/*--------------------------------*- C++ -*----------------------------------*\
| =========                 |                                                 |
| \\      /  F ield         | OpenFOAM: The Open Source CFD Toolbox           |
|  \\    /   O peration     | Version:  5.x                                   |
|   \\  /    A nd           | Web:      www.OpenFOAM.org                      |
|    \\/     M anipulation  |                                                 |
\*---------------------------------------------------------------------------*/
FoamFile
{
    version     2.0;
    format      ascii;
    class       volScalarField;
    location    "5.0001";
    object      gradTx;
}
// * * * * * * * * * * * * * * * * * * * * * * * * * * * * * * * * * * * * * //

dimensions      [0 -1 0 1 0 0 0];

internalField   nonuniform List<scalar> 
6300
(
-31.0732
-31.1439
-31.2844
-31.4935
-31.7689
-32.1074
-32.5048
-32.9557
-33.4533
-33.9898
-34.5558
-35.1411
-35.7345
-36.3252
-36.9024
-31.0027
-31.074
-31.216
-31.4273
-31.7058
-32.0485
-32.4513
-32.9089
-33.4146
-33.9604
-34.5367
-35.1329
-35.7374
-36.3386
-36.9251
-30.8609
-30.9335
-31.0783
-31.2939
-31.5787
-31.9297
-32.3432
-32.8142
-33.336
-33.9004
-34.4977
-35.1164
-35.7439
-36.3668
-36.9723
-30.6465
-30.721
-30.8697
-31.0916
-31.3853
-31.7485
-32.1778
-32.6686
-33.2147
-33.8078
-34.4375
-35.0913
-35.7549
-36.4124
-37.0484
-30.3577
-30.4345
-30.588
-30.8176
-31.1226
-31.5011
-31.9509
-32.4679
-33.0465
-33.6786
-34.3532
-35.0567
-35.7719
-36.4798
-37.1602
-29.9921
-30.0714
-30.2302
-30.4685
-30.7862
-31.1828
-31.6569
-32.2058
-32.8249
-33.5068
-34.2403
-35.0102
-35.7965
-36.5747
-37.318
-29.5472
-29.629
-29.793
-30.04
-30.371
-30.7869
-31.288
-31.8736
-32.5407
-33.2834
-34.0912
-34.9476
-35.8291
-36.7047
-37.5372
-29.0207
-29.1044
-29.2729
-29.5276
-29.8711
-30.3059
-30.8349
-31.4599
-32.181
-32.9951
-33.8935
-34.8599
-35.8677
-36.878
-37.8388
-28.4104
-28.4953
-28.6665
-28.9267
-29.2798
-29.7309
-30.2857
-30.9501
-31.7285
-32.6225
-33.6279
-34.731
-35.9041
-37.1007
-38.2507
-27.7153
-27.8
-27.9712
-28.2329
-28.5907
-29.0523
-29.6272
-30.3263
-31.1604
-32.1387
-33.2648
-34.5321
-35.917
-37.3702
-38.8046
-26.9356
-27.0181
-27.1857
-27.443
-27.7977
-28.2604
-28.8447
-29.5676
-30.4484
-31.5072
-32.7607
-34.2159
-35.8618
-37.6587
-39.5214
-26.0733
-26.1514
-26.3104
-26.5559
-26.897
-27.3469
-27.9237
-28.651
-29.5586
-30.6812
-32.0549
-33.7091
-35.6554
-37.8816
-40.359
-25.1331
-25.204
-25.3486
-25.5731
-25.8875
-26.3067
-26.8523
-27.5544
-28.4539
-29.6042
-31.0687
-32.9102
-35.1691
-37.8528
-41.053
-24.1221
-24.1828
-24.3071
-24.5006
-24.7733
-25.1403
-25.6246
-26.2604
-27.0986
-28.2132
-29.7054
-31.6937
-34.2575
-37.3071
-40.6896
-23.0504
-23.0983
-23.1962
-23.3491
-23.5649
-23.8568
-24.2454
-24.7641
-25.4671
-26.4446
-27.8459
-29.901
-32.8596
-36.4294
-37.0064
-37.413
-37.855
-38.2735
-38.6666
-39.0334
-39.3741
-39.6889
-39.9784
-40.243
-40.4825
-40.6965
-40.8842
-41.0444
-41.1767
-41.2809
-41.3579
-41.4098
-41.4393
-41.4502
-41.4468
-41.4332
-41.4131
-41.3893
-41.3635
-41.3361
-41.3066
-41.2734
-41.2346
-41.1881
-41.1326
-41.0673
-40.9925
-40.9096
-40.8208
-40.7287
-40.6363
-40.5458
-40.4592
-40.377
-40.2991
-40.224
-40.1497
-40.0738
-39.994
-39.9085
-39.8162
-39.7171
-39.6125
-39.5041
-39.3944
-39.2859
-39.1809
-39.0809
-38.9866
-38.8976
-38.8125
-38.7293
-38.6456
-38.5592
-38.4682
-38.3717
-38.2697
-38.1633
-38.0542
-37.9448
-37.8376
-37.7348
-37.6381
-37.5481
-37.4646
-37.3867
-37.3127
-37.2408
-37.1693
-37.0972
-37.0246
-36.9526
-36.8834
-36.8203
-36.7674
-36.7288
-36.7084
-36.7093
-36.7332
-36.7805
-36.8494
-36.9365
-37.037
-37.1444
-37.2518
-37.4425
-37.8889
-38.3101
-38.7044
-39.0713
-39.4113
-39.7253
-40.0144
-40.2791
-40.5194
-40.7347
-40.9236
-41.0848
-41.2171
-41.3201
-41.3944
-41.4419
-41.4661
-41.471
-41.4616
-41.4426
-41.4184
-41.3922
-41.3657
-41.3393
-41.312
-41.2816
-41.2456
-41.2013
-41.1467
-41.081
-41.0042
-40.9182
-40.8254
-40.7293
-40.6333
-40.5404
-40.4527
-40.371
-40.295
-40.2228
-40.152
-40.0795
-40.0023
-39.9182
-39.8258
-39.7253
-39.6179
-39.5059
-39.3925
-39.2808
-39.1736
-39.0727
-38.979
-38.8919
-38.8097
-38.7299
-38.6495
-38.5656
-38.4761
-38.3796
-38.2761
-38.167
-38.0545
-37.9415
-37.8312
-37.7261
-37.6283
-37.5386
-37.4566
-37.381
-37.3097
-37.2401
-37.17
-37.098
-37.0238
-36.9484
-36.8745
-36.8057
-36.7467
-36.7025
-36.6777
-36.676
-36.6996
-36.7492
-36.823
-36.9174
-37.0268
-37.1443
-37.2618
-37.5038
-37.9591
-38.3856
-38.7818
-39.1481
-39.4861
-39.7979
-40.0855
-40.3504
-40.5925
-40.8108
-41.0031
-41.1669
-41.2999
-41.4006
-41.4693
-41.508
-41.5206
-41.5126
-41.4902
-41.4597
-41.4268
-41.3955
-41.3679
-41.3439
-41.3218
-41.298
-41.2685
-41.2293
-41.1771
-41.1104
-41.0294
-40.9364
-40.8349
-40.7299
-40.626
-40.5276
-40.4375
-40.357
-40.2852
-40.2198
-40.1568
-40.0918
-40.0206
-39.9397
-39.8472
-39.7433
-39.6297
-39.5099
-39.3883
-39.2693
-39.1571
-39.0542
-38.9618
-38.8791
-38.8035
-38.7313
-38.6583
-38.5803
-38.4939
-38.3974
-38.2907
-38.1756
-38.0555
-37.9345
-37.817
-37.7069
-37.6068
-37.5178
-37.4394
-37.3692
-37.304
-37.2399
-37.1734
-37.1019
-37.0244
-36.9421
-36.858
-36.7768
-36.7048
-36.6483
-36.6137
-36.606
-36.6287
-36.6829
-36.7669
-36.8765
-37.0051
-37.1439
-37.2831
-37.6021
-38.0709
-38.5047
-38.9024
-39.2658
-39.5987
-39.9053
-40.1897
-40.4545
-40.7
-40.9243
-41.1238
-41.2936
-41.4292
-41.5275
-41.5876
-41.6117
-41.6049
-41.5748
-41.5304
-41.4805
-41.4331
-41.3936
-41.3648
-41.346
-41.3339
-41.3227
-41.3056
-41.2759
-41.2285
-41.1605
-41.0721
-40.9666
-40.8498
-40.7287
-40.6109
-40.5027
-40.4086
-40.3302
-40.2664
-40.2131
-40.1644
-40.1132
-40.0528
-39.9778
-39.8852
-39.7751
-39.6504
-39.5165
-39.38
-39.2482
-39.127
-39.0207
-38.9307
-38.8558
-38.7922
-38.734
-38.6744
-38.6069
-38.5263
-38.4297
-38.3172
-38.1914
-38.0576
-37.9223
-37.7921
-37.6731
-37.5692
-37.4819
-37.4101
-37.3501
-37.2966
-37.2432
-37.1839
-37.1142
-37.0321
-36.9384
-36.837
-36.7348
-36.6402
-36.5625
-36.5106
-36.4922
-36.5124
-36.5734
-36.6738
-36.8084
-36.9685
-37.1428
-37.318
-37.7459
-38.2335
-38.6757
-39.0724
-39.4277
-39.7491
-40.0447
-40.3223
-40.5864
-40.838
-41.0738
-41.2872
-41.4696
-41.6124
-41.7094
-41.7578
-41.7599
-41.7229
-41.658
-41.5784
-41.4979
-41.4278
-41.3765
-41.3473
-41.3387
-41.3448
-41.3559
-41.3607
-41.3482
-41.3095
-41.2399
-41.1395
-41.0133
-40.8707
-40.7229
-40.5818
-40.4575
-40.357
-40.2826
-40.2324
-40.2
-40.1755
-40.1479
-40.106
-40.0411
-39.9485
-39.828
-39.6845
-39.5266
-39.3652
-39.2117
-39.0756
-38.9635
-38.8778
-38.8164
-38.7731
-38.7385
-38.7017
-38.6523
-38.5816
-38.485
-38.3626
-38.2188
-38.0619
-37.9025
-37.7513
-37.6175
-37.5075
-37.4236
-37.3637
-37.3218
-37.289
-37.2548
-37.2093
-37.1445
-37.0563
-36.9454
-36.8174
-36.6818
-36.5512
-36.4394
-36.3594
-36.3227
-36.3374
-36.4072
-36.5313
-36.7032
-36.9116
-37.1404
-37.3709
-37.949
-38.4617
-38.9123
-39.3019
-39.6388
-39.9365
-40.2104
-40.4743
-40.7366
-40.9989
-41.2557
-41.4953
-41.7025
-41.8619
-41.9613
-41.9947
-41.9644
-41.8812
-41.7622
-41.6281
-41.5001
-41.3958
-41.3275
-41.3001
-41.3105
-41.3485
-41.3982
-41.4409
-41.4582
-41.4352
-41.3637
-41.2438
-41.0839
-40.899
-40.7075
-40.5286
-40.3783
-40.2676
-40.2003
-40.173
-40.1752
-40.1914
-40.203
-40.1922
-40.1445
-40.0518
-39.914
-39.7392
-39.5416
-39.3391
-39.1499
-38.9895
-38.8682
-38.7898
-38.7509
-38.7413
-38.7461
-38.7474
-38.7281
-38.6741
-38.5776
-38.4387
-38.2648
-38.0698
-37.8708
-37.6851
-37.5276
-37.4083
-37.3306
-37.2912
-37.2802
-37.2832
-37.2828
-37.2624
-37.2083
-37.1131
-36.9771
-36.8084
-36.6215
-36.4352
-36.2701
-36.1459
-36.0793
-36.0827
-36.1629
-36.3197
-36.5457
-36.8251
-37.1353
-37.4488
-38.2326
-38.7793
-39.2369
-39.6075
-39.9063
-40.1581
-40.3908
-40.6287
-40.8868
-41.168
-41.4624
-41.7501
-42.0045
-42.198
-42.3083
-42.3233
-42.2454
-42.0911
-41.888
-41.6694
-41.4681
-41.312
-41.2197
-41.1985
-41.2426
-41.3353
-41.4506
-41.5578
-41.6262
-41.6307
-41.5573
-41.4059
-41.1906
-40.9366
-40.6742
-40.4341
-40.2422
-40.1155
-40.0604
-40.071
-40.1304
-40.2136
-40.2906
-40.3316
-40.3126
-40.2199
-40.0533
-39.8266
-39.5637
-39.2939
-39.0468
-38.847
-38.7111
-38.645
-38.643
-38.6889
-38.7584
-38.8229
-38.8537
-38.8276
-38.7313
-38.5649
-38.3413
-38.0835
-37.8198
-37.5783
-37.3827
-37.2489
-37.1824
-37.1776
-37.2187
-37.2821
-37.3397
-37.3637
-37.3311
-37.2287
-37.056
-36.8255
-36.5601
-36.2887
-36.042
-35.8492
-35.7348
-35.7175
-35.808
-36.0087
-36.3109
-36.6941
-37.1254
-37.5631
-38.6296
-39.2252
-39.6869
-40.0166
-40.2417
-40.4074
-40.5638
-40.754
-41.0039
-41.318
-41.6791
-42.0529
-42.394
-42.6542
-42.7926
-42.7859
-42.6363
-42.3713
-42.0365
-41.6857
-41.3712
-41.1363
-41.0099
-41.0026
-41.105
-41.2896
-41.5148
-41.7306
-41.8861
-41.9386
-41.8632
-41.6598
-41.3534
-40.9862
-40.6088
-40.2704
-40.0119
-39.8606
-39.826
-39.8985
-40.0516
-40.2447
-40.4297
-40.5576
-40.587
-40.4942
-40.2793
-39.9661
-39.5955
-39.2162
-38.8754
-38.6125
-38.4536
-38.4078
-38.466
-38.6023
-38.7781
-38.9468
-39.0613
-39.0821
-38.9861
-38.7733
-38.4668
-38.1058
-37.7367
-37.4052
-37.1489
-36.9927
-36.9453
-36.9977
-37.1249
-37.2891
-37.445
-37.5465
-37.5544
-37.4453
-37.2178
-36.8928
-36.5073
-36.1064
-35.7364
-35.4394
-35.2507
-35.1967
-35.2946
-35.5512
-35.9595
-36.4937
-37.1064
-37.7319
-39.1899
-39.8642
-40.3268
-40.5763
-40.6628
-40.6699
-40.6883
-40.7932
-41.0288
-41.4003
-41.8776
-42.403
-42.9002
-43.286
-43.4858
-43.4544
-43.1935
-42.752
-42.2082
-41.6499
-41.1596
-40.8043
-40.6287
-40.6489
-40.8492
-41.1856
-41.5926
-41.9904
-42.2945
-42.4307
-42.3533
-42.0624
-41.6035
-41.0507
-40.4872
-39.9915
-39.6275
-39.4377
-39.4371
-39.6103
-39.9149
-40.2875
-40.6513
-40.9251
-41.0374
-40.9445
-40.6467
-40.1881
-39.6401
-39.0828
-38.5917
-38.2282
-38.0331
-38.0208
-38.1764
-38.459
-38.8078
-39.1488
-39.4039
-39.5046
-39.4088
-39.1168
-38.6709
-38.1394
-37.5996
-37.1237
-36.7707
-36.5797
-36.5643
-36.7102
-36.9777
-37.3078
-37.6287
-37.8641
-37.9461
-37.8323
-37.5201
-37.0472
-36.4765
-35.8796
-35.3254
-34.8736
-34.5724
-34.4572
-34.5526
-34.8751
-35.4267
-36.1804
-37.0685
-37.9853
-39.9896
-40.8081
-41.2739
-41.3708
-41.1984
-40.916
-40.688
-40.6445
-40.858
-41.3303
-42.0071
-42.7936
-43.5669
-44.1856
-44.5121
-44.4535
-44.0109
-43.2802
-42.4008
-41.5165
-40.7535
-40.2136
-39.9657
-40.036
-40.3972
-40.98
-41.6837
-42.3849
-42.945
-43.2304
-43.1508
-42.7068
-41.989
-41.1304
-40.2681
-39.523
-38.9923
-38.7423
-38.7979
-39.1329
-39.6802
-40.3431
-41.0025
-41.5253
-41.7831
-41.6896
-41.2457
-40.539
-39.6979
-38.8542
-38.1242
-37.6014
-37.3494
-37.392
-37.7038
-38.2204
-38.8486
-39.4742
-39.969
-40.2099
-40.1139
-39.6818
-38.9979
-38.1852
-37.3704
-36.6652
-36.1592
-35.9136
-35.9511
-36.2473
-36.7402
-37.3398
-37.9354
-38.4023
-38.6198
-38.5047
-38.0536
-37.3424
-36.4833
-35.5913
-34.7667
-34.0911
-33.6262
-33.4142
-33.4836
-33.8691
-34.6029
-35.6733
-36.9893
-38.3741
-41.137
-42.2599
-42.7524
-42.5534
-41.8923
-41.0838
-40.4218
-40.1257
-40.3146
-40.9661
-41.9785
-43.2034
-44.4565
-45.506
-46.0933
-46.0054
-45.2435
-44.0224
-42.6007
-41.2083
-40.0264
-39.2023
-38.8448
-39.0041
-39.6263
-40.6003
-41.7785
-42.9829
-43.9909
-44.5555
-44.4734
-43.7456
-42.5773
-41.2155
-39.8804
-38.7456
-37.9529
-37.607
-37.7564
-38.3496
-39.2793
-40.4035
-41.5506
-42.5068
-43.0347
-42.9395
-42.223
-41.0836
-39.7592
-38.4618
-37.3583
-36.5847
-36.2416
-36.3753
-36.9362
-37.821
-38.8932
-39.9878
-40.8995
-41.4003
-41.303
-40.6095
-39.5102
-38.2337
-36.9834
-35.9195
-35.1728
-34.8398
-34.9652
-35.5013
-36.3491
-37.3774
-38.4273
-39.2996
-39.7724
-39.661
-38.9617
-37.8503
-36.5375
-35.206
-33.9934
-33.0052
-32.3157
-31.9657
-31.9595
-32.3615
-33.2944
-34.8123
-36.8111
-38.9877
-42.7575
-44.6197
-45.2269
-44.402
-42.7994
-41.0406
-39.6285
-38.9082
-39.1048
-40.0821
-41.644
-43.5726
-45.6395
-47.4922
-48.6467
-48.528
-47.1373
-45.0537
-42.7585
-40.5972
-38.7842
-37.5193
-36.9799
-37.3054
-38.349
-39.9267
-41.8358
-43.8635
-45.6755
-46.8121
-46.7257
-45.4187
-43.4441
-41.2623
-39.2042
-37.4758
-36.2701
-35.7584
-36.076
-37.0817
-38.5983
-40.4307
-42.3736
-44.1052
-45.1837
-45.0838
-43.8095
-41.8943
-39.7818
-37.7901
-36.1172
-34.9479
-34.4469
-34.7437
-35.7021
-37.1519
-38.9053
-40.7649
-42.4218
-43.4518
-43.3504
-42.1215
-40.2776
-38.2445
-36.3277
-34.7172
-33.5906
-33.1059
-33.3878
-34.3061
-35.6981
-37.384
-39.1746
-40.7723
-41.7659
-41.6638
-40.463
-38.6484
-36.6183
-34.6492
-32.8969
-31.4889
-30.5162
-30.0221
-29.8476
-30.0892
-31.1437
-33.2584
-36.377
-39.9944
-44.8409
-48.7857
-49.7637
-47.3717
-43.9333
-40.4993
-37.8391
-36.3703
-36.7708
-38.3563
-40.7816
-43.7428
-47.131
-50.4839
-53.0338
-52.8822
-50.0292
-46.3899
-42.7236
-39.4846
-36.7527
-34.7917
-33.8693
-34.573
-36.3027
-38.7757
-41.7226
-45.0547
-48.3328
-50.83
-50.7357
-48.0531
-44.6095
-41.1312
-38.0529
-35.4536
-33.5877
-32.7157
-33.405
-35.0778
-37.4626
-40.299
-43.5009
-46.644
-49.0295
-48.9193
-46.3187
-42.9892
-39.6303
-36.6592
-34.1508
-32.3489
-31.5034
-32.1592
-33.7604
-36.0455
-38.7642
-41.8338
-44.8468
-47.1323
-47.0213
-44.5191
-41.3174
-38.0878
-35.2308
-32.8181
-31.0838
-30.2679
-30.8938
-32.429
-34.6236
-37.2396
-40.1998
-43.1149
-45.3371
-45.2484
-42.8483
-39.7565
-36.6113
-33.7804
-31.3044
-29.3459
-28.0275
-27.6179
-27.1363
-26.6461
-27.4662
-30.259
-35.2247
-41.7329
-46.3531
-57.2231
-59.1506
-51.8489
-45.064
-38.8457
-34.3347
-31.1403
-32.7307
-35.4208
-39.1478
-43.2979
-48.6736
-54.632
-61.3112
-61.1266
-54.0533
-47.7652
-42.0736
-37.6417
-33.6113
-30.5684
-28.4174
-30.3633
-33.186
-36.9423
-41.0547
-46.3237
-52.1146
-58.5798
-58.4727
-51.7837
-45.8247
-40.424
-36.2122
-32.3751
-29.4742
-27.4248
-29.3175
-32.0489
-35.6765
-39.6409
-44.7128
-50.2737
-56.4693
-56.3408
-49.8774
-44.1264
-38.9204
-34.8622
-31.167
-28.3728
-26.3978
-28.2132
-30.8339
-34.3146
-38.118
-42.984
-48.3193
-54.2637
-54.1354
-47.9238
-42.3972
-37.3946
-33.4942
-29.9417
-27.2547
-25.3536
-27.0903
-29.6021
-32.9421
-36.5996
-41.2897
-46.4553
-52.2356
-52.1615
-46.2296
-40.9412
-36.1515
-32.4005
-28.9664
-26.2808
-24.2299
-25.3172
-24.4368
-21.3155
-20.9475
-24.1306
-31.8511
-44.9332
-40.276
-78.5445
-81.8135
-55.5675
-45.3791
-34.7361
-28.9345
-19.0204
-27.1067
-30.9924
-36.9047
-41.0883
-49.3773
-57.7423
-79.4726
-79.2909
-56.9468
-48.2816
-39.6097
-35.2206
-29.0481
-25.061
-17.066
-24.8909
-28.7251
-34.5959
-38.7216
-46.8414
-54.9253
-75.7936
-75.688
-54.463
-46.2359
-38.0049
-33.832
-27.9485
-24.1343
-16.4575
-24.0223
-27.7294
-33.4053
-37.3878
-45.2208
-52.9892
-73.0158
-72.8844
-52.4105
-44.4786
-36.5576
-32.5423
-26.8856
-23.2171
-15.8342
-23.1073
-26.669
-32.1192
-35.9416
-43.4582
-50.9146
-70.1396
-70.0094
-50.3419
-42.7223
-35.1143
-31.2563
-25.8191
-22.2936
-15.201
-22.1704
-25.5829
-30.8032
-34.4725
-41.6947
-48.9103
-67.5645
-67.5098
-48.6839
-41.4079
-34.196
-30.5641
-25.5506
-22.3015
-15.9128
-25.8492
-24.963
-12.0197
-9.31468
-11.4684
-20.7571
-51.1713
-37.361
-37.461
-37.5319
-37.5683
-37.5683
-37.5339
-37.4699
-37.3835
-37.2828
-37.1768
-37.0738
-36.9816
-36.9066
-36.8537
-36.8264
-37.3812
-37.4901
-37.5665
-37.6045
-37.6027
-37.5634
-37.4924
-37.3976
-37.2882
-37.1737
-37.0631
-36.9644
-36.8843
-36.8281
-36.7991
-37.424
-37.5515
-37.6393
-37.6806
-37.6744
-37.6245
-37.5385
-37.4262
-37.2986
-37.1666
-37.0403
-36.9284
-36.8382
-36.7751
-36.7426
-37.4947
-37.6527
-37.7585
-37.8042
-37.7898
-37.7217
-37.6108
-37.47
-37.3133
-37.1537
-37.0029
-36.8708
-36.765
-36.6914
-36.6536
-37.6023
-37.8061
-37.9375
-37.9877
-37.9588
-37.8618
-37.7127
-37.5297
-37.3308
-37.1319
-36.9469
-36.7866
-36.6596
-36.5717
-36.5268
-37.7615
-38.0317
-38.1979
-38.2502
-38.1959
-38.0538
-37.8485
-37.6054
-37.348
-37.0963
-36.866
-36.6693
-36.5149
-36.4089
-36.355
-37.9961
-38.3613
-38.5719
-38.6193
-38.5208
-38.3091
-38.0219
-37.6952
-37.3596
-37.0391
-36.7515
-36.5095
-36.3218
-36.1939
-36.1292
-38.345
-38.8455
-39.1092
-39.1342
-38.9588
-38.6396
-38.2347
-37.7939
-37.3561
-36.9489
-36.5913
-36.2954
-36.0687
-35.9157
-35.8387
-38.8732
-39.5665
-39.885
-39.8494
-39.5405
-39.0559
-38.4832
-37.8897
-37.3218
-36.8091
-36.3693
-36.012
-35.742
-35.5614
-35.471
-39.6953
-40.6621
-41.0148
-40.8378
-40.2978
-39.5602
-38.7526
-37.9598
-37.2321
-36.5964
-36.0647
-35.6412
-35.3257
-35.1169
-35.0129
-41.0244
-42.3718
-42.6743
-42.189
-41.2525
-40.1344
-39.007
-37.9646
-37.0504
-36.2795
-35.652
-35.1622
-34.8028
-34.5673
-34.4508
-43.2903
-45.1261
-45.1216
-43.9913
-42.3889
-40.7178
-39.1765
-37.8409
-36.7256
-35.819
-35.1014
-34.5527
-34.1561
-33.8987
-33.7721
-47.4512
-49.7209
-48.6946
-46.2658
-43.5936
-41.1713
-39.1402
-37.4969
-36.1919
-35.1695
-34.3818
-33.7912
-33.37
-33.0992
-32.9666
-55.9346
-57.612
-53.6704
-48.7835
-44.5484
-41.2333
-38.7161
-36.8147
-35.3754
-34.2853
-33.4651
-32.8601
-32.4336
-32.1613
-32.0286
-75.9084
-71.1225
-59.5919
-50.6495
-44.5833
-40.4974
-37.6761
-35.6701
-34.2097
-33.1312
-32.3329
-31.7506
-31.3429
-31.0838
-30.9578
-22.0241
-22.0582
-22.1278
-22.2358
-22.3875
-22.5915
-22.8621
-23.2237
-23.72
-24.4349
-25.5417
-27.4289
-31.0184
-38.3755
-51.6962
-21.0676
-21.0882
-21.1298
-21.1935
-21.281
-21.3952
-21.5415
-21.7299
-21.9801
-22.3357
-22.9045
-23.9991
-26.7322
-35.9921
-77.3562
-20.0968
-20.1036
-20.1167
-20.1348
-20.1559
-20.1767
-20.1919
-20.1933
-20.1671
-20.0883
-19.9012
-19.4313
-17.9222
-11.2918
25.2561
-19.1213
-19.1147
-19.1
-19.074
-19.0311
-18.9621
-18.8521
-18.676
-18.3906
-17.916
-17.0933
-15.5841
-12.6769
-7.37235
-3.75079
-18.1504
-18.1315
-18.0913
-18.0251
-17.9246
-17.7762
-17.5582
-17.2348
-16.7458
-15.9855
-14.7609
-12.706
-9.09699
-2.28867
13.6068
-17.1928
-17.163
-17.1007
-17
-16.8513
-16.6387
-16.3375
-15.9088
-15.2896
-14.3775
-13.0047
-10.906
-7.73812
-3.5146
-1.84566
-16.256
-16.2172
-16.1367
-16.0085
-15.8224
-15.5627
-15.2056
-14.7151
-14.0371
-13.0899
-11.7524
-9.84814
-7.11215
-2.96508
5.30854
-15.3462
-15.3003
-15.2059
-15.0571
-14.8446
-14.5545
-14.1663
-13.6518
-12.9716
-12.0736
-10.8938
-9.36781
-7.46603
-5.28026
-3.24032
-14.4683
-14.4173
-14.3129
-14.1501
-13.9209
-13.6143
-13.2149
-12.7037
-12.0576
-11.2531
-10.2759
-9.14847
-8.0171
-7.49323
-10.3726
-13.6259
-13.5714
-13.4605
-13.2891
-13.0511
-12.7385
-12.3413
-11.8492
-11.2535
-10.5527
-9.76247
-8.93192
-8.14629
-7.3419
-4.59719
-12.8213
-12.7648
-12.6502
-12.4744
-12.2332
-11.9214
-11.5337
-11.0667
-10.5225
-9.91438
-9.27713
-8.68426
-8.28852
-8.53724
-11.8231
-12.0561
-11.9986
-11.8824
-11.7053
-11.4645
-11.157
-10.7811
-10.338
-9.83604
-9.29635
-8.76106
-8.29975
-7.98323
-7.62265
-4.85868
-11.3309
-11.2731
-11.1568
-10.9804
-10.7421
-10.4403
-10.0752
-9.65013
-9.17581
-8.67533
-8.19368
-7.81477
-7.70854
-8.37632
-12.4472
-10.6458
-10.5885
-10.4731
-10.2986
-10.0638
-9.76773
-9.41085
-8.99657
-8.53381
-8.04129
-7.55502
-7.14049
-6.89633
-6.76594
-4.48542
-10.0006
-9.94409
-9.83046
-9.65885
-9.42814
-9.1374
-8.78646
-8.37674
-7.91253
-7.40297
-6.8666
-6.34797
-6.00511
-6.64788
-13.3174
-9.3948
-9.3394
-9.22814
-9.06014
-8.83419
-8.54893
-8.20294
-7.79481
-7.32281
-6.78335
-6.16592
-5.43346
-4.42944
-2.3437
5.74075
-8.82748
-8.77357
-8.66529
-8.50173
-8.2815
-8.00268
-7.66262
-7.25731
-6.77999
-6.21793
-5.5452
-4.70761
-3.60497
-2.20441
-2.10899
-8.29765
-8.24555
-8.14089
-7.98273
-7.76954
-7.49903
-7.16768
-6.76986
-6.29607
-5.72945
-5.03903
-4.16591
-2.9874
-1.15788
3.00776
-7.80406
-7.75409
-7.6537
-7.50199
-7.29745
-7.03769
-6.71895
-6.33524
-5.87669
-5.32701
-4.65981
-3.83636
-2.82193
-1.73276
-1.8832
-7.34523
-7.29768
-7.2022
-7.05801
-6.86377
-6.61735
-6.3154
-5.95264
-5.52066
-5.00624
-4.38918
-3.63952
-2.70837
-1.4459
1.12259
-6.91948
-6.87461
-6.78459
-6.64884
-6.46638
-6.23563
-5.95415
-5.61818
-5.22194
-4.75683
-4.21071
-3.56879
-2.82489
-2.0651
-2.08945
-6.52495
-6.48294
-6.39879
-6.27217
-6.10257
-5.88919
-5.6308
-5.32562
-4.9711
-4.56374
-4.09885
-3.56897
-2.95247
-2.13884
-0.446664
-6.15964
-6.12061
-6.04253
-5.9254
-5.76924
-5.57406
-5.34001
-5.06739
-4.75702
-4.41068
-4.03221
-3.62939
-3.21694
-2.82179
-2.50078
-5.82149
-5.78543
-5.71344
-5.6058
-5.46304
-5.28599
-5.07604
-4.83545
-4.56798
-4.27999
-3.98256
-3.69656
-3.46942
-3.45237
-4.33211
-5.50844
-5.47526
-5.40915
-5.31066
-5.18071
-5.02083
-4.83341
-4.62223
-4.39326
-4.15593
-3.92506
-3.72294
-3.57601
-3.45928
-2.83322
-5.21849
-5.18802
-5.12741
-5.0374
-4.91922
-4.77485
-4.60734
-4.42143
-4.22439
-4.02745
-3.84766
-3.71108
-3.66163
-3.819
-4.84101
-4.94974
-4.92175
-4.86614
-4.78376
-4.67598
-4.54498
-4.3941
-4.2284
-4.05554
-3.88711
-3.74033
-3.63878
-3.60365
-3.5774
-2.8714
-4.70049
-4.67471
-4.62353
-4.5478
-4.4489
-4.32898
-4.19122
-4.0404
-3.88366
-3.73182
-3.60167
-3.52045
-3.53951
-3.80699
-5.09895
-4.46919
-4.44535
-4.39802
-4.32798
-4.23649
-4.12541
-3.99746
-3.85657
-3.70843
-3.56153
-3.42909
-3.33256
-3.30285
-3.3243
-2.71261
-4.2545
-4.23234
-4.18833
-4.12312
-4.03772
-3.9336
-3.81275
-3.67783
-3.5324
-3.38126
-3.23166
-3.09833
-3.03068
-3.28046
-5.41286
-4.05525
-4.03455
-3.99341
-3.93232
-3.85201
-3.75346
-3.63785
-3.50645
-3.36038
-3.19997
-3.02301
-2.81856
-2.53806
-1.92845
0.549604
-3.87041
-3.85102
-3.8124
-3.75492
-3.67901
-3.58522
-3.47396
-3.3453
-3.19838
-3.03023
-2.8335
-2.59168
-2.27401
-1.87327
-1.91084
-3.69908
-3.68087
-3.64455
-3.59034
-3.51849
-3.42915
-3.3222
-3.1969
-3.05116
-2.88041
-2.67536
-2.41753
-2.06764
-1.51299
-0.197874
-3.54045
-3.52333
-3.48917
-3.43807
-3.37015
-3.28534
-3.18325
-3.06273
-2.92135
-2.75446
-2.55392
-2.30737
-2.00345
-1.68017
-1.77132
-3.39376
-3.37768
-3.34558
-3.29753
-3.23358
-3.15359
-3.05713
-2.94309
-2.80931
-2.65191
-2.4645
-2.2371
-1.95272
-1.55889
-0.721591
-3.25827
-3.2432
-3.21311
-3.16808
-3.10818
-3.03333
-2.94326
-2.83721
-2.71372
-2.57026
-2.40291
-2.20645
-1.97798
-1.74496
-1.77705
-3.13328
-3.11918
-3.09106
-3.04901
-2.99319
-2.92369
-2.84052
-2.74347
-2.63203
-2.50526
-2.36157
-2.19809
-2.00642
-1.74631
-1.17829
-3.01812
-3.00495
-2.9787
-2.93955
-2.88774
-2.82359
-2.74746
-2.65977
-2.56104
-2.45204
-2.33403
-2.20936
-2.08236
-1.96092
-1.86173
-2.91215
-2.89985
-2.87535
-2.83891
-2.7909
-2.73184
-2.66246
-2.58377
-2.49723
-2.40512
-2.31116
-2.2223
-2.15446
-2.1595
-2.47637
-2.81476
-2.80324
-2.78033
-2.74634
-2.70176
-2.6473
-2.58397
-2.51326
-2.43734
-2.35951
-2.2848
-2.2207
-2.17593
-2.14097
-1.9248
-2.72541
-2.71457
-2.69303
-2.66117
-2.61953
-2.56895
-2.51065
-2.4464
-2.37881
-2.31178
-2.25113
-2.20572
-2.1906
-2.24772
-2.60956
-2.64363
-2.63335
-2.61295
-2.58281
-2.54353
-2.49599
-2.44149
-2.38189
-2.31993
-2.25965
-2.20692
-2.16974
-2.15511
-2.14232
-1.88817
-2.56903
-2.55918
-2.53967
-2.51085
-2.4733
-2.42791
-2.3759
-2.31905
-2.25993
-2.20231
-2.15196
-2.11814
-2.11835
-2.20403
-2.64789
-2.50129
-2.49176
-2.47287
-2.44496
-2.40856
-2.36445
-2.3137
-2.25782
-2.1989
-2.13996
-2.08557
-2.04295
-2.02224
-2.01649
-1.78484
-2.44019
-2.43087
-2.41238
-2.385
-2.34921
-2.30562
-2.2551
-2.19874
-2.13793
-2.07449
-2.01104
-1.95259
-1.91573
-1.98538
-2.6921
-2.3856
-2.37638
-2.35808
-2.33092
-2.29528
-2.25164
-2.20059
-2.14277
-2.07881
-2.00907
-1.93306
-1.84726
-1.73527
-1.5114
-0.655778
-2.33743
-2.32823
-2.30995
-2.28276
-2.24694
-2.20284
-2.1508
-2.09109
-2.02372
-1.94803
-1.86192
-1.76016
-1.63251
-1.47577
-1.45976
-2.29567
-2.28643
-2.26802
-2.24061
-2.20439
-2.15958
-2.10636
-2.04476
-1.97442
-1.89426
-1.80168
-1.69107
-1.54996
-1.34205
-0.889623
-2.26035
-2.251
-2.23238
-2.2046
-2.16782
-2.12217
-2.06776
-2.00451
-1.93198
-1.84915
-1.75398
-1.64317
-1.51377
-1.37785
-1.36837
-2.23154
-2.22205
-2.20313
-2.17487
-2.13742
-2.09088
-2.03534
-1.97072
-1.89672
-1.81262
-1.71715
-1.60822
-1.48212
-1.32553
-1.04483
-2.20934
-2.19966
-2.18037
-2.15155
-2.11334
-2.06587
-2.00923
-1.94347
-1.86848
-1.78402
-1.68969
-1.58521
-1.47164
-1.35913
-1.32212
-2.19388
-2.18398
-2.16425
-2.13478
-2.09572
-2.04723
-1.98948
-1.92264
-1.84684
-1.76229
-1.66931
-1.56853
-1.4604
-1.34005
-1.1593
-2.1853
-2.17515
-2.1549
-2.12468
-2.08466
-2.03504
-1.97607
-1.90804
-1.8313
-1.74642
-1.65437
-1.55698
-1.45765
-1.36267
-1.28543
-2.1838
-2.17334
-2.1525
-2.12141
-2.08028
-2.02937
-1.96898
-1.8995
-1.82144
-1.73556
-1.64316
-1.54678
-1.4519
-1.37272
-1.35796
-2.18957
-2.17877
-2.15723
-2.12514
-2.08272
-2.03028
-1.9682
-1.89693
-1.81702
-1.72923
-1.63472
-1.53555
-1.43523
-1.33779
-1.2309
-2.20287
-2.19165
-2.16931
-2.13604
-2.09212
-2.03791
-1.97383
-1.90038
-1.8181
-1.72758
-1.62955
-1.52514
-1.41657
-1.30922
-1.21903
-2.22396
-2.21227
-2.189
-2.15436
-2.10869
-2.05239
-1.98598
-1.90998
-1.8249
-1.73115
-1.62883
-1.51764
-1.39705
-1.26853
-1.14857
-2.25319
-2.24095
-2.21658
-2.18035
-2.13264
-2.07392
-2.0048
-1.92589
-1.83775
-1.74068
-1.63428
-1.51667
-1.38303
-1.2217
-0.990842
-2.29094
-2.27805
-2.25242
-2.21434
-2.16423
-2.10269
-2.03042
-1.94821
-1.85681
-1.75671
-1.64753
-1.52686
-1.38825
-1.22298
-1.08012
-2.33765
-2.32402
-2.29692
-2.25668
-2.20379
-2.13893
-2.06296
-1.97692
-1.88193
-1.77906
-1.66877
-1.54952
-1.41198
-1.20854
-0.662926
-2.39383
-2.37935
-2.35056
-2.30781
-2.25166
-2.18288
-2.1025
-2.01185
-1.91255
-1.80656
-1.69623
-1.5849
-1.48149
-1.43157
-1.73027
-2.46007
-2.44462
-2.41389
-2.36826
-2.30831
-2.23489
-2.14919
-2.05279
-1.94781
-1.83708
-1.72439
-1.61479
-1.51384
-1.41243
-1.14164
-2.53706
-2.52051
-2.48758
-2.43865
-2.37432
-2.29545
-2.20331
-2.09969
-1.98707
-1.86898
-1.7504
-1.63867
-1.54649
-1.51085
-1.73576
-2.62554
-2.60777
-2.5724
-2.51976
-2.45042
-2.36522
-2.26542
-2.15283
-2.03013
-1.90121
-1.77167
-1.64898
-1.53988
-1.42828
-1.11525
-2.72637
-2.70727
-2.66921
-2.61247
-2.53754
-2.44515
-2.33641
-2.21301
-2.07752
-1.93388
-1.78818
-1.64986
-1.535
-1.48554
-1.71805
-2.84047
-2.81994
-2.77899
-2.71782
-2.63678
-2.53643
-2.41759
-2.28159
-2.13056
-1.96798
-1.79957
-1.63445
-1.4847
-1.34695
-1.04163
-2.96883
-2.9468
-2.90281
-2.83697
-2.74945
-2.64054
-2.51069
-2.36061
-2.19163
-2.00613
-1.80867
-1.60837
-1.42607
-1.32471
-1.57169
-3.11248
-3.08892
-3.04181
-2.97117
-2.87698
-2.75921
-2.61783
-2.45277
-2.26416
-2.05258
-1.81975
-1.56979
-1.31123
-1.06054
-0.854747
-3.2725
-3.2474
-3.19717
-3.12172
-3.02087
-2.89429
-2.7414
-2.56129
-2.35265
-2.11378
-1.84272
-1.53719
-1.19091
-0.765191
0.00510937
-3.44995
-3.42333
-3.37003
-3.2899
-3.18264
-3.04764
-2.88388
-2.68963
-2.46213
-2.19732
-1.88965
-1.53287
-1.12577
-0.709122
-0.632486
-3.64588
-3.61778
-3.56153
-3.47694
-3.36366
-3.22097
-3.04754
-2.84104
-2.59753
-2.31064
-1.97066
-1.56351
-1.06724
-0.416936
0.815519
-3.86133
-3.8318
-3.7727
-3.68391
-3.56511
-3.41564
-3.23417
-3.01816
-2.76304
-2.46083
-2.09833
-1.65602
-1.1157
-0.529018
-0.503175
-4.09728
-4.06635
-4.0045
-3.9117
-3.78785
-3.63253
-3.44477
-3.22245
-2.96126
-2.65288
-2.28142
-1.8166
-1.19634
-0.251643
1.81865
-4.35471
-4.32237
-4.25777
-4.16107
-4.03244
-3.87195
-3.67938
-3.45372
-3.19226
-2.88872
-2.52935
-2.08512
-1.50228
-0.755941
-0.612613
-4.63459
-4.60079
-4.53335
-4.43262
-4.29915
-4.13365
-3.93696
-3.70984
-3.45247
-3.16334
-2.8362
-2.4499
-1.92177
-0.841503
3.24644
-4.93795
-4.90256
-4.83203
-4.7269
-4.58809
-4.41701
-4.21568
-3.98697
-3.73475
-3.46434
-3.18412
-2.91319
-2.72468
-3.01576
-6.3039
-5.26588
-5.22873
-5.15474
-5.04458
-4.89945
-4.72136
-4.51342
-4.28043
-4.02964
-3.77215
-3.52561
-3.31922
-3.19455
-3.10876
-1.88942
-5.6196
-5.58049
-5.50256
-5.38652
-5.2337
-5.04642
-4.82855
-4.58625
-4.32919
-4.07236
-3.8392
-3.66851
-3.63741
-3.989
-6.06579
-6.00049
-5.9592
-5.87685
-5.75401
-5.59188
-5.39274
-5.16063
-4.90231
-4.62859
-4.35612
-4.1094
-3.92086
-3.81451
-3.67124
-2.24676
-6.41004
-6.36642
-6.27924
-6.14877
-5.97575
-5.76195
-5.51091
-5.22905
-4.9271
-4.62201
-4.33919
-4.11614
-4.01725
-4.24326
-6.00255
-6.84987
-6.80388
-6.71171
-6.57307
-6.38793
-6.15701
-5.8826
-5.56974
-5.2278
-4.87243
-4.52746
-4.22519
-3.99436
-3.75058
-2.416
-7.32162
-7.27342
-7.17643
-7.02965
-6.83189
-6.58226
-6.28098
-5.93061
-5.53782
-5.11562
-4.68608
-4.28461
-3.98048
-4.01547
-5.69737
-7.82685
-7.77681
-7.67572
-7.52164
-7.31187
-7.04337
-6.71345
-6.32095
-5.86825
-5.3639
-4.8252
-4.27645
-3.73109
-3.13679
-2.35199
-8.36683
-8.31566
-8.21181
-8.05228
-7.83262
-7.54714
-7.18936
-6.75309
-6.23453
-5.63604
-4.9713
-4.26593
-3.5157
-2.39049
1.53844
-8.94232
-8.89107
-8.78656
-8.62467
-8.39907
-8.1011
-7.71977
-7.24236
-6.65632
-5.95417
-5.14561
-4.28656
-3.56075
-3.59134
-7.07985
-9.5534
-9.50347
-9.40114
-9.24129
-9.01578
-8.71294
-8.31689
-7.80708
-7.15872
-6.34621
-5.35498
-4.21468
-3.08057
-2.39063
-2.88375
-10.1991
-10.1522
-10.0556
-9.90349
-9.68618
-9.3895
-8.993
-8.468
-7.7751
-6.86234
-5.66789
-4.13854
-2.292
-0.368143
0.969696
-10.8774
-10.8355
-10.7487
-10.6109
-10.4117
-10.1354
-9.75833
-9.24551
-8.54415
-7.57409
-6.21338
-4.28272
-1.55722
2.06154
5.75201
-11.5848
-11.5499
-11.4773
-11.3609
-11.1908
-10.9511
-10.6179
-10.1539
-9.49978
-8.55712
-7.15468
-4.97893
-1.44285
4.44164
13.0969
-12.3164
-12.2905
-12.2362
-12.1483
-12.0181
-11.8319
-11.5684
-11.1944
-10.6558
-9.85943
-8.633
-6.61986
-2.95941
4.89782
26.4523
-149.347
-89.6899
-62.6481
-49.7239
-42.8
-38.6636
-35.9751
-34.1208
-32.7911
-31.8162
-31.0972
-30.5734
-30.2069
-29.9739
-29.8607
-185.923
-83.9173
-55.623
-44.7157
-39.2431
-35.9909
-33.8495
-32.3481
-31.2549
-30.443
-29.8381
-29.3939
-29.0813
-28.8818
-28.7847
48.2202
-26.9539
-36.5241
-35.9336
-34.1443
-32.5467
-31.2793
-30.2919
-29.5232
-28.9262
-28.4673
-28.123
-27.8771
-27.7187
-27.6411
-6.99007
-15.5495
-24.4813
-27.984
-28.9125
-28.8731
-28.5147
-28.0837
-27.6723
-27.3134
-27.0169
-26.7838
-26.6121
-26.4994
-26.4435
26.7348
-3.88705
-16.2089
-21.8221
-24.3527
-25.421
-25.8003
-25.8618
-25.7849
-25.6572
-25.5224
-25.4018
-25.3061
-25.2405
-25.2072
-1.26585
-4.9335
-12.5953
-17.8008
-20.8085
-22.4474
-23.3067
-23.7361
-23.9326
-24.0061
-24.0179
-24.0025
-23.9793
-23.9591
-23.9478
11.9552
-3.20673
-10.6874
-15.3058
-18.2147
-20.0151
-21.1117
-21.772
-22.1657
-22.3978
-22.5323
-22.6086
-22.6502
-22.6715
-22.6804
-2.96917
-6.81457
-10.7672
-13.9981
-16.3907
-18.0714
-19.2195
-19.993
-20.5111
-20.8571
-21.0872
-21.2386
-21.3353
-21.3926
-21.4191
-15.2231
-10.3483
-11.3482
-13.2724
-15.061