/*--------------------------------*- C++ -*----------------------------------*\
| =========                 |                                                 |
| \\      /  F ield         | OpenFOAM: The Open Source CFD Toolbox           |
|  \\    /   O peration     | Version:  5.x                                   |
|   \\  /    A nd           | Web:      www.OpenFOAM.org                      |
|    \\/     M anipulation  |                                                 |
\*---------------------------------------------------------------------------*/
FoamFile
{
    version     2.0;
    format      ascii;
    class       volScalarField;
    location    "1.2";
    object      gradTy;
}
// * * * * * * * * * * * * * * * * * * * * * * * * * * * * * * * * * * * * * //

dimensions      [0 -1 0 1 0 0 0];

internalField   nonuniform List<scalar> 
2048
(
-26.4743
-26.4472
-26.3938
-26.3157
-26.2149
-26.094
-25.9557
-25.8028
-25.6382
-25.4644
-25.2837
-25.0984
-24.9104
-24.7213
-24.5327
-24.3459
-24.1619
-23.9818
-23.8062
-23.6357
-23.4708
-23.3119
-23.1591
-23.0128
-22.8731
-22.7403
-22.6145
-22.4962
-22.3856
-22.2832
-22.1895
-22.1049
-22.0302
-21.966
-21.9133
-21.8729
-21.8458
-21.8331
-21.8358
-21.855
-21.8919
-21.9477
-22.0235
-22.1202
-22.2388
-22.3799
-22.5439
-22.7307
-22.9396
-23.1692
-23.4175
-23.6812
-23.9562
-24.2375
-24.5195
-24.7957
-25.0597
-25.3052
-25.5263
-25.718
-25.8761
-25.9973
-26.0794
-26.1208
-26.4962
-26.4685
-26.4139
-26.334
-26.2311
-26.108
-25.9674
-25.8123
-25.6456
-25.4698
-25.2874
-25.1006
-24.9112
-24.7209
-24.5312
-24.3435
-24.1588
-23.978
-23.8019
-23.6311
-23.4659
-23.3068
-23.1538
-23.0073
-22.8675
-22.7344
-22.6084
-22.4898
-22.3789
-22.2761
-22.1819
-22.0968
-22.0214
-21.9566
-21.9032
-21.862
-21.834
-21.8204
-21.8222
-21.8405
-21.8765
-21.9314
-22.0063
-22.1023
-22.2203
-22.3612
-22.5252
-22.7125
-22.9225
-23.154
-23.4048
-23.6718
-23.9508
-24.2369
-24.5239
-24.8053
-25.0744
-25.3247
-25.5499
-25.745
-25.9058
-26.0289
-26.1121
-26.1541
-26.5381
-26.5091
-26.4521
-26.3689
-26.262
-26.1345
-25.9895
-25.8302
-25.6594
-25.48
-25.2944
-25.1046
-24.9125
-24.72
-24.5283
-24.3388
-24.1527
-23.9708
-23.7938
-23.6223
-23.4566
-23.2971
-23.1438
-22.997
-22.8567
-22.7233
-22.5969
-22.4777
-22.3662
-22.2626
-22.1675
-22.0814
-22.0049
-21.9389
-21.884
-21.8413
-21.8117
-21.7964
-21.7964
-21.813
-21.8472
-21.9003
-21.9736
-22.0682
-22.1852
-22.3254
-22.4896
-22.6778
-22.8898
-23.1246
-23.3801
-23.6534
-23.9403
-24.2353
-24.5321
-24.8237
-25.1027
-25.362
-25.5951
-25.7967
-25.9624
-26.089
-26.1745
-26.2175
-26.5982
-26.5673
-26.5067
-26.4185
-26.3058
-26.172
-26.0206
-25.8551
-25.6787
-25.4941
-25.3038
-25.1099
-24.9142
-24.7184
-24.5239
-24.332
-24.1439
-23.9604
-23.7822
-23.6098
-23.4435
-23.2834
-23.1297
-22.9824
-22.8417
-22.7077
-22.5807
-22.4608
-22.3483
-22.2438
-22.1474
-22.0599
-21.9818
-21.9139
-21.8571
-21.8122
-21.7804
-21.7627
-21.7602
-21.7742
-21.8059
-21.8565
-21.9275
-22.02
-22.1353
-22.2746
-22.4386
-22.6279
-22.8426
-23.0819
-23.3441
-23.6264
-23.9243
-24.2324
-24.5435
-24.8498
-25.1432
-25.4156
-25.66
-25.8708
-26.0434
-26.1749
-26.2634
-26.3078
-26.6751
-26.6417
-26.5762
-26.4815
-26.3611
-26.2189
-26.0593
-25.8859
-25.7022
-25.5111
-25.315
-25.116
-24.9158
-24.716
-24.518
-24.3231
-24.1325
-23.9471
-23.7674
-23.5939
-23.4268
-23.2662
-23.112
-22.9642
-22.823
-22.6883
-22.5605
-22.4397
-22.3262
-22.2203
-22.1225
-22.0332
-21.9531
-21.8829
-21.8236
-21.776
-21.7413
-21.7205
-21.7149
-21.7257
-21.7541
-21.8016
-21.8695
-21.9592
-22.0723
-22.21
-22.3736
-22.564
-22.7817
-23.0264
-23.2969
-23.5904
-23.9026
-24.2274
-24.5572
-24.8828
-25.1949
-25.4844
-25.7433
-25.9655
-26.1466
-26.284
-26.376
-26.4222
-26.768
-26.7313
-26.6597
-26.5566
-26.4264
-26.274
-26.1041
-25.9212
-25.729
-25.5303
-25.3275
-25.1225
-24.9171
-24.7126
-24.5105
-24.3121
-24.1186
-23.9309
-23.7495
-23.5749
-23.4071
-23.2459
-23.0912
-22.943
-22.8011
-22.6658
-22.5371
-22.4152
-22.3005
-22.1932
-22.0936
-22.0023
-21.9198
-21.8469
-21.7846
-21.7338
-21.6957
-21.6713
-21.662
-21.6689
-21.6935
-21.7371
-21.8012
-21.8875
-21.9976
-22.1331
-22.2958
-22.4869
-22.7077
-22.9583
-23.2382
-23.545
-23.8743
-24.2198
-24.5725
-24.9221
-25.2573
-25.5676
-25.8439
-26.0797
-26.2706
-26.4144
-26.5103
-26.5582
-26.8762
-26.8354
-26.7562
-26.6427
-26.5006
-26.3358
-26.1539
-25.96
-25.7579
-25.5507
-25.3405
-25.129
-24.9177
-24.708
-24.5013
-24.2989
-24.1022
-23.912
-23.7289
-23.5531
-23.3846
-23.2229
-23.0679
-22.9192
-22.7767
-22.6406
-22.5109
-22.3879
-22.2719
-22.163
-22.0615
-21.9678
-21.8826
-21.8067
-21.741
-21.6866
-21.6446
-21.6162
-21.6026
-21.6052
-21.6253
-21.6643
-21.724
-21.8061
-21.9125
-22.0451
-22.2061
-22.3974
-22.6209
-22.8776
-23.1677
-23.4895
-23.8387
-24.2085
-24.5887
-24.967
-25.33
-25.665
-25.9615
-26.2124
-26.4138
-26.5643
-26.6639
-26.7134
-26.9993
-26.9535
-26.8649
-26.7389
-26.5825
-26.4031
-26.2074
-26.001
-25.7881
-25.5717
-25.3536
-25.1352
-24.9176
-24.7022
-24.4904
-24.2836
-24.0833
-23.8904
-23.7056
-23.5288
-23.3597
-23.1978
-23.0425
-22.8933
-22.7502
-22.6132
-22.4826
-22.3584
-22.241
-22.1304
-22.0268
-21.9307
-21.8426
-21.7632
-21.6938
-21.6353
-21.589
-21.5561
-21.5379
-21.5356
-21.5507
-21.5846
-21.6392
-21.7164
-21.8182
-21.9471
-22.1055
-22.2962
-22.5217
-22.7842
-23.0849
-23.423
-23.7947
-24.1925
-24.6049
-25.0172
-25.4129
-25.7765
-26.0959
-26.3632
-26.5753
-26.732
-26.8349
-26.8858
-27.1373
-27.0853
-26.9853
-26.8443
-26.6711
-26.4747
-26.2632
-26.043
-25.8186
-25.5925
-25.3662
-25.1406
-24.9165
-24.695
-24.4776
-24.2661
-24.0619
-23.8662
-23.6796
-23.502
-23.3327
-23.1707
-23.0153
-22.8659
-22.7221
-22.5843
-22.4525
-22.3271
-22.2083
-22.096
-21.9903
-21.8915
-21.8002
-21.7172
-21.6436
-21.5807
-21.5298
-21.492
-21.4688
-21.4613
-21.4709
-21.4992
-21.548
-21.6195
-21.716
-21.8401
-21.9949
-22.1838
-22.4103
-22.6779
-22.9891
-23.3445
-23.7409
-24.1706
-24.6205
-25.0725
-25.5063
-25.9027
-26.2471
-26.5317
-26.7541
-26.9162
-27.0214
-27.073
-27.2902
-27.2308
-27.1171
-26.9581
-26.7651
-26.5492
-26.3201
-26.085
-25.8483
-25.6124
-25.378
-25.1451
-24.9143
-24.6864
-24.4631
-24.2463
-24.0379
-23.8394
-23.6512
-23.473
-23.3038
-23.1422
-22.9869
-22.8372
-22.6929
-22.554
-22.4211
-22.2945
-22.1743
-22.0604
-21.9526
-21.851
-21.7563
-21.6692
-21.5912
-21.5236
-21.4677
-21.4248
-21.3962
-21.3831
-21.3868
-21.409
-21.4515
-21.5166
-21.6069
-21.7253
-21.8753
-22.061
-22.2871
-22.5585
-22.8796
-23.2527
-23.676
-24.1415
-24.6344
-25.1326
-25.6106
-26.0441
-26.4159
-26.7178
-26.9494
-27.1152
-27.2213
-27.2729
-27.4583
-27.3899
-27.2598
-27.0796
-26.8635
-26.6254
-26.3768
-26.1256
-25.8765
-25.631
-25.3886
-25.1488
-24.9111
-24.6766
-24.4468
-24.2242
-24.0114
-23.8099
-23.6203
-23.4419
-23.2733
-23.1125
-22.9577
-22.8078
-22.6628
-22.5228
-22.3887
-22.2609
-22.1394
-22.024
-21.9141
-21.8096
-21.7113
-21.62
-21.5372
-21.4645
-21.4034
-21.3552
-21.321
-21.3021
-21.2996
-21.3152
-21.3508
-21.4089
-21.4921
-21.6037
-21.7476
-21.9286
-22.1525
-22.4259
-22.7557
-23.1464
-23.5982
-24.1036
-24.6456
-25.1975
-25.7266
-26.202
-26.603
-26.9216
-27.1604
-27.3276
-27.4326
-27.483
-27.6421
-27.5629
-27.4132
-27.2078
-26.965
-26.7018
-26.4318
-26.1639
-25.9023
-25.6476
-25.398
-25.1514
-24.9071
-24.6655
-24.4287
-24.1999
-23.9822
-23.7776
-23.5868
-23.4089
-23.2416
-23.082
-22.928
-22.7781
-22.6322
-22.4909
-22.3555
-22.2265
-22.104
-21.9872
-21.8753
-21.768
-21.6658
-21.5699
-21.482
-21.404
-21.3375
-21.2838
-21.2439
-21.2189
-21.2099
-21.2185
-21.2468
-21.2972
-21.3726
-21.4764
-21.6129
-21.7873
-22.0069
-22.2801
-22.6165
-23.024
-23.5057
-24.055
-24.653
-25.2673
-25.8556
-26.3781
-26.8096
-27.1434
-27.3863
-27.5517
-27.6531
-27.7011
-27.8423
-27.7501
-27.577
-27.342
-27.0683
-26.777
-26.4839
-26.1985
-25.9248
-25.6619
-25.4059
-25.1533
-24.9023
-24.6533
-24.4089
-24.1731
-23.9501
-23.7425
-23.5509
-23.374
-23.2087
-23.0512
-22.8982
-22.7483
-22.6015
-22.4587
-22.3217
-22.1917
-22.0684
-21.9505
-21.8368
-21.7265
-21.6204
-21.5195
-21.4262
-21.3426
-21.2705
-21.2111
-21.1655
-21.1344
-21.1187
-21.12
-21.1404
-21.1826
-21.2495
-21.3446
-21.4722
-21.6383
-21.851
-22.1211
-22.4613
-22.8841
-23.3963
-23.9934
-24.6551
-25.3419
-25.9991
-26.5745
-27.0373
-27.3835
-27.6263
-27.7857
-27.8804
-27.9244
-28.0598
-27.952
-27.7511
-27.4814
-27.1721
-26.8495
-26.5315
-26.2283
-25.9434
-25.6736
-25.4126
-25.1546
-24.8971
-24.6405
-24.3875
-24.1439
-23.9152
-23.7044
-23.5124
-23.3374
-23.1751
-23.0203
-22.8689
-22.719
-22.571
-22.4262
-22.2873
-22.1564
-22.0327
-21.9143
-21.7989
-21.6857
-21.5753
-21.4692
-21.37
-21.2806
-21.2027
-21.1377
-21.0864
-21.0491
-21.0266
-21.0203
-21.0325
-21.066
-21.1238
-21.2093
-21.3267
-21.4825
-21.6857
-21.9491
-22.2897
-22.7251
-23.2677
-23.9164
-24.65
-25.4215
-26.1595
-26.7939
-27.288
-27.6422
-27.8793
-28.0277
-28.1123
-28.1504
-28.2955
-28.1691
-27.9353
-27.6249
-27.2749
-26.9177
-26.5732
-26.2521
-25.9572
-25.6826
-25.4182
-25.1558
-24.8919
-24.6272
-24.3647
-24.1121
-23.8771
-23.6632
-23.4711
-23.299
-23.141
-22.99
-22.8404
-22.6905
-22.5409
-22.3935
-22.2525
-22.1207
-21.9973
-21.8788
-21.762
-21.6459
-21.5311
-21.4192
-21.3138
-21.2182
-21.1346
-21.064
-21.007
-20.9637
-20.9344
-20.9203
-20.9238
-20.9481
-20.9964
-21.0716
-21.1777
-21.3213
-21.512
-21.7648
-22.101
-22.5455
-23.1175
-23.8208
-24.6354
-25.5063
-26.3394
-27.0398
-27.5637
-27.9199
-28.1441
-28.2757
-28.3461
-28.3764
-28.5508
-28.402
-28.1296
-27.7714
-27.3749
-26.98
-26.6076
-26.2687
-25.9657
-25.6887
-25.4231
-25.1571
-24.8872
-24.614
-24.3405
-24.0775
-23.8357
-23.6186
-23.427
-23.259
-23.1068
-22.9606
-22.8133
-22.6632
-22.5116
-22.3608
-22.2169
-22.0847
-21.9623
-21.8445
-21.7266
-21.6076
-21.4882
-21.37
-21.2576
-21.1558
-21.0664
-20.9903
-20.9279
-20.8788
-20.8426
-20.8204
-20.8149
-20.8298
-20.8683
-20.9326
-21.0262
-21.1559
-21.3313
-21.5687
-21.8951
-22.3436
-22.9429
-23.7033
-24.6082
-25.5964
-26.5427
-27.3166
-27.8669
-28.2166
-28.4193
-28.5273
-28.5793
-28.5998
-28.8269
-28.6515
-28.3339
-27.9199
-27.4702
-27.0347
-26.6332
-26.2769
-25.9683
-25.692
-25.4279
-25.1593
-24.8834
-24.6013
-24.3151
-24.0399
-23.7908
-23.5704
-23.3797
-23.2174
-23.0727
-22.9328
-22.7879
-22.6374
-22.4835
-22.3281
-22.1805
-22.0481
-21.9277
-21.8117
-21.693
-21.571
-21.4469
-21.3216
-21.2016
-21.0935
-20.9983
-20.9169
-20.8495
-20.7947
-20.7517
-20.7212
-20.7063
-20.7115
-20.7401
-20.7934
-20.8736
-20.9879
-21.1451
-21.362
-21.6719
-22.118
-22.7413
-23.5598
-24.5643
-25.6915
-26.7743
-27.6294
-28.2
-28.5322
-28.703
-28.78
-28.8092
-28.8179
-29.1257
-28.918
-28.5482
-28.069
-27.5587
-27.0803
-26.6489
-26.2754
-25.9643
-25.6928
-25.4334
-25.1628
-24.8809
-24.5901
-24.2887
-23.9987
-23.7422
-23.5185
-23.3289
-23.1741
-23.0391
-22.9071
-22.7647
-22.6135
-22.4568
-22.2953
-22.1426
-22.0108
-21.8939
-21.7808
-21.6615
-21.5365
-21.4076
-21.2743
-21.1458
-21.0313
-20.9305
-20.8439
-20.7719
-20.7121
-20.6624
-20.6233
-20.5986
-20.5937
-20.6127
-20.655
-20.721
-20.8187
-20.9553
-21.1459
-21.4316
-21.8673
-22.51
-23.3859
-24.4982
-25.7914
-27.0406
-27.9846
-28.5657
-28.8658
-28.9928
-29.0312
-29.0332
-29.0282
-29.4487
-29.2022
-28.773
-28.2172
-27.6376
-27.1155
-26.6535
-26.2627
-25.9534
-25.6914
-25.4407
-25.1682
-24.8802
-24.5812
-24.2614
-23.9534
-23.6899
-23.4627
-23.2741
-23.1291
-23.0065
-22.8845
-22.7441
-22.5915
-22.4322
-22.2623
-22.1027
-21.9724
-21.8608
-21.7525
-21.6325
-21.5042
-21.3708
-21.2282
-21.09
-20.9694
-20.8632
-20.7714
-20.6956
-20.6312
-20.5752
-20.5271
-20.492
-20.4769
-20.4867
-20.5184
-20.5693
-20.6499
-20.764
-20.9221
-21.1748
-21.5902
-22.2469
-23.1772
-24.4027
-25.8949
-27.3501
-28.3896
-28.9661
-29.2161
-29.2862
-29.278
-29.2488
-29.2284
-29.7984
-29.5042
-29.0088
-28.3629
-27.7036
-27.1392
-26.6462
-26.2372
-25.9352
-25.6882
-25.4512
-25.1759
-24.8813
-24.5761
-24.2333
-23.9027
-23.6339
-23.403
-23.2144
-23.0824
-22.9752
-22.8659
-22.7265
-22.5717
-22.4104
-22.229
-22.0597
-21.9327
-21.8287
-21.7273
-21.606
-21.4742
-21.3371
-21.1835
-21.0337
-20.9078
-20.7965
-20.6996
-20.6208
-20.5525
-20.4904
-20.433
-20.3868
-20.361
-20.3626
-20.3845
-20.4193
-20.4829
-20.5738
-20.6925
-20.9024
-21.2854
-21.9502
-22.9289
-24.2675
-26
-27.7144
-28.853
-29.4029
-29.5808
-29.5798
-29.5175
-29.4537
-29.4166
-30.177
-29.8233
-29.2569
-28.5043
-27.7526
-27.1512
-26.6265
-26.1966
-25.9094
-25.6836
-25.4669
-25.1861
-24.884
-24.5768
-24.2047
-23.845
-23.5745
-23.3395
-23.1489
-23.0341
-22.9456
-22.8527
-22.7119
-22.5538
-22.3926
-22.1954
-22.0123
-21.8912
-21.7975
-21.7063
-21.5823
-21.4463
-21.3074
-21.1401
-20.9763
-20.8467
-20.7305
-20.6281
-20.5477
-20.4762
-20.4087
-20.3413
-20.2832
-20.246
-20.2408
-20.2546
-20.2716
-20.319
-20.3876
-20.4591
-20.6157
-20.9515
-21.6191
-22.6373
-24.0792
-26.1034
-28.1493
-29.3849
-29.8768
-29.9567
-29.8699
-29.7467
-29.6456
-29.591
-30.5879
-30.1579
-29.5199
-28.6395
-27.7788
-27.1519
-26.5946
-26.1383
-25.8764
-25.678
-25.4908
-25.1989
-24.8873
-24.5864
-24.1756
-23.7775
-23.5129
-23.2727
-23.0758
-22.9842
-22.9179
-22.8465
-22.7004
-22.5371
-22.3804
-22.1614
-21.9585
-21.8477
-21.7674
-21.6906
-21.5614
-21.4201
-21.2829
-21.0982
-20.9167
-20.7864
-20.6654
-20.5567
-20.4766
-20.4028
-20.3305
-20.2524
-20.1813
-20.1317
-20.1217
-20.1299
-20.1261
-20.1594
-20.2091
-20.2241
-20.3168
-20.5864
-21.2541
-22.3
-23.8193
-26.1994
-28.6765
-29.996
-30.387
-30.3393
-30.1526
-29.963
-29.8228
-29.7502
-31.035
-30.5042
-29.8019
-28.7663
-27.7746
-27.1438
-26.5513
-26.058
-25.8368
-25.6711
-25.5267
-25.2137
-24.8892
-24.6093
-24.1462
-23.6962
-23.4508
-23.2033
-22.9927
-22.9333
-22.892
-22.8501
-22.6916
-22.5203
-22.3767
-22.1268
-21.8955
-21.8024
-21.7382
-21.6823
-21.5429
-21.3946
-21.2655
-21.0577
-20.8533
-20.7277
-20.6017
-20.4849
-20.4079
-20.3324
-20.2565
-20.1664
-20.0811
-20.0175
-20.0056
-20.0122
-19.9824
-20.0047
-20.0427
-19.9895
-20.0086
-20.1871
-20.8572
-21.9177
-23.4627
-26.2792
-29.3261
-30.6973
-30.9303
-30.7228
-30.4234
-30.1637
-29.9838
-29.8934
-31.5237
-30.8553
-30.1098
-28.8826
-27.7291
-27.1316
-26.4984
-25.95
-25.7924
-25.6622
-25.5804
-25.2291
-24.886
-24.6523
-24.1166
-23.5951
-23.3916
-23.1327
-22.896
-22.8826
-22.8673
-22.8669
-22.6847
-22.5011
-22.3852
-22.0916
-21.8194
-21.7557
-21.7094
-21.6839
-21.5262
-21.368
-21.2578
-21.0186
-20.7837
-20.6715
-20.5397
-20.4117
-20.342
-20.2651
-20.1874
-20.0837
-19.9828
-19.9023
-19.8924
-19.9037
-19.839
-19.8549
-19.894
-19.7568
-19.6954
-19.7487
-20.4325
-21.496
-22.9759
-26.3292
-30.1396
-31.499
-31.501
-31.1003
-30.6779
-30.3464
-30.1275
-30.02
-32.0614
-31.1996
-30.4549
-28.986
-27.6275
-27.1234
-26.4388
-25.8057
-25.747
-25.6487
-25.66
-25.2431
-24.8715
-24.7249
-24.0867
-23.465
-23.3408
-23.0627
-22.78
-22.8342
-22.8423
-22.902
-22.6782
-22.4758
-22.412
-22.0557
-21.7247
-21.7092
-21.6797
-21.6993
-21.5104
-21.3377
-21.264
-20.9808
-20.7044
-20.6198
-20.4801
-20.3357
-20.2797
-20.2009
-20.1241
-20.0043
-19.8866
-19.7848
-19.7821
-19.808
-19.6936
-19.7093
-19.7704
-19.5263
-19.3836
-19.2632
-19.9863
-21.0484
-22.3139
-26.3295
-31.1748
-32.4089
-32.0896
-31.4638
-30.9119
-30.5093
-30.2533
-30.1297
-32.6585
-31.518
-30.8542
-29.0744
-27.4483
-27.1326
-26.3768
-25.6126
-25.7072
-25.6253
-25.7771
-25.2522
-24.8363
-24.8415
-24.0566
-23.293
-23.3068
-22.9963
-22.6368
-22.7923
-22.8135
-22.9627
-22.6701
-22.4384
-22.4657
-22.0191
-21.604
-21.666
-21.6467
-21.734
-21.4939
-21.2993
-21.29
-20.9441
-20.6102
-20.5757
-20.4236
-20.2545
-20.2225
-20.1394
-20.0677
-19.9284
-19.7932
-19.663
-19.6739
-19.7299
-19.5421
-19.5659
-19.6813
-19.2963
-19.0832
-18.718
-19.5266
-20.6002
-21.4169
-26.2505
-32.5113
-33.4291
-32.6824
-31.8045
-31.1214
-30.651
-30.3608
-30.2227
-33.3298
-31.7813
-31.334
-29.1453
-27.1621
-27.1797
-26.3181
-25.3527
-25.6844
-25.5826
-25.9484
-25.2515
-24.7658
-25.0222
-24.026
-23.0604
-23.3025
-22.937
-22.4547
-22.7639
-22.7748
-23.0596
-22.6571
-22.3801
-22.5585
-21.9813
-21.4468
-21.6318
-21.6058
-21.796
-21.4742
-21.2464
-21.3445
-20.908
-20.4939
-20.5438
-20.3712
-20.165
-20.1723
-20.0797
-20.0198
-19.8555
-19.7035
-19.5343
-19.5665
-19.6767
-19.3788
-19.4209
-19.6402
-19.0614
-18.809
-18.0936
-19.0636
-20.1932
-20.2068
-26.0502
-34.2582
-34.5519
-33.2614
-32.1135
-31.3031
-30.7707
-30.4503
-30.2996
-34.0961
-31.9454
-31.9323
-29.1967
-26.7281
-27.2949
-26.2702
-25.0001
-25.6971
-25.5046
-26.1974
-25.2339
-24.639
-25.2954
-23.9943
-22.7412
-23.3471
-22.8896
-22.2172
-22.7606
-22.7161
-23.2074
-22.6348
-22.288
-22.7079
-21.9417
-21.2389
-21.616
-21.5497
-21.8964
-21.4479
-21.1699
-21.4396
-20.8718
-20.3457
-20.5312
-20.3238
-20.0624
-20.1323
-20.0201
-19.9826
-19.7849
-19.6193
-19.3952
-19.4578
-19.6587
-19.1956
-19.2682
-19.6649
-18.811
-18.5837
-17.3614
-18.6078
-19.8925
-18.5817
-25.6695
-36.5637
-35.7542
-33.8043
-32.382
-31.4546
-30.8682
-30.5223
-30.361
-34.987
-31.9462
-32.704
-29.2262
-26.0904
-27.5215
-26.2422
-24.5188
-25.7742
-25.3653
-26.5569
-25.1902
-24.4263
-25.7001
-23.9606
-22.2997
-23.4675
-22.8601
-21.9011
-22.8004
-22.6209
-23.4267
-22.5969
-22.1438
-22.9378
-21.8994
-20.9609
-21.6332
-21.4659
-22.0508
-21.4105
-21.0568
-21.5919
-20.8343
-20.1519
-20.548
-20.2826
-19.9401
-20.1076
-19.9579
-19.9589
-19.7153
-19.5431
-19.2413
-19.3439
-19.6902
-18.9813
-19.0986
-19.7804
-18.5259
-18.4409
-16.4803
-18.1691
-19.794
-16.4113
-25.0267
-39.6273
-36.9897
-34.2852
-32.6024
-31.5744
-30.9438
-30.5775
-30.4079
-36.0431
-31.693
-33.7258
-29.2313
-25.1743
-27.9195
-26.2452
-23.8587
-25.959
-25.1252
-27.0722
-25.108
-24.0864
-26.2892
-23.923
-21.6879
-23.7015
-22.8555
-21.4741
-22.9105
-22.4641
-23.7462
-22.5356
-21.9224
-23.2805
-21.8522
-20.5871
-21.7058
-21.3356
-22.2807
-21.3555
-20.8891
-21.8244
-20.7934
-19.8944
-20.6085
-20.2486
-19.7891
-20.1053
-19.8884
-19.9527
-19.644
-19.4789
-19.0671
-19.2188
-19.7911
-18.7211
-18.8989
-20.0207
-18.1753
-18.4298
-15.393
-17.7538
-20.0344
-13.5303
-24.011
-43.7136
-38.1779
-34.6768
-32.7693
-31.6622
-30.9983
-30.617
-30.4414
-37.32
-31.0602
-35.1031
-29.2094
-23.881
-28.5708
-26.2917
-22.9524
-26.3152
-24.7255
-27.8048
-24.9716
-23.5639
-27.1327
-23.8791
-20.8422
-24.1004
-22.8839
-20.8931
-23.131
-22.2084
-24.2045
-22.4403
-21.59
-23.7791
-21.7971
-20.0835
-21.8663
-21.1306
-22.6151
-21.2749
-20.6429
-22.1673
-20.7463
-19.5492
-20.7321
-20.2221
-19.5972
-20.1358
-19.8048
-19.9696
-19.5672
-19.4327
-18.8659
-19.0735
-19.9884
-18.3958
-18.6501
-20.4324
-17.7117
-18.6205
-14.022
-17.3618
-20.8016
-9.73212
-22.4744
-49.1699
-39.1921
-34.9535
-32.8795
-31.7188
-31.0331
-30.6421
-30.4625
-38.8925
-29.878
-36.9772
-29.1566
-22.0822
-29.5841
-26.3957
-21.7097
-26.9329
-24.082
-28.8369
-24.7613
-22.7852
-28.3221
-23.8249
-19.6804
-24.7327
-22.9546
-20.1003
-23.5187
-21.8006
-24.8536
-22.2979
-21.1017
-24.4899
-21.7294
-19.4056
-22.1606
-20.8103
-23.0933
-21.1581
-20.2866
-22.6603
-20.6887
-19.0855
-20.9451
-20.2032
-19.3483
-20.2135
-19.6971
-20.0176
-19.4787
-19.4126
-18.6299
-18.8948
-20.3175
-17.9809
-18.3266
-21.0786
-17.0654
-19.1109
-12.2656
-16.9815
-22.3475
-4.76246
-20.2225
-56.446
-39.843
-35.0963
-32.9333
-31.746
-31.0497
-30.6541
-30.4724
)
;

boundaryField
{
    left
    {
        type            calculated;
        value           nonuniform List<scalar> 
32
(
-26.4743
-26.4962
-26.5381
-26.5982
-26.6751
-26.768
-26.8762
-26.9993
-27.1373
-27.2902
-27.4583
-27.6421
-27.8423
-28.0598
-28.2955
-28.5508
-28.8269
-29.1257
-29.4487
-29.7984
-30.177
-30.5879
-31.035
-31.5237
-32.0614
-32.6585
-33.3298
-34.0961
-34.987
-36.0431
-37.32
-38.8925
)
;
    }
    right
    {
        type            calculated;
        value           nonuniform List<scalar> 
32
(
-26.1208
-26.1541
-26.2175
-26.3078
-26.4222
-26.5582
-26.7134
-26.8858
-27.073
-27.2729
-27.483
-27.7011
-27.9244
-28.1504
-28.3764
-28.5998
-28.8179
-29.0282
-29.2284
-29.4166
-29.591
-29.7502
-29.8934
-30.02
-30.1297
-30.2227
-30.2996
-30.361
-30.4079
-30.4414
-30.4625
-30.4724
)
;
    }
    interface
    {
        type            calculated;
        value           nonuniform List<scalar> 
64
(
-39.7632
-29.1253
-38.0588
-29.1219
-21.0383
-30.1968
-26.4639
-20.9915
-27.3204
-23.687
-29.4396
-24.6349
-22.3213
-29.0161
-23.7947
-19.0088
-25.1169
-23.0016
-19.6428
-23.7627
-21.5508
-25.2333
-22.2131
-20.8122
-24.9062
-21.6917
-19.0168
-22.3479
-20.6154
-23.374
-21.0891
-20.0764
-22.9501
-20.6567
-18.8197
-21.0778
-20.1956
-19.2074
-20.2663
-19.6358
-20.0505
-19.4307
-19.4103
-18.5022
-18.7953
-20.5201
-17.7478
-18.1424
-21.4693
-16.6862
-19.4454
-11.2766
-16.7921
-23.3511
-1.94975
-18.8902
-60.6022
-40.0496
-35.1324
-32.9464
-31.7525
-31.0537
-30.6569
-30.4748
)
;
    }
    bottom
    {
        type            calculated;
        value           nonuniform List<scalar> 
64
(
-26.4686
-26.4417
-26.3886
-26.3109
-26.2107
-26.0903
-25.9526
-25.8003
-25.6362
-25.4629
-25.2827
-25.0979
-24.9102
-24.7214
-24.5331
-24.3465
-24.1627
-23.9827
-23.8073
-23.6369
-23.4721
-23.3132
-23.1605
-23.0142
-22.8746
-22.7418
-22.6161
-22.4979
-22.3874
-22.2851
-22.1914
-22.107
-22.0325
-21.9685
-21.916
-21.8758
-21.8489
-21.8364
-21.8393
-21.8588
-21.896
-21.952
-22.028
-22.1249
-22.2436
-22.3848
-22.5487
-22.7354
-22.944
-23.1732
-23.4208
-23.6836
-23.9575
-24.2377
-24.5183
-24.7931
-25.0558
-25.3001
-25.5202
-25.711
-25.8684
-25.9891
-26.0709
-26.1121
)
;
    }
    defaultFaces
    {
        type            empty;
    }
}


// ************************************************************************* //
