/*--------------------------------*- C++ -*----------------------------------*\
| =========                 |                                                 |
| \\      /  F ield         | OpenFOAM: The Open Source CFD Toolbox           |
|  \\    /   O peration     | Version:  5.x                                   |
|   \\  /    A nd           | Web:      www.OpenFOAM.org                      |
|    \\/     M anipulation  |                                                 |
\*---------------------------------------------------------------------------*/
FoamFile
{
    version     2.0;
    format      ascii;
    class       volScalarField;
    location    "8.0001";
    object      gradTy;
}
// * * * * * * * * * * * * * * * * * * * * * * * * * * * * * * * * * * * * * //

dimensions      [0 -1 0 1 0 0 0];

internalField   nonuniform List<scalar> 
6300
(
32284.1
32252.3
32220.4
32188.3
32156
32123.4
32090.4
32056.9
32023
31988.6
31953.6
31918
31881.8
31845
31807.6
0.053489
0.159966
0.264908
0.367179
0.465484
0.558327
0.643993
0.720565
0.785989
0.838199
0.875306
0.895845
0.899065
0.885202
0.855676
0.0897031
0.268314
0.444478
0.616366
0.781867
0.938507
1.08341
1.2133
1.32462
1.41373
1.47718
1.51224
1.51733
1.49264
1.44053
0.126713
0.379109
0.628324
0.87194
1.10711
1.33043
1.53783
1.7246
1.88548
2.0149
2.10746
2.15859
2.16536
2.12751
2.04818
0.164753
0.493083
0.817766
1.13596
1.44421
1.73825
2.01287
2.26179
2.47777
2.65291
2.77916
2.84926
2.85802
2.80382
2.69024
0.203966
0.610704
1.0137
1.40991
1.7955
2.16551
2.5136
2.8319
3.11091
3.3398
3.50698
3.60127
3.61361
3.53949
3.38178
0.244373
0.732068
1.21641
1.69448
2.16236
2.61466
3.04413
3.44128
3.79414
4.08836
4.30768
4.4352
4.45563
4.35873
4.14402
0.285832
0.856786
1.42538
1.98924
2.54479
3.08663
3.60696
4.09492
4.53601
4.91181
5.20015
5.3762
5.41497
5.29573
5.00912
0.328
0.983864
1.63907
2.29231
2.94091
3.5801
4.20216
4.7954
5.34315
5.8227
6.20488
6.45445
6.5323
6.40009
6.02894
0.370303
1.1116
1.85472
2.60002
3.34645
4.0907
4.82614
5.54137
6.21845
6.83095
7.3422
7.70442
7.85973
7.74343
7.29028
0.411914
1.23751
2.06818
2.90659
3.75414
4.61009
5.47033
6.32548
7.15832
7.94045
8.62855
9.16137
9.45893
9.42397
8.93835
0.451762
1.35833
2.2739
3.20403
4.15342
5.1252
6.11959
7.13187
8.14888
9.14397
10.0703
10.8538
11.3912
11.5564
11.1973
0.488569
1.47015
2.46505
3.48219
4.53032
5.61767
6.75097
7.93352
9.16135
10.4163
11.6549
12.7929
13.6974
14.2173
14.2999
0.520935
1.56863
2.63398
3.72936
4.86799
6.06417
7.33309
8.68988
10.1467
11.7052
13.3402
14.9667
16.3919
17.327
17.9049
0.547476
1.64945
2.77287
3.93326
5.14812
6.43793
7.82732
9.34623
11.0303
12.9176
15.0344
17.3433
19.5838
20.8199
18.4739
31772.8
31740.8
31708.4
31675.7
31642.7
31609.4
31575.8
31542
31507.9
31473.7
31439.2
31404.6
31369.9
31335.1
31300.1
31265.1
31230.1
31195
31160
31124.9
31089.9
31055
31020
30985.1
30950.3
30915.5
30880.7
30846
30811.3
30776.7
30742.2
30707.8
30673.4
30639.2
30605
30571
30537
30503.2
30469.5
30435.8
30402.2
30368.7
30335.4
30302
30268.8
30235.7
30202.7
30169.8
30137
30104.3
30071.7
30039.3
30006.9
29974.7
29942.5
29910.4
29878.5
29846.6
29814.8
29783
29751.4
29719.9
29688.4
29657.1
29625.9
29594.8
29563.8
29532.8
29502
29471.2
29440.5
29409.9
29379.3
29348.8
29318.4
29288
29257.7
29227.5
29197.3
29167.2
29137.1
29107
29077
29046.9
29016.8
28986.7
28956.4
28926.1
28895.8
28865.3
0.816646
0.774365
0.727565
0.678465
0.628919
0.58017
0.53272
0.486347
0.440284
0.393508
0.345082
0.294486
0.241848
0.188044
0.134638
0.0836553
0.0372564
-0.00264451
-0.0347265
-0.0585088
-0.0744536
-0.0839083
-0.0889017
-0.0918293
-0.0950809
-0.10067
-0.109925
-0.123289
-0.14027
-0.159552
-0.179242
-0.197231
-0.211577
-0.220865
-0.224457
-0.222599
-0.216378
-0.207534
-0.198162
-0.190365
-0.185899
-0.185884
-0.190615
-0.199512
-0.211226
-0.223876
-0.235385
-0.243851
-0.247878
-0.246818
-0.240869
-0.231032
-0.218932
-0.206533
-0.195808
-0.188407
-0.18537
-0.186959
-0.192605
-0.201008
-0.210363
-0.21868
-0.22413
-0.225368
-0.221752
-0.213442
-0.201354
-0.186983
-0.172135
-0.158601
-0.147832
-0.140672
-0.13717
-0.136541
-0.137246
-0.137218
-0.134172
-0.125965
-0.110938
-0.0881922
-0.0577606
-0.020662
0.021158
0.0649898
0.107609
0.14559
0.175667
0.1951
0.202011
0.195634
1.37186
1.29776
1.21623
1.13144
1.04688
0.964825
0.886078
0.809993
0.734831
0.65834
0.578445
0.493901
0.404767
0.312606
0.22037
0.131965
0.0515904
-0.0170123
-0.0712488
-0.110155
-0.134593
-0.147131
-0.151651
-0.152737
-0.15496
-0.162169
-0.17689
-0.199943
-0.230338
-0.265478
-0.301648
-0.334709
-0.360868
-0.377365
-0.382959
-0.378137
-0.365008
-0.346939
-0.327982
-0.312196
-0.302975
-0.302483
-0.311286
-0.328256
-0.350764
-0.375142
-0.397343
-0.413666
-0.421408
-0.419325
-0.407819
-0.388844
-0.365552
-0.341751
-0.321258
-0.307263
-0.301786
-0.305334
-0.316805
-0.333672
-0.352421
-0.369179
-0.380398
-0.383476
-0.377193
-0.361888
-0.339363
-0.312542
-0.284949
-0.260083
-0.2408
-0.228781
-0.224194
-0.225585
-0.230044
-0.233624
-0.231947
-0.220898
-0.197275
-0.159306
-0.106956
-0.0420206
0.0319996
0.110193
0.186682
0.255188
0.309679
0.345056
0.357797
0.346452
1.9439
1.83185
1.70958
1.58409
1.46123
1.34472
1.23561
1.13232
1.03131
0.928091
0.818524
0.69995
0.572068
0.437303
0.300616
0.168741
0.0490053
-0.0520338
-0.129812
-0.1826
-0.211829
-0.221864
-0.219308
-0.211967
-0.20762
-0.212809
-0.231814
-0.265984
-0.313532
-0.369879
-0.428486
-0.482084
-0.52403
-0.549519
-0.556418
-0.545592
-0.520708
-0.487581
-0.453191
-0.424528
-0.407438
-0.405652
-0.420153
-0.448983
-0.487565
-0.529499
-0.567722
-0.595795
-0.609045
-0.605358
-0.585481
-0.552829
-0.512865
-0.472164
-0.437312
-0.413813
-0.405167
-0.412261
-0.433197
-0.463586
-0.49731
-0.527619
-0.548352
-0.555029
-0.545593
-0.520698
-0.483525
-0.439181
-0.393804
-0.353497
-0.323275
-0.306159
-0.302582
-0.310184
-0.324081
-0.337573
-0.343193
-0.333913
-0.304247
-0.251104
-0.174255
-0.0764396
0.036853
0.157868
0.277268
0.384985
0.471233
0.527623
0.548282
0.530745
2.54074
2.38064
2.20755
2.03294
1.86643
1.71396
1.57674
1.45137
1.33095
1.20698
1.07156
0.919399
0.749277
0.564767
0.37393
0.188038
0.0194968
-0.120551
-0.224358
-0.288971
-0.316706
-0.314724
-0.293856
-0.266884
-0.246547
-0.243554
-0.264904
-0.312758
-0.384059
-0.471025
-0.562538
-0.64624
-0.710892
-0.748445
-0.755402
-0.733294
-0.68828
-0.630042
-0.570155
-0.520198
-0.489865
-0.485372
-0.508387
-0.555669
-0.61954
-0.689202
-0.752722
-0.799269
-0.821071
-0.814708
-0.781542
-0.727346
-0.661241
-0.594155
-0.537019
-0.498978
-0.485881
-0.499257
-0.535977
-0.588699
-0.647117
-0.699846
-0.736547
-0.749784
-0.736251
-0.697188
-0.638011
-0.567308
-0.495355
-0.432388
-0.386874
-0.364041
-0.364869
-0.385717
-0.418701
-0.452853
-0.475895
-0.476279
-0.445026
-0.377036
-0.271741
-0.133144
0.0305877
0.207873
0.384679
0.5457
0.675782
0.761647
0.793769
0.768031
3.17239
2.9481
2.70768
2.47008
2.25138
2.0612
1.9008
1.76327
1.63567
1.50234
1.34871
1.1647
0.9472
0.701336
0.44012
0.182346
-0.0510439
-0.241258
-0.375346
-0.448448
-0.464376
-0.434785
-0.377196
-0.312251
-0.260503
-0.239248
-0.259829
-0.325774
-0.432034
-0.565626
-0.707842
-0.837835
-0.936783
-0.991432
-0.996248
-0.953986
-0.874902
-0.774882
-0.672827
-0.587617
-0.535088
-0.525485
-0.561682
-0.638475
-0.743182
-0.857754
-0.962169
-1.03838
-1.07366
-1.06266
-1.00789
-0.919015
-0.811034
-0.701823
-0.609232
-0.548229
-0.528476
-0.55264
-0.61572
-0.705612
-0.805118
-0.895158
-0.95853
-0.983088
-0.963677
-0.902641
-0.809094
-0.697235
-0.583969
-0.486147
-0.417812
-0.387851
-0.398328
-0.443772
-0.511636
-0.58413
-0.641225
-0.664201
-0.638702
-0.556689
-0.417179
-0.226043
0.00480796
0.258567
0.514821
0.750968
0.944006
1.07306
1.12258
1.08548
3.85288
3.53875
3.20372
2.87999
2.59523
2.36554
2.19189
2.06087
1.94862
1.82691
1.66961
1.45821
1.18596
0.860004
0.501351
0.141535
-0.183761
-0.442788
-0.614159
-0.690255
-0.677599
-0.595163
-0.471133
-0.338616
-0.230555
-0.1747
-0.189437
-0.280739
-0.440658
-0.647813
-0.870753
-1.07414
-1.22647
-1.30619
-1.30489
-1.22771
-1.09168
-0.922658
-0.751251
-0.607982
-0.518507
-0.499654
-0.556528
-0.681091
-0.852625
-1.04094
-1.21224
-1.33643
-1.39292
-1.37363
-1.28337
-1.1382
-0.962607
-0.785563
-0.635963
-0.538086
-0.507836
-0.549991
-0.656854
-0.808687
-0.976752
-1.12888
-1.23641
-1.27971
-1.25105
-1.15491
-1.00655
-0.829189
-0.650343
-0.497444
-0.393492
-0.353428
-0.381435
-0.46954
-0.597905
-0.73758
-0.855684
-0.921926
-0.913758
-0.819135
-0.636954
-0.376132
-0.0539579
0.305672
0.673917
1.01831
1.30437
1.49901
1.57611
1.52285
4.60453
4.15945
3.68347
3.23375
2.85976
2.58913
2.42158
2.33142
2.27518
2.20271
2.06838
1.83936
1.50204
1.06575
0.564252
0.0510089
-0.411907
-0.770548
-0.990172
-1.05987
-0.991309
-0.815439
-0.577297
-0.329768
-0.125436
-0.00850492
-0.00879752
-0.136901
-0.38127
-0.707277
-1.06183
-1.38397
-1.62074
-1.7376
-1.72281
-1.58619
-1.35597
-1.07388
-0.789165
-0.550894
-0.400239
-0.364783
-0.453912
-0.656076
-0.937912
-1.24864
-1.53015
-1.73199
-1.82129
-1.78684
-1.6379
-1.40121
-1.11628
-0.82979
-0.588221
-0.430567
-0.382936
-0.45417
-0.633237
-0.888393
-1.17134
-1.42681
-1.60679
-1.67995
-1.63558
-1.48239
-1.24577
-0.963282
-0.679354
-0.438257
-0.277174
-0.220984
-0.278
-0.437334
-0.667886
-0.922091
-1.14482
-1.2868
-1.3133
-1.20766
-0.969972
-0.614563
-0.166659
0.340374
0.867359
1.36966
1.79638
2.0942
2.21735
2.14087
5.4674
4.82459
4.12534
3.47845
2.97544
2.66428
2.53977
2.55312
2.62509
2.66756
2.60348
2.37647
1.9606
1.3654
0.644056
-0.111993
-0.790215
-1.2985
-1.58208
-1.62859
-1.45955
-1.12539
-0.696983
-0.258723
0.105535
0.326487
0.355884
0.17435
-0.204328
-0.725646
-1.29957
-1.81675
-2.18768
-2.3586
-2.31619
-2.07946
-1.69499
-1.22888
-0.760214
-0.36765
-0.116096
-0.0505213
-0.188537
-0.516344
-0.981603
-1.49843
-1.96279
-2.28961
-2.42787
-2.36492
-2.1188
-1.73368
-1.2722
-0.809344
-0.419646
-0.164623
-0.0868802
-0.203074
-0.500056
-0.92808
-1.40552
-1.83345
-2.13097
-2.24947
-2.1768
-1.93001
-1.55103
-1.09946
-0.646687
-0.263852
-0.00981063
0.0744786
-0.0272278
-0.302571
-0.703807
-1.15192
-1.55025
-1.81794
-1.90314
-1.78634
-1.4725
-0.986183
-0.364506
0.346348
1.09634
1.82985
2.47402
2.94093
3.14605
3.03682
6.52079
5.57083
4.49163
3.51593
2.81493
2.47064
2.45942
2.69039
3.01743
3.28586
3.37316
3.18553
2.67741
1.84668
0.773827
-0.387073
-1.41324
-2.15001
-2.5154
-2.50769
-2.16555
-1.57109
-0.830859
-0.0811223
0.54286
0.93731
1.0243
0.769484
0.178004
-0.668265
-1.61904
-2.46016
-3.04263
-3.28683
-3.18939
-2.78548
-2.15157
-1.38756
-0.62169
0.0186341
0.435847
0.556898
0.350126
-0.178694
-0.951047
-1.8238
-2.59349
-3.11876
-3.32421
-3.20677
-2.79989
-2.17611
-1.43014
-0.683553
-0.0571502
0.356598
0.488436
0.308349
-0.178182
-0.896617
-1.71098
-2.4279
-2.91295
-3.09427
-2.96874
-2.56798
-1.96083
-1.23735
-0.513315
0.0960146
0.501996
0.637775
0.473583
0.0134773
-0.672222
-1.45343
-2.1438
-2.61186
-2.78387
-2.64874
-2.22339
-1.55272
-0.690766
0.295962
1.34907
2.41869
3.40692
4.16463
4.52739
4.37561
7.93527
6.50299
4.70816
3.15725
2.14096
1.79758
2.03032
2.68928
3.49416
4.16494
4.53876
4.45606
3.85877
2.67662
1.03038
-0.856171
-2.45303
-3.53629
-3.98602
-3.86835
-3.23494
-2.22668
-0.978434
0.277557
1.31071
1.99087
2.18491
1.8494
0.927224
-0.4604
-2.09643
-3.47603
-4.38469
-4.70703
-4.50392
-3.82271
-2.79552
-1.54895
-0.302389
0.726184
1.41425
1.63637
1.35253
0.509629
-0.77593
-2.29758
-3.57617
-4.40846
-4.68551
-4.46543
-3.79332
-2.7945
-1.58896
-0.384714
0.611559
1.28376
1.51291
1.26104
0.477624
-0.727028
-2.15675
-3.35627
-4.13229
-4.38093
-4.15704
-3.50314
-2.53815
-1.37605
-0.214766
0.748702
1.40289
1.63303
1.40051
0.654382
-0.503098
-1.88575
-3.05747
-3.83209
-4.10686
-3.92907
-3.32755
-2.39468
-1.1967
0.149987
1.57803
3.12473
4.67176
5.95706
6.64969
6.45922
10.1026
7.95901
4.572
2.02545
0.497428
0.295248
0.987707
2.47814
4.16399
5.47164
6.36173
6.46758
5.88231
4.17482
1.63297
-1.74243
-4.23242
-5.83487
-6.2737
-5.97169
-4.8441
-3.22787
-1.13717
0.957121
2.58684
3.74443
4.10806
3.77413
2.34667
0.105162
-2.9431
-5.17006
-6.57107
-6.88389
-6.50692
-5.35817
-3.75541
-1.71034
0.330801
1.92405
3.0636
3.4444
3.15995
1.83537
-0.260859
-3.12138
-5.20155
-6.49772
-6.7627
-6.37503
-5.25722
-3.71059
-1.74593
0.213595
1.74692
2.84888
3.23006
2.97916
1.74
-0.233351
-2.934
-4.8945
-6.11107
-6.34802
-5.96456
-4.88629
-3.39929
-1.51358
0.368638
1.84674
2.91443
3.2945
3.06703
1.88764
-0.00971748
-2.62182
-4.54297
-5.77209
-6.08151
-5.81956
-4.90885
-3.61839
-1.91677
-0.113135
1.63612
3.83031
6.31348
8.60293
10.0436
9.90417
13.941
11.2248
3.23294
-0.582686
-3.06071
-2.4968
-1.20431
1.98555
5.37841
7.37963
9.314
9.47433
9.52183
6.87451
3.43587
-3.90369
-7.28987
-9.80907
-9.6282
-9.2639
-7.15691
-4.91233
-1.30108
2.30566
4.54284
6.64129
7.03569
7.27351
4.93836
1.83244
-4.97246
-8.05348
-10.3245
-10.0541
-9.62131
-7.54742
-5.35224
-1.86607
1.60893
3.77521
5.80555
6.21039
6.46513
4.27227
1.35477
-5.06889
-7.9559
-10.0719
-9.77974
-9.33603
-7.33861
-5.22868
-1.8955
1.42561
3.50344
5.45193
5.85739
6.12034
4.05958
1.30763
-4.77706
-7.50398
-9.50049
-9.20852
-8.77259
-6.858
-4.8346
-1.64606
1.53396
3.53579
5.41613
5.83085
6.1043
4.15476
1.51291
-4.35287
-7.02498
-9.03643
-8.87895
-8.64425
-7.03699
-5.43417
-2.78375
-0.297944
1.05351
4.11977
8.23414
12.471
15.7131
16.1821
21.2915
22.2046
-4.01388
-5.09909
-11.0005
-6.33881
-6.1288
1.20054
8.59673
9.3839
14.8209
12.6435
17.0419
10.7137
10.8561
-11.7578
-11.5958
-17.6714
-13.2469
-15.0656
-9.66784
-8.56482
-1.45849
5.62634
6.69859
11.992
10.1888
14.478
8.63994
8.88622
-12.3642
-12.1034
-17.7375
-13.458
-15.099
-9.91135
-8.80811
-2.00574
4.77161
5.82212
10.8882
9.19251
13.2948
7.75264
8.01925
-12.1092
-11.8205
-17.1138
-13.015
-14.5344
-9.58203
-8.50827
-2.02768
4.42792
5.44619
10.2769
8.68993
12.6077
7.37447
7.64773
-11.4553
-11.1653
-16.1853
-12.2763
-13.7099
-8.9864
-7.94771
-1.76625
4.39586
5.39975
10.0283
8.57062
12.3427
7.41881
7.67798
-10.6828
-10.4583
-15.424
-11.7876
-13.4454
-9.15873
-8.75848
-3.41366
1.15072
-1.99844
2.89997
9.97844
17.7715
25.3757
29.6291
31.9155
72.2685
-47.4398
-2.66797
-34.1466
-3.76918
-21.3048
0.319451
21.3322
4.69263
31.2924
6.34391
40.0083
5.23553
51.0454
-52.4092
-6.91929
-40.6536
-7.87515
-31.2588
-5.99419
-20.8619
-1.58472
17.6053
2.7761
27.5621
4.56891
36.266
3.5803
46.8955
-50.7318
-7.66427
-39.4261
-8.33605
-30.4095
-6.39355
-20.4705
-2.10911
16.1812
2.08691
25.708
3.8258
34.0129
2.86859
44.0529
-48.5498
-7.64689
-37.6802
-8.15976
-29.0519
-6.24002
-19.5735
-2.12363
15.2602
1.89927
24.3436
3.59593
32.2725
2.7603
41.8899
-46.0593
-7.17993
-35.7276
-7.65071
-27.5131
-5.80854
-18.4662
-1.85843
14.6858
2.04432
23.405
3.77964
31.1034
3.21941
40.6559
-43.7753
-6.4177
-34.1986
-7.07229
-26.8066
-5.68388
-19.2029
-2.91962
13.707
-16.6388
-1.45903
10.6939
23.3438
39.8637
66.4449
28831.6
28794.8
28757.9
28721
28684
28647
28610.1
28573.3
28536.5
28499.9
28463.4
28427
28390.6
28354.3
28318.1
0.174504
0.13554
0.0853769
0.0297775
-0.0253952
-0.0749761
-0.115011
-0.142962
-0.157674
-0.159174
-0.148416
-0.127015
-0.0970219
-0.0607552
-0.0206776
0.308412
0.238267
0.148295
0.0491465
-0.048525
-0.135542
-0.205082
-0.252957
-0.277451
-0.278898
-0.259178
-0.221232
-0.168671
-0.10549
-0.0358802
0.470976
0.360835
0.220399
0.0670482
-0.0823
-0.213578
-0.316812
-0.386327
-0.420268
-0.419785
-0.388163
-0.330061
-0.250938
-0.156652
-0.0532332
0.678481
0.513697
0.30542
0.0809487
-0.134143
-0.319658
-0.462258
-0.555268
-0.597508
-0.59181
-0.543625
-0.459912
-0.348367
-0.216947
-0.073634
0.95308
0.710054
0.406634
0.0854716
-0.215563
-0.468649
-0.657294
-0.774979
-0.822685
-0.806322
-0.734614
-0.617595
-0.465671
-0.289133
-0.09799
1.32626
0.966807
0.525593
0.0698677
-0.34493
-0.682082
-0.923286
-1.06467
-1.11193
-1.07618
-0.970912
-0.810182
-0.607589
-0.375923
-0.127183
1.84445
1.30532
0.659065
0.0133377
-0.551942
-0.991459
-1.2891
-1.44847
-1.48419
-1.41554
-1.26268
-1.04463
-0.778577
-0.479786
-0.162002
2.5784
1.75095
0.792013
-0.123638
-0.884714
-1.44271
-1.79317
-1.95594
-1.96081
-1.83911
-1.61962
-1.32709
-0.982302
-0.60264
-0.203041
3.63969
2.32807
0.881678
-0.415189
-1.42056
-2.10149
-2.48494
-2.6213
-2.564
-2.36048
-2.04958
-1.66182
-1.2209
-0.745431
-0.250561
5.20978
3.03998
0.821816
-0.998231
-2.28084
-3.05776
-3.4238
-3.48031
-3.31339
-2.98924
-2.55641
-2.04969
-1.49404
-0.907624
-0.304332
7.58665
3.80024
0.363843
-2.11871
-3.64682
-4.4249
-4.67217
-4.56276
-4.22
-3.72669
-3.1371
-2.48651
-1.79794
-1.08669
-0.363477
11.2217
4.21048
-1.04797
-4.19361
-5.76282
-6.32284
-6.2772
-5.87857
-5.27716
-4.56041
-3.77879
-2.96131
-2.1245
-1.27774
-0.426356
16.4567
2.86793
-4.5726
-7.84494
-8.88801
-8.82642
-8.23522
-7.39715
-6.44965
-5.45899
-4.45635
-3.45542
-2.46101
-1.4734
-0.490567
20.9106
-4.62289
-12.2654
-13.7255
-13.1179
-11.8596
-10.4401
-9.02515
-7.6653
-6.36954
-5.1322
-3.94302
-2.79073
-1.66428
-0.553078
0.565941
1.70565
2.86936
4.07479
5.34254
6.69784
8.17311
9.81174
11.6737
13.8433
16.4365
19.5899
23.334
26.8396
24.2237
0.576761
1.73847
2.92532
4.15604
5.45271
6.84299
8.36357
10.066
12.0268
14.368
17.2986
21.2186
27.016
37.1109
59.8615
0.581895
1.75384
2.95081
4.19148
5.49787
6.89765
8.42778
10.1407
12.116
14.4831
17.4726
21.5394
27.7043
38.6189
62.3541
0.581365
1.75183
2.94597
4.18129
5.47818
6.86181
8.36505
10.0333
11.933
14.1662
16.8981
20.3991
25.0699
31.1368
35.9489
0.575467
1.73337
2.91253
4.12835
5.39826
6.7429
8.18771
9.76527
11.5183
13.5033
15.7905
18.4473
21.4563
24.4375
26.107
0.564732
1.70015
2.85363
4.03785
5.26646
6.55443
7.9182
9.37532
10.9427
12.6306
14.4267
16.254
17.8695
18.6368
16.9912
0.549861
1.65439
2.77338
3.91652
5.09345
6.31334
7.58386
8.90884
10.2833
11.6827
13.0411
14.2083
14.8758
14.5131
12.7029
0.531651
1.5986
2.67636
3.77173
4.89061
6.0371
7.21171
8.40803
9.60654
10.7631
11.7883
12.5093
12.5984
11.3949
7.17143
0.510912
1.53529
2.56712
3.61062
4.66861
5.74134
6.82448
7.90571
8.95894
9.93491
10.7466
11.249
11.219
10.3738
8.66733
0.488402
1.46681
2.44977
3.43944
4.43637
5.43835
6.4386
7.42285
8.365
9.22077
9.91972
10.3584
10.4056
9.95102
9.06323
0.464777
1.39516
2.32778
3.26323
4.20062
5.13657
6.06382
6.96923
7.83106
8.61555
9.27358
9.73975
9.94071
9.82904
9.47754
0.440578
1.32196
2.20381
3.08568
3.96588
4.84084
5.70422
6.54588
7.35083
8.09816
8.76067
9.30522
9.69293
9.87362
9.75476
0.416221
1.24844
2.07983
2.90927
3.73478
4.55316
5.35969
6.14804
6.9106
7.63967
8.32969
8.97962
9.58891
10.1262
10.4415
0.392016
1.1755
1.9572
2.7356
3.50863
4.2737
5.02778
5.7681
6.49364
7.20829
7.92655
8.68224
9.53487
10.533
11.3895
0.368195
1.10378
1.83688
2.56564
3.28801
4.00186
4.70543
5.39842
6.08424
6.7744
7.49741
8.31753
9.37979
11.0381
14.291
0.344933
1.03378
1.71956
2.40013
3.07332
3.73715
4.39041
5.03373
5.67183
6.3177
7.00082
7.78466
8.81081
10.4357
13.7563
0.322374
0.965924
1.60586
2.23973
2.8651
3.47979
4.08229
4.67264
5.254
5.83513
6.43427
7.0835
7.82602
8.6558
9.08981
0.300648
0.900573
1.49637
2.08522
2.66431
3.23089
3.78259
4.31779
4.83631
5.34005
5.83293
6.31753
6.7806
7.15071
7.2444
0.279873
0.838089
1.39169
1.93749
2.47219
2.99233
3.49434
3.97452
4.42889
4.85249
5.23732
5.5665
5.79973
5.83755
5.42067
0.260158
0.77881
1.29242
1.79747
2.29016
2.76634
3.22124
3.64917
4.04281
4.39185
4.68034
4.88209
4.95455
4.84014
4.5314
0.241598
0.723029
1.1991
1.66601
2.11961
2.55512
2.96686
3.34762
3.68769
3.97324
4.18358
4.28744
4.23912
3.97765
3.41656
0.224263
0.670968
1.11213
1.54381
1.9616
2.3604
2.73399
3.07431
3.37044
3.60684
3.76075
3.79847
3.67169
3.32323
2.77347
0.208193
0.622752
1.03176
1.43123
1.81676
2.18319
2.52421
2.83168
3.09464
3.29771
3.41859
3.42373
3.25818
2.80858
1.71681
0.19339
0.578392
0.95799
1.32834
1.68519
2.02362
2.33772
2.61996
2.86044
3.04565
3.15678
3.16751
3.04192
2.73988
2.28644
0.179822
0.537783
0.890644
1.23481
1.56639
1.88095
2.17334
2.43722
2.66459
2.84501
2.96471
3.00593
2.94818
2.7763
2.50249
0.167421
0.500715
0.829331
1.15003
1.45939
1.75368
2.02875
2.27984
2.50135
2.68653
2.82711
2.91308
2.93368
2.88349
2.78974
0.156094
0.466892
0.773512
1.07313
1.36286
1.63975
1.9008
2.14299
2.36333
2.55902
2.72742
2.86562
2.96834
3.02091
2.97672
0.14573
0.43597
0.722555
1.00308
1.27523
1.53681
1.78595
2.02129
2.24243
2.45045
2.64869
2.84279
3.03782
3.22552
3.35752
0.136215
0.407585
0.675801
0.93886
1.19493
1.44251
1.68067
1.90946
2.13061
2.34868
2.57283
2.81931
3.11236
3.46881
3.7756
0.127435
0.381387
0.632628
0.879485
1.12053
1.35475
1.5819
1.80293
2.02093
2.24266
2.48146
2.76349
3.14287
3.74659
4.93302
0.119291
0.357073
0.592498
0.824145
1.05085
1.27191
1.48736
1.69849
1.90867
2.12478
2.36007
2.64004
3.01758
3.61968
4.82411
0.111702
0.334393
0.55499
0.772233
0.985098
1.19296
1.39583
1.59472
1.79227
1.99358
2.20764
2.44883
2.73635
3.07448
3.31013
0.104606
0.313168
0.519811
0.72336
0.922817
1.11747
1.30704
1.49188
1.67325
1.85354
2.03635
2.22544
2.41997
2.60042
2.70973
0.0979619
0.293276
0.486779
0.677325
0.863871
1.04551
1.22154
1.39146
1.55497
1.71173
1.86071
1.99825
2.11337
2.17576
2.10128
0.0917411
0.274641
0.455798
0.634069
0.808328
0.977451
1.14028
1.29549
1.44137
1.57533
1.69299
1.78665
1.84338
1.84616
1.7979
0.0859247
0.257215
0.426822
0.593599
0.756349
0.913762
1.0643
1.20599
1.33605
1.45025
1.54195
1.60067
1.61084
1.552
1.39647
0.0804965
0.240958
0.399809
0.555925
0.708077
0.854846
0.994467
1.12457
1.24173
1.3408
1.41381
1.44842
1.42624
1.32498
1.15438
0.0754376
0.225818
0.374697
0.521003
0.663543
0.800895
0.931246
1.05213
1.15997
1.24945
1.31235
1.33559
1.29655
1.14612
0.724939
0.0707222
0.211722
0.35137
0.488697
0.622611
0.751804
0.874603
0.988738
1.09097
1.17656
1.23842
1.26601
1.24421
1.15527
1.00987
0.0663153
0.198565
0.329656
0.458761
0.584958
0.707153
0.823978
0.933613
1.03354
1.12015
1.18828
1.23073
1.23849
1.20364
1.12703
0.0621732
0.186212
0.309321
0.430846
0.550084
0.666233
0.778345
0.885233
0.985344
1.07657
1.15598
1.21956
1.26236
1.28101
1.28692
0.0582446
0.174506
0.290085
0.404521
0.517355
0.628118
0.736342
0.841562
0.943326
1.0412
1.13467
1.22281
1.30301
1.36722
1.38992
0.054474
0.163275
0.271642
0.379311
0.486064
0.591767
0.696427
0.800293
0.904015
1.00888
1.11706
1.23158
1.35478
1.48225
1.59077
0.0508058
0.152346
0.253684
0.354737
0.455505
0.556143
0.657066
0.759125
0.863913
0.974265
1.09506
1.23432
1.40358
1.61046
1.79955
0.0471875
0.141557
0.235927
0.330362
0.425037
0.520323
0.616917
0.716064
0.819951
0.932401
1.06024
1.21622
1.42627
1.75102
2.36215
0.0435733
0.130768
0.218125
0.30582
0.394147
0.483598
0.574998
0.669717
0.770044
0.879853
1.00589
1.16059
1.36931
1.69271
2.3116
0.0399261
0.119867
0.200089
0.280842
0.362479
0.445523
0.530776
0.619478
0.713559
0.81604
0.931634
1.06746
1.23271
1.4292
1.58305
0.0362179
0.10877
0.181686
0.255253
0.329835
0.405916
0.484163
0.565507
0.651244
0.743126
0.843333
0.953903
1.07443
1.19532
1.28966
0.0324289
0.0974227
0.162832
0.228961
0.296152
0.364808
0.435403
0.50849
0.584666
0.664438
0.747841
0.833441
0.915889
0.979895
0.982612
0.0285456
0.085787
0.143481
0.201933
0.261456
0.322356
0.384916
0.449332
0.515595
0.583234
0.65083
0.715175
0.770169
0.807037
0.826152
0.0245584
0.0738383
0.123604
0.174165
0.225806
0.278757
0.333144
0.388897
0.445576
0.502066
0.556083
0.603412
0.637043
0.646515
0.61436
0.0204584
0.0615535
0.103176
0.145649
0.189249
0.234163
0.280429
0.327826
0.375691
0.422624
0.465987
0.501168
0.520701
0.514911
0.48747
0.0162351
0.0489038
0.0821582
0.116353
0.151782
0.188635
0.226934
0.266433
0.306462
0.345667
0.38158
0.4098
0.421952
0.39835
0.272521
0.0118741
0.0358485
0.0604898
0.0862035
0.11333
0.142107
0.172609
0.204679
0.237812
0.271003
0.302523
0.3296
0.34804
0.352787
0.348698
0.00735669
0.0223314
0.0380787
0.0550755
0.0737372
0.0943842
0.117202
0.142194
0.16913
0.197507
0.226559
0.255406
0.283648
0.313369
0.355184
0.00265824
0.00827897
0.014802
0.0227945
0.0327692
0.0451592
0.0602914
0.0783657
0.0994541
0.123552
0.150748
0.181641
0.218239
0.265562
0.33287
-0.00225098
-0.00639872
-0.00949276
-0.0108598
-0.00987168
-0.00596487
0.00134362
0.0124513
0.0276966
0.0474549
0.07238
0.103927
0.145394
0.203888
0.29473
-0.00740565
-0.0218068
-0.0349844
-0.0461461
-0.0545351
-0.0594457
-0.0602359
-0.0563287
-0.0471861
-0.0322202
-0.0105756
0.0193374
0.0607367
0.119767
0.204136
-0.0128446
-0.038063
-0.0618736
-0.0833543
-0.101609
-0.115782
-0.125071
-0.128736
-0.126103
-0.116523
-0.0992609
-0.0732152
-0.036148
0.0180661
0.113434
-0.0186101
-0.0552953
-0.0903782
-0.122799
-0.151514
-0.175505
-0.193803
-0.20551
-0.209836
-0.206148
-0.194033
-0.173407
-0.144923
-0.112193
-0.095708
-0.0247465
-0.0736388
-0.120729
-0.164814
-0.204693
-0.239176
-0.267106
-0.2874
-0.299122
-0.301615
-0.294702
-0.279038
-0.256627
-0.23115
-0.203302
-0.0312993
-0.0932322
-0.153164
-0.209746
-0.261614
-0.307391
-0.345704
-0.375233
-0.394809
-0.4036
-0.401433
-0.38934
-0.370441
-0.351726
-0.350893
-0.038314
-0.114214
-0.187922
-0.257947
-0.32276
-0.380783
-0.430394
-0.469969
-0.497976
-0.513183
-0.515044
-0.50435
-0.484108
-0.459859
-0.434095
-0.0458335
-0.136716
-0.225234
-0.309765
-0.388618
-0.46001
-0.522046
-0.572729
-0.610022
-0.632022
-0.637361
-0.625976
-0.600539
-0.569024
-0.551158
-0.0538969
-0.16086
-0.265313
-0.365521
-0.459652
-0.545727
-0.621575
-0.68478
-0.732677
-0.762421
-0.771277
-0.757347
-0.721174
-0.668694
-0.6132
-0.0625366
-0.186745
-0.308337
-0.425494
-0.536274
-0.638542
-0.729876
-0.807454
-0.867927
-0.907314
-0.921006
-0.904149
-0.853119
-0.770441
-0.680261
-0.0717764
-0.214445
-0.354438
-0.489891
-0.618803
-0.738943
-0.847722
-0.941997
-1.01781
-1.07004
-1.09194
-1.07467
-1.00703
-0.877385
-0.694215
-0.0816297
-0.244001
-0.403688
-0.558827
-0.707418
-0.847229
-0.975633
-1.08935
-1.18407
-1.25382
-1.29006
-1.28016
-1.20398
-1.02149
-0.609868
-0.0920991
-0.27542
-0.456095
-0.632306
-0.802126
-0.963432
-1.11373
-1.2499
-1.36766
-1.46085
-1.52021
-1.53168
-1.47475
-1.3247
-1.08671
-0.103177
-0.308675
-0.511601
-0.710218
-0.902742
-1.08727
-1.26165
-1.42321
-1.56829
-1.69137
-1.7836
-1.83068
-1.81018
-1.68896
-1.41091
-0.114849
-0.343714
-0.570095
-0.792359
-1.00891
-1.21815
-1.41845
-1.60796
-1.78421
-1.9433
-2.07833
-2.17659
-2.21556
-2.16212
-2.00496
-0.127097
-0.380478
-0.631445
-0.878466
-1.12014
-1.35523
-1.58275
-1.80192
-2.01202
-2.21192
-2.3986
-2.56368
-2.68508
-2.70732
-2.48634
-0.139909
-0.418917
-0.695532
-0.968286
-1.23593
-1.49757
-1.75284
-2.00215
-2.24692
-2.48972
-2.73386
-2.98108
-3.22345
-3.42139
-3.47937
-0.153283
-0.459017
-0.762298
-1.06165
-1.35589
-1.64432
-1.92706
-2.20554
-2.48318
-2.76658
-3.06696
-3.40183
-3.79267
-4.23263
-4.46369
-0.167235
-0.500819
-0.831788
-1.15857
-1.47988
-1.79502
-2.10424
-2.40948
-2.71545
-3.03163
-3.37609
-3.78371
-4.32776
-5.18894
-6.9266
-0.181802
-0.544435
-0.904188
-1.25927
-1.60815
-1.94981
-2.28419
-2.61292
-2.9406
-3.27703
-3.64134
-4.07085
-4.64262
-5.53655
-7.24994
-0.197043
-0.59005
-0.979829
-1.36428
-1.74143
-2.10966
-2.46805
-2.81708
-3.15968
-3.50305
-3.86131
-4.25916
-4.73374
-5.31506
-5.86593
-0.213032
-0.637904
-1.05917
-1.47435
-1.8809
-2.27633
-2.65841
-3.02569
-3.37822
-3.71872
-4.05377
-4.39419
-4.75073
-5.11471
-5.40948
-0.22985
-0.688261
-1.14274
-1.59041
-2.0281
-2.45226
-2.85905
-3.24453
-3.60512
-3.93817
-4.2425
-4.51801
-4.76254
-4.96239
-5.0688
-0.247561
-0.741351
-1.23102
-1.7134
-2.18469
-2.64026
-3.07448
-3.48065
-3.85112
-4.17756
-4.45124
-4.66331
-4.80538
-4.87495
-4.90489
-0.266196
-0.797302
-1.32437
-1.84408
-2.35219
-2.84308
-3.30937
-3.74155
-4.12771
-4.45357
-4.70275
-4.85723
-4.89856
-4.81502
-4.63701
-0.285724
-0.856058
-1.42282
-1.98282
-2.53164
-3.06298
-3.56796
-4.0344
-4.44615
-4.78283
-5.02001
-5.12971
-5.07844
-4.82069
-4.36081
-0.306026
-0.917296
-1.52595
-2.12933
-2.72324
-3.30118
-3.8533
-4.36521
-4.81674
-5.18117
-5.42578
-5.51399
-5.40169
-4.96671
-3.49692
-0.326869
-0.980347
-1.63276
-2.2824
-2.92592
-3.5573
-4.16657
-4.73795
-5.2478
-5.66273
-5.94014
-6.0375
-5.94901
-5.83133
-6.46919
-0.347893
-1.04414
-1.74149
-2.43973
-3.13701
-3.82878
-4.50613
-5.15341
-5.74477
-6.23978
-6.57954
-6.69008
-6.51661
-6.17128
-6.49814
-0.368598
-1.10716
-1.84959
-2.59771
-3.35194
-4.11028
-4.86658
-5.60769
-6.30865
-6.92463
-7.37812
-7.53987
-7.20354
-6.04442
-3.40802
-0.388355
-1.16748
-1.95375
-2.75145
-3.56401
-4.39318
-5.23756
-6.08986
-6.93154
-7.72231
-8.37929
-8.73554
-8.46184
-6.94344
-3.22044
-0.406431
-1.22285
-2.04996
-2.89487
-3.76454
-4.66551
-5.60304
-6.57941
-7.58977
-8.6129
-9.58929
-10.3687
-10.5845
-9.37341
-4.92029
-0.422033
-1.2708
-2.13382
-3.02109
-3.94335
-4.91244
-5.94156
-7.04534
-8.23913
-9.53595
-10.9361
-12.3931
-13.6982
-14.0548
-10.3614
-0.43437
-1.30885
-2.20084
-3.12299
-4.08962
-5.11768
-6.22822
-7.44875
-8.81693
-10.3873
-12.2434
-14.523
-17.4704
-21.5486
-27.6285
-11.3577
-25.8789
-24.4559
-20.8881
-17.5745
-14.7966
-12.47
-10.4788
-8.73048
-7.15805
-5.71315
-4.36019
-3.072
-1.82684
-0.606275
-111.405
-58.1026
-37.5081
-27.3351
-21.2696
-17.1452
-14.0707
-11.6208
-9.568
-7.77958
-6.17237
-4.6908
-3.29536
-1.9561
-0.648603
-123.858
-67.6123
-43.3232
-30.9296
-23.6167
-18.7647
-15.2377
-12.4871
-10.2219
-8.27526
-6.54433
-4.96158
-3.47971
-2.06329
-0.683788
-68.0567
-54.9293
-40.8777
-30.9957
-24.2548
-19.464
-15.8655
-13.0161
-10.6546
-8.62114
-6.81339
-5.1623
-3.61859
-2.14486
-0.710686
-48.0519
-42.8882
-35.5364
-28.8805
-23.5386
-19.3353
-15.9731
-13.2065
-10.8595
-8.81026
-6.97365
-5.28845
-3.70887
-2.19895
-0.728692
-30.5291
-32.3666
-29.712
-25.8528
-22.0318
-18.6224
-15.6671
-13.1053
-10.8575
-8.85173
-7.02877
-5.34124
-3.75078
-2.22551
-0.737753
-22.5287
-24.9644
-24.7241
-22.7985
-20.239
-17.5942
-15.0879
-12.7862
-10.6875
-8.76621
-6.98983
-5.3266
-3.74742
-2.226
-0.738306
-12.5238
-19.4205
-20.9065
-20.1844
-18.5055
-16.4697
-14.3667
-12.3259
-10.3944
-8.58002
-6.87229
-5.25361
-3.70395
-2.20308
-0.731161
-15.1235
-17.6341
-18.6224
-18.2347
-17.0199
-15.3917
-13.6024
-11.7896
-10.02
-8.31973
-6.69293
-5.13266
-3.6266
-2.16004
-0.717352
-15.7936
-16.9049
-17.2937
-16.8593
-15.8215
-14.4256
-12.8544
-11.2234
-9.59751
-8.00838
-6.46734
-4.97408
-3.52182
-2.10041
-0.698001
-16.4369
-16.6773
-16.5367