/*--------------------------------*- C++ -*----------------------------------*\
| =========                 |                                                 |
| \\      /  F ield         | OpenFOAM: The Open Source CFD Toolbox           |
|  \\    /   O peration     | Version:  5.x                                   |
|   \\  /    A nd           | Web:      www.OpenFOAM.org                      |
|    \\/     M anipulation  |                                                 |
\*---------------------------------------------------------------------------*/
FoamFile
{
    version     2.0;
    format      ascii;
    class       volScalarField;
    location    "1.3";
    object      gradTx;
}
// * * * * * * * * * * * * * * * * * * * * * * * * * * * * * * * * * * * * * //

dimensions      [0 -1 0 1 0 0 0];

internalField   nonuniform List<scalar> 
6300
(
-29.3257
-29.3933
-29.5277
-29.7276
-29.991
-30.3148
-30.6951
-31.1267
-31.6035
-32.1177
-32.6607
-33.2227
-33.7935
-34.3624
-34.9197
-29.2582
-29.3264
-29.4621
-29.6642
-29.9305
-30.2583
-30.6437
-31.0817
-31.566
-32.0889
-32.6417
-33.214
-33.7952
-34.3741
-34.9401
-29.1225
-29.1919
-29.3303
-29.5364
-29.8086
-30.1442
-30.5397
-30.9903
-31.4898
-32.0304
-32.603
-33.1966
-33.7993
-34.3987
-34.9826
-28.9173
-28.9886
-29.1306
-29.3426
-29.6232
-29.9702
-30.3806
-30.85
-31.3724
-31.94
-32.5432
-33.17
-33.8068
-34.4388
-35.0514
-28.641
-28.7144
-28.8609
-29.0802
-29.3713
-29.7329
-30.1626
-30.6567
-31.2097
-31.8141
-32.4597
-33.1333
-33.819
-34.4985
-35.1528
-28.2912
-28.367
-28.5185
-28.7459
-29.0491
-29.4276
-29.8802
-30.4043
-30.9956
-31.6471
-32.3483
-33.0846
-33.8373
-34.5832
-35.2969
-27.8658
-27.9438
-28.1002
-28.3357
-28.6514
-29.0481
-29.5262
-30.0848
-30.7214
-31.4303
-32.2016
-33.0197
-33.8624
-34.7002
-35.4981
-27.3623
-27.4421
-27.6027
-27.8455
-28.1728
-28.5873
-29.0915
-29.6873
-30.3749
-31.1512
-32.0081
-32.9302
-33.8922
-34.8573
-35.7764
-26.7789
-26.8598
-27.0229
-27.2707
-27.607
-28.0367
-28.5653
-29.1981
-29.9397
-30.7915
-31.7495
-32.8007
-33.919
-35.0603
-36.1582
-26.1146
-26.1953
-26.3583
-26.6073
-26.9479
-27.3873
-27.9347
-28.6002
-29.3942
-30.3255
-31.3976
-32.6041
-33.9228
-35.3068
-36.6736
-25.3697
-25.4483
-25.6077
-25.8525
-26.1899
-26.63
-27.1859
-27.8736
-28.7116
-29.7188
-30.9112
-32.2955
-33.8611
-35.5705
-37.3426
-24.5463
-24.6205
-24.7716
-25.0049
-25.3292
-25.7569
-26.3053
-26.9968
-27.8596
-28.9269
-30.2329
-31.8055
-33.6556
-35.7716
-38.1259
-23.6485
-23.7158
-23.8532
-24.0664
-24.365
-24.7632
-25.2815
-25.9485
-26.8032
-27.8963
-29.2879
-31.0378
-33.1843
-35.7343
-38.7738
-22.6835
-22.7411
-22.8589
-23.0425
-23.3011
-23.6494
-24.109
-24.7126
-25.5085
-26.5671
-27.9846
-29.8735
-32.3097
-35.2075
-38.4213
-21.6608
-21.7061
-21.7988
-21.9434
-22.1477
-22.4241
-22.7924
-23.2842
-23.9511
-24.879
-26.2097
-28.1621
-30.9734
-34.3652
-34.9178
-35.4138
-35.8426
-36.2501
-36.6343
-36.9946
-37.3309
-37.6438
-37.9338
-38.2012
-38.4461
-38.6681
-38.8662
-39.0398
-39.1882
-39.3115
-39.4106
-39.4873
-39.5444
-39.5856
-39.6148
-39.636
-39.6527
-39.6676
-39.6824
-39.6974
-39.712
-39.7248
-39.734
-39.7376
-39.7343
-39.7234
-39.7053
-39.6812
-39.6534
-39.6243
-39.5967
-39.5729
-39.5545
-39.5421
-39.5354
-39.5329
-39.5326
-39.5321
-39.529
-39.5214
-39.5084
-39.4899
-39.4669
-39.4412
-39.4151
-39.3911
-39.3712
-39.3568
-39.3483
-39.3451
-39.3457
-39.3477
-39.3487
-39.346
-39.3379
-39.323
-39.3014
-39.2738
-39.2422
-39.2086
-39.1756
-39.1452
-39.1188
-39.0969
-39.0791
-39.0641
-39.0499
-39.0345
-39.016
-38.9933
-38.9664
-38.9365
-38.906
-38.8787
-38.8588
-38.8509
-38.8595
-38.888
-38.9385
-39.0115
-39.1056
-39.2173
-39.3415
-39.4716
-39.6006
-35.4405
-35.8735
-36.2835
-36.6688
-37.0291
-37.3647
-37.6768
-37.9663
-38.2337
-38.4793
-38.7023
-38.9016
-39.076
-39.2244
-39.3465
-39.4429
-39.5155
-39.5674
-39.6029
-39.6263
-39.6425
-39.6553
-39.6679
-39.6821
-39.698
-39.7147
-39.7302
-39.742
-39.7477
-39.7453
-39.7339
-39.7139
-39.6868
-39.6552
-39.6223
-39.5914
-39.5652
-39.5459
-39.5341
-39.5294
-39.5299
-39.5331
-39.5359
-39.5355
-39.5294
-39.5164
-39.4964
-39.4708
-39.4418
-39.4123
-39.3853
-39.3634
-39.3484
-39.3408
-39.3398
-39.3436
-39.3494
-39.3539
-39.3541
-39.3475
-39.3328
-39.3099
-39.2798
-39.2449
-39.2079
-39.1719
-39.1394
-39.1122
-39.091
-39.0751
-39.0628
-39.0516
-39.0388
-39.022
-38.9994
-38.9707
-38.9372
-38.9015
-38.8679
-38.8413
-38.8272
-38.8307
-38.8561
-38.906
-38.9812
-39.0801
-39.1992
-39.3327
-39.4733
-39.6129
-35.4963
-35.9376
-36.3524
-36.7394
-37.099
-37.4326
-37.7424
-38.0304
-38.2979
-38.5449
-38.7707
-38.9731
-39.1498
-39.2987
-39.4185
-39.5094
-39.5735
-39.6144
-39.6375
-39.6486
-39.6538
-39.6584
-39.6662
-39.6793
-39.6976
-39.7192
-39.741
-39.7591
-39.7695
-39.7693
-39.757
-39.7329
-39.699
-39.6591
-39.6176
-39.5792
-39.5479
-39.5266
-39.5161
-39.5159
-39.5232
-39.5343
-39.5447
-39.5502
-39.5474
-39.5344
-39.5113
-39.4798
-39.4432
-39.4059
-39.3722
-39.3458
-39.3294
-39.3237
-39.3277
-39.3388
-39.3528
-39.3653
-39.3719
-39.3689
-39.3546
-39.3286
-39.2929
-39.2505
-39.2058
-39.163
-39.1259
-39.0971
-39.0774
-39.0658
-39.0598
-39.0556
-39.049
-39.0361
-39.0141
-38.982
-38.9408
-38.894
-38.8467
-38.8057
-38.778
-38.7704
-38.7888
-38.837
-38.9164
-39.0255
-39.1602
-39.3134
-39.4763
-39.6384
-35.5859
-36.0399
-36.4614
-36.8496
-37.2062
-37.5348
-37.8395
-38.1242
-38.3913
-38.6414
-38.8726
-39.0815
-39.2637
-39.4149
-39.5321
-39.6147
-39.6648
-39.6872
-39.6893
-39.6794
-39.6661
-39.6569
-39.6571
-39.6691
-39.6924
-39.7236
-39.7574
-39.7872
-39.8067
-39.811
-39.7973
-39.766
-39.7202
-39.6654
-39.6086
-39.5569
-39.5165
-39.4916
-39.4837
-39.4916
-39.5111
-39.5365
-39.5607
-39.577
-39.5802
-39.5673
-39.5383
-39.4961
-39.446
-39.3945
-39.3485
-39.3141
-39.295
-39.2927
-39.3057
-39.3297
-39.3586
-39.3855
-39.4033
-39.4069
-39.393
-39.3616
-39.3154
-39.2596
-39.2009
-39.1459
-39.1006
-39.0689
-39.052
-39.0485
-39.0541
-39.063
-39.0683
-39.0633
-39.0434
-39.0061
-38.9525
-38.887
-38.8166
-38.7508
-38.6995
-38.6727
-38.6785
-38.723
-38.8085
-38.934
-39.0942
-39.2803
-39.4801
-39.6799
-35.7175
-36.189
-36.6183
-37.0053
-37.354
-37.6713
-37.9654
-38.2433
-38.5095
-38.765
-39.0068
-39.2285
-39.4223
-39.5801
-39.6957
-39.767
-39.7959
-39.7895
-39.7584
-39.7152
-39.6727
-39.6421
-39.631
-39.6427
-39.6758
-39.7245
-39.7796
-39.8303
-39.8661
-39.8786
-39.8631
-39.8201
-39.7543
-39.6747
-39.5923
-39.5184
-39.4629
-39.4322
-39.4288
-39.4505
-39.4909
-39.5405
-39.5881
-39.6229
-39.6363
-39.6235
-39.5845
-39.5241
-39.4507
-39.3751
-39.3085
-39.2602
-39.2366
-39.2399
-39.2677
-39.3135
-39.3675
-39.4185
-39.4556
-39.4699
-39.4567
-39.4157
-39.3517
-39.2731
-39.1905
-39.1149
-39.0558
-39.0192
-39.0074
-39.0178
-39.0438
-39.0756
-39.102
-39.1121
-39.0974
-39.0536
-38.9814
-38.8867
-38.78
-38.6747
-38.5858
-38.5277
-38.5126
-38.5496
-38.6431
-38.7923
-38.991
-39.2271
-39.4839
-39.7417
-35.9041
-36.3991
-36.8361
-37.216
-37.5469
-37.8415
-38.1146
-38.3791
-38.6432
-38.9085
-39.1697
-39.4159
-39.6328
-39.8058
-39.9234
-39.9801
-39.9781
-39.9276
-39.8449
-39.7499
-39.6623
-39.5992
-39.5721
-39.5857
-39.637
-39.7162
-39.8082
-39.895
-39.9591
-39.9864
-39.9689
-39.9069
-39.8085
-39.6882
-39.5638
-39.4538
-39.3736
-39.3337
-39.3379
-39.3827
-39.4576
-39.5474
-39.634
-39.6997
-39.7302
-39.7176
-39.6618
-39.5708
-39.4586
-39.3431
-39.242
-39.1708
-39.1396
-39.1519
-39.204
-39.2855
-39.3808
-39.4718
-39.5405
-39.5727
-39.5603
-39.5032
-39.4091
-39.2922
-39.17
-39.0603
-38.9783
-38.934
-38.9308
-38.9647
-39.025
-39.096
-39.1592
-39.1965
-39.1934
-39.142
-39.0425
-38.9036
-38.741
-38.575
-38.4278
-38.3205
-38.2716
-38.2946
-38.3971
-38.5794
-38.8338
-39.1439
-39.4861
-39.831
-36.166
-36.6928
-37.136
-37.4976
-37.7919
-38.0426
-38.2762
-38.5156
-38.7753
-39.0579
-39.3543
-39.6455
-39.9066
-40.1115
-40.239
-40.2778
-40.2302
-40.112
-39.9494
-39.7739
-39.6168
-39.5045
-39.4548
-39.4745
-39.5581
-39.6896
-39.8442
-39.9926
-40.1054
-40.1587
-40.139
-40.0464
-39.8945
-39.7076
-39.5149
-39.3462
-39.2263
-39.1719
-39.1889
-39.2714
-39.4031
-39.5591
-39.7103
-39.8273
-39.8864
-39.8739
-39.79
-39.648
-39.4717
-39.2902
-39.1327
-39.0239
-38.98
-39.0067
-39.0982
-39.2377
-39.4005
-39.557
-39.6781
-39.7398
-39.7284
-39.6439
-39.4995
-39.319
-39.1314
-38.9657
-38.8464
-38.7896
-38.8007
-38.8735
-38.9909
-39.1276
-39.2535
-39.3388
-39.3589
-39.2996
-39.1603
-38.9546
-38.7069
-38.4483
-38.2119
-38.0292
-37.9269
-37.9252
-38.0362
-38.2626
-38.596
-39.0146
-39.4839
-39.9596
-36.5342
-37.107
-37.5535
-37.8759
-38.0999
-38.2685
-38.4293
-38.623
-38.8744
-39.1875
-39.5465
-39.9187
-40.2613
-40.5287
-40.6822
-40.7
-40.584
-40.3604
-40.0726
-39.7715
-39.5068
-39.3198
-39.2379
-39.2711
-39.4105
-39.6298
-39.8894
-40.1416
-40.3375
-40.4363
-40.4142
-40.2712
-40.0313
-39.7352
-39.4318
-39.1685
-38.985
-38.9075
-38.9455
-39.0895
-39.3135
-39.5781
-39.8359
-40.0386
-40.1456
-40.1334
-40.0019
-39.7747
-39.4923
-39.2029
-38.9535
-38.7835
-38.7188
-38.7685
-38.9231
-39.1565
-39.4291
-39.6935
-39.9014
-40.0121
-40.0019
-39.8707
-39.642
-39.3561
-39.0613
-38.8044
-38.6245
-38.5474
-38.5818
-38.7179
-38.9289
-39.1745
-39.4063
-39.575
-39.6386
-39.572
-39.3737
-39.066
-38.6883
-38.2894
-37.9188
-37.622
-37.4372
-37.3932
-37.5088
-37.7918
-38.2352
-38.8121
-39.4723
-40.1464
-37.0562
-37.703
-38.1499
-38.3957
-38.4878
-38.5056
-38.535
-38.6474
-38.8845
-39.2513
-39.7195
-40.2345
-40.7242
-41.1099
-41.321
-41.3148
-41.0928
-40.7015
-40.215
-39.7169
-39.2851
-38.9838
-38.8552
-38.9149
-39.1477
-39.5122
-39.9455
-40.3716
-40.7096
-40.8881
-40.8635
-40.6359
-40.2489
-39.7738
-39.2909
-38.876
-38.591
-38.4772
-38.5494
-38.7926
-39.1658
-39.607
-40.0409
-40.3877
-40.5767
-40.5647
-40.3517
-39.9811
-39.5232
-39.0579
-38.6602
-38.3917
-38.2931
-38.3791
-38.6348
-39.0189
-39.4695
-39.9114
-40.2647
-40.4585
-40.4497
-40.238
-39.8667
-39.4063
-38.9364
-38.5321
-38.2546
-38.1446
-38.2164
-38.4546
-38.817
-39.2411
-39.65
-39.9625
-40.1058
-40.0341
-39.7447
-39.2777
-38.7004
-38.0895
-37.5191
-37.0535
-36.7447
-36.6313
-36.7403
-37.0896
-37.6821
-38.4896
-39.4405
-40.4226
-37.8039
-38.5867
-39.0361
-39.1367
-38.983
-38.7259
-38.5212
-38.4923
-38.7077
-39.1691
-39.8253
-40.5867
-41.3371
-41.9426
-42.273
-42.2402
-41.8455
-41.1795
-40.3744
-39.5666
-38.8759
-38.399
-38.2018
-38.3092
-38.6957
-39.2954
-40.0123
-40.7285
-41.3113
-41.6326
-41.6055
-41.2301
-40.5935
-39.8236
-39.0523
-38.3965
-37.9507
-37.7793
-37.907
-38.3089
-38.9201
-39.6465
-40.3715
-40.9641
-41.2975
-41.2857
-40.9288
-40.313
-39.565
-38.8157
-38.1811
-37.755
-37.6017
-37.7455
-38.1616
-38.7855
-39.5227
-40.2571
-40.8575
-41.197
-41.1895
-40.835
-40.2197
-39.4701
-38.7173
-38.0771
-37.6433
-37.4801
-37.6115
-38.0121
-38.6165
-39.3293
-40.0327
-40.5935
-40.8822
-40.8096
-40.3713
-39.6483
-38.7606
-37.8314
-36.9682
-36.2591
-35.7707
-35.5491
-35.6254
-36.0372
-36.8194
-37.9602
-39.3636
-40.8415
-38.8803
-39.9507
-40.4244
-40.2441
-39.6269
-38.8709
-38.2545
-37.9855
-38.1765
-38.8065
-39.7795
-40.955
-42.1588
-43.1714
-43.748
-43.6869
-42.989
-41.8578
-40.538
-39.2476
-38.1587
-37.4115
-37.1098
-37.3018
-37.937
-38.9099
-40.0801
-41.2778
-42.2899
-42.8789
-42.849
-42.2007
-41.1304
-39.8754
-38.6476
-37.6149
-36.9152
-36.6508
-36.87
-37.5238
-38.509
-39.688
-40.8931
-41.9139
-42.5155
-42.5037
-41.8789
-40.8356
-39.6087
-38.4086
-37.4019
-36.7258
-36.4824
-36.7198
-37.3895
-38.3888
-39.58
-40.796
-41.8261
-42.4352
-42.4291
-41.8079
-40.766
-39.5387
-38.3359
-37.3249
-36.6425
-36.3912
-36.6188
-37.2762
-38.2598
-39.4309
-40.6206
-41.616
-42.1791
-42.1114
-41.4079
-40.2559
-38.8807
-37.4779
-36.1953
-35.1466
-34.4125
-34.0377
-34.0275
-34.4511
-35.4401
-37.0528
-39.1792
-41.4972
-40.4045
-42.1739
-42.7548
-41.9804
-40.471
-38.8147
-37.4876
-36.8163
-37.0134
-37.9502
-39.4419
-41.2824
-43.2558
-45.0283
-46.1414
-46.0505
-44.7567
-42.8077
-40.6592
-38.6387
-36.9497
-35.7826
-35.3069
-35.6563
-36.692
-38.2402
-40.1087
-42.0945
-43.8777
-45.0165
-44.9834
-43.7791
-41.9335
-39.8882
-37.9619
-36.3542
-35.2529
-34.8262
-35.2073
-36.2614
-37.8191
-39.6919
-41.6802
-43.4677
-44.6168
-44.6047
-43.4318
-41.6225
-39.6142
-37.7228
-36.1469
-35.0736
-34.6708
-35.0719
-36.143
-37.7156
-39.6019
-41.6025
-43.4009
-44.5594
-44.5544
-43.3864
-41.5796
-39.5717
-37.6786
-36.0993
-35.0211
-34.6125
-35.0071
-36.0704
-37.633
-39.5058
-41.4881
-43.2612
-44.3841
-44.3286
-43.0899
-41.1851
-39.0402
-36.9511
-35.0854
-33.581
-32.5367
-32.0012
-31.8048
-32.0505
-33.1626
-35.4053
-38.719
-42.5669
-42.3686
-46.1084
-47.0367
-44.7753
-41.5266
-38.2846
-35.7764
-34.3968
-34.7849
-36.295
-38.602
-41.4186
-44.6423
-47.8346
-50.2687
-50.1465
-47.4678
-44.0449
-40.5964
-37.5524
-34.9892
-33.1582
-32.3158
-33.0225
-34.7093
-37.1096
-39.9684
-43.203
-46.3936
-48.842
-48.8042
-46.2814
-43.0241
-39.7301
-36.8174
-34.3644
-32.6194
-31.8386
-32.5756
-34.2742
-36.6756
-39.5298
-42.7567
-45.9408
-48.3907
-48.3773
-45.9016
-42.6959
-39.4516
-36.5829
-34.1684
-32.4558
-31.7018
-32.4591
-34.1744
-36.5909
-39.4593
-42.7002
-45.8972
-48.3589
-48.3546
-45.885
-42.6827
-39.4394
-36.5696
-34.1521
-32.4354
-31.6774
-32.4325
-34.1457
-36.5593
-39.423
-42.6567
-45.8424
-48.2859
-48.2497
-45.731
-42.4598
-39.119
-36.1027
-33.4551
-31.3525
-29.9284
-29.4762
-28.9455
-28.4024
-29.2569
-32.2153
-37.4894
-44.4088
-43.7957
-54.0914
-55.9114
-48.9916
-42.5729
-36.6976
-32.4403
-29.4316
-30.9408
-33.4923
-37.0284
-40.9688
-46.074
-51.7326
-58.0772
-57.9237
-51.2507
-45.3188
-39.9514
-35.7735
-31.9747
-29.1103
-27.0941
-28.9776
-31.6993
-35.3188
-39.287
-44.3751
-49.9784
-56.2478
-56.2036
-49.8415
-44.1678
-39.0229
-35.0113
-31.355
-28.5976
-26.6654
-28.5592
-31.2752
-34.88
-38.831
-43.8953
-49.4712
-55.7118
-55.6959
-49.4226
-43.8251
-38.7483
-34.7892
-31.1793
-28.4579
-26.5565
-28.4669
-31.1963
-34.8154
-38.7806
-43.861
-49.4525
-55.7097
-55.705
-49.4386
-43.8449
-38.7694
-34.8091
-31.1956
-28.4694
-26.5631
-28.4781
-31.2126
-34.8374
-38.8073
-43.8942
-49.4924
-55.7584
-55.7451
-49.4557
-43.8344
-38.7306
-34.7231
-31.04
-28.1468
-25.9206
-27.0642
-26.104
-22.7417
-22.3218
-25.6904
-33.8906
-47.7961
-38.0368
-74.2793
-77.3701
-52.485
-42.8365
-32.7811
-27.3059
-17.961
-25.596
-29.2715
-34.8729
-38.8415
-46.7089
-54.6429
-75.2432
-75.0891
-53.9666
-45.78
-37.5934
-33.4491
-27.6144
-23.841
-16.2569
-23.7258
-27.3965
-33.0261
-36.993
-44.8055
-52.6042
-72.7453
-72.7012
-52.4106
-44.5501
-36.684
-32.6936
-27.0516
-23.3875
-15.9831
-23.359
-26.9963
-32.5863
-36.5294
-44.2971
-52.045
-72.0423
-72.0255
-51.9706
-44.2047
-36.4357
-32.4928
-26.9107
-23.2792
-15.9224
-23.2952
-26.9374
-32.5415
-36.496
-44.2858
-52.0494
-72.0777
-72.0721
-52.0239
-44.2607
-36.4935
-32.5494
-26.9614
-23.3227
-15.9461
-23.3438
-26.9971
-32.6184
-36.5833
-44.3951
-52.1807
-72.2727
-72.2782
-52.218
-44.4635
-36.7635
-32.8764
-27.4871
-23.9805
-17.0602
-27.6815
-26.7208
-12.8437
-9.93126
-12.2077
-22.0762
-54.4016
-39.7316
-39.8529
-39.942
-39.9932
-40.0047
-39.9786
-39.9201
-39.8366
-39.737
-39.6307
-39.5267
-39.4329
-39.3564
-39.3024
-39.2744
-39.7545
-39.885
-39.9798
-40.0328
-40.0422
-40.0109
-39.9449
-39.8525
-39.7437
-39.6284
-39.5162
-39.4156
-39.3337
-39.2761
-39.2464
-39.8026
-39.9527
-40.0593
-40.1156
-40.1204
-40.0778
-39.9957
-39.8848
-39.7566
-39.6228
-39.4939
-39.3793
-39.2867
-39.2218
-39.1884
-39.8816
-40.0636
-40.1891
-40.2498
-40.2459
-40.1839
-40.0753
-39.9342
-39.7751
-39.612
-39.4571
-39.321
-39.2119
-39.1358
-39.0968
-40.0008
-40.2309
-40.3834
-40.4487
-40.4292
-40.3364
-40.1874
-40.0014
-39.7975
-39.5927
-39.4015
-39.2356
-39.1038
-39.0126
-38.966
-40.1757
-40.4758
-40.6647
-40.7322
-40.6856
-40.5449
-40.3362
-40.0865
-39.8206
-39.5596
-39.3204
-39.1158
-38.955
-38.8446
-38.7884
-40.4312
-40.8316
-41.0675
-41.1295
-41.0359
-40.8214
-40.5259
-40.1875
-39.8386
-39.5047
-39.2046
-38.9519
-38.7558
-38.6221
-38.5545
-40.8083
-41.3519
-41.6439
-41.6822
-41.5071
-41.1787
-40.7583
-40.2989
-39.8415
-39.4156
-39.0413
-38.7314
-38.4939
-38.3335
-38.2528
-41.3757
-42.1236
-42.4739
-42.448
-42.1316
-41.6278
-41.0295
-40.4081
-39.8127
-39.2749
-38.8133
-38.4382
-38.1547
-37.9651
-37.8702
-42.2542
-43.2927
-43.6798
-43.5044
-42.9431
-42.1712
-41.3238
-40.491
-39.7262
-39.0578
-38.4987
-38.0533
-37.7215
-37.5018
-37.3925
-43.6698
-45.1132
-45.4481
-44.9465
-43.9652
-42.7899
-41.6034
-40.5058
-39.5431
-38.7312
-38.0703
-37.5545
-37.176
-36.928
-36.8053
-46.0778
-48.0418
-48.0528
-46.8681
-45.181
-43.4195
-41.7941
-40.3855
-39.2092
-38.2532
-37.4966
-36.9182
-36.5
-36.2287
-36.0952
-50.4951
-52.9234
-51.8529
-49.2921
-46.4709
-43.9127
-41.7678
-40.0327
-38.6549
-37.5758
-36.7445
-36.1214
-35.677
-35.3913
-35.2515
-59.4988
-61.3034
-57.1429
-51.9761
-47.4976
-43.9925
-41.3316
-39.3223
-37.8017
-36.6504
-35.7842
-35.1455
-34.6953
-34.4079
-34.2678
-80.7023
-75.6486
-63.4391
-53.9715
-47.5508
-43.2277
-40.2437
-38.1228
-36.5792
-35.4395
-34.5962
-33.9811
-33.5505
-33.2769
-33.1439
-20.6818
-20.7139
-20.7794
-20.8812
-21.0242
-21.2168
-21.4724
-21.8144
-22.2843
-22.9621
-24.0127
-25.806
-29.2169
-36.1969
-48.8403
-19.7695
-19.7887
-19.8275
-19.8869
-19.9685
-20.0753
-20.2124
-20.3892
-20.6247
-20.9606
-21.4997
-22.541
-25.1422
-33.9381
-73.2792
-18.8439
-18.8498
-18.8613
-18.8771
-18.8953
-18.9128
-18.9247
-18.9232
-18.8954
-18.8177
-18.638
-18.1928
-16.7665
-10.4754
24.2386
-17.914
-17.9071
-17.892
-17.8656
-17.8225
-17.7542
-17.6464
-17.4755
-17.2006
-16.7457
-15.9606
-14.5261
-11.7699
-6.75088
-3.40432
-16.9889
-16.9701
-16.9306
-16.8656
-16.7673
-16.6229
-16.4118
-16.1001
-15.6306
-14.903
-13.7341
-11.7772
-8.34469
-1.865
13.3108
-16.0768
-16.0476
-15.9867
-15.8886
-15.744
-15.538
-15.2471
-14.8343
-14.2399
-13.3666
-12.0547
-10.0531
-7.03553
-3.01774
-1.47055
-15.1849
-15.147
-15.0686
-14.9439
-14.7634
-14.5119
-14.167
-13.6945
-13.0429
-12.1346
-10.8544
-9.03436
-6.42095
-2.45448
5.49075
-14.3192
-14.2745
-14.1826
-14.0381
-13.8319
-13.5508
-13.1755
-12.679
-12.024
-11.1609
-10.0289
-8.56657
-6.74599
-4.65392
-2.70026
-13.4845
-13.4348
-13.3332
-13.1749
-12.9524
-12.6549
-12.2681
-11.7736
-11.1497
-10.3739
-9.4326
-8.34756
-7.25952
-6.75695
-9.53537
-12.6842
-12.6312
-12.5231
-12.3563
-12.1249
-11.8211
-11.4355
-10.9582
-10.3808
-9.70178
-8.93614
-8.13058
-7.36646
-6.58121
-3.92216
-11.9207
-11.8656
-11.7538
-11.5826
-11.3476
-11.0439
-10.6665
-10.2121
-9.68237
-9.0898
-8.46736
-7.88481
-7.48802
-7.70635
-10.8419
-11.1955
-11.1393
-11.0258
-10.853
-10.618
-10.3179
-9.95096
-9.51829
-9.02756
-8.49852
-7.97082
-7.51001
-7.1824
-6.80526
-4.11598
-10.5092
-10.4528
-10.339
-10.1665
-9.93345
-9.63831
-9.281
-8.86475
-8.3993
-7.90627
-7.42779
-7.04267
-6.91114
-7.50939
-11.3477
-9.86211
-9.80591
-9.69292
-9.52203
-9.29198
-9.00184
-8.65193
-8.2453
-7.79016
-7.30385
-6.81988
-6.39919
-6.13306
-5.96301
-3.73038
-9.25395
-9.19846
-9.08698
-8.91858
-8.69218
-8.4068
-8.06217
-7.65949
-7.20259
-6.69976
-6.16797
-5.64833
-5.28821
-5.84848
-12.0796
-8.68428
-8.62983
-8.52048
-8.35536
-8.13327
-7.85285
-7.51267
-7.11128
-6.64684
-6.11572
-5.50756
-4.78665
-3.80414
-1.79534
5.86688
-8.15234
-8.09926
-7.99266
-7.83162
-7.61481
-7.34033
-7.00561
-6.60677
-6.13733
-5.58511
-4.9254
-4.10656
-3.03273
-1.66751
-1.49136
-7.65719
-7.6058
-7.50256
-7.34656
-7.13631
-6.86958
-6.543
-6.15122
-5.68522
-5.12909
-4.45365
-3.60348
-2.46359
-0.713251
3.19841
-7.19766
-7.14826
-7.04904
-6.89909
-6.69695
-6.44031
-6.1256
-5.74713
-5.29563
-4.75585
-4.10317
-3.30151
-2.3183
-1.25915
-1.32443
-6.77237
-6.72525
-6.63066
-6.4878
-6.29536
-6.0513
-5.75241
-5.39368
-4.96727
-4.46092
-3.85608
-3.12554
-2.22565
-1.02342
1.35449
-6.37971
-6.33513
-6.24571
-6.11084
-5.92955
-5.70028
-5.42067
-5.08715
-4.69433
-4.2343
-3.69618
-3.0671
-2.34288
-1.60332
-1.56605
-6.01793
-5.97608
-5.89224
-5.76605
-5.59696
-5.38412
-5.1263
-4.82172
-4.46796
-4.06184
-3.59935
-3.07465
-2.47066
-1.6947
-0.156131
-5.68511
-5.64612
-5.56809
-5.45097
-5.29467
-5.09913
-4.8643
-4.59036
-4.27787
-3.92841
-3.54564
-3.13718
-2.71779
-2.31481
-1.98626
-5.3793
-5.34316
-5.271
-5.163
-5.01955
-4.84131
-4.62939
-4.38566
-4.11335
-3.81804
-3.50968
-3.2072
-2.95344
-2.88239
-3.59024
-5.09848
-5.06515
-4.99869
-4.89955
-4.7685
-4.6068
-4.41647
-4.20072
-3.9647
-3.71663
-3.46954
-3.24329
-3.06214
-2.90821
-2.32939
-4.84072
-4.81005
-4.74899
-4.65817
-4.53863
-4.39207
-4.22109
-4.02976
-3.82433
-3.61444
-3.41483
-3.24799
-3.15185
-3.22822
-4.02712
-4.60416
-4.57595
-4.51987
-4.43663
-4.32744
-4.19419
-4.03976
-3.86849
-3.68696
-3.50503
-3.33725
-3.20349
-3.1217
-3.04559
-2.41278
-4.38709
-4.36111
-4.30951
-4.23301
-4.13286
-4.01092
-3.87001
-3.71425
-3.54975
-3.38567
-3.23596
-3.12282
-3.0875
-3.24864
-4.23019
-4.18796
-4.16397
-4.11632
-4.04572
-3.95329
-3.84073
-3.71047
-3.56596
-3.41215
-3.25625
-3.10915
-2.98802
-2.9168
-2.88104
-2.33554
-4.00538
-3.98315
-3.93898
-3.87348
-3.7876
-3.68273
-3.56071
-3.42403
-3.2759
-3.12059
-2.96421
-2.81846
-2.72138
-2.86645
-4.46031
-3.83814
-3.81746
-3.77634
-3.71528
-3.635
-3.53651
-3.42104
-3.28994
-3.14453
-2.98556
-2.81177
-2.61499
-2.35771
-1.84479
0.10527
-3.68515
-3.66586
-3.62745
-3.5703
-3.49494
-3.40199
-3.29209
-3.16566
-3.02247
-2.86071
-2.67518
-2.45345
-2.17145
-1.82006
-1.77703
-3.54546
-3.52741
-3.49146
-3.43787
-3.36697
-3.27912
-3.17451
-3.05292
-2.91317
-2.75226
-2.56361
-2.33366
-2.03328
-1.58011
-0.57425
-3.41818
-3.40129
-3.36761
-3.31733
-3.25066
-3.16777
-3.06862
-2.95266
-2.81845
-2.66295
-2.48059
-2.26266
-2.00111
-1.72284
-1.73334
-3.30252
-3.28671
-3.25518
-3.20805
-3.1455
-3.06761
-2.97427
-2.86495
-2.73839
-2.59217
-2.42215
-2.22185
-1.98042
-1.66391
-1.04763
-3.19773
-3.18294
-3.15345
-3.10937
-3.05087
-2.97805
-2.89089
-2.78908
-2.67186
-2.53779
-2.38461
-2.20949
-2.01175
-1.81199
-1.79143
-3.10308
-3.08926
-3.06172
-3.02059
-2.96606
-2.89833
-2.81756
-2.72379
-2.6169
-2.49656
-2.36218
-2.21272
-2.04438
-1.83449
-1.43411
-3.0179
-3.00501
-2.97931
-2.94099
-2.89029
-2.82755
-2.75314
-2.66749
-2.57117
-2.46494
-2.35009
-2.22895
-2.10573
-1.98809
-1.89108
-2.94156
-2.92952
-2.90554
-2.86985
-2.82277
-2.76475
-2.69638
-2.61848
-2.53218
-2.43917
-2.34225
-2.24649
-2.1631
-2.12621
-2.28347
-2.87346
-2.86219
-2.83979
-2.8065
-2.76271
-2.709
-2.64612
-2.57518
-2.49771
-2.41599
-2.33347
-2.25534
-2.18806
-2.12835
-1.96726
-2.81306
-2.80248
-2.78147
-2.75031
-2.70943
-2.65948
-2.60134
-2.53628
-2.46606
-2.39322
-2.32152
-2.25654
-2.20766
-2.1997
-2.36259
-2.75987
-2.74989
-2.73008
-2.70073
-2.66232
-2.61551
-2.56124
-2.50083
-2.43608
-2.36954
-2.30476
-2.24643
-2.19872
-2.15124
-1.97545
-2.71349
-2.704
-2.68519
-2.65733
-2.6209
-2.57658
-2.52528
-2.46827
-2.40722
-2.3445
-2.2834
-2.22883
-2.1895
-2.19067
-2.36752
-2.67356
-2.66447
-2.64644
-2.61974
-2.58484
-2.54237
-2.49317
-2.43836
-2.37939
-2.3182
-2.25737
-2.20053
-2.15205
-2.10691
-1.94728
-2.63982
-2.63102
-2.61357
-2.58773
-2.55391
-2.51269
-2.46481
-2.4112
-2.35298
-2.29151
-2.22844
-2.1663
-2.11217
-2.10142
-2.35712
-2.61205
-2.60346
-2.5864
-2.56112
-2.52798
-2.4875
-2.4403
-2.3871
-2.32869
-2.26578
-2.19871
-2.12639
-2.04204
-1.90969
-1.51344
-2.59012
-2.58164
-2.5648
-2.53982
-2.50703
-2.46685
-2.41982
-2.36648
-2.30738
-2.24282
-2.1725
-2.09471
-2.00513
-1.89994
-1.83161
-2.57394
-2.5655
-2.54873
-2.52382
-2.49106
-2.45083
-2.40357
-2.34973
-2.28972
-2.22371
-2.15134
-2.07109
-1.97894
-1.86333
-1.67122
-2.56349
-2.55502
-2.53818
-2.51313
-2.48015
-2.43956
-2.39175
-2.33714
-2.27609
-2.20887
-2.1355
-2.05562
-1.96891
-1.87857
-1.81457
-2.55879
-2.55023
-2.53319
-2.50782
-2.47438
-2.43316
-2.38452
-2.32886
-2.2666
-2.19817
-2.12403
-2.04477
-1.96128
-1.87423
-1.77343
-2.55991
-2.55119
-2.53384
-2.50799
-2.47387
-2.43178
-2.38203
-2.32504
-2.26126
-2.19128
-2.11598
-2.03672
-1.956
-1.87815
-1.80843
-2.56694
-2.55802
-2.54024
-2.51376
-2.47878
-2.43556
-2.38444
-2.32578
-2.26007
-2.18797
-2.11052
-2.02955
-1.94861
-1.87514
-1.82641
-2.58004
-2.57086
-2.55257
-2.5253
-2.48927
-2.44471
-2.39193
-2.33128
-2.26318
-2.18822
-2.10736
-2.02225
-1.9359
-1.85366
-1.78528
-2.59938
-2.58989
-2.57098
-2.5428
-2.50553
-2.45943
-2.40476
-2.34181
-2.2709
-2.19243
-2.10699
-2.01567
-1.92021
-1.82126
-1.69974
-2.62518
-2.61533
-2.59571
-2.56646
-2.5278
-2.47996
-2.42319
-2.35773
-2.28374
-2.20133
-2.11058
-2.01185
-1.90682
-1.80323
-1.74411
-2.65768
-2.64742
-2.62699
-2.59654
-2.5563
-2.50654
-2.44752
-2.37943
-2.30229
-2.21587
-2.11955
-2.01227
-1.8923
-1.75304
-1.53926
-2.69718
-2.68645
-2.66508
-2.63327
-2.59128
-2.53943
-2.47802
-2.40727
-2.32715
-2.23716
-2.136
-2.02137
-1.89105
-1.7533
-1.69814
-2.744
-2.73273
-2.7103
-2.67694
-2.63297
-2.57881
-2.51486
-2.44147
-2.35871
-2.26604
-2.16167
-2.04123
-1.89482
-1.69493
-1.31265
-2.79852
-2.78662
-2.76297
-2.72783
-2.68162
-2.62485
-2.55813
-2.48204
-2.39701
-2.30292
-2.19835
-2.07901
-1.93561
-1.76193
-1.68198
-2.86117
-2.84855
-2.82348
-2.78628
-2.73746
-2.67767
-2.60776
-2.52868
-2.44147
-2.34694
-2.24515
-2.13336
-1.99731
-1.76255
-0.98157
-2.93245
-2.919
-2.89229
-2.85268
-2.80078
-2.73739
-2.66361
-2.58084
-2.49086
-2.39586
-2.29876
-2.20442
-2.12744
-2.1412
-2.70629
-3.01294
-2.99853
-2.96991
-2.92749
-2.87194
-2.80419
-2.72557
-2.63788
-2.54359
-2.44611
-2.3503
-2.26332
-2.19441
-2.13577
-1.86191
-3.1033
-3.08779
-3.05699
-3.0113
-2.95143
-2.87841
-2.79369
-2.69937
-2.5984
-2.49506
-2.39558
-2.30955
-2.25415
-2.27855
-2.64329
-3.20431
-3.18756
-3.15426
-3.10483
-3.03994
-2.96062
-2.86836
-2.76533
-2.65473
-2.54118
-2.4314
-2.33438
-2.25834
-2.1838
-1.86782
-3.31683
-3.2987
-3.26262
-3.20896
-3.13833
-3.05168
-2.95036
-2.83644
-2.71296
-2.58456
-2.45821
-2.34454
-2.26138
-2.25551
-2.57237
-3.44181
-3.42218
-3.38306
-3.32475
-3.24774
-3.15279
-3.041
-2.91404
-2.77449
-2.62637
-2.47608
-2.33338
-2.21065
-2.10191
-1.80321
-3.58031
-3.55907
-3.51669
-3.45339
-3.36949
-3.26547
-3.14204
-3.00026
-2.84182
-2.66958
-2.48854
-2.30825
-2.15008
-2.07904
-2.37603
-3.73343
-3.71051
-3.66474
-3.59622
-3.50508
-3.39151
-3.2557
-3.09792
-2.91862
-2.71876
-2.50036
-2.26765
-2.02889
-1.79945
-1.61123
-3.90235
-3.87772
-3.82847
-3.75462
-3.65613
-3.53286
-3.38449
-3.21039
-3.00958
-2.78068
-2.52198
-2.23113
-1.90112
-1.49007
-0.71847
-4.08825
-4.06189
-4.00917
-3.93002
-3.82427
-3.69154
-3.53102
-3.34128
-3.11992
-2.86318
-2.5658
-2.2217
-1.82951
-1.4299
-1.37504
-4.29234
-4.26427
-4.20811
-4.12377
-4.01104
-3.86938
-3.69772
-3.49403
-3.25469
-2.97377
-2.64195
-2.24554
-1.76294
-1.12919
0.0862434
-4.51582
-4.48604
-4.42649
-4.33712
-4.21777
-4.06795
-3.88656
-3.67139
-3.41824
-3.11958
-2.76281
-2.32914
-1.80123
-1.23129
-1.22138
-4.75985
-4.72837
-4.66547
-4.57119
-4.44555
-4.28831
-4.09875
-3.87503
-3.61326
-3.30562
-2.93697
-2.47806
-1.86859
-0.943415
1.08564
-5.02564
-4.99242
-4.92612
-4.82693
-4.69515
-4.53103
-4.33454
-4.10497
-3.84002
-3.53393
-3.1737
-2.73143
-2.15509
-1.42104
-1.28067
-5.31438
-5.27935
-5.20949
-5.1052
-4.96712
-4.7961
-4.59319
-4.35938
-4.09524
-3.79972
-3.46727
-3.0778
-2.55101
-1.48536
2.52796
-5.62735
-5.59036
-5.51666
-5.40683
-5.26185
-5.08323
-4.87318
-4.63476
-4.37215
-4.09106
-3.80034
-3.51944
-3.32104
-3.59568
-6.8121
-5.9659
-5.92677
-5.84883
-5.73276
-5.57983
-5.39208
-5.17276
-4.92683
-4.66178
-4.389
-4.12647
-3.9037
-3.76249
-3.66227
-2.45456
-6.33151
-6.29003
-6.20736
-6.0842
-5.92188
-5.72276
-5.49073
-5.23209
-4.95668
-4.67971
-4.42491
-4.23123
-4.17541
-4.49708
-6.51372
-6.72584
-6.68179
-6.59392
-6.46273
-6.28941
-6.07618
-5.82708
-5.54889
-5.25257
-4.95495
-4.68081
-4.46297
-4.32611
-4.15412
-2.72195
-7.15065
-7.1039
-7.01044
-6.87044
-6.68454
-6.45442
-6.18352
-5.87821
-5.54926
-5.21379
-4.89753
-4.6384
-4.50116
-4.68553
-6.38678
-7.60782
-7.55836
-7.4592
-7.30991
-7.1103
-6.86089
-6.56378
-6.22384
-5.8504
-5.45922
-5.07449
-4.72912
-4.45281
-4.16286
-2.78557
-8.09923
-8.04726
-7.94266
-7.78423
-7.57055
-7.3004
-6.97369
-6.59266
-6.16377
-5.7001
-5.22405
-4.77183
-4.41389
-4.39457
-6.03101
-8.62665
-8.57261
-8.4634
-8.29684
-8.06991
-7.77911
-7.42123
-6.99462
-6.50123
-5.94948
-5.357
-4.74899
-4.13977
-3.4758
-2.61329
-9.1915
-9.13617
-9.02387
-8.85128
-8.61353
-8.3043
-7.91642
-7.44288
-6.87913
-6.22707
-5.50066
-4.72692
-3.90359
-2.69427
1.40169
-9.79468
-9.73922
-9.62611
-9.4509
-9.20668
-8.88404
-8.47101
-7.9537
-7.31827
-6.55623
-5.67709
-4.73923
-3.93541
-3.91673
-7.48508
-10.4363
-10.3822
-10.2714
-10.0983
-9.85422
-9.52646
-9.09793
-8.54646
-7.84527
-6.96661
-5.89422
-4.6584
-3.42194
-2.64589
-3.10877
-11.1153
-11.0645
-10.9598
-10.795
-10.5598
-10.2388
-9.81014
-9.24311
-8.49544
-7.51145
-6.22475
-4.57793
-2.5888
-0.512399
0.942837
-11.8296
-11.7841
-11.6899
-11.5405
-11.3247
-11.0258
-10.6184
-10.0651
-9.30965
-8.26639
-6.80527
-4.7351
-1.81631
2.05472
6.00175
-12.5753
-12.5374
-12.4584
-12.332
-12.1474
-11.8879
-11.5279
-11.0275
-10.3236
-9.31144
-7.80864
-5.48148
-1.70516
4.57131
13.7984
-13.3474
-13.319
-13.2596
-13.1638
-13.022
-12.8199
-12.5347
-12.1311
-11.5515
-10.6971
-9.38441
-7.2341
-3.33026
5.04112
27.9994
-158.639
-95.3582
-66.6972
-53.0071
-45.6765
-41.299
-38.455
-36.4941
-35.0882
-34.0578
-33.2979
-32.7444
-32.3572
-32.1111
-31.9915
-197.261
-89.2286
-59.2626
-47.714
-41.9217
-38.4806
-36.2155
-34.6278
-33.4719
-32.6136
-31.9741
-31.5046
-31.1742
-30.9633
-30.8606
50.7764
-28.8803
-39.0381
-38.4233
-36.5339
-34.8453
-33.5055
-32.4615
-31.6487
-31.0174
-30.5322
-30.168
-29.9079
-29.7404
-29.6583
-7.56145
-16.7942
-26.2945
-30.0175
-31.0065
-30.9677
-30.5898
-30.1345
-29.6994
-29.3197
-29.0059
-28.7591
-28.5773
-28.4579
-28.3988
27.8042
-4.52132
-17.5629
-23.5102
-26.1927
-27.3255
-27.7279
-27.7932
-27.7116
-27.5762
-27.433
-27.3049
-27.2033
-27.1335
-27.0982
-1.67903
-5.63906
-13.7577
-19.27
-22.455
-24.1903
-25.0999
-25.5538
-25.761
-25.8378
-25.8494
-25.8322
-25.8069
-25.7851
-25.7729
12.0636
-3.86791
-11.7623
-16.646
-19.7237
-21.6286
-22.7881
-23.4856
-23.9008
-24.1447
-24.2856
-24.365
-24.4081
-24.4299
-24.4389
-3.61115
-7.67711
-11.8577
-15.2759
-17.807
-19.5842
-20.7971
-21.6134
-22.1593
-22.5231
-22.7645
-22.9229
-23.0238
-23.0834
-23.1111
-16.4649
-11.4057
-12.4825
-14.5219
-16.4136
-17.9315
-19.0815
-19.9289