/*--------------------------------*- C++ -*----------------------------------*\
| =========                 |                                                 |
| \\      /  F ield         | OpenFOAM: The Open Source CFD Toolbox           |
|  \\    /   O peration     | Version:  5.x                                   |
|   \\  /    A nd           | Web:      www.OpenFOAM.org                      |
|    \\/     M anipulation  |                                                 |
\*---------------------------------------------------------------------------*/
FoamFile
{
    version     2.0;
    format      ascii;
    class       volScalarField;
    location    "13.9";
    object      gradTx;
}
// * * * * * * * * * * * * * * * * * * * * * * * * * * * * * * * * * * * * * //

dimensions      [0 -1 0 1 0 0 0];

internalField   nonuniform List<scalar> 
2048
(
0.00630493
0.0187343
0.0306386
0.0417201
0.0517497
0.0605782
0.0681351
0.0744184
0.0794776
0.0833956
0.0862723
0.0882118
0.0893163
0.0896824
0.0894027
0.0885663
0.0872601
0.0855675
0.0835664
0.0813252
0.0788998
0.0763308
0.0736431
0.0708468
0.0679396
0.0649095
0.061737
0.0583963
0.0548568
0.0510824
0.047033
0.0426649
0.0379329
0.0327925
0.0272018
0.0211231
0.0145244
0.00737926
-0.000331748
-0.00862034
-0.0174881
-0.0269226
-0.0368926
-0.0473407
-0.0581753
-0.0692617
-0.0804126
-0.0913811
-0.101856
-0.111464
-0.119782
-0.12636
-0.130753
-0.13257
-0.131512
-0.127416
-0.120277
-0.110248
-0.0976156
-0.0827651
-0.0661297
-0.0481503
-0.0292469
-0.0098074
0.0187884
0.0558179
0.0912565
0.124206
0.153979
0.180137
0.202479
0.221013
0.235901
0.247401
0.255819
0.261468
0.264653
0.265659
0.264759
0.262214
0.258284
0.253216
0.247243
0.240571
0.233368
0.225752
0.217798
0.209534
0.200949
0.192008
0.18265
0.1728
0.162365
0.151241
0.139306
0.12643
0.112478
0.0973158
0.0808192
0.0628758
0.0433898
0.0222831
-0.000503036
-0.025005
-0.0512306
-0.0791476
-0.108669
-0.139632
-0.171774
-0.204703
-0.237872
-0.270555
-0.30183
-0.330584
-0.355547
-0.375359
-0.388674
-0.39429
-0.391297
-0.379193
-0.357963
-0.328074
-0.290413
-0.246152
-0.196609
-0.143109
-0.0869052
-0.0291382
0.03114
0.092483
0.151106
0.205486
0.254473
0.297353
0.333828
0.363955
0.388045
0.406565
0.420044
0.429012
0.43397
0.435383
0.433689
0.429317
0.422688
0.414216
0.40429
0.393256
0.381391
0.368895
0.355884
0.342397
0.328412
0.313862
0.298647
0.282641
0.265694
0.247632
0.228255
0.207345
0.184677
0.160027
0.133186
0.103969
0.0722184
0.0378053
0.000630906
-0.0393697
-0.082218
-0.127875
-0.176216
-0.226996
-0.279808
-0.334038
-0.388813
-0.442959
-0.494965
-0.542988
-0.584898
-0.618384
-0.641136
-0.651076
-0.646611
-0.626863
-0.591802
-0.542254
-0.47977
-0.40639
-0.324373
-0.235961
-0.143224
-0.0480091
0.0435996
0.129426
0.211274
0.28694
0.354797
0.413873
0.463824
0.50482
0.537389
0.562256
0.580208
0.592003
0.598334
0.599831
0.597084
0.590672
0.581177
0.569181
0.555236
0.539837
0.523378
0.506135
0.48826
0.469794
0.450691
0.430848
0.410119
0.38833
0.365276
0.340717
0.314373
0.285938
0.255089
0.22151
0.184906
0.145018
0.101628
0.0545583
0.00366984
-0.0511365
-0.109908
-0.172615
-0.239122
-0.309133
-0.382137
-0.45734
-0.533589
-0.609302
-0.682408
-0.750332
-0.810044
-0.858205
-0.89142
-0.906594
-0.90133
-0.874292
-0.825434
-0.756014
-0.668381
-0.565593
-0.450974
-0.327745
-0.198793
-0.0666106
0.056383
0.167269
0.272722
0.369771
0.456286
0.531069
0.593799
0.644854
0.685072
0.715512
0.737261
0.751321
0.758568
0.759773
0.755652
0.746921
0.734318
0.7186
0.700502
0.680678
0.659651
0.637773
0.615221
0.592022
0.568092
0.543277
0.517385
0.490196
0.461455
0.430858
0.398048
0.36262
0.32415
0.282218
0.23644
0.186485
0.132078
0.072994
0.00905364
-0.0598814
-0.133896
-0.212996
-0.297061
-0.385785
-0.4786
-0.574588
-0.672373
-0.770019
-0.86493
-0.953801
-1.03265
-1.09699
-1.14217
-1.16387
-1.15868
-1.1247
-1.06185
-0.971945
-0.85833
-0.725316
-0.577483
-0.419134
-0.253975
-0.085056
0.069695
0.206599
0.336342
0.455074
0.560122
0.65011
0.724842
0.785033
0.831953
0.867091
0.891892
0.907612
0.915289
0.9158
0.909953
0.898576
0.882563
0.862862
0.840412
0.816056
0.790457
0.764043
0.737004
0.709328
0.68087
0.651412
0.62071
0.588506
0.554502
0.518338
0.479577
0.437708
0.392191
0.342494
0.288137
0.228715
0.163901
0.0934321
0.0170905
-0.0653059
-0.153895
-0.24874
-0.349772
-0.456719
-0.569011
-0.685668
-0.805167
-0.925288
-1.04296
-1.15417
-1.25391
-1.33641
-1.39553
-1.42543
-1.42143
-1.38086
-1.30358
-1.19214
-1.05119
-0.886625
-0.704542
-0.510466
-0.308917
-0.103385
0.0837397
0.247997
0.403004
0.543882
0.667383
0.772013
0.857845
0.9261
0.978642
1.01751
1.04456
1.06132
1.06895
1.06837
1.06043
1.04605
1.02628
1.00227
0.975212
0.946172
0.915973
0.885122
0.853797
0.821918
0.789244
0.755475
0.720312
0.683467
0.64462
0.603367
0.559183
0.511443
0.459468
0.402599
0.340251
0.271948
0.197323
0.116082
0.027978
-0.0672181
-0.169711
-0.279648
-0.397049
-0.521724
-0.653158
-0.790387
-0.931824
-1.07506
-1.21664
-1.35184
-1.47462
-1.57774
-1.65327
-1.69349
-1.69204
-1.64522
-1.55282
-1.41832
-1.24811
-1.05014
-0.832386
-0.601756
-0.363564
-0.121567
0.0987288
0.292059
0.473583
0.637212
0.779079
0.897677
0.993533
1.0686
1.12553
1.16706
1.19554
1.21273
1.21985
1.21782
1.20744
1.18968
1.16575
1.13705
1.10508
1.07116
1.03632
1.00113
0.965751
0.929968
0.893408
0.855661
0.816371
0.775243
0.731962
0.686093
0.637027
0.584
0.52617
0.462725
0.392965
0.316349
0.232482
0.141061
0.0418191
-0.0655177
-0.181236
-0.305594
-0.438742
-0.580616
-0.730823
-0.88849
-1.05207
-1.21909
-1.38579
-1.54687
-1.69517
-1.82185
-1.91682
-1.96997
-1.97276
-1.92006
-1.81151
-1.65187
-1.44985
-1.21608
-0.960866
-0.692711
-0.417661
-0.139505
0.114888
0.339415
0.548989
0.736084
0.896183
1.0279
1.13248
1.21288
1.27281
1.31585
1.34491
1.36196
1.36821
1.36442
1.35129
1.32977
1.30123
1.2674
1.23012
1.19108
1.15155
1.11216
1.07298
1.03364
0.993542
0.952147
0.909042
0.863958
0.816628
0.766616
0.71322
0.655508
0.592438
0.523014
0.446406
0.362015
0.269444
0.168405
0.0586347
-0.060185
-0.188436
-0.326519
-0.474751
-0.633248
-0.801792
-0.979688
-1.16554
-1.35695
-1.55005
-1.73901
-1.91566
-2.0693
-2.18733
-2.25663
-2.26575
-2.20758
-2.08149
-1.89394
-1.65681
-1.38424
-1.08945
-0.782738
-0.470766
-0.157037
0.132463
0.390747
0.63019
0.841551
1.01964
1.16341
1.27513
1.35913
1.42047
1.46379
1.4926
1.50903
1.51414
1.50839
1.49224
1.46656
1.43293
1.39343
1.3504
1.30597
1.26168
1.21825
1.1756
1.13307
1.08982
1.04511
0.998461
0.949701
0.898676
0.844985
0.787826
0.726055
0.658379
0.583572
0.500658
0.408993
0.308213
0.198086
0.0783743
-0.0512715
-0.191345
-0.342424
-0.505036
-0.679514
-0.865875
-1.06368
-1.27181
-1.4881
-1.70878
-1.92774
-2.1358
-2.32033
-2.46573
-2.55509
-2.57314
-2.50999
-2.36452
-2.14548
-1.86905
-1.55402
-1.21724
-0.870955
-0.522258
-0.173941
0.151727
0.446802
0.718224
0.95471
1.15039
1.30484
1.4218
1.50737
1.56833
1.61062
1.6384
1.65386
1.65771
1.64992
1.63054
1.60032
1.56103
1.51526
1.46595
1.41578
1.36668
1.31942
1.27368
1.22843
1.18244
1.13471
1.08475
1.03253
0.978122
0.92121
0.860874
0.7957
0.724073
0.64448
0.555772
0.457288
0.348743
0.230012
0.100924
-0.0388914
-0.190058
-0.353369
-0.529607
-0.719364
-0.922924
-1.14017
-1.37041
-1.6119
-1.86122
-2.11225
-2.35501
-2.57486
-2.75267
-2.86687
-2.89712
-2.82961
-2.66237
-2.40725
-2.08629
-1.72443
-1.34295
-0.956206
-0.571359
-0.189945
0.172982
0.508406
0.814222
1.07672
1.28937
1.45277
1.57266
1.65746
1.71605
1.75594
1.782
1.79629
1.79893
1.78917
1.76647
1.7313
1.68572
1.63296
1.57673
1.52043
1.46646
1.41564
1.3673
1.31986
1.27158
1.22115
1.16803
1.11248
1.05494
0.995259
0.932365
0.864483
0.789589
0.705807
0.611784
0.506872
0.390945
0.264046
0.126116
-0.0232143
-0.18472
-0.359463
-0.548532
-0.752802
-0.972848
-1.20894
-1.46089
-1.72763
-2.0064
-2.29148
-2.57239
-2.83246
-3.04859
-3.19341
-3.23998
-3.16899
-2.97693
-2.67984
-2.30786
-1.89402
-1.46495
-1.03709
-0.617151
-0.204733
0.196567
0.57647
0.91942
1.20881
1.43751
1.60768
1.72779
1.80908
1.86308
1.89918
1.92295
1.9361
1.9378
1.92635
1.9003
1.85977
1.80718
1.7466
1.68268
1.61978
1.5609
1.5069
1.45656
1.40755
1.3575
1.30465
1.24842
1.18955
1.12906
1.06706
1.00227
0.932427
0.854989
0.76762
0.668713
0.557696
0.434695
0.300002
0.153732
-0.00445775
-0.175522
-0.360861
-0.561928
-0.7799
-1.01563
-1.26978
-1.54283
-1.83458
-2.14329
-2.46415
-2.78671
-3.09239
-3.35361
-3.53605
-3.60421
-3.53097
-3.3102
-2.96366
-2.53269
-2.06089
-1.58124
-1.11198
-0.658617
-0.217962
0.222863
0.652009
1.03516
1.35228
1.59571
1.76998
1.8871
1.96179
2.00875
2.03964
2.06074
2.07302
2.07432
2.06164
2.03237
1.98604
1.92558
1.8562
1.78371
1.71364
1.64983
1.59312
1.54153
1.4917
1.44045
1.38544
1.32604
1.2637
1.20036
1.13652
1.07055
0.999547
0.920337
0.829994
0.726577
0.609686
0.479839
0.337659
0.183511
0.0171193
-0.16269
-0.35775
-0.569958
-0.800792
-1.05133
-1.32263
-1.61591
-1.93206
-2.27076
-2.62879
-2.99644
-3.35352
-3.66757
-3.89602
-3.9925
-3.91883
-3.66446
-3.25895
-2.75923
-2.2227
-1.6895
-1.1791
-0.694677
-0.229274
0.252295
0.736137
1.16292
1.50853
1.76488
1.93997
2.05041
2.11499
2.15221
2.17649
2.19479
2.2068
2.20849
2.19531
2.16309
2.11043
2.04111
1.96182
1.8797
1.80179
1.73304
1.67425
1.62232
1.57254
1.52075
1.46383
1.40102
1.33486
1.26868
1.20349
1.13715
1.06586
0.985708
0.893022
0.785397
0.662753
0.526199
0.376764
0.215154
0.0412225
-0.146476
-0.35034
-0.572821
-0.815676
-1.0801
-1.36748
-1.67987
-2.01944
-2.38766
-2.78375
-3.19972
-3.61436
-3.98994
-4.27437
-4.4078
-4.33647
-4.04231
-3.56569
-2.98538
-2.37656
-1.78714
-1.23656
-0.724242
-0.238318
0.285346
0.830078
1.3043
1.67904
1.94588
2.1178
2.21743
2.26797
2.29245
2.30876
2.32446
2.33717
2.3403
2.32764
2.29291
2.23332
2.15394
2.06348
1.97049
1.88391
1.81025
1.75022
1.69908
1.65032
1.59875
1.54019
1.47352
1.40292
1.33378
1.2678
1.202
1.13136
1.05119
0.956827
0.845198
0.71679
0.573579
0.417039
0.248326
0.0675271
-0.127148
-0.338853
-0.570741
-0.82481
-1.10218
-1.40445
-1.73462
-2.09622
-2.49285
-2.92723
-3.39443
-3.87303
-4.31976
-4.67189
-4.85337
-4.78853
-4.44679
-3.88353
-3.20838
-2.5191
-1.87132
-1.28246
-0.746273
-0.24477
0.322566
0.935158
1.461
1.86544
2.13948
2.30349
2.38775
2.41989
2.42832
2.43539
2.4491
2.46392
2.46976
2.45895
2.42243
2.35512
2.26424
2.16125
2.05593
1.95965
1.88113
1.82094
1.77197
1.7253
1.67485
1.61496
1.5437
1.46768
1.39535
1.32926
1.26507
1.19606
1.11687
1.02158
0.906013
0.771666
0.62177
0.458185
0.282662
0.095682
-0.104982
-0.323504
-0.563956
-0.828507
-1.11791
-1.43377
-1.78018
-2.16207
-2.58528
-3.05733
-3.57816
-4.12727
-4.65562
-5.08892
-5.33271
-5.28069
-4.88148
-4.21167
-3.42469
-2.64644
-1.93907
-1.31497
-0.75984
-0.248354
0.364592
1.0528
1.63485
2.06947
2.34637
2.49682
2.56094
2.56986
2.55852
2.55517
2.56807
2.58689
2.59686
2.5896
2.55238
2.47625
2.37211
2.25519
2.13584
2.02857
1.94529
1.88634
1.84121
1.79775
1.74948
1.68871
1.61174
1.52888
1.453
1.38765
1.32633
1.25995
1.18287
1.08751
0.967884
0.827218
0.670561
0.499893
0.317762
0.125311
-0.0802554
-0.30449
-0.552703
-0.827129
-1.12772
-1.45576
-1.81672
-2.21687
-2.66401
-3.1721
-3.74827
-4.3745
-4.99559
-5.52518
-5.84959
-5.81999
-5.35067
-4.54863
-3.62981
-2.7542
-1.9874
-1.33241
-0.764184
-0.248859
0.41219
1.18449
1.82775
2.2931
2.56709
2.69731
2.73653
2.71693
2.68157
2.66677
2.68076
2.70609
2.72151
2.71995
2.68368
2.59715
2.47756
2.34547
2.21008
2.09013
2.00224
1.9464
1.90713
1.8679
1.82311
1.76216
1.67787
1.58613
1.50622
1.44276
1.38583
1.32298
1.24929
1.15494
1.03086
0.883235
0.719754
0.54185
0.353194
0.156017
-0.0532345
-0.281973
-0.537202
-0.821081
-1.13213
-1.47085
-1.84459
-2.26077
-2.72828
-3.26953
-3.90188
-4.61184
-5.33724
-5.97946
-6.40788
-6.41521
-5.85951
-4.89197
-3.81814
-2.83756
-2.01339
-1.3334
-0.758772
-0.246157
0.466318
1.33175
2.04164
2.53859
2.80192
2.90408
2.91416
2.86018
2.79585
2.76873
2.78665
2.8217
2.84351
2.85034
2.81754
2.71823
2.58047
2.43235
2.27852
2.14369
2.0514
2.00108
1.97015
1.93589
1.89618
1.83626
1.74234
1.63893
1.5544
1.49438
1.44372
1.38505
1.31623
1.22435
1.09497
0.939428
0.769182
0.583751
0.388486
0.187375
-0.0241733
-0.25606
-0.517642
-0.810804
-1.13178
-1.47948
-1.86422
-2.29426
-2.77754
-3.34765
-4.03595
-4.83625
-5.6777
-6.44923
-7.01138
-7.0775
-6.41419
-5.23786
-3.98283
-2.89142
-2.0144
-1.31693
-0.743343
-0.240216
0.528239
1.4961
2.27837
2.80866
3.05085
3.11572
3.09372
2.99873
2.8995
2.85943
2.88532
2.93427
2.96245
2.98102
2.9556
2.83982
2.68044
2.51629
2.34108
2.18849
2.09207
2.05044
2.03092
2.00174
1.96911
1.91226
1.80543
1.68656
1.59676
1.54234
1.50028
1.44594
1.38373
1.29639
1.16024
0.995389
0.818747
0.625309
0.423119
0.218941
0.00669152
-0.226791
-0.494162
-0.796771
-1.12741
-1.48213
-1.87614
-2.31824
-2.81152
-3.40447
-4.14721
-5.04462
-6.01384
-6.93012
-7.66348
-7.82112
-7.02218
-5.58053
-4.11556
-2.9105
-1.98823
-1.28245
-0.717933
-0.231103
0.599705
1.67892
2.53959
3.10677
3.31341
3.33013
3.27551
3.1318
2.99044
2.93703
2.97648
3.04479
3.07751
3.11206
3.10012
2.96212
2.7767
2.59808
2.39778
2.22355
2.12339
2.09458
2.09037
2.06519
2.04219
1.99183
1.86741
1.72809
1.63238
1.58649
1.55607
1.50527
1.45175
1.37203
1.22662
1.05054
0.868471
0.666262
0.456513
0.250241
0.0391415
-0.194117
-0.466838
-0.779475
-1.11989
-1.47924
-1.88089
-2.3341
-2.83023
-3.4381
-4.23223
-5.23395
-6.3426
-7.41526
-8.36667
-8.66448
-7.69245
-5.91143
-4.20656
-2.88965
-1.93326
-1.22994
-0.682894
-0.218984
0.683242
1.88138
2.82649
3.43742
3.5885
3.54417
3.46062
3.25876
3.06627
2.9995
3.06001
3.15497
3.1873
3.24325
3.25426
3.08506
2.86789
2.67904
2.44871
2.24772
2.14432
2.13369
2.14987
2.12558
2.11553
2.07728
1.92856
1.76229
1.66015
1.62675
1.61201
1.56235
1.52012
1.45268
1.29398
1.10403
0.918571
0.70638
0.488009
0.280782
0.0729725
-0.157884
-0.435663
-0.759424
-1.11031
-1.47112
-1.87892
-2.34383
-2.834
-3.4467
-4.28727
-5.40148
-6.66153
-7.89452
-9.12176
-9.63153
-8.4357
-6.21824
-4.24452
-2.82412
-1.8487
-1.15996
-0.638875
-0.204114
0.78259
2.10424
3.13949
3.80677
3.87416
3.75339
3.65131
3.37907
3.12426
3.04453
3.13591
3.26757
3.28956
3.3739
3.42248
3.20816
2.95181
2.76125
2.49401
2.25955
2.15361
2.168
2.21146
2.18169
2.18892
2.17175
1.98905
1.78757
1.67876
1.66311
1.66954
1.61608
1.58841
1.54034
1.36201
1.15468
0.969577
0.745463
0.516839
0.310053
0.107986
-0.117812
-0.400537
-0.737113
-1.09999
-1.45792
-1.87043
-2.35023
-2.82344
-3.42858
-4.30827
-5.54482
-6.96964
-8.35348
-9.92677
-10.7535
-9.26456
-6.48344
-4.21684
-2.71001
-1.73468
-1.07367
-0.5868
-0.186825
0.903341
2.34763
3.4777
4.2234
4.16721
3.95148
3.85165
3.49229
3.1612
3.06949
3.20423
3.38684
3.38075
3.50261
3.61114
3.33032
3.0251
2.84796
2.53387
2.25727
2.14977
2.19773
2.2781
2.23143
2.26167
2.27957
2.04887
1.80195
1.68672
1.69556
1.7309
1.66475
1.65587
1.63795
1.43014
1.20076
1.02249
0.78332
0.542102
0.337543
0.143975
-0.0734784
-0.361255
-0.712995
-1.09065
-1.43953
-1.8552
-2.35704
-2.79939
-3.38223
-4.29063
-5.66198
-7.2686
-8.77234
-10.7755
-12.0712
-10.1938
-6.68265
-4.11004
-2.5447
-1.59242
-0.972735
-0.527814
-0.16751
1.05385
2.61075
3.83827
4.69934
4.46287
4.1297
4.06833
3.59782
3.17337
3.07146
3.26493
3.51914
3.45558
3.62698
3.82919
3.44948
3.0828
2.94412
2.56835
2.23874
2.13108
2.22304
2.35412
2.27156
2.33241
2.40668
2.10761
1.80296
1.68234
1.72404
1.79942
1.70576
1.72126
1.74964
1.49737
1.23989
1.07898
0.81973
0.56272
0.362765
0.180694
-0.02429
-0.317511
-0.687424
-1.08449
-1.41548
-1.83231
-2.3693
-2.76282
-3.30643
-4.22899
-5.75127
-7.56444
-9.12458
-11.6555
-13.6381
-11.2404
-6.7824
-3.91053
-2.32734
-1.42423
-0.859318
-0.463226
-0.146593
1.24647
2.89149
4.21548
5.2515
4.75415
4.27609
4.31169
3.69465
3.1565
3.04724
3.31761
3.67376
3.50636
3.74318
4.08914
3.56227
3.1178
3.05703
2.59723
2.20139
2.09557
2.2438
2.44572
2.29727
2.39886
2.5612
2.16425
1.78765
1.66381
1.74831
1.87991
1.73536
1.78265
1.88126
1.56212
1.26878
1.14171
0.854363
0.577396
0.385299
0.217826
0.0305401
-0.268905
-0.660569
-1.08444
-1.38489
-1.7998
-2.39372
-2.71458
-3.20044
-4.11702
-5.81093
-7.8697
-9.37559
-12.5456
-15.5237
-12.4233
-6.73756
-3.6058
-2.05935
-1.23349
-0.735935
-0.394436
-0.124517
1.49923
3.1859
4.59947
5.90348
5.03113
4.37454
4.59718
3.78088
3.10569
2.99338
3.36105
3.86394
3.52225
3.84547
4.40827
3.66345
3.12024
3.19725
2.61967
2.14223
2.04108
2.25934
2.56166
2.30165
2.45746
2.75414
2.21671
1.75255
1.62927
1.76775
1.97924
1.74817
1.83722
2.04088
1.62195
1.28297
1.21467
0.886661
0.584578
0.404853
0.254926
0.0920282
-0.214978
-0.632281
-1.09436
-1.34637
-1.75423
-2.43916
-2.65512
-3.06427
-3.9471
-5.83848
-8.20631
-9.48108
-13.4122
-17.8183
-13.7635
-6.48818
-3.18623
-1.74483
-1.02455
-0.605332
-0.322867
-0.101717
1.83791
3.48763
4.97476
6.68785
5.28003
4.40369
4.947
3.85289
3.01549
2.90639
3.39259
4.10825
3.48828
3.92556
4.81011
3.74527
3.0767
3.37971
2.63371
2.05784
1.96537
2.26801
2.71415
2.2751
2.50305
3.00024
2.2614
1.69376
1.57691
1.78098
2.107
1.73681
1.88094
2.23955
1.67325
1.27654
1.30366
0.915656
0.58241
0.421342
0.291351
0.161465
-0.155266
-0.601917
-1.11936
-1.298
-1.69017
-2.51729
-2.58398
-2.89904
-3.71004
-5.82959
-8.60901
-9.38555
-14.2057
-20.6381
-15.2833
-5.95595
-2.64745
-1.39075
-0.802487
-0.470331
-0.249894
-0.078602
2.29875
3.78715
5.31836
7.64889
5.48211
4.33558
5.39221
3.9044
2.87999
2.78296
3.40725
4.43218
3.38432
3.97189
5.32614
3.7967
2.96935
3.6251
2.63562
1.94445
1.86629
2.26663
2.91985
2.20465
2.52841
3.31906
2.29246
1.60703
1.50517
1.78544
2.27631
1.69123
1.90825
2.49204
1.71083
1.24175
1.41686
0.939714
0.568714
0.435003
0.32616
0.240474
-0.0893978
-0.568089
-1.16616
-1.2373
-1.59951
-2.64343
-2.49919
-2.70751
-3.39488
-5.77648
-9.12949
-9.02082
-14.8556
-24.1315
-17.0051
-5.04009
-1.99352
-1.00696
-0.572822
-0.333682
-0.176787
-0.0555436
2.93165
4.07092
5.59751
8.84594
5.61227
4.13423
5.97525
3.925
2.69308
2.62034
3.39651
4.8701
3.1838
3.96879
5.99786
3.80244
2.77498
3.96145
2.61898
1.79811
1.74198
2.24973
3.20123
2.07308
2.52374
3.73617
2.30096
1.48797
1.41299
1.77675
2.50481
1.59813
1.91171
2.81785
1.72745
1.16868
1.56546
0.956202
0.540968
0.446518
0.357996
0.331095
-0.0172316
-0.528354
-1.24347
-1.16124
-1.47067
-2.83751
-2.39632
-2.49475
-2.98876
-5.66563
-9.84122
-8.30459
-15.2643
-28.4861
-18.9507
-3.61291
-1.24083
-0.605812
-0.341146
-0.197925
-0.104671
-0.032863
3.80394
4.32038
5.7671
10.3571
5.63748
3.75405
6.75277
3.89844
2.44882
2.41684
3.34681
5.46751
2.85234
3.89548
6.87899
3.74185
2.4639
4.42602
2.57354
1.61493
1.59127
2.20855
3.58794
1.85804
2.47614
4.28458
2.27376
1.33233
1.30008
1.74792
2.81585
1.44022
1.88153
3.24227
1.71328
1.04479
1.76449
0.961055
0.49633
0.457183
0.384931
0.435888
0.060954
-0.478818
-1.36244
-1.06633
-1.28768
-3.12535
-2.26746
-2.26894
-2.47699
-5.47489
-10.8447
-7.13934
-15.3012
-33.9368
-21.1393
-1.51516
-0.422853
-0.201267
-0.112737
-0.06528
-0.0344943
-0.010827
)
;

boundaryField
{
    left
    {
        type            calculated;
        value           uniform 0;
    }
    right
    {
        type            calculated;
        value           uniform 0;
    }
    interface
    {
        type            calculated;
        value           nonuniform List<scalar> 
64
(
3.80394
4.32038
5.7671
10.3571
5.63748
3.75405
6.75277
3.89844
2.44882
2.41684
3.34681
5.46751
2.85234
3.89548
6.87899
3.74185
2.4639
4.42602
2.57354
1.61493
1.59127
2.20855
3.58794
1.85804
2.47614
4.28458
2.27376
1.33233
1.30008
1.74792
2.81585
1.44022
1.88153
3.24227
1.71328
1.04479
1.76449
0.961055
0.49633
0.457183
0.384931
0.435888
0.060954
-0.478818
-1.36244
-1.06633
-1.28768
-3.12535
-2.26746
-2.26894
-2.47699
-5.47489
-10.8447
-7.13934
-15.3012
-33.9368
-21.1393
-1.51516
-0.422853
-0.201267
-0.112737
-0.06528
-0.0344943
-0.010827
)
;
    }
    bottom
    {
        type            calculated;
        value           nonuniform List<scalar> 
64
(
0.00630493
0.0187343
0.0306386
0.0417201
0.0517497
0.0605782
0.0681351
0.0744184
0.0794776
0.0833956
0.0862723
0.0882118
0.0893163
0.0896824
0.0894027
0.0885663
0.0872601
0.0855675
0.0835664
0.0813252
0.0788998
0.0763308
0.0736431
0.0708468
0.0679396
0.0649095
0.061737
0.0583963
0.0548568
0.0510824
0.047033
0.0426649
0.0379329
0.0327925
0.0272018
0.0211231
0.0145244
0.00737926
-0.000331748
-0.00862034
-0.0174881
-0.0269226
-0.0368926
-0.0473407
-0.0581753
-0.0692617
-0.0804126
-0.0913811
-0.101856
-0.111464
-0.119782
-0.12636
-0.130753
-0.13257
-0.131512
-0.127416
-0.120277
-0.110248
-0.0976156
-0.0827651
-0.0661297
-0.0481503
-0.0292469
-0.0098074
)
;
    }
    defaultFaces
    {
        type            empty;
    }
}


// ************************************************************************* //
