/*--------------------------------*- C++ -*----------------------------------*\
| =========                 |                                                 |
| \\      /  F ield         | OpenFOAM: The Open Source CFD Toolbox           |
|  \\    /   O peration     | Version:  5.x                                   |
|   \\  /    A nd           | Web:      www.OpenFOAM.org                      |
|    \\/     M anipulation  |                                                 |
\*---------------------------------------------------------------------------*/
FoamFile
{
    version     2.0;
    format      ascii;
    class       volScalarField;
    location    "16.5";
    object      gradTy;
}
// * * * * * * * * * * * * * * * * * * * * * * * * * * * * * * * * * * * * * //

dimensions      [0 -1 0 1 0 0 0];

internalField   nonuniform List<scalar> 
6300
(
32284.1
32252.1
32220.1
32187.9
32155.4
32122.6
32089.5
32055.9
32021.9
31987.3
31952.2
31916.5
31880.1
31843.2
31805.7
0.0533457
0.159541
0.264211
0.366228
0.464302
0.556944
0.642443
0.718884
0.784216
0.836373
0.873464
0.894022
0.89729
0.883497
0.854055
0.0894625
0.267598
0.443305
0.614766
0.779881
0.936185
1.08081
1.21048
1.32166
1.41068
1.47412
1.50921
1.51439
1.48984
1.43788
0.126369
0.378084
0.626646
0.869652
1.10427
1.32711
1.53411
1.72058
1.88125
2.01057
2.10312
2.15432
2.16124
2.12359
2.0445
0.164296
0.491726
0.815543
1.13293
1.44045
1.73386
2.00796
2.25649
2.47221
2.64722
2.77347
2.84369
2.85267
2.79877
2.68554
0.203386
0.60898
1.01087
1.40606
1.79073
2.15994
2.50739
2.82519
3.10389
3.33264
3.49985
3.59432
3.60698
3.53328
3.37606
0.243656
0.729935
1.21291
1.68972
2.15646
2.60778
3.03646
3.43301
3.78551
4.07959
4.29898
4.42677
4.44765
4.35132
4.13727
0.284959
0.85419
1.42113
1.98345
2.53761
3.07827
3.59764
4.0849
4.52557
4.90123
5.1897
5.36615
5.40553
5.28707
5.00135
0.326949
0.980739
1.63395
2.28534
2.93228
3.57004
4.19095
4.78337
5.33063
5.81006
6.19246
6.44257
6.52125
6.39008
6.02015
0.369048
1.10787
1.84861
2.59169
3.33612
4.07867
4.81275
5.527
6.20353
6.81592
7.32749
7.69043
7.84677
7.73179
7.28029
0.410424
1.23307
2.06091
2.89669
3.74185
4.59577
5.45437
6.30836
7.14056
7.9226
8.61114
9.14482
9.44347
9.40975
8.926
0.449999
1.35308
2.2653
3.19229
4.13884
5.10818
6.10061
7.1115
8.12775
9.12277
10.0496
10.834
11.3721
11.5368
11.1768
0.486491
1.46396
2.4549
3.46832
4.51306
5.59748
6.72841
7.90927
9.13618
10.3911
11.6303
12.7693
13.6729
14.1856
14.2502
0.518496
1.56136
2.62204
3.71301
4.84762
6.04027
7.30629
8.66098
10.1166
11.6751
13.3111
14.939
16.3617
17.2743
17.7708
0.544626
1.64096
2.75889
3.91408
5.12413
6.40968
7.79551
9.31176
10.9942
12.8814
14.9999
17.3128
19.5554
20.76
18.1955
31770.8
31738.7
31706.2
31673.4
31640.3
31606.9
31573.2
31539.3
31505.2
31470.8
31436.3
31401.6
31366.8
31331.8
31296.8
31261.7
31226.6
31191.5
31156.3
31121.2
31086.2
31051.1
31016.1
30981.2
30946.2
30911.4
30876.6
30841.8
30807.1
30772.5
30738
30703.5
30669.1
30634.9
30600.7
30566.7
30532.8
30498.9
30465.2
30431.6
30398.1
30364.6
30331.3
30298
30264.9
30231.8
30198.8
30166
30133.3
30100.7
30068.2
30035.8
30003.6
29971.4
29939.4
29907.4
29875.5
29843.7
29812
29780.4
29748.9
29717.4
29686.1
29654.9
29623.8
29592.7
29561.8
29531
29500.2
29469.6
29439
29408.4
29377.9
29347.5
29317.2
29286.9
29256.6
29226.5
29196.4
29166.3
29136.3
29106.2
29076.2
29046.2
29016.2
28986.1
28955.9
28925.7
28895.3
28864.9
0.815108
0.772902
0.726172
0.677128
0.627618
0.578877
0.531397
0.484949
0.43876
0.391799
0.343128
0.292225
0.239222
0.185004
0.13114
0.0796696
0.0327641
-0.00765158
-0.0402474
-0.0645362
-0.0809767
-0.0909154
-0.0963817
-0.0997731
-0.103481
-0.109521
-0.119218
-0.133015
-0.150415
-0.170094
-0.190154
-0.208475
-0.223109
-0.232634
-0.236404
-0.234659
-0.228483
-0.219609
-0.210129
-0.202144
-0.197409
-0.197045
-0.20135
-0.209752
-0.220911
-0.232958
-0.24383
-0.251636
-0.254992
-0.253256
-0.246632
-0.23612
-0.223341
-0.210257
-0.198833
-0.190714
-0.186939
-0.187771
-0.192646
-0.200275
-0.208866
-0.216441
-0.221189
-0.221775
-0.217567
-0.20873
-0.19618
-0.181411
-0.166224
-0.152403
-0.141395
-0.134037
-0.130377
-0.129627
-0.130252
-0.130185
-0.127142
-0.118982
-0.104045
-0.0814297
-0.0511622
-0.0142541
0.0273585
0.0709762
0.113384
0.151168
0.181065
0.200343
0.207125
0.200644
1.36937
1.29541
1.21401
1.12933
1.04485
0.96282
0.88404
0.807846
0.732485
0.655695
0.575396
0.49034
0.400592
0.307729
0.214718
0.125486
0.0442543
-0.0252158
-0.080314
-0.120066
-0.145326
-0.158666
-0.163967
-0.165819
-0.168798
-0.176755
-0.192215
-0.215994
-0.247094
-0.282906
-0.319701
-0.353327
-0.379976
-0.396876
-0.402776
-0.398151
-0.385102
-0.366989
-0.347856
-0.331757
-0.322086
-0.321005
-0.329088
-0.345219
-0.366784
-0.390138
-0.411258
-0.426466
-0.433078
-0.429864
-0.417233
-0.39714
-0.372729
-0.347797
-0.32615
-0.310964
-0.304257
-0.306537
-0.316711
-0.33227
-0.349725
-0.365229
-0.37526
-0.377241
-0.369967
-0.353785
-0.330498
-0.303025
-0.274879
-0.249549
-0.229877
-0.217537
-0.212692
-0.213885
-0.218211
-0.221726
-0.220057
-0.209092
-0.185628
-0.147888
-0.0958283
-0.0312285
0.0424263
0.120243
0.196362
0.264523
0.318705
0.353818
0.366342
0.354825
1.94046
1.82863
1.70657
1.58126
1.45853
1.34209
1.23296
1.12955
1.02827
0.92465
0.814517
0.695216
0.566452
0.43067
0.292858
0.159785
0.0388119
-0.0634718
-0.142476
-0.196458
-0.22684
-0.237988
-0.236517
-0.230238
-0.226944
-0.233181
-0.253229
-0.28843
-0.336987
-0.394299
-0.453809
-0.508224
-0.550881
-0.576957
-0.584303
-0.57377
-0.549014
-0.515837
-0.48121
-0.452115
-0.43439
-0.431768
-0.445237
-0.472858
-0.510079
-0.550534
-0.587199
-0.613671
-0.625312
-0.62003
-0.59858
-0.564377
-0.522868
-0.480607
-0.444159
-0.419005
-0.408634
-0.413933
-0.43302
-0.461533
-0.493393
-0.521896
-0.540924
-0.546033
-0.535193
-0.50907
-0.470842
-0.425606
-0.37948
-0.338547
-0.307799
-0.290246
-0.28631
-0.293633
-0.307337
-0.32073
-0.326358
-0.317199
-0.287768
-0.234967
-0.158552
-0.0612419
0.0515015
0.171952
0.290801
0.398008
0.483805
0.53982
0.56018
0.542418
2.53638
2.3766
2.20381
2.02947
1.86318
1.71085
1.57366
1.44817
1.32745
1.20298
1.06684
0.913721
0.74242
0.556537
0.364177
0.176663
0.00645805
-0.135248
-0.24067
-0.306834
-0.336048
-0.335484
-0.315987
-0.290361
-0.271364
-0.269717
-0.292423
-0.341634
-0.414273
-0.502528
-0.595252
-0.680054
-0.745664
-0.784009
-0.791575
-0.769873
-0.72505
-0.666772
-0.606601
-0.556099
-0.524947
-0.519359
-0.541008
-0.586675
-0.648717
-0.716389
-0.777819
-0.822234
-0.841916
-0.833477
-0.798294
-0.742132
-0.674088
-0.605049
-0.545904
-0.505761
-0.490443
-0.501477
-0.535755
-0.585976
-0.641897
-0.692206
-0.72663
-0.737794
-0.722428
-0.681785
-0.621278
-0.54947
-0.476604
-0.412876
-0.366722
-0.343346
-0.343716
-0.364193
-0.396909
-0.430915
-0.453955
-0.454495
-0.423562
-0.356049
-0.251364
-0.113479
0.0494781
0.225969
0.402006
0.562321
0.691793
0.777163
0.808914
0.782918
3.16714
2.94329
2.7033
2.46609
2.24773
2.05779
1.89751
1.75992
1.63203
1.49813
1.34362
1.15841
0.939389
0.691733
0.428519
0.16862
-0.0669324
-0.259273
-0.395396
-0.470413
-0.488138
-0.460241
-0.404281
-0.340937
-0.2908
-0.271186
-0.29345
-0.361103
-0.46907
-0.604322
-0.748104
-0.87952
-0.979709
-1.03538
-1.04099
-0.999271
-0.920462
-0.820435
-0.718068
-0.632217
-0.578695
-0.567729
-0.602194
-0.67691
-0.779247
-0.891233
-0.99294
-1.06641
-1.09902
-1.08543
-1.02822
-0.937
-0.82674
-0.715243
-0.620286
-0.556768
-0.534305
-0.555552
-0.615532
-0.70221
-0.798484
-0.885389
-0.945832
-0.967756
-0.94606
-0.883105
-0.787986
-0.674858
-0.560567
-0.461899
-0.392844
-0.36225
-0.372167
-0.41713
-0.484622
-0.556891
-0.613951
-0.637113
-0.612032
-0.530659
-0.391981
-0.201822
0.0279665
0.280641
0.53585
0.77105
0.963288
1.09172
1.1408
1.10345
3.84677
3.53322
3.19877
2.87559
2.59134
2.36205
2.18868
2.05773
1.94525
1.82295
1.66463
1.45177
1.1776
0.849337
0.488089
0.12552
-0.202546
-0.464247
-0.638113
-0.716494
-0.705921
-0.625409
-0.503208
-0.372496
-0.26628
-0.212353
-0.229115
-0.322521
-0.484577
-0.693833
-0.918762
-1.12395
-1.27785
-1.35886
-1.35856
-1.28208
-1.14643
-0.977465
-0.805755
-0.661783
-0.571161
-0.550677
-0.605421
-0.727373
-0.895884
-1.08088
-1.24871
-1.36945
-1.42262
-1.40023
-1.3071
-1.15929
-0.981175
-0.801621
-0.649395
-0.548656
-0.515226
-0.55385
-0.656862
-0.804627
-0.968561
-1.11668
-1.2205
-1.26053
-1.22911
-1.13074
-0.980629
-0.801922
-0.622031
-0.468281
-0.363583
-0.322819
-0.35015
-0.437624
-0.565455
-0.704769
-0.822761
-0.8892
-0.881562
-0.787789
-0.60673
-0.347232
-0.0265
0.331663
0.698505
1.04165
1.32667
1.52053
1.59716
1.5437
4.59761
4.15328
3.67802
3.22904
2.85578
2.58581
2.41878
2.32893
2.27263
2.19964
2.0642
1.83343
1.4937
1.05444
0.549563
0.0327404
-0.433726
-0.7957
-1.01833
-1.09067
-1.02441
-0.850607
-0.614392
-0.36878
-0.166465
-0.0517259
-0.0544118
-0.185083
-0.432116
-0.760776
-1.11784
-1.44225
-1.68096
-1.79941
-1.78584
-1.65008
-1.42038
-1.13845
-0.853498
-0.614528
-0.462628
-0.425298
-0.511869
-0.710789
-0.988782
-1.29525
-1.57231
-1.76979
-1.85501
-1.8169
-1.66474
-1.42521
-1.13768
-0.848648
-0.604361
-0.443622
-0.392387
-0.459429
-0.633751
-0.883759
-1.16141
-1.41175
-1.58704
-1.65619
-1.60856
-1.45288
-1.21445
-0.930693
-0.645851
-0.404026
-0.242256
-0.185329
-0.241529
-0.400004
-0.629753
-0.883347
-1.10581
-1.24796
-1.27512
-1.17061
-0.934432
-0.580818
-0.134867
0.370187
0.895291
1.39593
1.82131
2.11818
2.24083
2.16428
5.45977
4.81788
4.11946
3.47345
2.97148
2.66133
2.53774
2.5518
2.62408
2.66624
2.60104
2.37199
1.95312
1.35406
0.628237
-0.13255
-0.815371
-1.32781
-1.61496
-1.66441
-1.49779
-1.16567
-0.739107
-0.302717
0.0594598
0.277993
0.304589
0.119917
-0.262115
-0.786814
-1.36394
-1.88396
-2.25726
-2.43006
-2.38906
-2.15335
-1.76956
-1.30377
-0.835033
-0.441893
-0.189114
-0.121504
-0.256534
-0.580343
-1.04068
-1.55194
-2.01052
-2.33177
-2.46502
-2.39779
-2.14818
-1.76023
-1.29637
-0.831239
-0.43902
-0.1809
-0.0992302
-0.210526
-0.501651
-0.923081
-1.39361
-1.81487
-2.10643
-2.22002
-2.14359
-1.89418
-1.51354
-1.06102
-0.607727
-0.224493
0.0300444
0.115065
0.0143682
-0.259749
-0.659712
-1.10676
-1.50451
-1.77228
-1.85831
-1.74302
-1.43124
-0.94737
-0.328341
0.37984
1.12731
1.85859
2.501
2.96672
3.17133
3.06228
6.51266
5.56398
4.48553
3.51047
2.81089
2.46817
2.45849
2.69088
3.01889
3.28747
3.37382
3.18388
2.67203
1.8362
0.757265
-0.410109
-1.44236
-2.18433
-2.55387
-2.54929
-2.20947
-1.61674
-0.877973
-0.129785
0.492231
0.884101
0.967817
0.709115
0.113326
-0.73735
-1.69229
-2.53697
-3.12226
-3.36857
-3.27267
-2.86988
-2.23679
-1.47334
-0.707708
-0.0671389
0.351044
0.47409
0.270643
-0.253297
-1.01925
-1.88451
-2.64647
-3.16448
-3.3637
-3.24132
-2.83083
-2.20457
-1.4569
-0.708833
-0.080576
0.335909
0.471796
0.297334
-0.181914
-0.891701
-1.69675
-2.40477
-2.88212
-3.05745
-2.92772
-2.52444
-1.91615
-1.19248
-0.468712
0.140366
0.546448
0.682895
0.519991
0.0617234
-0.621871
-1.40116
-2.09036
-2.55833
-2.73141
-2.59837
-2.17587
-1.50855
-0.650195
0.332923
1.38262
2.44925
3.4351
4.19128
4.55352
4.40231
7.92638
6.49709
4.70321
3.1512
2.13627
1.7953
2.03064
2.69225
3.49929
4.17112
4.54448
4.45934
3.85746
2.66843
1.01364
-0.882235
-2.48737
-3.57716
-4.03151
-3.91693
-3.28534
-2.27809
-1.03041
0.224832
1.25641
1.93395
2.12413
1.78372
0.855803
-0.537755
-2.17939
-3.56349
-4.47539
-4.79988
-4.59819
-3.91803
-2.89175
-1.64607
-0.40029
0.627851
1.3162
1.53983
1.25933
0.422246
-0.854812
-2.36585
-3.6337
-4.45624
-4.7255
-4.49973
-3.82417
-2.82375
-1.61798
-0.413908
0.58282
1.25678
1.48973
1.24408
0.469799
-0.72315
-2.1396
-3.32683
-4.09272
-4.33415
-4.10578
-3.44992
-2.48488
-1.32408
-0.164544
0.79754
1.45113
1.68179
1.45094
0.707668
-0.446233
-1.82529
-2.99477
-3.76903
-4.04531
-3.87053
-3.27304
-2.34481
-1.15171
0.190125
1.61358
3.1562
4.69994
5.98309
6.67509
6.48581
10.0871
7.95388
4.57367
2.02087
0.491515
0.292287
0.988786
2.48412
4.17438
5.48457
6.37537
6.47891
5.88838
4.17136
1.6172
-1.77304
-4.27445
-5.88502
-6.32842
-6.02906
-4.90214
-3.28569
-1.19371
0.901512
2.53043
3.68559
4.04448
3.70433
2.2688
0.0190723
-3.03735
-5.26998
-6.6744
-6.98889
-6.61272
-5.46459
-3.86266
-1.81893
0.220526
1.81214
2.95053
3.33153
3.04949
1.73135
-0.353441
-3.19739
-5.26218
-6.54472
-6.80013
-6.40585
-5.28532
-3.73865
-1.77661
0.179593
1.711
2.8127
3.19683
2.95208
1.72439
-0.232763
-2.91251
-4.8556
-6.05856
-6.28737
-5.89942
-4.82062
-3.33552
-1.45385
0.423953
1.89895
2.96482
3.34525
3.11978
1.94492
0.0536312
-2.5512
-4.46831
-5.6968
-6.00875
-5.75138
-4.8465
-3.56247
-1.86741
-0.0702041
1.67293
3.86156
6.34003
8.62614
10.0657
9.9282
13.8807
11.1923
3.2473
-0.576229
-3.06473
-2.49954
-1.20317
1.99533
5.39678
7.40194
9.3399
9.49794
9.54147
6.87979
3.42469
-3.94374
-7.34435
-9.8736
-9.69491
-9.33287
-7.22389
-4.97804
-1.36168
2.24967
4.48664
6.58386
6.97145
7.2023
4.85426
1.73753
-5.08157
-8.16911
-10.4429
-10.1725
-9.73888
-7.66461
-5.46977
-1.98562
1.48622
3.64908
5.67551
6.078
6.33165
4.14442
1.24112
-5.15093
-8.01708
-10.1123
-9.81032
-9.35775
-7.36014
-5.25165
-1.92686
1.3848
3.45797
5.40192
5.80951
6.07551
4.02939
1.29817
-4.74623
-7.45016
-9.42719
-9.1287
-8.6879
-6.77641
-4.75719
-1.57804
1.59249
3.58948
5.46556
5.88123
6.15574
4.21381
1.58101
-4.26744
-6.93346
-8.94439
-8.79201
-8.56463
-6.96595
-5.372
-2.73019
-0.252672
1.09076
4.14955
8.2571
12.4883
15.7272
16.1985
21.0105
21.9155
-4.09083
-5.10874
-11.0173
-6.34369
-6.13403
1.21439
8.62987
9.41609
14.8675
12.6819
17.0901
10.7307
10.8674
-11.8281
-11.669
-17.7616
-13.3254
-15.1523
-9.74271
-8.64395
-1.52242
5.57696
6.64407
11.944
10.1241
14.4138
8.54662
8.78742
-12.4993
-12.24
-17.875
-13.591
-15.2276
-10.0383
-8.93348
-2.13459
4.63685
5.68248
10.739
9.03879
13.1287
7.58865
7.85947
-12.1818
-11.8822
-17.1317
-13.0374
-14.5345
-9.59462
-8.51612
-2.05822
4.37344
5.39103
10.2035
8.62605
12.5284
7.32096
7.60006
-11.3902
-11.0914
-16.0726
-12.1749
-13.5942
-8.88733
-7.84918
-1.68981
4.45092
5.45414
10.0693
8.62046
12.3834
7.47759
7.7389
-10.5664
-10.3419
-15.3071
-11.6833
-13.3525
-9.07859
-8.69046
-3.35639
1.19794
-1.96151
2.92735
9.99615
17.7792
25.3742
29.6248
30.9657
71.3809
-47.4215
-2.60737
-34.2116
-3.76046
-21.3449
0.336828
21.4091
4.71232
31.3926
6.37065
40.1439
5.2274
51.1885
-52.6231
-6.99113
-40.8111
-7.93716
-31.3921
-6.05393
-20.9826
-1.65125
17.5907
2.70628
27.5566
4.47909
36.2514
3.44343
46.8369
-50.943
-7.82331
-39.5905
-8.48378
-30.5459
-6.53005
-20.5967
-2.24404
16.0326
1.94028
25.532
3.66193
33.7927
2.66531
43.7272
-48.5033
-7.7566
-37.6062
-8.21288
-28.9805
-6.26871
-19.5269
-2.15179
15.1584
1.85943
24.2066
3.55167
32.0994
2.71188
41.6499
-45.8105
-7.12966
-35.5034
-7.5649
-27.322
-5.71532
-18.3157
-1.77472
14.7073
2.11763
23.4052
3.85479
31.0939
3.30076
40.6327
-43.5481
-6.27729
-34.0382
-6.95237
-26.6987
-5.59567
-19.1311
-2.85977
13.7564
-16.6033
-1.43398
10.7067
23.3408
39.8372
66.3772
28831.3
28794.5
28757.6
28720.7
28683.8
28646.8
28610
28573.1
28536.4
28499.8
28463.3
28426.9
28390.6
28354.3
28318.1
0.17942
0.140365
0.0901095
0.0343982
-0.0209208
-0.0706946
-0.110977
-0.139234
-0.154309
-0.156226
-0.145934
-0.12504
-0.0955868
-0.0598839
-0.0203853
0.316633
0.246351
0.156239
0.0569174
-0.0409879
-0.128321
-0.198273
-0.24666
-0.271766
-0.273919
-0.254987
-0.217898
-0.16625
-0.104021
-0.0353879
0.482464
0.372168
0.231577
0.0780205
-0.0716269
-0.20333
-0.307133
-0.377368
-0.412176
-0.412697
-0.382196
-0.325317
-0.247493
-0.154563
-0.052533
0.693186
0.52828
0.319881
0.0952147
-0.12021
-0.306239
-0.44956
-0.543502
-0.586875
-0.582494
-0.535785
-0.45368
-0.343843
-0.214203
-0.0727147
0.970926
0.727885
0.424453
0.103168
-0.198189
-0.451856
-0.641366
-0.760203
-0.809328
-0.794621
-0.724771
-0.609773
-0.459996
-0.285693
-0.0968374
1.34713
0.987881
0.546877
0.0911928
-0.323858
-0.66163
-0.903846
-1.04662
-1.09561
-1.06189
-0.958903
-0.800647
-0.600675
-0.371734
-0.12578
1.86815
1.32963
0.683981
0.0385853
-0.526806
-0.96696
-1.26577
-1.42681
-1.46462
-1.39842
-1.24831
-1.03324
-0.770322
-0.474788
-0.160328
2.60465
1.77851
0.82083
-0.0940265
-0.854992
-1.41363
-1.76546
-1.93023
-1.93762
-1.81888
-1.60266
-1.31367
-0.972591
-0.596766
-0.201075
3.66806
2.35894
0.914853
-0.380529
-1.3855
-2.06712
-2.45222
-2.59101
-2.53677
-2.3368
-2.02979
-1.64618
-1.20961
-0.73861
-0.24828
5.23957
3.07435
0.860166
-0.957443
-2.23936
-3.01713
-3.38527
-3.44484
-3.28166
-2.96176
-2.53352
-2.03167
-1.48105
-0.899787
-0.301713
7.61677
3.83872
0.408904
-2.07005
-3.59736
-4.37677
-4.62691
-4.52141
-4.18326
-3.69504
-3.11087
-2.46592
-1.78313
-1.07778
-0.360498
11.2505
4.25487
-0.993222
-4.13431
-5.70324
-6.2657
-6.22417
-5.83064
-5.23494
-4.52428
-3.749
-2.938
-2.10779
-1.26769
-0.423002
16.4819
2.9235
-4.50235
-7.77073
-8.81559
-8.75862
-8.17342
-7.34204
-6.40158
-5.41814
-4.42283
-3.4293
-2.44233
-1.46218
-0.486826
20.9341
-4.54043
-12.1689
-13.6307
-13.0298
-11.7798
-10.3689
-8.96251
-7.61119
-6.32386
-5.0949
-3.91405
-2.77005
-1.65188
-0.548946
0.562671
1.6959
2.85328
4.05267
5.31478
6.66502
8.13598
9.77126
11.6311
13.8001
16.3952
19.5553
23.3153
26.8328
24.0266
0.573069
1.72745
2.90712
4.13093
5.42111
6.80546
8.32089
10.0191
11.9771
14.317
17.2485
21.1745
26.996
37.1797
60.1441
0.577745
1.74144
2.9303
4.16311
5.46202
6.85488
8.37883
10.0866
12.058
14.423
17.412
21.4803
27.6544
38.6327
62.7049
0.576725
1.73794
2.92297
4.14938
5.4377
6.81325
8.30911
9.97099
11.8656
14.0956
16.8262
20.3268
24.994
31.0559
35.961
0.570309
1.71792
2.88688
4.09267
5.35281
6.68807
8.12411
9.69376
11.4402
13.4203
15.7052
18.3625
21.3721
24.3464
26.0362
0.559036
1.68308
2.82522
3.99821
5.21574
6.49291
7.84631
9.29377
10.8525
12.5335
14.325
16.1513
17.7693
18.538
16.9026
0.543618
1.63566
2.74215
3.8728
5.03727
6.24481
7.5032
8.81649
10.18
11.5698
12.9209
14.0843
14.7534
14.3982
12.6075
0.524862
1.57821
2.6423
3.7239
4.82889
5.96138
7.12195
8.30433
9.48927
10.6332
11.6473
12.3606
12.4482
11.255
7.07787
0.503593
1.51329
2.5303
3.55876
4.60141
5.65846
6.72554
7.79037
8.82701
9.78655
10.5827
11.0716
11.0322
10.1841
8.47779
0.480582
1.44328
2.41034
3.38375
4.36394
5.34857
6.3307
7.29599
8.2183
9.05344
9.73134
10.1494
10.1779
9.70909
8.8185
0.456505
1.37025
2.28596
3.20404
4.12339
5.0404
5.94756
6.83146
7.6701
8.42951
9.06046
9.4978
9.66892
9.52698
9.1397
0.431915
1.29586
2.15994
3.02345
3.88446
4.73907
5.58055
6.39836
7.17693
7.89477
8.52402
9.03106
9.37732
9.51525
9.36227
0.407243
1.22138
2.0343
2.8446
3.64998
4.44684
5.22999
5.9925
6.72594
7.42155
8.07244
8.67597
9.23039
9.70554
9.95806
0.382812
1.14775
1.91049
2.66917
3.4214
4.16413
4.89377
5.60681
6.30121
6.97939
7.65374
8.35498
9.1385
10.0504
10.8233
0.358861
1.07563
1.78948
2.49822
3.19943
3.89049
4.56907
5.23407
5.88773
6.53989
7.21637
7.97684
8.95746
10.4918
13.5211
0.33557
1.00555
1.67202
2.33251
2.98449
3.62553
4.25381
4.86919
5.4753
6.0835
6.72066
7.44581
8.39186
9.89502
12.9933
0.313082
0.93791
1.5587
2.17271
2.77715
3.36942
3.94749
4.51075
5.06142
5.60699
6.16384
6.76138
7.43938
8.19052
8.55442
0.291522
0.873069
1.4501
2.01954
2.57826
3.12317
3.65147
4.16104
4.65106
5.12264
5.57876
6.02107
6.43609
6.75493
6.80173
0.271
0.811362
1.34677
1.87382
2.38896
2.88845
3.36844
3.8249
4.25351
4.64903
5.00327
5.2997
5.49957
5.50826
5.08072
0.251616
0.753093
1.24925
1.73638
2.21051
2.66728
3.10176
3.50811
3.87895
4.20406
4.46793
4.64538
4.69583
4.56452
4.24355
0.233451
0.698515
1.158
1.60796
2.04411
2.46158
2.8546
3.21597
3.53613
3.80163
3.9926
4.07925
4.0183
3.75247
3.20151
0.216564
0.647813
1.07336
1.48914
1.89069
2.27286
2.62942
2.95244
3.23128
3.45095
3.58971
3.61561
3.48306
3.13844
2.60095
0.20098
0.601073
0.99549
1.38019
1.75072
2.10192
2.42754
2.7196
2.9675
3.15645
3.2652
3.26199
3.09509
2.65833
1.61712
0.186694
0.558275
0.92437
1.28109
1.62418
1.94875
2.24894
2.51744
2.74466
2.91764
3.01844
3.02205
2.89451
2.59799
2.15623
0.173662
0.519285
0.859756
1.19146
1.5105
1.8125
2.09236
2.34394
2.55948
2.72895
2.83918
2.87319
2.81127
2.63851
2.3647
0.161811
0.483874
0.801229
1.11063
1.40866
1.69162
1.95543
2.19546
2.40629
2.58141
2.71285
2.79093
2.80501
2.7492
2.6487
0.151042
0.451731
0.748225
1.0377
1.31727
1.58403
1.83501
2.06726
2.2779
2.46419
2.62358
2.75311
2.84729
2.89092
2.83645
0.141242
0.422501
0.700099
0.971634
1.23479
1.4874
1.7276
1.95407
2.1664
2.36567
2.55504
2.73985
2.92466
3.10078
3.22067
0.132291
0.395813
0.656182
0.911394
1.15963
1.39938
1.62972
1.8507
2.06399
2.27401
2.48966
2.72659
3.00808
3.34967
3.63865
0.124077
0.371316
0.615847
0.856001
1.09035
1.3179
1.53836
1.75267
1.96384
2.17845
2.40949
2.68239
3.04975
3.6351
4.78832
0.116498
0.348699
0.578551
0.804638
1.0258
1.24133
1.45125
1.65682
1.86131
2.07148
2.30027
2.57259
2.94005
3.52617
4.69686
0.109473
0.327712
0.54387
0.756695
0.965169
1.16866
1.36718
1.56171
1.75484
1.95159
2.1608
2.39673
2.67849
3.01128
3.24939
0.102938
0.308171
0.511503
0.711773
0.907992
1.09945
1.28587
1.46759
1.64584
1.82303
2.00279
2.18904
2.38151
2.56215
2.67646
0.0968498
0.289949
0.481263
0.669665
0.854122
1.03374
1.20782
1.37587
1.53759
1.6927
1.84027
1.97702
2.09275
2.15907
2.09633
0.0911789
0.272966
0.453046
0.630297
0.803611
0.971882
1.13396
1.28854
1.43393
1.56759
1.68527
1.77959
1.8383
1.84563
1.80589
0.0859043
0.257169
0.426794
0.593663
0.756602
0.914324
1.06531
1.20759
1.33842
1.45358
1.54651
1.60688
1.61953
1.56488
1.41773
0.0810078
0.24251
0.402457
0.559758
0.713218
0.861445
1.0027
1.13461
1.25378
1.35503
1.43035
1.46733
1.44748
1.34837
1.18031
0.0764678
0.228931
0.379958
0.528521
0.673467
0.81341
0.946568
1.07048
1.18158
1.27447
1.34081
1.36724
1.33049
1.17975
0.749364
0.072256
0.21635
0.359169
0.499796
0.63719
0.770089
0.89686
1.01525
1.12203
1.21236
1.27899
1.31101
1.29265
1.20532
1.06033
0.0683348
0.204653
0.339903
0.473318
0.604035
0.731024
0.852969
0.968096
1.07389
1.16671
1.2412
1.28978
1.30272
1.27094
1.19311
0.0646576
0.193699
0.321911
0.448713
0.57347
0.695461
0.813814
0.927418
1.03477
1.13378
1.2214
1.2933
1.34384
1.36854
1.37876
0.0611706
0.183321
0.3049
0.425527
0.544826
0.662424
0.777958
0.891078
1.00146
1.10876
1.21253
1.31167
1.40289
1.47621
1.5008
0.057816
0.17334
0.288549
0.403264
0.517364
0.630822
0.743779
0.856644
0.970272
1.08619
1.20686
1.33552
1.47439
1.61772
1.73874
0.0545365
0.163578
0.272541
0.38143
0.490347
0.599569
0.709663
0.821682
0.937496
1.06033
1.19565
1.35229
1.54278
1.77473
1.98337
0.0512788
0.153871
0.256585
0.359575
0.463119
0.567712
0.67421
0.784084
0.899842
1.02581
1.16964
1.34554
1.58239
1.94794
2.63527
0.0479974
0.144078
0.240438
0.337337
0.435164
0.534531
0.636415
0.742401
0.855099
0.978884
1.12135
1.29646
1.53264
1.89768
2.59239
0.0446564
0.134092
0.223916
0.314453
0.40614
0.499602
0.59577
0.696059
0.802658
0.918986
1.05039
1.20498
1.39339
1.61847
1.8003
0.0412298
0.123837
0.2069
0.290772
0.375883
0.462795
0.552264
0.645335
0.743461
0.848623
0.963322
1.09002
1.22867
1.36931
1.48261
0.0377008
0.113265
0.189323
0.26623
0.344377
0.424213
0.506257
0.591101
0.67938
0.771636
0.867923
0.96677
1.06258
1.13914
1.15051
0.0340591
0.10235
0.171157
0.240826
0.311698
0.384099
0.458305
0.534482
0.612537
0.691851
0.770748
0.845626
0.909847
0.95425
0.98058
0.030298
0.0910755
0.152392
0.214587
0.277959
0.342731
0.408986
0.476558
0.544822
0.612355
0.676366
0.731883
0.770881
0.781908
0.747194
0.0264107
0.0794271
0.133019
0.187532
0.243248
0.300332
0.358755
0.418154
0.477616
0.535306
0.587882
0.629613
0.651341
0.641331
0.604467
0.0223879
0.0673794
0.113005
0.159641
0.207586
0.257005
0.307845
0.359708
0.411641
0.461808
0.506931
0.541234
0.553842
0.519403
0.352672
0.0182155
0.0548916
0.0922894
0.130842
0.170902
0.212691
0.256225
0.301213
0.346894
0.391815
0.433493
0.467923
0.489015
0.489347
0.474915
0.0138729
0.0419027
0.0707721
0.100996
0.133018
0.167165
0.203598
0.242237
0.282674
0.324076
0.36509
0.403876
0.438604
0.469545
0.505109
0.00933299
0.028331
0.0483143
0.0699029
0.093658
0.120053
0.149439
0.182012
0.217787
0.256607
0.298234
0.342649
0.390826
0.446532
0.519909
0.0045626
0.0140752
0.024742
0.0373052
0.0524655
0.0708638
0.0930672
0.119564
0.150786
0.187189
0.229443
0.278811
0.337819
0.41125
0.507609
-0.000476776
-0.000981981
-0.000147164
0.00290438
0.00902464
0.019033
0.0337148
0.0538353
0.0801878
0.113709
0.155712
0.208281
0.274798
0.360046
0.467085
-0.00582745
-0.0169696
-0.0265754
-0.0336271
-0.0371158
-0.0360426
-0.0294136
-0.0162204
0.00461207
0.0343413
0.0746447
0.128065
0.198771
0.293713
0.42462
-0.0115341
-0.0340239
-0.0547771
-0.0726326
-0.0864238
-0.0949758
-0.0970999
-0.0915802
-0.077141
-0.0523688
-0.0155303
0.0358465
0.105915
0.202404
0.337811
-0.0176425
-0.052284
-0.0849909
-0.11446
-0.13937
-0.158372
-0.170094
-0.173133
-0.166069
-0.147457
-0.1158
-0.0693511
-0.00528567
0.0840726
0.230896
-0.0241977
-0.0718875
-0.117453
-0.159454
-0.196417
-0.226824
-0.249116
-0.261702
-0.263014
-0.251604
-0.22634
-0.186781
-0.134049
-0.0741628
-0.0366914
-0.031243
-0.092966
-0.15239
-0.207946
-0.258016
-0.300912
-0.334877
-0.3581
-0.368794
-0.36537
-0.346806
-0.313356
-0.26778
-0.21683
-0.167379
-0.038818
-0.115641
-0.190012
-0.260248
-0.324596
-0.381202
-0.428097
-0.463198
-0.484377
-0.489648
-0.477609
-0.448351
-0.405241
-0.358454
-0.33436
-0.0469573
-0.140019
-0.230505
-0.316639
-0.396551
-0.468236
-0.529506
-0.577964
-0.611006
-0.625947
-0.620368
-0.592964
-0.545254
-0.484317
-0.422355
-0.0556889
-0.166186
-0.274021
-0.37735
-0.47422
-0.562501
-0.639813
-0.703433
-0.750205
-0.776493
-0.778283
-0.751676
-0.694453
-0.610889
-0.527284
-0.0650321
-0.194201
-0.320664
-0.442547
-0.557852
-0.664382
-0.759628
-0.840602
-0.903627
-0.944051
-0.955918
-0.931649
-0.861941
-0.73749
-0.565426
-0.074997
-0.224095
-0.370489
-0.512311
-0.647577
-0.7741
-0.889352
-0.990235
-1.07274
-1.13144
-1.15865
-1.14318
-1.06744
-0.897156
-0.528327
-0.0855838
-0.255868
-0.423489
-0.586627
-0.743372
-0.891646
-1.02905
-1.15263
-1.2584
-1.34069
-1.39101
-1.39655
-1.33861
-1.1947
-0.968883
-0.0967841
-0.289489
-0.479602
-0.665381
-0.84505
-1.01674
-1.17836
-1.32738
-1.46036
-1.57214
-1.65448
-1.69399
-1.66949
-1.54911
-1.27723
-0.108584
-0.32491
-0.538724
-0.74838
-0.952271
-1.14882
-1.33642
-1.51327
-1.67704
-1.82403
-1.9477
-2.03589
-2.06694
-2.00873
-1.84962
-0.120967
-0.362077
-0.600733
-0.83538
-1.06459
-1.28711
-1.50193
-1.70826
-1.90537
-2.09212
-2.26555
-2.41747
-2.52637
-2.53842
-2.31458
-0.133924
-0.400946
-0.665525
-0.926157
-1.18155
-1.43076
-1.67335
-1.90964
-2.14089
-2.36946
-2.59835
-2.82893
-3.05306
-3.23191
-3.27293
-0.147455
-0.441512
-0.733058
-1.02057
-1.30281
-1.579
-1.84915
-2.11451
-2.37827
-2.64657
-2.92996
-3.24487
-3.61119
-4.02112
-4.22458
-0.161577
-0.483823
-0.803391
-1.11865
-1.42826
-1.73143
-2.02827
-2.3205
-2.6125
-2.9132
-3.2397
-3.6251
-4.13905
-4.9537
-6.60408
-0.176328
-0.527994
-0.876715
-1.22065
-1.5582
-1.88825
-2.21059
-2.52665
-2.84068
-3.16191
-3.50852
-3.91607
-4.45807
-5.30593
-6.93184
-0.191769
-0.574209
-0.953364
-1.32708
-1.69334
-2.05042
-2.39728
-2.73421
-3.06387
-3.39299
-3.73503
-4.11366
-4.56469
-5.11784
-5.6461
-0.207971
-0.622705
-1.03379
-1.4387
-1.83485
-2.21968
-2.59087
-2.94683
-3.28742
-3.6151
-3.93612
-4.26097
-4.6004
-4.94703
-5.22824
-0.225011
-0.673737
-1.11849
-1.5564
-1.98423
-2.39841
-2.79504
-3.17011
-3.51995
-3.84184
-4.13456
-4.39814
-4.63111
-4.82165
-4.9263
-0.242953
-0.727524
-1.20796
-1.68109
-2.14309
-2.58934
-3.01417
-3.4109
-3.77189
-4.08884
-4.35322
-4.55658
-4.69128
-4.75591
-4.78285
-0.261822
-0.784182
-1.30251
-1.8135
-2.3129
-2.79513
-3.25283
-3.67652
-4.0544
-4.37234
-4.61427
-4.7627
-4.80011
-4.71634
-4.54468
-0.281582
-0.84364
-1.40215
-1.95395
-2.49464
-3.01796
-3.51509
-3.97395
-4.37853
-4.70864
-4.94024
-5.04591
-4.9931
-4.7378
-4.28491
-0.302111
-0.905565
-1.50645
-2.10212
-2.68844
-3.25897
-3.80394
-4.30907
-4.75437
-5.11336
-5.35365
-5.43919
-5.32671
-4.89647
-3.44743
-0.323173
-0.969275
-1.61436
-2.25678
-2.89321
-3.51773
-4.12045
-4.68574
-5.19014
-5.6005
-5.87454
-5.96998
-5.88098
-5.76265
-6.39176
-0.344404
-1.03369
-1.72414
-2.41559
-3.10625
-3.79164
-4.46296
-5.1047
-5.69121
-6.18232
-6.51944
-6.62885
-6.45561
-6.10978
-6.42546
-0.365303
-1.09729
-1.83322
-2.57494
-3.32295
-4.07531
-4.826
-5.562
-6.25854
-6.87108
-7.32248
-7.48401
-7.15009
-5.99751
-3.37767
-0.38524
-1.15816
-1.93828
-2.72994
-3.53662
-4.36016
-5.19924
-6.04671
-6.88421
-7.67173
-8.32681
-8.68323
-8.41308
-6.90419
-3.20175
-0.403484
-1.21403
-2.03532
-2.8745
-3.7386
-4.6342
-5.56666
-6.53834
-7.54458
-8.56436
-9.53855
-10.3176
-10.5363
-9.33416
-4.90159
-0.419241
-1.26244
-2.11994
-3.00176
-3.9187
-4.88264
-5.90683
-7.00598
-8.19554
-9.48865
-10.8858
-12.341
-13.6463
-14.0075
-10.331
-0.431722
-1.30092
-2.18766
-3.10463
-4.06616
-5.08924
-6.19496
-7.41084
-8.77458
-10.3407
-12.1928
-14.4685
-17.4118
-21.4847
-27.5559
-11.2528
-25.7356
-24.3224
-20.77
-17.4707
-14.7054
-12.3901
-10.4093
-8.6709
-7.10801
-5.67242
-4.32863
-3.04951
-1.81336
-0.601787
-111.01
-57.8661
-37.3357
-27.1963
-21.1526
-17.0445
-13.9835
-11.5455
-9.50371
-7.72574
-6.12863
-4.65695
-3.27127
-1.94167
-0.643799
-123.428
-67.3487
-43.1331
-30.7785
-23.4904
-18.6566
-15.1443
-12.4066
-10.1533
-8.21786
-6.49774
-4.92555
-3.45407
-2.04795
-0.678678
-67.7944
-54.7037
-40.6936
-30.8423
-24.1239
-19.3508
-15.7673
-12.9313
-10.5821
-8.56046
-6.76413
-5.1242
-3.59148
-2.12863
-0.705283
-47.8486
-42.6972
-35.3661
-28.7304
-23.4064
-19.2189
-15.8711
-13.1178
-10.7836
-8.74658
-6.9219
-5.2484
-3.68037
-2.18189
-0.723011
-30.3745
-32.2045
-29.5556
-25.7076
-21.8997
-18.5039
-15.5621
-13.0134
-10.7785
-8.78528
-6.97469
-5.29936
-3.72096
-2.20765
-0.731808
-22.4003
-24.822
-24.5779
-22.657
-20.1069
-17.4737
-14.98
-12.6912
-10.6056
-8.69716
-6.93356
-5.283
-3.71636
-2.2074
-0.73211
-12.4399
-19.2909
-20.7645
-20.0433
-18.3717
-16.3465
-14.2558
-12.2278
-10.3096
-8.50845
-6.81393
-5.20835
-3.6717
-2.18376
-0.724727
-14.9994
-17.4941
-18.4754
-18.0895
-16.8823
-15.2647
-13.4879
-11.6883
-9.93233
-8.2457
-6.63253
-5.08583
-3.59322
-2.14004
-0.710693
-15.6479
-16.7484
-17.1357
-16.7061
-15.6777
-14.2937
-12.7357
-11.1186
-9.50687
-7.93192
-6.40499
-4.92573
-3.48737
-2.07977
-0.691129
-16.2547
-16.498
-16.3631
-15.7387
-14.7201
-13.4434
-12.0245
-10.5451