/*--------------------------------*- C++ -*----------------------------------*\
| =========                 |                                                 |
| \\      /  F ield         | OpenFOAM: The Open Source CFD Toolbox           |
|  \\    /   O peration     | Version:  5.x                                   |
|   \\  /    A nd           | Web:      www.OpenFOAM.org                      |
|    \\/     M anipulation  |                                                 |
\*---------------------------------------------------------------------------*/
FoamFile
{
    version     2.0;
    format      ascii;
    class       volScalarField;
    location    "19";
    object      gradTx;
}
// * * * * * * * * * * * * * * * * * * * * * * * * * * * * * * * * * * * * * //

dimensions      [0 -1 0 1 0 0 0];

internalField   nonuniform List<scalar> 
2048
(
0.00630492
0.0187343
0.0306387
0.0417202
0.0517499
0.0605784
0.0681354
0.0744188
0.079478
0.0833961
0.0862728
0.0882124
0.0893169
0.0896831
0.0894034
0.0885671
0.0872608
0.0855682
0.0835671
0.0813259
0.0789005
0.0763314
0.0736436
0.0708472
0.0679399
0.0649097
0.061737
0.0583962
0.0548566
0.0510821
0.0470325
0.0426643
0.0379322
0.0327918
0.027201
0.0211224
0.0145236
0.00737855
-0.000332399
-0.00862091
-0.0174885
-0.026923
-0.0368929
-0.0473409
-0.0581754
-0.0692617
-0.0804126
-0.091381
-0.101856
-0.111464
-0.119782
-0.12636
-0.130753
-0.13257
-0.131512
-0.127416
-0.120277
-0.110248
-0.0976156
-0.0827651
-0.0661297
-0.0481503
-0.0292469
-0.0098074
0.0187884
0.055818
0.0912568
0.124206
0.15398
0.180138
0.20248
0.221014
0.235902
0.247402
0.25582
0.26147
0.264655
0.265661
0.264761
0.262217
0.258286
0.253218
0.247245
0.240573
0.23337
0.225754
0.2178
0.209535
0.20095
0.192008
0.18265
0.172799
0.162365
0.15124
0.139304
0.126428
0.112476
0.0973136
0.0808169
0.0628735
0.0433875
0.022281
-0.000504982
-0.0250068
-0.051232
-0.0791488
-0.10867
-0.139633
-0.171774
-0.204703
-0.237872
-0.270555
-0.30183
-0.330584
-0.355547
-0.375359
-0.388673
-0.39429
-0.391297
-0.379193
-0.357963
-0.328074
-0.290413
-0.246152
-0.196609
-0.143109
-0.0869052
-0.0291383
0.03114
0.0924832
0.151107
0.205486
0.254474
0.297354
0.33383
0.363957
0.388047
0.406568
0.420047
0.429015
0.433973
0.435386
0.433693
0.42932
0.422692
0.414219
0.404294
0.393259
0.381394
0.368898
0.355887
0.342399
0.328414
0.313863
0.298647
0.282641
0.265693
0.24763
0.228252
0.207342
0.184674
0.160023
0.133182
0.103965
0.0722147
0.0378018
0.000627664
-0.0393725
-0.0822204
-0.127877
-0.176218
-0.226997
-0.279809
-0.334038
-0.388813
-0.442958
-0.494964
-0.542988
-0.584897
-0.618383
-0.641136
-0.651075
-0.646611
-0.626863
-0.591801
-0.542254
-0.47977
-0.40639
-0.324373
-0.235962
-0.143224
-0.0480092
0.0435997
0.129426
0.211275
0.286941
0.354798
0.413875
0.463826
0.504822
0.537392
0.562259
0.580211
0.592007
0.598339
0.599836
0.597089
0.590677
0.581182
0.569186
0.555241
0.539842
0.523382
0.506139
0.488264
0.469797
0.450694
0.430849
0.410119
0.388329
0.365275
0.340714
0.31437
0.285934
0.255085
0.221505
0.1849
0.145012
0.101622
0.0545534
0.00366527
-0.0511406
-0.109911
-0.172618
-0.239125
-0.309135
-0.382138
-0.45734
-0.533589
-0.609301
-0.682407
-0.750331
-0.810043
-0.858204
-0.891419
-0.906594
-0.90133
-0.874292
-0.825434
-0.756014
-0.668381
-0.565593
-0.450974
-0.327745
-0.198793
-0.0666107
0.056383
0.167269
0.272723
0.369773
0.456288
0.531071
0.593802
0.644858
0.685076
0.715516
0.737265
0.751326
0.758574
0.759779
0.755659
0.746927
0.734324
0.718606
0.700508
0.680684
0.659657
0.637778
0.615226
0.592026
0.568095
0.543279
0.517386
0.490196
0.461453
0.430855
0.398043
0.362615
0.324144
0.282211
0.236433
0.186478
0.132071
0.0729876
0.00904768
-0.0598867
-0.133901
-0.213
-0.297064
-0.385787
-0.478602
-0.574588
-0.672373
-0.770018
-0.86493
-0.953801
-1.03265
-1.09699
-1.14217
-1.16386
-1.15868
-1.1247
-1.06185
-0.971945
-0.85833
-0.725316
-0.577483
-0.419134
-0.253975
-0.0850561
0.0696951
0.2066
0.336343
0.455075
0.560124
0.650113
0.724846
0.785037
0.831958
0.867097
0.891898
0.907618
0.915296
0.915807
0.90996
0.898584
0.882571
0.86287
0.84042
0.816064
0.790464
0.764049
0.737009
0.709333
0.680873
0.651414
0.620711
0.588505
0.554499
0.518334
0.479571
0.437702
0.392184
0.342486
0.288128
0.228706
0.163892
0.093424
0.0170831
-0.0653125
-0.153901
-0.248745
-0.349776
-0.456722
-0.569013
-0.685669
-0.805167
-0.925288
-1.04296
-1.15417
-1.25391
-1.33641
-1.39553
-1.42543
-1.42143
-1.38086
-1.30358
-1.19214
-1.05119
-0.886625
-0.704542
-0.510466
-0.308917
-0.103385
0.0837398
0.247998
0.403005
0.543885
0.667386
0.772017
0.857849
0.926105
0.978648
1.01752
1.04457
1.06133
1.06896
1.06838
1.06044
1.04606
1.02628
1.00228
0.975221
0.94618
0.915981
0.885129
0.853804
0.821924
0.789248
0.755478
0.720313
0.683466
0.644617
0.603361
0.559176
0.511434
0.459459
0.402589
0.340241
0.271938
0.197313
0.116072
0.027969
-0.0672261
-0.169718
-0.279654
-0.397054
-0.521727
-0.653161
-0.790388
-0.931825
-1.07506
-1.21664
-1.35184
-1.47461
-1.57773
-1.65327
-1.69349
-1.69204
-1.64522
-1.55282
-1.41832
-1.24811
-1.05014
-0.832387
-0.601757
-0.363564
-0.121568
0.0987289
0.292059
0.473585
0.637215
0.779083
0.897681
0.993538
1.0686
1.12554
1.16707
1.19555
1.21274
1.21986
1.21783
1.20745
1.1897
1.16576
1.13707
1.10509
1.07117
1.03633
1.00114
0.965759
0.929975
0.893414
0.855665
0.816373
0.775242
0.731958
0.686087
0.637019
0.58399
0.526159
0.462714
0.392953
0.316337
0.23247
0.141049
0.0418085
-0.0655272
-0.181245
-0.305601
-0.438748
-0.580621
-0.730826
-0.888493
-1.05207
-1.21909
-1.38579
-1.54687
-1.69517
-1.82184
-1.91682
-1.96997
-1.97276
-1.92006
-1.81151
-1.65187
-1.44985
-1.21608
-0.960867
-0.692712
-0.417661
-0.139505
0.114888
0.339416
0.548992
0.736088
0.896187
1.02791
1.13249
1.21289
1.27281
1.31586
1.34492
1.36197
1.36822
1.36444
1.3513
1.32978
1.30124
1.26741
1.23013
1.1911
1.15156
1.11217
1.07299
1.03364
0.993549
0.952153
0.909045
0.863957
0.816623
0.766607
0.713209
0.655495
0.592426
0.523001
0.446392
0.362002
0.26943
0.168392
0.0586224
-0.0601961
-0.188446
-0.326527
-0.474759
-0.633254
-0.801796
-0.979691
-1.16555
-1.35695
-1.55005
-1.73901
-1.91566
-2.0693
-2.18733
-2.25663
-2.26575
-2.20758
-2.08149
-1.89394
-1.65681
-1.38424
-1.08945
-0.782739
-0.470766
-0.157037
0.132464
0.390748
0.630192
0.841555
1.01965
1.16342
1.27514
1.35914
1.42048
1.4638
1.49261
1.50904
1.51416
1.50841
1.49225
1.46658
1.43294
1.39345
1.35042
1.30598
1.26169
1.21826
1.17561
1.13308
1.08983
1.04511
0.998465
0.9497
0.89867
0.844975
0.787812
0.72604
0.658363
0.583556
0.500642
0.408977
0.308197
0.19807
0.0783601
-0.0512842
-0.191357
-0.342434
-0.505044
-0.679522
-0.865881
-1.06368
-1.27181
-1.4881
-1.70878
-1.92774
-2.1358
-2.32033
-2.46573
-2.55509
-2.57314
-2.50999
-2.36452
-2.14548
-1.86905
-1.55402
-1.21724
-0.870955
-0.522258
-0.173941
0.151727
0.446804
0.718227
0.954715
1.1504
1.30485
1.42181
1.50738
1.56834
1.61063
1.63841
1.65388
1.65772
1.64994
1.63056
1.60034
1.56105
1.51528
1.46596
1.41579
1.36669
1.31943
1.27369
1.22844
1.18245
1.13472
1.08476
1.03253
0.978115
0.921197
0.860857
0.795682
0.724054
0.644461
0.555754
0.457269
0.348725
0.229995
0.100908
-0.038906
-0.190071
-0.35338
-0.529617
-0.719372
-0.922931
-1.14018
-1.37041
-1.6119
-1.86122
-2.11225
-2.35501
-2.57485
-2.75267
-2.86687
-2.89712
-2.82961
-2.66237
-2.40725
-2.08629
-1.72443
-1.34295
-0.956206
-0.571359
-0.189945
0.172982
0.508407
0.814227
1.07672
1.28938
1.45278
1.57267
1.65747
1.71606
1.75595
1.78201
1.79631
1.79894
1.7892
1.76649
1.73133
1.68574
1.63299
1.57674
1.52044
1.46647
1.41565
1.36731
1.31987
1.2716
1.22117
1.16804
1.11248
1.05493
0.995242
0.932343
0.864459
0.789566
0.705785
0.611762
0.506851
0.390924
0.264025
0.126097
-0.0232308
-0.184734
-0.359476
-0.548543
-0.752813
-0.972857
-1.20894
-1.46089
-1.72763
-2.0064
-2.29148
-2.57239
-2.83246
-3.04859
-3.19341
-3.23998
-3.16899
-2.97693
-2.67984
-2.30786
-1.89402
-1.46495
-1.03709
-0.617151
-0.204733
0.196568
0.576473
0.919425
1.20881
1.43752
1.60769
1.7278
1.80909
1.86309
1.89919
1.92296
1.93611
1.93782
1.92637
1.90033
1.8598
1.8072
1.74662
1.6827
1.61979
1.56091
1.5069
1.45657
1.40757
1.35752
1.30467
1.24843
1.18955
1.12905
1.06704
1.00224
0.932397
0.85496
0.767594
0.668688
0.557671
0.434671
0.299978
0.15371
-0.00447635
-0.175538
-0.360875
-0.561941
-0.779913
-1.01564
-1.26979
-1.54284
-1.83458
-2.14329
-2.46415
-2.78671
-3.09239
-3.35361
-3.53605
-3.60421
-3.53097
-3.3102
-2.96366
-2.53269
-2.06089
-1.58124
-1.11198
-0.658617
-0.217961
0.222863
0.652012
1.03517
1.35229
1.59572
1.76999
1.88711
1.9618
2.00876
2.03965
2.06076
2.07304
2.07435
2.06167
2.03241
1.98607
1.92561
1.85623
1.78373
1.71366
1.64984
1.59313
1.54154
1.49172
1.44048
1.38547
1.32606
1.2637
1.20035
1.13649
1.07051
0.999509
0.920301
0.829962
0.726548
0.609657
0.479811
0.337631
0.183486
0.0170984
-0.162707
-0.357765
-0.569973
-0.800807
-1.05134
-1.32264
-1.61592
-1.93206
-2.27076
-2.62879
-2.99644
-3.35352
-3.66757
-3.89602
-3.9925
-3.91883
-3.66446
-3.25895
-2.75923
-2.2227
-1.6895
-1.17909
-0.694676
-0.229273
0.252296
0.736141
1.16293
1.50854
1.7649
1.93998
2.05042
2.11501
2.15222
2.1765
2.1948
2.20682
2.20852
2.19535
2.16313
2.11047
2.04115
1.96185
1.87972
1.8018
1.73304
1.67426
1.62234
1.57256
1.52079
1.46387
1.40105
1.33487
1.26867
1.20345
1.1371
1.06581
0.985663
0.892983
0.785362
0.662719
0.526166
0.376732
0.215125
0.0411991
-0.146494
-0.350357
-0.572837
-0.815693
-1.08011
-1.36749
-1.67988
-2.01944
-2.38766
-2.78375
-3.19972
-3.61436
-3.98994
-4.27438
-4.40781
-4.33647
-4.04232
-3.56569
-2.98538
-2.37656
-1.78714
-1.23656
-0.724241
-0.238317
0.285348
0.830083
1.30431
1.67906
1.94589
2.11781
2.21744
2.26799
2.29246
2.30878
2.32447
2.3372
2.34033
2.32768
2.29296
2.23338
2.15399
2.06352
1.97052
1.88393
1.81025
1.75022
1.69909
1.65035
1.5988
1.54025
1.47356
1.40294
1.33377
1.26775
1.20194
1.1313
1.05113
0.956779
0.845156
0.716749
0.573539
0.417
0.248293
0.0675011
-0.127168
-0.33887
-0.570759
-0.82483
-1.1022
-1.40446
-1.73463
-2.09622
-2.49285
-2.92723
-3.39443
-3.87303
-4.31977
-4.67189
-4.85337
-4.78853
-4.44679
-3.88354
-3.20838
-2.5191
-1.87132
-1.28246
-0.746272
-0.24477
0.322568
0.935165
1.46101
1.86546
2.1395
2.3035
2.38777
2.41991
2.42833
2.43541
2.44912
2.46394
2.4698
2.459
2.42249
2.35519
2.2643
2.1613
2.05596
1.95966
1.88113
1.82093
1.77198
1.72533
1.67491
1.61504
1.54376
1.46771
1.39534
1.3292
1.26499
1.19598
1.1168
1.02152
0.905962
0.771618
0.621722
0.458139
0.282624
0.0956531
-0.105003
-0.323522
-0.563975
-0.828529
-1.11793
-1.43379
-1.78019
-2.16207
-2.58528
-3.05733
-3.57817
-4.12727
-4.65563
-5.08892
-5.33272
-5.2807
-4.88149
-4.21167
-3.42469
-2.64644
-1.93907
-1.31496
-0.759838
-0.248353
0.364594
1.05281
1.63486
2.06949
2.3464
2.49684
2.56096
2.56988
2.55853
2.55519
2.56809
2.58692
2.5969
2.58966
2.55245
2.47633
2.37218
2.25526
2.13588
2.02858
1.94528
1.88633
1.84122
1.79779
1.74956
1.68881
1.61182
1.52891
1.45298
1.38758
1.32623
1.25985
1.18279
1.08744
0.967824
0.827161
0.670503
0.499839
0.317718
0.12528
-0.0802766
-0.304508
-0.552723
-0.827155
-1.12774
-1.45579
-1.81674
-2.21687
-2.66401
-3.1721
-3.74827
-4.3745
-4.9956
-5.52519
-5.8496
-5.82
-5.35068
-4.54863
-3.62981
-2.7542
-1.9874
-1.33241
-0.764182
-0.248857
0.412193
1.1845
1.82777
2.29312
2.56711
2.69734
2.73655
2.71695
2.68159
2.66679
2.68078
2.70612
2.72156
2.72002
2.68377
2.59725
2.47765
2.34555
2.21013
2.09014
2.00223
1.94637
1.90712
1.86794
1.8232
1.76229
1.67798
1.58618
1.5062
1.44267
1.38571
1.32286
1.24919
1.15486
1.03078
0.883166
0.719684
0.541786
0.353144
0.155982
-0.0532551
-0.281989
-0.537223
-0.82111
-1.13217
-1.47088
-1.84461
-2.26077
-2.72828
-3.26953
-3.90189
-4.61185
-5.33725
-5.97948
-6.40789
-6.41522
-5.85951
-4.89197
-3.81815
-2.83756
-2.01339
-1.3334
-0.75877
-0.246155
0.466321
1.33177
2.04166
2.53862
2.80195
2.90411
2.91419
2.8602
2.79587
2.76875
2.78667
2.82174
2.84357
2.85043
2.81765
2.71834
2.58058
2.43244
2.27857
2.14371
2.05138
2.00104
1.97014
1.93595
1.8963
1.83642
1.74248
1.639
1.55437
1.49427
1.44356
1.3849
1.3161
1.22425
1.09488
0.939345
0.769098
0.583676
0.388428
0.187338
-0.0241924
-0.256074
-0.517664
-0.810838
-1.13182
-1.47951
-1.86424
-2.29427
-2.77754
-3.34764
-4.03595
-4.83626
-5.67771
-6.44925
-7.01139
-7.07751
-6.4142
-5.23787
-3.98283
-2.89142
-2.0144
-1.31693
-0.74334
-0.240214
0.528244
1.49612
2.2784
2.8087
3.05089
3.11576
3.09375
2.99875
2.89952
2.85944
2.88534
2.93431
2.96251
2.98112
2.95573
2.83996
2.68057
2.51639
2.34114
2.1885
2.09204
2.05039
2.0309
2.0018
1.96926
1.91246
1.8056
1.68664
1.59673
1.5422
1.50009
1.44576
1.38358
1.29627
1.16014
0.99529
0.818646
0.62522
0.423054
0.218901
0.0066756
-0.226801
-0.494185
-0.79681
-1.12745
-1.48217
-1.87616
-2.31825
-2.81152
-3.40447
-4.14722
-5.04463
-6.01386
-6.93014
-7.6635
-7.82114
-7.02219
-5.58054
-4.11557
-2.9105
-1.98823
-1.28244
-0.71793
-0.231101
0.599711
1.67894
2.53962
3.10681
3.31346
3.33017
3.27555
3.13183
2.99046
2.93705
2.9765
3.04482
3.07758
3.11218
3.10028
2.96228
2.77686
2.59821
2.39785
2.22356
2.12334
2.09451
2.09034
2.06526
2.04238
1.99208
1.86762
1.72819
1.63234
1.58632
1.55584
1.50505
1.45158
1.3719
1.2265
1.05042
0.868348
0.666156
0.45644
0.2502
0.039131
-0.19412
-0.46686
-0.779521
-1.11995
-1.47928
-1.88092
-2.3341
-2.83023
-3.43809
-4.23223
-5.23397
-6.34262
-7.41529
-8.3667
-8.66451
-7.69247
-5.91144
-4.20656
-2.88965
-1.93326
-1.22993
-0.68289
-0.218981
0.683249
1.8814
2.82653
3.43747
3.58856
3.54422
3.46066
3.25879
3.06629
2.99952
3.06003
3.15501
3.18738
3.24339
3.25444
3.08525
2.86807
2.67919
2.44879
2.24772
2.14426
2.1336
2.14982
2.12566
2.11577
2.0776
1.92882
1.7624
1.66011
1.62655
1.61173
1.5621
1.51992
1.45252
1.29385
1.10389
0.918422
0.706256
0.487927
0.280741
0.0729706
-0.157877
-0.435684
-0.759477
-1.11037
-1.47117
-1.87894
-2.34383
-2.83399
-3.4467
-4.28728
-5.4015
-6.66156
-7.89455
-9.12179
-9.63155
-8.43572
-6.21825
-4.24452
-2.82412
-1.84869
-1.15996
-0.63887
-0.20411
0.782599
2.10426
3.13953
3.80684
3.87422
3.75344
3.65136
3.37911
3.12428
3.04454
3.13593
3.26761
3.28965
3.37406
3.4227
3.20838
2.95202
2.76142
2.4941
2.25954
2.15353
2.16787
2.21138
2.18178
2.18921
2.17215
1.98936
1.7877
1.67871
1.66286
1.6692
1.61579
1.58819
1.54017
1.36186
1.15451
0.969395
0.745317
0.516751
0.310013
0.107997
-0.117791
-0.400555
-0.737176
-1.10008
-1.45798
-1.87045
-2.35021
-2.82342
-3.42858
-4.30828
-5.54484
-6.96968
-8.35352
-9.9268
-10.7535
-9.26458
-6.48346
-4.21685
-2.71001
-1.73468
-1.07367
-0.586794
-0.186821
0.903352
2.34766
3.47775
4.22348
4.16728
3.95154
3.85171
3.49233
3.16122
3.0695
3.20424
3.38688
3.38084
3.50279
3.61139
3.33057
3.02534
2.84816
2.53397
2.25726
2.14968
2.19756
2.27798
2.23152
2.26202
2.28007
2.04924
1.80209
1.68665
1.69525
1.73049
1.66442
1.65563
1.63776
1.42997
1.20056
1.02226
0.783147
0.542007
0.337505
0.144004
-0.0734359
-0.361269
-0.71307
-1.09075
-1.4396
-1.85522
-2.35701
-2.79937
-3.38222
-4.29063
-5.66201
-7.26865
-8.77238
-10.7756
-12.0712
-10.1938
-6.68266
-4.11005
-2.5447
-1.59242
-0.972732
-0.527807
-0.167505
1.05386
2.61079
3.83834
4.69943
4.46295
4.12976
4.06839
3.59786
3.1734
3.07147
3.26494
3.51918
3.45568
3.62718
3.82948
3.44977
3.08306
2.94436
2.56847
2.23872
2.13096
2.22283
2.35395
2.27166
2.33285
2.40731
2.10806
1.80311
1.68225
1.72366
1.79891
1.70539
1.72101
1.74944
1.49719
1.23966
1.0787
0.819523
0.56262
0.362731
0.180749
-0.0242165
-0.317517
-0.687515
-1.08462
-1.41556
-1.83232
-2.36926
-2.76278
-3.30642
-4.22899
-5.75131
-7.5645
-9.12464
-11.6556
-13.6381
-11.2404
-6.78241
-3.91053
-2.32734
-1.42423
-0.859316
-0.463218
-0.146587
1.24649
2.89153
4.21556
5.25161
4.75424
4.27616
4.31176
3.6947
3.15652
3.04725
3.31761
3.67379
3.50647
3.74341
4.08949
3.5626
3.11809
3.05731
2.59737
2.20136
2.09543
2.24352
2.44548
2.29736
2.39939
2.56201
2.16479
1.7878
1.66371
1.74785
1.87928
1.73494
1.7824
1.88105
1.56193
1.26851
1.14135
0.854114
0.577293
0.38527
0.217916
0.0306578
-0.268898
-0.66068
-1.0846
-1.38499
-1.79979
-2.39365
-2.71452
-3.20043
-4.11703
-5.81098
-7.86978
-9.37565
-12.5456
-15.5238
-12.4233
-6.73757
-3.6058
-2.05935
-1.23349
-0.735933
-0.394428
-0.12451
1.49925
3.18595
4.59956
5.90361
5.03123
4.37462
4.59726
3.78093
3.10571
2.99339
3.36105
3.86397
3.52235
3.84572
4.40869
3.66382
3.12056
3.19758
2.61984
2.14218
2.04092
2.25898
2.56133
2.30172
2.45811
2.75517
2.21736
1.75269
1.62916
1.76717
1.97845
1.7477
1.83697
2.04068
1.62176
1.28266
1.21422
0.886357
0.584474
0.404829
0.255064
0.0922081
-0.214951
-0.632416
-1.09457
-1.34649
-1.75421
-2.43906
-2.65504
-3.06425
-3.94711
-5.83855
-8.20642
-9.48115
-13.4122
-17.8184
-13.7636
-6.4882
-3.18623
-1.74483
-1.02455
-0.605331
-0.322858
-0.101709
1.83793
3.48768
4.97486
6.688
5.28014
4.40377
4.94709
3.85295
3.01551
2.90639
3.39258
4.10827
3.48838
3.92584
4.81062
3.7457
3.07706
3.38013
2.63391
2.05776
1.96519
2.26754
2.71368
2.27514
2.50385
3.00157
2.2622
1.69389
1.57678
1.78026
2.106
1.73627
1.8807
2.23935
1.67306
1.27618
1.30309
0.915279
0.582308
0.421322
0.291552
0.161731
-0.15521
-0.602082
-1.11964
-1.29816
-1.69014
-2.51714
-2.58387
-2.89902
-3.71005
-5.82969
-8.60915
-9.38564
-14.2058
-20.6382
-15.2833
-5.95597
-2.64745
-1.39075
-0.802487
-0.47033
-0.249884
-0.0785936
2.29879
3.78721
5.31847
7.64908
5.48224
4.33566
5.39231
3.90446
2.88
2.78296
3.40723
4.43219
3.38441
3.97221
5.32677
3.79719
2.96975
3.62561
2.63586
1.94434
1.86608
2.26603
2.9192
2.20464
2.52938
3.32079
2.29346
1.60713
1.50504
1.78454
2.27502
1.69061
1.90804
2.49186
1.71066
1.24134
1.41612
0.93924
0.568615
0.434983
0.326444
0.240859
-0.0893006
-0.568292
-1.16652
-1.23749
-1.59945
-2.64321
-2.49903
-2.70749
-3.39489
-5.7766
-9.12968
-9.02092
-14.8557
-24.1316
-17.0051
-5.0401
-1.99352
-1.00697
-0.572822
-0.333681
-0.176778
-0.0555353
2.9317
4.07099
5.59764
8.84618
5.61242
4.13432
5.97537
3.92507
2.69309
2.62034
3.39647
4.87009
3.18387
3.96914
5.99864
3.803
2.77541
3.96209
2.61928
1.79796
1.74175
2.24896
3.20032
2.07298
2.52492
3.73843
2.30222
1.48802
1.41286
1.77562
2.50314
1.59741
1.91153
2.8177
1.72732
1.1682
1.5645
0.955599
0.540877
0.446493
0.358386
0.331641
-0.0170751
-0.528603
-1.24394
-1.16149
-1.47058
-2.83722
-2.3961
-2.49473
-2.98876
-5.66578
-9.84146
-8.3047
-15.2644
-28.4862
-18.9508
-3.61292
-1.24083
-0.605813
-0.341146
-0.197924
-0.104664
-0.0328561
3.80401
4.32045
5.76725
10.3574
5.63764
3.75414
6.75292
3.89851
2.44882
2.41684
3.34675
5.46748
2.85239
3.89586
6.87997
3.74251
2.46439
4.42684
2.57392
1.61472
1.59102
2.20755
3.58671
1.85781
2.47758
4.28754
2.27537
1.33232
1.29997
1.7465
2.81366
1.43936
1.88141
3.24215
1.71321
1.04425
1.76324
0.960282
0.496251
0.457143
0.385456
0.436646
0.0611923
-0.479123
-1.36306
-1.06666
-1.28756
-3.12494
-2.26717
-2.26892
-2.47698
-5.47508
-10.845
-7.13948
-15.3013
-33.937
-21.1394
-1.51516
-0.422854
-0.201267
-0.112737
-0.0652799
-0.0344908
-0.0108236
)
;

boundaryField
{
    left
    {
        type            calculated;
        value           uniform 0;
    }
    right
    {
        type            calculated;
        value           uniform 0;
    }
    interface
    {
        type            calculated;
        value           nonuniform List<scalar> 
64
(
3.80401
4.32045
5.76725
10.3574
5.63764
3.75414
6.75292
3.89851
2.44882
2.41684
3.34675
5.46748
2.85239
3.89586
6.87997
3.74251
2.46439
4.42684
2.57392
1.61472
1.59102
2.20755
3.58671
1.85781
2.47758
4.28754
2.27537
1.33232
1.29997
1.7465
2.81366
1.43936
1.88141
3.24215
1.71321
1.04425
1.76324
0.960282
0.496251
0.457143
0.385456
0.436646
0.0611923
-0.479123
-1.36306
-1.06666
-1.28756
-3.12494
-2.26717
-2.26892
-2.47698
-5.47508
-10.845
-7.13948
-15.3013
-33.937
-21.1394
-1.51516
-0.422854
-0.201267
-0.112737
-0.0652799
-0.0344908
-0.0108236
)
;
    }
    bottom
    {
        type            calculated;
        value           nonuniform List<scalar> 
64
(
0.00630492
0.0187343
0.0306387
0.0417202
0.0517499
0.0605784
0.0681354
0.0744188
0.079478
0.0833961
0.0862728
0.0882124
0.0893169
0.0896831
0.0894034
0.0885671
0.0872608
0.0855682
0.0835671
0.0813259
0.0789005
0.0763314
0.0736436
0.0708472
0.0679399
0.0649097
0.061737
0.0583962
0.0548566
0.0510821
0.0470325
0.0426643
0.0379322
0.0327918
0.027201
0.0211224
0.0145236
0.00737855
-0.000332399
-0.00862091
-0.0174885
-0.026923
-0.0368929
-0.0473409
-0.0581754
-0.0692617
-0.0804126
-0.091381
-0.101856
-0.111464
-0.119782
-0.12636
-0.130753
-0.13257
-0.131512
-0.127416
-0.120277
-0.110248
-0.0976156
-0.0827651
-0.0661297
-0.0481503
-0.0292469
-0.0098074
)
;
    }
    defaultFaces
    {
        type            empty;
    }
}


// ************************************************************************* //
