/*--------------------------------*- C++ -*----------------------------------*\
| =========                 |                                                 |
| \\      /  F ield         | OpenFOAM: The Open Source CFD Toolbox           |
|  \\    /   O peration     | Version:  5.x                                   |
|   \\  /    A nd           | Web:      www.OpenFOAM.org                      |
|    \\/     M anipulation  |                                                 |
\*---------------------------------------------------------------------------*/
FoamFile
{
    version     2.0;
    format      ascii;
    class       volScalarField;
    location    "19";
    object      gradTy;
}
// * * * * * * * * * * * * * * * * * * * * * * * * * * * * * * * * * * * * * //

dimensions      [0 -1 0 1 0 0 0];

internalField   nonuniform List<scalar> 
2048
(
-26.4236
-26.3961
-26.3417
-26.262
-26.1592
-26.0358
-25.8946
-25.7383
-25.5697
-25.3915
-25.206
-25.0154
-24.8215
-24.6262
-24.4308
-24.2368
-24.0452
-23.8569
-23.6727
-23.4932
-23.3188
-23.1498
-22.9866
-22.8294
-22.6784
-22.5338
-22.3959
-22.2651
-22.1417
-22.0262
-21.9192
-21.8214
-21.7333
-21.656
-21.5903
-21.5372
-21.4979
-21.4735
-21.4653
-21.4745
-21.5023
-21.55
-21.6189
-21.71
-21.8245
-21.9629
-22.1257
-22.3128
-22.5236
-22.7567
-23.0096
-23.2793
-23.5613
-23.8504
-24.1406
-24.4252
-24.6976
-24.9511
-25.1796
-25.3777
-25.5412
-25.6666
-25.7515
-25.7943
-26.446
-26.4177
-26.3621
-26.2808
-26.1759
-26.0503
-25.9067
-25.7482
-25.5776
-25.3974
-25.2102
-25.018
-24.8228
-24.6262
-24.4298
-24.2348
-24.0425
-23.8536
-23.6689
-23.489
-23.3143
-23.1452
-22.9818
-22.8244
-22.6731
-22.5283
-22.3902
-22.259
-22.1353
-22.0194
-21.9119
-21.8134
-21.7247
-21.6466
-21.58
-21.5261
-21.4858
-21.4605
-21.4512
-21.4594
-21.4862
-21.5329
-21.6009
-21.6912
-21.805
-21.9431
-22.106
-22.2937
-22.5056
-22.7405
-22.9962
-23.2693
-23.5555
-23.8495
-24.145
-24.4352
-24.7129
-24.9713
-25.2041
-25.4058
-25.572
-25.6994
-25.7855
-25.829
-26.4887
-26.4592
-26.4011
-26.3164
-26.2076
-26.0776
-25.9297
-25.7669
-25.5922
-25.4084
-25.2179
-25.0228
-24.8249
-24.6261
-24.4277
-24.231
-24.0372
-23.8472
-23.6617
-23.4811
-23.3059
-23.1364
-22.9727
-22.8149
-22.6633
-22.5181
-22.3794
-22.2477
-22.1232
-22.0065
-21.898
-21.7984
-21.7084
-21.6288
-21.5607
-21.5051
-21.463
-21.4358
-21.4246
-21.4308
-21.4556
-21.5005
-21.5667
-21.6555
-21.7681
-21.9055
-22.0684
-22.257
-22.471
-22.7094
-22.9701
-23.2498
-23.5442
-23.8476
-24.1534
-24.4541
-24.7421
-25.01
-25.251
-25.4595
-25.6309
-25.7619
-25.8504
-25.895
-26.5499
-26.5185
-26.4569
-26.3672
-26.2526
-26.1162
-25.9619
-25.793
-25.6126
-25.4236
-25.2285
-25.0292
-24.8277
-24.6257
-24.4245
-24.2254
-24.0296
-23.838
-23.6513
-23.4698
-23.294
-23.1239
-22.9598
-22.8016
-22.6495
-22.5037
-22.3643
-22.2318
-22.1063
-21.9884
-21.8785
-21.7773
-21.6855
-21.6039
-21.5336
-21.4755
-21.431
-21.4011
-21.3872
-21.3905
-21.4126
-21.4547
-21.5183
-21.6048
-21.7156
-21.8519
-22.0146
-22.2044
-22.4212
-22.6643
-22.9319
-23.221
-23.5271
-23.8441
-24.1648
-24.481
-24.784
-25.0656
-25.3184
-25.5364
-25.715
-25.8512
-25.9428
-25.9889
-26.6283
-26.5944
-26.5279
-26.4317
-26.3092
-26.1646
-26.0019
-25.8251
-25.6375
-25.4421
-25.2412
-25.0368
-24.8308
-24.6247
-24.42
-24.218
-24.0197
-23.8262
-23.638
-23.4555
-23.2789
-23.1083
-22.9437
-22.785
-22.6323
-22.4858
-22.3456
-22.212
-22.0854
-21.966
-21.8545
-21.7513
-21.6572
-21.573
-21.4998
-21.4388
-21.391
-21.3577
-21.3404
-21.3402
-21.3587
-21.3973
-21.4576
-21.5411
-21.6493
-21.7839
-21.9461
-22.1369
-22.3569
-22.6057
-22.8819
-23.1828
-23.5038
-23.8385
-24.1787
-24.515
-24.8376
-25.137
-25.4049
-25.6349
-25.8224
-25.9647
-26.06
-26.1079
-26.7229
-26.6857
-26.6131
-26.5084
-26.3762
-26.2213
-26.0485
-25.8621
-25.666
-25.4629
-25.2553
-25.045
-24.8338
-24.623
-24.4142
-24.2087
-24.0076
-23.8118
-23.6219
-23.4383
-23.261
-23.0899
-22.9248
-22.7656
-22.6123
-22.465
-22.3239
-22.1892
-22.0611
-21.9402
-21.8266
-21.7211
-21.6243
-21.5371
-21.4606
-21.3959
-21.3443
-21.3071
-21.2857
-21.2813
-21.2955
-21.3299
-21.386
-21.4657
-21.5707
-21.7029
-21.864
-22.0556
-22.2787
-22.5337
-22.8199
-23.1347
-23.4737
-23.8299
-24.1942
-24.5555
-24.9023
-25.2234
-25.5095
-25.7536
-25.9513
-26.1003
-26.1996
-26.2493
-26.8331
-26.7918
-26.7115
-26.5965
-26.4523
-26.2849
-26.1001
-25.9027
-25.6968
-25.4852
-25.2702
-25.0535
-24.8364
-24.6204
-24.407
-24.1975
-23.9931
-23.7949
-23.6033
-23.4186
-23.2407
-23.0691
-22.9037
-22.744
-22.59
-22.4419
-22.2997
-22.1637
-22.0342
-21.9114
-21.7957
-21.6876
-21.5877
-21.4971
-21.4168
-21.348
-21.2921
-21.2504
-21.2243
-21.2152
-21.2245
-21.2539
-21.3052
-21.3803
-21.4812
-21.6102
-21.7694
-21.9611
-22.1871
-22.4485
-22.7454
-23.076
-23.4359
-23.8175
-24.2105
-24.6019
-24.9777
-25.3245
-25.6317
-25.8916
-26.1003
-26.2562
-26.3594
-26.4108
-26.9583
-26.912
-26.8223
-26.6947
-26.5363
-26.3543
-26.1556
-25.9457
-25.729
-25.5083
-25.2854
-25.0616
-24.8383
-24.6167
-24.3981
-24.1842
-23.9763
-23.7754
-23.5822
-23.3965
-23.2181
-23.0463
-22.8806
-22.7205
-22.5659
-22.4168
-22.2735
-22.1363
-22.0052
-21.8806
-21.7625
-21.6516
-21.5483
-21.4538
-21.3692
-21.2959
-21.2353
-21.1886
-21.1574
-21.1429
-21.1468
-21.1706
-21.2163
-21.286
-21.382
-21.5068
-21.6633
-21.8542
-22.0823
-22.3499
-22.658
-23.0058
-23.3891
-23.8002
-24.227
-24.6538
-25.0637
-25.4404
-25.7713
-26.0484
-26.2682
-26.4307
-26.5373
-26.5901
-27.0986
-27.0461
-26.945
-26.8023
-26.627
-26.428
-26.2135
-25.9899
-25.7616
-25.5312
-25.3002
-25.0693
-24.8395
-24.6117
-24.3876
-24.1689
-23.9572
-23.7535
-23.5586
-23.3722
-23.1936
-23.0219
-22.8561
-22.6957
-22.5404
-22.3903
-22.2459
-22.1073
-21.9747
-21.8481
-21.7276
-21.6136
-21.5068
-21.4081
-21.3188
-21.2406
-21.1747
-21.1227
-21.086
-21.0658
-21.0637
-21.0814
-21.1208
-21.1843
-21.2744
-21.394
-21.5466
-21.7355
-21.9647
-22.2376
-22.5569
-22.9229
-23.3323
-23.7768
-24.2426
-24.711
-25.1606
-25.5715
-25.9286
-26.2236
-26.4542
-26.6223
-26.7313
-26.7849
-27.2539
-27.194
-27.0791
-26.9185
-26.7233
-26.5048
-26.2727
-26.0341
-25.7937
-25.5535
-25.3143
-25.0763
-24.8397
-24.6055
-24.3754
-24.1515
-23.9355
-23.7291
-23.5326
-23.3457
-23.1674
-22.996
-22.8305
-22.6698
-22.5138
-22.3627
-22.217
-22.0771
-21.943
-21.8146
-21.6917
-21.5745
-21.4637
-21.3604
-21.2662
-21.1826
-21.1112
-21.0535
-21.0109
-20.9847
-20.9762
-20.9872
-21.0197
-21.0762
-21.1595
-21.2729
-21.4202
-21.6058
-21.8346
-22.1116
-22.4414
-22.8261
-23.2637
-23.7458
-24.2566
-24.7732
-25.2689
-25.7185
-26.104
-26.4171
-26.6573
-26.8293
-26.9393
-26.9928
-27.4246
-27.3556
-27.2243
-27.0423
-26.824
-26.5833
-26.3316
-26.0771
-25.8242
-25.5744
-25.3274
-25.0823
-24.839
-24.5981
-24.3615
-24.1318
-23.9114
-23.702
-23.5042
-23.3173
-23.1397
-22.9692
-22.8041
-22.6434
-22.4866
-22.3344
-22.1873
-22.0461
-21.9106
-21.7804
-21.6551
-21.5347
-21.4198
-21.3116
-21.2119
-21.1226
-21.0454
-20.9818
-20.9331
-20.9005
-20.8853
-20.8891
-20.9141
-20.9629
-21.0385
-21.1445
-21.2852
-21.4658
-21.6923
-21.9717
-22.3107
-22.7141
-23.1818
-23.7057
-24.2679
-24.8405
-25.3894
-25.8826
-26.2986
-26.6291
-26.8768
-27.0502
-27.1591
-27.2114
-27.6111
-27.5312
-27.3802
-27.173
-26.9279
-26.6621
-26.389
-26.1177
-25.8524
-25.5935
-25.3393
-25.0876
-24.8375
-24.5895
-24.3459
-24.1099
-23.8846
-23.6722
-23.4733
-23.287
-23.1107
-22.9418
-22.7775
-22.6167
-22.4591
-22.3055
-22.157
-22.0145
-21.8778
-21.7462
-21.6185
-21.4948
-21.3754
-21.262
-21.1564
-21.0611
-20.9778
-20.9082
-20.8533
-20.8142
-20.7919
-20.7882
-20.8051
-20.8454
-20.9125
-21.01
-21.1427
-21.3163
-21.5384
-21.8177
-22.164
-22.5853
-23.0845
-23.6544
-24.2752
-24.9128
-25.5234
-26.0657
-26.5134
-26.8597
-27.1117
-27.2832
-27.3885
-27.4382
-27.814
-27.7212
-27.5466
-27.3098
-27.0337
-26.7397
-26.4434
-26.1547
-25.8774
-25.6104
-25.3499
-25.0921
-24.8353
-24.58
-24.3287
-24.0855
-23.855
-23.6396
-23.44
-23.2548
-23.0808
-22.914
-22.751
-22.5902
-22.4315
-22.2762
-22.1261
-21.9824
-21.845
-21.7121
-21.5824
-21.4552
-21.3312
-21.2121
-21.1003
-20.9985
-20.909
-20.8332
-20.7721
-20.7264
-20.6969
-20.6852
-20.6936
-20.7249
-20.7826
-20.8705
-20.9937
-21.1585
-21.3735
-21.6497
-22.0005
-22.4382
-22.9696
-23.5897
-24.277
-24.9903
-25.6727
-26.2698
-26.7502
-27.1093
-27.3612
-27.5266
-27.625
-27.6706
-28.0343
-27.9258
-27.7234
-27.4517
-27.1399
-26.8145
-26.4934
-26.1869
-25.8984
-25.6247
-25.3592
-25.0961
-24.8329
-24.5698
-24.3098
-24.0587
-23.8224
-23.6039
-23.404
-23.2209
-23.0502
-22.8864
-22.725
-22.5642
-22.4042
-22.2468
-22.0947
-21.9501
-21.8122
-21.6786
-21.547
-21.4164
-21.2876
-21.1622
-21.0437
-20.9353
-20.8393
-20.7573
-20.69
-20.6378
-20.6011
-20.5811
-20.5804
-20.6021
-20.6497
-20.7272
-20.8394
-20.9933
-21.1985
-21.4681
-21.8196
-22.2711
-22.8348
-23.509
-24.2715
-25.0731
-25.8394
-26.4979
-27.0107
-27.3783
-27.6243
-27.7783
-27.8662
-27.9056
-28.273
-28.1457
-27.9104
-27.5977
-27.2451
-26.885
-26.5374
-26.213
-25.9147
-25.6362
-25.3675
-25.1
-24.8305
-24.5592
-24.2895
-24.0293
-23.7866
-23.565
-23.3652
-23.1853
-23.0192
-22.8593
-22.6999
-22.5391
-22.3775
-22.2172
-22.0628
-21.9173
-21.7797
-21.6461
-21.5129
-21.3789
-21.2449
-21.1129
-20.987
-20.8716
-20.7691
-20.6809
-20.6076
-20.549
-20.505
-20.4766
-20.4664
-20.478
-20.515
-20.5811
-20.6811
-20.8221
-21.0145
-21.2733
-21.6209
-22.0823
-22.6774
-23.4091
-24.2562
-25.1613
-26.0265
-26.7536
-27.2973
-27.667
-27.8996
-28.0361
-28.1093
-28.1407
-28.5312
-28.3815
-28.1074
-27.7468
-27.3475
-26.9495
-26.574
-26.2319
-25.9256
-25.6449
-25.3752
-25.1042
-24.8285
-24.5487
-24.2678
-23.9971
-23.7474
-23.5226
-23.3234
-23.148
-22.988
-22.8334
-22.6763
-22.5153
-22.3515
-22.1876
-22.0301
-21.8842
-21.7478
-21.615
-21.4805
-21.3431
-21.2036
-21.0642
-20.9302
-20.8076
-20.6986
-20.6043
-20.5254
-20.4607
-20.4095
-20.3724
-20.3522
-20.3533
-20.3793
-20.4334
-20.5199
-20.6463
-20.8228
-21.066
-21.404
-21.8703
-22.4946
-23.2864
-24.2279
-25.2551
-26.238
-27.0413
-27.6124
-27.9753
-28.1857
-28.2977
-28.3518
-28.373
-28.8104
-28.6339
-28.3144
-27.8979
-27.4452
-27.0064
-26.6018
-26.2423
-25.9305
-25.6508
-25.3828
-25.1093
-24.8276
-24.5388
-24.2449
-23.9616
-23.7046
-23.4765
-23.2784
-23.109
-22.957
-22.809
-22.6546
-22.4931
-22.3268
-22.1579
-21.9964
-21.8505
-21.7164
-21.5855
-21.45
-21.3092
-21.1642
-21.0164
-20.8735
-20.7435
-20.6279
-20.5278
-20.4437
-20.3734
-20.3151
-20.2689
-20.2385
-20.2286
-20.2434
-20.2851
-20.3572
-20.4673
-20.625
-20.8473
-21.1688
-21.6336
-22.2838
-23.1369
-24.1825
-25.3544
-26.4789
-27.3664
-27.9586
-28.3032
-28.4805
-28.5604
-28.5908
-28.5997
-29.1122
-28.9034
-28.5315
-28.0494
-27.5359
-27.0542
-26.6195
-26.2429
-25.9288
-25.6542
-25.3911
-25.1157
-24.828
-24.5303
-24.221
-23.9226
-23.658
-23.4265
-23.2297
-23.0683
-22.9266
-22.787
-22.6351
-22.4728
-22.3036
-22.128
-21.9611
-21.8159
-21.6858
-21.5583
-21.422
-21.2776
-21.127
-20.9697
-20.8168
-20.6793
-20.5573
-20.4515
-20.3628
-20.2874
-20.2224
-20.167
-20.1256
-20.1045
-20.1081
-20.1373
-20.194
-20.2867
-20.423
-20.6185
-20.9156
-21.3706
-22.0421
-22.956
-24.1143
-25.4587
-26.7559
-27.7355
-28.3384
-28.6497
-28.7817
-28.8214
-28.8237
-28.8184
-29.4384
-29.1906
-28.7591
-28.2001
-27.6169
-27.0913
-26.626
-26.2321
-25.9201
-25.6554
-25.4012
-25.1241
-24.8303
-24.5243
-24.1961
-23.8792
-23.6075
-23.3725
-23.1767
-23.0257
-22.8971
-22.7681
-22.6184
-22.4547
-22.2825
-22.0978
-21.9235
-21.7801
-21.656
-21.5338
-21.3967
-21.2485
-21.0926
-20.9243
-20.7597
-20.6152
-20.4869
-20.3754
-20.283
-20.2034
-20.132
-20.0669
-20.014
-19.9814
-19.9741
-19.991
-20.0315
-20.1061
-20.2191
-20.3814
-20.645
-21.08
-21.7674
-22.739
-24.0157
-25.5671
-27.0778
-28.1562
-28.7543
-29.0135
-29.0864
-29.0778
-29.0478
-29.0266
-29.7912
-29.4956
-28.9977
-28.3482
-27.685
-27.117
-26.6205
-26.2084
-25.904
-25.6547
-25.4147
-25.1348
-24.8345
-24.5222
-24.1704
-23.8302
-23.5531
-23.3143
-23.1187
-22.9814
-22.869
-22.7534
-22.6048
-22.4388
-22.2644
-22.0673
-21.8824
-21.7428
-21.6272
-21.5129
-21.3743
-21.222
-21.0617
-20.8802
-20.7019
-20.5511
-20.4167
-20.2994
-20.2046
-20.1217
-20.0445
-19.9691
-19.904
-19.8594
-19.8419
-19.8472
-19.8703
-19.927
-20.016
-20.1379
-20.358
-20.7606
-21.4578
-22.4812
-23.8763
-25.6774
-27.4567
-28.6376
-29.2078
-29.3922
-29.3914
-29.3267
-29.2607
-29.2223
-30.1732
-29.8178
-29.2487
-28.492
-27.7358
-27.1307
-26.6025
-26.1695
-25.8803
-25.6527
-25.4335
-25.1482
-24.8403
-24.5261
-24.1441
-23.774
-23.4952
-23.2521
-23.0545
-22.9352
-22.8426
-22.7444
-22.5944
-22.4248
-22.2506
-22.0362
-21.8363
-21.7035
-21.5995
-21.4965
-21.3549
-21.1979
-21.0354
-20.8375
-20.6425
-20.4874
-20.3471
-20.2234
-20.1278
-20.0426
-19.9606
-19.8741
-19.7956
-19.7387
-19.7121
-19.707
-19.7112
-19.7509
-19.8166
-19.8901
-20.0558
-20.4106
-21.1125
-22.1786
-23.6821
-25.7864
-27.909
-29.1899
-29.6998
-29.7825
-29.6927
-29.565
-29.4603
-29.4036
-30.5874
-30.1555
-29.5146
-28.6294
-27.7637
-27.1332
-26.5721
-26.1125
-25.8492
-25.6495
-25.4605
-25.1641
-24.8467
-24.539
-24.1173
-23.7076
-23.435
-23.1865
-22.9823
-22.8874
-22.8182
-22.7428
-22.5871
-22.4121
-22.2428
-22.0046
-21.7831
-21.6619
-21.5729
-21.4861
-21.3385
-21.1756
-21.0151
-20.7964
-20.5802
-20.4244
-20.2782
-20.1469
-20.0529
-19.9666
-19.8809
-19.7821
-19.689
-19.6191
-19.585
-19.5715
-19.5541
-19.5788
-19.6249
-19.6404
-19.7408
-20.0281
-20.732
-21.829
-23.414
-25.8882
-28.457
-29.8242
-30.2292
-30.1796
-29.9862
-29.7897
-29.6445
-29.5692
-31.0379
-30.505
-29.7995
-28.7584
-27.761
-27.1267
-26.5302
-26.0333
-25.8114
-25.6452
-25.4999
-25.182
-24.8517
-24.5657
-24.0901
-23.627
-23.3743
-23.118
-22.8995
-22.8385
-22.7956
-22.7514
-22.5826
-22.3992
-22.244
-21.9722
-21.7197
-21.6181
-21.5471
-21.4839
-21.3248
-21.1541
-21.0029
-20.7567
-20.513
-20.363
-20.2105
-20.069
-19.9803
-19.8938
-19.8064
-19.6934
-19.5841
-19.5003
-19.4608
-19.4425
-19.3985
-19.4116
-19.4452
-19.3909
-19.4158
-19.6099
-20.3184
-21.433
-23.046
-25.9738
-29.132
-30.552
-30.793
-30.5776
-30.2674
-29.9982
-29.8118
-29.7181
-31.5302
-30.8592
-30.1106
-28.8768
-27.7167
-27.1161
-26.4786
-25.926
-25.7687
-25.6387
-25.5572
-25.2006
-24.8515
-24.6129
-24.0627
-23.5259
-23.3166
-23.0482
-22.8023
-22.7895
-22.7743
-22.7739
-22.58
-22.3838
-22.2585
-21.939
-21.6417
-21.5727
-21.5217
-21.4927
-21.313
-21.1312
-21.0022
-20.7185
-20.4381
-20.3045
-20.1444
-19.9885
-19.9106
-19.8243
-19.738
-19.6082
-19.4809
-19.3815
-19.3396
-19.3219
-19.2433
-19.2493
-19.2834
-19.1431
-19.0854
-19.1506
-19.8759
-20.9965
-22.5432
-26.0296
-29.977
-31.3838
-31.385
-30.9694
-30.5317
-30.188
-29.9612
-29.8497
-32.0715
-31.2065
-30.459
-28.9823
-27.6157
-27.1095
-26.4202
-25.7819
-25.7249
-25.6275
-25.6409
-25.2177
-24.8398
-24.6907
-24.035
-23.3948
-23.2675
-22.9791
-22.6849
-22.743
-22.7523
-22.8158
-22.5778
-22.3616
-22.2926
-21.9049
-21.5433
-21.5275
-21.4952
-21.517
-21.3021
-21.104
-21.0177
-20.6817
-20.351
-20.2513
-20.0807
-19.9034
-19.8448
-19.7578
-19.6773
-19.5264
-19.3793
-19.2619
-19.2212
-19.213
-19.0859
-19.0912
-19.1469
-18.8974
-18.7562
-18.6421
-19.411
-20.5338
-21.8589
-26.0347
-31.0516
-32.3274
-31.9954
-31.3466
-30.7746
-30.3573
-30.0919
-29.9638
-32.6723
-31.5279
-30.862
-29.0726
-27.4367
-27.1206
-26.3593
-25.5884
-25.6868
-25.6062
-25.7628
-25.2297
-24.8068
-24.8137
-24.0071
-23.2203
-23.2358
-22.9135
-22.5389
-22.703
-22.7263
-22.8847
-22.5737
-22.3264
-22.3558
-21.8699
-21.416
-21.4857
-21.4648
-21.563
-21.2901
-21.0673
-21.0564
-20.6459
-20.2457
-20.2072
-20.0205
-19.8106
-19.7846
-19.6937
-19.6259
-19.4478
-19.2792
-19.1402
-19.1049
-19.1202
-18.9227
-18.9351
-19.0455
-18.6521
-18.4386
-18.0709
-18.9319
-20.071
-20.9309
-25.9593
-32.4382
-33.3851
-32.6101
-31.7
-30.992
-30.5045
-30.2037
-30.0606
-33.3475
-31.7937
-31.3459
-29.1455
-27.1497
-27.17
-26.3018
-25.3271
-25.6658
-25.5652
-25.9398
-25.2316
-24.7377
-25.0025
-23.9787
-22.9832
-23.2351
-22.8553
-22.3521
-22.6771
-22.6896
-22.9918
-22.5643
-22.2686
-22.4614
-21.8335
-21.2485
-21.4537
-21.4254
-21.6396
-21.2744
-21.0136
-21.1285
-20.6108
-20.1133
-20.1779
-19.9649
-19.7058
-19.7326
-19.6303
-19.5864
-19.3718
-19.181
-19.0147
-18.9892
-19.0501
-18.7483
-18.7774
-18.9927
-18.4018
-18.1481
-17.4168
-18.449
-19.652
-19.6778
-25.7602
-34.2496
-34.5487
-33.2103
-32.0205
-31.1806
-30.6289
-30.2966
-30.1404
-34.1181
-31.9598
-31.9491
-29.1987
-26.7137
-27.2881
-26.2552
-24.972
-25.6807
-25.4881
-26.1957
-25.2164
-24.611
-25.2862
-23.9492
-22.6565
-23.2848
-22.8095
-22.1072
-22.6773
-22.6316
-23.1528
-22.5448
-22.1743
-22.6281
-21.7954
-21.0249
-21.4417
-21.3684
-21.7593
-21.251
-20.9324
-21.2481
-20.5757
-19.9417
-20.1722
-19.9155
-19.5826
-19.6933
-19.5651
-19.5624
-19.2973
-19.085
-18.8834
-18.8717
-19.012
-18.5551
-18.6117
-19.0069
-18.1355
-17.9082
-16.6497
-17.9732
-19.3444
-17.9932
-25.3772
-36.6388
-35.7944
-33.7728
-32.2988
-31.3377
-30.7301
-30.3712
-30.2042
-35.0135
-31.9619
-32.7267
-29.2301
-26.0724
-27.5185
-26.2289
-24.4863
-25.7607
-25.3487
-26.5642
-25.1744
-24.3961
-25.7051
-23.9179
-22.2033
-23.4132
-22.7824
-21.7797
-22.7225
-22.5347
-23.3895
-22.5087
-22.0237
-22.8818
-21.7544
-20.7241
-21.4661
-21.2802
-21.9398
-21.2149
-20.8083
-21.435
-20.5393
-19.7143
-20.2024
-19.8738
-19.4324
-19.6731
-19.4937
-19.5587
-19.2223
-18.9924
-18.7438
-18.7482
-19.0194
-18.3326
-18.4284
-19.1132
-17.8339
-17.7539
-15.7268
-17.5145
-19.2486
-15.7411
-24.7268
-39.8117
-37.0738
-34.271
-32.5273
-31.4619
-30.8085
-30.4285
-30.2528
-36.0746
-31.7087
-33.7558
-29.2372
-25.1504
-27.922
-26.234
-23.8196
-25.9499
-25.1066
-27.0912
-25.0934
-24.0508
-26.3132
-23.883
-21.5738
-23.6591
-22.7814
-21.3362
-22.8413
-22.3725
-23.7323
-22.4478
-21.7898
-23.2574
-21.7087
-20.3177
-21.5515
-21.1395
-22.2053
-21.1591
-20.6204
-21.7157
-20.4999
-19.4087
-20.2859
-19.8416
-19.243
-19.6819
-19.409
-19.582
-19.1434
-18.9051
-18.5934
-18.6123
-19.0906
-18.0673
-18.2139
-19.3465
-17.4654
-17.7365
-14.5883
-17.0794
-19.5069
-12.7486
-23.6962
-44.0418
-38.304
-34.6765
-32.7002
-31.5528
-30.865
-30.4694
-30.2875
-37.3573
-31.074
-35.1425
-29.2175
-23.848
-28.5809
-26.2835
-22.9033
-26.3126
-24.7022
-27.8393
-24.9574
-23.5182
-27.1825
-23.8423
-20.7024
-24.0759
-22.8153
-20.7312
-23.0756
-22.1057
-24.2222
-22.3512
-21.4359
-23.8016
-21.6553
-19.7682
-21.7339
-20.9146
-22.5888
-21.0747
-20.3407
-22.1259
-20.4545
-18.9958
-20.4468
-19.8204
-18.9982
-19.7339
-19.3008
-19.6418
-19.0558
-18.8261
-18.4293
-18.4543
-19.2507
-17.7419
-17.9483
-19.7544
-16.9814
-17.929
-13.1536
-16.6674
-20.3159
-8.79965
-22.1346
-49.6875
-39.3538
-34.963
-32.8144
-31.6114
-30.901
-30.4952
-30.3093
-38.9367
-29.8873
-37.0288
-29.1674
-22.0356
-29.6049
-26.3915
-21.6461
-26.9403
-24.0496
-28.8922
-24.7463
-22.7227
-28.4067
-23.792
-19.5034
-24.7339
-22.8937
-19.9039
-23.4848
-21.6774
-24.9139
-22.2051
-20.9136
-24.5754
-21.5897
-19.0257
-22.0634
-20.5593
-23.1335
-20.9499
-19.9318
-22.712
-20.3991
-18.4375
-20.7167
-19.8108
-18.6768
-19.849
-19.154
-19.751
-18.952
-18.7597
-18.2483
-18.2599
-19.533
-17.3346
-17.6048
-20.4012
-16.3105
-18.4333
-11.3164
-16.2661
-21.9385
-3.62746
-19.8438
-57.2129
-40.0274
-35.1108
-32.8703
-31.6395
-30.9182
-30.5076
-30.3197
)
;

boundaryField
{
    left
    {
        type            calculated;
        value           nonuniform List<scalar> 
32
(
-26.4236
-26.446
-26.4887
-26.5499
-26.6283
-26.7229
-26.8331
-26.9583
-27.0986
-27.2539
-27.4246
-27.6111
-27.814
-28.0343
-28.273
-28.5312
-28.8104
-29.1122
-29.4384
-29.7912
-30.1732
-30.5874
-31.0379
-31.5302
-32.0715
-32.6723
-33.3475
-34.1181
-35.0135
-36.0746
-37.3573
-38.9367
)
;
    }
    right
    {
        type            calculated;
        value           nonuniform List<scalar> 
32
(
-25.7943
-25.829
-25.895
-25.9889
-26.1079
-26.2493
-26.4108
-26.5901
-26.7849
-26.9928
-27.2114
-27.4382
-27.6706
-27.9056
-28.1407
-28.373
-28.5997
-28.8184
-29.0266
-29.2223
-29.4036
-29.5692
-29.7181
-29.8497
-29.9638
-30.0606
-30.1404
-30.2042
-30.2528
-30.2875
-30.3093
-30.3197
)
;
    }
    interface
    {
        type            calculated;
        value           nonuniform List<scalar> 
64
(
-39.8112
-29.1315
-38.1173
-29.1342
-20.9837
-30.2237
-26.462
-20.9193
-27.3337
-23.6487
-29.5067
-24.6192
-22.2485
-29.1208
-23.764
-18.81
-25.1332
-22.9453
-19.4259
-23.7417
-21.4144
-25.3178
-22.1177
-20.6036
-25.0283
-21.5531
-18.5991
-22.272
-20.3421
-23.4523
-20.8757
-19.6898
-23.0556
-20.3683
-18.1165
-20.8835
-19.809
-18.4938
-19.9253
-19.0687
-19.8197
-18.8949
-18.7303
-18.1533
-18.1515
-19.7095
-17.1073
-17.4096
-20.7935
-15.9177
-18.7781
-10.2821
-16.0657
-22.9907
-0.698829
-18.4881
-61.5107
-40.2411
-35.1482
-32.8838
-31.6463
-30.9223
-30.5105
-30.3222
)
;
    }
    bottom
    {
        type            calculated;
        value           nonuniform List<scalar> 
64
(
-26.4178
-26.3904
-26.3364
-26.2572
-26.1549
-26.0321
-25.8914
-25.7357
-25.5677
-25.39
-25.2049
-25.0147
-24.8212
-24.6262
-24.4311
-24.2373
-24.0459
-23.8577
-23.6737
-23.4942
-23.3199
-23.151
-22.9879
-22.8307
-22.6797
-22.5352
-22.3974
-22.2666
-22.1434
-22.028
-21.9212
-21.8234
-21.7356
-21.6584
-21.593
-21.5401
-21.5011
-21.477
-21.469
-21.4784
-21.5065
-21.5545
-21.6236
-21.7149
-21.8295
-21.968
-22.1308
-22.3178
-22.5283
-22.7608
-23.0131
-23.2819
-23.5628
-23.8506
-24.1394
-24.4226
-24.6936
-24.9458
-25.1732
-25.3704
-25.5332
-25.6581
-25.7426
-25.7853
)
;
    }
    defaultFaces
    {
        type            empty;
    }
}


// ************************************************************************* //
