/*--------------------------------*- C++ -*----------------------------------*\
| =========                 |                                                 |
| \\      /  F ield         | OpenFOAM: The Open Source CFD Toolbox           |
|  \\    /   O peration     | Version:  5.x                                   |
|   \\  /    A nd           | Web:      www.OpenFOAM.org                      |
|    \\/     M anipulation  |                                                 |
\*---------------------------------------------------------------------------*/
FoamFile
{
    version     2.0;
    format      ascii;
    class       volScalarField;
    location    "3.2";
    object      T;
}
// * * * * * * * * * * * * * * * * * * * * * * * * * * * * * * * * * * * * * //

dimensions      [0 0 0 1 0 0 0];

internalField   nonuniform List<scalar> 
3200
(
2.0874
2.43807
2.45807
2.60263
2.61179
2.68389
2.68869
2.73036
2.73321
2.75956
2.76131
2.77652
2.77785
2.79444
2.79579
2.81161
2.81287
2.82743
2.82858
2.84174
2.84278
2.85454
2.85546
2.86586
2.86668
2.87584
2.87657
2.88483
2.88555
2.89432
2.90201
2.90256
2.90754
2.9079
2.9117
2.91199
2.91503
2.91526
2.91773
2.91792
2.91993
2.92008
2.92173
2.92185
2.92318
2.92328
2.92433
2.92441
2.9252
2.92525
2.92573
2.92577
2.92625
2.92628
2.92666
2.92668
2.92688
2.92689
2.92686
2.92684
2.92647
2.92642
2.92552
2.9254
2.92359
2.92336
2.91976
2.91926
2.91134
2.90996
2.88749
2.84831
2.84394
2.78027
2.77277
2.65366
2.64872
2.64809
2.64796
2.64794
2.26257
2.53088
2.57266
2.68832
2.70785
2.76551
2.77574
2.80895
2.81503
2.83597
2.83969
2.85188
2.85473
2.86785
2.87071
2.88324
2.88592
2.89746
2.89991
2.91034
2.91254
2.92186
2.92382
2.93206
2.93379
2.94106
2.9426
2.94917
2.95074
2.958
2.96446
2.96565
2.96962
2.9704
2.97342
2.97403
2.97644
2.97693
2.97889
2.97929
2.98088
2.98121
2.98251
2.98277
2.98382
2.98404
2.98487
2.98503
2.98566
2.98577
2.98615
2.98624
2.98662
2.98669
2.98699
2.98704
2.9872
2.98721
2.98719
2.98715
2.98685
2.98674
2.98602
2.98578
2.98433
2.98383
2.98094
2.97988
2.97343
2.97038
2.95075
2.91867
2.90933
2.85858
2.84278
2.75025
2.73981
2.73809
2.73773
2.73765
2.42702
2.63274
2.6843
2.77785
2.80238
2.84902
2.86187
2.88863
2.89625
2.91307
2.91774
2.92763
2.93119
2.94168
2.94525
2.95527
2.95862
2.96785
2.97091
2.97926
2.98202
2.98947
2.99192
2.99852
3.00068
3.0065
3.00844
3.01372
3.0157
3.02171
3.02712
3.02863
3.03183
3.03282
3.03524
3.036
3.03793
3.03854
3.04011
3.0406
3.04188
3.04229
3.04333
3.04366
3.0445
3.04477
3.04544
3.04564
3.04614
3.04628
3.04659
3.0467
3.047
3.04709
3.04733
3.04739
3.04752
3.04754
3.04751
3.04747
3.04723
3.04709
3.0465
3.0462
3.04503
3.04441
3.04206
3.04071
3.03538
3.03146
3.0145
2.98813
2.97637
2.93548
2.91586
2.84356
2.83056
2.82803
2.82748
2.82736
2.58323
2.74077
2.79425
2.87013
2.89602
2.93388
2.94744
2.96908
2.9771
2.99065
2.99557
3.00362
3.00737
3.01578
3.01953
3.02756
3.03109
3.03849
3.04171
3.04841
3.0513
3.05729
3.05986
3.06516
3.06743
3.07211
3.07414
3.07841
3.08049
3.08544
3.08994
3.09154
3.09413
3.09517
3.09712
3.09792
3.09947
3.10011
3.10137
3.10189
3.10292
3.10335
3.10418
3.10453
3.10521
3.10548
3.10602
3.10623
3.10664
3.10678
3.10703
3.10715
3.10739
3.10749
3.10767
3.10774
3.10784
3.10786
3.10784
3.10779
3.1076
3.10745
3.10698
3.10665
3.1057
3.10505
3.10314
3.1017
3.09728
3.09306
3.07862
3.05699
3.04458
3.01154
2.99105
2.9345
2.92089
2.9179
2.91721
2.91706
2.73315
2.85296
2.90332
2.96442
2.98919
3.01972
3.03268
3.05007
3.05773
3.06857
3.07328
3.07979
3.08337
3.09006
3.09363
3.10004
3.1034
3.1093
3.11237
3.11771
3.12047
3.12524
3.12769
3.13192
3.13408
3.13782
3.13976
3.14317
3.14517
3.14919
3.15287
3.15441
3.1565
3.15749
3.15904
3.15981
3.16105
3.16166
3.16266
3.16316
3.16398
3.16439
3.16505
3.16538
3.16592
3.16619
3.16662
3.16682
3.16714
3.16728
3.16748
3.16759
3.16778
3.16788
3.16803
3.16809
3.16817
3.16819
3.16817
3.16813
3.16797
3.16782
3.16745
3.16714
3.16637
3.16575
3.16419
3.16281
3.15917
3.15507
3.14304
3.1255
3.11361
3.08709
3.06768
3.02372
3.0108
3.00767
3.00693
3.00676
2.87827
2.96793
3.01194
3.06016
3.08213
3.10625
3.11775
3.13145
3.13823
3.14675
3.15091
3.15607
3.15924
3.16447
3.16763
3.17264
3.1756
3.18022
3.18293
3.18711
3.18955
3.19328
3.19545
3.19876
3.20067
3.2036
3.20531
3.208
3.20977
3.21296
3.21589
3.21726
3.21891
3.21978
3.221
3.22168
3.22265
3.22319
3.22398
3.22442
3.22506
3.22542
3.22594
3.22623
3.22665
3.22689
3.22722
3.2274
3.22765
3.22778
3.22794
3.22803
3.22818
3.22826
3.22838
3.22844
3.2285
3.22852
3.2285
3.22846
3.22834
3.22821
3.22791
3.22764
3.22703
3.22648
3.22524
3.22401
3.22108
3.2174
3.20767
3.19377
3.18322
3.16235
3.1453
3.11169
3.10032
3.09734
3.09662
3.09645
3.01981
3.08472
3.12041
3.15695
3.17498
3.1933
3.20273
3.2131
3.21866
3.22509
3.22851
3.23243
3.23503
3.23897
3.24155
3.24532
3.24774
3.25122
3.25344
3.25658
3.25858
3.26139
3.26316
3.26565
3.26722
3.26942
3.27083
3.27286
3.27432
3.27674
3.27897
3.28009
3.28134
3.28206
3.28298
3.28354
3.28427
3.28471
3.2853
3.28566
3.28615
3.28644
3.28683
3.28707
3.28739
3.28758
3.28783
3.28798
3.28817
3.28827
3.28839
3.28847
3.28858
3.28865
3.28874
3.28878
3.28883
3.28884
3.28883
3.2888
3.28871
3.2886
3.28837
3.28815
3.28769
3.28723
3.2863
3.28527
3.28301
3.27996
3.27247
3.26191
3.25325
3.23747
3.22358
3.19878
3.1895
3.18693
3.18629
3.18614
3.15874
3.20268
3.22883
3.25448
3.26782
3.28069
3.28767
3.29495
3.29906
3.30356
3.30609
3.30885
3.31077
3.31352
3.31542
3.31805
3.31984
3.32227
3.32391
3.3261
3.32757
3.32954
3.33085
3.33259
3.33374
3.33528
3.33632
3.33774
3.33882
3.34052
3.34209
3.34293
3.3438
3.34433
3.34498
3.34539
3.3459
3.34622
3.34664
3.3469
3.34724
3.34746
3.34773
3.34791
3.34813
3.34827
3.34845
3.34856
3.34869
3.34877
3.34885
3.34891
3.34899
3.34904
3.3491
3.34913
3.34916
3.34917
3.34917
3.34914
3.34908
3.349
3.34884
3.34867
3.34835
3.34801
3.34735
3.34659
3.34498
3.34271
3.3374
3.32997
3.32357
3.31251
3.30229
3.28524
3.27841
3.27644
3.27593
3.27582
3.29592
3.32136
3.33728
3.3525
3.36068
3.36833
3.37261
3.37692
3.37944
3.38211
3.38366
3.3853
3.38647
3.3881
3.38926
3.39082
3.39191
3.39335
3.39435
3.39565
3.39655
3.39771
3.39851
3.39954
3.40025
3.40116
3.4018
3.40264
3.4033
3.40431
3.40524
3.40576
3.40628
3.4066
3.40698
3.40723
3.40754
3.40774
3.40798
3.40814
3.40834
3.40848
3.40864
3.40875
3.40888
3.40897
3.40907
3.40914
3.40921
3.40926
3.40931
3.40935
3.40939
3.40942
3.40946
3.40948
3.4095
3.4095
3.4095
3.40948
3.40945
3.4094
3.4093
3.4092
3.40901
3.4088
3.40841
3.40794
3.40698
3.40558
3.4024
3.398
3.39407
3.38751
3.38127
3.3713
3.36712
3.36589
3.36557
3.36549
3.43209
3.44041
3.44576
3.4508
3.45356
3.45609
3.45753
3.45897
3.45981
3.4607
3.46122
3.46176
3.46216
3.4627
3.46309
3.4636
3.46397
3.46445
3.46478
3.46522
3.46552
3.4659
3.46617
3.46651
3.46675
3.46705
3.46727
3.46755
3.46777
3.4681
3.46841
3.46859
3.46876
3.46887
3.46899
3.46908
3.46918
3.46925
3.46933
3.46938
3.46945
3.46949
3.46955
3.46958
3.46963
3.46966
3.46969
3.46971
3.46974
3.46975
3.46977
3.46978
3.4698
3.46981
3.46982
3.46983
3.46983
3.46983
3.46983
3.46983
3.46981
3.4698
3.46977
3.46973
3.46967
3.4696
3.46947
3.46931
3.46899
3.46852
3.46746
3.466
3.46468
3.46251
3.46041
3.45712
3.45572
3.4553
3.45519
3.45516
3.43183
3.44072
3.44689
3.45354
3.45762
3.46205
3.46488
3.46812
3.4702
3.4726
3.47407
3.47569
3.47688
3.47851
3.47969
3.48123
3.48232
3.48372
3.48469
3.48591
3.48676
3.48783
3.48858
3.48951
3.49015
3.49097
3.49155
3.4923
3.49291
3.49383
3.49469
3.49517
3.49567
3.49599
3.49637
3.49663
3.49694
3.49715
3.49741
3.49759
3.49781
3.49796
3.49814
3.49827
3.49843
3.49853
3.49866
3.49874
3.49884
3.49891
3.49898
3.49903
3.4991
3.49915
3.49922
3.49926
3.49932
3.49936
3.49942
3.49945
3.4995
3.49953
3.49957
3.49959
3.49962
3.49963
3.49964
3.49962
3.49954
3.49936
3.49889
3.49815
3.49736
3.49591
3.49438
3.49183
3.49074
3.49041
3.49033
3.49031
3.29513
3.32227
3.34064
3.36073
3.37284
3.38622
3.39462
3.4044
3.4106
3.41783
3.42221
3.42708
3.43063
3.43555
3.43906
3.44372
3.44696
3.45116
3.45405
3.45775
3.46028
3.46351
3.46572
3.46853
3.47045
3.47292
3.47464
3.47692
3.47872
3.48149
3.48408
3.48552
3.48702
3.48798
3.48912
3.48988
3.49081
3.49144
3.49223
3.49276
3.49343
3.49387
3.49443
3.49481
3.49528
3.49559
3.49598
3.49623
3.49653
3.49672
3.49693
3.49708
3.49729
3.49744
3.49765
3.49779
3.49797
3.49809
3.49825
3.49836
3.4985
3.49859
3.4987
3.49878
3.49886
3.4989
3.49891
3.49885
3.49862
3.49809
3.4967
3.49445
3.4921
3.48775
3.48317
3.47544
3.47219
3.47122
3.47097
3.47092
3.15734
3.20417
3.23432
3.26823
3.28801
3.31059
3.3243
3.34082
3.35095
3.36317
3.37032
3.37853
3.38432
3.39264
3.39838
3.40626
3.41156
3.41866
3.42338
3.42964
3.43378
3.43923
3.44284
3.44759
3.45073
3.45489
3.45771
3.46155
3.46449
3.46916
3.47351
3.47587
3.4784
3.47995
3.48188
3.48312
3.4847
3.48573
3.48706
3.48793
3.48905
3.48978
3.49073
3.49135
3.49214
3.49265
3.49331
3.49372
3.49423
3.49453
3.49488
3.49513
3.49549
3.49574
3.49608
3.49631
3.49662
3.49682
3.49709
3.49727
3.4975
3.49765
3.49784
3.49796
3.4981
3.49816
3.49819
3.49809
3.49771
3.49685
3.49453
3.49076
3.48693
3.47959
3.47209
3.45887
3.45354
3.45201
3.45161
3.45152
3.01768
3.08674
3.12785
3.1763
3.20306
3.23531
3.25387
3.2775
3.29122
3.30872
3.3184
3.33008
3.33791
3.34983
3.35761
3.36891
3.37609
3.38625
3.39265
3.40161
3.40721
3.41503
3.41991
3.42671
3.43097
3.43693
3.44073
3.44622
3.45019
3.45683
3.46303
3.4662
3.46981
3.47191
3.47467
3.47634
3.47861
3.48001
3.48191
3.48309
3.48469
3.48568
3.48704
3.48787
3.48901
3.48971
3.49064
3.4912
3.49193
3.49234
3.49284
3.49318
3.49369
3.49403
3.49452
3.49483
3.49527
3.49554
3.49593
3.49617
3.4965
3.4967
3.49698
3.49714
3.49734
3.49743
3.49747
3.49734
3.49681
3.49567
3.49242
3.48707
3.4819
3.47144
3.46124
3.44198
3.43475
3.43274
3.43224
3.43213
2.87526
2.97042
3.02109
3.08524
3.1179
3.16057
3.18324
3.21458
3.23134
3.25458
3.26639
3.28177
3.29133
3.30719
3.31671
3.33171
3.34049
3.354
3.36181
3.37371
3.38056
3.39094
3.39691
3.40594
3.41114
3.41904
3.42369
3.43095
3.43579
3.44453
3.45266
3.45653
3.46128
3.46385
3.4675
3.46955
3.47256
3.47426
3.47679
3.47823
3.48036
3.48157
3.48337
3.48439
3.4859
3.48675
3.48799
3.48868
3.48965
3.49015
3.49081
3.49122
3.4919
3.49231
3.49296
3.49334
3.49393
3.49426
3.49478
3.49507
3.49551
3.49576
3.49612
3.49632
3.49659
3.4967
3.49677
3.49661
3.49595
3.49458
3.4904
3.48337
3.47707
3.46327
3.45075
3.42461
3.41574
3.41342
3.41286
3.41273
2.72903
2.85588
2.91379
2.99543
3.03233
3.08664
3.11226
3.15223
3.1712
3.20089
3.21424
3.2337
3.2445
3.26481
3.27558
3.29477
3.30471
3.32197
3.33082
3.34602
3.35377
3.36703
3.37378
3.38531
3.3912
3.40129
3.40654
3.41577
3.42122
3.43225
3.44247
3.44681
3.45284
3.45574
3.4604
3.46271
3.46656
3.46849
3.47172
3.47334
3.47606
3.47743
3.47973
3.48089
3.48282
3.48378
3.48537
3.48614
3.48738
3.48795
3.48878
3.48924
3.49012
3.49059
3.49142
3.49185
3.4926
3.49298
3.49363
3.49396
3.49452
3.49481
3.49527
3.4955
3.49585
3.49597
3.49607
3.49589
3.49511
3.4936
3.48849
3.47965
3.47255
3.45506
3.4408
3.40655
3.39647
3.39403
3.39345
3.39332
2.57773
2.7441
2.80554
2.90741
2.94607
3.01385
3.04071
3.09073
3.11063
3.14786
3.16185
3.18598
3.19729
3.2228
3.23411
3.2582
3.26863
3.29028
3.29956
3.31862
3.32676
3.34338
3.35046
3.36491
3.37109
3.38373
3.38923
3.40075
3.40643
3.42
3.43251
3.43703
3.44452
3.44756
3.45339
3.45582
3.46063
3.46265
3.4667
3.4684
3.47182
3.47326
3.47614
3.47735
3.47977
3.48078
3.48277
3.48358
3.48514
3.48573
3.48677
3.48726
3.48836
3.48885
3.48989
3.49034
3.49128
3.49168
3.4925
3.49285
3.49355
3.49385
3.49444
3.49467
3.49511
3.49524
3.49538
3.4952
3.4943
3.49276
3.48673
3.47585
3.46844
3.44672
3.43166
3.38752
3.3769
3.37456
3.37403
3.37391
2.41977
2.63651
2.69567
2.82192
2.85864
2.9427
2.96823
3.03043
3.04936
3.09575
3.10904
3.13876
3.14951
3.18136
3.19214
3.22217
3.2321
3.25908
3.26792
3.29166
3.2994
3.3201
3.32685
3.34484
3.35072
3.36645
3.37169
3.38596
3.39133
3.4078
3.42287
3.42712
3.43638
3.43926
3.44651
3.44882
3.45482
3.45674
3.46178
3.4634
3.46766
3.46902
3.47262
3.47377
3.47678
3.47774
3.48023
3.481
3.48294
3.4835
3.48478
3.48524
3.48662
3.48709
3.48839
3.48882
3.48998
3.49036
3.49138
3.49172
3.49259
3.49288
3.49361
3.49383
3.49439
3.49451
3.4947
3.49454
3.49352
3.4921
3.48517
3.47192
3.46491
3.43811
3.42367
3.36715
3.357
3.35502
3.35459
3.3545
2.25314
2.53522
2.58311
2.74001
2.76932
2.87389
2.89428
2.97185
2.98699
3.04497
3.05558
3.09231
3.10089
3.14076
3.14939
3.18694
3.19489
3.2286
3.23567
3.26533
3.27153
3.29739
3.30278
3.32526
3.32996
3.34959
3.35377
3.37152
3.37578
3.39565
3.41366
3.41702
3.42849
3.43079
3.43983
3.44168
3.44917
3.4507
3.457
3.45829
3.46361
3.4647
3.46919
3.47011
3.47387
3.47464
3.47775
3.47836
3.4808
3.48125
3.48282
3.48319
3.48492
3.48529
3.48692
3.48726
3.48872
3.48902
3.4903
3.49056
3.49166
3.49189
3.49281
3.49298
3.49368
3.49378
3.49403
3.49392
3.49275
3.49166
3.48386
3.46773
3.46216
3.429
3.41738
3.34493
3.33677
3.33542
3.33514
3.33508
2.07522
2.4433
2.46619
2.6632
2.67698
2.80844
2.81804
2.91578
2.92291
2.99608
3.00107
3.04698
3.05101
3.10141
3.10548
3.1529
3.15665
3.19919
3.20252
3.23994
3.24287
3.27549
3.27803
3.30638
3.3086
3.33335
3.33532
3.35762
3.35961
3.38357
3.40503
3.40659
3.42097
3.42205
3.43344
3.43431
3.44375
3.44448
3.45241
3.45302
3.45973
3.46024
3.4659
3.46633
3.47108
3.47145
3.47537
3.47566
3.47873
3.47894
3.48091
3.48109
3.48327
3.48344
3.4855
3.48566
3.4875
3.48764
3.48925
3.48938
3.49076
3.49087
3.49203
3.49211
3.493
3.49305
3.49339
3.49333
3.49198
3.49149
3.48288
3.46313
3.46052
3.41904
3.41351
3.32014
3.31627
3.31578
3.31568
3.31566
2.07522
2.4433
2.46618
2.6632
2.67698
2.80844
2.81804
2.91577
2.92291
2.99608
3.00107
3.04697
3.05101
3.10141
3.10548
3.15289
3.15664
3.19919
3.20252
3.23994
3.24286
3.27548
3.27803
3.30638
3.3086
3.33335
3.33532
3.35762
3.3596
3.38357
3.40503
3.40659
3.42097
3.42205
3.43344
3.43431
3.44375
3.44447
3.45241
3.45302
3.45973
3.46024
3.4659
3.46633
3.47108
3.47144
3.47536
3.47566
3.47873
3.47894
3.48091
3.48108
3.48327
3.48344
3.4855
3.48566
3.4875
3.48764
3.48925
3.48938
3.49076
3.49087
3.49203
3.49211
3.493
3.49305
3.49339
3.49333
3.49198
3.49149
3.48288
3.46313
3.46053
3.41905
3.41352
3.32016
3.31629
3.3158
3.3157
3.31568
2.25313
2.53522
2.5831
2.74001
2.76932
2.87389
2.89428
2.97185
2.98699
3.04497
3.05558
3.0923
3.10089
3.14076
3.14938
3.18694
3.19489
3.2286
3.23567
3.26533
3.27152
3.29738
3.30278
3.32526
3.32996
3.34959
3.35377
3.37152
3.37578
3.39565
3.41365
3.41702
3.42849
3.43079
3.43983
3.44168
3.44916
3.4507
3.457
3.45829
3.46361
3.4647
3.46919
3.47011
3.47387
3.47464
3.47775
3.47836
3.4808
3.48124
3.48282
3.48319
3.48491
3.48529
3.48692
3.48726
3.48872
3.48902
3.4903
3.49056
3.49166
3.49189
3.4928
3.49298
3.49368
3.49378
3.49403
3.49392
3.49275
3.49166
3.48386
3.46774
3.46217
3.42901
3.41739
3.34495
3.33679
3.33544
3.33516
3.3351
2.41977
2.6365
2.69566
2.82192
2.85864
2.9427
2.96823
3.03042
3.04936
3.09575
3.10904
3.13876
3.14951
3.18136
3.19213
3.22217
3.2321
3.25907
3.26791
3.29165
3.2994
3.3201
3.32685
3.34484
3.35072
3.36645
3.37168
3.38596
3.39133
3.4078
3.42286
3.42712
3.43638
3.43926
3.44651
3.44882
3.45482
3.45674
3.46178
3.4634
3.46766
3.46902
3.47262
3.47377
3.47678
3.47774
3.48022
3.481
3.48294
3.4835
3.48478
3.48524
3.48662
3.48708
3.48839
3.48882
3.48998
3.49036
3.49138
3.49172
3.49259
3.49287
3.49361
3.49383
3.49439
3.49451
3.4947
3.49454
3.49352
3.4921
3.48517
3.47192
3.46491
3.43811
3.42368
3.36717
3.35702
3.35504
3.35461
3.35452
2.57773
2.74409
2.80553
2.90741
2.94607
3.01385
3.04071
3.09072
3.11062
3.14785
3.16184
3.18598
3.19729
3.2228
3.23411
3.25819
3.26863
3.29027
3.29956
3.31862
3.32675
3.34337
3.35046
3.36491
3.37109
3.38373
3.38923
3.40075
3.40643
3.42
3.43251
3.43702
3.44452
3.44755
3.45339
3.45581
3.46063
3.46265
3.4667
3.4684
3.47182
3.47326
3.47614
3.47735
3.47977
3.48078
3.48277
3.48358
3.48514
3.48573
3.48677
3.48725
3.48836
3.48885
3.48989
3.49034
3.49128
3.49168
3.4925
3.49285
3.49355
3.49385
3.49444
3.49467
3.49511
3.49524
3.49538
3.4952
3.4943
3.49276
3.48674
3.47586
3.46845
3.44672
3.43166
3.38753
3.37692
3.37458
3.37404
3.37393
2.72903
2.85588
2.91379
2.99543
3.03233
3.08664
3.11226
3.15223
3.1712
3.20089
3.21424
3.2337
3.2445
3.2648
3.27558
3.29477
3.30471
3.32197
3.33081
3.34601
3.35377
3.36703
3.37378
3.38531
3.3912
3.40129
3.40654
3.41577
3.42122
3.43225
3.44247
3.44681
3.45284
3.45574
3.4604
3.46271
3.46656
3.46848
3.47171
3.47334
3.47606
3.47743
3.47973
3.48089
3.48282
3.48378
3.48537
3.48614
3.48738
3.48795
3.48878
3.48924
3.49012
3.49059
3.49142
3.49185
3.4926
3.49298
3.49363
3.49396
3.49452
3.4948
3.49527
3.4955
3.49585
3.49597
3.49607
3.49589
3.49511
3.4936
3.48849
3.47965
3.47255
3.45506
3.44081
3.40656
3.39649
3.39404
3.39346
3.39334
2.87526
2.97042
3.02109
3.08523
3.1179
3.16057
3.18324
3.21457
3.23134
3.25457
3.26639
3.28177
3.29133
3.30719
3.3167
3.33171
3.34049
3.354
3.36181
3.37371
3.38056
3.39094
3.39691
3.40593
3.41114
3.41904
3.42369
3.43095
3.43578
3.44453
3.45266
3.45652
3.46128
3.46385
3.4675
3.46955
3.47256
3.47426
3.47679
3.47823
3.48036
3.48157
3.48337
3.48439
3.4859
3.48675
3.48799
3.48868
3.48965
3.49015
3.4908
3.49122
3.4919
3.49231
3.49296
3.49334
3.49393
3.49426
3.49478
3.49507
3.49551
3.49576
3.49612
3.49632
3.49659
3.4967
3.49677
3.49661
3.49595
3.49458
3.4904
3.48338
3.47708
3.46328
3.45075
3.42462
3.41575
3.41343
3.41287
3.41274
3.01768
3.08673
3.12785
3.1763
3.20306
3.23531
3.25387
3.2775
3.29122
3.30872
3.3184
3.33007
3.33791
3.34983
3.35761
3.3689
3.37608
3.38625
3.39265
3.40161
3.40721
3.41503
3.41991
3.42671
3.43097
3.43692
3.44073
3.44622
3.45019
3.45683
3.46303
3.4662
3.46981
3.47191
3.47467
3.47634
3.47861
3.48001
3.48191
3.48309
3.48469
3.48568
3.48704
3.48787
3.48901
3.48971
3.49064
3.4912
3.49193
3.49234
3.49284
3.49318
3.49369
3.49403
3.49452
3.49483
3.49527
3.49554
3.49593
3.49617
3.4965
3.4967
3.49698
3.49714
3.49734
3.49743
3.49747
3.49734
3.49681
3.49567
3.49243
3.48707
3.4819
3.47144
3.46124
3.44198
3.43475
3.43275
3.43225
3.43214
3.15734
3.20417
3.23432
3.26823
3.28801
3.31059
3.3243
3.34082
3.35095
3.36317
3.37032
3.37853
3.38432
3.39264
3.39838
3.40626
3.41156
3.41866
3.42338
3.42964
3.43377
3.43923
3.44284
3.44759
3.45073
3.45489
3.4577
3.46155
3.46449
3.46916
3.47351
3.47587
3.4784
3.47995
3.48188
3.48312
3.4847
3.48573
3.48706
3.48793
3.48905
3.48978
3.49073
3.49135
3.49214
3.49265
3.49331
3.49372
3.49423
3.49453
3.49488
3.49513
3.49549
3.49574
3.49608
3.49631
3.49662
3.49682
3.49709
3.49727
3.4975
3.49765
3.49784
3.49796
3.4981
3.49816
3.49819
3.49809
3.49771
3.49685
3.49453
3.49076
3.48693
3.47959
3.47209
3.45887
3.45355
3.45201
3.45162
3.45153
3.29513
3.32227
3.34064
3.36073
3.37284
3.38622
3.39462
3.4044
3.4106
3.41783
3.42221
3.42708
3.43063
3.43555
3.43906
3.44372
3.44696
3.45116
3.45405
3.45775
3.46028
3.46351
3.46572
3.46853
3.47045
3.47292
3.47464
3.47692
3.47872
3.48149
3.48408
3.48552
3.48702
3.48798
3.48912
3.48987
3.49081
3.49144
3.49223
3.49276
3.49343
3.49387
3.49443
3.49481
3.49528
3.49559
3.49598
3.49623
3.49653
3.49672
3.49693
3.49708
3.49729
3.49744
3.49765
3.49779
3.49797
3.49809
3.49825
3.49836
3.4985
3.49859
3.4987
3.49878
3.49886
3.4989
3.49891
3.49885
3.49862
3.49809
3.4967
3.49445
3.49211
3.48775
3.48317
3.47544
3.47219
3.47123
3.47098
3.47092
3.43183
3.44072
3.44689
3.45354
3.45762
3.46205
3.46488
3.46812
3.4702
3.4726
3.47407
3.47569
3.47688
3.47851
3.47969
3.48123
3.48232
3.48371
3.48469
3.48591
3.48676
3.48783
3.48858
3.48951
3.49015
3.49097
3.49155
3.4923
3.49291
3.49383
3.49469
3.49517
3.49567
3.49599
3.49637
3.49663
3.49694
3.49715
3.49741
3.49759
3.49781
3.49796
3.49814
3.49827
3.49843
3.49853
3.49866
3.49874
3.49884
3.49891
3.49898
3.49903
3.4991
3.49915
3.49922
3.49926
3.49932
3.49936
3.49942
3.49945
3.4995
3.49953
3.49957
3.49959
3.49962
3.49963
3.49964
3.49962
3.49954
3.49936
3.4989
3.49815
3.49736
3.49591
3.49438
3.49183
3.49074
3.49041
3.49033
3.49031
3.43207
3.44039
3.44572
3.45075
3.45348
3.45598
3.45738
3.45872
3.45948
3.46021
3.46073
3.4614
3.46188
3.46249
3.46293
3.46348
3.46387
3.46437
3.46471
3.46516
3.46547
3.46586
3.46613
3.46648
3.46672
3.46703
3.46724
3.46753
3.46775
3.46809
3.4684
3.46857
3.46875
3.46886
3.46899
3.46907
3.46917
3.46924
3.46932
3.46938
3.46944
3.46949
3.46954
3.46958
3.46962
3.46965
3.46969
3.46971
3.46974
3.46975
3.46977
3.46978
3.4698
3.46981
3.46982
3.46983
3.46983
3.46983
3.46983
3.46983
3.46981
3.4698
3.46977
3.46973
3.46967
3.4696
3.46947
3.46931
3.46899
3.46852
3.46746
3.466
3.46468
3.46251
3.46041
3.45712
3.45572
3.4553
3.45519
3.45516
3.29587
3.32128
3.33718
3.35234
3.36046
3.36799
3.37213
3.37619
3.37843
3.38065
3.38218
3.3842
3.38562
3.38748
3.38877
3.39045
3.39161
3.3931
3.39414
3.39548
3.3964
3.39759
3.3984
3.39945
3.40016
3.40109
3.40173
3.40258
3.40325
3.40427
3.40521
3.40572
3.40625
3.40658
3.40696
3.40721
3.40752
3.40772
3.40797
3.40813
3.40833
3.40847
3.40863
3.40874
3.40887
3.40896
3.40906
3.40913
3.40921
3.40926
3.40931
3.40934
3.40939
3.40942
3.40946
3.40948
3.4095
3.4095
3.4095
3.40948
3.40944
3.4094
3.4093
3.4092
3.40901
3.4088
3.40841
3.40794
3.40698
3.40558
3.4024
3.398
3.39407
3.38751
3.38127
3.3713
3.36712
3.36589
3.36557
3.36549
3.15866
3.20256
3.22867
3.25422
3.26746
3.28013
3.28689
3.29373
3.29739
3.30112
3.3036
3.30703
3.30935
3.31249
3.3146
3.31743
3.31933
3.32186
3.32356
3.32582
3.32732
3.32933
3.33066
3.33243
3.3336
3.33516
3.33621
3.33765
3.33873
3.34045
3.34203
3.34287
3.34376
3.3443
3.34495
3.34536
3.34587
3.3462
3.34662
3.34689
3.34723
3.34744
3.34772
3.3479
3.34812
3.34826
3.34844
3.34855
3.34868
3.34876
3.34885
3.3489
3.34898
3.34903
3.34909
3.34913
3.34916
3.34917
3.34916
3.34914
3.34907
3.349
3.34884
3.34867
3.34835
3.34801
3.34735
3.34659
3.34498
3.34271
3.3374
3.32997
3.32357
3.31251
3.30229
3.28524
3.27841
3.27644
3.27593
3.27582
3.01969
3.08455
3.12017
3.15658
3.17448
3.19251
3.20165
3.2114
3.21634
3.22163
3.225
3.2299
3.23305
3.23755
3.24041
3.24446
3.24702
3.25065
3.25295
3.25618
3.25822
3.26109
3.2629
3.26543
3.26702
3.26925
3.27067
3.27272
3.27419
3.27664
3.27889
3.28002
3.28128
3.28201
3.28294
3.28349
3.28423
3.28468
3.28527
3.28564
3.28612
3.28642
3.28681
3.28705
3.28738
3.28757
3.28782
3.28797
3.28816
3.28826
3.28838
3.28846
3.28858
3.28864
3.28873
3.28878
3.28883
3.28884
3.28883
3.2888
3.2887
3.2886
3.28837
3.28815
3.28769
3.28723
3.28629
3.28527
3.28301
3.27996
3.27247
3.26191
3.25325
3.23747
3.22358
3.19878
3.1895
3.18693
3.18629
3.18614
2.87812
2.96771
3.01165
3.05969
3.0815
3.10525
3.11638
3.12925
3.13528
3.14222
3.14633
3.15284
3.15669
3.16267
3.16616
3.17154
3.17468
3.1795
3.1823
3.1866
3.18909
3.19291
3.19511
3.19847
3.20041
3.20337
3.20511
3.20782
3.20961
3.21283
3.21578
3.21716
3.21883
3.21971
3.22094
3.22162
3.2226
3.22314
3.22394
3.22438
3.22503
3.22539
3.22591
3.22621
3.22663
3.22687
3.22721
3.22739
3.22764
3.22777
3.22793
3.22802
3.22817
3.22826
3.22837
3.22843
3.22849
3.22851
3.2285
3.22846
3.22833
3.22821
3.22791
3.22763
3.22703
3.22647
3.22524
3.224
3.22107
3.21739
3.20767
3.19377
3.18322
3.16235
3.1453
3.11169
3.10032
3.09734
3.09662
3.09645
2.73297
2.85269
2.90296
2.96385
2.98843
3.01849
3.03104
3.04739
3.05418
3.06293
3.06756
3.07589
3.08025
3.08789
3.09184
3.09871
3.10226
3.10842
3.11159
3.11709
3.11991
3.12478
3.12727
3.13156
3.13376
3.13754
3.13951
3.14296
3.14498
3.14904
3.15274
3.1543
3.1564
3.1574
3.15897
3.15974
3.16099
3.1616
3.16262
3.16312
3.16394
3.16435
3.16502
3.16536
3.1659
3.16617
3.1666
3.1668
3.16712
3.16727
3.16747
3.16758
3.16777
3.16786
3.16802
3.16808
3.16816
3.16818
3.16817
3.16812
3.16796
3.16782
3.16744
3.16713
3.16637
3.16574
3.16419
3.1628
3.15917
3.15507
3.14303
3.12549
3.11361
3.08709
3.06768
3.02371
3.0108
3.00767
3.00693
3.00676
2.58303
2.74045
2.79385
2.86946
2.89515
2.93243
2.94555
2.9659
2.973
2.9838
2.98864
2.9991
3.00367
3.01325
3.0174
3.02602
3.02974
3.03746
3.0408
3.04768
3.05064
3.05675
3.05937
3.06474
3.06705
3.07178
3.07385
3.07815
3.08026
3.08526
3.08979
3.09141
3.09402
3.09507
3.09703
3.09784
3.0994
3.10005
3.10132
3.10184
3.10288
3.1033
3.10415
3.10449
3.10518
3.10546
3.106
3.10621
3.10662
3.10677
3.10702
3.10713
3.10737
3.10747
3.10766
3.10773
3.10783
3.10785
3.10784
3.10779
3.10759
3.10744
3.10697
3.10665
3.1057
3.10505
3.10313
3.10169
3.09728
3.09305
3.07862
3.05699
3.04457
3.01153
2.99105
2.9345
2.92089
2.9179
2.91721
2.91706
2.4268
2.63237
2.68385
2.77706
2.80141
2.84733
2.85977
2.88495
2.89167
2.90491
2.9095
2.92255
2.9269
2.93883
2.94278
2.95352
2.95707
2.96668
2.96985
2.97843
2.98125
2.98886
2.99135
2.99805
3.00024
3.00614
3.00809
3.01343
3.01543
3.02149
3.02695
3.02847
3.03171
3.0327
3.03514
3.0359
3.03785
3.03846
3.04004
3.04054
3.04183
3.04224
3.04329
3.04362
3.04447
3.04474
3.04541
3.04562
3.04612
3.04626
3.04657
3.04668
3.04698
3.04708
3.04731
3.04738
3.04751
3.04753
3.04751
3.04746
3.04722
3.04708
3.0465
3.04619
3.04502
3.0444
3.04206
3.0407
3.03538
3.03145
3.01449
2.98812
2.97637
2.93548
2.91586
2.84356
2.83056
2.82803
2.82748
2.82736
2.26234
2.53045
2.57217
2.68742
2.7068
2.76358
2.77349
2.80473
2.81008
2.82636
2.83002
2.84634
2.84982
2.86474
2.8679
2.88131
2.88415
2.89616
2.8987
2.90941
2.91167
2.92117
2.92316
2.93153
2.93329
2.94064
2.94221
2.94885
2.95043
2.95775
2.96427
2.96548
2.96948
2.97027
2.97331
2.97392
2.97635
2.97684
2.97882
2.97922
2.98082
2.98115
2.98246
2.98273
2.98379
2.984
2.98484
2.98501
2.98564
2.98575
2.98613
2.98622
2.9866
2.98667
2.98697
2.98702
2.98719
2.9872
2.98718
2.98714
2.98685
2.98673
2.98601
2.98577
2.98432
2.98383
2.98094
2.97987
2.97343
2.97037
2.95074
2.91867
2.90932
2.85857
2.84278
2.75025
2.73981
2.73809
2.73773
2.73765
2.08716
2.43759
2.45756
2.60161
2.61069
2.68169
2.68634
2.72555
2.72806
2.74832
2.75004
2.77064
2.77228
2.79111
2.7926
2.80952
2.81086
2.82601
2.82721
2.84073
2.8418
2.85378
2.85472
2.86528
2.86611
2.87538
2.87612
2.88447
2.8852
2.89405
2.90181
2.90236
2.90738
2.90775
2.91158
2.91187
2.91493
2.91516
2.91765
2.91784
2.91987
2.92002
2.92167
2.9218
2.92314
2.92324
2.9243
2.92438
2.92517
2.92523
2.92571
2.92575
2.92623
2.92626
2.92664
2.92666
2.92687
2.92688
2.92685
2.92683
2.92646
2.92641
2.92551
2.92539
2.92358
2.92335
2.91975
2.91925
2.91134
2.90995
2.88749
2.84831
2.84394
2.78027
2.77277
2.65366
2.64872
2.64809
2.64796
2.64794
)
;

boundaryField
{
    F1_1
    {
        type            fixedValue;
        value           nonuniform List<scalar> 
80
(
1.99279
2.39828
2.39828
2.5625
2.5625
2.64443
2.64443
2.69183
2.69183
2.72185
2.72185
2.73911
2.73911
2.75803
2.75803
2.77608
2.77608
2.79268
2.79268
2.80769
2.80769
2.82109
2.82109
2.83295
2.83295
2.8434
2.8434
2.8528
2.8528
2.8625
2.87093
2.87093
2.87658
2.87658
2.88092
2.88092
2.88438
2.88438
2.8872
2.8872
2.88949
2.88949
2.89136
2.89136
2.89288
2.89288
2.89408
2.89408
2.89498
2.89498
2.89552
2.89552
2.89607
2.89607
2.8965
2.8965
2.89673
2.89673
2.8967
2.8967
2.89628
2.89628
2.89525
2.89525
2.89319
2.89319
2.8891
2.8891
2.88017
2.88017
2.8562
2.81243
2.81243
2.74
2.74
2.60308
2.60308
2.60308
2.60308
2.60308
)
;
    }
    F1_2
    {
        type            fixedValue;
        value           nonuniform List<scalar> 
80
(
1.97888
2.40423
2.40423
2.62845
2.62845
2.77814
2.77814
2.88953
2.88953
2.97299
2.97299
3.02513
3.02513
3.08265
3.08265
3.13674
3.13674
3.18526
3.18526
3.22793
3.22793
3.26513
3.26513
3.29746
3.29746
3.32567
3.32567
3.35107
3.35107
3.37757
3.40111
3.40111
3.41747
3.41747
3.43045
3.43045
3.44121
3.44121
3.45026
3.45026
3.4579
3.4579
3.46436
3.46436
3.46977
3.46977
3.47424
3.47424
3.47775
3.47775
3.47999
3.47999
3.48248
3.48248
3.48482
3.48482
3.48692
3.48692
3.48876
3.48876
3.49034
3.49034
3.49166
3.49166
3.49267
3.49267
3.49307
3.49307
3.49157
3.49157
3.48261
3.46048
3.46048
3.41334
3.41334
3.30595
3.30595
3.30595
3.30595
3.30595
)
;
    }
    F1_3
    {
        type            fixedValue;
        value           nonuniform List<scalar> 
80
(
1.97888
2.40423
2.40423
2.62844
2.62844
2.77814
2.77814
2.88953
2.88953
2.97298
2.97298
3.02513
3.02513
3.08264
3.08264
3.13673
3.13673
3.18525
3.18525
3.22793
3.22793
3.26513
3.26513
3.29745
3.29745
3.32567
3.32567
3.35107
3.35107
3.37757
3.40111
3.40111
3.41747
3.41747
3.43045
3.43045
3.44121
3.44121
3.45026
3.45026
3.4579
3.4579
3.46436
3.46436
3.46977
3.46977
3.47424
3.47424
3.47775
3.47775
3.47999
3.47999
3.48248
3.48248
3.48482
3.48482
3.48692
3.48692
3.48876
3.48876
3.49034
3.49034
3.49166
3.49166
3.49267
3.49267
3.49307
3.49307
3.49157
3.49157
3.48261
3.46049
3.46049
3.41335
3.41335
3.30597
3.30597
3.30597
3.30597
3.30597
)
;
    }
    F1_4
    {
        type            fixedValue;
        value           nonuniform List<scalar> 
80
(
1.99255
2.39777
2.39777
2.5614
2.5614
2.64208
2.64208
2.68669
2.68669
2.70966
2.70966
2.73317
2.73317
2.75464
2.75464
2.77393
2.77393
2.79122
2.79122
2.80664
2.80664
2.82031
2.82031
2.83235
2.83235
2.84292
2.84292
2.85243
2.85243
2.86222
2.87072
2.87072
2.87642
2.87642
2.88079
2.88079
2.88428
2.88428
2.88711
2.88711
2.88943
2.88943
2.89131
2.89131
2.89284
2.89284
2.89405
2.89405
2.89496
2.89496
2.8955
2.8955
2.89605
2.89605
2.89648
2.89648
2.89672
2.89672
2.89669
2.89669
2.89627
2.89627
2.89524
2.89524
2.89318
2.89318
2.88909
2.88909
2.88017
2.88017
2.8562
2.81243
2.81243
2.74
2.74
2.60308
2.60308
2.60308
2.60308
2.60308
)
;
    }
    F2_1
    {
        type            fixedValue;
        value           uniform 3.5;
    }
    F2_2
    {
        type            fixedValue;
        value           uniform 3.5;
    }
    F2_3
    {
        type            fixedValue;
        value           uniform 3.5;
    }
    F2_4
    {
        type            fixedValue;
        value           uniform 3.5;
    }
    defaultFaces
    {
        type            empty;
    }
}


// ************************************************************************* //
