/*--------------------------------*- C++ -*----------------------------------*\
| =========                 |                                                 |
| \\      /  F ield         | OpenFOAM: The Open Source CFD Toolbox           |
|  \\    /   O peration     | Version:  5.x                                   |
|   \\  /    A nd           | Web:      www.OpenFOAM.org                      |
|    \\/     M anipulation  |                                                 |
\*---------------------------------------------------------------------------*/
FoamFile
{
    version     2.0;
    format      ascii;
    class       volScalarField;
    location    "2.1";
    object      gradTy;
}
// * * * * * * * * * * * * * * * * * * * * * * * * * * * * * * * * * * * * * //

dimensions      [0 -1 0 1 0 0 0];

internalField   nonuniform List<scalar> 
3200
(
17.9341
8.49952
11.5311
8.19515
9.59564
7.93868
8.66822
7.70465
8.13622
7.52208
7.78597
7.44246
7.64388
7.25122
7.4543
7.08084
7.27134
6.92845
7.10209
6.79286
6.94857
6.67342
6.81138
6.56908
6.69055
6.47804
6.58641
6.39705
6.50646
6.34553
6.21538
6.29941
6.18415
6.24046
6.14977
6.19382
6.12047
6.15604
6.09642
6.12522
6.07708
6.10019
6.06182
6.08008
6.05008
6.06416
6.04144
6.05177
6.03572
6.04242
6.03376
6.03832
6.03017
6.03366
6.02845
6.03009
6.02891
6.028
6.03224
6.02773
6.03981
6.02976
6.05416
6.0348
6.08031
6.04311
6.12916
6.04997
6.2264
6.00362
6.29659
7.11028
6.42462
7.9464
6.78153
9.89259
9.12313
9.00546
8.98117
8.97594
16.7172
9.59444
11.1429
8.6481
9.39907
8.16172
8.55237
7.8321
8.0621
7.60263
7.74354
7.48714
7.59448
7.30033
7.4076
7.12784
7.22855
6.97172
7.06356
6.83196
6.91432
6.70825
6.78124
6.59978
6.66408
6.50495
6.56248
6.42087
6.4802
6.34891
6.2392
6.28535
6.19927
6.22928
6.1614
6.18475
6.12982
6.14866
6.10402
6.11926
6.08321
6.09545
6.06672
6.07638
6.05392
6.06137
6.04436
6.04982
6.0378
6.04136
6.0349
6.03732
6.03122
6.03305
6.02915
6.03001
6.02912
6.02862
6.03179
6.02937
6.0384
6.03304
6.05128
6.04093
6.07492
6.05492
6.11907
6.07575
6.2064
6.07902
6.35481
6.99523
6.62594
7.76429
7.15844
9.49993
9.09709
9.00176
8.98044
8.97576
15.7853
10.3426
10.9165
8.97125
9.28206
8.31965
8.48099
7.92156
8.01559
7.65918
7.71702
7.51729
7.56116
7.33339
7.3764
7.15963
7.20009
7.00106
7.03798
6.8585
6.89163
6.73192
6.76129
6.62065
6.64655
6.52321
6.54652
6.43665
6.46157
6.35143
6.25678
6.27659
6.20974
6.22201
6.16937
6.17881
6.13623
6.14383
6.10922
6.11537
6.08742
6.09235
6.07008
6.07397
6.05656
6.05956
6.04638
6.04858
6.03926
6.04071
6.03568
6.03667
6.03194
6.03267
6.02965
6.02999
6.02931
6.02909
6.03156
6.03056
6.03758
6.03538
6.04954
6.04528
6.0717
6.06336
6.11327
6.09456
6.19673
6.13829
6.39844
6.92058
6.76696
7.65195
7.41745
9.21703
9.05874
8.99508
8.97903
8.97539
15.0712
10.85
10.7908
9.20417
9.216
8.43265
8.43845
7.98489
7.9871
7.69917
7.70081
7.5377
7.53871
7.35562
7.35559
7.18115
7.18121
7.02097
7.02107
6.87655
6.87665
6.74804
6.74814
6.63487
6.635
6.5356
6.5359
6.44705
6.44834
6.35333
6.26979
6.27129
6.21705
6.21734
6.17487
6.17496
6.14064
6.14068
6.1128
6.11283
6.09032
6.09034
6.0724
6.07242
6.05839
6.0584
6.04778
6.04779
6.0403
6.04032
6.03622
6.03624
6.03245
6.03244
6.03002
6.03001
6.02947
6.02946
6.03146
6.03143
6.03712
6.03706
6.04854
6.0484
6.06986
6.06946
6.11022
6.10854
6.19347
6.18482
6.43159
6.87295
6.86642
7.58438
7.59509
9.01244
9.01661
8.98651
8.97713
8.97487
14.5259
11.191
10.7263
9.37317
9.18176
8.5141
8.4143
8.03001
7.97024
7.72759
7.69121
7.55156
7.52365
7.37055
7.34177
7.19569
7.16875
7.03448
7.00995
6.88881
6.86682
6.75901
6.73954
6.64455
6.62743
6.54401
6.52884
6.45384
6.43897
6.35477
6.2794
6.26823
6.22218
6.21438
6.17867
6.17248
6.14367
6.13866
6.11526
6.1112
6.09231
6.08905
6.074
6.07142
6.05966
6.05767
6.04876
6.04731
6.04103
6.04009
6.0366
6.03597
6.03281
6.03231
6.03029
6.03005
6.02962
6.02974
6.03145
6.03207
6.03689
6.03827
6.048
6.05066
6.0689
6.07392
6.10887
6.11905
6.19396
6.22113
6.45696
6.84323
6.93691
7.5451
7.71647
8.86437
8.97584
8.97709
8.97494
8.97425
14.1141
11.4173
10.6974
9.49572
9.1666
8.57286
8.40154
8.06216
7.9607
7.74777
7.68575
7.56096
7.5136
7.38051
7.33266
7.20548
7.16059
7.04361
7.0027
6.89712
6.86044
6.76646
6.73396
6.65113
6.62251
6.54969
6.52418
6.45823
6.43237
6.35587
6.28645
6.26656
6.22578
6.21255
6.18129
6.17092
6.14575
6.13738
6.11695
6.11017
6.09368
6.08824
6.0751
6.0708
6.06053
6.05722
6.04945
6.04702
6.04154
6.03997
6.03686
6.03579
6.03306
6.03224
6.03049
6.0301
6.02974
6.02996
6.03148
6.03254
6.03679
6.03915
6.04775
6.05229
6.06846
6.07718
6.1085
6.12697
6.19635
6.24909
6.4763
6.82522
6.98682
7.52329
7.79878
8.75776
8.93948
8.96782
8.97269
8.97361
13.8103
11.5644
10.6878
9.5834
9.16204
8.61474
8.39553
8.08481
7.95564
7.76193
7.68282
7.56728
7.50699
7.38708
7.32673
7.21198
7.15533
7.0497
6.99804
6.90268
6.85636
6.77145
6.73039
6.65554
6.61938
6.55348
6.52115
6.46103
6.4278
6.35668
6.29152
6.26573
6.22829
6.21144
6.18307
6.16994
6.14717
6.13657
6.1181
6.10953
6.09462
6.08774
6.07585
6.07042
6.06113
6.05694
6.04992
6.04685
6.0419
6.0399
6.03704
6.03568
6.03323
6.0322
6.03064
6.03015
6.02984
6.03012
6.03152
6.03288
6.03677
6.03978
6.04765
6.05346
6.06832
6.07953
6.10865
6.13286
6.19941
6.27007
6.49078
6.81469
7.02172
7.51192
7.85375
8.68224
8.90925
8.95948
8.97059
8.973
13.5963
11.6569
10.6873
9.64377
9.16254
8.64351
8.3932
8.10022
7.95318
7.77152
7.68136
7.5714
7.50278
7.39128
7.32299
7.21617
7.15204
7.05364
6.99515
6.90629
6.85383
6.77469
6.72819
6.6584
6.61743
6.55593
6.51922
6.46275
6.42476
6.35726
6.29501
6.26538
6.22998
6.21079
6.18425
6.16936
6.1481
6.13609
6.11886
6.10914
6.09523
6.08743
6.07635
6.07019
6.06153
6.05678
6.05023
6.04675
6.04215
6.03988
6.03716
6.03562
6.03335
6.03218
6.03074
6.03019
6.02992
6.03024
6.03157
6.03311
6.03678
6.04022
6.04764
6.05427
6.06832
6.08117
6.10899
6.13705
6.2023
6.28504
6.50112
6.80884
7.0453
7.50648
7.88924
8.63078
8.88609
8.9527
8.96883
8.97248
13.4599
11.7105
10.6898
9.68168
9.16458
8.66156
8.39259
8.10981
7.95211
7.77747
7.6807
7.57388
7.5003
7.39376
7.32081
7.21867
7.15013
7.056
6.99347
6.90845
6.85237
6.77664
6.72693
6.66012
6.61631
6.55739
6.5181
6.46373
6.42289
6.35763
6.29721
6.26525
6.23101
6.21044
6.18497
6.16903
6.14866
6.13582
6.11931
6.10892
6.0956
6.08727
6.07665
6.07006
6.06177
6.0567
6.05043
6.04671
6.0423
6.03986
6.03724
6.03558
6.03342
6.03217
6.0308
6.03022
6.02997
6.03032
6.0316
6.03326
6.03681
6.04049
6.04765
6.05477
6.06837
6.08221
6.10931
6.13974
6.20449
6.29468
6.5078
6.80584
7.05989
7.50418
7.91039
8.59876
8.87047
8.94794
8.96758
8.97211
13.3935
11.7351
10.6918
9.69997
9.16608
8.67026
8.39255
8.11441
7.95175
7.78031
7.68046
7.57505
7.49915
7.39491
7.3198
7.21983
7.14926
7.0571
6.99271
6.90946
6.85171
6.77755
6.72635
6.66093
6.6158
6.55808
6.51758
6.46417
6.42201
6.35782
6.29826
6.26522
6.23151
6.21028
6.18531
6.16889
6.14893
6.1357
6.11953
6.10883
6.09578
6.08719
6.07679
6.07001
6.06188
6.05666
6.05052
6.04669
6.04237
6.03986
6.03727
6.03557
6.03345
6.03217
6.03083
6.03024
6.02999
6.03035
6.03162
6.03333
6.03682
6.04062
6.04766
6.05501
6.06841
6.08271
6.10951
6.14107
6.20566
6.2994
6.51107
6.80459
7.06686
7.50339
7.92024
8.58341
8.86262
8.94548
8.96692
8.97191
-13.0912
-11.3201
-10.1138
-8.79856
-8.00286
-7.12777
-6.57717
-5.9397
-5.5347
-5.06551
-4.78058
-4.46542
-4.23622
-3.92031
-3.69444
-3.39677
-3.18953
-2.92309
-2.7398
-2.50675
-2.34732
-2.14563
-2.00796
-1.8341
-1.71519
-1.56439
-1.45925
-1.32148
-1.21312
-1.04864
-0.896019
-0.811168
-0.724279
-0.669396
-0.604578
-0.561777
-0.509451
-0.474516
-0.431425
-0.402581
-0.366931
-0.343077
-0.313624
-0.293976
-0.269815
-0.253825
-0.234382
-0.221803
-0.206983
-0.197953
-0.187946
-0.180711
-0.170809
-0.163804
-0.154682
-0.14842
-0.140498
-0.135146
-0.128483
-0.124041
-0.118595
-0.115057
-0.110884
-0.108451
-0.106119
-0.105852
-0.108035
-0.114819
-0.13414
-0.173227
-0.273034
-0.430592
-0.593758
-0.892661
-1.20566
-1.72979
-1.95143
-2.01728
-2.03433
-2.03829
-13.1622
-11.2976
-10.1183
-8.77787
-8.00613
-7.11488
-6.58073
-5.93048
-5.53735
-5.05821
-4.78186
-4.46206
-4.23975
-3.91678
-3.69738
-3.39321
-3.19195
-2.91982
-2.74185
-2.50386
-2.34905
-2.14312
-2.00945
-1.83194
-1.7165
-1.5626
-1.46059
-1.32033
-1.21539
-1.04819
-0.893326
-0.811265
-0.723012
-0.669805
-0.603708
-0.562167
-0.508762
-0.474848
-0.430859
-0.402856
-0.36646
-0.343301
-0.313231
-0.294154
-0.269485
-0.25396
-0.234103
-0.221887
-0.206745
-0.197985
-0.187827
-0.18081
-0.170684
-0.16388
-0.154557
-0.148476
-0.140384
-0.135187
-0.128382
-0.124068
-0.118506
-0.115069
-0.110801
-0.108433
-0.106021
-0.105738
-0.107835
-0.114301
-0.133333
-0.17078
-0.270705
-0.430347
-0.588307
-0.892073
-1.19719
-1.74186
-1.95763
-2.0192
-2.03482
-2.03842
-13.3078
-11.2478
-10.1293
-8.73453
-8.01427
-7.08779
-6.58901
-5.91106
-5.54351
-5.04288
-4.78495
-4.45486
-4.24738
-3.90916
-3.70377
-3.3856
-3.19727
-2.91283
-2.74634
-2.49768
-2.35288
-2.13775
-2.01273
-1.82734
-1.71939
-1.55877
-1.46348
-1.31779
-1.22018
-1.04727
-0.887739
-0.811627
-0.720357
-0.670742
-0.601865
-0.56304
-0.5073
-0.475589
-0.429658
-0.40347
-0.365462
-0.343803
-0.312398
-0.294555
-0.268786
-0.254264
-0.233513
-0.222082
-0.206245
-0.198066
-0.187576
-0.181025
-0.170418
-0.164047
-0.154293
-0.148602
-0.140143
-0.135281
-0.128169
-0.124133
-0.118317
-0.1151
-0.110626
-0.108401
-0.105823
-0.105514
-0.107444
-0.113263
-0.131771
-0.165817
-0.265968
-0.430148
-0.577001
-0.891408
-1.17911
-1.76706
-1.96997
-2.02294
-2.03577
-2.03867
-13.536
-11.1604
-10.1514
-8.66431
-8.03075
-7.04368
-6.60455
-5.8793
-5.55508
-5.01791
-4.791
-4.44283
-4.26031
-3.8963
-3.71473
-3.37285
-3.20649
-2.90119
-2.75418
-2.4874
-2.35957
-2.12883
-2.01847
-1.81967
-1.72441
-1.55235
-1.46843
-1.31337
-1.22801
-1.04583
-0.878834
-0.812611
-0.716049
-0.672462
-0.598829
-0.564599
-0.504884
-0.476904
-0.427671
-0.404559
-0.363811
-0.344694
-0.31102
-0.295271
-0.267634
-0.254813
-0.232545
-0.222449
-0.205433
-0.198232
-0.187159
-0.181394
-0.169973
-0.164339
-0.153856
-0.148828
-0.139746
-0.135452
-0.12782
-0.124256
-0.118012
-0.115168
-0.110347
-0.108368
-0.105518
-0.105184
-0.106881
-0.111702
-0.12957
-0.158191
-0.25865
-0.430622
-0.558971
-0.891786
-1.14899
-1.80763
-1.98828
-2.02824
-2.03708
-2.039
-13.8593
-11.0185
-10.1928
-8.56005
-8.06147
-6.97773
-6.63162
-5.83159
-5.57524
-4.9806
-4.80198
-4.42423
-4.28057
-3.8762
-3.73216
-3.35314
-3.22133
-2.88326
-2.76685
-2.47161
-2.37042
-2.11513
-2.02779
-1.80791
-1.73255
-1.54244
-1.47625
-1.30618
-1.23973
-1.04381
-0.865915
-0.814825
-0.709636
-0.675396
-0.594228
-0.567185
-0.501205
-0.479075
-0.424643
-0.406357
-0.361295
-0.346169
-0.308925
-0.296461
-0.265887
-0.255737
-0.231085
-0.223086
-0.204221
-0.198547
-0.186522
-0.181981
-0.169288
-0.164817
-0.153191
-0.149206
-0.139147
-0.135746
-0.127297
-0.124473
-0.117557
-0.1153
-0.10994
-0.108356
-0.105098
-0.104757
-0.106177
-0.109602
-0.126923
-0.147674
-0.248454
-0.43282
-0.532741
-0.895165
-1.1028
-1.86729
-2.01219
-2.03477
-2.03864
-2.03938
-14.2964
-10.796
-10.2666
-8.4105
-8.11568
-6.88237
-6.67693
-5.76219
-5.60901
-4.92673
-4.82099
-4.39635
-4.31132
-3.84576
-3.75906
-3.3236
-3.24447
-2.85652
-2.78673
-2.4481
-2.38748
-2.09475
-2.04245
-1.79039
-1.74531
-1.52761
-1.48826
-1.29487
-1.25666
-1.04109
-0.847941
-0.819218
-0.700396
-0.680219
-0.58747
-0.571337
-0.495778
-0.482544
-0.420172
-0.409229
-0.357584
-0.348529
-0.305837
-0.298374
-0.263319
-0.257237
-0.228955
-0.224153
-0.202476
-0.199109
-0.185578
-0.182887
-0.168266
-0.165572
-0.152211
-0.149817
-0.138271
-0.13623
-0.126536
-0.124842
-0.116902
-0.115544
-0.109369
-0.108396
-0.104546
-0.104246
-0.105377
-0.106931
-0.124121
-0.13394
-0.234895
-0.438375
-0.49599
-0.904713
-1.0343
-1.95171
-2.04096
-2.04201
-2.0403
-2.03976
-14.8736
-10.4548
-10.3935
-8.19859
-8.20751
-6.74597
-6.75068
-5.66241
-5.66401
-4.84986
-4.85282
-4.35494
-4.35735
-3.80021
-3.79997
-3.27986
-3.28001
-2.81709
-2.81741
-2.41352
-2.41387
-2.0648
-2.06514
-1.76463
-1.76501
-1.50567
-1.50646
-1.27738
-1.28071
-1.03749
-0.823405
-0.82723
-0.687223
-0.687956
-0.577656
-0.577875
-0.487864
-0.487983
-0.413648
-0.413732
-0.35217
-0.352235
-0.301339
-0.301389
-0.25959
-0.259622
-0.22588
-0.225891
-0.199992
-0.200072
-0.184193
-0.184263
-0.166758
-0.166746
-0.150783
-0.150784
-0.137004
-0.13701
-0.125444
-0.125449
-0.115972
-0.115968
-0.108575
-0.108539
-0.103839
-0.103662
-0.104545
-0.10362
-0.121599
-0.116544
-0.217218
-0.449746
-0.445176
-0.925404
-0.934272
-2.06923
-2.07323
-2.04934
-2.04189
-2.04009
-15.6276
-9.93941
-10.6058
-7.8986
-8.35824
-6.55098
-6.86823
-5.5191
-5.75171
-4.74037
-4.90475
-4.29357
-4.42583
-3.73244
-3.86172
-3.21535
-3.33413
-2.75919
-2.8643
-2.3628
-2.45427
-2.0209
-2.0999
-1.72687
-1.79514
-1.47335
-1.53388
-1.25062
-1.31464
-1.03274
-0.790166
-0.841009
-0.66843
-0.700145
-0.563429
-0.58803
-0.476349
-0.496407
-0.404149
-0.420704
-0.344291
-0.35798
-0.294802
-0.306077
-0.254184
-0.263355
-0.221451
-0.22866
-0.196463
-0.201667
-0.182164
-0.186336
-0.164543
-0.16855
-0.148707
-0.152294
-0.135176
-0.138244
-0.123878
-0.126425
-0.114652
-0.116677
-0.107476
-0.108855
-0.102937
-0.103024
-0.103772
-0.0995385
-0.119983
-0.0949045
-0.194252
-0.470583
-0.374952
-0.964928
-0.789177
-2.23197
-2.10659
-2.05598
-2.04322
-2.04032
-16.6093
-9.1699
-10.9532
-7.472
-8.59971
-6.27108
-7.05249
-5.31258
-5.88922
-4.58389
-4.98775
-4.20252
-4.52737
-3.63181
-3.95455
-3.12028
-3.41604
-2.67411
-2.9355
-2.2884
-2.5157
-1.95653
-2.15277
-1.67148
-1.84088
-1.42576
-1.57507
-1.20998
-1.36243
-1.02644
-0.7452
-0.863737
-0.641473
-0.71908
-0.542754
-0.603643
-0.459568
-0.509327
-0.390299
-0.431398
-0.332807
-0.366801
-0.285286
-0.313291
-0.246332
-0.269129
-0.215053
-0.233002
-0.191432
-0.204246
-0.179182
-0.189441
-0.161289
-0.171301
-0.145686
-0.154625
-0.132532
-0.140167
-0.121627
-0.127965
-0.112769
-0.117825
-0.105942
-0.109454
-0.101784
-0.102348
-0.103187
-0.0944587
-0.120176
-0.0682762
-0.164192
-0.506283
-0.277289
-1.03506
-0.579325
-2.4574
-2.13694
-2.06109
-2.04414
-2.04042
-17.8887
-8.0316
-11.5113
-6.86114
-8.97954
-5.86687
-7.3377
-5.01348
-6.1021
-4.35913
-5.1184
-4.06714
-4.67782
-3.48252
-4.09372
-2.98007
-3.53952
-2.54897
-3.0431
-2.17908
-2.60865
-1.862
-2.23278
-1.5901
-1.91006
-1.35563
-1.63688
-1.14868
-1.42979
-1.01797
-0.684259
-0.900117
-0.602535
-0.748188
-0.512601
-0.627465
-0.43504
-0.529007
-0.370047
-0.447684
-0.316021
-0.380244
-0.271386
-0.324302
-0.234886
-0.277975
-0.205767
-0.23972
-0.184218
-0.208332
-0.174778
-0.194075
-0.156498
-0.175469
-0.141272
-0.158187
-0.128686
-0.143124
-0.118366
-0.130352
-0.110062
-0.119635
-0.103776
-0.110484
-0.100284
-0.101645
-0.102966
-0.0879834
-0.123455
-0.035717
-0.124265
-0.564802
-0.140133
-1.15371
-0.276095
-2.77075
-2.15748
-2.06382
-2.0445
-2.04033
17.8887
8.03164
11.5113
6.86117
8.97956
5.86689
7.33772
5.0135
6.10212
4.35915
5.11842
4.06716
4.67784
3.48254
4.09374
2.98009
3.53953
2.54898
3.04311
2.17909
2.60866
1.86202
2.2328
1.59012
1.91007
1.35565
1.6369
1.1487
1.42981
1.01799
0.684281
0.900137
0.602554
0.748208
0.512619
0.627484
0.435056
0.529024
0.37006
0.447699
0.316033
0.380256
0.271396
0.324313
0.234894
0.277984
0.205774
0.239727
0.184224
0.208338
0.174783
0.194081
0.156502
0.175473
0.141276
0.158191
0.128689
0.143127
0.118368
0.130355
0.110064
0.119637
0.103778
0.110486
0.100285
0.101646
0.102966
0.0879844
0.123453
0.035717
0.124262
0.564797
0.140127
1.15371
0.276087
2.77076
2.15748
2.06382
2.0445
2.04033
16.6093
9.16993
10.9532
7.47202
8.59972
6.27109
7.0525
5.31259
5.88923
4.5839
4.98776
4.20253
4.52738
3.63182
3.95455
3.12029
3.41604
2.67412
2.93551
2.28841
2.51571
1.95655
2.15278
1.67149
1.8409
1.42577
1.57509
1.21
1.36245
1.02646
0.745219
0.863756
0.641491
0.719098
0.542771
0.60366
0.459583
0.509343
0.390312
0.431412
0.332819
0.366813
0.285295
0.313301
0.246341
0.269138
0.21506
0.23301
0.191438
0.204252
0.179188
0.189448
0.161294
0.171307
0.145691
0.15463
0.132536
0.140171
0.121631
0.127969
0.112773
0.117828
0.105945
0.109457
0.101786
0.102351
0.103189
0.0944613
0.120177
0.0682777
0.164191
0.50628
0.277286
1.03506
0.579323
2.45741
2.13695
2.0611
2.04415
2.04042
15.6276
9.93944
10.6059
7.89861
8.35824
6.55099
6.86823
5.51911
5.75171
4.74037
4.90475
4.29358
4.42583
3.73245
3.86172
3.21535
3.33413
2.75919
2.86431
2.36281
2.45428
2.02091
2.0999
1.72688
1.79514
1.47336
1.53389
1.25063
1.31465
1.03276
0.790182
0.841026
0.668446
0.700162
0.563444
0.588046
0.476363
0.496421
0.404161
0.420718
0.344302
0.357992
0.294812
0.306087
0.254192
0.263364
0.221458
0.228668
0.196469
0.201674
0.18217
0.186342
0.164548
0.168555
0.148712
0.152299
0.135181
0.138249
0.123882
0.126429
0.114656
0.116681
0.10748
0.108859
0.10294
0.103028
0.103775
0.0995416
0.119985
0.0949064
0.194252
0.470582
0.374951
0.964929
0.789178
2.23198
2.1066
2.056
2.04324
2.04033
14.8736
10.4548
10.3935
8.1986
8.20752
6.74598
6.75069
5.66242
5.66402
4.84987
4.85283
4.35495
4.35736
3.80022
3.79997
3.27986
3.28002
2.8171
2.81742
2.41353
2.41388
2.06481
2.06515
1.76465
1.76503
1.50568
1.50647
1.2774
1.28072
1.03751
0.823422
0.827247
0.68724
0.687973
0.577672
0.577891
0.487878
0.487998
0.413661
0.413746
0.352181
0.352246
0.301349
0.301399
0.259598
0.259631
0.225887
0.225898
0.199998
0.200078
0.184199
0.184269
0.166763
0.166751
0.150787
0.150788
0.137008
0.137014
0.125447
0.125452
0.115975
0.115972
0.108578
0.108542
0.103841
0.103665
0.104547
0.103622
0.121599
0.116544
0.217217
0.449744
0.445174
0.925403
0.934272
2.06924
2.07324
2.04935
2.0419
2.0401
14.2964
10.796
10.2666
8.41052
8.11569
6.88238
6.67694
5.76221
5.60902
4.92674
4.821
4.39636
4.31133
3.84577
3.75907
3.32361
3.24448
2.85653
2.78674
2.44812
2.38749
2.09476
2.04246
1.79041
1.74533
1.52762
1.48827
1.29489
1.25668
1.04111
0.847959
0.819236
0.700414
0.680237
0.587487
0.571354
0.495793
0.482559
0.420186
0.409243
0.357595
0.34854
0.305847
0.298384
0.263328
0.257245
0.228962
0.22416
0.202482
0.199115
0.185583
0.182892
0.16827
0.165577
0.152215
0.14982
0.138274
0.136234
0.126539
0.124845
0.116905
0.115547
0.109371
0.108398
0.104548
0.104247
0.105378
0.106932
0.124121
0.133939
0.234893
0.438372
0.495987
0.904712
1.0343
1.95172
2.04096
2.04202
2.04031
2.03977
13.8593
11.0185
10.1928
8.56007
8.06149
6.97775
6.63164
5.8316
5.57526
4.98062
4.802
4.42425
4.28058
3.87622
3.73218
3.35315
3.22134
2.88327
2.76686
2.47162
2.37044
2.11514
2.0278
1.80792
1.73257
1.54246
1.47627
1.3062
1.23975
1.04383
0.865935
0.814844
0.709654
0.675415
0.594245
0.567202
0.501221
0.479091
0.424657
0.406371
0.361307
0.34618
0.308935
0.296471
0.265895
0.255745
0.231092
0.223093
0.204227
0.198553
0.186527
0.181986
0.169292
0.164821
0.153195
0.149209
0.13915
0.135749
0.127299
0.124475
0.117559
0.115303
0.109942
0.108357
0.105099
0.104758
0.106177
0.109603
0.126922
0.147673
0.248451
0.432816
0.532738
0.895164
1.1028
1.8673
2.01219
2.03477
2.03865
2.03939
13.536
11.1604
10.1514
8.66434
8.03078
7.0437
6.60457
5.87932
5.5551
5.01793
4.79102
4.44284
4.26033
3.89631
3.71474
3.37287
3.20651
2.9012
2.75419
2.48742
2.35959
2.12884
2.01849
1.81969
1.72443
1.55237
1.46845
1.31338
1.22803
1.04585
0.878854
0.812631
0.716068
0.672481
0.598847
0.564616
0.5049
0.47692
0.427685
0.404573
0.363823
0.344706
0.311031
0.295281
0.267643
0.254822
0.232552
0.222455
0.205439
0.198238
0.187164
0.181399
0.169978
0.164344
0.15386
0.148832
0.13975
0.135455
0.127823
0.124258
0.118014
0.11517
0.110349
0.10837
0.10552
0.105185
0.106881
0.111702
0.129569
0.15819
0.258648
0.430619
0.558968
0.891785
1.14899
1.80763
1.98828
2.02825
2.03709
2.03901
13.3079
11.2478
10.1293
8.73456
8.0143
7.08781
6.58904
5.91108
5.54353
5.04289
4.78497
4.45488
4.2474
3.90918
3.70378
3.38561
3.19729
2.91285
2.74636
2.4977
2.3529
2.13777
2.01275
1.82735
1.7194
1.55878
1.4635
1.31781
1.2202
1.04729
0.88776
0.811647
0.720377
0.670762
0.601883
0.563058
0.507317
0.475605
0.429673
0.403484
0.365474
0.343815
0.312408
0.294565
0.268795
0.254272
0.23352
0.222089
0.206252
0.198072
0.187581
0.18103
0.170422
0.164051
0.154297
0.148606
0.140146
0.135284
0.128172
0.124135
0.11832
0.115102
0.110628
0.108402
0.105824
0.105515
0.107444
0.113264
0.13177
0.165816
0.265965
0.430146
0.576998
0.891407
1.17911
1.76706
1.96998
2.02294
2.03577
2.03868
13.1622
11.2976
10.1183
8.77789
8.00615
7.1149
6.58075
5.9305
5.53737
5.05823
4.78188
4.46207
4.23977
3.91679
3.69739
3.39323
3.19197
2.91983
2.74186
2.50387
2.34907
2.14313
2.00946
1.83196
1.71652
1.56262
1.4606
1.32035
1.21541
1.04821
0.893347
0.811286
0.723032
0.669825
0.603726
0.562185
0.508779
0.474864
0.430874
0.40287
0.366473
0.343313
0.313242
0.294165
0.269494
0.253969
0.23411
0.221894
0.206752
0.197991
0.187833
0.180815
0.170689
0.163884
0.154562
0.14848
0.140388
0.135191
0.128385
0.124071
0.118508
0.115072
0.110803
0.108435
0.106023
0.10574
0.107836
0.114301
0.133332
0.17078
0.270703
0.430345
0.588305
0.892073
1.19719
1.74186
1.95763
2.01921
2.03482
2.03843
13.0912
11.3201
10.1138
8.79858
8.00289
7.12779
6.57719
5.93972
5.53472
5.06552
4.78059
4.46544
4.23623
3.92033
3.69446
3.39679
3.18954
2.9231
2.73982
2.50677
2.34733
2.14565
2.00798
1.83412
1.7152
1.56441
1.45927
1.32149
1.21314
1.04866
0.89604
0.811188
0.724299
0.669415
0.604597
0.561795
0.509468
0.474533
0.43144
0.402595
0.366944
0.343089
0.313635
0.293986
0.269824
0.253834
0.23439
0.22181
0.20699
0.197959
0.187952
0.180717
0.170814
0.163809
0.154686
0.148425
0.140502
0.13515
0.128487
0.124044
0.118598
0.11506
0.110887
0.108454
0.106121
0.105854
0.108036
0.11482
0.134141
0.173227
0.273033
0.430591
0.593757
0.892662
1.20566
1.72979
1.95143
2.01729
2.03433
2.0383
-13.3969
-11.7399
-10.6983
-9.70992
-9.17996
-8.6917
-8.42264
-8.16107
-8.01616
-7.87336
-7.77504
-7.64502
-7.55345
-7.43415
-7.35093
-7.24347
-7.16875
-7.07254
-7.00584
-6.92021
-6.86104
-6.78537
-6.73324
-6.66679
-6.62102
-6.56256
-6.52158
-6.46761
-6.42502
-6.36024
-6.30018
-6.26687
-6.2329
-6.21152
-6.18637
-6.16985
-6.14976
-6.13645
-6.12018
-6.10942
-6.09629
-6.08766
-6.0772
-6.07037
-6.0622
-6.05694
-6.05076
-6.04691
-6.04256
-6.04004
-6.03743
-6.03571
-6.03358
-6.03229
-6.03093
-6.03033
-6.03007
-6.03042
-6.03168
-6.03338
-6.03686
-6.04066
-6.0477
-6.05505
-6.06844
-6.08274
-6.10954
-6.1411
-6.20569
-6.29944
-6.51113
-6.80466
-7.06695
-7.5035
-7.92037
-8.58356
-8.86278
-8.94564
-8.96709
-8.97207
-13.4632
-11.7153
-10.6962
-9.69161
-9.17832
-8.68295
-8.42236
-8.15643
-8.01609
-7.8716
-7.77632
-7.6435
-7.55457
-7.43272
-7.35191
-7.24217
-7.16962
-7.07137
-7.00661
-6.91916
-6.86171
-6.78443
-6.73382
-6.66597
-6.62154
-6.56187
-6.52211
-6.46715
-6.42591
-6.36006
-6.29911
-6.2669
-6.2324
-6.21167
-6.18603
-6.16999
-6.14949
-6.13657
-6.11997
-6.10951
-6.09612
-6.08773
-6.07705
-6.07043
-6.06208
-6.05698
-6.05067
-6.04693
-6.04249
-6.04004
-6.0374
-6.03573
-6.03354
-6.03229
-6.0309
-6.03031
-6.03004
-6.03038
-6.03166
-6.03331
-6.03685
-6.04053
-6.04768
-6.0548
-6.0684
-6.08223
-6.10934
-6.13977
-6.20452
-6.29472
-6.50785
-6.80591
-7.05998
-7.50429
-7.91052
-8.59891
-8.87063
-8.9481
-8.96774
-8.97227
-13.5995
-11.6616
-10.6936
-9.65367
-9.17598
-8.66483
-8.42231
-8.14677
-8.0162
-7.86789
-7.77912
-7.64024
-7.55702
-7.42966
-7.35407
-7.23939
-7.17153
-7.06888
-7.00829
-6.91692
-6.86318
-6.78244
-6.7351
-6.66422
-6.62267
-6.56038
-6.52324
-6.46616
-6.42779
-6.35968
-6.2969
-6.26702
-6.23135
-6.21203
-6.18531
-6.17032
-6.14893
-6.13685
-6.11951
-6.10973
-6.09574
-6.0879
-6.07675
-6.07055
-6.06184
-6.05707
-6.05048
-6.04697
-6.04234
-6.04005
-6.03732
-6.03576
-6.03347
-6.03229
-6.03083
-6.03028
-6.02999
-6.03031
-6.03162
-6.03316
-6.03683
-6.04025
-6.04767
-6.0543
-6.06835
-6.0812
-6.10902
-6.13708
-6.20233
-6.28508
-6.50118
-6.80892
-7.04539
-7.50659
-7.88937
-8.63093
-8.88625
-8.95286
-8.969
-8.97264
-13.8133
-11.5691
-10.6938
-9.59327
-9.175
-8.63599
-8.4236
-8.13134
-8.01705
-7.86181
-7.78395
-7.63476
-7.56126
-7.42455
-7.3578
-7.23476
-7.17484
-7.06471
-7.01121
-6.91318
-6.86574
-6.77911
-6.73732
-6.6613
-6.62463
-6.55789
-6.52518
-6.46442
-6.43086
-6.35909
-6.29337
-6.26738
-6.22965
-6.21268
-6.18412
-6.17091
-6.14799
-6.13733
-6.11875
-6.11012
-6.09512
-6.0882
-6.07625
-6.07078
-6.06144
-6.05723
-6.05016
-6.04707
-6.04209
-6.04008
-6.0372
-6.03583
-6.03336
-6.03231
-6.03073
-6.03024
-6.02992
-6.03019
-6.03158
-6.03293
-6.03681
-6.03982
-6.04768
-6.05349
-6.06835
-6.07956
-6.10868
-6.13289
-6.19944
-6.27011
-6.49083
-6.81477
-7.02181
-7.51203
-7.85387
-8.6824
-8.90941
-8.95964
-8.97075
-8.97316
-14.117
-11.4219
-10.7032
-9.5056
-9.17888
-8.59411
-8.42811
-8.1088
-8.01955
-7.85265
-7.79164
-7.62627
-7.56803
-7.41665
-7.36379
-7.22761
-7.18017
-7.05828
-7.01593
-6.90743
-6.86987
-6.774
-6.74092
-6.65681
-6.6278
-6.55405
-6.52824
-6.46159
-6.43547
-6.35827
-6.28826
-6.26821
-6.22713
-6.2138
-6.18232
-6.17189
-6.14657
-6.13814
-6.11759
-6.11077
-6.09419
-6.08871
-6.0755
-6.07117
-6.06084
-6.0575
-6.04969
-6.04724
-6.04173
-6.04014
-6.03702
-6.03594
-6.03318
-6.03235
-6.03059
-6.03019
-6.02982
-6.03002
-6.03153
-6.03259
-6.03683
-6.03919
-6.04778
-6.05233
-6.06849
-6.07721
-6.10853
-6.127
-6.19639
-6.24913
-6.47636
-6.8253
-6.9869
-7.52341
-7.7989
-8.75792
-8.93964
-8.96798
-8.97285
-8.97377
-14.5285
-11.1957
-10.7316
-9.38312
-9.1931
-8.53549
-8.43877
-8.07708
-8.02516
-7.83927
-7.80352
-7.61351
-7.57855
-7.40482
-7.37313
-7.21692
-7.18849
-7.04868
-7.0233
-6.89885
-6.87634
-6.76639
-6.74657
-6.65013
-6.63276
-6.54829
-6.53295
-6.45714
-6.44212
-6.35715
-6.28115
-6.26988
-6.2235
-6.21564
-6.17969
-6.17346
-6.14447
-6.13943
-6.11589
-6.11181
-6.09281
-6.08953
-6.07439
-6.0718
-6.05996
-6.05796
-6.049
-6.04753
-6.04121
-6.04027
-6.03675
-6.03611
-6.03293
-6.03243
-6.03039
-6.03014
-6.02969
-6.02981
-6.0315
-6.03212
-6.03693
-6.03831
-6.04804
-6.05069
-6.06893
-6.07395
-6.1089
-6.11908
-6.19399
-6.22116
-6.45701
-6.84331
-6.937
-7.54522
-7.71659
-8.86453
-8.976
-8.97726
-8.9751
-8.97441
-15.0733
-10.8547
-10.7955
-9.21432
-9.22605
-8.45445
-8.46005
-8.03299
-8.03616
-7.8199
-7.82158
-7.59456
-7.59463
-7.38732
-7.38746
-7.20113
-7.20128
-7.03451
-7.03464
-6.8862
-6.88632
-6.75518
-6.75529
-6.64028
-6.64041
-6.53977
-6.54007
-6.45027
-6.45157
-6.35569
-6.27146
-6.27297
-6.21832
-6.21862
-6.17586
-6.17595
-6.14142
-6.14146
-6.11341
-6.11345
-6.0908
-6.09083
-6.07278
-6.0728
-6.05868
-6.0587
-6.04801
-6.04802
-6.04048
-6.0405
-6.03637
-6.03639
-6.03257
-6.03256
-6.03011
-6.0301
-6.02954
-6.02953
-6.03151
-6.03148
-6.03716
-6.0371
-6.04857
-6.04843
-6.06989
-6.06949
-6.11025
-6.10857
-6.1935
-6.18485
-6.43164
-6.87303
-6.86651
-7.5845
-7.59521
-9.0126
-9.01677
-8.98667
-8.97729
-8.97503
-15.7869
-10.3474
-10.9204
-8.98183
-9.29035
-8.34235
-8.49864
-7.9717
-8.05595
-7.79182
-7.8488
-7.56654
-7.61902
-7.36153
-7.40926
-7.1779
-7.22076
-7.01367
-7.05194
-6.86761
-6.90155
-6.73872
-6.76862
-6.62583
-6.6521
-6.52721
-6.5508
-6.43976
-6.46492
-6.35376
-6.25833
-6.2783
-6.21096
-6.22332
-6.17033
-6.17983
-6.13698
-6.14463
-6.10981
-6.11599
-6.08789
-6.09285
-6.07044
-6.07436
-6.05685
-6.05986
-6.0466
-6.04881
-6.03944
-6.04089
-6.03583
-6.03682
-6.03206
-6.0328
-6.02974
-6.03008
-6.02937
-6.02916
-6.03161
-6.03062
-6.03762
-6.03542
-6.04957
-6.04531
-6.07172
-6.06338
-6.1133
-6.09459
-6.19676
-6.13832
-6.39849
-6.92066
-6.76703
-7.65207
-7.41756
-9.2172
-9.05891
-8.99525
-8.97919
-8.97555
-16.7182
-9.59966
-11.1456
-8.65947
-9.40493
-8.18608
-8.56459
-7.88597
-8.08968
-7.75092
-7.88961
-7.52514
-7.65582
-7.32355
-7.44223
-7.1437
-7.25024
-6.98303
-7.07814
-6.8403
-6.92466
-6.71455
-6.78886
-6.60463
-6.66984
-6.50872
-6.56692
-6.4238
-6.48372
-6.3512
-6.2406
-6.28713
-6.20041
-6.23063
-6.1623
-6.1858
-6.13053
-6.14949
-6.10458
-6.11992
-6.08366
-6.09596
-6.06706
-6.07679
-6.05419
-6.06168
-6.04457
-6.05007
-6.03797
-6.04155
-6.03504
-6.03748
-6.03133
-6.03318
-6.02923
-6.0301
-6.02918
-6.0287
-6.03183
-6.02943
-6.03844
-6.03308
-6.05131
-6.04096
-6.07495
-6.05494
-6.1191
-6.07577
-6.20644
-6.07905
-6.35486
-6.99533
-6.62601
-7.76442
-7.15854
-9.5001
-9.09726
-9.00192
-8.9806
-8.97592
-17.9343
-8.50535
-11.5323
-8.20786
-9.59811
-7.96594
-8.67283
-7.76497
-8.14513
-7.69093
-7.95056
-7.46396
-7.71115
-7.26754
-7.49191
-7.09331
-7.29468
-6.93791
-7.11768
-6.8001
-6.95956
-6.67902
-6.81945
-6.57345
-6.69664
-6.48146
-6.5911
-6.39972
-6.51022
-6.34776
-6.21658
-6.30128
-6.18518
-6.24189
-6.1506
-6.19493
-6.12112
-6.15691
-6.09693
-6.12591
-6.07748
-6.10073
-6.06214
-6.08051
-6.05033
-6.06449
-6.04163
-6.05203
-6.03587
-6.04261
-6.0339
-6.03849
-6.03027
-6.0338
-6.02853
-6.0302
-6.02897
-6.02808
-6.03228
-6.02779
-6.03984
-6.02981
-6.05418
-6.03483
-6.08033
-6.04314
-6.12919
-6.04999
-6.22644
-6.00364
-6.29664
-7.11038
-6.42468
-7.94653
-6.78163
-9.89279
-9.1233
-9.00563
-8.98133
-8.9761
)
;

boundaryField
{
    F1_1
    {
        type            calculated;
        value           nonuniform List<scalar> 
80
(
18.6235
7.84973
11.7748
7.93028
9.71811
7.80786
8.7396
7.62964
8.18161
7.4747
7.81201
7.41577
7.67338
7.22188
7.48229
7.0528
7.29701
6.90265
7.12524
6.76957
6.96915
6.65268
6.82951
6.5508
6.70647
6.462
6.60076
6.38274
6.52183
6.34359
6.20168
6.30803
6.17521
6.24723
6.14288
6.1993
6.11491
6.16049
6.09191
6.12881
6.07344
6.10306
6.05891
6.08232
6.04781
6.06584
6.03971
6.05295
6.03449
6.04306
6.03309
6.03892
6.02955
6.03404
6.02805
6.03016
6.0288
6.02765
6.03253
6.02677
6.04068
6.02784
6.05594
6.03121
6.08365
6.03621
6.13551
6.03502
6.23955
5.9614
6.26321
7.17988
6.30607
8.05865
6.5582
10.121
9.13176
9.00645
8.98135
8.97598
)
;
    }
    F1_2
    {
        type            calculated;
        value           nonuniform List<scalar> 
80
(
-18.613
-7.35336
-11.8544
-6.50102
-9.21117
-5.62779
-7.51067
-4.83639
-6.23121
-4.2265
-5.19813
-3.98617
-4.76763
-3.39335
-4.17719
-2.89651
-3.61372
-2.47445
-3.10781
-2.11401
-2.66457
-1.80574
-2.28093
-1.54167
-1.95167
-1.31384
-1.67397
-1.11184
-1.46921
-1.0131
-0.649176
-0.922421
-0.579498
-0.765798
-0.494701
-0.641841
-0.420469
-0.540875
-0.358014
-0.457505
-0.306049
-0.388352
-0.263131
-0.330947
-0.228093
-0.28332
-0.200265
-0.243792
-0.179964
-0.210831
-0.17215
-0.196848
-0.153643
-0.177976
-0.138649
-0.160336
-0.126404
-0.144913