/*--------------------------------*- C++ -*----------------------------------*\
| =========                 |                                                 |
| \\      /  F ield         | OpenFOAM: The Open Source CFD Toolbox           |
|  \\    /   O peration     | Version:  5.x                                   |
|   \\  /    A nd           | Web:      www.OpenFOAM.org                      |
|    \\/     M anipulation  |                                                 |
\*---------------------------------------------------------------------------*/
FoamFile
{
    version     2.0;
    format      ascii;
    class       volScalarField;
    location    "2.1";
    object      gradTx;
}
// * * * * * * * * * * * * * * * * * * * * * * * * * * * * * * * * * * * * * //

dimensions      [0 -1 0 1 0 0 0];

internalField   nonuniform List<scalar> 
3200
(
45.6267
3.64217
1.61056
1.5037
0.790544
0.74774
0.449601
0.430612
0.281749
0.271017
0.163548
0.159563
0.17291
0.17305
0.165684
0.164874
0.152548
0.151467
0.137749
0.136599
0.122683
0.121546
0.108143
0.107085
0.0950272
0.0941818
0.0855366
0.0855532
0.0906569
0.157628
0.0792439
0.0536823
0.0519655
0.0409821
0.0402024
0.0329544
0.0324125
0.0267478
0.0263139
0.021597
0.0212327
0.017223
0.0169122
0.0134759
0.0132074
0.0102135
0.00997379
0.00722907
0.00699546
0.00409136
0.00395445
0.00358906
0.00352149
0.00232825
0.00220954
0.000554266
0.000391218
-0.00185141
-0.00208209
-0.00534158
-0.00569509
-0.0108472
-0.0114422
-0.0203847
-0.0215199
-0.0392053
-0.041858
-0.0847577
-0.0936405
-0.238847
-0.616704
-0.435456
-0.680056
-0.711388
-1.26667
-1.24112
-0.0557284
-0.00752025
-0.00152357
-52.95
48.2661
3.04643
1.54164
1.32229
0.751492
0.660107
0.420616
0.38001
0.260731
0.237928
0.153517
0.145008
0.154051
0.154243
0.148515
0.146808
0.137084
0.134796
0.12394
0.121503
0.110484
0.108073
0.0974631
0.0952224
0.0856993
0.0839236
0.0772647
0.0774574
0.0842677
0.131428
0.0735753
0.0500823
0.0462562
0.0373401
0.0356677
0.0298895
0.0287369
0.0242386
0.0233175
0.019576
0.018803
0.0156234
0.014964
0.0122391
0.0116695
0.00929441
0.00878566
0.00660719
0.00611362
0.0038406
0.00354971
0.00322408
0.00307832
0.00213516
0.00188347
0.000570219
0.000223945
-0.00155858
-0.002049
-0.00464313
-0.00539549
-0.00950309
-0.0107716
-0.0179259
-0.0203573
-0.0346203
-0.0403674
-0.0757143
-0.0955489
-0.227175
-0.517221
-0.414136
-0.600709
-0.665218
-1.08367
-1.03015
-0.121698
-0.0208723
-0.00438104
-54.7457
50.889
2.5273
1.4213
1.15494
0.693267
0.578401
0.383677
0.332558
0.235856
0.207304
0.14045
0.129751
0.135547
0.135674
0.131187
0.129064
0.121325
0.118469
0.109796
0.106751
0.0979414
0.0949298
0.0864493
0.0836522
0.0760624
0.0738616
0.0687193
0.0690975
0.0762649
0.109428
0.0665324
0.0456955
0.0407504
0.0334083
0.0312971
0.0266395
0.0251953
0.0215866
0.0204342
0.0174366
0.0164699
0.0139234
0.013099
0.0109165
0.0102042
0.00830115
0.00766478
0.00591832
0.00530337
0.00351085
0.00314663
0.00285221
0.00266735
0.00191469
0.00160013
0.000547732
0.000114356
-0.00131723
-0.00193156
-0.00401817
-0.0049615
-0.00827235
-0.00986556
-0.0156559
-0.0187213
-0.0303759
-0.0376927
-0.0672912
-0.0929855
-0.209165
-0.433462
-0.381229
-0.526245
-0.604889
-0.919548
-0.853385
-0.155362
-0.030851
-0.00672293
-56.5412
53.4917
2.07266
1.26738
0.995406
0.621172
0.499892
0.340997
0.28693
0.208256
0.178215
0.125138
0.113836
0.117271
0.11729
0.113765
0.111546
0.105371
0.102375
0.0954276
0.0922311
0.0851681
0.0820061
0.0752091
0.0722746
0.0662107
0.063918
0.0599537
0.0604665
0.0672226
0.0904711
0.0586072
0.0406731
0.0353404
0.0292672
0.0270284
0.0232611
0.0217403
0.0188364
0.0176248
0.0152162
0.0142002
0.012155
0.0112886
0.00953553
0.00878691
0.00725764
0.00658873
0.00518457
0.00454057
0.00312422
0.00274102
0.00247622
0.00227936
0.00167694
0.00134656
0.000500698
4.4902e-05
-0.00110839
-0.00175506
-0.0034388
-0.00443267
-0.00711018
-0.00879145
-0.0134948
-0.0167416
-0.0263049
-0.0341266
-0.0590242
-0.0868026
-0.186831
-0.360764
-0.340432
-0.454435
-0.535119
-0.770656
-0.701893
-0.166086
-0.0368143
-0.00832037
-58.3366
56.0733
1.67124
1.09213
0.839968
0.538963
0.42289
0.294125
0.242289
0.178711
0.150047
0.108156
0.0973314
0.099132
0.0990492
0.0962912
0.0941872
0.0892904
0.0864414
0.0809103
0.0778668
0.0722396
0.0692288
0.0638152
0.0610229
0.0562088
0.0540418
0.0510094
0.0515862
0.0575208
0.0737187
0.0501249
0.0351465
0.02996
0.0249727
0.0228208
0.0197929
0.0183406
0.0160188
0.0148635
0.0129403
0.011972
0.0103397
0.00951398
0.00811476
0.00740125
0.00618009
0.00554245
0.00442075
0.00380898
0.00269651
0.0023309
0.00209775
0.00190783
0.00142854
0.00111381
0.000438253
3.53074e-06
-0.000919654
-0.00153693
-0.00288688
-0.00383635
-0.00598775
-0.00759635
-0.0113919
-0.0145091
-0.0223034
-0.0298773
-0.0506419
-0.0777296
-0.161541
-0.295836
-0.294262
-0.383958
-0.459156
-0.633936
-0.569082
-0.160549
-0.0387466
-0.00905059
-60.1316
58.6351
1.31274
0.903806
0.686489
0.449359
0.346398
0.244178
0.198118
0.147771
0.12241
0.0899323
0.0803228
0.0810693
0.080916
0.0787925
0.0769408
0.0731291
0.0706154
0.0662942
0.0636067
0.0592073
0.0565483
0.0523172
0.0498529
0.0461017
0.0442008
0.0419211
0.042492
0.0474087
0.0585582
0.0412981
0.0292282
0.0245716
0.0205647
0.0186482
0.0162616
0.0149758
0.0131545
0.0121331
0.0106265
0.00977066
0.00849237
0.00776263
0.00666687
0.00603622
0.00507952
0.00451584
0.00363681
0.00309768
0.00223914
0.00191567
0.00171776
0.00154807
0.00117374
0.000895688
0.000366338
-1.81451e-05
-0.000743016
-0.00128935
-0.00235086
-0.00319185
-0.00488692
-0.00631368
-0.00931594
-0.0120894
-0.0183107
-0.0251004
-0.0420066
-0.0663875
-0.134232
-0.236343
-0.244441
-0.314061
-0.379208
-0.506801
-0.450018
-0.143542
-0.0369947
-0.00888872
-61.9264
61.1796
0.98789
0.707822
0.533805
0.354391
0.269879
0.191985
0.15412
0.115833
0.0950574
0.0707942
0.0629004
0.0630432
0.0628621
0.0612835
0.0597735
0.0569166
0.0548624
0.0516136
0.0494157
0.0461061
0.0439314
0.0407492
0.0387348
0.035921
0.0343754
0.0327192
0.0332242
0.0370475
0.0445343
0.0322637
0.0230134
0.0191572
0.016073
0.0144944
0.0126863
0.0116324
0.0102584
0.00942213
0.0082868
0.00758637
0.00662336
0.00602617
0.00520064
0.0046845
0.00396349
0.0035021
0.00283951
0.00239937
0.00176054
0.00149559
0.0013368
0.00119667
0.000915247
0.000687765
0.000288767
-2.60759e-05
-0.000573404
-0.00102106
-0.00182357
-0.0025131
-0.00379674
-0.0049679
-0.00724911
-0.00953182
-0.0142952
-0.0199187
-0.0330722
-0.0533069
-0.105551
-0.18061
-0.192159
-0.244343
-0.296763
-0.387042
-0.340942
-0.118538
-0.0321052
-0.00789243
-63.7209
63.71
0.688248
0.507599
0.381339
0.255628
0.193096
0.138193
0.11014
0.0831943
0.0678454
0.0510017
0.045157
0.0450304
0.0448647
0.0437723
0.0426605
0.0406725
0.0391577
0.0368915
0.0352698
0.03296
0.0313554
0.0291349
0.0276492
0.0256899
0.0245548
0.0234311
0.0238239
0.02654
0.0313008
0.0231085
0.0165827
0.0137119
0.0115211
0.0103497
0.00908088
0.00830192
0.0073408
0.00672327
0.00592985
0.00541273
0.00473991
0.00429903
0.00372224
0.00334118
0.00283728
0.00249661
0.00203349
0.00170918
0.00126713
0.00107139
0.000955236
0.000851051
0.000654722
0.000486821
0.000207936
-2.46056e-05
-0.000407688
-0.000738482
-0.00130071
-0.0018105
-0.002711
-0.00357765
-0.00518216
-0.00687491
-0.0102453
-0.0144358
-0.0238545
-0.0389458
-0.0759579
-0.127418
-0.138252
-0.174615
-0.212804
-0.272737
-0.238917
-0.0880953
-0.0247269
-0.00618448
-65.5151
66.2302
0.406098
0.305203
0.228854
0.154339
0.116009
0.0833272
0.066116
0.0500926
0.0406935
0.0307696
0.0271853
0.0270196
0.0269046
0.0262622
0.025583
0.0244099
0.0234835
0.0221439
0.0211518
0.019786
0.0188043
0.0174915
0.0165828
0.0154262
0.0147339
0.0140826
0.0143308
0.0159507
0.0185854
0.0138867
0.0100059
0.00823936
0.00692843
0.00620899
0.00545586
0.00497871
0.00440954
0.00403151
0.00356193
0.00324543
0.0028473
0.00257747
0.00223615
0.00200293
0.00170469
0.00149617
0.00122206
0.00102383
0.000763959
0.000644108
0.000573283
0.000509211
0.000393148
0.000290402
0.000125329
-1.7041e-05
-0.000243998
-0.000446589
-0.000779905
-0.00109223
-0.00162656
-0.00215785
-0.00311163
-0.00415085
-0.00616247
-0.00874368
-0.0144098
-0.0237078
-0.0457868
-0.0758507
-0.0833234
-0.104814
-0.127974
-0.162182
-0.141573
-0.0541544
-0.0155556
-0.00393579
-67.3092
68.7441
0.134235
0.101826
0.0762956
0.0516033
0.038697
0.0278431
0.022045
0.0167262
0.0135629
0.0102841
0.00907689
0.00900688
0.00896591
0.00875383
0.00852553
0.00813762
0.00782605
0.00738274
0.007049
0.00659693
0.00626668
0.0058322
0.00552656
0.00514405
0.00491154
0.00469816
0.00478297
0.00532096
0.00616348
0.00463213
0.00334453
0.00274858
0.00231206
0.00206957
0.00181981
0.0016592
0.00147066
0.00134345
0.00118796
0.00108147
0.000949638
0.000858851
0.000745835
0.000667361
0.000568601
0.000498439
0.000407664
0.000341013
0.000255252
0.000214917
0.000191117
0.000169506
0.000131094
9.65268e-05
4.18613e-05
-6.04909e-06
-8.12439e-05
-0.000149431
-0.000259901
-0.00036504
-0.000542213
-0.000721122
-0.00103766
-0.00138787
-0.00205686
-0.00292817
-0.00481991
-0.0079586
-0.0152963
-0.025187
-0.027834
-0.0349467
-0.0427029
-0.0538203
-0.0469015
-0.0182606
-0.0053052
-0.00135006
-69.1031
68.78
0.148046
0.126089
0.105533
0.0836349
0.0712898
0.0594483
0.0521128
0.0437332
0.0376902
0.0300523
0.0272462
0.0272537
0.0270813
0.0261767
0.0252395
0.0236874
0.0224816
0.0208214
0.0196206
0.0180605
0.0169649
0.015581
0.0146365
0.0134899
0.0127973
0.0121539
0.012318
0.0136496
0.0157945
0.0118802
0.00860458
0.00709263
0.0059899
0.00538074
0.0047586
0.00436238
0.00390277
0.00359612
0.00322589
0.00297459
0.00266625
0.00245451
0.00219125
0.00200698
0.00177224
0.00160054
0.00137044
0.00119187
0.000953328
0.000862897
0.000856776
0.000845066
0.000806353
0.000768964
0.000709317
0.000663509
0.000600882
0.000555116
0.000494543
0.000448981
0.000385608
0.000329937
0.000238082
0.000128796
-9.71152e-05
-0.000453389
-0.00131299
-0.0029443
-0.00696331
-0.0128418
-0.0160742
-0.0231084
-0.0306305
-0.0416997
-0.0371083
-0.0144981
-0.00421652
-0.00107335
-69.7964
66.3377
0.447441
0.378212
0.316653
0.250523
0.21385
0.178165
0.15638
0.131106
0.113135
0.0899638
0.0816262
0.0817686
0.0812735
0.0785317
0.0757433
0.0710487
0.0674632
0.062446
0.0588766
0.0541633
0.0509066
0.0467256
0.043918
0.0404518
0.0383903
0.0364295
0.0369075
0.0409167
0.0476263
0.0356153
0.0257434
0.0212617
0.0179501
0.0161429
0.0142669
0.0130898
0.0117023
0.010791
0.00967305
0.00892619
0.00799501
0.00736571
0.0065707
0.00602306
0.00531428
0.00480404
0.00410932
0.00357808
0.00285412
0.00258538
0.00257061
0.00253634
0.00241907
0.00230784
0.00212746
0.00199126
0.00180203
0.00166599
0.00148308
0.00134771
0.00115657
0.000991304
0.00071499
0.000391096
-0.000286087
-0.00133999
-0.00390804
-0.00873734
-0.0208154
-0.0386311
-0.0480705
-0.0693054
-0.0917493
-0.125725
-0.112045
-0.0430011
-0.012364
-0.00312912
-69.3891
63.8881
0.756831
0.630029
0.527958
0.416234
0.356371
0.296327
0.260788
0.218188
0.188788
0.149283
0.135668
0.13631
0.135556
0.130889
0.126324
0.118366
0.112503
0.104013
0.0981791
0.0902086
0.0848861
0.0778161
0.0732265
0.0673583
0.0639799
0.0606083
0.0613565
0.0680766
0.080208
0.0592657
0.0426674
0.0353846
0.0298507
0.0269084
0.0237478
0.0218261
0.0194832
0.0179946
0.0161058
0.0148855
0.013312
0.0122839
0.0109406
0.0100459
0.00884866
0.00801519
0.00684191
0.00597222
0.00473688
0.00429787
0.0042854
0.00423111
0.00403172
0.00384967
0.00354401
0.00332131
0.00300121
0.00277891
0.00246988
0.00224881
0.00192663
0.00165725
0.00119393
0.00066766
-0.00045986
-0.00216589
-0.0064125
-0.0142402
-0.0344378
-0.0647551
-0.0795946
-0.115454
-0.152406
-0.211657
-0.189197
-0.0699676
-0.0196553
-0.00491705
-68.9817
61.4266
1.08316
0.880857
0.739651
0.579872
0.498901
0.41351
0.365481
0.304744
0.264846
0.207567
0.18914
0.190908
0.189997
0.183244
0.177042
0.165602
0.157649
0.145476
0.137568
0.126149
0.118937
0.108809
0.102587
0.0941663
0.0895705
0.0846236
0.085568
0.0950217
0.114115
0.0827438
0.0592199
0.0494386
0.0416486
0.0376834
0.0331799
0.0305801
0.0272307
0.0252149
0.0225123
0.0208596
0.0186079
0.0172152
0.015293
0.0140813
0.0123689
0.0112404
0.00956274
0.00838134
0.00658809
0.00599358
0.00600217
0.00593199
0.005644
0.00539676
0.00495754
0.00465555
0.00419677
0.00389558
0.00345342
0.00315422
0.00269483
0.0023312
0.00167562
0.000968496
-0.000610272
-0.00288994
-0.00877345
-0.019248
-0.0476548
-0.0914974
-0.110277
-0.161557
-0.212171
-0.300855
-0.270218
-0.094177
-0.0255236
-0.00627525
-68.5742
58.9488
1.43375
1.12924
0.952091
0.740361
0.641611
0.529201
0.470684
0.390468
0.341602
0.264299
0.241806
0.245615
0.244673
0.235579
0.227972
0.2127
0.202966
0.18677
0.1771
0.161924
0.153106
0.139647
0.132038
0.120823
0.115177
0.108405
0.109441
0.121583
0.150043
0.10591
0.0752244
0.0634143
0.0532947
0.0484811
0.0425369
0.039365
0.0349258
0.0324636
0.0288778
0.0268585
0.0238701
0.0221685
0.0196178
0.0181375
0.0158665
0.0144881
0.0122643
0.0108154
0.00839175
0.00766556
0.0077225
0.00764202
0.00725507
0.00695195
0.00636601
0.00599647
0.00538642
0.00501827
0.00443161
0.0040664
0.00345954
0.00301715
0.00215969
0.00130451
-0.000732342
-0.00346951
-0.0109504
-0.0235381
-0.0602538
-0.119241
-0.139659
-0.207687
-0.270411
-0.394825
-0.357053
-0.114091
-0.0294157
-0.00706781
-68.1665
56.451
1.81646
1.37254
1.16592
0.896335
0.784871
0.642739
0.576757
0.47494
0.419498
0.318841
0.293422
0.300514
0.299678
0.287857
0.27921
0.259578
0.248544
0.227806
0.216854
0.197446
0.187463
0.170253
0.161635
0.147259
0.14083
0.131876
0.132872
0.147495
0.188878
0.128541
0.0904759
0.0773243
0.0647301
0.0593256
0.0517844
0.048202
0.0425431
0.0397585
0.0351818
0.0328973
0.0290819
0.0271568
0.0239007
0.0222261
0.0193293
0.0177705
0.0149355
0.0132892
0.010128
0.00930673
0.00944886
0.00936484
0.00886334
0.008519
0.00776635
0.00734754
0.00656691
0.0061502
0.00540141
0.0049887
0.0042181
0.00372013
0.00264407
0.00168818
-0.000826008
-0.00385894
-0.0129226
-0.0268624
-0.0719611
-0.148527
-0.167135
-0.254026
-0.326182
-0.495281
-0.452095
-0.127672
-0.0308147
-0.00719704
-67.7586
53.9303
2.23971
1.60635
1.38227
1.04599
0.929361
0.753236
0.684268
0.557561
0.499206
0.370376
0.343741
0.355733
0.355125
0.340011
0.330891
0.306116
0.294513
0.268452
0.25695
0.232594
0.222112
0.200518
0.191466
0.17338
0.166587
0.154952
0.155761
0.17234
0.231787
0.150284
0.104733
0.0912141
0.0758799
0.0702574
0.0608753
0.0571237
0.050047
0.0471265
0.0413955
0.0389987
0.0342194
0.0321995
0.0281214
0.0263648
0.0227395
0.0211049
0.01756
0.0158243
0.0117714
0.01091
0.0111849
0.011105
0.010466
0.0101031
0.00915399
0.00871372
0.00773345
0.00729601
0.00635834
0.00592587
0.00496628
0.00444674
0.00312413
0.00213467
-0.000898452
-0.00400665
-0.0146992
-0.0289398
-0.0824086
-0.180128
-0.191878
-0.300954
-0.378073
-0.604225
-0.558384
-0.13215
-0.0292842
-0.00661693
-67.3505
51.3854
2.71247
1.82378
1.60312
1.18686
1.07624
0.85945
0.794092
0.637451
0.581735
0.417825
0.392516
0.41146
0.411155
0.391928
0.383201
0.35213
0.341064
0.30852
0.297563
0.267191
0.257209
0.230285
0.22166
0.199053
0.192541
0.177533
0.178022
0.195473
0.280339
0.170593
0.117712
0.105179
0.0866435
0.0813418
0.0697429
0.0661804
0.0573864
0.0546087
0.0474774
0.0451969
0.0392479
0.0373259
0.0322506
0.0305795
0.0260712
0.0245168
0.0201132
0.018453
0.0132877
0.0124684
0.0129359
0.0128684
0.0120584
0.0117113
0.010522
0.0101023
0.00887899
0.00846252
0.00729572
0.00688477
0.00569747
0.00520608
0.00359142
0.00266346
-0.000967347
-0.00385042
-0.0163333
-0.0294473
-0.091085
-0.215167
-0.212726
-0.349158
-0.424001
-0.724047
-0.679887
-0.123693
-0.0245459
-0.00534703
-66.9422
48.8169
3.24406
2.01451
1.83179
1.31551
1.22736
0.959611
0.907572
0.713309
0.668597
0.459734
0.439525
0.467959
0.467946
0.443429
0.436409
0.397349
0.388478
0.347729
0.338956
0.300976
0.292987
0.259324
0.252418
0.224085
0.218839
0.199498
0.199608
0.215915
0.336682
0.188631
0.129081
0.119387
0.0968801
0.0926804
0.0782913
0.0754484
0.0644871
0.0622669
0.0533671
0.0515436
0.044117
0.0425801
0.0362451
0.0349091
0.0292861
0.0280439
0.0225577
0.0212229
0.0146311
0.0139762
0.0147092
0.0146622
0.0136331
0.0133542
0.0118602
0.0115238
0.00999305
0.00965984
0.0082036
0.00787545
0.00640151
0.00601101
0.00403188
0.00330099
-0.00106554
-0.00330957
-0.0179414
-0.028013
-0.0972623
-0.255264
-0.228018
-0.399823
-0.460918
-0.857633
-0.821867
-0.0969542
-0.01661
-0.00348482
-66.5338
46.2295
3.84369
2.16336
2.07382
1.42704
1.38568
1.05115
1.02675
0.783188
0.762029
0.4941
0.484591
0.525601
0.52572
0.494235
0.490903
0.441363
0.437171
0.385662
0.381522
0.333565
0.329796
0.287296
0.284036
0.248197
0.245703
0.220689
0.22055
0.232182
0.403785
0.203133
0.138458
0.134111
0.106387
0.104429
0.0863802
0.0850435
0.0712402
0.0701945
0.0589757
0.0581163
0.0487523
0.048028
0.0400413
0.0394118
0.0323271
0.0317421
0.0248373
0.0242043
0.0157377
0.0154293
0.0165146
0.0164964
0.0151788
0.0150466
0.0131529
0.012994
0.0110601
0.0109029
0.00906716
0.00891276
0.00706294
0.00688022
0.00442309
0.00408463
-0.00124797
-0.00227254
-0.0197312
-0.0242108
-0.0998881
-0.302768
-0.235346
-0.454914
-0.484408
-1.00851
-0.991411
-0.0444319
-0.00598552
-0.00121211
-66.1253
46.2295
3.84368
2.16336
2.07382
1.42704
1.38568
1.05115
1.02675
0.78319
0.762031
0.494101
0.484593
0.525602
0.525721
0.494235
0.490904
0.441363
0.437171
0.385662
0.381522
0.333564
0.329795
0.287295
0.284035
0.248196
0.245702
0.220687
0.220549
0.232181
0.403783
0.203133
0.138458
0.134111
0.106388
0.10443
0.0863817
0.0850451
0.071242
0.0701962
0.0589774
0.0581181
0.0487539
0.0480296
0.0400428
0.0394133
0.0323284
0.0317434
0.0248383
0.0242053
0.0157385
0.01543
0.0165153
0.016497
0.0151794
0.0150471
0.0131534
0.0129944
0.0110605
0.0109034
0.00906755
0.00891314
0.00706332
0.00688061
0.00442355
0.0040851
-0.00124727
-0.00227182
-0.01973
-0.0242096
-0.0998865
-0.302766
-0.235345
-0.454916
-0.484411
-1.00852
-0.991418
-0.0444322
-0.00598578
-0.00121244
-66.1253
48.8169
3.24406
2.0145
1.83179
1.31551
1.22736
0.959613
0.907573
0.71331
0.668598
0.459735
0.439526
0.46796
0.467946
0.443429
0.43641
0.397348
0.388478
0.347728
0.338956
0.300975
0.292986
0.259323
0.252417
0.224084
0.218838
0.199497
0.199607
0.215914
0.33668
0.18863
0.129081
0.119388
0.0968811
0.0926815
0.0782927
0.0754498
0.0644886
0.0622685
0.0533687
0.0515451
0.0441185
0.0425816
0.0362465
0.0349104
0.0292872
0.028045
0.0225586
0.0212238
0.0146317
0.0139768
0.0147098
0.0146628
0.0136337
0.0133547
0.0118606
0.0115242
0.00999343
0.00966021
0.00820394
0.00787579
0.00640185
0.00601136
0.00403228
0.00330142
-0.00106493
-0.0033089
-0.0179404
-0.0280119
-0.0972608
-0.255262
-0.228017
-0.399825
-0.460921
-0.857639
-0.821873
-0.096955
-0.0166104
-0.00348631
-66.5338
51.3853
2.71247
1.82378
1.60311
1.18686
1.07624
0.859451
0.794093
0.637452
0.581737
0.417826
0.392517
0.41146
0.411155
0.391928
0.383201
0.35213
0.341064
0.30852
0.297563
0.26719
0.257208
0.230284
0.221659
0.199052
0.192541
0.177532
0.178021
0.195472
0.280337
0.170592
0.117713
0.10518
0.0866444
0.0813428
0.0697442
0.0661817
0.0573877
0.0546101
0.0474788
0.0451983
0.0392493
0.0373272
0.0322518
0.0305807
0.0260722
0.0245178
0.020114
0.0184538
0.0132884
0.012469
0.0129365
0.0128689
0.0120589
0.0117118
0.0105224
0.0101026
0.00887934
0.00846287
0.00729604
0.00688508
0.00569779
0.0052064
0.00359179
0.00266386
-0.000966804
-0.0038498
-0.0163324
-0.0294463
-0.0910836
-0.215165
-0.212726
-0.349159
-0.424003
-0.724051
-0.679892
-0.123694
-0.0245461
-0.00534918
-66.9422
53.9303
2.23971
1.60634
1.38227
1.04599
0.929362
0.753237
0.684269
0.557562
0.499207
0.370377
0.343741
0.355734
0.355125
0.340011
0.330891
0.306116
0.294513
0.268452
0.25695
0.232594
0.222112
0.200518
0.191465
0.17338
0.166587
0.154951
0.15576
0.172339
0.231785
0.150284
0.104734
0.0912147
0.0758807
0.0702584
0.0608764
0.0571249
0.0500482
0.0471277
0.0413968
0.0389999
0.0342206
0.0322006
0.0281225
0.0263658
0.0227404
0.0211057
0.0175608
0.015825
0.0117719
0.0109105
0.0111854
0.0111055
0.0104664
0.0101035
0.00915436
0.00871408
0.00773377
0.00729632
0.00635863
0.00592615
0.00496657
0.00444704
0.00312446
0.00213504
-0.000897977
-0.00400609
-0.0146985
-0.0289389
-0.0824074
-0.180127
-0.191878
-0.300955
-0.378075
-0.604229
-0.558389
-0.132151
-0.0292839
-0.00661909
-67.3505
56.451
1.81646
1.37253
1.16592
0.896335
0.784872
0.64274
0.576758
0.474941
0.419499
0.318842
0.293423
0.300515
0.299678
0.287857
0.27921
0.259578
0.248544
0.227805
0.216854
0.197446
0.187463
0.170252
0.161635
0.147259
0.14083
0.131876
0.132871
0.147495
0.188877
0.12854
0.0904763
0.0773248
0.0647308
0.0593264
0.0517854
0.048203
0.0425442
0.0397595
0.0351829
0.0328984
0.0290829
0.0271578
0.0239016
0.022227
0.0193301
0.0177713
0.0149362
0.0132898
0.0101285
0.0093072
0.00944929
0.00936524
0.00886371
0.00851935
0.00776667
0.00734785
0.00656719
0.00615047
0.00540166
0.00498895
0.00421835
0.00372039
0.00264435
0.0016885
-0.000825605
-0.00385846
-0.012922
-0.0268617
-0.07196
-0.148526
-0.167135
-0.254028
-0.326184
-0.495284
-0.452099
-0.127673
-0.0308139
-0.00719883
-67.7586
58.9488
1.43375
1.12924
0.95209
0.740362
0.641612
0.529202
0.470684
0.390469
0.341603
0.2643
0.241807
0.245615
0.244674
0.235579
0.227972
0.2127
0.202966
0.18677
0.1771
0.161923
0.153106
0.139646
0.132038
0.120823
0.115176
0.108404
0.10944
0.121583
0.150042
0.10591
0.0752248
0.0634148
0.0532953
0.0484818
0.0425377
0.0393659
0.0349267
0.0324645
0.0288787
0.0268594
0.0238709
0.0221693
0.0196186
0.0181382
0.0158672
0.0144888
0.0122648
0.0108159
0.00839215
0.00766595
0.00772285
0.00764234
0.00725537
0.00695223
0.00636627
0.00599672
0.00538666
0.00501849
0.00443182
0.0040666
0.00345974
0.00301737
0.00215993
0.00130477
-0.000732014
-0.00346912
-0.0109499
-0.0235375
-0.060253
-0.119241
-0.139659
-0.207687
-0.270412
-0.394828
-0.357056
-0.114091
-0.0294145
-0.00706907
-68.1665
61.4266
1.08315
0.880849
0.73965
0.579872
0.498902
0.413511
0.365481
0.304744
0.264847
0.207568
0.189141
0.190908
0.189997
0.183244
0.177042
0.165602
0.157649
0.145476
0.137568
0.126149
0.118937
0.108808
0.102587
0.094166
0.0895701
0.0846231
0.0855674
0.0950214
0.114114
0.0827434
0.0592202
0.049439
0.041649
0.0376839
0.0331805
0.0305807
0.0272314
0.0252156
0.022513
0.0208603
0.0186085
0.0172158
0.0152936
0.0140819
0.0123695
0.0112409
0.00956318
0.00838173
0.00658839
0.00599388
0.00600244
0.00593224
0.00564423
0.00539698
0.00495775
0.00465574
0.00419695
0.00389575
0.00345358
0.00315438
0.00269499
0.00233137
0.00167581
0.000968703
-0.000610019
-0.00288963
-0.00877307
-0.0192476
-0.0476542
-0.0914969
-0.110277
-0.161558
-0.212172
-0.300857
-0.27022
-0.0941776
-0.0255223
-0.00627599
-68.5742
63.8881
0.756829
0.630022
0.527957
0.416234
0.356371
0.296327
0.260789
0.218189
0.188788
0.149283
0.135668
0.13631
0.135557
0.130889
0.126324
0.118366
0.112503
0.104013
0.098179
0.0902085
0.0848859
0.0778159
0.0732263
0.067358
0.0639796
0.060608
0.0613561
0.0680764
0.0802077
0.0592654
0.0426676
0.0353849
0.0298511
0.0269087
0.0237482
0.0218266
0.0194837
0.0179951
0.0161062
0.014886
0.0133125
0.0122843
0.010941
0.0100463
0.00884903
0.00801554
0.00684222
0.0059725
0.0047371
0.00429808
0.00428559
0.00423129
0.00403189
0.00384983
0.00354415
0.00332145
0.00300134
0.00277904
0.00246999
0.00224893
0.00192675
0.00165737
0.00119406
0.000667807
-0.000459682
-0.00216568
-0.00641224
-0.01424
-0.0344374
-0.0647548
-0.0795946
-0.115454
-0.152407
-0.211658
-0.189198
-0.069968
-0.0196541
-0.00491737
-68.9817
66.3377
0.447439
0.378208
0.316653
0.250523
0.21385
0.178165
0.156381
0.131107
0.113135
0.089964
0.0816264
0.0817687
0.0812736
0.0785318
0.0757433
0.0710487
0.0674632
0.0624459
0.0588765
0.0541632
0.0509065
0.0467255
0.0439178
0.0404516
0.0383901
0.0364293
0.0369072
0.0409165
0.0476261
0.0356151
0.0257436
0.0212619
0.0179503
0.0161432
0.0142672
0.0130901
0.0117026
0.0107913
0.00967335
0.00892648
0.00799529
0.00736598
0.00657096
0.0060233
0.0053145
0.00480425
0.00410951
0.00357825
0.00285425
0.0025855
0.00257072
0.00253644
0.00241916
0.00230794
0.00212754
0.00199134
0.0018021
0.00166607
0.00148315
0.00134777
0.00115663
0.000991374
0.000715066
0.000391183
-0.000285983
-0.00133986
-0.0039079
-0.00873719
-0.0208152
-0.038631
-0.0480706
-0.0693058
-0.0917499
-0.125726
-0.112046
-0.0430013
-0.0123631
-0.00312917
-69.3891
68.78
0.148045
0.126088
0.105533
0.0836349
0.0712898
0.0594484
0.0521129
0.0437333
0.0376902
0.0300524
0.0272462
0.0272538
0.0270814
0.0261767
0.0252395
0.0236874
0.0224816
0.0208213
0.0196206
0.0180605
0.0169649
0.0155809
0.0146365
0.0134898
0.0127973
0.0121538
0.0123179
0.0136496
0.0157944
0.0118801
0.00860463
0.00709269
0.00598996
0.00538082
0.00475869
0.00436247
0.00390286
0.00359621
0.00322599
0.00297469
0.00266635
0.0024546
0.00219134
0.00200706
0.00177231
0.00160061
0.0013705
0.00119193
0.000953371
0.000862939
0.000856812
0.000845099
0.000806385
0.000768994
0.000709345
0.000663536
0.000600906
0.000555139
0.000494566
0.000449003
0.00038563
0.000329959
0.000238107
0.000128824
-9.70811e-05
-0.000453348
-0.00131294
-0.00294426
-0.00696322
-0.0128418
-0.0160743
-0.0231085
-0.0306307
-0.0417
-0.0371085
-0.0144982
-0.00421616
-0.00107332
-69.7964
68.7437
0.134079
0.101566
0.0759251
0.0510285
0.0378845
0.0265816
0.0203275
0.0144211
0.0120728
0.0114202
0.0110777
0.0105446
0.010124
0.00953588
0.00910785
0.00854758
0.00814414
0.0076181
0.00723877
0.00674357
0.00638878
0.00593004
0.00561023
0.00521325
0.00497234
0.00475077
0.00483254
0.00537116
0.00621826
0.00467131
0.00337085
0.002769
0.00232823
0.00208346
0.00183151
0.00166957
0.0014796
0.00135148
0.00119496
0.00108779
0.000955187
0.000863886
0.000750255
0.000671363
0.000572086
0.000501556
0.000410299
0.000343282
0.000257037
0.000216506
0.000192666
0.000171011
0.000132494
9.78339e-05
4.30271e-05
-4.98954e-06
-8.0327e-05
-0.000148617
-0.00025922
-0.000364454
-0.000541752
-0.000720753
-0.00103742
-0.00138772
-0.00205685
-0.00292829
-0.00482024
-0.00795919
-0.0152974
-0.0251887
-0.0278357
-0.0349484
-0.0427047
-0.0538222
-0.046903
-0.0182612
-0.00530542
-0.00135011
-69.1031
66.229
0.405633
0.304423
0.227746
0.152616
0.11358
0.0795431
0.0609688
0.0431211
0.0361507
0.0342482
0.0332408
0.0316295
0.0303788
0.0286013
0.0273289
0.0256366
0.0244374
0.0228485
0.021721
0.0202252
0.0191706
0.0177846
0.0168338
0.0156336
0.0149163
0.0142402
0.0144794
0.0161012
0.0187505
0.0140041
0.0100846
0.00830054
0.00697684
0.00625066
0.00549092
0.00500984
0.00443633
0.0040556
0.00358291
0.00326442
0.00286394
0.00259258
0.0022494
0.00201493
0.00171514
0.00150553
0.00122995
0.00103064
0.000769302
0.00064887
0.000577928
0.000513726
0.000397346
0.000294325
0.000128825
-1.38612e-05
-0.00024125
-0.000444146
-0.000777863
-0.00109047
-0.00162518
-0.00215674
-0.0031109
-0.0041504
-0.00616245
-0.00874404
-0.0144108
-0.0237096
-0.0457902
-0.0758559
-0.0833284
-0.10482
-0.12798
-0.162188
-0.141578
-0.0541562
-0.0155562
-0.00393592
-67.3091
63.708
0.687475
0.5063
0.379506
0.25276
0.189076
0.131886
0.101581
0.0713862
0.0600262
0.0570407
0.0554282
0.0527001
0.0506549
0.0476468
0.045567
0.042706
0.0407465
0.0380607
0.0362183
0.0336894
0.0319659
0.029622
0.0280676
0.0260347
0.0248588
0.0236932
0.024071
0.0267901
0.0315787
0.0233038
0.016713
0.0138137
0.0116015
0.0104192
0.0091392
0.00835382
0.00738539
0.00676344
0.00596475
0.00544439
0.00476759
0.00432422
0.00374429
0.00336121
0.00285467
0.00251222
0.00204664
0.00172055
0.00127599
0.00107931
0.000962978
0.000858583
0.000661718
0.000493365
0.000213757
-1.93009e-05
-0.000403112
-0.000734405
-0.00129732
-0.00180757
-0.0027087
-0.0035758
-0.00518094
-0.00687416
-0.0102452
-0.0144364
-0.0238561
-0.0389487
-0.0759635
-0.127427
-0.13826
-0.174624
-0.212813
-0.272747
-0.238925
-0.0880983
-0.0247279
-0.00618465
-65.5151
61.1768
0.986813
0.706003
0.531266
0.350383
0.264314
0.183155
0.14219
0.0988984
0.083567
0.0797785
0.0776607
0.0737438
0.07097
0.0666555
0.0638368
0.0597399
0.057085
0.0532396
0.0507434
0.0471217
0.0447863
0.0414282
0.0393209
0.0364019
0.0348011
0.0330846
0.0335692
0.0373964
0.0449296
0.0325362
0.0231937
0.0192993
0.016185
0.0145916
0.0127677
0.0117051
0.0103206
0.00947841
0.00833556
0.00763073
0.00666204
0.00606147
0.00523145
0.00471257
0.00398779
0.00352399
0.00285788
0.00241532
0.00177287
0.00150663
0.00134765
0.00120723
0.000925038
0.000696942
0.000296906
-1.86372e-05
-0.00056701
-0.00101534
-0.00181882
-0.00250898
-0.00379354
-0.0049653
-0.00724741
-0.00953076
-0.0142952
-0.0199195
-0.0330745
-0.0533109
-0.105559
-0.180623
-0.192171
-0.244355
-0.296776
-0.387055
-0.340953
-0.118542
-0.0321064
-0.00789261
-63.7208
58.6315
1.31137
0.901465
0.683274
0.444215
0.339356
0.232817
0.182893
0.125293
0.106647
0.10245
0.0999656
0.0947423
0.0913471
0.0856049
0.0821582
0.0767166
0.0734718
0.068365
0.065314
0.0605032
0.0576482
0.0531848
0.050607
0.0467167
0.0447484
0.0423883
0.0429339
0.0478547
0.0590776
0.0416466
0.0294564
0.0247537
0.0207077
0.0187733
0.0163658
0.0150694
0.0132343
0.0122055
0.010689
0.00982778
0.00854195
0.00780809
0.00670637
0.00607237
0.00511068
0.00454404
0.00366036
0.00311826
0.00225483
0.00192979
0.0017317
0.00156169
0.00118632
0.000907516
0.000376783
-8.55743e-06
-0.000734817
-0.00128198
-0.00234478
-0.00318654
-0.00488282
-0.00631031
-0.00931378
-0.0120881
-0.0183107
-0.0251014
-0.0420095
-0.0663925
-0.134241
-0.236359
-0.244456
-0.314077
-0.379225
-0.506819
-0.450033
-0.143547
-0.0369961
-0.00888888
-61.9263
56.069
1.66957
1.08926
0.836121
0.532682
0.414467
0.280216
0.223903
0.15013
0.129149
0.125054
0.122381
0.115668
0.111819
0.104463
0.10056
0.0936062
0.0899337
0.083409
0.0799558
0.0738071
0.0705751
0.0648666
0.0619463
0.0569551
0.0547118
0.0515761
0.0521239
0.058061
0.0743719
0.0505474
0.0354197
0.0301818
0.0251458
0.0229738
0.0199194
0.0184552
0.0161157
0.0149522
0.0130164
0.012042
0.0104
0.00956966
0.00816285
0.00744555
0.00621803
0.00557705
0.00444942
0.00383428
0.00271544
0.00234805
0.00211481
0.00192452
0.0014439
0.00112832
0.000450984
1.52906e-05
-0.000909671
-0.00152788
-0.00287948
-0.00382983
-0.00598277
-0.0075922
-0.0113892
-0.0145073
-0.0223034
-0.0298784
-0.0506455
-0.0777355
-0.161553
-0.295857
-0.29428
-0.383977
-0.459175
-0.633958
-0.569101
-0.160554
-0.038748
-0.00905069