/*--------------------------------*- C++ -*----------------------------------*\
| =========                 |                                                 |
| \\      /  F ield         | OpenFOAM: The Open Source CFD Toolbox           |
|  \\    /   O peration     | Version:  5.x                                   |
|   \\  /    A nd           | Web:      www.OpenFOAM.org                      |
|    \\/     M anipulation  |                                                 |
\*---------------------------------------------------------------------------*/
FoamFile
{
    version     2.0;
    format      ascii;
    class       volScalarField;
    location    "11.9001";
    object      gradTx;
}
// * * * * * * * * * * * * * * * * * * * * * * * * * * * * * * * * * * * * * //

dimensions      [0 -1 0 1 0 0 0];

internalField   nonuniform List<scalar> 
6300
(
-31.9095
-31.9803
-32.1213
-32.3309
-32.607
-32.9463
-33.3447
-33.7967
-34.2955
-34.8331
-35.4001
-35.9862
-36.5801
-37.1707
-37.7474
-31.8387
-31.9102
-32.0526
-32.2644
-32.5437
-32.8873
-33.2911
-33.7498
-34.2567
-34.8037
-35.3811
-35.9783
-36.5834
-37.1847
-37.7707
-31.6964
-31.7693
-31.9144
-32.1306
-32.4161
-32.768
-33.1826
-33.6548
-34.1779
-34.7438
-35.3425
-35.9623
-36.5906
-37.214
-37.8193
-31.4813
-31.556
-31.7051
-31.9275
-32.222
-32.5861
-33.0166
-33.5088
-34.0564
-34.6511
-35.2825
-35.938
-36.6028
-37.2612
-37.8974
-31.1915
-31.2685
-31.4223
-31.6525
-31.9582
-32.3378
-32.7888
-33.3074
-33.8878
-34.5218
-35.1986
-35.9042
-36.6214
-37.3308
-38.012
-30.8246
-30.9041
-31.0632
-31.302
-31.6205
-32.0181
-32.4936
-33.0442
-33.6654
-34.3497
-35.086
-35.8588
-36.6478
-37.4285
-38.1735
-30.3782
-30.4601
-30.6244
-30.8719
-31.2036
-31.6205
-32.1231
-32.7105
-33.3801
-34.1257
-34.937
-35.7972
-36.6826
-37.5618
-38.3972
-29.85
-29.9338
-30.1024
-30.3576
-30.7016
-31.1374
-31.6677
-32.2947
-33.0186
-33.8362
-34.739
-35.7104
-36.7236
-37.7392
-38.7045
-29.2378
-29.3227
-29.494
-29.7543
-30.1078
-30.5596
-31.1158
-31.7821
-32.5635
-33.4617
-34.4725
-35.5821
-36.7626
-37.9668
-39.1236
-28.5407
-28.6253
-28.7964
-29.0579
-29.4157
-29.8777
-30.4536
-31.1546
-31.9919
-32.9749
-34.1076
-35.3834
-36.7783
-38.2424
-39.687
-27.7591
-27.8414
-28.0085
-28.2652
-28.6194
-29.0818
-29.6666
-30.3909
-31.2748
-32.3389
-33.6002
-35.0663
-36.7258
-38.5383
-40.4168
-26.8952
-26.9728
-27.1308
-27.3751
-27.715
-28.1638
-28.74
-29.468
-30.3782
-31.5062
-32.8892
-34.557
-36.5212
-38.7691
-41.2726
-25.9536
-26.0237
-26.167
-26.3895
-26.7016
-27.1184
-27.662
-28.3633
-29.2644
-30.4199
-31.8946
-33.7522
-36.0323
-38.7419
-41.9816
-24.9419
-25.0016
-25.1238
-25.3144
-25.5835
-25.9464
-26.4267
-27.0596
-27.8973
-29.0157
-30.5182
-32.5234
-35.1055
-38.1648
-41.5688
-23.8704
-23.917
-24.0122
-24.161
-24.3716
-24.6573
-25.0393
-25.5519
-26.2508
-27.2291
-28.6391
-30.7094
-33.6697
-37.1641
-37.5077
-38.2567
-38.6968
-39.1128
-39.5026
-39.8655
-40.2013
-40.5105
-40.7934
-41.0505
-41.2815
-41.4858
-41.6625
-41.8105
-41.929
-42.0181
-42.0785
-42.1122
-42.1221
-42.1121
-42.0863
-42.049
-42.0041
-41.9544
-41.9018
-41.8467
-41.7885
-41.7258
-41.6566
-41.5791
-41.4917
-41.3938
-41.2858
-41.169
-41.0458
-40.919
-40.7915
-40.6658
-40.5438
-40.4264
-40.3133
-40.2033
-40.0945
-39.9845
-39.8712
-39.7527
-39.6282
-39.4976
-39.3622
-39.2238
-39.0849
-38.9481
-38.8155
-38.6889
-38.5689
-38.4551
-38.3463
-38.2405
-38.1354
-38.0289
-37.9191
-37.8052
-37.6871
-37.5659
-37.4433
-37.3217
-37.2035
-37.0908
-36.9852
-36.8875
-36.7974
-36.7138
-36.6353
-36.5598
-36.4858
-36.4123
-36.3392
-36.2675
-36.1994
-36.138
-36.0872
-36.051
-36.033
-36.0364
-36.0627
-36.112
-36.1829
-36.2718
-36.3738
-36.4828
-36.5918
-38.287
-38.7316
-39.1504
-39.5415
-39.9045
-40.2397
-40.5482
-40.8308
-41.088
-41.3199
-41.5256
-41.7037
-41.8528
-41.9715
-42.0594
-42.1171
-42.1465
-42.1509
-42.1347
-42.1028
-42.0601
-42.0109
-41.9587
-41.9053
-41.8511
-41.795
-41.7351
-41.6687
-41.5933
-41.5068
-41.4084
-41.2983
-41.1783
-41.0511
-40.9201
-40.7888
-40.6605
-40.5373
-40.4201
-40.3088
-40.2016
-40.0961
-39.9894
-39.8786
-39.7615
-39.6368
-39.5047
-39.3665
-39.2246
-39.0819
-38.9418
-38.807
-38.6794
-38.5599
-38.4479
-38.3419
-38.2394
-38.1376
-38.0335
-37.9251
-37.8112
-37.6916
-37.5678
-37.4419
-37.3168
-37.1954
-37.0805
-36.974
-36.8766
-36.7879
-36.7067
-36.6308
-36.5576
-36.4852
-36.4118
-36.3372
-36.2624
-36.1897
-36.1228
-36.0662
-36.0246
-36.0024
-36.0033
-36.0294
-36.0811
-36.1568
-36.2529
-36.3638
-36.4827
-36.6017
-38.3499
-38.8036
-39.2277
-39.6209
-39.9834
-40.3168
-40.6231
-40.9045
-41.1622
-41.3961
-41.6051
-41.7869
-41.9388
-42.0584
-42.1442
-42.1963
-42.2167
-42.2094
-42.18
-42.1348
-42.0803
-42.0223
-41.9647
-41.91
-41.8581
-41.8071
-41.7537
-41.6938
-41.6234
-41.5392
-41.4397
-41.3252
-41.1979
-41.0617
-40.9214
-40.782
-40.6478
-40.5219
-40.4056
-40.2982
-40.1974
-40.0995
-40.0001
-39.8951
-39.781
-39.6562
-39.5206
-39.3761
-39.2263
-39.0754
-38.928
-38.7881
-38.6584
-38.54
-38.4321
-38.3325
-38.2375
-38.1428
-38.0444
-37.9391
-37.8251
-37.7024
-37.5728
-37.4394
-37.3064
-37.1781
-37.0583
-36.9496
-36.8529
-36.7678
-36.692
-36.6222
-36.5546
-36.4857
-36.413
-36.3355
-36.254
-36.1716
-36.0929
-36.0236
-35.9702
-35.9387
-35.9339
-35.9593
-36.0156
-36.1015
-36.2126
-36.3424
-36.4823
-36.6226
-38.4505
-38.9181
-39.3497
-39.7445
-40.1043
-40.4327
-40.7341
-41.0125
-41.2704
-41.5082
-41.7237
-41.9131
-42.0715
-42.1941
-42.2775
-42.321
-42.3267
-42.2998
-42.2479
-42.1802
-42.1058
-42.0328
-41.9668
-41.9106
-41.8637
-41.8227
-41.7818
-41.7342
-41.6732
-41.5936
-41.4926
-41.3704
-41.2304
-41.0783
-40.9216
-40.7677
-40.6232
-40.4927
-40.3781
-40.2782
-40.1891
-40.1051
-40.0191
-39.9245
-39.8161
-39.691
-39.5491
-39.3935
-39.2295
-39.0638
-38.9034
-38.7544
-38.621
-38.5048
-38.4045
-38.3165
-38.235
-38.1534
-38.0653
-37.9656
-37.8516
-37.7232
-37.583
-37.4363
-37.2893
-37.1487
-37.0201
-36.9077
-36.8127
-36.7342
-36.6685
-36.6103
-36.5534
-36.4919
-36.4212
-36.3394
-36.2471
-36.1483
-36.0492
-35.9583
-35.8844
-35.8363
-35.8213
-35.8444
-35.9077
-36.0098
-36.1455
-36.3064
-36.4813
-36.657
-38.5976
-39.0843
-39.5246
-39.9186
-40.2704
-40.5874
-40.8781
-41.15
-41.4078
-41.6522
-41.8799
-42.084
-42.2556
-42.386
-42.4685
-42.5003
-42.4837
-42.4261
-42.3387
-42.2352
-42.1294
-42.0331
-41.9547
-41.8978
-41.8609
-41.838
-41.8194
-41.7938
-41.7499
-41.6789
-41.576
-41.4413
-41.2801
-41.1017
-40.9175
-40.7397
-40.5784
-40.4408
-40.3295
-40.2425
-40.1737
-40.1133
-40.0504
-39.9739
-39.8753
-39.7499
-39.5975
-39.4231
-39.2351
-39.0445
-38.8623
-38.6983
-38.5589
-38.4466
-38.3594
-38.2911
-38.2326
-38.1733
-38.1029
-38.0129
-37.8988
-37.7607
-37.6029
-37.4336
-37.263
-37.1017
-36.9589
-36.8405
-36.7489
-36.6822
-36.6343
-36.5966
-36.5589
-36.5111
-36.4456
-36.3583
-36.2497
-36.1251
-35.9939
-35.8683
-35.7614
-35.6862
-35.6537
-35.6717
-35.744
-35.8695
-36.0421
-36.2504
-36.4789
-36.7091
-38.805
-39.3172
-39.7663
-40.1533
-40.4867
-40.7801
-41.0492
-41.3077
-41.5643
-41.8204
-42.0702
-42.3017
-42.4992
-42.647
-42.7323
-42.7492
-42.6999
-42.5952
-42.4527
-42.2936
-42.1392
-42.0077
-41.9117
-41.8561
-41.8381
-41.8471
-41.8673
-41.8796
-41.8656
-41.8102
-41.7051
-41.5505
-41.3548
-41.1332
-40.9045
-40.6879
-40.4996
-40.3509
-40.2458
-40.1809
-40.1459
-40.1254
-40.1011
-40.0551
-39.9733
-39.8475
-39.6778
-39.472
-39.2445
-39.0129
-38.7952
-38.6068
-38.4579
-38.3524
-38.2868
-38.2515
-38.2314
-38.2094
-38.1684
-38.0948
-37.9808
-37.8265
-37.6393
-37.4326
-37.2233
-37.0283
-36.8622
-36.7348
-36.6494
-36.6029
-36.5855
-36.5831
-36.5787
-36.5559
-36.5014
-36.4078
-36.2753
-36.1116
-35.9307
-35.7512
-35.5928
-35.4747
-35.4133
-35.4208
-35.5035
-35.6615
-35.8872
-36.1655
-36.474
-36.7858
-39.0942
-39.641
-40.0973
-40.4654
-40.7605
-41.0077
-41.2355
-41.4683
-41.7216
-41.9978
-42.2868
-42.5681
-42.8145
-42.9978
-43.0948
-43.0934
-42.9957
-42.8188
-42.5907
-42.3452
-42.1159
-41.9313
-41.8104
-41.7605
-41.7761
-41.8401
-41.9263
-42.0035
-42.0409
-42.0129
-41.9055
-41.7187
-41.4668
-41.1749
-40.8741
-40.5951
-40.364
-40.1983
-40.1042
-40.0761
-40.0973
-40.1428
-40.1829
-40.1881
-40.1345
-40.0083
-39.8098
-39.5524
-39.2599
-38.9614
-38.686
-38.4582
-38.2945
-38.2005
-38.1709
-38.1897
-38.2331
-38.2729
-38.281
-38.2347
-38.1209
-37.9396
-37.7037
-37.4356
-37.1629
-36.9133
-36.71
-36.5685
-36.4941
-36.4815
-36.5152
-36.5722
-36.625
-36.6463
-36.6135
-36.5135
-36.3458
-36.1225
-35.8658
-35.6036
-35.3661
-35.1815
-35.0739
-35.0614
-35.1547
-35.3559
-35.6567
-36.0369
-36.4644
-36.8982
-39.4981
-40.0947
-40.5554
-40.8823
-41.103
-41.2633
-41.4144
-41.5997
-41.8457
-42.1566
-42.5147
-42.8849
-43.2207
-43.4727
-43.5991
-43.5761
-43.4057
-43.1161
-42.7537
-42.3734
-42.0284
-41.7631
-41.6069
-41.5705
-41.6446
-41.8012
-41.9982
-42.185
-42.31
-42.3302
-42.2204
-41.9807
-41.6361
-41.2297
-40.8122
-40.4333
-40.1343
-39.9425
-39.8676
-39.9002
-40.0137
-40.168
-40.315
-40.4059
-40.3999
-40.2735
-40.0267
-39.6833
-39.2839
-38.8765
-38.5081
-38.2175
-38.0305
-37.956
-37.9852
-38.0926
-38.24
-38.382
-38.4721
-38.4717
-38.3581
-38.1315
-37.8144
-37.4451
-37.0694
-36.7316
-36.4688
-36.3054
-36.2498
-36.2933
-36.4115
-36.5674
-36.7169
-36.8146
-36.8222
-36.7167
-36.4965
-36.1817
-35.8085
-35.4206
-35.0632
-34.7774
-34.5976
-34.5498
-34.6506
-34.9069
-35.3119
-35.8403
-36.4458
-37.0641
-40.0675
-40.7438
-41.2058
-41.4517
-41.5324
-41.5323
-41.5438
-41.6436
-41.8764
-42.2472
-42.7253
-43.2513
-43.7475
-44.1286
-44.3185
-44.2709
-43.9875
-43.5181
-42.9427
-42.3507
-41.8263
-41.4378
-41.2308
-41.2216
-41.3942
-41.7042
-42.0848
-42.4553
-42.7303
-42.8346
-42.7223
-42.3936
-41.8947
-41.3004
-40.6946
-40.1564
-39.7501
-39.5183
-39.476
-39.6079
-39.8715
-40.2037
-40.5278
-40.7632
-40.8389
-40.7119
-40.3826
-39.8948
-39.3193
-38.7356
-38.2181
-37.8277
-37.6044
-37.5624
-37.6869
-37.9377
-38.2548
-38.5657
-38.7937
-38.8715
-38.7581
-38.4538
-38.0001
-37.464
-36.921
-36.442
-36.0846
-35.887
-35.8627
-35.9977
-36.2533
-36.5719
-36.8832
-37.1126
-37.1938
-37.0849
-36.7832
-36.3253
-35.7722
-35.1938
-34.6571
-34.2207
-33.9314
-33.8239
-33.9226
-34.2437
-34.7892
-35.5329
-36.4087
-37.3128
-40.8793
-41.7011
-42.1662
-42.2582
-42.0771
-41.7839
-41.546
-41.4962
-41.7082
-42.1836
-42.8667
-43.6607
-44.44
-45.0599
-45.38
-45.3053
-44.8371
-44.073
-43.1554
-42.2308
-41.4282
-40.8512
-40.5699
-40.6107
-40.9461
-41.5053
-42.186
-42.8631
-43.3963
-43.6508
-43.5357
-43.0517
-42.2908
-41.3874
-40.4798
-39.6897
-39.1147
-38.8212
-38.8337
-39.126
-39.6306
-40.2509
-40.8684
-41.3504
-41.5699
-41.4416
-40.9668
-40.2327
-39.3665
-38.4992
-37.7453
-37.1972
-36.9173
-36.9288
-37.2067
-37.6872
-38.2786
-38.8686
-39.3315
-39.5467
-39.433
-38.9913
-38.3044
-37.4928
-36.6807
-35.9772
-35.4701
-35.2191
-35.2464
-35.5284
-36.0045
-36.5868
-37.1674
-37.6242
-37.8392
-37.7307
-37.295
-36.6057
-35.7723
-34.9067
-34.1068
-33.4522
-33.0032
-32.8013
-32.8746
-33.2572
-33.9811
-35.0353
-36.3308
-37.6941
-42.0445
-43.1726
-43.6626
-43.4551
-42.7805
-41.9546
-41.2768
-40.9715
-41.1605
-41.8208
-42.8484
-44.0915
-45.3619
-46.4228
-47.0101
-46.9064
-46.1128
-44.8488
-43.378
-41.9354
-40.7055
-39.8386
-39.445
-39.5758
-40.1757
-41.1313
-42.2924
-43.4783
-44.4637
-44.9993
-44.8803
-44.1085
-42.892
-41.4805
-40.0959
-38.9132
-38.0741
-37.6833
-37.7887
-38.338
-39.2233
-40.3023
-41.4039
-42.3155
-42.8018
-42.6704
-41.9243
-40.7606
-39.4156
-38.0992
-36.9762
-36.1804
-35.8106
-35.9118
-36.4347
-37.2771
-38.3044
-39.3546
-40.226
-40.6956
-40.5801
-39.8821
-38.7881
-37.5224
-36.2839
-35.2295
-34.4869
-34.1503
-34.2634
-34.7797
-35.6027
-36.6044
-37.6296
-38.4841
-38.9504
-38.8478
-38.1719
-37.0938
-35.8188
-34.5252
-33.3471
-32.3875
-31.7192
-31.3823
-31.3811
-31.7791
-32.6976
-34.1901
-36.1552
-38.2955
-43.6943
-45.5671
-46.1644
-45.3199
-43.6953
-41.9079
-40.4695
-39.7345
-39.934
-40.9292
-42.5197
-44.4829
-46.5855
-48.4676
-49.6351
-49.5009
-48.0661
-45.9222
-43.5603
-41.3335
-39.4603
-38.1442
-37.5653
-37.8652
-38.8932
-40.4615
-42.3633
-44.3819
-46.179
-47.2905
-47.1647
-45.8058
-43.774
-41.5346
-39.4215
-37.6417
-36.3879
-35.8309
-36.1046
-37.0661
-38.537
-40.3211
-42.2131
-43.893
-44.9231
-44.7845
-43.483
-41.5494
-39.4237
-37.4208
-35.7358
-34.5503
-34.0253
-34.2878
-35.2025
-36.6007
-38.2972
-40.0978
-41.6994
-42.6867
-42.5663
-41.3429
-39.5192
-37.5126
-35.622
-34.033
-32.9189
-32.4339
-32.6997
-33.5892
-34.9436
-36.5879
-38.3378
-39.9028
-40.8808
-40.7905
-39.6278
-37.8655
-35.8922
-33.9773
-32.2728
-30.9034
-29.9581
-29.48
-29.3127
-29.5515
-30.5874
-32.6644
-35.7275
-39.2814
-45.8245
-49.8137
-50.7598
-48.3073
-44.8299
-41.3491
-38.6449
-37.1498
-37.5612
-39.1801
-41.6543
-44.6734
-48.1265
-51.5416
-54.1348
-53.9679
-51.0408
-47.3092
-43.5482
-40.2223
-37.4127
-35.3882
-34.4202
-35.1059
-36.8328
-39.3113
-42.2659
-45.6044
-48.8816
-51.3632
-51.2249
-48.4722
-44.9548
-41.4069
-38.2671
-35.6129
-33.6985
-32.7821
-33.4299
-35.0608
-37.3997
-40.1847
-43.3277
-46.4061
-48.7272
-48.5733
-45.9521
-42.6148
-39.2549
-36.2847
-33.7763
-31.9688
-31.1063
-31.7246
-33.274
-35.4949
-38.1402
-41.1276
-44.0575
-46.2727
-46.1408
-43.6681
-40.5138
-37.3359
-34.5257
-32.1526
-30.445
-29.6364
-30.2379
-31.7294
-33.867
-36.4195
-39.3123
-42.1668
-44.3497
-44.2772
-41.9473
-38.9409
-35.8813
-33.1266
-30.7161
-28.8083
-27.5244
-27.13
-26.6595
-26.1759
-26.9783
-29.7185
-34.5931
-40.9836
-47.3561
-58.4692
-60.3395
-52.8192
-45.9517
-39.6551
-35.0711
-31.8165
-33.4483
-36.1987
-40.0043
-44.2389
-49.7223
-55.7989
-62.6091
-62.4097
-55.174
-48.7387
-42.9096
-38.3676
-34.2348
-31.1107
-28.894
-30.8472
-33.6902
-37.4756
-41.6154
-46.9155
-52.7298
-59.2085
-59.0499
-52.2397
-46.1796
-40.6917
-36.4133
-32.5188
-29.5718
-27.4808
-29.3398
-32.0359
-35.6199
-39.5326
-44.5355
-50.0097
-56.0956
-55.9148
-49.4525
-43.7126
-38.5249
-34.4836
-30.8077
-28.0264
-26.0548
-27.8207
-30.3784
-33.7779
-37.4907
-42.2401
-47.4446
-53.2386
-53.0862
-46.9747
-41.5425
-36.6295
-32.8
-29.3139
-26.6766
-24.8084
-26.4945
-28.9392
-32.1931
-35.7609
-40.3418
-45.3979
-51.0664
-51.0145
-45.2411
-40.093
-35.4312
-31.78
-28.4356
-25.8148
-23.8099
-24.8896
-24.0253
-20.9486
-20.5787
-23.6991
-31.2757
-44.1168
-40.844
-80.3536
-83.7886
-56.7328
-46.3015
-35.4876
-29.5776
-19.444
-27.7234
-31.6976
-37.7361
-42.0063
-50.4638
-58.9997
-81.1774
-80.9839
-58.1546
-49.2952
-40.4176
-35.9235
-29.6046
-25.5265
-17.363
-25.3072
-29.1906
-35.1296
-39.2942
-47.486
-55.6214
-76.6115
-76.4532
-54.9269
-46.5806
-38.2345
-34.0068
-28.0605
-24.2123
-16.4915
-24.0443
-27.7323
-33.3667
-37.3109
-45.0645
-52.7324
-72.4878
-72.3018
-51.9124
-44.0153
-36.144
-32.1562
-26.5508
-22.9181
-15.6216
-22.7763
-26.2709
-31.6096
-35.3483
-42.6975
-49.9827
-68.7673
-68.6128
-49.3032
-41.8234
-34.3628
-30.5799
-25.253
-21.8008
-14.8622
-21.6586
-24.9836
-30.067
-33.6437
-40.6872
-47.7471
-66.0202
-65.991
-47.6345
-40.5446
-33.5261
-29.9916
-25.1132
-21.9345
-15.6533
-25.4485
-24.577
-11.8232
-9.15343
-11.2625
-20.3775
-50.2262
-36.7031
-36.8058
-36.8798
-36.9198
-36.924
-36.8942
-36.8352
-36.7537
-36.6581
-36.5568
-36.4581
-36.3694
-36.2972
-36.2463
-36.22
-36.723
-36.8344
-36.9139
-36.9556
-36.958
-36.9235
-36.8575
-36.768
-36.6638
-36.5542
-36.448
-36.353
-36.2759
-36.2217
-36.1937
-36.7652
-36.895
-36.9857
-37.0307
-37.029
-36.9841
-36.9035
-36.7969
-36.6749
-36.5481
-36.4266
-36.3188
-36.2318
-36.1708
-36.1394
-36.8348
-36.9946
-37.1031
-37.1526
-37.143
-37.0805
-36.9756
-36.8411
-36.6906
-36.537
-36.3915
-36.2638
-36.1616
-36.0903
-36.0538
-36.9406
-37.1456
-37.2796
-37.3336
-37.31
-37.2192
-37.0771
-36.9014
-36.7096
-36.5176
-36.3386
-36.1834
-36.0603
-35.9751
-35.9316
-37.0973
-37.3677
-37.5359
-37.5924
-37.544
-37.4093
-37.2122
-36.9778
-36.7289
-36.4851
-36.2618
-36.071
-35.9212
-35.8182
-35.7659
-37.328
-37.6918
-37.904
-37.9559
-37.8645
-37.6618
-37.3848
-37.0686
-36.7431
-36.432
-36.1527
-35.9175
-35.7351
-35.6108
-35.5479
-37.6707
-38.1677
-38.4323
-38.4627
-38.2963
-37.9886
-37.5964
-37.1686
-36.7431
-36.3472
-35.9993
-35.7114
-35.4909
-35.3419
-35.267
-38.1894
-38.8759
-39.1948
-39.1663
-38.8695
-38.4
-37.8436
-37.2663
-36.7135
-36.2143
-35.786
-35.438
-35.175
-34.9991
-34.9111
-38.9962
-39.9516
-40.3048
-40.1382
-39.6154
-38.8982
-38.1118
-37.3394
-36.6302
-36.0105
-35.4923
-35.0795
-34.772
-34.5685
-34.4671
-40.3
-41.6295
-41.9345
-41.4665
-40.5555
-39.4657
-38.3662
-37.3492
-36.4574
-35.7053
-35.0933
-34.6156
-34.2652
-34.0355
-33.9219
-42.5221
-44.3321
-44.3372
-43.2377
-41.6743
-40.0429
-38.5379
-37.2338
-36.145
-35.2601
-34.5598
-34.0245
-33.6376
-33.3866
-33.2631
-46.602
-48.8396
-47.8444
-45.4728
-42.8613
-40.4937
-38.5088
-36.9032
-35.6285
-34.6302
-33.8614
-33.285
-32.8742
-32.61
-32.4807
-54.9204
-56.5798
-52.7282
-47.9477
-43.8044
-40.5617
-38.1003
-36.2417
-34.8356
-33.771
-32.9704
-32.3801
-31.9641
-31.6985
-31.5691
-74.5086
-69.8311
-58.541
-49.7853
-43.8469
-39.8485
-37.0889
-35.1279
-33.7011
-32.648
-31.869
-31.301
-30.9035
-30.6509
-30.5281
-22.8457
-22.878
-22.9441
-23.047
-23.1919
-23.3875
-23.6484
-23.9998
-24.4871
-25.1975
-26.309
-28.2105
-31.7864
-38.9198
-51.5375
-21.8916
-21.9102
-21.9477
-22.0052
-22.0842
-22.1879
-22.3216
-22.4955
-22.7307
-23.0738
-23.6382
-24.7413
-27.4609
-36.4287
-77.4728
-20.9246
-20.9291
-20.9374
-20.9483
-20.9595
-20.9676
-20.9671
-20.9496
-20.9016
-20.7997
-20.5919
-20.1085
-18.5692
-11.6517
25.3259
-19.9546
-19.9454
-19.9254
-19.8912
-19.8371
-19.7534
-19.6248
-19.4257
-19.1122
-18.6038
-17.7417
-16.1874
-13.2137
-7.7276
-3.93635
-18.9909
-18.9691
-18.9232
-18.8481
-18.7352
-18.5705
-18.3315
-17.9818
-17.4597
-16.6579
-15.3818
-13.2626
-9.56614
-2.60783
13.4986
-18.0424
-18.0096
-17.9412
-17.8311
-17.6692
-17.4391
-17.1154
-16.6578
-16.0022
-15.044
-13.6132
-11.4424
-8.18324
-3.83183
-1.96477
-17.1167
-17.0748
-16.9881
-16.8502
-16.6506
-16.3728
-15.9922
-15.4715
-14.7551
-13.7594
-12.3611
-10.3823
-7.55955
-3.32654
4.94199
-16.2201
-16.1712
-16.0706
-15.9122
-15.6862
-15.3779
-14.9662
-14.4212
-13.7022
-12.7548
-11.5131
-9.91032
-7.91584
-5.62209
-3.47509
-15.3574
-15.3035
-15.1932
-15.0212
-14.779
-14.4549
-14.0327
-13.4918
-12.8077
-11.9549
-10.9162
-9.71105
-8.48025
-7.81512
-10.4002
-14.5321
-14.475
-14.3587
-14.1788
-13.9288
-13.6
-13.1816
-12.6619
-12.0306
-11.2839
-10.4351
-9.52987
-8.65197
-7.75085
-5.03745
-13.7465
-13.6876
-13.5683
-13.3851
-13.1334
-12.8073
-12.4008
-11.9094
-11.3335
-10.684
-9.99307
-9.32984
-8.8399
-8.94503
-11.8728
-13.0017
-12.9423
-12.8222
-12.639
-12.3896
-12.0704
-11.679
-11.2157
-10.6874
-10.113
-9.53184
-9.00951
-8.61462
-8.179
-5.54179
-12.2982
-12.2391
-12.1199
-11.9389
-11.6942
-11.3837
-11.0071
-10.5672
-10.0733
-9.54677
-9.02975
-8.60069
-8.41763
-8.94185
-12.5788
-11.6358
-11.5776
-11.4604
-11.2832
-11.0444
-10.743
-10.3793
-9.95608
-9.48177
-8.97395
-8.46657
-8.02105
-7.72948
-7.54311
-5.40852
-11.0139
-10.957
-10.8427
-10.6701
-10.4381
-10.1456
-9.79264
-9.38051
-8.91355
-8.40084
-7.86044
-7.3345
-6.96828
-7.4973
-13.4886
-10.4315
-10.3763
-10.2656
-10.0984
-9.87372
-9.59033
-9.24709
-8.84303
-8.37711
-7.84696
-7.24427
-6.53705
-5.58539
-3.65821
3.68748
-9.88735
-9.83423
-9.72758
-9.56661
-9.35014
-9.07658
-8.74378
-8.3485
-7.88528
-7.34345
-6.70069
-5.90935
-4.87995
-3.58196
-3.45197
-9.38012
-9.32932
-9.22732
-9.07337
-8.86621
-8.60399
-8.28385
-7.90118
-7.44804
-6.91005
-6.26031
-5.44697
-4.36107
-2.69458
1.05643
-8.90819
-8.85996
-8.76316
-8.61708
-8.42053
-8.17162
-7.86735
-7.5028
-7.06973
-6.55425
-5.93355
-5.17388
-4.24538
-3.25476
-3.3877
-8.46975
-8.42433
-8.33323
-8.19585
-8.01122
-7.77771
-7.49273
-7.15202
-6.74866
-6.27154
-5.70332
-5.01803
-4.17286
-3.03468
-0.729342
-8.06286
-8.02044
-7.93543
-7.80745
-7.63586
-7.41956
-7.1568
-6.84474
-6.47883
-6.05209
-5.55439
-4.97322
-4.30383
-3.62513
-3.66463
-7.68544
-7.64614
-7.56748
-7.44935
-7.29155
-7.09368
-6.85513
-6.57486
-6.25126
-5.88193
-5.46343
-4.98968
-4.44128
-3.7168
-2.19231
-7.33533
-7.29918
-7.22695
-7.11882
-6.97506
-6.79607
-6.58244
-6.33509
-6.05544
-5.74593
-5.41085
-5.05798
-4.70103
-4.36403
-4.09613
-7.01033
-6.97727
-6.91136
-6.81304
-6.68304
-6.52251
-6.33319
-6.11776
-5.88038
-5.62768
-5.37065
-5.12912
-4.94696
-4.96324
-5.81379
-6.70829
-6.67819
-6.6183
-6.52927
-6.41224
-6.26896
-6.10208
-5.91568
-5.71596
-5.51245
-5.3197
-5.15904
-5.05511
-4.98309
-4.433
-6.42717
-6.39981
-6.34546
-6.26496
-6.15969
-6.03179
-5.88454
-5.72285
-5.55418
-5.38977
-5.24646
-5.14957
-5.14113
-5.33489
-6.35907
-6.16506
-6.14017
-6.09081
-6.01787
-5.92286
-5.80808
-5.67703
-5.53489
-5.38947
-5.25244
-5.141
-5.07868
-5.08675
-5.11
-4.47977
-5.92025
-5.89754
-5.85253
-5.78612
-5.69976
-5.5957
-5.47722
-5.34922
-5.21893
-5.09734
-5.00144
-4.95891
-5.02186
-5.3389
-6.67915
-5.69123
-5.6704
-5.62913
-5.56822
-5.48897
-5.39332
-5.28405
-5.16514
-5.04238
-4.92442
-4.82483
-4.7659
-4.78054
-4.85723
-4.3151
-5.47668
-5.45747
-5.41938
-5.36307
-5.28959
-5.20042
-5.09757
-4.98374
-4.86249
-4.73874
-4.62
-4.5218
-4.49617
-4.80525
-7.06848
-5.27547
-5.25766
-5.22229
-5.16986
-5.10111
-5.01702
-4.91874
-4.8075
-4.68437
-4.54959
-4.40091
-4.22732
-3.97937
-3.39621
-0.879997
-5.08665
-5.07006
-5.03706
-4.98799
-4.9233
-4.84348
-4.74891
-4.63954
-4.51434
-4.37011
-4.19913
-3.9845
-3.69539
-3.32953
-3.45744
-4.90935
-4.89386
-4.86301
-4.81698
-4.75601
-4.68021
-4.58937
-4.48259
-4.35752
-4.20921
-4.02768
-3.7934
-3.46472
-2.91994
-1.54749
-4.74282
-4.72835
-4.6995
-4.65636
-4.59902
-4.52738
-4.44092
-4.33833
-4.21688
-4.07137
-3.89288
-3.66786
-3.38414
-3.08511
-3.26041
-4.58634
-4.57285
-4.54592
-4.50562
-4.45198
-4.38485
-4.30367
-4.20719
-4.09294
-3.95646
-3.7904
-3.5831
-3.31422
-2.92087
-2.01095
-4.43924
-4.42668
-4.40163
-4.36416
-4.31433
-4.25208
-4.17706
-4.08842
-3.98443
-3.8621
-3.71657
-3.5411
-3.33075
-3.11533
-3.21347
-4.30087
-4.28921
-4.26597
-4.23128
-4.18531
-4.12819
-4.05993
-3.9803
-3.88869
-3.78385
-3.66354
-3.52335
-3.35083
-3.09203
-2.44429
-4.1706
-4.15979
-4.13827
-4.10625
-4.06405
-4.01204
-3.95069
-3.88052
-3.80214
-3.71635
-3.62434
-3.52804
-3.43085
-3.3388
-3.26489
-4.04786
-4.03781
-4.01786
-3.98831
-3.94961
-3.9024
-3.8476
-3.78644
-3.72074
-3.65319
-3.58812
-3.53337
-3.50731
-3.57296
-4.03405
-3.9321
-3.92272
-3.90414
-3.87673
-3.84107
-3.79804
-3.74892
-3.69554
-3.64064
-3.58832
-3.54473
-3.51878
-3.52009
-3.5325
-3.29648
-3.82286
-3.81403
-3.79657
-3.77089
-3.73767
-3.69793
-3.6532
-3.6057
-3.55876
-3.5174
-3.48911
-3.48526
-3.5252
-3.66454
-4.2217
-3.71977
-3.71135
-3.69471
-3.67029
-3.6388
-3.60131
-3.55941
-3.51547
-3.47303
-3.43741
-3.41653
-3.42132
-3.46132
-3.5064
-3.20872
-3.62253
-3.61437
-3.59827
-3.57462
-3.54411
-3.50775
-3.46705
-3.42421
-3.38256
-3.34718
-3.32614
-3.33295
-3.39391
-3.58627
-4.3139
-3.53096
-3.52294
-3.50707
-3.48372
-3.45348
-3.41722
-3.37617
-3.33214
-3.28775
-3.24701
-3.21642
-3.20698
-3.23528
-3.29441
-3.02293
-3.44497
-3.43695
-3.42107
-3.39762
-3.36705
-3.33002
-3.28739
-3.24033
-3.1904
-3.1398
-3.09202
-3.0548
-3.05526
-3.23213
-4.44467
-3.36455
-3.35645
-3.34035
-3.31647
-3.28512
-3.2467
-3.20168
-3.15052
-3.09354
-3.03062
-2.9603
-2.87647
-2.75275
-2.45061
-1.12073
-3.28977
-3.2815
-3.26503
-3.24051
-3.2081
-3.16799
-3.12026
-3.06476
-3.00082
-2.92661
-2.83795
-2.72585
-2.57416
-2.38279
-2.46077
-3.22074
-3.21225
-3.19533
-3.17004
-3.13645
-3.09457
-3.04423
-2.98487
-2.91522
-2.83264
-2.73189
-2.60273
-2.42314
-2.12791
-1.38693
-3.15761
-3.14888
-3.13144
-3.10533
-3.07056
-3.02704
-2.97447
-2.91214
-2.83863
-2.75128
-2.64557
-2.51463
-2.35245
-2.18254
-2.26637
-3.10055
-3.09155
-3.07358
-3.04665
-3.01076
-2.96581
-2.9115
-2.84719
-2.77164
-2.68269
-2.57677
-2.44825
-2.28713
-2.06095
-1.56282
-3.04975
-3.04047
-3.02194
-2.9942
-2.95726
-2.91108
-2.85548
-2.79004
-2.71397
-2.62588
-2.52366
-2.40451
-2.267
-2.12821
-2.15437
-3.0054
-2.99582
-2.97671
-2.94814
-2.91018
-2.8629
-2.8063
-2.7403
-2.66465
-2.5789
-2.48233
-2.37352
-2.24778
-2.08089
-1.72587
-2.9677
-2.9578
-2.93807
-2.90861
-2.86958
-2.82119
-2.76366
-2.69726
-2.62234
-2.53944
-2.4495
-2.35429
-2.25714
-2.16421
-2.08888
-2.93688
-2.92662
-2.90618
-2.87573
-2.8355
-2.78584
-2.72718
-2.66014
-2.58559
-2.50488
-2.42033
-2.33641
-2.2636
-2.23528
-2.3995
-2.9132
-2.90252
-2.88126
-2.84964
-2.80798
-2.75673
-2.69653
-2.62825
-2.55313
-2.473
-2.39073
-2.31083
-2.23918
-2.17264
-2.0063
-2.89694
-2.88577
-2.86355
-2.83053
-2.78711
-2.73385
-2.67151
-2.60112
-2.52414
-2.4426
-2.3595
-2.27952
-2.21121
-2.1793
-2.31527
-2.88844
-2.87669
-2.85334
-2.81866
-2.7731
-2.71728
-2.65207
-2.57859
-2.49832
-2.41328
-2.3261
-2.24013
-2.15797
-2.06937
-1.85946
-2.88811
-2.87569
-2.851
-2.81434
-2.7662
-2.70725
-2.63839
-2.56076
-2.47584
-2.38545
-2.29188
-2.19809
-2.10921
-2.04367
-2.11693
-2.89641
-2.88321
-2.85697
-2.81801
-2.76682
-2.70411
-2.63079
-2.54801
-2.45715
-2.35984
-2.25782
-2.15264
-2.04426
-1.92156
-1.691
-2.91389
-2.8998
-2.87178
-2.83016
-2.77545
-2.70835
-2.62977
-2.54086
-2.44295
-2.33751
-2.22596
-2.10942
-1.98926
-1.87435
-1.83908
-2.94115
-2.92606
-2.89605
-2.85142
-2.79269
-2.72056
-2.63594
-2.53997
-2.43399
-2.31944
-2.19756
-2.06871
-1.93062
-1.77183
-1.53866
-2.9789
-2.9627
-2.93046
-2.88248
-2.81925
-2.74145
-2.64999
-2.54603
-2.43099
-2.30646
-2.17399
-2.03444
-1.88637
-1.72093
-1.5002
-3.02789
-3.01049
-2.97581
-2.92414
-2.85593
-2.77183
-2.67272
-2.55979
-2.43458
-2.299
-2.15535
-2.0061
-1.85418
-1.70844
-1.63109
-3.08899
-3.07027
-3.03296
-2.97729
-2.90366
-2.81264
-2.70506
-2.58209
-2.44536
-2.29716
-2.14059
-1.97961
-1.81772
-1.64843
-1.3855
-3.16308
-3.14298
-3.10286
-3.04292
-2.96346
-2.86495
-2.7481
-2.61395
-2.46412
-2.30113
-2.12892
-1.95374
-1.78642
-1.65344
-1.67858
-3.25114
-3.22959
-3.18654
-3.12211
-3.0365
-2.93002
-2.80315
-2.6567
-2.49203
-2.31151
-2.11929
-1.92243
-1.73127
-1.54863
-1.26776
-3.35417
-3.33113
-3.28506
-3.21601
-3.12403
-3.00924
-2.87181
-2.71211
-2.53094
-2.33001
-2.1129
-1.88716
-1.67021
-1.51204
-1.61032
-3.47321
-3.44867
-3.39955
-3.32583
-3.22742
-3.10419
-2.95593
-2.78243
-2.58359
-2.35976
-2.1125
-1.8458
-1.56834
-1.29734
-1.07259
-3.60931
-3.58327
-3.53113
-3.4528
-3.34805
-3.21652
-3.05758
-2.87035
-2.65358
-2.4058
-2.12559
-1.8119
-1.462
-1.05052
-0.378743
-3.76349
-3.73599
-3.68092
-3.59812
-3.48729
-3.34787
-3.1789
-2.97879
-2.74511
-2.47436
-2.16195
-1.80317
-1.39841
-0.984454
-0.854417
-3.93678
-3.90786
-3.84995
-3.76291
-3.64639
-3.49976
-3.32183
-3.11053
-2.86239
-2.57185
-2.2305
-1.82636
-1.34122
-0.721214
0.396342
-4.13016
-4.09986
-4.03923
-3.94817
-3.82641
-3.67339
-3.48795
-3.26787
-3.00912
-2.70463
-2.34267
-1.90582
-1.37769
-0.803489
-0.717878
-4.34458
-4.31293
-4.24965
-4.15475
-4.02814
-3.86954
-3.67812
-3.45207
-3.18762
-2.87732
-2.50685
-2.04865
-1.44616
-0.546459
1.3685
-4.58098
-4.54797
-4.48203
-4.38334
-4.2521
-4.08848
-3.89235
-3.66295
-3.39796
-3.09179
-2.73194
-2.29171
-1.72104
-0.994459
-0.804316
-4.84031
-4.80587
-4.73716
-4.63454
-4.49856
-4.32998
-4.12969
-3.89854
-3.63689
-3.34354
-3.01287
-2.62533
-2.1042
-1.06993
2.74402
-5.12356
-5.08757
-5.01584
-4.90891
-4.76767
-4.59351
-4.38846
-4.15531
-3.89785
-3.62121
-3.3333
-3.05173
-2.84372
-3.07571
-6.0771
-5.43181
-5.3941
-5.31898
-5.2071
-5.05963
-4.87851
-4.66675
-4.42897
-4.17212
-3.90671
-3.64933
-3.42704
-3.2777
-3.15829
-1.96443
-5.76624
-5.72662
-5.64765
-5.53001
-5.37497
-5.18477
-4.9631
-4.71588
-4.45232
-4.18665
-3.94098
-3.7517
-3.6909
-3.987
-5.90759
-6.1282
-6.08646
-6.00317
-5.87889
-5.71474
-5.5129
-5.27721
-5.01414
-4.73401
-4.45269
-4.19348
-3.98713
-3.85626
-3.68759
-2.29953
-6.51915
-6.47514
-6.38717
-6.25545
-6.08068
-5.86453
-5.61034
-5.32424
-5.01651
-4.70339
-4.40926
-4.17014
-4.04789
-4.23497
-5.88672
-6.94067
-6.89437
-6.80155
-6.66191
-6.47537
-6.24257
-5.96564
-5.64937
-5.30276
-4.9409
-4.58685
-4.272
-4.02469
-3.76522
-2.46173
-7.39434
-7.3459
-7.24844
-7.10094
-6.90219
-6.65125
-6.34825
-5.99557
-5.59961
-5.17299
-4.73721
-4.32696
-4.00994
-4.02048
-5.61915
-7.88165
-7.83146
-7.73008
-7.57557
-7.36526
-7.0961
-6.76536
-6.37184
-5.91775
-5.41143
-4.86985
-4.31719
-3.7677
-3.17287
-2.3991
-8.40383
-8.35259
-8.24862
-8.08895
-7.86919
-7.5837
-7.22607
-6.79016
-6.27217
-5.67436
-5.0102
-4.30521
-3.55696
-2.44953
1.35832
-8.96158
-8.91033
-8.80584
-8.64406
-8.41877
-8.1214
-7.74116
-7.26549
-6.68202
-5.98336
-5.1789
-4.32327
-3.59565
-3.60148
-6.95602
-9.55493
-9.50505
-9.40285
-9.24329
-9.0184
-8.71667
-8.3225
-7.81569
-7.17187
-6.36583
-5.38313
-4.25243
-3.12501
-2.42795
-2.88375
-10.1829
-10.1361
-10.0397
-9.8879
-9.67138
-9.37612
-8.98206
-8.46104
-7.77436
-6.87099
-5.69013
-4.17933
-2.35551
-0.453813
0.872031
-10.8435
-10.8016
-10.715
-10.5775
-10.379
-10.1042
-9.7298
-9.22144
-8.52734
-7.56885
-6.22627
-4.32359
-1.64012
1.92022
5.54857
-11.5331
-11.4981
-11.4255
-11.3094
-11.1398
-10.9014
-10.5706
-10.1108
-9.46393
-8.53345
-7.15137
-5.01008
-1.53367
4.24703
12.7448
-12.2469
-12.2209
-12.1664
-12.0784
-11.9483
-11.7627
-11.5009
-11.1301
-10.5975
-9.81166
-8.60368
-6.62373
-3.02743
4.68697
25.8423
-146.518
-88.0396
-61.5461
-48.8872
-42.1076
-38.0592
-35.4296
-33.6173
-32.3186
-31.3672
-30.6659
-30.1554
-29.7984
-29.5716
-29.4614
-182.26
-82.3812
-54.6707
-43.988
-38.6297
-35.4473
-33.3537
-31.8873
-30.8205
-30.0291
-29.4398
-29.0075
-28.7034
-28.5095
-28.415
46.9791
-26.6056
-35.9705
-35.3912
-33.6407
-32.0794
-30.8423
-29.8797
-29.1313
-28.5506
-28.1047
-27.7705
-27.5319
-27.3783
-27.303
-7.02339
-15.4272
-24.176
-27.6078
-28.5203
-28.4862
-28.1403
-27.7234
-27.3255
-26.9786
-26.6921
-26.467
-26.3014
-26.1927
-26.1388
25.9541
-4.00909
-16.0738
-21.5739
-24.0573
-25.1096
-25.4875
-25.5539
-25.4843
-25.3645
-25.2368
-25.1223
-25.0314
-24.9689
-24.9372
-1.40471
-5.02049
-12.5304
-17.6349
-20.5882
-22.2014
-23.0509
-23.4789
-23.6781
-23.7559
-23.7724
-23.7613
-23.7415
-23.7238
-23.7137
11.4957
-3.32766
-10.6573
-15.19
-18.0496
-19.8234
-20.9072
-21.5628
-21.9561
-22.1899
-22.3272
-22.4062
-22.4503
-22.4733
-22.4831
-3.05801
-6.83886
-10.7264
-13.9069
-16.2651
-17.9247
-19.0609
-19.8287
-20.3448
-20.691
-20.9224
-21.0754
-21.1737
-21.2321
-21.2593
-14.9862
-10.2759
-11.2867
-13.1947
-14.9658