/*--------------------------------*- C++ -*----------------------------------*\
| =========                 |                                                 |
| \\      /  F ield         | OpenFOAM: The Open Source CFD Toolbox           |
|  \\    /   O peration     | Version:  5.x                                   |
|   \\  /    A nd           | Web:      www.OpenFOAM.org                      |
|    \\/     M anipulation  |                                                 |
\*---------------------------------------------------------------------------*/
FoamFile
{
    version     2.0;
    format      ascii;
    class       volScalarField;
    location    "0.5";
    object      gradTy;
}
// * * * * * * * * * * * * * * * * * * * * * * * * * * * * * * * * * * * * * //

dimensions      [0 -1 0 1 0 0 0];

internalField   nonuniform List<scalar> 
3200
(
15.9885
8.05088
10.5457
7.94428
9.01373
7.84062
8.36271
7.6818
7.99647
7.52759
7.73231
7.45246
7.6116
7.30393
7.45331
7.1928
7.3137
7.11666
7.20519
7.06854
7.12838
7.04033
7.07812
7.02478
7.04731
7.01668
7.02947
7.01265
7.01993
7.01139
7.00874
7.01082
7.00931
7.00995
7.00936
7.00959
7.00937
7.00945
7.00938
7.0094
7.0094
7.00938
7.00943
7.00939
7.0095
7.00942
7.00961
7.00948
7.00979
7.0096
7.00996
7.00963
7.01047
7.00981
7.01138
7.01017
7.01302
7.01083
7.01599
7.01199
7.02139
7.01399
7.03138
7.01725
7.05045
7.02162
7.08899
7.02182
7.1724
6.96588
7.22961
8.02961
7.34695
8.88258
7.70354
10.8609
10.0803
9.96094
9.9363
9.93101
14.9656
8.97286
10.246
8.30138
8.87633
8.00122
8.28165
7.77287
7.9406
7.58971
7.6988
7.48979
7.57437
7.34387
7.42259
7.2275
7.2913
7.14382
7.1906
7.08837
7.12002
7.05418
7.07419
7.03433
7.04627
7.02339
7.03019
7.01763
7.02153
7.01486
7.0123
7.0135
7.01238
7.01273
7.0123
7.01242
7.01225
7.0123
7.01224
7.01226
7.01225
7.01225
7.01228
7.01226
7.01234
7.0123
7.01244
7.01237
7.0126
7.0125
7.01278
7.0126
7.01322
7.01287
7.01405
7.0134
7.01554
7.01436
7.01822
7.01609
7.02311
7.01916
7.03214
7.02457
7.04935
7.03378
7.08394
7.047
7.15829
7.03963
7.29215
7.9202
7.55277
8.70152
8.08845
10.4648
10.0562
9.95947
9.93784
9.93311
14.1826
9.60418
10.075
8.55762
8.79688
8.11549
8.23207
7.83679
7.90538
7.63333
7.67791
7.51526
7.54963
7.37129
7.40269
7.25166
7.27719
7.16299
7.18176
7.10259
7.11533
7.06433
7.0724
7.04152
7.04635
7.02862
7.03138
7.02165
7.02326
7.01785
7.0154
7.01595
7.01508
7.01523
7.0149
7.01495
7.01482
7.01484
7.01479
7.0148
7.0148
7.01479
7.01482
7.01481
7.01488
7.01486
7.01497
7.01494
7.01512
7.01508
7.01529
7.01522
7.0157
7.01556
7.01647
7.01621
7.01786
7.01738
7.02038
7.01951
7.02496
7.02334
7.03342
7.03029
7.04955
7.04301
7.08207
7.06594
7.15308
7.09823
7.33938
7.85034
7.69767
8.59066
8.35351
10.1798
10.0193
9.95475
9.93846
9.93477
13.5829
10.0335
9.98359
8.74353
8.75421
8.19775
8.20287
7.88204
7.88369
7.66418
7.6652
7.53274
7.53329
7.39018
7.38996
7.26858
7.2685
7.17663
7.17664
7.1129
7.11294
7.07185
7.0719
7.04699
7.04704
7.03273
7.03277
7.0249
7.02496
7.02041
7.01806
7.01815
7.01742
7.01744
7.01716
7.01716
7.01706
7.01706
7.01702
7.01702
7.01702
7.01702
7.01704
7.01704
7.01709
7.01709
7.01718
7.01718
7.01733
7.01733
7.0175
7.0175
7.01789
7.01789
7.01863
7.01862
7.01996
7.01995
7.02238
7.02235
7.02678
7.02673
7.03492
7.03479
7.05048
7.0501
7.0821
7.08045
7.15325
7.14469
7.37553
7.80675
7.80046
8.52475
8.53576
9.97407
9.97835
9.94783
9.93831
9.93602
13.1253
10.3229
9.93979
8.87935
8.73417
8.25745
8.18661
7.9143
7.87074
7.6861
7.65773
7.54479
7.52258
7.40321
7.38193
7.28047
7.26331
7.18638
7.17386
7.1204
7.11196
7.07744
7.07213
7.05118
7.04802
7.03597
7.03418
7.02753
7.02653
7.02258
7.02031
7.02006
7.01942
7.01934
7.0191
7.01907
7.01898
7.01896
7.01893
7.01893
7.01893
7.01893
7.01895
7.01895
7.019
7.01901
7.01909
7.0191
7.01922
7.01925
7.0194
7.01944
7.01978
7.01987
7.02049
7.02066
7.0218
7.0221
7.02416
7.02471
7.02846
7.02947
7.03643
7.03835
7.05173
7.05558
7.08316
7.09166
7.15636
7.18127
7.40337
7.78038
7.87374
8.48711
8.66065
9.82541
9.93853
9.93981
9.93762
9.93692
12.7799
10.5156
9.92308
8.97851
8.72733
8.30083
8.17833
7.9373
7.86333
7.70167
7.65353
7.55309
7.51565
7.41218
7.37697
7.28882
7.26033
7.19335
7.1725
7.12587
7.11178
7.08161
7.07271
7.05437
7.04907
7.03849
7.03548
7.02963
7.02791
7.02436
7.02217
7.02167
7.02108
7.02093
7.02071
7.02066
7.02058
7.02056
7.02053
7.02052
7.02052
7.02052
7.02054
7.02055
7.02059
7.02061
7.02067
7.0207
7.02081
7.02085
7.02099
7.02106
7.02136
7.02151
7.02206
7.02235
7.02335
7.02386
7.02568
7.02662
7.02993
7.03167
7.03783
7.04114
7.05305
7.05981
7.08468
7.10033
7.16077
7.20966
7.42472
7.76508
7.92596
8.46678
8.74564
9.71857
9.90292
9.93167
9.93661
9.93754
12.5251
10.6414
9.92046
9.04989
8.72744
8.33196
8.17469
7.95353
7.85933
7.71259
7.65132
7.55876
7.51123
7.41829
7.37398
7.29461
7.25872
7.19827
7.17196
7.12979
7.11199
7.08465
7.0734
7.05675
7.05004
7.04042
7.0366
7.03125
7.02907
7.02577
7.02364
7.02298
7.0224
7.02221
7.022
7.02193
7.02186
7.02183
7.0218
7.0218
7.0218
7.0218
7.02181
7.02183
7.02186
7.02188
7.02195
7.02199
7.02208
7.02213
7.02226
7.02236
7.02263
7.02282
7.02333
7.02369
7.0246
7.02526
7.02692
7.02812
7.03116
7.03337
7.03903
7.04328
7.05427
7.06299
7.08627
7.10689
7.16534
7.2311
7.44077
7.75668
7.9627
8.45668
8.80259
9.64301
9.87328
9.92423
9.9355
9.93794
12.3458
10.7207
9.92383
9.0993
8.73042
8.35348
8.17352
7.96457
7.85733
7.71998
7.65025
7.56251
7.50851
7.42231
7.37225
7.2985
7.2579
7.20163
7.17184
7.13251
7.11234
7.08679
7.07404
7.05845
7.05083
7.04181
7.03748
7.03245
7.02995
7.02683
7.02474
7.02396
7.02339
7.02317
7.02297
7.02289
7.02282
7.02279
7.02276
7.02276
7.02275
7.02276
7.02277
7.02279
7.02282
7.02285
7.0229
7.02295
7.02303
7.0231
7.02322
7.02333
7.02358
7.02381
7.02428
7.02469
7.02555
7.0263
7.02787
7.02924
7.0321
7.03463
7.03997
7.04483
7.05527
7.06529
7.08765
7.11164
7.16931
7.24649
7.45229
7.7524
7.98764
8.45222
8.8395
9.5916
9.85056
9.91812
9.93449
9.93818
12.2315
10.7669
9.92831
9.13045
8.73366
8.36705
8.17342
7.97146
7.85643
7.72457
7.6498
7.56479
7.50695
7.42475
7.37132
7.30089
7.25753
7.20371
7.17188
7.13421
7.11265
7.08816
7.07451
7.05954
7.05139
7.04272
7.03808
7.03323
7.03055
7.02754
7.02547
7.02462
7.02406
7.02381
7.02362
7.02353
7.02346
7.02343
7.0234
7.0234
7.02339
7.0234
7.02341
7.02343
7.02346
7.02349
7.02354
7.02359
7.02367
7.02374
7.02386
7.02398
7.02422
7.02446
7.02492
7.02536
7.02619
7.027
7.0285
7.02997
7.03273
7.03545
7.04062
7.04584
7.05598
7.06678
7.08865
7.11472
7.17219
7.25643
7.45974
7.75043
8.00313
8.45059
8.86155
9.55965
9.83523
9.9138
9.93373
9.93831
12.1759
10.7881
9.93117
9.14552
8.73564
8.37361
8.17356
7.97476
7.85611
7.72676
7.64964
7.56588
7.50625
7.4259
7.37091
7.30203
7.25739
7.20471
7.17194
7.13504
7.11283
7.08882
7.07476
7.06008
7.05168
7.04317
7.03838
7.03362
7.03086
7.02789
7.02583
7.02495
7.02439
7.02413
7.02394
7.02385
7.02378
7.02375
7.02372
7.02372
7.02371
7.02372
7.02373
7.02375
7.02378
7.02381
7.02386
7.02391
7.02399
7.02406
7.02418
7.0243
7.02454
7.02479
7.02524
7.02569
7.02651
7.02734
7.02882
7.03034
7.03305
7.03586
7.04095
7.04634
7.05634
7.06751
7.08918
7.11625
7.17371
7.26131
7.4634
7.7497
8.01056
8.45014
8.87185
9.54434
9.82752
9.91156
9.93332
9.93837
-10.8612
-9.4634
-8.53838
-7.57553
-7.01731
-6.43816
-6.09077
-5.7116
-5.48177
-5.23036
-5.0848
-4.9344
-4.83308
-4.70371
-4.61854
-4.51615
-4.45148
-4.37728
-4.33177
-4.28131
-4.25108
-4.21853
-4.19944
-4.17941
-4.16789
-4.15611
-4.14942
-4.14269
-4.13874
-4.13445
-4.13144
-4.13014
-4.12929
-4.1289
-4.12861
-4.12847
-4.12836
-4.1283
-4.12826
-4.12825
-4.12824
-4.12823
-4.12823
-4.12823
-4.12824
-4.12824
-4.12825
-4.12825
-4.12826
-4.12826
-4.12826
-4.12827
-4.12827
-4.12828
-4.12829
-4.12829
-4.12831
-4.12833
-4.12837
-4.12842
-4.12855
-4.12874
-4.12918
-4.12987
-4.1315
-4.13413
-4.14043
-4.15126
-4.17828
-4.22934
-4.35743
-4.5577
-4.76339
-5.13828
-5.52804
-6.17819
-6.45304
-6.53469
-6.55583
-6.56073
-10.917
-9.4443
-8.53966
-7.55906
-7.01782
-6.4285
-6.09161
-5.70515
-5.48211
-5.22556
-5.08439
-4.9318
-4.83353
-4.70124
-4.61848
-4.51386
-4.45105
-4.37529
-4.3311
-4.2796
-4.25026
-4.21705
-4.19852
-4.1781
-4.16692
-4.15491
-4.14842
-4.14157
-4.13775
-4.13338
-4.13035
-4.1291
-4.12825
-4.12787
-4.12758
-4.12744
-4.12733
-4.12728
-4.12724
-4.12722
-4.12721
-4.12721
-4.12721
-4.12721
-4.12721
-4.12722
-4.12722
-4.12723
-4.12723
-4.12723
-4.12724
-4.12724
-4.12725
-4.12725
-4.12726
-4.12727
-4.12728
-4.1273
-4.12734
-4.12739
-4.12752
-4.1277
-4.12814
-4.12881
-4.13043
-4.13296
-4.13923
-4.14958
-4.1763
-4.22524
-4.35352
-4.55647
-4.75561
-5.13667
-5.5166
-6.19218
-6.45974
-6.53608
-6.55546
-6.5599
-11.0315
-9.40229
-8.54376
-7.52474
-7.01993
-6.40837
-6.09401
-5.69167
-5.48327
-5.21557
-5.08383
-4.92638
-4.83468
-4.69607
-4.61857
-4.50912
-4.45034
-4.37119
-4.32985
-4.27611
-4.24867
-4.21405
-4.19672
-4.17545
-4.165
-4.1525
-4.14644
-4.13933
-4.13576
-4.13124
-4.12817
-4.12703
-4.12617
-4.12582
-4.12552
-4.12539
-4.12527
-4.12523
-4.12519
-4.12517
-4.12516
-4.12516
-4.12516
-4.12516
-4.12516
-4.12517
-4.12517
-4.12518
-4.12518
-4.12518
-4.12519
-4.12519
-4.1252
-4.1252
-4.12521
-4.12522
-4.12523
-4.12525
-4.12529
-4.12534
-4.12546
-4.12563
-4.12607
-4.12669
-4.12831
-4.13062
-4.13684
-4.14623
-4.1724
-4.21694
-4.34561
-4.55437
-4.73954
-5.13409
-5.49233
-6.22148
-6.47308
-6.53874
-6.55466
-6.55824
-11.2111
-9.32926
-8.55405
-7.46956
-7.02598
-6.37595
-6.0995
-5.66995
-5.48628
-5.19957
-5.0837
-4.9177
-4.83703
-4.68775
-4.61919
-4.50157
-4.44963
-4.36473
-4.32823
-4.27067
-4.24645
-4.20941
-4.19413
-4.1714
-4.16219
-4.14884
-4.14351
-4.13593
-4.13281
-4.12803
-4.1249
-4.12392
-4.12304
-4.12274
-4.12243
-4.12232
-4.1222
-4.12215
-4.12211
-4.1221
-4.12209
-4.12208
-4.12208
-4.12208
-4.12209
-4.12209
-4.1221
-4.1221
-4.12211
-4.12211
-4.12212
-4.12212
-4.12212
-4.12213
-4.12214
-4.12214
-4.12216
-4.12217
-4.12221
-4.12226
-4.12238
-4.12253
-4.12298
-4.1235
-4.12513
-4.12709
-4.13329
-4.14119
-4.16675
-4.20425
-4.33347
-4.5522
-4.71407
-5.13195
-5.4522
-6.26886
-6.49283
-6.54237
-6.55334
-6.55571
-11.4658
-9.21178
-8.5765
-7.38845
-7.03997
-6.32821
-6.11069
-5.6379
-5.49289
-5.17616
-5.08498
-4.90497
-4.84147
-4.67549
-4.62105
-4.49062
-4.44944
-4.3555
-4.3266
-4.263
-4.24384
-4.20297
-4.19089
-4.16584
-4.15856
-4.14388
-4.13967
-4.13136
-4.12891
-4.12375
-4.12052
-4.11979
-4.11888
-4.11865
-4.11831
-4.11822
-4.11809
-4.11806
-4.11802
-4.118
-4.11799
-4.11799
-4.11799
-4.11799
-4.118
-4.118
-4.11801
-4.11801
-4.11802
-4.11802
-4.11802
-4.11802
-4.11803
-4.11803
-4.11804
-4.11805
-4.11807
-4.11808
-4.11812
-4.11815
-4.11828
-4.11839
-4.11885
-4.11925
-4.12092
-4.12238
-4.12866
-4.13442
-4.15961
-4.18689
-4.31675
-4.55129
-4.67736
-5.1327
-5.39121
-6.33893
-6.51855
-6.54654
-6.55135
-6.55226
-11.8105
-9.02936
-8.62083
-7.27348
-7.06817
-6.26031
-6.13168
-5.59226
-5.50586
-5.14316
-5.08922
-4.88693
-4.84936
-4.65806
-4.62522
-4.47532
-4.45056
-4.34282
-4.32549
-4.25266
-4.24119
-4.19444
-4.18722
-4.1586
-4.15426
-4.13751
-4.13501
-4.12556
-4.12413
-4.11838
-4.11503
-4.11465
-4.11367
-4.11354
-4.11317
-4.11312
-4.11297
-4.11295
-4.1129
-4.1129
-4.11288
-4.11288
-4.11288
-4.11288
-4.11289
-4.11289
-4.1129
-4.1129
-4.11291
-4.11291
-4.11291
-4.11292
-4.11292
-4.11293
-4.11294
-4.11294
-4.11296
-4.11296
-4.11301
-4.11303
-4.11317
-4.11323
-4.11372
-4.11393
-4.1157
-4.11646
-4.12304
-4.12586
-4.15136
-4.1644
-4.29482
-4.55372
-4.62646
-5.14033
-5.30165
-6.43872
-6.54932
-6.55061
-6.5485
-6.54783
-12.2663
-8.75184
-8.70251
-7.11253
-7.12017
-6.16484
-6.16869
-5.52801
-5.52937
-5.09723
-5.0988
-4.86168
-4.86274
-4.63359
-4.63335
-4.45423
-4.45421
-4.32569
-4.32575
-4.23896
-4.23904
-4.18339
-4.18347
-4.14943
-4.14949
-4.12959
-4.12963
-4.11844
-4.11851
-4.11191
-4.10842
-4.10853
-4.10742
-4.10744
-4.107
-4.107
-4.10683
-4.10683
-4.10677
-4.10677
-4.10676
-4.10676
-4.10676
-4.10676
-4.10677
-4.10677
-4.10678
-4.10678
-4.10679
-4.10679
-4.10679
-4.10679
-4.1068
-4.1068
-4.10682
-4.10681
-4.10684
-4.10684
-4.10689
-4.10688
-4.10704
-4.10703
-4.10758
-4.10753
-4.10952
-4.10929
-4.11656
-4.11539
-4.14261
-4.13621
-4.26675
-4.56259
-4.55692
-5.16105
-5.17205
-6.57855
-6.58345
-6.55382
-6.54458
-6.54237
-12.8627
-8.33551
-8.84562
-6.88738
-7.21039
-6.03061
-6.23107
-5.43758
-5.56973
-5.03336
-5.11735
-4.82625
-4.88469
-4.59925
-4.64792
-4.42519
-4.46221
-4.30256
-4.32864
-4.2209
-4.23823
-4.16918
-4.18014
-4.13793
-4.14455
-4.11988
-4.12372
-4.10987
-4.11217
-4.1043
-4.10064
-4.10145
-4.1001
-4.10033
-4.0998
-4.09988
-4.09967
-4.0997
-4.09963
-4.09964
-4.09962
-4.09962
-4.09962
-4.09962
-4.09963
-4.09963
-4.09964
-4.09964
-4.09965
-4.09965
-4.09966
-4.09965
-4.09967
-4.09966
-4.09968
-4.09967
-4.0997
-4.09969
-4.09975
-4.09972
-4.09991
-4.0998
-4.10046
-4.10004
-4.1024
-4.10081
-4.1094
-4.10276
-4.13418
-4.10153
-4.23106
-4.58251
-4.46199
-5.20449
-4.98562
-6.77344
-6.61795
-6.5552
-6.53937
-6.53579
-13.64
-7.71749
-9.08727
-6.57066
-7.36042
-5.84074
-6.33282
-5.3096
-5.63633
-4.94408
-5.15031
-4.77618
-4.91975
-4.55081
-4.67262
-4.38496
-4.47729
-4.27113
-4.33602
-4.19691
-4.23996
-4.15081
-4.17798
-4.12349
-4.13988
-4.10803
-4.11752
-4.09965
-4.10522
-4.09551
-4.09166
-4.09343
-4.0917
-4.09223
-4.09154
-4.09174
-4.09147
-4.09155
-4.09145
-4.09147
-4.09145
-4.09145
-4.09146
-4.09145
-4.09147
-4.09146
-4.09148
-4.09147
-4.09149
-4.09148
-4.09149
-4.09149
-4.0915
-4.09149
-4.09151
-4.0915
-4.09154
-4.09151
-4.09159
-4.09152
-4.09176
-4.0915
-4.09234
-4.09141
-4.09442
-4.09089
-4.10182
-4.08758
-4.12729
-4.05933
-4.18547
-4.6203
-4.33151
-5.28537
-4.71791
-7.04503
-6.64771
-6.55368
-6.53264
-6.52805
-14.6542
-6.80755
-9.48421
-6.12136
-7.60257
-5.56998
-6.49482
-5.1271
-5.74322
-4.81826
-5.20593
-4.70475
-4.9747
-4.482
-4.71302
-4.32873
-4.50355
-4.228
-4.35073
-4.16472
-4.24609
-4.12683
-4.17817
-4.10524
-4.13618
-4.09354
-4.11143
-4.08748
-4.09789
-4.08547
-4.08145
-4.08454
-4.08219
-4.08317
-4.08224
-4.08261
-4.08225
-4.08238
-4.08225
-4.0823
-4.08226
-4.08227
-4.08228
-4.08227
-4.08229
-4.08228
-4.0823
-4.08229
-4.08231
-4.0823
-4.08231
-4.0823
-4.08232
-4.08231
-4.08234
-4.08232
-4.08236
-4.08232
-4.08242
-4.08229
-4.08262
-4.08215
-4.08329
-4.0816
-4.08568
-4.07938
-4.09423
-4.06923
-4.1237
-4.00836
-4.12652
-4.68602
-4.15032
-5.4261
-4.33342
-7.42459
-6.66433
-6.54823
-6.52424
-6.5191
14.6554
6.8096
9.48595
6.12356
7.6047
5.57196
6.497
5.12868
5.74517
4.81936
5.20742
4.70565
4.97592
4.48263
4.71394
4.32917
4.50421
4.22831
4.35121
4.16494
4.24643
4.12699
4.17841
4.10536
4.13636
4.09363
4.11156
4.08755
4.09799
4.08553
4.08148
4.08458
4.08222
4.08321
4.08226
4.08264
4.08226
4.0824
4.08226
4.08232
4.08227
4.08229
4.08228
4.08228
4.08228
4.08228
4.08229
4.08228
4.08229
4.08229
4.0823
4.08229
4.0823
4.0823
4.08231
4.0823
4.08233
4.08229
4.08239
4.08226
4.08258
4.08212
4.08324
4.08157
4.08562
4.07934
4.09414
4.0692
4.12353
4.00839
4.12627
4.68502
4.1499
5.42442
4.33255
7.42177
6.662
6.54597
6.52199
6.5169
13.6413
7.71945
9.08907
6.57281
7.36253
5.84275
6.33493
5.31126
5.63818
4.9453
5.15173
4.77716
4.9209
4.55151
4.67348
4.38546
4.47791
4.27149
4.33646
4.19716
4.24028
4.15099
4.17821
4.12363
4.14004
4.10813
4.11764
4.09972
4.10531
4.09557
4.0917
4.09347
4.09173
4.09227
4.09157
4.09177
4.09149
4.09157
4.09146
4.09149
4.09145
4.09146
4.09146
4.09146
4.09146
4.09146
4.09147
4.09146
4.09147
4.09147
4.09147
4.09147
4.09148
4.09148
4.09149
4.09148
4.09151
4.09148
4.09156
4.09148
4.09172
4.09146
4.0923
4.09137
4.09436
4.09084
4.10173
4.08753
4.12713
4.05929
4.18517
4.6194
4.33093
5.28384
4.7168
7.04246
6.64539
6.55143
6.53038
6.52582
12.8641
8.33742
8.84746
6.88949
7.21248
6.03262
6.23313
5.43928
5.57151
5.03465
5.11872
4.82728
4.88579
4.6
4.64873
4.42573
4.4628
4.30294
4.32906
4.22117
4.23853
4.16938
4.18035
4.13808
4.14471
4.11999
4.12384
4.10995
4.11226
4.10436
4.10068
4.10149
4.10013
4.10037
4.09982
4.0999
4.09969
4.09972
4.09964
4.09965
4.09962
4.09963
4.09962
4.09962
4.09963
4.09963
4.09963
4.09963
4.09964
4.09964
4.09964
4.09964
4.09965
4.09964
4.09965
4.09965
4.09967
4.09966
4.09972
4.09969
4.09987
4.09976
4.10041
4.1
4.10234
4.10076
4.10931
4.10269
4.13403
4.10143
4.23072
4.58169
4.46129
5.20306
4.98435
6.77104
6.61565
6.55296
6.5371
6.53355
12.2678
8.7537
8.70438
7.11461
7.12225
6.16686
6.1707
5.52975
5.53111
5.09857
5.10014
4.86274
4.86381
4.63438
4.63414
4.4548
4.45478
4.3261
4.32616
4.23926
4.23934
4.18361
4.18368
4.14959
4.14965
4.1297
4.12975
4.11853
4.1186
4.11197
4.10846
4.10858
4.10745
4.10747
4.10703
4.10703
4.10686
4.10686
4.10679
4.10679
4.10677
4.10677
4.10677
4.10677
4.10677
4.10677
4.10677
4.10677
4.10678
4.10678
4.10678
4.10678
4.10679
4.10679
4.1068
4.1068
4.10681
4.10681
4.10686
4.10685
4.10701
4.107
4.10754
4.10749
4.10946
4.10924
4.11648
4.11531
4.14246
4.13607
4.26638
4.56181
4.55615
5.15968
5.17067
6.57629
6.58118
6.55159
6.54233
6.54011
11.812
9.0312
8.62272
7.27554
7.07025
6.26232
6.13367
5.59402
5.50756
5.14453
5.09054
4.88802
4.8504
4.65888
4.62599
4.47591
4.45112
4.34325
4.32589
4.25296
4.24148
4.19466
4.18743
4.15877
4.15442
4.13763
4.13512
4.12565
4.12421
4.11844
4.11508
4.1147
4.11371
4.11358
4.1132
4.11315
4.113
4.11298
4.11292
4.11291
4.11289
4.11289
4.11289
4.11289
4.11289
4.11289
4.11289
4.11289
4.1129
4.1129
4.1129
4.1129
4.11291
4.11291
4.11292
4.11292
4.11293
4.11294
4.11298
4.113
4.11313
4.11319
4.11368
4.11388
4.11565
4.1164
4.12296
4.12578
4.15121
4.16423
4.29443
4.55297
4.62563
5.139
5.3002
6.43654
6.54707
6.54839
6.54625
6.54558
11.4673
9.2136
8.57839
7.3905
7.04203
6.33022
6.11266
5.63967
5.49457
5.17755
5.08628
4.90607
4.8425
4.67632
4.62181
4.49122
4.44999
4.35593
4.32699
4.26331
4.24412
4.20319
4.19109
4.166
4.15871
4.144
4.13978
4.13145
4.12899
4.12381
4.12057
4.11983
4.11891
4.11868
4.11834
4.11825
4.11812
4.11808
4.11803
4.11802
4.118
4.118
4.11799
4.11799
4.118
4.118
4.118
4.118
4.11801
4.11801
4.11801
4.11801
4.11801
4.11802
4.11802
4.11803
4.11804
4.11805
4.11809
4.11812
4.11825
4.11835
4.11881
4.1192
4.12087
4.12232
4.12858
4.13433
4.15945
4.18668
4.31634
4.55056
4.67649
5.13139
5.38971
6.33682
6.51632
6.5443
6.54911
6.55001
11.2127
9.33107
8.55595
7.47159
7.02804
6.37796
6.10145
5.67172
5.48794
5.20098
5.085
4.91881
4.83805
4.68859
4.61995
4.50218
4.45017
4.36517
4.32862
4.27098
4.24673
4.20964
4.19433
4.17157
4.16233
4.14896
4.14362
4.13602
4.13289
4.12809
4.12494
4.12396
4.12308
4.12277
4.12245
4.12234
4.12222
4.12217
4.12213
4.12211
4.12209
4.12209
4.12209
4.12209
4.12209
4.12209
4.12209
4.12209
4.1221
4.1221
4.1221
4.1221
4.12211
4.12211
4.12211
4.12212
4.12213
4.12214
4.12218
4.12222
4.12235
4.12249
4.12293
4.12345
4.12507
4.12703
4.13321
4.14109
4.16659
4.20403
4.33305
4.55148
4.71317
5.13065
5.45067
6.26679
6.49062
6.54014
6.55111
6.55345
11.0332
9.4041
8.54567
7.52676
7.02198
6.41038
6.09595
5.69344
5.48492
5.21699
5.08512
4.9275
4.83569
4.69691
4.61932
4.50973
4.45088
4.37163
4.33024
4.27643
4.24895
4.21428
4.19692
4.17562
4.16515
4.15262
4.14655
4.13941
4.13584
4.1313
4.12822
4.12707
4.1262
4.12585
4.12554
4.12541
4.12529
4.12524
4.1252
4.12518
4.12517
4.12516
4.12516
4.12516
4.12516
4.12516
4.12516
4.12516
4.12517
4.12517
4.12517
4.12517
4.12518
4.12518
4.12519
4.12519
4.1252
4.12522
4.12525
4.1253
4.12542
4.12559
4.12603
4.12664
4.12825
4.13055
4.13675
4.14613
4.17224
4.2167
4.34517
4.55365
4.73862
5.1328
5.49077
6.21944
6.47088
6.5365
6.55243
6.55598
10.9186
9.44611
8.54157
7.56108
7.01987
6.43051
6.09355
5.70692
5.48376
5.22699
5.08568
4.93292
4.83454
4.70209
4.61923
4.51448
4.4516
4.37573
4.33149
4.27992
4.25054
4.21728
4.19872
4.17827
4.16707
4.15503
4.14853
4.14166
4.13783
4.13344
4.1304
4.12914
4.12829
4.12791
4.1276
4.12746
4.12735
4.1273
4.12725
4.12723
4.12722
4.12721
4.12721
4.12721
4.12721
4.12721
4.12721
4.12722
4.12722
4.12722
4.12722
4.12722
4.12723
4.12723
4.12724
4.12724
4.12725
4.12727
4.12731
4.12736
4.12748
4.12766
4.1281
4.12876
4.13037
4.13289
4.13914
4.14947
4.17613
4.22499
4.35308
4.55575
4.75468
5.13538
5.51503
6.19017
6.45755
6.53383
6.55322
6.55764
10.8629
9.46521
8.54029
7.57755
7.01936
6.44017
6.09271
5.71338
5.48341
5.2318
5.08609
4.93553
4.83408
4.70457
4.61929
4.51677
4.45202
4.37773
4.33216
4.28163
4.25136
4.21876
4.19964
4.17958
4.16804
4.15623
4.14953
4.14278
4.13882
4.13451
4.13149
4.13019
4.12933
4.12893
4.12864
4.12849
4.12838
4.12832
4.12828
4.12826
4.12824
4.12824
4.12824
4.12823
4.12824
4.12824
4.12824
4.12824
4.12824
4.12825
4.12825
4.12825
4.12825
4.12826
4.12826
4.12827
4.12828
4.1283
4.12833
4.12839
4.12851
4.1287
4.12913
4.12982
4.13144
4.13407
4.14035
4.15114
4.17812
4.22909
4.35698
4.55699
4.76246
5.137
5.52646
6.17619
6.45085
6.53242
6.5536
6.55847
-12.1748
-10.7875
-9.93135
-9.14754
-8.74009
-8.38311
-8.18923
-8.00263
-7.89743
-7.79012
-7.71439
-7.61222
-7.54088
-7.44933
-7.38835
-7.314
-7.26639
-7.21089
-7.17656
-7.13814
-7.11508
-7.09024
-7.07571
-7.06058
-7.05193
-7.04318
-7.03826
-7.03337
-7.03054
-7.02752
-7.02543
-7.02454
-7.02398
-7.02373
-7.02355
-7.02347
-7.02341
-7.02339
-7.02338
-7.02338
-7.02339
-7.02341
-7.02344
-7.02347
-7.02351
-7.02356
-7.02362
-7.02368
-7.02378
-7.02386
-7.02399
-7.02412
-7.02437
-7.02463
-7.02509
-7.02556
-7.0264
-7.02724
-7.02874
-7.03027
-7.03301
-7.03583
-7.04095
-7.04636
-7.0564
-7.06761
-7.08935
-7.11649
-7.17407
-7.26184
-7.46426
-7.75098
-8.01215
-8.45218
-8.87424
-9.54723
-9.83063
-9.91473
-9.93649
-9.94155
-12.2304
-10.7662
-9.92846
-9.13245
-8.73802
-8.3765
-8.18885
-7.99928
-7.89742
-7.78876
-7.71534
-7.61088
-7.54157
-7.44797
-7.38874
-7.31276
-7.26653
-7.20984
-7.1765
-7.13729
-7.1149
-7.08956
-7.07546
-7.06003
-7.05164
-7.04272
-7.03795
-7.03298
-7.03024
-7.02716
-7.02506
-7.02421
-7.02365
-7.02341
-7.02323
-7.02315
-7.02309
-7.02307
-7.02306
-7.02306
-7.02307
-7.02309
-7.02312
-7.02315
-7.02319
-7.02323
-7.0233
-7.02336
-7.02346
-7.02354
-7.02367
-7.0238
-7.02405
-7.0243
-7.02478
-7.02523
-7.02608
-7.02689
-7.02842
-7.0299
-7.03269
-7.03542
-7.04062
-7.04586
-7.05604
-7.06688
-7.08882
-7.11496
-7.17256
-7.25695
-7.4606
-7.75171
-8.00472
-8.45263
-8.86394
-9.56255
-9.83834
-9.91696
-9.9369
-9.94149
-12.3446
-10.72
-9.9239
-9.10126
-8.73457
-8.36287
-8.18846
-7.99233
-7.89758
-7.78589
-7.71743
-7.60802
-7.54311
-7.44511
-7.38965
-7.31017
-7.2669
-7.20766
-7.17646
-7.13553
-7.11459
-7.08817
-7.07499
-7.05892
-7.05108
-7.04181
-7.03735
-7.03219
-7.02964
-7.02646
-7.02433
-7.02355
-7.02298
-7.02276
-7.02258
-7.02251
-7.02245
-7.02243
-7.02242
-7.02242
-7.02244
-7.02245
-7.02248
-7.02251
-7.02256
-7.02259
-7.02267
-7.02272
-7.02282
-7.0229
-7.02303
-7.02315
-7.02342
-7.02365
-7.02414
-7.02456
-7.02544
-7.0262
-7.02779
-7.02917
-7.03205
-7.0346
-7.03997
-7.04485
-7.05534
-7.06539
-7.08782
-7.11187
-7.16967
-7.247
-7.45314
-7.75369
-7.98921
-8.45427
-8.84187
-9.59452
-9.85367
-9.92129
-9.93767
-9.94136
-12.5239
-10.6407
-9.9204
-9.0518
-8.73126
-8.34126
-8.18885
-7.98123
-7.89832
-7.78119
-7.72106
-7.60327
-7.54586
-7.44041
-7.39138
-7.30597
-7.26773
-7.20415
-7.1766
-7.13273
-7.11426
-7.08598
-7.07436
-7.0572
-7.05029
-7.0404
-7.03648
-7.031
-7.02876
-7.0254
-7.02323
-7.02256
-7.02199
-7.0218
-7.02161
-7.02155
-7.02149
-7.02147
-7.02146
-7.02146
-7.02148
-7.02149
-7.02152
-7.02155
-7.0216
-7.02163
-7.02171
-7.02176
-7.02187
-7.02193
-7.02207
-7.02218
-7.02246
-7.02266
-7.02318
-7.02356
-7.02449
-7.02516
-7.02684
-7.02805
-7.03111
-7.03334
-7.03903
-7.0433
-7.05434
-7.06309
-7.08644
-7.10711
-7.1657
-7.23159
-7.44162
-7.75799
-7.96425
-8.45874
-8.80494
-9.64597
-9.87641
-9.9274
-9.93868
-9.94112
-12.7786
-10.5148
-9.92284
-8.98038
-8.73067
-8.31008
-8.19136
-7.96505
-7.90034
-7.77412
-7.7269
-7.59599
-7.55041
-7.43332
-7.39441
-7.29971
-7.26939
-7.19899
-7.17717
-7.12868
-7.11406
-7.08287
-7.07368
-7.05478
-7.04932
-7.03845
-7.03536
-7.02936
-7.02761
-7.02398
-7.02175
-7.02126
-7.02067
-7.02052
-7.02032
-7.02027
-7.02021
-7.02019
-7.02018
-7.02019
-7.0202
-7.02021
-7.02025
-7.02027
-7.02033
-7.02035
-7.02044
-7.02048
-7.0206
-7.02065
-7.0208
-7.02088
-7.02119
-7.02135
-7.02192
-7.02221
-7.02323
-7.02376
-7.0256
-7.02655
-7.02989
-7.03164
-7.03783
-7.04116
-7.05312
-7.05989
-7.08485
-7.10054
-7.16113
-7.21011
-7.42555
-7.76641
-7.92748
-8.46887
-8.74795
-9.72159
-9.90607
-9.93484
-9.93978
-9.94072
-13.1239
-10.3222
-9.9393
-8.8812
-8.73686
-8.26673
-8.19808
-7.94231
-7.90472
-7.76378
-7.73598
-7.5852
-7.55771
-7.42298
-7.39954
-7.2907
-7.27248
-7.1917
-7.1786
-7.12304
-7.11429
-7.07861
-7.07312
-7.05154
-7.04829
-7.0359
-7.03407
-7.02725
-7.02622
-7.02219
-7.01989
-7.01964
-7.01901
-7.01893
-7.01871
-7.01868
-7.01861
-7.0186
-7.01859
-7.01859
-7.01861
-7.01862
-7.01866
-7.01867
-7.01874
-7.01875
-7.01885
-7.01888
-7.01902
-7.01904
-7.01921
-7.01926
-7.01961
-7.01971
-7.02035
-7.02052
-7.02168
-7.02199
-7.02407
-7.02463
-7.02841
-7.02944
-7.03643
-7.03837
-7.0518
-7.05566
-7.08333
-7.09186
-7.15672
-7.18167
-7.40418
-7.78175
-7.87522
-8.48922
-8.66291
-9.82851
-9.9417
-9.94298
-9.94079
-9.9401
-13.5814
-10.0328
-9.98278
-8.74543
-8.75603
-8.20724
-8.21221
-7.91075
-7.91313
-7.74882
-7.74988
-7.56936
-7.56918
-7.40804
-7.40795
-7.27791
-7.2779
-7.18148
-7.18152
-7.11529
-7.11535
-7.07288
-7.07294
-7.04728
-7.04733
-7.03263
-7.03267
-7.0246
-7.02466
-7.02002
-7.01764
-7.01773
-7.01701
-7.01703
-7.01677
-7.01677
-7.01669
-7.01669
-7.01668
-7.01668
-7.01671
-7.01671
-7.01676
-7.01676
-7.01684
-7.01684
-7.01695
-7.01695
-7.01712
-7.01712
-7.01731
-7.01731
-7.01773
-7.01772
-7.01849
-7.01848
-7.01985
-7.01984
-7.0223
-7.02228
-7.02674
-7.02669
-7.03492
-7.0348
-7.05055
-7.05017
-7.08227
-7.08062
-7.15361
-7.14504
-7.37631
-7.80817
-7.80187
-8.52692
-8.53793
-9.97727
-9.98155
-9.951
-9.94149
-9.93919
-14.181
-9.60341
-10.0738
-8.55968
-8.79752
-8.12552
-8.2385
-7.86694
-7.92813
-7.72715
-7.77095
-7.5462
-7.58699
-7.38653
-7.42142
-7.25975
-7.287
-7.16721
-7.18688
-7.10464
-7.11787
-7.06518
-7.07352
-7.04171
-7.04668
-7.02847
-7.0313
-7.02132
-7.02297
-7.01745
-7.01497
-7.01553
-7.01467
-7.01482
-7.01451
-7.01456
-7.01446
-7.01447
-7.01446
-7.01446
-7.01449
-7.01448
-7.01454
-7.01452
-7.01462
-7.0146
-7.01475
-7.01471
-7.01492
-7.01487
-7.01511
-7.01503
-7.01554
-7.01539
-7.01634
-7.01607
-7.01776
-7.01727
-7.02031
-7.01942
-7.02493
-7.02329
-7.03343
-7.03029
-7.04963
-7.04307
-7.08225
-7.06609
-7.15345
-7.09851
-7.34013
-7.85184
-7.69898
-8.59292
-8.35556
-10.1832
-10.0225
-9.95793
-9.94163
-9.93794
-14.9638
-8.97216
-10.2442
-8.3038
-8.87535
-8.0123
-8.28408
-7.80572
-7.95351
-7.6956
-7.80267
-7.51231
-7.61434
-7.35547
-7.44262
-7.23385
-7.30182
-7.14714
-7.19611
-7.08993
-7.12278
-7.05476
-7.07543
-7.03438
-7.04667
-7.02316
-7.03014
-7.01727
-7.02126
-7.01444
-7.01187
-7.01307
-7.01197
-7.01232
-7.01192
-7.01203
-7.0119
-7.01193
-7.01191
-7.01191
-7.01195
-7.01193
-7.01201
-7.01197
-7.01209
-7.01203
-7.01222
-7.01214
-7.01241
-7.01229
-7.01259
-7.0124
-7.01307
-7.0127
-7.01392
-7.01325
-7.01543
-7.01424
-7.01816
-7.016
-7.02308
-7.0191
-7.03216
-7.02455
-7.04944
-7.03382
-7.08414
-7.0471
-7.15869
-7.03981
-7.29286
-7.92181
-7.55394
-8.7039
-8.09031
-10.4684
-10.0594
-9.96266
-9.94101
-9.93627
-15.9865
-8.05034
-10.5431
-7.94736
-9.01053
-7.85358
-8.35959
-7.71935
-7.99502
-7.64935
-7.85019
-7.46261
-7.65602
-7.31043
-7.47554
-7.19671
-7.32539
-7.11871
-7.21135
-7.06941
-7.1315
-7.04053
-7.07955
-7.02462
-7.04781
-7.01633
-7.02948
-7.01223
-7.01968
-7.01096
-7.0083
-7.01039
-7.0089
-7.00953
-7.00899
-7.00919
-7.00902
-7.00908
-7.00905
-7.00905
-7.0091
-7.00906
-7.00916
-7.00909
-7.00926
-7.00915
-7.0094
-7.00924
-7.0096
-7.00938
-7.00979
-7.00943
-7.01032
-7.00963
-7.01126
-7.01002
-7.01293
-7.0107
-7.01593
-7.01189
-7.02137
-7.01392
-7.03141
-7.01721
-7.05055
-7.02162
-7.08922
-7.02187
-7.17285
-6.96592
-7.23025
-8.03139
-7.34791
-8.88516
-7.70513
-10.8648
-10.0836
-9.96413
-9.93946
-9.93416
)
;

boundaryField
{
    F1_1
    {
        type            calculated;
        value           nonuniform List<scalar> 
80
(
16.568
7.50419
10.7352
7.73593
9.1001
7.74659
8.41278
7.6282
8.03063
7.49105
7.75289
7.43024
7.63396
7.28024
7.47193
7.17233
7.3274
7.10072
7.21424
7.05697
7.13368
7.03231
7.08074
7.01932
7.04818
7.01289
7.02928
7.00989
7.01918
7.00953
7.00684
7.00943
7.00768
7.00849
7.00781
7.00811
7.00784
7.00795
7.00787
7.00789
7.00789
7.00787
7.00793
7.00788
7.008
7.0079
7.00812
7.00795
7.0083
7.00806
7.00849
7.00806
7.00902
7.00818
7.00999
7.00844
7.01173
7.00892
7.01487
7.00975
7.02059
7.01113
7.03117
7.01313
7.05141
7.01468
7.0925
7.00739
7.18221
6.92479
7.19387
8.09618
7.22599
8.99447
7.47564
11.0915
10.0878
9.96074
9.93527
9.92984
)
;
    }
    F1_2
    {
        type            calculated;
        value           nonuniform List<scalar> 
80
(
-15.2286
-6.26632
-9.73006
-5.85741
-7.75151
-5.41058
-6.594
-5.01968
-5.80883
-4.74454
-5.24064
-4.66268
-5.00816
-4.44157
-4.73798
-4.29589
-4.52009
-4.203
-4.36035
-4.14623
-4.25054
-4.11323
-4.17902
-4.09504
-4.13468
-4.08556
-4.10848
-4.08087
-4.09416
-4.08014
-4.07603
-4.07989
-4.07716
-4.07841
-4.07733
-4.0778
-4.07738
-4.07756
-4.07741
-4.07746
-4.07742
-4.07744
-4.07744
-4.07743
-4.07745
-4.07744
-4.07746
-4.07745
-4.07747
-4.07746
-4.07748
-4.07746
-4.07749
-4.07747
-4.0775
-4.07748
-4.07753
-4.07747
-4.07759
-4.07742
-4.0778
-4.07721
-4.07854
-4.07641
-4.08115
-4.07321
-4.0905
-4.05917
-4.12299
-3.98051
-4.09319
-4.72737
-4.04477
-5.51481
-4.10672
-7.64598
-6.66805
-6.5444
-6.51961
-6.51433
)
;
    }
    F1_3
    {
        type            calculated;
        value           nonuniform List<scalar> 
80
(
15.2297
6.26842
9.73177
5.85964
7.75365
5.41255
6.59623
5.02121
5.81085
4.74558
5.24217
4.66354
5.00942
4.44216
4.73892
4.29629
4.52077
4.20328
4.36084
4.14643
4.25089
4.11338
4.17927
4.09515
4.13486
4.08564
4.10862
4.08093
4.09426
4.0802
4.07606
4.07993
4.07719
4.07844
4.07735
4.07783
4.07739
4.07758
4.07741
4.07748
4.07743
4.07745
4.07744
4.07744
4.07744
4.07744
4.07745
4.07744
4.07746
4.07745
4.07746
4.07745
4.07747
4.07745
4.07747
4.07746
4.0775
4.07744
4.07756
4.07739
4.07776
4.07718
4.07849
4.07637
4.08108
4.07317
4.0904
4.05915
4.1228
3.98057
4.09297
4.72631
4.04446
5.51303
4.106
7.64302
6.66572
6.54214