/*--------------------------------*- C++ -*----------------------------------*\
| =========                 |                                                 |
| \\      /  F ield         | OpenFOAM: The Open Source CFD Toolbox           |
|  \\    /   O peration     | Version:  5.x                                   |
|   \\  /    A nd           | Web:      www.OpenFOAM.org                      |
|    \\/     M anipulation  |                                                 |
\*---------------------------------------------------------------------------*/
FoamFile
{
    version     2.0;
    format      ascii;
    class       volScalarField;
    location    "0.7";
    object      gradTx;
}
// * * * * * * * * * * * * * * * * * * * * * * * * * * * * * * * * * * * * * //

dimensions      [0 -1 0 1 0 0 0];

internalField   nonuniform List<scalar> 
6300
(
-29.5445
-29.6114
-29.7445
-29.9424
-30.2031
-30.5236
-30.8998
-31.3268
-31.7981
-32.3061
-32.8423
-33.3967
-33.959
-34.5187
-35.066
-29.4776
-29.5451
-29.6795
-29.8795
-30.1432
-30.4677
-30.849
-31.2823
-31.7612
-32.278
-32.8239
-33.3887
-33.9615
-34.5311
-35.0871
-29.343
-29.4117
-29.5487
-29.7529
-30.0224
-30.3547
-30.7462
-31.1921
-31.6862
-32.2207
-32.7865
-33.3725
-33.9669
-34.5572
-35.1311
-29.1395
-29.21
-29.3507
-29.5608
-29.8387
-30.1825
-30.5889
-31.0536
-31.5706
-32.1322
-32.7286
-33.3479
-33.9764
-34.5995
-35.2021
-28.8653
-28.938
-29.0833
-29.3006
-29.5891
-29.9474
-30.3731
-30.8626
-31.4103
-32.0088
-32.6477
-33.3139
-33.9914
-34.6619
-35.3065
-28.5183
-28.5934
-28.7436
-28.969
-29.2696
-29.6449
-30.0935
-30.6131
-31.1992
-31.8448
-32.5394
-33.2685
-34.0131
-34.7503
-35.4544
-28.0961
-28.1734
-28.3286
-28.5622
-28.8753
-29.2687
-29.7429
-30.297
-30.9285
-31.6316
-32.3964
-33.2074
-34.0423
-34.8716
-35.66
-27.5964
-27.6756
-27.8349
-28.0757
-28.4005
-28.8118
-29.3121
-29.9035
-30.586
-31.3566
-32.2072
-33.1224
-34.0768
-35.0336
-35.9436
-27.0174
-27.0976
-27.2594
-27.5053
-27.8391
-28.2656
-28.7903
-29.4187
-30.1553
-31.0015
-31.9534
-32.9979
-34.1089
-35.2424
-36.3316
-26.358
-26.438
-26.5997
-26.8468
-27.1848
-27.621
-28.1645
-28.8256
-29.6148
-30.5406
-31.6067
-32.8068
-34.1185
-35.4952
-36.8539
-25.6185
-25.6964
-25.8545
-26.0973
-26.4321
-26.869
-27.4211
-28.1044
-28.9375
-29.9393
-31.1259
-32.504
-34.0631
-35.7657
-37.5306
-24.801
-24.8746
-25.0243
-25.2556
-25.5773
-26.0017
-26.5462
-27.2333
-28.0912
-29.1531
-30.4534
-32.02
-33.864
-35.9739
-38.3222
-23.9098
-23.9764
-24.1124
-24.3235
-24.6194
-25.0143
-25.5287
-26.1912
-27.0409
-28.1285
-29.5144
-31.2584
-33.3991
-35.9435
-38.978
-22.9518
-23.0087
-23.1251
-23.3066
-23.5625
-23.9073
-24.3628
-24.9617
-25.7525
-26.8054
-28.217
-30.1001
-32.5306
-35.4229
-38.6311
-21.9368
-21.9814
-22.0726
-22.2151
-22.4165
-22.6893
-23.0534
-23.5403
-24.2017
-25.1236
-26.4481
-28.3945
-31.2002
-34.5866
-35.1278
-35.55
-35.9691
-36.3661
-36.7393
-37.0879
-37.4121
-37.7121
-37.9887
-38.2421
-38.4725
-38.6794
-38.862
-39.0195
-39.1515
-39.258
-39.3398
-39.399
-39.4383
-39.4615
-39.4727
-39.4758
-39.4745
-39.4715
-39.4687
-39.4664
-39.4643
-39.4609
-39.4546
-39.4435
-39.4263
-39.4024
-39.3722
-39.3371
-39.2991
-39.2609
-39.2252
-39.1942
-39.1696
-39.1521
-39.1413
-39.1359
-39.1338
-39.1326
-39.1302
-39.1246
-39.1149
-39.101
-39.084
-39.0656
-39.048
-39.0337
-39.0246
-39.0221
-39.0265
-39.0373
-39.0527
-39.0706
-39.0884
-39.1035
-39.1139
-39.1185
-39.1171
-39.1106
-39.1004
-39.089
-39.0784
-39.0706
-39.067
-39.0678
-39.0726
-39.0797
-39.0873
-39.0931
-39.0951
-39.0922
-39.0842
-39.0724
-39.0591
-39.0481
-39.0437
-39.0507
-39.0733
-39.1152
-39.1785
-39.2638
-39.3697
-39.4927
-39.6278
-39.7684
-39.9074
-35.5776
-36.0007
-36.4003
-36.7746
-37.1232
-37.4466
-37.7459
-38.0219
-38.2754
-38.5063
-38.7143
-38.898
-39.0564
-39.1882
-39.2934
-39.3725
-39.4275
-39.4616
-39.479
-39.4843
-39.4822
-39.4769
-39.4715
-39.4678
-39.4663
-39.4661
-39.4653
-39.4615
-39.4523
-39.4359
-39.4115
-39.3795
-39.3413
-39.2996
-39.2575
-39.2184
-39.1851
-39.1596
-39.1426
-39.1337
-39.1312
-39.1325
-39.1347
-39.1348
-39.1307
-39.121
-39.1057
-39.0861
-39.0644
-39.0435
-39.0263
-39.0153
-39.0122
-39.0176
-39.0306
-39.0493
-39.0709
-39.0923
-39.1103
-39.1224
-39.1273
-39.1247
-39.1157
-39.1025
-39.0878
-39.0744
-39.0648
-39.0606
-39.0623
-39.0691
-39.0792
-39.0899
-39.0985
-39.1023
-39.0995
-39.0898
-39.0744
-39.0559
-39.0385
-39.0274
-39.028
-39.0455
-39.0842
-39.1468
-39.2342
-39.3449
-39.4753
-39.6196
-39.7708
-39.9204
-35.6348
-36.0664
-36.4708
-36.8467
-37.1946
-37.516
-37.813
-38.0875
-38.3409
-38.5733
-38.7839
-38.9707
-39.1312
-39.2635
-39.3663
-39.4398
-39.4861
-39.509
-39.5138
-39.5065
-39.4933
-39.4794
-39.4689
-39.4639
-39.4645
-39.4689
-39.4741
-39.4763
-39.4716
-39.4573
-39.4319
-39.3956
-39.3507
-39.3006
-39.25
-39.2035
-39.165
-39.1374
-39.1216
-39.1171
-39.1212
-39.1302
-39.1398
-39.1458
-39.1449
-39.1353
-39.1169
-39.0915
-39.0624
-39.0338
-39.01
-38.9947
-38.9903
-38.9977
-39.0158
-39.0418
-39.0718
-39.1012
-39.1256
-39.1415
-39.1469
-39.1415
-39.1271
-39.1068
-39.0847
-39.0649
-39.0512
-39.0457
-39.0494
-39.0609
-39.0777
-39.0958
-39.1108
-39.1188
-39.1168
-39.1037
-39.0807
-39.051
-39.02
-38.9942
-38.981
-38.9872
-39.0187
-39.0795
-39.1709
-39.2917
-39.4376
-39.6018
-39.7751
-39.9474
-35.7267
-36.171
-36.5821
-36.9592
-37.3042
-37.6205
-37.9122
-38.1834
-38.4365
-38.6718
-38.8878
-39.0809
-39.2468
-39.3812
-39.4813
-39.5463
-39.5783
-39.5825
-39.566
-39.5374
-39.5053
-39.4772
-39.4586
-39.452
-39.4571
-39.4706
-39.4873
-39.5009
-39.505
-39.4949
-39.4679
-39.4244
-39.3675
-39.3027
-39.2368
-39.177
-39.1294
-39.0982
-39.0848
-39.0881
-39.1042
-39.1272
-39.1503
-39.1669
-39.1719
-39.1624
-39.1382
-39.1023
-39.0599
-39.0174
-38.9817
-38.9585
-38.9518
-38.9627
-38.9898
-39.0288
-39.0737
-39.1175
-39.1534
-39.1759
-39.182
-39.1715
-39.1471
-39.1139
-39.0783
-39.047
-39.0256
-39.0179
-39.0251
-39.0453
-39.0743
-39.106
-39.1333
-39.1496
-39.15
-39.1319
-39.0965
-39.048
-38.9937
-38.9429
-38.9059
-38.8925
-38.9111
-38.9678
-39.0652
-39.2022
-39.3736
-39.5705
-39.781
-39.991
-35.8614
-36.3232
-36.7421
-37.118
-37.4551
-37.7601
-38.0411
-38.3054
-38.5574
-38.7981
-39.0245
-39.2304
-39.4077
-39.5485
-39.6467
-39.7001
-39.7108
-39.6858
-39.6357
-39.5733
-39.5115
-39.4615
-39.431
-39.4235
-39.4377
-39.4679
-39.5053
-39.5391
-39.5591
-39.5568
-39.528
-39.4727
-39.3959
-39.3064
-39.2151
-39.1332
-39.0704
-39.0333
-39.0242
-39.041
-39.0774
-39.1242
-39.1703
-39.2051
-39.2201
-39.2106
-39.1766
-39.1228
-39.0575
-38.9915
-38.9354
-38.8988
-38.8878
-38.9046
-38.9466
-39.0074
-39.0774
-39.1454
-39.2005
-39.234
-39.2411
-39.2215
-39.1799
-39.1245
-39.0659
-39.0148
-38.9804
-38.9689
-38.982
-39.017
-39.0672
-39.1226
-39.1717
-39.2036
-39.2095
-39.1852
-39.1311
-39.0534
-38.9624
-38.8718
-38.7967
-38.7515
-38.7487
-38.7975
-38.9025
-39.063
-39.2728
-39.5198
-39.7873
-40.0555
-36.0519
-36.5372
-36.9639
-37.3328
-37.6519
-37.9341
-38.1941
-38.4449
-38.6947
-38.9451
-39.1907
-39.4209
-39.6211
-39.777
-39.8769
-39.9154
-39.8947
-39.8252
-39.7231
-39.6084
-39.5008
-39.4176
-39.3703
-39.3638
-39.3952
-39.455
-39.5283
-39.5975
-39.6451
-39.6572
-39.6261
-39.552
-39.4428
-39.3128
-39.1799
-39.062
-38.9747
-38.9282
-38.9264
-38.9656
-39.036
-39.1223
-39.2067
-39.2718
-39.3036
-39.2943
-39.2438
-39.1599
-39.0566
-38.9512
-38.8614
-38.8024
-38.7842
-38.8101
-38.8765
-38.973
-39.0842
-39.192
-39.2788
-39.3304
-39.3386
-39.3035
-39.2326
-39.1399
-39.0426
-38.9585
-38.9025
-38.8844
-38.9073
-38.967
-39.0526
-39.1481
-39.2349
-39.2947
-39.3128
-39.2812
-39.1999
-39.0777
-38.9305
-38.7785
-38.6443
-38.5493
-38.512
-38.5462
-38.6597
-38.8529
-39.1182
-39.4394
-39.7924
-40.1482
-36.3184
-36.8358
-37.2687
-37.6192
-37.9018
-38.14
-38.3603
-38.5859
-38.8311
-39.0986
-39.3794
-39.6543
-39.8985
-40.086
-40.1954
-40.2157
-40.1491
-40.0114
-39.8289
-39.6331
-39.4553
-39.322
-39.2511
-39.2494
-39.312
-39.4228
-39.5575
-39.687
-39.7824
-39.82
-39.7865
-39.6819
-39.5197
-39.3237
-39.1231
-38.9471
-38.8203
-38.7591
-38.7695
-38.8458
-38.9718
-39.1232
-39.2711
-39.3867
-39.4467
-39.4375
-39.3593
-39.2252
-39.0587
-38.8885
-38.7433
-38.6475
-38.6171
-38.6577
-38.7633
-38.9175
-39.0958
-39.269
-39.408
-39.4891
-39.4989
-39.437
-39.3169
-39.1618
-39.0006
-38.8619
-38.7701
-38.7409
-38.7796
-38.8796
-39.0237
-39.1863
-39.3371
-39.4459
-39.4878
-39.4486
-39.3276
-39.1382
-38.9052
-38.6598
-38.4354
-38.2639
-38.1721
-38.1807
-38.302
-38.539
-38.8831
-39.3129
-39.7936
-40.2807
-36.6922
-37.2557
-37.6921
-38.0034
-38.2156
-38.3714
-38.5188
-38.6985
-38.9352
-39.2331
-39.5762
-39.932
-40.2575
-40.5072
-40.6424
-40.6412
-40.5058
-40.2622
-39.9539
-39.6318
-39.3456
-39.1366
-39.0323
-39.0427
-39.1593
-39.3562
-39.5941
-39.8258
-40.003
-40.0854
-40.0493
-39.8948
-39.6453
-39.3414
-39.0311
-38.7614
-38.5714
-38.4872
-38.5179
-38.6545
-38.8712
-39.1293
-39.3821
-39.5821
-39.6893
-39.6803
-39.5553
-39.3373
-39.0664
-38.7899
-38.5544
-38.3986
-38.348
-38.4116
-38.5802
-38.8276
-39.115
-39.3953
-39.6207
-39.7509
-39.7622
-39.6547
-39.4515
-39.1928
-38.926
-38.698
-38.5475
-38.4998
-38.5636
-38.7288
-38.9682
-39.2415
-39.4998
-39.6933
-39.7797
-39.7337
-39.5535
-39.2616
-38.8976
-38.5106
-38.1505
-37.8634
-37.6878
-37.6529
-37.7778
-38.0706
-38.5247
-39.113
-39.7853
-40.4717
-37.2207
-37.8585
-38.2955
-38.5302
-38.6103
-38.6151
-38.6307
-38.7288
-38.951
-39.3025
-39.7548
-40.2532
-40.7257
-41.0934
-41.2858
-41.2601
-41.0181
-40.6062
-40.0987
-39.5789
-39.1249
-38.8005
-38.6481
-38.6833
-38.8912
-39.2307
-39.6398
-40.043
-40.3605
-40.5215
-40.4828
-40.2444
-39.8496
-39.3686
-38.8808
-38.461
-38.1705
-38.0499
-38.1139
-38.3479
-38.7113
-39.1432
-39.5695
-39.9114
-40.0993
-40.0906
-39.8853
-39.526
-39.0822
-38.6325
-38.251
-37.9982
-37.9146
-38.0146
-38.2835
-38.6805
-39.1445
-39.6009
-39.9707
-40.1837
-40.197
-40.0102
-39.6664
-39.2352
-38.7959
-38.4227
-38.1767
-38.0984
-38.2017
-38.471
-38.8642
-39.3181
-39.7557
-40.0949
-40.2624
-40.2119
-39.9406
-39.4885
-38.9233
-38.3225
-37.7605
-37.3024
-37.0008
-36.8948
-37.0116
-37.3699
-37.9728
-38.7922
-39.7564
-40.7526
-37.9761
-38.7504
-39.19
-39.2796
-39.1134
-38.8429
-38.624
-38.5803
-38.7807
-39.2267
-39.867
-40.6118
-41.3447
-41.9319
-42.2431
-42.1904
-41.7751
-41.088
-40.2613
-39.4313
-38.7176
-38.2166
-37.9942
-38.0749
-38.4337
-39.0051
-39.6941
-40.384
-40.9432
-41.2452
-41.204
-40.8196
-40.1781
-39.4056
-38.6327
-37.9748
-37.525
-37.3471
-37.4653
-37.8552
-38.4529
-39.1655
-39.8785
-40.4625
-40.7927
-40.7842
-40.4372
-39.8364
-39.1067
-38.3772
-37.7622
-37.3544
-37.2171
-37.3746
-37.8025
-38.437
-39.185
-39.9315
-40.5466
-40.9045
-40.9197
-40.5922
-40.007
-39.2897
-38.5704
-37.9643
-37.5647
-37.4354
-37.6006
-38.0349
-38.6727
-39.4183
-40.1534
-40.7437
-41.0588
-41.0083
-40.5877
-39.8782
-39.0004
-38.0784
-37.2207
-36.5161
-36.0323
-35.8156
-35.8978
-36.317
-37.1092
-38.2628
-39.6815
-41.1762
-39.0612
-40.1241
-40.5886
-40.397
-39.7667
-38.9962
-38.3647
-38.0805
-38.2564
-38.8712
-39.8284
-40.9874
-42.1737
-43.1676
-43.7245
-43.6427
-42.9236
-41.7707
-40.4289
-39.116
-38.0038
-37.2319
-36.9035
-37.0664
-37.6702
-38.6102
-39.7473
-40.913
-41.8967
-42.4634
-42.4195
-41.7654
-40.6952
-39.4433
-38.2193
-37.189
-36.4882
-36.2179
-36.4257
-37.0633
-38.0291
-39.1875
-40.3733
-41.3793
-41.9739
-41.9656
-41.3547
-40.3327
-39.1311
-37.9572
-36.9754
-36.3211
-36.0952
-36.3455
-37.0242
-38.0302
-39.2278
-40.4515
-41.493
-42.1189
-42.1364
-41.5452
-40.5378
-39.3473
-38.1822
-37.2086
-36.5633
-36.3484
-36.6122
-37.3059
-38.326
-39.5338
-40.7594
-41.7888
-42.3816
-42.3376
-41.651
-40.51
-39.1411
-37.7415
-36.4602
-35.4121
-34.6789
-34.3059
-34.2986
-34.727
-35.7249
-37.3516
-39.497
-41.8369
-40.5953
-42.3592
-42.932
-42.1459
-40.622
-38.9493
-37.6054
-36.9178
-37.1
-38.0225
-39.4993
-41.3238
-43.2795
-45.0328
-46.1254
-46.0129
-44.6968
-42.7255
-40.5547
-38.5119
-36.8002
-35.6087
-35.1055
-35.4229
-36.4227
-37.9318
-39.7593
-41.7044
-43.4506
-44.561
-44.514
-43.3104
-41.4739
-39.4413
-37.5272
-35.9289
-34.8315
-34.4006
-34.7674
-35.799
-37.3284
-39.1701
-41.1274
-42.8889
-44.0233
-44.0151
-42.8645
-41.0877
-39.116
-37.2605
-35.7173
-34.6711
-34.2879
-34.6996
-35.7748
-37.3477
-39.2331
-41.2343
-43.0378
-44.2095
-44.2296
-43.0976
-41.3326
-39.3683
-37.5182
-35.9804
-34.9421
-34.5722
-35.0048
-36.1067
-37.7092
-39.6235
-41.6481
-43.4624
-44.6215
-44.5922
-43.3684
-41.4701
-39.326
-37.2343
-35.3639
-33.8546
-32.8067
-32.2695
-32.0717
-32.3171
-33.4351
-35.6932
-39.0324
-42.9121
-42.5698
-46.3094
-47.2318
-44.9571
-41.6911
-38.429
-35.9008
-34.5028
-34.8775
-36.3755
-38.6695
-41.471
-44.6769
-47.8494
-50.2616
-50.1162
-47.4135
-43.9673
-40.4964
-37.4312
-34.8473
-32.9944
-32.1258
-32.797
-34.442
-36.7947
-39.6022
-42.7822
-45.9201
-48.3255
-48.2742
-45.7671
-42.5353
-39.2686
-36.3804
-33.9476
-32.2152
-31.4349
-32.1519
-33.8181
-36.1782
-38.9863
-42.1638
-45.3016
-47.7185
-47.7099
-45.2761
-42.1237
-38.9337
-36.1145
-33.7438
-32.0665
-31.3361
-32.0985
-33.8089
-36.2151
-39.072
-42.3018
-45.4926
-47.9588
-47.9819
-45.5619
-42.4144
-39.225
-36.4047
-34.0331
-32.3585
-31.6403
-32.4339
-34.1867
-36.6434
-39.5542
-42.8398
-46.0793
-48.5728
-48.5667
-46.0571
-42.784
-39.4355
-36.4082
-33.7477
-31.6324
-30.1988
-29.7445
-29.2063
-28.6504
-29.5033
-32.4783
-37.7894
-44.761
-44.0039
-54.3161
-56.1353
-49.1954
-42.754
-36.8515
-32.5686
-29.535
-31.0374
-33.5823
-37.1088
-41.0357
-46.1224
-51.7606
-58.0806
-57.9021
-51.2009
-45.2446
-39.854
-35.6573
-31.8418
-28.9627
-26.9287
-28.769
-31.4423
-35.003
-38.9089
-43.9209
-49.4447
-55.6278
-55.5708
-49.2676
-43.6473
-38.5512
-34.578
-30.958
-28.228
-26.3133
-28.1697
-30.8381
-34.3829
-38.2709
-43.2575
-48.7526
-54.9067
-54.8971
-48.723
-43.2139
-38.2177
-34.3226
-30.7723
-28.0984
-26.2348
-28.1323
-30.8412
-34.4338
-38.3741
-43.4258
-48.9913
-55.2261
-55.2526
-49.0741
-43.5566
-38.5503
-34.6452
-31.0821
-28.3978
-26.5313
-28.4817
-31.2532
-34.9236
-38.9451
-44.0979
-49.7703
-56.1235
-56.1462
-49.845
-44.2066
-39.0822
-35.0541
-31.346
-28.4288
-26.1803
-27.3401
-26.3658
-22.9545
-22.5153
-25.8994
-34.155
-48.1606
-38.225
-74.5523
-77.6515
-52.7158
-43.0404
-32.9415
-27.4373
-18.0352
-25.696
-29.3754
-34.9713
-38.9304
-46.7736
-54.6901
-75.2573
-75.0806
-53.9157
-45.7075
-37.4922
-33.3346
-27.4878
-23.7144
-16.1526
-23.5417
-27.1649
-32.7141
-36.623
-44.3226
-52.0202
-71.9163
-71.8622
-51.7848
-44.0048
-36.2168
-32.2672
-26.6869
-23.0669
-15.7613
-23.0186
-26.5961
-32.0937
-35.9737
-43.6194
-51.2548
-70.971
-70.9614
-51.2128
-43.566
-35.9161
-32.0344
-26.5389
-22.9637
-15.7176
-22.998
-26.601
-32.1522
-36.0759
-43.8102
-51.5262
-71.4337
-71.4587
-51.6347
-43.9626
-36.2902
-32.3934
-26.8658
-23.2596
-15.926
-23.3471
-27.0253
-32.6985
-36.7067
-44.6077
-52.481
-72.7901
-72.8321
-52.6785
-44.8888
-37.1501
-33.2391
-27.8052
-24.262
-17.2533
-28.0082
-27.0342
-12.9787
-10.0212
-12.3056
-22.2409
-54.7928
-40.0489
-40.1811
-40.2803
-40.3408
-40.3607
-40.3422
-40.2904
-40.2128
-40.1183
-40.0163
-39.9157
-39.8248
-39.7503
-39.6976
-39.6704
-40.0725
-40.214
-40.3189
-40.3812
-40.3991
-40.3754
-40.3161
-40.2296
-40.1258
-40.0147
-39.906
-39.8082
-39.7284
-39.6721
-39.643
-40.1222
-40.2833
-40.4002
-40.4658
-40.4791
-40.4441
-40.3687
-40.2636
-40.1404
-40.0108
-39.8853
-39.7735
-39.6828
-39.6192
-39.5864
-40.2034
-40.3967
-40.5325
-40.6028
-40.6073
-40.5529
-40.4511
-40.3157
-40.1615
-40.0024
-39.8509
-39.7174
-39.6102
-39.5353
-39.497
-40.3257
-40.5673
-40.7304
-40.8053
-40.7944
-40.7092
-40.5668
-40.3864
-40.1872
-39.9864
-39.7984
-39.6349
-39.505
-39.415
-39.369
-40.5044
-40.8164
-41.0164
-41.0936
-41.0557
-40.9226
-40.7202
-40.4759
-40.2146
-39.9573
-39.7211
-39.5188
-39.3598
-39.2505
-39.1949
-40.7645
-41.1776
-41.4249
-41.497
-41.4121
-41.205
-40.9156
-40.5824
-40.2377
-39.9072
-39.6099
-39.3593
-39.1648
-39.0321
-38.965
-41.1471
-41.7043
-42.0085
-42.0572
-41.8908
-41.5694
-41.1548
-40.7001
-40.2465
-39.8237
-39.4518
-39.1438
-38.9077
-38.7482
-38.6679
-41.7209
-42.4841
-42.8475
-42.8324
-42.5243
-42.0271
-41.434
-40.8166
-40.2245
-39.6892
-39.2297
-38.8561
-38.5738
-38.3849
-38.2904
-42.6074
-43.6637
-44.065
-43.9003
-43.3468
-42.5805
-41.7373
-40.9077
-40.1454
-39.4789
-38.9214
-38.4772
-38.1463
-37.9272
-37.8182
-44.0333
-45.4982
-45.8485
-45.3569
-44.3819
-43.2107
-42.027
-40.9314
-39.9703
-39.1595
-38.4997
-37.9848
-37.607
-37.3594
-37.2369
-46.4564
-48.4471
-48.4736
-47.2967
-45.6131
-43.8532
-42.2285
-40.8204
-39.6447
-38.6891
-37.933
-37.355
-36.9373
-36.6662
-36.5329
-50.8994
-53.3604
-52.302
-49.7432
-46.9205
-44.3601
-42.2134
-40.477
-39.0986
-38.0193
-37.188
-36.5649
-36.1208
-35.8352
-35.6955
-59.9553
-61.7935
-57.6309
-52.4536
-47.9654
-44.4532
-41.7878
-39.7755
-38.2534
-37.1011
-36.2346
-35.5958
-35.1456
-34.8582
-34.7182
-81.2858
-76.2274
-63.9749
-54.4748
-48.0343
-43.6995
-40.7087
-38.5839
-37.0381
-35.8972
-35.0533
-34.438
-34.0074
-33.7338
-33.6008
-20.9654
-20.9968
-21.0608
-21.1603
-21.3004
-21.4892
-21.7403
-22.0772
-22.5413
-23.2127
-24.2566
-26.0432
-29.4486
-36.4282
-49.0874
-20.0604
-20.0788
-20.1161
-20.1732
-20.2517
-20.3547
-20.4871
-20.6585
-20.8878
-21.2168
-21.7484
-22.7817
-25.3742
-34.1582
-73.4606
-19.1425
-19.1477
-19.1576
-19.171
-19.1861
-19.1996
-19.2067
-19.1994
-19.165
-19.08
-18.8919
-18.4374
-17.0002
-10.6951
24.0215
-18.2209
-18.2132
-18.1965
-18.1676
-18.1213
-18.0489
-17.936
-17.7592
-17.4773
-17.0145
-16.2205
-14.7757
-12.0064
-6.96319
-3.53743
-17.3044
-17.2849
-17.2437
-17.1762
-17.0746
-16.926
-16.7097
-16.3918
-15.915
-15.179
-14.0009
-12.034
-8.59184
-2.10907
13.0161
-16.4015
-16.3715
-16.309
-16.2084
-16.0604
-15.8501
-15.5539
-15.1346
-14.5326
-13.6504
-12.3288
-10.3167
-7.28874
-3.25786
-1.66063
-15.5192
-15.4805
-15.4005
-15.2734
-15.0895
-14.8337
-14.4833
-14.0042
-13.3446
-12.4269
-11.1361
-9.30484
-6.68201
-2.71794
5.162
-14.6636
-14.6182
-14.5247
-14.3777
-14.1683
-13.8828
-13.5021
-12.9989
-12.3356
-11.4625
-10.3186
-8.8425
-7.00658
-4.89871
-2.93394
-13.8394
-13.789
-13.6859
-13.5254
-13.2996
-12.998
-12.6059
-12.1047
-11.4723
-10.6859
-9.73152
-8.62992
-7.51988
-6.98145
-9.66578
-13.0501
-12.9963
-12.887
-12.718
-12.4836
-12.1759
-11.7852
-11.3014
-10.7157
-10.026
-9.24655
-8.42305
-7.6361
-6.82753
-4.19446
-12.2979
-12.2422
-12.1292
-11.9561
-11.7184
-11.4112
-11.0292
-10.5688
-10.0312
-9.42831
-8.79203
-8.19064
-7.76722
-7.94202
-10.9626
-11.5843
-11.5276
-11.4131
-11.2387
-11.0014
-10.6984
-10.3274
-9.88958
-9.39196
-8.85364
-8.31315
-7.83449
-7.48276
-7.08171
-4.43812
-10.91
-10.8531
-10.7385
-10.5648
-10.33
-10.0325
-9.67207
-9.25174
-8.78085
-8.28033
-7.79117
-7.39001
-7.23244
-7.78021
-11.4688
-10.2749
-10.2185
-10.1049
-9.93314
-9.70188
-9.41014
-9.05816
-8.64886
-8.19017
-7.699
-7.20794
-6.77618
-6.49214
-6.29911
-4.11304
-9.67899
-9.62334
-9.51154
-9.34268
-9.11565
-8.82949
-8.48392
-8.08014
-7.62191
-7.11745
-6.58336
-6.0596
-5.68849
-6.20366
-12.1879
-9.12154
-9.06705
-8.95765
-8.79245
-8.57032
-8.28994
-7.94996
-7.54906
-7.08562
-6.55631
-5.95143
-5.23681
-4.26919
-2.31189
5.08829
-8.60176
-8.54876
-8.44234
-8.28161
-8.06529
-7.79162
-7.45816
-7.06128
-6.59489
-6.0475
-5.39554
-4.5895
-3.537
-2.20168
-2.004
-8.11863
-8.06741
-7.96457
-7.80921
-7.59994
-7.33467
-7.01023
-6.6216
-6.16027
-5.61115
-4.94644
-4.11313
-3.00102
-1.30325
2.45814
-7.6709
-7.62177
-7.52311
-7.37409
-7.17331
-6.91865
-6.60673
-6.23224
-5.78644
-5.25489
-4.61424
-3.83012
-2.87155
-1.83977
-1.88557
-7.25713
-7.21035
-7.11646
-6.97473
-6.78395
-6.54221
-6.24653
-5.89224
-5.47198
-4.97423
-4.38147
-3.66802
-2.7927
-1.62988
0.645799
-6.87567
-6.83148
-6.74287
-6.60928
-6.42981
-6.20306
-5.92686
-5.59789
-5.21117
-4.75936
-4.2323
-3.6181
-2.91328
-2.19476
-2.15019
-6.52473
-6.48331
-6.40034
-6.27551
-6.10834
-5.89808
-5.64365
-5.34348
-4.99539
-4.59656
-4.14344
-3.63085
-3.04317
-2.2936
-0.827794
-6.20237
-6.16382
-6.0867
-5.97097
-5.81661
-5.62362
-5.39205
-5.12216
-4.81467
-4.47127
-4.09567
-3.6955
-3.28527
-2.89181
-2.57575
-5.90662
-5.87094
-5.79969
-5.69308
-5.55154
-5.37576
-5.16687
-4.92678
-4.65871
-4.36814
-4.06477
-3.76688
-3.51551
-3.43827
-4.10467
-5.63547
-5.60259
-5.53704
-5.43928
-5.31008
-5.15071
-4.96318
-4.75067
-4.51819
-4.27372
-4.02985
-3.8057
-3.62461
-3.47034
-2.92054
-5.38697
-5.35675
-5.2966
-5.20712
-5.08938
-4.94504
-4.77667
-4.58824
-4.38581
-4.17868
-3.98103
-3.81437
-3.71487
-3.77912
-4.53131
-5.15928
-5.13152
-5.07633
-4.99441
-4.88698
-4.75587
-4.60392
-4.43534
-4.2565
-4.07689
-3.91046
-3.77617
-3.69119
-3.61222
-3.01352
-4.95069
-4.92515
-4.87443
-4.79925
-4.70082
-4.581
-4.44252
-4.2894
-4.12754
-3.96575
-3.81735
-3.70347
-3.66311
-3.80832
-4.73179
-4.75964
-4.73609
-4.68933
-4.62004
-4.52934
-4.4189
-4.29111
-4.14933
-3.99835
-3.84512
-3.70006
-3.57946
-3.50595
-3.46603
-2.95087
-4.58477
-4.56297
-4.51969
-4.45551
-4.37138
-4.26867
-4.14922
-4.01546
-3.87055
-3.71862
-3.56556
-3.4225
-3.32525
-3.45586
-4.95362
-4.42484
-4.4046
-4.36437
-4.30463
-4.22614
-4.12988
-4.01709
-3.88916
-3.74742
-3.59269
-3.42391
-3.23347
-2.98609
-2.49837
-0.664445
-4.27877
-4.25991
-4.2224
-4.1666
-4.09304
-4.00238
-3.89529
-3.77225
-3.63312
-3.47634
-3.29708
-3.08373
-2.8136
-2.47791
-2.43469
-4.1456
-4.128
-4.09295
-4.0407
-3.97163
-3.88611
-3.78438
-3.66631
-3.5309
-3.37539
-3.1937
-2.97315
-2.68642
-2.25649
-1.31449
-4.02447
-4.00802
-3.97523
-3.92629
-3.86145
-3.78089
-3.68463
-3.57224
-3.44243
-3.29243
-3.11708
-2.90827
-2.65845
-2.39283
-2.40149
-3.91457
-3.8992
-3.86854
-3.82274
-3.76198
-3.68639
-3.59589
-3.49007
-3.3678
-3.22687
-3.06348
-2.87162
-2.64121
-2.34088
-1.76668
-3.81515
-3.80079
-3.77216
-3.72938
-3.67262
-3.60203
-3.51761
-3.41913
-3.30592
-3.1767
-3.02941
-2.86147
-2.67231
-2.48131
-2.4619
-3.72551
-3.71211
-3.68541
-3.64553
-3.59268
-3.52708
-3.44891
-3.35823
-3.25497
-3.13888
-3.00947
-2.8658
-2.70445
-2.50476
-2.13423
-3.64498
-3.63249
-3.6076
-3.57049
-3.52141
-3.46068
-3.38868
-3.30586
-3.21275
-3.11011
-2.99919
-2.88216
-2.76299
-2.64905
-2.55961
-3.57292
-3.56127
-3.53808
-3.50356
-3.45802
-3.4019
-3.33579
-3.26044
-3.17694
-3.0869
-2.99292
-2.89972
-2.81768
-2.77852
-2.92336
-3.50876
-3.49788
-3.47624
-3.44408
-3.40178
-3.34988
-3.28911
-3.22049
-3.14549
-3.06621
-2.98588
-2.90928
-2.84237
-2.78241
-2.63473
-3.45196
-3.44176
-3.4215
-3.39144
-3.35201
-3.30381
-3.24768
-3.18479
-3.1168
-3.04606
-2.97603
-2.91183
-2.86202
-2.84941
-2.99749
-3.40203
-3.39243
-3.37337
-3.34512
-3.30814
-3.26305
-3.21074
-3.15244
-3.08981
-3.02522
-2.9619
-2.90412
-2.85561
-2.80704
-2.64691
-3.35858
-3.34947
-3.33141
-3.30467
-3.26969
-3.2271
-3.17778
-3.12289
-3.064
-3.00328
-2.94371
-2.8897
-2.84901
-2.84435
-3.00228
-3.32124
-3.31254
-3.29529
-3.26973
-3.23632
-3.19564
-3.14849
-3.09592
-3.03928
-2.98033
-2.92142
-2.86577
-2.81716
-2.77096
-2.62651
-3.28975
-3.28136
-3.26471
-3.24006
-3.2078
-3.16846
-3.12277
-3.07158
-3.01596
-2.95714
-2.89664
-2.83669
-2.78342
-2.76803
-2.99223
-3.26388
-3.25571
-3.2395
-3.21547
-3.18398
-3.14551
-3.10066
-3.05013
-2.99465
-2.93492
-2.87126
-2.80269
-2.72315
-2.60094
-2.25116
-3.24349
-3.23546
-3.21951
-3.19586
-3.16481
-3.12679
-3.08231
-3.0319
-2.9761
-2.91522
-2.84904
-2.77604
-2.69229
-2.59413
-2.53066
-3.22847
-3.2205
-3.20468
-3.18117
-3.15028
-3.11237
-3.06787
-3.01723
-2.96087
-2.899
-2.83134
-2.75659
-2.67121
-2.56546
-2.40026
-3.21878
-3.21081
-3.19497
-3.17142
-3.14042
-3.10232
-3.05749
-3.00634
-2.94927
-2.88658
-2.81833
-2.74426
-2.66405
-2.58032
-2.52195
-3.21442
-3.20638
-3.1904
-3.16663
-3.13531
-3.09674
-3.05129
-2.99936
-2.94139
-2.87781
-2.80912
-2.73591
-2.65909
-2.57984
-2.49732
-3.21544
-3.20728
-3.19105
-3.16689
-3.13502
-3.09574
-3.04939
-2.99638
-2.93718
-2.87239
-2.80283
-2.72981
-2.65557
-2.5839
-2.52216
-3.22193
-3.21359
-3.197
-3.17229
-3.13968
-3.09945
-3.05192
-2.9975
-2.93667
-2.87007
-2.7987
-2.72427
-2.65004
-2.58332
-2.54751
-3.234
-3.22543
-3.20838
-3.18298
-3.14944
-3.10802
-3.05905
-3.00288
-2.93995
-2.87085
-2.79647
-2.71832
-2.63906
-2.56354
-2.50558
-3.25182
-3.24297
-3.22536
-3.19912
-3.16446
-3.12165
-3.07097
-3.01275
-2.94731
-2.87508
-2.79662
-2.71288
-2.62523
-2.53382
-2.4239
-3.27558
-3.2664
-3.24812
-3.2209
-3.18495
-3.14053
-3.08793
-3.02742
-2.9592
-2.88343
-2.80021
-2.70986
-2.6138
-2.51921
-2.47197
-3.30552
-3.29595
-3.2769
-3.24854
-3.21111
-3.1649
-3.1102
-3.04725
-2.97614
-2.89674
-2.80852
-2.71053
-2.6011
-2.47398
-2.28214
-3.34191
-3.33189
-3.31195
-3.28228
-3.24317
-3.19496
-3.138
-3.07254
-2.99864
-2.91595
-2.82337
-2.71887
-2.60046
-2.47595
-2.43356
-3.38507
-3.37451
-3.35354
-3.32238
-3.28136
-3.23091
-3.17149
-3.10348
-3.02706
-2.94183
-2.84628
-2.73658
-2.60381
-2.42316
-2.08204
-3.43535
-3.42419
-3.40202
-3.36912
-3.3259
-3.2729
-3.21075
-3.14008
-3.06138
-2.97466
-2.87879
-2.77003
-2.64017
-2.48406
-2.4198
-3.49318
-3.48132
-3.45776
-3.42283
-3.37703
-3.32105
-3.25574
-3.18206
-3.10106
-3.01365
-2.92001
-2.81785
-2.69452
-2.48343
-1.78772
-3.55906
-3.54637
-3.52119
-3.48388
-3.43505
-3.3755
-3.30633
-3.22892
-3.14501
-3.05675
-2.96692
-2.8801
-2.80956
-2.82159
-3.33462
-3.63356
-3.61992
-3.59285
-3.55276
-3.5003
-3.43643
-3.36245
-3.28011
-3.19179
-3.10073
-3.01152
-2.93077
-2.86704
-2.81402
-2.57663
-3.71734
-3.7026
-3.67336
-3.63002
-3.57329
-3.5042
-3.42418
-3.33525
-3.24026
-3.14324
-3.05
-2.96934
-2.91686
-2.93668
-3.2651
-3.81115
-3.79518
-3.76346
-3.71639
-3.65469
-3.57936
-3.4919
-3.39442
-3.28996
-3.18291
-3.07951
-2.98808
-2.91623
-2.84721
-2.57126
-3.91588
-3.89852
-3.86402
-3.81275
-3.74535
-3.66277
-3.5664
-3.45824
-3.34127
-3.21984
-3.10048
-2.99295
-2.9134
-2.90361
-3.18543
-4.03246
-4.0136
-3.97604
-3.92012
-3.84636
-3.75557
-3.64889
-3.52801
-3.39547
-3.25514
-3.11301
-2.97814
-2.86189
-2.75962
-2.4966
-4.16196
-4.14147
-4.10063
-4.03968
-3.95902
-3.85921
-3.74105
-3.60569
-3.4549
-3.29149
-3.12027
-2.95013
-2.80044
-2.7294
-2.99049
-4.3055
-4.2833
-4.23901
-4.17276
-4.0848
-3.97543
-3.84498
-3.69391
-3.52289
-3.33306
-3.12657
-2.90764
-2.68415
-2.47063
-2.30119
-4.46428
-4.44032
-4.39245
-4.32074
-4.22528
-4.10609
-3.96305
-3.79581
-3.60377
-3.38599
-3.1413
-2.86806
-2.56071
-2.18331
-1.49467
-4.63952
-4.61376
-4.56226
-4.48504
-4.38207
-4.25314
-4.09773
-3.91477
-3.70235
-3.45742
-3.17562
-2.85191
-2.48569
-2.11422
-2.05675
-4.83249
-4.8049
-4.74976
-4.66706
-4.55672
-4.41842
-4.25138
-4.054
-3.82333
-3.55428
-3.23882
-2.86503
-2.41407
-1.8291
-0.732904
-5.04444
-5.01502
-4.95623
-4.86811
-4.75061
-4.60348
-4.42593
-4.2162
-3.97077
-3.68317
-3.34232
-2.9315
-2.43529
-1.90101
-1.87427
-5.27666
-5.24538
-5.18291
-5.08939
-4.96493
-4.8095
-4.62266
-4.40301
-4.14734
-3.84888
-3.49419
-3.057
-2.48274
-1.62241
0.228631
-5.53043
-5.49724
-5.431
-5.33199
-5.20059
-5.03719
-4.84201
-4.61469
-4.35346
-4.05345
-3.70318
-3.27745
-2.72862
-2.03372
-1.87521
-5.80711
-5.77189
-5.70169
-5.59693
-5.45831
-5.28679
-5.08352
-4.84975
-4.58634
-4.29276
-3.96437
-3.58315
-3.07574
-2.07438
1.62253
-6.10808
-6.0707
-5.99622
-5.88523
-5.73874
-5.55827
-5.34608
-5.10526
-4.84003
-4.5561
-4.26206
-3.97627
-3.76569
-3.98876
-6.91405
-6.43486
-6.39513
-6.31597
-6.19805
-6.04261
-5.85166
-5.62836
-5.37758
-5.10657
-4.8263
-4.55387
-4.31696
-4.15432
-4.02815
-2.88118
-6.78909
-6.74679
-6.66247
-6.53679
-6.371
-6.16735
-5.92961
-5.6638
-5.37939
-5.09091
-4.82087
-4.60591
-4.51748
-4.77796
-6.61292
-7.17255
-7.1275
-7.03757
-6.90323
-6.72555
-6.5066
-6.2502
-5.96282
-5.65491
-5.34259
-5.04948
-4.80682
-4.63821
-4.43576
-3.05854
-7.58717
-7.53924
-7.44337
-7.29965
-7.10861
-6.87173
-6.59218
-6.27597
-5.93338
-5.5808
-5.24292
-4.95615
-4.78235
-4.91075
-6.47044
-8.03493
-7.98414
-7.88226
-7.7288
-7.52339
-7.26635
-6.9595
-6.60733
-6.21867
-5.80868
-5.40074
-5.02688
-4.71652
-4.39308
-3.04343
-8.51783
-8.4644
-8.35686
-8.19388
-7.97389
-7.69545
-7.35817
-6.9639
-6.51867
-6.03501
-5.53477
-5.0534
-4.65967
-4.58936
-6.10873
-9.0377
-8.98213
-8.86981
-8.69845
-8.46486
-8.16531
-7.79628
-7.35576
-6.84525
-6.27276
-5.65558
-5.01895
-4.37815
-3.68294
-2.80009
-9.59604
-9.53914
-9.42364
-9.24611
-9.00151
-8.68328
-8.28394
-7.79609
-7.21476
-6.54143
-5.78979
-4.98729
-4.13441
-2.90809
1.12155
-10.1938
-10.1367
-10.0204
-9.84025
-9.58916
-9.25749
-8.83294
-8.30124
-7.64806
-6.86438
-5.95925
-4.9906
-4.15007
-4.08125
-7.537
-10.831
-10.7754
-10.6614
-10.4835
-10.2327
-9.89607
-9.45625
-8.89062
-8.17187
-7.27159
-6.17278
-4.90497
-3.62998
-2.80683
-3.21766
-11.5067
-11.4544
-11.3467
-11.1773
-10.9356
-10.6062
-10.1668
-9.58623
-8.82164
-7.81657
-6.50367
-4.82448
-2.79628
-0.675472
0.815571
-12.2187
-12.1718
-12.0749
-11.9211
-11.6994
-11.3926
-10.9753
-10.4095
-9.6383
-8.57523
-7.08895
-4.98662
-2.02709
1.89332
5.88356
-12.963
-12.9238
-12.8423
-12.712
-12.5222
-12.2557
-11.8868
-11.3753
-10.6575
-9.6277
-8.10207
-5.74436
-1.92541
4.41375
13.7219
-13.7345
-13.7051
-13.6435
-13.5443
-13.3979
-13.1898
-12.8972
-12.4843
-11.8933
-11.0244
-9.69303
-7.51715
-3.57409
4.87255
28.0234
-159.666
-96.0533
-67.2672
-53.5233
-46.1672
-41.7765
-38.9254
-36.9606
-35.5527
-34.5212
-33.7608
-33.2072
-32.82
-32.574
-32.4544
-198.305
-89.8915
-59.8142
-48.2226
-42.4104
-38.9591
-36.6887
-35.0981
-33.9408
-33.0819
-32.4422
-31.9727
-31.6424
-31.4317
-31.329
50.5899
-29.3298
-39.5241
-38.9083
-37.014
-35.3217
-33.9796
-32.9346
-32.1215
-31.4902
-31.0052
-30.6414
-30.3816
-30.2142
-30.1323
-7.83688
-17.19
-26.7411
-30.4819
-31.4771
-31.4408
-31.0642
-30.6099
-30.1758
-29.7969
-29.4839
-29.2377
-29.0564
-28.9374
-28.8785
27.4481
-4.91412
-17.9931
-23.9621
-26.6565
-27.7961
-28.2027
-28.271
-28.1916
-28.0579
-27.916
-27.7889
-27.688
-27.6187
-27.5836
-2.00981
-6.03083
-14.1825
-19.7163
-22.9154
-24.6602
-25.5761
-26.0346
-26.245
-26.3243
-26.3376
-26.3218
-26.2974
-26.2761
-26.2642
11.6222
-4.28049
-12.1898
-17.0916
-20.1841
-22.0997
-23.2671
-23.9702
-24.3895
-24.6364
-24.7795
-24.8604
-24.9045
-24.927
-24.9364
-4.00011
-8.08263
-12.2855
-15.7233
-18.2698
-20.0587
-21.2804
-22.1029
-22.6534
-23.0205
-23.2643
-23.4244
-23.5266
-23.5869
-23.6149
-16.7876
-11.8027
-12.9125
-14.9738
-16.8816
-18.4116
-19.5706
-20.4245
-21.0444