# vtk DataFile Version 2.0
generated by CFD-lab course output (written by Tobias Neckel) 
ASCII

DATASET STRUCTURED_GRID
DIMENSIONS  101 21 1 
POINTS 2121 float

0.000000 0.000000 0
0.098039 0.000000 0
0.196078 0.000000 0
0.294118 0.000000 0
0.392157 0.000000 0
0.490196 0.000000 0
0.588235 0.000000 0
0.686275 0.000000 0
0.784314 0.000000 0
0.882353 0.000000 0
0.980392 0.000000 0
1.078431 0.000000 0
1.176471 0.000000 0
1.274510 0.000000 0
1.372549 0.000000 0
1.470588 0.000000 0
1.568627 0.000000 0
1.666667 0.000000 0
1.764706 0.000000 0
1.862745 0.000000 0
1.960784 0.000000 0
2.058824 0.000000 0
2.156863 0.000000 0
2.254902 0.000000 0
2.352941 0.000000 0
2.450980 0.000000 0
2.549020 0.000000 0
2.647059 0.000000 0
2.745098 0.000000 0
2.843137 0.000000 0
2.941176 0.000000 0
3.039216 0.000000 0
3.137255 0.000000 0
3.235294 0.000000 0
3.333333 0.000000 0
3.431373 0.000000 0
3.529412 0.000000 0
3.627451 0.000000 0
3.725490 0.000000 0
3.823529 0.000000 0
3.921569 0.000000 0
4.019608 0.000000 0
4.117647 0.000000 0
4.215686 0.000000 0
4.313725 0.000000 0
4.411765 0.000000 0
4.509804 0.000000 0
4.607843 0.000000 0
4.705882 0.000000 0
4.803922 0.000000 0
4.901961 0.000000 0
5.000000 0.000000 0
5.098039 0.000000 0
5.196078 0.000000 0
5.294118 0.000000 0
5.392157 0.000000 0
5.490196 0.000000 0
5.588235 0.000000 0
5.686275 0.000000 0
5.784314 0.000000 0
5.882353 0.000000 0
5.980392 0.000000 0
6.078431 0.000000 0
6.176471 0.000000 0
6.274510 0.000000 0
6.372549 0.000000 0
6.470588 0.000000 0
6.568627 0.000000 0
6.666667 0.000000 0
6.764706 0.000000 0
6.862745 0.000000 0
6.960784 0.000000 0
7.058824 0.000000 0
7.156863 0.000000 0
7.254902 0.000000 0
7.352941 0.000000 0
7.450980 0.000000 0
7.549020 0.000000 0
7.647059 0.000000 0
7.745098 0.000000 0
7.843137 0.000000 0
7.941176 0.000000 0
8.039216 0.000000 0
8.137255 0.000000 0
8.235294 0.000000 0
8.333333 0.000000 0
8.431373 0.000000 0
8.529412 0.000000 0
8.627451 0.000000 0
8.725490 0.000000 0
8.823529 0.000000 0
8.921569 0.000000 0
9.019608 0.000000 0
9.117647 0.000000 0
9.215686 0.000000 0
9.313725 0.000000 0
9.411765 0.000000 0
9.509804 0.000000 0
9.607843 0.000000 0
9.705882 0.000000 0
9.803922 0.000000 0
0.000000 0.090909 0
0.098039 0.090909 0
0.196078 0.090909 0
0.294118 0.090909 0
0.392157 0.090909 0
0.490196 0.090909 0
0.588235 0.090909 0
0.686275 0.090909 0
0.784314 0.090909 0
0.882353 0.090909 0
0.980392 0.090909 0
1.078431 0.090909 0
1.176471 0.090909 0
1.274510 0.090909 0
1.372549 0.090909 0
1.470588 0.090909 0
1.568627 0.090909 0
1.666667 0.090909 0
1.764706 0.090909 0
1.862745 0.090909 0
1.960784 0.090909 0
2.058824 0.090909 0
2.156863 0.090909 0
2.254902 0.090909 0
2.352941 0.090909 0
2.450980 0.090909 0
2.549020 0.090909 0
2.647059 0.090909 0
2.745098 0.090909 0
2.843137 0.090909 0
2.941176 0.090909 0
3.039216 0.090909 0
3.137255 0.090909 0
3.235294 0.090909 0
3.333333 0.090909 0
3.431373 0.090909 0
3.529412 0.090909 0
3.627451 0.090909 0
3.725490 0.090909 0
3.823529 0.090909 0
3.921569 0.090909 0
4.019608 0.090909 0
4.117647 0.090909 0
4.215686 0.090909 0
4.313725 0.090909 0
4.411765 0.090909 0
4.509804 0.090909 0
4.607843 0.090909 0
4.705882 0.090909 0
4.803922 0.090909 0
4.901961 0.090909 0
5.000000 0.090909 0
5.098039 0.090909 0
5.196078 0.090909 0
5.294118 0.090909 0
5.392157 0.090909 0
5.490196 0.090909 0
5.588235 0.090909 0
5.686275 0.090909 0
5.784314 0.090909 0
5.882353 0.090909 0
5.980392 0.090909 0
6.078431 0.090909 0
6.176471 0.090909 0
6.274510 0.090909 0
6.372549 0.090909 0
6.470588 0.090909 0
6.568627 0.090909 0
6.666667 0.090909 0
6.764706 0.090909 0
6.862745 0.090909 0
6.960784 0.090909 0
7.058824 0.090909 0
7.156863 0.090909 0
7.254902 0.090909 0
7.352941 0.090909 0
7.450980 0.090909 0
7.549020 0.090909 0
7.647059 0.090909 0
7.745098 0.090909 0
7.843137 0.090909 0
7.941176 0.090909 0
8.039216 0.090909 0
8.137255 0.090909 0
8.235294 0.090909 0
8.333333 0.090909 0
8.431373 0.090909 0
8.529412 0.090909 0
8.627451 0.090909 0
8.725490 0.090909 0
8.823529 0.090909 0
8.921569 0.090909 0
9.019608 0.090909 0
9.117647 0.090909 0
9.215686 0.090909 0
9.313725 0.090909 0
9.411765 0.090909 0
9.509804 0.090909 0
9.607843 0.090909 0
9.705882 0.090909 0
9.803922 0.090909 0
0.000000 0.181818 0
0.098039 0.181818 0
0.196078 0.181818 0
0.294118 0.181818 0
0.392157 0.181818 0
0.490196 0.181818 0
0.588235 0.181818 0
0.686275 0.181818 0
0.784314 0.181818 0
0.882353 0.181818 0
0.980392 0.181818 0
1.078431 0.181818 0
1.176471 0.181818 0
1.274510 0.181818 0
1.372549 0.181818 0
1.470588 0.181818 0
1.568627 0.181818 0
1.666667 0.181818 0
1.764706 0.181818 0
1.862745 0.181818 0
1.960784 0.181818 0
2.058824 0.181818 0
2.156863 0.181818 0
2.254902 0.181818 0
2.352941 0.181818 0
2.450980 0.181818 0
2.549020 0.181818 0
2.647059 0.181818 0
2.745098 0.181818 0
2.843137 0.181818 0
2.941176 0.181818 0
3.039216 0.181818 0
3.137255 0.181818 0
3.235294 0.181818 0
3.333333 0.181818 0
3.431373 0.181818 0
3.529412 0.181818 0
3.627451 0.181818 0
3.725490 0.181818 0
3.823529 0.181818 0
3.921569 0.181818 0
4.019608 0.181818 0
4.117647 0.181818 0
4.215686 0.181818 0
4.313725 0.181818 0
4.411765 0.181818 0
4.509804 0.181818 0
4.607843 0.181818 0
4.705882 0.181818 0
4.803922 0.181818 0
4.901961 0.181818 0
5.000000 0.181818 0
5.098039 0.181818 0
5.196078 0.181818 0
5.294118 0.181818 0
5.392157 0.181818 0
5.490196 0.181818 0
5.588235 0.181818 0
5.686275 0.181818 0
5.784314 0.181818 0
5.882353 0.181818 0
5.980392 0.181818 0
6.078431 0.181818 0
6.176471 0.181818 0
6.274510 0.181818 0
6.372549 0.181818 0
6.470588 0.181818 0
6.568627 0.181818 0
6.666667 0.181818 0
6.764706 0.181818 0
6.862745 0.181818 0
6.960784 0.181818 0
7.058824 0.181818 0
7.156863 0.181818 0
7.254902 0.181818 0
7.352941 0.181818 0
7.450980 0.181818 0
7.549020 0.181818 0
7.647059 0.181818 0
7.745098 0.181818 0
7.843137 0.181818 0
7.941176 0.181818 0
8.039216 0.181818 0
8.137255 0.181818 0
8.235294 0.181818 0
8.333333 0.181818 0
8.431373 0.181818 0
8.529412 0.181818 0
8.627451 0.181818 0
8.725490 0.181818 0
8.823529 0.181818 0
8.921569 0.181818 0
9.019608 0.181818 0
9.117647 0.181818 0
9.215686 0.181818 0
9.313725 0.181818 0
9.411765 0.181818 0
9.509804 0.181818 0
9.607843 0.181818 0
9.705882 0.181818 0
9.803922 0.181818 0
0.000000 0.272727 0
0.098039 0.272727 0
0.196078 0.272727 0
0.294118 0.272727 0
0.392157 0.272727 0
0.490196 0.272727 0
0.588235 0.272727 0
0.686275 0.272727 0
0.784314 0.272727 0
0.882353 0.272727 0
0.980392 0.272727 0
1.078431 0.272727 0
1.176471 0.272727 0
1.274510 0.272727 0
1.372549 0.272727 0
1.470588 0.272727 0
1.568627 0.272727 0
1.666667 0.272727 0
1.764706 0.272727 0
1.862745 0.272727 0
1.960784 0.272727 0
2.058824 0.272727 0
2.156863 0.272727 0
2.254902 0.272727 0
2.352941 0.272727 0
2.450980 0.272727 0
2.549020 0.272727 0
2.647059 0.272727 0
2.745098 0.272727 0
2.843137 0.272727 0
2.941176 0.272727 0
3.039216 0.272727 0
3.137255 0.272727 0
3.235294 0.272727 0
3.333333 0.272727 0
3.431373 0.272727 0
3.529412 0.272727 0
3.627451 0.272727 0
3.725490 0.272727 0
3.823529 0.272727 0
3.921569 0.272727 0
4.019608 0.272727 0
4.117647 0.272727 0
4.215686 0.272727 0
4.313725 0.272727 0
4.411765 0.272727 0
4.509804 0.272727 0
4.607843 0.272727 0
4.705882 0.272727 0
4.803922 0.272727 0
4.901961 0.272727 0
5.000000 0.272727 0
5.098039 0.272727 0
5.196078 0.272727 0
5.294118 0.272727 0
5.392157 0.272727 0
5.490196 0.272727 0
5.588235 0.272727 0
5.686275 0.272727 0
5.784314 0.272727 0
5.882353 0.272727 0
5.980392 0.272727 0
6.078431 0.272727 0
6.176471 0.272727 0
6.274510 0.272727 0
6.372549 0.272727 0
6.470588 0.272727 0
6.568627 0.272727 0
6.666667 0.272727 0
6.764706 0.272727 0
6.862745 0.272727 0
6.960784 0.272727 0
7.058824 0.272727 0
7.156863 0.272727 0
7.254902 0.272727 0
7.352941 0.272727 0
7.450980 0.272727 0
7.549020 0.272727 0
7.647059 0.272727 0
7.745098 0.272727 0
7.843137 0.272727 0
7.941176 0.272727 0
8.039216 0.272727 0
8.137255 0.272727 0
8.235294 0.272727 0
8.333333 0.272727 0
8.431373 0.272727 0
8.529412 0.272727 0
8.627451 0.272727 0
8.725490 0.272727 0
8.823529 0.272727 0
8.921569 0.272727 0
9.019608 0.272727 0
9.117647 0.272727 0
9.215686 0.272727 0
9.313725 0.272727 0
9.411765 0.272727 0
9.509804 0.272727 0
9.607843 0.272727 0
9.705882 0.272727 0
9.803922 0.272727 0
0.000000 0.363636 0
0.098039 0.363636 0
0.196078 0.363636 0
0.294118 0.363636 0
0.392157 0.363636 0
0.490196 0.363636 0
0.588235 0.363636 0
0.686275 0.363636 0
0.784314 0.363636 0
0.882353 0.363636 0
0.980392 0.363636 0
1.078431 0.363636 0
1.176471 0.363636 0
1.274510 0.363636 0
1.372549 0.363636 0
1.470588 0.363636 0
1.568627 0.363636 0
1.666667 0.363636 0
1.764706 0.363636 0
1.862745 0.363636 0
1.960784 0.363636 0
2.058824 0.363636 0
2.156863 0.363636 0
2.254902 0.363636 0
2.352941 0.363636 0
2.450980 0.363636 0
2.549020 0.363636 0
2.647059 0.363636 0
2.745098 0.363636 0
2.843137 0.363636 0
2.941176 0.363636 0
3.039216 0.363636 0
3.137255 0.363636 0
3.235294 0.363636 0
3.333333 0.363636 0
3.431373 0.363636 0
3.529412 0.363636 0
3.627451 0.363636 0
3.725490 0.363636 0
3.823529 0.363636 0
3.921569 0.363636 0
4.019608 0.363636 0
4.117647 0.363636 0
4.215686 0.363636 0
4.313725 0.363636 0
4.411765 0.363636 0
4.509804 0.363636 0
4.607843 0.363636 0
4.705882 0.363636 0
4.803922 0.363636 0
4.901961 0.363636 0
5.000000 0.363636 0
5.098039 0.363636 0
5.196078 0.363636 0
5.294118 0.363636 0
5.392157 0.363636 0
5.490196 0.363636 0
5.588235 0.363636 0
5.686275 0.363636 0
5.784314 0.363636 0
5.882353 0.363636 0
5.980392 0.363636 0
6.078431 0.363636 0
6.176471 0.363636 0
6.274510 0.363636 0
6.372549 0.363636 0
6.470588 0.363636 0
6.568627 0.363636 0
6.666667 0.363636 0
6.764706 0.363636 0
6.862745 0.363636 0
6.960784 0.363636 0
7.058824 0.363636 0
7.156863 0.363636 0
7.254902 0.363636 0
7.352941 0.363636 0
7.450980 0.363636 0
7.549020 0.363636 0
7.647059 0.363636 0
7.745098 0.363636 0
7.843137 0.363636 0
7.941176 0.363636 0
8.039216 0.363636 0
8.137255 0.363636 0
8.235294 0.363636 0
8.333333 0.363636 0
8.431373 0.363636 0
[...]
POINT_DATA 2121 

VECTORS velocity float
0.500000 0.000000 0
0.484382 0.000000 0
0.479687 0.000000 0
0.478522 0.000000 0
0.478664 0.000000 0
0.479248 0.000000 0
0.479788 0.000000 0
0.479903 0.000000 0
0.479265 0.000000 0
0.477628 0.000000 0
0.474882 0.000000 0
0.471077 0.000000 0
0.466409 0.000000 0
0.461161 0.000000 0
0.455638 0.000000 0
0.450112 0.000000 0
0.444787 0.000000 0
0.439797 0.000000 0
0.435207 0.000000 0
0.431033 0.000000 0
0.427256 0.000000 0
0.423839 0.000000 0
0.420736 0.000000 0
0.417897 0.000000 0
0.415277 0.000000 0
0.412837 0.000000 0
0.410542 0.000000 0
0.408363 0.000000 0
0.406277 0.000000 0
0.404265 0.000000 0
0.402311 0.000000 0
0.400406 0.000000 0
0.398538 0.000000 0
0.396701 0.000000 0
0.394890 0.000000 0
0.393100 0.000000 0
0.391327 0.000000 0
0.389570 0.000000 0
0.387826 0.000000 0
0.386094 0.000000 0
0.384372 0.000000 0
0.382660 0.000000 0
0.380957 0.000000 0
0.379261 0.000000 0
0.377574 0.000000 0
0.375895 0.000000 0
0.374222 0.000000 0
0.372557 0.000000 0
0.370899 0.000000 0
0.369247 0.000000 0
0.367602 0.000000 0
0.365964 0.000000 0
0.364332 0.000000 0
0.362707 0.000000 0
0.361087 0.000000 0
0.359475 0.000000 0
0.357868 0.000000 0
0.356268 0.000000 0
0.354673 0.000000 0
0.353085 0.000000 0
0.351503 0.000000 0
0.349927 0.000000 0
0.348358 0.000000 0
0.346794 0.000000 0
0.345236 0.000000 0
0.343685 0.000000 0
0.342139 0.000000 0
0.340600 0.000000 0
0.339066 0.000000 0
0.337539 0.000000 0
0.336018 0.000000 0
0.334504 0.000000 0
0.332996 0.000000 0
0.331495 0.000000 0
0.330001 0.000000 0
0.328515 0.000000 0
0.327037 0.000000 0
0.325567 0.000000 0
0.324108 0.000000 0
0.322658 0.000000 0
0.321221 0.000000 0
0.319798 0.000000 0
0.318391 0.000000 0
0.317003 0.000000 0
0.315637 0.000000 0
0.314298 0.000000 0
0.312990 0.000000 0
0.311719 0.000000 0
0.310494 0.000000 0
0.309324 0.000000 0
0.308219 0.000000 0
0.307195 0.000000 0
0.306270 0.000000 0
0.305474 0.000000 0
0.304856 0.000000 0
0.304521 0.000000 0
0.304741 0.000000 0
0.306352 0.000000 0
0.000000 0.000000 0
0.000000 0.000000 0
0.000000 0.000000 0
1.000000 0.014743 0
0.992877 0.019254 0
0.989738 0.005749 0
0.989292 0.001264 0
0.990285 -0.000359 0
0.991823 -0.000729 0
0.993158 -0.000295 0
0.993560 0.000797 0
0.992335 0.002420 0
0.988938 0.004374 0
0.983124 0.006383 0
0.975017 0.008164 0
0.965068 0.009501 0
0.953922 0.010292 0
0.942253 0.010549 0
0.930642 0.010363 0
0.919519 0.009865 0
0.909145 0.009182 0
0.899642 0.008423 0
0.891024 0.007667 0
0.883242 0.006963 0
0.876206 0.006337 0
0.869815 0.005799 0
0.863965 0.005348 0
0.858562 0.004976 0
0.853521 0.004673 0
0.848773 0.004428 0
0.844258 0.004232 0
0.839931 0.004075 0
0.835752 0.003949 0
0.831692 0.003848 0
0.827727 0.003766 0
0.823839 0.003699 0
0.820014 0.003644 0
0.816240 0.003597 0
0.812510 0.003558 0
0.808816 0.003525 0
0.805153 0.003495 0
0.801517 0.003469 0
0.797906 0.003445 0
0.794317 0.003423 0
0.790747 0.003403 0
0.787197 0.003384 0
0.783664 0.003365 0
0.780148 0.003347 0
0.776648 0.003330 0
0.773163 0.003313 0
0.769694 0.003296 0
0.766240 0.003280 0
0.762800 0.003264 0
0.759374 0.003248 0
0.755963 0.003232 0
0.752565 0.003216 0
0.749181 0.003201 0
0.745811 0.003185 0
0.742454 0.003169 0
0.739111 0.003154 0
0.735782 0.003138 0
0.732466 0.003123 0
0.729162 0.003107 0
0.725873 0.003092 0
0.722596 0.003076 0
0.719332 0.003061 0
0.716082 0.003046 0
0.712845 0.003030 0
0.709620 0.003015 0
0.706409 0.002999 0
0.703211 0.002983 0
0.700026 0.002968 0
0.696854 0.002952 0
0.693696 0.002936 0
0.690552 0.002919 0
0.687422 0.002903 0
0.684306 0.002885 0
0.681206 0.002867 0
0.678122 0.002848 0
0.675055 0.002828 0
0.672006 0.002807 0
0.668978 0.002784 0
0.665972 0.002758 0
0.662991 0.002730 0
0.660039 0.002697 0
0.657121 0.002661 0
0.654242 0.002618 0
0.651409 0.002569 0
0.648630 0.002511 0
0.645916 0.002442 0
0.643280 0.002361 0
0.640737 0.002264 0
0.638305 0.002148 0
0.636008 0.002008 0
0.633873 0.001837 0
0.631935 0.001621 0
0.630243 0.001333 0
0.628869 0.000900 0
0.627928 0.000118 0
0.627620 -0.001690 0
0.628258 -0.006998 0
0.000000 -0.005374 0
0.000000 0.000134 0
0.000000 0.000000 0
1.000000 0.007007 0
1.013543 0.010114 0
1.017787 0.003717 0
1.020303 -0.000115 0
1.022773 -0.001956 0
1.025326 -0.002274 0
1.027542 -0.001221 0
1.028713 0.001152 0
1.028006 0.004673 0
1.024699 0.008927 0
1.018456 0.013294 0
1.009461 0.017125 0
0.998348 0.019941 0
0.985972 0.021536 0
0.973177 0.021964 0
0.960642 0.021456 0
0.948818 0.020307 0
0.937947 0.018803 0
0.928106 0.017172 0
0.919264 0.015574 0
0.911327 0.014104 0
0.904178 0.012812 0
0.897692 0.011710 0
0.891751 0.010791 0
0.886255 0.010038 0
0.881114 0.009427 0
0.876258 0.008936 0
0.871628 0.008543 0
0.867178 0.008229 0
0.862870 0.007977 0
0.858677 0.007776 0
0.854575 0.007612 0
0.850547 0.007479 0
0.846579 0.007370 0
0.842662 0.007278 0
0.838787 0.007201 0
0.834948 0.007135 0
0.831140 0.007076 0
0.827359 0.007024 0
0.823603 0.006977 0
0.819870 0.006934 0
0.816157 0.006894 0
0.812463 0.006856 0
0.808789 0.006820 0
0.805131 0.006785 0
0.801491 0.006751 0
0.797867 0.006718 0
0.794259 0.006686 0
0.790667 0.006654 0
0.787091 0.006623 0
0.783529 0.006592 0
0.779983 0.006561 0
0.776452 0.006530 0
0.772935 0.006500 0
0.769433 0.006470 0
0.765946 0.006440 0
0.762473 0.006410 0
0.759015 0.006380 0
0.755571 0.006350 0
0.752141 0.006321 0
0.748725 0.006291 0
0.745323 0.006261 0
0.741936 0.006232 0
0.738562 0.006202 0
0.735203 0.006173 0
0.731857 0.006143 0
0.728526 0.006114 0
0.725209 0.006084 0
0.721905 0.006054 0
0.718616 0.006024 0
0.715342 0.005993 0
0.712081 0.005962 0
0.708836 0.005930 0
0.705607 0.005896 0
0.702393 0.005862 0
0.699196 0.005826 0
0.696017 0.005787 0
0.692857 0.005746 0
0.689718 0.005701 0
0.686602 0.005651 0
0.683512 0.005595 0
0.680451 0.005532 0
0.677424 0.005459 0
0.674435 0.005375 0
0.671494 0.005276 0
0.668606 0.005160 0
0.665784 0.005023 0
0.663039 0.004859 0
0.660386 0.004664 0
0.657845 0.004431 0
0.655435 0.004150 0
0.653183 0.003811 0
0.651116 0.003395 0
0.649264 0.002867 0
0.647652 0.002166 0
0.646267 0.001171 0
0.644943 -0.000298 0
0.642901 -0.002068 0
0.000000 -0.001199 0
0.000000 0.000281 0
0.000000 0.000000 0
1.000000 0.002468 0
1.008574 0.003121 0
1.013922 -0.000364 0
1.017981 -0.003205 0
1.021850 -0.004862 0
1.025828 -0.004997 0
1.029607 -0.003282 0
1.032373 0.000520 0
1.032966 0.006294 0
1.030257 0.013382 0
1.023700 0.020665 0
1.013606 0.026960 0
1.000961 0.031432 0
0.987016 0.033781 0
0.972904 0.034185 0
0.959435 0.033098 0
0.947065 0.031055 0
0.935967 0.028533 0
0.926125 0.025893 0
0.917422 0.023369 0
0.909697 0.021094 0
0.902782 0.019123 0
0.896526 0.017462 0
0.890795 0.016092 0
0.885479 0.014977 0
0.880491 0.014079 0
0.875760 0.013360 0
0.871231 0.012786 0
0.866860 0.012329 0
0.862616 0.011963 0
0.858472 0.011670 0
0.854408 0.011433 0
0.850410 0.011240 0
0.846466 0.011081 0
0.842567 0.010947 0
0.838706 0.010834 0
0.834877 0.010737 0
0.831077 0.010652 0
0.827303 0.010575 0
0.823552 0.010506 0
0.819822 0.010443 0
0.816112 0.010383 0
0.812421 0.010327 0
0.808748 0.010274 0
0.805092 0.010222 0
0.801452 0.010172 0
0.797829 0.010123 0
0.794222 0.010075 0
0.790631 0.010028 0
0.787055 0.009981 0
0.783494 0.009935 0
0.779948 0.009889 0
0.776417 0.009844 0
0.772900 0.009799 0
0.769399 0.009754 0
0.765911 0.009710 0
0.762439 0.009666 0
0.758980 0.009622 0
0.755536 0.009578 0
0.752107 0.009534 0
0.748691 0.009490 0
0.745289 0.009446 0
0.741902 0.009403 0
0.738528 0.009359 0
0.735169 0.009316 0
0.731823 0.009272 0
0.728492 0.009228 0
0.725174 0.009185 0
0.721871 0.009140 0
0.718581 0.009096 0
0.715306 0.009051 0
0.712045 0.009005 0
0.708799 0.008958 0
0.705568 0.008909 0
0.702353 0.008858 0
0.699154 0.008805 0
0.695972 0.008749 0
0.692808 0.008688 0
0.689664 0.008622 0
0.686542 0.008549 0
0.683444 0.008467 0
0.680374 0.008375 0
0.677334 0.008268 0
0.674332 0.008144 0
0.671371 0.007999 0
0.668462 0.007828 0
0.665612 0.007626 0
0.662835 0.007384 0
0.660143 0.007097 0
0.657554 0.006754 0
0.655086 0.006343 0
0.652762 0.005853 0
0.650603 0.005263 0
0.648626 0.004550 0
0.646835 0.003683 0
0.645188 0.002632 0
0.643545 0.001431 0
0.641594 0.000516 0
0.000000 0.000548 0
0.000000 0.000433 0
0.000000 0.000000 0
1.000000 -0.000661 0
1.006169 -0.002435 0
1.011164 -0.004851 0
1.015823 -0.007311 0
1.020833 -0.009078 0
1.026502 -0.009313 0
1.032543 -0.007136 0
1.037901 -0.001809 0
1.040763 0.006787 0
1.039122 0.017670 0
1.031987 0.028884 0
1.019945 0.038362 0
1.004690 0.044748 0
0.988203 0.047700 0
0.972078 0.047687 0
0.957283 0.045562 0
0.944219 0.042215 0
0.932906 0.038366 0
0.923165 0.034513 0
0.914739 0.030951 0
0.907368 0.027822 0
0.900821 0.025166 0
0.894908 0.022966 0
0.889480 0.021173 0
0.884422 0.019730 0
0.879646 0.018577 0
0.875087 0.017659 0
0.870695 0.016930 0
0.866434 0.016350 0
0.862275 0.015887 0
0.858197 0.015516 0
0.854185 0.015216 0
0.850227 0.014971 0
0.846314 0.014769 0
0.842438 0.014599 0
0.838595 0.014454 0
0.834781 0.014329 0
0.830992 0.014219 0
0.827226 0.014120 0
0.823481 0.014031 0
0.819756 0.013947 0
0.816050 0.013870 0
0.812362 0.013796 0
0.808691 0.013725 0
0.805037 0.013657 0
0.801399 0.013591 0
0.797777 0.013527 0
0.794171 0.013463 0
0.790580 0.013401 0
0.787005 0.013339 0
0.783444 0.013278 0
0.779899 0.013218 0
0.776368 0.013158 0
0.772852 0.013098 0
0.769350 0.013039 0
0.765864 0.012980 0
0.762391 0.012921 0
0.758933 0.012863 0
0.755489 0.012805 0
0.752059 0.012747 0
0.748644 0.012689 0
0.745243 0.012631 0
0.741855 0.012574 0
0.738482 0.012516 0
0.735122 0.012459 0
0.731776 0.012401 0
0.728445 0.012343 0
0.725127 0.012285 0
0.721823 0.012227 0
0.718533 0.012168 0
0.715257 0.012109 0
0.711995 0.012049 0
0.708748 0.011987 0
0.705515 0.011923 0
0.702298 0.011857 0
0.699095 0.011787 0
0.695910 0.011714 0
0.692741 0.011635 0
0.689591 0.011549 0
0.686460 0.011455 0
0.683352 0.011349 0
0.680268 0.011229 0
0.677213 0.011091 0
0.674190 0.010932 0
0.671205 0.010745 0
0.668265 0.010524 0
0.665378 0.010261 0
0.662556 0.009949 0
0.659810 0.009577 0
0.657157 0.009134 0
0.654613 0.008606 0
0.652199 0.007979 0
0.649932 0.007238 0
0.647829 0.006367 0
0.645892 0.005358 0
0.644103 0.004223 0
0.642412 0.003034 0
0.640772 0.002172 0
0.000000 0.001545 0
0.000000 0.000593 0
0.000000 0.000000 0
1.000000 -0.002970 0
1.004539 -0.006871 0
1.008696 -0.009161 0
1.013364 -0.012015 0
1.019249 -0.014609 0
1.026855 -0.015702 0
1.036065 -0.013699 0
1.045576 -0.006950 0
1.052433 0.005315 0
1.052710 0.021672 0
1.044493 0.038598 0
1.029045 0.052421 0
1.009480 0.061015 0
0.989077 0.064170 0
0.970109 0.063004 0
0.953643 0.059079 0
0.939865 0.053805 0
0.928494 0.048201 0
0.919074 0.042883 0
0.911149 0.038161 0
0.904330 0.034143 0
0.898313 0.030818 0
0.892872 0.028118 0
0.887847 0.025954 0
0.883121 0.024234 0
0.878614 0.022872 0
0.874270 0.021795 0
0.870047 0.020944 0
0.865918 0.020270 0
0.861863 0.019732 0
0.857865 0.019301 0
0.853915 0.018952 0
0.850005 0.018666 0
0.846128 0.018429 0
0.842281 0.018229 0
0.838460 0.018058 0
0.834662 0.017909 0
0.830886 0.017777 0
0.827130 0.017658 0
0.823393 0.017549 0
0.819674 0.017448 0
0.815972 0.017352 0
0.812288 0.017262 0
0.808620 0.017175 0
0.804968 0.017091 0
0.801331 0.017009 0
0.797711 0.016929 0
0.794106 0.016851 0
0.790516 0.016773 0
0.786941 0.016697 0
0.783381 0.016621 0
0.779836 0.016546 0
0.776306 0.016471 0
0.772790 0.016397 0
0.769289 0.016323 0
0.765802 0.016250 0
0.762330 0.016177 0
0.758872 0.016104 0
0.755429 0.016032 0
0.751999 0.015960 0
0.748584 0.015888 0
0.745183 0.015816 0
0.741795 0.015744 0
0.738422 0.015673 0
0.735062 0.015601 0
0.731717 0.015530 0
0.728385 0.015458 0
0.725067 0.015387 0
0.721762 0.015314 0
0.718472 0.015242 0
0.715195 0.015168 0
0.711932 0.015094 0
0.708683 0.015017 0
0.705448 0.014939 0
0.702228 0.014858 0
0.699022 0.014773 0
0.695832 0.014684 0
0.692657 0.014588 0
0.689499 0.014484 0
0.686359 0.014370 0
0.683238 0.014243 0
0.680138 0.014099 0
0.677063 0.013934 0
0.674015 0.013743 0
0.670999 0.013519 0
0.668021 0.013254 0
0.665088 0.012940 0
0.662210 0.012566 0
0.659397 0.012120 0
0.656665 0.011587 0
0.654028 0.010953 0
0.651507 0.010203 0
0.649120 0.009323 0
0.646887 0.008303 0
0.644822 0.007141 0
0.642934 0.005861 0
0.641235 0.004520 0
0.639767 0.003466 0
0.000000 0.002309 0
0.000000 0.000765 0
0.000000 0.000000 0
1.000000 -0.004588 0
1.002938 -0.010139 0
1.005788 -0.012879 0
1.009858 -0.016942 0
1.016185 -0.021433 0
1.025827 -0.024752 0
1.039330 -0.024342 0
1.055531 -0.016834 0
1.069761 0.000324 0
1.073602 0.025184 0
1.063215 0.050979 0
1.041686 0.070978 0
1.014989 0.081958 0
0.988718 0.084356 0
0.965989 0.080692 0
0.947690 0.073754 0
0.933442 0.065681 0
0.922402 0.057790 0
0.913697 0.050740 0
0.906608 0.044766 0
0.900602 0.039867 0
0.895308 0.035932 0
0.890480 0.032811 0
0.885955 0.030354 0
0.881631 0.028429 0
0.877442 0.026921 0
0.873347 0.025738 0
0.869318 0.024808 0
0.865340 0.024072 0
0.861400 0.023486 0
0.857492 0.023016 0
0.853610 0.022633 0
0.849753 0.022319 0
0.845917 0.022056 0
0.842101 0.021834 0
0.838303 0.021642 0
0.834524 0.021473 0
0.830762 0.021323 0
0.827017 0.021186 0
0.823288 0.021060 0
0.819576 0.020943 0
0.815879 0.020831 0
0.812198 0.020725 0
0.808533 0.020622 0
0.804884 0.020523 0
0.801249 0.020426 0
0.797630 0.020331 0
0.794026 0.020237 0
0.790437 0.020145 0
0.786863 0.020053 0
0.783304 0.019963 0
0.779760 0.019873 0
0.776230 0.019784 0
0.772715 0.019695 0
0.769214 0.019607 0
0.765728 0.019519 0
0.762256 0.019432 0
0.758798 0.019345 0
0.755355 0.019258 0
0.751926 0.019172 0
0.748511 0.019086 0
0.745110 0.019000 0
0.741722 0.018915 0
0.738349 0.018829 0
0.734990 0.018744 0
0.731644 0.018659 0
0.728312 0.018573 0
0.724994 0.018488 0
0.721689 0.018402 0
0.718398 0.018316 0
0.715120 0.018228 0
0.711856 0.018140 0
0.708605 0.018050 0
0.705368 0.017958 0
0.702145 0.017862 0
0.698935 0.017763 0
0.695739 0.017659 0
0.692558 0.017548 0
0.689391 0.017428 0
0.686239 0.017296 0
0.683104 0.017151 0
0.679986 0.016987 0
0.676888 0.016799 0
0.673811 0.016582 0
0.670759 0.016328 0
0.667737 0.016028 0
0.664750 0.015671 0
0.661806 0.015245 0
0.658914 0.014736 0
0.656088 0.014127 0
0.653344 0.013401 0
0.650699 0.012540 0
0.648176 0.011530 0
0.645800 0.010359 0
0.643598 0.009027 0
0.641602 0.007551 0
0.639856 0.005970 0
0.638429 0.004645 0
0.000000 0.003017 0
0.000000 0.000952 0
0.000000 0.000000 0
1.000000 -0.005413 0
1.000977 -0.011878 0
1.001830 -0.015423 0
1.004413 -0.021501 0
1.010269 -0.029263 0
1.021481 -0.037009 0
1.040273 -0.041089 0
1.067182 -0.035016 0
1.096012 -0.011289 0
1.106725 0.027893 0
1.091518 0.068343 0
1.058770 0.097290 0
1.020132 0.110281 0
0.985311 0.109755 0
0.958061 0.101195 0
0.938252 0.089406 0
0.924262 0.077400 0
0.914302 0.066655 0
0.906930 0.057672 0
0.901136 0.050447 0
0.896261 0.044763 0
0.891904 0.040345 0
0.887825 0.036932 0
0.883890 0.034298 0
0.880025 0.032265 0
0.876190 0.030690 0
0.872366 0.029464 0
0.868546 0.028503 0
0.864727 0.027745 0
0.860909 0.027141 0
0.857094 0.026654 0
0.853285 0.026256 0
0.849482 0.025927 0
0.845688 0.025650 0
0.841903 0.025413 0
0.838131 0.025206 0
0.834370 0.025023 0
0.830623 0.024857 0
0.826889 0.024706 0
0.823169 0.024565 0
0.819463 0.024432 0
0.815771 0.024306 0
0.812095 0.024184 0
0.808433 0.024067 0
0.804786 0.023953 0
0.801153 0.023841 0
0.797536 0.023731 0
0.793933 0.023622 0
0.790345 0.023515 0
0.786772 0.023409 0
0.783214 0.023304 0
0.779670 0.023200 0
0.776141 0.023096 0
0.772626 0.022993 0
0.769126 0.022890 0
0.765640 0.022788 0
0.762169 0.022687 0
0.758711 0.022586 0
0.755268 0.022485 0
0.751839 0.022385 0
0.748425 0.022284 0
0.745024 0.022185 0
0.741637 0.022085 0
0.738264 0.021986 0
0.734904 0.021887 0
0.731558 0.021788 0
0.728226 0.021689 0
0.724908 0.021590 0
0.721603 0.021490 0
0.718311 0.021390 0
0.715032 0.021289 0
0.711767 0.021188 0
0.708515 0.021084 0
0.705275 0.020979 0
0.702049 0.020870 0
0.698835 0.020757 0
0.695633 0.020639 0
0.692445 0.020515 0
0.689268 0.020381 0
0.686105 0.020235 0
0.682954 0.020075 0
0.679817 0.019894 0
0.676693 0.019689 0
0.673585 0.019453 0
0.670493 0.019176 0
0.667422 0.018850 0
0.664374 0.018461 0
0.661355 0.017996 0
0.658374 0.017437 0
0.655442 0.016767 0
0.652572 0.015963 0
0.649784 0.015006 0
0.647104 0.013874 0
0.644561 0.012553 0
0.642195 0.011037 0
0.640055 0.009332 0
0.638203 0.007462 0
0.636718 0.005834 0
0.000000 0.003748 0
0.000000 0.001159 0
0.000000 0.000000 0
1.000000 -0.005212 0
0.998454 -0.011476 0
0.996384 -0.015909 0
0.996151 -0.024613 0
0.999749 -0.037106 0
1.010618 -0.052420 0
1.034235 -0.066566 0
1.077181 -0.068367 0
1.137850 -0.036191 0
1.162122 0.029503 0
1.134902 0.095597 0
1.080920 0.137323 0
1.021990 0.150224 0
0.975396 0.142061 0
0.943733 0.124476 0
0.923813 0.105242 0
0.911615 0.088036 0
0.903975 0.074006 0
0.898808 0.063092 0
0.894872 0.054802 0
0.891475 0.048570 0
0.888258 0.043895 0
0.885047 0.040381 0
0.881765 0.037726 0
0.878392 0.035707 0
0.874927 0.034159 0
0.871382 0.032961 0
0.867772 0.032025 0
0.864112 0.031286 0
0.860415 0.030695 0
0.856692 0.030215 0
0.852952 0.029821 0
0.849202 0.029490 0
0.845449 0.029209 0
0.841696 0.028965 0
0.837947 0.028750 0
0.834205 0.028556 0
0.830471 0.028380 0
0.826748 0.028216 0
0.823036 0.028062 0
0.819337 0.027916 0
0.815651 0.027776 0
0.811978 0.027641 0
0.808319 0.027509 0
0.804674 0.027380 0
0.801044 0.027254 0
0.797428 0.027129 0
0.793827 0.027006 0
0.790240 0.026885 0
0.786668 0.026764 0
0.783110 0.026645 0
0.779567 0.026526 0
0.776038 0.026408 0
0.772524 0.026290 0
0.769024 0.026173 0
0.765539 0.026057 0
0.762068 0.025941 0
0.758611 0.025826 0
0.755168 0.025711 0
0.751740 0.025597 0
0.748325 0.025482 0
0.744925 0.025369 0
0.741538 0.025255 0
0.738165 0.025142 0
0.734806 0.025029 0
0.731460 0.024917 0
0.728128 0.024804 0
0.724810 0.024691 0
0.721504 0.024579 0
0.718212 0.024465 0
0.714932 0.024351 0
0.711666 0.024237 0
0.708412 0.024120 0
0.705170 0.024002 0
0.701940 0.023881 0
0.698722 0.023756 0
0.695516 0.023626 0
0.692320 0.023490 0
0.689134 0.023344 0
0.685958 0.023187 0
0.682792 0.023015 0
0.679634 0.022824 0
0.676484 0.022607 0
0.673343 0.022358 0
0.670210 0.022067 0
0.667085 0.021725 0
0.663972 0.021317 0
0.660872 0.020827 0
0.657792 0.020236 0
0.654740 0.019521 0
0.651729 0.018659 0
0.648777 0.017621 0
0.645912 0.016381 0
0.643170 0.014916 0
0.640598 0.013209 0
0.638260 0.011255 0
0.636233 0.009065 0
0.634610 0.007109 0
0.000000 0.004548 0
0.000000 0.001395 0
0.000000 0.000000 0
1.000000 -0.003697 0
0.995359 -0.008166 0
0.989360 -0.013133 0
0.984597 -0.024467 0
0.982977 -0.042523 0
0.988793 -0.068833 0
1.011579 -0.102657 0
1.071940 -0.130942 0
1.210994 -0.089901 0
1.260690 0.030778 0
1.201298 0.143790 0
1.107322 0.202140 0
1.013243 0.208279 0
0.952642 0.182469 0
0.919308 0.149175 0
0.902733 0.119335 0
0.895048 0.095942 0
0.891521 0.078676 0
0.889627 0.066257 0
0.888143 0.057389 0
0.886535 0.051037 0
0.884608 0.046448 0
0.882327 0.043092 0
0.879719 0.040608 0
0.876836 0.038744 0
0.873731 0.037326 0
0.870453 0.036233 0
0.867041 0.035378 0
0.863529 0.034700 0
0.859943 0.034152 0
0.856304 0.033704 0
0.852627 0.033330 0
0.848926 0.033011 0
0.845209 0.032736 0
0.841484 0.032493 0
0.837757 0.032275 0
0.834031 0.032075 0
0.830310 0.031891 0
0.826596 0.031717 0
0.822892 0.031553 0
0.819199 0.031395 0
0.815517 0.031242 0
0.811848 0.031094 0
0.808192 0.030948 0
0.804550 0.030806 0
0.800921 0.030665 0
0.797307 0.030527 0
0.793707 0.030389 0
0.790121 0.030253 0
0.786550 0.030118 0
0.782993 0.029984 0
0.779450 0.029851 0
0.775922 0.029719 0
0.772409 0.029587 0
0.768910 0.029456 0
0.765425 0.029325 0
0.761954 0.029195 0
0.758498 0.029066 0
0.755056 0.028937 0
0.751627 0.028808 0
0.748213 0.028680 0
0.744813 0.028552 0
0.741427 0.028425 0
0.738054 0.028298 0
0.734695 0.028172 0
0.731350 0.028046 0
0.728018 0.027919 0
0.724699 0.027793 0
0.721393 0.027667 0
0.718101 0.027541 0
0.714821 0.027414 0
0.711553 0.027287 0
0.708298 0.027158 0
0.705054 0.027028 0
0.701821 0.026895 0
0.698600 0.026759 0
0.695388 0.026619 0
0.692185 0.026472 0
0.688991 0.026317 0
0.685803 0.026152 0
0.682621 0.025972 0
0.679443 0.025774 0
0.676268 0.025552 0
0.673093 0.025298 0
0.669917 0.025003 0