/*--------------------------------*- C++ -*----------------------------------*\
| =========                 |                                                 |
| \\      /  F ield         | OpenFOAM: The Open Source CFD Toolbox           |
|  \\    /   O peration     | Version:  5.x                                   |
|   \\  /    A nd           | Web:      www.OpenFOAM.org                      |
|    \\/     M anipulation  |                                                 |
\*---------------------------------------------------------------------------*/
FoamFile
{
    version     2.0;
    format      ascii;
    class       volScalarField;
    location    "6.4";
    object      gradTx;
}
// * * * * * * * * * * * * * * * * * * * * * * * * * * * * * * * * * * * * * //

dimensions      [0 -1 0 1 0 0 0];

internalField   nonuniform List<scalar> 
2048
(
0.00630511
0.0187347
0.030639
0.0417205
0.05175
0.0605783
0.068135
0.0744179
0.0794766
0.0833942
0.0862703
0.0882094
0.0893133
0.0896791
0.089399
0.0885623
0.0872557
0.085563
0.0835617
0.0813205
0.078895
0.076326
0.0736384
0.0708422
0.0679353
0.0649055
0.0617332
0.0583929
0.0548538
0.0510798
0.0470308
0.042663
0.0379313
0.0327912
0.0272006
0.0211221
0.0145234
0.00737832
-0.000332704
-0.00862133
-0.0174891
-0.0269237
-0.0368937
-0.0473418
-0.0581764
-0.0692627
-0.0804136
-0.091382
-0.101857
-0.111465
-0.119783
-0.12636
-0.130754
-0.13257
-0.131512
-0.127416
-0.120277
-0.110248
-0.0976156
-0.0827651
-0.0661296
-0.0481502
-0.0292469
-0.00980737
0.0187889
0.055819
0.0912577
0.124207
0.15398
0.180137
0.202479
0.221012
0.235898
0.247397
0.255813
0.261461
0.264645
0.265649
0.264748
0.262202
0.258271
0.253202
0.247229
0.240557
0.233353
0.225738
0.217784
0.20952
0.200936
0.191996
0.182639
0.17279
0.162356
0.151233
0.139299
0.126424
0.112473
0.0973119
0.0808159
0.0628728
0.043387
0.0222804
-0.000505807
-0.0250079
-0.0512336
-0.0791508
-0.108672
-0.139635
-0.171777
-0.204706
-0.237875
-0.270558
-0.301832
-0.330586
-0.355549
-0.375361
-0.388675
-0.394291
-0.391298
-0.379194
-0.357963
-0.328074
-0.290413
-0.246152
-0.196608
-0.143109
-0.0869049
-0.0291381
0.0311409
0.0924849
0.151109
0.205488
0.254475
0.297354
0.333828
0.363953
0.388041
0.406559
0.420035
0.429001
0.433956
0.435366
0.433671
0.429297
0.422667
0.414194
0.404268
0.393233
0.381368
0.368872
0.355861
0.342375
0.328391
0.313842
0.298629
0.282625
0.26568
0.247619
0.228244
0.207336
0.18467
0.160021
0.133181
0.103964
0.0722141
0.0378011
0.00062654
-0.0393743
-0.0822228
-0.12788
-0.176221
-0.227001
-0.279813
-0.334043
-0.388818
-0.442963
-0.494969
-0.542992
-0.584901
-0.618387
-0.641139
-0.651078
-0.646613
-0.626864
-0.591802
-0.542254
-0.47977
-0.406389
-0.324373
-0.235961
-0.143223
-0.0480089
0.0436009
0.129428
0.211278
0.286943
0.3548
0.413875
0.463824
0.504817
0.537383
0.562247
0.580195
0.591987
0.598315
0.599809
0.597059
0.590645
0.581148
0.56915
0.555205
0.539805
0.523346
0.506103
0.488229
0.469763
0.450662
0.43082
0.410093
0.388307
0.365256
0.340699
0.314358
0.285926
0.25508
0.221502
0.184899
0.145012
0.101622
0.0545529
0.00366417
-0.0511426
-0.109914
-0.172622
-0.239129
-0.30914
-0.382144
-0.457347
-0.533596
-0.609308
-0.682413
-0.750337
-0.810048
-0.858209
-0.891423
-0.906597
-0.901333
-0.874294
-0.825435
-0.756014
-0.668381
-0.565593
-0.450973
-0.327744
-0.198792
-0.0666103
0.0563847
0.167272
0.272726
0.369776
0.45629
0.531072
0.5938
0.644852
0.685066
0.715501
0.737245
0.751301
0.758544
0.759745
0.755621
0.746886
0.734281
0.718562
0.700462
0.680638
0.65961
0.637732
0.615181
0.591983
0.568055
0.543242
0.517353
0.490167
0.46143
0.430837
0.39803
0.362605
0.324138
0.282208
0.236432
0.186479
0.132072
0.0729878
0.00904701
-0.0598886
-0.133904
-0.213005
-0.29707
-0.385794
-0.478609
-0.574596
-0.672381
-0.770027
-0.864938
-0.953808
-1.03266
-1.09699
-1.14217
-1.16387
-1.15868
-1.1247
-1.06185
-0.971945
-0.858331
-0.725316
-0.577482
-0.419133
-0.253974
-0.0850556
0.0696971
0.206604
0.336348
0.45508
0.560128
0.650114
0.724844
0.785031
0.831946
0.867079
0.891874
0.907588
0.91526
0.915766
0.909914
0.898534
0.882519
0.862816
0.840364
0.816008
0.790408
0.763994
0.736955
0.709281
0.680825
0.651369
0.620671
0.588471
0.554471
0.518312
0.479555
0.437691
0.392178
0.342484
0.288128
0.228708
0.163894
0.0934254
0.0170833
-0.0653139
-0.153904
-0.24875
-0.349782
-0.45673
-0.569021
-0.685678
-0.805177
-0.925298
-1.04297
-1.15418
-1.25392
-1.33642
-1.39554
-1.42544
-1.42144
-1.38086
-1.30359
-1.19214
-1.05119
-0.886624
-0.704541
-0.510465
-0.308916
-0.103385
0.0837424
0.248003
0.403012
0.543891
0.667392
0.77202
0.857848
0.926098
0.978635
1.0175
1.04454
1.06129
1.06891
1.06833
1.06039
1.046
1.02622
1.00222
0.975157
0.946115
0.915916
0.885065
0.853741
0.821863
0.789191
0.755425
0.720266
0.683426
0.644585
0.603336
0.559158
0.511424
0.459454
0.402588
0.340243
0.271942
0.197316
0.116075
0.0279706
-0.0672266
-0.169721
-0.279659
-0.397061
-0.521736
-0.65317
-0.790399
-0.931836
-1.07507
-1.21665
-1.35185
-1.47462
-1.57774
-1.65328
-1.69349
-1.69205
-1.64522
-1.55282
-1.41832
-1.24811
-1.05014
-0.832386
-0.601755
-0.363563
-0.121567
0.098732
0.292066
0.473593
0.637224
0.779091
0.897686
0.993538
1.0686
1.12552
1.16705
1.19552
1.2127
1.21981
1.21777
1.20739
1.18963
1.16569
1.13699
1.10501
1.07109
1.03625
1.00107
0.965686
0.929905
0.893348
0.855604
0.816319
0.775196
0.731921
0.686059
0.637
0.583979
0.526155
0.462714
0.392957
0.316343
0.232476
0.141055
0.0418118
-0.0655263
-0.181246
-0.305606
-0.438755
-0.58063
-0.730837
-0.888504
-1.05209
-1.2191
-1.38581
-1.54688
-1.69518
-1.82185
-1.91682
-1.96997
-1.97277
-1.92006
-1.81151
-1.65187
-1.44985
-1.21608
-0.960866
-0.69271
-0.41766
-0.139505
0.114892
0.339424
0.549002
0.736099
0.896197
1.02792
1.13249
1.21288
1.2728
1.31583
1.34488
1.36193
1.36817
1.36437
1.35123
1.32971
1.30117
1.26733
1.23005
1.19101
1.15148
1.11209
1.07291
1.03357
0.993475
0.952084
0.908984
0.863905
0.816582
0.766578
0.71319
0.655485
0.592423
0.523004
0.446399
0.36201
0.269439
0.1684
0.058628
-0.0601934
-0.188447
-0.326531
-0.474765
-0.633263
-0.801807
-0.979703
-1.16556
-1.35697
-1.55006
-1.73902
-1.91567
-2.06931
-2.18734
-2.25664
-2.26576
-2.20758
-2.08149
-1.89394
-1.65681
-1.38424
-1.08945
-0.782737
-0.470764
-0.157036
0.132468
0.390758
0.630205
0.841569
1.01966
1.16343
1.27514
1.35914
1.42046
1.46377
1.49257
1.509
1.5141
1.50834
1.49218
1.4665
1.43286
1.39336
1.35033
1.30589
1.2616
1.21817
1.17552
1.13299
1.08975
1.04504
0.998396
0.949643
0.898625
0.844943
0.787793
0.726031
0.658364
0.583563
0.500652
0.40899
0.308209
0.198081
0.0783684
-0.0512794
-0.191356
-0.342437
-0.50505
-0.67953
-0.865892
-1.06369
-1.27183
-1.48812
-1.7088
-1.92775
-2.13581
-2.32034
-2.46574
-2.5551
-2.57315
-2.50999
-2.36452
-2.14549
-1.86906
-1.55402
-1.21724
-0.870954
-0.522257
-0.17394
0.151732
0.446816
0.718242
0.954732
1.15042
1.30486
1.42181
1.50738
1.56833
1.6106
1.63837
1.65383
1.65766
1.64986
1.63048
1.60025
1.56095
1.51518
1.46586
1.41569
1.36659
1.31933
1.27359
1.22834
1.18235
1.13463
1.08468
1.03247
0.978066
0.921164
0.860839
0.795675
0.724058
0.644472
0.555769
0.457286
0.348741
0.230009
0.10092
-0.0388986
-0.190068
-0.353381
-0.529622
-0.719381
-0.922942
-1.14019
-1.37042
-1.61191
-1.86123
-2.11226
-2.35503
-2.57487
-2.75268
-2.86688
-2.89712
-2.82962
-2.66238
-2.40726
-2.08629
-1.72443
-1.34295
-0.956205
-0.571358
-0.189944
0.172988
0.508421
0.814244
1.07674
1.2894
1.4528
1.57268
1.65747
1.71604
1.75592
1.78197
1.79625
1.79887
1.78911
1.7664
1.73123
1.68564
1.63288
1.57664
1.52033
1.46636
1.41555
1.36721
1.31977
1.2715
1.22107
1.16796
1.11241
1.05488
0.995208
0.932326
0.864456
0.789574
0.7058
0.611782
0.506872
0.390945
0.264044
0.126112
-0.0232205
-0.184729
-0.359475
-0.548547
-0.75282
-0.972868
-1.20896
-1.46091
-1.72765
-2.00642
-2.29149
-2.57241
-2.83247
-3.0486
-3.19342
-3.23999
-3.169
-2.97693
-2.67984
-2.30786
-1.89402
-1.46495
-1.03708
-0.61715
-0.204732
0.196574
0.576488
0.919445
1.20883
1.43754
1.60771
1.72781
1.80909
1.86308
1.89916
1.92292
1.93606
1.93775
1.92628
1.90023
1.85969
1.80709
1.74651
1.68259
1.61968
1.5608
1.50679
1.45645
1.40745
1.35741
1.30456
1.24834
1.18947
1.12899
1.06701
1.00223
0.932398
0.854973
0.767615
0.668713
0.557697
0.434696
0.300001
0.153729
-0.00446281
-0.17553
-0.360872
-0.561943
-0.779919
-1.01565
-1.26981
-1.54285
-1.8346
-2.14331
-2.46417
-2.78673
-3.0924
-3.35362
-3.53606
-3.60422
-3.53098
-3.3102
-2.96367
-2.53269
-2.06089
-1.58124
-1.11198
-0.658616
-0.217961
0.22287
0.652028
1.03519
1.35231
1.59575
1.77002
1.88712
1.96181
2.00875
2.03963
2.06071
2.07298
2.07427
2.06157
2.0323
1.98595
1.92549
1.85611
1.78361
1.71354
1.64972
1.59301
1.54142
1.4916
1.44036
1.38535
1.32596
1.26362
1.20029
1.13646
1.0705
0.999515
0.920321
0.82999
0.726579
0.609689
0.479841
0.337658
0.183509
0.0171155
-0.162696
-0.35776
-0.569973
-0.800812
-1.05135
-1.32265
-1.61593
-1.93208
-2.27078
-2.62881
-2.99645
-3.35353
-3.66758
-3.89603
-3.99251
-3.91884
-3.66447
-3.25896
-2.75923
-2.2227
-1.6895
-1.17909
-0.694676
-0.229273
0.252303
0.736159
1.16296
1.50856
1.76492
1.94
2.05044
2.11501
2.15221
2.17648
2.19476
2.20676
2.20843
2.19524
2.16301
2.11034
2.04102
1.96172
1.8796
1.80168
1.73292
1.67413
1.62221
1.57243
1.52066
1.46375
1.40094
1.33478
1.26861
1.20342
1.13709
1.06582
0.985691
0.893018
0.785401
0.662757
0.526201
0.376763
0.215152
0.04122
-0.14648
-0.350349
-0.572835
-0.815696
-1.08012
-1.3675
-1.6799
-2.01946
-2.38768
-2.78377
-3.19974
-3.61437
-3.98995
-4.27439
-4.40782
-4.33648
-4.04232
-3.5657
-2.98538
-2.37656
-1.78714
-1.23656
-0.724242
-0.238318
0.285355
0.830102
1.30433
1.67909
1.94592
2.11784
2.21746
2.26799
2.29246
2.30876
2.32443
2.33713
2.34025
2.32757
2.29283
2.23324
2.15385
2.06339
1.97039
1.8838
1.81012
1.75009
1.69896
1.65021
1.59865
1.54011
1.47344
1.40284
1.3337
1.26772
1.20194
1.13132
1.05117
0.956824
0.845202
0.716794
0.573579
0.417037
0.248324
0.0675259
-0.127149
-0.338859
-0.570754
-0.82483
-1.1022
-1.40447
-1.73465
-2.09625
-2.49287
-2.92725
-3.39445
-3.87304
-4.31978
-4.6719
-4.85338
-4.78854
-4.4468
-3.88354
-3.20839
-2.51911
-1.87132
-1.28246
-0.746274
-0.244771
0.322575
0.935184
1.46103
1.86549
2.13953
2.30353
2.38779
2.41992
2.42833
2.43539
2.44908
2.46388
2.46971
2.45888
2.42235
2.35503
2.26415
2.16115
2.05583
1.95953
1.881
1.8208
1.77183
1.72518
1.67475
1.61489
1.54362
1.4676
1.39526
1.32916
1.26499
1.19601
1.11685
1.02158
0.906018
0.771669
0.621767
0.45818
0.282659
0.095682
-0.104981
-0.323506
-0.563966
-0.828527
-1.11793
-1.4338
-1.78021
-2.1621
-2.58531
-3.05735
-3.57818
-4.12728
-4.65564
-5.08893
-5.33273
-5.28071
-4.8815
-4.21168
-3.4247
-2.64644
-1.93907
-1.31497
-0.759841
-0.248355
0.364602
1.05283
1.63489
2.06952
2.34643
2.49687
2.56098
2.56989
2.55853
2.55517
2.56805
2.58686
2.59681
2.58953
2.5523
2.47616
2.37201
2.2551
2.13574
2.02844
1.94515
1.88619
1.84107
1.79763
1.74939
1.68865
1.61167
1.5288
1.4529
1.38754
1.32624
1.25989
1.18285
1.08751
0.967889
0.827219
0.670553
0.499883
0.317757
0.125313
-0.0802496
-0.304487
-0.55271
-0.827148
-1.12775
-1.4558
-1.81676
-2.2169
-2.66404
-3.17212
-3.74829
-4.37451
-4.9956
-5.52519
-5.84961
-5.82001
-5.35069
-4.54864
-3.62982
-2.7542
-1.9874
-1.33241
-0.764186
-0.24886
0.412201
1.18452
1.8278
2.29315
2.56714
2.69736
2.73657
2.71697
2.68159
2.66678
2.68075
2.70606
2.72146
2.71988
2.68359
2.59706
2.47747
2.34538
2.20998
2.09
2.00209
1.94623
1.90697
1.86778
1.82303
1.76212
1.67782
1.58606
1.50612
1.44264
1.38572
1.32291
1.24926
1.15494
1.03086
0.883231
0.719738
0.541833
0.353186
0.156019
-0.0532231
-0.281963
-0.537205
-0.8211
-1.13216
-1.47088
-1.84463
-2.2608
-2.72831
-3.26956
-3.9019
-4.61185
-5.33725
-5.97948
-6.4079
-6.41523
-5.85953
-4.89198
-3.81815
-2.83757
-2.01339
-1.3334
-0.758775
-0.246158
0.46633
1.33179
2.04169
2.53864
2.80198
2.90413
2.91421
2.86022
2.79587
2.76875
2.78665
2.82169
2.84347
2.85028
2.81746
2.71814
2.58038
2.43226
2.27841
2.14356
2.05124
2.00089
1.96998
1.93578
1.89613
1.83624
1.74231
1.63886
1.55428
1.49423
1.44358
1.38496
1.31619
1.22435
1.09497
0.939416
0.769155
0.583724
0.388473
0.187379
-0.0241548
-0.256042
-0.51764
-0.810823
-1.13182
-1.47952
-1.86426
-2.2943
-2.77757
-3.34767
-4.03596
-4.83626
-5.67771
-6.44924
-7.01139
-7.07752
-6.41421
-5.23788
-3.98284
-2.89142
-2.01441
-1.31693
-0.743345
-0.240217
0.528252
1.49614
2.27842
2.80872
3.05091
3.11578
3.09377
2.99877
2.89953
2.85945
2.88533
2.93426
2.96241
2.98096
2.95553
2.83973
2.68036
2.51621
2.34099
2.18835
2.0919
2.05023
2.03073
2.00163
1.96908
1.91228
1.80542
1.6865
1.59663
1.54216
1.5001
1.44583
1.38369
1.29639
1.16024
0.995368
0.818704
0.625269
0.4231
0.218946
0.00671939
-0.226762
-0.494155
-0.79679
-1.12745
-1.48218
-1.87619
-2.31828
-2.81156
-3.4045
-4.14723
-5.04463
-6.01384
-6.93013
-7.6635
-7.82115
-7.02221
-5.58055
-4.11558
-2.91051
-1.98823
-1.28245
-0.717936
-0.231104
0.59972
1.67896
2.53964
3.10683
3.31347
3.33018
3.27556
3.13184
2.99047
2.93706
2.9765
3.04478
3.07748
3.11201
3.10005
2.96204
2.77663
2.59802
2.3977
2.22342
2.1232
2.09434
2.09015
2.06507
2.0422
1.9919
1.86744
1.72803
1.63224
1.58627
1.55585
1.50513
1.4517
1.37203
1.22662
1.0505
0.868405
0.666204
0.456487
0.250248
0.0391817
-0.194073
-0.466823
-0.779496
-1.11994
-1.47929
-1.88094
-2.33414
-2.83027
-3.43812
-4.23224
-5.23395
-6.3426
-7.41527
-8.3667
-8.66452
-7.69248
-5.91146
-4.20657
-2.88965
-1.93326
-1.22994
-0.682896
-0.218984
0.683259
1.88142
2.82655
3.43748
3.58856
3.54423
3.46067
3.2588
3.06631
2.99954
3.06004
3.15498
3.18728
3.24321
3.2542
3.08498
2.86783
2.67899
2.44863
2.24758
2.14411
2.13341
2.14961
2.12547
2.11559
2.07743
1.92864
1.76224
1.65999
1.62648
1.61173
1.56218
1.52006
1.45268
1.29398
1.10398
0.918475
0.7063
0.487974
0.280791
0.073029
-0.15782
-0.43564
-0.759448
-1.11036
-1.47118
-1.87897
-2.34388
-2.83404
-3.44673
-4.28729
-5.40148
-6.66153
-7.89453
-9.12178
-9.63156
-8.43573
-6.21827
-4.24453
-2.82413
-1.8487
-1.15997
-0.638876
-0.204113
0.78261
2.10428
3.13955
3.80684
3.87422
3.75344
3.65136
3.37912
3.1243
3.04457
3.13595
3.26759
3.28955
3.37388
3.42244
3.2081
2.95176
2.76122
2.49395
2.25941
2.15338
2.16766
2.21114
2.18157
2.18905
2.172
1.98919
1.78753
1.67858
1.66277
1.66918
1.61588
1.58835
1.54036
1.36201
1.1546
0.96944
0.745354
0.516797
0.310065
0.108064
-0.117722
-0.400503
-0.737143
-1.10007
-1.45799
-1.87049
-2.35027
-2.82348
-3.42861
-4.30829
-5.54481
-6.96964
-8.35349
-9.92679
-10.7535
-9.2646
-6.48347
-4.21686
-2.71002
-1.73469
-1.07367
-0.586798
-0.186824
0.903366
2.34768
3.47776
4.22348
4.16728
3.95153
3.8517
3.49234
3.16125
3.06954
3.20428
3.38687
3.38075
3.5026
3.61112
3.33027
3.02508
2.84797
2.53382
2.25712
2.14953
2.19733
2.27771
2.23131
2.26188
2.27996
2.04909
1.80192
1.68651
1.69513
1.73044
1.6645
1.65582
1.63798
1.43014
1.20065
1.02229
0.783175
0.542052
0.337559
0.144081
-0.0733529
-0.361208
-0.713036
-1.09075
-1.43961
-1.85525
-2.35707
-2.79943
-3.38226
-4.29064
-5.66197
-7.2686
-8.77234
-10.7755
-12.0713
-10.1938
-6.68268
-4.11006
-2.5447
-1.59243
-0.972736
-0.52781
-0.167506
1.05388
2.61081
3.83835
4.69943
4.46294
4.12975
4.06838
3.59787
3.17343
3.07152
3.26499
3.51918
3.45559
3.62699
3.82919
3.44946
3.0828
2.94417
2.56833
2.23859
2.13081
2.22256
2.35362
2.27142
2.33274
2.40727
2.10794
1.80293
1.68211
1.7235
1.79881
1.70546
1.72122
1.7497
1.49737
1.23974
1.07871
0.819537
0.562662
0.362786
0.180838
-0.0241161
-0.317448
-0.687482
-1.08462
-1.41558
-1.83236
-2.36933
-2.76284
-3.30646
-4.229
-5.75126
-7.56444
-9.12459
-11.6556
-13.6381
-11.2404
-6.78243
-3.91054
-2.32734
-1.42423
-0.859318
-0.463219
-0.146588
1.24651
2.89156
4.21556
5.2516
4.75422
4.27615
4.31175
3.69471
3.15656
3.04729
3.31767
3.6738
3.50638
3.74321
4.08919
3.56229
3.11784
3.05714
2.59725
2.20124
2.09528
2.2432
2.44507
2.2971
2.39934
2.56206
2.16472
1.78761
1.66355
1.74762
1.8791
1.73499
1.78264
1.88136
1.56213
1.26858
1.14133
0.854108
0.577334
0.385325
0.218019
0.0307798
-0.268821
-0.66065
-1.08462
-1.38502
-1.79983
-2.39373
-2.71459
-3.20047
-4.11703
-5.81093
-7.86971
-9.3756
-12.5456
-15.5238
-12.4234
-6.73759
-3.60582
-2.05936
-1.23349
-0.735935
-0.394428
-0.12451
1.49927
3.18598
4.59956
5.9036
5.03121
4.37461
4.59725
3.78094
3.10576
2.99344
3.36111
3.86398
3.52227
3.84553
4.40839
3.66351
3.12032
3.19744
2.61974
2.14208
2.04077
2.25859
2.56081
2.30143
2.45813
2.75536
2.21738
1.7525
1.62898
1.76687
1.97817
1.74772
1.83724
2.04105
1.62199
1.2827
1.21416
0.886323
0.584512
0.404883
0.255185
0.092358
-0.214865
-0.632396
-1.09461
-1.34653
-1.75425
-2.43913
-2.65511
-3.06429
-3.94711
-5.83849
-8.20634
-9.48109
-13.4122
-17.8184
-13.7636
-6.48821
-3.18624
-1.74484
-1.02455
-0.605331
-0.322856
-0.101709
1.83797
3.48772
4.97487
6.68799
5.28012
4.40376
4.94708
3.85297
3.01556
2.90645
3.39266
4.10829
3.4883
3.92565
4.81031
3.7454
3.07684
3.38002
2.63385
2.05767
1.96505
2.26707
2.713
2.2748
2.50397
3.00196
2.26233
1.69369
1.57659
1.77985
2.10556
1.73624
1.88101
2.2398
1.67332
1.2762
1.30296
0.915206
0.582345
0.421376
0.291695
0.161917
-0.155114
-0.602076
-1.1197
-1.29822
-1.69018
-2.51721
-2.58394
-2.89905
-3.71005
-5.82962
-8.60905
-9.38558
-14.2058
-20.6382
-15.2833
-5.95598
-2.64746
-1.39076
-0.80249
-0.47033
-0.249882
-0.0785935
2.29883
3.78725
5.31848
7.64907
5.48221
4.33565
5.39231
3.90448
2.88006
2.78302
3.40731
4.43222
3.38434
3.97203
5.32645
3.79691
2.96957
3.62556
2.63585
1.94427
1.86596
2.26544
2.91832
2.20422
2.52963
3.32144
2.29376
1.60693
1.50482
1.78398
2.27437
1.6905
1.90839
2.49242
1.71097
1.24131
1.41591
0.939112
0.568652
0.435035
0.326614
0.241094
-0.0891912
-0.568307
-1.16663
-1.23758
-1.59949
-2.64328
-2.49909
-2.70751
-3.39489
-5.77652
-9.12956
-9.02086
-14.8557
-24.1316
-17.0051
-5.04011
-1.99353
-1.00697
-0.572825
-0.33368
-0.176777
-0.055536
2.93176
4.07105
5.59765
8.84616
5.61238
4.13431
5.97538
3.9251
2.69315
2.6204
3.39655
4.87013
3.18381
3.96898
5.99831
3.80275
2.77528
3.96211
2.61934
1.79792
1.74167
2.24822
3.19916
2.07245
2.52534
3.73944
2.30275
1.48781
1.41262
1.77488
2.5022
1.59719
1.91194
2.81842
1.7277
1.16812
1.56418
0.955392
0.540913
0.446542
0.358591
0.33194
-0.0169485
-0.528645
-1.2441
-1.1616
-1.47062
-2.83729
-2.39616
-2.49475
-2.98877
-5.6657
-9.84132
-8.30464
-15.2644
-28.4863
-18.9508
-3.61292
-1.24083
-0.605815
-0.341148
-0.197923
-0.104664
-0.0328578
3.80409
4.32054
5.76727
10.3574
5.63759
3.75412
6.75293
3.89854
2.44888
2.4169
3.34685
5.46755
2.85235
3.89571
6.87962
3.74227
2.4643
4.42695
2.57408
1.61471
1.59099
2.20663
3.58516
1.85713
2.47821
4.28904
2.27622
1.33209
1.29971
1.74552
2.81234
1.43899
1.88189
3.24307
1.71368
1.04411
1.76276
0.959962
0.496282
0.457186
0.385707
0.437034
0.061344
-0.479197
-1.3633
-1.06682
-1.28759
-3.12502
-2.26723
-2.26894
-2.477
-5.47498
-10.8449
-7.1394
-15.3013
-33.937
-21.1394
-1.51516
-0.422855
-0.201268
-0.112738
-0.0652793
-0.0344915
-0.0108253
)
;

boundaryField
{
    left
    {
        type            calculated;
        value           uniform 0;
    }
    right
    {
        type            calculated;
        value           uniform 0;
    }
    interface
    {
        type            calculated;
        value           nonuniform List<scalar> 
64
(
3.80409
4.32054
5.76727
10.3574
5.63759
3.75412
6.75293
3.89854
2.44888
2.4169
3.34685
5.46755
2.85235
3.89571
6.87962
3.74227
2.4643
4.42695
2.57408
1.61471
1.59099
2.20663
3.58516
1.85713
2.47821
4.28904
2.27622
1.33209
1.29971
1.74552
2.81234
1.43899
1.88189
3.24307
1.71368
1.04411
1.76276
0.959962
0.496282
0.457186
0.385707
0.437034
0.061344
-0.479197
-1.3633
-1.06682
-1.28759
-3.12502
-2.26723
-2.26894
-2.477
-5.47498
-10.8449
-7.1394
-15.3013
-33.937
-21.1394
-1.51516
-0.422855
-0.201268
-0.112738
-0.0652793
-0.0344915
-0.0108253
)
;
    }
    bottom
    {
        type            calculated;
        value           nonuniform List<scalar> 
64
(
0.00630511
0.0187347
0.030639
0.0417205
0.05175
0.0605783
0.068135
0.0744179
0.0794766
0.0833942
0.0862703
0.0882094
0.0893133
0.0896791
0.089399
0.0885623
0.0872557
0.085563
0.0835617
0.0813205
0.078895
0.076326
0.0736384
0.0708422
0.0679353
0.0649055
0.0617332
0.0583929
0.0548538
0.0510798
0.0470308
0.042663
0.0379313
0.0327912
0.0272006
0.0211221
0.0145234
0.00737832
-0.000332704
-0.00862133
-0.0174891
-0.0269237
-0.0368937
-0.0473418
-0.0581764
-0.0692627
-0.0804136
-0.091382
-0.101857
-0.111465
-0.119783
-0.12636
-0.130754
-0.13257
-0.131512
-0.127416
-0.120277
-0.110248
-0.0976156
-0.0827651
-0.0661296
-0.0481502
-0.0292469
-0.00980737
)
;
    }
    defaultFaces
    {
        type            empty;
    }
}


// ************************************************************************* //
