/*--------------------------------*- C++ -*----------------------------------*\
| =========                 |                                                 |
| \\      /  F ield         | OpenFOAM: The Open Source CFD Toolbox           |
|  \\    /   O peration     | Version:  5.x                                   |
|   \\  /    A nd           | Web:      www.OpenFOAM.org                      |
|    \\/     M anipulation  |                                                 |
\*---------------------------------------------------------------------------*/
FoamFile
{
    version     2.0;
    format      ascii;
    class       volScalarField;
    location    "9.8";
    object      gradTy;
}
// * * * * * * * * * * * * * * * * * * * * * * * * * * * * * * * * * * * * * //

dimensions      [0 -1 0 1 0 0 0];

internalField   nonuniform List<scalar> 
3200
(
18.2483
8.63558
11.7295
8.31218
9.74953
8.03961
8.79377
7.79256
8.24145
7.60062
7.87602
7.51714
7.7276
7.31728
7.52952
7.13927
7.33843
6.97989
7.16165
6.83776
7.00107
6.71216
6.85722
6.60213
6.73012
6.50601
6.62024
6.42066
6.53561
6.36653
6.23143
6.31855
6.20012
6.25775
6.16565
6.21027
6.13633
6.17222
6.11214
6.14131
6.09231
6.11608
6.07618
6.09546
6.06321
6.07863
6.05311
6.06499
6.04591
6.05407
6.04302
6.04914
6.03761
6.04297
6.03408
6.03768
6.0328
6.03382
6.03452
6.03183
6.04061
6.03225
6.05363
6.03579
6.0786
6.04273
6.12648
6.0483
6.22313
6.00069
6.29312
7.10895
6.42159
7.94784
6.78063
9.89664
9.12593
9.00807
8.98374
8.9785
17.0088
9.75149
11.3319
8.77617
9.54679
8.2698
8.67356
7.9251
8.1643
7.68484
7.83188
7.564
7.67616
7.36877
7.48089
7.18854
7.29385
7.02529
7.12142
6.87883
6.96523
6.74884
6.82559
6.63455
6.7023
6.53448
6.59512
6.44585
6.50817
6.37032
6.25631
6.30418
6.21573
6.24645
6.17752
6.20118
6.14582
6.16483
6.11984
6.13529
6.0986
6.11118
6.0813
6.09151
6.06736
6.07552
6.0564
6.06268
6.04839
6.05273
6.04447
6.04773
6.03908
6.04191
6.03524
6.03713
6.03347
6.034
6.03451
6.03307
6.03962
6.03515
6.05113
6.04158
6.07355
6.05425
6.11668
6.07388
6.20333
6.07611
6.35161
6.99363
6.62345
7.76514
7.15808
9.50326
9.09977
9.00428
8.98293
8.97824
16.0595
10.5138
11.0997
9.10705
9.42589
8.43271
8.59938
8.01809
8.11584
7.74393
7.80428
7.59561
7.64145
7.40342
7.44838
7.22186
7.26416
7.05605
7.0947
6.9067
6.94145
6.77375
6.80463
6.65656
6.68385
6.55377
6.57834
6.46253
6.48869
6.37313
6.27468
6.29524
6.22655
6.23912
6.18566
6.19523
6.15232
6.15998
6.12511
6.13134
6.10289
6.10796
6.0848
6.08891
6.07019
6.07348
6.05866
6.06119
6.05011
6.05188
6.04545
6.04677
6.04008
6.04121
6.03605
6.0368
6.03397
6.03417
6.03457
6.03397
6.03907
6.03723
6.04964
6.0457
6.07055
6.06248
6.11107
6.09257
6.1938
6.13541
6.39544
6.91881
6.76484
7.65242
7.41745
9.21988
9.06133
8.99757
8.98149
8.97784
15.3321
11.0309
10.9707
9.34547
9.35748
8.54923
8.55512
8.08391
8.08616
7.78574
7.78744
7.61703
7.61809
7.42675
7.42673
7.24442
7.24449
7.07693
7.07704
6.92565
6.92576
6.79071
6.79083
6.67157
6.6717
6.56688
6.56719
6.47354
6.47488
6.37525
6.28829
6.28987
6.23412
6.23443
6.19129
6.19138
6.15678
6.15684
6.12873
6.12877
6.10584
6.10587
6.08721
6.08723
6.07215
6.07216
6.06023
6.06024
6.05133
6.05135
6.04612
6.04614
6.04077
6.04076
6.03662
6.03661
6.03434
6.03433
6.03468
6.03465
6.03879
6.03873
6.0488
6.04866
6.06886
6.06846
6.10815
6.10646
6.19065
6.18198
6.42874
6.87109
6.86457
7.58459
7.59533
9.01493
9.0191
8.98895
8.97956
8.97729
14.7766
11.3783
10.9042
9.51839
9.32187
8.63318
8.52994
8.1308
8.06859
7.81546
7.77749
7.63159
7.60243
7.44244
7.41237
7.25969
7.23153
7.09111
7.06544
6.93855
6.91549
6.80227
6.78179
6.68179
6.66375
6.57577
6.55979
6.48075
6.46511
6.37687
6.29836
6.28678
6.23944
6.23147
6.19518
6.18892
6.15987
6.15482
6.13122
6.12711
6.10788
6.10453
6.08887
6.08615
6.0735
6.07132
6.06132
6.05964
6.05218
6.05104
6.04658
6.04573
6.04125
6.04048
6.03702
6.03651
6.03463
6.03447
6.03479
6.03516
6.03868
6.03983
6.04838
6.05082
6.06799
6.07283
6.10688
6.11692
6.19121
6.21833
6.45422
6.84132
6.93524
7.54514
7.71685
8.8666
8.97824
8.9795
8.97734
8.97665
14.3572
11.6088
10.8742
9.64375
9.30595
8.69371
8.5166
8.1642
8.05866
7.83657
7.77185
7.64149
7.592
7.45292
7.40291
7.26998
7.22306
7.1007
7.05789
6.94729
6.90881
6.81012
6.77594
6.68874
6.65859
6.58179
6.55491
6.48542
6.45825
6.3781
6.30576
6.28513
6.24319
6.22965
6.19787
6.18737
6.16199
6.15354
6.13294
6.12607
6.10928
6.10368
6.09001
6.08547
6.07443
6.0708
6.06207
6.05928
6.05278
6.05086
6.0469
6.04545
6.04158
6.04031
6.03731
6.03646
6.03484
6.0346
6.03491
6.03554
6.03867
6.04063
6.04819
6.05238
6.06762
6.07603
6.10657
6.12481
6.19366
6.24632
6.47364
6.82327
6.98527
7.52322
7.79926
8.7598
8.9418
8.97019
8.97507
8.97599
14.0476
11.7587
10.864
9.7334
9.30101
8.73683
8.51027
8.18773
8.05339
7.85139
7.76884
7.64814
7.58515
7.45984
7.39677
7.27683
7.2176
7.10711
7.05304
6.95314
6.90455
6.81538
6.77221
6.6934
6.6553
6.58581
6.55173
6.4884
6.4535
6.37901
6.31108
6.28433
6.2458
6.22855
6.19971
6.18641
6.16343
6.15274
6.1341
6.12541
6.11023
6.10315
6.09079
6.08505
6.07507
6.07048
6.06259
6.05906
6.0532
6.05076
6.04711
6.04528
6.0418
6.04021
6.03751
6.03645
6.035
6.0347
6.03501
6.03582
6.0387
6.04121
6.04814
6.0535
6.06753
6.07835
6.10676
6.13067
6.19676
6.26733
6.48818
6.81274
7.02027
7.51177
7.85428
8.68414
8.91151
8.96182
8.97295
8.97536
13.8296
11.8529
10.8633
9.79512
9.30134
8.76645
8.50777
8.20374
8.05083
7.86143
7.76735
7.65249
7.5808
7.46427
7.3929
7.28125
7.21419
7.11126
7.05003
6.95694
6.90191
6.8188
6.76991
6.69644
6.65327
6.58842
6.54973
6.49024
6.45034
6.37966
6.31475
6.28401
6.24756
6.22792
6.20093
6.18584
6.16438
6.15226
6.13487
6.12502
6.11085
6.10283
6.0913
6.0848
6.07549
6.07029
6.06294
6.05894
6.05348
6.05071
6.04725
6.04517
6.04194
6.04015
6.03765
6.03645
6.03511
6.03478
6.03509
6.03602
6.03875
6.04161
6.04816
6.05427
6.06756
6.07996
6.10713
6.13485
6.19968
6.28233
6.49856
6.80688
7.0439
7.50628
7.88981
8.63257
8.8883
8.95502
8.97118
8.97484
13.6907
11.9076
10.8657
9.83386
9.30331
8.78502
8.50709
8.21369
8.04972
7.86766
7.76669
7.65512
7.57824
7.46689
7.39064
7.28388
7.21221
7.11375
7.0483
6.95922
6.90039
6.82086
6.76859
6.69826
6.6521
6.58997
6.54855
6.49129
6.4484
6.38008
6.31706
6.28391
6.24865
6.22758
6.20167
6.18552
6.16496
6.152
6.13534
6.1248
6.11123
6.10265
6.09161
6.08466
6.07574
6.07018
6.06315
6.05887
6.05365
6.05068
6.04734
6.04511
6.04203
6.04011
6.03773
6.03645
6.03518
6.03483
6.03515
6.03615
6.03879
6.04186
6.04819
6.05476
6.06762
6.08098
6.10747
6.13754
6.20189
6.29199
6.50527
6.80387
7.05852
7.50395
7.91097
8.60049
8.87265
8.95024
8.96992
8.97445
13.623
11.9326
10.8677
9.85256
9.30479
8.79398
8.50703
8.21847
8.04934
7.87064
7.76645
7.65635
7.57705
7.46811
7.3896
7.28511
7.21131
7.11491
7.0475
6.96028
6.8997
6.82182
6.76799
6.69911
6.65156
6.5907
6.54801
6.49177
6.44749
6.38028
6.31817
6.28389
6.24917
6.22743
6.20202
6.18538
6.16523
6.15188
6.13556
6.12471
6.11141
6.10258
6.09176
6.08459
6.07586
6.07014
6.06325
6.05884
6.05373
6.05067
6.04738
6.04508
6.04207
6.0401
6.03777
6.03645
6.03522
6.03486
6.03518
6.03621
6.03881
6.04198
6.04821
6.055
6.06767
6.08147
6.10767
6.13886
6.20307
6.29671
6.50855
6.80262
7.06551
7.50315
7.92084
8.58511
8.86478
8.94778
8.96926
8.97425
-13.7633
-11.9578
-10.7288
-9.38959
-8.57918
-7.68734
-7.12539
-6.47352
-6.05848
-5.57638
-5.28293
-4.95728
-4.71964
-4.39109
-4.15538
-3.84363
-3.62577
-3.34451
-3.15022
-2.90202
-2.73143
-2.51452
-2.36568
-2.17664
-2.04659
-1.88058
-1.76398
-1.60993
-1.48745
-1.29971
-1.12391
-1.02525
-0.922853
-0.857479
-0.779323
-0.727165
-0.662634
-0.619075
-0.564678
-0.527837
-0.481704
-0.450451
-0.411323
-0.384876
-0.351877
-0.329747
-0.302428
-0.284523
-0.263107
-0.249891
-0.234987
-0.224009
-0.208719
-0.197701
-0.18307
-0.172819
-0.159553
-0.150378
-0.138647
-0.130598
-0.120394
-0.113474
-0.104839
-0.0992193
-0.0926529
-0.0892944
-0.0872472
-0.090685
-0.104931
-0.138836
-0.228899
-0.374971
-0.529521
-0.815959
-1.1186
-1.62769
-1.84305
-1.90704
-1.92361
-1.92746
-13.8355
-11.9347
-10.7332
-9.36844
-8.58244
-7.67415
-7.129
-6.46405
-6.06116
-5.56884
-5.28422
-4.95376
-4.72328
-4.38738
-4.15843
-3.83988
-3.62831
-3.34104
-3.15238
-2.89892
-2.73329
-2.5118
-2.36729
-2.17429
-2.04803
-1.87861
-1.76548
-1.60867
-1.49007
-1.29923
-1.12083
-1.0254
-0.921374
-0.857992
-0.778286
-0.727662
-0.661797
-0.619511
-0.563977
-0.528211
-0.481111
-0.450768
-0.410817
-0.38514
-0.351444
-0.329956
-0.302053
-0.284664
-0.262781
-0.249959
-0.234831
-0.224183
-0.208549
-0.197847
-0.182896
-0.172941
-0.15939
-0.150481
-0.138501
-0.130685
-0.120264
-0.113543
-0.10472
-0.0992578
-0.0925253
-0.0892426
-0.0870284
-0.0902533
-0.104145
-0.13659
-0.226659
-0.374632
-0.524246
-0.815312
-1.11034
-1.63944
-1.8491
-1.90894
-1.92412
-1.92762
-13.9838
-11.8837
-10.7441
-9.32415
-8.5906
-7.64644
-7.1374
-6.4441
-6.06743
-5.55299
-5.28735
-4.94625
-4.73115
-4.3794
-4.16506
-3.83186
-3.63388
-3.33363
-3.15714
-2.89231
-2.73738
-2.506
-2.37085
-2.16927
-2.0512
-1.87439
-1.76874
-1.60588
-1.49558
-1.29827
-1.11443
-1.0259
-0.918273
-0.859162
-0.776087
-0.728771
-0.66002
-0.620479
-0.562489
-0.52904
-0.479849
-0.451471
-0.409742
-0.385726
-0.350524
-0.330424
-0.301259
-0.284987
-0.262093
-0.250122
-0.234497
-0.224558
-0.208183
-0.198164
-0.182523
-0.173207
-0.159043
-0.150708
-0.138189
-0.130878
-0.119986
-0.113698
-0.104466
-0.099348
-0.0922605
-0.0891488
-0.0865927
-0.0893955
-0.102618
-0.13204
-0.222103
-0.374228
-0.513312
-0.814505
-1.09272
-1.66396
-1.86115
-1.91262
-1.92509
-1.92791
-14.2161
-11.7943
-10.7663
-9.25241
-8.60719
-7.60133
-7.15317
-6.41149
-6.07922
-5.5272
-5.29351
-4.9337
-4.74448
-4.36593
-4.17646
-3.81843
-3.64355
-3.32127
-3.16543
-2.88131
-2.74454
-2.49637
-2.37707
-2.16091
-2.05673
-1.86732
-1.77428
-1.601
-1.50457
-1.29676
-1.10422
-1.02717
-0.913234
-0.861292
-0.772461
-0.730741
-0.657077
-0.622187
-0.56002
-0.530501
-0.477757
-0.45271
-0.407961
-0.386762
-0.349002
-0.331255
-0.299951
-0.285577
-0.26097
-0.250432
-0.233937
-0.225191
-0.207564
-0.198706
-0.181899
-0.173669
-0.158464
-0.151104
-0.13767
-0.131214
-0.119525
-0.113971
-0.104049
-0.0995178
-0.0918374
-0.0890335
-0.0859434
-0.0881215
-0.100443
-0.125064
-0.215065
-0.374346
-0.495895
-0.814618
-1.06337
-1.70345
-1.87902
-1.91786
-1.92645
-1.92832
-14.5452
-11.6491
-10.8079
-9.14592
-8.63821
-7.53392
-7.18069
-6.36252
-6.0998
-5.48868
-5.30471
-4.91434
-4.76539
-4.3449
-4.1946
-3.79768
-3.65912
-3.30225
-3.17886
-2.86442
-2.75616
-2.48158
-2.38716
-2.14808
-2.06567
-1.85641
-1.78304
-1.59304
-1.51802
-1.29465
-1.0894
-1.02991
-0.905718
-0.864902
-0.766954
-0.73399
-0.652585
-0.624989
-0.556249
-0.532893
-0.474559
-0.45474
-0.405239
-0.388462
-0.346681
-0.332631
-0.297967
-0.286577
-0.259286
-0.250981
-0.233069
-0.226181
-0.206596
-0.199569
-0.180932
-0.174411
-0.157572
-0.151743
-0.136872
-0.131761
-0.11882
-0.114419
-0.103417
-0.0998144
-0.09122
-0.0889304
-0.0850841
-0.0864425
-0.0977771
-0.115474
-0.205257
-0.375973
-0.47059
-0.81753
-1.01838
-1.76152
-1.90236
-1.92432
-1.92808
-1.92879
-14.9902
-11.4218
-10.8823
-8.99327
-8.6931
-7.43646
-7.22681
-6.29133
-6.13432
-5.43309
-5.32418
-4.88533
-4.79717
-4.31306
-4.22261
-3.7666
-3.68342
-3.27391
-3.19994
-2.83929
-2.77443
-2.45958
-2.40305
-2.12898
-2.07969
-1.84006
-1.79647
-1.58049
-1.5374
-1.29182
-1.06874
-1.03525
-0.89487
-0.870799
-0.758849
-0.73918
-0.645943
-0.629438
-0.550664
-0.536686
-0.469823
-0.457958
-0.401211
-0.391163
-0.343253
-0.334832
-0.295054
-0.288215
-0.256843
-0.251917
-0.231761
-0.22768
-0.205127
-0.200896
-0.179482
-0.175567
-0.15624
-0.152745
-0.135686
-0.132621
-0.117774
-0.115133
-0.10249
-0.100311
-0.0903512
-0.0888903
-0.0840172
-0.0843651
-0.0948571
-0.103001
-0.192211
-0.380645
-0.435193
-0.826285
-0.951688
-1.84368
-1.93046
-1.93149
-1.92983
-1.9293
-15.5779
-11.0732
-11.0108
-8.77707
-8.78625
-7.29714
-7.30197
-6.189
-6.19062
-5.3538
-5.35684
-4.84229
-4.84479
-4.26549
-4.26525
-3.72061
-3.72079
-3.23215
-3.23249
-2.80234
-2.80271
-2.42726
-2.42764
-2.1009
-2.10132
-1.81588
-1.81679
-1.56103
-1.56489
-1.28809
-1.04051
-1.04486
-0.879373
-0.880214
-0.747056
-0.747315
-0.636234
-0.636381
-0.542489
-0.542597
-0.462889
-0.462974
-0.395316
-0.395382
-0.338247
-0.33829
-0.290824
-0.290836
-0.253345
-0.253463
-0.229812
-0.229919
-0.202926
-0.202913
-0.177333
-0.17734
-0.154277
-0.154291
-0.13394
-0.133954
-0.116241
-0.116247
-0.101145
-0.101121
-0.0891431
-0.0889874
-0.0827422
-0.0818826
-0.0920317
-0.0872863
-0.175197
-0.390672
-0.386334
-0.845668
-0.854336
-1.95804
-1.96199
-1.93878
-1.93154
-1.92979
-16.3458
-10.547
-11.2261
-8.47116
-8.93933
-7.09806
-7.42185
-6.0421
-6.28046
-5.24092
-5.41022
-4.77858
-4.91569
-4.19476
-4.32967
-3.65284
-3.77771
-3.17083
-3.28226
-2.74816
-2.84603
-2.37992
-2.46532
-2.05973
-2.1344
-1.78025
-1.84739
-1.53119
-1.60361
-1.28319
-1.00221
-1.06127
-0.857225
-0.894991
-0.729929
-0.759906
-0.622078
-0.647088
-0.530557
-0.551702
-0.452765
-0.470701
-0.386714
-0.401889
-0.330955
-0.343649
-0.284698
-0.294959
-0.248343
-0.255961
-0.226913
-0.233244
-0.199648
-0.205953
-0.174162
-0.180037
-0.151391
-0.156653
-0.131381
-0.135998
-0.114
-0.117967
-0.0991984
-0.102409
-0.087463
-0.0893288
-0.0812525
-0.0789604
-0.0898025
-0.0678656
-0.15308
-0.409492
-0.318928
-0.883078
-0.713183
-2.1164
-1.99461
-1.94543
-1.93302
-1.93021
-17.3457
-9.76173
-11.5787
-8.03633
-9.1848
-6.81239
-7.60988
-5.83048
-6.42142
-5.0797
-5.49564
-4.68412
-5.02092
-4.08979
-4.42657
-3.553
-3.8639
-3.08078
-3.35786
-2.66871
-2.91191
-2.31051
-2.52265
-1.99936
-2.18463
-1.72777
-1.89332
-1.48581
-1.65805
-1.27672
-0.950303
-1.08821
-0.825408
-0.917885
-0.705003
-0.779212
-0.601412
-0.663458
-0.513119
-0.565613
-0.437968
-0.482507
-0.374148
-0.411843
-0.32032
-0.351876
-0.275804
-0.301358
-0.241173
-0.259927
-0.222601
-0.238167
-0.194774
-0.210518
-0.169486
-0.184116
-0.14715
-0.160236
-0.127628
-0.139106
-0.110721
-0.120597
-0.096373
-0.104424
-0.0851111
-0.0900686
-0.0795321
-0.0755135
-0.0888852
-0.0441594
-0.124116
-0.442191
-0.225334
-0.949849
-0.509104
-2.33576
-2.02432
-1.9506
-1.93412
-1.93051
-18.6493
-8.6007
-12.146
-7.41419
-9.57143
-6.40024
-7.90131
-5.52437
-6.64002
-4.84849
-5.63049
-4.54405
-5.17718
-3.93443
-4.5722
-3.40609
-3.99417
-2.94863
-3.47241
-2.55225
-3.01186
-2.20884
-2.60966
-1.91091
-2.2608
-1.65063
-1.96242
-1.41746
-1.73486
-1.26826
-0.880017
-1.13136
-0.779555
-0.953168
-0.668755
-0.80876
-0.5713
-0.688474
-0.487706
-0.586867
-0.41641
-0.500555
-0.355855
-0.427082
-0.304868
-0.364514
-0.262943
-0.311284
-0.230936
-0.266227
-0.216258
-0.245533
-0.187614
-0.217434
-0.162656
-0.190332
-0.140975
-0.165715
-0.122172
-0.143871
-0.105969
-0.124647
-0.0923085
-0.107585
-0.0818356
-0.0914754
-0.0775933
-0.0714134
-0.0903281
-0.0155023
-0.0856539
-0.496298
-0.0940956
-1.06322
-0.214322
-2.64061
-2.04449
-1.95346
-1.93468
-1.93064
18.6493
8.6007
12.146
7.41419
9.57143
6.40024
7.90131
5.52437
6.64002
4.84849
5.63049
4.54405
5.17718
3.93443
4.57219
3.40608
3.99417
2.94862
3.47241
2.55225
3.01186
2.20883
2.60966
1.9109
2.2608
1.65063
1.96242
1.41746
1.73486
1.26826
0.880016
1.13136
0.779554
0.953168
0.668754
0.80876
0.571299
0.688473
0.487705
0.586867
0.416409
0.500555
0.355854
0.427081
0.304868
0.364514
0.262942
0.311283
0.230936
0.266226
0.216257
0.245533
0.187614
0.217433
0.162656
0.190332
0.140974
0.165715
0.122172
0.143871
0.105968
0.124647
0.0923083
0.107585
0.0818354
0.0914755
0.0775931
0.0714135
0.0903279
0.0155024
0.0856537
0.496297
0.0940956
1.06322
0.214323
2.64061
2.04449
1.95346
1.93468
1.93064
17.3457
9.76174
11.5787
8.03633
9.18481
6.81239
7.60988
5.83048
6.42143
5.0797
5.49565
4.68412
5.02092
4.0898
4.42657
3.553
3.86391
3.08078
3.35787
2.66872
2.91192
2.31051
2.52265
1.99936
2.18463
1.72777
1.89333
1.48581
1.65805
1.27672
0.950305
1.08821
0.825409
0.917886
0.705004
0.779214
0.601413
0.66346
0.513121
0.565615
0.437969
0.482509
0.374149
0.411844
0.320321
0.351877
0.275805
0.301359
0.241174
0.259928
0.222602
0.238168
0.194775
0.210519
0.169487
0.184117
0.147151
0.160237
0.127628
0.139107
0.110722
0.120597
0.0963736
0.104424
0.0851117
0.0900693
0.0795325
0.0755141
0.0888856
0.0441598
0.124117
0.442191
0.225334
0.949849
0.509104
2.33576
2.02432
1.9506
1.93412
1.93051
16.3458
10.547
11.2261
8.47117
8.93934
7.09807
7.42186
6.04211
6.28047
5.24093
5.41023
4.77858
4.9157
4.19476
4.32968
3.65284
3.77771
3.17083
3.28227
2.74817
2.84604
2.37992
2.46533
2.05974
2.1344
1.78025
1.84739
1.5312
1.60362
1.2832
1.00221
1.06127
0.857229
0.894995
0.729932
0.75991
0.622081
0.647091
0.530559
0.551705
0.452768
0.470704
0.386717
0.401892
0.330958
0.343651
0.2847
0.294961
0.248345
0.255963
0.226915
0.233246
0.199649
0.205955
0.174164
0.180039
0.151393
0.156654
0.131383
0.135999
0.114001
0.117968
0.0991996
0.10241
0.0874641
0.0893299
0.0812535
0.0789615
0.0898034
0.0678664
0.153081
0.409492
0.318928
0.883078
0.713182
2.1164
1.99461
1.94543
1.93302
1.9302
15.5779
11.0733
11.0108
8.77708
8.78626
7.29715
7.30198
6.18901
6.19063
5.35381
5.35685
4.8423
4.8448
4.2655
4.26526
3.72062
3.72079
3.23215
3.2325
2.80234
2.80272
2.42727
2.42765
2.10091
2.10133
1.81589
1.8168
1.56104
1.5649
1.28809
1.04052
1.04486
0.879377
0.880218
0.74706
0.747319
0.636238
0.636385
0.542492
0.5426
0.462892
0.462977
0.395319
0.395384
0.33825
0.338292
0.290827
0.290839
0.253347
0.253465
0.229814
0.229921
0.202928
0.202915
0.177335
0.177342
0.154278
0.154293
0.133942
0.133956
0.116243
0.116249
0.101147
0.101122
0.0891445
0.0889887
0.0827434
0.0818838
0.0920327
0.0872872
0.175197
0.390672
0.386334
0.845668
0.854336
1.95804
1.96199
1.93878
1.93154
1.92979
14.9902
11.4218
10.8823
8.99328
8.6931
7.43647
7.22682
6.29134
6.13433
5.43309
5.32419
4.88534
4.79718
4.31307
4.22262
3.76661
3.68343
3.27392
3.19995
2.8393
2.77444
2.45959
2.40306
2.12899
2.0797
1.84007
1.79647
1.5805
1.53741
1.29182
1.06875
1.03525
0.894875
0.870803
0.758853
0.739184
0.645947
0.629442
0.550667
0.53669
0.469827
0.457961
0.401214
0.391166
0.343256
0.334835
0.295056
0.288218
0.256846
0.251919
0.231763
0.227682
0.205129
0.200899
0.179484
0.175569
0.156242
0.152747
0.135688
0.132623
0.117776
0.115134
0.102492
0.100313
0.0903526
0.0888916
0.0840185
0.0843664
0.0948583
0.103002
0.192212
0.380645
0.435193
0.826285
0.951688
1.84368
1.93046
1.93149
1.92983
1.9293
14.5452
11.6491
10.8079
9.14593
8.63822
7.53392
7.1807
6.36253
6.09981
5.48869
5.30472
4.91435
4.7654
4.34491
4.19461
3.79769
3.65912
3.30226
3.17887
2.86443
2.75617
2.48158
2.38717
2.14808
2.06568
1.85642
1.78305
1.59305
1.51802
1.29466
1.0894
1.02992
0.905723
0.864906
0.766958
0.733994
0.652589
0.624993
0.556252
0.532896
0.474563
0.454743
0.405242
0.388465
0.346684
0.332633
0.29797
0.28658
0.259288
0.250984
0.233071
0.226183
0.206598
0.199571
0.180934
0.174413
0.157574
0.151745
0.136874
0.131762
0.118822
0.114421
0.103419
0.099816
0.0912214
0.0889318
0.0850854
0.0864438
0.0977783
0.115475
0.205257
0.375974
0.470591
0.81753
1.01838
1.76152
1.90236
1.92431
1.92808
1.92879
14.2161
11.7943
10.7663
9.25242
8.6072
7.60134
7.15318
6.4115
6.07923
5.52721
5.29352
4.93371
4.74449
4.36594
4.17647
3.81844
3.64356
3.32128
3.16544
2.88132
2.74455
2.49637
2.37707
2.16092
2.05674
1.86733
1.77429
1.601
1.50457
1.29677
1.10423
1.02717
0.913239
0.861297
0.772466
0.730745
0.657081
0.622191
0.560024
0.530504
0.477761
0.452714
0.407964
0.386765
0.349005
0.331258
0.299954
0.28558
0.260973
0.250434
0.23394
0.225193
0.207567
0.198709
0.181901
0.173671
0.158466
0.151105
0.137672
0.131216
0.119527
0.113972
0.104051
0.0995194
0.0918388
0.0890349
0.0859447
0.0881228
0.100444
0.125066
0.215066
0.374347
0.495895
0.814618
1.06337
1.70345
1.87902
1.91786
1.92645
1.92831
13.9838
11.8837
10.7441
9.32416
8.59061
7.64645
7.1374
6.44411
6.06744
5.553
5.28736
4.94626
4.73115
4.37941
4.16507
3.83187
3.63389
3.33363
3.15714
2.89232
2.73739
2.50601
2.37086
2.16927
2.05121
1.87439
1.76874
1.60589
1.49558
1.29827
1.11443
1.02591
0.918278
0.859166
0.776092
0.728775
0.660024
0.620483
0.562492
0.529043
0.479853
0.451475
0.409745
0.385729
0.350527
0.330426
0.301262
0.28499
0.262096
0.250124
0.234499
0.22456
0.208185
0.198166
0.182525
0.173209
0.159045
0.15071
0.138191
0.130879
0.119988
0.113699
0.104468
0.0993496
0.0922619
0.0891502
0.086594
0.0893967
0.102619
0.132041
0.222104
0.374229
0.513313
0.814506
1.09272
1.66396
1.86115
1.91262
1.92509
1.92791
13.8355
11.9348
10.7332
9.36845
8.58245
7.67416
7.129
6.46406
6.06117
5.56885
5.28423
4.95377
4.72329
4.38739
4.15844
3.83989
3.62831
3.34105
3.15239
2.89893
2.73329
2.51181
2.3673
2.1743
2.04804
1.87862
1.76549
1.60867
1.49008
1.29924
1.12083
1.02541
0.921379
0.857997
0.77829
0.727666
0.661801
0.619515
0.563981
0.528214
0.481114
0.450771
0.41082
0.385143
0.351447
0.329959
0.302056
0.284667
0.262783
0.249962
0.234833
0.224185
0.208551
0.197849
0.182898
0.172943
0.159392
0.150483
0.138503
0.130687
0.120265
0.113545
0.104721
0.0992593
0.0925267
0.0892439
0.0870297
0.0902545
0.104146
0.136591
0.22666
0.374633
0.524246
0.815312
1.11034
1.63943
1.8491
1.90894
1.92412
1.92761
13.7633
11.9578
10.7288
9.3896
8.57919
7.68735
7.1254
6.47352
6.05849
5.57639
5.28293
4.95728
4.71965
4.3911
4.15539
3.84364
3.62577
3.34452
3.15023
2.90203
2.73144
2.51452
2.36569
2.17665
2.0466
1.88059
1.76399
1.60993
1.48746
1.29971
1.12392
1.02525
0.922857
0.857483
0.779327
0.727169
0.662638
0.619079
0.564681
0.52784
0.481707
0.450454
0.411325
0.384879
0.35188
0.32975
0.302431
0.284525
0.26311
0.249893
0.234989
0.224012
0.208721
0.197703
0.183072
0.172821
0.159555
0.15038
0.138649
0.1306
0.120396
0.113475
0.104841
0.0992206
0.0926543
0.0892956
0.0872484
0.0906862
0.104932
0.138837
0.2289
0.374972
0.529522
0.81596
1.1186
1.62769
1.84304
1.90704
1.92361
1.92746
-13.6265
-11.9375
-10.8745
-9.86309
-9.31948
-8.81665
-8.53879
-8.26763
-8.11707
-7.96832
-7.86573
-7.72992
-7.63423
-7.50954
-7.42256
-7.31022
-7.2321
-7.13147
-7.06164
-6.97194
-6.90988
-6.83042
-6.77562
-6.70567
-6.65745
-6.59582
-6.55263
-6.49578
-6.45105
-6.38321
-6.32055
-6.28596
-6.25096
-6.22904
-6.20344
-6.18667
-6.16637
-6.15292
-6.13647
-6.12554
-6.11215
-6.10325
-6.09236
-6.08514
-6.07635
-6.07059
-6.06365
-6.05921
-6.05407
-6.05099
-6.04766
-6.04535
-6.04232
-6.04033
-6.03798
-6.03665
-6.03539
-6.03502
-6.03532
-6.03635
-6.03893
-6.04209
-6.04831
-6.05509
-6.06775
-6.08155
-6.10774
-6.13892
-6.20312
-6.29676
-6.5086
-6.80266
-7.06554
-7.50318
-7.92086
-8.58513
-8.8648
-8.9478
-8.96928
-8.97427
-13.6941
-11.9125
-10.8724
-9.84438
-9.31785
-8.80765
-8.53852
-8.2628
-8.117
-7.96647
-7.86706
-7.72831
-7.63539
-7.50804
-7.42357
-7.30885
-7.233
-7.13023
-7.06244
-6.97083
-6.91058
-6.82943
-6.77623
-6.7048
-6.65799
-6.59508
-6.55317
-6.49529
-6.45198
-6.38301
-6.31942
-6.28598
-6.25043
-6.22919
-6.20308
-6.18681
-6.16609
-6.15303
-6.13625
-6.12564
-6.11197
-6.10333
-6.09221
-6.08521
-6.07623
-6.07063
-6.06355
-6.05924
-6.05398
-6.051
-6.04762
-6.04538
-6.04228
-6.04034
-6.03794
-6.03664
-6.03536
-6.035
-6.03529
-6.03628
-6.03891
-6.04197
-6.04829
-6.05485
-6.0677
-6.08105
-6.10754
-6.1376
-6.20195
-6.29204
-6.50531
-6.80391
-7.05855
-7.50397
-7.911
-8.60052
-8.87267
-8.95026
-8.96994
-8.97448
-13.8329
-11.8578
-10.8699
-9.8056
-9.31556
-8.789
-8.53852
-8.25278
-8.11712
-7.96257
-7.86996
-7.72487
-7.63792
-7.50481
-7.4258
-7.30593
-7.23497
-7.1276
-7.06419
-6.96847
-6.91211
-6.82733
-6.77756
-6.70295
-6.65917
-6.5935
-6.55436
-6.49423
-6.45393
-6.38258
-6.3171
-6.28608
-6.24934
-6.22953
-6.20234
-6.18713
-6.16551
-6.1533
-6.13578
-6.12586
-6.11159
-6.10351
-6.0919
-6.08535
-6.07597
-6.07074
-6.06334
-6.05931
-6.05381
-6.05102
-6.04754
-6.04544
-6.04219
-6.04038
-6.03786
-6.03664
-6.03528
-6.03494
-6.03523
-6.03616
-6.03886
-6.04172
-6.04826
-6.05437
-6.06764
-6.08003
-6.10719
-6.13491
-6.19974
-6.28238
-6.4986
-6.80691
-7.04393
-7.50631
-7.88984
-8.6326
-8.88832
-8.95504
-8.9712
-8.97486
-14.0507
-11.7636
-10.8704
-9.74385
-9.31474
-8.75931
-8.53992
-8.23675
-8.11799
-7.9562
-7.87496
-7.71911
-7.6423
-7.49942
-7.42965
-7.30105
-7.2384
-7.12321
-7.06722
-6.96453
-6.91477
-6.82382
-6.77988
-6.69986
-6.66122
-6.59086
-6.55638
-6.49236
-6.45712
-6.38192
-6.31339
-6.28641
-6.24756
-6.23017
-6.20111
-6.1877
-6.16455
-6.15378
-6.13501
-6.12626
-6.11096
-6.10383
-6.09138
-6.0856
-6.07555
-6.07093
-6.06299
-6.05943
-6.05353
-6.05107
-6.0474
-6.04555
-6.04204
-6.04044
-6.03772
-6.03664
-6.03517
-6.03486
-6.03515
-6.03596
-6.03882
-6.04132
-6.04824
-6.05359
-6.06761
-6.07842
-6.10683
-6.13073
-6.19682
-6.26738
-6.48822
-6.81277
-7.0203
-7.5118
-7.85431
-8.68416
-8.91153
-8.96184
-8.97297
-8.97539
-14.36
-11.6137
-10.8802
-9.65421
-9.31896
-8.71619
-8.54467
-8.21335
-8.12058
-7.94661
-7.88294
-7.71018
-7.64933
-7.49111
-7.43586
-7.29353
-7.24393
-7.11645
-7.07213
-6.95848
-6.91908
-6.81843
-6.78365
-6.69511
-6.66455
-6.58678
-6.55958
-6.48935
-6.4619
-6.381
-6.30801
-6.28721
-6.24493
-6.23127
-6.19925
-6.18867
-6.1631
-6.15458
-6.13383
-6.12691
-6.11
-6.10437
-6.0906
-6.08603
-6.07491
-6.07125
-6.06247
-6.05965
-6.05311
-6.05117
-6.04718
-6.04573
-6.04182
-6.04054
-6.03752
-6.03666
-6.03501
-6.03476
-6.03505
-6.03567
-6.03878
-6.04074
-6.04829
-6.05247
-6.0677
-6.07611
-6.10664
-6.12487
-6.19372
-6.24637
-6.47368
-6.82331
-6.98531
-7.52324
-7.79928
-8.75982
-8.94183
-8.97021
-8.97509
-8.97601
-14.7792
-11.3832
-10.9098
-9.52894
-9.33389
-8.6558
-8.55582
-8.1804
-8.12642
-7.9326
-7.89528
-7.69677
-7.66024
-7.47867
-7.44555
-7.2823
-7.25258
-7.10636
-7.0798
-6.94945
-6.92585
-6.81041
-6.78957
-6.68805
-6.66976
-6.58068
-6.56451
-6.48462
-6.46883
-6.37976
-6.30055
-6.28888
-6.24115
-6.23311
-6.19654
-6.19023
-6.16096
-6.15587
-6.13211
-6.12797
-6.10859
-6.10522
-6.08945
-6.08671
-6.07397
-6.07178
-6.06171
-6.06002
-6.0525
-6.05136
-6.04686
-6.046
-6.04149
-6.04072
-6.03723
-6.0367
-6.03479
-6.03464
-6.03493
-6.03529
-6.0388
-6.03994
-6.04847
-6.05091
-6.06807
-6.07291
-6.10695
-6.11698
-6.19127
-6.21838
-6.45426
-6.84135
-6.93527
-7.54517
-7.71688
-8.86662
-8.97827
-8.97952
-8.97736
-8.97668
-15.3342
-11.0359
-10.9756
-9.35623
-9.36813
-8.5723
-8.57798
-8.13459
-8.13785
-7.91233
-7.91407
-7.67689
-7.67696
-7.4603
-7.46045
-7.26572
-7.26588
-7.09149
-7.09163
-6.93615
-6.93628
-6.7986
-6.79872
-6.67765
-6.6778
-6.57166
-6.57198
-6.47733
-6.47869
-6.37812
-6.29039
-6.29198
-6.23578
-6.23609
-6.19262
-6.19271
-6.15785
-6.15791
-6.12959
-6.12963
-6.10655
-6.10658
-6.08778
-6.0878
-6.07261
-6.07263
-6.06061
-6.06062
-6.05164
-6.05167
-6.0464
-6.04642
-6.04101
-6.041
-6.03682
-6.03681
-6.03451
-6.03449
-6.03481
-6.03478
-6.0389
-6.03884
-6.0489
-6.04876
-6.06893
-6.06854
-6.10821
-6.10652
-6.1907
-6.18203
-6.42878
-6.87112
-6.86461
-7.58462
-7.59535
-9.01495
-9.01912
-8.98897
-8.97958
-8.97731
-16.0611
-10.519
-11.1038
-9.11827
-9.43469
-8.45673
-8.6181
-8.07092
-8.15843
-7.88298
-7.94242
-7.64751
-7.70235
-7.43325
-7.48314
-7.24135
-7.28617
-7.06963
-7.10969
-6.91663
-6.95223
-6.78127
-6.81271
-6.66241
-6.69009
-6.55839
-6.58325
-6.4662
-6.49262
-6.37596
-6.27666
-6.2974
-6.22815
-6.24082
-6.18695
-6.19659
-6.15335
-6.16108
-6.12595
-6.13222
-6.10357
-6.10868
-6.08535
-6.08949
-6.07064
-6.07395
-6.05903
-6.06157
-6.05042
-6.0522
-6.04573
-6.04706
-6.04032
-6.04145
-6.03624
-6.037
-6.03413
-6.03434
-6.03471
-6.03411
-6.03918
-6.03734
-6.04973
-6.04579
-6.07062
-6.06256
-6.11113
-6.09263
-6.19385
-6.13547
-6.39548
-6.91884
-6.76488
-7.65244
-7.41748
-9.2199
-9.06135
-8.99759
-8.98151
-8.97786
-17.0097
-9.75702
-11.3348
-8.78823
-9.55301
-8.29559
-8.68657
-7.98186
-8.19353
-7.84022
-7.98494
-7.60415
-7.74069
-7.39344
-7.51749
-7.20552
-7.31691
-7.03751
-7.13706
-6.88796
-6.97644
-6.75585
-6.83397
-6.64005
-6.70875
-6.53885
-6.60019
-6.44933
-6.51227
-6.37312
-6.25812
-6.30641
-6.21724
-6.24821
-6.17874
-6.20259
-6.14681
-6.16596
-6.12064
-6.13621
-6.09925
-6.11192
-6.08183
-6.09211
-6.06779
-6.07601
-6.05675
-6.06308
-6.04869
-6.05306
-6.04474
-6.04802
-6.03931
-6.04216
-6.03543
-6.03734
-6.03363
-6.03417
-6.03464
-6.03321
-6.03973
-6.03527
-6.05121
-6.04168
-6.07362
-6.05433
-6.11674
-6.07395
-6.20338
-6.07617
-6.35165
-6.99366
-6.62348
-7.76517
-7.1581
-9.50328
-9.09979
-9.0043
-8.98295
-8.97826
-18.2483
-8.64177
-11.7307
-8.32568
-9.75217
-8.06846
-8.7988
-7.85609
-8.25117
-7.77749
-8.04843
-7.54003
-7.79833
-7.33473
-7.56924
-7.15269
-7.36323
-6.99018
-7.17833
-6.84574
-7.01296
-6.71844
-6.86607
-6.60713
-6.73691
-6.51002
-6.62558
-6.42387
-6.53997
-6.36926
-6.23302
-6.32089
-6.2015
-6.25959
-6.16677
-6.21174
-6.13725
-6.1734
-6.11288
-6.14227
-6.09292
-6.11686
-6.07667
-6.09609
-6.06361
-6.07914
-6.05344
-6.0654
-6.04618
-6.05441
-6.04327
-6.04944
-6.03782
-6.04323
-6.03425
-6.0379
-6.03295
-6.034
-6.03464
-6.03198
-6.04071
-6.03238
-6.05371
-6.0359
-6.07866
-6.04281
-6.12654
-6.04837
-6.22318
-6.00075
-6.29316
-7.10897
-6.42162
-7.94786
-6.78066
-9.89666
-9.12596
-9.00809
-8.98376
-8.97852
)
;

boundaryField
{
    F1_1
    {
        type            calculated;
        value           nonuniform List<scalar> 
80
(
18.9505
7.97328
11.979
8.0408
9.87576
7.90454
8.86779
7.71453
8.28867
7.55106
7.90309
7.48913
7.7583
7.2865
7.55865
7.10985
7.36517
6.95281
7.18579
6.81327
7.02259
6.6903
6.87622
6.58281
6.74683
6.48902
6.6353
6.40551
6.55165
6.36433
6.2171
6.32735
6.19088
6.26457
6.15859
6.21574
6.13069
6.17667
6.10755
6.14494
6.08857
6.11903
6.07313
6.09784
6.06075
6.08051
6.05115
6.06638
6.04444
6.05489
6.04215
6.04998
6.03673
6.04361
6.03339
6.03801
6.03241
6.03373
6.03455
6.03111
6.04124
6.03056
6.05518
6.0324
6.08174
6.036
6.13266
6.03346
6.23617
5.95847
6.25958
7.17872
6.30273
8.06046
6.55697
10.1255
9.13463
9.00912
8.98398
8.9786
)
;
    }
    F1_2
    {
        type            calculated;
        value           nonuniform List<scalar> 
80
(
-19.3874
-7.90911
-12.4951
-7.04757
-9.80737
-6.15661
-8.07818
-5.34327
-6.77273
-4.71219
-5.71291
-4.46041
-5.27061
-3.84177
-4.65966
-3.31865
-4.07256
-2.87005
-3.54141
-2.48305
-3.0721
-2.14843
-2.66212
-1.85835
-2.30671
-1.60476
-2.00396
-1.37647
-1.77986
-1.2635
-0.839598
-1.15786
-0.752482
-0.974564
-0.647289
-0.826639
-0.553459
-0.703603
-0.472649
-0.599723
-0.40364
-0.511476
-0.345024
-0.436308
-0.295728
-0.372178