/*--------------------------------*- C++ -*----------------------------------*\
| =========                 |                                                 |
| \\      /  F ield         | OpenFOAM: The Open Source CFD Toolbox           |
|  \\    /   O peration     | Version:  5.x                                   |
|   \\  /    A nd           | Web:      www.OpenFOAM.org                      |
|    \\/     M anipulation  |                                                 |
\*---------------------------------------------------------------------------*/
FoamFile
{
    version     2.0;
    format      ascii;
    class       volScalarField;
    location    "10.2999";
    object      gradTy;
}
// * * * * * * * * * * * * * * * * * * * * * * * * * * * * * * * * * * * * * //

dimensions      [0 -1 0 1 0 0 0];

internalField   nonuniform List<scalar> 
6300
(
32284.1
32252.2
32220.2
32188.1
32155.7
32123
32089.9
32056.4
32022.4
31987.9
31952.8
31917.2
31880.9
31844
31806.6
0.0534008
0.159703
0.264476
0.366586
0.464742
0.557453
0.643005
0.719484
0.784838
0.837003
0.874088
0.89463
0.897873
0.884052
0.854581
0.0895545
0.267871
0.44375
0.615369
0.780622
0.937042
1.08176
1.2115
1.32271
1.41174
1.47517
1.51024
1.51538
1.49077
1.43876
0.126501
0.378478
0.627288
0.870522
1.10534
1.32835
1.53549
1.72205
1.88277
2.0121
2.10463
2.15579
2.16265
2.12491
2.04575
0.164474
0.492254
0.816405
1.13409
1.44189
1.73553
2.00981
2.25846
2.47425
2.64928
2.7755
2.84566
2.85454
2.80052
2.68717
0.203616
0.609662
1.01199
1.40757
1.79259
2.16209
2.50977
2.82774
3.10652
3.33529
3.50247
3.59685
3.60937
3.53551
3.37812
0.243945
0.730794
1.21432
1.69162
2.15881
2.6105
3.03946
3.43623
3.78884
4.08294
4.30227
4.42993
4.45062
4.35407
4.13979
0.285318
0.855255
1.42287
1.98581
2.54053
3.08165
3.60138
4.08889
4.5297
4.90538
5.19378
5.37004
5.40918
5.29041
5.00436
0.327389
0.982046
1.63609
2.28824
2.93586
3.5742
4.19555
4.78829
5.33572
5.81517
6.19746
6.44735
6.5257
6.39413
6.0237
0.369582
1.10945
1.8512
2.59522
3.34049
4.08374
4.81837
5.53301
6.20975
6.82217
7.3336
7.69628
7.85228
7.73686
7.28465
0.411069
1.23499
2.06406
2.90096
3.74715
4.60193
5.46121
6.31567
7.14813
7.9302
8.6186
9.15206
9.45062
9.41697
8.9327
0.450774
1.35539
2.26907
3.19744
4.14523
5.11562
6.1089
7.12037
8.13694
9.13199
10.0587
10.8431
11.3821
11.5496
11.1932
0.487416
1.46671
2.45942
3.47449
4.52073
5.60644
6.73841
7.92
9.1473
10.4022
11.6413
12.7806
13.6875
14.2121
14.3026
0.519594
1.56463
2.62741
3.72036
4.85677
6.051
7.31831
8.67392
10.13
11.6885
13.3241
14.952
16.3807
17.3249
17.9279
0.54592
1.64482
2.76524
3.92278
5.13501
6.42248
7.80992
9.32735
11.0105
12.8976
15.0149
17.3252
19.5686
20.8168
18.5282
31771.7
31739.7
31707.3
31674.5
31641.4
31608.1
31574.4
31540.6
31506.5
31472.2
31437.7
31403
31368.2
31333.3
31298.4
31263.3
31228.2
31193.1
31158.1
31123
31087.9
31052.9
31018
30983
30948.1
30913.3
30878.5
30843.8
30809.1
30774.5
30740
30705.5
30671.2
30636.9
30602.8
30568.7
30534.8
30501
30467.2
30433.6
30400
30366.6
30333.2
30299.9
30266.7
30233.6
30200.6
30167.8
30135
30102.4
30069.8
30037.4
30005.1
29972.9
29940.8
29908.8
29876.9
29845
29813.2
29781.6
29750
29718.5
29687.1
29655.9
29624.7
29593.6
29562.6
29531.8
29501
29470.2
29439.6
29409
29378.5
29348
29317.6
29287.3
29257
29226.8
29196.7
29166.6
29136.5
29106.5
29076.5
29046.4
29016.4
28986.2
28956.1
28925.8
28895.4
28865
0.815611
0.773391
0.726656
0.677618
0.628128
0.579423
0.532001
0.485634
0.439552
0.392726
0.344219
0.293509
0.240726
0.186749
0.133146
0.0819492
0.0353243
-0.00480869
-0.037124
-0.0611374
-0.077309
-0.0869855
-0.0921957
-0.0953362
-0.0987976
-0.104594
-0.114053
-0.127616
-0.144791
-0.164256
-0.184116
-0.202256
-0.216732
-0.226124
-0.22979
-0.227973
-0.221758
-0.212881
-0.203437
-0.195526
-0.190905
-0.190695
-0.195192
-0.203822
-0.215241
-0.227572
-0.238749
-0.246873
-0.250557
-0.249156
-0.242869
-0.2327
-0.220271
-0.207544
-0.196491
-0.188757
-0.185383
-0.186631
-0.191934
-0.199997
-0.20902
-0.217019
-0.222173
-0.223142
-0.219288
-0.210772
-0.19851
-0.183997
-0.169034
-0.15541
-0.144574
-0.137364
-0.13383
-0.133185
-0.13389
-0.133878
-0.130866
-0.122709
-0.107749
-0.0850865
-0.0547502
-0.0177557
0.023956
0.0676802
0.110197
0.148087
0.178086
0.197456
0.204322
0.197916
1.37021
1.29622
1.2148
1.13013
1.04567
0.963699
0.885009
0.808944
0.733758
0.657191
0.577165
0.492433
0.403056
0.310604
0.218037
0.12927
0.048515
-0.0204767
-0.0751024
-0.114392
-0.139204
-0.152107
-0.156983
-0.158418
-0.160986
-0.168537
-0.183597
-0.206984
-0.237704
-0.273153
-0.30961
-0.342929
-0.369309
-0.385983
-0.391706
-0.386956
-0.373839
-0.355718
-0.336641
-0.320665
-0.311185
-0.310363
-0.318772
-0.335288
-0.357293
-0.381131
-0.402768
-0.418515
-0.425679
-0.423024
-0.410956
-0.391431
-0.367597
-0.343256
-0.322222
-0.307676
-0.301639
-0.304617
-0.315512
-0.331805
-0.349994
-0.366216
-0.376936
-0.379563
-0.372882
-0.357237
-0.334429
-0.307378
-0.279603
-0.254597
-0.235208
-0.223114
-0.218479
-0.219846
-0.224308
-0.227917
-0.226299
-0.215339
-0.191835
-0.154011
-0.10183
-0.037079
0.0367491
0.114751
0.19106
0.259404
0.313758
0.349026
0.361689
0.350293
1.94164
1.82976
1.70767
1.58235
1.45965
1.34328
1.23426
1.13101
1.02997
0.926652
0.8169
0.698057
0.569823
0.434632
0.29746
0.165058
0.0447702
-0.0568292
-0.135162
-0.188493
-0.218246
-0.228786
-0.226724
-0.219866
-0.215998
-0.221665
-0.241148
-0.275792
-0.323805
-0.380597
-0.43962
-0.493593
-0.535862
-0.561611
-0.5687
-0.557985
-0.533125
-0.499931
-0.465378
-0.436451
-0.418994
-0.416739
-0.430673
-0.45885
-0.496706
-0.53786
-0.575269
-0.602513
-0.614939
-0.610445
-0.589782
-0.556365
-0.515652
-0.474207
-0.438607
-0.414344
-0.404913
-0.411202
-0.431317
-0.460883
-0.4938
-0.523336
-0.543353
-0.549385
-0.539387
-0.514018
-0.476456
-0.431803
-0.386185
-0.345695
-0.315337
-0.298124
-0.294483
-0.302054
-0.315953
-0.329484
-0.335187
-0.326033
-0.296541
-0.243612
-0.167013
-0.0694736
0.043531
0.16426
0.283389
0.390866
0.476912
0.533147
0.553698
0.536099
2.53792
2.37806
2.20521
2.03085
1.86457
1.71229
1.57522
1.44992
1.32948
1.20539
1.06974
0.917213
0.746612
0.561519
0.370017
0.183404
0.014114
-0.126686
-0.231227
-0.296546
-0.324954
-0.323617
-0.30337
-0.277009
-0.25728
-0.2549
-0.27687
-0.325348
-0.397266
-0.484828
-0.576902
-0.661113
-0.726203
-0.764112
-0.771332
-0.749382
-0.704414
-0.646102
-0.586015
-0.535722
-0.504913
-0.499803
-0.522067
-0.568475
-0.631369
-0.699981
-0.762408
-0.807851
-0.828566
-0.82115
-0.786973
-0.731807
-0.664761
-0.596743
-0.538666
-0.499657
-0.48555
-0.497876
-0.533513
-0.585137
-0.642472
-0.694166
-0.729909
-0.742292
-0.728027
-0.688356
-0.628695
-0.557617
-0.485382
-0.422205
-0.376536
-0.353591
-0.354342
-0.375147
-0.408128
-0.442324
-0.465467
-0.466016
-0.434993
-0.367298
-0.262349
-0.124138
0.0391903
0.216073
0.392501
0.553187
0.682994
0.768653
0.800645
0.774845
3.16906
2.94509
2.705
2.46774
2.24935
2.05944
1.89926
1.76186
1.63427
1.5008
1.34689
1.16241
0.94428
0.69764
0.435538
0.176806
-0.0575679
-0.248754
-0.383774
-0.457752
-0.474499
-0.445677
-0.388825
-0.324603
-0.273583
-0.253072
-0.274421
-0.341151
-0.4482
-0.582563
-0.725509
-0.856166
-0.955688
-1.0108
-1.01597
-0.973926
-0.894921
-0.794831
-0.692547
-0.606937
-0.553825
-0.543452
-0.578694
-0.654361
-0.757802
-0.871008
-0.974006
-1.0488
-1.0827
-1.07039
-1.01439
-0.924357
-0.815268
-0.704967
-0.611268
-0.549109
-0.528127
-0.550983
-0.612688
-0.701168
-0.799269
-0.887965
-0.950101
-0.973573
-0.95325
-0.891481
-0.797372
-0.685098
-0.571534
-0.473501
-0.405013
-0.374936
-0.385324
-0.430707
-0.498551
-0.571079
-0.628284
-0.651459
-0.626255
-0.544628
-0.405583
-0.214969
0.0153315
0.268542
0.52428
0.759975
0.952649
1.08144
1.13081
1.09368
3.84908
3.53538
3.20079
2.87749
2.59315
2.36384
2.19052
2.05971
1.94753
1.8257
1.66805
1.45608
1.18301
0.856036
0.49621
0.135134
-0.191439
-0.451701
-0.624224
-0.70137
-0.689665
-0.608101
-0.484895
-0.353187
-0.245954
-0.190968
-0.206626
-0.298894
-0.459804
-0.667941
-0.891815
-1.09605
-1.24912
-1.32943
-1.32858
-1.2517
-1.11579
-0.94672
-0.775073
-0.631354
-0.541197
-0.521415
-0.57711
-0.700255
-0.870173
-1.05674
-1.22622
-1.34862
-1.4034
-1.38254
-1.29083
-1.14434
-0.967524
-0.789283
-0.638456
-0.539266
-0.507577
-0.548151
-0.653305
-0.803347
-0.969611
-1.12001
-1.22597
-1.26792
-1.23815
-1.14118
-0.992207
-0.814435
-0.635323
-0.482252
-0.378178
-0.338008
-0.365913
-0.453925
-0.582226
-0.7219
-0.840102
-0.906568
-0.898764
-0.80464
-0.623074
-0.362949
-0.0415169
0.317373
0.684923
1.02871
1.31429
1.5086
1.58555
1.5323
4.60033
4.1558
3.68037
3.23121
2.85776
2.58767
2.42058
2.33079
2.27472
2.20218
2.06747
1.83775
1.49937
1.06175
0.558688
0.043779
-0.420796
-0.780994
-1.00202
-1.07294
-1.00543
-0.830491
-0.593208
-0.346528
-0.14309
-0.0271392
-0.0285148
-0.157796
-0.403402
-0.730656
-1.0864
-1.40963
-1.64732
-1.76493
-1.7507
-1.61445
-1.38442
-1.10232
-0.817384
-0.578642
-0.427231
-0.390695
-0.478399
-0.678798
-0.958579
-1.26706
-1.54624
-1.74582
-1.83302
-1.7967
-1.64613
-1.40802
-1.12183
-0.834124
-0.591288
-0.432224
-0.382967
-0.452326
-0.629284
-0.882168
-1.1628
-1.41604
-1.59403
-1.66552
-1.61985
-1.46574
-1.22852
-0.9457
-0.661613
-0.420448
-0.259318
-0.203053
-0.259948
-0.419124
-0.649523
-0.903641
-1.12642
-1.26862
-1.29557
-1.19057
-0.953688
-0.599211
-0.152303
0.353734
0.879783
1.38127
1.80736
2.10477
2.22776
2.15139
5.46285
4.82072
4.12216
3.47597
2.97364
2.66319
2.53938
2.55332
2.62566
2.66819
2.60374
2.37589
1.95868
1.36168
0.638236
-0.120053
-0.800452
-1.3107
-1.59596
-1.64383
-1.4759
-1.14266
-0.715056
-0.277603
0.0857521
0.305639
0.333779
0.15081
-0.229431
-0.752348
-1.32781
-1.84637
-2.21844
-2.39027
-2.34853
-2.11225
-1.72805
-1.262
-0.793177
-0.400179
-0.147845
-0.0810721
-0.217408
-0.543033
-1.00566
-1.51956
-1.9809
-2.30484
-2.44053
-2.37539
-2.12749
-1.74095
-1.2783
-0.814357
-0.423491
-0.167061
-0.0875529
-0.201557
-0.495932
-0.921032
-1.39543
-1.82045
-2.11541
-2.23186
-2.1577
-1.90996
-1.5305
-1.07879
-0.626091
-0.243395
0.0105481
0.0948529
-0.00669619
-0.28176
-0.682664
-1.13051
-1.52876
-1.79665
-1.88238
-1.7664
-1.45364
-0.968572
-0.348234
0.361277
1.11001
1.84242
2.48573
2.95211
3.15708
3.0481
6.51595
5.56676
4.4884
3.5136
2.81342
2.47007
2.45985
2.69178
3.01956
3.28829
3.37533
3.18672
2.67688
1.84373
0.767962
-0.39604
-1.42513
-2.16438
-2.53174
-2.5255
-2.18442
-1.59071
-0.851087
-0.101979
0.521188
0.91453
1.00007
0.743484
0.149995
-0.698375
-1.65117
-2.49405
-3.07792
-3.32317
-3.22648
-2.82308
-2.18952
-1.42568
-0.659785
-0.0191612
0.398745
0.521025
0.316158
-0.209985
-0.978923
-1.84775
-2.61343
-3.13496
-3.33721
-3.21724
-2.80851
-2.18347
-1.43665
-0.689358
-0.0621073
0.352869
0.486517
0.308942
-0.174337
-0.888916
-1.69914
-2.41215
-2.89387
-3.07268
-2.94549
-2.54387
-1.93652
-1.21331
-0.489764
0.119063
0.524695
0.660389
0.496417
0.0368164
-0.648212
-1.42879
-2.11882
-2.587
-2.75964
-2.62561
-2.20171
-1.53272
-0.672573
0.312345
1.36374
2.43185
3.41889
4.17587
4.53847
4.38717
7.93039
6.49862
4.70456
3.15503
2.13976
1.79756
2.03174
2.69226
3.49849
4.17006
4.54388
4.46013
3.86066
2.67515
1.02476
-0.866303
-2.46716
-3.55357
-4.00553
-3.88931
-3.25672
-2.24887
-1.00078
0.254999
1.28757
1.96665
2.15902
1.8213
0.896446
-0.494027
-2.13282
-3.51469
-4.42502
-4.74847
-4.54608
-3.86537
-2.83857
-1.59233
-0.346003
0.682567
1.37103
1.59421
1.31236
0.472684
-0.808347
-2.32447
-3.59753
-4.42483
-4.6979
-4.47491
-3.80102
-2.80136
-1.59567
-0.391505
0.604949
1.27791
1.50875
1.25965
0.480328
-0.719073
-2.14285
-3.33691
-4.10852
-4.35411
-4.12848
-3.47403
-2.50939
-1.34829
-0.188245
0.774121
1.42755
1.65745
1.42524
0.68001
-0.476172
-1.85745
-3.02834
-3.80293
-4.07851
-3.90222
-3.3027
-2.37213
-1.17658
0.167681
1.59342
3.13803
4.68334
5.96752
6.65989
6.47024
10.0995
7.95488
4.56658
2.02251
0.496139
0.295615
0.990086
2.4831
4.17139
5.48062
6.37133
6.47622
5.88835
4.17603
1.62811
-1.75446
-4.24997
-5.8564
-6.29746
-5.99672
-4.8694
-3.25299
-1.16154
0.933395
2.56297
3.71966
4.08128
3.74458
2.31339
0.0679068
-2.98446
-5.21436
-6.61721
-6.93098
-6.55447
-5.40603
-3.80362
-1.75911
0.28135
1.87404
3.01333
3.39464
3.11182
1.79091
-0.299243
-3.15121
-5.22352
-6.51279
-6.77292
-6.38189
-5.26265
-3.71592
-1.75249
0.205444
1.73783
2.83961
3.22207
2.9739
1.7399
-0.226135
-2.91733
-4.87003
-6.0806
-6.31413
-5.92897
-4.85086
-3.36516
-1.48176
0.397932
1.87405
2.94031
3.31993
3.0928
1.91498
0.0200041
-2.58906
-4.50853
-5.73743
-6.04807
-5.7883
-4.88041
-3.5931
-1.89474
-0.0943055
1.65191
3.84322
6.32382
8.61138
10.0514
9.91317
13.9504
11.2297
3.22353
-0.5893
-3.06438
-2.49713
-1.20187
1.99269
5.39018
7.39387
9.33041
9.4899
9.53526
6.88019
3.43336
-3.91996
-7.31306
-9.83735
-9.6576
-9.29438
-7.18637
-4.94118
-1.32731
2.28191
4.51933
6.61756
7.00911
7.24394
4.90291
1.79175
-5.02044
-8.10497
-10.3777
-10.1075
-9.67444
-7.60039
-5.40531
-1.92008
1.5535
3.71839
5.74715
6.15138
6.40614
4.21682
1.30687
-5.10065
-7.97711
-10.0827
-9.78564
-9.33747
-7.33987
-5.23055
-1.90139
1.41517
3.4908
5.4371
5.84351
6.10774
4.0536
1.31103
-4.75524
-7.4718
-9.45965
-9.16504
-8.72731
-6.8146
-4.79363
-1.60987
1.56526
3.56416
5.44183
5.85614
6.12937
4.18265
1.54446
-4.31367
-6.98313
-8.99421
-8.83905
-8.60764
-7.00449
-5.40597
-2.75989
-0.278216
1.06949
4.13182
8.24226
12.4757
15.7157
16.186
21.3592
22.2839
-4.00556
-5.10174
-11.0077
-6.33932
-6.12915
1.20991
8.61603
9.40382
14.8485
12.6679
17.0708
10.7245
10.864
-11.7882
-11.6272
-17.7121
-13.2819
-15.1045
-9.70089
-8.60026
-1.48639
5.6058
6.67613
11.9731
10.1626
14.4525
8.6014
8.84506
-12.4242
-12.1646
-17.8
-13.5185
-15.1575
-9.96902
-8.86484
-2.06425
4.71014
5.75879
10.8203
9.12339
13.2199
7.68044
7.9495
-12.1348
-11.8407
-17.1125
-13.0159
-14.5242
-9.57798
-8.50175
-2.03217
4.41185
5.43001
10.252
8.66967
12.58
7.35863
7.63432
-11.4167
-11.1229
-16.1254
-12.222
-13.6496
-8.93422
-7.89653
-1.72555
4.42636
5.42883
10.0506
8.5955
12.3627
7.44606
7.70564
-10.63
-10.4058
-15.3704
-11.7398
-13.4023
-9.1219
-8.72733
-3.38831
1.1708
-1.98199
2.91113
9.98365
17.7703
25.3686
29.6199
32.1507
72.5466
-47.4949
-2.67083
-34.1717
-3.76023
-21.3218
0.33061
21.3723
4.70786
31.3468
6.3658
40.0853
5.22915
51.1147
-52.5074
-6.9472
-40.7287
-7.90219
-31.3205
-6.01904
-20.9184
-1.61423
17.6012
2.74661
27.5634
4.53144
36.2644
3.52337
46.8771
-50.8297
-7.73529
-39.5028
-8.40379
-30.4721
-6.45627
-20.5272
-2.1707
16.1119
2.02073
25.6254
3.75291
33.9095
2.7798
43.901
-48.514
-7.6896
-37.6324
-8.17526
-29.0056
-6.24322
-19.5394
-2.12616
15.2218
1.89163
24.2893
3.58632
32.2021
2.74784
41.7881
-45.9348
-7.14743
-35.6157
-7.60243
-27.4179
-5.7579
-18.3914
-1.81375
14.7026
2.08174
23.41
3.81481
31.1005
3.25575
40.6439
-43.6725
-6.35667
-34.1234
-7.01878
-26.7545
-5.64379
-19.1687
-2.89364
13.7249
-16.6196
-1.44791
10.6966
23.3363
39.8412
66.3964
28831.4
28794.6
28757.7
28720.8
28683.8
28646.9
28610
28573.1
28536.4
28499.8
28463.3
28426.9
28390.6
28354.3
28318.1
0.176767
0.13779
0.0876133
0.0319902
-0.0232257
-0.0728764
-0.113012
-0.141099
-0.15598
-0.157681
-0.147152
-0.126004
-0.0962853
-0.0603067
-0.0205268
0.312221
0.24206
0.152072
0.0528903
-0.0448486
-0.13198
-0.20169
-0.249793
-0.274574
-0.276363
-0.257034
-0.21952
-0.167424
-0.104732
-0.0356259
0.476301
0.366158
0.225724
0.0723471
-0.0770792
-0.208507
-0.311974
-0.381811
-0.41616
-0.416165
-0.385101
-0.327618
-0.249159
-0.155571
-0.0528707
0.68529
0.520548
0.312317
0.0878541
-0.127307
-0.312995
-0.455889
-0.549315
-0.59209
-0.587035
-0.539588
-0.456691
-0.346023
-0.215523
-0.0731565
0.961323
0.718427
0.415144
0.09406
-0.207009
-0.460278
-0.64927
-0.76747
-0.815849
-0.800298
-0.729524
-0.613536
-0.462719
-0.28734
-0.0973889
1.33587
0.976694
0.535774
0.0802511
-0.33451
-0.671836
-0.913442
-1.05545
-1.10354
-1.06879
-0.964672
-0.805211
-0.603975
-0.37373
-0.126448
1.8553
1.31671
0.671006
0.0256817
-0.539445
-0.979113
-1.27721
-1.43734
-1.47406
-1.40663
-1.25517
-1.03866
-0.774241
-0.477156
-0.161121
2.59031
1.76384
0.80586
-0.109083
-0.86984
-1.42796
-1.77896
-1.94264
-1.94874
-1.82852
-1.61071
-1.32002
-0.977173
-0.599533
-0.202
3.6524
2.34247
0.897682
-0.398034
-1.40288
-2.08391
-2.46802
-2.60552
-2.54972
-2.34801
-2.03912
-1.65353
-1.2149
-0.741804
-0.249347
5.22284
3.05597
0.840431
-0.977859
-2.25972
-3.03678
-3.40371
-3.46168
-3.29663
-2.97466
-2.54423
-2.04008
-1.4871
-0.903433
-0.302931
7.59937
3.81813
0.385935
-2.09411
-3.62134
-4.3998
-4.64835
-4.54087
-4.20045
-3.70979
-3.12305
-2.47546
-1.78998
-1.0819
-0.361874
11.233
4.23124
-1.0207
-4.16319
-5.73174
-6.29271
-6.24903
-5.85298
-5.25453
-4.54098
-3.76274
-2.94873
-2.11547
-1.2723
-0.424541
16.4651
2.89455
-4.5368
-7.8062
-8.84971
-8.79028
-8.20209
-7.36748
-6.42369
-5.43688
-4.43818
-3.44124
-2.45086
-1.4673
-0.488532
20.9171
-4.58135
-12.2149
-13.6751
-13.0706
-11.8166
-10.4016
-8.99117
-7.63588
-6.34466
-5.11186
-3.9272
-2.77943
-1.6575
-0.550819
0.564165
1.70036
2.86063
4.06277
5.32746
6.68
8.15292
9.78972
11.6505
13.8197
16.4135
19.5679
23.3127
26.8219
24.2606
0.574765
1.73251
2.91548
4.14246
5.43561
6.82268
8.34047
10.0406
12
14.3405
17.2716
21.1931
26.9904
37.0737
59.792
0.579657
1.74715
2.93975
4.17618
5.47854
6.87458
8.40137
10.1115
12.0847
14.4508
17.4405
21.5096
27.678
38.5876
62.2609
0.578868
1.74436
2.93359
4.16412
5.45639
6.83567
8.33493
9.99974
11.8966
14.1281
16.8596
20.3622
25.0383
31.113
35.906
0.572695
1.72507
2.89874
4.10917
5.37383
6.71342
8.1535
9.72679
11.4763
13.4585
15.7442
18.4012
21.4131
24.4013
26.0704
0.561673
1.69098
2.83837
4.01655
5.23921
6.52137
7.87954
9.33145
10.8942
12.5783
14.3718
16.1981
17.8151
18.5875
16.9455
0.546509
1.64433
2.75661
3.89304
5.06327
6.2765
7.54048
8.85914
10.2277
11.6219
12.9763
14.1412
14.8093
14.4523
12.6529
0.528006
1.58765
2.65807
3.74604
4.85744
5.99639
7.16341
8.35218
9.54333
10.693
11.7121
12.4288
12.5169
11.3193
7.12083
0.506982
1.52347
2.54734
3.58275
4.63248
5.69676
6.77122
7.84356
8.88776
9.85475
10.6579
11.1528
11.1174
10.2703
8.56318
0.484201
1.45417
2.42858
3.40951
4.39742
5.39003
6.38048
7.35444
8.28579
9.13027
9.81765
10.2449
10.2815
9.81855
8.92832
0.460333
1.38178
2.3053
3.2314
4.15907
5.08479
6.00116
6.8949
7.7441
8.51487
9.15803
9.60825
9.79249
9.66348
9.29065
0.435923
1.30793
2.18022
3.05221
3.92206
4.78603
5.63755
6.46626
7.25685
7.98807
8.63235
9.15625
9.521
9.67768
9.53857
0.411396
1.2339
2.05535
2.87449
3.68914
4.49589
5.28976
6.06408
6.8108
7.52162
8.19024
8.81475
9.39396
9.89725
10.1787
0.387071
1.16058
1.93209
2.69987
3.46169
4.21469
4.95554
5.68106
6.38966
7.08444
7.77873
8.50468
9.3196
10.2708
11.0824
0.363182
1.08866
1.81141
2.5294
3.24036
3.94191
4.63196
5.30977
5.97811
6.64757
7.34521
8.13279
9.15054
10.7414
13.8727
0.339908
1.01863
1.69403
2.3638
3.02557
3.67711
4.31686
4.94504
5.56576
6.19113
6.8492
7.60103
8.5835
10.142
13.3416
0.317392
0.950903
1.58057
2.20376
2.81788
3.42049
4.00979
4.58547
5.15018
5.71197
6.28807
6.90909
7.61637
8.40313
8.79855
0.295762
0.885846
1.47159
2.05003
2.61818
3.1731
3.71218
4.23353
4.7366
5.22287
5.69573
6.15724
6.59401
6.93596
7.00363
0.275132
0.823806
1.36768
1.90344
2.42765
2.93671
3.42687
3.89426
4.3347
4.74306
5.11125
5.42255
5.6375
5.65924
5.23628
0.255605
0.7651
1.2694
1.76488
2.24765
2.71344
3.15739
3.57371
3.95506
4.29115
4.56627
4.75476
4.81514
4.69133
4.37566
0.237268
0.71
1.17725
1.63514
2.07945
2.50534
2.90708
3.27745
3.60684
3.88158
4.08145
4.17594
4.12066
3.85666
3.30095
0.220186
0.658706
1.0916
1.51485
1.92403
2.314
2.67854
3.00966
3.29656
3.52401
3.66979
3.70112
3.57114
3.22457
2.68117
0.20439
0.611323
1.01264
1.40432
1.78194
2.14033
2.47322
2.77256
3.02756
3.22316
3.33761
3.33831
3.17201
2.72915
1.66408
0.189878
0.567842
0.940359
1.30357
1.6532
1.98438
2.2912
2.56626
2.79981
2.97865
3.08443
3.09148
2.96493
2.66584
2.21857
0.176611
0.528142
0.874549
1.21223
1.53729
1.84533
2.13124
2.38877
2.61006
2.78489
2.89979
2.93742
2.87766
2.70542
2.43142
0.164518
0.492001
0.814797
1.12967
1.43319
1.72166
1.99098
2.23645
2.45257
2.63274
2.76882
2.85099
2.86851
2.81565
2.71856
0.153502
0.459116
0.76055
1.05498
1.33954
1.61129
1.86728
2.1045
2.32006
2.51119
2.67529
2.80945
2.90823
2.95659
2.9071
0.143451
0.429133
0.711165
0.987152
1.25478
1.51188
1.7566
1.9876
2.2045
2.4084
2.60256
2.79248
2.98296
3.16547
3.29195
0.134247
0.401684
0.665977
0.925129
1.17732
1.42107
1.65544
1.8805
2.09798
2.31238
2.53276
2.77512
3.06322
3.41325
3.71189
0.125777
0.376418
0.62436
0.867938
1.10573
1.33676
1.56074
1.77867
1.99359
2.2122
2.44771
2.72598
3.10048
3.69673
4.86971
0.11794
0.353026
0.585771
0.814763
1.03885
1.25733
1.47026
1.67891
1.88663
2.10028
2.33297
2.61
2.98373
3.57968
4.77038
0.110655
0.33126
0.549788
0.764991
0.975857
1.18177
1.38274
1.5798
1.77556
1.97512
2.18744
2.42687
2.71266
3.04962
3.28826
0.10386
0.310937
0.516114
0.718231
0.916304
1.10963
1.29794
1.48159
1.66184
1.84112
2.02306
2.21154
2.40605
2.58782
2.70104
0.0975113
0.291932
0.484565
0.67428
0.860046
1.04097
1.21636
1.38574
1.5488
1.70526
1.85415
1.99202
2.10829
2.17362
2.10605
0.0915806
0.274168
0.455041
0.633071
0.807148
0.976164
1.13897
1.29426
1.44034
1.57466
1.69289
1.78749
1.8459
1.85172
1.80866
0.0860482
0.257596
0.42749
0.594606
0.757763
0.915667
1.06679
1.20918
1.34006
1.45522
1.54804
1.6081
1.62002
1.56376
1.41285
0.0808969
0.24217
0.401869
0.55889
0.712025
0.859874
1.00069
1.1321
1.25069
1.3513
1.42592
1.46215
1.4415
1.34153
1.17233
0.0761067
0.227839
0.378108
0.525871
0.669958
0.808968
0.941107
1.06391
1.17381
1.26543
1.33047
1.35569
1.31805
1.16736
0.74033
0.0716507
0.214523
0.356088
0.495406
0.631415
0.762833
0.88801
1.00468
1.10962
1.19801
1.26268
1.29288
1.2731
1.18511
1.04002
0.0674928
0.202114
0.335627
0.46724
0.596061
0.721034
0.840817
0.953615
1.05691
1.14707
1.21883
1.26478
1.27551
1.24252
1.16562
0.063588
0.190475
0.316487
0.441011
0.56338
0.682838
0.798475
0.909146
1.01333
1.10891
1.19291
1.26114
1.3083
1.33043
1.33895
0.0598838
0.179444
0.298381
0.416279
0.532722
0.647295
0.759583
0.869184
0.975713
1.07879
1.17793
1.27214
1.35845
1.42781
1.45191
0.0563238
0.168845
0.280996
0.392558
0.503364
0.613339
0.722558
0.831358
0.940499
1.0514
1.16639
1.28862
1.42038
1.55661
1.67221
0.0528515
0.158504
0.26402
0.369362
0.474585
0.579908
0.685825
0.793297
0.904065
1.02118
1.14982
1.29847
1.47923
1.69974
1.89974
0.0494144
0.148258
0.247166
0.34625
0.445737
0.546065
0.648014
0.752949
0.863227
0.982943
1.11937
1.28603
1.51047
1.85712
2.50913
0.0459668
0.137968
0.230192
0.322857
0.416307
0.511097
0.60813
0.708892
0.815839
0.933112
1.06791
1.23349
1.45683
1.80245
2.46199
0.0424725
0.127524
0.21291
0.29892
0.385949
0.474573
0.56566
0.660541
0.761282
0.871114
0.99508
1.14083
1.31829
1.5298
1.69807
0.0389047
0.116846
0.195197
0.274277
0.354484
0.436339
0.520556
0.608123
0.700416
0.799303
0.907129
1.02615
1.15611
1.28718
1.39111
0.0352454
0.105885
0.176978
0.248853
0.321875
0.396469
0.473128
0.552425
0.634972
0.721289
0.811411
0.90387
0.993155
1.06343
1.07008
0.031483
0.0946094
0.158218
0.222632
0.288177
0.355164
0.423872
0.494474
0.566914
0.640635
0.714074
0.783802
0.843408
0.883869
0.906223
0.0276094
0.0829995
0.138899
0.195628
0.253477
0.312668
0.373301
0.435249
0.497969
0.56018
0.61932
0.670767
0.70696
0.716885
0.682842
0.0236171
0.0710367
0.119003
0.167849
0.217848
0.269173
0.32182
0.37549
0.429382
0.48186
0.529912
0.56833
0.588758
0.58044
0.547649
0.0194964
0.0586947
0.0984983
0.139269
0.1813
0.224761
0.269631
0.315579
0.36178
0.406619
0.447197
0.478391
0.490523
0.460994
0.313745
0.015233
0.0459329
0.0773224
0.109817
0.14376
0.179373
0.216697
0.255497
0.295127
0.33434
0.371003
0.401694
0.421224
0.423302
0.413346
0.0108073
0.032693
0.0553801
0.0793611
0.105061
0.132799
0.162741
0.194841
0.228768
0.263836
0.298962
0.332753
0.36405
0.393973
0.431976
0.00619346
0.0188971
0.0325401
0.047713
0.0649489
0.0846967
0.10729
0.13292
0.161619
0.193295
0.227852
0.26555
0.307834
0.359037
0.42882
0.00135998
0.00444946
0.00863899
0.0146336
0.0230946
0.0346208
0.0497331
0.0688694
0.0924088
0.120758
0.154565
0.195167
0.24543
0.311205
0.404188
-0.00372988
-0.0107615
-0.0165146
-0.0201569
-0.0208863
-0.0179429
-0.0106153
0.00176527
0.0198621
0.0444354
0.0765656
0.118082
0.172259
0.244486
0.339982
-0.00911682
-0.0268595
-0.0431328
-0.0569685
-0.0674158
-0.0735485
-0.0744694
-0.0693049
-0.0571778
-0.0371302
-0.00794677
0.0322106
0.0865625
0.161615
0.274827
-0.0148445
-0.0439773
-0.0714428
-0.0961316
-0.116939
-0.132771
-0.142546
-0.145206
-0.139714
-0.125035
-0.100074
-0.0635112
-0.0135019
0.0522528
0.130536
-0.020958
-0.0622523
-0.10168
-0.137988
-0.169916
-0.196196
-0.215561
-0.226766
-0.228625
-0.220075
-0.200253
-0.168564
-0.124492
-0.0657997
0.0239048
-0.0275029
-0.0818232
-0.134082
-0.182885
-0.226814
-0.264421
-0.294239
-0.314811
-0.324761
-0.322936
-0.308666
-0.282208
-0.245628
-0.205377
-0.185237
-0.0345235
-0.102825
-0.168882
-0.231165
-0.288099
-0.338053
-0.379336
-0.410229
-0.429068
-0.434436
-0.425538
-0.402873
-0.369305
-0.330978
-0.292673
-0.0420613
-0.125386
-0.206301
-0.283157
-0.35423
-0.417703
-0.471644
-0.514013
-0.542726
-0.555839
-0.551962
-0.531105
-0.496279
-0.456557
-0.435007
-0.0501533
-0.149618
-0.24654
-0.339163
-0.425637
-0.503971
-0.571986
-0.627277
-0.667214
-0.689036
-0.690174
-0.669032
-0.626647
-0.569508
-0.51027
-0.0588296
-0.175616
-0.289762
-0.399438
-0.502695
-0.597402
-0.68116
-0.7512
-0.804277
-0.836593
-0.843853
-0.821704
-0.767254
-0.683912
-0.596821
-0.068112
-0.203446
-0.336088
-0.464168
-0.585688
-0.698433
-0.799857
-0.886901
-0.955755
-1.00155
-1.01795
-0.996804
-0.927919
-0.800916
-0.623506
-0.0780124
-0.233145
-0.385581
-0.533454
-0.674772
-0.807325
-0.928538
-1.03523
-1.12325
-1.1869
-1.21812
-1.20505
-1.12894
-0.952919
-0.564669
-0.0885323
-0.264716
-0.438242
-0.607289
-0.76994
-0.924091
-1.0673
-1.19652
-1.30765
-1.39477
-1.44904
-1.45707
-1.39934
-1.2523
-1.02047
-0.0996639
-0.298131
-0.494012
-0.685566
-0.871008
-1.04845
-1.21578
-1.37038
-1.50872
-1.62546
-1.71208
-1.75476
-1.73174
-1.61056
-1.33539
-0.111393
-0.333342
-0.552786
-0.768085
-0.977631
-1.17984
-1.37308
-1.55553
-1.72479
-1.87705
-2.00562
-2.09806
-2.13231
-2.07576
-1.9167
-0.123704
-0.370291
-0.614438
-0.854598
-1.08935
-1.31745
-1.53788
-1.74985
-1.95265
-2.14511
-2.32425
-2.48178
-2.59593
-2.61214
-2.38897
-0.136585
-0.408934
-0.678858
-0.944866
-1.20568
-1.46038
-1.70855
-1.95054
-2.18768
-2.42241
-2.65787
-2.8956
-3.12758
-3.31474
-3.36362
-0.150035
-0.449261
-0.745996
-1.03874
-1.32627
-1.60784
-1.8835
-2.15459
-2.42438
-2.6992
-2.98992
-3.31342
-3.69033
-4.11337
-4.32938
-0.164072
-0.491317
-0.815907
-1.13623
-1.45098
-1.75939
-2.06164
-2.35953
-2.65758
-2.96496
-3.29919
-3.69415
-4.22105
-5.05575
-6.74365
-0.178733
-0.535215
-0.888778
-1.2376
-1.5801
-1.91522
-2.24281
-2.56436
-2.88429
-3.21207
-3.56628
-3.98325
-4.53802
-5.40564
-7.06907
-0.194077
-0.581141
-0.964942
-1.34335
-1.71435
-2.07629
-2.42815
-2.77032
-3.10556
-3.44081
-3.7898
-4.17665
-4.63773
-5.20287
-5.74064
-0.210178
-0.629332
-1.04485
-1.45423
-1.85491
-2.24433
-2.62024
-2.98108
-3.32682
-3.66
-3.98702
-4.31849
-4.66517
-5.01909
-5.30593
-0.227113
-0.680046
-1.12902
-1.57116
-2.00327
-2.42177
-2.82278
-3.20233
-3.5568
-3.88347
-4.18114
-4.44977
-4.68758
-4.88189
-4.98691
-0.244947
-0.733508
-1.21794
-1.69506
-2.16108
-2.61135
-3.04022
-3.44101
-3.80607
-4.12708
-4.39542
-4.60246
-4.74019
-4.80669
-4.83451
-0.263708
-0.789838
-1.31193
-1.82668
-2.32983
-2.81578
-3.27717
-3.7045
-4.08593
-4.40726
-4.65228
-4.80327
-4.84226
-4.75836
-4.58346
-0.28336
-0.848971
-1.41102
-1.96634
-2.51051
-3.03727
-3.53776
-3.99986
-4.40751
-4.74044
-4.97443
-5.08184
-5.02967
-4.77321
-4.31687
-0.303784
-0.910578
-1.51478
-2.11374
-2.7033
-3.27699
-3.82501
-4.33303
-4.78099
-5.14232
-5.38449
-5.47124
-5.35895
-4.92686
-3.46904
-0.324745
-0.973984
-1.62219
-2.26767
-2.90711
-3.53454
-4.14004
-4.70791
-5.21463
-5.62695
-5.90248
-5.99885
-5.91032
-5.79281
-6.42695
-0.34588
-1.03811
-1.73148
-2.4258
-3.11925
-3.80733
-4.48119
-5.12525
-5.71381
-6.20658
-6.54487
-6.65488
-6.48181
-6.1368
-6.45862
-0.36669
-1.10144
-1.84011
-2.58452
-3.33513
-4.08999
-4.84302
-5.58115
-6.27952
-6.89349
-7.34578
-7.50747
-7.17271
-6.0177
-3.39115
-0.386544
-1.16206
-1.94475
-2.73893
-3.54806
-4.37393
-5.2152
-6.06465
-6.90384
-7.69267
-8.3485
-8.70483
-8.43324
-6.9205
-3.20963
-0.40471
-1.2177
-2.04141
-2.88296
-3.74936
-4.64717
-5.58169
-6.55527
-7.56314
-8.58421
-9.5592
-10.3382
-10.5557
-9.34977
-4.90893
-0.420397
-1.2659
-2.12568
-3.00974
-3.92886
-4.8949
-5.92108
-7.02206
-8.21326
-9.50777
-10.906
-12.3616
-13.6665
-14.0255
-10.3423
-0.432813
-1.30418
-2.19308
-3.11217
-4.07578
-5.10086
-6.20851
-7.42621
-8.79165
-10.3593
-12.2128
-14.4898
-17.4342
-21.5085
-27.582
-11.3044
-25.8028
-24.3842
-20.8243
-17.5182
-14.747
-12.4265
-10.4408
-8.69789
-7.13064
-5.69082
-4.34288
-3.05966
-1.81944
-0.60381
-111.189
-57.9736
-37.4141
-27.2593
-21.2056
-17.0901
-14.0229
-11.5795
-9.53265
-7.74995
-6.14829
-4.67215
-3.28208
-1.94815
-0.645955
-123.621
-67.4668
-43.2184
-30.8463
-23.5471
-18.7051
-15.1862
-12.4426
-10.184
-8.24354
-6.51858
-4.94165
-3.46553
-2.05481
-0.680961
-67.9088
-54.8033
-40.7753
-30.9105
-24.1822
-19.4012
-15.811
-12.9691
-10.6144
-8.58748
-6.78606
-5.14116
-3.60355
-2.13586
-0.707688
-47.9357
-42.7805
-35.441
-28.7966
-23.4649
-19.2704
-15.9163
-13.1571
-10.8172
-8.77481
-6.94485
-5.26616
-3.69301
-2.18946
-0.72553
-30.4404
-32.2746
-29.6239
-25.7712
-21.9578
-18.5561
-15.6084
-13.054
-10.8134
-8.81463
-6.99858
-5.31787
-3.73414
-2.21555
-0.734436
-22.4549
-24.8834
-24.6413
-22.7187
-20.1647
-17.5265
-15.0274
-12.7329
-10.6416
-8.72755
-6.95834
-5.30221
-3.73005
-2.2156
-0.734842
-12.4756
-19.3466
-20.8259
-20.1046
-18.43
-16.4003
-14.3043
-12.2708
-10.3468
-8.53987
-6.83957
-5.22824
-3.68588
-2.19226
-0.727557
-15.0521
-17.5542
-18.5388
-18.1524
-16.9421
-15.32
-13.5378
-11.7326
-9.97071
-8.27813
-6.65901
-5.10638
-3.60787
-2.14882
-0.713617
-15.7099
-16.8155
-17.2037
-16.7723
-15.74
-14.351
-12.7874
-11.1643
-9.54646
-7.96536
-6.43229
-4.94691
-3.50247
-2.08882
-0.694143
-16.3325
-16.5749
-16.4378
-15.8096
-14.7858
-13.5032
-12.0782
-10.5924
-9.09672