/*--------------------------------*- C++ -*----------------------------------*\
| =========                 |                                                 |
| \\      /  F ield         | OpenFOAM: The Open Source CFD Toolbox           |
|  \\    /   O peration     | Version:  5.x                                   |
|   \\  /    A nd           | Web:      www.OpenFOAM.org                      |
|    \\/     M anipulation  |                                                 |
\*---------------------------------------------------------------------------*/
FoamFile
{
    version     2.0;
    format      ascii;
    class       volScalarField;
    location    "4.4";
    object      T;
}
// * * * * * * * * * * * * * * * * * * * * * * * * * * * * * * * * * * * * * //

dimensions      [0 0 0 1 0 0 0];

internalField   nonuniform List<scalar> 
2048
(
9.81021
9.8104
9.81079
9.81136
9.8121
9.81298
9.81399
9.81511
9.81631
9.81759
9.81892
9.82029
9.82168
9.82308
9.82448
9.82587
9.82725
9.8286
9.82992
9.83121
9.83246
9.83367
9.83485
9.83598
9.83706
9.8381
9.83909
9.84003
9.84091
9.84174
9.84251
9.84321
9.84384
9.8444
9.84487
9.84525
9.84553
9.8457
9.84576
9.84569
9.84549
9.84514
9.84465
9.84399
9.84317
9.84217
9.841
9.83966
9.83815
9.83648
9.83466
9.83273
9.83071
9.82865
9.82657
9.82454
9.82259
9.82078
9.81915
9.81773
9.81656
9.81566
9.81505
9.81475
9.43876
9.43934
9.4405
9.44219
9.44438
9.44701
9.45001
9.45333
9.45692
9.46071
9.46465
9.4687
9.47282
9.47697
9.48112
9.48524
9.48931
9.49331
9.49723
9.50104
9.50474
9.50833
9.5118
9.51514
9.51835
9.52142
9.52434
9.52712
9.52974
9.5322
9.53447
9.53655
9.53842
9.54006
9.54146
9.54259
9.54342
9.54394
9.54412
9.54393
9.54334
9.54233
9.54087
9.53893
9.5365
9.53356
9.5301
9.52613
9.52165
9.5167
9.51132
9.50559
9.49959
9.49344
9.48727
9.48121
9.47542
9.47003
9.46517
9.46095
9.45748
9.45481
9.453
9.45209
9.08311
9.08408
9.086
9.0888
9.09242
9.09675
9.10171
9.10719
9.11308
9.11931
9.12579
9.13244
9.13919
9.146
9.1528
9.15955
9.16621
9.17276
9.17916
9.18539
9.19145
9.19731
9.20297
9.20843
9.21367
9.21869
9.22348
9.22802
9.23231
9.23633
9.24005
9.24346
9.24653
9.24923
9.25153
9.25339
9.25477
9.25564
9.25596
9.25566
9.25472
9.25309
9.25073
9.24759
9.24363
9.23884
9.23319
9.22669
9.21935
9.21122
9.20238
9.19295
9.18306
9.17291
9.16272
9.15271
9.14313
9.13421
9.12618
9.11922
9.11348
9.10908
9.10611
9.10461
8.74234
8.7437
8.74638
8.7503
8.75535
8.76139
8.76828
8.77588
8.78406
8.79268
8.80163
8.81081
8.82013
8.8295
8.83887
8.84816
8.85733
8.86632
8.87511
8.88367
8.89198
8.90003
8.9078
8.91528
8.92248
8.92937
8.93594
8.94218
8.94807
8.9536
8.95872
8.96342
8.96765
8.97139
8.97457
8.97717
8.97911
8.98034
8.98081
8.98045
8.97921
8.97702
8.97382
8.96954
8.96415
8.9576
8.94986
8.94093
8.93082
8.9196
8.90738
8.89429
8.88056
8.86643
8.85223
8.83827
8.82491
8.81248
8.80128
8.79159
8.78361
8.7775
8.77337
8.77128
8.41561
8.41737
8.42084
8.4259
8.43239
8.44015
8.44899
8.45871
8.46914
8.48012
8.4915
8.50316
8.51498
8.52686
8.53872
8.55047
8.56206
8.57342
8.58451
8.59531
8.60578
8.61592
8.62571
8.63514
8.64421
8.6529
8.66119
8.66906
8.6765
8.68348
8.68997
8.69592
8.7013
8.70605
8.71011
8.71343
8.71594
8.71756
8.71822
8.71784
8.71635
8.71366
8.70969
8.70437
8.69763
8.68942
8.67968
8.6684
8.65561
8.64138
8.62581
8.60911
8.59153
8.57341
8.55516
8.53721
8.52001
8.50403
8.48964
8.4772
8.46698
8.45916
8.45388
8.45122
8.10215
8.10433
8.10861
8.11484
8.12283
8.13235
8.14315
8.155
8.16768
8.18099
8.19477
8.20886
8.22313
8.23747
8.25175
8.2659
8.27983
8.29348
8.30679
8.31974
8.33229
8.34444
8.35617
8.36747
8.37833
8.38874
8.39869
8.40814
8.41708
8.42547
8.43327
8.44045
8.44695
8.4527
8.45765
8.46171
8.46479
8.46683
8.46771
8.46736
8.46567
8.46255
8.4579
8.45162
8.44362
8.43384
8.4222
8.40867
8.39328
8.37608
8.35721
8.3369
8.31545
8.29329
8.27091
8.24887
8.22776
8.20814
8.19051
8.17529
8.1628
8.15327
8.14685
8.14362
7.80125
7.80387
7.809
7.81646
7.826
7.83732
7.85012
7.86413
7.87906
7.89471
7.91086
7.92735
7.94402
7.96075
7.97741
7.99389
8.0101
8.02596
8.04142
8.05643
8.07098
8.08505
8.09864
8.11173
8.12432
8.13639
8.14793
8.1589
8.16928
8.17904
8.18814
8.19652
8.20412
8.21087
8.2167
8.2215
8.22519
8.22767
8.22882
8.22854
8.22672
8.22323
8.21798
8.21083
8.20167
8.19041
8.17697
8.16129
8.14338
8.12328
8.10113
8.07719
8.05183
8.02553
7.99891
7.97266
7.9475
7.92413
7.90318
7.88513
7.87036
7.85912
7.85156
7.84776
7.51225
7.51533
7.52137
7.53013
7.54129
7.55448
7.56934
7.58552
7.60273
7.6207
7.6392
7.65806
7.6771
7.69617
7.71515
7.73391
7.75233
7.77033
7.78786
7.80486
7.82133
7.83725
7.85261
7.86742
7.88167
7.89534
7.90841
7.92085
7.93263
7.94372
7.95407
7.96362
7.97232
7.98006
7.98677
7.99234
7.99666
7.9996
8.00106
8.00091
7.99901
7.99524
7.98946
7.98153
7.97132
7.95869
7.94355
7.92582
7.90546
7.88251
7.85712
7.82954
7.80019
7.76964
7.73863
7.70799
7.67863
7.65139
7.62701
7.60608
7.58901
7.57605
7.56736
7.563
7.23452
7.23811
7.24512
7.25526
7.26813
7.28327
7.30025
7.31866
7.33815
7.35843
7.37927
7.40046
7.42183
7.44321
7.46446
7.48544
7.50602
7.5261
7.54562
7.56454
7.58284
7.60052
7.61759
7.63405
7.64989
7.66509
7.67964
7.6935
7.70664
7.71901
7.73059
7.7413
7.75107
7.75981
7.76741
7.77376
7.77872
7.78218
7.78398
7.78401
7.7821
7.77812
7.7719
7.76328
7.75211
7.73822
7.72149
7.7018
7.67909
7.65336
7.62474
7.5935
7.56008
7.52515
7.48956
7.45434
7.42058
7.3893
7.36139
7.33753
7.31814
7.30348
7.29368
7.28877
6.96748
6.97162
6.97969
6.99131
7.00599
7.02318
7.04234
7.06302
7.08482
7.10741
7.13056
7.15405
7.17771
7.20137
7.22485
7.248
7.27068
7.29277
7.31422
7.33497
7.35503
7.3744
7.39309
7.41113
7.4285
7.44518
7.46116
7.47638
7.49083
7.50446
7.51723
7.52908
7.53992
7.54965
7.55815
7.56529
7.57093
7.57492
7.57712
7.57737
7.57551
7.57139
7.56481
7.5556
7.54358
7.52854
7.51034
7.4888
7.46383
7.4354
7.40359
7.36866
7.33109
7.29161
7.25124
7.2112
7.17281
7.13731
7.10576
7.07891
7.0572
7.04087
7.02999
7.02455
6.71059
6.71533
6.72455
6.73778
6.75439
6.77373
6.79516
6.81816
6.84227
6.86716
6.8926
6.91836
6.94428
6.97016
6.99584
7.02112
7.04584
7.0699
7.09319
7.1157
7.13743
7.15841
7.17866
7.19821
7.21705
7.23515
7.2525
7.26905
7.28476
7.29961
7.31355
7.32651
7.33841
7.34914
7.35855
7.3665
7.37284
7.3774
7.38002
7.38055
7.3788
7.37461
7.36776
7.35805
7.34528
7.32921
7.30965
7.28639
7.25928
7.22823
7.19327
7.15463
7.11281
7.06862
7.02322
6.97808
6.9348
6.89489
6.85958
6.82969
6.80569
6.78773
6.77581
6.76987
6.46333
6.46874
6.47922
6.49418
6.51287
6.53447
6.55827
6.58362
6.61006
6.63724
6.66493
6.69293
6.72106
6.74914
6.77697
6.80434
6.83107
6.85702
6.8821
6.90629
6.92961
6.95211
6.97384
6.99484
7.01509
7.03457
7.05324
7.07107
7.088
7.10403
7.1191
7.13316
7.14611
7.15783
7.16817
7.17695
7.184
7.18916
7.19225
7.1931
7.19153
7.18733
7.18029
7.17018
7.15676
7.13978
7.11899
7.09413
7.065
7.03143
6.99339
6.95105
6.90488
6.85578
6.80509
6.75453
6.70606
6.66151
6.62232
6.58939
6.56313
6.54361
6.53073
6.52433
6.22522
6.23136
6.24323
6.26009
6.28101
6.30501
6.33125
6.359
6.38778
6.41722
6.44712
6.47731
6.50763
6.53787
6.56782
6.59725
6.62594
6.65372
6.68051
6.7063
6.73113
6.75508
6.77822
6.80059
6.8222
6.84301
6.86296
6.88202
6.90013
6.9173
6.93347
6.94861
6.96261
6.97533
6.98659
6.99622
7.00402
7.0098
7.01339
7.0146
7.01325
7.00912
7.00197
6.99155
6.9776
6.95982
6.93792
6.9116
6.88059
6.84463
6.80358
6.75754
6.70695
6.65275
6.59645
6.54012
6.48611
6.43668
6.3935
6.35753
6.3291
6.30812
6.29435
6.28754
5.99578
6.00274
6.01615
6.03509
6.05841
6.08496
6.11372
6.14393
6.17503
6.2067
6.23876
6.27109
6.30354
6.33591
6.36797
6.39942
6.43003
6.45959
6.48803
6.51533
6.54158
6.56688
6.59136
6.61505
6.63797
6.66006
6.68126
6.7015
6.72075
6.73901
6.75626
6.77246
6.78749
6.80121
6.81342
6.82391
6.83247
6.83891
6.84302
6.84464
6.84356
6.83955
6.83237
6.82174
6.80735
6.78888
6.76602
6.73839
6.70564
6.66743
6.62349
6.57379
6.5187
6.45918
6.39695
6.33442
6.27449
6.21991
6.17265
6.13369
6.1032
6.08089
6.06635
6.05919
5.77457
5.78246
5.79758
5.8188
5.84472
5.87395
5.90534
5.93802
5.97143
6.00528
6.03944
6.07386
6.1084
6.14287
6.17701
6.21047
6.24295
6.27425
6.30426
6.33299
6.36056
6.38714
6.41287
6.43783
6.46201
6.48535
6.50775
6.52913
6.54946
6.56877
6.58707
6.6043
6.62037
6.6351
6.64828
6.65964
6.66898
6.67608
6.68075
6.68281
6.68204
6.67823
6.67109
6.66032
6.6456
6.62657
6.60286
6.57407
6.53976
6.49946
6.45277
6.39947
6.33982
6.27479
6.20625
6.13705
6.07074
6.01073
5.95932
5.91744
5.88505
5.8616
5.84641
5.83897
5.56118
5.57009
5.58712
5.61085
5.63959
5.67166
5.70577
5.74095
5.77664
5.81259
5.84878
5.88523
5.92182
5.95836
5.99455
6.03001
6.06434
6.09732
6.12882
6.15889
6.18769
6.21546
6.24238
6.26855
6.29395
6.3185
6.34208
6.36455
6.38591
6.40622
6.42553
6.44378
6.46088
6.47663
6.49077
6.50304
6.51317
6.52096
6.5262
6.52872
6.52831
6.52474
6.51772
6.5069
6.49194
6.47246
6.44805
6.41825
6.38254
6.34035
6.29107
6.23428
6.17004
6.09929
6.02405
5.94763
5.87441
5.80867
5.75306
5.70841
5.67434
5.64993
5.63426
5.62661
5.35519
5.36527
5.38441
5.41092
5.4427
5.47778
5.51469
5.55239
5.59031
5.62828
5.66641
5.70481
5.7434
5.78199
5.82024
5.85768
5.89384
5.92844
5.96137
5.99268
6.02261
6.05146
6.07951
6.10683
6.13342
6.15917
6.18388
6.2074
6.22974
6.251
6.27128
6.29053
6.30865
6.32543
6.34057
6.35374
6.36468
6.37317
6.379
6.382
6.38198
6.37871
6.37187
6.36109
6.34598
6.32615
6.30117
6.27052
6.23361
6.18973
6.13807
6.07792
6.0091
5.93244
5.85007
5.76579
5.68506
5.61325
5.55345
5.50623
5.47075
5.44564
5.42966
5.4219
5.15621
5.1676
5.18911
5.21869
5.25378
5.29201
5.3318
5.37204
5.41211
5.45199
5.49196
5.53224
5.57279
5.61339
5.65372
5.69315
5.7311
5.76728
5.80157
5.83402
5.86496
5.8948
5.9239
5.95234
5.98007
6.007
6.03284
6.05737
6.08062
6.10277
6.12397
6.14421
6.16334
6.18117
6.19732
6.21141
6.22317
6.23236
6.23879
6.24229
6.2427
6.23978
6.23318
6.22251
6.20734
6.18726
6.16184
6.13049
6.09257
6.04724
5.99344
5.93011
5.85674
5.77401
5.68408
5.59121
5.50221
5.42401
5.36007
5.31058
5.27401
5.24848
5.23237
5.2246
4.96388
4.97676
5.00089
5.03387
5.07255
5.11409
5.15684
5.19961
5.24174
5.28341
5.32508
5.36718
5.40964
5.45222
5.49463
5.53608
5.57579
5.6135
5.64908
5.68256
5.7144
5.74513
5.77522
5.80472
5.83358
5.86169
5.88865
5.91412
5.93821
5.96118
5.98329
6.00449
6.02463
6.04352
6.06072
6.07573
6.08831
6.09822
6.10524
6.10926
6.11011
6.10759
6.1013
6.0908
6.07564
6.05542
6.02968
5.99778
5.95903
5.91252
5.85686
5.79059
5.71274
5.6238
5.52589
5.42356
5.32542
5.24046
5.17255
5.12115
5.08388
5.05823
5.04221
5.03452
4.77783
4.7924
4.81944
4.8562
4.89877
4.94376
4.98952
5.03482
5.0789
5.12219
5.16542
5.20927
5.2536
5.29813
5.34267
5.38617
5.42761
5.46681
5.50362
5.53801
5.5706
5.60211
5.63313
5.66367
5.69362
5.72292
5.751
5.77737
5.80222
5.82594
5.84891
5.87105
5.89219
5.91218
5.93044
5.94639
5.95979
5.97042
5.97803
5.98256
5.98389
5.9818
5.97588
5.96562
5.95054
5.93025
5.90431
5.872
5.83261
5.7852
5.728
5.65908
5.57687
5.48166
5.37534
5.26256
5.15417
5.06212
4.9905
4.93766
4.90014
4.87471
4.85899
4.85148
4.59771
4.61421
4.64446
4.68541
4.73223
4.78075
4.82959
4.87743
4.9233
4.96803
5.01266
5.0582
5.10435
5.15077
5.1975
5.24313
5.28624
5.32689
5.36488
5.40005
5.43326
5.46542
5.49733
5.52888
5.55988
5.59041
5.61964
5.64683
5.67234
5.69672
5.72053
5.7436
5.76571
5.78683
5.80622
5.82309
5.83732
5.84867
5.85685
5.86189
5.86369
5.86209
5.85661
5.84665
5.8317
5.81142
5.78539
5.75279
5.71294
5.66493
5.60655
5.53533
5.44891
5.3474
5.23235
5.10793
4.98795
4.88849
4.81356
4.75988
4.72261
4.69775
4.68254
4.67532
4.42318
4.44192
4.47565
4.52128
4.57273
4.62483
4.6768
4.72718
4.77466
4.82063
4.86644
4.91365
4.96159
5.00981
5.05884
5.10669
5.1514
5.19346
5.23259
5.26839
5.30207
5.33474
5.36752
5.40006
5.43205
5.46387
5.4943
5.52223
5.5483
5.57323
5.59787
5.62185
5.6449
5.66721
5.68777
5.70554
5.7206
5.73268
5.74141
5.74694
5.74923
5.74816
5.74316
5.73357
5.7188
5.69857
5.67257
5.63979
5.59963
5.55135
5.4922
5.4191
5.32864
5.22089
5.09692
4.95944
4.82616
4.71906
4.64143
4.58761
4.55113
4.5272
4.5127
4.50586
4.25392
4.27527
4.31271
4.3636
4.42013
4.47574
4.53089
4.58388
4.63272
4.6797
4.72645
4.77532
4.82504
4.87492
4.92639
4.97662
5.0228
5.06624
5.10651
5.14276
5.17675
5.20976
5.24342
5.27693
5.30984
5.34305
5.37476
5.40331
5.42983
5.45519
5.48065
5.50555
5.52947
5.55305
5.57486
5.59348
5.60935
5.62218
5.63142
5.63743
5.6402
5.63971
5.63526
5.62609
5.61153
5.59139
5.56555
5.53267
5.49231
5.44411
5.3846
5.31014
5.21581
5.10197
4.96911
4.81692
4.66813
4.55331
4.47382
4.42068
4.38557
4.36291
4.34932
4.34294
4.08959
4.11405
4.15535
4.21216
4.27431
4.33323
4.3916
4.44733
4.4972
4.54496
4.59234
4.64295
4.69444
4.74575
4.79988
4.8527
4.90013
4.94494
4.98642
5.02288
5.05702
5.09017
5.12476
5.15927
5.19294
5.22767
5.26081
5.28983
5.31667
5.34229
5.36863
5.39445
5.41912
5.44408
5.46725
5.48664
5.50333
5.51693
5.52662
5.53308
5.53631
5.53645
5.53263
5.52393
5.50959
5.48956
5.46403
5.4311
5.39058
5.34287
5.28344
5.20824
5.11017
4.99045
4.84913
4.68024
4.51309
4.39073
4.31049
4.25896
4.22581
4.20475
4.19225
4.18642
3.92987
3.9581
4.00323
4.06678
4.13521
4.197
4.25869
4.31736
4.36783
4.41615
4.46374
4.51628
4.56958
4.62192
4.67904
4.73477
4.78311
4.8293
4.87211
4.90848
4.94264
4.97566
5.01131
5.04684
5.08104
5.11752
5.15228
5.18155
5.20859
5.23425
5.26156
5.28833
5.31357
5.34007
5.36476
5.38475
5.40227
5.4167
5.42674
5.43363
5.43729
5.43813
5.43499
5.42684
5.41271
5.39276
5.36772
5.33478
5.29407
5.2473
5.18837
5.11322
5.01144
4.88608
4.73731
4.54936
4.3601
4.23081
4.15127
4.10237
4.07175
4.05261
4.04135
4.03612
3.7744
3.80733
3.85598
3.92728
4.00284
4.06674
4.13189
4.19387
4.24432
4.29304
4.3403
4.39507
4.45027
4.50305
4.56361
4.62271
4.67141
4.71905
4.76341
4.79931
4.83337
4.8659
4.90282
4.93945
4.97381
5.01235
5.04903
5.07821
5.10537
5.13078
5.15923
5.18699
5.21252
5.24078
5.26719
5.28756
5.30593
5.32127
5.33154
5.33885
5.34287
5.3445
5.34212
5.33458
5.32063
5.30068
5.27639
5.24342
5.20236
5.15709
5.09903
5.02493
4.91931
4.78855
4.63417
4.42432
4.20799
4.07307
3.99605
3.95087
3.92332
3.90636
3.89647
3.89189
3.62282
3.66177
3.71318
3.7935
3.87729
3.94207
4.01091
4.07681
4.12637
4.17545
4.22159
4.27912
4.33639
4.38869
4.45337
4.51648
4.56469
4.61391
4.66022
4.69507
4.72901
4.76055
4.79911
4.83696
4.8709
4.91194
4.95096
4.97958
5.00682
5.03156
5.06143
5.09029
5.11565
5.14599
5.17443
5.1948
5.21407
5.23047
5.24076
5.24851
5.2528
5.25531
5.25376
5.24691
5.23311
5.21301
5.18983
5.15677
5.11503
5.07195
5.01502
4.94329
4.83343
4.69737
4.54045
4.30533
4.05534
3.91711
3.8448
3.80443
3.78045
3.76588
3.75745
3.75356
3.47471
3.52156
3.57427
3.6653
3.75876
3.82252
3.89546
3.96618
4.01361
4.06323
4.10715
4.16826
4.22789
4.27833
4.34807
4.41609
4.46255
4.5136
4.56247
4.59547
4.62941
4.65924
4.69999
4.73927
4.77191
4.81608
4.85801
4.88537
4.91278
4.93628
4.96799
4.99809
5.02261
5.0555
5.08638
5.10618
5.12646
5.14412
5.15416
5.16239
5.16681
5.17036
5.16969
5.16364
5.14993
5.12943
5.10785
5.07462
5.03163
4.99165
4.93587
4.8683
4.75342
4.61186
4.45715
4.19274
3.90034
3.76264
3.69758
3.66307
3.64306
3.63106
3.62414
3.62097
3.32962
3.38706
3.43861
3.54253
3.64761
3.70753
3.78522
3.86212
3.90563
3.95635
3.99645
4.06236
4.12482
4.17137
4.2475
4.32169
4.36455
4.41784
4.47017
4.50015
4.53447
4.56156
4.60532
4.64634
4.67641
4.72459
4.77021
4.79528
4.82314
4.84455
4.87876
4.91035
4.93302
4.96912
5.003
5.02141
5.04288
5.06212
5.07148
5.08032
5.08464
5.08943
5.0897
5.08458
5.07088
5.04959
5.03031
4.99677
4.95165
4.91603
4.86106
4.80009
4.67889
4.53106
4.3856
4.08714
3.74067
3.60955
3.55455
3.52682
3.51109
3.50175
3.49639
3.49394
3.187
3.25883
3.30535
3.42504
3.54438
3.59635
3.67986
3.76486
3.80187
3.85486
3.88884
3.96133
4.02734
4.06708
4.15146
4.23354
4.27012
4.32634
4.38342
4.4087
4.44417
4.46702
4.51497
4.55822
4.58385
4.63726
4.68764
4.70894
4.73786
4.75596
4.79361
4.82704
4.84643
4.88667
4.92431
4.94013
4.9631
4.98438
4.99245
5.00215
5.00604
5.01235
5.01357
5.00956
4.99581
4.9731
4.95713
4.92312
4.87454
4.84502
4.78993
4.73894
4.60941
4.45364
4.32752
3.98941
3.57343
3.45802
3.41593
3.39572
3.38446
3.37782
3.37403
3.3723
3.04617
3.13778
3.17338
3.31271
3.44983
3.4881
3.57902
3.67482
3.70167
3.75898
3.78356
3.86511
3.93574
3.9646
4.05977
4.15205
4.17861
4.23878
4.30242
4.32063
4.35861
4.37506
4.42887
4.47503
4.49363
4.55395
4.61048
4.6259
4.65697
4.67004
4.71244
4.74824
4.76235
4.80798
4.85042
4.86197
4.88692
4.91085
4.91677
4.92775
4.93073
4.93895
4.94109
4.93842
4.92457
4.89954
4.88827
4.85358
4.79961
4.77871
4.72165
4.68531
4.5446
4.37777
4.28509
3.90077
3.39491
3.30858
3.28201
3.2698
3.26308
3.25914
3.2569
3.25587
2.90632
3.02519
3.04133
3.20542
3.365
3.3816
3.48231
3.59261
3.60413
3.66914
3.67966
3.77372
3.85051
3.86285
3.97225
4.07784
4.0892
4.15485
4.22754
4.23529
4.278
4.28501
4.34696
4.39705
4.405
4.47449
4.53902
4.54561
4.58064
4.58623
4.63519
4.67412
4.68016
4.73292
4.78149
4.78646
4.81412
4.84155
4.84412
4.85706
4.85841
4.86911
4.87206
4.87102
4.85708
4.82841
4.82374
4.78818
4.72609
4.71733
4.65519
4.63993
4.4841
4.30103
4.26099
3.82288
3.20049
3.16229
3.15314
3.14908
3.14685
3.14555
3.14481
3.14448
)
;

boundaryField
{
    left
    {
        type            zeroGradient;
    }
    right
    {
        type            zeroGradient;
    }
    interface
    {
        type            fixedValue;
        value           nonuniform List<scalar> 
64
(
2.83479
2.97283
2.97283
3.15313
3.32733
3.32733
3.43476
3.55503
3.55503
3.62666
3.62666
3.7295
3.81054
3.81054
3.92956
4.04405
4.04405
4.11363
4.19264
4.19264
4.23952
4.23952
4.30722
4.36002
4.36002
4.43576
4.50559
4.50559
4.54408
4.54408
4.59767
4.63872
4.63872
4.6963
4.74892
4.74892
4.77851
4.80829
4.80829
4.82277
4.82277
4.83513
4.83837
4.83837
4.82443
4.79297
4.79297
4.75686
4.6887
4.6887
4.62142
4.62142
4.4552
4.25971
4.25971
3.78965
3.09
3.09
3.09
3.09
3.09
3.09
3.09
3.09
)
;
    }
    bottom
    {
        type            fixedValue;
        value           uniform 10;
    }
    defaultFaces
    {
        type            empty;
    }
}


// ************************************************************************* //
