/*--------------------------------*- C++ -*----------------------------------*\
| =========                 |                                                 |
| \\      /  F ield         | OpenFOAM: The Open Source CFD Toolbox           |
|  \\    /   O peration     | Version:  5.x                                   |
|   \\  /    A nd           | Web:      www.OpenFOAM.org                      |
|    \\/     M anipulation  |                                                 |
\*---------------------------------------------------------------------------*/
FoamFile
{
    version     2.0;
    format      ascii;
    class       volScalarField;
    location    "8.5";
    object      gradTy;
}
// * * * * * * * * * * * * * * * * * * * * * * * * * * * * * * * * * * * * * //

dimensions      [0 -1 0 1 0 0 0];

internalField   nonuniform List<scalar> 
3200
(
18.2485
8.63564
11.7296
8.31225
9.7496
8.03967
8.79384
7.79262
8.24151
7.60069
7.87608
7.51721
7.72766
7.31734
7.52958
7.13933
7.33849
6.97995
7.16171
6.83782
7.00113
6.71221
6.85728
6.60218
6.73018
6.50606
6.62029
6.4207
6.53566
6.36657
6.23146
6.31859
6.20015
6.25778
6.16568
6.2103
6.13636
6.17225
6.11216
6.14134
6.09234
6.11611
6.0762
6.09548
6.06323
6.07865
6.05312
6.065
6.04592
6.05409
6.04303
6.04916
6.03762
6.04299
6.03409
6.03769
6.03281
6.03383
6.03453
6.03184
6.04062
6.03226
6.05364
6.0358
6.0786
6.04274
6.12649
6.04831
6.22314
6.0007
6.29312
7.10893
6.42159
7.94781
6.78062
9.89657
9.12588
9.00802
8.98369
8.97845
17.0089
9.75156
11.332
8.77623
9.54685
8.26986
8.67362
7.92516
8.16435
7.68489
7.83194
7.56406
7.67622
7.36882
7.48095
7.1886
7.2939
7.02534
7.12148
6.87889
6.96528
6.74889
6.82565
6.6346
6.70235
6.53453
6.59517
6.44589
6.50821
6.37037
6.25634
6.30422
6.21577
6.24649
6.17755
6.20121
6.14585
6.16486
6.11987
6.13532
6.09862
6.11121
6.08132
6.09153
6.06737
6.07554
6.05642
6.0627
6.0484
6.05274
6.04449
6.04774
6.03909
6.04192
6.03525
6.03715
6.03349
6.03401
6.03452
6.03308
6.03963
6.03516
6.05114
6.04159
6.07356
6.05425
6.11668
6.07389
6.20334
6.07612
6.35162
6.99362
6.62345
7.76512
7.15806
9.5032
9.09972
9.00423
8.98288
8.97819
16.0596
10.5139
11.0998
9.10711
9.42596
8.43277
8.59944
8.01815
8.11589
7.74399
7.80434
7.59567
7.64151
7.40348
7.44844
7.22192
7.26422
7.0561
7.09475
6.90675
6.9415
6.7738
6.80468
6.65661
6.6839
6.55382
6.57839
6.46258
6.48874
6.37317
6.27472
6.29528
6.22658
6.23915
6.18569
6.19526
6.15234
6.16001
6.12513
6.13136
6.10291
6.10799
6.08482
6.08893
6.07021
6.0735
6.05868
6.0612
6.05013
6.05189
6.04547
6.04679
6.0401
6.04122
6.03606
6.03681
6.03398
6.03418
6.03459
6.03398
6.03908
6.03724
6.04965
6.04571
6.07055
6.06249
6.11108
6.09257
6.19381
6.13542
6.39545
6.91881
6.76484
7.65239
7.41743
9.21982
9.06128
8.99752
8.98144
8.97779
15.3322
11.031
10.9707
9.34553
9.35754
8.54929
8.55518
8.08397
8.08622
7.7858
7.7875
7.61709
7.61815
7.42681
7.42678
7.24448
7.24455
7.07699
7.0771
6.92571
6.92582
6.79077
6.79088
6.67162
6.67175
6.56692
6.56723
6.47359
6.47493
6.37529
6.28833
6.2899
6.23415
6.23446
6.19132
6.19141
6.15681
6.15686
6.12875
6.12879
6.10587
6.1059
6.08723
6.08725
6.07217
6.07218
6.06025
6.06025
6.05134
6.05137
6.04614
6.04616
6.04079
6.04078
6.03663
6.03662
6.03435
6.03434
6.03469
6.03466
6.0388
6.03874
6.04881
6.04867
6.06887
6.06847
6.10816
6.10647
6.19066
6.18198
6.42874
6.87108
6.86457
7.58457
7.59531
9.01488
9.01905
8.9889
8.97951
8.97724
14.7767
11.3784
10.9043
9.51846
9.32194
8.63324
8.53
8.13085
8.06865
7.81552
7.77755
7.63165
7.60249
7.44249
7.41242
7.25975
7.23159
7.09117
7.06549
6.9386
6.91554
6.80232
6.78185
6.68184
6.6638
6.57582
6.55983
6.48079
6.46516
6.37691
6.2984
6.28682
6.23947
6.2315
6.19521
6.18895
6.15989
6.15484
6.13125
6.12714
6.1079
6.10455
6.08889
6.08617
6.07352
6.07134
6.06133
6.05966
6.05219
6.05105
6.04659
6.04574
6.04126
6.0405
6.03704
6.03652
6.03464
6.03448
6.0348
6.03517
6.03869
6.03984
6.04838
6.05083
6.068
6.07284
6.10689
6.11693
6.19122
6.21833
6.45422
6.84131
6.93524
7.54512
7.71683
8.86656
8.9782
8.97945
8.97729
8.97661
14.3573
11.6089
10.8743
9.64382
9.30602
8.69377
8.51666
8.16426
8.05872
7.83663
7.77191
7.64155
7.59206
7.45298
7.40297
7.27004
7.22311
7.10076
7.05794
6.94734
6.90887
6.81017
6.776
6.68879
6.65864
6.58184
6.55495
6.48546
6.45829
6.37814
6.30579
6.28517
6.24322
6.22968
6.1979
6.1874
6.16201
6.15356
6.13296
6.12609
6.1093
6.1037
6.09003
6.08549
6.07445
6.07082
6.06209
6.05929
6.0528
6.05087
6.04691
6.04547
6.04159
6.04032
6.03732
6.03647
6.03485
6.03461
6.03492
6.03555
6.03868
6.04064
6.0482
6.05239
6.06763
6.07604
6.10658
6.12482
6.19367
6.24633
6.47364
6.82327
6.98526
7.5232
7.79923
8.75975
8.94176
8.97014
8.97502
8.97594
14.0477
11.7588
10.8641
9.73347
9.30107
8.73689
8.51033
8.18779
8.05345
7.85145
7.76889
7.6482
7.58521
7.4599
7.39682
7.27689
7.21765
7.10717
7.0531
6.9532
6.90461
6.81543
6.77227
6.69345
6.65535
6.58586
6.55178
6.48844
6.45354
6.37905
6.31112
6.28437
6.24584
6.22858
6.19974
6.18644
6.16346
6.15277
6.13413
6.12544
6.11025
6.10317
6.09081
6.08507
6.07509
6.07049
6.06261
6.05908
6.05321
6.05077
6.04712
6.04529
6.04181
6.04022
6.03752
6.03646
6.03501
6.03471
6.03502
6.03583
6.03871
6.04122
6.04815
6.05351
6.06753
6.07835
6.10677
6.13068
6.19677
6.26734
6.48818
6.81273
7.02026
7.51175
7.85425
8.68409
8.91146
8.96177
8.9729
8.97532
13.8297
11.853
10.8633
9.79519
9.3014
8.76651
8.50783
8.20379
8.05089
7.86149
7.76741
7.65255
7.58086
7.46433
7.39295
7.2813
7.21425
7.11132
7.05009
6.957
6.90196
6.81886
6.76996
6.69649
6.65332
6.58846
6.54977
6.49028
6.45038
6.3797
6.31479
6.28404
6.2476
6.22795
6.20096
6.18587
6.16441
6.15229
6.1349
6.12505
6.11087
6.10285
6.09132
6.08482
6.0755
6.0703
6.06295
6.05895
6.05349
6.05072
6.04726
6.04519
6.04196
6.04016
6.03766
6.03646
6.03512
6.03479
6.0351
6.03603
6.03876
6.04162
6.04817
6.05428
6.06757
6.07997
6.10713
6.13486
6.19969
6.28234
6.49856
6.80687
7.04389
7.50626
7.88978
8.63253
8.88825
8.95497
8.97113
8.97479
13.6907
11.9076
10.8657
9.83393
9.30337
8.78508
8.50715
8.21375
8.04978
7.86772
7.76675
7.65517
7.57829
7.46695
7.3907
7.28394
7.21227
7.1138
7.04835
6.95927
6.90045
6.82091
6.76864
6.69831
6.65215
6.59002
6.5486
6.49133
6.44845
6.38012
6.3171
6.28394
6.24868
6.22761
6.2017
6.18555
6.16499
6.15202
6.13536
6.12483
6.11125
6.10268
6.09163
6.08468
6.07576
6.0702
6.06316
6.05889
6.05367
6.0507
6.04735
6.04512
6.04204
6.04013
6.03775
6.03646
6.03519
6.03485
6.03516
6.03616
6.0388
6.04187
6.0482
6.05477
6.06763
6.08099
6.10748
6.13755
6.2019
6.29199
6.50527
6.80387
7.05851
7.50393
7.91095
8.60045
8.8726
8.95019
8.96987
8.9744
13.6231
11.9327
10.8677
9.85263
9.30485
8.79404
8.50709
8.21853
8.0494
7.8707
7.76651
7.65641
7.57711
7.46817
7.38966
7.28517
7.21137
7.11496
7.04756
6.96034
6.89975
6.82187
6.76804
6.69916
6.65161
6.59075
6.54806
6.49181
6.44753
6.38032
6.31821
6.28393
6.2492
6.22746
6.20205
6.18541
6.16526
6.15191
6.13558
6.12473
6.11143
6.1026
6.09178
6.08461
6.07588
6.07015
6.06326
6.05886
6.05375
6.05069
6.04739
6.0451
6.04209
6.04011
6.03779
6.03647
6.03523
6.03487
6.03519
6.03622
6.03882
6.04199
6.04822
6.05501
6.06768
6.08148
6.10768
6.13887
6.20308
6.29672
6.50856
6.80262
7.0655
7.50313
7.92081
8.58507
8.86473
8.94773
8.96921
8.9742
-13.763
-11.9575
-10.7284
-9.38924
-8.57883
-7.68699
-7.12504
-6.47316
-6.05812
-5.57602
-5.28257
-4.95692
-4.71929
-4.39075
-4.15504
-3.8433
-3.62544
-3.34419
-3.1499
-2.90171
-2.73112
-2.51422
-2.36539
-2.17636
-2.04631
-1.88031
-1.76372
-1.60968
-1.48721
-1.29948
-1.1237
-1.02504
-0.922658
-0.857291
-0.779144
-0.726991
-0.662469
-0.618916
-0.564525
-0.52769
-0.481564
-0.450317
-0.411194
-0.384753
-0.35176
-0.329634
-0.30232
-0.284418
-0.263007
-0.249793
-0.234893
-0.223918
-0.208631
-0.197616
-0.182989
-0.172741
-0.159478
-0.150306
-0.138579
-0.130532
-0.120331
-0.113413
-0.104782
-0.0991637
-0.0926002
-0.0892439
-0.0871997
-0.0906402
-0.10489
-0.1388
-0.228872
-0.374955
-0.529512
-0.815962
-1.11861
-1.62771
-1.84307
-1.90707
-1.92364
-1.92749
-13.8352
-11.9344
-10.7328
-9.36809
-8.58209
-7.6738
-7.12864
-6.46369
-6.06081
-5.56848
-5.28387
-4.95341
-4.72293
-4.38704
-4.15809
-3.83955
-3.62797
-3.34072
-3.15206
-2.89861
-2.73298
-2.5115
-2.367
-2.17401
-2.04776
-1.87834
-1.76522
-1.60842
-1.48983
-1.29901
-1.12061
-1.0252
-0.92118
-0.857804
-0.778106
-0.727489
-0.661632
-0.619351
-0.563825
-0.528064
-0.480971
-0.450633
-0.410689
-0.385016
-0.351327
-0.329843
-0.301945
-0.28456
-0.262681
-0.249862
-0.234737
-0.224092
-0.208461
-0.197762
-0.182815
-0.172862
-0.159315
-0.150409
-0.138432
-0.130619
-0.120201
-0.113483
-0.104662
-0.0992022
-0.0924727
-0.0891921
-0.086981
-0.0902084
-0.104105
-0.136554
-0.226631
-0.374616
-0.524237
-0.815314
-1.11035
-1.63946
-1.84913
-1.90897
-1.92415
-1.92765
-13.9834
-11.8834
-10.7438
-9.3238
-8.59025
-7.64609
-7.13704
-6.44374
-6.06708
-5.55264
-5.287
-4.9459
-4.7308
-4.37906
-4.16472
-3.83152
-3.63355
-3.3333
-3.15682
-2.892
-2.73708
-2.50571
-2.37056
-2.16899
-2.05093
-1.87412
-1.76848
-1.60563
-1.49533
-1.29804
-1.11422
-1.0257
-0.918079
-0.858973
-0.775908
-0.728598
-0.659855
-0.620319
-0.562337
-0.528893
-0.47971
-0.451336
-0.409614
-0.385602
-0.350407
-0.33031
-0.301151
-0.284883
-0.261993
-0.250024
-0.234403
-0.224466
-0.208096
-0.198079
-0.182442
-0.173129
-0.158968
-0.150636
-0.13812
-0.130811
-0.119923
-0.113637
-0.104409
-0.0992924
-0.0922079
-0.0890982
-0.0865454
-0.0893505
-0.102577
-0.132003
-0.222076
-0.374212
-0.513303
-0.814508
-1.09273
-1.66398
-1.86117
-1.91265
-1.92512
-1.92794
-14.2157
-11.794
-10.7659
-9.25206
-8.60684
-7.60097
-7.15281
-6.41114
-6.07886
-5.52685
-5.29315
-4.93335
-4.74413
-4.36558
-4.17612
-3.81809
-3.64321
-3.32094
-3.16511
-2.881
-2.74423
-2.49607
-2.37677
-2.16063
-2.05645
-1.86706
-1.77402
-1.60075
-1.50432
-1.29653
-1.10401
-1.02696
-0.91304
-0.861104
-0.772283
-0.730567
-0.656912
-0.622027
-0.559869
-0.530353
-0.477618
-0.452575
-0.407833
-0.386638
-0.348885
-0.331141
-0.299843
-0.285472
-0.26087
-0.250334
-0.233844
-0.225099
-0.207477
-0.198621
-0.181818
-0.17359
-0.158389
-0.151031
-0.137601
-0.131147
-0.119463
-0.11391
-0.103992
-0.0994621
-0.0917849
-0.0889828
-0.0858962
-0.0880764
-0.100403
-0.125027
-0.215038
-0.37433
-0.495885
-0.814621
-1.06338
-1.70347
-1.87905
-1.91789
-1.92648
-1.92834
-14.5448
-11.6488
-10.8076
-9.14557
-8.63786
-7.53356
-7.18033
-6.36216
-6.09944
-5.48833
-5.30436
-4.91399
-4.76504
-4.34455
-4.19426
-3.79734
-3.65878
-3.30193
-3.17854
-2.86411
-2.75585
-2.48128
-2.38687
-2.1478
-2.06539
-1.85614
-1.78278
-1.59279
-1.51777
-1.29442
-1.08919
-1.02971
-0.905525
-0.864713
-0.766775
-0.733816
-0.652421
-0.624828
-0.556098
-0.532745
-0.474421
-0.454604
-0.405112
-0.388337
-0.346565
-0.332516
-0.29786
-0.286472
-0.259187
-0.250884
-0.232976
-0.226089
-0.206509
-0.199483
-0.180852
-0.174332
-0.157497
-0.151671
-0.136804
-0.131694
-0.118758
-0.114358
-0.10336
-0.0997585
-0.0911678
-0.0888795
-0.085037
-0.0863971
-0.0977365
-0.115436
-0.205229
-0.375958
-0.47058
-0.817534
-1.01839
-1.76154
-1.90239
-1.92434
-1.92811
-1.92882
-14.9898
-11.4214
-10.882
-8.99292
-8.69275
-7.43611
-7.22646
-6.29097
-6.13397
-5.43273
-5.32382
-4.88498
-4.79682
-4.31272
-4.22227
-3.76626
-3.68309
-3.27359
-3.19962
-2.83898
-2.77413
-2.45929
-2.40276
-2.1287
-2.07941
-1.8398
-1.7962
-1.58025
-1.53716
-1.29159
-1.06854
-1.03504
-0.894678
-0.870609
-0.758672
-0.739005
-0.645779
-0.629277
-0.550513
-0.536538
-0.469685
-0.457822
-0.401084
-0.391039
-0.343137
-0.334718
-0.294947
-0.28811
-0.256745
-0.251819
-0.231668
-0.227588
-0.20504
-0.200811
-0.179402
-0.175488
-0.156166
-0.152672
-0.135618
-0.132555
-0.117712
-0.115071
-0.102433
-0.100255
-0.0902993
-0.0888392
-0.0839705
-0.0843193
-0.0948167
-0.102962
-0.192183
-0.38063
-0.435181
-0.82629
-0.951696
-1.84371
-1.93049
-1.93152
-1.92986
-1.92933
-15.5775
-11.0729
-11.0104
-8.77672
-8.7859
-7.29678
-7.30162
-6.18865
-6.19026
-5.35344
-5.35649
-4.84194
-4.84444
-4.26514
-4.26491
-3.72028
-3.72045
-3.23182
-3.23217
-2.80203
-2.8024
-2.42697
-2.42735
-2.10062
-2.10104
-1.81562
-1.81653
-1.56079
-1.56465
-1.28786
-1.04031
-1.04465
-0.879182
-0.880023
-0.74688
-0.747139
-0.636072
-0.636219
-0.54234
-0.542448
-0.462752
-0.462837
-0.39519
-0.395256
-0.338132
-0.338174
-0.290719
-0.29073
-0.253247
-0.253365
-0.229719
-0.229827
-0.20284
-0.202827
-0.177254
-0.17726
-0.154203
-0.154218
-0.133873
-0.133887
-0.116179
-0.116185
-0.101089
-0.101064
-0.0890917
-0.0889359
-0.0826959
-0.0818363
-0.0919916
-0.0872459
-0.175168
-0.390659
-0.386321
-0.845675
-0.854343
-1.95808
-1.96202
-1.93881
-1.93157
-1.92982
-16.3455
-10.5467
-11.2257
-8.47081
-8.93899
-7.09771
-7.4215
-6.04174
-6.2801
-5.24057
-5.40987
-4.77822
-4.91534
-4.19441
-4.32933
-3.6525
-3.77737
-3.17051
-3.28194
-2.74785
-2.84572
-2.37962
-2.46503
-2.05946
-2.13412
-1.77999
-1.84712
-1.53095
-1.60336
-1.28296
-1.002
-1.06106
-0.857037
-0.894799
-0.729755
-0.759729
-0.621918
-0.646924
-0.530409
-0.551552
-0.45263
-0.470563
-0.38659
-0.401763
-0.330842
-0.343533
-0.284593
-0.294852
-0.248246
-0.255862
-0.226821
-0.23315
-0.199562
-0.205866
-0.174084
-0.179957
-0.151319
-0.156579
-0.131315
-0.13593
-0.113939
-0.117904
-0.0991426
-0.102352
-0.0874122
-0.0892768
-0.0812068
-0.0789133
-0.089763
-0.0678233
-0.153051
-0.409481
-0.318913
-0.883087
-0.713187
-2.11644
-1.99464
-1.94546
-1.93305
-1.93024
-17.3453
-9.76139
-11.5784
-8.03598
-9.18446
-6.81203
-7.60952
-5.83012
-6.42107
-5.07934
-5.49529
-4.68377
-5.02056
-4.08945
-4.42622
-3.55266
-3.86357
-3.08046
-3.35754
-2.66841
-2.9116
-2.31022
-2.52235
-1.99909
-2.18434
-1.72751
-1.89305
-1.48557
-1.6578
-1.27649
-0.950104
-1.08799
-0.825222
-0.91769
-0.704832
-0.779032
-0.601254
-0.663293
-0.512974
-0.565461
-0.437835
-0.482367
-0.374026
-0.411715
-0.320209
-0.351758
-0.275701
-0.30125
-0.241078
-0.259828
-0.22251
-0.238072
-0.19469
-0.21043
-0.169409
-0.184035
-0.147079
-0.160162
-0.127562
-0.139038
-0.110661
-0.120533
-0.0963184
-0.104366
-0.0850613
-0.0900157
-0.0794874
-0.0754652
-0.0888467
-0.0441146
-0.124086
-0.442183
-0.225315
-0.949862
-0.509105
-2.3358
-2.02435
-1.95063
-1.93415
-1.93054
-18.6489
-8.60035
-12.1457
-7.41382
-9.57107
-6.39987
-7.90094
-5.524
-6.63965
-4.84812
-5.63012
-4.54368
-5.17681
-3.93408
-4.57183
-3.40574
-3.99381
-2.9483
-3.47206
-2.55194
-3.01153
-2.20854
-2.60935
-1.91062
-2.2605
-1.65037
-1.96214
-1.41722
-1.73459
-1.26803
-0.879815
-1.13114
-0.779366
-0.952961
-0.66858
-0.808569
-0.57114
-0.688298
-0.487558
-0.586705
-0.416275
-0.500407
-0.355731
-0.426945
-0.304755
-0.364389
-0.262838
-0.31117
-0.23084
-0.266122
-0.216165
-0.245434
-0.187529
-0.217341
-0.162578
-0.190247
-0.140903
-0.165636
-0.122106
-0.143799
-0.105908
-0.124581
-0.0922536
-0.107524
-0.0817857
-0.0914197
-0.0775487
-0.0713621
-0.0902902
-0.0154532
-0.0856215
-0.496295
-0.0940723
-1.06324
-0.214319
-2.64066
-2.04453
-1.9535
-1.93472
-1.93068
18.6489
8.60035
12.1457
7.41382
9.57107
6.39987
7.90094
5.524
6.63965
4.84812
5.63012
4.54368
5.17681
3.93408
4.57183
3.40574
3.99381
2.94829
3.47206
2.55194
3.01153
2.20854
2.60935
1.91062
2.2605
1.65037
1.96214
1.41721
1.73459
1.26803
0.879814
1.13114
0.779365
0.952961
0.668579
0.808569
0.571139
0.688297
0.487557
0.586705
0.416274
0.500406
0.35573
0.426945
0.304754
0.364389
0.262838
0.311169
0.230839
0.266122
0.216165
0.245433
0.187529
0.217341
0.162577
0.190247
0.140903
0.165636
0.122106
0.143799
0.105908
0.124581
0.0922534
0.107524
0.0817855
0.0914197
0.0775485
0.0713621
0.0902901
0.0154532
0.0856213
0.496295
0.0940722
1.06324
0.214318
2.64066
2.04452
1.95349
1.93471
1.93067
17.3453
9.7614
11.5784
8.03598
9.18446
6.81203
7.60953
5.83012
6.42107
5.07935
5.49529
4.68377
5.02057
4.08945
4.42622
3.55267
3.86357
3.08047
3.35754
2.66841
2.9116
2.31022
2.52235
1.99909
2.18435
1.72751
1.89306
1.48557
1.6578
1.2765
0.950106
1.088
0.825224
0.917692
0.704833
0.779034
0.601255
0.663294
0.512976
0.565462
0.437836
0.482368
0.374027
0.411716
0.320209
0.351759
0.275702
0.301251
0.241079
0.259829
0.222511
0.238073
0.194691
0.210431
0.169409
0.184036
0.14708
0.160162
0.127563
0.139038
0.110662
0.120534
0.096319
0.104367
0.0850619
0.0900164
0.0794879
0.0754658
0.0888471
0.044115
0.124086
0.442184
0.225316
0.949863
0.509105
2.3358
2.02435
1.95063
1.93415
1.93054
16.3455
10.5467
11.2257
8.47082
8.93899
7.09771
7.42151
6.04175
6.28011
5.24057
5.40987
4.77823
4.91535
4.19442
4.32933
3.65251
3.77738
3.17051
3.28194
2.74786
2.84573
2.37963
2.46503
2.05946
2.13412
1.77999
1.84713
1.53095
1.60337
1.28297
1.00201
1.06106
0.85704
0.894803
0.729758
0.759732
0.621921
0.646927
0.530412
0.551555
0.452632
0.470566
0.386593
0.401765
0.330844
0.343535
0.284595
0.294854
0.248248
0.255864
0.226823
0.233152
0.199564
0.205868
0.174085
0.179959
0.15132
0.15658
0.131316
0.135931
0.11394
0.117906
0.0991439
0.102353
0.0874134
0.0892779
0.0812079
0.0789143
0.0897639
0.0678241
0.153051
0.409482
0.318914
0.883088
0.713188
2.11644
1.99464
1.94546
1.93305
1.93024
15.5776
11.0729
11.0104
8.77673
8.78591
7.29679
7.30163
6.18865
6.19027
5.35345
5.3565
4.84195
4.84445
4.26515
4.26492
3.72028
3.72046
3.23183
3.23217
2.80203
2.80241
2.42698
2.42735
2.10063
2.10105
1.81562
1.81653
1.56079
1.56465
1.28787
1.04031
1.04466
0.879187
0.880027
0.746884
0.747143
0.636076
0.636223
0.542343
0.542451
0.462755
0.46284
0.395193
0.395259
0.338134
0.338177
0.290721
0.290733
0.253249
0.253367
0.229721
0.229829
0.202842
0.202829
0.177256
0.177262
0.154205
0.15422
0.133875
0.133889
0.116181
0.116187
0.10109
0.101066
0.089093
0.0889373
0.0826971
0.0818375
0.0919926
0.0872469
0.175169
0.39066
0.386322
0.845676
0.854344
1.95808
1.96202
1.93881
1.93157
1.92982
14.9898
11.4214
10.882
8.99293
8.69275
7.43612
7.22647
6.29098
6.13398
5.43274
5.32383
4.88498
4.79683
4.31273
4.22228
3.76627
3.6831
3.27359
3.19963
2.83899
2.77413
2.4593
2.40276
2.12871
2.07942
1.83981
1.79621
1.58025
1.53716
1.2916
1.06854
1.03505
0.894683
0.870614
0.758676
0.739009
0.645783
0.629281
0.550517
0.536541
0.469689
0.457825
0.401087
0.391042
0.34314
0.33472
0.29495
0.288113
0.256747
0.251822
0.23167
0.22759
0.205043
0.200813
0.179404
0.17549
0.156168
0.152674
0.13562
0.132556
0.117714
0.115073
0.102435
0.100257
0.0903007
0.0888406
0.0839718
0.0843206
0.0948179
0.102963
0.192184
0.380632
0.435183
0.826292
0.951698
1.84371
1.93049
1.93152
1.92986
1.92933
14.5448
11.6488
10.8076
9.14558
8.63787
7.53357
7.18034
6.36217
6.09945
5.48834
5.30437
4.914
4.76505
4.34456
4.19427
3.79735
3.65879
3.30194
3.17855
2.86412
2.75586
2.48129
2.38688
2.1478
2.0654
1.85615
1.78278
1.5928
1.51778
1.29443
1.08919
1.02971
0.90553
0.864717
0.76678
0.73382
0.652425
0.624832
0.556101
0.532749
0.474424
0.454607
0.405115
0.38834
0.346568
0.332519
0.297862
0.286475
0.259189
0.250886
0.232978
0.226091
0.206511
0.199486
0.180854
0.174334
0.157499
0.151672
0.136806
0.131696
0.118759
0.11436
0.103361
0.0997601
0.0911692
0.088881
0.0850384
0.0863984
0.0977377
0.115438
0.20523
0.375959
0.470581
0.817535
1.01839
1.76154
1.90239
1.92435
1.92811
1.92883
14.2157
11.794
10.766
9.25207
8.60685
7.60098
7.15282
6.41115
6.07887
5.52686
5.29316
4.93336
4.74414
4.36559
4.17612
3.8181
3.64322
3.32095
3.16512
2.88101
2.74424
2.49608
2.37678
2.16064
2.05646
1.86706
1.77403
1.60075
1.50433
1.29654
1.10401
1.02697
0.913045
0.861109
0.772287
0.730571
0.656916
0.622031
0.559873
0.530357
0.477622
0.452579
0.407836
0.386641
0.348888
0.331144
0.299846
0.285475
0.260873
0.250337
0.233846
0.225102
0.207479
0.198624
0.18182
0.173593
0.158391
0.151033
0.137603
0.131149
0.119464
0.113911
0.103993
0.0994636
0.0917864
0.0889842
0.0858976
0.0880777
0.100404
0.125028
0.215039
0.374331
0.495886
0.814623
1.06338
1.70348
1.87905
1.91789
1.92648
1.92835
13.9834
11.8834
10.7438
9.32381
8.59026
7.64609
7.13705
6.44375
6.06709
5.55265
5.28701
4.94591
4.7308
4.37906
4.16473
3.83153
3.63356
3.33331
3.15682
2.89201
2.73708
2.50571
2.37056
2.16899
2.05093
1.87413
1.76848
1.60564
1.49534
1.29804
1.11422
1.0257
0.918083
0.858978
0.775913
0.728602
0.659859
0.620323
0.56234
0.528896
0.479713
0.45134
0.409617
0.385605
0.35041
0.330313
0.301154
0.284885
0.261996
0.250027
0.234406
0.224469
0.208098
0.198081
0.182444
0.173131
0.15897
0.150638
0.138122
0.130813
0.119925
0.113638
0.10441
0.0992939
0.0922094
0.0890996
0.0865467
0.0893518
0.102579
0.132004
0.222077
0.374213
0.513305
0.81451
1.09273
1.66399
1.86118
1.91265
1.92512
1.92794
13.8352
11.9344
10.7328
9.3681
8.5821
7.67381
7.12865
6.4637
6.06082
5.56849
5.28387
4.95342
4.72294
4.38705
4.15809
3.83955
3.62798
3.34072
3.15207
2.89862
2.73299
2.51151
2.36701
2.17401
2.04776
1.87835
1.76523
1.60842
1.48983
1.29901
1.12062
1.0252
0.921184
0.857809
0.77811
0.727493
0.661636
0.619355
0.563829
0.528067
0.480974
0.450636
0.410692
0.385019
0.351329
0.329845
0.301947
0.284562
0.262683
0.249864
0.234739
0.224094
0.208463
0.197764
0.182817
0.172864
0.159317
0.150411
0.138434
0.130621
0.120202
0.113484
0.104663
0.0992037
0.0924741
0.0891934
0.0869823
0.0902096
0.104106
0.136555
0.226633
0.374617
0.524238
0.815316
1.11035
1.63946
1.84913
1.90897
1.92415
1.92765
13.763
11.9575
10.7284
9.38925
8.57884
7.687
7.12505
6.47317
6.05813
5.57603
5.28258
4.95693
4.7193
4.39075
4.15505
3.8433
3.62544
3.3442
3.14991
2.90172
2.73113
2.51423
2.3654
2.17637
2.04632
1.88032
1.76373
1.60968
1.48722
1.29949
1.1237
1.02505
0.922662
0.857295
0.779147
0.726995
0.662472
0.618919
0.564529
0.527693
0.481567
0.450319
0.411197
0.384755
0.351762
0.329636
0.302322
0.28442
0.26301
0.249795
0.234895
0.22392
0.208633
0.197618
0.182991
0.172743
0.15948
0.150307
0.13858
0.130534
0.120333
0.113415
0.104783
0.099165
0.0926016
0.0892452
0.087201
0.0906414
0.104892
0.138801
0.228873
0.374956
0.529514
0.815964
1.11861
1.62771
1.84307
1.90707
1.92364
1.92749
-13.6266
-11.9376
-10.8746
-9.86315
-9.31954
-8.81671
-8.53885
-8.26768
-8.11713
-7.96837
-7.86579
-7.72998
-7.63429
-7.5096
-7.42262
-7.31028
-7.23215
-7.13152
-7.0617
-6.97199
-6.90993
-6.83047
-6.77567
-6.70572
-6.6575
-6.59587
-6.55267
-6.49582
-6.4511
-6.38325
-6.32059
-6.286
-6.25099
-6.22908
-6.20347
-6.1867
-6.16639
-6.15294
-6.1365
-6.12557
-6.11217
-6.10328
-6.09238
-6.08516
-6.07637
-6.0706
-6.06367
-6.05923
-6.05408
-6.051
-6.04768
-6.04537
-6.04233
-6.04034
-6.03799
-6.03666
-6.0354
-6.03503
-6.03533
-6.03636
-6.03894
-6.0421
-6.04832
-6.0551
-6.06776
-6.08156
-6.10775
-6.13893
-6.20313
-6.29677
-6.5086
-6.80265
-7.06553
-7.50316
-7.92084
-8.58509
-8.86476
-8.94775
-8.96923
-8.97423
-13.6942
-11.9126
-10.8725
-9.84444
-9.31791
-8.80771
-8.53858
-8.26286
-8.11706
-7.96653
-7.86712
-7.72837
-7.63545
-7.50809
-7.42363
-7.30891
-7.23305
-7.13029
-7.0625
-6.97089
-6.91063
-6.82948
-6.77628
-6.70485
-6.65804
-6.59513
-6.55322
-6.49534
-6.45202
-6.38305
-6.31946
-6.28602
-6.25047
-6.22922
-6.20311
-6.18684
-6.16612
-6.15306
-6.13628
-6.12567
-6.11199
-6.10336
-6.09223
-6.08523
-6.07625
-6.07065
-6.06357
-6.05926
-6.054
-6.05101
-6.04764
-6.04539
-6.04229
-6.04036
-6.03795
-6.03665
-6.03537
-6.03501
-6.0353
-6.03629
-6.03892
-6.04198
-6.0483
-6.05486
-6.06771
-6.08106
-6.10755
-6.13761
-6.20195
-6.29204
-6.50531
-6.8039
-7.05854
-7.50395
-7.91097
-8.60048
-8.87262
-8.95021
-8.96989
-8.97443
-13.833
-11.8579
-10.87
-9.80567
-9.31563
-8.78906
-8.53857
-8.25284
-8.11718
-7.96263
-7.87002
-7.72493
-7.63798
-7.50487
-7.42585
-7.30599
-7.23503
-7.12766
-7.06424
-6.96852
-6.91216
-6.82738
-6.77761
-6.703
-6.65922
-6.59355
-6.5544
-6.49427
-6.45397
-6.38262
-6.31713
-6.28612
-6.24937
-6.22957
-6.20237
-6.18716
-6.16554
-6.15333
-6.13581
-6.12589
-6.11161
-6.10353
-6.09192
-6.08537
-6.07599
-6.07076
-6.06335
-6.05932
-6.05383
-6.05104
-6.04755
-6.04546
-6.0422
-6.04039
-6.03787
-6.03665
-6.0353
-6.03495
-6.03525
-6.03617
-6.03887
-6.04173
-6.04827
-6.05438
-6.06765
-6.08004
-6.1072
-6.13492
-6.19975
-6.28239
-6.49861
-6.80691
-7.04392
-7.50629
-7.88981
-8.63256
-8.88827
-8.95499
-8.97116
-8.97481
-14.0508
-11.7637
-10.8705
-9.74392
-9.3148
-8.75938
-8.53998
-8.23681
-8.11805
-7.95626
-7.87501
-7.71917
-7.64236
-7.49948
-7.42971
-7.3011
-7.23846
-7.12327
-7.06728
-6.96459
-6.91483
-6.82387
-6.77994
-6.69991
-6.66127
-6.59091
-6.55643
-6.49241
-6.45716
-6.38196
-6.31342
-6.28645
-6.24759
-6.2302
-6.20114
-6.18773
-6.16458
-6.15381
-6.13503
-6.12628
-6.11098
-6.10385
-6.0914
-6.08562
-6.07557
-6.07095
-6.06301
-6.05945
-6.05354
-6.05109
-6.04741
-6.04557
-6.04206
-6.04045
-6.03773
-6.03665
-6.03518
-6.03487
-6.03516
-6.03597
-6.03883
-6.04133
-6.04825
-6.0536
-6.06762
-6.07843
-6.10684
-6.13074
-6.19683
-6.26739
-6.48822
-6.81276
-7.02029
-7.51178
-7.85428
-8.68412
-8.91149
-8.9618
-8.97292
-8.97534
-14.3601
-11.6138
-10.8803
-9.65428
-9.31902
-8.71625
-8.54473
-8.2134
-8.12064
-7.94667
-7.883
-7.71024
-7.64938
-7.49116
-7.43592
-7.29358
-7.24399
-7.11651
-7.07218
-6.95853
-6.91914
-6.81848
-6.78371
-6.69516
-6.6646
-6.58683
-6.55963
-6.48939
-6.46195
-6.38104
-6.30805
-6.28725
-6.24496
-6.23131
-6.19928
-6.1887
-6.16312
-6.15461
-6.13386
-6.12694
-6.11003
-6.10439
-6.09062
-6.08605
-6.07493
-6.07127
-6.06248
-6.05967
-6.05312
-6.05119
-6.04719
-6.04574
-6.04183
-6.04056
-6.03753
-6.03667
-6.03502
-6.03477
-6.03506
-6.03568
-6.03879
-6.04075
-6.0483
-6.05248
-6.06771
-6.07612
-6.10665
-6.12488
-6.19373
-6.24638
-6.47369
-6.8233
-6.9853
-7.52322
-7.79926
-8.75978
-8.94178
-8.97016
-8.97504
-8.97597
-14.7793
-11.3833
-10.9098
-9.529
-9.33395
-8.65586
-8.55588
-8.18046
-8.12648
-7.93266
-7.89534
-7.69683
-7.6603
-7.47873
-7.44561
-7.28235
-7.25264
-7.10642
-7.07986
-6.94951
-6.9259
-6.81046
-6.78963
-6.6881
-6.66981
-6.58073
-6.56456
-6.48467
-6.46887
-6.3798
-6.30059
-6.28891
-6.24118
-6.23314
-6.19657
-6.19026
-6.16099
-6.1559
-6.13213
-6.12799
-6.10862
-6.10524
-6.08947
-6.08673
-6.07399
-6.0718
-6.06172
-6.06003
-6.05252
-6.05137
-6.04688
-6.04602
-6.0415
-6.04073
-6.03724
-6.03672
-6.03481
-6.03465
-6.03494
-6.0353
-6.03881
-6.03995
-6.04848
-6.05092
-6.06808
-6.07291
-6.10696
-6.11699
-6.19127
-6.21838
-6.45426
-6.84134
-6.93527
-7.54515
-7.71685
-8.86658
-8.97822
-8.97948
-8.97731
-8.97663
-15.3343
-11.0359
-10.9757
-9.35629
-9.3682
-8.57236
-8.57804
-8.13465
-8.13791
-7.91239
-7.91413
-7.67695
-7.67702
-7.46035
-7.46051
-7.26578
-7.26594
-7.09154
-7.09169
-6.93621
-6.93634
-6.79865
-6.79877
-6.6777
-6.67785
-6.57171
-6.57203
-6.47738
-6.47873
-6.37816
-6.29043
-6.29202
-6.23581
-6.23612
-6.19265
-6.19274
-6.15788
-6.15794
-6.12962
-6.12966
-6.10657
-6.1066
-6.0878
-6.08782
-6.07263
-6.07265
-6.06063
-6.06063
-6.05166
-6.05169
-6.04641
-6.04644
-6.04102
-6.04101
-6.03683
-6.03682
-6.03452
-6.0345
-6.03482
-6.03479
-6.03891
-6.03885
-6.04891
-6.04877
-6.06894
-6.06855
-6.10822
-6.10653
-6.19071
-6.18204
-6.42879
-6.87111
-6.8646
-7.5846
-7.59533
-9.0149
-9.01907
-8.98892
-8.97953
-8.97727
-16.0612
-10.5191
-11.1039
-9.11833
-9.43475
-8.45679
-8.61816
-8.07098
-8.15849
-7.88303
-7.94248
-7.64757
-7.70241
-7.43331
-7.4832
-7.24141
-7.28623
-7.06969
-7.10974
-6.91669
-6.95229
-6.78133
-6.81277
-6.66246
-6.69014
-6.55844
-6.5833
-6.46625
-6.49267
-6.376
-6.27669
-6.29743
-6.22818
-6.24085
-6.18698
-6.19662
-6.15338
-6.16111
-6.12597
-6.13225
-6.10359
-6.1087
-6.08537
-6.08951
-6.07066
-6.07397
-6.05905
-6.06159
-6.05044
-6.05221
-6.04574
-6.04707
-6.04033
-6.04147
-6.03625
-6.03701
-6.03414
-6.03435
-6.03472
-6.03412
-6.03919
-6.03735
-6.04974
-6.0458
-6.07063
-6.06257
-6.11114
-6.09264
-6.19386
-6.13547
-6.39549
-6.91884
-6.76487
-7.65242
-7.41746
-9.21985
-9.0613
-8.99754
-8.98146
-8.97781
-17.0098
-9.75709
-11.3349
-8.78829
-9.55308
-8.29565
-8.68663
-7.98192
-8.19359
-7.84028
-7.985
-7.6042
-7.74075
-7.3935
-7.51755
-7.20557
-7.31697
-7.03757
-7.13712
-6.88802
-6.9765
-6.75591
-6.83403
-6.6401
-6.7088
-6.5389
-6.60024
-6.44937
-6.51232
-6.37316
-6.25815
-6.30645
-6.21727
-6.24824
-6.17877
-6.20262
-6.14684
-6.16599
-6.12067
-6.13623
-6.09927
-6.11195
-6.08185
-6.09213
-6.06781
-6.07603
-6.05677
-6.0631
-6.0487
-6.05307
-6.04475
-6.04803
-6.03932
-6.04217
-6.03544
-6.03735
-6.03364
-6.03418
-6.03465
-6.03322
-6.03974
-6.03528
-6.05122
-6.04169
-6.07363
-6.05434
-6.11674
-6.07396
-6.20339
-6.07618
-6.35166
-6.99365
-6.62348
-7.76514
-7.15809
-9.50322
-9.09974
-9.00425
-8.9829
-8.97822
-18.2485
-8.64184
-11.7308
-8.32574
-9.75224
-8.06852
-8.79887
-7.85615
-8.25123
-7.77755
-8.04849
-7.54009
-7.79839
-7.33479
-7.5693
-7.15275
-7.36329
-6.99024
-7.17839
-6.8458
-7.01302
-6.71849
-6.86612
-6.60718
-6.73697
-6.51006
-6.62564
-6.42391
-6.54002
-6.36931
-6.23305
-6.32093
-6.20153
-6.25962
-6.1668
-6.21177
-6.13728
-6.17343
-6.1129
-6.1423
-6.09294
-6.11688
-6.07669
-6.09611
-6.06363
-6.07916
-6.05346
-6.06542
-6.0462
-6.05442
-6.04329
-6.04946
-6.03783
-6.04325
-6.03426
-6.03791
-6.03296
-6.03401
-6.03465
-6.03199
-6.04072
-6.03239
-6.05372
-6.03591
-6.07867
-6.04282
-6.12655
-6.04838
-6.22318
-6.00076
-6.29316
-7.10896
-6.42163
-7.94783
-6.78065
-9.89659
-9.1259
-9.00804
-8.98371
-8.97847
)
;

boundaryField
{
    F1_1
    {
        type            calculated;
        value           nonuniform List<scalar> 
80
(
18.9507
7.97334
11.9791
8.04086
9.87583
7.90461
8.86786
7.71459
8.28874
7.55113
7.90316
7.4892
7.75837
7.28656
7.55872
7.10992
7.36524
6.95287
7.18585
6.81333
7.02265
6.69035
6.87628
6.58287
6.74689
6.48907
6.63535
6.40556
6.55171
6.36438
6.21714
6.3274
6.19091
6.26461
6.15862
6.21578
6.13072
6.1767
6.10758
6.14497
6.0886
6.11906
6.07315
6.09786
6.06077
6.08053
6.05117
6.0664
6.04445
6.0549
6.04216
6.05
6.03674
6.04363
6.0334
6.03803
6.03242
6.03374
6.03456
6.03113
6.04125
6.03057
6.05519
6.03242
6.08175
6.03601
6.13267
6.03347
6.23617
5.95848
6.25959
7.17871
6.30273
8.06042
6.55697
10.1254
9.13458
9.00907
8.98393
8.97854
)
;
    }
    F1_2
    {
        type            calculated;
        value           nonuniform List<scalar> 
80
(
-19.387
-7.90875
-12.4947
-7.04719
-9.80699
-6.15622
-8.0778
-5.34288
-6.77234
-4.71181
-5.71252
-4.46003
-5.27022
-3.8414
-4.65927
-3.31829
-4.07219
-2.86971
-3.54105
-2.48272
-3.07176
-2.14812
-2.66179
-1.85806
-2.3064
-1.60449
-2.00366
-1.37621
-1.77958
-1.26325
-0.839391
-1.15763
-0.752288
-0.974347
-0.647109
-0.826438
-0.553294
-0.703418
-0.472497
-0.599553
-0.403501
-0.51132
-0.344897
-0.436165
-0.295611
-0.372047
-0.255243