/*--------------------------------*- C++ -*----------------------------------*\
| =========                 |                                                 |
| \\      /  F ield         | OpenFOAM: The Open Source CFD Toolbox           |
|  \\    /   O peration     | Version:  5.x                                   |
|   \\  /    A nd           | Web:      www.OpenFOAM.org                      |
|    \\/     M anipulation  |                                                 |
\*---------------------------------------------------------------------------*/
FoamFile
{
    version     2.0;
    format      ascii;
    class       volScalarField;
    location    "13.2";
    object      T;
}
// * * * * * * * * * * * * * * * * * * * * * * * * * * * * * * * * * * * * * //

dimensions      [0 0 0 1 0 0 0];

internalField   nonuniform List<scalar> 
2048
(
9.81021
9.8104
9.81079
9.81136
9.8121
9.81298
9.81399
9.81511
9.81632
9.81759
9.81892
9.82029
9.82168
9.82308
9.82448
9.82587
9.82725
9.8286
9.82992
9.83121
9.83246
9.83368
9.83485
9.83598
9.83706
9.8381
9.83909
9.84003
9.84092
9.84175
9.84251
9.84321
9.84385
9.8444
9.84487
9.84525
9.84553
9.8457
9.84576
9.84569
9.84549
9.84515
9.84465
9.84399
9.84317
9.84218
9.84101
9.83966
9.83815
9.83648
9.83467
9.83274
9.83072
9.82865
9.82658
9.82454
9.82259
9.82078
9.81915
9.81773
9.81656
9.81567
9.81506
9.81475
9.43876
9.43935
9.4405
9.4422
9.44438
9.44701
9.45001
9.45334
9.45692
9.46071
9.46465
9.4687
9.47282
9.47697
9.48113
9.48525
9.48932
9.49332
9.49723
9.50105
9.50475
9.50834
9.51181
9.51515
9.51835
9.52143
9.52435
9.52713
9.52975
9.53221
9.53448
9.53656
9.53843
9.54007
9.54147
9.5426
9.54344
9.54396
9.54413
9.54394
9.54335
9.54234
9.54088
9.53894
9.53651
9.53357
9.53012
9.52614
9.52166
9.51671
9.51133
9.5056
9.4996
9.49345
9.48728
9.48122
9.47543
9.47004
9.46518
9.46096
9.45748
9.45482
9.45301
9.4521
9.08311
9.08408
9.086
9.08881
9.09242
9.09676
9.10172
9.10719
9.11309
9.11932
9.12579
9.13244
9.1392
9.14601
9.15281
9.15956
9.16622
9.17277
9.17917
9.1854
9.19146
9.19732
9.20299
9.20844
9.21369
9.21871
9.22349
9.22804
9.23233
9.23634
9.24007
9.24347
9.24654
9.24925
9.25154
9.25341
9.25479
9.25566
9.25597
9.25568
9.25474
9.25311
9.25075
9.24761
9.24365
9.23886
9.23321
9.22671
9.21937
9.21124
9.2024
9.19297
9.18308
9.17293
9.16273
9.15272
9.14314
9.13423
9.1262
9.11924
9.1135
9.1091
9.10612
9.10462
8.74234
8.74371
8.74639
8.75031
8.75536
8.7614
8.76829
8.77589
8.78407
8.79269
8.80164
8.81082
8.82014
8.82952
8.83888
8.84818
8.85734
8.86634
8.87513
8.88369
8.892
8.90004
8.90782
8.9153
8.9225
8.92939
8.93596
8.9422
8.9481
8.95362
8.95874
8.96344
8.96768
8.97141
8.9746
8.97719
8.97913
8.98037
8.98084
8.98048
8.97924
8.97704
8.97384
8.96957
8.96418
8.95763
8.94989
8.94095
8.93085
8.91963
8.9074
8.89432
8.88058
8.86646
8.85225
8.83829
8.82493
8.8125
8.8013
8.79161
8.78363
8.77752
8.77339
8.77131
8.41562
8.41738
8.42085
8.4259
8.4324
8.44016
8.449
8.45872
8.46915
8.48013
8.49151
8.50317
8.51499
8.52687
8.53873
8.55049
8.56208
8.57344
8.58453
8.59533
8.6058
8.61594
8.62573
8.63517
8.64424
8.65292
8.66121
8.66909
8.67653
8.68351
8.68999
8.69595
8.70133
8.70608
8.71014
8.71346
8.71597
8.71759
8.71825
8.71787
8.71638
8.71369
8.70972
8.70441
8.69767
8.68945
8.67971
8.66844
8.65565
8.64141
8.62584
8.60914
8.59156
8.57344
8.55519
8.53724
8.52004
8.50405
8.48967
8.47723
8.467
8.45918
8.45391
8.45125
8.10216
8.10434
8.10862
8.11485
8.12284
8.13236
8.14316
8.15501
8.16769
8.18101
8.19479
8.20888
8.22315
8.23748
8.25177
8.26592
8.27985
8.2935
8.30682
8.31976
8.33232
8.34447
8.3562
8.3675
8.37836
8.38878
8.39872
8.40817
8.41711
8.4255
8.43331
8.44049
8.44698
8.45274
8.45769
8.46174
8.46483
8.46687
8.46775
8.4674
8.46571
8.46259
8.45794
8.45166
8.44366
8.43388
8.42224
8.40871
8.39332
8.37612
8.35725
8.33694
8.31549
8.29333
8.27094
8.24891
8.22779
8.20817
8.19054
8.17532
8.16283
8.1533
8.14688
8.14365
7.80126
7.80388
7.80902
7.81648
7.82601
7.83733
7.85014
7.86414
7.87908
7.89472
7.91088
7.92737
7.94404
7.96077
7.97743
7.99391
8.01012
8.02598
8.04144
8.05646
8.07101
8.08508
8.09867
8.11177
8.12436
8.13643
8.14796
8.15894
8.16932
8.17908
8.18818
8.19656
8.20416
8.21091
8.21674
8.22155
8.22524
8.22771
8.22886
8.22858
8.22676
8.22328
8.21802
8.21087
8.20172
8.19046
8.17702
8.16134
8.14342
8.12332
8.10118
8.07724
8.05187
8.02557
7.99895
7.9727
7.94754
7.92417
7.90322
7.88517
7.8704
7.85916
7.85159
7.84779
7.51226
7.51535
7.52139
7.53015
7.5413
7.55449
7.56935
7.58554
7.60275
7.62071
7.63922
7.65808
7.67712
7.6962
7.71518
7.73393
7.75235
7.77036
7.78789
7.80489
7.82136
7.83728
7.85265
7.86746
7.88171
7.89538
7.90845
7.92089
7.93267
7.94376
7.95411
7.96367
7.97236
7.98011
7.98682
7.99239
7.99671
7.99965
8.00111
8.00096
7.99907
7.9953
7.98951
7.98158
7.97137
7.95875
7.9436
7.92587
7.90551
7.88256
7.85717
7.82959
7.80023
7.76969
7.73867
7.70804
7.67867
7.65143
7.62705
7.60612
7.58905
7.57609
7.5674
7.56304
7.23453
7.23812
7.24514
7.25528
7.26814
7.28328
7.30026
7.31867
7.33817
7.35845
7.37929
7.40048
7.42185
7.44324
7.46449
7.48546
7.50604
7.52613
7.54565
7.56457
7.58287
7.60056
7.61763
7.63409
7.64993
7.66514
7.67968
7.69354
7.70668
7.71906
7.73064
7.74135
7.75112
7.75986
7.76747
7.77381
7.77878
7.78223
7.78404
7.78406
7.78216
7.77817
7.77195
7.76334
7.75216
7.73828
7.72155
7.70185
7.67914
7.65342
7.6248
7.59355
7.56013
7.5252
7.48961
7.45439
7.42063
7.38935
7.36144
7.33757
7.31818
7.30353
7.29372
7.28881
6.96749
6.97163
6.97971
6.99133
7.006
7.02319
7.04236
7.06304
7.08483
7.10743
7.13058
7.15408
7.17774
7.20139
7.22488
7.24803
7.27071
7.29281
7.31425
7.33501
7.35507
7.37444
7.39314
7.41117
7.42854
7.44523
7.4612
7.47643
7.49088
7.50452
7.51729
7.52913
7.53997
7.54971
7.55821
7.56535
7.57099
7.57498
7.57718
7.57743
7.57557
7.57145
7.56487
7.55566
7.54364
7.52861
7.5104
7.48886
7.46389
7.43546
7.40365
7.36872
7.33114
7.29166
7.25129
7.21125
7.17286
7.13736
7.10581
7.07895
7.05725
7.04092
7.03003
7.0246
6.71061
6.71535
6.72457
6.73779
6.7544
6.77374
6.79518
6.81817
6.84229
6.86719
6.89262
6.91839
6.9443
6.97019
6.99587
7.02115
7.04588
7.06993
7.09323
7.11574
7.13747
7.15845
7.17871
7.19825
7.21709
7.23521
7.25255
7.2691
7.28482
7.29967
7.31361
7.32657
7.33847
7.3492
7.35861
7.36656
7.3729
7.37746
7.38008
7.38061
7.37887
7.37467
7.36782
7.35812
7.34534
7.32928
7.30971
7.28645
7.25934
7.22829
7.19333
7.15469
7.11287
7.06867
7.02328
6.97814
6.93485
6.89494
6.85963
6.82974
6.80574
6.78778
6.77586
6.76992
6.46335
6.46876
6.47924
6.4942
6.51288
6.53449
6.55828
6.58364
6.61008
6.63727
6.66496
6.69296
6.72109
6.74917
6.777
6.80438
6.83111
6.85706
6.88214
6.90633
6.92965
6.95216
6.97389
6.99489
7.01514
7.03462
7.0533
7.07112
7.08806
7.10409
7.11916
7.13322
7.14618
7.1579
7.16823
7.17701
7.18407
7.18923
7.19232
7.19317
7.19159
7.1874
7.18036
7.17025
7.15683
7.13985
7.11905
7.0942
7.06507
7.0315
6.99346
6.95111
6.90494
6.85584
6.80515
6.75459
6.70612
6.66156
6.62237
6.58944
6.56318
6.54366
6.53078
6.52438
6.22523
6.23138
6.24325
6.26011
6.28102
6.30503
6.33127
6.35903
6.3878
6.41725
6.44715
6.47734
6.50765
6.5379
6.56785
6.59728
6.62597
6.65376
6.68056
6.70634
6.73117
6.75512
6.77827
6.80064
6.82225
6.84306
6.86302
6.88208
6.90019
6.91736
6.93354
6.94868
6.96268
6.97539
6.98666
6.99629
7.00409
7.00987
7.01346
7.01468
7.01332
7.00919
7.00204
6.99163
6.97767
6.95989
6.93799
6.91167
6.88066
6.8447
6.80365
6.75761
6.70702
6.65281
6.59651
6.54018
6.48617
6.43674
6.39356
6.35759
6.32916
6.30818
6.29441
6.28759
5.9958
6.00276
6.01617
6.03511
6.05843
6.08498
6.11374
6.14395
6.17505
6.20672
6.23879
6.27112
6.30357
6.33595
6.368
6.39946
6.43006
6.45963
6.48807
6.51538
6.54162
6.56693
6.59141
6.61511
6.63803
6.66012
6.68132
6.70156
6.72081
6.73907
6.75633
6.77252
6.78756
6.80128
6.8135
6.82399
6.83255
6.83898
6.8431
6.84471
6.84363
6.83963
6.83245
6.82181
6.80742
6.78896
6.76609
6.73846
6.70571
6.6675
6.62356
6.57386
6.51877
6.45925
6.39702
6.33449
6.27455
6.21997
6.17271
6.13375
6.10325
6.08095
6.06641
6.05924
5.77459
5.78247
5.79759
5.81882
5.84474
5.87397
5.90536
5.93805
5.97146
6.0053
6.03947
6.07389
6.10844
6.14291
6.17704
6.21051
6.24299
6.27429
6.3043
6.33303
6.36061
6.38719
6.41293
6.43789
6.46207
6.48541
6.50781
6.52919
6.54953
6.56884
6.58714
6.60437
6.62044
6.63518
6.64835
6.65972
6.66906
6.67616
6.68083
6.68288
6.68212
6.6783
6.67117
6.6604
6.64568
6.62665
6.60294
6.57415
6.53983
6.49954
6.45284
6.39954
6.33989
6.27486
6.20632
6.13712
6.07081
6.01079
5.95938
5.9175
5.88511
5.86165
5.84647
5.83902
5.56119
5.57011
5.58713
5.61087
5.63961
5.67168
5.70579
5.74098
5.77666
5.81262
5.84881
5.88526
5.92185
5.95839
5.99459
6.03005
6.06438
6.09736
6.12887
6.15894
6.18774
6.21551
6.24244
6.26861
6.29401
6.31857
6.34214
6.36461
6.38598
6.40629
6.4256
6.44385
6.46095
6.4767
6.49085
6.50311
6.51325
6.52104
6.52628
6.52879
6.52839
6.52482
6.5178
6.50698
6.49202
6.47254
6.44813
6.41833
6.38262
6.34043
6.29115
6.23435
6.17012
6.09936
6.02412
5.94769
5.87448
5.80873
5.75312
5.70847
5.6744
5.64999
5.63432
5.62667
5.3552
5.36528
5.38443
5.41094
5.44272
5.4778
5.51471
5.55242
5.59033
5.6283
5.66644
5.70484
5.74344
5.78202
5.82028
5.85772
5.89388
5.92848
5.96142
5.99273
6.02266
6.05152
6.07956
6.10689
6.13348
6.15923
6.18395
6.20747
6.22981
6.25107
6.27135
6.2906
6.30872
6.32551
6.34065
6.35382
6.36476
6.37325
6.37908
6.38208
6.38206
6.37879
6.37195
6.36117
6.34606
6.32623
6.30125
6.2706
6.23369
6.18981
6.13815
6.078
6.00917
5.93251
5.85014
5.76586
5.68512
5.61331
5.55351
5.50629
5.47081
5.4457
5.42971
5.42195
5.15623
5.16762
5.18913
5.21871
5.2538
5.29204
5.33183
5.37207
5.41213
5.45202
5.49198
5.53227
5.57283
5.61343
5.65375
5.69319
5.73114
5.76732
5.80161
5.83406
5.86501
5.89486
5.92396
5.9524
5.98014
6.00707
6.03291
6.05743
6.08068
6.10284
6.12404
6.14428
6.16342
6.18125
6.1974
6.21149
6.22325
6.23244
6.23887
6.24237
6.24278
6.23986
6.23327
6.22259
6.20742
6.18735
6.16192
6.13057
6.09265
6.04732
5.99352
5.93019
5.85682
5.77408
5.68416
5.59128
5.50228
5.42407
5.36014
5.31064
5.27407
5.24853
5.23243
5.22465
4.96389
4.97678
5.00091
5.03389
5.07257
5.11411
5.15686
5.19963
5.24177
5.28343
5.3251
5.36721
5.40967
5.45226
5.49467
5.53612
5.57583
5.61355
5.64913
5.68261
5.71445
5.74518
5.77527
5.80478
5.83364
5.86175
5.88871
5.91418
5.93827
5.96125
5.98336
6.00456
6.0247
6.0436
6.06079
6.07581
6.08839
6.0983
6.10532
6.10934
6.1102
6.10767
6.10138
6.09088
6.07572
6.0555
6.02976
5.99786
5.95911
5.9126
5.85694
5.79067
5.71282
5.62388
5.52596
5.42363
5.32549
5.24052
5.17261
5.12121
5.08394
5.05829
5.04227
5.03458
4.77784
4.79241
4.81946
4.85622
4.89879
4.94378
4.98954
5.03484
5.07892
5.12222
5.16545
5.2093
5.25363
5.29816
5.3427
5.38621
5.42765
5.46685
5.50366
5.53806
5.57065
5.60216
5.63319
5.66373
5.69368
5.72299
5.75107
5.77743
5.80228
5.826
5.84898
5.87112
5.89226
5.91225
5.93052
5.94647
5.95988
5.9705
5.97812
5.98264
5.98397
5.98188
5.97597
5.96571
5.95063
5.93034
5.90439
5.87208
5.8327
5.78528
5.72808
5.65916
5.57695
5.48173
5.37541
5.26263
5.15424
5.06218
4.99056
4.93772
4.9002
4.87477
4.85905
4.85154
4.59772
4.61423
4.64448
4.68543
4.73225
4.78077
4.82961
4.87745
4.92332
4.96806
5.01268
5.05823
5.10438
5.1508
5.19754
5.24317
5.28628
5.32693
5.36492
5.40009
5.43331
5.46547
5.49739
5.52894
5.55994
5.59047
5.6197
5.64689
5.6724
5.69679
5.7206
5.74367
5.76578
5.78691
5.8063
5.82317
5.8374
5.84875
5.85694
5.86197
5.86378
5.86218
5.85669
5.84673
5.83179
5.8115
5.78547
5.75287
5.71303
5.66501
5.60664
5.53541
5.44899
5.34748
5.23243
5.108
4.98802
4.88855
4.81363
4.75994
4.72267
4.69781
4.6826
4.67538
4.4232
4.44194
4.47566
4.5213
4.57275
4.62485
4.67682
4.72721
4.77469
4.82066
4.86647
4.91368
4.96162
5.00985
5.05888
5.10673
5.15144
5.1935
5.23263
5.26843
5.30212
5.33479
5.36758
5.40012
5.43212
5.46393
5.49436
5.52229
5.54836
5.5733
5.59793
5.62192
5.64497
5.66729
5.68785
5.70562
5.72068
5.73276
5.7415
5.74702
5.74931
5.74824
5.74325
5.73365
5.71889
5.69866
5.67266
5.63988
5.59972
5.55143
5.49228
5.41918
5.32872
5.22097
5.09699
4.95951
4.82623
4.71913
4.6415
4.58767
4.55119
4.52726
4.51276
4.50592
4.25394
4.27529
4.31273
4.36362
4.42015
4.47576
4.53091
4.5839
4.63274
4.67973
4.72648
4.77535
4.82507
4.87496
4.92643
4.97665
5.02283
5.06628
5.10656
5.1428
5.1768
5.20981
5.24348
5.27699
5.3099
5.34311
5.37482
5.40337
5.42989
5.45525
5.48072
5.50562
5.52954
5.55312
5.57494
5.59356
5.60944
5.62226
5.63151
5.63751
5.64028
5.63979
5.63535
5.62617
5.61161
5.59148
5.56564
5.53276
5.49239
5.4442
5.38469
5.31022
5.21589
5.10205
4.96919
4.81699
4.6682
4.55338
4.47388
4.42074
4.38563
4.36297
4.34938
4.343
4.08961
4.11407
4.15537
4.21218
4.27433
4.33324
4.39162
4.44735
4.49722
4.54498
4.59236
4.64298
4.69448
4.74578
4.79991
4.85273
4.90017
4.94498
4.98646
5.02292
5.05707
5.09022
5.12482
5.15933
5.193
5.22773
5.26087
5.28989
5.31673
5.34235
5.36869
5.39452
5.4192
5.44416
5.46733
5.48672
5.50341
5.51701
5.52671
5.53316
5.53639
5.53654
5.53271
5.52402
5.50967
5.48964
5.46411
5.43119
5.39067
5.34296
5.28353
5.20833
5.11025
4.99052
4.84921
4.68031
4.51316
4.3908
4.31055
4.25902
4.22587
4.20481
4.19231
4.18648
3.92988
3.95811
4.00325
4.06679
4.13523
4.19702
4.25871
4.31738
4.36785
4.41617
4.46377
4.5163
4.56961
4.62195
4.67907
4.7348
4.78314
4.82934
4.87214
4.90853
4.94269
4.97571
5.01136
5.04689
5.0811
5.11758
5.15234
5.1816
5.20864
5.23431
5.26162
5.28839
5.31365
5.34014
5.36483
5.38483
5.40235
5.41678
5.42683
5.43372
5.43737
5.43822
5.43508
5.42693
5.41279
5.39284
5.36781
5.33487
5.29415
5.24739
5.18846
5.11331
5.01152
4.88616
4.73739
4.54943
4.36016
4.23087
4.15133
4.10243
4.07181
4.05267
4.04141
4.03618
3.77441
3.80735
3.856
3.92729
4.00285
4.06676
4.13191
4.19389
4.24434
4.29306
4.34033
4.39509
4.4503
4.50308
4.56365
4.62275
4.67144
4.71909
4.76345
4.79935
4.83341
4.86595
4.90288
4.93951
4.97387
5.0124
5.04908
5.07827
5.10542
5.13084
5.15929
5.18706
5.21259
5.24085
5.26727
5.28764
5.30601
5.32135
5.33162
5.33894
5.34296
5.34458
5.3422
5.33466
5.32072
5.30077
5.27648
5.24351
5.20244
5.15717
5.09912
5.02502
4.91939
4.78863
4.63425
4.42439
4.20806
4.07313
3.99611
3.95093
3.92338
3.90642
3.89653
3.89195
3.62283
3.66178
3.71319
3.79352
3.8773
3.94209
4.01093
4.07683
4.12639
4.17547
4.22162
4.27914
4.33642
4.38872
4.4534
4.51651
4.56472
4.61394
4.66026
4.69511
4.72905
4.7606
4.79917
4.83702
4.87095
4.91199
4.95101
4.97963
5.00687
5.03162
5.06149
5.09035
5.11572
5.14606
5.17451
5.19488
5.21415
5.23055
5.24085
5.24859
5.25289
5.2554
5.25384
5.247
5.2332
5.2131
5.18992
5.15686
5.11512
5.07203
5.0151
4.94337
4.83351
4.69745
4.54052
4.3054
4.05541
3.91717
3.84486
3.80449
3.78051
3.76594
3.75751
3.75362
3.47473
3.52158
3.57429
3.66531
3.75877
3.82254
3.89548
3.9662
4.01363
4.06325
4.10718
4.16829
4.22792
4.27836
4.3481
4.41612
4.46259
4.51364
4.56251
4.59551
4.62945
4.65929
4.70005
4.73932
4.77197
4.81614
4.85807
4.88542
4.91283
4.93633
4.96805
4.99816
5.02268
5.05558
5.08646
5.10626
5.12655
5.14421
5.15424
5.16247
5.16689
5.17044
5.16978
5.16373
5.15001
5.12952
5.10794
5.0747
5.03172
4.99173
4.93596
4.86839
4.7535
4.61194
4.45722
4.19281
3.9004
3.7627
3.69764
3.66313
3.64312
3.63111
3.6242
3.62102
3.32964
3.38707
3.43863
3.54254
3.64763
3.70754
3.78524
3.86213
3.90565
3.95637
3.99647
4.06239
4.12485
4.1714
4.24753
4.32172
4.36458
4.41788
4.47021
4.50019
4.53451
4.5616
4.60537
4.6464
4.67646
4.72464
4.77027
4.79533
4.82319
4.8446
4.87882
4.91041
4.93308
4.9692
5.00308
5.02149
5.04296
5.06221
5.07156
5.08041
5.08473
5.08952
5.08978
5.08467
5.07097
5.04968
5.0304
4.99686
4.95174
4.91612
4.86115
4.80018
4.67897
4.53114
4.38567
4.08721
3.74073
3.60961
3.55461
3.52688
3.51115
3.5018
3.49645
3.49399
3.18701
3.25885
3.30536
3.42505
3.54439
3.59637
3.67988
3.76488
3.8019
3.85488
3.88886
3.96135
4.02737
4.06711
4.1515
4.23357
4.27015
4.32637
4.38345
4.40874
4.44422
4.46706
4.51502
4.55827
4.58391
4.63732
4.68769
4.70899
4.73791
4.75602
4.79366
4.8271
4.8465
4.88674
4.92439
4.94021
4.96318
4.98446
4.99253
5.00223
5.00613
5.01243
5.01366
5.00964
4.99589
4.97319
4.95722
4.92321
4.87462
4.84511
4.79002
4.73902
4.6095
4.45372
4.3276
3.98948
3.57349
3.45808
3.41598
3.39578
3.38452
3.37788
3.37409
3.37235
3.04618
3.1378
3.1734
3.31272
3.44984
3.48811
3.57904
3.67484
3.7017
3.759
3.78358
3.86514
3.93577
3.96463
4.0598
4.15208
4.17864
4.23881
4.30246
4.32067
4.35865
4.3751
4.42892
4.47509
4.49368
4.554
4.61053
4.62595
4.65702
4.6701
4.7125
4.7483
4.76242
4.80806
4.8505
4.86205
4.887
4.91093
4.91686
4.92784
4.93081
4.93904
4.94118
4.93851
4.92466
4.89963
4.88836
4.85367
4.7997
4.7788
4.72174
4.6854
4.54468
4.37785
4.28516
3.90084
3.39497
3.30863
3.28207
3.26986
3.26314
3.2592
3.25695
3.25593
2.90633
3.0252
3.04134
3.20543
3.36501
3.38161
3.48233
3.59264
3.60416
3.66916
3.67968
3.77374
3.85053
3.86288
3.97228
4.07788
4.08923
4.15489
4.22758
4.23533
4.27804
4.28505
4.34701
4.3971
4.40505
4.47454
4.53907
4.54567
4.5807
4.58629
4.63525
4.67418
4.68023
4.73299
4.78158
4.78655
4.81421
4.84164
4.84421
4.85715
4.85849
4.8692
4.87215
4.87111
4.85717
4.8285
4.82383
4.78827
4.72618
4.71743
4.65528
4.64002
4.48418
4.30111
4.26108
3.82295
3.20055
3.16235
3.1532
3.14913
3.14691
3.14561
3.14487
3.14453
)
;

boundaryField
{
    left
    {
        type            zeroGradient;
    }
    right
    {
        type            zeroGradient;
    }
    interface
    {
        type            fixedValue;
        value           nonuniform List<scalar> 
64
(
2.83483
2.97288
2.97288
3.15311
3.32733
3.32733
3.4348
3.55507
3.55507
3.62669
3.62669
3.72953
3.81057
3.81057
3.9296
4.0441
4.0441
4.11369
4.19271
4.19271
4.23961
4.23961
4.30728
4.36008
4.36008
4.43584
4.50571
4.50571
4.54421
4.54421
4.59777
4.63882
4.63882
4.69642
4.74906
4.74906
4.77864
4.80842
4.80842
4.8229
4.8229
4.83527
4.83852
4.83852
4.82458
4.79311
4.79311
4.75701
4.68885
4.68885
4.62156
4.62156
4.45533
4.25982
4.25982
3.78975
3.09007
3.09007
3.09007
3.09007
3.09007
3.09007
3.09007
3.09007
)
;
    }
    bottom
    {
        type            fixedValue;
        value           uniform 10;
    }
    defaultFaces
    {
        type            empty;
    }
}


// ************************************************************************* //
