/*--------------------------------*- C++ -*----------------------------------*\
| =========                 |                                                 |
| \\      /  F ield         | OpenFOAM: The Open Source CFD Toolbox           |
|  \\    /   O peration     | Version:  5.x                                   |
|   \\  /    A nd           | Web:      www.OpenFOAM.org                      |
|    \\/     M anipulation  |                                                 |
\*---------------------------------------------------------------------------*/
FoamFile
{
    version     2.0;
    format      ascii;
    class       volScalarField;
    location    "4.2";
    object      gradTx;
}
// * * * * * * * * * * * * * * * * * * * * * * * * * * * * * * * * * * * * * //

dimensions      [0 -1 0 1 0 0 0];

internalField   nonuniform List<scalar> 
2048
(
0.00630473
0.0187337
0.0306377
0.0417189
0.0517482
0.0605763
0.0681329
0.0744159
0.0794747
0.0833924
0.0862686
0.0882078
0.0893119
0.0896777
0.0893977
0.0885609
0.0872543
0.0855614
0.08356
0.0813185
0.0788928
0.0763235
0.0736355
0.070839
0.0679316
0.0649013
0.0617286
0.0583879
0.0548483
0.051074
0.0470247
0.0426567
0.0379248
0.0327847
0.0271942
0.0211159
0.0145175
0.00737288
-0.000337601
-0.0086256
-0.0174926
-0.0269265
-0.0368957
-0.0473429
-0.0581765
-0.0692619
-0.0804119
-0.0913794
-0.101853
-0.11146
-0.119778
-0.126355
-0.130748
-0.132564
-0.131506
-0.12741
-0.120271
-0.110242
-0.0976107
-0.0827609
-0.0661262
-0.0481477
-0.0292453
-0.00980684
0.0187878
0.0558162
0.0912539
0.124202
0.153975
0.180132
0.202473
0.221006
0.235892
0.247391
0.255808
0.261457
0.26464
0.265645
0.264744
0.262198
0.258267
0.253198
0.247224
0.240552
0.233347
0.225731
0.217776
0.20951
0.200925
0.191983
0.182625
0.172775
0.16234
0.151216
0.139281
0.126405
0.112454
0.0972926
0.0807969
0.0628544
0.0433696
0.0222643
-0.000520325
-0.0250206
-0.0512441
-0.079159
-0.108678
-0.139638
-0.171777
-0.204703
-0.23787
-0.27055
-0.301822
-0.330573
-0.355534
-0.375344
-0.388657
-0.394272
-0.391279
-0.379175
-0.357945
-0.328058
-0.290398
-0.24614
-0.196598
-0.143102
-0.0869003
-0.0291365
0.031139
0.0924803
0.151102
0.20548
0.254466
0.297344
0.333818
0.363942
0.388031
0.40655
0.420027
0.428993
0.433949
0.43536
0.433664
0.429291
0.42266
0.414186
0.404259
0.393223
0.381357
0.36886
0.355848
0.342359
0.328373
0.313822
0.298607
0.282601
0.265654
0.247591
0.228214
0.207305
0.184638
0.159989
0.13315
0.103934
0.0721856
0.0377746
0.000602698
-0.039395
-0.0822401
-0.127894
-0.176231
-0.227006
-0.279814
-0.334039
-0.38881
-0.44295
-0.494952
-0.542971
-0.584877
-0.618359
-0.641109
-0.651047
-0.646581
-0.626833
-0.591773
-0.542227
-0.479745
-0.406369
-0.324356
-0.235949
-0.143216
-0.0480062
0.0435983
0.129422
0.211269
0.286932
0.354786
0.413861
0.463809
0.504803
0.53737
0.562234
0.580184
0.591976
0.598305
0.5998
0.597051
0.590636
0.581139
0.56914
0.555194
0.539792
0.523331
0.506087
0.48821
0.469742
0.450638
0.430793
0.410063
0.388274
0.36522
0.340661
0.314318
0.285884
0.255036
0.221459
0.184856
0.14497
0.101583
0.0545163
0.00363123
-0.0511713
-0.109938
-0.172641
-0.239143
-0.309148
-0.382145
-0.457342
-0.533584
-0.60929
-0.68239
-0.750308
-0.810014
-0.85817
-0.891382
-0.906554
-0.901289
-0.874251
-0.825394
-0.755976
-0.668348
-0.565564
-0.45095
-0.327727
-0.198781
-0.0666065
0.0563814
0.167264
0.272714
0.369761
0.456273
0.531053
0.59378
0.644833
0.685048
0.715484
0.73723
0.751287
0.758531
0.759733
0.755609
0.746875
0.734269
0.718549
0.700448
0.680622
0.659592
0.637712
0.615157
0.591957
0.568024
0.543208
0.517315
0.490126
0.461385
0.430788
0.397978
0.362552
0.324083
0.282153
0.236378
0.186426
0.132022
0.0729413
0.00900515
-0.0599251
-0.133935
-0.213029
-0.297087
-0.385803
-0.478611
-0.57459
-0.672366
-0.770004
-0.864907
-0.953771
-1.03261
-1.09695
-1.14212
-1.16381
-1.15863
-1.12465
-1.0618
-0.971897
-0.858287
-0.725279
-0.577453
-0.419112
-0.25396
-0.0850507
0.069693
0.206594
0.336333
0.455061
0.560107
0.650091
0.72482
0.785007
0.831924
0.867058
0.891855
0.907571
0.915245
0.915752
0.909901
0.89852
0.882504
0.8628
0.840347
0.815989
0.790386
0.763969
0.736927
0.709249
0.680789
0.651329
0.620627
0.588421
0.554417
0.518254
0.479494
0.437627
0.392112
0.342417
0.288063
0.228644
0.163834
0.0933693
0.0170326
-0.0653582
-0.153941
-0.248779
-0.349803
-0.456741
-0.569023
-0.68567
-0.805159
-0.925271
-1.04294
-1.15413
-1.25387
-1.33636
-1.39547
-1.42537
-1.42137
-1.38079
-1.30352
-1.19208
-1.05114
-0.886579
-0.704505
-0.510438
-0.308899
-0.103379
0.0837374
0.24799
0.402993
0.543868
0.667365
0.771991
0.857819
0.92607
0.978608
1.01747
1.04452
1.06127
1.06889
1.06831
1.06037
1.04599
1.02621
1.0022
0.975136
0.946093
0.915891
0.885036
0.853708
0.821826
0.78915
0.755379
0.720215
0.683369
0.644523
0.60327
0.559087
0.511349
0.459377
0.402511
0.340166
0.271867
0.197245
0.11601
0.0279112
-0.0672785
-0.169764
-0.279693
-0.397085
-0.521749
-0.653173
-0.79039
-0.931816
-1.07504
-1.2166
-1.35179
-1.47456
-1.57767
-1.6532
-1.69341
-1.69196
-1.64514
-1.55274
-1.41825
-1.24805
-1.05009
-0.832343
-0.601724
-0.363543
-0.12156
0.0987261
0.292051
0.473571
0.637196
0.779059
0.897652
0.993503
1.06856
1.12549
1.16702
1.19549
1.21267
1.21979
1.21775
1.20737
1.18961
1.16567
1.13697
1.10499
1.07107
1.03622
1.00104
0.96565
0.929864
0.893302
0.855553
0.816262
0.775133
0.731852
0.685984
0.63692
0.583895
0.526068
0.462626
0.39287
0.316258
0.232395
0.140979
0.0417439
-0.0655858
-0.181296
-0.305645
-0.438783
-0.580646
-0.73084
-0.888494
-1.05206
-1.21906
-1.38576
-1.54681
-1.69511
-1.82177
-1.91673
-1.96988
-1.97267
-1.91997
-1.81142
-1.65178
-1.44978
-1.21602
-0.960816
-0.692674
-0.417637
-0.139496
0.114885
0.339406
0.548976
0.736066
0.89616
1.02788
1.13245
1.21284
1.27276
1.3158
1.34485
1.3619
1.36814
1.36435
1.35121
1.32969
1.30114
1.26731
1.23002
1.19098
1.15144
1.11206
1.07287
1.03352
0.993424
0.952027
0.908921
0.863835
0.816506
0.766494
0.7131
0.655391
0.592325
0.522905
0.446301
0.361915
0.269348
0.168316
0.0585515
-0.0602605
-0.188503
-0.326576
-0.474797
-0.633281
-0.801812
-0.979693
-1.16553
-1.35692
-1.55
-1.73895
-1.91558
-2.06921
-2.18724
-2.25653
-2.26564
-2.20747
-2.08139
-1.89385
-1.65673
-1.38417
-1.0894
-0.782696
-0.470738
-0.157027
0.13246
0.390738
0.630175
0.841531
1.01962
1.16338
1.2751
1.35909
1.42042
1.46373
1.49253
1.50897
1.51407
1.50832
1.49215
1.46647
1.43283
1.39333
1.3503
1.30586
1.26157
1.21813
1.17548
1.13295
1.08969
1.04497
0.998328
0.949567
0.898542
0.844852
0.787695
0.725927
0.658255
0.583453
0.500543
0.408883
0.308108
0.197988
0.0782835
-0.051354
-0.191419
-0.342487
-0.505086
-0.679552
-0.865897
-1.06368
-1.2718
-1.48807
-1.70874
-1.92767
-2.13572
-2.32023
-2.46562
-2.55497
-2.57302
-2.50986
-2.3644
-2.14538
-1.86896
-1.55394
-1.21718
-0.870908
-0.522228
-0.17393
0.151723
0.446792
0.718208
0.954688
1.15037
1.30481
1.42176
1.50733
1.56828
1.61056
1.63833
1.65379
1.65763
1.64983
1.63045
1.60023
1.56093
1.51515
1.46583
1.41566
1.36655
1.31929
1.27354
1.22829
1.1823
1.13457
1.08461
1.03239
0.977976
0.921065
0.860732
0.795562
0.72394
0.644351
0.555649
0.457169
0.34863
0.229907
0.100826
-0.0389806
-0.190137
-0.353437
-0.529662
-0.719405
-0.922949
-1.14018
-1.37039
-1.61186
-1.86116
-2.11217
-2.35492
-2.57475
-2.75255
-2.86674
-2.89698
-2.82948
-2.66224
-2.40713
-2.08619
-1.72434
-1.34288
-0.956154
-0.571326
-0.189933
0.172978
0.508394
0.814205
1.07669
1.28934
1.45274
1.57262
1.65741
1.71599
1.75587
1.78192
1.79621
1.79884
1.78908
1.76637
1.7312
1.68561
1.63285
1.5766
1.5203
1.46632
1.4155
1.36716
1.31971
1.27144
1.221
1.16788
1.11232
1.05478
0.995103
0.932211
0.864334
0.789445
0.705669
0.611651
0.506745
0.390825
0.263932
0.126011
-0.02331
-0.184805
-0.359536
-0.548592
-0.752848
-0.972877
-1.20894
-1.46087
-1.72759
-2.00635
-2.29139
-2.57229
-2.83234
-3.04845
-3.19326
-3.23983
-3.16884
-2.97678
-2.6797
-2.30775
-1.89392
-1.46487
-1.03703
-0.617116
-0.20472
0.196563
0.576458
0.919401
1.20878
1.43747
1.60765
1.72774
1.80903
1.86302
1.89911
1.92287
1.93601
1.93771
1.92624
1.90019
1.85966
1.80706
1.74647
1.68255
1.61964
1.56075
1.50675
1.4564
1.40739
1.35734
1.30449
1.24826
1.18938
1.12889
1.0669
1.00211
0.932266
0.854835
0.767473
0.668571
0.55756
0.434567
0.29988
0.15362
-0.00455962
-0.175613
-0.360939
-0.561993
-0.77995
-1.01566
-1.26979
-1.54282
-1.83454
-2.14323
-2.46406
-2.7866
-3.09225
-3.35346
-3.53588
-3.60404
-3.53079
-3.31003
-2.96351
-2.53256
-2.06079
-1.58116
-1.11192
-0.658579
-0.217948
0.222857
0.651995
1.03514
1.35225
1.59568
1.76994
1.88705
1.96174
2.00869
2.03957
2.06066
2.07293
2.07422
2.06154
2.03226
1.98592
1.92545
1.85607
1.78357
1.7135
1.64968
1.59296
1.54136
1.49154
1.44029
1.38527
1.32587
1.26352
1.20019
1.13634
1.07037
0.999375
0.920173
0.829836
0.726427
0.609542
0.479702
0.33753
0.183392
0.0170115
-0.162786
-0.357833
-0.570029
-0.800847
-1.05136
-1.32264
-1.6159
-1.93202
-2.27069
-2.6287
-2.99632
-3.35337
-3.6674
-3.89583
-3.99231
-3.91864
-3.66428
-3.25879
-2.75909
-2.22258
-1.68941
-1.17903
-0.694637
-0.229259
0.252289
0.736123
1.1629
1.5085
1.76485
1.93992
2.05036
2.11494
2.15214
2.17641
2.1947
2.20671
2.20838
2.1952
2.16297
2.1103
2.04098
1.96168
1.87955
1.80163
1.73287
1.67408
1.62215
1.57237
1.52058
1.46366
1.40085
1.33468
1.26849
1.20329
1.13696
1.06567
0.985532
0.892854
0.785237
0.662599
0.526053
0.376627
0.215028
0.041109
-0.146577
-0.350429
-0.572896
-0.815736
-1.08014
-1.36749
-1.67986
-2.0194
-2.38759
-2.78365
-3.19959
-3.6142
-3.98976
-4.27417
-4.40759
-4.33625
-4.04211
-3.56551
-2.98523
-2.37644
-1.78704
-1.23649
-0.724201
-0.238303
0.28534
0.830062
1.30427
1.67901
1.94584
2.11775
2.21737
2.26791
2.29238
2.30868
2.32436
2.33707
2.34019
2.32752
2.29279
2.23319
2.15381
2.06334
1.97034
1.88375
1.81007
1.75004
1.6989
1.65014
1.59857
1.54002
1.47334
1.40273
1.33358
1.26759
1.20179
1.13116
1.051
0.956648
0.845027
0.716626
0.573423
0.416893
0.248193
0.0674082
-0.127253
-0.338946
-0.570821
-0.824875
-1.10222
-1.40447
-1.73461
-2.09618
-2.49277
-2.92712
-3.39429
-3.87285
-4.31956
-4.67166
-4.85313
-4.78829
-4.44657
-3.88334
-3.20822
-2.51898
-1.87122
-1.28239
-0.74623
-0.244755
0.322559
0.935141
1.46097
1.86541
2.13944
2.30344
2.3877
2.41983
2.42825
2.43531
2.449
2.46381
2.46965
2.45883
2.42231
2.35499
2.2641
2.1611
2.05577
1.95948
1.88094
1.82074
1.77177
1.72511
1.67467
1.61479
1.54351
1.46748
1.39514
1.32903
1.26485
1.19585
1.11667
1.02139
0.905831
0.771491
0.621603
0.45803
0.282522
0.0955578
-0.105091
-0.3236
-0.56404
-0.828577
-1.11796
-1.43379
-1.78017
-2.16202
-2.5852
-3.05722
-3.57801
-4.12708
-4.6554
-5.08867
-5.33245
-5.28043
-4.88124
-4.21146
-3.42452
-2.64631
-1.93897
-1.3149
-0.759797
-0.248339
0.364585
1.05278
1.63482
2.06944
2.34634
2.49677
2.56088
2.5698
2.55844
2.55508
2.56797
2.58678
2.59674
2.58947
2.55225
2.47612
2.37196
2.25504
2.13568
2.02839
1.94509
1.88614
1.84101
1.79756
1.7493
1.68854
1.61156
1.52868
1.45278
1.38741
1.32609
1.25972
1.18265
1.0873
0.967689
0.827031
0.670382
0.499728
0.317615
0.125183
-0.0803674
-0.304589
-0.552791
-0.827205
-1.12777
-1.45579
-1.81672
-2.21682
-2.66393
-3.17198
-3.74811
-4.3743
-4.99536
-5.52491
-5.8493
-5.8197
-5.35041
-4.5484
-3.62963
-2.75406
-1.98729
-1.33234
-0.76414
-0.248843
0.412182
1.18447
1.82773
2.29307
2.56705
2.69726
2.73647
2.71687
2.6815
2.66668
2.68066
2.70597
2.72139
2.71982
2.68355
2.59701
2.47742
2.34532
2.20991
2.08994
2.00203
1.94617
1.90691
1.8677
1.82294
1.762
1.6777
1.58593
1.50599
1.4425
1.38557
1.32273
1.24906
1.15472
1.03065
0.883033
0.719561
0.541674
0.35304
0.155884
-0.0533483
-0.282074
-0.537295
-0.821164
-1.1322
-1.47088
-1.84458
-2.26072
-2.72819
-3.26941
-3.90172
-4.61163
-5.33699
-5.97917
-6.40756
-6.41489
-5.85922
-4.89172
-3.81796
-2.83742
-2.01329
-1.33333
-0.758728
-0.246141
0.466309
1.33173
2.04161
2.53855
2.80188
2.90403
2.91411
2.86012
2.79577
2.76864
2.78654
2.82159
2.84339
2.85021
2.81741
2.71809
2.58033
2.4322
2.27835
2.1435
2.05119
2.00084
1.96992
1.9357
1.89602
1.83612
1.74218
1.63873
1.55415
1.4941
1.44342
1.38478
1.31598
1.22411
1.09475
0.939208
0.768972
0.583562
0.388324
0.187239
-0.0242875
-0.256161
-0.517739
-0.810895
-1.13185
-1.47952
-1.86422
-2.29421
-2.77745
-3.34751
-4.03577
-4.83603
-5.67743
-6.44892
-7.01103
-7.07715
-6.41387
-5.2376
-3.98263
-2.89127
-2.0143
-1.31686
-0.743299
-0.2402
0.528229
1.49608
2.27834
2.80863
3.05081
3.11568
3.09366
2.99866
2.89942
2.85933
2.88521
2.93415
2.96232
2.98089
2.95548
2.83969
2.68031
2.51614
2.34092
2.18829
2.09184
2.05018
2.03067
2.00154
1.96897
1.91214
1.80528
1.68636
1.5965
1.54202
1.49995
1.44564
1.38346
1.29614
1.16
0.99515
0.818516
0.625105
0.422949
0.218802
0.00657912
-0.226891
-0.494263
-0.796871
-1.12749
-1.48218
-1.87614
-2.31819
-2.81143
-3.40433
-4.14703
-5.04439
-6.01355
-6.92978
-7.6631
-7.82074
-7.02184
-5.58025
-4.11536
-2.91036
-1.98813
-1.28238
-0.71789
-0.231087
0.599694
1.6789
2.53956
3.10673
3.31337
3.33008
3.27546
3.13174
2.99036
2.93694
2.97637
3.04466
3.07738
3.11194
3.1
2.96199
2.77657
2.59795
2.39762
2.22335
2.12315
2.0943
2.09009
2.06499
2.04208
1.99175
1.86728
1.72789
1.63211
1.58613
1.55569
1.50494
1.45146
1.37177
1.22636
1.05027
0.868214
0.66604
0.456336
0.250101
0.0390337
-0.194212
-0.466942
-0.779587
-1.11999
-1.47929
-1.88089
-2.33404
-2.83013
-3.43796
-4.23204
-5.23371
-6.34229
-7.4149
-8.36626
-8.66406
-7.69208
-5.91114
-4.20635
-2.8895
-1.93316
-1.22987
-0.682851
-0.218967
0.68323
1.88135
2.82646
3.43739
3.58846
3.54413
3.46057
3.25869
3.0662
2.99941
3.05989
3.15483
3.18717
3.24314
3.25415
3.08494
2.86777
2.67891
2.44855
2.24751
2.14406
2.13337
2.14956
2.12538
2.11546
2.07725
1.92846
1.76208
1.65986
1.62635
1.61157
1.56198
1.51981
1.45239
1.29371
1.10374
0.918281
0.706136
0.487824
0.280642
0.0728734
-0.15797
-0.435769
-0.759549
-1.11042
-1.47118
-1.87892
-2.34377
-2.8339
-3.44656
-4.28708
-5.40123
-6.66121
-7.89413
-9.12131
-9.63106
-8.43529
-6.21793
-4.24431
-2.82398
-1.8486
-1.1599
-0.638832
-0.204096
0.782577
2.10421
3.13946
3.80675
3.87412
3.75335
3.65126
3.37902
3.12418
3.04443
3.13578
3.26742
3.28943
3.3738
3.42239
3.20806
2.95171
2.76114
2.49386
2.25934
2.15333
2.16763
2.2111
2.18148
2.1889
2.17181
1.989
1.78737
1.67845
1.66265
1.66903
1.61568
1.58809
1.54005
1.36172
1.15435
0.969244
0.745193
0.516648
0.309915
0.107901
-0.117884
-0.400643
-0.737255
-1.10013
-1.458
-1.87043
-2.35015
-2.82333
-3.42844
-4.30808
-5.54456
-6.96931
-8.35307
-9.92628
-10.753
-9.26412
-6.48313
-4.21663
-2.70988
-1.7346
-1.07361
-0.586757
-0.186807
0.903327
2.3476
3.47767
4.22338
4.16718
3.95144
3.85161
3.49223
3.16112
3.06939
3.20409
3.38669
3.38062
3.50252
3.61108
3.33024
3.02502
2.84788
2.53373
2.25705
2.14948
2.19731
2.27767
2.23121
2.26172
2.27974
2.04888
1.80175
1.68638
1.69501
1.73029
1.6643
1.65554
1.63765
1.42983
1.2004
1.0221
0.783016
0.541906
0.337409
0.143911
-0.0735275
-0.361359
-0.713159
-1.09082
-1.43962
-1.85519
-2.35694
-2.79927
-3.38208
-4.29043
-5.66172
-7.26826
-8.77191
-10.775
-12.0706
-10.1933
-6.68233
-4.10984
-2.54457
-1.59234
-0.972681
-0.527771
-0.16749
1.05383
2.61073
3.83826
4.69933
4.46285
4.12966
4.06829
3.59777
3.1733
3.07136
3.26478
3.51897
3.45545
3.62691
3.82916
3.44943
3.08274
2.94408
2.56824
2.23852
2.13077
2.22254
2.35359
2.27133
2.33257
2.40703
2.10772
1.80276
1.68197
1.72339
1.79867
1.70526
1.72093
1.74934
1.49705
1.23949
1.07851
0.819382
0.56252
0.362638
0.180661
-0.0243041
-0.317608
-0.687616
-1.08471
-1.41559
-1.83229
-2.36919
-2.76268
-3.30628
-4.22879
-5.75101
-7.56409
-9.12415
-11.655
-13.6374
-11.2398
-6.78207
-3.91033
-2.32722
-1.42416
-0.859269
-0.463184
-0.146572
1.24646
2.89147
4.21547
5.2515
4.75413
4.27606
4.31167
3.69461
3.15643
3.04714
3.31745
3.67357
3.50623
3.74313
4.08916
3.56226
3.11778
3.05703
2.59715
2.20117
2.09524
2.2432
2.44504
2.29701
2.39915
2.56179
2.16449
1.78744
1.66342
1.74753
1.87897
1.73479
1.78233
1.88097
1.5618
1.26833
1.14114
0.853957
0.577195
0.38518
0.217836
0.0305773
-0.268988
-0.660794
-1.08472
-1.38503
-1.79976
-2.39357
-2.71442
-3.2003
-4.11683
-5.81068
-7.86936
-9.37515
-12.545
-15.523
-12.4227
-6.73723
-3.60562
-2.05925
-1.23343
-0.735893
-0.394396
-0.124496
1.49921
3.18588
4.59947
5.90349
5.03112
4.37452
4.59717
3.78084
3.10563
2.99328
3.36087
3.86372
3.52211
3.84545
4.40837
3.66349
3.12025
3.19732
2.61964
2.14201
2.04073
2.25859
2.56079
2.30134
2.45793
2.75505
2.21713
1.75234
1.62885
1.76678
1.97804
1.74752
1.83692
2.04062
1.62165
1.28247
1.21397
0.886178
0.584376
0.404743
0.254995
0.0921389
-0.215037
-0.632549
-1.09472
-1.34655
-1.75417
-2.43896
-2.65493
-3.06413
-3.94692
-5.83825
-8.20598
-9.48064
-13.4115
-17.8175
-13.7629
-6.48788
-3.18607
-1.74475
-1.0245
-0.605296
-0.322829
-0.101695
1.83789
3.48761
4.97478
6.68788
5.28004
4.40367
4.94699
3.85287
3.01543
2.9063
3.39239
4.10799
3.48813
3.92559
4.8103
3.74538
3.07677
3.37988
2.63374
2.05762
1.96501
2.26708
2.713
2.27472
2.50374
3.0016
2.26207
1.69354
1.57646
1.77978
2.10545
1.73605
1.88067
2.23933
1.67297
1.27597
1.30278
0.915068
0.582213
0.421241
0.291499
0.161678
-0.155288
-0.602237
-1.11983
-1.29824
-1.69009
-2.51702
-2.58376
-2.8989
-3.70987
-5.82939
-8.60869
-9.38513
-14.2051
-20.6372
-15.2826
-5.95568
-2.64732
-1.39068
-0.802447
-0.470302
-0.249859
-0.0785818
2.29873
3.78713
5.31839
7.64896
5.48214
4.33557
5.39222
3.90439
2.87994
2.78288
3.40702
4.43186
3.38416
3.97198
5.32646
3.7969
2.96948
3.6254
2.63573
1.94422
1.86593
2.26547
2.91834
2.20415
2.52938
3.32102
2.29348
1.60679
1.50471
1.78393
2.27427
1.69033
1.90803
2.49188
1.71061
1.24111
1.41573
0.938987
0.568524
0.434906
0.326412
0.24083
-0.0893633
-0.568475
-1.16677
-1.2376
-1.5994
-2.64306
-2.4989
-2.70738
-3.39473
-5.77631
-9.1292
-9.02044
-14.8549
-24.1304
-17.0044
-5.03986
-1.99342
-1.00692
-0.572794
-0.33366
-0.176759
-0.0555265
2.93163
4.0709
5.59757
8.84606
5.61232
4.13424
5.97528
3.92502
2.69304
2.62027
3.39624
4.8697
3.18362
3.96895
5.99835
3.80276
2.77519
3.96191
2.6192
1.79787
1.74163
2.24827
3.1992
2.0724
2.52507
3.73894
2.30244
1.4877
1.41252
1.77485
2.50212
1.59705
1.91157
2.81779
1.72732
1.16796
1.56401
0.955288
0.540791
0.446421
0.358381
0.331642
-0.0171158
-0.52882
-1.24428
-1.16164
-1.47052
-2.83703
-2.39596
-2.49462
-2.98863
-5.6655
-9.84095
-8.30427
-15.2636
-28.4849
-18.95
-3.61276
-1.24077
-0.605783
-0.34113
-0.197911
-0.104652
-0.0328511
3.80392
4.32036
5.76719
10.3573
5.63756
3.75406
6.75284
3.89848
2.44877
2.41679
3.3465
5.46702
2.85214
3.89572
6.87971
3.74233
2.46421
4.42671
2.57392
1.61467
1.59095
2.20671
3.58525
1.85713
2.47791
4.28841
2.27586
1.332
1.29963
1.74553
2.8123
1.4389
1.88149
3.24232
1.71327
1.04399
1.76261
0.959895
0.496173
0.457075
0.385487
0.436687
0.0611833
-0.479381
-1.36351
-1.06686
-1.28748
-3.1247
-2.267
-2.26883
-2.47688
-5.47482
-10.8445
-7.1391
-15.3005
-33.9354
-21.1385
-1.51509
-0.422833
-0.201257
-0.112732
-0.0652754
-0.0344872
-0.0108226
)
;

boundaryField
{
    left
    {
        type            calculated;
        value           uniform 0;
    }
    right
    {
        type            calculated;
        value           uniform 0;
    }
    interface
    {
        type            calculated;
        value           nonuniform List<scalar> 
64
(
3.80392
4.32036
5.76719
10.3573
5.63756
3.75406
6.75284
3.89848
2.44877
2.41679
3.3465
5.46702
2.85214
3.89572
6.87971
3.74233
2.46421
4.42671
2.57392
1.61467
1.59095
2.20671
3.58525
1.85713
2.47791
4.28841
2.27586
1.332
1.29963
1.74553
2.8123
1.4389
1.88149
3.24232
1.71327
1.04399
1.76261
0.959895
0.496173
0.457075
0.385487
0.436687
0.0611833
-0.479381
-1.36351
-1.06686
-1.28748
-3.1247
-2.267
-2.26883
-2.47688
-5.47482
-10.8445
-7.1391
-15.3005
-33.9354
-21.1385
-1.51509
-0.422833
-0.201257
-0.112732
-0.0652754
-0.0344872
-0.0108226
)
;
    }
    bottom
    {
        type            calculated;
        value           nonuniform List<scalar> 
64
(
0.00630473
0.0187337
0.0306377
0.0417189
0.0517482
0.0605763
0.0681329
0.0744159
0.0794747
0.0833924
0.0862686
0.0882078
0.0893119
0.0896777
0.0893977
0.0885609
0.0872543
0.0855614
0.08356
0.0813185
0.0788928
0.0763235
0.0736355
0.070839
0.0679316
0.0649013
0.0617286
0.0583879
0.0548483
0.051074
0.0470247
0.0426567
0.0379248
0.0327847
0.0271942
0.0211159
0.0145175
0.00737288
-0.000337601
-0.0086256
-0.0174926
-0.0269265
-0.0368957
-0.0473429
-0.0581765
-0.0692619
-0.0804119
-0.0913794
-0.101853
-0.11146
-0.119778
-0.126355
-0.130748
-0.132564
-0.131506
-0.12741
-0.120271
-0.110242
-0.0976107
-0.0827609
-0.0661262
-0.0481477
-0.0292453
-0.00980684
)
;
    }
    defaultFaces
    {
        type            empty;
    }
}


// ************************************************************************* //
