/*--------------------------------*- C++ -*----------------------------------*\
| =========                 |                                                 |
| \\      /  F ield         | OpenFOAM: The Open Source CFD Toolbox           |
|  \\    /   O peration     | Version:  5.x                                   |
|   \\  /    A nd           | Web:      www.OpenFOAM.org                      |
|    \\/     M anipulation  |                                                 |
\*---------------------------------------------------------------------------*/
FoamFile
{
    version     2.0;
    format      ascii;
    class       volScalarField;
    location    "7.6";
    object      gradTx;
}
// * * * * * * * * * * * * * * * * * * * * * * * * * * * * * * * * * * * * * //

dimensions      [0 -1 0 1 0 0 0];

internalField   nonuniform List<scalar> 
3200
(
45.2113
3.71176
1.64868
1.54014
0.814942
0.771356
0.466727
0.447271
0.293827
0.282721
0.170835
0.166692
0.180697
0.180846
0.173155
0.172313
0.159533
0.158416
0.144292
0.143109
0.128822
0.127653
0.113849
0.112753
0.100212
0.0993251
0.0901494
0.0901431
0.0950733
0.164747
0.0824952
0.0552533
0.053425
0.0416768
0.0408496
0.0332521
0.0326933
0.0269765
0.026547
0.0219888
0.0216422
0.0179034
0.0176159
0.0144682
0.0142211
0.0114532
0.0112262
0.00856386
0.00832514
0.00520262
0.00507184
0.00507112
0.00502352
0.00395872
0.00384568
0.00219537
0.00202994
-0.000276397
-0.000513791
-0.00387127
-0.00423363
-0.00949977
-0.0101049
-0.0191776
-0.0203256
-0.0381849
-0.0408577
-0.084055
-0.0929793
-0.238829
-0.617549
-0.436401
-0.681905
-0.713278
-1.26867
-1.24304
-0.0558155
-0.00753212
-0.00152602
-52.9457
47.8958
3.10513
1.57725
1.35447
0.774052
0.680999
0.436318
0.394718
0.271787
0.248195
0.160332
0.151487
0.160987
0.161195
0.155217
0.153443
0.143361
0.140997
0.129819
0.127313
0.115999
0.11352
0.102591
0.100272
0.0903656
0.0885019
0.0814296
0.08158
0.0883644
0.137363
0.076596
0.0516134
0.047542
0.0380098
0.036236
0.0301791
0.0289905
0.0244502
0.0235381
0.0199215
0.019186
0.0162202
0.0156099
0.0131128
0.0125883
0.0103914
0.00990929
0.00779462
0.00729078
0.00485379
0.00457592
0.00453066
0.00442668
0.00358617
0.00334658
0.00203785
0.00168658
-0.000146086
-0.000650708
-0.00332234
-0.00409343
-0.00829144
-0.0095817
-0.0168395
-0.0192981
-0.0337001
-0.03949
-0.0750763
-0.0950014
-0.227174
-0.517929
-0.415022
-0.602304
-0.666898
-1.08543
-1.03176
-0.121889
-0.0209053
-0.00438808
-54.7419
50.5635
2.57636
1.45361
1.18311
0.713667
0.596708
0.397787
0.345417
0.245774
0.216238
0.146669
0.135548
0.141649
0.141791
0.13711
0.134905
0.126881
0.123931
0.115
0.111869
0.102823
0.0997248
0.0909883
0.0880931
0.0801973
0.0778871
0.0724209
0.0727516
0.0799669
0.114369
0.0692653
0.047137
0.0418774
0.0340324
0.0317936
0.0269113
0.0254218
0.0217787
0.0206375
0.0177389
0.016819
0.0144427
0.0136795
0.0116785
0.0110223
0.00926093
0.00865771
0.00696094
0.00633373
0.00441859
0.00407069
0.00399255
0.00385929
0.00318956
0.00289025
0.00184203
0.00140248
-6.89043e-05
-0.000700951
-0.00284943
-0.00381617
-0.00719941
-0.00881979
-0.0146934
-0.0177929
-0.0295598
-0.0369305
-0.0667241
-0.0925335
-0.209175
-0.434055
-0.382036
-0.527612
-0.60636
-0.921068
-0.854726
-0.155607
-0.0308998
-0.00673377
-56.5379
53.2105
2.11315
1.29589
1.0197
0.639183
0.515694
0.353393
0.298008
0.216956
0.185883
0.130667
0.118921
0.12255
0.122581
0.118904
0.116599
0.110198
0.107104
0.099949
0.0966617
0.089408
0.0861554
0.0791522
0.0761146
0.0698055
0.0673985
0.0631803
0.0636478
0.0704819
0.0945553
0.0610156
0.0419858
0.0363162
0.0298308
0.0274569
0.0235079
0.0219393
0.0190071
0.0178071
0.0154771
0.0145102
0.0126007
0.0117985
0.0101903
0.00950058
0.00808415
0.00744985
0.00608446
0.00542818
0.00392069
0.00355465
0.00345663
0.00331336
0.00277812
0.00246386
0.00162184
0.00115963
-2.53035e-05
-0.000690544
-0.00242379
-0.00344225
-0.00617791
-0.00788776
-0.0126582
-0.015941
-0.0255953
-0.033474
-0.0585312
-0.0864324
-0.186847
-0.361258
-0.341147
-0.455592
-0.536384
-0.771952
-0.703002
-0.166348
-0.0368727
-0.00833386
-58.3337
55.8362
1.70406
1.11652
0.860466
0.554417
0.436234
0.304723
0.251625
0.18614
0.156494
0.112927
0.101678
0.103594
0.103518
0.100644
0.098458
0.0933823
0.0904393
0.0847431
0.0816131
0.0758333
0.072736
0.0671576
0.064267
0.0592576
0.0569823
0.0537522
0.0542892
0.0603073
0.0770462
0.0521854
0.0363003
0.0307876
0.0254646
0.0231831
0.0200091
0.0185112
0.0161662
0.0150219
0.0131608
0.0122391
0.0107144
0.00994967
0.00866544
0.00800788
0.00687606
0.00627122
0.0051796
0.00455667
0.00337712
0.00302789
0.00292251
0.00278309
0.00235784
0.00205857
0.00138646
0.000945695
-2.49735e-06
-0.000637422
-0.00202676
-0.00299965
-0.00519744
-0.00683331
-0.0106826
-0.0138343
-0.0217019
-0.0293304
-0.0502246
-0.0774307
-0.161559
-0.296241
-0.294875
-0.384919
-0.460218
-0.635016
-0.569986
-0.160802
-0.0388081
-0.00906531
-60.1292
58.4416
1.33865
0.923893
0.703232
0.462137
0.357306
0.252916
0.205738
0.153889
0.127662
0.093894
0.0839092
0.0847181
0.0845676
0.0823553
0.0804321
0.0764815
0.0738849
0.0694345
0.0666705
0.0621513
0.0594159
0.0550554
0.0525041
0.0486004
0.0466042
0.0441734
0.0447114
0.0497039
0.061201
0.0429961
0.0301997
0.0252513
0.0209768
0.0189451
0.0164433
0.0151171
0.0132772
0.0122653
0.0108069
0.00999216
0.00879762
0.00812166
0.00711546
0.00653413
0.00564688
0.00511204
0.00425599
0.00370742
0.00280033
0.00249137
0.00238974
0.00226424
0.00193252
0.00166819
0.00114182
0.000752046
7.77244e-06
-0.00055413
-0.00164638
-0.00250806
-0.00423946
-0.00569033
-0.00873485
-0.0115389
-0.017818
-0.0246562
-0.0416656
-0.0661522
-0.13425
-0.236667
-0.244947
-0.314836
-0.380072
-0.507674
-0.450736
-0.143769
-0.0370535
-0.00890322
-61.9244
61.0295
1.00745
0.723501
0.546816
0.364406
0.278361
0.19882
0.160038
0.120614
0.0991315
0.0739097
0.0657083
0.0658805
0.0656996
0.0640556
0.0624873
0.0595265
0.0574046
0.0540585
0.0517981
0.0483979
0.0461607
0.0428808
0.0407953
0.0378668
0.0362436
0.0344759
0.0349554
0.0388402
0.0465439
0.0335905
0.0237853
0.0196881
0.0163993
0.0147258
0.0128305
0.0117434
0.0103551
0.00952663
0.00842724
0.00776035
0.00686011
0.00630684
0.00554848
0.00507261
0.00440359
0.00396571
0.00332006
0.0028725
0.00219961
0.00194655
0.00185792
0.00175364
0.00150449
0.00128828
0.000891703
0.000572572
1.07427e-05
-0.000449627
-0.00127523
-0.00198168
-0.0032927
-0.0044836
-0.00679674
-0.00910447
-0.0139118
-0.0195752
-0.0328074
-0.0531292
-0.105567
-0.180858
-0.192555
-0.244938
-0.297431
-0.387713
-0.341488
-0.118726
-0.0321562
-0.00790534
-63.7194
63.603
0.701915
0.518819
0.390629
0.262821
0.199155
0.143095
0.114363
0.0866206
0.0707505
0.0532446
0.0471725
0.047057
0.04689
0.0457528
0.0445982
0.042538
0.0409733
0.0386391
0.0369712
0.0345981
0.0329472
0.0306584
0.0291202
0.027081
0.0258887
0.0246884
0.0250631
0.0278237
0.0327131
0.024059
0.0171425
0.0140925
0.0117571
0.0105155
0.00918536
0.00838181
0.00741058
0.00679875
0.00603026
0.00553787
0.00490871
0.00450021
0.00397018
0.0036188
0.00315105
0.00282768
0.00237621
0.00204659
0.00158209
0.00139514
0.00132673
0.00124883
0.00107513
0.000915586
0.000638487
0.000402801
9.65101e-06
-0.000330519
-0.000908849
-0.00143113
-0.00235074
-0.00323198
-0.00485884
-0.0065701
-0.00997129
-0.0141914
-0.0236657
-0.0388217
-0.0759702
-0.127593
-0.138536
-0.175037
-0.213278
-0.273213
-0.239302
-0.0882352
-0.0247663
-0.00619462
-65.514
66.1661
0.414177
0.31194
0.234426
0.15867
0.119645
0.0862758
0.0686486
0.0521527
0.0424349
0.0321221
0.0283984
0.0282355
0.0281193
0.0274506
0.0267454
0.0255297
0.0245727
0.023193
0.0221726
0.0207693
0.0197592
0.018406
0.0174652
0.0162612
0.0155341
0.0148379
0.0150754
0.0167221
0.019424
0.0144579
0.010345
0.00846837
0.00707116
0.00630859
0.00551912
0.0050269
0.00445168
0.00407713
0.00362224
0.00332084
0.00294848
0.00269845
0.00238473
0.00216965
0.00189273
0.00169477
0.00142747
0.00122607
0.000953459
0.000838989
0.000795906
0.000747848
0.000645211
0.000547589
0.000383612
0.000239327
6.43752e-06
-0.000201887
-0.000544713
-0.000864677
-0.00141032
-0.00195055
-0.00291758
-0.00396813
-0.00599806
-0.00859743
-0.0142967
-0.0236344
-0.0457946
-0.0759546
-0.083494
-0.105066
-0.128258
-0.162466
-0.141802
-0.0542404
-0.0155804
-0.00394226
-67.3085
68.7227
0.136908
0.104072
0.0781529
0.0530494
0.0399092
0.0288272
0.022889
0.0174136
0.0141432
0.0107361
0.00948194
0.00941222
0.00937072
0.00915
0.00891293
0.00851096
0.00818912
0.00773251
0.00738924
0.00692475
0.00658497
0.00613708
0.00582063
0.00542247
0.00517824
0.0049501
0.00503135
0.00557825
0.00644157
0.00482269
0.00345809
0.00282503
0.00235983
0.0021028
0.00184099
0.0016753
0.00148475
0.00135872
0.00120807
0.00110666
0.000983349
0.000899219
0.00079533
0.000722958
0.000631245
0.000564632
0.000476103
0.000408394
0.000318505
0.000279981
0.000265282
0.000249047
0.000215085
0.000182244
0.000127948
7.93944e-05
2.23989e-06
-6.78754e-05
-0.000181492
-0.000289202
-0.00047012
-0.000652035
-0.000972966
-0.00132699
-0.00200205
-0.00287948
-0.00478224
-0.00793432
-0.015299
-0.0252215
-0.0278909
-0.0350304
-0.0427974
-0.0539147
-0.0469772
-0.0182896
-0.00531366
-0.00135229
-69.1028
68.7147
0.150883
0.128426
0.107467
0.0852104
0.0726955
0.0607372
0.0533355
0.04488
0.0387608
0.0310041
0.0281929
0.0283061
0.0282045
0.027371
0.0264732
0.0249576
0.0237711
0.0221273
0.0209339
0.0193778
0.0182825
0.0168959
0.0159504
0.0148056
0.0141291
0.0135393
0.0138375
0.0155167
0.0181036
0.013727
0.0100701
0.00839089
0.00717978
0.00651351
0.00583493
0.00540185
0.00489764
0.00455939
0.00414824
0.00386695
0.00351855
0.00327657
0.00297166
0.00275439
0.00247183
0.00225916
0.00196548
0.00172971
0.00140727
0.00129453
0.00131236
0.00131417
0.00128146
0.0012429
0.00117511
0.00112097
0.00104463
0.000987969
0.000912049
0.00085523
0.000777127
0.00071163
0.0006085
0.000494407
0.000268372
-7.50707e-05
-0.000892365
-0.00243126
-0.0062181
-0.0117867
-0.0150707
-0.0220565
-0.0294914
-0.0404356
-0.0360488
-0.0140882
-0.00409774
-0.0010432
-69.8074
66.1415
0.456019
0.385217
0.322454
0.255242
0.218064
0.182029
0.160049
0.134547
0.116348
0.0928146
0.0844617
0.084927
0.0846428
0.0821156
0.0794442
0.0748597
0.0713315
0.0663638
0.0628162
0.058115
0.0548591
0.0506702
0.0478592
0.0443982
0.0423838
0.0405824
0.0414574
0.0465139
0.0545893
0.0411522
0.0301311
0.025154
0.0215176
0.019541
0.017495
0.0162084
0.0146863
0.0136811
0.0124395
0.0116035
0.0105514
0.00983225
0.00891147
0.00826578
0.00741269
0.00678072
0.00589412
0.00519259
0.00421342
0.00387836
0.00393772
0.0039439
0.00384462
0.00372988
0.00352479
0.0033638
0.00313311
0.00296468
0.00273539
0.00256654
0.00233088
0.0021364
0.00182594
0.0014877
0.000809815
-0.000206254
-0.00264823
-0.00720384
-0.018583
-0.0354514
-0.045064
-0.0661515
-0.0883338
-0.12192
-0.108849
-0.0417859
-0.0120158
-0.00304127
-69.4223
63.561
0.771347
0.641687
0.537618
0.424071
0.363387
0.30276
0.266902
0.223921
0.194148
0.154018
0.140378
0.141578
0.141171
0.136866
0.132492
0.12472
0.11895
0.110544
0.104745
0.0967945
0.0914731
0.0843893
0.079794
0.0739329
0.07063
0.0675184
0.06891
0.0773903
0.0919356
0.0684808
0.0499505
0.0418634
0.035789
0.0325713
0.0291247
0.0270244
0.0244543
0.0228123
0.0207146
0.0193488
0.017571
0.016396
0.0148403
0.0137855
0.0123447
0.0113125
0.00981538
0.00866659
0.00699382
0.00644643
0.00656522
0.00657786
0.00640842
0.00622048
0.00587272
0.00560944
0.00521911
0.00494384
0.00455632
0.00428054
0.003883
0.00356582
0.00304451
0.00249459
0.0013648
-0.000280391
-0.00431953
-0.0117035
-0.0307284
-0.0594063
-0.0745983
-0.110203
-0.14672
-0.205271
-0.18381
-0.0679917
-0.019102
-0.00477906
-69.0371
60.9684
1.10395
0.897133
0.753162
0.590786
0.508708
0.422499
0.374041
0.312767
0.272363
0.214161
0.1957
0.198293
0.197855
0.191619
0.185675
0.174499
0.166673
0.154619
0.146759
0.135369
0.128158
0.118009
0.111779
0.103365
0.0988685
0.0942744
0.0960791
0.108024
0.130802
0.0956125
0.0693521
0.0584925
0.0499462
0.0456109
0.0407006
0.0378592
0.0341852
0.0319617
0.0289605
0.0271106
0.0245665
0.022975
0.0207491
0.0193207
0.0172604
0.0158629
0.0137227
0.0121616
0.00972922
0.00898788
0.00919699
0.00921912
0.00897297
0.0087175
0.00821729
0.00786018
0.00730054
0.00692751
0.0063728
0.00599943
0.00543192
0.00500342
0.00426423
0.00352469
0.00194041
-0.000258749
-0.00585702
-0.0157374
-0.0424875
-0.0839005
-0.103316
-0.154217
-0.204225
-0.291822
-0.262544
-0.0915205
-0.0248056
-0.00609922
-68.6517
58.3593
1.46129
1.15007
0.969441
0.75429
0.654194
0.540728
0.481693
0.400779
0.35129
0.272715
0.250181
0.255129
0.254771
0.246361
0.239068
0.224145
0.214566
0.198527
0.188915
0.173776
0.16496
0.151472
0.143852
0.132641
0.127111
0.120775
0.122843
0.138225
0.171987
0.122387
0.0881379
0.075029
0.063935
0.0586735
0.0521938
0.0487275
0.0438582
0.0411424
0.0371604
0.0349001
0.0315239
0.0295795
0.0266261
0.0248812
0.0221497
0.020443
0.017607
0.0156915
0.012397
0.0114913
0.0118363
0.0118712
0.0115379
0.0112243
0.0105562
0.010119
0.00937452
0.00891848
0.00818205
0.00772611
0.00697531
0.00645348
0.005484
0.00458861
0.00254065
-0.000101113
-0.00722319
-0.0190965
-0.0536601
-0.109275
-0.130774
-0.198267
-0.260226
-0.383048
-0.346949
-0.110877
-0.0285888
-0.00686962
-68.2661
55.7299
1.8514
1.39777
1.1871
0.913191
0.800215
0.65678
0.59022
0.487533
0.43138
0.329028
0.303562
0.312178
0.312009
0.301057
0.292766
0.273578
0.262717
0.242178
0.231292
0.21193
0.201949
0.1847
0.176069
0.16169
0.155386
0.146939
0.149074
0.167691
0.216507
0.148548
0.106078
0.0914851
0.0776906
0.0717849
0.0635665
0.0596519
0.0534451
0.0503737
0.0452915
0.0427345
0.0384241
0.0362244
0.0324548
0.0304812
0.0269981
0.0250684
0.0214544
0.0192765
0.0149693
0.0139448
0.014488
0.0145379
0.0141021
0.0137454
0.0128858
0.0123903
0.011437
0.0109207
0.00998012
0.00946463
0.00850957
0.00792147
0.00670084
0.00569867
0.00316467
0.000235771
-0.00839926
-0.021548
-0.0639906
-0.136013
-0.156393
-0.242539
-0.313793
-0.48063
-0.439352
-0.124082
-0.0299492
-0.00699525
-67.8803
53.0773
2.28285
1.63576
1.40729
1.06565
0.947454
0.769757
0.700191
0.572426
0.513318
0.382265
0.35558
0.369578
0.369678
0.355648
0.346901
0.322677
0.311256
0.285442
0.274009
0.24971
0.239229
0.217584
0.208516
0.190416
0.183747
0.172679
0.174646
0.195948
0.265698
0.173689
0.122903
0.107909
0.0911308
0.084989
0.0747673
0.0706681
0.0629067
0.0596856
0.0533217
0.050639
0.04524
0.0429322
0.0382118
0.0361417
0.0317843
0.0297612
0.0252445
0.0229469
0.0174103
0.0163356
0.0171595
0.0172242
0.0166633
0.0162866
0.015201
0.0146798
0.0134821
0.0129399
0.0117612
0.0112208
0.0100292
0.00941481
0.00790897
0.00687004
0.00380453
0.000800947
-0.00939473
-0.0228276
-0.0731377
-0.164817
-0.17938
-0.287406
-0.363536
-0.586538
-0.542714
-0.128441
-0.0284625
-0.00643137
-67.4942
50.4001
2.76482
1.85701
1.63201
1.20918
1.09707
0.878408
0.812491
0.654573
0.598134
0.431327
0.40597
0.427534
0.427912
0.410027
0.401654
0.371264
0.36037
0.328132
0.31724
0.286937
0.276955
0.249965
0.241324
0.218685
0.212284
0.197899
0.199445
0.222269
0.32136
0.197182
0.138297
0.124405
0.104146
0.0983563
0.0857232
0.0818309
0.0721869
0.0691233
0.0612048
0.0586523
0.0519324
0.0497365
0.0438628
0.0418937
0.0364773
0.0345539
0.0289459
0.0267468
0.0196729
0.0186505
0.0198614
0.0199356
0.019217
0.0188563
0.0174936
0.0169965
0.015501
0.0149847
0.0135169
0.013003
0.0115258
0.0109439
0.00909848
0.00812251
0.00444197
0.00165386
-0.0102606
-0.0226321
-0.08063
-0.196706
-0.198629
-0.333549
-0.407404
-0.703118
-0.660895
-0.120229
-0.0238578
-0.00519697
-67.108
47.6992
3.3068
2.05094
1.86464
1.34028
1.25095
0.98095
0.928471
0.73266
0.687365
0.474732
0.454484
0.486338
0.486878
0.464026
0.457288
0.419071
0.410338
0.369968
0.361247
0.323351
0.315362
0.281612
0.274692
0.246304
0.24114
0.222482
0.223392
0.245538
0.385953
0.218063
0.151892
0.141156
0.116582
0.111998
0.0963297
0.093224
0.0812039
0.0787554
0.0688733
0.0668324
0.0584439
0.0566881
0.0493578
0.0477838
0.0410307
0.039494
0.0325111
0.0307418
0.0216936
0.0208762
0.0226089
0.0226787
0.0217566
0.0214661
0.0197517
0.0193532
0.0174807
0.0170676
0.0152344
0.0148238
0.0129866
0.0125235
0.0102533
0.00948323
0.00504376
0.00287189
-0.0111082
-0.0206114
-0.0857989
-0.23316
-0.212558
-0.382134
-0.442397
-0.833215
-0.799013
-0.0942444
-0.0161448
-0.00338683
-66.7216
44.979
3.9182
2.2021
2.11079
1.45397
1.41206
1.07479
1.05018
0.804727
0.783289
0.510441
0.500914
0.546395
0.546779
0.517381
0.514182
0.4657
0.461572
0.410538
0.406422
0.358568
0.3548
0.312186
0.308919
0.272995
0.270536
0.246282
0.246491
0.264078
0.462878
0.234876
0.163269
0.15846
0.128219
0.126082
0.106434
0.104974
0.0898382
0.0886849
0.0762283
0.0752666
0.0646903
0.0638629
0.0546227
0.0538812
0.0453755
0.0446521
0.0358678
0.035028
0.023385
0.0229999
0.0254229
0.0254616
0.024271
0.0241329
0.0219573
0.0217689
0.0194022
0.0192073
0.0168951
0.0167018
0.0143926
0.0141755
0.0113481
0.0109908
0.00555491
0.00456232
-0.0121348
-0.0163633
-0.0876808
-0.276333
-0.218879
-0.435091
-0.464168
-0.980313
-0.963954
-0.0431933
-0.00581806
-0.00117786
-66.335
44.979
3.9182
2.2021
2.11079
1.45397
1.41206
1.07479
1.05018
0.804727
0.783289
0.510441
0.500914
0.546395
0.546779
0.517381
0.514182
0.4657
0.461572
0.410538
0.406423
0.358569
0.3548
0.312186
0.30892
0.272995
0.270537
0.246282
0.246491
0.264078
0.462879
0.234876
0.163269
0.158461
0.128219
0.126083
0.106434
0.104974
0.0898385
0.0886852
0.0762286
0.0752668
0.0646905
0.0638631
0.0546229
0.0538814
0.0453757
0.0446522
0.0358679
0.0350282
0.0233851
0.023
0.025423
0.0254617
0.0242711
0.024133
0.0219574
0.021769
0.0194023
0.0192074
0.0168952
0.0167019
0.0143927
0.0141756
0.0113482
0.0109909
0.00555503
0.00456244
-0.0121346
-0.0163632
-0.0876807
-0.276333
-0.21888
-0.435093
-0.46417
-0.980317
-0.963958
-0.0431934
-0.00581808
-0.00117788
-66.335
47.6991
3.3068
2.05094
1.86464
1.34028
1.25095
0.98095
0.928471
0.73266
0.687365
0.474732
0.454484
0.486338
0.486878
0.464026
0.457288
0.419072
0.410338
0.369968
0.361248
0.323351
0.315362
0.281612
0.274693
0.246304
0.24114
0.222482
0.223393
0.245539
0.385954
0.218064
0.151892
0.141156
0.116582
0.111998
0.09633
0.0932242
0.0812041
0.0787556
0.0688735
0.0668326
0.0584441
0.0566883
0.049358
0.047784
0.0410309
0.0394941
0.0325112
0.0307419
0.0216936
0.0208763
0.022609
0.0226788
0.0217567
0.0214662
0.0197519
0.0193533
0.0174809
0.0170677
0.0152345
0.0148239
0.0129867
0.0125236
0.0102534
0.00948334
0.00504387
0.00287201
-0.0111081
-0.0206113
-0.0857989
-0.233161
-0.212558
-0.382135
-0.442399
-0.833218
-0.799016
-0.0942447
-0.0161448
-0.00338685
-66.7215
50.4001
2.76481
1.85701
1.63201
1.20918
1.09707
0.878408
0.812491
0.654573
0.598134
0.431327
0.40597
0.427534
0.427913
0.410027
0.401654
0.371264
0.36037
0.328132
0.31724
0.286937
0.276955
0.249965
0.241324
0.218685
0.212284
0.197899
0.199445
0.222269
0.321361
0.197182
0.138298
0.124406
0.104146
0.0983566
0.0857235
0.0818312
0.0721871
0.0691235
0.061205
0.0586525
0.0519326
0.0497367
0.043863
0.0418939
0.0364775
0.034554
0.028946
0.0267469
0.019673
0.0186506
0.0198615
0.0199357
0.0192171
0.0188564
0.0174938
0.0169966
0.0155011
0.0149848
0.013517
0.0130031
0.0115259
0.0109439
0.00909858
0.00812261
0.00444207
0.00165397
-0.0102605
-0.022632
-0.0806299
-0.196706
-0.198629
-0.33355
-0.407405
-0.70312
-0.660898
-0.120229
-0.0238579
-0.00519696
-67.108
53.0773
2.28285
1.63576
1.40729
1.06565
0.947454
0.769757
0.700191
0.572426
0.513318
0.382265
0.35558
0.369578
0.369678
0.355648
0.346901
0.322677
0.311256
0.285442
0.274009
0.24971
0.239229
0.217584
0.208516
0.190416
0.183747
0.17268
0.174646
0.195949
0.265699
0.17369
0.122904
0.10791
0.0911311
0.0849892
0.0747675
0.0706683
0.0629069
0.0596858
0.0533219
0.0506392
0.0452402
0.0429323
0.0382119
0.0361418
0.0317845
0.0297613
0.0252446
0.0229469
0.0174104
0.0163357
0.0171596
0.0172243
0.0166633
0.0162867
0.0152011
0.0146799
0.0134822
0.01294
0.0117613
0.0112209
0.0100293
0.00941489
0.00790906
0.00687012
0.00380462
0.000801038
-0.00939463
-0.0228276
-0.0731377
-0.164817
-0.179381
-0.287407
-0.363537
-0.58654
-0.542716
-0.128442
-0.0284626
-0.00643134
-67.4942
55.7299
1.8514
1.39777
1.1871
0.913191
0.800215
0.65678
0.59022
0.487533
0.43138
0.329028
0.303562
0.312178
0.312009
0.301058
0.292767
0.273578
0.262717
0.242178
0.231293
0.211931
0.201949
0.184701
0.176069
0.16169
0.155386
0.146939
0.149074
0.167691
0.216508
0.148548
0.106078
0.0914854
0.0776909
0.0717851
0.0635667
0.0596521
0.0534453
0.0503739
0.0452917
0.0427346
0.0384243
0.0362245
0.032455
0.0304813
0.0269982
0.0250685
0.0214545
0.0192766
0.0149694
0.0139449
0.014488
0.014538
0.0141022
0.0137455
0.0128859
0.0123903
0.0114371
0.0109208
0.0099802
0.0094647
0.00850964
0.00792154
0.00670091
0.00569874
0.00316474
0.000235846
-0.00839918
-0.021548
-0.0639906
-0.136013
-0.156393
-0.24254
-0.313794
-0.480632
-0.439353
-0.124082
-0.0299493
-0.00699521
-67.8803
58.3593
1.46129
1.15007
0.969441
0.75429
0.654194
0.540728
0.481693
0.400779
0.35129
0.272715
0.250181
0.255129
0.254771
0.246361
0.239068
0.224145
0.214566
0.198527
0.188915
0.173776
0.16496
0.151472
0.143853
0.132641
0.127111
0.120775
0.122843
0.138225
0.171988
0.122387
0.0881381
0.0750292
0.0639352
0.0586736
0.0521939
0.0487276
0.0438583
0.0411425
0.0371605
0.0349003
0.031524
0.0295796
0.0266262
0.0248813
0.0221498
0.0204431
0.017607
0.0156915
0.0123971
0.0114914
0.0118363
0.0118712
0.011538
0.0112244
0.0105562
0.0101191
0.00937458
0.00891854
0.00818211
0.00772617
0.00697536
0.00645353
0.00548406
0.00458867
0.00254071
-0.000101055
-0.00722313
-0.0190965
-0.0536601
-0.109275
-0.130775
-0.198268
-0.260227
-0.383049
-0.34695
-0.110877
-0.0285888
-0.00686956
-68.2661
60.9684
1.10394
0.897133
0.753161
0.590786
0.508708
0.422499
0.374041
0.312767
0.272363
0.214161
0.1957
0.198293
0.197855
0.191619
0.185675
0.174499
0.166673
0.154619
0.146759
0.135369
0.128158
0.118009
0.11178
0.103366
0.0988687
0.0942746
0.0960792
0.108024
0.130802
0.0956128
0.0693523
0.0584926
0.0499463
0.045611
0.0407007
0.0378594
0.0341853
0.0319618
0.0289606
0.0271106
0.0245665
0.0229751
0.0207492
0.0193207
0.0172605
0.015863
0.0137228
0.0121616
0.00972926
0.00898791
0.00919702
0.00921916
0.00897301
0.00871755
0.00821733
0.00786022
0.00730058
0.00692756
0.00637284
0.00599948
0.00543196
0.00500346
0.00426428
0.00352474
0.00194046
-0.000258706
-0.00585698
-0.0157374
-0.0424876
-0.0839007
-0.103316
-0.154218
-0.204226
-0.291823
-0.262545
-0.0915208
-0.0248056
-0.00609916
-68.6517
63.561
0.771346
0.641687
0.537618
0.424071
0.363387
0.30276
0.266902
0.223921
0.194148
0.154018
0.140378
0.141578
0.141171
0.136866
0.132492
0.12472
0.11895
0.110544
0.104745
0.0967946
0.0914732
0.0843894
0.0797941
0.073933
0.07063
0.0675185
0.0689101
0.0773904
0.0919358
0.068481
0.0499506
0.0418636
0.0357891
0.0325714
0.0291248
0.0270245
0.0244544
0.0228124
0.0207147
0.0193488
0.017571
0.0163961
0.0148404
0.0137855
0.0123448
0.0113125
0.00981542
0.00866663
0.00699384
0.00644645
0.00656524
0.00657788
0.00640844
0.00622051
0.00587275
0.00560947
0.00521915
0.00494387
0.00455635
0.00428058
0.00388303
0.00356585
0.00304454
0.00249462
0.00136483
-0.000280362
-0.00431951
-0.0117035
-0.0307284
-0.0594064
-0.0745985
-0.110203
-0.146721
-0.205272
-0.18381
-0.067992
-0.0191021
-0.00477901
-69.0371
66.1415
0.456018
0.385217
0.322454
0.255241
0.218064
0.182029
0.160049
0.134547
0.116348
0.0928146
0.0844617
0.084927
0.0846428
0.0821156
0.0794442
0.0748598
0.0713316
0.0663638
0.0628163
0.0581151
0.0548592
0.0506702
0.0478592
0.0443983
0.0423838
0.0405824
0.0414574
0.0465139
0.0545894
0.0411523
0.0301312
0.025154
0.0215176
0.0195411
0.017495
0.0162084
0.0146863
0.0136811
0.0124396
0.0116036
0.0105514
0.00983228
0.0089115
0.00826581
0.00741272
0.00678075
0.00589415
0.00519261
0.00421343
0.00387837
0.00393773
0.00394391
0.00384464
0.0037299
0.00352481
0.00336382
0.00313313
0.0029647
0.0027354
0.00256656
0.0023309
0.00213642
0.00182596
0.00148772
0.000809832
-0.000206239
-0.00264822
-0.00720384
-0.0185831
-0.0354514
-0.0450641
-0.0661517
-0.0883342
-0.121921
-0.10885
-0.041786
-0.0120158
-0.00304123
-69.4223
68.7147
0.150883
0.128426
0.107467
0.0852104
0.0726955
0.0607372
0.0533355
0.04488
0.0387608
0.0310041
0.0281929
0.0283061
0.0282045
0.027371
0.0264732
0.0249576
0.0237711
0.0221273
0.0209339
0.0193778
0.0182825
0.016896
0.0159504
0.0148057
0.0141291
0.0135393
0.0138375
0.0155167
0.0181036
0.013727
0.0100701
0.00839091
0.0071798
0.00651352
0.00583495
0.00540186
0.00489766
0.0045594
0.00414826
0.00386696
0.00351856
0.00327658
0.00297167
0.0027544
0.00247183
0.00225917
0.00196549
0.00172971
0.00140727
0.00129453
0.00131236
0.00131418
0.00128147
0.00124291
0.00117512
0.00112098
0.00104464
0.000987975
0.000912055
0.000855236
0.000777133
0.000711636
0.000608506
0.000494412
0.000268377
-7.5066e-05
-0.000892362
-0.00243126
-0.00621811
-0.0117867
-0.0150707
-0.0220566
-0.0294915
-0.0404358
-0.036049
-0.0140883
-0.00409775
-0.00104319
-69.8074
68.7223
0.13674
0.103794
0.0777595
0.0524422
0.0390534
0.0275027
0.0210892
0.0150023
0.0125849
0.011923
0.011573
0.0110198
0.0105817
0.00996784
0.00952188
0.00893953
0.00852151
0.00797826
0.00758726
0.00707764
0.00671221
0.00623903
0.00590785
0.00549473
0.0052419
0.0050055
0.00508392
0.00563215
0.00650097
0.00486563
0.00348748
0.00284819
0.00237853
0.00211911
0.00185496
0.00168784
0.0014957
0.00136863
0.00121679
0.00111459
0.000990341
0.000905582
0.000800933
0.00072804
0.000635681
0.000568607
0.000479474
0.000411308
0.000320819
0.000282068
0.000267353
0.00025109
0.000217038
0.000184108
0.000129672
8.10127e-05
3.71431e-06
-6.65037e-05
-0.000180252
-0.000288053
-0.000469087
-0.000651081
-0.000972109
-0.0013262
-0.00200134
-0.00287882
-0.00478163
-0.00793371
-0.0152983
-0.0252208
-0.0278904
-0.03503
-0.0427971
-0.0539145
-0.046977
-0.0182896
-0.00531363
-0.00135225
-69.1028
66.1648
0.413675
0.311106
0.23325
0.156849
0.117087
0.0823025
0.0632544
0.0448601
0.0376844
0.0357565
0.0347271
0.0330549
0.0317522
0.0298968
0.0285711
0.026812
0.0255695
0.0239287
0.0227665
0.0212271
0.0201409
0.0187114
0.0177268
0.0164778
0.015725
0.0150039
0.015233
0.0168836
0.0196031
0.0145866
0.0104329
0.00853778
0.00712717
0.00635751
0.00556099
0.00506451
0.00448448
0.00410688
0.00364838
0.00334464
0.00296944
0.00271754
0.00240153
0.0021849
0.00190603
0.0017067
0.00143758
0.00123482
0.000960387
0.000845242
0.000802119
0.000753982
0.000651067
0.000553184
0.000388785
0.000244183
1.08592e-05
-0.00019777
-0.000540995
-0.000861231
-0.00140722
-0.00194768
-0.002915
-0.00396576
-0.00599592
-0.00859544
-0.0142949
-0.0236326
-0.0457927
-0.0759524
-0.0834924
-0.105065
-0.128257
-0.162466
-0.141801
-0.0542402
-0.0155803
-0.00394214
-67.3085
63.6009
0.70108
0.517428
0.388682
0.259791
0.194921
0.136473
0.105394
0.0742691
0.062574
0.0595541
0.057907
0.0550752
0.0529447
0.0498046
0.0476376
0.0446638
0.0426335
0.0398599
0.0379609
0.0353585
0.0335834
0.031166
0.0295564
0.027441
0.0262069
0.0249643
0.0253251
0.0280923
0.0330146
0.0242731
0.0172879
0.014208
0.0118502
0.010597
0.00925501
0.00844451
0.00746517
0.00684836
0.00607378
0.00557755
0.00494361
0.00453206
0.00399815
0.00364424
0.0031732
0.00284759
0.00239303
0.00206119
0.00159358
0.00140553
0.00133708
0.00125906
0.00108489
0.000924919
0.000647104
0.000410901
1.70148e-05
-0.000323654
-0.000902658
-0.00142538
-0.00234558
-0.00322721
-0.00485456
-0.00656614
-0.00996773
-0.0141881
-0.0236627
-0.0388187
-0.075967
-0.127589
-0.138533
-0.175035
-0.213277
-0.273212
-0.239301
-0.0882348
-0.0247661
-0.00619446
-65.514
61.0265
1.00629
0.721555
0.544119
0.360172
0.272498
0.189549
0.147534
0.102901
0.0871166
0.0832968
0.0811342
0.0770674
0.0741777
0.0696734
0.0667365
0.0624779
0.0597272
0.0557562
0.0531834
0.0494568
0.0470515
0.0435882
0.0414061
0.0383689
0.0366891
0.0348606
0.035321
0.0392148
0.0469727
0.0338893
0.0239867
0.0198493
0.016529
0.01484
0.0129278
0.0118313
0.0104313
0.00959614
0.00848803
0.00781596
0.00690887
0.00635147
0.00558755
0.00510827
0.00443454
0.00399362
0.00334357
0.00289299
0.00221559
0.00196104
0.00187243
0.00176798
0.00151815
0.00130136
0.000903756
0.000583923
2.10392e-05
-0.000440007
-0.00126657
-0.00197363
-0.00328548
-0.00447691
-0.00679076
-0.00909892
-0.0139068
-0.0195705
-0.0328032
-0.053125
-0.105562
-0.180853
-0.192552
-0.244936
-0.297429
-0.387712
-0.341487
-0.118726
-0.0321561
-0.00790516
-63.7193
58.4379
1.33716
0.92139
0.699818
0.456702
0.349886
0.240987
0.18978
0.130379
0.111181
0.106973
0.104438
0.0990125
0.0954752
0.0894796
0.0858882
0.0802317
0.0768697
0.0715966
0.068452
0.0635022
0.0605619
0.0559592
0.0532901
0.0492425
0.0471772
0.0446652
0.0451796
0.0501827
0.0617644
0.0433782
0.0304549
0.0254579
0.0211425
0.0190919
0.0165679
0.0152301
0.0133749
0.0123548
0.0108848
0.0100638
0.00886013
0.00817913
0.00716557
0.00658006
0.00568656
0.00514802
0.00428612
0.00373385
0.00282068
0.0025099
0.0024084
0.00228272
0.00195008
0.00168504
0.00115729
0.000766663
2.09864e-05
-0.000541743
-0.00163527
-0.00249769
-0.00423021
-0.00568171
-0.00872718
-0.0115317
-0.0178116
-0.0246502
-0.0416601
-0.0661468
-0.134244
-0.23666
-0.244943
-0.314832
-0.380069
-0.507672
-0.450735
-0.143769
-0.0370533
-0.00890304
-61.9244
55.8317
1.70226
1.11346
0.856377
0.54778
0.427358
0.290117
0.232353
0.156249
0.134645
0.130583
0.127857
0.120882
0.116871
0.10919
0.105122
0.0978936
0.0940886
0.0873518
0.0837928
0.0774673
0.0741389
0.0682528
0.0652292
0.0600368
0.0576832
0.0543488
0.0548586
0.0608875
0.0777547
0.0526486
0.0366061
0.0310392
0.0256655
0.0233628
0.0201605
0.0186497
0.0162851
0.0151315
0.0132557
0.0123268
0.0107905
0.0100201
0.00872645
0.00806416
0.00692437
0.00631533
0.00521628
0.00458914
0.00340167
0.00305038
0.00294534
0.00280572
0.0023793
0.00207921
0.00140534
0.0009636
1.36108e-05
-0.000622251
-0.00201322
-0.00298696
-0.00518617
-0.00682276
-0.0106732
-0.0138255
-0.0216941
-0.0293231
-0.050218
-0.0774242
-0.161552
-0.296233
-0.29487
-0.384915
-0.460215
-0.635014
-0.569984
-0.160802
-0.0388079
-0.00906515
-60.1292
53.2053
2.11106
1.29225
1.015
0.63133
0.505502
0.336069
0.27566
0.179938
0.157408
0.154139
0.151445
0.142633
0.138414
0.128755
0.124483
0.115419
0.111425
0.10298
0.0992443
0.0913124
0.0878181
0.0804319
0.077255
0.0707175