/*--------------------------------*- C++ -*----------------------------------*\
| =========                 |                                                 |
| \\      /  F ield         | OpenFOAM: The Open Source CFD Toolbox           |
|  \\    /   O peration     | Version:  5.x                                   |
|   \\  /    A nd           | Web:      www.OpenFOAM.org                      |
|    \\/     M anipulation  |                                                 |
\*---------------------------------------------------------------------------*/
FoamFile
{
    version     2.0;
    format      ascii;
    class       volScalarField;
    location    "7.6";
    object      gradTy;
}
// * * * * * * * * * * * * * * * * * * * * * * * * * * * * * * * * * * * * * //

dimensions      [0 -1 0 1 0 0 0];

internalField   nonuniform List<scalar> 
3200
(
18.2487
8.63574
11.7297
8.31235
9.74972
8.03977
8.79394
7.79272
8.24161
7.60079
7.87619
7.51731
7.72777
7.31744
7.52969
7.13943
7.3386
6.98005
7.16181
6.83791
7.00123
6.71231
6.85738
6.60227
6.73027
6.50614
6.62038
6.42078
6.53574
6.36664
6.23152
6.31866
6.20021
6.25784
6.16573
6.21036
6.13641
6.1723
6.1122
6.14139
6.09237
6.11615
6.07623
6.09552
6.06326
6.07869
6.05315
6.06503
6.04595
6.05412
6.04306
6.04918
6.03764
6.04301
6.03411
6.03771
6.03283
6.03385
6.03455
6.03186
6.04064
6.03228
6.05365
6.03582
6.07862
6.04275
6.12651
6.04833
6.22315
6.00072
6.29313
7.10891
6.4216
7.94776
6.78061
9.89645
9.12579
9.00793
8.9836
8.97836
17.0091
9.75168
11.3321
8.77634
9.54697
8.26996
8.67373
7.92526
8.16446
7.685
7.83204
7.56417
7.67632
7.36893
7.48105
7.1887
7.29401
7.02544
7.12158
6.87899
6.96538
6.74899
6.82574
6.63469
6.70244
6.53461
6.59525
6.44597
6.50829
6.37044
6.2564
6.30429
6.21582
6.24655
6.1776
6.20127
6.1459
6.16491
6.11991
6.13536
6.09866
6.11125
6.08136
6.09157
6.06741
6.07557
6.05645
6.06273
6.04843
6.05277
6.04451
6.04777
6.03912
6.04195
6.03527
6.03717
6.0335
6.03403
6.03454
6.0331
6.03965
6.03518
6.05115
6.04161
6.07357
6.05427
6.1167
6.07391
6.20335
6.07614
6.35162
6.99361
6.62345
7.76507
7.15803
9.5031
9.09963
9.00414
8.98279
8.97811
16.0598
10.514
11.0999
9.10722
9.42607
8.43288
8.59955
8.01825
8.116
7.74409
7.80444
7.59577
7.64161
7.40358
7.44854
7.22202
7.26432
7.0562
7.09486
6.90685
6.9416
6.77389
6.80478
6.6567
6.68399
6.5539
6.57848
6.46266
6.48882
6.37324
6.27478
6.29534
6.22664
6.23921
6.18575
6.19532
6.15239
6.16006
6.12517
6.13141
6.10295
6.10803
6.08486
6.08897
6.07024
6.07353
6.05871
6.06123
6.05016
6.05192
6.04549
6.04681
6.04012
6.04125
6.03608
6.03683
6.034
6.0342
6.0346
6.034
6.0391
6.03726
6.04966
6.04573
6.07057
6.06251
6.11109
6.09259
6.19382
6.13544
6.39545
6.91879
6.76483
7.65235
7.4174
9.21973
9.06119
8.99743
8.98135
8.9777
15.3324
11.0311
10.9709
9.34564
9.35765
8.54939
8.55528
8.08407
8.08632
7.7859
7.7876
7.61719
7.61825
7.42692
7.42689
7.24458
7.24465
7.07709
7.0772
6.92581
6.92592
6.79086
6.79097
6.67171
6.67184
6.56701
6.56732
6.47366
6.47501
6.37537
6.28839
6.28997
6.23421
6.23452
6.19137
6.19147
6.15686
6.15691
6.1288
6.12883
6.10591
6.10593
6.08726
6.08729
6.0722
6.07221
6.06027
6.06028
6.05137
6.0514
6.04616
6.04618
6.04081
6.0408
6.03665
6.03664
6.03437
6.03436
6.03471
6.03468
6.03882
6.03876
6.04883
6.04869
6.06888
6.06848
6.10817
6.10648
6.19067
6.182
6.42875
6.87107
6.86455
7.58453
7.59527
9.01479
9.01896
8.98881
8.97942
8.97716
14.7769
11.3786
10.9044
9.51857
9.32205
8.63334
8.53011
8.13096
8.06876
7.81562
7.77765
7.63176
7.60259
7.4426
7.41253
7.25985
7.23169
7.09127
7.06559
6.9387
6.91564
6.80242
6.78194
6.68193
6.66389
6.57591
6.55992
6.48087
6.46523
6.37698
6.29846
6.28688
6.23953
6.23156
6.19526
6.189
6.15994
6.15489
6.13129
6.12718
6.10794
6.10459
6.08893
6.08621
6.07355
6.07137
6.06136
6.05969
6.05222
6.05108
6.04662
6.04577
6.04129
6.04052
6.03706
6.03654
6.03466
6.0345
6.03482
6.03519
6.03871
6.03986
6.0484
6.05084
6.06802
6.07285
6.10691
6.11694
6.19123
6.21834
6.45422
6.8413
6.93522
7.54508
7.71678
8.86647
8.97811
8.97937
8.97721
8.97652
14.3574
11.609
10.8744
9.64393
9.30613
8.69388
8.51676
8.16436
8.05882
7.83673
7.77201
7.64165
7.59216
7.45308
7.40307
7.27014
7.22321
7.10086
7.05804
6.94744
6.90897
6.81026
6.77609
6.68888
6.65873
6.58192
6.55504
6.48554
6.45837
6.37821
6.30586
6.28523
6.24328
6.22974
6.19796
6.18745
6.16206
6.15361
6.13301
6.12613
6.10934
6.10374
6.09007
6.08553
6.07448
6.07085
6.06212
6.05932
6.05282
6.0509
6.04694
6.04549
6.04161
6.04035
6.03735
6.0365
6.03487
6.03463
6.03494
6.03557
6.0387
6.04066
6.04822
6.05241
6.06765
6.07606
6.1066
6.12483
6.19369
6.24634
6.47365
6.82326
6.98525
7.52316
7.79918
8.75967
8.94167
8.97006
8.97493
8.97586
14.0479
11.759
10.8642
9.73358
9.30119
8.737
8.51043
8.1879
8.05356
7.85155
7.769
7.64831
7.58531
7.46
7.39693
7.27699
7.21776
7.10727
7.0532
6.95329
6.9047
6.81553
6.77236
6.69354
6.65544
6.58594
6.55186
6.48852
6.45362
6.37912
6.31118
6.28443
6.24589
6.22864
6.1998
6.18649
6.16351
6.15281
6.13417
6.12548
6.11029
6.10321
6.09084
6.0851
6.07512
6.07053
6.06264
6.0591
6.05324
6.0508
6.04715
6.04532
6.04183
6.04024
6.03755
6.03648
6.03503
6.03473
6.03504
6.03585
6.03873
6.04124
6.04817
6.05353
6.06755
6.07837
6.10678
6.1307
6.19678
6.26735
6.48818
6.81272
7.02024
7.51171
7.85421
8.68402
8.91138
8.96169
8.97282
8.97523
13.8298
11.8531
10.8635
9.7953
9.30151
8.76662
8.50794
8.2039
8.05099
7.86159
7.76751
7.65265
7.58096
7.46443
7.39306
7.28141
7.21435
7.11142
7.05019
6.95709
6.90206
6.81895
6.77005
6.69658
6.6534
6.58855
6.54986
6.49036
6.45046
6.37977
6.31486
6.28411
6.24765
6.22801
6.20101
6.18592
6.16446
6.15234
6.13494
6.12509
6.11091
6.10289
6.09136
6.08485
6.07554
6.07034
6.06298
6.05898
6.05352
6.05075
6.04729
6.04521
6.04198
6.04018
6.03768
6.03648
6.03514
6.03481
6.03512
6.03605
6.03877
6.04164
6.04819
6.0543
6.06758
6.07998
6.10715
6.13487
6.1997
6.28235
6.49857
6.80686
7.04387
7.50622
7.88973
8.63246
8.88817
8.95489
8.97105
8.9747
13.6909
11.9078
10.8659
9.83405
9.30348
8.78519
8.50725
8.21385
8.04989
7.86782
7.76685
7.65528
7.5784
7.46705
7.3908
7.28404
7.21237
7.1139
7.04845
6.95937
6.90054
6.821
6.76873
6.6984
6.65223
6.5901
6.54868
6.49141
6.44852
6.38019
6.31716
6.284
6.24874
6.22767
6.20176
6.1856
6.16503
6.15207
6.13541
6.12487
6.11129
6.10272
6.09167
6.08471
6.07579
6.07023
6.06319
6.05892
6.05369
6.05072
6.04738
6.04515
6.04207
6.04015
6.03777
6.03648
6.03522
6.03487
6.03518
6.03618
6.03882
6.04189
6.04822
6.05479
6.06765
6.081
6.10749
6.13756
6.20191
6.292
6.50527
6.80386
7.05849
7.50389
7.9109
8.60038
8.87252
8.95011
8.96978
8.97432
13.6233
11.9328
10.8679
9.85274
9.30496
8.79415
8.50719
8.21863
8.0495
7.8708
7.76661
7.65651
7.57721
7.46827
7.38976
7.28527
7.21147
7.11506
7.04766
6.96044
6.89985
6.82197
6.76813
6.69925
6.6517
6.59083
6.54814
6.49189
6.44761
6.38039
6.31828
6.28399
6.24926
6.22752
6.20211
6.18546
6.16531
6.15195
6.13562
6.12477
6.11147
6.10264
6.09181
6.08465
6.07591
6.07018
6.06329
6.05889
6.05378
6.05072
6.04742
6.04512
6.04211
6.04014
6.03781
6.03649
6.03525
6.03489
6.03521
6.03624
6.03884
6.04201
6.04824
6.05502
6.06769
6.0815
6.10769
6.13888
6.20309
6.29673
6.50856
6.80261
7.06548
7.50309
7.92076
8.585
8.86465
8.94765
8.96912
8.97412
-13.7623
-11.9568
-10.7278
-9.38861
-8.57819
-7.68635
-7.1244
-6.47251
-6.05748
-5.57538
-5.28193
-4.95629
-4.71866
-4.39012
-4.15442
-3.84269
-3.62484
-3.3436
-3.14932
-2.90115
-2.73057
-2.51368
-2.36486
-2.17585
-2.04582
-1.87983
-1.76325
-1.60922
-1.48678
-1.29907
-1.12331
-1.02468
-0.922306
-0.856951
-0.77882
-0.726678
-0.66217
-0.618627
-0.56425
-0.527425
-0.481311
-0.450072
-0.410962
-0.384528
-0.351546
-0.329427
-0.302123
-0.284228
-0.262825
-0.249617
-0.234722
-0.223752
-0.208472
-0.197462
-0.182841
-0.172598
-0.159342
-0.150174
-0.138453
-0.130411
-0.120216
-0.113302
-0.104676
-0.0990617
-0.0925035
-0.0891511
-0.0871126
-0.0905578
-0.104816
-0.138733
-0.228821
-0.374923
-0.529495
-0.815963
-1.11862
-1.62774
-1.84311
-1.90711
-1.92368
-1.92753
-13.8345
-11.9338
-10.7322
-9.36746
-8.58146
-7.67316
-7.128
-6.46304
-6.06016
-5.56784
-5.28322
-4.95277
-4.7223
-4.38641
-4.15747
-3.83894
-3.62737
-3.34013
-3.15148
-2.89805
-2.73243
-2.51096
-2.36648
-2.1735
-2.04726
-1.87786
-1.76475
-1.60796
-1.48939
-1.2986
-1.12023
-1.02483
-0.920828
-0.857465
-0.777782
-0.727175
-0.661334
-0.619063
-0.56355
-0.527798
-0.480718
-0.450389
-0.410456
-0.384792
-0.351113
-0.329636
-0.301749
-0.28437
-0.262499
-0.249685
-0.234566
-0.223926
-0.208302
-0.197607
-0.182667
-0.172719
-0.159179
-0.150277
-0.138307
-0.130498
-0.120085
-0.113371
-0.104556
-0.0991002
-0.092376
-0.0890993
-0.0868939
-0.0901259
-0.10403
-0.136487
-0.226581
-0.374585
-0.524219
-0.815316
-1.11036
-1.63949
-1.84917
-1.90901
-1.92419
-1.92769
-13.9828
-11.8827
-10.7432
-9.32317
-8.58961
-7.64544
-7.1364
-6.4431
-6.06643
-5.55199
-5.28636
-4.94526
-4.73016
-4.37843
-4.1641
-3.83091
-3.63295
-3.33271
-3.15624
-2.89144
-2.73652
-2.50517
-2.37003
-2.16848
-2.05043
-1.87364
-1.768
-1.60518
-1.4949
-1.29763
-1.11383
-1.02533
-0.917728
-0.858634
-0.775585
-0.728284
-0.659557
-0.62003
-0.562062
-0.528627
-0.479457
-0.451092
-0.409382
-0.385378
-0.350194
-0.330103
-0.300955
-0.284693
-0.261812
-0.249848
-0.234233
-0.2243
-0.207936
-0.197924
-0.182295
-0.172986
-0.158832
-0.150504
-0.137995
-0.13069
-0.119808
-0.113525
-0.104303
-0.0991903
-0.0921114
-0.0890053
-0.0864584
-0.0892678
-0.102502
-0.131936
-0.222025
-0.374182
-0.513285
-0.81451
-1.09274
-1.66402
-1.86121
-1.91269
-1.92516
-1.92798
-14.2151
-11.7933
-10.7653
-9.25143
-8.6062
-7.60033
-7.15217
-6.41049
-6.07822
-5.5262
-5.29251
-4.93272
-4.7435
-4.36496
-4.1755
-3.81748
-3.64261
-3.32036
-3.16453
-2.88044
-2.74368
-2.49553
-2.37625
-2.16012
-2.05595
-1.86658
-1.77355
-1.6003
-1.50389
-1.29612
-1.10363
-1.02659
-0.91269
-0.860764
-0.77196
-0.730253
-0.656614
-0.621738
-0.559595
-0.530087
-0.477366
-0.45233
-0.407601
-0.386413
-0.348672
-0.330934
-0.299647
-0.285282
-0.260689
-0.250157
-0.233673
-0.224933
-0.207318
-0.198466
-0.181671
-0.173447
-0.158253
-0.150899
-0.137476
-0.131026
-0.119348
-0.113798
-0.103886
-0.0993598
-0.0916887
-0.0888897
-0.0858094
-0.0879933
-0.100328
-0.124959
-0.214986
-0.3743
-0.495866
-0.814624
-1.0634
-1.70351
-1.87909
-1.91793
-1.92652
-1.92839
-14.5442
-11.6481
-10.8069
-9.14494
-8.63722
-7.53292
-7.17969
-6.36151
-6.0988
-5.48769
-5.30371
-4.91335
-4.76441
-4.34393
-4.19364
-3.79674
-3.65818
-3.30135
-3.17796
-2.86355
-2.7553
-2.48074
-2.38634
-2.14729
-2.06489
-1.85566
-1.78231
-1.59234
-1.51733
-1.29401
-1.08881
-1.02933
-0.905176
-0.864371
-0.766454
-0.733501
-0.652124
-0.624538
-0.555825
-0.532478
-0.47417
-0.454359
-0.404881
-0.388112
-0.346353
-0.332309
-0.297665
-0.286282
-0.259006
-0.250707
-0.232806
-0.225922
-0.206351
-0.199328
-0.180705
-0.174189
-0.157362
-0.151538
-0.13668
-0.131572
-0.118643
-0.114246
-0.103255
-0.099656
-0.0910719
-0.0887862
-0.0849506
-0.0863136
-0.0976618
-0.115366
-0.205177
-0.37593
-0.47056
-0.817538
-1.0184
-1.76158
-1.90244
-1.92439
-1.92815
-1.92887
-14.9892
-11.4208
-10.8814
-8.99229
-8.69211
-7.43547
-7.22581
-6.29032
-6.13332
-5.43209
-5.32318
-4.88434
-4.79618
-4.31209
-4.22165
-3.76566
-3.68249
-3.273
-3.19904
-2.83842
-2.77357
-2.45875
-2.40223
-2.12819
-2.07891
-1.83932
-1.79573
-1.5798
-1.53671
-1.29118
-1.06816
-1.03467
-0.894331
-0.870267
-0.758352
-0.738689
-0.645484
-0.628986
-0.550242
-0.53627
-0.469435
-0.457576
-0.400855
-0.390812
-0.342926
-0.33451
-0.294753
-0.287919
-0.256565
-0.251642
-0.231499
-0.22742
-0.204883
-0.200655
-0.179256
-0.175344
-0.156032
-0.15254
-0.135494
-0.132432
-0.117598
-0.114959
-0.102329
-0.100153
-0.090204
-0.0887454
-0.0838846
-0.0842351
-0.0947423
-0.102891
-0.19213
-0.380604
-0.43516
-0.826296
-0.951708
-1.84375
-1.93054
-1.93157
-1.92991
-1.92938
-15.5769
-11.0723
-11.0098
-8.77609
-8.78526
-7.29614
-7.30098
-6.188
-6.18962
-5.3528
-5.35585
-4.8413
-4.8438
-4.26452
-4.26428
-3.71967
-3.71985
-3.23124
-3.23158
-2.80147
-2.80185
-2.42644
-2.42681
-2.10011
-2.10054
-1.81514
-1.81605
-1.56034
-1.5642
-1.28745
-1.03993
-1.04428
-0.878838
-0.879678
-0.746562
-0.746821
-0.635779
-0.635926
-0.54207
-0.542178
-0.462504
-0.462589
-0.394963
-0.395028
-0.337923
-0.337965
-0.290526
-0.290538
-0.253069
-0.253187
-0.229551
-0.229658
-0.202684
-0.20267
-0.177109
-0.177116
-0.15407
-0.154084
-0.13375
-0.133764
-0.116067
-0.116073
-0.100985
-0.100961
-0.0889973
-0.0888415
-0.0826108
-0.081751
-0.0919177
-0.0871715
-0.175115
-0.390635
-0.386297
-0.845684
-0.854352
-1.95812
-1.96207
-1.93885
-1.93161
-1.92986
-16.3448
-10.5461
-11.2251
-8.47018
-8.93835
-7.09706
-7.42085
-6.04109
-6.27946
-5.23992
-5.40922
-4.77759
-4.9147
-4.19379
-4.3287
-3.6519
-3.77676
-3.16993
-3.28135
-2.7473
-2.84516
-2.37909
-2.46449
-2.05895
-2.13361
-1.77951
-1.84664
-1.5305
-1.60291
-1.28255
-1.00164
-1.06068
-0.856696
-0.894451
-0.72944
-0.759408
-0.621628
-0.646629
-0.530143
-0.55128
-0.452385
-0.470313
-0.386365
-0.401533
-0.330635
-0.343322
-0.284403
-0.294658
-0.24807
-0.255684
-0.226654
-0.232981
-0.199407
-0.205708
-0.173941
-0.179811
-0.151187
-0.156444
-0.131193
-0.135806
-0.113828
-0.117791
-0.0990405
-0.102247
-0.087319
-0.0891813
-0.0811229
-0.0788266
-0.0896903
-0.0677455
-0.152996
-0.409461
-0.318885
-0.8831
-0.713192
-2.11649
-1.99469
-1.9455
-1.9331
-1.93028
-17.3447
-9.76078
-11.5777
-8.03535
-9.18383
-6.81138
-7.60888
-5.82947
-6.42042
-5.0787
-5.49464
-4.68313
-5.01992
-4.08883
-4.42559
-3.55206
-3.86295
-3.07989
-3.35695
-2.66786
-2.91103
-2.3097
-2.52181
-1.99859
-2.18383
-1.72704
-1.89257
-1.48513
-1.65734
-1.27608
-0.949744
-1.08761
-0.824887
-0.917338
-0.704522
-0.778707
-0.600969
-0.662993
-0.512712
-0.565185
-0.437594
-0.482113
-0.373805
-0.411482
-0.320006
-0.351545
-0.275514
-0.301054
-0.240905
-0.259647
-0.222345
-0.237901
-0.194537
-0.21027
-0.169268
-0.183887
-0.146949
-0.160025
-0.127443
-0.138912
-0.110552
-0.120418
-0.0962181
-0.10426
-0.0849699
-0.0899187
-0.0794052
-0.0753764
-0.0887758
-0.0440323
-0.12403
-0.442168
-0.225281
-0.94988
-0.509103
-2.33586
-2.0244
-1.95068
-1.9342
-1.93058
-18.6482
-8.59975
-12.1451
-7.41319
-9.57045
-6.39922
-7.9003
-5.52335
-6.639
-4.84748
-5.62947
-4.54305
-5.17617
-3.93347
-4.5712
-3.40515
-3.9932
-2.94773
-3.47147
-2.5514
-3.01096
-2.20802
-2.6088
-1.91014
-2.25998
-1.64991
-1.96165
-1.41679
-1.73412
-1.26762
-0.879467
-1.13075
-0.77904
-0.952603
-0.668279
-0.808239
-0.570862
-0.687993
-0.487303
-0.586425
-0.416041
-0.500149
-0.355516
-0.426709
-0.304558
-0.364173
-0.262657
-0.310971
-0.230672
-0.265941
-0.216004
-0.24526
-0.187381
-0.217179
-0.162441
-0.190097
-0.140778
-0.165499
-0.121992
-0.143672
-0.105803
-0.124464
-0.0921573
-0.107418
-0.0816981
-0.0913215
-0.0774704
-0.0712714
-0.0902235
-0.0153659
-0.0855638
-0.496288
-0.0940293
-1.06327
-0.214309
-2.64074
-2.04458
-1.95355
-1.93477
-1.93072
18.6482
8.59975
12.1451
7.41319
9.57045
6.39922
7.9003
5.52335
6.639
4.84748
5.62947
4.54305
5.17617
3.93346
4.5712
3.40515
3.9932
2.94773
3.47147
2.5514
3.01096
2.20802
2.6088
1.91014
2.25998
1.64991
1.96164
1.41678
1.73412
1.26762
0.879465
1.13075
0.779039
0.952603
0.668278
0.808238
0.570861
0.687993
0.487303
0.586424
0.41604
0.500149
0.355516
0.426708
0.304557
0.364172
0.262657
0.310971
0.230672
0.26594
0.216004
0.24526
0.18738
0.217179
0.162441
0.190097
0.140777
0.165499
0.121991
0.143672
0.105803
0.124464
0.0921571
0.107418
0.081698
0.0913216
0.0774702
0.0712715
0.0902234
0.015366
0.0855638
0.49629
0.0940296
1.06328
0.21431
2.64074
2.04459
1.95355
1.93477
1.93073
17.3447
9.76078
11.5777
8.03535
9.18383
6.81139
7.60889
5.82948
6.42042
5.0787
5.49464
4.68314
5.01993
4.08884
4.4256
3.55207
3.86296
3.07989
3.35695
2.66786
2.91104
2.3097
2.52181
1.99859
2.18383
1.72704
1.89257
1.48513
1.65734
1.27608
0.949746
1.08762
0.824889
0.917339
0.704523
0.778709
0.60097
0.662994
0.512713
0.565186
0.437595
0.482115
0.373806
0.411483
0.320006
0.351546
0.275515
0.301055
0.240906
0.259648
0.222346
0.237902
0.194538
0.210271
0.169269
0.183888
0.14695
0.160026
0.127444
0.138913
0.110553
0.120419
0.0962187
0.104261
0.0849705
0.0899193
0.0794057
0.075377
0.0887762
0.0440327
0.12403
0.442169
0.225281
0.949884
0.509105
2.33587
2.0244
1.95069
1.93421
1.93059
16.3448
10.5461
11.2251
8.47019
8.93836
7.09707
7.42086
6.0411
6.27946
5.23993
5.40923
4.7776
4.91471
4.1938
4.32871
3.65191
3.77677
3.16993
3.28136
2.7473
2.84517
2.3791
2.4645
2.05896
2.13361
1.77952
1.84665
1.53051
1.60292
1.28256
1.00164
1.06069
0.8567
0.894455
0.729444
0.759411
0.621631
0.646632
0.530145
0.551283
0.452387
0.470315
0.386368
0.401535
0.330637
0.343324
0.284405
0.29466
0.248072
0.255686
0.226656
0.232983
0.199409
0.20571
0.173942
0.179813
0.151188
0.156446
0.131195
0.135808
0.113829
0.117792
0.0990418
0.102249
0.0873202
0.0891825
0.0811239
0.0788276
0.0896912
0.0677463
0.152997
0.409462
0.318885
0.883102
0.713194
2.11649
1.99469
1.94551
1.9331
1.93029
15.5769
11.0723
11.0098
8.7761
8.78527
7.29615
7.30098
6.18801
6.18963
5.35281
5.35586
4.84131
4.84381
4.26453
4.26429
3.71968
3.71986
3.23125
3.23159
2.80148
2.80185
2.42645
2.42682
2.10012
2.10055
1.81515
1.81606
1.56035
1.5642
1.28745
1.03994
1.04428
0.878842
0.879683
0.746566
0.746825
0.635783
0.63593
0.542074
0.542181
0.462507
0.462592
0.394966
0.395031
0.337925
0.337968
0.290529
0.290541
0.253071
0.253189
0.229553
0.22966
0.202686
0.202672
0.177111
0.177118
0.154072
0.154086
0.133752
0.133766
0.116068
0.116074
0.100987
0.100962
0.0889986
0.0888428
0.082612
0.0817522
0.0919188
0.0871725
0.175115
0.390636
0.386298
0.845686
0.854355
1.95813
1.96208
1.93886
1.93162
1.92987
14.9892
11.4208
10.8814
8.9923
8.69212
7.43548
7.22582
6.29033
6.13333
5.4321
5.32319
4.88435
4.79619
4.3121
4.22166
3.76567
3.68249
3.27301
3.19905
2.83843
2.77358
2.45876
2.40223
2.1282
2.07892
1.83933
1.79574
1.5798
1.53672
1.29118
1.06816
1.03467
0.894336
0.870271
0.758356
0.738693
0.645488
0.62899
0.550245
0.536273
0.469439
0.457579
0.400858
0.390815
0.342929
0.334512
0.294756
0.287921
0.256568
0.251644
0.231501
0.227423
0.204885
0.200657
0.179258
0.175346
0.156034
0.152542
0.135496
0.132434
0.1176
0.114961
0.10233
0.100154
0.0902055
0.0887468
0.0838859
0.0842364
0.0947434
0.102892
0.192131
0.380605
0.435161
0.826299
0.951711
1.84375
1.93054
1.93157
1.92991
1.92938
14.5442
11.6482
10.8069
9.14495
8.63723
7.53293
7.1797
6.36152
6.09881
5.48769
5.30372
4.91336
4.76442
4.34394
4.19365
3.79674
3.65819
3.30135
3.17797
2.86356
2.7553
2.48075
2.38635
2.14729
2.0649
1.85567
1.78231
1.59235
1.51734
1.29402
1.08881
1.02934
0.905181
0.864376
0.766458
0.733506
0.652128
0.624542
0.555828
0.532482
0.474173
0.454362
0.404884
0.388115
0.346356
0.332312
0.297667
0.286284
0.259009
0.250709
0.232808
0.225925
0.206353
0.19933
0.180707
0.174191
0.157364
0.15154
0.136682
0.131574
0.118645
0.114248
0.103257
0.0996576
0.0910734
0.0887876
0.084952
0.0863149
0.097663
0.115368
0.205178
0.375931
0.470561
0.817541
1.0184
1.76159
1.90244
1.92439
1.92816
1.92888
14.2151
11.7933
10.7653
9.25143
8.60621
7.60034
7.15218
6.4105
6.07823
5.52621
5.29252
4.93272
4.7435
4.36497
4.17551
3.81749
3.64262
3.32036
3.16454
2.88045
2.74369
2.49554
2.37625
2.16013
2.05596
1.86658
1.77356
1.6003
1.50389
1.29613
1.10363
1.0266
0.912695
0.860768
0.771964
0.730257
0.656619
0.621742
0.559599
0.530091
0.47737
0.452334
0.407605
0.386416
0.348675
0.330937
0.29965
0.285284
0.260692
0.25016
0.233676
0.224935
0.207321
0.198469
0.181673
0.173449
0.158255
0.150901
0.137478
0.131028
0.119349
0.1138
0.103888
0.0993614
0.0916902
0.0888912
0.0858108
0.0879946
0.100329
0.12496
0.214988
0.374302
0.495868
0.814627
1.0634
1.70352
1.8791
1.91794
1.92653
1.92839
13.9828
11.8828
10.7432
9.32318
8.58962
7.64545
7.1364
6.44311
6.06644
5.552
5.28636
4.94527
4.73017
4.37844
4.16411
3.83092
3.63295
3.33272
3.15625
2.89145
2.73653
2.50518
2.37004
2.16848
2.05044
1.87365
1.76801
1.60519
1.4949
1.29763
1.11384
1.02533
0.917733
0.858638
0.775589
0.728289
0.659561
0.620034
0.562066
0.52863
0.479461
0.451095
0.409385
0.385381
0.350197
0.330106
0.300958
0.284695
0.261814
0.24985
0.234235
0.224302
0.207939
0.197926
0.182297
0.172988
0.158834
0.150506
0.137997
0.130692
0.11981
0.113527
0.104304
0.0991918
0.0921129
0.0890067
0.0864598
0.0892691
0.102504
0.131937
0.222026
0.374183
0.513287
0.814513
1.09274
1.66403
1.86122
1.9127
1.92517
1.92799
13.8345
11.9338
10.7322
9.36747
8.58146
7.67316
7.12801
6.46305
6.06017
5.56785
5.28323
4.95278
4.72231
4.38642
4.15748
3.83895
3.62738
3.34014
3.15149
2.89805
2.73244
2.51097
2.36648
2.1735
2.04726
1.87787
1.76476
1.60797
1.4894
1.2986
1.12024
1.02483
0.920833
0.857469
0.777787
0.727179
0.661337
0.619066
0.563554
0.527802
0.480722
0.450392
0.410459
0.384795
0.351116
0.329639
0.301751
0.284372
0.262501
0.249688
0.234569
0.223928
0.208304
0.197609
0.182669
0.172721
0.159181
0.150279
0.138309
0.130499
0.120087
0.113373
0.104558
0.0991017
0.0923775
0.0891006
0.0868952
0.0901271
0.104031
0.136488
0.226582
0.374587
0.524221
0.815319
1.11037
1.6395
1.84917
1.90902
1.9242
1.9277
13.7623
11.9568
10.7278
9.38861
8.5782
7.68635
7.1244
6.47252
6.05748
5.57539
5.28194
4.95629
4.71867
4.39013
4.15443
3.8427
3.62484
3.34361
3.14933
2.90115
2.73058
2.51369
2.36487
2.17586
2.04582
1.87984
1.76326
1.60923
1.48678
1.29908
1.12332
1.02468
0.922311
0.856955
0.778824
0.726682
0.662174
0.618631
0.564254
0.527428
0.481314
0.450075
0.410964
0.384531
0.351549
0.32943
0.302126
0.28423
0.262828
0.249619
0.234724
0.223754
0.208474
0.197464
0.182843
0.1726
0.159344
0.150176
0.138455
0.130412
0.120217
0.113303
0.104677
0.0990631
0.0925049
0.0891524
0.0871138
0.090559
0.104817
0.138734
0.228823
0.374925
0.529497
0.815966
1.11863
1.62775
1.84312
1.90712
1.92369
1.92754
-13.6268
-11.9378
-10.8747
-9.86327
-9.31965
-8.81681
-8.53895
-8.26779
-8.11724
-7.96848
-7.86589
-7.73008
-7.63439
-7.50971
-7.42272
-7.31038
-7.23225
-7.13162
-7.0618
-6.97209
-6.91003
-6.83057
-6.77576
-6.70581
-6.65759
-6.59595
-6.55276
-6.4959
-6.45117
-6.38333
-6.32065
-6.28606
-6.25105
-6.22913
-6.20352
-6.18675
-6.16644
-6.15299
-6.13654
-6.12561
-6.11222
-6.10332
-6.09242
-6.0852
-6.0764
-6.07064
-6.0637
-6.05926
-6.05411
-6.05103
-6.0477
-6.04539
-6.04236
-6.04037
-6.03802
-6.03668
-6.03542
-6.03505
-6.03535
-6.03638
-6.03896
-6.04212
-6.04834
-6.05512
-6.06777
-6.08158
-6.10776
-6.13895
-6.20314
-6.29678
-6.5086
-6.80264
-7.06551
-7.50312
-7.92078
-8.58502
-8.86467
-8.94767
-8.96914
-8.97414
-13.6943
-11.9127
-10.8726
-9.84456
-9.31802
-8.80781
-8.53869
-8.26296
-8.11716
-7.96663
-7.86722
-7.72847
-7.63555
-7.5082
-7.42373
-7.30901
-7.23315
-7.13039
-7.06259
-6.97098
-6.91073
-6.82958
-6.77637
-6.70494
-6.65813
-6.59521
-6.5533
-6.49542
-6.4521
-6.38312
-6.31953
-6.28608
-6.25053
-6.22928
-6.20317
-6.18689
-6.16617
-6.15311
-6.13632
-6.12571
-6.11204
-6.1034
-6.09227
-6.08526
-6.07628
-6.07068
-6.0636
-6.05929
-6.05403
-6.05104
-6.04766
-6.04542
-6.04232
-6.04038
-6.03798
-6.03668
-6.03539
-6.03503
-6.03532
-6.03631
-6.03893
-6.042
-6.04832
-6.05488
-6.06773
-6.08108
-6.10756
-6.13763
-6.20197
-6.29205
-6.50531
-6.80389
-7.05852
-7.50392
-7.91092
-8.6004
-8.87254
-8.95013
-8.9698
-8.97434
-13.8332
-11.858
-10.8701
-9.80578
-9.31574
-8.78917
-8.53868
-8.25294
-8.11728
-7.96274
-7.87012
-7.72503
-7.63808
-7.50497
-7.42596
-7.30609
-7.23513
-7.12776
-7.06434
-6.96862
-6.91226
-6.82747
-6.7777
-6.70309
-6.65931
-6.59363
-6.55449
-6.49435
-6.45405
-6.38269
-6.3172
-6.28618
-6.24943
-6.22962
-6.20242
-6.18721
-6.16559
-6.15338
-6.13585
-6.12593
-6.11165
-6.10357
-6.09196
-6.0854
-6.07603
-6.07079
-6.06338
-6.05935
-6.05385
-6.05106
-6.04758
-6.04548
-6.04223
-6.04041
-6.03789
-6.03667
-6.03532
-6.03497
-6.03527
-6.03618
-6.03889
-6.04175
-6.04828
-6.05439
-6.06766
-6.08006
-6.10722
-6.13493
-6.19976
-6.2824
-6.49861
-6.8069
-7.0439
-7.50625
-7.88976
-8.63248
-8.88819
-8.95491
-8.97107
-8.97472
-14.051
-11.7638
-10.8706
-9.74404
-9.31491
-8.75948
-8.54008
-8.23691
-8.11815
-7.95636
-7.87512
-7.71927
-7.64246
-7.49958
-7.42981
-7.30121
-7.23856
-7.12337
-7.06738
-6.96468
-6.91492
-6.82397
-6.78003
-6.7
-6.66136
-6.59099
-6.55651
-6.49249
-6.45724
-6.38204
-6.31349
-6.28651
-6.24765
-6.23026
-6.20119
-6.18779
-6.16463
-6.15386
-6.13508
-6.12633
-6.11102
-6.10389
-6.09144
-6.08566
-6.0756
-6.07098
-6.06304
-6.05948
-6.05357
-6.05111
-6.04744
-6.04559
-6.04208
-6.04047
-6.03775
-6.03667
-6.0352
-6.03489
-6.03518
-6.03599
-6.03885
-6.04135
-6.04827
-6.05362
-6.06763
-6.07845
-6.10685
-6.13076
-6.19684
-6.2674
-6.48822
-6.81275
-7.02027
-7.51174
-7.85423
-8.68404
-8.9114
-8.96171
-8.97284
-8.97525
-14.3603
-11.6139
-10.8804
-9.65439
-9.31914
-8.71635
-8.54484
-8.21351
-8.12074
-7.94677
-7.8831
-7.71034
-7.64949
-7.49127
-7.43602
-7.29369
-7.24409
-7.11661
-7.07228
-6.95863
-6.91924
-6.81858
-6.7838
-6.69525
-6.66468
-6.58691
-6.55971
-6.48947
-6.46203
-6.38111
-6.30812
-6.28731
-6.24502
-6.23136
-6.19934
-6.18875
-6.16317
-6.15466
-6.1339
-6.12698
-6.11007
-6.10443
-6.09066
-6.08608
-6.07496
-6.0713
-6.06251
-6.0597
-6.05315
-6.05121
-6.04722
-6.04577
-6.04186
-6.04058
-6.03755
-6.03669
-6.03504
-6.03479
-6.03508
-6.0357
-6.03881
-6.04077
-6.04832
-6.0525
-6.06773
-6.07613
-6.10667
-6.12489
-6.19374
-6.24639
-6.47369
-6.82329
-6.98528
-7.52319
-7.79921
-8.7597
-8.94169
-8.97008
-8.97495
-8.97588
-14.7795
-11.3834
-10.91
-9.52911
-9.33406
-8.65597
-8.55598
-8.18056
-8.12658
-7.93276
-7.89544
-7.69694
-7.6604
-7.47883
-7.44571
-7.28245
-7.25274
-7.10652
-7.07996
-6.9496
-6.926
-6.81055
-6.78972
-6.68819
-6.66989
-6.58081
-6.56464
-6.48475
-6.46895
-6.37987
-6.30065
-6.28898
-6.24124
-6.2332
-6.19662
-6.19031
-6.16104
-6.15595
-6.13218
-6.12804
-6.10866
-6.10528
-6.08951
-6.08677
-6.07402
-6.07183
-6.06175
-6.06006
-6.05255
-6.0514
-6.0469
-6.04604
-6.04153
-6.04075
-6.03726
-6.03674
-6.03483
-6.03467
-6.03496
-6.03532
-6.03883
-6.03997
-6.0485
-6.05094
-6.0681
-6.07293
-6.10697
-6.11701
-6.19129
-6.2184
-6.45426
-6.84133
-6.93525
-7.54511
-7.71681
-8.8665
-8.97813
-8.97939
-8.97723
-8.97654
-15.3345
-11.0361
-10.9758
-9.3564
-9.36831
-8.57246
-8.57814
-8.13475
-8.13801
-7.9125
-7.91424
-7.67705
-7.67712
-7.46046
-7.46061
-7.26588
-7.26604
-7.09165
-7.09179
-6.93631
-6.93644
-6.79874
-6.79887
-6.67779
-6.67794
-6.5718
-6.57211
-6.47746
-6.47881
-6.37823
-6.29049
-6.29208
-6.23587
-6.23618
-6.1927
-6.1928
-6.15793
-6.15798
-6.12966
-6.1297
-6.10661
-6.10664
-6.08783
-6.08786
-6.07266
-6.07268
-6.06066
-6.06066
-6.05169
-6.05171
-6.04644
-6.04646
-6.04105
-6.04104
-6.03685
-6.03684
-6.03454
-6.03452
-6.03484
-6.03481
-6.03893
-6.03887
-6.04892
-6.04879
-6.06896
-6.06856
-6.10824
-6.10655
-6.19072
-6.18205
-6.42879
-6.8711
-6.86459
-7.58456
-7.59529
-9.01482
-9.01899
-8.98884
-8.97945
-8.97718
-16.0614
-10.5192
-11.104
-9.11844
-9.43486
-8.4569
-8.61827
-8.07108
-8.15859
-7.88314
-7.94258
-7.64767
-7.70251
-7.43341
-7.4833
-7.24151
-7.28633
-7.06979
-7.10984
-6.91678
-6.95238
-6.78142
-6.81286
-6.66255
-6.69023
-6.55852
-6.58338
-6.46632
-6.49275
-6.37608
-6.27676
-6.2975
-6.22824
-6.24091
-6.18703
-6.19668
-6.15343
-6.16116
-6.12601
-6.13229
-6.10363
-6.10874
-6.08541
-6.08955
-6.07069
-6.074
-6.05908
-6.06162
-6.05047
-6.05224
-6.04577
-6.0471
-6.04035
-6.04149
-6.03627
-6.03704
-6.03416
-6.03437
-6.03474
-6.03414
-6.03921
-6.03737
-6.04976
-6.04582
-6.07065
-6.06259
-6.11116
-6.09266
-6.19387
-6.13549
-6.39549
-6.91882
-6.76486
-7.65238
-7.41742
-9.21975
-9.06121
-8.99746
-8.98138
-8.97773
-17.01
-9.7572
-11.335
-8.7884
-9.55319
-8.29575
-8.68673
-7.98202
-8.19369
-7.84038
-7.9851
-7.60431
-7.74085
-7.3936
-7.51766
-7.20568
-7.31707
-7.03767
-7.13722
-6.88811
-6.9766
-6.756
-6.83412
-6.64018
-6.70889
-6.53898
-6.60033
-6.44945
-6.5124
-6.37323
-6.25822
-6.30651
-6.21733
-6.2483
-6.17882
-6.20267
-6.14689
-6.16604
-6.12071
-6.13628
-6.09931
-6.11199
-6.08188
-6.09217
-6.06784
-6.07606
-6.0568
-6.06313
-6.04873
-6.0531
-6.04478
-6.04806
-6.03934
-6.04219
-6.03546
-6.03738
-6.03366
-6.0342
-6.03467
-6.03324
-6.03976
-6.0353
-6.05124
-6.04171
-6.07365
-6.05435
-6.11676
-6.07397
-6.2034
-6.07619
-6.35166
-6.99363
-6.62348
-7.76509
-7.15806
-9.50312
-9.09965
-9.00417
-8.98281
-8.97813
-18.2487
-8.64194
-11.7309
-8.32585
-9.75236
-8.06862
-8.79897
-7.85625
-8.25134
-7.77766
-8.0486
-7.5402
-7.7985
-7.33489
-7.5694
-7.15286
-7.36339
-6.99034
-7.1785
-6.8459
-7.01312
-6.71859
-6.86622
-6.60727
-6.73706
-6.51015
-6.62573
-6.42399
-6.54011
-6.36938
-6.23311
-6.321
-6.20159
-6.25969
-6.16685
-6.21183
-6.13732
-6.17348
-6.11295
-6.14234
-6.09298
-6.11692
-6.07673
-6.09615
-6.06366
-6.0792
-6.05348
-6.06545
-6.04623
-6.05445
-6.04331
-6.04949
-6.03786
-6.04327
-6.03429
-6.03793
-6.03298
-6.03403
-6.03467
-6.03201
-6.04074
-6.03241
-6.05374
-6.03592
-6.07869
-6.04284
-6.12656
-6.0484
-6.2232
-6.00078
-6.29317
-7.10894
-6.42163
-7.94778
-6.78064
-9.89647
-9.12581
-9.00795
-8.98362
-8.97838
)
;

boundaryField
{
    F1_1
    {
        type            calculated;
        value           nonuniform List<scalar> 
80
(
18.9509
7.97344
11.9793
8.04096
9.87595
7.90471
8.86797
7.7147
8.28884
7.55123
7.90326
7.4893
7.75847
7.28667
7.55882
7.11002
7.36535
6.95297
7.18596
6.81343
7.02276
6.69045
6.87638
6.58296
6.74699
6.48916
6.63545
6.40563
6.55179
6.36445
6.2172
6.32747
6.19097
6.26468
6.15867
6.21584
6.13076
6.17675
6.10762
6.14502
6.08863
6.1191
6.07319
6.0979
6.0608
6.08057
6.0512
6.06643
6.04448
6.05493
6.04219
6.05003
6.03676
6.04365
6.03342
6.03805
6.03244
6.03376
6.03457
6.03115
6.04126
6.03059
6.05521
6.03243
6.08176
6.03602
6.13269
6.03349
6.23619
5.9585
6.2596
7.17868
6.30274
8.06036
6.55696
10.1253
9.13448
9.00898
8.98384
8.97846
)
;
    }
    F1_2
    {
        type            calculated;
        value           nonuniform List<scalar> 
80
(
-19.3863
-7.90816
-12.4941
-7.04656
-9.80638
-6.15558
-8.07716
-5.34224
-6.77169
-4.71118
-5.71188
-4.45941
-5.26958
-3.84079
-4.65864
-3.31771
-4.07158
-2.86914
-3.54045
-2.48218
-3.07118
-2.14761
-2.66124
-1.85758
-2.30588
-1.60403
-2.00317
-1.37579
-1.7791
-1.26284
-0.839049
-1.15723
-0.751967
-0.973985
-0.646814
-0.826105
-0.553022
-0.703111
-0.472247
-0.59927
-0.403272
-0.51106
-0.344687
-0.435927
-0.295419
-0.371829
-0.255066
-0.317006
-0.224662
-0.269808