/*--------------------------------*- C++ -*----------------------------------*\
| =========                 |                                                 |
| \\      /  F ield         | OpenFOAM: The Open Source CFD Toolbox           |
|  \\    /   O peration     | Version:  5.x                                   |
|   \\  /    A nd           | Web:      www.OpenFOAM.org                      |
|    \\/     M anipulation  |                                                 |
\*---------------------------------------------------------------------------*/
FoamFile
{
    version     2.0;
    format      ascii;
    class       volScalarField;
    location    "2.5";
    object      gradTx;
}
// * * * * * * * * * * * * * * * * * * * * * * * * * * * * * * * * * * * * * //

dimensions      [0 -1 0 1 0 0 0];

internalField   nonuniform List<scalar> 
3200
(
45.4111
3.68237
1.63167
1.52378
0.803098
0.759806
0.45761
0.438343
0.286931
0.276009
0.166531
0.162477
0.176181
0.176339
0.169081
0.168281
0.156083
0.155012
0.141417
0.140273
0.12639
0.125248
0.111713
0.110636
0.0982486
0.0973692
0.0882316
0.0882113
0.0928627
0.160859
0.0805254
0.0539984
0.0522216
0.0408777
0.0400815
0.0328093
0.032275
0.0268186
0.0264073
0.0220269
0.0216912
0.0180352
0.0177507
0.0145941
0.0143434
0.0114981
0.0112633
0.00849076
0.00824426
0.00504667
0.00490522
0.00472414
0.00466248
0.00343827
0.00331347
0.00154024
0.00136644
-0.00101787
-0.00125987
-0.00465019
-0.00501353
-0.0102709
-0.0108734
-0.0198944
-0.0210353
-0.0387796
-0.0414367
-0.0843836
-0.0932677
-0.238476
-0.616071
-0.435138
-0.679763
-0.711076
-1.26582
-1.24027
-0.0556906
-0.00751519
-0.00152247
-52.9619
48.074
3.08029
1.56144
1.33998
0.763177
0.670752
0.428021
0.386823
0.265512
0.242307
0.156322
0.147665
0.156964
0.157191
0.151551
0.149866
0.140243
0.137976
0.127217
0.124792
0.113798
0.111378
0.100663
0.0983811
0.088597
0.0867492
0.079703
0.0798199
0.0863154
0.134122
0.0747734
0.0504359
0.0464781
0.0372713
0.0355635
0.029765
0.0286284
0.0242943
0.0234209
0.019945
0.0192325
0.0163322
0.0157285
0.0132245
0.0126924
0.0104345
0.00993605
0.00773467
0.00721425
0.00471631
0.00441579
0.00422887
0.00409517
0.00312852
0.00286404
0.00145801
0.00108903
-0.000805382
-0.00131977
-0.0040174
-0.00479057
-0.0089815
-0.0102663
-0.0174828
-0.0199263
-0.0342361
-0.0399924
-0.0753759
-0.0952127
-0.226829
-0.51669
-0.413834
-0.600436
-0.664905
-1.08295
-1.02945
-0.121616
-0.0208583
-0.00437786
-54.7563
50.7202
2.55555
1.43932
1.1704
0.703883
0.587712
0.390372
0.338508
0.24017
0.211117
0.14302
0.132135
0.138109
0.138278
0.133863
0.131768
0.124109
0.121281
0.112684
0.109655
0.100864
0.0978408
0.0892754
0.0864269
0.0786284
0.0763377
0.0708884
0.071174
0.0781163
0.111672
0.0676213
0.0460584
0.0409447
0.0333651
0.0312091
0.0265342
0.0251097
0.0216315
0.0205386
0.0177525
0.0168614
0.0145375
0.0137824
0.0117761
0.0111105
0.00930065
0.00867702
0.00691148
0.00626348
0.0042982
0.00392197
0.00373165
0.00356135
0.00279087
0.00246048
0.0013345
0.000872829
-0.000647924
-0.00129216
-0.00346144
-0.00443077
-0.00780827
-0.00942178
-0.015262
-0.0183426
-0.0300346
-0.0373628
-0.06699
-0.0926864
-0.208851
-0.433018
-0.380951
-0.525995
-0.604591
-0.918943
-0.852808
-0.155257
-0.0308303
-0.00671809
-56.5506
53.346
2.09595
1.2833
1.00873
0.630577
0.50792
0.346905
0.292054
0.212057
0.18149
0.127431
0.115932
0.119488
0.119549
0.116083
0.113893
0.107783
0.104816
0.0979283
0.0947487
0.0877
0.0845255
0.0776598
0.0746712
0.06844
0.0660531
0.0618449
0.0622622
0.0688531
0.0923266
0.0595701
0.0410232
0.0355101
0.0292419
0.0269556
0.0231735
0.0216732
0.0188732
0.017724
0.0154842
0.0145475
0.01268
0.0118863
0.0102741
0.00957448
0.00811944
0.00746378
0.00604372
0.00536555
0.00381665
0.00342084
0.00323379
0.00305173
0.00243582
0.00208892
0.0011846
0.000699164
-0.000525366
-0.0012034
-0.00295334
-0.0039745
-0.0067055
-0.00840809
-0.0131515
-0.0164143
-0.0260077
-0.0338413
-0.0587613
-0.0865414
-0.186554
-0.360395
-0.340184
-0.454211
-0.534847
-0.770153
-0.70142
-0.165974
-0.0367897
-0.00831445
-58.3447
55.9505
1.69009
1.10577
0.851203
0.547053
0.429665
0.299194
0.246607
0.181967
0.152803
0.110139
0.0991268
0.101007
0.100962
0.0982526
0.0961758
0.0913307
0.0885088
0.083025
0.0799975
0.0743811
0.0713582
0.0658894
0.0630456
0.0580982
0.0558417
0.0526168
0.0531039
0.058915
0.075231
0.0509508
0.0354669
0.0301059
0.0249596
0.022762
0.0197214
0.0182886
0.0160489
0.014953
0.0131637
0.0122708
0.0107795
0.010023
0.00873562
0.00806872
0.00690634
0.00628122
0.00514641
0.00450256
0.00328909
0.00291148
0.00273589
0.00255961
0.00207016
0.00173983
0.0010181
0.000555225
-0.000424519
-0.00107163
-0.00247426
-0.00344972
-0.00564375
-0.00727267
-0.0111002
-0.0142326
-0.022051
-0.0296362
-0.0504181
-0.0775071
-0.161303
-0.295535
-0.294047
-0.383763
-0.458916
-0.633525
-0.568699
-0.160441
-0.0387207
-0.0090442
-60.1386
58.5349
1.32761
0.915048
0.695662
0.45606
0.351935
0.248368
0.201643
0.15046
0.124656
0.0915821
0.0818063
0.082603
0.082482
0.080397
0.0785694
0.0747981
0.0723083
0.0680238
0.0653502
0.0609588
0.0582891
0.0540145
0.0515045
0.0476491
0.0456694
0.0432407
0.0437331
0.0485573
0.0597598
0.0419801
0.0295058
0.0246932
0.0205593
0.0186021
0.016205
0.0149363
0.0131789
0.0122097
0.0108074
0.010018
0.00884969
0.00818096
0.00717238
0.00658283
0.00567184
0.00511914
0.00422956
0.00366247
0.00272821
0.00239416
0.00223814
0.00208016
0.0016983
0.00140654
0.000841395
0.0004321
-0.000336846
-0.000909508
-0.00201216
-0.0028761
-0.00460452
-0.00604923
-0.00907657
-0.0118635
-0.0181036
-0.0249032
-0.0418226
-0.0662044
-0.134035
-0.236103
-0.244262
-0.313898
-0.379007
-0.506475
-0.449716
-0.143445
-0.03697
-0.0088825
-61.9321
61.1019
0.999109
0.716602
0.540931
0.35965
0.274183
0.195269
0.156858
0.117938
0.0968013
0.0720935
0.0640634
0.0642362
0.0640807
0.0625313
0.0610411
0.0582146
0.0561799
0.0529584
0.0507719
0.047468
0.0452844
0.0420693
0.0400176
0.0371254
0.0355154
0.0337479
0.0341893
0.0379447
0.0454483
0.0327974
0.0232384
0.0192535
0.0160721
0.0144599
0.0126435
0.0116035
0.0102772
0.0094837
0.00842652
0.00778035
0.00689987
0.00635252
0.00559242
0.00510985
0.00442307
0.00397061
0.0032999
0.00283715
0.0021434
0.00186981
0.00174059
0.00160978
0.00132295
0.00108432
0.000658579
0.000323481
-0.000256914
-0.000726083
-0.00155952
-0.00226781
-0.00357657
-0.00476241
-0.00706252
-0.00935624
-0.0141338
-0.0197654
-0.0329286
-0.0531638
-0.105397
-0.180427
-0.192019
-0.244214
-0.296604
-0.386793
-0.340713
-0.118458
-0.0320837
-0.00788694
-63.7253
63.6546
0.696082
0.513884
0.386426
0.259408
0.196171
0.140551
0.112094
0.0847052
0.0690896
0.0519381
0.0459925
0.0458828
0.0457353
0.0446635
0.0435665
0.0415996
0.0400992
0.0378519
0.0362386
0.0339325
0.0323213
0.0300778
0.0285645
0.0265506
0.0253679
0.0241671
0.0245132
0.0271825
0.0319433
0.0234912
0.0167482
0.0137817
0.0115222
0.0103258
0.00905098
0.00828221
0.00735428
0.00676823
0.0060292
0.00555209
0.00493673
0.00453261
0.00400139
0.00364507
0.00316498
0.00283087
0.00236199
0.00202114
0.00154186
0.00133976
0.00124318
0.00114574
0.000945768
0.000769679
0.000472233
0.000224766
-0.000181343
-0.000528006
-0.00111181
-0.00163544
-0.00255346
-0.00343096
-0.00504867
-0.00674955
-0.0101298
-0.0143263
-0.0237516
-0.0388432
-0.0758475
-0.127289
-0.138151
-0.174522
-0.212688
-0.272562
-0.238758
-0.0880361
-0.0247104
-0.0061802
-65.5183
66.197
0.410727
0.308977
0.231905
0.156616
0.117854
0.0847467
0.0672883
0.0510019
0.0414397
0.0313346
0.0276884
0.0275311
0.0274271
0.026797
0.0261268
0.0249661
0.0240486
0.0227201
0.0217331
0.0203695
0.0193837
0.0180572
0.0171317
0.0159427
0.0152214
0.0145246
0.0147444
0.0163368
0.018967
0.0141168
0.010107
0.00828166
0.00692971
0.00619494
0.00543818
0.00496725
0.00441764
0.00405886
0.00362139
0.00332934
0.00296514
0.00271778
0.00240338
0.00218528
0.00190108
0.00169657
0.00141901
0.00121073
0.000929291
0.000805542
0.000745875
0.000685872
0.000567705
0.000459964
0.000283958
0.000132465
-0.000108087
-0.000320384
-0.000666445
-0.000987238
-0.00153194
-0.00206986
-0.00303146
-0.00407566
-0.00609313
-0.00867799
-0.014348
-0.0236462
-0.0457204
-0.0757738
-0.0832622
-0.104758
-0.127904
-0.162079
-0.141479
-0.054118
-0.0155452
-0.00393308
-67.3111
68.733
0.135766
0.103084
0.0773124
0.052364
0.0393122
0.028317
0.0224357
0.0170298
0.0138116
0.010473
0.00924494
0.00917743
0.00914008
0.00893208
0.0087068
0.00832304
0.00801443
0.00757479
0.00724276
0.00679141
0.00645979
0.00602077
0.00570945
0.00531623
0.00507397
0.00484558
0.00492085
0.00544974
0.00629003
0.00470894
0.00337853
0.00276276
0.0023126
0.00206493
0.00181396
0.00165544
0.00147337
0.00135263
0.00120775
0.00110948
0.000988878
0.000905649
0.000801536
0.000728148
0.000634029
0.000565211
0.000473293
0.000403268
0.000310443
0.000268796
0.00024862
0.000228368
0.000189268
0.000153023
9.47453e-05
4.37676e-05
-3.59236e-05
-0.000107375
-0.000222063
-0.000330051
-0.000510656
-0.000691797
-0.00101093
-0.00136281
-0.00203373
-0.00290627
-0.00479929
-0.00793802
-0.0152742
-0.0251615
-0.0278136
-0.0349277
-0.0426795
-0.0537859
-0.0468702
-0.0182483
-0.00530167
-0.00134914
-69.1037
68.7484
0.149659
0.127472
0.106716
0.084631
0.0721921
0.0602768
0.0528947
0.0444565
0.0383581
0.0306365
0.0278199
0.0278829
0.0277467
0.0268755
0.0259548
0.0244151
0.0232139
0.0215545
0.0203517
0.0187856
0.0176841
0.0162907
0.0153396
0.0141856
0.0134946
0.012869
0.0130923
0.0145849
0.0169383
0.0127848
0.00931033
0.00770959
0.00654668
0.00590502
0.00524998
0.00483229
0.00434685
0.00402221
0.00362913
0.00336149
0.00303187
0.00280454
0.00252044
0.00232021
0.00206309
0.00187289
0.00161489
0.00141185
0.00113794
0.00103762
0.00104023
0.00103332
0.000996191
0.000957754
0.000894112
0.000844463
0.000775713
0.00072514
0.000657852
0.00060737
0.000537551
0.000477542
0.000380633
0.00026904
4.26026e-05
-0.000308794
-0.00115164
-0.00274579
-0.00667108
-0.0124239
-0.0156723
-0.0226811
-0.0301646
-0.0411804
-0.0366724
-0.0143294
-0.00416758
-0.00106062
-69.8033
66.2428
0.452315
0.382359
0.320203
0.253507
0.216556
0.180649
0.158726
0.133276
0.115139
0.0917134
0.0833445
0.0836569
0.0832697
0.0806285
0.0778894
0.073232
0.0696602
0.0646453
0.0610697
0.0563383
0.0530642
0.0488545
0.046027
0.0425384
0.0404814
0.0385733
0.0392263
0.0437205
0.0510755
0.0383274
0.0278562
0.0231114
0.0196193
0.0177157
0.0157406
0.0144997
0.0130342
0.0120695
0.0108825
0.010087
0.00909162
0.00841599
0.00755804
0.006963
0.00618667
0.00562146
0.00484253
0.00423845
0.00340693
0.00310878
0.00312111
0.00310122
0.00298867
0.00287432
0.00268182
0.0025342
0.00232645
0.00217613
0.00197292
0.00182292
0.0016123
0.00143414
0.00114252
0.000811748
0.000132841
-0.000906688
-0.00342483
-0.00814406
-0.0199401
-0.0373717
-0.0468664
-0.0680243
-0.0903525
-0.124162
-0.110731
-0.042501
-0.0122205
-0.00309201
-69.41
63.7299
0.765073
0.636935
0.533871
0.421195
0.360878
0.300463
0.2647
0.221803
0.192132
0.152188
0.138522
0.139459
0.138883
0.134386
0.129901
0.122006
0.116165
0.107679
0.101834
0.0938333
0.0884821
0.0813634
0.0767413
0.0708343
0.0674628
0.0641756
0.0652071
0.0727422
0.0860175
0.0637795
0.0461735
0.0384636
0.0326288
0.0295297
0.0262021
0.0241764
0.0217019
0.0201259
0.0181205
0.0168209
0.0151388
0.014035
0.0125854
0.0116133
0.010302
0.00937878
0.00806335
0.00707432
0.00565472
0.00516765
0.00520341
0.00517296
0.00498136
0.00479415
0.00446788
0.00422647
0.00387503
0.00362936
0.00328599
0.00304102
0.00268586
0.00239538
0.00190608
0.00136849
0.000237608
-0.00144533
-0.00560986
-0.0132591
-0.0329834
-0.0626367
-0.0775937
-0.11332
-0.150081
-0.209033
-0.18698
-0.0691545
-0.0194274
-0.00485873
-69.0165
61.205
1.09494
0.890508
0.747926
0.586788
0.505205
0.419291
0.370959
0.309803
0.269537
0.211613
0.193116
0.195323
0.194654
0.188143
0.18205
0.170698
0.162776
0.150608
0.142686
0.131223
0.123971
0.113773
0.107508
0.0990296
0.0944415
0.0896059
0.0909287
0.101535
0.122381
0.0890474
0.0640959
0.0537415
0.0455296
0.0413534
0.0366122
0.0338716
0.0303342
0.0282001
0.0253307
0.0235705
0.0211634
0.0196683
0.017594
0.0162775
0.0144022
0.0131521
0.0112714
0.00992768
0.00786544
0.00720583
0.0072886
0.00725138
0.00697412
0.00671977
0.00625076
0.00592337
0.00541959
0.00508671
0.00459532
0.00426371
0.00375702
0.00336476
0.00267175
0.00194913
0.000364632
-0.00188453
-0.0076553
-0.017891
-0.0456293
-0.0884892
-0.10749
-0.158575
-0.208921
-0.297143
-0.267061
-0.0930839
-0.0252278
-0.00620078
-68.6229
58.6637
1.44934
1.14161
0.962724
0.749201
0.649706
0.536617
0.477732
0.396967
0.347649
0.269461
0.246883
0.251302
0.25066
0.241885
0.23441
0.219254
0.209558
0.193368
0.183681
0.168445
0.15958
0.146027
0.138364
0.12707
0.121431
0.114791
0.11628
0.129921
0.160914
0.113982
0.0814355
0.0689347
0.0582698
0.0532006
0.0469431
0.0435996
0.0389111
0.0363044
0.0324973
0.0303467
0.0271521
0.0253253
0.0225729
0.0209646
0.0184779
0.0169512
0.0144585
0.0128102
0.0100204
0.00921462
0.0093789
0.00933973
0.00896629
0.00865431
0.00802831
0.00762764
0.00695761
0.0065507
0.00589855
0.00549369
0.00482387
0.00434643
0.00343885
0.00256449
0.000518485
-0.00218262
-0.00952187
-0.0218223
-0.0576699
-0.115295
-0.136102
-0.203858
-0.266246
-0.389986
-0.352896
-0.112768
-0.0290751
-0.00698387
-68.2291
56.1021
1.8362
1.38756
1.17891
0.907055
0.794752
0.651776
0.585382
0.482874
0.426917
0.325086
0.299571
0.307485
0.306992
0.295576
0.287079
0.267594
0.2566
0.235869
0.224898
0.205414
0.195377
0.178046
0.169366
0.154886
0.148462
0.139652
0.141147
0.157613
0.202566
0.138342
0.0979749
0.0840557
0.0707874
0.0650964
0.0571585
0.0533823
0.0474057
0.0444577
0.0395985
0.0371654
0.0330869
0.0310201
0.0275068
0.0256876
0.0225159
0.0207895
0.0176123
0.0157388
0.0120964
0.011185
0.0114777
0.0114419
0.0109564
0.0106018
0.00979724
0.00934309
0.0084855
0.00802487
0.00719224
0.00673461
0.00588336
0.00534563
0.00420494
0.00322703
0.00069885
-0.00229486
-0.0111896
-0.0248114
-0.0688388
-0.143573
-0.162835
-0.249355
-0.321116
-0.48926
-0.446853
-0.126195
-0.0304583
-0.00711146
-67.835
53.5175
2.26402
1.62391
1.39763
1.05853
0.941028
0.763873
0.694478
0.566922
0.508021
0.377659
0.350923
0.364005
0.363762
0.349152
0.340188
0.315595
0.304034
0.277981
0.266458
0.242006
0.231467
0.209721
0.200602
0.182381
0.17559
0.164103
0.165417
0.184169
0.248589
0.16175
0.113458
0.0991523
0.0830033
0.0770835
0.0672087
0.0632543
0.0557803
0.0526885
0.0466038
0.0440511
0.0389423
0.0367738
0.0323738
0.0304655
0.0264968
0.0246866
0.0207146
0.0187388
0.0140636
0.0131077
0.0135902
0.0135625
0.0129418
0.0125678
0.0115527
0.0110751
0.00999797
0.00951437
0.00847135
0.0079917
0.00693071
0.00636933
0.0049649
0.00395195
0.000898205
-0.00217068
-0.0126679
-0.0265838
-0.0787787
-0.174069
-0.186877
-0.295442
-0.372129
-0.596955
-0.551938
-0.130624
-0.0289459
-0.00653809
-67.4408
50.9084
2.74188
1.8437
1.62086
1.20114
1.08969
0.871662
0.805902
0.648224
0.591985
0.426088
0.400683
0.42106
0.421108
0.402504
0.393925
0.363076
0.35205
0.319514
0.308537
0.278044
0.268008
0.240893
0.232204
0.209421
0.202908
0.188044
0.188991
0.2089
0.300664
0.183619
0.127584
0.114324
0.0948117
0.0892303
0.0770236
0.0732685
0.063981
0.0610404
0.0534689
0.0510401
0.0446811
0.0426178
0.0371421
0.0353268
0.0303923
0.028671
0.0237378
0.0218475
0.0158827
0.0149733
0.0157237
0.0157074
0.0149179
0.0145601
0.0132871
0.0128317
0.0114872
0.0110268
0.00972843
0.00927252
0.00795853
0.00742721
0.00570962
0.00475893
0.00109858
-0.00174894
-0.014009
-0.0268245
-0.0869939
-0.207863
-0.207088
-0.342802
-0.417216
-0.715443
-0.672074
-0.122268
-0.0242627
-0.00528313
-67.0463
48.2756
3.27919
2.03649
1.85197
1.33142
1.24262
0.973361
0.921004
0.72547
0.680337
0.468899
0.448613
0.478929
0.479202
0.455456
0.448554
0.409766
0.400927
0.360186
0.351398
0.313265
0.305233
0.271329
0.264372
0.235812
0.230562
0.211354
0.211809
0.23076
0.361097
0.203051
0.14
0.129749
0.106065
0.101644
0.0865019
0.0835054
0.0719292
0.0695789
0.0601297
0.0581876
0.0502493
0.0485994
0.0417651
0.0403139
0.0341602
0.0327847
0.0266401
0.0251199
0.0175001
0.0167732
0.0178884
0.0178839
0.0168774
0.0165895
0.0149895
0.0146245
0.0129417
0.0125732
0.0109523
0.0105882
0.00895554
0.00853302
0.00642413
0.00567476
0.00126691
-0.000950232
-0.0153273
-0.0251704
-0.0927803
-0.246522
-0.221838
-0.392614
-0.453349
-0.847594
-0.812467
-0.0958394
-0.0164185
-0.00344298
-66.6517
45.6237
3.88526
2.18696
2.09652
1.44444
1.40277
1.06639
1.04184
0.796703
0.775342
0.504066
0.494521
0.538002
0.538259
0.507736
0.50446
0.455261
0.451083
0.399583
0.395435
0.347285
0.343496
0.30069
0.297406
0.261273
0.258776
0.23388
0.23389
0.248167
0.433069
0.218685
0.150307
0.145712
0.116549
0.114488
0.0954961
0.0940872
0.0795098
0.0784028
0.0664916
0.0655763
0.0555672
0.0547896
0.0461739
0.0454902
0.0377379
0.0370903
0.0293582
0.028637
0.0188424
0.0184999
0.0200986
0.0201011
0.0188087
0.0186722
0.016643
0.0164706
0.0143442
0.0141704
0.0121265
0.0119551
0.00990465
0.00970679
0.00708475
0.0067374
0.00134808
0.000335354
-0.0168265
-0.0212051
-0.0951206
-0.292316
-0.228769
-0.446825
-0.47614
-0.996918
-0.980118
-0.0439224
-0.00591663
-0.00119743
-66.257
45.6236
3.88524
2.18696
2.09652
1.44444
1.40277
1.06639
1.04184
0.796706
0.775346
0.504068
0.494523
0.538004
0.538261
0.507739
0.504462
0.455263
0.451085
0.399585
0.395437
0.347287
0.343498
0.300691
0.297407
0.261275
0.258777
0.233881
0.233891
0.248169
0.433073
0.218687
0.150309
0.145714
0.11655
0.114489
0.0954974
0.0940886
0.0795113
0.0784042
0.066493
0.0655778
0.0555686
0.054791
0.0461753
0.0454915
0.0377391
0.0370915
0.0293592
0.028638
0.0188429
0.0185005
0.0200993
0.0201018
0.0188095
0.018673
0.0166438
0.0164714
0.0143449
0.0141711
0.0121272
0.0119558
0.00990532
0.00970746
0.0070855
0.00673818
0.00134928
0.000336656
-0.0168235
-0.0212017
-0.0951096
-0.292284
-0.228745
-0.446783
-0.476095
-0.996831
-0.980033
-0.0439185
-0.00591614
-0.0011973
-66.2573
48.2755
3.27918
2.03649
1.85197
1.33143
1.24262
0.973366
0.921009
0.725474
0.68034
0.468901
0.448615
0.478931
0.479204
0.455458
0.448556
0.409768
0.400929
0.360188
0.3514
0.313267
0.305235
0.271331
0.264373
0.235814
0.230563
0.211355
0.211811
0.230762
0.3611
0.203053
0.140002
0.12975
0.106066
0.101645
0.0865032
0.0835068
0.0719305
0.0695802
0.060131
0.058189
0.0502506
0.0486007
0.0417664
0.0403151
0.0341613
0.0327859
0.026641
0.0251208
0.0175006
0.0167737
0.0178891
0.0178846
0.0168781
0.0165903
0.0149902
0.0146252
0.0129424
0.0125739
0.010953
0.0105888
0.00895616
0.00853365
0.00642483
0.0056755
0.00126801
-0.000948921
-0.0153246
-0.0251667
-0.0927696
-0.246495
-0.221816
-0.392576
-0.453306
-0.84752
-0.812396
-0.0958309
-0.0164171
-0.00344271
-66.652
50.9083
2.74187
1.8437
1.62086
1.20114
1.0897
0.871666
0.805906
0.648227
0.591988
0.42609
0.400685
0.421061
0.42111
0.402505
0.393926
0.363078
0.352051
0.319516
0.308538
0.278046
0.268009
0.240894
0.232206
0.209423
0.202909
0.188045
0.188993
0.208902
0.300668
0.183622
0.127585
0.114326
0.094813
0.0892316
0.0770248
0.0732697
0.0639822
0.0610416
0.0534702
0.0510413
0.0446823
0.042619
0.0371433
0.0353279
0.0303933
0.028672
0.0237387
0.0218483
0.0158832
0.0149739
0.0157243
0.015708
0.0149186
0.0145608
0.0132878
0.0128324
0.0114879
0.0110274
0.00972903
0.00927311
0.00795911
0.00742779
0.00571026
0.00475964
0.00109958
-0.00174767
-0.0140065
-0.0268207
-0.086984
-0.207841
-0.207067
-0.342769
-0.417177
-0.715381
-0.672016
-0.122257
-0.0242604
-0.00528259
-67.0466
53.5174
2.26401
1.6239
1.39763
1.05853
0.941031
0.763876
0.694481
0.566924
0.508023
0.37766
0.350924
0.364006
0.363763
0.349154
0.34019
0.315596
0.304036
0.277983
0.26646
0.242008
0.231469
0.209722
0.200604
0.182383
0.175591
0.164104
0.165418
0.184171
0.248591
0.161753
0.11346
0.0991537
0.0830046
0.0770847
0.0672099
0.0632554
0.0557815
0.0526897
0.0466049
0.0440522
0.0389434
0.0367749
0.0323749
0.0304665
0.0264978
0.0246875
0.0207154
0.0187396
0.0140642
0.0131082
0.0135908
0.0135631
0.0129424
0.0125685
0.0115533
0.0110757
0.00999854
0.00951493
0.00847189
0.00799223
0.00693123
0.00636986
0.00496547
0.0039526
0.000899092
-0.00216951
-0.0126657
-0.0265802
-0.0787697
-0.174051
-0.186858
-0.295413
-0.372094
-0.596903
-0.55189
-0.130613
-0.0289429
-0.00653716
-67.441
56.1021
1.83618
1.38755
1.17891
0.907057
0.794756
0.651779
0.585385
0.482877
0.426919
0.325087
0.299572
0.307486
0.306993
0.295578
0.28708
0.267595
0.256602
0.23587
0.2249
0.205415
0.195378
0.178047
0.169367
0.154887
0.148463
0.139653
0.141148
0.157615
0.202569
0.138344
0.0979764
0.084057
0.0707885
0.0650975
0.0571595
0.0533833
0.0474067
0.0444587
0.0395995
0.0371664
0.0330879
0.0310211
0.0275077
0.0256885
0.0225167
0.0207903
0.017613
0.0157395
0.0120969
0.0111854
0.0114782
0.0114424
0.0109569
0.0106024
0.00979777
0.0093436
0.008486
0.00802536
0.0071927
0.00673507
0.00588381
0.00534608
0.00420544
0.00322759
0.000699614
-0.00229382
-0.0111877
-0.0248082
-0.068831
-0.143558
-0.162819
-0.249331
-0.321086
-0.489217
-0.446813
-0.126183
-0.030455
-0.00711019
-67.8352
58.6636
1.44933
1.1416
0.962724
0.749203
0.649709
0.536619
0.477735
0.396969
0.347651
0.269462
0.246884
0.251303
0.250661
0.241886
0.234411
0.219256
0.209559
0.193369
0.183682
0.168446
0.159581
0.146028
0.138365
0.127071
0.121432
0.114792
0.116281
0.129922
0.160916
0.113983
0.0814369
0.0689357
0.0582707
0.0532015
0.046944
0.0436004
0.0389119
0.0363052
0.0324981
0.0303475
0.0271529
0.0253261
0.0225737
0.0209654
0.0184786
0.0169519
0.0144591
0.0128107
0.0100208
0.00921498
0.00937928
0.00934014
0.00896671
0.00865474
0.00802874
0.00762807
0.00695803
0.0065511
0.00589893
0.00549407
0.00482425
0.00434681
0.00343926
0.00256496
0.000519116
-0.00218174
-0.00952028
-0.0218196
-0.0576635
-0.115283
-0.136088
-0.203838
-0.266221
-0.389951
-0.352865
-0.112758
-0.0290719
-0.00698239
-68.2292
61.205
1.09493
0.890503
0.747926
0.58679
0.505207
0.419293
0.370961
0.309804
0.269538
0.211614
0.193117
0.195323
0.194655
0.188144
0.182051
0.170699
0.162777
0.150609
0.142687
0.131224
0.123972
0.113774
0.107508
0.0990303
0.0944421
0.0896065
0.0909293
0.101536
0.122383
0.0890487
0.064097
0.0537423
0.0455303
0.0413541
0.0366129
0.0338723
0.0303348
0.0282007
0.0253314
0.0235711
0.021164
0.0196689
0.0175946
0.0162781
0.0144028
0.0131527
0.0112719
0.00992811
0.00786577
0.00720611
0.00728889
0.00725169
0.00697445
0.00672011
0.0062511
0.0059237
0.00541991
0.00508703
0.00459562
0.00426401
0.00375731
0.00336506
0.00267207
0.0019495
0.000365125
-0.00188383
-0.00765405
-0.0178887
-0.0456243
-0.0884798
-0.107479
-0.15856
-0.208902
-0.297117
-0.267037
-0.0930754
-0.0252249
-0.00619929
-68.623
63.7299
0.765064
0.636931
0.533871
0.421196
0.360879
0.300464
0.264701
0.221805
0.192133
0.152189
0.138523
0.13946
0.138884
0.134387
0.129902
0.122006
0.116165
0.10768
0.101835
0.0938338
0.0884826
0.081364
0.0767418
0.0708348
0.0674632
0.064176
0.0652075
0.0727428
0.0860185
0.0637805
0.0461743
0.0384642
0.0326293
0.0295302
0.0262026
0.0241769
0.0217024
0.0201264
0.0181209
0.0168213
0.0151393
0.0140354
0.0125858
0.0116137
0.0103024
0.00937916
0.0080637
0.00707462
0.00565495
0.00516785
0.00520362
0.00517318
0.0049816
0.00479438
0.00446811
0.00422671
0.00387526
0.00362958
0.0032862
0.00304123
0.00268607
0.00239559
0.00190631
0.00136875
0.00023796
-0.00144483
-0.00560896
-0.0132575
-0.0329798
-0.0626301
-0.0775859
-0.11331
-0.150067
-0.209014
-0.186964
-0.0691482
-0.019425
-0.00485743
-69.0166
66.2428
0.452309
0.382357
0.320203
0.253508
0.216556
0.18065
0.158727
0.133277
0.11514
0.0917139
0.0833448
0.0836572
0.08327
0.0806289
0.0778898
0.0732323
0.0696606
0.0646456
0.0610701
0.0563387
0.0530645
0.0488548
0.0460273
0.0425386
0.0404817
0.0385735
0.0392265
0.0437208
0.051076
0.0383279
0.0278567
0.0231118
0.0196196
0.017716
0.0157408
0.0145
0.0130345
0.0120697
0.0108827
0.0100873
0.00909188
0.00841625
0.00755829
0.00696325
0.00618691
0.00562169
0.00484273
0.00423864
0.00340707
0.00310889
0.00312123
0.00310135
0.00298881
0.00287446
0.00268196
0.00253434
0.00232659
0.00217626
0.00197305
0.00182305
0.00161242
0.00143426
0.00114266
0.000811904
0.000133051
-0.000906385
-0.00342429
-0.00814308
-0.0199379
-0.0373678
-0.0468617
-0.0680178
-0.0903443
-0.124151
-0.110721
-0.0424971
-0.012219
-0.00309111
-69.41
68.7484
0.149657
0.127471
0.106716
0.0846313
0.0721924
0.0602771
0.0528949
0.0444567
0.0383583
0.0306367
0.02782
0.027883
0.0277468
0.0268756
0.025955
0.0244152
0.023214
0.0215546
0.0203518
0.0187857
0.0176842
0.0162908
0.0153397
0.0141857
0.0134947
0.0128691
0.0130924
0.014585
0.0169385
0.012785
0.00931049
0.00770971
0.00654678
0.00590512
0.00525007
0.00483237
0.00434694
0.0040223
0.00362922
0.00336158
0.00303196
0.00280463
0.00252052
0.0023203
0.00206317
0.00187297
0.00161496
0.00141192
0.00113799
0.00103766
0.00104027
0.00103336
0.000996235
0.0009578
0.000894158
0.000844509
0.000775757
0.000725183
0.000657894
0.000607411
0.000537591
0.000477583
0.000380677
0.000269091
4.26721e-05
-0.000308693
-0.00115146
-0.00274546
-0.00667035
-0.0124226
-0.0156707
-0.022679
-0.0301619
-0.0411767
-0.0366692
-0.0143281
-0.00416705
-0.00106029
-69.8033
68.7326
0.135606
0.102817
0.0769321
0.0517753
0.038481
0.0270287
0.0206833
0.0146799
0.0122929
0.0116308
0.011284
0.0107445
0.0103201
0.00972873
0.00929982
0.00874033
0.00833806
0.00781412
0.00743567
0.00694044
0.0065839
0.00612031
0.00579468
0.00538693
0.00513629
0.00489985
0.00497234
0.00550247
0.00634806
0.00475079
0.00340702
0.00278511
0.0023305
0.00208044
0.0018271
0.00166713
0.00148346
0.00136169
0.00121562
0.00111657
0.000995053
0.000911222
0.000806394
0.000732526
0.000637821
0.000568592
0.000476146
0.000405727
0.000312391
0.000270549
0.000250351
0.000230069
0.000190882
0.000154553
9.61435e-05
4.50645e-05
-3.47653e-05
-0.000106317
-0.000221136
-0.000329217
-0.000509942
-0.000691168
-0.00101041
-0.00136237
-0.00203339
-0.00290601
-0.00479913
-0.00793796
-0.0152742
-0.0251617
-0.0278139
-0.0349281
-0.04268
-0.0537865
-0.0468706
-0.0182485
-0.00530173
-0.00134916
-69.1037
66.1957
0.410249
0.308174
0.230768
0.154851
0.11537
0.0808819
0.0620364
0.0438952
0.0368099
0.0348798
0.0338596
0.0322288
0.0309671
0.0291797
0.0279047
0.0262147
0.0250191
0.0234366
0.0223117
0.0208158
0.019756
0.0183554
0.0173874
0.0161545
0.0154083
0.0146872
0.0148987
0.0164948
0.0191419
0.0142423
0.0101922
0.00834864
0.00698334
0.00624144
0.00547758
0.00500235
0.00444789
0.00408604
0.00364497
0.00335061
0.00298365
0.00273451
0.00241795
0.00219842
0.00191245
0.00170671
0.00142757
0.00121811
0.000935123
0.000810793
0.00075107
0.000690977
0.000572545
0.000464555
0.000288151
0.000136357
-0.000104614
-0.000317209
-0.000663667
-0.000984737
-0.0015298
-0.00206798
-0.0030299
-0.00407433
-0.00609211
-0.0086772
-0.0143476
-0.023646
-0.0457207
-0.0757745
-0.0832631
-0.104759
-0.127906
-0.16208
-0.14148
-0.0541185
-0.0155454
-0.00393315
-67.311
63.6525
0.695287
0.512546
0.384544
0.256471
0.192059
0.13411
0.103362
0.0726684
0.0611208
0.0580925
0.0564599
0.0536985
0.0516352
0.0486103
0.0465264
0.0436695
0.0417157
0.0390408
0.0372027
0.0346738
0.0329419
0.0305734
0.0289907
0.0269028
0.0256795
0.0244374
0.0247699
0.0274453
0.0322378
0.0236998
0.0168892
0.0138931
0.0116113
0.0104033
0.00911652
0.00834073
0.00740461
0.00681355
0.00606844
0.00558755
0.00496754
0.00456049
0.00402563
0.00366698
0.0031839
0.0028478
0.00237623
0.00203346
0.00155154
0.00134848
0.00125184
0.00115426
0.000953832
0.000777337
0.000479216
0.000231257
-0.00017556
-0.000522711
-0.00110718
-0.00163127
-0.0025499
-0.00342781
-0.00504608
-0.00674734
-0.0101281
-0.014325
-0.0237509
-0.0388429
-0.0758479
-0.12729
-0.138152
-0.174523
-0.21269
-0.272565
-0.23876
-0.088037
-0.0247107
-0.00618031
-65.5182
61.099
0.998001
0.714729
0.538325
0.355545
0.26849
0.18625
0.144685
0.100676
0.0850912
0.0812497
0.0791056
0.0751405
0.072342
0.0680035
0.0651791
0.0610883
0.0584413
0.0546118
0.0521215
0.0485002
0.0461534
0.0427601
0.0406145
0.0376166
0.0359516
0.0341248
0.0345475
0.0383112
0.0458671
0.0330885
0.0234338
0.019409
0.0161963
0.0145684
0.012735
0.0116855
0.0103475
0.00954721
0.00848134
0.00783006
0.00694291
0.0063916
0.00562628
0.00514055
0.0044495
0.00399434
0.00331979
0.00285443
0.00215685
0.00188197
0.00175271
0.00162172
0.00133423
0.00109506
0.000668345
0.00033258
-0.000248829
-0.00071866
-0.00155306
-0.00226196
-0.00357159
-0.00475799
-0.0070589
-0.00935313
-0.0141315
-0.0197635
-0.0329275
-0.0531633
-0.105398
-0.180429
-0.192021
-0.244216
-0.296607
-0.386797
-0.340717
-0.11846
-0.0320841
-0.00788707
-63.7253
58.5312
1.32619
0.912639
0.692362
0.450791
0.34473
0.236764
0.186107
0.127547
0.108592
0.104339
0.101824
0.0965362
0.0931107
0.0873364
0.0838827
0.0784495
0.0752145
0.0701294
0.0670857
0.0622758
0.059407
0.0548971
0.0522726
0.0482774
0.0462304
0.0437225
0.0441917
0.0490258
0.0603101
0.0423524
0.0297532
0.0248926
0.0207179
0.0187418
0.0163222
0.0150419
0.0132689
0.0122915
0.0108776
0.010082
0.00890485
0.00823129
0.00721578
0.00662237
0.00570572
0.00514972
0.00425505
0.00368476
0.00274533
0.00240971
0.00225374
0.00209554
0.0017128
0.00142037
0.000853933
0.000443822
-0.000326473
-0.000899943
-0.00200387
-0.00286856
-0.00459815
-0.00604353
-0.00907193
-0.0118595
-0.0181006
-0.0249008
-0.0418212
-0.0662038
-0.134036
-0.236105
-0.244265
-0.313901
-0.379011
-0.50648
-0.449721
-0.143447
-0.0369704
-0.00888263
-61.932
55.946
1.68838
1.10282
0.847252
0.540618
0.421047
0.284987
0.227845
0.152835
0.131506
0.12736
0.124655
0.117858
0.113974
0.106577
0.102666
0.0957232
0.0920619
0.0855656
0.0821209
0.075974
0.0727265
0.066959
0.0639859
0.0588606
0.0565279
0.0532014
0.0536617
0.0594827
0.0759233
0.0514023
0.0357633
0.0303488
0.0251517
0.0229329
0.0198638
0.0184179
0.0161585
0.0150532
0.0132492
0.0123492
0.0108466
0.0100847
0.00878844
0.00811717
0.00694758
0.00631873
0.00517743
0.00452995
0.00330974
0.00293036
0.00275496
0.00257845
0.00208788
0.00175678
0.00103339
0.000569593
-0.000411877
-0.0010599
-0.00246417
-0.00344048
-0.00563599
-0.00726568
-0.0110945
-0.0142277
-0.0220473
-0.0296332
-0.0504164
-0.0775062
-0.161304
-0.295537
-0.29405
-0.383767
-0.458921
-0.633532
-0.568705
-0.160442
-0.0387211
-0.00904432
-60.1385
53.3408
2.09396
1.2798
1.00419
0.622964
0.498026
0.330054
0.2703
0.175976
0.153733
0.150324