/*--------------------------------*- C++ -*----------------------------------*\
| =========                 |                                                 |
| \\      /  F ield         | OpenFOAM: The Open Source CFD Toolbox           |
|  \\    /   O peration     | Version:  5.x                                   |
|   \\  /    A nd           | Web:      www.OpenFOAM.org                      |
|    \\/     M anipulation  |                                                 |
\*---------------------------------------------------------------------------*/
FoamFile
{
    version     2.0;
    format      ascii;
    class       volScalarField;
    location    "3.6999";
    object      gradTx;
}
// * * * * * * * * * * * * * * * * * * * * * * * * * * * * * * * * * * * * * //

dimensions      [0 -1 0 1 0 0 0];

internalField   nonuniform List<scalar> 
6300
(
-30.374
-30.4438
-30.5827
-30.7894
-31.0616
-31.3962
-31.7891
-32.235
-32.7274
-33.2583
-33.8187
-34.3985
-34.9869
-35.5731
-36.1468
-30.3043
-30.3748
-30.5151
-30.7239
-30.9992
-31.338
-31.7362
-32.1887
-32.6889
-33.2289
-33.7994
-34.39
-34.9893
-35.5857
-36.1684
-30.1642
-30.2359
-30.379
-30.5921
-30.8735
-31.2204
-31.6291
-32.0947
-32.6107
-33.1691
-33.7602
-34.3728
-34.9945
-35.6123
-36.2136
-29.9524
-30.026
-30.1729
-30.3921
-30.6823
-31.0411
-31.4653
-31.9504
-32.4902
-33.0766
-33.6995
-34.3466
-35.0037
-35.6555
-36.2866
-29.667
-29.7429
-29.8945
-30.1213
-30.4225
-30.7964
-31.2407
-31.7515
-32.3232
-32.9478
-33.6148
-34.3105
-35.0183
-35.7194
-36.394
-29.3058
-29.3842
-29.541
-29.7763
-30.09
-30.4816
-30.9497
-31.4918
-32.1033
-32.7768
-33.5015
-34.2624
-35.0398
-35.8098
-36.5461
-28.8664
-28.9472
-29.1091
-29.3529
-29.6797
-30.0902
-30.5849
-31.1629
-31.8214
-32.5546
-33.3522
-34.1979
-35.0687
-35.9342
-36.7579
-28.3463
-28.429
-28.5953
-28.8467
-29.1857
-29.6148
-30.1368
-30.7535
-31.465
-32.2682
-33.1547
-34.1083
-35.1031
-36.1006
-37.0501
-27.7437
-27.8275
-27.9964
-28.2532
-28.6016
-29.0467
-29.594
-30.2493
-31.017
-31.8987
-32.8901
-33.9779
-35.1347
-36.3151
-37.4501
-27.0572
-27.1408
-27.3098
-27.568
-27.921
-28.3763
-28.9434
-29.6328
-30.4552
-31.4195
-32.5294
-33.7783
-35.143
-36.5751
-37.989
-26.2873
-26.3688
-26.5342
-26.7881
-27.138
-27.5944
-28.1706
-28.8833
-29.7515
-30.7949
-32.0298
-33.4631
-35.0839
-36.8534
-38.6875
-25.436
-25.5131
-25.67
-25.9122
-26.2488
-26.6926
-27.2614
-27.9784
-28.8729
-29.9788
-31.3317
-32.9604
-34.8762
-37.0669
-39.5045
-24.5077
-24.5777
-24.7205
-24.9421
-25.2524
-25.666
-26.2041
-26.8962
-27.7827
-28.9159
-30.3579
-32.1705
-34.3933
-37.0334
-40.1808
-23.5095
-23.5695
-23.6923
-23.8834
-24.1527
-24.5149
-24.9927
-25.6198
-26.446
-27.5441
-29.0134
-30.9702
-33.4925
-36.4921
-39.8195
-22.4514
-22.4987
-22.5956
-22.7467
-22.9601
-23.2484
-23.6323
-24.1442
-24.8376
-25.8011
-27.1812
-29.2038
-32.1137
-35.6226
-36.1926
-36.6549
-37.0955
-37.5134
-37.907
-38.2753
-38.6183
-38.9365
-39.2304
-39.5005
-39.7465
-39.9682
-40.1645
-40.3347
-40.4781
-40.5946
-40.6853
-40.7519
-40.7973
-40.8253
-40.8399
-40.8451
-40.8447
-40.8413
-40.8366
-40.8309
-40.8237
-40.8134
-40.798
-40.7755
-40.7445
-40.7044
-40.6553
-40.5986
-40.5365
-40.4716
-40.4067
-40.3441
-40.2856
-40.2318
-40.1823
-40.1357
-40.09
-40.0428
-39.9915
-39.9344
-39.8705
-39.7997
-39.723
-39.6424
-39.5603
-39.4792
-39.4012
-39.3279
-39.2598
-39.1966
-39.1366
-39.078
-39.0181
-38.9548
-38.8861
-38.811
-38.7295
-38.6426
-38.5522
-38.4607
-38.3705
-38.2838
-38.2023
-38.1267
-38.0567
-37.9913
-37.9288
-37.8673
-37.8051
-37.7414
-37.676
-37.6102
-37.5463
-37.4878
-37.4388
-37.4036
-37.3863
-37.3901
-37.4168
-37.4668
-37.5386
-37.6286
-37.7319
-37.842
-37.952
-36.6832
-37.1281
-37.5487
-37.9434
-38.3117
-38.6541
-38.9715
-39.2649
-39.535
-39.7818
-40.0046
-40.2023
-40.3733
-40.5167
-40.6321
-40.72
-40.7824
-40.8226
-40.8446
-40.8533
-40.8534
-40.849
-40.8433
-40.8379
-40.8333
-40.8283
-40.8207
-40.8081
-40.7878
-40.7579
-40.7172
-40.6662
-40.6065
-40.5405
-40.4717
-40.4033
-40.3383
-40.2788
-40.2256
-40.178
-40.1345
-40.0924
-40.0485
-39.9999
-39.9443
-39.8803
-39.808
-39.7287
-39.6447
-39.5589
-39.4746
-39.3945
-39.3203
-39.2529
-39.1917
-39.1348
-39.0796
-39.0232
-38.9625
-38.8952
-38.8201
-38.7372
-38.6477
-38.5539
-38.4587
-38.3653
-38.2764
-38.1938
-38.1185
-38.0501
-37.9871
-37.9272
-37.8681
-37.8074
-37.7437
-37.6766
-37.6073
-37.5385
-37.4741
-37.4188
-37.3778
-37.3559
-37.3569
-37.3832
-37.4355
-37.5121
-37.6095
-37.7218
-37.8422
-37.9625
-36.7422
-37.1958
-37.6215
-38.018
-38.3857
-38.726
-39.0411
-39.3332
-39.6033
-39.8518
-40.0775
-40.2784
-40.452
-40.596
-40.7091
-40.7915
-40.8451
-40.874
-40.8833
-40.8794
-40.8682
-40.8554
-40.8448
-40.8384
-40.8363
-40.8364
-40.8355
-40.8294
-40.8142
-40.7866
-40.7451
-40.6899
-40.6233
-40.5488
-40.4711
-40.395
-40.3248
-40.2631
-40.2111
-40.1681
-40.1314
-40.0972
-40.061
-40.0185
-39.9662
-39.9022
-39.8266
-39.7411
-39.6493
-39.5554
-39.464
-39.379
-39.3031
-39.2372
-39.1805
-39.1304
-39.0831
-39.0343
-38.9795
-38.9156
-38.8405
-38.7543
-38.6588
-38.5573
-38.4541
-38.3536
-38.2596
-38.1748
-38.1004
-38.0356
-37.9781
-37.9246
-37.8711
-37.814
-37.7506
-37.6801
-37.6036
-37.5242
-37.447
-37.3781
-37.3244
-37.2923
-37.287
-37.3122
-37.369
-37.4558
-37.5685
-37.7003
-37.8422
-37.9844
-36.8368
-37.3037
-37.7364
-38.1343
-38.4991
-38.8342
-39.1442
-39.433
-39.703
-39.9546
-40.1862
-40.3939
-40.5733
-40.7199
-40.8305
-40.9044
-40.9437
-40.9536
-40.9413
-40.9158
-40.8857
-40.8587
-40.8402
-40.8329
-40.8361
-40.8463
-40.8578
-40.864
-40.8583
-40.8354
-40.7927
-40.7303
-40.6514
-40.5617
-40.4683
-40.3786
-40.2988
-40.2334
-40.1839
-40.149
-40.1247
-40.1049
-40.0827
-40.0511
-40.0048
-39.9409
-39.8592
-39.7628
-39.6569
-39.5484
-39.4442
-39.3505
-39.2713
-39.2081
-39.1597
-39.1219
-39.0889
-39.0538
-39.0098
-38.9518
-38.8768
-38.7848
-38.6785
-38.5633
-38.4456
-38.3323
-38.2294
-38.1409
-38.0683
-38.0103
-37.9634
-37.9218
-37.8792
-37.8294
-37.7678
-37.6923
-37.604
-37.5068
-37.4078
-37.3156
-37.2399
-37.1898
-37.1732
-37.1955
-37.259
-37.3622
-37.5001
-37.6638
-37.8418
-38.0205
-36.9756
-37.4607
-37.9017
-38.2985
-38.6552
-38.9789
-39.278
-39.5599
-39.8291
-40.0866
-40.3292
-40.5505
-40.7421
-40.8956
-41.0048
-41.0671
-41.0849
-41.0651
-41.0187
-40.9588
-40.8987
-40.8497
-40.8198
-40.8124
-40.8258
-40.8542
-40.8879
-40.9159
-40.9272
-40.913
-40.8687
-40.7943
-40.6951
-40.5799
-40.4603
-40.3477
-40.2523
-40.1808
-40.1356
-40.1147
-40.1115
-40.1163
-40.1177
-40.1049
-40.069
-40.0051
-39.9132
-39.798
-39.6683
-39.535
-39.4093
-39.3009
-39.2164
-39.1579
-39.1234
-39.1065
-39.0977
-39.0859
-39.0604
-39.0125
-38.9377
-38.8357
-38.7112
-38.5726
-38.4306
-38.2961
-38.1784
-38.0839
-38.0149
-37.9693
-37.9408
-37.9205
-37.8975
-37.8616
-37.8048
-37.723
-37.6168
-37.492
-37.3586
-37.2293
-37.1182
-37.0391
-37.0034
-37.0195
-37.0916
-37.2186
-37.3942
-37.6068
-37.84
-38.075
-37.172
-37.6816
-38.1308
-38.5204
-38.8588
-39.1592
-39.4368
-39.705
-39.9723
-40.2401
-40.5031
-40.7499
-40.9657
-41.1353
-41.2467
-41.2942
-41.2801
-41.2149
-41.1155
-41.0023
-40.8957
-40.8133
-40.7671
-40.7618
-40.7943
-40.8544
-40.9264
-40.992
-41.0327
-41.0341
-40.9879
-40.8944
-40.7617
-40.6048
-40.4421
-40.2922
-40.1714
-40.0902
-40.0526
-40.0549
-40.0867
-40.1324
-40.1735
-40.192
-40.1734
-40.1096
-40.0005
-39.8542
-39.685
-39.5107
-39.3496
-39.2171
-39.1238
-39.0732
-39.0618
-39.0794
-39.1107
-39.1377
-39.1429
-39.1121
-39.0375
-38.9188
-38.764
-38.5869
-38.4048
-38.2355
-38.0939
-37.9902
-37.9278
-37.9033
-37.9066
-37.9228
-37.9343
-37.9239
-37.8778
-37.7886
-37.6564
-37.4896
-37.3032
-37.1165
-36.9506
-36.8256
-36.7587
-36.7629
-36.845
-37.0049
-37.2351
-37.5198
-37.8357
-38.155
-37.4469
-37.9897
-38.4455
-38.8164
-39.1172
-39.3724
-39.6093
-39.8517
-40.1146
-40.4007
-40.7004
-40.9942
-41.2559
-41.4588
-41.5808
-41.6101
-41.5492
-41.4142
-41.2324
-41.0362
-40.8579
-40.725
-40.6557
-40.6568
-40.723
-40.8374
-40.9744
-41.1037
-41.1951
-41.2236
-41.1755
-41.0508
-40.8634
-40.6381
-40.4053
-40.1951
-40.0334
-39.937
-39.912
-39.9526
-40.0421
-40.1551
-40.2618
-40.3324
-40.3428
-40.2792
-40.1415
-39.9434
-39.7089
-39.4674
-39.2485
-39.077
-38.9695
-38.9319
-38.9584
-39.0325
-39.1298
-39.221
-39.2772
-39.2749
-39.2005
-39.0541
-38.8489
-38.6082
-38.3606
-38.1348
-37.9548
-37.8368
-37.7861
-37.7972
-37.8538
-37.9317
-38.0024
-38.0373
-38.013
-37.9159
-37.7457
-37.5154
-37.2482
-36.9739
-36.7239
-36.5281
-36.4118
-36.394
-36.486
-36.69
-36.9975
-37.3875
-37.8266
-38.2721
-37.8325
-38.4232
-38.8827
-39.2133
-39.4416
-39.612
-39.7738
-39.9692
-40.2238
-40.5418
-40.9066
-41.2845
-41.631
-41.899
-42.0483
-42.0562
-41.9248
-41.6812
-41.3701
-41.0443
-40.7551
-40.5452
-40.4428
-40.4583
-40.5824
-40.7878
-41.0336
-41.2704
-41.4478
-41.5237
-41.4736
-41.2974
-41.0196
-40.6824
-40.3358
-40.0285
-39.8012
-39.6809
-39.677
-39.7801
-39.9635
-40.1869
-40.402
-40.5597
-40.6189
-40.5555
-40.3696
-40.085
-39.7428
-39.3916
-39.079
-38.8447
-38.7147
-38.6983
-38.7863
-38.9524
-39.1575
-39.3546
-39.4959
-39.5412
-39.4672
-39.274
-38.9847
-38.6393
-38.285
-37.9679
-37.7266
-37.5862
-37.5555
-37.6254
-37.7701
-37.9511
-38.1221
-38.236
-38.2527
-38.1483
-37.9217
-37.5941
-37.2034
-36.796
-36.4191
-36.1161
-35.9229
-35.8669
-35.9656
-36.226
-36.641
-37.1845
-37.8079
-38.4447
-38.378
-39.0456
-39.5059
-39.7574
-39.8495
-39.864
-39.89
-40.0015
-40.2416
-40.6156
-41.094
-41.6201
-42.1194
-42.5103
-42.7195
-42.7029
-42.4622
-42.0453
-41.5291
-40.9998
-40.5383
-40.2105
-40.0604
-40.1036
-40.3246
-40.6803
-41.1058
-41.5224
-41.8468
-42.0054
-41.9532
-41.6902
-41.2615
-40.7405
-40.2096
-39.7466
-39.4151
-39.2572
-39.288
-39.4921
-39.8273
-40.2305
-40.6248
-40.929
-41.0715
-41.0083
-40.7397
-40.3096
-39.7896
-39.2601
-38.797
-38.462
-38.2963
-38.3145
-38.5015
-38.8161
-39.1967
-39.5686
-39.8527
-39.9792
-39.9056
-39.6321
-39.2014
-38.6831
-38.1555
-37.6921
-37.3528
-37.1775
-37.1801
-37.3457
-37.634
-37.9846
-38.324
-38.5744
-38.6665
-38.5568
-38.2429
-37.7634
-37.1826
-36.5739
-36.0078
-35.5457
-35.2366
-35.117
-35.2122
-35.539
-36.0995
-36.8661
-37.77
-38.7032
-39.1579
-39.9668
-40.4299
-40.5314
-40.3691
-40.0993
-39.8833
-39.8488
-40.0668
-40.5392
-41.2127
-41.9945
-42.7642
-43.383
-43.7162
-43.6725
-43.2534
-42.5525
-41.707
-40.8578
-40.1289
-39.6202
-39.3996
-39.4928
-39.8732
-40.4723
-41.191
-41.9074
-42.4847
-42.7908
-42.7363
-42.3217
-41.6366
-40.8126
-39.9857
-39.2755
-38.779
-38.562
-38.6494
-39.0153
-39.5934
-40.287
-40.9774
-41.5313
-41.8201
-41.7569
-41.3423
-40.6638
-39.8499
-39.0331
-38.3303
-37.8356
-37.6133
-37.6875
-38.0329
-38.5846
-39.2485
-39.909
-40.4363
-40.7054
-40.6318
-40.2163
-39.5442
-38.7404
-37.9336
-37.2373
-36.7429
-36.5127
-36.5697
-36.8893
-37.4081
-38.034
-38.6541
-39.1408
-39.3708
-39.2592
-38.8025
-38.0784
-37.2019
-36.2905
-35.4469
-34.7547
-34.2771
-34.0575
-34.1253
-34.5155
-35.2611
-36.3501
-37.6897
-39.0995
-40.2788
-41.386
-41.8748
-41.6856
-41.0436
-40.2573
-39.6152
-39.3325
-39.5258
-40.1733
-41.1754
-42.3866
-43.6264
-44.6672
-45.2557
-45.1829
-44.4502
-43.2683
-41.8905
-40.5426
-39.4025
-38.6149
-38.2871
-38.4686
-39.1068
-40.0921
-41.2794
-42.493
-43.5131
-44.0953
-44.0382
-43.3428
-42.2116
-40.8893
-39.5936
-38.497
-37.7404
-37.4283
-37.6096
-38.2332
-39.1931
-40.3479
-41.5266
-42.5152
-43.0756
-43.0117
-42.3248
-41.2129
-39.9145
-38.6421
-37.5638
-36.8169
-36.5032
-36.6698
-37.2672
-38.1915
-39.3051
-40.4412
-41.3916
-41.9248
-41.8504
-41.1701
-40.0766
-38.8018
-37.5524
-36.4917
-35.7526
-35.4339
-35.5813
-36.1462
-37.0277
-38.0918
-39.176
-40.0767
-40.567
-40.4584
-39.747
-38.6128
-37.2712
-35.9092
-34.6677
-33.6546
-32.9461
-32.5843
-32.5738
-32.9801
-33.9282
-35.4729
-37.5081
-39.7246
-41.8638
-43.6958
-44.2964
-43.4925
-41.9264
-40.2078
-38.8298
-38.1307
-38.3308
-39.2969
-40.8371
-42.7378
-44.775
-46.6031
-47.7473
-47.6438
-46.2942
-44.266
-42.0311
-39.9284
-38.1684
-36.9478
-36.4414
-36.787
-37.8405
-39.4212
-41.3301
-43.3571
-45.1722
-46.3204
-46.2595
-44.9913
-43.0622
-40.9275
-38.9148
-37.2288
-36.0616
-35.5845
-35.9327
-36.967
-38.5121
-40.3745
-42.3497
-44.1159
-45.23
-45.1637
-43.9194
-42.0306
-39.9415
-37.9715
-36.3202
-35.1745
-34.7012
-35.032
-36.0306
-37.5259
-39.3291
-41.2407
-42.9476
-44.0189
-43.9417
-42.7188
-40.8698
-38.8266
-36.8996
-35.2827
-34.1569
-33.684
-33.9914
-34.9469
-36.3844
-38.1205
-39.9618
-41.6036
-42.6256
-42.5254
-41.3002
-39.4458
-37.3696
-35.3545
-33.5596
-32.1157
-31.1159
-30.6051
-30.4218
-30.6643
-31.7363
-33.8892
-37.0654
-40.7499
-43.9042
-47.7788
-48.7409
-46.3976
-43.0301
-39.6686
-37.0669
-35.634
-36.0329
-37.594
-39.9798
-42.8924
-46.2251
-49.5237
-52.0356
-51.8994
-49.1155
-45.5614
-41.9815
-38.8207
-36.1578
-34.2523
-33.3687
-34.0861
-35.8149
-38.278
-41.2108
-44.5266
-47.7916
-50.2869
-50.2193
-47.5915
-44.2088
-40.7901
-37.7654
-35.2139
-33.3892
-32.5521
-33.2682
-34.965
-37.3744
-40.2386
-43.4736
-46.6557
-49.0842
-49.0118
-46.442
-43.1367
-39.7969
-36.8419
-34.3485
-32.5638
-31.7414
-32.4325
-34.0785
-36.4172
-39.1969
-42.335
-45.4188
-47.767
-47.6824
-45.1692
-41.9424
-38.6838
-35.8004
-33.3663
-31.621
-30.8101
-31.4684
-33.0534
-35.3109
-37.9978
-41.0348
-44.023
-46.3
-46.2122
-43.7594
-40.5978
-37.3802
-34.4825
-31.946
-29.9372
-28.5814
-28.154
-27.6568
-27.154
-27.9877
-30.832
-35.8904
-42.5204
-45.387
-56.0561
-57.945
-50.7783
-44.127
-38.0362
-33.6213
-30.4994
-32.0617
-34.7033
-38.3641
-42.4421
-47.7246
-53.5774
-60.1373
-59.9678
-53.0461
-46.8942
-41.3284
-36.996
-33.0568
-30.0852
-27.9906
-29.9291
-32.7319
-36.4586
-40.5399
-45.7692
-51.5195
-57.944
-57.8661
-51.2786
-45.4075
-40.0855
-35.9349
-32.1521
-29.2948
-27.283
-29.1914
-31.937
-35.5816
-39.5689
-44.6737
-50.2806
-56.5396
-56.4563
-50.0238
-44.2924
-39.0984
-35.0477
-31.3564
-28.5672
-26.602
-28.4582
-31.1288
-34.6732
-38.5485
-43.5076
-48.9493
-55.0181
-54.9201
-48.6472
-43.0609
-38.0005
-34.0541
-30.4581
-27.7394
-25.8206
-27.6107
-30.1913
-33.6191
-37.3707
-42.1779
-47.4665
-53.3793
-53.3046
-47.239
-41.8303
-36.93
-33.0902
-29.5723
-26.8183
-24.7098
-25.8036
-24.9
-21.719
-21.3438
-24.5866
-32.452
-45.7796
-39.4237
-76.9794
-80.1857
-54.4137
-44.4177
-33.9922
-28.3141
-18.6197
-26.5361
-30.3451
-36.148
-40.2574
-48.4028
-56.6132
-77.9294
-77.7597
-55.8684
-47.3833
-38.8992
-34.605
-28.5628
-24.6552
-16.8051
-24.5276
-28.3184
-34.1287
-38.2161
-46.2618
-54.2766
-74.9647
-74.8867
-53.9342
-45.8156
-37.694
-33.5747
-27.7579
-23.9828
-16.3686
-23.9094
-27.6143
-33.2955
-37.29
-45.1506
-52.9666
-73.128
-73.0437
-52.5962
-44.6741
-36.7533
-32.7359
-27.0653
-23.384
-15.9597
-23.3112
-26.9206
-32.4529
-36.3393
-43.9852
-51.5765
-71.1496
-71.0496
-51.1363
-43.4217
-35.7132
-31.8032
-26.2865
-22.706
-15.4902
-22.6148
-26.1091
-31.461
-35.2231
-42.6279
-50.0109
-69.0807
-69.0236
-49.7723
-42.3309
-34.9522
-31.2344
-26.0984
-22.7698
-16.2267
-26.3298
-25.4228
-12.2437
-9.48988
-11.6845
-21.1479
-52.1332
-38.0637
-38.1659
-38.2384
-38.2755
-38.2755
-38.2405
-38.1753
-38.0871
-37.9846
-37.8765
-37.7716
-37.6775
-37.6011
-37.5472
-37.5194
-38.0844
-38.1956
-38.2736
-38.3125
-38.3106
-38.2705
-38.1981
-38.1015
-37.99
-37.8733
-37.7605
-37.66
-37.5784
-37.521
-37.4914
-38.1283
-38.2584
-38.3479
-38.3901
-38.3837
-38.3328
-38.2451
-38.1306
-38.0005
-37.866
-37.7372
-37.6233
-37.5313
-37.467
-37.4339
-38.2007
-38.3617
-38.4695
-38.516
-38.5013
-38.4319
-38.3187
-38.1752
-38.0154
-37.8528
-37.6991
-37.5644
-37.4566
-37.3815
-37.3431
-38.3107
-38.5183
-38.6521
-38.7031
-38.6735
-38.5745
-38.4225
-38.236
-38.0331
-37.8305
-37.6419
-37.4785
-37.349
-37.2594
-37.2137
-38.4734
-38.7484
-38.9175
-38.9706
-38.9151
-38.7701
-38.5607
-38.3129
-38.0506
-37.794
-37.5593
-37.3588
-37.2014
-37.0934
-37.0384
-38.7128
-39.0845
-39.2987
-39.3467
-39.246
-39.03
-38.7372
-38.4043
-38.0622
-37.7355
-37.4424
-37.1957
-37.0044
-36.8741
-36.8082
-39.0686
-39.578
-39.8461
-39.8712
-39.6921
-39.3667
-38.9539
-38.5046
-38.0583
-37.6433
-37.2789
-36.9773
-36.7463
-36.5904
-36.5119
-39.607
-40.3126
-40.6365
-40.5997
-40.2846
-39.7905
-39.2068
-38.6018
-38.023
-37.5006
-37.0524
-36.6882
-36.4131
-36.2291
-36.137
-40.4447
-41.4288
-41.7875
-41.6065
-41.0558
-40.304
-39.4808
-38.6728
-37.9313
-37.2834
-36.7417
-36.3101
-35.9886
-35.7757
-35.6698
-41.7987
-43.1705
-43.4779
-42.9828
-42.0282
-40.8886
-39.7396
-38.6773
-37.7458
-36.9601
-36.3207
-35.8216
-35.4554
-35.2154
-35.0967
-44.1069
-45.9764
-45.9709
-44.8186
-43.1853
-41.4824
-39.9118
-38.5508
-37.4143
-36.4905
-35.7593
-35.2002
-34.796
-34.5337
-34.4047
-48.3455
-50.6571
-49.6106
-47.1352
-44.4121
-41.9437
-39.8741
-38.1997
-36.87
-35.8282
-35.0256
-34.4238
-33.9946
-33.7186
-33.5836
-56.9873
-58.6956
-54.6791
-49.6994
-45.384
-42.0061
-39.4413
-37.5039
-36.0375
-34.9268
-34.091
-33.4746
-33.04
-32.7625
-32.6273
-77.3347
-72.4585
-60.7104
-51.5991
-45.4183
-41.2553
-38.3808
-36.3371
-34.8492
-33.7503
-32.9369
-32.3435
-31.9281
-31.6641
-31.5357
-21.4381
-21.4719
-21.5408
-21.6478
-21.7981
-22.0001
-22.2678
-22.6254
-23.1157
-23.8212
-24.9122
-26.7705
-30.3002
-37.5213
-50.5869
-20.4935
-20.514
-20.5555
-20.6188
-20.7059
-20.8196
-20.9652
-21.1524
-21.4009
-21.7535
-22.3161
-23.3969
-26.0888
-35.1865
-75.8503
-19.5347
-19.5416
-19.5549
-19.5735
-19.5953
-19.617
-19.6337
-19.6371
-19.6138
-19.5396
-19.3597
-18.904
-17.4312
-10.9257
24.9736
-18.5712
-18.5649
-18.5508
-18.5259
-18.4847
-18.4181
-18.3114
-18.1403
-17.8623
-17.3988
-16.5941
-15.1168
-12.2705
-7.07938
-3.59887
-17.612
-17.5935
-17.5544
-17.4898
-17.3918
-17.2469
-17.034
-16.7179
-16.2395
-15.495
-14.2948
-12.2797
-8.73815
-2.04729
13.6208
-16.6658
-16.6366
-16.5756
-16.477
-16.3314
-16.1232
-15.8283
-15.4083
-14.8017
-13.9077
-12.5612
-10.5019
-7.39246
-3.24877
-1.65407
-15.7399
-15.7018
-15.6228
-15.497
-15.3144
-15.0597
-14.7095
-14.2285
-13.5636
-12.6347
-11.3225
-9.45334
-6.76498
-2.67924
5.51583
-14.8406
-14.7955
-14.7026
-14.5564
-14.3476
-14.0626
-13.6815
-13.1765
-12.509
-11.6279
-10.4706
-8.97364
-7.10793
-4.96304
-2.96075
-13.9726
-13.9224
-13.8196
-13.6593
-13.4339
-13.1322
-12.7396
-12.2373
-11.6027
-10.8132
-9.85469
-8.75002
-7.64477
-7.14739
-10.0466
-13.1395
-13.0858
-12.9765
-12.8075
-12.573
-12.265
-11.8741
-11.3899
-10.8042
-10.1157
-9.34036
-8.52684
-7.75949
-6.97257
-4.24175
-12.3438
-12.288
-12.1748
-12.0013
-11.7632
-11.4556
-11.0732
-10.613
-10.0771
-9.47867
-8.85255
-8.27165
-7.88782
-8.14731
-11.4443
-11.5869
-11.53
-11.415
-11.2399
-11.0019
-10.698
-10.3265
-9.88884
-9.39334
-8.86092
-8.33339
-7.87965
-7.56943
-7.21232
-4.446
-10.8696
-10.8123
-10.6971
-10.5223
-10.2862
-9.98736
-9.62572
-9.20488
-8.73528
-8.23982
-7.76303
-7.38803
-7.28363
-7.94995
-12.0168
-10.192
-10.135
-10.0205
-9.84737
-9.61428
-9.32037
-8.96611
-8.5548
-8.09522
-7.60579
-7.12201
-6.70854
-6.46264
-6.32567
-4.03254
-9.554
-9.49775
-9.38474
-9.21406
-8.98457
-8.69534
-8.34614
-7.93829
-7.47592
-6.96786
-6.4322
-5.91273
-5.56606
-6.19833
-12.8349
-8.95511
-8.89991
-8.78905
-8.62162
-8.39641
-8.112
-7.76693
-7.35969
-6.88837
-6.34915
-5.73119
-4.99697
-3.98969
-1.90097
6.16886
-8.39459
-8.34078
-8.23267
-8.06934
-7.84938
-7.57082
-7.23094
-6.82563
-6.348
-5.78516
-5.11094
-4.27088
-3.16436
-1.75678
-1.63793
-7.87149
-7.81937
-7.71468
-7.55643
-7.34308
-7.07227
-6.74042
-6.34182
-5.86685
-5.29856
-4.60588
-3.72987
-2.54813
-0.717283
3.43126
-7.38461
-7.33452
-7.23391
-7.08183
-6.87672
-6.61614
-6.29629
-5.91107
-5.45055
-4.89838
-4.22817
-3.40122
-2.3827
-1.28694
-1.41185
-6.93254
-6.88479
-6.78891
-6.64408
-6.44891
-6.20121
-5.89758
-5.53264
-5.09792
-4.58021
-3.95934
-3.20563
-2.27095
-1.00856
1.53742
-6.51367
-6.46853
-6.37795
-6.24132
-6.05761
-5.82517
-5.54148
-5.2027
-4.80298
-4.3337
-3.78279
-3.13575
-2.38681
-1.62122
-1.62418
-6.12618
-6.08384
-5.999
-5.8713
-5.70018
-5.48474
-5.22368
-4.91511
-4.55636
-4.1439
-3.67305
-3.13666
-2.51426
-1.69984
-0.0336945
-5.76813
-5.72871
-5.64984
-5.53148
-5.37356
-5.17603
-4.93891
-4.66238
-4.34709
-3.99468
-3.60885
-3.19735
-2.77508
-2.3696
-2.04012
-5.43748
-5.401
-5.32814
-5.21915
-5.07447
-4.89485
-4.68153
-4.43661
-4.16364
-3.86869
-3.56252
-3.26555
-3.02428
-2.98627
-3.81764
-5.1322
-5.09858
-5.03156
-4.93163
-4.79968
-4.6371
-4.44613
-4.23036
-3.99547
-3.75052
-3.50984
-3.29511
-3.13235
-2.99888
-2.37931
-4.8503
-4.81938
-4.75785
-4.6664
-4.54619
-4.39908
-4.22799
-4.03741
-3.83431
-3.62942
-3.43916
-3.28861
-3.22013
-3.34875
-4.30373
-4.5899
-4.56147
-4.50496
-4.42116
-4.3114
-4.17776
-4.02341
-3.85318
-3.67442
-3.4982
-3.34094
-3.22515
-3.17106
-3.12445
-2.43371
-4.34928
-4.32308
-4.27104
-4.19398
-4.09323
-3.97084
-3.82988
-3.67492
-3.5128
-3.35383
-3.21395
-3.11887
-3.11684
-3.34717
-4.54146
-4.12688
-4.10265
-4.05453
-3.98328
-3.89011
-3.77684
-3.64609
-3.50166
-3.34901
-3.19625
-3.05588
-2.948
-2.90129
-2.90016
-2.30302
-3.92134
-3.89883
-3.85412
-3.78784
-3.70098
-3.595
-3.47185
-3.33413
-3.18533
-3.03007
-2.87528
-2.7347
-2.6541
-2.86677
-4.82532
-3.73146
-3.71046
-3.66871
-3.6067
-3.52517
-3.42511
-3.30773
-3.17434
-3.02614
-2.86361
-2.68484
-2.47978
-2.2033
-1.62067
0.692965
-3.55618
-3.53652
-3.49739
-3.43913
-3.36224
-3.26728
-3.15475
-3.02486
-2.87694
-2.70844
-2.51269
-2.27449
-1.96512
-1.57642
-1.5826
-3.39458
-3.37614
-3.33938
-3.28454
-3.21189
-3.12167
-3.01387
-2.88791
-2.74204
-2.57222
-2.37004
-2.11864
-1.78205
-1.2577
-0.0430125
-3.2458
-3.22849
-3.19395
-3.14233
-3.07376
-2.98829
-2.88561
-2.76482
-2.62381
-2.45849
-2.26159
-2.02197
-1.7294
-1.41815
-1.4792
-3.10907
-3.09283
-3.06041
-3.0119
-2.94741
-2.86687
-2.76996
-2.65578
-2.52249
-2.36671
-2.18283
-1.96211
-1.68973
-1.31984
-0.557379
-2.98364
-2.96842
-2.93805
-2.89261
-2.83221
-2.75684
-2.66632
-2.56004
-2.4368
-2.29446
-2.12968
-1.93814
-1.7178
-1.49395
-1.50635
-2.8688
-2.85457
-2.82617
-2.78373
-2.72742
-2.65737
-2.57363
-2.4761
-2.3644
-2.23781
-2.09514
-1.9342
-1.74832
-1.5038
-0.994443
-2.76386
-2.75056
-2.72405
-2.68451
-2.6322
-2.56742
-2.49055
-2.40201
-2.30236
-2.19235
-2.0733
-1.94758
-1.8196
-1.69737
-1.59819
-2.66818
-2.65575
-2.63101
-2.59418
-2.54564
-2.48588
-2.41558
-2.33567
-2.24752
-2.15319
-2.0561
-1.96257
-1.88689
-1.87475
-2.133
-2.58114
-2.5695
-2.54636
-2.51201
-2.46689
-2.41168
-2.34729
-2.27508
-2.19699
-2.11595
-2.03646
-1.96517
-1.91009
-1.86416
-1.6676
-2.50221
-2.49126
-2.46953
-2.43733
-2.39518
-2.34386
-2.28446
-2.21858
-2.14851
-2.07767
-2.01113
-1.95655
-1.92694
-1.95802
-2.24515
-2.43089
-2.42053
-2.39997
-2.36956
-2.32985
-2.28166
-2.22615
-2.165
-2.10059
-2.03642
-1.97751
-1.93061
-1.90166
-1.8739
-1.64808
-2.36678
-2.35689
-2.33727
-2.30827
-2.27043
-2.22456
-2.17178
-2.11369
-2.05252
-1.99154
-1.93557
-1.89221
-1.87559
-1.92715
-2.26814
-2.30956
-2.30002
-2.2811
-2.25313
-2.21661
-2.17227
-2.12112
-2.06452
-2.00434
-1.94319
-1.88489
-1.83527
-1.80217
-1.77925
-1.57346
-2.25897
-2.24968
-2.23123
-2.20393
-2.16822
-2.12472
-2.07425
-2.01785
-1.95684
-1.89288
-1.8282
-1.76687
-1.72171
-1.75821
-2.28734
-2.21484
-2.2057
-2.18753
-2.16059
-2.12526
-2.08202
-2.0315
-1.9744
-1.91141
-1.84306
-1.7692
-1.68725
-1.58456
-1.39492
-0.718658
-2.17708
-2.168
-2.14993
-2.12309
-2.08779
-2.04439
-1.99334
-1.93504
-1.8697
-1.79709
-1.71582
-1.62204
-1.50781
-1.36947
-1.3303
-2.14564
-2.13654
-2.11843
-2.09148
-2.05594
-2.01209
-1.96023
-1.90057
-1.83306
-1.75715
-1.67113
-1.57106
-1.4478
-1.27507
-0.926571
-2.12052
-2.11135
-2.09307
-2.06585
-2.02987
-1.98536
-1.93255
-1.87155
-1.80227
-1.72423
-1.63622
-1.53617
-1.42217
-1.30264
-1.26894
-2.10178
-2.09248
-2.07395
-2.0463
-2.00973
-1.96441
-1.91056
-1.84828
-1.77758
-1.69823
-1.60968
-1.51097
-1.40037
-1.27054
-1.06393
-2.08951
-2.08004
-2.06115
-2.03297
-1.99565
-1.94941
-1.89442
-1.83087
-1.75891
-1.67863
-1.59018
-1.49403
-1.39193
-1.29172
-1.23937
-2.08382
-2.07413
-2.05481
-2.02598
-1.9878
-1.94047
-1.88423
-1.81931
-1.74601
-1.6647
-1.57605
-1.48124
-1.38217
-1.27962
-1.15527
-2.08487
-2.07492
-2.05508
-2.02548
-1.98629
-1.93773
-1.88006
-1.81358
-1.73867
-1.65588
-1.56619
-1.4714
-1.37484
-1.28261
-1.20798
-2.09284
-2.08258
-2.06214
-2.03165
-1.9913
-1.94133
-1.88202
-1.81371
-1.73679
-1.65185
-1.55989
-1.4628
-1.3645
-1.27336
-1.20884
-2.10793
-2.09732
-2.07618
-2.04466
-2.00298
-1.95141
-1.89024
-1.81982
-1.7405
-1.65271
-1.55713
-1.45504
-1.3492
-1.24557
-1.15871
-2.13039
-2.11937
-2.09743
-2.06474
-2.02154
-1.96815
-1.90489
-1.83211
-1.75008
-1.65899
-1.5589
-1.4499
-1.33236
-1.20611
-1.05445
-2.1605
-2.14901
-2.12615
-2.09211
-2.04719
-1.99174
-1.92616
-1.85082
-1.76596
-1.67151
-1.56686
-1.45069
-1.32157
-1.18428
-1.09238
-2.19858
-2.18656
-2.16263
-2.12704
-2.08014
-2.02236
-1.9542
-1.87615
-1.78849
-1.6911
-1.58283
-1.46046
-1.31646
-1.13093
-0.818975
-2.24502
-2.23237
-2.20721
-2.16983
-2.12064
-2.06019
-1.98912
-1.90813
-1.81779
-1.71826
-1.60858
-1.48527
-1.34017
-1.16537
-1.04932
-2.30023
-2.28686
-2.26029
-2.22082
-2.16896
-2.10539
-2.03093
-1.94661
-1.85347
-1.75246
-1.64379
-1.52521
-1.38452
-1.15902
-0.478706
-2.36473
-2.35053
-2.3223
-2.28041
-2.22542
-2.15813
-2.0796
-1.9912
-1.89462
-1.79198
-1.68589
-1.58051
-1.48776
-1.46854
-1.91144
-2.43909
-2.42394
-2.39381
-2.34909
-2.29042
-2.21868
-2.13512
-2.04146
-1.93999
-1.83388
-1.72749
-1.62702
-1.53992
-1.45719
-1.17596
-2.52398
-2.50773
-2.47543
-2.42747
-2.36449
-2.28743
-2.19766
-2.09713
-1.98858
-1.87596
-1.76498
-1.66425
-1.58904
-1.58373
-1.88924
-2.62014
-2.60268
-2.56793
-2.51628
-2.44832
-2.365
-2.26767
-2.15835
-2.03999
-1.9169
-1.79535
-1.68373
-1.58962
-1.49448
-1.17065
-2.72842
-2.70962
-2.67217
-2.61639
-2.54283
-2.45229
-2.34601
-2.22586
-2.09466
-1.95677
-1.81881
-1.69105
-1.59089
-1.56411
-1.85077
-2.84975
-2.8295
-2.78913
-2.72886
-2.64911
-2.5505
-2.43398
-2.30102
-2.15399
-1.99666
-1.83519
-1.67921
-1.54119
-1.41615
-1.10641
-2.98513
-2.96336
-2.91989
-2.85485
-2.76849
-2.66114
-2.53335
-2.38596
-2.22045
-2.03944
-1.84774
-1.65487
-1.48247
-1.39653
-1.68142
-3.13563
-3.11229
-3.06561
-2.99565
-2.90243
-2.78598
-2.64631
-2.48348
-2.29768
-2.08961
-1.8611
-1.6163
-1.36369
-1.11948
-0.919843
-3.30234
-3.2774
-3.22751
-3.15258
-3.05249
-2.92693
-2.77536
-2.59693
-2.39037
-2.15398
-1.88575
-1.58315
-1.23907
-0.811569
-0.0196555
-3.48635
-3.45984
-3.40677
-3.32699
-3.22023
-3.08592
-2.92306
-2.72992
-2.50376
-2.24044
-1.93428
-1.57877
-1.17238
-0.756811
-0.69466
-3.68877
-3.66072
-3.60456
-3.52014
-3.4071
-3.26474
-3.09177
-2.88582
-2.64294
-2.35665
-2.01706
-1.60973
-1.11204
-0.45672
0.798573
-3.91066
-3.88111
-3.82198
-3.73314
-3.6143
-3.46482
-3.28336
-3.06738
-2.81224
-2.50987
-2.14688
-1.70343
-1.16116
-0.573372
-0.56306
-4.15306
-4.12203
-4.06001
-3.96696
-3.84279
-3.6871
-3.49891
-3.27611
-3.01434
-2.70518
-2.33255
-1.86576
-1.24186
-0.289106
1.809
-4.41698
-4.38448
-4.31957
-4.22239
-4.09315
-3.93192
-3.7385
-3.51188
-3.24934
-2.94455
-2.5836
-2.13717
-1.55094
-0.800327
-0.666001
-4.70347
-4.66943
-4.60151
-4.50009
-4.3657
-4.1991
-4.00114
-3.77259
-3.51368
-3.2229
-2.894
-2.50564
-1.97416
-0.883681
3.2563
-5.01359
-4.97788
-4.90672
-4.80066
-4.66062
-4.48804
-4.28499
-4.05438
-3.80014
-3.52772
-3.24569
-2.9735
-2.78556
-3.08485
-6.42432
-5.34849
-5.31095
-5.23616
-5.12481
-4.97813
-4.79813
-4.58799
-4.35256
-4.09921
-3.83921
-3.59052
-3.38285
-3.25858
-3.17492
-1.94618
-5.70946
-5.66986
-5.59097
-5.47349
-5.31876
-5.12914
-4.90852
-4.66317
-4.40288
-4.14284
-3.90684
-3.73429
-3.70337
-4.06032
-6.16342
-6.0979
-6.05605
-5.97256
-5.84801
-5.68361
-5.48166
-5.24623
-4.98414
-4.70636
-4.42975
-4.17911
-3.98734
-3.87881
-3.73323
-2.29255
-6.5154
-6.47113
-6.38265
-6.2502
-6.07453
-5.85742
-5.60242
-5.316
-5.00902
-4.69861
-4.41048
-4.18257
-4.07998
-4.30564
-6.08167
-6.96362
-6.91691
-6.82326
-6.68238
-6.49422
-6.25947
-5.98042
-5.66213
-5.31406
-4.95199
-4.60003
-4.29076
-4.05318
-3.80154
-2.44376
-7.44427
-7.39526
-7.29665
-7.14739
-6.94624
-6.69227
-6.38566
-6.02893
-5.62879
-5.19835
-4.7599
-4.34917
-4.03614
-4.06573
-5.76473
-7.95894
-7.90804
-7.80519
-7.64841
-7.43493
-7.16162
-6.82567
-6.42587
-5.96454
-5.45027
-4.90051
-4.33972
-3.78115
-3.17072
-2.36389
-8.50895
-8.45687
-8.35118
-8.18878
-7.96515
-7.67444
-7.31002
-6.86553
-6.33703
-5.72683
-5.04876
-4.32872
-3.56217
-2.41225
1.5972
-9.0951
-9.04292
-8.93651
-8.77167
-8.54193
-8.23843
-7.84995
-7.36351
-6.76625
-6.05052
-5.22613
-4.35001
-3.60939
-3.63968
-7.19689
-9.71746
-9.66661
-9.5624
-9.3996
-9.16991
-8.86141
-8.4579
-7.93843
-7.27772
-6.44966
-5.43941
-4.27718
-3.12125
-2.41809
-2.92183
-10.3751
-10.3273
-10.229
-10.074
-9.8526
-9.55034
-9.14636
-8.61143
-7.90538
-6.97531
-5.75822
-4.19997
-2.31863
-0.358643
1.00339
-11.0659
-11.0232
-10.9348
-10.7944
-10.5915
-10.3099
-9.92575
-9.40323
-8.68861
-7.70025
-6.31394
-4.34708
-1.57059
2.1158
5.87443
-11.7863
-11.7508
-11.6768
-11.5582
-11.3849
-11.1407
-10.8012
-10.3284
-9.66192
-8.70153
-7.27281
-5.05642
-1.45437
4.53982
13.3556
-12.5314
-12.505
-12.4497
-12.3601
-12.2274
-12.0376
-11.7692
-11.3881
-10.8393
-10.028
-8.77865
-6.72797
-2.99934
5.00415
26.9587
-152.165
-91.3738
-63.8216
-50.654
-43.6
-39.386
-36.6471
-34.758
-33.4032
-32.41
-31.6773
-31.1436
-30.7701
-30.5327
-30.4173
-189.446
-85.4888
-56.6603
-45.5491
-39.9747
-36.662
-34.4808
-32.9513
-31.8376
-31.0104
-30.394
-29.9413
-29.6227
-29.4194
-29.3203
49.1978
-27.4322
-37.1953
-36.599
-34.7787
-33.1523
-31.8617
-30.8559
-30.0729
-29.4645
-28.9968
-28.6459
-28.3952
-28.2337
-28.1545
-7.06147
-15.8114
-24.9242
-28.4989
-29.4479
-29.4092
-29.0447
-28.6059
-28.1867
-27.8209
-27.5185
-27.2808
-27.1057
-26.9907
-26.9337
27.2588
-3.9392
-16.499
-22.2221
-24.8028
-25.8924
-26.2794
-26.342
-26.2634
-26.1331
-25.9953
-25.8721
-25.7744
-25.7073
-25.6733
-1.25931
-5.01068
-12.8215
-18.1276
-21.1932
-22.8636
-23.7391
-24.1763
-24.3761
-24.4504
-24.4619
-24.4457
-24.4217
-24.4009
-24.3892
12.1693
-3.2636
-10.8833
-15.5888
-18.5525
-20.3865
-21.5033
-22.1753
-22.5757
-22.8113
-22.9477
-23.0248
-23.0667
-23.0881
-23.097
-3.02667
-6.94283
-10.9688
-14.2596
-16.6963
-18.4076
-19.5761
-20.363
-20.8897
-21.2411
-21.4746
-21.6281
-21.7261
-21.784
-21.8108
-15.5032
-10.5462
-11.5648
-13.5236
-15.3438
-16.8056
-17.914
-18.7314