/*--------------------------------*- C++ -*----------------------------------*\
| =========                 |                                                 |
| \\      /  F ield         | OpenFOAM: The Open Source CFD Toolbox           |
|  \\    /   O peration     | Version:  5.x                                   |
|   \\  /    A nd           | Web:      www.OpenFOAM.org                      |
|    \\/     M anipulation  |                                                 |
\*---------------------------------------------------------------------------*/
FoamFile
{
    version     2.0;
    format      ascii;
    class       volScalarField;
    location    "3.6999";
    object      T;
}
// * * * * * * * * * * * * * * * * * * * * * * * * * * * * * * * * * * * * * //

dimensions      [0 0 0 1 0 0 0];

internalField   nonuniform List<scalar> 
6300
(
322.848
322.544
322.239
321.933
321.624
321.311
320.996
320.676
320.351
320.021
319.686
319.345
318.998
318.645
318.286
322.849
322.545
322.241
321.935
321.627
321.315
321
320.68
320.356
320.027
319.691
319.351
319.004
318.651
318.292
322.849
322.547
322.245
321.94
321.633
321.322
321.008
320.69
320.366
320.038
319.703
319.362
319.016
318.663
318.303
322.85
322.551
322.25
321.947
321.642
321.334
321.021
320.704
320.382
320.054
319.721
319.38
319.034
318.68
318.321
322.852
322.555
322.257
321.957
321.654
321.349
321.039
320.724
320.404
320.077
319.745
319.405
319.058
318.705
318.344
322.854
322.56
322.266
321.969
321.67
321.368
321.061
320.749
320.431
320.107
319.775
319.437
319.09
318.736
318.374
322.856
322.567
322.277
321.985
321.69
321.391
321.088
320.779
320.465
320.143
319.814
319.476
319.13
318.775
318.411
322.858
322.575
322.29
322.003
321.713
321.419
321.121
320.816
320.505
320.187
319.86
319.524
319.178
318.822
318.456
322.861
322.584
322.305
322.024
321.74
321.452
321.159
320.86
320.554
320.24
319.916
319.582
319.236
318.879
318.51
322.865
322.594
322.322
322.048
321.771
321.489
321.203
320.911
320.61
320.301
319.982
319.651
319.307
318.948
318.575
322.869
322.606
322.341
322.075
321.806
321.532
321.254
320.969
320.676
320.374
320.06
319.733
319.391
319.031
318.654
322.873
322.618
322.363
322.105
321.844
321.58
321.311
321.035
320.751
320.457
320.151
319.831
319.492
319.133
318.751
322.878
322.632
322.386
322.138
321.887
321.633
321.374
321.109
320.836
320.553
320.258
319.946
319.614
319.258
318.874
322.883
322.647
322.411
322.173
321.933
321.69
321.443
321.191
320.931
320.662
320.38
320.081
319.76
319.411
319.031
322.888
322.663
322.438
322.211
321.983
321.752
321.518
321.279
321.035
320.783
320.519
320.239
319.935
319.597
319.222
317.952
317.645
317.334
317.02
316.702
316.382
316.059
315.733
315.405
315.075
314.742
314.408
314.073
313.736
313.398
313.06
312.72
312.38
312.04
311.7
311.36
311.019
310.679
310.339
309.998
309.658
309.318
308.978
308.638
308.298
307.959
307.62
307.281
306.943
306.606
306.269
305.932
305.596
305.261
304.926
304.591
304.257
303.923
303.589
303.256
302.924
302.592
302.261
301.93
301.6
301.271
300.942
300.614
300.286
299.96
299.633
299.307
298.982
298.657
298.333
298.009
297.686
297.363
297.042
296.721
296.401
296.081
295.763
295.445
295.127
294.81
294.494
294.178
293.863
293.548
293.234
292.92
292.607
292.294
291.982
291.67
291.359
291.047
290.736
290.424
290.111
289.798
289.484
289.169
288.853
317.958
317.65
317.339
317.024
316.707
316.386
316.062
315.736
315.408
315.077
314.745
314.411
314.075
313.738
313.4
313.061
312.721
312.381
312.041
311.7
311.36
311.019
310.679
310.339
309.998
309.658
309.318
308.978
308.638
308.298
307.958
307.619
307.281
306.942
306.605
306.268
305.931
305.596
305.26
304.925
304.591
304.256
303.922
303.589
303.256
302.923
302.591
302.26
301.929
301.599
301.27
300.941
300.613
300.286
299.959
299.632
299.307
298.981
298.656
298.332
298.008
297.685
297.362
297.041
296.72
296.4
296.08
295.762
295.444
295.126
294.81
294.493
294.177
293.862
293.547
293.233
292.919
292.606
292.294
291.982
291.67
291.359
291.047
290.736
290.424
290.112
289.799
289.485
289.17
288.855
317.969
317.661
317.349
317.034
316.715
316.394
316.07
315.743
315.414
315.083
314.75
314.415
314.079
313.741
313.402
313.062
312.722
312.382
312.041
311.7
311.36
311.019
310.679
310.338
309.998
309.658
309.317
308.977
308.637
308.297
307.957
307.618
307.279
306.941
306.603
306.266
305.93
305.594
305.259
304.924
304.589
304.255
303.921
303.587
303.254
302.921
302.589
302.258
301.927
301.597
301.268
300.939
300.611
300.284
299.957
299.631
299.305
298.98
298.654
298.33
298.006
297.683
297.36
297.038
296.717
296.397
296.078
295.76
295.442
295.125
294.808
294.492
294.176
293.861
293.546
293.231
292.918
292.605
292.292
291.981
291.669
291.358
291.048
290.737
290.426
290.114
289.802
289.488
289.173
288.857
317.985
317.676
317.363
317.047
316.728
316.406
316.081
315.753
315.423
315.091
314.757
314.422
314.084
313.745
313.406
313.065
312.724
312.383
312.041
311.7
311.359
311.019
310.678
310.338
309.998
309.657
309.317
308.976
308.636
308.296
307.955
307.616
307.277
306.938
306.6
306.264
305.928
305.592
305.257
304.922
304.588
304.254
303.919
303.585
303.252
302.919
302.586
302.254
301.923
301.593
301.264
300.936
300.609
300.282
299.955
299.629
299.303
298.977
298.652
298.327
298.003
297.679
297.357
297.035
296.714
296.394
296.075
295.757
295.439
295.122
294.806
294.49
294.174
293.858
293.543
293.229
292.915
292.602
292.29
291.979
291.668
291.358
291.048
290.738
290.428
290.117
289.805
289.492
289.178
288.862
318.007
317.697
317.383
317.065
316.745
316.421
316.095
315.767
315.436
315.103
314.768
314.431
314.092
313.752
313.41
313.068
312.726
312.383
312.041
311.7
311.359
311.018
310.678
310.338
309.998
309.657
309.317
308.976
308.635
308.294
307.953
307.613
307.273
306.934
306.597
306.26
305.924
305.589
305.255
304.92
304.586
304.252
303.917
303.583
303.249
302.915
302.582
302.25
301.919
301.589
301.26
300.932
300.605
300.278
299.952
299.626
299.301
298.975
298.649
298.324
297.999
297.675
297.352
297.03
296.709
296.389
296.07
295.753
295.436
295.119
294.803
294.487
294.171
293.855
293.54
293.225
292.911
292.598
292.286
291.976
291.666
291.357
291.049
290.74
290.432
290.122
289.811
289.499
289.184
288.868
318.036
317.724
317.408
317.088
316.766
316.44
316.113
315.783
315.451
315.117
314.781
314.442
314.101
313.759
313.416
313.072
312.728
312.384
312.041
311.698
311.357
311.017
310.677
310.337
309.998
309.658
309.317
308.975
308.634
308.292
307.95
307.608
307.268
306.929
306.591
306.255
305.92
305.585
305.252
304.918
304.584
304.25
303.915
303.58
303.245
302.911
302.577
302.244
301.913
301.583
301.254
300.927
300.6
300.275
299.949
299.624
299.298
298.972
298.646
298.319
297.994
297.669
297.345
297.023
296.702
296.383
296.065
295.748
295.432
295.116
294.8
294.484
294.168
293.852
293.536
293.22
292.906
292.593
292.281
291.971
291.662
291.355
291.049
290.743
290.436
290.128
289.819
289.508
289.194
288.877
318.07
317.756
317.437
317.115
316.79
316.463
316.134
315.803
315.47
315.134
314.797
314.456
314.113
313.769
313.422
313.075
312.729
312.383
312.039
311.696
311.355
311.015
310.676
310.337
309.998
309.659
309.318
308.976
308.633
308.289
307.946
307.603
307.261
306.922
306.584
306.248
305.914
305.581
305.249
304.916
304.583
304.249
303.913
303.577
303.241
302.905
302.57
302.236
301.904
301.574
301.246
300.92
300.595
300.271
299.946
299.621
299.296
298.969
298.642
298.315
297.987
297.661
297.336
297.014
296.693
296.374
296.057
295.742
295.427
295.112
294.797
294.481
294.165
293.848
293.531
293.214
292.899
292.585
292.274
291.964
291.657
291.352
291.049
290.745
290.442
290.137
289.83
289.521
289.207
288.89
318.112
317.794
317.472
317.146
316.818
316.489
316.158
315.826
315.492
315.155
314.816
314.474
314.128
313.78
313.43
313.079
312.729
312.38
312.034
311.691
311.35
311.012
310.674
310.337
310
309.661
309.32
308.977
308.632
308.286
307.94
307.595
307.252
306.912
306.574
306.239
305.907
305.576
305.245
304.915
304.582
304.249
303.913
303.575
303.237
302.898
302.561
302.225
301.893
301.563
301.236
300.912
300.589
300.266
299.944
299.62
299.295
298.967
298.639
298.309
297.98
297.651
297.325
297.002
296.681
296.364
296.048
295.735
295.422
295.109
294.795
294.479
294.162
293.844
293.525
293.206
292.889
292.574
292.263
291.954
291.649
291.347
291.047
290.749
290.45
290.149
289.846
289.538
289.226
288.908
318.162
317.839
317.511
317.18
316.848
316.516
316.184
315.851
315.517
315.181
314.84
314.496
314.147
313.794
313.438
313.082
312.726
312.374
312.026
311.682
311.342
311.006
310.672
310.339
310.004
309.666
309.326
308.981
308.634
308.284
307.934
307.585
307.239
306.897
306.56
306.227
305.897
305.57
305.243
304.915
304.585
304.251
303.914
303.574
303.232
302.89
302.549
302.211
301.877
301.548
301.223
300.901
300.582
300.263
299.943
299.621
299.296
298.968
298.637
298.304
297.97
297.638
297.31
296.985
296.665
296.349
296.037
295.727
295.417
295.107
294.795
294.48
294.162
293.841
293.519
293.197
292.876
292.559
292.247
291.939
291.637
291.339
291.045
290.752
290.459
290.165
289.867
289.564
289.253
288.934
318.22
317.89
317.554
317.216
316.879
316.543
316.21
315.879
315.546
315.211
314.871
314.524
314.171
313.811
313.448
313.083
312.72
312.362
312.011
311.667
311.33
310.998
310.669
310.341
310.011
309.677
309.337
308.99
308.638
308.282
307.925
307.57
307.22
306.876
306.539
306.209
305.885
305.563
305.242
304.919
304.592
304.259
303.92
303.576
303.228
302.879
302.532
302.19
301.855
301.526
301.204
300.887
300.573
300.26
299.945
299.626
299.302
298.972
298.637
298.298
297.959
297.621
297.288
296.962
296.643
296.33
296.022
295.717
295.413
295.108
294.799
294.484
294.165
293.84
293.512
293.184
292.858
292.537
292.223
291.917
291.619
291.327
291.039
290.755
290.472
290.186
289.896
289.599
289.291
288.971
318.291
317.949
317.601
317.252
316.906
316.567
316.235
315.907
315.58
315.248
314.91
314.562
314.204
313.835
313.459
313.081
312.706
312.34
311.985
311.642
311.309
310.985
310.666
310.347
310.025
309.695
309.356
309.007
308.648
308.282
307.913
307.548
307.191
306.844
306.509
306.185
305.868
305.556
305.244
304.929
304.607
304.276
303.934
303.583
303.226
302.866
302.509
302.16
301.822
301.495
301.178
300.869
300.564
300.26
299.953
299.639
299.317
298.984
298.643
298.294
297.944
297.597
297.258
296.929
296.611
296.303
296.003
295.707
295.412
295.114
294.81
294.497
294.175
293.844
293.507
293.168
292.833
292.505
292.189
291.884
291.591
291.307
291.03
290.757
290.487
290.215
289.937
289.649
289.346
289.024
318.377
318.019
317.649
317.281
316.924
316.582
316.254
315.935
315.618
315.296
314.963
314.615
314.251
313.869
313.474
313.073
312.68
312.302
311.942
311.601
311.277
310.965
310.661
310.358
310.048
309.727
309.391
309.038
308.668
308.285
307.896
307.514
307.147
306.797
306.464
306.148
305.844
305.547
305.251
304.948
304.635
304.306
303.962
303.601
303.227
302.847
302.474
302.115
301.773
301.449
301.141
300.844
300.554
300.265
299.97
299.665
299.345
299.009
298.658
298.294
297.924
297.561
297.212
296.88
296.565
296.265
295.977
295.696
295.415
295.129
294.833
294.523
294.198
293.857
293.504
293.146
292.796
292.458
292.138
291.835
291.549
291.276
291.014
290.757
290.503
290.25
289.992
289.721
289.428
289.104
318.489
318.107
317.693
317.295
316.92
316.577
316.259
315.96
315.665
315.359
315.038
314.693
314.323
313.922
313.498
313.055
312.633
312.236
311.874
311.537
311.227
310.934
310.656
310.378
310.088
309.781
309.45
309.094
308.707
308.298
307.869
307.461
307.076
306.724
306.396
306.094
305.809
305.538
305.267
304.983
304.684
304.361
304.014
303.636
303.236
302.818
302.419
302.044
301.7
301.381
301.086
300.808
300.543
300.279
300.003
299.711
299.396
299.058
298.69
298.301
297.894
297.506
297.141
296.807
296.497
296.21
295.941
295.683
295.427
295.159
294.876
294.57
294.243
293.887
293.509
293.115
292.739
292.386
292.062
291.763
291.488
291.23
290.989
290.754
290.519
290.293
290.067
289.826
289.553
289.228
318.65
318.24
317.715
317.274
316.869
316.538
316.235
315.978
315.727
315.444
315.149
314.804
314.441
314.009
313.548
313.007
312.549
312.122
311.767
311.434
311.151
310.883
310.649
310.416
310.15
309.871
309.543
309.195
308.78
308.336
307.814
307.372
306.959
306.615
306.291
306.016
305.756
305.528
305.301
305.041
304.769
304.448
304.109
303.704
303.271
302.762
302.33
301.928
301.592
301.276
301.008
300.754
300.532
300.31
300.057
299.791
299.479
299.149
298.754
298.333
297.837
297.418
297.027
296.7
296.393
296.132
295.886
295.67
295.455
295.21
294.952
294.65
294.329
293.947
293.538
293.057
292.65
292.27
291.953
291.654
291.401
291.161
290.954
290.75
290.524
290.335
290.162
289.979
289.752
289.438
318.902
318.536
317.619
317.2
316.712
316.46
316.146
315.988
315.835
315.545
315.33
314.943
314.659
314.136
313.715
312.837
312.419
311.906
311.629
311.258
311.053
310.782
310.642
310.502
310.233
310.03
309.664
309.393
308.893
308.488
307.644
307.24
306.745
306.477
306.116
305.917
305.654
305.517
305.381
305.119
304.921
304.564
304.299
303.811
303.416
302.593
302.199
301.716
301.455
301.103
300.909
300.652
300.519
300.386
300.131
299.938
299.59
299.332
298.857
298.472
297.671
297.288
296.819
296.565
296.223
296.034
295.785
295.656
295.527
295.279
295.092
294.755
294.505
294.044
293.671
292.893
292.521
292.063
291.815
291.481
291.295
291.046
290.915
290.775
290.477
290.352
290.273
290.194
290.078
289.841
288.505
288.124
287.742
287.359
286.976
286.593
286.211
285.83
285.45
285.07
284.692
284.315
283.939
283.563
283.188
288.506
288.125
287.742
287.359
286.976
286.593
286.211
285.829
285.449
285.069
284.691
284.314
283.938
283.562
283.187
288.508
288.126
287.743
287.36
286.976
286.592
286.209
285.827
285.446
285.067
284.689
284.312
283.936
283.562
283.187
288.512
288.129
287.745
287.36
286.975
286.59
286.206
285.824
285.443
285.063
284.686
284.309
283.934
283.56
283.187
288.518
288.134
287.748
287.361
286.974
286.587
286.202
285.819
285.437
285.058
284.681
284.305
283.931
283.558
283.186
288.526
288.14
287.751
287.361
286.972
286.583
286.196
285.812
285.43
285.051
284.674
284.3
283.927
283.556
283.185
288.537
288.148
287.756
287.362
286.969
286.577
286.188
285.802
285.42
285.041
284.665
284.292
283.921
283.552
283.184
288.553
288.159
287.762
287.362
286.964
286.569
286.177
285.789
285.407
285.028
284.654
284.283
283.914
283.548
283.182
288.575
288.174
287.769
287.362
286.957
286.556
286.161
285.772
285.389
285.011
284.639
284.27
283.905
283.542
283.181
288.606
288.195
287.777
287.359
286.945
286.538
286.139
285.748
285.366
284.99
284.62
284.255
283.894
283.535
283.178
288.65
288.222
287.786
287.352
286.927
286.512
286.109
285.717
285.335
284.962
284.596
284.236
283.88
283.527
283.175
288.713
288.257
287.793
287.338
286.897
286.474
286.067
285.676
285.296
284.927
284.567
284.212
283.863
283.516
283.172
288.806
288.3
287.793
287.307
286.85
286.419
286.011
285.622
285.247
284.884
284.531
284.184
283.842
283.504
283.168
288.944
288.343
287.77
287.249
286.776
286.342
285.936
285.553
285.186
284.832
284.488
284.15
283.818
283.49
283.163
289.146
288.358
287.697
287.143
286.665
286.235
285.839
285.467
285.113
284.77
284.438
284.112
283.791
283.473
283.158
322.893
322.678
322.463
322.248
322.03
321.812
321.59
321.366
321.138
320.904
320.662
320.406
320.126
319.8
319.376
322.898
322.693
322.487
322.281
322.075
321.867
321.659
321.448
321.235
321.02
320.8
320.574
320.332
320.052
319.629
322.902
322.707
322.512
322.316
322.12
321.924
321.728
321.531
321.335
321.139
320.944
320.752
320.566
320.403
320.348
322.907
322.721
322.536
322.35
322.165
321.981
321.797
321.615
321.434
321.257
321.086
320.925
320.784
320.68
320.642
322.912
322.736
322.56
322.385
322.21
322.037
321.865
321.696
321.531
321.371
321.221
321.086
320.975
320.911
320.935
322.917
322.75
322.584
322.419
322.254
322.092
321.932
321.775
321.624
321.479
321.346
321.228
321.136
321.08
321.071
322.921
322.764
322.607
322.451
322.297
322.145
321.996
321.851
321.712
321.58
321.459
321.353
321.27
321.218
321.216
322.926
322.777
322.63
322.483
322.339
322.196
322.057
321.923
321.794
321.673
321.561
321.463
321.382
321.321
321.283
322.93
322.79
322.652
322.514
322.378
322.245
322.116
321.991
321.871
321.759
321.655
321.561
321.48
321.409
321.337
322.934
322.803
322.673
322.543
322.416
322.292
322.171
322.055
321.943
321.838
321.741
321.652
321.57
321.496
321.431
322.938
322.815
322.692
322.571
322.452
322.336
322.223
322.115
322.011
321.913
321.821
321.736
321.656
321.578
321.493
322.942
322.826
322.711
322.598
322.487
322.378
322.273
322.171
322.075
321.984
321.898
321.817
321.74
321.665
321.596
322.946
322.837
322.729
322.623
322.519
322.417
322.319
322.225
322.135
322.05
321.97
321.895
321.822
321.749
321.663
322.949
322.847
322.746
322.647
322.549
322.454
322.363
322.275
322.192
322.113
322.04
321.971
321.906
321.842
321.779
322.952
322.857
322.762
322.669
322.578
322.489
322.404
322.322
322.245
322.173
322.106
322.044
321.988
321.933
321.864
322.955
322.866
322.777
322.69
322.605
322.522
322.442
322.367
322.295
322.229
322.168
322.114
322.068
322.035
322.03
322.958
322.874
322.791
322.709
322.63
322.553
322.478
322.408
322.342
322.281
322.226
322.179
322.141
322.115
322.106
322.961
322.882
322.804
322.728
322.653
322.581
322.512
322.446
322.385
322.329
322.279
322.237
322.204
322.186
322.19
322.963
322.889
322.816
322.745
322.675
322.607
322.542
322.481
322.424
322.372
322.326
322.288
322.258
322.24
322.232
322.965
322.896
322.828
322.76
322.695
322.631
322.571
322.513
322.46
322.411
322.368
322.332
322.304
322.287
322.284
322.967
322.902
322.838
322.775
322.713
322.654
322.597
322.543
322.493
322.447
322.406
322.371
322.343
322.323
322.311
322.969
322.908
322.848
322.788
322.73
322.674
322.621
322.57
322.522
322.479
322.439
322.405
322.377
322.355
322.343
322.971
322.914
322.857
322.801
322.746
322.693
322.642
322.594
322.549
322.507
322.469
322.435
322.405
322.38
322.358
322.973
322.918
322.865
322.812
322.76
322.71
322.662
322.617
322.574
322.534
322.496
322.462
322.431
322.402
322.371
322.974
322.923
322.872
322.822
322.774
322.726
322.681
322.638
322.596
322.558
322.521
322.487
322.455
322.425
322.395
322.976
322.927
322.879
322.832
322.786
322.741
322.698
322.657
322.617
322.58
322.545
322.511
322.479
322.447
322.412
322.977
322.931
322.886
322.841
322.797
322.755
322.714
322.674
322.637
322.601
322.567
322.534
322.502
322.471
322.44
322.978
322.935
322.892
322.849
322.808
322.768
322.728
322.691
322.655
322.621
322.588
322.556
322.526
322.494
322.459
322.979
322.938
322.897
322.857
322.818
322.779
322.742
322.706
322.672
322.639
322.608
322.578
322.549
322.52
322.491
322.98
322.941
322.902
322.864
322.827
322.79
322.755
322.721
322.688
322.657
322.627
322.599
322.573
322.546
322.515
322.981
322.944
322.907
322.871
322.835
322.8
322.766
322.734
322.703
322.673
322.646
322.62
322.596
322.576
322.564
322.982
322.947
322.911
322.877
322.843
322.809
322.777
322.746
322.717
322.689
322.663
322.639
322.617
322.599
322.586
322.983
322.949
322.915
322.882
322.85
322.818
322.787
322.758
322.73
322.703
322.678
322.656
322.636
322.62
322.611
322.984
322.951
322.919
322.887
322.856
322.826
322.797
322.768
322.741
322.716
322.692
322.671
322.652
322.636
322.623
322.984
322.953
322.923
322.892
322.862
322.833
322.805
322.778
322.752
322.727
322.705
322.684
322.665
322.65
322.639
322.985
322.955
322.926
322.897
322.868
322.84
322.813
322.787
322.762
322.738
322.716
322.695
322.677
322.661
322.647
322.986
322.957
322.929
322.9
322.873
322.846
322.82
322.794
322.77
322.747
322.725
322.705
322.687
322.67
322.657
322.986
322.959
322.931
322.904
322.877
322.851
322.826
322.802
322.778
322.756
322.734
322.714
322.695
322.678
322.661
322.987
322.96
322.934
322.907
322.882
322.856
322.832
322.808
322.785
322.763
322.742
322.722
322.703
322.684
322.665
322.987
322.961
322.936
322.91
322.885
322.861
322.837
322.814
322.792
322.77
322.749
322.729
322.71
322.691
322.673
322.987
322.962
322.938
322.913
322.889
322.865
322.842
322.819
322.798
322.777
322.756
322.736
322.717
322.698
322.678
322.988
322.964
322.939
322.916
322.892
322.869
322.846
322.824
322.803
322.782
322.762
322.743
322.724
322.705
322.686
322.988
322.965
322.941
322.918
322.895
322.872
322.85
322.829
322.808
322.788
322.768
322.749
322.73
322.712
322.692
322.988
322.965
322.942
322.92
322.897
322.875
322.854
322.833
322.813
322.793
322.774
322.755
322.737
322.719
322.701
322.989
322.966
322.944
322.922
322.9
322.878
322.857
322.837
322.817
322.798
322.779
322.761
322.744
322.727
322.708
322.989
322.967
322.945
322.923
322.902
322.881
322.86
322.84
322.82
322.802
322.784
322.766
322.75
322.735
322.722
322.989
322.967
322.946
322.924
322.903
322.883
322.862
322.843
322.824
322.805
322.788
322.771
322.755
322.741
322.728
322.989
322.968
322.947
322.925
322.905
322.884
322.864
322.845
322.826
322.808
322.791
322.775
322.76
322.746
322.734
322.989
322.968
322.947
322.926
322.906
322.886
322.866
322.847
322.829
322.811
322.794
322.778
322.763
322.75
322.737
322.989
322.968
322.948
322.927
322.907
322.887
322.867
322.849
322.83
322.813
322.796
322.781
322.766
322.753
322.741
322.99
322.969
322.948
322.927
322.907
322.888
322.868
322.85
322.832
322.814
322.798
322.783
322.768
322.755
322.742
322.99
322.969
322.948
322.928
322.908
322.888
322.869
322.85
322.832
322.815
322.799
322.784
322.769
322.756
322.744
322.99
322.969
322.948
322.928
322.908
322.888
322.869
322.85
322.833
322.816
322.799
322.784
322.77
322.757
322.744
322.99
322.969
322.948
322.927
322.907
322.888
322.868
322.85
322.832
322.815
322.799
322.784
322.77
322.757
322.744
322.989
322.968
322.948
322.927
322.907
322.887
322.868
322.849
322.831
322.814
322.798
322.783
322.769
322.756
322.744
322.989
322.968
322.947
322.926
322.906
322.886
322.866
322.848
322.83
322.813
322.796
322.781
322.767
322.755
322.743
322.989
322.968
322.946
322.925
322.904
322.884
322.865
322.846
322.828
322.81
322.794
322.779
322.765
322.753
322.741
322.989
322.967
322.945
322.924
322.903
322.882
322.862
322.843
322.825
322.807
322.791
322.776
322.762
322.749
322.739
322.989
322.966
322.944
322.922
322.901
322.88
322.86
322.84
322.821
322.804
322.787
322.771
322.757
322.745
322.734
322.988
322.966
322.943
322.92
322.898
322.877
322.856
322.836
322.817
322.799
322.782
322.766
322.752
322.739
322.729
322.988
322.965
322.941
322.918
322.896
322.874
322.852
322.832
322.813
322.794
322.777
322.76
322.745
322.731
322.716
322.988
322.963
322.939
322.916
322.892
322.87
322.848
322.827
322.807
322.788
322.77
322.754
322.738
322.723
322.709
322.987
322.962
322.937
322.913
322.889
322.865
322.843
322.821
322.801
322.782
322.763
322.746
322.73
322.715
322.698
322.987
322.961
322.935
322.909
322.884
322.86
322.837
322.815
322.794
322.774
322.756
322.738
322.722
322.707
322.692
322.986
322.959
322.932
322.906
322.88
322.855
322.831
322.808
322.786
322.766
322.747
322.73
322.713
322.698
322.682
322.986
322.957
322.929
322.901
322.875
322.849
322.824
322.8
322.778
322.757
322.738
322.72
322.704
322.689
322.676
322.985
322.955
322.926
322.897
322.869
322.841
322.815
322.791
322.768
322.746
322.727
322.709
322.694
322.68
322.666
322.984
322.953
322.922
322.892
322.862
322.834
322.806
322.781
322.757
322.735
322.715
322.698
322.683
322.67
322.66
322.983
322.95
322.918
322.886
322.855
322.825
322.796
322.769
322.744
322.722
322.701
322.684
322.67
322.659
322.653
322.983
322.948
322.913
322.88
322.847
322.815
322.785
322.757
322.73
322.707
322.686
322.668
322.654
322.645
322.639
322.982
322.945
322.908
322.873
322.838
322.804
322.773
322.743
322.715
322.69
322.668
322.649
322.636
322.627
322.626
322.98
322.941
322.903
322.865
322.828
322.793
322.759
322.727
322.697
322.671
322.647
322.628
322.613
322.605
322.602
322.979
322.938
322.897
322.857
322.817
322.78
322.744
322.71
322.678
322.649
322.624
322.603
322.587
322.578
322.581
322.978
322.934
322.89
322.847
322.806
322.766
322.727
322.691
322.657
322.626
322.598
322.574
322.555
322.543
322.539
322.976
322.929
322.883
322.837
322.793
322.75
322.709
322.67
322.634
322.6
322.569
322.542
322.519
322.502
322.501
322.975
322.925
322.875
322.827
322.779
322.733
322.69
322.648
322.608
322.572
322.538
322.507
322.478
322.451
322.417
322.973
322.92
322.867
322.815
322.764
322.716
322.669
322.624
322.581
322.542
322.505
322.47
322.437
322.405
322.374
322.971
322.914
322.858
322.803
322.749
322.696
322.646
322.598
322.553
322.51
322.47
322.432
322.395
322.358
322.314
322.969
322.909
322.848
322.789
322.731
322.675
322.622
322.571
322.522
322.476
322.433
322.393
322.354
322.315
322.279
322.967
322.902
322.838
322.775
322.713
322.653
322.596
322.541
322.489
322.441
322.396
322.353
322.312
322.271
322.226
322.965
322.896
322.827
322.759
322.693
322.629
322.568
322.51
322.455
322.403
322.356
322.311
322.27
322.23
322.194
322.963
322.888
322.815
322.742
322.672
322.604
322.538
322.476
322.417
322.363
322.313
322.268
322.226
322.187
322.145
322.96
322.881
322.802
322.725
322.649
322.576
322.506
322.439
322.377
322.32
322.268
322.222
322.181
322.146
322.118
322.957
322.872
322.788
322.705
322.624
322.546
322.471
322.4
322.334
322.273
322.219
322.172
322.133
322.101
322.084
322.954
322.864
322.774
322.685
322.598
322.514
322.433
322.357
322.286
322.222
322.165
322.117
322.078
322.045
322.005
322.951
322.854
322.758
322.663
322.57
322.48
322.393
322.31
322.234
322.165
322.105
322.056
322.019
321.994
321.971
322.948
322.844
322.742
322.64
322.54
322.443
322.349
322.26
322.177
322.102
322.037
321.987
321.953
321.94
321.946
322.945
322.834
322.724
322.615
322.508
322.404
322.302
322.205
322.114
322.031
321.96
321.905
321.873
321.874
321.915
322.941
322.823
322.706
322.59
322.475
322.362
322.252
322.146
322.045
321.953
321.871
321.807
321.77
321.778
321.861
322.937
322.812
322.687
322.563
322.44
322.319
322.199
322.083
321.971
321.866
321.771
321.691
321.636
321.631
321.736
289.357
288.255
287.53
286.978
286.517
286.106
285.729
285.373
285.034
284.705
284.385
284.072
283.763
283.456
283.152
288.967
287.899
287.257
286.766
286.346
285.967
285.613
285.277
284.954
284.64
284.334
284.032
283.735
283.44
283.146
287.428
287.248
286.88
286.505
286.148
285.809
285.485
285.172
284.868
284.57
284.278
283.99
283.705
283.422
283.141
286.823
286.729
286.507
286.23
285.937
285.641
285.349
285.06
284.776
284.497
284.22
283.946
283.674
283.404
283.135
286.25
286.297
286.172
285.967
285.727
285.471
285.209
284.946
284.683
284.421
284.16
283.901
283.642
283.385
283.128
285.991
285.986
285.891
285.73
285.529
285.306
285.071
284.831
284.588
284.344
284.099
283.854
283.61
283.366
283.122
285.722
285.737
285.657
285.519
285.345
285.148
284.937
284.718
284.494
284.267
284.038
283.808
283.577
283.346
283.115
285.602
285.554
285.463
285.334
285.178
285
284.809
284.609
284.402
284.191
283.977
283.762
283.545
283.327
283.109
285.505
285.4
285.294
285.169
285.024
284.862
284.688
284.504
284.313
284.118
283.918
283.716
283.513
283.308
283.103
285.34
285.248
285.14
285.018
284.882
284.733
284.573
284.404
284.228
284.046
283.861
283.672
283.482
283.29
283.097
285.232
285.107
284.994
284.876
284.749
284.611
284.464
284.309
284.146
283.978
283.805
283.63
283.451
283.271
283.091
285.054
284.958
284.852
284.741
284.623
284.496
284.361
284.218
284.068
283.913
283.753
283.589
283.422
283.254
283.085
284.938
284.816
284.713
284.611
284.503
284.387
284.264
284.133
283.994
283.851
283.702
283.55
283.395
283.238
283.079
284.742
284.66
284.574
284.484
284.388
284.284
284.172
284.052
283.925
283.792
283.654
283.513
283.368
283.222
283.074
284.6
284.507
284.437
284.363
284.279
284.186
284.085
283.975
283.859
283.736
283.609
283.477
283.343
283.207
283.069
284.322
284.338
284.303
284.247
284.177
284.095
284.004
283.904
283.797
283.684
283.566
283.444
283.32
283.193
283.064
284.198
284.204
284.184
284.141
284.082
284.01
283.928
283.838
283.74
283.636
283.527
283.413
283.297
283.179
283.06
284.06
284.089
284.08
284.046
283.996
283.933
283.859
283.776
283.686
283.59
283.489
283.385
283.277
283.167
283.056
283.992
284.001
283.992
283.964
283.92
283.863
283.796
283.72
283.637
283.549
283.455
283.358
283.258
283.155
283.052
283.909
283.926
283.918
283.892
283.852
283.8
283.738
283.669
283.592
283.51
283.424
283.333
283.24
283.145
283.048
283.867
283.868
283.856
283.83
283.792
283.744
283.687
283.622
283.551
283.475
283.394
283.31
283.224
283.135
283.045
283.818
283.819
283.803
283.776
283.739
283.694
283.64
283.58
283.514
283.443
283.368
283.289
283.209
283.126
283.042
283.795
283.78
283.759
283.73
283.693
283.649
283.598
283.542
283.48
283.414
283.343
283.27
283.195
283.118
283.039
283.775
283.747
283.72
283.688
283.651
283.609
283.56
283.507
283.449
283.387
283.321
283.253
283.182
283.11
283.037
283.739
283.713
283.683
283.651
283.614
283.572
283.526
283.476
283.421
283.363
283.301
283.237
283.171
283.103
283.034
283.716
283.681
283.649
283.616
283.579
283.539
283.495
283.447
283.395
283.34
283.283
283.222
283.16
283.097
283.032
283.677
283.648
283.616
283.583
283.548
283.509
283.467
283.421
283.372
283.32
283.266
283.209
283.151
283.091
283.03
283.652
283.616
283.585
283.552
283.518
283.481
283.441
283.398
283.351
283.302
283.251
283.197
283.142
283.086
283.029
283.609
283.582
283.553
283.523
283.49
283.455
283.417
283.376
283.332
283.286
283.237
283.186
283.134
283.081
283.027
283.578
283.548
283.522
283.495
283.465
283.432
283.395
283.356
283.315
283.271
283.224
283.176
283.127
283.077
283.026
283.519
283.512
283.493
283.469
283.441
283.41
283.376
283.339
283.299
283.257
283.213
283.167
283.121
283.073
283.024
283.493
283.483
283.467
283.446
283.42
283.39
283.358
283.323
283.285
283.245
283.203
283.16
283.115
283.069
283.023
283.465
283.459
283.445
283.425
283.401
283.373
283.342
283.308
283.272
283.234
283.194
283.152
283.11
283.066
283.022
283.451
283.441
283.427
283.408
283.385
283.358
283.328
283.296
283.261
283.224
283.186
283.146
283.105
283.063
283.021
283.436
283.427
283.412
283.393
283.371
283.345
283.316
283.285
283.251
283.216
283.179
283.141
283.101
283.061
283.02
283.428
283.416
283.4
283.381
283.359
283.334
283.306
283.275
283.243
283.209
283.173
283.136
283.098
283.059
283.02
283.42
283.407
283.391