/*--------------------------------*- C++ -*----------------------------------*\
| =========                 |                                                 |
| \\      /  F ield         | OpenFOAM: The Open Source CFD Toolbox           |
|  \\    /   O peration     | Version:  5.x                                   |
|   \\  /    A nd           | Web:      www.OpenFOAM.org                      |
|    \\/     M anipulation  |                                                 |
\*---------------------------------------------------------------------------*/
FoamFile
{
    version     2.0;
    format      ascii;
    class       volScalarField;
    location    "9";
    object      gradTx;
}
// * * * * * * * * * * * * * * * * * * * * * * * * * * * * * * * * * * * * * //

dimensions      [0 -1 0 1 0 0 0];

internalField   nonuniform List<scalar> 
3200
(
45.2117
3.71171
1.64866
1.54012
0.814933
0.771348
0.466724
0.447268
0.293827
0.282721
0.170835
0.166692
0.180697
0.180846
0.173154
0.172312
0.15953
0.158413
0.144288
0.143105
0.128818
0.127648
0.113843
0.112748
0.100206
0.0993189
0.0901425
0.0901361
0.0950643
0.16473
0.0824862
0.055246
0.0534179
0.0416704
0.0408432
0.0332461
0.0326874
0.0269711
0.0265416
0.0219838
0.0216373
0.0178989
0.0176114
0.0144642
0.0142171
0.0114496
0.0112226
0.00856089
0.00832224
0.00520061
0.00506986
0.00506888
0.00502127
0.00395657
0.00384354
0.00219346
0.00202805
-0.000277986
-0.000515354
-0.00387251
-0.00423483
-0.00950068
-0.0101058
-0.0191783
-0.0203264
-0.0381861
-0.040859
-0.0840583
-0.0929831
-0.23884
-0.617579
-0.436422
-0.681938
-0.713312
-1.26873
-1.2431
-0.0558179
-0.00753244
-0.00152608
-52.9455
47.8961
3.10509
1.57723
1.35445
0.774043
0.680992
0.436315
0.394715
0.271787
0.248194
0.160332
0.151487
0.160987
0.161195
0.155216
0.153442
0.143359
0.140995
0.129816
0.12731
0.115995
0.113516
0.102586
0.100267
0.0903601
0.0884963
0.0814235
0.0815736
0.0883561
0.137349
0.0765876
0.0516067
0.0475356
0.038004
0.0362303
0.0301738
0.0289853
0.0244453
0.0235333
0.019917
0.0191816
0.0162161
0.0156059
0.0131092
0.0125847
0.0103882
0.00990617
0.00779195
0.00728823
0.00485193
0.00457412
0.00452868
0.00442468
0.00358424
0.00334469
0.00203613
0.00168491
-0.000147521
-0.000652088
-0.00332346
-0.0040945
-0.00829227
-0.00958249
-0.0168402
-0.0192988
-0.0337012
-0.0394913
-0.0750792
-0.0950053
-0.227185
-0.517954
-0.415043
-0.602334
-0.666929
-1.08547
-1.0318
-0.121894
-0.0209062
-0.00438827
-54.7417
50.5638
2.57632
1.45359
1.18309
0.713659
0.596701
0.397784
0.345415
0.245773
0.216238
0.146669
0.135548
0.141649
0.141791
0.137109
0.134904
0.126879
0.123929
0.114997
0.111866
0.102819
0.0997211
0.090984
0.0880887
0.0801925
0.0778821
0.0724155
0.0727458
0.0799595
0.114357
0.0692577
0.047131
0.0418718
0.0340273
0.0317885
0.0269066
0.0254172
0.0217744
0.0206333
0.0177349
0.0168152
0.0144391
0.0136759
0.0116753
0.0110192
0.00925808
0.00865497
0.00695856
0.00633151
0.00441691
0.00406908
0.0039908
0.00385754
0.00318786
0.00288858
0.0018405
0.00140101
-7.01787e-05
-0.000702157
-0.00285043
-0.0038171
-0.00720016
-0.00882049
-0.014694
-0.0177936
-0.0295607
-0.0369317
-0.0667267
-0.0925374
-0.209185
-0.434076
-0.382055
-0.527637
-0.606389
-0.921108
-0.854762
-0.155613
-0.0309011
-0.00673407
-56.5377
53.2108
2.11312
1.29587
1.01969
0.639175
0.515689
0.35339
0.298006
0.216956
0.185883
0.130667
0.118921
0.12255
0.12258
0.118903
0.116599
0.110196
0.107102
0.0999467
0.0966592
0.0894049
0.0861522
0.0791486
0.0761108
0.0698013
0.0673941
0.0631756
0.0636426
0.0704754
0.0945458
0.0610089
0.0419806
0.0363113
0.0298263
0.0274525
0.0235038
0.0219353
0.0190033
0.0178034
0.0154737
0.0145069
0.0125976
0.0117954
0.0101875
0.00949787
0.00808167
0.00744749
0.00608239
0.00542628
0.00391921
0.00355325
0.00345512
0.00331184
0.00277665
0.00246242
0.00162052
0.00115837
-2.6413e-05
-0.000691581
-0.00242466
-0.00344305
-0.00617856
-0.00788837
-0.0126588
-0.0159416
-0.0255961
-0.0334752
-0.0585335
-0.0864361
-0.186856
-0.361275
-0.341164
-0.455614
-0.53641
-0.771985
-0.703031
-0.166355
-0.0368742
-0.00833422
-58.3335
55.8364
1.70404
1.11651
0.860455
0.554411
0.436229
0.30472
0.251624
0.186139
0.156494
0.112927
0.101678
0.103594
0.103518
0.100643
0.0984572
0.0933811
0.0904378
0.0847412
0.081611
0.0758307
0.0727333
0.0671545
0.0642638
0.0592541
0.0569786
0.0537482
0.0542848
0.0603017
0.0770384
0.0521797
0.0362958
0.0307834
0.0254608
0.0231795
0.0200057
0.0185079
0.016163
0.0150188
0.0131579
0.0122363
0.0107117
0.00994712
0.00866306
0.00800559
0.00687396
0.00626923
0.00517785
0.00455508
0.00337585
0.00302669
0.00292124
0.00278181
0.0023566
0.00205736
0.00138534
0.000944633
-3.43894e-06
-0.000638295
-0.0020275
-0.00300033
-0.005198
-0.00683382
-0.0106831
-0.0138348
-0.0217026
-0.0293314
-0.0502266
-0.0774341
-0.161567
-0.296256
-0.29489
-0.384938
-0.460239
-0.635043
-0.57001
-0.160809
-0.0388097
-0.0090657
-60.1291
58.4418
1.33863
0.92388
0.703223
0.462131
0.357302
0.252914
0.205737
0.153889
0.127662
0.093894
0.0839092
0.084718
0.0845674
0.0823549
0.0804315
0.0764805
0.0738837
0.069433
0.0666687
0.0621492
0.0594136
0.0550529
0.0525015
0.0485975
0.0466012
0.0441701
0.0447078
0.0496993
0.0611949
0.0429915
0.030196
0.0252479
0.0209737
0.0189421
0.0164405
0.0151143
0.0132746
0.0122628
0.0108045
0.00998986
0.00879545
0.00811957
0.00711351
0.00653227
0.00564516
0.00511043
0.00425455
0.00370612
0.00279928
0.00249038
0.00238871
0.0022632
0.0019315
0.0016672
0.0011409
0.00075118
7.00049e-06
-0.000554841
-0.00164699
-0.00250861
-0.00423992
-0.00569075
-0.00873524
-0.0115393
-0.0178186
-0.0246571
-0.0416672
-0.0661551
-0.134256
-0.236678
-0.244959
-0.314851
-0.380089
-0.507696
-0.450756
-0.143775
-0.037055
-0.00890361
-61.9243
61.0296
1.00744
0.723491
0.546809
0.364402
0.278358
0.198819
0.160037
0.120613
0.0991314
0.0739097
0.0657083
0.0658804
0.0656994
0.0640552
0.0624868
0.0595258
0.0574037
0.0540573
0.0517967
0.0483963
0.0461589
0.0428788
0.0407932
0.0378645
0.0362412
0.0344733
0.0349525
0.0388366
0.0465393
0.0335869
0.0237824
0.0196855
0.0163969
0.0147235
0.0128283
0.0117413
0.0103531
0.00952468
0.00842539
0.00775856
0.00685842
0.00630522
0.00554696
0.00507116
0.00440225
0.00396446
0.00331895
0.0028715
0.00219878
0.00194577
0.00185712
0.00175283
0.00150369
0.00128752
0.000890989
0.0005719
1.01415e-05
-0.000450179
-0.0012757
-0.00198211
-0.00329305
-0.00448393
-0.00679704
-0.00910481
-0.0139122
-0.0195759
-0.0328087
-0.0531316
-0.105572
-0.180867
-0.192565
-0.24495
-0.297444
-0.38773
-0.341503
-0.118731
-0.0321576
-0.00790569
-63.7193
63.6031
0.701905
0.518811
0.390623
0.262818
0.199153
0.143094
0.114362
0.0866203
0.0707504
0.0532446
0.0471725
0.0470569
0.0468899
0.0457525
0.0445979
0.0425375
0.0409726
0.0386382
0.0369702
0.0345969
0.0329459
0.030657
0.0291187
0.0270794
0.025887
0.0246866
0.0250611
0.0278211
0.0327098
0.0240564
0.0171404
0.0140907
0.0117554
0.0105138
0.00918379
0.00838029
0.00740913
0.00679736
0.00602894
0.00553659
0.00490751
0.00449906
0.00396909
0.00361777
0.00315009
0.00282679
0.00237541
0.00204587
0.00158149
0.00139458
0.00132615
0.00124825
0.00107457
0.000915039
0.000637977
0.000402322
9.22123e-06
-0.000330912
-0.000909189
-0.00143143
-0.002351
-0.00323222
-0.00485906
-0.00657035
-0.00997162
-0.0141919
-0.0236667
-0.0388234
-0.0759738
-0.127599
-0.138543
-0.175045
-0.213288
-0.273224
-0.239312
-0.0882389
-0.0247673
-0.00619489
-65.514
66.1661
0.414171
0.311936
0.234423
0.158668
0.119644
0.0862751
0.0686482
0.0521525
0.0424349
0.0321221
0.0283984
0.0282355
0.0281193
0.0274505
0.0267452
0.0255293
0.0245723
0.0231925
0.022172
0.0207686
0.0197585
0.0184052
0.0174643
0.0162603
0.0155331
0.0148368
0.0150742
0.0167206
0.019422
0.0144563
0.0103438
0.00846725
0.00707012
0.0063076
0.00551818
0.00502599
0.00445082
0.00407629
0.00362145
0.00332008
0.00294776
0.00269775
0.00238408
0.00216903
0.00189215
0.00169424
0.001427
0.00122564
0.000953103
0.000838655
0.000795562
0.000747502
0.000644872
0.000547261
0.000383306
0.00023904
6.17952e-06
-0.000202122
-0.000544917
-0.000864859
-0.00141048
-0.00195069
-0.00291771
-0.00396828
-0.00599826
-0.00859774
-0.0142973
-0.0236355
-0.0457968
-0.0759583
-0.0834981
-0.105071
-0.128264
-0.162473
-0.141808
-0.0542427
-0.0155811
-0.00394243
-67.3085
68.7227
0.136906
0.104071
0.0781518
0.0530488
0.0399088
0.0288269
0.0228889
0.0174136
0.0141431
0.0107361
0.00948194
0.00941221
0.0093707
0.00914995
0.00891285
0.00851085
0.00818898
0.00773234
0.00738904
0.00692452
0.00658471
0.00613681
0.00582034
0.00542215
0.00517791
0.00494974
0.00503094
0.00557774
0.00644092
0.00482217
0.00345767
0.00282465
0.00235948
0.00210247
0.00184068
0.001675
0.00148447
0.00135844
0.00120781
0.0011064
0.000983108
0.000898988
0.000795113
0.000722751
0.000631053
0.000564454
0.000475943
0.000408251
0.000318386
0.00027987
0.000265167
0.000248931
0.000214972
0.000182135
0.000127846
7.92988e-05
2.15388e-06
-6.79538e-05
-0.00018156
-0.000289262
-0.000470172
-0.000652082
-0.000973011
-0.00132704
-0.00200212
-0.00287959
-0.00478243
-0.00793467
-0.0152997
-0.0252227
-0.0278923
-0.0350321
-0.0427993
-0.053917
-0.0469792
-0.0182904
-0.00531388
-0.00135235
-69.1028
68.7146
0.150884
0.128426
0.107467
0.0852099
0.072695
0.0607369
0.0533353
0.0448802
0.0387611
0.0310046
0.0281935
0.0283069
0.0282054
0.0273721
0.0264744
0.024959
0.0237725
0.0221288
0.0209355
0.0193795
0.0182842
0.0168977
0.0159522
0.0148074
0.0141309
0.0135412
0.0138397
0.0155194
0.0181069
0.0137296
0.0100722
0.00839279
0.00718154
0.00651519
0.00583655
0.00540342
0.00489915
0.00456086
0.00414965
0.00386832
0.00351987
0.00327784
0.00297287
0.00275555
0.00247292
0.00226019
0.00196641
0.00173055
0.00140799
0.00129521
0.00131308
0.00131491
0.00128221
0.00124364
0.00117584
0.00112168
0.00104532
0.000988642
0.000912697
0.000855861
0.000777737
0.000712228
0.000609088
0.000494997
0.000268983
-7.44113e-05
-0.00089158
-0.00243024
-0.00621654
-0.0117844
-0.0150686
-0.0220544
-0.0294893
-0.0404336
-0.0360472
-0.0140876
-0.00409757
-0.00104316
-69.8075
66.1413
0.456021
0.385217
0.322453
0.25524
0.218063
0.182029
0.160048
0.134547
0.116349
0.0928159
0.0844634
0.0849292
0.0846454
0.0821188
0.0794478
0.0748637
0.0713358
0.0663684
0.062821
0.05812
0.0548642
0.0506754
0.0478645
0.0444036
0.0423893
0.0405882
0.0414637
0.0465218
0.0545992
0.0411601
0.0301375
0.0251597
0.0215228
0.0195461
0.0174998
0.0162131
0.0146908
0.0136855
0.0124438
0.0116076
0.0105553
0.00983606
0.0089151
0.00826927
0.00741596
0.00678382
0.00589693
0.00519514
0.00421557
0.00388041
0.00393988
0.00394612
0.00384686
0.00373211
0.00352697
0.00336594
0.00313518
0.0029667
0.00273733
0.00256844
0.00233271
0.00213819
0.00182771
0.00148947
0.000811647
-0.000204279
-0.00264588
-0.00720081
-0.0185784
-0.0354446
-0.0450577
-0.0661452
-0.0883275
-0.121914
-0.108845
-0.041784
-0.0120153
-0.00304113
-69.4223
63.5606
0.771351
0.641687
0.537616
0.424069
0.363385
0.302758
0.266902
0.223922
0.19415
0.15402
0.140381
0.141582
0.141175
0.136871
0.132498
0.124726
0.118957
0.110551
0.104753
0.0968028
0.0914816
0.084398
0.0798028
0.0739419
0.0706391
0.0675281
0.0689206
0.0774034
0.0919523
0.0684939
0.049961
0.0418729
0.0357978
0.0325798
0.0291328
0.0270322
0.0244618
0.0228196
0.0207217
0.0193556
0.0175775
0.0164024
0.0148463
0.0137913
0.0123502
0.0113177
0.00982006
0.00867084
0.00699739
0.00644984
0.00656882
0.00658156
0.00641215
0.0062242
0.00587635
0.00561301
0.00522257
0.0049472
0.00455955
0.0042837
0.00388605
0.00356881
0.00304744
0.00249754
0.00136785
-0.000277109
-0.00431563
-0.0116985
-0.0307206
-0.0593949
-0.0745878
-0.110192
-0.14671
-0.20526
-0.183801
-0.0679887
-0.0191012
-0.00477884
-69.0371
60.9678
1.10395
0.897133
0.753159
0.590783
0.508704
0.422497
0.37404
0.312768
0.272365
0.214164
0.195704
0.198298
0.197861
0.191627
0.185684
0.174509
0.166683
0.15463
0.14677
0.13538
0.12817
0.118021
0.111792
0.103378
0.0988814
0.0942879
0.0960938
0.108043
0.130826
0.0956309
0.0693668
0.0585057
0.0499585
0.0456227
0.0407119
0.0378702
0.0341958
0.031972
0.0289704
0.0271201
0.0245756
0.0229839
0.0207576
0.0193288
0.0172681
0.0158701
0.0137293
0.0121675
0.00973419
0.00899262
0.00920204
0.0092243
0.0089782
0.00872271
0.00822238
0.00786517
0.00730536
0.00693222
0.00637733
0.00600385
0.00543618
0.0050076
0.00426834
0.00352881
0.00194467
-0.000254177
-0.00585158
-0.0157305
-0.0424767
-0.0838843
-0.103301
-0.154203
-0.20421
-0.291807
-0.262532
-0.0915164
-0.0248045
-0.00609893
-68.6517
58.3586
1.4613
1.15007
0.969438
0.754285
0.654189
0.540725
0.481692
0.40078
0.351292
0.272719
0.250186
0.255136
0.254779
0.24637
0.239079
0.224157
0.214579
0.198541
0.18893
0.173791
0.164975
0.151488
0.143868
0.132657
0.127128
0.120792
0.122861
0.138248
0.172018
0.122411
0.0881566
0.0750461
0.0639508
0.0586887
0.0522083
0.0487416
0.0438718
0.0411556
0.0371731
0.0349125
0.0315357
0.0295909
0.026637
0.0248917
0.0221595
0.0204524
0.0176154
0.0156992
0.0124034
0.0114974
0.0118428
0.0118778
0.0115447
0.011231
0.0105627
0.0101255
0.00938073
0.00892454
0.00818787
0.0077318
0.00698078
0.00645885
0.00548927
0.0045939
0.00254612
-9.52739e-05
-0.00721625
-0.0190878
-0.0536463
-0.109253
-0.130756
-0.198249
-0.260207
-0.383029
-0.346933
-0.110872
-0.0285875
-0.00686928
-68.2661
55.729
1.85141
1.39777
1.1871
0.913185
0.800209
0.656777
0.590218
0.487535
0.431383
0.329033
0.303568
0.312186
0.312018
0.301069
0.292779
0.273592
0.262733
0.242194
0.23131
0.211949
0.201967
0.18472
0.176089
0.16171
0.155406
0.14696
0.149097
0.167719
0.216546
0.148576
0.106101
0.0915059
0.0777099
0.0718035
0.0635843
0.0596692
0.0534617
0.0503899
0.045307
0.0427496
0.0384385
0.0362384
0.0324681
0.030494
0.02701
0.0250798
0.0214647
0.019286
0.014977
0.0139522
0.014496
0.0145461
0.0141104
0.0137536
0.0128938
0.0123981
0.0114446
0.0109281
0.00998723
0.00947158
0.00851625
0.00792804
0.00670727
0.00570512
0.00317134
0.000242849
-0.00839084
-0.0215376
-0.0639738
-0.135986
-0.15637
-0.242516
-0.313769
-0.480607
-0.439332
-0.124076
-0.0299479
-0.00699491
-67.8803
53.0763
2.28287
1.63576
1.40729
1.06565
0.947446
0.769753
0.700189
0.572428
0.513322
0.382271
0.355587
0.369588
0.369689
0.355662
0.346916
0.322694
0.311274
0.285462
0.274029
0.249731
0.239251
0.217607
0.208539
0.190439
0.183771
0.172704
0.174672
0.195982
0.265746
0.173723
0.12293
0.107934
0.0911535
0.0850109
0.0747882
0.0706886
0.0629263
0.0597047
0.05334
0.0506569
0.045257
0.0429487
0.0382275
0.0361569
0.0317985
0.0297748
0.0252566
0.0229581
0.0174193
0.0163442
0.0171689
0.0172339
0.016673
0.0162963
0.0152105
0.0146891
0.013491
0.0129487
0.0117696
0.011229
0.0100371
0.00942258
0.00791656
0.00687764
0.00381239
0.000809224
-0.00938486
-0.0228157
-0.0731182
-0.164784
-0.179354
-0.287379
-0.363508
-0.58651
-0.54269
-0.128436
-0.0284612
-0.00643104
-67.4943
50.3989
2.76484
1.85701
1.632
1.20917
1.09706
0.878404
0.812489
0.654575
0.598138
0.431334
0.405978
0.427546
0.427925
0.410044
0.401672
0.371284
0.360391
0.328155
0.317263
0.286962
0.276981
0.249991
0.24135
0.218712
0.212311
0.197928
0.199475
0.222306
0.321418
0.19722
0.138327
0.124433
0.104172
0.0983817
0.0857473
0.0818546
0.0722094
0.0691454
0.0612258
0.058673
0.051952
0.0497557
0.0438809
0.0419114
0.0364936
0.0345696
0.0289599
0.0267599
0.0196831
0.0186604
0.0198724
0.0199467
0.0192283
0.0188675
0.0175045
0.0170073
0.0155113
0.0149948
0.0135265
0.0130125
0.0115349
0.0109528
0.00910722
0.00813126
0.004451
0.00166329
-0.0102493
-0.0226189
-0.080608
-0.196666
-0.198599
-0.333517
-0.407372
-0.703085
-0.660866
-0.120223
-0.0238568
-0.0051967
-67.1081
47.6978
3.30682
2.05094
1.86463
1.34027
1.25094
0.980945
0.928468
0.732663
0.68737
0.474739
0.454493
0.486352
0.486892
0.464045
0.457308
0.419095
0.410362
0.369994
0.361274
0.323379
0.315391
0.281642
0.274722
0.246335
0.241171
0.222514
0.223426
0.24558
0.386023
0.218105
0.151925
0.141188
0.116611
0.112026
0.0963569
0.0932508
0.0812293
0.0787805
0.0688971
0.0668559
0.0584661
0.05671
0.0493782
0.0478039
0.0410491
0.0395119
0.0325268
0.0307568
0.0217048
0.0208872
0.0226214
0.0226914
0.0217694
0.0214788
0.0197641
0.0193654
0.0174924
0.0170791
0.0152453
0.0148346
0.0129969
0.0125337
0.0102631
0.00949311
0.00505397
0.00288241
-0.0110955
-0.0205973
-0.0857748
-0.233113
-0.212525
-0.382098
-0.442361
-0.833177
-0.798978
-0.0942403
-0.0161441
-0.00338665
-66.7217
44.9775
3.91823
2.20209
2.11078
1.45396
1.41205
1.07479
1.05018
0.804731
0.783294
0.510449
0.500923
0.54641
0.546794
0.517402
0.514204
0.465726
0.461598
0.410567
0.406452
0.3586
0.354832
0.312219
0.308953
0.273029
0.270571
0.246318
0.246527
0.264123
0.462962
0.234921
0.163305
0.158496
0.128251
0.126115
0.106464
0.105004
0.0898666
0.0887131
0.0762548
0.0752929
0.0647149
0.0638874
0.0546454
0.0539037
0.045396
0.0446723
0.0358852
0.0350451
0.0233972
0.023012
0.025437
0.0254758
0.0242853
0.0241472
0.0219711
0.0217826
0.0194152
0.0192202
0.0169073
0.0167139
0.014404
0.0141869
0.0113591
0.0110018
0.00556631
0.00457385
-0.0121206
-0.0163485
-0.087655
-0.276276
-0.218844
-0.435051
-0.464128
-0.980269
-0.963912
-0.0431914
-0.00581781
-0.00117779
-66.3351
44.9775
3.91823
2.20209
2.11078
1.45396
1.41205
1.07479
1.05018
0.804731
0.783294
0.51045
0.500923
0.54641
0.546795
0.517402
0.514204
0.465726
0.461598
0.410568
0.406452
0.358601
0.354832
0.31222
0.308953
0.273029
0.270571
0.246318
0.246528
0.264123
0.462963
0.234922
0.163305
0.158496
0.128252
0.126115
0.106464
0.105004
0.0898668
0.0887134
0.0762551
0.0752932
0.0647151
0.0638876
0.0546456
0.0539039
0.0453962
0.0446725
0.0358853
0.0350453
0.0233973
0.023012
0.0254371
0.0254759
0.0242854
0.0241473
0.0219712
0.0217827
0.0194153
0.0192204
0.0169074
0.016714
0.0144041
0.014187
0.0113592
0.0110019
0.00556641
0.00457395
-0.0121205
-0.0163484
-0.0876549
-0.276276
-0.218843
-0.435051
-0.464128
-0.980268
-0.96391
-0.0431913
-0.00581779
-0.00117781
-66.3351
47.6978
3.30682
2.05094
1.86463
1.34027
1.25094
0.980945
0.928468
0.732663
0.68737
0.474739
0.454493
0.486352
0.486892
0.464045
0.457308
0.419095
0.410362
0.369994
0.361274
0.323379
0.315391
0.281642
0.274722
0.246335
0.241171
0.222514
0.223426
0.245581
0.386024
0.218106
0.151925
0.141188
0.116612
0.112027
0.0963572
0.0932511
0.0812296
0.0787808
0.0688973
0.0668561
0.0584663
0.0567102
0.0493784
0.0478041
0.0410493
0.0395121
0.0325269
0.0307569
0.0217049
0.0208872
0.0226215
0.0226915
0.0217695
0.0214789
0.0197642
0.0193655
0.0174925
0.0170792
0.0152454
0.0148347
0.012997
0.0125338
0.0102632
0.00949321
0.00505408
0.00288251
-0.0110954
-0.0205972
-0.0857747
-0.233113
-0.212524
-0.382098
-0.442361
-0.833176
-0.798977
-0.0942401
-0.016144
-0.00338663
-66.7217
50.3989
2.76483
1.85701
1.632
1.20917
1.09706
0.878404
0.812489
0.654575
0.598138
0.431334
0.405978
0.427546
0.427926
0.410044
0.401672
0.371284
0.360391
0.328155
0.317264
0.286962
0.276981
0.249991
0.241351
0.218712
0.212311
0.197928
0.199475
0.222307
0.321419
0.197221
0.138328
0.124434
0.104172
0.098382
0.0857476
0.0818548
0.0722096
0.0691457
0.061226
0.0586732
0.0519522
0.0497559
0.0438811
0.0419115
0.0364938
0.0345697
0.02896
0.02676
0.0196832
0.0186604
0.0198724
0.0199468
0.0192284
0.0188676
0.0175047
0.0170074
0.0155114
0.0149949
0.0135266
0.0130126
0.011535
0.0109529
0.00910731
0.00813135
0.00445109
0.00166338
-0.0102493
-0.0226189
-0.0806079
-0.196666
-0.198599
-0.333517
-0.407372
-0.703084
-0.660865
-0.120223
-0.0238567
-0.00519664
-67.1081
53.0763
2.28287
1.63576
1.40729
1.06565
0.947446
0.769753
0.700189
0.572428
0.513322
0.382271
0.355587
0.369588
0.369689
0.355662
0.346916
0.322694
0.311274
0.285462
0.274029
0.249732
0.239251
0.217607
0.208539
0.190439
0.183771
0.172705
0.174673
0.195982
0.265747
0.173723
0.12293
0.107934
0.0911537
0.0850112
0.0747884
0.0706888
0.0629265
0.0597049
0.0533402
0.0506571
0.0452572
0.0429489
0.0382276
0.036157
0.0317986
0.0297749
0.0252567
0.0229582
0.0174193
0.0163443
0.017169
0.0172339
0.0166731
0.0162964
0.0152105
0.0146892
0.0134911
0.0129488
0.0117697
0.0112291
0.0100372
0.00942266
0.00791664
0.00687772
0.00381247
0.000809298
-0.00938479
-0.0228157
-0.0731182
-0.164784
-0.179353
-0.287378
-0.363508
-0.586509
-0.54269
-0.128435
-0.0284611
-0.00643094
-67.4943
55.729
1.85141
1.39777
1.1871
0.913184
0.800209
0.656777
0.590218
0.487535
0.431383
0.329033
0.303568
0.312186
0.312018
0.301069
0.29278
0.273592
0.262733
0.242195
0.23131
0.211949
0.201968
0.18472
0.176089
0.16171
0.155406
0.14696
0.149097
0.167719
0.216547
0.148577
0.106101
0.0915062
0.0777101
0.0718037
0.0635845
0.0596694
0.0534619
0.0503901
0.0453071
0.0427497
0.0384387
0.0362385
0.0324682
0.0304942
0.0270102
0.0250799
0.0214648
0.0192861
0.014977
0.0139522
0.014496
0.0145462
0.0141104
0.0137537
0.0128939
0.0123982
0.0114447
0.0109282
0.0099873
0.00947165
0.00851632
0.00792811
0.00670734
0.00570518
0.0031714
0.000242909
-0.00839079
-0.0215376
-0.0639738
-0.135986
-0.15637
-0.242516
-0.313769
-0.480606
-0.439331
-0.124076
-0.0299478
-0.00699478
-67.8803
58.3586
1.4613
1.15007
0.969438
0.754285
0.654189
0.540725
0.481692
0.40078
0.351292
0.272719
0.250186
0.255136
0.254779
0.24637
0.239079
0.224157
0.214579
0.198541
0.18893
0.173791
0.164975
0.151488
0.143868
0.132658
0.127128
0.120792
0.122862
0.138249
0.172019
0.122411
0.0881569
0.0750463
0.063951
0.0586889
0.0522085
0.0487417
0.0438719
0.0411557
0.0371732
0.0349126
0.0315358
0.0295911
0.0266371
0.0248918
0.0221596
0.0204524
0.0176155
0.0156992
0.0124034
0.0114974
0.0118428
0.0118779
0.0115447
0.0112311
0.0105628
0.0101255
0.00938079
0.0089246
0.00818793
0.00773186
0.00698084
0.00645891
0.00548933
0.00459395
0.00254617
-9.52278e-05
-0.00721621
-0.0190878
-0.0536463
-0.109253
-0.130755
-0.198248
-0.260207
-0.383028
-0.346933
-0.110872
-0.0285874
-0.00686914
-68.2661
60.9678
1.10395
0.897133
0.753159
0.590783
0.508704
0.422497
0.37404
0.312768
0.272365
0.214164
0.195704
0.198298
0.197861
0.191627
0.185684
0.174509
0.166683
0.15463
0.146771
0.135381
0.12817
0.118021
0.111792
0.103378
0.0988815
0.094288
0.096094
0.108043
0.130826
0.0956312
0.069367
0.0585059
0.0499586
0.0456228
0.040712
0.0378703
0.0341959
0.0319721
0.0289705
0.0271202
0.0245757
0.022984
0.0207577
0.0193289
0.0172682
0.0158702
0.0137293
0.0121676
0.00973423
0.00899265
0.00920207
0.00922434
0.00897824
0.00872275
0.00822242
0.00786522
0.00730541
0.00693227
0.00637737
0.0060039
0.00543623
0.00500765
0.00426838
0.00352885
0.00194471
-0.000254144
-0.00585156
-0.0157305
-0.0424767
-0.0838843
-0.103301
-0.154202
-0.20421
-0.291807
-0.262532
-0.0915162
-0.0248044
-0.00609879
-68.6517
63.5606
0.77135
0.641687
0.537616
0.424068
0.363385
0.302758
0.266902
0.223922
0.19415
0.15402
0.140381
0.141582
0.141175
0.136871
0.132498
0.124726
0.118957
0.110551
0.104753
0.0968028
0.0914817
0.0843981
0.0798029
0.073942
0.0706392
0.0675282
0.0689206
0.0774036
0.0919525
0.0684941
0.0499612
0.041873
0.0357979
0.0325799
0.0291328
0.0270323
0.0244619
0.0228197
0.0207218
0.0193557
0.0175776
0.0164024
0.0148464
0.0137914
0.0123502
0.0113177
0.0098201
0.00867088
0.00699742
0.00644986
0.00656884
0.00658158
0.00641218
0.00622423
0.00587639
0.00561304
0.0052226
0.00494724
0.00455959
0.00428373
0.00388608
0.00356884
0.00304747
0.00249757
0.00136787
-0.000277088
-0.00431561
-0.0116985
-0.0307206
-0.0593949
-0.0745878
-0.110192
-0.146709
-0.20526
-0.183801
-0.0679886
-0.0191011
-0.00477872
-69.0371
66.1413
0.45602
0.385217
0.322453
0.25524
0.218063
0.182029
0.160048
0.134547
0.116349
0.0928159
0.0844634
0.0849292
0.0846454
0.0821188
0.0794478
0.0748637
0.0713358
0.0663684
0.062821
0.0581201
0.0548643
0.0506754
0.0478645
0.0444037
0.0423893
0.0405882
0.0414638
0.0465218
0.0545993
0.0411602
0.0301376
0.0251597
0.0215229
0.0195461
0.0174999
0.0162132
0.0146909
0.0136855
0.0124438
0.0116077
0.0105554
0.00983609
0.00891513
0.0082693
0.00741599
0.00678385
0.00589695
0.00519516
0.00421558
0.00388042
0.00393989
0.00394613
0.00384688
0.00373212
0.00352699
0.00336596
0.0031352
0.00296672
0.00273735
0.00256846
0.00233273
0.00213821
0.00182772
0.00148949
0.000811662
-0.000204268
-0.00264587
-0.00720082
-0.0185784
-0.0354446
-0.0450577
-0.0661452
-0.0883275
-0.121914
-0.108844
-0.0417839
-0.0120152
-0.00304104
-69.4223
68.7146
0.150884
0.128426
0.107467
0.0852099
0.072695
0.0607369
0.0533353
0.0448802
0.0387611
0.0310046
0.0281935
0.0283069
0.0282054
0.0273721
0.0264744
0.024959
0.0237725
0.0221288
0.0209355
0.0193795
0.0182842
0.0168977
0.0159522
0.0148075
0.0141309
0.0135412
0.0138397
0.0155194
0.0181069
0.0137297
0.0100722
0.00839282
0.00718156
0.00651521
0.00583656
0.00540343
0.00489917
0.00456087
0.00414967
0.00386833
0.00351988
0.00327785
0.00297288
0.00275556
0.00247293
0.0022602
0.00196642
0.00173056
0.00140799
0.00129521
0.00131308
0.00131491
0.00128221
0.00124365
0.00117584
0.00112169
0.00104533
0.000988648
0.000912703
0.000855867
0.000777743
0.000712233
0.000609093
0.000495002
0.000268987
-7.4408e-05
-0.000891579
-0.00243024
-0.00621655
-0.0117844
-0.0150686
-0.0220544
-0.0294893
-0.0404335
-0.0360471
-0.0140876
-0.00409755
-0.00104312
-69.8075
68.7223
0.136738
0.103793
0.0777584
0.0524415
0.039053
0.0275024
0.021089
0.0150022
0.0125849
0.011923
0.011573
0.0110198
0.0105817
0.00996779
0.00952181
0.00893943
0.00852138
0.00797809
0.00758707
0.00707741
0.00671196
0.00623875
0.00590756
0.00549441
0.00524157
0.00500514
0.00508351
0.00563163
0.00650032
0.00486511
0.00348706
0.00284781
0.00237818
0.00211877
0.00185464
0.00168753
0.00149541
0.00136835
0.00121652
0.00111433
0.000990098
0.000905349
0.000800714
0.000727832
0.000635488
0.000568427
0.000479313
0.000411163
0.000320699
0.000281955
0.000267237
0.000250974
0.000216924
0.000183998
0.000129569
8.09163e-05
3.62758e-06
-6.65828e-05
-0.000180321
-0.000288114
-0.000469139
-0.000651128
-0.000972153
-0.00132625
-0.00200141
-0.00287892
-0.00478182
-0.00793406
-0.015299
-0.025222
-0.0278918
-0.0350317
-0.0427991
-0.0539168
-0.046979
-0.0182903
-0.00531386
-0.0013523
-69.1028
66.1648
0.413669
0.311101
0.233247
0.156847
0.117085
0.0823018
0.063254
0.0448599
0.0376843
0.0357565
0.0347271
0.0330549
0.0317521
0.0298967
0.0285709
0.0268117
0.0255691
0.0239282
0.022766
0.0212265
0.0201402
0.0187106
0.0177259
0.0164768
0.015724
0.0150028
0.0152317
0.0168821
0.0196011
0.014585
0.0104316
0.00853665
0.00712613
0.00635651
0.00556004
0.00506359
0.00448361
0.00410604
0.00364758
0.00334387
0.00296871
0.00271684
0.00240087
0.00218427
0.00190545
0.00170616
0.0014371
0.00123438
0.000960027
0.000844905
0.000801772
0.000753631
0.000650725
0.000552853
0.000388476
0.000243894
1.05991e-05
-0.000198008
-0.0005412
-0.000861415
-0.00140738
-0.00194782
-0.00291514
-0.0039659
-0.00599612
-0.00859575
-0.0142955
-0.0236337
-0.0457948
-0.0759561
-0.0834965
-0.10507
-0.128263
-0.162473
-0.141807
-0.0542425
-0.015581
-0.00394231
-67.3085
63.601
0.70107
0.517421
0.388676
0.259788
0.194919
0.136472
0.105393
0.0742688
0.0625739
0.0595541
0.057907
0.0550751
0.0529446
0.0498043
0.0476373
0.0446633
0.0426328
0.0398591
0.0379599
0.0353574
0.0335821
0.0311646
0.0295549
0.0274394
0.0262052
0.0249625
0.0253231
0.0280898
0.0330113
0.0242705
0.0172858
0.0142061
0.0118484
0.0105953
0.00925343
0.00844299
0.00746372
0.00684695
0.00607244
0.00557626
0.00494239
0.00453089
0.00399705
0.0036432
0.00317223
0.00284668
0.00239223
0.00206046
0.00159298
0.00140497
0.00133651
0.00125848
0.00108432
0.000924367
0.00064659
0.000410418
1.65815e-05
-0.000324051
-0.000903
-0.00142569
-0.00234584
-0.00322744
-0.00485478
-0.00656638
-0.00996806
-0.0141886
-0.0236636
-0.0388204
-0.0759706
-0.127595
-0.13854
-0.175044
-0.213287
-0.273224
-0.239311
-0.0882386
-0.0247672
-0.00619473
-65.514
61.0267
1.00627
0.721545
0.544112
0.360168
0.272495
0.189547
0.147533
0.102901
0.0871165
0.0832968
0.0811342
0.0770673
0.0741775
0.0696731
0.066736
0.0624772
0.0597263
0.0557551
0.0531821
0.0494552
0.0470498
0.0435863
0.0414041
0.0383667
0.0366868
0.034858
0.0353182
0.0392112
0.046968
0.0338856
0.0239838
0.0198467
0.0165266
0.0148377
0.0129256
0.0118291
0.0104293
0.00959417
0.00848617
0.00781416
0.00690717
0.00634983
0.00558602
0.00510681
0.00443319
0.00399236
0.00334244
0.00289197
0.00221476
0.00196025
0.00187162
0.00176717
0.00151735
0.00130059
0.000903036
0.000583246
2.04331e-05
-0.000440563
-0.00126705
-0.00197406
-0.00328584
-0.00447723
-0.00679106
-0.00909926
-0.0139073
-0.0195712
-0.0328045
-0.0531274
-0.105567
-0.180861
-0.192561
-0.244948
-0.297443
-0.387728
-0.341502
-0.118731
-0.0321574
-0.0079055
-63.7193
58.4381
1.33714
0.921377
0.699808
0.456696
0.349883
0.240985
0.189779
0.130378
0.11118
0.106973
0.104438
0.0990124
0.095475
0.0894791
0.0858876
0.0802307
0.0768685
0.0715951
0.0684503
0.0635002
0.0605597
0.0559567
0.0532875
0.0492397
0.0471743
0.044662
0.045176
0.0501781
0.0617582
0.0433735
0.0304512
0.0254545
0.0211394
0.0190889
0.016565
0.0152274
0.0133723
0.0123523
0.0108824
0.0100614
0.00885795
0.00817702
0.0071636
0.00657818
0.00568482
0.00514638
0.00428468
0.00373254
0.00281962
0.0025089
0.00240736
0.00228166
0.00194905
0.00168404
0.00115637
0.00076579
2.02082e-05
-0.00054246
-0.00163589
-0.00249825
-0.00423067
-0.00568213
-0.00872757
-0.0115321
-0.0178122
-0.0246511
-0.0416618
-0.0661497
-0.13425
-0.236671
-0.244955
-0.314848
-0.380087
-0.507694
-0.450754
-0.143775
-0.0370549
-0.00890342
-61.9243
55.8319
1.70224
1.11344
0.856366
0.547773
0.427353
0.290115
0.232352
0.156248
0.134645
0.130583
0.127857
0.120882
0.116871
0.109189
0.105122
0.0978925
0.0940872
0.0873499
0.0837908
0.0774648
0.0741362
0.0682498
0.065226
0.0600333
0.0576796
0.0543449
0.0548542
0.0608819
0.077747
0.0526429
0.0366016
0.0310351
0.0256616
0.0233591
0.0201571
0.0186463
0.0162819
0.0151284
0.0132527
0.012324
0.0107878
0.0100175
0.00872405
0.00806185
0.00692225
0.00631333
0.00521452
0.00458753
0.00340038
0.00304917
0.00294406
0.00280443
0.00237804
0.00207799
0.00140421
0.000962529
1.26617e-05
-0.000623131
-0.00201397
-0.00298763
-0.00518673
-0.00682327
-0.0106737
-0.013826
-0.0216948
-0.0293241
-0.05022
-0.0774275
-0.16156
-0.296247
-0.294884
-0.384934
-0.460236
-0.635041
-0.570009
-0.160809
-0.0388096
-0.00906554
-60.129
53.2056
2.11103
1.29224
1.01498
0.631323
0.505497
0.336066
0.275659
0.179938
0.157408
0.154139
0.151446
0.142633
0.138413
0.128754
0.124482
0.115417
0.111423
0.102978