/*--------------------------------*- C++ -*----------------------------------*\
| =========                 |                                                 |
| \\      /  F ield         | OpenFOAM: The Open Source CFD Toolbox           |
|  \\    /   O peration     | Version:  5.x                                   |
|   \\  /    A nd           | Web:      www.OpenFOAM.org                      |
|    \\/     M anipulation  |                                                 |
\*---------------------------------------------------------------------------*/
FoamFile
{
    version     2.0;
    format      ascii;
    class       volScalarField;
    location    "9";
    object      gradTy;
}
// * * * * * * * * * * * * * * * * * * * * * * * * * * * * * * * * * * * * * //

dimensions      [0 -1 0 1 0 0 0];

internalField   nonuniform List<scalar> 
3200
(
18.2484
8.63561
11.7295
8.31221
9.74956
8.03964
8.7938
7.79259
8.24148
7.60065
7.87605
7.51717
7.72763
7.31731
7.52955
7.13929
7.33846
6.97992
7.16167
6.83779
7.0011
6.71219
6.85725
6.60216
6.73015
6.50603
6.62027
6.42068
6.53563
6.36655
6.23144
6.31857
6.20014
6.25776
6.16566
6.21028
6.13635
6.17223
6.11215
6.14133
6.09232
6.11609
6.07619
6.09547
6.06322
6.07864
6.05312
6.06499
6.04591
6.05408
6.04302
6.04915
6.03761
6.04298
6.03408
6.03769
6.03281
6.03383
6.03453
6.03184
6.04062
6.03226
6.05363
6.0358
6.0786
6.04273
6.12649
6.0483
6.22313
6.0007
6.29312
7.10894
6.42159
7.94783
6.78063
9.89661
9.12591
9.00805
8.98371
8.97847
17.0089
9.75153
11.332
8.7762
9.54682
8.26983
8.67359
7.92513
8.16432
7.68486
7.83191
7.56403
7.67619
7.3688
7.48092
7.18857
7.29387
7.02532
7.12145
6.87886
6.96526
6.74887
6.82562
6.63457
6.70232
6.5345
6.59514
6.44587
6.50819
6.37034
6.25633
6.3042
6.21575
6.24647
6.17754
6.2012
6.14584
6.16485
6.11985
6.13531
6.09861
6.1112
6.08131
6.09152
6.06737
6.07553
6.05641
6.06269
6.0484
6.05274
6.04448
6.04773
6.03909
6.04191
6.03524
6.03714
6.03348
6.034
6.03452
6.03307
6.03963
6.03516
6.05113
6.04159
6.07355
6.05425
6.11668
6.07389
6.20334
6.07611
6.35161
6.99363
6.62345
7.76513
7.15807
9.50323
9.09974
9.00426
8.9829
8.97822
16.0596
10.5139
11.0998
9.10708
9.42593
8.43274
8.59941
8.01812
8.11586
7.74396
7.80431
7.59564
7.64148
7.40345
7.44841
7.22189
7.26419
7.05607
7.09473
6.90673
6.94147
6.77378
6.80466
6.65659
6.68388
6.5538
6.57837
6.46256
6.48871
6.37315
6.2747
6.29526
6.22657
6.23914
6.18568
6.19525
6.15233
6.16
6.12512
6.13135
6.1029
6.10798
6.08481
6.08892
6.0702
6.07349
6.05867
6.0612
6.05012
6.05189
6.04546
6.04678
6.04009
6.04122
6.03605
6.03681
6.03397
6.03417
6.03458
6.03398
6.03907
6.03723
6.04964
6.0457
6.07055
6.06249
6.11107
6.09257
6.1938
6.13542
6.39545
6.91881
6.76484
7.65241
7.41744
9.21985
9.06131
8.99754
8.98147
8.97781
15.3321
11.0309
10.9707
9.3455
9.35751
8.54926
8.55515
8.08394
8.08619
7.78577
7.78747
7.61706
7.61812
7.42678
7.42676
7.24445
7.24452
7.07696
7.07707
6.92568
6.92579
6.79074
6.79085
6.67159
6.67173
6.5669
6.56721
6.47356
6.47491
6.37527
6.28831
6.28988
6.23413
6.23444
6.1913
6.1914
6.1568
6.15685
6.12874
6.12878
6.10586
6.10588
6.08722
6.08724
6.07216
6.07217
6.06024
6.06024
6.05133
6.05136
6.04613
6.04615
6.04078
6.04077
6.03662
6.03661
6.03435
6.03433
6.03468
6.03465
6.0388
6.03874
6.04881
6.04867
6.06886
6.06846
6.10815
6.10646
6.19065
6.18198
6.42874
6.87108
6.86457
7.58458
7.59532
9.01491
9.01908
8.98893
8.97953
8.97727
14.7767
11.3784
10.9042
9.51843
9.3219
8.63321
8.52997
8.13083
8.06862
7.81549
7.77752
7.63162
7.60246
7.44247
7.41239
7.25972
7.23156
7.09114
7.06547
6.93857
6.91551
6.8023
6.78182
6.68182
6.66377
6.5758
6.55981
6.48077
6.46514
6.37689
6.29838
6.2868
6.23946
6.23149
6.1952
6.18893
6.15988
6.15483
6.13124
6.12713
6.10789
6.10454
6.08888
6.08616
6.07351
6.07133
6.06133
6.05965
6.05219
6.05105
6.04659
6.04573
6.04126
6.04049
6.03703
6.03651
6.03463
6.03448
6.0348
6.03516
6.03869
6.03983
6.04838
6.05082
6.068
6.07283
6.10689
6.11692
6.19122
6.21833
6.45422
6.84131
6.93524
7.54513
7.71684
8.86658
8.97822
8.97948
8.97732
8.97663
14.3572
11.6089
10.8742
9.64378
9.30598
8.69374
8.51663
8.16423
8.05869
7.8366
7.77188
7.64152
7.59203
7.45295
7.40294
7.27001
7.22308
7.10073
7.05791
6.94731
6.90884
6.81014
6.77597
6.68876
6.65862
6.58182
6.55493
6.48544
6.45827
6.37812
6.30577
6.28515
6.24321
6.22966
6.19789
6.18738
6.162
6.15355
6.13295
6.12608
6.10929
6.10369
6.09002
6.08548
6.07444
6.07081
6.06208
6.05928
6.05279
6.05087
6.0469
6.04546
6.04158
6.04032
6.03732
6.03647
6.03485
6.0346
6.03491
6.03554
6.03867
6.04064
6.0482
6.05238
6.06763
6.07603
6.10658
6.12481
6.19367
6.24632
6.47364
6.82327
6.98527
7.52321
7.79924
8.75978
8.94178
8.97017
8.97504
8.97597
14.0476
11.7588
10.864
9.73343
9.30104
8.73686
8.5103
8.18776
8.05342
7.85142
7.76887
7.64817
7.58518
7.45987
7.39679
7.27686
7.21763
7.10714
7.05307
6.95317
6.90458
6.81541
6.77224
6.69343
6.65533
6.58584
6.55176
6.48842
6.45352
6.37903
6.3111
6.28435
6.24582
6.22857
6.19973
6.18642
6.16344
6.15275
6.13412
6.12543
6.11024
6.10316
6.0908
6.08506
6.07508
6.07049
6.0626
6.05907
6.05321
6.05077
6.04712
6.04529
6.0418
6.04021
6.03752
6.03645
6.035
6.03471
6.03502
6.03583
6.0387
6.04121
6.04815
6.05351
6.06753
6.07835
6.10676
6.13068
6.19677
6.26733
6.48818
6.81273
7.02026
7.51176
7.85427
8.68411
8.91149
8.9618
8.97292
8.97534
13.8296
11.8529
10.8633
9.79515
9.30137
8.76648
8.5078
8.20376
8.05086
7.86146
7.76738
7.65252
7.58083
7.4643
7.39293
7.28127
7.21422
7.11129
7.05006
6.95697
6.90194
6.81883
6.76994
6.69646
6.65329
6.58844
6.54975
6.49026
6.45036
6.37968
6.31477
6.28402
6.24758
6.22793
6.20095
6.18585
6.16439
6.15228
6.13488
6.12504
6.11086
6.10284
6.09131
6.08481
6.0755
6.0703
6.06295
6.05894
6.05349
6.05071
6.04726
6.04518
6.04195
6.04015
6.03766
6.03645
6.03512
6.03479
6.0351
6.03603
6.03875
6.04161
6.04816
6.05428
6.06756
6.07996
6.10713
6.13485
6.19969
6.28233
6.49856
6.80687
7.0439
7.50627
7.8898
8.63255
8.88827
8.95499
8.97116
8.97481
13.6907
11.9076
10.8657
9.8339
9.30334
8.78505
8.50712
8.21372
8.04975
7.86769
7.76672
7.65514
7.57826
7.46692
7.39067
7.28391
7.21224
7.11377
7.04832
6.95925
6.90042
6.82088
6.76861
6.69828
6.65212
6.59
6.54858
6.49131
6.44842
6.3801
6.31708
6.28392
6.24867
6.22759
6.20169
6.18554
6.16497
6.15201
6.13535
6.12482
6.11124
6.10267
6.09162
6.08467
6.07575
6.07019
6.06316
6.05888
6.05366
6.05069
6.04734
6.04512
6.04204
6.04012
6.03774
6.03646
6.03519
6.03484
6.03515
6.03616
6.03879
6.04187
6.0482
6.05477
6.06763
6.08098
6.10747
6.13754
6.20189
6.29199
6.50527
6.80387
7.05852
7.50394
7.91096
8.60047
8.87262
8.95022
8.96989
8.97443
13.6231
11.9326
10.8677
9.85259
9.30482
8.79401
8.50706
8.2185
8.04937
7.87067
7.76648
7.65638
7.57708
7.46814
7.38963
7.28514
7.21134
7.11494
7.04753
6.96031
6.89973
6.82185
6.76801
6.69914
6.65159
6.59072
6.54803
6.49179
6.44751
6.3803
6.31819
6.28391
6.24919
6.22745
6.20204
6.1854
6.16524
6.15189
6.13557
6.12472
6.11142
6.10259
6.09177
6.0846
6.07587
6.07014
6.06326
6.05885
6.05374
6.05068
6.04738
6.04509
6.04208
6.04011
6.03778
6.03646
6.03522
6.03487
6.03518
6.03622
6.03881
6.04199
6.04822
6.055
6.06767
6.08148
6.10767
6.13887
6.20307
6.29672
6.50855
6.80262
7.06551
7.50314
7.92082
8.58509
8.86476
8.94775
8.96923
8.97423
-13.7631
-11.9576
-10.7286
-9.38941
-8.57901
-7.68717
-7.12522
-6.47334
-6.0583
-5.5762
-5.28275
-4.9571
-4.71947
-4.39092
-4.15521
-3.84347
-3.6256
-3.34435
-3.15006
-2.90187
-2.73128
-2.51437
-2.36554
-2.1765
-2.04645
-1.88045
-1.76385
-1.6098
-1.48733
-1.2996
-1.1238
-1.02515
-0.922755
-0.857385
-0.779233
-0.727078
-0.662552
-0.618996
-0.564602
-0.527764
-0.481634
-0.450384
-0.411258
-0.384815
-0.351819
-0.32969
-0.302374
-0.28447
-0.263057
-0.249842
-0.23494
-0.223964
-0.208675
-0.197659
-0.18303
-0.17278
-0.159516
-0.150342
-0.138613
-0.130565
-0.120363
-0.113444
-0.104811
-0.0991916
-0.0926267
-0.0892692
-0.0872235
-0.0906627
-0.104911
-0.138818
-0.228885
-0.374963
-0.529517
-0.815961
-1.1186
-1.6277
-1.84306
-1.90706
-1.92362
-1.92748
-13.8354
-11.9346
-10.733
-9.36827
-8.58227
-7.67397
-7.12882
-6.46387
-6.06099
-5.56866
-5.28404
-4.95358
-4.72311
-4.38721
-4.15826
-3.83971
-3.62814
-3.34088
-3.15222
-2.89877
-2.73313
-2.51165
-2.36715
-2.17415
-2.04789
-1.87848
-1.76535
-1.60854
-1.48995
-1.29912
-1.12072
-1.0253
-0.921277
-0.857898
-0.778196
-0.727575
-0.661715
-0.619431
-0.563901
-0.528137
-0.481041
-0.450701
-0.410753
-0.385078
-0.351385
-0.3299
-0.301999
-0.284612
-0.262731
-0.249911
-0.234784
-0.224138
-0.208505
-0.197804
-0.182855
-0.172902
-0.159353
-0.150445
-0.138467
-0.130652
-0.120232
-0.113513
-0.104691
-0.0992301
-0.0924991
-0.0892174
-0.0870048
-0.0902309
-0.104125
-0.136572
-0.226645
-0.374624
-0.524241
-0.815313
-1.11034
-1.63945
-1.84911
-1.90895
-1.92413
-1.92763
-13.9836
-11.8836
-10.744
-9.32398
-8.59043
-7.64626
-7.13722
-6.44392
-6.06726
-5.55282
-5.28717
-4.94607
-4.73097
-4.37923
-4.16489
-3.83169
-3.63371
-3.33346
-3.15698
-2.89216
-2.73723
-2.50586
-2.3707
-2.16913
-2.05107
-1.87425
-1.76861
-1.60576
-1.49546
-1.29815
-1.11432
-1.0258
-0.918176
-0.859068
-0.775998
-0.728685
-0.659938
-0.620399
-0.562413
-0.528966
-0.47978
-0.451404
-0.409678
-0.385664
-0.350466
-0.330367
-0.301205
-0.284935
-0.262043
-0.250073
-0.23445
-0.224512
-0.208139
-0.198121
-0.182483
-0.173168
-0.159006
-0.150672
-0.138155
-0.130844
-0.119955
-0.113667
-0.104437
-0.0993203
-0.0922343
-0.0891236
-0.0865691
-0.0893731
-0.102598
-0.132022
-0.222089
-0.37422
-0.513308
-0.814507
-1.09272
-1.66397
-1.86116
-1.91264
-1.92511
-1.92792
-14.2159
-11.7941
-10.7661
-9.25223
-8.60701
-7.60115
-7.15299
-6.41132
-6.07904
-5.52703
-5.29333
-4.93353
-4.7443
-4.36576
-4.17629
-3.81826
-3.64338
-3.32111
-3.16527
-2.88116
-2.74439
-2.49622
-2.37692
-2.16077
-2.05659
-1.86719
-1.77415
-1.60087
-1.50445
-1.29665
-1.10412
-1.02706
-0.913137
-0.861198
-0.772372
-0.730654
-0.656994
-0.622107
-0.559945
-0.530427
-0.477688
-0.452643
-0.407897
-0.3867
-0.348944
-0.331198
-0.299897
-0.285525
-0.26092
-0.250383
-0.233891
-0.225145
-0.207521
-0.198664
-0.181858
-0.17363
-0.158426
-0.151067
-0.137636
-0.131181
-0.119494
-0.11394
-0.10402
-0.09949
-0.0918112
-0.0890082
-0.0859199
-0.088099
-0.100423
-0.125046
-0.215051
-0.374338
-0.49589
-0.81462
-1.06338
-1.70346
-1.87904
-1.91788
-1.92647
-1.92833
-14.545
-11.649
-10.8077
-9.14575
-8.63803
-7.53374
-7.18051
-6.36234
-6.09962
-5.48851
-5.30453
-4.91417
-4.76522
-4.34472
-4.19443
-3.79751
-3.65895
-3.30209
-3.1787
-2.86427
-2.75601
-2.48143
-2.38702
-2.14794
-2.06553
-1.85628
-1.78291
-1.59292
-1.51789
-1.29454
-1.08929
-1.02981
-0.905622
-0.864807
-0.766865
-0.733903
-0.652503
-0.624908
-0.556173
-0.532819
-0.47449
-0.454672
-0.405176
-0.3884
-0.346623
-0.332573
-0.297913
-0.286525
-0.259236
-0.250933
-0.233022
-0.226135
-0.206553
-0.199526
-0.180892
-0.174372
-0.157535
-0.151707
-0.136838
-0.131727
-0.118789
-0.114389
-0.103389
-0.0997866
-0.091194
-0.088905
-0.0850606
-0.0864199
-0.0977569
-0.115455
-0.205243
-0.375966
-0.470585
-0.817532
-1.01838
-1.76153
-1.90238
-1.92433
-1.9281
-1.92881
-14.99
-11.4216
-10.8822
-8.9931
-8.69292
-7.43629
-7.22663
-6.29115
-6.13415
-5.43291
-5.324
-4.88515
-4.79699
-4.31289
-4.22244
-3.76643
-3.68326
-3.27375
-3.19978
-2.83914
-2.77428
-2.45944
-2.4029
-2.12884
-2.07955
-1.83993
-1.79634
-1.58037
-1.53728
-1.2917
-1.06864
-1.03514
-0.894774
-0.870704
-0.758761
-0.739093
-0.645861
-0.629358
-0.550589
-0.536612
-0.469754
-0.45789
-0.401148
-0.391101
-0.343195
-0.334775
-0.295
-0.288163
-0.256794
-0.251868
-0.231715
-0.227634
-0.205084
-0.200854
-0.179442
-0.175527
-0.156203
-0.152709
-0.135652
-0.132588
-0.117743
-0.115102
-0.102462
-0.100284
-0.0903253
-0.0888648
-0.0839939
-0.0843423
-0.094837
-0.102982
-0.192197
-0.380638
-0.435187
-0.826288
-0.951693
-1.84369
-1.93048
-1.93151
-1.92985
-1.92932
-15.5777
-11.0731
-11.0106
-8.7769
-8.78607
-7.29696
-7.3018
-6.18882
-6.19044
-5.35362
-5.35667
-4.84211
-4.84462
-4.26532
-4.26508
-3.72044
-3.72062
-3.23198
-3.23233
-2.80218
-2.80256
-2.42712
-2.42749
-2.10076
-2.10118
-1.81575
-1.81666
-1.56091
-1.56477
-1.28797
-1.04041
-1.04476
-0.879278
-0.880118
-0.746968
-0.747227
-0.636153
-0.6363
-0.542415
-0.542522
-0.462821
-0.462905
-0.395253
-0.395319
-0.338189
-0.338232
-0.290772
-0.290783
-0.253296
-0.253414
-0.229765
-0.229873
-0.202883
-0.20287
-0.177294
-0.1773
-0.15424
-0.154255
-0.133907
-0.133921
-0.11621
-0.116216
-0.101117
-0.101092
-0.0891175
-0.0889617
-0.0827192
-0.0818595
-0.0920117
-0.0872662
-0.175182
-0.390666
-0.386327
-0.845672
-0.85434
-1.95806
-1.96201
-1.9388
-1.93155
-1.92981
-16.3456
-10.5469
-11.2259
-8.47098
-8.93916
-7.09788
-7.42168
-6.04192
-6.28028
-5.24074
-5.41004
-4.7784
-4.91551
-4.19458
-4.3295
-3.65267
-3.77754
-3.17067
-3.2821
-2.74801
-2.84588
-2.37977
-2.46517
-2.05959
-2.13426
-1.78012
-1.84726
-1.53107
-1.60349
-1.28308
-1.00211
-1.06116
-0.857131
-0.894895
-0.729842
-0.759817
-0.621998
-0.647006
-0.530483
-0.551627
-0.452697
-0.470632
-0.386652
-0.401826
-0.330899
-0.343591
-0.284645
-0.294905
-0.248295
-0.255912
-0.226867
-0.233197
-0.199605
-0.20591
-0.174123
-0.179997
-0.151355
-0.156616
-0.131348
-0.135964
-0.11397
-0.117936
-0.0991706
-0.10238
-0.0874377
-0.0893029
-0.0812297
-0.0789369
-0.0897829
-0.0678445
-0.153066
-0.409486
-0.318921
-0.883083
-0.713185
-2.11642
-1.99462
-1.94544
-1.93304
-1.93022
-17.3455
-9.76156
-11.5785
-8.03616
-9.18463
-6.81221
-7.6097
-5.8303
-6.42124
-5.07952
-5.49546
-4.68394
-5.02074
-4.08962
-4.42639
-3.55283
-3.86374
-3.08062
-3.3577
-2.66856
-2.91176
-2.31037
-2.5225
-1.99922
-2.18449
-1.72764
-1.89319
-1.48569
-1.65792
-1.27661
-0.950204
-1.0881
-0.825315
-0.917787
-0.704917
-0.779122
-0.601333
-0.663376
-0.513047
-0.565537
-0.437902
-0.482437
-0.374087
-0.411779
-0.320265
-0.351817
-0.275753
-0.301304
-0.241126
-0.259878
-0.222555
-0.23812
-0.194732
-0.210474
-0.169447
-0.184076
-0.147115
-0.160199
-0.127595
-0.139072
-0.110691
-0.120565
-0.0963458
-0.104395
-0.0850863
-0.0900423
-0.0795098
-0.0754895
-0.088866
-0.0441371
-0.124101
-0.442187
-0.225325
-0.949856
-0.509105
-2.33578
-2.02433
-1.95062
-1.93414
-1.93052
-18.6491
-8.60054
-12.1459
-7.41402
-9.57126
-6.40006
-7.90113
-5.52419
-6.63984
-4.84831
-5.63031
-4.54387
-5.17701
-3.93426
-4.57202
-3.40592
-3.994
-2.94847
-3.47224
-2.5521
-3.0117
-2.20869
-2.60951
-1.91077
-2.26066
-1.65051
-1.96229
-1.41735
-1.73473
-1.26815
-0.879921
-1.13125
-0.779465
-0.953069
-0.668671
-0.808669
-0.571224
-0.688389
-0.487635
-0.58679
-0.416345
-0.500484
-0.355796
-0.427016
-0.304814
-0.364455
-0.262893
-0.311229
-0.23089
-0.266177
-0.216214
-0.245485
-0.187573
-0.217389
-0.162619
-0.190291
-0.14094
-0.165678
-0.122141
-0.143837
-0.10594
-0.124615
-0.0922823
-0.107556
-0.0818118
-0.0914487
-0.0775721
-0.0713888
-0.0903101
-0.0154787
-0.0856385
-0.496297
-0.0940845
-1.06323
-0.214321
-2.64064
-2.04451
-1.95348
-1.9347
-1.93066
18.6491
8.60054
12.1459
7.41401
9.57126
6.40006
7.90113
5.52419
6.63984
4.84831
5.63031
4.54387
5.177
3.93426
4.57202
3.40592
3.994
2.94847
3.47224
2.5521
3.0117
2.20869
2.60951
1.91077
2.26066
1.65051
1.96229
1.41734
1.73473
1.26815
0.879919
1.13125
0.779464
0.953069
0.66867
0.808668
0.571223
0.688389
0.487635
0.586789
0.416345
0.500484
0.355795
0.427016
0.304813
0.364454
0.262892
0.311229
0.23089
0.266176
0.216213
0.245485
0.187573
0.217389
0.162618
0.190291
0.14094
0.165677
0.122141
0.143837
0.10594
0.124615
0.0922822
0.107556
0.0818117
0.0914488
0.0775719
0.0713889
0.09031
0.0154788
0.0856382
0.496296
0.0940843
1.06323
0.21432
2.64063
2.0445
1.95347
1.93469
1.93065
17.3455
9.76157
11.5785
8.03616
9.18463
6.81221
7.6097
5.8303
6.42125
5.07952
5.49547
4.68394
5.02074
4.08963
4.4264
3.55283
3.86374
3.08063
3.3577
2.66856
2.91176
2.31037
2.5225
1.99923
2.18449
1.72764
1.89319
1.48569
1.65793
1.27661
0.950205
1.0881
0.825317
0.917789
0.704919
0.779124
0.601334
0.663377
0.513048
0.565539
0.437903
0.482439
0.374088
0.41178
0.320265
0.351818
0.275754
0.301305
0.241127
0.259878
0.222556
0.238121
0.194733
0.210475
0.169448
0.184077
0.147116
0.1602
0.127596
0.139073
0.110692
0.120566
0.0963464
0.104396
0.0850869
0.0900429
0.0795103
0.07549
0.0888664
0.0441375
0.124102
0.442187
0.225325
0.949856
0.509105
2.33578
2.02433
1.95062
1.93414
1.93052
16.3457
10.5469
11.2259
8.47099
8.93917
7.09789
7.42168
6.04193
6.28029
5.24075
5.41005
4.77841
4.91552
4.19459
4.32951
3.65268
3.77755
3.17067
3.28211
2.74801
2.84588
2.37978
2.46518
2.0596
2.13426
1.78012
1.84726
1.53107
1.60349
1.28308
1.00211
1.06117
0.857135
0.894899
0.729845
0.759821
0.622001
0.647009
0.530486
0.55163
0.4527
0.470635
0.386655
0.401828
0.330901
0.343593
0.284648
0.294907
0.248297
0.255914
0.226869
0.233199
0.199607
0.205911
0.174125
0.179999
0.151357
0.156617
0.13135
0.135965
0.113971
0.117937
0.0991718
0.102381
0.0874388
0.089304
0.0812308
0.078938
0.0897838
0.0678453
0.153066
0.409487
0.318921
0.883083
0.713185
2.11642
1.99462
1.94544
1.93304
1.93022
15.5777
11.0731
11.0106
8.7769
8.78608
7.29697
7.3018
6.18883
6.19045
5.35363
5.35668
4.84212
4.84462
4.26532
4.26509
3.72045
3.72063
3.23199
3.23234
2.80219
2.80257
2.42712
2.4275
2.10077
2.10119
1.81576
1.81667
1.56092
1.56478
1.28798
1.04041
1.04476
0.879282
0.880123
0.746972
0.747231
0.636157
0.636304
0.542418
0.542526
0.462824
0.462908
0.395256
0.395322
0.338192
0.338235
0.290774
0.290786
0.253298
0.253416
0.229768
0.229875
0.202885
0.202872
0.177296
0.177302
0.154242
0.154256
0.133909
0.133923
0.116212
0.116218
0.101119
0.101094
0.0891188
0.0889631
0.0827204
0.0818607
0.0920127
0.0872672
0.175183
0.390666
0.386328
0.845672
0.85434
1.95806
1.96201
1.93879
1.93155
1.9298
14.99
11.4216
10.8822
8.99311
8.69293
7.4363
7.22664
6.29116
6.13416
5.43292
5.32401
4.88516
4.797
4.3129
4.22245
3.76644
3.68326
3.27376
3.19979
2.83915
2.77429
2.45944
2.40291
2.12885
2.07956
1.83994
1.79634
1.58038
1.53729
1.29171
1.06865
1.03515
0.894779
0.870709
0.758765
0.739097
0.645865
0.629362
0.550592
0.536616
0.469758
0.457893
0.401151
0.391104
0.343198
0.334778
0.295003
0.288165
0.256797
0.25187
0.231717
0.227636
0.205086
0.200856
0.179444
0.175529
0.156205
0.152711
0.135654
0.13259
0.117745
0.115104
0.102463
0.100285
0.0903267
0.0888662
0.0839952
0.0843436
0.0948382
0.102983
0.192198
0.380639
0.435188
0.826289
0.951693
1.84369
1.93048
1.93151
1.92985
1.92932
14.545
11.649
10.8077
9.14576
8.63804
7.53375
7.18052
6.36235
6.09963
5.48852
5.30454
4.91417
4.76522
4.34473
4.19444
3.79752
3.65896
3.3021
3.17871
2.86428
2.75601
2.48144
2.38702
2.14794
2.06554
1.85628
1.78292
1.59293
1.5179
1.29454
1.0893
1.02981
0.905626
0.864812
0.766869
0.733907
0.652507
0.624912
0.556177
0.532823
0.474494
0.454675
0.405179
0.388403
0.346626
0.332576
0.297916
0.286528
0.259239
0.250935
0.233025
0.226137
0.206555
0.199528
0.180894
0.174374
0.157537
0.151709
0.13684
0.131729
0.118791
0.11439
0.10339
0.0997881
0.0911954
0.0889065
0.085062
0.0864212
0.0977581
0.115457
0.205244
0.375967
0.470586
0.817533
1.01838
1.76153
1.90238
1.92433
1.9281
1.92881
14.2159
11.7941
10.7661
9.25224
8.60702
7.60116
7.153
6.41132
6.07905
5.52703
5.29334
4.93354
4.74431
4.36576
4.1763
3.81827
3.64339
3.32111
3.16528
2.88117
2.74439
2.49622
2.37693
2.16078
2.0566
1.8672
1.77416
1.60088
1.50445
1.29665
1.10412
1.02707
0.913142
0.861203
0.772376
0.730658
0.656998
0.622111
0.559948
0.530431
0.477691
0.452646
0.4079
0.386703
0.348947
0.331201
0.2999
0.285527
0.260923
0.250386
0.233893
0.225148
0.207523
0.198666
0.18186
0.173632
0.158429
0.151069
0.137638
0.131183
0.119496
0.113942
0.104022
0.0994916
0.0918127
0.0890096
0.0859212
0.0881003
0.100424
0.125047
0.215053
0.374339
0.495891
0.814621
1.06338
1.70346
1.87904
1.91788
1.92647
1.92833
13.9836
11.8836
10.744
9.32398
8.59043
7.64627
7.13723
6.44393
6.06726
5.55282
5.28718
4.94608
4.73098
4.37924
4.1649
3.8317
3.63372
3.33347
3.15698
2.89217
2.73724
2.50586
2.37071
2.16913
2.05107
1.87426
1.76861
1.60576
1.49546
1.29816
1.11433
1.0258
0.918181
0.859072
0.776002
0.728689
0.659942
0.620403
0.562416
0.52897
0.479783
0.451407
0.409681
0.385667
0.350469
0.330369
0.301208
0.284938
0.262046
0.250076
0.234453
0.224514
0.208142
0.198123
0.182485
0.17317
0.159008
0.150674
0.138157
0.130846
0.119957
0.113669
0.104439
0.0993218
0.0922357
0.089125
0.0865705
0.0893743
0.102599
0.132023
0.222091
0.374221
0.513309
0.814508
1.09272
1.66397
1.86116
1.91264
1.92511
1.92792
13.8354
11.9346
10.733
9.36828
8.58228
7.67398
7.12883
6.46388
6.06099
5.56867
5.28405
4.95359
4.72312
4.38722
4.15827
3.83972
3.62815
3.34089
3.15223
2.89877
2.73314
2.51166
2.36715
2.17415
2.0479
1.87848
1.76536
1.60855
1.48995
1.29913
1.12073
1.0253
0.921282
0.857903
0.7782
0.727579
0.661719
0.619435
0.563905
0.528141
0.481044
0.450704
0.410756
0.385081
0.351388
0.329902
0.302002
0.284615
0.262733
0.249913
0.234786
0.22414
0.208507
0.197806
0.182858
0.172904
0.159355
0.150447
0.138468
0.130654
0.120234
0.113515
0.104692
0.0992316
0.0925005
0.0892188
0.0870061
0.0902322
0.104126
0.136573
0.226647
0.374626
0.524243
0.815314
1.11034
1.63945
1.84911
1.90895
1.92413
1.92763
13.7631
11.9576
10.7286
9.38942
8.57901
7.68717
7.12522
6.47335
6.05831
5.57621
5.28276
4.95711
4.71947
4.39093
4.15522
3.84347
3.62561
3.34436
3.15007
2.90187
2.73128
2.51438
2.36554
2.17651
2.04646
1.88045
1.76386
1.60981
1.48734
1.2996
1.12381
1.02515
0.92276
0.857389
0.779237
0.727082
0.662555
0.618999
0.564605
0.527767
0.481637
0.450387
0.411261
0.384817
0.351821
0.329693
0.302377
0.284473
0.26306
0.249844
0.234942
0.223966
0.208677
0.197661
0.183032
0.172782
0.159517
0.150344
0.138615
0.130567
0.120364
0.113445
0.104812
0.0991929
0.092628
0.0892705
0.0872248
0.0906639
0.104912
0.138819
0.228887
0.374964
0.529518
0.815962
1.1186
1.6277
1.84306
1.90706
1.92362
1.92748
-13.6266
-11.9376
-10.8745
-9.86312
-9.31951
-8.81668
-8.53882
-8.26766
-8.1171
-7.96834
-7.86576
-7.72995
-7.63426
-7.50957
-7.42259
-7.31025
-7.23213
-7.1315
-7.06167
-6.97196
-6.90991
-6.83044
-6.77565
-6.7057
-6.65748
-6.59584
-6.55265
-6.4958
-6.45107
-6.38323
-6.32057
-6.28598
-6.25097
-6.22906
-6.20345
-6.18668
-6.16638
-6.15293
-6.13648
-6.12556
-6.11216
-6.10327
-6.09237
-6.08515
-6.07636
-6.07059
-6.06366
-6.05922
-6.05407
-6.05099
-6.04767
-6.04536
-6.04233
-6.04034
-6.03799
-6.03665
-6.0354
-6.03503
-6.03533
-6.03635
-6.03893
-6.0421
-6.04832
-6.05509
-6.06775
-6.08155
-6.10774
-6.13893
-6.20313
-6.29677
-6.5086
-6.80266
-7.06554
-7.50317
-7.92085
-8.58511
-8.86478
-8.94778
-8.96925
-8.97425
-13.6941
-11.9126
-10.8725
-9.84441
-9.31788
-8.80768
-8.53855
-8.26283
-8.11703
-7.9665
-7.86709
-7.72834
-7.63542
-7.50806
-7.4236
-7.30888
-7.23302
-7.13026
-7.06247
-6.97086
-6.9106
-6.82946
-6.77625
-6.70483
-6.65802
-6.5951
-6.5532
-6.49532
-6.452
-6.38303
-6.31944
-6.286
-6.25045
-6.22921
-6.2031
-6.18683
-6.1661
-6.15305
-6.13626
-6.12565
-6.11198
-6.10335
-6.09222
-6.08522
-6.07624
-6.07064
-6.06356
-6.05925
-6.05399
-6.051
-6.04763
-6.04539
-6.04228
-6.04035
-6.03795
-6.03665
-6.03536
-6.035
-6.0353
-6.03629
-6.03891
-6.04198
-6.04829
-6.05486
-6.06771
-6.08106
-6.10754
-6.13761
-6.20195
-6.29204
-6.50531
-6.8039
-7.05855
-7.50396
-7.91099
-8.6005
-8.87265
-8.95024
-8.96991
-8.97445
-13.8329
-11.8579
-10.8699
-9.80563
-9.31559
-8.78903
-8.53855
-8.25281
-8.11715
-7.9626
-7.86999
-7.7249
-7.63795
-7.50484
-7.42582
-7.30596
-7.235
-7.12763
-7.06421
-6.9685
-6.91213
-6.82735
-6.77759
-6.70297
-6.65919
-6.59352
-6.55438
-6.49425
-6.45395
-6.3826
-6.31711
-6.2861
-6.24935
-6.22955
-6.20235
-6.18714
-6.16552
-6.15332
-6.13579
-6.12588
-6.1116
-6.10352
-6.09191
-6.08536
-6.07598
-6.07075
-6.06334
-6.05932
-6.05382
-6.05103
-6.04754
-6.04545
-6.0422
-6.04038
-6.03786
-6.03664
-6.03529
-6.03495
-6.03524
-6.03616
-6.03887
-6.04172
-6.04826
-6.05437
-6.06764
-6.08004
-6.1072
-6.13491
-6.19974
-6.28238
-6.49861
-6.80691
-7.04393
-7.5063
-7.88982
-8.63258
-8.8883
-8.95502
-8.97118
-8.97483
-14.0508
-11.7637
-10.8704
-9.74389
-9.31477
-8.75935
-8.53995
-8.23678
-8.11802
-7.95623
-7.87499
-7.71914
-7.64233
-7.49945
-7.42968
-7.30108
-7.23843
-7.12324
-7.06725
-6.96456
-6.9148
-6.82385
-6.77991
-6.69988
-6.66125
-6.59088
-6.5564
-6.49239
-6.45714
-6.38194
-6.3134
-6.28643
-6.24758
-6.23019
-6.20112
-6.18772
-6.16456
-6.1538
-6.13502
-6.12627
-6.11097
-6.10384
-6.09139
-6.08561
-6.07556
-6.07094
-6.063
-6.05944
-6.05354
-6.05108
-6.0474
-6.04556
-6.04205
-6.04044
-6.03772
-6.03665
-6.03518
-6.03487
-6.03516
-6.03596
-6.03882
-6.04132
-6.04825
-6.0536
-6.06761
-6.07843
-6.10683
-6.13074
-6.19682
-6.26738
-6.48822
-6.81277
-7.02029
-7.51179
-7.85429
-8.68414
-8.91151
-8.96182
-8.97295
-8.97536
-14.3601
-11.6137
-10.8803
-9.65424
-9.31899
-8.71622
-8.5447
-8.21338
-8.12061
-7.94664
-7.88297
-7.71021
-7.64936
-7.49113
-7.43589
-7.29356
-7.24396
-7.11648
-7.07216
-6.9585
-6.91911
-6.81846
-6.78368
-6.69514
-6.66457
-6.58681
-6.55961
-6.48937
-6.46193
-6.38102
-6.30803
-6.28723
-6.24494
-6.23129
-6.19927
-6.18868
-6.16311
-6.1546
-6.13385
-6.12693
-6.11001
-6.10438
-6.09061
-6.08604
-6.07492
-6.07126
-6.06248
-6.05966
-6.05312
-6.05118
-6.04719
-6.04574
-6.04183
-6.04055
-6.03752
-6.03666
-6.03502
-6.03477
-6.03505
-6.03568
-6.03879
-6.04075
-6.04829
-6.05248
-6.06771
-6.07611
-6.10664
-6.12488
-6.19372
-6.24638
-6.47369
-6.8233
-6.9853
-7.52323
-7.79927
-8.7598
-8.9418
-8.97019
-8.97506
-8.97599
-14.7792
-11.3833
-10.9098
-9.52897
-9.33392
-8.65583
-8.55585
-8.18043
-8.12645
-7.93263
-7.89531
-7.6968
-7.66027
-7.4787
-7.44558
-7.28232
-7.25261
-7.10639
-7.07983
-6.94948
-6.92588
-6.81043
-6.7896
-6.68807
-6.66978
-6.58071
-6.56453
-6.48465
-6.46885
-6.37978
-6.30057
-6.28889
-6.24116
-6.23313
-6.19656
-6.19025
-6.16097
-6.15589
-6.13212
-6.12798
-6.10861
-6.10523
-6.08946
-6.08672
-6.07398
-6.07179
-6.06171
-6.06002
-6.05251
-6.05136
-6.04687
-6.04601
-6.0415
-6.04072
-6.03723
-6.03671
-6.0348
-6.03464
-6.03494
-6.0353
-6.0388
-6.03995
-6.04848
-6.05091
-6.06808
-6.07291
-6.10695
-6.11699
-6.19127
-6.21838
-6.45426
-6.84135
-6.93527
-7.54516
-7.71687
-8.8666
-8.97824
-8.9795
-8.97734
-8.97665
-15.3342
-11.0359
-10.9756
-9.35626
-9.36816
-8.57233
-8.57801
-8.13462
-8.13788
-7.91236
-7.9141
-7.67692
-7.67699
-7.46033
-7.46048
-7.26575
-7.26591
-7.09152
-7.09166
-6.93618
-6.93631
-6.79862
-6.79875
-6.67768
-6.67782
-6.57169
-6.572
-6.47735
-6.47871
-6.37814
-6.29041
-6.292
-6.23579
-6.23611
-6.19263
-6.19273
-6.15787
-6.15792
-6.12961
-6.12964
-6.10656
-6.10659
-6.08779
-6.08781
-6.07262
-6.07264
-6.06062
-6.06062
-6.05165
-6.05168
-6.04641
-6.04643
-6.04102
-6.04101
-6.03682
-6.03681
-6.03451
-6.0345
-6.03482
-6.03479
-6.03891
-6.03885
-6.0489
-6.04876
-6.06894
-6.06854
-6.10822
-6.10653
-6.19071
-6.18203
-6.42878
-6.87112
-6.8646
-7.58461
-7.59534
-9.01493
-9.0191
-8.98895
-8.97956
-8.97729
-16.0612
-10.519
-11.1038
-9.1183
-9.43472
-8.45676
-8.61813
-8.07095
-8.15846
-7.88301
-7.94245
-7.64754
-7.70238
-7.43328
-7.48317
-7.24138
-7.2862
-7.06966
-7.10971
-6.91666
-6.95226
-6.7813
-6.81274
-6.66243
-6.69011
-6.55841
-6.58327
-6.46622
-6.49264
-6.37598
-6.27667
-6.29741
-6.22817
-6.24084
-6.18696
-6.19661
-6.15337
-6.16109
-6.12596
-6.13223
-6.10358
-6.10869
-6.08536
-6.0895
-6.07065
-6.07396
-6.05904
-6.06158
-6.05043
-6.05221
-6.04573
-6.04707
-6.04032
-6.04146
-6.03625
-6.03701
-6.03414
-6.03434
-6.03471
-6.03412
-6.03918
-6.03735
-6.04973
-6.0458
-6.07062
-6.06257
-6.11114
-6.09264
-6.19385
-6.13547
-6.39549
-6.91884
-6.76487
-7.65243
-7.41747
-9.21987
-9.06133
-8.99757
-8.98149
-8.97784
-17.0098
-9.75705
-11.3348
-8.78826
-9.55305
-8.29562
-8.6866
-7.98189
-8.19356
-7.84025
-7.98497
-7.60417
-7.74072
-7.39347
-7.51752
-7.20555
-7.31694
-7.03754
-7.13709
-6.88799
-6.97647
-6.75588
-6.834
-6.64007
-6.70878
-6.53887
-6.60022
-6.44935
-6.5123
-6.37314
-6.25814
-6.30643
-6.21726
-6.24823
-6.17876
-6.2026
-6.14683
-6.16598
-6.12065
-6.13622
-6.09926
-6.11193
-6.08184
-6.09212
-6.0678
-6.07602
-6.05676
-6.06309
-6.04869
-6.05306
-6.04475
-6.04803
-6.03931
-6.04216
-6.03543
-6.03735
-6.03363
-6.03418
-6.03465
-6.03321
-6.03973
-6.03528
-6.05122
-6.04168
-6.07363
-6.05433
-6.11674
-6.07395
-6.20339
-6.07617
-6.35165
-6.99366
-6.62348
-7.76516
-7.15809
-9.50325
-9.09977
-9.00428
-8.98292
-8.97824
-18.2484
-8.6418
-11.7307
-8.32571
-9.7522
-8.06849
-8.79883
-7.85612
-8.2512
-7.77752
-8.04846
-7.54006
-7.79836
-7.33476
-7.56927
-7.15272
-7.36326
-6.99021
-7.17836
-6.84577
-7.01299
-6.71846
-6.86609
-6.60715
-6.73694
-6.51004
-6.62561
-6.42389
-6.54
-6.36929
-6.23303
-6.32091
-6.20152
-6.2596
-6.16679
-6.21175
-6.13726
-6.17341
-6.11289
-6.14228
-6.09293
-6.11687
-6.07668
-6.0961
-6.06362
-6.07915
-6.05345
-6.06541
-6.04619
-6.05442
-6.04328
-6.04945
-6.03783
-6.04324
-6.03426
-6.0379
-6.03295
-6.03401
-6.03465
-6.03199
-6.04072
-6.03238
-6.05371
-6.0359
-6.07867
-6.04282
-6.12654
-6.04837
-6.22318
-6.00076
-6.29316
-7.10896
-6.42163
-7.94785
-6.78066
-9.89663
-9.12593
-9.00807
-8.98374
-8.9785
)
;

boundaryField
{
    F1_1
    {
        type            calculated;
        value           nonuniform List<scalar> 
80
(
18.9506
7.97331
11.9791
8.04083
9.87579
7.90457
8.86783
7.71456
8.2887
7.55109
7.90312
7.48916
7.75833
7.28653
7.55868
7.10988
7.3652
6.95284
7.18582
6.8133
7.02262
6.69032
6.87625
6.58284
6.74686
6.48905
6.63532
6.40553
6.55168
6.36435
6.21712
6.32737
6.19089
6.26459
6.15861
6.21576
6.1307
6.17668
6.10756
6.14495
6.08858
6.11904
6.07314
6.09785
6.06076
6.08052
6.05116
6.06639
6.04444
6.0549
6.04215
6.04999
6.03674
6.04362
6.03339
6.03802
6.03242
6.03373
6.03455
6.03112
6.04124
6.03056
6.05519
6.03241
6.08174
6.036
6.13267
6.03347
6.23617
5.95848
6.25959
7.17871
6.30273
8.06044
6.55697
10.1255
9.13461
9.0091
8.98396
8.97857
)
;
    }
    F1_2
    {
        type            calculated;
        value           nonuniform List<scalar> 
80
(
-19.3872
-7.90895
-12.4949
-7.0474
-9.8072
-6.15643
-8.078
-5.34309
-6.77255
-4.71202
-5.71273
-4.46024
-5.27043
-3.8416
-4.65948
-3.31849
-4.07239
-2.86989
-3.54124
-2.4829
-3.07194
-2.14829
-2.66197
-1.85822
-2.30657
-1.60463
-2.00382
-1.37635
-1.77973
-1.26338
-0.839504
-1.15775
-0.752393
-0.974464
-0.647207
-0.826546
-0.553384
-0.703518
-0.47258
-0.599645
-0.403577
-0.511404
-0.344967
-0.436243
-0.295675
-0.372117
-0.255301
-0.31727