/*--------------------------------*- C++ -*----------------------------------*\
| =========                 |                                                 |
| \\      /  F ield         | OpenFOAM: The Open Source CFD Toolbox           |
|  \\    /   O peration     | Version:  5.x                                   |
|   \\  /    A nd           | Web:      www.OpenFOAM.org                      |
|    \\/     M anipulation  |                                                 |
\*---------------------------------------------------------------------------*/
FoamFile
{
    version     2.0;
    format      ascii;
    class       volScalarField;
    location    "6.6";
    object      T;
}
// * * * * * * * * * * * * * * * * * * * * * * * * * * * * * * * * * * * * * //

dimensions      [0 0 0 1 0 0 0];

internalField   nonuniform List<scalar> 
6300
(
322.842
322.526
322.209
321.89
321.569
321.244
320.916
320.584
320.246
319.904
319.556
319.202
318.842
318.477
318.105
322.842
322.527
322.211
321.892
321.572
321.248
320.92
320.588
320.252
319.909
319.562
319.208
318.848
318.483
318.111
322.843
322.529
322.214
321.897
321.578
321.255
320.929
320.598
320.262
319.921
319.573
319.22
318.86
318.495
318.122
322.844
322.532
322.219
321.905
321.587
321.267
320.942
320.613
320.278
319.938
319.591
319.238
318.879
318.513
318.14
322.846
322.537
322.227
321.915
321.6
321.282
320.96
320.632
320.3
319.961
319.616
319.263
318.904
318.537
318.163
322.848
322.542
322.236
321.927
321.616
321.301
320.982
320.658
320.327
319.991
319.647
319.295
318.936
318.569
318.194
322.85
322.549
322.247
321.943
321.636
321.325
321.01
320.689
320.362
320.028
319.686
319.335
318.976
318.608
318.231
322.852
322.557
322.26
321.961
321.659
321.353
321.043
320.726
320.403
320.072
319.733
319.384
319.025
318.656
318.276
322.856
322.566
322.275
321.983
321.687
321.387
321.082
320.771
320.452
320.126
319.789
319.442
319.084
318.714
318.331
322.859
322.577
322.293
322.007
321.718
321.425
321.127
320.822
320.51
320.189
319.857
319.513
319.155
318.783
318.397
322.863
322.588
322.312
322.034
321.753
321.468
321.178
320.881
320.577
320.262
319.936
319.596
319.241
318.868
318.477
322.867
322.601
322.334
322.065
321.793
321.517
321.236
320.948
320.653
320.347
320.029
319.696
319.344
318.972
318.575
322.872
322.615
322.358
322.099
321.836
321.571
321.3
321.024
320.739
320.445
320.137
319.813
319.468
319.099
318.7
322.877
322.631
322.383
322.135
321.884
321.629
321.371
321.107
320.836
320.555
320.262
319.951
319.617
319.255
318.86
322.882
322.647
322.411
322.173
321.934
321.692
321.447
321.197
320.942
320.678
320.403
320.112
319.795
319.444
319.055
317.76
317.441
317.12
316.795
316.467
316.135
315.802
315.465
315.127
314.786
314.444
314.1
313.754
313.408
313.06
312.712
312.363
312.014
311.665
311.317
310.968
310.62
310.272
309.924
309.577
309.23
308.883
308.537
308.192
307.847
307.503
307.159
306.816
306.475
306.134
305.794
305.455
305.117
304.78
304.443
304.108
303.773
303.439
303.106
302.774
302.442
302.112
301.782
301.454
301.127
300.8
300.475
300.151
299.828
299.505
299.183
298.863
298.543
298.224
297.905
297.588
297.271
296.956
296.641
296.328
296.015
295.703
295.392
295.082
294.773
294.465
294.157
293.85
293.543
293.237
292.932
292.627
292.323
292.02
291.717
291.414
291.112
290.809
290.507
290.204
289.901
289.597
289.292
288.987
288.681
317.765
317.447
317.125
316.799
316.471
316.139
315.805
315.469
315.13
314.789
314.446
314.102
313.756
313.409
313.061
312.712
312.364
312.014
311.665
311.316
310.968
310.619
310.271
309.924
309.576
309.229
308.883
308.537
308.191
307.846
307.501
307.158
306.815
306.473
306.132
305.792
305.453
305.115
304.778
304.442
304.107
303.772
303.438
303.105
302.772
302.441
302.11
301.781
301.452
301.125
300.799
300.474
300.149
299.826
299.504
299.182
298.862
298.542
298.222
297.904
297.587
297.27
296.954
296.64
296.326
296.014
295.702
295.391
295.081
294.772
294.464
294.156
293.849
293.542
293.236
292.931
292.626
292.322
292.019
291.716
291.414
291.111
290.809
290.507
290.205
289.902
289.598
289.294
288.988
288.682
317.776
317.457
317.134
316.808
316.479
316.147
315.812
315.475
315.136
314.794
314.451
314.106
313.759
313.411
313.063
312.714
312.364
312.014
311.665
311.316
310.967
310.618
310.27
309.922
309.575
309.228
308.881
308.535
308.189
307.844
307.499
307.155
306.812
306.47
306.129
305.79
305.451
305.113
304.776
304.44
304.104
303.77
303.435
303.102
302.77
302.438
302.107
301.778
301.449
301.122
300.796
300.471
300.147
299.824
299.501
299.18
298.859
298.539
298.22
297.901
297.584
297.267
296.951
296.637
296.323
296.011
295.699
295.389
295.079
294.77
294.462
294.154
293.847
293.541
293.235
292.929
292.625
292.321
292.017
291.715
291.413
291.111
290.81
290.508
290.206
289.904
289.601
289.296
288.991
288.684
317.792
317.473
317.149
316.822
316.492
316.159
315.823
315.485
315.145
314.802
314.458
314.112
313.764
313.415
313.066
312.715
312.365
312.014
311.664
311.314
310.965
310.617
310.269
309.921
309.573
309.226
308.88
308.533
308.187
307.841
307.496
307.152
306.808
306.466
306.125
305.785
305.447
305.109
304.772
304.436
304.101
303.766
303.432
303.099
302.766
302.434
302.103
301.773
301.444
301.117
300.791
300.466
300.143
299.82
299.498
299.177
298.856
298.536
298.216
297.898
297.58
297.263
296.947
296.632
296.319
296.007
295.695
295.385
295.076
294.767
294.459
294.152
293.844
293.538
293.232
292.926
292.622
292.318
292.015
291.713
291.411
291.111
290.81
290.509
290.209
289.907
289.604
289.301
288.995
288.689
317.815
317.494
317.169
316.84
316.508
316.174
315.837
315.498
315.156
314.813
314.467
314.12
313.771
313.42
313.069
312.717
312.365
312.014
311.663
311.312
310.963
310.614
310.266
309.919
309.571
309.224
308.877
308.53
308.184
307.837
307.491
307.146
306.803
306.46
306.119
305.779
305.441
305.104
304.768
304.432
304.097
303.762
303.428
303.094
302.761
302.428
302.097
301.766
301.438
301.11
300.785
300.46
300.137
299.815
299.493
299.172
298.852
298.531
298.212
297.893
297.574
297.257
296.941
296.626
296.313
296.001
295.69
295.38
295.071
294.763
294.456
294.148
293.841
293.534
293.228
292.922
292.618
292.314
292.011
291.71
291.409
291.11
290.81
290.511
290.212
289.911
289.61
289.307
289.002
288.695
317.843
317.52
317.193
316.863
316.529
316.193
315.855
315.514
315.171
314.826
314.479
314.13
313.779
313.427
313.073
312.719
312.366
312.012
311.66
311.309
310.959
310.611
310.263
309.916
309.569
309.222
308.875
308.527
308.18
307.832
307.485
307.139
306.795
306.452
306.111
305.771
305.434
305.097
304.762
304.427
304.092
303.757
303.423
303.088
302.754
302.421
302.089
301.758
301.429
301.102
300.776
300.453
300.13
299.809
299.488
299.167
298.847
298.526
298.206
297.886
297.567
297.249
296.933
296.618
296.304
295.993
295.683
295.374
295.066
294.759
294.452
294.144
293.837
293.53
293.223
292.917
292.612
292.308
292.006
291.705
291.406
291.108
290.811
290.514
290.216
289.918
289.618
289.316
289.011
288.704
317.878
317.553
317.223
316.889
316.554
316.215
315.875
315.533
315.189
314.843
314.494
314.143
313.79
313.435
313.078
312.721
312.365
312.01
311.656
311.304
310.954
310.606
310.259
309.913
309.567
309.22
308.873
308.525
308.176
307.827
307.478
307.131
306.785
306.441
306.1
305.761
305.425
305.089
304.755
304.421
304.087
303.753
303.418
303.082
302.747
302.412
302.078
301.747
301.417
301.09
300.766
300.443
300.122
299.802
299.482
299.162
298.842
298.521
298.2
297.879
297.559
297.24
296.922
296.607
296.294
295.983
295.674
295.367
295.06
294.754
294.447
294.141
293.833
293.526
293.218
292.911
292.605
292.301
291.998
291.698
291.401
291.105
290.81
290.516
290.222
289.926
289.629
289.328
289.024
288.717
317.92
317.591
317.257
316.92
316.581
316.24
315.899
315.555
315.21
314.863
314.513
314.16
313.803
313.444
313.084
312.723
312.363
312.004
311.649
311.296
310.947
310.6
310.255
309.91
309.565
309.22
308.872
308.523
308.172
307.82
307.469
307.119
306.771
306.427
306.086
305.748
305.413
305.08
304.748
304.416
304.083
303.749
303.413
303.076
302.738
302.401
302.066
301.732
301.402
301.075
300.752
300.431
300.112
299.794
299.476
299.158
298.838
298.516
298.194
297.871
297.549
297.227
296.909
296.593
296.28
295.97
295.663
295.358
295.054
294.749
294.444
294.138
293.83
293.521
293.212
292.903
292.595
292.29
291.987
291.689
291.393
291.1
290.809
290.519
290.23
289.938
289.644
289.346
289.043
288.734
317.97
317.636
317.296
316.954
316.611
316.267
315.924
315.58
315.235
314.887
314.536
314.18
313.82
313.457
313.09
312.723
312.357
311.995
311.637
311.284
310.935
310.591
310.249
309.908
309.566
309.221
308.874
308.523
308.169
307.814
307.458
307.104
306.754
306.408
306.067
305.731
305.399
305.069
304.741
304.412
304.081
303.747
303.41
303.07
302.729
302.388
302.049
301.713
301.382
301.056
300.734
300.416
300.101
299.786
299.471
299.155
298.836
298.513
298.189
297.862
297.536
297.212
296.891
296.574
296.262
295.954
295.65
295.348
295.047
294.745
294.442
294.137
293.828
293.517
293.205
292.892
292.582
292.275
291.972
291.674
291.381
291.092
290.807
290.523
290.239
289.954
289.665
289.37
289.069
288.759
318.029
317.687
317.34
316.99
316.641
316.294
315.949
315.607
315.263
314.917
314.565
314.207
313.843
313.472
313.097
312.721
312.348
311.979
311.618
311.265
310.919
310.579
310.242
309.906
309.569
309.227
308.88
308.528
308.169
307.807
307.445
307.084
306.729
306.381
306.041
305.708
305.381
305.057
304.734
304.41
304.082
303.749
303.411
303.067
302.72
302.373
302.028
301.688
301.355
301.03
300.711
300.398
300.088
299.779
299.469
299.156
298.837
298.514
298.185
297.854
297.522
297.192
296.867
296.548
296.237
295.932
295.633
295.336
295.041
294.744
294.444
294.139
293.83
293.515
293.197
292.879
292.564
292.253
291.949
291.652
291.363
291.08
290.802
290.526
290.251
289.975
289.693
289.405
289.106
288.795
318.1
317.747
317.386
317.025
316.667
316.317
315.973
315.634
315.295
314.953
314.604
314.244
313.874
313.494
313.106
312.716
312.33
311.953
311.588
311.235
310.894
310.561
310.234
309.907
309.578
309.241
308.896
308.54
308.174
307.802
307.427
307.057
306.695
306.344
306.005
305.677
305.358
305.043
304.73
304.414
304.091
303.76
303.419
303.069
302.712
302.354
301.999
301.653
301.317
300.993
300.68
300.374
300.074
299.774
299.472
299.164
298.847
298.521
298.187
297.846
297.503
297.164
296.833
296.513
296.203
295.903
295.611
295.324
295.037
294.748
294.453
294.15
293.838
293.517
293.191
292.863
292.539
292.222
291.916
291.62
291.336
291.061
290.793
290.529
290.266
290.002
289.733
289.454
289.159
288.847
318.188
317.817
317.434
317.053
316.684
316.33
315.99
315.661
315.333
315
314.656
314.297
313.92
313.526
313.119
312.705
312.3
311.91
311.54
311.189
310.856
310.536
310.224
309.913
309.596
309.269
308.926
308.566
308.189
307.8
307.404
307.017
306.644
306.289
305.953
305.634
305.327
305.028
304.73
304.427
304.113
303.784
303.44
303.079
302.707
302.329
301.958
301.602
301.263
300.942
300.637
300.344
300.058
299.774
299.484
299.183
298.87
298.541
298.197
297.841
297.48
297.126
296.785
296.462
296.155
295.863
295.583
295.31
295.038
294.76
294.473
294.173
293.858
293.528
293.187
292.841
292.502
292.176
291.866
291.573
291.296
291.031
290.777
290.529
290.283
290.037
289.787
289.524
289.239
288.925
318.302
317.906
317.478
317.065
316.678
316.323
315.993
315.684
315.379
315.062
314.731
314.374
313.992
313.578
313.14
312.682
312.247
311.838
311.464
311.117
310.799
310.498
310.213
309.928
309.631
309.318
308.979
308.617
308.223
307.806
307.37
306.955
306.566
306.209
305.877
305.572
305.285
305.012
304.739
304.455
304.155
303.831
303.484
303.108
302.709
302.293
301.897
301.525
301.184
300.868
300.577
300.302
300.041
299.781
299.509
299.223
298.914
298.583
298.223
297.843
297.446
297.067
296.712
296.387
296.084
295.806
295.544
295.294
295.046
294.786
294.512
294.216
293.9
293.556
293.191
292.81
292.447
292.105
291.793
291.503
291.237
290.988
290.754
290.526
290.299
290.079
289.86
289.626
289.361
289.046
318.465
318.041
317.499
317.042
316.623
316.281
315.967
315.7
315.44
315.147
314.842
314.486
314.111
313.664
313.188
312.629
312.156
311.716
311.35
311.006
310.715
310.439
310.2
309.961
309.689
309.403
309.068
308.713
308.29
307.838
307.307
306.858
306.44
306.091
305.764
305.486
305.223
304.994
304.765
304.505
304.231
303.911
303.572
303.168
302.737
302.23
301.801
301.403
301.07
300.758
300.492
300.241
300.023
299.805
299.556
299.295
298.989
298.666
298.28
297.869
297.385
296.976
296.596
296.278
295.98
295.726
295.487
295.278
295.069
294.832
294.583
294.291
293.981
293.612
293.218
292.753
292.36
291.993
291.687
291.399
291.154
290.922
290.721
290.522
290.304
290.12
289.952
289.774
289.555
289.25
318.721
318.342
317.397
316.964
316.459
316.197
315.872
315.708
315.55
315.25
315.026
314.626
314.332
313.792
313.357
312.45
312.017
311.488
311.202
310.819
310.608
310.329
310.185
310.042
309.766
309.558
309.184
308.907
308.397
307.985
307.126
306.716
306.214
305.943
305.579
305.377
305.112
304.974
304.837
304.574
304.375
304.018
303.753
303.266
302.873
302.054
301.663
301.185
300.926
300.579
300.387
300.134
300.003
299.872
299.621
299.432
299.091
298.838
298.374
297.999
297.218
296.845
296.388
296.141
295.81
295.627
295.385
295.26
295.135
294.896
294.715
294.39
294.149
293.705
293.345
292.595
292.236
291.794
291.555
291.232
291.052
290.811
290.684
290.548
290.258
290.137
290.06
289.983
289.871
289.641
288.342
287.973
287.602
287.23
286.859
286.488
286.117
285.747
285.377
285.009
284.642
284.276
283.911
283.546
283.182
288.344
287.973
287.602
287.231
286.859
286.487
286.116
285.746
285.376
285.008
284.641
284.275
283.91
283.546
283.182
288.346
287.975
287.603
287.231
286.858
286.486
286.114
285.744
285.374
285.006
284.639
284.274
283.909
283.545
283.182
288.35
287.978
287.605
287.232
286.858
286.484
286.112
285.741
285.371
285.003
284.636
284.271
283.907
283.544
283.181
288.355
287.982
287.608
287.232
286.857
286.482
286.108
285.736
285.366
284.998
284.631
284.267
283.904
283.542
283.181
288.363
287.988
287.611
287.233
286.855
286.478
286.102
285.729
285.359
284.991
284.625
284.262
283.9
283.539
283.18
288.374
287.997
287.616
287.234
286.852
286.472
286.095
285.72
285.349
284.981
284.617
284.254
283.894
283.536
283.179
288.39
288.008
287.622
287.234
286.848
286.464
286.084
285.708
285.336
284.969
284.605
284.245
283.888
283.532
283.177
288.411
288.023
287.629
287.234
286.841
286.452
286.068
285.691
285.319
284.953
284.591
284.233
283.879
283.526
283.175
288.441
288.043
287.637
287.232
286.83
286.435
286.047
285.668
285.297
284.932
284.573
284.218
283.868
283.52
283.173
288.484
288.069
287.646
287.225
286.812
286.409
286.018
285.638
285.267
284.905
284.55
284.2
283.854
283.511
283.17
288.546
288.103
287.653
287.211
286.784
286.373
285.978
285.598
285.23
284.871
284.521
284.177
283.838
283.501
283.167
288.636
288.145
287.653
287.182
286.738
286.32
285.924
285.546
285.182
284.83
284.486
284.15
283.818
283.489
283.163
288.771
288.187
287.632
287.126
286.667
286.245
285.852
285.479
285.123
284.779
284.445
284.117
283.795
283.476
283.158
288.967
288.202
287.561
287.024
286.559
286.142
285.758
285.397
285.052
284.72
284.397
284.08
283.768
283.46
283.153
322.887
322.662
322.437
322.21
321.982
321.752
321.521
321.286
321.047
320.802
320.549
320.282
319.99
319.651
319.209
322.892
322.677
322.461
322.244
322.027
321.809
321.59
321.369
321.146
320.92
320.69
320.453
320.201
319.909
319.468
322.897
322.691
322.485
322.279
322.073
321.867
321.66
321.453
321.247
321.041
320.836
320.635
320.44
320.269
320.208
322.902
322.706
322.51
322.314
322.119
321.924
321.73
321.538
321.348
321.161
320.981
320.811
320.662
320.552
320.51
322.907
322.72
322.534
322.349
322.164
321.981
321.799
321.621
321.446
321.277
321.118
320.974
320.857
320.786
320.807
322.912
322.735
322.559
322.383
322.209
322.037
321.867
321.701
321.54
321.386
321.244
321.119
321.019
320.958
320.944
322.916
322.749
322.582
322.416
322.252
322.09
321.932
321.777
321.628
321.488
321.359
321.245
321.155
321.097
321.09
322.921
322.762
322.605
322.449
322.294
322.142
321.994
321.85
321.712
321.582
321.462
321.356
321.268
321.2
321.157
322.925
322.776
322.627
322.48
322.334
322.191
322.052
321.918
321.789
321.668
321.556
321.455
321.366
321.288
321.21
322.929
322.788
322.648
322.509
322.372
322.238
322.108
321.982
321.862
321.748
321.642
321.545
321.456
321.375
321.303
322.933
322.8
322.668
322.537
322.409
322.283
322.16
322.042
321.93
321.823
321.722
321.629
321.541
321.455
321.364
322.937
322.812
322.687
322.564
322.443
322.325
322.21
322.099
321.993
321.893
321.798
321.709
321.623
321.541
321.463
322.941
322.822
322.705
322.589
322.475
322.364
322.256
322.152
322.053
321.959
321.87
321.786
321.705
321.623
321.529
322.944
322.833
322.722
322.613
322.506
322.401
322.3
322.203
322.11
322.022
321.939
321.861
321.786
321.713
321.641
322.947
322.842
322.738
322.635
322.534
322.436
322.341
322.25
322.163
322.081
322.004
321.933
321.866
321.802
321.723
322.95
322.851
322.753
322.656
322.561
322.469
322.379
322.294
322.213
322.136
322.066
322.002
321.946
321.901
321.885
322.953
322.86
322.767
322.676
322.586
322.499
322.415
322.335
322.259
322.188
322.123
322.065
322.016
321.98
321.958
322.956
322.868
322.78
322.694
322.609
322.527
322.448
322.373
322.302
322.235
322.175
322.122
322.079
322.049
322.041
322.958
322.875
322.792
322.711
322.631
322.554
322.479
322.408
322.341
322.279
322.222
322.173
322.132
322.102
322.083
322.96
322.882
322.804
322.727
322.651
322.578
322.508
322.44
322.377
322.318
322.264
322.217
322.178
322.149
322.134
322.963
322.888
322.814
322.741
322.67
322.601
322.534
322.47
322.409
322.353
322.302
322.256
322.217
322.185
322.16
322.965
322.894
322.824
322.755
322.687
322.621
322.558
322.497
322.439
322.385
322.335
322.29
322.25
322.217
322.192
322.966
322.899
322.833
322.767
322.703
322.641
322.58
322.522
322.467
322.415
322.366
322.321
322.279
322.242
322.208
322.968
322.904
322.841
322.779
322.718
322.658
322.601
322.545
322.492
322.441
322.394
322.348
322.306
322.265
322.222
322.97
322.909
322.849
322.79
322.732
322.675
322.62
322.566
322.515
322.466
322.419
322.375
322.331
322.289
322.247
322.971
322.914
322.856
322.8
322.744
322.69
322.638
322.586
322.537
322.49
322.444
322.4
322.356
322.312
322.265
322.972
322.918
322.863
322.809
322.756
322.705
322.654
322.605
322.558
322.512
322.467
322.424
322.381
322.338
322.295
322.974
322.921
322.869
322.818
322.768
322.718
322.67
322.623
322.577
322.533
322.49
322.448
322.407
322.364
322.316
322.975
322.925
322.875
322.826
322.778
322.731
322.684
322.639
322.596
322.553
322.512
322.472
322.433
322.393
322.352
322.976
322.928
322.881
322.834
322.788
322.742
322.698
322.655
322.613
322.573
322.534
322.496
322.459
322.423
322.38
322.977
322.931
322.886
322.841
322.797
322.753
322.711
322.67
322.63
322.591
322.554
322.519
322.486
322.456
322.436
322.978
322.934
322.891
322.848
322.805
322.764
322.723
322.684
322.645
322.609
322.574
322.541
322.51
322.484
322.461
322.979
322.937
322.895
322.854
322.813
322.773
322.734
322.697
322.66
322.625
322.592
322.56
322.532
322.508
322.492
322.98
322.94
322.9
322.86
322.821
322.782
322.745
322.709
322.673
322.64
322.608
322.578
322.551
322.527
322.507
322.981
322.942
322.903
322.865
322.828
322.791
322.755
322.72
322.686
322.653
322.623
322.594
322.568
322.545
322.527
322.981
322.944
322.907
322.87
322.834
322.799
322.764
322.73
322.697
322.666
322.636
322.608
322.582
322.558
322.537
322.982
322.946
322.911
322.875
322.84
322.806
322.772
322.74
322.708
322.677
322.648
322.62
322.594
322.57
322.55
322.983
322.948
322.914
322.88
322.846
322.813
322.78
322.749
322.718
322.688
322.659
322.632
322.605
322.58
322.556
322.983
322.95
322.917
322.884
322.851
322.819
322.788
322.757
322.727
322.698
322.67
322.642
322.615
322.589
322.561
322.984
322.952
322.919
322.888
322.856
322.825
322.795
322.765
322.736
322.707
322.679
322.652
322.625
322.599
322.572
322.984
322.953
322.922
322.891
322.861
322.831
322.801
322.772
322.744
322.716
322.689
322.662
322.635
322.608
322.579
322.985
322.955
322.924
322.894
322.865
322.836
322.807
322.779
322.751
322.724
322.698
322.671
322.645
322.619
322.592
322.985
322.956
322.927
322.898
322.869
322.84
322.813
322.785
322.758
322.732
322.706
322.681
322.656
322.629
322.601
322.986
322.957
322.929
322.9
322.872
322.845
322.818
322.791
322.765
322.74
322.715
322.691
322.666
322.642
322.617
322.986
322.958
322.931
322.903
322.876
322.849
322.823
322.797
322.772
322.747
322.723
322.7
322.677
322.654
322.629
322.986
322.959
322.932
322.905
322.879
322.853
322.827
322.802
322.778
322.754
322.731
322.709
322.688
322.668
322.653
322.987
322.96
322.934
322.908
322.882
322.856
322.832
322.807
322.783
322.761
322.738
322.717
322.698
322.679
322.663
322.987
322.961
322.935
322.91
322.884
322.86
322.835
322.812
322.789
322.766
322.745
322.725
322.706
322.689
322.676
322.987
322.962
322.937
322.911
322.887
322.862
322.839
322.815
322.793
322.771
322.751
322.731
322.713
322.697
322.682
322.987
322.962
322.938
322.913
322.889
322.865
322.842
322.819
322.797
322.776
322.756
322.737
322.719
322.703
322.69
322.988
322.963
322.939
322.914
322.89
322.867
322.844
322.822
322.8
322.78
322.76
322.741
322.724
322.708
322.694
322.988
322.963
322.939
322.915
322.892
322.869
322.846
322.824
322.803
322.783
322.763
322.745
322.728
322.712
322.698
322.988
322.964
322.94
322.916
322.893
322.87
322.848
322.826
322.805
322.785
322.766
322.748
322.731
322.715
322.7
322.988
322.964
322.94
322.917
322.894
322.871
322.849
322.827
322.807
322.787
322.768
322.75
322.733
322.717
322.701
322.988
322.964
322.94
322.917
322.894
322.871
322.849
322.828
322.808
322.788
322.769
322.751
322.735
322.719
322.704
322.988
322.964
322.94
322.917
322.894
322.871
322.849
322.828
322.808
322.788
322.77
322.752
322.736
322.72
322.705
322.988
322.964
322.94
322.917
322.894
322.871
322.849
322.828
322.808
322.788
322.77
322.752
322.736
322.721
322.707
322.988
322.964
322.94
322.916
322.893
322.87
322.848
322.827
322.807
322.787
322.769
322.752
322.735
322.721
322.707
322.988
322.963
322.939
322.915
322.892
322.869
322.847
322.826
322.805
322.786
322.767
322.75
322.734
322.719
322.707
322.988
322.963
322.938
322.914
322.89
322.867
322.845
322.823
322.803
322.783
322.765
322.748
322.732
322.717
322.705
322.987
322.962
322.937
322.913
322.888
322.865
322.842
322.821
322.8
322.78
322.762
322.744
322.728
322.713
322.699
322.987
322.961
322.936
322.911
322.886
322.862
322.839
322.817
322.796
322.776
322.758
322.74
322.724
322.709
322.695
322.987
322.96
322.934
322.908
322.883
322.859
322.835
322.813
322.792
322.771
322.753
322.735
322.719
322.704
322.689
322.986
322.959
322.932
322.906
322.88
322.855
322.831
322.808
322.786
322.766
322.747
322.729
322.713
322.698
322.685
322.986
322.958
322.93
322.903
322.876
322.85
322.825
322.802
322.78
322.759
322.74
322.722
322.706
322.692
322.677
322.985
322.956
322.927
322.899
322.871
322.845
322.819
322.795
322.772
322.751
322.732
322.715
322.699
322.685
322.672
322.985
322.954
322.924
322.895
322.866
322.839
322.812
322.787
322.764
322.742
322.723
322.705
322.69
322.677
322.664
322.984
322.952
322.921
322.89
322.86
322.832
322.804
322.778
322.754
322.732
322.712
322.695
322.68
322.668
322.659
322.983
322.95
322.917
322.885
322.854
322.824
322.795
322.768
322.743
322.72
322.7
322.683
322.669
322.658
322.653
322.982
322.948
322.913
322.879
322.846
322.815
322.785
322.756
322.73
322.706
322.685
322.668
322.654
322.645
322.64
322.982
322.945
322.908
322.873
322.838
322.805
322.773
322.743
322.715
322.69
322.669
322.651
322.637
322.629
322.628
322.98
322.942
322.903
322.865
322.829
322.794
322.76
322.728
322.699
322.673
322.649
322.63
322.616
322.607
322.605
322.979
322.938
322.897
322.858
322.819
322.781
322.746
322.712
322.681
322.652
322.627
322.606
322.591
322.582
322.585
322.978
322.934
322.891
322.849
322.808
322.768
322.73
322.694
322.66
322.63
322.602
322.579
322.56
322.548
322.545
322.977
322.93
322.884
322.839
322.796
322.753
322.713
322.674
322.638
322.605
322.575
322.548
322.525
322.509
322.508
322.975
322.926
322.877
322.829
322.782
322.737
322.694
322.653
322.614
322.578
322.545
322.514
322.486
322.46
322.426
322.974
322.921
322.869
322.818
322.768
322.72
322.674
322.63
322.588
322.549
322.513
322.479
322.446
322.415
322.384
322.972
322.916
322.86
322.806
322.753
322.701
322.652
322.605
322.56
322.518
322.479
322.442
322.406
322.369
322.326
322.97
322.91
322.851
322.793
322.736
322.681
322.629
322.578
322.531
322.486
322.444
322.404
322.366
322.328
322.292
322.968
322.904
322.841
322.779
322.718
322.66
322.604
322.55
322.499
322.452
322.407
322.365
322.325
322.285
322.241
322.966
322.898
322.83
322.764
322.699
322.637
322.577
322.52
322.466
322.415
322.369
322.325
322.284
322.245
322.21
322.964
322.891
322.819
322.748
322.679
322.612
322.548
322.487
322.43
322.376
322.328
322.283
322.242
322.204
322.162
322.961
322.883
322.806
322.731
322.657
322.585
322.516
322.451
322.391
322.335
322.284
322.239
322.199
322.164
322.136
322.958
322.875
322.793
322.712
322.633
322.556
322.483
322.413
322.348
322.289
322.236
322.19
322.151
322.12
322.103
322.956
322.867
322.779
322.692
322.607
322.525
322.446
322.372
322.302
322.239
322.184
322.137
322.098
322.066
322.027
322.952
322.858
322.764
322.671
322.58
322.492
322.407
322.327
322.252
322.184
322.126
322.078
322.042
322.016
321.994
322.949
322.848
322.748
322.648
322.551
322.456
322.365
322.277
322.196
322.123
322.06
322.01
321.977
321.964
321.97
322.946
322.838
322.731
322.625
322.52
322.418
322.319
322.224
322.135
322.055
321.985
321.931
321.9
321.9
321.94
322.942
322.828
322.713
322.6
322.488
322.378
322.27
322.167
322.069
321.978
321.899
321.836
321.8
321.807
321.887
322.939
322.817
322.695
322.574
322.454
322.336
322.219
322.106
321.997
321.895
321.801
321.723
321.67
321.664
321.766
289.172
288.103
287.399
286.864
286.416
286.017
285.651
285.306
284.976
284.657
284.346
284.041
283.741
283.443
283.148
288.794
287.759
287.135
286.659
286.251
285.882
285.539
285.212
284.898
284.594
284.296
284.003
283.714
283.427
283.142
287.303
287.128
286.77
286.405
286.059
285.73
285.414
285.11
284.815
284.526
284.242
283.962
283.686
283.411
283.137
286.717
286.624
286.408
286.139
285.854
285.567
285.283
285.003
284.727
284.455
284.186
283.92
283.656
283.393
283.131
286.162
286.206
286.084
285.885
285.651
285.403
285.148
284.892
284.636
284.381
284.128
283.876
283.625
283.374
283.125
285.911
285.905
285.812
285.655
285.459
285.242
285.014
284.781
284.544
284.307
284.069
283.831
283.593
283.356
283.119
285.649
285.663
285.585
285.451
285.281
285.09
284.885
284.672
284.453
284.232
284.01
283.786
283.562
283.337
283.112
285.532
285.486
285.397
285.272
285.119
284.947
284.761
284.566
284.365
284.159
283.951
283.741
283.53
283.318
283.106
285.439
285.337
285.234
285.112
284.97
284.813
284.643
284.464
284.279
284.088
283.894
283.698
283.499
283.3
283.1
285.278
285.189
285.084
284.965
284.833
284.688
284.532
284.368
284.196
284.019
283.839
283.655
283.469
283.282
283.094
285.174
285.053
284.943
284.828
284.704
284.57
284.427
284.275
284.117
283.953
283.785
283.614
283.44
283.265
283.088
285.002
284.908
284.805
284.698
284.583
284.459
284.328
284.188
284.042
283.89
283.734
283.574
283.412
283.248
283.083
284.89
284.771
284.671
284.572
284.467
284.354
284.234
284.106
283.971
283.83
283.685
283.537
283.385
283.232
283.077
284.7
284.621
284.537
284.45
284.356
284.255
284.145
284.028
283.903
283.774
283.639
283.501
283.36
283.217
283.072
284.563
284.473
284.405
284.332
284.251
284.161
284.061
283.954
283.84
283.72
283.596
283.467
283.336
283.202
283.068
284.296
284.31
284.276
284.221
284.152
284.073
283.983
283.886
283.781
283.67
283.555
283.435
283.313
283.189
283.063
284.176
284.182
284.161
284.119
284.062
283.991
283.911
283.822
283.726
283.624
283.517
283.406
283.292
283.176
283.059
284.044
284.072
284.062
284.029
283.979
283.917
283.844
283.763
283.675
283.58
283.481
283.378
283.272
283.164
283.055
283.978
283.987
283.978
283.95
283.906
283.85
283.784
283.709
283.628
283.54
283.448
283.353
283.254
283.153
283.051
283.9
283.916
283.907
283.881
283.841
283.79
283.729
283.66
283.585
283.504
283.418
283.329
283.237
283.143
283.048
283.861
283.861
283.848
283.822
283.784
283.737
283.68
283.616
283.546
283.47
283.391
283.307
283.221
283.134
283.045
283.814
283.814
283.799
283.772
283.735
283.689
283.636
283.576
283.511
283.44
283.365
283.288
283.207
283.125
283.042
283.793
283.778
283.757
283.728
283.691
283.647
283.597
283.54
283.479
283.412
283.343
283.27
283.194
283.117
283.039
283.774
283.747
283.721
283.689
283.653
283.61
283.561
283.508
283.45
283.387
283.322
283.253
283.182
283.11
283.037
283.742
283.717
283.688
283.655
283.618
283.576
283.53
283.479
283.424
283.365
283.303
283.238
283.172
283.104
283.035
283.721
283.688
283.657
283.623
283.587
283.546
283.501
283.453
283.4
283.345
283.286
283.225
283.162
283.098
283.033
283.687
283.659
283.627
283.594
283.558
283.519
283.476
283.429
283.379
283.326
283.271
283.213
283.153
283.092
283.031
283.665
283.631
283.6
283.567
283.532
283.494
283.452
283.408
283.36
283.31
283.257
283.202
283.145
283.088
283.029
283.629
283.602
283.573
283.541
283.508
283.471
283.431
283.389
283.343
283.295
283.244
283.192
283.138
283.083
283.028
283.604
283.574
283.547
283.518
283.486
283.45
283.412
283.371
283.328
283.282
283.233
283.183
283.132
283.08
283.027
283.556
283.544
283.522
283.496
283.466
283.432
283.395
283.356
283.314
283.27
283.223
283.176
283.126
283.076
283.025
283.535
283.521
283.501
283.477
283.448
283.416
283.38
283.342
283.302
283.259
283.215
283.169
283.121
283.073
283.024
283.514
283.503
283.484
283.46
283.433
283.401
283.367
283.331
283.291
283.25
283.207
283.163
283.117
283.071
283.024
283.504
283.489
283.47
283.447
283.42
283.389
283.356
283.32
283.282
283.242
283.201
283.157
283.113
283.068
283.023
283.493
283.478
283.459
283.436
283.409
283.379
283.347
283.312
283.275
283.236
283.195
283.153
283.11
283.066
283.022
283.488
283.471
283.451
283.427
283.4
283.371
283.339
283.305
283.268
283.23
283.19
283.149
283.107
283.065
283.022
283.484
283.466
283.445
283.421
283.394