/*--------------------------------*- C++ -*----------------------------------*\
| =========                 |                                                 |
| \\      /  F ield         | OpenFOAM: The Open Source CFD Toolbox           |
|  \\    /   O peration     | Version:  5.x                                   |
|   \\  /    A nd           | Web:      www.OpenFOAM.org                      |
|    \\/     M anipulation  |                                                 |
\*---------------------------------------------------------------------------*/
FoamFile
{
    version     2.0;
    format      ascii;
    class       volScalarField;
    location    "1.1";
    object      T;
}
// * * * * * * * * * * * * * * * * * * * * * * * * * * * * * * * * * * * * * //

dimensions      [0 0 0 1 0 0 0];

internalField   nonuniform List<scalar> 
3200
(
2.18317
2.50192
2.52002
2.64962
2.65776
2.72067
2.7248
2.75985
2.76223
2.78363
2.78504
2.79715
2.79822
2.81152
2.81262
2.82569
2.82676
2.83934
2.84036
2.85225
2.8532
2.86418
2.86504
2.87484
2.8756
2.88406
2.88471
2.89188
2.89247
2.89925
2.90459
2.90495
2.90785
2.90805
2.90987
2.90999
2.91117
2.91125
2.91202
2.91207
2.91256
2.91259
2.9129
2.91292
2.91311
2.91312
2.91323
2.91323
2.91328
2.91328
2.91328
2.91328
2.91324
2.91323
2.91312
2.91311
2.9129
2.91287
2.91251
2.91247
2.91183
2.91176
2.91067
2.91054
2.9086
2.90837
2.90468
2.90418
2.89619
2.89479
2.87212
2.83252
2.8281
2.76375
2.75618
2.63602
2.63103
2.6304
2.63027
2.63024
2.34587
2.58972
2.62754
2.73125
2.74861
2.79894
2.80776
2.83571
2.84076
2.85778
2.86079
2.87051
2.87278
2.88331
2.88564
2.896
2.89827
2.90823
2.91039
2.91981
2.92184
2.93053
2.93236
2.94013
2.94174
2.94844
2.94983
2.95552
2.9568
2.96238
2.9669
2.96768
2.97
2.97043
2.97187
2.97214
2.97308
2.97325
2.97385
2.97397
2.97435
2.97443
2.97467
2.97471
2.97486
2.97489
2.97497
2.97499
2.97502
2.97503
2.97503
2.97502
2.97499
2.97498
2.97489
2.97486
2.97469
2.97464
2.97435
2.97426
2.97376
2.9736
2.97274
2.97246
2.97091
2.97041
2.96745
2.96637
2.95986
2.95678
2.93696
2.90455
2.8951
2.84381
2.82787
2.73452
2.72399
2.72225
2.72188
2.7218
2.49881
2.68576
2.73242
2.81632
2.83813
2.87887
2.88995
2.91249
2.91882
2.9325
2.93627
2.94416
2.94701
2.95543
2.95834
2.96663
2.96946
2.97743
2.98013
2.98767
2.9902
2.99715
2.99945
3.00566
3.00768
3.01304
3.01477
3.01935
3.02095
3.02556
3.02936
3.03036
3.03224
3.03277
3.03393
3.03426
3.03501
3.03523
3.03572
3.03586
3.03617
3.03626
3.03645
3.03651
3.03663
3.03666
3.03673
3.03674
3.03677
3.03678
3.03678
3.03677
3.03675
3.03673
3.03666
3.03662
3.03649
3.03643
3.03619
3.03608
3.03567
3.03548
3.03478
3.03444
3.03319
3.03255
3.03015
3.02878
3.0234
3.01944
3.00231
2.97566
2.96378
2.92246
2.90266
2.82971
2.8166
2.81404
2.81349
2.81337
2.64427
2.78741
2.8358
2.90387
2.9269
2.95998
2.97167
2.98991
2.99658
3.00761
3.01159
3.01802
3.02102
3.02777
3.03082
3.03747
3.04045
3.04684
3.04968
3.05573
3.05838
3.06396
3.06637
3.07136
3.07348
3.07778
3.0796
3.08329
3.08498
3.08876
3.09194
3.093
3.09452
3.09508
3.09602
3.09637
3.09698
3.0972
3.0976
3.09774
3.09799
3.09809
3.09824
3.0983
3.0984
3.09843
3.09849
3.0985
3.09853
3.09853
3.09853
3.09853
3.09851
3.09849
3.09843
3.09839
3.09829
3.09822
3.09803
3.09791
3.09758
3.09738
3.09681
3.09645
3.09544
3.09476
3.09281
3.09135
3.08689
3.08262
3.06805
3.04619
3.03364
3.00025
2.97958
2.92252
2.90879
2.90577
2.90508
2.90493
2.78399
2.89284
2.9384
2.99323
3.01526
3.04195
3.05313
3.0678
3.07417
3.08301
3.08681
3.09201
3.09488
3.10025
3.10316
3.10846
3.1113
3.1164
3.1191
3.12393
3.12645
3.1309
3.1332
3.13717
3.13919
3.14262
3.14436
3.14731
3.14893
3.15199
3.1546
3.15562
3.15685
3.15739
3.15814
3.15847
3.15896
3.15917
3.15949
3.15963
3.15983
3.15992
3.16004
3.1601
3.16017
3.16021
3.16025
3.16027
3.16029
3.16029
3.16029
3.16029
3.16027
3.16025
3.16021
3.16017
3.16008
3.16002
3.15987
3.15975
3.15949
3.1593
3.15884
3.1585
3.15768
3.15703
3.15545
3.15404
3.15037
3.14623
3.13408
3.11635
3.10434
3.07754
3.05795
3.01359
3.00056
2.9974
2.99666
2.99649
2.91935
3.00079
3.04062
3.08389
3.10343
3.12453
3.13445
3.14602
3.15166
3.15861
3.16197
3.1661
3.16864
3.17284
3.17541
3.17955
3.18206
3.18605
3.18844
3.19221
3.19444
3.19792
3.19995
3.20306
3.20484
3.20753
3.20907
3.21138
3.21282
3.21524
3.21732
3.21823
3.21921
3.21968
3.22027
3.22057
3.22095
3.22114
3.22139
3.22151
3.22167
3.22175
3.22185
3.22189
3.22195
3.22198
3.22202
3.22203
3.22205
3.22205
3.22205
3.22205
3.22203
3.22202
3.22198
3.22195
3.22188
3.22183
3.22171
3.22161
3.2214
3.22123
3.22087
3.22056
3.21992
3.21934
3.21809
3.21683
3.21387
3.21016
3.20033
3.18629
3.17563
3.15454
3.13733
3.10342
3.09194
3.08894
3.08821
3.08804
3.05145
3.11041
3.1427
3.17549
3.19153
3.20757
3.21571
3.22447
3.2291
3.23434
3.23711
3.24024
3.24233
3.24549
3.24759
3.25071
3.25276
3.25576
3.25772
3.26056
3.26238
3.265
3.26666
3.269
3.27046
3.27249
3.27374
3.27549
3.27667
3.27851
3.28009
3.28084
3.28159
3.28198
3.28242
3.28267
3.28295
3.28311
3.28329
3.2834
3.28351
3.28358
3.28365
3.28369
3.28374
3.28376
3.28379
3.2838
3.28381
3.28382
3.28382
3.28381
3.2838
3.28379
3.28376
3.28374
3.28368
3.28364
3.28355
3.28347
3.28331
3.28317
3.2829
3.28265
3.28216
3.28169
3.28073
3.27969
3.27741
3.27433
3.26676
3.25609
3.24734
3.23139
3.21737
3.19235
3.18298
3.18039
3.17974
3.1796
3.18119
3.2211
3.24475
3.26777
3.27964
3.29091
3.29694
3.30308
3.30651
3.31018
3.31223
3.31443
3.31597
3.31818
3.31973
3.32191
3.32342
3.32552
3.32696
3.32895
3.33029
3.33212
3.33335
3.33498
3.33606
3.33747
3.3384
3.33962
3.34049
3.34178
3.3429
3.34346
3.34398
3.34427
3.34458
3.34476
3.34496
3.34508
3.34521
3.34528
3.34536
3.34541
3.34546
3.34549
3.34553
3.34554
3.34556
3.34557
3.34558
3.34558
3.34558
3.34558
3.34557
3.34556
3.34554
3.34552
3.34549
3.34545
3.34539
3.34533
3.34522
3.34512
3.34493
3.34474
3.3444
3.34405
3.34337
3.3426
3.34098
3.33868
3.33332
3.32582
3.31934
3.30817
3.29785
3.28065
3.27375
3.27177
3.27126
3.27114
3.30933
3.33243
3.34683
3.36049
3.36777
3.37447
3.37816
3.38181
3.38391
3.38608
3.38734
3.38865
3.38959
3.3909
3.39185
3.39314
3.39406
3.3953
3.39619
3.39736
3.39818
3.39926
3.40001
3.40098
3.40164
3.40248
3.40304
3.40377
3.4043
3.40507
3.40573
3.40607
3.40638
3.40656
3.40675
3.40686
3.40698
3.40705
3.40712
3.40717
3.40722
3.40725
3.40728
3.4073
3.40732
3.40733
3.40734
3.40734
3.40735
3.40735
3.40735
3.40735
3.40734
3.40734
3.40733
3.40731
3.40729
3.40727
3.40723
3.4072
3.40713
3.40707
3.40695
3.40684
3.40664
3.40642
3.40602
3.40555
3.40457
3.40316
3.39996
3.3955
3.39154
3.38491
3.37861
3.36855
3.36433
3.36308
3.36276
3.36269
3.43654
3.44411
3.44894
3.45347
3.45592
3.45814
3.45939
3.4606
3.4613
3.46202
3.46245
3.46288
3.4632
3.46363
3.46395
3.46438
3.46469
3.4651
3.4654
3.46578
3.46606
3.46642
3.46667
3.46699
3.46721
3.46749
3.46768
3.46792
3.4681
3.46836
3.46858
3.46869
3.46879
3.46885
3.46892
3.46895
3.46899
3.46902
3.46904
3.46906
3.46907
3.46908
3.46909
3.4691
3.4691
3.46911
3.46911
3.46911
3.46912
3.46912
3.46912
3.46912
3.46911
3.46911
3.46911
3.4691
3.4691
3.46909
3.46908
3.46907
3.46904
3.46902
3.46898
3.46895
3.46888
3.46881
3.46867
3.46851
3.46819
3.46771
3.46665
3.46517
3.46383
3.46164
3.45952
3.45621
3.45479
3.45437
3.45426
3.45423
3.44385
3.45166
3.45704
3.46279
3.46627
3.47001
3.47237
3.47504
3.47674
3.47867
3.47985
3.48113
3.48206
3.48331
3.48421
3.48538
3.48619
3.48721
3.48791
3.48877
3.48937
3.4901
3.49059
3.4912
3.49161
3.49211
3.49245
3.49288
3.49321
3.49367
3.49408
3.4943
3.49451
3.49463
3.49476
3.49485
3.49494
3.495
3.49506
3.4951
3.49515
3.49518
3.49521
3.49523
3.49525
3.49526
3.49528
3.49528
3.49529
3.4953
3.4953
3.49531
3.49531
3.49531
3.49531
3.49532
3.49532
3.49532
3.49532
3.49532
3.49532
3.49532
3.49532
3.49531
3.4953
3.49529
3.49526
3.49521
3.49508
3.49484
3.49424
3.49332
3.49237
3.49067
3.48889
3.48597
3.48472
3.48434
3.48424
3.48422
3.33122
3.35508
3.37112
3.38845
3.3988
3.41009
3.4171
3.42515
3.43021
3.43604
3.43954
3.44339
3.44616
3.44995
3.45263
3.45614
3.45855
3.46163
3.46371
3.46634
3.4681
3.4703
3.47177
3.47361
3.47483
3.47634
3.47736
3.47866
3.47962
3.48102
3.48225
3.4829
3.48352
3.48389
3.48429
3.48454
3.48482
3.48499
3.48519
3.48531
3.48545
3.48554
3.48563
3.48569
3.48575
3.48579
3.48583
3.48585
3.48588
3.48589
3.48591
3.48592
3.48593
3.48593
3.48594
3.48595
3.48595
3.48595
3.48596
3.48596
3.48596
3.48596
3.48595
3.48594
3.48591
3.48588
3.48578
3.48563
3.48524
3.48453
3.48274
3.47997
3.47715
3.47202
3.46672
3.45785
3.45412
3.45301
3.45273
3.45266
3.21764
3.25881
3.28513
3.3144
3.3313
3.35033
3.36178
3.37539
3.38365
3.39351
3.39922
3.4057
3.41022
3.41664
3.42102
3.42695
3.43089
3.43609
3.4395
3.44393
3.44681
3.45054
3.45294
3.45604
3.45803
3.46059
3.46226
3.46444
3.46601
3.46837
3.47045
3.47151
3.47255
3.47315
3.47383
3.47423
3.47471
3.47499
3.47533
3.47553
3.47576
3.4759
3.47605
3.47615
3.47625
3.47632
3.47639
3.47643
3.47647
3.47649
3.47652
3.47653
3.47655
3.47656
3.47657
3.47658
3.47659
3.47659
3.4766
3.4766
3.4766
3.4766
3.47659
3.47657
3.47653
3.47647
3.47631
3.47606
3.47542
3.47426
3.47128
3.46662
3.46202
3.45338
3.4447
3.42953
3.42342
3.42166
3.42121
3.4211
3.10241
3.16313
3.19903
3.24084
3.2637
3.29088
3.30637
3.32583
3.33703
3.35113
3.35887
3.36809
3.3742
3.38341
3.38934
3.39785
3.40318
3.41063
3.41524
3.42159
3.42549
3.43083
3.43409
3.43852
3.44122
3.44488
3.44714
3.45026
3.45238
3.45574
3.45869
3.46012
3.4616
3.46241
3.46338
3.46393
3.46461
3.465
3.46547
3.46574
3.46607
3.46626
3.46649
3.46661
3.46677
3.46685
3.46695
3.46701
3.46707
3.4671
3.46713
3.46715
3.46718
3.46719
3.46721
3.46722
3.46723
3.46724
3.46725
3.46725
3.46725
3.46724
3.46723
3.46721
3.46715
3.46706
3.46685
3.46651
3.46563
3.46408
3.45989
3.45327
3.44707
3.43475
3.42295
3.40085
3.39255
3.39026
3.38968
3.38955
2.98474
3.06844
3.11269
3.16802
3.19593
3.2319
3.25081
3.27661
3.29028
3.30902
3.31846
3.33061
3.33806
3.35031
3.35756
3.36886
3.37539
3.38528
3.39092
3.39935
3.40412
3.4112
3.41519
3.42107
3.42437
3.42923
3.43199
3.43612
3.4387
3.44313
3.447
3.44874
3.45069
3.45168
3.45296
3.45363
3.45453
3.455
3.45563
3.45596
3.4564
3.45663
3.45693
3.45709
3.45729
3.45739
3.45753
3.45759
3.45767
3.45771
3.45776
3.45778
3.45782
3.45783
3.45786
3.45787
3.45789
3.45789
3.4579
3.45791
3.45791
3.4579
3.45788
3.45786
3.45778
3.45768
3.4574
3.45699
3.45587
3.45401
3.44862
3.43991
3.43236
3.41611
3.40161
3.37162
3.36145
3.35879
3.35815
3.358
2.86371
2.97532
3.02589
3.09631
3.12783
3.17359
3.19496
3.22787
3.24334
3.26727
3.27794
3.29331
3.30173
3.3174
3.32562
3.34008
3.34746
3.3601
3.36648
3.37726
3.38266
3.3917
3.39621
3.40373
3.40746
3.41367
3.41679
3.42204
3.42496
3.43054
3.4354
3.43735
3.43982
3.44093
3.44257
3.44333
3.44448
3.44501
3.44582
3.44619
3.44675
3.44701
3.44739
3.44757
3.44783
3.44794
3.44811
3.44819
3.44829
3.44834
3.44839
3.44842
3.44846
3.44849
3.44852
3.44853
3.44855
3.44856
3.44857
3.44857
3.44857
3.44857
3.44855
3.44852
3.44842
3.44831
3.44797
3.44752
3.44615
3.44409
3.43748
3.42653
3.41802
3.39741
3.38091
3.34162
3.33007
3.32727
3.32661
3.32646
2.73821
2.88463
2.93829
3.02614
3.05916
3.11625
3.13865
3.17982
3.19605
3.22605
3.23723
3.25628
3.26511
3.2848
3.29343
3.31157
3.31933
3.33518
3.34188
3.35539
3.36105
3.37239
3.37712
3.38654
3.39046
3.39824
3.40151
3.40807
3.41112
3.418
3.42393
3.42595
3.42902
3.43018
3.43223
3.43302
3.43446
3.43502
3.43603
3.43642
3.43712
3.43739
3.43788
3.43806
3.43838
3.43851
3.43872
3.4388
3.43893
3.43897
3.43904
3.43907
3.43913
3.43915
3.43919
3.4392
3.43923
3.43924
3.43925
3.43925
3.43926
3.43925
3.43922
3.43919
3.43908
3.43896
3.43855
3.43809
3.43647
3.43436
3.42653
3.41305
3.40417
3.37856
3.36113
3.31053
3.29835
3.29567
3.29506
3.29492
2.60683
2.79764
2.84931
2.95815
2.98951
3.06029
3.08158
3.13276
3.14821
3.18558
3.1962
3.21967
3.22806
3.25264
3.26086
3.28348
3.29087
3.31063
3.317
3.33383
3.33922
3.35335
3.35785
3.36958
3.37331
3.38299
3.3861
3.39424
3.39713
3.4055
3.41262
3.41452
3.4183
3.41941
3.42195
3.4227
3.42449
3.42502
3.42628
3.42665
3.42753
3.42779
3.42839
3.42856
3.42896
3.42908
3.42934
3.42942
3.42958
3.42962
3.42971
3.42974
3.42981
3.42983
3.42988
3.42989
3.42992
3.42993
3.42995
3.42995
3.42995
3.42995
3.42991
3.42988
3.42975
3.42964
3.42915
3.42873
3.42683
3.42488
3.41582
3.39941
3.391
3.3594
3.3427
3.27791
3.26627
3.264
3.26351
3.2634
2.46781
2.71621
2.75804
2.89326
2.91828
3.00631
3.02331
3.08714
3.09948
3.14618
3.15466
3.18365
3.19035
3.22113
3.22771
3.25601
3.26192
3.28661
3.29171
3.31274
3.31705
3.33469
3.3383
3.35295
3.35593
3.36802
3.3705
3.38064
3.38293
3.39307
3.40153
3.40303
3.40771
3.40859
3.41176
3.41236
3.41459
3.41501
3.41658
3.41688
3.41797
3.41818
3.41893
3.41907
3.41957
3.41966
3.41999
3.42005
3.42026
3.42029
3.42039
3.42042
3.4205
3.42052
3.42058
3.42059
3.42063
3.42064
3.42066
3.42066
3.42067
3.42066
3.42062
3.4206
3.42044
3.42035
3.41977
3.41944
3.4172
3.4157
3.40543
3.38547
3.37879
3.33966
3.32621
3.24319
3.23383
3.23229
3.23197
3.2319
2.31883
2.64302
2.66302
2.83276
2.84453
2.95517
2.96317
3.04356
3.04938
3.10831
3.1123
3.14853
3.15168
3.1906
3.1937
3.22943
3.23221
3.26338
3.26578
3.29232
3.29435
3.31661
3.31831
3.33679
3.33819
3.35344
3.35461
3.36736
3.36842
3.38071
3.39074
3.39143
3.39728
3.39769
3.40168
3.40196
3.40477
3.40497
3.40695
3.40709
3.40847
3.40857
3.40951
3.40958
3.41021
3.41025
3.41067
3.4107
3.41095
3.41097
3.4111
3.41111
3.41122
3.41123
3.41131
3.41131
3.41136
3.41137
3.4114
3.4114
3.4114
3.4114
3.41135
3.41134
3.41114
3.4111
3.41039
3.41024
3.40757
3.4069
3.39544
3.37101
3.36789
3.31891
3.31252
3.20554
3.20111
3.20055
3.20044
3.20041
2.31883
2.64301
2.66301
2.83275
2.84451
2.95515
2.96315
3.04354
3.04936
3.10829
3.11227
3.14851
3.15166
3.19057
3.19367
3.2294
3.23219
3.26335
3.26576
3.29229
3.29432
3.31659
3.31828
3.33677
3.33817
3.35342
3.35459
3.36734
3.36841
3.3807
3.39073
3.39142
3.39727
3.39769
3.40167
3.40196
3.40477
3.40497
3.40695
3.40709
3.40847
3.40856
3.40951
3.40957
3.41021
3.41025
3.41067
3.41069
3.41095
3.41097
3.4111
3.41111
3.41122
3.41123
3.41131
3.41131
3.41136
3.41137
3.41139
3.41139
3.4114
3.4114
3.41135
3.41134
3.41114
3.4111
3.41039
3.41024
3.40757
3.4069
3.39544
3.37102
3.3679
3.31893
3.31254
3.20556
3.20113
3.20057
3.20045
3.20043
2.46781
2.7162
2.75803
2.89324
2.91827
3.0063
3.0233
3.08712
3.09946
3.14616
3.15464
3.18363
3.19033
3.22111
3.22769
3.25598
3.26189
3.28658
3.29168
3.31271
3.31703
3.33467
3.33828
3.35293
3.35591
3.368
3.37049
3.38062
3.38291
3.39306
3.40152
3.40303
3.4077
3.40858
3.41175
3.41235
3.41458
3.41501
3.41658
3.41688
3.41797
3.41818
3.41893
3.41906
3.41957
3.41966
3.41999
3.42005
3.42025
3.42029
3.42039
3.42041
3.4205
3.42052
3.42058
3.42059
3.42063
3.42064
3.42066
3.42066
3.42066
3.42066
3.42062
3.4206
3.42044
3.42035
3.41977
3.41944
3.4172
3.41571
3.40543
3.38548
3.3788
3.33968
3.32623
3.24321
3.23385
3.23231
3.23198
3.23191
2.60683
2.79763
2.84931
2.95814
2.9895
3.06028
3.08157
3.13275
3.14819
3.18556
3.19618
3.21965
3.22804
3.25262
3.26084
3.28346
3.29084
3.3106
3.31698
3.33381
3.3392
3.35333
3.35783
3.36956
3.3733
3.38298
3.38609
3.39423
3.39712
3.40549
3.41261
3.41452
3.4183
3.4194
3.42195
3.4227
3.42449
3.42502
3.42628
3.42665
3.42753
3.42778
3.42838
3.42856
3.42896
3.42908
3.42934
3.42942
3.42958
3.42962
3.42971
3.42974
3.42981
3.42983
3.42988
3.42989
3.42992
3.42993
3.42995
3.42995
3.42995
3.42995
3.42991
3.42988
3.42975
3.42964
3.42915
3.42873
3.42683
3.42488
3.41583
3.39942
3.39102
3.35941
3.34271
3.27793
3.26629
3.26402
3.26353
3.26342
2.7382
2.88462
2.93828
3.02613
3.05915
3.11624
3.13864
3.1798
3.19603
3.22603
3.23721
3.25627
3.26509
3.28478
3.29341
3.31155
3.31931
3.33516
3.34186
3.35537
3.36103
3.37237
3.37711
3.38653
3.39045
3.39823
3.4015
3.40806
3.41111
3.41799
3.42392
3.42595
3.42901
3.43018
3.43223
3.43302
3.43446
3.43502
3.43603
3.43642
3.43712
3.43739
3.43788
3.43806
3.43838
3.43851
3.43872
3.4388
3.43893
3.43897
3.43904
3.43907
3.43913
3.43915
3.43919
3.4392
3.43923
3.43924
3.43925
3.43925
3.43925
3.43925
3.43922
3.43919
3.43908
3.43896
3.43855
3.43809
3.43647
3.43436
3.42654
3.41306
3.40418
3.37857
3.36115
3.31054
3.29836
3.29568
3.29507
3.29494
2.86371
2.97531
3.02588
3.0963
3.12782
3.17358
3.19495
3.22785
3.24332
3.26725
3.27793
3.29329
3.30172
3.31739
3.3256
3.34006
3.34744
3.36009
3.36647
3.37724
3.38264
3.39169
3.3962
3.40371
3.40745
3.41366
3.41678
3.42203
3.42495
3.43054
3.43539
3.43735
3.43982
3.44093
3.44257
3.44333
3.44448
3.44501
3.44582
3.44619
3.44675
3.44701
3.44739
3.44757
3.44783
3.44794
3.44811
3.44819
3.44829
3.44834
3.44839
3.44842
3.44846
3.44848
3.44852
3.44853
3.44855
3.44856
3.44857
3.44857
3.44857
3.44857
3.44855
3.44851
3.44842
3.44831
3.44797
3.44752
3.44615
3.44409
3.43748
3.42653
3.41802
3.39742
3.38092
3.34163
3.33008
3.32728
3.32662
3.32647
2.98473
3.06844
3.11268
3.16802
3.19592
3.23189
3.2508
3.2766
3.29027
3.309
3.31845
3.33059
3.33805
3.35029
3.35755
3.36885
3.37537
3.38527
3.3909
3.39934
3.40411
3.41119
3.41517
3.42106
3.42436
3.42922
3.43198
3.43611
3.4387
3.44312
3.44699
3.44873
3.45069
3.45167
3.45296
3.45363
3.45453
3.455
3.45563
3.45596
3.4564
3.45663
3.45693
3.45709
3.45729
3.45739
3.45753
3.45759
3.45767
3.45771
3.45776
3.45778
3.45782
3.45783
3.45786
3.45787
3.45789
3.45789
3.4579
3.45791
3.45791
3.4579
3.45788
3.45785
3.45778
3.45768
3.4574
3.457
3.45587
3.45401
3.44862
3.43992
3.43237
3.41612
3.40162
3.37163
3.36146
3.3588
3.35816
3.35801
3.1024
3.16313
3.19903
3.24083
3.2637
3.29088
3.30637
3.32582
3.33702
3.35113
3.35886
3.36808
3.37419
3.3834
3.38933
3.39783
3.40317
3.41062
3.41523
3.42158
3.42548
3.43082
3.43408
3.43851
3.44121
3.44487
3.44713
3.45025
3.45238
3.45573
3.45869
3.46012
3.4616
3.46241
3.46338
3.46393
3.46461
3.46499
3.46547
3.46574
3.46607
3.46626
3.46649
3.46661
3.46677
3.46685
3.46695
3.467
3.46707
3.4671
3.46713
3.46715
3.46718
3.46719
3.46721
3.46722
3.46723
3.46724
3.46725
3.46725
3.46725
3.46724
3.46723
3.46721
3.46715
3.46706
3.46685
3.46651
3.46563
3.46408
3.4599
3.45327
3.44707
3.43476
3.42295
3.40085
3.39256
3.39026
3.38969
3.38956
3.21764
3.25881
3.28513
3.3144
3.33129
3.35033
3.36177
3.37538
3.38365
3.3935
3.39922
3.4057
3.41021
3.41663
3.42101
3.42695
3.43088
3.43608
3.43949
3.44392
3.44681
3.45053
3.45294
3.45603
3.45803
3.46059
3.46225
3.46444
3.46601
3.46837
3.47045
3.47151
3.47255
3.47315
3.47383
3.47423
3.47471
3.47499
3.47533
3.47552
3.47576
3.47589
3.47605
3.47615
3.47625
3.47632
3.47639
3.47643
3.47647
3.47649
3.47652
3.47653
3.47655
3.47656
3.47657
3.47658
3.47659
3.47659
3.4766
3.4766
3.4766
3.4766
3.47659
3.47657
3.47653
3.47647
3.47631
3.47606
3.47542
3.47426
3.47128
3.46662
3.46203
3.45339
3.44471
3.42953
3.42342
3.42166
3.42121
3.42111
3.33122
3.35508
3.37111
3.38845
3.3988
3.41008
3.41709
3.42515
3.43021
3.43604
3.43954
3.44339
3.44616
3.44995
3.45263
3.45614
3.45855
3.46162
3.46371
3.46633
3.46809
3.4703
3.47177
3.4736
3.47482
3.47634
3.47736
3.47865
3.47962
3.48101
3.48225
3.4829
3.48352
3.48389
3.48429
3.48454
3.48482
3.48499
3.48519
3.48531
3.48545
3.48553
3.48563
3.48569
3.48575
3.48579
3.48583
3.48585
3.48588
3.48589
3.48591
3.48592
3.48593
3.48593
3.48594
3.48595
3.48595
3.48595
3.48596
3.48596
3.48596
3.48596
3.48595
3.48594
3.48591
3.48588
3.48578
3.48563
3.48524
3.48453
3.48274
3.47997
3.47715
3.47203
3.46673
3.45785
3.45412
3.45302
3.45273
3.45266
3.44384
3.45166
3.45704
3.46279
3.46627
3.47001
3.47237
3.47504
3.47674
3.47867
3.47985
3.48113
3.48206
3.48331
3.48421
3.48537
3.48619
3.4872
3.4879
3.48877
3.48937
3.4901
3.49059
3.4912
3.49161
3.49211
3.49245
3.49288
3.49321
3.49367
3.49408
3.4943
3.49451
3.49463
3.49476
3.49485
3.49494
3.495
3.49506
3.4951
3.49515
3.49518
3.49521
3.49523
3.49525
3.49526
3.49528
3.49528
3.49529
3.4953
3.4953
3.49531
3.49531
3.49531
3.49531
3.49531
3.49532
3.49532
3.49532
3.49532
3.49532
3.49532
3.49532
3.49531
3.4953
3.49529
3.49526
3.49521
3.49508
3.49484
3.49424
3.49332
3.49237
3.49067
3.48889
3.48597
3.48472
3.48434
3.48424
3.48422
3.43653
3.44409
3.44892
3.45343
3.45587
3.45806
3.45927
3.46041
3.46104
3.46165
3.46206
3.4626
3.46298
3.46348
3.46383
3.46429
3.46462
3.46504
3.46535
3.46575
3.46603
3.46639
3.46665
3.46697
3.4672
3.46748
3.46767
3.46791
3.46809
3.46835
3.46857
3.46869
3.46879
3.46885
3.46891
3.46895
3.46899
3.46901
3.46904
3.46906
3.46907
3.46908
3.46909
3.4691
3.46911
3.46911
3.46911
3.46911
3.46912
3.46912
3.46912
3.46912
3.46911
3.46911
3.46911
3.4691
3.4691
3.46909
3.46908
3.46907
3.46904
3.46902
3.46898
3.46895
3.46888
3.46881
3.46867
3.46851
3.46819
3.46771
3.46664
3.46517
3.46383
3.46163
3.45952
3.4562
3.45478
3.45436
3.45425
3.45422
3.3093
3.33238
3.34676
3.36038
3.36761
3.37422
3.37781
3.38125
3.38313
3.38495
3.38619
3.38781
3.38895
3.39044
3.39149
3.39287
3.39384
3.39513
3.39604
3.39724
3.39809
3.39918
3.39994
3.40092
3.40159
3.40243
3.40301
3.40374
3.40428
3.40505
3.40572
3.40606
3.40638
3.40655
3.40674
3.40685
3.40697
3.40704
3.40712
3.40717
3.40722
3.40725
3.40728
3.4073
3.40732
3.40733
3.40734
3.40734
3.40735
3.40735
3.40735
3.40735
3.40734
3.40734
3.40733
3.40731
3.40729
3.40727
3.40723
3.4072
3.40713
3.40707
3.40695
3.40684
3.40664
3.40642
3.40602
3.40555
3.40457
3.40316
3.39995
3.3955
3.39153
3.3849
3.3786
3.36853
3.36432
3.36307
3.36275
3.36267
3.18113
3.22101
3.24464
3.26759
3.27938
3.2905
3.29636
3.30216
3.30522
3.30828
3.31029
3.31303
3.31489
3.31742
3.31913
3.32147
3.32306
3.32524
3.32673
3.32876
3.33013
3.33199
3.33323
3.33488
3.33597
3.3374
3.33834
3.33957
3.34045
3.34175
3.34288
3.34344
3.34397
3.34426
3.34457
3.34476
3.34496
3.34507
3.34521
3.34528
3.34537
3.34541
3.34547
3.3455
3.34553
3.34555
3.34556
3.34557
3.34558
3.34558
3.34558
3.34558
3.34557
3.34556
3.34554
3.34553
3.34549
3.34545
3.34539
3.34533
3.34522
3.34512
3.34493
3.34474
3.3444
3.34405
3.34337
3.3426
3.34097
3.33868
3.33331
3.32581
3.31933
3.30815
3.29783
3.28063
3.27373
3.27174
3.27123
3.27112
3.05137
3.1103
3.14254
3.17524
3.19118
3.20699
3.21491
3.22318
3.22731
3.23165
3.23437
3.2383
3.24082
3.24443
3.24675
3.25009
3.25225
3.25537
3.25739
3.2603
3.26216
3.26482
3.2665
3.26887
3.27034
3.27239
3.27365
3.27542
3.27661
3.27846
3.28006
3.28082
3.28157
3.28196
3.28241
3.28266
3.28295
3.28311
3.28329
3.28339
3.28352
3.28358
3.28366
3.2837
3.28374
3.28377
3.28379
3.2838
3.28382
3.28382
3.28382
3.28382
3.2838
3.28379
3.28376
3.28374
3.28369
3.28364
3.28355
3.28347
3.28331
3.28317
3.2829
3.28265
3.28216
3.28168
3.28072
3.27969
3.2774
3.27432
3.26675
3.25607
3.24733
3.23137
3.21734
3.19231
3.18295
3.18035
3.17971
3.17956
2.91925
3.00065
3.04042
3.08356
3.10298
3.1238
3.13344
3.14435
3.14939
3.15508
3.1584
3.16361
3.16669
3.17149
3.17433
3.17877
3.18141
3.18555
3.18801
3.19188
3.19415
3.19769
3.19974
3.20289
3.20469
3.2074
3.20895
3.21129
3.21274
3.21518
3.21728
3.2182
3.21918
3.21966
3.22026
3.22056
3.22094
3.22114
3.22138
3.22151
3.22167
3.22175
3.22185
3.2219
3.22196
3.22199
3.22202
3.22204
3.22205
3.22206
3.22206
3.22205
3.22204
3.22202
3.22199
3.22195
3.22189
3.22183
3.22171
3.22161
3.2214
3.22123
3.22087
3.22056
3.21992
3.21934
3.21808
3.21683
3.21387
3.21015
3.20032
3.18627
3.17561
3.15451
3.13729
3.10337
3.09189
3.08889
3.08816
3.088
2.78387
2.89266
2.93816
2.99283
3.01472
3.04105
3.05192
3.06577
3.07145
3.07861
3.08235
3.08902
3.0925
3.09863
3.10184
3.10751
3.1105
3.1158
3.11858
3.12352
3.12609
3.13061
3.13294
3.13696
3.139
3.14247
3.14422
3.14719
3.14883
3.15192
3.15455
3.15558
3.15682
3.15736
3.15812
3.15846
3.15895
3.15917
3.15948
3.15962
3.15983
3.15992
3.16005
3.1601
3.16018
3.16021
3.16026
3.16027
3.16029
3.1603
3.1603
3.16029
3.16027
3.16026
3.16021
3.16017
3.16009
3.16002
3.15987
3.15976
3.15949
3.1593
3.15884
3.1585
3.15768
3.15703
3.15545
3.15404
3.15036
3.14622
3.13406
3.11633
3.10431
3.0775
3.05791
3.01354
3.00051
2.99734
2.9966
2.99643
2.64414
2.7872
2.83553
2.9034
2.92628
2.95892
2.97028
2.98751
2.99344
3.00227
3.00619
3.01455
3.01821
3.02589
3.02926
3.03636
3.0395
3.04614
3.04907
3.05526
3.05796
3.06363
3.06607
3.07111
3.07325
3.0776
3.07944
3.08315
3.08486
3.08868
3.09188
3.09295
3.09449
3.09506
3.096
3.09636
3.09697
3.0972
3.09759
3.09774
3.09799
3.09809
3.09825
3.09831
3.0984
3.09844
3.09849
3.09851
3.09853
3.09854
3.09854
3.09853
3.09851
3.09849
3.09844
3.0984
3.09829
3.09822
3.09803
3.09791
3.09759
3.09738
3.09681
3.09645
3.09544
3.09476
3.0928
3.09134
3.08688
3.08261
3.06803
3.04617
3.03361
3.00021
2.97953
2.92245
2.90873
2.9057
2.90501
2.90486
2.49867
2.68552
2.73212
2.81577
2.83745
2.87764
2.8884
2.9097
2.91532
2.92613
2.92984
2.94026
2.94375
2.95332
2.95653
2.96538
2.96836
2.97663
2.97942
2.98713
2.98971
2.99677
2.99909
3.00538
3.00742
3.01283
3.01458
3.01919
3.02081
3.02546
3.0293
3.0303
3.0322
3.03273
3.03391
3.03425
3.035
3.03522
3.03571
3.03585
3.03617
3.03626
3.03646
3.03651
3.03663
3.03667
3.03673
3.03675
3.03678
3.03678
3.03679
3.03678
3.03675
3.03674
3.03666
3.03663
3.03649
3.03643
3.03619
3.03608
3.03568
3.03548
3.03478
3.03444
3.03319
3.03255
3.03014
3.02877
3.02339
3.01943
3.00229
2.97563
2.96374
2.92241
2.9026
2.82964
2.81652
2.81397
2.81341
2.81329
2.34573
2.58945
2.62722
2.73062
2.74787
2.79753
2.8061
2.83251
2.83699
2.85027
2.85323
2.86626
2.86904
2.881
2.88357
2.89462
2.89701
2.90735
2.90957
2.91921
2.92127
2.9301
2.93196
2.93981
2.94145
2.94821
2.94961
2.95535
2.95664
2.96227
2.96683
2.96762
2.96996
2.97039
2.97185
2.97212
2.97306
2.97324
2.97385
2.97396
2.97436
2.97443
2.97468
2.97472
2.97487
2.9749
2.97498
2.97499
2.97503
2.97503
2.97504
2.97503
2.975
2.97498
2.9749
2.97487
2.9747
2.97465
2.97436
2.97427
2.97376
2.97361
2.97274
2.97246
2.97091
2.9704
2.96745
2.96636
2.95985
2.95677
2.93694
2.90451
2.89506
2.84375
2.82781
2.73443
2.7239
2.72216
2.72179
2.72171
2.18302
2.50161
2.51969
2.64891
2.657
2.71907
2.72309
2.75621
2.7583
2.77483
2.77621
2.79266
2.79398
2.80906
2.81027
2.82421
2.82534
2.83838
2.83943
2.8516
2.85257
2.86371
2.86459
2.8745
2.87527
2.88381
2.88446
2.89169
2.89229
2.89913
2.90452
2.90488
2.90781
2.90801
2.90984
2.90997
2.91116
2.91124
2.91201
2.91207
2.91256
2.91259
2.91291
2.91293
2.91312
2.91313
2.91324
2.91324
2.91329
2.91329
2.91329
2.91329
2.91325
2.91324
2.91313
2.91312
2.91291
2.91288
2.91251
2.91247
2.91184
2.91177
2.91067
2.91054
2.9086
2.90836
2.90468
2.90418
2.89618
2.89478
2.87209
2.83247
2.82806
2.76369
2.75611
2.63592
2.63093
2.6303
2.63017
2.63014
)
;

boundaryField
{
    F1_1
    {
        type            fixedValue;
        value           nonuniform List<scalar> 
80
(
2.09534
2.46397
2.46397
2.6112
2.6112
2.68268
2.68268
2.72256
2.72256
2.74694
2.74694
2.76069
2.76069
2.77587
2.77587
2.79078
2.79078
2.80512
2.80512
2.81868
2.81868
2.83119
2.83119
2.84237
2.84237
2.85202
2.85202
2.86019
2.86019
2.86773
2.87356
2.87356
2.87686
2.87686
2.87894
2.87894
2.88028
2.88028
2.88116
2.88116
2.88172
2.88172
2.88207
2.88207
2.88229
2.88229
2.88241
2.88241
2.88246
2.88246
2.88246
2.88246
2.88241
2.88241
2.88229
2.88229
2.88205
2.88205
2.88163
2.88163
2.88091
2.88091
2.87967
2.87967
2.87747
2.87747
2.87329
2.87329
2.86428
2.86428
2.84008
2.79585
2.79585
2.72264
2.72264
2.58452
2.58452
2.58452
2.58452
2.58452
)
;
    }
    F1_2
    {
        type            fixedValue;
        value           nonuniform List<scalar> 
80
(
2.23762
2.61235
2.61235
2.80556
2.80556
2.93157
2.93157
3.02322
3.02322
3.09045
3.09045
3.13162
3.13162
3.17605
3.17605
3.21682
3.21682
3.25238
3.25238
3.28266
3.28266
3.30806
3.30806
3.32915
3.32915
3.34654
3.34654
3.36108
3.36108
3.37473
3.3857
3.3857
3.39236
3.39236
3.39691
3.39691
3.40013
3.40013
3.40239
3.40239
3.40397
3.40397
3.40505
3.40505
3.40578
3.40578
3.40625
3.40625
3.40655
3.40655
3.4067
3.4067
3.40682
3.40682
3.40691
3.40691
3.40697
3.40697
3.407
3.407
3.40701
3.40701
3.40695
3.40695
3.40673
3.40673
3.40594
3.40594
3.40295
3.40295
3.39095
3.36361
3.36361
3.30795
3.30795
3.18495
3.18495
3.18495
3.18495
3.18495
)
;
    }
    F1_3
    {
        type            fixedValue;
        value           nonuniform List<scalar> 
80
(
2.23762
2.61234
2.61234
2.80554
2.80554
2.93155
2.93155
3.0232
3.0232
3.09042
3.09042
3.1316
3.1316
3.17602
3.17602
3.21679
3.21679
3.25235
3.25235
3.28263
3.28263
3.30803
3.30803
3.32912
3.32912
3.34653
3.34653
3.36106
3.36106
3.37472
3.38569
3.38569
3.39235
3.39235
3.39691
3.39691
3.40012
3.40012
3.40239
3.40239
3.40397
3.40397
3.40505
3.40505
3.40577
3.40577
3.40625
3.40625
3.40654
3.40654
3.40669
3.40669
3.40682
3.40682
3.40691
3.40691
3.40697
3.40697
3.407
3.407
3.407
3.407
3.40695
3.40695
3.40673
3.40673
3.40594
3.40594
3.40295
3.40295
3.39095
3.36362
3.36362
3.30797
3.30797
3.18497
3.18497
3.18497
3.18497
3.18497
)
;
    }
    F1_4
    {
        type            fixedValue;
        value           nonuniform List<scalar> 
80
(
2.09519
2.46363
2.46363
2.61044
2.61044
2.68097
2.68097
2.71866
2.71866
2.73739
2.73739
2.75616
2.75616
2.77336
2.77336
2.78926
2.78926
2.80413
2.80413
2.818
2.818
2.83071
2.83071
2.84202
2.84202
2.85176
2.85176
2.86
2.86
2.8676
2.87348
2.87348
2.87681
2.87681
2.87891
2.87891
2.88027
2.88027
2.88115
2.88115
2.88172
2.88172
2.88208
2.88208
2.88229
2.88229
2.88242
2.88242
2.88247
2.88247
2.88247
2.88247
2.88242
2.88242
2.8823
2.8823
2.88206
2.88206
2.88164
2.88164
2.88092
2.88092
2.87967
2.87967
2.87746
2.87746
2.87328
2.87328
2.86426
2.86426
2.84006
2.7958
2.7958
2.72257
2.72257
2.58441
2.58441
2.58441
2.58441
2.58441
)
;
    }
    F2_1
    {
        type            fixedValue;
        value           uniform 3.5;
    }
    F2_2
    {
        type            fixedValue;
        value           uniform 3.5;
    }
    F2_3
    {
        type            fixedValue;
        value           uniform 3.5;
    }
    F2_4
    {
        type            fixedValue;
        value           uniform 3.5;
    }
    defaultFaces
    {
        type            empty;
    }
}


// ************************************************************************* //
