/*--------------------------------*- C++ -*----------------------------------*\
| =========                 |                                                 |
| \\      /  F ield         | OpenFOAM: The Open Source CFD Toolbox           |
|  \\    /   O peration     | Version:  5.x                                   |
|   \\  /    A nd           | Web:      www.OpenFOAM.org                      |
|    \\/     M anipulation  |                                                 |
\*---------------------------------------------------------------------------*/
FoamFile
{
    version     2.0;
    format      ascii;
    class       volScalarField;
    location    "5.9";
    object      gradTy;
}
// * * * * * * * * * * * * * * * * * * * * * * * * * * * * * * * * * * * * * //

dimensions      [0 -1 0 1 0 0 0];

internalField   nonuniform List<scalar> 
2048
(
-26.4235
-26.3959
-26.3415
-26.2619
-26.1591
-26.0357
-25.8944
-25.7381
-25.5696
-25.3914
-25.2059
-25.0153
-24.8215
-24.6261
-24.4308
-24.2367
-24.0451
-23.8568
-23.6727
-23.4931
-23.3188
-23.1498
-22.9866
-22.8294
-22.6784
-22.5338
-22.3959
-22.2651
-22.1417
-22.0263
-21.9193
-21.8214
-21.7334
-21.656
-21.5903
-21.5373
-21.498
-21.4736
-21.4654
-21.4745
-21.5023
-21.5501
-21.6189
-21.7101
-21.8245
-21.9629
-22.1257
-22.3129
-22.5237
-22.7567
-23.0097
-23.2793
-23.5613
-23.8505
-24.1406
-24.4253
-24.6977
-24.9511
-25.1796
-25.3778
-25.5413
-25.6667
-25.7516
-25.7944
-26.4458
-26.4176
-26.362
-26.2806
-26.1758
-26.0501
-25.9066
-25.7481
-25.5774
-25.3973
-25.2101
-25.0179
-24.8227
-24.6261
-24.4297
-24.2348
-24.0424
-23.8535
-23.6689
-23.489
-23.3143
-23.1452
-22.9818
-22.8244
-22.6732
-22.5284
-22.3902
-22.2591
-22.1353
-22.0194
-21.9119
-21.8134
-21.7247
-21.6466
-21.5801
-21.5261
-21.4859
-21.4605
-21.4513
-21.4594
-21.4862
-21.533
-21.6009
-21.6913
-21.8051
-21.9432
-22.106
-22.2937
-22.5057
-22.7406
-22.9962
-23.2693
-23.5556
-23.8496
-24.1451
-24.4352
-24.713
-24.9714
-25.2041
-25.4058
-25.5721
-25.6994
-25.7856
-25.829
-26.4885
-26.459
-26.401
-26.3163
-26.2075
-26.0775
-25.9295
-25.7667
-25.5921
-25.4083
-25.2178
-25.0227
-24.8249
-24.626
-24.4276
-24.231
-24.0372
-23.8472
-23.6616
-23.4811
-23.3059
-23.1364
-22.9727
-22.8149
-22.6633
-22.5181
-22.3795
-22.2477
-22.1233
-22.0065
-21.898
-21.7984
-21.7084
-21.6289
-21.5608
-21.5051
-21.4631
-21.4359
-21.4247
-21.4308
-21.4557
-21.5005
-21.5667
-21.6555
-21.7682
-21.9056
-22.0684
-22.2571
-22.4711
-22.7095
-22.9701
-23.2499
-23.5442
-23.8477
-24.1534
-24.4542
-24.7422
-25.0101
-25.2511
-25.4595
-25.6309
-25.762
-25.8505
-25.895
-26.5498
-26.5184
-26.4567
-26.3671
-26.2524
-26.1161
-25.9618
-25.7928
-25.6125
-25.4235
-25.2284
-25.0291
-24.8277
-24.6256
-24.4244
-24.2254
-24.0296
-23.838
-23.6513
-23.4698
-23.294
-23.124
-22.9598
-22.8016
-22.6495
-22.5037
-22.3644
-22.2318
-22.1064
-21.9885
-21.8786
-21.7774
-21.6856
-21.604
-21.5336
-21.4756
-21.431
-21.4011
-21.3872
-21.3906
-21.4126
-21.4548
-21.5184
-21.6049
-21.7157
-21.852
-22.0147
-22.2044
-22.4212
-22.6644
-22.932
-23.2211
-23.5272
-23.8442
-24.1649
-24.4811
-24.7841
-25.0657
-25.3185
-25.5365
-25.7151
-25.8512
-25.9429
-25.9889
-26.6282
-26.5942
-26.5278
-26.4315
-26.3091
-26.1645
-26.0018
-25.825
-25.6374
-25.442
-25.2411
-25.0367
-24.8307
-24.6247
-24.42
-24.2179
-24.0197
-23.8262
-23.638
-23.4555
-23.2789
-23.1083
-22.9437
-22.785
-22.6324
-22.4858
-22.3457
-22.2121
-22.0855
-21.9661
-21.8546
-21.7514
-21.6572
-21.5731
-21.4999
-21.4388
-21.3911
-21.3578
-21.3404
-21.3403
-21.3588
-21.3974
-21.4576
-21.5411
-21.6494
-21.784
-21.9461
-22.137
-22.3569
-22.6057
-22.882
-23.1829
-23.5039
-23.8385
-24.1787
-24.5151
-24.8377
-25.137
-25.4049
-25.6349
-25.8225
-25.9647
-26.0601
-26.1079
-26.7228
-26.6856
-26.613
-26.5083
-26.3761
-26.2212
-26.0484
-25.862
-25.6659
-25.4628
-25.2552
-25.045
-24.8337
-24.623
-24.4142
-24.2087
-24.0075
-23.8118
-23.6219
-23.4384
-23.2611
-23.09
-22.9249
-22.7657
-22.6124
-22.4651
-22.324
-22.1892
-22.0612
-21.9402
-21.8267
-21.7212
-21.6244
-21.5372
-21.4607
-21.396
-21.3444
-21.3072
-21.2857
-21.2814
-21.2956
-21.33
-21.3861
-21.4658
-21.5708
-21.703
-21.8641
-22.0556
-22.2787
-22.5338
-22.8199
-23.1348
-23.4738
-23.83
-24.1942
-24.5555
-24.9023
-25.2234
-25.5095
-25.7536
-25.9513
-26.1003
-26.1997
-26.2493
-26.8329
-26.7916
-26.7113
-26.5963
-26.4522
-26.2848
-26.1
-25.9027
-25.6967
-25.4852
-25.2702
-25.0534
-24.8363
-24.6204
-24.407
-24.1974
-23.9931
-23.7949
-23.6033
-23.4187
-23.2407
-23.0692
-22.9037
-22.7441
-22.5901
-22.442
-22.2998
-22.1638
-22.0343
-21.9116
-21.7958
-21.6877
-21.5878
-21.4972
-21.4168
-21.3481
-21.2922
-21.2505
-21.2244
-21.2152
-21.2246
-21.254
-21.3053
-21.3803
-21.4813
-21.6102
-21.7695
-21.9612
-22.1871
-22.4485
-22.7455
-23.0761
-23.4359
-23.8176
-24.2106
-24.602
-24.9777
-25.3246
-25.6317
-25.8917
-26.1003
-26.2562
-26.3595
-26.4108
-26.9582
-26.9119
-26.8222
-26.6946
-26.5362
-26.3542
-26.1555
-25.9457
-25.729
-25.5082
-25.2853
-25.0616
-24.8383
-24.6167
-24.3981
-24.1842
-23.9763
-23.7755
-23.5822
-23.3966
-23.2182
-23.0464
-22.8807
-22.7206
-22.566
-22.4169
-22.2737
-22.1364
-22.0053
-21.8807
-21.7626
-21.6517
-21.5484
-21.4539
-21.3693
-21.296
-21.2354
-21.1887
-21.1575
-21.143
-21.1469
-21.1707
-21.2164
-21.2861
-21.3821
-21.5069
-21.6633
-21.8542
-22.0824
-22.3499
-22.658
-23.0058
-23.3892
-23.8003
-24.227
-24.6539
-25.0637
-25.4405
-25.7714
-26.0484
-26.2683
-26.4307
-26.5374
-26.5901
-27.0985
-27.046
-26.9449
-26.8022
-26.6269
-26.4279
-26.2135
-25.9899
-25.7616
-25.5312
-25.3002
-25.0693
-24.8395
-24.6117
-24.3877
-24.1689
-23.9572
-23.7536
-23.5586
-23.3722
-23.1937
-23.0219
-22.8562
-22.6958
-22.5405
-22.3905
-22.246
-22.1074
-21.9748
-21.8482
-21.7278
-21.6138
-21.5069
-21.4082
-21.3189
-21.2407
-21.1748
-21.1228
-21.086
-21.0659
-21.0638
-21.0814
-21.1209
-21.1843
-21.2744
-21.3941
-21.5466
-21.7356
-21.9648
-22.2377
-22.557
-22.9229
-23.3323
-23.7768
-24.2427
-24.711
-25.1606
-25.5715
-25.9286
-26.2236
-26.4542
-26.6223
-26.7314
-26.7849
-27.2538
-27.1939
-27.079
-26.9184
-26.7232
-26.5048
-26.2727
-26.0341
-25.7937
-25.5535
-25.3144
-25.0763
-24.8397
-24.6056
-24.3755
-24.1515
-23.9356
-23.7291
-23.5327
-23.3458
-23.1674
-22.9961
-22.8306
-22.6699
-22.514
-22.3629
-22.2172
-22.0773
-21.9432
-21.8147
-21.6918
-21.5746
-21.4639
-21.3606
-21.2663
-21.1827
-21.1113
-21.0536
-21.011
-20.9848
-20.9763
-20.9872
-21.0197
-21.0762
-21.1595
-21.273
-21.4203
-21.6058
-21.8346
-22.1117
-22.4414
-22.8262
-23.2638
-23.7459
-24.2567
-24.7733
-25.2689
-25.7185
-26.1041
-26.4171
-26.6574
-26.8293
-26.9394
-26.9928
-27.4245
-27.3555
-27.2242
-27.0423
-26.824
-26.5833
-26.3316
-26.0771
-25.8243
-25.5745
-25.3275
-25.0824
-24.839
-24.5982
-24.3616
-24.1319
-23.9115
-23.7021
-23.5043
-23.3174
-23.1398
-22.9693
-22.8043
-22.6435
-22.4868
-22.3345
-22.1875
-22.0463
-21.9108
-21.7806
-21.6553
-21.5349
-21.4199
-21.3117
-21.212
-21.1227
-21.0455
-20.9819
-20.9332
-20.9006
-20.8854
-20.8892
-20.9142
-20.9629
-21.0386
-21.1446
-21.2853
-21.4658
-21.6923
-21.9717
-22.3107
-22.7141
-23.1818
-23.7057
-24.2679
-24.8405
-25.3894
-25.8827
-26.2986
-26.6291
-26.8768
-27.0502
-27.1592
-27.2115
-27.611
-27.5312
-27.3802
-27.173
-26.9279
-26.6621
-26.3891
-26.1178
-25.8525
-25.5936
-25.3394
-25.0877
-24.8376
-24.5896
-24.346
-24.11
-23.8847
-23.6723
-23.4734
-23.2871
-23.1109
-22.9419
-22.7777
-22.6168
-22.4592
-22.3056
-22.1572
-22.0147
-21.878
-21.7463
-21.6187
-21.4949
-21.3756
-21.2621
-21.1566
-21.0612
-20.9779
-20.9083
-20.8534
-20.8143
-20.792
-20.7883
-20.8052
-20.8455
-20.9125
-21.0101
-21.1427
-21.3164
-21.5384
-21.8177
-22.164
-22.5853
-23.0845
-23.6544
-24.2752
-24.9128
-25.5234
-26.0657
-26.5134
-26.8597
-27.1117
-27.2833
-27.3885
-27.4383
-27.814
-27.7211
-27.5466
-27.3098
-27.0337
-26.7397
-26.4435
-26.1548
-25.8775
-25.6105
-25.35
-25.0922
-24.8355
-24.5801
-24.3288
-24.0857
-23.8551
-23.6397
-23.4401
-23.255
-23.081
-22.9142
-22.7511
-22.5903
-22.4317
-22.2764
-22.1263
-21.9827
-21.8452
-21.7123
-21.5826
-21.4554
-21.3314
-21.2122
-21.1004
-20.9987
-20.9091
-20.8333
-20.7722
-20.7265
-20.697
-20.6853
-20.6936
-20.7249
-20.7826
-20.8706
-20.9937
-21.1585
-21.3735
-21.6498
-22.0005
-22.4382
-22.9696
-23.5898
-24.277
-24.9903
-25.6727
-26.2698
-26.7502
-27.1093
-27.3612
-27.5266
-27.625
-27.6706
-28.0343
-27.9258
-27.7234
-27.4517
-27.14
-26.8146
-26.4935
-26.187
-25.8985
-25.6248
-25.3594
-25.0963
-24.833
-24.5699
-24.31
-24.0589
-23.8225
-23.604
-23.4041
-23.2211
-23.0504
-22.8866
-22.7251
-22.5644
-22.4044
-22.247
-22.0949
-21.9503
-21.8124
-21.6789
-21.5472
-21.4167
-21.2878
-21.1624
-21.0439
-20.9354
-20.8395
-20.7574
-20.6901
-20.6379
-20.6012
-20.5812
-20.5805
-20.6022
-20.6498
-20.7272
-20.8394
-20.9934
-21.1985
-21.4681
-21.8196
-22.2711
-22.8348
-23.509
-24.2715
-25.0731
-25.8394
-26.4979
-27.0107
-27.3783
-27.6243
-27.7783
-27.8662
-27.9057
-28.2729
-28.1457
-27.9104
-27.5978
-27.2452
-26.8851
-26.5375
-26.2132
-25.9149
-25.6364
-25.3677
-25.1002
-24.8307
-24.5594
-24.2897
-24.0295
-23.7868
-23.5651
-23.3654
-23.1855
-23.0194
-22.8595
-22.7001
-22.5393
-22.3777
-22.2175
-22.063
-21.9176
-21.78
-21.6464
-21.5132
-21.3792
-21.2451
-21.113
-20.9871
-20.8717
-20.7693
-20.6811
-20.6078
-20.5492
-20.5051
-20.4767
-20.4665
-20.4781
-20.5151
-20.5812
-20.6811
-20.8222
-21.0145
-21.2733
-21.6209
-22.0823
-22.6774
-23.4091
-24.2562
-25.1613
-26.0265
-26.7536
-27.2973
-27.667
-27.8996
-28.0361
-28.1093
-28.1407
-28.5312
-28.3815
-28.1074
-27.7469
-27.3476
-26.9497
-26.5741
-26.2321
-25.9258
-25.6451
-25.3754
-25.1045
-24.8288
-24.5489
-24.2681
-23.9973
-23.7477
-23.5228
-23.3237
-23.1482
-22.9882
-22.8336
-22.6765
-22.5155
-22.3518
-22.1878
-22.0304
-21.8845
-21.7481
-21.6153
-21.4807
-21.3433
-21.2039
-21.0644
-20.9304
-20.8078
-20.6987
-20.6045
-20.5255
-20.4609
-20.4096
-20.3725
-20.3523
-20.3534
-20.3793
-20.4335
-20.52
-20.6463
-20.8228
-21.066
-21.404
-21.8703
-22.4946
-23.2864
-24.2279
-25.2551
-26.238
-27.0413
-27.6124
-27.9753
-28.1857
-28.2977
-28.3518
-28.373
-28.8104
-28.6339
-28.3144
-27.8979
-27.4453
-27.0066
-26.602
-26.2425
-25.9307
-25.6511
-25.3831
-25.1096
-24.8278
-24.539
-24.2452
-23.9619
-23.7049
-23.4767
-23.2786
-23.1092
-22.9573
-22.8092
-22.6548
-22.4933
-22.327
-22.1581
-21.9967
-21.8508
-21.7167
-21.5859
-21.4504
-21.3095
-21.1644
-21.0166
-20.8737
-20.7437
-20.6281
-20.528
-20.4438
-20.3735
-20.3152
-20.2691
-20.2386
-20.2287
-20.2435
-20.2852
-20.3572
-20.4673
-20.625
-20.8473
-21.1688
-21.6336
-22.2838
-23.1369
-24.1825
-25.3544
-26.4789
-27.3664
-27.9586
-28.3032
-28.4805
-28.5604
-28.5908
-28.5997
-29.1122
-28.9035
-28.5316
-28.0495
-27.536
-27.0543
-26.6197
-26.2431
-25.9291
-25.6545
-25.3914
-25.116
-24.8283
-24.5306
-24.2212
-23.9229
-23.6583
-23.4268
-23.2299
-23.0685
-22.9269
-22.7872
-22.6354
-22.4731
-22.3038
-22.1283
-21.9614
-21.8163
-21.6861
-21.5586
-21.4224
-21.2779
-21.1272
-20.9699
-20.817
-20.6795
-20.5575
-20.4516
-20.3629
-20.2876
-20.2225
-20.1671
-20.1257
-20.1046
-20.1082
-20.1374
-20.194
-20.2867
-20.423
-20.6185
-20.9156
-21.3706
-22.0421
-22.956
-24.1143
-25.4587
-26.7559
-27.7355
-28.3384
-28.6497
-28.7816
-28.8214
-28.8237
-28.8184
-29.4384
-29.1907
-28.7591
-28.2002
-27.6171
-27.0915
-26.6263
-26.2324
-25.9205
-25.6557
-25.4016
-25.1244
-24.8306
-24.5246
-24.1964
-23.8795
-23.6078
-23.3727
-23.177
-23.026
-22.8974
-22.7684
-22.6187
-22.455
-22.2828
-22.0981
-21.9238
-21.7805
-21.6564
-21.5342
-21.397
-21.2489
-21.0929
-20.9245
-20.76
-20.6154
-20.4871
-20.3755
-20.2831
-20.2035
-20.1321
-20.067
-20.0141
-19.9815
-19.9742
-19.9911
-20.0315
-20.1061
-20.2191
-20.3814
-20.645
-21.08
-21.7674
-22.7389
-24.0157
-25.5671
-27.0778
-28.1562
-28.7542
-29.0135
-29.0864
-29.0778
-29.0478
-29.0266
-29.7913
-29.4957
-28.9978
-28.3483
-27.6851
-27.1172
-26.6208
-26.2087
-25.9044
-25.6551
-25.415
-25.1352
-24.8348
-24.5225
-24.1707
-23.8305
-23.5534
-23.3146
-23.119
-22.9817
-22.8693
-22.7537
-22.6051
-22.439
-22.2647
-22.0676
-21.8827
-21.7432
-21.6276
-21.5133
-21.3746
-21.2224
-21.062
-20.8804
-20.7021
-20.5513
-20.4169
-20.2996
-20.2047
-20.1218
-20.0447
-19.9692
-19.9041
-19.8595
-19.842
-19.8473
-19.8704
-19.927
-20.016
-20.1379
-20.3579
-20.7605
-21.4578
-22.4811
-23.8763
-25.6774
-27.4567
-28.6376
-29.2078
-29.3922
-29.3913
-29.3267
-29.2607
-29.2222
-30.1732
-29.8179
-29.2488
-28.4921
-27.736
-27.1309
-26.6028
-26.1698
-25.8807
-25.6531
-25.4339
-25.1486
-24.8406
-24.5264
-24.1444
-23.7743
-23.4956
-23.2525
-23.0548
-22.9355
-22.8429
-22.7447
-22.5946
-22.4251
-22.2509
-22.0366
-21.8367
-21.7038
-21.5999
-21.4969
-21.3553
-21.1983
-21.0357
-20.8378
-20.6427
-20.4876
-20.3473
-20.2236
-20.1279
-20.0428
-19.9607
-19.8742
-19.7957
-19.7388
-19.7122
-19.707
-19.7112
-19.7509
-19.8166
-19.8901
-20.0558
-20.4106
-21.1124
-22.1786
-23.6821
-25.7863
-27.9089
-29.1899
-29.6998
-29.7825
-29.6927
-29.5649
-29.4602
-29.4036
-30.5875
-30.1556
-29.5147
-28.6295
-27.7639
-27.1334
-26.5724
-26.1129
-25.8496
-25.65
-25.4609
-25.1645
-24.8471
-24.5393
-24.1176
-23.708
-23.4353
-23.1868
-22.9826
-22.8877
-22.8185
-22.7431
-22.5874
-22.4124
-22.2431
-22.0049
-21.7834
-21.6622
-21.5732
-21.4865
-21.3389
-21.176
-21.0154
-20.7966
-20.5804
-20.4246
-20.2784
-20.1471
-20.0531
-19.9667
-19.8811
-19.7822
-19.6891
-19.6192
-19.585
-19.5715
-19.5541
-19.5788
-19.6248
-19.6404
-19.7407
-20.0281
-20.7319
-21.8289
-23.4139
-25.8881
-28.457
-29.8242
-30.2292
-30.1796
-29.9862
-29.7896
-29.6444
-29.5692
-31.038
-30.505
-29.7996
-28.7586
-27.7612
-27.127
-26.5305
-26.0337
-25.8119
-25.6457
-25.5003
-25.1824
-24.8521
-24.566
-24.0904
-23.6274
-23.3746
-23.1184
-22.8998
-22.8387
-22.7959
-22.7516
-22.5829
-22.3995
-22.2443
-21.9725
-21.7199
-21.6184
-21.5475
-21.4842
-21.3252
-21.1544
-21.0032
-20.757
-20.5132
-20.3631
-20.2106
-20.0692
-19.9805
-19.8939
-19.8065
-19.6935
-19.5842
-19.5003
-19.4609
-19.4425
-19.3985
-19.4116
-19.4452
-19.3908
-19.4157
-19.6098
-20.3184
-21.4329
-23.0459
-25.9738
-29.132
-30.552
-30.793
-30.5776
-30.2674
-29.9981
-29.8118
-29.7181
-31.5302
-30.8593
-30.1107
-28.877
-27.7169
-27.1163
-26.4789
-25.9264
-25.7692
-25.6392
-25.5577
-25.2011
-24.8519
-24.6132
-24.063
-23.5262
-23.3169
-23.0485
-22.8025
-22.7897
-22.7744
-22.7741
-22.5803
-22.3841
-22.2588
-21.9392
-21.6419
-21.5729
-21.522
-21.493
-21.3134
-21.1316
-21.0025
-20.7187
-20.4382
-20.3046
-20.1445
-19.9887
-19.9108
-19.8244
-19.7382
-19.6083
-19.481
-19.3816
-19.3397
-19.3219
-19.2433
-19.2493
-19.2833
-19.143
-19.0853
-19.1506
-19.8759
-20.9965
-22.5431
-26.0295
-29.9769
-31.3838
-31.385
-30.9694
-30.5316
-30.188
-29.9612
-29.8497
-32.0716
-31.2066
-30.4591
-28.9825
-27.6159
-27.1098
-26.4205
-25.7824
-25.7255
-25.628
-25.6414
-25.2181
-24.8402
-24.691
-24.0353
-23.3951
-23.2678
-22.9794
-22.6851
-22.7431
-22.7524
-22.8159
-22.5781
-22.362
-22.2929
-21.9051
-21.5433
-21.5275
-21.4953
-21.5172
-21.3024
-21.1043
-21.018
-20.6818
-20.3511
-20.2513
-20.0808
-19.9035
-19.8449
-19.758
-19.6774
-19.5265
-19.3793
-19.2619
-19.2212
-19.213
-19.0859
-19.0911
-19.1468
-18.8973
-18.7562
-18.642
-19.4109
-20.5337
-21.8588
-26.0346
-31.0516
-32.3274
-31.9954
-31.3465
-30.7745
-30.3572
-30.0919
-29.9638
-32.6724
-31.5279
-30.8621
-29.0728
-27.4368
-27.1209
-26.3596
-25.5888
-25.6873
-25.6067
-25.7632
-25.2302
-24.8072
-24.814
-24.0073
-23.2205
-23.2361
-22.9137
-22.539
-22.703
-22.7262
-22.8847
-22.5739
-22.3268
-22.3561
-21.87
-21.4159
-21.4855
-21.4647
-21.563
-21.2903
-21.0675
-21.0567
-20.646
-20.2457
-20.2071
-20.0205
-19.8107
-19.7847
-19.6938
-19.626
-19.4479
-19.2792
-19.1402
-19.1049
-19.1202
-18.9227
-18.9351
-19.0454
-18.652
-18.4385
-18.0708
-18.9318
-20.0709
-20.9308
-25.9592
-32.4381
-33.385
-32.61
-31.7
-30.992
-30.5045
-30.2036
-30.0605
-33.3477
-31.7938
-31.346
-29.1456
-27.1499
-27.1702
-26.302
-25.3275
-25.6663
-25.5656
-25.9401
-25.2321
-24.7381
-25.0027
-23.9789
-22.9833
-23.2352
-22.8554
-22.3521
-22.677
-22.6894
-22.9916
-22.5644
-22.269
-22.4617
-21.8335
-21.2481
-21.4532
-21.425
-21.6393
-21.2744
-21.0139
-21.1287
-20.6109
-20.1132
-20.1778
-19.9648
-19.7058
-19.7327
-19.6305
-19.5865
-19.3719
-19.1809
-19.0146
-18.9892
-19.0501
-18.7483
-18.7773
-18.9926
-18.4017
-18.148
-17.4167
-18.4489
-19.6519
-19.6777
-25.7601
-34.2495
-34.5486
-33.2102
-32.0204
-31.1805
-30.6288
-30.2965
-30.1404
-34.1182
-31.9599
-31.9491
-29.1989
-26.7139
-27.2883
-26.2554
-24.9721
-25.6809
-25.4883
-26.1959
-25.2167
-24.6114
-25.2865
-23.9493
-22.6565
-23.2848
-22.8094
-22.107
-22.677
-22.6311
-23.1524
-22.5448
-22.1747
-22.6284
-21.7952
-21.0242
-21.4409
-21.3677
-21.7587
-21.2509
-20.9325
-21.2483
-20.5757
-19.9415
-20.172
-19.9153
-19.5826
-19.6933
-19.5652
-19.5625
-19.2973
-19.0849
-18.8832
-18.8716
-19.012
-18.5551
-18.6116
-19.0067
-18.1354
-17.9081
-16.6496
-17.9732
-19.3443
-17.9931
-25.3771
-36.6387
-35.7943
-33.7727
-32.2987
-31.3376
-30.73
-30.3712
-30.2041
-35.0136
-31.9619
-32.7266
-29.2302
-26.0726
-27.5186
-26.2289
-24.4861
-25.7605
-25.3485
-26.564
-25.1746
-24.3964
-25.7054
-23.9178
-22.203
-23.4128
-22.782
-21.7792
-22.7219
-22.534
-23.3888
-22.5087
-22.0241
-22.8821
-21.7541
-20.723
-21.4648
-21.2791
-21.9387
-21.2146
-20.8083
-21.4351
-20.5392
-19.7139
-20.202
-19.8736
-19.4322
-19.673
-19.4936
-19.5586
-19.2222
-18.9922
-18.7436
-18.7481
-19.0194
-18.3327
-18.4284
-19.113
-17.8337
-17.7538
-15.7266
-17.5145
-19.2485
-15.7411
-24.7268
-39.8116
-37.0737
-34.2709
-32.5272
-31.4618
-30.8084
-30.4284
-30.2527
-36.0747
-31.7087
-33.7557
-29.2374
-25.1506
-27.9219
-26.2338
-23.8189
-25.949
-25.1057
-27.0903
-25.0932
-24.0511
-26.3134
-23.8828
-21.5732
-23.6583
-22.7807
-21.3353
-22.8404
-22.3715
-23.7312
-22.4476
-21.7903
-23.2578
-21.7081
-20.3161
-21.5497
-21.1378
-22.2037
-21.1585
-20.6202
-21.7157
-20.4996
-19.4082
-20.2855
-19.8412
-19.2427
-19.6817
-19.4088
-19.5819
-19.1432
-18.9047
-18.5931
-18.6122
-19.0907
-18.0675
-18.2139
-19.3464
-17.4652
-17.7364
-14.5881
-17.0794
-19.507
-12.7487
-23.6962
-44.0417
-38.3039
-34.6764
-32.7001
-31.5527
-30.8649
-30.4692
-30.2873
-37.3575
-31.074
-35.1421
-29.2176
-23.8483
-28.5807
-26.2829
-22.9018
-26.3105
-24.7002
-27.8374
-24.9565
-23.5182
-27.1827
-23.8418
-20.7012
-24.0745
-22.8141
-20.7299
-23.0744
-22.1043
-24.2207
-22.3508
-21.4364
-23.802
-21.6546
-19.7658
-21.7314
-20.9124
-22.5865
-21.0738
-20.3403
-22.1258
-20.4541
-18.9951
-20.4463
-19.8198
-18.9979
-19.7335
-19.3004
-19.6416
-19.0554
-18.8256
-18.4289
-18.4542
-19.2509
-17.7423
-17.9485
-19.7543
-16.9813
-17.9289
-13.1535
-16.6675
-20.3161
-8.79995
-22.1347
-49.6875
-39.3536
-34.9629
-32.8143
-31.6112
-30.9008
-30.4951
-30.3092
-38.9368
-29.8872
-37.0284
-29.1675
-22.036
-29.6045
-26.3907
-21.6444
-26.9378
-24.0473
-28.8901
-24.7453
-22.7226
-28.4069
-23.7915
-19.5021
-24.7324
-22.8925
-19.9025
-23.4837
-21.6761
-24.9123
-22.2047
-20.9141
-24.5757
-21.5889
-19.0233
-22.061
-20.5573
-23.1312
-20.9492
-19.9314
-22.712
-20.3987
-18.4368
-20.7163
-19.8103
-18.6764
-19.8485
-19.1535
-19.7508
-18.9515
-18.7591
-18.248
-18.2599
-19.5333
-17.335
-17.605
-20.4011
-16.3104
-18.4332
-11.3164
-16.2663
-21.9388
-3.62782
-19.844
-57.2128
-40.0272
-35.1107
-32.8701
-31.6394
-30.918
-30.5074
-30.3196
)
;

boundaryField
{
    left
    {
        type            calculated;
        value           nonuniform List<scalar> 
32
(
-26.4235
-26.4458
-26.4885
-26.5498
-26.6282
-26.7228
-26.8329
-26.9582
-27.0985
-27.2538
-27.4245
-27.611
-27.814
-28.0343
-28.2729
-28.5312
-28.8104
-29.1122
-29.4384
-29.7913
-30.1732
-30.5875
-31.038
-31.5302
-32.0716
-32.6724
-33.3477
-34.1182
-35.0136
-36.0747
-37.3575
-38.9368
)
;
    }
    right
    {
        type            calculated;
        value           nonuniform List<scalar> 
32
(
-25.7944
-25.829
-25.895
-25.9889
-26.1079
-26.2493
-26.4108
-26.5901
-26.7849
-26.9928
-27.2115
-27.4383
-27.6706
-27.9057
-28.1407
-28.373
-28.5997
-28.8184
-29.0266
-29.2222
-29.4036
-29.5692
-29.7181
-29.8497
-29.9638
-30.0605
-30.1404
-30.2041
-30.2527
-30.2873
-30.3092
-30.3196
)
;
    }
    interface
    {
        type            calculated;
        value           nonuniform List<scalar> 
64
(
-39.8112
-29.1314
-38.1169
-29.1343
-20.9841
-30.2233
-26.4612
-20.9179
-27.3316
-23.6468
-29.5051
-24.6185
-22.2485
-29.1209
-23.7634
-18.8089
-25.132
-22.9444
-19.4248
-23.7409
-21.4134
-25.3165
-22.1175
-20.6041
-25.0286
-21.5525
-18.5971
-22.2702
-20.3407
-23.4503
-20.8753
-19.6896
-23.0557
-20.368
-18.1159
-20.8831
-19.8085
-18.4935
-19.9249
-19.0683
-19.8196
-18.8945
-18.7298
-18.1531
-18.1516
-19.7097
-17.1077
-17.4097
-20.7934
-15.9176
-18.7781
-10.2822
-16.0659
-22.991
-0.699117
-18.4882
-61.5106
-40.241
-35.1481
-32.8837
-31.6462
-30.9222
-30.5104
-30.3221
)
;
    }
    bottom
    {
        type            calculated;
        value           nonuniform List<scalar> 
64
(
-26.4177
-26.3903
-26.3362
-26.257
-26.1547
-26.0319
-25.8912
-25.7355
-25.5675
-25.3898
-25.2048
-25.0146
-24.8211
-24.6261
-24.431
-24.2372
-24.0458
-23.8577
-23.6736
-23.4942
-23.3199
-23.151
-22.9879
-22.8307
-22.6798
-22.5352
-22.3974
-22.2667
-22.1434
-22.0281
-21.9212
-21.8235
-21.7357
-21.6585
-21.593
-21.5402
-21.5011
-21.477
-21.469
-21.4785
-21.5065
-21.5545
-21.6236
-21.715
-21.8296
-21.9681
-22.1308
-22.3178
-22.5283
-22.7609
-23.0132
-23.2819
-23.5628
-23.8507
-24.1395
-24.4227
-24.6937
-24.9459
-25.1732
-25.3705
-25.5333
-25.6581
-25.7427
-25.7854
)
;
    }
    defaultFaces
    {
        type            empty;
    }
}


// ************************************************************************* //
