/*--------------------------------*- C++ -*----------------------------------*\
| =========                 |                                                 |
| \\      /  F ield         | OpenFOAM: The Open Source CFD Toolbox           |
|  \\    /   O peration     | Version:  5.x                                   |
|   \\  /    A nd           | Web:      www.OpenFOAM.org                      |
|    \\/     M anipulation  |                                                 |
\*---------------------------------------------------------------------------*/
FoamFile
{
    version     2.0;
    format      ascii;
    class       volScalarField;
    location    "4.2999";
    object      gradTx;
}
// * * * * * * * * * * * * * * * * * * * * * * * * * * * * * * * * * * * * * //

dimensions      [0 -1 0 1 0 0 0];

internalField   nonuniform List<scalar> 
6300
(
-30.722
-30.7923
-30.9321
-31.1401
-31.4141
-31.7509
-32.1463
-32.5951
-33.0904
-33.6245
-34.1881
-34.771
-35.3624
-35.9513
-36.5272
-30.6518
-30.7228
-30.864
-31.0742
-31.3514
-31.6923
-32.0931
-32.5485
-33.0518
-33.595
-34.1689
-34.7627
-35.365
-35.9643
-36.5493
-30.5108
-30.583
-30.727
-30.9416
-31.2248
-31.574
-31.9855
-32.454
-32.9733
-33.5351
-34.1297
-34.7458
-35.3708
-35.9917
-36.5956
-30.2975
-30.3717
-30.5195
-30.7403
-31.0324
-31.3936
-31.8207
-32.309
-32.8523
-33.4425
-34.0692
-34.7201
-35.3809
-36.036
-36.6701
-30.0102
-30.0867
-30.2393
-30.4677
-30.7709
-31.1475
-31.5948
-32.1091
-32.6846
-33.3134
-33.9847
-34.6847
-35.3967
-36.1017
-36.7796
-29.6466
-29.7255
-29.8834
-30.1204
-30.4363
-30.8306
-31.3021
-31.848
-32.4637
-33.1418
-33.8715
-34.6374
-35.4197
-36.1944
-36.9347
-29.2041
-29.2855
-29.4485
-29.6942
-30.0233
-30.4368
-30.935
-31.5172
-32.1805
-32.9189
-33.7221
-34.5737
-35.4504
-36.3216
-37.1502
-28.6804
-28.7638
-28.9312
-29.1845
-29.526
-29.9582
-30.4841
-31.1053
-31.8222
-32.6314
-33.5244
-34.485
-35.4869
-36.4914
-37.4472
-28.0735
-28.158
-28.3282
-28.5868
-28.9379
-29.3863
-29.9378
-30.598
-31.3716
-32.26
-33.2591
-34.3551
-35.5208
-36.71
-37.8533
-27.3823
-27.4665
-27.6367
-27.8968
-28.2525
-28.7113
-29.2828
-29.9775
-30.8063
-31.7782
-32.8969
-34.1557
-35.5313
-36.9748
-38.3998
-26.6069
-26.689
-26.8555
-27.1114
-27.464
-27.9239
-28.5046
-29.2229
-30.098
-31.1497
-32.3946
-33.8397
-35.4739
-37.258
-39.1074
-25.7495
-25.8271
-25.9852
-26.2292
-26.5684
-27.0157
-27.5889
-28.3116
-29.2132
-30.3282
-31.6922
-33.3345
-35.2665
-37.4761
-39.9348
-24.8145
-24.885
-25.0288
-25.2521
-25.5647
-25.9815
-26.5238
-27.2215
-28.1151
-29.2575
-30.7115
-32.5394
-34.7814
-37.4448
-40.6203
-23.8091
-23.8695
-23.9931
-24.1857
-24.457
-24.822
-25.3035
-25.9354
-26.7683
-27.8752
-29.3567
-31.3302
-33.8748
-36.9016
-40.2593
-22.7433
-22.791
-22.8886
-23.0407
-23.2556
-23.5461
-23.9328
-24.4486
-25.1473
-26.1184
-27.5097
-29.5497
-32.4863
-36.0297
-36.607
-37.0369
-37.4786
-37.8971
-38.2908
-38.6587
-39.0009
-39.3177
-39.6098
-39.8774
-40.1205
-40.3387
-40.5309
-40.6965
-40.8346
-40.9453
-41.0294
-41.0889
-41.1267
-41.1465
-41.1524
-41.1485
-41.1386
-41.1253
-41.1104
-41.0943
-41.0763
-41.0549
-41.0281
-40.9941
-40.9512
-40.8989
-40.8373
-40.7679
-40.6928
-40.6147
-40.5364
-40.4602
-40.388
-40.3203
-40.2568
-40.1962
-40.1364
-40.0749
-40.0094
-39.938
-39.8598
-39.7747
-39.6838
-39.589
-39.4926
-39.3973
-39.3053
-39.218
-39.1362
-39.0592
-38.9859
-38.9141
-38.8414
-38.7656
-38.6847
-38.5979
-38.505
-38.4072
-38.3063
-38.2047
-38.1048
-38.0089
-37.9186
-37.8346
-37.7567
-37.6838
-37.6144
-37.5466
-37.4787
-37.4098
-37.3399
-37.27
-37.2026
-37.141
-37.0892
-37.0516
-37.032
-37.0337
-37.0584
-37.1064
-37.1762
-37.2643
-37.3656
-37.4739
-37.5821
-37.0658
-37.5118
-37.9331
-38.328
-38.6959
-39.0374
-39.3535
-39.645
-39.9127
-40.1566
-40.376
-40.5696
-40.736
-40.8741
-40.9836
-41.065
-41.1203
-41.1527
-41.1666
-41.1665
-41.1574
-41.1434
-41.1278
-41.1122
-41.097
-41.0812
-41.0626
-41.0387
-41.0068
-40.9649
-40.9121
-40.8487
-40.7761
-40.6972
-40.6151
-40.5333
-40.4547
-40.3814
-40.3142
-40.2527
-40.1951
-40.1388
-40.0807
-40.0178
-39.9479
-39.8697
-39.7831
-39.6894
-39.5911
-39.4911
-39.3926
-39.2984
-39.2103
-39.129
-39.054
-38.9837
-38.9153
-38.846
-38.7727
-38.6933
-38.6064
-38.5121
-38.4117
-38.3073
-38.2021
-38.099
-38.0008
-37.9094
-37.8257
-37.7493
-37.6788
-37.6121
-37.5466
-37.4802
-37.4113
-37.3396
-37.2664
-37.1941
-37.1267
-37.0688
-37.0255
-37.0014
-37.0004
-37.0248
-37.0751
-37.1498
-37.2451
-37.3555
-37.4739
-37.5923
-37.126
-37.5808
-38.0072
-38.404
-38.7713
-39.1108
-39.4246
-39.7147
-39.9825
-40.2281
-40.4504
-40.6474
-40.8164
-40.9552
-41.0624
-41.1382
-41.1847
-41.2057
-41.2066
-41.1938
-41.1733
-41.1508
-41.1301
-41.1135
-41.1008
-41.0902
-41.0782
-41.0608
-41.0339
-40.9945
-40.9408
-40.8731
-40.7937
-40.7061
-40.6151
-40.5255
-40.4415
-40.366
-40.3001
-40.243
-40.1921
-40.1437
-40.0933
-40.0365
-39.9699
-39.8916
-39.8016
-39.7018
-39.5957
-39.4875
-39.3818
-39.2826
-39.1926
-39.1127
-39.0422
-38.9785
-38.9179
-38.8561
-38.7887
-38.7125
-38.6256
-38.5281
-38.4216
-38.3096
-38.1963
-38.0861
-37.9828
-37.8891
-37.8062
-37.7334
-37.6684
-37.6078
-37.5479
-37.485
-37.4166
-37.3416
-37.2613
-37.1786
-37.0986
-37.0274
-36.9716
-36.9375
-36.9304
-36.9537
-37.0086
-37.0935
-37.2041
-37.3337
-37.4736
-37.6139
-37.2224
-37.6907
-38.1243
-38.5224
-38.8869
-39.2212
-39.5298
-39.8167
-40.0844
-40.3333
-40.5616
-40.7655
-40.9404
-41.0818
-41.1865
-41.2538
-41.2858
-41.2876
-41.2668
-41.232
-41.1924
-41.1555
-41.1269
-41.1091
-41.1017
-41.1011
-41.1017
-41.0966
-41.0793
-41.0446
-40.9896
-40.9146
-40.8229
-40.72
-40.6132
-40.5098
-40.4162
-40.3368
-40.2732
-40.2242
-40.1857
-40.1517
-40.1151
-40.0692
-40.0086
-39.9302
-39.8342
-39.7234
-39.6031
-39.4802
-39.3616
-39.2536
-39.1602
-39.0829
-39.0204
-38.9689
-38.9224
-38.8741
-38.8174
-38.747
-38.6601
-38.5567
-38.4395
-38.3138
-38.186
-38.0631
-37.9508
-37.8533
-37.7721
-37.706
-37.6514
-37.6026
-37.5534
-37.4978
-37.4311
-37.3513
-37.2594
-37.1593
-37.0578
-36.9637
-36.8862
-36.8346
-36.8165
-36.8371
-36.8988
-37
-37.1357
-37.2971
-37.4727
-37.6492
-37.3637
-37.8505
-38.2925
-38.6895
-39.0459
-39.3688
-39.6665
-39.9465
-40.2135
-40.4683
-40.7079
-40.9255
-41.1127
-41.2612
-41.3646
-41.4202
-41.4304
-41.4023
-41.3469
-41.2775
-41.2075
-41.1483
-41.108
-41.09
-41.0929
-41.1104
-41.1333
-41.1501
-41.1499
-41.1239
-41.0673
-40.9804
-40.8681
-40.7396
-40.6063
-40.4799
-40.3705
-40.2849
-40.2255
-40.1903
-40.1728
-40.1633
-40.1504
-40.1231
-40.0728
-39.9944
-39.8881
-39.7585
-39.6143
-39.4665
-39.3264
-39.2035
-39.1045
-39.0317
-38.9829
-38.9519
-38.9293
-38.9041
-38.8656
-38.8053
-38.7184
-38.605
-38.4697
-38.3207
-38.1687
-38.0245
-37.8975
-37.794
-37.7162
-37.6622
-37.6257
-37.5979
-37.5682
-37.5264
-37.4645
-37.3785
-37.269
-37.1417
-37.0064
-36.8757
-36.7636
-36.6834
-36.6466
-36.6614
-36.7318
-36.8568
-37.0301
-37.24
-37.4705
-37.7027
-37.5635
-38.0751
-38.5254
-38.9153
-39.2533
-39.5527
-39.8288
-40.0951
-40.3602
-40.6256
-40.8858
-41.1293
-41.341
-41.5058
-41.6115
-41.6522
-41.6303
-41.5564
-41.4474
-41.324
-41.207
-41.114
-41.0571
-41.041
-41.0629
-41.1123
-41.1736
-41.2281
-41.2576
-41.2472
-41.1888
-41.0826
-40.9367
-40.7662
-40.5896
-40.4257
-40.2906
-40.195
-40.1431
-40.131
-40.1484
-40.1797
-40.2063
-40.2104
-40.1773
-40.099
-39.9754
-39.8145
-39.6307
-39.4419
-39.2661
-39.119
-39.011
-38.9457
-38.9198
-38.9229
-38.94
-38.9533
-38.9451
-38.9016
-38.8149
-38.6849
-38.5193
-38.332
-38.1401
-37.9612
-37.8103
-37.6974
-37.6261
-37.5928
-37.5877
-37.5959
-37.6003
-37.5837
-37.5325
-37.4393
-37.3043
-37.1357
-36.9482
-36.7611
-36.5949
-36.4696
-36.4024
-36.4056
-36.4862
-36.644
-36.8716
-37.153
-37.4656
-37.7815
-37.8429
-38.388
-38.8451
-39.2162
-39.5164
-39.7701
-40.0052
-40.2457
-40.5065
-40.7904
-41.0878
-41.3788
-41.6371
-41.8357
-41.952
-41.9745
-41.9053
-41.7609
-41.5687
-41.3615
-41.172
-41.0278
-40.9473
-40.9376
-40.9932
-41.0971
-41.2237
-41.3424
-41.4227
-41.4397
-41.3794
-41.2418
-41.0409
-40.8017
-40.5546
-40.33
-40.1536
-40.0426
-40.0031
-40.0292
-40.1042
-40.2027
-40.2949
-40.351
-40.3469
-40.2687
-40.1164
-39.9036
-39.6545
-39.3983
-39.1646
-38.9783
-38.8559
-38.8032
-38.8146
-38.8738
-38.9562
-39.0331
-39.0756
-39.0602
-38.9737
-38.816
-38.6002
-38.3497
-38.0926
-37.8576
-37.6684
-37.541
-37.481
-37.4827
-37.5302
-37.5995
-37.6624
-37.6906
-37.661
-37.5602
-37.3878
-37.1566
-36.8896
-36.616
-36.3671
-36.1723
-36.0564
-36.0383
-36.1291
-36.3309
-36.6352
-37.0213
-37.4559
-37.8969
-38.2343
-38.8279
-39.2889
-39.6193
-39.8463
-40.0146
-40.174
-40.3671
-40.6196
-40.936
-41.2992
-41.6754
-42.0195
-42.2839
-42.428
-42.4288
-42.2885
-42.0344
-41.7117
-41.3736
-41.072
-40.8499
-40.7358
-40.7403
-40.8539
-41.0493
-41.2853
-41.512
-41.679
-41.7436
-41.6813
-41.4921
-41.2004
-40.8487
-40.4872
-40.1648
-39.9225
-39.7873
-39.7686
-39.8571
-40.026
-40.2348
-40.4354
-40.5786
-40.6231
-40.545
-40.3444
-40.0452
-39.6882
-39.3223
-38.9949
-38.7455
-38.6003
-38.5684
-38.6406
-38.791
-38.9805
-39.1624
-39.2892
-39.3211
-39.2349
-39.0306
-38.7313
-38.3766
-38.0135
-37.6877
-37.4374
-37.2876
-37.247
-37.3067
-37.4411
-37.6123
-37.7744
-37.8808
-37.8919
-37.7841
-37.5561
-37.229
-36.8402
-36.4354
-36.0615
-35.761
-35.5697
-35.5142
-35.612
-35.87
-36.2812
-36.8194
-37.4368
-38.0673
-38.7874
-39.4588
-39.9207
-40.1715
-40.261
-40.2719
-40.2944
-40.4029
-40.641
-41.014
-41.4922
-42.0183
-42.5168
-42.9054
-43.1102
-43.0864
-42.8358
-42.4068
-41.8769
-41.3333
-40.8576
-40.5163
-40.3538
-40.3858
-40.5968
-40.9433
-41.3601
-41.7678
-42.0826
-42.2305
-42.1662
-41.8898
-41.4465
-40.91
-40.3633
-39.8845
-39.5373
-39.3641
-39.3799
-39.5694
-39.8901
-40.2788
-40.6586
-40.9481
-41.0758
-40.9978
-40.7145
-40.2697
-39.735
-39.1908
-38.7129
-38.3628
-38.1815
-38.1836
-38.354
-38.6518
-39.0156
-39.3711
-39.6396
-39.752
-39.666
-39.3818
-38.942
-38.4157
-37.8804
-37.4091
-37.0614
-36.8767
-36.8687
-37.0228
-37.2991
-37.6379
-37.9666
-38.2081
-38.2938
-38.1809
-37.867
-37.39
-36.8137
-36.2104
-35.6499
-35.1926
-34.8871
-34.7693
-34.8643
-35.1885
-35.7439
-36.5034
-37.3987
-38.323
-39.5774
-40.3917
-40.8566
-40.9561
-40.7888
-40.5128
-40.2909
-40.2521
-40.4681
-40.9408
-41.6163
-42.4008
-43.1727
-43.7917
-44.1218
-44.0708
-43.6401
-42.9244
-42.0621
-41.1954
-40.4496
-39.9255
-39.6916
-39.7736
-40.1448
-40.7363
-41.448
-42.1574
-42.7267
-43.023
-42.9566
-42.5278
-41.8268
-40.9859
-40.1417
-39.4146
-38.9016
-38.6688
-38.7412
-39.0926
-39.6564
-40.3357
-41.0117
-41.5508
-41.8247
-41.7465
-41.3169
-40.6237
-39.7953
-38.9641
-38.2466
-37.7368
-37.4987
-37.5562
-37.884
-38.4174
-39.0627
-39.7048
-40.2148
-40.4685
-40.3824
-39.9571
-39.2774
-38.4675
-37.655
-36.9526
-36.4508
-36.2112
-36.2568
-36.563
-37.0671
-37.6781
-38.2842
-38.7595
-38.9818
-38.8673
-38.4124
-37.6941
-36.8258
-35.9238
-35.0895
-34.4055
-33.934
-33.718
-33.7863
-34.1738
-34.9129
-35.9918
-37.3188
-38.7151
-40.7119
-41.8277
-42.3189
-42.1252
-41.4736
-40.676
-40.0238
-39.7344
-39.9258
-40.5757
-41.5833
-42.8018
-44.0487
-45.0942
-45.6823
-45.6021
-44.8548
-43.6533
-42.2536
-40.8835
-39.7226
-38.9169
-38.5745
-38.7452
-39.3758
-40.356
-41.5393
-42.7489
-43.7638
-44.3379
-44.2689
-43.5578
-42.4085
-41.0667
-39.7517
-38.6364
-37.8623
-37.5342
-37.7005
-38.3102
-39.2564
-40.3974
-41.5618
-42.5355
-43.0804
-43.0011
-42.299
-41.1723
-39.8597
-38.5734
-37.4812
-36.7197
-36.3902
-36.5396
-37.118
-38.022
-39.1141
-40.2287
-41.1588
-41.6745
-41.5872
-40.8985
-39.8003
-38.5228
-37.2712
-36.2071
-35.4625
-35.1349
-35.2695
-35.8181
-36.681
-37.7252
-38.7902
-39.6749
-40.1548
-40.0435
-39.3372
-38.2139
-36.8865
-35.5397
-34.3127
-33.3121
-32.6131
-32.2571
-32.2486
-32.6525
-33.5925
-35.1229
-37.1388
-39.334
-42.315
-44.1631
-44.7679
-43.9539
-42.3694
-40.6301
-39.2345
-38.5247
-38.7232
-39.6953
-41.2469
-43.1621
-45.2148
-47.0555
-48.2051
-48.0941
-46.7238
-44.6678
-42.4026
-40.2705
-38.484
-37.2413
-36.7186
-37.0545
-38.1034
-39.6832
-41.5929
-43.6211
-45.4355
-46.5789
-46.506
-45.2188
-43.2673
-41.1092
-39.0739
-37.3671
-36.181
-35.6874
-36.0215
-37.043
-38.5759
-40.4254
-42.3867
-44.1376
-45.2352
-45.1524
-43.8923
-41.9888
-39.8861
-37.9034
-36.2395
-35.0805
-34.5921
-34.9051
-35.8832
-37.3554
-39.1333
-41.0184
-42.6994
-43.7488
-43.6577
-42.4298
-40.5812
-38.5409
-36.6171
-35.0015
-33.8736
-33.393
-33.6859
-34.6208
-36.0335
-37.7422
-39.5559
-41.1733
-42.1789
-42.0763
-40.8625
-39.0277
-36.9747
-34.9829
-33.2097
-31.7842
-30.7982
-30.2959
-30.1171
-30.3591
-31.422
-33.5547
-36.7004
-40.3493
-44.3777
-48.2889
-49.2597
-46.8923
-43.4889
-40.0901
-37.4582
-36.0069
-36.4069
-37.9806
-40.387
-43.3247
-46.686
-50.0123
-52.5434
-52.3994
-49.5805
-45.9834
-42.36
-39.1599
-36.4624
-34.5291
-33.6262
-34.3371
-36.0668
-38.5354
-41.476
-44.8009
-48.0738
-50.5715
-50.4915
-47.8367
-44.4236
-40.9749
-37.9233
-35.3477
-33.5026
-32.6487
-33.3528
-35.0396
-37.4393
-40.2926
-43.5144
-46.6803
-49.09
-48.9991
-46.4121
-43.092
-39.7399
-36.7741
-34.2707
-32.4754
-31.64
-32.313
-33.9366
-36.2486
-38.998
-42.1017
-45.1496
-47.4651
-47.3652
-44.8548
-41.6378
-38.3913
-35.519
-33.0938
-31.3523
-30.5372
-31.1775
-32.7356
-34.9594
-37.6083
-40.6039
-43.5524
-45.7989
-45.7089
-43.282
-40.1556
-36.9748
-34.1113
-31.606
-29.6232
-28.2868
-27.8686
-27.3796
-26.8837
-27.7106
-30.5279
-35.5374
-42.1029
-45.8771
-56.6487
-58.5569
-51.3216
-44.6027
-38.4466
-33.9824
-30.8238
-32.4003
-35.067
-38.762
-42.8772
-48.2077
-54.1142
-60.7341
-60.5567
-53.558
-47.3372
-41.708
-37.3256
-33.3406
-30.3331
-28.2101
-30.1528
-32.9661
-36.7081
-40.8057
-46.0558
-51.8283
-58.2761
-58.185
-51.5465
-45.631
-40.269
-36.0872
-32.2766
-29.397
-27.3664
-29.2689
-32.0099
-35.6494
-39.6292
-44.7226
-50.312
-56.5454
-56.4402
-49.9874
-44.2416
-39.0371
-34.979
-31.2824
-28.488
-26.5158
-28.352
-30.9985
-34.5122
-38.3523
-43.2656
-48.6541
-54.6597
-54.5439
-48.297
-42.737
-37.7027
-33.7772
-30.2013
-27.497
-25.5856
-27.3474
-29.8917
-33.2732
-36.9748
-41.7197
-46.9422
-52.7832
-52.7066
-46.7088
-41.3616
-36.5179
-32.7239
-29.2496
-26.5314
-24.4533
-25.5432
-24.652
-21.5036
-21.1328
-24.3445
-32.1333
-45.3309
-39.8579
-77.7736
-81.0115
-54.9993
-44.9055
-34.3681
-28.6271
-18.8221
-26.8242
-30.6725
-36.532
-40.68
-48.9002
-57.189
-78.7132
-78.5367
-56.4154
-47.8391
-39.2608
-34.919
-28.8113
-24.8635
-16.9393
-24.7149
-28.528
-34.369
-38.4758
-46.5586
-54.6103
-75.3969
-75.3067
-54.2154
-46.0415
-37.8637
-33.7166
-27.8647
-24.0688
-16.4206
-23.9775
-27.6862
-33.3697
-37.362
-45.2166
-53.0162
-73.1287
-73.0216
-52.5449
-44.6114
-36.6834
-32.6634
-26.9948
-23.3168
-15.9073
-23.2243
-26.8117
-32.3054
-36.1612
-43.7452
-51.2698
-70.6691
-70.5511
-50.7501
-43.0789
-35.4174
-31.5319
-26.0535
-22.4997
-15.3448
-22.3903
-25.8423
-31.1258
-34.839
-42.1475
-49.4413
-68.2888
-68.2306
-49.1985
-41.8422
-34.5495
-30.8761
-25.8041
-22.5177
-16.0579
-26.0706
-25.1748
-12.1235
-9.39645
-11.5697
-20.9407
-51.6232
-37.6921
-37.7928
-37.8641
-37.9004
-37.9002
-37.8651
-37.8003
-37.7129
-37.6111
-37.5039
-37.3999
-37.3067
-37.2309
-37.1775
-37.15
-37.7125
-37.8221
-37.8989
-37.937
-37.9348
-37.8949
-37.8229
-37.7271
-37.6165
-37.5008
-37.389
-37.2893
-37.2084
-37.1516
-37.1223
-37.7558
-37.8841
-37.9724
-38.0137
-38.0072
-37.9565
-37.8694
-37.7558
-37.6269
-37.4935
-37.3659
-37.2529
-37.1618
-37.098
-37.0653
-37.8272
-37.9862
-38.0926
-38.1383
-38.1235
-38.0545
-37.9422
-37.8
-37.6416
-37.4804
-37.3281
-37.1946
-37.0878
-37.0134
-36.9753
-37.9358
-38.141
-38.2732
-38.3234
-38.2939
-38.1957
-38.045
-37.8601
-37.6591
-37.4583
-37.2714
-37.1096
-36.9813
-36.8925
-36.8472
-38.0965
-38.3686
-38.5358
-38.5882
-38.533
-38.3893
-38.1817
-37.9362
-37.6763
-37.4221
-37.1896
-36.9909
-36.8351
-36.728
-36.6736
-38.3333
-38.7012
-38.9131
-38.9604
-38.8606
-38.6466
-38.3565
-38.0266
-37.6877
-37.3641
-37.0738
-36.8295
-36.6399
-36.5109
-36.4456
-38.6852
-39.1896
-39.455
-39.4797
-39.3022
-38.9798
-38.5709
-38.1259
-37.6838
-37.2728
-36.9118
-36.6131
-36.3843
-36.2298
-36.1521
-39.2181
-39.9168
-40.2375
-40.201
-39.8888
-39.3995
-38.8213
-38.2221
-37.6488
-37.1314
-36.6874
-36.3268
-36.0543
-35.872
-35.7808
-40.0473
-41.022
-41.3771
-41.1979
-40.6525
-39.9078
-39.0926
-38.2924
-37.558
-36.9163
-36.3797
-35.9523
-35.6339
-35.4231
-35.3182
-41.3881
-42.7466
-43.0511
-42.5608
-41.6153
-40.4867
-39.3489
-38.2967
-37.3742
-36.5961
-35.9628
-35.4685
-35.1059
-34.8682
-34.7506
-43.6738
-45.5252
-45.5198
-44.3787
-42.7612
-41.0747
-39.5193
-38.1714
-37.0459
-36.131
-35.4068
-34.8531
-34.4528
-34.1931
-34.0653
-47.8713
-50.1604
-49.1241
-46.6728
-43.9761
-41.5316
-39.482
-37.8238
-36.5068
-35.4751
-34.6802
-34.0842
-33.6592
-33.3859
-33.2521
-56.4292
-58.1207
-54.1433
-49.2121
-44.9386
-41.5934
-39.0534
-37.1347
-35.6824
-34.5824
-33.7547
-33.1442
-32.7138
-32.439
-32.3051
-76.5785
-71.7499
-60.1162
-51.0936
-44.9727
-40.85
-38.0032
-35.9792
-34.5056
-33.4173
-32.6118
-32.0241
-31.6127
-31.3512
-31.2241
-21.7227
-21.7567
-21.8261
-21.9338
-22.085
-22.2884
-22.558
-22.918
-23.4118
-24.1225
-25.2219
-27.0959
-30.659
-37.9554
-51.154
-20.7713
-20.7919
-20.8336
-20.8973
-20.9848
-21.0991
-21.2454
-21.4337
-21.6834
-22.0378
-22.6038
-23.6927
-26.409
-35.596
-76.6292
-19.8056
-19.8125
-19.8258
-19.8443
-19.866
-19.8876
-19.9039
-19.9067
-19.8823
-19.806
-19.6225
-19.1602
-17.6712
-11.1031
25.1367
-18.8352
-18.8288
-18.8145
-18.7892
-18.7474
-18.6798
-18.5718
-18.3985
-18.1172
-17.6483
-16.8344
-15.3412
-12.4654
-7.21837
-3.67089
-17.8693
-17.8506
-17.811
-17.7457
-17.6466
-17.5002
-17.285
-16.9656
-16.4822
-15.73
-14.5174
-12.4822
-8.90693
-2.15614
13.6329
-16.9164
-16.8869
-16.8253
-16.7258
-16.5787
-16.3685
-16.0707
-15.6466
-15.034
-14.1311
-12.7714
-10.6923
-7.55352
-3.37015
-1.74469
-15.9841
-15.9456
-15.8659
-15.7389
-15.5547
-15.2976
-14.9441
-14.4586
-13.7874
-12.8495
-11.5248
-9.63802
-6.92553
-2.80737
5.43595
-15.0785
-15.033
-14.9394
-14.7919
-14.5813
-14.2938
-13.9093
-13.3996
-12.726
-11.8367
-10.6684
-9.15713
-7.27373
-5.10889
-3.0885
-14.2045
-14.1539
-14.0503
-13.8888
-13.6615
-13.3573
-12.9614
-12.4547
-11.8145
-11.0177
-10.0502
-8.93466
-7.81741
-7.30961
-10.2098
-13.3658
-13.3117
-13.2015
-13.0313
-12.795
-12.4847
-12.0905
-11.6024
-11.0118
-10.3173
-9.53484
-8.71341
-7.9379
-7.14323
-4.40116
-12.5646
-12.5084
-12.3945
-12.2198
-11.9801
-11.6702
-11.285
-10.8214
-10.2813
-9.67804
-9.04661
-8.4603
-8.07173
-8.32881
-11.6319
-11.8026
-11.7453
-11.6296
-11.4534
-11.2139
-10.908
-10.5341
-10.0935
-9.59458
-9.05843
-8.52709
-8.06991
-7.75723
-7.39875
-4.62673
-11.0803
-11.0228
-10.9069
-10.7312
-10.4937
-10.1931
-9.82941
-9.40614
-8.93382
-8.43553
-7.95611
-7.57921
-7.47458
-8.14433
-12.2259
-10.3981
-10.3408
-10.2258
-10.0518
-9.81752
-9.52217
-9.16617
-8.75288
-8.29115
-7.79958
-7.31397
-6.89948
-6.6542
-6.52016
-4.22611
-9.7556
-9.69912
-9.58563
-9.41423
-9.18379
-8.89336
-8.54274
-8.13331
-7.66924
-7.15953
-6.62247
-6.1023
-5.75662
-6.39558
-13.0663
-9.1524
-9.09701
-8.98575
-8.81774
-8.59175
-8.30639
-7.9602
-7.55171
-7.07906
-6.53851
-5.9193
-5.18397
-4.17532
-2.08183
6.01791
-8.58771
-8.53374
-8.42533
-8.26154
-8.04099
-7.7617
-7.42097
-7.01472
-6.53608
-5.97217
-5.29681
-4.4555
-3.34743
-1.93868
-1.82968
-8.06054
-8.00831
-7.90339
-7.74482
-7.53104
-7.25972
-6.92728
-6.52803
-6.05235
-5.48326
-4.78962
-3.91231
-2.72839
-0.89253
3.27567
-7.56968
-7.51952
-7.41876
-7.26648
-7.06111
-6.80023
-6.48004
-6.09445
-5.63353
-5.08088
-4.41001
-3.58207
-2.56214
-1.46566
-1.60138
-7.11369
-7.0659
-6.96996
-6.82503
-6.62976
-6.38196
-6.07824
-5.71323
-5.27845
-4.76063
-4.13952
-3.38521
-2.44908
-1.18271
1.38008
-6.69092
-6.64577
-6.5552
-6.41859
-6.23492
-6.00257
-5.71904
-5.38049
-4.98108
-4.51216
-3.96158
-3.31465
-2.56539
-1.79968
-1.81124
-6.29954
-6.25723
-6.17245
-6.04487
-5.87393
-5.65877
-5.3981
-5.09006
-4.73202
-4.32044
-3.8506
-3.31518
-2.69317
-1.87649
-0.195037
-5.93757
-5.89821
-5.81946
-5.7013
-5.54369
-5.3466
-5.11008
-4.83438
-4.52019
-4.16921
-3.78519
-3.37589
-2.95618
-2.55347
-2.22644
-5.60299
-5.56658
-5.49389
-5.38517
-5.24089
-5.06184
-4.84931
-4.60547
-4.33395
-4.04095
-3.73738
-3.44388
-3.20742
-3.17752
-4.03062
-5.29371
-5.26019
-5.19336
-5.09377
-4.96228
-4.80037
-4.61033
-4.39583
-4.16267
-3.92008
-3.68263
-3.47228
-3.31527
-3.188
-2.56421
-5.00776
-4.97695
-4.91564
-4.82454
-4.70484
-4.55847
-4.38837
-4.19917
-3.99796
-3.79569
-3.60909
-3.46367
-3.40253
-3.54291
-4.52739
-4.74324
-4.71492
-4.65864
-4.5752
-4.46597
-4.33306
-4.17972
-4.01088
-3.83403
-3.66047
-3.50698
-3.39657
-3.34988
-3.31128
-2.61281
-4.49843
-4.47233
-4.42052
-4.34382
-4.24358
-4.12188
-3.98187
-3.8282
-3.66784
-3.51134
-3.37501
-3.28525
-3.29166
-3.53753
-4.77439
-4.27177
-4.24764
-4.19974
-4.12881
-4.03611
-3.92346
-3.79354
-3.6502
-3.499
-3.34824
-3.21074
-3.10717
-3.0672
-3.07525
-2.47113
-4.0619
-4.03949
-3.99496
-3.92897
-3.84252
-3.73706
-3.61456
-3.47768
-3.3299
-3.17597
-3.02293
-2.88497
-2.80944
-3.03774
-5.0719
-3.86763
-3.84672
-3.80513
-3.74336
-3.66216
-3.56252
-3.44561
-3.31276
-3.16511
-3.0031
-2.82469
-2.61945
-2.34072
-1.74584
0.639809
-3.68792
-3.66833
-3.62934
-3.57129
-3.49465
-3.39999
-3.28777
-3.15813
-3.01033
-2.84166
-2.64513
-2.40498
-2.09159
-1.69723
-1.71666
-3.52184
-3.50346
-3.46682
-3.41214
-3.33969
-3.24968
-3.14205
-3.01615
-2.87008
-2.69959
-2.49588
-2.2414
-1.89872
-1.36096
-0.102771
-3.36854
-3.35129
-3.31685
-3.26536
-3.19696
-3.11163
-3.00905
-2.88819
-2.74683
-2.58062
-2.38193
-2.13909
-1.84137
-1.52471
-1.5988
-3.22727
-3.21107
-3.17874
-3.13037
-3.06601
-2.9856
-2.88876
-2.77451
-2.64086
-2.48423
-2.29867
-2.07491
-1.79719
-1.41685
-0.622155
-3.09726
-3.08209
-3.0518
-3.00649
-2.94623
-2.87101
-2.78059
-2.67431
-2.55087
-2.40795
-2.24198
-2.04823
-1.8243
-1.59646
-1.61758
-2.97782
-2.96364
-2.93533
-2.89302
-2.83687
-2.76701
-2.68345
-2.58607
-2.47443
-2.34772
-2.20459
-2.04254
-1.85416
-1.60294
-1.06838
-2.86826
-2.85501
-2.82859
-2.78919
-2.73707
-2.67253
-2.59595
-2.50775
-2.40849
-2.29892
-2.18036
-2.05515
-1.92768
-1.80594
-1.70708
-2.76793
-2.75554
-2.7309
-2.69423
-2.6459
-2.58643
-2.51652
-2.43715
-2.34972
-2.2564
-2.16076
-2.06937
-1.99725
-1.99281
-2.27705
-2.67621
-2.66462
-2.64158
-2.60738
-2.5625
-2.50761
-2.4437
-2.37217
-2.29507
-2.21551
-2.13822
-2.07023
-2.01985
-1.97898
-1.77426
-2.59257
-2.58167
-2.56003
-2.52797
-2.48606
-2.43508
-2.37619
-2.31106
-2.24215
-2.17308
-2.10926
-2.05888
-2.03587
-2.07872
-2.3993
-2.51653
-2.5062
-2.48572
-2.45544
-2.41594
-2.36806
-2.31303
-2.25261
-2.18937
-2.12702
-2.07098
-2.02856
-2.00618
-1.98536
-1.74753
-2.44767
-2.4378
-2.41824
-2.38934
-2.35165
-2.30603
-2.25363
-2.19615
-2.13598
-2.0766
-2.02327
-1.98433
-1.97543
-2.04251
-2.42989
-2.38569
-2.37616
-2.35727
-2.32934
-2.29291
-2.24871
-2.19779
-2.14158
-2.08205
-2.022
-1.96558
-1.91927
-1.89193
-1.87703
-1.6603
-2.33033
-2.32104
-2.30259
-2.27528
-2.23956
-2.19607
-2.14564
-2.08933
-2.02851
-1.9649
-1.90091
-1.84104
-1.79982
-1.85152
-2.46105
-2.28145
-2.27229
-2.25408
-2.22707
-2.19164
-2.14828
-2.09759
-2.04024
-1.97692
-1.90807
-1.83339
-1.74988
-1.64321
-1.43843
-0.68181
-2.23896
-2.22983
-2.21169
-2.18473
-2.14924
-2.10559
-2.05417
-1.99532
-1.92918
-1.85531
-1.77201
-1.67482
-1.55475
-1.40842
-1.38032
-2.20281
-2.19366
-2.17544
-2.14832
-2.11252
-2.06831
-2.01592
-1.95548
-1.88682
-1.80912
-1.7203
-1.61566
-1.48455
-1.29617
-0.900913
-2.17304
-2.1638
-2.14539
-2.11796
-2.08167
-2.03672
-1.98327
-1.92136
-1.85074
-1.77068
-1.6796
-1.57488
-1.45413
-1.32746
-1.30532
-2.14969
-2.14031
-2.12163
-2.09375
-2.05684
-2.01105
-1.95652
-1.89329
-1.82123
-1.73989
-1.64838
-1.54524
-1.42782
-1.28605
-1.04586
-2.13286
-2.12331
-2.10427
-2.07584
-2.03818
-1.99145
-1.93581
-1.87138
-1.79819
-1.71618
-1.62525
-1.52553
-1.41843
-1.31288
-1.268
-2.12268
-2.11291
-2.09343
-2.06435
-2.02583
-1.97806
-1.92123
-1.85556
-1.78127
-1.69866
-1.60824
-1.51094
-1.40797
-1.29749
-1.14737
-2.11929
-2.10926
-2.08926
-2.05943
-2.01992
-1.97096
-1.9128
-1.84574
-1.77014
-1.68658
-1.59603
-1.50029
-1.40274
-1.30954
-1.23403
-2.12287
-2.11254
-2.09195
-2.06123
-2.02058
-1.97026
-1.91056
-1.84184
-1.76456
-1.67937
-1.58742
-1.49092
-1.39448
-1.30921
-1.26821
-2.13364
-2.12296
-2.10167
-2.06993
-2.02797
-1.97608
-1.91459
-1.84391
-1.76446
-1.67686
-1.58199
-1.4815
-1.3785
-1.27804
-1.18212
-2.15184
-2.14075
-2.11865
-2.08574
-2.04226
-1.98857
-1.92503
-1.85205
-1.77005
-1.67939
-1.58047
-1.47384
-1.36075
-1.24364
-1.12118
-2.17775
-2.16619
-2.14316
-2.10888
-2.06367
-2.0079
-1.94202
-1.86648
-1.78165
-1.68768
-1.5843
-1.47067
-1.34579
-1.21289
-1.10808
-2.2117
-2.19959
-2.17548
-2.13963
-2.0924
-2.03425
-1.96572
-1.88737
-1.79961
-1.7025
-1.59527
-1.47532
-1.33641
-1.16256
-0.88928
-2.25407
-2.24132
-2.21597
-2.17829
-2.12872
-2.06782
-1.99626
-1.91479
-1.82405
-1.72437
-1.61506
-1.49316
-1.3513
-1.18123
-1.05277
-2.3053
-2.29182
-2.26501
-2.22522
-2.17292
-2.10879
-2.03369
-1.94864
-1.85472
-1.75293
-1.64361
-1.52484
-1.3858
-1.17097
-0.55496
-2.36589
-2.35156
-2.32309
-2.28083
-2.22533
-2.15739
-2.07804
-1.98864
-1.89086
-1.78671
-1.67871
-1.57061
-1.47292
-1.43925
-1.81369
-2.43643
-2.42114
-2.39075
-2.34563
-2.28639
-2.2139
-2.12938
-2.03448
-1.93141
-1.82318
-1.71388
-1.60917
-1.51558
-1.42411
-1.14811
-2.51759
-2.50121
-2.46863
-2.42024
-2.35664
-2.27877
-2.18793
-2.08598
-1.97555
-1.8604
-1.74588
-1.63998
-1.55678
-1.5371
-1.80421
-2.61012
-2.59252
-2.5575
-2.5054
-2.43682
-2.35265
-2.25419
-2.14336
-2.02298
-1.89717
-1.77187
-1.65504
-1.55385
-1.45095
-1.13244
-2.71488
-2.69595
-2.65822
-2.60201
-2.52783
-2.43644
-2.32904
-2.20738
-2.07418
-1.93359
-1.79199
-1.65924
-1.55211
-1.51453
-1.77528
-2.83279
-2.81242
-2.77178
-2.71111
-2.63078
-2.53137
-2.41378
-2.27941
-2.13051
-1.97071
-1.80596
-1.64564
-1.50205
-1.37097
-1.06341
-2.96484
-2.94296
-2.89925
-2.83386
-2.74697
-2.63892
-2.51017
-2.36154
-2.1944
-2.01127
-1.81684
-1.62043
-1.4433
-1.34997
-1.61665
-3.11209
-3.08865
-3.04179
-2.97152
-2.87787
-2.76083
-2.62038
-2.45651
-2.2694
-2.05966
-1.82909
-1.58182
-1.32635
-1.07901
-0.876391
-3.27561
-3.25061
-3.20057
-3.12543
-3.02501
-2.89899
-2.74683
-2.56763
-2.3601
-2.12253
-1.85294
-1.5489
-1.20373
-0.777034
0.00456552
-3.4565
-3.42995
-3.37679
-3.29688
-3.18991
-3.05532
-2.89206
-2.69842
-2.47165
-2.20762
-1.90071
-1.54455
-1.13773
-0.721544
-0.652333
-3.65582
-3.62776
-3.57158
-3.48712
-3.374
-3.23154
-3.05839
-2.85223
-2.60906
-2.32249
-1.98269
-1.57536
-1.07823
-0.425138
0.819439
-3.87463
-3.8451
-3.78602
-3.69724
-3.57848
-3.42906
-3.24765
-3.03171
-2.77662
-2.47433
-2.11154
-1.66854
-1.12703
-0.539525
-0.521533
-4.11393
-4.08297
-4.02106
-3.92819
-3.80423
-3.64879
-3.46089
-3.23838
-2.97695
-2.66818
-2.29609
-1.83013
-1.20776
-0.258463
1.82699
-4.37472
-4.34232
-4.2776
-4.18072
-4.05184
-3.89106
-3.69814
-3.47208
-3.21014
-2.906
-2.54581
-2.10035
-1.51551
-0.766448
-0.627062
-4.65801
-4.62411
-4.55647
-4.45546
-4.3216
-4.15564
-3.95842
-3.73068
-3.47263
-3.18274
-2.85474
-2.46735
-1.93729
-0.851102
3.26645
-4.96484
-4.92931
-4.85852
-4.75299
-4.61366
-4.44193
-4.23987
-4.01033
-3.75723
-3.48593
-3.2049
-2.93341
-2.74528
-3.04092
-6.3577
-5.29633
-5.25901
-5.18467
-5.074
-4.9282
-4.74928
-4.54039
-4.30635
-4.05445
-3.79588
-3.54844
-3.34159
-3.21731
-3.13279
-1.90814
-5.65372
-5.6144
-5.53605
-5.41939
-5.26574
-5.07744
-4.85837
-4.61475
-4.3563
-4.0981
-3.86377
-3.69242
-3.66172
-4.01649
-6.10804
-6.03842
-5.99689
-5.91404
-5.79045
-5.62733
-5.42696
-5.1934
-4.93344
-4.65797
-4.38373
-4.13537
-3.94556
-3.83844
-3.69417
-2.26055
-6.45195
-6.40805
-6.3203
-6.18896
-6.01477
-5.79952
-5.54675
-5.2629
-4.95877
-4.65139
-4.36631
-4.14126
-4.04096
-4.2673
-6.03626
-6.89596
-6.84966
-6.75683
-6.61721
-6.43073
-6.19813
-5.92168
-5.60643
-5.26181
-4.90354
-4.55556
-4.25032
-4.01665
-3.76924
-2.42171
-7.37212
-7.32356
-7.22585
-7.07798
-6.87872
-6.62717
-6.32353
-5.97036
-5.57434
-5.14853
-4.71512
-4.30968
-4.00186
-4.03523
-5.72836
-7.88199
-7.83157
-7.7297
-7.57442
-7.363
-7.09237
-6.75977
-6.36404
-5.90752
-5.39881
-4.85525
-4.30125
-3.75013
-3.14871
-2.35388
-8.42687
-8.3753
-8.27063
-8.10982
-7.8884
-7.60059
-7.23985
-6.79993
-6.27695
-5.67326
-5.00263
-4.2908
-3.53334
-2.39659
1.57252
-9.00754
-8.95588
-8.85052
-8.68732
-8.45988
-8.15944
-7.77492
-7.29347
-6.70241
-5.99421
-5.1786
-4.31203
-3.57992
-3.61148
-7.13582
-9.62408
-9.57375
-9.47058
-9.30941
-9.08204
-8.77666
-8.37727
-7.86313
-7.20922
-6.38972
-5.38996
-4.23987
-3.09617
-2.40096
-2.90063
-10.2756
-10.2283
-10.1309
-9.97746
-9.75835
-9.45916
-9.0593
-8.52983
-7.831
-6.91041
-5.70571
-4.16325
-2.30096
-0.360804
0.987533
-10.9599
-10.9176
-10.8301
-10.6911
-10.4902
-10.2116
-9.83133
-9.31413
-8.60676
-7.62838
-6.25599
-4.30875
-1.55979
2.09019
5.81199
-11.6735
-11.6383
-11.5651
-11.4477
-11.2761
-11.0345
-10.6985
-10.2305
-9.57071
-8.61996
-7.20546
-5.01097
-1.44433
4.49117
13.221
-12.4115
-12.3854
-12.3306
-12.242
-12.1107
-11.9229
-11.6572
-11.28
-10.7367
-9.93356
-8.69657
-6.66605
-2.97389
4.9515
26.6922
-150.676
-90.4812
-63.1978
-50.1581
-43.1723
-38.9988
-36.2863
-34.4154
-33.0736
-32.0899
-31.3644
-30.8358
-30.4659
-30.2309
-30.1166
-187.592
-84.6554
-56.1076
-45.1034
-39.5824
-36.3013
-34.1409
-32.6261
-31.5231
-30.7039
-30.0935
-29.6452
-29.3297
-29.1284
-29.0303
48.6952
-27.172
-36.8341
-36.2409
-34.4369
-32.8256
-31.5471
-30.551
-29.7754
-29.173
-28.7098
-28.3624
-28.1141
-27.9542
-27.8759
-7.01842
-15.6648
-24.6823
-28.2193
-29.1576
-29.1186
-28.7572
-28.3225
-27.9074
-27.5452
-27.2459
-27.0105
-26.8372
-26.7234
-26.667
26.9998
-3.90037
-16.3364
-22.0022
-24.5568
-25.6353
-26.0183
-26.0804
-26.0026
-25.8737
-25.7374
-25.6156
-25.5189
-25.4526
-25.419
-1.25122
-4.95869
-12.6919
-17.9457
-20.9811
-22.6351
-23.5022
-23.9353
-24.1333
-24.2072
-24.2189
-24.2031
-24.1795
-24.159
-24.1475
12.0717
-3.2217
-10.7693
-15.4296
-18.3647
-20.1812
-21.2874
-21.9533
-22.3502
-22.584
-22.7194
-22.796
-22.8378
-22.8592
-22.868
-2.98455
-6.86407
-10.8519
-14.1115
-16.5251
-18.2205
-19.3783
-20.1582
-20.6804
-21.029
-21.2607
-21.4131
-21.5104
-21.5679
-21.5946
-15.3468
-10.4316
-11.4401
-13.3808
-15.1844
-16.6331