/*--------------------------------*- C++ -*----------------------------------*\
| =========                 |                                                 |
| \\      /  F ield         | OpenFOAM: The Open Source CFD Toolbox           |
|  \\    /   O peration     | Version:  5.x                                   |
|   \\  /    A nd           | Web:      www.OpenFOAM.org                      |
|    \\/     M anipulation  |                                                 |
\*---------------------------------------------------------------------------*/
FoamFile
{
    version     2.0;
    format      ascii;
    class       volScalarField;
    location    "2.3";
    object      T;
}
// * * * * * * * * * * * * * * * * * * * * * * * * * * * * * * * * * * * * * //

dimensions      [0 0 0 1 0 0 0];

internalField   nonuniform List<scalar> 
3200
(
2.10172
2.44855
2.46831
2.61083
2.61984
2.69059
2.69529
2.73599
2.73878
2.76445
2.76616
2.78098
2.78228
2.79847
2.79978
2.81525
2.81648
2.83073
2.83186
2.84473
2.84575
2.85723
2.85813
2.86826
2.86905
2.87795
2.87865
2.88664
2.88735
2.89581
2.90324
2.90378
2.90861
2.90897
2.91269
2.91298
2.91598
2.91621
2.91867
2.91886
2.92088
2.92103
2.92266
2.92279
2.92409
2.92419
2.9252
2.92527
2.926
2.92605
2.92647
2.9265
2.92689
2.92692
2.92718
2.9272
2.92729
2.92729
2.92715
2.92712
2.92665
2.92659
2.9256
2.92547
2.92358
2.92335
2.91969
2.91919
2.91123
2.90985
2.88738
2.84822
2.84386
2.78024
2.77274
2.65363
2.64868
2.64806
2.64793
2.6479
2.2751
2.54046
2.58174
2.69577
2.71499
2.77158
2.7816
2.81405
2.81998
2.84039
2.84402
2.8559
2.85867
2.87148
2.87427
2.88652
2.88914
2.90043
2.90282
2.91303
2.91518
2.92428
2.92619
2.93422
2.9359
2.94296
2.94446
2.95081
2.95233
2.95933
2.96558
2.96673
2.97059
2.97136
2.97431
2.97491
2.9773
2.97778
2.97973
2.98013
2.98173
2.98205
2.98335
2.98361
2.98464
2.98485
2.98565
2.9858
2.98638
2.98648
2.98681
2.98689
2.98719
2.98725
2.98746
2.98749
2.98757
2.98756
2.98745
2.98739
2.98702
2.98689
2.9861
2.98584
2.98433
2.98383
2.98089
2.97981
2.97334
2.97028
2.95064
2.91859
2.90925
2.85854
2.84276
2.75022
2.73978
2.73806
2.7377
2.73762
2.43787
2.64132
2.69227
2.7845
2.80865
2.85443
2.86702
2.89317
2.9006
2.91699
2.92154
2.93118
2.93466
2.94489
2.94838
2.95818
2.96146
2.97048
2.97348
2.98165
2.98434
2.99162
2.99401
3.00044
3.00254
3.00819
3.01007
3.01518
3.01708
3.02289
3.02812
3.02958
3.0327
3.03365
3.03603
3.03677
3.03869
3.03929
3.04086
3.04135
3.04263
3.04303
3.04407
3.0444
3.04522
3.04548
3.04612
3.04631
3.04678
3.0469
3.04718
3.04727
3.04751
3.04758
3.04775
3.04779
3.04785
3.04784
3.04775
3.04768
3.04738
3.04721
3.04657
3.04625
3.04503
3.0444
3.04201
3.04065
3.0353
3.03137
3.01441
2.98805
2.9763
2.93545
2.91584
2.84353
2.83054
2.828
2.82745
2.82733
2.5925
2.74829
2.80114
2.87595
2.90145
2.93861
2.95189
2.97303
2.98086
2.99407
2.99887
3.00671
3.01037
3.01857
3.02224
3.03009
3.03354
3.04078
3.04393
3.05048
3.05331
3.05916
3.06167
3.06683
3.06904
3.07357
3.07555
3.07967
3.08169
3.08647
3.09081
3.09236
3.09489
3.0959
3.0978
3.09859
3.10013
3.10076
3.10202
3.10254
3.10357
3.10399
3.10482
3.10517
3.10583
3.1061
3.10662
3.10682
3.10719
3.10732
3.10754
3.10764
3.10783
3.10791
3.10804
3.10808
3.10813
3.10812
3.10805
3.10798
3.10773
3.10756
3.10704
3.1067
3.10571
3.10504
3.1031
3.10165
3.09721
3.09298
3.07855
3.05693
3.04452
3.01151
2.99103
2.93447
2.92087
2.91787
2.91719
2.91704
2.74089
2.85937
2.90912
2.96938
2.99377
3.02374
3.03644
3.05343
3.06091
3.07148
3.07607
3.08241
3.0859
3.09243
3.09592
3.10218
3.10547
3.11124
3.11424
3.11947
3.12216
3.12683
3.12922
3.13333
3.13544
3.13906
3.14094
3.14425
3.14618
3.15006
3.15362
3.15511
3.15714
3.1581
3.15963
3.16038
3.1616
3.16221
3.16321
3.16371
3.16453
3.16493
3.1656
3.16592
3.16645
3.16671
3.16712
3.16731
3.16761
3.16774
3.16791
3.168
3.16816
3.16823
3.16834
3.16838
3.16841
3.16841
3.16835
3.16828
3.16808
3.16791
3.1675
3.16717
3.16638
3.16574
3.16416
3.16276
3.15911
3.155
3.14297
3.12544
3.11356
3.08706
3.06766
3.02369
3.01078
3.00765
3.00691
3.00674
2.88454
2.9732
3.01669
3.06424
3.08587
3.10956
3.12082
3.13421
3.14083
3.14913
3.1532
3.15822
3.16131
3.16642
3.1695
3.1744
3.17729
3.18181
3.18446
3.18855
3.19093
3.19458
3.1967
3.19992
3.20178
3.20462
3.20628
3.20888
3.21059
3.21367
3.2165
3.21783
3.21943
3.22028
3.22148
3.22214
3.2231
3.22364
3.22443
3.22486
3.22551
3.22586
3.22638
3.22667
3.22709
3.22731
3.22764
3.22781
3.22804
3.22815
3.22829
3.22837
3.22849
3.22855
3.22864
3.22867
3.2287
3.22869
3.22865
3.22858
3.22843
3.22828
3.22796
3.22767
3.22704
3.22647
3.22522
3.22397
3.22103
3.21734
3.20762
3.19373
3.18319
3.16233
3.14528
3.11167
3.1003
3.09733
3.0966
3.09644
3.02465
3.08884
3.1241
3.16013
3.17789
3.19587
3.20512
3.21525
3.22068
3.22695
3.23028
3.23411
3.23664
3.24048
3.243
3.24669
3.24906
3.25246
3.25463
3.25771
3.25966
3.2624
3.26413
3.26656
3.26808
3.27022
3.27158
3.27355
3.27495
3.27729
3.27945
3.28054
3.28175
3.28245
3.28336
3.2839
3.28462
3.28506
3.28565
3.28601
3.2865
3.28679
3.28718
3.28742
3.28773
3.28791
3.28816
3.28829
3.28847
3.28856
3.28867
3.28873
3.28882
3.28888
3.28894
3.28897
3.28899
3.28898
3.28895
3.2889
3.28878
3.28866
3.28841
3.28817
3.2877
3.28723
3.28628
3.28525
3.28298
3.27992
3.27243
3.26188
3.25323
3.23745
3.22356
3.19876
3.18948
3.18692
3.18627
3.18613
3.16218
3.20563
3.23147
3.25676
3.2699
3.28254
3.28938
3.29649
3.3005
3.30489
3.30735
3.31004
3.31192
3.3146
3.31646
3.31903
3.32078
3.32316
3.32476
3.32691
3.32834
3.33026
3.33154
3.33323
3.33436
3.33585
3.33686
3.33823
3.33928
3.34092
3.34243
3.34324
3.3441
3.34461
3.34525
3.34565
3.34615
3.34648
3.34689
3.34715
3.34749
3.34771
3.34798
3.34816
3.34837
3.34851
3.34868
3.34878
3.3489
3.34897
3.34905
3.3491
3.34916
3.3492
3.34924
3.34926
3.34928
3.34927
3.34925
3.34921
3.34913
3.34904
3.34886
3.34869
3.34835
3.34801
3.34734
3.34657
3.34496
3.34268
3.33737
3.32995
3.32355
3.3125
3.30228
3.28523
3.2784
3.27643
3.27593
3.27581
3.29798
3.32313
3.33886
3.35387
3.36192
3.36943
3.37363
3.37785
3.3803
3.38291
3.38442
3.38601
3.38716
3.38875
3.38988
3.39141
3.39248
3.39388
3.39486
3.39613
3.39701
3.39815
3.39893
3.39993
3.40062
3.4015
3.40212
3.40294
3.40357
3.40455
3.40545
3.40595
3.40645
3.40677
3.40714
3.40739
3.40769
3.40789
3.40813
3.40829
3.40849
3.40863
3.40879
3.40889
3.40902
3.40911
3.40921
3.40927
3.40934
3.40938
3.40943
3.40946
3.4095
3.40952
3.40954
3.40956
3.40957
3.40956
3.40955
3.40953
3.40948
3.40942
3.40932
3.40921
3.40901
3.4088
3.4084
3.40793
3.40696
3.40556
3.40239
3.39798
3.39406
3.38751
3.38127
3.37129
3.36712
3.36588
3.36556
3.36549
3.43277
3.441
3.44628
3.45126
3.45397
3.45646
3.45788
3.45927
3.4601
3.46096
3.46147
3.462
3.46239
3.46291
3.4633
3.4638
3.46416
3.46463
3.46496
3.46538
3.46567
3.46605
3.46631
3.46664
3.46687
3.46717
3.46737
3.46764
3.46786
3.46818
3.46848
3.46865
3.46882
3.46892
3.46905
3.46913
3.46923
3.4693
3.46938
3.46943
3.4695
3.46954
3.4696
3.46963
3.46967
3.4697
3.46974
3.46976
3.46978
3.46979
3.46981
3.46982
3.46983
3.46984
3.46985
3.46985
3.46986
3.46985
3.46985
3.46984
3.46983
3.46981
3.46977
3.46974
3.46967
3.4696
3.46947
3.46931
3.46899
3.46851
3.46746
3.466
3.46468
3.4625
3.46041
3.45712
3.45572
3.4553
3.45519
3.45516
3.43369
3.44249
3.44859
3.45518
3.45922
3.46361
3.4664
3.4696
3.47166
3.47402
3.47547
3.47706
3.47823
3.47983
3.48098
3.48249
3.48355
3.4849
3.48584
3.48703
3.48785
3.48888
3.48959
3.49047
3.49109
3.49186
3.49241
3.49312
3.49369
3.49454
3.49533
3.49578
3.49623
3.49652
3.49686
3.49709
3.49737
3.49755
3.49778
3.49794
3.49813
3.49825
3.49841
3.49852
3.49865
3.49874
3.49884
3.49891
3.49899
3.49904
3.4991
3.49914
3.4992
3.49924
3.49929
3.49932
3.49937
3.4994
3.49944
3.49946
3.4995
3.49952
3.49954
3.49956
3.49957
3.49958
3.49957
3.49954
3.49945
3.49926
3.49877
3.498
3.49719
3.49571
3.49415
3.49158
3.49047
3.49014
3.49005
3.49003
3.30072
3.32757
3.34575
3.36565
3.37764
3.39088
3.39919
3.40886
3.41498
3.4221
3.42641
3.43121
3.43468
3.4395
3.44293
3.44748
3.45064
3.45472
3.45751
3.46109
3.46353
3.46664
3.46875
3.47144
3.47327
3.4756
3.47723
3.47937
3.48105
3.48362
3.48601
3.48734
3.4887
3.48957
3.49059
3.49127
3.4921
3.49266
3.49335
3.49381
3.49438
3.49476
3.49524
3.49556
3.49595
3.49621
3.49653
3.49674
3.49698
3.49713
3.4973
3.49742
3.49759
3.4977
3.49786
3.49797
3.4981
3.4982
3.49831
3.49839
3.49849
3.49855
3.49863
3.49868
3.49873
3.49874
3.49872
3.49863
3.49836
3.49779
3.49632
3.494
3.49159
3.48714
3.4825
3.47467
3.47137
3.4704
3.47015
3.47009
3.16667
3.213
3.24285
3.27643
3.29601
3.31836
3.33193
3.34825
3.35825
3.37029
3.37733
3.3854
3.39108
3.39922
3.40484
3.41253
3.41768
3.42458
3.42916
3.4352
3.43919
3.44444
3.44789
3.45243
3.45542
3.45937
3.46202
3.46564
3.46838
3.47271
3.47673
3.47889
3.4812
3.48261
3.48434
3.48544
3.48685
3.48776
3.48892
3.48967
3.49064
3.49127
3.49207
3.49259
3.49326
3.49368
3.49422
3.49456
3.49498
3.49522
3.4955
3.4957
3.49598
3.49617
3.49644
3.49661
3.49684
3.49699
3.49719
3.49732
3.49748
3.49759
3.49772
3.49779
3.49788
3.4979
3.49787
3.49772
3.49727
3.49635
3.49391
3.49
3.48607
3.47858
3.47097
3.45758
3.45219
3.45063
3.45024
3.45014
3.03076
3.09909
3.13979
3.18776
3.21426
3.24618
3.26455
3.28789
3.30144
3.31868
3.32821
3.33969
3.34737
3.35905
3.36666
3.37767
3.38466
3.39454
3.40074
3.4094
3.4148
3.42231
3.42699
3.43348
3.43754
3.44319
3.44678
3.45194
3.45564
3.46181
3.46753
3.47044
3.47372
3.47563
3.47811
3.4796
3.48162
3.48284
3.48451
3.48553
3.48692
3.48777
3.48892
3.48962
3.49058
3.49115
3.49193
3.49238
3.49298
3.49331
3.49371
3.49397
3.49438
3.49464
3.49502
3.49525
3.49558
3.49579
3.49607
3.49624
3.49648
3.49662
3.49681
3.49691
3.49703
3.49706
3.49702
3.49683
3.49621
3.49498
3.49156
3.486
3.48069
3.47003
3.45967
3.44017
3.43285
3.43082
3.43031
3.4302
2.89212
2.98628
3.03644
3.09996
3.1323
3.17455
3.19697
3.22793
3.24448
3.26738
3.27901
3.29413
3.3035
3.31904
3.32834
3.34298
3.35152
3.36464
3.37222
3.38372
3.39032
3.4003
3.40601
3.41464
3.41959
3.42708
3.43147
3.43829
3.44281
3.45093
3.45843
3.46198
3.46631
3.46863
3.47191
3.47374
3.47641
3.47791
3.48013
3.48137
3.48321
3.48425
3.48578
3.48664
3.48791
3.48861
3.48964
3.4902
3.49099
3.49139
3.49192
3.49224
3.49278
3.4931
3.4936
3.49389
3.49433
3.49458
3.49496
3.49517
3.49548
3.49565
3.4959
3.49603
3.49619
3.49623
3.49618
3.49595
3.49517
3.4937
3.48929
3.482
3.47553
3.46146
3.44874
3.42228
3.4133
3.41095
3.41038
3.41025
2.74971
2.87523
2.93255
3.0134
3.04994
3.1037
3.12904
3.16854
3.18726
3.21652
3.22967
3.24879
3.25939
3.27927
3.2898
3.30853
3.3182
3.33497
3.34354
3.35823
3.3657
3.37845
3.38492
3.39593
3.40154
3.4111
3.41606
3.42474
3.42983
3.44007
3.4495
3.45348
3.45897
3.46159
3.46578
3.46785
3.47126
3.47296
3.47578
3.47719
3.47954
3.48072
3.48267
3.48365
3.48526
3.48606
3.48737
3.488
3.48901
3.48947
3.49013
3.4905
3.49119
3.49155
3.49219
3.49252
3.49308
3.49337
3.49385
3.49409
3.49449
3.49468
3.495
3.49515
3.49535
3.4954
3.49535
3.4951
3.49416
3.49253
3.48714
3.47796
3.47068
3.45284
3.43837
3.40368
3.39348
3.39101
3.39042
3.39029
2.60228
2.7669
2.82771
2.92861
2.96689
3.03399
3.06055
3.10997
3.12961
3.16631
3.18008
3.2038
3.2149
3.23988
3.25094
3.27443
3.28459
3.30562
3.31461
3.33303
3.34088
3.35685
3.36364
3.37744
3.38333
3.39531
3.40051
3.41133
3.41664
3.42924
3.44078
3.44492
3.45174
3.45449
3.45973
3.4619
3.46617
3.46795
3.47149
3.47297
3.47592
3.47715
3.4796
3.48062
3.48265
3.48349
3.48513
3.48579
3.48706
3.48754
3.48836
3.48875
3.48962
3.49
3.4908
3.49114
3.49185
3.49215
3.49275
3.493
3.4935
3.49371
3.49411
3.49426
3.49452
3.49457
3.49453
3.49427
3.49317
3.49151
3.48514
3.47385
3.46624
3.44408
3.4288
3.38411
3.37336
3.37099
3.37045
3.37033
2.44825
2.66271
2.72127
2.84631
2.88267
2.96589
2.99114
3.0526
3.07128
3.11701
3.13009
3.1593
3.16985
3.20104
3.21157
3.24087
3.25054
3.27674
3.28531
3.30825
3.31572
3.33562
3.34208
3.35927
3.36487
3.37978
3.38472
3.39814
3.40316
3.41846
3.43235
3.43626
3.44468
3.44729
3.4538
3.45586
3.46118
3.46288
3.46728
3.46869
3.47236
3.47353
3.47659
3.47756
3.48008
3.48088
3.48293
3.48356
3.48514
3.48559
3.48661
3.48698
3.48806
3.48842
3.48943
3.48975
3.49063
3.49092
3.49166
3.4919
3.49253
3.49273
3.49322
3.49337
3.4937
3.49375
3.49372
3.49348
3.49221
3.49068
3.48334
3.46959
3.46239
3.43505
3.4204
3.36318
3.3529
3.3509
3.35046
3.35037
2.28564
2.56476
2.61216
2.76756
2.79658
2.90011
2.92027
2.99693
3.01187
3.06901
3.07946
3.11555
3.12397
3.16302
3.17145
3.20809
3.21583
3.24857
3.25543
3.28409
3.29006
3.31492
3.32009
3.34156
3.34603
3.36465
3.3686
3.38529
3.38927
3.40773
3.42432
3.42741
3.43785
3.43993
3.44805
3.4497
3.45633
3.45769
3.4632
3.46432
3.46891
3.46984
3.47366
3.47443
3.47759
3.47822
3.48078
3.48129
3.48326
3.48363
3.48489
3.48518
3.48653
3.48682
3.48808
3.48834
3.48944
3.48966
3.4906
3.49079
3.49157
3.49173
3.49236
3.49247
3.49289
3.49293
3.49291
3.49273
3.49126
3.49009
3.48179
3.46507
3.45935
3.42552
3.41372
3.34038
3.33211
3.33075
3.33046
3.3304
2.11186
2.47607
2.49873
2.69386
2.70751
2.83765
2.84714
2.94372
2.95076
3.02288
3.02779
3.0729
3.07686
3.12622
3.1302
3.17646
3.18011
3.22144
3.22467
3.26083
3.26365
3.295
3.29744
3.32452
3.32663
3.3501
3.35196
3.37294
3.37479
3.39707
3.41684
3.41826
3.43135
3.43233
3.44256
3.44333
3.4517
3.45234
3.45928
3.45981
3.4656
3.46604
3.47085
3.47121
3.47519
3.47549
3.47872
3.47896
3.48145
3.48162
3.4832
3.48334
3.48505
3.48519
3.48677
3.48689
3.48828
3.48839
3.48957
3.48966
3.49064
3.49072
3.49151
3.49156
3.4921
3.49212
3.49212
3.49204
3.4903
3.48978
3.48059
3.46011
3.45743
3.4151
3.40949
3.31497
3.31105
3.31056
3.31046
3.31044
2.11186
2.47607
2.49872
2.69386
2.70751
2.83765
2.84714
2.94372
2.95076
3.02287
3.02779
3.0729
3.07686
3.12622
3.1302
3.17646
3.18011
3.22143
3.22467
3.26083
3.26365
3.295
3.29744
3.32452
3.32663
3.3501
3.35196
3.37293
3.37479
3.39707
3.41683
3.41826
3.43135
3.43233
3.44255
3.44333
3.4517
3.45234
3.45928
3.45981
3.46559
3.46604
3.47085
3.47121
3.47519
3.47549
3.47872
3.47896
3.48145
3.48162
3.4832
3.48334
3.48505
3.48519
3.48677
3.48689
3.48828
3.48839
3.48957
3.48966
3.49064
3.49072
3.49151
3.49156
3.4921
3.49212
3.49212
3.49204
3.4903
3.48978
3.48059
3.46011
3.45744
3.4151
3.40949
3.31498
3.31106
3.31057
3.31047
3.31045
2.28564
2.56476
2.61216
2.76756
2.79658
2.9001
2.92027
2.99692
3.01187
3.06901
3.07946
3.11555
3.12397
3.16302
3.17145
3.20809
3.21583
3.24857
3.25543
3.28409
3.29006
3.31492
3.32009
3.34156
3.34603
3.36465
3.3686
3.38529
3.38926
3.40773
3.42432
3.42741
3.43785
3.43993
3.44805
3.4497
3.45633
3.45769
3.4632
3.46432
3.46891
3.46984
3.47366
3.47443
3.47759
3.47822
3.48078
3.48129
3.48326
3.48363
3.48489
3.48518
3.48653
3.48682
3.48808
3.48834
3.48944
3.48966
3.4906
3.49079
3.49157
3.49173
3.49236
3.49247
3.49289
3.49293
3.49291
3.49273
3.49126
3.49009
3.48179
3.46507
3.45935
3.42552
3.41372
3.34038
3.33212
3.33076
3.33047
3.33041
2.44825
2.66271
2.72127
2.84631
2.88267
2.96589
2.99114
3.05259
3.07128
3.11701
3.13009
3.1593
3.16985
3.20103
3.21157
3.24087
3.25054
3.27674
3.28531
3.30825
3.31572
3.33562
3.34208
3.35927
3.36487
3.37978
3.38472
3.39814
3.40316
3.41846
3.43235
3.43626
3.44468
3.44729
3.4538
3.45586
3.46118
3.46287
3.46728
3.46869
3.47236
3.47353
3.47659
3.47756
3.48008
3.48088
3.48293
3.48356
3.48514
3.48559
3.48661
3.48698
3.48806
3.48842
3.48943
3.48975
3.49063
3.49091
3.49166
3.4919
3.49253
3.49273
3.49322
3.49337
3.4937
3.49375
3.49372
3.49348
3.49221
3.49068
3.48334
3.46959
3.4624
3.43506
3.42041
3.36319
3.35291
3.35091
3.35047
3.35038
2.60227
2.76689
2.82771
2.9286
2.96688
3.03398
3.06055
3.10997
3.12961
3.16631
3.18008
3.2038
3.2149
3.23988
3.25094
3.27443
3.28459
3.30562
3.31461
3.33303
3.34088
3.35685
3.36364
3.37744
3.38332
3.39531
3.40051
3.41133
3.41664
3.42924
3.44078
3.44492
3.45174
3.45449
3.45973
3.4619
3.46617
3.46795
3.47149
3.47297
3.47592
3.47715
3.4796
3.48062
3.48265
3.48349
3.48513
3.48579
3.48706
3.48754
3.48836
3.48875
3.48962
3.49
3.4908
3.49114
3.49185
3.49215
3.49275
3.493
3.4935
3.49371
3.49411
3.49426
3.49452
3.49457
3.49453
3.49427
3.49317
3.49151
3.48514
3.47385
3.46625
3.44408
3.4288
3.38411
3.37336
3.371
3.37046
3.37034
2.74971
2.87522
2.93255
3.0134
3.04994
3.1037
3.12904
3.16854
3.18726
3.21652
3.22967
3.24879
3.25939
3.27927
3.2898
3.30853
3.3182
3.33497
3.34354
3.35823
3.3657
3.37845
3.38492
3.39593
3.40154
3.4111
3.41606
3.42474
3.42983
3.44007
3.4495
3.45348
3.45897
3.46159
3.46578
3.46785
3.47126
3.47295
3.47578
3.47719
3.47954
3.48072
3.48267
3.48365
3.48526
3.48606
3.48737
3.488
3.48901
3.48947
3.49013
3.4905
3.49119
3.49155
3.49219
3.49252
3.49308
3.49337
3.49385
3.49409
3.49449
3.49468
3.495
3.49515
3.49535
3.4954
3.49535
3.4951
3.49416
3.49253
3.48714
3.47796
3.47068
3.45284
3.43837
3.40369
3.39349
3.39101
3.39043
3.3903
2.89212
2.98628
3.03644
3.09996
3.1323
3.17454
3.19697
3.22793
3.24448
3.26738
3.27901
3.29413
3.3035
3.31904
3.32834
3.34298
3.35152
3.36464
3.37222
3.38372
3.39032
3.4003
3.40601
3.41464
3.41959
3.42708
3.43147
3.43829
3.44281
3.45093
3.45843
3.46198
3.46631
3.46863
3.47191
3.47374
3.47641
3.47791
3.48013
3.48137
3.48321
3.48425
3.48578
3.48664
3.48791
3.48861
3.48964
3.4902
3.49099
3.49139
3.49192
3.49224
3.49278
3.4931
3.4936
3.49389
3.49433
3.49458
3.49496
3.49517
3.49548
3.49565
3.4959
3.49603
3.49619
3.49623
3.49618
3.49595
3.49517
3.4937
3.48929
3.482
3.47553
3.46146
3.44875
3.42228
3.4133
3.41095
3.41038
3.41025
3.03076
3.09909
3.13979
3.18776
3.21426
3.24618
3.26455
3.28789
3.30144
3.31868
3.32821
3.33969
3.34737
3.35905
3.36665
3.37767
3.38466
3.39454
3.40074
3.40939
3.4148
3.42231
3.42699
3.43348
3.43754
3.44319
3.44678
3.45194
3.45564
3.46181
3.46753
3.47044
3.47372
3.47563
3.47811
3.4796
3.48162
3.48284
3.48451
3.48553
3.48692
3.48777
3.48892
3.48962
3.49058
3.49115
3.49193
3.49238
3.49298
3.49331
3.49371
3.49397
3.49438
3.49464
3.49502
3.49525
3.49558
3.49579
3.49607
3.49624
3.49648
3.49662
3.49681
3.49691
3.49703
3.49706
3.49702
3.49683
3.49621
3.49498
3.49156
3.48601
3.48069
3.47003
3.45968
3.44017
3.43285
3.43082
3.43032
3.4302
3.16667
3.213
3.24285
3.27643
3.29601
3.31836
3.33193
3.34825
3.35825
3.37029
3.37733
3.3854
3.39108
3.39922
3.40484
3.41253
3.41768
3.42458
3.42916
3.4352
3.43919
3.44444
3.44789
3.45243
3.45542
3.45937
3.46202
3.46564
3.46838
3.47271
3.47673
3.47889
3.4812
3.4826
3.48434
3.48544
3.48685
3.48776
3.48892
3.48967
3.49064
3.49127
3.49207
3.49259
3.49326
3.49368
3.49422
3.49456
3.49498
3.49522
3.4955
3.4957
3.49598
3.49617
3.49644
3.49661
3.49684
3.49699
3.49719
3.49732
3.49748
3.49759
3.49772
3.49779
3.49788
3.4979
3.49787
3.49772
3.49727
3.49635
3.49391
3.49
3.48607
3.47858
3.47097
3.45758
3.45219
3.45064
3.45024
3.45015
3.30072
3.32757
3.34575
3.36565
3.37764
3.39088
3.39919
3.40886
3.41498
3.4221
3.42641
3.43121
3.43468
3.4395
3.44293
3.44748
3.45064
3.45472
3.45751
3.46109
3.46353
3.46664
3.46875
3.47144
3.47327
3.4756
3.47723
3.47937
3.48105
3.48362
3.48601
3.48734
3.4887
3.48957
3.49059
3.49127
3.4921
3.49266
3.49335
3.49381
3.49438
3.49476
3.49524
3.49556
3.49595
3.49621
3.49653
3.49674
3.49698
3.49713
3.4973
3.49742
3.49759
3.4977
3.49786
3.49797
3.4981
3.4982
3.49831
3.49839
3.49849
3.49855
3.49863
3.49868
3.49873
3.49874
3.49872
3.49863
3.49836
3.49779
3.49632
3.494
3.49159
3.48714
3.4825
3.47467
3.47138
3.4704
3.47015
3.47009
3.43369
3.44249
3.44859
3.45518
3.45922
3.46361
3.4664
3.4696
3.47166
3.47402
3.47547
3.47706
3.47823
3.47983
3.48098
3.48249
3.48355
3.4849
3.48584
3.48703
3.48785
3.48887
3.48959
3.49047
3.49109
3.49186
3.49241
3.49312
3.49369
3.49454
3.49533
3.49578
3.49623
3.49652
3.49686
3.49709
3.49737
3.49755
3.49778
3.49794
3.49813
3.49825
3.49841
3.49852
3.49865
3.49874
3.49884
3.49891
3.49899
3.49904
3.4991
3.49914
3.4992
3.49924
3.49929
3.49932
3.49937
3.4994
3.49944
3.49946
3.4995
3.49952
3.49954
3.49956
3.49957
3.49958
3.49957
3.49954
3.49945
3.49926
3.49877
3.498
3.49719
3.49571
3.49415
3.49158
3.49047
3.49014
3.49005
3.49003
3.43275
3.44098
3.44625
3.45121
3.4539
3.45635
3.45772
3.45904
3.45978
3.46049
3.46099
3.46165
3.46211
3.46271
3.46314
3.46368
3.46406
3.46455
3.46489
3.46532
3.46562
3.46601
3.46628
3.46661
3.46685
3.46714
3.46735
3.46763
3.46784
3.46817
3.46847
3.46864
3.46881
3.46892
3.46904
3.46912
3.46922
3.46929
3.46937
3.46943
3.46949
3.46954
3.46959
3.46963
3.46967
3.4697
3.46973
3.46976
3.46978
3.46979
3.46981
3.46982
3.46983
3.46984
3.46985
3.46985
3.46985
3.46985
3.46985
3.46984
3.46982
3.46981
3.46977
3.46974
3.46967
3.4696
3.46947
3.46931
3.46899
3.46851
3.46746
3.466
3.46468
3.4625
3.46041
3.45712
3.45572
3.4553
3.45519
3.45516
3.29793
3.32306
3.33876
3.35372
3.36171
3.36911
3.37317
3.37714
3.37933
3.38149
3.38298
3.38495
3.38634
3.38815
3.38941
3.39105
3.39218
3.39365
3.39466
3.39597
3.39687
3.39803
3.39882
3.39984
3.40054
3.40143
3.40206
3.40288
3.40353
3.40451
3.40542
3.40592
3.40643
3.40675
3.40713
3.40737
3.40767
3.40787
3.40812
3.40828
3.40848
3.40862
3.40878
3.40889
3.40902
3.4091
3.4092
3.40927
3.40934
3.40938
3.40943
3.40946
3.40949
3.40952
3.40954
3.40956
3.40956
3.40956
3.40955
3.40952
3.40948
3.40942
3.40932
3.40921
3.40901
3.4088
3.4084
3.40793
3.40696
3.40556
3.40239
3.39798
3.39406
3.3875
3.38127
3.37129
3.36712
3.36588
3.36556
3.36549
3.1621
3.20551
3.2313
3.25651
3.26955
3.28199
3.28862
3.29531
3.29888
3.30252
3.30494
3.30828
3.31054
3.31361
3.31567
3.31843
3.32028
3.32276
3.32442
3.32663
3.3281
3.33006
3.33136
3.33308
3.33422
3.33573
3.33675
3.33814
3.3392
3.34085
3.34238
3.3432
3.34406
3.34458
3.34522
3.34562
3.34613
3.34646
3.34687
3.34714
3.34748
3.3477
3.34797
3.34815
3.34837
3.3485
3.34867
3.34878
3.3489
3.34897
3.34904
3.34909
3.34916
3.34919
3.34924
3.34926
3.34927
3.34927
3.34925
3.34921
3.34913
3.34904
3.34886
3.34869
3.34835
3.34801
3.34733
3.34657
3.34496
3.34268
3.33737
3.32995
3.32355
3.31249
3.30228
3.28523
3.27839
3.27642
3.27592
3.27581
3.02453
3.08867
3.12387
3.15978
3.1774
3.19511
3.20407
3.2136
3.21843
3.22359
3.22687
3.23165
3.23472
3.23911
3.2419
3.24585
3.24836
3.25191
3.25416
3.25732
3.25932
3.26212
3.26388
3.26634
3.26789
3.27005
3.27144
3.27342
3.27484
3.2772
3.27937
3.28048
3.2817
3.28241
3.28332
3.28386
3.28459
3.28503
3.28563
3.28599
3.28648
3.28677
3.28716
3.2874
3.28772
3.2879
3.28815
3.28829
3.28846
3.28855
3.28866
3.28873
3.28882
3.28887
3.28893
3.28896
3.28898
3.28898
3.28894
3.28889
3.28878
3.28866
3.28841
3.28817
3.28769
3.28723
3.28627
3.28524
3.28298
3.27992
3.27243
3.26187
3.25322
3.23745
3.22356
3.19876
3.18948
3.18691
3.18627
3.18612
2.88439
2.97299
3.0164
3.06379
3.08526
3.10858
3.11949
3.13208
3.13796
3.14474
3.14873
3.15509
3.15884
3.16467
3.16808
3.17333
3.1764
3.18112
3.18386
3.18806
3.1905
3.19422
3.19637
3.19965
3.20153
3.20441
3.20609
3.20872
3.21045
3.21356
3.21641
3.21775
3.21936
3.22022
3.22143
3.2221
3.22306
3.2236
3.22439
3.22484
3.22548
3.22584
3.22636
3.22665
3.22707
3.2273
3.22762
3.22779
3.22803
3.22814
3.22828
3.22836
3.22848
3.22855
3.22863
3.22867
3.2287
3.22869
3.22864
3.22858
3.22843
3.22828
3.22795
3.22766
3.22704
3.22647
3.22522
3.22397
3.22103
3.21734
3.20762
3.19372
3.18319
3.16233
3.14528
3.11167
3.10029
3.09732
3.0966
3.09643
2.74071
2.85911
2.90878
2.96883
2.99303
3.02254
3.03485
3.05083
3.05746
3.06599
3.07051
3.07863
3.08287
3.09033
3.09419
3.1009
3.10437
3.1104
3.1135
3.11887
3.12163
3.12639
3.12882
3.133
3.13514
3.13881
3.14071
3.14405
3.146
3.14992
3.15351
3.15501
3.15706
3.15803
3.15956
3.16032
3.16155
3.16216
3.16317
3.16367
3.1645
3.1649
3.16557
3.1659
3.16644
3.16669
3.16711
3.1673
3.1676
3.16773
3.1679
3.168
3.16815
3.16822
3.16833
3.16837
3.16841
3.1684
3.16834
3.16827
3.16808
3.16791
3.1675
3.16717
3.16637
3.16573
3.16416
3.16276
3.15911
3.155
3.14297
3.12544
3.11356
3.08706
3.06766
3.02369
3.01078
3.00764
3.0069
3.00674
2.5923
2.74798
2.80074
2.8753
2.9006
2.9372
2.95006
2.96995
2.97688
2.98741
2.99213
3.00233
3.00678
3.01613
3.02018
3.0286
3.03224
3.03979
3.04305
3.04979
3.05268
3.05865
3.0612
3.06644
3.06868
3.07328
3.07527
3.07944
3.08148
3.0863
3.09068
3.09225
3.09479
3.09581
3.09773
3.09852
3.10007
3.10071
3.10197
3.1025
3.10353
3.10396
3.1048
3.10514
3.10581
3.10608
3.1066
3.1068
3.10717
3.10731
3.10753
3.10763
3.10782
3.1079
3.10803
3.10808
3.10812
3.10812
3.10804
3.10797
3.10773
3.10755
3.10704
3.1067
3.10571
3.10504
3.10309
3.10164
3.09721
3.09298
3.07854
3.05693
3.04452
3.0115
2.99102
2.93447
2.92086
2.91787
2.91718
2.91703
2.43765
2.64096
2.69183
2.78374
2.80771
2.85279
2.86499
2.88959
2.89616
2.90906
2.91354
2.92625
2.93049
2.94214
2.94599
2.95648
2.95995
2.96936
2.97246
2.98085
2.98361
2.99104
2.99347
2.99999
3.00213
3.00785
3.00975
3.01491
3.01684
3.0227
3.02798
3.02945
3.03259
3.03355
3.03594
3.0367
3.03862
3.03923
3.0408
3.0413
3.04259
3.043
3.04404
3.04437
3.0452
3.04546
3.0461
3.0463
3.04676
3.04689
3.04716
3.04725
3.0475
3.04757
3.04774
3.04778
3.04784
3.04783
3.04774
3.04768
3.04737
3.04721
3.04657
3.04625
3.04503
3.0444
3.04201
3.04065
3.0353
3.03137
3.0144
2.98805
2.9763
2.93544
2.91583
2.84353
2.83053
2.828
2.82745
2.82732
2.27487
2.54005
2.58127
2.6949
2.71398
2.76971
2.77942
2.80995
2.81518
2.83105
2.83462
2.85051
2.85391
2.86846
2.87155
2.88465
2.88743
2.89918
2.90166
2.91214
2.91435
2.92363
2.92558
2.93373
2.93543
2.94257
2.94409
2.95052
2.95204
2.95912
2.96542
2.96658
2.97047
2.97124
2.97422
2.97482
2.97722
2.97771
2.97968
2.98007
2.98168
2.98201
2.98331
2.98357
2.98461
2.98482
2.98562
2.98578
2.98636
2.98646
2.9868
2.98687
2.98718
2.98724
2.98745
2.98748
2.98756
2.98755
2.98744
2.98739
2.98701
2.98688
2.98609
2.98583
2.98432
2.98382
2.98088
2.97981
2.97333
2.97027
2.95064
2.91859
2.90925
2.85854
2.84275
2.75021
2.73978
2.73805
2.73769
2.73761
2.10148
2.44808
2.46781
2.60984
2.61878
2.68846
2.69302
2.73133
2.73378
2.75352
2.7552
2.77528
2.77688
2.79524
2.7967
2.81323
2.81454
2.82937
2.83054
2.84377
2.84481
2.85652
2.85743
2.86771
2.86852
2.87752
2.87824
2.88631
2.88703
2.89557
2.90307
2.90361
2.90848
2.90884
2.91259
2.91287
2.9159
2.91613
2.91861
2.9188
2.92082
2.92098
2.92262
2.92275
2.92406
2.92416
2.92517
2.92524
2.92598
2.92603
2.92645
2.92648
2.92687
2.9269
2.92717
2.92719
2.92728
2.92728
2.92714
2.92712
2.92664
2.92658
2.92559
2.92547
2.92358
2.92335
2.91969
2.91918
2.91123
2.90984
2.88737
2.84822
2.84385
2.78023
2.77273
2.65362
2.64867
2.64805
2.64792
2.64789
)
;

boundaryField
{
    F1_1
    {
        type            fixedValue;
        value           nonuniform List<scalar> 
80
(
2.00805
2.40911
2.40911
2.57101
2.57101
2.6514
2.6514
2.69771
2.69771
2.72696
2.72696
2.74378
2.74378
2.76225
2.76225
2.77989
2.77989
2.79613
2.79613
2.81081
2.81081
2.82391
2.82391
2.83546
2.83546
2.8456
2.8456
2.8547
2.8547
2.86406
2.87221
2.87221
2.87771
2.87771
2.88195
2.88195
2.88538
2.88538
2.88819
2.88819
2.89048
2.89048
2.89235
2.89235
2.89384
2.89384
2.89499
2.89499
2.89582
2.89582
2.8963
2.8963
2.89674
2.89674
2.89705
2.89705
2.89715
2.89715
2.89699
2.89699
2.89646
2.89646
2.89533
2.89533
2.89318
2.89318
2.88903
2.88903
2.88005
2.88005
2.85608
2.81234
2.81234
2.73997
2.73997
2.60305
2.60305
2.60305
2.60305
2.60305
)
;
    }
    F1_2
    {
        type            fixedValue;
        value           nonuniform List<scalar> 
80
(
2.01759
2.43848
2.43848
2.66057
2.66057
2.80877
2.80877
2.91884
2.91884
3.00109
3.00109
3.05234
3.05234
3.10867
3.10867
3.16145
3.16145
3.20858
3.20858
3.24983
3.24983
3.28559
3.28559
3.31647
3.31647
3.34323
3.34323
3.36712
3.36712
3.39177
3.41344
3.41344
3.42833
3.42833
3.43999
3.43999
3.44953
3.44953
3.45745
3.45745
3.46404
3.46404
3.46953
3.46953
3.47406
3.47406
3.47775
3.47775
3.4806
3.4806
3.48239
3.48239
3.48434
3.48434
3.48615
3.48615
3.48773
3.48773
3.48908
3.48908
3.4902
3.4902
3.49111
3.49111
3.49172
3.49172
3.49173
3.49173
3.48981
3.48981
3.48022
3.45728
3.45728
3.40917
3.40917
3.30047
3.30047
3.30047
3.30047
3.30047
)
;
    }
    F1_3
    {
        type            fixedValue;
        value           nonuniform List<scalar> 
80
(
2.01759
2.43848
2.43848
2.66057
2.66057
2.80877
2.80877
2.91884
2.91884
3.00109
3.00109
3.05234
3.05234
3.10867
3.10867
3.16145
3.16145
3.20858
3.20858
3.24983
3.24983
3.28559
3.28559
3.31647
3.31647
3.34323
3.34323
3.36712
3.36712
3.39177
3.41344
3.41344
3.42833
3.42833
3.43998
3.43998
3.44953
3.44953
3.45745
3.45745
3.46404
3.46404
3.46953
3.46953
3.47406
3.47406
3.47775
3.47775
3.4806
3.4806
3.48239
3.48239
3.48434
3.48434
3.48615
3.48615
3.48773
3.48773
3.48908
3.48908
3.4902
3.4902
3.49111
3.49111
3.49172
3.49172
3.49173
3.49173
3.48981
3.48981
3.48022
3.45728
3.45728
3.40917
3.40917
3.30048
3.30048
3.30048
3.30048
3.30048
)
;
    }
    F1_4
    {
        type            fixedValue;
        value           nonuniform List<scalar> 
80
(
2.00781
2.40862
2.40862
2.56995
2.56995
2.64912
2.64912
2.69272
2.69272
2.71511
2.71511
2.73801
2.73801
2.75896
2.75896
2.77782
2.77782
2.79473
2.79473
2.80981
2.80981
2.82317
2.82317
2.83489
2.83489
2.84516
2.84516
2.85436
2.85436
2.86381
2.87203
2.87203
2.87757
2.87757
2.88184
2.88184
2.8853
2.8853
2.88812
2.88812
2.89043
2.89043
2.89231
2.89231
2.8938
2.8938
2.89496
2.89496
2.8958
2.8958
2.89628
2.89628
2.89673
2.89673
2.89703
2.89703
2.89714
2.89714
2.89699
2.89699
2.89645
2.89645
2.89532
2.89532
2.89318
2.89318
2.88902
2.88902
2.88005
2.88005
2.85607
2.81234
2.81234
2.73996
2.73996
2.60304
2.60304
2.60304
2.60304
2.60304
)
;
    }
    F2_1
    {
        type            fixedValue;
        value           uniform 3.5;
    }
    F2_2
    {
        type            fixedValue;
        value           uniform 3.5;
    }
    F2_3
    {
        type            fixedValue;
        value           uniform 3.5;
    }
    F2_4
    {
        type            fixedValue;
        value           uniform 3.5;
    }
    defaultFaces
    {
        type            empty;
    }
}


// ************************************************************************* //
