/*--------------------------------*- C++ -*----------------------------------*\
| =========                 |                                                 |
| \\      /  F ield         | OpenFOAM: The Open Source CFD Toolbox           |
|  \\    /   O peration     | Version:  5.x                                   |
|   \\  /    A nd           | Web:      www.OpenFOAM.org                      |
|    \\/     M anipulation  |                                                 |
\*---------------------------------------------------------------------------*/
FoamFile
{
    version     2.0;
    format      ascii;
    class       volScalarField;
    location    "2.2";
    object      T;
}
// * * * * * * * * * * * * * * * * * * * * * * * * * * * * * * * * * * * * * //

dimensions      [0 0 0 1 0 0 0];

internalField   nonuniform List<scalar> 
2048
(
9.81019
9.81039
9.81078
9.81135
9.81208
9.81296
9.81397
9.81509
9.8163
9.81757
9.8189
9.82026
9.82165
9.82305
9.82445
9.82584
9.82721
9.82856
9.82988
9.83117
9.83242
9.83363
9.8348
9.83592
9.83701
9.83804
9.83903
9.83996
9.84084
9.84167
9.84243
9.84313
9.84376
9.84431
9.84477
9.84515
9.84543
9.84559
9.84565
9.84558
9.84537
9.84503
9.84453
9.84387
9.84304
9.84205
9.84088
9.83954
9.83802
9.83635
9.83454
9.83262
9.8306
9.82853
9.82646
9.82443
9.82249
9.82068
9.81905
9.81763
9.81646
9.81557
9.81496
9.81466
9.43872
9.4393
9.44046
9.44215
9.44434
9.44696
9.44996
9.45328
9.45686
9.46065
9.46459
9.46863
9.47275
9.47689
9.48104
9.48515
9.48922
9.49321
9.49712
9.50092
9.50462
9.5082
9.51166
9.51499
9.51818
9.52124
9.52416
9.52693
9.52954
9.53198
9.53424
9.53631
9.53817
9.5398
9.54118
9.5423
9.54312
9.54363
9.5438
9.5436
9.543
9.54198
9.54051
9.53857
9.53614
9.5332
9.52974
9.52576
9.52129
9.51634
9.51096
9.50524
9.49925
9.49311
9.48694
9.4809
9.47511
9.46973
9.46488
9.46067
9.4572
9.45453
9.45273
9.45182
9.08304
9.08401
9.08593
9.08873
9.09235
9.09668
9.10163
9.1071
9.11299
9.11922
9.12569
9.13233
9.13908
9.14587
9.15266
9.15941
9.16606
9.17259
9.17898
9.1852
9.19124
9.19709
9.20274
9.20818
9.21341
9.21841
9.22318
9.22771
9.23198
9.23597
9.23968
9.24306
9.24611
9.24879
9.25107
9.25292
9.25428
9.25514
9.25543
9.25512
9.25417
9.25253
9.25015
9.247
9.24304
9.23825
9.2326
9.22609
9.21876
9.21064
9.20181
9.19238
9.1825
9.17237
9.16219
9.15219
9.14263
9.13373
9.12571
9.11876
9.11303
9.10864
9.10567
9.10417
8.74225
8.74361
8.74629
8.75021
8.75525
8.76129
8.76817
8.77577
8.78394
8.79255
8.80149
8.81066
8.81997
8.82933
8.83869
8.84797
8.85712
8.8661
8.87487
8.88341
8.89171
8.89973
8.90748
8.91495
8.92212
8.92898
8.93553
8.94175
8.94762
8.95311
8.95821
8.96288
8.96709
8.9708
8.97396
8.97652
8.97843
8.97964
8.98009
8.97971
8.97845
8.97624
8.97302
8.96874
8.96334
8.95678
8.94904
8.94011
8.93001
8.9188
8.90658
8.89351
8.87979
8.86569
8.8515
8.83756
8.82422
8.81181
8.80063
8.79096
8.78299
8.77689
8.77276
8.77068
8.4155
8.41726
8.42072
8.42578
8.43227
8.44003
8.44885
8.45857
8.46899
8.47996
8.49133
8.50297
8.51478
8.52665
8.53849
8.55023
8.56179
8.57314
8.58421
8.59498
8.60544
8.61555
8.62532
8.63472
8.64376
8.65242
8.66068
8.66852
8.67593
8.68287
8.68932
8.69524
8.70059
8.7053
8.70933
8.71262
8.71509
8.71668
8.71731
8.71691
8.71539
8.71268
8.70869
8.70336
8.69661
8.68838
8.67864
8.66737
8.65459
8.64036
8.62481
8.60812
8.59057
8.57248
8.55425
8.53632
8.51915
8.50319
8.48883
8.47641
8.4662
8.45839
8.45312
8.45047
8.10202
8.1042
8.10848
8.1147
8.12269
8.13219
8.14299
8.15483
8.1675
8.1808
8.19457
8.20865
8.2229
8.23721
8.25148
8.26561
8.27952
8.29314
8.30643
8.31935
8.33188
8.344
8.3557
8.36697
8.3778
8.38817
8.39808
8.40749
8.41639
8.42474
8.43251
8.43964
8.4461
8.45182
8.45672
8.46074
8.46378
8.46578
8.46663
8.46624
8.46452
8.46138
8.4567
8.4504
8.44239
8.4326
8.42095
8.40743
8.39205
8.37486
8.35601
8.33572
8.3143
8.29217
8.26982
8.24781
8.22673
8.20714
8.18954
8.17434
8.16188
8.15236
8.14595
8.14273
7.8011
7.80372
7.80885
7.81631
7.82583
7.83715
7.84994
7.86393
7.87886
7.89449
7.91063
7.9271
7.94376
7.96046
7.9771
7.99355
8.00974
8.02557
8.041
8.05599
8.07051
8.08455
8.0981
8.11115
8.1237
8.13574
8.14723
8.15816
8.1685
8.17821
8.18726
8.19559
8.20314
8.20984
8.21562
8.22038
8.22402
8.22645
8.22756
8.22725
8.22539
8.22187
8.21659
8.20942
8.20025
8.18898
8.17553
8.15986
8.14195
8.12186
8.09974
8.07583
8.0505
8.02423
7.99765
7.97144
7.94632
7.92299
7.90207
7.88405
7.8693
7.85808
7.85053
7.84674
7.51208
7.51517
7.5212
7.52996
7.5411
7.55429
7.56914
7.58531
7.6025
7.62045
7.63894
7.65777
7.6768
7.69585
7.7148
7.73353
7.75192
7.7699
7.78739
7.80437
7.8208
7.83668
7.852
7.86677
7.88098
7.8946
7.90762
7.92001
7.93174
7.94278
7.95308
7.96258
7.97121
7.97891
7.98556
7.99108
7.99534
7.99824
7.99965
7.99945
7.99751
7.99371
7.98789
7.97994
7.9697
7.95707
7.94192
7.92419
7.90384
7.88091
7.85554
7.82799
7.79868
7.76818
7.73721
7.70662
7.6773
7.6501
7.62576
7.60487
7.58782
7.57489
7.56621
7.56186
7.23434
7.23792
7.24494
7.25507
7.26792
7.28306
7.30002
7.31842
7.3379
7.35816
7.37898
7.40015
7.4215
7.44286
7.46408
7.48503
7.50557
7.52562
7.54511
7.56399
7.58225
7.59989
7.61692
7.63333
7.64912
7.66428
7.67877
7.69258
7.70566
7.71798
7.72949
7.74014
7.74985
7.75853
7.76607
7.77235
7.77726
7.78066
7.78241
7.78238
7.78043
7.7764
7.77015
7.7615
7.75031
7.73641
7.71967
7.69998
7.67728
7.65158
7.62299
7.59178
7.55841
7.52352
7.48799
7.45283
7.41911
7.38788
7.36002
7.33619
7.31684
7.30221
7.29242
7.28752
6.96729
6.97142
6.97949
6.99111
7.00577
7.02295
7.0421
7.06277
7.08455
7.10712
7.13025
7.15372
7.17735
7.20098
7.22443
7.24755
7.2702
7.29226
7.31366
7.33438
7.35439
7.37371
7.39237
7.41035
7.42767
7.4443
7.46021
7.47538
7.48976
7.50333
7.51604
7.52782
7.53859
7.54825
7.55668
7.56376
7.56933
7.57326
7.57539
7.57559
7.57368
7.56951
7.5629
7.55365
7.5416
7.52655
7.50834
7.4868
7.46185
7.43344
7.40167
7.36678
7.32925
7.28983
7.24952
7.20954
7.17121
7.13577
7.10427
7.07746
7.05579
7.03949
7.02862
7.0232
6.71038
6.71512
6.72434
6.73756
6.75416
6.77348
6.79491
6.81788
6.84198
6.86686
6.89227
6.91801
6.94389
6.96975
6.99539
7.02064
7.04533
7.06934
7.0926
7.11507
7.13675
7.15768
7.17788
7.19737
7.21615
7.2342
7.25149
7.26797
7.28362
7.29839
7.31226
7.32515
7.33697
7.34762
7.35696
7.36484
7.3711
7.37559
7.37815
7.37862
7.37682
7.37257
7.36568
7.35594
7.34313
7.32705
7.30747
7.28422
7.25712
7.2261
7.19118
7.15259
7.11082
7.06669
7.02137
6.9763
6.93308
6.89323
6.85798
6.82815
6.80418
6.78625
6.77435
6.76843
6.46312
6.46852
6.479
6.49395
6.51263
6.53422
6.558
6.58333
6.60975
6.63692
6.66458
6.69255
6.72066
6.74871
6.7765
6.80384
6.83053
6.85643
6.88147
6.90561
6.92888
6.95133
6.97301
6.99395
7.01414
7.03355
7.05216
7.06991
7.08678
7.10273
7.11773
7.13171
7.14458
7.15621
7.16647
7.17517
7.18215
7.18723
7.19025
7.19103
7.18939
7.18514
7.17805
7.16791
7.15446
7.13745
7.11664
7.09179
7.06267
7.02914
6.99114
6.94884
6.90274
6.85372
6.8031
6.75263
6.70423
6.65975
6.62062
6.58775
6.56154
6.54205
6.52918
6.5228
6.22499
6.23113
6.243
6.25985
6.28075
6.30475
6.33096
6.3587
6.38746
6.41688
6.44676
6.47692
6.5072
6.53741
6.56732
6.59671
6.62536
6.6531
6.67985
6.70559
6.73036
6.75425
6.77734
6.79965
6.82119
6.84193
6.86182
6.8808
6.89884
6.91592
6.93202
6.94707
6.96098
6.97361
6.98479
6.99433
7.00204
7.00774
7.01126
7.0124
7.01098
7.00678
6.99958
6.98912
6.97513
6.95732
6.93541
6.9091
6.8781
6.84217
6.80117
6.75519
6.70467
6.65055
6.59434
6.5381
6.48418
6.43482
6.39172
6.35581
6.32742
6.30648
6.29273
6.28593
5.99555
6.00251
6.01591
6.03484
6.05815
6.08468
6.11343
6.14361
6.17469
6.20634
6.23838
6.27068
6.3031
6.33543
6.36745
6.39886
6.42942
6.45894
6.48733
6.51458
6.54077
6.56602
6.59044
6.61407
6.63691
6.65894
6.68006
6.70022
6.71938
6.73756
6.75472
6.77083
6.78577
6.7994
6.81152
6.82191
6.83038
6.83673
6.84076
6.8423
6.84115
6.83708
6.82984
6.81916
6.80473
6.78624
6.76335
6.73573
6.703
6.66482
6.62093
6.57129
6.51628
6.45686
6.39472
6.33229
6.27246
6.21797
6.17079
6.13189
6.10144
6.07918
6.06466
6.05751
5.77433
5.78221
5.79733
5.81854
5.84445
5.87366
5.90504
5.9377
5.97109
6.00491
6.03905
6.07343
6.10794
6.14237
6.17647
6.20989
6.24232
6.27357
6.30353
6.33221
6.35972
6.38624
6.41191
6.4368
6.46091
6.48418
6.5065
6.52779
6.54804
6.56726
6.58546
6.6026
6.61857
6.6332
6.64627
6.65754
6.66678
6.67379
6.67837
6.68034
6.6795
6.67561
6.66842
6.6576
6.64283
6.62377
6.60005
6.57126
6.53696
6.4967
6.45006
6.39683
6.33727
6.27234
6.20391
6.13482
6.06862
6.00871
5.95738
5.91557
5.88324
5.85982
5.84466
5.83722
5.56093
5.56985
5.58686
5.61059
5.63931
5.67137
5.70545
5.74062
5.77628
5.81221
5.84837
5.88478
5.92134
5.95784
5.994
6.0294
6.06369
6.09661
6.12807
6.15808
6.18682
6.21453
6.24138
6.26748
6.29281
6.31728
6.34077
6.36316
6.38443
6.40465
6.42385
6.442
6.45899
6.47464
6.48868
6.50083
6.51087
6.51856
6.5237
6.52613
6.52564
6.522
6.51491
6.50404
6.48903
6.46951
6.44509
6.41529
6.3796
6.33744
6.28822
6.2315
6.16736
6.09672
6.0216
5.9453
5.87221
5.80657
5.75105
5.70648
5.67246
5.6481
5.63246
5.62482
5.35494
5.36501
5.38415
5.41065
5.44242
5.47748
5.51437
5.55205
5.58994
5.62789
5.66599
5.70435
5.74291
5.78145
5.81967
5.85706
5.89316
5.92771
5.96059
5.99185
6.02171
6.0505
6.07848
6.10573
6.13224
6.1579
6.18253
6.20596
6.22821
6.24937
6.26954
6.28869
6.30669
6.32336
6.33839
6.35144
6.36228
6.37066
6.37639
6.3793
6.3792
6.37585
6.36893
6.35809
6.34293
6.32306
6.29806
6.26741
6.23052
6.18668
6.13508
6.07501
6.00629
5.92975
5.84752
5.76338
5.68278
5.61109
5.55138
5.50425
5.46882
5.44375
5.4278
5.42005
5.15596
5.16735
5.18884
5.21842
5.25349
5.29171
5.33148
5.37169
5.41174
5.45159
5.49152
5.53178
5.57229
5.61285
5.65312
5.69251
5.7304
5.76653
5.80076
5.83316
5.86403
5.89381
5.92284
5.9512
5.97885
6.0057
6.03145
6.05588
6.07903
6.10108
6.12218
6.1423
6.16132
6.17902
6.19506
6.20903
6.22067
6.22976
6.23608
6.23948
6.2398
6.2368
6.23012
6.21938
6.20415
6.18404
6.15859
6.12724
6.08933
6.04405
5.99031
5.92707
5.85381
5.77121
5.68144
5.58872
5.49987
5.42179
5.35796
5.30855
5.27204
5.24655
5.23047
5.22271
4.96362
4.9765
5.00062
5.0336
5.07225
5.11378
5.15651
5.19925
5.24136
5.283
5.32463
5.3667
5.40912
5.45166
5.49403
5.53543
5.57508
5.61274
5.64826
5.68168
5.71345
5.74411
5.77413
5.80355
5.83233
5.86035
5.88721
5.91259
5.93658
5.95945
5.98144
6.00252
6.02254
6.04131
6.05837
6.07326
6.08572
6.09552
6.10243
6.10634
6.10711
6.10449
6.09812
6.08755
6.07233
6.05206
6.02629
5.99438
5.95565
5.90919
5.85359
5.78742
5.7097
5.6209
5.52315
5.421
5.32301
5.23819
5.17039
5.11908
5.08187
5.05626
5.04027
5.03259
4.77757
4.79214
4.81917
4.85592
4.89847
4.94344
4.98918
5.03446
5.07851
5.12177
5.16497
5.20879
5.25307
5.29756
5.34205
5.3855
5.42688
5.46602
5.50277
5.5371
5.56963
5.60107
5.63202
5.66248
5.69234
5.72155
5.74953
5.7758
5.80054
5.82415
5.84701
5.86902
5.89003
5.90989
5.92802
5.94384
5.95712
5.96763
5.97513
5.97955
5.98077
5.97859
5.97259
5.96225
5.9471
5.92676
5.90079
5.86847
5.8291
5.78173
5.72461
5.65579
5.57371
5.47865
5.37251
5.25992
5.15172
5.05981
4.98831
4.93556
4.8981
4.87271
4.85702
4.84952
4.59745
4.61395
4.64418
4.68513
4.73193
4.78043
4.82925
4.87706
4.92291
4.96761
5.0122
5.05771
5.10382
5.15019
5.19687
5.24244
5.2855
5.32609
5.36401
5.39912
5.43227
5.46436
5.49619
5.52766
5.55857
5.589
5.61813
5.64522
5.67062
5.69489
5.71858
5.74152
5.7635
5.78449
5.80373
5.82046
5.83456
5.84579
5.85386
5.85878
5.86048
5.85878
5.8532
5.84316
5.82815
5.8078
5.78174
5.74913
5.7093
5.66133
5.60303
5.53191
5.44564
5.3443
5.22944
5.10523
4.98545
4.88615
4.81135
4.75775
4.72055
4.69572
4.68054
4.67333
4.42292
4.44166
4.47537
4.521
4.57243
4.6245
4.67645
4.72681
4.77427
4.82021
4.86599
4.91315
4.96105
5.00923
5.0582
5.10599
5.15065
5.19265
5.23171
5.26745
5.30107
5.33366
5.36636
5.39881
5.43072
5.46244
5.49276
5.52058
5.54655
5.57137
5.59588
5.61973
5.64264
5.66481
5.68522
5.70284
5.71776
5.72971
5.73833
5.74374
5.74593
5.74475
5.73965
5.72997
5.71513
5.69483
5.6688
5.63601
5.59586
5.54762
5.48855
5.41556
5.32525
5.21769
5.09393
4.95668
4.82362
4.71669
4.6392
4.58546
4.54905
4.52514
4.51068
4.50384
4.25366
4.27501
4.31244
4.36331
4.41982
4.47541
4.53054
4.58351
4.63232
4.67927
4.72599
4.77482
4.8245
4.87433
4.92574
4.97591
5.02203
5.06541
5.10562
5.1418
5.17573
5.20866
5.24225
5.27567
5.30848
5.34158
5.37319
5.40164
5.42804
5.45328
5.47862
5.50339
5.52716
5.55059
5.57224
5.59071
5.60644
5.61913
5.62826
5.63414
5.6368
5.6362
5.63165
5.62239
5.60774
5.58754
5.56166
5.52876
5.48841
5.44026
5.38083
5.30648
5.21231
5.09867
4.96604
4.81411
4.66557
4.55093
4.47157
4.41851
4.38346
4.36083
4.34728
4.3409
4.08934
4.11379
4.15508
4.21187
4.274
4.3329
4.39125
4.44695
4.49679
4.54452
4.59187
4.64244
4.69389
4.74515
4.79922
4.85198
4.89935
4.9441
4.98551
5.02191
5.05599
5.08906
5.12357
5.15799
5.19156
5.22619
5.25921
5.28813
5.31485
5.34035
5.36656
5.39224
5.41677
5.44156
5.46457
5.4838
5.50035
5.51381
5.52337
5.52971
5.53283
5.53286
5.52892
5.52013
5.50569
5.48559
5.46001
5.42707
5.38656
5.3389
5.27955
5.20447
5.10656
4.98705
4.84598
4.67738
4.5105
4.38834
4.30823
4.25678
4.22368
4.20266
4.19019
4.18436
3.92961
3.95784
4.00296
4.06649
4.1349
4.19667
4.25834
4.31698
4.36742
4.41571
4.46328
4.51577
4.56902
4.62132
4.67837
4.73404
4.78232
4.82845
4.87118
4.9075
4.94159
4.97454
5.0101
5.04554
5.07964
5.11601
5.15065
5.17981
5.20674
5.23229
5.25946
5.28608
5.31118
5.3375
5.36201
5.38185
5.39922
5.4135
5.42342
5.43019
5.43373
5.43445
5.4312
5.42294
5.40871
5.38867
5.36359
5.33063
5.28993
5.2432
5.18436
5.10933
5.00773
4.8826
4.73408
4.54645
4.3575
4.22842
4.14901
4.10019
4.06962
4.05051
4.03927
4.03404
3.77414
3.80707
3.85571
3.92699
4.00253
4.06641
4.13153
4.19349
4.24391
4.2926
4.33983
4.39455
4.44971
4.50244
4.56294
4.62197
4.67061
4.71818
4.76248
4.79831
4.83231
4.86477
4.90161
4.93814
4.97239
5.01081
5.04737
5.07645
5.1035
5.12879
5.1571
5.18471
5.21009
5.23816
5.26439
5.2846
5.30281
5.318
5.32814
5.33533
5.33924
5.34074
5.33823
5.33058
5.31653
5.29649
5.27215
5.23915
5.1981
5.15287
5.0949
5.02092
4.91549
4.78497
4.63086
4.42137
4.20539
4.07068
3.99379
3.94868
3.92118
3.90424
3.89437
3.88979
3.62256
3.66151
3.71291
3.79321
3.87697
3.94174
4.01055
4.07642
4.12595
4.17501
4.22112
4.2786
4.33583
4.38808
4.45269
4.51573
4.56388
4.61303
4.65927
4.69406
4.72794
4.75941
4.79788
4.83563
4.86947
4.91038
4.94927
4.97779
5.00492
5.02956
5.05927
5.08798
5.11318
5.14333
5.17157
5.19178
5.21089
5.22712
5.23729
5.24491
5.2491
5.25147
5.24978
5.24283
5.22891
5.20871
5.18547
5.15239
5.11066
5.06761
5.01076
4.93916
4.8295
4.69369
4.53705
4.30234
4.05275
3.91474
3.84255
3.80224
3.7783
3.76376
3.75534
3.75145
3.47447
3.52131
3.57401
3.66501
3.75844
3.82219
3.8951
3.96579
4.0132
4.06279
4.10668
4.16774
4.22733
4.27772
4.34738
4.41533
4.46173
4.51271
4.56151
4.59445
4.62833
4.65809
4.69875
4.73793
4.77048
4.81451
4.8563
4.88356
4.91085
4.93425
4.96581
4.99575
5.02012
5.0528
5.08346
5.10311
5.12322
5.1407
5.15062
5.15872
5.16304
5.16644
5.16563
5.15948
5.14563
5.12502
5.10338
5.07012
5.02714
4.9872
4.9315
4.86405
4.74939
4.60809
4.45366
4.18971
3.89777
3.76029
3.69534
3.66088
3.6409
3.62892
3.62202
3.61884
3.32938
3.38681
3.43835
3.54224
3.64729
3.70719
3.78486
3.86172
3.90521
3.9559
3.99598
4.06184
4.12426
4.17075
4.24681
4.32092
4.36372
4.41694
4.46919
4.49912
4.53338
4.56041
4.60407
4.64498
4.67497
4.723
4.76847
4.79345
4.82119
4.8425
4.87655
4.90797
4.9305
4.96638
5.00002
5.01828
5.03957
5.05863
5.06787
5.07659
5.08081
5.08544
5.08555
5.08034
5.06649
5.04507
5.02574
4.99217
4.94706
4.91146
4.85658
4.79571
4.67475
4.52721
4.38201
4.08408
3.73814
3.60723
3.55232
3.52463
3.50893
3.4996
3.49426
3.4918
3.18676
3.25859
3.30509
3.42475
3.54406
3.59602
3.6795
3.76446
3.80146
3.85441
3.88837
3.96081
4.02677
4.06647
4.15077
4.23275
4.26929
4.32543
4.38242
4.40767
4.44307
4.46586
4.51371
4.55685
4.58241
4.63566
4.68586
4.70708
4.73589
4.75391
4.79138
4.82463
4.84391
4.88389
4.92127
4.93696
4.95974
4.9808
4.98878
4.99835
5.00216
5.00828
5.00934
5.00524
4.99132
4.96847
4.95246
4.91841
4.86983
4.84035
4.78533
4.73443
4.60517
4.44971
4.32382
3.98631
3.57096
3.45573
3.41371
3.39354
3.3823
3.37567
3.37189
3.37015
3.04593
3.13754
3.17313
3.31242
3.4495
3.48776
3.57866
3.67442
3.70126
3.75853
3.7831
3.86459
3.93516
3.964
4.05907
4.15125
4.17778
4.23786
4.30141
4.31959
4.35749
4.37391
4.4276
4.47365
4.49219
4.55232
4.60867
4.62403
4.65498
4.66799
4.71019
4.7458
4.75982
4.80517
4.8473
4.85876
4.8835
4.9072
4.91305
4.92388
4.9268
4.93482
4.93678
4.93404
4.92
4.8948
4.8835
4.84877
4.79481
4.77392
4.71695
4.68068
4.54025
4.37377
4.28126
3.89764
3.39254
3.30634
3.27982
3.26762
3.26092
3.25698
3.25474
3.25372
2.90609
3.02495
3.04108
3.20514
3.36467
3.38126
3.48195
3.59221
3.60372
3.66869
3.67921
3.7732
3.84993
3.86226
3.97155
4.07703
4.08837
4.15393
4.2265
4.23424
4.27687
4.28387
4.34568
4.39565
4.40357
4.47285
4.53716
4.54373
4.57862
4.58418
4.63292
4.67164
4.67765
4.73007
4.7783
4.78323
4.81066
4.83782
4.84036
4.85313
4.85445
4.86491
4.86766
4.8666
4.85242
4.82357
4.81888
4.78327
4.72119
4.71244
4.65039
4.63516
4.47965
4.29697
4.25701
3.81971
3.19824
3.1601
3.15097
3.14691
3.14469
3.14339
3.14265
3.14231
)
;

boundaryField
{
    left
    {
        type            zeroGradient;
    }
    right
    {
        type            zeroGradient;
    }
    interface
    {
        type            fixedValue;
        value           nonuniform List<scalar> 
64
(
2.83459
2.97263
2.97263
3.15281
3.32698
3.32698
3.43442
3.55464
3.55464
3.62622
3.62622
3.72899
3.80997
3.80997
3.92888
4.04324
4.04324
4.11273
4.19162
4.19162
4.23842
4.23842
4.30597
4.35865
4.35865
4.43416
4.50376
4.50376
4.54211
4.54211
4.59545
4.63629
4.63629
4.69351
4.74577
4.74577
4.77511
4.80461
4.80461
4.8189
4.8189
4.831
4.83404
4.83404
4.81985
4.78819
4.78819
4.75202
4.68388
4.68388
4.61669
4.61669
4.45081
4.25573
4.25573
3.78653
3.08789
3.08789
3.08789
3.08789
3.08789
3.08789
3.08789
3.08789
)
;
    }
    bottom
    {
        type            fixedValue;
        value           uniform 10;
    }
    defaultFaces
    {
        type            empty;
    }
}


// ************************************************************************* //
