/*--------------------------------*- C++ -*----------------------------------*\
| =========                 |                                                 |
| \\      /  F ield         | OpenFOAM: The Open Source CFD Toolbox           |
|  \\    /   O peration     | Version:  5.x                                   |
|   \\  /    A nd           | Web:      www.OpenFOAM.org                      |
|    \\/     M anipulation  |                                                 |
\*---------------------------------------------------------------------------*/
FoamFile
{
    version     2.0;
    format      ascii;
    class       volScalarField;
    location    "5.2";
    object      gradTy;
}
// * * * * * * * * * * * * * * * * * * * * * * * * * * * * * * * * * * * * * //

dimensions      [0 -1 0 1 0 0 0];

internalField   nonuniform List<scalar> 
3200
(
18.2506
8.63665
11.7309
8.31324
9.75073
8.04068
8.79488
7.79367
8.24254
7.60177
7.87714
7.51831
7.72874
7.31847
7.53069
7.14047
7.33962
6.98109
7.16285
6.83893
7.00226
6.7133
6.85839
6.60322
6.73126
6.50704
6.62133
6.42162
6.53666
6.36744
6.2322
6.31941
6.20084
6.25854
6.16631
6.21099
6.13694
6.17289
6.11269
6.14193
6.09282
6.11665
6.07665
6.09597
6.06364
6.07911
6.0535
6.06541
6.04626
6.05446
6.04336
6.04951
6.03792
6.04331
6.03435
6.03799
6.03305
6.0341
6.03475
6.03208
6.04082
6.03248
6.05382
6.036
6.07877
6.04293
6.12664
6.04849
6.22324
6.00092
6.29318
7.10854
6.42156
7.94697
6.78033
9.8949
9.12455
9.00674
8.98242
8.97718
17.0109
9.75264
11.3333
8.77723
9.54792
8.27084
8.67462
7.92617
8.16535
7.68593
7.83296
7.56512
7.67726
7.36991
7.48202
7.1897
7.29499
7.02644
7.12258
6.87997
6.96638
6.74995
6.82672
6.63561
6.70339
6.53549
6.59616
6.4468
6.50916
6.37121
6.25708
6.305
6.21645
6.24721
6.17818
6.20188
6.14643
6.16547
6.1204
6.13588
6.09911
6.11172
6.08177
6.092
6.06778
6.07597
6.05679
6.06309
6.04874
6.0531
6.04481
6.04808
6.03939
6.04223
6.03551
6.03743
6.03372
6.03426
6.03474
6.0333
6.03983
6.03537
6.05131
6.04178
6.07372
6.05443
6.11683
6.07406
6.20344
6.07629
6.35164
6.99329
6.62331
7.76438
7.15761
9.50173
9.09842
9.00298
8.98163
8.97695
16.0615
10.5151
11.101
9.10814
9.42701
8.43376
8.60044
8.01915
8.11689
7.74502
7.80536
7.59672
7.64255
7.40455
7.44951
7.22301
7.26531
7.0572
7.09585
6.90783
6.94259
6.77486
6.80575
6.65763
6.68493
6.55479
6.57937
6.46349
6.48967
6.37402
6.27547
6.29605
6.22728
6.23986
6.18633
6.19592
6.15293
6.16061
6.12567
6.13191
6.10341
6.10849
6.08527
6.0894
6.07062
6.07392
6.05906
6.06159
6.05048
6.05225
6.04579
6.04712
6.04039
6.04153
6.03633
6.03709
6.03422
6.03443
6.0348
6.0342
6.03928
6.03744
6.04983
6.04589
6.07072
6.06266
6.11122
6.09273
6.19391
6.13556
6.39544
6.91852
6.76463
7.65172
7.41687
9.21848
9.06
8.99627
8.9802
8.97655
15.3339
11.0322
10.9719
9.34658
9.35859
8.55028
8.55617
8.08497
8.08722
7.78682
7.78852
7.61813
7.6192
7.42788
7.42785
7.24557
7.24564
7.07808
7.07819
6.92679
6.9269
6.79182
6.79193
6.67263
6.67277
6.56789
6.5682
6.4745
6.47584
6.37614
6.28909
6.29067
6.23485
6.23516
6.19196
6.19206
6.1574
6.15746
6.1293
6.12934
6.10637
6.1064
6.08769
6.08771
6.07258
6.0726
6.06063
6.06063
6.05169
6.05172
6.04646
6.04648
6.04109
6.04108
6.0369
6.03689
6.0346
6.03458
6.03491
6.03488
6.039
6.03894
6.04899
6.04886
6.06903
6.06863
6.1083
6.10662
6.19076
6.18209
6.42872
6.87082
6.86431
7.58394
7.59467
9.01362
9.01779
8.98765
8.97827
8.976
14.7784
11.3797
10.9055
9.51952
9.32298
8.63424
8.53099
8.13185
8.06965
7.81654
7.77857
7.63269
7.60353
7.44356
7.41349
7.26083
7.23267
7.09226
7.06658
6.93968
6.91662
6.80338
6.7829
6.68286
6.66481
6.57679
6.5608
6.48171
6.46606
6.37775
6.29917
6.28758
6.24018
6.2322
6.19586
6.18959
6.16049
6.15543
6.1318
6.12768
6.1084
6.10505
6.08935
6.08663
6.07394
6.07176
6.06172
6.06004
6.05255
6.0514
6.04692
6.04607
6.04156
6.04079
6.03731
6.03679
6.03488
6.03473
6.03503
6.03538
6.03889
6.04004
6.04857
6.05101
6.06817
6.073
6.10704
6.11707
6.19132
6.21842
6.45418
6.84106
6.93494
7.54451
7.71614
8.86536
8.97695
8.97821
8.97605
8.97537
14.3589
11.6102
10.8754
9.64489
9.30706
8.69477
8.51765
8.16526
8.05972
7.83765
7.77293
7.64258
7.5931
7.45404
7.40403
7.27112
7.22419
7.10185
7.05903
6.94842
6.90994
6.81122
6.77704
6.68981
6.65965
6.58281
6.55591
6.48638
6.45919
6.37897
6.30657
6.28592
6.24393
6.23037
6.19855
6.18803
6.16261
6.15415
6.13351
6.12663
6.1098
6.10419
6.09049
6.08594
6.07487
6.07123
6.06248
6.05967
6.05315
6.05122
6.04724
6.04579
6.04189
6.04062
6.0376
6.03674
6.0351
6.03485
6.03514
6.03577
6.03888
6.04084
6.04838
6.05257
6.0678
6.0762
6.10673
6.12495
6.19377
6.2464
6.4736
6.82303
6.98494
7.5226
7.79851
8.75861
8.94053
8.9689
8.97378
8.9747
14.0493
11.7601
10.8653
9.73454
9.30211
8.7379
8.51132
8.18878
8.05445
7.85246
7.76991
7.64924
7.58625
7.46096
7.39789
7.27796
7.21873
7.10825
7.05418
6.95427
6.90567
6.81648
6.77331
6.69447
6.65636
6.58683
6.55273
6.48936
6.45444
6.37989
6.31189
6.28512
6.24655
6.22927
6.2004
6.18707
6.16406
6.15335
6.13468
6.12598
6.11076
6.10366
6.09127
6.08552
6.07551
6.07091
6.063
6.05945
6.05357
6.05112
6.04745
6.04562
6.04211
6.04051
6.0378
6.03672
6.03526
6.03495
6.03524
6.03605
6.03891
6.04141
6.04834
6.05369
6.0677
6.07851
6.10691
6.13081
6.19687
6.2674
6.48812
6.8125
7.01992
7.51116
7.85351
8.68298
8.91025
8.96054
8.97166
8.97408
13.8312
11.8543
10.8645
9.79627
9.30244
8.76752
8.50882
8.20479
8.05188
7.8625
7.76842
7.65358
7.5819
7.46538
7.39402
7.28238
7.21532
7.1124
7.05117
6.95807
6.90303
6.81991
6.771
6.6975
6.65432
6.58944
6.55073
6.4912
6.45127
6.38053
6.31557
6.28479
6.24831
6.22864
6.20162
6.1865
6.16501
6.15287
6.13545
6.12558
6.11138
6.10335
6.09179
6.08526
6.07593
6.07071
6.06334
6.05933
6.05385
6.05107
6.0476
6.04551
6.04226
6.04045
6.03794
6.03672
6.03537
6.03503
6.03533
6.03625
6.03896
6.04181
6.04835
6.05446
6.06773
6.08013
6.10728
6.13499
6.19979
6.28239
6.4985
6.80664
7.04354
7.50568
7.88902
8.63144
8.88705
8.95374
8.9699
8.97355
13.6923
11.909
10.8669
9.83502
9.30441
8.78609
8.50814
8.21474
8.05078
7.86873
7.76777
7.65621
7.57933
7.46801
7.39176
7.28501
7.21335
7.11488
7.04943
6.96035
6.90151
6.82196
6.76968
6.69932
6.65315
6.59099
6.54955
6.49225
6.44933
6.38095
6.31788
6.28469
6.2494
6.2283
6.20236
6.18619
6.16559
6.15261
6.13591
6.12536
6.11176
6.10317
6.0921
6.08512
6.07619
6.07061
6.06355
6.05926
6.05402
6.05104
6.04768
6.04544
6.04235
6.04042
6.03802
6.03673
6.03544
6.03508
6.03538
6.03638
6.039
6.04207
6.04838
6.05495
6.0678
6.08115
6.10762
6.13768
6.20199
6.29204
6.5052
6.80364
7.05815
7.50334
7.91017
8.59938
8.87141
8.94896
8.96863
8.97316
13.6246
11.934
10.8689
9.85371
9.30589
8.79504
8.50808
8.21952
8.0504
7.87171
7.76753
7.65744
7.57815
7.46922
7.39072
7.28624
7.21245
7.11604
7.04864
6.96141
6.90082
6.82292
6.76908
6.70018
6.65261
6.59172
6.54901
6.49273
6.44842
6.38116
6.31899
6.28468
6.24992
6.22815
6.20271
6.18605
6.16586
6.15249
6.13613
6.12527
6.11194
6.10309
6.09224
6.08506
6.07631
6.07056
6.06365
6.05923
6.0541
6.05103
6.04772
6.04542
6.04239
6.04041
6.03806
6.03673
6.03548
6.03511
6.03541
6.03644
6.03902
6.04219
6.04841
6.05518
6.06784
6.08164
6.10782
6.139
6.20317
6.29676
6.50849
6.80239
7.06514
7.50255
7.92003
8.584
8.86354
8.9465
8.96797
8.97296
-13.7534
-11.9481
-10.7192
-9.37996
-8.56952
-7.67762
-7.11565
-6.46375
-6.04872
-5.56665
-5.27323
-4.94765
-4.71008
-4.38163
-4.14602
-3.83442
-3.61667
-3.33559
-3.14144
-2.89344
-2.723
-2.50631
-2.35763
-2.16882
-2.03894
-1.87317
-1.75674
-1.60295
-1.4807
-1.29333
-1.11791
-1.01948
-0.917345
-0.852149
-0.774223
-0.722227
-0.65791
-0.614503
-0.560305
-0.523607
-0.477662
-0.446542
-0.407588
-0.381265
-0.348428
-0.32641
-0.299236
-0.281429
-0.260136
-0.246997
-0.232185
-0.221277
-0.206087
-0.195144
-0.180616
-0.170439
-0.157273
-0.148169
-0.136532
-0.12855
-0.118435
-0.111578
-0.103027
-0.0974671
-0.0909818
-0.0876838
-0.085722
-0.0892309
-0.103591
-0.137619
-0.227924
-0.374288
-0.529055
-0.815801
-1.11868
-1.62809
-1.84359
-1.90762
-1.9242
-1.92806
-13.8257
-11.9251
-10.7236
-9.35881
-8.57278
-7.66443
-7.11925
-6.45428
-6.0514
-5.55911
-5.27453
-4.94413
-4.71372
-4.37793
-4.14906
-3.83067
-3.61921
-3.33212
-3.1436
-2.89034
-2.72486
-2.50359
-2.35924
-2.16647
-2.04038
-1.8712
-1.75824
-1.60169
-1.48331
-1.29286
-1.11484
-1.01963
-0.91587
-0.852661
-0.773189
-0.722723
-0.657076
-0.614937
-0.559607
-0.523979
-0.477071
-0.446858
-0.407085
-0.381528
-0.347997
-0.326618
-0.298863
-0.28157
-0.259812
-0.247066
-0.23203
-0.22145
-0.205919
-0.195289
-0.180443
-0.17056
-0.157111
-0.148271
-0.136387
-0.128637
-0.118306
-0.111647
-0.102908
-0.0975051
-0.0908553
-0.0876313
-0.0855041
-0.0887978
-0.102805
-0.135369
-0.225683
-0.373953
-0.523776
-0.815157
-1.11041
-1.63985
-1.84964
-1.90952
-1.92471
-1.92821
-13.9739
-11.8741
-10.7345
-9.31452
-8.58095
-7.63672
-7.12765
-6.43433
-6.05767
-5.54327
-5.27766
-4.93662
-4.72158
-4.36995
-4.15569
-3.82264
-3.62477
-3.32471
-3.14835
-2.88374
-2.72895
-2.4978
-2.36279
-2.16146
-2.04355
-1.86698
-1.76149
-1.59891
-1.48881
-1.29189
-1.10845
-1.02013
-0.912776
-0.853827
-0.770997
-0.723828
-0.655304
-0.615901
-0.558124
-0.524805
-0.475815
-0.447558
-0.406015
-0.382112
-0.347082
-0.327083
-0.298074
-0.281892
-0.259128
-0.247227
-0.231699
-0.221823
-0.205556
-0.195604
-0.180074
-0.170825
-0.156767
-0.148497
-0.136078
-0.128828
-0.118031
-0.1118
-0.102658
-0.0975941
-0.0905928
-0.087536
-0.0850703
-0.0879371
-0.101277
-0.13081
-0.221123
-0.373556
-0.512835
-0.814357
-1.09279
-1.66439
-1.8617
-1.91321
-1.92569
-1.92851
-14.2061
-11.7846
-10.7567
-9.24278
-8.59754
-7.59161
-7.14342
-6.40172
-6.06945
-5.51748
-5.28381
-4.92408
-4.73491
-4.35648
-4.16708
-3.80922
-3.63444
-3.31236
-3.15664
-2.87275
-2.7361
-2.48817
-2.369
-2.15311
-2.04906
-1.85993
-1.76703
-1.59403
-1.49778
-1.29039
-1.09826
-1.02139
-0.90775
-0.855951
-0.767382
-0.725791
-0.652371
-0.617603
-0.555666
-0.52626
-0.473732
-0.448792
-0.404243
-0.383143
-0.345568
-0.327911
-0.296773
-0.282478
-0.258013
-0.247536
-0.231143
-0.222453
-0.204942
-0.196144
-0.179454
-0.171284
-0.156193
-0.14889
-0.135564
-0.129162
-0.117575
-0.112071
-0.102245
-0.0977618
-0.0901737
-0.0874181
-0.0844242
-0.0866584
-0.0991031
-0.12382
-0.21408
-0.373685
-0.495406
-0.814482
-1.06343
-1.70391
-1.87959
-1.91845
-1.92705
-1.92891
-14.5353
-11.6395
-10.7983
-9.1363
-8.62857
-7.52419
-7.17094
-6.35275
-6.09003
-5.47896
-5.29501
-4.90472
-4.75581
-4.33545
-4.18522
-3.78848
-3.65
-3.29336
-3.17006
-2.85587
-2.74771
-2.4734
-2.37909
-2.14029
-2.05799
-1.84903
-1.77577
-1.58609
-1.5112
-1.28828
-1.08347
-1.02413
-0.900254
-0.859549
-0.761891
-0.72903
-0.647895
-0.620395
-0.551909
-0.528643
-0.470548
-0.450812
-0.401534
-0.384835
-0.343259
-0.32928
-0.294801
-0.283474
-0.256339
-0.248084
-0.230281
-0.223437
-0.203981
-0.197002
-0.178496
-0.172022
-0.155309
-0.149525
-0.134774
-0.129705
-0.116877
-0.112516
-0.101619
-0.0980549
-0.0895623
-0.0873109
-0.0835701
-0.0849723
-0.0964391
-0.114209
-0.204264
-0.375331
-0.470082
-0.817412
-1.01841
-1.76201
-1.90295
-1.92491
-1.92868
-1.9294
-14.9802
-11.4122
-10.8728
-8.98366
-8.68347
-7.42673
-7.21707
-6.28155
-6.12455
-5.42337
-5.31447
-4.87571
-4.78758
-4.30363
-4.21322
-3.75742
-3.67429
-3.26503
-3.19112
-2.83076
-2.76596
-2.45143
-2.39495
-2.12122
-2.07199
-1.83271
-1.78917
-1.57356
-1.53055
-1.28545
-1.06286
-1.02945
-0.889434
-0.865429
-0.753811
-0.734203
-0.641275
-0.624829
-0.546345
-0.532422
-0.465832
-0.454017
-0.397525
-0.387524
-0.339849
-0.331471
-0.291904
-0.285104
-0.253912
-0.249015
-0.228983
-0.224928
-0.202523
-0.198321
-0.177057
-0.17317
-0.153989
-0.150521
-0.133598
-0.13056
-0.115841
-0.113223
-0.100702
-0.0985462
-0.0887024
-0.0872642
-0.0825113
-0.0828845
-0.0935238
-0.101708
-0.191208
-0.380029
-0.434656
-0.826195
-0.951694
-1.84423
-1.93107
-1.9321
-1.93044
-1.92991
-15.5679
-11.0637
-11.0012
-8.76746
-8.77664
-7.2874
-7.29223
-6.17923
-6.18084
-5.34409
-5.34713
-4.83269
-4.83519
-4.25607
-4.25583
-3.71145
-3.71163
-3.2233
-3.22364
-2.79384
-2.79421
-2.41914
-2.41952
-2.09317
-2.09359
-1.80856
-1.80947
-1.55413
-1.55798
-1.28172
-1.03469
-1.03903
-0.873977
-0.874816
-0.742053
-0.742312
-0.6316
-0.631747
-0.538202
-0.538309
-0.458927
-0.459012
-0.391658
-0.391723
-0.334869
-0.334911
-0.287699
-0.287711
-0.250435
-0.250553
-0.227047
-0.227154
-0.200339
-0.200325
-0.174925
-0.174932
-0.152042
-0.152056
-0.131869
-0.131883
-0.114323
-0.114328
-0.0993712
-0.0993461
-0.0875074
-0.0873512
-0.0812484
-0.0803871
-0.0907077
-0.0859544
-0.17418
-0.390096
-0.385754
-0.845621
-0.854293
-1.95867
-1.96262
-1.93939
-1.93214
-1.9304
-16.3357
-10.5376
-11.2165
-8.46155
-8.92974
-7.08831
-7.41212
-6.03232
-6.27068
-5.23122
-5.4005
-4.76899
-4.90606
-4.18536
-4.32023
-3.64371
-3.76851
-3.16202
-3.27337
-2.73971
-2.83749
-2.37184
-2.45715
-2.05205
-2.12662
-1.77298
-1.84001
-1.52434
-1.59663
-1.27682
-0.996473
-1.0554
-0.851888
-0.889551
-0.724978
-0.754862
-0.617493
-0.642415
-0.526315
-0.547379
-0.448846
-0.466706
-0.383096
-0.398201
-0.327615
-0.340244
-0.281607
-0.291812
-0.245464
-0.253037
-0.224169
-0.230459
-0.197084
-0.203346
-0.171779
-0.177611
-0.14918
-0.1544
-0.129332
-0.13391
-0.112103
-0.116033
-0.0974441
-0.10062
-0.0858462
-0.0876771
-0.0797768
-0.0774434
-0.0884954
-0.066483
-0.152044
-0.408974
-0.318284
-0.883094
-0.713064
-2.11713
-1.99526
-1.94605
-1.93363
-1.93082
-17.3355
-9.75235
-11.5692
-8.02673
-9.17524
-6.80262
-7.60015
-5.82069
-6.41163
-5.07001
-5.4859
-4.67455
-5.01126
-4.08044
-4.41708
-3.54392
-3.85465
-3.07203
-3.34891
-2.66032
-2.9033
-2.30251
-2.51441
-1.99176
-2.17678
-1.72057
-1.88587
-1.47903
-1.65096
-1.27036
-0.944684
-1.08227
-0.820154
-0.912378
-0.700128
-0.774106
-0.596897
-0.658727
-0.508944
-0.561235
-0.434112
-0.478461
-0.370589
-0.408108
-0.317034
-0.34843
-0.272763
-0.298176
-0.238339
-0.256982
-0.219885
-0.235352
-0.192245
-0.207882
-0.167138
-0.181662
-0.144973
-0.157958
-0.125611
-0.136994
-0.108855
-0.11864
-0.0946477
-0.102612
-0.0835218
-0.0883933
-0.0780836
-0.0739652
-0.0876065
-0.0427095
-0.123055
-0.441758
-0.224594
-0.949962
-0.508872
-2.33663
-2.02499
-1.95123
-1.93474
-1.93112
-18.6388
-8.5913
-12.1364
-7.40442
-9.56175
-6.39028
-7.89143
-5.51441
-6.63005
-4.83866
-5.62056
-4.53435
-5.16731
-3.92497
-4.56248
-3.39692
-3.98469
-2.93981
-3.46322
-2.54382
-3.00301
-2.2008
-2.60119
-1.90328
-2.25272
-1.64343
-1.95474
-1.41069
-1.7275
-1.2618
-0.874461
-1.12522
-0.774338
-0.947474
-0.663912
-0.80348
-0.566817
-0.683582
-0.483563
-0.58234
-0.412586
-0.496372
-0.352327
-0.423221
-0.301613
-0.360955
-0.25993
-0.308005
-0.228124
-0.263206
-0.213548
-0.242637
-0.185101
-0.214718
-0.160328
-0.187804
-0.138819
-0.163368
-0.120178
-0.141696
-0.104124
-0.122632
-0.0906052
-0.10572
-0.080269
-0.0897468
-0.0761704
-0.0698044
-0.0890842
-0.0139514
-0.0845521
-0.49599
-0.0932178
-1.0635
-0.213934
-2.6417
-2.04521
-1.95413
-1.93533
-1.93129
18.6388
8.5913
12.1364
7.40442
9.56175
6.39028
7.89143
5.51441
6.63005
4.83866
5.62056
4.53435
5.16731
3.92497
4.56248
3.39692
3.98468
2.93981
3.46322
2.54382
3.00301
2.2008
2.60119
1.90328
2.25272
1.64343
1.95474
1.41069
1.7275
1.26179
0.87446
1.12522
0.774337
0.947474
0.66391
0.80348
0.566816
0.683581
0.483562
0.58234
0.412585
0.496372
0.352327
0.423221
0.301612
0.360955
0.259929
0.308005
0.228123
0.263205
0.213548
0.242636
0.185101
0.214718
0.160328
0.187804
0.138819
0.163368
0.120178
0.141696
0.104124
0.122633
0.0906051
0.10572
0.0802689
0.0897469
0.0761704
0.0698045
0.0890844
0.0139514
0.0845525
0.495992
0.093219
1.0635
0.213937
2.6417
2.04521
1.95412
1.93533
1.93129
17.3355
9.75236
11.5692
8.02673
9.17525
6.80262
7.60016
5.8207
6.41164
5.07001
5.48591
4.67455
5.01126
4.08044
4.41708
3.54392
3.85466
3.07203
3.34892
2.66033
2.90331
2.30251
2.51442
1.99176
2.17679
1.72058
1.88587
1.47904
1.65096
1.27036
0.944685
1.08227
0.820156
0.91238
0.700129
0.774108
0.596899
0.658729
0.508946
0.561237
0.434113
0.478463
0.37059
0.408109
0.317036
0.348431
0.272764
0.298178
0.23834
0.256983
0.219887
0.235354
0.192246
0.207883
0.167139
0.181663
0.144974
0.157959
0.125612
0.136995
0.108856
0.118641
0.0946487
0.102614
0.0835228
0.0883943
0.0780845
0.0739662
0.0876076
0.0427104
0.123056
0.44176
0.224596
0.949964
0.508875
2.33662
2.02499
1.95123
1.93474
1.93112
16.3357
10.5376
11.2165
8.46157
8.92975
7.08832
7.41213
6.03233
6.27069
5.23123
5.40051
4.769
4.90607
4.18537
4.32023
3.64372
3.76852
3.16202
3.27338
2.73971
2.8375
2.37185
2.45716
2.05206
2.12663
1.77298
1.84002
1.52435
1.59663
1.27683
0.996477
1.0554
0.851892
0.889555
0.724982
0.754866
0.617497
0.642419
0.526319
0.547383
0.448849
0.466709
0.383099
0.398204
0.327618
0.340247
0.28161
0.291814
0.245467
0.25304
0.224171
0.230462
0.197086
0.203349
0.171781
0.177613
0.149182
0.154403
0.129334
0.133912
0.112105
0.116035
0.097446
0.100622
0.085848
0.0876789
0.0797785
0.077445
0.0884971
0.0664846
0.152046
0.408977
0.318286
0.883097
0.713067
2.11713
1.99526
1.94605
1.93363
1.93082
15.5679
11.0637
11.0012
8.76747
8.77665
7.28741
7.29225
6.17924
6.18086
5.3441
5.34714
4.8327
4.8352
4.25608
4.25584
3.71146
3.71164
3.2233
3.22365
2.79384
2.79422
2.41915
2.41953
2.09318
2.0936
1.80857
1.80947
1.55414
1.55799
1.28172
1.0347
1.03904
0.873982
0.874821
0.742058
0.742317
0.631604
0.631751
0.538206
0.538313
0.458931
0.459015
0.391661
0.391727
0.334872
0.334915
0.287702
0.287714
0.250438
0.250556
0.22705
0.227157
0.200342
0.200328
0.174928
0.174935
0.152044
0.152058
0.131871
0.131885
0.114325
0.114331
0.0993733
0.0993483
0.0875095
0.0873532
0.0812503
0.080389
0.0907096
0.0859563
0.174182
0.390099
0.385757
0.845624
0.854296
1.95867
1.96262
1.93939
1.93214
1.9304
14.9802
11.4122
10.8728
8.98367
8.68348
7.42675
7.21708
6.28156
6.12456
5.42338
5.31448
4.87572
4.78759
4.30364
4.21323
3.75743
3.6743
3.26504
3.19113
2.83077
2.76597
2.45144
2.39496
2.12123
2.072
1.83271
1.78918
1.57357
1.53056
1.28545
1.06287
1.02945
0.889439
0.865434
0.753816
0.734208
0.64128
0.624833
0.54635
0.532426
0.465836
0.454021
0.397528
0.387528
0.339853
0.331474
0.291908
0.285107
0.253915
0.249018
0.228986
0.224931
0.202526
0.198324
0.17706
0.173173
0.153991
0.150523
0.133601
0.130562
0.115843
0.113226
0.100704
0.0985484
0.0887046
0.0872663
0.0825133
0.0828866
0.0935259
0.10171
0.19121
0.380032
0.434659
0.826198
0.951697
1.84423
1.93107
1.9321
1.93044
1.92991
14.5353
11.6395
10.7983
9.13632
8.62858
7.5242
7.17096
6.35276
6.09005
5.47897
5.29502
4.90473
4.75582
4.33546
4.18523
3.78849
3.65001
3.29337
3.17007
2.85588
2.74771
2.47341
2.3791
2.1403
2.058
1.84904
1.77578
1.5861
1.51121
1.28828
1.08348
1.02413
0.900259
0.859555
0.761896
0.729035
0.647899
0.6204
0.551913
0.528647
0.470552
0.450817
0.401538
0.384839
0.343263
0.329283
0.294804
0.283477
0.256342
0.248087
0.230285
0.22344
0.203984
0.197005
0.178499
0.172025
0.155311
0.149528
0.134777
0.129708
0.116879
0.112518
0.101622
0.0980572
0.0895645
0.087313
0.0835722
0.0849744
0.0964412
0.114211
0.204266
0.375334
0.470085
0.817415
1.01842
1.76202
1.90295
1.92491
1.92868
1.9294
14.2062
11.7847
10.7567
9.2428
8.59755
7.59162
7.14343
6.40174
6.06947
5.51749
5.28382
4.92409
4.73492
4.35649
4.16709
3.80923
3.63445
3.31237
3.15665
2.87276
2.73611
2.48818
2.36901
2.15312
2.04907
1.85993
1.76703
1.59404
1.49779
1.29039
1.09827
1.0214
0.907756
0.855957
0.767387
0.725796
0.652376
0.617608
0.55567
0.526265
0.473736
0.448796
0.404246
0.383146
0.345572
0.327914
0.296777
0.282482
0.258016
0.247539
0.231146
0.222456
0.204945
0.196147
0.179457
0.171287
0.156196
0.148893
0.135567
0.129165
0.117577
0.112073
0.102247
0.0977641
0.0901759
0.0874203
0.0844264
0.0866605
0.0991053
0.123822
0.214083
0.373688
0.495409
0.814485
1.06343
1.70391
1.87959
1.91846
1.92705
1.92891
13.9739
11.8741
10.7345
9.31454
8.58096
7.63673
7.12766
6.43434
6.05768
5.54328
5.27767
4.93663
4.72159
4.36996
4.1557
3.82265
3.62478
3.32472
3.14836
2.88375
2.72896
2.49781
2.3628
2.16146
2.04355
1.86699
1.7615
1.59892
1.48881
1.2919
1.10846
1.02013
0.912782
0.853832
0.771002
0.723833
0.655309
0.615906
0.558129
0.524809
0.475819
0.447562
0.406019
0.382115
0.347085
0.327087
0.298077
0.281895
0.259132
0.247231
0.231702
0.221826
0.205559
0.195607
0.180077
0.170828
0.15677
0.1485
0.136081
0.12883
0.118033
0.111802
0.10266
0.0975964
0.090595
0.0875382
0.0850724
0.0879392
0.101279
0.130812
0.221126
0.373559
0.512839
0.81436
1.09279
1.66439
1.8617
1.91321
1.92569
1.92851
13.8257
11.9251
10.7236
9.35882
8.5728
7.66444
7.11926
6.45429
6.05141
5.55912
5.27454
4.94414
4.71373
4.37794
4.14907
3.83068
3.61922
3.33213
3.14361
2.89035
2.72487
2.5036
2.35925
2.16648
2.04039
1.8712
1.75825
1.6017
1.48332
1.29286
1.11484
1.01964
0.915875
0.852666
0.773193
0.722727
0.65708
0.614941
0.559612
0.523983
0.477075
0.446861
0.407089
0.381532
0.348
0.326621
0.298866
0.281573
0.259815
0.247069
0.232033
0.221453
0.205922
0.195292
0.180446
0.170563
0.157114
0.148274
0.13639
0.128639
0.118308
0.111649
0.102911
0.0975073
0.0908574
0.0876334
0.0855061
0.0887998
0.102807
0.135371
0.225685
0.373956
0.523779
0.81516
1.11042
1.63985
1.84965
1.90952
1.92471
1.92821
13.7534
11.9481
10.7192
9.37997
8.56953
7.67763
7.11566
6.46376
6.04872
5.56666
5.27324
4.94766
4.71008
4.38164
4.14603
3.83442
3.61668
3.3356
3.14145
2.89345
2.72301
2.50631
2.35764
2.16883
2.03895
1.87317
1.75675
1.60295
1.48071
1.29334
1.11792
1.01949
0.91735
0.852154
0.774228
0.722231
0.657914
0.614507
0.560309
0.523611
0.477665
0.446546
0.407592
0.381269
0.348431
0.326413
0.299239
0.281432
0.260139
0.247
0.232187
0.22128
0.20609
0.195147
0.180619
0.170442
0.157275
0.148171
0.136535
0.128553
0.118437
0.11158
0.103029
0.0974691
0.0909837
0.0876858
0.0857239
0.0892329
0.103593
0.137621
0.227927
0.374291
0.529058
0.815805
1.11868
1.62809
1.84359
1.90762
1.9242
1.92806
-13.6281
-11.939
-10.8758
-9.86425
-9.32059
-8.81772
-8.53985
-8.26868
-8.11813
-7.96938
-7.8668
-7.73101
-7.63533
-7.51066
-7.42368
-7.31136
-7.23323
-7.13261
-7.06278
-6.97307
-6.911
-6.83153
-6.77672
-6.70675
-6.65851
-6.59684
-6.55363
-6.49675
-6.45199
-6.38409
-6.32137
-6.28676
-6.25171
-6.22977
-6.20413
-6.18734
-6.167
-6.15353
-6.13705
-6.12611
-6.11269
-6.10377
-6.09285
-6.08562
-6.0768
-6.07101
-6.06406
-6.05961
-6.05444
-6.05135
-6.04801
-6.04569
-6.04264
-6.04064
-6.03827
-6.03692
-6.03565
-6.03527
-6.03556
-6.03657
-6.03914
-6.0423
-6.0485
-6.05527
-6.06792
-6.08172
-6.10789
-6.13906
-6.20323
-6.29681
-6.50853
-6.80243
-7.06517
-7.50257
-7.92005
-8.58402
-8.86356
-8.94652
-8.96799
-8.97298
-13.6957
-11.9139
-10.8737
-9.84554
-9.31896
-8.80872
-8.53958
-8.26385
-8.11806
-7.96753
-7.86813
-7.7294
-7.63649
-7.50915
-7.4247
-7.30999
-7.23413
-7.13138
-7.06358
-6.97196
-6.9117
-6.83054
-6.77732
-6.70588
-6.65905
-6.59611
-6.55418
-6.49626
-6.45291
-6.38389
-6.32025
-6.28677
-6.25118
-6.22992
-6.20377
-6.18748
-6.16672
-6.15365
-6.13683
-6.1262
-6.11251
-6.10385
-6.0927
-6.08568
-6.07668
-6.07106
-6.06396
-6.05963
-6.05436
-6.05136
-6.04797
-6.04572
-6.0426
-6.04065
-6.03823
-6.03692
-6.03562
-6.03525
-6.03553
-6.03651
-6.03912
-6.04218
-6.04848
-6.05504
-6.06788
-6.08122
-6.10769
-6.13774
-6.20205
-6.29209
-6.50524
-6.80367
-7.05818
-7.50337
-7.9102
-8.5994
-8.87142
-8.94898
-8.96865
-8.97318
-13.8345
-11.8592
-10.8712
-9.80676
-9.31667
-8.79007
-8.53957
-8.25383
-8.11817
-7.96364
-7.87103
-7.72596
-7.63902
-7.50593
-7.42692
-7.30706
-7.23611
-7.12874
-7.06533
-6.9696
-6.91323
-6.82844
-6.77866
-6.70402
-6.66023
-6.59453
-6.55536
-6.49519
-6.45487
-6.38346
-6.31792
-6.28687
-6.25009
-6.23026
-6.20302
-6.1878
-6.16614
-6.15392
-6.13636
-6.12643
-6.11212
-6.10403
-6.09239
-6.08582
-6.07642
-6.07117
-6.06374
-6.0597
-6.05418
-6.05138
-6.04788
-6.04578
-6.04251
-6.04068
-6.03815
-6.03692
-6.03554
-6.03519
-6.03547
-6.03638
-6.03908
-6.04192
-6.04845
-6.05455
-6.06781
-6.0802
-6.10735
-6.13505
-6.19984
-6.28244
-6.49854
-6.80668
-7.04357
-7.5057
-7.88904
-8.63146
-8.88707
-8.95376
-8.96991
-8.97356
-14.0524
-11.765
-10.8717
-9.74501
-9.31585
-8.76038
-8.54098
-8.2378
-8.11904
-7.95727
-7.87603
-7.7202
-7.6434
-7.50054
-7.43078
-7.30218
-7.23954
-7.12435
-7.06837
-6.96567
-6.9159
-6.82493
-6.78098
-6.70093
-6.66228
-6.59189
-6.55739
-6.49333
-6.45806
-6.38281
-6.31421
-6.2872
-6.24831
-6.2309
-6.2018
-6.18837
-6.16518
-6.1544
-6.13559
-6.12682
-6.11149
-6.10435
-6.09187
-6.08608
-6.076
-6.07136
-6.0634
-6.05983
-6.0539
-6.05143
-6.04774
-6.04589
-6.04236
-6.04075
-6.03801
-6.03692
-6.03543
-6.03511
-6.03539
-6.03618
-6.03903
-6.04152
-6.04843
-6.05378
-6.06778
-6.07859
-6.10698
-6.13088
-6.19692
-6.26745
-6.48816
-6.81253
-7.01995
-7.51118
-7.85353
-8.683
-8.91027
-8.96055
-8.97168
-8.97409
-14.3617
-11.6151
-10.8815
-9.65536
-9.32007
-8.71725
-8.54573
-8.2144
-8.12164
-7.94768
-7.88401
-7.71127
-7.65043
-7.49223
-7.43699
-7.29467
-7.24507
-7.1176
-7.07327
-6.95961
-6.92022
-6.81954
-6.78476
-6.69619
-6.66561
-6.58781
-6.5606
-6.49032
-6.46285
-6.38188
-6.30883
-6.28801
-6.24567
-6.232
-6.19994
-6.18934
-6.16373
-6.1552
-6.13441
-6.12748
-6.11053
-6.10488
-6.09109
-6.0865
-6.07536
-6.07169
-6.06287
-6.06004
-6.05348
-6.05154
-6.04753
-6.04607
-6.04214
-6.04085
-6.0378
-6.03694
-6.03527
-6.03501
-6.03528
-6.0359
-6.039
-6.04095
-6.04848
-6.05266
-6.06788
-6.07628
-6.10679
-6.12502
-6.19383
-6.24645
-6.47364
-6.82306
-6.98497
-7.52262
-7.79853
-8.75862
-8.94055
-8.96892
-8.97379
-8.97472
-14.781
-11.3846
-10.911
-9.53007
-9.335
-8.65687
-8.55688
-8.18145
-8.12748
-7.93367
-7.89636
-7.69787
-7.66135
-7.4798
-7.44668
-7.28344
-7.25372
-7.10751
-7.08095
-6.95059
-6.92698
-6.81152
-6.79068
-6.68912
-6.67082
-6.58171
-6.56552
-6.48559
-6.46979
-6.38064
-6.30136
-6.28968
-6.24189
-6.23385
-6.19722
-6.19091
-6.16159
-6.15649
-6.13268
-6.12854
-6.10912
-6.10574
-6.08993
-6.08719
-6.07442
-6.07222
-6.06211
-6.06041
-6.05287
-6.05172
-6.04721
-6.04634
-6.04181
-6.04103
-6.03751
-6.03699
-6.03505
-6.03489
-6.03517
-6.03552
-6.03901
-6.04015
-6.04866
-6.0511
-6.06825
-6.07308
-6.1071
-6.11713
-6.19138
-6.21847
-6.45422
-6.84109
-6.93497
-7.54453
-7.71616
-8.86538
-8.97697
-8.97823
-8.97607
-8.97538
-15.336
-11.0372
-10.9769
-9.35735
-9.36925
-8.57336
-8.57904
-8.13565
-8.13891
-7.91341
-7.91515
-7.67799
-7.67806
-7.46143
-7.46158
-7.26687
-7.26703
-7.09264
-7.09278
-6.93729
-6.93742
-6.79971
-6.79983
-6.67873
-6.67887
-6.57269
-6.573
-6.4783
-6.47965
-6.379
-6.2912
-6.29279
-6.23652
-6.23683
-6.1933
-6.19339
-6.15848
-6.15853
-6.13017
-6.13021
-6.10707
-6.1071
-6.08826
-6.08828
-6.07305
-6.07307
-6.06101
-6.06102
-6.05201
-6.05204
-6.04674
-6.04677
-6.04133
-6.04132
-6.0371
-6.03709
-6.03476
-6.03475
-6.03504
-6.03502
-6.03911
-6.03905
-6.04909
-6.04895
-6.06911
-6.06871
-6.10837
-6.10668
-6.19081
-6.18215
-6.42876
-6.87085
-6.86434
-7.58396
-7.59469
-9.01364
-9.01781
-8.98767
-8.97828
-8.97602
-16.0631
-10.5202
-11.1051
-9.11936
-9.43581
-8.45779
-8.61916
-8.07198
-8.15949
-7.88406
-7.9435
-7.64862
-7.70345
-7.43439
-7.48427
-7.24251
-7.28732
-7.07079
-7.11084
-6.91777
-6.95338
-6.78239
-6.81383
-6.66348
-6.69117
-6.55941
-6.58428
-6.46716
-6.4936
-6.37685
-6.27745
-6.29821
-6.22888
-6.24157
-6.18762
-6.19728
-6.15397
-6.16171
-6.12651
-6.1328
-6.10409
-6.10921
-6.08583
-6.08998
-6.07108
-6.0744
-6.05943
-6.06198
-6.05079
-6.05257
-6.04607
-6.04741
-6.04063
-6.04177
-6.03652
-6.03729
-6.03438
-6.0346
-6.03494
-6.03434
-6.03939
-6.03756
-6.04992
-6.04599
-6.07079
-6.06274
-6.11129
-6.09279
-6.19396
-6.13561
-6.39548
-6.91854
-6.76466
-7.65174
-7.41689
-9.21849
-9.06002
-8.99629
-8.98021
-8.97657
-17.0118
-9.75818
-11.3361
-8.78929
-9.55415
-8.29664
-8.68763
-7.98292
-8.19459
-7.84131
-7.98602
-7.60526
-7.74179
-7.39459
-7.51863
-7.20668
-7.31806
-7.03867
-7.13822
-6.88911
-6.97759
-6.75696
-6.8351
-6.64111
-6.70984
-6.53986
-6.60124
-6.45028
-6.51327
-6.37401
-6.2589
-6.30724
-6.21796
-6.24897
-6.17941
-6.20328
-6.14742
-6.1666
-6.1212
-6.1368
-6.09976
-6.11246
-6.0823
-6.0926
-6.06821
-6.07646
-6.05714
-6.06349
-6.04904
-6.05343
-6.04508
-6.04837
-6.03961
-6.04248
-6.0357
-6.03764
-6.03388
-6.03444
-6.03487
-6.03345
-6.03993
-6.03549
-6.0514
-6.04188
-6.07379
-6.05451
-6.11689
-6.07412
-6.20349
-6.07634
-6.35168
-6.99332
-6.62334
-7.7644
-7.15763
-9.50175
-9.09844
-9.00299
-8.98165
-8.97697
-18.2507
-8.64285
-11.7322
-8.32675
-9.75338
-8.06954
-8.79992
-7.8572
-8.25228
-7.77863
-8.04954
-7.5412
-7.79947
-7.33593
-7.57041
-7.1539
-7.36442
-6.99138
-7.17954
-6.84692
-7.01416
-6.71958
-6.86725
-6.60822
-6.73806
-6.51105
-6.62668
-6.42484
-6.54103
-6.37019
-6.2338
-6.32176
-6.20223
-6.26039
-6.16744
-6.21247
-6.13786
-6.17407
-6.11344
-6.14289
-6.09343
-6.11742
-6.07714
-6.09661
-6.06404
-6.07962
-6.05383
-6.06583
-6.04654
-6.0548
-6.04362
-6.04982
-6.03813
-6.04357
-6.03453
-6.03821
-6.0332
-6.03428
-6.03487
-6.03223
-6.04092
-6.03261
-6.0539
-6.03611
-6.07884
-6.04301
-6.12669
-6.04857
-6.22328
-6.00098
-6.29322
-7.10856
-6.42159
-7.94699
-6.78035
-9.89492
-9.12457
-9.00676
-8.98244
-8.9772
)
;

boundaryField
{
    F1_1
    {
        type            calculated;
        value           nonuniform List<scalar> 
80
(
18.953
7.97433
11.9806
8.04188
9.87701
7.90566
8.86895
7.71569
8.28981
7.55226
7.90426
7.49035
7.75948
7.28774
7.55986
7.1111
7.36641
6.95405
7.18703
6.81448
7.02383
6.69147
6.87744
6.58393
6.74801
6.49008
6.63643
6.4065
6.55275
6.36527
6.21789
6.32825
6.19161
6.2654
6.15926
6.2165
6.13131
6.17736
6.10812
6.14558
6.08909
6.11962
6.0736
6.09837
6.06118
6.081
6.05154
6.06682
6.0448
6.05529
6.04249
6.05037
6.03704
6.04397
6.03367
6.03834
6.03267
6.03402
6.03478
6.03138
6.04145
6.0308
6.05538
6.03263
6.08192
6.03621
6.13282
6.03367
6.23627
5.95873
6.25967
7.17827
6.30276
8.05952
6.55676
10.1236
9.13322
9.00777
8.98264
8.97726
)
;
    }
    F1_2
    {
        type            calculated;
        value           nonuniform List<scalar> 
80
(
-19.3767
-7.89963
-12.4853
-7.03763
-9.79755
-6.14647
-8.06815
-5.33314
-6.76258
-4.70221
-5.7028
-4.45057
-5.26054
-3.83217
-4.64974
-3.30937
-4.06288
-2.86113
-3.53202
-2.47452
-3.06305
-2.14032
-2.65345
-1.85067
-2.29844
-1.5975
-1.99609
-1.36965
-1.77231
-1.25693
-0.83404
-1.15156
-0.747251
-0.968723
-0.642433
-0.821223
-0.548966
-0.698586
-0.468498
-0.595081
-0.399811
-0.507187
-0.341494
-0.432351
-0.292471
-0.368531