/*--------------------------------*- C++ -*----------------------------------*\
| =========                 |                                                 |
| \\      /  F ield         | OpenFOAM: The Open Source CFD Toolbox           |
|  \\    /   O peration     | Version:  5.x                                   |
|   \\  /    A nd           | Web:      www.OpenFOAM.org                      |
|    \\/     M anipulation  |                                                 |
\*---------------------------------------------------------------------------*/
FoamFile
{
    version     2.0;
    format      ascii;
    class       volScalarField;
    location    "5.2";
    object      T;
}
// * * * * * * * * * * * * * * * * * * * * * * * * * * * * * * * * * * * * * //

dimensions      [0 0 0 1 0 0 0];

internalField   nonuniform List<scalar> 
3200
(
2.08485
2.43603
2.45607
2.60092
2.61009
2.68242
2.68723
2.72909
2.73196
2.75847
2.76023
2.77555
2.7769
2.79362
2.79498
2.81093
2.81221
2.82689
2.82805
2.84132
2.84236
2.8542
2.85513
2.86559
2.86641
2.87561
2.87634
2.88463
2.88536
2.89415
2.90185
2.9024
2.90738
2.90775
2.91155
2.91184
2.91488
2.91511
2.91759
2.91777
2.91979
2.91994
2.92158
2.92171
2.92303
2.92313
2.92418
2.92426
2.92504
2.92509
2.92556
2.9256
2.92607
2.92611
2.92647
2.92649
2.92669
2.9267
2.92667
2.92665
2.92628
2.92623
2.92533
2.92522
2.92342
2.92319
2.9196
2.9191
2.9112
2.90981
2.88733
2.84809
2.84371
2.77993
2.77242
2.65311
2.64816
2.64753
2.64741
2.64738
2.26033
2.52902
2.57088
2.68676
2.70634
2.76417
2.77444
2.80781
2.81391
2.83498
2.83873
2.85101
2.85388
2.86711
2.86999
2.88263
2.88534
2.89697
2.89944
2.90995
2.91217
2.92155
2.92352
2.93181
2.93355
2.94085
2.94241
2.949
2.95057
2.95784
2.96432
2.96551
2.96948
2.97027
2.97329
2.97389
2.97631
2.9768
2.97876
2.97916
2.98075
2.98108
2.98238
2.98264
2.98369
2.9839
2.98474
2.9849
2.98552
2.98563
2.986
2.98609
2.98646
2.98653
2.98682
2.98687
2.98703
2.98704
2.98701
2.98698
2.98668
2.98657
2.98586
2.98561
2.98417
2.98368
2.9808
2.97974
2.9733
2.97024
2.95059
2.91848
2.90911
2.85827
2.84245
2.74977
2.73932
2.73759
2.73723
2.73715
2.42507
2.63109
2.68273
2.77646
2.80105
2.84783
2.86073
2.88761
2.89527
2.91219
2.91689
2.92685
2.93044
2.94102
2.94462
2.95473
2.95811
2.96741
2.9705
2.97891
2.98169
2.9892
2.99166
2.9983
3.00048
3.00632
3.00827
3.01357
3.01555
3.02157
3.02699
3.0285
3.03171
3.03269
3.03512
3.03588
3.03781
3.03842
3.03999
3.04049
3.04177
3.04217
3.04322
3.04355
3.04439
3.04465
3.04532
3.04552
3.04601
3.04615
3.04646
3.04656
3.04686
3.04695
3.04718
3.04724
3.04737
3.04738
3.04736
3.04732
3.04708
3.04694
3.04636
3.04605
3.04489
3.04428
3.04194
3.04059
3.03527
3.03134
3.01436
2.98795
2.97618
2.93522
2.91557
2.84315
2.83013
2.82759
2.82704
2.82692
2.58156
2.73933
2.7929
2.86893
2.89488
2.93285
2.94645
2.96819
2.97625
2.98988
2.99484
3.00295
3.00673
3.0152
3.01898
3.02709
3.03064
3.03811
3.04135
3.04811
3.05102
3.05705
3.05964
3.06496
3.06725
3.07195
3.07399
3.07827
3.08036
3.08532
3.08982
3.09143
3.09403
3.09506
3.09701
3.09781
3.09937
3.10001
3.10127
3.10179
3.10282
3.10325
3.10408
3.10443
3.10511
3.10538
3.10592
3.10613
3.10653
3.10667
3.10692
3.10703
3.10727
3.10736
3.10755
3.10761
3.10771
3.10773
3.10771
3.10766
3.10747
3.10732
3.10685
3.10653
3.10559
3.10494
3.10303
3.10159
3.09718
3.09295
3.0785
3.05685
3.04441
3.01131
2.99079
2.93414
2.92052
2.91752
2.91683
2.91668
2.73175
2.85173
2.90217
2.96339
2.98822
3.01884
3.03185
3.04931
3.05701
3.06793
3.07266
3.07922
3.08283
3.08957
3.09318
3.09964
3.10302
3.10898
3.11207
3.11745
3.12023
3.12503
3.1275
3.13175
3.13393
3.13768
3.13963
3.14306
3.14506
3.14909
3.15277
3.15432
3.15641
3.1574
3.15896
3.15972
3.16096
3.16157
3.16258
3.16308
3.1639
3.1643
3.16497
3.1653
3.16584
3.1661
3.16653
3.16673
3.16705
3.16719
3.16739
3.16749
3.16768
3.16777
3.16792
3.16798
3.16806
3.16808
3.16806
3.16801
3.16786
3.16771
3.16734
3.16703
3.16627
3.16565
3.1641
3.16272
3.15908
3.15498
3.14293
3.12537
3.11346
3.0869
3.06746
3.02342
3.01049
3.00735
3.00661
3.00644
2.87713
2.96692
3.01101
3.05932
3.08134
3.10553
3.11707
3.13083
3.13764
3.14621
3.15041
3.1556
3.1588
3.16407
3.16725
3.17231
3.1753
3.17996
3.18269
3.1869
3.18935
3.19312
3.1953
3.19862
3.20055
3.20348
3.20521
3.2079
3.20968
3.21288
3.21581
3.21718
3.21883
3.21971
3.22093
3.2216
3.22258
3.22312
3.22391
3.22435
3.22499
3.22535
3.22587
3.22616
3.22658
3.22682
3.22715
3.22733
3.22758
3.2277
3.22786
3.22795
3.2281
3.22818
3.22829
3.22835
3.22841
3.22842
3.22841
3.22837
3.22825
3.22812
3.22782
3.22755
3.22695
3.2264
3.22517
3.22393
3.22101
3.21732
3.20759
3.19367
3.1831
3.1622
3.14511
3.11145
3.10006
3.09708
3.09636
3.09619
3.01892
3.08393
3.11968
3.15629
3.17436
3.19274
3.2022
3.21262
3.21821
3.22468
3.22812
3.23207
3.23469
3.23866
3.24126
3.24506
3.24751
3.25101
3.25325
3.25642
3.25843
3.26126
3.26304
3.26555
3.26712
3.26934
3.27075
3.27279
3.27425
3.27667
3.27891
3.28003
3.28129
3.282
3.28293
3.28348
3.28421
3.28466
3.28525
3.28561
3.28609
3.28639
3.28678
3.28702
3.28734
3.28753
3.28778
3.28792
3.28811
3.28821
3.28833
3.28841
3.28852
3.28858
3.28867
3.28871
3.28876
3.28877
3.28876
3.28873
3.28864
3.28853
3.28831
3.28808
3.28763
3.28717
3.28624
3.28522
3.28296
3.27991
3.27241
3.26183
3.25316
3.23735
3.22343
3.19859
3.1893
3.18672
3.18608
3.18593
3.15812
3.20212
3.22831
3.25401
3.26738
3.28029
3.2873
3.2946
3.29873
3.30326
3.30581
3.30859
3.31052
3.31329
3.31521
3.31787
3.31967
3.32212
3.32377
3.32598
3.32747
3.32945
3.33076
3.33251
3.33367
3.33522
3.33626
3.33769
3.33877
3.34047
3.34205
3.34288
3.34376
3.34429
3.34494
3.34535
3.34586
3.34619
3.3466
3.34687
3.3472
3.34742
3.3477
3.34787
3.34809
3.34824
3.34841
3.34852
3.34865
3.34872
3.34881
3.34886
3.34894
3.34899
3.34905
3.34908
3.34911
3.34912
3.34912
3.34909
3.34902
3.34895
3.34879
3.34862
3.3483
3.34797
3.34731
3.34655
3.34494
3.34267
3.33735
3.32992
3.3235
3.31242
3.30218
3.28511
3.27826
3.27629
3.27579
3.27567
3.29555
3.32102
3.33697
3.35222
3.36041
3.36809
3.37238
3.37671
3.37924
3.38193
3.38349
3.38514
3.38633
3.38796
3.38914
3.39071
3.39181
3.39326
3.39427
3.39558
3.39649
3.39766
3.39846
3.3995
3.40021
3.40113
3.40176
3.40261
3.40327
3.40428
3.40522
3.40573
3.40625
3.40658
3.40696
3.40721
3.40751
3.40771
3.40796
3.40812
3.40832
3.40845
3.40862
3.40872
3.40886
3.40894
3.40905
3.40911
3.40919
3.40923
3.40928
3.40932
3.40936
3.40939
3.40943
3.40945
3.40947
3.40947
3.40947
3.40945
3.40941
3.40937
3.40927
3.40917
3.40898
3.40878
3.40838
3.40792
3.40695
3.40555
3.40238
3.39796
3.39403
3.38746
3.38121
3.37122
3.36704
3.3658
3.36548
3.36541
3.43196
3.4403
3.44565
3.45071
3.45347
3.45601
3.45746
3.4589
3.45975
3.46064
3.46116
3.46171
3.46211
3.46265
3.46305
3.46357
3.46394
3.46442
3.46476
3.46519
3.4655
3.46588
3.46616
3.4665
3.46674
3.46704
3.46726
3.46754
3.46776
3.46809
3.4684
3.46858
3.46875
3.46886
3.46899
3.46907
3.46917
3.46924
3.46932
3.46937
3.46944
3.46948
3.46954
3.46957
3.46962
3.46965
3.46968
3.4697
3.46973
3.46974
3.46976
3.46977
3.46979
3.4698
3.46981
3.46982
3.46982
3.46982
3.46982
3.46982
3.4698
3.46979
3.46976
3.46972
3.46966
3.46959
3.46946
3.4693
3.46898
3.46851
3.46745
3.46599
3.46467
3.46249
3.46039
3.4571
3.45569
3.45527
3.45516
3.45514
3.43132
3.44023
3.44641
3.45307
3.45716
3.4616
3.46443
3.46767
3.46976
3.47216
3.47364
3.47526
3.47645
3.47809
3.47927
3.48082
3.48192
3.48332
3.4843
3.48553
3.48639
3.48747
3.48821
3.48915
3.48981
3.49063
3.49122
3.49198
3.4926
3.49353
3.49441
3.4949
3.49541
3.49574
3.49613
3.49639
3.49671
3.49693
3.4972
3.49738
3.49761
3.49777
3.49796
3.49809
3.49826
3.49837
3.4985
3.49859
3.4987
3.49877
3.49884
3.49889
3.49897
3.49902
3.4991
3.49915
3.49921
3.49926
3.49932
3.49936
3.49941
3.49944
3.49948
3.49951
3.49954
3.49956
3.49957
3.49955
3.49948
3.49931
3.49886
3.49813
3.49735
3.49592
3.4944
3.49187
3.49079
3.49046
3.49038
3.49036
3.29361
3.32081
3.33921
3.35933
3.37145
3.38485
3.39326
3.40306
3.40927
3.41651
3.4209
3.42579
3.42934
3.43428
3.43781
3.44249
3.44575
3.44997
3.45288
3.4566
3.45915
3.46241
3.46463
3.46747
3.46941
3.4719
3.47365
3.47596
3.47779
3.4806
3.48324
3.48471
3.48624
3.48722
3.48839
3.48917
3.49013
3.49078
3.4916
3.49215
3.49284
3.4933
3.49389
3.49428
3.49477
3.4951
3.49551
3.49578
3.4961
3.49629
3.49652
3.49668
3.49691
3.49707
3.49729
3.49744
3.49764
3.49778
3.49795
3.49807
3.49822
3.49833
3.49845
3.49854
3.49864
3.49868
3.49871
3.49866
3.49845
3.49794
3.49658
3.49439
3.49207
3.48776
3.48323
3.47556
3.47234
3.47138
3.47114
3.47108
3.15481
3.20173
3.23194
3.2659
3.2857
3.30831
3.32204
3.33858
3.34873
3.36098
3.36814
3.37637
3.38218
3.39053
3.39629
3.40421
3.40954
3.41668
3.42142
3.42772
3.43189
3.43739
3.44103
3.44582
3.449
3.45321
3.45605
3.45995
3.46293
3.46768
3.47211
3.47451
3.47709
3.47869
3.48066
3.48193
3.48357
3.48463
3.48601
3.4869
3.48807
3.48883
3.48982
3.49046
3.4913
3.49184
3.49253
3.49296
3.4935
3.49382
3.4942
3.49446
3.49485
3.49512
3.49549
3.49574
3.49607
3.49629
3.49659
3.49678
3.49704
3.49721
3.49743
3.49756
3.49773
3.49781
3.49786
3.49778
3.49742
3.4966
3.49434
3.49065
3.48687
3.47962
3.47219
3.45908
3.4538
3.45227
3.45189
3.4518
3.01413
3.08332
3.12452
3.17304
3.19983
3.23212
3.25071
3.27437
3.28811
3.30564
3.31535
3.32706
3.33491
3.34688
3.35469
3.36604
3.37325
3.38348
3.38991
3.39893
3.40457
3.41245
3.41738
3.42424
3.42854
3.43457
3.43842
3.44398
3.44801
3.45476
3.46107
3.46431
3.46799
3.47014
3.47297
3.47469
3.47703
3.47846
3.48043
3.48165
3.48332
3.48435
3.48577
3.48664
3.48783
3.48856
3.48955
3.49014
3.49092
3.49135
3.49188
3.49224
3.4928
3.49316
3.49369
3.49403
3.49451
3.49481
3.49523
3.4955
3.49586
3.49609
3.4964
3.49659
3.49682
3.49693
3.49701
3.4969
3.49642
3.49532
3.49216
3.48692
3.48181
3.47148
3.46137
3.44228
3.4351
3.43312
3.43262
3.43251
2.87069
2.96604
3.0168
3.08104
3.11375
3.15647
3.17917
3.21055
3.22734
3.25063
3.26247
3.27789
3.28748
3.3034
3.31295
3.32803
3.33685
3.35043
3.35829
3.37027
3.37717
3.38763
3.39365
3.40276
3.40802
3.41601
3.42071
3.42807
3.43298
3.44187
3.45014
3.45408
3.45894
3.46157
3.46532
3.46742
3.47052
3.47228
3.47489
3.47638
3.47859
3.47985
3.48173
3.4828
3.48439
3.48528
3.48659
3.48731
3.48834
3.48887
3.48958
3.49002
3.49075
3.4912
3.4919
3.49231
3.49295
3.49332
3.49388
3.4942
3.49469
3.49497
3.49538
3.49561
3.49592
3.49606
3.49617
3.49604
3.49544
3.49413
3.49006
3.48318
3.47696
3.46333
3.45092
3.425
3.41621
3.4139
3.41334
3.41322
2.72343
2.85053
2.90855
2.99031
3.02726
3.08163
3.10729
3.14731
3.16631
3.19606
3.20945
3.22896
3.2398
3.26017
3.27099
3.29027
3.30025
3.31761
3.32651
3.34181
3.34962
3.36298
3.3698
3.38144
3.38738
3.39758
3.4029
3.41226
3.41779
3.429
3.4394
3.44382
3.44998
3.45295
3.45773
3.46011
3.46407
3.46606
3.4694
3.47108
3.47391
3.47533
3.47774
3.47894
3.48097
3.48198
3.48365
3.48447
3.48579
3.48639
3.48728
3.48778
3.48872
3.48922
3.49012
3.49059
3.4914
3.49182
3.49254
3.4929
3.49353
3.49384
3.49437
3.49462
3.49503
3.49519
3.49534
3.4952
3.49449
3.49304
3.48808
3.47941
3.47241
3.45513
3.44101
3.40704
3.39705
3.39462
3.39405
3.39392
2.57108
2.73779
2.79935
2.90137
2.94008
3.00794
3.03483
3.08492
3.10485
3.14216
3.15618
3.18038
3.19173
3.21733
3.22869
3.25288
3.26336
3.28513
3.29447
3.31365
3.32185
3.3386
3.34575
3.36034
3.36658
3.37936
3.38493
3.3966
3.40237
3.41616
3.42889
3.43349
3.44115
3.44426
3.45024
3.45274
3.45769
3.45978
3.46397
3.46573
3.46928
3.47077
3.47378
3.47505
3.47759
3.47865
3.48075
3.48161
3.48326
3.48389
3.485
3.48552
3.4867
3.48723
3.48836
3.48885
3.48987
3.49031
3.49121
3.49159
3.49237
3.4927
3.49337
3.49364
3.49415
3.49432
3.49452
3.49439
3.49357
3.49209
3.48624
3.47557
3.46827
3.4468
3.43189
3.38811
3.37758
3.37526
3.37474
3.37462
2.41207
2.62926
2.68853
2.81496
2.85173
2.93589
2.96144
3.02373
3.0427
3.08918
3.1025
3.13231
3.14309
3.17505
3.18587
3.21604
3.22602
3.25314
3.26204
3.28593
3.29374
3.3146
3.32141
3.33957
3.34551
3.36141
3.36671
3.38117
3.38663
3.40336
3.4187
3.42304
3.4325
3.43545
3.44289
3.44526
3.45144
3.45342
3.45863
3.46031
3.46473
3.46615
3.4699
3.47111
3.47427
3.47528
3.4779
3.47872
3.48078
3.48138
3.48274
3.48323
3.48471
3.48521
3.48662
3.48709
3.48836
3.48878
3.4899
3.49026
3.49124
3.49155
3.49238
3.49264
3.49328
3.49344
3.49372
3.4936
3.49268
3.49132
3.48459
3.47161
3.4647
3.43822
3.42392
3.36786
3.35779
3.35583
3.35541
3.35531
2.24437
2.52704
2.57502
2.73214
2.76149
2.86617
2.88659
2.96427
2.97944
3.03753
3.04817
3.085
3.09361
3.13362
3.14228
3.18
3.18799
3.22189
3.229
3.25886
3.2651
3.29116
3.29661
3.3193
3.32405
3.3439
3.34813
3.36611
3.37043
3.39062
3.40896
3.41239
3.42411
3.42647
3.43574
3.43764
3.44535
3.44693
3.45344
3.45478
3.4603
3.46144
3.46612
3.46709
3.47104
3.47184
3.47512
3.47577
3.47835
3.47883
3.48051
3.48091
3.48276
3.48316
3.48492
3.4853
3.48688
3.48722
3.48862
3.48891
3.49013
3.49038
3.49142
3.49162
3.49243
3.49256
3.49293
3.49284
3.4918
3.49076
3.4832
3.4674
3.46191
3.42914
3.41762
3.34577
3.33768
3.33634
3.33606
3.336
2.06536
2.43421
2.45714
2.65443
2.66823
2.79983
2.80944
2.90732
2.91446
2.98778
2.99279
3.03882
3.04287
3.09344
3.09753
3.14516
3.14893
3.1917
3.19506
3.23273
3.23567
3.26855
3.27112
3.29974
3.30198
3.327
3.329
3.35159
3.35361
3.37796
3.39981
3.4014
3.4161
3.41721
3.42889
3.42978
3.4395
3.44025
3.44845
3.44909
3.45605
3.45658
3.46249
3.46295
3.46793
3.46831
3.47245
3.47275
3.47601
3.47624
3.47834
3.47853
3.48087
3.48106
3.48328
3.48345
3.48546
3.48562
3.48739
3.48752
3.48906
3.48918
3.49049
3.49059
3.49161
3.49167
3.49215
3.49212
3.49093
3.49046
3.48213
3.46277
3.46021
3.41922
3.41374
3.32113
3.31729
3.31681
3.31671
3.31669
2.06536
2.43421
2.45714
2.65443
2.66822
2.79983
2.80944
2.90731
2.91446
2.98778
2.99279
3.03882
3.04287
3.09344
3.09753
3.14516
3.14893
3.1917
3.19506
3.23273
3.23567
3.26855
3.27112
3.29974
3.30198
3.327
3.32899
3.35159
3.35361
3.37796
3.39981
3.4014
3.4161
3.41721
3.42889
3.42978
3.4395
3.44025
3.44845
3.44909
3.45605
3.45658
3.46249
3.46294
3.46793
3.46831
3.47244
3.47275
3.47601
3.47624
3.47834
3.47853
3.48087
3.48106
3.48328
3.48345
3.48546
3.48562
3.48739
3.48752
3.48906
3.48918
3.49049
3.49059
3.49161
3.49167
3.49215
3.49212
3.49093
3.49046
3.48213
3.46277
3.46021
3.41922
3.41374
3.32113
3.31729
3.31681
3.31671
3.31669
2.24437
2.52704
2.57502
2.73214
2.76148
2.86617
2.88659
2.96427
2.97944
3.03753
3.04817
3.085
3.09361
3.13362
3.14228
3.18
3.18799
3.22189
3.229
3.25886
3.2651
3.29116
3.29661
3.3193
3.32405
3.3439
3.34813
3.36611
3.37043
3.39062
3.40896
3.41238
3.42411
3.42647
3.43574
3.43764
3.44534
3.44693
3.45344
3.45478
3.4603
3.46144
3.46612
3.46709
3.47104
3.47184
3.47512
3.47577
3.47835
3.47883
3.48051
3.48091
3.48276
3.48316
3.48492
3.4853
3.48688
3.48722
3.48862
3.48891
3.49013
3.49038
3.49142
3.49162
3.49243
3.49256
3.49293
3.49284
3.4918
3.49076
3.4832
3.46739
3.46191
3.42914
3.41762
3.34577
3.33768
3.33634
3.33606
3.336
2.41207
2.62926
2.68853
2.81496
2.85173
2.93588
2.96144
3.02373
3.04269
3.08918
3.1025
3.13231
3.14309
3.17505
3.18587
3.21604
3.22602
3.25314
3.26203
3.28593
3.29373
3.3146
3.32141
3.33957
3.34551
3.36141
3.36671
3.38117
3.38663
3.40336
3.4187
3.42304
3.4325
3.43545
3.44289
3.44526
3.45144
3.45342
3.45863
3.46031
3.46473
3.46615
3.4699
3.47111
3.47427
3.47528
3.4779
3.47872
3.48078
3.48138
3.48274
3.48323
3.48471
3.48521
3.48662
3.48709
3.48836
3.48878
3.4899
3.49026
3.49124
3.49155
3.49238
3.49264
3.49328
3.49344
3.49372
3.4936
3.49268
3.49132
3.48459
3.47161
3.4647
3.43822
3.42392
3.36786
3.35779
3.35583
3.35541
3.35531
2.57108
2.73779
2.79935
2.90137
2.94008
3.00794
3.03483
3.08492
3.10485
3.14216
3.15618
3.18038
3.19173
3.21733
3.22869
3.25288
3.26336
3.28513
3.29447
3.31365
3.32185
3.3386
3.34575
3.36034
3.36658
3.37935
3.38493
3.3966
3.40237
3.41616
3.42889
3.43349
3.44115
3.44426
3.45024
3.45273
3.45769
3.45978
3.46396
3.46573
3.46928
3.47077
3.47378
3.47505
3.47759
3.47865
3.48075
3.48161
3.48326
3.48389
3.485
3.48552
3.4867
3.48723
3.48836
3.48885
3.48987
3.49031
3.49121
3.49159
3.49237
3.4927
3.49337
3.49364
3.49415
3.49432
3.49452
3.49439
3.49357
3.49209
3.48624
3.47557
3.46827
3.4468
3.43189
3.38811
3.37758
3.37526
3.37474
3.37462
2.72343
2.85053
2.90855
2.99031
3.02726
3.08163
3.10729
3.14731
3.16631
3.19606
3.20945
3.22896
3.2398
3.26017
3.27099
3.29027
3.30025
3.31761
3.32651
3.34181
3.34962
3.36298
3.3698
3.38144
3.38738
3.39758
3.4029
3.41226
3.41779
3.429
3.4394
3.44382
3.44998
3.45295
3.45773
3.46011
3.46407
3.46606
3.4694
3.47108
3.47391
3.47533
3.47774
3.47894
3.48097
3.48198
3.48365
3.48447
3.48579
3.48639
3.48728
3.48778
3.48872
3.48922
3.49012
3.49059
3.4914
3.49182
3.49253
3.4929
3.49353
3.49384
3.49437
3.49462
3.49503
3.49519
3.49534
3.4952
3.49449
3.49304
3.48808
3.47941
3.47241
3.45513
3.44101
3.40704
3.39705
3.39462
3.39405
3.39392
2.87069
2.96604
3.0168
3.08104
3.11375
3.15647
3.17917
3.21055
3.22734
3.25063
3.26247
3.27789
3.28748
3.3034
3.31295
3.32803
3.33685
3.35043
3.35829
3.37027
3.37717
3.38763
3.39365
3.40276
3.40802
3.41601
3.42071
3.42807
3.43298
3.44187
3.45014
3.45408
3.45894
3.46157
3.46532
3.46742
3.47052
3.47228
3.47489
3.47638
3.47859
3.47985
3.48173
3.4828
3.48439
3.48528
3.48659
3.48731
3.48834
3.48887
3.48958
3.49002
3.49075
3.4912
3.4919
3.49231
3.49295
3.49332
3.49388
3.4942
3.49469
3.49497
3.49538
3.49561
3.49592
3.49606
3.49617
3.49604
3.49544
3.49413
3.49006
3.48318
3.47696
3.46333
3.45092
3.425
3.4162
3.4139
3.41334
3.41322
3.01413
3.08332
3.12452
3.17304
3.19983
3.23212
3.25071
3.27437
3.28811
3.30564
3.31535
3.32706
3.33491
3.34688
3.35469
3.36604
3.37325
3.38348
3.38991
3.39893
3.40457
3.41245
3.41738
3.42424
3.42854
3.43457
3.43842
3.44398
3.44801
3.45476
3.46107
3.4643
3.46799
3.47014
3.47297
3.47469
3.47703
3.47846
3.48043
3.48165
3.48332
3.48435
3.48577
3.48664
3.48783
3.48856
3.48955
3.49014
3.49092
3.49135
3.49188
3.49224
3.4928
3.49316
3.49369
3.49403
3.49451
3.49481
3.49523
3.4955
3.49586
3.49609
3.4964
3.49659
3.49682
3.49693
3.49701
3.4969
3.49642
3.49532
3.49216
3.48691
3.48181
3.47148
3.46137
3.44228
3.4351
3.43312
3.43262
3.43251
3.15481
3.20173
3.23194
3.2659
3.2857
3.30831
3.32204
3.33858
3.34873
3.36098
3.36814
3.37637
3.38218
3.39053
3.39629
3.40421
3.40954
3.41668
3.42142
3.42772
3.43189
3.43739
3.44103
3.44582
3.449
3.45321
3.45605
3.45995
3.46293
3.46768
3.47211
3.47451
3.47709
3.47869
3.48066
3.48193
3.48357
3.48463
3.48601
3.4869
3.48807
3.48883
3.48982
3.49046
3.4913
3.49184
3.49253
3.49296
3.4935
3.49382
3.4942
3.49446
3.49485
3.49512
3.49549
3.49574
3.49607
3.49629
3.49659
3.49678
3.49704
3.49721
3.49743
3.49756
3.49773
3.49781
3.49786
3.49778
3.49742
3.4966
3.49434
3.49065
3.48687
3.47962
3.47219
3.45908
3.4538
3.45227
3.45189
3.4518
3.29361
3.32081
3.33921
3.35933
3.37145
3.38485
3.39326
3.40306
3.40927
3.41651
3.4209
3.42579
3.42934
3.43428
3.43781
3.44249
3.44575
3.44997
3.45288
3.4566
3.45915
3.46241
3.46463
3.46747
3.46941
3.4719
3.47365
3.47596
3.47779
3.4806
3.48323
3.48471
3.48624
3.48722
3.48839
3.48917
3.49013
3.49078
3.4916
3.49215
3.49284
3.4933
3.49389
3.49428
3.49477
3.4951
3.49551
3.49578
3.4961
3.49629
3.49652
3.49668
3.49691
3.49707
3.49729
3.49744
3.49764
3.49778
3.49795
3.49807
3.49822
3.49833
3.49845
3.49854
3.49864
3.49868
3.49871
3.49866
3.49845
3.49794
3.49658
3.49439
3.49207
3.48776
3.48323
3.47556
3.47234
3.47138
3.47114
3.47108
3.43132
3.44023
3.44641
3.45307
3.45716
3.4616
3.46443
3.46767
3.46976
3.47216
3.47364
3.47526
3.47645
3.47809
3.47927
3.48082
3.48192
3.48332
3.4843
3.48553
3.48639
3.48747
3.48821
3.48915
3.48981
3.49063
3.49122
3.49198
3.4926
3.49353
3.49441
3.4949
3.49541
3.49574
3.49613
3.49639
3.49671
3.49693
3.4972
3.49738
3.49761
3.49777
3.49796
3.49809
3.49826
3.49837
3.4985
3.49859
3.4987
3.49877
3.49884
3.49889
3.49897
3.49902
3.4991
3.49915
3.49921
3.49926
3.49932
3.49936
3.49941
3.49944
3.49948
3.49951
3.49954
3.49956
3.49957
3.49955
3.49948
3.49931
3.49886
3.49813
3.49735
3.49592
3.4944
3.49187
3.49079
3.49046
3.49038
3.49036
3.43194
3.44028
3.44562
3.45066
3.45339
3.4559
3.4573
3.45865
3.45941
3.46015
3.46067
3.46134
3.46182
3.46244
3.46288
3.46344
3.46383
3.46434
3.46469
3.46513
3.46545
3.46584
3.46612
3.46647
3.46671
3.46701
3.46723
3.46752
3.46774
3.46808
3.46839
3.46857
3.46874
3.46885
3.46898
3.46906
3.46916
3.46923
3.46931
3.46937
3.46944
3.46948
3.46954
3.46957
3.46962
3.46964
3.46968
3.4697
3.46973
3.46974
3.46976
3.46977
3.46979
3.4698
3.46981
3.46982
3.46982
3.46982
3.46982
3.46982
3.4698
3.46979
3.46976
3.46972
3.46966
3.46959
3.46946
3.4693
3.46898
3.46851
3.46745
3.46599
3.46467
3.46249
3.46039
3.4571
3.45569
3.45527
3.45516
3.45514
3.29549
3.32095
3.33687
3.35206
3.36019
3.36775
3.3719
3.37598
3.37823
3.38046
3.382
3.38404
3.38547
3.38734
3.38864
3.39033
3.3915
3.39301
3.39406
3.39541
3.39633
3.39753
3.39835
3.3994
3.40012
3.40105
3.40169
3.40255
3.40322
3.40424
3.40518
3.4057
3.40623
3.40655
3.40694
3.40719
3.4075
3.4077
3.40794
3.40811
3.40831
3.40844
3.40861
3.40872
3.40885
3.40893
3.40904
3.40911
3.40918
3.40923
3.40928
3.40931
3.40936
3.40939
3.40943
3.40945
3.40947
3.40947
3.40947
3.40945
3.40941
3.40937
3.40927
3.40917
3.40898
3.40877
3.40838
3.40792
3.40695
3.40555
3.40238
3.39796
3.39403
3.38746
3.38121
3.37122
3.36704
3.3658
3.36548
3.36541
3.15803
3.202
3.22814
3.25374
3.26702
3.27973
3.28651
3.29337
3.29705
3.3008
3.30331
3.30676
3.3091
3.31226
3.31439
3.31724
3.31915
3.32171
3.32342
3.32569
3.32721
3.32923
3.33057
3.33235
3.33353
3.33509
3.33615
3.33759
3.33868
3.3404
3.34199
3.34283
3.34372
3.34425
3.3449
3.34531
3.34583
3.34616
3.34658
3.34685
3.34719
3.3474
3.34768
3.34786
3.34808
3.34822
3.3484
3.34851
3.34864
3.34872
3.3488
3.34886
3.34893
3.34898
3.34904
3.34908
3.34911
3.34912
3.34911
3.34909
3.34902
3.34894
3.34879
3.34862
3.3483
3.34797
3.34731
3.34655
3.34494
3.34267
3.33735
3.32992
3.3235
3.31242
3.30218
3.28511
3.27826
3.27629
3.27579
3.27567
3.0188
3.08376
3.11944
3.15592
3.17386
3.19194
3.20111
3.2109
3.21586
3.22119
3.22458
3.22952
3.23269
3.23722
3.24011
3.24419
3.24678
3.25044
3.25275
3.25601
3.25807
3.26096
3.26278
3.26532
3.26692
3.26916
3.27059
3.27265
3.27412
3.27657
3.27882
3.27996
3.28122
3.28195
3.28288
3.28343
3.28417
3.28462
3.28522
3.28558
3.28607
3.28636
3.28676
3.287
3.28732
3.28751
3.28776
3.28791
3.2881
3.2882
3.28832
3.2884
3.28851
3.28858
3.28866
3.28871
3.28875
3.28877
3.28876
3.28872
3.28863
3.28853
3.2883
3.28808
3.28762
3.28717
3.28624
3.28521
3.28296
3.2799
3.27241
3.26183
3.25316
3.23735
3.22343
3.19859
3.1893
3.18672
3.18608
3.18593
2.87698
2.9667
3.01071
3.05884
3.0807
3.10452
3.11569
3.12862
3.13467
3.14165
3.14578
3.15235
3.15623
3.16225
3.16577
3.1712
3.17436
3.17922
3.18205
3.18638
3.18889
3.19273
3.19495
3.19833
3.20028
3.20326
3.205
3.20772
3.20952
3.21275
3.2157
3.21709
3.21875
3.21964
3.22087
3.22155
3.22253
3.22307
3.22387
3.22431
3.22496
3.22532
3.22584
3.22614
3.22656
3.2268
3.22713
3.22731
3.22756
3.22769
3.22785
3.22794
3.22809
3.22817
3.22828
3.22834
3.2284
3.22842
3.2284
3.22836
3.22824
3.22811
3.22782
3.22755
3.22695
3.22639
3.22517
3.22393
3.221
3.21732
3.20759
3.19367
3.1831
3.1622
3.14511
3.11145
3.10006
3.09708
3.09635
3.09619
2.73157
2.85146
2.90181
2.96282
2.98746
3.0176
3.0302
3.04661
3.05343
3.06224
3.0669
3.07529
3.07968
3.08738
3.09137
3.0983
3.10188
3.10809
3.11129
3.11682
3.11967
3.12457
3.12708
3.1314
3.13361
3.1374
3.13938
3.14284
3.14486
3.14893
3.15265
3.1542
3.15631
3.15731
3.15888
3.15965
3.1609
3.16151
3.16253
3.16303
3.16386
3.16427
3.16494
3.16527
3.16581
3.16608
3.16651
3.16671
3.16703
3.16717
3.16737
3.16748
3.16767
3.16776
3.16791
3.16797
3.16805
3.16807
3.16805
3.16801
3.16785
3.16771
3.16733
3.16703
3.16627
3.16565
3.1641
3.16271
3.15908
3.15498
3.14293
3.12537
3.11346
3.08689
3.06746
3.02342
3.01048
3.00735
3.00661
3.00644
2.58136
2.73901
2.79249
2.86824
2.894
2.93138
2.94455
2.96499
2.97212
2.98298
2.98786
2.99839
3.003
3.01266
3.01684
3.02553
3.02929
3.03707
3.04043
3.04737
3.05035
3.0565
3.05914
3.06455
3.06687
3.07162
3.07369
3.07801
3.08013
3.08513
3.08968
3.09129
3.09391
3.09496
3.09692
3.09773
3.09929
3.09994
3.10121
3.10174
3.10277
3.1032
3.10405
3.10439
3.10507
3.10535
3.10589
3.1061
3.10651
3.10665
3.1069
3.10701
3.10725
3.10735
3.10753
3.1076
3.1077
3.10772
3.1077
3.10765
3.10746
3.10731
3.10685
3.10653
3.10558
3.10493
3.10302
3.10159
3.09718
3.09295
3.0785
3.05684
3.0444
3.01131
2.99079
2.93414
2.92052
2.91752
2.91683
2.91668
2.42485
2.63072
2.68228
2.77567
2.80007
2.84613
2.85862
2.8839
2.89065
2.90397
2.90859
2.92173
2.92612
2.93815
2.94213
2.95296
2.95654
2.96623
2.96943
2.97808
2.98092
2.98857
2.99108
2.99782
3.00003
3.00595
3.00792
3.01327
3.01527
3.02135
3.02682
3.02835
3.03158
3.03257
3.03501
3.03578
3.03773
3.03834
3.03993
3.04043
3.04172
3.04212
3.04317
3.0435
3.04435
3.04462
3.04529
3.04549
3.04599
3.04613
3.04644
3.04654
3.04684
3.04693
3.04716
3.04723
3.04735
3.04737
3.04735
3.04731
3.04707
3.04693
3.04635
3.04605
3.04489
3.04427
3.04193
3.04058
3.03526
3.03133
3.01436
2.98795
2.97617
2.93522
2.91557
2.84315
2.83013
2.82759
2.82704
2.82692
2.2601
2.5286
2.57039
2.68586
2.70528
2.76223
2.77217
2.80355
2.80893
2.8253
2.82899
2.84542
2.84893
2.86397
2.86715
2.88068
2.88354
2.89565
2.89821
2.90901
2.91129
2.92085
2.92286
2.93128
2.93304
2.94043
2.94201
2.94867
2.95025
2.9576
2.96413
2.96533
2.96934
2.97013
2.97317
2.97378
2.97622
2.97671
2.97868
2.97908
2.98069
2.98102
2.98233
2.98259
2.98365
2.98386
2.9847
2.98486
2.98549
2.9856
2.98598
2.98606
2.98644
2.98651
2.9868
2.98685
2.98701
2.98703
2.987
2.98697
2.98667
2.98656
2.98585
2.98561
2.98417
2.98368
2.9808
2.97973
2.9733
2.97024
2.95059
2.91847
2.90911
2.85827
2.84245
2.74977
2.73932
2.73759
2.73723
2.73715
2.08461
2.43555
2.45555
2.59988
2.60899
2.6802
2.68486
2.72424
2.72676
2.74714
2.74887
2.76963
2.77128
2.79026
2.79176
2.80883
2.81017
2.82546
2.82667
2.84029
2.84136
2.85344
2.85438
2.865
2.86583
2.87515
2.87589
2.88427
2.88501
2.89387
2.90164
2.9022
2.90722
2.90759
2.91143
2.91171
2.91478
2.91501
2.9175
2.91769
2.91972
2.91987
2.92153
2.92165
2.92299
2.92309
2.92414
2.92422
2.92501
2.92506
2.92554
2.92557
2.92605
2.92608
2.92645
2.92647
2.92668
2.92668
2.92665
2.92664
2.92627
2.92622
2.92532
2.92521
2.92341
2.92318
2.91959
2.9191
2.91119
2.90981
2.88732
2.84808
2.84371
2.77993
2.77241
2.65311
2.64816
2.64753
2.64741
2.64738
)
;

boundaryField
{
    F1_1
    {
        type            fixedValue;
        value           nonuniform List<scalar> 
80
(
1.99009
2.39616
2.39616
2.56071
2.56071
2.64289
2.64289
2.69051
2.69051
2.72071
2.72071
2.7381
2.7381
2.75718
2.75718
2.77538
2.77538
2.79212
2.79212
2.80724
2.80724
2.82074
2.82074
2.83267
2.83267
2.84316
2.84316
2.8526
2.8526
2.86232
2.87076
2.87076
2.87642
2.87642
2.88076
2.88076
2.88423
2.88423
2.88704
2.88704
2.88934
2.88934
2.89121
2.89121
2.89273
2.89273
2.89392
2.89392
2.89482
2.89482
2.89535
2.89535
2.89589
2.89589
2.8963
2.8963
2.89653
2.89653
2.89649
2.89649
2.89607
2.89607
2.89506
2.89506
2.89301
2.89301
2.88894
2.88894
2.88002
2.88002
2.85603
2.8122
2.8122
2.73963
2.73963
2.60249
2.60249
2.60249
2.60249
2.60249
)
;
    }
    F1_2
    {
        type            fixedValue;
        value           nonuniform List<scalar> 
80
(
1.96847
2.39471
2.39471
2.61924
2.61924
2.7691
2.7691
2.88065
2.88065
2.96427
2.96427
3.01656
3.01656
3.07428
3.07428
3.12861
3.12861
3.1774
3.1774
3.22035
3.22035
3.25785
3.25785
3.29048
3.29048
3.31901
3.31901
3.34475
3.34475
3.37167
3.39564
3.39564
3.41236
3.41236
3.42567
3.42567
3.43675
3.43675
3.44611
3.44611
3.45405
3.45405
3.46078
3.46078
3.46647
3.46647
3.47118
3.47118
3.4749
3.4749
3.47729
3.47729
3.47996
3.47996
3.4825
3.4825
3.48478
3.48478
3.4868
3.4868
3.48856
3.48856
3.49005
3.49005
3.49122
3.49122
3.49178
3.49178
3.49047
3.49047
3.48182
3.46012
3.46012
3.41354
3.41354
3.30703
3.30703
3.30703
3.30703
3.30703
)
;
    }
    F1_3
    {
        type            fixedValue;
        value           nonuniform List<scalar> 
80
(
1.96847
2.39471
2.39471
2.61924
2.61924
2.7691
2.7691
2.88065
2.88065
2.96427
2.96427
3.01656
3.01656
3.07428
3.07428
3.12861
3.12861
3.17739
3.17739
3.22035
3.22035
3.25785
3.25785
3.29048
3.29048
3.31901
3.31901
3.34474
3.34474
3.37167
3.39564
3.39564
3.41236
3.41236
3.42567
3.42567
3.43675
3.43675
3.44611
3.44611
3.45405
3.45405
3.46078
3.46078
3.46647
3.46647
3.47118
3.47118
3.4749
3.4749
3.47729
3.47729
3.47996
3.47996
3.4825
3.4825
3.48478
3.48478
3.4868
3.4868
3.48855
3.48855
3.49005
3.49005
3.49122
3.49122
3.49178
3.49178
3.49047
3.49047
3.48182
3.46012
3.46012
3.41354
3.41354
3.30703
3.30703
3.30703
3.30703
3.30703
)
;
    }
    F1_4
    {
        type            fixedValue;
        value           nonuniform List<scalar> 
80
(
1.98985
2.39565
2.39565
2.5596
2.5596
2.64052
2.64052
2.68532
2.68532
2.70843
2.70843
2.73211
2.73211
2.75375
2.75375
2.77321
2.77321
2.79064
2.79064
2.80618
2.80618
2.81995
2.81995
2.83206
2.83206
2.84268
2.84268
2.85222
2.85222
2.86203
2.87055
2.87055
2.87626
2.87626
2.88062
2.88062
2.88412
2.88412
2.88696
2.88696
2.88927
2.88927
2.89116
2.89116
2.89268
2.89268
2.89388
2.89388
2.89478
2.89478
2.89532
2.89532
2.89586
2.89586
2.89628
2.89628
2.89651
2.89651
2.89648
2.89648
2.89606
2.89606
2.89505
2.89505
2.893
2.893
2.88893
2.88893
2.88001
2.88001
2.85603
2.81219
2.81219
2.73963
2.73963
2.60249
2.60249
2.60249
2.60249
2.60249
)
;
    }
    F2_1
    {
        type            fixedValue;
        value           uniform 3.5;
    }
    F2_2
    {
        type            fixedValue;
        value           uniform 3.5;
    }
    F2_3
    {
        type            fixedValue;
        value           uniform 3.5;
    }
    F2_4
    {
        type            fixedValue;
        value           uniform 3.5;
    }
    defaultFaces
    {
        type            empty;
    }
}


// ************************************************************************* //
