/*--------------------------------*- C++ -*----------------------------------*\
| =========                 |                                                 |
| \\      /  F ield         | OpenFOAM: The Open Source CFD Toolbox           |
|  \\    /   O peration     | Version:  5.x                                   |
|   \\  /    A nd           | Web:      www.OpenFOAM.org                      |
|    \\/     M anipulation  |                                                 |
\*---------------------------------------------------------------------------*/
FoamFile
{
    version     2.0;
    format      ascii;
    class       volScalarField;
    location    "9.2";
    object      gradTy;
}
// * * * * * * * * * * * * * * * * * * * * * * * * * * * * * * * * * * * * * //

dimensions      [0 -1 0 1 0 0 0];

internalField   nonuniform List<scalar> 
2048
(
-26.4237
-26.3961
-26.3417
-26.2621
-26.1593
-26.0359
-25.8946
-25.7383
-25.5698
-25.3916
-25.2061
-25.0155
-24.8216
-24.6263
-24.4309
-24.2369
-24.0453
-23.857
-23.6728
-23.4933
-23.3189
-23.15
-22.9868
-22.8296
-22.6785
-22.5339
-22.396
-22.2652
-22.1418
-22.0264
-21.9194
-21.8215
-21.7334
-21.6561
-21.5904
-21.5373
-21.498
-21.4736
-21.4653
-21.4745
-21.5023
-21.55
-21.6189
-21.71
-21.8245
-21.9629
-22.1257
-22.3128
-22.5236
-22.7566
-23.0096
-23.2793
-23.5613
-23.8504
-24.1406
-24.4252
-24.6976
-24.9511
-25.1795
-25.3777
-25.5412
-25.6666
-25.7515
-25.7943
-26.446
-26.4177
-26.3621
-26.2808
-26.1759
-26.0503
-25.9067
-25.7482
-25.5776
-25.3975
-25.2102
-25.0181
-24.8228
-24.6263
-24.4299
-24.2349
-24.0426
-23.8537
-23.669
-23.4892
-23.3145
-23.1453
-22.982
-22.8245
-22.6733
-22.5285
-22.3903
-22.2592
-22.1354
-22.0195
-21.912
-21.8135
-21.7248
-21.6467
-21.5801
-21.5262
-21.4859
-21.4605
-21.4513
-21.4594
-21.4862
-21.5329
-21.6009
-21.6912
-21.805
-21.9431
-22.106
-22.2937
-22.5056
-22.7405
-22.9962
-23.2693
-23.5555
-23.8495
-24.145
-24.4352
-24.7129
-24.9713
-25.2041
-25.4058
-25.572
-25.6994
-25.7855
-25.8289
-26.4887
-26.4592
-26.4012
-26.3165
-26.2076
-26.0777
-25.9297
-25.7669
-25.5923
-25.4085
-25.218
-25.0228
-24.825
-24.6262
-24.4278
-24.2311
-24.0374
-23.8473
-23.6618
-23.4812
-23.3061
-23.1365
-22.9728
-22.8151
-22.6635
-22.5182
-22.3796
-22.2478
-22.1234
-22.0066
-21.8981
-21.7985
-21.7085
-21.6289
-21.5608
-21.5051
-21.4631
-21.4359
-21.4247
-21.4308
-21.4557
-21.5005
-21.5667
-21.6555
-21.7681
-21.9055
-22.0684
-22.257
-22.471
-22.7094
-22.9701
-23.2498
-23.5442
-23.8476
-24.1534
-24.4541
-24.7421
-25.01
-25.251
-25.4595
-25.6309
-25.7619
-25.8504
-25.8949
-26.5499
-26.5185
-26.4569
-26.3673
-26.2526
-26.1163
-25.9619
-25.793
-25.6126
-25.4237
-25.2285
-25.0293
-24.8278
-24.6258
-24.4246
-24.2255
-24.0298
-23.8382
-23.6514
-23.47
-23.2941
-23.1241
-22.9599
-22.8018
-22.6497
-22.5038
-22.3645
-22.2319
-22.1065
-21.9886
-21.8787
-21.7775
-21.6856
-21.604
-21.5337
-21.4756
-21.431
-21.4011
-21.3872
-21.3906
-21.4126
-21.4547
-21.5183
-21.6048
-21.7156
-21.8519
-22.0146
-22.2043
-22.4212
-22.6643
-22.9319
-23.221
-23.5271
-23.8441
-24.1648
-24.481
-24.784
-25.0656
-25.3184
-25.5364
-25.715
-25.8512
-25.9428
-25.9889
-26.6284
-26.5944
-26.528
-26.4317
-26.3092
-26.1646
-26.002
-25.8252
-25.6376
-25.4421
-25.2412
-25.0369
-24.8309
-24.6248
-24.4201
-24.2181
-24.0199
-23.8263
-23.6381
-23.4556
-23.2791
-23.1085
-22.9438
-22.7852
-22.6325
-22.486
-22.3458
-22.2122
-22.0856
-21.9662
-21.8546
-21.7514
-21.6573
-21.5731
-21.5
-21.4389
-21.3911
-21.3578
-21.3404
-21.3403
-21.3587
-21.3973
-21.4576
-21.5411
-21.6493
-21.7839
-21.9461
-22.1369
-22.3568
-22.6056
-22.8819
-23.1828
-23.5038
-23.8385
-24.1787
-24.515
-24.8376
-25.137
-25.4049
-25.6349
-25.8224
-25.9646
-26.06
-26.1079
-26.723
-26.6857
-26.6131
-26.5085
-26.3762
-26.2213
-26.0485
-25.8622
-25.666
-25.463
-25.2554
-25.0451
-24.8339
-24.6231
-24.4143
-24.2088
-24.0077
-23.8119
-23.6221
-23.4385
-23.2612
-23.0901
-22.925
-22.7658
-22.6125
-22.4652
-22.3241
-22.1893
-22.0613
-21.9403
-21.8268
-21.7212
-21.6244
-21.5372
-21.4607
-21.396
-21.3444
-21.3072
-21.2857
-21.2814
-21.2956
-21.3299
-21.3861
-21.4657
-21.5707
-21.7029
-21.864
-22.0556
-22.2787
-22.5337
-22.8199
-23.1347
-23.4737
-23.8299
-24.1942
-24.5555
-24.9023
-25.2234
-25.5095
-25.7536
-25.9513
-26.1003
-26.1996
-26.2493
-26.8331
-26.7918
-26.7115
-26.5965
-26.4523
-26.285
-26.1001
-25.9028
-25.6968
-25.4853
-25.2703
-25.0535
-24.8365
-24.6205
-24.4071
-24.1976
-23.9932
-23.795
-23.6035
-23.4188
-23.2409
-23.0693
-22.9039
-22.7442
-22.5902
-22.4421
-22.2999
-22.1639
-22.0344
-21.9116
-21.7959
-21.6878
-21.5879
-21.4972
-21.4169
-21.3481
-21.2922
-21.2505
-21.2244
-21.2152
-21.2245
-21.2539
-21.3052
-21.3803
-21.4812
-21.6102
-21.7694
-21.9611
-22.187
-22.4485
-22.7454
-23.076
-23.4358
-23.8175
-24.2105
-24.6019
-24.9776
-25.3245
-25.6317
-25.8916
-26.1003
-26.2562
-26.3594
-26.4108
-26.9584
-26.912
-26.8223
-26.6947
-26.5363
-26.3543
-26.1556
-25.9458
-25.7291
-25.5083
-25.2854
-25.0617
-24.8384
-24.6168
-24.3982
-24.1843
-23.9765
-23.7756
-23.5823
-23.3967
-23.2183
-23.0465
-22.8808
-22.7207
-22.5661
-22.4171
-22.2738
-22.1365
-22.0054
-21.8808
-21.7627
-21.6517
-21.5485
-21.454
-21.3694
-21.296
-21.2354
-21.1887
-21.1574
-21.143
-21.1468
-21.1707
-21.2164
-21.286
-21.382
-21.5068
-21.6633
-21.8542
-22.0823
-22.3499
-22.658
-23.0057
-23.3891
-23.8002
-24.2269
-24.6538
-25.0637
-25.4404
-25.7713
-26.0484
-26.2682
-26.4307
-26.5373
-26.5901
-27.0986
-27.0461
-26.945
-26.8024
-26.627
-26.428
-26.2136
-25.99
-25.7617
-25.5313
-25.3003
-25.0694
-24.8395
-24.6118
-24.3878
-24.169
-23.9573
-23.7537
-23.5588
-23.3724
-23.1938
-23.0221
-22.8563
-22.6959
-22.5406
-22.3906
-22.2461
-22.1075
-21.9749
-21.8483
-21.7278
-21.6138
-21.5069
-21.4082
-21.319
-21.2407
-21.1748
-21.1228
-21.086
-21.0658
-21.0637
-21.0814
-21.1208
-21.1843
-21.2744
-21.394
-21.5466
-21.7355
-21.9647
-22.2376
-22.5569
-22.9229
-23.3323
-23.7768
-24.2426
-24.711
-25.1606
-25.5715
-25.9286
-26.2236
-26.4542
-26.6223
-26.7313
-26.7849
-27.2539
-27.194
-27.0791
-26.9185
-26.7233
-26.5048
-26.2727
-26.0342
-25.7937
-25.5536
-25.3144
-25.0763
-24.8398
-24.6056
-24.3756
-24.1516
-23.9357
-23.7292
-23.5328
-23.3459
-23.1676
-22.9963
-22.8307
-22.67
-22.5141
-22.363
-22.2173
-22.0773
-21.9432
-21.8148
-21.6919
-21.5747
-21.4639
-21.3606
-21.2663
-21.1827
-21.1113
-21.0536
-21.011
-20.9847
-20.9762
-20.9872
-21.0197
-21.0762
-21.1595
-21.2729
-21.4202
-21.6058
-21.8346
-22.1116
-22.4414
-22.8261
-23.2637
-23.7458
-24.2566
-24.7732
-25.2689
-25.7185
-26.104
-26.4171
-26.6573
-26.8293
-26.9393
-26.9928
-27.4246
-27.3556
-27.2243
-27.0423
-26.824
-26.5833
-26.3317
-26.0772
-25.8243
-25.5745
-25.3275
-25.0824
-24.8391
-24.5982
-24.3617
-24.132
-23.9116
-23.7022
-23.5044
-23.3175
-23.1399
-22.9694
-22.8044
-22.6436
-22.4869
-22.3346
-22.1876
-22.0463
-21.9109
-21.7807
-21.6554
-21.5349
-21.42
-21.3117
-21.212
-21.1227
-21.0455
-20.9819
-20.9332
-20.9006
-20.8853
-20.8891
-20.9141
-20.9629
-21.0385
-21.1445
-21.2852
-21.4658
-21.6923
-21.9717
-22.3107
-22.7141
-23.1818
-23.7057
-24.2679
-24.8405
-25.3894
-25.8826
-26.2986
-26.6291
-26.8768
-27.0502
-27.1591
-27.2114
-27.6111
-27.5313
-27.3802
-27.1731
-26.9279
-26.6621
-26.3891
-26.1178
-25.8525
-25.5936
-25.3394
-25.0877
-24.8376
-24.5897
-24.3461
-24.11
-23.8848
-23.6724
-23.4735
-23.2872
-23.111
-22.942
-22.7778
-22.6169
-22.4593
-22.3057
-22.1572
-22.0148
-21.8781
-21.7464
-21.6188
-21.495
-21.3756
-21.2621
-21.1566
-21.0612
-20.9779
-20.9083
-20.8534
-20.8142
-20.792
-20.7882
-20.8051
-20.8455
-20.9125
-21.01
-21.1427
-21.3163
-21.5384
-21.8177
-22.164
-22.5853
-23.0845
-23.6544
-24.2752
-24.9128
-25.5234
-26.0657
-26.5134
-26.8597
-27.1117
-27.2832
-27.3885
-27.4382
-27.814
-27.7212
-27.5467
-27.3098
-27.0337
-26.7397
-26.4435
-26.1548
-25.8774
-25.6104
-25.35
-25.0922
-24.8354
-24.5801
-24.3288
-24.0857
-23.8552
-23.6398
-23.4402
-23.255
-23.0811
-22.9142
-22.7512
-22.5904
-22.4318
-22.2765
-22.1264
-21.9827
-21.8453
-21.7124
-21.5826
-21.4554
-21.3314
-21.2123
-21.1004
-20.9987
-20.9091
-20.8333
-20.7721
-20.7264
-20.697
-20.6853
-20.6936
-20.7249
-20.7826
-20.8706
-20.9937
-21.1585
-21.3735
-21.6497
-22.0005
-22.4382
-22.9696
-23.5897
-24.277
-24.9903
-25.6727
-26.2698
-26.7502
-27.1093
-27.3612
-27.5266
-27.625
-27.6706
-28.0343
-27.9258
-27.7234
-27.4517
-27.14
-26.8145
-26.4934
-26.1869
-25.8984
-25.6247
-25.3593
-25.0962
-24.833
-24.5699
-24.31
-24.0589
-23.8226
-23.6041
-23.4042
-23.2212
-23.0505
-22.8866
-22.7252
-22.5644
-22.4045
-22.2471
-22.095
-21.9504
-21.8125
-21.679
-21.5473
-21.4167
-21.2878
-21.1625
-21.0439
-20.9355
-20.8395
-20.7574
-20.6901
-20.6379
-20.6011
-20.5812
-20.5805
-20.6021
-20.6498
-20.7272
-20.8394
-20.9933
-21.1985
-21.4681
-21.8196
-22.2711
-22.8348
-23.509
-24.2715
-25.0731
-25.8394
-26.4979
-27.0107
-27.3783
-27.6243
-27.7783
-27.8662
-27.9056
-28.273
-28.1457
-27.9104
-27.5978
-27.2452
-26.8851
-26.5374
-26.2131
-25.9147
-25.6363
-25.3676
-25.1001
-24.8306
-24.5593
-24.2897
-24.0295
-23.7868
-23.5652
-23.3655
-23.1856
-23.0195
-22.8596
-22.7002
-22.5394
-22.3778
-22.2175
-22.0631
-21.9177
-21.7801
-21.6465
-21.5132
-21.3792
-21.2452
-21.1131
-20.9872
-20.8718
-20.7693
-20.681
-20.6078
-20.5491
-20.5051
-20.4767
-20.4665
-20.478
-20.515
-20.5811
-20.6811
-20.8222
-21.0145
-21.2733
-21.6209
-22.0823
-22.6774
-23.4091
-24.2562
-25.1613
-26.0265
-26.7536
-27.2973
-27.667
-27.8996
-28.0361
-28.1093
-28.1407
-28.5312
-28.3815
-28.1074
-27.7469
-27.3475
-26.9496
-26.574
-26.232
-25.9256
-25.645
-25.3753
-25.1043
-24.8286
-24.5488
-24.268
-23.9972
-23.7477
-23.5228
-23.3237
-23.1483
-22.9883
-22.8336
-22.6766
-22.5156
-22.3518
-22.1879
-22.0305
-21.8846
-21.7482
-21.6154
-21.4808
-21.3434
-21.2039
-21.0644
-20.9304
-20.8078
-20.6988
-20.6045
-20.5255
-20.4608
-20.4096
-20.3724
-20.3523
-20.3533
-20.3793
-20.4334
-20.5199
-20.6463
-20.8228
-21.066
-21.404
-21.8704
-22.4946
-23.2864
-24.2279
-25.2551
-26.238
-27.0413
-27.6124
-27.9753
-28.1857
-28.2977
-28.3518
-28.373
-28.8104
-28.6339
-28.3144
-27.8979
-27.4452
-27.0065
-26.6019
-26.2424
-25.9306
-25.6509
-25.3829
-25.1094
-24.8277
-24.5389
-24.2451
-23.9618
-23.7049
-23.4768
-23.2787
-23.1093
-22.9573
-22.8093
-22.6549
-22.4934
-22.3271
-22.1582
-21.9968
-21.8509
-21.7169
-21.586
-21.4505
-21.3096
-21.1645
-21.0166
-20.8738
-20.7437
-20.6281
-20.528
-20.4438
-20.3735
-20.3152
-20.2691
-20.2386
-20.2287
-20.2435
-20.2852
-20.3572
-20.4673
-20.625
-20.8473
-21.1688
-21.6336
-22.2838
-23.1369
-24.1825
-25.3544
-26.4789
-27.3664
-27.9586
-28.3032
-28.4804
-28.5604
-28.5908
-28.5997
-29.1122
-28.9035
-28.5316
-28.0495
-27.5359
-27.0542
-26.6196
-26.2429
-25.9289
-25.6543
-25.3912
-25.1158
-24.8282
-24.5305
-24.2212
-23.9228
-23.6583
-23.4268
-23.23
-23.0686
-22.9269
-22.7873
-22.6354
-22.4731
-22.3039
-22.1284
-21.9616
-21.8164
-21.6863
-21.5588
-21.4225
-21.278
-21.1273
-20.97
-20.817
-20.6796
-20.5575
-20.4516
-20.3629
-20.2876
-20.2225
-20.1671
-20.1257
-20.1046
-20.1082
-20.1374
-20.1941
-20.2867
-20.423
-20.6186
-20.9157
-21.3706
-22.0422
-22.956
-24.1143
-25.4588
-26.7559
-27.7355
-28.3384
-28.6497
-28.7816
-28.8214
-28.8237
-28.8184
-29.4384
-29.1907
-28.7591
-28.2001
-27.617
-27.0914
-26.6261
-26.2322
-25.9202
-25.6555
-25.4013
-25.1242
-24.8304
-24.5244
-24.1963
-23.8794
-23.6078
-23.3728
-23.1771
-23.0261
-22.8975
-22.7685
-22.6188
-22.455
-22.2829
-22.0982
-21.924
-21.7807
-21.6566
-21.5344
-21.3972
-21.249
-21.093
-20.9246
-20.76
-20.6154
-20.4871
-20.3756
-20.2832
-20.2036
-20.1322
-20.067
-20.0142
-19.9815
-19.9742
-19.9911
-20.0315
-20.1062
-20.2192
-20.3815
-20.6451
-21.0801
-21.7674
-22.739
-24.0157
-25.5671
-27.0778
-28.1562
-28.7543
-29.0135
-29.0864
-29.0778
-29.0478
-29.0266
-29.7912
-29.4956
-28.9977
-28.3482
-27.685
-27.1171
-26.6206
-26.2085
-25.9041
-25.6548
-25.4148
-25.1349
-24.8346
-24.5223
-24.1706
-23.8305
-23.5534
-23.3147
-23.1191
-22.9818
-22.8694
-22.7538
-22.6051
-22.4391
-22.2648
-22.0677
-21.8829
-21.7434
-21.6279
-21.5135
-21.3748
-21.2225
-21.0622
-20.8805
-20.7022
-20.5514
-20.417
-20.2996
-20.2048
-20.1218
-20.0447
-19.9693
-19.9041
-19.8596
-19.8421
-19.8473
-19.8704
-19.9271
-20.016
-20.1379
-20.358
-20.7606
-21.4578
-22.4812
-23.8763
-25.6775
-27.4567
-28.6376
-29.2078
-29.3922
-29.3913
-29.3267
-29.2607
-29.2222
-30.1732
-29.8179
-29.2487
-28.492
-27.7359
-27.1308
-26.6026
-26.1696
-25.8805
-25.6528
-25.4336
-25.1483
-24.8404
-24.5262
-24.1443
-23.7742
-23.4956
-23.2525
-23.0549
-22.9357
-22.8431
-22.7448
-22.5947
-22.4251
-22.2509
-22.0367
-21.8369
-21.7041
-21.6002
-21.4972
-21.3555
-21.1985
-21.0359
-20.8379
-20.6428
-20.4877
-20.3474
-20.2237
-20.128
-20.0428
-19.9608
-19.8743
-19.7958
-19.7389
-19.7123
-19.7071
-19.7113
-19.751
-19.8167
-19.8902
-20.0559
-20.4107
-21.1125
-22.1787
-23.6821
-25.7864
-27.909
-29.1899
-29.6998
-29.7825
-29.6927
-29.5649
-29.4602
-29.4036
-30.5874
-30.1556
-29.5146
-28.6294
-27.7638
-27.1333
-26.5722
-26.1126
-25.8493
-25.6497
-25.4607
-25.1642
-24.8468
-24.5392
-24.1175
-23.7079
-23.4353
-23.1869
-22.9827
-22.8879
-22.8186
-22.7432
-22.5874
-22.4124
-22.2432
-22.005
-21.7837
-21.6626
-21.5736
-21.4869
-21.3392
-21.1762
-21.0156
-20.7968
-20.5805
-20.4247
-20.2785
-20.1472
-20.0531
-19.9668
-19.8812
-19.7823
-19.6892
-19.6193
-19.5852
-19.5716
-19.5542
-19.5789
-19.6249
-19.6405
-19.7408
-20.0282
-20.732
-21.829
-23.414
-25.8882
-28.457
-29.8242
-30.2292
-30.1796
-29.9862
-29.7896
-29.6444
-29.5692
-31.038
-30.505
-29.7996
-28.7585
-27.761
-27.1268
-26.5303
-26.0334
-25.8115
-25.6453
-25.5
-25.1821
-24.8518
-24.5658
-24.0903
-23.6273
-23.3746
-23.1185
-22.8999
-22.8389
-22.7961
-22.7518
-22.5829
-22.3996
-22.2443
-21.9726
-21.7202
-21.6188
-21.5479
-21.4846
-21.3255
-21.1547
-21.0034
-20.7571
-20.5133
-20.3633
-20.2107
-20.0693
-19.9805
-19.894
-19.8066
-19.6936
-19.5844
-19.5005
-19.461
-19.4426
-19.3986
-19.4117
-19.4453
-19.3909
-19.4159
-19.6099
-20.3185
-21.433
-23.046
-25.9739
-29.132
-30.552
-30.793
-30.5776
-30.2674
-29.9981
-29.8118
-29.7181
-31.5302
-30.8593
-30.1106
-28.8768
-27.7168
-27.1162
-26.4787
-25.9261
-25.7688
-25.6388
-25.5573
-25.2007
-24.8516
-24.6131
-24.0628
-23.5261
-23.3169
-23.0486
-22.8027
-22.7899
-22.7746
-22.7743
-22.5803
-22.3841
-22.2588
-21.9394
-21.6422
-21.5734
-21.5225
-21.4935
-21.3138
-21.1319
-21.0027
-20.7189
-20.4384
-20.3047
-20.1446
-19.9888
-19.9109
-19.8245
-19.7383
-19.6084
-19.4812
-19.3818
-19.3398
-19.3221
-19.2434
-19.2494
-19.2835
-19.1431
-19.0854
-19.1507
-19.876
-20.9966
-22.5432
-26.0296
-29.977
-31.3838
-31.385
-30.9694
-30.5316
-30.188
-29.9612
-29.8497
-32.0715
-31.2066
-30.459
-28.9823
-27.6158
-27.1096
-26.4203
-25.7821
-25.7251
-25.6276
-25.641
-25.2178
-24.8399
-24.6908
-24.0352
-23.395
-23.2678
-22.9795
-22.6853
-22.7433
-22.7526
-22.8161
-22.5781
-22.362
-22.293
-21.9053
-21.5437
-21.528
-21.4958
-21.5177
-21.3028
-21.1046
-21.0182
-20.682
-20.3513
-20.2515
-20.0809
-19.9036
-19.8451
-19.7581
-19.6775
-19.5266
-19.3795
-19.2621
-19.2214
-19.2131
-19.086
-19.0913
-19.1469
-18.8975
-18.7563
-18.6422
-19.411
-20.5339
-21.8589
-26.0347
-31.0516
-32.3274
-31.9954
-31.3465
-30.7745
-30.3572
-30.0919
-29.9638
-32.6723
-31.5279
-30.862
-29.0726
-27.4367
-27.1207
-26.3594
-25.5885
-25.6869
-25.6063
-25.7628
-25.2298
-24.8069
-24.8137
-24.0072
-23.2206
-23.2361
-22.9138
-22.5392
-22.7033
-22.7265
-22.8849
-22.574
-22.3268
-22.3562
-21.8702
-21.4163
-21.4861
-21.4652
-21.5636
-21.2907
-21.0679
-21.057
-20.6462
-20.2459
-20.2073
-20.0207
-19.8108
-19.7848
-19.6939
-19.6262
-19.448
-19.2794
-19.1404
-19.1051
-19.1203
-18.9229
-18.9352
-19.0456
-18.6521
-18.4387
-18.071
-18.932
-20.0711
-20.931
-25.9593
-32.4382
-33.385
-32.6101
-31.7
-30.992
-30.5045
-30.2036
-30.0605
-33.3475
-31.7937
-31.3459
-29.1455
-27.1498
-27.17
-26.3018
-25.3272
-25.6659
-25.5652
-25.9398
-25.2317
-24.7378
-25.0025
-23.9788
-22.9834
-23.2352
-22.8555
-22.3523
-22.6772
-22.6897
-22.9919
-22.5644
-22.269
-22.4617
-21.8338
-21.2486
-21.4538
-21.4256
-21.6399
-21.2749
-21.0142
-21.1291
-20.6111
-20.1134
-20.178
-19.965
-19.706
-19.7329
-19.6306
-19.5867
-19.3721
-19.1811
-19.0149
-18.9894
-19.0502
-18.7485
-18.7775
-18.9928
-18.4018
-18.1481
-17.4168
-18.4491
-19.652
-19.6778
-25.7602
-34.2495
-34.5486
-33.2102
-32.0204
-31.1805
-30.6288
-30.2965
-30.1404
-34.1181
-31.9598
-31.9491
-29.1987
-26.7137
-27.2881
-26.2552
-24.972
-25.6807
-25.4881
-26.1957
-25.2164
-24.611
-25.2862
-23.9493
-22.6566
-23.2849
-22.8096
-22.1072
-22.6772
-22.6314
-23.1526
-22.5448
-22.1746
-22.6284
-21.7955
-21.0248
-21.4415
-21.3683
-21.7593
-21.2513
-20.9328
-21.2487
-20.5759
-19.9416
-20.1721
-19.9155
-19.5828
-19.6935
-19.5654
-19.5627
-19.2975
-19.0851
-18.8835
-18.8718
-19.0121
-18.5552
-18.6117
-19.0069
-18.1355
-17.9082
-16.6497
-17.9733
-19.3444
-17.9933
-25.3771
-36.6387
-35.7943
-33.7728
-32.2988
-31.3376
-30.73
-30.3712
-30.2042
-35.0134
-31.9619
-32.7266
-29.23
-26.0724
-27.5185
-26.2289
-24.4863
-25.7607
-25.3486
-26.5641
-25.1744
-24.3961
-25.705
-23.9178
-22.2034
-23.413
-22.7823
-21.7795
-22.7222
-22.5343
-23.3891
-22.5087
-22.0241
-22.8821
-21.7543
-20.7237
-21.4655
-21.2797
-21.9394
-21.215
-20.8086
-21.4355
-20.5394
-19.714
-20.2022
-19.8738
-19.4325
-19.6733
-19.4939
-19.5589
-19.2224
-18.9924
-18.7439
-18.7483
-19.0194
-18.3327
-18.4285
-19.1132
-17.8339
-17.7539
-15.7268
-17.5146
-19.2486
-15.7411
-24.7268
-39.8116
-37.0738
-34.2709
-32.5273
-31.4618
-30.8084
-30.4284
-30.2528
-36.0746
-31.7087
-33.7558
-29.2372
-25.1504
-27.9219
-26.234
-23.8195
-25.9498
-25.1065
-27.091
-25.0933
-24.0508
-26.313
-23.8829
-21.5738
-23.6589
-22.7812
-21.3358
-22.8407
-22.3719
-23.7316
-22.4477
-21.7902
-23.2577
-21.7085
-20.317
-21.5504
-21.1386
-22.2045
-21.1591
-20.6207
-21.7163
-20.4998
-19.4082
-20.2855
-19.8414
-19.243
-19.6821
-19.4092
-19.5823
-19.1435
-18.9051
-18.5935
-18.6124
-19.0906
-18.0675
-18.2139
-19.3465
-17.4653
-17.7365
-14.5882
-17.0794
-19.507
-12.7487
-23.6962
-44.0417
-38.304
-34.6765
-32.7002
-31.5527
-30.8649
-30.4693
-30.2874
-37.3573
-31.0741
-35.1424
-29.2175
-23.848
-28.5807
-26.2834
-22.9032
-26.3125
-24.702
-27.8391
-24.9572
-23.5181
-27.1822
-23.842
-20.7024
-24.0754
-22.815
-20.7306
-23.0749
-22.1048
-24.2214
-22.351
-21.4362
-23.8018
-21.6549
-19.767
-21.7325
-20.9134
-22.5877
-21.0746
-20.3409
-22.1266
-20.4544
-18.995
-20.4462
-19.82
-18.9983
-19.7341
-19.301
-19.6421
-19.0558
-18.826
-18.4293
-18.4544
-19.2507
-17.7421
-17.9483
-19.7543
-16.9814
-17.9289
-13.1535
-16.6674
-20.3159
-8.79974
-22.1345
-49.6874
-39.3536
-34.9629
-32.8143
-31.6113
-30.9009
-30.4951
-30.3092
-38.9366
-29.8874
-37.0288
-29.1673
-22.0356
-29.6047
-26.3915
-21.6461
-26.9402
-24.0495
-28.892
-24.7461
-22.7227
-28.4063
-23.7918
-19.5036
-24.7335
-22.8935
-19.9035
-23.4843
-21.6767
-24.9132
-22.2049
-20.9139
-24.5754
-21.5893
-19.0249
-22.0623
-20.5586
-23.1327
-20.9501
-19.932
-22.713
-20.399
-18.4365
-20.7163
-19.8105
-18.6768
-19.8493
-19.1542
-19.7514
-18.9521
-18.7597
-18.2485
-18.26
-19.533
-17.3348
-17.6048
-20.4011
-16.3105
-18.4332
-11.3163
-16.2661
-21.9385
-3.62759
-19.8437
-57.2126
-40.0272
-35.1107
-32.8701
-31.6394
-30.918
-30.5074
-30.3196
)
;

boundaryField
{
    left
    {
        type            calculated;
        value           nonuniform List<scalar> 
32
(
-26.4237
-26.446
-26.4887
-26.5499
-26.6284
-26.723
-26.8331
-26.9584
-27.0986
-27.2539
-27.4246
-27.6111
-27.814
-28.0343
-28.273
-28.5312
-28.8104
-29.1122
-29.4384
-29.7912
-30.1732
-30.5874
-31.038
-31.5302
-32.0715
-32.6723
-33.3475
-34.1181
-35.0134
-36.0746
-37.3573
-38.9366
)
;
    }
    right
    {
        type            calculated;
        value           nonuniform List<scalar> 
32
(
-25.7943
-25.8289
-25.8949
-25.9889
-26.1079
-26.2493
-26.4108
-26.5901
-26.7849
-26.9928
-27.2114
-27.4382
-27.6706
-27.9056
-28.1407
-28.373
-28.5997
-28.8184
-29.0266
-29.2222
-29.4036
-29.5692
-29.7181
-29.8497
-29.9638
-30.0605
-30.1404
-30.2042
-30.2528
-30.2874
-30.3092
-30.3196
)
;
    }
    interface
    {
        type            calculated;
        value           nonuniform List<scalar> 
64
(
-39.8111
-29.1316
-38.1172
-29.1342
-20.9838
-30.2236
-26.462
-20.9194
-27.3337
-23.6487
-29.5066
-24.619
-22.2485
-29.1203
-23.7638
-18.8103
-25.1329
-22.9453
-19.4258
-23.7415
-21.4141
-25.3174
-22.1175
-20.6038
-25.0281
-21.5528
-18.5988
-22.2714
-20.3419
-23.4519
-20.8762
-19.6901
-23.0567
-20.3682
-18.1157
-20.8833
-19.8089
-18.4939
-19.9256
-19.0689
-19.8202
-18.8951
-18.7303
-18.1536
-18.1517
-19.7095
-17.1076
-17.4096
-20.7935
-15.9177
-18.7782
-10.2822
-16.0658
-22.9908
-0.69899
-18.488
-61.5104
-40.241
-35.1481
-32.8837
-31.6462
-30.9222
-30.5104
-30.3221
)
;
    }
    bottom
    {
        type            calculated;
        value           nonuniform List<scalar> 
64
(
-26.4179
-26.3904
-26.3364
-26.2572
-26.1549
-26.0321
-25.8914
-25.7357
-25.5677
-25.39
-25.205
-25.0148
-24.8213
-24.6263
-24.4312
-24.2374
-24.046
-23.8579
-23.6738
-23.4944
-23.3201
-23.1512
-22.988
-22.8309
-22.6799
-22.5353
-22.3975
-22.2668
-22.1435
-22.0282
-21.9213
-21.8236
-21.7357
-21.6586
-21.593
-21.5402
-21.5011
-21.477
-21.469
-21.4784
-21.5065
-21.5545
-21.6236
-21.715
-21.8295
-21.968
-22.1308
-22.3178
-22.5283
-22.7608
-23.0131
-23.2818
-23.5627
-23.8506
-24.1394
-24.4226
-24.6936
-24.9458
-25.1732
-25.3704
-25.5332
-25.6581
-25.7426
-25.7853
)
;
    }
    defaultFaces
    {
        type            empty;
    }
}


// ************************************************************************* //
