/*--------------------------------*- C++ -*----------------------------------*\
| =========                 |                                                 |
| \\      /  F ield         | OpenFOAM: The Open Source CFD Toolbox           |
|  \\    /   O peration     | Version:  5.x                                   |
|   \\  /    A nd           | Web:      www.OpenFOAM.org                      |
|    \\/     M anipulation  |                                                 |
\*---------------------------------------------------------------------------*/
FoamFile
{
    version     2.0;
    format      ascii;
    class       volScalarField;
    location    "9.2";
    object      T;
}
// * * * * * * * * * * * * * * * * * * * * * * * * * * * * * * * * * * * * * //

dimensions      [0 0 0 1 0 0 0];

internalField   nonuniform List<scalar> 
2048
(
9.81021
9.8104
9.81079
9.81136
9.8121
9.81298
9.81399
9.81511
9.81631
9.81759
9.81892
9.82029
9.82168
9.82308
9.82448
9.82587
9.82725
9.8286
9.82992
9.83121
9.83246
9.83368
9.83485
9.83598
9.83706
9.8381
9.83909
9.84003
9.84092
9.84174
9.84251
9.84321
9.84384
9.8444
9.84487
9.84525
9.84553
9.8457
9.84576
9.84569
9.84549
9.84515
9.84465
9.84399
9.84317
9.84218
9.84101
9.83966
9.83815
9.83648
9.83467
9.83274
9.83072
9.82865
9.82658
9.82454
9.82259
9.82078
9.81915
9.81773
9.81656
9.81567
9.81506
9.81475
9.43876
9.43935
9.4405
9.4422
9.44438
9.44701
9.45001
9.45334
9.45692
9.46071
9.46465
9.4687
9.47282
9.47697
9.48112
9.48525
9.48932
9.49332
9.49723
9.50104
9.50475
9.50833
9.5118
9.51514
9.51835
9.52142
9.52435
9.52713
9.52975
9.5322
9.53448
9.53656
9.53843
9.54007
9.54147
9.5426
9.54343
9.54395
9.54413
9.54394
9.54335
9.54234
9.54088
9.53894
9.53651
9.53357
9.53012
9.52614
9.52166
9.51671
9.51133
9.5056
9.4996
9.49345
9.48728
9.48122
9.47543
9.47004
9.46518
9.46096
9.45749
9.45482
9.45301
9.4521
9.08311
9.08408
9.086
9.08881
9.09242
9.09676
9.10171
9.10719
9.11309
9.11932
9.12579
9.13244
9.1392
9.146
9.1528
9.15955
9.16622
9.17276
9.17916
9.1854
9.19145
9.19731
9.20298
9.20844
9.21368
9.2187
9.22349
9.22803
9.23232
9.23634
9.24006
9.24347
9.24654
9.24924
9.25154
9.2534
9.25479
9.25566
9.25597
9.25568
9.25474
9.25311
9.25075
9.24761
9.24365
9.23886
9.23322
9.22671
9.21937
9.21124
9.2024
9.19297
9.18308
9.17293
9.16273
9.15272
9.14314
9.13423
9.1262
9.11924
9.1135
9.1091
9.10613
9.10463
8.74234
8.74371
8.74639
8.75031
8.75535
8.76139
8.76829
8.77589
8.78406
8.79268
8.80163
8.81081
8.82013
8.82951
8.83888
8.84817
8.85733
8.86633
8.87512
8.88368
8.89199
8.90003
8.90781
8.91529
8.92249
8.92938
8.93595
8.94219
8.94809
8.95361
8.95873
8.96343
8.96767
8.97141
8.97459
8.97719
8.97913
8.98036
8.98083
8.98048
8.97924
8.97704
8.97384
8.96957
8.96418
8.95763
8.94989
8.94096
8.93085
8.91963
8.9074
8.89432
8.88058
8.86646
8.85225
8.83829
8.82493
8.8125
8.80131
8.79161
8.78363
8.77752
8.77339
8.77131
8.41562
8.41738
8.42084
8.4259
8.4324
8.44016
8.449
8.45872
8.46915
8.48012
8.49151
8.50316
8.51498
8.52687
8.53873
8.55048
8.56207
8.57343
8.58452
8.59532
8.60579
8.61593
8.62572
8.63516
8.64422
8.65291
8.6612
8.66908
8.67652
8.6835
8.68998
8.69594
8.70132
8.70607
8.71014
8.71346
8.71597
8.71759
8.71825
8.71787
8.71638
8.71369
8.70972
8.70441
8.69767
8.68945
8.67971
8.66844
8.65565
8.64141
8.62584
8.60914
8.59156
8.57345
8.55519
8.53724
8.52004
8.50405
8.48967
8.47723
8.467
8.45919
8.45391
8.45125
8.10216
8.10434
8.10862
8.11485
8.12284
8.13235
8.14315
8.155
8.16769
8.181
8.19478
8.20887
8.22314
8.23747
8.25176
8.26591
8.27984
8.29349
8.3068
8.31975
8.3323
8.34445
8.35618
8.36748
8.37835
8.38876
8.3987
8.40816
8.41709
8.42549
8.43329
8.44047
8.44697
8.45273
8.45768
8.46174
8.46483
8.46686
8.46775
8.4674
8.46571
8.46259
8.45794
8.45166
8.44366
8.43388
8.42224
8.40872
8.39332
8.37612
8.35726
8.33694
8.31549
8.29333
8.27095
8.24891
8.2278
8.20817
8.19054
8.17532
8.16283
8.1533
8.14688
8.14365
7.80126
7.80388
7.80901
7.81647
7.82601
7.83733
7.85013
7.86414
7.87907
7.89472
7.91087
7.92736
7.94403
7.96076
7.97742
7.9939
8.01011
8.02597
8.04143
8.05644
8.07099
8.08507
8.09865
8.11175
8.12434
8.13641
8.14795
8.15892
8.16931
8.17907
8.18816
8.19654
8.20415
8.2109
8.21673
8.22154
8.22523
8.2277
8.22886
8.22858
8.22676
8.22328
8.21802
8.21087
8.20172
8.19046
8.17702
8.16134
8.14342
8.12332
8.10118
8.07724
8.05188
8.02558
7.99895
7.9727
7.94754
7.92417
7.90322
7.88517
7.8704
7.85916
7.8516
7.8478
7.51226
7.51534
7.52138
7.53014
7.5413
7.55449
7.56935
7.58553
7.60274
7.62071
7.63921
7.65807
7.67711
7.69618
7.71516
7.73392
7.75234
7.77034
7.78787
7.80488
7.82134
7.83726
7.85263
7.86744
7.88169
7.89536
7.90843
7.92087
7.93265
7.94374
7.9541
7.96365
7.97235
7.9801
7.98681
7.99238
7.9967
7.99965
8.00111
8.00096
7.99906
7.99529
7.98951
7.98158
7.97137
7.95875
7.94361
7.92587
7.90551
7.88256
7.85717
7.82959
7.80024
7.76969
7.73868
7.70804
7.67867
7.65143
7.62705
7.60612
7.58905
7.5761
7.5674
7.56304
7.23453
7.23812
7.24513
7.25527
7.26814
7.28328
7.30026
7.31867
7.33816
7.35844
7.37928
7.40047
7.42184
7.44322
7.46447
7.48545
7.50603
7.52611
7.54563
7.56455
7.58285
7.60054
7.61761
7.63407
7.64991
7.66511
7.67966
7.69352
7.70666
7.71904
7.73062
7.74133
7.75111
7.75985
7.76745
7.7738
7.77877
7.78222
7.78403
7.78406
7.78215
7.77817
7.77195
7.76334
7.75216
7.73828
7.72155
7.70186
7.67914
7.65342
7.6248
7.59356
7.56014
7.5252
7.48962
7.4544
7.42063
7.38935
7.36144
7.33757
7.31819
7.30353
7.29372
7.28882
6.96749
6.97163
6.9797
6.99132
7.006
7.02319
7.04236
7.06303
7.08483
7.10742
7.13057
7.15406
7.17773
7.20138
7.22486
7.24801
7.27069
7.29279
7.31423
7.33499
7.35504
7.37441
7.39311
7.41115
7.42852
7.4452
7.46118
7.47641
7.49086
7.50449
7.51726
7.52911
7.53996
7.54969
7.5582
7.56534
7.57098
7.57497
7.57717
7.57742
7.57557
7.57145
7.56487
7.55567
7.54364
7.52861
7.5104
7.48886
7.4639
7.43547
7.40366
7.36872
7.33115
7.29167
7.2513
7.21126
7.17286
7.13737
7.10582
7.07896
7.05725
7.04092
7.03003
7.0246
6.7106
6.71534
6.72457
6.73779
6.7544
6.77374
6.79518
6.81817
6.84228
6.86718
6.89261
6.91838
6.94429
6.97018
6.99585
7.02113
7.04586
7.06991
7.09321
7.11572
7.13745
7.15842
7.17868
7.19823
7.21707
7.23518
7.25253
7.26908
7.28479
7.29964
7.31358
7.32655
7.33845
7.34918
7.35859
7.36655
7.37289
7.37745
7.38008
7.38061
7.37886
7.37467
7.36782
7.35812
7.34535
7.32928
7.30972
7.28646
7.25934
7.22829
7.19334
7.1547
7.11287
7.06868
7.02328
6.97814
6.93486
6.89494
6.85963
6.82975
6.80574
6.78778
6.77586
6.76992
6.46335
6.46875
6.47923
6.4942
6.51288
6.53449
6.55828
6.58363
6.61007
6.63726
6.66494
6.69294
6.72108
6.74916
6.77699
6.80436
6.83109
6.85703
6.88211
6.9063
6.92963
6.95213
6.97386
6.99486
7.01511
7.03459
7.05327
7.07109
7.08804
7.10406
7.11914
7.1332
7.14616
7.15788
7.16822
7.177
7.18406
7.18922
7.19231
7.19316
7.19159
7.18739
7.18036
7.17025
7.15684
7.13985
7.11906
7.0942
7.06507
7.0315
6.99346
6.95112
6.90495
6.85585
6.80515
6.7546
6.70612
6.66157
6.62238
6.58945
6.56319
6.54367
6.53078
6.52438
6.22523
6.23137
6.24325
6.26011
6.28102
6.30503
6.33126
6.35902
6.38779
6.41724
6.44714
6.47733
6.50764
6.53788
6.56784
6.59726
6.62595
6.65374
6.68053
6.70632
6.73115
6.75509
6.77823
6.80061
6.82222
6.84303
6.86299
6.88204
6.90016
6.91733
6.93351
6.94865
6.96265
6.97537
6.98664
6.99628
7.00408
7.00986
7.01345
7.01467
7.01332
7.00919
7.00204
6.99163
6.97767
6.95989
6.93799
6.91168
6.88066
6.8447
6.80366
6.75762
6.70702
6.65282
6.59652
6.54018
6.48618
6.43674
6.39356
6.35759
6.32916
6.30818
6.29441
6.2876
5.99579
6.00276
6.01617
6.03511
6.05843
6.08497
6.11374
6.14394
6.17504
6.20671
6.23878
6.27111
6.30356
6.33593
6.36798
6.39944
6.43004
6.45961
6.48805
6.51535
6.54159
6.5669
6.59138
6.61507
6.63799
6.66009
6.68129
6.70153
6.72078
6.73904
6.7563
6.7725
6.78754
6.80126
6.81348
6.82397
6.83253
6.83897
6.84309
6.84471
6.84363
6.83963
6.83245
6.82182
6.80743
6.78896
6.7661
6.73847
6.70572
6.66751
6.62357
6.57387
6.51877
6.45926
6.39702
6.33449
6.27456
6.21998
6.17272
6.13375
6.10326
6.08095
6.06641
6.05924
5.77459
5.78247
5.79759
5.81881
5.84473
5.87396
5.90535
5.93804
5.97145
6.00529
6.03946
6.07388
6.10842
6.14289
6.17702
6.21048
6.24297
6.27427
6.30427
6.333
6.36058
6.38716
6.41289
6.43785
6.46204
6.48538
6.50778
6.52916
6.5495
6.56881
6.58711
6.60435
6.62042
6.63515
6.64833
6.6597
6.66904
6.67615
6.68082
6.68288
6.68211
6.6783
6.67117
6.6604
6.64568
6.62665
6.60295
6.57416
6.53984
6.49954
6.45285
6.39955
6.3399
6.27486
6.20632
6.13712
6.07081
6.0108
5.95938
5.91751
5.88511
5.86166
5.84647
5.83902
5.56119
5.57011
5.58713
5.61087
5.6396
5.67168
5.70578
5.74097
5.77665
5.81261
5.8488
5.88524
5.92183
5.95837
5.99457
6.03002
6.06436
6.09733
6.12884
6.15891
6.18771
6.21548
6.2424
6.26857
6.29397
6.31853
6.3421
6.36458
6.38595
6.40626
6.42557
6.44383
6.46093
6.47668
6.49083
6.5031
6.51323
6.52102
6.52627
6.52879
6.52838
6.52482
6.5178
6.50698
6.49202
6.47254
6.44814
6.41834
6.38263
6.34044
6.29115
6.23436
6.17012
6.09937
6.02412
5.9477
5.87448
5.80874
5.75312
5.70847
5.6744
5.65
5.63432
5.62667
5.3552
5.36528
5.38442
5.41094
5.44272
5.47779
5.5147
5.55241
5.59032
5.62829
5.66642
5.70482
5.74342
5.782
5.82026
5.8577
5.89385
5.92845
5.96139
5.9927
6.02263
6.05148
6.07953
6.10685
6.13344
6.15919
6.18391
6.20743
6.22978
6.25104
6.27132
6.29058
6.3087
6.32548
6.34063
6.3538
6.36474
6.37323
6.37907
6.38207
6.38206
6.37879
6.37195
6.36117
6.34606
6.32624
6.30126
6.27061
6.2337
6.18982
6.13816
6.078
6.00918
5.93251
5.85015
5.76587
5.68513
5.61332
5.55351
5.5063
5.47081
5.4457
5.42972
5.42196
5.15622
5.16762
5.18912
5.21871
5.25379
5.29203
5.33182
5.37206
5.41213
5.45201
5.49197
5.53226
5.57281
5.61341
5.65373
5.69317
5.73111
5.76729
5.80158
5.83403
5.86497
5.89482
5.92392
5.95236
5.9801
6.00703
6.03287
6.0574
6.08065
6.1028
6.12401
6.14425
6.16339
6.18122
6.19738
6.21147
6.22324
6.23243
6.23886
6.24237
6.24278
6.23986
6.23327
6.22259
6.20742
6.18735
6.16193
6.13058
6.09265
6.04733
5.99353
5.9302
5.85682
5.77409
5.68416
5.59129
5.50229
5.42408
5.36014
5.31065
5.27407
5.24854
5.23244
5.22466
4.96389
4.97677
5.00091
5.03389
5.07256
5.11411
5.15685
5.19962
5.24176
5.28342
5.32509
5.36719
5.40965
5.45224
5.49465
5.5361
5.57581
5.61352
5.6491
5.68258
5.71441
5.74515
5.77524
5.80474
5.83361
5.86172
5.88867
5.91415
5.93824
5.96122
5.98333
6.00453
6.02468
6.04358
6.06077
6.07579
6.08838
6.09829
6.10531
6.10933
6.11019
6.10767
6.10139
6.09089
6.07573
6.05551
6.02977
5.99787
5.95912
5.91261
5.85695
5.79067
5.71283
5.62389
5.52597
5.42364
5.32549
5.24053
5.17262
5.12121
5.08394
5.05829
5.04227
5.03458
4.77784
4.79241
4.81946
4.85621
4.89879
4.94377
4.98954
5.03484
5.07892
5.1222
5.16544
5.20929
5.25361
5.29814
5.34268
5.38619
5.42762
5.46682
5.50363
5.53802
5.57062
5.60213
5.63315
5.66369
5.69365
5.72295
5.75103
5.7774
5.80225
5.82597
5.84895
5.87109
5.89223
5.91223
5.9305
5.94645
5.95986
5.97049
5.97811
5.98264
5.98397
5.98188
5.97597
5.96571
5.95063
5.93034
5.9044
5.87209
5.83271
5.78529
5.72809
5.65917
5.57696
5.48174
5.37542
5.26263
5.15425
5.06219
4.99056
4.93773
4.90021
4.87478
4.85905
4.85155
4.59772
4.61423
4.64447
4.68543
4.73224
4.78076
4.82961
4.87744
4.92332
4.96805
5.01267
5.05821
5.10436
5.15079
5.19752
5.24314
5.28626
5.3269
5.36489
5.40006
5.43328
5.46544
5.49735
5.5289
5.5599
5.59043
5.61966
5.64685
5.67237
5.69675
5.72057
5.74364
5.76576
5.78689
5.80627
5.82315
5.83738
5.84874
5.85693
5.86196
5.86377
5.86218
5.85669
5.84674
5.83179
5.81151
5.78548
5.75288
5.71303
5.66502
5.60665
5.53542
5.449
5.34749
5.23243
5.108
4.98802
4.88856
4.81363
4.75995
4.72268
4.69782
4.6826
4.67538
4.4232
4.44194
4.47566
4.5213
4.57275
4.62484
4.67681
4.7272
4.77468
4.82065
4.86646
4.91366
4.96161
5.00983
5.05886
5.10671
5.15142
5.19347
5.2326
5.2684
5.30209
5.33475
5.36754
5.40008
5.43208
5.4639
5.49432
5.52225
5.54833
5.57327
5.5979
5.62189
5.64495
5.66727
5.68783
5.7056
5.72066
5.73275
5.74149
5.74702
5.74931
5.74824
5.74325
5.73366
5.71889
5.69866
5.67267
5.63989
5.59973
5.55144
5.49229
5.41919
5.32873
5.22098
5.097
4.95952
4.82623
4.71913
4.6415
4.58768
4.5512
4.52726
4.51277
4.50592
4.25393
4.27529
4.31273
4.36361
4.42015
4.47575
4.5309
4.5839
4.63273
4.67971
4.72647
4.77534
4.82506
4.87494
4.92641
4.97663
5.02281
5.06625
5.10653
5.14277
5.17676
5.20977
5.24344
5.27696
5.30986
5.34307
5.37478
5.40334
5.42985
5.45522
5.48069
5.50559
5.52952
5.5531
5.57492
5.59354
5.60942
5.62225
5.6315
5.6375
5.64028
5.63979
5.63535
5.62618
5.61162
5.59148
5.56565
5.53277
5.4924
5.44421
5.38469
5.31023
5.2159
5.10206
4.96919
4.817
4.66821
4.55339
4.47389
4.42074
4.38564
4.36297
4.34939
4.34301
4.08961
4.11406
4.15536
4.21217
4.27433
4.33324
4.39162
4.44734
4.49721
4.54497
4.59235
4.64297
4.69446
4.74576
4.79989
4.85271
4.90014
4.94495
4.98643
5.02289
5.05704
5.09018
5.12478
5.15929
5.19296
5.2277
5.26083
5.28985
5.31669
5.34231
5.36866
5.39449
5.41917
5.44413
5.46731
5.4867
5.5034
5.517
5.52669
5.53315
5.53639
5.53653
5.53271
5.52402
5.50968
5.48965
5.46412
5.4312
5.39068
5.34297
5.28354
5.20833
5.11026
4.99053
4.84921
4.68032
4.51317
4.3908
4.31056
4.25903
4.22587
4.20482
4.19232
4.18648
3.92988
3.95811
4.00324
4.06679
4.13523
4.19701
4.25871
4.31737
4.36784
4.41616
4.46376
4.51629
4.5696
4.62194
4.67905
4.73478
4.78312
4.82931
4.87211
4.90849
4.94265
4.97567
5.01133
5.04686
5.08106
5.11754
5.1523
5.18157
5.20861
5.23428
5.26159
5.28836
5.31362
5.34012
5.36481
5.38481
5.40234
5.41677
5.42682
5.43371
5.43737
5.43821
5.43508
5.42693
5.4128
5.39285
5.36782
5.33488
5.29416
5.2474
5.18847
5.11331
5.01153
4.88617
4.7374
4.54944
4.36017
4.23088
4.15134
4.10244
4.07182
4.05268
4.04142
4.03618
3.77441
3.80734
3.856
3.92729
4.00285
4.06675
4.1319
4.19389
4.24433
4.29305
4.34031
4.39508
4.45028
4.50306
4.56363
4.62272
4.67142
4.71906
4.76342
4.79932
4.83338
4.86591
4.90284
4.93947
4.97383
5.01237
5.04905
5.07823
5.10539
5.1308
5.15926
5.18703
5.21256
5.24083
5.26725
5.28762
5.306
5.32134
5.33161
5.33893
5.34295
5.34458
5.3422
5.33466
5.32072
5.30077
5.27649
5.24352
5.20245
5.15718
5.09913
5.02503
4.9194
4.78864
4.63426
4.4244
4.20807
4.07314
3.99612
3.95094
3.92339
3.90643
3.89653
3.89195
3.62283
3.66178
3.71319
3.79351
3.8773
3.94208
4.01092
4.07682
4.12638
4.17546
4.2216
4.27913
4.33641
4.3887
4.45338
4.51649
4.5647
4.61392
4.66023
4.69508
4.72902
4.76056
4.79913
4.83698
4.87092
4.91196
4.95097
4.97959
5.00683
5.03158
5.06146
5.09032
5.11569
5.14604
5.17449
5.19486
5.21414
5.23053
5.24083
5.24858
5.25288
5.2554
5.25384
5.247
5.2332
5.21311
5.18993
5.15687
5.11513
5.07204
5.01511
4.94338
4.83352
4.69745
4.54053
4.30541
4.05542
3.91718
3.84487
3.8045
3.78051
3.76595
3.75752
3.75362
3.47473
3.52158
3.57429
3.66531
3.75877
3.82253
3.89547
3.96619
4.01362
4.06324
4.10717
4.16827
4.22791
4.27834
4.34808
4.4161
4.46256
4.51361
4.56248
4.59547
4.62942
4.65925
4.70001
4.73929
4.77194
4.8161
4.85803
4.88538
4.91279
4.93629
4.96802
4.99813
5.02265
5.05555
5.08644
5.10624
5.12653
5.14419
5.15423
5.16246
5.16689
5.17044
5.16977
5.16373
5.15002
5.12953
5.10794
5.07471
5.03173
4.99174
4.93597
4.8684
4.75351
4.61195
4.45723
4.19282
3.90041
3.76271
3.69765
3.66314
3.64313
3.63112
3.62421
3.62103
3.32964
3.38707
3.43863
3.54253
3.64762
3.70753
3.78524
3.86213
3.90564
3.95636
3.99646
4.06238
4.12484
4.17138
4.24751
4.3217
4.36455
4.41785
4.47017
4.50015
4.53448
4.56157
4.60534
4.64636
4.67643
4.7246
4.77022
4.79529
4.82315
4.84456
4.87878
4.91038
4.93305
4.96917
5.00306
5.02147
5.04294
5.06219
5.07155
5.08039
5.08472
5.08951
5.08978
5.08467
5.07097
5.04968
5.03041
4.99687
4.95175
4.91613
4.86116
4.80019
4.67898
4.53115
4.38568
4.08722
3.74074
3.60962
3.55462
3.52689
3.51116
3.50181
3.49646
3.494
3.18701
3.25885
3.30536
3.42505
3.54439
3.59636
3.67987
3.76487
3.80189
3.85487
3.88885
3.96134
4.02735
4.0671
4.15148
4.23354
4.27013
4.32634
4.38342
4.40871
4.44418
4.46702
4.51499
4.55824
4.58388
4.63728
4.68765
4.70895
4.73786
4.75597
4.79363
4.82707
4.84647
4.88672
4.92437
4.94019
4.96317
4.98445
4.99252
5.00222
5.00612
5.01243
5.01365
5.00964
4.9959
4.97319
4.95723
4.92322
4.87463
4.84512
4.79002
4.73903
4.60951
4.45373
4.3276
3.98949
3.5735
3.45808
3.41599
3.39579
3.38452
3.37789
3.3741
3.37236
3.04618
3.13779
3.1734
3.31272
3.44984
3.4881
3.57903
3.67483
3.70169
3.75899
3.78357
3.86512
3.93575
3.96461
4.05978
4.15206
4.17861
4.23878
4.30242
4.32063
4.35861
4.37506
4.42888
4.47506
4.49366
4.55396
4.61048
4.62591
4.65698
4.67005
4.71246
4.74827
4.76239
4.80803
4.85047
4.86203
4.88698
4.91092
4.91684
4.92782
4.9308
4.93903
4.94117
4.9385
4.92466
4.89963
4.88837
4.85368
4.79971
4.77881
4.72175
4.68541
4.54469
4.37786
4.28517
3.90085
3.39498
3.30864
3.28208
3.26987
3.26315
3.25921
3.25696
3.25593
2.90633
3.0252
3.04134
3.20543
3.36501
3.3816
3.48232
3.59262
3.60414
3.66915
3.67967
3.77373
3.85052
3.86287
3.97226
4.07785
4.0892
4.15485
4.22754
4.23529
4.278
4.28501
4.34698
4.39708
4.40502
4.4745
4.53901
4.54561
4.58064
4.58623
4.63521
4.67415
4.68019
4.73297
4.78155
4.78652
4.81419
4.84162
4.84419
4.85713
4.85848
4.86918
4.87214
4.8711
4.85717
4.82851
4.82384
4.78828
4.72619
4.71743
4.65529
4.64003
4.48419
4.30112
4.26108
3.82296
3.20056
3.16236
3.15321
3.14914
3.14692
3.14562
3.14488
3.14454
)
;

boundaryField
{
    left
    {
        type            zeroGradient;
    }
    right
    {
        type            zeroGradient;
    }
    interface
    {
        type            fixedValue;
        value           nonuniform List<scalar> 
64
(
2.83482
2.97288
2.97288
3.1531
3.32732
3.32732
3.43479
3.55506
3.55506
3.62668
3.62668
3.72952
3.81056
3.81056
3.92958
4.04407
4.04407
4.11365
4.19266
4.19266
4.23955
4.23955
4.30725
4.36006
4.36006
4.4358
4.50564
4.50564
4.54413
4.54413
4.59773
4.63879
4.63879
4.69639
4.74902
4.74902
4.77861
4.80841
4.80841
4.82289
4.82289
4.83525
4.83851
4.83851
4.82457
4.79311
4.79311
4.75701
4.68885
4.68885
4.62156
4.62156
4.45534
4.25983
4.25983
3.78975
3.09008
3.09008
3.09008
3.09008
3.09008
3.09008
3.09008
3.09008
)
;
    }
    bottom
    {
        type            fixedValue;
        value           uniform 10;
    }
    defaultFaces
    {
        type            empty;
    }
}


// ************************************************************************* //
