/*--------------------------------*- C++ -*----------------------------------*\
| =========                 |                                                 |
| \\      /  F ield         | OpenFOAM: The Open Source CFD Toolbox           |
|  \\    /   O peration     | Version:  5.x                                   |
|   \\  /    A nd           | Web:      www.OpenFOAM.org                      |
|    \\/     M anipulation  |                                                 |
\*---------------------------------------------------------------------------*/
FoamFile
{
    version     2.0;
    format      ascii;
    class       volScalarField;
    location    "11.5";
    object      gradTx;
}
// * * * * * * * * * * * * * * * * * * * * * * * * * * * * * * * * * * * * * //

dimensions      [0 -1 0 1 0 0 0];

internalField   nonuniform List<scalar> 
2048
(
0.00630509
0.0187347
0.0306392
0.0417208
0.0517506
0.0605793
0.0681364
0.0744199
0.0794792
0.0833974
0.0862741
0.0882138
0.0893183
0.0896845
0.0894049
0.0885685
0.0872622
0.0855696
0.0835684
0.0813272
0.0789016
0.0763324
0.0736445
0.070848
0.0679406
0.0649102
0.0617375
0.0583966
0.0548569
0.0510824
0.0470327
0.0426644
0.0379322
0.0327916
0.0272006
0.0211218
0.0145228
0.00737753
-0.000333639
-0.00862236
-0.0174902
-0.0269248
-0.0368948
-0.0473429
-0.0581774
-0.0692637
-0.0804145
-0.0913829
-0.101857
-0.111465
-0.119783
-0.126361
-0.130755
-0.132571
-0.131513
-0.127417
-0.120278
-0.110248
-0.0976162
-0.0827656
-0.0661301
-0.0481506
-0.0292471
-0.00980746
0.0187889
0.055819
0.0912581
0.124208
0.153982
0.18014
0.202483
0.221017
0.235906
0.247406
0.255824
0.261474
0.264659
0.265666
0.264765
0.262221
0.25829
0.253222
0.247249
0.240577
0.233373
0.225757
0.217802
0.209537
0.200952
0.19201
0.182651
0.1728
0.162366
0.151241
0.139305
0.126428
0.112476
0.0973132
0.080816
0.0628719
0.0433853
0.0222781
-0.000508556
-0.0250109
-0.0512367
-0.0791539
-0.108675
-0.139638
-0.17178
-0.204708
-0.237878
-0.27056
-0.301835
-0.330588
-0.355551
-0.375363
-0.388677
-0.394293
-0.391299
-0.379196
-0.357965
-0.328076
-0.290414
-0.246153
-0.19661
-0.14311
-0.0869057
-0.0291384
0.0311407
0.0924848
0.151109
0.205489
0.254478
0.297358
0.333834
0.363962
0.388053
0.406574
0.420053
0.429022
0.43398
0.435392
0.433699
0.429327
0.422698
0.414226
0.4043
0.393265
0.3814
0.368903
0.355891
0.342402
0.328416
0.313866
0.298649
0.282643
0.265695
0.247632
0.228254
0.207343
0.184674
0.160023
0.133181
0.103963
0.0722114
0.0377973
0.00062209
-0.0393791
-0.0822279
-0.127885
-0.176226
-0.227006
-0.279818
-0.334048
-0.388822
-0.442967
-0.494973
-0.542995
-0.584904
-0.61839
-0.641142
-0.651081
-0.646615
-0.626867
-0.591805
-0.542257
-0.479772
-0.406392
-0.324375
-0.235963
-0.143225
-0.0480094
0.0436006
0.129428
0.211278
0.286945
0.354803
0.41388
0.463832
0.504829
0.537399
0.562267
0.58022
0.592015
0.598347
0.599845
0.597098
0.590686
0.581191
0.569194
0.555249
0.539849
0.523389
0.506145
0.488269
0.469801
0.450697
0.430852
0.410122
0.388332
0.365277
0.340716
0.314372
0.285936
0.255086
0.221505
0.1849
0.14501
0.101619
0.0545479
0.00365816
-0.0511492
-0.109921
-0.172629
-0.239136
-0.309147
-0.382151
-0.457353
-0.533602
-0.609313
-0.682419
-0.750342
-0.810053
-0.858213
-0.891428
-0.906601
-0.901336
-0.874298
-0.825438
-0.756018
-0.668385
-0.565596
-0.450976
-0.327747
-0.198794
-0.066611
0.0563842
0.167272
0.272726
0.369777
0.456293
0.531077
0.593809
0.644866
0.685085
0.715525
0.737275
0.751336
0.758584
0.759789
0.755669
0.746937
0.734334
0.718616
0.700518
0.680693
0.659665
0.637785
0.615231
0.592031
0.568098
0.543282
0.517389
0.490199
0.461457
0.430859
0.398047
0.362618
0.324147
0.282213
0.236434
0.186477
0.132067
0.0729817
0.00903963
-0.0598968
-0.133913
-0.213013
-0.297079
-0.385803
-0.478617
-0.574604
-0.672388
-0.770033
-0.864944
-0.953814
-1.03266
-1.097
-1.14218
-1.16387
-1.15869
-1.12471
-1.06186
-0.971949
-0.858335
-0.725319
-0.577486
-0.419136
-0.253976
-0.0850565
0.0696964
0.206603
0.336347
0.45508
0.560131
0.65012
0.724854
0.785046
0.831968
0.867107
0.891909
0.907629
0.915307
0.915818
0.909971
0.898594
0.882582
0.86288
0.84043
0.816074
0.790473
0.764057
0.737015
0.709337
0.680877
0.651417
0.620714
0.588508
0.554503
0.518339
0.479577
0.437708
0.392189
0.34249
0.28813
0.228706
0.16389
0.0934185
0.0170748
-0.0653235
-0.153914
-0.24876
-0.349792
-0.456739
-0.569031
-0.685687
-0.805185
-0.925306
-1.04298
-1.15418
-1.25393
-1.33643
-1.39554
-1.42544
-1.42144
-1.38086
-1.30359
-1.19215
-1.0512
-0.886629
-0.704545
-0.510468
-0.308919
-0.103386
0.0837413
0.248001
0.403009
0.54389
0.667392
0.772024
0.857858
0.926115
0.978659
1.01753
1.04458
1.06134
1.06897
1.06839
1.06045
1.04607
1.0263
1.00229
0.975232
0.946191
0.915991
0.885137
0.85381
0.821928
0.789251
0.75548
0.720316
0.68347
0.644623
0.603369
0.559185
0.511444
0.459468
0.402596
0.340246
0.27194
0.197312
0.116068
0.0279612
-0.0672373
-0.169732
-0.27967
-0.397072
-0.521747
-0.653181
-0.790409
-0.931846
-1.07508
-1.21665
-1.35185
-1.47463
-1.57775
-1.65328
-1.6935
-1.69205
-1.64522
-1.55282
-1.41832
-1.24812
-1.05015
-0.83239
-0.601759
-0.363566
-0.121568
0.0987305
0.292063
0.473588
0.63722
0.779089
0.897689
0.993547
1.06861
1.12555
1.16708
1.19556
1.21275
1.21987
1.21784
1.20746
1.18971
1.16577
1.13708
1.1051
1.07118
1.03634
1.00115
0.965764
0.929978
0.893415
0.855665
0.816375
0.775246
0.731965
0.686097
0.637031
0.584003
0.526173
0.462725
0.392962
0.316343
0.232472
0.141047
0.0418019
-0.0655378
-0.181259
-0.305619
-0.438767
-0.580642
-0.730849
-0.888515
-1.0521
-1.21911
-1.38581
-1.54689
-1.69519
-1.82186
-1.91683
-1.96998
-1.97277
-1.92007
-1.81152
-1.65187
-1.44986
-1.21608
-0.96087
-0.692714
-0.417663
-0.139506
0.11489
0.339419
0.548995
0.736092
0.896193
1.02792
1.1325
1.2129
1.27282
1.31587
1.34493
1.36198
1.36823
1.36444
1.35131
1.32979
1.30125
1.26742
1.23014
1.19111
1.15157
1.11218
1.073
1.03365
0.993548
0.952151
0.909045
0.863961
0.816632
0.766621
0.713227
0.655515
0.592445
0.523018
0.446407
0.362012
0.269436
0.168393
0.058618
-0.0602054
-0.18846
-0.326545
-0.474779
-0.633276
-0.80182
-0.979715
-1.16557
-1.35698
-1.55007
-1.73903
-1.91568
-2.06931
-2.18735
-2.25664
-2.26576
-2.20758
-2.0815
-1.89395
-1.65682
-1.38424
-1.08946
-0.782741
-0.470767
-0.157037
0.132465
0.390751
0.630195
0.841559
1.01965
1.16342
1.27515
1.35915
1.42049
1.46381
1.49262
1.50905
1.51416
1.50842
1.49226
1.46659
1.43295
1.39345
1.35043
1.30599
1.2617
1.21827
1.17561
1.13308
1.08983
1.04511
0.998462
0.949703
0.898681
0.844993
0.787836
0.726066
0.65839
0.583581
0.500663
0.408994
0.308208
0.198075
0.0783588
-0.0512915
-0.191369
-0.342451
-0.505064
-0.679544
-0.865905
-1.06371
-1.27184
-1.48813
-1.70881
-1.92776
-2.13582
-2.32035
-2.46574
-2.5551
-2.57315
-2.51
-2.36453
-2.14549
-1.86906
-1.55403
-1.21724
-0.870958
-0.52226
-0.173941
0.151729
0.446807
0.718229
0.954718
1.1504
1.30486
1.42181
1.50739
1.56835
1.61064
1.63842
1.65388
1.65773
1.64994
1.63056
1.60034
1.56105
1.51528
1.46597
1.4158
1.36669
1.31943
1.27369
1.22843
1.18244
1.13471
1.08475
1.03253
0.978127
0.92122
0.860889
0.795718
0.724091
0.644496
0.555784
0.457293
0.348742
0.230005
0.100911
-0.0389103
-0.190081
-0.353396
-0.529637
-0.719395
-0.922956
-1.14021
-1.37044
-1.61193
-1.86124
-2.11227
-2.35503
-2.57487
-2.75269
-2.86688
-2.89713
-2.82962
-2.66238
-2.40726
-2.0863
-1.72443
-1.34296
-0.956208
-0.57136
-0.189945
0.172984
0.508409
0.814227
1.07673
1.28938
1.45278
1.57268
1.65747
1.71606
1.75596
1.78201
1.79631
1.79894
1.78919
1.76648
1.73132
1.68574
1.63298
1.57675
1.52045
1.46647
1.41566
1.36731
1.31986
1.27158
1.22115
1.16803
1.11248
1.05495
0.995272
0.932384
0.864507
0.789614
0.70583
0.611802
0.506884
0.390949
0.264042
0.126105
-0.0232314
-0.184743
-0.35949
-0.548562
-0.752835
-0.972882
-1.20897
-1.46092
-1.72766
-2.00643
-2.2915
-2.57242
-2.83248
-3.0486
-3.19342
-3.23999
-3.169
-2.97693
-2.67984
-2.30787
-1.89402
-1.46495
-1.03709
-0.617153
-0.204733
0.196569
0.576474
0.919424
1.20881
1.43751
1.60769
1.7278
1.8091
1.8631
1.8992
1.92297
1.93611
1.93782
1.92636
1.90031
1.85979
1.80719
1.74661
1.6827
1.6198
1.56091
1.50691
1.45656
1.40755
1.3575
1.30464
1.24841
1.18954
1.12907
1.06708
1.0023
0.932458
0.855023
0.767653
0.66874
0.557715
0.434706
0.300003
0.153725
-0.00447241
-0.175543
-0.360887
-0.561959
-0.779934
-1.01566
-1.26982
-1.54287
-1.83461
-2.14332
-2.46418
-2.78674
-3.09241
-3.35363
-3.53606
-3.60422
-3.53097
-3.3102
-2.96367
-2.53269
-2.0609
-1.58124
-1.11198
-0.658618
-0.217962
0.222864
0.652012
1.03517
1.35228
1.59572
1.76999
1.88711
1.96181
2.00877
2.03966
2.06076
2.07304
2.07433
2.06165
2.03238
1.98605
1.92559
1.85622
1.78373
1.71366
1.64985
1.59313
1.54153
1.4917
1.44044
1.38543
1.32603
1.26369
1.20037
1.13654
1.07058
0.999588
0.920382
0.830037
0.726614
0.609714
0.479857
0.337665
0.183508
0.0171078
-0.162709
-0.357775
-0.569988
-0.800826
-1.05136
-1.32266
-1.61594
-1.93209
-2.27079
-2.62882
-2.99646
-3.35354
-3.66759
-3.89603
-3.99251
-3.91884
-3.66446
-3.25895
-2.75923
-2.2227
-1.6895
-1.1791
-0.694677
-0.229274
0.252296
0.736139
1.16293
1.50853
1.76489
1.93997
2.05042
2.11501
2.15222
2.1765
2.1948
2.20681
2.2085
2.19532
2.16309
2.11044
2.04112
1.96183
1.87971
1.8018
1.73305
1.67426
1.62232
1.57253
1.52073
1.46381
1.40101
1.33485
1.26869
1.20351
1.13718
1.06591
0.985764
0.893077
0.785445
0.66279
0.526224
0.376777
0.215155
0.0412147
-0.146492
-0.350363
-0.57285
-0.81571
-1.08013
-1.36751
-1.67991
-2.01947
-2.38769
-2.78378
-3.19975
-3.61438
-3.98996
-4.27438
-4.40781
-4.33647
-4.04232
-3.56569
-2.98538
-2.37656
-1.78714
-1.23656
-0.724242
-0.238318
0.285347
0.830079
1.3043
1.67904
1.94588
2.1178
2.21744
2.26798
2.29246
2.30878
2.32447
2.33718
2.34031
2.32764
2.29291
2.23332
2.15395
2.06349
1.97051
1.88392
1.81026
1.75022
1.69908
1.6503
1.59873
1.54017
1.4735
1.40291
1.33379
1.26782
1.20205
1.13142
1.05126
0.956895
0.845258
0.716838
0.573612
0.417058
0.248333
0.0675237
-0.12716
-0.338874
-0.570769
-0.824843
-1.10221
-1.40448
-1.73466
-2.09625
-2.49288
-2.92726
-3.39446
-3.87305
-4.31978
-4.6719
-4.85338
-4.78853
-4.44679
-3.88353
-3.20838
-2.5191
-1.87132
-1.28246
-0.746273
-0.24477
0.322567
0.935159
1.46099
1.86544
2.13948
2.30349
2.38776
2.4199
2.42833
2.4354
2.44911
2.46392
2.46976
2.45894
2.42243
2.35512
2.26424
2.16125
2.05594
1.95966
1.88114
1.82094
1.77196
1.72528
1.67482
1.61493
1.54367
1.46766
1.39536
1.32929
1.26512
1.19613
1.11695
1.02166
0.906087
0.771725
0.621811
0.45821
0.282674
0.0956833
-0.10499
-0.323521
-0.563982
-0.828539
-1.11794
-1.4338
-1.78021
-2.1621
-2.58531
-3.05736
-3.57819
-4.12729
-4.65564
-5.08893
-5.33272
-5.28069
-4.88148
-4.21167
-3.42469
-2.64644
-1.93907
-1.31497
-0.759839
-0.248353
0.364593
1.0528
1.63484
2.06947
2.34637
2.49682
2.56094
2.56987
2.55853
2.55518
2.56807
2.58689
2.59685
2.58959
2.55237
2.47624
2.3721
2.2552
2.13585
2.02857
1.94529
1.88634
1.8412
1.79772
1.74944
1.68867
1.61171
1.52886
1.453
1.38768
1.32639
1.26003
1.18297
1.08761
0.967972
0.827289
0.670611
0.499924
0.31778
0.125318
-0.0802584
-0.304503
-0.552725
-0.82716
-1.12775
-1.4558
-1.81676
-2.2169
-2.66404
-3.17213
-3.7483
-4.37452
-4.99561
-5.52519
-5.84959
-5.81999
-5.35067
-4.54863
-3.62981
-2.75419
-1.98739
-1.33241
-0.764183
-0.248858
0.41219
1.18449
1.82775
2.29309
2.56708
2.69731
2.73653
2.71694
2.68158
2.66678
2.68077
2.70608
2.7215
2.71993
2.68366
2.59713
2.47755
2.34547
2.21008
2.09013
2.00224
1.94639
1.90711
1.86786
1.82306
1.76212
1.67783
1.58611
1.50623
1.4428
1.3859
1.32307
1.2494
1.15506
1.03096
0.883317
0.719812
0.541888
0.353218
0.156029
-0.0532316
-0.28198
-0.537221
-0.82111
-1.13217
-1.47089
-1.84463
-2.2608
-2.72831
-3.26956
-3.90191
-4.61186
-5.33726
-5.97947
-6.40788
-6.41521
-5.8595
-4.89196
-3.81814
-2.83756
-2.01339
-1.3334
-0.75877
-0.246155
0.466318
1.33175
2.04163
2.53858
2.80191
2.90407
2.91416
2.86018
2.79586
2.76874
2.78665
2.8217
2.8435
2.85032
2.81751
2.7182
2.58046
2.43234
2.27852
2.1437
2.0514
2.00107
1.97012
1.93585
1.89612
1.8362
1.7423
1.6389
1.5544
1.49442
1.44379
1.38515
1.31636
1.22448
1.09509
0.93952
0.769248
0.583795
0.388515
0.187394
-0.0241637
-0.25606
-0.517657
-0.810831
-1.13182
-1.47952
-1.86426
-2.29429
-2.77757
-3.34768
-4.03598
-4.83627
-5.67772
-6.44924
-7.01137
-7.07749
-6.41418
-5.23785
-3.98282
-2.89141
-2.0144
-1.31693
-0.74334
-0.240214
0.528239
1.4961
2.27836
2.80865
3.05084
3.11572
3.09371
2.99873
2.8995
2.85943
2.88532
2.93426
2.96243
2.98099
2.95557
2.83979
2.68043
2.51628
2.34108
2.18849
2.09207
2.05043
2.03089
2.00169
1.96904
1.91219
1.80538
1.68653
1.59676
1.54238
1.50035
1.44605
1.38387
1.29654
1.16037
0.995492
0.818819
0.625357
0.423153
0.218965
0.00670897
-0.226783
-0.494172
-0.796796
-1.12744
-1.48217
-1.87618
-2.31827
-2.81155
-3.4045
-4.14724
-5.04465
-6.01386
-6.93012
-7.66348
-7.82111
-7.02217
-5.58052
-4.11556
-2.9105
-1.98822
-1.28244
-0.717929
-0.2311
0.599706
1.67892
2.53958
3.10675
3.3134
3.33012
3.27551
3.1318
2.99044
2.93704
2.97648
3.04478
3.07748
3.11202
3.10008
2.96208
2.77668
2.59807
2.39778
2.22355
2.12338
2.09457
2.09034
2.06513
2.04211
1.99175
1.86736
1.72806
1.63238
1.58653
1.55615
1.50538
1.4519
1.3722
1.22677
1.05065
0.868547
0.666312
0.456551
0.250272
0.0391682
-0.1941
-0.466842
-0.779499
-1.11993
-1.47928
-1.88093
-2.33413
-2.83026
-3.43812
-4.23226
-5.23398
-6.34262
-7.41527
-8.36667
-8.66447
-7.69244
-5.91142
-4.20655
-2.88964
-1.93325
-1.22993
-0.682888
-0.21898
0.683244
1.88137
2.82648
3.4374
3.58849
3.54416
3.46061
3.25875
3.06628
2.99951
3.06002
3.15495
3.18727
3.2432
3.25421
3.08502
2.86787
2.67903
2.44871
2.24771
2.14431
2.13368
2.14984
2.12552
2.11544
2.07719
1.9285
1.76226
1.66015
1.6268
1.61209
1.56247
1.52028
1.45286
1.29415
1.10415
0.91865
0.706431
0.48805
0.280819
0.0730103
-0.157854
-0.43566
-0.759445
-1.11034
-1.47116
-1.87895
-2.34386
-2.83402
-3.44673
-4.2873
-5.40151
-6.66155
-7.89453
-9.12174
-9.63151
-8.43568
-6.21823
-4.24451
-2.82412
-1.84869
-1.15996
-0.638868
-0.204108
0.782593
2.10423
3.13947
3.80675
3.87414
3.75337
3.6513
3.37907
3.12426
3.04453
3.13591
3.26756
3.28952
3.37384
3.42242
3.20812
2.95179
2.76124
2.49401
2.25954
2.15359
2.16798
2.21142
2.18162
2.18881
2.17164
1.98899
1.78755
1.67876
1.66316
1.66962
1.6162
1.58858
1.54055
1.3622
1.1548
0.969655
0.745513
0.516883
0.310097
0.108038
-0.117767
-0.400525
-0.737131
-1.10003
-1.45796
-1.87046
-2.35024
-2.82346
-3.42861
-4.3083
-5.54485
-6.96967
-8.35349
-9.92675
-10.7535
-9.26454
-6.48343
-4.21683
-2.71001
-1.73468
-1.07367
-0.58679
-0.186818
0.903347
2.34762
3.47767
4.22338
4.16719
3.95146
3.85164
3.49228
3.1612
3.06949
3.20423
3.38684
3.38071
3.50254
3.61107
3.33028
3.02509
2.84796
2.53386
2.25725
2.14974
2.19772
2.27807
2.23136
2.26154
2.27943
2.04881
1.80194
1.68672
1.69561
1.73099
1.66487
1.65605
1.63817
1.43034
1.20089
1.02256
0.783365
0.542148
0.337595
0.144043
-0.0734128
-0.361233
-0.713011
-1.09069
-1.43957
-1.85523
-2.35704
-2.7994
-3.38225
-4.29065
-5.66202
-7.26864
-8.77235
-10.7755
-12.0712
-10.1938
-6.68264
-4.11003
-2.54469
-1.59242
-0.972731
-0.527802
-0.1675
1.05386
2.61075
3.83825
4.69931
4.46285
4.12968
4.0683
3.5978
3.17337
3.07146
3.26494
3.51915
3.45554
3.62688
3.82909
3.44944
3.08279
2.94412
2.56834
2.23871
2.13104
2.22304
2.35411
2.2715
2.33225
2.4065
2.10754
1.80296
1.68234
1.7241
1.79951
1.70588
1.72145
1.74989
1.49759
1.24002
1.07904
0.819767
0.562766
0.362824
0.180782
-0.0241979
-0.317477
-0.687437
-1.08453
-1.41553
-1.83233
-2.3693
-2.76282
-3.30644
-4.22901
-5.75132
-7.56449
-9.1246
-11.6555
-13.638
-11.2403
-6.78239
-3.91052
-2.32733
-1.42423
-0.859314
-0.463211
-0.14658
1.24649
2.89149
4.21545
5.25146
4.75413
4.27607
4.31167
3.69464
3.1565
3.04723
3.31763
3.67377
3.50633
3.74306
4.08902
3.56223
3.11781
3.05703
2.59722
2.20135
2.09551
2.24381
2.44574
2.29722
2.39865
2.56097
2.16417
1.78766
1.66382
1.74839
1.88001
1.73546
1.78284
1.88153
1.56237
1.2689
1.14176
0.854387
0.577442
0.385366
0.21794
0.0306672
-0.268856
-0.660579
-1.08448
-1.38494
-1.79981
-2.39371
-2.71457
-3.20045
-4.11704
-5.81099
-7.86978
-9.37562
-12.5455
-15.5236
-12.4233
-6.73755
-3.60579
-2.05935
-1.23349
-0.735932
-0.394419
-0.124502
1.49924
3.18591
4.59943
5.90343
5.0311
4.37452
4.59715
3.78085
3.10568
2.99337
3.36108
3.86398
3.52222
3.84531
4.40811
3.66341
3.12026
3.19726
2.61966
2.14217
2.041
2.25936
2.56173
2.30162
2.4572
2.75382
2.2166
1.75259
1.62929
1.76784
1.97937
1.74828
1.8374
2.04119
1.62222
1.28309
1.2147
0.886667
0.584623
0.404926
0.255074
0.0922017
-0.214909
-0.632286
-1.09441
-1.34643
-1.75424
-2.43912
-2.65509
-3.06427
-3.94712
-5.83856
-8.20641
-9.48111
-13.4121
-17.8182
-13.7635
-6.48817
-3.18622
-1.74483
-1.02455
-0.60533
-0.322847
-0.101698
1.83793
3.48765
4.97472
6.68778
5.28
4.40366
4.94695
3.85286
3.01548
2.90638
3.39265
4.10832
3.48826
3.92536
4.8099
3.74523
3.07674
3.37974
2.63369
2.05775
1.96527
2.26806
2.71428
2.27512
2.50271
2.99978
2.26124
1.69383
1.57695
1.78111
2.10716
1.73691
1.88111
2.23989
1.67356
1.27665
1.30366
0.915637
0.582454
0.42142
0.29154
0.1617
-0.155173
-0.601915
-1.11942
-1.29807
-1.69017
-2.51723
-2.58394
-2.89903
-3.71006
-5.82969
-8.60914
-9.3856
-14.2057
-20.638
-15.2832
-5.95595
-2.64744
-1.39075
-0.802485
-0.470329
-0.249872
-0.0785816
2.29878
3.78718
5.31831
7.64882
5.48207
4.33555
5.39214
3.90436
2.87997
2.78295
3.40734
4.4323
3.38432
3.97164
5.32586
3.79664
2.96942
3.62514
2.63559
1.94432
1.86615
2.26672
2.9201
2.20474
2.52796
3.31841
2.29223
1.60714
1.50525
1.78561
2.27653
1.69133
1.9084
2.49243
1.71118
1.24184
1.41683
0.939663
0.568756
0.435081
0.326401
0.24079
-0.0892757
-0.568079
-1.16622
-1.23737
-1.5995
-2.64333
-2.49911
-2.70749
-3.39489
-5.77661
-9.12968
-9.02089
-14.8555
-24.1313
-17.005
-5.04008
-1.99351
-1.00696
-0.572821
-0.33368
-0.176765
-0.0555231
2.93169
4.07096
5.59744
8.84584
5.61222
4.1342
5.97516
3.92494
2.69306
2.62032
3.39663
4.87029
3.18384
3.96846
5.99747
3.80236
2.77507
3.9615
2.61893
1.79793
1.74179
2.24987
3.20162
2.07328
2.52315
3.73524
2.3006
1.48812
1.41311
1.77699
2.50514
1.59824
1.91182
2.8183
1.72786
1.16874
1.56539
0.956112
0.541011
0.446594
0.358299
0.331518
-0.0170737
-0.528333
-1.24353
-1.16132
-1.47065
-2.83738
-2.39621
-2.49472
-2.98875
-5.66579
-9.84146
-8.30469
-15.2642
-28.4858
-18.9506
-3.61291
-1.24082
-0.605811
-0.341146
-0.197924
-0.104654
-0.0328457
3.80399
4.32043
5.76702
10.3569
5.63741
3.75401
6.75265
3.89835
2.44878
2.41681
3.34699
5.46779
2.85244
3.89504
6.87845
3.74173
2.46403
4.4261
2.57348
1.61468
1.59101
2.20875
3.58856
1.85843
2.47536
4.28326
2.27319
1.33251
1.30027
1.74827
2.81633
1.44036
1.8816
3.24278
1.71376
1.04484
1.76438
0.960918
0.496379
0.457249
0.385311
0.436447
0.0611542
-0.47878
-1.3625
-1.06642
-1.28765
-3.12517
-2.26731
-2.2689
-2.47697
-5.47509
-10.8451
-7.13947
-15.3009
-33.9364
-21.1391
-1.51515
-0.422852
-0.201266
-0.112737
-0.0652799
-0.0344855
-0.0108184
)
;

boundaryField
{
    left
    {
        type            calculated;
        value           uniform 0;
    }
    right
    {
        type            calculated;
        value           uniform 0;
    }
    interface
    {
        type            calculated;
        value           nonuniform List<scalar> 
64
(
3.80399
4.32043
5.76702
10.3569
5.63741
3.75401
6.75265
3.89835
2.44878
2.41681
3.34699
5.46779
2.85244
3.89504
6.87845
3.74173
2.46403
4.4261
2.57348
1.61468
1.59101
2.20875
3.58856
1.85843
2.47536
4.28326
2.27319
1.33251
1.30027
1.74827
2.81633
1.44036
1.8816
3.24278
1.71376
1.04484
1.76438
0.960918
0.496379
0.457249
0.385311
0.436447
0.0611542
-0.47878
-1.3625
-1.06642
-1.28765
-3.12517
-2.26731
-2.2689
-2.47697
-5.47509
-10.8451
-7.13947
-15.3009
-33.9364
-21.1391
-1.51515
-0.422852
-0.201266
-0.112737
-0.0652799
-0.0344855
-0.0108184
)
;
    }
    bottom
    {
        type            calculated;
        value           nonuniform List<scalar> 
64
(
0.00630509
0.0187347
0.0306392
0.0417208
0.0517506
0.0605793
0.0681364
0.0744199
0.0794792
0.0833974
0.0862741
0.0882138
0.0893183
0.0896845
0.0894049
0.0885685
0.0872622
0.0855696
0.0835684
0.0813272
0.0789016
0.0763324
0.0736445
0.070848
0.0679406
0.0649102
0.0617375
0.0583966
0.0548569
0.0510824
0.0470327
0.0426644
0.0379322
0.0327916
0.0272006
0.0211218
0.0145228
0.00737753
-0.000333639
-0.00862236
-0.0174902
-0.0269248
-0.0368948
-0.0473429
-0.0581774
-0.0692637
-0.0804145
-0.0913829
-0.101857
-0.111465
-0.119783
-0.126361
-0.130755
-0.132571
-0.131513
-0.127417
-0.120278
-0.110248
-0.0976162
-0.0827656
-0.0661301
-0.0481506
-0.0292471
-0.00980746
)
;
    }
    defaultFaces
    {
        type            empty;
    }
}


// ************************************************************************* //
