/*--------------------------------*- C++ -*----------------------------------*\
| =========                 |                                                 |
| \\      /  F ield         | OpenFOAM: The Open Source CFD Toolbox           |
|  \\    /   O peration     | Version:  5.x                                   |
|   \\  /    A nd           | Web:      www.OpenFOAM.org                      |
|    \\/     M anipulation  |                                                 |
\*---------------------------------------------------------------------------*/
FoamFile
{
    version     2.0;
    format      ascii;
    class       volScalarField;
    location    "12.2001";
    object      gradTx;
}
// * * * * * * * * * * * * * * * * * * * * * * * * * * * * * * * * * * * * * //

dimensions      [0 -1 0 1 0 0 0];

internalField   nonuniform List<scalar> 
6300
(
-31.9146
-31.9854
-32.1263
-32.3359
-32.6119
-32.9512
-33.3496
-33.8015
-34.3002
-34.8378
-35.4047
-35.9906
-36.5844
-37.1749
-37.7515
-31.8438
-31.9153
-32.0576
-32.2695
-32.5487
-32.8922
-33.296
-33.7546
-34.2615
-34.8083
-35.3857
-35.9827
-36.5878
-37.1889
-37.7748
-31.7015
-31.7744
-31.9195
-32.1357
-32.4211
-32.773
-33.1875
-33.6596
-34.1827
-34.7485
-35.347
-35.9668
-36.595
-37.2182
-37.8234
-31.4864
-31.5612
-31.7102
-31.9326
-32.227
-32.5911
-33.0215
-33.5137
-34.0612
-34.6559
-35.2872
-35.9425
-36.6072
-37.2655
-37.9015
-31.1966
-31.2736
-31.4275
-31.6576
-31.9633
-32.3429
-32.7938
-33.3124
-33.8927
-34.5267
-35.2034
-35.9088
-36.6259
-37.3351
-38.016
-30.8298
-30.9093
-31.0684
-31.3072
-31.6256
-32.0232
-32.4987
-33.0493
-33.6705
-34.3548
-35.0909
-35.8636
-36.6524
-37.4329
-38.1776
-30.3835
-30.4654
-30.6297
-30.8771
-31.2089
-31.6258
-32.1283
-32.7158
-33.3853
-34.131
-34.9421
-35.8022
-36.6875
-37.5664
-38.4014
-29.8553
-29.9391
-30.1078
-30.3629
-30.7069
-31.1427
-31.6732
-32.3002
-33.0242
-33.8418
-34.7445
-35.7158
-36.7288
-37.7441
-38.7091
-29.2432
-29.3281
-29.4994
-29.7597
-30.1133
-30.5652
-31.1214
-31.7879
-32.5695
-33.4677
-34.4784
-35.5878
-36.768
-37.972
-39.1286
-28.5462
-28.6308
-28.8019
-29.0635
-29.4213
-29.8835
-30.4596
-31.1608
-31.9982
-32.9812
-34.1137
-35.3891
-36.7835
-38.2472
-39.6919
-27.7647
-27.847
-28.0141
-28.2709
-28.6253
-29.0879
-29.6729
-30.3975
-31.2815
-32.3454
-33.6061
-35.0711
-36.7292
-38.541
-40.4204
-26.9008
-26.9785
-27.1366
-27.381
-27.721
-28.1701
-28.7467
-29.4749
-30.3851
-31.5126
-32.8939
-34.559
-36.5201
-38.7661
-41.2708
-25.9594
-26.0296
-26.1729
-26.3956
-26.7078
-27.125
-27.6691
-28.3706
-29.2714
-30.4255
-31.8968
-33.7489
-36.0224
-38.7276
-41.9689
-24.9478
-25.0076
-25.1298
-25.3206
-25.59
-25.9533
-26.4341
-27.0672
-27.9042
-29.0201
-30.5167
-32.5122
-35.0828
-38.1357
-41.5451
-23.8765
-23.9231
-24.0184
-24.1673
-24.3782
-24.6644
-25.047
-25.5598
-26.2578
-27.2323
-28.6335
-30.6891
-33.6338
-37.1279
-37.5049
-38.2607
-38.7007
-39.1165
-39.5063
-39.8691
-40.2048
-40.5139
-40.7967
-41.0537
-41.2845
-41.4887
-41.6653
-41.8132
-41.9316
-42.0206
-42.0809
-42.1144
-42.1242
-42.1139
-42.088
-42.0506
-42.0055
-41.9556
-41.9028
-41.8475
-41.7891
-41.7262
-41.6569
-41.5791
-41.4915
-41.3934
-41.2851
-41.1681
-41.0447
-40.9177
-40.7899
-40.664
-40.5418
-40.4242
-40.3108
-40.2007
-40.0917
-39.9815
-39.868
-39.7494
-39.6248
-39.4941
-39.3586
-39.2201
-39.0811
-38.9442
-38.8116
-38.6849
-38.5649
-38.4511
-38.3423
-38.2365
-38.1315
-38.025
-37.9153
-37.8014
-37.6834
-37.5623
-37.4398
-37.3183
-37.2002
-37.0876
-36.9822
-36.8846
-36.7946
-36.7112
-36.6327
-36.5574
-36.4836
-36.4102
-36.3372
-36.2656
-36.1976
-36.1364
-36.0857
-36.0496
-36.0317
-36.0352
-36.0616
-36.111
-36.182
-36.271
-36.3731
-36.4821
-36.5912
-38.2909
-38.7354
-39.1541
-39.5452
-39.9081
-40.2432
-40.5516
-40.834
-41.0912
-41.323
-41.5286
-41.7066
-41.8555
-41.9741
-42.0619
-42.1194
-42.1486
-42.1529
-42.1366
-42.1045
-42.0616
-42.0123
-41.9599
-41.9063
-41.8519
-41.7956
-41.7355
-41.6689
-41.5933
-41.5066
-41.4079
-41.2976
-41.1774
-41.05
-40.9187
-40.7873
-40.6587
-40.5352
-40.4179
-40.3063
-40.199
-40.0933
-39.9864
-39.8754
-39.7581
-39.6334
-39.5011
-39.3628
-39.2208
-39.0781
-38.9379
-38.8031
-38.6754
-38.5559
-38.4439
-38.3379
-38.2354
-38.1336
-38.0296
-37.9213
-37.8074
-37.6879
-37.5642
-37.4384
-37.3134
-37.1921
-37.0774
-36.9709
-36.8736
-36.7851
-36.704
-36.6282
-36.5552
-36.4829
-36.4096
-36.3352
-36.2605
-36.1879
-36.1212
-36.0647
-36.0232
-36.0011
-36.0021
-36.0283
-36.0801
-36.1559
-36.2521
-36.3631
-36.482
-36.6012
-38.3538
-38.8074
-39.2315
-39.6245
-39.9869
-40.3202
-40.6265
-40.9078
-41.1653
-41.3992
-41.608
-41.7898
-41.9416
-42.061
-42.1467
-42.1986
-42.2189
-42.2114
-42.1819
-42.1365
-42.0819
-42.0237
-41.966
-41.911
-41.8589
-41.8078
-41.7542
-41.6941
-41.6234
-41.539
-41.4393
-41.3245
-41.197
-41.0606
-40.9201
-40.7804
-40.646
-40.5199
-40.4033
-40.2958
-40.1948
-40.0967
-39.9971
-39.8919
-39.7777
-39.6527
-39.5169
-39.3724
-39.2225
-39.0715
-38.924
-38.7841
-38.6543
-38.5359
-38.4281
-38.3285
-38.2335
-38.1388
-38.0405
-37.9352
-37.8213
-37.6987
-37.5691
-37.4358
-37.303
-37.1748
-37.0551
-36.9465
-36.85
-36.765
-36.6893
-36.6196
-36.5522
-36.4835
-36.4109
-36.3335
-36.2522
-36.1699
-36.0912
-36.0221
-35.9688
-35.9374
-35.9327
-35.9582
-36.0146
-36.1006
-36.2118
-36.3417
-36.4817
-36.6221
-38.4544
-38.9219
-39.3534
-39.7481
-40.1078
-40.4361
-40.7374
-41.0157
-41.2736
-41.5112
-41.7267
-41.916
-42.0742
-42.1967
-42.2801
-42.3234
-42.329
-42.3019
-42.2499
-42.182
-42.1074
-42.0342
-41.968
-41.9117
-41.8646
-41.8233
-41.7822
-41.7344
-41.6733
-41.5934
-41.4922
-41.3698
-41.2295
-41.0772
-40.9202
-40.7661
-40.6214
-40.4907
-40.3759
-40.2757
-40.1864
-40.1022
-40.016
-39.9213
-39.8127
-39.6874
-39.5454
-39.3897
-39.2256
-39.0598
-38.8994
-38.7504
-38.6169
-38.5007
-38.4004
-38.3124
-38.2309
-38.1494
-38.0613
-37.9617
-37.8477
-37.7194
-37.5794
-37.4327
-37.2858
-37.1453
-37.0169
-36.9046
-36.8098
-36.7314
-36.6659
-36.6078
-36.551
-36.4896
-36.4191
-36.3374
-36.2453
-36.1465
-36.0476
-35.9568
-35.883
-35.835
-35.8201
-35.8433
-35.9067
-36.0089
-36.1447
-36.3057
-36.4806
-36.6565
-38.6015
-39.088
-39.5282
-39.922
-40.2738
-40.5907
-40.8813
-41.1531
-41.4109
-41.6553
-41.8829
-42.0869
-42.2584
-42.3887
-42.471
-42.5027
-42.486
-42.4282
-42.3407
-42.237
-42.131
-42.0346
-41.956
-41.8989
-41.8618
-41.8387
-41.8199
-41.7941
-41.75
-41.6787
-41.5756
-41.4407
-41.2793
-41.1006
-40.9162
-40.7381
-40.5766
-40.4387
-40.3272
-40.24
-40.1709
-40.1103
-40.0472
-39.9706
-39.8718
-39.7462
-39.5937
-39.4192
-39.2311
-39.0404
-38.8583
-38.6942
-38.5548
-38.4425
-38.3552
-38.2869
-38.2285
-38.1692
-38.0988
-38.0089
-37.8949
-37.7568
-37.5991
-37.4299
-37.2595
-37.0984
-36.9556
-36.8374
-36.746
-36.6794
-36.6316
-36.5941
-36.5565
-36.5088
-36.4435
-36.3563
-36.2479
-36.1234
-35.9924
-35.8668
-35.76
-35.685
-35.6525
-35.6706
-35.743
-35.8687
-36.0413
-36.2498
-36.4783
-36.7086
-38.8089
-39.3208
-39.7697
-40.1566
-40.4898
-40.7831
-41.0522
-41.3108
-41.5674
-41.8234
-42.0732
-42.3046
-42.502
-42.6497
-42.7349
-42.7517
-42.7022
-42.5974
-42.4548
-42.2955
-42.1409
-42.0093
-41.9131
-41.8573
-41.839
-41.8478
-41.8678
-41.88
-41.8657
-41.81
-41.7047
-41.5499
-41.3539
-41.1321
-40.9031
-40.6863
-40.4978
-40.3488
-40.2434
-40.1783
-40.1431
-40.1223
-40.0978
-40.0517
-39.9696
-39.8437
-39.6738
-39.468
-39.2404
-39.0088
-38.791
-38.6026
-38.4537
-38.3481
-38.2826
-38.2472
-38.2272
-38.2053
-38.1643
-38.0907
-37.9768
-37.8226
-37.6355
-37.429
-37.2198
-37.0249
-36.859
-36.7317
-36.6465
-36.6
-36.5828
-36.5805
-36.5763
-36.5536
-36.4993
-36.4059
-36.2735
-36.1099
-35.9292
-35.7497
-35.5915
-35.4735
-35.4123
-35.4198
-35.5026
-35.6607
-35.8865
-36.1648
-36.4734
-36.7853
-39.0981
-39.6445
-40.1005
-40.4683
-40.7632
-41.0104
-41.2382
-41.4712
-41.7244
-42.0007
-42.2898
-42.5711
-42.8174
-43.0006
-43.0975
-43.0959
-42.9982
-42.8211
-42.5928
-42.3472
-42.1177
-41.9329
-41.8118
-41.7617
-41.7772
-41.8409
-41.9269
-42.0039
-42.041
-42.0129
-41.9052
-41.7181
-41.4659
-41.1738
-40.8727
-40.5935
-40.3621
-40.1961
-40.1018
-40.0734
-40.0944
-40.1396
-40.1795
-40.1845
-40.1307
-40.0044
-39.8057
-39.5482
-39.2556
-38.9571
-38.6817
-38.4539
-38.2901
-38.1962
-38.1665
-38.1854
-38.2288
-38.2686
-38.2768
-38.2305
-38.1168
-37.9356
-37.6998
-37.4318
-37.1593
-36.9099
-36.7067
-36.5653
-36.4911
-36.4786
-36.5126
-36.5697
-36.6227
-36.6441
-36.6114
-36.5116
-36.344
-36.1209
-35.8642
-35.6022
-35.3648
-35.1804
-35.0729
-35.0605
-35.1539
-35.3551
-35.656
-36.0363
-36.4639
-36.8977
-39.5022
-40.0983
-40.5584
-40.8848
-41.1052
-41.2654
-41.4166
-41.6021
-41.8483
-42.1593
-42.5176
-42.8878
-43.2236
-43.4756
-43.6019
-43.5787
-43.4083
-43.1185
-42.756
-42.3755
-42.0303
-41.7648
-41.6084
-41.5718
-41.6457
-41.8021
-41.9989
-42.1854
-42.3103
-42.3302
-42.2201
-41.9801
-41.6353
-41.2286
-40.8108
-40.4316
-40.1324
-39.9403
-39.8651
-39.8975
-40.0107
-40.1647
-40.3114
-40.4021
-40.3959
-40.2693
-40.0224
-39.6789
-39.2794
-38.8721
-38.5036
-38.2131
-38.026
-37.9516
-37.9807
-38.0881
-38.2356
-38.3775
-38.4677
-38.4673
-38.3539
-38.1274
-37.8104
-37.4413
-37.0657
-36.7281
-36.4655
-36.3022
-36.2468
-36.2905
-36.4088
-36.5649
-36.7145
-36.8124
-36.8201
-36.7147
-36.4947
-36.1801
-35.807
-35.4193
-35.062
-34.7764
-34.5967
-34.5489
-34.6498
-34.9062
-35.3112
-35.8398
-36.4453
-37.0636
-40.0721
-40.7477
-41.2088
-41.4539
-41.5338
-41.5335
-41.5452
-41.6454
-41.8785
-42.2497
-42.728
-43.2542
-43.7504
-44.1315
-44.3214
-44.2737
-43.9902
-43.5206
-42.945
-42.3529
-41.8282
-41.4396
-41.2324
-41.223
-41.3954
-41.7051
-42.0856
-42.4558
-42.7306
-42.8346
-42.722
-42.3931
-41.8939
-41.2993
-40.6933
-40.1548
-39.7482
-39.5161
-39.4735
-39.6051
-39.8684
-40.2002
-40.524
-40.7592
-40.8347
-40.7075
-40.3781
-39.8902
-39.3147
-38.7309
-38.2135
-37.8231
-37.5998
-37.5578
-37.6823
-37.9331
-38.2502
-38.5611
-38.7891
-38.867
-38.7537
-38.4495
-37.9959
-37.46
-36.9173
-36.4384
-36.0812
-35.8838
-35.8598
-35.9949
-36.2507
-36.5694
-36.8808
-37.1104
-37.1918
-37.083
-36.7815
-36.3237
-35.7708
-35.1925
-34.656
-34.2197
-33.9305
-33.8232
-33.9219
-34.243
-34.7886
-35.5323
-36.4082
-37.3124
-40.8845
-41.7061
-42.1704
-42.2608
-42.0781
-41.7841
-41.5463
-41.497
-41.7096
-42.1856
-42.8692
-43.6635
-44.4429
-45.0629
-45.383
-45.3083
-44.8399
-44.0756
-43.1578
-42.2331
-41.4303
-40.853
-40.5715
-40.6122
-40.9474
-41.5064
-42.1869
-42.8638
-43.3967
-43.6509
-43.5355
-43.0512
-42.29
-41.3863
-40.4785
-39.6881
-39.1128
-38.819
-38.8312
-39.1231
-39.6274
-40.2473
-40.8644
-41.3461
-41.5653
-41.4369
-40.9619
-40.2277
-39.3616
-38.4943
-37.7405
-37.1925
-36.9127
-36.9242
-37.202
-37.6825
-38.2739
-38.8638
-39.3267
-39.542
-39.4283
-38.9868
-38.3001
-37.4887
-36.6768
-35.9736
-35.4667
-35.2159
-35.2435
-35.5256
-36.0019
-36.5843
-37.165
-37.622
-37.8372
-37.7289
-37.2933
-36.6042
-35.771
-34.9056
-34.1058
-33.4513
-33.0024
-32.8006
-32.8739
-33.2566
-33.9806
-35.0348
-36.3303
-37.6936
-42.0498
-43.1795
-43.6701
-43.4609
-42.7829
-41.9545
-41.2762
-40.9714
-41.1613
-41.8224
-42.8506
-44.0941
-45.3648
-46.4259
-47.0133
-46.9095
-46.1158
-44.8516
-43.3806
-41.9377
-40.7077
-39.8405
-39.4468
-39.5773
-40.1771
-41.1326
-42.2935
-43.4791
-44.4643
-44.9995
-44.8802
-44.1081
-42.8912
-41.4794
-40.0946
-38.9115
-38.0722
-37.6811
-37.7861
-38.335
-39.2199
-40.2985
-41.3997
-42.3108
-42.7968
-42.6652
-41.9189
-40.7552
-39.4104
-38.0942
-36.9713
-36.1756
-35.8059
-35.9072
-36.43
-37.2723
-38.2995
-39.3496
-40.221
-40.6905
-40.5752
-39.8773
-38.7836
-37.5181
-36.28
-35.2259
-34.4835
-34.1472
-34.2605
-34.7769
-35.6001
-36.6019
-37.6273
-38.4818
-38.9483
-38.8459
-38.1702
-37.0924
-35.8176
-34.5242
-33.3463
-32.3868
-31.7186
-31.3818
-31.3806
-31.7786
-32.6971
-34.1896
-36.1548
-38.295
-43.6972
-45.5765
-46.1792
-45.3342
-43.7033
-41.9099
-40.4689
-39.7338
-39.9341
-40.9303
-42.5216
-44.4854
-46.5885
-48.471
-49.6386
-49.5043
-48.0694
-45.9251
-43.563
-41.3359
-39.4625
-38.1461
-37.5671
-37.8668
-38.8947
-40.4629
-42.3645
-44.3829
-46.1797
-47.2908
-47.1647
-45.8054
-43.7732
-41.5335
-39.4201
-37.6401
-36.386
-35.8287
-36.102
-37.0632
-38.5336
-40.3172
-42.2085
-43.8878
-44.9174
-44.7786
-43.4771
-41.5436
-39.4181
-37.4155
-35.7308
-34.5455
-34.0207
-34.2832
-35.1978
-36.5959
-38.2922
-40.0926
-41.694
-42.6811
-42.5608
-41.3377
-39.5144
-37.5082
-35.618
-34.0294
-32.9157
-32.431
-32.697
-33.5866
-34.9411
-36.5855
-38.3354
-39.9005
-40.8787
-40.7885
-39.6262
-37.8641
-35.8911
-33.9765
-32.2722
-30.9028
-29.9577
-29.4796
-29.3123
-29.5511
-30.587
-32.6639
-35.727
-39.2809
-45.8209
-49.8258
-50.7872
-48.3375
-44.8499
-41.3575
-38.6469
-37.1498
-37.5613
-39.1809
-41.6561
-44.6759
-48.1296
-51.5452
-54.1388
-53.9719
-51.0444
-47.3124
-43.551
-40.2248
-37.415
-35.3902
-34.422
-35.1076
-36.8345
-39.3129
-42.2674
-45.6058
-48.8826
-51.3637
-51.225
-48.4718
-44.954
-41.4058
-38.2657
-35.6113
-33.6966
-32.78
-33.4275
-35.0579
-37.3962
-40.1806
-43.3229
-46.4004
-48.7206
-48.5663
-45.9452
-42.6083
-39.2489
-36.2792
-33.7713
-31.9641
-31.1018
-31.7202
-33.2694
-35.49
-38.1351
-41.122
-44.0515
-46.2664
-46.1346
-43.6624
-40.5087
-37.3313
-34.5217
-32.1492
-30.442
-29.6337
-30.2353
-31.7269
-33.8646
-36.417
-39.3098
-42.1644
-44.3474
-44.2751
-41.9457
-38.9397
-35.8804
-33.126
-30.7157
-28.808
-27.5242
-27.1299
-26.6594
-26.1757
-26.978
-29.7181
-34.5926
-40.983
-47.3493
-58.4884
-60.3851
-52.8686
-45.9824
-39.6683
-35.0753
-31.8174
-33.4486
-36.1995
-40.0059
-44.2414
-49.7256
-55.803
-62.614
-62.4145
-55.178
-48.742
-42.9124
-38.3701
-34.237
-31.1126
-28.8957
-30.8489
-33.692
-37.4775
-41.6173
-46.9173
-52.7313
-59.2093
-59.05
-52.2391
-46.1786
-40.6903
-36.4118
-32.5172
-29.5701
-27.479
-29.3376
-32.0332
-35.6166
-39.5286
-44.5304
-50.0032
-56.0873
-55.906
-49.4443
-43.7052
-38.5184
-34.4778
-30.8027
-28.022
-26.0509
-27.8166
-30.3741
-33.7731
-37.4855
-42.2343
-47.438
-53.2311
-53.0787
-46.9682
-41.5369
-36.6249
-32.7961
-29.3107
-26.6739
-24.8061
-26.4922
-28.9369
-32.1907
-35.7585
-40.3393
-45.3952
-51.0636
-51.0121
-45.2395
-40.092
-35.4307
-31.7798
-28.4356
-25.8149
-23.8099
-24.8897
-24.0254
-20.9485
-20.5786
-23.6987
-31.2752
-44.116
-40.8764
-80.3828
-83.8127
-56.7716
-46.3328
-35.4983
-29.5814
-19.445
-27.7238
-31.6981
-37.7375
-42.0084
-50.4672
-59.0041
-81.1841
-80.9905
-58.1587
-49.2985
-40.4202
-35.9259
-29.6066
-25.5283
-17.3641
-25.3089
-29.1926
-35.1319
-39.2967
-47.4886
-55.6237
-76.6125
-76.4535
-54.9259
-46.5792
-38.2328
-34.005
-28.0589
-24.2108
-16.4904
-24.0425
-27.7301
-33.3639
-37.3074
-45.0597
-52.7259
-72.4762
-72.2896
-51.9029
-44.0069
-36.1372
-32.1503
-26.5461
-22.9142
-15.6191
-22.7728
-26.267
-31.6051
-35.3433
-42.6916
-49.9757
-68.7571
-68.6026
-49.2961
-41.8175
-34.3583
-30.5762
-25.2503
-21.7985
-14.8608
-21.6568
-24.9817
-30.0648
-33.6413
-40.6846
-47.7442
-66.0164
-65.9875
-47.6331
-40.5441
-33.5262
-29.992
-25.1137
-21.935
-15.6536
-25.4491
-24.5776
-11.8233
-9.15339
-11.2623
-20.377
-50.2251
-36.7026
-36.8054
-36.8795
-36.9196
-36.9239
-36.8941
-36.8352
-36.7538
-36.6582
-36.5569
-36.4583
-36.3697
-36.2975
-36.2466
-36.2203
-36.7225
-36.834
-36.9136
-36.9554
-36.9579
-36.9234
-36.8575
-36.768
-36.6639
-36.5543
-36.4482
-36.3533
-36.2762
-36.222
-36.194
-36.7647
-36.8946
-36.9854
-37.0305
-37.0288
-36.984
-36.9035
-36.7969
-36.675
-36.5483
-36.4268
-36.3191
-36.2321
-36.1711
-36.1398
-36.8343
-36.9942
-37.1028
-37.1524
-37.1429
-37.0804
-36.9756
-36.8412
-36.6908
-36.5372
-36.3918
-36.2641
-36.1619
-36.0907
-36.0542
-36.9402
-37.1453
-37.2793
-37.3334
-37.3099
-37.2192
-37.0772
-36.9015
-36.7098
-36.5178
-36.3389
-36.1838
-36.0607
-35.9755
-35.932
-37.0969
-37.3673
-37.5356
-37.5922
-37.544
-37.4093
-37.2123
-36.9779
-36.7291
-36.4854
-36.2622
-36.0714
-35.9216
-35.8187
-35.7664
-37.3276
-37.6915
-37.9037
-37.9557
-37.8645
-37.6619
-37.3849
-37.0688
-36.7434
-36.4324
-36.1531
-35.918
-35.7356
-35.6113
-35.5484
-37.6703
-38.1674
-38.4321
-38.4626
-38.2963
-37.9887
-37.5966
-37.1688
-36.7434
-36.3476
-35.9998
-35.7119
-35.4914
-35.3425
-35.2676
-38.189
-38.8756
-39.1946
-39.1662
-38.8695
-38.4001
-37.8438
-37.2666
-36.7139
-36.2148
-35.7865
-35.4386
-35.1756
-34.9998
-34.9118
-38.9958
-39.9513
-40.3046
-40.1381
-39.6154
-38.8984
-38.1121
-37.3398
-36.6307
-36.0111
-35.493
-35.0802
-34.7728
-34.5692
-34.4679
-40.2995
-41.6292
-41.9343
-41.4664
-40.5555
-39.4659
-38.3665
-37.3497
-36.458
-35.706
-35.094
-34.6164
-34.2661
-34.0364
-33.9228
-42.5216
-44.3317
-44.3369
-43.2376
-41.6745
-40.0432
-38.5384
-37.2344
-36.1457
-35.2609
-34.5607
-34.0255
-33.6386
-33.3876
-33.2641
-46.6013
-48.839
-47.8441
-45.4727
-42.8615
-40.494
-38.5093
-36.9039
-35.6293
-34.6312
-33.8624
-33.2861
-32.8753
-32.6112
-32.4819
-54.9194
-56.579
-52.7278
-47.9476
-43.8047
-40.5622
-38.101
-36.2426
-34.8366
-33.7721
-32.9716
-32.3814
-31.9654
-31.6999
-31.5705
-74.507
-69.8299
-58.5404
-49.7853
-43.8473
-39.8492
-37.0898
-35.129
-33.7023
-32.6492
-31.8703
-31.3024
-30.905
-30.6524
-30.5297
-22.8519
-22.8843
-22.9505
-23.0535
-23.1987
-23.3948
-23.6564
-24.0082
-24.4946
-25.2005
-26.301
-28.1835
-31.7425
-38.8996
-51.6092
-21.898
-21.9166
-21.9542
-22.0118
-22.0911
-22.1953
-22.3297
-22.5042
-22.7388
-23.0776
-23.6304
-24.7128
-27.416
-36.4242
-77.5287
-20.9312
-20.9357
-20.944
-20.955
-20.9665
-20.9751
-20.9752
-20.9584
-20.9103
-20.8053
-20.5875
-20.0854
-18.5326
-11.6438
25.3026
-19.9613
-19.9521
-19.9322
-19.8981
-19.8441
-19.7608
-19.6328
-19.4345
-19.1213
-18.6114
-17.7427
-16.175
-13.1935
-7.71818
-3.92559
-18.9979
-18.9761
-18.9301
-18.855
-18.7423
-18.5778
-18.3394
-17.9903
-17.4687
-16.6666
-15.387
-13.2597
-9.55827
-2.60643
13.4795
-18.0497
-18.0168
-17.9484
-17.8383
-17.6764
-17.4465
-17.123
-16.6659
-16.0107
-15.0526
-13.6201
-11.4447
-8.18168
-3.83157
-1.9699
-17.1242
-17.0823
-16.9956
-16.8576
-16.6579
-16.3802
-15.9997
-15.4792
-14.7631
-13.7673
-12.368
-10.3867
-7.56102
-3.32733
4.93912
-16.2279
-16.179
-16.0783
-15.9199
-15.6938
-15.3854
-14.9737
-14.4287
-13.7097
-12.7621
-11.5196
-9.91512
-7.91846
-5.62333
-3.47603
-15.3655
-15.3116
-15.2013
-15.0291
-14.7869
-14.4626
-14.0403
-13.4993
-12.815
-11.9618
-10.9224
-9.71593
-8.48334
-7.8165
-10.3994
-14.5406
-14.4835
-14.3671
-14.1871
-13.937
-13.608
-13.1894
-12.6695
-12.0379
-11.2908
-10.4412
-9.53487
-8.65542
-7.75276
-5.03881
-13.7554
-13.6965
-13.5771
-13.3938
-13.142
-12.8157
-12.409
-11.9174
-11.3411
-10.6912
-9.99949
-9.33516
-8.8437
-8.94671
-11.8699
-13.011
-12.9516
-12.8314
-12.6481
-12.3986
-12.0793
-11.6877
-11.2242
-10.6955
-10.1207
-9.53881
-9.01547
-8.6192
-8.18208
-5.54538
-12.308
-12.2488
-12.1295
-11.9485
-11.7037
-11.3931
-11.0164
-10.5762
-10.082
-9.55514
-9.03754
-8.6076
-8.42314
-8.94483
-12.5746
-11.646
-11.5877
-11.4706
-11.2932
-11.0544
-10.753
-10.3891
-9.96577
-9.49128
-8.9832
-8.47543
-8.02929
-7.73676
-7.54913
-5.41605
-11.0245
-10.9676
-10.8533
-10.6807
-10.4486
-10.1561
-9.8031
-9.39092
-8.92389
-8.41108
-7.87054
-7.34436
-6.97755
-7.50441
-13.4841
-10.4425
-10.3874
-10.2766
-10.1095
-9.88479
-9.60141
-9.25819
-8.85417
-8.38831
-7.85824
-7.25571
-6.54877
-5.59778
-3.67294
3.66091
-9.89884
-9.84573
-9.7391
-9.57816
-9.36173
-9.08824
-8.75552
-8.36037
-7.89732
-7.35575
-6.71339
-5.92267
-4.89431
-3.59772
-3.46654
-9.39204
-9.34125
-9.23929
-9.08539
-8.87831
-8.6162
-8.2962
-7.91373
-7.46087
-6.92327
-6.27411
-5.46163
-4.37711
-2.71316
1.03092
-8.92052
-8.87231
-8.77557
-8.62956
-8.43312
-8.18435
-7.88028
-7.51599
-7.08327
-6.56828
-5.94825
-5.18951
-4.26231
-3.27312
-3.40521
-8.48248
-8.43709
-8.34605
-8.20877
-8.02426
-7.79093
-7.50618
-7.16577
-6.76282
-6.28623
-5.71872
-5.0344
-4.19057
-3.05441
-0.753743
-8.07597
-8.03358
-7.94864
-7.82077
-7.64932
-7.43323
-7.17073
-6.859
-6.49352
-6.06733
-5.57033
-4.99008
-4.32184
-3.64437
-3.68372
-7.6989
-7.65964
-7.58105
-7.46304
-7.3054
-7.10775
-6.86948
-6.58956
-6.26639
-5.8976
-5.47978
-5.00686
-4.45952
-3.73653
-2.21524
-7.34911
-7.313
-7.24085
-7.13285
-6.98926
-6.81049
-6.59716
-6.35016
-6.07094
-5.76195
-5.42749
-5.07534
-4.7192
-4.38304
-4.1159
-7.0244
-6.99139
-6.92556
-6.82737
-6.69755
-6.53725
-6.34822
-6.13314
-5.89618
-5.64398
-5.38751
-5.1466
-4.96503
-4.9816
-5.83093
-6.72263
-6.69257
-6.63276
-6.54387
-6.42703
-6.28397
-6.11739
-5.93133
-5.73202
-5.52898
-5.33675
-5.17665
-5.07328
-5.00182
-4.45315
-6.44174
-6.41442
-6.36016
-6.2798
-6.17471
-6.04705
-5.90008
-5.73873
-5.57046
-5.4065
-5.26368
-5.16731
-5.15937
-5.35343
-6.37677
-6.17983
-6.15498
-6.10571
-6.03291
-5.93808
-5.82354
-5.69276
-5.55096
-5.40592
-5.26933
-5.15838
-5.09658
-5.1052
-5.12911
-4.50043
-5.93519
-5.91252
-5.8676
-5.80132
-5.71514
-5.61131
-5.49311
-5.36544
-5.23553
-5.11437
-5.01895
-4.97694
-5.04045
-5.35795
-6.6979
-5.70629
-5.68551
-5.64433
-5.58355
-5.50449
-5.40906
-5.30006
-5.18147
-5.05908
-4.94155
-4.84244
-4.78405
-4.79931
-4.87674
-4.33607
-5.49184
-5.47268
-5.43468
-5.3785
-5.3052
-5.21625
-5.11367
-5.00016
-4.87928
-4.75594
-4.63768
-4.54002
-4.51501
-4.82475
-7.08835
-5.29071
-5.27295
-5.23766
-5.18536
-5.11678
-5.03291
-4.93489
-4.82396
-4.70119
-4.56682
-4.41861
-4.24556
-3.99825
-3.41588
-0.900858
-5.10193
-5.08538
-5.05247
-5.00353
-4.93901
-4.8594
-4.76508
-4.65601
-4.53116
-4.38733
-4.2168
-4.00269
-3.71419
-3.34911
-3.47831
-4.92464
-4.9092
-4.87842
-4.83252
-4.77171
-4.69612
-4.60553
-4.49904
-4.37432
-4.22638
-4.04528
-3.81148
-3.48333
-2.93907
-1.56668
-4.75809
-4.74367
-4.71489
-4.67188
-4.6147
-4.54326
-4.45704
-4.35474
-4.2336
-4.08847
-3.91038
-3.6858
-3.40256
-3.10409
-3.28055
-4.60157
-4.58812
-4.56126
-4.52109
-4.4676
-4.40066
-4.31972
-4.22352
-4.10958
-3.97345
-3.80778
-3.60088
-3.33239
-2.93928
-2.02883
-4.4544
-4.44188
-4.4169
-4.37954
-4.32986
-4.2678
-4.19301
-4.10464
-4.00096
-3.87897
-3.73381
-3.55873
-3.34876
-3.13371
-3.23275
-4.31593
-4.3043
-4.28114
-4.24656
-4.20073
-4.14379
-4.07575
-3.99639
-3.90508
-3.80058
-3.68064
-3.54083
-3.36867
-3.11001
-2.46144
-4.18554
-4.17476
-4.15331
-4.1214
-4.07933
-4.0275
-3.96637
-3.89645
-3.81836
-3.73292
-3.64128
-3.54541
-3.44866
-3.35705
-3.28349
-4.06265
-4.05264
-4.03275
-4.0033
-3.96472
-3.91769
-3.86309
-3.80218
-3.73677
-3.66956
-3.60489
-3.5506
-3.5251
-3.59153
-4.05436
-3.94672
-3.93737
-3.91886
-3.89154
-3.856
-3.81313
-3.7642
-3.71106
-3.65644
-3.60446
-3.56128
-3.53582
-3.53772
-3.55071
-3.31442
-3.83729
-3.82849
-3.81109
-3.78549
-3.75239
-3.7128
-3.66824
-3.62096
-3.5743
-3.53327
-3.50539
-3.50204
-3.54266
-3.68296
-4.24238
-3.73399
-3.72559
-3.70901
-3.68467
-3.65328
-3.61592
-3.57419
-3.53045
-3.48826
-3.45294
-3.43246
-3.43775
-3.47839
-3.52413
-3.22588
-3.63652
-3.62839
-3.61233
-3.58875
-3.55833
-3.52209
-3.48153
-3.43888
-3.39744
-3.36233
-3.34164
-3.34893
-3.41059
-3.60415
-4.335
-3.54471
-3.53671
-3.52088
-3.49759
-3.46743
-3.43127
-3.39035
-3.34646
-3.30224
-3.26172
-3.23141
-3.22235
-3.25121
-3.31104
-3.039
-3.45846
-3.45047
-3.43462
-3.41122
-3.38071
-3.34376
-3.30123
-3.25429
-3.20449
-3.15403
-3.10643
-3.06945
-3.07032
-3.24836
-4.46653
-3.37778
-3.36969
-3.35362
-3.32978
-3.29848
-3.26013
-3.21519
-3.1641
-3.10721
-3.04436
-2.97409
-2.89028
-2.76641
-2.46336
-1.12808
-3.30272
-3.29446
-3.27802
-3.25353
-3.22116
-3.1811
-3.13341
-3.07797
-3.01406
-2.93986
-2.85116
-2.73893
-2.58695
-2.39515
-2.47408
-3.2334
-3.22493
-3.20802
-3.18275
-3.1492
-3.10735
-3.05704
-2.99771
-2.92806
-2.84544
-2.74459
-2.6152
-2.43516
-2.13891
-1.39468
-3.16998
-3.16125
-3.14383
-3.11774
-3.083
-3.0395
-2.98695
-2.92462
-2.85109
-2.76368
-2.65783
-2.52666
-2.36408
-2.19374
-2.27849
-3.11262
-3.10363
-3.08567
-3.05875
-3.02288
-2.97795
-2.92365
-2.85933
-2.78376
-2.69474
-2.58868
-2.45993
-2.29839
-2.07142
-1.57089
-3.06152
-3.05225
-3.03373
-3.00599
-2.96907
-2.9229
-2.86731
-2.80187
-2.72577
-2.63763
-2.5353
-2.41596
-2.27816
-2.13904
-2.16578
-3.01686
-3.00729
-2.98819
-2.95963
-2.92168
-2.8744
-2.81782
-2.75182
-2.67615
-2.59038
-2.49375
-2.38482
-2.25887
-2.09145
-1.73457
-2.97886
-2.96897
-2.94924
-2.91979
-2.88077
-2.83239
-2.77487
-2.70848
-2.63357
-2.55067
-2.46073
-2.36552
-2.26837
-2.17541
-2.10005
-2.94773
-2.93748
-2.91704
-2.88659
-2.84637
-2.79672
-2.73808
-2.67106
-2.59654
-2.51587
-2.43139
-2.34758
-2.27497
-2.24714
-2.41312
-2.92374
-2.91306
-2.89181
-2.86019
-2.81853
-2.7673
-2.70712
-2.63887
-2.56378
-2.48372
-2.40158
-2.32186
-2.25049
-2.18425
-2.01728
-2.90717
-2.896
-2.87378
-2.84077
-2.79735
-2.7441
-2.68178
-2.61142
-2.53449
-2.45304
-2.37009
-2.29036
-2.22245
-2.19129
-2.32951
-2.89836
-2.88661
-2.86325
-2.82857
-2.78301
-2.72721
-2.66201
-2.58855
-2.50834
-2.42339
-2.33637
-2.25066
-2.1689
-2.08071
-1.86991
-2.89771
-2.88529
-2.86059
-2.82394
-2.7758
-2.71685
-2.64799
-2.57038
-2.4855
-2.39519
-2.30175
-2.20822
-2.11981
-2.05526
-2.13159
-2.9057
-2.8925
-2.86625
-2.82728
-2.77609
-2.71337
-2.64005
-2.55726
-2.46642
-2.36915
-2.26722
-2.16222
-2.05417
-1.93195
-1.70057
-2.92286
-2.90877
-2.88075
-2.83912
-2.78439
-2.71727
-2.63868
-2.54975
-2.45182
-2.34637
-2.23482
-2.11834
-1.99839
-1.88444
-1.85444
-2.94982
-2.93472
-2.9047
-2.86006
-2.80131
-2.72915
-2.64449
-2.54848
-2.44245
-2.32783
-2.20585
-2.07687
-1.93846
-1.7786
-1.54004
-2.98726
-2.97105
-2.9388
-2.8908
-2.82755
-2.74971
-2.6582
-2.55418
-2.43905
-2.3144
-2.18176
-2.04194
-1.89343
-1.7274
-1.50729
-3.03595
-3.01854
-2.98384
-2.93215
-2.86391
-2.77977
-2.6806
-2.56759
-2.44226
-2.30653
-2.16265
-2.01306
-1.86058
-1.71374
-1.63328
-3.09675
-3.07802
-3.04069
-2.985
-2.91133
-2.82026
-2.71262
-2.58956
-2.45271
-2.30433
-2.14752
-1.98618
-1.8238
-1.65398
-1.39171
-3.17055
-3.15044
-3.1103
-3.05033
-2.97083
-2.87228
-2.75535
-2.62111
-2.47115
-2.30799
-2.13554
-1.96003
-1.79221
-1.6584
-1.68134
-3.25832
-3.23676
-3.19369
-3.12923
-3.04358
-2.93705
-2.81011
-2.66357
-2.49878
-2.31811
-2.12568
-1.92854
-1.737
-1.55395
-1.27347
-3.36107
-3.33802
-3.29193
-3.22285
-3.13084
-3.01599
-2.87849
-2.71871
-2.53744
-2.33639
-2.11911
-1.89316
-1.6759
-1.51716
-1.61378
-3.47984
-3.45528
-3.40615
-3.3324
-3.23395
-3.11067
-2.96235
-2.78878
-2.58985
-2.36594
-2.11857
-1.85175
-1.57416
-1.30302
-1.07814
-3.61567
-3.58961
-3.53746
-3.4591
-3.35432
-3.22273
-3.06375
-2.87645
-2.65962
-2.41178
-2.13153
-1.81782
-1.46796
-1.05675
-0.386289
-3.76959
-3.74207
-3.68698
-3.60416
-3.4933
-3.35383
-3.18481
-2.98465
-2.75093
-2.48014
-2.16773
-1.80899
-1.40435
-0.99052
-0.859893
-3.94262
-3.91369
-3.85577
-3.76869
-3.65214
-3.50547
-3.32749
-3.11615
-2.86797
-2.57742
-2.2361
-1.83205
-1.34713
-0.727609
0.388354
-4.13575
-4.10544
-4.04479
-3.9537
-3.83191
-3.67884
-3.49336
-3.27323
-3.01445
-2.70995
-2.34802
-1.91129
-1.38339
-0.809439
-0.723159
-4.34993
-4.31827
-4.25497
-4.16003
-4.03339
-3.87474
-3.68327
-3.45717
-3.19268
-2.88235
-2.51191
-2.05383
-1.45162
-0.552602
1.36005
-4.58609
-4.55307
-4.48711
-4.38839
-4.25711
-4.09343
-3.89724
-3.66778
-3.40273
-3.09652
-2.73666
-2.29647
-1.72598
-0.999672
-0.80882
-4.8452
-4.81075
-4.74201
-4.63936
-4.50333
-4.33469
-4.13433
-3.9031
-3.64137
-3.34794
-3.01719
-2.62961
-2.10855
-1.07489
2.73523
-5.12823
-5.09223
-5.02047
-4.9135
-4.7722
-4.59798
-4.39285
-4.1596
-3.90203
-3.62527
-3.3372
-3.05543
-2.8471
-3.07819
-6.07547
-5.43627
-5.39855
-5.3234
-5.21147
-5.06395
-4.88275
-4.6709
-4.43301
-4.17602
-3.91045
-3.65284
-3.43027
-3.2805
-3.16052
-1.96689
-5.7705
-5.73086
-5.65186
-5.53418
-5.37908
-5.1888
-4.96703
-4.71968
-4.45597
-4.19009
-3.94417
-3.75454
-3.69322
-3.98843
-5.90675
-6.13227
-6.09051
-6.00719
-5.88286
-5.71865
-5.51672
-5.28093
-5.01772
-4.73742
-4.45589
-4.1964
-3.98969
-3.85836
-3.68918
-2.30137
-6.52304
-6.47902
-6.39101
-6.25924
-6.08441
-5.86816
-5.61387
-5.32763
-5.01972
-4.70638
-4.41198
-4.17251
-4.04979
-4.23619
-5.88638
-6.94439
-6.89807
-6.80522
-6.66553
-6.47892
-6.24603
-5.96899
-5.65259
-5.3058
-4.94373
-4.58942
-4.27425
-4.02655
-3.76666
-2.46317
-7.3979
-7.34944
-7.25195
-7.10441
-6.90559
-6.65456
-6.35145
-5.99864
-5.60251
-5.17569
-4.73967
-4.32914
-4.01177
-4.02187
-5.6196
-7.88507
-7.83486
-7.73345
-7.57889
-7.36851
-7.09927
-6.76843
-6.37478
-5.92053
-5.41403
-4.87223
-4.31933
-3.76959
-3.17454
-2.40069
-8.40711
-8.35585
-8.25185
-8.09214
-7.87232
-7.58675
-7.22902
-6.79299
-6.27485
-5.67687
-5.01252
-4.30732
-3.55886
-2.45138
1.35564
-8.96474
-8.91347
-8.80895
-8.64713
-8.42178
-8.12434
-7.744
-7.26823
-6.68462
-5.98581
-5.18117
-4.32534
-3.59747
-3.60289
-6.95622
-9.55797
-9.50807
-9.40584
-9.24625
-9.0213
-8.7195
-8.32525
-7.81834
-7.17441
-6.36824
-5.38538
-4.25451
-3.12686
-2.42947
-2.88478
-10.1859
-10.139
-10.0426
-9.89076
-9.67419
-9.37887
-8.98473
-8.46363
-7.77685
-6.87336
-5.69238
-4.18143
-2.35746
-0.455556
0.870498
-10.8463
-10.8044
-10.7178
-10.5802
-10.3818
-10.1069
-9.7324
-9.22396
-8.52978
-7.5712
-6.22852
-4.32574
-1.64217
1.91826
5.54666
-11.5358
-11.5009
-11.4283
-11.3121
-11.1424
-10.904
-10.5731
-10.1133
-9.46633
-8.53578
-7.15362
-5.01227
-1.53583
4.24487
12.7426
-12.2496
-12.2235
-12.169
-12.081
-11.9509
-11.7653
-11.5034
-11.1326
-10.5998
-9.81397
-8.60594
-6.62596
-3.02965
4.68466
25.8397
-146.513
-88.0377
-61.5456
-48.8874
-42.1082
-38.0601
-35.4307
-33.6185
-32.3199
-31.3686
-30.6675
-30.1571
-29.8001
-29.5733
-29.4631
-182.252
-82.3796
-54.6707
-43.9886
-38.6306
-35.4485
-33.355
-31.8887
-30.8221
-30.0307
-29.4416
-29.0093
-28.7053
-28.5114
-28.4169
46.9721
-26.6075
-35.9717
-35.3924
-33.642
-32.0808
-30.8439
-29.8814
-29.133
-28.5525
-28.1067
-27.7725
-27.5339
-27.3803
-27.3051
-7.02609
-15.4296
-24.1779
-27.6095
-28.522
-28.4879
-28.1421
-27.7253
-27.3275
-26.9806
-26.6942
-26.4692
-26.3036
-26.1949
-26.1411
25.9489
-4.01216
-16.0761
-21.576
-24.0593
-25.1116
-25.4895
-25.5561
-25.4866
-25.3668
-25.2392
-25.1247
-25.0338
-24.9714
-24.9397
-1.4072
-5.0233
-12.5329
-17.6373
-20.5904
-22.2036
-23.0533
-23.4813
-23.6805
-23.7584
-23.775
-23.7639
-23.7442
-23.7265
-23.7164
11.4914
-3.33064
-10.6598
-15.1924
-18.0521
-19.8259
-20.9098
-21.5654
-21.9588
-22.1927
-22.33
-22.4091
-22.4532
-22.4762
-22.486
-3.06046
-6.84131
-10.7289
-13.9094
-16.2677
-17.9273
-19.0636
-19.8315
-20.3477
-20.694
-20.9255
-21.0785
-21.1768
-21.2352
-21.2624
-14.9867
-10.2779
-11.289
-13.1973
-14.9686