/*--------------------------------*- C++ -*----------------------------------*\
| =========                 |                                                 |
| \\      /  F ield         | OpenFOAM: The Open Source CFD Toolbox           |
|  \\    /   O peration     | Version:  5.x                                   |
|   \\  /    A nd           | Web:      www.OpenFOAM.org                      |
|    \\/     M anipulation  |                                                 |
\*---------------------------------------------------------------------------*/
FoamFile
{
    version     2.0;
    format      ascii;
    class       volScalarField;
    location    "12.2001";
    object      gradTy;
}
// * * * * * * * * * * * * * * * * * * * * * * * * * * * * * * * * * * * * * //

dimensions      [0 -1 0 1 0 0 0];

internalField   nonuniform List<scalar> 
6300
(
32284.1
32252.2
32220.2
32188
32155.6
32122.8
32089.7
32056.2
32022.2
31987.6
31952.5
31916.8
31880.5
31843.7
31806.2
0.0533943
0.159685
0.264449
0.366553
0.464707
0.557417
0.642973
0.719457
0.784817
0.836988
0.87408
0.894629
0.897883
0.884077
0.854627
0.0895447
0.267843
0.443707
0.615314
0.780561
0.936978
1.08169
1.21143
1.32265
1.41168
1.47511
1.51018
1.51533
1.49074
1.43877
0.126486
0.378434
0.627218
0.870432
1.10524
1.32823
1.53536
1.72192
1.88263
2.01194
2.10446
2.15559
2.16244
2.12471
2.04558
0.164451
0.492185
0.816295
1.13395
1.44171
1.73533
2.00958
2.2582
2.47396
2.64893
2.77509
2.84518
2.854
2.79995
2.68662
0.203581
0.609559
1.01182
1.40735
1.79231
2.16177
2.50939
2.82729
3.10598
3.33463
3.50166
3.59588
3.60825
3.53428
3.37686
0.243895
0.730644
1.21407
1.69129
2.15839
2.61
3.03886
3.4355
3.78794
4.08182
4.30088
4.42824
4.44863
4.35183
4.13743
0.285246
0.855043
1.42252
1.98534
2.53993
3.08091
3.60049
4.08779
4.52833
4.90366
5.19161
5.36737
5.40599
5.28679
5.00046
0.327291
0.981755
1.63561
2.28759
2.93503
3.57317
4.1943
4.78674
5.33377
5.8127
6.19434
6.44349
6.52109
6.38885
6.01796
0.369452
1.10907
1.85057
2.59434
3.33937
4.08237
4.81669
5.53094
6.20715
6.81889
7.32947
7.69119
7.84624
7.73
7.27716
0.410898
1.23448
2.06322
2.89982
3.74569
4.60015
5.45906
6.31305
7.14488
7.92614
8.61355
9.14596
9.44359
9.40933
8.92468
0.450555
1.35473
2.268
3.19597
4.14338
5.11339
6.10624
7.11719
8.13309
9.1273
10.053
10.8366
11.3752
11.5434
11.1886
0.487138
1.46589
2.45807
3.47264
4.51843
5.6037
6.73522
7.9163
9.14298
10.3972
11.6355
12.7744
13.6823
14.2117
14.3128
0.519247
1.5636
2.62573
3.71808
4.85395
6.04769
7.31456
8.66974
10.1254
11.6833
13.3185
14.9467
16.3783
17.3354
17.9781
0.545491
1.64354
2.76317
3.91998
5.13157
6.41851
7.80553
9.32265
11.0056
12.8926
15.0099
17.3204
19.5664
20.8326
18.6414
31771.3
31739.2
31706.8
31674
31640.9
31607.5
31573.9
31540
31505.8
31471.5
31437
31402.3
31367.5
31332.6
31297.6
31262.5
31227.4
31192.3
31157.2
31122.1
31087
31052
31017
30982.1
30947.2
30912.3
30877.5
30842.8
30808.1
30773.5
30738.9
30704.5
30670.1
30635.8
30601.7
30567.6
30533.7
30499.9
30466.1
30432.5
30399
30365.5
30332.1
30298.9
30265.7
30232.6
30199.6
30166.8
30134
30101.4
30068.9
30036.5
30004.2
29972
29940
29908
29876.1
29844.2
29812.5
29780.9
29749.3
29717.9
29686.5
29655.3
29624.1
29593.1
29562.1
29531.3
29500.5
29469.8
29439.2
29408.6
29378.1
29347.7
29317.3
29287
29256.7
29226.6
29196.4
29166.3
29136.3
29106.3
29076.3
29046.3
29016.2
28986.1
28955.9
28925.7
28895.3
28864.9
0.815681
0.773479
0.726757
0.677726
0.628232
0.579513
0.532061
0.48565
0.439506
0.392602
0.344001
0.293182
0.240276
0.186166
0.132421
0.0810768
0.0343019
-0.00598118
-0.0384447
-0.0626033
-0.0789168
-0.0887324
-0.09408
-0.097357
-0.100955
-0.10689
-0.116487
-0.13019
-0.147503
-0.167104
-0.187096
-0.205359
-0.219948
-0.229441
-0.233193
-0.231446
-0.225283
-0.216439
-0.207008
-0.19909
-0.194442
-0.194185
-0.198615
-0.207158
-0.218473
-0.230688
-0.241735
-0.24972
-0.253258
-0.251703
-0.245259
-0.234927
-0.222327
-0.209423
-0.198184
-0.190253
-0.186673
-0.187705
-0.192784
-0.200618
-0.209413
-0.217187
-0.222124
-0.222886
-0.21884
-0.210148
-0.197727
-0.183069
-0.167977
-0.154237
-0.143297
-0.135994
-0.132377
-0.13166
-0.132305
-0.132246
-0.129199
-0.121023
-0.106059
-0.083405
-0.0530904
-0.0161282
0.0255431
0.0692218
0.111691
0.149534
0.179488
0.198817
0.205647
0.19921
1.37026
1.2963
1.21492
1.13027
1.04582
0.963836
0.885108
0.808979
0.733697
0.657004
0.576823
0.491909
0.402325
0.309646
0.216836
0.127818
0.0468079
-0.0224383
-0.0773139
-0.116847
-0.141896
-0.15503
-0.160134
-0.161795
-0.164591
-0.172372
-0.187665
-0.211287
-0.24224
-0.27792
-0.314599
-0.348127
-0.374699
-0.391544
-0.397412
-0.39278
-0.379752
-0.361688
-0.342634
-0.326647
-0.31712
-0.316218
-0.324511
-0.340881
-0.362711
-0.386349
-0.407766
-0.423277
-0.430194
-0.427283
-0.414953
-0.395156
-0.371041
-0.346407
-0.325063
-0.310191
-0.303808
-0.306422
-0.31694
-0.332846
-0.350647
-0.366487
-0.376839
-0.379118
-0.372116
-0.356176
-0.333102
-0.305813
-0.277824
-0.252627
-0.233066
-0.220817
-0.216043
-0.21729
-0.22165
-0.225179
-0.223503
-0.212511
-0.188999
-0.151193
-0.0990517
-0.0343582
0.0393982
0.11732
0.193544
0.261806
0.316083
0.351283
0.363886
0.352441
1.94153
1.82972
1.70769
1.58243
1.45977
1.34341
1.23437
1.13105
1.0299
0.926418
0.816455
0.697358
0.568831
0.433316
0.295796
0.163032
0.042378
-0.0595843
-0.138271
-0.191944
-0.222027
-0.232888
-0.23114
-0.224595
-0.221043
-0.227033
-0.246844
-0.281821
-0.330168
-0.387291
-0.446634
-0.500909
-0.543454
-0.569449
-0.576747
-0.566202
-0.54147
-0.508358
-0.47384
-0.444898
-0.427376
-0.425006
-0.438775
-0.466739
-0.504341
-0.545206
-0.582298
-0.609205
-0.62128
-0.616426
-0.595395
-0.561602
-0.520501
-0.47865
-0.442621
-0.417902
-0.407984
-0.413757
-0.433333
-0.462345
-0.494702
-0.523689
-0.543178
-0.548714
-0.53826
-0.512477
-0.474546
-0.429563
-0.383652
-0.342899
-0.312303
-0.294875
-0.29104
-0.298438
-0.312191
-0.325605
-0.331225
-0.322025
-0.292524
-0.239624
-0.163088
-0.0656386
0.0472555
0.167862
0.286864
0.394217
0.48015
0.536286
0.556756
0.539091
2.53744
2.37767
2.20494
2.0307
1.86452
1.71233
1.57528
1.44995
1.3294
1.20513
1.06922
0.916377
0.745395
0.559872
0.367906
0.18081
0.0110325
-0.130246
-0.235249
-0.301008
-0.329837
-0.328903
-0.309052
-0.283085
-0.263757
-0.261789
-0.284185
-0.3331
-0.405461
-0.493464
-0.585966
-0.670581
-0.736041
-0.774278
-0.781777
-0.760053
-0.715256
-0.657054
-0.597015
-0.546706
-0.515814
-0.510553
-0.532597
-0.57872
-0.641273
-0.709495
-0.771497
-0.816491
-0.836745
-0.828861
-0.794215
-0.738572
-0.671038
-0.602511
-0.543892
-0.5043
-0.489565
-0.501216
-0.536139
-0.587024
-0.643611
-0.694569
-0.729608
-0.741336
-0.726475
-0.686272
-0.626141
-0.554651
-0.48205
-0.418546
-0.372579
-0.34936
-0.349859
-0.370436
-0.403219
-0.437256
-0.460285
-0.460772
-0.429742
-0.362093
-0.257237
-0.119159
0.0440077
0.220713
0.39696
0.557472
0.687124
0.772652
0.804539
0.778661
3.16788
2.94404
2.70414
2.4671
2.24894
2.05924
1.89919
1.76184
1.63418
1.50055
1.34635
1.16149
0.942886
0.695701
0.433002
0.173647
-0.0613508
-0.253143
-0.388738
-0.463253
-0.480504
-0.452159
-0.395771
-0.332014
-0.281472
-0.261462
-0.283338
-0.350617
-0.458231
-0.59316
-0.736658
-0.867835
-0.967833
-1.02337
-1.02889
-0.987132
-0.908344
-0.808397
-0.70618
-0.620554
-0.567343
-0.556781
-0.591744
-0.667045
-0.770041
-0.88274
-0.985187
-1.0594
-1.09273
-1.07984
-1.02327
-0.932667
-0.823004
-0.712104
-0.617764
-0.554903
-0.533149
-0.555163
-0.615961
-0.703491
-0.800626
-0.888371
-0.949605
-0.972246
-0.951181
-0.888764
-0.794094
-0.681336
-0.56735
-0.468937
-0.400098
-0.36969
-0.379765
-0.424856
-0.49244
-0.564756
-0.621808
-0.644901
-0.619692
-0.538136
-0.399228
-0.208806
0.0212648
0.274226
0.529712
0.765169
0.957635
1.08626
1.1355
1.09829
3.84677
3.53324
3.19893
2.87601
2.59209
2.36318
2.19018
2.05957
1.94744
1.82549
1.66756
1.45516
1.18151
0.853859
0.493277
0.131409
-0.195951
-0.456964
-0.63018
-0.707958
-0.696827
-0.615796
-0.493103
-0.361913
-0.255223
-0.200821
-0.21711
-0.310052
-0.471667
-0.680518
-0.905092
-1.10999
-1.26365
-1.34448
-1.34407
-1.26754
-1.1319
-0.96301
-0.791452
-0.647727
-0.55746
-0.537453
-0.592804
-0.715488
-0.884839
-1.07075
-1.23953
-1.3612
-1.41526
-1.3937
-1.30133
-1.15421
-0.976753
-0.79785
-0.646305
-0.54631
-0.513709
-0.55326
-0.657287
-0.806128
-0.97116
-1.12035
-1.22517
-1.26609
-1.23543
-1.1377
-0.988094
-0.809791
-0.630222
-0.47674
-0.372275
-0.331722
-0.359246
-0.446887
-0.574847
-0.714234
-0.832229
-0.898586
-0.890782
-0.796765
-0.615398
-0.355547
-0.0344389
0.324103
0.691306
1.03477
1.32008
1.51418
1.59098
1.53765
4.59642
4.15209
3.67708
3.2285
2.85573
2.58632
2.41984
2.33048
2.27464
2.20209
2.06714
1.83694
1.49789
1.05941
0.555393
0.0394751
-0.426091
-0.787211
-1.00906
-1.08069
-1.01381
-0.839426
-0.602672
-0.356531
-0.153678
-0.0383845
-0.0405007
-0.170601
-0.417084
-0.745237
-1.10186
-1.42591
-1.66435
-1.78259
-1.76888
-1.63305
-1.40334
-1.12146
-0.836649
-0.597921
-0.4464
-0.409613
-0.496907
-0.696733
-0.97579
-1.28343
-1.56171
-1.76036
-1.84668
-1.80954
-1.65823
-1.41944
-1.13258
-0.844201
-0.600612
-0.440669
-0.390372
-0.45851
-0.634079
-0.885447
-1.16451
-1.41621
-1.59277
-1.66301
-1.61628
-1.46131
-1.22342
-0.940065
-0.65553
-0.413957
-0.252419
-0.195723
-0.252157
-0.410857
-0.640797
-0.894518
-1.11701
-1.25906
-1.28602
-1.18118
-0.944584
-0.590498
-0.144046
0.361507
0.88708
1.38814
1.81386
2.111
2.23383
2.1574
5.45696
4.81509
4.11713
3.47179
2.97042
2.66102
2.53817
2.55288
2.6257
2.66839
2.60377
2.37541
1.95738
1.35932
0.63463
-0.124973
-0.806638
-1.31802
-1.60423
-1.65289
-1.48559
-1.15287
-0.725757
-0.288814
0.0739499
0.293121
0.320404
0.136441
-0.244895
-0.768956
-1.34554
-1.86514
-2.23811
-2.4107
-2.36956
-2.13376
-1.74992
-1.28414
-0.815482
-0.42254
-0.170125
-0.103096
-0.238963
-0.563886
-1.02559
-1.53838
-1.99853
-2.3213
-2.45589
-2.38979
-2.1411
-1.75387
-1.29061
-0.82605
-0.434468
-0.177139
-0.0964852
-0.209059
-0.501721
-0.92489
-1.39725
-1.82029
-2.11345
-2.22837
-2.15299
-1.90434
-1.52422
-1.07204
-0.618968
-0.235924
0.0184099
0.103186
0.00219695
-0.272239
-0.672504
-1.11977
-1.5176
-1.78529
-1.87104
-1.7553
-1.44296
-0.958454
-0.338757
0.370082
1.11816
1.84998
2.4928
2.95884
3.16363
3.05465
6.50811
5.55916
4.48162
3.50808
2.80916
2.46717
2.45831
2.69138
3.01995
3.28907
3.37604
3.1869
2.67608
1.84155
0.764118
-0.401661
-1.4324
-2.17305
-2.54151
-2.53606
-2.19556
-1.60226
-0.862994
-0.11428
0.50835
0.900947
0.9855
0.727701
0.132815
-0.71704
-1.6713
-2.51548
-3.10045
-3.34657
-3.25054
-2.84765
-2.21448
-1.45095
-0.685289
-0.0448028
0.373104
0.495592
0.291218
-0.234081
-1.00181
-1.86914
-2.63321
-3.15319
-3.35408
-3.233
-2.82344
-2.19779
-1.45052
-0.702807
-0.0749962
0.340802
0.475649
0.299722
-0.181435
-0.893498
-1.701
-2.41139
-2.8908
-3.06775
-2.9392
-2.53667
-1.92878
-1.20528
-0.48157
0.127454
0.533404
0.669597
0.506316
0.047573
-0.63652
-1.41622
-2.10561
-2.5735
-2.7462
-2.61254
-2.18927
-1.52108
-0.661831
0.322156
1.37266
2.43996
3.42633
4.18286
4.54527
4.39405
7.92162
6.48954
4.69623
3.14881
2.13511
1.79447
2.03028
2.6923
3.49967
4.17189
4.54579
4.46151
3.86086
2.67352
1.0208
-0.872813
-2.47591
-3.56406
-4.01719
-3.90173
-3.26954
-2.26186
-1.01383
0.241815
1.274
1.95235
2.14358
1.80436
0.877679
-0.514784
-2.15556
-3.53911
-4.45074
-4.77512
-4.5734
-3.89317
-2.86675
-1.62085
-0.37484
0.653446
1.34174
1.56496
1.28353
0.444821
-0.834605
-2.34859
-3.61939
-4.44457
-4.71591
-4.49162
-3.81693
-2.81686
-1.61108
-0.406895
0.589773
1.26331
1.4953
1.24804
0.471357
-0.724668
-2.14461
-3.33509
-4.10368
-4.34706
-4.11995
-3.46472
-2.49983
-1.33884
-0.179017
0.783259
1.43685
1.66725
1.4359
0.691891
-0.462862
-1.84271
-3.0126
-3.78676
-4.0625
-3.88683
-3.28825
-2.35882
-1.16453
0.178454
1.60296
3.14646
4.69085
5.9744
6.66654
6.47711
10.0944
7.94653
4.55577
2.01565
0.491871
0.293133
0.989372
2.48422
4.17405
5.48419
6.37525
6.47962
5.89043
4.17561
1.62434
-1.76233
-4.26094
-5.86948
-6.31166
-6.0115
-4.88422
-3.26758
-1.17563
0.919696
2.54915
3.70522
4.06551
3.72698
2.29326
0.0450405
-3.01023
-5.24231
-6.64665
-6.96128
-6.5853
-5.43719
-3.83509
-1.79091
0.249128
1.84129
2.98006
3.36102
3.07832
1.75836
-0.329642
-3.17822
-5.24725
-6.53348
-6.79143
-6.39884
-5.27894
-3.73217
-1.76934
0.187844
1.71984
2.82167
3.20506
2.95871
1.72801
-0.233399
-2.91864
-4.86631
-6.07287
-6.30388
-5.9172
-4.83867
-3.35324
-1.47072
0.408006
1.88357
2.94969
3.32984
3.10372
1.92768
0.0349347
-2.57153
-4.48942
-5.71777
-6.02884
-5.77009
-4.86365
-3.57797
-1.88135
-0.08264
1.66191
3.85169
6.33098
8.61759
10.0573
9.9194
13.9687
11.2381
3.20879
-0.600158
-3.06988
-2.49934
-1.20183
1.99535
5.39516
7.39994
9.33745
9.49638
9.54083
6.88214
3.43083
-3.93065
-7.32769
-9.85448
-9.6751
-9.31231
-7.20356
-4.95778
-1.34227
2.26843
4.50596
6.60401
6.99374
7.22664
4.88174
1.76702
-5.05032
-8.13744
-10.4117
-10.1419
-9.70908
-7.63497
-5.44001
-1.955
1.51804
3.68199
5.70964
6.11277
6.36674
4.17786
1.27056
-5.13041
-8.00232
-10.1031
-9.80372
-9.35338
-7.35565
-5.24661
-1.91945
1.39485
3.46936
5.41458
5.82165
6.08686
4.03687
1.30019
-4.75476
-7.46472
-9.44686
-9.15014
-8.71071
-6.79857
-4.77846
-1.59712
1.57558
3.57349
5.45033
5.86544
6.13944
4.19552
1.5605
-4.29192
-6.95915
-8.96968
-8.8157
-8.58605
-6.98513
-5.3889
-2.74515
-0.265754
1.07975
4.14001
8.24857
12.4804
15.7196
16.1903
21.4809
22.4169
-3.98327
-5.10437
-11.0116
-6.34008
-6.12898
1.21449
8.62501
9.41243
14.8607
12.6779
17.0837
10.73
10.8679
-11.8078
-11.6476
-17.7363
-13.3027
-15.1273
-9.72022
-8.62038
-1.502
5.59453
6.66362
11.9628
10.1478
14.4384
8.57873
8.82077
-12.4619
-12.203
-17.8404
-13.5573
-15.1963
-10.0068
-8.90261
-2.10188
4.67204
5.71896
10.7785
9.07929
13.1729
7.63189
7.90162
-12.1644
-11.8678
-17.1292
-13.0333
-14.5361
-9.59264
-8.51516
-2.05103
4.38713
5.40506
10.2224
8.64251
12.5489
7.33455
7.61209
-11.4077
-11.1112
-16.1024
-12.2019
-13.6249
-8.91394
-7.87587
-1.71106
4.43484
5.43776
10.0559
8.60422
12.369
7.45855
7.71911
-10.599
-10.3745
-15.3385
-11.7115
-13.3767
-9.09984
-8.70826
-3.37228
1.18394
-1.97167
2.91879
9.98866
17.7727
25.3685
29.6189
32.5621
72.9826
-47.5505
-2.69118
-34.1778
-3.75593
-21.3263
0.337286
21.3924
4.71351
31.3729
6.37212
40.1202
5.23002
51.1567
-52.5684
-6.96924
-40.7704
-7.91814
-31.3561
-6.0344
-20.9497
-1.63025
17.6002
2.72996
27.5661
4.5098
36.2664
3.48937
46.8702
-50.8935
-7.77791
-39.5545
-8.44496
-30.5165
-6.49561
-20.5683
-2.21011
16.0729
1.97774
25.5801
3.70415
33.8528
2.71848
43.8163
-48.5208
-7.72962
-37.6295
-8.20094
-29.0016
-6.26255
-19.5404
-2.14523
15.1846
1.86954
24.2424
3.56312
32.1448
2.72394
41.7121
-45.8759
-7.14342
-35.562
-7.58781
-27.3721
-5.74029
-18.3558
-1.79778
14.7
2.09612
23.4019
3.83137
31.0907
3.27537
40.631
-43.6073
-6.31866
-34.0782
-6.98666
-26.7237
-5.61982
-19.1476
-2.87657
13.7387
-16.6094
-1.44077
10.7004
23.3359
39.8347
66.3794
28831.3
28794.5
28757.6
28720.7
28683.7
28646.8
28609.9
28573.1
28536.4
28499.8
28463.3
28426.9
28390.6
28354.3
28318.1
0.178032
0.139026
0.0888195
0.0331623
-0.0220957
-0.0717995
-0.112001
-0.140168
-0.155141
-0.156948
-0.146537
-0.125516
-0.0959309
-0.0600919
-0.0204549
0.314322
0.244118
0.154085
0.0548504
-0.0429554
-0.130173
-0.199992
-0.248227
-0.273164
-0.275131
-0.255999
-0.218698
-0.166828
-0.10437
-0.0355048
0.479234
0.369038
0.228551
0.0751101
-0.0744028
-0.205947
-0.309564
-0.379587
-0.414156
-0.414413
-0.38363
-0.326449
-0.248311
-0.155057
-0.0526986
0.689042
0.524251
0.315971
0.0914418
-0.123818
-0.309648
-0.452732
-0.546398
-0.589461
-0.584737
-0.537657
-0.455158
-0.344911
-0.214849
-0.0729309
0.965877
0.722952
0.419642
0.0985046
-0.202665
-0.456095
-0.645316
-0.763813
-0.812551
-0.797416
-0.727103
-0.611615
-0.461326
-0.286497
-0.0971065
1.34119
0.982039
0.54114
0.0855997
-0.329249
-0.66675
-0.908624
-1.05099
-1.09951
-1.06527
-0.961724
-0.802873
-0.602282
-0.372705
-0.126105
1.86135
1.32287
0.67728
0.032004
-0.533181
-0.973032
-1.27144
-1.432
-1.46925
-1.40243
-1.25165
-1.03587
-0.772224
-0.475936
-0.160712
2.59701
1.77082
0.813105
-0.101682
-0.862447
-1.42075
-1.77212
-1.93631
-1.94305
-1.82357
-1.60656
-1.31674
-0.974806
-0.598103
-0.201522
3.65964
2.35028
0.906007
-0.389388
-1.39417
-2.07541
-2.45996
-2.59808
-2.54306
-2.34222
-2.03429
-1.64972
-1.21216
-0.740146
-0.248793
5.23044
3.06464
0.850035
-0.967705
-2.24944
-3.02676
-3.39424
-3.45299
-3.28888
-2.96797
-2.53866
-2.0357
-1.48395
-0.901534
-0.302296
7.60705
3.82782
0.397196
-2.08203
-3.60912
-4.38796
-4.63726
-4.53077
-4.19151
-3.7021
-3.11669
-2.47048
-1.7864
-1.07974
-0.361155
11.2403
4.2424
-1.00704
-4.14848
-5.71704
-6.27868
-6.23607
-5.8413
-5.24428
-4.53223
-3.75554
-2.94311
-2.11144
-1.26988
-0.423735
16.4715
2.90851
-4.51929
-7.78782
-8.83188
-8.77367
-8.18702
-7.3541
-6.41206
-5.42702
-4.43011
-3.43497
-2.44638
-1.46461
-0.487635
20.9231
-4.56061
-12.1908
-13.6516
-13.049
-11.7971
-10.3842
-8.97602
-7.62284
-6.33369
-5.10292
-3.92027
-2.77449
-1.65454
-0.549834
0.563648
1.69882
2.85813
4.05939
5.32331
6.67525
8.14775
9.78436
11.6452
13.8149
16.4093
19.5642
23.3076
26.8191
24.3453
0.574155
1.7307
2.91251
4.13844
5.43067
6.81702
8.33435
10.0344
11.994
14.3355
17.2683
21.1917
26.986
37.0435
59.693
0.578947
1.74504
2.93629
4.17146
5.47271
6.86786
8.39408
10.1041
12.0777
14.445
17.4372
21.5102
27.6825
38.5773
62.1297
0.578048
1.74191
2.92957
4.15861
5.44955
6.82772
8.32622
9.99075
11.888
14.1207
16.8544
20.3612
25.0453
31.1304
35.8901
0.571759
1.72227
2.89413
4.10281
5.36587
6.70407
8.14311
9.71583
11.4654
13.4485
15.7359
18.3957
21.4123
24.4098
26.0762
0.560615
1.68782
2.83313
4.00929
5.23004
6.51048
7.86723
9.31815
10.8805
12.565
14.3596
16.1878
17.8072
18.5845
16.9422
0.545326
1.64079
2.75072
3.88484
5.05283
6.26396
7.52606
8.84319
10.2107
11.6045
12.9592
14.125
14.7947
14.4409
12.6446
0.526699
1.58373
2.65153
3.73689
4.84572
5.98215
7.14679
8.33341
9.52273
10.671
11.6893
12.4058
12.4942
11.299
7.10721
0.505554
1.51918
2.54017
3.57268
4.61949
5.68083
6.75238
7.8219
8.86343
9.82798
10.629
11.1221
11.0853
10.2377
8.52995
0.48266
1.44953
2.42082
3.39856
4.38321
5.37248
6.3595
7.32998
8.25778
9.0987
9.78249
10.2062
10.2394
9.77378
8.88316
0.458687
1.37682
2.29699
3.21964
4.14374
5.06574
5.97821
6.86782
7.71263
8.47872
9.11682
9.56162
9.7401
9.60509
9.22492
0.434185
1.3027
2.17143
3.03974
3.90576
4.76567
5.61286
6.43687
7.2223
7.94778
8.58558
9.10213
9.45866
9.60679
9.46092
0.409583
1.22843
2.04616
2.86144
3.67203
4.47445
5.26364
6.03279
6.7737
7.47786
8.13868
8.75392
9.3221
9.81285
10.0816
0.385201
1.15495
1.9226
2.68638
3.44398
4.19245
4.92835
5.64836
6.35068
7.03811
7.72355
8.43851
9.23944
10.1732
10.9679
0.361274
1.08291
1.80172
2.51563
3.22227
3.91917
4.60412
5.27624
5.93805
6.5998
7.288
8.06347
9.06463
10.6302
13.7161
0.337983
1.01283
1.68426
2.34991
3.00732
3.65418
4.28881
4.91128
5.52547
6.14316
6.79187
7.53174
8.49789
10.0316
13.1859
0.31547
0.945108
1.57081
2.18991
2.7997
3.39768
3.98196
4.55207
5.11048
5.66499
6.23245
6.84291
7.53701
8.30771
8.68875
0.293862
0.88012
1.46196
2.03636
2.60027
3.1507
3.68493
4.20099
4.69819
5.17784
5.64316
6.09601
6.52295
6.85441
6.91247
0.273271
0.818201
1.35826
1.8901
2.41021
2.91496
3.40053
3.86299
4.29808
4.70065
5.06253
5.3671
5.57521
5.59096
5.16571
0.253798
0.759662
1.26027
1.75197
2.23083
2.69253
3.13218
3.54399
3.92057
4.25169
4.52171
4.70519
4.76103
4.63376
4.31554
0.23553
0.704768
1.16848
1.62276
2.06335
2.4854
2.88316
3.24944
3.57462
3.84516
4.04097
4.13189
4.07402
3.80915
3.25548
0.218525
0.65371
1.08323
1.50306
1.90874
2.29513
2.65601
2.98342
3.26662
3.49051
3.63308
3.66192
3.53076
3.18508
2.64436
0.202815
0.606587
1.00471
1.39317
1.76751
2.12258
2.45211
2.74809
2.99981
3.19233
3.30415
3.30305
3.13647
2.69644
1.64239
0.188394
0.563383
0.932907
1.29309
1.63968
1.96777
2.2715
2.54349
2.77409
2.95019
3.05365
3.05909
2.93208
2.6342
2.18954
0.175223
0.523973
0.867585
1.20245
1.52467
1.82987
2.11292
2.36764
2.58621
2.75851
2.87119
2.9071
2.84634
2.67389
2.40014
0.163228
0.48813
0.808334
1.1206
1.4215
1.70734
1.97402
2.21689
2.43047
2.60821
2.74206
2.82225
2.83814
2.78394
2.6854
0.152314
0.455549
0.754597
1.04663
1.32878
1.59811
1.85166
2.08647
2.29962
2.48838
2.65017
2.78206
2.87861
2.92477
2.87318
0.142366
0.425876
0.70573
0.979529
1.24495
1.49984
1.74232
1.97108
2.18571
2.38729
2.57905
2.76641
2.95408
3.13349
3.25692
0.133267
0.398742
0.661068
0.918242
1.16844
1.41018
1.64251
1.86551
2.08085
2.29301
2.51097
2.75054
3.03527
3.38107
3.67512
0.124903
0.373795
0.619982
0.861797
1.09781
1.32704
1.5492
1.76524
1.9782
2.19472
2.42788
2.70332
3.07406
3.66458
4.82709
0.117174
0.350726
0.581932
0.809376
1.0319
1.24881
1.46012
1.66711
1.87309
2.08485
2.31543
2.5899
2.96023
3.55088
4.73099
0.109998
0.329286
0.546494
0.76037
0.969898
1.17445
1.37405
1.56968
1.76396
1.96193
2.17249
2.40992
2.69339
3.02783
3.26556
0.103312
0.309291
0.513369
0.714383
0.911346
1.10355
1.29072
1.47321
1.65225
1.83027
2.01088
2.19798
2.39115
2.57193
2.68517
0.0970728
0.290616
0.482372
0.67121
0.856097
1.03614
1.21064
1.37911
1.54127
1.6968
1.84478
1.98181
2.09751
2.16295
2.09725
0.091252
0.273183
0.453401
0.63078
0.80421
0.972585
1.13475
1.28941
1.43487
1.56859
1.68628
1.78047
1.83876
1.84504
1.80322
0.0858291
0.25694
0.426402
0.593093
0.755835
0.913337
1.06408
1.2061
1.33664
1.4515
1.54409
1.60406
1.61614
1.56052
1.41127
0.0807863
0.241841
0.401328
0.558148
0.711099
0.858785
0.999459
1.13076
1.24929
1.34988
1.42455
1.46091
1.44054
1.34103
1.17253
0.0761031
0.227831
0.378106
0.52589
0.67002
0.809102
0.941348
1.0643
1.17439
1.26626
1.33161
1.35717
1.31988
1.16945
0.742058
0.071752
0.214831
0.356614
0.496171
0.632446
0.764167
0.889692
1.00677
1.11216
1.20107
1.2663
1.29707
1.27781
1.1902
1.04542
0.0676965
0.20273
0.336669
0.468731
0.598036
0.723537
0.843904
0.957351
1.06137
1.15232
1.22493
1.27172
1.2832
1.25065
1.17348
0.0638908
0.191389
0.318028
0.443206
0.566269
0.686472
0.802922
0.914485
1.01965
1.11631
1.20148
1.2709
1.31916
1.3421
1.35105
0.0602821
0.180644
0.300402
0.41915
0.536488
0.652015
0.765335
0.876064
0.983838
1.08829
1.18896
1.28478
1.3727
1.44327
1.46727
0.0568136
0.170321
0.283476
0.396075
0.507967
0.619091
0.729548
0.839698
0.950333
1.06291
1.1798
1.30417
1.43828
1.57679
1.69399
0.0534285
0.160241
0.266937
0.373492
0.479978
0.586632
0.693975
0.802996
0.915481
1.03454
1.16544
1.31679
1.50081
1.72511
1.92776
0.0500741
0.150244
0.250497
0.350959
0.451874
0.553698
0.657237
0.763891
0.876067
0.997938
1.1369
1.30672
1.53538
1.88847
2.5526
0.046705
0.140188
0.233913
0.32811
0.42314
0.519573
0.618338
0.720952
0.829924
0.949472
1.08693
1.25579
1.48355
1.83584
2.50741
0.0432849
0.129966
0.217
0.304686
0.393432
0.483829
0.576767
0.673601
0.776439
0.888572
1.01515
1.16398
1.34524
1.56148
1.73458
0.0397875
0.1195
0.199636
0.280526
0.362577
0.446324
0.532491
0.622083
0.7165
0.817645
0.927916
1.04964
1.18265
1.31709
1.42434
0.0361952
0.108739
0.181748
0.25556
0.330547
0.40714
0.485838
0.567217
0.651891
0.740384
0.832734
0.92747
1.01907
1.09159
1.10006
0.0324967
0.0976542
0.163305
0.229778
0.297403
0.366495
0.437326
0.510064
0.584633
0.660447
0.735896
0.807485
0.86873
0.910583
0.934377
0.0286844
0.0862278
0.14429
0.203198
0.263242
0.324643
0.387492
0.451641
0.516513
0.580765
0.641743
0.694687
0.731864
0.742119
0.707825
0.0247509
0.0744415
0.124689
0.17583
0.22814
0.281788
0.336756
0.392719
0.448826
0.503359
0.55317
0.592842
0.613697
0.604594
0.570049
0.0206865
0.062269
0.104468
0.14765
0.19211
0.238016
0.285332
0.333697
0.382234
0.429235
0.471643
0.504066
0.516337
0.484742
0.329513
0.0164768
0.0496689
0.0835639
0.118585
0.155078
0.193266
0.23318
0.274559
0.316711
0.358302
0.397051
0.429288
0.449444
0.450747
0.43884
0.0121014
0.0365811
0.0618789
0.0884976
0.11687
0.14732
0.180012
0.214886
0.25158
0.289346
0.326983
0.362903
0.395645
0.425928
0.462654
0.00753394
0.0229255
0.0392773
0.0571934
0.0772202
0.0998182
0.12533
0.153951
0.185708
0.22048
0.25811
0.298728
0.343556
0.396639
0.467801
0.00274186
0.00860339
0.0155901
0.0244244
0.0357861
0.0502941
0.0684913
0.0908398
0.117744
0.149633
0.187164
0.231634
0.285736
0.354799
0.448981
-0.00231246
-0.00649972
-0.00937957
-0.0100988
-0.00783175
-0.00179042
0.00877124
0.0245669
0.0463201
0.0748709
0.111402
0.157853
0.21753
0.295518
0.39604
-0.00767056
-0.0225104
-0.0358491
-0.0466949
-0.0540695
-0.0570127
-0.0545819
-0.045841
-0.0298222
-0.00543105
0.0287556
0.0748904
0.136611
0.220594
0.341597
-0.0133766
-0.0395631
-0.0640491
-0.0857005
-0.103384
-0.115965
-0.122315
-0.121301
-0.111776
-0.0925328
-0.0621857
-0.0188925
0.0402369
0.119966
0.22426
-0.0194762
-0.0577964
-0.0942169
-0.127461
-0.156239
-0.179245
-0.195161
-0.20267
-0.200477
-0.187343
-0.162114
-0.123669
-0.0704389
0.00228447
0.118003
-0.0260146
-0.0773485
-0.12659
-0.172323
-0.213102
-0.247446
-0.273843
-0.290774
-0.296773
-0.29055
-0.271218
-0.23871
-0.194647
-0.145249
-0.11682
-0.0330358
-0.0983533
-0.161399
-0.220624
-0.274432
-0.321164
-0.359097
-0.386468
-0.401555
-0.402857
-0.389469
-0.361771
-0.322557
-0.278217
-0.234449
-0.0405805
-0.120936
-0.19886
-0.272686
-0.340675
-0.400992
-0.451684
-0.490692
-0.515907
-0.525362
-0.517656
-0.492825
-0.454022
-0.410784
-0.387608
-0.0486846
-0.145206
-0.239167
-0.3288
-0.412245
-0.487501
-0.552385
-0.604492
-0.641201
-0.659784
-0.657734
-0.633579
-0.588563
-0.529414
-0.468532
-0.0573772
-0.171254
-0.282478
-0.389211
-0.4895
-0.581212
-0.661957
-0.728982
-0.779082
-0.80853
-0.813159
-0.788817
-0.732916
-0.649247
-0.563431
-0.0666792
-0.199144
-0.328908
-0.454096
-0.572709
-0.68254
-0.781054
-0.865225
-0.931302
-0.974511
-0.988699
-0.96597
-0.896551
-0.770566
-0.595436
-0.0766015
-0.22891
-0.378515
-0.523547
-0.662017
-0.791724
-0.91011
-1.01403
-1.0994
-1.16064
-1.18987
-1.17554
-1.09946
-0.926013
-0.546977
-0.0871451
-0.260552
-0.431296
-0.597554
-0.75741
-0.908769
-1.04921
-1.17572
-1.28425
-1.36901
-1.4213
-1.428
-1.36999
-1.22423
-0.994988
-0.0983021
-0.294043
-0.487192
-0.676006
-0.858702
-1.0334
-1.19798
-1.34989
-1.48562
-1.59991
-1.68438
-1.72539
-1.70146
-1.5804
-1.30649
-0.110058
-0.329334
-0.546099
-0.758707
-0.965549
-1.16504
-1.35556
-1.5353
-1.70186
-1.85152
-1.97763
-2.06788
-2.10038
-2.04272
-1.88308
-0.122398
-0.366369
-0.607891
-0.845411
-1.0775
-1.30291
-1.52063
-1.72985
-1.92985
-2.11949
-2.29578
-2.45047
-2.56191
-2.57586
-2.35191
-0.13531
-0.405105
-0.672463
-0.935886
-1.19409
-1.44613
-1.69159
-1.93079
-2.16504
-2.39673
-2.62893
-2.86309
-3.09115
-3.27421
-3.31943
-0.148794
-0.445532
-0.739767
-1.02999
-1.31495
-1.59391
-1.86689
-2.13518
-2.40201
-2.67361
-2.9607
-3.27995
-3.65163
-4.06826
-4.27838
-0.162867
-0.487698
-0.80986
-1.12773
-1.43999
-1.74585
-2.04546
-2.34058
-2.63565
-2.93974
-3.27015
-3.66039
-4.1809
-5.00574
-6.67513
-0.177568
-0.531716
-0.882931
-1.22938
-1.56947
-1.90212
-2.22714
-2.546
-2.86303
-3.18758
-3.53805
-3.95036
-4.49884
-5.3567
-7.00159
-0.192955
-0.577771
-0.959312
-1.33544
-1.70413
-2.06368
-2.4131
-2.7527
-3.08519
-3.41742
-3.76299
-4.14578
-4.60191
-5.16113
-5.6942
-0.209102
-0.6261
-1.03945
-1.44665
-1.84512
-2.23229
-2.60588
-2.96433
-3.30754
-3.63801
-3.96207
-4.29027
-4.63338
-4.98371
-5.26777
-0.226085
-0.67696
-1.12387
-1.56394
-1.99395
-2.41033
-2.80919
-3.18653
-3.53872
-3.86304
-4.15827
-4.42442
-4.65984
-4.85229
-4.95714
-0.243969
-0.730572
-1.21304
-1.6882
-2.15225
-2.60054
-3.02742
-3.42621
-3.78926
-4.10828
-4.37467
-4.5799
-4.71614
-4.78172
-4.80912
-0.262779
-0.787053
-1.30729
-1.82018
-2.32149
-2.8056
-3.26517
-3.6907
-4.07038
-4.39005
-4.63355
-4.78328
-4.8215
-4.73766
-4.56431
-0.282482
-0.846337
-1.40664
-1.96022
-2.50267
-3.02772
-3.52655
-3.98704
-4.39318
-4.72472
-4.95753
-5.0641
-5.01163
-4.75574
-4.30108
-0.302954
-0.908091
-1.51065
-2.10797
-2.69593
-3.26805
-3.81455
-4.32113
-4.76777
-5.12794
-5.36919
-5.45536
-5.34301
-4.91187
-3.45842
-0.323962
-0.971638
-1.61829
-2.26224
-2.90018
-3.52616
-4.13027
-4.69685
-5.20241
-5.61376
-5.88855
-5.98448
-5.89577
-5.77795
-6.40979
-0.345141
-1.0359
-1.7278
-2.42068
-3.11274
-3.79947
-4.47204
-5.11494
-5.70247
-6.1944
-6.5321
-6.64183
-6.46873
-6.12343
-6.44244
-0.365992
-1.09936
-1.83664
-2.5797
-3.329
-4.08259
-4.83443
-5.57148
-6.26891
-6.88215
-7.33398
-7.49559
-7.16129
-6.00757
-3.38448
-0.385885
-1.16009
-1.94148
-2.73438
-3.54227
-4.36695
-5.2071
-6.05552
-6.89383
-7.68197
-8.33739
-8.69374
-8.42288
-6.91212
-3.20561
-0.404088
-1.21584
-2.03832
-2.87866
-3.74388
-4.64055
-5.57401
-6.54659
-7.5536
-8.57397
-9.54849
-10.3275
-10.5455
-9.3415
-4.90499
-0.419807
-1.26413
-2.12275
-3.00566
-3.92366
-4.88861
-5.91375
-7.01376
-8.20407
-9.4978
-10.8954
-12.3507
-13.6556
-14.0157
-10.336
-0.432254
-1.30251
-2.1903
-3.1083
-4.07083
-5.09486
-6.2015
-7.41822
-8.78273
-10.3495
-12.2022
-14.4784
-17.422
-21.4952
-27.5671
-11.2776
-25.7666
-24.3509
-20.7951
-17.4928
-14.7248
-12.4071
-10.4241
-8.6836
-7.11868
-5.6811
-4.33536
-3.05431
-1.81624
-0.602745
-111.087
-57.9138
-37.3711
-27.2251
-21.1771
-17.0657
-14.0019
-11.5614
-9.5173
-7.73714
-6.1379
-4.66413
-3.27638
-1.94473
-0.644819
-123.511
-67.4008
-43.1714
-30.8094
-23.5165
-18.679
-15.1638
-12.4235
-10.1677
-8.22995
-6.50757
-4.93316
-3.45949
-2.05119
-0.679759
-67.8448
-54.748
-40.7304
-30.8734
-24.1507
-19.3741
-15.7877
-12.949
-10.5973
-8.57319
-6.77448
-5.13222
-3.59719
-2.13206
-0.706423
-47.8876
-42.7347
-35.4001
-28.7607
-23.4334
-19.2428
-15.8922
-13.1363
-10.7994
-8.75991
-6.93276
-5.25682
-3.68637
-2.18548
-0.724207
-30.4047
-32.2365
-29.5869
-25.737
-21.9267
-18.5283
-15.5838
-13.0325
-10.795
-8.79917
-6.98602
-5.30815
-3.72723
-2.21141
-0.733059
-22.4257
-24.8504
-24.6073
-22.6857
-20.1339
-17.4985
-15.0024
-12.7109
-10.6227
-8.71159
-6.94535
-5.29215
-3.72289
-2.21131
-0.733415
-12.4567
-19.317
-20.7933
-20.0721
-18.3992
-16.3719
-14.2788
-12.2482
-10.3273
-8.52343
-6.82618
-5.21786
-3.67849
-2.18783
-0.726083
-15.0244
-17.5226
-18.5054
-18.1193
-16.9106
-15.291
-13.5117
-11.7095
-9.95068
-8.26123
-6.64523
-5.09569
-3.60026
-2.14426
-0.7121
-15.6775
-16.7804
-17.1681
-16.7377
-15.7075
-14.3211
-12.7604
-11.1405
-9.52589
-7.94801
-6.41814
-4.93595
-3.49466
-2.08414
-0.692585
-16.292
-16.5349
-16.399
-15.7727
-14.7516
-13.4722