/*--------------------------------*- C++ -*----------------------------------*\
| =========                 |                                                 |
| \\      /  F ield         | OpenFOAM: The Open Source CFD Toolbox           |
|  \\    /   O peration     | Version:  5.x                                   |
|   \\  /    A nd           | Web:      www.OpenFOAM.org                      |
|    \\/     M anipulation  |                                                 |
\*---------------------------------------------------------------------------*/
FoamFile
{
    version     2.0;
    format      ascii;
    class       volScalarField;
    location    "0.8001";
    object      T;
}
// * * * * * * * * * * * * * * * * * * * * * * * * * * * * * * * * * * * * * //

dimensions      [0 0 0 1 0 0 0];

internalField   nonuniform List<scalar> 
6300
(
322.853
322.558
322.262
321.965
321.665
321.362
321.056
320.745
320.431
320.111
319.786
319.455
319.119
318.778
318.43
322.853
322.559
322.264
321.967
321.668
321.366
321.06
320.75
320.436
320.116
319.791
319.461
319.125
318.783
318.436
322.854
322.561
322.267
321.972
321.674
321.373
321.068
320.759
320.446
320.127
319.803
319.472
319.136
318.794
318.447
322.855
322.564
322.272
321.979
321.682
321.383
321.08
320.773
320.461
320.143
319.82
319.49
319.154
318.812
318.463
322.856
322.568
322.279
321.988
321.695
321.398
321.097
320.792
320.481
320.165
319.843
319.514
319.178
318.835
318.486
322.858
322.573
322.288
322
321.71
321.416
321.118
320.816
320.508
320.193
319.872
319.544
319.208
318.865
318.515
322.86
322.58
322.298
322.015
321.728
321.439
321.145
320.845
320.54
320.228
319.909
319.582
319.246
318.902
318.55
322.863
322.587
322.311
322.032
321.751
321.466
321.176
320.881
320.58
320.271
319.954
319.628
319.293
318.948
318.594
322.865
322.596
322.325
322.052
321.777
321.497
321.213
320.923
320.626
320.321
320.008
319.684
319.349
319.003
318.646
322.869
322.606
322.342
322.075
321.806
321.533
321.256
320.972
320.681
320.381
320.071
319.75
319.417
319.069
318.708
322.872
322.617
322.36
322.101
321.84
321.574
321.304
321.028
320.744
320.451
320.146
319.83
319.498
319.15
318.784
322.877
322.629
322.381
322.13
321.877
321.621
321.359
321.091
320.816
320.531
320.234
319.924
319.596
319.248
318.878
322.881
322.643
322.403
322.162
321.918
321.671
321.42
321.162
320.898
320.623
320.337
320.035
319.713
319.368
318.996
322.886
322.657
322.427
322.196
321.963
321.727
321.487
321.241
320.989
320.728
320.455
320.165
319.854
319.516
319.147
322.891
322.672
322.453
322.233
322.01
321.786
321.558
321.327
321.089
320.844
320.589
320.317
320.022
319.695
319.332
318.107
317.809
317.508
317.204
316.897
316.587
316.274
315.959
315.641
315.322
315
314.677
314.353
314.027
313.701
313.373
313.045
312.716
312.387
312.058
311.729
311.4
311.071
310.741
310.412
310.083
309.754
309.424
309.095
308.766
308.437
308.108
307.779
307.451
307.123
306.795
306.468
306.14
305.813
305.486
305.159
304.833
304.506
304.179
303.852
303.525
303.198
302.872
302.545
302.219
301.893
301.567
301.241
300.915
300.589
300.263
299.937
299.61
299.284
298.958
298.631
298.305
297.978
297.652
297.326
297
296.674
296.348
296.022
295.696
295.371
295.045
294.719
294.393
294.067
293.742
293.416
293.091
292.766
292.44
292.115
291.79
291.465
291.139
290.812
290.485
290.157
289.828
289.497
289.166
318.112
317.814
317.513
317.208
316.901
316.59
316.277
315.962
315.644
315.324
315.003
314.68
314.355
314.029
313.702
313.374
313.046
312.717
312.388
312.058
311.729
311.4
311.071
310.742
310.412
310.083
309.754
309.424
309.095
308.766
308.436
308.108
307.779
307.451
307.123
306.795
306.467
306.14
305.813
305.486
305.159
304.833
304.506
304.179
303.852
303.525
303.198
302.871
302.545
302.219
301.893
301.567
301.241
300.915
300.589
300.263
299.937
299.611
299.284
298.958
298.631
298.304
297.978
297.652
297.325
296.999
296.674
296.348
296.022
295.696
295.371
295.045
294.719
294.393
294.067
293.742
293.416
293.091
292.765
292.44
292.115
291.79
291.465
291.14
290.814
290.487
290.159
289.829
289.499
289.167
318.122
317.824
317.522
317.217
316.909
316.598
316.284
315.968
315.65
315.33
315.008
314.684
314.358
314.032
313.704
313.376
313.047
312.718
312.388
312.059
311.729
311.4
311.071
310.742
310.412
310.083
309.754
309.424
309.095
308.765
308.436
308.107
307.778
307.45
307.122
306.794
306.467
306.14
305.813
305.486
305.159
304.833
304.506
304.179
303.852
303.524
303.198
302.871
302.544
302.218
301.892
301.566
301.241
300.915
300.589
300.263
299.937
299.611
299.284
298.958
298.631
298.304
297.978
297.651
297.325
296.999
296.673
296.348
296.022
295.696
295.371
295.045
294.719
294.393
294.067
293.741
293.416
293.09
292.765
292.44
292.116
291.791
291.466
291.141
290.816
290.489
290.162
289.833
289.503
289.171
318.138
317.839
317.536
317.23
316.921
316.609
316.295
315.978
315.659
315.338
315.015
314.69
314.364
314.036
313.708
313.378
313.049
312.719
312.389
312.059
311.729
311.4
311.071
310.742
310.413
310.083
309.754
309.424
309.094
308.765
308.435
308.106
307.777
307.448
307.12
306.793
306.466
306.139
305.813
305.486
305.16
304.833
304.506
304.179
303.851
303.524
303.197
302.87
302.544
302.217
301.892
301.566
301.241
300.915
300.59
300.264
299.938
299.612
299.285
298.958
298.631
298.304
297.977
297.65
297.324
296.998
296.673
296.347
296.022
295.696
295.371
295.045
294.719
294.393
294.067
293.74
293.415
293.089
292.764
292.44
292.116
291.792
291.468
291.144
290.819
290.494
290.167
289.838
289.508
289.176
318.16
317.859
317.555
317.248
316.937
316.624
316.309
315.991
315.671
315.349
315.025
314.699
314.371
314.042
313.712
313.382
313.051
312.72
312.389
312.059
311.729
311.4
311.071
310.742
310.413
310.084
309.754
309.424
309.094
308.764
308.434
308.104
307.775
307.446
307.118
306.791
306.464
306.138
305.812
305.486
305.16
304.833
304.506
304.179
303.851
303.523
303.196
302.869
302.542
302.216
301.891
301.565
301.241
300.916
300.591
300.265
299.939
299.613
299.285
298.958
298.63
298.303
297.976
297.649
297.323
296.997
296.672
296.347
296.022
295.697
295.371
295.045
294.719
294.393
294.066
293.739
293.413
293.087
292.763
292.438
292.115
291.792
291.47
291.147
290.824
290.5
290.174
289.846
289.516
289.184
318.187
317.885
317.579
317.27
316.958
316.643
316.326
316.007
315.686
315.363
315.037
314.71
314.381
314.05
313.718
313.385
313.053
312.72
312.389
312.058
311.728
311.399
311.071
310.742
310.414
310.085
309.755
309.425
309.094
308.763
308.432
308.101
307.772
307.443
307.115
306.788
306.462
306.137
305.812
305.487
305.161
304.834
304.507
304.179
303.851
303.522
303.194
302.867
302.54
302.214
301.889
301.565
301.241
300.917
300.592
300.267
299.941
299.614
299.287
298.958
298.63
298.302
297.974
297.647
297.321
296.995
296.671
296.346
296.022
295.698
295.372
295.047
294.72
294.393
294.065
293.738
293.411
293.085
292.76
292.436
292.114
291.793
291.472
291.152
290.83
290.508
290.184
289.857
289.527
289.195
318.22
317.916
317.608
317.296
316.981
316.665
316.347
316.026
315.704
315.38
315.053
314.724
314.392
314.059
313.724
313.389
313.054
312.72
312.387
312.056
311.726
311.398
311.07
310.743
310.415
310.087
309.757
309.427
309.095
308.762
308.43
308.098
307.767
307.438
307.11
306.784
306.459
306.136
305.812
305.488
305.163
304.836
304.509
304.18
303.851
303.521
303.192
302.863
302.536
302.21
301.886
301.563
301.24
300.918
300.595
300.27
299.945
299.617
299.289
298.959
298.629
298.3
297.971
297.643
297.317
296.993
296.669
296.346
296.023
295.699
295.375
295.049
294.721
294.393
294.064
293.735
293.407
293.08
292.755
292.432
292.111
291.792
291.474
291.157
290.839
290.519
290.197
289.872
289.543
289.21
318.261
317.953
317.641
317.326
317.008
316.69
316.37
316.048
315.725
315.4
315.072
314.741
314.407
314.07
313.732
313.393
313.054
312.718
312.383
312.052
311.722
311.395
311.07
310.744
310.418
310.091
309.761
309.43
309.096
308.762
308.427
308.093
307.76
307.43
307.103
306.778
306.456
306.134
305.812
305.49
305.166
304.841
304.512
304.182
303.851
303.519
303.188
302.858
302.53
302.205
301.882
301.561
301.24
300.92
300.599
300.275
299.95
299.622
299.292
298.96
298.628
298.296
297.966
297.638
297.312
296.988
296.666
296.345
296.024
295.702
295.378
295.053
294.724
294.394
294.063
293.732
293.401
293.073
292.747
292.425
292.106
291.79
291.476
291.162
290.849
290.534
290.215
289.892
289.564
289.23
318.308
317.996
317.679
317.359
317.037
316.716
316.395
316.073
315.75
315.424
315.095
314.762
314.425
314.084
313.74
313.396
313.052
312.712
312.376
312.043
311.716
311.391
311.068
310.746
310.423
310.097
309.768
309.435
309.099
308.761
308.423
308.085
307.75
307.419
307.093
306.77
306.45
306.132
305.814
305.495
305.173
304.848
304.519
304.187
303.852
303.516
303.182
302.85
302.521
302.196
301.875
301.557
301.24
300.924
300.605
300.284
299.959
299.63
299.297
298.962
298.626
298.291
297.958
297.629
297.303
296.981
296.662
296.345
296.027
295.708
295.385
295.06
294.73
294.397
294.062
293.726
293.392
293.061
292.735
292.413
292.097
291.784
291.476
291.169
290.862
290.553
290.24
289.921
289.594
289.259
318.365
318.045
317.72
317.393
317.067
316.742
316.42
316.099
315.778
315.454
315.125
314.79
314.448
314.101
313.75
313.397
313.046
312.701
312.362
312.029
311.704
311.384
311.066
310.75
310.431
310.108
309.78
309.446
309.106
308.762
308.417
308.073
307.735
307.402
307.076
306.757
306.442
306.13
305.818
305.503
305.185
304.861
304.53
304.194
303.854
303.512
303.172
302.836
302.506
302.182
301.865
301.551
301.24
300.929
300.616
300.298
299.974
299.643
299.306
298.966
298.623
298.282
297.946
297.614
297.29
296.971
296.656
296.344
296.032
295.717
295.398
295.072
294.741
294.403
294.062
293.719
293.379
293.043
292.715
292.394
292.081
291.774
291.473
291.175
290.877
290.577
290.273
289.96
289.636
289.299
318.433
318.102
317.765
317.427
317.093
316.765
316.444
316.127
315.81
315.49
315.163
314.826
314.48
314.124
313.761
313.395
313.034
312.68
312.337
312.006
311.685
311.372
311.064
310.756
310.445
310.128
309.801
309.464
309.117
308.764
308.408
308.055
307.71
307.375
307.051
306.737
306.43
306.127
305.824
305.518
305.205
304.882
304.55
304.207
303.858
303.506
303.156
302.814
302.482
302.16
301.847
301.542
301.24
300.939
300.633
300.32
299.998
299.665
299.322
298.971
298.618
298.268
297.924
297.591
297.267
296.954
296.647
296.344
296.04
295.733
295.418
295.094
294.76
294.415
294.063
293.709
293.358
293.016
292.684
292.364
292.056
291.757
291.466
291.18
290.895
290.609
290.317
290.015
289.696
289.357
318.516
318.17
317.811
317.455
317.11
316.779
316.462
316.153
315.847
315.536
315.214
314.878
314.526
314.157
313.776
313.389
313.009
312.644
312.297
311.967
311.655
311.354
311.06
310.768
310.469
310.16
309.836
309.496
309.139
308.77
308.395
308.026
307.671
307.333
307.012
306.706
306.412
306.124
305.837
305.543
305.238
304.919
304.583
304.231
303.866
303.495
303.13
302.778
302.443
302.124
301.82
301.527
301.241
300.954
300.661
300.356
300.036
299.7
299.347
298.981
298.609
298.243
297.889
297.552
297.232
296.926
296.631
296.343
296.055
295.759
295.453
295.131
294.793
294.437
294.069
293.694
293.326
292.972
292.636
292.317
292.016
291.729
291.453
291.183
290.916
290.649
290.378
290.093
289.784
289.443
318.624
318.254
317.854
317.468
317.106
316.774
316.466
316.177
315.892
315.596
315.286
314.953
314.596
314.208
313.799
313.371
312.964
312.581
312.231
311.906
311.606
311.324
311.056
310.788
310.509
310.213
309.894
309.552
309.18
308.785
308.372
307.978
307.607
307.267
306.951
306.659
306.384
306.121
305.858
305.583
305.293
304.978
304.641
304.273
303.883
303.475
303.085
302.718
302.381
302.067
301.777
301.503
301.241
300.979
300.704
300.414
300.099
299.761
299.392
299.001
298.591
298.199
297.83
297.491
297.175
296.883
296.607
296.343
296.079
295.802
295.509
295.192
294.85
294.478
294.083
293.669
293.274
292.902
292.562
292.246
291.956
291.685
291.43
291.182
290.935
290.696
290.458
290.205
289.918
289.576
318.779
318.382
317.875
317.448
317.057
316.737
316.443
316.195
315.952
315.678
315.393
315.06
314.71
314.292
313.847
313.324
312.883
312.471
312.128
311.807
311.534
311.276
311.051
310.826
310.57
310.301
309.986
309.651
309.252
308.825
308.322
307.896
307.499
307.167
306.855
306.589
306.337
306.117
305.897
305.646
305.382
305.071
304.741
304.348
303.926
303.429
303.008
302.614
302.285
301.975
301.711
301.461
301.241
301.022
300.771
300.506
300.195
299.865
299.47
299.046
298.547
298.123
297.727
297.396
297.083
296.817
296.564
296.343
296.122
295.868
295.601
295.286
294.952
294.552
294.123
293.617
293.188
292.788
292.453
292.137
291.87
291.616
291.397
291.18
290.942
290.742
290.56
290.367
290.129
289.799
319.022
318.668
317.781
317.376
316.904
316.66
316.357
316.204
316.056
315.776
315.568
315.194
314.919
314.415
314.009
313.161
312.758
312.263
311.996
311.638
311.44
311.179
311.044
310.91
310.651
310.456
310.105
309.844
309.364
308.975
308.162
307.774
307.297
307.038
306.691
306.499
306.245
306.113
305.981
305.728
305.537
305.191
304.935
304.462
304.077
303.275
302.89
302.418
302.162
301.817
301.626
301.373
301.242
301.11
300.857
300.666
300.32
300.062
299.587
299.201
298.394
298.007
297.531
297.273
296.925
296.732
296.477
296.344
296.211
295.954
295.76
295.409
295.149
294.666
294.275
293.455
293.062
292.578
292.316
291.96
291.763
291.498
291.359
291.211
290.894
290.761
290.678
290.595
290.473
290.225
288.8
288.399
287.998
287.595
287.192
286.789
286.387
285.985
285.584
285.184
284.785
284.387
283.99
283.594
283.198
288.801
288.401
287.998
287.595
287.192
286.789
286.386
285.984
285.583
285.183
284.784
284.386
283.99
283.593
283.198
288.804
288.403
288
287.596
287.192
286.788
286.385
285.982
285.581
285.181
284.782
284.385
283.988
283.593
283.197
288.809
288.407
288.002
287.597
287.192
286.787
286.382
285.979
285.577
285.177
284.779
284.382
283.986
283.591
283.197
288.816
288.412
288.006
287.599
287.191
286.784
286.378
285.974
285.572
285.172
284.774
284.378
283.983
283.589
283.196
288.826
288.419
288.011
287.6
287.19
286.781
286.373
285.968
285.565
285.165
284.768
284.372
283.979
283.587
283.195
288.839
288.429
288.016
287.602
287.188
286.775
286.365
285.959
285.555
285.155
284.759
284.365
283.973
283.583
283.194
288.857
288.443
288.024
287.604
287.184
286.767
286.354
285.946
285.542
285.143
284.747
284.355
283.966
283.579
283.193
288.881
288.46
288.033
287.605
287.178
286.756
286.339
285.929
285.524
285.126
284.732
284.343
283.957
283.573
283.191
288.916
288.483
288.044
287.604
287.167
286.738
286.317
285.905
285.501
285.104
284.713
284.327
283.945
283.566
283.189
288.964
288.514
288.055
287.598
287.15
286.712
286.287
285.874
285.47
285.076
284.689
284.308
283.931
283.557
283.186
289.032
288.553
288.065
287.585
287.121
286.674
286.245
285.832
285.431
285.041
284.659
284.284
283.914
283.547
283.182
289.132
288.6
288.067
287.556
287.074
286.619
286.188
285.777
285.381
284.997
284.622
284.255
283.893
283.534
283.178
289.28
288.649
288.046
287.498
286.999
286.54
286.112
285.706
285.318
284.943
284.578
284.22
283.868
283.52
283.173
289.495
288.667
287.972
287.39
286.885
286.431
286.013
285.619
285.243
284.88
284.527
284.181
283.84
283.503
283.167
322.896
322.687
322.478
322.267
322.056
321.843
321.628
321.41
321.188
320.961
320.726
320.478
320.207
319.89
319.48
322.9
322.7
322.5
322.3
322.099
321.897
321.694
321.489
321.282
321.073
320.86
320.64
320.406
320.134
319.724
322.905
322.714
322.524
322.333
322.142
321.951
321.76
321.569
321.378
321.187
320.998
320.811
320.631
320.473
320.418
322.909
322.728
322.547
322.366
322.186
322.006
321.827
321.649
321.473
321.301
321.135
320.978
320.841
320.74
320.703
322.914
322.742
322.57
322.399
322.229
322.059
321.892
321.727
321.566
321.411
321.264
321.132
321.025
320.962
320.985
322.918
322.756
322.593
322.431
322.271
322.112
321.956
321.803
321.655
321.514
321.384
321.269
321.179
321.125
321.116
322.923
322.769
322.615
322.463
322.312
322.163
322.017
321.875
321.739
321.61
321.492
321.389
321.308
321.257
321.255
322.927
322.782
322.637
322.493
322.351
322.212
322.076
321.944
321.818
321.699
321.59
321.495
321.415
321.356
321.319
322.931
322.794
322.658
322.522
322.389
322.259
322.131
322.009
321.891
321.781
321.68
321.588
321.509
321.44
321.371
322.935
322.806
322.677
322.55
322.425
322.303
322.184
322.069
321.96
321.857
321.761
321.674
321.595
321.523
321.46
322.939
322.817
322.696
322.577
322.46
322.345
322.233
322.126
322.024
321.928
321.838
321.754
321.676
321.6
321.519
322.943
322.828
322.714
322.602
322.492
322.384
322.28
322.18
322.085
321.994
321.91
321.83
321.755
321.682
321.615
322.946
322.838
322.731
322.626
322.522
322.421
322.324
322.23
322.141
322.057
321.978
321.903
321.832
321.761
321.678
322.949
322.848
322.747
322.648
322.551
322.456
322.365
322.278
322.194
322.116
322.043
321.974
321.91
321.847
321.786
322.952
322.857
322.762
322.669
322.578
322.489
322.404
322.322
322.244
322.172
322.105
322.043
321.986
321.931
321.864
322.955
322.865
322.776
322.688
322.603
322.52
322.439
322.363
322.291
322.224
322.162
322.107
322.06
322.025
322.017
322.958
322.873
322.789
322.707
322.626
322.548
322.473
322.401
322.334
322.272
322.216
322.167
322.127
322.099
322.086
322.96
322.88
322.801
322.724
322.648
322.574
322.504
322.437
322.374
322.316
322.264
322.22
322.185
322.163
322.162
322.962
322.887
322.812
322.739
322.668
322.598
322.532
322.469
322.41
322.356
322.308
322.267
322.234
322.212
322.2
322.964
322.893
322.823
322.754
322.686
322.621
322.558
322.498
322.443
322.392
322.346
322.307
322.276
322.254
322.247
322.966
322.899
322.832
322.767
322.703
322.641
322.582
322.525
322.473
322.424
322.38
322.342
322.311
322.287
322.27
322.968
322.904
322.841
322.779
322.718
322.66
322.603
322.55
322.499
322.453
322.41
322.373
322.341
322.315
322.298
322.97
322.909
322.849
322.79
322.733
322.677
322.623
322.572
322.524
322.478
322.437
322.4
322.366
322.337
322.312
322.971
322.914
322.857
322.8
322.746
322.692
322.641
322.592
322.545
322.502
322.461
322.424
322.389
322.356
322.323
322.973
322.918
322.863
322.81
322.758
322.707
322.657
322.61
322.565
322.523
322.483
322.445
322.41
322.376
322.344
322.974
322.921
322.87
322.818
322.768
322.72
322.672
322.627
322.584
322.542
322.503
322.466
322.43
322.395
322.357
322.975
322.925
322.875
322.826
322.778
322.732
322.686
322.643
322.601
322.561
322.522
322.485
322.45
322.415
322.381
322.976
322.928
322.88
322.834
322.788
322.743
322.699
322.657
322.616
322.577
322.54
322.504
322.469
322.434
322.396
322.977
322.931
322.885
322.84
322.796
322.753
322.711
322.67
322.631
322.593
322.557
322.522
322.489
322.455
322.422
322.978
322.934
322.89
322.846
322.804
322.762
322.721
322.682
322.644
322.608
322.573
322.54
322.508
322.476
322.442
322.979
322.936
322.894
322.852
322.811
322.77
322.731
322.693
322.657
322.621
322.588
322.556
322.526
322.5
322.48
322.979
322.938
322.897
322.857
322.817
322.778
322.74
322.703
322.668
322.634
322.602
322.571
322.543
322.518
322.497
322.98
322.94
322.901
322.861
322.823
322.785
322.748
322.713
322.678
322.645
322.614
322.585
322.558
322.534
322.516
322.981
322.942
322.904
322.866
322.828
322.792
322.756
322.721
322.688
322.656
322.625
322.596
322.57
322.547
322.526
322.981
322.944
322.906
322.87
322.833
322.797
322.763
322.729
322.696
322.665
322.635
322.607
322.581
322.557
322.537
322.982
322.945
322.909
322.873
322.838
322.803
322.769
322.736
322.704
322.673
322.643
322.615
322.589
322.565
322.543
322.982
322.947
322.911
322.876
322.841
322.807
322.774
322.742
322.71
322.68
322.651
322.623
322.597
322.572
322.55
322.983
322.948
322.913
322.879
322.845
322.812
322.779
322.747
322.716
322.686
322.657
322.63
322.603
322.578
322.553
322.983
322.949
322.915
322.881
322.848
322.815
322.783
322.752
322.721
322.692
322.663
322.635
322.608
322.582
322.556
322.983
322.95
322.917
322.884
322.851
322.819
322.787
322.756
322.726
322.697
322.668
322.64
322.613
322.587
322.561
322.984
322.951
322.918
322.886
322.853
322.822
322.791
322.76
322.73
322.701
322.673
322.645
322.618
322.591
322.564
322.984
322.951
322.919
322.887
322.856
322.824
322.794
322.763
322.734
322.705
322.677
322.649
322.622
322.595
322.569
322.984
322.952
322.92
322.889
322.858
322.827
322.796
322.766
322.737
322.708
322.68
322.653
322.626
322.599
322.572
322.984
322.953
322.921
322.89
322.859
322.829
322.799
322.769
322.74
322.712
322.684
322.656
322.63
322.603
322.578
322.984
322.953
322.922
322.891
322.861
322.83
322.801
322.771
322.742
322.714
322.687
322.66
322.633
322.607
322.581
322.984
322.954
322.923
322.892
322.862
322.832
322.802
322.773
322.744
322.717
322.689
322.662
322.636
322.611
322.588
322.985
322.954
322.923
322.893
322.863
322.833
322.803
322.775
322.746
322.718
322.691
322.665
322.639
322.614
322.591
322.985
322.954
322.924
322.893
322.863
322.834
322.804
322.776
322.747
322.72
322.693
322.667
322.641
322.617
322.593
322.985
322.954
322.924
322.894
322.864
322.834
322.805
322.776
322.748
322.721
322.694
322.668
322.642
322.618
322.594
322.985
322.954
322.924
322.894
322.864
322.834
322.805
322.777
322.749
322.721
322.695
322.669
322.643
322.619
322.595
322.985
322.954
322.924
322.894
322.864
322.834
322.805
322.777
322.749
322.721
322.695
322.669
322.644
322.619
322.595
322.985
322.954
322.924
322.894
322.864
322.834
322.805
322.776
322.748
322.721
322.694
322.669
322.643
322.619
322.595
322.985
322.954
322.923
322.893
322.863
322.833
322.804
322.776
322.748
322.72
322.694
322.668
322.643
322.618
322.595
322.985
322.954
322.923
322.893
322.862
322.833
322.803
322.774
322.746
322.719
322.692
322.666
322.641
322.617
322.594
322.984
322.953
322.922
322.892
322.861
322.831
322.802
322.773
322.745
322.717
322.69
322.665
322.64
322.616
322.593
322.984
322.953
322.922
322.891
322.86
322.83
322.8
322.771
322.742
322.715
322.688
322.662
322.637
322.613
322.591
322.984
322.952
322.921
322.889
322.858
322.828
322.798
322.768
322.74
322.712
322.685
322.659
322.634
322.61
322.588
322.984
322.952
322.92
322.888
322.856
322.825
322.795
322.765
322.736
322.708
322.681
322.655
322.63
322.606
322.585
322.984
322.951
322.918
322.886
322.854
322.823
322.792
322.762
322.733
322.704
322.676
322.65
322.624
322.601
322.578
322.983
322.95
322.917
322.884
322.852
322.82
322.788
322.758
322.728
322.699
322.671
322.644
322.618
322.594
322.572
322.983
322.949
322.915
322.882
322.849
322.816
322.784
322.753
322.723
322.694
322.665
322.638
322.611
322.585
322.558
322.983
322.948
322.913
322.879
322.845
322.812
322.78
322.748
322.718
322.688
322.659
322.631
322.604
322.577
322.551
322.982
322.947
322.911
322.876
322.842
322.808
322.775
322.743
322.711
322.681
322.652
322.623
322.596
322.568
322.54
322.982
322.945
322.909
322.873
322.838
322.803
322.769
322.736
322.704
322.674
322.644
322.615
322.588
322.56
322.534
322.981
322.944
322.906
322.869
322.833
322.797
322.763
322.729
322.697
322.666
322.636
322.607
322.579
322.552
322.524
322.981
322.942
322.903
322.865
322.828
322.791
322.756
322.721
322.688
322.657
322.626
322.598
322.57
322.544
322.518
322.98
322.94
322.9
322.861
322.822
322.785
322.748
322.713
322.679
322.647
322.616
322.588
322.561
322.535
322.509
322.979
322.938
322.896
322.856
322.816
322.777
322.739
322.703
322.668
322.636
322.605
322.576
322.55
322.526
322.504
322.978
322.935
322.892
322.85
322.809
322.769
322.73
322.692
322.657
322.623
322.592
322.564
322.538
322.516
322.498
322.977
322.933
322.888
322.844
322.801
322.759
322.719
322.68
322.643
322.609
322.577
322.549
322.524
322.502
322.485
322.976
322.93
322.883
322.837
322.793
322.749
322.707
322.667
322.629
322.593
322.561
322.531
322.506
322.487
322.473
322.975
322.926
322.878
322.83
322.783
322.738
322.694
322.652
322.612
322.575
322.541
322.511
322.486
322.466
322.451
322.974
322.923
322.872
322.822
322.773
322.725
322.679
322.635
322.594
322.555
322.52
322.488
322.461
322.442
322.433
322.973
322.919
322.866
322.813
322.761
322.711
322.663
322.617
322.574
322.533
322.495
322.461
322.432
322.41
322.395
322.972
322.915
322.859
322.803
322.749
322.697
322.646
322.597
322.551
322.508
322.468
322.431
322.399
322.373
322.36
322.97
322.91
322.851
322.793
322.736
322.68
322.627
322.576
322.527
322.481
322.438
322.399
322.361
322.325
322.284
322.968
322.905
322.843
322.781
322.721
322.663
322.606
322.553
322.501
322.453
322.407
322.364
322.323
322.283
322.244
322.967
322.9
322.834
322.769
322.705
322.644
322.584
322.527
322.473
322.422
322.374
322.328
322.283
322.239
322.189
322.965
322.894
322.824
322.756
322.688
322.623
322.56
322.5
322.443
322.389
322.338
322.29
322.244
322.199
322.157
322.963
322.888
322.814
322.741
322.67
322.601
322.535
322.471
322.411
322.355
322.301
322.251
322.204
322.157
322.107
322.96
322.881
322.803
322.726
322.65
322.577
322.507
322.44
322.377
322.317
322.262
322.211
322.163
322.118
322.077
322.958
322.874
322.791
322.709
322.629
322.551
322.477
322.406
322.339
322.277
322.22
322.168
322.121
322.076
322.03
322.955
322.866
322.778
322.691
322.606
322.523
322.444
322.369
322.299
322.234
322.175
322.122
322.076
322.036
322.003
322.952
322.858
322.764
322.671
322.581
322.493
322.409
322.329
322.255
322.187
322.125
322.072
322.027
321.991
321.97
322.949
322.849
322.749
322.65
322.554
322.46
322.37
322.285
322.206
322.134
322.07
322.016
321.972
321.934
321.891
322.946
322.839
322.733
322.628
322.525
322.425
322.329
322.238
322.153
322.076
322.009
321.954
321.912
321.882
321.857
322.943
322.829
322.716
322.604
322.494
322.387
322.284
322.185
322.094
322.011
321.939
321.882
321.844
321.827
321.831
322.939
322.818
322.698
322.579
322.461
322.346
322.235
322.129
322.029
321.937
321.859
321.797
321.76
321.758
321.799
322.936
322.807
322.679
322.552
322.427
322.303
322.183
322.067
321.957
321.856
321.766
321.695
321.653
321.658
321.742
322.932
322.795
322.659
322.524
322.39
322.258
322.128
322.002
321.88
321.766
321.661
321.573
321.513
321.503
321.611
289.719
288.563
287.801
287.22
286.732
286.299
285.899
285.522
285.162
284.813
284.473
284.14
283.811
283.485
283.162
289.315
288.195
287.519
287.001
286.557
286.155
285.78
285.423
285.08
284.746
284.42
284.099
283.783
283.469
283.156
287.712
287.519
287.128
286.73
286.352
285.992
285.647
285.314
284.991
284.674
284.363
284.056
283.752
283.451
283.15
287.083
286.979
286.741
286.446
286.134
285.819
285.507
285.2
284.897
284.598
284.303
284.011
283.72
283.432
283.144
286.491
286.532
286.394
286.175
285.917
285.644
285.363
285.082
284.8
284.52
284.241
283.964
283.688
283.412
283.137
286.223
286.211
286.104
285.929
285.712
285.473
285.221
284.963
284.703
284.441
284.178
283.916
283.654
283.392
283.131
285.946
285.954
285.863
285.712
285.523
285.31
285.083
284.847
284.606
284.362
284.115
283.868
283.62
283.372
283.124
285.822
285.765
285.662
285.521
285.35
285.158
284.951
284.734
284.511
284.284
284.053
283.821
283.587
283.352
283.118
285.723
285.607
285.489
285.351
285.192
285.016
284.826
284.626
284.42
284.208
283.992
283.774
283.554
283.333
283.111
285.554
285.451
285.33
285.195
285.046
284.882
284.708
284.523
284.332
284.135
283.933
283.729
283.522
283.314
283.105
285.444
285.307
285.181
285.05
284.909
284.757
284.596
284.425
284.248
284.064
283.876
283.685
283.491
283.295
283.099
285.263
285.154
285.035
284.911
284.78
284.639
284.49
284.332
284.168
283.997
283.822
283.643
283.461
283.277
283.093
285.145
285.009
284.893
284.778
284.657
284.528
284.39
284.244
284.092
283.933
283.77
283.603
283.432
283.26
283.087
284.945
284.85
284.751
284.649
284.539
284.422
284.295
284.161
284.02
283.873
283.721
283.564
283.405
283.244
283.081
284.801
284.694
284.611
284.524
284.428
284.321
284.206
284.083
283.952
283.816
283.674
283.528
283.379
283.229
283.076
284.517
284.522
284.474
284.406
284.322
284.228
284.123
284.01
283.889
283.762
283.63
283.494
283.355
283.214
283.071
284.39
284.385
284.352
284.297
284.225
284.141
284.046
283.941
283.83
283.712
283.589
283.462
283.332
283.2
283.067
284.25
284.267
284.246
284.2
284.137
284.061
283.974
283.878
283.775
283.666
283.551
283.433
283.311
283.188
283.063
284.179
284.177
284.156
284.115
284.059
283.989
283.909
283.82
283.725
283.623
283.516
283.405
283.291
283.176
283.059
284.095
284.1
284.08
284.041
283.989
283.924
283.85
283.768
283.678
283.583
283.483
283.38
283.273
283.165
283.055
284.052
284.04
284.016
283.978
283.927
283.866
283.797
283.719
283.636
283.547
283.453
283.356
283.256
283.155
283.052
284.001
283.989
283.962
283.922
283.873
283.815
283.748
283.676
283.597
283.513
283.426
283.334
283.241
283.145
283.048
283.976
283.949
283.915
283.874
283.825
283.768
283.705
283.636
283.562
283.483
283.4
283.314
283.226
283.136
283.046
283.955
283.914
283.875
283.831
283.781
283.726
283.666
283.6
283.53
283.455
283.377
283.296
283.213
283.129
283.043
283.918
283.879
283.836
283.791
283.742
283.688
283.63
283.567
283.5
283.43
283.356
283.28
283.201
283.121
283.041
283.893
283.845
283.8
283.755
283.706
283.653
283.597
283.537
283.473
283.406
283.337
283.264
283.19
283.115
283.038
283.852
283.81
283.765
283.72
283.672
283.621
283.567
283.51
283.449
283.385
283.319
283.25
283.18
283.109
283.036
283.824
283.775
283.731
283.686
283.64
283.591
283.54
283.485
283.427
283.366
283.303
283.238
283.171
283.103
283.034
283.777
283.737
283.696
283.654
283.61
283.564
283.514
283.461
283.406
283.348
283.288
283.226
283.163
283.098
283.033
283.743
283.7
283.663
283.624
283.582
283.538
283.49
283.44
283.387
283.332
283.275
283.215
283.155
283.093
283.031
283.677
283.66
283.63
283.595
283.556
283.514
283.469
283.421
283.37
283.317
283.262
283.206
283.148
283.089
283.03
283.647
283.628
283.601
283.569
283.532
283.492
283.449
283.403
283.355
283.304
283.251
283.197
283.142
283.085
283.029
283.615
283.6
283.576
283.546
283.511
283.473
283.431
283.387
283.341
283.292
283.241
283.189
283.136
283.082
283.027
283.598
283.579
283.555
283.526
283.493
283.456
283.416
283.373
283.328
283.281
283.232
283.182
283.131
283.079
283.026
283.579
283.561
283.537
283.509
283.476
283.44
283.402
283.36
283.317
283.271
283.224
283.176
283.126
283.076
283.025
283.57
283.548
283.523
283.494
283.462
283.427
283.389
283.349
283.307
283.263
283.217
283.17
283.122
283.074
283.025
283.559
283.537
283.511
283.482
283.451