/*--------------------------------*- C++ -*----------------------------------*\
| =========                 |                                                 |
| \\      /  F ield         | OpenFOAM: The Open Source CFD Toolbox           |
|  \\    /   O peration     | Version:  5.x                                   |
|   \\  /    A nd           | Web:      www.OpenFOAM.org                      |
|    \\/     M anipulation  |                                                 |
\*---------------------------------------------------------------------------*/
FoamFile
{
    version     2.0;
    format      ascii;
    class       volScalarField;
    location    "19.8999";
    object      gradTx;
}
// * * * * * * * * * * * * * * * * * * * * * * * * * * * * * * * * * * * * * //

dimensions      [0 -1 0 1 0 0 0];

internalField   nonuniform List<scalar> 
6300
(
-31.9582
-32.0289
-32.1696
-32.3789
-32.6546
-32.9934
-33.3912
-33.8425
-34.3407
-34.8775
-35.4437
-36.029
-36.6221
-37.2119
-37.7877
-31.8875
-31.9589
-32.101
-32.3125
-32.5914
-32.9344
-33.3377
-33.7957
-34.3019
-34.8481
-35.4248
-36.0211
-36.6254
-37.2258
-37.811
-31.7454
-31.8181
-31.963
-32.1789
-32.4639
-32.8153
-33.2293
-33.7008
-34.2232
-34.7883
-35.3861
-36.0051
-36.6326
-37.2551
-37.8596
-31.5306
-31.6052
-31.754
-31.9761
-32.2701
-32.6336
-33.0635
-33.555
-34.1018
-34.6957
-35.3262
-35.9808
-36.6447
-37.3023
-37.9376
-31.2412
-31.3181
-31.4716
-31.7015
-32.0067
-32.3857
-32.836
-33.3538
-33.9333
-34.5665
-35.2424
-35.947
-36.6633
-37.3718
-38.0521
-30.8749
-30.9542
-31.1131
-31.3515
-31.6694
-32.0664
-32.5411
-33.0909
-33.7112
-34.3945
-35.1298
-35.9016
-36.6896
-37.4693
-38.2135
-30.4292
-30.5109
-30.6749
-30.922
-31.2531
-31.6693
-32.171
-32.7575
-33.426
-34.1706
-34.9807
-35.8399
-36.7242
-37.6026
-38.4371
-29.9017
-29.9854
-30.1537
-30.4083
-30.7517
-31.1867
-31.7161
-32.3421
-33.0648
-33.8812
-34.7826
-35.7529
-36.765
-37.7796
-38.7442
-29.2906
-29.3753
-29.5462
-29.806
-30.1587
-30.6097
-31.1647
-31.8298
-32.6099
-33.5066
-34.5158
-35.624
-36.8032
-38.0065
-39.163
-28.5947
-28.679
-28.8497
-29.1106
-29.4675
-29.9285
-30.5032
-31.2027
-32.0383
-33.0195
-34.1501
-35.4239
-36.8172
-38.2804
-39.7253
-27.8144
-27.8965
-28.063
-28.3191
-28.6723
-29.1336
-29.7168
-30.4394
-31.3212
-32.3827
-33.6413
-35.1044
-36.7614
-38.5727
-40.4521
-26.952
-27.0294
-27.1869
-27.4304
-27.7692
-28.2166
-28.7911
-29.517
-30.4244
-31.549
-32.9277
-34.5908
-36.5508
-38.7964
-41.3005
-26.0123
-26.0821
-26.2248
-26.4464
-26.7573
-27.1725
-27.7142
-28.4128
-29.3103
-30.461
-31.9294
-33.7797
-36.0533
-38.7598
-41.9986
-25.0026
-25.062
-25.1836
-25.3732
-25.6409
-26.0021
-26.4801
-27.1098
-27.943
-29.0549
-30.5484
-32.5432
-35.1185
-38.1824
-41.5953
-23.9336
-23.9798
-24.0743
-24.222
-24.4311
-24.7149
-25.0943
-25.6033
-26.2969
-27.2669
-28.6646
-30.7215
-33.6816
-37.2251
-37.6839
-38.2963
-38.7357
-39.151
-39.5402
-39.9024
-40.2376
-40.5461
-40.8285
-41.0849
-41.3152
-41.5187
-41.6946
-41.8418
-41.9594
-42.0475
-42.1069
-42.1393
-42.148
-42.1365
-42.1092
-42.0703
-42.0237
-41.9722
-41.9177
-41.8606
-41.8003
-41.7355
-41.6641
-41.5842
-41.4944
-41.394
-41.2835
-41.1642
-41.0385
-40.9091
-40.7789
-40.6506
-40.5261
-40.4061
-40.2905
-40.1781
-40.0669
-39.9548
-39.8393
-39.7188
-39.5924
-39.4602
-39.3232
-39.1834
-39.0432
-38.9053
-38.7718
-38.6444
-38.5237
-38.4094
-38.3003
-38.1943
-38.0892
-37.9829
-37.8734
-37.76
-37.6425
-37.5221
-37.4004
-37.2799
-37.1628
-37.0515
-36.9473
-36.8511
-36.7625
-36.6805
-36.6036
-36.5298
-36.4575
-36.3857
-36.3143
-36.2443
-36.1779
-36.1182
-36.0691
-36.0344
-36.0181
-36.0229
-36.0507
-36.1015
-36.1737
-36.2639
-36.3673
-36.4775
-36.5877
-38.3265
-38.7704
-39.1885
-39.579
-39.9414
-40.276
-40.5839
-40.8658
-41.1225
-41.3537
-41.5586
-41.736
-41.8842
-42.0021
-42.0889
-42.1455
-42.1737
-42.1769
-42.1593
-42.1258
-42.0815
-42.0307
-41.9767
-41.9213
-41.8651
-41.807
-41.7449
-41.6763
-41.5985
-41.5096
-41.4087
-41.2961
-41.1735
-41.0437
-40.9101
-40.7763
-40.6453
-40.5195
-40.3998
-40.2859
-40.1763
-40.0684
-39.9595
-39.8465
-39.7274
-39.6009
-39.467
-39.3273
-39.1839
-39.0401
-38.8988
-38.7631
-38.6347
-38.5145
-38.402
-38.2957
-38.193
-38.0911
-37.9873
-37.8792
-37.7657
-37.6468
-37.5238
-37.3988
-37.2748
-37.1547
-37.0411
-36.9359
-36.84
-36.7529
-36.6733
-36.599
-36.5276
-36.4568
-36.3852
-36.3123
-36.2392
-36.1682
-36.1031
-36.0481
-36.0081
-35.9875
-35.9899
-36.0175
-36.0706
-36.1477
-36.2451
-36.3573
-36.4774
-36.5977
-38.3894
-38.8424
-39.2659
-39.6584
-40.0203
-40.3531
-40.6588
-40.9396
-41.1967
-41.4299
-41.6383
-41.8194
-41.9705
-42.0892
-42.174
-42.225
-42.2442
-42.2357
-42.2048
-42.1582
-42.1021
-42.0423
-41.983
-41.9263
-41.8724
-41.8193
-41.7637
-41.7016
-41.6288
-41.5422
-41.4402
-41.3231
-41.1933
-41.0544
-40.9115
-40.7694
-40.6326
-40.504
-40.3851
-40.2752
-40.1719
-40.0716
-39.9699
-39.8626
-39.7465
-39.6198
-39.4825
-39.3364
-39.1852
-39.033
-38.8846
-38.7437
-38.6132
-38.4941
-38.3858
-38.2859
-38.1906
-38.0959
-37.9977
-37.8927
-37.7792
-37.6571
-37.5283
-37.3959
-37.2641
-37.1371
-37.0186
-36.9113
-36.8162
-36.7326
-36.6584
-36.5903
-36.5245
-36.4574
-36.3864
-36.3106
-36.2309
-36.1502
-36.0732
-36.0056
-35.9539
-35.9239
-35.9207
-35.9475
-36.0053
-36.0925
-36.205
-36.336
-36.4771
-36.6187
-38.4899
-38.9568
-39.3878
-39.782
-40.1412
-40.469
-40.7698
-41.0477
-41.305
-41.5422
-41.7571
-41.9458
-42.1035
-42.2252
-42.3078
-42.3502
-42.3547
-42.3265
-42.2732
-42.204
-42.128
-42.0532
-41.9854
-41.9273
-41.8784
-41.8352
-41.7921
-41.7422
-41.6789
-41.5969
-41.4933
-41.3685
-41.2259
-41.0711
-40.9117
-40.7551
-40.6079
-40.4747
-40.3574
-40.2549
-40.1632
-40.0767
-39.9883
-39.8915
-39.781
-39.654
-39.5104
-39.3532
-39.1877
-39.0208
-38.8593
-38.7094
-38.5752
-38.4583
-38.3576
-38.2692
-38.1875
-38.1058
-38.0179
-37.9185
-37.805
-37.6772
-37.538
-37.3923
-37.2465
-37.1071
-36.98
-36.8691
-36.7757
-36.6988
-36.6348
-36.5784
-36.5232
-36.4634
-36.3946
-36.3145
-36.2241
-36.127
-36.0297
-35.9404
-35.8682
-35.8217
-35.8083
-35.8329
-35.8976
-36.001
-36.138
-36.3002
-36.4763
-36.6532
-38.637
-39.1229
-39.5626
-39.956
-40.3072
-40.6237
-40.9138
-41.1852
-41.4425
-41.6865
-41.9137
-42.1171
-42.2881
-42.4177
-42.4992
-42.53
-42.5123
-42.4534
-42.3646
-42.2596
-42.1521
-42.0541
-41.9739
-41.915
-41.8761
-41.8511
-41.8302
-41.8023
-41.756
-41.6825
-41.577
-41.4397
-41.2758
-41.0946
-40.9077
-40.7271
-40.563
-40.4226
-40.3085
-40.2188
-40.1473
-40.0843
-40.0189
-39.9401
-39.8394
-39.712
-39.5578
-39.3818
-39.1924
-39.0006
-38.8174
-38.6525
-38.5123
-38.3993
-38.3115
-38.2429
-38.1842
-38.1248
-38.0544
-37.9647
-37.8512
-37.7138
-37.5569
-37.3887
-37.2195
-37.0596
-36.9182
-36.8015
-36.7116
-36.6465
-36.6004
-36.5645
-36.5285
-36.4826
-36.4189
-36.3335
-36.2267
-36.104
-35.9746
-35.8507
-35.7455
-35.672
-35.641
-35.6605
-35.7342
-35.861
-36.0349
-36.2445
-36.4741
-36.7055
-38.8443
-39.3557
-39.8042
-40.1906
-40.5234
-40.8163
-41.0849
-41.3431
-41.5993
-41.855
-42.1043
-42.3353
-42.5323
-42.6793
-42.7639
-42.7797
-42.7293
-42.6233
-42.4794
-42.3188
-42.1627
-42.0294
-41.9315
-41.874
-41.8539
-41.8608
-41.8787
-41.8887
-41.8722
-41.8142
-41.7065
-41.5492
-41.3507
-41.1263
-40.8948
-40.6752
-40.4841
-40.3325
-40.2245
-40.1567
-40.1189
-40.0956
-40.0687
-40.0203
-39.9362
-39.8084
-39.6369
-39.4296
-39.2007
-38.9679
-38.7492
-38.5599
-38.4103
-38.3041
-38.238
-38.2021
-38.1818
-38.1597
-38.1187
-38.0453
-37.9319
-37.7784
-37.5922
-37.3868
-37.1789
-36.9854
-36.821
-36.6953
-36.6117
-36.5669
-36.5513
-36.5507
-36.5482
-36.5273
-36.4747
-36.3831
-36.2525
-36.0906
-35.9117
-35.734
-35.5773
-35.4609
-35.4011
-35.41
-35.4941
-35.6534
-35.8804
-36.1598
-36.4695
-36.7824
-39.1333
-39.6794
-40.1351
-40.5025
-40.797
-41.0438
-41.2712
-41.5038
-41.7567
-42.0326
-42.3214
-42.6024
-42.8483
-43.031
-43.1273
-43.1249
-43.0262
-42.8479
-42.6184
-42.3713
-42.1403
-41.9538
-41.8311
-41.7792
-41.7928
-41.8546
-41.9385
-42.0134
-42.0481
-42.0176
-41.9075
-41.7178
-41.463
-41.1683
-40.8645
-40.5825
-40.3484
-40.1796
-40.0825
-40.0514
-40.0696
-40.1122
-40.1495
-40.152
-40.096
-39.9677
-39.7674
-39.5084
-39.2146
-38.915
-38.6387
-38.4102
-38.2457
-38.1511
-38.1208
-38.1391
-38.1821
-38.2216
-38.2297
-38.1836
-38.0704
-37.89
-37.6552
-37.3885
-37.1174
-36.8695
-36.668
-36.5283
-36.4558
-36.4451
-36.4807
-36.5396
-36.5943
-36.6175
-36.5867
-36.4888
-36.3231
-36.1019
-35.8471
-35.5869
-35.3512
-35.1683
-35.0623
-35.0512
-35.1459
-35.3483
-35.6503
-36.0316
-36.4602
-36.895
-39.5372
-40.1331
-40.5931
-40.9193
-41.1394
-41.2993
-41.45
-41.6351
-41.881
-42.1918
-42.5499
-42.92
-43.2555
-43.5071
-43.6329
-43.609
-43.4375
-43.1465
-42.7826
-42.4006
-42.0538
-41.7866
-41.6285
-41.5901
-41.6621
-41.8166
-42.0113
-42.1957
-42.3182
-42.3356
-42.223
-41.9803
-41.6328
-41.2233
-40.8027
-40.4207
-40.1186
-39.9236
-39.8455
-39.8749
-39.9852
-40.1363
-40.2802
-40.3682
-40.3596
-40.2309
-39.9823
-39.6374
-39.2368
-38.8286
-38.4594
-38.1682
-37.9805
-37.9054
-37.9338
-38.0405
-38.1873
-38.3288
-38.4188
-38.4185
-38.3055
-38.0799
-37.7641
-37.3965
-37.0226
-36.6868
-36.4261
-36.2647
-36.2111
-36.2566
-36.3766
-36.5345
-36.6859
-36.7856
-36.7953
-36.6919
-36.4739
-36.1614
-35.7903
-35.4044
-35.0489
-34.7649
-34.5867
-34.5403
-34.6424
-34.8998
-35.3059
-35.8354
-36.4419
-37.0611
-40.1066
-40.7825
-41.2438
-41.4889
-41.5686
-41.568
-41.5793
-41.679
-41.9118
-42.2829
-42.7611
-43.2873
-43.7835
-44.1645
-44.3539
-44.3055
-44.0209
-43.55
-42.9729
-42.3791
-41.8527
-41.4623
-41.2533
-41.2422
-41.4128
-41.7206
-42.099
-42.4671
-42.7395
-42.8409
-42.7256
-42.3939
-41.8918
-41.2943
-40.6854
-40.144
-39.7345
-39.4993
-39.4537
-39.5821
-39.8421
-40.1707
-40.4913
-40.7235
-40.7963
-40.6669
-40.3357
-39.8466
-39.2702
-38.6858
-38.1679
-37.777
-37.5532
-37.5105
-37.6342
-37.884
-38.2002
-38.5103
-38.7379
-38.8157
-38.7028
-38.3997
-37.9476
-37.4135
-36.8728
-36.3961
-36.0411
-35.8458
-35.8237
-35.9607
-36.2182
-36.5386
-36.8519
-37.0834
-37.1667
-37.0601
-36.7608
-36.3053
-35.7546
-35.1784
-34.6438
-34.2092
-33.9215
-33.8154
-33.9153
-34.2374
-34.7838
-35.5284
-36.405
-37.3101
-40.9184
-41.7408
-42.2058
-42.2965
-42.1137
-41.8195
-41.5812
-41.5314
-41.7436
-42.2195
-42.9032
-43.6979
-44.4776
-45.0976
-45.4175
-45.3421
-44.8725
-44.1067
-43.1871
-42.2605
-41.4558
-40.8767
-40.5934
-40.6324
-40.9659
-41.5231
-42.2016
-42.8763
-43.4068
-43.6583
-43.54
-43.0526
-42.2884
-41.3816
-40.4708
-39.6774
-39.0991
-38.8022
-38.8112
-39.0996
-39.6004
-40.2166
-40.8299
-41.3081
-41.5243
-41.3933
-40.9166
-40.1815
-39.3149
-38.4474
-37.6936
-37.1454
-36.8651
-36.876
-37.1528
-37.632
-38.2219
-38.8106
-39.2726
-39.4874
-39.3742
-38.9339
-38.2491
-37.4401
-36.6308
-35.9303
-35.426
-35.1775
-35.2071
-35.4912
-35.9691
-36.5532
-37.1356
-37.5945
-37.8117
-37.7057
-37.2727
-36.5863
-35.7555
-34.8924
-34.0947
-33.442
-32.9946
-32.794
-32.8683
-33.2517
-33.9764
-35.0312
-36.3273
-37.6913
-42.0826
-43.2142
-43.7064
-43.4976
-42.8193
-41.9906
-41.3117
-41.0063
-41.1958
-41.857
-42.8857
-44.1299
-45.4014
-46.4631
-47.0505
-46.946
-46.1509
-44.8847
-43.4116
-41.9664
-40.7342
-39.865
-39.4695
-39.5985
-40.1968
-41.1507
-42.3098
-43.4933
-44.476
-45.0083
-44.8856
-44.1102
-42.89
-41.4749
-40.0871
-38.9011
-38.0587
-37.6645
-37.7663
-38.3115
-39.1923
-40.2666
-41.3632
-42.2699
-42.752
-42.6176
-41.8698
-40.7056
-39.361
-38.0453
-36.9231
-36.1278
-35.7579
-35.8585
-36.38
-37.2205
-38.2455
-39.2934
-40.1631
-40.6316
-40.5166
-39.8204
-38.7293
-37.4671
-36.2324
-35.1817
-34.4425
-34.1088
-34.2242
-34.7424
-35.5671
-36.5703
-37.5972
-38.4535
-38.9221
-38.8223
-38.1496
-37.0749
-35.8031
-34.5124
-33.3367
-32.3791
-31.7123
-31.3766
-31.3762
-31.7747
-32.6936
-34.1864
-36.1518
-38.2925
-43.7274
-45.61
-46.2172
-45.3731
-43.7406
-41.9464
-40.5046
-39.7687
-39.9688
-40.9653
-42.5577
-44.5228
-46.6275
-48.5114
-49.6797
-49.5447
-48.1077
-45.9607
-43.5956
-41.3657
-39.4897
-38.1712
-37.5904
-37.8888
-38.9157
-40.4827
-42.3829
-44.3994
-46.1936
-47.3014
-47.1714
-45.8082
-43.7722
-41.5291
-39.4127
-37.6298
-36.373
-35.8127
-36.0827
-37.04
-38.5059
-40.2843
-42.1699
-43.8433
-44.8676
-44.7253
-43.4225
-41.4894
-39.3654
-37.3646
-35.6817
-34.4977
-33.9733
-34.235
-35.1477
-36.5431
-38.2362
-40.033
-41.6311
-42.6161
-42.496
-41.2753
-39.456
-37.4545
-35.569
-33.9848
-32.8749
-32.3932
-32.6614
-33.5525
-34.908
-36.5533
-38.3043
-39.8708
-40.851
-40.7639
-39.6054
-37.8474
-35.8781
-33.9666
-32.2647
-30.8973
-29.9535
-29.4763
-29.3096
-29.5485
-30.5843
-32.661
-35.724
-39.2779
-45.8445
-49.8495
-50.8246
-48.3825
-44.8896
-41.3939
-38.6816
-37.1834
-37.5951
-39.2158
-41.6927
-44.7149
-48.1715
-51.5901
-54.1858
-54.0181
-51.0869
-47.3506
-43.5852
-40.2554
-37.4425
-35.4152
-34.4452
-35.13
-36.8567
-39.3349
-42.2887
-45.6256
-48.8997
-51.3767
-51.2332
-48.4749
-44.9527
-41.4008
-38.2579
-35.6012
-33.6843
-32.7653
-33.4096
-35.036
-37.3693
-40.1476
-43.2824
-46.3512
-48.663
-48.5041
-45.8829
-42.5482
-39.1923
-36.2263
-33.722
-31.9176
-31.0567
-31.674
-33.2205
-35.4372
-38.0774
-41.0586
-43.982
-46.192
-46.06
-43.5924
-40.4451
-37.2747
-34.4717
-32.105
-30.4027
-29.598
-30.2014
-31.6937
-33.8316
-36.3841
-39.2771
-42.1323
-44.3168
-44.2483
-41.9246
-38.9242
-35.8697
-33.1189
-30.7112
-28.8053
-27.5227
-27.1292
-26.6588
-26.1747
-26.9762
-29.7155
-34.5891
-40.9788
-47.3697
-58.4682
-60.3937
-52.9218
-46.0299
-39.7066
-35.1087
-31.8475
-33.4802
-36.2334
-40.0426
-44.2815
-49.7704
-55.8536
-62.6714
-62.4709
-55.2255
-48.7825
-42.9474
-38.4009
-34.2641
-31.1366
-28.917
-30.8711
-33.7155
-37.5024
-41.6427
-46.9423
-52.7534
-59.2257
-59.0601
-52.2416
-46.1757
-40.6838
-36.403
-32.507
-29.5588
-27.4666
-29.3223
-32.014
-35.5921
-39.4975
-44.4898
-49.9495
-56.0162
-55.8284
-49.3708
-43.6374
-38.4576
-34.4233
-30.7545
-27.9788
-26.0115
-27.7748
-30.3283
-33.7216
-37.4274
-42.1673
-47.3603
-53.1406
-52.9874
-46.888
-41.4675
-36.5661
-32.7459
-29.2685
-26.6379
-24.7751
-26.4614
-28.9053
-32.158
-35.7248
-40.3045
-45.3594
-51.0271
-50.9803
-45.2181
-40.0789
-35.4241
-31.7772
-28.4353
-25.8158
-23.8115
-24.8926
-24.0281
-20.9493
-20.5778
-23.6966
-31.2712
-44.1096
-41.0082
-80.2533
-83.6415
-56.775
-46.3728
-35.5322
-29.6105
-19.4642
-27.7521
-31.7301
-37.7739
-42.0481
-50.5136
-59.0591
-81.2633
-81.0686
-58.2088
-49.3388
-40.454
-35.9562
-29.6324
-25.5505
-17.3785
-25.3304
-29.2171
-35.1608
-39.3274
-47.5223
-55.6551
-76.6335
-76.4671
-54.9246
-46.5724
-38.2227
-33.9938
-28.0482
-24.2007
-16.483
-24.031
-27.7155
-33.3438
-37.2822
-45.0241
-52.6736
-72.3758
-72.1814
-51.8159
-43.9295
-36.0735
-32.0938
-26.5009
-22.8759
-15.5944
-22.7377
-26.2265
-31.5562
-35.2882
-42.6238
-49.8929
-68.6332
-68.4772
-49.2062
-41.7423
-34.3003
-30.5267
-25.2126
-21.7676
-14.8415
-21.6303
-24.9525
-30.032
-33.6068
-40.6476
-47.7039
-65.9662
-65.9423
-47.6147
-40.5359
-33.5271
-29.9961
-25.119
-21.9404
-15.6573
-25.4577
-24.5858
-11.8255
-9.1535
-11.2611
-20.3735
-50.2146
-36.7002
-36.8043
-36.8796
-36.9209
-36.9262
-36.8976
-36.8396
-36.7591
-36.6643
-36.5637
-36.4657
-36.3776
-36.3058
-36.2551
-36.2289
-36.7202
-36.833
-36.9137
-36.9567
-36.9603
-36.9269
-36.862
-36.7734
-36.6701
-36.5612
-36.4557
-36.3613
-36.2846
-36.2306
-36.2028
-36.7625
-36.8936
-36.9856
-37.0319
-37.0314
-36.9877
-36.9082
-36.8025
-36.6814
-36.5555
-36.4346
-36.3273
-36.2407
-36.18
-36.1488
-36.8322
-36.9934
-37.1032
-37.154
-37.1456
-37.0843
-36.9805
-36.847
-36.6975
-36.5446
-36.3998
-36.2727
-36.1709
-36.0999
-36.0635
-36.9383
-37.1446
-37.2799
-37.3353
-37.3129
-37.2233
-37.0824
-36.9077
-36.7169
-36.5257
-36.3474
-36.1928
-36.0702
-35.9853
-35.9419
-37.0951
-37.3669
-37.5365
-37.5943
-37.5473
-37.4138
-37.2179
-36.9846
-36.7367
-36.4938
-36.2713
-36.0811
-35.9317
-35.8291
-35.7769
-37.326
-37.6912
-37.9048
-37.9581
-37.8681
-37.6668
-37.391
-37.076
-36.7516
-36.4414
-36.1629
-35.9284
-35.7464
-35.6225
-35.5597
-37.669
-38.1673
-38.4333
-38.4652
-38.3003
-37.9941
-37.6032
-37.1767
-36.7524
-36.3575
-36.0105
-35.7232
-35.5032
-35.3546
-35.2798
-38.1877
-38.8755
-39.196
-39.1691
-38.8739
-38.406
-37.8512
-37.2752
-36.7237
-36.2256
-35.7982
-35.4509
-35.1885
-35.013
-34.9251
-38.9944
-39.9512
-40.306
-40.1413
-39.6203
-38.9049
-38.1203
-37.3493
-36.6415
-36.023
-35.5058
-35.0938
-34.7869
-34.5837
-34.4826
-40.2979
-41.6288
-41.9356
-41.4697
-40.5609
-39.4732
-38.3756
-37.3603
-36.4701
-35.7192
-35.1082
-34.6314
-34.2816
-34.0523
-33.9389
-42.5191
-44.3306
-44.338
-43.2411
-41.6804
-40.0514
-38.5486
-37.2464
-36.1591
-35.2756
-34.5765
-34.042
-33.6558
-33.4051
-33.2819
-46.5972
-48.8365
-47.8445
-45.4763
-42.8681
-40.5034
-38.5209
-36.9175
-35.6445
-34.6477
-33.8799
-33.3045
-32.8943
-32.6306
-32.5015
-54.9119
-56.5739
-52.7272
-47.9515
-43.8124
-40.5731
-38.1143
-36.258
-34.8537
-33.7906
-32.9911
-32.4018
-31.9864
-31.7213
-31.5921
-74.492
-69.8201
-58.5388
-49.7901
-43.8568
-39.8621
-37.1053
-35.1466
-33.7216
-32.67
-31.8921
-31.3251
-30.9282
-30.6761
-30.5536
-22.9114
-22.9433
-23.0087
-23.1103
-23.2536
-23.4471
-23.7054
-24.053
-24.5345
-25.2352
-26.3312
-28.2143
-31.7993
-39.089
-52.1894
-21.9598
-21.978
-22.0147
-22.0709
-22.1482
-22.2497
-22.3805
-22.5507
-22.7801
-23.1133
-23.6604
-24.739
-27.458
-36.6223
-78.1002
-20.9956
-20.9997
-21.0071
-21.0167
-21.0261
-21.0319
-21.0284
-21.0071
-20.9538
-20.843
-20.6191
-20.1089
-18.5454
-11.7042
25.3255
-20.0287
-20.019
-19.9981
-19.9626
-19.9065
-19.8204
-19.6887
-19.4858
-19.1674
-18.6518
-17.7778
-16.2042
-13.2116
-7.74009
-3.89882
-19.0684
-19.0461
-18.9992
-18.9227
-18.8078
-18.6406
-18.3984
-18.0448
-17.5179
-16.71
-15.4249
-13.2927
-9.58471
-2.63411
13.4331
-18.1236
-18.0903
-18.0209
-17.9094
-17.7454
-17.5127
-17.1856
-16.724
-16.0634
-15.0993
-13.6607
-11.4798
-8.21069
-3.85545
-1.97779
-17.2019
-17.1596
-17.0719
-16.9325
-16.7308
-16.4503
-16.0662
-15.5414
-14.8198
-13.8178
-12.4118
-10.4237
-7.5916
-3.35542
4.8937
-16.3096
-16.2603
-16.1587
-15.9989
-15.7709
-15.4599
-15.0446
-14.4953
-13.7709
-12.8169
-11.5669
-9.95399
-7.94775
-5.642
-3.48441
-15.4516
-15.3973
-15.2861
-15.1126
-14.8685
-14.5418
-14.1161
-13.5709
-12.8813
-12.0215
-10.9739
-9.75746
-8.51195
-7.82568
-10.3643
-14.6313
-14.5738
-14.4566
-14.2754
-14.0236
-13.6923
-13.2707
-12.7468
-12.11
-11.3564
-10.4983
-9.58109
-8.68783
-7.76989
-5.0596
-13.8509
-13.7917
-13.6716
-13.4873
-13.2339
-12.9056
-12.4962
-12.001
-11.4199
-10.7638
-10.0637
-9.38808
-8.88083
-8.95881
-11.8204
-13.1116
-13.0519
-12.9311
-12.747
-12.4962
-12.1752
-11.7813
-11.3147
-10.782
-10.2016
-9.61211
-9.07815
-8.66742
-8.21469
-5.59392
-12.4138
-12.3544
-12.2347
-12.0531
-11.8073
-11.4955
-11.117
-10.6745
-10.1771
-9.64583
-9.12195
-8.68264
-8.48316
-8.97618
-12.522
-11.7572
-11.6988
-11.5814
-11.4037
-11.1642
-10.862
-10.497
-10.0723
-9.59578
-9.08491
-8.57304
-8.12058
-7.818
-7.61767
-5.50807
-11.1412
-11.0842
-10.9699
-10.7971
-10.5648
-10.272
-9.91863
-9.50598
-9.03832
-8.52467
-7.98287
-7.45444
-7.08181
-7.58504
-13.4336
-10.5647
-10.5096
-10.3989
-10.2319
-10.0074
-9.72423
-9.38137
-8.97788
-8.51281
-7.98397
-7.38342
-6.68011
-5.7374
-3.84036
3.35626
-10.0265
-9.97347
-9.86708
-9.70651
-9.49063
-9.2179
-8.88623
-8.49254
-8.03158
-7.49306
-6.85534
-6.07201
-5.0557
-3.77596
-3.63318
-9.52505
-9.47445
-9.37288
-9.21959
-9.01339
-8.75249
-8.43414
-8.05393
-7.6042
-7.07104
-6.42836
-5.62571
-4.55695
-2.92199
0.743805
-9.05878
-9.01083
-8.9146
-8.76942
-8.57414
-8.32697
-8.02502
-7.6636
-7.23476
-6.72508
-6.11248
-5.36421
-4.4514
-3.47833
-3.60076
-8.62582
-8.58074
-8.49033
-8.35403
-8.17093
-7.93948
-7.65722
-7.32008
-6.92145
-6.4506
-5.89081
-5.21698
-4.38771
-3.27389
-1.02554
-8.22416
-8.18213
-8.09791
-7.97116
-7.80129
-7.58728
-7.32751
-7.01928
-6.65829
-6.23788
-5.74834
-5.1777
-4.52162
-3.85731
-3.89373
-7.8517
-7.81282
-7.73503
-7.61825
-7.4623
-7.26688
-7.03145
-6.75512
-6.43641
-6.07317
-5.66219
-5.19776
-4.66125
-3.9541
-2.46897
-7.50623
-7.47054
-7.39924
-7.29253
-7.15071
-6.97426
-6.76382
-6.52038
-6.24546
-5.9416
-5.61316
-5.26789
-4.91937
-4.59114
-4.33106
-7.18556
-7.15298
-7.08804
-6.99119
-6.86319
-6.70523
-6.5191
-6.30749
-6.07462
-5.8271
-5.57581
-5.34028
-5.16342
-5.18085
-6.01252
-6.88751
-6.8579
-6.799
-6.71148
-6.59649
-6.45578
-6.29206
-6.10939
-5.91396
-5.71522
-5.52753
-5.37192
-5.27253
-5.20511
-4.67148
-6.61004
-6.58317
-6.52984
-6.45086
-6.34764
-6.22232
-6.07819
-5.92014
-5.75559
-5.59566
-5.45699
-5.36451
-5.35946
-5.55312
-6.55984
-6.35121
-6.32683
-6.27848
-6.20708
-6.11413
-6.00194
-5.87397
-5.73542
-5.59402
-5.46134
-5.35438
-5.29638
-5.3084
-5.3365
-4.72528
-6.10933
-6.08713
-6.04315
-5.97828
-5.89398
-5.7925
-5.67712
-5.55268
-5.42641
-5.30915
-5.21776
-5.17962
-5.2462
-5.56383
-6.88823
-5.88286
-5.86255
-5.82232
-5.76296
-5.68578
-5.59272
-5.48655
-5.37123
-5.25252
-5.13901
-5.04418
-4.99013
-5.00964
-5.09202
-4.56791
-5.67051
-5.65182
-5.61477
-5.56002
-5.48862
-5.40205
-5.30233
-5.19213
-5.07503
-4.95591
-4.84227
-4.74957
-4.72944
-5.04137
-7.28656
-5.47113
-5.45384
-5.41951
-5.36864
-5.30198
-5.22051
-5.12538
-5.01784
-4.89895
-4.769
-4.62582
-4.45861
-4.21865
-3.64818
-1.16655
-5.28377
-5.2677
-5.23574
-5.18824
-5.12564
-5.04845
-4.95706
-4.85143
-4.73055
-4.59129
-4.42605
-4.21817
-3.93738
-3.58216
-3.72096
-5.10756
-5.0926
-5.06278
-5.01832
-4.95944
-4.88627
-4.79862
-4.6956
-4.57491
-4.43163
-4.2559
-4.02838
-3.70779
-3.17309
-1.81433
-4.94175
-4.92781
-4.89998
-4.85841
-4.80315
-4.73414
-4.65087
-4.55206
-4.43497
-4.29449
-4.12172
-3.90321
-3.62689
-3.33628
-3.52148
-4.78563
-4.77265
-4.74675
-4.708
-4.65643
-4.59191
-4.51391
-4.42119
-4.31129
-4.17978
-4.01931
-3.81818
-3.55591
-3.16904
-2.2629
-4.63853
-4.62648
-4.60243
-4.56649
-4.51871
-4.45905
-4.38718
-4.30227
-4.2026
-4.08518
-3.94514
-3.77562
-3.57147
-3.36238
-3.46935
-4.4998
-4.48863
-4.46638
-4.43319
-4.38924
-4.33467
-4.26952
-4.19358
-4.10626
-4.0063
-3.89144
-3.75711
-3.59047
-3.33625
-2.68665
-4.36882
-4.35849
-4.33793
-4.30738
-4.26715
-4.21764
-4.15934
-4.09281
-4.01868
-3.93777
-3.85127
-3.76104
-3.67029
-3.58467
-3.51622
-4.24502
-4.23544
-4.21643
-4.18829
-4.1515
-4.10672
-4.05489
-3.99731
-3.93581
-3.87314
-3.81368
-3.76532
-3.74656
-3.82116
-4.29823
-4.12788
-4.11895
-4.10127
-4.07521
-4.04139
-4.0007
-3.95445
-3.90453
-3.85375
-3.80628
-3.76838
-3.74906
-3.75799
-3.77814
-3.54299
-4.01694
-4.00853
-3.99192
-3.96753
-3.93605
-3.89854
-3.85655
-3.81236
-3.76939
-3.73277
-3.71017
-3.7132
-3.76164
-3.91241
-4.49296
-3.91183
-3.90381
-3.88798
-3.86477
-3.83491
-3.7995
-3.76017
-3.71934
-3.68063
-3.64953
-3.63417
-3.64579
-3.69422
-3.74822
-3.44808
-3.81231
-3.80452
-3.78916
-3.76663
-3.73763
-3.70319
-3.66484
-3.62484
-3.5866
-3.55535
-3.53942
-3.55284
-3.62294
-3.82995
-4.59274
-3.71818
-3.7105
-3.69532
-3.67299
-3.64412
-3.60959
-3.57065
-3.52913
-3.48771
-3.45053
-3.42431
-3.42052
-3.45658
-3.52572
-3.25237
-3.6294
-3.6217
-3.60643
-3.5839
-3.55456
-3.51905
-3.47826
-3.43335
-3.38588
-3.3381
-3.29362
-3.26052
-3.26726
-3.45932
-4.73688
-3.54597
-3.53814
-3.52259
-3.49954
-3.46927
-3.43219
-3.38873
-3.33933
-3.28428
-3.22338
-3.15504
-3.07287
-2.94925
-2.63911
-1.25179
-3.46797
-3.45995
-3.44398
-3.42018
-3.38872
-3.34975
-3.30333
-3.24925
-3.18674
-3.11382
-3.02606
-2.91399
-2.76078
-2.56692
-2.66003
-3.39555
-3.38728
-3.37079
-3.34614
-3.31339
-3.2725
-3.22325
-3.16503
-3.09642
-3.01458
-2.91395
-2.78368
-2.60053
-2.29545
-1.51782
-3.32886
-3.32033
-3.30328
-3.27774
-3.2437
-3.20105
-3.14942
-3.08802
-3.0153
-2.92839
-2.82244
-2.6901
-2.52497
-2.35213
-2.45066
-3.26811
-3.25929
-3.24166
-3.21524
-3.18001
-3.13583
-3.08236
-3.01888
-2.94402
-2.85543
-2.74924
-2.61931
-2.45475
-2.22036
-1.69322
-3.21348
-3.20436
-3.18615
-3.15887
-3.12253
-3.07706
-3.02226
-2.95763
-2.88229
-2.79471
-2.69252
-2.57256
-2.43302
-2.29189
-2.32838
-3.16518
-3.15576
-3.13694
-3.10879
-3.07139
-3.02478
-2.96897
-2.90383
-2.82906
-2.74412
-2.64814
-2.5394
-2.41242
-2.24005
-1.86077
-3.12344
-3.11367
-3.0942
-3.06514
-3.02664
-2.9789
-2.92217
-2.85671
-2.78288
-2.70121
-2.61263
-2.51891
-2.42333
-2.33191
-2.25784
-3.08848
-3.07833
-3.05813
-3.02803
-2.9883
-2.93928
-2.88143
-2.81542
-2.74215
-2.66309
-2.5807
-2.49972
-2.43135
-2.41171
-2.60347
-3.06056
-3.04998
-3.02893
-2.99763
-2.95641
-2.90577
-2.84637
-2.77915
-2.70546
-2.62729
-2.54778
-2.47179
-2.40552
-2.34469
-2.17033
-3.03999
-3.0289
-3.00685
-2.97411
-2.93108
-2.87835
-2.81675
-2.74739
-2.67186
-2.59242
-2.51243
-2.4371
-2.37591
-2.35653
-2.528
-3.02712
-3.01544
-2.99221
-2.95773
-2.91248
-2.8571
-2.7925
-2.71991
-2.64098
-2.55794
-2.47384
-2.39258
-2.31727
-2.23582
-2.01305
-3.02237
-3.00999
-2.98537
-2.94885
-2.9009
-2.84224
-2.77381
-2.69684
-2.61295
-2.5242
-2.43329
-2.34395
-2.26289
-2.21325
-2.33508
-3.02622
-3.01303
-2.98681
-2.94789
-2.89677
-2.83418
-2.76105
-2.67859
-2.58829
-2.49195
-2.39164
-2.28956
-2.18669
-2.07161
-1.82836
-3.03923
-3.02512
-2.99707
-2.9554
-2.90062
-2.83343
-2.75477
-2.66578
-2.56783
-2.46247
-2.35124
-2.23571
-2.11898
-2.01895
-2.06604
-3.06204
-3.0469
-3.01679
-2.97202
-2.91308
-2.84066
-2.75566
-2.65918
-2.55253
-2.43705
-2.31381
-2.18271
-2.03967
-1.86414
-1.54661
-3.09535
-3.07909
-3.04669
-2.99848
-2.9349
-2.85662
-2.76451
-2.65966
-2.54337
-2.41703
-2.28184
-2.13799
-1.98293
-1.80792
-1.59647
-3.13997
-3.12247
-3.08759
-3.0356
-2.96693
-2.8822
-2.78221
-2.66808
-2.54117
-2.40316
-2.25589
-2.10106
-1.94003
-1.77702
-1.65104
-3.19675
-3.17791
-3.14036
-3.08431
-3.01013
-2.91836
-2.80975
-2.68537
-2.54669
-2.39573
-2.23519
-2.06845
-1.8985
-1.7204
-1.46654
-3.2666
-3.24636
-3.20598
-3.14561
-3.06554
-2.96621
-2.84824
-2.71259
-2.56073
-2.39494
-2.2188
-2.03806
-1.86263
-1.7164
-1.70764
-3.35051
-3.32881
-3.28547
-3.22058
-3.13434
-3.027
-2.89901
-2.75108
-2.58445
-2.40134
-2.20561
-2.00398
-1.80648
-1.61693
-1.34074
-3.44948
-3.42629
-3.37992
-3.3104
-3.21778
-3.10214
-2.96362
-2.80254
-2.61963
-2.41649
-2.19652
-1.96703
-1.74482
-1.57761
-1.65119
-3.56457
-3.53987
-3.49045
-3.41626
-3.31721
-3.19316
-3.0439
-2.86917
-2.66887
-2.44332
-2.19405
-1.92503
-1.64496
-1.37109
-1.14358
-3.69681
-3.67061
-3.61817
-3.53938
-3.43401
-3.3017
-3.14185
-2.95356
-2.73563
-2.48664
-2.20528
-1.89071
-1.54078
-1.13237
-0.477964
-3.84724
-3.81958
-3.7642
-3.68095
-3.56952
-3.42937
-3.25956
-3.05854
-2.82396
-2.55244
-2.23957
-1.88094
-1.47723
-1.06448
-0.925887
-4.01688
-3.9878
-3.92959
-3.84209
-3.72498
-3.57765
-3.39893
-3.18682
-2.93796
-2.64694
-2.30564
-1.90248
-1.41996
-0.806186
0.290436
-4.20671
-4.17626
-4.11531
-4.02379
-3.90144
-3.74771
-3.56149
-3.34064
-3.08122
-2.77637
-2.41467
-1.97913
-1.45385
-0.883201
-0.789552
-4.4177
-4.38588
-4.32228
-4.2269
-4.09968
-3.94034
-3.7481
-3.52123
-3.25604
-2.94529
-2.57497
-2.1181
-1.51925
-0.628962
1.25336
-4.65077
-4.61759
-4.55131
-4.45212
-4.32022
-4.1558
-3.95878
-3.72842
-3.4625
-3.15557
-2.79538
-2.35565
-1.78703
-1.06364
-0.862209
-4.90689
-4.87227
-4.8032
-4.70005
-4.56336
-4.39391
-4.1926
-3.96031
-3.69744
-3.40284
-3.07103
-2.68273
-2.1623
-1.13584
2.62777
-5.18706
-5.15088
-5.07877
-4.97126
-4.82926
-4.65415
-4.44794
-4.21344
-3.95441
-3.67596
-3.3859
-3.10155
-2.88899
-3.10883
-6.05522
-5.49235
-5.45444
-5.37892
-5.26643
-5.11814
-4.93597
-4.72293
-4.4836
-4.22486
-3.95714
-3.6968
-3.47051
-3.31541
-3.18839
-1.9977
-5.82396
-5.78412
-5.70474
-5.58646
-5.43056
-5.23924
-5.01618
-4.76724
-4.50155
-4.2332
-3.98405
-3.79005
-3.72233
-4.0066
-5.89692
-6.18324
-6.14128
-6.05756
-5.93262
-5.76757
-5.56456
-5.32741
-5.0625
-4.78009
-4.49591
-4.23302
-4.02188
-3.88481
-3.70949
-2.32525
-6.57166
-6.52743
-6.43901
-6.30662
-6.13094
-5.91359
-5.6579
-5.36993
-5.05987
-4.74384
-4.44606
-4.20226
-4.07386
-4.25191
-5.88292
-6.99079
-6.94427
-6.85101
-6.7107
-6.52324
-6.28925
-6.01081
-5.69269
-5.34379
-4.97911
-4.6216
-4.30251
-4.05011
-3.78532
-2.48261
-7.44222
-7.39356
-7.29567
-7.14752
-6.94787
-6.69576
-6.3913
-6.03682
-5.63867
-5.2094
-4.77046
-4.35645
-4.03495
-4.03952
-5.62512
-7.92745
-7.87705
-7.77525
-7.6201
-7.40892
-7.13863
-6.80651
-6.41128
-5.95515
-5.44641
-4.902
-4.34615
-3.79336
-3.19578
-2.42125
-8.44767
-8.39624
-8.29187
-8.13159
-7.91101
-7.62446
-7.26553
-6.82804
-6.30818
-5.70817
-5.0415
-4.33373
-3.58285
-2.47494
1.3205
-9.00362
-8.95218
-8.84731
-8.68497
-8.4589
-8.16056
-7.77911
-7.30201
-6.71686
-6.01624
-5.20953
-4.35126
-3.62029
-3.62044
-6.95759
-9.59529
-9.54523
-9.44268
-9.28259
-9.05699
-8.75436
-8.35911
-7.85102
-7.20572
-6.39799
-5.41335
-4.28037
-3.15001
-2.44857
-2.89758
-10.2217
-10.1747
-10.078
-9.92573
-9.70856
-9.41249
-9.01747
-8.49533
-7.80738
-6.9026
-5.72019
-4.20767
-2.38187
-0.477764
0.850621
-10.8808
-10.8388
-10.7519
-10.6139
-10.4149
-10.1393
-9.7641
-9.25477
-8.55962
-7.60001
-6.25629
-4.35252
-1.66811
1.89285
5.52132
-11.5691
-11.534
-11.4611
-11.3446
-11.1745
-10.9354
-10.6038
-10.1433
-9.4955
-8.56416
-7.1813
-5.03948
-1.56307
4.21657
12.7118
-12.2817
-12.2555
-12.2008
-12.1124
-11.9819
-11.7957
-11.5332
-11.1617
-10.6283
-9.84186
-8.63336
-6.65323
-3.0575
4.65449
25.8017
-146.467
-88.0209
-61.5447
-48.8948
-42.1205
-38.0758
-35.4489
-33.6386
-32.3416
-31.3917
-30.6916
-30.182
-29.8256
-29.5992
-29.4892
-182.166
-82.3657
-54.6756
-44.0006
-38.6465
-35.4671
-33.3759
-31.9113
-30.8461
-30.056
-29.4679
-29.0364
-28.733
-28.5395
-28.4452
46.8867
-26.6344
-35.9904
-35.4112
-33.6624
-32.1029
-30.8676
-29.9066
-29.1596
-28.5802
-28.1354
-27.8019
-27.564
-27.4108
-27.3357
-7.06076
-15.4621
-24.2046
-27.6342
-28.5467
-28.5135
-28.1689
-27.7533
-27.3567
-27.0109
-26.7254
-26.5012
-26.3361
-26.2278
-26.1742
25.8835
-4.05279
-16.1084
-21.6051
-24.0878
-25.1405
-25.5193
-25.5869
-25.5185
-25.3998
-25.273
-25.1593
-25.0689
-25.0068
-24.9753
-1.44056
-5.06069
-12.5669
-17.6692
-20.6218
-22.2354
-23.0859
-23.515
-23.7153
-23.7942
-23.8116
-23.8012
-23.782
-23.7646
-23.7547
11.4355
-3.36997
-10.6947
-15.226
-18.0858
-19.8603
-20.9452
-21.6019
-21.9964
-22.2313
-22.3694
-22.4492
-22.4938
-22.5172
-22.5271
-3.09305
-6.87418
-10.7624
-13.9438
-16.3033
-17.9642
-19.1018
-19.8709
-20.3883
-20.7355
-20.9678
-21.1216
-21.2204
-21.2791
-21.3065
-14.9958
-10.304
-11.3209
-13.2323
-15.0059