/*--------------------------------*- C++ -*----------------------------------*\
| =========                 |                                                 |
| \\      /  F ield         | OpenFOAM: The Open Source CFD Toolbox           |
|  \\    /   O peration     | Version:  5.x                                   |
|   \\  /    A nd           | Web:      www.OpenFOAM.org                      |
|    \\/     M anipulation  |                                                 |
\*---------------------------------------------------------------------------*/
FoamFile
{
    version     2.0;
    format      ascii;
    class       volScalarField;
    location    "17.6";
    object      gradTx;
}
// * * * * * * * * * * * * * * * * * * * * * * * * * * * * * * * * * * * * * //

dimensions      [0 -1 0 1 0 0 0];

internalField   nonuniform List<scalar> 
2048
(
0.00630486
0.0187341
0.0306383
0.0417196
0.0517491
0.0605775
0.0681343
0.0744175
0.0794766
0.0833945
0.0862711
0.0882106
0.089315
0.0896811
0.0894014
0.088565
0.0872588
0.0855662
0.0835651
0.0813241
0.0788988
0.0763299
0.0736423
0.0708462
0.0679392
0.0649093
0.0617369
0.0583965
0.0548571
0.0510829
0.0470337
0.0426657
0.0379339
0.0327936
0.027203
0.0211245
0.0145258
0.00738068
-0.000330331
-0.00861895
-0.0174867
-0.0269214
-0.0368915
-0.0473396
-0.0581743
-0.0692608
-0.0804118
-0.0913803
-0.101855
-0.111463
-0.119781
-0.126359
-0.130753
-0.13257
-0.131511
-0.127416
-0.120277
-0.110247
-0.0976154
-0.0827649
-0.0661295
-0.0481502
-0.0292468
-0.00980737
0.0187882
0.0558173
0.0912555
0.124204
0.153978
0.180135
0.202477
0.22101
0.235898
0.247398
0.255815
0.261465
0.264649
0.265656
0.264755
0.26221
0.25828
0.253212
0.247239
0.240568
0.233365
0.22575
0.217796
0.209532
0.200948
0.192007
0.18265
0.1728
0.162366
0.151242
0.139308
0.126432
0.11248
0.097319
0.0808228
0.0628797
0.0433938
0.0222873
-0.000498845
-0.0250009
-0.0512266
-0.0791439
-0.108666
-0.139629
-0.171771
-0.2047
-0.23787
-0.270553
-0.301828
-0.330582
-0.355545
-0.375358
-0.388672
-0.394289
-0.391295
-0.379192
-0.357962
-0.328073
-0.290412
-0.246152
-0.196608
-0.143109
-0.0869049
-0.0291382
0.0311397
0.092482
0.151105
0.205483
0.25447
0.29735
0.333824
0.36395
0.38804
0.40656
0.420039
0.429006
0.433964
0.435376
0.433683
0.42931
0.422682
0.41421
0.404284
0.39325
0.381386
0.368891
0.35588
0.342394
0.32841
0.313861
0.298647
0.282642
0.265696
0.247634
0.228258
0.207349
0.184681
0.160032
0.133192
0.103975
0.0722251
0.0378121
0.000637758
-0.0393629
-0.0822115
-0.127869
-0.17621
-0.22699
-0.279803
-0.334033
-0.388809
-0.442955
-0.494961
-0.542985
-0.584895
-0.618381
-0.641134
-0.651074
-0.646609
-0.626861
-0.5918
-0.542252
-0.479768
-0.406389
-0.324372
-0.235961
-0.143223
-0.048009
0.0435992
0.129424
0.211272
0.286937
0.354793
0.413868
0.463819
0.504814
0.537382
0.562249
0.5802
0.591995
0.598326
0.599823
0.597076
0.590664
0.581169
0.569172
0.555228
0.539829
0.523371
0.506129
0.488255
0.46979
0.450689
0.430846
0.410118
0.388331
0.365278
0.340719
0.314377
0.285943
0.255095
0.221517
0.184913
0.145026
0.101637
0.0545677
0.00367924
-0.0511273
-0.109899
-0.172607
-0.239114
-0.309126
-0.38213
-0.457334
-0.533583
-0.609297
-0.682403
-0.750327
-0.81004
-0.858201
-0.891417
-0.906591
-0.901328
-0.87429
-0.825432
-0.756012
-0.66838
-0.565591
-0.450972
-0.327744
-0.198792
-0.0666105
0.0563824
0.167267
0.272719
0.369768
0.456281
0.531063
0.593792
0.644847
0.685064
0.715503
0.737251
0.751311
0.758558
0.759762
0.755642
0.74691
0.734307
0.718589
0.700491
0.680669
0.659642
0.637765
0.615215
0.592017
0.568089
0.543275
0.517385
0.490197
0.461458
0.430862
0.398052
0.362626
0.324157
0.282226
0.23645
0.186496
0.132089
0.0730057
0.00906547
-0.0598697
-0.133885
-0.212986
-0.297051
-0.385776
-0.478592
-0.57458
-0.672365
-0.770012
-0.864925
-0.953796
-1.03264
-1.09699
-1.14216
-1.16386
-1.15868
-1.1247
-1.06185
-0.971942
-0.858328
-0.725314
-0.577481
-0.419133
-0.253974
-0.0850557
0.0696942
0.206597
0.336339
0.455069
0.560117
0.650103
0.724834
0.785024
0.831943
0.867081
0.891881
0.9076
0.915277
0.915787
0.90994
0.898563
0.88255
0.862849
0.8404
0.816045
0.790446
0.764034
0.736996
0.709322
0.680866
0.65141
0.62071
0.588507
0.554504
0.518342
0.479581
0.437715
0.392199
0.342503
0.288147
0.228727
0.163914
0.0934458
0.0171046
-0.0652918
-0.153881
-0.248727
-0.34976
-0.456707
-0.569
-0.685658
-0.805158
-0.925281
-1.04296
-1.15416
-1.25391
-1.33641
-1.39553
-1.42543
-1.42143
-1.38085
-1.30358
-1.19214
-1.05119
-0.886622
-0.70454
-0.510465
-0.308916
-0.103385
0.0837388
0.247995
0.403
0.543877
0.667377
0.772005
0.857836
0.926089
0.978631
1.0175
1.04455
1.06131
1.06893
1.06835
1.06042
1.04604
1.02626
1.00225
0.975198
0.946158
0.915961
0.885111
0.853788
0.821912
0.78924
0.755473
0.720312
0.683468
0.644623
0.60337
0.559187
0.511449
0.459476
0.402609
0.340262
0.271961
0.197337
0.116098
0.0279942
-0.0672017
-0.169695
-0.279632
-0.397035
-0.52171
-0.653145
-0.790375
-0.931814
-1.07505
-1.21663
-1.35183
-1.47461
-1.57773
-1.65326
-1.69348
-1.69204
-1.64521
-1.55281
-1.41831
-1.24811
-1.05014
-0.832384
-0.601755
-0.363563
-0.121567
0.0987277
0.292056
0.473579
0.637207
0.779073
0.897669
0.993523
1.06859
1.12552
1.16705
1.19553
1.21271
1.21984
1.2178
1.20743
1.18967
1.16573
1.13704
1.10506
1.07114
1.0363
1.00112
0.965741
0.929961
0.893405
0.85566
0.816372
0.775245
0.731964
0.686096
0.637031
0.584005
0.526177
0.462734
0.392977
0.316363
0.232497
0.141078
0.0418371
-0.0654992
-0.181218
-0.305576
-0.438725
-0.5806
-0.730808
-0.888477
-1.05206
-1.21908
-1.38578
-1.54686
-1.69517
-1.82184
-1.91681
-1.96996
-1.97276
-1.92005
-1.81151
-1.65186
-1.44985
-1.21607
-0.960864
-0.692709
-0.41766
-0.139505
0.114887
0.339412
0.548985
0.736079
0.896176
1.02789
1.13247
1.21287
1.27279
1.31583
1.34489
1.36194
1.3682
1.36441
1.35127
1.32975
1.30121
1.26738
1.2301
1.19107
1.15153
1.11215
1.07297
1.03363
0.99354
0.952148
0.909044
0.86396
0.81663
0.766617
0.713222
0.655511
0.592444
0.523022
0.446417
0.362029
0.269459
0.168423
0.0586542
-0.0601646
-0.188415
-0.326499
-0.474732
-0.63323
-0.801775
-0.979673
-1.16553
-1.35694
-1.55004
-1.739
-1.91565
-2.06929
-2.18733
-2.25662
-2.26574
-2.20757
-2.08149
-1.89394
-1.65681
-1.38423
-1.08945
-0.782736
-0.470764
-0.157036
0.132462
0.390744
0.630186
0.841546
1.01963
1.1634
1.27512
1.35912
1.42045
1.46377
1.49258
1.50902
1.51413
1.50838
1.49222
1.46655
1.43291
1.39342
1.35039
1.30595
1.26166
1.21824
1.17559
1.13307
1.08982
1.04511
0.998464
0.949704
0.898678
0.844985
0.787825
0.726054
0.658381
0.583577
0.500666
0.409005
0.308228
0.198104
0.0783949
-0.0512493
-0.191323
-0.342401
-0.505014
-0.679494
-0.865856
-1.06366
-1.27179
-1.48809
-1.70877
-1.92773
-2.13579
-2.32032
-2.46572
-2.55508
-2.57313
-2.50998
-2.36451
-2.14548
-1.86905
-1.55402
-1.21724
-0.870952
-0.522256
-0.17394
0.151726
0.446799
0.71822
0.954705
1.15039
1.30483
1.42179
1.50736
1.56832
1.6106
1.63838
1.65385
1.65769
1.64991
1.63053
1.60031
1.56102
1.51525
1.46593
1.41576
1.36666
1.3194
1.27367
1.22842
1.18244
1.13472
1.08476
1.03254
0.978123
0.921207
0.860869
0.795695
0.724071
0.644481
0.555778
0.457298
0.348757
0.23003
0.100946
-0.0388677
-0.190033
-0.353343
-0.529582
-0.719341
-0.922903
-1.14016
-1.37039
-1.61188
-1.8612
-2.11223
-2.355
-2.57485
-2.75267
-2.86687
-2.89711
-2.82961
-2.66237
-2.40725
-2.08629
-1.72443
-1.34295
-0.956203
-0.571357
-0.189944
0.172981
0.508403
0.814219
1.07671
1.28937
1.45276
1.57265
1.65744
1.71603
1.75592
1.78198
1.79628
1.79891
1.78916
1.76646
1.73129
1.68571
1.63295
1.57671
1.52041
1.46644
1.41563
1.36729
1.31986
1.27159
1.22116
1.16804
1.11249
1.05494
0.995252
0.932354
0.864471
0.78958
0.705803
0.611785
0.506879
0.390957
0.264062
0.126137
-0.0231895
-0.184693
-0.359435
-0.548505
-0.752777
-0.972826
-1.20891
-1.46087
-1.72761
-2.00639
-2.29146
-2.57238
-2.83245
-3.04858
-3.1934
-3.23998
-3.16899
-2.97692
-2.67983
-2.30786
-1.89401
-1.46495
-1.03708
-0.617149
-0.204732
0.196566
0.576468
0.919417
1.2088
1.4375
1.60768
1.72777
1.80907
1.86307
1.89916
1.92293
1.93608
1.93779
1.92633
1.90029
1.85976
1.80717
1.74658
1.68266
1.61976
1.56088
1.50688
1.45654
1.40755
1.35751
1.30466
1.24843
1.18955
1.12906
1.06705
1.00225
0.932407
0.854971
0.767608
0.668708
0.557697
0.434704
0.300016
0.153752
-0.00443214
-0.175493
-0.36083
-0.561898
-0.779873
-1.0156
-1.26976
-1.54281
-1.83456
-2.14328
-2.46414
-2.7867
-3.09238
-3.3536
-3.53604
-3.60421
-3.53096
-3.31019
-2.96366
-2.53269
-2.06089
-1.58123
-1.11197
-0.658614
-0.21796
0.222861
0.652007
1.03516
1.35227
1.59571
1.76998
1.88709
1.96178
2.00874
2.03962
2.06072
2.07301
2.07431
2.06164
2.03237
1.98603
1.92557
1.85619
1.7837
1.71362
1.64981
1.5931
1.54152
1.4917
1.44047
1.38546
1.32606
1.26371
1.20036
1.1365
1.07052
0.999516
0.920309
0.829973
0.726564
0.609681
0.479843
0.33767
0.18353
0.0171453
-0.162659
-0.357716
-0.569926
-0.800762
-1.0513
-1.3226
-1.61589
-1.93204
-2.27075
-2.62878
-2.99643
-3.35351
-3.66757
-3.89601
-3.9925
-3.91883
-3.66446
-3.25895
-2.75923
-2.22269
-1.6895
-1.17909
-0.694673
-0.229272
0.252294
0.736136
1.16292
1.50852
1.76488
1.93996
2.0504
2.11498
2.15219
2.17647
2.19477
2.20679
2.20848
2.19531
2.16309
2.11043
2.04111
1.96181
1.87969
1.80177
1.73301
1.67423
1.62231
1.57255
1.52078
1.46387
1.40105
1.33488
1.26868
1.20346
1.13711
1.06581
0.985667
0.892989
0.785374
0.66274
0.526196
0.37677
0.21517
0.0412485
-0.146443
-0.350304
-0.572785
-0.815643
-1.08007
-1.36745
-1.67985
-2.01942
-2.38764
-2.78373
-3.19971
-3.61435
-3.98994
-4.27437
-4.4078
-4.33647
-4.04231
-3.56569
-2.98538
-2.37655
-1.78713
-1.23655
-0.724238
-0.238316
0.285346
0.830078
1.3043
1.67905
1.94588
2.11779
2.21742
2.26796
2.29243
2.30875
2.32444
2.33716
2.3403
2.32764
2.29292
2.23334
2.15395
2.06348
1.97048
1.88389
1.81022
1.75019
1.69907
1.65033
1.59878
1.54024
1.47356
1.40294
1.33378
1.26776
1.20195
1.1313
1.05113
0.95678
0.845163
0.716766
0.573567
0.417039
0.24834
0.0675528
-0.127113
-0.338813
-0.570702
-0.824775
-1.10215
-1.40442
-1.7346
-2.0962
-2.49283
-2.92721
-3.39442
-3.87302
-4.31976
-4.67189
-4.85337
-4.78853
-4.44679
-3.88353
-3.20838
-2.5191
-1.87131
-1.28246
-0.746269
-0.244768
0.322566
0.935159
1.461
1.86544
2.13948
2.30348
2.38775
2.41988
2.4283
2.43538
2.44908
2.46391
2.46977
2.45896
2.42245
2.35515
2.26426
2.16126
2.05592
1.95963
1.8811
1.82091
1.77196
1.72532
1.67489
1.61502
1.54375
1.46771
1.39534
1.32921
1.265
1.19598
1.1168
1.02151
0.905964
0.77163
0.621748
0.458178
0.282671
0.0957069
-0.104945
-0.323461
-0.563913
-0.828469
-1.11787
-1.43374
-1.78015
-2.16204
-2.58526
-3.05731
-3.57815
-4.12727
-4.65562
-5.08892
-5.33272
-5.2807
-4.88148
-4.21167
-3.42469
-2.64644
-1.93907
-1.31496
-0.759836
-0.248352
0.364592
1.0528
1.63485
2.06948
2.34638
2.49682
2.56093
2.56985
2.5585
2.55515
2.56805
2.58688
2.59687
2.58962
2.55241
2.47629
2.37214
2.25521
2.13584
2.02854
1.94525
1.88631
1.8412
1.79777
1.74954
1.68879
1.61181
1.52891
1.45299
1.38759
1.32624
1.25985
1.18278
1.08743
0.967819
0.827169
0.670527
0.499877
0.317767
0.125335
-0.0802154
-0.304443
-0.552656
-0.827088
-1.12768
-1.45573
-1.81669
-2.21684
-2.66399
-3.17208
-3.74826
-4.37449
-4.99559
-5.52518
-5.8496
-5.81999
-5.35068
-4.54863
-3.62981
-2.75419
-1.98739
-1.33241
-0.76418
-0.248856
0.412191
1.18449
1.82776
2.29311
2.5671
2.69731
2.73653
2.71693
2.68156
2.66676
2.68075
2.70608
2.72152
2.71998
2.68372
2.5972
2.47761
2.3455
2.21008
2.09011
2.0022
1.94635
1.90711
1.86793
1.82319
1.76227
1.67796
1.58618
1.50621
1.44268
1.38572
1.32286
1.24918
1.15484
1.03077
0.883169
0.719705
0.541824
0.353193
0.15604
-0.0531912
-0.28192
-0.537152
-0.821038
-1.1321
-1.47081
-1.84456
-2.26074
-2.72825
-3.26952
-3.90187
-4.61184
-5.33724
-5.97947
-6.40789
-6.41522
-5.85951
-4.89197
-3.81814
-2.83756
-2.01339
-1.3334
-0.758768
-0.246154
0.466319
1.33176
2.04165
2.5386
2.80193
2.90409
2.91417
2.86018
2.79584
2.76872
2.78664
2.82171
2.84354
2.85039
2.8176
2.71829
2.58053
2.43239
2.27853
2.14367
2.05136
2.00103
1.97013
1.93594
1.89629
1.8364
1.74245
1.63898
1.55438
1.49429
1.44357
1.3849
1.31609
1.22423
1.09487
0.939343
0.769117
0.583714
0.388479
0.187397
-0.024126
-0.256001
-0.517588
-0.81076
-1.13175
-1.47944
-1.86418
-2.29423
-2.77751
-3.34763
-4.03594
-4.83625
-5.67771
-6.44924
-7.01139
-7.07751
-6.4142
-5.23786
-3.98283
-2.89142
-2.0144
-1.31693
-0.743338
-0.240213
0.528241
1.49611
2.27839
2.80869
3.05087
3.11574
3.09372
2.99872
2.89949
2.85941
2.88531
2.93428
2.96248
2.98108
2.95569
2.8399
2.68052
2.51634
2.3411
2.18846
2.09202
2.05038
2.03089
2.0018
1.96924
1.91243
1.80556
1.68662
1.59674
1.54222
1.50011
1.44577
1.38357
1.29625
1.16011
0.995283
0.818662
0.625258
0.423106
0.218962
0.00674433
-0.226725
-0.494104
-0.796726
-1.12737
-1.4821
-1.8761
-2.3182
-2.81149
-3.40445
-4.1472
-5.04462
-6.01385
-6.93013
-7.6635
-7.82113
-7.02219
-5.58053
-4.11556
-2.9105
-1.98822
-1.28244
-0.717929
-0.2311
0.599708
1.67893
2.53961
3.10679
3.31344
3.33014
3.27552
3.1318
2.99043
2.93702
2.97648
3.04479
3.07754
3.11214
3.10023
2.96222
2.7768
2.59815
2.39781
2.22353
2.12333
2.0945
2.09033
2.06526
2.04237
1.99205
1.86757
1.72816
1.63235
1.58634
1.55586
1.50507
1.45157
1.37187
1.22648
1.05041
0.868362
0.666195
0.456494
0.250262
0.0392019
-0.194041
-0.466777
-0.779433
-1.11986
-1.4792
-1.88085
-2.33405
-2.8302
-3.43807
-4.23222
-5.23396
-6.34262
-7.41528
-8.3667
-8.6645
-7.69247
-5.91144
-4.20656
-2.88965
-1.93326
-1.22993
-0.682889
-0.218981
0.683246
1.88139
2.82652
3.43745
3.58853
3.54419
3.46064
3.25876
3.06627
2.99949
3.06
3.15497
3.18735
3.24335
3.25439
3.08518
2.868
2.67913
2.44874
2.24769
2.14425
2.13359
2.14981
2.12566
2.11576
2.07756
1.92875
1.76236
1.66011
1.62656
1.61175
1.56212
1.51992
1.45249
1.29381
1.10387
0.918432
0.706295
0.487983
0.280803
0.0730438
-0.157795
-0.435597
-0.759385
-1.11028
-1.47108
-1.87887
-2.34378
-2.83396
-3.44668
-4.28727
-5.40149
-6.66155
-7.89454
-9.12178
-9.63155
-8.43572
-6.21825
-4.24452
-2.82412
-1.84869
-1.15996
-0.63887
-0.20411
0.782595
2.10425
3.13952
3.80682
3.87419
3.75342
3.65133
3.37908
3.12425
3.04452
3.1359
3.26758
3.28961
3.37402
3.42264
3.20831
2.95195
2.76136
2.49406
2.25952
2.15353
2.16786
2.21137
2.18178
2.18921
2.17211
1.98929
1.78765
1.6787
1.66287
1.66922
1.61582
1.58819
1.54015
1.36183
1.15449
0.9694
0.745356
0.516809
0.310076
0.108073
-0.117705
-0.400466
-0.737082
-1.09998
-1.45789
-1.87038
-2.35016
-2.82339
-3.42856
-4.30827
-5.54484
-6.96967
-8.35351
-9.9268
-10.7535
-9.26458
-6.48346
-4.21685
-2.71001
-1.73468
-1.07367
-0.586794
-0.186821
0.903349
2.34765
3.47774
4.22346
4.16726
3.95151
3.85168
3.4923
3.16119
3.06948
3.20421
3.38685
3.38081
3.50275
3.61134
3.33049
3.02526
2.84811
2.53393
2.25723
2.14968
2.19754
2.27796
2.23153
2.26204
2.28005
2.04916
1.80202
1.68664
1.69525
1.7305
1.66446
1.65565
1.63775
1.42993
1.20053
1.02226
0.783185
0.542069
0.337568
0.144083
-0.0733447
-0.361179
-0.712977
-1.09065
-1.4395
-1.85514
-2.35695
-2.79933
-3.38221
-4.29062
-5.662
-7.26864
-8.77237
-10.7755
-12.0712
-10.1938
-6.68266
-4.11005
-2.5447
-1.59242
-0.972732
-0.527807
-0.167504
1.05386
2.61078
3.83833
4.69941
4.46292
4.12973
4.06836
3.59783
3.17337
3.07145
3.26491
3.51914
3.45565
3.62715
3.82944
3.44969
3.08298
2.9443
2.56843
2.2387
2.13097
2.22279
2.3539
2.27166
2.33289
2.40733
2.10798
1.80301
1.68224
1.72363
1.7989
1.70544
1.72105
1.74944
1.49715
1.23962
1.07868
0.819557
0.562684
0.362794
0.180833
-0.0241179
-0.317426
-0.687426
-1.08452
-1.41546
-1.83223
-2.36919
-2.76274
-3.3064
-4.22898
-5.7513
-7.56449
-9.12463
-11.6556
-13.6381
-11.2404
-6.78241
-3.91053
-2.32734
-1.42423
-0.859315
-0.463218
-0.146587
1.24649
2.89152
4.21554
5.25159
4.75421
4.27613
4.31174
3.69468
3.1565
3.04723
3.31757
3.67374
3.50643
3.74338
4.08945
3.56252
3.11801
3.05727
2.59734
2.20135
2.09544
2.24346
2.44537
2.29734
2.39947
2.5621
2.16473
1.78768
1.66368
1.74779
1.87923
1.73499
1.78246
1.88108
1.5619
1.26846
1.14132
0.854139
0.57736
0.385333
0.218007
0.0307676
-0.268807
-0.660598
-1.08452
-1.38489
-1.7997
-2.39358
-2.71448
-3.20042
-4.11702
-5.81098
-7.86978
-9.37564
-12.5456
-15.5238
-12.4233
-6.73757
-3.6058
-2.05935
-1.23349
-0.735933
-0.394427
-0.124509
1.49924
3.18594
4.59955
5.90359
5.0312
4.37459
4.59724
3.78091
3.10569
2.99337
3.361
3.8639
3.52231
3.84571
4.40868
3.66375
3.12048
3.19756
2.61982
2.14218
2.04094
2.25886
2.56114
2.30167
2.45826
2.75537
2.21736
1.75255
1.62911
1.76705
1.97832
1.74775
1.83706
2.04075
1.62174
1.2826
1.21415
0.886364
0.584541
0.40489
0.255166
0.0923357
-0.214858
-0.632348
-1.0945
-1.3464
-1.75411
-2.43896
-2.65499
-3.06424
-3.9471
-5.83855
-8.20642
-9.48114
-13.4122
-17.8184
-13.7636
-6.4882
-3.18623
-1.74483
-1.02455
-0.605331
-0.322857
-0.101708
1.83793
3.48767
4.97486
6.68799
5.28012
4.40374
4.94707
3.85293
3.01549
2.90638
3.39252
4.10818
3.48833
3.92585
4.81063
3.74564
3.07698
3.38013
2.63392
2.05777
1.96522
2.26735
2.71336
2.27505
2.50408
3.00196
2.26228
1.69372
1.57671
1.78005
2.10575
1.73629
1.88083
2.23948
1.67308
1.2761
1.30297
0.915256
0.582374
0.42138
0.29167
0.161886
-0.155113
-0.602034
-1.11959
-1.29808
-1.69003
-2.51702
-2.58382
-2.89901
-3.71004
-5.82969
-8.60915
-9.38563
-14.2058
-20.6382
-15.2833
-5.95596
-2.64745
-1.39075
-0.802487
-0.47033
-0.249883
-0.0785917
2.29878
3.78719
5.31848
7.64909
5.48222
4.33563
5.3923
3.90446
2.88
2.78296
3.40715
4.43206
3.38434
3.97224
5.32683
3.79717
2.96968
3.62566
2.63591
1.94437
1.86613
2.26573
2.91869
2.20445
2.52973
3.32144
2.2937
1.60695
1.50494
1.78419
2.27458
1.69057
1.90821
2.49208
1.71072
1.24123
1.41593
0.939169
0.568677
0.435036
0.326585
0.241056
-0.0891953
-0.568272
-1.16652
-1.23744
-1.59933
-2.64306
-2.49896
-2.70748
-3.39488
-5.77661
-9.12969
-9.02091
-14.8557
-24.1316
-17.0051
-5.0401
-1.99352
-1.00697
-0.572822
-0.333681
-0.176776
-0.0555331
2.93169
4.07097
5.59765
8.8462
5.61241
4.13429
5.97538
3.92508
2.6931
2.62034
3.39636
4.8699
3.18378
3.96921
5.99877
3.80303
2.77536
3.9622
2.61939
1.79802
1.74182
2.24851
3.19953
2.07265
2.52543
3.73947
2.30271
1.48783
1.41272
1.77508
2.50243
1.59727
1.91176
2.81805
1.72745
1.16807
1.56422
0.955454
0.540929
0.44654
0.358559
0.331898
-0.0169547
-0.528622
-1.244
-1.16148
-1.47046
-2.83702
-2.396
-2.49472
-2.98876
-5.66581
-9.84148
-8.3047
-15.2644
-28.4862
-18.9508
-3.61292
-1.24083
-0.605813
-0.341146
-0.197924
-0.104662
-0.032854
3.80399
4.32044
5.76728
10.3574
5.63765
3.75412
6.75294
3.89855
2.44883
2.41685
3.34661
5.46722
2.85226
3.89598
6.88021
3.74261
2.46437
4.42704
2.57413
1.61482
1.59112
2.20689
3.58553
1.85728
2.4783
4.28913
2.27623
1.33213
1.29978
1.7457
2.81256
1.43905
1.8817
3.24267
1.71344
1.04409
1.76282
0.960028
0.496286
0.457182
0.385672
0.436992
0.0613382
-0.479193
-1.36321
-1.06672
-1.28743
-3.12468
-2.26703
-2.26892
-2.47699
-5.47512
-10.8451
-7.13948
-15.3012
-33.937
-21.1394
-1.51516
-0.422854
-0.201267
-0.112737
-0.06528
-0.0344897
-0.0108225
)
;

boundaryField
{
    left
    {
        type            calculated;
        value           uniform 0;
    }
    right
    {
        type            calculated;
        value           uniform 0;
    }
    interface
    {
        type            calculated;
        value           nonuniform List<scalar> 
64
(
3.80399
4.32044
5.76728
10.3574
5.63765
3.75412
6.75294
3.89855
2.44883
2.41685
3.34661
5.46722
2.85226
3.89598
6.88021
3.74261
2.46437
4.42704
2.57413
1.61482
1.59112
2.20689
3.58553
1.85728
2.4783
4.28913
2.27623
1.33213
1.29978
1.7457
2.81256
1.43905
1.8817
3.24267
1.71344
1.04409
1.76282
0.960028
0.496286
0.457182
0.385672
0.436992
0.0613382
-0.479193
-1.36321
-1.06672
-1.28743
-3.12468
-2.26703
-2.26892
-2.47699
-5.47512
-10.8451
-7.13948
-15.3012
-33.937
-21.1394
-1.51516
-0.422854
-0.201267
-0.112737
-0.06528
-0.0344897
-0.0108225
)
;
    }
    bottom
    {
        type            calculated;
        value           nonuniform List<scalar> 
64
(
0.00630486
0.0187341
0.0306383
0.0417196
0.0517491
0.0605775
0.0681343
0.0744175
0.0794766
0.0833945
0.0862711
0.0882106
0.089315
0.0896811
0.0894014
0.088565
0.0872588
0.0855662
0.0835651
0.0813241
0.0788988
0.0763299
0.0736423
0.0708462
0.0679392
0.0649093
0.0617369
0.0583965
0.0548571
0.0510829
0.0470337
0.0426657
0.0379339
0.0327936
0.027203
0.0211245
0.0145258
0.00738068
-0.000330331
-0.00861895
-0.0174867
-0.0269214
-0.0368915
-0.0473396
-0.0581743
-0.0692608
-0.0804118
-0.0913803
-0.101855
-0.111463
-0.119781
-0.126359
-0.130753
-0.13257
-0.131511
-0.127416
-0.120277
-0.110247
-0.0976154
-0.0827649
-0.0661295
-0.0481502
-0.0292468
-0.00980737
)
;
    }
    defaultFaces
    {
        type            empty;
    }
}


// ************************************************************************* //
