/*--------------------------------*- C++ -*----------------------------------*\
| =========                 |                                                 |
| \\      /  F ield         | OpenFOAM: The Open Source CFD Toolbox           |
|  \\    /   O peration     | Version:  5.x                                   |
|   \\  /    A nd           | Web:      www.OpenFOAM.org                      |
|    \\/     M anipulation  |                                                 |
\*---------------------------------------------------------------------------*/
FoamFile
{
    version     2.0;
    format      ascii;
    class       volScalarField;
    location    "2.1";
    object      T;
}
// * * * * * * * * * * * * * * * * * * * * * * * * * * * * * * * * * * * * * //

dimensions      [0 0 0 1 0 0 0];

internalField   nonuniform List<scalar> 
6300
(
322.852
322.557
322.26
321.962
321.662
321.358
321.051
320.74
320.424
320.103
319.777
319.445
319.108
318.764
318.415
322.853
322.558
322.262
321.965
321.665
321.362
321.055
320.745
320.429
320.109
319.783
319.451
319.113
318.77
318.421
322.853
322.56
322.266
321.969
321.671
321.369
321.064
320.754
320.439
320.119
319.794
319.463
319.125
318.781
318.432
322.855
322.563
322.271
321.977
321.68
321.38
321.076
320.768
320.455
320.136
319.811
319.48
319.143
318.799
318.449
322.856
322.567
322.278
321.986
321.692
321.395
321.093
320.787
320.476
320.158
319.835
319.504
319.167
318.823
318.472
322.858
322.573
322.286
321.998
321.708
321.413
321.115
320.812
320.502
320.187
319.865
319.535
319.198
318.853
318.501
322.86
322.579
322.297
322.013
321.727
321.436
321.142
320.842
320.536
320.223
319.902
319.574
319.237
318.892
318.538
322.862
322.587
322.31
322.031
321.749
321.464
321.174
320.878
320.576
320.266
319.948
319.621
319.284
318.938
318.582
322.865
322.596
322.325
322.052
321.776
321.496
321.211
320.92
320.623
320.317
320.003
319.678
319.342
318.994
318.635
322.869
322.606
322.341
322.075
321.806
321.532
321.254
320.97
320.678
320.378
320.067
319.745
319.411
319.062
318.699
322.872
322.617
322.36
322.102
321.84
321.574
321.304
321.027
320.742
320.449
320.144
319.826
319.493
319.144
318.776
322.877
322.629
322.381
322.131
321.878
321.621
321.359
321.092
320.816
320.53
320.233
319.921
319.592
319.243
318.871
322.881
322.643
322.404
322.163
321.92
321.673
321.421
321.164
320.899
320.624
320.337
320.034
319.712
319.366
318.992
322.886
322.658
322.429
322.198
321.965
321.729
321.489
321.244
320.992
320.73
320.457
320.167
319.855
319.516
319.145
322.891
322.673
322.455
322.235
322.013
321.789
321.562
321.331
321.094
320.849
320.593
320.321
320.025
319.697
319.333
318.09
317.791
317.488
317.182
316.872
316.56
316.245
315.927
315.607
315.285
314.961
314.635
314.308
313.979
313.649
313.318
312.986
312.654
312.321
311.988
311.655
311.322
310.988
310.655
310.321
309.987
309.653
309.319
308.985
308.65
308.316
307.982
307.649
307.315
306.982
306.649
306.316
305.984
305.652
305.32
304.988
304.656
304.324
303.992
303.661
303.33
302.998
302.668
302.337
302.007
301.677
301.348
301.019
300.69
300.362
300.033
299.705
299.377
299.049
298.721
298.394
298.067
297.74
297.414
297.088
296.763
296.438
296.114
295.79
295.466
295.142
294.819
294.497
294.174
293.852
293.53
293.209
292.888
292.567
292.246
291.926
291.606
291.286
290.966
290.645
290.324
290.002
289.679
289.355
289.03
318.095
317.796
317.493
317.186
316.876
316.564
316.249
315.931
315.611
315.288
314.964
314.638
314.31
313.981
313.65
313.319
312.987
312.655
312.322
311.989
311.655
311.322
310.988
310.655
310.321
309.987
309.653
309.319
308.984
308.65
308.316
307.982
307.648
307.315
306.981
306.649
306.316
305.984
305.651
305.319
304.987
304.656
304.324
303.992
303.661
303.329
302.998
302.667
302.337
302.007
301.677
301.348
301.019
300.69
300.361
300.033
299.705
299.377
299.049
298.721
298.393
298.066
297.739
297.413
297.087
296.762
296.437
296.113
295.789
295.465
295.142
294.819
294.496
294.174
293.851
293.529
293.208
292.887
292.566
292.246
291.926
291.606
291.287
290.967
290.646
290.325
290.003
289.68
289.356
289.031
318.106
317.806
317.502
317.195
316.885
316.572
316.256
315.938
315.617
315.294
314.969
314.642
314.314
313.984
313.653
313.321
312.989
312.656
312.323
311.989
311.656
311.322
310.989
310.655
310.321
309.987
309.653
309.319
308.984
308.65
308.316
307.981
307.647
307.314
306.98
306.648
306.315
305.983
305.651
305.319
304.987
304.655
304.323
303.992
303.66
303.328
302.997
302.666
302.336
302.005
301.676
301.347
301.018
300.689
300.361
300.032
299.704
299.376
299.048
298.72
298.392
298.065
297.738
297.412
297.086
296.761
296.436
296.112
295.788
295.464
295.141
294.818
294.495
294.173
293.85
293.528
293.207
292.886
292.565
292.245
291.926
291.606
291.287
290.968
290.648
290.327
290.006
289.683
289.359
289.034
318.122
317.821
317.517
317.209
316.898
316.584
316.267
315.948
315.626
315.302
314.977
314.649
314.32
313.989
313.657
313.324
312.991
312.657
312.324
311.99
311.656
311.323
310.989
310.656
310.322
309.988
309.654
309.319
308.984
308.65
308.315
307.98
307.646
307.312
306.979
306.646
306.314
305.982
305.65
305.319
304.987
304.655
304.323
303.991
303.659
303.327
302.995
302.664
302.334
302.004
301.674
301.345
301.017
300.688
300.36
300.032
299.704
299.375
299.047
298.719
298.391
298.063
297.736
297.409
297.084
296.759
296.434
296.11
295.786
295.463
295.14
294.817
294.494
294.171
293.849
293.526
293.205
292.884
292.563
292.244
291.925
291.606
291.288
290.97
290.651
290.331
290.01
289.688
289.364
289.039
318.144
317.842
317.536
317.227
316.914
316.599
316.281
315.961
315.639
315.314
314.987
314.658
314.328
313.996
313.662
313.328
312.994
312.659
312.324
311.99
311.657
311.323
310.99
310.656
310.323
309.989
309.655
309.32
308.984
308.649
308.314
307.978
307.644
307.31
306.977
306.644
306.312
305.981
305.649
305.318
304.987
304.655
304.323
303.99
303.658
303.325
302.993
302.662
302.331
302.001
301.672
301.343
301.015
300.687
300.359
300.031
299.703
299.375
299.046
298.717
298.388
298.06
297.733
297.406
297.08
296.755
296.431
296.108
295.785
295.462
295.139
294.816
294.492
294.169
293.846
293.524
293.202
292.881
292.561
292.242
291.923
291.606
291.289
290.972
290.654
290.336
290.016
289.695
289.371
289.046
318.172
317.868
317.561
317.249
316.935
316.618
316.299
315.978
315.654
315.329
315
314.67
314.338
314.004
313.669
313.333
312.996
312.66
312.325
311.99
311.656
311.323
310.99
310.657
310.324
309.991
309.656
309.321
308.985
308.648
308.312
307.976
307.641
307.306
306.973
306.641
306.31
305.979
305.649
305.318
304.987
304.655
304.323
303.99
303.656
303.323
302.99
302.658
302.327
301.997
301.668
301.34
301.013
300.686
300.359
300.031
299.703
299.374
299.045
298.715
298.386
298.057
297.729
297.401
297.076
296.751
296.428
296.105
295.782
295.46
295.137
294.814
294.491
294.167
293.844
293.52
293.198
292.876
292.556
292.238
291.921
291.605
291.29
290.975
290.66
290.343
290.025
289.705
289.382
289.056
318.206
317.9
317.59
317.276
316.96
316.641
316.321
315.998
315.673
315.346
315.017
314.685
314.35
314.014
313.676
313.337
312.999
312.661
312.324
311.989
311.655
311.323
310.991
310.659
310.326
309.993
309.659
309.323
308.986
308.648
308.31
307.973
307.636
307.301
306.968
306.637
306.307
305.977
305.648
305.318
304.988
304.656
304.324
303.99
303.655
303.32
302.986
302.653
302.321
301.992
301.663
301.337
301.01
300.685
300.359
300.032
299.704
299.374
299.044
298.713
298.382
298.052
297.723
297.395
297.069
296.745
296.423
296.101
295.78
295.459
295.137
294.814
294.49
294.165
293.84
293.515
293.192
292.87
292.55
292.232
291.916
291.603
291.29
290.979
290.666
290.353
290.037
289.718
289.396
289.069
318.247
317.938
317.624
317.307
316.988
316.667
316.345
316.021
315.695
315.368
315.037
314.703
314.366
314.026
313.684
313.342
313
312.66
312.321
311.986
311.652
311.321
310.991
310.661
310.33
309.998
309.663
309.326
308.988
308.648
308.307
307.967
307.629
307.294
306.961
306.63
306.302
305.975
305.648
305.32
304.991
304.66
304.326
303.99
303.654
303.317
302.98
302.646
302.313
301.984
301.657
301.332
301.008
300.684
300.36
300.034
299.706
299.376
299.044
298.711
298.378
298.045
297.714
297.386
297.06
296.737
296.416
296.097
295.778
295.458
295.137
294.814
294.49
294.163
293.836
293.509
293.184
292.86
292.54
292.223
291.909
291.599
291.29
290.983
290.675
290.366
290.054
289.737
289.416
289.088
318.296
317.982
317.663
317.341
317.018
316.694
316.371
316.047
315.721
315.393
315.061
314.725
314.385
314.041
313.694
313.346
312.999
312.655
312.315
311.979
311.647
311.318
310.991
310.664
310.336
310.005
309.671
309.333
308.991
308.648
308.303
307.96
307.619
307.282
306.95
306.621
306.296
305.972
305.649
305.324
304.997
304.666
304.331
303.993
303.653
303.312
302.972
302.635
302.301
301.972
301.647
301.325
301.004
300.684
300.363
300.039
299.711
299.38
299.046
298.709
298.372
298.036
297.702
297.373
297.048
296.726
296.408
296.092
295.776
295.459
295.14
294.818
294.492
294.163
293.832
293.501
293.172
292.846
292.525
292.209
291.898
291.592
291.288
290.987
290.686
290.383
290.076
289.763
289.443
289.115
318.354
318.033
317.706
317.377
317.048
316.722
316.397
316.074
315.751
315.424
315.092
314.754
314.41
314.059
313.705
313.349
312.994
312.645
312.302
311.966
311.636
311.312
310.99
310.669
310.346
310.018
309.684
309.344
308.998
308.649
308.298
307.948
307.603
307.265
306.933
306.608
306.287
305.969
305.652
305.332
305.007
304.677
304.341
303.999
303.653
303.305
302.96
302.618
302.283
301.955
301.633
301.315
301.001
300.686
300.37
300.049
299.722
299.389
299.051
298.708
298.364
298.022
297.685
297.354
297.029
296.711
296.397
296.087
295.776
295.464
295.148
294.826
294.498
294.165
293.828
293.491
293.156
292.826
292.503
292.188
291.88
291.58
291.284
290.991
290.699
290.406
290.107
289.8
289.483
289.153
318.423
318.091
317.752
317.412
317.076
316.746
316.422
316.103
315.784
315.461
315.132
314.793
314.443
314.084
313.718
313.348
312.983
312.626
312.279
311.944
311.619
311.302
310.989
310.677
310.361
310.039
309.706
309.364
309.011
308.652
308.289
307.93
307.579
307.238
306.907
306.587
306.274
305.966
305.658
305.345
305.026
304.698
304.359
304.01
303.655
303.296
302.941
302.593
302.256
301.929
301.612
301.302
300.997
300.692
300.383
300.067
299.742
299.406
299.061
298.709
298.354
298.003
297.659
297.325
297.002
296.688
296.382
296.081
295.779
295.475
295.163
294.842
294.512
294.172
293.826
293.477
293.132
292.795
292.469
292.155
291.853
291.56
291.275
290.994
290.715
290.435
290.149
289.853
289.54
289.209
318.508
318.16
317.799
317.441
317.094
316.761
316.442
316.131
315.823
315.509
315.185
314.846
314.491
314.119
313.734
313.343
312.96
312.591
312.24
311.907
311.59
311.285
310.988
310.691
310.387
310.073
309.744
309.398
309.035
308.658
308.276
307.901
307.539
307.195
306.867
306.555
306.255
305.962
305.669
305.369
305.059
304.733
304.391
304.032
303.661
303.283
302.911
302.553
302.212
301.888
301.58
301.283
300.992
300.702
300.406
300.098
299.776
299.437
299.082
298.714
298.339
297.972
297.617
297.28
296.96
296.655
296.361
296.074
295.788
295.495
295.191
294.873
294.539
294.189
293.826
293.458
293.096
292.749
292.419
292.107
291.811
291.53
291.259
290.995
290.734
290.473
290.207
289.928
289.625
289.291
318.618
318.246
317.843
317.455
317.091
316.758
316.447
316.156
315.869
315.572
315.259
314.923
314.563
314.172
313.759
313.327
312.916
312.529
312.175
311.846
311.543
311.258
310.985
310.714
310.429
310.129
309.804
309.456
309.076
308.674
308.254
307.852
307.474
307.127
306.805
306.507
306.226
305.958
305.69
305.409
305.113
304.792
304.448
304.073
303.675
303.259
302.862
302.488
302.145
301.826
301.531
301.253
300.988
300.722
300.445
300.151
299.833
299.492
299.121
298.727
298.315
297.922
297.551
297.212
296.896
296.605
296.329
296.067
295.805
295.531
295.241
294.927
294.59
294.223
293.835
293.428
293.041
292.676
292.343
292.033
291.749
291.484
291.235
290.992
290.751
290.517
290.284
290.036
289.755
289.42
318.775
318.376
317.866
317.436
317.043
316.721
316.426
316.176
315.931
315.656
315.368
315.033
314.68
314.259
313.81
313.282
312.836
312.421
312.074
311.749
311.472
311.211
310.982
310.754
310.494
310.221
309.899
309.558
309.151
308.716
308.203
307.769
307.364
307.025
306.706
306.435
306.178
305.953
305.729
305.472
305.202
304.885
304.548
304.146
303.716
303.209
302.78
302.379
302.043
301.728
301.46
301.205
300.983
300.76
300.506
300.239
299.924
299.591
299.192
298.766
298.264
297.838
297.441
297.109
296.797
296.531
296.28
296.06
295.84
295.589
295.324
295.013
294.684
294.29
293.869
293.372
292.952
292.559
292.232
291.923
291.662
291.414
291.2
290.989
290.756
290.56
290.382
290.194
289.96
289.637
319.022
318.666
317.773
317.365
316.891
316.645
316.34
316.186
316.038
315.756
315.546
315.17
314.894
314.385
313.975
313.12
312.712
312.213
311.943
311.58
311.38
311.116
310.979
310.842
310.579
310.38
310.022
309.757
309.267
308.87
308.041
307.644
307.157
306.894
306.539
306.343
306.083
305.948
305.814
305.555
305.359
305.006
304.743
304.26
303.867
303.048
302.656
302.174
301.913
301.562
301.368
301.111
300.977
300.844
300.587
300.393
300.043
299.783
299.304
298.915
298.103
297.714
297.237
296.979
296.631
296.438
296.184
296.052
295.92
295.666
295.474
295.127
294.87
294.396
294.011
293.207
292.823
292.349
292.093
291.746
291.554
291.296
291.161
291.016
290.707
290.578
290.497
290.415
290.296
290.052
288.671
288.279
287.885
287.491
287.097
286.703
286.309
285.916
285.524
285.134
284.744
284.355
283.967
283.58
283.193
288.672
288.28
287.886
287.492
287.097
286.702
286.308
285.915
285.523
285.132
284.743
284.354
283.967
283.58
283.193
288.675
288.282
287.887
287.492
287.097
286.701
286.307
285.913
285.521
285.13
284.741
284.352
283.965
283.579
283.193
288.679
288.285
287.889
287.493
287.096
286.7
286.304
285.91
285.517
285.127
284.737
284.35
283.963
283.577
283.192
288.685
288.29
287.892
287.494
287.095
286.697
286.3
285.905
285.512
285.121
284.732
284.345
283.96
283.575
283.192
288.694
288.296
287.896
287.495
287.093
286.693
286.294
285.898
285.505
285.114
284.726
284.34
283.956
283.573
283.191
288.706
288.305
287.901
287.496
287.09
286.687
286.286
285.889
285.495
285.104
284.717
284.332
283.95
283.569
283.19
288.723
288.317
287.907
287.496
287.086
286.678
286.275
285.876
285.481
285.091
284.705
284.322
283.943
283.565
283.188
288.746
288.333
287.915
287.496
287.079
286.666
286.259
285.858
285.463
285.074
284.69
284.31
283.933
283.559
283.186
288.778
288.355
287.924
287.494
287.067
286.648
286.237
285.834
285.439
285.052
284.671
284.294
283.922
283.552
283.184
288.823
288.383
287.934
287.487
287.049
286.621
286.206
285.802
285.408
285.024
284.646
284.275
283.907
283.543
283.181
288.889
288.42
287.942
287.473
287.019
286.583
286.164
285.76
285.369
284.988
284.616
284.25
283.89
283.533
283.177
288.985
288.464
287.942
287.442
286.971
286.527
286.106
285.705
285.318
284.944
284.579
284.221
283.869
283.52
283.173
289.129
288.51
287.92
287.383
286.896
286.448
286.03
285.634
285.256
284.891
284.535
284.187
283.844
283.505
283.168
289.337
288.525
287.845
287.275
286.781
286.339
285.931
285.547
285.181
284.828
284.484
284.148
283.816
283.489
283.163
322.896
322.688
322.48
322.27
322.06
321.848
321.633
321.416
321.194
320.967
320.732
320.484
320.212
319.895
319.483
322.901
322.702
322.503
322.303
322.103
321.902
321.7
321.496
321.289
321.081
320.868
320.648
320.414
320.141
319.73
322.905
322.716
322.527
322.337
322.147
321.957
321.767
321.577
321.387
321.197
321.008
320.822
320.642
320.484
320.431
322.91
322.73
322.55
322.371
322.192
322.013
321.835
321.658
321.484
321.312
321.147
320.991
320.855
320.755
320.719
322.915
322.744
322.574
322.404
322.235
322.068
321.902
321.738
321.578
321.424
321.279
321.148
321.042
320.98
321.005
322.919
322.758
322.597
322.437
322.279
322.121
321.967
321.815
321.669
321.529
321.4
321.287
321.199
321.146
321.138
322.924
322.772
322.62
322.47
322.32
322.174
322.029
321.889
321.755
321.628
321.511
321.41
321.33
321.281
321.281
322.928
322.785
322.642
322.501
322.361
322.224
322.089
321.959
321.835
321.718
321.611
321.517
321.44
321.382
321.346
322.932
322.798
322.664
322.531
322.4
322.271
322.146
322.026
321.911
321.802
321.703
321.613
321.535
321.468
321.399
322.937
322.81
322.684
322.559
322.437
322.317
322.2
322.088
321.981
321.88
321.787
321.701
321.624
321.554
321.492
322.94
322.821
322.703
322.587
322.472
322.36
322.251
322.147
322.047
321.953
321.865
321.784
321.708
321.634
321.552
322.944
322.833
322.722
322.612
322.505
322.401
322.299
322.202
322.109
322.022
321.94
321.863
321.79
321.719
321.653
322.948
322.843
322.739
322.637
322.537
322.439
322.345
322.254
322.168
322.087
322.011
321.939
321.87
321.801
321.719
322.951
322.853
322.756
322.66
322.566
322.475
322.387
322.303
322.223
322.148
322.078
322.013
321.951
321.891
321.832
322.954
322.862
322.771
322.682
322.594
322.509
322.427
322.349
322.275
322.206
322.143
322.084
322.031
321.98
321.914
322.957
322.871
322.786
322.702
322.62
322.541
322.465
322.392
322.324
322.261
322.203
322.152
322.109
322.078
322.076
322.96
322.879
322.799
322.721
322.645
322.57
322.5
322.432
322.369
322.311
322.26
322.215
322.18
322.157
322.149
322.962
322.887
322.812
322.739
322.667
322.598
322.532
322.469
322.411
322.358
322.311
322.271
322.241
322.225
322.231
322.965
322.894
322.824
322.755
322.688
322.623
322.562
322.503
322.449
322.4
322.356
322.32
322.293
322.277
322.272
322.967
322.9
322.835
322.77
322.707
322.647
322.589
322.534
322.484
322.438
322.397
322.364
322.338
322.323
322.322
322.969
322.906
322.845
322.784
322.725
322.668
322.614
322.563
322.515
322.472
322.433
322.401
322.375
322.358
322.347
322.971
322.912
322.854
322.797
322.742
322.688
322.637
322.589
322.544
322.502
322.465
322.434
322.407
322.388
322.377
322.972
322.917
322.863
322.809
322.757
322.706
322.658
322.612
322.569
322.53
322.494
322.462
322.435
322.411
322.392
322.974
322.922
322.87
322.82
322.77
322.723
322.677
322.634
322.593
322.555
322.52
322.488
322.459
322.432
322.405
322.975
322.926
322.878
322.83
322.783
322.738
322.695
322.653
322.614
322.578
322.544
322.512
322.482
322.454
322.427
322.977
322.93
322.884
322.839
322.795
322.752
322.711
322.671
322.634
322.599
322.566
322.534
322.504
322.475
322.443
322.978
322.934
322.89
322.847
322.806
322.765
322.726
322.688
322.652
322.618
322.586
322.556
322.526
322.497
322.468
322.979
322.937
322.896
322.855
322.816
322.777
322.739
322.704
322.669
322.637
322.606
322.576
322.547
322.518
322.486
322.98
322.94
322.901
322.862
322.825
322.788
322.752
322.718
322.685
322.654
322.625
322.596
322.569
322.542
322.515
322.981
322.943
322.906
322.869
322.833
322.798
322.764
322.731
322.7
322.67
322.642
322.616
322.591
322.566
322.537
322.982
322.946
322.91
322.875
322.841
322.807
322.775
322.744
322.714
322.686
322.659
322.634
322.612
322.592
322.581
322.983
322.948
322.914
322.881
322.848
322.816
322.785
322.755
322.726
322.7
322.674
322.651
322.631
322.614
322.6
322.984
322.951
322.918
322.886
322.854
322.824
322.794
322.765
322.738
322.712
322.688
322.667
322.647
322.632
322.623
322.984
322.953
322.921
322.891
322.86
322.831
322.802
322.775
322.749
322.724
322.701
322.68
322.662
322.646
322.634
322.985
322.955
322.924
322.895
322.866
322.837
322.81
322.783
322.758
322.734
322.712
322.692
322.674
322.658
322.647
322.985
322.956
322.927
322.899
322.871
322.843
322.817
322.791
322.767
322.743
322.722
322.702
322.684
322.668
322.654
322.986
322.958
322.93
322.902
322.875
322.849
322.823
322.798
322.774
322.752
322.73
322.71
322.692
322.676
322.662
322.986
322.959
322.932
322.905
322.879
322.853
322.828
322.804
322.781
322.759
322.738
322.718
322.699
322.682
322.666
322.987
322.96
322.934
322.908
322.883
322.858
322.833
322.81
322.787
322.765
322.745
322.725
322.706
322.688
322.669
322.987
322.961
322.936
322.911
322.886
322.862
322.838
322.815
322.793
322.771
322.751
322.731
322.712
322.693
322.675
322.987
322.962
322.938
322.913
322.889
322.865
322.842
322.819
322.797
322.776
322.756
322.736
322.717
322.698
322.679
322.988
322.963
322.939
322.915
322.891
322.868
322.845
322.823
322.802
322.781
322.761
322.741
322.722
322.704
322.686
322.988
322.964
322.94
322.917
322.894
322.871
322.849
322.827
322.806
322.785
322.765
322.746
322.727
322.709
322.69
322.988
322.965
322.941
322.918
322.896
322.873
322.851
322.83
322.809
322.789
322.77
322.751
322.732
322.714
322.697
322.988
322.965
322.942
322.92
322.897
322.875
322.854
322.833
322.812
322.792
322.773
322.755
322.737
322.719
322.701
322.989
322.966
322.943
322.921
322.899
322.877
322.856
322.835
322.815
322.795
322.777
322.758
322.741
322.725
322.711
322.989
322.966
322.944
322.922
322.9
322.878
322.857
322.837
322.817
322.798
322.779
322.762
322.745
322.729
322.714
322.989
322.967
322.944
322.922
322.901
322.88
322.859
322.838
322.819
322.8
322.782
322.764
322.748
322.732
322.718
322.989
322.967
322.945
322.923
322.901
322.88
322.86
322.84
322.82
322.801
322.783
322.766
322.75
322.734
322.72
322.989
322.967
322.945
322.923
322.902
322.881
322.86
322.84
322.821
322.802
322.784
322.767
322.751
322.736
322.721
322.989
322.967
322.945
322.923
322.902
322.881
322.86
322.84
322.821
322.803
322.785
322.768
322.752
322.736
322.722
322.989
322.967
322.945
322.923
322.902
322.881
322.86
322.84
322.821
322.802
322.785
322.768
322.752
322.737
322.722
322.989
322.967
322.945
322.923
322.901
322.88
322.86
322.84
322.82
322.802
322.784
322.767
322.751
322.736
322.722
322.989
322.966
322.944
322.922
322.9
322.879
322.859
322.838
322.819
322.801
322.783
322.766
322.75
322.735
322.722
322.989
322.966
322.944
322.921
322.899
322.878
322.857
322.837
322.817
322.799
322.781
322.764
322.748
322.734
322.72
322.988
322.966
322.943
322.92
322.898
322.876
322.855
322.835
322.815
322.796
322.778
322.761
322.746
322.731
322.719
322.988
322.965
322.942
322.919
322.896
322.874
322.853
322.832
322.812
322.793
322.775
322.758
322.742
322.728
322.715
322.988
322.964
322.941
322.917
322.894
322.872
322.85
322.829
322.809
322.789
322.771
322.754
322.738
322.724
322.712
322.988
322.963
322.939
322.915
322.892
322.869
322.847
322.825
322.805
322.785
322.766
322.748
322.732
322.717
322.705
322.987
322.962
322.938
322.913
322.889
322.866
322.843
322.821
322.8
322.78
322.76
322.742
322.725
322.71
322.698
322.987
322.961
322.936
322.911
322.886
322.862
322.839
322.816
322.794
322.774
322.754
322.735
322.717
322.7
322.682
322.987
322.96
322.934
322.908
322.883
322.858
322.834
322.81
322.788
322.767
322.747
322.727
322.709
322.691
322.674
322.986
322.959
322.932
322.905
322.879
322.853
322.828
322.804
322.781
322.76
322.739
322.719
322.7
322.682
322.662
322.986
322.957
322.929
322.901
322.874
322.848
322.822
322.797
322.774
322.752
322.73
322.71
322.691
322.673
322.655
322.985
322.956
322.926
322.897
322.869
322.842
322.815
322.79
322.766
322.743
322.721
322.701
322.682
322.663
322.644
322.985
322.954
322.923
322.893
322.864
322.835
322.808
322.781
322.756
322.733
322.711
322.691
322.672
322.654
322.637
322.984
322.952
322.92
322.888
322.857
322.828
322.799
322.772
322.746
322.722
322.7
322.68
322.661
322.644
322.627
322.983
322.949
322.916
322.883
322.851
322.82
322.79
322.761
322.735
322.71
322.688
322.667
322.65
322.634
322.621
322.982
322.947
322.911
322.877
322.843
322.811
322.779
322.75
322.722
322.697
322.674
322.653
322.636
322.623
322.614
322.981
322.944
322.907
322.87
322.835
322.801
322.768
322.737
322.708
322.681
322.658
322.637
322.62
322.608
322.599
322.98
322.941
322.902
322.863
322.826
322.79
322.755
322.722
322.692
322.664
322.639
322.618
322.601
322.59
322.587
322.979
322.937
322.896
322.855
322.816
322.778
322.741
322.706
322.674
322.645
322.619
322.596
322.579
322.567
322.562
322.978
322.934
322.89
322.847
322.805
322.764
322.726
322.689
322.655
322.623
322.595
322.571
322.552
322.541
322.541
322.976
322.93
322.883
322.837
322.793
322.75
322.709
322.67
322.633
322.599
322.569
322.542
322.52
322.506
322.499
322.975
322.925
322.876
322.827
322.78
322.734
322.69
322.649
322.609
322.573
322.54
322.51
322.484
322.465
322.461
322.973
322.92
322.868
322.816
322.766
322.717
322.671
322.626
322.584
322.545
322.508
322.474
322.443
322.413
322.376
322.972
322.915
322.859
322.805
322.751
322.699
322.649
322.602
322.557
322.514
322.475
322.437
322.402
322.367
322.333
322.97
322.91
322.85
322.792
322.735
322.68
322.626
322.576
322.527
322.482
322.439
322.399
322.36
322.32
322.274
322.968
322.904
322.84
322.778
322.717
322.658
322.602
322.548
322.496
322.448
322.403
322.359
322.318
322.277
322.239
322.966
322.897
322.83
322.763
322.699
322.636
322.575
322.518
322.463
322.412
322.364
322.319
322.276
322.233
322.186
322.963
322.891
322.818
322.748
322.678
322.611
322.547
322.486
322.428
322.374
322.324
322.277
322.233
322.192
322.154
322.961
322.883
322.806
322.731
322.657
322.585
322.516
322.451
322.39
322.333
322.281
322.233
322.189
322.148
322.105
322.958
322.875
322.793
322.712
322.633
322.557
322.484
322.414
322.349
322.289
322.235
322.186
322.144
322.107
322.077
322.956
322.867
322.779
322.693
322.608
322.526
322.448
322.374
322.304
322.241
322.185
322.135
322.094
322.061
322.043
322.953
322.858
322.764
322.672
322.581
322.494
322.41
322.33
322.256
322.189
322.129
322.079
322.038
322.004
321.963
322.949
322.848
322.748
322.649
322.552
322.458
322.368
322.282
322.203
322.13
322.068
322.017
321.978
321.951
321.928
322.946
322.838
322.731
322.626
322.522
322.421
322.323
322.23
322.144
322.066
321.998
321.946
321.911
321.897
321.902
322.942
322.828
322.713
322.6
322.489
322.38
322.275
322.174
322.079
321.993
321.919
321.862
321.828
321.828
321.871
322.939
322.817
322.695
322.574
322.455
322.338
322.224
322.113
322.009
321.913
321.828
321.761
321.723
321.73
321.815
322.935
322.805
322.676
322.547
322.419
322.293
322.169
322.049
321.933
321.824
321.725
321.642
321.585
321.578
321.686
289.555
288.421
287.674
287.106
286.63
286.207
285.817
285.451
285.1
284.761
284.431
284.107
283.788
283.471
283.157
289.154
288.056
287.394
286.888
286.455
286.064
285.699
285.352
285.018
284.694
284.378
284.066
283.759
283.454
283.151
287.574
287.388
287.007
286.62
286.252
285.902
285.567
285.244
284.93
284.623
284.321
284.023
283.729
283.437
283.145
286.952
286.854
286.625
286.339
286.035
285.73
285.428
285.13
284.836
284.547
284.261
283.978
283.697
283.418
283.139
286.366
286.412
286.281
286.069
285.821
285.556
285.285
285.012
284.74
284.469
284.2
283.931
283.664
283.398
283.133
286.1
286.093
285.993
285.826
285.617
285.386
285.144
284.895
284.643
284.39
284.137
283.884
283.631
283.379
283.126
285.825
285.838
285.753
285.61
285.429
285.225
285.006
284.779
284.547
284.312
284.074
283.836
283.598
283.359
283.12
285.701
285.65
285.554
285.42
285.257
285.073
284.875
284.667
284.453
284.234
284.012
283.789
283.564
283.339
283.113
285.603
285.493
285.382
285.251
285.1
284.932
284.75
284.56
284.362
284.159
283.952
283.743
283.532
283.319
283.107
285.434
285.337
285.223
285.096
284.954
284.799
284.633
284.457
284.274
284.086
283.893
283.697
283.5
283.3
283.1
285.323
285.193
285.074
284.951
284.818
284.674
284.521
284.359
284.19
284.015
283.836
283.654
283.469
283.282
283.094
285.142
285.04
284.929
284.812
284.689
284.557
284.416
284.267
284.11
283.949
283.782
283.612
283.439
283.264
283.088
285.023
284.895
284.787
284.679
284.566
284.445
284.316
284.179
284.035
283.885
283.73
283.572
283.41
283.247
283.082
284.822
284.735
284.644
284.549
284.448
284.339
284.221
284.096
283.963
283.824
283.681
283.533
283.383
283.231
283.077
284.677
284.578
284.503
284.424
284.336
284.239
284.132
284.017
283.895
283.767
283.634
283.497
283.357
283.215
283.072
284.392
284.405
284.366
284.306
284.231
284.145
284.049
283.944
283.832
283.714
283.591
283.463
283.333
283.201
283.067
284.264
284.268
284.244
284.197
284.134
284.058
283.971
283.876
283.773
283.664
283.55
283.432
283.31
283.187
283.063
284.123
284.149
284.137
284.1
284.046
283.978
283.9
283.813
283.718
283.617
283.512
283.402
283.289
283.174
283.058
284.052
284.059
284.046
284.014
283.967
283.906
283.835
283.755
283.667
283.574
283.476
283.374
283.269
283.163
283.054
283.967
283.981
283.97
283.94
283.897
283.841
283.775
283.702
283.621
283.535
283.444
283.349
283.251
283.152
283.051
283.923
283.921
283.906
283.876
283.835
283.783
283.722
283.654
283.579
283.498
283.414
283.325
283.234
283.141
283.047
283.872
283.87
283.851
283.821
283.78
283.731
283.674
283.61
283.54
283.465
283.386
283.304
283.219
283.132
283.044
283.848
283.83
283.805
283.772
283.732
283.685
283.63
283.57
283.505
283.435
283.361
283.284
283.204
283.123
283.041
283.827
283.795
283.764
283.729
283.689
283.643
283.591
283.534
283.473
283.407
283.338
283.266
283.191
283.115
283.039
283.789
283.759
283.726
283.69
283.65
283.605
283.555
283.501
283.443
283.382
283.317
283.249
283.179
283.108
283.036
283.764
283.726
283.69
283.653
283.613
283.57
283.523
283.471
283.417
283.358
283.297
283.234
283.168
283.102
283.034
283.723
283.69
283.655
283.619
283.58
283.538
283.493
283.444
283.392
283.337
283.28
283.22
283.158
283.096
283.032
283.696
283.656
283.621
283.585
283.548
283.508
283.465
283.419
283.37
283.318
283.264
283.207
283.149
283.09
283.03
283.649
283.619
283.587
283.554
283.519
283.481
283.44
283.396
283.35
283.3
283.249
283.196
283.141
283.085
283.028
283.616
283.582
283.554
283.524
283.491
283.455
283.417
283.375
283.331
283.284
283.236
283.185
283.133
283.08
283.027
283.55
283.542
283.521
283.495
283.465
283.432
283.395
283.356
283.314
283.27
283.224
283.176
283.126
283.076
283.025
283.521
283.51
283.493
283.47
283.442
283.411
283.376
283.339
283.299
283.257
283.213
283.167
283.12
283.073
283.024
283.49
283.484
283.468
283.447
283.421
283.391
283.359
283.323
283.285
283.245
283.203
283.159
283.115
283.069
283.023
283.474
283.463
283.448
283.428
283.403
283.375
283.343
283.309
283.273
283.234
283.194
283.152
283.11
283.066
283.022
283.456
283.446
283.431
283.411
283.387
283.36
283.33
283.297
283.262
283.225
283.186
283.146
283.105
283.063
283.021
283.447
283.434
283.417
283.397
283.374
283.347
283.318
283.286
283.252
283.217
283.179
283.141
283.101
283.061
283.02
283.436
283.423
283.406
283.386