/*--------------------------------*- C++ -*----------------------------------*\
| =========                 |                                                 |
| \\      /  F ield         | OpenFOAM: The Open Source CFD Toolbox           |
|  \\    /   O peration     | Version:  5.x                                   |
|   \\  /    A nd           | Web:      www.OpenFOAM.org                      |
|    \\/     M anipulation  |                                                 |
\*---------------------------------------------------------------------------*/
FoamFile
{
    version     2.0;
    format      ascii;
    class       volScalarField;
    location    "5";
    object      gradTy;
}
// * * * * * * * * * * * * * * * * * * * * * * * * * * * * * * * * * * * * * //

dimensions      [0 -1 0 1 0 0 0];

internalField   nonuniform List<scalar> 
3200
(
18.2508
8.63672
11.7311
8.31332
9.75081
8.04078
8.79497
7.79378
8.24264
7.6019
7.87726
7.51845
7.72887
7.31862
7.53083
7.14062
7.33977
6.98124
7.163
6.83909
7.00242
6.71345
6.85855
6.60337
6.73141
6.50718
6.62148
6.42175
6.5368
6.36757
6.23232
6.31953
6.20095
6.25866
6.16641
6.21111
6.13704
6.17299
6.11278
6.14203
6.09291
6.11674
6.07672
6.09606
6.0637
6.07918
6.05355
6.06548
6.04631
6.05451
6.0434
6.04956
6.03795
6.04336
6.03438
6.03802
6.03307
6.03413
6.03476
6.0321
6.04083
6.0325
6.05383
6.03602
6.07878
6.04294
6.12664
6.0485
6.22323
6.00094
6.29317
7.10844
6.42153
7.94679
6.78024
9.89459
9.12429
9.00649
8.98217
8.97693
17.0111
9.75272
11.3334
8.77731
9.548
8.27093
8.67471
7.92627
8.16545
7.68605
7.83308
7.56525
7.67739
7.37005
7.48215
7.18985
7.29514
7.02659
7.12273
6.88012
6.96653
6.75009
6.82687
6.63575
6.70353
6.53563
6.5963
6.44693
6.5093
6.37134
6.2572
6.30513
6.21656
6.24732
6.17829
6.20199
6.14653
6.16557
6.12049
6.13597
6.09919
6.11181
6.08184
6.09208
6.06785
6.07604
6.05684
6.06315
6.04879
6.05315
6.04485
6.04812
6.03942
6.04227
6.03554
6.03746
6.03374
6.03429
6.03475
6.03332
6.03984
6.03538
6.05132
6.04179
6.07373
6.05444
6.11683
6.07406
6.20344
6.0763
6.35162
6.99321
6.62326
7.76422
7.1575
9.50144
9.09817
9.00273
8.98138
8.9767
16.0616
10.5152
11.1011
9.10822
9.42709
8.43385
8.60053
8.01925
8.11699
7.74514
7.80548
7.59684
7.64268
7.40469
7.44964
7.22315
7.26545
7.05735
7.096
6.90799
6.94274
6.775
6.80589
6.65777
6.68507
6.55492
6.57951
6.46362
6.4898
6.37414
6.27559
6.29617
6.22739
6.23998
6.18644
6.19602
6.15303
6.16071
6.12576
6.13201
6.10349
6.10858
6.08535
6.08947
6.07069
6.07399
6.05911
6.06165
6.05052
6.0523
6.04583
6.04716
6.04043
6.04156
6.03636
6.03712
6.03424
6.03445
6.03482
6.03422
6.03929
6.03745
6.04984
6.0459
6.07073
6.06267
6.11123
6.09273
6.19391
6.13556
6.39542
6.91844
6.76456
7.65157
7.41674
9.21821
9.05975
8.99602
8.97995
8.9763
15.334
11.0323
10.972
9.34666
9.35867
8.55037
8.55626
8.08507
8.08732
7.78694
7.78864
7.61826
7.61932
7.42802
7.42799
7.24571
7.24578
7.07823
7.07833
6.92694
6.92705
6.79197
6.79208
6.67278
6.67291
6.56803
6.56834
6.47463
6.47598
6.37626
6.28921
6.29079
6.23497
6.23527
6.19207
6.19216
6.1575
6.15756
6.12939
6.12943
6.10645
6.10648
6.08776
6.08778
6.07265
6.07267
6.06068
6.06069
6.05174
6.05177
6.04651
6.04653
6.04112
6.04111
6.03693
6.03692
6.03462
6.0346
6.03492
6.03489
6.03901
6.03895
6.049
6.04886
6.06904
6.06864
6.10831
6.10662
6.19076
6.18209
6.42869
6.87074
6.86423
7.58379
7.59452
9.01337
9.01754
8.98741
8.97802
8.97575
14.7785
11.3798
10.9056
9.5196
9.32306
8.63433
8.53108
8.13195
8.06975
7.81665
7.77869
7.63282
7.60366
7.44369
7.41363
7.26098
7.23281
7.09241
7.06673
6.93983
6.91676
6.80352
6.78304
6.683
6.66495
6.57693
6.56094
6.48184
6.4662
6.37788
6.29929
6.2877
6.24029
6.23231
6.19597
6.1897
6.16059
6.15553
6.13189
6.12777
6.10849
6.10513
6.08943
6.0867
6.07401
6.07182
6.06178
6.06009
6.0526
6.05145
6.04697
6.04611
6.0416
6.04083
6.03734
6.03682
6.03491
6.03475
6.03504
6.0354
6.0389
6.04005
6.04858
6.05101
6.06818
6.07301
6.10704
6.11707
6.19132
6.21842
6.45415
6.84099
6.93486
7.54437
7.71599
8.86512
8.97671
8.97796
8.9758
8.97512
14.359
11.6103
10.8755
9.64497
9.30714
8.69486
8.51774
8.16535
8.05982
7.83776
7.77305
7.64271
7.59323
7.45417
7.40417
7.27126
7.22434
7.10199
7.05917
6.94857
6.91009
6.81137
6.77719
6.68995
6.65979
6.58295
6.55605
6.48651
6.45932
6.3791
6.30669
6.28604
6.24405
6.23048
6.19866
6.18814
6.16271
6.15425
6.13361
6.12672
6.10989
6.10428
6.09057
6.08602
6.07494
6.0713
6.06254
6.05973
6.0532
6.05127
6.04728
6.04583
6.04193
6.04065
6.03763
6.03677
6.03512
6.03487
6.03516
6.03578
6.03889
6.04085
6.04839
6.05258
6.0678
6.07621
6.10673
6.12495
6.19377
6.24639
6.47356
6.82296
6.98486
7.52246
7.79835
8.75838
8.94029
8.96866
8.97353
8.97445
14.0494
11.7602
10.8654
9.73463
9.3022
8.73798
8.51141
8.18888
8.05455
7.85257
7.77003
7.64936
7.58638
7.46109
7.39802
7.2781
7.21888
7.1084
7.05433
6.95442
6.90582
6.81663
6.77345
6.69461
6.6565
6.58697
6.55287
6.48949
6.45457
6.38001
6.31201
6.28524
6.24666
6.22938
6.2005
6.18718
6.16416
6.15345
6.13477
6.12607
6.11084
6.10375
6.09135
6.08559
6.07558
6.07097
6.06306
6.05951
6.05362
6.05117
6.0475
6.04566
6.04215
6.04055
6.03783
6.03675
6.03528
6.03497
6.03526
6.03606
6.03892
6.04142
6.04835
6.0537
6.06771
6.07852
6.10692
6.13081
6.19687
6.26739
6.48809
6.81243
7.01983
7.51103
7.85334
8.68276
8.91001
8.96029
8.97142
8.97383
13.8313
11.8544
10.8646
9.79636
9.30253
8.7676
8.50891
8.20488
8.05199
7.86261
7.76854
7.65371
7.58202
7.46552
7.39415
7.28252
7.21547
7.11255
7.05131
6.95822
6.90318
6.82005
6.77115
6.69765
6.65446
6.58957
6.55086
6.49133
6.4514
6.38066
6.31569
6.28491
6.24842
6.22875
6.20172
6.18661
6.16511
6.15297
6.13554
6.12567
6.11147
6.10343
6.09186
6.08534
6.076
6.07078
6.0634
6.05938
6.0539
6.05112
6.04764
6.04555
6.0423
6.04049
6.03797
6.03675
6.03539
6.03505
6.03534
6.03626
6.03897
6.04182
6.04836
6.05447
6.06774
6.08013
6.10728
6.13499
6.19978
6.28238
6.49847
6.80658
7.04345
7.50554
7.88886
8.63122
8.88681
8.95349
8.96965
8.9733
13.6924
11.9091
10.867
9.83511
9.3045
8.78618
8.50823
8.21484
8.05088
7.86884
7.76788
7.65633
7.57946
7.46814
7.3919
7.28515
7.21349
7.11503
7.04958
6.96049
6.90166
6.82211
6.76982
6.69947
6.65329
6.59113
6.54969
6.49238
6.44946
6.38108
6.318
6.28481
6.24951
6.22841
6.20246
6.18629
6.16569
6.1527
6.13601
6.12545
6.11185
6.10325
6.09217
6.0852
6.07625
6.07067
6.06361
6.05932
6.05407
6.05109
6.04772
6.04549
6.04239
6.04045
6.03805
6.03675
6.03547
6.0351
6.0354
6.03639
6.03901
6.04208
6.04839
6.05496
6.0678
6.08115
6.10763
6.13768
6.20199
6.29203
6.50516
6.80357
7.05806
7.50321
7.91001
8.59916
8.87117
8.94872
8.96838
8.97292
13.6248
11.9341
10.869
9.8538
9.30598
8.79513
8.50817
8.21962
8.0505
7.87182
7.76764
7.65756
7.57828
7.46935
7.39086
7.28638
7.21259
7.11619
7.04878
6.96156
6.90097
6.82307
6.76922
6.70032
6.65275
6.59186
6.54914
6.49286
6.44855
6.38128
6.31911
6.28479
6.25003
6.22826
6.20282
6.18615
6.16596
6.15258
6.13623
6.12536
6.11203
6.10317
6.09232
6.08513
6.07637
6.07063
6.06371
6.05929
6.05416
6.05108
6.04776
6.04546
6.04243
6.04044
6.03809
6.03676
6.0355
6.03513
6.03543
6.03645
6.03903
6.0422
6.04842
6.05519
6.06785
6.08165
6.10783
6.139
6.20317
6.29675
6.50845
6.80233
7.06505
7.50241
7.91987
8.58378
8.8633
8.94626
8.96772
8.97272
-13.7512
-11.9459
-10.717
-9.37779
-8.56735
-7.67545
-7.11347
-6.46158
-6.04655
-5.5645
-5.27109
-4.94552
-4.70796
-4.37955
-4.14396
-3.83239
-3.61467
-3.33363
-3.13951
-2.89156
-2.72115
-2.5045
-2.35587
-2.16711
-2.03726
-1.87154
-1.75516
-1.60142
-1.47922
-1.29193
-1.11659
-1.01821
-0.91613
-0.850972
-0.773095
-0.721133
-0.65686
-0.613485
-0.55933
-0.522661
-0.476755
-0.445663
-0.406746
-0.380448
-0.347644
-0.32565
-0.298506
-0.280719
-0.259452
-0.246329
-0.231535
-0.220642
-0.205473
-0.194546
-0.180039
-0.169878
-0.156732
-0.147643
-0.136026
-0.128058
-0.117962
-0.111118
-0.102585
-0.0970376
-0.0905697
-0.0872848
-0.0853412
-0.0888652
-0.103248
-0.137302
-0.227653
-0.374071
-0.528874
-0.815667
-1.11857
-1.62803
-1.84354
-1.90758
-1.92415
-1.92801
-13.8234
-11.9229
-10.7214
-9.35664
-8.57062
-7.66226
-7.11707
-6.45211
-6.04923
-5.55695
-5.27238
-4.942
-4.7116
-4.37584
-4.147
-3.82864
-3.6172
-3.33016
-3.14167
-2.88846
-2.72301
-2.50179
-2.35748
-2.16476
-2.0387
-1.86957
-1.75666
-1.60016
-1.48183
-1.29146
-1.11352
-1.01836
-0.914656
-0.851484
-0.772061
-0.721628
-0.656027
-0.613919
-0.558632
-0.523033
-0.476165
-0.445978
-0.406243
-0.380711
-0.347214
-0.325858
-0.298133
-0.28086
-0.259127
-0.246397
-0.231381
-0.220815
-0.205305
-0.194691
-0.179866
-0.169998
-0.156571
-0.147745
-0.135881
-0.128144
-0.117833
-0.111186
-0.102466
-0.0970755
-0.0904434
-0.0872321
-0.0851235
-0.0884317
-0.102462
-0.13505
-0.225411
-0.373736
-0.523594
-0.815023
-1.11031
-1.63978
-1.84959
-1.90947
-1.92466
-1.92817
-13.9716
-11.8719
-10.7323
-9.31236
-8.57878
-7.63455
-7.12547
-6.43216
-6.0555
-5.54111
-5.27551
-4.93449
-4.71946
-4.36786
-4.15363
-3.82062
-3.62277
-3.32275
-3.14642
-2.88186
-2.7271
-2.496
-2.36103
-2.15974
-2.04187
-1.86536
-1.7599
-1.59738
-1.48732
-1.29049
-1.10714
-1.01886
-0.911564
-0.852648
-0.76987
-0.722733
-0.654257
-0.614882
-0.55715
-0.523858
-0.47491
-0.446678
-0.405174
-0.381294
-0.3463
-0.326322
-0.297345
-0.281181
-0.258445
-0.246559
-0.23105
-0.221187
-0.204942
-0.195005
-0.179497
-0.170263
-0.156227
-0.14797
-0.135573
-0.128335
-0.117558
-0.111339
-0.102216
-0.0971641
-0.0901813
-0.0871364
-0.08469
-0.0875703
-0.100935
-0.130489
-0.220851
-0.37334
-0.512653
-0.814225
-1.09268
-1.66433
-1.86165
-1.91316
-1.92564
-1.92846
-14.2039
-11.7824
-10.7545
-9.24062
-8.59537
-7.58943
-7.14125
-6.39955
-6.06729
-5.51532
-5.28166
-4.92195
-4.73279
-4.35439
-4.16502
-3.80719
-3.63243
-3.3104
-3.1547
-2.87087
-2.73424
-2.48637
-2.36723
-2.15139
-2.04738
-1.8583
-1.76543
-1.5925
-1.49629
-1.28899
-1.09695
-1.02012
-0.90654
-0.854771
-0.766257
-0.724693
-0.651325
-0.616583
-0.554693
-0.525312
-0.472828
-0.44791
-0.403403
-0.382323
-0.344787
-0.327149
-0.296045
-0.281767
-0.25733
-0.246867
-0.230495
-0.221816
-0.204329
-0.195544
-0.178879
-0.170721
-0.155654
-0.148362
-0.135059
-0.128669
-0.117103
-0.111609
-0.101804
-0.0973312
-0.0897629
-0.0870177
-0.0840445
-0.0862905
-0.098761
-0.123497
-0.213807
-0.373472
-0.495222
-0.814352
-1.06333
-1.70385
-1.87954
-1.91841
-1.927
-1.92887
-14.533
-11.6373
-10.7961
-9.13414
-8.6264
-7.52201
-7.16877
-6.35057
-6.08786
-5.47681
-5.29286
-4.90259
-4.75369
-4.33337
-4.18315
-3.78645
-3.64799
-3.2914
-3.16812
-2.85399
-2.74585
-2.4716
-2.37731
-2.13858
-2.0563
-1.84741
-1.77417
-1.58456
-1.5097
-1.28687
-1.08217
-1.02285
-0.899046
-0.858366
-0.760768
-0.72793
-0.646851
-0.619371
-0.550938
-0.527692
-0.469646
-0.449928
-0.400696
-0.384013
-0.34248
-0.328516
-0.294075
-0.282761
-0.255659
-0.247413
-0.229634
-0.222799
-0.20337
-0.1964
-0.177921
-0.171457
-0.154771
-0.148997
-0.134271
-0.12921
-0.116406
-0.112053
-0.10118
-0.0976232
-0.0891526
-0.0869093
-0.0831912
-0.0846027
-0.0960973
-0.113882
-0.20399
-0.375121
-0.469895
-0.817285
-1.01831
-1.76196
-1.9029
-1.92487
-1.92864
-1.92935
-14.9779
-11.41
-10.8706
-8.98149
-8.6813
-7.42456
-7.21489
-6.27938
-6.12238
-5.42121
-5.31232
-4.87358
-4.78546
-4.30155
-4.21114
-3.75539
-3.67227
-3.26308
-3.18917
-2.82889
-2.7641
-2.44963
-2.39317
-2.11951
-2.0703
-1.83109
-1.78757
-1.57204
-1.52904
-1.28404
-1.06157
-1.02816
-0.888231
-0.864241
-0.752693
-0.733098
-0.640236
-0.623801
-0.545379
-0.531466
-0.464934
-0.45313
-0.39669
-0.3867
-0.339073
-0.330704
-0.291181
-0.284389
-0.253234
-0.248343
-0.228337
-0.224287
-0.201914
-0.197718
-0.176485
-0.172604
-0.153452
-0.14999
-0.133097
-0.130063
-0.115372
-0.112759
-0.100264
-0.0981129
-0.0882943
-0.0868609
-0.0821338
-0.0825125
-0.0931829
-0.101375
-0.190932
-0.379825
-0.434465
-0.826074
-0.951585
-1.84418
-1.93102
-1.93205
-1.93039
-1.92986
-15.5656
-11.0615
-10.9991
-8.7653
-8.77447
-7.28522
-7.29005
-6.17705
-6.17867
-5.34193
-5.34498
-4.83056
-4.83306
-4.25399
-4.25375
-3.70943
-3.7096
-3.22134
-3.22169
-2.79196
-2.79234
-2.41735
-2.41773
-2.09147
-2.09189
-1.80695
-1.80785
-1.55261
-1.55646
-1.28031
-1.03341
-1.03774
-0.872782
-0.873621
-0.740942
-0.7412
-0.630566
-0.630713
-0.537241
-0.537348
-0.458034
-0.458119
-0.390828
-0.390893
-0.334098
-0.33414
-0.286981
-0.286992
-0.249761
-0.249879
-0.226404
-0.22651
-0.199732
-0.199718
-0.174356
-0.174362
-0.151508
-0.151523
-0.13137
-0.131384
-0.113856
-0.113862
-0.0989355
-0.0989105
-0.0871016
-0.0869453
-0.0808732
-0.0800116
-0.0903685
-0.0856139
-0.173902
-0.3899
-0.385557
-0.845507
-0.85418
-1.95863
-1.96258
-1.93935
-1.9321
-1.93035
-16.3334
-10.5354
-11.2144
-8.45939
-8.92758
-7.08613
-7.40994
-6.03014
-6.2685
-5.22906
-5.39834
-4.76686
-4.90393
-4.18328
-4.31813
-3.64169
-3.76648
-3.16007
-3.27141
-2.73784
-2.8356
-2.37006
-2.45535
-2.05036
-2.12491
-1.77137
-1.83839
-1.52283
-1.59509
-1.27542
-0.995203
-1.0541
-0.850703
-0.888345
-0.723876
-0.75374
-0.616468
-0.641372
-0.525362
-0.546409
-0.447961
-0.465805
-0.382274
-0.397364
-0.32685
-0.339466
-0.280895
-0.291088
-0.244796
-0.25236
-0.223528
-0.22981
-0.196481
-0.202735
-0.171214
-0.177037
-0.148651
-0.153863
-0.128837
-0.133407
-0.11164
-0.115563
-0.0970122
-0.10018
-0.0854439
-0.0872674
-0.0794051
-0.077063
-0.0881596
-0.0661324
-0.151763
-0.408789
-0.318077
-0.882991
-0.712943
-2.1171
-1.99522
-1.946
-1.93359
-1.93077
-17.3331
-9.75022
-11.567
-8.02456
-9.17308
-6.80043
-7.59797
-5.81851
-6.40944
-5.06785
-5.48373
-4.67242
-5.00911
-4.07836
-4.41497
-3.54191
-3.85261
-3.0701
-3.34693
-2.65847
-2.9014
-2.30074
-2.51259
-1.99008
-2.17505
-1.71898
-1.88423
-1.47754
-1.64939
-1.26895
-0.943437
-1.08095
-0.818986
-0.911156
-0.69904
-0.772969
-0.595885
-0.65767
-0.508004
-0.560253
-0.433239
-0.477548
-0.369777
-0.40726
-0.31628
-0.347642
-0.27206
-0.297444
-0.237679
-0.256299
-0.21925
-0.234697
-0.191648
-0.207263
-0.166579
-0.181081
-0.144451
-0.157414
-0.125122
-0.136485
-0.108398
-0.118164
-0.0942213
-0.102168
-0.0831249
-0.0879779
-0.0777172
-0.0735777
-0.0872764
-0.0423453
-0.12277
-0.441588
-0.224372
-0.949874
-0.508739
-2.33661
-2.02495
-1.95119
-1.93469
-1.93108
-18.6364
-8.58922
-12.1343
-7.40227
-9.5596
-6.3881
-7.88926
-5.51224
-6.62786
-4.83652
-5.61839
-4.53224
-5.16516
-3.92292
-4.56037
-3.39494
-3.98263
-2.9379
-3.46122
-2.54199
-3.0011
-2.19906
-2.59935
-1.90163
-2.25097
-1.64187
-1.95307
-1.40922
-1.72591
-1.26039
-0.873253
-1.12388
-0.7732
-0.946235
-0.662851
-0.802328
-0.565831
-0.68251
-0.482647
-0.581344
-0.411735
-0.495447
-0.351538
-0.422362
-0.300879
-0.360158
-0.259245
-0.307265
-0.22748
-0.262519
-0.212925
-0.241975
-0.184519
-0.214094
-0.159784
-0.187218
-0.13831
-0.162819
-0.119702
-0.141182
-0.10368
-0.122152
-0.0901907
-0.105271
-0.0798834
-0.0893264
-0.0758153
-0.0694098
-0.0887662
-0.0135718
-0.0842641
-0.495844
-0.0929754
-1.06343
-0.213784
-2.6417
-2.04517
-1.95408
-1.93529
-1.93124
18.6364
8.58922
12.1343
7.40227
9.5596
6.3881
7.88926
5.51224
6.62786
4.83652
5.61839
4.53224
5.16516
3.92292
4.56037
3.39494
3.98263
2.9379
3.46122
2.54199
3.0011
2.19906
2.59935
1.90163
2.25097
1.64187
1.95307
1.40922
1.72591
1.26039
0.873252
1.12388
0.773199
0.946235
0.66285
0.802328
0.56583
0.68251
0.482646
0.581344
0.411735
0.495447
0.351537
0.422362
0.300878
0.360158
0.259245
0.307265
0.22748
0.262519
0.212925
0.241975
0.184519
0.214094
0.159783
0.187218
0.13831
0.162819
0.119702
0.141183
0.10368
0.122152
0.0901907
0.105271
0.0798835
0.0893266
0.0758154
0.0694099
0.0887668
0.0135714
0.0842648
0.49585
0.0929771
1.06344
0.213789
2.64173
2.04519
1.9541
1.93531
1.93126
17.3331
9.75023
11.5671
8.02457
9.17309
6.80044
7.59798
5.81852
6.40945
5.06786
5.48374
4.67243
5.00912
4.07837
4.41498
3.54191
3.85261
3.0701
3.34694
2.65847
2.90141
2.30074
2.5126
1.99008
2.17506
1.71899
1.88423
1.47754
1.6494
1.26895
0.943439
1.08095
0.818988
0.911158
0.699042
0.772971
0.595887
0.657672
0.508006
0.560255
0.43324
0.47755
0.369779
0.407262
0.316282
0.347644
0.272061
0.297446
0.23768
0.2563
0.219252
0.234698
0.19165
0.207265
0.16658
0.181083
0.144452
0.157415
0.125124
0.136487
0.108399
0.118165
0.0942224
0.102169
0.083126
0.087979
0.0777183
0.0735787
0.0872777
0.042346
0.122772
0.441594
0.224376
0.949886
0.508747
2.33663
2.02497
1.9512
1.93471
1.9311
16.3334
10.5354
11.2144
8.4594
8.92759
7.08614
7.40995
6.03015
6.26851
5.22907
5.39835
4.76687
4.90394
4.18329
4.31814
3.6417
3.76649
3.16008
3.27142
2.73785
2.83561
2.37007
2.45536
2.05037
2.12492
1.77138
1.83839
1.52283
1.59509
1.27542
0.995208
1.0541
0.850708
0.888349
0.72388
0.753745
0.616472
0.641376
0.525366
0.546413
0.447964
0.465808
0.382277
0.397367
0.326853
0.339469
0.280897
0.29109
0.244799
0.252363
0.223531
0.229813
0.196483
0.202737
0.171216
0.177039
0.148653
0.153865
0.128839
0.133409
0.111642
0.115565
0.0970142
0.100182
0.0854458
0.0872692
0.0794069
0.0770647
0.0881615
0.066134
0.151766
0.408795
0.318082
0.883002
0.712953
2.11712
1.99524
1.94602
1.93361
1.93079
15.5656
11.0615
10.9991
8.76531
8.77448
7.28523
7.29007
6.17706
6.17868
5.34194
5.34499
4.83057
4.83307
4.254
4.25376
3.70944
3.70961
3.22135
3.2217
2.79197
2.79235
2.41736
2.41774
2.09148
2.0919
1.80695
1.80786
1.55262
1.55647
1.28032
1.03341
1.03775
0.872787
0.873626
0.740946
0.741205
0.630571
0.630717
0.537245
0.537352
0.458038
0.458123
0.390832
0.390897
0.334101
0.334144
0.286984
0.286996
0.249764
0.249882
0.226407
0.226513
0.199735
0.199721
0.174359
0.174365
0.151511
0.151525
0.131372
0.131386
0.113859
0.113864
0.0989378
0.0989127
0.0871038
0.0869474
0.0808753
0.0800137
0.0903708
0.0856161
0.173905
0.389906
0.385563
0.845518
0.854191
1.95865
1.96259
1.93937
1.93212
1.93037
14.9779
11.41
10.8706
8.98151
8.68131
7.42457
7.2149
6.27939
6.12239
5.42122
5.31233
4.8736
4.78547
4.30156
4.21115
3.7554
3.67228
3.26309
3.18918
2.82889
2.76411
2.44964
2.39318
2.11952
2.07031
1.8311
1.78758
1.57204
1.52905
1.28405
1.06157
1.02817
0.888237
0.864246
0.752698
0.733103
0.640241
0.623806
0.545383
0.531471
0.464938
0.453134
0.396694
0.386703
0.339077
0.330707
0.291185
0.284392
0.253238
0.248346
0.22834
0.224291
0.201917
0.197721
0.176488
0.172607
0.153455
0.149993
0.133099
0.130066
0.115374
0.112762
0.100266
0.0981153
0.0882966
0.0868632
0.0821361
0.0825147
0.0931853
0.101377
0.190936
0.379831
0.434472
0.826085
0.951597
1.8442
1.93104
1.93207
1.93041
1.92988
14.533
11.6373
10.7962
9.13415
8.62641
7.52203
7.16878
6.35058
6.08787
5.47682
5.29287
4.9026
4.7537
4.33338
4.18316
3.78646
3.648
3.29141
3.16813
2.854
2.74586
2.47161
2.37732
2.13859
2.05631
1.84741
1.77418
1.58457
1.50971
1.28688
1.08217
1.02286
0.899052
0.858371
0.760774
0.727935
0.646856
0.619376
0.550943
0.527696
0.46965
0.449933
0.4007
0.384017
0.342484
0.328519
0.294078
0.282764
0.255662
0.247417
0.229637
0.222802
0.203373
0.196403
0.177924
0.17146
0.154773
0.148999
0.134273
0.129213
0.116408
0.112056
0.101182
0.0976256
0.0891549
0.0869116
0.0831935
0.084605
0.0960998
0.113884
0.203994
0.375127
0.469903
0.817296
1.01832
1.76198
1.90292
1.92489
1.92865
1.92937
14.2039
11.7825
10.7545
9.24063
8.59539
7.58945
7.14126
6.39956
6.0673
5.51533
5.28167
4.92196
4.7328
4.3544
4.16503
3.8072
3.63244
3.31041
3.15471
2.87088
2.73425
2.48638
2.36724
2.1514
2.04739
1.85831
1.76544
1.59251
1.4963
1.28899
1.09696
1.02012
0.906545
0.854776
0.766262
0.724699
0.65133
0.616587
0.554698
0.525316
0.472832
0.447914
0.403407
0.382327
0.344791
0.327152
0.296049
0.28177
0.257334
0.24687
0.230498
0.221819
0.204332
0.195547
0.178882
0.170724
0.155656
0.148365
0.135062
0.128671
0.117105
0.111612
0.101806
0.0973336
0.0897652
0.08702
0.0840468
0.0862928
0.0987635
0.123499
0.213811
0.373478
0.495229
0.814363
1.06334
1.70386
1.87956
1.91843
1.92702
1.92889
13.9717
11.8719
10.7324
9.31237
8.57879
7.63456
7.12548
6.43217
6.05551
5.54112
5.27552
4.93451
4.71947
4.36787
4.15364
3.82063
3.62278
3.32276
3.14643
2.88187
2.72711
2.49601
2.36103
2.15975
2.04187
1.86536
1.75991
1.59739
1.48733
1.2905
1.10714
1.01886
0.911569
0.852654
0.769875
0.722738
0.654261
0.614887
0.557155
0.523862
0.474914
0.446682
0.405178
0.381297
0.346303
0.326326
0.297348
0.281184
0.258448
0.246562
0.231053
0.22119
0.204946
0.195008
0.1795
0.170266
0.15623
0.147973
0.135575
0.128338
0.117561
0.111342
0.102218
0.0971665
0.0901836
0.0871386
0.0846923
0.0875726
0.100938
0.130492
0.220856
0.373346
0.512661
0.814236
1.09269
1.66435
1.86167
1.91318
1.92566
1.92848
13.8234
11.9229
10.7214
9.35665
8.57063
7.66227
7.11709
6.45212
6.04924
5.55696
5.27239
4.94201
4.71161
4.37585
4.14701
3.82865
3.61721
3.33017
3.14168
2.88847
2.72302
2.5018
2.35748
2.16476
2.03871
1.86958
1.75666
1.60017
1.48183
1.29146
1.11352
1.01837
0.914661
0.851489
0.772066
0.721633
0.656032
0.613923
0.558637
0.523037
0.476169
0.445982
0.406247
0.380714
0.347217
0.325861
0.298137
0.280863
0.259131
0.2464
0.231384
0.220818
0.205308
0.194693
0.179869
0.170001
0.156573
0.147748
0.135884
0.128147
0.117835
0.111189
0.102469
0.0970778
0.0904456
0.0872343
0.0851257
0.088434
0.102465
0.135054
0.225416
0.373742
0.523602
0.815034
1.11032
1.6398
1.84961
1.90949
1.92468
1.92818
13.7512
11.9459
10.717
9.3778
8.56736
7.67546
7.11348
6.46159
6.04656
5.5645
5.2711
4.94553
4.70797
4.37956
4.14396
3.8324
3.61468
3.33364
3.13952
2.89157
2.72116
2.50451
2.35588
2.16712
2.03727
1.87155
1.75516
1.60142
1.47923
1.29194
1.1166
1.01822
0.916135
0.850977
0.773099
0.721137
0.656865
0.613489
0.559334
0.522665
0.476759
0.445667
0.406749
0.380452
0.347648
0.325653
0.298509
0.280722
0.259454
0.246332
0.231538
0.220645
0.205476
0.194549
0.180042
0.16988
0.156734
0.147645
0.136028
0.12806
0.117964
0.11112
0.102587
0.0970398
0.0905718
0.0872869
0.0853433
0.0888674
0.103251
0.137305
0.227658
0.374077
0.528882
0.815678
1.11859
1.62804
1.84355
1.90759
1.92417
1.92803
-13.6283
-11.9391
-10.8759
-9.86434
-9.32067
-8.8178
-8.53993
-8.26877
-8.11823
-7.96948
-7.86691
-7.73112
-7.63545
-7.51079
-7.42382
-7.31149
-7.23337
-7.13275
-7.06293
-6.97321
-6.91115
-6.83167
-6.77686
-6.70689
-6.65865
-6.59698
-6.55377
-6.49688
-6.45212
-6.38422
-6.32149
-6.28687
-6.25182
-6.22988
-6.20423
-6.18744
-6.1671
-6.15362
-6.13715
-6.1262
-6.11277
-6.10385
-6.09292
-6.08569
-6.07687
-6.07108
-6.06411
-6.05966
-6.05449
-6.05139
-6.04805
-6.04573
-6.04267
-6.04067
-6.0383
-6.03695
-6.03568
-6.03529
-6.03557
-6.03659
-6.03915
-6.04231
-6.04851
-6.05528
-6.06793
-6.08172
-6.10789
-6.13906
-6.20322
-6.2968
-6.50849
-6.80236
-7.06508
-7.50244
-7.91989
-8.5838
-8.86332
-8.94628
-8.96774
-8.97273
-13.6958
-11.914
-10.8738
-9.84563
-9.31904
-8.8088
-8.53967
-8.26395
-8.11815
-7.96764
-7.86824
-7.72952
-7.63661
-7.50928
-7.42483
-7.31013
-7.23427
-7.13152
-7.06372
-6.97211
-6.91185
-6.83069
-6.77747
-6.70602
-6.65919
-6.59624
-6.55431
-6.49639
-6.45304
-6.38401
-6.32037
-6.28689
-6.2513
-6.23003
-6.20388
-6.18758
-6.16682
-6.15374
-6.13693
-6.12629
-6.11259
-6.10393
-6.09278
-6.08575
-6.07675
-6.07113
-6.06401
-6.05969
-6.05441
-6.0514
-6.04801
-6.04576
-6.04263
-6.04068
-6.03826
-6.03695
-6.03564
-6.03527
-6.03554
-6.03652
-6.03913
-6.04219
-6.04849
-6.05505
-6.06788
-6.08123
-6.10769
-6.13774
-6.20204
-6.29207
-6.50521
-6.80361
-7.05809
-7.50324
-7.91003
-8.59918
-8.87118
-8.94874
-8.9684
-8.97293
-13.8347
-11.8593
-10.8713
-9.80685
-9.31676
-8.79016
-8.53966
-8.25392
-8.11827
-7.96374
-7.87114
-7.72608
-7.63914
-7.50606
-7.42705
-7.3072
-7.23625
-7.12889
-7.06547
-6.96975
-6.91338
-6.82858
-6.7788
-6.70416
-6.66037
-6.59466
-6.5555
-6.49533
-6.455
-6.38359
-6.31804
-6.28699
-6.2502
-6.23037
-6.20313
-6.1879
-6.16624
-6.15401
-6.13646
-6.12652
-6.11221
-6.10411
-6.09246
-6.08589
-6.07649
-6.07123
-6.0638
-6.05976
-6.05423
-6.05143
-6.04793
-6.04582
-6.04254
-6.04072
-6.03817
-6.03694
-6.03557
-6.03521
-6.03549
-6.0364
-6.03909
-6.04193
-6.04846
-6.05456
-6.06782
-6.08021
-6.10735
-6.13505
-6.19984
-6.28243
-6.49851
-6.80661
-7.04348
-7.50557
-7.88888
-8.63124
-8.88683
-8.95351
-8.96967
-8.97332
-14.0525
-11.7651
-10.8718
-9.74509
-9.31593
-8.76047
-8.54106
-8.2379
-8.11914
-7.95737
-7.87614
-7.72032
-7.64353
-7.50067
-7.43091
-7.30232
-7.23968
-7.1245
-7.06851
-6.96581
-6.91605
-6.82507
-6.78113
-6.70108
-6.66242
-6.59202
-6.55752
-6.49346
-6.45819
-6.38293
-6.31433
-6.28732
-6.24842
-6.23101
-6.2019
-6.18848
-6.16528
-6.1545
-6.13568
-6.12691
-6.11158
-6.10443
-6.09195
-6.08615
-6.07606
-6.07143
-6.06345
-6.05988
-6.05395
-6.05148
-6.04779
-6.04593
-6.0424
-6.04078
-6.03804
-6.03694
-6.03545
-6.03513
-6.0354
-6.0362
-6.03904
-6.04153
-6.04844
-6.05379
-6.06779
-6.0786
-6.10698
-6.13088
-6.19692
-6.26744
-6.48813
-6.81246
-7.01986
-7.51105
-7.85337
-8.68277
-8.91003
-8.96031
-8.97143
-8.97385
-14.3619
-11.6152
-10.8816
-9.65544
-9.32016
-8.71734
-8.54582
-8.2145
-8.12174
-7.94778
-7.88412
-7.71139
-7.65055
-7.49236
-7.43712
-7.29481
-7.24522
-7.11774
-7.07342
-6.95976
-6.92036
-6.81969
-6.7849
-6.69633
-6.66575
-6.58795
-6.56073
-6.49045
-6.46298
-6.38201
-6.30895
-6.28813
-6.24579
-6.23211
-6.20005
-6.18944
-6.16383
-6.1553
-6.13451
-6.12757
-6.11062
-6.10497
-6.09116
-6.08658
-6.07542
-6.07175
-6.06293
-6.0601
-6.05353
-6.05158
-6.04757
-6.04611
-6.04217
-6.04089
-6.03783
-6.03696
-6.03529
-6.03503
-6.0353
-6.03592
-6.03901
-6.04096
-6.04849
-6.05267
-6.06788
-6.07628
-6.1068
-6.12502
-6.19382
-6.24644
-6.4736
-6.82299
-6.98489
-7.52249
-7.79837
-8.75839
-8.9403
-8.96867
-8.97355
-8.97447
-14.7811
-11.3847
-10.9111
-9.53015
-9.33508
-8.65696
-8.55696
-8.18155
-8.12757
-7.93378
-7.89647
-7.69799
-7.66147
-7.47993
-7.44681
-7.28358
-7.25386
-7.10766
-7.0811
-6.95074
-6.92713
-6.81166
-6.79083
-6.68927
-6.67097
-6.58185
-6.56566
-6.48572
-6.46992
-6.38077
-6.30148
-6.28979
-6.242
-6.23396
-6.19733
-6.19101
-6.16169
-6.15659
-6.13278
-6.12863
-6.10921
-6.10583
-6.09001
-6.08727
-6.07448
-6.07228
-6.06217
-6.06047
-6.05292
-6.05177
-6.04725
-6.04639
-6.04184
-6.04106
-6.03754
-6.03701
-6.03507
-6.03491
-6.03518
-6.03554
-6.03902
-6.04016
-6.04867
-6.05111
-6.06825
-6.07308
-6.1071
-6.11713
-6.19137
-6.21847
-6.45419
-6.84102
-6.93489
-7.54439
-7.71601
-8.86514
-8.97672
-8.97798
-8.97582
-8.97513
-15.3362
-11.0373
-10.977
-9.35743
-9.36933
-8.57345
-8.57913
-8.13575
-8.13901
-7.91352
-7.91526
-7.67811
-7.67819
-7.46156
-7.46171
-7.26701
-7.26717
-7.09279
-7.09293
-6.93744
-6.93757
-6.79986
-6.79998
-6.67887
-6.67901
-6.57283
-6.57314
-6.47843
-6.47979
-6.37913
-6.29131
-6.2929
-6.23663
-6.23694
-6.1934
-6.1935
-6.15858
-6.15863
-6.13026
-6.1303
-6.10716
-6.10719
-6.08833
-6.08836
-6.07312
-6.07313
-6.06107
-6.06107
-6.05206
-6.05209
-6.04679
-6.04681
-6.04136
-6.04135
-6.03713
-6.03712
-6.03479
-6.03477
-6.03506
-6.03503
-6.03913
-6.03907
-6.0491
-6.04896
-6.06912
-6.06872
-6.10837
-6.10668
-6.19081
-6.18214
-6.42873
-6.87077
-6.86426
-7.58382
-7.59455
-9.01339
-9.01756
-8.98742
-8.97804
-8.97577
-16.0632
-10.5203
-11.1052
-9.11945
-9.4359
-8.45787
-8.61925
-8.07208
-8.15959
-7.88417
-7.9436
-7.64875
-7.70357
-7.43452
-7.4844
-7.24265
-7.28746
-7.07094
-7.11099
-6.91792
-6.95353
-6.78253
-6.81398
-6.66362
-6.69131
-6.55955
-6.58442
-6.4673
-6.49373
-6.37698
-6.27757
-6.29833
-6.22899
-6.24168
-6.18773
-6.19739
-6.15407
-6.16181
-6.12661
-6.13289
-6.10418
-6.1093
-6.0859
-6.09006
-6.07114
-6.07446
-6.05948
-6.06204
-6.05083
-6.05262
-6.04611
-6.04745
-6.04066
-6.04181
-6.03655
-6.03732
-6.0344
-6.03462
-6.03495
-6.03436
-6.0394
-6.03757
-6.04993
-6.046
-6.0708
-6.06275
-6.11129
-6.0928
-6.19396
-6.13561
-6.39546
-6.91847
-6.7646
-7.65159
-7.41676
-9.21822
-9.05976
-8.99604
-8.97997
-8.97632
-17.012
-9.75826
-11.3362
-8.78937
-9.55424
-8.29673
-8.68772
-7.98303
-8.19469
-7.84142
-7.98612
-7.60539
-7.74191
-7.39473
-7.51876
-7.20682
-7.3182
-7.03882
-7.13837
-6.88926
-6.97775
-6.75711
-6.83525
-6.64126
-6.70999
-6.54
-6.60138
-6.45042
-6.51341
-6.37414
-6.25901
-6.30736
-6.21807
-6.24908
-6.17951
-6.20339
-6.14752
-6.16671
-6.12129
-6.13689
-6.09984
-6.11255
-6.08237
-6.09268
-6.06828
-6.07653
-6.0572
-6.06355
-6.04909
-6.05348
-6.04512
-6.04842
-6.03965
-6.04252
-6.03573
-6.03767
-6.0339
-6.03446
-6.03488
-6.03347
-6.03994
-6.0355
-6.05141
-6.04189
-6.0738
-6.05452
-6.11689
-6.07413
-6.20349
-6.07635
-6.35166
-6.99323
-6.62329
-7.76424
-7.15752
-9.50146
-9.09818
-9.00274
-8.9814
-8.97672
-18.2509
-8.64293
-11.7323
-8.32683
-9.75347
-8.06963
-8.80001
-7.85731
-8.25237
-7.77875
-8.04965
-7.54134
-7.79959
-7.33607
-7.57054
-7.15406
-7.36457
-6.99154
-7.17969
-6.84708
-7.01432
-6.71973
-6.8674
-6.60837
-6.73821
-6.51119
-6.62683
-6.42497
-6.54117
-6.37032
-6.23391
-6.32188
-6.20234
-6.2605
-6.16755
-6.21258
-6.13796
-6.17418
-6.11353
-6.14299
-6.09351
-6.11751
-6.07721
-6.09669
-6.0641
-6.07969
-6.05388
-6.06589
-6.04659
-6.05485
-6.04366
-6.04987
-6.03816
-6.04362
-6.03456
-6.03824
-6.03322
-6.03431
-6.03488
-6.03225
-6.04093
-6.03262
-6.05391
-6.03612
-6.07884
-6.04302
-6.1267
-6.04857
-6.22328
-6.001
-6.29321
-7.10847
-6.42156
-7.94681
-6.78027
-9.8946
-9.12431
-9.00651
-8.98219
-8.97695
)
;

boundaryField
{
    F1_1
    {
        type            calculated;
        value           nonuniform List<scalar> 
80
(
18.9532
7.9744
11.9807
8.04196
9.8771
7.90576
8.86904
7.71581
8.28991
7.5524
7.90437
7.49049
7.75961
7.28789
7.56
7.11126
7.36656
6.95421
7.18719
6.81464
7.02399
6.69162
6.87759
6.58408
6.74817
6.49022
6.63658
6.40663
6.55289
6.3654
6.218
6.32838
6.19172
6.26552
6.15937
6.21661
6.1314
6.17747
6.10821
6.14568
6.08917
6.11971
6.07368
6.09846
6.06124
6.08108
6.0516
6.06689
6.04484
6.05535
6.04253
6.05042
6.03707
6.04401
6.0337
6.03837
6.03268
6.03405
6.03479
6.0314
6.04146
6.03081
6.05539
6.03264
6.08192
6.03622
6.13282
6.03369
6.23627
5.95875
6.25966
7.17817
6.30274
8.05933
6.55669
10.1233
9.13296
9.00751
8.98239
8.97701
)
;
    }
    F1_2
    {
        type            calculated;
        value           nonuniform List<scalar> 
80
(
-19.3743
-7.89758
-12.4832
-7.0355
-9.79542
-6.1443
-8.06599
-5.33098
-6.7604
-4.70008
-5.70064
-4.44847
-5.2584
-3.83014
-4.64763
-3.30741
-4.06081
-2.85924
-3.53002
-2.47272
-3.06113
-2.1386
-2.65161
-1.84904
-2.29669
-1.59596
-1.99442
-1.3682
-1.7707
-1.25553
-0.832857
-1.15021
-0.746134
-0.967476
-0.641391
-0.820063
-0.547997
-0.697507
-0.467599
-0.594079
-0.398976
-0.506256
-0.340719
-0.431488
-0.291751
-0.36773
-0.251664
-0.313227