/*--------------------------------*- C++ -*----------------------------------*\
| =========                 |                                                 |
| \\      /  F ield         | OpenFOAM: The Open Source CFD Toolbox           |
|  \\    /   O peration     | Version:  5.x                                   |
|   \\  /    A nd           | Web:      www.OpenFOAM.org                      |
|    \\/     M anipulation  |                                                 |
\*---------------------------------------------------------------------------*/
FoamFile
{
    version     2.0;
    format      ascii;
    class       volScalarField;
    location    "5";
    object      gradTx;
}
// * * * * * * * * * * * * * * * * * * * * * * * * * * * * * * * * * * * * * //

dimensions      [0 -1 0 1 0 0 0];

internalField   nonuniform List<scalar> 
3200
(
45.2086
3.7122
1.64885
1.54029
0.814987
0.771394
0.466713
0.447254
0.293792
0.282686
0.170805
0.166662
0.180664
0.180814
0.173131
0.17229
0.159523
0.158407
0.144298
0.143116
0.128843
0.127675
0.113882
0.112788
0.100256
0.0993695
0.0902019
0.0901968
0.0951445
0.164882
0.0825693
0.0553137
0.0534845
0.0417314
0.0409039
0.0333032
0.0327442
0.0270251
0.0265953
0.0220353
0.0216886
0.0179483
0.0176606
0.0145113
0.014264
0.0114938
0.0112665
0.00859985
0.00836059
0.00522869
0.00509774
0.00510245
0.00505509
0.00399097
0.00387788
0.00222599
0.00206036
-0.000248962
-0.00048664
-0.00384793
-0.00421059
-0.00948051
-0.0100859
-0.0191604
-0.0203083
-0.0381631
-0.0408347
-0.0840083
-0.0929272
-0.238686
-0.617176
-0.436137
-0.681513
-0.712873
-1.26806
-1.24245
-0.0557888
-0.0075285
-0.00152527
-52.9484
47.8934
3.1055
1.57741
1.3546
0.774098
0.681031
0.436309
0.394702
0.271757
0.248163
0.160305
0.15146
0.160958
0.161166
0.155194
0.153423
0.143351
0.14099
0.129824
0.12732
0.116017
0.11354
0.10262
0.100303
0.0904041
0.088542
0.0814763
0.0816295
0.0884303
0.137475
0.0766645
0.0516686
0.0475951
0.0380589
0.0362843
0.0302249
0.0290359
0.0244937
0.0235813
0.0199632
0.0192274
0.0162604
0.0156498
0.0131514
0.0126266
0.0104278
0.0099451
0.00782699
0.00732199
0.00487778
0.00459956
0.0045584
0.00445492
0.00361495
0.00337529
0.00206531
0.00171364
-0.000121394
-0.000626615
-0.00330125
-0.00407301
-0.00827397
-0.00956472
-0.016824
-0.0192823
-0.0336805
-0.0394677
-0.0750344
-0.0949474
-0.227038
-0.517616
-0.414774
-0.601959
-0.666526
-1.0849
-1.03127
-0.12183
-0.0208952
-0.00438594
-54.7442
50.5614
2.57666
1.45377
1.18322
0.713712
0.596735
0.397781
0.345403
0.245748
0.216211
0.146644
0.135524
0.141624
0.141766
0.13709
0.134887
0.126872
0.123925
0.115003
0.111875
0.102838
0.099743
0.0910138
0.0881209
0.0802309
0.0779227
0.072462
0.0727962
0.0800264
0.114462
0.0693271
0.0471866
0.0419242
0.0340759
0.0318361
0.0269519
0.0254618
0.0218171
0.0206755
0.0177757
0.0168555
0.0144782
0.0137146
0.0117126
0.011056
0.0092931
0.00868913
0.00698959
0.00636094
0.00444022
0.00409189
0.00401683
0.00388418
0.00321491
0.0029155
0.00186629
0.00142624
-4.70285e-05
-0.000679822
-0.0028307
-0.00379827
-0.00718386
-0.00880483
-0.0146795
-0.0177787
-0.0295424
-0.0369095
-0.0666867
-0.0924805
-0.20905
-0.433794
-0.381809
-0.52731
-0.606026
-0.920619
-0.854315
-0.155532
-0.0308849
-0.0067305
-56.54
53.2087
2.1134
1.29602
1.0198
0.639224
0.515717
0.353389
0.297996
0.216934
0.18586
0.130646
0.1189
0.122528
0.122559
0.118887
0.116585
0.11019
0.107099
0.0999515
0.0966676
0.0894209
0.0861713
0.0791741
0.0761389
0.0698344
0.0674295
0.0632158
0.0636872
0.0705342
0.0946324
0.0610698
0.0420294
0.0363568
0.0298686
0.0274936
0.023543
0.0219738
0.0190404
0.01784
0.0155091
0.0145418
0.0126315
0.0118289
0.0102199
0.00952971
0.00811205
0.00747697
0.00610934
0.00545156
0.00393976
0.00357327
0.00347756
0.0033349
0.00280005
0.00248569
0.00164289
0.00118016
-6.2908e-06
-0.000672315
-0.00240748
-0.00342681
-0.00616433
-0.0078748
-0.0126461
-0.0159285
-0.0255801
-0.033455
-0.0584983
-0.0863825
-0.186735
-0.361041
-0.340944
-0.455332
-0.536092
-0.771574
-0.702663
-0.166268
-0.0368549
-0.00832981
-58.3355
55.8346
1.70426
1.11664
0.860548
0.554454
0.436253
0.30472
0.251615
0.186121
0.156475
0.112909
0.10166
0.103575
0.1035
0.100629
0.0984456
0.0933752
0.0904353
0.084745
0.0816182
0.075844
0.0727496
0.0671758
0.0642876
0.0592819
0.0570086
0.0537823
0.054323
0.0603519
0.0771089
0.0522317
0.0363375
0.0308219
0.0254967
0.0232142
0.0200389
0.0185404
0.0161944
0.0150497
0.0131878
0.0122658
0.0107404
0.00997538
0.00869049
0.00803248
0.00689968
0.00629409
0.00520067
0.00457633
0.00339347
0.00304381
0.00294014
0.0028013
0.00237637
0.00207701
0.00140428
0.000963014
1.36217e-05
-0.000622049
-0.0020129
-0.00298662
-0.00518589
-0.00682234
-0.0106722
-0.0138235
-0.0216888
-0.0293137
-0.0501962
-0.0773859
-0.161463
-0.296063
-0.294701
-0.3847
-0.459968
-0.634704
-0.569711
-0.160725
-0.0387894
-0.0090609
-60.1307
58.4404
1.3388
0.92399
0.703299
0.462169
0.357322
0.252914
0.20573
0.153874
0.127646
0.0938791
0.0838945
0.0847029
0.0845531
0.0823432
0.0804221
0.0764756
0.0738817
0.069436
0.0666747
0.0621599
0.059427
0.0550702
0.052521
0.0486202
0.0466258
0.044198
0.0447394
0.0497406
0.0612508
0.0430342
0.0302305
0.0252795
0.0210031
0.0189705
0.0164677
0.0151409
0.0133003
0.012288
0.010829
0.010014
0.00881894
0.00814268
0.00713596
0.00655424
0.00566621
0.00513071
0.00427324
0.00372343
0.00281384
0.0025045
0.00240413
0.00227913
0.00194766
0.00168325
0.0011564
0.000766187
2.09782e-05
-0.000541582
-0.00163502
-0.00249742
-0.00422996
-0.00568134
-0.00872633
-0.01153
-0.0178072
-0.0246421
-0.041642
-0.0661138
-0.134169
-0.236525
-0.244803
-0.314657
-0.379866
-0.507423
-0.450519
-0.1437
-0.0370356
-0.00889889
-61.9257
61.0285
1.00757
0.723578
0.546868
0.364431
0.278373
0.19882
0.160031
0.120603
0.0991192
0.0738981
0.0656969
0.0658687
0.0656883
0.0640461
0.0624796
0.0595219
0.0574022
0.0540596
0.0518014
0.0484046
0.0461693
0.0428922
0.0408084
0.0378821
0.0362604
0.034495
0.0349773
0.0388688
0.0465817
0.0336203
0.0238094
0.01971
0.0164197
0.0147456
0.0128495
0.011762
0.0103731
0.00954428
0.00844446
0.00777731
0.0068767
0.00632318
0.00556442
0.00508823
0.00441863
0.00398021
0.00333348
0.00288492
0.0022102
0.00195682
0.00186909
0.00176521
0.00151625
0.00129998
0.000903045
0.000583554
2.10229e-05
-0.000439885
-0.00126638
-0.00197342
-0.00328529
-0.00447661
-0.00679007
-0.00909749
-0.0139033
-0.019564
-0.0327888
-0.0530984
-0.105504
-0.180749
-0.192442
-0.2448
-0.297271
-0.387521
-0.341323
-0.118669
-0.0321408
-0.0079015
-63.7203
63.6023
0.701996
0.518874
0.390666
0.262839
0.199164
0.143094
0.114358
0.0866127
0.0707417
0.0532363
0.0471643
0.0470486
0.046882
0.045746
0.0445927
0.0425347
0.0409716
0.0386398
0.0369736
0.0346028
0.0329534
0.0306666
0.0291296
0.0270919
0.0259007
0.0247021
0.0250789
0.0278442
0.0327396
0.0240802
0.0171598
0.0141082
0.0117717
0.0105296
0.00919891
0.00839504
0.00742342
0.00681135
0.00604257
0.00554997
0.00492056
0.00451188
0.00398157
0.00362995
0.00316179
0.00283802
0.0023858
0.00205544
0.00158969
0.00140251
0.00133469
0.00125709
0.00108353
0.000923938
0.000646589
0.000410638
1.69982e-05
-0.000323568
-0.000902519
-0.00142523
-0.00234544
-0.00322699
-0.00485407
-0.00656508
-0.00996521
-0.0141833
-0.0236523
-0.0387991
-0.0759249
-0.127516
-0.138454
-0.174938
-0.213164
-0.273077
-0.239186
-0.0881927
-0.0247543
-0.00619161
-65.5147
66.1656
0.414225
0.311973
0.234448
0.158681
0.11965
0.0862756
0.0686458
0.052148
0.0424297
0.0321171
0.0283935
0.0282305
0.0281145
0.0274466
0.0267421
0.0255276
0.0245717
0.0231934
0.022174
0.0207721
0.0197629
0.0184109
0.0174708
0.0162678
0.0155413
0.0148461
0.0150849
0.0167344
0.0194397
0.0144707
0.0103554
0.00847779
0.00707994
0.00631705
0.00552726
0.00503484
0.00445939
0.00408469
0.00362962
0.00332811
0.00295559
0.00270544
0.00239156
0.00217633
0.00189917
0.00170097
0.00143323
0.00123137
0.000958038
0.000843426
0.000800682
0.000752801
0.000650246
0.000552597
0.000388473
0.000244026
1.08473e-05
-0.000197719
-0.000540912
-0.000861142
-0.00140714
-0.00194754
-0.0029147
-0.00396511
-0.00599439
-0.0085925
-0.0142886
-0.0236207
-0.0457673
-0.0759092
-0.0834449
-0.105007
-0.128189
-0.162386
-0.141733
-0.0542143
-0.0155729
-0.00394034
-67.3089
68.7226
0.136924
0.104083
0.0781602
0.0530532
0.0399109
0.0288271
0.0228881
0.0174121
0.0141414
0.0107344
0.0094803
0.00941055
0.00936912
0.00914865
0.00891183
0.00851028
0.00818878
0.00773264
0.00738972
0.00692569
0.00658621
0.00613871
0.00582251
0.00542465
0.00518065
0.00495284
0.00503452
0.00558236
0.00644678
0.00482695
0.00346157
0.00282817
0.00236276
0.00210562
0.0018437
0.00167795
0.00148732
0.00136123
0.00121053
0.00110908
0.000985719
0.000901551
0.000797608
0.000725187
0.000633393
0.000566698
0.00047802
0.000410161
0.000320034
0.000281462
0.000266873
0.000250697
0.000216763
0.000183913
0.000129568
8.09602e-05
3.71006e-06
-6.64867e-05
-0.000180225
-0.000288024
-0.000469058
-0.000651035
-0.000972007
-0.00132598
-0.00200083
-0.00287783
-0.00477951
-0.00792969
-0.0152898
-0.0252064
-0.0278745
-0.0350106
-0.0427744
-0.0538879
-0.0469544
-0.0182808
-0.0053111
-0.00135163
-69.103
68.7158
0.150869
0.128421
0.107468
0.0852142
0.0726996
0.0607393
0.0533357
0.0448774
0.0387565
0.0309982
0.0281855
0.0282964
0.0281931
0.0273575
0.0264582
0.024941
0.0237533
0.0221083
0.0209142
0.0193572
0.0182614
0.0168742
0.0159283
0.0147831
0.014106
0.013515
0.0138106
0.0154833
0.0180619
0.0136933
0.0100429
0.00836654
0.0071572
0.00649184
0.00581416
0.00538168
0.0048782
0.00454047
0.00413001
0.00384923
0.00350154
0.0032601
0.00295594
0.00273928
0.00245762
0.00224573
0.00195329
0.00171865
0.0013979
0.00128561
0.00130295
0.00130448
0.00127165
0.00123312
0.0011655
0.00111153
0.00103547
0.00097903
0.000903412
0.000846806
0.000768969
0.000703626
0.000600633
0.000486519
0.000260247
-8.37694e-05
-0.000902587
-0.00244434
-0.00623808
-0.0118155
-0.0150981
-0.0220843
-0.02952
-0.0404646
-0.0360723
-0.0140972
-0.00410036
-0.0010439
-69.8074
66.1448
0.455974
0.385203
0.322456
0.255253
0.218076
0.182036
0.160049
0.134539
0.116335
0.0927969
0.0844397
0.0848978
0.0846086
0.082075
0.0793994
0.0748098
0.0712784
0.0663068
0.062757
0.0580532
0.0547957
0.0506051
0.047793
0.0443307
0.0423146
0.0405095
0.0413768
0.0464136
0.0544636
0.0410512
0.0300498
0.025081
0.0214498
0.019476
0.0174327
0.0161479
0.014628
0.0136243
0.0123849
0.0115504
0.0105004
0.00978283
0.00886433
0.00822045
0.00737007
0.00674043
0.00585757
0.00515941
0.00418537
0.00385163
0.00390947
0.00391483
0.0038152
0.00370053
0.00349596
0.00333549
0.00310564
0.00293786
0.00270948
0.00254127
0.00230641
0.00211239
0.00180235
0.00146405
0.000785454
-0.000232312
-0.00267884
-0.00724294
-0.0186429
-0.0355383
-0.045146
-0.066235
-0.0884197
-0.122007
-0.10892
-0.0418126
-0.0120235
-0.00304329
-69.4222
63.5665
0.771271
0.641665
0.537623
0.424091
0.363408
0.30277
0.266904
0.223908
0.194127
0.153988
0.140341
0.141529
0.141114
0.136798
0.132417
0.124636
0.118861
0.110449
0.104646
0.0966914
0.0913675
0.0842808
0.0796837
0.0738204
0.0705147
0.0673971
0.0687762
0.0772235
0.0917238
0.0683127
0.0498154
0.0417419
0.0356762
0.032463
0.0290209
0.0269235
0.0243571
0.0227176
0.0206235
0.0192602
0.017486
0.0163136
0.0147618
0.0137099
0.0122737
0.0112453
0.00975447
0.00861122
0.00694723
0.00640201
0.00651811
0.00652939
0.00635935
0.00617156
0.00582467
0.00556223
0.00517334
0.00489913
0.00451315
0.00423842
0.00384223
0.0035258
0.0030052
0.0024552
0.00132424
-0.000323693
-0.00437037
-0.0117681
-0.0308279
-0.0595525
-0.0747347
-0.110342
-0.146863
-0.205417
-0.183929
-0.0680352
-0.0191142
-0.00478225
-69.0368
60.9761
1.10383
0.897103
0.753169
0.590815
0.508738
0.422513
0.374043
0.312748
0.272333
0.21412
0.195649
0.198225
0.197775
0.191524
0.185571
0.174383
0.166549
0.154486
0.146621
0.135224
0.12801
0.117857
0.111625
0.103208
0.0987075
0.094105
0.0958929
0.107791
0.130501
0.0953777
0.0691641
0.0583226
0.0497885
0.0454592
0.0405554
0.0377179
0.0340492
0.0318292
0.028833
0.0269865
0.0244475
0.0228596
0.0206392
0.0192148
0.0171611
0.0157686
0.0136375
0.0120839
0.00966437
0.00892596
0.00913096
0.00915122
0.00890424
0.00864896
0.00815002
0.00779405
0.00723647
0.00686489
0.00631239
0.00594044
0.00537488
0.0049474
0.00420925
0.0034696
0.00188372
-0.000319103
-0.00592784
-0.0158267
-0.0426262
-0.0841084
-0.103506
-0.154412
-0.204425
-0.292028
-0.262714
-0.0915789
-0.0248214
-0.0061033
-68.6513
58.3692
1.46114
1.15003
0.969452
0.754328
0.654233
0.540746
0.481696
0.400754
0.351252
0.272662
0.250116
0.255041
0.254669
0.246238
0.238934
0.223995
0.214407
0.198355
0.188738
0.17359
0.16477
0.151277
0.143654
0.132439
0.126904
0.120557
0.122605
0.137927
0.171591
0.122087
0.0878981
0.074811
0.0637328
0.0584784
0.0520073
0.0485457
0.0436835
0.0409718
0.0369966
0.0347405
0.031371
0.029431
0.0264849
0.0247448
0.022022
0.0203216
0.0174975
0.0155912
0.0123143
0.0114122
0.0117512
0.0117838
0.0114495
0.0111362
0.0104697
0.010034
0.00929219
0.00883791
0.00810444
0.00765023
0.00690203
0.00638146
0.00541339
0.00451789
0.00246791
-0.000178246
-0.00731367
-0.0192093
-0.0538371
-0.109548
-0.131018
-0.198518
-0.260484
-0.383316
-0.347172
-0.110947
-0.028607
-0.00687423
-68.2657
55.7421
1.8512
1.39774
1.18712
0.913239
0.800265
0.656802
0.590224
0.487501
0.431334
0.328963
0.303483
0.312069
0.311885
0.300907
0.292603
0.273393
0.262523
0.241968
0.231075
0.211703
0.201717
0.184461
0.175827
0.161442
0.155134
0.146674
0.148787
0.167329
0.216008
0.148183
0.105788
0.0912193
0.0774441
0.0715464
0.0633389
0.0594296
0.0532318
0.0501651
0.0450915
0.0425391
0.0382375
0.0360426
0.0322824
0.0303143
0.0268421
0.0249196
0.0213208
0.0191534
0.0148693
0.0138488
0.0143838
0.014431
0.013994
0.0136375
0.0127802
0.0122862
0.0113365
0.0108221
0.00988536
0.00937182
0.00842011
0.00783345
0.00661466
0.00561239
0.00307599
0.00014222
-0.00850905
-0.0216825
-0.0642047
-0.136356
-0.156687
-0.242845
-0.314108
-0.480962
-0.439632
-0.124161
-0.0299683
-0.00699998
-67.8797
53.0917
2.28261
1.63573
1.40731
1.06571
0.947515
0.769783
0.700199
0.572387
0.513264
0.382187
0.355488
0.369449
0.369532
0.355469
0.346708
0.322458
0.311026
0.285193
0.273753
0.24944
0.238954
0.217301
0.20823
0.190123
0.183449
0.172368
0.174312
0.195525
0.265085
0.173262
0.122565
0.107596
0.0908405
0.084707
0.0744987
0.0704051
0.0626549
0.0594388
0.0530856
0.0504078
0.0450197
0.042717
0.0380083
0.035944
0.0316004
0.0295847
0.0250869
0.0228004
0.0172937
0.0162233
0.0170359
0.0170977
0.0165352
0.0161589
0.0150762
0.0145566
0.0133633
0.0128233
0.0116494
0.011111
0.00992364
0.00931076
0.00780731
0.00676829
0.0037
0.000691433
-0.00952348
-0.0229817
-0.073387
-0.165238
-0.179724
-0.287768
-0.363908
-0.586936
-0.543059
-0.128523
-0.0284806
-0.00643574
-67.4936
50.4166
2.76451
1.85698
1.63203
1.20925
1.09715
0.878437
0.812502
0.654525
0.598072
0.431237
0.405867
0.427383
0.427746
0.409819
0.401433
0.37101
0.360106
0.327844
0.316945
0.286625
0.276639
0.249638
0.240994
0.218347
0.211942
0.197541
0.199065
0.221788
0.320618
0.196697
0.137913
0.124044
0.103812
0.0980306
0.085414
0.081527
0.0718968
0.068838
0.0609328
0.058385
0.0516787
0.0494877
0.0436285
0.0416649
0.0362655
0.0343491
0.0287646
0.0265762
0.0195408
0.0185225
0.0197182
0.0197894
0.0190691
0.0187087
0.0173497
0.0168541
0.0153642
0.0148499
0.0133881
0.0128762
0.0114042
0.0108238
0.00898144
0.00800542
0.00432168
0.00152896
-0.0104081
-0.022803
-0.0809113
-0.197214
-0.199018
-0.333966
-0.407833
-0.703587
-0.661312
-0.120305
-0.023873
-0.00520053
-67.1073
47.7179
3.30641
2.05093
1.86467
1.34037
1.25104
0.98098
0.928487
0.732602
0.687295
0.474628
0.45437
0.486164
0.486691
0.463788
0.457039
0.418781
0.41004
0.36964
0.360914
0.322996
0.315004
0.281241
0.274319
0.245921
0.240754
0.222077
0.222972
0.245007
0.385062
0.217526
0.151465
0.140747
0.116206
0.111628
0.0959802
0.0928788
0.080876
0.0784313
0.0685659
0.0665287
0.0581571
0.0564053
0.049093
0.0475234
0.0407915
0.0392604
0.0323066
0.0305459
0.0215473
0.0207332
0.0224454
0.0225129
0.0215887
0.0212985
0.0195887
0.0191915
0.017326
0.0169145
0.0150888
0.0146798
0.0128492
0.0123873
0.010121
0.00935091
0.00490777
0.00273232
-0.0112744
-0.0207956
-0.0861077
-0.233769
-0.212987
-0.382608
-0.442881
-0.833758
-0.799514
-0.0943038
-0.016155
-0.00338918
-66.7207
45
3.91772
2.20211
2.11083
1.45408
1.41217
1.07482
1.05021
0.804656
0.783213
0.510323
0.500791
0.546195
0.546574
0.51711
0.513906
0.465372
0.461241
0.410169
0.406051
0.358171
0.354401
0.31177
0.308503
0.272566
0.270106
0.24583
0.246033
0.263506
0.461809
0.234296
0.162804
0.158003
0.127801
0.125668
0.106045
0.104587
0.089473
0.0883215
0.0758859
0.0749259
0.0643709
0.0635454
0.054328
0.0535885
0.0451095
0.0443887
0.0356409
0.0348053
0.0232265
0.0228429
0.0252386
0.0252761
0.024083
0.0239451
0.0217754
0.0215876
0.0192298
0.0190357
0.0167329
0.0165404
0.0142396
0.014023
0.0112007
0.0108434
0.00540322
0.004409
-0.01232
-0.0165565
-0.0880101
-0.277062
-0.219339
-0.435624
-0.464706
-0.980933
-0.964554
-0.0432204
-0.00582175
-0.0011787
-66.3341
45
3.91772
2.20211
2.11083
1.45408
1.41217
1.07482
1.05021
0.804657
0.783213
0.510323
0.500792
0.546196
0.546574
0.51711
0.513906
0.465373
0.461241
0.410169
0.406051
0.358171
0.354401
0.311771
0.308503
0.272566
0.270107
0.245831
0.246033
0.263507
0.461811
0.234297
0.162804
0.158003
0.127802
0.125668
0.106045
0.104587
0.0894733
0.0883218
0.0758862
0.0749262
0.0643711
0.0635456
0.0543282
0.0535887
0.0451097
0.0443889
0.035641
0.0348054
0.0232265
0.0228429
0.0252387
0.0252762
0.0240831
0.0239452
0.0217755
0.0215877
0.0192299
0.0190358
0.016733
0.0165405
0.0142397
0.0140231
0.0112008
0.0108435
0.00540325
0.00440901
-0.0123202
-0.0165568
-0.0880113
-0.277066
-0.219342
-0.435628
-0.464711
-0.98094
-0.964561
-0.0432207
-0.00582179
-0.00117869
-66.3341
47.7179
3.30641
2.05093
1.86467
1.34037
1.25104
0.980981
0.928487
0.732602
0.687296
0.474628
0.45437
0.486164
0.486691
0.463788
0.457039
0.418782
0.41004
0.36964
0.360914
0.322997
0.315005
0.281241
0.274319
0.245921
0.240754
0.222077
0.222972
0.245008
0.385063
0.217526
0.151466
0.140747
0.116206
0.111628
0.0959805
0.092879
0.0808763
0.0784315
0.0685661
0.066529
0.0581573
0.0564055
0.0490932
0.0475236
0.0407917
0.0392606
0.0323067
0.030546
0.0215474
0.0207332
0.0224455
0.022513
0.0215888
0.0212986
0.0195889
0.0191916
0.0173261
0.0169146
0.0150889
0.0146799
0.0128493
0.0123874
0.0101211
0.00935099
0.0049078
0.00273232
-0.0112746
-0.0207959
-0.0861089
-0.233772
-0.212989
-0.382612
-0.442886
-0.833764
-0.799519
-0.0943044
-0.0161551
-0.00338919
-66.7207
50.4166
2.7645
1.85698
1.63203
1.20925
1.09715
0.878437
0.812502
0.654525
0.598072
0.431237
0.405867
0.427384
0.427746
0.409819
0.401433
0.37101
0.360106
0.327844
0.316945
0.286625
0.276639
0.249639
0.240994
0.218347
0.211942
0.197541
0.199066
0.221789
0.320619
0.196697
0.137914
0.124044
0.103812
0.0980309
0.0854142
0.0815272
0.071897
0.0688383
0.060933
0.0583852
0.0516789
0.0494879
0.0436287
0.0416651
0.0362657
0.0343493
0.0287647
0.0265763
0.0195409
0.0185225
0.0197182
0.0197895
0.0190692
0.0187088
0.0173498
0.0168542
0.0153643
0.01485
0.0133882
0.0128763
0.0114043
0.0108238
0.00898152
0.00800549
0.0043217
0.00152894
-0.0104083
-0.0228033
-0.0809124
-0.197216
-0.199021
-0.33397
-0.407837
-0.703592
-0.661316
-0.120306
-0.0238732
-0.00520055
-67.1072
53.0917
2.2826
1.63573
1.40731
1.06572
0.947515
0.769783
0.700199
0.572387
0.513264
0.382188
0.355488
0.369449
0.369532
0.355469
0.346708
0.322458
0.311026
0.285194
0.273753
0.249441
0.238955
0.217302
0.20823
0.190123
0.18345
0.172368
0.174312
0.195526
0.265086
0.173263
0.122566
0.107596
0.0908408
0.0847072
0.0744989
0.0704053
0.0626551
0.059439
0.0530858
0.050408
0.0450199
0.0427172
0.0380085
0.0359441
0.0316005
0.0295848
0.025087
0.0228005
0.0172938
0.0162233
0.017036
0.0170978
0.0165353
0.016159
0.0150763
0.0145567
0.0133634
0.0128234
0.0116495
0.0111111
0.00992372
0.00931084
0.00780738
0.00676835
0.00370002
0.000691413
-0.00952365
-0.0229821
-0.073388
-0.16524
-0.179726
-0.287771
-0.363912
-0.586941
-0.543063
-0.128523
-0.0284808
-0.00643578
-67.4936
55.7421
1.8512
1.39773
1.18712
0.913239
0.800265
0.656802
0.590225
0.487502
0.431334
0.328963
0.303483
0.31207
0.311885
0.300907
0.292603
0.273393
0.262523
0.241968
0.231076
0.211703
0.201717
0.184461
0.175827
0.161443
0.155134
0.146674
0.148787
0.167329
0.216008
0.148183
0.105788
0.0912195
0.0774444
0.0715467
0.0633391
0.0594298
0.0532319
0.0501653
0.0450916
0.0425393
0.0382376
0.0360428
0.0322825
0.0303144
0.0268423
0.0249197
0.0213209
0.0191535
0.0148693
0.0138489
0.0143839
0.0144311
0.013994
0.0136376
0.0127802
0.0122862
0.0113365
0.0108222
0.00988543
0.00937189
0.00842018
0.00783351
0.00661472
0.00561243
0.003076
0.000142194
-0.0085092
-0.0216829
-0.0642056
-0.136358
-0.156689
-0.242847
-0.314111
-0.480966
-0.439636
-0.124161
-0.0299685
-0.00700002
-67.8797
58.3692
1.46114
1.15003
0.969452
0.754328
0.654233
0.540747
0.481696
0.400754
0.351252
0.272662
0.250116
0.255041
0.254669
0.246238
0.238934
0.223995
0.214407
0.198356
0.188738
0.17359
0.16477
0.151277
0.143654
0.132439
0.126905
0.120558
0.122606
0.137927
0.171591
0.122087
0.0878984
0.0748113
0.063733
0.0584786
0.0520074
0.0485459
0.0436836
0.040972
0.0369967
0.0347406
0.0313711
0.0294311
0.026485
0.0247449
0.0220221
0.0203217
0.0174975
0.0155913
0.0123143
0.0114122
0.0117513
0.0117838
0.0114496
0.0111362
0.0104697
0.010034
0.00929225
0.00883797
0.0081045
0.00765029
0.00690209
0.00638151
0.00541344
0.00451792
0.00246792
-0.000178275
-0.0073138
-0.0192096
-0.0538379
-0.109549
-0.131019
-0.19852
-0.260487
-0.383319
-0.347174
-0.110948
-0.0286072
-0.00687428
-68.2656
60.9761
1.10383
0.897103
0.753169
0.590815
0.508738
0.422513
0.374043
0.312749
0.272334
0.21412
0.19565
0.198225
0.197775
0.191524
0.185571
0.174383
0.166549
0.154486
0.146621
0.135224
0.12801
0.117857
0.111625
0.103208
0.0987076
0.0941051
0.0958931
0.107792
0.130501
0.095378
0.0691644
0.0583228
0.0497887
0.0454593
0.0405555
0.0377181
0.0340493
0.0318293
0.0288331
0.0269865
0.0244476
0.0228597
0.0206393
0.0192148
0.0171611
0.0157687
0.0136376
0.0120839
0.00966441
0.00892599
0.00913099
0.00915125
0.00890428
0.00864901
0.00815007
0.00779409
0.00723652
0.00686493
0.00631244
0.00594048
0.00537492
0.00494744
0.00420929
0.00346963
0.00188373
-0.00031913
-0.00592795
-0.015827
-0.0426268
-0.0841096
-0.103508
-0.154414
-0.204427
-0.29203
-0.262716
-0.0915795
-0.0248216
-0.00610334
-68.6513
63.5665
0.771269
0.641664
0.537623
0.424091
0.363408
0.30277
0.266904
0.223908
0.194127
0.153988
0.140341
0.141529
0.141114
0.136798
0.132417
0.124636
0.118861
0.110449
0.104646
0.0966915
0.0913676
0.0842809
0.0796838
0.0738205
0.0705149
0.0673973
0.0687763
0.0772236
0.091724
0.0683129
0.0498156
0.041742
0.0356763
0.0324631
0.029021
0.0269236
0.0243572
0.0227177
0.0206236
0.0192602
0.017486
0.0163137
0.0147618
0.01371
0.0122738
0.0112453
0.00975451
0.00861125
0.00694726
0.00640203
0.00651813
0.00652941
0.00635938
0.00617159
0.0058247
0.00556226
0.00517337
0.00489916
0.00451318
0.00423845
0.00384226
0.00352583
0.00300523
0.00245521
0.00132424
-0.000323716
-0.00437046
-0.0117683
-0.0308283
-0.0595533
-0.0747356
-0.110343
-0.146865
-0.205418
-0.18393
-0.0680357
-0.0191143
-0.00478229
-69.0368
66.1448
0.455973
0.385203
0.322456
0.255253
0.218077
0.182036
0.160049
0.134539
0.116335
0.0927969
0.0844397
0.0848979
0.0846086
0.082075
0.0793994
0.0748098
0.0712784
0.0663069
0.062757
0.0580533
0.0547958
0.0506052
0.0477931
0.0443307
0.0423146
0.0405096
0.0413768
0.0464137
0.0544637
0.0410513
0.0300499
0.025081
0.0214499
0.0194761
0.0174327
0.0161479
0.014628
0.0136244
0.0123849
0.0115504
0.0105004
0.00978286
0.00886436
0.00822048
0.00737009
0.00674046
0.00585759
0.00515943
0.00418538
0.00385164
0.00390948
0.00391484
0.00381521
0.00370055
0.00349598
0.0033355
0.00310566
0.00293788
0.0027095
0.00254129
0.00230643
0.0021124
0.00180236
0.00146406
0.000785454
-0.000232328
-0.00267889
-0.00724306
-0.0186432
-0.0355388
-0.0451466
-0.0662357
-0.0884205
-0.122008
-0.108921
-0.0418129
-0.0120235
-0.00304332
-69.4222
68.7158
0.150868
0.128421
0.107468
0.0852142
0.0726996
0.0607393
0.0533357
0.0448774
0.0387566
0.0309983
0.0281856
0.0282964
0.0281931
0.0273575
0.0264582
0.024941
0.0237534
0.0221083
0.0209142
0.0193572
0.0182614
0.0168743
0.0159284
0.0147831
0.014106
0.013515
0.0138106
0.0154833
0.0180619
0.0136933
0.0100429
0.00836657
0.00715722
0.00649186
0.00581418
0.00538169
0.00487821
0.00454048
0.00413003
0.00384925
0.00350155
0.00326011
0.00295595
0.00273929
0.00245763
0.00224574
0.0019533
0.00171866
0.0013979
0.00128561
0.00130295
0.00130449
0.00127166
0.00123313
0.00116551
0.00111154
0.00103548
0.000979036
0.000903417
0.000846812
0.000768974
0.000703631
0.000600637
0.000486522
0.000260247
-8.37753e-05
-0.000902605
-0.00244438
-0.00623818
-0.0118157
-0.0150982
-0.0220846
-0.0295203
-0.0404649
-0.0360726
-0.0140973
-0.00410039
-0.00104391
-69.8074
68.7222
0.136756
0.103805
0.0777671
0.0524462
0.0390554
0.0275029
0.0210886
0.0150012
0.0125834
0.0119212
0.011571
0.0110179
0.0105799
0.00996633
0.00952066
0.00893876
0.0085211
0.00797834
0.00758771
0.00707855
0.00671343
0.00624064
0.00590972
0.00549691
0.00524431
0.00500825
0.0050871
0.00563627
0.00650621
0.00486991
0.00349097
0.00285135
0.00238147
0.00212194
0.00185769
0.0016905
0.00149828
0.00137117
0.00121927
0.00111703
0.00099273
0.000907933
0.00080323
0.000730288
0.000637847
0.00057069
0.000481407
0.000413089
0.00032236
0.000283561
0.000268957
0.000252754
0.000218729
0.00018579
0.000131305
8.25905e-05
5.19529e-06
-6.51052e-05
-0.000178976
-0.000286868
-0.000468019
-0.000650076
-0.000971147
-0.00132519
-0.00200011
-0.00287717
-0.0047789
-0.00792908
-0.0152892
-0.0252056
-0.027874
-0.0350102
-0.0427741
-0.0538876
-0.0469542
-0.0182807
-0.00531107
-0.00135159
-69.103
66.1644
0.413724
0.311139
0.233273
0.156861
0.117093
0.0823033
0.0632527
0.0448567
0.03768
0.035751
0.0347212
0.0330491
0.0317467
0.0298923
0.0285674
0.0268097
0.0255683
0.0239289
0.0227679
0.0212299
0.0201446
0.0187162
0.0177324
0.0164843
0.0157323
0.0150122
0.0152425
0.016896
0.0196189
0.0145994
0.0104433
0.00854725
0.00713601
0.00636602
0.00556918
0.0050725
0.00449225
0.00411449
0.00365582
0.00335196
0.00297661
0.0027246
0.00240842
0.00219164
0.00191253
0.00171295
0.00144338
0.00124016
0.000965003
0.000849715
0.000806934
0.000758974
0.000656143
0.000558232
0.000393684
0.000248918
1.53015e-05
-0.000193573
-0.000537168
-0.000857675
-0.00140402
-0.00194467
-0.00291212
-0.00396273
-0.00599226
-0.00859051
-0.0142868
-0.0236188
-0.0457653
-0.0759069
-0.0834431
-0.105005
-0.128188
-0.162385
-0.141732
-0.054214
-0.0155728
-0.00394023
-67.3089
63.6002
0.701163
0.517485
0.38872
0.259811
0.194931
0.136474
0.105391
0.0742634
0.0625667
0.0595449
0.0578971
0.0550655
0.0529356
0.0497971
0.0476315
0.04466
0.0426314
0.0398604
0.0379631
0.0353631
0.0335895
0.0311741
0.0295657
0.0274519
0.0262189
0.024978
0.025341
0.0281129
0.0330412
0.0242944
0.0173053
0.0142237
0.0118649
0.0106112
0.00926866
0.00845784
0.00747811
0.00686105
0.00608617
0.00558975
0.00495555
0.00454382
0.00400963
0.00365549
0.00318403
0.00285801
0.0024027
0.00207011
0.00160125
0.00141297
0.00134512
0.00126739
0.00109336
0.000933336
0.000655269
0.000418797
2.44161e-05
-0.000316654
-0.000896285
-0.00141945
-0.00234025
-0.00322219
-0.00484978
-0.00656111
-0.00996165
-0.0141799
-0.0236492
-0.038796
-0.0759216
-0.127512
-0.138451
-0.174936
-0.213162
-0.273076
-0.239185
-0.0881922
-0.0247542
-0.00619146
-65.5147
61.0256
1.00641
0.721634
0.544173
0.360199
0.272512
0.18955
0.14753
0.102893
0.0871064
0.0832839
0.0811204
0.0770538
0.0741649
0.0696629
0.0667279
0.0624726
0.0597243
0.055757
0.0531865
0.0494633
0.0470601
0.0435996
0.0414192
0.0383842
0.0367059
0.0348798
0.0353431
0.0392435
0.0470106
0.0339191
0.024011
0.0198713
0.0165496
0.0148599
0.0129469
0.0118499
0.0104495
0.00961392
0.00850538
0.00783305
0.00692559
0.00636794
0.00560363
0.00512402
0.0044497
0.00400824
0.0033571
0.0029055
0.00222627
0.0019714
0.00188369
0.00177965
0.00153001
0.00131316
0.000915186
0.000594989
3.13951e-05
-0.000430195
-0.00125766
-0.00196532
-0.00327804
-0.00446988
-0.00678408
-0.00909193
-0.0138983
-0.0195593
-0.0327845
-0.0530941
-0.105499
-0.180744
-0.192438
-0.244797
-0.297268
-0.387519
-0.341322
-0.118668
-0.0321406
-0.00790132
-63.7203
58.4367
1.33732
0.92149
0.699887
0.456736
0.349904
0.240988
0.189775
0.130368
0.111168
0.106956
0.10442
0.098995
0.0954587
0.0894661
0.085877
0.080225
0.0768658
0.0715976
0.0684559
0.0635106
0.0605729
0.0559739
0.0533069
0.0492623
0.0471988
0.0446899
0.0452077
0.0502195
0.0618143
0.0434164
0.0304859
0.0254862
0.0211689
0.0191175
0.0165924
0.0152542
0.0133982
0.0123777
0.0109071
0.0100857
0.00888163
0.00820032
0.00718623
0.00660033
0.00570605
0.00516684
0.00430352
0.00375
0.0028343
0.00252313
0.00242291
0.00229773
0.00196534
0.00170022
0.00117199
0.000780912
3.42893e-05
-0.000529106
-0.00162384
-0.00248699
-0.00422066
-0.00567269
-0.00871864
-0.0115228
-0.0178008
-0.0246362
-0.0416365
-0.0661083
-0.134163
-0.236518
-0.244798
-0.314653
-0.379863
-0.507421
-0.450517
-0.143699
-0.0370354
-0.00889871
-61.9257
55.8302
1.70246
1.11358
0.856462
0.547819
0.42738
0.290118
0.232347
0.156236
0.134629
0.130562
0.127835
0.120861
0.116851
0.109173
0.105109
0.0978856
0.0940838
0.0873532
0.0837975
0.0774777
0.0741522
0.068271
0.0652497
0.0600611
0.0577096
0.054379
0.0548925
0.0609322
0.0778177
0.0526951
0.0366435
0.0310738
0.0256977
0.023394
0.0201905
0.0186791
0.0163135
0.0151595
0.0132829
0.0123537
0.0108167
0.010046
0.0087517
0.00808897
0.00694819
0.0063384
0.00523753
0.00460896
0.00341815
0.00306643
0.00296312
0.00282408
0.00239797
0.0020978
0.00142329
0.000981051
2.98486e-05
-0.000606767
-0.00199928
-0.00297385
-0.00517456
-0.00681174
-0.0106629
-0.0138147
-0.0216811
-0.0293064
-0.0501896
-0.0773793
-0.161456
-0.296054
-0.294694
-0.384695
-0.459964
-0.634701
-0.569708
-0.160724
-0.0387892
-0.00906074
-60.1307
53.2035
2.11131
1.29239
1.0151
0.631375
0.505528
0.336069
0.275653
0.179923
0.157389
0.154114
0.15142
0.142608
0.13839
0.128736
0.124467
0.115409
0.111419
0.102982
0.0992497
0.091325
0.0878337
0.0804536
0.0772792