/*--------------------------------*- C++ -*----------------------------------*\
| =========                 |                                                 |
| \\      /  F ield         | OpenFOAM: The Open Source CFD Toolbox           |
|  \\    /   O peration     | Version:  5.x                                   |
|   \\  /    A nd           | Web:      www.OpenFOAM.org                      |
|    \\/     M anipulation  |                                                 |
\*---------------------------------------------------------------------------*/
FoamFile
{
    version     2.0;
    format      ascii;
    class       volScalarField;
    location    "5";
    object      T;
}
// * * * * * * * * * * * * * * * * * * * * * * * * * * * * * * * * * * * * * //

dimensions      [0 0 0 1 0 0 0];

internalField   nonuniform List<scalar> 
3200
(
2.08484
2.43603
2.45606
2.60091
2.61009
2.68241
2.68723
2.72908
2.73195
2.75846
2.76022
2.77554
2.77689
2.79361
2.79497
2.81092
2.8122
2.82687
2.82804
2.8413
2.84235
2.85419
2.85512
2.86557
2.86639
2.8756
2.87633
2.88462
2.88535
2.89413
2.90184
2.90239
2.90737
2.90774
2.91154
2.91183
2.91487
2.9151
2.91758
2.91776
2.91978
2.91993
2.92157
2.9217
2.92303
2.92312
2.92418
2.92425
2.92504
2.92509
2.92556
2.9256
2.92607
2.9261
2.92647
2.92649
2.92669
2.9267
2.92667
2.92665
2.92628
2.92623
2.92533
2.92522
2.92342
2.92319
2.9196
2.9191
2.9112
2.90981
2.88733
2.84809
2.84372
2.77994
2.77243
2.65314
2.64818
2.64756
2.64743
2.6474
2.26032
2.52902
2.57087
2.68676
2.70633
2.76417
2.77443
2.8078
2.8139
2.83497
2.83872
2.851
2.85387
2.8671
2.86998
2.88262
2.88533
2.89695
2.89942
2.90994
2.91216
2.92154
2.92351
2.9318
2.93354
2.94084
2.94239
2.94899
2.95056
2.95783
2.96431
2.9655
2.96947
2.97026
2.97328
2.97389
2.9763
2.97679
2.97875
2.97915
2.98075
2.98107
2.98237
2.98264
2.98369
2.9839
2.98473
2.98489
2.98551
2.98562
2.986
2.98608
2.98646
2.98653
2.98682
2.98687
2.98702
2.98704
2.98701
2.98698
2.98668
2.98657
2.98585
2.98561
2.98417
2.98368
2.9808
2.97974
2.9733
2.97024
2.9506
2.91848
2.90912
2.85829
2.84247
2.74979
2.73934
2.73761
2.73725
2.73717
2.42506
2.63108
2.68272
2.77646
2.80105
2.84783
2.86072
2.88761
2.89526
2.91218
2.91688
2.92684
2.93043
2.94101
2.94461
2.95472
2.9581
2.9674
2.97049
2.9789
2.98168
2.98919
2.99165
2.99829
3.00046
3.00631
3.00826
3.01356
3.01554
3.02156
3.02698
3.02849
3.0317
3.03269
3.03511
3.03587
3.0378
3.03842
3.03999
3.04048
3.04176
3.04217
3.04321
3.04354
3.04438
3.04465
3.04531
3.04551
3.04601
3.04615
3.04646
3.04656
3.04686
3.04695
3.04718
3.04724
3.04736
3.04738
3.04736
3.04731
3.04708
3.04693
3.04636
3.04605
3.04489
3.04428
3.04194
3.04059
3.03527
3.03134
3.01436
2.98796
2.97618
2.93523
2.91558
2.84317
2.83015
2.82761
2.82706
2.82694
2.58155
2.73932
2.79289
2.86892
2.89487
2.93284
2.94644
2.96818
2.97624
2.98988
2.99483
3.00294
3.00672
3.01519
3.01898
3.02708
3.03063
3.0381
3.04134
3.0481
3.05101
3.05704
3.05963
3.06496
3.06724
3.07194
3.07399
3.07826
3.08035
3.08531
3.08982
3.09142
3.09402
3.09506
3.09701
3.09781
3.09936
3.1
3.10127
3.10179
3.10282
3.10324
3.10408
3.10442
3.1051
3.10538
3.10591
3.10613
3.10652
3.10667
3.10692
3.10703
3.10727
3.10736
3.10755
3.10761
3.10771
3.10773
3.10771
3.10766
3.10747
3.10732
3.10685
3.10653
3.10559
3.10494
3.10303
3.10159
3.09718
3.09295
3.07851
3.05685
3.04441
3.01132
2.9908
2.93416
2.92054
2.91753
2.91685
2.9167
2.73174
2.85173
2.90216
2.96339
2.98822
3.01883
3.03184
3.04931
3.05701
3.06792
3.07265
3.07921
3.08282
3.08957
3.09317
3.09963
3.10301
3.10897
3.11206
3.11744
3.12022
3.12503
3.12749
3.13174
3.13392
3.13767
3.13962
3.14305
3.14506
3.14909
3.15277
3.15431
3.1564
3.15739
3.15895
3.15971
3.16095
3.16157
3.16257
3.16307
3.16389
3.1643
3.16497
3.1653
3.16584
3.1661
3.16653
3.16673
3.16705
3.16719
3.16739
3.16749
3.16768
3.16777
3.16792
3.16798
3.16806
3.16807
3.16806
3.16801
3.16786
3.16771
3.16734
3.16703
3.16627
3.16565
3.1641
3.16272
3.15908
3.15498
3.14294
3.12537
3.11347
3.0869
3.06747
3.02343
3.0105
3.00736
3.00662
3.00645
2.87712
2.96691
3.011
3.05931
3.08133
3.10553
3.11707
3.13082
3.13764
3.14621
3.1504
3.1556
3.15879
3.16407
3.16725
3.1723
3.17529
3.17995
3.18268
3.18689
3.18935
3.19311
3.19529
3.19862
3.20054
3.20348
3.2052
3.2079
3.20968
3.21287
3.2158
3.21718
3.21883
3.2197
3.22093
3.2216
3.22257
3.22311
3.2239
3.22434
3.22499
3.22534
3.22587
3.22616
3.22658
3.22681
3.22715
3.22733
3.22758
3.2277
3.22786
3.22795
3.2281
3.22818
3.22829
3.22835
3.22841
3.22842
3.22841
3.22837
3.22825
3.22812
3.22782
3.22755
3.22695
3.2264
3.22517
3.22393
3.22101
3.21732
3.20759
3.19367
3.18311
3.1622
3.14512
3.11146
3.10007
3.09709
3.09637
3.0962
3.01892
3.08393
3.11968
3.15629
3.17436
3.19273
3.2022
3.21261
3.2182
3.22467
3.22811
3.23206
3.23468
3.23865
3.24125
3.24506
3.2475
3.25101
3.25324
3.25641
3.25842
3.26125
3.26304
3.26554
3.26712
3.26933
3.27074
3.27278
3.27424
3.27667
3.2789
3.28003
3.28128
3.282
3.28292
3.28348
3.28421
3.28465
3.28525
3.28561
3.28609
3.28638
3.28678
3.28702
3.28733
3.28752
3.28778
3.28792
3.28811
3.28821
3.28833
3.28841
3.28852
3.28858
3.28867
3.28871
3.28876
3.28877
3.28876
3.28873
3.28864
3.28853
3.28831
3.28808
3.28763
3.28717
3.28624
3.28522
3.28296
3.27991
3.27241
3.26183
3.25316
3.23735
3.22344
3.1986
3.1893
3.18673
3.18609
3.18594
3.15811
3.20212
3.22831
3.25401
3.26738
3.28029
3.28729
3.2946
3.29873
3.30326
3.3058
3.30858
3.31052
3.31329
3.31521
3.31786
3.31967
3.32212
3.32377
3.32598
3.32746
3.32944
3.33076
3.33251
3.33367
3.33522
3.33626
3.33769
3.33877
3.34047
3.34204
3.34288
3.34376
3.34429
3.34494
3.34534
3.34586
3.34618
3.3466
3.34686
3.3472
3.34742
3.34769
3.34787
3.34809
3.34823
3.34841
3.34852
3.34865
3.34872
3.34881
3.34886
3.34894
3.34899
3.34905
3.34908
3.34911
3.34912
3.34911
3.34909
3.34902
3.34895
3.34879
3.34862
3.3483
3.34797
3.34731
3.34655
3.34494
3.34267
3.33735
3.32992
3.3235
3.31242
3.30219
3.28512
3.27827
3.2763
3.27579
3.27568
3.29555
3.32102
3.33697
3.35222
3.36041
3.36808
3.37238
3.37671
3.37924
3.38193
3.38349
3.38514
3.38632
3.38796
3.38914
3.39071
3.39181
3.39326
3.39427
3.39558
3.39648
3.39766
3.39846
3.3995
3.40021
3.40112
3.40176
3.40261
3.40327
3.40428
3.40521
3.40573
3.40625
3.40658
3.40696
3.40721
3.40751
3.40771
3.40796
3.40812
3.40832
3.40845
3.40862
3.40872
3.40885
3.40894
3.40904
3.40911
3.40919
3.40923
3.40928
3.40932
3.40936
3.40939
3.40943
3.40945
3.40947
3.40947
3.40947
3.40945
3.40941
3.40937
3.40927
3.40917
3.40898
3.40878
3.40838
3.40792
3.40695
3.40555
3.40238
3.39796
3.39403
3.38746
3.38121
3.37122
3.36704
3.3658
3.36548
3.36541
3.43196
3.4403
3.44565
3.45071
3.45347
3.45601
3.45746
3.4589
3.45975
3.46064
3.46116
3.46171
3.46211
3.46265
3.46305
3.46357
3.46394
3.46442
3.46476
3.46519
3.4655
3.46588
3.46615
3.4665
3.46674
3.46704
3.46725
3.46754
3.46776
3.46809
3.4684
3.46858
3.46875
3.46886
3.46899
3.46907
3.46917
3.46924
3.46932
3.46937
3.46944
3.46948
3.46954
3.46957
3.46962
3.46965
3.46968
3.4697
3.46973
3.46974
3.46976
3.46977
3.46979
3.4698
3.46981
3.46982
3.46982
3.46982
3.46982
3.46982
3.4698
3.46979
3.46976
3.46972
3.46966
3.46959
3.46946
3.4693
3.46898
3.46851
3.46745
3.46599
3.46467
3.46249
3.46039
3.4571
3.45569
3.45527
3.45516
3.45514
3.43133
3.44024
3.44642
3.45309
3.45717
3.46161
3.46444
3.46768
3.46977
3.47217
3.47365
3.47527
3.47646
3.4781
3.47928
3.48083
3.48193
3.48333
3.48431
3.48554
3.4864
3.48747
3.48822
3.48916
3.48982
3.49064
3.49123
3.49199
3.49261
3.49354
3.49441
3.49491
3.49542
3.49575
3.49613
3.49639
3.49671
3.49693
3.4972
3.49739
3.49762
3.49777
3.49797
3.4981
3.49826
3.49837
3.49851
3.4986
3.4987
3.49877
3.49884
3.4989
3.49897
3.49903
3.4991
3.49915
3.49922
3.49926
3.49932
3.49936
3.49941
3.49944
3.49949
3.49951
3.49955
3.49956
3.49957
3.49956
3.49948
3.49931
3.49886
3.49813
3.49735
3.49592
3.4944
3.49187
3.49079
3.49046
3.49038
3.49036
3.29364
3.32084
3.33924
3.35936
3.37149
3.38488
3.39329
3.40309
3.4093
3.41654
3.42093
3.42582
3.42938
3.43431
3.43784
3.44252
3.44578
3.45
3.4529
3.45663
3.45918
3.46244
3.46466
3.4675
3.46944
3.47193
3.47367
3.47598
3.47781
3.48062
3.48325
3.48473
3.48626
3.48723
3.4884
3.48918
3.49015
3.4908
3.49161
3.49216
3.49285
3.49331
3.4939
3.49429
3.49479
3.49512
3.49552
3.49579
3.49611
3.4963
3.49653
3.49669
3.49692
3.49708
3.4973
3.49745
3.49765
3.49779
3.49796
3.49808
3.49823
3.49833
3.49846
3.49854
3.49864
3.49869
3.49872
3.49867
3.49845
3.49794
3.49659
3.49439
3.49207
3.48777
3.48323
3.47557
3.47234
3.47138
3.47114
3.47108
3.15487
3.20179
3.23199
3.26595
3.28575
3.30836
3.3221
3.33864
3.34879
3.36103
3.3682
3.37643
3.38223
3.39058
3.39634
3.40426
3.40959
3.41672
3.42147
3.42777
3.43194
3.43744
3.44107
3.44587
3.44904
3.45325
3.45609
3.45999
3.46297
3.46771
3.47214
3.47454
3.47712
3.47872
3.48069
3.48196
3.48359
3.48465
3.48603
3.48693
3.48809
3.48885
3.48984
3.49048
3.49132
3.49185
3.49254
3.49298
3.49352
3.49384
3.49421
3.49448
3.49487
3.49513
3.4955
3.49575
3.49608
3.49631
3.4966
3.4968
3.49705
3.49722
3.49744
3.49757
3.49774
3.49782
3.49787
3.49779
3.49743
3.49661
3.49435
3.49065
3.48688
3.47962
3.47219
3.45908
3.4538
3.45228
3.45189
3.4518
3.01421
3.0834
3.12459
3.17311
3.19991
3.23219
3.25078
3.27444
3.28819
3.30572
3.31542
3.32713
3.33499
3.34695
3.35476
3.36611
3.37332
3.38354
3.38998
3.39899
3.40464
3.41252
3.41744
3.4243
3.4286
3.43462
3.43847
3.44403
3.44806
3.45481
3.46111
3.46435
3.46803
3.47018
3.47301
3.47473
3.47706
3.4785
3.48047
3.48168
3.48335
3.48438
3.4858
3.48667
3.48786
3.48859
3.48958
3.49017
3.49094
3.49137
3.49191
3.49227
3.49282
3.49318
3.49371
3.49405
3.49452
3.49483
3.49525
3.49551
3.49588
3.49611
3.49642
3.4966
3.49684
3.49695
3.49703
3.49692
3.49643
3.49533
3.49217
3.48692
3.48182
3.47148
3.46138
3.44228
3.43511
3.43312
3.43262
3.43251
2.87079
2.96614
3.0169
3.08114
3.11385
3.15657
3.17927
3.21065
3.22744
3.25072
3.26257
3.27799
3.28758
3.30349
3.31304
3.32812
3.33694
3.35052
3.35838
3.37035
3.37725
3.38771
3.39373
3.40284
3.40809
3.41608
3.42078
3.42814
3.43304
3.44193
3.4502
3.45414
3.45899
3.46162
3.46537
3.46747
3.47057
3.47232
3.47494
3.47642
3.47864
3.47989
3.48177
3.48284
3.48442
3.48531
3.48662
3.48734
3.48837
3.4889
3.4896
3.49004
3.49078
3.49122
3.49192
3.49234
3.49297
3.49334
3.4939
3.49422
3.49471
3.49499
3.4954
3.49563
3.49594
3.49608
3.49619
3.49606
3.49546
3.49414
3.49007
3.48318
3.47697
3.46333
3.45092
3.425
3.41621
3.41391
3.41335
3.41322
2.72355
2.85066
2.90867
2.99043
3.02738
3.08175
3.10741
3.14743
3.16643
3.19618
3.20956
3.22908
3.23991
3.26029
3.2711
3.29038
3.30036
3.31772
3.32661
3.34191
3.34972
3.36308
3.36989
3.38153
3.38748
3.39767
3.40299
3.41234
3.41787
3.42907
3.43947
3.44389
3.45005
3.45301
3.45779
3.46017
3.46413
3.46611
3.46945
3.47113
3.47396
3.47538
3.47778
3.47899
3.48101
3.48202
3.48369
3.48451
3.48583
3.48643
3.48731
3.48781
3.48875
3.48925
3.49015
3.49062
3.49143
3.49185
3.49256
3.49293
3.49355
3.49387
3.49439
3.49465
3.49505
3.49521
3.49536
3.49522
3.49451
3.49306
3.48809
3.47942
3.47242
3.45514
3.44101
3.40704
3.39705
3.39462
3.39405
3.39392
2.57123
2.73794
2.79949
2.90151
2.94022
3.00808
3.03497
3.08506
3.10499
3.1423
3.15632
3.18052
3.19187
3.21746
3.22882
3.25301
3.26349
3.28525
3.29459
3.31377
3.32197
3.33872
3.34586
3.36045
3.36669
3.37946
3.38503
3.3967
3.40246
3.41625
3.42897
3.43358
3.44123
3.44434
3.45031
3.45281
3.45776
3.45985
3.46403
3.46579
3.46934
3.47083
3.47384
3.4751
3.47764
3.4787
3.4808
3.48166
3.48331
3.48394
3.48504
3.48556
3.48674
3.48727
3.48839
3.48888
3.4899
3.49034
3.49124
3.49162
3.4924
3.49273
3.4934
3.49366
3.49418
3.49434
3.49455
3.49441
3.49359
3.49211
3.48626
3.47559
3.46828
3.44681
3.43189
3.38812
3.37759
3.37527
3.37474
3.37462
2.41224
2.62943
2.68869
2.81512
2.85189
2.93605
2.96161
3.02389
3.04286
3.08934
3.10267
3.13247
3.14325
3.17521
3.18603
3.21619
3.22617
3.25329
3.26218
3.28607
3.29387
3.31474
3.32154
3.3397
3.34564
3.36154
3.36683
3.38129
3.38674
3.40347
3.4188
3.42314
3.43259
3.43554
3.44297
3.44535
3.45151
3.4535
3.4587
3.46038
3.4648
3.46622
3.46997
3.47117
3.47433
3.47534
3.47795
3.47877
3.48083
3.48143
3.48279
3.48328
3.48476
3.48526
3.48666
3.48713
3.4884
3.48882
3.48994
3.4903
3.49127
3.49159
3.49241
3.49267
3.49331
3.49347
3.49375
3.49362
3.4927
3.49134
3.48461
3.47162
3.46471
3.43823
3.42393
3.36787
3.3578
3.35584
3.35541
3.35532
2.24456
2.52723
2.5752
2.73232
2.76167
2.86636
2.88677
2.96446
2.97962
3.03772
3.04835
3.08518
3.09379
3.1338
3.14246
3.18018
3.18816
3.22205
3.22917
3.25902
3.26526
3.29132
3.29676
3.31944
3.32419
3.34403
3.34827
3.36624
3.37056
3.39074
3.40907
3.41249
3.42421
3.42657
3.43584
3.43773
3.44543
3.44702
3.45352
3.45486
3.46038
3.46152
3.46619
3.46716
3.4711
3.47191
3.47518
3.47583
3.47841
3.47889
3.48057
3.48096
3.48281
3.48321
3.48497
3.48534
3.48693
3.48726
3.48866
3.48895
3.49017
3.49042
3.49146
3.49166
3.49247
3.4926
3.49296
3.49287
3.49183
3.49079
3.48322
3.46741
3.46192
3.42915
3.41763
3.34578
3.33768
3.33635
3.33607
3.33601
2.06558
2.43442
2.45735
2.65463
2.66843
2.80004
2.80965
2.90752
2.91467
2.98799
2.99299
3.03902
3.04307
3.09364
3.09773
3.14535
3.14912
3.19189
3.19524
3.2329
3.23585
3.26872
3.27129
3.2999
3.30214
3.32716
3.32915
3.35174
3.35375
3.37809
3.39993
3.40152
3.41621
3.41732
3.42899
3.42989
3.4396
3.44034
3.44854
3.44918
3.45613
3.45667
3.46257
3.46302
3.468
3.46838
3.47251
3.47282
3.47608
3.4763
3.4784
3.47859
3.48092
3.48111
3.48333
3.48351
3.48551
3.48567
3.48743
3.48757
3.48911
3.48922
3.49053
3.49063
3.49165
3.49171
3.49219
3.49215
3.49096
3.4905
3.48216
3.46279
3.46022
3.41923
3.41375
3.32113
3.3173
3.31681
3.31672
3.31669
2.06558
2.43442
2.45735
2.65463
2.66843
2.80004
2.80965
2.90752
2.91467
2.98799
2.99299
3.03902
3.04307
3.09364
3.09773
3.14535
3.14912
3.19189
3.19524
3.2329
3.23585
3.26872
3.27129
3.2999
3.30214
3.32715
3.32915
3.35174
3.35375
3.37809
3.39993
3.40152
3.41621
3.41732
3.42899
3.42989
3.4396
3.44034
3.44854
3.44918
3.45613
3.45667
3.46257
3.46302
3.468
3.46838
3.47251
3.47282
3.47608
3.4763
3.4784
3.47859
3.48092
3.48111
3.48333
3.48351
3.48551
3.48567
3.48743
3.48757
3.48911
3.48922
3.49053
3.49063
3.49165
3.49171
3.49219
3.49215
3.49096
3.4905
3.48216
3.46279
3.46022
3.41923
3.41375
3.32113
3.3173
3.31681
3.31671
3.31669
2.24456
2.52723
2.5752
2.73232
2.76167
2.86636
2.88677
2.96446
2.97962
3.03772
3.04835
3.08518
3.09379
3.1338
3.14246
3.18017
3.18816
3.22205
3.22917
3.25902
3.26526
3.29132
3.29676
3.31944
3.32419
3.34403
3.34826
3.36624
3.37056
3.39074
3.40907
3.41249
3.42421
3.42657
3.43584
3.43773
3.44543
3.44702
3.45352
3.45486
3.46038
3.46152
3.46619
3.46716
3.4711
3.47191
3.47518
3.47583
3.47841
3.47889
3.48057
3.48096
3.48281
3.48321
3.48497
3.48534
3.48693
3.48726
3.48866
3.48895
3.49017
3.49042
3.49146
3.49166
3.49247
3.4926
3.49296
3.49287
3.49183
3.49079
3.48322
3.46741
3.46192
3.42915
3.41763
3.34577
3.33768
3.33634
3.33607
3.33601
2.41224
2.62942
2.68869
2.81512
2.85189
2.93605
2.96161
3.02389
3.04286
3.08934
3.10266
3.13247
3.14325
3.17521
3.18603
3.21619
3.22617
3.25329
3.26218
3.28607
3.29387
3.31474
3.32154
3.3397
3.34564
3.36153
3.36683
3.38129
3.38674
3.40347
3.4188
3.42314
3.43259
3.43554
3.44297
3.44534
3.45151
3.4535
3.4587
3.46038
3.4648
3.46622
3.46997
3.47117
3.47433
3.47534
3.47795
3.47877
3.48083
3.48143
3.48279
3.48328
3.48476
3.48526
3.48666
3.48713
3.4884
3.48882
3.48994
3.4903
3.49127
3.49159
3.49241
3.49267
3.49331
3.49347
3.49374
3.49362
3.4927
3.49134
3.48461
3.47162
3.46471
3.43822
3.42393
3.36787
3.3578
3.35584
3.35541
3.35532
2.57123
2.73794
2.79949
2.90151
2.94022
3.00808
3.03497
3.08506
3.10499
3.1423
3.15632
3.18052
3.19187
3.21746
3.22882
3.25301
3.26349
3.28525
3.29459
3.31377
3.32197
3.33872
3.34586
3.36045
3.36669
3.37946
3.38503
3.3967
3.40246
3.41625
3.42897
3.43358
3.44123
3.44434
3.45031
3.45281
3.45776
3.45985
3.46403
3.46579
3.46934
3.47083
3.47384
3.4751
3.47764
3.4787
3.4808
3.48166
3.48331
3.48394
3.48504
3.48556
3.48674
3.48727
3.48839
3.48888
3.4899
3.49034
3.49124
3.49162
3.4924
3.49273
3.4934
3.49366
3.49418
3.49434
3.49455
3.49441
3.49359
3.49211
3.48626
3.47559
3.46828
3.44681
3.43189
3.38812
3.37759
3.37526
3.37474
3.37462
2.72355
2.85066
2.90867
2.99043
3.02738
3.08175
3.10741
3.14743
3.16643
3.19618
3.20956
3.22908
3.23991
3.26029
3.2711
3.29038
3.30036
3.31772
3.32661
3.34191
3.34972
3.36308
3.36989
3.38153
3.38748
3.39767
3.40299
3.41234
3.41787
3.42907
3.43947
3.44389
3.45005
3.45301
3.45779
3.46017
3.46413
3.46611
3.46945
3.47113
3.47396
3.47538
3.47778
3.47899
3.48101
3.48202
3.48369
3.48451
3.48583
3.48643
3.48731
3.48781
3.48875
3.48925
3.49015
3.49062
3.49143
3.49185
3.49256
3.49293
3.49355
3.49387
3.49439
3.49465
3.49505
3.49521
3.49536
3.49522
3.49451
3.49306
3.48809
3.47942
3.47242
3.45514
3.44101
3.40704
3.39705
3.39462
3.39405
3.39392
2.87079
2.96614
3.0169
3.08114
3.11385
3.15657
3.17927
3.21065
3.22744
3.25072
3.26256
3.27799
3.28758
3.30349
3.31304
3.32812
3.33694
3.35052
3.35838
3.37035
3.37725
3.38771
3.39373
3.40284
3.40809
3.41608
3.42078
3.42814
3.43304
3.44193
3.4502
3.45414
3.45899
3.46162
3.46537
3.46747
3.47057
3.47232
3.47494
3.47642
3.47864
3.47989
3.48177
3.48284
3.48442
3.48531
3.48662
3.48734
3.48837
3.4889
3.4896
3.49004
3.49078
3.49122
3.49192
3.49234
3.49297
3.49334
3.4939
3.49422
3.49471
3.49499
3.4954
3.49563
3.49594
3.49608
3.49619
3.49606
3.49546
3.49414
3.49007
3.48318
3.47697
3.46333
3.45092
3.425
3.41621
3.41391
3.41335
3.41322
3.01421
3.0834
3.12459
3.17311
3.19991
3.23219
3.25078
3.27444
3.28819
3.30572
3.31542
3.32713
3.33499
3.34695
3.35476
3.36611
3.37332
3.38354
3.38998
3.39899
3.40464
3.41252
3.41744
3.4243
3.4286
3.43462
3.43847
3.44403
3.44806
3.45481
3.46111
3.46435
3.46803
3.47018
3.47301
3.47473
3.47706
3.4785
3.48047
3.48168
3.48335
3.48438
3.4858
3.48667
3.48786
3.48859
3.48958
3.49017
3.49094
3.49137
3.49191
3.49227
3.49282
3.49318
3.49371
3.49405
3.49452
3.49483
3.49525
3.49551
3.49588
3.49611
3.49642
3.4966
3.49684
3.49695
3.49703
3.49692
3.49643
3.49533
3.49217
3.48692
3.48182
3.47148
3.46138
3.44228
3.43511
3.43312
3.43262
3.43251
3.15486
3.20179
3.23199
3.26595
3.28575
3.30836
3.3221
3.33864
3.34879
3.36103
3.3682
3.37643
3.38223
3.39058
3.39634
3.40426
3.40959
3.41672
3.42147
3.42777
3.43194
3.43744
3.44107
3.44587
3.44904
3.45325
3.45609
3.45999
3.46297
3.46771
3.47214
3.47454
3.47712
3.47872
3.48069
3.48196
3.48359
3.48465
3.48603
3.48693
3.48809
3.48885
3.48984
3.49048
3.49132
3.49185
3.49254
3.49298
3.49352
3.49384
3.49421
3.49448
3.49487
3.49513
3.4955
3.49575
3.49608
3.49631
3.4966
3.4968
3.49705
3.49722
3.49744
3.49757
3.49774
3.49782
3.49787
3.49779
3.49743
3.49661
3.49435
3.49065
3.48688
3.47962
3.47219
3.45908
3.4538
3.45227
3.45189
3.4518
3.29364
3.32084
3.33924
3.35936
3.37149
3.38488
3.39329
3.40309
3.4093
3.41654
3.42093
3.42582
3.42938
3.43431
3.43784
3.44252
3.44578
3.45
3.4529
3.45663
3.45918
3.46244
3.46466
3.4675
3.46944
3.47193
3.47367
3.47598
3.47781
3.48062
3.48325
3.48473
3.48626
3.48723
3.4884
3.48918
3.49015
3.4908
3.49161
3.49216
3.49285
3.49331
3.4939
3.49429
3.49479
3.49511
3.49552
3.49579
3.49611
3.4963
3.49653
3.49669
3.49692
3.49708
3.4973
3.49745
3.49765
3.49779
3.49796
3.49808
3.49823
3.49833
3.49846
3.49854
3.49864
3.49869
3.49872
3.49867
3.49845
3.49794
3.49659
3.49439
3.49207
3.48777
3.48323
3.47556
3.47234
3.47138
3.47114
3.47108
3.43133
3.44024
3.44642
3.45309
3.45717
3.46161
3.46444
3.46768
3.46977
3.47217
3.47365
3.47527
3.47646
3.4781
3.47928
3.48083
3.48193
3.48333
3.4843
3.48554
3.4864
3.48747
3.48822
3.48916
3.48982
3.49064
3.49123
3.49199
3.49261
3.49354
3.49441
3.49491
3.49542
3.49575
3.49613
3.49639
3.49671
3.49693
3.4972
3.49739
3.49762
3.49777
3.49797
3.4981
3.49826
3.49837
3.49851
3.4986
3.4987
3.49877
3.49884
3.4989
3.49897
3.49903
3.4991
3.49915
3.49922
3.49926
3.49932
3.49936
3.49941
3.49944
3.49949
3.49951
3.49955
3.49956
3.49957
3.49956
3.49948
3.49931
3.49886
3.49813
3.49735
3.49592
3.4944
3.49187
3.49079
3.49046
3.49038
3.49036
3.43194
3.44027
3.44562
3.45066
3.45339
3.4559
3.4573
3.45865
3.45941
3.46015
3.46067
3.46134
3.46182
3.46244
3.46288
3.46344
3.46383
3.46433
3.46469
3.46513
3.46545
3.46584
3.46612
3.46646
3.46671
3.46701
3.46723
3.46752
3.46774
3.46808
3.46839
3.46857
3.46874
3.46885
3.46898
3.46906
3.46916
3.46923
3.46931
3.46937
3.46944
3.46948
3.46954
3.46957
3.46962
3.46964
3.46968
3.4697
3.46973
3.46974
3.46976
3.46977
3.46979
3.4698
3.46981
3.46982
3.46982
3.46982
3.46982
3.46982
3.4698
3.46979
3.46976
3.46972
3.46966
3.46959
3.46946
3.4693
3.46898
3.46851
3.46745
3.46599
3.46467
3.46249
3.46039
3.4571
3.45569
3.45527
3.45516
3.45514
3.29549
3.32094
3.33686
3.35206
3.36019
3.36774
3.3719
3.37597
3.37823
3.38046
3.38199
3.38404
3.38547
3.38734
3.38864
3.39033
3.3915
3.39301
3.39406
3.3954
3.39633
3.39753
3.39835
3.3994
3.40012
3.40105
3.40169
3.40255
3.40322
3.40424
3.40518
3.4057
3.40622
3.40655
3.40694
3.40719
3.40749
3.4077
3.40794
3.40811
3.40831
3.40844
3.40861
3.40871
3.40885
3.40893
3.40904
3.40911
3.40918
3.40923
3.40928
3.40931
3.40936
3.40939
3.40943
3.40945
3.40946
3.40947
3.40947
3.40945
3.40941
3.40937
3.40927
3.40917
3.40898
3.40877
3.40838
3.40792
3.40695
3.40555
3.40238
3.39796
3.39403
3.38746
3.38121
3.37122
3.36704
3.3658
3.36548
3.36541
3.15803
3.20199
3.22814
3.25374
3.26701
3.27972
3.28651
3.29337
3.29705
3.3008
3.3033
3.30675
3.30909
3.31226
3.31439
3.31724
3.31915
3.3217
3.32341
3.32569
3.32721
3.32923
3.33057
3.33234
3.33352
3.33509
3.33615
3.33759
3.33868
3.3404
3.34198
3.34283
3.34371
3.34425
3.3449
3.34531
3.34583
3.34616
3.34658
3.34684
3.34718
3.3474
3.34768
3.34786
3.34808
3.34822
3.3484
3.34851
3.34864
3.34871
3.3488
3.34886
3.34893
3.34898
3.34904
3.34908
3.34911
3.34912
3.34911
3.34909
3.34902
3.34894
3.34879
3.34862
3.3483
3.34797
3.34731
3.34655
3.34494
3.34267
3.33735
3.32992
3.3235
3.31242
3.30219
3.28512
3.27827
3.2763
3.27579
3.27568
3.0188
3.08376
3.11944
3.15592
3.17386
3.19194
3.20111
3.2109
3.21586
3.22119
3.22457
3.22951
3.23268
3.23722
3.2401
3.24419
3.24677
3.25043
3.25275
3.25601
3.25806
3.26095
3.26277
3.26531
3.26691
3.26915
3.27058
3.27264
3.27412
3.27657
3.27882
3.27996
3.28122
3.28194
3.28287
3.28343
3.28417
3.28462
3.28521
3.28558
3.28606
3.28636
3.28676
3.287
3.28732
3.28751
3.28776
3.28791
3.2881
3.2882
3.28832
3.2884
3.28851
3.28858
3.28866
3.28871
3.28875
3.28877
3.28876
3.28872
3.28863
3.28853
3.2883
3.28808
3.28762
3.28717
3.28623
3.28521
3.28296
3.27991
3.27241
3.26183
3.25316
3.23735
3.22344
3.1986
3.1893
3.18673
3.18609
3.18594
2.87697
2.96669
3.01071
3.05884
3.08069
3.10451
3.11569
3.12861
3.13466
3.14165
3.14578
3.15235
3.15622
3.16225
3.16577
3.17119
3.17436
3.17921
3.18204
3.18637
3.18889
3.19273
3.19494
3.19832
3.20028
3.20325
3.205
3.20772
3.20952
3.21274
3.2157
3.21708
3.21875
3.21963
3.22086
3.22154
3.22252
3.22307
3.22386
3.2243
3.22495
3.22531
3.22584
3.22613
3.22656
3.22679
3.22713
3.22731
3.22756
3.22769
3.22784
3.22794
3.22809
3.22817
3.22828
3.22834
3.2284
3.22842
3.2284
3.22836
3.22824
3.22811
3.22782
3.22755
3.22695
3.22639
3.22517
3.22393
3.221
3.21732
3.20759
3.19367
3.18311
3.1622
3.14512
3.11146
3.10007
3.09709
3.09637
3.0962
2.73156
2.85145
2.90181
2.96281
2.98745
3.01759
3.03019
3.04661
3.05343
3.06223
3.06689
3.07529
3.07967
3.08737
3.09136
3.09829
3.10187
3.10808
3.11128
3.11681
3.11966
3.12456
3.12707
3.13139
3.1336
3.13739
3.13937
3.14283
3.14486
3.14893
3.15264
3.15419
3.1563
3.1573
3.15887
3.15964
3.16089
3.16151
3.16252
3.16303
3.16385
3.16426
3.16493
3.16527
3.16581
3.16607
3.1665
3.16671
3.16703
3.16717
3.16737
3.16748
3.16767
3.16776
3.16791
3.16797
3.16805
3.16807
3.16805
3.16801
3.16785
3.16771
3.16733
3.16703
3.16627
3.16565
3.1641
3.16271
3.15908
3.15498
3.14293
3.12537
3.11346
3.0869
3.06747
3.02343
3.0105
3.00736
3.00662
3.00645
2.58135
2.739
2.79248
2.86824
2.89399
2.93138
2.94455
2.96498
2.97211
2.98297
2.98785
2.99839
3.00299
3.01265
3.01683
3.02552
3.02928
3.03706
3.04042
3.04736
3.05034
3.05649
3.05913
3.06454
3.06686
3.07161
3.07368
3.078
3.08012
3.08512
3.08967
3.09129
3.09391
3.09495
3.09692
3.09772
3.09929
3.09994
3.10121
3.10173
3.10277
3.1032
3.10404
3.10439
3.10507
3.10535
3.10589
3.1061
3.1065
3.10665
3.1069
3.10701
3.10725
3.10735
3.10753
3.1076
3.1077
3.10772
3.1077
3.10765
3.10746
3.10731
3.10685
3.10652
3.10558
3.10493
3.10302
3.10159
3.09718
3.09295
3.0785
3.05685
3.04441
3.01131
2.9908
2.93416
2.92053
2.91753
2.91685
2.9167
2.42484
2.63071
2.68227
2.77566
2.80007
2.84613
2.85861
2.88389
2.89065
2.90396
2.90858
2.92172
2.92611
2.93814
2.94212
2.95295
2.95653
2.96622
2.96942
2.97806
2.98091
2.98856
2.99107
2.99781
3.00002
3.00594
3.00791
3.01326
3.01526
3.02134
3.02681
3.02834
3.03157
3.03256
3.03501
3.03577
3.03772
3.03834
3.03992
3.04042
3.04171
3.04212
3.04317
3.0435
3.04435
3.04461
3.04528
3.04549
3.04599
3.04613
3.04643
3.04654
3.04684
3.04693
3.04716
3.04723
3.04735
3.04737
3.04735
3.0473
3.04707
3.04693
3.04635
3.04605
3.04488
3.04427
3.04193
3.04058
3.03526
3.03133
3.01436
2.98796
2.97618
2.93523
2.91558
2.84316
2.83015
2.82761
2.82706
2.82694
2.26009
2.52859
2.57038
2.68585
2.70528
2.76222
2.77216
2.80354
2.80892
2.82529
2.82898
2.84541
2.84892
2.86396
2.86714
2.88067
2.88353
2.89564
2.8982
2.909
2.91127
2.92084
2.92285
2.93126
2.93303
2.94042
2.94199
2.94866
2.95024
2.95758
2.96412
2.96532
2.96933
2.97012
2.97316
2.97377
2.97621
2.9767
2.97867
2.97907
2.98068
2.98101
2.98232
2.98259
2.98365
2.98386
2.9847
2.98486
2.98549
2.9856
2.98598
2.98606
2.98644
2.98651
2.9868
2.98685
2.98701
2.98702
2.987
2.98696
2.98667
2.98656
2.98585
2.9856
2.98417
2.98368
2.9808
2.97973
2.9733
2.97024
2.95059
2.91848
2.90912
2.85828
2.84247
2.74979
2.73934
2.73761
2.73725
2.73717
2.0846
2.43554
2.45554
2.59988
2.60898
2.68019
2.68486
2.72423
2.72675
2.74713
2.74886
2.76962
2.77127
2.79025
2.79175
2.80881
2.81016
2.82545
2.82665
2.84028
2.84135
2.85342
2.85437
2.86499
2.86582
2.87514
2.87588
2.88425
2.88499
2.89386
2.90163
2.90219
2.90721
2.90758
2.91142
2.9117
2.91477
2.915
2.91749
2.91768
2.91971
2.91987
2.92152
2.92164
2.92298
2.92308
2.92414
2.92422
2.925
2.92506
2.92553
2.92557
2.92605
2.92608
2.92645
2.92647
2.92667
2.92668
2.92665
2.92664
2.92627
2.92622
2.92532
2.92521
2.92341
2.92318
2.91959
2.9191
2.91119
2.90981
2.88733
2.84809
2.84371
2.77994
2.77243
2.65313
2.64818
2.64756
2.64743
2.6474
)
;

boundaryField
{
    F1_1
    {
        type            fixedValue;
        value           nonuniform List<scalar> 
80
(
1.99007
2.39615
2.39615
2.5607
2.5607
2.64288
2.64288
2.6905
2.6905
2.7207
2.7207
2.73809
2.73809
2.75717
2.75717
2.77536
2.77536
2.7921
2.7921
2.80723
2.80723
2.82073
2.82073
2.83265
2.83265
2.84315
2.84315
2.85259
2.85259
2.86231
2.87075
2.87075
2.87641
2.87641
2.88075
2.88075
2.88422
2.88422
2.88704
2.88704
2.88933
2.88933
2.89121
2.89121
2.89272
2.89272
2.89392
2.89392
2.89481
2.89481
2.89535
2.89535
2.89588
2.89588
2.8963
2.8963
2.89653
2.89653
2.89649
2.89649
2.89607
2.89607
2.89506
2.89506
2.89301
2.89301
2.88894
2.88894
2.88002
2.88002
2.85603
2.8122
2.8122
2.73965
2.73965
2.60252
2.60252
2.60252
2.60252
2.60252
)
;
    }
    F1_2
    {
        type            fixedValue;
        value           nonuniform List<scalar> 
80
(
1.9687
2.39493
2.39493
2.61945
2.61945
2.76932
2.76932
2.88087
2.88087
2.96449
2.96449
3.01678
3.01678
3.07449
3.07449
3.12881
3.12881
3.17759
3.17759
3.22054
3.22054
3.25803
3.25803
3.29065
3.29065
3.31917
3.31917
3.3449
3.3449
3.37181
3.39577
3.39577
3.41248
3.41248
3.42578
3.42578
3.43686
3.43686
3.44621
3.44621
3.45414
3.45414
3.46087
3.46087
3.46654
3.46654
3.47125
3.47125
3.47497
3.47497
3.47735
3.47735
3.48002
3.48002
3.48255
3.48255
3.48484
3.48484
3.48685
3.48685
3.4886
3.4886
3.49009
3.49009
3.49126
3.49126
3.49182
3.49182
3.49051
3.49051
3.48185
3.46014
3.46014
3.41356
3.41356
3.30704
3.30704
3.30704
3.30704
3.30704
)
;
    }
    F1_3
    {
        type            fixedValue;
        value           nonuniform List<scalar> 
80
(
1.9687
2.39493
2.39493
2.61945
2.61945
2.76932
2.76932
2.88087
2.88087
2.96449
2.96449
3.01678
3.01678
3.07449
3.07449
3.12881
3.12881
3.17759
3.17759
3.22054
3.22054
3.25803
3.25803
3.29065
3.29065
3.31917
3.31917
3.3449
3.3449
3.37181
3.39577
3.39577
3.41248
3.41248
3.42578
3.42578
3.43686
3.43686
3.44621
3.44621
3.45414
3.45414
3.46087
3.46087
3.46654
3.46654
3.47125
3.47125
3.47497
3.47497
3.47735
3.47735
3.48002
3.48002
3.48255
3.48255
3.48484
3.48484
3.48685
3.48685
3.4886
3.4886
3.49009
3.49009
3.49126
3.49126
3.49182
3.49182
3.49051
3.49051
3.48185
3.46014
3.46014
3.41355
3.41355
3.30704
3.30704
3.30704
3.30704
3.30704
)
;
    }
    F1_4
    {
        type            fixedValue;
        value           nonuniform List<scalar> 
80
(
1.98983
2.39564
2.39564
2.55959
2.55959
2.64051
2.64051
2.68531
2.68531
2.70842
2.70842
2.7321
2.7321
2.75374
2.75374
2.7732
2.7732
2.79063
2.79063
2.80617
2.80617
2.81993
2.81993
2.83204
2.83204
2.84267
2.84267
2.85221
2.85221
2.86202
2.87054
2.87054
2.87624
2.87624
2.88061
2.88061
2.88411
2.88411
2.88695
2.88695
2.88926
2.88926
2.89115
2.89115
2.89267
2.89267
2.89388
2.89388
2.89478
2.89478
2.89532
2.89532
2.89586
2.89586
2.89628
2.89628
2.89651
2.89651
2.89648
2.89648
2.89606
2.89606
2.89505
2.89505
2.893
2.893
2.88893
2.88893
2.88001
2.88001
2.85603
2.8122
2.8122
2.73964
2.73964
2.60252
2.60252
2.60252
2.60252
2.60252
)
;
    }
    F2_1
    {
        type            fixedValue;
        value           uniform 3.5;
    }
    F2_2
    {
        type            fixedValue;
        value           uniform 3.5;
    }
    F2_3
    {
        type            fixedValue;
        value           uniform 3.5;
    }
    F2_4
    {
        type            fixedValue;
        value           uniform 3.5;
    }
    defaultFaces
    {
        type            empty;
    }
}


// ************************************************************************* //
