/*--------------------------------*- C++ -*----------------------------------*\
| =========                 |                                                 |
| \\      /  F ield         | OpenFOAM: The Open Source CFD Toolbox           |
|  \\    /   O peration     | Version:  5.x                                   |
|   \\  /    A nd           | Web:      www.OpenFOAM.org                      |
|    \\/     M anipulation  |                                                 |
\*---------------------------------------------------------------------------*/
FoamFile
{
    version     2.0;
    format      ascii;
    class       volScalarField;
    location    "11";
    object      gradTx;
}
// * * * * * * * * * * * * * * * * * * * * * * * * * * * * * * * * * * * * * //

dimensions      [0 -1 0 1 0 0 0];

internalField   nonuniform List<scalar> 
3200
(
45.2118
3.71169
1.64865
1.54011
0.81493
0.771345
0.466723
0.447267
0.293827
0.282721
0.170835
0.166692
0.180696
0.180846
0.173154
0.172312
0.15953
0.158413
0.144287
0.143104
0.128816
0.127646
0.113841
0.112746
0.100204
0.0993167
0.0901401
0.0901336
0.0950612
0.164724
0.0824829
0.0552434
0.0534153
0.041668
0.0408409
0.033244
0.0326852
0.0269691
0.0265396
0.021982
0.0216355
0.0178973
0.0176097
0.0144627
0.0142156
0.0114483
0.0112214
0.00855982
0.00832119
0.00519988
0.00506914
0.00506807
0.00502046
0.0039558
0.00384277
0.00219278
0.00202738
-0.000278551
-0.00051591
-0.00387295
-0.00423526
-0.009501
-0.0101061
-0.0191786
-0.0203266
-0.0381865
-0.0408594
-0.0840594
-0.0929843
-0.238844
-0.61759
-0.43643
-0.68195
-0.713324
-1.26875
-1.24312
-0.0558187
-0.00753255
-0.00152611
-52.9454
47.8962
3.10507
1.57722
1.35444
0.77404
0.680989
0.436314
0.394714
0.271787
0.248194
0.160332
0.151487
0.160987
0.161195
0.155215
0.153441
0.143359
0.140994
0.129815
0.127308
0.115994
0.113514
0.102584
0.100265
0.0903582
0.0884944
0.0814213
0.0815714
0.0883532
0.137344
0.0765846
0.0516043
0.0475334
0.0380019
0.0362282
0.0301718
0.0289834
0.0244435
0.0235316
0.0199154
0.01918
0.0162147
0.0156045
0.0131078
0.0125834
0.010387
0.00990503
0.00779098
0.00728731
0.00485126
0.00457347
0.00452796
0.00442396
0.00358355
0.00334401
0.00203552
0.00168431
-0.000148032
-0.000652579
-0.00332385
-0.00409488
-0.00829256
-0.00958277
-0.0168404
-0.0192991
-0.0337015
-0.0394917
-0.0750802
-0.0950066
-0.227188
-0.517963
-0.41505
-0.602344
-0.666941
-1.08549
-1.03182
-0.121896
-0.0209065
-0.00438834
-54.7416
50.5639
2.57631
1.45359
1.18308
0.713656
0.596699
0.397783
0.345415
0.245773
0.216238
0.146669
0.135548
0.141649
0.141791
0.137109
0.134903
0.126879
0.123928
0.114997
0.111865
0.102818
0.0997199
0.0909826
0.0880872
0.0801908
0.0778804
0.0724136
0.0727438
0.0799568
0.114353
0.069255
0.0471289
0.0418698
0.0340254
0.0317867
0.0269049
0.0254156
0.0217728
0.0206317
0.0177335
0.0168137
0.0144378
0.0136747
0.0116741
0.0110181
0.00925705
0.00865398
0.00695771
0.00633071
0.0044163
0.0040685
0.00399018
0.00385691
0.00318725
0.00288799
0.00183996
0.00140049
-7.06323e-05
-0.000702586
-0.00285078
-0.00381743
-0.00720042
-0.00882074
-0.0146942
-0.0177938
-0.029561
-0.0369321
-0.0667276
-0.0925387
-0.209189
-0.434084
-0.382062
-0.527646
-0.606399
-0.921122
-0.854775
-0.155616
-0.0309015
-0.00673417
-56.5377
53.2109
2.11311
1.29586
1.01968
0.639172
0.515687
0.353389
0.298006
0.216956
0.185883
0.130667
0.118921
0.122549
0.12258
0.118903
0.116598
0.110196
0.107102
0.099946
0.0966584
0.0894039
0.0861511
0.0791473
0.0761095
0.0697999
0.0673927
0.0631739
0.0636409
0.070473
0.0945423
0.0610065
0.0419787
0.0363096
0.0298247
0.027451
0.0235023
0.0219339
0.019002
0.0178021
0.0154724
0.0145057
0.0125964
0.0117943
0.0101865
0.00949689
0.00808077
0.00744664
0.00608165
0.00542559
0.00391867
0.00355274
0.00345458
0.00331129
0.00277612
0.00246191
0.00162005
0.00115792
-2.68078e-05
-0.00069195
-0.00242497
-0.00344334
-0.00617879
-0.00788858
-0.012659
-0.0159418
-0.0255964
-0.0334755
-0.0585343
-0.0864374
-0.186859
-0.361282
-0.34117
-0.455622
-0.536418
-0.771997
-0.703042
-0.166358
-0.0368748
-0.00833435
-58.3335
55.8365
1.70403
1.1165
0.86045
0.554408
0.436227
0.30472
0.251623
0.186139
0.156494
0.112927
0.101678
0.103594
0.103518
0.100643
0.098457
0.0933807
0.0904374
0.0847406
0.0816103
0.0758299
0.0727324
0.0671534
0.0642627
0.0592529
0.0569773
0.0537468
0.0542833
0.0602997
0.0770357
0.0521777
0.0362941
0.0307819
0.0254595
0.0231782
0.0200044
0.0185067
0.0161618
0.0150177
0.0131568
0.0122353
0.0107108
0.00994619
0.00866219
0.00800476
0.0068732
0.00626851
0.00517722
0.0045545
0.00337539
0.00302626
0.00292078
0.00278135
0.00235615
0.00205693
0.00138494
0.000944255
-3.77402e-06
-0.000638606
-0.00202776
-0.00300057
-0.0051982
-0.006834
-0.0106832
-0.0138349
-0.0217028
-0.0293318
-0.0502273
-0.0774352
-0.16157
-0.296261
-0.294895
-0.384944
-0.460247
-0.635053
-0.570019
-0.160812
-0.0388103
-0.00906584
-60.129
58.4419
1.33862
0.923875
0.70322
0.462129
0.357301
0.252913
0.205736
0.153888
0.127662
0.093894
0.0839092
0.0847179
0.0845673
0.0823547
0.0804313
0.0764802
0.0738833
0.0694325
0.0666681
0.0621485
0.0594128
0.055052
0.0525006
0.0485965
0.0466002
0.044169
0.0447065
0.0496976
0.0611927
0.0429898
0.0301947
0.0252467
0.0209726
0.018941
0.0164395
0.0151133
0.0132736
0.0122619
0.0108037
0.00998902
0.00879466
0.00811881
0.0071128
0.00653159
0.00564454
0.00510984
0.00425403
0.00370565
0.0027989
0.00249002
0.00238833
0.00226282
0.00193113
0.00166685
0.00114057
0.000750871
6.7258e-06
-0.000555094
-0.0016472
-0.00250881
-0.00424008
-0.00569089
-0.00873538
-0.0115394
-0.0178188
-0.0246574
-0.0416678
-0.0661561
-0.134258
-0.236682
-0.244964
-0.314856
-0.380095
-0.507703
-0.450762
-0.143777
-0.0370556
-0.00890374
-61.9243
61.0296
1.00743
0.723487
0.546806
0.3644
0.278357
0.198818
0.160036
0.120613
0.0991313
0.0739097
0.0657083
0.0658803
0.0656993
0.0640551
0.0624867
0.0595255
0.0574034
0.0540569
0.0517962
0.0483958
0.0461583
0.0428782
0.0407925
0.0378638
0.0362404
0.0344724
0.0349515
0.0388353
0.0465376
0.0335856
0.0237813
0.0196845
0.016396
0.0147227
0.0128275
0.0117405
0.0103523
0.00952397
0.00842471
0.00775791
0.00685781
0.00630463
0.0055464
0.00507063
0.00440177
0.003964
0.00331854
0.00287113
0.00219848
0.00194549
0.00185683
0.00175254
0.00150341
0.00128724
0.000890735
0.00057166
9.92758e-06
-0.000450375
-0.00127587
-0.00198226
-0.00329318
-0.00448404
-0.00679715
-0.00910493
-0.0139124
-0.0195761
-0.0328092
-0.0531324
-0.105574
-0.18087
-0.192568
-0.244954
-0.297449
-0.387736
-0.341508
-0.118733
-0.0321581
-0.0079058
-63.7192
63.6031
0.701902
0.518809
0.390622
0.262817
0.199152
0.143093
0.114362
0.0866202
0.0707503
0.0532446
0.0471725
0.0470569
0.0468899
0.0457524
0.0445978
0.0425373
0.0409724
0.0386379
0.0369699
0.0345965
0.0329455
0.0306565
0.0291182
0.0270788
0.0258864
0.0246859
0.0250604
0.0278202
0.0327086
0.0240554
0.0171396
0.01409
0.0117547
0.0105132
0.00918321
0.00837974
0.00740861
0.00679685
0.00602846
0.00553613
0.00490707
0.00449864
0.0039687
0.00361739
0.00314975
0.00282646
0.00237512
0.00204561
0.00158128
0.00139438
0.00132595
0.00124805
0.00107437
0.000914844
0.000637796
0.000402152
9.06829e-06
-0.000331052
-0.00090931
-0.00143154
-0.00235109
-0.0032323
-0.00485914
-0.00657043
-0.00997174
-0.0141921
-0.023667
-0.038824
-0.0759751
-0.127601
-0.138545
-0.175048
-0.213291
-0.273229
-0.239316
-0.0882402
-0.0247677
-0.00619498
-65.514
66.1661
0.414169
0.311934
0.234422
0.158667
0.119643
0.0862748
0.068648
0.0521524
0.0424348
0.0321221
0.0283984
0.0282355
0.0281192
0.0274504
0.0267451
0.0255292
0.0245722
0.0231923
0.0221718
0.0207684
0.0197582
0.0184049
0.017464
0.01626
0.0155327
0.0148364
0.0150738
0.01672
0.0194213
0.0144558
0.0103433
0.00846684
0.00706974
0.00630724
0.00551784
0.00502566
0.0044505
0.00407599
0.00362116
0.0033198
0.00294749
0.0026975
0.00238384
0.0021688
0.00189195
0.00169404
0.00142682
0.00122548
0.000952974
0.000838535
0.000795438
0.000747377
0.00064475
0.000547144
0.000383197
0.000238937
6.08771e-06
-0.000202206
-0.000544989
-0.000864924
-0.00141053
-0.00195074
-0.00291775
-0.00396833
-0.00599833
-0.00859785
-0.0142975
-0.0236359
-0.0457975
-0.0759596
-0.0834995
-0.105073
-0.128266
-0.162476
-0.14181
-0.0542435
-0.0155813
-0.00394249
-67.3085
68.7228
0.136905
0.10407
0.0781514
0.0530486
0.0399086
0.0288269
0.0228888
0.0174135
0.0141431
0.0107361
0.00948194
0.0094122
0.00937069
0.00914993
0.00891283
0.00851081
0.00818894
0.00773228
0.00738898
0.00692445
0.00658463
0.00613671
0.00582024
0.00542204
0.00517779
0.00494961
0.0050308
0.00557755
0.00644069
0.00482198
0.00345752
0.00282452
0.00235936
0.00210235
0.00184056
0.00167489
0.00148436
0.00135834
0.00120771
0.00110631
0.00098302
0.000898904
0.000795034
0.000722676
0.000630984
0.000564389
0.000475886
0.0004082
0.000318343
0.000279829
0.000265126
0.00024889
0.000214932
0.000182096
0.000127809
7.92647e-05
2.12327e-06
-6.79818e-05
-0.000181584
-0.000289284
-0.00047019
-0.000652099
-0.000973026
-0.00132706
-0.00200214
-0.00287962
-0.0047825
-0.00793479
-0.0152999
-0.0252232
-0.0278928
-0.0350327
-0.0428
-0.0539178
-0.0469799
-0.0182907
-0.00531396
-0.00135237
-69.1028
68.7146
0.150884
0.128426
0.107467
0.0852097
0.0726948
0.0607368
0.0533353
0.0448802
0.0387612
0.0310047
0.0281937
0.0283071
0.0282057
0.0273724
0.0264748
0.0249594
0.023773
0.0221293
0.020936
0.01938
0.0182848
0.0168983
0.0159528
0.0148081
0.0141316
0.0135419
0.0138404
0.0155203
0.018108
0.0137305
0.0100729
0.00839346
0.00718216
0.00651578
0.00583711
0.00540396
0.00489968
0.00456137
0.00415015
0.00386879
0.00352032
0.00327829
0.00297329
0.00275595
0.0024733
0.00226055
0.00196674
0.00173085
0.00140824
0.00129545
0.00131333
0.00131517
0.00128247
0.0012439
0.00117609
0.00112193
0.00104556
0.000988876
0.000912922
0.00085608
0.000777949
0.000712436
0.000609292
0.000495201
0.000269194
-7.41841e-05
-0.000891311
-0.00242989
-0.006216
-0.0117836
-0.0150678
-0.0220536
-0.0294885
-0.0404327
-0.0360465
-0.0140873
-0.00409749
-0.00104313
-69.8075
66.1412
0.456022
0.385217
0.322452
0.255239
0.218062
0.182028
0.160048
0.134547
0.116349
0.0928163
0.084464
0.08493
0.0846464
0.0821199
0.079449
0.0748651
0.0713373
0.0663699
0.0628226
0.0581217
0.054866
0.0506772
0.0478663
0.0444055
0.0423912
0.0405902
0.041466
0.0465245
0.0546026
0.0411628
0.0301397
0.0251617
0.0215247
0.0195479
0.0175015
0.0162147
0.0146924
0.013687
0.0124453
0.0116091
0.0105567
0.00983739
0.00891637
0.00827048
0.00741711
0.0067849
0.00589791
0.00519603
0.00421632
0.00388113
0.00394063
0.00394689
0.00384764
0.00373288
0.00352773
0.00336669
0.0031359
0.0029674
0.00273801
0.0025691
0.00233335
0.00213882
0.00182832
0.00149008
0.00081228
-0.000203599
-0.00264507
-0.00719977
-0.0185767
-0.0354422
-0.0450555
-0.0661429
-0.0883251
-0.121911
-0.108842
-0.0417832
-0.012015
-0.00304106
-69.4223
63.5605
0.771353
0.641687
0.537616
0.424068
0.363384
0.302757
0.266902
0.223922
0.19415
0.154021
0.140382
0.141583
0.141177
0.136873
0.1325
0.124729
0.118959
0.110554
0.104755
0.0968056
0.0914845
0.084401
0.0798059
0.0739451
0.0706423
0.0675314
0.0689242
0.077408
0.091958
0.0684985
0.0499647
0.0418762
0.0358008
0.0325827
0.0291356
0.027035
0.0244645
0.0228222
0.0207242
0.019358
0.0175798
0.0164046
0.0148485
0.0137933
0.0123521
0.0113195
0.00982169
0.00867233
0.00699864
0.00645103
0.00657008
0.00658285
0.00641345
0.00622549
0.00587762
0.00561425
0.00522377
0.00494838
0.00456068
0.0042848
0.0038871
0.00356984
0.00304846
0.00249856
0.0013689
-0.000275978
-0.00431429
-0.0116967
-0.0307179
-0.0593909
-0.0745841
-0.110188
-0.146706
-0.205256
-0.183798
-0.0679875
-0.0191008
-0.00477874
-69.0371
60.9676
1.10395
0.897133
0.753158
0.590781
0.508703
0.422496
0.37404
0.312769
0.272366
0.214166
0.195706
0.1983
0.197863
0.191629
0.185687
0.174512
0.166686
0.154633
0.146774
0.135384
0.128174
0.118025
0.111796
0.103382
0.0988858
0.0942926
0.0960989
0.108049
0.130834
0.0956373
0.069372
0.0585104
0.0499628
0.0456268
0.0407158
0.0378741
0.0341995
0.0319756
0.0289738
0.0271235
0.0245788
0.022987
0.0207605
0.0193317
0.0172708
0.0158727
0.0137316
0.0121696
0.00973593
0.00899428
0.0092038
0.00922611
0.00898002
0.00872452
0.00822416
0.00786692
0.00730705
0.00693386
0.00637891
0.00600539
0.00543766
0.00500906
0.00426976
0.00353024
0.00194615
-0.000252601
-0.00584972
-0.0157281
-0.042473
-0.0838787
-0.103296
-0.154197
-0.204205
-0.291801
-0.262528
-0.0915148
-0.024804
-0.0060988
-68.6517
58.3583
1.46131
1.15007
0.969437
0.754283
0.654187
0.540724
0.481691
0.40078
0.351293
0.272721
0.250187
0.255138
0.254781
0.246374
0.239083
0.224161
0.214583
0.198545
0.188934
0.173796
0.16498
0.151493
0.143874
0.132663
0.127133
0.120798
0.122868
0.138257
0.172029
0.122419
0.0881632
0.075052
0.0639563
0.058694
0.0522134
0.0487465
0.0438765
0.0411602
0.0371775
0.0349168
0.0315398
0.0295949
0.0266408
0.0248953
0.022163
0.0204556
0.0176183
0.0157018
0.0124056
0.0114995
0.011845
0.0118801
0.011547
0.0112334
0.010565
0.0101277
0.00938289
0.00892665
0.0081899
0.00773378
0.00698269
0.00646072
0.0054911
0.00459573
0.00254801
-9.32612e-05
-0.00721386
-0.0190848
-0.0536415
-0.109246
-0.130749
-0.198242
-0.2602
-0.383021
-0.346927
-0.11087
-0.028587
-0.00686913
-68.2662
55.7287
1.85141
1.39777
1.1871
0.913182
0.800207
0.656775
0.590217
0.487535
0.431384
0.329034
0.30357
0.312189
0.312022
0.301073
0.292784
0.273597
0.262738
0.2422
0.231316
0.211955
0.201974
0.184726
0.176095
0.161717
0.155413
0.146967
0.149104
0.167729
0.21656
0.148586
0.106109
0.0915131
0.0777166
0.07181
0.0635904
0.0596752
0.0534675
0.0503955
0.0453124
0.0427548
0.0384436
0.0362433
0.0324727
0.0304985
0.0270142
0.0250838
0.0214683
0.0192893
0.0149797
0.0139547
0.0144987
0.0145489
0.0141133
0.0137565
0.0128966
0.0124009
0.0114472
0.0109307
0.0099897
0.009474
0.00851858
0.00793033
0.0067095
0.00570735
0.00317364
0.000245288
-0.00838795
-0.021534
-0.0639681
-0.135977
-0.156362
-0.242507
-0.313761
-0.480597
-0.439324
-0.124074
-0.0299473
-0.00699476
-67.8804
53.0759
2.28287
1.63576
1.40729
1.06564
0.947444
0.769752
0.700189
0.572429
0.513323
0.382273
0.355589
0.369592
0.369693
0.355667
0.346921
0.3227
0.31128
0.285469
0.274036
0.249739
0.239258
0.217615
0.208547
0.190447
0.183779
0.172713
0.174682
0.195993
0.265763
0.173734
0.122939
0.107942
0.0911614
0.0850186
0.0747955
0.0706957
0.0629331
0.0597114
0.0533463
0.0506631
0.045263
0.0429545
0.0382329
0.0361622
0.0318034
0.0297795
0.0252609
0.022962
0.0174224
0.0163472
0.0171722
0.0172372
0.0166764
0.0162997
0.0152138
0.0146924
0.0134941
0.0129518
0.0117725
0.0112319
0.0100398
0.00942528
0.00791919
0.00688027
0.0038151
0.000812078
-0.00938147
-0.0228116
-0.0731115
-0.164773
-0.179344
-0.287369
-0.363498
-0.586498
-0.54268
-0.128433
-0.0284607
-0.00643091
-67.4943
50.3985
2.76484
1.85701
1.632
1.20917
1.09706
0.878403
0.812488
0.654576
0.59814
0.431336
0.405981
0.42755
0.42793
0.410049
0.401678
0.371291
0.360398
0.328163
0.317272
0.28697
0.276989
0.25
0.24136
0.218721
0.21232
0.197938
0.199485
0.22232
0.321439
0.197233
0.138338
0.124443
0.104181
0.0983906
0.0857557
0.0818628
0.0722172
0.0691532
0.0612331
0.0586802
0.0519588
0.0497624
0.0438872
0.0419175
0.0364993
0.0345751
0.0289647
0.0267645
0.0196866
0.0186638
0.0198762
0.0199506
0.0192322
0.0188714
0.0175083
0.017011
0.0155149
0.0149984
0.0135299
0.0130158
0.011538
0.0109559
0.00911025
0.00813429
0.00445413
0.00166654
-0.0102455
-0.0226144
-0.0806004
-0.196652
-0.198588
-0.333505
-0.40736
-0.703071
-0.660854
-0.120221
-0.0238563
-0.00519658
-67.1081
47.6973
3.30683
2.05094
1.86463
1.34026
1.25094
0.980944
0.928467
0.732665
0.687371
0.474742
0.454496
0.486356
0.486897
0.464052
0.457315
0.419103
0.41037
0.370003
0.361283
0.323389
0.315401
0.281652
0.274733
0.246345
0.241182
0.222525
0.223437
0.245595
0.386047
0.21812
0.151937
0.141199
0.116621
0.112037
0.0963664
0.0932602
0.0812382
0.0787893
0.0689054
0.0668641
0.0584738
0.0567176
0.0493853
0.0478109
0.0410555
0.0395182
0.0325323
0.0307621
0.0217087
0.020891
0.0226257
0.0226958
0.0217738
0.0214833
0.0197684
0.0193697
0.0174965
0.0170831
0.0152491
0.0148384
0.0130004
0.0125372
0.0102666
0.00949654
0.0050575
0.00288604
-0.0110911
-0.0205924
-0.0857665
-0.233096
-0.212513
-0.382085
-0.442347
-0.833161
-0.798964
-0.0942386
-0.0161438
-0.00338657
-66.7217
44.9769
3.91824
2.20209
2.11078
1.45396
1.41205
1.07478
1.05018
0.804733
0.783296
0.510453
0.500926
0.546415
0.5468
0.51741
0.514211
0.465735
0.461607
0.410578
0.406462
0.358611
0.354843
0.312231
0.308964
0.273041
0.270583
0.24633
0.24654
0.264138
0.462992
0.234937
0.163318
0.158509
0.128263
0.126126
0.106475
0.105014
0.0898765
0.088723
0.0762641
0.0753021
0.0647235
0.0638959
0.0546533
0.0539116
0.0454031
0.0446794
0.0358913
0.0350511
0.0234014
0.0230162
0.0254419
0.0254807
0.0242902
0.0241522
0.0219759
0.0217874
0.0194197
0.0192247
0.0169115
0.0167181
0.0144079
0.0141908
0.0113629
0.0110056
0.00557024
0.00457783
-0.0121157
-0.0163434
-0.0876462
-0.276256
-0.218831
-0.435036
-0.464113
-0.980251
-0.963894
-0.0431906
-0.0058177
-0.00117776
-66.3352
44.9769
3.91824
2.20209
2.11078
1.45396
1.41205
1.07478
1.05018
0.804733
0.783296
0.510453
0.500926
0.546415
0.5468
0.51741
0.514211
0.465735
0.461607
0.410578
0.406463
0.358612
0.354843
0.312231
0.308965
0.273041
0.270583
0.246331
0.24654
0.264139
0.462993
0.234938
0.163318
0.158509
0.128263
0.126126
0.106475
0.105015
0.0898767
0.0887232
0.0762643
0.0753024
0.0647237
0.0638961
0.0546535
0.0539118
0.0454033
0.0446795
0.0358914
0.0350512
0.0234015
0.0230162
0.025442
0.0254808
0.0242904
0.0241523
0.021976
0.0217875
0.0194199
0.0192249
0.0169116
0.0167182
0.0144081
0.0141909
0.011363
0.0110057
0.00557035
0.00457794
-0.0121156
-0.0163432
-0.087646
-0.276256
-0.218831
-0.435035
-0.464112
-0.980251
-0.963894
-0.0431906
-0.00581769
-0.00117779
-66.3352
47.6973
3.30683
2.05094
1.86463
1.34026
1.25094
0.980944
0.928467
0.732665
0.687371
0.474742
0.454496
0.486356
0.486897
0.464052
0.457315
0.419103
0.41037
0.370003
0.361284
0.323389
0.315401
0.281652
0.274733
0.246345
0.241182
0.222526
0.223438
0.245595
0.386048
0.21812
0.151937
0.141199
0.116622
0.112037
0.0963667
0.0932605
0.0812385
0.0787895
0.0689056
0.0668643
0.058474
0.0567178
0.0493855
0.0478111
0.0410557
0.0395184
0.0325324
0.0307622
0.0217088
0.0208911
0.0226258
0.0226959
0.0217739
0.0214834
0.0197685
0.0193698
0.0174966
0.0170832
0.0152492
0.0148385
0.0130005
0.0125373
0.0102667
0.00949664
0.00505761
0.00288614
-0.011091
-0.0205923
-0.0857663
-0.233096
-0.212512
-0.382084
-0.442347
-0.833161
-0.798963
-0.0942385
-0.0161438
-0.00338659
-66.7217
50.3984
2.76484
1.85701
1.632
1.20917
1.09706
0.878402
0.812488
0.654576
0.59814
0.431336
0.405981
0.42755
0.42793
0.41005
0.401678
0.371291
0.360398
0.328163
0.317272
0.28697
0.27699
0.250001
0.24136
0.218721
0.212321
0.197938
0.199485
0.22232
0.321439
0.197234
0.138338
0.124444
0.104181
0.0983909
0.0857559
0.0818631
0.0722174
0.0691534
0.0612334
0.0586804
0.051959
0.0497626
0.0438874
0.0419177
0.0364994
0.0345752
0.0289648
0.0267646
0.0196867
0.0186638
0.0198763
0.0199507
0.0192323
0.0188715
0.0175085
0.0170111
0.015515
0.0149985
0.01353
0.0130159
0.0115381
0.010956
0.00911034
0.00813439
0.00445422
0.00166663
-0.0102454
-0.0226143
-0.0806002
-0.196652
-0.198588
-0.333505
-0.407359
-0.703071
-0.660853
-0.120221
-0.0238563
-0.00519656
-67.1081
53.0759
2.28287
1.63576
1.40728
1.06564
0.947444
0.769751
0.700189
0.572429
0.513323
0.382273
0.355589
0.369592
0.369693
0.355667
0.346921
0.3227
0.31128
0.285469
0.274037
0.249739
0.239258
0.217615
0.208547
0.190448
0.183779
0.172713
0.174682
0.195994
0.265764
0.173735
0.122939
0.107943
0.0911616
0.0850189
0.0747957
0.0706959
0.0629333
0.0597116
0.0533465
0.0506633
0.0452631
0.0429547
0.0382331
0.0361624
0.0318035
0.0297796
0.025261
0.0229621
0.0174225
0.0163473
0.0171723
0.0172373
0.0166765
0.0162998
0.0152138
0.0146925
0.0134942
0.0129519
0.0117726
0.0112319
0.0100399
0.00942536
0.00791928
0.00688035
0.00381518
0.000812157
-0.00938138
-0.0228116
-0.0731114
-0.164773
-0.179344
-0.287368
-0.363497
-0.586498
-0.54268
-0.128433
-0.0284606
-0.00643085
-67.4943
55.7287
1.85141
1.39777
1.1871
0.913182
0.800206
0.656775
0.590217
0.487535
0.431384
0.329034
0.30357
0.312189
0.312022
0.301074
0.292784
0.273597
0.262738
0.2422
0.231316
0.211955
0.201974
0.184726
0.176095
0.161717
0.155413
0.146967
0.149105
0.167729
0.21656
0.148587
0.106109
0.0915134
0.0777168
0.0718102
0.0635906
0.0596754
0.0534676
0.0503957
0.0453126
0.042755
0.0384437
0.0362434
0.0324729
0.0304986
0.0270143
0.0250839
0.0214684
0.0192894
0.0149797
0.0139548
0.0144988
0.014549
0.0141133
0.0137565
0.0128967
0.0124009
0.0114473
0.0109308
0.00998978
0.00947407
0.00851865
0.0079304
0.00670957
0.00570742
0.00317371
0.000245352
-0.00838788
-0.021534
-0.063968
-0.135977
-0.156362
-0.242507
-0.31376
-0.480597
-0.439324
-0.124074
-0.0299473
-0.00699468
-67.8804
58.3583
1.4613
1.15007
0.969436
0.754283
0.654187
0.540724
0.481691
0.40078
0.351293
0.272721
0.250187
0.255139
0.254781
0.246374
0.239083
0.224162
0.214583
0.198545
0.188935
0.173796
0.16498
0.151493
0.143874
0.132663
0.127133
0.120798
0.122868
0.138257
0.17203
0.122419
0.0881634
0.0750522
0.0639565
0.0586942
0.0522135
0.0487467
0.0438766
0.0411603
0.0371776
0.0349169
0.0315399
0.0295951
0.0266409
0.0248954
0.0221631
0.0204557
0.0176184
0.0157019
0.0124056
0.0114996
0.0118451
0.0118802
0.0115471
0.0112334
0.0105651
0.0101278
0.00938295
0.00892671
0.00818996
0.00773384
0.00698274
0.00646078
0.00549116
0.00459579
0.00254806
-9.32115e-05
-0.00721381
-0.0190848
-0.0536415
-0.109246
-0.130749
-0.198241
-0.2602
-0.383021
-0.346926
-0.11087
-0.0285869
-0.00686904
-68.2662
60.9676
1.10395
0.897133
0.753158
0.590781
0.508703
0.422496
0.37404
0.312768
0.272366
0.214166
0.195706
0.1983
0.197863
0.191629
0.185687
0.174512
0.166687
0.154633
0.146774
0.135385
0.128174
0.118026
0.111796
0.103382
0.098886
0.0942927
0.0960991
0.108049
0.130834
0.0956376
0.0693722
0.0585105
0.0499629
0.0456269
0.0407159
0.0378742
0.0341996
0.0319757
0.0289739
0.0271236
0.0245789
0.0229871
0.0207606
0.0193317
0.0172708
0.0158727
0.0137316
0.0121697
0.00973597
0.00899431
0.00920383
0.00922615
0.00898007
0.00872457
0.0082242
0.00786696
0.00730709
0.00693391
0.00637895
0.00600543
0.00543771
0.0050091
0.00426981
0.00353028
0.00194619
-0.000252565
-0.00584968
-0.0157281
-0.0424729
-0.0838786
-0.103296
-0.154197
-0.204204
-0.291801
-0.262527
-0.0915146
-0.024804
-0.0060987
-68.6517
63.5605
0.771352
0.641687
0.537616
0.424068
0.363384
0.302757
0.266902
0.223922
0.19415
0.154021
0.140382
0.141583
0.141177
0.136873
0.1325
0.124729
0.118959
0.110554
0.104755
0.0968057
0.0914846
0.0844011
0.0798059
0.0739451
0.0706424
0.0675315
0.0689243
0.0774081
0.0919582
0.0684987
0.0499649
0.0418764
0.0358009
0.0325828
0.0291357
0.0270351
0.0244646
0.0228223
0.0207242
0.0193581
0.0175799
0.0164046
0.0148485
0.0137934
0.0123521
0.0113195
0.00982173
0.00867236
0.00699866
0.00645105
0.0065701
0.00658287
0.00641348
0.00622552
0.00587765
0.00561428
0.0052238
0.00494841
0.00456071
0.00428483
0.00388714
0.00356987
0.00304849
0.00249859
0.00136893
-0.000275955
-0.00431427
-0.0116967
-0.0307179
-0.0593908
-0.074584
-0.110188
-0.146705
-0.205256
-0.183798
-0.0679874
-0.0191008
-0.00477865
-69.0371
66.1412
0.456021
0.385217
0.322452
0.255239
0.218062
0.182028
0.160048
0.134547
0.116349
0.0928163
0.084464
0.08493
0.0846464
0.0821199
0.079449
0.0748651
0.0713373
0.06637
0.0628227
0.0581218
0.054866
0.0506772
0.0478664
0.0444055
0.0423912
0.0405902
0.041466
0.0465246
0.0546028
0.041163
0.0301398
0.0251617
0.0215247
0.0195479
0.0175016
0.0162148
0.0146924
0.0136871
0.0124453
0.0116091
0.0105568
0.00983742
0.0089164
0.00827051
0.00741714
0.00678493
0.00589793
0.00519605
0.00421634
0.00388114
0.00394065
0.00394691
0.00384766
0.0037329
0.00352775
0.00336671
0.00313592
0.00296742
0.00273803
0.00256911
0.00233336
0.00213883
0.00182833
0.0014901
0.000812295
-0.000203586
-0.00264506
-0.00719976
-0.0185767
-0.0354422
-0.0450554
-0.0661428
-0.088325
-0.121911
-0.108842
-0.0417832
-0.012015
-0.003041
-69.4223
68.7146
0.150884
0.128426
0.107467
0.0852097
0.0726948
0.0607368
0.0533353
0.0448802
0.0387612
0.0310047
0.0281937
0.0283071
0.0282057
0.0273724
0.0264748
0.0249594
0.023773
0.0221293
0.0209361
0.0193801
0.0182848
0.0168983
0.0159528
0.0148081
0.0141316
0.0135419
0.0138404
0.0155203
0.018108
0.0137306
0.010073
0.00839348
0.00718218
0.0065158
0.00583713
0.00540398
0.00489969
0.00456138
0.00415016
0.00386881
0.00352033
0.0032783
0.0029733
0.00275596
0.00247331
0.00226056
0.00196675
0.00173086
0.00140824
0.00129545
0.00131333
0.00131517
0.00128247
0.00124391
0.0011761
0.00112194
0.00104557
0.000988882
0.000912928
0.000856086
0.000777955
0.000712441
0.000609297
0.000495206
0.000269199
-7.41803e-05
-0.000891308
-0.00242989
-0.006216
-0.0117836
-0.0150678
-0.0220536
-0.0294885
-0.0404327
-0.0360465
-0.0140873
-0.00409748
-0.00104311
-69.8075
68.7223
0.136737
0.103792
0.077758
0.0524413
0.0390528
0.0275024
0.021089
0.0150022
0.0125848
0.011923
0.011573
0.0110198
0.0105817
0.00996778
0.00952179
0.00893939
0.00852134
0.00797804
0.00758701
0.00707734
0.00671188
0.00623866
0.00590746
0.00549431
0.00524145
0.00500501
0.00508337
0.00563145
0.00650009
0.00486492
0.0034869
0.00284768
0.00237805
0.00211865
0.00185453
0.00168742
0.0014953
0.00136825
0.00121643
0.00111424
0.00099001
0.000905265
0.000800635
0.000727757
0.000635418
0.000568362
0.000479255
0.000411111
0.000320656
0.000281915
0.000267195
0.000250932
0.000216883
0.000183959
0.000129533
8.08819e-05
3.59664e-06
-6.6611e-05
-0.000180345
-0.000288136
-0.000469157
-0.000651144
-0.000972169
-0.00132627
-0.00200143
-0.00287896
-0.00478188
-0.00793419
-0.0152993
-0.0252224
-0.0278922
-0.0350323
-0.0427998
-0.0539176
-0.0469798
-0.0182906
-0.00531394
-0.00135232
-69.1028
66.1649
0.413667
0.3111
0.233245
0.156847
0.117085
0.0823016
0.0632538
0.0448598
0.0376843
0.0357565
0.0347271
0.0330548
0.0317521
0.0298966
0.0285708
0.0268116
0.025569
0.023928
0.0227658
0.0212262
0.0201399
0.0187103
0.0177256
0.0164765
0.0157237
0.0150024
0.0152313
0.0168815
0.0196004
0.0145845
0.0104312
0.00853624
0.00712575
0.00635615
0.0055597
0.00506326
0.00448329
0.00410573
0.00364729
0.00334359
0.00296845
0.00271659
0.00240063
0.00218405
0.00190524
0.00170597
0.00143692
0.00123423
0.000959898
0.000844783
0.000801647
0.000753506
0.000650603
0.000552735
0.000388366
0.00024379
1.05063e-05
-0.000198092
-0.000541273
-0.00086148
-0.00140743
-0.00194787
-0.00291518
-0.00396596
-0.00599619
-0.00859586
-0.0142957
-0.023634
-0.0457956
-0.0759574
-0.0834979
-0.105072
-0.128265
-0.162475
-0.141809
-0.0542433
-0.0155812
-0.00394238
-67.3085
63.601
0.701066
0.517419
0.388675
0.259787
0.194918
0.136471
0.105393
0.0742687
0.0625738
0.0595541
0.057907
0.0550751
0.0529446
0.0498043
0.0476372
0.0446631
0.0426326
0.0398588
0.0379596
0.035357
0.0335817
0.0311641
0.0295544
0.0274388
0.0262047
0.0249619
0.0253224
0.0280888
0.0330101
0.0242695
0.0172851
0.0142054
0.0118478
0.0105947
0.00925286
0.00844243
0.00746319
0.00684644
0.00607196
0.0055758
0.00494195
0.00453047
0.00399665
0.00364282
0.00317188
0.00284636
0.00239194
0.0020602
0.00159277
0.00140477
0.0013363
0.00125827
0.00108412
0.00092417
0.000646406
0.000410245
1.6427e-05
-0.000324192
-0.000903122
-0.00142579
-0.00234593
-0.00322752
-0.00485486
-0.00656647
-0.00996818
-0.0141888
-0.0236639
-0.038821
-0.0759719
-0.127597
-0.138542
-0.175047
-0.21329
-0.273228
-0.239315
-0.0882399
-0.0247676
-0.00619482
-65.5139
61.0267
1.00627
0.721541
0.544109
0.360166
0.272494
0.189546
0.147533
0.1029
0.0871164
0.0832967
0.0811342
0.0770673
0.0741775
0.069673
0.0667358
0.0624769
0.059726
0.0557547
0.0531816
0.0494547
0.0470492
0.0435856
0.0414034
0.0383659
0.036686
0.0348571
0.0353172
0.0392099
0.0469663
0.0338843
0.0239828
0.0198457
0.0165257
0.0148368
0.0129248
0.0118283
0.0104286
0.00959346
0.00848549
0.0078135
0.00690655
0.00634924
0.00558547
0.00510628
0.0044327
0.0039919
0.00334204
0.0028916
0.00221446
0.00195997
0.00187133
0.00176687
0.00151706
0.00130031
0.000902779
0.000583004
2.02169e-05
-0.000440762
-0.00126722
-0.00197421
-0.00328597
-0.00447735
-0.00679117
-0.00909938
-0.0139074
-0.0195715
-0.0328049
-0.0531282
-0.105569
-0.180864
-0.192564
-0.244952
-0.297447
-0.387734
-0.341507
-0.118732
-0.0321579
-0.00790562
-63.7192
58.4382
1.33713
0.921372
0.699805
0.456694
0.349881
0.240984
0.189778
0.130378
0.11118
0.106973
0.104438
0.0990124
0.0954749
0.089479
0.0858874
0.0802304
0.0768681
0.0715946
0.0684497
0.0634995
0.060559
0.0559559
0.0532866
0.0492387
0.0471732
0.0446609
0.0451747
0.0501765
0.061756
0.0433718
0.0304499
0.0254533
0.0211383
0.0190878
0.016564
0.0152264
0.0133714
0.0123514
0.0108816
0.0100606
0.00885715
0.00817626
0.00716289
0.00657749
0.00568419
0.00514579
0.00428415
0.00373207
0.00281924
0.00250854
0.00240698
0.00228129
0.00194868
0.00168368
0.00115604
0.000765478
1.99305e-05
-0.000542716
-0.00163611
-0.00249844
-0.00423083
-0.00568228
-0.0087277
-0.0115323
-0.0178124
-0.0246514
-0.0416623
-0.0661507
-0.134252
-0.236675
-0.244959
-0.314853
-0.380093
-0.507702
-0.450761
-0.143777
-0.0370554
-0.00890356
-61.9243
55.832
1.70223
1.11344
0.856362
0.547771
0.427352
0.290114
0.232351
0.156248
0.134645
0.130583
0.127857
0.120882
0.116871
0.109189
0.105121
0.0978921
0.0940867
0.0873493
0.0837901
0.0774639
0.0741353
0.0682488
0.0652249
0.0600321
0.0576783
0.0543435
0.0548527
0.0608799
0.0777442
0.0526408
0.0365999
0.0310336
0.0256603
0.0233578
0.0201558
0.0186451
0.0162807
0.0151273
0.0132517
0.012323
0.0107868
0.0100166
0.00872317
0.00806102
0.00692148
0.00631261
0.00521388
0.00458695
0.00339992
0.00304873
0.0029436
0.00280397
0.00237759
0.00207755
0.0014038
0.000962147
1.2323e-05
-0.000623445
-0.00201423
-0.00298787
-0.00518693
-0.00682345
-0.0106739
-0.0138262
-0.0216951
-0.0293245
-0.0502206
-0.0774287
-0.161563
-0.296252
-0.294889
-0.38494
-0.460244
-0.635051
-0.570017
-0.160811
-0.0388102
-0.00906568
-60.129
53.2057
2.11102
1.29223
1.01498
0.63132
0.505495
0.336065
0.275658
0.179938
0.157407
0.154139
0.151445
0.142633
0.138413
0.128754
0.124482
0.115417
0.111423
0.102977
0.099241
0.0913084
0.0878138
0.0804271
0.0772499
0.070712