/*--------------------------------*- C++ -*----------------------------------*\
| =========                 |                                                 |
| \\      /  F ield         | OpenFOAM: The Open Source CFD Toolbox           |
|  \\    /   O peration     | Version:  5.x                                   |
|   \\  /    A nd           | Web:      www.OpenFOAM.org                      |
|    \\/     M anipulation  |                                                 |
\*---------------------------------------------------------------------------*/
FoamFile
{
    version     2.0;
    format      ascii;
    class       volScalarField;
    location    "11";
    object      T;
}
// * * * * * * * * * * * * * * * * * * * * * * * * * * * * * * * * * * * * * //

dimensions      [0 0 0 1 0 0 0];

internalField   nonuniform List<scalar> 
3200
(
2.08502
2.43616
2.45619
2.60103
2.6102
2.68252
2.68734
2.72919
2.73206
2.75857
2.76033
2.77566
2.777
2.79373
2.79509
2.81104
2.81232
2.827
2.82816
2.84142
2.84247
2.85431
2.85524
2.86569
2.86651
2.87571
2.87644
2.88472
2.88546
2.89423
2.90193
2.90248
2.90745
2.90782
2.91162
2.9119
2.91494
2.91517
2.91764
2.91783
2.91984
2.91999
2.92163
2.92175
2.92307
2.92317
2.92422
2.9243
2.92508
2.92513
2.9256
2.92563
2.9261
2.92614
2.9265
2.92652
2.92672
2.92672
2.92669
2.92667
2.9263
2.92625
2.92535
2.92524
2.92343
2.9232
2.91961
2.91912
2.91121
2.90982
2.88732
2.84806
2.84368
2.77987
2.77235
2.65299
2.64804
2.64741
2.64728
2.64726
2.26048
2.52914
2.57099
2.68686
2.70643
2.76427
2.77453
2.8079
2.814
2.83508
2.83882
2.85111
2.85397
2.86721
2.87009
2.88273
2.88544
2.89707
2.89954
2.91005
2.91227
2.92165
2.92362
2.9319
2.93364
2.94094
2.94249
2.94908
2.95065
2.95792
2.96439
2.96558
2.96955
2.97033
2.97335
2.97395
2.97636
2.97685
2.97881
2.9792
2.9808
2.98112
2.98242
2.98268
2.98373
2.98394
2.98477
2.98493
2.98555
2.98566
2.98603
2.98612
2.98649
2.98656
2.98685
2.98689
2.98705
2.98706
2.98703
2.987
2.9867
2.98659
2.98587
2.98563
2.98419
2.9837
2.98082
2.97975
2.97331
2.97025
2.95059
2.91845
2.90909
2.85822
2.84239
2.74967
2.73921
2.73748
2.73712
2.73704
2.4252
2.63119
2.68283
2.77655
2.80114
2.84791
2.86081
2.88769
2.89535
2.91227
2.91697
2.92694
2.93053
2.9411
2.94471
2.95481
2.9582
2.9675
2.97059
2.979
2.98178
2.98928
2.99175
2.99838
3.00056
3.0064
3.00834
3.01364
3.01562
3.02164
3.02705
3.02856
3.03177
3.03275
3.03517
3.03593
3.03786
3.03847
3.04004
3.04053
3.04181
3.04221
3.04325
3.04358
3.04442
3.04468
3.04535
3.04555
3.04604
3.04618
3.04648
3.04659
3.04688
3.04697
3.0472
3.04726
3.04739
3.0474
3.04738
3.04733
3.04709
3.04695
3.04637
3.04607
3.0449
3.04429
3.04195
3.0406
3.03528
3.03134
3.01436
2.98793
2.97615
2.93517
2.91551
2.84306
2.83003
2.8275
2.82694
2.82682
2.58167
2.73942
2.79298
2.869
2.89495
2.93292
2.94652
2.96826
2.97632
2.98995
2.99491
3.00302
3.0068
3.01528
3.01906
3.02717
3.03072
3.03819
3.04143
3.04818
3.05109
3.05712
3.05971
3.06504
3.06732
3.07202
3.07406
3.07833
3.08042
3.08538
3.08988
3.09148
3.09408
3.09511
3.09706
3.09786
3.09941
3.10005
3.10131
3.10183
3.10286
3.10328
3.10412
3.10446
3.10513
3.10541
3.10594
3.10615
3.10655
3.1067
3.10694
3.10705
3.10729
3.10738
3.10757
3.10763
3.10773
3.10775
3.10773
3.10768
3.10748
3.10733
3.10686
3.10654
3.1056
3.10495
3.10304
3.1016
3.09719
3.09296
3.0785
3.05683
3.04438
3.01127
2.99074
2.93407
2.92044
2.91743
2.91675
2.9166
2.73184
2.85181
2.90224
2.96346
2.98829
3.0189
3.03191
3.04937
3.05707
3.06798
3.07272
3.07928
3.08289
3.08964
3.09324
3.0997
3.10309
3.10904
3.11213
3.11751
3.12029
3.1251
3.12756
3.13181
3.13399
3.13774
3.13969
3.14311
3.14512
3.14914
3.15282
3.15436
3.15645
3.15744
3.15899
3.15976
3.161
3.16161
3.16261
3.16311
3.16393
3.16433
3.165
3.16533
3.16586
3.16613
3.16655
3.16675
3.16707
3.16721
3.16741
3.16751
3.1677
3.16779
3.16793
3.168
3.16807
3.16809
3.16807
3.16803
3.16787
3.16773
3.16735
3.16704
3.16628
3.16566
3.16411
3.16273
3.15909
3.15498
3.14293
3.12536
3.11344
3.08686
3.06742
3.02336
3.01042
3.00728
3.00653
3.00637
2.8772
2.96698
3.01107
3.05937
3.08139
3.10558
3.11712
3.13087
3.13769
3.14626
3.15046
3.15565
3.15885
3.16412
3.16731
3.17236
3.17535
3.18001
3.18274
3.18695
3.1894
3.19317
3.19535
3.19867
3.2006
3.20353
3.20526
3.20795
3.20973
3.21292
3.21585
3.21722
3.21886
3.21974
3.22096
3.22163
3.22261
3.22315
3.22393
3.22437
3.22501
3.22537
3.22589
3.22618
3.2266
3.22684
3.22717
3.22735
3.22759
3.22772
3.22787
3.22797
3.22811
3.22819
3.22831
3.22836
3.22842
3.22844
3.22842
3.22838
3.22826
3.22813
3.22783
3.22756
3.22696
3.22641
3.22518
3.22394
3.22101
3.21732
3.20758
3.19366
3.18309
3.16217
3.14508
3.1114
3.1
3.09702
3.0963
3.09613
3.01898
3.08398
3.11972
3.15633
3.1744
3.19277
3.20224
3.21265
3.21824
3.22472
3.22816
3.23211
3.23473
3.2387
3.2413
3.2451
3.24755
3.25105
3.25329
3.25646
3.25847
3.2613
3.26308
3.26559
3.26716
3.26937
3.27079
3.27282
3.27428
3.2767
3.27893
3.28006
3.28131
3.28203
3.28295
3.2835
3.28423
3.28468
3.28527
3.28563
3.28611
3.2864
3.2868
3.28704
3.28735
3.28754
3.28779
3.28794
3.28812
3.28823
3.28834
3.28842
3.28853
3.2886
3.28868
3.28872
3.28877
3.28878
3.28877
3.28874
3.28864
3.28854
3.28831
3.28809
3.28763
3.28718
3.28624
3.28522
3.28296
3.27991
3.2724
3.26182
3.25315
3.23733
3.2234
3.19855
3.18925
3.18668
3.18604
3.18589
3.15816
3.20216
3.22835
3.25404
3.26741
3.28032
3.28732
3.29463
3.29876
3.30329
3.30583
3.30861
3.31055
3.31332
3.31524
3.3179
3.3197
3.32215
3.3238
3.32601
3.32749
3.32947
3.33079
3.33254
3.3337
3.33525
3.33629
3.33772
3.3388
3.3405
3.34207
3.3429
3.34378
3.34431
3.34496
3.34536
3.34587
3.3462
3.34662
3.34688
3.34722
3.34743
3.34771
3.34788
3.34811
3.34825
3.34842
3.34853
3.34866
3.34873
3.34882
3.34887
3.34895
3.349
3.34906
3.34909
3.34912
3.34913
3.34912
3.3491
3.34903
3.34895
3.3488
3.34863
3.34831
3.34797
3.34731
3.34655
3.34495
3.34267
3.33735
3.32991
3.32349
3.31241
3.30216
3.28508
3.27823
3.27626
3.27576
3.27564
3.29557
3.32104
3.33699
3.35223
3.36043
3.3681
3.37239
3.37673
3.37926
3.38194
3.3835
3.38516
3.38634
3.38798
3.38916
3.39073
3.39183
3.39328
3.39429
3.3956
3.3965
3.39767
3.39848
3.39951
3.40023
3.40114
3.40178
3.40262
3.40329
3.4043
3.40523
3.40574
3.40626
3.40659
3.40697
3.40722
3.40752
3.40772
3.40797
3.40813
3.40833
3.40846
3.40862
3.40873
3.40886
3.40895
3.40905
3.40912
3.40919
3.40924
3.40929
3.40932
3.40937
3.4094
3.40943
3.40945
3.40947
3.40948
3.40947
3.40946
3.40942
3.40937
3.40928
3.40918
3.40899
3.40878
3.40839
3.40792
3.40696
3.40556
3.40238
3.39796
3.39403
3.38745
3.3812
3.3712
3.36702
3.36578
3.36546
3.36539
3.43197
3.44031
3.44566
3.45071
3.45347
3.45602
3.45746
3.4589
3.45975
3.46064
3.46117
3.46172
3.46212
3.46266
3.46305
3.46357
3.46394
3.46442
3.46476
3.4652
3.4655
3.46589
3.46616
3.4665
3.46674
3.46705
3.46726
3.46754
3.46776
3.4681
3.46841
3.46858
3.46875
3.46886
3.46899
3.46907
3.46917
3.46924
3.46932
3.46938
3.46944
3.46949
3.46954
3.46958
3.46962
3.46965
3.46968
3.46971
3.46973
3.46975
3.46976
3.46977
3.46979
3.4698
3.46981
3.46982
3.46982
3.46983
3.46982
3.46982
3.46981
3.46979
3.46976
3.46972
3.46966
3.46959
3.46946
3.4693
3.46898
3.46851
3.46745
3.46599
3.46466
3.46249
3.46038
3.45709
3.45569
3.45526
3.45515
3.45513
3.43127
3.44018
3.44636
3.45303
3.45711
3.46155
3.46438
3.46762
3.46971
3.47211
3.47359
3.47521
3.47641
3.47804
3.47923
3.48078
3.48187
3.48327
3.48425
3.48549
3.48634
3.48742
3.48817
3.48911
3.48977
3.49059
3.49118
3.49195
3.49257
3.4935
3.49438
3.49487
3.49538
3.49571
3.4961
3.49636
3.49669
3.4969
3.49718
3.49736
3.49759
3.49775
3.49794
3.49808
3.49824
3.49835
3.49849
3.49858
3.49868
3.49875
3.49882
3.49888
3.49896
3.49901
3.49908
3.49914
3.4992
3.49925
3.49931
3.49935
3.4994
3.49943
3.49948
3.4995
3.49954
3.49955
3.49956
3.49955
3.49947
3.4993
3.49885
3.49812
3.49735
3.49592
3.4944
3.49188
3.49079
3.49047
3.49038
3.49036
3.29346
3.32066
3.33906
3.35918
3.37131
3.3847
3.39311
3.40291
3.40912
3.41636
3.42075
3.42564
3.4292
3.43414
3.43766
3.44235
3.44561
3.44984
3.45274
3.45647
3.45902
3.46228
3.46451
3.46735
3.4693
3.47179
3.47354
3.47585
3.47768
3.4805
3.48314
3.48462
3.48616
3.48714
3.48831
3.48909
3.49006
3.49071
3.49153
3.49208
3.49277
3.49324
3.49383
3.49423
3.49472
3.49505
3.49546
3.49573
3.49605
3.49625
3.49647
3.49664
3.49687
3.49703
3.49725
3.49741
3.49761
3.49774
3.49792
3.49804
3.49819
3.4983
3.49843
3.49851
3.49861
3.49866
3.49869
3.49864
3.49843
3.49792
3.49657
3.49438
3.49206
3.48776
3.48323
3.47557
3.47235
3.47139
3.47115
3.47109
3.15456
3.20149
3.23169
3.26565
3.28546
3.30806
3.32179
3.33834
3.34848
3.36073
3.3679
3.37613
3.38194
3.39029
3.39606
3.40398
3.40931
3.41645
3.4212
3.42751
3.43168
3.43719
3.44083
3.44563
3.44881
3.45302
3.45587
3.45977
3.46276
3.46751
3.47196
3.47436
3.47695
3.47855
3.48054
3.48181
3.48345
3.48451
3.4859
3.4868
3.48797
3.48873
3.48973
3.49037
3.49121
3.49175
3.49245
3.49288
3.49343
3.49375
3.49413
3.4944
3.49478
3.49505
3.49543
3.49568
3.49601
3.49624
3.49654
3.49673
3.49699
3.49716
3.49738
3.49752
3.49769
3.49777
3.49782
3.49774
3.49739
3.49657
3.49432
3.49063
3.48686
3.47961
3.47219
3.45909
3.45381
3.45229
3.4519
3.45181
3.01378
3.08298
3.12418
3.1727
3.19949
3.23177
3.25036
3.27402
3.28777
3.3053
3.315
3.32672
3.33457
3.34655
3.35436
3.36571
3.37293
3.38316
3.3896
3.39862
3.40428
3.41216
3.41709
3.42396
3.42827
3.4343
3.43816
3.44373
3.44777
3.45454
3.46085
3.4641
3.46779
3.46995
3.47279
3.47451
3.47686
3.4783
3.48028
3.4815
3.48318
3.48421
3.48563
3.48651
3.48771
3.48844
3.48944
3.49003
3.49081
3.49125
3.49178
3.49215
3.4927
3.49307
3.4936
3.49394
3.49443
3.49473
3.49516
3.49542
3.49579
3.49602
3.49634
3.49652
3.49676
3.49688
3.49696
3.49685
3.49637
3.49528
3.49213
3.48689
3.4818
3.47147
3.46138
3.44229
3.43512
3.43314
3.43264
3.43253
2.87024
2.9656
3.01637
3.0806
3.11331
3.15603
3.17873
3.21011
3.2269
3.25018
3.26203
3.27746
3.28705
3.30297
3.31252
3.32761
3.33643
3.35002
3.35789
3.36988
3.37678
3.38726
3.39328
3.40241
3.40767
3.41567
3.42038
3.42775
3.43267
3.44158
3.44987
3.45382
3.45869
3.46132
3.46508
3.46719
3.47031
3.47207
3.47469
3.47619
3.47841
3.47968
3.48157
3.48264
3.48423
3.48513
3.48645
3.48717
3.48821
3.48874
3.48945
3.48989
3.49063
3.49108
3.49179
3.4922
3.49284
3.49322
3.49378
3.49411
3.4946
3.49488
3.4953
3.49553
3.49585
3.49599
3.4961
3.49598
3.49538
3.49407
3.49002
3.48314
3.47694
3.46332
3.45092
3.42502
3.41623
3.41393
3.41337
3.41324
2.72288
2.85
2.90802
2.98977
3.02673
3.08109
3.10675
3.14677
3.16577
3.19552
3.20891
3.22843
3.23926
3.25965
3.27047
3.28975
3.29975
3.31711
3.32602
3.34133
3.34915
3.36253
3.36935
3.381
3.38696
3.39717
3.4025
3.41187
3.41741
3.42864
3.43907
3.4435
3.44968
3.45265
3.45745
3.45983
3.46381
3.4658
3.46915
3.47084
3.47368
3.47512
3.47753
3.47874
3.48078
3.48179
3.48348
3.4843
3.48562
3.48623
3.48712
3.48762
3.48857
3.48908
3.48998
3.49045
3.49127
3.49169
3.49242
3.49279
3.49342
3.49373
3.49427
3.49453
3.49494
3.4951
3.49526
3.49512
3.49442
3.49297
3.48802
3.47937
3.47239
3.45512
3.44101
3.40706
3.39708
3.39465
3.39408
3.39395
2.57043
2.73716
2.79872
2.90074
2.93945
3.0073
3.03419
3.08428
3.10421
3.14152
3.15554
3.17975
3.1911
3.21671
3.22807
3.25227
3.26276
3.28454
3.29389
3.31309
3.32129
3.33806
3.34522
3.35982
3.36607
3.37887
3.38445
3.39614
3.40192
3.41574
3.4285
3.43311
3.44079
3.44391
3.44991
3.45241
3.45739
3.45948
3.46368
3.46545
3.46901
3.47052
3.47354
3.47481
3.47736
3.47843
3.48054
3.48141
3.48307
3.4837
3.48481
3.48534
3.48653
3.48706
3.4882
3.48869
3.48972
3.49016
3.49107
3.49146
3.49225
3.49258
3.49325
3.49352
3.49404
3.49421
3.49442
3.49429
3.49348
3.49201
3.48617
3.47553
3.46824
3.4468
3.43189
3.38815
3.37762
3.3753
3.37478
3.37466
2.41132
2.62853
2.6878
2.81423
2.851
2.93515
2.96071
3.02299
3.04195
3.08845
3.10177
3.13158
3.14237
3.17433
3.18516
3.21534
3.22533
3.25247
3.26137
3.28528
3.29309
3.31398
3.32079
3.33898
3.34493
3.36085
3.36616
3.38065
3.38611
3.40288
3.41825
3.4226
3.43209
3.43505
3.44251
3.44489
3.45108
3.45307
3.4583
3.45999
3.46443
3.46586
3.46962
3.47083
3.47401
3.47502
3.47766
3.47848
3.48056
3.48116
3.48253
3.48302
3.48451
3.48502
3.48644
3.48691
3.48819
3.48861
3.48974
3.49011
3.49109
3.49141
3.49225
3.4925
3.49316
3.49332
3.4936
3.49348
3.49258
3.49122
3.48452
3.47156
3.46466
3.43821
3.42392
3.3679
3.35784
3.35588
3.35545
3.35536
2.24351
2.52622
2.57419
2.73131
2.76066
2.86534
2.88575
2.96343
2.9786
3.0367
3.04734
3.08417
3.09278
3.13281
3.14147
3.17921
3.18721
3.22112
3.22824
3.25812
3.26437
3.29046
3.29591
3.31863
3.32338
3.34326
3.3475
3.36552
3.36985
3.39008
3.40845
3.41189
3.42364
3.42601
3.43531
3.43721
3.44494
3.44654
3.45307
3.45442
3.45996
3.4611
3.46581
3.46677
3.47074
3.47155
3.47485
3.47551
3.4781
3.47858
3.48027
3.48067
3.48254
3.48294
3.48471
3.48509
3.48669
3.48703
3.48844
3.48874
3.48997
3.49022
3.49127
3.49147
3.49229
3.49242
3.4928
3.49271
3.49169
3.49065
3.48311
3.46734
3.46186
3.42913
3.41763
3.34582
3.33773
3.33639
3.33611
3.33605
2.0644
2.43329
2.45622
2.6535
2.6673
2.7989
2.80851
2.90638
2.91352
2.98685
2.99185
3.0379
3.04195
3.09254
3.09663
3.14428
3.14805
3.19085
3.19421
3.23191
3.23485
3.26777
3.27034
3.29899
3.30123
3.3263
3.32829
3.35093
3.35295
3.37734
3.39925
3.40084
3.41558
3.41669
3.4284
3.4293
3.43905
3.4398
3.44804
3.44867
3.45567
3.45621
3.46214
3.46259
3.4676
3.46799
3.47214
3.47245
3.47573
3.47596
3.47807
3.47826
3.48062
3.48081
3.48305
3.48322
3.48524
3.4854
3.48719
3.48733
3.48888
3.489
3.49032
3.49042
3.49145
3.49152
3.49201
3.49197
3.4908
3.49034
3.48204
3.46271
3.46015
3.41921
3.41374
3.32119
3.31735
3.31687
3.31677
3.31675
2.0644
2.43329
2.45622
2.6535
2.6673
2.7989
2.80851
2.90638
2.91352
2.98685
2.99185
3.03789
3.04195
3.09254
3.09663
3.14428
3.14805
3.19085
3.19421
3.23191
3.23485
3.26777
3.27034
3.29899
3.30123
3.3263
3.32829
3.35093
3.35295
3.37734
3.39925
3.40084
3.41558
3.41669
3.4284
3.4293
3.43905
3.4398
3.44804
3.44867
3.45567
3.4562
3.46214
3.46259
3.4676
3.46799
3.47214
3.47245
3.47573
3.47596
3.47807
3.47826
3.48062
3.48081
3.48305
3.48322
3.48524
3.4854
3.48719
3.48732
3.48888
3.489
3.49032
3.49042
3.49145
3.49152
3.49201
3.49197
3.4908
3.49034
3.48203
3.46271
3.46015
3.41921
3.41374
3.32119
3.31735
3.31687
3.31677
3.31675
2.24351
2.52622
2.57419
2.73131
2.76066
2.86534
2.88575
2.96343
2.9786
3.0367
3.04733
3.08417
3.09278
3.13281
3.14147
3.17921
3.18721
3.22112
3.22824
3.25812
3.26437
3.29046
3.29591
3.31863
3.32338
3.34326
3.3475
3.36552
3.36985
3.39007
3.40845
3.41189
3.42364
3.42601
3.43531
3.43721
3.44494
3.44654
3.45307
3.45442
3.45996
3.4611
3.46581
3.46677
3.47074
3.47155
3.47485
3.47551
3.4781
3.47858
3.48027
3.48067
3.48254
3.48294
3.48471
3.48509
3.48669
3.48703
3.48844
3.48873
3.48996
3.49022
3.49126
3.49147
3.49229
3.49242
3.4928
3.49271
3.49169
3.49065
3.48311
3.46734
3.46186
3.42913
3.41763
3.34582
3.33773
3.33639
3.33612
3.33605
2.41132
2.62853
2.6878
2.81423
2.851
2.93515
2.96071
3.02299
3.04195
3.08845
3.10177
3.13158
3.14237
3.17433
3.18516
3.21534
3.22533
3.25247
3.26137
3.28528
3.29309
3.31398
3.32079
3.33898
3.34493
3.36085
3.36616
3.38065
3.38611
3.40288
3.41825
3.4226
3.43209
3.43505
3.44251
3.44489
3.45108
3.45307
3.4583
3.45999
3.46443
3.46586
3.46962
3.47083
3.47401
3.47502
3.47766
3.47848
3.48056
3.48116
3.48253
3.48302
3.48451
3.48502
3.48644
3.48691
3.48819
3.48861
3.48974
3.49011
3.49109
3.49141
3.49225
3.4925
3.49316
3.49332
3.4936
3.49348
3.49258
3.49122
3.48452
3.47156
3.46466
3.43821
3.42392
3.3679
3.35784
3.35588
3.35545
3.35536
2.57043
2.73716
2.79872
2.90074
2.93945
3.0073
3.03419
3.08428
3.10421
3.14152
3.15554
3.17975
3.1911
3.21671
3.22807
3.25227
3.26276
3.28454
3.29389
3.31309
3.32129
3.33806
3.34522
3.35982
3.36607
3.37887
3.38445
3.39614
3.40192
3.41574
3.4285
3.43311
3.44079
3.44391
3.44991
3.45241
3.45739
3.45948
3.46368
3.46545
3.46901
3.47052
3.47354
3.47481
3.47736
3.47843
3.48054
3.48141
3.48307
3.4837
3.48481
3.48534
3.48653
3.48706
3.4882
3.48869
3.48972
3.49016
3.49107
3.49146
3.49225
3.49258
3.49325
3.49352
3.49404
3.49421
3.49442
3.49429
3.49348
3.49201
3.48617
3.47553
3.46824
3.4468
3.43189
3.38815
3.37762
3.3753
3.37478
3.37466
2.72288
2.85
2.90802
2.98977
3.02673
3.08109
3.10675
3.14677
3.16577
3.19552
3.20891
3.22843
3.23926
3.25965
3.27047
3.28975
3.29974
3.31711
3.32602
3.34133
3.34915
3.36253
3.36935
3.381
3.38696
3.39717
3.4025
3.41187
3.41741
3.42864
3.43906
3.4435
3.44968
3.45265
3.45745
3.45983
3.46381
3.4658
3.46915
3.47084
3.47368
3.47512
3.47753
3.47874
3.48078
3.48179
3.48348
3.4843
3.48562
3.48623
3.48712
3.48762
3.48857
3.48908
3.48998
3.49045
3.49127
3.49169
3.49242
3.49279
3.49342
3.49373
3.49427
3.49453
3.49494
3.4951
3.49526
3.49512
3.49442
3.49297
3.48802
3.47937
3.47239
3.45512
3.44101
3.40706
3.39708
3.39465
3.39408
3.39395
2.87024
2.9656
3.01637
3.0806
3.11331
3.15603
3.17873
3.2101
3.2269
3.25018
3.26203
3.27745
3.28705
3.30297
3.31252
3.32761
3.33643
3.35002
3.35789
3.36988
3.37678
3.38726
3.39328
3.40241
3.40767
3.41567
3.42038
3.42775
3.43267
3.44158
3.44987
3.45382
3.45869
3.46132
3.46508
3.46719
3.47031
3.47207
3.47469
3.47618
3.47841
3.47968
3.48157
3.48264
3.48423
3.48513
3.48645
3.48717
3.48821
3.48874
3.48945
3.48989
3.49063
3.49108
3.49179
3.4922
3.49284
3.49322
3.49378
3.49411
3.4946
3.49488
3.4953
3.49553
3.49585
3.49599
3.4961
3.49598
3.49538
3.49407
3.49002
3.48314
3.47694
3.46332
3.45092
3.42502
3.41623
3.41393
3.41337
3.41324
3.01378
3.08298
3.12418
3.1727
3.19949
3.23177
3.25036
3.27402
3.28777
3.3053
3.315
3.32672
3.33457
3.34655
3.35436
3.36571
3.37293
3.38316
3.3896
3.39862
3.40428
3.41216
3.41709
3.42396
3.42827
3.4343
3.43816
3.44373
3.44777
3.45454
3.46085
3.4641
3.46779
3.46995
3.47279
3.47451
3.47686
3.4783
3.48028
3.4815
3.48318
3.48421
3.48563
3.48651
3.48771
3.48844
3.48944
3.49003
3.49081
3.49125
3.49178
3.49215
3.4927
3.49307
3.4936
3.49394
3.49443
3.49473
3.49516
3.49542
3.49579
3.49602
3.49634
3.49652
3.49676
3.49688
3.49696
3.49685
3.49637
3.49528
3.49213
3.48689
3.4818
3.47147
3.46138
3.44229
3.43512
3.43314
3.43264
3.43253
3.15456
3.20149
3.23169
3.26565
3.28546
3.30806
3.32179
3.33834
3.34848
3.36073
3.3679
3.37613
3.38194
3.39029
3.39606
3.40398
3.40931
3.41645
3.4212
3.42751
3.43168
3.43719
3.44083
3.44563
3.44881
3.45302
3.45587
3.45977
3.46276
3.46751
3.47196
3.47436
3.47695
3.47855
3.48053
3.48181
3.48345
3.48451
3.48589
3.4868
3.48797
3.48873
3.48973
3.49037
3.49121
3.49175
3.49245
3.49288
3.49343
3.49375
3.49413
3.4944
3.49478
3.49505
3.49543
3.49568
3.49601
3.49624
3.49654
3.49673
3.49699
3.49716
3.49738
3.49752
3.49769
3.49777
3.49782
3.49774
3.49739
3.49657
3.49432
3.49063
3.48686
3.47961
3.47219
3.45909
3.45381
3.45229
3.4519
3.45181
3.29346
3.32066
3.33906
3.35918
3.37131
3.3847
3.39311
3.40291
3.40912
3.41636
3.42075
3.42564
3.4292
3.43414
3.43766
3.44235
3.44561
3.44983
3.45274
3.45647
3.45902
3.46228
3.46451
3.46735
3.4693
3.47179
3.47354
3.47585
3.47768
3.4805
3.48314
3.48462
3.48616
3.48714
3.48831
3.48909
3.49006
3.49071
3.49153
3.49208
3.49277
3.49324
3.49383
3.49423
3.49472
3.49505
3.49546
3.49573
3.49605
3.49625
3.49647
3.49664
3.49687
3.49703
3.49725
3.49741
3.49761
3.49774
3.49792
3.49804
3.49819
3.4983
3.49843
3.49851
3.49861
3.49866
3.49869
3.49864
3.49843
3.49792
3.49657
3.49438
3.49206
3.48776
3.48323
3.47557
3.47235
3.47139
3.47115
3.47109
3.43127
3.44018
3.44636
3.45303
3.45711
3.46155
3.46438
3.46762
3.46971
3.47211
3.47359
3.47521
3.47641
3.47804
3.47923
3.48078
3.48187
3.48327
3.48425
3.48549
3.48634
3.48742
3.48817
3.48911
3.48977
3.49059
3.49118
3.49195
3.49257
3.4935
3.49438
3.49487
3.49538
3.49571
3.4961
3.49636
3.49669
3.4969
3.49718
3.49736
3.49759
3.49775
3.49794
3.49808
3.49824
3.49835
3.49849
3.49858
3.49868
3.49875
3.49882
3.49888
3.49896
3.49901
3.49908
3.49914
3.4992
3.49925
3.49931
3.49935
3.4994
3.49943
3.49948
3.4995
3.49954
3.49955
3.49956
3.49955
3.49947
3.4993
3.49885
3.49812
3.49735
3.49592
3.4944
3.49188
3.49079
3.49047
3.49038
3.49036
3.43195
3.44028
3.44562
3.45066
3.4534
3.45591
3.45731
3.45866
3.45941
3.46016
3.46067
3.46135
3.46183
3.46245
3.46289
3.46345
3.46384
3.46434
3.46469
3.46514
3.46545
3.46585
3.46612
3.46647
3.46671
3.46702
3.46724
3.46752
3.46775
3.46808
3.4684
3.46857
3.46874
3.46885
3.46898
3.46907
3.46917
3.46924
3.46932
3.46937
3.46944
3.46948
3.46954
3.46957
3.46962
3.46965
3.46968
3.4697
3.46973
3.46975
3.46976
3.46977
3.46979
3.4698
3.46981
3.46982
3.46982
3.46982
3.46982
3.46982
3.46981
3.46979
3.46976
3.46972
3.46966
3.46959
3.46946
3.4693
3.46898
3.46851
3.46745
3.46599
3.46466
3.46248
3.46038
3.45709
3.45569
3.45526
3.45515
3.45513
3.29552
3.32097
3.33689
3.35208
3.36021
3.36776
3.37192
3.37599
3.37824
3.38048
3.38201
3.38405
3.38549
3.38736
3.38866
3.39035
3.39152
3.39303
3.39407
3.39542
3.39635
3.39755
3.39837
3.39942
3.40014
3.40106
3.40171
3.40256
3.40323
3.40425
3.40519
3.40571
3.40624
3.40656
3.40695
3.4072
3.4075
3.40771
3.40795
3.40812
3.40832
3.40845
3.40861
3.40872
3.40885
3.40894
3.40905
3.40911
3.40919
3.40924
3.40929
3.40932
3.40937
3.4094
3.40943
3.40945
3.40947
3.40947
3.40947
3.40945
3.40942
3.40937
3.40928
3.40917
3.40898
3.40878
3.40838
3.40792
3.40695
3.40555
3.40238
3.39796
3.39403
3.38745
3.3812
3.3712
3.36702
3.36578
3.36546
3.36539
3.15807
3.20203
3.22818
3.25377
3.26704
3.27975
3.28654
3.2934
3.29707
3.30083
3.30333
3.30678
3.30912
3.31229
3.31442
3.31727
3.31918
3.32174
3.32344
3.32572
3.32724
3.32926
3.3306
3.33237
3.33355
3.33512
3.33617
3.33761
3.33871
3.34042
3.34201
3.34285
3.34374
3.34427
3.34492
3.34533
3.34585
3.34618
3.34659
3.34686
3.3472
3.34742
3.34769
3.34787
3.34809
3.34823
3.34841
3.34852
3.34865
3.34873
3.34881
3.34887
3.34894
3.34899
3.34905
3.34908
3.34912
3.34913
3.34912
3.34909
3.34903
3.34895
3.34879
3.34863
3.34831
3.34797
3.34731
3.34655
3.34494
3.34267
3.33735
3.32991
3.32349
3.31241
3.30216
3.28508
3.27823
3.27626
3.27576
3.27564
3.01886
3.08381
3.11949
3.15597
3.1739
3.19198
3.20115
3.21094
3.2159
3.22123
3.22461
3.22956
3.23273
3.23726
3.24015
3.24423
3.24682
3.25048
3.25279
3.25605
3.25811
3.261
3.26281
3.26536
3.26695
3.26919
3.27062
3.27268
3.27416
3.2766
3.27885
3.27999
3.28125
3.28197
3.2829
3.28346
3.28419
3.28464
3.28524
3.2856
3.28609
3.28638
3.28678
3.28702
3.28734
3.28753
3.28778
3.28793
3.28811
3.28821
3.28833
3.28841
3.28852
3.28859
3.28867
3.28872
3.28876
3.28878
3.28877
3.28873
3.28864
3.28853
3.28831
3.28809
3.28763
3.28718
3.28624
3.28522
3.28296
3.27991
3.2724
3.26182
3.25315
3.23733
3.2234
3.19855
3.18925
3.18668
3.18604
3.18589
2.87706
2.96676
3.01077
3.0589
3.08075
3.10457
3.11574
3.12867
3.13472
3.1417
3.14583
3.1524
3.15628
3.1623
3.16582
3.17125
3.17441
3.17927
3.1821
3.18643
3.18895
3.19278
3.195
3.19838
3.20033
3.2033
3.20505
3.20777
3.20956
3.21279
3.21574
3.21712
3.21879
3.21967
3.2209
3.22158
3.22256
3.2231
3.22389
3.22433
3.22498
3.22534
3.22587
3.22616
3.22658
3.22682
3.22715
3.22733
3.22758
3.2277
3.22786
3.22795
3.2281
3.22818
3.2283
3.22835
3.22841
3.22843
3.22841
3.22837
3.22825
3.22812
3.22783
3.22756
3.22696
3.2264
3.22517
3.22394
3.22101
3.21732
3.20758
3.19365
3.18309
3.16217
3.14508
3.1114
3.1
3.09702
3.0963
3.09613
2.73166
2.85154
2.90188
2.96288
2.98752
3.01766
3.03026
3.04667
3.05349
3.06229
3.06696
3.07535
3.07974
3.08744
3.09143
3.09836
3.10194
3.10815
3.11135
3.11688
3.11973
3.12463
3.12714
3.13146
3.13366
3.13746
3.13943
3.14289
3.14492
3.14898
3.15269
3.15425
3.15635
3.15735
3.15892
3.15968
3.16093
3.16155
3.16256
3.16306
3.16389
3.16429
3.16497
3.1653
3.16584
3.1661
3.16653
3.16673
3.16705
3.16719
3.16739
3.1675
3.16769
3.16778
3.16792
3.16798
3.16806
3.16808
3.16806
3.16802
3.16786
3.16772
3.16734
3.16704
3.16628
3.16565
3.16411
3.16272
3.15909
3.15498
3.14293
3.12535
3.11344
3.08686
3.06742
3.02336
3.01041
3.00727
3.00653
3.00637
2.58147
2.7391
2.79257
2.86832
2.89407
2.93145
2.94462
2.96506
2.97219
2.98305
2.98793
2.99847
3.00307
3.01273
3.01691
3.0256
3.02936
3.03715
3.0405
3.04744
3.05043
3.05657
3.05921
3.06462
3.06693
3.07169
3.07376
3.07808
3.08019
3.08519
3.08973
3.09135
3.09396
3.09501
3.09697
3.09777
3.09934
3.09998
3.10125
3.10178
3.10281
3.10324
3.10408
3.10442
3.1051
3.10538
3.10592
3.10613
3.10653
3.10668
3.10692
3.10703
3.10727
3.10737
3.10755
3.10762
3.10772
3.10774
3.10772
3.10767
3.10748
3.10732
3.10686
3.10654
3.10559
3.10494
3.10304
3.1016
3.09718
3.09295
3.0785
3.05683
3.04438
3.01127
2.99074
2.93407
2.92044
2.91743
2.91675
2.9166
2.42498
2.63082
2.68237
2.77576
2.80016
2.84621
2.8587
2.88398
2.89073
2.90405
2.90867
2.92182
2.9262
2.93824
2.94222
2.95305
2.95662
2.96632
2.96952
2.97816
2.981
2.98866
2.99117
2.9979
3.00011
3.00603
3.00799
3.01335
3.01534
3.02142
3.02688
3.02841
3.03164
3.03263
3.03507
3.03583
3.03778
3.03839
3.03997
3.04047
3.04176
3.04216
3.04321
3.04354
3.04439
3.04465
3.04532
3.04552
3.04602
3.04616
3.04646
3.04657
3.04687
3.04696
3.04719
3.04725
3.04737
3.04739
3.04737
3.04732
3.04709
3.04694
3.04637
3.04606
3.0449
3.04428
3.04194
3.04059
3.03527
3.03134
3.01435
2.98793
2.97615
2.93517
2.91551
2.84306
2.83003
2.82749
2.82694
2.82682
2.26025
2.52872
2.5705
2.68595
2.70538
2.76232
2.77226
2.80364
2.80902
2.82539
2.82908
2.84552
2.84903
2.86406
2.86725
2.88078
2.88364
2.89575
2.89831
2.90911
2.91138
2.92095
2.92296
2.93137
2.93313
2.94052
2.94209
2.94875
2.95034
2.95767
2.9642
2.9654
2.9694
2.97019
2.97323
2.97384
2.97627
2.97676
2.97873
2.97913
2.98074
2.98106
2.98237
2.98263
2.98369
2.9839
2.98474
2.9849
2.98552
2.98563
2.98601
2.98609
2.98647
2.98654
2.98683
2.98688
2.98703
2.98705
2.98702
2.98699
2.98669
2.98658
2.98586
2.98562
2.98418
2.98369
2.98081
2.97974
2.97331
2.97025
2.95059
2.91845
2.90908
2.85822
2.84239
2.74967
2.73921
2.73748
2.73712
2.73704
2.08478
2.43568
2.45568
2.59999
2.6091
2.6803
2.68497
2.72434
2.72686
2.74724
2.74898
2.76973
2.77139
2.79037
2.79187
2.80894
2.81029
2.82557
2.82678
2.8404
2.84147
2.85354
2.85449
2.8651
2.86593
2.87525
2.87599
2.88436
2.8851
2.89396
2.90172
2.90228
2.90729
2.90766
2.91149
2.91178
2.91484
2.91507
2.91756
2.91775
2.91977
2.91992
2.92157
2.9217
2.92303
2.92313
2.92418
2.92426
2.92504
2.9251
2.92557
2.92561
2.92608
2.92611
2.92648
2.9265
2.9267
2.92671
2.92668
2.92666
2.92629
2.92624
2.92534
2.92523
2.92343
2.9232
2.91961
2.91911
2.9112
2.90982
2.88732
2.84806
2.84368
2.77986
2.77235
2.65299
2.64804
2.64741
2.64728
2.64726
)
;

boundaryField
{
    F1_1
    {
        type            fixedValue;
        value           nonuniform List<scalar> 
80
(
1.99027
2.39629
2.39629
2.56082
2.56082
2.643
2.643
2.69062
2.69062
2.72082
2.72082
2.73821
2.73821
2.75729
2.75729
2.77549
2.77549
2.79223
2.79223
2.80736
2.80736
2.82085
2.82085
2.83278
2.83278
2.84327
2.84327
2.8527
2.8527
2.86241
2.87084
2.87084
2.8765
2.8765
2.88083
2.88083
2.88429
2.88429
2.8871
2.8871
2.8894
2.8894
2.89126
2.89126
2.89277
2.89277
2.89396
2.89396
2.89485
2.89485
2.89538
2.89538
2.89592
2.89592
2.89633
2.89633
2.89655
2.89655
2.89652
2.89652
2.8961
2.8961
2.89508
2.89508
2.89302
2.89302
2.88895
2.88895
2.88003
2.88003
2.85603
2.81217
2.81217
2.73956
2.73956
2.60236
2.60236
2.60236
2.60236
2.60236
)
;
    }
    F1_2
    {
        type            fixedValue;
        value           nonuniform List<scalar> 
80
(
1.96746
2.39375
2.39375
2.61826
2.61826
2.76811
2.76811
2.87966
2.87966
2.96329
2.96329
3.01559
3.01559
3.07333
3.07333
3.12768
3.12768
3.1765
3.1765
3.21949
3.21949
3.25703
3.25703
3.2897
3.2897
3.31827
3.31827
3.34405
3.34405
3.37103
3.39505
3.39505
3.41182
3.41182
3.42517
3.42517
3.43628
3.43628
3.44568
3.44568
3.45365
3.45365
3.46041
3.46041
3.46612
3.46612
3.47087
3.47087
3.47461
3.47461
3.47701
3.47701
3.4797
3.4797
3.48225
3.48225
3.48456
3.48456
3.48659
3.48659
3.48836
3.48836
3.48987
3.48987
3.49105
3.49105
3.49163
3.49163
3.49034
3.49034
3.48172
3.46007
3.46007
3.41354
3.41354
3.3071
3.3071
3.3071
3.3071
3.3071
)
;
    }
    F1_3
    {
        type            fixedValue;
        value           nonuniform List<scalar> 
80
(
1.96746
2.39375
2.39375
2.61826
2.61826
2.76811
2.76811
2.87966
2.87966
2.96329
2.96329
3.01559
3.01559
3.07333
3.07333
3.12768
3.12768
3.1765
3.1765
3.21949
3.21949
3.25703
3.25703
3.2897
3.2897
3.31827
3.31827
3.34405
3.34405
3.37103
3.39505
3.39505
3.41182
3.41182
3.42517
3.42517
3.43628
3.43628
3.44568
3.44568
3.45365
3.45365
3.46041
3.46041
3.46612
3.46612
3.47087
3.47087
3.47461
3.47461
3.47701
3.47701
3.4797
3.4797
3.48225
3.48225
3.48456
3.48456
3.48659
3.48659
3.48836
3.48836
3.48987
3.48987
3.49105
3.49105
3.49163
3.49163
3.49034
3.49034
3.48172
3.46007
3.46007
3.41354
3.41354
3.3071
3.3071
3.3071
3.3071
3.3071
)
;
    }
    F1_4
    {
        type            fixedValue;
        value           nonuniform List<scalar> 
80
(
1.99003
2.39578
2.39578
2.55972
2.55972
2.64063
2.64063
2.68543
2.68543
2.70854
2.70854
2.73222
2.73222
2.75387
2.75387
2.77333
2.77333
2.79076
2.79076
2.8063
2.8063
2.82006
2.82006
2.83216
2.83216
2.84279
2.84279
2.85232
2.85232
2.86212
2.87063
2.87063
2.87633
2.87633
2.88069
2.88069
2.88418
2.88418
2.88702
2.88702
2.88933
2.88933
2.89121
2.89121
2.89272
2.89272
2.89393
2.89393
2.89482
2.89482
2.89536
2.89536
2.89589
2.89589
2.89631
2.89631
2.89654
2.89654
2.8965
2.8965
2.89608
2.89608
2.89507
2.89507
2.89302
2.89302
2.88895
2.88895
2.88002
2.88002
2.85602
2.81216
2.81216
2.73956
2.73956
2.60236
2.60236
2.60236
2.60236
2.60236
)
;
    }
    F2_1
    {
        type            fixedValue;
        value           uniform 3.5;
    }
    F2_2
    {
        type            fixedValue;
        value           uniform 3.5;
    }
    F2_3
    {
        type            fixedValue;
        value           uniform 3.5;
    }
    F2_4
    {
        type            fixedValue;
        value           uniform 3.5;
    }
    defaultFaces
    {
        type            empty;
    }
}


// ************************************************************************* //
