/*--------------------------------*- C++ -*----------------------------------*\
| =========                 |                                                 |
| \\      /  F ield         | OpenFOAM: The Open Source CFD Toolbox           |
|  \\    /   O peration     | Version:  5.x                                   |
|   \\  /    A nd           | Web:      www.OpenFOAM.org                      |
|    \\/     M anipulation  |                                                 |
\*---------------------------------------------------------------------------*/
FoamFile
{
    version     2.0;
    format      ascii;
    class       volScalarField;
    location    "0.6";
    object      gradTx;
}
// * * * * * * * * * * * * * * * * * * * * * * * * * * * * * * * * * * * * * //

dimensions      [0 -1 0 1 0 0 0];

internalField   nonuniform List<scalar> 
2048
(
0.00532256
0.0158178
0.025719
0.0347932
0.0429579
0.0499975
0.055827
0.0604517
0.0639288
0.0663466
0.067808
0.0684209
0.0682918
0.0675212
0.0662037
0.0644283
0.062279
0.0598345
0.0571665
0.054338
0.0514005
0.0483931
0.0453421
0.0422617
0.0391559
0.0360203
0.0328442
0.0296118
0.026303
0.0228938
0.0193563
0.0156598
0.0117709
0.00765473
0.00327611
-0.00139949
-0.00640476
-0.0117693
-0.0175183
-0.0236705
-0.030236
-0.037213
-0.0445836
-0.052309
-0.0603236
-0.0685273
-0.0767787
-0.0848878
-0.0926122
-0.0996573
-0.105685
-0.110332
-0.113236
-0.114072
-0.112594
-0.10866
-0.102258
-0.0935089
-0.082643
-0.0699739
-0.0558571
-0.0406542
-0.0247029
-0.00829001
0.015859
0.0471138
0.0766471
0.103706
0.127953
0.148809
0.166039
0.179668
0.189879
0.196942
0.201173
0.202897
0.202433
0.200077
0.196109
0.190791
0.184372
0.177086
0.169147
0.160742
0.152026
0.143113
0.134082
0.124972
0.115794
0.106532
0.0971558
0.0876164
0.0778542
0.067798
0.0573654
0.0464646
0.0349961
0.0228561
0.00993953
-0.00385658
-0.0186298
-0.0344691
-0.0514501
-0.0696305
-0.0890425
-0.109684
-0.131507
-0.154401
-0.178178
-0.202549
-0.227101
-0.251275
-0.274355
-0.295463
-0.313585
-0.327621
-0.336474
-0.339154
-0.334898
-0.323277
-0.304254
-0.278195
-0.245813
-0.208067
-0.166041
-0.120823
-0.0734183
-0.0246431
0.0262946
0.0781169
0.127109
0.171904
0.211847
0.246049
0.274166
0.296282
0.312731
0.324001
0.330635
0.333185
0.332175
0.328094
0.321393
0.3125
0.301822
0.289745
0.276623
0.26277
0.248439
0.233821
0.219039
0.204156
0.18918
0.174086
0.158815
0.143288
0.127408
0.111056
0.0940985
0.076382
0.0577424
0.0380071
0.0170019
-0.00544414
-0.0294934
-0.0552944
-0.0829754
-0.112636
-0.144338
-0.178087
-0.213816
-0.251362
-0.290434
-0.330581
-0.371146
-0.411229
-0.44966
-0.484986
-0.515506
-0.539355
-0.554647
-0.559666
-0.553081
-0.534134
-0.502762
-0.459609
-0.405926
-0.343385
-0.27386
-0.199202
-0.121018
-0.0406124
0.0368842
0.10954
0.178153
0.240676
0.296101
0.343255
0.381738
0.411748
0.433839
0.448757
0.457309
0.460287
0.458422
0.452379
0.442771
0.430179
0.415162
0.398257
0.379964
0.360723
0.340892
0.320733
0.300409
0.279995
0.259495
0.23886
0.218006
0.196821
0.17517
0.152891
0.129796
0.105674
0.0802935
0.0534133
0.0247886
-0.00581993
-0.0386402
-0.0738822
-0.11173
-0.152332
-0.195785
-0.242118
-0.291263
-0.343026
-0.397044
-0.452736
-0.50924
-0.565353
-0.619472
-0.669575
-0.713245
-0.747786
-0.770424
-0.778602
-0.770312
-0.744402
-0.700773
-0.640407
-0.565199
-0.477663
-0.380583
-0.276644
-0.167965
-0.0563266
0.0478375
0.141985
0.230692
0.311148
0.381964
0.441709
0.489992
0.527217
0.55424
0.572139
0.582029
0.584956
0.581854
0.57355
0.560798
0.544316
0.524811
0.502974
0.479457
0.454838
0.42958
0.404018
0.378346
0.352641
0.326887
0.301007
0.274883
0.248371
0.221301
0.19347
0.164639
0.134535
0.102859
0.0692975
0.0335347
-0.00473889
-0.0458179
-0.0899758
-0.137457
-0.188464
-0.243144
-0.301559
-0.363662
-0.429256
-0.49794
-0.569047
-0.641562
-0.714022
-0.784431
-0.850198
-0.908153
-0.954675
-0.985959
-0.998431
-0.989239
-0.956729
-0.900755
-0.822727
-0.725354
-0.612183
-0.48708
-0.353674
-0.214537
-0.0718781
0.0593473
0.176006
0.285566
0.384348
0.470541
0.542503
0.59994
0.643586
0.674713
0.694824
0.70539
0.707731
0.702971
0.692072
0.675899
0.65529
0.631094
0.604164
0.575319
0.545286
0.514648
0.483805
0.452974
0.422217
0.391482
0.360651
0.329569
0.298061
0.265925
0.232921
0.198759
0.163104
0.125587
0.0858162
0.0434025
-0.00203486
-0.0508579
-0.103405
-0.159986
-0.220866
-0.28625
-0.356253
-0.430869
-0.509926
-0.593028
-0.679473
-0.76815
-0.857405
-0.944895
-1.02748
-1.1012
-1.16138
-1.20301
-1.22123
-1.21214
-1.1734
-1.1048
-1.00831
-0.887703
-0.747836
-0.593883
-0.430559
-0.260846
-0.0873007
0.0716056
0.212146
0.343594
0.461249
0.562844
0.646587
0.712413
0.761543
0.795813
0.817262
0.827781
0.828971
0.822121
0.808284
0.788398
0.763397
0.734265
0.702031
0.667705
0.632189
0.596192
0.560183
0.524385
0.488823
0.453387
0.417902
0.38217
0.345989
0.309133
0.271332
0.232248
0.191478
0.148577
0.103072
0.0544946
0.00239379
-0.0536604
-0.114073
-0.179221
-0.249439
-0.325004
-0.406099
-0.49278
-0.58493
-0.682196
-0.783904
-0.888922
-0.995483
-1.10098
-1.20175
-1.29301
-1.36893
-1.423
-1.44881
-1.44103
-1.39644
-1.31472
-1.19858
-1.05321
-0.885149
-0.701198
-0.507311
-0.306841
-0.10257
0.0848119
0.250968
0.405598
0.542804
0.65982
0.754802
0.828085
0.881585
0.917891
0.939707
0.949411
0.94888
0.939525
0.922428
0.898544
0.868867
0.834518
0.796725
0.756722
0.715618
0.67427
0.633211
0.592651
0.552545
0.512697
0.472855
0.432773
0.392229
0.35099
0.308762
0.265161
0.219715
0.171888
0.121122
0.066866
0.00859599
-0.0541825
-0.12194
-0.195123
-0.274146
-0.359365
-0.451047
-0.54933
-0.654178
-0.765326
-0.882185
-1.00369
-1.12807
-1.25256
-1.37305
-1.48392
-1.57802
-1.6471
-1.68275
-1.67779
-1.62776
-1.53216
-1.39472
-1.22252
-1.02431
-0.808912
-0.58369
-0.352314
-0.117607
0.0991799
0.293064
0.472433
0.629973
0.762379
0.867895
0.947493
1.00404
1.04111
1.06223
1.07033
1.06753
1.05531
1.03467
1.00653
0.971886
0.932007
0.888351
0.84243
0.795603
0.748901
0.702919
0.657823
0.613459
0.569502
0.525599
0.481454
0.43684
0.391535
0.345241
0.297529
0.247843
0.195551
0.139993
0.0805334
0.0165777
-0.0524284
-0.127017
-0.207709
-0.295
-0.38934
-0.491093
-0.600493
-0.717611
-0.842302
-0.97413
-1.1122
-1.25486
-1.39932
-1.54117
-1.67396
-1.7891
-1.87626
-1.9245
-1.92419
-1.86918
-1.75865
-1.59771
-1.39598
-1.16518
-0.916598
-0.659211
-0.3969
-0.13228
0.114943
0.339077
0.545007
0.723742
0.871408
0.98654
1.07105
1.12908
1.16547
1.18475
1.19044
1.1849
1.16952
1.14514
1.11251
1.07262
1.02686
0.976985
0.924854
0.872137
0.820074
0.769316
0.719944
0.671636
0.623891
0.576224
0.528284
0.479864
0.430791
0.38078
0.329357
0.27587
0.21957
0.159684
0.0954835
0.0263102
-0.0484413
-0.129359
-0.217035
-0.312058
-0.414981
-0.526277
-0.646289
-0.775206
-0.913035
-1.05955
-1.21412
-1.3754
-1.54076
-1.70564
-1.86289
-2.00234
-2.1112
-2.17539
-2.18203
-2.12256
-1.99569
-1.80834
-1.57368
-1.30728
-1.02352
-0.733147
-0.440089
-0.146407
0.13236
0.389712
0.624299
0.825142
0.987784
1.11133
1.19903
1.25672
1.2908
1.30701
1.30954
1.30086
1.28215
1.25393
1.21664
1.1712
1.11918
1.06267
1.00399
0.945177
0.887746
0.83239
0.779048
0.727153
0.675963
0.624823
0.573329
0.521332
0.468758
0.415366
0.360632
0.303785
0.243934
0.180175
0.11168
0.0377368
-0.0422966
-0.129054
-0.223198
-0.325416
-0.43638
-0.55668
-0.68678
-0.826987
-0.97747
-1.13827
-1.30914
-1.4892
-1.67624
-1.86581
-2.05019
-2.21763
-2.35246
-2.43667
-2.45311
-2.38986
-2.24478
-2.02729
-1.7554
-1.44979
-1.12863
-0.804544
-0.481235
-0.159766
0.151718
0.445748
0.71137
0.935258
1.11238
1.2428
1.33162
1.38682
1.41676
1.42862
1.42729
1.41522
1.39316
1.3611
1.31907
1.2678
1.20906
1.14545
1.07979
1.01465
0.951848
0.892117
0.835168
0.780091
0.725827
0.671503
0.616658
0.561264
0.50542
0.44897
0.391327
0.331567
0.268623
0.201436
0.129072
0.0507785
-0.0340968
-0.126219
-0.226321
-0.335201
-0.45366
-0.582424
-0.722072
-0.873026
-1.03561
-1.21015
-1.39692
-1.59571
-1.80498
-2.02077
-2.2351
-2.4346
-2.60035
-2.70953
-2.73936
-2.67321
-2.50751
-2.25508
-1.94062
-1.59153
-1.23057
-0.872239
-0.519582
-0.172098
0.173339
0.508049
0.807382
1.05524
1.24604
1.38139
1.46886
1.51909
1.54286
1.54908
1.5433
1.52775
1.50249
1.46676
1.41997
1.36257
1.29662
1.22533
1.15221
1.08045
1.01229
0.948458
0.88834
0.830548
0.773612
0.716383
0.658342
0.599666
0.540743
0.481548
0.421407
0.359188
0.29361
0.223429
0.147594
0.0653384
-0.0239664
-0.120997
-0.226557
-0.341565
-0.466974
-0.603658
-0.752316
-0.913456
-1.08751
-1.27512
-1.47718
-1.69434
-1.92612
-2.16946
-2.41656
-2.65259
-2.85496
-2.99506
-3.04286
-2.97503
-2.78563
-2.49212
-2.12848
-1.73096
-1.3277
-0.934888
-0.554282
-0.18312
0.197585
0.577573
0.913603
1.1863
1.38964
1.52746
1.61066
1.65312
1.66849
1.66772
1.65706
1.63818
1.61007
1.57101
1.51954
1.45569
1.38194
1.30232
1.22116
1.14245
1.06894
1.00137
0.938611
0.878636
0.81947
0.759608
0.698457
0.636532
0.57467
0.513038
0.450825
0.386614
0.318868
0.246117
0.167177
0.0813053
-0.0120484
-0.113551
-0.224076
-0.34468
-0.476495
-0.620562
-0.777699
-0.948463
-1.13332
-1.33318
-1.54967
-1.78456
-2.03872
-2.31064
-2.59327
-2.87062
-3.11612
-3.29427
-3.36586
-3.29809
-3.08108
-2.73864
-2.31771
-1.8661
-1.4181
-0.991009
-0.58444
-0.192539
0.224863
0.655382
1.03142
1.32975
1.54398
1.68127
1.75684
1.78835
1.79286
1.7838
1.76805
1.74624
1.71585
1.67399
1.61804
1.54738
1.46513
1.37642
1.28654
1.20046
1.12165
1.0508
0.986041
0.924486
0.863576
0.801348
0.73709
0.671839
0.60712
0.543367
0.479538
0.413817
0.344373
0.269468
0.187748
0.098556
0.00149841
-0.104058
-0.219063
-0.344732
-0.482411
-0.633332
-0.79844
-0.978293
-1.17325
-1.38442
-1.61427
-1.86587
-2.14185
-2.44292
-2.76367
-3.08742
-3.38334
-3.60802
-3.71084
-3.64569
-3.3961
-2.99468
-2.50662
-1.99461
-1.4996
-1.03903
-0.609147
-0.200065
0.255634
0.742639
1.16233
1.48698
1.70985
1.84294
1.9071
1.9241
1.91506
1.89645
1.87568
1.85167
1.81979
1.77587
1.71577
1.63787
1.54627
1.44764
1.34824
1.2543
1.17025
1.09669
1.03071
0.968247
0.906132
0.84181
0.774332
0.70554
0.637985
0.572448
0.5075
0.440766
0.370108
0.29346
0.209233
0.116956
0.0165023
-0.092712
-0.211718
-0.341917
-0.484915
-0.642174
-0.814779
-1.00324
-1.20761
-1.429
-1.67091
-1.9379
-2.23458
-2.5648
-2.92595
-3.30136
-3.65577
-3.93693
-4.08053
-4.02177
-3.7333
-3.26001
-2.69292
-2.11366
-1.56986
-1.07737
-0.627536
-0.205428
0.290425
0.840612
1.30796
1.65948
1.88795
2.01244
2.06101
2.05958
2.03403
2.0047
1.97935
1.95425
1.92185
1.87686
1.81315
1.72743
1.62546
1.51597
1.40613
1.3037
1.21452
1.13901
1.07272
1.01008
0.947366
0.881244
0.81029
0.737556
0.667121
0.600184
0.534678
0.467436
0.396062
0.318088
0.231563
0.136359
0.0327809
-0.0797122
-0.202246
-0.336434
-0.484209
-0.647298
-0.826967
-1.02366
-1.2368
-1.46722
-1.71968
-2.00038
-2.31602
-2.6747
-3.0781
-3.51054
-3.93219
-4.28126
-4.47787
-4.43114
-4.09576
-3.53403
-2.87368
-2.22003
-1.62639
-1.10449
-0.638829
-0.2084
0.329852
0.950668
1.47004
1.84889
2.07892
2.18954
2.21813
2.19394
2.1486
2.10747
2.07849
2.05383
2.022
1.97719
1.91068
1.81636
1.70273
1.58145
1.46008
1.34839
1.25421
1.17772
1.11224
1.05016
0.987526
0.919965
0.84508
0.767771
0.694341
0.626474
0.561059
0.493804
0.422229
0.343372
0.254672
0.156606
0.0501432
-0.0652662
-0.190858
-0.328483
-0.480488
-0.648908
-0.835248
-1.03994
-1.26129
-1.49941
-1.76074
-2.05323
-2.38543
-2.77099
-3.2179
-3.71276
-4.21091
-4.64073
-4.906
-4.87975
-4.48716
-3.81557
-3.04519
-2.31005
-1.66669
-1.119
-0.642389
-0.208802
0.374656
1.07425
1.65035
2.05703
2.28319
2.37371
2.37794
2.32629
2.25743
2.2036
2.17257
2.15041
2.12016
2.07711
2.00902
1.90494
1.77806
1.64413
1.50997
1.38801
1.28902
1.21279
1.14946
1.08864
1.02687
0.958365
0.878836
0.796009
0.719411
0.651214
0.586662
0.51984
0.448609
0.369367
0.278498
0.177519
0.0683932
-0.049585
-0.177769
-0.318261
-0.473948
-0.647197
-0.839843
-1.05249
-1.28168
-1.52601
-1.79439
-2.09662
-2.44217
-2.85201
-3.34294
-3.90557
-4.48985
-5.01428
-5.36818
-5.37503
-4.91194
-4.10267
-3.20278
-2.37972
-1.68833
-1.11973
-0.637769
-0.206526
0.425767
1.21283
1.85074
2.28598
2.50103
2.5641
2.54003
2.45573
2.35905
2.2918
2.2611
2.24415
2.21619
2.17685
2.10906
1.99346
1.85132
1.70416
1.5557
1.42215
1.31859
1.24423
1.18469
1.12563
1.06565
0.996951
0.911702
0.822024
0.742036
0.674309
0.611558
0.545503
0.475194
0.39618
0.302985
0.198892
0.0873348
-0.032879
-0.163197
-0.305958
-0.464776
-0.642344
-0.840924
-1.06176
-1.29869
-1.54748
-1.82098
-2.13097
-2.48583
-2.91611
-3.45069
-4.0864
-4.76652
-5.39973
-5.86758
-5.92641
-5.37542
-4.39218
-3.34071
-2.42474
-1.68908
-1.10583
-0.624747
-0.201542
0.484417
1.36792
2.07295
2.53828
2.73239
2.75932
2.70417
2.58141
2.45182
2.37065
2.34372
2.33548
2.30978
2.27657
2.212
2.08217
1.92216
1.7618
1.59723
1.4503
1.34249
1.2721
1.21835
1.16118
1.1041
1.03639
0.943837
0.845471
0.761851
0.695676
0.635899
0.570719
0.501963
0.423994
0.328076
0.220484
0.10678
-0.015356
-0.147363
-0.29175
-0.453158
-0.634519
-0.838587
-1.06819
-1.31316
-1.56427
-1.8409
-2.15705
-2.51619
-2.96166
-3.53847
-4.25265
-5.03822
-5.79336
-6.40704
-6.54592
-5.88403
-4.67935
-3.45206
-2.44071
-1.66708
-1.07685
-0.603353
-0.193902
0.552309
1.54089
2.31857
2.8171
2.97681
2.95735
2.87049
2.70257
2.53385
2.43859
2.42016
2.42527
2.40036
2.37629
2.3195
2.1712
1.99
1.81753
1.63453
1.47185
1.36021
1.29649
1.25104
1.1952
1.14236
1.07757
0.975403
0.865884
0.778419
0.715252
0.65995
0.595355
0.528862
0.453099
0.353707
0.241998
0.12656
0.00278282
-0.130496
-0.275797
-0.43928
-0.623889
-0.832818
-1.07221
-1.32615
-1.57681
-1.8545
-2.17605
-2.5333
-2.98708
-3.60343
-4.40178
-5.30228
-6.18937
-6.98858
-7.24911
-6.44547
-4.95709
-3.5286
-2.42327
-1.62097
-1.03277
-0.573881
-0.183739
0.631898
1.73297
2.58871
3.1266
3.23325
3.15524
3.03981
2.81854
2.60304
2.49386
2.49032
2.51495
2.48689
2.47582
2.4339
2.26053
2.05379
1.87219
1.66767
1.48602
1.37112
1.31753
1.28364
1.22739
1.18049
1.1217
1.00654
0.882642
0.791215
0.733003
0.684148
0.619175
0.555778
0.483939
0.379795
0.26306
0.146546
0.0213443
-0.112833
-0.258232
-0.42333
-0.610643
-0.823447
-1.07421
-1.33899
-1.5854
-1.86196
-2.18973
-2.53747
-2.99084
-3.64257
-4.53149
-5.5565
-6.57919
-7.61285
-8.05612
-7.06897
-5.2151
-3.56086
-2.36844
-1.55008
-0.97404
-0.536875
-0.171267
0.726804
1.94503
2.88378
3.47244
3.49986
3.34881
3.21397
2.9288
2.65692
2.53452
2.55418
2.60683
2.5677
2.57459
2.55852
2.34983
2.11192
1.92714
1.69673
1.49189
1.37449
1.33539
1.31743
1.2571
1.21835
1.17045
1.03736
0.894935
0.799632
0.748915
0.709173
0.641792
0.582512
0.517183
0.406213
0.283192
0.166676
0.040144
-0.0946339
-0.239148
-0.405501
-0.595024
-0.810094
-1.07451
-1.35339
-1.59012
-1.86319
-2.2005
-2.52927
-2.97153
-3.65258
-4.63981
-5.79989
-6.95073
-8.2781
-8.99326
-7.76544
-5.43876
-3.5382
-2.27291
-1.45451
-0.901623
-0.49311
-0.156761
0.842425
2.17736
3.20295
3.86252
3.77372
3.53218
3.39643
3.03284
2.69266
2.5584
2.61177
2.7044
2.64014
2.67149
2.69807
2.43835
2.1619
1.98453
1.72184
1.48828
1.36945
1.35027
1.35424
1.28326
1.25554
1.22608
1.06783
0.901725
0.802985
0.762989
0.736041
0.662579
0.608733
0.553813
0.432765
0.301768
0.186996
0.0590035
-0.0761927
-0.218583
-0.385997
-0.577383
-0.792105
-1.07326
-1.37163
-1.5908
-1.85758
-2.21172
-2.50943
-2.92782
-3.6298
-4.72514
-6.03364
-7.28736
-8.97901
-10.0949
-8.54765
-5.6076
-3.44927
-2.13446
-1.33525
-0.816921
-0.443547
-0.14055
0.986795
2.42944
3.54356
4.30789
4.05039
3.69732
3.59294
3.13009
2.70694
2.56311
2.66306
2.8129
2.70018
2.76462
2.85922
2.52462
2.20014
2.04768
1.74305
1.47375
1.35501
1.36226
1.3967
1.30411
1.29128
1.29176
1.09774
0.901721
0.800525
0.775199
0.766246
0.680573
0.633922
0.595247
0.459129
0.317972
0.207716
0.0777428
-0.0578552
-0.196493
-0.365024
-0.558254
-0.768478
-1.0704
-1.39672
-1.58685
-1.84376
-2.22791
-2.4788
-2.85861
-3.57
-4.78614
-6.26247
-7.56695
-9.70496
-11.4058
-9.43034
-5.69348
-3.28258
-1.95235
-1.19424
-0.721735
-0.389286
-0.122991
1.17177
2.69955
3.9002
4.82414
4.32344
3.83324
3.81256
3.21957
2.69591
2.54608
2.70771
2.93988
2.74194
2.85103
3.05128
2.60625
2.22151
2.12154
1.76022
1.44656
1.33008
1.37135
1.44854
1.317
1.3243
1.37176
1.12654
0.893344
0.791477
0.785439
0.801923
0.69434
0.657315
0.643494
0.484794
0.330744
0.22928
0.0961663
-0.0400453
-0.17272
-0.34278
-0.538456
-0.737776
-1.06551
-1.43276
-1.57717
-1.81931
-2.25518
-2.43812
-2.76313
-3.46819
-4.82148
-6.49649
-7.76062
-10.4378
-12.9845
-10.4302
-5.6584
-3.02753
-1.72774
-1.03431
-0.618171
-0.331499
-0.104457
1.41458
2.98429
4.26362
5.433
4.58372
3.92525
4.06886
3.29955
2.65515
2.50461
2.74471
3.09608
2.75706
2.92631
3.28712
2.67943
2.21893
2.2133
1.7728
1.40463
1.2935
1.37714
1.51501
1.31812
1.35264
1.47195
1.15311
0.874724
0.775085
0.793419
0.846079
0.701809
0.677817
0.701351
0.508967
0.338713
0.252465
0.114039
-0.0232958
-0.146961
-0.319435
-0.519227
-0.698033
-1.05764
-1.48524
-1.56001
-1.78027
-2.30171
-2.38773
-2.6411
-3.31843
-4.82928
-6.7535
-7.83157
-11.1492
-14.9065
-11.5655
-5.45178
-2.67593
-1.46402
-0.859102
-0.508527
-0.271379
-0.0853154
1.73986
3.27805
4.61929
6.16447
4.81852
3.95395
4.38144
3.3668
2.57966
2.43608
2.77187
3.29651
2.73395
2.98414
3.58426
2.73855
2.18284
2.33322
1.77949
1.34554
1.24412
1.37867
1.60333
1.30209
1.37347
1.60015
1.17553
0.843711
0.750695
0.798517
0.902869
0.700064
0.693914
0.772646
0.530452
0.340127
0.278499
0.131054
-0.00828617
-0.118718
-0.29509
-0.50239
-0.64666
-1.04508
-1.56151
-1.53285
-1.72067
-2.37841
-2.32718
-2.49307
-3.11361
-4.80618
-7.06184
-7.73386
-11.797
-17.2693
-12.8563
-5.00744
-2.22401
-1.16703
-0.672884
-0.395167
-0.210075
-0.0659133
2.18216
3.57227
4.94563
7.0594
5.01052
3.89403
4.77785
3.41574
2.46398
2.33815
2.78509
3.56167
2.6569
3.01578
3.96616
2.77548
2.1006
2.49549
1.77779
1.26655
1.18095
1.37406
1.72334
1.26157
1.38291
1.76678
1.19071
0.797914
0.717854
0.799576
0.977947
0.685104
0.703573
0.862524
0.547494
0.332781
0.309198
0.146779
0.00411494
-0.0872493
-0.269716
-0.490549
-0.580352
-1.0251
-1.6713
-1.49225
-1.6319
-2.49968
-2.2546
-2.32077
-2.84526
-4.74602
-7.46376
-7.41114
-12.3213
-20.197
-14.3228
-4.2401
-1.67508
-0.845049
-0.480289
-0.280397
-0.148648
-0.0465645
2.78898
3.85466
5.21193
8.17254
5.13648
3.71308
5.29578
3.43716
2.30229
2.20909
2.77734
3.91919
2.50511
3.00948
4.46372
2.7789
1.95582
2.71946
1.7634
1.16471
1.10332
1.35999
1.88825
1.18677
1.3757
1.98547
1.1939
0.734788
0.67645
0.794615
1.07887
0.651556
0.704127
0.977776
0.557592
0.313943
0.347141
0.160597
0.0128037
-0.0515238
-0.24308
-0.487326
-0.494999
-0.993533
-1.82731
-1.43372
-1.50201
-2.68445
-2.16596
-2.12768
-2.50358
-4.63799
-8.01938
-6.79574
-12.6392
-23.8468
-15.9854
-3.04156
-1.04284
-0.508426
-0.286018
-0.166346
-0.0880349
-0.0275413
3.62435
4.10823
5.37594
9.57602
5.16576
3.37009
5.98561
3.41674
2.08878
2.04828
2.73752
4.40557
2.2515
2.94975
5.11699
2.73347
1.72768
3.03085
1.72944
1.03695
1.0111
1.33118
2.11546
1.06492
1.34501
2.27382
1.17815
0.651768
0.62688
0.780483
1.21562
0.592346
0.692159
1.12721
0.557269
0.280279
0.395847
0.171621
0.0163946
-0.0101674
-0.214629
-0.497618
-0.385628
-0.944396
-2.04587
-1.35163
-1.3148
-2.95729
-2.05405
-1.91962
-2.07742
-4.46419
-8.81104
-5.80771
-12.64
-28.415
-17.8626
-1.27667
-0.35544
-0.168915
-0.0945085
-0.0548764
-0.0290212
-0.00906925
)
;

boundaryField
{
    left
    {
        type            calculated;
        value           uniform 0;
    }
    right
    {
        type            calculated;
        value           uniform 0;
    }
    interface
    {
        type            calculated;
        value           nonuniform List<scalar> 
64
(
3.62435
4.10823
5.37594
9.57602
5.16576
3.37009
5.98561
3.41674
2.08878
2.04828
2.73752
4.40557
2.2515
2.94975
5.11699
2.73347
1.72768
3.03085
1.72944
1.03695
1.0111
1.33118
2.11546
1.06492
1.34501
2.27382
1.17815
0.651768
0.62688
0.780483
1.21562
0.592346
0.692159
1.12721
0.557269
0.280279
0.395847
0.171621
0.0163946
-0.0101674
-0.214629
-0.497618
-0.385628
-0.944396
-2.04587
-1.35163
-1.3148
-2.95729
-2.05405
-1.91962
-2.07742
-4.46419
-8.81104
-5.80771
-12.64
-28.415
-17.8626
-1.27667
-0.35544
-0.168915
-0.0945085
-0.0548764
-0.0290212
-0.00906925
)
;
    }
    bottom
    {
        type            calculated;
        value           nonuniform List<scalar> 
64
(
0.00532256
0.0158178
0.025719
0.0347932
0.0429579
0.0499975
0.055827
0.0604517
0.0639288
0.0663466
0.067808
0.0684209
0.0682918
0.0675212
0.0662037
0.0644283
0.062279
0.0598345
0.0571665
0.054338
0.0514005
0.0483931
0.0453421
0.0422617
0.0391559
0.0360203
0.0328442
0.0296118
0.026303
0.0228938
0.0193563
0.0156598
0.0117709
0.00765473
0.00327611
-0.00139949
-0.00640476
-0.0117693
-0.0175183
-0.0236705
-0.030236
-0.037213
-0.0445836
-0.052309
-0.0603236
-0.0685273
-0.0767787
-0.0848878
-0.0926122
-0.0996573
-0.105685
-0.110332
-0.113236
-0.114072
-0.112594
-0.10866
-0.102258
-0.0935089
-0.082643
-0.0699739
-0.0558571
-0.0406542
-0.0247029
-0.00829001
)
;
    }
    defaultFaces
    {
        type            empty;
    }
}


// ************************************************************************* //
