/*--------------------------------*- C++ -*----------------------------------*\
| =========                 |                                                 |
| \\      /  F ield         | OpenFOAM: The Open Source CFD Toolbox           |
|  \\    /   O peration     | Version:  5.x                                   |
|   \\  /    A nd           | Web:      www.OpenFOAM.org                      |
|    \\/     M anipulation  |                                                 |
\*---------------------------------------------------------------------------*/
FoamFile
{
    version     2.0;
    format      ascii;
    class       volScalarField;
    location    "10.1";
    object      gradTx;
}
// * * * * * * * * * * * * * * * * * * * * * * * * * * * * * * * * * * * * * //

dimensions      [0 -1 0 1 0 0 0];

internalField   nonuniform List<scalar> 
3200
(
45.2118
3.7117
1.64865
1.54011
0.814931
0.771345
0.466723
0.447268
0.293827
0.282721
0.170835
0.166692
0.180696
0.180846
0.173154
0.172312
0.15953
0.158413
0.144287
0.143104
0.128817
0.127647
0.113842
0.112747
0.100204
0.0993173
0.0901407
0.0901342
0.095062
0.164726
0.0824837
0.055244
0.053416
0.0416686
0.0408415
0.0332445
0.0326858
0.0269696
0.0265401
0.0219824
0.0216359
0.0178977
0.0176102
0.0144631
0.014216
0.0114487
0.0112217
0.00856009
0.00832145
0.00520006
0.00506932
0.00506827
0.00502067
0.00395599
0.00384296
0.00219295
0.00202755
-0.000278408
-0.000515769
-0.00387284
-0.00423515
-0.00950092
-0.010106
-0.0191785
-0.0203266
-0.0381864
-0.0408593
-0.0840591
-0.092984
-0.238843
-0.617587
-0.436428
-0.681947
-0.713321
-1.26874
-1.24311
-0.0558185
-0.00753252
-0.0015261
-52.9454
47.8962
3.10508
1.57722
1.35445
0.774041
0.68099
0.436315
0.394715
0.271787
0.248194
0.160332
0.151487
0.160987
0.161195
0.155215
0.153442
0.143359
0.140994
0.129816
0.127309
0.115994
0.113515
0.102585
0.100265
0.0903587
0.0884949
0.0814218
0.0815719
0.0883539
0.137345
0.0765853
0.0516049
0.0475339
0.0380024
0.0362287
0.0301723
0.0289839
0.024444
0.023532
0.0199158
0.0191804
0.016215
0.0156049
0.0131082
0.0125837
0.0103873
0.00990532
0.00779122
0.00728754
0.00485143
0.00457363
0.00452814
0.00442414
0.00358372
0.00334418
0.00203567
0.00168447
-0.000147902
-0.000652454
-0.00332375
-0.00409478
-0.00829248
-0.0095827
-0.0168404
-0.019299
-0.0337014
-0.0394916
-0.07508
-0.0950063
-0.227187
-0.517961
-0.415048
-0.602341
-0.666938
-1.08549
-1.03182
-0.121895
-0.0209064
-0.00438832
-54.7416
50.5638
2.57631
1.45359
1.18309
0.713656
0.5967
0.397783
0.345415
0.245773
0.216238
0.146669
0.135548
0.141649
0.141791
0.137109
0.134904
0.126879
0.123928
0.114997
0.111865
0.102818
0.0997202
0.0909829
0.0880876
0.0801912
0.0778808
0.072414
0.0727443
0.0799575
0.114354
0.0692557
0.0471294
0.0418703
0.0340259
0.0317872
0.0269054
0.025416
0.0217732
0.0206321
0.0177338
0.0168141
0.0144381
0.013675
0.0116744
0.0110183
0.00925731
0.00865423
0.00695792
0.00633091
0.00441646
0.00406864
0.00399034
0.00385707
0.0031874
0.00288814
0.0018401
0.00140062
-7.05177e-05
-0.000702477
-0.00285069
-0.00381735
-0.00720035
-0.00882068
-0.0146942
-0.0177937
-0.029561
-0.036932
-0.0667274
-0.0925384
-0.209188
-0.434082
-0.38206
-0.527644
-0.606396
-0.921118
-0.854771
-0.155615
-0.0309014
-0.00673414
-56.5377
53.2109
2.11311
1.29587
1.01968
0.639173
0.515687
0.35339
0.298006
0.216956
0.185883
0.130667
0.118921
0.12255
0.12258
0.118903
0.116598
0.110196
0.107102
0.0999461
0.0966586
0.0894042
0.0861514
0.0791477
0.0761098
0.0698003
0.067393
0.0631743
0.0636413
0.0704736
0.0945432
0.0610071
0.0419792
0.03631
0.0298251
0.0274514
0.0235027
0.0219342
0.0190023
0.0178025
0.0154727
0.014506
0.0125967
0.0117946
0.0101868
0.00949714
0.008081
0.00744685
0.00608184
0.00542577
0.00391881
0.00355287
0.00345472
0.00331143
0.00277626
0.00246204
0.00162017
0.00115804
-2.67081e-05
-0.000691857
-0.0024249
-0.00344327
-0.00617874
-0.00788853
-0.0126589
-0.0159418
-0.0255964
-0.0334754
-0.0585341
-0.086437
-0.186858
-0.36128
-0.341168
-0.45562
-0.536416
-0.771994
-0.703039
-0.166357
-0.0368746
-0.00833432
-58.3335
55.8364
1.70403
1.1165
0.860451
0.554409
0.436228
0.30472
0.251623
0.186139
0.156494
0.112927
0.101678
0.103594
0.103518
0.100643
0.098457
0.0933808
0.0904375
0.0847407
0.0816104
0.0758301
0.0727326
0.0671537
0.0642629
0.0592532
0.0569777
0.0537472
0.0542837
0.0603002
0.0770363
0.0521782
0.0362945
0.0307823
0.0254598
0.0231785
0.0200047
0.018507
0.0161621
0.015018
0.0131571
0.0122356
0.010711
0.00994642
0.00866241
0.00800497
0.00687339
0.00626869
0.00517738
0.00455465
0.0033755
0.00302637
0.0029209
0.00278146
0.00235626
0.00205704
0.00138504
0.00094435
-3.68943e-06
-0.000638527
-0.00202769
-0.00300051
-0.00519815
-0.00683396
-0.0106832
-0.0138349
-0.0217028
-0.0293317
-0.0502271
-0.0774349
-0.161569
-0.296259
-0.294894
-0.384942
-0.460245
-0.635051
-0.570017
-0.160811
-0.0388102
-0.00906581
-60.129
58.4419
1.33862
0.923876
0.70322
0.46213
0.357301
0.252913
0.205736
0.153888
0.127662
0.093894
0.0839092
0.0847179
0.0845674
0.0823547
0.0804313
0.0764803
0.0738834
0.0694326
0.0666683
0.0621487
0.059413
0.0550522
0.0525008
0.0485967
0.0466004
0.0441693
0.0447068
0.049698
0.0611932
0.0429902
0.030195
0.025247
0.0209729
0.0189413
0.0164397
0.0151136
0.0132739
0.0122621
0.0108039
0.00998923
0.00879486
0.008119
0.00711298
0.00653176
0.00564469
0.00510999
0.00425416
0.00370577
0.00279899
0.00249011
0.00238843
0.00226292
0.00193122
0.00166694
0.00114065
0.000750949
6.79511e-06
-0.00055503
-0.00164715
-0.00250876
-0.00424004
-0.00569086
-0.00873534
-0.0115394
-0.0178187
-0.0246573
-0.0416677
-0.0661558
-0.134258
-0.236681
-0.244963
-0.314855
-0.380094
-0.507701
-0.450761
-0.143777
-0.0370554
-0.00890371
-61.9243
61.0296
1.00743
0.723488
0.546807
0.364401
0.278357
0.198818
0.160036
0.120613
0.0991313
0.0739097
0.0657083
0.0658803
0.0656994
0.0640551
0.0624867
0.0595256
0.0574034
0.054057
0.0517963
0.0483959
0.0461585
0.0428783
0.0407927
0.037864
0.0362406
0.0344726
0.0349518
0.0388356
0.046538
0.0335859
0.0237816
0.0196848
0.0163962
0.0147229
0.0128277
0.0117407
0.0103525
0.00952414
0.00842488
0.00775808
0.00685796
0.00630478
0.00554654
0.00507077
0.00440189
0.00396412
0.00331864
0.00287122
0.00219856
0.00194556
0.0018569
0.00175261
0.00150348
0.00128731
0.000890799
0.000571721
9.98155e-06
-0.000450326
-0.00127583
-0.00198222
-0.00329315
-0.00448401
-0.00679712
-0.0091049
-0.0139123
-0.0195761
-0.0328091
-0.0531322
-0.105573
-0.180869
-0.192567
-0.244953
-0.297448
-0.387734
-0.341507
-0.118732
-0.032158
-0.00790577
-63.7193
63.6031
0.701903
0.518809
0.390622
0.262817
0.199152
0.143093
0.114362
0.0866202
0.0707503
0.0532446
0.0471725
0.0470569
0.0468899
0.0457524
0.0445978
0.0425373
0.0409725
0.038638
0.03697
0.0345966
0.0329456
0.0306567
0.0291184
0.027079
0.0258866
0.0246861
0.0250605
0.0278205
0.0327089
0.0240557
0.0171398
0.0140901
0.0117549
0.0105134
0.00918336
0.00837988
0.00740874
0.00679698
0.00602858
0.00553624
0.00490718
0.00449874
0.0039688
0.00361749
0.00314984
0.00282655
0.00237519
0.00204568
0.00158133
0.00139444
0.001326
0.0012481
0.00107442
0.000914893
0.000637842
0.000402195
9.10685e-06
-0.000331017
-0.000909279
-0.00143151
-0.00235107
-0.00323228
-0.00485912
-0.00657041
-0.00997171
-0.014192
-0.0236669
-0.0388239
-0.0759748
-0.1276
-0.138544
-0.175048
-0.213291
-0.273228
-0.239315
-0.0882399
-0.0247676
-0.00619496
-65.514
66.1661
0.41417
0.311934
0.234422
0.158667
0.119644
0.0862749
0.0686481
0.0521525
0.0424348
0.0321221
0.0283984
0.0282355
0.0281192
0.0274505
0.0267451
0.0255293
0.0245722
0.0231923
0.0221718
0.0207684
0.0197583
0.0184049
0.0174641
0.0162601
0.0155328
0.0148365
0.0150739
0.0167201
0.0194215
0.0144559
0.0103434
0.00846694
0.00706984
0.00630733
0.00551792
0.00502574
0.00445058
0.00407607
0.00362123
0.00331987
0.00294756
0.00269756
0.0023839
0.00216886
0.001892
0.00169409
0.00142687
0.00122552
0.000953007
0.000838565
0.000795469
0.000747409
0.000644781
0.000547173
0.000383225
0.000238963
6.11086e-06
-0.000202185
-0.000544971
-0.000864907
-0.00141052
-0.00195072
-0.00291774
-0.00396832
-0.00599831
-0.00859782
-0.0142975
-0.0236358
-0.0457973
-0.0759593
-0.0834991
-0.105072
-0.128266
-0.162475
-0.141809
-0.0542433
-0.0155812
-0.00394248
-67.3085
68.7228
0.136905
0.10407
0.0781515
0.0530486
0.0399086
0.0288269
0.0228889
0.0174136
0.0141431
0.0107361
0.00948194
0.0094122
0.00937069
0.00914993
0.00891283
0.00851082
0.00818895
0.00773229
0.007389
0.00692447
0.00658465
0.00613674
0.00582026
0.00542207
0.00517782
0.00494964
0.00503083
0.0055776
0.00644074
0.00482203
0.00345756
0.00282455
0.00235939
0.00210238
0.00184059
0.00167492
0.00148439
0.00135836
0.00120773
0.00110633
0.000983042
0.000898925
0.000795054
0.000722695
0.000631002
0.000564405
0.0004759
0.000408213
0.000318354
0.00027984
0.000265136
0.0002489
0.000214942
0.000182105
0.000127818
7.92733e-05
2.13098e-06
-6.79748e-05
-0.000181578
-0.000289278
-0.000470186
-0.000652094
-0.000973022
-0.00132705
-0.00200214
-0.00287961
-0.00478248
-0.00793476
-0.0152999
-0.025223
-0.0278926
-0.0350325
-0.0427998
-0.0539176
-0.0469797
-0.0182906
-0.00531394
-0.00135236
-69.1028
68.7146
0.150884
0.128426
0.107467
0.0852097
0.0726949
0.0607369
0.0533353
0.0448802
0.0387611
0.0310047
0.0281936
0.0283071
0.0282056
0.0273723
0.0264747
0.0249593
0.0237729
0.0221292
0.0209359
0.0193799
0.0182846
0.0168981
0.0159526
0.0148079
0.0141314
0.0135417
0.0138402
0.01552
0.0181077
0.0137303
0.0100728
0.00839329
0.007182
0.00651564
0.00583697
0.00540383
0.00489955
0.00456124
0.00415002
0.00386867
0.00352021
0.00327818
0.00297318
0.00275585
0.0024732
0.00226046
0.00196666
0.00173078
0.00140817
0.00129539
0.00131327
0.0013151
0.0012824
0.00124384
0.00117603
0.00112187
0.0010455
0.000988817
0.000912866
0.000856026
0.000777896
0.000712384
0.000609241
0.00049515
0.000269141
-7.42408e-05
-0.000891378
-0.00242998
-0.00621614
-0.0117838
-0.015068
-0.0220538
-0.0294887
-0.0404329
-0.0360467
-0.0140874
-0.00409751
-0.00104314
-69.8075
66.1412
0.456022
0.385217
0.322452
0.25524
0.218062
0.182028
0.160048
0.134547
0.116349
0.0928162
0.0844638
0.0849298
0.0846461
0.0821196
0.0794487
0.0748647
0.0713369
0.0663695
0.0628222
0.0581213
0.0548655
0.0506768
0.0478659
0.044405
0.0423907
0.0405897
0.0414654
0.0465238
0.0546018
0.0411622
0.0301392
0.0251612
0.0215242
0.0195474
0.0175011
0.0162143
0.014692
0.0136866
0.0124449
0.0116087
0.0105564
0.00983705
0.00891605
0.00827018
0.00741682
0.00678463
0.00589766
0.0051958
0.00421613
0.00388095
0.00394044
0.0039467
0.00384745
0.00373269
0.00352754
0.0033665
0.00313572
0.00296723
0.00273784
0.00256893
0.00233319
0.00213866
0.00182816
0.00148993
0.000812122
-0.000203769
-0.00264527
-0.00720003
-0.0185771
-0.0354428
-0.045056
-0.0661434
-0.0883257
-0.121912
-0.108843
-0.0417834
-0.0120151
-0.00304108
-69.4223
63.5605
0.771353
0.641687
0.537616
0.424068
0.363384
0.302758
0.266902
0.223922
0.19415
0.154021
0.140381
0.141583
0.141176
0.136873
0.132499
0.124728
0.118959
0.110553
0.104755
0.0968049
0.0914838
0.0844003
0.0798051
0.0739443
0.0706415
0.0675306
0.0689233
0.0774069
0.0919566
0.0684974
0.0499638
0.0418754
0.0358001
0.032582
0.0291349
0.0270343
0.0244638
0.0228215
0.0207235
0.0193574
0.0175792
0.016404
0.0148479
0.0137928
0.0123516
0.011319
0.00982128
0.00867196
0.00699832
0.00645073
0.00656977
0.00658252
0.00641313
0.00622517
0.00587731
0.00561394
0.00522347
0.00494808
0.0045604
0.00428452
0.00388684
0.00356959
0.00304821
0.0024983
0.00136864
-0.000276261
-0.00431462
-0.0116972
-0.0307186
-0.0593919
-0.074585
-0.110189
-0.146707
-0.205257
-0.183799
-0.0679878
-0.0191009
-0.00477876
-69.0371
60.9677
1.10395
0.897133
0.753158
0.590782
0.508703
0.422496
0.37404
0.312768
0.272366
0.214165
0.195705
0.1983
0.197863
0.191629
0.185686
0.174511
0.166686
0.154632
0.146773
0.135383
0.128173
0.118024
0.111795
0.103381
0.0988847
0.0942914
0.0960977
0.108047
0.130832
0.0956357
0.0693707
0.0585092
0.0499617
0.0456258
0.0407148
0.0378731
0.0341985
0.0319747
0.028973
0.0271227
0.024578
0.0229863
0.0207598
0.0193309
0.0172701
0.015872
0.013731
0.0121691
0.0097355
0.00899386
0.00920336
0.00922566
0.00897957
0.00872407
0.00822371
0.00786648
0.00730663
0.00693345
0.00637851
0.00600501
0.00543729
0.00500869
0.00426941
0.00352989
0.00194578
-0.000252995
-0.00585018
-0.0157287
-0.0424739
-0.0838801
-0.103297
-0.154198
-0.204206
-0.291803
-0.262529
-0.0915152
-0.0248041
-0.00609883
-68.6517
58.3584
1.4613
1.15007
0.969437
0.754283
0.654188
0.540725
0.481691
0.40078
0.351293
0.27272
0.250187
0.255138
0.254781
0.246373
0.239082
0.22416
0.214582
0.198544
0.188933
0.173795
0.164979
0.151492
0.143872
0.132662
0.127132
0.120796
0.122866
0.138255
0.172027
0.122417
0.0881615
0.0750505
0.0639549
0.0586927
0.0522121
0.0487453
0.0438753
0.041159
0.0371764
0.0349157
0.0315388
0.0295939
0.0266398
0.0248944
0.0221621
0.0204548
0.0176176
0.0157012
0.012405
0.011499
0.0118445
0.0118796
0.0115464
0.0112328
0.0105644
0.0101272
0.00938235
0.00892612
0.00818939
0.00773328
0.00698221
0.00646026
0.00549064
0.00459528
0.00254753
-9.3764e-05
-0.00721446
-0.0190856
-0.0536427
-0.109248
-0.130751
-0.198243
-0.260202
-0.383023
-0.346928
-0.11087
-0.0285871
-0.00686917
-68.2662
55.7288
1.85141
1.39777
1.1871
0.913183
0.800207
0.656776
0.590218
0.487535
0.431384
0.329034
0.303569
0.312189
0.312021
0.301072
0.292783
0.273596
0.262737
0.242199
0.231314
0.211953
0.201972
0.184724
0.176094
0.161715
0.155411
0.146965
0.149102
0.167726
0.216557
0.148584
0.106107
0.0915113
0.0777149
0.0718084
0.0635889
0.0596737
0.053466
0.0503941
0.045311
0.0427535
0.0384423
0.0362421
0.0324716
0.0304974
0.0270132
0.0250828
0.0214674
0.0192885
0.014979
0.0139541
0.014498
0.0145482
0.0141125
0.0137558
0.0128959
0.0124002
0.0114466
0.01093
0.00998909
0.00947339
0.008518
0.00792976
0.00670894
0.00570679
0.00317307
0.000244679
-0.00838867
-0.0215349
-0.0639695
-0.135979
-0.156364
-0.242509
-0.313763
-0.4806
-0.439326
-0.124075
-0.0299475
-0.00699479
-67.8804
53.076
2.28287
1.63576
1.40729
1.06564
0.947444
0.769752
0.700189
0.572429
0.513323
0.382272
0.355589
0.369591
0.369692
0.355666
0.34692
0.322699
0.311279
0.285467
0.274035
0.249737
0.239256
0.217613
0.208545
0.190445
0.183777
0.172711
0.174679
0.19599
0.265759
0.173731
0.122937
0.10794
0.0911594
0.0850167
0.0747936
0.0706939
0.0629314
0.0597097
0.0533448
0.0506615
0.0452615
0.0429531
0.0382316
0.0361609
0.0318022
0.0297783
0.0252598
0.022961
0.0174216
0.0163465
0.0171714
0.0172364
0.0166755
0.0162989
0.0152129
0.0146916
0.0134934
0.012951
0.0117718
0.0112311
0.0100391
0.0094246
0.00791854
0.00687962
0.00381442
0.000811365
-0.00938232
-0.0228127
-0.0731132
-0.164776
-0.179347
-0.287371
-0.3635
-0.586501
-0.542683
-0.128434
-0.0284608
-0.00643094
-67.4943
50.3986
2.76484
1.85701
1.632
1.20917
1.09706
0.878403
0.812488
0.654576
0.598139
0.431336
0.40598
0.427549
0.427929
0.410048
0.401676
0.371289
0.360396
0.328161
0.31727
0.286968
0.276987
0.249998
0.241357
0.218719
0.212318
0.197935
0.199482
0.222316
0.321434
0.19723
0.138335
0.124441
0.104179
0.0983884
0.0857536
0.0818607
0.0722153
0.0691512
0.0612313
0.0586784
0.0519571
0.0497607
0.0438856
0.041916
0.0364979
0.0345737
0.0289635
0.0267633
0.0196857
0.0186629
0.0198752
0.0199496
0.0192312
0.0188704
0.0175074
0.0170101
0.015514
0.0149975
0.0135291
0.013015
0.0115372
0.0109552
0.00910949
0.00813354
0.00445335
0.00166573
-0.0102464
-0.0226155
-0.0806023
-0.196656
-0.198591
-0.333508
-0.407363
-0.703075
-0.660857
-0.120222
-0.0238565
-0.00519661
-67.1081
47.6974
3.30683
2.05094
1.86463
1.34026
1.25094
0.980944
0.928467
0.732664
0.687371
0.474741
0.454495
0.486355
0.486896
0.46405
0.457313
0.419101
0.410368
0.370001
0.361281
0.323386
0.315398
0.28165
0.27473
0.246342
0.241179
0.222522
0.223434
0.245591
0.386041
0.218116
0.151934
0.141196
0.116619
0.112034
0.096364
0.0932578
0.081236
0.0787871
0.0689033
0.0668621
0.0584718
0.0567157
0.0493836
0.0478091
0.0410539
0.0395166
0.0325309
0.0307608
0.0217077
0.02089
0.0226246
0.0226947
0.0217727
0.0214822
0.0197673
0.0193686
0.0174954
0.0170821
0.0152482
0.0148374
0.0129996
0.0125363
0.0102657
0.00949568
0.00505662
0.00288513
-0.0110922
-0.0205936
-0.0857686
-0.233101
-0.212516
-0.382088
-0.442351
-0.833165
-0.798967
-0.094239
-0.0161439
-0.00338659
-66.7217
44.9771
3.91824
2.20209
2.11078
1.45396
1.41205
1.07478
1.05018
0.804732
0.783295
0.510452
0.500926
0.546414
0.546799
0.517408
0.514209
0.465733
0.461605
0.410575
0.40646
0.358609
0.35484
0.312228
0.308962
0.273038
0.27058
0.246327
0.246537
0.264134
0.462984
0.234933
0.163315
0.158505
0.12826
0.126123
0.106472
0.105012
0.089874
0.0887205
0.0762618
0.0752998
0.0647214
0.0638938
0.0546513
0.0539096
0.0454013
0.0446776
0.0358897
0.0350496
0.0234004
0.0230151
0.0254407
0.0254795
0.024289
0.0241509
0.0219747
0.0217862
0.0194186
0.0192236
0.0169104
0.016717
0.014407
0.0141898
0.011362
0.0110046
0.00556926
0.00457684
-0.0121169
-0.0163446
-0.0876484
-0.276261
-0.218834
-0.43504
-0.464117
-0.980256
-0.963898
-0.0431908
-0.00581773
-0.00117777
-66.3352
44.9771
3.91824
2.20209
2.11078
1.45396
1.41205
1.07478
1.05018
0.804732
0.783295
0.510452
0.500926
0.546414
0.546799
0.517408
0.514209
0.465733
0.461605
0.410575
0.40646
0.358609
0.35484
0.312228
0.308962
0.273038
0.27058
0.246328
0.246537
0.264135
0.462985
0.234934
0.163315
0.158506
0.12826
0.126124
0.106472
0.105012
0.0898742
0.0887207
0.076262
0.0753001
0.0647216
0.063894
0.0546515
0.0539098
0.0454015
0.0446778
0.0358899
0.0350497
0.0234004
0.0230152
0.0254408
0.0254796
0.0242891
0.024151
0.0219748
0.0217863
0.0194187
0.0192237
0.0169106
0.0167172
0.0144071
0.0141899
0.0113621
0.0110048
0.00556936
0.00457694
-0.0121168
-0.0163445
-0.0876482
-0.276261
-0.218834
-0.435039
-0.464116
-0.980255
-0.963898
-0.0431907
-0.00581772
-0.0011778
-66.3352
47.6974
3.30683
2.05094
1.86463
1.34026
1.25094
0.980944
0.928467
0.732664
0.687371
0.474741
0.454495
0.486355
0.486896
0.46405
0.457313
0.419101
0.410368
0.370001
0.361281
0.323387
0.315399
0.28165
0.27473
0.246343
0.241179
0.222523
0.223435
0.245591
0.386042
0.218117
0.151934
0.141197
0.116619
0.112034
0.0963643
0.0932581
0.0812363
0.0787873
0.0689035
0.0668623
0.0584721
0.0567159
0.0493838
0.0478093
0.0410541
0.0395168
0.032531
0.0307609
0.0217078
0.0208901
0.0226247
0.0226948
0.0217728
0.0214823
0.0197674
0.0193687
0.0174956
0.0170822
0.0152483
0.0148376
0.0129997
0.0125364
0.0102658
0.00949578
0.00505673
0.00288524
-0.0110921
-0.0205935
-0.0857684
-0.2331
-0.212515
-0.382087
-0.44235
-0.833164
-0.798967
-0.0942389
-0.0161438
-0.0033866
-66.7217
50.3986
2.76484
1.85701
1.632
1.20917
1.09706
0.878403
0.812488
0.654576
0.598139
0.431336
0.40598
0.427549
0.427929
0.410048
0.401676
0.37129
0.360397
0.328161
0.31727
0.286968
0.276987
0.249998
0.241358
0.218719
0.212318
0.197935
0.199483
0.222317
0.321434
0.19723
0.138336
0.124441
0.104179
0.0983887
0.0857538
0.081861
0.0722155
0.0691515
0.0612315
0.0586786
0.0519573
0.0497609
0.0438858
0.0419161
0.036498
0.0345739
0.0289636
0.0267634
0.0196858
0.018663
0.0198753
0.0199497
0.0192313
0.0188705
0.0175075
0.0170102
0.0155141
0.0149976
0.0135292
0.0130151
0.0115373
0.0109553
0.00910959
0.00813363
0.00445344
0.00166582
-0.0102463
-0.0226154
-0.0806022
-0.196656
-0.198591
-0.333508
-0.407362
-0.703074
-0.660856
-0.120222
-0.0238564
-0.00519658
-67.1081
53.076
2.28287
1.63576
1.40729
1.06564
0.947444
0.769752
0.700189
0.572428
0.513323
0.382272
0.355589
0.369591
0.369692
0.355666
0.34692
0.322699
0.311279
0.285467
0.274035
0.249737
0.239257
0.217613
0.208545
0.190446
0.183777
0.172711
0.17468
0.195991
0.26576
0.173732
0.122937
0.107941
0.0911597
0.0850169
0.0747939
0.0706941
0.0629316
0.0597099
0.0533449
0.0506617
0.0452617
0.0429533
0.0382317
0.036161
0.0318023
0.0297785
0.0252599
0.0229611
0.0174217
0.0163465
0.0171715
0.0172365
0.0166756
0.016299
0.015213
0.0146916
0.0134934
0.0129511
0.0117719
0.0112312
0.0100392
0.00942469
0.00791862
0.0068797
0.0038145
0.000811442
-0.00938224
-0.0228126
-0.0731131
-0.164776
-0.179346
-0.287371
-0.3635
-0.5865
-0.542682
-0.128434
-0.0284608
-0.00643088
-67.4943
55.7288
1.85141
1.39777
1.1871
0.913183
0.800207
0.656776
0.590218
0.487535
0.431384
0.329034
0.303569
0.312189
0.312021
0.301073
0.292783
0.273596
0.262737
0.242199
0.231314
0.211954
0.201972
0.184725
0.176094
0.161715
0.155412
0.146965
0.149103
0.167727
0.216557
0.148584
0.106107
0.0915116
0.0777151
0.0718086
0.0635891
0.0596739
0.0534662
0.0503943
0.0453112
0.0427537
0.0384424
0.0362422
0.0324717
0.0304975
0.0270133
0.0250829
0.0214675
0.0192885
0.014979
0.0139541
0.0144981
0.0145483
0.0141126
0.0137558
0.012896
0.0124003
0.0114466
0.0109301
0.00998916
0.00947347
0.00851807
0.00792983
0.00670901
0.00570686
0.00317313
0.000244742
-0.00838861
-0.0215349
-0.0639695
-0.135979
-0.156364
-0.242509
-0.313762
-0.480599
-0.439326
-0.124074
-0.0299474
-0.0069947
-67.8804
58.3584
1.4613
1.15007
0.969437
0.754283
0.654188
0.540724
0.481691
0.40078
0.351293
0.27272
0.250187
0.255138
0.254781
0.246373
0.239082
0.224161
0.214582
0.198544
0.188933
0.173795
0.164979
0.151492
0.143873
0.132662
0.127132
0.120796
0.122867
0.138255
0.172027
0.122417
0.0881618
0.0750507
0.0639551
0.0586928
0.0522123
0.0487454
0.0438755
0.0411592
0.0371765
0.0349158
0.0315389
0.0295941
0.0266399
0.0248945
0.0221622
0.0204549
0.0176177
0.0157012
0.0124051
0.011499
0.0118445
0.0118796
0.0115465
0.0112329
0.0105645
0.0101272
0.00938241
0.00892618
0.00818945
0.00773334
0.00698227
0.00646031
0.0054907
0.00459533
0.00254759
-9.37153e-05
-0.00721441
-0.0190855
-0.0536427
-0.109248
-0.13075
-0.198243
-0.260201
-0.383023
-0.346928
-0.11087
-0.028587
-0.00686906
-68.2662
60.9677
1.10395
0.897133
0.753158
0.590782
0.508703
0.422496
0.37404
0.312768
0.272366
0.214165
0.195705
0.1983
0.197863
0.191629
0.185686
0.174511
0.166686
0.154633
0.146773
0.135384
0.128173
0.118024
0.111795
0.103381
0.0988848
0.0942915
0.0960978
0.108048
0.130832
0.095636
0.0693709
0.0585094
0.0499618
0.0456259
0.040715
0.0378732
0.0341987
0.0319748
0.0289731
0.0271228
0.0245781
0.0229863
0.0207599
0.019331
0.0172702
0.0158721
0.0137311
0.0121692
0.00973554
0.00899389
0.00920339
0.0092257
0.00897961
0.00872411
0.00822376
0.00786653
0.00730667
0.0069335
0.00637856
0.00600505
0.00543734
0.00500874
0.00426945
0.00352993
0.00194582
-0.000252959
-0.00585015
-0.0157287
-0.0424739
-0.08388
-0.103297
-0.154198
-0.204206
-0.291802
-0.262528
-0.091515
-0.0248041
-0.00609872
-68.6517
63.5605
0.771351
0.641687
0.537616
0.424068
0.363384
0.302758
0.266902
0.223922
0.19415
0.154021
0.140381
0.141583
0.141176
0.136873
0.132499
0.124728
0.118959
0.110553
0.104755
0.096805
0.0914839
0.0844004
0.0798052
0.0739444
0.0706416
0.0675307
0.0689234
0.077407
0.0919568
0.0684976
0.0499639
0.0418755
0.0358002
0.0325821
0.029135
0.0270344
0.0244639
0.0228216
0.0207236
0.0193575
0.0175793
0.0164041
0.014848
0.0137929
0.0123517
0.0113191
0.00982132
0.00867199
0.00699835
0.00645075
0.00656979
0.00658255
0.00641315
0.0062252
0.00587734
0.00561397
0.0052235
0.00494812
0.00456043
0.00428455
0.00388687
0.00356962
0.00304824
0.00249833
0.00136866
-0.000276238
-0.0043146
-0.0116972
-0.0307186
-0.0593918
-0.0745849
-0.110189
-0.146706
-0.205257
-0.183799
-0.0679877
-0.0191009
-0.00477866
-69.0371
66.1412
0.456021
0.385217
0.322452
0.255239
0.218062
0.182028
0.160048
0.134547
0.116349
0.0928162
0.0844638
0.0849298
0.0846461
0.0821196
0.0794487
0.0748648
0.0713369
0.0663696
0.0628223
0.0581213
0.0548656
0.0506768
0.0478659
0.0444051
0.0423908
0.0405897
0.0414654
0.0465239
0.0546019
0.0411623
0.0301392
0.0251612
0.0215243
0.0195475
0.0175011
0.0162144
0.0146921
0.0136867
0.0124449
0.0116088
0.0105564
0.00983709
0.00891608
0.00827021
0.00741685
0.00678466
0.00589769
0.00519582
0.00421615
0.00388096
0.00394046
0.00394671
0.00384746
0.00373271
0.00352756
0.00336652
0.00313574
0.00296725
0.00273786
0.00256895
0.0023332
0.00213868
0.00182818
0.00148995
0.000812137
-0.000203756
-0.00264526
-0.00720003
-0.0185771
-0.0354428
-0.045056
-0.0661434
-0.0883256
-0.121912
-0.108843
-0.0417834
-0.0120151
-0.00304101
-69.4223
68.7146
0.150884
0.128426
0.107467
0.0852097
0.0726948
0.0607369
0.0533353
0.0448802
0.0387611
0.0310047
0.0281936
0.0283071
0.0282056
0.0273723
0.0264747
0.0249593
0.0237729
0.0221292
0.0209359
0.0193799
0.0182846
0.0168981
0.0159526
0.0148079
0.0141314
0.0135417
0.0138402
0.0155201
0.0181078
0.0137304
0.0100728
0.00839331
0.00718202
0.00651565
0.00583698
0.00540384
0.00489956
0.00456125
0.00415004
0.00386869
0.00352022
0.00327819
0.00297319
0.00275586
0.00247321
0.00226047
0.00196667
0.00173078
0.00140818
0.00129539
0.00131327
0.00131511
0.00128241
0.00124384
0.00117603
0.00112188
0.00104551
0.000988823
0.000912872
0.000856031
0.000777902
0.000712389
0.000609246
0.000495155
0.000269146
-7.42372e-05
-0.000891376
-0.00242998
-0.00621614
-0.0117838
-0.015068
-0.0220538
-0.0294887
-0.0404329
-0.0360466
-0.0140874
-0.00409749
-0.00104311
-69.8075
68.7223
0.136738
0.103792
0.0777581
0.0524414
0.0390529
0.0275024
0.021089
0.0150022
0.0125848
0.011923
0.011573
0.0110198
0.0105817
0.00996778
0.00952179
0.0089394
0.00852135
0.00797805
0.00758702
0.00707736
0.0067119
0.00623868
0.00590748
0.00549433
0.00524148
0.00500505
0.0050834
0.00563149
0.00650015
0.00486497
0.00348694
0.00284771
0.00237809
0.00211868
0.00185456
0.00168745
0.00149533
0.00136827
0.00121645
0.00111426
0.000990032
0.000905286
0.000800655
0.000727776
0.000635436
0.000568378
0.000479269
0.000411125
0.000320667
0.000281925
0.000267206
0.000250942
0.000216893
0.000183969
0.000129542
8.08905e-05
3.60444e-06
-6.66039e-05
-0.000180339
-0.000288131
-0.000469153
-0.00065114
-0.000972165
-0.00132626
-0.00200142
-0.00287895
-0.00478187
-0.00793416
-0.0152992
-0.0252223
-0.0278921
-0.0350322
-0.0427996
-0.0539174
-0.0469796
-0.0182905
-0.00531392
-0.00135232
-69.1028
66.1649
0.413667
0.3111
0.233246
0.156847
0.117085
0.0823016
0.0632539
0.0448598
0.0376843
0.0357565
0.0347271
0.0330548
0.0317521
0.0298966
0.0285708
0.0268116
0.025569
0.0239281
0.0227658
0.0212263
0.02014
0.0187104
0.0177257
0.0164766
0.0157238
0.0150025
0.0152314
0.0168817
0.0196006
0.0145846
0.0104313
0.00853634
0.00712585
0.00635624
0.00555978
0.00506334
0.00448337
0.00410581
0.00364736
0.00334366
0.00296851
0.00271665
0.00240069
0.0021841
0.0019053
0.00170601
0.00143697
0.00123427
0.00095993
0.000844814
0.000801679
0.000753538
0.000650634
0.000552765
0.000388394
0.000243816
1.05297e-05
-0.000198071
-0.000541255
-0.000861463
-0.00140742
-0.00194786
-0.00291517
-0.00396594
-0.00599617
-0.00859583
-0.0142956
-0.023634
-0.0457954
-0.0759571
-0.0834975
-0.105071
-0.128265
-0.162475
-0.141809
-0.0542431
-0.0155812
-0.00394236
-67.3085
63.601
0.701067
0.517419
0.388675
0.259787
0.194918
0.136471
0.105393
0.0742687
0.0625739
0.0595541
0.057907
0.0550751
0.0529446
0.0498043
0.0476372
0.0446632
0.0426327
0.0398589
0.0379597
0.0353571
0.0335818
0.0311642
0.0295545
0.027439
0.0262048
0.024962
0.0253226
0.0280891
0.0330104
0.0242698
0.0172853
0.0142056
0.011848
0.0105949
0.009253
0.00844257
0.00746332
0.00684657
0.00607208
0.00557591
0.00494206
0.00453058
0.00399675
0.00364292
0.00317197
0.00284644
0.00239201
0.00206027
0.00159282
0.00140482
0.00133635
0.00125832
0.00108417
0.00092422
0.000646453
0.000410289
1.64659e-05
-0.000324156
-0.000903091
-0.00142577
-0.00234591
-0.0032275
-0.00485484
-0.00656645
-0.00996815
-0.0141887
-0.0236639
-0.0388208
-0.0759716
-0.127597
-0.138542
-0.175046
-0.213289
-0.273227
-0.239314
-0.0882396
-0.0247675
-0.0061948
-65.5139
61.0267
1.00627
0.721542
0.54411
0.360166
0.272494
0.189547
0.147533
0.1029
0.0871164
0.0832967
0.0811342
0.0770673
0.0741775
0.069673
0.0667359
0.062477
0.0597261
0.0557548
0.0531817
0.0494548
0.0470493
0.0435858
0.0414036
0.0383661
0.0366862
0.0348574
0.0353175
0.0392103
0.0469667
0.0338846
0.023983
0.0198459
0.0165259
0.014837
0.012925
0.0118285
0.0104288
0.00959364
0.00848566
0.00781367
0.00690671
0.00634939
0.00558561
0.00510641
0.00443282
0.00399201
0.00334214
0.0028917
0.00221453
0.00196004
0.0018714
0.00176695
0.00151714
0.00130038
0.000902844
0.000583065
2.02714e-05
-0.000440712
-0.00126718
-0.00197417
-0.00328594
-0.00447732
-0.00679114
-0.00909935
-0.0139074
-0.0195714
-0.0328048
-0.053128
-0.105569
-0.180864
-0.192563
-0.244951
-0.297446
-0.387733
-0.341506
-0.118732
-0.0321578
-0.00790559
-63.7192
58.4381
1.33713
0.921373
0.699805
0.456695
0.349881
0.240984
0.189778
0.130378
0.11118
0.106973
0.104438
0.0990124
0.0954749
0.089479
0.0858874
0.0802305
0.0768682
0.0715947
0.0684499
0.0634997
0.0605592
0.0559561
0.0532868
0.0492389
0.0471735
0.0446611
0.045175
0.0501769
0.0617566
0.0433723
0.0304502
0.0254536
0.0211386
0.0190881
0.0165643
0.0152266
0.0133716
0.0123516
0.0108818
0.0100608
0.00885735
0.00817645
0.00716307
0.00657767
0.00568435
0.00514594
0.00428429
0.00373218
0.00281933
0.00250863
0.00240708
0.00228138
0.00194877
0.00168377
0.00115612
0.000765557
2.00005e-05
-0.000542651
-0.00163605
-0.00249839
-0.00423079
-0.00568224
-0.00872767
-0.0115323
-0.0178124
-0.0246513
-0.0416622
-0.0661504
-0.134252
-0.236674
-0.244958
-0.314852
-0.380091
-0.5077
-0.45076
-0.143776
-0.0370553
-0.00890352
-61.9243
55.832
1.70223
1.11344
0.856363
0.547771
0.427352
0.290114
0.232352
0.156248
0.134645
0.130583
0.127857
0.120882
0.116871
0.109189
0.105122
0.0978922
0.0940868
0.0873495
0.0837902
0.0774641
0.0741355
0.068249
0.0652252
0.0600324
0.0576786
0.0543438
0.0548531
0.0608804
0.0777449
0.0526414
0.0366003
0.031034
0.0256606
0.0233581
0.0201561
0.0186454
0.016281
0.0151275
0.0132519
0.0123232
0.0107871
0.0100168
0.00872339
0.00806123
0.00692168
0.00631279
0.00521404
0.0045871
0.00340004
0.00304884
0.00294371
0.00280408
0.0023777
0.00207766
0.00140391
0.000962243
1.24084e-05
-0.000623366
-0.00201417
-0.00298781
-0.00518688
-0.00682341
-0.0106738
-0.0138262
-0.021695
-0.0293244
-0.0502205
-0.0774284
-0.161562
-0.296251
-0.294888
-0.384939
-0.460242
-0.635049
-0.570015
-0.160811
-0.03881
-0.00906565
-60.129
53.2057
2.11102
1.29223
1.01498
0.631321
0.505495
0.336065
0.275658
0.179938
0.157407
0.154139
0.151445
0.142633
0.138413
0.128754
0.124482
0.115417
0.111423
0.102977
0.0992412
0.0913087
0.0878141