/*--------------------------------*- C++ -*----------------------------------*\
| =========                 |                                                 |
| \\      /  F ield         | OpenFOAM: The Open Source CFD Toolbox           |
|  \\    /   O peration     | Version:  5.x                                   |
|   \\  /    A nd           | Web:      www.OpenFOAM.org                      |
|    \\/     M anipulation  |                                                 |
\*---------------------------------------------------------------------------*/
FoamFile
{
    version     2.0;
    format      ascii;
    class       volScalarField;
    location    "1.5";
    object      gradTx;
}
// * * * * * * * * * * * * * * * * * * * * * * * * * * * * * * * * * * * * * //

dimensions      [0 -1 0 1 0 0 0];

internalField   nonuniform List<scalar> 
6300
(
-29.3533
-29.4211
-29.5559
-29.7566
-30.0209
-30.3459
-30.7276
-31.1608
-31.6393
-32.1555
-32.7006
-33.2649
-33.8379
-34.4093
-34.9691
-29.2856
-29.354
-29.4902
-29.693
-29.9602
-30.2892
-30.676
-31.1156
-31.6017
-32.1266
-32.6815
-33.2561
-33.8396
-34.421
-34.9894
-29.1494
-29.2191
-29.3579
-29.5648
-29.8379
-30.1748
-30.5717
-31.0239
-31.5252
-32.0679
-32.6425
-33.2385
-33.8436
-34.4455
-35.032
-28.9437
-29.0151
-29.1576
-29.3704
-29.652
-30.0003
-30.4121
-30.8831
-31.4074
-31.9771
-32.5825
-33.2116
-33.8509
-34.4855
-35.1006
-28.6665
-28.7401
-28.8871
-29.1072
-29.3994
-29.7622
-30.1934
-30.6892
-31.2441
-31.8507
-32.4986
-33.1747
-33.8629
-34.545
-35.2021
-28.3156
-28.3916
-28.5437
-28.7719
-29.0761
-29.4559
-29.9101
-30.436
-31.0294
-31.6831
-32.3866
-33.1256
-33.881
-34.6297
-35.3461
-27.8889
-27.9671
-28.1241
-28.3605
-28.6773
-29.0753
-29.555
-30.1155
-30.7542
-31.4655
-32.2394
-33.0602
-33.9057
-34.7465
-35.5473
-27.3839
-27.464
-27.6251
-27.8688
-28.1972
-28.6131
-29.119
-29.7168
-30.4066
-31.1854
-32.0451
-32.9701
-33.9352
-34.9035
-35.8258
-26.7988
-26.8799
-27.0436
-27.2922
-27.6298
-28.0609
-28.5912
-29.2261
-29.9701
-30.8245
-31.7855
-32.84
-33.9617
-35.1065
-36.2079
-26.1325
-26.2134
-26.377
-26.6269
-26.9687
-27.4096
-27.9588
-28.6264
-29.423
-30.3572
-31.4324
-32.6425
-33.965
-35.353
-36.7239
-25.3853
-25.4642
-25.6241
-25.8698
-26.2085
-26.6501
-27.2079
-27.8978
-28.7384
-29.7487
-30.9446
-32.3328
-33.9027
-35.6168
-37.3936
-24.5594
-24.6339
-24.7855
-25.0198
-25.3452
-25.7745
-26.3248
-27.0186
-27.8842
-28.9547
-30.2644
-31.8412
-33.6962
-35.8175
-38.1778
-23.6589
-23.7265
-23.8644
-24.0785
-24.3782
-24.778
-25.2982
-25.9675
-26.825
-27.9214
-29.3169
-31.0714
-33.2232
-35.7793
-38.8259
-22.6909
-22.7487
-22.8671
-23.0515
-23.3113
-23.661
-24.1225
-24.7283
-25.527
-26.5889
-28.0104
-29.9041
-32.346
-35.2507
-38.4723
-21.665
-21.7105
-21.8037
-21.9491
-22.1545
-22.4323
-22.8024
-23.2963
-23.9658
-24.8967
-26.2312
-28.1885
-31.0063
-34.4069
-34.9654
-35.4655
-35.8966
-36.3062
-36.6926
-37.0552
-37.3937
-37.7089
-38.0011
-38.2709
-38.518
-38.7422
-38.9427
-39.1186
-39.2692
-39.3948
-39.4961
-39.575
-39.6343
-39.6776
-39.7089
-39.7321
-39.7508
-39.7677
-39.7843
-39.8011
-39.8173
-39.8316
-39.8421
-39.8468
-39.8444
-39.8342
-39.8165
-39.7926
-39.7647
-39.7354
-39.7072
-39.6826
-39.6632
-39.6495
-39.6412
-39.6369
-39.6345
-39.6315
-39.6257
-39.6151
-39.5986
-39.5764
-39.5494
-39.5194
-39.4887
-39.4598
-39.4347
-39.4149
-39.4008
-39.3918
-39.3863
-39.3821
-39.3767
-39.3675
-39.3527
-39.3311
-39.3025
-39.268
-39.2293
-39.1886
-39.1485
-39.1109
-39.0774
-39.0485
-39.0238
-39.002
-38.9812
-38.9594
-38.9347
-38.906
-38.8734
-38.8379
-38.8022
-38.7699
-38.7452
-38.7327
-38.7369
-38.7611
-38.8075
-38.8766
-38.9667
-39.0747
-39.1952
-39.3219
-39.4475
-35.4922
-35.9274
-36.3396
-36.7271
-37.0896
-37.4276
-37.7419
-38.0336
-38.3034
-38.5512
-38.7765
-38.9781
-39.1548
-39.3055
-39.4298
-39.5284
-39.6032
-39.6574
-39.6949
-39.7205
-39.7387
-39.7536
-39.7681
-39.7841
-39.8018
-39.8202
-39.8372
-39.8504
-39.8572
-39.8557
-39.845
-39.8254
-39.7985
-39.7669
-39.7337
-39.7022
-39.6752
-39.6549
-39.6418
-39.6355
-39.6342
-39.6354
-39.6358
-39.6326
-39.6234
-39.607
-39.5834
-39.5537
-39.5204
-39.4862
-39.4543
-39.4272
-39.4068
-39.3935
-39.3867
-39.3844
-39.384
-39.3821
-39.3757
-39.3625
-39.341
-39.3111
-39.2741
-39.232
-39.1879
-39.1447
-39.1051
-39.0708
-39.0425
-39.0196
-39.0005
-38.9826
-38.9634
-38.9403
-38.9117
-38.8773
-38.8383
-38.7974
-38.7588
-38.7274
-38.7088
-38.7079
-38.7291
-38.7749
-38.846
-38.9411
-39.0564
-39.1862
-39.3233
-39.4596
-35.548
-35.9915
-36.4085
-36.7978
-37.1596
-37.4954
-37.8075
-38.0978
-38.3675
-38.6169
-38.8449
-39.0496
-39.2286
-39.3798
-39.5019
-39.595
-39.6613
-39.7044
-39.7296
-39.7428
-39.7502
-39.7568
-39.7666
-39.7816
-39.8017
-39.8251
-39.8485
-39.8679
-39.8795
-39.8803
-39.8687
-39.845
-39.8114
-39.7714
-39.7296
-39.6906
-39.6585
-39.6362
-39.6245
-39.6227
-39.6282
-39.6372
-39.6453
-39.6481
-39.6423
-39.626
-39.5991
-39.5635
-39.5226
-39.4805
-39.4418
-39.4102
-39.3883
-39.3769
-39.3751
-39.38
-39.3878
-39.3939
-39.3939
-39.3842
-39.363
-39.3301
-39.2873
-39.2378
-39.1858
-39.1358
-39.0915
-39.0555
-39.0286
-39.0099
-38.997
-38.9861
-38.973
-38.9538
-38.9257
-38.8879
-38.8412
-38.7892
-38.7371
-38.6913
-38.6591
-38.6472
-38.6615
-38.7056
-38.781
-38.8862
-39.0171
-39.1667
-39.326
-39.4847
-35.6376
-36.0938
-36.5175
-36.908
-37.2668
-37.5976
-37.9046
-38.1915
-38.461
-38.7133
-38.9469
-39.1581
-39.3426
-39.4961
-39.6156
-39.7005
-39.7527
-39.7774
-39.7816
-39.7738
-39.7626
-39.7555
-39.7577
-39.7717
-39.7969
-39.83
-39.8655
-39.8968
-39.9176
-39.9228
-39.9099
-39.879
-39.8334
-39.7786
-39.7214
-39.6692
-39.628
-39.6021
-39.593
-39.5994
-39.6172
-39.6406
-39.6625
-39.6762
-39.6764
-39.6601
-39.6274
-39.581
-39.5264
-39.4701
-39.4191
-39.3793
-39.3547
-39.3467
-39.3537
-39.3715
-39.3942
-39.4146
-39.4258
-39.4226
-39.4018
-39.3633
-39.31
-39.247
-39.181
-39.1187
-39.066
-39.0269
-39.0028
-38.992
-38.9906
-38.9926
-38.9912
-38.9799
-38.9539
-38.9109
-38.8519
-38.7812
-38.706
-38.6356
-38.58
-38.5489
-38.5507
-38.5912
-38.6728
-38.7944
-38.9508
-39.1331
-39.3293
-39.5255
-35.7692
-36.243
-36.6745
-37.0637
-37.4146
-37.7342
-38.0305
-38.3106
-38.5791
-38.8369
-39.081
-39.3052
-39.5013
-39.6614
-39.7794
-39.8528
-39.884
-39.8798
-39.8508
-39.8097
-39.7694
-39.7409
-39.7319
-39.7458
-39.781
-39.8316
-39.8885
-39.9409
-39.978
-39.9916
-39.977
-39.9344
-39.8688
-39.7891
-39.7063
-39.6319
-39.5755
-39.5439
-39.5393
-39.5596
-39.5984
-39.6461
-39.6915
-39.7237
-39.7342
-39.718
-39.6753
-39.6106
-39.5326
-39.4521
-39.3803
-39.3266
-39.2973
-39.2948
-39.3166
-39.3562
-39.4038
-39.4483
-39.4787
-39.4862
-39.466
-39.418
-39.3467
-39.2607
-39.1707
-39.0876
-39.0209
-38.9769
-38.9576
-38.9606
-38.9793
-39.004
-39.0236
-39.0272
-39.0064
-38.9569
-38.8792
-38.7795
-38.6681
-38.5585
-38.4654
-38.4032
-38.3842
-38.4173
-38.5069
-38.6523
-38.8471
-39.0793
-39.3323
-39.5864
-35.9559
-36.4532
-36.8924
-37.2746
-37.6076
-37.9043
-38.1796
-38.4464
-38.7128
-38.9804
-39.244
-39.4926
-39.7119
-39.8873
-40.0073
-40.0662
-40.0664
-40.018
-39.9375
-39.8446
-39.7592
-39.6982
-39.6734
-39.6892
-39.7428
-39.8242
-39.9182
-40.0069
-40.0726
-40.1011
-40.0845
-40.023
-39.9247
-39.8041
-39.6793
-39.5686
-39.4876
-39.4467
-39.4499
-39.4933
-39.5668
-39.655
-39.7395
-39.8028
-39.8304
-39.8144
-39.7547
-39.6594
-39.5425
-39.4218
-39.3154
-39.2386
-39.2016
-39.2079
-39.254
-39.3292
-39.4181
-39.5025
-39.5645
-39.5898
-39.5704
-39.506
-39.4046
-39.2802
-39.1503
-39.0329
-38.9432
-38.8911
-38.8802
-38.9064
-38.9592
-39.0229
-39.079
-39.1096
-39.1003
-39.0432
-38.9384
-38.7946
-38.6276
-38.4574
-38.3062
-38.1952
-38.1426
-38.162
-38.2607
-38.4391
-38.6894
-38.9956
-39.3336
-39.6747
-36.2179
-36.7471
-37.1926
-37.5563
-37.8527
-38.1055
-38.3412
-38.5828
-38.8447
-39.1297
-39.4286
-39.7223
-39.9859
-40.1932
-40.3231
-40.3642
-40.3188
-40.2027
-40.0421
-39.8687
-39.7137
-39.6037
-39.5564
-39.5784
-39.6646
-39.7986
-39.9557
-40.1062
-40.2208
-40.2755
-40.2567
-40.1645
-40.0127
-39.8253
-39.6321
-39.4626
-39.3418
-39.2864
-39.3024
-39.3839
-39.5143
-39.669
-39.8184
-39.9332
-39.9894
-39.9736
-39.8857
-39.7392
-39.5579
-39.3711
-39.2079
-39.0933
-39.0434
-39.064
-39.1493
-39.2825
-39.4388
-39.5888
-39.7032
-39.7579
-39.7393
-39.6475
-39.4956
-39.3074
-39.112
-38.9384
-38.8111
-38.7462
-38.7493
-38.814
-38.9235
-39.0524
-39.171
-39.2494
-39.2631
-39.1979
-39.0535
-38.8432
-38.5913
-38.329
-38.0891
-37.9031
-37.7974
-37.7922
-37.8995
-38.1221
-38.4513
-38.8657
-39.3306
-39.802
-36.5864
-37.1616
-37.6104
-37.9348
-38.1609
-38.3314
-38.4941
-38.6899
-38.9435
-39.2591
-39.6206
-39.9955
-40.3408
-40.6108
-40.7668
-40.7868
-40.673
-40.4513
-40.1654
-39.8663
-39.6036
-39.4189
-39.3394
-39.3754
-39.5177
-39.74
-40.0025
-40.2573
-40.4554
-40.5558
-40.5347
-40.3921
-40.1519
-39.8552
-39.5508
-39.2864
-39.1019
-39.0235
-39.0606
-39.2039
-39.4271
-39.6907
-39.9471
-40.1479
-40.2523
-40.2367
-40.1011
-39.8691
-39.5814
-39.2862
-39.0308
-38.8546
-38.7837
-38.8271
-38.9755
-39.2026
-39.4688
-39.7266
-39.9277
-40.0314
-40.0139
-39.8753
-39.6389
-39.3452
-39.0422
-38.7772
-38.589
-38.5035
-38.5294
-38.657
-38.8596
-39.0969
-39.3209
-39.4823
-39.5392
-39.4668
-39.2635
-38.9514
-38.5702
-38.1681
-37.7945
-37.495
-37.3073
-37.2602
-37.3724
-37.6514
-38.0906
-38.6628
-39.318
-39.9871
-37.109
-37.7583
-38.2075
-38.4551
-38.549
-38.5684
-38.5995
-38.7139
-38.9531
-39.3225
-39.7935
-40.3114
-40.8041
-41.1927
-41.4064
-41.4024
-41.1823
-40.7927
-40.3079
-39.8114
-39.3815
-39.0824
-38.9565
-39.0192
-39.2556
-39.6236
-40.0606
-40.49
-40.8308
-41.0113
-40.9878
-40.7602
-40.3725
-39.8962
-39.4118
-38.9954
-38.7092
-38.5944
-38.666
-38.9089
-39.2819
-39.7228
-40.156
-40.5014
-40.6881
-40.6728
-40.4554
-40.0794
-39.6156
-39.1439
-38.7397
-38.4645
-38.3595
-38.4391
-38.6885
-39.0663
-39.5107
-39.9461
-40.2926
-40.4794
-40.4631
-40.2438
-39.8646
-39.3961
-38.918
-38.5052
-38.2191
-38.1003
-38.1631
-38.3922
-38.7455
-39.1606
-39.5609
-39.8654
-40.0017
-39.9241
-39.6299
-39.1592
-38.579
-37.9658
-37.3933
-36.9258
-36.6148
-36.4988
-36.6047
-36.9502
-37.5381
-38.3403
-39.2854
-40.2615
-37.8577
-38.6433
-39.0948
-39.197
-39.0445
-38.7885
-38.5851
-38.5579
-38.7754
-39.2396
-39.8988
-40.6637
-41.4176
-42.0263
-42.3596
-42.329
-41.936
-41.2712
-40.4672
-39.6605
-38.9713
-38.4965
-38.3021
-38.4131
-38.8038
-39.4081
-40.1297
-40.8504
-41.4369
-41.7607
-41.7347
-41.359
-40.721
-39.9488
-39.1752
-38.5172
-38.0695
-37.8971
-38.0246
-38.4268
-39.0389
-39.766
-40.4914
-41.0835
-41.415
-41.3999
-41.0381
-40.4162
-39.6613
-38.9047
-38.2627
-37.8295
-37.6693
-37.8066
-38.2166
-38.8344
-39.5655
-40.2936
-40.8873
-41.2198
-41.2048
-40.8424
-40.2189
-39.461
-38.6996
-38.0508
-37.6081
-37.4356
-37.5575
-37.9482
-38.5425
-39.2453
-39.939
-40.4908
-40.7719
-40.6931
-40.2505
-39.5247
-38.6352
-37.7049
-36.8409
-36.131
-35.6414
-35.418
-35.4917
-35.8998
-36.6772
-37.8118
-39.2079
-40.678
-38.9356
-40.0094
-40.4854
-40.306
-39.689
-38.933
-38.3172
-38.0495
-38.2426
-38.8756
-39.8522
-41.0318
-42.24
-43.2567
-43.8367
-43.7778
-43.081
-41.9502
-40.6305
-39.3405
-38.2524
-37.5069
-37.2081
-37.4042
-38.0447
-39.0236
-40.2003
-41.4041
-42.4215
-43.014
-42.9853
-42.3357
-41.2625
-40.0037
-38.772
-37.736
-37.0337
-36.7681
-36.9875
-37.6428
-38.6303
-39.8117
-41.0189
-42.0407
-42.6413
-42.6262
-41.9955
-40.9446
-39.7093
-38.5005
-37.4853
-36.8013
-36.5506
-36.7816
-37.4455
-38.4391
-39.6247
-40.8347
-41.8584
-42.4604
-42.4466
-41.8172
-40.7668
-39.5307
-38.3193
-37.2994
-36.608
-36.3471
-36.5645
-37.2111
-38.1834
-39.3429
-40.5211
-41.506
-42.0601
-41.9861
-41.2789
-40.1255
-38.7503
-37.3482
-36.0666
-35.0187
-34.2847
-33.9091
-33.8971
-34.3176
-35.3016
-36.9067
-39.0235
-41.3308
-40.4621
-42.2363
-42.8198
-42.0453
-40.5342
-38.8761
-37.5482
-36.8774
-37.0766
-38.0169
-39.5131
-41.359
-43.3382
-45.1162
-46.2337
-46.1451
-44.8513
-42.9012
-40.7513
-38.7297
-37.0404
-35.8742
-35.4012
-35.7556
-36.7981
-38.3545
-40.2318
-42.2266
-44.0178
-45.162
-45.13
-43.9226
-42.0714
-40.0198
-38.0872
-36.4742
-35.3692
-34.9409
-35.323
-36.3803
-37.9425
-39.8204
-41.8135
-43.6045
-44.7545
-44.7388
-43.5581
-41.7386
-39.7194
-37.8173
-36.2313
-35.1489
-34.7385
-35.1334
-36.1995
-37.7674
-39.6489
-41.6442
-43.4365
-44.588
-44.5749
-43.398
-41.582
-39.5651
-37.6631
-36.075
-34.9878
-34.5696
-34.9535
-36.005
-37.5546
-39.4136
-41.3817
-43.1413
-44.253
-44.1906
-42.9497
-41.0459
-38.9037
-36.8181
-34.9558
-33.4542
-32.4117
-31.8765
-31.6797
-31.924
-33.0314
-35.2648
-38.5649
-42.3965
-42.429
-46.1775
-47.1096
-44.8454
-41.5915
-38.3445
-35.8333
-34.4528
-34.8432
-36.3576
-38.6706
-41.4943
-44.7262
-47.9267
-50.3678
-50.2478
-47.5667
-44.1398
-40.6875
-37.6403
-35.0751
-33.2435
-32.4031
-33.1161
-34.8118
-37.2232
-40.0943
-43.3423
-46.5457
-49.004
-48.9672
-46.4367
-43.1691
-39.8644
-36.9423
-34.481
-32.7301
-31.9467
-32.6864
-34.3908
-36.8001
-39.6631
-42.8994
-46.0916
-48.5463
-48.529
-46.0408
-42.8203
-39.5611
-36.6788
-34.252
-32.529
-31.7667
-32.5189
-34.2308
-36.6442
-39.5092
-42.7459
-45.9376
-48.3924
-48.3793
-45.8992
-42.6866
-39.4337
-36.5551
-34.1293
-32.4044
-31.6372
-32.3811
-34.0814
-36.4801
-39.3272
-42.5425
-45.7094
-48.1362
-48.0922
-45.5751
-42.3093
-38.9755
-35.9662
-33.3255
-31.2286
-29.8083
-29.3562
-28.8273
-28.2874
-29.1396
-32.0869
-37.3406
-44.2324
-43.8585
-54.1741
-56.0002
-49.0698
-42.6395
-36.7541
-32.4905
-29.4784
-30.9913
-33.5485
-37.0926
-41.0421
-46.1592
-51.8309
-58.1901
-58.0388
-51.3559
-45.4153
-40.0404
-35.8571
-32.0532
-29.1855
-27.1682
-29.0614
-31.7951
-35.4298
-39.4142
-44.5224
-50.1467
-56.4389
-56.3955
-50.0125
-44.3202
-39.1585
-35.1336
-31.4651
-28.6981
-26.7592
-28.6605
-31.3866
-35.0043
-38.9685
-44.0487
-49.6408
-55.8978
-55.8774
-49.5781
-43.9577
-38.8602
-34.8846
-31.2594
-28.5257
-26.6138
-28.5227
-31.2519
-34.8706
-38.8344
-43.9124
-49.4999
-55.7507
-55.7359
-49.4551
-43.8493
-38.7634
-34.7949
-31.1742
-28.4418
-26.5286
-28.4315
-31.1522
-34.7598
-38.7105
-43.7728
-49.3434
-55.5773
-55.5549
-49.2785
-43.6704
-38.5799
-34.5836
-30.912
-28.0286
-25.8104
-26.9466
-25.9906
-22.6459
-22.2307
-25.5878
-33.7571
-47.6091
-38.0949
-74.397
-77.4923
-52.567
-42.9022
-32.8293
-27.3457
-17.9884
-25.6357
-29.318
-34.931
-38.9084
-46.794
-54.745
-75.3875
-75.2353
-54.0762
-45.8763
-37.6777
-33.5273
-27.6835
-23.9032
-16.302
-23.7965
-27.481
-33.1331
-37.1158
-44.9594
-52.7863
-72.9969
-72.9531
-52.5939
-44.7072
-36.8155
-32.812
-27.1509
-23.4739
-16.0417
-23.4472
-27.0985
-32.7097
-36.6669
-44.461
-52.2326
-72.289
-72.2676
-52.1378
-44.3423
-36.5438
-32.5857
-26.9832
-23.339
-15.9591
-23.3455
-26.992
-32.6
-36.5553
-44.3453
-52.1072
-72.1313
-72.1159
-52.0389
-44.2635
-36.4839
-32.5339
-26.94
-23.2994
-15.9249
-23.3044
-26.9457
-32.5452
-36.4932
-44.2709
-52.0221
-72.0271
-72.0235
-52.0193
-44.2862
-36.6085
-32.7334
-27.3632
-23.8707
-16.9823
-27.5497
-26.5936
-12.7861
-9.88977
-12.1591
-21.9906
-54.1934
-39.5751
-39.6929
-39.7789
-39.8273
-39.8363
-39.808
-39.7477
-39.6627
-39.5619
-39.4546
-39.3497
-39.2554
-39.1785
-39.1242
-39.0961
-39.5977
-39.7247
-39.8164
-39.8665
-39.8735
-39.8401
-39.7722
-39.6784
-39.5684
-39.4521
-39.3391
-39.238
-39.1557
-39.0978
-39.0679
-39.6453
-39.7918
-39.8953
-39.9488
-39.9511
-39.9064
-39.8226
-39.7102
-39.5809
-39.4461
-39.3166
-39.2015
-39.1085
-39.0433
-39.0098
-39.7235
-39.9019
-40.0241
-40.082
-40.0756
-40.0116
-39.9014
-39.759
-39.5988
-39.4348
-39.2794
-39.1428
-39.0334
-38.9571
-38.918
-39.8417
-40.068
-40.2171
-40.2796
-40.2577
-40.1629
-40.0124
-39.8253
-39.6204
-39.4149
-39.2232
-39.057
-38.9249
-38.8336
-38.7869
-40.0152
-40.3113
-40.4968
-40.5613
-40.5124
-40.3699
-40.1599
-39.9091
-39.6426
-39.3811
-39.1416
-38.9367
-38.7758
-38.6653
-38.6091
-40.2691
-40.6651
-40.8972
-40.9563
-40.8606
-40.6445
-40.3479
-40.0088
-39.6595
-39.3253
-39.0251
-38.7723
-38.5762
-38.4425
-38.3749
-40.6439
-41.1826
-41.4706
-41.506
-41.329
-40.9994
-40.5783
-40.1186
-39.6611
-39.2353
-38.861
-38.5513
-38.3139
-38.1536
-38.073
-41.2083
-41.9505
-42.2966
-42.2681
-41.95
-41.4456
-40.8472
-40.226
-39.631
-39.0936
-38.6324
-38.2577
-37.9745
-37.785
-37.6902
-42.0829
-43.1146
-43.4972
-43.3194
-42.7573
-41.9856
-41.1389
-40.307
-39.5432
-38.8756
-38.3173
-37.8725
-37.5411
-37.3217
-37.2126
-43.4927
-44.9276
-45.258
-44.755
-43.7742
-42.6004
-41.4158
-40.32
-39.3589
-38.5483
-37.8885
-37.3736
-36.9958
-36.7481
-36.6256
-45.8917
-47.845
-47.8522
-46.6682
-44.9839
-43.2258
-41.6037
-40.198
-39.0241
-38.07
-37.3148
-36.7375
-36.3201
-36.0493
-35.916
-50.2932
-52.7084
-51.6374
-49.0817
-46.2671
-43.715
-41.5752
-39.8441
-38.4695
-37.3927
-36.5632
-35.9413
-35.4978
-35.2127
-35.0731
-59.2649
-61.058
-56.9071
-51.754
-47.2877
-43.7919
-41.1379
-39.1336
-37.6168
-36.468
-35.6038
-34.9665
-34.5172
-34.2303
-34.0905
-80.3924
-75.3512
-63.1788
-53.7394
-47.3376
-43.0268
-40.0509
-37.9356
-36.3958
-35.2588
-34.4174
-33.8036
-33.3739
-33.1008
-32.9681
-20.6828
-20.7152
-20.7811
-20.8837
-21.0277
-21.2215
-21.4787
-21.8226
-22.2949
-22.9755
-24.0293
-25.827
-29.2457
-36.2437
-48.8867
-19.7675
-19.7869
-19.8262
-19.8862
-19.9688
-20.0768
-20.2153
-20.3938
-20.6313
-20.9693
-21.5109
-22.5551
-25.1627
-33.9832
-73.3822
-18.8387
-18.8449
-18.8568
-18.8732
-18.8922
-18.9108
-18.924
-18.9239
-18.8977
-18.8216
-18.6431
-18.1982
-16.7704
-10.4714
24.3076
-17.9056
-17.8989
-17.8842
-17.8583
-17.816
-17.7486
-17.6419
-17.4723
-17.1986
-16.7448
-15.9601
-14.5245
-11.7648
-6.74028
-3.40043
-16.9772
-16.9586
-16.9193
-16.8549
-16.7573
-16.6138
-16.4036
-16.0929
-15.6244
-14.8975
-13.7285
-11.77
-8.33275
-1.84208
13.3671
-16.0616
-16.0326
-15.972
-15.8744
-15.7304
-15.5252
-15.2351
-14.8232
-14.2297
-13.3569
-12.045
-10.0419
-7.02099
-2.99853
-1.45804
-15.1662
-15.1285
-15.0504
-14.9262
-14.7462
-14.4954
-14.1513
-13.6796
-13.0289
-12.1213
-10.8413
-9.02057
-6.40468
-2.43142
5.53699
-14.2969
-14.2524
-14.1608
-14.0166
-13.811
-13.5305
-13.1561
-12.6605
-12.0064
-11.1442
-10.013
-8.55132
-6.73096
-4.63876
-2.68528
-13.4586
-13.4091
-13.3077
-13.1498
-12.9278
-12.6309
-12.2449
-11.7514
-11.1285
-10.354
-9.41421
-8.33111
-7.246
-6.74979
-9.55098
-12.6547
-12.6017
-12.4939
-12.3275
-12.0965
-11.7933
-11.4085
-10.9321
-10.3559
-9.6785
-8.91495
-8.11227
-7.35207
-6.57095
-3.90543
-11.8875
-11.8324
-11.7209
-11.5499
-11.3154
-11.0123
-10.6356
-10.1821
-9.65366
-9.06283
-8.44286
-7.86394
-7.47268
-7.70083
-10.8654
-11.1585
-11.1024
-10.9891
-10.8165
-10.5819
-10.2823
-9.91601
-9.48422
-8.9947
-8.4674
-7.94226
-7.48527
-7.16312
-6.79166
-4.09284
-10.4685
-10.4121
-10.2985
-10.1262
-9.89341
-9.59868
-9.24191
-8.82638
-8.36198
-7.87046
-7.39432
-7.01294
-6.88781
-7.4988
-11.3763
-9.81759
-9.76145
-9.64855
-9.47782
-9.24798
-8.95812
-8.60859
-8.20248
-7.74806
-7.26283
-6.78055
-6.36267
-6.10128
-5.93767
-3.69659
-9.20568
-9.15022
-9.03879
-8.87049
-8.64421
-8.35899
-8.01455
-7.61211
-7.15552
-6.65314
-6.12205
-5.60371
-5.24683
-5.81939
-12.1165
-8.63227
-8.57784
-8.46851
-8.30342
-8.08136
-7.80096
-7.46077
-7.05933
-6.59476
-6.06338
-5.45468
-4.73259
-3.74692
-1.72587
5.99997
-8.09664
-8.04355
-7.93694
-7.77587
-7.559
-7.28442
-6.94951
-6.55036
-6.08038
-5.52727
-4.86602
-4.04451
-2.96601
-1.59427
-1.42795
-7.59784
-7.54643
-7.44315
-7.28707
-7.07668
-6.80975
-6.48284
-6.09054
-5.62371
-5.06624
-4.38863
-3.53485
-2.38869
-0.625823
3.32147
-7.13473
-7.0853
-6.986
-6.83594
-6.63362
-6.3767
-6.06157
-5.68245
-5.22995
-4.68862
-4.03356
-3.22821
-2.23961
-1.17465
-1.24988
-6.70592
-6.65876
-6.56408
-6.42108
-6.22844
-5.98406
-5.6847
-5.32528
-4.89784
-4.38996
-3.78281
-3.04878
-2.14352
-0.931991
1.46986
-6.30982
-6.26521
-6.17569
-6.04067
-5.85915
-5.62956
-5.3495
-5.01533
-4.62157
-4.16021
-3.62013
-2.98823
-2.26008
-1.51629
-1.48592
-5.94468
-5.9028
-5.81886
-5.69252
-5.52322
-5.31008
-5.05185
-4.74673
-4.39222
-3.98507
-3.52118
-2.99448
-2.38744
-1.60552
-0.0500945
-5.6086
-5.56956
-5.49144
-5.37418
-5.21769
-5.02189
-4.78674
-4.51238
-4.19938
-3.84931
-3.46581
-3.0565
-2.63619
-2.23228
-1.90479
-5.2996
-5.26343
-5.19117
-5.08305
-4.93943
-4.76098
-4.54882
-4.30482
-4.03225
-3.73674
-3.42832
-3.12612
-2.87351
-2.80635
-3.53217
-5.01568
-4.98231
-4.91578
-4.81652
-4.68532
-4.52346
-4.33296
-4.11708
-3.88102
-3.63308
-3.38647
-3.16127
-2.98198
-2.83013
-2.24706
-4.7549
-4.7242
-4.66307
-4.57214
-4.45247
-4.30578
-4.13469
-3.94331
-3.73799
-3.52848
-3.32971
-3.1645
-3.07136
-3.15378
-3.97375
-4.51541
-4.48717
-4.43101
-4.34767
-4.23836
-4.10499
-3.95047
-3.7792
-3.59783
-3.41637
-3.24959
-3.11766
-3.03878
-2.96564
-2.32657
-4.29549
-4.26948
-4.2178
-4.1412
-4.04092
-3.91885
-3.77784
-3.62205
-3.45768
-3.29402
-3.14523
-3.03393
-3.00216
-3.17096
-4.17912
-4.0936
-4.06957
-4.02184
-3.95112
-3.85855
-3.74584
-3.61543
-3.47082
-3.31701
-3.1613
-3.01479
-2.89494
-2.82619
-2.79382
-2.24303
-3.90835
-3.88607
-3.84181
-3.77618
-3.69014
-3.58506
-3.46283
-3.32593
-3.1776
-3.02215
-2.86579
-2.72042
-2.62492
-2.77716
-4.41344
-3.73853
-3.7178
-3.67658
-3.61536
-3.53489
-3.43615
-3.32038
-3.18892
-3.04309
-2.8836
-2.7091
-2.51122
-2.25153
-1.73041
0.258727
-3.58305
-3.5637
-3.52519
-3.46787
-3.39228
-3.29903
-3.18876
-3.06185
-2.91802
-2.75541
-2.56861
-2.3449
-2.05963
-1.70364
-1.66688
-3.44097
-3.42287
-3.3868
-3.33302
-3.26188
-3.17369
-3.06865
-2.94648
-2.80595
-2.64395
-2.4537
-2.22127
-1.91679
-1.45571
-0.429843
-3.31142
-3.29446
-3.26066
-3.21019
-3.14325
-3.06001
-2.96038
-2.8438
-2.70875
-2.55207
-2.36802
-2.14764
-1.88261
-1.60056
-1.61776
-3.19358
-3.17771
-3.14605
-3.09873
-3.03591
-2.95766
-2.86384
-2.75389
-2.6265
-2.47914
-2.30752
-2.10495
-1.86018
-1.53816
-0.909859
-3.08672
-3.07187
-3.04226
-2.99799
-2.93922
-2.86606
-2.77844
-2.67605
-2.55807
-2.42299
-2.26846
-2.0915
-1.89134
-1.68904
-1.67367
-2.99012
-2.97624
-2.94858
-2.90726
-2.85249
-2.78444
-2.70326
-2.60898
-2.50145
-2.3803
-2.2449
-2.09411
-1.92391
-1.71069
-1.30297
-2.90309
-2.89014
-2.86433
-2.82583
-2.77491
-2.71188
-2.63711
-2.55105
-2.45423
-2.34744
-2.23197
-2.11016
-1.98626
-1.86802
-1.77325
-2.82501
-2.81291
-2.78883
-2.75298
-2.70569
-2.64741
-2.57876
-2.50053
-2.41389
-2.32056
-2.22339
-2.12759
-2.04462
-2.00966
-2.17787
-2.75526
-2.74395
-2.72145
-2.68801
-2.64404
-2.5901
-2.52699
-2.4558
-2.37812
-2.29628
-2.21381
-2.13604
-2.06956
-2.01083
-1.84933
-2.69332
-2.6827
-2.6616
-2.6303
-2.58925
-2.5391
-2.48077
-2.41553
-2.34518
-2.27236
-2.20091
-2.13659
-2.08906
-2.08399
-2.25891
-2.6387
-2.62868
-2.60878
-2.5793
-2.54072
-2.49373
-2.43929
-2.37873
-2.31391
-2.24744
-2.183
-2.12542
-2.07898
-2.0328
-1.85563
-2.59098
-2.58145
-2.56255
-2.53456
-2.49798
-2.45348
-2.402
-2.34483
-2.28371
-2.22105
-2.16027
-2.10644
-2.06865
-2.07322
-2.26394
-2.54982
-2.54069
-2.52256
-2.49573
-2.46067
-2.418
-2.36861
-2.31362
-2.25452
-2.1933
-2.13263
-2.07628
-2.02882
-1.98501
-1.82439
-2.51494
-2.5061
-2.48855
-2.46257
-2.42857
-2.38714
-2.33903
-2.28519
-2.22675
-2.1651
-2.10194
-2.03989
-1.98637
-1.97857
-2.25392
-2.48615
-2.4775
-2.46034
-2.43491
-2.40158
-2.36086
-2.31339
-2.25988
-2.20115
-2.13788
-2.0704
-1.99752
-1.91208
-1.77617
-1.36521
-2.46329
-2.45476
-2.43781
-2.41267
-2.37966
-2.33921
-2.29186
-2.23815
-2.17862
-2.11353
-2.04255
-1.96381
-1.87276
-1.76546
-1.70088
-2.4463
-2.4378
-2.42091
-2.39582
-2.36283
-2.3223
-2.27468
-2.22041
-2.15988
-2.09322
-2.02001
-1.9386
-1.84464
-1.72576
-1.5278
-2.43515
-2.42662
-2.40964
-2.38441
-2.35117
-2.31026
-2.26205
-2.20695
-2.14532
-2.07738
-2.00309
-1.92202
-1.83375
-1.74169
-1.68147
-2.42986
-2.42123
-2.40405
-2.37849
-2.34477
-2.30321
-2.25415
-2.19797
-2.13508
-2.06589
-1.99081
-1.91039
-1.8254
-1.73619
-1.63343
-2.4305
-2.42171
-2.40422
-2.37816
-2.34376
-2.3013
-2.25111
-2.19358
-2.12915
-2.05841
-1.98219
-1.90185
-1.8199
-1.74082
-1.67424
-2.43717
-2.42818
-2.41026
-2.38357
-2.34829
-2.3047
-2.25312
-2.19391
-2.12754
-2.05468
-1.97634
-1.89438
-1.81231
-1.73748
-1.68912
-2.45003
-2.44078
-2.42234
-2.39486
-2.35853
-2.31359
-2.26035
-2.19914
-2.13038
-2.05467
-1.97295
-1.88691
-1.7996
-1.71647
-1.65044
-2.46926
-2.45969
-2.44064
-2.41224
-2.37467
-2.32819
-2.27305
-2.20955
-2.13799
-2.05876
-1.97248
-1.88025
-1.7839
-1.68431
-1.56607
-2.49506
-2.48513
-2.46537
-2.43591
-2.39695
-2.34873
-2.2915
-2.22549
-2.15085
-2.06768
-1.97607
-1.8764
-1.77037
-1.66581
-1.60857
-2.52768
-2.51735
-2.49677
-2.46611
-2.42558
-2.37546
-2.31598
-2.24735
-2.16957
-2.08239
-1.98519
-1.87688
-1.75574
-1.61516
-1.40267
-2.56742
-2.55661
-2.53511
-2.50309
-2.46082
-2.40861
-2.34677
-2.27549
-2.19474
-2.104
-2.00195
-1.88621
-1.75452
-1.61517
-1.56184
-2.61459
-2.60325
-2.58069
-2.54713
-2.5029
-2.4484
-2.38403
-2.31014
-2.22679
-2.1334
-2.02814
-1.90655
-1.75854
-1.55614
-1.17167
-2.66957
-2.65761
-2.63384
-2.59851
-2.55205
-2.49496
-2.42785
-2.3513
-2.26573
-2.17098
-2.06559
-1.94517
-1.80023
-1.62429
-1.5459
-2.7328
-2.72012
-2.69494
-2.65757
-2.60851
-2.54843
-2.47816
-2.39867
-2.31097
-2.21588
-2.11342
-2.00077
-1.86336
-1.62539
-0.83462
-2.80476
-2.79126
-2.76444
-2.72468
-2.67256
-2.6089
-2.5348
-2.45167
-2.36127
-2.26583
-2.16826
-2.07348
-1.99624
-2.0111
-2.58924
-2.88604
-2.87158
-2.84287
-2.8003
-2.74455
-2.67656
-2.59765
-2.50964
-2.41501
-2.31719
-2.2211
-2.13395
-2.06506
-2.00633
-1.73063
-2.97729
-2.96174
-2.93084
-2.88503
-2.82498
-2.75174
-2.66677
-2.57216
-2.4709
-2.36729
-2.26766
-2.18167
-2.12676
-2.15294
-2.52845
-3.07928
-3.0625
-3.02912
-2.97957
-2.91452
-2.835
-2.74251
-2.63922
-2.52835
-2.41457
-2.30467
-2.20774
-2.13206
-2.05765
-1.73946
-3.19287
-3.17471
-3.13857
-3.08481
-3.01405
-2.92721
-2.82568
-2.7115
-2.58775
-2.4591
-2.3326
-2.219
-2.13639
-2.13234
-2.45977
-3.31901
-3.29935
-3.26018
-3.20179
-3.12467
-3.02956
-2.91756
-2.79035
-2.6505
-2.50207
-2.3515
-2.20867
-2.08608
-1.9775
-1.67752
-3.45874
-3.43749
-3.39508
-3.33172
-3.24773
-3.14358
-3.01996
-2.87791
-2.71913
-2.54646
-2.36495
-2.18424
-2.02597
-1.95624
-2.26377
-3.61317
-3.59025
-3.54447
-3.47592
-3.38473
-3.27106
-3.13509
-2.97704
-2.79735
-2.59693
-2.37779
-2.14415
-1.90428
-1.67365
-1.48708
-3.78345
-3.75883
-3.70961
-3.63578
-3.53729
-3.41398
-3.26548
-3.09113
-2.88991
-2.66034
-2.40064
-2.10832
-1.77611
-1.36112
-0.580982
-3.97077
-3.94445
-3.89178
-3.8127
-3.70702
-3.57432
-3.41376
-3.22384
-3.00208
-2.74462
-2.44607
-2.10015
-1.70535
-1.30282
-1.25312
-4.17631
-4.14829
-4.09224
-4.00804
-3.89547
-3.75395
-3.58236
-3.3786
-3.13897
-2.85738
-2.52433
-2.12585
-1.63987
-1.00013
0.228958
-4.40125
-4.37156
-4.31217
-4.22303
-4.10395
-3.9544
-3.77326
-3.55821
-3.30495
-3.00582
-2.64796
-2.21226
-1.68108
-1.10737
-1.10484
-4.64675
-4.61539
-4.55271
-4.45876
-4.33353
-4.17675
-3.98763
-3.7643
-3.50274
-3.19497
-2.82559
-2.36491
-1.75176
-0.818581
1.23226
-4.91398
-4.88092
-4.81491
-4.71617
-4.58496
-4.42149
-4.22572
-3.99687
-3.73255
-3.42686
-3.06657
-2.62338
-2.04461
-1.30656
-1.1738
-5.2041
-5.16927
-5.09979
-4.99607
-4.85873
-4.68861
-4.48672
-4.25403
-3.99104
-3.69661
-3.36505
-2.97596
-2.44801
-1.3748
2.67943
-5.51837
-5.48162
-5.40839
-5.29926
-5.15521
-4.97774
-4.76905
-4.53218
-4.2713
-3.9921
-3.70343
-3.42491
-3.22999
-3.51378
-6.7761
-5.8581
-5.81925
-5.74187
-5.62665
-5.47485
-5.28851
-5.0709
-4.82697
-4.56423
-4.29411
-4.03471
-3.81575
-3.67946
-3.58486
-2.3732
-6.22475
-6.18359
-6.10158
-5.9794
-5.81841
-5.62095
-5.39097
-5.13476
-4.86222
-4.58864
-4.33786
-4.14915
-4.09993
-4.4322
-6.47821
-6.61994
-6.57626
-6.48912
-6.35905
-6.18723
-5.97593
-5.72919
-5.45385
-5.1609
-4.86727
-4.59786
-4.38565
-4.25543
-4.08993
-2.65499
-7.0454
-6.99906
-6.90642
-6.76765
-6.58344
-6.35547
-6.08723
-5.78513
-5.46001
-5.12905
-4.81808
-4.56518
-4.43539
-4.6297
-6.35388
-7.50299
-7.45398
-7.35569
-7.20775
-7.00997
-6.76293
-6.46874
-6.13235
-5.76313
-5.37691
-4.99793
-4.65917
-4.39024
-4.10754
-2.73178
-7.99457
-7.94306
-7.83939
-7.6824
-7.47068
-7.20307
-6.87951
-6.50231
-6.078
-5.61969
-5.14983
-4.70462
-4.35461
-4.34491
-6.00015
-8.52187
-8.46831
-8.36008
-8.19502
-7.97015
-7.68202
-7.32748
-6.90496
-6.41645
-5.87045
-5.28457
-4.68394
-4.0826
-3.42654
-2.57239
-9.08631
-9.03148
-8.92018
-8.74913
-8.51349
-8.20704
-7.82263
-7.35337
-6.79479
-6.14886
-5.42953
-4.6637
-3.84857
-2.64616
1.44841
-9.68877
-9.63381
-9.52171
-9.34805
-9.10598
-8.78614
-8.37666
-7.86377
-7.23374
-6.47819
-5.60673
-4.67767
-3.88343
-3.87469
-7.4594
-10.3294
-10.2758
-10.166
-9.99441
-9.75241
-9.42744
-9.00246
-8.45546
-7.75982
-6.88799
-5.8239
-4.59798
-3.37277
-2.60825
-3.08477
-11.0071
-10.9567
-10.853
-10.6897
-10.4564
-10.1381
-9.71296
-9.15033
-8.40821
-7.43124
-6.15343
-4.51775
-2.54214
-0.48045
0.958833
-11.7198
-11.6747
-11.5814
-11.4334
-11.2195
-10.923
-10.5189
-9.96979
-9.21966
-8.18337
-6.73143
-4.67355
-1.77124
2.0791
6.00181
-12.4637
-12.4261
-12.3479
-12.2227
-12.0398
-11.7826
-11.4254
-10.9288
-10.2298
-9.22411
-7.73018
-5.41571
-1.65863
4.5879
13.7688
-13.2337
-13.2056
-13.1469
-13.0521
-12.9118
-12.7115
-12.4288
-12.0283
-11.4529
-10.6038
-9.2987
-7.15966
-3.27476
5.05848
27.9111
-158.066
-94.9904
-66.4222
-52.7749
-45.4664
-41.1016
-38.2654
-36.3096
-34.9073
-33.8792
-33.1211
-32.5688
-32.1823
-31.9367
-31.8173
-196.592
-88.8817
-59.009
-47.496
-41.721
-38.2897
-36.0308
-34.4471
-33.294
-32.4377
-31.7995
-31.3309
-31.0011
-30.7907
-30.6882
50.6892
-28.7203
-38.846
-38.2322
-36.3479
-34.6637
-33.3271
-32.2855
-31.4745
-30.8445
-30.3601
-29.9966
-29.737
-29.5697
-29.4877
-7.49008
-16.6737
-26.1407
-29.8508
-30.8357
-30.7961
-30.4185
-29.9637
-29.5293
-29.1501
-28.8366
-28.5901
-28.4086
-28.2893
-28.2303
27.805
-4.43111
-17.4334
-23.3616
-26.0349
-27.1632
-27.5635
-27.6277
-27.5456
-27.4099
-27.2666
-27.1385
-27.0368
-26.9671
-26.9317
-1.61086
-5.54625
-13.6384
-19.1328
-22.3069
-24.0359
-24.9416
-25.3932
-25.599
-25.675
-25.6859
-25.6684
-25.6429
-25.6209
-25.6086
12.1184
-3.77556
-11.6474
-16.5153
-19.5824
-21.4801
-22.635
-23.3295
-23.7425
-23.9851
-24.125
-24.2037
-24.2463
-24.2679
-24.2768
-3.52734
-7.57663
-11.7425
-15.1483
-17.6699
-19.4402
-20.6482
-21.461
-22.0043
-22.3663
-22.6065
-22.764
-22.8644
-22.9236
-22.9511
-16.3612
-11.2976
-12.3653
-14.3953
-16.279
-17.7906
-18.9358