/*--------------------------------*- C++ -*----------------------------------*\
| =========                 |                                                 |
| \\      /  F ield         | OpenFOAM: The Open Source CFD Toolbox           |
|  \\    /   O peration     | Version:  5.x                                   |
|   \\  /    A nd           | Web:      www.OpenFOAM.org                      |
|    \\/     M anipulation  |                                                 |
\*---------------------------------------------------------------------------*/
FoamFile
{
    version     2.0;
    format      ascii;
    class       volScalarField;
    location    "1.5";
    object      T;
}
// * * * * * * * * * * * * * * * * * * * * * * * * * * * * * * * * * * * * * //

dimensions      [0 0 0 1 0 0 0];

internalField   nonuniform List<scalar> 
6300
(
322.853
322.56
322.265
321.968
321.67
321.368
321.063
320.754
320.44
320.121
319.797
319.467
319.131
318.79
318.443
322.854
322.561
322.267
321.971
321.673
321.372
321.067
320.758
320.445
320.126
319.802
319.472
319.137
318.796
318.449
322.854
322.563
322.27
321.976
321.679
321.379
321.075
320.767
320.455
320.137
319.813
319.484
319.149
318.807
318.46
322.855
322.566
322.275
321.983
321.688
321.39
321.088
320.781
320.47
320.153
319.83
319.502
319.166
318.825
318.477
322.857
322.57
322.282
321.992
321.7
321.404
321.105
320.8
320.491
320.175
319.854
319.525
319.19
318.848
318.499
322.859
322.575
322.291
322.004
321.715
321.423
321.126
320.825
320.517
320.204
319.884
319.556
319.221
318.879
318.529
322.861
322.582
322.301
322.019
321.734
321.446
321.153
320.854
320.55
320.239
319.921
319.595
319.26
318.916
318.565
322.863
322.589
322.314
322.037
321.757
321.473
321.184
320.89
320.59
320.282
319.966
319.641
319.307
318.963
318.609
322.866
322.598
322.329
322.057
321.783
321.504
321.221
320.933
320.637
320.333
320.02
319.698
319.364
319.018
318.662
322.869
322.608
322.345
322.08
321.813
321.541
321.264
320.982
320.692
320.393
320.085
319.765
319.432
319.085
318.725
322.873
322.619
322.364
322.107
321.846
321.582
321.313
321.038
320.756
320.464
320.161
319.845
319.514
319.167
318.802
322.877
322.632
322.385
322.136
321.884
321.629
321.369
321.102
320.828
320.545
320.249
319.939
319.612
319.266
318.896
322.882
322.645
322.407
322.168
321.926
321.68
321.43
321.174
320.911
320.638
320.352
320.051
319.731
319.387
319.015
322.887
322.66
322.432
322.202
321.971
321.736
321.497
321.254
321.003
320.743
320.471
320.183
319.873
319.536
319.168
322.892
322.675
322.458
322.239
322.019
321.796
321.57
321.34
321.104
320.86
320.606
320.336
320.042
319.716
319.354
318.12
317.823
317.522
317.217
316.91
316.6
316.287
315.971
315.654
315.334
315.012
314.688
314.363
314.036
313.708
313.379
313.05
312.72
312.389
312.058
311.727
311.396
311.065
310.733
310.402
310.07
309.738
309.406
309.074
308.742
308.41
308.078
307.746
307.415
307.084
306.753
306.422
306.091
305.761
305.431
305.1
304.77
304.44
304.109
303.779
303.449
303.119
302.79
302.46
302.131
301.802
301.473
301.145
300.816
300.488
300.16
299.832
299.503
299.175
298.847
298.519
298.192
297.864
297.537
297.211
296.884
296.558
296.232
295.907
295.581
295.256
294.931
294.607
294.282
293.958
293.634
293.31
292.986
292.663
292.34
292.017
291.695
291.372
291.049
290.725
290.401
290.076
289.749
289.422
289.094
318.125
317.828
317.526
317.222
316.914
316.604
316.291
315.975
315.657
315.336
315.014
314.69
314.364
314.038
313.709
313.38
313.051
312.72
312.39
312.059
311.728
311.396
311.065
310.734
310.402
310.07
309.738
309.406
309.074
308.742
308.41
308.078
307.746
307.415
307.083
306.752
306.422
306.091
305.761
305.43
305.1
304.77
304.44
304.109
303.779
303.449
303.119
302.789
302.46
302.13
301.802
301.473
301.144
300.816
300.488
300.16
299.831
299.503
299.175
298.847
298.519
298.191
297.864
297.537
297.21
296.884
296.558
296.232
295.906
295.581
295.256
294.931
294.606
294.282
293.957
293.633
293.309
292.986
292.663
292.34
292.017
291.695
291.372
291.049
290.726
290.402
290.077
289.751
289.424
289.096
318.136
317.838
317.536
317.231
316.923
316.612
316.298
315.981
315.663
315.342
315.019
314.695
314.368
314.041
313.712
313.382
313.052
312.721
312.39
312.059
311.728
311.397
311.065
310.734
310.402
310.071
309.739
309.406
309.074
308.742
308.41
308.077
307.745
307.414
307.083
306.752
306.421
306.091
305.76
305.43
305.1
304.77
304.439
304.109
303.779
303.448
303.118
302.788
302.459
302.13
301.801
301.472
301.144
300.816
300.488
300.16
299.831
299.503
299.175
298.847
298.518
298.19
297.863
297.536
297.209
296.883
296.557
296.231
295.906
295.581
295.256
294.931
294.606
294.281
293.957
293.632
293.308
292.985
292.662
292.339
292.017
291.695
291.373
291.051
290.728
290.404
290.08
289.754
289.427
289.099
318.152
317.853
317.55
317.244
316.935
316.623
316.309
315.992
315.672
315.351
315.027
314.701
314.374
314.046
313.716
313.385
313.054
312.723
312.391
312.06
311.728
311.397
311.066
310.735
310.403
310.071
309.739
309.407
309.074
308.742
308.409
308.076
307.744
307.412
307.081
306.75
306.42
306.09
305.76
305.43
305.1
304.77
304.439
304.109
303.778
303.448
303.117
302.787
302.457
302.128
301.8
301.471
301.143
300.815
300.488
300.16
299.831
299.503
299.174
298.846
298.517
298.189
297.861
297.534
297.207
296.881
296.555
296.23
295.905
295.58
295.255
294.93
294.605
294.28
293.955
293.631
293.307
292.983
292.66
292.338
292.017
291.695
291.374
291.053
290.731
290.408
290.084
289.759
289.432
289.104
318.174
317.874
317.57
317.262
316.952
316.639
316.323
316.005
315.685
315.362
315.037
314.711
314.382
314.052
313.721
313.389
313.057
312.725
312.392
312.06
311.729
311.398
311.066
310.735
310.404
310.072
309.74
309.408
309.074
308.741
308.408
308.075
307.742
307.41
307.079
306.749
306.419
306.089
305.76
305.43
305.1
304.77
304.44
304.109
303.777
303.446
303.116
302.785
302.455
302.126
301.798
301.47
301.142
300.815
300.487
300.16
299.832
299.503
299.174
298.845
298.516
298.187
297.859
297.531
297.205
296.879
296.553
296.228
295.904
295.579
295.254
294.929
294.604
294.279
293.954
293.629
293.304
292.981
292.658
292.336
292.015
291.695
291.375
291.055
290.735
290.414
290.091
289.766
289.44
289.111
318.201
317.9
317.594
317.285
316.973
316.658
316.341
316.022
315.7
315.376
315.05
314.722
314.392
314.06
313.727
313.394
313.06
312.726
312.393
312.06
311.729
311.398
311.067
310.736
310.406
310.074
309.742
309.409
309.075
308.741
308.407
308.073
307.74
307.407
307.076
306.746
306.417
306.088
305.759
305.43
305.101
304.771
304.44
304.109
303.777
303.445
303.113
302.782
302.452
302.123
301.795
301.468
301.141
300.815
300.488
300.16
299.832
299.503
299.174
298.844
298.514
298.184
297.856
297.528
297.201
296.875
296.55
296.226
295.902
295.578
295.254
294.929
294.603
294.278
293.952
293.626
293.301
292.977
292.654
292.333
292.013
291.695
291.377
291.059
290.741
290.421
290.1
289.776
289.45
289.121
318.235
317.931
317.623
317.311
316.997
316.681
316.362
316.041
315.719
315.394
315.067
314.737
314.405
314.071
313.735
313.398
313.062
312.726
312.392
312.059
311.728
311.397
311.068
310.738
310.408
310.077
309.745
309.411
309.076
308.741
308.405
308.07
307.735
307.403
307.072
306.742
306.414
306.087
305.759
305.431
305.103
304.773
304.442
304.109
303.776
303.443
303.11
302.778
302.448
302.119
301.791
301.465
301.14
300.815
300.489
300.162
299.834
299.505
299.174
298.843
298.512
298.181
297.851
297.522
297.196
296.871
296.547
296.224
295.901
295.578
295.254
294.929
294.603
294.276
293.949
293.622
293.296
292.971
292.648
292.328
292.01
291.693
291.378
291.063
290.748
290.431
290.113
289.791
289.465
289.135
318.276
317.969
317.657
317.342
317.025
316.706
316.386
316.064
315.741
315.415
315.087
314.755
314.42
314.083
313.743
313.403
313.063
312.725
312.389
312.056
311.725
311.396
311.068
310.74
310.412
310.081
309.749
309.415
309.078
308.741
308.402
308.065
307.729
307.396
307.065
306.737
306.41
306.085
305.76
305.434
305.106
304.777
304.445
304.111
303.776
303.44
303.105
302.772
302.441
302.112
301.786
301.462
301.138
300.815
300.491
300.166
299.838
299.508
299.176
298.842
298.508
298.175
297.844
297.515
297.188
296.864
296.542
296.221
295.9
295.579
295.256
294.931
294.604
294.276
293.946
293.617
293.288
292.962
292.639
292.319
292.003
291.69
291.378
291.068
290.757
290.445
290.13
289.81
289.485
289.155
318.325
318.012
317.695
317.376
317.055
316.733
316.412
316.09
315.766
315.441
315.111
314.777
314.439
314.097
313.753
313.407
313.063
312.721
312.383
312.049
311.719
311.393
311.068
310.743
310.418
310.089
309.757
309.421
309.082
308.741
308.399
308.058
307.719
307.385
307.055
306.728
306.405
306.083
305.761
305.438
305.113
304.784
304.451
304.115
303.776
303.436
303.098
302.762
302.43
302.102
301.778
301.456
301.136
300.817
300.496
300.172
299.845
299.514
299.179
298.842
298.504
298.168
297.834
297.503
297.177
296.855
296.535
296.218
295.9
295.582
295.26
294.936
294.608
294.276
293.943
293.61
293.278
292.949
292.625
292.306
291.992
291.683
291.377
291.073
290.769
290.463
290.153
289.837
289.514
289.182
318.382
318.063
317.738
317.411
317.085
316.76
316.438
316.117
315.796
315.471
315.142
314.806
314.464
314.116
313.763
313.41
313.058
312.711
312.37
312.036
311.709
311.387
311.068
310.749
310.427
310.102
309.771
309.433
309.09
308.742
308.394
308.047
307.704
307.368
307.039
306.715
306.397
306.081
305.765
305.447
305.125
304.796
304.462
304.121
303.777
303.431
303.087
302.747
302.413
302.086
301.765
301.448
301.135
300.821
300.504
300.184
299.857
299.524
299.186
298.843
298.499
298.156
297.818
297.486
297.16
296.841
296.526
296.214
295.902
295.588
295.27
294.946
294.616
294.28
293.941
293.6
293.262
292.93
292.604
292.286
291.975
291.672
291.373
291.078
290.783
290.486
290.185
289.875
289.554
289.221
318.451
318.121
317.784
317.446
317.112
316.784
316.463
316.146
315.829
315.508
315.181
314.844
314.497
314.14
313.776
313.41
313.047
312.692
312.347
312.014
311.692
311.377
311.067
310.757
310.443
310.123
309.793
309.453
309.103
308.746
308.386
308.029
307.68
307.342
307.014
306.695
306.385
306.078
305.772
305.462
305.144
304.818
304.481
304.134
303.78
303.424
303.07
302.724
302.387
302.062
301.746
301.437
301.132
300.828
300.519
300.204
299.879
299.543
299.198
298.846
298.49
298.138
297.794
297.459
297.135
296.82
296.513
296.21
295.907
295.601
295.287
294.964
294.631
294.289
293.94
293.588
293.24
292.9
292.571
292.254
291.949
291.653
291.365
291.082
290.8
290.517
290.228
289.928
289.613
289.278
318.535
318.189
317.831
317.475
317.13
316.8
316.482
316.174
315.868
315.556
315.234
314.897
314.545
314.175
313.793
313.404
313.024
312.657
312.309
311.978
311.663
311.36
311.065
310.77
310.469
310.157
309.83
309.487
309.126
308.753
308.374
308.001
307.641
307.3
306.974
306.665
306.367
306.075
305.784
305.487
305.178
304.854
304.514
304.157
303.787
303.411
303.042
302.685
302.346
302.023
301.716
301.42
301.13
300.841
300.545
300.237
299.915
299.577
299.221
298.853
298.478
298.11
297.755
297.417
297.095
296.789
296.494
296.206
295.918
295.623
295.318
294.997
294.661
294.308
293.942
293.57
293.205
292.854
292.521
292.206
291.908
291.623
291.35
291.083
290.819
290.555
290.287
290.005
289.699
289.362
318.644
318.274
317.875
317.489
317.127
316.796
316.488
316.199
315.914
315.618
315.308
314.974
314.616
314.228
313.817
313.389
312.98
312.596
312.244
311.918
311.617
311.333
311.063
310.793
310.511
310.213
309.891
309.545
309.168
308.769
308.352
307.953
307.578
307.233
306.913
306.618
306.339
306.072
305.806
305.527
305.233
304.914
304.572
304.199
303.804
303.39
302.995
302.623
302.281
301.963
301.67
301.392
301.128
300.863
300.586
300.292
299.975
299.634
299.263
298.868
298.456
298.062
297.691
297.351
297.034
296.741
296.465
296.201
295.938
295.662
295.37
295.054
294.714
294.345
293.952
293.542
293.151
292.783
292.446
292.133
291.846
291.578
291.326
291.081
290.836
290.6
290.365
290.115
289.83
289.492
318.8
318.404
317.897
317.47
317.079
316.76
316.467
316.218
315.975
315.701
315.416
315.083
314.732
314.314
313.868
313.344
312.901
312.488
312.144
311.821
311.546
311.287
311.06
310.834
310.576
310.304
309.985
309.647
309.243
308.811
308.302
307.871
307.469
307.133
306.816
306.547
306.292
306.069
305.846
305.591
305.323
305.008
304.673
304.274
303.846
303.342
302.915
302.516
302.182
301.868
301.601
301.347
301.125
300.903
300.65
300.383
300.069
299.735
299.337
298.91
298.408
297.981
297.583
297.251
296.937
296.671
296.418
296.197
295.976
295.723
295.456
295.143
294.811
294.414
293.989
293.488
293.063
292.666
292.335
292.023
291.759
291.508
291.291
291.078
290.842
290.645
290.465
290.274
290.038
289.712
319.045
318.691
317.805
317.4
316.928
316.684
316.381
316.229
316.082
315.801
315.593
315.219
314.944
314.439
314.032
313.183
312.778
312.282
312.013
311.654
311.455
311.192
311.056
310.921
310.66
310.463
310.107
309.844
309.358
308.964
308.142
307.748
307.265
307.003
306.651
306.456
306.199
306.065
305.931
305.674
305.48
305.129
304.869
304.388
303.998
303.183
302.794
302.314
302.055
301.705
301.512
301.256
301.123
300.99
300.734
300.54
300.19
299.93
299.451
299.062
298.249
297.86
297.382
297.122
296.774
296.58
296.325
296.192
296.059
295.803
295.61
295.261
295.002
294.523
294.135
293.323
292.934
292.456
292.196
291.846
291.651
291.39
291.253
291.106
290.794
290.663
290.581
290.498
290.378
290.132
288.732
288.336
287.938
287.54
287.142
286.743
286.345
285.948
285.552
285.157
284.763
284.37
283.978
283.586
283.195
288.733
288.337
287.939
287.54
287.141
286.743
286.345
285.947
285.551
285.156
284.762
284.369
283.977
283.586
283.195
288.736
288.339
287.94
287.541
287.141
286.742
286.343
285.945
285.549
285.154
284.76
284.367
283.976
283.585
283.195
288.74
288.342
287.942
287.542
287.141
286.74
286.34
285.942
285.545
285.15
284.757
284.364
283.974
283.584
283.195
288.747
288.347
287.945
287.543
287.14
286.737
286.336
285.937
285.54
285.145
284.752
284.36
283.971
283.582
283.194
288.756
288.354
287.949
287.544
287.138
286.734
286.331
285.93
285.533
285.138
284.745
284.355
283.966
283.579
283.193
288.768
288.363
287.955
287.545
287.136
286.728
286.323
285.921
285.523
285.128
284.736
284.347
283.961
283.576
283.192
288.785
288.375
287.962
287.546
287.131
286.719
286.311
285.908
285.509
285.115
284.724
284.337
283.953
283.571
283.19
288.809
288.392
287.97
287.546
287.124
286.707
286.296
285.89
285.491
285.098
284.709
284.325
283.944
283.565
283.188
288.842
288.414
287.98
287.544
287.113
286.689
286.273
285.866
285.467
285.075
284.69
284.309
283.932
283.558
283.186
288.888
288.443
287.99
287.538
287.095
286.663
286.243
285.834
285.436
285.047
284.665
284.289
283.918
283.55
283.183
288.955
288.481
287.998
287.524
287.065
286.624
286.201
285.792
285.397
285.012
284.635
284.265
283.9
283.539
283.179
289.053
288.526
287.999
287.494
287.017
286.568
286.143
285.737
285.346
284.967
284.598
284.236
283.879
283.526
283.175
289.198
288.573
287.977
287.435
286.942
286.489
286.066
285.666
285.284
284.914
284.554
284.202
283.855
283.512
283.17
289.409
288.59
287.902
287.326
286.827
286.379
285.967
285.578
285.208
284.851
284.503
284.162
283.827
283.495
283.165
322.897
322.69
322.482
322.274
322.065
321.854
321.64
321.424
321.204
320.978
320.744
320.497
320.228
319.913
319.503
322.901
322.703
322.505
322.307
322.108
321.908
321.706
321.503
321.298
321.091
320.879
320.66
320.428
320.157
319.748
322.906
322.717
322.529
322.34
322.151
321.962
321.773
321.584
321.395
321.206
321.018
320.833
320.654
320.498
320.445
322.91
322.731
322.552
322.374
322.195
322.017
321.84
321.665
321.491
321.321
321.156
321.001
320.866
320.766
320.731
322.915
322.745
322.576
322.407
322.239
322.072
321.907
321.744
321.585
321.431
321.287
321.157
321.051
320.99
321.014
322.92
322.759
322.599
322.44
322.282
322.125
321.971
321.82
321.675
321.536
321.407
321.295
321.207
321.154
321.147
322.924
322.773
322.622
322.472
322.323
322.177
322.033
321.894
321.76
321.633
321.517
321.416
321.337
321.288
321.288
322.928
322.786
322.643
322.502
322.363
322.226
322.092
321.963
321.839
321.723
321.616
321.523
321.445
321.388
321.353
322.933
322.798
322.664
322.532
322.401
322.273
322.149
322.029
321.914
321.806
321.707
321.618
321.54
321.473
321.405
322.937
322.81
322.685
322.56
322.438
322.318
322.202
322.09
321.984
321.883
321.79
321.705
321.628
321.558
321.496
322.94
322.822
322.704
322.587
322.473
322.361
322.253
322.148
322.049
321.955
321.868
321.786
321.71
321.637
321.556
322.944
322.833
322.722
322.613
322.506
322.401
322.3
322.203
322.11
322.023
321.941
321.864
321.791
321.721
321.656
322.948
322.843
322.739
322.637
322.537
322.439
322.345
322.254
322.168
322.087
322.011
321.939
321.871
321.801
321.721
322.951
322.853
322.756
322.66
322.566
322.475
322.387
322.303
322.223
322.148
322.078
322.012
321.95
321.89
321.832
322.954
322.862
322.771
322.681
322.593
322.508
322.426
322.348
322.274
322.205
322.141
322.082
322.029
321.978
321.913
322.957
322.871
322.785
322.701
322.619
322.54
322.463
322.39
322.322
322.258
322.201
322.149
322.106
322.074
322.072
322.959
322.879
322.799
322.72
322.643
322.569
322.497
322.43
322.366
322.308
322.256
322.211
322.175
322.151
322.143
322.962
322.886
322.811
322.737
322.665
322.596
322.529
322.466
322.407
322.354
322.306
322.266
322.235
322.218
322.223
322.964
322.893
322.823
322.753
322.686
322.621
322.558
322.499
322.445
322.395
322.351
322.314
322.286
322.269
322.263
322.966
322.899
322.833
322.768
322.705
322.644
322.585
322.53
322.479
322.432
322.391
322.356
322.33
322.313
322.311
322.968
322.905
322.843
322.782
322.722
322.665
322.61
322.558
322.509
322.465
322.426
322.393
322.366
322.348
322.336
322.97
322.911
322.852
322.795
322.738
322.684
322.632
322.583
322.537
322.495
322.457
322.425
322.398
322.377
322.365
322.972
322.916
322.861
322.806
322.753
322.702
322.653
322.606
322.562
322.522
322.485
322.453
322.424
322.4
322.38
322.973
322.921
322.868
322.817
322.767
322.718
322.671
322.627
322.585
322.546
322.51
322.478
322.448
322.42
322.392
322.975
322.925
322.875
322.826
322.779
322.733
322.688
322.646
322.606
322.569
322.533
322.501
322.47
322.441
322.414
322.976
322.929
322.882
322.835
322.79
322.746
322.704
322.664
322.625
322.589
322.555
322.522
322.491
322.461
322.428
322.977
322.932
322.888
322.844
322.801
322.759
322.719
322.68
322.643
322.608
322.575
322.543
322.512
322.482
322.453
322.978
322.936
322.893
322.851
322.81
322.77
322.732
322.695
322.659
322.626
322.594
322.563
322.533
322.503
322.469
322.98
322.939
322.898
322.858
322.819
322.781
322.744
322.709
322.675
322.642
322.612
322.582
322.554
322.526
322.498
322.98
322.941
322.903
322.865
322.827
322.791
322.755
322.722
322.689
322.658
322.629
322.601
322.574
322.548
322.519
322.981
322.944
322.907
322.87
322.835
322.8
322.766
322.733
322.702
322.672
322.644
322.618
322.594
322.573
322.56
322.982
322.946
322.911
322.876
322.841
322.808
322.775
322.744
322.714
322.686
322.659
322.634
322.612
322.593
322.578
322.983
322.948
322.914
322.881
322.848
322.815
322.784
322.754
322.725
322.698
322.672
322.649
322.628
322.611
322.599
322.983
322.95
322.918
322.885
322.853
322.822
322.792
322.763
322.735
322.709
322.684
322.662
322.641
322.624
322.609
322.984
322.952
322.92
322.889
322.858
322.828
322.799
322.771
322.744
322.719
322.695
322.673
322.653
322.635
322.622
322.985
322.954
322.923
322.893
322.863
322.834
322.806
322.779
322.752
322.727
322.704
322.682
322.662
322.644
322.628
322.985
322.955
322.926
322.896
322.867
322.839
322.812
322.785
322.759
322.735
322.712
322.69
322.67
322.652
322.636
322.985
322.956
322.928
322.899
322.871
322.844
322.817
322.791
322.766
322.742
322.719
322.697
322.677
322.657
322.639
322.986
322.958
322.93
322.902
322.875
322.848
322.822
322.796
322.772
322.748
322.725
322.703
322.683
322.663
322.642
322.986
322.959
322.931
322.904
322.878
322.851
322.826
322.801
322.777
322.753
322.731
322.709
322.688
322.668
322.648
322.987
322.96
322.933
322.906
322.88
322.855
322.829
322.805
322.781
322.758
322.736
322.714
322.693
322.672
322.651
322.987
322.96
322.934
322.908
322.883
322.857
322.833
322.809
322.785
322.762
322.74
322.719
322.698
322.677
322.657
322.987
322.961
322.935
322.91
322.885
322.86
322.836
322.812
322.789
322.766
322.744
322.723
322.702
322.682
322.661
322.987
322.962
322.936
322.911
322.887
322.862
322.838
322.815
322.792
322.77
322.748
322.727
322.706
322.686
322.667
322.987
322.962
322.937
322.913
322.888
322.864
322.84
322.817
322.795
322.773
322.751
322.731
322.71
322.691
322.671
322.988
322.963
322.938
322.914
322.889
322.865
322.842
322.819
322.797
322.775
322.754
322.734
322.714
322.696
322.679
322.988
322.963
322.939
322.914
322.89
322.867
322.844
322.821
322.799
322.777
322.757
322.736
322.717
322.699
322.682
322.988
322.963
322.939
322.915
322.891
322.868
322.845
322.822
322.8
322.779
322.758
322.739
322.72
322.702
322.685
322.988
322.963
322.939
322.915
322.892
322.868
322.845
322.823
322.801
322.78
322.76
322.74
322.721
322.703
322.686
322.988
322.964
322.939
322.915
322.892
322.869
322.846
322.824
322.802
322.781
322.761
322.741
322.722
322.704
322.688
322.988
322.964
322.939
322.915
322.892
322.869
322.846
322.824
322.802
322.781
322.761
322.741
322.723
322.705
322.688
322.988
322.963
322.939
322.915
322.892
322.868
322.845
322.823
322.802
322.781
322.761
322.741
322.723
322.705
322.688
322.988
322.963
322.939
322.915
322.891
322.868
322.845
322.822
322.801
322.78
322.76
322.74
322.722
322.704
322.688
322.988
322.963
322.938
322.914
322.89
322.867
322.844
322.821
322.799
322.778
322.758
322.739
322.721
322.703
322.687
322.988
322.963
322.938
322.913
322.889
322.865
322.842
322.82
322.798
322.776
322.756
322.737
322.719
322.702
322.685
322.987
322.962
322.937
322.912
322.888
322.864
322.84
322.817
322.795
322.774
322.754
322.734
322.716
322.699
322.684
322.987
322.962
322.936
322.911
322.886
322.862
322.838
322.815
322.792
322.771
322.75
322.731
322.712
322.696
322.68
322.987
322.961
322.935
322.909
322.884
322.859
322.835
322.811
322.789
322.767
322.746
322.726
322.708
322.691
322.677
322.987
322.96
322.933
322.907
322.882
322.856
322.832
322.808
322.785
322.762
322.741
322.721
322.702
322.685
322.67
322.986
322.959
322.932
322.905
322.879
322.853
322.828
322.803
322.78
322.757
322.736
322.715
322.695
322.678
322.663
322.986
322.958
322.93
322.903
322.876
322.849
322.823
322.799
322.774
322.751
322.729
322.708
322.688
322.668
322.647
322.986
322.957
322.928
322.9
322.872
322.845
322.819
322.793
322.768
322.745
322.722
322.7
322.679
322.659
322.639
322.985
322.955
322.926
322.897
322.868
322.84
322.813
322.787
322.762
322.737
322.714
322.692
322.671
322.65
322.628
322.985
322.954
322.923
322.893
322.864
322.835
322.807
322.78
322.754
322.73
322.706
322.683
322.662
322.641
322.621
322.984
322.952
322.921
322.889
322.859
322.829
322.8
322.773
322.746
322.721
322.697
322.674
322.652
322.631
322.61
322.983
322.95
322.917
322.885
322.853
322.823
322.793
322.764
322.737
322.711
322.687
322.664
322.643
322.622
322.603
322.983
322.948
322.914
322.88
322.847
322.815
322.784
322.755
322.727
322.701
322.676
322.653
322.632
322.613
322.593
322.982
322.946
322.91
322.875
322.841
322.807
322.775
322.745
322.716
322.689
322.664
322.641
322.621
322.603
322.587
322.981
322.943
322.906
322.869
322.833
322.798
322.765
322.733
322.703
322.675
322.65
322.627
322.608
322.592
322.58
322.98
322.94
322.901
322.863
322.825
322.788
322.753
322.72
322.689
322.66
322.634
322.611
322.592
322.577
322.566
322.979
322.937
322.896
322.856
322.816
322.778
322.741
322.706
322.673
322.643
322.616
322.593
322.574
322.56
322.554
322.978
322.934
322.891
322.848
322.806
322.766
322.727
322.69
322.656
322.624
322.596
322.571
322.551
322.538
322.529
322.977
322.93
322.884
322.839
322.795
322.753
322.712
322.673
322.636
322.603
322.573
322.546
322.525
322.511
322.509
322.975
322.926
322.878
322.83
322.783
322.738
322.695
322.654
322.615
322.579
322.547
322.518
322.494
322.477
322.468
322.974
322.922
322.871
322.82
322.771
322.723
322.677
322.633
322.592
322.553
322.518
322.486
322.458
322.437
322.431
322.972
322.917
322.863
322.809
322.757
322.706
322.657
322.611
322.567
322.525
322.487
322.451
322.418
322.387
322.348
322.971
322.912
322.854
322.797
322.742
322.688
322.636
322.586
322.539
322.495
322.454
322.414
322.377
322.341
322.306
322.969
322.907
322.845
322.785
322.726
322.668
322.613
322.56
322.51
322.463
322.419
322.376
322.336
322.294
322.247
322.967
322.901
322.835
322.771
322.708
322.647
322.589
322.533
322.48
322.429
322.382
322.337
322.294
322.252
322.213
322.965
322.894
322.825
322.756
322.689
322.625
322.562
322.503
322.447
322.394
322.344
322.297
322.253
322.209
322.16
322.962
322.888
322.813
322.74
322.669
322.6
322.534
322.471
322.411
322.356
322.304
322.256
322.211
322.168
322.128
322.96
322.88
322.801
322.723
322.647
322.574
322.503
322.436
322.373
322.315
322.261
322.212
322.167
322.125
322.08
322.957
322.872
322.788
322.705
322.624
322.546
322.47
322.399
322.332
322.271
322.215
322.165
322.121
322.083
322.053
322.955
322.864
322.774
322.685
322.599
322.515
322.435
322.359
322.288
322.223
322.165
322.114
322.071
322.037
322.019
322.951
322.855
322.759
322.664
322.572
322.482
322.396
322.315
322.239
322.17
322.109
322.058
322.016
321.98
321.938
322.948
322.845
322.743
322.642
322.543
322.447
322.354
322.267
322.185
322.112
322.047
321.995
321.956
321.928
321.903
322.945
322.835
322.726
322.618
322.512
322.409
322.309
322.215
322.126
322.046
321.978
321.923
321.887
321.872
321.878
322.941
322.824
322.708
322.593
322.479
322.368
322.261
322.158
322.061
321.973
321.898
321.839
321.804
321.803
321.846
322.938
322.813
322.689
322.566
322.445
322.325
322.209
322.097
321.99
321.892
321.806
321.738
321.698
321.704
321.789
322.934
322.802
322.67
322.539
322.409
322.28
322.154
322.032
321.914
321.803
321.702
321.617
321.559
321.551
321.66
289.63
288.485
287.73
287.156
286.675
286.247
285.853
285.482
285.127
284.783
284.449
284.121
283.798
283.477
283.159
289.227
288.118
287.449
286.937
286.499
286.103
285.733
285.382
285.044
284.716
284.396
284.08
283.769
283.46
283.153
287.634
287.444
287.059
286.667
286.295
285.94
285.601
285.274
284.956
284.644
284.339
284.037
283.739
283.442
283.147
287.007
286.907
286.674
286.384
286.077
285.767
285.461
285.159
284.862
284.568
284.279
283.992
283.707
283.424
283.141
286.417
286.462
286.328
286.113
285.861
285.592
285.317
285.041
284.765
284.49
284.217
283.945
283.674
283.404
283.135
286.149
286.14
286.039
285.868
285.656
285.422
285.175
284.923
284.667
284.411
284.154
283.897
283.64
283.384
283.128
285.873
285.884
285.797
285.651
285.467
285.259
285.037
284.806
284.571
284.332
284.091
283.849
283.607
283.364
283.121
285.748
285.695
285.597
285.46
285.294
285.107
284.905
284.694
284.476
284.254
284.029
283.802
283.573
283.344
283.115
285.649
285.537
285.424
285.29
285.136
284.964
284.78
284.586
284.384
284.178
283.968
283.755
283.54
283.325
283.108
285.479
285.38
285.264
285.134
284.989
284.831
284.661
284.482
284.296
284.104
283.908
283.709
283.508
283.305
283.102
285.368
285.235
285.114
284.988
284.852
284.706
284.549
284.384
284.212
284.034
283.851
283.665
283.477
283.287
283.096
285.186
285.082
284.968
284.849
284.722
284.587
284.443
284.291
284.132
283.967
283.797
283.623
283.447
283.269
283.09
285.068
284.936
284.825
284.715
284.599
284.475
284.343
284.203
284.055
283.902
283.745
283.583
283.418
283.252
283.084
284.866
284.776
284.682
284.585
284.481
284.368
284.248
284.119
283.983
283.842
283.695
283.545
283.391
283.235
283.079
284.72
284.619
284.541
284.459
284.368
284.268
284.158
284.04
283.916
283.784
283.648
283.508
283.365
283.22
283.073
284.434
284.445
284.403
284.34
284.263
284.173
284.074
283.967
283.852
283.731
283.605
283.474
283.341
283.205
283.069
284.306
284.307
284.28
284.231
284.165
284.086
283.997
283.898
283.792
283.68
283.563
283.442
283.318
283.192
283.064
284.164
284.188
284.173
284.133
284.076
284.006
283.925
283.835
283.737
283.634
283.525
283.412
283.297
283.179
283.06
284.093
284.097
284.082
284.048
283.997
283.933
283.859
283.777
283.686
283.59
283.49
283.385
283.277
283.167
283.056
284.007
284.019
284.005
283.973
283.927
283.868
283.8
283.723
283.64
283.551
283.457
283.359
283.258
283.156
283.052
283.964
283.959
283.941
283.909
283.864
283.81
283.746
283.675
283.597
283.514
283.426
283.335
283.241
283.146
283.049
283.912
283.907
283.886
283.853
283.81
283.758
283.698
283.631
283.558
283.481
283.399
283.314
283.226
283.136
283.046
283.887
283.867
283.839
283.804
283.761
283.711
283.654
283.591
283.523
283.45
283.373
283.294
283.211
283.128
283.043
283.866
283.832
283.798
283.761
283.717
283.669
283.614
283.555
283.49
283.422
283.35
283.275
283.198
283.12
283.04
283.829
283.796
283.76
283.721
283.678
283.63
283.578
283.522
283.461
283.396
283.329
283.258
283.186
283.112
283.038
283.804
283.762
283.724
283.684
283.641
283.595
283.545
283.492
283.434
283.373
283.309
283.243
283.175
283.106
283.035
283.762
283.726
283.688
283.649
283.608
283.563
283.515
283.464
283.409
283.352
283.292
283.229
283.165
283.099
283.033
283.734
283.692
283.654
283.616
283.576
283.533
283.487
283.439
283.387
283.332
283.275
283.216
283.156
283.094
283.031
283.687
283.654
283.619
283.583
283.546
283.505
283.462
283.415
283.366
283.315
283.261
283.205
283.147
283.089
283.03
283.653
283.617
283.585
283.553
283.518
283.479
283.438
283.394
283.347
283.298
283.247
283.194
283.14
283.084
283.028
283.587
283.576
283.553
283.524
283.491
283.456
283.417
283.375
283.33
283.284
283.235
283.184
283.133
283.08
283.027
283.557
283.544
283.524
283.498
283.468
283.434
283.397
283.357
283.315
283.27
283.224
283.176
283.126
283.076
283.025
283.524
283.516
283.499
283.475
283.446
283.414
283.379
283.341
283.301
283.258
283.214
283.168
283.121
283.073
283.024
283.508
283.495
283.478
283.455
283.428
283.397
283.363
283.327
283.288
283.247
283.205
283.161
283.116
283.07
283.023
283.489
283.478
283.46
283.438
283.412
283.382
283.35
283.314
283.277
283.238
283.197
283.154
283.111
283.067
283.022
283.48
283.465
283.446
283.424
283.398
283.369
283.337
283.303
283.267
283.229
283.19
283.149
283.107
283.065
283.022
283.469
283.454