/*--------------------------------*- C++ -*----------------------------------*\
| =========                 |                                                 |
| \\      /  F ield         | OpenFOAM: The Open Source CFD Toolbox           |
|  \\    /   O peration     | Version:  5.x                                   |
|   \\  /    A nd           | Web:      www.OpenFOAM.org                      |
|    \\/     M anipulation  |                                                 |
\*---------------------------------------------------------------------------*/
FoamFile
{
    version     2.0;
    format      ascii;
    class       volScalarField;
    location    "2.7999";
    object      gradTy;
}
// * * * * * * * * * * * * * * * * * * * * * * * * * * * * * * * * * * * * * //

dimensions      [0 -1 0 1 0 0 0];

internalField   nonuniform List<scalar> 
6300
(
32285.1
32255.3
32225.3
32195.2
32164.8
32134.2
32103.1
32071.7
32039.8
32007.4
31974.4
31940.8
31906.7
31872
31836.7
0.0519736
0.155437
0.257425
0.356852
0.45248
0.542881
0.626419
0.701267
0.76547
0.817065
0.85426
0.875673
0.880603
0.869297
0.843131
0.0871423
0.260663
0.431835
0.598909
0.759864
0.912336
1.05358
1.18048
1.28964
1.3776
1.44111
1.47755
1.48547
1.46508
1.41866
0.123078
0.368245
0.610358
0.847102
1.07575
1.29305
1.49511
1.67746
1.83506
1.96264
2.05506
2.10799
2.1187
2.08696
2.01583
0.160003
0.478881
0.794253
1.10339
1.40299
1.68899
1.95637
2.19918
2.41051
2.58283
2.70851
2.78067
2.7944
2.74822
2.64564
0.198058
0.593023
0.984383
1.36922
1.74385
2.10354
2.44222
2.75238
3.02497
3.24968
3.41549
3.51178
3.52999
3.46591
3.32237
0.237263
0.710771
1.18104
1.64526
2.09966
2.53909
2.95661
3.34316
3.68732
3.97542
4.19199
4.32098
4.34788
4.26305
4.06619
0.277486
0.831764
1.38374
1.93112
2.47045
2.99656
3.50198
3.97632
4.40575
4.77271
5.05608
5.23225
5.2775
5.17222
4.90768
0.318404
0.955063
1.59103
2.22503
2.85446
3.47473
4.07843
4.65439
5.18666
5.6536
6.02737
6.27444
6.35764
6.24062
5.89614
0.359472
1.07905
1.8003
2.52352
3.24764
3.96947
4.68262
5.37616
6.03291
6.62764
7.12535
7.4805
7.638
7.53645
7.11412
0.399905
1.20137
2.00761
2.82111
3.64312
4.47291
5.30644
6.13471
6.94119
7.69871
8.36587
8.8842
9.17745
9.15317
8.69953
0.438682
1.31892
2.20767
3.11017
4.03085
4.9726
5.93554
6.91505
7.89844
8.86014
9.75524
10.513
11.0346
11.1997
10.864
0.474584
1.42796
2.39398
3.38107
4.39753
5.45109
6.54809
7.69151
8.87738
10.0882
11.282
12.3782
13.2489
13.7479
13.8223
0.506276
1.52436
2.55923
3.62262
4.72709
5.88617
7.11423
8.42553
9.8314
11.3332
12.9064
14.4693
15.8357
16.7222
17.2346
0.532433
1.60399
2.69595
3.8231
5.00206
6.25228
7.59713
9.06497
10.6895
12.5068
14.5414
16.7573
18.9038
20.0727
17.7339
31803.8
31773.6
31742.9
31712
31680.7
31649.1
31617.3
31585.2
31552.8
31520.3
31487.5
31454.6
31421.5
31388.3
31354.9
31321.5
31288
31254.5
31220.9
31187.2
31153.6
31120
31086.3
31052.7
31019
30985.4
30951.7
30918
30884.3
30850.7
30817
30783.4
30749.8
30716.2
30682.7
30649.2
30615.8
30582.3
30549
30515.6
30482.3
30449
30415.7
30382.4
30349.1
30315.9
30282.7
30249.6
30216.5
30183.5
30150.5
30117.6
30084.7
30051.9
30019
29986.3
29953.5
29920.8
29888.1
29855.4
29822.8
29790.3
29757.7
29725.3
29692.9
29660.6
29628.3
29596.1
29563.9
29531.8
29499.8
29467.7
29435.7
29403.8
29371.9
29340
29308.2
29276.4
29244.7
29213
29181.4
29149.7
29118.1
29086.5
29054.8
29023
28991.2
28959.3
28927.3
28895.2
0.807824
0.76932
0.726596
0.681779
0.636652
0.592415
0.549556
0.50788
0.466666
0.424947
0.381833
0.336825
0.290034
0.242277
0.195019
0.15016
0.10972
0.0754866
0.0486784
0.0297149
0.0181191
0.0125734
0.0111157
0.0114399
0.0112524
0.00862781
0.00230486
-0.0081239
-0.0221645
-0.0385273
-0.0553726
-0.0706547
-0.0825009
-0.0895554
-0.0912238
-0.0877795
-0.080317
-0.0705665
-0.0606035
-0.0525015
-0.0479863
-0.0481455
-0.0532433
-0.062673
-0.0750608
-0.088506
-0.100918
-0.110388
-0.115525
-0.115697
-0.111129
-0.102864
-0.0925726
-0.0822695
-0.0739713
-0.0693545
-0.0694704
-0.0745614
-0.0840146
-0.0964625
-0.110019
-0.122608
-0.132331
-0.137792
-0.138334
-0.134134
-0.12616
-0.115979
-0.105478
-0.0965186
-0.090596
-0.0885523
-0.0903898
-0.0952191
-0.101356
-0.106554
-0.108342
-0.104403
-0.0929409
-0.0729733
-0.0445119
-0.00862256
0.0326395
0.0764031
0.119246
0.157528
0.187773
0.20706
0.213377
0.205881
1.35632
1.28864
1.21403
1.13649
1.05935
0.984815
0.913672
0.845328
0.778147
0.709998
0.638911
0.563696
0.48439
0.402455
0.320657
0.242665
0.172417
0.113411
0.0680519
0.037191
0.0199445
0.0138062
0.0150276
0.019199
0.0219337
0.0195515
0.0096501
-0.00852545
-0.0339835
-0.0641847
-0.0955169
-0.123969
-0.145874
-0.158583
-0.160938
-0.153466
-0.138288
-0.118748
-0.0988556
-0.0826171
-0.0733694
-0.0732196
-0.0826825
-0.100583
-0.124249
-0.149978
-0.173696
-0.191688
-0.201255
-0.201179
-0.191912
-0.175481
-0.155127
-0.134749
-0.118252
-0.108884
-0.108686
-0.118138
-0.136058
-0.159792
-0.185672
-0.209661
-0.228073
-0.23821
-0.238819
-0.230276
-0.214483
-0.19451
-0.174041
-0.156723
-0.145503
-0.142082
-0.146546
-0.157258
-0.171039
-0.183615
-0.190257
-0.186528
-0.168968
-0.135647
-0.0864933
-0.0233846
0.0499774
0.128386
0.205604
0.274959
0.330036
0.365401
0.377286
0.364111
1.92074
1.81802
1.70577
1.59069
1.47838
1.37242
1.27385
1.1812
1.09112
0.999378
0.902037
0.796563
0.682643
0.562547
0.440933
0.324138
0.219048
0.131811
0.0666765
0.0251937
0.00590887
0.00457822
0.014832
0.0291698
0.0401293
0.0414513
0.029061
0.00171309
-0.0388169
-0.0880555
-0.139649
-0.186548
-0.222324
-0.242356
-0.244633
-0.230083
-0.202371
-0.167266
-0.131673
-0.102492
-0.085477
-0.0842759
-0.0997957
-0.130013
-0.170288
-0.214167
-0.254542
-0.284942
-0.300694
-0.299719
-0.282835
-0.253572
-0.217538
-0.181467
-0.152094
-0.135034
-0.133835
-0.149352
-0.17956
-0.219863
-0.26388
-0.304583
-0.335568
-0.352186
-0.352325
-0.336701
-0.308672
-0.273602
-0.23792
-0.207998
-0.189037
-0.184119
-0.193566
-0.214741
-0.242328
-0.269089
-0.286983
-0.288446
-0.267571
-0.221005
-0.148458
-0.0528029
0.0601527
0.182185
0.30338
0.413044
0.500772
0.557637
0.577363
0.557279
2.50858
2.36115
2.20161
2.04091
1.88828
1.7494
1.6255
1.51336
1.40649
1.29682
1.17688
1.04159
0.889794
0.724824
0.554271
0.388757
0.239969
0.118383
0.0312424
-0.0187694
-0.033982
-0.0213327
0.00875397
0.0440034
0.072201
0.0830947
0.0700085
0.0309312
-0.0311125
-0.108538
-0.190546
-0.265147
-0.321453
-0.351698
-0.352567
-0.325657
-0.277104
-0.216492
-0.155264
-0.104854
-0.0748185
-0.0712604
-0.0957513
-0.144966
-0.211145
-0.283411
-0.349758
-0.399294
-0.42423
-0.421175
-0.391592
-0.341421
-0.280012
-0.218547
-0.168212
-0.138353
-0.134922
-0.159419
-0.208532
-0.274594
-0.346868
-0.413507
-0.463758
-0.489902
-0.488535
-0.460998
-0.413006
-0.353584
-0.29351
-0.243494
-0.212358
-0.205474
-0.223702
-0.262996
-0.314811
-0.367333
-0.407373
-0.422532
-0.403168
-0.343778
-0.243696
-0.107134
0.0572579
0.237189
0.417761
0.582715
0.715951
0.803352
0.834765
0.80575
3.12931
2.92173
2.69911
2.47954
2.27838
2.10485
1.96021
1.83797
1.72587
1.60909
1.47379
1.31039
1.11591
0.895134
0.660346
0.429283
0.221712
0.0553437
-0.0576668
-0.112854
-0.114005
-0.0723653
-0.00477056
0.0689791
0.129177
0.159256
0.148369
0.0932065
-0.00127283
-0.122438
-0.252127
-0.370107
-0.458127
-0.503361
-0.500519
-0.452418
-0.369221
-0.266625
-0.163299
-0.0778944
-0.0260538
-0.0178752
-0.0561261
-0.135512
-0.243257
-0.361203
-0.469202
-0.549096
-0.588096
-0.580854
-0.530018
-0.445479
-0.342587
-0.239626
-0.154869
-0.103641
-0.0958147
-0.13406
-0.213124
-0.320401
-0.437993
-0.546054
-0.626683
-0.667257
-0.66245
-0.614771
-0.533821
-0.434524
-0.334635
-0.251823
-0.200772
-0.190683
-0.223519
-0.293237
-0.386288
-0.483565
-0.5636
-0.606344
-0.59641
-0.525158
-0.391472
-0.201549
0.0319796
0.291265
0.554624
0.798053
0.997128
1.12968
1.17917
1.13803
3.79619
3.50396
3.19221
2.89165
2.62869
2.41869
2.26268
2.14798
2.05201
1.948
1.81118
1.62396
1.37987
1.08562
0.761049
0.435971
0.144113
-0.084543
-0.229854
-0.284764
-0.255661
-0.160788
-0.0271735
0.113453
0.22951
0.29439
0.290471
0.21208
0.0669763
-0.124085
-0.330587
-0.518231
-0.656434
-0.724274
-0.713668
-0.629742
-0.489297
-0.317832
-0.145554
-0.00262793
0.0855585
0.102342
0.0427066
-0.0852456
-0.260709
-0.453344
-0.629146
-0.757812
-0.818578
-0.803339
-0.717006
-0.575995
-0.405291
-0.23452
-0.0932758
-0.00645922
0.00960609
-0.0499539
-0.177118
-0.351382
-0.542874
-0.718127
-0.847316
-0.909989
-0.898125
-0.816479
-0.681081
-0.516344
-0.351191
-0.214442
-0.130222
-0.114105
-0.170246
-0.289895
-0.451699
-0.624639
-0.773542
-0.866023
-0.877963
-0.796451
-0.620238
-0.358765
-0.0303974
0.339468
0.720178
1.07725
1.37409
1.57561
1.6541
1.59591
4.53041
4.11424
3.66914
3.24959
2.9027
2.65479
2.50567
2.43105
2.38973
2.33419
2.22115
2.01943
1.71604
1.31975
0.862477
0.39481
-0.0245116
-0.34446
-0.532236
-0.577669
-0.492044
-0.305017
-0.0596914
0.193288
0.403519
0.528574
0.539792
0.426999
0.201383
-0.103519
-0.436226
-0.737575
-0.956089
-1.05818
-1.03243
-0.88848
-0.65407
-0.37024
-0.0855722
0.151434
0.299961
0.332573
0.239884
0.0334055
-0.253466
-0.569757
-0.856999
-1.06434
-1.15854
-1.12823
-0.982765
-0.749304
-0.468126
-0.18693
0.0466585
0.192569
0.223892
0.131468
-0.0733226
-0.357588
-0.671171
-0.956567
-1.16376
-1.26009
-1.23432
-1.09562
-0.870619
-0.598794
-0.326872
-0.101448
0.0383687
0.0665016
-0.0255471
-0.225873
-0.501094
-0.800343
-1.06475
-1.24169
-1.2941
-1.20412
-0.97179
-0.612319
-0.15254
0.372046
0.91976
1.44318
1.88831
2.19867
2.32583
2.24333
5.36998
4.76612
4.10916
3.50278
3.03408
2.74856
2.64133
2.66615
2.74793
2.80319
2.75882
2.56131
2.18597
1.64171
0.97886
0.284017
-0.336248
-0.79472
-1.03961
-1.05932
-0.874467
-0.533214
-0.103252
0.334661
0.700161
0.926665
0.967666
0.804359
0.449939
-0.0429402
-0.587049
-1.07623
-1.42342
-1.5762
-1.52142
-1.27752
-0.89004
-0.423887
0.0430089
0.432874
0.681247
0.743202
0.600886
0.267787
-0.203896
-0.728035
-1.19995
-1.53381
-1.67785
-1.61899
-1.37527
-0.991367
-0.531027
-0.0708272
0.31281
0.556563
0.616335
0.474657
0.144877
-0.321613
-0.840095
-1.30765
-1.63991
-1.78602
-1.73317
-1.49907
-1.12762
-0.681419
-0.235627
0.134786
0.367753
0.42014
0.275043
-0.0540251
-0.515912
-1.02624
-1.48192
-1.79671
-1.91529
-1.81679
-1.50643
-1.01033
-0.368011
0.371313
1.15432
1.92182
2.59657
3.08556
3.29948
3.18279
6.39033
5.49444
4.47628
3.55757
2.90151
2.58544
2.58673
2.81916
3.14431
3.41565
3.517
3.35928
2.89914
2.13441
1.14131
0.0658176
-0.880985
-1.55256
-1.87127
-1.83554
-1.48214
-0.889174
-0.158286
0.580285
1.19694
1.59186
1.68972
1.4569
0.89785
0.0913805
-0.816997
-1.61938
-2.17075
-2.39316
-2.28277
-1.87334
-1.23934
-0.478643
0.282477
0.918025
1.33094
1.44794
1.23658
0.701689
-0.0788273
-0.961554
-1.74176
-2.27664
-2.48937
-2.37601
-1.96969
-1.34354
-0.59377
0.15548
0.780347
1.18544
1.29882
1.08867
0.559893
-0.210812
-1.0824
-1.85361
-2.38413
-2.59853
-2.49305
-2.10033
-1.4923
-0.763495
-0.0358741
0.568904
0.957138
1.05812
0.840517
0.309052
-0.461
-1.33086
-2.10198
-2.63427
-2.8491
-2.73455
-2.30855
-1.61888
-0.72318
0.307666
1.41121
2.53403
3.57233
4.36854
4.74919
4.58813
7.75356
6.39915
4.70046
3.23422
2.27929
1.96517
2.19914
2.83856
3.61813
4.27288
4.64823
4.59275
4.0509
2.95597
1.42239
-0.337712
-1.82208
-2.81853
-3.21338
-3.06924
-2.43481
-1.44377
-0.224414
1.00145
2.01297
2.68478
2.88793
2.57918
1.70202
0.372416
-1.19962
-2.52401
-3.39181
-3.68941
-3.47478
-2.79259
-1.77113
-0.534052
0.702723
1.72373
2.40668
2.6255
2.33809
1.48925
0.193376
-1.34274
-2.6369
-3.48344
-3.77049
-3.55496
-2.88069
-1.87379
-0.655819
0.560847
1.5643
2.23435
2.44713
2.16144
1.32323
0.0452004
-1.46928
-2.74622
-3.5836
-3.87169
-3.66662
-3.01168
-2.03093
-0.843913
0.340726
1.3148
1.96012
2.15481
1.85791
1.01566
-0.262395
-1.7777
-3.06598
-3.929
-4.25722
-4.1008
-3.49035
-2.52415
-1.27296
0.139327
1.64033
3.26796
4.89666
6.24994
6.97895
6.77769
9.82989
7.80083
4.59105
2.17536
0.734617
0.555658
1.22759
2.65608
4.27163
5.53243
6.39983
6.52658
5.99906
4.40919
2.02961
-1.13833
-3.46582
-4.95084
-5.33168
-5.00902
-3.90102
-2.32722
-0.299948
1.7312
3.31817
4.45251
4.82326
4.51991
3.15764
1.00251
-1.9389
-4.08622
-5.43401
-5.72335
-5.34015
-4.20044
-2.61349
-0.589091
1.4336
3.01616
4.15071
4.53197
4.24797
2.92049
0.811456
-2.07243
-4.17671
-5.49595
-5.77541
-5.39459
-4.27075
-2.70807
-0.716069
1.27316
2.82826
3.94164
4.31316
4.02977
2.71984
0.641614
-2.19828
-4.27189
-5.57411
-5.85508
-5.48807
-4.39226
-2.86668
-0.920971
1.02047
2.53401
3.61195
3.95932
3.66056
2.34975
0.277792
-2.55148
-4.64239
-5.99385
-6.36325
-6.12087
-5.18443
-3.83983
-2.05473
-0.156786
1.68707
4.00027
6.61756
9.03022
10.5483
10.4012
13.4766
10.905
3.34029
-0.285786
-2.62627
-2.07897
-0.833416
2.20419
5.43591
7.35846
9.21792
9.40253
9.47697
6.99952
3.77205
-3.14926
-6.3228
-8.67325
-8.4631
-8.07981
-6.03808
-3.86375
-0.381158
3.10048
5.27506
7.31975
7.72917
7.98543
5.7549
2.76473
-3.8218
-6.79986
-9.00048
-8.7259
-8.295
-6.25247
-4.0859
-0.641805
2.79816
4.95362
6.97932
7.39632
7.66031
5.47704
2.5452
-3.9249
-6.84708
-9.00591
-8.73127
-8.30429
-6.29289
-4.1607
-0.772477
2.61049
4.72813
6.7171
7.12208
7.37618
5.22266
2.33469
-4.03089
-6.90848
-9.03534
-8.77168
-8.35912
-6.39182
-4.30752
-0.992017
2.31627
4.38037
6.31569
6.69411
6.92045
4.77978
1.9084
-4.38859
-7.28367
-9.47294
-9.35032
-9.14042
-7.46632
-5.78986
-2.99904
-0.375085
1.05784
4.29454
8.63287
13.0985
16.5151
17.0093
20.3765
21.2008
-3.58162
-4.59713
-10.1448
-5.71899
-5.47501
1.47283
8.48544
9.27541
14.4478
12.4372
16.6297
10.6699
10.8336
-10.557
-10.365
-16.0829
-11.8439
-13.5388
-8.36609
-7.28418
-0.460987
6.35194
7.41903
12.5418
10.8557
15.0319
9.44609
9.70572
-10.9009
-10.633
-16.1313
-11.9536
-13.5706
-8.48314
-7.39793
-0.68857
6.01238
7.07797
12.1244
10.481
14.5967
9.11153
9.37405
-10.8864
-10.6167
-16.0201
-11.9065
-13.4956
-8.48898
-7.42201
-0.821322
5.76986
6.81329
11.7735
10.1483
14.1896
8.78305
9.03552
-10.8862
-10.6261
-15.9389
-11.9027
-13.469
-8.55983
-7.52131
-1.05268
5.4037
6.41214
11.2613
9.64786
13.5888
8.26201
8.47191
-11.1245
-10.9413
-16.2811
-12.463
-14.2684
-9.75155
-9.34451
-3.70305
1.12168
-2.16895
3.00223
10.4645
18.6772
26.6895
31.1706
30.1922
68.359
-44.729
-2.38334
-32.0229
-3.33451
-19.7684
0.649957
20.4973
4.88356
30.0233
6.54136
38.4037
5.52475
48.9357
-49.0409
-5.89441
-37.8279
-6.67684
-28.884
-4.80044
-18.969
-0.522956
17.8805
3.72601
27.5717
5.54376
36.1391
4.72323
46.6975
-48.0354
-6.15937
-37.1916
-6.83304
-28.4968
-4.9467
-18.8048
-0.719278
17.3455
3.47385
26.907
5.27665
35.3625
4.47341
45.7601
-47.4071
-6.21286
-36.7344
-6.86584
-28.1803
-5.00784
-18.6477
-0.852279
16.9222
3.26252
26.317
5.01885
34.6119
4.19861
44.7913
-46.7993
-6.31491
-36.3012
-6.96226
-27.8998
-5.1504
-18.5508
-1.09205
16.3398
2.91679
25.5167
4.60667
33.6062
3.77464
43.5597
-46.34
-6.64293
-36.274
-7.47516
-28.4979
-6.11617
-20.4345
-3.22882
14.3066
-17.5777
-1.58631
11.2186
24.5472
41.9521
69.9558
28859.8
28821
28782.2
28743.3
28704.3
28665.4
28626.5
28587.7
28549.1
28510.5
28472
28433.7
28395.4
28357.2
28319.1
0.182947
0.141367
0.0881573
0.0293572
-0.0288815
-0.0811369
-0.123259
-0.152589
-0.167919
-0.169289
-0.157711
-0.134894
-0.103005
-0.0644903
-0.0219481
0.322986
0.248267
0.152926
0.0481396
-0.0549098
-0.146585
-0.219724
-0.269937
-0.295434
-0.296583
-0.275377
-0.234926
-0.179046
-0.111954
-0.0380752
0.492942
0.375849
0.227198
0.0652367
-0.0922647
-0.230528
-0.339078
-0.411968
-0.447267
-0.446208
-0.412269
-0.350375
-0.266291
-0.166202
-0.0564731
0.709808
0.534989
0.314783
0.0778752
-0.148856
-0.34418
-0.49409
-0.591586
-0.635457
-0.62871
-0.577112
-0.488014
-0.36954
-0.230089
-0.078088
0.996822
0.739513
0.419067
0.0803339
-0.236855
-0.503248
-0.701515
-0.824831
-0.874262
-0.856064
-0.779455
-0.655028
-0.493765
-0.306527
-0.103877
1.38709
1.00717
0.541632
0.0612449
-0.375655
-0.730443
-0.983891
-1.13196
-1.1807
-1.14183
-1.02962
-0.858876
-0.643964
-0.398376
-0.134771
1.92949
1.36043
0.679041
-0.00133601
-0.596569
-1.05898
-1.37165
-1.53842
-1.57473
-1.50094
-1.3383
-1.1069
-0.824839
-0.50824
-0.171601
2.69856
1.826
0.815436
-0.149065
-0.950309
-1.53726
-1.90529
-2.07535
-2.07886
-1.94889
-1.71575
-1.40557
-1.04025
-0.638142
-0.214994
3.81193
2.4296
0.905765
-0.460052
-1.51834
-2.23447
-2.63691
-2.77881
-2.71649
-2.49999
-2.17023
-1.75938
-1.29246
-0.789081
-0.265227
5.46086
3.17469
0.838088
-1.07856
-2.42853
-3.24537
-3.62907
-3.68647
-3.50831
-3.16436
-2.70578
-2.16927
-1.58112
-0.960496
-0.322056
7.95939
3.97023
0.350463
-2.26372
-3.87183
-4.6894
-4.94752
-4.8297
-4.46589
-3.94335
-3.31926
-2.6308
-1.90224
-1.14973
-0.384559
11.7831
4.39626
-1.14279
-4.45492
-6.10566
-6.69288
-6.64189
-6.21891
-5.5822
-4.82388
-3.9971
-3.13243
-2.2473
-1.35161
-0.45101
17.292
2.97435
-4.86305
-8.30755
-9.40297
-9.33455
-8.70822
-7.82183
-6.82012
-5.77284
-4.71283
-3.6545
-2.60292
-1.55841
-0.518879
21.9785
-4.92797
-12.9763
-14.5093
-13.8641
-12.5341
-11.0346
-9.54007
-8.1036
-6.73454
-5.42689
-4.16981
-2.95146
-1.76022
-0.584978
0.550826
1.65995
2.79194
3.9637
5.19482
6.5093
7.93794
9.52195
11.3182
13.4068
15.898
18.922
22.5087
25.8566
23.2349
0.56186
1.6934
2.84894
4.04635
5.30668
6.65624
8.12996
9.77678
11.6696
13.9241
16.7394
20.4969
26.0478
35.7181
57.4911
0.567462
1.71019
2.87687
4.08532
5.35657
6.717
8.20177
9.86082
11.7698
14.0519
16.9265
20.8263
26.7261
37.1733
59.9582
0.567647
1.71036
2.87578
4.08069
5.34456
6.69141
8.15258
9.77132
11.6108
13.7684
16.4013
19.7667
24.2456
30.0602
34.7652
0.56268
1.69475
2.84729
4.03511
5.27493
6.58646
7.994
9.52858
11.2309
13.1547
15.3672
17.933
20.8361
23.7173
25.391
0.553054
1.66493
2.79431
3.95344
5.1555
6.41485
7.74723
9.16937
10.6973
12.3407
14.0876
15.8646
17.4406
18.2115
16.7112
0.539421
1.62297
2.72066
3.84197
4.99629
6.19253
7.43813
8.73677
10.0836
11.4548
12.787
13.9355
14.6037
14.2821
12.5887
0.522521
1.57119
2.63061
3.70757
4.80796
5.93595
7.09222
8.27077
9.45293
10.5962
11.6143
12.3399
12.454
11.3052
7.16391
0.503106
1.51193
2.5284
3.55691
4.60049
5.65973
6.73084
7.80229
8.84931
9.82473
10.6448
11.1692
11.1814
10.4068
8.81316
0.481878
1.44737
2.41785
3.39577
4.38213
5.37529
6.36922
7.35078
8.29545
9.16119
9.88062
10.3543
10.4553
10.0771
9.28546
0.459443
1.37936
2.30211
3.2288
4.15907
5.0903
6.01619
6.92489
7.79641
8.59926
9.2872
9.79816
10.0622
10.0346
9.79366
0.436296
1.30937
2.18367
3.05933
3.93536
4.80904
5.6751
6.52484
7.34505
8.11714
8.81669
9.41356
9.87143
10.1404
10.1209
0.41282
1.23852
2.06428
2.88961
3.71329
4.53307
5.34536
6.14529
6.92711
7.68541
8.41749
9.1255
9.81191
10.4465
10.8756
0.3893
1.16765
1.94518
2.72103
3.49396
4.2623
5.0242
5.77834
6.52551
7.27191
8.03502
8.85245
9.78839
10.8952
11.8758
0.36595
1.09736
1.82726
2.5545
3.27781
3.99601
4.70846
5.41624
6.12445
6.84683
7.61483
8.49712
9.64621
11.4318
14.8939
0.342939
1.02812
1.71118
2.39069
3.06523
3.73373
4.39597
5.05384
5.71358
6.39007
7.1153
7.95653
9.06208
10.804
14.3277
0.320416
0.96035
1.59759
2.23033
2.85686
3.47579
4.08653
4.69017
5.29108
5.89947
6.53523
7.2324
8.03604
8.93892
9.43355
0.298515
0.894456
1.48712
2.07428
2.65378
3.22356
3.78202
4.3284
4.86341
5.38988
5.91254
6.43434
6.9411
7.35738
7.49214
0.277373
0.830843
1.38046
1.92358
2.45744
2.9792
3.48591
3.97453
4.44168
4.88294
5.29046
5.64673
5.90902
5.97135
5.55715
0.257117
0.769908
1.27832
1.7793
2.26951
2.7453
3.20238
3.63557
4.03795
4.39945
4.70398
4.92441
5.01582
4.91626
4.61463
0.237864
0.712013
1.18136
1.64249
2.09162
2.52438
2.93546
3.31801
3.66261
3.95554
4.17592
4.2917
4.25525
4.0015
3.4337
0.219709
0.657455
1.09011
1.51402
1.9251
2.31853
2.68837
3.02682
3.32317
3.56201
3.72052
3.76472
3.6456
3.30485
2.76104
0.202716
0.606433
1.00493
1.39447
1.77083
2.12907
2.46307
2.76488
3.02369
3.22427
3.34452
3.35117
3.18988
2.74923
1.67908
0.186913
0.559038
0.925988
1.28407
1.62915
1.95646
2.26015
2.53281
2.76464
2.94233
3.04742
3.05425
2.92818
2.63076
2.18601
0.172292
0.515237
0.853209
1.18269
1.49983
1.80025
2.07878
2.32909
2.54321
2.71082
2.81856
2.84963
2.78547
2.61463
2.35778
0.158809
0.474891
0.786329
1.08989
1.38212
1.65924
1.91701
2.15053
2.35409
2.5209
2.64295
2.71116
2.71687
2.65824
2.56347
0.146392
0.437773
0.724924
1.00496
1.27491
1.53169
1.77208
1.99278
2.19049
2.36207
2.50475
2.61609
2.69297
2.72697
2.68887
0.134951
0.403593
0.668461
0.927044
1.17686
1.41552
1.64083
1.85101
2.04505
2.22333
2.38831
2.54498
2.69885
2.84578
2.94749
0.124384
0.372037
0.616365
0.855216
1.08657
1.30864
1.5201
1.72044
1.91057
2.09384
2.27767
2.47582
2.70957
2.99601
3.25119
0.114591
0.342792
0.568076
0.788601
1.00272
1.20912
1.4071
1.59698
1.78087
1.96397
2.15711
2.38195
2.6837
3.16798
4.12835
0.105481
0.315575
0.523094
0.726442
0.924235
1.11546
1.29973
1.47769
1.65172
1.82714
2.01454
2.2347
2.53111
3.00934
3.98829
0.096976
0.290148
0.481012
0.668143
0.850317
1.02664
1.19675
1.36114
1.52161
1.682
1.84923
2.0345
2.25229
2.50299
2.64939
0.089013
0.266326
0.441524
0.613292
0.780469
0.942139
1.09776
1.24733
1.39157
1.53212
1.67143
1.81172
1.95065
2.06909
2.1161
0.0815462
0.243973
0.404422
0.561634
0.714449
0.861844
1.00298
1.13722
1.26411
1.3831
1.49296
1.5899
1.66325
1.68483
1.57873
0.0745421
0.222997
0.36957
0.513035
0.652199
0.785902
0.912993
1.03224
1.14213
1.24045
1.32346
1.38446
1.41184
1.38924
1.31466
0.067976
0.203328
0.336879
0.467426
0.593745
0.71456
0.828462
0.933761
1.02819
1.10844
1.16927
1.2024
1.19514
1.12975
0.979018
0.0618271
0.184912
0.306279
0.424757
0.539119
0.648024
0.749915
0.842836
0.924126
0.989915
1.03433
1.0484
1.01883
0.929547
0.786144
0.0560747
0.167689
0.277687
0.384952
0.488289
0.586366
0.677604
0.759997
0.830833
0.886243
0.920486
0.924701
0.883991
0.766939
0.473251
0.0506946
0.151591
0.250997
0.347877
0.441116
0.529465
0.611442
0.685191
0.748261
0.79728
0.827504
0.832217
0.802181
0.727006
0.613708
0.0456572
0.136529
0.226064
0.313334
0.397345
0.476994
0.551002
0.617811
0.675457
0.721381
0.75225
0.763875
0.751731
0.713558
0.656841
0.0409276
0.122398
0.202708
0.281058
0.356608
0.428448
0.495567
0.556804
0.610801
0.655947
0.690371
0.712051
0.719369
0.713
0.701853
0.0364656
0.109075
0.180715
0.250731
0.318452
0.383187
0.444224
0.500834
0.552301
0.597971
0.637353
0.670213
0.696526
0.715772
0.724062
0.0322278
0.096426
0.159853
0.222002
0.282374
0.340501
0.395962
0.448445
0.497835
0.544373
0.588876
0.632934
0.678604
0.726168
0.767811
0.0281692
0.084314
0.139883
0.194509
0.247862
0.299671
0.349776
0.398213
0.44536
0.492198
0.540722
0.59455
0.659384
0.740693
0.822881
0.0242458
0.0726038
0.120569
0.167906
0.214427
0.260031
0.304756
0.348883
0.393111
0.438864
0.488896
0.548539
0.628739
0.754627
0.993915
0.0204156
0.0611683
0.101694
0.141872
0.181635
0.221007
0.260158
0.299494
0.339812
0.382571
0.430407
0.488269
0.566384
0.689831
0.93667
0.0166406
0.0498921
0.0830628
0.116129
0.14912
0.182144
0.215438
0.249429
0.284828
0.322764
0.36497
0.41395
0.472566
0.539371
0.576879
0.0128869
0.0386736
0.0645068
0.0904439
0.116586
0.143099
0.170242
0.198396
0.228093
0.260003
0.29484
0.332953
0.373081
0.409275
0.428345
0.00912473
0.0274245
0.0458811
0.06462
0.083799
0.103622
0.124349
0.146301
0.169828
0.19522
0.222449
0.250571
0.276345
0.291089
0.271963
0.0053282
0.016068
0.0270619
0.038494
0.0505697
0.0635223
0.0776136
0.0931193
0.110278
0.12917
0.149449
0.169832
0.187283
0.196439
0.193874
0.00147433
0.00453639
0.0079409
0.0119246
0.0167359
0.0226375
0.0299024
0.038797
0.0495338
0.0621678
0.0763878
0.0911399
0.103993
0.109942
0.0971182
-0.00245775
-0.00723156
-0.0115798
-0.0152162
-0.0178506
-0.0191887
-0.0189341
-0.0167974
-0.0125199
-0.00592703
0.00296679
0.0137776
0.0255096
0.0364912
0.0461101
-0.00648768
-0.0192936
-0.0315926
-0.0430495
-0.053333
-0.0621157
-0.0690716
-0.0738715
-0.0761737
-0.0756111
-0.0717761
-0.0642143
-0.0524425
-0.0360035
-0.0144113
-0.0106348
-0.0317065
-0.0521879
-0.0716944
-0.0898537
-0.106306
-0.1207
-0.132673
-0.14181
-0.147559
-0.149098
-0.145121
-0.133626
-0.112069
-0.0799489
-0.0149187
-0.0445279
-0.0734579
-0.101272
-0.127555
-0.151922
-0.174005
-0.193439
-0.20979
-0.222423
-0.230243
-0.231238
-0.221788
-0.19546
-0.138648
-0.0193606
-0.0578198
-0.0955008
-0.131909
-0.166585
-0.199117
-0.229144
-0.256338
-0.280344
-0.300623
-0.316117
-0.3246
-0.321662
-0.300013
-0.254887
-0.0239838
-0.0716508
-0.118426
-0.163746
-0.2071
-0.248048
-0.286245
-0.321445
-0.35348
-0.382139
-0.406851
-0.425885
-0.43452
-0.42086
-0.354551
-0.0288154
-0.0861002
-0.142358
-0.196945
-0.249281
-0.298886
-0.345421
-0.388745
-0.428952
-0.466388
-0.501519
-0.534383
-0.562851
-0.578257
-0.561348
-0.033887
-0.101261
-0.16745
-0.231706
-0.293356
-0.351849
-0.406823
-0.458203
-0.506342
-0.55223
-0.597753
-0.645923
-0.700243
-0.758083
-0.766387
-0.0392355
-0.117245
-0.193882
-0.268273
-0.33962
-0.407253
-0.470717
-0.529904
-0.58529
-0.638318
-0.692141
-0.753181
-0.835179
-0.972296
-1.27195
-0.0449043
-0.134181
-0.221871
-0.306951
-0.388459
-0.465549
-0.537574
-0.604241
-0.665868
-0.723848
-0.781508
-0.845876
-0.931826
-1.07362
-1.3623
-0.050942
-0.152217
-0.251671
-0.348107
-0.440364
-0.527358
-0.608148
-0.682072
-0.748973
-0.809592
-0.866208
-0.923573
-0.989679
-1.07294
-1.15529
-0.057402
-0.171518
-0.283566
-0.392163
-0.495922
-0.593471
-0.683486
-0.764776
-0.836435
-0.898108
-0.950381
-0.995192
-1.03561
-1.07287
-1.09665
-0.0643398
-0.192253
-0.317856
-0.439575
-0.55579
-0.664812
-0.764878
-0.854162
-0.930827
-0.993146
-1.03973
-1.06985
-1.08373
-1.08215
-1.06427
-0.0718098
-0.214591
-0.35484
-0.490809
-0.62065
-0.742368
-0.853753
-0.952308
-1.03518
-1.0991
-1.1405
-1.15579
-1.14256
-1.10275
-1.05075
-0.0798616
-0.238687
-0.394796
-0.546295
-0.691149
-0.827098
-0.951535
-1.06134
-1.15267
-1.22071
-1.2594
-1.26153
-1.21985
-1.13181
-1.01365
-0.0885365
-0.264669
-0.437953
-0.606393
-0.767829
-0.919819
-1.05947
-1.1832
-1.28635
-1.36268
-1.40367
-1.39769
-1.32932
-1.18177
-0.966029
-0.0978641
-0.292628
-0.484472
-0.671355
-0.851067
-1.0211
-1.17847
-1.31935
-1.43865
-1.52918
-1.58056
-1.57718
-1.49376
-1.27909
-0.77398
-0.107861
-0.322614
-0.534434
-0.741294
-0.941021
-1.13119
-1.3089
-1.47049
-1.61091
-1.72288
-1.79548
-1.81226
-1.74934
-1.57811
-1.30613
-0.118532
-0.354635
-0.587842
-0.816184
-1.03761
-1.24991
-1.45054
-1.63633
-1.80293
-1.9439
-2.04914
-2.10268
-2.08014
-1.9471
-1.64973
-0.129871
-0.388665
-0.644626
-0.895874
-1.14054
-1.37674
-1.60248
-1.81548
-2.01275
-2.18974
-2.33872
-2.44592
-2.48766
-2.43022
-2.26437
-0.141866
-0.424664
-0.704681
-0.980134
-1.24935
-1.51083
-1.76326
-2.00555
-2.23665
-2.45504
-2.65731
-2.8346
-2.96407
-2.9886
-2.76019
-0.15451
-0.462593
-0.767904
-1.06872
-1.36354
-1.65119
-1.93108
-2.20339
-2.46937
-2.73152
-2.99324
-3.25649
-3.51336
-3.72264
-3.78238
-0.167803
-0.502446
-0.834248
-1.16148
-1.48269
-1.79695
-2.10417
-2.40563
-2.70475
-3.0083
-3.3281
-3.68282
-4.09568
-4.56053
-4.80694
-0.181764
-0.544272
-0.903767
-1.25841
-1.60666
-1.94759
-2.28126
-2.60948
-2.93704
-3.27378
-3.63871
-4.06878
-4.64188
-5.55012
-7.38652
-0.196433
-0.58819
-0.976657
-1.35977
-1.73573
-2.10327
-2.46212
-2.8138
-3.16295
-3.51969
-3.90408
-4.35542
-4.95535
-5.89515
-7.70658
-0.211871
-0.634393
-1.05326
-1.46609
-1.87063
-2.26498
-2.64797
-3.01988
-3.38359
-3.74641
-4.12294
-4.53888
-5.03279
-5.63488
-6.19433
-0.228156
-0.683131
-1.13406
-1.57818
-2.01262
-2.43457
-2.8415
-3.23165
-3.60483
-3.96359
-4.31445
-4.66818
-5.0351
-5.40422
-5.69226
-0.245369
-0.734674
-1.2196
-1.69697
-2.16327
-2.61459
-3.04669
-3.4552
-3.8361
-4.18626
-4.50395
-4.78833
-5.03587
-5.22986
-5.31459
-0.263577
-0.789258
-1.31038
-1.82345
-2.32433
-2.80796
-3.26824
-3.69792
-4.0887
-4.43146
-4.71659
-4.93405
-5.07384
-5.13139
-5.13797
-0.282809
-0.847006
-1.40674
-1.9584
-2.49736
-3.01755
-3.51105
-3.96766
-4.37463
-4.71669
-4.97621
-5.1337
-5.16892
-5.0683
-4.86284
-0.303028
-0.907848
-1.50872
-2.10217
-2.68341
-3.24567
-3.77947
-4.27185
-4.70565
-5.05923
-5.30667
-5.41827
-5.35833
-5.07802
-4.57901
-0.324103
-0.971433
-1.61584
-2.25442
-2.88263
-3.49354
-4.07665
-4.61671
-5.09238
-5.47546
-5.73146
-5.82196
-5.70075
-5.23963
-3.68839
-0.345788
-1.03704
-1.72702
-2.41385
-3.09388
-3.76071
-4.40373
-5.00627
-5.5434
-5.97995
-6.27118
-6.37266
-6.27921
-6.15824
-6.84328
-0.367697
-1.10353
-1.8404
-2.57799
-3.31428
-4.0444
-4.7589
-5.44126
-6.06425
-6.58533
-6.94266
-7.05873
-6.87676
-6.51709
-6.8749
-0.389299
-1.1693
-1.95326
-2.74303
-3.53898
-4.33893
-5.13639
-5.91746
-6.65585
-7.30442
-7.78167
-7.95174
-7.59769
-6.37765
-3.59995
-0.40993
-1.23231
-2.0621
-2.90377
-3.76087
-4.6352
-5.52524
-6.42329
-7.30983
-8.14247
-8.834
-9.20871
-8.91995
-7.31989
-3.39596
-0.428813
-1.29016
-2.16268
-3.05379
-3.97081
-4.92054
-5.90852
-6.93711
-8.00122
-9.0785
-10.1063
-10.9264
-11.1528
-9.87588
-5.18362
-0.44511
-1.34026
-2.25034
-3.18583
-4.15801
-5.17931
-6.26359
-7.42625
-8.68344
-10.0489
-11.5228
-13.0564
-14.4296
-14.8036
-10.9122
-0.457986
-1.37998
-2.32035
-3.29238
-4.3111
-5.39433
-6.56423
-7.84972
-9.29048
-10.9439
-12.898
-15.2977
-18.4004
-22.6934
-29.0943
-12.0384
-27.3391
-25.8291
-22.061
-18.5635
-15.6317
-13.1763
-11.0744
-9.22843
-7.56761
-6.04094
-4.61093
-3.24898
-1.9322
-0.641265
-117.544
-61.3135
-39.5877
-28.8566
-22.4589
-18.1086
-14.8653
-12.2802
-10.1133
-8.22471
-6.52674
-4.96086
-3.48549
-2.06911
-0.686105
-130.656
-71.3258
-45.7109
-32.6427
-24.9325
-19.8167
-16.0972
-13.1955
-10.8049
-8.74942
-6.92079
-5.24791
-3.68101
-2.18285
-0.723442
-71.7359
-57.9246
-43.1208
-32.7081
-25.6044
-20.555
-16.7612
-13.7558
-11.2637
-9.11658
-7.20668
-5.46136
-3.82879
-2.26968
-0.75208
-50.619
-45.2124
-37.4814
-30.4754
-24.8498
-20.4214
-16.8775
-13.9597
-11.483
-9.31899
-7.37828
-5.59649
-3.92554
-2.32767
-0.771386
-32.1401
-34.1143
-31.3386
-27.2839
-23.2637
-19.6735
-16.5591
-13.8573
-11.4849
-9.36634
-7.43949
-5.65464
-3.97154
-2.35677
-0.78131
-23.7121
-26.3146
-26.0839
-24.0684
-21.3789
-18.5951
-15.9541
-13.5262
-11.3106
-9.28052
-7.40209
-5.64211
-3.9701
-2.35856
-0.782318
-13.1931
-20.4825
-22.0684
-21.321
-19.5596
-17.4174
-15.2011
-13.0476
-11.0076
-9.08933
-7.28241
-5.56847
-3.92666
-2.33583
-0.775266
-15.9355
-18.6112
-19.6733
-19.2778
-18.0047
-16.2912
-14.4044
-12.4903
-10.6198
-8.82082