/*--------------------------------*- C++ -*----------------------------------*\
| =========                 |                                                 |
| \\      /  F ield         | OpenFOAM: The Open Source CFD Toolbox           |
|  \\    /   O peration     | Version:  5.x                                   |
|   \\  /    A nd           | Web:      www.OpenFOAM.org                      |
|    \\/     M anipulation  |                                                 |
\*---------------------------------------------------------------------------*/
FoamFile
{
    version     2.0;
    format      ascii;
    class       volScalarField;
    location    "3.7";
    object      gradTy;
}
// * * * * * * * * * * * * * * * * * * * * * * * * * * * * * * * * * * * * * //

dimensions      [0 -1 0 1 0 0 0];

internalField   nonuniform List<scalar> 
3200
(
18.2427
8.63168
11.7249
8.30881
9.74546
8.03682
8.79029
7.79039
8.2386
7.59901
7.87384
7.51582
7.72575
7.31653
7.52818
7.13904
7.33763
6.98012
7.16136
6.83838
7.00124
6.71308
6.85778
6.60328
6.731
6.5073
6.62136
6.42201
6.53689
6.36788
6.23264
6.31985
6.20117
6.25894
6.16652
6.21132
6.13704
6.1731
6.11268
6.14203
6.09271
6.11663
6.07644
6.09587
6.06337
6.07891
6.05317
6.06515
6.04589
6.05414
6.04297
6.04916
6.03748
6.04292
6.03386
6.03755
6.03251
6.03361
6.03416
6.03154
6.0402
6.0319
6.05318
6.03538
6.07813
6.04229
6.126
6.04788
6.22257
6.00041
6.2925
7.10703
6.42076
7.94449
6.77906
9.89048
9.12091
9.00322
8.97892
8.97369
17.0033
9.74731
11.3274
8.77257
9.54281
8.26678
8.67017
7.9227
8.16154
7.683
7.82974
7.56251
7.67438
7.36781
7.47962
7.18811
7.29311
7.02533
7.12119
6.87928
6.96544
6.74961
6.82617
6.63557
6.70318
6.53567
6.59621
6.44712
6.5094
6.37162
6.25749
6.30542
6.21678
6.24758
6.1784
6.20216
6.14654
6.16565
6.1204
6.13594
6.09901
6.11168
6.08158
6.09186
6.06753
6.07575
6.05647
6.06281
6.04838
6.05277
6.04442
6.04771
6.03895
6.04182
6.03503
6.03697
6.03319
6.03376
6.03416
6.03275
6.03921
6.03477
6.05068
6.04115
6.07308
6.05379
6.11619
6.07343
6.20278
6.07572
6.35088
6.9919
6.6223
7.76212
7.15597
9.49773
9.09483
8.99948
8.97816
8.97348
16.0542
10.5095
11.0952
9.10331
9.422
8.42956
8.59608
8.01556
8.11316
7.74197
7.8022
7.59402
7.63975
7.40236
7.44719
7.22132
7.2635
7.05598
7.09453
6.90705
6.94171
6.77444
6.80525
6.65752
6.68475
6.55491
6.57945
6.46378
6.48992
6.3744
6.27587
6.29645
6.22761
6.24021
6.18657
6.19617
6.15306
6.16076
6.12569
6.13195
6.10332
6.10843
6.0851
6.08924
6.07038
6.07369
6.05875
6.0613
6.05012
6.0519
6.04541
6.04674
6.03997
6.04111
6.03585
6.03662
6.0337
6.03391
6.03423
6.03364
6.03867
6.03684
6.04919
6.04526
6.07008
6.06203
6.11058
6.0921
6.19325
6.13494
6.39464
6.91719
6.76346
7.64958
7.41497
9.21476
9.05645
8.99278
8.97672
8.97308
15.3268
11.0265
10.9662
9.34163
9.35364
8.54599
8.55188
8.08129
8.08354
7.78369
7.78539
7.61538
7.61644
7.42562
7.42559
7.24381
7.24388
7.0768
7.07691
6.92594
6.92605
6.79135
6.79147
6.67248
6.67262
6.56798
6.56829
6.47476
6.47611
6.3765
6.28948
6.29105
6.23519
6.23549
6.1922
6.1923
6.15754
6.15759
6.12932
6.12936
6.10629
6.10632
6.08752
6.08754
6.07235
6.07236
6.06033
6.06033
6.05134
6.05137
6.04608
6.0461
6.04066
6.04065
6.03643
6.03642
6.03408
6.03406
6.03434
6.03431
6.03839
6.03833
6.04836
6.04822
6.06839
6.06799
6.10766
6.10598
6.1901
6.18144
6.42787
6.86954
6.86303
7.58187
7.59259
9.01011
9.01428
8.98417
8.97479
8.97253
14.7715
11.3738
10.8998
9.51449
9.31806
8.62987
8.52673
8.12811
8.066
7.81334
7.77545
7.6299
7.60081
7.44125
7.41126
7.25903
7.23094
7.09093
7.06533
6.93879
6.91579
6.80287
6.78245
6.68267
6.66467
6.57686
6.56089
6.48195
6.46633
6.3781
6.29955
6.28795
6.24051
6.23252
6.1961
6.18982
6.16063
6.15555
6.13183
6.12769
6.10833
6.10496
6.08919
6.08645
6.0737
6.07151
6.06142
6.05973
6.0522
6.05105
6.04654
6.04568
6.04114
6.04036
6.03684
6.03631
6.03436
6.0342
6.03446
6.03481
6.03829
6.03943
6.04794
6.05037
6.06753
6.07236
6.10639
6.11642
6.19065
6.21773
6.4533
6.83981
6.93359
7.54249
7.71394
8.862
8.97348
8.97474
8.97258
8.9719
14.3521
11.6042
10.8698
9.6398
9.30216
8.69036
8.51341
8.16146
8.05609
7.83441
7.76982
7.63976
7.5904
7.4517
7.40182
7.26928
7.22248
7.10049
7.05779
6.9475
6.90913
6.81069
6.7766
6.6896
6.65952
6.58286
6.55601
6.48661
6.45945
6.37931
6.30694
6.28629
6.24426
6.23068
6.1988
6.18825
6.16276
6.15426
6.13355
6.12664
6.10974
6.1041
6.09034
6.08576
6.07464
6.07098
6.06218
6.05936
6.0528
6.05086
6.04686
6.0454
6.04147
6.04018
6.03713
6.03626
6.03458
6.03432
6.03458
6.03519
6.03828
6.04022
6.04775
6.05193
6.06716
6.07556
6.10608
6.1243
6.19309
6.24568
6.47269
6.82179
6.98353
7.52061
7.79623
8.75536
8.9371
8.96544
8.97031
8.97123
14.0426
11.7541
10.8596
9.72941
9.29723
8.73345
8.50709
8.18496
8.05082
7.8492
7.76681
7.6464
7.58357
7.45859
7.39569
7.2761
7.21704
7.10687
7.05295
6.95333
6.90487
6.81593
6.77288
6.69424
6.65622
6.58686
6.55284
6.48957
6.4547
6.38022
6.31225
6.28548
6.24687
6.22958
6.20064
6.18729
6.1642
6.15346
6.13472
6.12598
6.11069
6.10357
6.09112
6.08534
6.07528
6.07065
6.0627
6.05914
6.05322
6.05076
6.04707
6.04522
6.04169
6.04007
6.03733
6.03624
6.03474
6.03442
6.03468
6.03547
6.03831
6.0408
6.04771
6.05305
6.06706
6.07787
6.10627
6.13016
6.19618
6.26666
6.4872
6.81126
7.01847
7.50918
7.85117
8.67981
8.90685
8.95708
8.9682
8.97061
13.8246
11.8483
10.8589
9.79111
9.29756
8.76305
8.5046
8.20094
8.04826
7.85921
7.76532
7.65073
7.57922
7.463
7.39183
7.2805
7.21363
7.111
7.04995
6.95711
6.90223
6.81934
6.77057
6.69727
6.65419
6.58946
6.55083
6.49141
6.45153
6.38086
6.31593
6.28515
6.24863
6.22894
6.20186
6.18671
6.16516
6.15298
6.13549
6.12558
6.11132
6.10325
6.09163
6.08508
6.0757
6.07046
6.06305
6.05901
6.0535
6.05071
6.04721
6.04511
6.04184
6.04001
6.03747
6.03623
6.03485
6.0345
6.03476
6.03567
6.03836
6.0412
6.04772
6.05382
6.06709
6.07948
6.10663
6.13433
6.1991
6.28164
6.49757
6.80541
7.04207
7.50371
7.88665
8.62832
8.88367
8.95029
8.96643
8.97008
13.6857
11.9029
10.8613
9.82984
9.29953
8.78161
8.50392
8.21088
8.04716
7.86543
7.76466
7.65335
7.57666
7.46562
7.38957
7.28312
7.21166
7.11348
7.04821
6.95938
6.90072
6.82139
6.76925
6.69908
6.65302
6.59101
6.54965
6.49246
6.4496
6.38127
6.31823
6.28504
6.24972
6.2286
6.2026
6.18639
6.16573
6.15271
6.13595
6.12536
6.1117
6.10306
6.09194
6.08494
6.07595
6.07035
6.06326
6.05894
6.05368
6.05068
6.0473
6.04504
6.04192
6.03998
6.03755
6.03624
6.03493
6.03455
6.03482
6.03579
6.0384
6.04145
6.04775
6.05431
6.06715
6.0805
6.10697
6.13702
6.2013
6.29128
6.50426
6.80241
7.05666
7.50138
7.90779
8.59629
8.86804
8.94552
8.96517
8.9697
13.618
11.9279
10.8633
9.84852
9.30101
8.79055
8.50386
8.21566
8.04678
7.8684
7.76442
7.65458
7.57548
7.46683
7.38854
7.28434
7.21076
7.11463
7.04742
6.96044
6.90003
6.82235
6.76865
6.69993
6.65248
6.59173
6.54911
6.49293
6.44868
6.38148
6.31935
6.28503
6.25024
6.22845
6.20295
6.18625
6.16601
6.15259
6.13617
6.12526
6.11188
6.10298
6.09209
6.08487
6.07608
6.0703
6.06336
6.05892
6.05376
6.05067
6.04734
6.04502
6.04197
6.03996
6.03759
6.03624
6.03496
6.03457
6.03485
6.03586
6.03842
6.04157
6.04778
6.05455
6.0672
6.08099
6.10717
6.13833
6.20248
6.296
6.50754
6.80116
7.06364
7.50058
7.91764
8.58093
8.86019
8.94306
8.96451
8.9695
-13.7089
-11.905
-10.6769
-9.33838
-8.5283
-7.63673
-7.07498
-6.4234
-6.00863
-5.52695
-5.23381
-4.90861
-4.67137
-4.34345
-4.10825
-3.79728
-3.58002
-3.29965
-3.10603
-2.85878
-2.68891
-2.473
-2.32491
-2.1369
-2.00762
-1.84267
-1.72687
-1.57398
-1.45252
-1.26647
-1.09238
-0.994749
-0.893536
-0.828975
-0.751869
-0.700458
-0.636915
-0.594063
-0.540605
-0.504438
-0.459199
-0.428586
-0.390305
-0.364463
-0.332258
-0.310687
-0.284094
-0.266685
-0.245893
-0.233075
-0.218644
-0.208032
-0.193273
-0.182656
-0.168579
-0.158734
-0.146018
-0.137241
-0.126044
-0.11838
-0.10869
-0.10214
-0.0940013
-0.088742
-0.0826644
-0.0796726
-0.0781423
-0.0820085
-0.0969343
-0.131577
-0.22308
-0.3709
-0.526785
-0.81518
-1.11943
-1.63084
-1.84717
-1.91146
-1.9281
-1.93197
-13.7811
-11.882
-10.6813
-9.31726
-8.53157
-7.62354
-7.07858
-6.41394
-6.01131
-5.51941
-5.2351
-4.9051
-4.67501
-4.33975
-4.11129
-3.79354
-3.58255
-3.29618
-3.10818
-2.8557
-2.69076
-2.47029
-2.32651
-2.13456
-2.00905
-1.84071
-1.72836
-1.57272
-1.45511
-1.266
-1.08932
-0.994897
-0.892075
-0.829482
-0.750846
-0.700948
-0.636091
-0.594492
-0.539917
-0.504805
-0.458618
-0.428897
-0.389811
-0.364721
-0.331836
-0.310891
-0.28373
-0.266824
-0.245577
-0.233142
-0.218494
-0.208201
-0.19311
-0.182796
-0.168412
-0.158851
-0.145862
-0.13734
-0.125905
-0.118463
-0.108566
-0.102205
-0.0938879
-0.0887764
-0.0825425
-0.0796156
-0.0779278
-0.0815674
-0.0961468
-0.129304
-0.220828
-0.370577
-0.521485
-0.814546
-1.11114
-1.64265
-1.85325
-1.91336
-1.92861
-1.93212
-13.9292
-11.831
-10.6923
-9.273
-8.53974
-7.59585
-7.08698
-6.394
-6.01758
-5.50359
-5.23823
-4.8976
-4.68286
-4.33178
-4.11791
-3.78553
-3.58811
-3.2888
-3.11292
-2.84911
-2.69484
-2.46453
-2.33005
-2.12957
-2.0122
-1.83652
-1.73159
-1.56996
-1.46057
-1.26503
-1.08299
-0.995388
-0.88901
-0.830636
-0.748679
-0.702041
-0.634343
-0.595444
-0.538456
-0.505619
-0.457383
-0.429586
-0.388762
-0.365294
-0.330941
-0.311348
-0.282959
-0.267139
-0.244911
-0.233301
-0.218173
-0.208565
-0.192759
-0.183103
-0.168055
-0.159108
-0.145531
-0.137558
-0.125608
-0.118646
-0.108303
-0.102351
-0.093648
-0.0888574
-0.08229
-0.0795106
-0.0775017
-0.0806901
-0.0946174
-0.124697
-0.216248
-0.370209
-0.510499
-0.81377
-1.09346
-1.66728
-1.86535
-1.91706
-1.92958
-1.93241
-14.1613
-11.7417
-10.7145
-9.20132
-8.55635
-7.55076
-7.10275
-6.36142
-6.02935
-5.47782
-5.24438
-4.88508
-4.69617
-4.31834
-4.12928
-3.77214
-3.59775
-3.27648
-3.12118
-2.83816
-2.70196
-2.45494
-2.33624
-2.12126
-2.0177
-1.8295
-1.7371
-1.56511
-1.46948
-1.26353
-1.07288
-0.996635
-0.884031
-0.832738
-0.745105
-0.703982
-0.631447
-0.597125
-0.536033
-0.507054
-0.455334
-0.430801
-0.387022
-0.366307
-0.329458
-0.31216
-0.281689
-0.267714
-0.243824
-0.233605
-0.217634
-0.209179
-0.192164
-0.183628
-0.167457
-0.159553
-0.144978
-0.137937
-0.125114
-0.118967
-0.107866
-0.102608
-0.0932536
-0.0890113
-0.0818877
-0.0793764
-0.0768692
-0.0793847
-0.0924433
-0.117632
-0.209173
-0.370389
-0.492994
-0.813938
-1.06401
-1.70695
-1.88331
-1.92232
-1.93095
-1.93282
-14.4901
-11.5967
-10.7561
-9.09491
-8.58739
-7.48337
-7.13027
-6.31247
-6.04992
-5.43934
-5.25557
-4.86575
-4.71705
-4.29735
-4.14738
-3.75145
-3.61327
-3.25753
-3.13457
-2.82134
-2.71353
-2.44022
-2.34628
-2.1085
-2.02658
-1.81866
-1.74579
-1.55721
-1.4828
-1.26143
-1.0582
-0.999343
-0.876606
-0.8363
-0.739675
-0.707184
-0.627028
-0.599881
-0.532331
-0.509402
-0.452203
-0.432789
-0.384364
-0.367969
-0.327198
-0.313502
-0.279763
-0.268689
-0.242194
-0.234141
-0.216797
-0.210139
-0.191234
-0.184461
-0.16653
-0.160267
-0.144126
-0.13855
-0.124356
-0.119488
-0.107198
-0.103032
-0.0926566
-0.0892823
-0.0813026
-0.0792438
-0.0760374
-0.077659
-0.0897852
-0.107915
-0.199311
-0.372113
-0.467556
-0.81694
-1.01884
-1.76528
-1.90675
-1.9288
-1.93258
-1.9333
-14.9347
-11.3696
-10.8306
-8.94237
-8.6423
-7.38596
-7.17638
-6.24131
-6.08441
-5.3838
-5.27501
-4.83678
-4.74877
-4.26559
-4.17533
-3.72045
-3.6375
-3.22928
-3.15557
-2.79631
-2.73173
-2.41834
-2.36209
-2.08952
-2.04052
-1.80242
-1.75912
-1.54476
-1.50202
-1.25861
-1.03775
-1.00461
-0.865888
-0.84212
-0.731685
-0.712299
-0.620494
-0.604258
-0.526848
-0.513127
-0.447564
-0.435942
-0.380428
-0.370611
-0.323858
-0.31565
-0.276933
-0.270285
-0.23983
-0.235052
-0.215537
-0.211592
-0.189821
-0.185743
-0.16514
-0.161379
-0.142853
-0.13951
-0.123226
-0.120308
-0.106207
-0.103706
-0.0917815
-0.0897393
-0.0804824
-0.0791586
-0.0750139
-0.0755145
-0.0868884
-0.0952674
-0.186195
-0.376933
-0.43196
-0.825841
-0.951896
-1.8478
-1.93497
-1.936
-1.93434
-1.9338
-15.5219
-11.0215
-10.9591
-8.72631
-8.73547
-7.24669
-7.25152
-6.13905
-6.14067
-5.30459
-5.30764
-4.79382
-4.79632
-4.21811
-4.21787
-3.67458
-3.67476
-3.18765
-3.188
-2.75951
-2.75988
-2.38618
-2.38655
-2.0616
-2.06202
-1.7784
-1.7793
-1.52544
-1.52926
-1.25489
-1.0098
-1.01411
-0.850579
-0.851412
-0.720059
-0.720315
-0.610942
-0.611087
-0.518823
-0.518929
-0.440772
-0.440856
-0.374669
-0.374733
-0.31898
-0.319022
-0.272824
-0.272836
-0.236441
-0.236556
-0.213656
-0.21376
-0.187703
-0.187689
-0.163078
-0.163084
-0.140976
-0.14099
-0.121564
-0.121578
-0.104754
-0.104759
-0.090513
-0.0904867
-0.0793466
-0.0791879
-0.0738062
-0.0729365
-0.0841126
-0.0793195
-0.169086
-0.387181
-0.38281
-0.845455
-0.854154
-1.96268
-1.96663
-1.94332
-1.93604
-1.93429
-16.2892
-10.4959
-11.1744
-8.42059
-8.88857
-7.04769
-7.37136
-5.99222
-6.23044
-5.19183
-5.36095
-4.73021
-4.8671
-4.14752
-4.28215
-3.60699
-3.73151
-3.12654
-3.23759
-2.70555
-2.80301
-2.33906
-2.42404
-2.02067
-2.0949
-1.74301
-1.80968
-1.49583
-1.56765
-1.25001
-0.971879
-1.03033
-0.8287
-0.865997
-0.703173
-0.732722
-0.597014
-0.621617
-0.507107
-0.527867
-0.430855
-0.448424
-0.366263
-0.381092
-0.311874
-0.324247
-0.26687
-0.276847
-0.231595
-0.238983
-0.210859
-0.216978
-0.184546
-0.190622
-0.160035
-0.165676
-0.138217
-0.14325
-0.119127
-0.123523
-0.102629
-0.106383
-0.0886775
-0.0916804
-0.0777732
-0.0794277
-0.0724194
-0.0698781
-0.0819769
-0.0595903
-0.146845
-0.406328
-0.31498
-0.883226
-0.712419
-2.12174
-1.99939
-1.94999
-1.93753
-1.9347
-17.2881
-9.71136
-11.527
-7.986
-9.13403
-6.76211
-7.55933
-5.78072
-6.37129
-5.03077
-5.44627
-4.6359
-4.97215
-4.04278
-4.37882
-3.50741
-3.81745
-3.03679
-3.31291
-2.62643
-2.8686
-2.26999
-2.48107
-1.96065
-2.14482
-1.69088
-1.85529
-1.45079
-1.62161
-1.24355
-0.920501
-1.05695
-0.797269
-0.888592
-0.678598
-0.751743
-0.576678
-0.637717
-0.489985
-0.541519
-0.416358
-0.459985
-0.353982
-0.390817
-0.301507
-0.332265
-0.258225
-0.28307
-0.224647
-0.242834
-0.206694
-0.221742
-0.179852
-0.195024
-0.155544
-0.169595
-0.13416
-0.146678
-0.115552
-0.126482
-0.0995212
-0.108868
-0.0860155
-0.0935524
-0.0755789
-0.0800157
-0.0708555
-0.0662356
-0.0812218
-0.0354768
-0.117716
-0.439509
-0.220767
-0.950559
-0.507478
-2.34206
-2.02922
-1.95518
-1.93862
-1.935
-18.5902
-8.55113
-12.0938
-7.36381
-9.52025
-6.34973
-7.85029
-5.47441
-6.58935
-4.79944
-5.58058
-4.4957
-5.12778
-3.88739
-4.52376
-3.36055
-3.94699
-2.90475
-3.42671
-2.51013
-2.9678
-2.16851
-2.56733
-1.87241
-2.22024
-1.61399
-1.92363
-1.38272
-1.69751
-1.23487
-0.850721
-1.0994
-0.751778
-0.92322
-0.642677
-0.780675
-0.54688
-0.662149
-0.464876
-0.562223
-0.395095
-0.477516
-0.335973
-0.405573
-0.286325
-0.344462
-0.245613
-0.292611
-0.214623
-0.248846
-0.200471
-0.228771
-0.172864
-0.201602
-0.148903
-0.175484
-0.128176
-0.151844
-0.110285
-0.130948
-0.0949532
-0.112634
-0.0821311
-0.096438
-0.0724821
-0.0811414
-0.0691044
-0.0618034
-0.0828913
-0.00623927
-0.0790018
-0.494309
-0.0886108
-1.06481
-0.211432
-2.64828
-2.04951
-1.95807
-1.93921
-1.93515
18.5902
8.55114
12.0938
7.36382
9.52026
6.34974
7.8503
5.47441
6.58935
4.79944
5.58059
4.4957
5.12779
3.88739
4.52376
3.36055
3.947
2.90475
3.42671
2.51013
2.9678
2.16851
2.56733
1.87241
2.22025
1.61399
1.92363
1.38272
1.69751
1.23487
0.850719
1.0994
0.751777
0.92322
0.642676
0.780674
0.546879
0.662149
0.464874
0.562223
0.395093
0.477516
0.335972
0.405573
0.286324
0.344462
0.245612
0.292611
0.214622
0.248846
0.200471
0.228771
0.172864
0.201602
0.148903
0.175484
0.128175
0.151844
0.110285
0.130948
0.0949526
0.112634
0.0821305
0.096438
0.0724814
0.0811416
0.0691033
0.061804
0.0828887
0.00624215
0.0789981
0.494285
0.0886041
1.06477
0.211413
2.64821
2.04945
1.95802
1.93915
1.9351
17.2882
9.71138
11.527
7.98601
9.13404
6.76213
7.55934
5.78073
6.3713
5.03078
5.44628
4.63592
4.97216
4.04279
4.37883
3.50742
3.81747
3.0368
3.31292
2.62644
2.86861
2.27
2.48107
1.96065
2.14483
1.69088
1.8553
1.4508
1.62162
1.24356
0.920505
1.05696
0.797273
0.888597
0.678601
0.751747
0.576681
0.637721
0.489988
0.541523
0.416361
0.459988
0.353985
0.39082
0.30151
0.332268
0.258228
0.283072
0.224649
0.242836
0.206696
0.221744
0.179854
0.195027
0.155546
0.169597
0.134162
0.14668
0.115553
0.126484
0.0995225
0.10887
0.0860167
0.0935538
0.0755798
0.080017
0.0708559
0.0662368
0.0812206
0.0354786
0.117712
0.439488
0.220755
0.95052
0.507451
2.34199
2.02916
1.95512
1.93857
1.93494
16.2892
10.4959
11.1744
8.42061
8.88859
7.04771
7.37138
5.99224
6.23046
5.19185
5.36097
4.73023
4.86712
4.14754
4.28216
3.607
3.73153
3.12656
3.2376
2.70557
2.80302
2.33907
2.42405
2.02068
2.09491
1.74302
1.80969
1.49584
1.56766
1.25002
0.971888
1.03034
0.828708
0.866005
0.70318
0.732729
0.597021
0.621624
0.507114
0.527873
0.430861
0.44843
0.366269
0.381098
0.311879
0.324252
0.266875
0.276851
0.2316
0.238987
0.210863
0.216983
0.18455
0.190626
0.160038
0.16568
0.13822
0.143253
0.11913
0.123526
0.102632
0.106386
0.0886801
0.0916831
0.0777754
0.07943
0.072421
0.06988
0.0819768
0.0595915
0.14684
0.406309
0.314965
0.88319
0.712387
2.12167
1.99933
1.94993
1.93747
1.93464
15.5219
11.0215
10.9591
8.72634
8.73549
7.24672
7.25154
6.13907
6.14069
5.30462
5.30766
4.79384
4.79634
4.21813
4.21789
3.6746
3.67478
3.18767
3.18801
2.75952
2.7599
2.38619
2.38657
2.06161
2.06204
1.77842
1.77932
1.52546
1.52928
1.2549
1.00981
1.01412
0.850588
0.851421
0.720067
0.720324
0.61095
0.611095
0.51883
0.518937
0.440779
0.440862
0.374675
0.374739
0.318986
0.319028
0.27283
0.272841
0.236446
0.236561
0.213661
0.213765
0.187708
0.187694
0.163083
0.163089
0.14098
0.140994
0.121568
0.121581
0.104757
0.104762
0.0905161
0.0904898
0.0793493
0.0791905
0.0738082
0.0729385
0.0841129
0.0793198
0.16908
0.387164
0.382793
0.84542
0.854119
1.96262
1.96657
1.94326
1.93598
1.93423
14.9347
11.3697
10.8306
8.9424
8.64232
7.38599
7.1764
6.24134
6.08444
5.38382
5.27503
4.83681
4.7488
4.26561
4.17535
3.72047
3.63752
3.2293
3.15558
2.79633
2.73174
2.41835
2.3621
2.08953
2.04053
1.80244
1.75914
1.54477
1.50203
1.25862
1.03776
1.00462
0.865898
0.84213
0.731694
0.712308
0.620503
0.604267
0.526856
0.513135
0.447572
0.43595
0.380435
0.370617
0.323864
0.315656
0.276939
0.270291
0.239835
0.235057
0.215542
0.211597
0.189826
0.185748
0.165144
0.161384
0.142858
0.139514
0.12323
0.120312
0.10621
0.103709
0.0917848
0.0897425
0.0804853
0.0791614
0.0750161
0.0755164
0.0868887
0.095267
0.186188
0.376916
0.431941
0.825807
0.951859
1.84775
1.93491
1.93595
1.93428
1.93374
14.4901
11.5968
10.7562
9.09494
8.58741
7.4834
7.13029
6.31249
6.04994
5.43936
5.25559
4.86577
4.71707
4.29737
4.1474
3.75146
3.61329
3.25755
3.13458
2.82136
2.71355
2.44024
2.3463
2.10852
2.0266
1.81867
1.74581
1.55723
1.48282
1.26144
1.05821
0.999354
0.876616
0.83631
0.739684
0.707194
0.627037
0.599889
0.532339
0.50941
0.45221
0.432796
0.384371
0.367976
0.327204
0.313508
0.279769
0.268695
0.2422
0.234146
0.216803
0.210144
0.191239
0.184466
0.166535
0.160272
0.14413
0.138554
0.12436
0.119492
0.107202
0.103036
0.0926601
0.0892856
0.0813056
0.0792465
0.0760396
0.0776608
0.0897856
0.107914
0.199305
0.372098
0.467536
0.816907
1.01881
1.76522
1.90669
1.92874
1.93252
1.93324
14.1613
11.7417
10.7145
9.20134
8.55637
7.55078
7.10278
6.36144
6.02938
5.47784
5.2444
4.8851
4.69619
4.31836
4.1293
3.77216
3.59777
3.2765
3.1212
2.83818
2.70198
2.45495
2.33625
2.12128
2.01771
1.82951
1.73711
1.56512
1.46949
1.26355
1.07289
0.996646
0.884042
0.832748
0.745114
0.703991
0.631456
0.597133
0.536042
0.507061
0.455342
0.430808
0.387029
0.366314
0.329465
0.312166
0.281695
0.26772
0.24383
0.23361
0.217639
0.209184
0.192169
0.183633
0.167461
0.159558
0.144982
0.137941
0.125118
0.118971
0.10787
0.102612
0.0932571
0.0890146
0.0818907
0.0793792
0.0768714
0.0793864
0.0924436
0.117631
0.209166
0.370374
0.492974
0.813906
1.06397
1.7069
1.88325
1.92226
1.93089
1.93276
13.9292
11.8311
10.6923
9.27303
8.53977
7.59587
7.087
6.39403
6.0176
5.50361
5.23825
4.89763
4.68288
4.3318
4.11793
3.78555
3.58813
3.28881
3.11294
2.84913
2.69485
2.46454
2.33007
2.12959
2.01222
1.83653
1.73161
1.56997
1.46058
1.26504
1.083
0.995398
0.88902
0.830645
0.748688
0.70205
0.634351
0.595452
0.538464
0.505626
0.45739
0.429593
0.388769
0.365301
0.330947
0.311354
0.282965
0.267145
0.244917
0.233307
0.218178
0.20857
0.192764
0.183108
0.16806
0.159113
0.145535
0.137562
0.125612
0.11865
0.108307
0.102354
0.0936514
0.0888606
0.0822929
0.0795133
0.0775038
0.0806917
0.0946177
0.124695
0.216242
0.370195
0.510479
0.813739
1.09342
1.66723
1.8653
1.917
1.92953
1.93235
13.7811
11.882
10.6813
9.31728
8.53159
7.62357
7.07861
6.41396
6.01133
5.51943
5.23512
4.90512
4.67503
4.33977
4.11131
3.79355
3.58257
3.2962
3.1082
2.85571
2.69077
2.47031
2.32653
2.13458
2.00906
1.84072
1.72838
1.57274
1.45512
1.26601
1.08933
0.994908
0.892085
0.829491
0.750855
0.700956
0.6361
0.594499
0.539925
0.504812
0.458625
0.428904
0.389818
0.364727
0.331842
0.310897
0.283736
0.266829
0.245582
0.233148
0.218499
0.208206
0.193115
0.182801
0.168417
0.158856
0.145867
0.137344
0.125909
0.118466
0.108569
0.102209
0.0938911
0.0887794
0.0825453
0.0796181
0.0779298
0.0815689
0.0961469
0.129302
0.220821
0.370563
0.521465
0.814515
1.1111
1.64259
1.8532
1.9133
1.92855
1.93206
13.7089
11.905
10.6769
9.33841
8.52832
7.63675
7.075
6.42342
6.00865
5.52697
5.23383
4.90863
4.67139
4.34347
4.10827
3.79729
3.58004
3.29966
3.10604
2.8588
2.68893
2.47301
2.32492
2.13692
2.00763
1.84268
1.72689
1.57399
1.45253
1.26648
1.09239
0.994758
0.893545
0.828984
0.751878
0.700466
0.636922
0.59407
0.540612
0.504444
0.459206
0.428593
0.390311
0.364468
0.332264
0.310693
0.2841
0.266691
0.245898
0.23308
0.218649
0.208037
0.193278
0.18266
0.168583
0.158738
0.146022
0.137245
0.126048
0.118383
0.108693
0.102143
0.0940044
0.0887449
0.082667
0.079675
0.0781442
0.0820098
0.0969343
0.131575
0.223073
0.370885
0.526765
0.81515
1.11939
1.63079
1.84712
1.9114
1.92804
1.93191
-13.6216
-11.9329
-10.8701
-9.85903
-9.31567
-8.81316
-8.53554
-8.26468
-8.11434
-7.96584
-7.86346
-7.72796
-7.6325
-7.50815
-7.4214
-7.30938
-7.23148
-7.13114
-7.06151
-6.97206
-6.91017
-6.83092
-6.77626
-6.70647
-6.65836
-6.59683
-6.55371
-6.49693
-6.45223
-6.3844
-6.32171
-6.28709
-6.25202
-6.23005
-6.20436
-6.18753
-6.16713
-6.15361
-6.13708
-6.12609
-6.11261
-6.10365
-6.09268
-6.08541
-6.07655
-6.07074
-6.06375
-6.05927
-6.05408
-6.05097
-6.04761
-6.04527
-6.0422
-6.04018
-6.03779
-6.03642
-6.03512
-6.03472
-6.03498
-6.03598
-6.03853
-6.04167
-6.04787
-6.05463
-6.06727
-6.08106
-6.10723
-6.13839
-6.20253
-6.29604
-6.50758
-6.80119
-7.06367
-7.5006
-7.91765
-8.58094
-8.86019
-8.94307
-8.96451
-8.9695
-13.6891
-11.9079
-10.868
-9.84033
-9.31404
-8.80417
-8.53527
-8.25987
-8.11427
-7.96399
-7.86478
-7.72636
-7.63366
-7.50664
-7.42241
-7.30802
-7.23238
-7.12991
-7.06231
-6.97096
-6.91087
-6.82993
-6.77686
-6.70561
-6.65889
-6.5961
-6.55426
-6.49645
-6.45316
-6.38419
-6.32059
-6.28711
-6.25149
-6.2302
-6.20401
-6.18767
-6.16686
-6.15373
-6.13686
-6.12619
-6.11243
-6.10373
-6.09253
-6.08548
-6.07643
-6.07079
-6.06365
-6.0593
-6.054
-6.05098
-6.04757
-6.0453
-6.04216
-6.04019
-6.03775
-6.03642
-6.03509
-6.0347
-6.03495
-6.03592
-6.03851
-6.04155
-6.04784
-6.05439
-6.06723
-6.08057
-6.10703
-6.13707
-6.20135
-6.29132
-6.50429
-6.80244
-7.05669
-7.5014
-7.9078
-8.5963
-8.86805
-8.94553
-8.96517
-8.9697
-13.8279
-11.8532
-10.8655
-9.80157
-9.31175
-8.78554
-8.53526
-8.24986
-8.11438
-7.96011
-7.86768
-7.72293
-7.63619
-7.50343
-7.42463
-7.3051
-7.23435
-7.12729
-7.06405
-6.9686
-6.9124
-6.82784
-6.7782
-6.70376
-6.66007
-6.59453
-6.55544
-6.49538
-6.45511
-6.38377
-6.31826
-6.28721
-6.2504
-6.23055
-6.20326
-6.18799
-6.16627
-6.15401
-6.13639
-6.12641
-6.11205
-6.10391
-6.09222
-6.08562
-6.07617
-6.0709
-6.06343
-6.05937
-6.05382
-6.051
-6.04749
-6.04537
-6.04207
-6.04023
-6.03766
-6.03641
-6.03501
-6.03464
-6.03489
-6.03579
-6.03846
-6.0413
-6.04781
-6.05391
-6.06716
-6.07955
-6.10669
-6.13438
-6.19915
-6.28168
-6.4976
-6.80544
-7.04209
-7.50373
-7.88667
-8.62833
-8.88368
-8.9503
-8.96644
-8.97009
-14.0457
-11.759
-10.866
-9.73984
-9.31092
-8.75587
-8.53666
-8.23385
-8.11525
-7.95375
-7.87267
-7.71718
-7.64057
-7.49806
-7.42848
-7.30024
-7.23777
-7.12291
-7.06709
-6.96468
-6.91506
-6.82434
-6.78052
-6.70068
-6.66213
-6.59189
-6.55747
-6.49353
-6.45831
-6.38312
-6.31455
-6.28755
-6.24862
-6.23119
-6.20203
-6.18857
-6.16531
-6.15449
-6.13561
-6.12681
-6.11141
-6.10424
-6.0917
-6.08588
-6.07575
-6.07109
-6.06309
-6.0595
-6.05354
-6.05106
-6.04734
-6.04548
-6.04192
-6.04029
-6.03752
-6.03642
-6.0349
-6.03457
-6.03481
-6.03559
-6.03842
-6.0409
-6.0478
-6.05313
-6.06713
-6.07794
-6.10633
-6.13021
-6.19623
-6.26671
-6.48724
-6.81129
-7.0185
-7.5092
-7.85119
-8.67982
-8.90685
-8.95709
-8.9682
-8.97061
-14.355
-11.6091
-10.8758
-9.65023
-9.31514
-8.71277
-8.54141
-8.21048
-8.11784
-7.94418
-7.88064
-7.70828
-7.64758
-7.48977
-7.43468
-7.29275
-7.2433
-7.11618
-7.07198
-6.95865
-6.91937
-6.81898
-6.78429
-6.69595
-6.66545
-6.58783
-6.56067
-6.49052
-6.4631
-6.38221
-6.30918
-6.28836
-6.24599
-6.2323
-6.20017
-6.18955
-6.16386
-6.1553
-6.13443
-6.12747
-6.11045
-6.10478
-6.09091
-6.08631
-6.07511
-6.07142
-6.06256
-6.05972
-6.05312
-6.05116
-6.04713
-6.04566
-6.0417
-6.0404
-6.03732
-6.03644
-6.03474
-6.03447
-6.03471
-6.03531
-6.03838
-6.04033
-6.04784
-6.05202
-6.06723
-6.07563
-6.10614
-6.12436
-6.19314
-6.24573
-6.47273
-6.82182
-6.98356
-7.52063
-7.79624
-8.75537
-8.9371
-8.96545
-8.97031
-8.97124
-14.7741
-11.3787
-10.9053
-9.52501
-9.33005
-8.65244
-8.55254
-8.17758
-8.12367
-7.93021
-7.89296
-7.69491
-7.65847
-7.47738
-7.44435
-7.28156
-7.25192
-7.10613
-7.07965
-6.94966
-6.92612
-6.81098
-6.7902
-6.68891
-6.67066
-6.58175
-6.5656
-6.48581
-6.47003
-6.38098
-6.30173
-6.29004
-6.24221
-6.23415
-6.19746
-6.19112
-6.16171
-6.1566
-6.1327
-6.12854
-6.10904
-6.10564
-6.08976
-6.087
-6.07416
-6.07196
-6.0618
-6.06009
-6.05251
-6.05135
-6.04681
-6.04594
-6.04137
-6.04058
-6.03703
-6.03649
-6.03452
-6.03435
-6.03459
-6.03494
-6.03839
-6.03953
-6.04802
-6.05046
-6.0676
-6.07243
-6.10645
-6.11648
-6.1907
-6.21778
-6.45334
-6.83984
-6.93361
-7.54251
-7.71396
-8.86201
-8.97349
-8.97474
-8.97259
-8.9719
-15.329
-11.0314
-10.9712
-9.35237
-9.36427
-8.569
-8.57468
-8.13183
-8.13509
-7.90998
-7.91172
-7.67508
-7.67516
-7.45906
-7.45921
-7.26504
-7.2652
-7.09131
-7.09145
-6.93641
-6.93654
-6.79921
-6.79933
-6.67855
-6.67869
-6.57276
-6.57307
-6.47854
-6.4799
-6.37935
-6.29157
-6.29316
-6.23684
-6.23715
-6.19352
-6.19362
-6.1586
-6.15865
-6.13018
-6.13022
-6.10698
-6.10701
-6.08808
-6.0881
-6.0728
-6.07281
-6.06069
-6.0607
-6.05164
-6.05167
-6.04635
-6.04637
-6.04089
-6.04088
-6.03662
-6.03661
-6.03423
-6.03422
-6.03447
-6.03444
-6.0385
-6.03844
-6.04845
-6.04831
-6.06846
-6.06806
-6.10772
-6.10603
-6.19014
-6.18148
-6.42791
-6.86957
-6.86306
-7.58189
-7.59261
-9.01012
-9.01428
-8.98418
-8.9748
-8.97254
-16.0558
-10.5146
-11.0993
-9.1145
-9.43078
-8.45352
-8.61475
-8.06825
-8.15564
-7.88069
-7.94002
-7.64579
-7.70049
-7.4321
-7.48185
-7.24075
-7.28544
-7.06953
-7.10947
-6.91695
-6.95245
-6.78194
-6.8133
-6.66335
-6.69097
-6.55951
-6.58434
-6.46743
-6.49384
-6.37722
-6.27784
-6.29859
-6.2292
-6.2419
-6.18784
-6.19752
-6.15408
-6.16185
-6.12652
-6.13283
-6.10399
-6.10913
-6.08564
-6.08981
-6.07082
-6.07415
-6.05911
-6.06167
-6.05042
-6.05221
-6.04567
-6.04702
-6.04018
-6.04134
-6.03603
-6.03681
-6.03385
-6.03407
-6.03435
-6.03377
-6.03877
-6.03694
-6.04928
-6.04535
-6.07015
-6.0621
-6.11064
-6.09216
-6.1933
-6.13499
-6.39467
-6.91722
-6.76349
-7.6496
-7.41499
-9.21476
-9.05645
-8.99278
-8.97673
-8.97308
-17.0043
-9.75284
-11.3302
-8.78459
-9.54903
-8.2925
-8.68314
-7.97931
-8.19069
-7.83802
-7.98245
-7.60253
-7.73874
-7.39241
-7.51613
-7.20503
-7.31611
-7.03751
-7.13678
-6.88838
-6.97661
-6.7566
-6.83453
-6.64105
-6.70961
-6.54002
-6.60127
-6.45059
-6.5135
-6.3744
-6.2593
-6.30764
-6.21828
-6.24933
-6.17962
-6.20355
-6.14752
-6.16677
-6.12119
-6.13684
-6.09965
-6.11241
-6.0821
-6.09245
-6.06794
-6.07623
-6.05681
-6.06319
-6.04867
-6.05308
-6.04467
-6.04799
-6.03917
-6.04206
-6.03521
-6.03717
-6.03333
-6.03392
-6.03428
-6.03288
-6.03931
-6.03488
-6.05076
-6.04124
-6.07315
-6.05387
-6.11624
-6.07349
-6.20283
-6.07577
-6.35092
-6.99193
-6.62233
-7.76214
-7.156
-9.49773
-9.09483
-8.99948
-8.97816
-8.97348
-18.2428
-8.63787
-11.7261
-8.32228
-9.74811
-8.06559
-8.7953
-7.85376
-8.24829
-7.77547
-8.04586
-7.53863
-7.79629
-7.33392
-7.56779
-7.15242
-7.36235
-6.99038
-7.17799
-6.84633
-7.0131
-6.71934
-6.86661
-6.60826
-6.73777
-6.5113
-6.62668
-6.42521
-6.54124
-6.37062
-6.23422
-6.32219
-6.20254
-6.26078
-6.16764
-6.21278
-6.13794
-6.17428
-6.11341
-6.14297
-6.0933
-6.1174
-6.07692
-6.09648
-6.06376
-6.07941
-6.05349
-6.06555
-6.04616
-6.05446
-6.04321
-6.04945
-6.03768
-6.04317
-6.03403
-6.03776
-6.03265
-6.03378
-6.03427
-6.03168
-6.04029
-6.03201
-6.05325
-6.03548
-6.07819
-6.04237
-6.12605
-6.04795
-6.22262
-6.00047
-6.29253
-7.10706
-6.4208
-7.94451
-6.77908
-9.89048
-9.12091
-9.00322
-8.97893
-8.97369
)
;

boundaryField
{
    F1_1
    {
        type            calculated;
        value           nonuniform List<scalar> 
80
(
18.9449
7.96958
11.9744
8.03759
9.87165
7.90191
8.86427
7.71252
8.28579
7.5496
7.9009
7.48793
7.75642
7.28588
7.55729
7.10976
7.36435
6.95317
7.18549
6.81401
7.02276
6.69133
6.87679
6.58406
6.74773
6.49039
6.63644
6.40693
6.55297
6.36574
6.21834
6.32872
6.19194
6.26583
6.15947
6.21685
6.13139
6.1776
6.10809
6.1457
6.08896
6.11963
6.07339
6.09828
6.0609
6.08082
6.05122
6.06657
6.04442
6.05498
6.0421
6.05003
6.0366
6.04359
6.03318
6.03791
6.03212
6.03354
6.03418
6.03085
6.04082
6.03022
6.05474
6.03201
6.08128
6.03557
6.13219
6.03307
6.2356
5.95826
6.25902
7.17669
6.30209
8.0569
6.55571
10.1189
9.12955
9.00422
8.97912
8.97374
)
;
    }
    F1_2
    {
        type            calculated;
        value           nonuniform List<scalar> 
80
(
-19.3273
-7.85986
-12.4423
-6.99702
-9.75579
-6.10581
-8.02673
-5.29304
-6.72158
-4.66291
-5.66254
-4.41184
-5.22068
-3.79456
-4.61066
-3.273
-4.02481
-2.8261
-3.49513
-2.44088
-3.02746
-2.1081
-2.61921
-1.81987
-2.26559
-1.56815
-1.9646
-1.34179
-1.74187
-1.22988
-0.810504
-1.12539
-0.724838
-0.944141
-0.621331
-0.798108
-0.529157
-0.67686
-0.449936
-0.574685
-0.382442
-0.488068
-0.325257
-0.414457
-0.277295
-0.351811
-0.238122
-0.298375