/*--------------------------------*- C++ -*----------------------------------*\
| =========                 |                                                 |
| \\      /  F ield         | OpenFOAM: The Open Source CFD Toolbox           |
|  \\    /   O peration     | Version:  5.x                                   |
|   \\  /    A nd           | Web:      www.OpenFOAM.org                      |
|    \\/     M anipulation  |                                                 |
\*---------------------------------------------------------------------------*/
FoamFile
{
    version     2.0;
    format      ascii;
    class       volScalarField;
    location    "12.3";
    object      gradTy;
}
// * * * * * * * * * * * * * * * * * * * * * * * * * * * * * * * * * * * * * //

dimensions      [0 -1 0 1 0 0 0];

internalField   nonuniform List<scalar> 
2048
(
-26.4237
-26.3961
-26.3417
-26.2621
-26.1593
-26.0359
-25.8946
-25.7383
-25.5698
-25.3916
-25.2061
-25.0155
-24.8216
-24.6263
-24.4309
-24.2369
-24.0453
-23.857
-23.6728
-23.4933
-23.3189
-23.15
-22.9868
-22.8295
-22.6785
-22.5339
-22.396
-22.2652
-22.1418
-22.0264
-21.9194
-21.8215
-21.7335
-21.6561
-21.5904
-21.5373
-21.498
-21.4736
-21.4654
-21.4745
-21.5023
-21.5501
-21.619
-21.7101
-21.8245
-21.9629
-22.1257
-22.3129
-22.5237
-22.7567
-23.0097
-23.2793
-23.5613
-23.8504
-24.1406
-24.4253
-24.6976
-24.9511
-25.1796
-25.3777
-25.5412
-25.6666
-25.7515
-25.7943
-26.446
-26.4178
-26.3622
-26.2808
-26.176
-26.0503
-25.9068
-25.7483
-25.5776
-25.3975
-25.2102
-25.0181
-24.8228
-24.6263
-24.4299
-24.2349
-24.0426
-23.8537
-23.669
-23.4891
-23.3145
-23.1453
-22.9819
-22.8245
-22.6733
-22.5285
-22.3903
-22.2592
-22.1354
-22.0195
-21.912
-21.8135
-21.7248
-21.6467
-21.5802
-21.5262
-21.4859
-21.4606
-21.4513
-21.4594
-21.4862
-21.533
-21.6009
-21.6913
-21.8051
-21.9432
-22.106
-22.2937
-22.5057
-22.7406
-22.9962
-23.2693
-23.5556
-23.8496
-24.1451
-24.4352
-24.7129
-24.9713
-25.2041
-25.4058
-25.572
-25.6994
-25.7856
-25.829
-26.4887
-26.4592
-26.4012
-26.3165
-26.2077
-26.0777
-25.9297
-25.7669
-25.5923
-25.4085
-25.218
-25.0228
-24.825
-24.6262
-24.4278
-24.2311
-24.0373
-23.8473
-23.6618
-23.4812
-23.3061
-23.1365
-22.9728
-22.815
-22.6634
-22.5182
-22.3796
-22.2478
-22.1234
-22.0066
-21.8981
-21.7985
-21.7085
-21.6289
-21.5608
-21.5052
-21.4631
-21.4359
-21.4247
-21.4309
-21.4557
-21.5006
-21.5667
-21.6556
-21.7682
-21.9056
-22.0684
-22.2571
-22.4711
-22.7095
-22.9701
-23.2498
-23.5442
-23.8476
-24.1534
-24.4541
-24.7422
-25.01
-25.251
-25.4595
-25.6309
-25.7619
-25.8504
-25.895
-26.55
-26.5186
-26.4569
-26.3673
-26.2526
-26.1163
-25.9619
-25.793
-25.6127
-25.4237
-25.2285
-25.0293
-24.8278
-24.6258
-24.4246
-24.2255
-24.0297
-23.8381
-23.6514
-23.47
-23.2941
-23.1241
-22.9599
-22.8017
-22.6496
-22.5038
-22.3645
-22.2319
-22.1065
-21.9886
-21.8787
-21.7775
-21.6857
-21.6041
-21.5337
-21.4757
-21.4311
-21.4012
-21.3873
-21.3906
-21.4127
-21.4548
-21.5184
-21.6049
-21.7157
-21.852
-22.0147
-22.2044
-22.4212
-22.6643
-22.932
-23.2211
-23.5271
-23.8442
-24.1649
-24.481
-24.784
-25.0656
-25.3185
-25.5364
-25.7151
-25.8512
-25.9428
-25.9889
-26.6284
-26.5944
-26.528
-26.4317
-26.3093
-26.1646
-26.002
-25.8252
-25.6376
-25.4421
-25.2412
-25.0369
-24.8309
-24.6248
-24.4201
-24.2181
-24.0199
-23.8263
-23.6381
-23.4556
-23.2791
-23.1085
-22.9438
-22.7852
-22.6325
-22.486
-22.3458
-22.2122
-22.0856
-21.9662
-21.8547
-21.7514
-21.6573
-21.5732
-21.5
-21.4389
-21.3911
-21.3579
-21.3405
-21.3403
-21.3588
-21.3974
-21.4577
-21.5411
-21.6494
-21.784
-21.9461
-22.137
-22.3569
-22.6057
-22.882
-23.1829
-23.5039
-23.8385
-24.1787
-24.5151
-24.8376
-25.137
-25.4049
-25.6349
-25.8225
-25.9647
-26.0601
-26.1079
-26.723
-26.6858
-26.6131
-26.5085
-26.3763
-26.2213
-26.0485
-25.8622
-25.666
-25.463
-25.2554
-25.0451
-24.8339
-24.6231
-24.4143
-24.2088
-24.0077
-23.8119
-23.6221
-23.4385
-23.2612
-23.0901
-22.925
-22.7658
-22.6125
-22.4652
-22.3241
-22.1894
-22.0613
-21.9403
-21.8268
-21.7213
-21.6245
-21.5373
-21.4607
-21.3961
-21.3445
-21.3073
-21.2858
-21.2814
-21.2956
-21.33
-21.3861
-21.4658
-21.5708
-21.703
-21.8641
-22.0556
-22.2787
-22.5338
-22.8199
-23.1348
-23.4738
-23.83
-24.1942
-24.5555
-24.9023
-25.2234
-25.5095
-25.7536
-25.9513
-26.1003
-26.1997
-26.2493
-26.8331
-26.7918
-26.7115
-26.5965
-26.4523
-26.285
-26.1002
-25.9028
-25.6969
-25.4853
-25.2703
-25.0535
-24.8365
-24.6205
-24.4071
-24.1976
-23.9932
-23.795
-23.6035
-23.4188
-23.2409
-23.0693
-22.9039
-22.7442
-22.5902
-22.4421
-22.2999
-22.1639
-22.0344
-21.9117
-21.7959
-21.6878
-21.5879
-21.4973
-21.4169
-21.3481
-21.2922
-21.2505
-21.2244
-21.2153
-21.2246
-21.254
-21.3053
-21.3803
-21.4813
-21.6102
-21.7695
-21.9612
-22.1871
-22.4486
-22.7455
-23.0761
-23.4359
-23.8176
-24.2106
-24.6019
-24.9777
-25.3246
-25.6317
-25.8917
-26.1003
-26.2562
-26.3595
-26.4108
-26.9584
-26.912
-26.8223
-26.6948
-26.5363
-26.3543
-26.1556
-25.9458
-25.7291
-25.5083
-25.2854
-25.0617
-24.8384
-24.6168
-24.3983
-24.1844
-23.9765
-23.7756
-23.5823
-23.3967
-23.2183
-23.0465
-22.8808
-22.7207
-22.5661
-22.4171
-22.2738
-22.1365
-22.0055
-21.8808
-21.7628
-21.6518
-21.5485
-21.454
-21.3694
-21.2961
-21.2354
-21.1888
-21.1575
-21.1431
-21.1469
-21.1708
-21.2164
-21.2861
-21.3821
-21.5069
-21.6634
-21.8543
-22.0824
-22.3499
-22.6581
-23.0058
-23.3892
-23.8003
-24.227
-24.6539
-25.0637
-25.4405
-25.7713
-26.0484
-26.2683
-26.4307
-26.5374
-26.5901
-27.0987
-27.0461
-26.945
-26.8024
-26.627
-26.4281
-26.2136
-25.99
-25.7617
-25.5313
-25.3003
-25.0694
-24.8396
-24.6119
-24.3878
-24.1691
-23.9573
-23.7537
-23.5588
-23.3724
-23.1938
-23.0221
-22.8563
-22.6959
-22.5406
-22.3906
-22.2461
-22.1075
-21.9749
-21.8484
-21.7279
-21.6139
-21.507
-21.4083
-21.319
-21.2407
-21.1749
-21.1229
-21.0861
-21.0659
-21.0638
-21.0815
-21.1209
-21.1844
-21.2745
-21.3941
-21.5467
-21.7356
-21.9648
-22.2377
-22.557
-22.9229
-23.3323
-23.7769
-24.2427
-24.711
-25.1606
-25.5715
-25.9286
-26.2236
-26.4542
-26.6223
-26.7314
-26.7849
-27.254
-27.194
-27.0792
-26.9185
-26.7233
-26.5049
-26.2727
-26.0342
-25.7937
-25.5536
-25.3144
-25.0764
-24.8398
-24.6057
-24.3756
-24.1516
-23.9357
-23.7293
-23.5328
-23.3459
-23.1676
-22.9963
-22.8307
-22.6701
-22.5141
-22.363
-22.2173
-22.0774
-21.9433
-21.8148
-21.6919
-21.5748
-21.464
-21.3607
-21.2664
-21.1828
-21.1114
-21.0537
-21.0111
-20.9848
-20.9763
-20.9873
-21.0198
-21.0763
-21.1596
-21.273
-21.4203
-21.6059
-21.8346
-22.1117
-22.4415
-22.8262
-23.2638
-23.7459
-24.2567
-24.7733
-25.2689
-25.7185
-26.1041
-26.4171
-26.6574
-26.8293
-26.9393
-26.9928
-27.4246
-27.3557
-27.2243
-27.0424
-26.8241
-26.5834
-26.3317
-26.0772
-25.8243
-25.5745
-25.3275
-25.0825
-24.8391
-24.5982
-24.3617
-24.132
-23.9116
-23.7022
-23.5044
-23.3175
-23.1399
-22.9695
-22.8044
-22.6436
-22.4869
-22.3347
-22.1876
-22.0464
-21.9109
-21.7808
-21.6554
-21.535
-21.42
-21.3118
-21.2121
-21.1228
-21.0456
-20.982
-20.9333
-20.9007
-20.8854
-20.8892
-20.9142
-20.963
-21.0386
-21.1446
-21.2853
-21.4659
-21.6924
-21.9717
-22.3108
-22.7142
-23.1818
-23.7058
-24.268
-24.8405
-25.3894
-25.8827
-26.2986
-26.6291
-26.8768
-27.0502
-27.1592
-27.2115
-27.6111
-27.5313
-27.3803
-27.1731
-26.928
-26.6621
-26.3891
-26.1178
-25.8525
-25.5936
-25.3394
-25.0877
-24.8376
-24.5897
-24.3461
-24.1101
-23.8848
-23.6724
-23.4736
-23.2872
-23.111
-22.942
-22.7778
-22.617
-22.4594
-22.3058
-22.1573
-22.0148
-21.8782
-21.7465
-21.6189
-21.4951
-21.3757
-21.2622
-21.1567
-21.0613
-20.978
-20.9084
-20.8535
-20.8143
-20.7921
-20.7883
-20.8052
-20.8456
-20.9126
-21.0101
-21.1428
-21.3164
-21.5385
-21.8178
-22.164
-22.5854
-23.0845
-23.6545
-24.2753
-24.9129
-25.5235
-26.0657
-26.5135
-26.8597
-27.1117
-27.2833
-27.3885
-27.4383
-27.8141
-27.7212
-27.5467
-27.3099
-27.0338
-26.7397
-26.4435
-26.1548
-25.8775
-25.6105
-25.35
-25.0922
-24.8355
-24.5802
-24.3288
-24.0857
-23.8552
-23.6398
-23.4402
-23.2551
-23.0811
-22.9143
-22.7513
-22.5905
-22.4319
-22.2766
-22.1265
-21.9828
-21.8453
-21.7125
-21.5827
-21.4555
-21.3315
-21.2124
-21.1005
-20.9988
-20.9092
-20.8334
-20.7722
-20.7265
-20.6971
-20.6854
-20.6937
-20.725
-20.7827
-20.8707
-20.9938
-21.1586
-21.3736
-21.6498
-22.0006
-22.4383
-22.9697
-23.5898
-24.2771
-24.9903
-25.6727
-26.2699
-26.7502
-27.1094
-27.3613
-27.5267
-27.625
-27.6706
-28.0344
-27.9258
-27.7235
-27.4518
-27.14
-26.8146
-26.4935
-26.187
-25.8985
-25.6248
-25.3593
-25.0963
-24.833
-24.57
-24.31
-24.059
-23.8226
-23.6042
-23.4043
-23.2212
-23.0506
-22.8867
-22.7253
-22.5645
-22.4046
-22.2472
-22.0951
-21.9505
-21.8126
-21.6791
-21.5474
-21.4168
-21.2879
-21.1626
-21.044
-20.9356
-20.8396
-20.7575
-20.6902
-20.6379
-20.6012
-20.5813
-20.5806
-20.6022
-20.6499
-20.7273
-20.8395
-20.9934
-21.1986
-21.4682
-21.8197
-22.2712
-22.8349
-23.5091
-24.2716
-25.0731
-25.8394
-26.498
-27.0108
-27.3784
-27.6243
-27.7783
-27.8662
-27.9057
-28.273
-28.1458
-27.9104
-27.5978
-27.2452
-26.8851
-26.5375
-26.2131
-25.9148
-25.6363
-25.3677
-25.1002
-24.8306
-24.5594
-24.2897
-24.0296
-23.7869
-23.5653
-23.3655
-23.1857
-23.0195
-22.8597
-22.7003
-22.5395
-22.3779
-22.2177
-22.0632
-21.9178
-21.7802
-21.6466
-21.5134
-21.3793
-21.2453
-21.1132
-20.9873
-20.8719
-20.7694
-20.6811
-20.6078
-20.5492
-20.5052
-20.4768
-20.4666
-20.4781
-20.5152
-20.5812
-20.6812
-20.8223
-21.0146
-21.2734
-21.621
-22.0824
-22.6775
-23.4092
-24.2563
-25.1614
-26.0266
-26.7537
-27.2974
-27.667
-27.8997
-28.0362
-28.1094
-28.1408
-28.5312
-28.3816
-28.1074
-27.7469
-27.3476
-26.9496
-26.5741
-26.232
-25.9257
-25.645
-25.3753
-25.1044
-24.8287
-24.5489
-24.2681
-23.9973
-23.7477
-23.5229
-23.3238
-23.1484
-22.9884
-22.8337
-22.6767
-22.5157
-22.352
-22.1881
-22.0306
-21.8848
-21.7483
-21.6155
-21.481
-21.3435
-21.2041
-21.0645
-20.9306
-20.8079
-20.6989
-20.6046
-20.5256
-20.4609
-20.4097
-20.3725
-20.3524
-20.3534
-20.3794
-20.4335
-20.5201
-20.6464
-20.8229
-21.0661
-21.4041
-21.8705
-22.4947
-23.2865
-24.228
-25.2552
-26.2381
-27.0414
-27.6124
-27.9754
-28.1857
-28.2977
-28.3518
-28.373
-28.8104
-28.6339
-28.3145
-27.8979
-27.4453
-27.0065
-26.6019
-26.2424
-25.9306
-25.651
-25.3829
-25.1095
-24.8278
-24.539
-24.2452
-23.9619
-23.705
-23.4769
-23.2788
-23.1094
-22.9575
-22.8094
-22.655
-22.4935
-22.3272
-22.1584
-21.997
-21.8511
-21.717
-21.5861
-21.4506
-21.3097
-21.1646
-21.0168
-20.8739
-20.7438
-20.6282
-20.5281
-20.4439
-20.3736
-20.3153
-20.2691
-20.2387
-20.2288
-20.2436
-20.2853
-20.3573
-20.4674
-20.6251
-20.8474
-21.1689
-21.6337
-22.2839
-23.137
-24.1826
-25.3545
-26.479
-27.3665
-27.9586
-28.3032
-28.4805
-28.5604
-28.5909
-28.5998
-29.1122
-28.9035
-28.5316
-28.0495
-27.536
-27.0543
-26.6196
-26.243
-25.929
-25.6544
-25.3913
-25.1159
-24.8282
-24.5306
-24.2212
-23.9229
-23.6584
-23.4269
-23.2301
-23.0687
-22.9271
-22.7874
-22.6356
-22.4733
-22.3041
-22.1285
-21.9617
-21.8166
-21.6865
-21.559
-21.4226
-21.2782
-21.1275
-20.9701
-20.8172
-20.6797
-20.5576
-20.4517
-20.363
-20.2877
-20.2226
-20.1672
-20.1258
-20.1047
-20.1083
-20.1375
-20.1942
-20.2869
-20.4232
-20.6187
-20.9158
-21.3707
-22.0423
-22.9561
-24.1144
-25.4588
-26.7559
-27.7356
-28.3385
-28.6498
-28.7817
-28.8215
-28.8237
-28.8185
-29.4385
-29.1907
-28.7591
-28.2002
-27.617
-27.0915
-26.6262
-26.2323
-25.9203
-25.6555
-25.4014
-25.1243
-24.8305
-24.5245
-24.1964
-23.8795
-23.6079
-23.3729
-23.1772
-23.0263
-22.8977
-22.7686
-22.6189
-22.4552
-22.2831
-22.0984
-21.9242
-21.7809
-21.6568
-21.5346
-21.3974
-21.2491
-21.0931
-20.9247
-20.7602
-20.6156
-20.4872
-20.3757
-20.2832
-20.2036
-20.1322
-20.0671
-20.0142
-19.9816
-19.9743
-19.9912
-20.0316
-20.1063
-20.2193
-20.3816
-20.6452
-21.0802
-21.7675
-22.7391
-24.0158
-25.5672
-27.0779
-28.1563
-28.7543
-29.0136
-29.0865
-29.0779
-29.0479
-29.0267
-29.7913
-29.4957
-28.9978
-28.3483
-27.6851
-27.1171
-26.6206
-26.2085
-25.9042
-25.6549
-25.4149
-25.135
-24.8347
-24.5224
-24.1707
-23.8306
-23.5535
-23.3148
-23.1192
-22.982
-22.8696
-22.754
-22.6053
-22.4393
-22.265
-22.0679
-21.8832
-21.7436
-21.6281
-21.5137
-21.375
-21.2227
-21.0623
-20.8807
-20.7024
-20.5515
-20.4171
-20.2997
-20.2048
-20.1219
-20.0448
-19.9694
-19.9042
-19.8597
-19.8422
-19.8474
-19.8705
-19.9272
-20.0161
-20.138
-20.3581
-20.7607
-21.4579
-22.4813
-23.8764
-25.6775
-27.4568
-28.6377
-29.2079
-29.3923
-29.3914
-29.3268
-29.2608
-29.2223
-30.1732
-29.8179
-29.2488
-28.492
-27.7359
-27.1308
-26.6026
-26.1696
-25.8805
-25.6529
-25.4337
-25.1484
-24.8405
-24.5263
-24.1444
-23.7744
-23.4957
-23.2527
-23.055
-22.9358
-22.8432
-22.745
-22.5949
-22.4253
-22.2512
-22.0369
-21.8371
-21.7044
-21.6004
-21.4974
-21.3557
-21.1986
-21.036
-20.8381
-20.643
-20.4878
-20.3475
-20.2237
-20.128
-20.0428
-19.9608
-19.8743
-19.7959
-19.739
-19.7123
-19.7072
-19.7114
-19.7511
-19.8168
-19.8903
-20.056
-20.4108
-21.1127
-22.1788
-23.6822
-25.7865
-27.9091
-29.19
-29.6999
-29.7826
-29.6928
-29.565
-29.4603
-29.4037
-30.5874
-30.1556
-29.5146
-28.6295
-27.7639
-27.1333
-26.5722
-26.1126
-25.8494
-25.6497
-25.4607
-25.1643
-24.847
-24.5393
-24.1176
-23.708
-23.4355
-23.187
-22.9829
-22.888
-22.8188
-22.7434
-22.5877
-22.4126
-22.2434
-22.0053
-21.784
-21.6629
-21.5739
-21.4871
-21.3394
-21.1764
-21.0157
-20.7969
-20.5807
-20.4249
-20.2786
-20.1472
-20.0532
-19.9668
-19.8812
-19.7824
-19.6893
-19.6194
-19.5852
-19.5717
-19.5543
-19.579
-19.625
-19.6406
-19.741
-20.0283
-20.7322
-21.8291
-23.4141
-25.8883
-28.4571
-29.8243
-30.2293
-30.1797
-29.9863
-29.7897
-29.6445
-29.5693
-31.038
-30.505
-29.7996
-28.7585
-27.7611
-27.1269
-26.5303
-26.0335
-25.8116
-25.6454
-25.5001
-25.1822
-24.852
-24.566
-24.0904
-23.6274
-23.3748
-23.1186
-22.9001
-22.8391
-22.7963
-22.752
-22.5832
-22.3998
-22.2446
-21.9729
-21.7205
-21.6191
-21.5482
-21.4849
-21.3257
-21.1549
-21.0036
-20.7573
-20.5135
-20.3634
-20.2108
-20.0693
-19.9806
-19.894
-19.8066
-19.6937
-19.5844
-19.5006
-19.4611
-19.4427
-19.3987
-19.4118
-19.4454
-19.3911
-19.416
-19.6101
-20.3186
-21.4331
-23.0461
-25.974
-29.1321
-30.5521
-30.7931
-30.5777
-30.2675
-29.9982
-29.8119
-29.7182
-31.5302
-30.8593
-30.1107
-28.8769
-27.7168
-27.1162
-26.4787
-25.9262
-25.7689
-25.6389
-25.5574
-25.2008
-24.8517
-24.6132
-24.063
-23.5263
-23.317
-23.0488
-22.8029
-22.7901
-22.7749
-22.7745
-22.5806
-22.3844
-22.2591
-21.9397
-21.6425
-21.5737
-21.5227
-21.4937
-21.3139
-21.1321
-21.0029
-20.7191
-20.4385
-20.3049
-20.1447
-19.9888
-19.9108
-19.8245
-19.7383
-19.6084
-19.4812
-19.3818
-19.3399
-19.3221
-19.2435
-19.2495
-19.2836
-19.1433
-19.0856
-19.1509
-19.8761
-20.9967
-22.5434
-26.0297
-29.9771
-31.3839
-31.3851
-30.9695
-30.5318
-30.1881
-29.9613
-29.8498
-32.0715
-31.2066
-30.459
-28.9824
-27.6158
-27.1097
-26.4203
-25.7821
-25.7251
-25.6277
-25.6411
-25.2179
-24.84
-24.691
-24.0353
-23.3952
-23.2679
-22.9796
-22.6855
-22.7435
-22.7529
-22.8163
-22.5784
-22.3623
-22.2933
-21.9056
-21.544
-21.5283
-21.4961
-21.518
-21.303
-21.1048
-21.0184
-20.6822
-20.3515
-20.2517
-20.081
-19.9037
-19.845
-19.758
-19.6775
-19.5266
-19.3795
-19.2622
-19.2215
-19.2132
-19.0861
-19.0914
-19.1471
-18.8976
-18.7564
-18.6423
-19.4112
-20.534
-21.8591
-26.0348
-31.0517
-32.3275
-31.9955
-31.3466
-30.7747
-30.3574
-30.092
-29.9639
-32.6723
-31.5279
-30.862
-29.0727
-27.4367
-27.1207
-26.3594
-25.5886
-25.6869
-25.6063
-25.7629
-25.2299
-24.807
-24.8139
-24.0074
-23.2207
-23.2362
-22.9139
-22.5394
-22.7035
-22.7267
-22.8851
-22.5742
-22.3271
-22.3564
-21.8705
-21.4166
-21.4864
-21.4655
-21.5638
-21.2909
-21.068
-21.0571
-20.6464
-20.2461
-20.2075
-20.0207
-19.8108
-19.7848
-19.6939
-19.6261
-19.448
-19.2794
-19.1404
-19.1051
-19.1204
-18.923
-18.9353
-19.0457
-18.6523
-18.4388
-18.0711
-18.9321
-20.0712
-20.9311
-25.9594
-32.4383
-33.3851
-32.6102
-31.7001
-30.9921
-30.5046
-30.2037
-30.0606
-33.3475
-31.7937
-31.3459
-29.1455
-27.1498
-27.1701
-26.3019
-25.3273
-25.6659
-25.5653
-25.9398
-25.2318
-24.7379
-25.0026
-23.9789
-22.9835
-23.2354
-22.8556
-22.3525
-22.6774
-22.6899
-22.9921
-22.5647
-22.2692
-22.462
-21.8341
-21.2489
-21.4541
-21.4258
-21.6401
-21.275
-21.0143
-21.1292
-20.6113
-20.1136
-20.1782
-19.9651
-19.7059
-19.7328
-19.6305
-19.5866
-19.372
-19.1811
-19.0148
-18.9894
-19.0503
-18.7485
-18.7776
-18.9929
-18.4019
-18.1483
-17.417
-18.4492
-19.6521
-19.6779
-25.7603
-34.2496
-34.5487
-33.2103
-32.0205
-31.1806
-30.6289
-30.2967
-30.1405
-34.1181
-31.9598
-31.9491
-29.1987
-26.7138
-27.2881
-26.2552
-24.972
-25.6808
-25.4881
-26.1958
-25.2165
-24.6112
-25.2864
-23.9494
-22.6568
-23.285
-22.8097
-22.1074
-22.6774
-22.6316
-23.1528
-22.5451
-22.1749
-22.6286
-21.7958
-21.0251
-21.4418
-21.3685
-21.7596
-21.2514
-20.9329
-21.2488
-20.5761
-19.9418
-20.1723
-19.9156
-19.5827
-19.6934
-19.5653
-19.5626
-19.2975
-19.0851
-18.8835
-18.8718
-19.0122
-18.5553
-18.6118
-19.007
-18.1356
-17.9083
-16.6499
-17.9734
-19.3446
-17.9934
-25.3772
-36.6388
-35.7944
-33.7729
-32.2989
-31.3377
-30.7301
-30.3713
-30.2043
-35.0134
-31.9619
-32.7266
-29.2301
-26.0724
-27.5185
-26.2289
-24.4863
-25.7607
-25.3486
-26.5641
-25.1745
-24.3963
-25.7051
-23.9179
-22.2035
-23.4132
-22.7824
-21.7797
-22.7223
-22.5345
-23.3893
-22.5089
-22.0243
-22.8823
-21.7546
-20.724
-21.4657
-21.2799
-21.9397
-21.2151
-20.8087
-21.4356
-20.5396
-19.7141
-20.2023
-19.8738
-19.4323
-19.6732
-19.4938
-19.5588
-19.2224
-18.9924
-18.7439
-18.7483
-19.0195
-18.3328
-18.4286
-19.1133
-17.834
-17.754
-15.7269
-17.5147
-19.2487
-15.7413
-24.7269
-39.8117
-37.0738
-34.271
-32.5274
-31.4619
-30.8085
-30.4285
-30.2529
-36.0745
-31.7087
-33.7558
-29.2372
-25.1504
-27.9219
-26.234
-23.8195
-25.9498
-25.1065
-27.091
-25.0934
-24.051
-26.3132
-23.883
-21.5739
-23.659
-22.7813
-21.336
-22.8409
-22.3721
-23.7318
-22.4479
-21.7904
-23.2579
-21.7088
-20.3173
-21.5508
-21.1388
-22.2048
-21.1591
-20.6207
-21.7163
-20.5001
-19.4084
-20.2858
-19.8415
-19.2428
-19.6819
-19.409
-19.5821
-19.1434
-18.905
-18.5934
-18.6124
-19.0907
-18.0675
-18.214
-19.3466
-17.4654
-17.7366
-14.5884
-17.0795
-19.5071
-12.7488
-23.6963
-44.0417
-38.304
-34.6766
-32.7003
-31.5529
-30.8651
-30.4694
-30.2875
-37.3573
-31.0741
-35.1424
-29.2175
-23.848
-28.5808
-26.2834
-22.9032
-26.3125
-24.702
-27.8391
-24.9573
-23.5184
-27.1824
-23.8422
-20.7025
-24.0756
-22.8151
-20.7308
-23.0751
-22.1051
-24.2216
-22.3513
-21.4366
-23.8021
-21.6553
-19.7675
-21.7329
-20.9138
-22.588
-21.0747
-20.3408
-22.1266
-20.4546
-18.9954
-20.4466
-19.8201
-18.998
-19.7339
-19.3007
-19.6419
-19.0557
-18.826
-18.4292
-18.4543
-19.2508
-17.7422
-17.9484
-19.7545
-16.9815
-17.929
-13.1537
-16.6675
-20.316
-8.79991
-22.1347
-49.6874
-39.3538
-34.9631
-32.8145
-31.6114
-30.9011
-30.4953
-30.3094
-38.9366
-29.8874
-37.0288
-29.1674
-22.0357
-29.6048
-26.3915
-21.6461
-26.9402
-24.0495
-28.892
-24.7463
-22.7229
-28.4066
-23.792
-19.5037
-24.7336
-22.8937
-19.9037
-23.4846
-21.6771
-24.9134
-22.2053
-20.9143
-24.5757
-21.5898
-19.0254
-22.0628
-20.5589
-23.1331
-20.9501
-19.9319
-22.7129
-20.3993
-18.437
-20.7168
-19.8107
-18.6764
-19.849
-19.1539
-19.7511
-18.952
-18.7597
-18.2484
-18.26
-19.5331
-17.3348
-17.6049
-20.4013
-16.3107
-18.4334
-11.3166
-16.2663
-21.9386
-3.6278
-19.8439
-57.2127
-40.0274
-35.1109
-32.8703
-31.6396
-30.9182
-30.5076
-30.3198
)
;

boundaryField
{
    left
    {
        type            calculated;
        value           nonuniform List<scalar> 
32
(
-26.4237
-26.446
-26.4887
-26.55
-26.6284
-26.723
-26.8331
-26.9584
-27.0987
-27.254
-27.4246
-27.6111
-27.8141
-28.0344
-28.273
-28.5312
-28.8104
-29.1122
-29.4385
-29.7913
-30.1732
-30.5874
-31.038
-31.5302
-32.0715
-32.6723
-33.3475
-34.1181
-35.0134
-36.0745
-37.3573
-38.9366
)
;
    }
    right
    {
        type            calculated;
        value           nonuniform List<scalar> 
32
(
-25.7943
-25.829
-25.895
-25.9889
-26.1079
-26.2493
-26.4108
-26.5901
-26.7849
-26.9928
-27.2115
-27.4383
-27.6706
-27.9057
-28.1408
-28.373
-28.5998
-28.8185
-29.0267
-29.2223
-29.4037
-29.5693
-29.7182
-29.8498
-29.9639
-30.0606
-30.1405
-30.2043
-30.2529
-30.2875
-30.3094
-30.3198
)
;
    }
    interface
    {
        type            calculated;
        value           nonuniform List<scalar> 
64
(
-39.8111
-29.1316
-38.1172
-29.1342
-20.9838
-30.2236
-26.462
-20.9194
-27.3337
-23.6487
-29.5065
-24.6192
-22.2488
-29.1206
-23.764
-18.8105
-25.133
-22.9454
-19.4261
-23.7418
-21.4144
-25.3177
-22.1179
-20.6042
-25.0284
-21.5534
-18.5994
-22.272
-20.3423
-23.4523
-20.8761
-19.6899
-23.0567
-20.3686
-18.1162
-20.8838
-19.809
-18.4934
-19.9253
-19.0686
-19.8199
-18.895
-18.7303
-18.1535
-18.1517
-19.7096
-17.1076
-17.4098
-20.7936
-15.9179
-18.7783
-10.2824
-16.0659
-22.9909
-0.699216
-18.4882
-61.5105
-40.2411
-35.1482
-32.8839
-31.6464
-30.9224
-30.5106
-30.3223
)
;
    }
    bottom
    {
        type            calculated;
        value           nonuniform List<scalar> 
64
(
-26.4179
-26.3905
-26.3364
-26.2572
-26.1549
-26.0321
-25.8914
-25.7357
-25.5677
-25.39
-25.205
-25.0148
-24.8213
-24.6263
-24.4312
-24.2374
-24.046
-23.8578
-23.6738
-23.4944
-23.32
-23.1512
-22.988
-22.8308
-22.6799
-22.5353
-22.3975
-22.2668
-22.1435
-22.0282
-21.9213
-21.8236
-21.7357
-21.6586
-21.5931
-21.5402
-21.5012
-21.4771
-21.4691
-21.4785
-21.5066
-21.5545
-21.6237
-21.715
-21.8296
-21.9681
-22.1308
-22.3178
-22.5283
-22.7609
-23.0132
-23.2819
-23.5628
-23.8506
-24.1394
-24.4227
-24.6937
-24.9459
-25.1732
-25.3705
-25.5332
-25.6581
-25.7427
-25.7853
)
;
    }
    defaultFaces
    {
        type            empty;
    }
}


// ************************************************************************* //
