/*--------------------------------*- C++ -*----------------------------------*\
| =========                 |                                                 |
| \\      /  F ield         | OpenFOAM: The Open Source CFD Toolbox           |
|  \\    /   O peration     | Version:  5.x                                   |
|   \\  /    A nd           | Web:      www.OpenFOAM.org                      |
|    \\/     M anipulation  |                                                 |
\*---------------------------------------------------------------------------*/
FoamFile
{
    version     2.0;
    format      ascii;
    class       volScalarField;
    location    "4.7";
    object      gradTy;
}
// * * * * * * * * * * * * * * * * * * * * * * * * * * * * * * * * * * * * * //

dimensions      [0 -1 0 1 0 0 0];

internalField   nonuniform List<scalar> 
3200
(
18.251
8.63671
11.7311
8.31335
9.75083
8.04084
8.795
7.79388
8.24271
7.60204
7.87736
7.5186
7.72899
7.31879
7.53098
7.14081
7.33994
6.98144
7.16319
6.8393
7.00262
6.71366
6.85875
6.60357
6.73162
6.50739
6.62169
6.42196
6.537
6.36778
6.23252
6.31974
6.20114
6.25885
6.16659
6.2113
6.1372
6.17317
6.11293
6.14219
6.09304
6.11689
6.07683
6.09619
6.06379
6.07929
6.05362
6.06557
6.04636
6.05458
6.04344
6.04962
6.03798
6.0434
6.0344
6.03805
6.03308
6.03414
6.03476
6.03211
6.04083
6.0325
6.05382
6.03601
6.07877
6.04293
6.12663
6.0485
6.2232
6.00095
6.29313
7.10825
6.42145
7.94645
6.78007
9.89398
9.12379
9.00601
8.98169
8.97646
17.0112
9.75272
11.3334
8.77733
9.54801
8.27098
8.67474
7.92636
8.16552
7.68617
7.83318
7.56538
7.67751
7.3702
7.48229
7.19002
7.2953
7.02678
7.12291
6.88031
6.96672
6.75029
6.82706
6.63595
6.70373
6.53582
6.5965
6.44712
6.50949
6.37153
6.25739
6.30532
6.21674
6.24751
6.17846
6.20216
6.14669
6.16574
6.12063
6.13613
6.09932
6.11195
6.08195
6.0922
6.06793
6.07614
6.05691
6.06323
6.04884
6.05321
6.04489
6.04817
6.03945
6.04231
6.03556
6.03748
6.03375
6.0343
6.03475
6.03333
6.03984
6.03538
6.05132
6.04178
6.07372
6.05443
6.11682
6.07406
6.20342
6.07629
6.35157
6.99304
6.62316
7.76392
7.15729
9.50092
9.09769
9.00227
8.98093
8.97625
16.0617
10.5152
11.1011
9.10824
9.42711
8.4339
8.60056
8.01933
8.11706
7.74525
7.80558
7.59697
7.6428
7.40484
7.44979
7.22332
7.26562
7.05753
7.09618
6.90817
6.94293
6.7752
6.80609
6.65797
6.68527
6.55512
6.57971
6.46382
6.49
6.37433
6.27578
6.29636
6.22757
6.24016
6.18661
6.1962
6.15319
6.16088
6.12591
6.13216
6.10362
6.10871
6.08546
6.08959
6.07078
6.07408
6.05918
6.06172
6.05058
6.05235
6.04588
6.04721
6.04046
6.0416
6.03637
6.03714
6.03425
6.03446
6.03482
6.03422
6.03929
6.03745
6.04983
6.0459
6.07072
6.06266
6.11122
6.09273
6.19389
6.13555
6.39536
6.91828
6.76444
7.65129
7.41649
9.21772
9.05928
8.99556
8.97949
8.97585
15.3341
11.0323
10.9721
9.34668
9.35869
8.55041
8.5563
8.08514
8.08739
7.78704
7.78874
7.61838
7.61944
7.42816
7.42814
7.24588
7.24595
7.07841
7.07851
6.92712
6.92723
6.79216
6.79227
6.67297
6.67311
6.56823
6.56854
6.47483
6.47617
6.37645
6.2894
6.29097
6.23515
6.23546
6.19224
6.19234
6.15767
6.15772
6.12954
6.12958
6.10658
6.10661
6.08787
6.0879
6.07274
6.07276
6.06076
6.06076
6.0518
6.05182
6.04655
6.04657
6.04116
6.04115
6.03695
6.03694
6.03463
6.03462
6.03493
6.0349
6.03901
6.03895
6.049
6.04886
6.06903
6.06863
6.1083
6.10661
6.19074
6.18207
6.42863
6.8706
6.86409
7.58353
7.59426
9.01291
9.01708
8.98695
8.97756
8.9753
14.7786
11.3798
10.9056
9.51962
9.32308
8.63436
8.53113
8.13202
8.06983
7.81675
7.77879
7.63294
7.60378
7.44384
7.41377
7.26114
7.23298
7.09258
7.06691
6.94001
6.91695
6.80371
6.78323
6.6832
6.66515
6.57713
6.56113
6.48204
6.46639
6.37807
6.29948
6.28789
6.24048
6.23249
6.19614
6.18987
6.16075
6.15569
6.13204
6.12792
6.10862
6.10526
6.08954
6.08681
6.0741
6.07191
6.06185
6.06016
6.05265
6.05151
6.04701
6.04615
6.04163
6.04086
6.03736
6.03684
6.03492
6.03476
6.03505
6.0354
6.0389
6.04005
6.04857
6.05101
6.06817
6.073
6.10703
6.11706
6.1913
6.21839
6.45408
6.84086
6.9347
7.54411
7.7157
8.86468
8.97625
8.97751
8.97535
8.97466
14.3591
11.6103
10.8756
9.64499
9.30716
8.69489
8.51778
8.16542
8.0599
7.83786
7.77315
7.64282
7.59335
7.45431
7.40431
7.27142
7.2245
7.10217
7.05935
6.94875
6.91027
6.81156
6.77738
6.69014
6.65998
6.58314
6.55624
6.48671
6.45951
6.37929
6.30687
6.28623
6.24423
6.23066
6.19883
6.18831
6.16288
6.15441
6.13376
6.12686
6.11002
6.10441
6.09069
6.08613
6.07504
6.07138
6.06261
6.0598
6.05326
6.05132
6.04733
6.04588
6.04196
6.04068
6.03765
6.03679
6.03513
6.03488
6.03516
6.03578
6.03889
6.04085
6.04839
6.05257
6.0678
6.0762
6.10672
6.12494
6.19375
6.24636
6.47349
6.82283
6.9847
7.52221
7.79805
8.75795
8.93984
8.9682
8.97308
8.974
14.0494
11.7602
10.8654
9.73465
9.30222
8.73802
8.51145
8.18895
8.05463
7.85267
7.77013
7.64948
7.5865
7.46123
7.39817
7.27826
7.21904
7.10857
7.0545
6.9546
6.90601
6.81682
6.77364
6.6948
6.65669
6.58716
6.55306
6.48968
6.45476
6.3802
6.3122
6.28543
6.24684
6.22956
6.20068
6.18735
6.16432
6.15361
6.13492
6.12621
6.11097
6.10387
6.09146
6.0857
6.07567
6.07106
6.06313
6.05958
6.05368
6.05122
6.04754
6.0457
6.04218
6.04058
6.03785
6.03677
6.03529
6.03498
6.03526
6.03607
6.03892
6.04142
6.04834
6.05369
6.0677
6.07851
6.10691
6.1308
6.19684
6.26735
6.48801
6.8123
7.01966
7.51078
7.85304
8.68234
8.90956
8.95984
8.97096
8.97337
13.8314
11.8544
10.8646
9.79637
9.30255
8.76764
8.50896
8.20495
8.05206
7.8627
7.76864
7.65382
7.58215
7.46565
7.3943
7.28267
7.21563
7.11272
7.05149
6.9584
6.90336
6.82024
6.77134
6.69784
6.65465
6.58977
6.55105
6.49152
6.45159
6.38085
6.31588
6.2851
6.2486
6.22893
6.2019
6.18678
6.16527
6.15313
6.13569
6.12582
6.1116
6.10355
6.09198
6.08545
6.07609
6.07087
6.06348
6.05945
6.05396
6.05117
6.04769
6.04559
6.04233
6.04052
6.03799
6.03677
6.03541
6.03506
6.03535
6.03626
6.03897
6.04182
6.04836
6.05446
6.06773
6.08012
6.10727
6.13497
6.19976
6.28234
6.49839
6.80645
7.04328
7.50529
7.88855
8.63081
8.88637
8.95304
8.9692
8.97285
13.6924
11.9091
10.867
9.83512
9.30452
8.78621
8.50828
8.2149
8.05096
7.86893
7.76798
7.65644
7.57958
7.46827
7.39204
7.28531
7.21365
7.1152
7.04975
6.96067
6.90184
6.82229
6.77001
6.69966
6.65348
6.59132
6.54988
6.49258
6.44966
6.38127
6.31819
6.285
6.24969
6.22859
6.20264
6.18646
6.16585
6.15286
6.13616
6.1256
6.11198
6.10337
6.09229
6.0853
6.07635
6.07076
6.06369
6.05939
6.05413
6.05114
6.04777
6.04553
6.04242
6.04048
6.03807
6.03677
6.03548
6.03511
6.0354
6.03639
6.03901
6.04207
6.04839
6.05495
6.0678
6.08114
6.10761
6.13766
6.20196
6.29198
6.50509
6.80344
7.05789
7.50296
7.9097
8.59876
8.87073
8.94827
8.96793
8.97246
13.6248
11.9341
10.869
9.85382
9.306
8.79516
8.50821
8.21968
8.05057
7.87191
7.76775
7.65767
7.5784
7.46949
7.391
7.28653
7.21275
7.11636
7.04896
6.96174
6.90115
6.82326
6.76941
6.70051
6.65294
6.59205
6.54934
6.49306
6.44874
6.38147
6.3193
6.28498
6.25021
6.22844
6.20299
6.18632
6.16612
6.15274
6.13638
6.1255
6.11216
6.10329
6.09243
6.08524
6.07647
6.07071
6.06379
6.05936
6.05421
6.05113
6.04781
6.0455
6.04246
6.04047
6.03811
6.03677
6.03551
6.03514
6.03543
6.03645
6.03903
6.0422
6.04841
6.05519
6.06784
6.08164
6.10781
6.13898
6.20314
6.29671
6.50837
6.8022
7.06487
7.50217
7.91956
8.58338
8.86287
8.94581
8.96727
8.97226
-13.7466
-11.9414
-10.7126
-9.3734
-8.56298
-7.67108
-7.10911
-6.45723
-6.04222
-5.56019
-5.26681
-4.94128
-4.70376
-4.3754
-4.13986
-3.82836
-3.6107
-3.32975
-3.13569
-2.88783
-2.71749
-2.50094
-2.35237
-2.16371
-2.03394
-1.86832
-1.75201
-1.59838
-1.47628
-1.28915
-1.11396
-1.01567
-0.913701
-0.848615
-0.770831
-0.718934
-0.654747
-0.611433
-0.557358
-0.520746
-0.474915
-0.443876
-0.405028
-0.378781
-0.346041
-0.324091
-0.297005
-0.279258
-0.25804
-0.244948
-0.230192
-0.219327
-0.204199
-0.193302
-0.178838
-0.168707
-0.155602
-0.146543
-0.134966
-0.127027
-0.116968
-0.110151
-0.101655
-0.0961343
-0.0897022
-0.0864443
-0.0845389
-0.0880945
-0.102528
-0.136634
-0.227087
-0.373622
-0.528507
-0.815409
-1.11839
-1.62793
-1.84348
-1.90753
-1.92411
-1.92797
-13.8188
-11.9184
-10.717
-9.35226
-8.56624
-7.65789
-7.11271
-6.44776
-6.0449
-5.55265
-5.26811
-4.93777
-4.7074
-4.3717
-4.1429
-3.82461
-3.61323
-3.32628
-3.13784
-2.88473
-2.71934
-2.49822
-2.35398
-2.16136
-2.03538
-1.86635
-1.75351
-1.59712
-1.47888
-1.28867
-1.11089
-1.01582
-0.912228
-0.849127
-0.769798
-0.719429
-0.653915
-0.611866
-0.556662
-0.521117
-0.474326
-0.444191
-0.404527
-0.379042
-0.345611
-0.324299
-0.296634
-0.279399
-0.257717
-0.245017
-0.230038
-0.2195
-0.204031
-0.193447
-0.178666
-0.168828
-0.155442
-0.146645
-0.134822
-0.127113
-0.11684
-0.11022
-0.101537
-0.0961719
-0.0895764
-0.0863913
-0.0843215
-0.0876604
-0.101742
-0.134381
-0.224845
-0.373289
-0.523227
-0.814766
-1.11013
-1.63969
-1.84954
-1.90943
-1.92462
-1.92812
-13.967
-11.8674
-10.7279
-9.30797
-8.57441
-7.63018
-7.12111
-6.42781
-6.05117
-5.53681
-5.27124
-4.93026
-4.71526
-4.36372
-4.14953
-3.81659
-3.6188
-3.31887
-3.14259
-2.87813
-2.72343
-2.49244
-2.35753
-2.15635
-2.03854
-1.86214
-1.75675
-1.59434
-1.48437
-1.2877
-1.10451
-1.01632
-0.90914
-0.85029
-0.76761
-0.720532
-0.652148
-0.612828
-0.555182
-0.521941
-0.473073
-0.444889
-0.40346
-0.379625
-0.344699
-0.324763
-0.295847
-0.27972
-0.257036
-0.245178
-0.229708
-0.219871
-0.20367
-0.193761
-0.178298
-0.169092
-0.1551
-0.14687
-0.134515
-0.127303
-0.116567
-0.110372
-0.101288
-0.0962601
-0.0893154
-0.0862949
-0.0838889
-0.0867978
-0.100214
-0.129816
-0.220284
-0.372896
-0.512283
-0.813971
-1.09249
-1.66424
-1.86159
-1.91311
-1.92559
-1.92841
-14.1993
-11.778
-10.7501
-9.23624
-8.591
-7.58507
-7.13688
-6.3952
-6.06295
-5.51103
-5.27739
-4.91772
-4.72858
-4.35025
-4.16091
-3.80317
-3.62846
-3.30652
-3.15088
-2.86714
-2.73058
-2.48282
-2.36373
-2.14801
-2.04405
-1.85509
-1.76228
-1.58947
-1.49333
-1.2862
-1.09434
-1.01758
-0.904121
-0.85241
-0.764002
-0.722491
-0.64922
-0.614527
-0.552729
-0.523393
-0.470995
-0.44612
-0.401692
-0.380653
-0.34319
-0.325588
-0.294551
-0.280305
-0.255925
-0.245486
-0.229155
-0.220499
-0.203059
-0.194299
-0.177682
-0.169549
-0.154529
-0.147261
-0.134004
-0.127636
-0.116113
-0.110642
-0.100878
-0.0964263
-0.0888988
-0.0861752
-0.083245
-0.0855159
-0.0980409
-0.122817
-0.213238
-0.373033
-0.494848
-0.814102
-1.06314
-1.70376
-1.87949
-1.91836
-1.92696
-1.92882
-14.5283
-11.6329
-10.7917
-9.12976
-8.62203
-7.51765
-7.16441
-6.34623
-6.08353
-5.47251
-5.28858
-4.89836
-4.74948
-4.32923
-4.17904
-3.78244
-3.64401
-3.28753
-3.16429
-2.85028
-2.74217
-2.46805
-2.37381
-2.1352
-2.05297
-1.8442
-1.77102
-1.58154
-1.50674
-1.28409
-1.07957
-1.02031
-0.896636
-0.856001
-0.758521
-0.725723
-0.644753
-0.617312
-0.54898
-0.52577
-0.467819
-0.448135
-0.398992
-0.38234
-0.340889
-0.326953
-0.292586
-0.281297
-0.254258
-0.246032
-0.228297
-0.22148
-0.202103
-0.195153
-0.176728
-0.170283
-0.153649
-0.147894
-0.133218
-0.128176
-0.115419
-0.111084
-0.100256
-0.0967168
-0.0882912
-0.0860649
-0.0823941
-0.083825
-0.0953783
-0.113194
-0.203418
-0.374691
-0.469516
-0.817043
-1.01811
-1.76188
-1.90285
-1.92482
-1.92859
-1.9293
-14.9733
-11.4056
-10.8662
-8.97713
-8.67694
-7.42019
-7.21053
-6.27503
-6.11804
-5.41692
-5.30804
-4.86936
-4.78124
-4.29742
-4.20703
-3.75138
-3.66829
-3.25921
-3.18533
-2.82518
-2.76042
-2.4461
-2.38966
-2.11614
-2.06696
-1.82789
-1.7844
-1.56902
-1.52606
-1.28126
-1.05899
-1.02562
-0.885833
-0.86187
-0.750455
-0.730885
-0.638147
-0.621736
-0.54343
-0.529539
-0.463115
-0.451332
-0.394994
-0.385022
-0.337489
-0.329137
-0.2897
-0.282922
-0.25184
-0.24696
-0.227005
-0.222965
-0.200652
-0.196468
-0.175296
-0.171427
-0.152336
-0.148885
-0.132049
-0.129026
-0.11439
-0.111788
-0.0993451
-0.0972041
-0.087437
-0.0860137
-0.0813404
-0.0817304
-0.0924663
-0.100675
-0.190356
-0.379406
-0.434076
-0.825842
-0.951383
-1.84412
-1.93098
-1.93201
-1.93034
-1.92981
-15.5609
-11.0571
-10.9947
-8.76094
-8.77011
-7.28086
-7.28569
-6.17271
-6.17433
-5.33765
-5.34069
-4.82634
-4.82884
-4.24987
-4.24963
-3.70543
-3.70561
-3.21749
-3.21784
-2.78827
-2.78865
-2.41383
-2.4142
-2.08812
-2.08854
-1.80377
-1.80467
-1.54961
-1.55346
-1.27753
-1.03086
-1.03519
-0.870401
-0.871239
-0.738719
-0.738977
-0.628492
-0.628638
-0.535305
-0.535412
-0.456228
-0.456313
-0.389143
-0.389208
-0.332525
-0.332567
-0.285509
-0.285521
-0.248376
-0.248493
-0.225077
-0.225184
-0.198477
-0.198464
-0.173175
-0.173181
-0.150399
-0.150413
-0.130329
-0.130343
-0.112881
-0.112887
-0.0980229
-0.0979977
-0.0862502
-0.0860936
-0.0800852
-0.0792229
-0.0896563
-0.0848986
-0.173321
-0.389498
-0.385153
-0.845291
-0.853965
-1.95859
-1.96253
-1.9393
-1.93205
-1.9303
-16.3286
-10.5311
-11.21
-8.45504
-8.92322
-7.08177
-7.40557
-6.02581
-6.26415
-5.22479
-5.39405
-4.76265
-4.8997
-4.17918
-4.314
-3.63771
-3.76247
-3.15624
-3.26754
-2.73417
-2.83189
-2.36656
-2.45181
-2.04703
-2.12154
-1.76822
-1.83519
-1.51985
-1.59205
-1.27264
-0.992685
-1.05153
-0.848346
-0.885946
-0.721675
-0.751502
-0.614413
-0.639283
-0.523445
-0.54446
-0.446173
-0.463986
-0.380606
-0.395667
-0.325293
-0.337883
-0.279437
-0.289608
-0.243424
-0.25097
-0.22221
-0.228476
-0.195236
-0.201472
-0.170043
-0.175848
-0.147551
-0.152746
-0.127806
-0.13236
-0.110674
-0.114581
-0.0961083
-0.0992613
-0.0846008
-0.0864087
-0.0786252
-0.0762646
-0.087455
-0.0653956
-0.151176
-0.40841
-0.31765
-0.882799
-0.712709
-2.11708
-1.99518
-1.94596
-1.93354
-1.93072
-17.3283
-9.74592
-11.5627
-8.02023
-9.16873
-6.79607
-7.5936
-5.81418
-6.40509
-5.06359
-5.47944
-4.66823
-5.00486
-4.07427
-4.41082
-3.53795
-3.84857
-3.06629
-3.34304
-2.65483
-2.89766
-2.29727
-2.50902
-1.98678
-2.17165
-1.71586
-1.88099
-1.47459
-1.64631
-1.26617
-0.940966
-1.07835
-0.816663
-0.90873
-0.696869
-0.770705
-0.593859
-0.655557
-0.506114
-0.558281
-0.431475
-0.475709
-0.368133
-0.405545
-0.314745
-0.346042
-0.270623
-0.295951
-0.236324
-0.254899
-0.217944
-0.23335
-0.190418
-0.205989
-0.165423
-0.179881
-0.143365
-0.156286
-0.124105
-0.135427
-0.107445
-0.117172
-0.0933298
-0.101239
-0.0822938
-0.0871084
-0.0769492
-0.0727653
-0.0865844
-0.0415798
-0.122174
-0.441243
-0.223912
-0.949716
-0.508475
-2.33663
-2.02492
-1.95114
-1.93465
-1.93103
-18.6313
-8.5848
-12.1297
-7.39775
-9.55506
-6.38355
-7.88469
-5.50772
-6.6233
-4.83208
-5.61388
-4.52787
-5.1607
-3.91866
-4.55599
-3.39083
-3.97837
-2.93396
-3.45711
-2.53823
-2.99714
-2.19547
-2.59557
-1.89823
-2.24737
-1.63865
-1.94965
-1.40618
-1.72263
-1.25749
-0.87073
-1.12112
-0.770817
-0.943659
-0.660623
-0.799924
-0.563752
-0.680267
-0.480707
-0.579251
-0.409926
-0.493495
-0.34985
-0.420542
-0.299304
-0.358461
-0.25777
-0.305683
-0.226088
-0.261043
-0.211576
-0.24055
-0.183252
-0.212744
-0.158595
-0.185946
-0.137196
-0.161624
-0.118658
-0.140061
-0.102702
-0.121101
-0.0892761
-0.104285
-0.0790315
-0.0884023
-0.0750298
-0.0685414
-0.0880628
-0.0127361
-0.0836298
-0.49553
-0.0924466
-1.06331
-0.213465
-2.64177
-2.04514
-1.95403
-1.93524
-1.93119
18.6313
8.58481
12.1297
7.39775
9.55506
6.38355
7.88469
5.50772
6.6233
4.83208
5.61388
4.52787
5.1607
3.91866
4.55599
3.39083
3.97837
2.93396
3.45711
2.53823
2.99714
2.19547
2.59557
1.89823
2.24737
1.63865
1.94965
1.40618
1.72263
1.25749
0.870728
1.12112
0.770816
0.943659
0.660622
0.799924
0.563751
0.680266
0.480706
0.579251
0.409926
0.493495
0.34985
0.420542
0.299303
0.358461
0.25777
0.305683
0.226088
0.261043
0.211576
0.24055
0.183252
0.212744
0.158595
0.185946
0.137196
0.161624
0.118657
0.140061
0.102702
0.121101
0.0892759
0.104285
0.0790314
0.0884024
0.0750299
0.0685413
0.0880634
0.0127349
0.0836306
0.495541
0.0924485
1.06334
0.213472
2.64182
2.04518
1.95408
1.93528
1.93123
17.3283
9.74593
11.5627
8.02023
9.16874
6.79608
7.59361
5.81419
6.40509
5.0636
5.47944
4.66823
5.00487
4.07428
4.41082
3.53796
3.84857
3.0663
3.34304
2.65483
2.89767
2.29727
2.50902
1.98678
2.17165
1.71586
1.881
1.47459
1.64631
1.26617
0.940968
1.07835
0.816665
0.908733
0.696871
0.770708
0.593861
0.655559
0.506115
0.558283
0.431477
0.475711
0.368134
0.405547
0.314746
0.346044
0.270624
0.295952
0.236325
0.254901
0.217945
0.233351
0.190419
0.20599
0.165424
0.179882
0.143367
0.156288
0.124106
0.135428
0.107446
0.117173
0.0933309
0.10124
0.0822948
0.0871095
0.0769503
0.0727662
0.0865859
0.04158
0.122177
0.441254
0.223918
0.949739
0.508489
2.33668
2.02496
1.95118
1.93469
1.93107
16.3287
10.5311
11.21
8.45506
8.92324
7.08178
7.40558
6.02582
6.26416
5.2248
5.39406
4.76266
4.89971
4.17918
4.31401
3.63772
3.76248
3.15625
3.26755
2.73418
2.8319
2.36657
2.45182
2.04704
2.12154
1.76822
1.83519
1.51985
1.59206
1.27265
0.99269
1.05153
0.848351
0.885951
0.721679
0.751506
0.614417
0.639286
0.523449
0.544463
0.446176
0.46399
0.380609
0.39567
0.325296
0.337886
0.27944
0.289611
0.243427
0.250972
0.222213
0.228479
0.195239
0.201475
0.170045
0.175851
0.147554
0.152749
0.127808
0.132362
0.110676
0.114583
0.0961103
0.0992633
0.0846027
0.0864106
0.0786271
0.0762664
0.0874571
0.0653971
0.15118
0.40842
0.317658
0.88282
0.712727
2.11713
1.99522
1.946
1.93358
1.93076
15.5609
11.0571
10.9947
8.76095
8.77012
7.28087
7.28571
6.17272
6.17434
5.33766
5.34071
4.82635
4.82885
4.24988
4.24964
3.70544
3.70562
3.2175
3.21785
2.78828
2.78866
2.41384
2.41421
2.08812
2.08855
1.80377
1.80468
1.54962
1.55346
1.27754
1.03086
1.03519
0.870406
0.871244
0.738724
0.738982
0.628496
0.628643
0.535309
0.535417
0.456232
0.456317
0.389147
0.389212
0.332528
0.332571
0.285512
0.285524
0.24838
0.248497
0.22508
0.225187
0.19848
0.198467
0.173178
0.173184
0.150402
0.150416
0.130332
0.130346
0.112883
0.112889
0.0980252
0.098
0.0862524
0.0860958
0.0800874
0.0792251
0.0896588
0.0849008
0.173325
0.389507
0.385162
0.845312
0.853986
1.95863
1.96258
1.93934
1.93209
1.93035
14.9733
11.4056
10.8662
8.97714
8.67695
7.42021
7.21054
6.27505
6.11806
5.41693
5.30805
4.86937
4.78126
4.29743
4.20704
3.7514
3.6683
3.25922
3.18534
2.82519
2.76043
2.4461
2.38967
2.11615
2.06696
1.8279
1.78441
1.56903
1.52606
1.28127
1.05899
1.02562
0.885839
0.861875
0.750461
0.730891
0.638152
0.621741
0.543434
0.529544
0.46312
0.451336
0.394998
0.385026
0.337493
0.329141
0.289703
0.282926
0.251844
0.246964
0.227008
0.222969
0.200655
0.196471
0.1753
0.17143
0.152339
0.148888
0.132052
0.129029
0.114393
0.111791
0.0993476
0.0972066
0.0874394
0.0860161
0.0813427
0.0817327
0.092469
0.100678
0.190361
0.379416
0.434087
0.825863
0.951406
1.84416
1.93102
1.93205
1.93039
1.92986
14.5284
11.6329
10.7917
9.12978
8.62205
7.51766
7.16442
6.34624
6.08354
5.47252
5.2886
4.89838
4.7495
4.32924
4.17905
3.78245
3.64402
3.28754
3.1643
2.85029
2.74218
2.46806
2.37382
2.13521
2.05298
1.84421
1.77102
1.58155
1.50674
1.2841
1.07957
1.02031
0.896642
0.856007
0.758526
0.725728
0.644758
0.617317
0.548985
0.525775
0.467824
0.44814
0.398996
0.382344
0.340893
0.326957
0.29259
0.281301
0.254261
0.246036
0.228301
0.221483
0.202107
0.195156
0.176731
0.170286
0.153652
0.147897
0.133221
0.128179
0.115422
0.111087
0.100259
0.0967194
0.0882937
0.0860674
0.0823965
0.0838275
0.0953811
0.113197
0.203423
0.3747
0.469528
0.817063
1.01814
1.76192
1.90289
1.92486
1.92863
1.92935
14.1993
11.778
10.7501
9.23625
8.59102
7.58508
7.1369
6.39522
6.06297
5.51104
5.2774
4.91773
4.7286
4.35026
4.16092
3.80318
3.62847
3.30653
3.15089
2.86715
2.73059
2.48283
2.36374
2.14802
2.04406
1.8551
1.76229
1.58948
1.49334
1.28621
1.09435
1.01758
0.904127
0.852416
0.764007
0.722496
0.649225
0.614532
0.552734
0.523398
0.471
0.446124
0.401697
0.380657
0.343194
0.325592
0.294555
0.280308
0.255928
0.24549
0.229159
0.220502
0.203063
0.194302
0.177685
0.169552
0.154532
0.147264
0.134006
0.127639
0.116116
0.110644
0.10088
0.0964288
0.0889012
0.0861776
0.0832474
0.0855184
0.0980438
0.122821
0.213243
0.373043
0.494861
0.814122
1.06316
1.7038
1.87953
1.9184
1.927
1.92886
13.967
11.8674
10.7279
9.30798
8.57442
7.63019
7.12112
6.42782
6.05118
5.53682
5.27125
4.93027
4.71527
4.36373
4.14954
3.8166
3.61881
3.31888
3.1426
2.87814
2.72344
2.49245
2.35754
2.15636
2.03855
1.86215
1.75676
1.59435
1.48438
1.28771
1.10452
1.01633
0.909145
0.850296
0.767616
0.720537
0.652152
0.612833
0.555187
0.521946
0.473077
0.444893
0.403464
0.379629
0.344703
0.324766
0.295851
0.279723
0.25704
0.245182
0.229712
0.219874
0.203674
0.193764
0.178301
0.169095
0.155103
0.146873
0.134518
0.127306
0.116569
0.110375
0.10129
0.0962626
0.0893178
0.0862973
0.0838913
0.0868003
0.100217
0.12982
0.22029
0.372906
0.512296
0.813991
1.09252
1.66428
1.86164
1.91316
1.92564
1.92846
13.8188
11.9184
10.717
9.35227
8.56625
7.6579
7.11272
6.44777
6.04491
5.55267
5.26812
4.93778
4.70741
4.37171
4.14291
3.82462
3.61324
3.32629
3.13785
2.88474
2.71935
2.49823
2.35399
2.16137
2.03538
1.86636
1.75352
1.59713
1.47889
1.28868
1.1109
1.01583
0.912234
0.849132
0.769803
0.719434
0.65392
0.611871
0.556666
0.521122
0.47433
0.444195
0.404531
0.379046
0.345615
0.324302
0.296637
0.279402
0.25772
0.24502
0.230041
0.219503
0.204034
0.19345
0.178669
0.16883
0.155445
0.146648
0.134825
0.127115
0.116842
0.110222
0.101539
0.0961743
0.0895787
0.0863936
0.0843238
0.0876629
0.101745
0.134385
0.224851
0.373299
0.52324
0.814786
1.11015
1.63973
1.84958
1.90947
1.92466
1.92816
13.7466
11.9414
10.7126
9.37341
8.56299
7.67109
7.10912
6.45724
6.04223
5.56021
5.26683
4.94129
4.70377
4.37541
4.13987
3.82837
3.61071
3.32976
3.1357
2.88784
2.7175
2.50095
2.35238
2.16372
2.03395
1.86833
1.75202
1.59839
1.47629
1.28915
1.11397
1.01568
0.913706
0.84862
0.770835
0.718939
0.654752
0.611437
0.557362
0.52075
0.474919
0.44388
0.405032
0.378784
0.346044
0.324095
0.297009
0.279261
0.258043
0.244951
0.230195
0.21933
0.204202
0.193305
0.17884
0.16871
0.155605
0.146546
0.134969
0.127029
0.11697
0.110154
0.101657
0.0961365
0.0897044
0.0864465
0.0845411
0.0880969
0.102531
0.136638
0.227093
0.373632
0.528521
0.815429
1.11841
1.62797
1.84352
1.90757
1.92415
1.92801
-13.6283
-11.9391
-10.8759
-9.86435
-9.32069
-8.81783
-8.53997
-8.26882
-8.11829
-7.96956
-7.867
-7.73122
-7.63556
-7.51091
-7.42395
-7.31164
-7.23353
-7.13292
-7.0631
-6.97339
-6.91133
-6.83186
-6.77705
-6.70708
-6.65884
-6.59717
-6.55396
-6.49707
-6.45231
-6.38441
-6.32168
-6.28706
-6.252
-6.23006
-6.20441
-6.18761
-6.16726
-6.15378
-6.1373
-6.12634
-6.1129
-6.10398
-6.09304
-6.08579
-6.07696
-6.07117
-6.06419
-6.05973
-6.05455
-6.05145
-6.0481
-6.04577
-6.04271
-6.0407
-6.03832
-6.03697
-6.03569
-6.0353
-6.03558
-6.03659
-6.03915
-6.0423
-6.04851
-6.05527
-6.06792
-6.08171
-6.10788
-6.13904
-6.20319
-6.29676
-6.50841
-6.80223
-7.0649
-7.50219
-7.91958
-8.5834
-8.86288
-8.94582
-8.96729
-8.97228
-13.6959
-11.9141
-10.8738
-9.84564
-9.31906
-8.80883
-8.5397
-8.264
-8.11822
-7.96771
-7.86833
-7.72962
-7.63672
-7.50941
-7.42497
-7.31028
-7.23443
-7.13169
-7.0639
-6.97229
-6.91203
-6.83087
-6.77765
-6.70621
-6.65938
-6.59643
-6.5545
-6.49659
-6.45323
-6.3842
-6.32056
-6.28707
-6.25148
-6.23021
-6.20405
-6.18775
-6.16699
-6.1539
-6.13707
-6.12644
-6.11272
-6.10406
-6.09289
-6.08586
-6.07684
-6.07121
-6.06409
-6.05976
-6.05447
-6.05146
-6.04806
-6.0458
-6.04267
-6.04071
-6.03828
-6.03696
-6.03565
-6.03527
-6.03555
-6.03652
-6.03913
-6.04218
-6.04849
-6.05504
-6.06788
-6.08122
-6.10768
-6.13772
-6.20202
-6.29203
-6.50513
-6.80348
-7.05792
-7.50299
-7.90972
-8.59877
-8.87074
-8.94828
-8.96795
-8.97248
-13.8347
-11.8593
-10.8713
-9.80686
-9.31677
-8.79019
-8.5397
-8.25398
-8.11833
-7.96382
-7.87123
-7.72618
-7.63926
-7.50618
-7.42719
-7.30735
-7.23641
-7.12906
-7.06564
-6.96993
-6.91356
-6.82877
-6.77899
-6.70435
-6.66056
-6.59486
-6.55569
-6.49552
-6.45519
-6.38378
-6.31822
-6.28718
-6.25038
-6.23055
-6.20331
-6.18807
-6.16641
-6.15417
-6.13661
-6.12666
-6.11234
-6.10424
-6.09258
-6.086
-6.07658
-6.07132
-6.06388
-6.05982
-6.05429
-6.05148
-6.04797
-6.04586
-6.04258
-6.04075
-6.03819
-6.03696
-6.03558
-6.03522
-6.03549
-6.0364
-6.03909
-6.04193
-6.04845
-6.05455
-6.06781
-6.0802
-6.10734
-6.13503
-6.19981
-6.28239
-6.49843
-6.80648
-7.04331
-7.50532
-7.88857
-8.63083
-8.88638
-8.95306
-8.96921
-8.97286
-14.0526
-11.7651
-10.8718
-9.74511
-9.31595
-8.7605
-8.5411
-8.23795
-8.11921
-7.95745
-7.87623
-7.72042
-7.64364
-7.5008
-7.43105
-7.30248
-7.23984
-7.12467
-7.06868
-6.96599
-6.91623
-6.82526
-6.78132
-6.70127
-6.66261
-6.59221
-6.55772
-6.49366
-6.45838
-6.38312
-6.31451
-6.28751
-6.2486
-6.23119
-6.20208
-6.18865
-6.16545
-6.15465
-6.13583
-6.12706
-6.11171
-6.10456
-6.09206
-6.08626
-6.07616
-6.07151
-6.06353
-6.05995
-6.05401
-6.05154
-6.04783
-6.04597
-6.04243
-6.04081
-6.03806
-6.03696
-6.03546
-6.03514
-6.03541
-6.0362
-6.03904
-6.04153
-6.04844
-6.05378
-6.06778
-6.07859
-6.10697
-6.13086
-6.1969
-6.2674
-6.48805
-6.81233
-7.01969
-7.5108
-7.85307
-8.68236
-8.90958
-8.95986
-8.97098
-8.97339
-14.362
-11.6152
-10.8816
-9.65546
-9.32017
-8.71737
-8.54586
-8.21455
-8.1218
-7.94786
-7.88421
-7.7115
-7.65066
-7.49249
-7.43726
-7.29496
-7.24538
-7.11791
-7.07359
-6.95994
-6.92055
-6.81987
-6.78509
-6.69652
-6.66594
-6.58814
-6.56092
-6.49064
-6.46318
-6.3822
-6.30914
-6.28831
-6.24597
-6.2323
-6.20022
-6.18962
-6.16399
-6.15546
-6.13466
-6.12771
-6.11075
-6.10509
-6.09128
-6.08668
-6.07552
-6.07184
-6.06301
-6.06017
-6.05359
-6.05164
-6.04761
-6.04615
-6.0422
-6.04092
-6.03785
-6.03698
-6.0353
-6.03504
-6.0353
-6.03592
-6.03901
-6.04096
-6.04848
-6.05266
-6.06788
-6.07627
-6.10679
-6.125
-6.1938
-6.24641
-6.47353
-6.82286
-6.98473
-7.52223
-7.79808
-8.75797
-8.93985
-8.96822
-8.97309
-8.97402
-14.7812
-11.3847
-10.9112
-9.53017
-9.3351
-8.65699
-8.557
-8.18161
-8.12764
-7.93386
-7.89655
-7.6981
-7.66158
-7.48006
-7.44695
-7.28374
-7.25402
-7.10783
-7.08127
-6.95092
-6.92731
-6.81185
-6.79102
-6.68946
-6.67116
-6.58204
-6.56585
-6.48592
-6.47011
-6.38096
-6.30167
-6.28998
-6.24219
-6.23414
-6.1975
-6.19118
-6.16185
-6.15675
-6.13293
-6.12877
-6.10934
-6.10596
-6.09012
-6.08738
-6.07458
-6.07237
-6.06224
-6.06054
-6.05298
-6.05182
-6.0473
-6.04643
-6.04187
-6.04109
-6.03756
-6.03703
-6.03508
-6.03492
-6.03518
-6.03554
-6.03902
-6.04016
-6.04867
-6.0511
-6.06825
-6.07308
-6.10709
-6.11712
-6.19135
-6.21844
-6.45412
-6.84089
-6.93473
-7.54414
-7.71572
-8.8647
-8.97627
-8.97752
-8.97537
-8.97468
-15.3363
-11.0373
-10.977
-9.35745
-9.36935
-8.57348
-8.57916
-8.13581
-8.13907
-7.9136
-7.91534
-7.67823
-7.6783
-7.4617
-7.46185
-7.26717
-7.26733
-7.09296
-7.09311
-6.93763
-6.93776
-6.80005
-6.80017
-6.67906
-6.6792
-6.57302
-6.57334
-6.47862
-6.47998
-6.37932
-6.2915
-6.29309
-6.23681
-6.23712
-6.19358
-6.19367
-6.15874
-6.15879
-6.13041
-6.13045
-6.10729
-6.10732
-6.08845
-6.08847
-6.07321
-6.07322
-6.06114
-6.06115
-6.05211
-6.05214
-6.04683
-6.04685
-6.04139
-6.04138
-6.03715
-6.03714
-6.0348
-6.03478
-6.03506
-6.03503
-6.03912
-6.03906
-6.04909
-6.04895
-6.06911
-6.06871
-6.10836
-6.10667
-6.19079
-6.18212
-6.42867
-6.87063
-6.86412
-7.58355
-7.59428
-9.01293
-9.0171
-8.98697
-8.97758
-8.97532
-16.0633
-10.5203
-11.1052
-9.11946
-9.43591
-8.45791
-8.61929
-8.07215
-8.15965
-7.88426
-7.94369
-7.64886
-7.70368
-7.43467
-7.48454
-7.24281
-7.28762
-7.07111
-7.11116
-6.91811
-6.95371
-6.78273
-6.81417
-6.66382
-6.69151
-6.55974
-6.58462
-6.46749
-6.49393
-6.37717
-6.27776
-6.29852
-6.22918
-6.24186
-6.1879
-6.19756
-6.15423
-6.16198
-6.12675
-6.13304
-6.10431
-6.10943
-6.08601
-6.09017
-6.07123
-6.07456
-6.05955
-6.06211
-6.05089
-6.05268
-6.04615
-6.0475
-6.04069
-6.04184
-6.03657
-6.03734
-6.03441
-6.03463
-6.03495
-6.03436
-6.03939
-6.03757
-6.04992
-6.04599
-6.07079
-6.06274
-6.11128
-6.09279
-6.19394
-6.1356
-6.3954
-6.91831
-6.76447
-7.65131
-7.41652
-9.21774
-9.0593
-8.99558
-8.97951
-8.97586
-17.0121
-9.75826
-11.3363
-8.78939
-9.55425
-8.29677
-8.68775
-7.9831
-8.19475
-7.84151
-7.9862
-7.60552
-7.74202
-7.39488
-7.51889
-7.20699
-7.31836
-7.039
-7.13855
-6.88945
-6.97793
-6.75731
-6.83544
-6.64145
-6.71018
-6.5402
-6.60158
-6.45061
-6.51361
-6.37433
-6.2592
-6.30755
-6.21826
-6.24927
-6.17968
-6.20357
-6.14768
-6.16687
-6.12144
-6.13704
-6.09997
-6.11269
-6.08248
-6.0928
-6.06837
-6.07663
-6.05727
-6.06363
-6.04914
-6.05354
-6.04516
-6.04847
-6.03968
-6.04256
-6.03574
-6.03769
-6.03391
-6.03447
-6.03488
-6.03347
-6.03994
-6.0355
-6.0514
-6.04188
-6.07379
-6.05451
-6.11688
-6.07412
-6.20346
-6.07635
-6.35161
-6.99307
-6.62319
-7.76394
-7.15731
-9.50093
-9.09771
-9.00229
-8.98094
-8.97626
-18.251
-8.64292
-11.7323
-8.32685
-9.75348
-8.06969
-8.80004
-7.8574
-8.25244
-7.77886
-8.04973
-7.54148
-7.7997
-7.33624
-7.57069
-7.15424
-7.36473
-6.99174
-7.17988
-6.84728
-7.01451
-6.71994
-6.8676
-6.60858
-6.73841
-6.5114
-6.62703
-6.42518
-6.54137
-6.37052
-6.23411
-6.32208
-6.20253
-6.2607
-6.16772
-6.21277
-6.13813
-6.17436
-6.11368
-6.14315
-6.09364
-6.11766
-6.07732
-6.09682
-6.06419
-6.0798
-6.05395
-6.06598
-6.04664
-6.05492
-6.0437
-6.04992
-6.03819
-6.04366
-6.03457
-6.03827
-6.03322
-6.03432
-6.03488
-6.03226
-6.04092
-6.03262
-6.0539
-6.03612
-6.07884
-6.04302
-6.12668
-6.04857
-6.22325
-6.00101
-6.29317
-7.10827
-6.42149
-7.94647
-6.7801
-9.894
-9.12381
-9.00603
-8.98171
-8.97647
)
;

boundaryField
{
    F1_1
    {
        type            calculated;
        value           nonuniform List<scalar> 
80
(
18.9533
7.97439
11.9807
8.04199
9.87712
7.90583
8.86907
7.71592
8.28998
7.55254
7.90448
7.49065
7.75974
7.28807
7.56016
7.11146
7.36674
6.95442
7.18739
6.81486
7.0242
6.69184
6.87781
6.5843
6.74839
6.49044
6.6368
6.40685
6.55311
6.36562
6.21821
6.32859
6.19192
6.26573
6.15956
6.21681
6.13158
6.17766
6.10836
6.14585
6.08931
6.11987
6.07379
6.0986
6.06133
6.08119
6.05167
6.06698
6.04489
6.05542
6.04258
6.05048
6.0371
6.04406
6.03371
6.0384
6.03269
6.03407
6.03479
6.03141
6.04145
6.03082
6.05538
6.03264
6.08192
6.03621
6.13281
6.03369
6.23624
5.95877
6.25962
7.17795
6.30268
8.05895
6.55654
10.1226
9.13244
9.00701
8.98189
8.97651
)
;
    }
    F1_2
    {
        type            calculated;
        value           nonuniform List<scalar> 
80
(
-19.3689
-7.89301
-12.4784
-7.03079
-9.79067
-6.13954
-8.06121
-5.32627
-6.75563
-4.69545
-5.69592
-4.44391
-5.25372
-3.82571
-4.64304
-3.30314
-4.05635
-2.85515
-3.5257
-2.46881
-3.05698
-2.13488
-2.64764
-1.84551
-2.2929
-1.59262
-1.99081
-1.36506
-1.76724
-1.2525
-0.830254
-1.1473
-0.743671
-0.964766
-0.639088
-0.817535
-0.545848
-0.695148
-0.465594
-0.591877
-0.397107
-0.504204
-0.338976
-0.429574
-0.290123
-0.365947