/*--------------------------------*- C++ -*----------------------------------*\
| =========                 |                                                 |
| \\      /  F ield         | OpenFOAM: The Open Source CFD Toolbox           |
|  \\    /   O peration     | Version:  5.x                                   |
|   \\  /    A nd           | Web:      www.OpenFOAM.org                      |
|    \\/     M anipulation  |                                                 |
\*---------------------------------------------------------------------------*/
FoamFile
{
    version     2.0;
    format      ascii;
    class       volScalarField;
    location    "4.7";
    object      T;
}
// * * * * * * * * * * * * * * * * * * * * * * * * * * * * * * * * * * * * * //

dimensions      [0 0 0 1 0 0 0];

internalField   nonuniform List<scalar> 
3200
(
2.08483
2.43602
2.45605
2.60091
2.61008
2.68241
2.68722
2.72907
2.73194
2.75845
2.76021
2.77553
2.77687
2.79359
2.79495
2.8109
2.81218
2.82685
2.82802
2.84128
2.84233
2.85417
2.8551
2.86556
2.86638
2.87558
2.87631
2.8846
2.88533
2.89412
2.90182
2.90237
2.90735
2.90772
2.91153
2.91181
2.91486
2.91509
2.91756
2.91775
2.91977
2.91992
2.92156
2.92169
2.92302
2.92312
2.92417
2.92424
2.92503
2.92508
2.92555
2.92559
2.92607
2.9261
2.92647
2.92649
2.92669
2.9267
2.92666
2.92665
2.92628
2.92623
2.92533
2.92522
2.92342
2.92319
2.9196
2.91911
2.9112
2.90981
2.88734
2.84811
2.84373
2.77997
2.77246
2.65318
2.64823
2.6476
2.64747
2.64745
2.26031
2.52901
2.57087
2.68676
2.70633
2.76416
2.77443
2.80779
2.8139
2.83496
2.83871
2.85099
2.85386
2.86709
2.86997
2.88261
2.88531
2.89694
2.89941
2.90992
2.91214
2.92152
2.92349
2.93178
2.93352
2.94082
2.94238
2.94897
2.95054
2.95782
2.96429
2.96548
2.96946
2.97024
2.97326
2.97387
2.97629
2.97678
2.97874
2.97914
2.98074
2.98106
2.98236
2.98263
2.98368
2.98389
2.98472
2.98489
2.98551
2.98562
2.986
2.98608
2.98645
2.98653
2.98682
2.98687
2.98702
2.98704
2.98701
2.98698
2.98668
2.98657
2.98586
2.98561
2.98417
2.98368
2.98081
2.97974
2.9733
2.97025
2.9506
2.91849
2.90913
2.85831
2.84249
2.74983
2.73938
2.73765
2.73729
2.73721
2.42505
2.63108
2.68272
2.77645
2.80104
2.84782
2.86072
2.8876
2.89525
2.91217
2.91687
2.92684
2.93042
2.941
2.9446
2.9547
2.95809
2.96739
2.97048
2.97889
2.98166
2.98917
2.99164
2.99827
3.00045
3.0063
3.00824
3.01354
3.01552
3.02155
3.02697
3.02848
3.03169
3.03267
3.0351
3.03586
3.03779
3.0384
3.03997
3.04047
3.04175
3.04216
3.0432
3.04353
3.04438
3.04464
3.04531
3.04551
3.04601
3.04615
3.04645
3.04656
3.04685
3.04695
3.04718
3.04724
3.04736
3.04738
3.04736
3.04731
3.04708
3.04693
3.04636
3.04605
3.04489
3.04428
3.04194
3.04059
3.03527
3.03134
3.01437
2.98797
2.97619
2.93525
2.9156
2.8432
2.83018
2.82765
2.82709
2.82697
2.58155
2.73932
2.79289
2.86892
2.89487
2.93284
2.94644
2.96818
2.97624
2.98987
2.99482
3.00293
3.00671
3.01518
3.01897
3.02707
3.03062
3.03809
3.04133
3.04808
3.051
3.05703
3.05962
3.06494
3.06723
3.07193
3.07397
3.07825
3.08034
3.0853
3.0898
3.09141
3.09401
3.09505
3.097
3.0978
3.09935
3.09999
3.10126
3.10178
3.10281
3.10323
3.10407
3.10442
3.1051
3.10537
3.10591
3.10612
3.10652
3.10667
3.10691
3.10702
3.10726
3.10736
3.10754
3.10761
3.10771
3.10773
3.10771
3.10766
3.10747
3.10732
3.10685
3.10653
3.10559
3.10494
3.10303
3.10159
3.09718
3.09296
3.07851
3.05686
3.04442
3.01133
2.99082
2.93419
2.92056
2.91756
2.91688
2.91673
2.73174
2.85172
2.90216
2.96339
2.98822
3.01883
3.03184
3.0493
3.057
3.06791
3.07265
3.0792
3.08281
3.08956
3.09316
3.09962
3.10301
3.10896
3.11205
3.11743
3.12021
3.12502
3.12748
3.13173
3.13391
3.13766
3.13961
3.14304
3.14505
3.14908
3.15276
3.1543
3.15639
3.15738
3.15894
3.1597
3.16095
3.16156
3.16257
3.16306
3.16389
3.16429
3.16496
3.16529
3.16583
3.16609
3.16652
3.16672
3.16704
3.16718
3.16738
3.16749
3.16768
3.16777
3.16792
3.16798
3.16806
3.16807
3.16806
3.16801
3.16786
3.16771
3.16734
3.16703
3.16627
3.16565
3.1641
3.16272
3.15908
3.15498
3.14294
3.12538
3.11348
3.08692
3.06749
3.02346
3.01052
3.00738
3.00664
3.00648
2.87712
2.96691
3.011
3.05931
3.08133
3.10553
3.11706
3.13082
3.13764
3.1462
3.1504
3.15559
3.15879
3.16406
3.16724
3.17229
3.17528
3.17994
3.18267
3.18688
3.18934
3.1931
3.19528
3.19861
3.20053
3.20347
3.2052
3.20789
3.20967
3.21286
3.21579
3.21717
3.21882
3.21969
3.22092
3.22159
3.22257
3.22311
3.2239
3.22434
3.22498
3.22534
3.22586
3.22615
3.22658
3.22681
3.22714
3.22732
3.22757
3.2277
3.22785
3.22795
3.2281
3.22818
3.22829
3.22835
3.22841
3.22842
3.22841
3.22837
3.22825
3.22812
3.22782
3.22755
3.22695
3.2264
3.22517
3.22393
3.22101
3.21732
3.20759
3.19368
3.18312
3.16222
3.14514
3.11148
3.10009
3.09711
3.09639
3.09622
3.01892
3.08393
3.11967
3.15629
3.17436
3.19273
3.2022
3.21261
3.2182
3.22467
3.22811
3.23206
3.23468
3.23865
3.24125
3.24505
3.2475
3.251
3.25323
3.25641
3.25841
3.26125
3.26303
3.26554
3.26711
3.26932
3.27074
3.27277
3.27424
3.27666
3.27889
3.28002
3.28128
3.28199
3.28292
3.28347
3.2842
3.28465
3.28524
3.2856
3.28609
3.28638
3.28677
3.28701
3.28733
3.28752
3.28777
3.28792
3.28811
3.28821
3.28833
3.28841
3.28852
3.28858
3.28867
3.28871
3.28876
3.28877
3.28876
3.28873
3.28864
3.28853
3.28831
3.28808
3.28763
3.28717
3.28624
3.28522
3.28296
3.27991
3.27241
3.26184
3.25317
3.23736
3.22345
3.19861
3.18932
3.18675
3.18611
3.18596
3.15811
3.20212
3.22831
3.25401
3.26738
3.28029
3.28729
3.2946
3.29873
3.30326
3.3058
3.30858
3.31052
3.31329
3.31521
3.31786
3.31966
3.32211
3.32376
3.32598
3.32746
3.32944
3.33075
3.3325
3.33367
3.33521
3.33626
3.33768
3.33876
3.34047
3.34204
3.34288
3.34375
3.34429
3.34493
3.34534
3.34585
3.34618
3.34659
3.34686
3.3472
3.34742
3.34769
3.34787
3.34809
3.34823
3.34841
3.34852
3.34865
3.34872
3.34881
3.34886
3.34894
3.34899
3.34905
3.34908
3.34911
3.34912
3.34911
3.34909
3.34902
3.34895
3.34879
3.34862
3.3483
3.34797
3.34731
3.34655
3.34494
3.34267
3.33735
3.32992
3.32351
3.31243
3.3022
3.28513
3.27828
3.27631
3.27581
3.27569
3.29554
3.32102
3.33697
3.35222
3.36041
3.36808
3.37238
3.37671
3.37924
3.38193
3.38348
3.38514
3.38632
3.38796
3.38913
3.3907
3.39181
3.39326
3.39426
3.39558
3.39648
3.39765
3.39846
3.39949
3.40021
3.40112
3.40176
3.4026
3.40327
3.40428
3.40521
3.40573
3.40625
3.40657
3.40696
3.40721
3.40751
3.40771
3.40795
3.40812
3.40832
3.40845
3.40861
3.40872
3.40885
3.40894
3.40904
3.40911
3.40919
3.40923
3.40928
3.40932
3.40936
3.40939
3.40943
3.40945
3.40947
3.40947
3.40947
3.40945
3.40941
3.40937
3.40927
3.40917
3.40898
3.40878
3.40838
3.40792
3.40695
3.40556
3.40238
3.39797
3.39404
3.38747
3.38122
3.37123
3.36705
3.36581
3.36549
3.36542
3.43196
3.4403
3.44565
3.45071
3.45347
3.45601
3.45746
3.4589
3.45975
3.46064
3.46116
3.46171
3.46211
3.46265
3.46305
3.46357
3.46394
3.46442
3.46476
3.46519
3.4655
3.46588
3.46615
3.4665
3.46674
3.46704
3.46725
3.46753
3.46776
3.46809
3.4684
3.46858
3.46875
3.46886
3.46898
3.46907
3.46917
3.46924
3.46932
3.46937
3.46944
3.46948
3.46954
3.46957
3.46962
3.46965
3.46968
3.4697
3.46973
3.46974
3.46976
3.46977
3.46979
3.4698
3.46981
3.46982
3.46982
3.46982
3.46982
3.46982
3.4698
3.46979
3.46976
3.46972
3.46966
3.46959
3.46946
3.4693
3.46898
3.46851
3.46745
3.46599
3.46467
3.46249
3.46039
3.4571
3.4557
3.45527
3.45516
3.45514
3.43136
3.44027
3.44644
3.45311
3.45719
3.46163
3.46446
3.4677
3.46979
3.47219
3.47367
3.47529
3.47649
3.47812
3.4793
3.48085
3.48195
3.48335
3.48432
3.48556
3.48641
3.48749
3.48824
3.48918
3.48983
3.49066
3.49124
3.49201
3.49262
3.49355
3.49443
3.49492
3.49543
3.49576
3.49614
3.49641
3.49673
3.49694
3.49721
3.4974
3.49762
3.49778
3.49797
3.49811
3.49827
3.49838
3.49851
3.4986
3.49871
3.49878
3.49885
3.4989
3.49898
3.49903
3.49911
3.49916
3.49922
3.49927
3.49932
3.49936
3.49942
3.49945
3.49949
3.49952
3.49955
3.49957
3.49958
3.49956
3.49949
3.49931
3.49886
3.49813
3.49735
3.49592
3.4944
3.49187
3.49079
3.49046
3.49038
3.49036
3.29371
3.32091
3.33931
3.35942
3.37155
3.38495
3.39336
3.40315
3.40936
3.41661
3.421
3.42589
3.42944
3.43437
3.4379
3.44258
3.44584
3.45006
3.45296
3.45669
3.45924
3.46249
3.46471
3.46755
3.46949
3.47198
3.47372
3.47603
3.47785
3.48066
3.48329
3.48476
3.4863
3.48727
3.48844
3.48922
3.49018
3.49083
3.49164
3.49219
3.49288
3.49334
3.49393
3.49432
3.49481
3.49514
3.49555
3.49581
3.49613
3.49633
3.49655
3.49671
3.49694
3.4971
3.49732
3.49747
3.49767
3.4978
3.49798
3.49809
3.49825
3.49835
3.49848
3.49856
3.49865
3.4987
3.49873
3.49868
3.49846
3.49795
3.4966
3.4944
3.49208
3.48777
3.48323
3.47557
3.47234
3.47138
3.47114
3.47108
3.15498
3.2019
3.2321
3.26606
3.28586
3.30847
3.3222
3.33875
3.34889
3.36114
3.36831
3.37653
3.38234
3.39068
3.39645
3.40436
3.40968
3.41682
3.42157
3.42786
3.43203
3.43753
3.44116
3.44595
3.44912
3.45333
3.45617
3.46006
3.46304
3.46778
3.47221
3.47461
3.47719
3.47877
3.48075
3.48202
3.48365
3.48471
3.48608
3.48697
3.48814
3.4889
3.48988
3.49053
3.49136
3.49189
3.49258
3.49302
3.49356
3.49387
3.49425
3.49451
3.4949
3.49516
3.49553
3.49578
3.49611
3.49633
3.49663
3.49682
3.49708
3.49724
3.49746
3.4976
3.49776
3.49784
3.49789
3.49781
3.49745
3.49663
3.49436
3.49067
3.48689
3.47963
3.4722
3.45908
3.4538
3.45228
3.45189
3.4518
3.01437
3.08356
3.12475
3.17327
3.20006
3.23235
3.25094
3.2746
3.28834
3.30587
3.31557
3.32728
3.33513
3.3471
3.35491
3.36625
3.37346
3.38368
3.39011
3.39912
3.40477
3.41264
3.41756
3.42442
3.42872
3.43473
3.43858
3.44414
3.44817
3.45491
3.4612
3.46444
3.46811
3.47026
3.47309
3.4748
3.47714
3.47857
3.48054
3.48175
3.48342
3.48444
3.48586
3.48673
3.48792
3.48864
3.48963
3.49022
3.49099
3.49142
3.49195
3.49231
3.49286
3.49323
3.49375
3.49409
3.49456
3.49486
3.49529
3.49555
3.49591
3.49614
3.49645
3.49663
3.49687
3.49698
3.49705
3.49694
3.49646
3.49536
3.49219
3.48694
3.48183
3.47149
3.46138
3.44228
3.43511
3.43312
3.43263
3.43251
2.87099
2.96634
3.0171
3.08134
3.11404
3.15677
3.17947
3.21084
3.22763
3.25092
3.26276
3.27818
3.28777
3.30368
3.31323
3.3283
3.33712
3.35069
3.35855
3.37052
3.37742
3.38787
3.39389
3.40299
3.40824
3.41623
3.42093
3.42827
3.43318
3.44206
3.45032
3.45425
3.4591
3.46173
3.46547
3.46757
3.47066
3.47242
3.47502
3.47651
3.47872
3.47997
3.48185
3.48291
3.48449
3.48538
3.48669
3.48741
3.48844
3.48897
3.48966
3.4901
3.49084
3.49128
3.49198
3.49239
3.49302
3.49339
3.49395
3.49427
3.49476
3.49503
3.49544
3.49567
3.49598
3.49612
3.49623
3.4961
3.49549
3.49417
3.4901
3.4832
3.47699
3.46334
3.45093
3.42501
3.41621
3.41391
3.41335
3.41322
2.7238
2.8509
2.90891
2.99067
3.02762
3.08199
3.10765
3.14767
3.16667
3.19642
3.2098
3.22931
3.24014
3.26051
3.27133
3.2906
3.30058
3.31793
3.32682
3.34212
3.34992
3.36328
3.37009
3.38172
3.38766
3.39785
3.40316
3.41251
3.41803
3.42923
3.43961
3.44403
3.45018
3.45314
3.45792
3.46029
3.46424
3.46623
3.46956
3.47123
3.47406
3.47548
3.47788
3.47908
3.4811
3.4821
3.48378
3.48459
3.4859
3.4865
3.48739
3.48788
3.48882
3.48932
3.49022
3.49068
3.49149
3.49191
3.49262
3.49298
3.49361
3.49392
3.49444
3.4947
3.4951
3.49526
3.49541
3.49527
3.49455
3.49309
3.48812
3.47944
3.47244
3.45515
3.44102
3.40704
3.39705
3.39463
3.39405
3.39393
2.57153
2.73823
2.79978
2.90179
2.94051
3.00837
3.03526
3.08534
3.10527
3.14258
3.1566
3.18079
3.19214
3.21773
3.22909
3.25327
3.26375
3.28551
3.29484
3.31402
3.32221
3.33895
3.34609
3.36067
3.3669
3.37967
3.38524
3.39689
3.40266
3.41643
3.42914
3.43374
3.44139
3.44449
3.45046
3.45295
3.4579
3.45998
3.46416
3.46592
3.46946
3.47095
3.47395
3.47521
3.47774
3.4788
3.4809
3.48175
3.4834
3.48403
3.48512
3.48564
3.48682
3.48735
3.48847
3.48896
3.48998
3.49041
3.49131
3.49169
3.49247
3.4928
3.49346
3.49372
3.49423
3.4944
3.4946
3.49446
3.49364
3.49216
3.48629
3.47562
3.46831
3.44683
3.43191
3.38812
3.37759
3.37527
3.37474
3.37463
2.41259
2.62976
2.68902
2.81545
2.85222
2.93638
2.96194
3.02422
3.04318
3.08967
3.10299
3.13279
3.14357
3.17552
3.18633
3.21649
3.22647
3.25358
3.26247
3.28635
3.29415
3.315
3.3218
3.33995
3.34589
3.36178
3.36707
3.38152
3.38696
3.40368
3.419
3.42333
3.43277
3.43572
3.44314
3.44551
3.45167
3.45365
3.45885
3.46053
3.46493
3.46635
3.47009
3.47129
3.47445
3.47545
3.47807
3.47888
3.48094
3.48153
3.48289
3.48338
3.48485
3.48535
3.48675
3.48722
3.48848
3.4889
3.49001
3.49038
3.49135
3.49166
3.49248
3.49274
3.49338
3.49353
3.4938
3.49368
3.49276
3.4914
3.48466
3.47165
3.46474
3.43824
3.42394
3.36787
3.3578
3.35584
3.35541
3.35532
2.24496
2.52761
2.57558
2.73269
2.76204
2.86673
2.88714
2.96483
2.97999
3.03808
3.04872
3.08554
3.09415
3.13415
3.14281
3.18052
3.1885
3.22238
3.22949
3.25933
3.26557
3.29162
3.29706
3.31973
3.32447
3.34431
3.34853
3.3665
3.37082
3.39098
3.40929
3.41271
3.42442
3.42677
3.43603
3.43792
3.44561
3.4472
3.45369
3.45503
3.46053
3.46167
3.46634
3.4673
3.47124
3.47204
3.47531
3.47596
3.47853
3.47901
3.48068
3.48107
3.48292
3.48332
3.48507
3.48544
3.48702
3.48736
3.48875
3.48904
3.49025
3.4905
3.49153
3.49174
3.49254
3.49267
3.49303
3.49294
3.49189
3.49085
3.48327
3.46745
3.46195
3.42917
3.41765
3.34578
3.33769
3.33635
3.33607
3.33601
2.06602
2.43484
2.45777
2.65505
2.66885
2.80045
2.81006
2.90793
2.91508
2.98839
2.9934
3.03942
3.04347
3.09403
3.09812
3.14573
3.1495
3.19225
3.19561
3.23326
3.2362
3.26906
3.27162
3.30022
3.30246
3.32746
3.32945
3.35202
3.35404
3.37835
3.40018
3.40176
3.41644
3.41754
3.4292
3.4301
3.43979
3.44054
3.44873
3.44936
3.45631
3.45684
3.46273
3.46318
3.46815
3.46853
3.47265
3.47296
3.47621
3.47643
3.47853
3.47871
3.48104
3.48123
3.48345
3.48362
3.48562
3.48577
3.48753
3.48767
3.4892
3.48932
3.49062
3.49071
3.49173
3.49179
3.49227
3.49223
3.49103
3.49056
3.48221
3.46283
3.46026
3.41925
3.41377
3.32114
3.3173
3.31682
3.31672
3.3167
2.06602
2.43484
2.45777
2.65505
2.66885
2.80045
2.81006
2.90793
2.91508
2.98839
2.9934
3.03942
3.04347
3.09403
3.09812
3.14573
3.1495
3.19225
3.19561
3.23326
3.2362
3.26906
3.27162
3.30022
3.30245
3.32746
3.32945
3.35202
3.35403
3.37835
3.40018
3.40176
3.41644
3.41754
3.4292
3.4301
3.43979
3.44054
3.44873
3.44936
3.4563
3.45684
3.46273
3.46318
3.46815
3.46853
3.47265
3.47296
3.47621
3.47643
3.47853
3.47871
3.48104
3.48123
3.48344
3.48362
3.48562
3.48577
3.48753
3.48767
3.4892
3.48932
3.49062
3.49071
3.49173
3.49179
3.49227
3.49223
3.49103
3.49056
3.48221
3.46283
3.46026
3.41925
3.41377
3.32114
3.3173
3.31681
3.31672
3.3167
2.24496
2.52761
2.57558
2.73269
2.76204
2.86673
2.88714
2.96483
2.97999
3.03808
3.04871
3.08554
3.09415
3.13415
3.14281
3.18052
3.1885
3.22238
3.22949
3.25933
3.26557
3.29162
3.29706
3.31973
3.32447
3.3443
3.34853
3.3665
3.37081
3.39098
3.40929
3.41271
3.42442
3.42677
3.43603
3.43792
3.44561
3.44719
3.45369
3.45503
3.46053
3.46167
3.46634
3.4673
3.47124
3.47204
3.47531
3.47596
3.47853
3.47901
3.48068
3.48107
3.48292
3.48332
3.48507
3.48544
3.48702
3.48736
3.48875
3.48904
3.49025
3.4905
3.49153
3.49174
3.49254
3.49267
3.49303
3.49294
3.49189
3.49085
3.48327
3.46745
3.46195
3.42917
3.41765
3.34578
3.33768
3.33635
3.33607
3.33601
2.41259
2.62976
2.68902
2.81545
2.85222
2.93638
2.96193
3.02422
3.04318
3.08967
3.10299
3.13278
3.14357
3.17552
3.18633
3.21649
3.22647
3.25358
3.26247
3.28635
3.29415
3.315
3.3218
3.33995
3.34589
3.36177
3.36707
3.38152
3.38696
3.40368
3.419
3.42333
3.43277
3.43572
3.44314
3.44551
3.45167
3.45365
3.45885
3.46053
3.46493
3.46635
3.47009
3.47129
3.47445
3.47545
3.47807
3.47888
3.48094
3.48153
3.48289
3.48338
3.48485
3.48535
3.48675
3.48722
3.48848
3.4889
3.49001
3.49038
3.49135
3.49166
3.49248
3.49274
3.49338
3.49353
3.4938
3.49368
3.49276
3.49139
3.48466
3.47165
3.46474
3.43824
3.42394
3.36787
3.3578
3.35584
3.35541
3.35532
2.57153
2.73823
2.79978
2.90179
2.9405
3.00836
3.03526
3.08534
3.10527
3.14258
3.1566
3.18079
3.19214
3.21773
3.22909
3.25327
3.26375
3.28551
3.29484
3.31402
3.32221
3.33895
3.34609
3.36067
3.3669
3.37967
3.38524
3.39689
3.40266
3.41643
3.42914
3.43374
3.44139
3.44449
3.45046
3.45295
3.4579
3.45998
3.46416
3.46592
3.46946
3.47095
3.47395
3.47521
3.47774
3.4788
3.4809
3.48175
3.4834
3.48403
3.48512
3.48564
3.48682
3.48735
3.48847
3.48896
3.48998
3.49041
3.49131
3.49169
3.49247
3.4928
3.49346
3.49372
3.49423
3.4944
3.4946
3.49446
3.49364
3.49216
3.48629
3.47562
3.46831
3.44683
3.4319
3.38812
3.37759
3.37527
3.37474
3.37462
2.7238
2.8509
2.90891
2.99067
3.02762
3.08199
3.10765
3.14767
3.16667
3.19642
3.2098
3.22931
3.24014
3.26051
3.27133
3.2906
3.30058
3.31793
3.32682
3.34212
3.34992
3.36328
3.37009
3.38172
3.38766
3.39785
3.40316
3.41251
3.41803
3.42923
3.43961
3.44403
3.45018
3.45314
3.45792
3.46029
3.46424
3.46622
3.46956
3.47123
3.47406
3.47548
3.47788
3.47908
3.4811
3.4821
3.48378
3.48459
3.4859
3.4865
3.48739
3.48788
3.48882
3.48932
3.49022
3.49068
3.49149
3.49191
3.49262
3.49298
3.49361
3.49392
3.49444
3.4947
3.4951
3.49526
3.49541
3.49527
3.49455
3.49309
3.48812
3.47944
3.47244
3.45515
3.44102
3.40704
3.39705
3.39462
3.39405
3.39392
2.87099
2.96634
3.0171
3.08134
3.11404
3.15677
3.17947
3.21084
3.22763
3.25092
3.26276
3.27818
3.28777
3.30368
3.31323
3.3283
3.33712
3.35069
3.35855
3.37052
3.37742
3.38787
3.39389
3.40299
3.40824
3.41623
3.42093
3.42827
3.43318
3.44206
3.45032
3.45425
3.4591
3.46173
3.46547
3.46757
3.47066
3.47242
3.47502
3.47651
3.47872
3.47997
3.48185
3.48291
3.48449
3.48538
3.48669
3.48741
3.48844
3.48897
3.48966
3.4901
3.49084
3.49128
3.49198
3.49239
3.49302
3.49339
3.49395
3.49427
3.49476
3.49503
3.49544
3.49567
3.49598
3.49612
3.49623
3.4961
3.49549
3.49417
3.4901
3.4832
3.47699
3.46334
3.45093
3.425
3.41621
3.41391
3.41335
3.41322
3.01437
3.08356
3.12475
3.17326
3.20006
3.23235
3.25094
3.2746
3.28834
3.30587
3.31557
3.32728
3.33513
3.3471
3.35491
3.36625
3.37346
3.38368
3.39011
3.39912
3.40477
3.41264
3.41756
3.42442
3.42872
3.43473
3.43858
3.44414
3.44816
3.45491
3.4612
3.46444
3.46811
3.47026
3.47309
3.4748
3.47714
3.47857
3.48054
3.48175
3.48342
3.48444
3.48586
3.48673
3.48792
3.48864
3.48963
3.49022
3.49099
3.49142
3.49195
3.49231
3.49286
3.49322
3.49375
3.49409
3.49456
3.49486
3.49529
3.49555
3.49591
3.49614
3.49645
3.49663
3.49687
3.49698
3.49705
3.49694
3.49646
3.49536
3.49219
3.48694
3.48183
3.47149
3.46138
3.44228
3.43511
3.43312
3.43262
3.43251
3.15498
3.2019
3.2321
3.26606
3.28586
3.30847
3.3222
3.33875
3.34889
3.36114
3.3683
3.37653
3.38234
3.39068
3.39645
3.40436
3.40968
3.41682
3.42157
3.42786
3.43203
3.43753
3.44116
3.44595
3.44912
3.45333
3.45617
3.46006
3.46304
3.46778
3.47221
3.47461
3.47718
3.47877
3.48075
3.48202
3.48365
3.48471
3.48608
3.48697
3.48814
3.4889
3.48988
3.49053
3.49136
3.49189
3.49258
3.49302
3.49355
3.49387
3.49425
3.49451
3.4949
3.49516
3.49553
3.49578
3.49611
3.49633
3.49663
3.49682
3.49708
3.49724
3.49746
3.4976
3.49776
3.49784
3.49789
3.49781
3.49745
3.49663
3.49436
3.49067
3.48689
3.47963
3.47219
3.45908
3.4538
3.45228
3.45189
3.4518
3.29371
3.32091
3.33931
3.35942
3.37155
3.38495
3.39336
3.40315
3.40936
3.41661
3.421
3.42588
3.42944
3.43437
3.4379
3.44258
3.44584
3.45006
3.45296
3.45669
3.45924
3.46249
3.46471
3.46755
3.46949
3.47198
3.47372
3.47603
3.47785
3.48066
3.48329
3.48476
3.4863
3.48727
3.48844
3.48922
3.49018
3.49083
3.49164
3.49219
3.49288
3.49334
3.49393
3.49432
3.49481
3.49514
3.49555
3.49581
3.49613
3.49633
3.49655
3.49671
3.49694
3.4971
3.49732
3.49747
3.49767
3.4978
3.49798
3.49809
3.49825
3.49835
3.49848
3.49856
3.49865
3.4987
3.49873
3.49868
3.49846
3.49795
3.4966
3.4944
3.49208
3.48777
3.48323
3.47557
3.47234
3.47138
3.47114
3.47108
3.43136
3.44027
3.44644
3.45311
3.45719
3.46163
3.46446
3.4677
3.46979
3.47219
3.47367
3.47529
3.47649
3.47812
3.4793
3.48085
3.48195
3.48335
3.48432
3.48556
3.48641
3.48749
3.48824
3.48918
3.48983
3.49066
3.49124
3.49201
3.49262
3.49355
3.49443
3.49492
3.49543
3.49576
3.49614
3.49641
3.49673
3.49694
3.49721
3.4974
3.49762
3.49778
3.49797
3.49811
3.49827
3.49838
3.49851
3.4986
3.49871
3.49878
3.49885
3.4989
3.49898
3.49903
3.49911
3.49916
3.49922
3.49927
3.49932
3.49936
3.49941
3.49945
3.49949
3.49952
3.49955
3.49957
3.49958
3.49956
3.49949
3.49931
3.49886
3.49813
3.49735
3.49592
3.4944
3.49187
3.49079
3.49046
3.49038
3.49036
3.43194
3.44027
3.44562
3.45066
3.45339
3.4559
3.4573
3.45865
3.45941
3.46015
3.46067
3.46134
3.46182
3.46244
3.46288
3.46344
3.46383
3.46433
3.46469
3.46513
3.46544
3.46584
3.46612
3.46646
3.46671
3.46701
3.46723
3.46751
3.46774
3.46808
3.46839
3.46856
3.46874
3.46885
3.46898
3.46906
3.46916
3.46923
3.46931
3.46937
3.46944
3.46948
3.46953
3.46957
3.46962
3.46964
3.46968
3.4697
3.46973
3.46974
3.46976
3.46977
3.46979
3.4698
3.46981
3.46982
3.46982
3.46982
3.46982
3.46982
3.4698
3.46979
3.46976
3.46972
3.46966
3.46959
3.46946
3.4693
3.46898
3.46851
3.46745
3.46599
3.46467
3.46249
3.46039
3.4571
3.4557
3.45527
3.45516
3.45514
3.29549
3.32094
3.33686
3.35206
3.36019
3.36774
3.3719
3.37597
3.37823
3.38046
3.38199
3.38403
3.38547
3.38734
3.38864
3.39033
3.3915
3.39301
3.39405
3.3954
3.39633
3.39752
3.39834
3.39939
3.40012
3.40104
3.40169
3.40254
3.40321
3.40423
3.40518
3.40569
3.40622
3.40655
3.40693
3.40719
3.40749
3.40769
3.40794
3.4081
3.40831
3.40844
3.4086
3.40871
3.40885
3.40893
3.40904
3.4091
3.40918
3.40923
3.40928
3.40931
3.40936
3.40939
3.40943
3.40945
3.40946
3.40947
3.40947
3.40945
3.40941
3.40937
3.40927
3.40917
3.40898
3.40877
3.40838
3.40792
3.40695
3.40555
3.40238
3.39797
3.39403
3.38747
3.38122
3.37123
3.36705
3.36581
3.36549
3.36542
3.15802
3.20199
3.22814
3.25374
3.26701
3.27972
3.28651
3.29337
3.29704
3.3008
3.3033
3.30675
3.30909
3.31226
3.31438
3.31723
3.31914
3.3217
3.32341
3.32569
3.3272
3.32922
3.33056
3.33234
3.33352
3.33508
3.33614
3.33758
3.33867
3.34039
3.34198
3.34282
3.34371
3.34425
3.3449
3.34531
3.34582
3.34615
3.34657
3.34684
3.34718
3.3474
3.34768
3.34785
3.34808
3.34822
3.3484
3.34851
3.34864
3.34871
3.3488
3.34886
3.34893
3.34898
3.34904
3.34908
3.34911
3.34912
3.34911
3.34909
3.34902
3.34894
3.34879
3.34862
3.3483
3.34797
3.34731
3.34655
3.34494
3.34267
3.33735
3.32992
3.32351
3.31243
3.3022
3.28513
3.27828
3.27631
3.27581
3.27569
3.0188
3.08376
3.11944
3.15592
3.17386
3.19194
3.20111
3.21089
3.21586
3.22118
3.22457
3.22951
3.23268
3.23721
3.2401
3.24418
3.24677
3.25043
3.25274
3.256
3.25806
3.26095
3.26276
3.26531
3.26691
3.26915
3.27058
3.27263
3.27411
3.27656
3.27881
3.27995
3.28121
3.28194
3.28287
3.28342
3.28416
3.28461
3.28521
3.28557
3.28606
3.28636
3.28675
3.28699
3.28731
3.28751
3.28776
3.28791
3.2881
3.2882
3.28832
3.2884
3.28851
3.28857
3.28866
3.28871
3.28875
3.28877
3.28876
3.28872
3.28863
3.28853
3.2883
3.28808
3.28763
3.28717
3.28624
3.28522
3.28296
3.27991
3.27241
3.26184
3.25317
3.23736
3.22345
3.19861
3.18932
3.18675
3.18611
3.18596
2.87697
2.96669
3.01071
3.05884
3.08069
3.10451
3.11568
3.12861
3.13466
3.14165
3.14578
3.15234
3.15622
3.16224
3.16576
3.17119
3.17435
3.17921
3.18203
3.18637
3.18888
3.19272
3.19494
3.19831
3.20027
3.20324
3.20499
3.20771
3.20951
3.21273
3.21569
3.21707
3.21874
3.21962
3.22085
3.22153
3.22251
3.22306
3.22386
3.2243
3.22495
3.22531
3.22584
3.22613
3.22656
3.22679
3.22713
3.22731
3.22756
3.22768
3.22784
3.22794
3.22808
3.22817
3.22828
3.22834
3.2284
3.22842
3.2284
3.22836
3.22824
3.22811
3.22782
3.22755
3.22695
3.22639
3.22517
3.22393
3.221
3.21732
3.20759
3.19367
3.18311
3.16221
3.14513
3.11148
3.10009
3.09711
3.09639
3.09622
2.73156
2.85145
2.90181
2.96281
2.98745
3.01759
3.03019
3.0466
3.05342
3.06223
3.06688
3.07528
3.07967
3.08736
3.09135
3.09828
3.10186
3.10807
3.11127
3.1168
3.11965
3.12455
3.12706
3.13138
3.13359
3.13738
3.13936
3.14282
3.14485
3.14891
3.15263
3.15418
3.15629
3.15729
3.15886
3.15963
3.16088
3.1615
3.16252
3.16302
3.16384
3.16425
3.16493
3.16526
3.1658
3.16607
3.1665
3.1667
3.16702
3.16717
3.16737
3.16747
3.16766
3.16776
3.1679
3.16797
3.16805
3.16807
3.16805
3.16801
3.16785
3.16771
3.16733
3.16703
3.16627
3.16565
3.1641
3.16272
3.15908
3.15498
3.14294
3.12538
3.11347
3.08692
3.06749
3.02345
3.01052
3.00738
3.00664
3.00648
2.58135
2.739
2.79248
2.86824
2.89399
2.93137
2.94454
2.96498
2.97211
2.98297
2.98784
2.99838
3.00298
3.01264
3.01682
3.02551
3.02927
3.03705
3.04041
3.04735
3.05033
3.05648
3.05912
3.06452
3.06684
3.0716
3.07367
3.07799
3.08011
3.08511
3.08966
3.09127
3.09389
3.09494
3.0969
3.09771
3.09928
3.09993
3.1012
3.10172
3.10276
3.10319
3.10403
3.10438
3.10506
3.10534
3.10588
3.1061
3.1065
3.10665
3.1069
3.10701
3.10725
3.10734
3.10753
3.1076
3.1077
3.10772
3.1077
3.10765
3.10746
3.10731
3.10685
3.10652
3.10558
3.10493
3.10303
3.10159
3.09718
3.09295
3.07851
3.05686
3.04442
3.01133
2.99082
2.93419
2.92056
2.91756
2.91688
2.91673
2.42483
2.63071
2.68227
2.77566
2.80007
2.84612
2.85861
2.88389
2.89064
2.90395
2.90858
2.92172
2.9261
2.93813
2.94211
2.95294
2.95651
2.96621
2.96941
2.97805
2.98089
2.98855
2.99106
2.9978
3
3.00592
3.00789
3.01325
3.01525
3.02133
3.0268
3.02832
3.03156
3.03255
3.03499
3.03576
3.03771
3.03832
3.03991
3.04041
3.0417
3.04211
3.04316
3.04349
3.04434
3.0446
3.04528
3.04548
3.04598
3.04612
3.04643
3.04654
3.04684
3.04693
3.04716
3.04722
3.04735
3.04737
3.04735
3.0473
3.04707
3.04693
3.04635
3.04605
3.04489
3.04427
3.04193
3.04058
3.03527
3.03134
3.01437
2.98797
2.97619
2.93524
2.9156
2.8432
2.83018
2.82764
2.82709
2.82697
2.26008
2.52859
2.57038
2.68585
2.70527
2.76222
2.77216
2.80354
2.80891
2.82528
2.82897
2.8454
2.84891
2.86394
2.86713
2.88065
2.88352
2.89563
2.89819
2.90899
2.91126
2.92083
2.92283
2.93125
2.93301
2.9404
2.94198
2.94864
2.95023
2.95757
2.9641
2.9653
2.96931
2.9701
2.97315
2.97376
2.97619
2.97669
2.97866
2.97906
2.98067
2.981
2.98231
2.98258
2.98364
2.98385
2.98469
2.98485
2.98548
2.98559
2.98597
2.98606
2.98643
2.98651
2.9868
2.98685
2.98701
2.98702
2.987
2.98696
2.98667
2.98656
2.98585
2.98561
2.98417
2.98368
2.9808
2.97973
2.9733
2.97024
2.9506
2.91849
2.90913
2.85831
2.84249
2.74983
2.73938
2.73765
2.73729
2.73721
2.08459
2.43554
2.45554
2.59987
2.60898
2.68019
2.68485
2.72422
2.72675
2.74712
2.74885
2.76961
2.77126
2.79023
2.79174
2.8088
2.81015
2.82543
2.82663
2.84026
2.84133
2.8534
2.85435
2.86497
2.8658
2.87512
2.87586
2.88424
2.88498
2.89384
2.90161
2.90217
2.90719
2.90756
2.9114
2.91169
2.91476
2.91499
2.91748
2.91767
2.9197
2.91985
2.92151
2.92163
2.92297
2.92307
2.92413
2.92421
2.925
2.92505
2.92553
2.92557
2.92604
2.92608
2.92645
2.92647
2.92667
2.92668
2.92665
2.92663
2.92627
2.92622
2.92532
2.92521
2.92341
2.92318
2.91959
2.9191
2.9112
2.90981
2.88733
2.8481
2.84373
2.77997
2.77245
2.65318
2.64823
2.6476
2.64747
2.64745
)
;

boundaryField
{
    F1_1
    {
        type            fixedValue;
        value           nonuniform List<scalar> 
80
(
1.99006
2.39615
2.39615
2.5607
2.5607
2.64288
2.64288
2.69049
2.69049
2.72069
2.72069
2.73807
2.73807
2.75715
2.75715
2.77535
2.77535
2.79208
2.79208
2.80721
2.80721
2.82071
2.82071
2.83263
2.83263
2.84313
2.84313
2.85257
2.85257
2.86229
2.87073
2.87073
2.87639
2.87639
2.88073
2.88073
2.8842
2.8842
2.88702
2.88702
2.88932
2.88932
2.8912
2.8912
2.89271
2.89271
2.89391
2.89391
2.89481
2.89481
2.89534
2.89534
2.89588
2.89588
2.8963
2.8963
2.89653
2.89653
2.89649
2.89649
2.89607
2.89607
2.89506
2.89506
2.89301
2.89301
2.88894
2.88894
2.88002
2.88002
2.85604
2.81222
2.81222
2.73967
2.73967
2.60257
2.60257
2.60257
2.60257
2.60257
)
;
    }
    F1_2
    {
        type            fixedValue;
        value           nonuniform List<scalar> 
80
(
1.96917
2.39537
2.39537
2.61989
2.61989
2.76975
2.76975
2.8813
2.8813
2.96492
2.96492
3.0172
3.0172
3.0749
3.0749
3.12921
3.12921
3.17798
3.17798
3.22091
3.22091
3.25838
3.25838
3.29099
3.29099
3.31949
3.31949
3.3452
3.3452
3.37209
3.39602
3.39602
3.41272
3.41272
3.42601
3.42601
3.43706
3.43706
3.4464
3.4464
3.45432
3.45432
3.46103
3.46103
3.4667
3.4667
3.4714
3.4714
3.47511
3.47511
3.47749
3.47749
3.48015
3.48015
3.48267
3.48267
3.48495
3.48495
3.48695
3.48695
3.4887
3.4887
3.49018
3.49018
3.49135
3.49135
3.4919
3.4919
3.49058
3.49058
3.4819
3.46018
3.46018
3.41358
3.41358
3.30704
3.30704
3.30704
3.30704
3.30704
)
;
    }
    F1_3
    {
        type            fixedValue;
        value           nonuniform List<scalar> 
80
(
1.96917
2.39537
2.39537
2.61989
2.61989
2.76975
2.76975
2.8813
2.8813
2.96491
2.96491
3.0172
3.0172
3.0749
3.0749
3.12921
3.12921
3.17798
3.17798
3.22091
3.22091
3.25838
3.25838
3.29099
3.29099
3.31949
3.31949
3.3452
3.3452
3.37209
3.39602
3.39602
3.41272
3.41272
3.42601
3.42601
3.43706
3.43706
3.4464
3.4464
3.45432
3.45432
3.46103
3.46103
3.4667
3.4667
3.4714
3.4714
3.47511
3.47511
3.47749
3.47749
3.48015
3.48015
3.48267
3.48267
3.48495
3.48495
3.48695
3.48695
3.4887
3.4887
3.49018
3.49018
3.49135
3.49135
3.4919
3.4919
3.49058
3.49058
3.4819
3.46018
3.46018
3.41358
3.41358
3.30704
3.30704
3.30704
3.30704
3.30704
)
;
    }
    F1_4
    {
        type            fixedValue;
        value           nonuniform List<scalar> 
80
(
1.98983
2.39564
2.39564
2.55959
2.55959
2.6405
2.6405
2.68531
2.68531
2.70842
2.70842
2.73209
2.73209
2.75373
2.75373
2.77318
2.77318
2.79061
2.79061
2.80615
2.80615
2.81992
2.81992
2.83202
2.83202
2.84265
2.84265
2.85219
2.85219
2.862
2.87052
2.87052
2.87623
2.87623
2.8806
2.8806
2.88409
2.88409
2.88693
2.88693
2.88925
2.88925
2.89114
2.89114
2.89266
2.89266
2.89387
2.89387
2.89477
2.89477
2.89531
2.89531
2.89586
2.89586
2.89628
2.89628
2.89651
2.89651
2.89648
2.89648
2.89606
2.89606
2.89505
2.89505
2.893
2.893
2.88893
2.88893
2.88001
2.88001
2.85603
2.81221
2.81221
2.73967
2.73967
2.60256
2.60256
2.60256
2.60256
2.60256
)
;
    }
    F2_1
    {
        type            fixedValue;
        value           uniform 3.5;
    }
    F2_2
    {
        type            fixedValue;
        value           uniform 3.5;
    }
    F2_3
    {
        type            fixedValue;
        value           uniform 3.5;
    }
    F2_4
    {
        type            fixedValue;
        value           uniform 3.5;
    }
    defaultFaces
    {
        type            empty;
    }
}


// ************************************************************************* //
