/*--------------------------------*- C++ -*----------------------------------*\
| =========                 |                                                 |
| \\      /  F ield         | OpenFOAM: The Open Source CFD Toolbox           |
|  \\    /   O peration     | Version:  5.x                                   |
|   \\  /    A nd           | Web:      www.OpenFOAM.org                      |
|    \\/     M anipulation  |                                                 |
\*---------------------------------------------------------------------------*/
FoamFile
{
    version     2.0;
    format      ascii;
    class       volScalarField;
    location    "9.9";
    object      gradTy;
}
// * * * * * * * * * * * * * * * * * * * * * * * * * * * * * * * * * * * * * //

dimensions      [0 -1 0 1 0 0 0];

internalField   nonuniform List<scalar> 
3200
(
18.2483
8.63558
11.7295
8.31218
9.74953
8.0396
8.79377
7.79256
8.24144
7.60062
7.87602
7.51714
7.7276
7.31728
7.52952
7.13926
7.33843
6.97989
7.16164
6.83776
7.00107
6.71216
6.85722
6.60213
6.73012
6.50601
6.62024
6.42065
6.53561
6.36653
6.23143
6.31855
6.20012
6.25774
6.16564
6.21026
6.13633
6.17222
6.11214
6.14131
6.09231
6.11608
6.07618
6.09546
6.06321
6.07863
6.05311
6.06498
6.04591
6.05407
6.04302
6.04914
6.03761
6.04297
6.03408
6.03768
6.0328
6.03382
6.03452
6.03183
6.04061
6.03225
6.05363
6.03579
6.07859
6.04273
6.12648
6.0483
6.22313
6.00069
6.29312
7.10895
6.42159
7.94784
6.78063
9.89664
9.12593
9.00807
8.98374
8.9785
17.0088
9.75149
11.3319
8.77617
9.54678
8.2698
8.67355
7.9251
8.16429
7.68483
7.83187
7.564
7.67616
7.36876
7.48088
7.18854
7.29384
7.02528
7.12142
6.87883
6.96522
6.74884
6.82559
6.63454
6.70229
6.53448
6.59511
6.44584
6.50816
6.37032
6.2563
6.30418
6.21573
6.24645
6.17752
6.20118
6.14582
6.16483
6.11984
6.13529
6.0986
6.11118
6.0813
6.09151
6.06736
6.07552
6.0564
6.06268
6.04839
6.05273
6.04447
6.04772
6.03908
6.04191
6.03524
6.03713
6.03347
6.034
6.03451
6.03306
6.03962
6.03515
6.05113
6.04158
6.07355
6.05424
6.11668
6.07388
6.20333
6.07611
6.35161
6.99363
6.62345
7.76515
7.15808
9.50327
9.09977
9.00428
8.98293
8.97824
16.0595
10.5138
11.0997
9.10704
9.42589
8.43271
8.59937
8.01808
8.11583
7.74393
7.80428
7.5956
7.64144
7.40341
7.44837
7.22185
7.26416
7.05604
7.09469
6.90669
6.94144
6.77374
6.80463
6.65656
6.68385
6.55377
6.57834
6.46253
6.48869
6.37313
6.27468
6.29524
6.22655
6.23912
6.18566
6.19523
6.15231
6.15998
6.12511
6.13133
6.10289
6.10796
6.0848
6.08891
6.07019
6.07348
6.05866
6.06119
6.05011
6.05188
6.04545
6.04677
6.04008
6.04121
6.03605
6.0368
6.03397
6.03417
6.03457
6.03397
6.03907
6.03723
6.04964
6.0457
6.07054
6.06248
6.11107
6.09256
6.1938
6.13541
6.39544
6.91881
6.76484
7.65242
7.41745
9.21988
9.06134
8.99757
8.98149
8.97784
15.3321
11.0309
10.9706
9.34546
9.35747
8.54922
8.55511
8.08391
8.08616
7.78573
7.78744
7.61702
7.61809
7.42675
7.42672
7.24442
7.24449
7.07693
7.07703
6.92565
6.92576
6.79071
6.79082
6.67156
6.6717
6.56687
6.56718
6.47354
6.47488
6.37525
6.28829
6.28986
6.23411
6.23442
6.19128
6.19138
6.15678
6.15683
6.12873
6.12876
6.10584
6.10587
6.08721
6.08723
6.07215
6.07216
6.06023
6.06023
6.05132
6.05135
6.04612
6.04614
6.04077
6.04076
6.03662
6.03661
6.03434
6.03433
6.03468
6.03465
6.03879
6.03873
6.0488
6.04866
6.06886
6.06846
6.10815
6.10646
6.19065
6.18198
6.42874
6.87109
6.86457
7.5846
7.59533
9.01493
9.01911
8.98895
8.97956
8.9773
14.7766
11.3783
10.9042
9.51839
9.32187
8.63317
8.52993
8.13079
8.06859
7.81545
7.77748
7.63159
7.60242
7.44243
7.41236
7.25969
7.23152
7.09111
7.06543
6.93854
6.91548
6.80226
6.78179
6.68179
6.66374
6.57577
6.55978
6.48074
6.46511
6.37687
6.29836
6.28678
6.23944
6.23147
6.19518
6.18892
6.15986
6.15481
6.13122
6.12711
6.10788
6.10453
6.08887
6.08615
6.0735
6.07132
6.06132
6.05964
6.05218
6.05104
6.04658
6.04572
6.04125
6.04048
6.03702
6.03651
6.03462
6.03447
6.03479
6.03516
6.03868
6.03983
6.04837
6.05082
6.06799
6.07283
6.10688
6.11692
6.19121
6.21832
6.45422
6.84132
6.93524
7.54514
7.71686
8.86661
8.97825
8.97951
8.97735
8.97666
14.3571
11.6088
10.8742
9.64374
9.30595
8.6937
8.51659
8.1642
8.05866
7.83657
7.77184
7.64148
7.59199
7.45291
7.4029
7.26998
7.22305
7.1007
7.05788
6.94728
6.90881
6.81011
6.77594
6.68873
6.65859
6.58179
6.5549
6.48541
6.45824
6.37809
6.30575
6.28513
6.24319
6.22964
6.19787
6.18736
6.16198
6.15353
6.13294
6.12606
6.10927
6.10368
6.09001
6.08547
6.07443
6.0708
6.06207
6.05927
6.05278
6.05086
6.04689
6.04545
6.04157
6.04031
6.03731
6.03646
6.03484
6.0346
6.03491
6.03554
6.03867
6.04063
6.04819
6.05238
6.06762
6.07603
6.10657
6.12481
6.19366
6.24632
6.47364
6.82327
6.98528
7.52322
7.79926
8.7598
8.94181
8.9702
8.97507
8.976
14.0476
11.7587
10.864
9.73339
9.301
8.73683
8.51026
8.18773
8.05339
7.85139
7.76883
7.64814
7.58515
7.45983
7.39676
7.27682
7.21759
7.10711
7.05304
6.95313
6.90455
6.81537
6.77221
6.6934
6.6553
6.58581
6.55173
6.48839
6.4535
6.379
6.31107
6.28433
6.2458
6.22855
6.19971
6.18641
6.16343
6.15274
6.1341
6.12541
6.11022
6.10315
6.09079
6.08505
6.07507
6.07047
6.06259
6.05906
6.0532
6.05076
6.04711
6.04528
6.0418
6.0402
6.03751
6.03644
6.035
6.0347
6.03501
6.03582
6.0387
6.04121
6.04814
6.0535
6.06752
6.07834
6.10676
6.13067
6.19676
6.26733
6.48818
6.81274
7.02027
7.51177
7.85428
8.68414
8.91151
8.96183
8.97295
8.97537
13.8296
11.8529
10.8633
9.79511
9.30133
8.76645
8.50777
8.20373
8.05082
7.86143
7.76734
7.65249
7.58079
7.46426
7.39289
7.28124
7.21418
7.11126
7.05003
6.95694
6.9019
6.8188
6.7699
6.69643
6.65326
6.58841
6.54972
6.49023
6.45033
6.37965
6.31475
6.284
6.24756
6.22791
6.20093
6.18584
6.16438
6.15226
6.13487
6.12502
6.11085
6.10283
6.0913
6.08479
6.07548
6.07028
6.06294
6.05893
6.05348
6.05071
6.04725
6.04517
6.04194
6.04014
6.03765
6.03644
6.03511
6.03478
6.03509
6.03602
6.03874
6.04161
6.04816
6.05427
6.06755
6.07996
6.10713
6.13485
6.19968
6.28233
6.49856
6.80688
7.0439
7.50628
7.88982
8.63258
8.8883
8.95502
8.97119
8.97484
13.6906
11.9076
10.8657
9.83386
9.3033
8.78502
8.50708
8.21369
8.04972
7.86765
7.76668
7.65511
7.57823
7.46689
7.39063
7.28387
7.21221
7.11374
7.04829
6.95921
6.90039
6.82085
6.76858
6.69825
6.65209
6.58997
6.54855
6.49129
6.4484
6.38007
6.31706
6.2839
6.24865
6.22757
6.20167
6.18552
6.16495
6.152
6.13533
6.1248
6.11123
6.10265
6.09161
6.08465
6.07574
6.07018
6.06315
6.05887
6.05365
6.05068
6.04733
6.04511
6.04203
6.04011
6.03773
6.03645
6.03518
6.03483
6.03515
6.03615
6.03879
6.04186
6.04819
6.05476
6.06762
6.08098
6.10747
6.13754
6.20189
6.29199
6.50527
6.80387
7.05852
7.50395
7.91098
8.6005
8.87265
8.95024
8.96992
8.97446
13.623
11.9326
10.8676
9.85255
9.30478
8.79397
8.50702
8.21846
8.04934
7.87063
7.76645
7.65634
7.57704
7.4681
7.38959
7.2851
7.21131
7.1149
7.0475
6.96028
6.8997
6.82181
6.76798
6.69911
6.65156
6.5907
6.54801
6.49176
6.44748
6.38028
6.31817
6.28389
6.24917
6.22743
6.20202
6.18538
6.16523
6.15188
6.13555
6.1247
6.11141
6.10257
6.09175
6.08459
6.07586
6.07013
6.06324
6.05884
6.05373
6.05067
6.04737
6.04508
6.04207
6.0401
6.03777
6.03645
6.03522
6.03486
6.03518
6.03621
6.03881
6.04198
6.04821
6.055
6.06767
6.08147
6.10767
6.13886
6.20307
6.29671
6.50855
6.80263
7.06551
7.50315
7.92084
8.58511
8.86478
8.94778
8.96926
8.97426
-13.7633
-11.9578
-10.7288
-9.38962
-8.57922
-7.68738
-7.12543
-6.47355
-6.05851
-5.57642
-5.28296
-4.95731
-4.71968
-4.39113
-4.15542
-3.84367
-3.6258
-3.34455
-3.15025
-2.90205
-2.73146
-2.51455
-2.36571
-2.17667
-2.04662
-1.88061
-1.76401
-1.60995
-1.48748
-1.29973
-1.12393
-1.02527
-0.922872
-0.857497
-0.779341
-0.727182
-0.662651
-0.619091
-0.564693
-0.527852
-0.481718
-0.450465
-0.411335
-0.384889
-0.351889
-0.329759
-0.302439
-0.284533
-0.263117
-0.2499
-0.234996
-0.224019
-0.208727
-0.19771
-0.183078
-0.172827
-0.15956
-0.150385
-0.138654
-0.130605
-0.120401
-0.11348
-0.104845
-0.0992248
-0.0926582
-0.0892994
-0.0872519
-0.0906894
-0.104935
-0.138839
-0.228902
-0.374973
-0.529522
-0.815959
-1.11859
-1.62768
-1.84304
-1.90704
-1.92361
-1.92746
-13.8356
-11.9348
-10.7332
-9.36848
-8.58248
-7.67419
-7.12903
-6.46408
-6.0612
-5.56887
-5.28426
-4.9538
-4.72332
-4.38742
-4.15846
-3.83992
-3.62834
-3.34107
-3.15241
-2.89895
-2.73332
-2.51183
-2.36732
-2.17432
-2.04806
-1.87864
-1.76551
-1.60869
-1.49009
-1.29926
-1.12085
-1.02542
-0.921394
-0.858011
-0.778303
-0.727679
-0.661814
-0.619527
-0.563993
-0.528225
-0.481125
-0.450782
-0.41083
-0.385152
-0.351456
-0.329968
-0.302064
-0.284675
-0.262791
-0.249969
-0.23484
-0.224192
-0.208558
-0.197855
-0.182904
-0.172949
-0.159398
-0.150488
-0.138508
-0.130692
-0.12027
-0.113549
-0.104725
-0.0992634
-0.0925306
-0.0892476
-0.0870331
-0.0902577
-0.104149
-0.136594
-0.226662
-0.374634
-0.524246
-0.815311
-1.11034
-1.63943
-1.8491
-1.90893
-1.92411
-1.92761
-13.9838
-11.8838
-10.7442
-9.32419
-8.59064
-7.64648
-7.13743
-6.44414
-6.06747
-5.55303
-5.28739
-4.94628
-4.73118
-4.37944
-4.1651
-3.83189
-3.63391
-3.33366
-3.15717
-2.89234
-2.73741
-2.50603
-2.37088
-2.1693
-2.05123
-1.87441
-1.76876
-1.60591
-1.4956
-1.29829
-1.11445
-1.02592
-0.918292
-0.85918
-0.776105
-0.728789
-0.660036
-0.620495
-0.562504
-0.529055
-0.479863
-0.451485
-0.409755
-0.385739
-0.350536
-0.330435
-0.30127
-0.284998
-0.262103
-0.250131
-0.234506
-0.224567
-0.208192
-0.198172
-0.182531
-0.173215
-0.15905
-0.150715
-0.138196
-0.130884
-0.119992
-0.113704
-0.104472
-0.0993536
-0.0922657
-0.0891538
-0.0865974
-0.0893999
-0.102622
-0.132043
-0.222106
-0.37423
-0.513313
-0.814505
-1.09271
-1.66396
-1.86114
-1.91262
-1.92509
-1.92791
-14.2161
-11.7943
-10.7663
-9.25244
-8.60722
-7.60136
-7.15321
-6.41153
-6.07926
-5.52724
-5.29354
-4.93374
-4.74451
-4.36596
-4.17649
-3.81846
-3.64358
-3.3213
-3.16546
-2.88134
-2.74457
-2.4964
-2.3771
-2.16094
-2.05676
-1.86735
-1.77431
-1.60102
-1.50459
-1.29678
-1.10424
-1.02719
-0.913253
-0.861311
-0.772479
-0.730758
-0.657093
-0.622203
-0.560036
-0.530515
-0.477771
-0.452724
-0.407974
-0.386774
-0.349014
-0.331266
-0.299962
-0.285587
-0.26098
-0.250441
-0.233947
-0.2252
-0.207573
-0.198715
-0.181907
-0.173677
-0.158471
-0.151111
-0.137677
-0.131221
-0.119532
-0.113977
-0.104055
-0.0995234
-0.0918426
-0.0890385
-0.0859481
-0.088126
-0.100447
-0.125068
-0.215068
-0.374347
-0.495895
-0.814618
-1.06337
-1.70345
-1.87902
-1.91786
-1.92645
-1.92831
-14.5452
-11.6492
-10.8079
-9.14596
-8.63824
-7.53395
-7.18073
-6.36255
-6.09984
-5.48872
-5.30475
-4.91438
-4.76543
-4.34493
-4.19463
-3.79771
-3.65915
-3.30229
-3.17889
-2.86446
-2.75619
-2.48161
-2.38719
-2.14811
-2.0657
-1.85644
-1.78307
-1.59307
-1.51804
-1.29467
-1.08942
-1.02993
-0.905737
-0.86492
-0.766971
-0.734008
-0.652601
-0.625005
-0.556264
-0.532907
-0.474573
-0.454753
-0.405252
-0.388474
-0.346693
-0.332642
-0.297978
-0.286588
-0.259296
-0.250991
-0.233078
-0.22619
-0.206605
-0.199577
-0.18094
-0.174419
-0.157579
-0.15175
-0.136879
-0.131767
-0.118826
-0.114425
-0.103423
-0.09982
-0.0912252
-0.0889354
-0.0850887
-0.086447
-0.0977812
-0.115478
-0.205259
-0.375975
-0.470591
-0.817529
-1.01838
-1.76151
-1.90236
-1.92431
-1.92808
-1.92879
-14.9902
-11.4218
-10.8824
-8.99331
-8.69313
-7.4365
-7.22685
-6.29136
-6.13436
-5.43312
-5.32421
-4.88536
-4.7972
-4.3131
-4.22265
-3.76663
-3.68346
-3.27394
-3.19997
-2.83932
-2.77447
-2.45961
-2.40308
-2.12901
-2.07972
-1.84009
-1.79649
-1.58052
-1.53743
-1.29184
-1.06877
-1.03527
-0.894889
-0.870818
-0.758867
-0.739197
-0.645959
-0.629454
-0.550679
-0.536701
-0.469837
-0.457972
-0.401223
-0.391176
-0.343265
-0.334844
-0.295064
-0.288226
-0.256853
-0.251926
-0.23177
-0.227689
-0.205136
-0.200905
-0.17949
-0.175574
-0.156248
-0.152752
-0.135693
-0.132628
-0.11778
-0.115139
-0.102496
-0.100317
-0.0903563
-0.0888953
-0.0840218
-0.0843697
-0.0948611
-0.103005
-0.192214
-0.380646
-0.435194
-0.826285
-0.951687
-1.84367
-1.93046
-1.93149
-1.92983
-1.9293
-15.5779
-11.0733
-11.0108
-8.77711
-8.78628
-7.29717
-7.30201
-6.18904
-6.19066
-5.35383
-5.35688
-4.84233
-4.84483
-4.26552
-4.26529
-3.72064
-3.72082
-3.23218
-3.23252
-2.80237
-2.80274
-2.42729
-2.42767
-2.10093
-2.10135
-1.81591
-1.81682
-1.56106
-1.56492
-1.28811
-1.04053
-1.04488
-0.879392
-0.880233
-0.747074
-0.747333
-0.63625
-0.636397
-0.542504
-0.542612
-0.462903
-0.462987
-0.395329
-0.395394
-0.338258
-0.338301
-0.290835
-0.290847
-0.253354
-0.253472
-0.229821
-0.229928
-0.202935
-0.202921
-0.177341
-0.177348
-0.154284
-0.154298
-0.133947
-0.133961
-0.116247
-0.116253
-0.101151
-0.101126
-0.0891482
-0.0889925
-0.0827468
-0.0818872
-0.0920356
-0.0872903
-0.1752
-0.390673
-0.386335
-0.845668
-0.854335
-1.95804
-1.96199
-1.93878
-1.93153
-1.92979
-16.3459
-10.5471
-11.2261
-8.47119
-8.93937
-7.0981
-7.42189
-6.04214
-6.2805
-5.24096
-5.41026
-4.77861
-4.91573
-4.19479
-4.32971
-3.65287
-3.77774
-3.17086
-3.28229
-2.74819
-2.84606
-2.37995
-2.46535
-2.05976
-2.13443
-1.78027
-1.84742
-1.53122
-1.60364
-1.28321
-1.00223
-1.06129
-0.857244
-0.89501
-0.729946
-0.759924
-0.622094
-0.647104
-0.530571
-0.551717
-0.452779
-0.470715
-0.386727
-0.401902
-0.330967
-0.343661
-0.284708
-0.294969
-0.248353
-0.255971
-0.226922
-0.233253
-0.199656
-0.205961
-0.17417
-0.180045
-0.151398
-0.15666
-0.131388
-0.136004
-0.114006
-0.117973
-0.0992039
-0.102414
-0.087468
-0.0893339
-0.081257
-0.0789651
-0.0898064
-0.0678698
-0.153083
-0.409493
-0.318929
-0.883077
-0.713182
-2.1164
-1.9946
-1.94542
-1.93302
-1.9302
-17.3457
-9.76177
-11.5787
-8.03637
-9.18484
-6.81242
-7.60991
-5.83051
-6.42146
-5.07973
-5.49568
-4.68415
-5.02095
-4.08983
-4.4266
-3.55303
-3.86394
-3.08081
-3.35789
-2.66874
-2.91194
-2.31054
-2.52268
-1.99939
-2.18466
-1.72779
-1.89335
-1.48583
-1.65808
-1.27674
-0.950323
-1.08823
-0.825426
-0.917904
-0.70502
-0.77923
-0.601428
-0.663475
-0.513134
-0.565629
-0.437981
-0.482521
-0.37416
-0.411856
-0.320332
-0.351888
-0.275814
-0.301368
-0.241183
-0.259937
-0.22261
-0.238176
-0.194782
-0.210527
-0.169494
-0.184124
-0.147157
-0.160244
-0.127634
-0.139113
-0.110727
-0.120603
-0.0963785
-0.104429
-0.085116
-0.0900739
-0.0795365
-0.0755183
-0.088889
-0.0441638
-0.124119
-0.442191
-0.225336
-0.949848
-0.509104
-2.33575
-2.02431
-1.9506
-1.93412
-1.93051
-18.6493
-8.60072
-12.146
-7.4142
-9.57144
-6.40025
-7.90132
-5.52438
-6.64003
-4.8485
-5.6305
-4.54406
-5.1772
-3.93444
-4.57221
-3.4061
-3.99418
-2.94863
-3.47242
-2.55226
-3.01187
-2.20884
-2.60967
-1.91091
-2.26081
-1.65064
-1.96243
-1.41747
-1.73487
-1.26827
-0.880022
-1.13137
-0.77956
-0.953175
-0.668759
-0.808766
-0.571304
-0.688479
-0.487709
-0.586872
-0.416413
-0.50056
-0.355858
-0.427086
-0.304871
-0.364518
-0.262945
-0.311287
-0.230939
-0.26623
-0.21626
-0.245536
-0.187617
-0.217437
-0.162658
-0.190335
-0.140977
-0.165718
-0.122174
-0.143874
-0.10597
-0.124649
-0.0923101
-0.107587
-0.081837
-0.0914774
-0.0775945
-0.0714153
-0.0903291
-0.0155044
-0.0856549
-0.496297
-0.0940967
-1.06322
-0.214323
-2.64061
-2.04449
-1.95346
-1.93468
-1.93064
18.6493
8.60071
12.146
7.4142
9.57144
6.40025
7.90132
5.52438
6.64003
4.8485
5.6305
4.54406
5.17719
3.93444
4.57221
3.40609
3.99418
2.94863
3.47242
2.55226
3.01187
2.20884
2.60967
1.91091
2.26081
1.65064
1.96243
1.41747
1.73487
1.26827
0.880021
1.13137
0.779559
0.953174
0.668758
0.808766
0.571303
0.688479
0.487709
0.586872
0.416412
0.50056
0.355857
0.427086
0.30487
0.364518
0.262945
0.311287
0.230938
0.26623
0.21626
0.245536
0.187616
0.217437
0.162658
0.190335
0.140976
0.165718
0.122174
0.143874
0.10597
0.124649
0.0923099
0.107587
0.0818368
0.0914774
0.0775943
0.0714154
0.0903289
0.0155046
0.0856547
0.496296
0.0940967
1.06322
0.214323
2.64061
2.04449
1.95346
1.93468
1.93064
17.3457
9.76177
11.5787
8.03637
9.18484
6.81243
7.60992
5.83052
6.42146
5.07974
5.49568
4.68416
5.02096
4.08983
4.42661
3.55303
3.86394
3.08082
3.3579
2.66875
2.91195
2.31054
2.52268
1.99939
2.18466
1.7278
1.89335
1.48584
1.65808
1.27675
0.950325
1.08823
0.825428
0.917906
0.705021
0.779232
0.601429
0.663476
0.513135
0.56563
0.437983
0.482523
0.374161
0.411857
0.320332
0.351889
0.275815
0.301369
0.241184
0.259938
0.222611
0.238177
0.194783
0.210528
0.169494
0.184125
0.147158
0.160245
0.127635
0.139114
0.110728
0.120604
0.0963791
0.10443
0.0851166
0.0900745
0.079537
0.0755189
0.0888894
0.0441643
0.12412
0.442191
0.225336
0.949847
0.509104
2.33575
2.02431
1.9506
1.93412
1.93051
16.3459
10.5471
11.2261
8.4712
8.93938
7.0981
7.4219
6.04214
6.28051
5.24096
5.41027
4.77862
4.91573
4.1948
4.32971
3.65288
3.77775
3.17087
3.2823
2.7482
2.84607
2.37995
2.46536
2.05977
2.13443
1.78028
1.84742
1.53122
1.60364
1.28322
1.00223
1.06129
0.857248
0.895014
0.72995
0.759927
0.622097
0.647107
0.530574
0.55172
0.452781
0.470717
0.386729
0.401904
0.330969
0.343663
0.28471
0.294971
0.248355
0.255973
0.226924
0.233255
0.199658
0.205963
0.174172
0.180047
0.1514
0.156661
0.131389
0.136006
0.114007
0.117974
0.0992051
0.102416
0.0874691
0.0893351
0.081258
0.0789661
0.0898073
0.0678706
0.153084
0.409493
0.31893
0.883076
0.713182
2.1164
1.9946
1.94542
1.93302
1.9302
15.578
11.0733
11.0108
8.77711
8.78629
7.29718
7.30202
6.18905
6.19067
5.35384
5.35689
4.84233
4.84483
4.26553
4.26529
3.72065
3.72083
3.23219
3.23253
2.80237
2.80275
2.4273
2.42768
2.10093
2.10136
1.81591
1.81682
1.56106
1.56492
1.28812
1.04054
1.04488
0.879396
0.880237
0.747078
0.747337
0.636254
0.636401
0.542507
0.542615
0.462906
0.462991
0.395331
0.395397
0.338261
0.338304
0.290837
0.290849
0.253357
0.253475
0.229823
0.229931
0.202937
0.202923
0.177343
0.17735
0.154286
0.1543
0.133949
0.133963
0.116249
0.116255
0.101152
0.101128
0.0891496
0.0889938
0.082748
0.0818884
0.0920367
0.0872912
0.1752
0.390673
0.386335
0.845667
0.854335
1.95804
1.96199
1.93878
1.93153
1.92979
14.9902
11.4218
10.8824
8.99332
8.69314
7.43651
7.22686
6.29137
6.13437
5.43313
5.32422
4.88537
4.79721
4.31311
4.22266
3.76664
3.68346
3.27395
3.19998
2.83933
2.77447
2.45962
2.40309
2.12902
2.07972
1.8401
1.7965
1.58053
1.53743
1.29185
1.06877
1.03527
0.894894
0.870822
0.758871
0.739202
0.645963
0.629458
0.550682
0.536704
0.46984
0.457975
0.401226
0.391179
0.343268
0.334846
0.295067
0.288228
0.256856
0.251929
0.231773
0.227691
0.205138
0.200907
0.179492
0.175577
0.156249
0.152754
0.135694
0.13263
0.117782
0.11514
0.102497
0.100319
0.0903577
0.0888967
0.0840231
0.0843709
0.0948623
0.103006
0.192214
0.380646
0.435194
0.826285
0.951687
1.84367
1.93046
1.93149
1.92983
1.9293
14.5452
11.6492
10.8079
9.14597
8.63825
7.53396
7.18073
6.36256
6.09985
5.48873
5.30476
4.91439
4.76543
4.34494
4.19464
3.79772
3.65916
3.3023
3.1789
2.86446
2.7562
2.48161
2.3872
2.14811
2.06571
1.85644
1.78307
1.59307
1.51805
1.29468
1.08942
1.02994
0.905742
0.864925
0.766976
0.734012
0.652605
0.625009
0.556267
0.532911
0.474577
0.454757
0.405255
0.388477
0.346696
0.332645
0.29798
0.28659
0.259298
0.250994
0.233081
0.226192
0.206607
0.199579
0.180942
0.174421
0.157581
0.151752
0.136881
0.131769
0.118828
0.114427
0.103424
0.0998215
0.0912266
0.0889368
0.08509
0.0864483
0.0977823
0.115479
0.20526
0.375975
0.470591
0.817529
1.01837
1.76151
1.90236
1.92431
1.92808
1.92879
14.2161
11.7943
10.7663
9.25245
8.60723
7.60137
7.15321
6.41154
6.07927
5.52725
5.29355
4.93375
4.74452
4.36597
4.1765
3.81847
3.64359
3.32131
3.16547
2.88135
2.74458
2.4964
2.3771
2.16095
2.05677
1.86736
1.77431
1.60103
1.5046
1.29679
1.10425
1.02719
0.913258
0.861316
0.772484
0.730762
0.657097
0.622207
0.560039
0.530519
0.477775
0.452727
0.407977
0.386777
0.349017
0.331269
0.299964
0.28559
0.260983
0.250444
0.233949
0.225202
0.207575
0.198717
0.181909
0.173679
0.158473
0.151113
0.137678
0.131222
0.119533
0.113978
0.104056
0.0995249
0.091844
0.0890399
0.0859494
0.0881273
0.100448
0.125069
0.215069
0.374348
0.495896
0.814618
1.06337
1.70345
1.87902
1.91786
1.92645
1.92831
13.9838
11.8838
10.7442
9.32419
8.59064
7.64648
7.13744
6.44414
6.06748
5.55304
5.2874
4.94629
4.73119
4.37944
4.16511
3.8319
3.63392
3.33367
3.15718
2.89235
2.73742
2.50604
2.37089
2.1693
2.05124
1.87442
1.76877
1.60591
1.49561
1.29829
1.11446
1.02593
0.918297
0.859185
0.776109
0.728793
0.66004
0.620499
0.562507
0.529058
0.479867
0.451488
0.409758
0.385742
0.350539
0.330438
0.301272
0.285
0.262106
0.250134
0.234509
0.224569
0.208194
0.198174
0.182533
0.173217
0.159052
0.150717
0.138198
0.130886
0.119994
0.113705
0.104473
0.0993551
0.0922671
0.0891552
0.0865987
0.0894012
0.102623
0.132045
0.222107
0.374231
0.513314
0.814505
1.09271
1.66396
1.86114
1.91262
1.92509
1.9279
13.8356
11.9348
10.7332
9.36848
8.58249
7.67419
7.12904
6.46409
6.06121
5.56888
5.28426
4.9538
4.72332
4.38743
4.15847
3.83992
3.62835
3.34108
3.15242
2.89896
2.73332
2.51184
2.36733
2.17432
2.04807
1.87864
1.76552
1.6087
1.4901
1.29926
1.12085
1.02543
0.921398
0.858015
0.778308
0.727683
0.661818
0.619531
0.563996
0.528229
0.481128
0.450785
0.410833
0.385155
0.351459
0.32997
0.302066
0.284677
0.262793
0.249971
0.234842
0.224194
0.20856
0.197857
0.182906
0.172951
0.159399
0.15049
0.13851
0.130694
0.120272
0.113551
0.104727
0.0992648
0.0925319
0.0892489
0.0870344
0.0902589
0.10415
0.136595
0.226663
0.374635
0.524247
0.815312
1.11034
1.63943
1.8491
1.90893
1.92411
1.92761
13.7633
11.9578
10.7288
9.38963
8.57922
7.68738
7.12544
6.47356
6.05852
5.57642
5.28297
4.95732
4.71968
4.39113
4.15542
3.84367
3.62581
3.34455
3.15026
2.90206
2.73147
2.51455
2.36572
2.17668
2.04662
1.88061
1.76401
1.60996
1.48748
1.29974
1.12394
1.02527
0.922876
0.857501
0.779345
0.727186
0.662654
0.619095
0.564696
0.527855
0.481721
0.450468
0.411338
0.384891
0.351892
0.329761
0.302441
0.284535
0.26312
0.249902
0.234998
0.224021
0.208729
0.197711
0.18308
0.172829
0.159562
0.150387
0.138656
0.130606
0.120402
0.113481
0.104847
0.0992262
0.0926595
0.0893006
0.0872531
0.0906906
0.104936
0.138841
0.228903
0.374974
0.529523
0.81596
1.11859
1.62768
1.84304
1.90704
1.9236
1.92746
-13.6265
-11.9375
-10.8745
-9.86308
-9.31947
-8.81664
-8.53878
-8.26762
-8.11707
-7.96831
-7.86572
-7.72991
-7.63422
-7.50954
-7.42255
-7.31022
-7.23209
-7.13146
-7.06164
-6.97193
-6.90987
-6.83041
-6.77561
-6.70567
-6.65745
-6.59581
-6.55262
-6.49578
-6.45105
-6.38321
-6.32054
-6.28596
-6.25095
-6.22904
-6.20343
-6.18667
-6.16636
-6.15291
-6.13647
-6.12554
-6.11215
-6.10325
-6.09236
-6.08514
-6.07635
-6.07058
-6.06365
-6.05921
-6.05407
-6.05098
-6.04766
-6.04535
-6.04232
-6.04033
-6.03798
-6.03664
-6.03539
-6.03502
-6.03532
-6.03634
-6.03893
-6.04209
-6.04831
-6.05509
-6.06775
-6.08155
-6.10774
-6.13892
-6.20312
-6.29676
-6.5086
-6.80266
-7.06554
-7.50318
-7.92087
-8.58514
-8.86481
-8.94781
-8.96928
-8.97428
-13.6941
-11.9125
-10.8724
-9.84437
-9.31784
-8.80764
-8.53851
-8.26279
-8.117
-7.96646
-7.86705
-7.72831
-7.63538
-7.50803
-7.42357
-7.30885
-7.23299
-7.13023
-7.06243
-6.97082
-6.91057
-6.82943
-6.77622
-6.7048
-6.65798
-6.59507
-6.55317
-6.49529
-6.45197
-6.383
-6.31942
-6.28598
-6.25043
-6.22919
-6.20308
-6.18681
-6.16609
-6.15303
-6.13625
-6.12564
-6.11197
-6.10333
-6.09221
-6.08521
-6.07623
-6.07063
-6.06355
-6.05924
-6.05398
-6.05099
-6.04762
-6.04538
-6.04228
-6.04034
-6.03794
-6.03664
-6.03536
-6.03499
-6.03529
-6.03628
-6.0389
-6.04197
-6.04829
-6.05485
-6.0677
-6.08105
-6.10754
-6.1376
-6.20195
-6.29204
-6.50531
-6.80391
-7.05855
-7.50398
-7.911
-8.60052
-8.87268
-8.95027
-8.96994
-8.97448
-13.8329
-11.8578
-10.8699
-9.80559
-9.31556
-8.789
-8.53851
-8.25277
-8.11711
-7.96257
-7.86995
-7.72487
-7.63792
-7.50481
-7.42579
-7.30592
-7.23496
-7.1276
-7.06418
-6.96846
-6.9121
-6.82732
-6.77755
-6.70294
-6.65916
-6.5935
-6.55435
-6.49422
-6.45392
-6.38258
-6.31709
-6.28608
-6.24933
-6.22953
-6.20233
-6.18713
-6.16551
-6.1533
-6.13578
-6.12586
-6.11159
-6.10351
-6.0919
-6.08535
-6.07597
-6.07074
-6.06333
-6.05931
-6.05381
-6.05102
-6.04754
-6.04544
-6.04219
-6.04038
-6.03785
-6.03664
-6.03528
-6.03494
-6.03523
-6.03615
-6.03886
-6.04172
-6.04826
-6.05437
-6.06764
-6.08003
-6.10719
-6.13491
-6.19974
-6.28238
-6.4986
-6.80691
-7.04393
-7.50631
-7.88984
-8.6326
-8.88833
-8.95505
-8.97121
-8.97486
-14.0507
-11.7636
-10.8704
-9.74385
-9.31473
-8.75931
-8.53991
-8.23674
-8.11798
-7.9562
-7.87495
-7.7191
-7.6423
-7.49942
-7.42965
-7.30104
-7.23839
-7.1232
-7.06722
-6.96453
-6.91477
-6.82381
-6.77988
-6.69985
-6.66122
-6.59085
-6.55637
-6.49236
-6.45711
-6.38192
-6.31338
-6.28641
-6.24756
-6.23017
-6.2011
-6.1877
-6.16455
-6.15378
-6.13501
-6.12626
-6.11096
-6.10383
-6.09138
-6.0856
-6.07555
-6.07093
-6.06299
-6.05943
-6.05353
-6.05107
-6.04739
-6.04555
-6.04204
-6.04044
-6.03772
-6.03664
-6.03517
-6.03486
-6.03515
-6.03595
-6.03882
-6.04132
-6.04824
-6.05359
-6.0676
-6.07842
-6.10683
-6.13073
-6.19682
-6.26738
-6.48822
-6.81277
-7.0203
-7.5118
-7.85431
-8.68416
-8.91154
-8.96185
-8.97298
-8.97539
-14.36
-11.6137
-10.8802
-9.6542
-9.31895
-8.71618
-8.54467
-8.21334
-8.12057
-7.9466
-7.88293
-7.71017
-7.64932
-7.4911
-7.43585
-7.29352
-7.24393
-7.11644
-7.07212
-6.95847
-6.91908
-6.81842
-6.78365
-6.69511
-6.66454
-6.58678
-6.55958
-6.48934
-6.4619
-6.38099
-6.30801
-6.28721
-6.24492
-6.23127
-6.19925
-6.18866
-6.16309
-6.15458
-6.13383
-6.12691
-6.11
-6.10436
-6.0906
-6.08603
-6.07491
-6.07125
-6.06247
-6.05965
-6.05311
-6.05117
-6.04718
-6.04573
-6.04182
-6.04054
-6.03751
-6.03666
-6.03501
-6.03476
-6.03505
-6.03567
-6.03878
-6.04074
-6.04829
-6.05247
-6.0677
-6.07611
-6.10664
-6.12487
-6.19372
-6.24637
-6.47368
-6.82331
-6.98531
-7.52325
-7.79929
-8.75983
-8.94183
-8.97022
-8.97509
-8.97602
-14.7792
-11.3832
-10.9098
-9.52893
-9.33388
-8.6558
-8.55581
-8.18039
-8.12641
-7.9326
-7.89528
-7.69677
-7.66024
-7.47866
-7.44555
-7.28229
-7.25257
-7.10636
-7.0798
-6.94944
-6.92584
-6.8104
-6.78957
-6.68804
-6.66975
-6.58068
-6.5645
-6.48462
-6.46883
-6.37975
-6.30055
-6.28887
-6.24114
-6.23311
-6.19654
-6.19023
-6.16096
-6.15587
-6.1321
-6.12797
-6.10859
-6.10522
-6.08945
-6.08671
-6.07397
-6.07178
-6.0617
-6.06001
-6.0525
-6.05135
-6.04686
-6.046
-6.04149
-6.04072
-6.03722
-6.0367
-6.03479
-6.03463
-6.03493
-6.03529
-6.0388
-6.03994
-6.04847
-6.05091
-6.06807
-6.0729
-6.10695
-6.11698
-6.19127
-6.21838
-6.45426
-6.84135
-6.93528
-7.54517
-7.71688
-8.86663
-8.97827
-8.97953
-8.97737
-8.97668
-15.3342
-11.0359
-10.9756
-9.35622
-9.36813
-8.57229
-8.57797
-8.13459
-8.13784
-7.91233
-7.91407
-7.67688
-7.67696
-7.46029
-7.46044
-7.26572
-7.26588
-7.09148
-7.09163
-6.93615
-6.93628
-6.79859
-6.79871
-6.67765
-6.67779
-6.57166
-6.57197
-6.47733
-6.47868
-6.37811
-6.29039
-6.29198
-6.23577
-6.23609
-6.19261
-6.19271
-6.15785
-6.15791
-6.12959
-6.12963
-6.10654
-6.10657
-6.08778
-6.0878
-6.07261
-6.07263
-6.06061
-6.06061
-6.05164
-6.05167
-6.0464
-6.04642
-6.04101
-6.041
-6.03682
-6.03681
-6.03451
-6.03449
-6.03481
-6.03478
-6.0389
-6.03884
-6.0489
-6.04876
-6.06893
-6.06854
-6.10821
-6.10652
-6.1907
-6.18203
-6.42878
-6.87112
-6.86461
-7.58462
-7.59536
-9.01496
-9.01913
-8.98898
-8.97959
-8.97732
-16.0611
-10.519
-11.1038
-9.11826
-9.43468
-8.45673
-8.6181
-8.07091
-8.15842
-7.88297
-7.94242
-7.64751
-7.70234
-7.43324
-7.48313
-7.24135
-7.28616
-7.06963
-7.10968
-6.91663
-6.95223
-6.78127
-6.81271
-6.6624
-6.69008
-6.55838
-6.58324
-6.4662
-6.49262
-6.37596
-6.27665
-6.29739
-6.22815
-6.24082
-6.18695
-6.19659
-6.15335
-6.16108
-6.12594
-6.13222
-6.10357
-6.10868
-6.08535
-6.08949
-6.07064
-6.07395
-6.05903
-6.06157
-6.05042
-6.0522
-6.04572
-6.04706
-6.04031
-6.04145
-6.03624
-6.037
-6.03413
-6.03433
-6.03471
-6.03411
-6.03918
-6.03734
-6.04973
-6.04579
-6.07062
-6.06256
-6.11113
-6.09263
-6.19385
-6.13547
-6.39548
-6.91884
-6.76488
-7.65245
-7.41748
-9.2199
-9.06136
-8.9976
-8.98152
-8.97787
-17.0097
-9.75701
-11.3348
-8.78823
-9.55301
-8.29559
-8.68656
-7.98185
-8.19352
-7.84021
-7.98494
-7.60414
-7.74068
-7.39344
-7.51749
-7.20551
-7.3169
-7.0375
-7.13706
-6.88796
-6.97643
-6.75585
-6.83397
-6.64004
-6.70875
-6.53884
-6.60019
-6.44933
-6.51227
-6.37311
-6.25812
-6.30641
-6.21724
-6.24821
-6.17874
-6.20258
-6.14681
-6.16596
-6.12064
-6.1362
-6.09925
-6.11192
-6.08183
-6.09211
-6.06779
-6.07601
-6.05675
-6.06308
-6.04868
-6.05306
-6.04474
-6.04802
-6.0393
-6.04216
-6.03542
-6.03734
-6.03363
-6.03417
-6.03464
-6.03321
-6.03973
-6.03527
-6.05121
-6.04168
-6.07362
-6.05433
-6.11673
-6.07395
-6.20338
-6.07616
-6.35165
-6.99366
-6.62348
-7.76517
-7.1581
-9.50329
-9.0998
-9.00431
-8.98295
-8.97827
-18.2483
-8.64177
-11.7307
-8.32568
-9.75217
-8.06846
-8.7988
-7.85609
-8.25117
-7.77749
-8.04843
-7.54003
-7.79833
-7.33473
-7.56923
-7.15269
-7.36322
-6.99018
-7.17833
-6.84574
-7.01296
-6.71843
-6.86606
-6.60713
-6.73691
-6.51001
-6.62558
-6.42386
-6.53997
-6.36926
-6.23301
-6.32089
-6.2015
-6.25959
-6.16677
-6.21173
-6.13725
-6.1734
-6.11288
-6.14227
-6.09292
-6.11686
-6.07667
-6.09609
-6.06361
-6.07914
-6.05344
-6.0654
-6.04618
-6.05441
-6.04327
-6.04944
-6.03782
-6.04323
-6.03425
-6.0379
-6.03295
-6.034
-6.03464
-6.03198
-6.04071
-6.03238
-6.05371
-6.0359
-6.07866
-6.04281
-6.12654
-6.04837
-6.22318
-6.00075
-6.29316
-7.10897
-6.42162
-7.94787
-6.78066
-9.89666
-9.12596
-9.0081
-8.98376
-8.97852
)
;

boundaryField
{
    F1_1
    {
        type            calculated;
        value           nonuniform List<scalar> 
80
(
18.9505
7.97328
11.9791
8.0408
9.87576
7.90455
8.8678
7.71453
8.28867
7.55107
7.90309
7.48913
7.7583
7.2865
7.55865
7.10986
7.36518
6.95281
7.18579
6.81327
7.02259
6.6903
6.87622
6.58282
6.74683
6.48902
6.6353
6.40551
6.55166
6.36433
6.2171
6.32736
6.19088
6.26457
6.15859
6.21574
6.13069
6.17667
6.10755
6.14494
6.08858
6.11903
6.07313
6.09784
6.06075
6.08051
6.05115
6.06638
6.04444
6.05489
6.04215
6.04998
6.03673
6.04361
6.03339
6.03801
6.03241
6.03373
6.03455
6.03111
6.04124
6.03056
6.05519
6.03241
6.08174
6.036
6.13266
6.03346
6.23617
5.95847
6.25958
7.17872
6.30273
8.06046
6.55697
10.1255
9.13463
9.00912
8.98398
8.97859
)
;
    }
    F1_2
    {
        type            calculated;
        value           nonuniform List<scalar> 
80
(
-19.3874
-7.9091
-12.4951
-7.04756
-9.80736
-6.1566
-8.07817
-5.34326
-6.77272
-4.71218
-5.7129
-4.4604
-5.27059
-3.84175
-4.65964
-3.31864
-4.07255
-2.87003
-3.5414
-2.48303
-3.07209
-2.14842
-2.66211
-1.85834
-2.30671
-1.60475
-2.00395
-1.37646
-1.77985
-1.26349
-0.839588
-1.15785
-0.752473
-0.974557
-0.647281
-0.826633
-0.553452
-0.703598
-0.472642
-0.599718
-0.403634
-0.511471
-0.345019
-0.436304
-0.295722