/*--------------------------------*- C++ -*----------------------------------*\
| =========                 |                                                 |
| \\      /  F ield         | OpenFOAM: The Open Source CFD Toolbox           |
|  \\    /   O peration     | Version:  5.x                                   |
|   \\  /    A nd           | Web:      www.OpenFOAM.org                      |
|    \\/     M anipulation  |                                                 |
\*---------------------------------------------------------------------------*/
FoamFile
{
    version     2.0;
    format      ascii;
    class       volScalarField;
    location    "8.7";
    object      gradTy;
}
// * * * * * * * * * * * * * * * * * * * * * * * * * * * * * * * * * * * * * //

dimensions      [0 -1 0 1 0 0 0];

internalField   nonuniform List<scalar> 
2048
(
-26.4236
-26.3961
-26.3417
-26.262
-26.1592
-26.0358
-25.8946
-25.7383
-25.5697
-25.3915
-25.206
-25.0154
-24.8215
-24.6262
-24.4309
-24.2368
-24.0452
-23.8569
-23.6727
-23.4932
-23.3188
-23.1498
-22.9866
-22.8294
-22.6784
-22.5338
-22.3959
-22.2651
-22.1417
-22.0262
-21.9193
-21.8214
-21.7333
-21.656
-21.5903
-21.5372
-21.4979
-21.4735
-21.4653
-21.4744
-21.5023
-21.55
-21.6189
-21.71
-21.8245
-21.9629
-22.1257
-22.3128
-22.5236
-22.7567
-23.0096
-23.2793
-23.5613
-23.8504
-24.1406
-24.4253
-24.6976
-24.9511
-25.1796
-25.3777
-25.5412
-25.6666
-25.7515
-25.7943
-26.446
-26.4177
-26.3621
-26.2808
-26.1759
-26.0503
-25.9067
-25.7482
-25.5776
-25.3974
-25.2102
-25.018
-24.8228
-24.6262
-24.4298
-24.2349
-24.0425
-23.8536
-23.6689
-23.489
-23.3144
-23.1452
-22.9818
-22.8244
-22.6732
-22.5283
-22.3902
-22.2591
-22.1353
-22.0194
-21.9119
-21.8134
-21.7247
-21.6466
-21.58
-21.5261
-21.4858
-21.4605
-21.4512
-21.4594
-21.4861
-21.5329
-21.6009
-21.6912
-21.805
-21.9431
-22.106
-22.2937
-22.5056
-22.7405
-22.9962
-23.2693
-23.5555
-23.8496
-24.1451
-24.4352
-24.7129
-24.9713
-25.2041
-25.4058
-25.572
-25.6994
-25.7855
-25.829
-26.4887
-26.4592
-26.4011
-26.3164
-26.2076
-26.0776
-25.9297
-25.7669
-25.5922
-25.4084
-25.2179
-25.0228
-24.8249
-24.6261
-24.4277
-24.231
-24.0373
-23.8472
-23.6617
-23.4811
-23.306
-23.1364
-22.9727
-22.8149
-22.6633
-22.5181
-22.3794
-22.2477
-22.1232
-22.0065
-21.898
-21.7984
-21.7084
-21.6288
-21.5607
-21.5051
-21.463
-21.4358
-21.4246
-21.4308
-21.4556
-21.5005
-21.5667
-21.6555
-21.7681
-21.9055
-22.0684
-22.257
-22.4711
-22.7094
-22.9701
-23.2498
-23.5442
-23.8476
-24.1534
-24.4541
-24.7421
-25.01
-25.251
-25.4595
-25.6309
-25.7619
-25.8504
-25.895
-26.5499
-26.5185
-26.4569
-26.3672
-26.2526
-26.1162
-25.9619
-25.793
-25.6126
-25.4236
-25.2285
-25.0292
-24.8278
-24.6257
-24.4245
-24.2254
-24.0297
-23.838
-23.6513
-23.4698
-23.294
-23.124
-22.9598
-22.8016
-22.6495
-22.5037
-22.3644
-22.2318
-22.1063
-21.9884
-21.8786
-21.7774
-21.6855
-21.6039
-21.5336
-21.4755
-21.431
-21.4011
-21.3872
-21.3905
-21.4126
-21.4547
-21.5183
-21.6048
-21.7156
-21.8519
-22.0146
-22.2044
-22.4212
-22.6643
-22.9319
-23.221
-23.5271
-23.8441
-24.1648
-24.481
-24.784
-25.0656
-25.3184
-25.5364
-25.7151
-25.8512
-25.9428
-25.9889
-26.6283
-26.5944
-26.5279
-26.4317
-26.3092
-26.1646
-26.0019
-25.8251
-25.6375
-25.4421
-25.2412
-25.0368
-24.8308
-24.6247
-24.42
-24.218
-24.0198
-23.8262
-23.638
-23.4555
-23.2789
-23.1084
-22.9437
-22.785
-22.6324
-22.4858
-22.3456
-22.2121
-22.0854
-21.9661
-21.8545
-21.7513
-21.6572
-21.573
-21.4999
-21.4388
-21.391
-21.3578
-21.3404
-21.3402
-21.3587
-21.3973
-21.4576
-21.5411
-21.6493
-21.7839
-21.9461
-22.1369
-22.3569
-22.6057
-22.8819
-23.1829
-23.5038
-23.8385
-24.1787
-24.515
-24.8376
-25.137
-25.4049
-25.6349
-25.8224
-25.9647
-26.0601
-26.1079
-26.7229
-26.6857
-26.6131
-26.5085
-26.3762
-26.2213
-26.0485
-25.8621
-25.666
-25.4629
-25.2553
-25.0451
-24.8338
-24.6231
-24.4143
-24.2087
-24.0076
-23.8118
-23.622
-23.4384
-23.2611
-23.09
-22.9249
-22.7657
-22.6124
-22.4651
-22.3239
-22.1892
-22.0612
-21.9402
-21.8267
-21.7211
-21.6243
-21.5371
-21.4606
-21.3959
-21.3443
-21.3072
-21.2857
-21.2813
-21.2955
-21.3299
-21.386
-21.4657
-21.5707
-21.7029
-21.864
-22.0556
-22.2787
-22.5337
-22.8199
-23.1348
-23.4737
-23.8299
-24.1942
-24.5555
-24.9023
-25.2234
-25.5095
-25.7536
-25.9513
-26.1003
-26.1997
-26.2493
-26.8331
-26.7918
-26.7115
-26.5965
-26.4523
-26.2849
-26.1001
-25.9027
-25.6968
-25.4852
-25.2702
-25.0535
-24.8364
-24.6204
-24.407
-24.1975
-23.9931
-23.7949
-23.6033
-23.4187
-23.2407
-23.0692
-22.9037
-22.7441
-22.5901
-22.4419
-22.2997
-22.1638
-22.0343
-21.9115
-21.7958
-21.6876
-21.5878
-21.4971
-21.4168
-21.348
-21.2921
-21.2504
-21.2243
-21.2152
-21.2245
-21.2539
-21.3052
-21.3803
-21.4812
-21.6102
-21.7694
-21.9611
-22.1871
-22.4485
-22.7454
-23.076
-23.4359
-23.8175
-24.2105
-24.6019
-24.9777
-25.3245
-25.6317
-25.8916
-26.1003
-26.2562
-26.3595
-26.4108
-26.9584
-26.912
-26.8223
-26.6947
-26.5363
-26.3543
-26.1556
-25.9458
-25.729
-25.5083
-25.2854
-25.0617
-24.8384
-24.6167
-24.3982
-24.1843
-23.9764
-23.7755
-23.5822
-23.3966
-23.2182
-23.0464
-22.8807
-22.7206
-22.566
-22.4169
-22.2736
-22.1363
-22.0053
-21.8806
-21.7626
-21.6516
-21.5484
-21.4539
-21.3693
-21.296
-21.2353
-21.1887
-21.1574
-21.143
-21.1468
-21.1707
-21.2164
-21.286
-21.382
-21.5068
-21.6633
-21.8542
-22.0823
-22.3499
-22.658
-23.0058
-23.3892
-23.8002
-24.227
-24.6538
-25.0637
-25.4404
-25.7713
-26.0484
-26.2683
-26.4307
-26.5374
-26.5901
-27.0986
-27.0461
-26.945
-26.8024
-26.627
-26.428
-26.2135
-25.99
-25.7616
-25.5313
-25.3002
-25.0694
-24.8395
-24.6118
-24.3877
-24.169
-23.9572
-23.7536
-23.5586
-23.3722
-23.1936
-23.0219
-22.8562
-22.6957
-22.5405
-22.3904
-22.246
-22.1074
-21.9747
-21.8482
-21.7277
-21.6137
-21.5068
-21.4081
-21.3189
-21.2406
-21.1748
-21.1228
-21.086
-21.0658
-21.0637
-21.0814
-21.1208
-21.1843
-21.2744
-21.3941
-21.5466
-21.7355
-21.9647
-22.2377
-22.5569
-22.9229
-23.3323
-23.7768
-24.2427
-24.711
-25.1606
-25.5715
-25.9286
-26.2236
-26.4542
-26.6223
-26.7314
-26.7849
-27.2539
-27.194
-27.0791
-26.9185
-26.7233
-26.5048
-26.2727
-26.0342
-25.7937
-25.5535
-25.3144
-25.0763
-24.8397
-24.6056
-24.3755
-24.1515
-23.9356
-23.7291
-23.5326
-23.3458
-23.1674
-22.9961
-22.8306
-22.6699
-22.5139
-22.3628
-22.2171
-22.0772
-21.9431
-21.8146
-21.6917
-21.5746
-21.4638
-21.3605
-21.2662
-21.1826
-21.1112
-21.0536
-21.011
-20.9847
-20.9762
-20.9872
-21.0197
-21.0762
-21.1595
-21.2729
-21.4202
-21.6058
-21.8346
-22.1116
-22.4414
-22.8261
-23.2637
-23.7459
-24.2567
-24.7733
-25.2689
-25.7185
-26.1041
-26.4171
-26.6573
-26.8293
-26.9393
-26.9928
-27.4246
-27.3556
-27.2243
-27.0423
-26.824
-26.5833
-26.3317
-26.0772
-25.8243
-25.5745
-25.3275
-25.0824
-24.839
-24.5981
-24.3616
-24.1319
-23.9115
-23.7021
-23.5042
-23.3173
-23.1397
-22.9693
-22.8042
-22.6434
-22.4867
-22.3345
-22.1874
-22.0462
-21.9107
-21.7805
-21.6552
-21.5348
-21.4198
-21.3116
-21.2119
-21.1226
-21.0454
-20.9819
-20.9332
-20.9006
-20.8853
-20.8891
-20.9141
-20.9629
-21.0385
-21.1446
-21.2853
-21.4658
-21.6923
-21.9717
-22.3107
-22.7141
-23.1818
-23.7057
-24.2679
-24.8405
-25.3894
-25.8827
-26.2986
-26.6291
-26.8768
-27.0502
-27.1592
-27.2115
-27.6111
-27.5313
-27.3802
-27.1731
-26.9279
-26.6621
-26.3891
-26.1177
-25.8524
-25.5936
-25.3393
-25.0876
-24.8375
-24.5896
-24.346
-24.1099
-23.8846
-23.6723
-23.4734
-23.287
-23.1108
-22.9418
-22.7776
-22.6168
-22.4592
-22.3055
-22.1571
-22.0146
-21.8779
-21.7462
-21.6186
-21.4949
-21.3755
-21.262
-21.1565
-21.0611
-20.9779
-20.9082
-20.8533
-20.8142
-20.792
-20.7882
-20.8051
-20.8455
-20.9125
-21.0101
-21.1427
-21.3164
-21.5384
-21.8177
-22.164
-22.5853
-23.0845
-23.6544
-24.2752
-24.9128
-25.5235
-26.0657
-26.5134
-26.8597
-27.1117
-27.2833
-27.3885
-27.4383
-27.8141
-27.7212
-27.5467
-27.3098
-27.0337
-26.7397
-26.4435
-26.1547
-25.8774
-25.6104
-25.3499
-25.0922
-24.8354
-24.5801
-24.3287
-24.0856
-23.855
-23.6396
-23.44
-23.2549
-23.0809
-22.9141
-22.7511
-22.5902
-22.4316
-22.2763
-22.1262
-21.9825
-21.845
-21.7122
-21.5824
-21.4553
-21.3313
-21.2121
-21.1003
-20.9986
-20.9091
-20.8332
-20.7721
-20.7264
-20.697
-20.6853
-20.6936
-20.7249
-20.7826
-20.8706
-20.9937
-21.1585
-21.3735
-21.6498
-22.0005
-22.4382
-22.9696
-23.5898
-24.2771
-24.9903
-25.6727
-26.2698
-26.7502
-27.1094
-27.3613
-27.5267
-27.625
-27.6706
-28.0343
-27.9258
-27.7234
-27.4517
-27.14
-26.8146
-26.4934
-26.1869
-25.8984
-25.6247
-25.3593
-25.0962
-24.8329
-24.5698
-24.3099
-24.0588
-23.8224
-23.6039
-23.404
-23.221
-23.0503
-22.8865
-22.725
-22.5642
-22.4043
-22.2468
-22.0948
-21.9501
-21.8123
-21.6787
-21.5471
-21.4165
-21.2877
-21.1623
-21.0438
-20.9354
-20.8394
-20.7574
-20.6901
-20.6378
-20.6011
-20.5812
-20.5805
-20.6022
-20.6498
-20.7272
-20.8394
-20.9934
-21.1985
-21.4682
-21.8197
-22.2711
-22.8348
-23.5091
-24.2715
-25.0731
-25.8394
-26.498
-27.0108
-27.3784
-27.6243
-27.7784
-27.8662
-27.9057
-28.273
-28.1457
-27.9104
-27.5978
-27.2452
-26.8851
-26.5374
-26.2131
-25.9147
-25.6362
-25.3676
-25.1001
-24.8305
-24.5592
-24.2896
-24.0294
-23.7867
-23.565
-23.3652
-23.1853
-23.0192
-22.8594
-22.7
-22.5392
-22.3775
-22.2173
-22.0628
-21.9174
-21.7798
-21.6462
-21.513
-21.379
-21.245
-21.1129
-20.987
-20.8717
-20.7692
-20.681
-20.6077
-20.5491
-20.5051
-20.4767
-20.4665
-20.478
-20.5151
-20.5812
-20.6811
-20.8222
-21.0145
-21.2733
-21.6209
-22.0824
-22.6774
-23.4091
-24.2562
-25.1614
-26.0266
-26.7537
-27.2974
-27.667
-27.8997
-28.0362
-28.1094
-28.1408
-28.5312
-28.3816
-28.1074
-27.7469
-27.3476
-26.9496
-26.574
-26.232
-25.9256
-25.6449
-25.3753
-25.1043
-24.8286
-24.5487
-24.2679
-23.9971
-23.7475
-23.5226
-23.3235
-23.148
-22.988
-22.8334
-22.6764
-22.5153
-22.3516
-22.1876
-22.0302
-21.8843
-21.7478
-21.6151
-21.4805
-21.3431
-21.2037
-21.0642
-20.9303
-20.8077
-20.6987
-20.6044
-20.5255
-20.4608
-20.4096
-20.3724
-20.3523
-20.3533
-20.3793
-20.4335
-20.52
-20.6464
-20.8228
-21.0661
-21.404
-21.8704
-22.4947
-23.2865
-24.228
-25.2552
-26.2381
-27.0414
-27.6125
-27.9754
-28.1857
-28.2977
-28.3518
-28.373
-28.8104
-28.6339
-28.3144
-27.8979
-27.4452
-27.0065
-26.6019
-26.2424
-25.9305
-25.6509
-25.3829
-25.1094
-24.8276
-24.5388
-24.245
-23.9617
-23.7047
-23.4765
-23.2784
-23.109
-22.957
-22.809
-22.6546
-22.4931
-22.3268
-22.1579
-21.9964
-21.8505
-21.7164
-21.5856
-21.4501
-21.3093
-21.1643
-21.0165
-20.8736
-20.7436
-20.628
-20.5279
-20.4438
-20.3735
-20.3152
-20.269
-20.2386
-20.2287
-20.2435
-20.2852
-20.3573
-20.4674
-20.625
-20.8474
-21.1689
-21.6336
-22.2838
-23.1369
-24.1826
-25.3545
-26.479
-27.3665
-27.9586
-28.3032
-28.4805
-28.5604
-28.5909
-28.5998
-29.1122
-28.9035
-28.5316
-28.0495
-27.5359
-27.0542
-26.6196
-26.2429
-25.9289
-25.6543
-25.3912
-25.1158
-24.8281
-24.5304
-24.221
-23.9226
-23.658
-23.4265
-23.2297
-23.0682
-22.9266
-22.787
-22.6352
-22.4729
-22.3036
-22.128
-21.9611
-21.8159
-21.6858
-21.5583
-21.4221
-21.2777
-21.1271
-20.9698
-20.8169
-20.6794
-20.5574
-20.4516
-20.3629
-20.2876
-20.2225
-20.1671
-20.1257
-20.1046
-20.1082
-20.1374
-20.1941
-20.2868
-20.4231
-20.6186
-20.9157
-21.3707
-22.0422
-22.9561
-24.1144
-25.4588
-26.7559
-27.7356
-28.3385
-28.6498
-28.7817
-28.8215
-28.8238
-28.8185
-29.4384
-29.1907
-28.7591
-28.2001
-27.617
-27.0914
-26.6261
-26.2322
-25.9202
-25.6554
-25.4013
-25.1242
-24.8304
-24.5244
-24.1961
-23.8792
-23.6074
-23.3724
-23.1767
-23.0257
-22.8971
-22.7681
-22.6184
-22.4547
-22.2825
-22.0978
-21.9234
-21.7801
-21.6559
-21.5338
-21.3967
-21.2486
-21.0927
-20.9243
-20.7598
-20.6153
-20.487
-20.3755
-20.2831
-20.2035
-20.1321
-20.067
-20.0141
-19.9815
-19.9742
-19.9911
-20.0316
-20.1062
-20.2192
-20.3815
-20.6451
-21.0801
-21.7675
-22.739
-24.0158
-25.5672
-27.0779
-28.1563
-28.7544
-29.0136
-29.0865
-29.0779
-29.0479
-29.0267
-29.7913
-29.4957
-28.9977
-28.3483
-27.6851
-27.1171
-26.6206
-26.2085
-25.9041
-25.6548
-25.4148
-25.1349
-24.8345
-24.5222
-24.1704
-23.8302
-23.553
-23.3142
-23.1186
-22.9813
-22.8689
-22.7534
-22.6048
-22.4388
-22.2644
-22.0672
-21.8823
-21.7427
-21.6271
-21.5128
-21.3742
-21.2221
-21.0618
-20.8802
-20.702
-20.5512
-20.4169
-20.2996
-20.2047
-20.1218
-20.0447
-19.9692
-19.9041
-19.8595
-19.8421
-19.8473
-19.8705
-19.9271
-20.0161
-20.138
-20.358
-20.7606
-21.4579
-22.4813
-23.8764
-25.6775
-27.4568
-28.6377
-29.2079
-29.3924
-29.3915
-29.3268
-29.2608
-29.2224
-30.1732
-29.8179
-29.2488
-28.492
-27.7359
-27.1308
-26.6026
-26.1695
-25.8804
-25.6527
-25.4336
-25.1483
-24.8403
-24.5261
-24.1441
-23.7739
-23.4952
-23.252
-23.0543
-22.935
-22.8425
-22.7443
-22.5943
-22.4248
-22.2505
-22.0361
-21.8362
-21.7032
-21.5993
-21.4964
-21.3548
-21.1979
-21.0354
-20.8376
-20.6425
-20.4875
-20.3472
-20.2236
-20.128
-20.0428
-19.9607
-19.8742
-19.7957
-19.7388
-19.7122
-19.7071
-19.7113
-19.751
-19.8168
-19.8902
-20.0559
-20.4107
-21.1126
-22.1787
-23.6822
-25.7865
-27.9091
-29.19
-29.6999
-29.7826
-29.6928
-29.5651
-29.4604
-29.4037
-30.5874
-30.1556
-29.5146
-28.6295
-27.7638
-27.1333
-26.5722
-26.1126
-25.8493
-25.6496
-25.4606
-25.1642
-24.8468
-24.5391
-24.1172
-23.7076
-23.4349
-23.1863
-22.982
-22.8871
-22.8179
-22.7426
-22.587
-22.412
-22.2427
-22.0044
-21.7828
-21.6615
-21.5725
-21.4859
-21.3384
-21.1756
-21.0151
-20.7964
-20.5802
-20.4245
-20.2783
-20.1471
-20.0531
-19.9668
-19.8811
-19.7822
-19.6891
-19.6193
-19.5851
-19.5717
-19.5542
-19.579
-19.625
-19.6405
-19.7409
-20.0282
-20.7321
-21.8291
-23.4141
-25.8883
-28.4572
-29.8243
-30.2294
-30.1797
-29.9863
-29.7898
-29.6446
-29.5693
-31.038
-30.505
-29.7996
-28.7585
-27.7611
-27.1268
-26.5303
-26.0334
-25.8114
-25.6453
-25.4999
-25.1821
-24.8518
-24.5657
-24.0901
-23.6269
-23.3741
-23.1178
-22.8992
-22.8381
-22.7953
-22.7511
-22.5824
-22.3992
-22.2439
-21.972
-21.7193
-21.6176
-21.5467
-21.4835
-21.3246
-21.154
-21.0029
-20.7567
-20.513
-20.363
-20.2105
-20.0692
-19.9805
-19.894
-19.8066
-19.6936
-19.5842
-19.5004
-19.4609
-19.4426
-19.3987
-19.4118
-19.4453
-19.391
-19.4159
-19.61
-20.3185
-21.4331
-23.0461
-25.974
-29.1321
-30.5521
-30.7932
-30.5778
-30.2675
-29.9983
-29.812
-29.7183
-31.5302
-30.8593
-30.1106
-28.8769
-27.7168
-27.1162
-26.4786
-25.9261
-25.7688
-25.6388
-25.5573
-25.2007
-24.8516
-24.613
-24.0626
-23.5257
-23.3163
-23.0479
-22.8019
-22.789
-22.7738
-22.7735
-22.5798
-22.3837
-22.2584
-21.9387
-21.6412
-21.572
-21.5211
-21.4922
-21.3127
-21.1311
-21.0021
-20.7185
-20.438
-20.3045
-20.1444
-19.9887
-19.9108
-19.8245
-19.7382
-19.6083
-19.481
-19.3816
-19.3398
-19.3221
-19.2435
-19.2495
-19.2835
-19.1432
-19.0855
-19.1508
-19.8761
-20.9966
-22.5433
-26.0297
-29.9771
-31.3839
-31.3852
-30.9695
-30.5318
-30.1881
-29.9614
-29.8499
-32.0715
-31.2066
-30.459
-28.9823
-27.6158
-27.1096
-26.4202
-25.782
-25.725
-25.6275
-25.6409
-25.2177
-24.8399
-24.6907
-24.0349
-23.3946
-23.2671
-22.9787
-22.6844
-22.7423
-22.7517
-22.8153
-22.5775
-22.3616
-22.2925
-21.9046
-21.5426
-21.5266
-21.4943
-21.5164
-21.3016
-21.1038
-21.0176
-20.6816
-20.3509
-20.2512
-20.0807
-19.9035
-19.845
-19.758
-19.6775
-19.5265
-19.3794
-19.262
-19.2213
-19.2132
-19.0861
-19.0913
-19.147
-18.8975
-18.7563
-18.6422
-19.4111
-20.5339
-21.859
-26.0348
-31.0518
-32.3276
-31.9956
-31.3467
-30.7747
-30.3574
-30.092
-29.9639
-32.6723
-31.5279
-30.862
-29.0726
-27.4367
-27.1207
-26.3593
-25.5885
-25.6868
-25.6062
-25.7628
-25.2297
-24.8068
-24.8136
-24.007
-23.2201
-23.2354
-22.913
-22.5383
-22.7023
-22.7255
-22.8841
-22.5733
-22.3263
-22.3557
-21.8695
-21.4152
-21.4846
-21.4637
-21.5622
-21.2895
-21.067
-21.0563
-20.6458
-20.2455
-20.207
-20.0204
-19.8107
-19.7848
-19.6939
-19.6261
-19.4479
-19.2793
-19.1402
-19.105
-19.1204
-18.9229
-18.9353
-19.0457
-18.6522
-18.4387
-18.071
-18.932
-20.0711
-20.9311
-25.9593
-32.4383
-33.3852
-32.6102
-31.7002
-30.9921
-30.5046
-30.2038
-30.0606
-33.3475
-31.7937
-31.3459
-29.1455
-27.1497
-27.17
-26.3018
-25.3271
-25.6658
-25.5651
-25.9397
-25.2316
-24.7378
-25.0024
-23.9785
-22.9829
-23.2346
-22.8548
-22.3515
-22.6763
-22.6888
-22.9911
-22.5638
-22.2685
-22.4613
-21.8331
-21.2475
-21.4524
-21.4241
-21.6386
-21.2736
-21.0133
-21.1283
-20.6107
-20.1131
-20.1777
-19.9648
-19.7058
-19.7328
-19.6305
-19.5866
-19.3719
-19.181
-19.0147
-18.9892
-19.0502
-18.7485
-18.7775
-18.9928
-18.4018
-18.1481
-17.4168
-18.4491
-19.652
-19.6778
-25.7603
-34.2496
-34.5488
-33.2104
-32.0205
-31.1806
-30.6289
-30.2967
-30.1405
-34.1181
-31.9598
-31.9491
-29.1987
-26.7137
-27.2881
-26.2552
-24.9719
-25.6807
-25.488
-26.1956
-25.2164
-24.611
-25.2862
-23.9491
-22.6562
-23.2844
-22.809
-22.1066
-22.6765
-22.6307
-23.1521
-22.5443
-22.1742
-22.628
-21.795
-21.024
-21.4405
-21.3672
-21.7582
-21.2503
-20.932
-21.2479
-20.5756
-19.9414
-20.1719
-19.9153
-19.5826
-19.6933
-19.5652
-19.5625
-19.2974
-19.0849
-18.8833
-18.8717
-19.0121
-18.5552
-18.6117
-19.0069
-18.1355
-17.9082
-16.6497
-17.9733
-19.3444
-17.9933
-25.3772
-36.6388
-35.7944
-33.7728
-32.2988
-31.3377
-30.7301
-30.3712
-30.2041
-35.0134
-31.9619
-32.7267
-29.23
-26.0723
-27.5184
-26.2288
-24.4862
-25.7606
-25.3485
-26.564
-25.1744
-24.3961
-25.7051
-23.9177
-22.2029
-23.4127
-22.782
-21.7793
-22.722
-22.5341
-23.3889
-22.5084
-22.0237
-22.8817
-21.7541
-20.7234
-21.4652
-21.2792
-21.9389
-21.2143
-20.808
-21.4348
-20.5392
-19.714
-20.2021
-19.8736
-19.4322
-19.673
-19.4936
-19.5586
-19.2222
-18.9923
-18.7437
-18.7481
-19.0193
-18.3326
-18.4284
-19.1131
-17.8338
-17.7538
-15.7267
-17.5145
-19.2485
-15.7411
-24.7267
-39.8116
-37.0737
-34.2708
-32.5272
-31.4617
-30.8083
-30.4283
-30.2526
-36.0746
-31.7087
-33.7558
-29.2371
-25.1502
-27.9217
-26.2338
-23.8194
-25.9497
-25.1064
-27.091
-25.0933
-24.0509
-26.3133
-23.8829
-21.5735
-23.6589
-22.7813
-21.3362
-22.8414
-22.3725
-23.7321
-22.4478
-21.7898
-23.2574
-21.7087
-20.3174
-21.5513
-21.1391
-22.2048
-21.1589
-20.6203
-21.7156
-20.4999
-19.4085
-20.2857
-19.8413
-19.2427
-19.6816
-19.4087
-19.5818
-19.1432
-18.905
-18.5933
-18.6121
-19.0904
-18.0671
-18.2136
-19.3463
-17.4651
-17.7363
-14.588
-17.0793
-19.5068
-12.7485
-23.696
-44.0414
-38.3036
-34.6761
-32.6998
-31.5524
-30.8646
-30.4689
-30.287
-37.3573
-31.0741
-35.1424
-29.2173
-23.8476
-28.5804
-26.2831
-22.903
-26.3124
-24.7019
-27.839
-24.9572
-23.5182
-27.1826
-23.8422
-20.7022
-24.076
-22.8158
-20.7321
-23.0769
-22.1068
-24.2228
-22.3518
-21.436
-23.8018
-21.6558
-19.7687
-21.7352
-20.9157
-22.5893
-21.0754
-20.341
-22.126
-20.4548
-18.9959
-20.4467
-19.8201
-18.9978
-19.7332
-19.3001
-19.6413
-19.0554
-18.8259
-18.4291
-18.454
-19.2502
-17.7414
-17.9477
-19.7539
-16.981
-17.9285
-13.1531
-16.667
-20.3156
-8.79936
-22.1341
-49.6868
-39.353
-34.9622
-32.8136
-31.6106
-30.9002
-30.4944
-30.3086
-38.9366
-29.8874
-37.0287
-29.1671
-22.0352
-29.6044
-26.3912
-21.6458
-26.9401
-24.0493
-28.8919
-24.7462
-22.7227
-28.407
-23.7921
-19.5033
-24.7344
-22.8947
-19.9051
-23.4866
-21.679
-24.9146
-22.2059
-20.9139
-24.5758
-21.5906
-19.0266
-22.0654
-20.5612
-23.1343
-20.9511
-19.9325
-22.7122
-20.3996
-18.4378
-20.7168
-19.8106
-18.6764
-19.8482
-19.1532
-19.7505
-18.9516
-18.7595
-18.2482
-18.2596
-19.5326
-17.3339
-17.6041
-20.4005
-16.31
-18.4328
-11.3159
-16.2657
-21.9382
-3.6271
-19.8432
-57.212
-40.0264
-35.1099
-32.8693
-31.6386
-30.9172
-30.5066
-30.319
)
;

boundaryField
{
    left
    {
        type            calculated;
        value           nonuniform List<scalar> 
32
(
-26.4236
-26.446
-26.4887
-26.5499
-26.6283
-26.7229
-26.8331
-26.9584
-27.0986
-27.2539
-27.4246
-27.6111
-27.8141
-28.0343
-28.273
-28.5312
-28.8104
-29.1122
-29.4384
-29.7913
-30.1732
-30.5874
-31.038
-31.5302
-32.0715
-32.6723
-33.3475
-34.1181
-35.0134
-36.0746
-37.3573
-38.9366
)
;
    }
    right
    {
        type            calculated;
        value           nonuniform List<scalar> 
32
(
-25.7943
-25.829
-25.895
-25.9889
-26.1079
-26.2493
-26.4108
-26.5901
-26.7849
-26.9928
-27.2115
-27.4383
-27.6706
-27.9057
-28.1408
-28.373
-28.5998
-28.8185
-29.0267
-29.2224
-29.4037
-29.5693
-29.7183
-29.8499
-29.9639
-30.0606
-30.1405
-30.2041
-30.2526
-30.287
-30.3086
-30.319
)
;
    }
    interface
    {
        type            calculated;
        value           nonuniform List<scalar> 
64
(
-39.8111
-29.1316
-38.1171
-29.134
-20.9833
-30.2233
-26.4618
-20.919
-27.3336
-23.6485
-29.5065
-24.6191
-22.2486
-29.1211
-23.7641
-18.8098
-25.1338
-22.9463
-19.427
-23.7433
-21.4159
-25.3182
-22.1183
-20.6039
-25.029
-21.5542
-18.5998
-22.2739
-20.344
-23.4527
-20.8768
-19.6906
-23.0558
-20.3687
-18.1168
-20.8835
-19.8087
-18.4936
-19.9246
-19.0681
-19.8195
-18.8946
-18.7301
-18.1531
-18.1512
-19.7091
-17.1068
-17.4091
-20.793
-15.9173
-18.7777
-10.2817
-16.0654
-22.9905
-0.698484
-18.4876
-61.5099
-40.2403
-35.1474
-32.883
-31.6455
-30.9215
-30.5096
-30.3216
)
;
    }
    bottom
    {
        type            calculated;
        value           nonuniform List<scalar> 
64
(
-26.4178
-26.3904
-26.3364
-26.2572
-26.1549
-26.0321
-25.8914
-25.7357
-25.5677
-25.39
-25.2049
-25.0147
-24.8212
-24.6262
-24.4311
-24.2373
-24.0459
-23.8577
-23.6737
-23.4943
-23.3199
-23.1511
-22.9879
-22.8307
-22.6797
-22.5352
-22.3974
-22.2667
-22.1434
-22.028
-21.9212
-21.8235
-21.7356
-21.6585
-21.593
-21.5401
-21.5011
-21.4769
-21.469
-21.4784
-21.5065
-21.5545
-21.6236
-21.7149
-21.8295
-21.968
-22.1308
-22.3178
-22.5283
-22.7608
-23.0131
-23.2819
-23.5628
-23.8506
-24.1394
-24.4227
-24.6937
-24.9458
-25.1732
-25.3705
-25.5332
-25.6581
-25.7427
-25.7853
)
;
    }
    defaultFaces
    {
        type            empty;
    }
}


// ************************************************************************* //
