/*--------------------------------*- C++ -*----------------------------------*\
| =========                 |                                                 |
| \\      /  F ield         | OpenFOAM: The Open Source CFD Toolbox           |
|  \\    /   O peration     | Version:  5.x                                   |
|   \\  /    A nd           | Web:      www.OpenFOAM.org                      |
|    \\/     M anipulation  |                                                 |
\*---------------------------------------------------------------------------*/
FoamFile
{
    version     2.0;
    format      ascii;
    class       volScalarField;
    location    "8.7";
    object      gradTx;
}
// * * * * * * * * * * * * * * * * * * * * * * * * * * * * * * * * * * * * * //

dimensions      [0 -1 0 1 0 0 0];

internalField   nonuniform List<scalar> 
2048
(
0.00630499
0.0187344
0.0306387
0.0417202
0.0517499
0.0605784
0.0681354
0.0744186
0.0794778
0.0833958
0.0862724
0.088212
0.0893164
0.0896825
0.0894028
0.0885664
0.0872601
0.0855676
0.0835664
0.0813253
0.0788999
0.0763309
0.0736432
0.0708469
0.0679398
0.0649098
0.0617373
0.0583967
0.0548572
0.051083
0.0470336
0.0426655
0.0379335
0.032793
0.0272022
0.0211235
0.0145245
0.00737924
-0.000331965
-0.00862076
-0.0174887
-0.0269234
-0.0368935
-0.0473417
-0.0581764
-0.0692627
-0.0804137
-0.0913821
-0.101857
-0.111465
-0.119783
-0.12636
-0.130754
-0.13257
-0.131512
-0.127416
-0.120277
-0.110248
-0.0976157
-0.0827652
-0.0661297
-0.0481503
-0.0292469
-0.00980741
0.0187886
0.0558182
0.0912569
0.124206
0.15398
0.180138
0.20248
0.221014
0.235901
0.247402
0.255819
0.261469
0.264654
0.26566
0.264759
0.262215
0.258284
0.253216
0.247243
0.240572
0.233368
0.225753
0.217799
0.209534
0.20095
0.192008
0.182651
0.172801
0.162367
0.151242
0.139307
0.126431
0.112479
0.0973174
0.0808206
0.0628768
0.0433903
0.0222831
-0.000503609
-0.0250062
-0.0512323
-0.0791498
-0.108672
-0.139635
-0.171777
-0.204706
-0.237875
-0.270558
-0.301833
-0.330586
-0.355549
-0.375361
-0.388675
-0.394291
-0.391298
-0.379194
-0.357963
-0.328075
-0.290413
-0.246152
-0.196609
-0.143109
-0.0869052
-0.0291383
0.0311402
0.0924835
0.151107
0.205486
0.254474
0.297354
0.333829
0.363956
0.388046
0.406566
0.420045
0.429013
0.433971
0.435383
0.433689
0.429317
0.422688
0.414216
0.40429
0.393256
0.381391
0.368896
0.355885
0.342398
0.328413
0.313863
0.298649
0.282643
0.265697
0.247634
0.228257
0.207348
0.18468
0.16003
0.133188
0.103971
0.0722196
0.0378055
0.000630164
-0.0393714
-0.0822206
-0.127879
-0.17622
-0.227
-0.279813
-0.334043
-0.388818
-0.442963
-0.494969
-0.542992
-0.584901
-0.618387
-0.641139
-0.651078
-0.646613
-0.626864
-0.591803
-0.542254
-0.47977
-0.40639
-0.324373
-0.235962
-0.143224
-0.0480092
0.0435999
0.129426
0.211275
0.286941
0.354798
0.413874
0.463825
0.504821
0.53739
0.562257
0.580209
0.592003
0.598335
0.599832
0.597085
0.590672
0.581177
0.56918
0.555236
0.539837
0.523378
0.506135
0.48826
0.469795
0.450692
0.430849
0.410121
0.388332
0.365279
0.34072
0.314377
0.285942
0.255094
0.221514
0.18491
0.145021
0.10163
0.0545591
0.0036692
-0.0511386
-0.109911
-0.17262
-0.239128
-0.309139
-0.382144
-0.457347
-0.533596
-0.609308
-0.682414
-0.750337
-0.810049
-0.858209
-0.891423
-0.906597
-0.901333
-0.874294
-0.825435
-0.756015
-0.668382
-0.565593
-0.450974
-0.327745
-0.198793
-0.0666108
0.0563834
0.16727
0.272723
0.369772
0.456287
0.53107
0.5938
0.644856
0.685074
0.715513
0.737261
0.751321
0.758568
0.759773
0.755652
0.74692
0.734317
0.718599
0.700501
0.680677
0.65965
0.637772
0.615221
0.592023
0.568093
0.543279
0.517388
0.4902
0.461459
0.430863
0.398053
0.362626
0.324156
0.282224
0.236446
0.18649
0.132081
0.0729956
0.00905342
-0.0598834
-0.1339
-0.213002
-0.297068
-0.385793
-0.478609
-0.574596
-0.672381
-0.770027
-0.864938
-0.953808
-1.03266
-1.09699
-1.14217
-1.16387
-1.15868
-1.1247
-1.06186
-0.971946
-0.858331
-0.725317
-0.577483
-0.419135
-0.253975
-0.0850562
0.0696954
0.2066
0.336343
0.455075
0.560123
0.650111
0.724843
0.785034
0.831954
0.867092
0.891893
0.907612
0.915289
0.915799
0.909952
0.898575
0.882562
0.86286
0.84041
0.816055
0.790455
0.764042
0.737003
0.709328
0.680871
0.651414
0.620713
0.58851
0.554506
0.518344
0.479583
0.437716
0.392199
0.342502
0.288144
0.228721
0.163905
0.0934347
0.017091
-0.0653076
-0.153899
-0.248746
-0.34978
-0.456728
-0.56902
-0.685678
-0.805177
-0.925298
-1.04297
-1.15418
-1.25392
-1.33642
-1.39554
-1.42544
-1.42144
-1.38086
-1.30359
-1.19214
-1.05119
-0.886625
-0.704542
-0.510467
-0.308918
-0.103385
0.0837402
0.247998
0.403004
0.543883
0.667384
0.772014
0.857846
0.926101
0.978643
1.01751
1.04456
1.06132
1.06895
1.06837
1.06043
1.04605
1.02627
1.00227
0.975209
0.946169
0.915971
0.88512
0.853796
0.821918
0.789245
0.755477
0.720316
0.683472
0.644626
0.603373
0.559191
0.511451
0.459478
0.402609
0.34026
0.271956
0.197329
0.116086
0.0279795
-0.0672192
-0.169715
-0.279654
-0.397058
-0.521733
-0.653169
-0.790398
-0.931836
-1.07507
-1.21665
-1.35185
-1.47462
-1.57774
-1.65328
-1.69349
-1.69204
-1.64522
-1.55282
-1.41832
-1.24811
-1.05014
-0.832387
-0.601757
-0.363565
-0.121568
0.0987292
0.292059
0.473583
0.637213
0.77908
0.897678
0.993534
1.0686
1.12553
1.16706
1.19554
1.21273
1.21985
1.21782
1.20744
1.18968
1.16575
1.13705
1.10507
1.07115
1.03631
1.00113
0.965748
0.929967
0.893409
0.855664
0.816376
0.775249
0.731968
0.686101
0.637036
0.58401
0.526181
0.462737
0.392976
0.316359
0.23249
0.141066
0.0418218
-0.0655179
-0.181239
-0.3056
-0.43875
-0.580627
-0.730835
-0.888503
-1.05209
-1.2191
-1.3858
-1.54688
-1.69518
-1.82185
-1.91682
-1.96997
-1.97277
-1.92006
-1.81151
-1.65187
-1.44985
-1.21608
-0.960867
-0.692712
-0.417662
-0.139506
0.114888
0.339415
0.54899
0.736085
0.896183
1.0279
1.13248
1.21288
1.27281
1.31585
1.34491
1.36196
1.36821
1.36442
1.35129
1.32977
1.30123
1.26739
1.23011
1.19108
1.15154
1.11216
1.07298
1.03364
0.993544
0.952151
0.909048
0.863964
0.816635
0.766624
0.713229
0.655518
0.592451
0.523027
0.446419
0.362027
0.269453
0.168413
0.0586388
-0.0601842
-0.188439
-0.326525
-0.47476
-0.633259
-0.801805
-0.979702
-1.16556
-1.35696
-1.55006
-1.73902
-1.91567
-2.06931
-2.18734
-2.25663
-2.26575
-2.20758
-2.08149
-1.89394
-1.65681
-1.38424
-1.08945
-0.78274
-0.470767
-0.157037
0.132464
0.390747
0.63019
0.841551
1.01964
1.16341
1.27513
1.35913
1.42047
1.46379
1.49259
1.50903
1.51414
1.50839
1.49224
1.46656
1.43292
1.39343
1.3504
1.30596
1.26167
1.21825
1.17559
1.13307
1.08983
1.04511
0.998468
0.949708
0.898683
0.844993
0.787834
0.726065
0.658392
0.583586
0.500672
0.409006
0.308224
0.198094
0.0783798
-0.0512694
-0.191347
-0.342429
-0.505045
-0.679526
-0.865889
-1.06369
-1.27182
-1.48812
-1.7088
-1.92775
-2.13581
-2.32034
-2.46574
-2.5551
-2.57314
-2.50999
-2.36452
-2.14549
-1.86906
-1.55402
-1.21724
-0.870957
-0.52226
-0.173942
0.151727
0.446802
0.718224
0.95471
1.15039
1.30484
1.4218
1.50737
1.56833
1.61062
1.6384
1.65386
1.65771
1.64992
1.63054
1.60032
1.56103
1.51526
1.46594
1.41577
1.36667
1.31941
1.27367
1.22842
1.18244
1.13472
1.08476
1.03254
0.978129
0.921216
0.860881
0.79571
0.724085
0.644494
0.555787
0.457302
0.348755
0.230022
0.100931
-0.0388882
-0.190058
-0.353373
-0.529616
-0.719376
-0.922939
-1.14019
-1.37042
-1.61191
-1.86123
-2.11226
-2.35502
-2.57486
-2.75268
-2.86688
-2.89712
-2.82962
-2.66238
-2.40726
-2.08629
-1.72443
-1.34295
-0.956208
-0.571361
-0.189946
0.172982
0.508405
0.814222
1.07672
1.28937
1.45277
1.57266
1.65746
1.71604
1.75594
1.78199
1.79629
1.79893
1.78918
1.76647
1.7313
1.68572
1.63296
1.57672
1.52042
1.46644
1.41563
1.36729
1.31986
1.27159
1.22116
1.16804
1.11249
1.05495
0.995263
0.932369
0.864489
0.789599
0.70582
0.611798
0.506886
0.390958
0.264056
0.126124
-0.0232099
-0.184719
-0.359467
-0.54854
-0.752815
-0.972864
-1.20895
-1.4609
-1.72765
-2.00642
-2.29149
-2.5724
-2.83247
-3.0486
-3.19342
-3.23999
-3.169
-2.97693
-2.67984
-2.30786
-1.89402
-1.46495
-1.03709
-0.617154
-0.204734
0.196567
0.57647
0.919419
1.2088
1.43751
1.60768
1.72778
1.80908
1.86308
1.89918
1.92295
1.9361
1.9378
1.92635
1.90031
1.85978
1.80718
1.7466
1.68267
1.61976
1.56088
1.50688
1.45654
1.40755
1.35751
1.30466
1.24844
1.18956
1.12906
1.06706
1.00227
0.932428
0.854995
0.76763
0.668725
0.557708
0.434707
0.300011
0.15374
-0.00445233
-0.17552
-0.360863
-0.561936
-0.779914
-1.01565
-1.2698
-1.54285
-1.8346
-2.14331
-2.46416
-2.78673
-3.0924
-3.35362
-3.53606
-3.60422
-3.53097
-3.3102
-2.96367
-2.53269
-2.0609
-1.58124
-1.11198
-0.65862
-0.217963
0.222862
0.652008
1.03516
1.35227
1.59571
1.76998
1.8871
1.96179
2.00875
2.03964
2.06074
2.07303
2.07433
2.06165
2.03239
1.98605
1.92559
1.85621
1.78371
1.71363
1.64981
1.5931
1.54151
1.4917
1.44047
1.38546
1.32606
1.26371
1.20037
1.13651
1.07054
0.999541
0.920337
0.829999
0.726586
0.609695
0.479848
0.337666
0.183518
0.0171256
-0.162686
-0.357751
-0.569966
-0.800807
-1.05135
-1.32265
-1.61593
-1.93207
-2.27078
-2.62881
-2.99645
-3.35353
-3.66758
-3.89603
-3.99251
-3.91884
-3.66447
-3.25896
-2.75923
-2.2227
-1.6895
-1.1791
-0.69468
-0.229276
0.252295
0.736136
1.16292
1.50852
1.76488
1.93996
2.05041
2.11499
2.15221
2.17649
2.19479
2.20681
2.2085
2.19533
2.16311
2.11045
2.04113
1.96183
1.8797
1.80177
1.73301
1.67423
1.62231
1.57254
1.52078
1.46387
1.40106
1.33488
1.26868
1.20347
1.13713
1.06584
0.985699
0.89302
0.7854
0.662757
0.526203
0.376768
0.215159
0.0412294
-0.14647
-0.35034
-0.572828
-0.815691
-1.08012
-1.3675
-1.6799
-2.01946
-2.38767
-2.78376
-3.19974
-3.61437
-3.98995
-4.27438
-4.40781
-4.33648
-4.04232
-3.5657
-2.98538
-2.37656
-1.78714
-1.23656
-0.724246
-0.23832
0.285346
0.830076
1.30429
1.67904
1.94588
2.1178
2.21743
2.26797
2.29245
2.30876
2.32446
2.33718
2.34032
2.32766
2.29294
2.23336
2.15397
2.0635
1.9705
1.88389
1.81021
1.75018
1.69906
1.65032
1.59878
1.54024
1.47357
1.40294
1.33378
1.26777
1.20196
1.13133
1.05117
0.956816
0.845192
0.716785
0.573575
0.417037
0.24833
0.0675346
-0.12714
-0.33885
-0.570747
-0.824827
-1.1022
-1.40447
-1.73464
-2.09624
-2.49287
-2.92724
-3.39444
-3.87304
-4.31978
-4.6719
-4.85338
-4.78854
-4.4468
-3.88354
-3.20839
-2.51911
-1.87132
-1.28246
-0.746277
-0.244773
0.322565
0.935156
1.46099
1.86544
2.13948
2.30348
2.38775
2.41989
2.42832
2.43539
2.4491
2.46393
2.46979
2.45899
2.42248
2.35517
2.26428
2.16128
2.05594
1.95963
1.88109
1.82089
1.77194
1.72531
1.6749
1.61503
1.54376
1.46771
1.39534
1.32921
1.26501
1.19601
1.11684
1.02155
0.905996
0.77165
0.621755
0.458176
0.282662
0.0956899
-0.104971
-0.323497
-0.563961
-0.828525
-1.11793
-1.43379
-1.7802
-2.16209
-2.58529
-3.05734
-3.57818
-4.12728
-4.65564
-5.08893
-5.33273
-5.28071
-4.88149
-4.21168
-3.4247
-2.64645
-1.93907
-1.31497
-0.759844
-0.248356
0.364591
1.05279
1.63484
2.06947
2.34637
2.49682
2.56094
2.56986
2.55852
2.55517
2.56807
2.58691
2.59689
2.58965
2.55244
2.47632
2.37217
2.25524
2.13586
2.02855
1.94524
1.88629
1.84117
1.79776
1.74955
1.68881
1.61183
1.52891
1.45298
1.38758
1.32625
1.25988
1.18282
1.08747
0.967853
0.827188
0.670533
0.499873
0.317757
0.12532
-0.0802402
-0.304479
-0.552705
-0.827149
-1.12775
-1.4558
-1.81675
-2.21688
-2.66402
-3.17211
-3.74828
-4.37451
-4.99561
-5.5252
-5.84961
-5.82
-5.35068
-4.54864
-3.62982
-2.7542
-1.9874
-1.33241
-0.764188
-0.248861
0.412189
1.18448
1.82775
2.2931
2.56709
2.69731
2.73653
2.71694
2.68158
2.66678
2.68077
2.70611
2.72155
2.72002
2.68376
2.59724
2.47765
2.34554
2.21011
2.09011
2.00218
1.94632
1.90707
1.86791
1.8232
1.7623
1.67799
1.58618
1.50619
1.44267
1.38571
1.32288
1.24922
1.15489
1.03081
0.883187
0.719707
0.541815
0.353183
0.156026
-0.0532136
-0.281954
-0.537202
-0.821104
-1.13217
-1.47088
-1.84462
-2.26078
-2.72829
-3.26954
-3.9019
-4.61186
-5.33726
-5.97948
-6.4079
-6.41523
-5.85952
-4.89198
-3.81815
-2.83757
-2.01339
-1.33341
-0.758776
-0.246159
0.466316
1.33175
2.04164
2.53858
2.80192
2.90408
2.91417
2.86019
2.79585
2.76874
2.78666
2.82173
2.84357
2.85043
2.81765
2.71835
2.58058
2.43244
2.27856
2.14367
2.05132
2.00098
1.97008
1.93592
1.89631
1.83645
1.7425
1.63899
1.55435
1.49425
1.44355
1.38491
1.31613
1.22428
1.0949
0.939357
0.769111
0.583698
0.388466
0.187386
-0.0241447
-0.256032
-0.517638
-0.810831
-1.13183
-1.47952
-1.86425
-2.29427
-2.77755
-3.34765
-4.03596
-4.83627
-5.67772
-6.44926
-7.0114
-7.07752
-6.41421
-5.23787
-3.98283
-2.89142
-2.01441
-1.31693
-0.743346
-0.240217
0.528237
1.4961
2.27837
2.80866
3.05085
3.11573
3.09373
2.99874
2.89951
2.85943
2.88533
2.9343
2.96251
2.98113
2.95575
2.83998
2.68059
2.51641
2.34114
2.18847
2.09197
2.0503
2.03082
2.00177
1.96929
1.91251
1.80564
1.68663
1.59669
1.54216
1.50005
1.44575
1.3836
1.2963
1.16015
0.99529
0.818646
0.625232
0.423089
0.218954
0.00673057
-0.22675
-0.494154
-0.796804
-1.12746
-1.48218
-1.87617
-2.31825
-2.81152
-3.40448
-4.14723
-5.04464
-6.01386
-6.93014
-7.66351
-7.82115
-7.0222
-5.58054
-4.11557
-2.91051
-1.98823
-1.28245
-0.717936
-0.231104
0.599702
1.67892
2.53959
3.10677
3.31341
3.33014
3.27553
3.13182
2.99045
2.93704
2.9765
3.04482
3.07759
3.1122
3.10031
2.96232
2.77689
2.59824
2.39787
2.22353
2.12327
2.09441
2.09023
2.06521
2.04243
1.99218
1.86769
1.72818
1.63229
1.58625
1.55577
1.50502
1.4516
1.37192
1.22651
1.05041
0.868331
0.666154
0.456471
0.250258
0.0391946
-0.194059
-0.466823
-0.779517
-1.11996
-1.4793
-1.88092
-2.3341
-2.83023
-3.4381
-4.23224
-5.23397
-6.34263
-7.41529
-8.36671
-8.66452
-7.69248
-5.91145
-4.20657
-2.88965
-1.93326
-1.22994
-0.682895
-0.218983
0.683239
1.88137
2.82649
3.43742
3.58851
3.54419
3.46064
3.25878
3.06629
2.99951
3.06003
3.15501
3.18739
3.24343
3.25449
3.0853
2.86812
2.67924
2.44883
2.2477
2.14416
2.13346
2.14967
2.1256
2.11584
2.07774
1.92893
1.7624
1.66002
1.62644
1.61162
1.56203
1.51993
1.45255
1.29385
1.10386
0.918384
0.706234
0.487951
0.280803
0.0730444
-0.157803
-0.435638
-0.759476
-1.1104
-1.4712
-1.87895
-2.34382
-2.83399
-3.4467
-4.28729
-5.4015
-6.66156
-7.89456
-9.1218
-9.63157
-8.43573
-6.21826
-4.24453
-2.82413
-1.8487
-1.15997
-0.638874
-0.20411
0.782587
2.10423
3.13949
3.80678
3.87416
3.75341
3.65134
3.37911
3.12428
3.04453
3.13592
3.26761
3.28967
3.37411
3.42277
3.20847
2.9521
2.7615
2.49417
2.25953
2.15342
2.16769
2.21118
2.18169
2.18931
2.17236
1.98953
1.78772
1.67859
1.66271
1.66903
1.61569
1.58819
1.5402
1.36186
1.15446
0.96933
0.745269
0.516764
0.310081
0.108083
-0.117701
-0.400499
-0.737178
-1.10011
-1.45802
-1.87046
-2.3502
-2.82341
-3.42858
-4.30829
-5.54485
-6.96968
-8.35353
-9.92682
-10.7535
-9.2646
-6.48347
-4.21685
-2.71002
-1.73469
-1.07367
-0.586796
-0.186819
0.903339
2.34762
3.4777
4.22341
4.16722
3.9515
3.85169
3.49233
3.16122
3.0695
3.20423
3.38688
3.38087
3.50286
3.6115
3.33069
3.02545
2.84827
2.53407
2.25726
2.14955
2.19735
2.27772
2.23141
2.26216
2.28036
2.04949
1.80213
1.6865
1.69504
1.73025
1.66426
1.65562
1.6378
1.42997
1.20049
1.02216
0.783068
0.542007
0.337578
0.144102
-0.0733271
-0.361201
-0.713077
-1.0908
-1.43965
-1.85522
-2.35699
-2.79935
-3.38222
-4.29064
-5.66202
-7.26866
-8.77239
-10.7756
-12.0713
-10.1939
-6.68267
-4.11005
-2.5447
-1.59243
-0.97274
-0.527805
-0.167498
1.05385
2.61075
3.83829
4.69936
4.46289
4.12973
4.06838
3.59787
3.1734
3.07147
3.26493
3.51918
3.45571
3.62727
3.82962
3.44992
3.0832
2.9445
2.56861
2.23874
2.13081
2.22256
2.35362
2.2715
2.33303
2.40771
2.10841
1.80318
1.68208
1.72338
1.79859
1.70516
1.72098
1.74949
1.49719
1.23957
1.07857
0.819408
0.562602
0.362809
0.180861
-0.0240868
-0.317434
-0.687528
-1.08469
-1.41563
-1.83233
-2.36923
-2.76275
-3.30641
-4.229
-5.75131
-7.56451
-9.12465
-11.6556
-13.6382
-11.2404
-6.78243
-3.91054
-2.32734
-1.42423
-0.859323
-0.463211
-0.146575
1.24647
2.89149
4.2155
5.25154
4.75417
4.27612
4.31176
3.69472
3.15654
3.04724
3.3176
3.67378
3.50651
3.74352
4.08967
3.56279
3.11827
3.05749
2.59755
2.20141
2.09526
2.2432
2.44506
2.29715
2.39962
2.56252
2.16525
1.78791
1.6635
1.7475
1.87886
1.73463
1.78235
1.88111
1.56193
1.2684
1.14119
0.853959
0.577255
0.385352
0.218041
0.0308093
-0.2688
-0.660697
-1.08469
-1.38507
-1.7998
-2.39361
-2.71448
-3.20041
-4.11703
-5.81099
-7.86979
-9.37566
-12.5456
-15.5238
-12.4234
-6.73758
-3.60581
-2.05936
-1.23349
-0.735941
-0.394415
-0.124492
1.49923
3.1859
4.59951
5.90354
5.03116
4.37459
4.59726
3.78095
3.10573
2.99339
3.36102
3.86394
3.52239
3.84586
4.40892
3.66406
3.12077
3.19779
2.62005
2.14226
2.04073
2.2586
2.56082
2.30146
2.45838
2.75581
2.21795
1.75285
1.62892
1.76675
1.97792
1.74732
1.83689
2.04074
1.62177
1.28253
1.21402
0.886163
0.584413
0.404911
0.255199
0.0923795
-0.214838
-0.632438
-1.09468
-1.3466
-1.75423
-2.439
-2.65498
-3.06423
-3.9471
-5.83856
-8.20643
-9.48116
-13.4122
-17.8184
-13.7636
-6.48821
-3.18623
-1.74483
-1.02455
-0.605338
-0.322838
-0.101683
1.83791
3.48763
4.97482
6.68794
5.28008
4.40373
4.94709
3.85298
3.01553
2.9064
3.39255
4.10822
3.48841
3.92601
4.81089
3.74597
3.07728
3.38035
2.63415
2.05787
1.965
2.26712
2.71309
2.27483
2.50415
3.00232
2.26289
1.69409
1.57654
1.77978
2.10537
1.73582
1.8806
2.23943
1.67309
1.27604
1.30286
0.915054
0.582228
0.421401
0.291692
0.161916
-0.155086
-0.602107
-1.11976
-1.29828
-1.69015
-2.51707
-2.58381
-2.89899
-3.71005
-5.8297
-8.60917
-9.38565
-14.2058
-20.6382
-15.2833
-5.95598
-2.64745
-1.39075
-0.80249
-0.470337
-0.249857
-0.0785611
2.29876
3.78716
5.31845
7.64904
5.48218
4.33562
5.39231
3.9045
2.88004
2.78297
3.40718
4.43212
3.38443
3.9724
5.32709
3.79749
2.96997
3.62583
2.6361
1.94446
1.86591
2.26559
2.91856
2.20429
2.5297
3.32161
2.29422
1.60735
1.50482
1.78401
2.27431
1.69011
1.90792
2.49194
1.71072
1.2412
1.41588
0.939004
0.568527
0.435051
0.326577
0.241045
-0.0891737
-0.568316
-1.16665
-1.23763
-1.59947
-2.64314
-2.49896
-2.70746
-3.39489
-5.77662
-9.12971
-9.02094
-14.8557
-24.1316
-17.0052
-5.04011
-1.99352
-1.00697
-0.572824
-0.333687
-0.176747
-0.0554988
2.93167
4.07094
5.59764
8.84617
5.61238
4.13427
5.97535
3.9251
2.69313
2.62035
3.3964
4.86998
3.18387
3.96935
5.99901
3.8033
2.77558
3.96225
2.61947
1.79808
1.74164
2.24854
3.19969
2.07264
2.52522
3.73926
2.30296
1.48823
1.4127
1.77509
2.5024
1.59693
1.91141
2.81779
1.72741
1.16808
1.56429
0.955391
0.5408
0.446543
0.358496
0.331805
-0.016964
-0.528621
-1.24405
-1.1616
-1.47059
-2.83714
-2.39603
-2.4947
-2.98876
-5.66582
-9.84151
-8.30473
-15.2644
-28.4862
-18.9508
-3.61293
-1.24083
-0.605814
-0.341148
-0.197929
-0.104634
-0.0328222
3.80397
4.3204
5.76729
10.3574
5.63764
3.75408
6.75287
3.89852
2.44885
2.41686
3.34665
5.46733
2.85235
3.89608
6.88038
3.74276
2.46444
4.42688
2.57398
1.6148
1.591
2.20723
3.58619
1.85756
2.47783
4.28826
2.27593
1.33243
1.29993
1.74606
2.81298
1.43901
1.88132
3.24223
1.71334
1.04419
1.7631
0.960164
0.496222
0.457162
0.385518
0.436752
0.0612575
-0.479128
-1.36313
-1.06673
-1.28754
-3.12486
-2.26711
-2.26891
-2.47699
-5.47514
-10.8451
-7.13951
-15.3012
-33.9368
-21.1393
-1.51516
-0.422855
-0.201267
-0.112737
-0.0652821
-0.034474
-0.010805
)
;

boundaryField
{
    left
    {
        type            calculated;
        value           uniform 0;
    }
    right
    {
        type            calculated;
        value           uniform 0;
    }
    interface
    {
        type            calculated;
        value           nonuniform List<scalar> 
64
(
3.80397
4.3204
5.76729
10.3574
5.63764
3.75408
6.75287
3.89852
2.44885
2.41686
3.34665
5.46733
2.85235
3.89608
6.88038
3.74276
2.46444
4.42688
2.57398
1.6148
1.591
2.20723
3.58619
1.85756
2.47783
4.28826
2.27593
1.33243
1.29993
1.74606
2.81298
1.43901
1.88132
3.24223
1.71334
1.04419
1.7631
0.960164
0.496222
0.457162
0.385518
0.436752
0.0612575
-0.479128
-1.36313
-1.06673
-1.28754
-3.12486
-2.26711
-2.26891
-2.47699
-5.47514
-10.8451
-7.13951
-15.3012
-33.9368
-21.1393
-1.51516
-0.422855
-0.201267
-0.112737
-0.0652821
-0.034474
-0.010805
)
;
    }
    bottom
    {
        type            calculated;
        value           nonuniform List<scalar> 
64
(
0.00630499
0.0187344
0.0306387
0.0417202
0.0517499
0.0605784
0.0681354
0.0744186
0.0794778
0.0833958
0.0862724
0.088212
0.0893164
0.0896825
0.0894028
0.0885664
0.0872601
0.0855676
0.0835664
0.0813253
0.0788999
0.0763309
0.0736432
0.0708469
0.0679398
0.0649098
0.0617373
0.0583967
0.0548572
0.051083
0.0470336
0.0426655
0.0379335
0.032793
0.0272022
0.0211235
0.0145245
0.00737924
-0.000331965
-0.00862076
-0.0174887
-0.0269234
-0.0368935
-0.0473417
-0.0581764
-0.0692627
-0.0804137
-0.0913821
-0.101857
-0.111465
-0.119783
-0.12636
-0.130754
-0.13257
-0.131512
-0.127416
-0.120277
-0.110248
-0.0976157
-0.0827652
-0.0661297
-0.0481503
-0.0292469
-0.00980741
)
;
    }
    defaultFaces
    {
        type            empty;
    }
}


// ************************************************************************* //
