/*--------------------------------*- C++ -*----------------------------------*\
| =========                 |                                                 |
| \\      /  F ield         | OpenFOAM: The Open Source CFD Toolbox           |
|  \\    /   O peration     | Version:  5.x                                   |
|   \\  /    A nd           | Web:      www.OpenFOAM.org                      |
|    \\/     M anipulation  |                                                 |
\*---------------------------------------------------------------------------*/
FoamFile
{
    version     2.0;
    format      ascii;
    class       volScalarField;
    location    "7";
    object      gradTx;
}
// * * * * * * * * * * * * * * * * * * * * * * * * * * * * * * * * * * * * * //

dimensions      [0 -1 0 1 0 0 0];

internalField   nonuniform List<scalar> 
3200
(
45.211
3.71181
1.6487
1.54016
0.814951
0.771364
0.46673
0.447274
0.293828
0.282722
0.170835
0.166692
0.180697
0.180847
0.173156
0.172315
0.159535
0.158418
0.144295
0.143112
0.128827
0.127657
0.113853
0.112758
0.100217
0.0993304
0.0901552
0.090149
0.0950809
0.164761
0.082503
0.0552596
0.0534312
0.0416825
0.0408553
0.0332573
0.0326985
0.0269814
0.0265518
0.0219933
0.0216467
0.0179076
0.01762
0.014472
0.0142248
0.0114565
0.0112294
0.0085666
0.00832783
0.00520448
0.00507367
0.00507318
0.00502559
0.0039607
0.00384764
0.0021971
0.00203165
-0.000274967
-0.000512385
-0.00387016
-0.00423254
-0.00949895
-0.0101041
-0.0191769
-0.0203249
-0.0381838
-0.0408565
-0.0840519
-0.0929758
-0.238818
-0.61752
-0.43638
-0.681873
-0.713245
-1.26862
-1.243
-0.0558133
-0.00753182
-0.00152595
-52.9459
47.8955
3.10518
1.57727
1.35449
0.77406
0.681006
0.436321
0.39472
0.271788
0.248195
0.160332
0.151487
0.160988
0.161196
0.155218
0.153444
0.143363
0.140999
0.129822
0.127316
0.116003
0.113523
0.102595
0.100276
0.0903703
0.0885067
0.0814348
0.0815855
0.0883714
0.137375
0.0766032
0.0516191
0.0475476
0.0380149
0.036241
0.0301838
0.0289952
0.0244546
0.0235425
0.0199255
0.01919
0.0162239
0.0156136
0.0131162
0.0125916
0.0103944
0.00991219
0.0077971
0.00729314
0.00485551
0.00457758
0.0045325
0.00442852
0.00358793
0.00334832
0.00203941
0.0016881
-0.000144793
-0.000649465
-0.00332133
-0.00409247
-0.00829068
-0.00958097
-0.0168389
-0.0192975
-0.0336991
-0.0394888
-0.0750735
-0.0949976
-0.227164
-0.517905
-0.415003
-0.602276
-0.666868
-1.08538
-1.03172
-0.121884
-0.0209044
-0.0043879
-54.742
50.5632
2.5764
1.45363
1.18312
0.713675
0.596714
0.39779
0.345419
0.245775
0.216239
0.146669
0.135549
0.14165
0.141792
0.137111
0.134906
0.126883
0.123933
0.115003
0.111872
0.102826
0.0997281
0.090992
0.0880969
0.0802014
0.0778913
0.0724255
0.0727565
0.0799733
0.114379
0.0692718
0.0471422
0.0418823
0.034037
0.031798
0.0269155
0.0254259
0.0217826
0.0206413
0.0177425
0.0168225
0.014446
0.0136827
0.0116815
0.0110252
0.00926357
0.00866024
0.00696314
0.00633578
0.00442014
0.00407217
0.00399416
0.00386091
0.00319112
0.00289177
0.00184341
0.0014038
-6.77555e-05
-0.000699865
-0.00284853
-0.00381533
-0.00719874
-0.00881915
-0.0146928
-0.0177923
-0.0295589
-0.0369293
-0.0667216
-0.0925298
-0.209166
-0.434035
-0.382019
-0.527587
-0.606333
-0.921031
-0.854692
-0.1556
-0.0308985
-0.00673351
-56.538
53.2103
2.11318
1.29591
1.01971
0.63919
0.5157
0.353396
0.29801
0.216957
0.185884
0.130667
0.118921
0.12255
0.122581
0.118905
0.116601
0.110199
0.107106
0.0999511
0.096664
0.0894107
0.0861583
0.0791554
0.0761179
0.0698091
0.0674021
0.0631843
0.0636521
0.0704875
0.0945635
0.0610213
0.0419904
0.0363204
0.0298347
0.0274607
0.0235115
0.0219428
0.0190104
0.0178104
0.0154802
0.0145133
0.0126036
0.0118012
0.0101929
0.00950309
0.00808644
0.00745203
0.00608637
0.00542994
0.00392206
0.00355595
0.00345801
0.00331475
0.00277947
0.00246517
0.00162304
0.00116078
-2.43031e-05
-0.000689609
-0.00242301
-0.00344153
-0.00617732
-0.00788721
-0.0126577
-0.0159405
-0.0255945
-0.0334729
-0.058529
-0.0864288
-0.186839
-0.361241
-0.341131
-0.455571
-0.536361
-0.771921
-0.702974
-0.166341
-0.0368712
-0.00833352
-58.3338
55.836
1.70408
1.11654
0.860477
0.554423
0.436238
0.304725
0.251627
0.18614
0.156495
0.112927
0.101679
0.103594
0.103519
0.100644
0.0984589
0.0933835
0.0904407
0.0847449
0.0816151
0.0758356
0.0727384
0.0671602
0.0642698
0.0592606
0.0569854
0.0537556
0.0542929
0.0603121
0.0770528
0.0521903
0.0363042
0.0307911
0.025468
0.0231864
0.0200122
0.0185142
0.016169
0.0150247
0.0131634
0.0122417
0.0107168
0.00995202
0.00866765
0.00800999
0.006878
0.00627306
0.00518122
0.00455815
0.0033783
0.003029
0.00292368
0.00278426
0.00235898
0.00205968
0.00138748
0.000946656
-1.64806e-06
-0.000636636
-0.00202609
-0.00299904
-0.00519694
-0.00683284
-0.0106821
-0.0138338
-0.0217012
-0.0293295
-0.0502227
-0.0774275
-0.161552
-0.296228
-0.294862
-0.384901
-0.460198
-0.63499
-0.569963
-0.160796
-0.0388065
-0.00906495
-60.1293
58.4415
1.33866
0.923905
0.703241
0.462142
0.35731
0.252918
0.205739
0.15389
0.127662
0.0938942
0.0839094
0.0847183
0.084568
0.0823559
0.0804328
0.0764825
0.0738861
0.069436
0.0666721
0.0621531
0.0594178
0.0550575
0.0525064
0.0486028
0.0466068
0.0441762
0.0447145
0.0497078
0.0612063
0.0430002
0.030203
0.0252543
0.0209796
0.0189477
0.0164459
0.0151195
0.0132795
0.0122676
0.0108091
0.00999426
0.00879961
0.00812358
0.00711727
0.00653586
0.00564847
0.00511354
0.00425732
0.00370863
0.0028013
0.00249228
0.00239069
0.0022652
0.00193345
0.00166909
0.00114265
0.00075283
8.46889e-06
-0.000553488
-0.00164583
-0.00250756
-0.00423904
-0.00568994
-0.00873449
-0.0115385
-0.0178174
-0.0246554
-0.041664
-0.0661494
-0.134243
-0.236656
-0.244936
-0.314821
-0.380055
-0.507653
-0.450718
-0.143763
-0.037052
-0.00890286
-61.9245
61.0293
1.00747
0.72351
0.546823
0.36441
0.278363
0.198822
0.160039
0.120614
0.0991318
0.0739099
0.0657085
0.0658807
0.0656999
0.064056
0.0624879
0.0595273
0.0574055
0.0540596
0.0517993
0.0483994
0.0461622
0.0428825
0.0407971
0.0378687
0.0362456
0.034478
0.0349578
0.0388432
0.0465479
0.0335937
0.0237878
0.0196904
0.0164014
0.0147279
0.0128325
0.0117453
0.0103569
0.0095284
0.00842893
0.00776198
0.00686166
0.00630833
0.00554988
0.00507395
0.00440483
0.00396688
0.0033211
0.00287343
0.00220037
0.00194726
0.00185866
0.00175439
0.00150521
0.00128898
0.00089235
0.00057318
1.12852e-05
-0.00044913
-0.0012748
-0.0019813
-0.00329237
-0.0044833
-0.00679645
-0.00910416
-0.0139113
-0.0195745
-0.0328062
-0.053127
-0.105562
-0.180849
-0.192546
-0.244927
-0.297418
-0.387697
-0.341475
-0.118721
-0.0321549
-0.00790502
-63.7194
63.6029
0.701925
0.518825
0.390634
0.262824
0.199157
0.143096
0.114364
0.0866209
0.0707507
0.0532447
0.0471726
0.0470571
0.0468903
0.0457531
0.0445986
0.0425386
0.0409739
0.0386399
0.0369721
0.0345991
0.0329483
0.0306596
0.0291215
0.0270823
0.0258901
0.0246899
0.0250648
0.0278259
0.0327159
0.0240612
0.0171443
0.0140942
0.0117586
0.0105169
0.00918676
0.00838317
0.00741188
0.00680001
0.00603147
0.00553903
0.00490982
0.00450128
0.00397118
0.00361976
0.00315194
0.00282851
0.00237695
0.00204725
0.00158263
0.00139565
0.00132725
0.00124936
0.00107565
0.000916085
0.00063895
0.000403235
1.00389e-05
-0.000330164
-0.000908543
-0.00143085
-0.00235051
-0.00323177
-0.00485864
-0.00656987
-0.00997097
-0.0141909
-0.0236648
-0.0388201
-0.0759668
-0.127587
-0.138529
-0.175029
-0.213269
-0.273201
-0.239292
-0.0882316
-0.0247653
-0.00619437
-65.5141
66.166
0.414183
0.311944
0.234429
0.158672
0.119646
0.0862764
0.068649
0.0521529
0.042435
0.0321222
0.0283985
0.0282356
0.0281195
0.0274508
0.0267456
0.02553
0.0245731
0.0231935
0.0221731
0.0207699
0.0197599
0.0184067
0.0174659
0.0162621
0.0155349
0.0148388
0.0150765
0.0167234
0.0194256
0.0144592
0.0103461
0.00846936
0.00707208
0.00630947
0.00551996
0.00502771
0.00445246
0.00407789
0.00362296
0.00332154
0.00294914
0.00269908
0.00238533
0.00217022
0.00189326
0.00169527
0.00142792
0.00122647
0.000953789
0.000839297
0.000796222
0.000748166
0.00064552
0.000547888
0.00038389
0.000239586
6.67039e-06
-0.000201674
-0.000544529
-0.000864512
-0.00141018
-0.00195042
-0.00291745
-0.00396799
-0.00599787
-0.00859714
-0.0142962
-0.0236335
-0.0457925
-0.0759511
-0.0834901
-0.105061
-0.128252
-0.16246
-0.141796
-0.0542382
-0.0155798
-0.0039421
-67.3085
68.7227
0.13691
0.104074
0.0781538
0.05305
0.0399096
0.0288274
0.0228892
0.0174137
0.0141432
0.0107361
0.00948196
0.00941225
0.00937076
0.00915006
0.00891301
0.00851107
0.00818925
0.00773267
0.00738942
0.00692496
0.00658519
0.00613732
0.00582089
0.00542274
0.00517852
0.00495041
0.0050317
0.00557869
0.00644212
0.00482314
0.00345846
0.00282536
0.00236013
0.00210309
0.00184127
0.00167557
0.00148501
0.00135897
0.00120831
0.00110689
0.000983571
0.000899432
0.000795531
0.000723149
0.000631422
0.000564798
0.000476251
0.000408527
0.000318615
0.000280084
0.000265387
0.000249153
0.000215189
0.000182343
0.00012804
7.9481e-05
2.31754e-06
-6.78045e-05
-0.000181431
-0.000289147
-0.000470073
-0.000651992
-0.000972925
-0.00132695
-0.00200199
-0.00287938
-0.00478205
-0.00793398
-0.0152983
-0.0252203
-0.0278896
-0.0350288
-0.0427955
-0.0539124
-0.0469753
-0.0182889
-0.00531345
-0.00135223
-69.1029
68.7147
0.150882
0.128426
0.107467
0.0852108
0.0726959
0.0607375
0.0533355
0.0448799
0.0387605
0.0310037
0.0281923
0.0283054
0.0282036
0.0273699
0.026472
0.0249563
0.0237697
0.0221258
0.0209324
0.0193762
0.0182809
0.0168943
0.0159487
0.0148039
0.0141273
0.0135375
0.0138355
0.0155142
0.0181005
0.0137245
0.0100681
0.0083891
0.00717812
0.00651191
0.00583341
0.00540037
0.00489622
0.00455801
0.00414691
0.00386565
0.00351731
0.00327537
0.00297051
0.00275328
0.00247079
0.00225818
0.00196459
0.0017289
0.00140658
0.00129388
0.00131167
0.00131347
0.00128075
0.00124219
0.00117441
0.00112029
0.00104397
0.000987323
0.000911425
0.000854622
0.000776539
0.000711053
0.000607932
0.000493834
0.000267776
-7.5717e-05
-0.000893143
-0.00243227
-0.0062197
-0.011789
-0.0150729
-0.0220587
-0.0294936
-0.0404377
-0.0360505
-0.0140889
-0.00409793
-0.00104324
-69.8074
66.1417
0.456016
0.385217
0.322454
0.255243
0.218065
0.18203
0.160049
0.134546
0.116347
0.0928132
0.08446
0.0849247
0.0846401
0.0821124
0.0794407
0.0748559
0.0713274
0.0663594
0.0628117
0.0581103
0.0548543
0.0506652
0.0478541
0.0443931
0.0423785
0.0405769
0.0414513
0.0465064
0.05458
0.0411447
0.0301251
0.0251486
0.0215126
0.0195362
0.0174904
0.016204
0.014682
0.0136769
0.0124355
0.0115996
0.0105477
0.00982864
0.00890803
0.00826247
0.00740958
0.00677779
0.00589146
0.00519017
0.00421137
0.00387642
0.00393567
0.00394179
0.00384249
0.00372775
0.0035227
0.00336175
0.00313113
0.00296274
0.00273352
0.00256472
0.00232912
0.00213467
0.00182424
0.00148598
0.00080803
-0.00020819
-0.00265056
-0.00720689
-0.0185878
-0.0354584
-0.0450706
-0.0661581
-0.0883404
-0.121926
-0.108854
-0.0417877
-0.0120163
-0.00304138
-69.4223
63.5614
0.771343
0.641686
0.537619
0.424073
0.363389
0.302761
0.266903
0.22392
0.194147
0.154016
0.140375
0.141574
0.141166
0.136861
0.132486
0.124713
0.118943
0.110536
0.104737
0.0967866
0.091465
0.0843811
0.0797856
0.0739244
0.0706213
0.0675093
0.0689
0.0773779
0.0919199
0.0684684
0.0499405
0.0418545
0.0357807
0.0325634
0.0291171
0.027017
0.0244472
0.0228054
0.020708
0.0193423
0.0175648
0.01639
0.0148346
0.01378
0.0123395
0.0113076
0.00981094
0.00866256
0.00699042
0.0064432
0.0065618
0.00657434
0.00640485
0.00621693
0.00586923
0.00560602
0.0052158
0.00494061
0.0045532
0.00427751
0.00388006
0.00356293
0.00304167
0.00249173
0.00136182
-0.000283606
-0.0043234
-0.0117085
-0.0307363
-0.059418
-0.0746093
-0.110214
-0.146731
-0.205281
-0.183818
-0.0679948
-0.0191029
-0.00477924
-69.037
60.969
1.10394
0.897132
0.753163
0.590789
0.508711
0.4225
0.374042
0.312766
0.272361
0.214158
0.195696
0.198288
0.197849
0.191612
0.185667
0.17449
0.166664
0.154609
0.146749
0.135358
0.128146
0.117997
0.111768
0.103353
0.0988564
0.0942617
0.0960652
0.108007
0.13078
0.0955951
0.0693383
0.0584799
0.0499346
0.0455997
0.0406899
0.0378489
0.0341753
0.031952
0.0289512
0.0271015
0.0245578
0.0229666
0.0207411
0.0193129
0.0172532
0.015856
0.0137165
0.0121559
0.00972449
0.00898337
0.00919219
0.00921419
0.00896798
0.00871253
0.00821241
0.00785539
0.0072959
0.00692299
0.00636844
0.00599518
0.00542781
0.00499938
0.00426026
0.0035207
0.00193626
-0.000263226
-0.0058624
-0.0157444
-0.0424986
-0.0839173
-0.103331
-0.154233
-0.20424
-0.291836
-0.262556
-0.0915246
-0.0248067
-0.00609943
-68.6516
58.36
1.46128
1.15007
0.969444
0.754294
0.654198
0.54073
0.481694
0.400777
0.351287
0.272711
0.250176
0.255122
0.254763
0.246351
0.239058
0.224134
0.214554
0.198514
0.188902
0.173762
0.164945
0.151457
0.143837
0.132626
0.127095
0.120758
0.122825
0.138203
0.171958
0.122365
0.0881202
0.075013
0.0639201
0.0586591
0.0521801
0.0487141
0.0438454
0.0411299
0.0371484
0.0348885
0.0315127
0.0295686
0.0266158
0.0248712
0.0221404
0.0204342
0.017599
0.0156842
0.012391
0.0114856
0.0118301
0.0118648
0.0115315
0.0112179
0.0105499
0.0101129
0.00936857
0.00891266
0.00817645
0.00772064
0.00697002
0.00644828
0.0054789
0.00458348
0.00253532
-0.000106829
-0.00723006
-0.0191053
-0.0536742
-0.109297
-0.130794
-0.198287
-0.260246
-0.383067
-0.346964
-0.110882
-0.02859
-0.00686985
-68.266
55.7308
1.85139
1.39777
1.1871
0.913196
0.80022
0.656782
0.590221
0.487531
0.431377
0.329023
0.303556
0.31217
0.311999
0.301046
0.292754
0.273563
0.262702
0.242161
0.231276
0.211913
0.201931
0.184682
0.176051
0.161671
0.155367
0.146919
0.149052
0.167664
0.21647
0.148521
0.106057
0.0914655
0.0776725
0.0717674
0.0635498
0.0596356
0.0534295
0.0503584
0.0452769
0.0427202
0.0384105
0.0362111
0.0324422
0.030469
0.0269867
0.0250575
0.0214447
0.0192676
0.014962
0.0139378
0.0144804
0.0145302
0.0140943
0.0137376
0.0128782
0.0123827
0.0114297
0.0109136
0.00997328
0.00945794
0.00850312
0.00791513
0.00669461
0.00569241
0.00315818
0.000228849
-0.00840759
-0.0215584
-0.0640076
-0.136041
-0.156416
-0.242563
-0.313817
-0.480654
-0.439371
-0.124087
-0.0299505
-0.00699548
-67.8802
53.0784
2.28284
1.63576
1.4073
1.06566
0.94746
0.76976
0.700193
0.572423
0.513314
0.382259
0.355573
0.369568
0.369667
0.355634
0.346886
0.32266
0.311238
0.285423
0.273989
0.249689
0.239208
0.217563
0.208494
0.190394
0.183724
0.172656
0.174621
0.195917
0.265653
0.173658
0.122878
0.107886
0.0911095
0.0849682
0.0747475
0.0706488
0.0628883
0.0596675
0.0533044
0.0506221
0.0452239
0.0429164
0.0381969
0.0361273
0.0317709
0.0297483
0.025233
0.0229362
0.0174018
0.0163274
0.0171505
0.017215
0.016654
0.0162774
0.015192
0.0146709
0.0134735
0.0129315
0.0117532
0.0112129
0.0100216
0.00940731
0.00790163
0.00686267
0.00379688
0.000792858
-0.00940449
-0.0228395
-0.0731576
-0.164851
-0.179408
-0.287434
-0.363564
-0.586566
-0.542738
-0.128447
-0.0284637
-0.00643157
-67.4942
50.4013
2.7648
1.85701
1.63201
1.20919
1.09708
0.878412
0.812493
0.654569
0.59813
0.43132
0.405962
0.427523
0.427899
0.410011
0.401637
0.371244
0.360349
0.32811
0.317217
0.286913
0.276931
0.24994
0.241299
0.218659
0.212258
0.197872
0.199416
0.222233
0.321305
0.197146
0.138269
0.124379
0.104121
0.0983324
0.0857005
0.0818086
0.0721656
0.0691024
0.0611848
0.0586327
0.0519138
0.0497183
0.0438457
0.041877
0.0364619
0.0345389
0.0289327
0.0267343
0.0196633
0.0186412
0.019851
0.019925
0.0192063
0.0188456
0.0174832
0.0169862
0.0154911
0.0149749
0.0135076
0.0129939
0.011517
0.0109352
0.00909004
0.00811404
0.00443317
0.00164465
-0.0102718
-0.0226453
-0.0806523
-0.196747
-0.19866
-0.333581
-0.407437
-0.70315
-0.660923
-0.120234
-0.0238589
-0.00519712
-67.1079
47.7005
3.30677
2.05095
1.86464
1.34029
1.25096
0.980953
0.928473
0.732656
0.68736
0.474724
0.454475
0.486325
0.486863
0.464008
0.457269
0.419049
0.410315
0.369942
0.361222
0.323323
0.315335
0.281584
0.274664
0.246275
0.241111
0.222451
0.223361
0.245499
0.385887
0.218023
0.15186
0.141126
0.116554
0.11197
0.096304
0.0931986
0.0811798
0.0787316
0.0688508
0.0668102
0.058423
0.0566675
0.0493385
0.0477648
0.0410133
0.0394769
0.0324962
0.0307275
0.0216829
0.0208658
0.022597
0.0226667
0.0217444
0.0214539
0.0197399
0.0193415
0.0174696
0.0170565
0.0152239
0.0148134
0.0129767
0.0125137
0.0102437
0.00947367
0.00503382
0.00286163
-0.0111208
-0.0206255
-0.0858235
-0.233209
-0.212592
-0.382171
-0.442435
-0.833252
-0.799047
-0.0942485
-0.0161455
-0.00338692
-66.7215
44.9805
3.91817
2.2021
2.1108
1.45398
1.41207
1.07479
1.05019
0.804722
0.783284
0.510432
0.500905
0.546379
0.546763
0.51736
0.51416
0.465674
0.461546
0.410509
0.406394
0.358538
0.354769
0.312154
0.308888
0.272962
0.270504
0.246248
0.246457
0.264035
0.462799
0.234833
0.163234
0.158427
0.128188
0.126052
0.106405
0.104945
0.0898114
0.0886583
0.0762033
0.0752417
0.0646669
0.0638396
0.0546012
0.0538598
0.0453561
0.0446329
0.0358512
0.0350118
0.0233735
0.0229885
0.0254095
0.0254481
0.0242573
0.0241193
0.0219441
0.0217558
0.0193898
0.0191949
0.0168834
0.0166902
0.0143815
0.0141645
0.0113375
0.0109802
0.00554383
0.00455109
-0.0121488
-0.016378
-0.0877069
-0.276392
-0.218916
-0.435133
-0.46421
-0.980355
-0.963994
-0.0431951
-0.00581832
-0.00117789
-66.3349
44.9805
3.91817
2.2021
2.1108
1.45398
1.41207
1.07479
1.05019
0.804722
0.783284
0.510432
0.500905
0.546379
0.546763
0.51736
0.51416
0.465674
0.461546
0.41051
0.406394
0.358538
0.354769
0.312155
0.308888
0.272962
0.270504
0.246248
0.246457
0.264036
0.4628
0.234834
0.163235
0.158427
0.128188
0.126052
0.106406
0.104946
0.0898117
0.0886585
0.0762035
0.0752419
0.0646671
0.0638399
0.0546014
0.05386
0.0453563
0.044633
0.0358513
0.0350119
0.0233735
0.0229885
0.0254096
0.0254482
0.0242574
0.0241194
0.0219442
0.0217559
0.0193899
0.019195
0.0168835
0.0166903
0.0143816
0.0141646
0.0113376
0.0109803
0.00554398
0.00455124
-0.0121485
-0.0163777
-0.0877063
-0.27639
-0.218916
-0.435133
-0.46421
-0.980358
-0.963997
-0.0431952
-0.00581833
-0.00117792
-66.3349
47.7005
3.30677
2.05095
1.86464
1.34029
1.25096
0.980953
0.928473
0.732656
0.68736
0.474724
0.454475
0.486325
0.486863
0.464008
0.457269
0.419049
0.410315
0.369943
0.361222
0.323324
0.315335
0.281584
0.274664
0.246275
0.241111
0.222452
0.223361
0.245499
0.385888
0.218024
0.15186
0.141126
0.116555
0.111971
0.0963043
0.0931989
0.0811801
0.0787319
0.068851
0.0668104
0.0584232
0.0566677
0.0493387
0.047765
0.0410134
0.0394771
0.0324963
0.0307276
0.021683
0.0208658
0.0225971
0.0226668
0.0217445
0.021454
0.0197401
0.0193416
0.0174697
0.0170566
0.015224
0.0148136
0.0129768
0.0125138
0.0102438
0.00947379
0.00503396
0.00286179
-0.0111205
-0.0206252
-0.0858229
-0.233208
-0.212592
-0.382171
-0.442435
-0.833255
-0.799049
-0.0942487
-0.0161455
-0.00338696
-66.7215
50.4013
2.7648
1.85701
1.63201
1.20919
1.09708
0.878411
0.812493
0.654569
0.59813
0.43132
0.405962
0.427523
0.4279
0.410011
0.401637
0.371244
0.36035
0.32811
0.317217
0.286913
0.276931
0.24994
0.241299
0.218659
0.212258
0.197873
0.199417
0.222233
0.321306
0.197147
0.138269
0.124379
0.104121
0.0983326
0.0857008
0.0818089
0.0721658
0.0691026
0.0611851
0.0586329
0.051914
0.0497185
0.0438459
0.0418772
0.036462
0.0345391
0.0289328
0.0267345
0.0196634
0.0186413
0.0198511
0.019925
0.0192064
0.0188457
0.0174833
0.0169863
0.0154912
0.0149751
0.0135077
0.012994
0.0115171
0.0109353
0.00909014
0.00811415
0.0044333
0.0016448
-0.0102716
-0.022645
-0.0806518
-0.196746
-0.19866
-0.333581
-0.407437
-0.703152
-0.660925
-0.120234
-0.0238589
-0.00519714
-67.1079
53.0784
2.28284
1.63576
1.4073
1.06566
0.94746
0.76976
0.700193
0.572423
0.513314
0.382259
0.355573
0.369568
0.369667
0.355634
0.346886
0.32266
0.311238
0.285423
0.273989
0.249689
0.239208
0.217563
0.208494
0.190394
0.183725
0.172656
0.174621
0.195917
0.265653
0.173658
0.122879
0.107887
0.0911097
0.0849685
0.0747478
0.070649
0.0628885
0.0596677
0.0533046
0.0506223
0.0452241
0.0429166
0.0381971
0.0361274
0.031771
0.0297485
0.0252331
0.0229363
0.0174019
0.0163275
0.0171506
0.0172151
0.016654
0.0162775
0.015192
0.014671
0.0134736
0.0129316
0.0117533
0.0112129
0.0100217
0.0094074
0.00790172
0.00686276
0.003797
0.000792987
-0.0094043
-0.0228393
-0.0731571
-0.16485
-0.179407
-0.287434
-0.363565
-0.586567
-0.542739
-0.128447
-0.0284638
-0.00643157
-67.4942
55.7308
1.85138
1.39777
1.1871
0.913196
0.80022
0.656782
0.590221
0.487531
0.431377
0.329023
0.303556
0.31217
0.311999
0.301046
0.292754
0.273563
0.262702
0.242161
0.231276
0.211913
0.201931
0.184682
0.176051
0.161671
0.155367
0.146919
0.149053
0.167664
0.216471
0.148521
0.106057
0.0914658
0.0776727
0.0717676
0.06355
0.0596357
0.0534297
0.0503586
0.045277
0.0427203
0.0384106
0.0362112
0.0324424
0.0304691
0.0269868
0.0250577
0.0214448
0.0192676
0.0149621
0.0139379
0.0144805
0.0145302
0.0140944
0.0137377
0.0128783
0.0123828
0.0114298
0.0109137
0.00997336
0.00945801
0.0085032
0.0079152
0.00669469
0.00569249
0.00315827
0.000228959
-0.00840743
-0.0215582
-0.0640073
-0.13604
-0.156416
-0.242563
-0.313817
-0.480655
-0.439372
-0.124087
-0.0299506
-0.00699545
-67.8802
58.36
1.46128
1.15006
0.969443
0.754294
0.654198
0.54073
0.481694
0.400777
0.351287
0.272711
0.250176
0.255122
0.254763
0.246351
0.239058
0.224134
0.214554
0.198514
0.188902
0.173762
0.164945
0.151457
0.143837
0.132626
0.127096
0.120758
0.122825
0.138203
0.171958
0.122365
0.0881204
0.0750132
0.0639203
0.0586593
0.0521802
0.0487143
0.0438455
0.04113
0.0371485
0.0348886
0.0315128
0.0295688
0.0266159
0.0248713
0.0221405
0.0204343
0.0175991
0.0156842
0.012391
0.0114856
0.0118301
0.0118648
0.0115316
0.011218
0.01055
0.0101129
0.00936863
0.00891272
0.00817651
0.0077207
0.00697008
0.00644834
0.00547896
0.00458355
0.0025354
-0.00010674
-0.00722993
-0.0191051
-0.0536739
-0.109296
-0.130794
-0.198287
-0.260246
-0.383068
-0.346965
-0.110882
-0.0285901
-0.0068698
-68.266
60.969
1.10394
0.897132
0.753163
0.590789
0.508711
0.4225
0.374042
0.312766
0.272361
0.214158
0.195696
0.198288
0.197849
0.191612
0.185667
0.17449
0.166664
0.154609
0.146749
0.135358
0.128146
0.117998
0.111768
0.103354
0.0988565
0.0942618
0.0960653
0.108007
0.13078
0.0955954
0.0693385
0.0584801
0.0499347
0.0455998
0.04069
0.037849
0.0341754
0.0319521
0.0289513
0.0271016
0.0245578
0.0229667
0.0207412
0.019313
0.0172533
0.0158561
0.0137166
0.012156
0.00972453
0.0089834
0.00919222
0.00921422
0.00896802
0.00871257
0.00821246
0.00785543
0.00729595
0.00692303
0.00636848
0.00599522
0.00542785
0.00499943
0.00426031
0.00352075
0.00193632
-0.000263158
-0.00586231
-0.0157442
-0.0424984
-0.0839169
-0.103331
-0.154233
-0.20424
-0.291837
-0.262557
-0.0915247
-0.0248067
-0.00609938
-68.6516
63.5614
0.771341
0.641686
0.537619
0.424073
0.363389
0.302761
0.266903
0.22392
0.194147
0.154016
0.140375
0.141574
0.141166
0.136861
0.132486
0.124713
0.118943
0.110536
0.104737
0.0967866
0.0914651
0.0843811
0.0797857
0.0739245
0.0706213
0.0675094
0.0689001
0.077378
0.0919201
0.0684686
0.0499406
0.0418546
0.0357808
0.0325635
0.0291171
0.0270171
0.0244473
0.0228054
0.020708
0.0193424
0.0175648
0.01639
0.0148346
0.01378
0.0123396
0.0113076
0.00981098
0.00866259
0.00699045
0.00644322
0.00656182
0.00657436
0.00640488
0.00621696
0.00586927
0.00560605
0.00521584
0.00494064
0.00455323
0.00427754
0.00388009
0.00356296
0.0030417
0.00249177
0.00136186
-0.000283558
-0.00432333
-0.0117084
-0.0307361
-0.0594178
-0.0746091
-0.110214
-0.146731
-0.205282
-0.183818
-0.0679949
-0.0191029
-0.00477918
-69.037
66.1417
0.456015
0.385216
0.322454
0.255243
0.218065
0.18203
0.160049
0.134546
0.116347
0.0928132
0.08446
0.0849247
0.0846401
0.0821124
0.0794408
0.0748559
0.0713275
0.0663594
0.0628117
0.0581103
0.0548543
0.0506653
0.0478542
0.0443931
0.0423786
0.040577
0.0414514
0.0465065
0.0545801
0.0411448
0.0301252
0.0251486
0.0215126
0.0195363
0.0174905
0.016204
0.0146821
0.013677
0.0124356
0.0115997
0.0105477
0.00982867
0.00890806
0.0082625
0.00740961
0.00677781
0.00589148
0.00519019
0.00421139
0.00387643
0.00393568
0.0039418
0.0038425
0.00372777
0.00352272
0.00336177
0.00313114
0.00296276
0.00273353
0.00256474
0.00232913
0.00213469
0.00182426
0.001486
0.000808052
-0.000208163
-0.00265052
-0.00720684
-0.0185877
-0.0354582
-0.0450705
-0.0661581
-0.0883405
-0.121927
-0.108855
-0.0417878
-0.0120163
-0.00304134
-69.4223
68.7147
0.150882
0.128425
0.107467
0.0852108
0.0726959
0.0607375
0.0533355
0.0448799
0.0387605
0.0310037
0.0281923
0.0283054
0.0282036
0.0273699
0.026472
0.0249563
0.0237697
0.0221258
0.0209324
0.0193763
0.0182809
0.0168943
0.0159487
0.014804
0.0141273
0.0135375
0.0138355
0.0155143
0.0181005
0.0137245
0.0100681
0.00838912
0.00717814
0.00651193
0.00583342
0.00540038
0.00489623
0.00455802
0.00414692
0.00386566
0.00351732
0.00327538
0.00297052
0.00275329
0.0024708
0.00225819
0.0019646
0.00172891
0.00140659
0.00129388
0.00131168
0.00131347
0.00128075
0.0012422
0.00117442
0.00112029
0.00104398
0.000987329
0.000911431
0.000854628
0.000776545
0.000711059
0.000607938
0.00049384
0.000267783
-7.57086e-05
-0.000893131
-0.00243226
-0.00621967
-0.0117889
-0.0150729
-0.0220587
-0.0294936
-0.0404378
-0.0360506
-0.0140889
-0.00409793
-0.00104322
-69.8074
68.7223
0.136742
0.103795
0.0777605
0.0524428
0.0390538
0.0275029
0.0210893
0.0150023
0.0125849
0.011923
0.011573
0.0110199
0.0105817
0.00996789
0.00952195
0.00893963
0.00852163
0.00797841
0.00758744
0.00707784
0.00671242
0.00623926
0.0059081
0.005495
0.00524218
0.00500581
0.00508427
0.00563259
0.00650153
0.00486609
0.00348785
0.00284852
0.00237884
0.0021194
0.00185524
0.00168811
0.00149596
0.00136888
0.00121703
0.00111482
0.000990565
0.000905798
0.000801137
0.000728234
0.00063586
0.000568775
0.000479624
0.000411442
0.000320931
0.000282172
0.000267459
0.000251197
0.000217142
0.000184209
0.000129766
8.11004e-05
3.79301e-06
-6.64318e-05
-0.00018019
-0.000287997
-0.000469039
-0.000651037
-0.000972067
-0.00132615
-0.00200127
-0.00287872
-0.00478144
-0.00793337
-0.0152976
-0.0252196
-0.0278891
-0.0350284
-0.0427952
-0.0539122
-0.0469751
-0.0182888
-0.00531342
-0.00135219
-69.1029
66.1647
0.41368
0.31111
0.233253
0.156851
0.117088
0.0823032
0.0632548
0.0448603
0.0376845
0.0357566
0.0347272
0.033055
0.0317523
0.029897
0.0285713
0.0268123
0.0255699
0.0239291
0.0227671
0.0212277
0.0201416
0.0187121
0.0177276
0.0164786
0.0157259
0.0150048
0.015234
0.0168849
0.0196048
0.014588
0.010434
0.00853878
0.0071281
0.0063584
0.00556184
0.00506533
0.00448528
0.00410764
0.00364911
0.00334535
0.00297012
0.00271819
0.00240214
0.00218548
0.00190657
0.00170721
0.00143803
0.00123522
0.000960721
0.000845553
0.000802439
0.000754303
0.000651381
0.000553486
0.000389066
0.000244446
1.10952e-05
-0.000197555
-0.000540807
-0.000861063
-0.00140708
-0.00194755
-0.00291488
-0.00396562
-0.00599572
-0.00859514
-0.0142943
-0.0236316
-0.0457906
-0.0759489
-0.0834885
-0.10506
-0.128252
-0.162459
-0.141795
-0.054238
-0.0155797
-0.00394199
-67.3085
63.6008
0.70109
0.517435
0.388687
0.259794
0.194923
0.136474
0.105394
0.0742694
0.0625742
0.0595542
0.057907
0.0550753
0.0529449
0.0498048
0.047638
0.0446643
0.0426341
0.0398607
0.0379618
0.0353595
0.0335845
0.0311672
0.0295576
0.0274423
0.0262083
0.0249659
0.0253269
0.0280945
0.0330174
0.0242753
0.0172897
0.0142096
0.0118517
0.0105985
0.00925643
0.00844589
0.00746649
0.00684964
0.006075
0.00557873
0.00494473
0.00453314
0.00399916
0.00364521
0.00317409
0.00284843
0.00239378
0.00206186
0.00159414
0.00140605
0.00133762
0.0012596
0.00108542
0.000925423
0.000647572
0.00041134
1.7408e-05
-0.000323294
-0.000902346
-0.0014251
-0.00234534
-0.00322699
-0.00485435
-0.00656591
-0.00996741
-0.0141876
-0.0236617
-0.038817
-0.0759635
-0.127583
-0.138527
-0.175027
-0.213267
-0.2732
-0.239291
-0.0882313
-0.0247651
-0.00619421
-65.5141
61.0264
1.0063
0.721565
0.544126
0.360176
0.272501
0.18955
0.147535
0.102901
0.0871168
0.0832969
0.0811343
0.0770675
0.0741779
0.0696738
0.066737
0.0624786
0.059728
0.0557573
0.0531846
0.0494582
0.047053
0.0435899
0.0414079
0.0383708
0.0366911
0.0348627
0.0353235
0.0392179
0.0469767
0.0338924
0.0239893
0.0198516
0.0165311
0.0148421
0.0129298
0.0118332
0.0104332
0.00959793
0.00848974
0.00781761
0.00691044
0.00635298
0.00558898
0.00510962
0.00443579
0.0039948
0.00334462
0.00289393
0.00221636
0.00196176
0.00187318
0.00176874
0.00151888
0.00130207
0.000904411
0.000584539
2.15891e-05
-0.000439503
-0.00126614
-0.00197324
-0.00328515
-0.0044766
-0.00679046
-0.0090986
-0.0139063
-0.0195699
-0.0328019
-0.0531228
-0.105558
-0.180844
-0.192543
-0.244925
-0.297416
-0.387696
-0.341473
-0.118721
-0.0321548
-0.00790484
-63.7194
58.4378
1.33718
0.921402
0.699826
0.456707
0.34989
0.240989
0.189781
0.130379
0.111181
0.106973
0.104438
0.0990127
0.0954755
0.0894801
0.0858888
0.0802326
0.0768708
0.071598
0.0684536
0.063504
0.0605639
0.0559614
0.0532924
0.0492449
0.0471798
0.044668
0.0451827
0.0501867
0.0617697
0.0433822
0.0304582
0.0254609
0.0211453
0.0190946
0.0165704
0.0152326
0.0133773
0.0123571
0.010887
0.0100659
0.00886215
0.00818107
0.0071674
0.00658181
0.00568817
0.00514953
0.00428747
0.00373507
0.00282166
0.00251082
0.00240937
0.00228369
0.00195102
0.00168595
0.00115813
0.000767457
2.16924e-05
-0.000541092
-0.00163472
-0.00249719
-0.00422978
-0.00568131
-0.0087268
-0.0115313
-0.0178111
-0.0246494
-0.0416585
-0.066144
-0.134238
-0.236649
-0.244931
-0.314818
-0.380052
-0.507651
-0.450717
-0.143763
-0.0370518
-0.00890268
-61.9245
55.8315
1.70229
1.11347
0.856388
0.547786
0.427362
0.29012
0.232355
0.156249
0.134645
0.130583
0.127857
0.120882
0.116871
0.10919
0.105123
0.0978948
0.0940899
0.0873535
0.0837947
0.0774695
0.0741412
0.0682555
0.065232
0.0600398
0.0576863
0.0543522
0.0548623
0.0608923
0.0777614
0.0526535
0.03661
0.0310429
0.0256688
0.023366
0.0201637
0.0186527
0.016288
0.0151343
0.0132583
0.0123294
0.0107929
0.0100225
0.00872868
0.0080663
0.00692634
0.0063172
0.00521792
0.00459064
0.00340286
0.0030515
0.00294652
0.00280691
0.00238045
0.00208033
0.00140637
0.000964573
1.44718e-05
-0.000621453
-0.00201254
-0.00298634
-0.00518565
-0.00682228
-0.0106728
-0.013825
-0.0216934
-0.0293221
-0.0502161
-0.0774209
-0.161545
-0.296219
-0.294856
-0.384897
-0.460194
-0.634988
-0.569961
-0.160795
-0.0388064
-0.00906479
-60.1293
53.2051
2.11109
1.29227
1.01501
0.631338
0.505507
0.336071
0.275662
0.179939
0.157408
0.154139
0.151446
0.142634
0.138414
0.128756
0.124484
0.11542
0.111426
0.102982
0.0992465
0.091315
0.0878209
0.0804351
0.0772583
0.0707211
0.0682321
0.0638827