/*--------------------------------*- C++ -*----------------------------------*\
| =========                 |                                                 |
| \\      /  F ield         | OpenFOAM: The Open Source CFD Toolbox           |
|  \\    /   O peration     | Version:  5.x                                   |
|   \\  /    A nd           | Web:      www.OpenFOAM.org                      |
|    \\/     M anipulation  |                                                 |
\*---------------------------------------------------------------------------*/
FoamFile
{
    version     2.0;
    format      ascii;
    class       volScalarField;
    location    "7";
    object      gradTy;
}
// * * * * * * * * * * * * * * * * * * * * * * * * * * * * * * * * * * * * * //

dimensions      [0 -1 0 1 0 0 0];

internalField   nonuniform List<scalar> 
3200
(
18.249
8.63589
11.7299
8.31249
9.74988
8.03991
8.79409
7.79286
8.24176
7.60093
7.87633
7.51745
7.72791
7.31759
7.52983
7.13957
7.33874
6.98018
7.16195
6.83805
7.00136
6.71243
6.85751
6.60239
6.73039
6.50625
6.6205
6.42088
6.53585
6.36674
6.2316
6.31875
6.20029
6.25793
6.1658
6.21043
6.13647
6.17237
6.11226
6.14145
6.09243
6.11621
6.07628
6.09557
6.0633
6.07874
6.05319
6.06508
6.04598
6.05415
6.04309
6.04922
6.03768
6.04305
6.03414
6.03775
6.03286
6.03388
6.03458
6.03189
6.04066
6.03231
6.05368
6.03585
6.07864
6.04278
6.12653
6.04835
6.22317
6.00075
6.29315
7.10888
6.4216
7.94768
6.78058
9.8963
9.12566
9.00781
8.98348
8.97824
17.0094
9.75181
11.3323
8.77647
9.5471
8.27009
8.67385
7.92538
8.16458
7.68512
7.83216
7.56429
7.67645
7.36905
7.48117
7.18882
7.29413
7.02556
7.1217
6.8791
6.9655
6.74909
6.82585
6.63479
6.70255
6.53471
6.59535
6.44606
6.50839
6.37052
6.25648
6.30436
6.21589
6.24662
6.17766
6.20133
6.14595
6.16497
6.11996
6.13542
6.09871
6.1113
6.0814
6.09161
6.06744
6.07561
6.05648
6.06277
6.04846
6.05281
6.04454
6.0478
6.03915
6.04197
6.0353
6.0372
6.03353
6.03406
6.03457
6.03312
6.03967
6.03521
6.05117
6.04163
6.0736
6.05429
6.11672
6.07393
6.20337
6.07616
6.35163
6.99358
6.62344
7.76501
7.158
9.50298
9.09952
9.00404
8.98269
8.978
16.0601
10.5142
11.1001
9.10735
9.4262
8.433
8.59967
8.01837
8.11612
7.74422
7.80456
7.59589
7.64173
7.4037
7.44866
7.22214
7.26444
7.05632
7.09497
6.90696
6.94171
6.774
6.80489
6.65681
6.6841
6.554
6.57858
6.46275
6.48891
6.37333
6.27485
6.29542
6.22671
6.23928
6.18581
6.19538
6.15245
6.16012
6.12523
6.13146
6.103
6.10807
6.0849
6.08901
6.07028
6.07357
6.05874
6.06127
6.05019
6.05195
6.04552
6.04685
6.04015
6.04128
6.03611
6.03686
6.03402
6.03422
6.03463
6.03402
6.03912
6.03728
6.04969
6.04575
6.07059
6.06253
6.11111
6.09261
6.19384
6.13546
6.39546
6.91877
6.76482
7.6523
7.41735
9.21962
9.06109
8.99733
8.98125
8.9776
15.3326
11.0313
10.971
9.34577
9.35779
8.54952
8.55541
8.08419
8.08645
7.78602
7.78772
7.61731
7.61837
7.42704
7.42701
7.2447
7.24477
7.07721
7.07731
6.92592
6.92603
6.79097
6.79108
6.67181
6.67195
6.56711
6.56742
6.47376
6.4751
6.37545
6.28847
6.29004
6.23428
6.23459
6.19143
6.19153
6.15692
6.15697
6.12885
6.12889
6.10595
6.10598
6.08731
6.08733
6.07224
6.07225
6.06031
6.06032
6.0514
6.05143
6.04619
6.04621
6.04084
6.04083
6.03668
6.03667
6.0344
6.03438
6.03473
6.0347
6.03884
6.03878
6.04885
6.04871
6.0689
6.06851
6.10819
6.1065
6.19069
6.18202
6.42876
6.87105
6.86454
7.58448
7.59522
9.01469
9.01886
8.98871
8.97932
8.97705
14.7771
11.3787
10.9045
9.51871
9.32218
8.63347
8.53023
8.13108
8.06888
7.81574
7.77777
7.63188
7.60271
7.44272
7.41265
7.25997
7.23181
7.09139
7.06571
6.93881
6.91575
6.80252
6.78205
6.68204
6.66399
6.576
6.56001
6.48096
6.46533
6.37706
6.29854
6.28696
6.2396
6.23163
6.19533
6.18906
6.16
6.15495
6.13134
6.12723
6.10799
6.10464
6.08897
6.08625
6.07359
6.07141
6.0614
6.05972
6.05226
6.05111
6.04665
6.0458
6.04131
6.04055
6.03708
6.03657
6.03468
6.03453
6.03485
6.03521
6.03873
6.03988
6.04842
6.05087
6.06804
6.07288
6.10693
6.11696
6.19125
6.21836
6.45423
6.84129
6.9352
7.54504
7.71673
8.86637
8.97801
8.97926
8.9771
8.97642
14.3576
11.6092
10.8745
9.64407
9.30626
8.694
8.51689
8.16449
8.05895
7.83686
7.77213
7.64177
7.59228
7.4532
7.40319
7.27026
7.22333
7.10098
7.05816
6.94755
6.90908
6.81037
6.7762
6.68898
6.65883
6.58202
6.55513
6.48563
6.45846
6.37829
6.30593
6.28531
6.24335
6.2298
6.19802
6.18751
6.16212
6.15367
6.13306
6.12619
6.10939
6.10379
6.09011
6.08557
6.07452
6.07089
6.06216
6.05936
6.05286
6.05093
6.04697
6.04552
6.04164
6.04038
6.03737
6.03652
6.0349
6.03465
6.03496
6.03559
6.03872
6.04068
6.04824
6.05243
6.06767
6.07608
6.10662
6.12485
6.1937
6.24635
6.47365
6.82324
6.98523
7.52311
7.79913
8.75958
8.94157
8.96995
8.97483
8.97575
14.048
11.7591
10.8644
9.73372
9.30132
8.73713
8.51055
8.18802
8.05368
7.85167
7.76912
7.64843
7.58543
7.46012
7.39704
7.27711
7.21787
7.10739
7.05331
6.95341
6.90481
6.81564
6.77247
6.69365
6.65554
6.58604
6.55196
6.48861
6.45371
6.3792
6.31126
6.28451
6.24596
6.22871
6.19986
6.18655
6.16356
6.15287
6.13423
6.12553
6.11034
6.10326
6.09089
6.08515
6.07516
6.07057
6.06268
6.05914
6.05327
6.05083
6.04718
6.04535
6.04186
6.04027
6.03757
6.03651
6.03506
6.03476
6.03506
6.03587
6.03875
6.04126
6.04819
6.05355
6.06757
6.07839
6.1068
6.13071
6.1968
6.26736
6.48818
6.81271
7.02022
7.51167
7.85415
8.68393
8.91128
8.96158
8.97271
8.97513
13.83
11.8533
10.8636
9.79544
9.30164
8.76675
8.50806
8.20402
8.05111
7.86171
7.76763
7.65277
7.58108
7.46455
7.39318
7.28152
7.21446
7.11154
7.0503
6.95721
6.90217
6.81906
6.77016
6.69668
6.6535
6.58865
6.54995
6.49045
6.45054
6.37985
6.31493
6.28418
6.24772
6.22807
6.20108
6.18598
6.16452
6.15239
6.13499
6.12514
6.11096
6.10294
6.0914
6.08489
6.07558
6.07037
6.06302
6.05902
6.05355
6.05078
6.04732
6.04524
6.04201
6.04021
6.03771
6.03651
6.03517
6.03484
6.03515
6.03607
6.0388
6.04166
6.04821
6.05432
6.0676
6.08
6.10717
6.13489
6.19972
6.28236
6.49857
6.80685
7.04385
7.50618
7.88967
8.63237
8.88807
8.95478
8.97094
8.9746
13.6911
11.9079
10.866
9.83419
9.30362
8.78532
8.50738
8.21398
8.05001
7.86794
7.76697
7.6554
7.57852
7.46717
7.39092
7.28416
7.21249
7.11402
7.04857
6.95948
6.90065
6.82111
6.76884
6.6985
6.65233
6.5902
6.54878
6.49151
6.44861
6.38027
6.31724
6.28408
6.24881
6.22773
6.20182
6.18567
6.16509
6.15213
6.13546
6.12492
6.11134
6.10276
6.09171
6.08475
6.07583
6.07027
6.06323
6.05895
6.05373
6.05076
6.04741
6.04518
6.0421
6.04018
6.0378
6.03651
6.03524
6.03489
6.0352
6.0362
6.03884
6.04191
6.04824
6.05481
6.06767
6.08102
6.10751
6.13758
6.20193
6.29201
6.50527
6.80384
7.05847
7.50385
7.91084
8.60029
8.87242
8.95001
8.96968
8.97422
13.6235
11.933
10.868
9.85288
9.30509
8.79427
8.50731
8.21875
8.04962
7.87092
7.76673
7.65663
7.57733
7.46839
7.38988
7.28539
7.21159
7.11518
7.04777
6.96055
6.89996
6.82208
6.76824
6.69935
6.6518
6.59093
6.54824
6.49198
6.44769
6.38047
6.31836
6.28406
6.24933
6.22759
6.20217
6.18553
6.16537
6.15201
6.13568
6.12482
6.11152
6.10268
6.09186
6.08469
6.07595
6.07022
6.06333
6.05892
6.05381
6.05075
6.04745
6.04515
6.04214
6.04016
6.03784
6.03651
6.03528
6.03492
6.03523
6.03627
6.03886
6.04203
6.04826
6.05505
6.06771
6.08152
6.10771
6.1389
6.2031
6.29674
6.50856
6.8026
7.06546
7.50305
7.9207
8.58491
8.86455
8.94754
8.96902
8.97402
-13.7615
-11.956
-10.727
-9.38783
-8.57741
-7.68556
-7.12361
-6.47172
-6.05668
-5.57459
-5.28115
-4.95551
-4.71789
-4.38936
-4.15367
-3.84195
-3.6241
-3.34288
-3.14862
-2.90046
-2.7299
-2.51303
-2.36422
-2.17523
-2.04521
-1.87924
-1.76268
-1.60867
-1.48624
-1.29857
-1.12284
-1.02422
-0.921875
-0.856534
-0.778421
-0.726293
-0.661802
-0.618272
-0.563911
-0.527097
-0.480999
-0.44977
-0.410674
-0.38425
-0.351281
-0.329172
-0.301879
-0.283992
-0.262599
-0.249396
-0.234509
-0.223545
-0.208273
-0.197269
-0.182656
-0.172419
-0.159171
-0.150009
-0.138295
-0.130258
-0.120071
-0.113162
-0.104542
-0.0989331
-0.0923815
-0.089034
-0.0870024
-0.0904535
-0.104721
-0.138649
-0.228758
-0.374886
-0.529476
-0.81597
-1.11865
-1.62779
-1.84317
-1.90717
-1.92374
-1.9276
-13.8337
-11.933
-10.7314
-9.36668
-8.58067
-7.67237
-7.12721
-6.46225
-6.05937
-5.56705
-5.28244
-4.95199
-4.72153
-4.38565
-4.15671
-3.8382
-3.62664
-3.33941
-3.15078
-2.89736
-2.73175
-2.51031
-2.36583
-2.17287
-2.04665
-1.87727
-1.76418
-1.60741
-1.48886
-1.29809
-1.11976
-1.02437
-0.920397
-0.857047
-0.777384
-0.72679
-0.660966
-0.618707
-0.563211
-0.52747
-0.480406
-0.450087
-0.410169
-0.384514
-0.350848
-0.32938
-0.301505
-0.284133
-0.262273
-0.249465
-0.234354
-0.223718
-0.208103
-0.197414
-0.182482
-0.17254
-0.159008
-0.150112
-0.138149
-0.130345
-0.11994
-0.113231
-0.104423
-0.0989715
-0.092254
-0.088982
-0.0867838
-0.0900215
-0.103935
-0.136403
-0.226518
-0.374548
-0.5242
-0.815323
-1.11039
-1.63954
-1.84923
-1.90907
-1.92425
-1.92775
-13.982
-11.882
-10.7424
-9.32239
-8.58883
-7.64466
-7.13561
-6.44231
-6.06564
-5.55121
-5.28557
-4.94448
-4.72939
-4.37767
-4.16335
-3.83017
-3.63221
-3.332
-3.15553
-2.89075
-2.73585
-2.50451
-2.36939
-2.16785
-2.04982
-1.87305
-1.76743
-1.60463
-1.49436
-1.29712
-1.11336
-1.02487
-0.917297
-0.858216
-0.775187
-0.727899
-0.65919
-0.619674
-0.561723
-0.528299
-0.479145
-0.450789
-0.409095
-0.3851
-0.349929
-0.329847
-0.300711
-0.284456
-0.261586
-0.249627
-0.23402
-0.224093
-0.207738
-0.197731
-0.18211
-0.172807
-0.158662
-0.150339
-0.137838
-0.130537
-0.119663
-0.113385
-0.10417
-0.0990615
-0.0919896
-0.0888879
-0.0863485
-0.0891631
-0.102408
-0.131851
-0.221962
-0.374145
-0.513265
-0.814518
-1.09276
-1.66407
-1.86127
-1.91275
-1.92522
-1.92804
-14.2143
-11.7925
-10.7645
-9.25065
-8.60542
-7.59955
-7.15138
-6.4097
-6.07743
-5.52542
-5.29172
-4.93194
-4.74272
-4.36419
-4.17474
-3.81674
-3.64188
-3.31964
-3.16383
-2.87975
-2.743
-2.49488
-2.3756
-2.1595
-2.05534
-1.86599
-1.77297
-1.59974
-1.50335
-1.29562
-1.10316
-1.02614
-0.91226
-0.860345
-0.771563
-0.729867
-0.656248
-0.621381
-0.559257
-0.529758
-0.477055
-0.452028
-0.407315
-0.386134
-0.348409
-0.330678
-0.299404
-0.285045
-0.260464
-0.249937
-0.233461
-0.224725
-0.20712
-0.198273
-0.181487
-0.173268
-0.158083
-0.150734
-0.137319
-0.130873
-0.119203
-0.113658
-0.103753
-0.0992309
-0.0915672
-0.0887722
-0.0856997
-0.0878883
-0.100233
-0.124872
-0.214923
-0.374265
-0.495845
-0.814633
-1.06342
-1.70356
-1.87915
-1.918
-1.92659
-1.92845
-14.5434
-11.6474
-10.8062
-9.14416
-8.63644
-7.53213
-7.1789
-6.36072
-6.09801
-5.4869
-5.30293
-4.91257
-4.76363
-4.34316
-4.19288
-3.79599
-3.65745
-3.30063
-3.17725
-2.86287
-2.75462
-2.48009
-2.3857
-2.14667
-2.06428
-1.85508
-1.78173
-1.59179
-1.51679
-1.29351
-1.08834
-1.02888
-0.904748
-0.863952
-0.766058
-0.733114
-0.651759
-0.624181
-0.555488
-0.532149
-0.473859
-0.454055
-0.404596
-0.387833
-0.34609
-0.332052
-0.297423
-0.286045
-0.258782
-0.250486
-0.232594
-0.225714
-0.206153
-0.199134
-0.180522
-0.174009
-0.157193
-0.151372
-0.136523
-0.131419
-0.118499
-0.114106
-0.103123
-0.0995269
-0.0909509
-0.0886683
-0.0848413
-0.0862079
-0.0975673
-0.115278
-0.205112
-0.375896
-0.470537
-0.817548
-1.01842
-1.76163
-1.9025
-1.92445
-1.92821
-1.92893
-14.9884
-11.42
-10.8806
-8.99151
-8.69133
-7.43468
-7.22502
-6.28953
-6.13253
-5.4313
-5.32239
-4.88356
-4.79541
-4.31133
-4.22089
-3.76492
-3.68175
-3.27229
-3.19833
-2.83774
-2.77289
-2.4581
-2.40158
-2.12758
-2.0783
-1.83874
-1.79515
-1.57925
-1.53617
-1.29068
-1.0677
-1.03421
-0.893905
-0.869846
-0.757958
-0.738301
-0.645121
-0.628627
-0.549907
-0.535939
-0.469127
-0.457271
-0.400571
-0.390532
-0.342665
-0.334252
-0.294512
-0.287681
-0.256342
-0.251421
-0.231288
-0.227212
-0.204686
-0.200461
-0.179074
-0.175163
-0.155863
-0.152373
-0.135339
-0.132279
-0.117455
-0.114818
-0.102197
-0.100023
-0.0900837
-0.088627
-0.0837759
-0.0841285
-0.0946481
-0.1028
-0.192065
-0.380572
-0.435135
-0.826308
-0.951727
-1.8438
-1.9306
-1.93163
-1.92997
-1.92944
-15.5761
-11.0715
-11.009
-8.77531
-8.78449
-7.29535
-7.30019
-6.1872
-6.18882
-5.35201
-5.35506
-4.84052
-4.84303
-4.26376
-4.26352
-3.71893
-3.71911
-3.23053
-3.23087
-2.80079
-2.80116
-2.42579
-2.42617
-2.0995
-2.09992
-1.81456
-1.81547
-1.55979
-1.56365
-1.28695
-1.03948
-1.04382
-0.878415
-0.879256
-0.746172
-0.746431
-0.635418
-0.635565
-0.541738
-0.541845
-0.462198
-0.462283
-0.394681
-0.394746
-0.337664
-0.337706
-0.290288
-0.290299
-0.252848
-0.252965
-0.229341
-0.229448
-0.202488
-0.202475
-0.176928
-0.176935
-0.153903
-0.153917
-0.133596
-0.13361
-0.115925
-0.115931
-0.100855
-0.10083
-0.0888781
-0.0887222
-0.0825031
-0.0816432
-0.0918243
-0.0870774
-0.175048
-0.390607
-0.386268
-0.845699
-0.854367
-1.95818
-1.96213
-1.93891
-1.93167
-1.92992
-16.344
-10.5453
-11.2243
-8.4694
-8.93758
-7.09627
-7.42006
-6.0403
-6.27866
-5.23914
-5.40843
-4.77681
-4.91392
-4.19303
-4.32794
-3.65116
-3.77602
-3.16922
-3.28064
-2.74662
-2.84447
-2.37845
-2.46384
-2.05834
-2.13299
-1.77894
-1.84606
-1.52996
-1.60236
-1.28205
-1.00119
-1.06022
-0.856278
-0.894025
-0.729054
-0.759014
-0.621272
-0.646265
-0.529814
-0.550944
-0.452082
-0.470004
-0.386087
-0.401249
-0.330379
-0.343061
-0.284167
-0.294418
-0.247852
-0.255461
-0.226446
-0.232769
-0.199214
-0.205511
-0.173761
-0.179628
-0.151022
-0.156276
-0.131041
-0.135651
-0.113687
-0.117648
-0.0989118
-0.102116
-0.0872014
-0.0890608
-0.0810167
-0.0787169
-0.0895982
-0.0676469
-0.152928
-0.409437
-0.31885
-0.88312
-0.713201
-2.11655
-1.99475
-1.94556
-1.93315
-1.93034
-17.3439
-9.76002
-11.577
-8.03457
-9.18305
-6.81059
-7.60809
-5.82868
-6.41962
-5.07791
-5.49385
-4.68236
-5.01914
-4.08807
-4.42482
-3.55133
-3.86221
-3.07918
-3.35622
-2.66718
-2.91034
-2.30906
-2.52115
-1.99798
-2.18321
-1.72647
-1.89197
-1.48459
-1.65677
-1.27558
-0.949303
-1.08715
-0.824476
-0.916906
-0.704142
-0.778308
-0.600618
-0.662624
-0.512389
-0.564845
-0.437296
-0.4818
-0.373531
-0.411194
-0.319754
-0.35128
-0.275283
-0.30081
-0.24069
-0.259423
-0.222139
-0.237687
-0.194347
-0.210071
-0.169091
-0.183703
-0.146787
-0.159855
-0.127294
-0.138755
-0.110414
-0.120273
-0.0960917
-0.104127
-0.0848545
-0.0897963
-0.0793012
-0.0752641
-0.0886861
-0.0439277
-0.123959
-0.442152
-0.225238
-0.949908
-0.509105
-2.33593
-2.02446
-1.95074
-1.93426
-1.93064
-18.6473
-8.59889
-12.1442
-7.4123
-9.56957
-6.39831
-7.8994
-5.52244
-6.63809
-4.84659
-5.62857
-4.54217
-5.17527
-3.9326
-4.57031
-3.40432
-3.99234
-2.94693
-3.47064
-2.55063
-3.01016
-2.2073
-2.60804
-1.90945
-2.25926
-1.64926
-1.96096
-1.41618
-1.73347
-1.26704
-0.878973
-1.13021
-0.778579
-0.952103
-0.667853
-0.807777
-0.570469
-0.687566
-0.486941
-0.586032
-0.415708
-0.499787
-0.355211
-0.426376
-0.304277
-0.363867
-0.262399
-0.310691
-0.230432
-0.265684
-0.215774
-0.245015
-0.187168
-0.21695
-0.162245
-0.189885
-0.140597
-0.165303
-0.121825
-0.143491
-0.10565
-0.124298
-0.0920172
-0.107264
-0.0815703
-0.0911806
-0.0773556
-0.0711413
-0.0901255
-0.0152414
-0.0854809
-0.496278
-0.0939701
-1.06331
-0.214297
-2.64082
-2.04464
-1.95361
-1.93482
-1.93078
18.6473
8.59889
12.1442
7.4123
9.56957
6.39831
7.8994
5.52244
6.63809
4.84658
5.62856
4.54217
5.17527
3.9326
4.57031
3.40431
3.99234
2.94693
3.47064
2.55063
3.01016
2.2073
2.60804
1.90945
2.25926
1.64926
1.96096
1.41618
1.73347
1.26704
0.878971
1.13021
0.778578
0.952102
0.667851
0.807776
0.570468
0.687566
0.48694
0.586031
0.415707
0.499787
0.35521
0.426376
0.304276
0.363867
0.262398
0.310691
0.230431
0.265683
0.215773
0.245014
0.187167
0.21695
0.162245
0.189885
0.140597
0.165303
0.121825
0.143491
0.10565
0.124298
0.092017
0.107264
0.0815701
0.0911806
0.0773554
0.0711414
0.0901252
0.0152419
0.0854806
0.496277
0.0939701
1.06331
0.214297
2.64083
2.04465
1.95361
1.93483
1.93079
17.3439
9.76002
11.577
8.03457
9.18306
6.81059
7.6081
5.82868
6.41962
5.07792
5.49385
4.68236
5.01914
4.08808
4.42483
3.55134
3.86221
3.07919
3.35623
2.66719
2.91034
2.30906
2.52115
1.99799
2.18321
1.72647
1.89198
1.48459
1.65678
1.27558
0.949305
1.08715
0.824478
0.916907
0.704143
0.77831
0.600619
0.662626
0.51239
0.564846
0.437298
0.481802
0.373532
0.411195
0.319755
0.351281
0.275283
0.300812
0.240691
0.259424
0.22214
0.237688
0.194347
0.210072
0.169092
0.183704
0.146788
0.159856
0.127294
0.138756
0.110415
0.120274
0.0960924
0.104128
0.0848551
0.089797
0.0793017
0.0752648
0.0886863
0.0439283
0.123959
0.442151
0.225238
0.949908
0.509104
2.33594
2.02446
1.95074
1.93426
1.93065
16.344
10.5453
11.2243
8.46941
8.93759
7.09628
7.42007
6.04031
6.27867
5.23914
5.40844
4.77682
4.91393
4.19304
4.32794
3.65117
3.77603
3.16922
3.28064
2.74663
2.84448
2.37845
2.46384
2.05835
2.13299
1.77894
1.84606
1.52996
1.60236
1.28206
1.00119
1.06023
0.856282
0.894029
0.729057
0.759017
0.621275
0.646268
0.529817
0.550947
0.452084
0.470006
0.386089
0.401251
0.330381
0.343063
0.284169
0.29442
0.247854
0.255463
0.226448
0.232771
0.199216
0.205513
0.173763
0.17963
0.151023
0.156277
0.131043
0.135652
0.113689
0.117649
0.0989131
0.102117
0.0872026
0.089062
0.0810177
0.078718
0.0895989
0.0676477
0.152928
0.409437
0.318849
0.883119
0.713201
2.11656
1.99475
1.94557
1.93316
1.93034
15.5761
11.0715
11.009
8.77532
8.7845
7.29536
7.30019
6.18721
6.18883
5.35202
5.35507
4.84053
4.84303
4.26377
4.26353
3.71894
3.71912
3.23054
3.23088
2.80079
2.80117
2.4258
2.42617
2.09951
2.09993
1.81457
1.81548
1.5598
1.56366
1.28695
1.03948
1.04383
0.878419
0.87926
0.746176
0.746435
0.635422
0.635569
0.541741
0.541849
0.462201
0.462286
0.394684
0.394749
0.337666
0.337709
0.29029
0.290302
0.25285
0.252968
0.229343
0.229451
0.20249
0.202477
0.17693
0.176937
0.153905
0.153919
0.133598
0.133612
0.115926
0.115932
0.100857
0.100832
0.0888795
0.0887236
0.0825044
0.0816444
0.0918252
0.0870782
0.175048
0.390606
0.386267
0.845698
0.854367
1.95818
1.96213
1.93892
1.93167
1.92993
14.9884
11.42
10.8806
8.99152
8.69134
7.43469
7.22503
6.28954
6.13254
5.43131
5.3224
4.88357
4.79542
4.31134
4.2209
3.76493
3.68176
3.27229
3.19834
2.83775
2.7729
2.45811
2.40159
2.12758
2.0783
1.83874
1.79516
1.57925
1.53618
1.29068
1.0677
1.03422
0.89391
0.869851
0.757963
0.738305
0.645125
0.628631
0.54991
0.535943
0.46913
0.457274
0.400574
0.390535
0.342668
0.334255
0.294515
0.287684
0.256345
0.251423
0.231291
0.227214
0.204688
0.200463
0.179076
0.175166
0.155865
0.152375
0.135341
0.132281
0.117457
0.11482
0.102199
0.100025
0.0900853
0.0886284
0.0837773
0.0841298
0.0946491
0.102801
0.192065
0.380572
0.435134
0.826308
0.951727
1.8438
1.9306
1.93163
1.92997
1.92944
14.5434
11.6474
10.8062
9.14417
8.63645
7.53214
7.17891
6.36073
6.09802
5.48691
5.30294
4.91258
4.76364
4.34317
4.19289
3.796
3.65746
3.30064
3.17726
2.86287
2.75463
2.4801
2.3857
2.14667
2.06429
1.85509
1.78174
1.5918
1.5168
1.29352
1.08835
1.02889
0.904753
0.863957
0.766063
0.733118
0.651763
0.624185
0.555492
0.532152
0.473863
0.454059
0.404599
0.387836
0.346093
0.332055
0.297425
0.286047
0.258784
0.250489
0.232597
0.225717
0.206155
0.199137
0.180524
0.174011
0.157195
0.151374
0.136525
0.131421
0.118501
0.114107
0.103124
0.0995285
0.0909525
0.0886698
0.0848427
0.0862092
0.0975683
0.115279
0.205113
0.375895
0.470537
0.817547
1.01842
1.76164
1.9025
1.92445
1.92822
1.92893
14.2143
11.7925
10.7646
9.25066
8.60543
7.59955
7.15139
6.40971
6.07744
5.52542
5.29173
4.93195
4.74273
4.3642
4.17475
3.81675
3.64189
3.31965
3.16383
2.87976
2.74301
2.49488
2.37561
2.1595
2.05535
1.866
1.77298
1.59975
1.50335
1.29563
1.10316
1.02614
0.912265
0.86035
0.771568
0.729871
0.656252
0.621385
0.559261
0.529762
0.477058
0.452031
0.407318
0.386137
0.348412
0.330681
0.299407
0.285048
0.260467
0.24994
0.233464
0.224728
0.207122
0.198275
0.181489
0.17327
0.158085
0.150736
0.137321
0.130875
0.119205
0.113659
0.103755
0.0992326
0.0915688
0.0887737
0.0857011
0.0878896
0.100234
0.124873
0.214923
0.374265
0.495845
0.814632
1.06342
1.70356
1.87915
1.918
1.92659
1.92845
13.982
11.882
10.7424
9.3224
8.58884
7.64467
7.13562
6.44232
6.06565
5.55122
5.28558
4.94449
4.7294
4.37768
4.16335
3.83018
3.63222
3.33201
3.15554
2.89076
2.73586
2.50452
2.36939
2.16786
2.04983
1.87306
1.76744
1.60463
1.49437
1.29713
1.11337
1.02488
0.917302
0.858221
0.775192
0.727903
0.659194
0.619678
0.561727
0.528302
0.479149
0.450793
0.409098
0.385103
0.349932
0.32985
0.300714
0.284459
0.261588
0.24963
0.234023
0.224095
0.20774
0.197733
0.182112
0.172809
0.158664
0.150341
0.13784
0.130539
0.119665
0.113387
0.104171
0.0990631
0.0919911
0.0888894
0.0863498
0.0891644
0.102409
0.131851
0.221962
0.374145
0.513265
0.814517
1.09276
1.66407
1.86128
1.91275
1.92523
1.92804
13.8337
11.933
10.7314
9.36669
8.58068
7.67238
7.12722
6.46226
6.05938
5.56706
5.28245
4.952
4.72153
4.38566
4.15672
3.8382
3.62665
3.33942
3.15078
2.89737
2.73176
2.51031
2.36584
2.17288
2.04666
1.87728
1.76419
1.60742
1.48886
1.2981
1.11976
1.02438
0.920402
0.857052
0.777388
0.726794
0.66097
0.618711
0.563215
0.527474
0.480409
0.45009
0.410172
0.384517
0.350851
0.329383
0.301507
0.284136
0.262275
0.249467
0.234356
0.223721
0.208105
0.197416
0.182485
0.172542
0.15901
0.150114
0.138151
0.130347
0.119942
0.113233
0.104424
0.0989731
0.0922555
0.0889834
0.0867851
0.0900227
0.103936
0.136403
0.226519
0.374548
0.5242
0.815322
1.11039
1.63954
1.84923
1.90907
1.92425
1.92775
13.7615
11.956
10.727
9.38784
8.57742
7.68557
7.12361
6.47173
6.05669
5.5746
5.28115
4.95552
4.71789
4.38937
4.15367
3.84195
3.62411
3.34289
3.14862
2.90047
2.7299
2.51303
2.36423
2.17524
2.04521
1.87925
1.76268
1.60868
1.48625
1.29857
1.12285
1.02423
0.921879
0.856538
0.778425
0.726297
0.661806
0.618275
0.563914
0.5271
0.481002
0.449773
0.410677
0.384253
0.351284
0.329174
0.301882
0.283994
0.262601
0.249399
0.234511
0.223547
0.208275
0.197271
0.182658
0.172421
0.159173
0.150011
0.138297
0.13026
0.120072
0.113163
0.104544
0.0989345
0.0923828
0.0890353
0.0870036
0.0904546
0.104722
0.13865
0.228759
0.374886
0.529476
0.81597
1.11865
1.62779
1.84317
1.90717
1.92374
1.9276
-13.627
-11.9379
-10.8749
-9.86341
-9.31979
-8.81694
-8.53908
-8.26791
-8.11736
-7.9686
-7.86601
-7.7302
-7.63451
-7.50982
-7.42284
-7.3105
-7.23237
-7.13174
-7.06191
-6.9722
-6.91014
-6.83067
-6.77587
-6.70592
-6.65769
-6.59605
-6.55285
-6.496
-6.45126
-6.38341
-6.32073
-6.28614
-6.25112
-6.2292
-6.20359
-6.18681
-6.1665
-6.15305
-6.1366
-6.12566
-6.11226
-6.10336
-6.09246
-6.08524
-6.07644
-6.07067
-6.06373
-6.05929
-6.05414
-6.05106
-6.04774
-6.04542
-6.04239
-6.04039
-6.03804
-6.03671
-6.03545
-6.03508
-6.03538
-6.0364
-6.03898
-6.04214
-6.04836
-6.05514
-6.0678
-6.0816
-6.10778
-6.13897
-6.20316
-6.29679
-6.5086
-6.80263
-7.06549
-7.50308
-7.92072
-8.58493
-8.86458
-8.94757
-8.96904
-8.97404
-13.6945
-11.9129
-10.8728
-9.8447
-9.31815
-8.80794
-8.53881
-8.26308
-8.11728
-7.96675
-7.86734
-7.72859
-7.63567
-7.50832
-7.42385
-7.30913
-7.23327
-7.13051
-7.06271
-6.9711
-6.91084
-6.82969
-6.77648
-6.70505
-6.65823
-6.59531
-6.5534
-6.49551
-6.45219
-6.3832
-6.31961
-6.28616
-6.2506
-6.22935
-6.20323
-6.18695
-6.16623
-6.15317
-6.13637
-6.12576
-6.11208
-6.10344
-6.09231
-6.08531
-6.07632
-6.07072
-6.06363
-6.05932
-6.05406
-6.05107
-6.0477
-6.04545
-6.04234
-6.04041
-6.038
-6.0367
-6.03541
-6.03505
-6.03535
-6.03634
-6.03896
-6.04202
-6.04834
-6.0549
-6.06775
-6.0811
-6.10758
-6.13764
-6.20198
-6.29206
-6.50531
-6.80388
-7.0585
-7.50387
-7.91086
-8.60031
-8.87244
-8.95003
-8.9697
-8.97424
-13.8333
-11.8582
-10.8702
-9.80592
-9.31587
-8.7893
-8.5388
-8.25306
-8.1174
-7.96286
-7.87024
-7.72515
-7.6382
-7.50509
-7.42608
-7.30621
-7.23525
-7.12788
-7.06446
-6.96873
-6.91237
-6.82758
-6.77781
-6.70319
-6.65941
-6.59373
-6.55458
-6.49444
-6.45414
-6.38278
-6.31728
-6.28626
-6.2495
-6.22969
-6.20248
-6.18727
-6.16565
-6.15343
-6.13591
-6.12598
-6.1117
-6.10362
-6.092
-6.08545
-6.07607
-6.07083
-6.06342
-6.05939
-6.05389
-6.0511
-6.04761
-6.04551
-6.04226
-6.04044
-6.03792
-6.0367
-6.03534
-6.035
-6.03529
-6.03621
-6.03892
-6.04177
-6.04831
-6.05441
-6.06768
-6.08008
-6.10724
-6.13495
-6.19977
-6.28241
-6.49861
-6.80688
-7.04388
-7.50621
-7.8897
-8.63239
-8.88809
-8.9548
-8.97097
-8.97462
-14.0512
-11.764
-10.8707
-9.74417
-9.31504
-8.75961
-8.54021
-8.23703
-8.11827
-7.95648
-7.87524
-7.71939
-7.64258
-7.4997
-7.42993
-7.30133
-7.23868
-7.12348
-7.06749
-6.9648
-6.91504
-6.82408
-6.78014
-6.7001
-6.66146
-6.59109
-6.55661
-6.49258
-6.45733
-6.38212
-6.31357
-6.28659
-6.24772
-6.23033
-6.20126
-6.18785
-6.16469
-6.15391
-6.13513
-6.12638
-6.11107
-6.10394
-6.09149
-6.0857
-6.07564
-6.07102
-6.06307
-6.05951
-6.05361
-6.05115
-6.04747
-6.04562
-6.04211
-6.0405
-6.03778
-6.0367
-6.03523
-6.03492
-6.03521
-6.03601
-6.03887
-6.04137
-6.04829
-6.05364
-6.06765
-6.07847
-6.10687
-6.13078
-6.19686
-6.26741
-6.48823
-6.81274
-7.02025
-7.51169
-7.85417
-8.68395
-8.9113
-8.96161
-8.97273
-8.97515
-14.3605
-11.6141
-10.8806
-9.65453
-9.31927
-8.71648
-8.54496
-8.21363
-8.12086
-7.94689
-7.88322
-7.71046
-7.64961
-7.49139
-7.43614
-7.2938
-7.24421
-7.11672
-7.0724
-6.95874
-6.91935
-6.81869
-6.78391
-6.69536
-6.66479
-6.58701
-6.55981
-6.48957
-6.46212
-6.38119
-6.30819
-6.28739
-6.24509
-6.23143
-6.1994
-6.18881
-6.16323
-6.15472
-6.13396
-6.12703
-6.11012
-6.10447
-6.0907
-6.08613
-6.075
-6.07134
-6.06255
-6.05973
-6.05318
-6.05125
-6.04725
-6.0458
-6.04189
-6.04061
-6.03758
-6.03672
-6.03507
-6.03482
-6.0351
-6.03573
-6.03884
-6.04079
-6.04834
-6.05252
-6.06775
-6.07615
-6.10669
-6.12491
-6.19376
-6.2464
-6.47369
-6.82328
-6.98526
-7.52314
-7.79915
-8.7596
-8.94159
-8.96998
-8.97485
-8.97577
-14.7797
-11.3836
-10.9101
-9.52925
-9.33419
-8.6561
-8.55611
-8.18068
-8.1267
-7.93288
-7.89556
-7.69706
-7.66053
-7.47895
-7.44583
-7.28257
-7.25286
-7.10664
-7.08008
-6.94972
-6.92611
-6.81066
-6.78983
-6.68829
-6.67
-6.58091
-6.56474
-6.48484
-6.46904
-6.37995
-6.30073
-6.28905
-6.24131
-6.23327
-6.19669
-6.19038
-6.16109
-6.15601
-6.13223
-6.12809
-6.10871
-6.10533
-6.08955
-6.08681
-6.07406
-6.07187
-6.06179
-6.0601
-6.05258
-6.05143
-6.04693
-6.04607
-6.04156
-6.04078
-6.03729
-6.03677
-6.03485
-6.03469
-6.03499
-6.03534
-6.03885
-6.03999
-6.04852
-6.05096
-6.06812
-6.07295
-6.10699
-6.11703
-6.1913
-6.21841
-6.45427
-6.84132
-6.93523
-7.54506
-7.71676
-8.8664
-8.97803
-8.97929
-8.97712
-8.97644
-15.3347
-11.0362
-10.9759
-9.35654
-9.36844
-8.57259
-8.57827
-8.13488
-8.13813
-7.91262
-7.91436
-7.67717
-7.67724
-7.46058
-7.46073
-7.266
-7.26616
-7.09176
-7.09191
-6.93642
-6.93655
-6.79885
-6.79898
-6.6779
-6.67804
-6.57189
-6.57221
-6.47755
-6.4789
-6.37831
-6.29057
-6.29216
-6.23594
-6.23625
-6.19276
-6.19286
-6.15799
-6.15804
-6.12972
-6.12975
-6.10666
-6.10669
-6.08788
-6.0879
-6.0727
-6.07272
-6.06069
-6.0607
-6.05172
-6.05175
-6.04647
-6.04649
-6.04108
-6.04107
-6.03688
-6.03687
-6.03456
-6.03455
-6.03487
-6.03484
-6.03896
-6.0389
-6.04894
-6.04881
-6.06898
-6.06858
-6.10826
-6.10657
-6.19074
-6.18207
-6.4288
-6.87108
-6.86457
-7.58451
-7.59524
-9.01471
-9.01888
-8.98873
-8.97934
-8.97708
-16.0616
-10.5193
-11.1041
-9.11857
-9.435
-8.45702
-8.61839
-8.0712
-8.15871
-7.88326
-7.9427
-7.6478
-7.70263
-7.43353
-7.48342
-7.24163
-7.28645
-7.06991
-7.10996
-6.9169
-6.9525
-6.78153
-6.81297
-6.66265
-6.69033
-6.55862
-6.58348
-6.46642
-6.49284
-6.37616
-6.27683
-6.29757
-6.22831
-6.24098
-6.18709
-6.19674
-6.15349
-6.16121
-6.12607
-6.13234
-6.10368
-6.10879
-6.08545
-6.0896
-6.07073
-6.07404
-6.05911
-6.06166
-6.0505
-6.05228
-6.0458
-6.04713
-6.04038
-6.04152
-6.0363
-6.03706
-6.03419
-6.03439
-6.03476
-6.03416
-6.03923
-6.03739
-6.04978
-6.04584
-6.07067
-6.06261
-6.11118
-6.09268
-6.19389
-6.13551
-6.3955
-6.9188
-6.76485
-7.65232
-7.41738
-9.21964
-9.06111
-8.99735
-8.98127
-8.97762
-17.0103
-9.75734
-11.3352
-8.78852
-9.55333
-8.29587
-8.68686
-7.98214
-8.19381
-7.8405
-7.98523
-7.60443
-7.74097
-7.39372
-7.51778
-7.2058
-7.31719
-7.03778
-7.13734
-6.88823
-6.97671
-6.75611
-6.83423
-6.64029
-6.709
-6.53908
-6.60043
-6.44954
-6.5125
-6.37331
-6.25829
-6.30659
-6.2174
-6.24838
-6.17888
-6.20274
-6.14694
-6.1661
-6.12076
-6.13633
-6.09936
-6.11204
-6.08193
-6.09221
-6.06788
-6.0761
-6.05683
-6.06316
-6.04876
-6.05313
-6.04481
-6.04809
-6.03937
-6.04222
-6.03549
-6.0374
-6.03368
-6.03423
-6.03469
-6.03326
-6.03978
-6.03532
-6.05126
-6.04173
-6.07367
-6.05437
-6.11678
-6.074
-6.20342
-6.07622
-6.35167
-6.99361
-6.62347
-7.76504
-7.15803
-9.503
-9.09954
-9.00406
-8.98271
-8.97802
-18.249
-8.64209
-11.7311
-8.32599
-9.75252
-8.06876
-8.79912
-7.85639
-8.25148
-7.7778
-8.04874
-7.54034
-7.79864
-7.33504
-7.56955
-7.153
-7.36353
-6.99047
-7.17863
-6.84603
-7.01326
-6.71871
-6.86635
-6.60739
-6.73719
-6.51026
-6.62585
-6.42409
-6.54022
-6.36948
-6.2332
-6.32109
-6.20167
-6.25977
-6.16692
-6.2119
-6.13739
-6.17355
-6.113
-6.14241
-6.09303
-6.11698
-6.07677
-6.0962
-6.06371
-6.07925
-6.05352
-6.06549
-6.04626
-6.05449
-6.04335
-6.04952
-6.03789
-6.04331
-6.03432
-6.03796
-6.03301
-6.03406
-6.0347
-6.03204
-6.04076
-6.03243
-6.05376
-6.03595
-6.07871
-6.04286
-6.12658
-6.04842
-6.22321
-6.00081
-6.29319
-7.10891
-6.42163
-7.94771
-6.78061
-9.89632
-9.12569
-9.00783
-8.9835
-8.97827
)
;

boundaryField
{
    F1_1
    {
        type            calculated;
        value           nonuniform List<scalar> 
80
(
18.9512
7.9736
11.9795
8.04112
9.87613
7.90487
8.86814
7.71486
8.28901
7.5514
7.90342
7.48947
7.75863
7.28683
7.55899
7.11018
7.36551
6.95313
7.18612
6.81358
7.02291
6.69059
6.87653
6.58309
6.74713
6.48928
6.63558
6.40575
6.55192
6.36456
6.21729
6.32757
6.19105
6.26477
6.15875
6.21592
6.13083
6.17683
6.10768
6.14509
6.08869
6.11917
6.07324
6.09796
6.06084
6.08062
6.05124
6.06648
6.04452
6.05498
6.04222
6.05007
6.0368
6.04369
6.03345
6.03809
6.03247
6.03379
6.0346
6.03118
6.04129
6.03062
6.05524
6.03246
6.08179
6.03605
6.13271
6.03352
6.2362
5.95854
6.25962
7.17865
6.30275
8.06028
6.55694
10.1251
9.13434
9.00884
8.98371
8.97832
)
;
    }
    F1_2
    {
        type            calculated;
        value           nonuniform List<scalar> 
80
(
-19.3853
-7.90719
-12.4931
-7.04556
-9.80539
-6.15455
-8.07615
-5.34121
-6.77067
-4.71016
-5.71086
-4.45841
-5.26856
-3.83982
-4.65764
-3.31677
-4.0706
-2.86824
-3.53951
-2.48132
-3.07028
-2.1468
-2.66038
-1.85681
-2.30506
-1.60331
-2.00239
-1.37511
-1.77836
-1.26219
-0.838498
-1.15662
-0.751452
-0.97342
-0.646337
-0.825583
-0.552583
-0.70263
-0.471843
-0.598827
-0.402901
-0.510652
-0.344347
-0.435552
-0.295106
-0.371484
-0.254778
-0.316691
-0.224395