/*--------------------------------*- C++ -*----------------------------------*\
| =========                 |                                                 |
| \\      /  F ield         | OpenFOAM: The Open Source CFD Toolbox           |
|  \\    /   O peration     | Version:  5.x                                   |
|   \\  /    A nd           | Web:      www.OpenFOAM.org                      |
|    \\/     M anipulation  |                                                 |
\*---------------------------------------------------------------------------*/
FoamFile
{
    version     2.0;
    format      ascii;
    class       volScalarField;
    location    "7";
    object      T;
}
// * * * * * * * * * * * * * * * * * * * * * * * * * * * * * * * * * * * * * //

dimensions      [0 0 0 1 0 0 0];

internalField   nonuniform List<scalar> 
3200
(
2.08497
2.43612
2.45615
2.60099
2.61017
2.68249
2.68731
2.72916
2.73203
2.75855
2.76031
2.77563
2.77698
2.7937
2.79506
2.81101
2.81229
2.82697
2.82813
2.8414
2.84244
2.85428
2.85521
2.86567
2.86649
2.87569
2.87642
2.8847
2.88543
2.89421
2.90191
2.90246
2.90744
2.9078
2.9116
2.91189
2.91493
2.91516
2.91763
2.91781
2.91983
2.91998
2.92162
2.92174
2.92307
2.92316
2.92421
2.92429
2.92507
2.92512
2.92559
2.92563
2.9261
2.92613
2.92649
2.92651
2.92671
2.92672
2.92668
2.92667
2.9263
2.92624
2.92535
2.92523
2.92343
2.9232
2.91961
2.91911
2.91121
2.90982
2.88732
2.84806
2.84369
2.77988
2.77236
2.65302
2.64806
2.64743
2.64731
2.64728
2.26044
2.52911
2.57096
2.68683
2.70641
2.76424
2.77451
2.80787
2.81398
2.83505
2.8388
2.85108
2.85395
2.86718
2.87007
2.8827
2.88541
2.89704
2.89951
2.91002
2.91224
2.92162
2.92359
2.93188
2.93362
2.94092
2.94247
2.94906
2.95063
2.9579
2.96437
2.96556
2.96953
2.97032
2.97333
2.97394
2.97635
2.97684
2.9788
2.97919
2.98079
2.98111
2.98241
2.98267
2.98372
2.98393
2.98476
2.98492
2.98554
2.98565
2.98603
2.98611
2.98648
2.98655
2.98684
2.98689
2.98704
2.98706
2.98703
2.98699
2.9867
2.98658
2.98587
2.98563
2.98418
2.9837
2.98081
2.97975
2.97331
2.97025
2.95059
2.91846
2.90909
2.85823
2.8424
2.74969
2.73923
2.7375
2.73714
2.73706
2.42516
2.63116
2.6828
2.77652
2.80111
2.84789
2.86078
2.88767
2.89533
2.91225
2.91695
2.92691
2.9305
2.94108
2.94468
2.95479
2.95817
2.96748
2.97057
2.97898
2.98175
2.98926
2.99173
2.99836
3.00054
3.00638
3.00833
3.01362
3.0156
3.02162
3.02704
3.02855
3.03175
3.03274
3.03516
3.03592
3.03785
3.03846
3.04003
3.04052
3.0418
3.04221
3.04325
3.04357
3.04441
3.04468
3.04534
3.04554
3.04604
3.04618
3.04648
3.04658
3.04688
3.04697
3.0472
3.04726
3.04738
3.0474
3.04737
3.04733
3.04709
3.04695
3.04637
3.04607
3.0449
3.04429
3.04194
3.04059
3.03527
3.03134
3.01436
2.98794
2.97615
2.93518
2.91552
2.84307
2.83005
2.82751
2.82696
2.82684
2.58164
2.73939
2.79296
2.86898
2.89493
2.9329
2.9465
2.96824
2.9763
2.98993
2.99489
3.003
3.00678
3.01526
3.01904
3.02715
3.0307
3.03817
3.04141
3.04816
3.05108
3.0571
3.05969
3.06502
3.0673
3.072
3.07404
3.07832
3.08041
3.08537
3.08987
3.09147
3.09407
3.0951
3.09705
3.09785
3.0994
3.10004
3.1013
3.10182
3.10285
3.10327
3.10411
3.10445
3.10513
3.1054
3.10594
3.10615
3.10655
3.10669
3.10694
3.10705
3.10728
3.10738
3.10756
3.10763
3.10772
3.10774
3.10772
3.10767
3.10748
3.10733
3.10686
3.10654
3.1056
3.10495
3.10304
3.1016
3.09718
3.09296
3.0785
3.05683
3.04439
3.01127
2.99075
2.93408
2.92045
2.91745
2.91677
2.91661
2.73181
2.85179
2.90222
2.96344
2.98827
3.01888
3.03189
3.04935
3.05705
3.06797
3.0727
3.07926
3.08287
3.08962
3.09322
3.09969
3.10307
3.10902
3.11211
3.1175
3.12027
3.12508
3.12755
3.1318
3.13398
3.13772
3.13967
3.1431
3.1451
3.14913
3.15281
3.15435
3.15644
3.15743
3.15899
3.15975
3.16099
3.1616
3.1626
3.1631
3.16392
3.16433
3.16499
3.16532
3.16586
3.16612
3.16655
3.16675
3.16706
3.1672
3.1674
3.16751
3.16769
3.16779
3.16793
3.16799
3.16807
3.16809
3.16807
3.16802
3.16787
3.16772
3.16735
3.16704
3.16628
3.16566
3.16411
3.16272
3.15909
3.15498
3.14293
3.12536
3.11345
3.08687
3.06743
3.02337
3.01043
3.00729
3.00655
3.00638
2.87718
2.96696
3.01105
3.05935
3.08137
3.10557
3.1171
3.13086
3.13768
3.14625
3.15044
3.15564
3.15884
3.16411
3.16729
3.17235
3.17534
3.17999
3.18272
3.18694
3.18939
3.19315
3.19533
3.19866
3.20058
3.20352
3.20524
3.20794
3.20972
3.21291
3.21584
3.21721
3.21886
3.21973
3.22096
3.22163
3.2226
3.22314
3.22393
3.22437
3.22501
3.22537
3.22589
3.22618
3.2266
3.22683
3.22717
3.22734
3.22759
3.22771
3.22787
3.22796
3.22811
3.22819
3.2283
3.22836
3.22842
3.22843
3.22842
3.22838
3.22825
3.22813
3.22783
3.22756
3.22696
3.2264
3.22517
3.22394
3.22101
3.21732
3.20758
3.19366
3.18309
3.16218
3.14508
3.11141
3.10001
3.09703
3.09631
3.09614
3.01896
3.08397
3.11971
3.15632
3.17439
3.19276
3.20223
3.21264
3.21823
3.22471
3.22815
3.2321
3.23472
3.23868
3.24129
3.24509
3.24754
3.25104
3.25328
3.25645
3.25846
3.26129
3.26307
3.26558
3.26715
3.26936
3.27078
3.27281
3.27427
3.2767
3.27893
3.28006
3.28131
3.28202
3.28295
3.2835
3.28423
3.28467
3.28527
3.28562
3.28611
3.2864
3.28679
3.28703
3.28735
3.28754
3.28779
3.28794
3.28812
3.28822
3.28834
3.28842
3.28853
3.28859
3.28868
3.28872
3.28877
3.28878
3.28877
3.28873
3.28864
3.28854
3.28831
3.28809
3.28763
3.28718
3.28624
3.28522
3.28296
3.27991
3.2724
3.26182
3.25315
3.23733
3.22341
3.19856
3.18926
3.18669
3.18604
3.1859
3.15814
3.20215
3.22834
3.25403
3.2674
3.28031
3.28732
3.29462
3.29875
3.30328
3.30583
3.30861
3.31054
3.31331
3.31523
3.31789
3.31969
3.32214
3.32379
3.32601
3.32749
3.32947
3.33078
3.33253
3.33369
3.33524
3.33628
3.33771
3.33879
3.34049
3.34206
3.3429
3.34378
3.34431
3.34495
3.34536
3.34587
3.3462
3.34661
3.34688
3.34722
3.34743
3.34771
3.34788
3.3481
3.34824
3.34842
3.34853
3.34866
3.34873
3.34881
3.34887
3.34895
3.349
3.34905
3.34909
3.34912
3.34913
3.34912
3.34909
3.34903
3.34895
3.34879
3.34863
3.34831
3.34797
3.34731
3.34655
3.34494
3.34267
3.33735
3.32991
3.32349
3.31241
3.30217
3.28509
3.27824
3.27627
3.27576
3.27565
3.29556
3.32104
3.33698
3.35223
3.36043
3.3681
3.37239
3.37672
3.37926
3.38194
3.3835
3.38515
3.38634
3.38798
3.38915
3.39072
3.39183
3.39327
3.39428
3.39559
3.3965
3.39767
3.39848
3.39951
3.40022
3.40114
3.40178
3.40262
3.40328
3.40429
3.40523
3.40574
3.40626
3.40659
3.40697
3.40722
3.40752
3.40772
3.40797
3.40813
3.40833
3.40846
3.40862
3.40873
3.40886
3.40895
3.40905
3.40912
3.40919
3.40924
3.40929
3.40932
3.40937
3.4094
3.40943
3.40945
3.40947
3.40948
3.40947
3.40946
3.40942
3.40937
3.40928
3.40917
3.40898
3.40878
3.40838
3.40792
3.40695
3.40555
3.40238
3.39796
3.39403
3.38745
3.3812
3.37121
3.36702
3.36578
3.36546
3.36539
3.43197
3.44031
3.44566
3.45071
3.45347
3.45602
3.45746
3.4589
3.45975
3.46064
3.46117
3.46172
3.46211
3.46266
3.46305
3.46357
3.46394
3.46442
3.46476
3.4652
3.4655
3.46589
3.46616
3.4665
3.46674
3.46704
3.46726
3.46754
3.46776
3.4681
3.46841
3.46858
3.46875
3.46886
3.46899
3.46907
3.46917
3.46924
3.46932
3.46938
3.46944
3.46949
3.46954
3.46958
3.46962
3.46965
3.46968
3.46971
3.46973
3.46975
3.46976
3.46977
3.46979
3.4698
3.46981
3.46982
3.46982
3.46983
3.46982
3.46982
3.46981
3.46979
3.46976
3.46972
3.46966
3.46959
3.46946
3.4693
3.46898
3.46851
3.46745
3.46599
3.46466
3.46249
3.46038
3.45709
3.45569
3.45527
3.45516
3.45513
3.43128
3.44019
3.44637
3.45304
3.45712
3.46156
3.46439
3.46763
3.46972
3.47212
3.4736
3.47522
3.47641
3.47805
3.47924
3.48079
3.48188
3.48328
3.48426
3.48549
3.48635
3.48743
3.48818
3.48912
3.48978
3.4906
3.49119
3.49196
3.49257
3.49351
3.49438
3.49488
3.49539
3.49572
3.49611
3.49637
3.49669
3.49691
3.49718
3.49736
3.49759
3.49775
3.49795
3.49808
3.49824
3.49835
3.49849
3.49858
3.49869
3.49875
3.49883
3.49888
3.49896
3.49901
3.49909
3.49914
3.4992
3.49925
3.49931
3.49935
3.4994
3.49943
3.49948
3.49951
3.49954
3.49955
3.49956
3.49955
3.49948
3.4993
3.49885
3.49813
3.49735
3.49592
3.4944
3.49188
3.49079
3.49047
3.49038
3.49036
3.29349
3.32069
3.33909
3.35921
3.37134
3.38473
3.39314
3.40294
3.40915
3.41639
3.42078
3.42567
3.42923
3.43416
3.43769
3.44238
3.44564
3.44986
3.45277
3.4565
3.45905
3.46231
3.46453
3.46737
3.46932
3.47181
3.47356
3.47587
3.4777
3.48052
3.48316
3.48464
3.48617
3.48715
3.48832
3.48911
3.49007
3.49073
3.49154
3.49209
3.49279
3.49325
3.49384
3.49424
3.49473
3.49506
3.49547
3.49574
3.49606
3.49626
3.49648
3.49665
3.49688
3.49704
3.49726
3.49741
3.49761
3.49775
3.49793
3.49805
3.4982
3.4983
3.49843
3.49852
3.49861
3.49866
3.4987
3.49864
3.49843
3.49792
3.49657
3.49438
3.49206
3.48776
3.48323
3.47557
3.47234
3.47139
3.47114
3.47109
3.15461
3.20153
3.23174
3.2657
3.2855
3.30811
3.32184
3.33838
3.34853
3.36078
3.36795
3.37618
3.38198
3.39034
3.3961
3.40402
3.40935
3.41649
3.42124
3.42755
3.43172
3.43723
3.44086
3.44566
3.44884
3.45306
3.4559
3.45981
3.46279
3.46754
3.47199
3.47439
3.47698
3.47858
3.48056
3.48183
3.48347
3.48454
3.48592
3.48682
3.48799
3.48875
3.48974
3.49039
3.49123
3.49177
3.49246
3.4929
3.49344
3.49376
3.49414
3.49441
3.4948
3.49507
3.49544
3.49569
3.49602
3.49625
3.49655
3.49674
3.497
3.49717
3.49739
3.49753
3.49769
3.49778
3.49783
3.49775
3.4974
3.49658
3.49432
3.49063
3.48686
3.47961
3.47219
3.45908
3.45381
3.45229
3.4519
3.45181
3.01385
3.08305
3.12424
3.17276
3.19956
3.23184
3.25043
3.27409
3.28783
3.30537
3.31507
3.32678
3.33464
3.34661
3.35442
3.36577
3.37299
3.38322
3.38966
3.39868
3.40433
3.41222
3.41715
3.42402
3.42832
3.43435
3.43821
3.44378
3.44782
3.45458
3.46089
3.46414
3.46783
3.46999
3.47282
3.47455
3.47689
3.47833
3.48031
3.48153
3.4832
3.48424
3.48566
3.48653
3.48773
3.48847
3.48946
3.49005
3.49083
3.49127
3.4918
3.49216
3.49272
3.49309
3.49362
3.49396
3.49444
3.49474
3.49517
3.49544
3.49581
3.49603
3.49635
3.49653
3.49677
3.49689
3.49697
3.49686
3.49638
3.49529
3.49213
3.48689
3.4818
3.47147
3.46138
3.44229
3.43512
3.43313
3.43264
3.43253
2.87032
2.96568
3.01645
3.08069
3.11339
3.15612
3.17881
3.21019
3.22698
3.25027
3.26211
3.27754
3.28713
3.30305
3.31261
3.32769
3.33651
3.3501
3.35797
3.36995
3.37686
3.38733
3.39335
3.40247
3.40774
3.41574
3.42045
3.42781
3.43273
3.44163
3.44992
3.45387
3.45874
3.46137
3.46513
3.46724
3.47035
3.47211
3.47473
3.47622
3.47845
3.47971
3.4816
3.48267
3.48426
3.48515
3.48647
3.4872
3.48823
3.48877
3.48947
3.48991
3.49065
3.4911
3.49181
3.49222
3.49286
3.49323
3.4938
3.49412
3.49462
3.4949
3.49531
3.49554
3.49586
3.496
3.49612
3.49599
3.49539
3.49408
3.49002
3.48315
3.47695
3.46332
3.45092
3.42501
3.41622
3.41393
3.41337
3.41324
2.72298
2.8501
2.90812
2.98988
3.02683
3.0812
3.10685
3.14688
3.16587
3.19563
3.20901
3.22853
3.23937
3.25975
3.27057
3.28985
3.29984
3.31721
3.32611
3.34142
3.34924
3.36262
3.36943
3.38108
3.38704
3.39725
3.40257
3.41194
3.41748
3.42871
3.43913
3.44356
3.44973
3.45271
3.4575
3.45988
3.46386
3.46585
3.4692
3.47088
3.47373
3.47516
3.47757
3.47878
3.48081
3.48182
3.48351
3.48433
3.48565
3.48626
3.48715
3.48765
3.4886
3.4891
3.49001
3.49048
3.4913
3.49172
3.49244
3.49281
3.49344
3.49375
3.49429
3.49454
3.49496
3.49511
3.49527
3.49514
3.49443
3.49298
3.48803
3.47938
3.47239
3.45512
3.44101
3.40705
3.39707
3.39465
3.39407
3.39395
2.57055
2.73728
2.79884
2.90086
2.93957
3.00742
3.03431
3.0844
3.10433
3.14164
3.15566
3.17987
3.19122
3.21683
3.22819
3.25239
3.26288
3.28465
3.294
3.3132
3.3214
3.33817
3.34532
3.35992
3.36617
3.37896
3.38454
3.39623
3.402
3.41582
3.42857
3.43318
3.44086
3.44397
3.44997
3.45247
3.45744
3.45953
3.46373
3.4655
3.46906
3.47056
3.47358
3.47486
3.4774
3.47847
3.48058
3.48144
3.48311
3.48374
3.48485
3.48537
3.48656
3.48709
3.48823
3.48872
3.48974
3.49019
3.49109
3.49148
3.49227
3.4926
3.49327
3.49354
3.49406
3.49423
3.49444
3.49431
3.4935
3.49202
3.48618
3.47554
3.46824
3.44679
3.43189
3.38814
3.37761
3.37529
3.37477
3.37465
2.41146
2.62867
2.68794
2.81437
2.85114
2.93529
2.96085
3.02313
3.0421
3.08859
3.10191
3.13172
3.14251
3.17447
3.1853
3.21547
3.22546
3.2526
3.2615
3.28541
3.29322
3.3141
3.32091
3.33909
3.34504
3.36096
3.36627
3.38075
3.38621
3.40297
3.41834
3.42269
3.43216
3.43512
3.44258
3.44496
3.45115
3.45314
3.45836
3.46005
3.46448
3.46591
3.46967
3.47088
3.47406
3.47507
3.4777
3.47852
3.4806
3.4812
3.48256
3.48306
3.48455
3.48505
3.48647
3.48694
3.48822
3.48864
3.48977
3.49013
3.49112
3.49143
3.49227
3.49253
3.49318
3.49334
3.49362
3.4935
3.49259
3.49124
3.48453
3.47156
3.46466
3.43821
3.42392
3.36789
3.35783
3.35587
3.35544
3.35535
2.24367
2.52638
2.57435
2.73147
2.76082
2.8655
2.88591
2.96359
2.97876
3.03686
3.0475
3.08433
3.09294
3.13296
3.14163
3.17937
3.18736
3.22127
3.22839
3.25826
3.26451
3.2906
3.29604
3.31876
3.32351
3.34338
3.34762
3.36563
3.36996
3.39018
3.40855
3.41198
3.42373
3.42609
3.43539
3.43729
3.44502
3.44661
3.45314
3.45448
3.46002
3.46116
3.46586
3.46683
3.4708
3.47161
3.4749
3.47555
3.47815
3.47863
3.48032
3.48071
3.48258
3.48298
3.48475
3.48513
3.48672
3.48706
3.48847
3.48877
3.48999
3.49025
3.49129
3.4915
3.49232
3.49245
3.49282
3.49273
3.49171
3.49067
3.48312
3.46735
3.46187
3.42913
3.41762
3.34581
3.33772
3.33638
3.3361
3.33604
2.06458
2.43347
2.4564
2.65368
2.66748
2.79908
2.80869
2.90656
2.9137
2.98703
2.99203
3.03807
3.04212
3.09271
3.0968
3.14445
3.14822
3.19101
3.19437
3.23207
3.23501
3.26792
3.27049
3.29913
3.30138
3.32643
3.32843
3.35106
3.35307
3.37746
3.39935
3.40094
3.41567
3.41678
3.42849
3.42939
3.43913
3.43988
3.44812
3.44875
3.45574
3.45627
3.4622
3.46266
3.46766
3.46804
3.4722
3.47251
3.47578
3.47601
3.47812
3.47831
3.48066
3.48085
3.48309
3.48326
3.48528
3.48544
3.48722
3.48736
3.48891
3.48903
3.49035
3.49045
3.49148
3.49154
3.49204
3.492
3.49082
3.49036
3.48205
3.46272
3.46016
3.41921
3.41374
3.32117
3.31734
3.31685
3.31676
3.31674
2.06458
2.43347
2.4564
2.65368
2.66748
2.79908
2.80869
2.90656
2.9137
2.98703
2.99203
3.03807
3.04212
3.09271
3.0968
3.14445
3.14822
3.19101
3.19437
3.23206
3.23501
3.26792
3.27049
3.29913
3.30137
3.32643
3.32843
3.35105
3.35307
3.37746
3.39935
3.40094
3.41567
3.41678
3.42849
3.42939
3.43913
3.43988
3.44812
3.44875
3.45574
3.45627
3.4622
3.46266
3.46766
3.46804
3.4722
3.47251
3.47578
3.47601
3.47812
3.47831
3.48066
3.48085
3.48309
3.48326
3.48528
3.48544
3.48722
3.48736
3.48891
3.48903
3.49035
3.49044
3.49148
3.49154
3.49204
3.492
3.49082
3.49036
3.48205
3.46272
3.46016
3.41921
3.41374
3.32117
3.31734
3.31685
3.31676
3.31673
2.24367
2.52637
2.57435
2.73147
2.76082
2.8655
2.88591
2.96359
2.97876
3.03686
3.0475
3.08433
3.09294
3.13296
3.14163
3.17936
3.18736
3.22127
3.22839
3.25826
3.26451
3.2906
3.29604
3.31875
3.32351
3.34338
3.34762
3.36563
3.36996
3.39018
3.40855
3.41198
3.42373
3.42609
3.43539
3.43729
3.44502
3.44661
3.45314
3.45448
3.46002
3.46116
3.46586
3.46683
3.4708
3.47161
3.4749
3.47555
3.47815
3.47863
3.48032
3.48071
3.48258
3.48298
3.48475
3.48513
3.48672
3.48706
3.48847
3.48877
3.48999
3.49025
3.49129
3.4915
3.49232
3.49245
3.49282
3.49273
3.49171
3.49067
3.48312
3.46735
3.46187
3.42913
3.41762
3.34581
3.33772
3.33638
3.3361
3.33604
2.41146
2.62867
2.68794
2.81437
2.85114
2.93529
2.96085
3.02313
3.0421
3.08859
3.10191
3.13172
3.14251
3.17447
3.1853
3.21547
3.22546
3.2526
3.26149
3.28541
3.29322
3.3141
3.32091
3.33909
3.34504
3.36096
3.36626
3.38075
3.38621
3.40297
3.41834
3.42268
3.43216
3.43512
3.44258
3.44496
3.45115
3.45314
3.45836
3.46005
3.46448
3.46591
3.46967
3.47088
3.47406
3.47507
3.4777
3.47852
3.4806
3.4812
3.48256
3.48306
3.48455
3.48505
3.48647
3.48694
3.48822
3.48864
3.48977
3.49013
3.49112
3.49143
3.49227
3.49253
3.49318
3.49334
3.49362
3.4935
3.49259
3.49124
3.48453
3.47156
3.46466
3.43821
3.42392
3.36789
3.35783
3.35587
3.35544
3.35535
2.57055
2.73728
2.79884
2.90086
2.93957
3.00742
3.03431
3.0844
3.10433
3.14164
3.15566
3.17987
3.19122
3.21682
3.22819
3.25239
3.26288
3.28465
3.294
3.3132
3.3214
3.33817
3.34532
3.35992
3.36617
3.37896
3.38454
3.39623
3.402
3.41582
3.42857
3.43318
3.44086
3.44397
3.44997
3.45247
3.45744
3.45953
3.46373
3.4655
3.46906
3.47056
3.47358
3.47486
3.4774
3.47847
3.48058
3.48144
3.4831
3.48374
3.48485
3.48537
3.48656
3.48709
3.48823
3.48872
3.48974
3.49019
3.49109
3.49148
3.49227
3.4926
3.49327
3.49354
3.49406
3.49423
3.49444
3.49431
3.4935
3.49202
3.48618
3.47554
3.46824
3.44679
3.43189
3.38814
3.37761
3.37529
3.37477
3.37465
2.72298
2.8501
2.90812
2.98988
3.02683
3.0812
3.10685
3.14687
3.16587
3.19563
3.20901
3.22853
3.23937
3.25975
3.27057
3.28985
3.29984
3.31721
3.32611
3.34142
3.34924
3.36262
3.36943
3.38108
3.38704
3.39725
3.40257
3.41194
3.41748
3.42871
3.43913
3.44356
3.44973
3.45271
3.4575
3.45988
3.46385
3.46585
3.4692
3.47088
3.47373
3.47516
3.47757
3.47878
3.48081
3.48182
3.48351
3.48433
3.48565
3.48626
3.48715
3.48765
3.4886
3.4891
3.49001
3.49048
3.4913
3.49172
3.49244
3.49281
3.49344
3.49375
3.49429
3.49454
3.49496
3.49511
3.49527
3.49514
3.49443
3.49298
3.48803
3.47938
3.47239
3.45512
3.44101
3.40705
3.39707
3.39465
3.39407
3.39395
2.87032
2.96568
3.01645
3.08069
3.11339
3.15612
3.17881
3.21019
3.22698
3.25027
3.26211
3.27754
3.28713
3.30305
3.31261
3.32769
3.33651
3.3501
3.35797
3.36995
3.37686
3.38733
3.39335
3.40247
3.40774
3.41574
3.42045
3.42781
3.43273
3.44163
3.44992
3.45387
3.45874
3.46137
3.46513
3.46724
3.47035
3.47211
3.47473
3.47622
3.47844
3.47971
3.4816
3.48267
3.48426
3.48515
3.48647
3.4872
3.48823
3.48876
3.48947
3.48991
3.49065
3.4911
3.49181
3.49222
3.49286
3.49323
3.4938
3.49412
3.49462
3.4949
3.49531
3.49554
3.49586
3.496
3.49611
3.49599
3.49539
3.49408
3.49002
3.48315
3.47695
3.46332
3.45092
3.42501
3.41622
3.41393
3.41337
3.41324
3.01385
3.08305
3.12424
3.17276
3.19956
3.23184
3.25043
3.27409
3.28783
3.30537
3.31507
3.32678
3.33464
3.34661
3.35442
3.36577
3.37299
3.38322
3.38966
3.39868
3.40433
3.41222
3.41715
3.42402
3.42832
3.43435
3.43821
3.44378
3.44782
3.45458
3.46089
3.46414
3.46783
3.46999
3.47282
3.47455
3.47689
3.47833
3.48031
3.48153
3.4832
3.48424
3.48566
3.48653
3.48773
3.48847
3.48946
3.49005
3.49083
3.49127
3.4918
3.49216
3.49272
3.49309
3.49362
3.49396
3.49444
3.49474
3.49517
3.49544
3.49581
3.49603
3.49635
3.49653
3.49677
3.49689
3.49697
3.49686
3.49638
3.49529
3.49213
3.48689
3.4818
3.47147
3.46137
3.44229
3.43512
3.43313
3.43264
3.43252
3.15461
3.20153
3.23174
3.2657
3.2855
3.30811
3.32184
3.33838
3.34853
3.36078
3.36795
3.37618
3.38198
3.39034
3.3961
3.40402
3.40935
3.41649
3.42124
3.42755
3.43172
3.43723
3.44086
3.44566
3.44884
3.45306
3.4559
3.45981
3.46279
3.46754
3.47199
3.47439
3.47698
3.47858
3.48056
3.48183
3.48347
3.48453
3.48592
3.48682
3.48799
3.48875
3.48974
3.49039
3.49123
3.49177
3.49246
3.4929
3.49344
3.49376
3.49414
3.49441
3.4948
3.49507
3.49544
3.49569
3.49602
3.49625
3.49655
3.49674
3.497
3.49717
3.49739
3.49753
3.49769
3.49778
3.49783
3.49775
3.4974
3.49658
3.49432
3.49063
3.48686
3.47961
3.47219
3.45908
3.45381
3.45229
3.4519
3.45181
3.29349
3.32069
3.33909
3.35921
3.37134
3.38473
3.39314
3.40294
3.40915
3.41639
3.42078
3.42567
3.42923
3.43416
3.43769
3.44238
3.44564
3.44986
3.45277
3.4565
3.45905
3.46231
3.46453
3.46737
3.46932
3.47181
3.47356
3.47587
3.4777
3.48052
3.48316
3.48464
3.48617
3.48715
3.48832
3.4891
3.49007
3.49073
3.49154
3.49209
3.49279
3.49325
3.49384
3.49424
3.49473
3.49506
3.49547
3.49574
3.49606
3.49626
3.49648
3.49665
3.49688
3.49704
3.49726
3.49741
3.49761
3.49775
3.49793
3.49805
3.4982
3.4983
3.49843
3.49852
3.49861
3.49866
3.4987
3.49864
3.49843
3.49792
3.49657
3.49438
3.49206
3.48776
3.48323
3.47557
3.47234
3.47139
3.47114
3.47109
3.43128
3.44019
3.44637
3.45303
3.45712
3.46156
3.46439
3.46763
3.46972
3.47212
3.4736
3.47522
3.47641
3.47805
3.47924
3.48079
3.48188
3.48328
3.48426
3.48549
3.48635
3.48743
3.48818
3.48912
3.48978
3.4906
3.49119
3.49196
3.49257
3.49351
3.49438
3.49488
3.49539
3.49572
3.49611
3.49637
3.49669
3.49691
3.49718
3.49736
3.49759
3.49775
3.49795
3.49808
3.49824
3.49835
3.49849
3.49858
3.49869
3.49875
3.49883
3.49888
3.49896
3.49901
3.49909
3.49914
3.4992
3.49925
3.49931
3.49935
3.4994
3.49943
3.49948
3.49951
3.49954
3.49955
3.49956
3.49955
3.49948
3.4993
3.49885
3.49813
3.49735
3.49592
3.4944
3.49188
3.49079
3.49047
3.49038
3.49036
3.43195
3.44028
3.44562
3.45066
3.4534
3.4559
3.4573
3.45865
3.45941
3.46015
3.46067
3.46135
3.46183
3.46245
3.46289
3.46345
3.46384
3.46434
3.46469
3.46514
3.46545
3.46585
3.46612
3.46647
3.46671
3.46702
3.46724
3.46752
3.46774
3.46808
3.46839
3.46857
3.46874
3.46885
3.46898
3.46907
3.46917
3.46923
3.46932
3.46937
3.46944
3.46948
3.46954
3.46957
3.46962
3.46965
3.46968
3.4697
3.46973
3.46974
3.46976
3.46977
3.46979
3.4698
3.46981
3.46982
3.46982
3.46982
3.46982
3.46982
3.46981
3.46979
3.46976
3.46972
3.46966
3.46959
3.46946
3.4693
3.46898
3.46851
3.46745
3.46599
3.46466
3.46249
3.46038
3.45709
3.45569
3.45527
3.45516
3.45513
3.29551
3.32096
3.33688
3.35207
3.36021
3.36776
3.37191
3.37599
3.37824
3.38047
3.38201
3.38405
3.38548
3.38735
3.38866
3.39034
3.39151
3.39303
3.39407
3.39542
3.39635
3.39754
3.39836
3.39941
3.40013
3.40106
3.40171
3.40256
3.40323
3.40425
3.40519
3.40571
3.40623
3.40656
3.40695
3.4072
3.4075
3.4077
3.40795
3.40811
3.40832
3.40845
3.40861
3.40872
3.40885
3.40894
3.40904
3.40911
3.40919
3.40923
3.40928
3.40932
3.40936
3.40939
3.40943
3.40945
3.40947
3.40947
3.40947
3.40945
3.40942
3.40937
3.40927
3.40917
3.40898
3.40878
3.40838
3.40792
3.40695
3.40555
3.40238
3.39796
3.39403
3.38745
3.3812
3.37121
3.36702
3.36578
3.36546
3.36539
3.15806
3.20202
3.22817
3.25377
3.26704
3.27975
3.28653
3.29339
3.29707
3.30082
3.30332
3.30678
3.30912
3.31228
3.31441
3.31726
3.31917
3.32173
3.32344
3.32572
3.32723
3.32925
3.33059
3.33237
3.33355
3.33511
3.33617
3.33761
3.3387
3.34042
3.342
3.34285
3.34373
3.34427
3.34492
3.34533
3.34584
3.34617
3.34659
3.34686
3.3472
3.34741
3.34769
3.34787
3.34809
3.34823
3.34841
3.34852
3.34865
3.34872
3.34881
3.34886
3.34894
3.34899
3.34905
3.34908
3.34911
3.34912
3.34912
3.34909
3.34903
3.34895
3.34879
3.34863
3.34831
3.34797
3.34731
3.34655
3.34494
3.34267
3.33735
3.32991
3.32349
3.31241
3.30217
3.28509
3.27824
3.27626
3.27576
3.27565
3.01885
3.0838
3.11948
3.15595
3.17389
3.19197
3.20114
3.21093
3.21589
3.22122
3.2246
3.22955
3.23272
3.23725
3.24013
3.24422
3.24681
3.25047
3.25278
3.25604
3.2581
3.26099
3.2628
3.26535
3.26695
3.26919
3.27061
3.27267
3.27415
3.27659
3.27884
3.27998
3.28124
3.28197
3.2829
3.28345
3.28419
3.28464
3.28523
3.2856
3.28608
3.28638
3.28677
3.28701
3.28733
3.28752
3.28778
3.28792
3.28811
3.28821
3.28833
3.28841
3.28852
3.28859
3.28867
3.28872
3.28876
3.28877
3.28876
3.28873
3.28864
3.28853
3.28831
3.28808
3.28763
3.28718
3.28624
3.28522
3.28296
3.27991
3.2724
3.26182
3.25315
3.23733
3.22341
3.19856
3.18926
3.18669
3.18604
3.1859
2.87703
2.96674
3.01075
3.05888
3.08073
3.10455
3.11572
3.12865
3.1347
3.14169
3.14582
3.15239
3.15626
3.16229
3.16581
3.17124
3.1744
3.17926
3.18209
3.18642
3.18893
3.19277
3.19499
3.19837
3.20032
3.20329
3.20504
3.20776
3.20955
3.21278
3.21573
3.21711
3.21878
3.21966
3.22089
3.22157
3.22255
3.22309
3.22389
3.22433
3.22498
3.22534
3.22586
3.22615
3.22658
3.22681
3.22715
3.22733
3.22758
3.2277
3.22786
3.22795
3.2281
3.22818
3.22829
3.22835
3.22841
3.22843
3.22841
3.22837
3.22825
3.22812
3.22783
3.22755
3.22695
3.2264
3.22517
3.22394
3.22101
3.21732
3.20758
3.19366
3.18309
3.16217
3.14508
3.11141
3.10001
3.09703
3.09631
3.09614
2.73164
2.85152
2.90186
2.96286
2.9875
3.01764
3.03024
3.04665
3.05347
3.06228
3.06694
3.07534
3.07972
3.08742
3.09141
3.09834
3.10192
3.10813
3.11133
3.11687
3.11971
3.12462
3.12713
3.13144
3.13365
3.13745
3.13942
3.14288
3.1449
3.14897
3.15268
3.15424
3.15634
3.15734
3.15891
3.15968
3.16093
3.16154
3.16255
3.16305
3.16388
3.16429
3.16496
3.16529
3.16583
3.1661
3.16652
3.16673
3.16705
3.16719
3.16739
3.16749
3.16768
3.16777
3.16792
3.16798
3.16806
3.16808
3.16806
3.16802
3.16786
3.16772
3.16734
3.16703
3.16627
3.16565
3.16411
3.16272
3.15908
3.15498
3.14293
3.12536
3.11344
3.08687
3.06742
3.02337
3.01043
3.00729
3.00655
3.00638
2.58144
2.73907
2.79255
2.8683
2.89405
2.93143
2.9446
2.96504
2.97217
2.98303
2.98791
2.99845
3.00305
3.01271
3.01689
3.02559
3.02934
3.03713
3.04049
3.04743
3.05041
3.05656
3.05919
3.0646
3.06692
3.07167
3.07374
3.07806
3.08017
3.08518
3.08972
3.09133
3.09395
3.095
3.09696
3.09776
3.09933
3.09997
3.10124
3.10177
3.1028
3.10323
3.10407
3.10442
3.1051
3.10537
3.10591
3.10612
3.10652
3.10667
3.10692
3.10703
3.10727
3.10736
3.10755
3.10761
3.10771
3.10773
3.10771
3.10766
3.10747
3.10732
3.10686
3.10653
3.10559
3.10494
3.10303
3.10159
3.09718
3.09295
3.0785
3.05683
3.04438
3.01127
2.99075
2.93408
2.92045
2.91745
2.91676
2.91661
2.42494
2.63079
2.68235
2.77573
2.80013
2.84619
2.85867
2.88396
2.89071
2.90403
2.90865
2.92179
2.92618
2.93821
2.9422
2.95302
2.9566
2.9663
2.9695
2.97814
2.98098
2.98864
2.99115
2.99788
3.00009
3.00601
3.00797
3.01333
3.01533
3.0214
3.02687
3.02839
3.03162
3.03261
3.03505
3.03582
3.03777
3.03838
3.03996
3.04046
3.04175
3.04215
3.0432
3.04353
3.04438
3.04464
3.04531
3.04551
3.04601
3.04615
3.04646
3.04656
3.04686
3.04695
3.04718
3.04724
3.04737
3.04739
3.04736
3.04732
3.04708
3.04694
3.04636
3.04606
3.04489
3.04428
3.04194
3.04059
3.03527
3.03134
3.01435
2.98793
2.97615
2.93518
2.91552
2.84307
2.83005
2.82751
2.82696
2.82684
2.26021
2.52868
2.57047
2.68593
2.70535
2.76229
2.77223
2.80361
2.80899
2.82537
2.82905
2.84549
2.849
2.86404
2.86723
2.88075
2.88361
2.89573
2.89829
2.90909
2.91136
2.92093
2.92293
2.93135
2.93311
2.9405
2.94207
2.94873
2.95032
2.95765
2.96418
2.96538
2.96938
2.97018
2.97322
2.97383
2.97626
2.97675
2.97872
2.97912
2.98073
2.98105
2.98236
2.98263
2.98368
2.98389
2.98473
2.98489
2.98551
2.98563
2.986
2.98609
2.98646
2.98653
2.98682
2.98687
2.98703
2.98704
2.98702
2.98698
2.98669
2.98657
2.98586
2.98562
2.98418
2.98369
2.98081
2.97974
2.9733
2.97024
2.95059
2.91845
2.90909
2.85823
2.8424
2.74969
2.73923
2.7375
2.73714
2.73706
2.08474
2.43564
2.45564
2.59996
2.60907
2.68027
2.68494
2.72431
2.72684
2.74722
2.74895
2.7697
2.77136
2.79034
2.79184
2.80891
2.81026
2.82554
2.82675
2.84038
2.84145
2.85352
2.85446
2.86508
2.86591
2.87523
2.87597
2.88434
2.88508
2.89394
2.9017
2.90226
2.90728
2.90765
2.91148
2.91176
2.91483
2.91506
2.91754
2.91773
2.91976
2.91991
2.92156
2.92169
2.92302
2.92312
2.92417
2.92425
2.92504
2.92509
2.92556
2.9256
2.92607
2.92611
2.92647
2.9265
2.9267
2.9267
2.92667
2.92665
2.92629
2.92623
2.92534
2.92522
2.92342
2.92319
2.9196
2.91911
2.9112
2.90981
2.88732
2.84806
2.84368
2.77988
2.77236
2.65301
2.64806
2.64743
2.64731
2.64728
)
;

boundaryField
{
    F1_1
    {
        type            fixedValue;
        value           nonuniform List<scalar> 
80
(
1.99022
2.39626
2.39626
2.56079
2.56079
2.64297
2.64297
2.69059
2.69059
2.72079
2.72079
2.73818
2.73818
2.75726
2.75726
2.77546
2.77546
2.7922
2.7922
2.80733
2.80733
2.82083
2.82083
2.83275
2.83275
2.84324
2.84324
2.85267
2.85267
2.86239
2.87082
2.87082
2.87648
2.87648
2.88081
2.88081
2.88428
2.88428
2.88709
2.88709
2.88938
2.88938
2.89125
2.89125
2.89276
2.89276
2.89395
2.89395
2.89484
2.89484
2.89538
2.89538
2.89591
2.89591
2.89632
2.89632
2.89655
2.89655
2.89651
2.89651
2.89609
2.89609
2.89507
2.89507
2.89302
2.89302
2.88895
2.88895
2.88002
2.88002
2.85603
2.81217
2.81217
2.73958
2.73958
2.60239
2.60239
2.60239
2.60239
2.60239
)
;
    }
    F1_2
    {
        type            fixedValue;
        value           nonuniform List<scalar> 
80
(
1.96765
2.39393
2.39393
2.61845
2.61845
2.7683
2.7683
2.87985
2.87985
2.96348
2.96348
3.01578
3.01578
3.07351
3.07351
3.12786
3.12786
3.17667
3.17667
3.21966
3.21966
3.25718
3.25718
3.28985
3.28985
3.31841
3.31841
3.34418
3.34418
3.37115
3.39516
3.39516
3.41192
3.41192
3.42526
3.42526
3.43637
3.43637
3.44576
3.44576
3.45372
3.45372
3.46048
3.46048
3.46619
3.46619
3.47092
3.47092
3.47466
3.47466
3.47706
3.47706
3.47975
3.47975
3.4823
3.4823
3.4846
3.4846
3.48663
3.48663
3.48839
3.48839
3.4899
3.4899
3.49108
3.49108
3.49165
3.49165
3.49036
3.49036
3.48173
3.46007
3.46007
3.41354
3.41354
3.30708
3.30708
3.30708
3.30708
3.30708
)
;
    }
    F1_3
    {
        type            fixedValue;
        value           nonuniform List<scalar> 
80
(
1.96765
2.39393
2.39393
2.61845
2.61845
2.7683
2.7683
2.87985
2.87985
2.96348
2.96348
3.01578
3.01578
3.07351
3.07351
3.12786
3.12786
3.17667
3.17667
3.21966
3.21966
3.25718
3.25718
3.28985
3.28985
3.31841
3.31841
3.34418
3.34418
3.37115
3.39516
3.39516
3.41192
3.41192
3.42526
3.42526
3.43637
3.43637
3.44576
3.44576
3.45372
3.45372
3.46048
3.46048
3.46619
3.46619
3.47092
3.47092
3.47466
3.47466
3.47706
3.47706
3.47975
3.47975
3.4823
3.4823
3.4846
3.4846
3.48663
3.48663
3.48839
3.48839
3.4899
3.4899
3.49108
3.49108
3.49165
3.49165
3.49036
3.49036
3.48173
3.46007
3.46007
3.41354
3.41354
3.30708
3.30708
3.30708
3.30708
3.30708
)
;
    }
    F1_4
    {
        type            fixedValue;
        value           nonuniform List<scalar> 
80
(
1.98998
2.39574
2.39574
2.55968
2.55968
2.64059
2.64059
2.6854
2.6854
2.70851
2.70851
2.73219
2.73219
2.75384
2.75384
2.7733
2.7733
2.79073
2.79073
2.80627
2.80627
2.82003
2.82003
2.83214
2.83214
2.84276
2.84276
2.85229
2.85229
2.8621
2.87061
2.87061
2.87631
2.87631
2.88068
2.88068
2.88417
2.88417
2.887
2.887
2.88931
2.88931
2.89119
2.89119
2.89271
2.89271
2.89392
2.89392
2.89481
2.89481
2.89535
2.89535
2.89589
2.89589
2.8963
2.8963
2.89653
2.89653
2.8965
2.8965
2.89608
2.89608
2.89506
2.89506
2.89301
2.89301
2.88894
2.88894
2.88002
2.88002
2.85602
2.81217
2.81217
2.73957
2.73957
2.60239
2.60239
2.60239
2.60239
2.60239
)
;
    }
    F2_1
    {
        type            fixedValue;
        value           uniform 3.5;
    }
    F2_2
    {
        type            fixedValue;
        value           uniform 3.5;
    }
    F2_3
    {
        type            fixedValue;
        value           uniform 3.5;
    }
    F2_4
    {
        type            fixedValue;
        value           uniform 3.5;
    }
    defaultFaces
    {
        type            empty;
    }
}


// ************************************************************************* //
