/*--------------------------------*- C++ -*----------------------------------*\
| =========                 |                                                 |
| \\      /  F ield         | OpenFOAM: The Open Source CFD Toolbox           |
|  \\    /   O peration     | Version:  5.x                                   |
|   \\  /    A nd           | Web:      www.OpenFOAM.org                      |
|    \\/     M anipulation  |                                                 |
\*---------------------------------------------------------------------------*/
FoamFile
{
    version     2.0;
    format      ascii;
    class       volScalarField;
    location    "3.4";
    object      T;
}
// * * * * * * * * * * * * * * * * * * * * * * * * * * * * * * * * * * * * * //

dimensions      [0 0 0 1 0 0 0];

internalField   nonuniform List<scalar> 
3200
(
2.08639
2.43729
2.4573
2.60199
2.61115
2.68334
2.68815
2.72989
2.73275
2.75916
2.76091
2.77616
2.7775
2.79413
2.79548
2.81135
2.81262
2.82721
2.82837
2.84156
2.8426
2.85438
2.8553
2.86571
2.86653
2.8757
2.87643
2.8847
2.88543
2.8942
2.9019
2.90245
2.90743
2.9078
2.91161
2.9119
2.91495
2.91518
2.91765
2.91784
2.91986
2.92001
2.92166
2.92178
2.92311
2.92321
2.92427
2.92434
2.92513
2.92518
2.92566
2.9257
2.92617
2.92621
2.92658
2.9266
2.92681
2.92682
2.92679
2.92677
2.92641
2.92635
2.92546
2.92534
2.92354
2.92331
2.91971
2.91922
2.91131
2.90992
2.88746
2.84827
2.84389
2.78021
2.7727
2.65357
2.64862
2.64799
2.64787
2.64784
2.26169
2.53016
2.57198
2.68773
2.70728
2.76501
2.77526
2.80853
2.81461
2.8356
2.83934
2.85156
2.85441
2.86757
2.87044
2.88301
2.8857
2.89726
2.89972
2.91017
2.91238
2.92171
2.92368
2.93193
2.93366
2.94094
2.94248
2.94906
2.95063
2.95789
2.96436
2.96555
2.96953
2.97031
2.97334
2.97395
2.97637
2.97686
2.97882
2.97922
2.98082
2.98114
2.98245
2.98271
2.98377
2.98398
2.98481
2.98498
2.9856
2.98571
2.98609
2.98617
2.98655
2.98663
2.98692
2.98697
2.98713
2.98715
2.98712
2.98709
2.9868
2.98668
2.98597
2.98572
2.98428
2.98379
2.98091
2.97984
2.9734
2.97034
2.95071
2.91863
2.90928
2.85852
2.84272
2.75017
2.73973
2.738
2.73764
2.73756
2.42625
2.6321
2.6837
2.77732
2.80188
2.84858
2.86144
2.88825
2.89588
2.91274
2.91742
2.92734
2.93091
2.94143
2.94501
2.95506
2.95843
2.96768
2.97075
2.97911
2.98187
2.98935
2.9918
2.9984
3.00057
3.0064
3.00834
3.01362
3.0156
3.02161
3.02703
3.02854
3.03175
3.03274
3.03516
3.03592
3.03786
3.03847
3.04005
3.04055
3.04183
3.04223
3.04328
3.04361
3.04445
3.04472
3.04538
3.04559
3.04609
3.04623
3.04653
3.04664
3.04694
3.04703
3.04727
3.04733
3.04746
3.04748
3.04746
3.04741
3.04718
3.04704
3.04646
3.04615
3.04499
3.04437
3.04203
3.04068
3.03536
3.03143
3.01447
2.98809
2.97633
2.93543
2.91581
2.84349
2.83049
2.82796
2.8274
2.82728
2.58258
2.74021
2.79374
2.86968
2.89559
2.9335
2.94707
2.96875
2.97678
2.99037
2.9953
3.00337
3.00713
3.01556
3.01932
3.02738
3.03092
3.03834
3.04157
3.04828
3.05118
3.05718
3.05975
3.06506
3.06733
3.07201
3.07405
3.07832
3.08041
3.08536
3.08986
3.09146
3.09406
3.0951
3.09705
3.09785
3.09941
3.10005
3.10132
3.10184
3.10287
3.1033
3.10414
3.10448
3.10516
3.10544
3.10598
3.10619
3.10659
3.10674
3.10699
3.1071
3.10734
3.10744
3.10762
3.10769
3.10779
3.10781
3.10779
3.10775
3.10755
3.1074
3.10694
3.10662
3.10567
3.10502
3.10311
3.10167
3.09726
3.09303
3.0786
3.05697
3.04454
3.01149
2.991
2.93444
2.92083
2.91783
2.91715
2.917
2.7326
2.85249
2.90288
2.96403
2.98883
3.01939
3.03237
3.04979
3.05746
3.06833
3.07305
3.07958
3.08317
3.08988
3.09346
3.09989
3.10325
3.10917
3.11224
3.1176
3.12036
3.12514
3.1276
3.13183
3.134
3.13774
3.13968
3.1431
3.1451
3.14912
3.1528
3.15434
3.15644
3.15743
3.15899
3.15975
3.161
3.16161
3.16262
3.16312
3.16394
3.16435
3.16502
3.16535
3.16589
3.16615
3.16658
3.16678
3.1671
3.16724
3.16744
3.16755
3.16774
3.16783
3.16798
3.16804
3.16813
3.16814
3.16813
3.16809
3.16793
3.16779
3.16741
3.1671
3.16634
3.16572
3.16417
3.16278
3.15915
3.15505
3.14301
3.12547
3.11358
3.08705
3.06764
3.02366
3.01075
3.00761
3.00687
3.00671
2.87782
2.96754
3.01159
3.05984
3.08183
3.10599
3.1175
3.13122
3.13801
3.14655
3.15073
3.1559
3.15908
3.16432
3.16749
3.17251
3.17549
3.18012
3.18283
3.18702
3.18946
3.19321
3.19538
3.19869
3.2006
3.20353
3.20525
3.20794
3.20971
3.2129
3.21583
3.2172
3.21886
3.21973
3.22096
3.22163
3.22261
3.22315
3.22394
3.22438
3.22502
3.22538
3.22591
3.2262
3.22662
3.22686
3.22719
3.22737
3.22762
3.22775
3.2279
3.228
3.22815
3.22823
3.22835
3.2284
3.22846
3.22848
3.22847
3.22843
3.22831
3.22818
3.22788
3.22761
3.22701
3.22645
3.22522
3.22399
3.22106
3.21738
3.20765
3.19375
3.1832
3.16232
3.14527
3.11165
3.10027
3.0973
3.09657
3.09641
3.01946
3.08442
3.12013
3.1567
3.17475
3.19309
3.20253
3.21292
3.21849
3.22494
3.22837
3.2323
3.23491
3.23885
3.24144
3.24522
3.24765
3.25114
3.25336
3.25651
3.25851
3.26133
3.26311
3.2656
3.26717
3.26937
3.27078
3.27281
3.27427
3.27669
3.27892
3.28005
3.2813
3.28202
3.28295
3.2835
3.28424
3.28468
3.28527
3.28564
3.28612
3.28641
3.28681
3.28705
3.28737
3.28756
3.28781
3.28796
3.28815
3.28825
3.28837
3.28844
3.28856
3.28862
3.28871
3.28876
3.2888
3.28882
3.28881
3.28877
3.28868
3.28858
3.28835
3.28813
3.28767
3.28722
3.28628
3.28526
3.283
3.27995
3.27246
3.26189
3.25324
3.23745
3.22355
3.19874
3.18946
3.18689
3.18625
3.1861
3.1585
3.20247
3.22863
3.2543
3.26765
3.28054
3.28753
3.29482
3.29894
3.30345
3.30598
3.30875
3.31068
3.31343
3.31534
3.31798
3.31978
3.32221
3.32385
3.32605
3.32753
3.3295
3.33081
3.33255
3.33371
3.33525
3.33629
3.33771
3.33879
3.34049
3.34206
3.3429
3.34378
3.34431
3.34495
3.34536
3.34588
3.3462
3.34662
3.34689
3.34722
3.34744
3.34772
3.34789
3.34812
3.34826
3.34843
3.34854
3.34867
3.34875
3.34883
3.34889
3.34897
3.34902
3.34908
3.34911
3.34914
3.34915
3.34915
3.34912
3.34906
3.34898
3.34882
3.34866
3.34834
3.348
3.34734
3.34658
3.34497
3.3427
3.33739
3.32996
3.32356
3.31249
3.30227
3.28522
3.27838
3.27641
3.27591
3.27579
3.29578
3.32123
3.33716
3.35239
3.36058
3.36824
3.37252
3.37684
3.37937
3.38204
3.38359
3.38524
3.38642
3.38805
3.38922
3.39078
3.39187
3.39332
3.39432
3.39562
3.39652
3.39769
3.39849
3.39952
3.40023
3.40114
3.40178
3.40262
3.40328
3.40429
3.40522
3.40574
3.40626
3.40659
3.40697
3.40722
3.40752
3.40772
3.40797
3.40813
3.40833
3.40847
3.40863
3.40874
3.40887
3.40895
3.40906
3.40913
3.4092
3.40925
3.4093
3.40933
3.40938
3.40941
3.40945
3.40947
3.40949
3.40949
3.40949
3.40947
3.40943
3.40939
3.40929
3.40919
3.409
3.40879
3.4084
3.40793
3.40697
3.40557
3.4024
3.39799
3.39406
3.3875
3.38126
3.37129
3.36711
3.36587
3.36555
3.36548
3.43204
3.44037
3.44572
3.45077
3.45352
3.45606
3.45751
3.45894
3.45979
3.46068
3.4612
3.46174
3.46214
3.46268
3.46307
3.46359
3.46396
3.46444
3.46477
3.46521
3.46551
3.46589
3.46616
3.46651
3.46674
3.46705
3.46726
3.46754
3.46776
3.4681
3.46841
3.46858
3.46875
3.46886
3.46899
3.46907
3.46917
3.46924
3.46932
3.46938
3.46944
3.46949
3.46954
3.46958
3.46962
3.46965
3.46969
3.46971
3.46973
3.46975
3.46977
3.46978
3.46979
3.4698
3.46982
3.46982
3.46983
3.46983
3.46983
3.46982
3.46981
3.4698
3.46976
3.46973
3.46967
3.4696
3.46947
3.46931
3.46899
3.46852
3.46746
3.466
3.46468
3.4625
3.4604
3.45712
3.45572
3.45529
3.45519
3.45516
3.43168
3.44058
3.44675
3.45341
3.45749
3.46193
3.46475
3.46799
3.47008
3.47248
3.47395
3.47557
3.47676
3.47839
3.47958
3.48112
3.48221
3.48361
3.48458
3.48581
3.48666
3.48773
3.48848
3.48941
3.49006
3.49088
3.49146
3.49222
3.49283
3.49375
3.49461
3.4951
3.4956
3.49593
3.49631
3.49656
3.49688
3.49709
3.49736
3.49754
3.49776
3.49791
3.4981
3.49823
3.49838
3.49849
3.49862
3.49871
3.49881
3.49887
3.49894
3.499
3.49907
3.49912
3.49919
3.49924
3.4993
3.49934
3.4994
3.49943
3.49948
3.49951
3.49955
3.49958
3.49961
3.49962
3.49963
3.49961
3.49953
3.49935
3.49889
3.49815
3.49736
3.49592
3.49438
3.49185
3.49075
3.49043
3.49034
3.49032
3.2947
3.32186
3.34024
3.36034
3.37245
3.38584
3.39424
3.40403
3.41023
3.41747
3.42185
3.42673
3.43028
3.4352
3.43872
3.44338
3.44663
3.45084
3.45373
3.45744
3.45998
3.46321
3.46542
3.46824
3.47017
3.47264
3.47437
3.47666
3.47847
3.48125
3.48385
3.48531
3.48682
3.48778
3.48893
3.48969
3.49064
3.49127
3.49207
3.4926
3.49328
3.49373
3.4943
3.49468
3.49516
3.49547
3.49587
3.49612
3.49643
3.49662
3.49683
3.49699
3.49721
3.49736
3.49757
3.49771
3.4979
3.49803
3.49819
3.4983
3.49844
3.49854
3.49865
3.49873
3.49882
3.49886
3.49888
3.49882
3.49859
3.49807
3.49668
3.49445
3.49211
3.48776
3.48319
3.47548
3.47223
3.47127
3.47102
3.47097
3.15663
3.20348
3.23365
3.26758
3.28737
3.30996
3.32368
3.34021
3.35034
3.36257
3.36973
3.37794
3.38373
3.39206
3.39781
3.4057
3.41101
3.41812
3.42285
3.42912
3.43326
3.43873
3.44235
3.44711
3.45026
3.45444
3.45726
3.46112
3.46407
3.46876
3.47314
3.47551
3.47805
3.47962
3.48156
3.48281
3.48441
3.48545
3.48679
3.48767
3.4888
3.48954
3.4905
3.49113
3.49194
3.49245
3.49312
3.49354
3.49406
3.49437
3.49472
3.49498
3.49535
3.4956
3.49595
3.49618
3.4965
3.49671
3.49698
3.49717
3.49741
3.49756
3.49776
3.49788
3.49803
3.4981
3.49813
3.49804
3.49766
3.49681
3.49451
3.49076
3.48694
3.47961
3.47213
3.45893
3.45362
3.45209
3.4517
3.45161
3.01668
3.08578
3.12692
3.17539
3.20217
3.23442
3.253
3.27664
3.29037
3.30787
3.31756
3.32925
3.33709
3.34903
3.35681
3.36812
3.37531
3.3855
3.3919
3.40088
3.40649
3.41433
3.41922
3.42604
3.43031
3.43629
3.4401
3.44561
3.4496
3.45628
3.4625
3.4657
3.46933
3.47145
3.47422
3.47591
3.4782
3.47961
3.48154
3.48272
3.48435
3.48535
3.48672
3.48757
3.48872
3.48943
3.49038
3.49095
3.49169
3.49211
3.49262
3.49296
3.49349
3.49383
3.49434
3.49465
3.4951
3.49539
3.49578
3.49603
3.49637
3.49658
3.49687
3.49704
3.49725
3.49734
3.4974
3.49727
3.49675
3.49562
3.49239
3.48706
3.4819
3.47147
3.4613
3.44207
3.43486
3.43286
3.43236
3.43224
2.87397
2.96919
3.01989
3.08407
3.11675
3.15944
3.18212
3.21347
3.23024
3.25349
3.26532
3.28071
3.29028
3.30616
3.31568
3.33071
3.3395
3.35303
3.36085
3.37277
3.37964
3.39004
3.39602
3.40507
3.41029
3.41822
3.42288
3.43017
3.43503
3.44382
3.45199
3.45588
3.46066
3.46325
3.46693
3.46899
3.47203
3.47375
3.47631
3.47776
3.47992
3.48114
3.48297
3.484
3.48553
3.48639
3.48766
3.48835
3.48934
3.48985
3.49052
3.49094
3.49164
3.49206
3.49273
3.49312
3.49372
3.49406
3.49459
3.49489
3.49534
3.4956
3.49598
3.49619
3.49647
3.49659
3.49666
3.49651
3.49587
3.49451
3.49036
3.48337
3.47708
3.46332
3.45082
3.42473
3.41588
3.41357
3.413
3.41288
2.72745
2.85438
2.91232
2.994
3.03092
3.08525
3.11089
3.15088
3.16985
3.19957
3.21293
3.23241
3.24322
3.26354
3.27432
3.29354
3.30349
3.32078
3.32964
3.34487
3.35264
3.36593
3.3727
3.38426
3.39016
3.40028
3.40556
3.41482
3.4203
3.43138
3.44165
3.44602
3.45208
3.455
3.4597
3.46203
3.46591
3.46786
3.47112
3.47276
3.47552
3.47691
3.47924
3.48041
3.48237
3.48334
3.48496
3.48574
3.48701
3.48758
3.48843
3.48891
3.4898
3.49028
3.49113
3.49157
3.49234
3.49273
3.4934
3.49374
3.49432
3.49461
3.4951
3.49533
3.4957
3.49583
3.49594
3.49578
3.49501
3.49351
3.48844
3.47964
3.47256
3.45512
3.44089
3.4067
3.39665
3.39421
3.39363
3.3935
2.57585
2.74232
2.8038
2.90573
2.94441
3.01222
3.03909
3.08913
3.10904
3.14629
3.16029
3.18445
3.19577
3.2213
3.23263
3.25675
3.26719
3.28887
3.29817
3.31727
3.32542
3.34208
3.34918
3.36367
3.36987
3.38254
3.38807
3.39963
3.40534
3.41897
3.43154
3.43609
3.44363
3.44669
3.45256
3.45501
3.45987
3.46191
3.466
3.46772
3.47118
3.47264
3.47556
3.47678
3.47924
3.48026
3.48229
3.48311
3.4847
3.4853
3.48636
3.48686
3.48798
3.48848
3.48955
3.49001
3.49098
3.49139
3.49223
3.49259
3.49331
3.49362
3.49423
3.49447
3.49494
3.49508
3.49523
3.49507
3.49419
3.49266
3.48667
3.47584
3.46846
3.44679
3.43176
3.38771
3.37711
3.37477
3.37424
3.37413
2.41759
2.63447
2.69366
2.81998
2.85672
2.94082
2.96636
3.02858
3.04753
3.09395
3.10725
3.137
3.14776
3.17963
3.19042
3.22049
3.23044
3.25746
3.26631
3.2901
3.29786
3.31861
3.32537
3.34341
3.34931
3.36509
3.37034
3.38467
3.39006
3.40661
3.42176
3.42604
3.43536
3.43826
3.44557
3.44789
3.45394
3.45589
3.46098
3.46262
3.46692
3.4683
3.47194
3.47311
3.47617
3.47714
3.47967
3.48045
3.48243
3.48301
3.48431
3.48478
3.48619
3.48666
3.488
3.48844
3.48963
3.49003
3.49108
3.49142
3.49232
3.49261
3.49337
3.49361
3.49419
3.49432
3.49453
3.49438
3.49338
3.49198
3.4851
3.47191
3.46492
3.43819
3.42379
3.36738
3.35724
3.35527
3.35484
3.35475
2.25065
2.53292
2.58084
2.73782
2.76714
2.87176
2.89216
2.96977
2.98492
3.04293
3.05355
3.09031
3.0989
3.13881
3.14745
3.18505
3.19301
3.22677
3.23385
3.26357
3.26978
3.29569
3.3011
3.32364
3.32836
3.34805
3.35225
3.37006
3.37434
3.3943
3.41241
3.41579
3.42734
3.42966
3.43876
3.44063
3.44818
3.44973
3.45609
3.4574
3.46278
3.46388
3.46843
3.46936
3.47318
3.47396
3.47712
3.47775
3.48022
3.48068
3.48229
3.48267
3.48443
3.48481
3.48648
3.48683
3.48832
3.48864
3.48995
3.49022
3.49135
3.49159
3.49254
3.49273
3.49345
3.49356
3.49384
3.49373
3.4926
3.49153
3.48378
3.46773
3.46217
3.4291
3.4175
3.34519
3.33705
3.3357
3.33542
3.33536
2.07243
2.44075
2.46365
2.66076
2.67455
2.80606
2.81567
2.91345
2.92059
2.99381
2.9988
3.04474
3.04879
3.09923
3.10331
3.15079
3.15454
3.19715
3.20049
3.23798
3.24091
3.2736
3.27615
3.30458
3.3068
3.33163
3.33361
3.356
3.35799
3.38207
3.40364
3.40521
3.41969
3.42078
3.43225
3.43313
3.44265
3.44338
3.4514
3.45202
3.4588
3.45932
3.46506
3.4655
3.47032
3.47068
3.47467
3.47496
3.47809
3.47831
3.48032
3.4805
3.48272
3.4829
3.48501
3.48517
3.48706
3.48721
3.48886
3.48899
3.49042
3.49053
3.49173
3.49182
3.49275
3.4928
3.49317
3.49313
3.49181
3.49133
3.48278
3.46312
3.46053
3.41915
3.41364
3.32044
3.31658
3.31609
3.31599
3.31597
2.07243
2.44075
2.46365
2.66076
2.67454
2.80606
2.81566
2.91345
2.92059
2.9938
2.9988
3.04474
3.04878
3.09923
3.10331
3.15078
3.15454
3.19715
3.20049
3.23798
3.2409
3.2736
3.27615
3.30458
3.3068
3.33163
3.33361
3.356
3.35799
3.38207
3.40364
3.40521
3.41969
3.42078
3.43225
3.43313
3.44265
3.44338
3.4514
3.45202
3.4588
3.45932
3.46506
3.4655
3.47032
3.47068
3.47467
3.47496
3.47809
3.47831
3.48032
3.48049
3.48272
3.4829
3.48501
3.48517
3.48706
3.48721
3.48886
3.48899
3.49042
3.49053
3.49173
3.49182
3.49275
3.4928
3.49317
3.49313
3.49181
3.49134
3.48279
3.46313
3.46053
3.41916
3.41364
3.32045
3.31659
3.31611
3.31601
3.31599
2.25065
2.53292
2.58084
2.73781
2.76714
2.87175
2.89215
2.96976
2.98491
3.04293
3.05355
3.09031
3.0989
3.13881
3.14744
3.18505
3.19301
3.22677
3.23385
3.26357
3.26978
3.29569
3.3011
3.32364
3.32835
3.34805
3.35224
3.37006
3.37434
3.3943
3.4124
3.41579
3.42734
3.42965
3.43876
3.44063
3.44818
3.44973
3.45609
3.4574
3.46277
3.46388
3.46843
3.46936
3.47318
3.47396
3.47712
3.47775
3.48022
3.48068
3.48229
3.48266
3.48443
3.48481
3.48648
3.48683
3.48832
3.48864
3.48995
3.49022
3.49135
3.49159
3.49254
3.49273
3.49345
3.49356
3.49384
3.49373
3.4926
3.49153
3.48378
3.46773
3.46218
3.42911
3.41751
3.3452
3.33706
3.33571
3.33543
3.33537
2.41759
2.63447
2.69366
2.81998
2.85672
2.94081
2.96635
3.02858
3.04753
3.09395
3.10725
3.137
3.14776
3.17963
3.19042
3.22049
3.23044
3.25746
3.26631
3.2901
3.29786
3.3186
3.32537
3.34341
3.34931
3.36508
3.37034
3.38467
3.39006
3.40661
3.42176
3.42604
3.43535
3.43826
3.44556
3.44789
3.45394
3.45589
3.46098
3.46261
3.46692
3.4683
3.47194
3.47311
3.47617
3.47714
3.47967
3.48045
3.48243
3.48301
3.48431
3.48478
3.48619
3.48666
3.488
3.48844
3.48963
3.49002
3.49107
3.49142
3.49232
3.49261
3.49337
3.49361
3.49419
3.49432
3.49453
3.49438
3.49338
3.49198
3.4851
3.47191
3.46492
3.4382
3.4238
3.36739
3.35725
3.35528
3.35485
3.35476
2.57585
2.74232
2.8038
2.90572
2.9444
3.01222
3.03908
3.08913
3.10904
3.14629
3.16029
3.18444
3.19577
3.2213
3.23263
3.25674
3.26719
3.28887
3.29817
3.31726
3.32542
3.34208
3.34918
3.36367
3.36987
3.38254
3.38807
3.39963
3.40534
3.41897
3.43154
3.43609
3.44363
3.44669
3.45256
3.45501
3.45987
3.46191
3.466
3.46772
3.47118
3.47263
3.47556
3.47678
3.47924
3.48026
3.48229
3.48311
3.4847
3.4853
3.48636
3.48686
3.48798
3.48848
3.48955
3.49001
3.49097
3.49139
3.49223
3.49259
3.49331
3.49362
3.49423
3.49447
3.49494
3.49508
3.49523
3.49507
3.49419
3.49266
3.48667
3.47584
3.46846
3.44679
3.43177
3.38772
3.37712
3.37478
3.37425
3.37414
2.72745
2.85437
2.91232
2.994
3.03092
3.08525
3.11089
3.15088
3.16985
3.19956
3.21293
3.2324
3.24321
3.26354
3.27432
3.29354
3.30349
3.32078
3.32964
3.34487
3.35264
3.36593
3.3727
3.38426
3.39016
3.40028
3.40556
3.41482
3.42029
3.43138
3.44165
3.44602
3.45208
3.455
3.4597
3.46203
3.46591
3.46786
3.47112
3.47276
3.47552
3.47691
3.47924
3.48041
3.48237
3.48334
3.48496
3.48574
3.48701
3.48758
3.48843
3.48891
3.4898
3.49028
3.49113
3.49157
3.49234
3.49273
3.4934
3.49374
3.49432
3.49461
3.4951
3.49533
3.4957
3.49583
3.49594
3.49578
3.49501
3.49351
3.48844
3.47964
3.47256
3.45512
3.4409
3.40671
3.39666
3.39422
3.39364
3.39351
2.87397
2.96918
3.01989
3.08406
3.11674
3.15944
3.18212
3.21347
3.23024
3.25349
3.26531
3.28071
3.29028
3.30615
3.31568
3.33071
3.3395
3.35302
3.36085
3.37277
3.37964
3.39004
3.39602
3.40507
3.41029
3.41822
3.42288
3.43017
3.43503
3.44382
3.45199
3.45588
3.46066
3.46325
3.46693
3.46899
3.47203
3.47375
3.47631
3.47776
3.47992
3.48114
3.48297
3.484
3.48553
3.48639
3.48766
3.48835
3.48934
3.48985
3.49052
3.49094
3.49164
3.49206
3.49273
3.49312
3.49372
3.49406
3.49459
3.49489
3.49534
3.4956
3.49598
3.49619
3.49647
3.49659
3.49666
3.49651
3.49587
3.49451
3.49036
3.48337
3.47709
3.46332
3.45083
3.42474
3.41589
3.41357
3.41301
3.41288
3.01668
3.08577
3.12692
3.17539
3.20216
3.23442
3.253
3.27664
3.29037
3.30787
3.31756
3.32925
3.33709
3.34902
3.35681
3.36812
3.37531
3.3855
3.3919
3.40088
3.40649
3.41433
3.41922
3.42604
3.43031
3.43629
3.4401
3.44561
3.4496
3.45628
3.4625
3.4657
3.46933
3.47145
3.47422
3.47591
3.4782
3.47961
3.48153
3.48272
3.48435
3.48535
3.48672
3.48757
3.48872
3.48943
3.49038
3.49095
3.49169
3.49211
3.49262
3.49296
3.49349
3.49383
3.49433
3.49465
3.4951
3.49539
3.49578
3.49603
3.49637
3.49658
3.49687
3.49704
3.49725
3.49734
3.4974
3.49727
3.49675
3.49562
3.49239
3.48707
3.48191
3.47148
3.4613
3.44208
3.43486
3.43286
3.43236
3.43225
3.15663
3.20348
3.23365
3.26758
3.28736
3.30995
3.32368
3.3402
3.35034
3.36257
3.36973
3.37794
3.38373
3.39206
3.39781
3.4057
3.41101
3.41812
3.42285
3.42911
3.43326
3.43873
3.44235
3.44711
3.45026
3.45444
3.45726
3.46112
3.46407
3.46876
3.47314
3.47551
3.47805
3.47962
3.48156
3.48281
3.48441
3.48545
3.48679
3.48767
3.4888
3.48954
3.4905
3.49113
3.49193
3.49245
3.49312
3.49354
3.49406
3.49437
3.49472
3.49498
3.49535
3.4956
3.49595
3.49618
3.4965
3.49671
3.49698
3.49717
3.49741
3.49756
3.49776
3.49788
3.49803
3.4981
3.49813
3.49804
3.49766
3.49681
3.49451
3.49076
3.48694
3.47962
3.47213
3.45894
3.45362
3.45209
3.4517
3.45161
3.2947
3.32186
3.34024
3.36034
3.37245
3.38584
3.39424
3.40403
3.41023
3.41747
3.42185
3.42673
3.43028
3.4352
3.43872
3.44338
3.44663
3.45084
3.45373
3.45744
3.45998
3.46321
3.46542
3.46824
3.47017
3.47264
3.47437
3.47666
3.47847
3.48125
3.48385
3.48531
3.48682
3.48778
3.48893
3.48969
3.49064
3.49127
3.49207
3.4926
3.49328
3.49373
3.4943
3.49468
3.49516
3.49547
3.49587
3.49612
3.49643
3.49662
3.49683
3.49699
3.49721
3.49736
3.49757
3.49771
3.4979
3.49803
3.49819
3.4983
3.49844
3.49854
3.49865
3.49873
3.49882
3.49886
3.49888
3.49882
3.49859
3.49807
3.49668
3.49445
3.49211
3.48776
3.4832
3.47548
3.47224
3.47127
3.47103
3.47097
3.43168
3.44058
3.44675
3.45341
3.45749
3.46193
3.46475
3.46799
3.47008
3.47248
3.47395
3.47557
3.47676
3.47839
3.47958
3.48112
3.48221
3.48361
3.48458
3.48581
3.48666
3.48773
3.48848
3.48941
3.49006
3.49088
3.49146
3.49222
3.49283
3.49375
3.49461
3.4951
3.4956
3.49593
3.49631
3.49656
3.49688
3.49709
3.49736
3.49754
3.49776
3.49791
3.4981
3.49823
3.49838
3.49849
3.49862
3.49871
3.49881
3.49887
3.49894
3.499
3.49907
3.49912
3.49919
3.49924
3.4993
3.49934
3.4994
3.49943
3.49948
3.49951
3.49955
3.49958
3.49961
3.49962
3.49963
3.49961
3.49953
3.49935
3.49889
3.49815
3.49736
3.49592
3.49439
3.49185
3.49076
3.49043
3.49034
3.49032
3.43202
3.44034
3.44568
3.45071
3.45345
3.45595
3.45735
3.4587
3.45945
3.46019
3.46071
3.46138
3.46186
3.46247
3.46291
3.46347
3.46386
3.46435
3.4647
3.46515
3.46546
3.46585
3.46613
3.46647
3.46671
3.46702
3.46724
3.46752
3.46774
3.46808
3.46839
3.46857
3.46874
3.46885
3.46898
3.46907
3.46917
3.46924
3.46932
3.46937
3.46944
3.46949
3.46954
3.46958
3.46962
3.46965
3.46968
3.46971
3.46973
3.46975
3.46977
3.46978
3.46979
3.4698
3.46981
3.46982
3.46983
3.46983
3.46983
3.46982
3.46981
3.4698
3.46976
3.46973
3.46967
3.4696
3.46947
3.46931
3.46899
3.46852
3.46746
3.466
3.46468
3.4625
3.4604
3.45712
3.45572
3.45529
3.45519
3.45516
3.29572
3.32115
3.33706
3.35224
3.36036
3.3679
3.37205
3.37611
3.37836
3.38058
3.38211
3.38414
3.38557
3.38743
3.38872
3.3904
3.39156
3.39307
3.39411
3.39545
3.39637
3.39756
3.39838
3.39942
3.40014
3.40106
3.40171
3.40256
3.40323
3.40425
3.40519
3.40571
3.40623
3.40656
3.40695
3.4072
3.40751
3.40771
3.40796
3.40812
3.40832
3.40846
3.40862
3.40873
3.40886
3.40895
3.40905
3.40912
3.4092
3.40924
3.4093
3.40933
3.40938
3.40941
3.40944
3.40946
3.40948
3.40949
3.40949
3.40947
3.40943
3.40939
3.40929
3.40919
3.409
3.40879
3.4084
3.40793
3.40697
3.40557
3.4024
3.39799
3.39406
3.3875
3.38126
3.37129
3.36711
3.36587
3.36555
3.36548
3.15841
3.20234
3.22847
3.25404
3.26729
3.27998
3.28675
3.2936
3.29726
3.301
3.30349
3.30693
3.30926
3.31241
3.31452
3.31736
3.31926
3.3218
3.3235
3.32577
3.32727
3.32928
3.33062
3.33239
3.33356
3.33512
3.33617
3.33761
3.3387
3.34042
3.342
3.34284
3.34373
3.34427
3.34492
3.34533
3.34585
3.34618
3.3466
3.34686
3.34721
3.34742
3.3477
3.34788
3.3481
3.34825
3.34842
3.34853
3.34867
3.34874
3.34883
3.34888
3.34896
3.34901
3.34907
3.34911
3.34914
3.34915
3.34914
3.34912
3.34906
3.34898
3.34882
3.34866
3.34834
3.348
3.34734
3.34658
3.34497
3.3427
3.33739
3.32996
3.32356
3.31249
3.30227
3.28522
3.27838
3.27641
3.27591
3.27579
3.01934
3.08424
3.11989
3.15633
3.17425
3.1923
3.20145
3.21121
3.21616
3.22147
3.22484
3.22976
3.23292
3.23743
3.24029
3.24436
3.24693
3.25057
3.25287
3.25611
3.25816
3.26103
3.26284
3.26537
3.26696
3.2692
3.27062
3.27267
3.27415
3.27659
3.27884
3.27998
3.28124
3.28197
3.2829
3.28346
3.2842
3.28464
3.28524
3.28561
3.2861
3.28639
3.28679
3.28703
3.28735
3.28754
3.2878
3.28795
3.28813
3.28824
3.28836
3.28844
3.28855
3.28862
3.2887
3.28875
3.2888
3.28881
3.2888
3.28877
3.28868
3.28857
3.28835
3.28813
3.28767
3.28722
3.28628
3.28526
3.283
3.27995
3.27246
3.26189
3.25324
3.23745
3.22355
3.19874
3.18946
3.18689
3.18625
3.1861
2.87767
2.96732
3.01129
3.05937
3.0812
3.10498
3.11612
3.12902
3.13505
3.14201
3.14613
3.15266
3.15652
3.16251
3.16602
3.17141
3.17456
3.17939
3.1822
3.18651
3.18901
3.19283
3.19503
3.1984
3.20034
3.2033
3.20504
3.20776
3.20955
3.21277
3.21573
3.21711
3.21878
3.21966
3.2209
3.22158
3.22256
3.2231
3.2239
3.22434
3.22499
3.22535
3.22588
3.22618
3.2266
3.22684
3.22717
3.22736
3.22761
3.22773
3.22789
3.22799
3.22814
3.22822
3.22834
3.22839
3.22846
3.22847
3.22846
3.22842
3.2283
3.22817
3.22788
3.22761
3.22701
3.22645
3.22522
3.22399
3.22106
3.21738
3.20765
3.19375
3.1832
3.16232
3.14526
3.11165
3.10027
3.0973
3.09657
3.09641
2.73242
2.85222
2.90252
2.96346
2.98807
3.01816
3.03073
3.0471
3.0539
3.06267
3.06731
3.07567
3.08004
3.0877
3.09166
3.09855
3.10211
3.10829
3.11147
3.11698
3.1198
3.12468
3.12718
3.13148
3.13368
3.13746
3.13943
3.14288
3.1449
3.14897
3.15268
3.15423
3.15634
3.15734
3.15891
3.15968
3.16094
3.16155
3.16257
3.16307
3.1639
3.16431
3.16498
3.16532
3.16586
3.16613
3.16656
3.16676
3.16708
3.16723
3.16743
3.16754
3.16773
3.16782
3.16797
3.16804
3.16812
3.16814
3.16812
3.16808
3.16793
3.16778
3.16741
3.1671
3.16634
3.16572
3.16417
3.16278
3.15915
3.15504
3.14301
3.12547
3.11358
3.08705
3.06764
3.02366
3.01075
3.00761
3.00687
3.00671
2.58238
2.73989
2.79333
2.869
2.89472
2.93204
2.94518
2.96556
2.97267
2.9835
2.98835
2.99884
3.00342
3.01303
3.01719
3.02583
3.02957
3.03731
3.04065
3.04755
3.05052
3.05663
3.05926
3.06464
3.06695
3.07169
3.07375
3.07806
3.08017
3.08517
3.08971
3.09133
3.09395
3.095
3.09696
3.09777
3.09934
3.09999
3.10126
3.10179
3.10283
3.10326
3.1041
3.10445
3.10513
3.10541
3.10595
3.10617
3.10657
3.10672
3.10697
3.10708
3.10732
3.10742
3.10761
3.10768
3.10778
3.1078
3.10779
3.10774
3.10755
3.1074
3.10693
3.10661
3.10567
3.10502
3.1031
3.10167
3.09725
3.09303
3.07859
3.05696
3.04454
3.01149
2.991
2.93444
2.92083
2.91783
2.91715
2.917
2.42603
2.63173
2.68324
2.77653
2.80091
2.84688
2.85934
2.88456
2.89129
2.90456
2.90917
2.92225
2.92661
2.93858
2.94254
2.95331
2.95686
2.9665
2.96968
2.97828
2.98111
2.98873
2.99122
2.99793
3.00013
3.00603
3.00799
3.01333
3.01532
3.0214
3.02686
3.02839
3.03162
3.03262
3.03506
3.03583
3.03778
3.0384
3.03998
3.04048
3.04178
3.04218
3.04324
3.04357
3.04442
3.04468
3.04536
3.04556
3.04606
3.04621
3.04651
3.04662
3.04692
3.04702
3.04725
3.04732
3.04745
3.04747
3.04745
3.0474
3.04717
3.04703
3.04645
3.04615
3.04498
3.04437
3.04202
3.04067
3.03535
3.03143
3.01446
2.98809
2.97633
2.93543
2.91581
2.84349
2.83049
2.82796
2.8274
2.82728
2.26146
2.52974
2.57149
2.68683
2.70623
2.76307
2.77299
2.80429
2.80966
2.82597
2.82964
2.846
2.84949
2.86445
2.86762
2.88107
2.88391
2.89596
2.8985
2.90924
2.9115
2.92102
2.92302
2.9314
2.93316
2.94052
2.94209
2.94873
2.95031
2.95765
2.96417
2.96537
2.96938
2.97018
2.97322
2.97384
2.97627
2.97677
2.97875
2.97915
2.98076
2.98109
2.9824
2.98267
2.98373
2.98394
2.98478
2.98495
2.98557
2.98569
2.98607
2.98615
2.98653
2.98661
2.9869
2.98695
2.98712
2.98713
2.98711
2.98708
2.98679
2.98667
2.98596
2.98572
2.98428
2.98379
2.9809
2.97984
2.9734
2.97034
2.95071
2.91863
2.90928
2.85852
2.84272
2.75017
2.73973
2.738
2.73764
2.73756
2.08616
2.43681
2.45679
2.60096
2.61005
2.68114
2.68579
2.72506
2.72758
2.74788
2.74961
2.77027
2.77191
2.79079
2.79229
2.80925
2.8106
2.82579
2.82699
2.84055
2.84161
2.85362
2.85456
2.86513
2.86596
2.87524
2.87598
2.88434
2.88507
2.89393
2.90169
2.90225
2.90727
2.90765
2.91149
2.91177
2.91485
2.91508
2.91757
2.91776
2.9198
2.91995
2.92161
2.92173
2.92307
2.92317
2.92423
2.92431
2.9251
2.92516
2.92563
2.92567
2.92615
2.92619
2.92656
2.92659
2.9268
2.9268
2.92678
2.92676
2.9264
2.92634
2.92545
2.92534
2.92353
2.9233
2.91971
2.91921
2.91131
2.90992
2.88746
2.84826
2.84389
2.78021
2.7727
2.65357
2.64862
2.64799
2.64787
2.64784
)
;

boundaryField
{
    F1_1
    {
        type            fixedValue;
        value           nonuniform List<scalar> 
80
(
1.99172
2.39747
2.39747
2.56182
2.56182
2.64385
2.64385
2.69134
2.69134
2.72143
2.72143
2.73874
2.73874
2.75771
2.75771
2.77581
2.77581
2.79245
2.79245
2.8075
2.8075
2.82093
2.82093
2.8328
2.8328
2.84325
2.84325
2.85267
2.85267
2.86237
2.87081
2.87081
2.87648
2.87648
2.88082
2.88082
2.88429
2.88429
2.88712
2.88712
2.88942
2.88942
2.8913
2.8913
2.89281
2.89281
2.89401
2.89401
2.89491
2.89491
2.89545
2.89545
2.89599
2.89599
2.89642
2.89642
2.89665
2.89665
2.89662
2.89662
2.89621
2.89621
2.89519
2.89519
2.89313
2.89313
2.88906
2.88906
2.88013
2.88013
2.85617
2.81239
2.81239
2.73993
2.73993
2.60298
2.60298
2.60298
2.60298
2.60298
)
;
    }
    F1_2
    {
        type            fixedValue;
        value           nonuniform List<scalar> 
80
(
1.97593
2.40156
2.40156
2.62589
2.62589
2.77565
2.77565
2.88709
2.88709
2.9706
2.9706
3.02279
3.02279
3.08036
3.08036
3.13452
3.13452
3.18311
3.18311
3.22587
3.22587
3.26315
3.26315
3.29556
3.29556
3.32387
3.32387
3.34937
3.34937
3.37599
3.39965
3.39965
3.41613
3.41613
3.4292
3.4292
3.44006
3.44006
3.4492
3.4492
3.45694
3.45694
3.46347
3.46347
3.46897
3.46897
3.47351
3.47351
3.47708
3.47708
3.47937
3.47937
3.48191
3.48191
3.48431
3.48431
3.48646
3.48646
3.48835
3.48835
3.48998
3.48998
3.49135
3.49135
3.49241
3.49241
3.49285
3.49285
3.4914
3.4914
3.48251
3.46048
3.46048
3.41346
3.41346
3.30628
3.30628
3.30628
3.30628
3.30628
)
;
    }
    F1_3
    {
        type            fixedValue;
        value           nonuniform List<scalar> 
80
(
1.97593
2.40156
2.40156
2.62588
2.62588
2.77564
2.77564
2.88709
2.88709
2.9706
2.9706
3.02279
3.02279
3.08036
3.08036
3.13452
3.13452
3.18311
3.18311
3.22587
3.22587
3.26315
3.26315
3.29556
3.29556
3.32387
3.32387
3.34936
3.34936
3.37599
3.39965
3.39965
3.41612
3.41612
3.4292
3.4292
3.44006
3.44006
3.4492
3.4492
3.45693
3.45693
3.46347
3.46347
3.46897
3.46897
3.47351
3.47351
3.47708
3.47708
3.47937
3.47937
3.48191
3.48191
3.48431
3.48431
3.48646
3.48646
3.48835
3.48835
3.48998
3.48998
3.49135
3.49135
3.49241
3.49241
3.49285
3.49285
3.4914
3.4914
3.48251
3.46048
3.46048
3.41347
3.41347
3.30629
3.30629
3.30629
3.30629
3.30629
)
;
    }
    F1_4
    {
        type            fixedValue;
        value           nonuniform List<scalar> 
80
(
1.99149
2.39695
2.39695
2.56072
2.56072
2.64149
2.64149
2.68618
2.68618
2.70921
2.70921
2.73278
2.73278
2.75431
2.75431
2.77366
2.77366
2.79099
2.79099
2.80645
2.80645
2.82014
2.82014
2.83219
2.83219
2.84278
2.84278
2.85229
2.85229
2.86209
2.8706
2.8706
2.87631
2.87631
2.88069
2.88069
2.88419
2.88419
2.88703
2.88703
2.88935
2.88935
2.89124
2.89124
2.89277
2.89277
2.89398
2.89398
2.89488
2.89488
2.89542
2.89542
2.89597
2.89597
2.8964
2.8964
2.89664
2.89664
2.89661
2.89661
2.8962
2.8962
2.89518
2.89518
2.89313
2.89313
2.88905
2.88905
2.88013
2.88013
2.85616
2.81238
2.81238
2.73993
2.73993
2.60298
2.60298
2.60298
2.60298
2.60298
)
;
    }
    F2_1
    {
        type            fixedValue;
        value           uniform 3.5;
    }
    F2_2
    {
        type            fixedValue;
        value           uniform 3.5;
    }
    F2_3
    {
        type            fixedValue;
        value           uniform 3.5;
    }
    F2_4
    {
        type            fixedValue;
        value           uniform 3.5;
    }
    defaultFaces
    {
        type            empty;
    }
}


// ************************************************************************* //
