/*--------------------------------*- C++ -*----------------------------------*\
| =========                 |                                                 |
| \\      /  F ield         | OpenFOAM: The Open Source CFD Toolbox           |
|  \\    /   O peration     | Version:  5.x                                   |
|   \\  /    A nd           | Web:      www.OpenFOAM.org                      |
|    \\/     M anipulation  |                                                 |
\*---------------------------------------------------------------------------*/
FoamFile
{
    version     2.0;
    format      ascii;
    class       volScalarField;
    location    "14.8";
    object      gradTy;
}
// * * * * * * * * * * * * * * * * * * * * * * * * * * * * * * * * * * * * * //

dimensions      [0 -1 0 1 0 0 0];

internalField   nonuniform List<scalar> 
2048
(
-26.4236
-26.396
-26.3417
-26.262
-26.1592
-26.0358
-25.8945
-25.7383
-25.5697
-25.3915
-25.206
-25.0154
-24.8215
-24.6262
-24.4308
-24.2368
-24.0452
-23.8569
-23.6727
-23.4931
-23.3187
-23.1498
-22.9866
-22.8294
-22.6783
-22.5337
-22.3959
-22.265
-22.1417
-22.0262
-21.9192
-21.8213
-21.7333
-21.656
-21.5902
-21.5372
-21.4979
-21.4735
-21.4653
-21.4744
-21.5022
-21.55
-21.6189
-21.71
-21.8244
-21.9628
-22.1257
-22.3128
-22.5236
-22.7566
-23.0096
-23.2793
-23.5613
-23.8504
-24.1406
-24.4252
-24.6976
-24.9511
-25.1796
-25.3777
-25.5412
-25.6666
-25.7515
-25.7943
-26.446
-26.4177
-26.3621
-26.2807
-26.1759
-26.0502
-25.9067
-25.7482
-25.5775
-25.3974
-25.2102
-25.018
-24.8227
-24.6262
-24.4298
-24.2348
-24.0424
-23.8536
-23.6689
-23.489
-23.3143
-23.1452
-22.9818
-22.8244
-22.6731
-22.5283
-22.3902
-22.259
-22.1353
-22.0194
-21.9119
-21.8134
-21.7247
-21.6466
-21.58
-21.5261
-21.4858
-21.4605
-21.4512
-21.4593
-21.4861
-21.5329
-21.6008
-21.6912
-21.805
-21.9431
-22.106
-22.2937
-22.5056
-22.7405
-22.9962
-23.2693
-23.5555
-23.8495
-24.145
-24.4352
-24.7129
-24.9713
-25.2041
-25.4058
-25.572
-25.6994
-25.7855
-25.829
-26.4887
-26.4592
-26.4011
-26.3164
-26.2076
-26.0776
-25.9297
-25.7669
-25.5922
-25.4084
-25.2179
-25.0228
-24.8249
-24.6261
-24.4277
-24.231
-24.0372
-23.8472
-23.6616
-23.4811
-23.3059
-23.1364
-22.9726
-22.8149
-22.6633
-22.518
-22.3794
-22.2477
-22.1232
-22.0065
-21.898
-21.7983
-21.7083
-21.6288
-21.5607
-21.505
-21.463
-21.4358
-21.4246
-21.4308
-21.4556
-21.5005
-21.5666
-21.6555
-21.7681
-21.9055
-22.0684
-22.257
-22.471
-22.7094
-22.9701
-23.2498
-23.5442
-23.8476
-24.1534
-24.4541
-24.7421
-25.01
-25.251
-25.4595
-25.6309
-25.7619
-25.8504
-25.895
-26.5499
-26.5185
-26.4569
-26.3672
-26.2525
-26.1162
-25.9619
-25.7929
-25.6126
-25.4236
-25.2284
-25.0292
-24.8277
-24.6257
-24.4245
-24.2254
-24.0296
-23.838
-23.6513
-23.4698
-23.294
-23.1239
-22.9598
-22.8016
-22.6495
-22.5037
-22.3643
-22.2318
-22.1063
-21.9884
-21.8785
-21.7773
-21.6855
-21.6039
-21.5336
-21.4755
-21.4309
-21.401
-21.3871
-21.3905
-21.4126
-21.4547
-21.5183
-21.6048
-21.7156
-21.8519
-22.0146
-22.2043
-22.4212
-22.6643
-22.9319
-23.221
-23.5271
-23.8441
-24.1648
-24.481
-24.784
-25.0656
-25.3184
-25.5364
-25.715
-25.8512
-25.9428
-25.9889
-26.6283
-26.5944
-26.5279
-26.4317
-26.3092
-26.1646
-26.0019
-25.8251
-25.6375
-25.4421
-25.2411
-25.0368
-24.8308
-24.6247
-24.42
-24.218
-24.0197
-23.8262
-23.638
-23.4555
-23.2789
-23.1083
-22.9437
-22.785
-22.6323
-22.4858
-22.3456
-22.212
-22.0854
-21.966
-21.8545
-21.7513
-21.6572
-21.573
-21.4998
-21.4388
-21.391
-21.3577
-21.3404
-21.3402
-21.3587
-21.3973
-21.4576
-21.541
-21.6493
-21.7839
-21.9461
-22.1369
-22.3568
-22.6056
-22.8819
-23.1828
-23.5038
-23.8385
-24.1787
-24.515
-24.8376
-25.137
-25.4049
-25.6349
-25.8224
-25.9647
-26.06
-26.1079
-26.7229
-26.6857
-26.6131
-26.5084
-26.3762
-26.2213
-26.0484
-25.8621
-25.6659
-25.4629
-25.2553
-25.045
-24.8338
-24.623
-24.4142
-24.2087
-24.0076
-23.8118
-23.6219
-23.4383
-23.261
-23.0899
-22.9248
-22.7656
-22.6123
-22.465
-22.3239
-22.1892
-22.0611
-21.9402
-21.8266
-21.7211
-21.6243
-21.5371
-21.4606
-21.3959
-21.3443
-21.3071
-21.2857
-21.2813
-21.2955
-21.3299
-21.386
-21.4657
-21.5707
-21.7029
-21.864
-22.0555
-22.2787
-22.5337
-22.8199
-23.1347
-23.4737
-23.8299
-24.1942
-24.5555
-24.9023
-25.2234
-25.5095
-25.7536
-25.9513
-26.1003
-26.1996
-26.2493
-26.8331
-26.7917
-26.7114
-26.5964
-26.4523
-26.2849
-26.1001
-25.9027
-25.6968
-25.4852
-25.2702
-25.0534
-24.8364
-24.6204
-24.407
-24.1974
-23.9931
-23.7949
-23.6033
-23.4186
-23.2407
-23.0691
-22.9037
-22.744
-22.59
-22.4419
-22.2997
-22.1637
-22.0342
-21.9114
-21.7957
-21.6876
-21.5877
-21.4971
-21.4168
-21.348
-21.2921
-21.2504
-21.2243
-21.2151
-21.2245
-21.2539
-21.3052
-21.3802
-21.4812
-21.6102
-21.7694
-21.9611
-22.187
-22.4485
-22.7454
-23.076
-23.4359
-23.8175
-24.2105
-24.6019
-24.9777
-25.3245
-25.6317
-25.8916
-26.1003
-26.2562
-26.3594
-26.4108
-26.9583
-26.912
-26.8223
-26.6947
-26.5363
-26.3543
-26.1556
-25.9457
-25.729
-25.5082
-25.2853
-25.0616
-24.8383
-24.6167
-24.3981
-24.1842
-23.9763
-23.7754
-23.5822
-23.3965
-23.2181
-23.0463
-22.8806
-22.7205
-22.5659
-22.4168
-22.2735
-22.1363
-22.0052
-21.8806
-21.7625
-21.6515
-21.5483
-21.4538
-21.3692
-21.2959
-21.2353
-21.1886
-21.1574
-21.1429
-21.1468
-21.1706
-21.2163
-21.286
-21.382
-21.5068
-21.6633
-21.8542
-22.0823
-22.3499
-22.658
-23.0058
-23.3891
-23.8002
-24.227
-24.6538
-25.0637
-25.4404
-25.7713
-26.0484
-26.2682
-26.4307
-26.5373
-26.5901
-27.0986
-27.0461
-26.945
-26.8023
-26.627
-26.428
-26.2135
-25.9899
-25.7616
-25.5312
-25.3002
-25.0693
-24.8395
-24.6117
-24.3876
-24.1689
-23.9572
-23.7535
-23.5586
-23.3722
-23.1936
-23.0219
-22.8561
-22.6957
-22.5404
-22.3903
-22.2459
-22.1073
-21.9747
-21.8481
-21.7276
-21.6136
-21.5068
-21.4081
-21.3188
-21.2406
-21.1747
-21.1227
-21.0859
-21.0658
-21.0637
-21.0813
-21.1208
-21.1842
-21.2744
-21.394
-21.5466
-21.7355
-21.9647
-22.2376
-22.5569
-22.9229
-23.3323
-23.7768
-24.2426
-24.711
-25.1606
-25.5715
-25.9286
-26.2236
-26.4542
-26.6223
-26.7313
-26.7849
-27.2539
-27.194
-27.0791
-26.9185
-26.7233
-26.5048
-26.2727
-26.0341
-25.7937
-25.5535
-25.3143
-25.0763
-24.8397
-24.6055
-24.3754
-24.1515
-23.9355
-23.7291
-23.5326
-23.3457
-23.1674
-22.996
-22.8305
-22.6698
-22.5138
-22.3627
-22.217
-22.0771
-21.943
-21.8146
-21.6917
-21.5745
-21.4637
-21.3604
-21.2662
-21.1826
-21.1112
-21.0535
-21.0109
-20.9847
-20.9762
-20.9872
-21.0197
-21.0762
-21.1595
-21.2729
-21.4202
-21.6058
-21.8346
-22.1116
-22.4414
-22.8261
-23.2637
-23.7458
-24.2566
-24.7732
-25.2689
-25.7185
-26.104
-26.4171
-26.6573
-26.8293
-26.9393
-26.9928
-27.4246
-27.3556
-27.2243
-27.0423
-26.824
-26.5833
-26.3316
-26.0771
-25.8242
-25.5744
-25.3274
-25.0823
-24.839
-24.5981
-24.3615
-24.1318
-23.9114
-23.702
-23.5042
-23.3173
-23.1397
-22.9692
-22.8041
-22.6434
-22.4866
-22.3344
-22.1873
-22.0461
-21.9106
-21.7804
-21.6551
-21.5347
-21.4198
-21.3116
-21.2119
-21.1226
-21.0454
-20.9818
-20.9331
-20.9005
-20.8853
-20.8891
-20.9141
-20.9629
-21.0385
-21.1445
-21.2852
-21.4658
-21.6923
-21.9716
-22.3107
-22.7141
-23.1818
-23.7057
-24.2679
-24.8405
-25.3894
-25.8826
-26.2986
-26.6291
-26.8768
-27.0502
-27.1591
-27.2114
-27.6111
-27.5312
-27.3802
-27.173
-26.9279
-26.6621
-26.389
-26.1177
-25.8524
-25.5935
-25.3393
-25.0876
-24.8375
-24.5895
-24.3459
-24.1099
-23.8846
-23.6722
-23.4733
-23.2869
-23.1107
-22.9417
-22.7775
-22.6167
-22.4591
-22.3054
-22.157
-22.0145
-21.8778
-21.7461
-21.6185
-21.4948
-21.3754
-21.262
-21.1564
-21.0611
-20.9778
-20.9082
-20.8533
-20.8142
-20.7919
-20.7882
-20.8051
-20.8454
-20.9125
-21.01
-21.1427
-21.3163
-21.5384
-21.8177
-22.1639
-22.5853
-23.0844
-23.6544
-24.2752
-24.9128
-25.5234
-26.0657
-26.5134
-26.8597
-27.1117
-27.2832
-27.3885
-27.4382
-27.814
-27.7211
-27.5466
-27.3098
-27.0337
-26.7397
-26.4434
-26.1547
-25.8774
-25.6104
-25.3499
-25.0921
-24.8353
-24.58
-24.3286
-24.0855
-23.855
-23.6395
-23.4399
-23.2548
-23.0808
-22.914
-22.751
-22.5901
-22.4315
-22.2762
-22.126
-21.9824
-21.8449
-21.7121
-21.5823
-21.4552
-21.3312
-21.2121
-21.1003
-20.9985
-20.909
-20.8332
-20.7721
-20.7264
-20.6969
-20.6852
-20.6936
-20.7249
-20.7826
-20.8705
-20.9937
-21.1585
-21.3735
-21.6497
-22.0005
-22.4382
-22.9696
-23.5897
-24.277
-24.9903
-25.6726
-26.2698
-26.7502
-27.1093
-27.3612
-27.5266
-27.625
-27.6706
-28.0343
-27.9258
-27.7234
-27.4517
-27.1399
-26.8145
-26.4934
-26.1869
-25.8984
-25.6247
-25.3592
-25.0961
-24.8329
-24.5698
-24.3098
-24.0587
-23.8224
-23.6039
-23.4039
-23.2209
-23.0502
-22.8864
-22.725
-22.5642
-22.4042
-22.2467
-22.0947
-21.95
-21.8121
-21.6786
-21.547
-21.4164
-21.2876
-21.1622
-21.0437
-20.9353
-20.8394
-20.7573
-20.69
-20.6378
-20.6011
-20.5811
-20.5804
-20.6021
-20.6497
-20.7272
-20.8394
-20.9933
-21.1985
-21.4681
-21.8196
-22.2711
-22.8348
-23.509
-24.2715
-25.073
-25.8394
-26.4979
-27.0107
-27.3783
-27.6243
-27.7783
-27.8662
-27.9056
-28.273
-28.1457
-27.9104
-27.5977
-27.2451
-26.885
-26.5374
-26.213
-25.9147
-25.6362
-25.3675
-25.1
-24.8304
-24.5592
-24.2895
-24.0293
-23.7866
-23.5649
-23.3652
-23.1853
-23.0192
-22.8593
-22.6999
-22.5391
-22.3774
-22.2172
-22.0627
-21.9173
-21.7797
-21.6461
-21.5129
-21.3789
-21.2449
-21.1128
-20.987
-20.8716
-20.7691
-20.6809
-20.6077
-20.5491
-20.505
-20.4766
-20.4664
-20.478
-20.515
-20.5811
-20.6811
-20.8221
-21.0144
-21.2733
-21.6209
-22.0823
-22.6773
-23.4091
-24.2562
-25.1613
-26.0265
-26.7536
-27.2973
-27.667
-27.8996
-28.0361
-28.1093
-28.1407
-28.5312
-28.3815
-28.1074
-27.7468
-27.3475
-26.9495
-26.574
-26.2319
-25.9256
-25.6449
-25.3752
-25.1042
-24.8285
-24.5486
-24.2678
-23.997
-23.7474
-23.5225
-23.3234
-23.148
-22.988
-22.8333
-22.6763
-22.5152
-22.3515
-22.1875
-22.03
-21.8841
-21.7477
-21.6149
-21.4804
-21.343
-21.2036
-21.0641
-20.9302
-20.8076
-20.6986
-20.6044
-20.5254
-20.4608
-20.4095
-20.3724
-20.3522
-20.3533
-20.3793
-20.4334
-20.5199
-20.6463
-20.8227
-21.066
-21.4039
-21.8703
-22.4946
-23.2864
-24.2279
-25.2551
-26.238
-27.0413
-27.6124
-27.9753
-28.1856
-28.2977
-28.3518
-28.373
-28.8104
-28.6339
-28.3144
-27.8979
-27.4452
-27.0064
-26.6018
-26.2423
-25.9305
-25.6508
-25.3828
-25.1093
-24.8276
-24.5388
-24.2449
-23.9616
-23.7046
-23.4764
-23.2783
-23.1089
-22.957
-22.809
-22.6545
-22.493
-22.3267
-22.1578
-21.9963
-21.8504
-21.7163
-21.5854
-21.45
-21.3091
-21.1641
-21.0163
-20.8735
-20.7435
-20.628
-20.5278
-20.4437
-20.3734
-20.3151
-20.269
-20.2385
-20.2286
-20.2434
-20.2851
-20.3572
-20.4673
-20.6249
-20.8473
-21.1688
-21.6335
-22.2837
-23.1368
-24.1825
-25.3544
-26.4789
-27.3664
-27.9586
-28.3031
-28.4804
-28.5603
-28.5908
-28.5997
-29.1122
-28.9034
-28.5315
-28.0494
-27.5359
-27.0542
-26.6195
-26.2428
-25.9288
-25.6542
-25.3911
-25.1157
-24.828
-24.5303
-24.2209
-23.9225
-23.6579
-23.4264
-23.2296
-23.0682
-22.9265
-22.7869
-22.6351
-22.4728
-22.3035
-22.1279
-21.961
-21.8157
-21.6856
-21.5582
-21.4219
-21.2775
-21.1269
-20.9696
-20.8168
-20.6793
-20.5573
-20.4515
-20.3628
-20.2875
-20.2224
-20.167
-20.1256
-20.1045
-20.1081
-20.1373
-20.194
-20.2867
-20.423
-20.6185
-20.9156
-21.3705
-22.0421
-22.9559
-24.1143
-25.4587
-26.7558
-27.7355
-28.3384
-28.6497
-28.7816
-28.8214
-28.8237
-28.8184
-29.4384
-29.1906
-28.7591
-28.2001
-27.6169
-27.0913
-26.626
-26.2321
-25.9201
-25.6553
-25.4012
-25.1241
-24.8303
-24.5243
-24.196
-23.8791
-23.6074
-23.3724
-23.1766
-23.0256
-22.897
-22.768
-22.6184
-22.4546
-22.2824
-22.0977
-21.9233
-21.7799
-21.6558
-21.5336
-21.3965
-21.2484
-21.0925
-20.9242
-20.7597
-20.6152
-20.4869
-20.3754
-20.283
-20.2034
-20.132
-20.0669
-20.014
-19.9814
-19.9741
-19.991
-20.0314
-20.1061
-20.2191
-20.3814
-20.645
-21.08
-21.7673
-22.7389
-24.0157
-25.567
-27.0778
-28.1562
-28.7542
-29.0135
-29.0864
-29.0778
-29.0478
-29.0266
-29.7912
-29.4956
-28.9977
-28.3482
-27.685
-27.117
-26.6205
-26.2083
-25.904
-25.6547
-25.4146
-25.1348
-24.8344
-24.5221
-24.1703
-23.8301
-23.5529
-23.3141
-23.1185
-22.9812
-22.8689
-22.7533
-22.6047
-22.4387
-22.2643
-22.0671
-21.8821
-21.7425
-21.6269
-21.5126
-21.3741
-21.2219
-21.0616
-20.8801
-20.7019
-20.5511
-20.4168
-20.2995
-20.2046
-20.1217
-20.0446
-19.9691
-19.904
-19.8594
-19.8419
-19.8472
-19.8703
-19.927
-20.0159
-20.1378
-20.3579
-20.7605
-21.4577
-22.4811
-23.8763
-25.6774
-27.4567
-28.6376
-29.2078
-29.3922
-29.3913
-29.3267
-29.2607
-29.2222
-30.1732
-29.8178
-29.2487
-28.4919
-27.7358
-27.1307
-26.6024
-26.1694
-25.8803
-25.6526
-25.4335
-25.1482
-24.8402
-24.526
-24.144
-23.7738
-23.4951
-23.252
-23.0542
-22.935
-22.8424
-22.7442
-22.5942
-22.4247
-22.2504
-22.036
-21.836
-21.703
-21.5991
-21.4961
-21.3546
-21.1977
-21.0353
-20.8374
-20.6424
-20.4874
-20.3471
-20.2235
-20.1278
-20.0427
-19.9606
-19.8741
-19.7956
-19.7387
-19.7121
-19.7069
-19.7111
-19.7508
-19.8166
-19.89
-20.0557
-20.4105
-21.1124
-22.1786
-23.6821
-25.7863
-27.9089
-29.1899
-29.6998
-29.7825
-29.6927
-29.5649
-29.4602
-29.4036
-30.5874
-30.1555
-29.5146
-28.6294
-27.7637
-27.1331
-26.572
-26.1124
-25.8491
-25.6495
-25.4605
-25.1641
-24.8467
-24.539
-24.1171
-23.7075
-23.4348
-23.1862
-22.982
-22.8871
-22.8179
-22.7426
-22.5869
-22.4119
-22.2426
-22.0043
-21.7827
-21.6613
-21.5723
-21.4857
-21.3381
-21.1754
-21.0149
-20.7962
-20.5801
-20.4244
-20.2782
-20.1469
-20.053
-19.9666
-19.881
-19.7821
-19.689
-19.6191
-19.585
-19.5715
-19.554
-19.5788
-19.6248
-19.6403
-19.7406
-20.028
-20.7319
-21.8289
-23.4139
-25.8881
-28.457
-29.8242
-30.2292
-30.1796
-29.9862
-29.7896
-29.6444
-29.5692
-31.0379
-30.505
-29.7995
-28.7584
-27.7609
-27.1267
-26.5301
-26.0332
-25.8113
-25.6451
-25.4998
-25.182
-24.8517
-24.5656
-24.0899
-23.6268
-23.374
-23.1177
-22.8991
-22.838
-22.7952
-22.7511
-22.5824
-22.3991
-22.2438
-21.9718
-21.7191
-21.6174
-21.5464
-21.4833
-21.3243
-21.1537
-21.0027
-20.7565
-20.5129
-20.3629
-20.2104
-20.0691
-19.9804
-19.8939
-19.8064
-19.6934
-19.5841
-19.5002
-19.4608
-19.4424
-19.3985
-19.4115
-19.4451
-19.3907
-19.4156
-19.6097
-20.3183
-21.4329
-23.0459
-25.9738
-29.132
-30.5519
-30.793
-30.5776
-30.2674
-29.9981
-29.8118
-29.7181
-31.5301
-30.8592
-30.1106
-28.8768
-27.7166
-27.116
-26.4785
-25.9259
-25.7686
-25.6386
-25.5571
-25.2005
-24.8514
-24.6128
-24.0625
-23.5256
-23.3162
-23.0478
-22.8018
-22.789
-22.7737
-22.7735
-22.5797
-22.3836
-22.2582
-21.9385
-21.641
-21.5718
-21.5208
-21.4919
-21.3124
-21.1308
-21.0019
-20.7183
-20.4379
-20.3043
-20.1443
-19.9885
-19.9107
-19.8244
-19.7381
-19.6082
-19.4809
-19.3815
-19.3396
-19.3219
-19.2432
-19.2492
-19.2833
-19.1429
-19.0852
-19.1505
-19.8758
-20.9964
-22.5431
-26.0295
-29.9769
-31.3837
-31.385
-30.9693
-30.5316
-30.188
-29.9612
-29.8497
-32.0715
-31.2065
-30.4589
-28.9822
-27.6156
-27.1094
-26.42
-25.7818
-25.7248
-25.6273
-25.6408
-25.2176
-24.8397
-24.6906
-24.0348
-23.3945
-23.267
-22.9786
-22.6843
-22.7423
-22.7517
-22.8152
-22.5775
-22.3615
-22.2924
-21.9044
-21.5423
-21.5263
-21.4941
-21.516
-21.3014
-21.1035
-21.0173
-20.6813
-20.3508
-20.2511
-20.0806
-19.9034
-19.8449
-19.7579
-19.6773
-19.5264
-19.3792
-19.2618
-19.2211
-19.2129
-19.0858
-19.0911
-19.1467
-18.8972
-18.756
-18.6419
-19.4108
-20.5337
-21.8588
-26.0346
-31.0516
-32.3274
-31.9954
-31.3465
-30.7745
-30.3572
-30.0918
-29.9638
-32.6723
-31.5279
-30.862
-29.0725
-27.4366
-27.1205
-26.3591
-25.5883
-25.6866
-25.606
-25.7626
-25.2296
-24.8067
-24.8135
-24.0069
-23.2199
-23.2353
-22.9129
-22.5382
-22.7023
-22.7255
-22.8841
-22.5733
-22.3263
-22.3556
-21.8693
-21.4149
-21.4843
-21.4634
-21.5618
-21.2892
-21.0667
-21.056
-20.6455
-20.2454
-20.2069
-20.0203
-19.8106
-19.7846
-19.6937
-19.6259
-19.4478
-19.2791
-19.1401
-19.1048
-19.1201
-18.9227
-18.935
-19.0454
-18.6519
-18.4384
-18.0707
-18.9317
-20.0709
-20.9308
-25.9592
-32.4382
-33.385
-32.61
-31.7
-30.992
-30.5044
-30.2036
-30.0605
-33.3475
-31.7937
-31.3459
-29.1454
-27.1496
-27.1698
-26.3016
-25.327
-25.6656
-25.565
-25.9396
-25.2315
-24.7376
-25.0023
-23.9784
-22.9828
-23.2345
-22.8546
-22.3514
-22.6763
-22.6887
-22.9911
-22.5638
-22.2685
-22.4612
-21.8329
-21.2472
-21.4521
-21.4238
-21.6382
-21.2734
-21.013
-21.1281
-20.6104
-20.1129
-20.1776
-19.9647
-19.7057
-19.7327
-19.6304
-19.5864
-19.3718
-19.1808
-19.0145
-18.9891
-19.05
-18.7483
-18.7773
-18.9926
-18.4015
-18.1479
-17.4166
-18.4488
-19.6518
-19.6776
-25.7601
-34.2495
-34.5486
-33.2102
-32.0204
-31.1805
-30.6288
-30.2965
-30.1404
-34.1181
-31.9598
-31.9491
-29.1986
-26.7136
-27.288
-26.255
-24.9718
-25.6805
-25.4879
-26.1955
-25.2162
-24.6109
-25.2861
-23.949
-22.6561
-23.2843
-22.8089
-22.1064
-22.6764
-22.6306
-23.1519
-22.5443
-22.1742
-22.628
-21.7948
-21.0237
-21.4402
-21.3669
-21.7579
-21.2501
-20.9318
-21.2477
-20.5753
-19.9413
-20.1718
-19.9152
-19.5825
-19.6933
-19.5651
-19.5624
-19.2973
-19.0848
-18.8832
-18.8716
-19.0119
-18.555
-18.6116
-19.0067
-18.1353
-17.908
-16.6495
-17.9731
-19.3442
-17.9931
-25.3771
-36.6387
-35.7943
-33.7728
-32.2988
-31.3376
-30.73
-30.3712
-30.2041
-35.0135
-31.9619
-32.7267
-29.23
-26.0723
-27.5184
-26.2287
-24.4861
-25.7606
-25.3485
-26.564
-25.1743
-24.3961
-25.705
-23.9176
-22.2029
-23.4127
-22.7819
-21.779
-22.7218
-22.5339
-23.3887
-22.5084
-22.0237
-22.8818
-21.7539
-20.723
-21.4648
-21.279
-21.9386
-21.2142
-20.8079
-21.4346
-20.5389
-19.7138
-20.2019
-19.8735
-19.4322
-19.673
-19.4936
-19.5586
-19.2222
-18.9922
-18.7436
-18.7481
-19.0193
-18.3325
-18.4284
-19.1131
-17.8337
-17.7538
-15.7266
-17.5144
-19.2484
-15.741
-24.7268
-39.8117
-37.0738
-34.2709
-32.5273
-31.4618
-30.8084
-30.4284
-30.2528
-36.0746
-31.7087
-33.7559
-29.2372
-25.1503
-27.9219
-26.234
-23.8195
-25.9498
-25.1065
-27.0911
-25.0933
-24.0508
-26.3132
-23.8829
-21.5736
-23.659
-22.7812
-21.3359
-22.841
-22.3721
-23.7317
-22.4477
-21.79
-23.2577
-21.7084
-20.317
-21.5509
-21.139
-22.2047
-21.159
-20.6204
-21.7156
-20.4996
-19.4084
-20.2855
-19.8413
-19.2428
-19.6817
-19.4088
-19.5818
-19.1432
-18.9049
-18.5933
-18.6123
-19.0905
-18.0673
-18.2138
-19.3465
-17.4653
-17.7365
-14.5882
-17.0794
-19.5069
-12.7485
-23.6962
-44.0418
-38.304
-34.6765
-32.7002
-31.5528
-30.865
-30.4693
-30.2874
-37.3573
-31.0741
-35.1426
-29.2176
-23.848
-28.581
-26.2836
-22.9034
-26.3127
-24.7022
-27.8394
-24.9574
-23.5183
-27.1827
-23.8423
-20.7024
-24.0763
-22.8158
-20.7316
-23.0762
-22.1061
-24.2222
-22.3516
-21.4363
-23.8022
-21.6556
-19.7682
-21.7348
-20.9156
-22.5894
-21.0758
-20.3415
-22.1262
-20.4546
-18.9958
-20.4465
-19.8202
-18.9981
-19.7336
-19.3004
-19.6416
-19.0556
-18.826
-18.4293
-18.4544
-19.2507
-17.742
-17.9483
-19.7545
-16.9817
-17.9292
-13.1537
-16.6675
-20.316
-8.79965
-22.1346
-49.6876
-39.3538
-34.9631
-32.8145
-31.6114
-30.901
-30.4953
-30.3093
-38.9367
-29.8874
-37.029
-29.1675
-22.0356
-29.6051
-26.3917
-21.6463
-26.9405
-24.0498
-28.8923
-24.7464
-22.7228
-28.4071
-23.7923
-19.5035
-24.7346
-22.8946
-19.9045
-23.4858
-21.6781
-24.9139
-22.2057
-20.9142
-24.5764
-21.5904
-19.0259
-22.065
-20.5611
-23.1344
-20.9515
-19.9331
-22.7124
-20.3994
-18.4376
-20.7166
-19.8107
-18.6768
-19.8486
-19.1536
-19.7508
-18.9518
-18.7596
-18.2484
-18.26
-19.5331
-17.3347
-17.6049
-20.4013
-16.3108
-18.4336
-11.3166
-16.2663
-21.9387
-3.62747
-19.8439
-57.213
-40.0274
-35.1109
-32.8703
-31.6396
-30.9182
-30.5076
-30.3197
)
;

boundaryField
{
    left
    {
        type            calculated;
        value           nonuniform List<scalar> 
32
(
-26.4236
-26.446
-26.4887
-26.5499
-26.6283
-26.7229
-26.8331
-26.9583
-27.0986
-27.2539
-27.4246
-27.6111
-27.814
-28.0343
-28.273
-28.5312
-28.8104
-29.1122
-29.4384
-29.7912
-30.1732
-30.5874
-31.0379
-31.5301
-32.0715
-32.6723
-33.3475
-34.1181
-35.0135
-36.0746
-37.3573
-38.9367
)
;
    }
    right
    {
        type            calculated;
        value           nonuniform List<scalar> 
32
(
-25.7943
-25.829
-25.895
-25.9889
-26.1079
-26.2493
-26.4108
-26.5901
-26.7849
-26.9928
-27.2114
-27.4382
-27.6706
-27.9056
-28.1407
-28.373
-28.5997
-28.8184
-29.0266
-29.2222
-29.4036
-29.5692
-29.7181
-29.8497
-29.9638
-30.0605
-30.1404
-30.2041
-30.2528
-30.2874
-30.3093
-30.3197
)
;
    }
    interface
    {
        type            calculated;
        value           nonuniform List<scalar> 
64
(
-39.8112
-29.1316
-38.1174
-29.1343
-20.9837
-30.2239
-26.4622
-20.9194
-27.3339
-23.6488
-29.5067
-24.6193
-22.2487
-29.1212
-23.7643
-18.81
-25.1339
-22.9461
-19.4264
-23.7426
-21.4151
-25.3176
-22.1182
-20.6042
-25.0295
-21.5539
-18.599
-22.2735
-20.3437
-23.4527
-20.877
-19.691
-23.0558
-20.3685
-18.1167
-20.8832
-19.8088
-18.494
-19.9249
-19.0684
-19.8197
-18.8948
-18.7302
-18.1534
-18.1516
-19.7096
-17.1075
-17.4097
-20.7936
-15.918
-18.7784
-10.2823
-16.0659
-22.9909
-0.698793
-18.4882
-61.5108
-40.2411
-35.1482
-32.8838
-31.6463
-30.9223
-30.5105
-30.3222
)
;
    }
    bottom
    {
        type            calculated;
        value           nonuniform List<scalar> 
64
(
-26.4178
-26.3904
-26.3363
-26.2571
-26.1549
-26.032
-25.8914
-25.7357
-25.5677
-25.3899
-25.2049
-25.0147
-24.8212
-24.6262
-24.4311
-24.2373
-24.0458
-23.8577
-23.6736
-23.4942
-23.3199
-23.151
-22.9879
-22.8307
-22.6797
-22.5352
-22.3974
-22.2666
-22.1433
-22.028
-21.9212
-21.8234
-21.7356
-21.6584
-21.5929
-21.5401
-21.501
-21.4769
-21.469
-21.4784
-21.5065
-21.5544
-21.6236
-21.7149
-21.8295
-21.968
-22.1308
-22.3178
-22.5283
-22.7608
-23.0131
-23.2818
-23.5627
-23.8506
-24.1394
-24.4226
-24.6936
-24.9458
-25.1732
-25.3704
-25.5332
-25.6581
-25.7426
-25.7853
)
;
    }
    defaultFaces
    {
        type            empty;
    }
}


// ************************************************************************* //
