/*--------------------------------*- C++ -*----------------------------------*\
| =========                 |                                                 |
| \\      /  F ield         | OpenFOAM: The Open Source CFD Toolbox           |
|  \\    /   O peration     | Version:  5.x                                   |
|   \\  /    A nd           | Web:      www.OpenFOAM.org                      |
|    \\/     M anipulation  |                                                 |
\*---------------------------------------------------------------------------*/
FoamFile
{
    version     2.0;
    format      ascii;
    class       volScalarField;
    location    "2.1999";
    object      gradTy;
}
// * * * * * * * * * * * * * * * * * * * * * * * * * * * * * * * * * * * * * //

dimensions      [0 -1 0 1 0 0 0];

internalField   nonuniform List<scalar> 
6300
(
32285.2
32255.7
32226
32196.2
32166.1
32135.8
32105.1
32073.9
32042.3
32010.2
31977.5
31944.3
31910.5
31876.1
31841.1
0.0515554
0.154189
0.255363
0.354005
0.44889
0.538603
0.621526
0.695849
0.759638
0.810949
0.848008
0.869446
0.87457
0.863626
0.837976
0.0864424
0.258572
0.428379
0.594133
0.753835
0.905146
1.04535
1.17135
1.27981
1.36728
1.43054
1.46702
1.47527
1.4555
1.40997
0.122087
0.365283
0.60546
0.840327
1.06719
1.28282
1.48338
1.66443
1.821
1.94784
2.0399
2.09286
2.10403
2.07318
2.00337
0.15871
0.475014
0.787853
1.09453
1.39178
1.67556
1.94094
2.182
2.39191
2.56321
2.68834
2.7605
2.77482
2.72985
2.62904
0.196449
0.58821
0.97641
1.35816
1.72983
2.08671
2.42283
2.73072
3.00143
3.22475
3.38978
3.48599
3.5049
3.44235
3.30115
0.235325
0.70497
1.17141
1.63189
2.08267
2.51864
2.93295
3.31661
3.65835
3.9446
4.16003
4.28877
4.31645
4.23351
4.03966
0.275205
0.824932
1.37239
1.91532
2.45031
2.97224
3.47371
3.94445
4.37077
4.73525
5.017
5.19262
5.23862
5.13557
4.87485
0.315769
0.947164
1.57789
2.2067
2.83101
3.44629
4.04522
4.61672
5.14502
5.60866
5.98009
6.22609
6.30984
6.19533
5.85559
0.356476
1.07006
1.78533
2.50257
3.22075
3.93672
4.64415
5.33222
5.98393
6.57429
7.06863
7.42183
7.57935
7.48034
7.06365
0.396548
1.19129
1.99079
2.79751
3.61272
4.43568
5.26245
6.08407
6.88422
7.63596
8.2983
8.81331
9.10547
9.08317
8.63563
0.434971
1.30777
2.18903
3.08395
3.99694
4.93087
5.88589
6.85742
7.83291
8.78704
9.67533
10.4277
10.9463
11.1116
10.7809
0.470539
1.4158
2.37361
3.35234
4.36023
5.40497
6.49283
7.62681
8.80298
10.004
11.1884
12.2762
13.1406
13.6367
13.7117
0.501925
1.51127
2.53727
3.59159
4.68667
5.83595
7.05368
8.35402
9.74822
11.2376
12.798
14.3484
15.704
16.5835
17.0903
0.527818
1.59009
2.67262
3.79007
4.95893
6.19849
7.53193
8.98739
10.5982
12.4003
14.418
16.6156
18.7442
19.9031
17.5814
31808.6
31778.6
31748.3
31717.6
31686.6
31655.3
31623.8
31591.9
31559.9
31527.6
31495.2
31462.5
31429.7
31396.8
31363.7
31330.6
31297.3
31264
31230.7
31197.4
31164
31130.6
31097.2
31063.8
31030.4
30997
30963.5
30930.1
30896.6
30863.2
30829.7
30796.3
30762.9
30729.5
30696.1
30662.8
30629.5
30596.3
30563
30529.8
30496.6
30463.4
30430.2
30397
30363.8
30330.7
30297.5
30264.4
30231.4
30198.4
30165.4
30132.5
30099.6
30066.7
30033.8
30001
29968.2
29935.4
29902.6
29869.8
29837.1
29804.4
29771.8
29739.2
29706.6
29674.1
29641.6
29609.2
29576.9
29544.5
29512.2
29479.9
29447.7
29415.5
29383.3
29351.2
29319.1
29287
29255
29223
29191.1
29159.1
29127.2
29095.2
29063.2
29031.1
28999
28966.7
28934.4
28902
0.803266
0.765376
0.72332
0.679206
0.634798
0.591285
0.549153
0.508207
0.467733
0.426773
0.384447
0.340259
0.294319
0.247437
0.201064
0.15708
0.117489
0.0840585
0.0579962
0.0397161
0.0287441
0.023773
0.0228568
0.0237088
0.0240553
0.0219873
0.0162554
0.00645664
-0.00691739
-0.0225862
-0.0387237
-0.0533004
-0.064459
-0.0708563
-0.0719062
-0.0678846
-0.0598835
-0.0496265
-0.0391796
-0.0306066
-0.0256242
-0.0253134
-0.0299352
-0.0388837
-0.0507889
-0.0637568
-0.0757054
-0.0847348
-0.0894634
-0.0892662
-0.084378
-0.0758457
-0.0653456
-0.054896
-0.0465156
-0.041882
-0.0420451
-0.0472446
-0.0568627
-0.0695254
-0.0833394
-0.0962235
-0.106274
-0.112094
-0.11303
-0.10927
-0.101792
-0.0921796
-0.0823347
-0.0741313
-0.0690723
-0.0679989
-0.0709026
-0.0768727
-0.0841943
-0.090584
-0.0935296
-0.0906761
-0.0801946
-0.0610783
-0.0333281
0.00198846
0.0428013
0.0862133
0.128767
0.166784
0.196748
0.215701
0.221603
0.213595
1.34866
1.28205
1.20858
1.13224
1.05632
0.983003
0.91307
0.845934
0.779974
0.71308
0.643301
0.569456
0.491584
0.411131
0.330838
0.254338
0.185533
0.127887
0.0837802
0.054055
0.0378328
0.0326273
0.0347212
0.0397419
0.0433403
0.0418678
0.0329441
0.0158226
-0.00851025
-0.0375331
-0.0676607
-0.0949125
-0.115652
-0.127254
-0.128575
-0.120146
-0.104082
-0.0837141
-0.0630326
-0.0460248
-0.0360104
-0.0350841
-0.0437548
-0.0608486
-0.0837016
-0.108624
-0.131557
-0.148803
-0.157678
-0.156979
-0.14717
-0.130288
-0.109582
-0.0889591
-0.0723263
-0.0629337
-0.0628222
-0.0724654
-0.0906721
-0.114777
-0.141099
-0.165589
-0.184549
-0.19528
-0.196536
-0.188708
-0.17372
-0.154671
-0.135278
-0.11921
-0.109433
-0.107649
-0.113925
-0.126588
-0.142406
-0.157033
-0.165669
-0.163802
-0.147915
-0.116032
-0.0680618
-0.00588532
0.0667685
0.144645
0.221444
0.29042
0.345085
0.379937
0.391156
0.377132
1.90978
1.80863
1.69806
1.58472
1.47416
1.36992
1.27303
1.18204
1.09364
1.00362
0.908093
0.804541
0.692657
0.574687
0.455248
0.340615
0.23761
0.152324
0.0889634
0.0490605
0.0311714
0.0310869
0.0424905
0.057945
0.0700517
0.0726052
0.0615668
0.0357049
-0.0032155
-0.0507529
-0.100601
-0.145762
-0.179861
-0.198314
-0.199135
-0.183256
-0.15433
-0.118102
-0.081443
-0.0512189
-0.0331552
-0.030879
-0.0452883
-0.0743624
-0.113476
-0.156196
-0.195439
-0.224763
-0.23952
-0.237648
-0.219986
-0.190077
-0.153539
-0.117117
-0.0875517
-0.0704622
-0.0693949
-0.0851976
-0.115832
-0.156682
-0.201343
-0.242764
-0.274522
-0.291962
-0.292977
-0.278308
-0.251351
-0.217519
-0.183292
-0.155092
-0.138151
-0.135559
-0.147618
-0.171635
-0.202207
-0.231985
-0.252811
-0.257002
-0.238553
-0.194042
-0.123145
-0.0287427
0.0833147
0.204726
0.325477
0.434755
0.522037
0.578285
0.597137
0.575875
2.49407
2.34879
2.19155
2.03321
1.8829
1.74627
1.6245
1.51444
1.40963
1.30211
1.18444
1.05163
0.902496
0.74036
0.572738
0.410151
0.264176
0.14519
0.060369
0.0123673
-0.00112765
0.0130044
0.0444269
0.0809692
0.11052
0.122915
0.111535
0.0743909
0.0144869
-0.0606469
-0.14029
-0.212543
-0.266603
-0.294764
-0.293748
-0.265156
-0.215098
-0.153114
-0.0905916
-0.0389068
-0.00757071
-0.00265212
-0.02571
-0.0734256
-0.138063
-0.208781
-0.273613
-0.321709
-0.345314
-0.341065
-0.310447
-0.259419
-0.19734
-0.13541
-0.0848214
-0.0549287
-0.0516845
-0.0765821
-0.12629
-0.193109
-0.266263
-0.333864
-0.385123
-0.412305
-0.41201
-0.385615
-0.338891
-0.280943
-0.222638
-0.174767
-0.146215
-0.142381
-0.1641
-0.207249
-0.263155
-0.319836
-0.363913
-0.382808
-0.366723
-0.310052
-0.212078
-0.0770256
0.0863887
0.265757
0.446027
0.610762
0.743676
0.830478
0.860882
0.830369
3.11087
2.90617
2.68662
2.47015
2.27197
2.10121
1.95913
1.83928
1.72954
1.61521
1.4826
1.3222
1.13106
0.913932
0.682975
0.45576
0.251871
0.0888535
-0.0212514
-0.0740222
-0.0732165
-0.0299839
0.0389832
0.114053
0.175685
0.207451
0.198596
0.145841
0.05411
-0.0640581
-0.190634
-0.305537
-0.390649
-0.433246
-0.428085
-0.377983
-0.293054
-0.188918
-0.0841507
0.00269022
0.0560374
0.0658428
0.0293567
-0.0481402
-0.153914
-0.269863
-0.375907
-0.453945
-0.491239
-0.482475
-0.430324
-0.344695
-0.240952
-0.137395
-0.0523131
-0.00104548
0.0065258
-0.0322636
-0.112135
-0.220436
-0.339204
-0.448519
-0.530419
-0.572239
-0.568653
-0.522216
-0.442618
-0.344905
-0.246977
-0.166647
-0.118708
-0.112423
-0.14974
-0.224512
-0.323004
-0.42585
-0.511292
-0.558998
-0.55335
-0.48555
-0.354414
-0.16616
0.0664786
0.325481
0.588938
0.832581
1.03171
1.16388
1.21234
1.16939
3.77333
3.48492
3.17726
2.88074
2.62154
2.41487
2.26173
2.14959
2.05606
1.95464
1.82077
1.63704
1.39704
1.10742
0.787817
0.467775
0.180706
-0.0436847
-0.185441
-0.23757
-0.206409
-0.110039
0.0247421
0.166476
0.283848
0.350469
0.348863
0.273402
0.13179
-0.0553757
-0.257803
-0.441444
-0.575937
-0.640514
-0.627158
-0.540978
-0.398688
-0.22565
-0.0519172
0.092497
0.182324
0.200975
0.143456
0.0178403
-0.155138
-0.345236
-0.518554
-0.64488
-0.703514
-0.68639
-0.598438
-0.456085
-0.284326
-0.112805
0.0288573
0.11573
0.131465
0.0711823
-0.0570702
-0.23272
-0.425789
-0.602683
-0.733458
-0.797586
-0.787029
-0.706598
-0.572456
-0.409206
-0.246004
-0.111908
-0.0312428
-0.0197066
-0.0814665
-0.207642
-0.376605
-0.556944
-0.713027
-0.812033
-0.829492
-0.752263
-0.579013
-0.319221
0.0085923
0.378781
0.760368
1.11849
1.41614
1.6178
1.69542
1.63512
4.50242
4.09141
3.6518
3.23758
2.89543
2.65141
2.50532
2.43311
2.39395
2.34079
2.23075
2.03293
1.73447
1.34406
0.893294
0.432302
0.0192759
-0.295225
-0.478701
-0.521069
-0.433511
-0.245419
0.000477911
0.253971
0.465079
0.591722
0.605466
0.49621
0.275051
-0.0247325
-0.352041
-0.648141
-0.861921
-0.960027
-0.931121
-0.784794
-0.548619
-0.263409
0.0225118
0.260885
0.411078
0.445766
0.355587
0.151995
-0.131736
-0.4448
-0.728902
-0.933321
-1.02491
-0.99233
-0.844925
-0.609854
-0.327391
-0.0452541
0.188889
0.334909
0.365834
0.272469
0.066211
-0.219956
-0.5357
-0.823291
-1.0325
-1.13051
-1.10606
-0.96836
-0.744241
-0.473472
-0.203149
0.019739
0.155737
0.178527
0.0795371
-0.129181
-0.413851
-0.722986
-0.996976
-1.18251
-1.242
-1.15726
-0.928246
-0.570245
-0.110327
0.415652
0.965572
1.49148
1.93879
2.25033
2.37707
2.29218
5.33583
4.73904
4.08972
3.49059
3.02795
2.74687
2.64249
2.669
2.75202
2.80887
2.76711
2.57376
2.20431
1.66761
1.01349
0.32775
-0.284038
-0.735451
-0.975167
-0.99167
-0.805395
-0.464051
-0.0347363
0.402487
0.767927
0.99554
1.03917
0.880143
0.531517
0.0455298
-0.49124
-0.9734
-1.3145
-1.46246
-1.40419
-1.15802
-0.769187
-0.302217
0.165382
0.556225
0.806132
0.870336
0.731003
0.401521
-0.0661279
-0.586103
-1.05403
-1.38426
-1.52517
-1.46365
-1.21769
-0.831906
-0.370025
0.0913673
0.47578
0.719782
0.779142
0.636283
0.30452
-0.164638
-0.686191
-1.1568
-1.49172
-1.63983
-1.58819
-1.3546
-0.983241
-0.537132
-0.0920239
0.276471
0.505703
0.55209
0.398518
0.0586188
-0.415896
-0.939659
-1.40832
-1.73453
-1.8622
-1.77005
-1.46323
-0.968044
-0.324385
0.418037
1.20533
1.97767
2.65691
3.14898
3.36347
3.24413
6.3483
5.46238
4.45541
3.54702
2.89894
2.58777
2.59109
2.82346
3.14778
3.41892
3.52179
3.36815
2.91501
2.16022
1.17924
0.116693
-0.8183
-1.48053
-1.79307
-1.75429
-1.40059
-0.809373
-0.0813527
0.654355
1.26923
1.66427
1.7647
1.53708
0.985764
0.1889
-0.709095
-1.50181
-2.04523
-2.26188
-2.14788
-1.7367
-1.1023
-0.341962
0.418753
1.05448
1.46857
1.58797
1.3802
0.849973
0.0747954
-0.802399
-1.57746
-2.10789
-2.31695
-2.20061
-1.79183
-1.16359
-0.411999
0.338793
0.964819
1.37049
1.4836
1.27207
0.740634
-0.0339187
-0.910077
-1.68577
-2.21998
-2.43682
-2.33237
-1.93929
-1.32992
-0.599393
0.129382
0.733699
1.11893
1.21355
0.985774
0.44023
-0.347052
-1.23571
-2.02481
-2.57247
-2.79895
-2.69197
-2.26948
-1.57965
-0.680675
0.355794
1.46663
2.59788
3.64457
4.44731
4.83058
4.66667
7.70038
6.36044
4.67953
3.22887
2.28485
1.97577
2.20975
2.84545
3.62009
4.27127
4.64585
4.59381
4.06008
2.97853
1.46244
-0.278048
-1.74535
-2.7292
-3.11689
-2.97039
-2.33785
-1.3517
-0.139056
1.0802
2.0871
2.75723
2.9626
2.66013
1.79358
0.477876
-1.07858
-2.38923
-3.24652
-3.53749
-3.31953
-2.63684
-1.61682
-0.382281
0.852067
1.87188
2.55532
2.77668
2.4937
1.65111
0.362583
-1.16581
-2.4532
-3.29433
-3.57735
-3.35876
-2.68203
-1.67295
-0.452875
0.765832
1.77111
2.44245
2.65548
2.36847
1.52678
0.243061
-1.27869
-2.56251
-3.40532
-3.69652
-3.4922
-2.83551
-1.85109
-0.659185
0.52996
1.50636
2.15057
2.33923
2.03057
1.16991
-0.132263
-1.67516
-2.98898
-3.87295
-4.21589
-4.06825
-3.46069
-2.49246
-1.23496
0.186446
1.69853
3.33986
4.98349
6.3497
7.08559
6.88158
9.75844
7.75042
4.57303
2.18203
0.756976
0.581933
1.24992
2.66733
4.27017
5.52193
6.38422
6.51312
5.994
4.42258
2.06875
-1.06619
-3.36857
-4.83633
-5.20999
-4.88642
-3.78431
-2.22022
-0.206295
1.81182
3.3899
4.51941
4.89179
4.59542
3.24817
1.11351
-1.80206
-3.92953
-5.26336
-5.546
-5.16041
-4.02281
-2.44026
-0.422369
1.59427
3.1736
4.30743
4.69161
4.413
3.09436
0.995724
-1.87632
-3.97161
-5.28452
-5.56013
-5.17668
-4.05088
-2.48619
-0.491847
1.50015
3.0582
4.17431
4.54737
4.26353
2.9494
0.862737
-1.98998
-4.07436
-5.38501
-5.66986
-5.30348
-4.20372
-2.67111
-0.715056
1.23683
2.75733
3.83815
4.18098
3.87019
2.5353
0.429135
-2.44453
-4.57217
-5.95255
-6.33926
-6.10685
-5.17127
-3.82184
-2.02528
-0.1135
1.74429
4.07846
6.72184
9.15968
10.694
10.5457
13.3704
10.8249
3.33498
-0.254665
-2.57019
-2.0256
-0.788997
2.22218
5.42578
7.33341
9.17867
9.36556
9.44322
6.99329
3.79982
-3.05324
-6.1937
-8.51903
-8.30714
-7.92362
-5.89605
-3.73657
-0.279613
3.17705
5.33858
7.37185
7.78393
8.04393
5.83657
2.87359
-3.66044
-6.61275
-8.79399
-8.51685
-8.08428
-6.04957
-3.89069
-0.460741
2.96615
5.11675
7.13895
7.56086
7.82988
5.66073
2.74248
-3.70544
-6.61674
-8.76853
-8.49204
-8.0637
-6.05184
-3.91825
-0.527542
2.85922
4.98159
6.97606
7.38506
7.64211
5.48437
2.58541
-3.80776
-6.70048
-8.84199
-8.58103
-8.17093
-6.19534
-4.10099
-0.765022
2.56478
4.64134
6.58831
6.96387
7.18439
5.01123
2.09564
-4.28822
-7.23151
-9.46306
-9.35421
-9.15803
-7.47783
-5.79511
-2.98154
-0.335769
1.10398
4.37166
8.75596
13.2705
16.7253
17.2265
20.1999
21.0159
-3.52288
-4.52602
-10.0154
-5.62958
-5.38334
1.49997
8.44763
9.23472
14.3612
12.3753
16.5322
10.6347
10.8007
-10.3865
-10.1926
-15.8554
-11.6515
-13.3283
-8.1978
-7.1213
-0.352537
6.40724
7.47197
12.5588
10.895
15.0454
9.51308
9.77594
-10.6765
-10.4063
-15.8648
-11.7115
-13.3153
-8.25521
-7.17151
-0.494755
6.17583
7.24475
12.2748
10.6503
14.7577
9.30574
9.57191
-10.6274
-10.3556
-15.7494
-11.6427
-13.2311
-8.22819
-7.16061
-0.557637
6.03895
7.08909
12.0608
10.4415
14.4979
9.08661
9.33966
-10.6663
-10.4084
-15.7586
-11.707
-13.2928
-8.358
-7.31889
-0.806179
5.69734
6.71187
11.6012
9.96993
13.9454
8.55618
8.75641
-11.0864
-10.9158
-16.3438
-12.4949
-14.3462
-9.78799
-9.39682
-3.69618
1.17858
-2.16871
3.05661
10.6022
18.907
27.0093
31.5421
29.9293
67.7267
-44.2749
-2.33996
-31.6796
-3.27083
-19.5338
0.686354
20.342
4.88865
29.7869
6.5411
38.1008
5.54639
48.5517
-48.5064
-5.7563
-37.3976
-6.52567
-28.5332
-4.65969
-18.7007
-0.410284
17.8406
3.81588
27.4688
5.63622
35.9926
4.84699
46.5109
-47.5306
-5.94796
-36.7734
-6.61331
-28.1394
-4.73185
-18.5033
-0.516864
17.455
3.67174
26.9966
5.4887
35.4541
4.71992
45.8748
-47.0242
-5.93295
-36.4074
-6.58902
-27.8864
-4.73429
-18.3705
-0.575107
17.209
3.55295
26.64
5.32831
34.9907
4.53559
45.2702
-46.7013
-6.03756
-36.2102
-6.71218
-27.8009
-4.90775
-18.4156
-0.830985
16.7372
3.20568
26.0069
4.90518
34.1946
4.05511
44.282
-46.7014
-6.53545
-36.5807
-7.42514
-28.7619
-6.09543
-20.6422
-3.21963
14.5345
-17.7833
-1.59705
11.3578
24.8375
42.4359
70.7474
28866.1
28827
28787.7
28748.3
28708.9
28669.6
28630.3
28591
28551.9
28512.9
28474
28435.2
28396.5
28357.9
28319.3
0.189987
0.147542
0.0933778
0.0335874
-0.0256207
-0.0787735
-0.121681
-0.15166
-0.16749
-0.169212
-0.157851
-0.135131
-0.103244
-0.0646622
-0.02201
0.334864
0.25866
0.161669
0.0551688
-0.0495534
-0.142769
-0.217246
-0.268552
-0.294881
-0.296606
-0.27574
-0.235428
-0.179523
-0.112288
-0.0381944
0.509898
0.390622
0.239525
0.0750223
-0.084947
-0.225461
-0.335944
-0.410389
-0.446848
-0.446566
-0.413059
-0.351303
-0.267123
-0.166769
-0.0566734
0.732233
0.554404
0.330789
0.0903426
-0.139795
-0.338184
-0.490679
-0.590211
-0.635554
-0.629751
-0.578624
-0.489603
-0.370897
-0.230992
-0.0784035
1.02533
0.763966
0.438877
0.0953494
-0.226393
-0.496804
-0.698378
-0.824221
-0.875408
-0.858258
-0.782084
-0.657588
-0.495868
-0.307898
-0.104352
1.42264
1.03724
0.565397
0.078565
-0.364328
-0.724263
-0.981811
-1.13289
-1.1836
-1.14579
-1.03387
-0.862798
-0.647089
-0.400378
-0.13546
1.97353
1.39695
0.706895
0.0178353
-0.585227
-1.05411
-1.37172
-1.54192
-1.58031
-1.50744
-1.34479
-1.11265
-0.829312
-0.511067
-0.172567
2.75338
1.87014
0.847389
-0.128898
-0.940306
-1.53525
-1.90903
-2.08278
-2.08827
-1.95886
-1.7252
-1.41369
-1.04644
-0.642009
-0.216308
3.8811
2.48284
0.941416
-0.440515
-1.51185
-2.23756
-2.64635
-2.79191
-2.73113
-2.51454
-2.18347
-1.77046
-1.30077
-0.794215
-0.266962
5.55009
3.23869
0.875958
-1.06272
-2.42903
-3.25677
-3.64692
-3.70738
-3.5298
-3.18467
-2.72369
-2.18392
-1.59194
-0.967123
-0.324287
8.07792
4.04586
0.386455
-2.25729
-3.88476
-4.71358
-4.97716
-4.86088
-4.496
-3.97067
-3.34268
-2.6496
-1.91594
-1.15805
-0.38735
11.9456
4.48029
-1.11873
-4.46814
-6.13912
-6.73562
-6.68725
-6.26297
-5.62264
-4.85933
-4.02677
-3.15584
-2.26417
-1.36179
-0.45441
17.5172
3.0483
-4.87361
-8.35744
-9.46795
-9.40251
-8.77325
-7.88109
-6.87226
-5.81724
-4.74922
-3.6828
-2.62311
-1.57051
-0.522912
22.2579
-4.93084
-13.0667
-14.6201
-13.9727
-12.6332
-11.1222
-9.61589
-8.16806
-6.78813
-5.47009
-4.20302
-2.97497
-1.77424
-0.589638
0.546013
1.64545
2.76759
3.92918
5.14967
6.45286
7.8693
9.43984
11.2209
13.2918
15.7619
18.7604
22.3166
25.6353
23.0328
0.556909
1.67849
2.82388
4.01082
5.26019
6.5981
8.05915
9.6919
11.5686
13.8039
16.5952
20.3205
25.8235
35.4098
56.9929
0.562416
1.69499
2.85133
4.04913
5.30924
6.65783
8.12977
9.77458
11.6672
13.9299
16.7798
20.6462
26.4949
36.8517
59.441
0.562546
1.695
2.85
4.04417
5.29687
6.63191
8.08037
9.68516
11.5089
13.6481
16.2586
19.5952
24.0359
29.8018
34.4723
0.557564
1.67935
2.82146
3.99859
5.22732
6.52723
7.92244
9.44371
11.1315
13.039
15.2328
17.7772
20.6564
23.5154
25.1809
0.547956
1.6496
2.76861
3.91717
5.10834
6.3564
7.67697
9.0867
10.6015
12.2309
13.9633
15.726
17.29
18.0572
16.5748
0.534371
1.60779
2.69525
3.80616
4.94987
6.13523
7.36963
8.65677
9.99186
11.3515
12.6728
13.8123
14.4764
14.1604
12.4861
0.517542
1.55622
2.6056
3.67239
4.76248
5.88
7.02567
8.1936
9.3653
10.4988
11.5085
12.2287
12.3434
11.2067
7.10334
0.498214
1.49724
2.50387
3.52245
4.55604
5.60523
6.66628
7.72782
8.76533
9.73211
10.5452
11.0658
11.0792
10.3135
8.73675
0.477084
1.43298
2.39383
3.3621
4.33877
5.32224
6.30656
7.27874
8.2145
9.07223
9.78525
10.2551
10.3563
9.98338
9.20255
0.454754
1.36528
2.27865
3.19592
4.1168
5.03866
5.95528
6.85495
7.71786
8.51287
9.1942
9.70046
9.96254
9.93665
9.70038
0.431715
1.29562
2.16075
3.02725
3.89414
4.75872
5.61578
6.4567
7.2684
8.03246
8.72473
9.31544
9.76883
10.036
10.0199
0.408347
1.22511
2.04192
2.85832
3.6731
4.48401
5.28751
6.07875
6.85202
7.60194
8.32581
9.02578
9.70443
10.3322
10.7576
0.384935
1.15456
1.92337
2.69052
3.45477
4.21446
4.96775
5.7133
6.45186
7.18952
7.9435
8.75097
9.6754
10.7689
11.7394
0.361692
1.08459
1.80599
2.52474
3.2396
3.94937
4.65339
5.35271
6.05234
6.76578
7.52407
8.39494
9.52898
11.2911
14.7075
0.338785
1.01566
1.69044
2.36168
3.02799
3.68827
4.34231
4.99193
5.64325
6.31092
7.02647
7.8562
8.94644
10.6645
14.1417
0.316362
0.948196
1.57735
2.20204
2.82056
3.43152
4.0343
4.62998
5.22282
5.82284
6.4496
7.13656
7.92798
8.81621
9.29868
0.294558
0.882593
1.46737
2.0467
2.6184
3.18046
3.73125
4.27001
4.79742
5.31619
5.83094
6.3444
6.84233
7.24975
7.37745
0.273507
0.819254
1.36118
1.89665
2.42294
2.93722
3.43657
3.91795
4.37802
4.81237
5.21318
5.56305
5.81954
5.87758
5.46331
0.253335
0.758574
1.25947
1.75298
2.23583
2.70436
3.15437
3.58069
3.9765
4.33186
4.63083
4.84657
4.93459
4.83341
4.53146
0.234159
0.70091
1.1629
1.61673
2.05867
2.48439
2.88863
3.26463
3.6031
3.89051
4.10628
4.2188
4.18105
3.9287
3.36567
0.216072
0.646557
1.07199
1.48875
1.89278
2.27933
2.64251
2.97465
3.26517
3.49892
3.65346
3.69539
3.57657
3.23974
2.70288
0.199139
0.595715
0.987111
1.36961
1.73904
2.09051
2.41797
2.71357
2.96668
3.16235
3.27886
3.28363
3.12351
2.68969
1.64071
0.183387
0.548472
0.908415
1.25955
1.59778
1.91837
2.21555
2.48201
2.70811
2.88075
2.98187
2.98639
2.86053
2.56687
2.12886
0.16881
0.504801
0.835845
1.15844
1.46878
1.76249
2.03448
2.27849
2.48666
2.64885
2.75199
2.77972
2.71408
2.5443
2.2916
0.155365
0.464567
0.769142
1.06587
1.35132
1.62172
1.87285
2.09988
2.29715
2.45796
2.57448
2.63789
2.63998
2.57931
2.48365
0.142983
0.427549
0.707892
0.981136
1.24431
1.49433
1.72798
1.94195
2.13296
2.29785
2.43387
2.53868
2.60946
2.63866
2.59956
0.131574
0.393464
0.651577
0.903401
1.14645
1.37831
1.59677
1.79999
1.98692
2.1578
2.31494
2.46313
2.60783
2.74544
2.83961
0.12104
0.362004
0.599633
0.831766
1.05636
1.27161
1.47614
1.66936
1.85204
2.0273
2.20223
2.39001
2.61115
2.88242
3.12473
0.111283
0.332862
0.55151
0.76537
0.97277
1.17237
1.36339
1.54606
1.72231
1.89706
2.08063
2.29374
2.57968
3.03954
3.95379
0.102211
0.305758
0.506714
0.703465
0.894605
1.07908
1.25644
1.42723
1.59364
1.76071
1.93853
2.14691
2.42745
2.88115
3.8138
0.0937472
0.280456
0.464841
0.645463
0.821074
0.990747
1.15407
1.31144
1.46452
1.61692
1.77521
1.94999
2.15499
2.39017
2.52312
0.0858294
0.256771
0.425585
0.590945
0.751673
0.906831
1.05584
1.19864
1.33588
1.46906
1.60046
1.73211
1.86158
1.97023
2.00887
0.0784107
0.234564
0.388732
0.539649
0.686146
0.827192
0.961934
1.08972
1.21007
1.32243
1.42556
1.51576
1.58265
1.59892
1.49132
0.0714566
0.213739
0.354138
0.491426
0.624411
0.751938
0.872864
0.98598
1.08982
1.18224
1.25966
1.31561
1.3389
1.31364
1.23743
0.0649411
0.194224
0.321709
0.446196
0.566471
0.681274
0.789227
0.888692
0.9775
1.05248
1.10867
1.13817
1.12888
1.06376
0.916378
0.0588425
0.175959
0.291365
0.403895
0.512337
0.615374
0.711493
0.798813
0.874798
0.935779
0.976222
0.987667
0.957638
0.871031
0.732929
0.0531391
0.158884
0.26302
0.364439
0.461962
0.554286
0.639878
0.716816
0.782524
0.833354
0.863928
0.865983
0.825701
0.714073
0.438738
0.0478066
0.142929
0.236566
0.327691
0.415203
0.497878
0.57428
0.642627
0.700592
0.745006
0.771449
0.773713
0.743322
0.670812
0.562705
0.0428158
0.128006
0.21186
0.293456
0.371809
0.445834
0.514282
0.575656
0.628079
0.669149
0.695773
0.704131
0.690205
0.652282
0.598212
0.0381324
0.114011
0.188726
0.261477
0.331425
0.397667
0.459206
0.514908
0.56346
0.603334
0.632793
0.650035
0.653765
0.644975
0.632103
0.0337176
0.100827
0.166959
0.231448
0.293619
0.352774
0.408191
0.459134
0.504877
0.544763
0.578307
0.605335
0.626032
0.640517
0.646818
0.0295292
0.0883249
0.146333
0.203034
0.257914
0.310481
0.360289
0.40698
0.450372
0.490606
0.528358
0.565044
0.602627
0.641757
0.676113
0.0255237
0.0763705
0.126619
0.175887
0.223818
0.270112
0.314559
0.357123
0.398068
0.438183
0.479161
0.524142
0.578161
0.64633
0.716781
0.0216581
0.0648329
0.107589
0.149671
0.190865
0.231029
0.270144
0.3084
0.346349
0.385171
0.427195
0.476978
0.543883
0.649334
0.850376
0.0178914
0.0535873
0.0890296
0.124076
0.158632
0.192681
0.226331
0.259898
0.294032
0.329945
0.369854
0.417936
0.482854
0.585973
0.794437
0.0141857
0.0425193
0.070747
0.0988255
0.126756
0.154614
0.182582
0.21101
0.240488
0.271955
0.306848
0.347216
0.395314
0.449477
0.476422
0.0105067
0.0315262
0.0525704
0.0736803
0.0949356
0.116475
0.138521
0.161401
0.18557
0.211595
0.240051
0.27114
0.303576
0.331902
0.34448
0.00682411
0.0205172
0.0343504
0.0484371
0.0629212
0.0779901
0.0938853
0.110903
0.129371
0.149557
0.171436
0.194139
0.214707
0.225277
0.205378
0.00311079
0.00941205
0.0159565
0.022921
0.0305045
0.0389358
0.0484755
0.0594056
0.071987
0.0863507
0.102258
0.118632
0.132792
0.139825
0.136103
-0.000657391
-0.00186076
-0.00272722
-0.00302235
-0.00249723
-0.00088386
0.00210531
0.00676693
0.0133718
0.0220802
0.0327643
0.0446731
0.0558352
0.0618513
0.0516719
-0.00450252
-0.0133664
-0.0218058
-0.0295326
-0.0362514
-0.0416548
-0.0454214
-0.0472156
-0.0466978
-0.0435552
-0.0375724
-0.0287596
-0.0175388
-0.00486687
0.0083129
-0.00844526
-0.0251659
-0.0413774
-0.0567406
-0.0709157
-0.0835586
-0.0943134
-0.102799
-0.108584
-0.111157
-0.109867
-0.103857
-0.091913
-0.0719306
-0.0379745
-0.0125056
-0.037318
-0.0615364
-0.0847713
-0.106641
-0.12677
-0.144777
-0.160251
-0.172697
-0.181434
-0.185434
-0.183069
-0.171863
-0.148692
-0.11342
-0.0167036
-0.0498817
-0.0823768
-0.113748
-0.143573
-0.171452
-0.196996
-0.219803
-0.239379
-0.254997
-0.265414
-0.268416
-0.260114
-0.233852
-0.176093
-0.0210605
-0.0629188
-0.103996
-0.143796
-0.181854
-0.217751
-0.251113
-0.281593
-0.308806
-0.332165
-0.35054
-0.361606
-0.360833
-0.34088
-0.29742
-0.0255994
-0.0764972
-0.126502
-0.175052
-0.221633
-0.265807
-0.307227
-0.345649
-0.380905
-0.412789
-0.440735
-0.463013
-0.474865
-0.464225
-0.400097
-0.0303469
-0.090695
-0.150018
-0.207672
-0.263082
-0.315774
-0.365421
-0.411901
-0.455342
-0.496145
-0.534862
-0.571654
-0.604511
-0.624708
-0.612376
-0.0353344
-0.105604
-0.174691
-0.24185
-0.306417
-0.367851
-0.425812
-0.480259
-0.531607
-0.580944
-0.630322
-0.683023
-0.742944
-0.807773
-0.823028
-0.0405986
-0.121335
-0.200701
-0.277827
-0.351925
-0.422339
-0.48864
-0.550766
-0.609266
-0.66571
-0.72347
-0.789373
-0.877964
-1.02526
-1.34378
-0.0461827
-0.138016
-0.228264
-0.315907
-0.39999
-0.479682
-0.554365
-0.623789
-0.688348
-0.749559
-0.81096
-0.879962
-0.972212
-1.12383
-1.43147
-0.0521359
-0.155798
-0.257637
-0.356457
-0.451103
-0.540502
-0.623739
-0.700188
-0.769754
-0.833272
-0.893168
-0.954403
-1.02523
-1.11405
-1.20032
-0.0585123
-0.174846
-0.289105
-0.399904
-0.505858
-0.6056
-0.697825
-0.781366
-0.855358
-0.919499
-0.974442
-1.02218
-1.06575
-1.10603
-1.13185
-0.0653685
-0.195334
-0.322976
-0.446715
-0.564925
-0.675919
-0.777939
-0.869173
-0.9478
-1.01211
-1.06072
-1.09285
-1.10854
-1.10804
-1.08902
-0.0727602
-0.217435
-0.359557
-0.497365
-0.629003
-0.752467
-0.865543
-0.965734
-1.05018
-1.11562
-1.15843
-1.17495
-1.16257
-1.12292
-1.07032
-0.0807389
-0.241309
-0.399133
-0.552299
-0.698756
-0.836227
-0.962095
-1.07323
-1.16576
-1.23485
-1.2744
-1.27711
-1.23552
-1.14679
-1.02647
-0.0893478
-0.26709
-0.441945
-0.611892
-0.774747
-0.928046
-1.06888
-1.19363
-1.29763
-1.37459
-1.41596
-1.41003
-1.34122
-1.19261
-0.975239
-0.0986187
-0.294875
-0.488163
-0.67641
-0.857375
-1.02852
-1.18683
-1.32845
-1.44826
-1.53905
-1.59038
-1.5866
-1.50234
-1.28616
-0.778109
-0.108571
-0.324722
-0.537883
-0.745985
-0.946819
-1.13792
-1.31636
-1.47842
-1.61904
-1.7309
-1.80307
-1.81908
-1.75505
-1.58242
-1.30887
-0.11921
-0.356645
-0.591116
-0.820607
-1.04302
-1.2561
-1.45726
-1.64329
-1.8098
-1.95033
-2.05475
-2.10713
-2.08319
-1.94877
-1.65069
-0.130533
-0.390627
-0.647807
-0.900142
-1.14571
-1.38257
-1.60868
-1.8217
-2.01861
-2.19482
-2.34258
-2.44817
-2.48806
-2.42875
-2.26129
-0.142532
-0.426632
-0.707862
-0.984377
-1.25445
-1.5165
-1.76917
-2.01131
-2.24179
-2.45907
-2.6597
-2.83485
-2.96182
-2.98386
-2.75399
-0.1552
-0.464631
-0.77119
-1.07309
-1.36875
-1.65694
-1.93699
-2.209
-2.47415
-2.73487
-2.99451
-3.25499
-3.50845
-3.7139
-3.76975
-0.16854
-0.504623
-0.837756
-1.16613
-1.48823
-1.80305
-2.11039
-2.41146
-2.70959
-3.01144
-3.32873
-3.68002
-4.08842
-4.54785
-4.78917
-0.182574
-0.546664
-0.907625
-1.26353
-1.61278
-1.95433
-2.28816
-2.61597
-2.94244
-3.27728
-3.63935
-4.0654
-4.63294
-5.53328
-7.3569
-0.197342
-0.590878
-0.981001
-1.36556
-1.74267
-2.11098
-2.47009
-2.82142
-3.16947
-3.52422
-3.90554
-4.35252
-4.94636
-5.87755
-7.67564
-0.212908
-0.637462
-1.05824
-1.47276
-1.87869
-2.274
-2.65744
-3.02914
-3.39184
-3.75271
-4.12615
-4.53764
-5.02552
-5.61982
-6.17032
-0.229349
-0.686668
-1.13982
-1.58593
-2.02206
-2.44528
-2.85293
-3.24312
-3.6155
-3.97246
-4.32033
-4.66973
-5.03079
-5.39251
-5.67175
-0.246748
-0.738769
-1.22629
-1.70604
-2.17441
-2.62737
-3.06055
-3.46945
-3.84987
-4.19851
-4.51346
-4.79371
-5.03561
-5.22248
-5.29906
-0.26517
-0.793996
-1.31815
-1.83405
-2.33745
-2.82319
-3.28503
-3.71556
-4.10631
-4.44796
-4.7307
-4.94431
-5.07866
-5.12905
-5.12638
-0.284642
-0.85247
-1.41573
-1.97073
-2.51275
-3.03561
-3.53125
-3.98931
-4.39684
-4.73833
-4.99593
-5.14996
-5.18001
-5.07247
-4.85884
-0.305125
-0.914112
-1.51906
-2.11643
-2.70135
-3.26694
-3.80358
-4.29813
-4.73322
-5.08694
-5.3331
-5.44172
-5.3769
-5.08959
-4.58056
-0.326486
-0.978558
-1.62765
-2.27078
-2.90337
-3.51836
-4.10513
-4.64824
-5.12612
-5.51024
-5.76576
-5.85392
-5.7283
-5.26068
-3.69992
-0.348469
-1.04507
-1.74037
-2.43245
-3.11761
-3.78936
-4.437
-5.04365
-5.58411
-6.02285
-6.31466
-6.41457
-6.31718
-6.19088
-6.87419
-0.370684
-1.11249
-1.85534
-2.59891
-3.34115
-4.07713
-4.79731
-5.48502
-6.11274
-6.6375
-6.9968
-7.11223
-6.92613
-6.55881
-6.90962
-0.392593
-1.17919
-1.96981
-2.76629
-3.56903
-4.37585
-5.18018
-5.96803
-6.71285
-7.36704
-7.84828
-8.01929
-7.66089
-6.42798
-3.62455
-0.413518
-1.2431
-2.08019
-2.92932
-3.79407
-4.67629
-5.57449
-6.48092
-7.3759
-8.21667
-8.91519
-9.29399
-9.00291
-7.38775
-3.42675
-0.432675
-1.30179
-2.18222
-3.08148
-4.00698
-4.96563
-5.96308
-7.00174
-8.07658
-9.16509
-10.2041
-11.0339
-11.2644
-9.97655
-5.2376
-0.449215
-1.35263
-2.27117
-3.21543
-4.19685
-5.22803
-6.32302
-7.49745
-8.76774
-10.1479
-11.6383
-13.1898
-14.5803
-14.9619
-11.0319
-0.46229
-1.39297
-2.34224
-3.32357
-4.35217
-5.4461
-6.6278
-7.92657
-9.3826
-11.054
-13.0301
-15.4576
-18.5969
-22.9415
-29.4193
-12.1114
-27.569
-26.0484
-22.247
-18.7185
-15.7613
-13.2848
-11.1652
-9.30381
-7.62927
-6.09008
-4.6484
-3.27536
-1.94789
-0.646468
-118.684
-61.8862
-39.9452
-29.1104
-22.6527
-18.2627
-14.9905
-12.3828
-10.1974
-8.29282
-6.58065
-5.00175
-3.51418
-2.08614
-0.691747
-131.924
-71.9974
-46.1291
-32.9342
-25.1509
-19.9877
-16.2346
-13.3072
-10.8959
-8.82277
-6.97864
-5.29168
-3.71166
-2.20101
-0.729459
-72.3943
-58.457
-43.5119
-33
-25.8296
-20.7336
-16.9054
-13.8733
-11.3594
-9.1937
-7.26747
-5.50733
-3.86097
-2.28874
-0.758394
-51.0633
-45.6165
-37.8159
-30.7451
-25.0677
-20.5989
-17.0232
-14.0795
-11.5811
-9.39834
-7.44095
-5.64395
-3.95879
-2.34737
-0.777914
-32.4081
-34.4103
-31.613
-27.5226
-23.4664
-19.8441
-16.7021
-13.9765
-11.5834
-9.44649
-7.50305
-5.70289
-4.00541
-2.37685
-0.787968
-23.9033
-26.5372
-26.3081
-24.2764
-21.5638
-18.7557
-16.0917
-13.6427
-11.4079
-9.36025
-7.46563
-5.69052
-4.00415
-2.37878
-0.789027
-13.2983
-20.6522
-22.2548
-21.503
-19.7274
-17.5672
-15.332
-13.1601
-11.1024
-9.1677
-7.34521
-5.6165
-3.96054
-2.35598
-0.781956
-16.0562
-18.7612
-19.8366
-19.4405
-18.158
-16.4307
-14.5283