/*--------------------------------*- C++ -*----------------------------------*\
| =========                 |                                                 |
| \\      /  F ield         | OpenFOAM: The Open Source CFD Toolbox           |
|  \\    /   O peration     | Version:  5.x                                   |
|   \\  /    A nd           | Web:      www.OpenFOAM.org                      |
|    \\/     M anipulation  |                                                 |
\*---------------------------------------------------------------------------*/
FoamFile
{
    version     2.0;
    format      ascii;
    class       volScalarField;
    location    "5";
    object      gradTx;
}
// * * * * * * * * * * * * * * * * * * * * * * * * * * * * * * * * * * * * * //

dimensions      [0 -1 0 1 0 0 0];

internalField   nonuniform List<scalar> 
2048
(
0.00630455
0.0187333
0.0306372
0.0417181
0.0517473
0.0605753
0.0681318
0.0744146
0.0794734
0.0833911
0.0862674
0.0882068
0.0893111
0.0896772
0.0893976
0.0885613
0.0872553
0.085563
0.0835622
0.0813214
0.0788964
0.0763278
0.0736405
0.0708446
0.0679379
0.0649083
0.0617361
0.058396
0.0548568
0.0510829
0.0470338
0.042666
0.0379342
0.032794
0.0272033
0.0211247
0.0145258
0.00738058
-0.000330591
-0.00861937
-0.0174873
-0.0269221
-0.0368923
-0.0473405
-0.0581753
-0.0692617
-0.0804128
-0.0913813
-0.101856
-0.111464
-0.119782
-0.12636
-0.130754
-0.13257
-0.131512
-0.127417
-0.120278
-0.110248
-0.0976158
-0.0827653
-0.0661297
-0.0481503
-0.0292469
-0.00980736
0.0187873
0.055815
0.0912523
0.1242
0.153972
0.180128
0.202469
0.221002
0.235888
0.247388
0.255804
0.261453
0.264638
0.265644
0.264743
0.262199
0.258269
0.253202
0.247231
0.24056
0.233357
0.225743
0.217791
0.209527
0.200944
0.192004
0.182647
0.172799
0.162366
0.151242
0.139308
0.126433
0.112482
0.0973202
0.0808238
0.0628804
0.0433942
0.0222871
-0.000499527
-0.0250021
-0.0512282
-0.0791459
-0.108668
-0.139631
-0.171773
-0.204703
-0.237873
-0.270556
-0.301831
-0.330585
-0.355549
-0.375361
-0.388675
-0.394291
-0.391298
-0.379194
-0.357964
-0.328075
-0.290413
-0.246153
-0.196609
-0.143109
-0.0869049
-0.0291381
0.0311382
0.0924783
0.151099
0.205476
0.254461
0.297339
0.333812
0.363936
0.388025
0.406543
0.420021
0.428988
0.433945
0.435357
0.433664
0.429292
0.422664
0.414194
0.40427
0.393237
0.381375
0.368881
0.355872
0.342387
0.328404
0.313856
0.298643
0.28264
0.265695
0.247634
0.228259
0.207351
0.184684
0.160034
0.133194
0.103977
0.072226
0.0378122
0.000636891
-0.0393647
-0.082214
-0.127872
-0.176214
-0.226995
-0.279808
-0.334038
-0.388814
-0.44296
-0.494966
-0.54299
-0.5849
-0.618386
-0.641139
-0.651078
-0.646613
-0.626865
-0.591803
-0.542255
-0.479771
-0.40639
-0.324373
-0.235961
-0.143223
-0.0480088
0.0435971
0.129419
0.211265
0.286927
0.35478
0.413853
0.463801
0.504794
0.53736
0.562225
0.580174
0.591968
0.598299
0.599796
0.597049
0.590638
0.581144
0.56915
0.555208
0.539811
0.523355
0.506115
0.488243
0.46978
0.45068
0.430839
0.410113
0.388328
0.365277
0.340721
0.31438
0.285947
0.2551
0.221521
0.184917
0.145029
0.101639
0.0545684
0.00367855
-0.0511293
-0.109902
-0.172611
-0.239119
-0.309132
-0.382137
-0.45734
-0.53359
-0.609304
-0.68241
-0.750335
-0.810047
-0.858208
-0.891423
-0.906598
-0.901334
-0.874295
-0.825436
-0.756016
-0.668383
-0.565594
-0.450974
-0.327745
-0.198792
-0.0666101
0.0563798
0.16726
0.272709
0.369755
0.456265
0.531043
0.59377
0.644821
0.685036
0.715472
0.737218
0.751276
0.758522
0.759727
0.755607
0.746876
0.734275
0.71856
0.700465
0.680645
0.659621
0.637747
0.615199
0.592004
0.568078
0.543267
0.517379
0.490194
0.461457
0.430864
0.398057
0.362632
0.324164
0.282233
0.236456
0.186501
0.132093
0.0730076
0.00906543
-0.0598716
-0.133889
-0.212991
-0.297058
-0.385783
-0.4786
-0.574588
-0.672374
-0.770021
-0.864934
-0.953805
-1.03265
-1.09699
-1.14217
-1.16387
-1.15869
-1.12471
-1.06186
-0.971947
-0.858332
-0.725317
-0.577483
-0.419134
-0.253973
-0.0850552
0.069691
0.206589
0.336327
0.455054
0.560097
0.650079
0.724806
0.784992
0.831908
0.867042
0.891839
0.907557
0.915232
0.915743
0.909896
0.898521
0.882511
0.862813
0.840367
0.816016
0.790421
0.764012
0.736977
0.709306
0.680853
0.6514
0.620704
0.588504
0.554505
0.518346
0.479589
0.437725
0.392211
0.342515
0.288158
0.228736
0.163921
0.0934498
0.0171058
-0.0652933
-0.153885
-0.248733
-0.349767
-0.456716
-0.56901
-0.685668
-0.805169
-0.925292
-1.04297
-1.15417
-1.25392
-1.33642
-1.39554
-1.42544
-1.42144
-1.38086
-1.30359
-1.19215
-1.0512
-0.886626
-0.704542
-0.510466
-0.308916
-0.103384
0.0837349
0.247985
0.402986
0.543859
0.667353
0.771977
0.857803
0.926051
0.978588
1.01745
1.0445
1.06126
1.06888
1.0683
1.06036
1.04598
1.02621
1.00221
0.975158
0.946124
0.915931
0.885085
0.853766
0.821892
0.789224
0.755461
0.720305
0.683466
0.644625
0.603378
0.559199
0.511464
0.459493
0.402626
0.340278
0.271975
0.197348
0.116105
0.0279973
-0.0672023
-0.169699
-0.279639
-0.397043
-0.52172
-0.653157
-0.790388
-0.931827
-1.07506
-1.21664
-1.35184
-1.47462
-1.57774
-1.65328
-1.69349
-1.69205
-1.64522
-1.55282
-1.41832
-1.24812
-1.05014
-0.832387
-0.601756
-0.363562
-0.121566
0.0987232
0.292045
0.473563
0.637185
0.779046
0.897636
0.993484
1.06854
1.12547
1.16699
1.19547
1.21265
1.21977
1.21774
1.20736
1.18961
1.16568
1.13699
1.10501
1.0711
1.03627
1.00109
0.965715
0.929939
0.893387
0.855646
0.816364
0.775243
0.731969
0.686108
0.637049
0.584027
0.526201
0.462759
0.393
0.316383
0.232513
0.141089
0.0418428
-0.0654983
-0.181221
-0.305584
-0.438735
-0.580612
-0.730822
-0.888492
-1.05208
-1.21909
-1.3858
-1.54687
-1.69518
-1.82185
-1.91683
-1.96998
-1.97277
-1.92006
-1.81152
-1.65187
-1.44985
-1.21608
-0.960867
-0.692711
-0.417659
-0.139504
0.114882
0.339399
0.548967
0.736055
0.896145
1.02786
1.13243
1.21282
1.27273
1.31577
1.34482
1.36187
1.36812
1.36433
1.3512
1.32968
1.30115
1.26732
1.23005
1.19102
1.15149
1.11212
1.07295
1.0336
0.993519
0.952132
0.909035
0.863959
0.816638
0.766634
0.713246
0.655541
0.592477
0.523056
0.446449
0.362057
0.269482
0.168439
0.0586635
-0.0601616
-0.188418
-0.326506
-0.474743
-0.633244
-0.801791
-0.97969
-1.16555
-1.35696
-1.55005
-1.73902
-1.91567
-2.06931
-2.18734
-2.25664
-2.26576
-2.20758
-2.0815
-1.89395
-1.65682
-1.38424
-1.08945
-0.782738
-0.470763
-0.157035
0.132456
0.39073
0.630165
0.841518
1.0196
1.16336
1.27507
1.35906
1.42038
1.46369
1.4925
1.50893
1.51404
1.50829
1.49213
1.46646
1.43283
1.39334
1.35032
1.3059
1.26162
1.2182
1.17556
1.13304
1.0898
1.04509
0.998455
0.949704
0.898689
0.845008
0.787858
0.726095
0.658426
0.583623
0.500709
0.409043
0.308259
0.198126
0.0784086
-0.0512438
-0.191324
-0.342409
-0.505026
-0.67951
-0.865874
-1.06368
-1.27181
-1.48811
-1.70879
-1.92775
-2.13581
-2.32034
-2.46574
-2.5551
-2.57315
-2.51
-2.36453
-2.14549
-1.86906
-1.55403
-1.21724
-0.870954
-0.522256
-0.173939
0.151719
0.446783
0.718198
0.954675
1.15035
1.30479
1.42173
1.50729
1.56824
1.61052
1.63829
1.65375
1.65759
1.6498
1.63042
1.60021
1.56092
1.51516
1.46586
1.4157
1.36661
1.31936
1.27363
1.22839
1.18241
1.1347
1.08475
1.03254
0.978139
0.921238
0.860913
0.795749
0.72413
0.644541
0.555835
0.457347
0.348798
0.23006
0.100965
-0.038859
-0.190033
-0.353351
-0.529596
-0.719359
-0.922924
-1.14018
-1.37041
-1.61191
-1.86123
-2.11226
-2.35503
-2.57487
-2.75269
-2.86689
-2.89713
-2.82963
-2.66238
-2.40726
-2.0863
-1.72443
-1.34295
-0.956205
-0.571356
-0.189943
0.172973
0.508385
0.814195
1.07668
1.28932
1.45271
1.57259
1.65737
1.71594
1.75582
1.78187
1.79616
1.79879
1.78904
1.76633
1.73117
1.6856
1.63285
1.57663
1.52034
1.46638
1.41558
1.36725
1.31982
1.27156
1.22114
1.16803
1.11249
1.05496
0.995292
0.932411
0.864541
0.789656
0.70588
0.611857
0.506943
0.391009
0.264101
0.126163
-0.0231769
-0.184692
-0.359443
-0.54852
-0.752797
-0.972848
-1.20894
-1.46089
-1.72764
-2.00642
-2.29149
-2.57241
-2.83248
-3.04861
-3.19343
-3.24
-3.16901
-2.97694
-2.67985
-2.30787
-1.89402
-1.46495
-1.03708
-0.617148
-0.204731
0.196558
0.576449
0.919392
1.20877
1.43745
1.60762
1.7277
1.80898
1.86297
1.89905
1.92281
1.93595
1.93765
1.92619
1.90015
1.85963
1.80704
1.74647
1.68257
1.61968
1.56082
1.50683
1.4565
1.40751
1.35748
1.30463
1.24842
1.18956
1.12908
1.0671
1.00233
0.932494
0.855067
0.767706
0.668799
0.557778
0.43477
0.300066
0.153785
-0.00441512
-0.17549
-0.360839
-0.561915
-0.779895
-1.01563
-1.26979
-1.54284
-1.83459
-2.14331
-2.46417
-2.78673
-3.09241
-3.35363
-3.53607
-3.60423
-3.53099
-3.31021
-2.96367
-2.5327
-2.0609
-1.58124
-1.11198
-0.658613
-0.217959
0.222853
0.651988
1.03514
1.35224
1.59566
1.76991
1.887
1.96168
2.00862
2.03949
2.06058
2.07285
2.07415
2.06147
2.0322
1.98588
1.92543
1.85607
1.78359
1.71354
1.64974
1.59305
1.54147
1.49166
1.44043
1.38543
1.32605
1.26372
1.20039
1.13656
1.07061
0.999625
0.920428
0.830093
0.726677
0.60978
0.479924
0.337731
0.183571
0.0171673
-0.162654
-0.357725
-0.569944
-0.800788
-1.05133
-1.32263
-1.61592
-1.93207
-2.27078
-2.62881
-2.99646
-3.35355
-3.6676
-3.89605
-3.99252
-3.91886
-3.66448
-3.25897
-2.75924
-2.2227
-1.6895
-1.17909
-0.694672
-0.229271
0.252285
0.736116
1.1629
1.50848
1.76483
1.93989
2.05031
2.11487
2.15206
2.17633
2.19461
2.20661
2.20829
2.19512
2.1629
2.11025
2.04095
1.96167
1.87957
1.80168
1.73294
1.67417
1.62226
1.5725
1.52073
1.46383
1.40104
1.33489
1.26872
1.20354
1.13721
1.06594
0.985813
0.893136
0.785512
0.662861
0.526295
0.376846
0.215221
0.0412761
-0.146435
-0.350313
-0.572806
-0.815672
-1.0801
-1.36748
-1.67989
-2.01945
-2.38767
-2.78377
-3.19975
-3.61439
-3.98997
-4.2744
-4.40783
-4.33649
-4.04234
-3.56571
-2.98539
-2.37656
-1.78714
-1.23656
-0.724237
-0.238315
0.285337
0.830058
1.30427
1.679
1.94582
2.11771
2.21732
2.26784
2.29229
2.30859
2.32426
2.33696
2.34008
2.32742
2.2927
2.23313
2.15377
2.06333
1.97036
1.88379
1.81014
1.75013
1.69902
1.65028
1.59874
1.5402
1.47354
1.40295
1.33382
1.26785
1.20208
1.13146
1.05131
0.956957
0.845328
0.716911
0.573685
0.417129
0.2484
0.0675863
-0.127103
-0.338823
-0.570725
-0.824807
-1.10218
-1.40446
-1.73463
-2.09623
-2.49287
-2.92725
-3.39446
-3.87306
-4.3198
-4.67193
-4.85341
-4.78856
-4.44682
-3.88355
-3.2084
-2.51911
-1.87132
-1.28246
-0.746268
-0.244767
0.322557
0.935141
1.46097
1.8654
2.13942
2.3034
2.38763
2.41975
2.42815
2.4352
2.44888
2.46368
2.46952
2.45871
2.4222
2.35491
2.26405
2.16108
2.05578
1.95952
1.88102
1.82085
1.7719
1.72527
1.67484
1.61498
1.54373
1.46772
1.3954
1.32931
1.26515
1.19617
1.11701
1.02173
0.90616
0.771801
0.621887
0.458283
0.282743
0.0957467
-0.104933
-0.323471
-0.563939
-0.828505
-1.11791
-1.43378
-1.78019
-2.16208
-2.5853
-3.05736
-3.5782
-4.12731
-4.65567
-5.08896
-5.33276
-5.28073
-4.88151
-4.21169
-3.4247
-2.64645
-1.93907
-1.31496
-0.759834
-0.24835
0.364585
1.05278
1.63483
2.06944
2.34631
2.49673
2.56081
2.5697
2.55833
2.55496
2.56783
2.58663
2.59659
2.58934
2.55213
2.47602
2.3719
2.25502
2.13569
2.02843
1.94517
1.88625
1.84114
1.79772
1.74949
1.68875
1.61179
1.52892
1.45305
1.38771
1.32641
1.26007
1.18302
1.08767
0.968049
0.827368
0.670689
0.499999
0.31785
0.125382
-0.0802005
-0.304453
-0.552685
-0.827128
-1.12773
-1.45578
-1.81674
-2.21688
-2.66403
-3.17213
-3.74831
-4.37454
-4.99565
-5.52523
-5.84964
-5.82003
-5.35071
-4.54865
-3.62983
-2.7542
-1.9874
-1.33241
-0.764178
-0.248854
0.412186
1.18448
1.82774
2.29307
2.56703
2.69721
2.73639
2.71676
2.68137
2.66654
2.6805
2.7058
2.72122
2.71966
2.6834
2.5969
2.47734
2.34529
2.20992
2.08998
2.00211
1.94629
1.90705
1.86787
1.82313
1.76222
1.67794
1.58619
1.50628
1.44282
1.38592
1.32311
1.24946
1.15513
1.03104
0.883399
0.71989
0.541963
0.353288
0.156093
-0.0531737
-0.281931
-0.537183
-0.821083
-1.13215
-1.47087
-1.84461
-2.26079
-2.7283
-3.26957
-3.90193
-4.61189
-5.3373
-5.97953
-6.40794
-6.41526
-5.85955
-4.89199
-3.81816
-2.83757
-2.01339
-1.3334
-0.758765
-0.246152
0.466317
1.33176
2.04164
2.53857
2.80186
2.90397
2.91402
2.85999
2.79563
2.76848
2.78636
2.82139
2.84319
2.85003
2.81724
2.71795
2.58024
2.43216
2.27835
2.14354
2.05127
2.00096
1.97007
1.93588
1.89623
1.83635
1.74243
1.639
1.55445
1.49444
1.4438
1.38518
1.31641
1.22456
1.09517
0.939604
0.769326
0.583871
0.388585
0.187457
-0.0241058
-0.256013
-0.517622
-0.81081
-1.1318
-1.4795
-1.86424
-2.29428
-2.77756
-3.34768
-4.036
-4.83631
-5.67777
-6.44931
-7.01145
-7.07756
-6.41424
-5.23789
-3.98285
-2.89143
-2.01441
-1.31693
-0.743335
-0.240211
0.528244
1.49611
2.27839
2.80866
3.0508
3.11562
3.09356
2.99853
2.89926
2.85915
2.88501
2.93393
2.96209
2.98068
2.95528
2.83952
2.6802
2.51609
2.34091
2.18833
2.09193
2.05031
2.03083
2.00174
1.96919
1.91238
1.80554
1.68664
1.59682
1.54238
1.50035
1.44608
1.38393
1.29663
1.16046
0.995577
0.818896
0.625432
0.423223
0.219028
0.00676731
-0.226736
-0.494142
-0.796782
-1.12743
-1.48216
-1.87616
-2.31826
-2.81154
-3.40451
-4.14727
-5.04469
-6.01392
-6.93021
-7.66357
-7.82119
-7.02224
-5.58057
-4.11558
-2.91051
-1.98823
-1.28244
-0.717925
-0.231097
0.599716
1.67895
2.53962
3.10678
3.31337
3.33002
3.27534
3.13158
2.99018
2.93674
2.97614
3.04441
3.07712
3.11169
3.09977
2.9618
2.77645
2.59788
2.39761
2.22339
2.12323
2.09443
2.09026
2.06519
2.04231
1.99201
1.86756
1.72818
1.63243
1.58651
1.55612
1.50541
1.45198
1.3723
1.22687
1.05074
0.86862
0.666387
0.456621
0.250334
0.0392277
-0.194053
-0.466818
-0.779494
-1.11993
-1.47927
-1.88091
-2.33411
-2.83025
-3.43814
-4.23229
-5.23403
-6.3427
-7.41537
-8.36677
-8.66457
-7.69252
-5.91148
-4.20658
-2.88966
-1.93326
-1.22993
-0.682885
-0.218977
0.683262
1.88143
2.82655
3.43745
3.58847
3.54406
3.46044
3.25852
3.06601
2.99919
3.05964
3.15455
3.18688
3.24285
3.25388
3.08472
2.86763
2.67884
2.44853
2.24755
2.14415
2.13351
2.14974
2.1256
2.11571
2.07753
1.92875
1.76239
1.6602
1.62675
1.61203
1.56249
1.52037
1.45298
1.29426
1.10424
0.918714
0.706503
0.48812
0.280881
0.0730725
-0.157806
-0.435641
-0.759453
-1.11036
-1.47116
-1.87894
-2.34384
-2.83402
-3.44674
-4.28734
-5.40158
-6.66165
-7.89464
-9.12187
-9.63163
-8.43578
-6.21829
-4.24454
-2.82413
-1.8487
-1.15996
-0.638865
-0.204106
0.782619
2.10431
3.13957
3.80683
3.87414
3.75327
3.65112
3.37883
3.12397
3.04419
3.13551
3.26712
3.2891
3.37347
3.42208
3.2078
2.95154
2.76106
2.49384
2.25937
2.15342
2.16777
2.21129
2.18171
2.18917
2.1721
1.98931
1.78768
1.6788
1.66306
1.66951
1.61622
1.58869
1.54069
1.36233
1.15488
0.969705
0.745579
0.516954
0.310158
0.108105
-0.117715
-0.400512
-0.737156
-1.10007
-1.45798
-1.87045
-2.35022
-2.82345
-3.42863
-4.30835
-5.54493
-6.96977
-8.35362
-9.9269
-10.7536
-9.26466
-6.4835
-4.21687
-2.71002
-1.73469
-1.07367
-0.586788
-0.186817
0.90338
2.34773
3.47781
4.22349
4.16721
3.95136
3.85145
3.49202
3.1609
3.06914
3.20379
3.38634
3.38025
3.50216
3.61072
3.32994
3.02483
2.84779
2.5337
2.25709
2.14957
2.19746
2.27787
2.23146
2.262
2.28006
2.0492
1.80207
1.68673
1.69544
1.73081
1.66488
1.65619
1.63835
1.43049
1.20096
1.02259
0.783422
0.542219
0.337655
0.144118
-0.0733519
-0.361226
-0.713057
-1.09075
-1.4396
-1.85521
-2.35701
-2.79939
-3.38227
-4.29071
-5.66211
-7.26876
-8.7725
-10.7757
-12.0713
-10.1939
-6.68271
-4.11007
-2.54471
-1.59243
-0.972731
-0.527801
-0.1675
1.0539
2.61088
3.83843
4.69947
4.46289
4.12958
4.06811
3.59753
3.17306
3.0711
3.26446
3.5186
3.45504
3.6265
3.82875
3.44909
3.08253
2.94397
2.5682
2.23855
2.13086
2.22269
2.3538
2.27158
2.33286
2.40736
2.10805
1.80308
1.68233
1.72383
1.79921
1.70587
1.72162
1.7501
1.49776
1.24008
1.07903
0.819806
0.562838
0.362884
0.180871
-0.0241217
-0.317474
-0.687511
-1.08463
-1.41557
-1.83231
-2.36926
-2.7628
-3.30647
-4.22907
-5.75141
-7.56463
-9.12477
-11.6557
-13.6382
-11.2405
-6.78246
-3.91055
-2.32735
-1.42423
-0.859314
-0.463212
-0.146583
1.24652
2.89164
4.21568
5.25167
4.7542
4.27597
4.31148
3.69436
3.15618
3.04687
3.31711
3.67316
3.50579
3.74269
4.08871
3.56188
3.11755
3.05692
2.59711
2.2012
2.09533
2.24335
2.44527
2.29727
2.39946
2.56214
2.16483
1.78776
1.66378
1.74798
1.87954
1.73542
1.78306
1.8818
1.56256
1.26895
1.14169
0.854398
0.577515
0.385424
0.218049
0.0307686
-0.268853
-0.660688
-1.08464
-1.385
-1.79978
-2.39364
-2.71454
-3.20048
-4.11711
-5.8111
-7.86992
-9.3758
-12.5458
-15.5239
-12.4234
-6.73762
-3.60582
-2.05936
-1.23349
-0.735932
-0.394422
-0.124506
1.49927
3.18607
4.59971
5.9037
5.0312
4.37443
4.59697
3.78058
3.10537
2.99301
3.36051
3.86329
3.52164
3.84498
4.40787
3.66307
3.12001
3.19719
2.61958
2.14204
2.04082
2.25875
2.56102
2.3016
2.45824
2.75544
2.21748
1.75266
1.6292
1.76725
1.97864
1.74817
1.83769
2.04153
1.62244
1.2831
1.21455
0.886632
0.584695
0.404983
0.255211
0.0923428
-0.214902
-0.632441
-1.09463
-1.34652
-1.7542
-2.43904
-2.65505
-3.06431
-3.94719
-5.83867
-8.20657
-9.4813
-13.4124
-17.8185
-13.7637
-6.48825
-3.18625
-1.74484
-1.02455
-0.60533
-0.322852
-0.101705
1.83793
3.4878
4.97504
6.68812
5.28014
4.40359
4.9468
3.85261
3.01517
2.90603
3.39203
4.10754
3.48766
3.9251
4.80976
3.74494
3.07652
3.37975
2.63368
2.05764
1.9651
2.26724
2.71324
2.27498
2.50407
3.00202
2.26242
1.69385
1.5768
1.78024
2.10607
1.73669
1.88146
2.24031
1.6738
1.27661
1.30339
0.915529
0.582523
0.421474
0.291718
0.161901
-0.155153
-0.602126
-1.11973
-1.2982
-1.69012
-2.5171
-2.58388
-2.89907
-3.71013
-5.82981
-8.60931
-9.3858
-14.206
-20.6384
-15.2834
-5.95602
-2.64747
-1.39076
-0.802489
-0.470329
-0.249879
-0.0785897
2.29874
3.78727
5.31867
7.64922
5.48225
4.3355
5.39204
3.90415
2.8797
2.78263
3.40667
4.43141
3.38371
3.9715
5.3259
3.79647
2.96924
3.62525
2.63567
1.94424
1.866
2.26562
2.91857
2.20439
2.52971
3.32148
2.29383
1.60708
1.50503
1.78439
2.27491
1.69094
1.90882
2.49295
1.71143
1.24172
1.41637
0.939444
0.568816
0.43513
0.326635
0.241079
-0.0892277
-0.568358
-1.16665
-1.23757
-1.59942
-2.64315
-2.49902
-2.70754
-3.39497
-5.77673
-9.12985
-9.02107
-14.8559
-24.1317
-17.0052
-5.04014
-1.99353
-1.00697
-0.572824
-0.33368
-0.176774
-0.0555321
2.93156
4.07094
5.59782
8.84633
5.61245
4.13418
5.97514
3.92482
2.69284
2.62006
3.39593
4.86927
3.18323
3.96851
5.99779
3.80237
2.77498
3.96176
2.61914
1.79788
1.74169
2.24841
3.19943
2.07261
2.52539
3.73944
2.30279
1.48796
1.41281
1.77528
2.50279
1.59759
1.91233
2.81893
1.72811
1.1685
1.56468
0.955726
0.541055
0.446634
0.35861
0.331931
-0.0169773
-0.528695
-1.24413
-1.16159
-1.47054
-2.83713
-2.39607
-2.49477
-2.98883
-5.66591
-9.84163
-8.30484
-15.2646
-28.4864
-18.9509
-3.61295
-1.24084
-0.605816
-0.341147
-0.197924
-0.104661
-0.032854
3.80373
4.32021
5.76737
10.3575
5.63768
3.75405
6.75276
3.89838
2.44865
2.41665
3.34626
5.46663
2.85188
3.89538
6.87919
3.74205
2.46407
4.42655
2.57387
1.61468
1.59098
2.20682
3.58547
1.85728
2.47821
4.28898
2.27619
1.33223
1.29987
1.74593
2.81298
1.43932
1.88218
3.24353
1.71396
1.04442
1.76331
0.960289
0.496392
0.457275
0.385722
0.437034
0.0613287
-0.479242
-1.36332
-1.06679
-1.2875
-3.12482
-2.26711
-2.26896
-2.47704
-5.47519
-10.8452
-7.13956
-15.3013
-33.9371
-21.1395
-1.51517
-0.422857
-0.201268
-0.112737
-0.0652797
-0.0344897
-0.0108228
)
;

boundaryField
{
    left
    {
        type            calculated;
        value           uniform 0;
    }
    right
    {
        type            calculated;
        value           uniform 0;
    }
    interface
    {
        type            calculated;
        value           nonuniform List<scalar> 
64
(
3.80373
4.32021
5.76737
10.3575
5.63768
3.75405
6.75276
3.89838
2.44865
2.41665
3.34626
5.46663
2.85188
3.89538
6.87919
3.74205
2.46407
4.42655
2.57387
1.61468
1.59098
2.20682
3.58547
1.85728
2.47821
4.28898
2.27619
1.33223
1.29987
1.74593
2.81298
1.43932
1.88218
3.24353
1.71396
1.04442
1.76331
0.960289
0.496392
0.457275
0.385722
0.437034
0.0613287
-0.479242
-1.36332
-1.06679
-1.2875
-3.12482
-2.26711
-2.26896
-2.47704
-5.47519
-10.8452
-7.13956
-15.3013
-33.9371
-21.1395
-1.51517
-0.422857
-0.201268
-0.112737
-0.0652797
-0.0344897
-0.0108228
)
;
    }
    bottom
    {
        type            calculated;
        value           nonuniform List<scalar> 
64
(
0.00630455
0.0187333
0.0306372
0.0417181
0.0517473
0.0605753
0.0681318
0.0744146
0.0794734
0.0833911
0.0862674
0.0882068
0.0893111
0.0896772
0.0893976
0.0885613
0.0872553
0.085563
0.0835622
0.0813214
0.0788964
0.0763278
0.0736405
0.0708446
0.0679379
0.0649083
0.0617361
0.058396
0.0548568
0.0510829
0.0470338
0.042666
0.0379342
0.032794
0.0272033
0.0211247
0.0145258
0.00738058
-0.000330591
-0.00861937
-0.0174873
-0.0269221
-0.0368923
-0.0473405
-0.0581753
-0.0692617
-0.0804128
-0.0913813
-0.101856
-0.111464
-0.119782
-0.12636
-0.130754
-0.13257
-0.131512
-0.127417
-0.120278
-0.110248
-0.0976158
-0.0827653
-0.0661297
-0.0481503
-0.0292469
-0.00980736
)
;
    }
    defaultFaces
    {
        type            empty;
    }
}


// ************************************************************************* //
