/*--------------------------------*- C++ -*----------------------------------*\
| =========                 |                                                 |
| \\      /  F ield         | OpenFOAM: The Open Source CFD Toolbox           |
|  \\    /   O peration     | Version:  5.x                                   |
|   \\  /    A nd           | Web:      www.OpenFOAM.org                      |
|    \\/     M anipulation  |                                                 |
\*---------------------------------------------------------------------------*/
FoamFile
{
    version     2.0;
    format      ascii;
    class       volScalarField;
    location    "5";
    object      gradTy;
}
// * * * * * * * * * * * * * * * * * * * * * * * * * * * * * * * * * * * * * //

dimensions      [0 -1 0 1 0 0 0];

internalField   nonuniform List<scalar> 
2048
(
-26.4235
-26.396
-26.3416
-26.2619
-26.1591
-26.0357
-25.8945
-25.7382
-25.5697
-25.3915
-25.206
-25.0154
-24.8215
-24.6262
-24.4309
-24.2368
-24.0452
-23.8569
-23.6727
-23.4932
-23.3188
-23.1499
-22.9867
-22.8295
-22.6785
-22.5339
-22.396
-22.2652
-22.1418
-22.0264
-21.9194
-21.8215
-21.7334
-21.6561
-21.5904
-21.5373
-21.498
-21.4736
-21.4654
-21.4745
-21.5023
-21.5501
-21.619
-21.7101
-21.8245
-21.9629
-22.1257
-22.3129
-22.5237
-22.7567
-23.0097
-23.2794
-23.5614
-23.8505
-24.1407
-24.4253
-24.6977
-24.9512
-25.1796
-25.3778
-25.5413
-25.6667
-25.7516
-25.7944
-26.4459
-26.4176
-26.362
-26.2807
-26.1758
-26.0502
-25.9066
-25.7481
-25.5775
-25.3974
-25.2101
-25.018
-24.8228
-24.6262
-24.4298
-24.2349
-24.0425
-23.8536
-23.669
-23.4891
-23.3144
-23.1453
-22.9819
-22.8245
-22.6733
-22.5284
-22.3903
-22.2592
-22.1354
-22.0195
-21.912
-21.8135
-21.7248
-21.6467
-21.5801
-21.5262
-21.4859
-21.4606
-21.4513
-21.4594
-21.4862
-21.533
-21.6009
-21.6913
-21.8051
-21.9432
-22.106
-22.2937
-22.5057
-22.7406
-22.9962
-23.2694
-23.5556
-23.8496
-24.1451
-24.4353
-24.713
-24.9714
-25.2041
-25.4059
-25.5721
-25.6995
-25.7856
-25.829
-26.4886
-26.4591
-26.401
-26.3163
-26.2075
-26.0775
-25.9296
-25.7668
-25.5922
-25.4084
-25.2179
-25.0227
-24.8249
-24.6261
-24.4277
-24.2311
-24.0373
-23.8473
-23.6617
-23.4812
-23.306
-23.1365
-22.9728
-22.815
-22.6634
-22.5182
-22.3795
-22.2478
-22.1233
-22.0066
-21.8981
-21.7985
-21.7085
-21.6289
-21.5608
-21.5052
-21.4631
-21.4359
-21.4247
-21.4309
-21.4557
-21.5005
-21.5667
-21.6556
-21.7682
-21.9056
-22.0684
-22.2571
-22.4711
-22.7095
-22.9701
-23.2499
-23.5442
-23.8477
-24.1534
-24.4542
-24.7422
-25.0101
-25.2511
-25.4595
-25.6309
-25.762
-25.8505
-25.895
-26.5498
-26.5184
-26.4568
-26.3671
-26.2525
-26.1162
-25.9618
-25.7929
-25.6125
-25.4236
-25.2284
-25.0292
-24.8277
-24.6257
-24.4245
-24.2255
-24.0297
-23.8381
-23.6513
-23.4699
-23.2941
-23.124
-22.9599
-22.8017
-22.6496
-22.5038
-22.3645
-22.2319
-22.1064
-21.9885
-21.8787
-21.7775
-21.6856
-21.604
-21.5337
-21.4756
-21.431
-21.4011
-21.3872
-21.3906
-21.4126
-21.4548
-21.5184
-21.6049
-21.7157
-21.852
-22.0147
-22.2044
-22.4212
-22.6644
-22.932
-23.2211
-23.5272
-23.8442
-24.1649
-24.4811
-24.7841
-25.0657
-25.3185
-25.5365
-25.7151
-25.8512
-25.9429
-25.989
-26.6282
-26.5943
-26.5278
-26.4316
-26.3091
-26.1645
-26.0019
-25.825
-25.6375
-25.442
-25.2411
-25.0368
-24.8308
-24.6247
-24.42
-24.218
-24.0198
-23.8263
-23.638
-23.4556
-23.279
-23.1084
-22.9438
-22.7851
-22.6324
-22.4859
-22.3457
-22.2122
-22.0855
-21.9662
-21.8546
-21.7514
-21.6573
-21.5731
-21.4999
-21.4389
-21.3911
-21.3578
-21.3404
-21.3403
-21.3588
-21.3974
-21.4576
-21.5411
-21.6494
-21.784
-21.9461
-22.137
-22.3569
-22.6057
-22.882
-23.1829
-23.5039
-23.8385
-24.1787
-24.5151
-24.8377
-25.137
-25.405
-25.635
-25.8225
-25.9647
-26.0601
-26.1079
-26.7228
-26.6856
-26.613
-26.5083
-26.3761
-26.2212
-26.0484
-25.862
-25.6659
-25.4628
-25.2553
-25.045
-24.8338
-24.6231
-24.4143
-24.2087
-24.0076
-23.8119
-23.622
-23.4384
-23.2612
-23.09
-22.925
-22.7658
-22.6125
-22.4652
-22.324
-22.1893
-22.0613
-21.9403
-21.8268
-21.7212
-21.6244
-21.5372
-21.4607
-21.396
-21.3444
-21.3072
-21.2857
-21.2814
-21.2956
-21.33
-21.3861
-21.4658
-21.5708
-21.703
-21.864
-22.0556
-22.2787
-22.5338
-22.8199
-23.1348
-23.4738
-23.83
-24.1942
-24.5556
-24.9023
-25.2235
-25.5095
-25.7537
-25.9513
-26.1003
-26.1997
-26.2493
-26.8329
-26.7916
-26.7113
-26.5963
-26.4522
-26.2848
-26.1
-25.9026
-25.6967
-25.4852
-25.2702
-25.0534
-24.8364
-24.6204
-24.407
-24.1975
-23.9932
-23.7949
-23.6034
-23.4187
-23.2408
-23.0693
-22.9038
-22.7441
-22.5902
-22.442
-22.2998
-22.1639
-22.0344
-21.9116
-21.7959
-21.6877
-21.5879
-21.4972
-21.4169
-21.3481
-21.2922
-21.2505
-21.2244
-21.2152
-21.2245
-21.2539
-21.3052
-21.3803
-21.4812
-21.6102
-21.7695
-21.9611
-22.1871
-22.4485
-22.7455
-23.0761
-23.4359
-23.8176
-24.2106
-24.6019
-24.9777
-25.3246
-25.6317
-25.8917
-26.1003
-26.2562
-26.3595
-26.4108
-26.9582
-26.9118
-26.8221
-26.6946
-26.5361
-26.3542
-26.1554
-25.9456
-25.7289
-25.5082
-25.2853
-25.0616
-24.8383
-24.6167
-24.3982
-24.1843
-23.9764
-23.7755
-23.5823
-23.3966
-23.2182
-23.0465
-22.8808
-22.7207
-22.5661
-22.417
-22.2737
-22.1365
-22.0054
-21.8807
-21.7627
-21.6517
-21.5485
-21.4539
-21.3694
-21.296
-21.2353
-21.1887
-21.1574
-21.143
-21.1468
-21.1707
-21.2164
-21.286
-21.382
-21.5069
-21.6633
-21.8542
-22.0823
-22.3499
-22.658
-23.0058
-23.3892
-23.8003
-24.227
-24.6539
-25.0637
-25.4405
-25.7714
-26.0484
-26.2683
-26.4307
-26.5374
-26.5901
-27.0984
-27.0459
-26.9448
-26.8022
-26.6268
-26.4279
-26.2134
-25.9898
-25.7615
-25.5312
-25.3001
-25.0693
-24.8394
-24.6117
-24.3877
-24.169
-23.9572
-23.7536
-23.5587
-23.3723
-23.1937
-23.022
-22.8563
-22.6959
-22.5406
-22.3905
-22.2461
-22.1075
-21.9749
-21.8483
-21.7278
-21.6138
-21.5069
-21.4082
-21.3189
-21.2406
-21.1748
-21.1228
-21.086
-21.0658
-21.0637
-21.0814
-21.1208
-21.1843
-21.2744
-21.3941
-21.5466
-21.7355
-21.9647
-22.2377
-22.5569
-22.9229
-23.3323
-23.7768
-24.2427
-24.711
-25.1606
-25.5715
-25.9286
-26.2236
-26.4542
-26.6223
-26.7314
-26.7849
-27.2538
-27.1938
-27.0789
-26.9183
-26.7231
-26.5046
-26.2725
-26.034
-25.7936
-25.5534
-25.3143
-25.0762
-24.8397
-24.6056
-24.3755
-24.1515
-23.9356
-23.7292
-23.5327
-23.3459
-23.1675
-22.9962
-22.8307
-22.67
-22.514
-22.363
-22.2173
-22.0773
-21.9432
-21.8148
-21.6918
-21.5747
-21.4639
-21.3606
-21.2663
-21.1826
-21.1113
-21.0536
-21.011
-20.9847
-20.9762
-20.9872
-21.0197
-21.0762
-21.1595
-21.2729
-21.4202
-21.6058
-21.8346
-22.1116
-22.4414
-22.8261
-23.2637
-23.7459
-24.2567
-24.7733
-25.2689
-25.7185
-26.1041
-26.4171
-26.6573
-26.8293
-26.9393
-26.9928
-27.4244
-27.3554
-27.2241
-27.0421
-26.8238
-26.5831
-26.3315
-26.077
-25.8241
-25.5743
-25.3274
-25.0823
-24.839
-24.5981
-24.3616
-24.1319
-23.9115
-23.7021
-23.5043
-23.3175
-23.1398
-22.9694
-22.8044
-22.6436
-22.4868
-22.3346
-22.1876
-22.0463
-21.9108
-21.7807
-21.6553
-21.5349
-21.4199
-21.3117
-21.212
-21.1226
-21.0454
-20.9818
-20.9332
-20.9005
-20.8853
-20.8891
-20.9141
-20.9629
-21.0385
-21.1445
-21.2852
-21.4658
-21.6923
-21.9716
-22.3107
-22.7141
-23.1818
-23.7057
-24.2679
-24.8405
-25.3894
-25.8826
-26.2986
-26.6291
-26.8768
-27.0502
-27.1591
-27.2115
-27.6109
-27.531
-27.38
-27.1729
-26.9277
-26.6619
-26.3889
-26.1176
-25.8523
-25.5934
-25.3392
-25.0875
-24.8375
-24.5896
-24.346
-24.11
-23.8847
-23.6724
-23.4735
-23.2872
-23.111
-22.942
-22.7777
-22.6169
-22.4593
-22.3057
-22.1572
-22.0147
-21.8781
-21.7464
-21.6188
-21.495
-21.3756
-21.2621
-21.1565
-21.0612
-20.9779
-20.9082
-20.8533
-20.8142
-20.7919
-20.7881
-20.8051
-20.8454
-20.9125
-21.01
-21.1427
-21.3163
-21.5383
-21.8176
-22.1639
-22.5853
-23.0844
-23.6544
-24.2752
-24.9128
-25.5234
-26.0657
-26.5134
-26.8597
-27.1117
-27.2833
-27.3885
-27.4383
-27.8138
-27.7209
-27.5464
-27.3096
-27.0335
-26.7395
-26.4433
-26.1545
-25.8772
-25.6103
-25.3498
-25.0921
-24.8353
-24.58
-24.3287
-24.0857
-23.8551
-23.6397
-23.4402
-23.255
-23.0811
-22.9143
-22.7512
-22.5904
-22.4318
-22.2765
-22.1264
-21.9827
-21.8452
-21.7124
-21.5826
-21.4554
-21.3314
-21.2122
-21.1004
-20.9986
-20.9091
-20.8332
-20.7721
-20.7263
-20.6969
-20.6852
-20.6935
-20.7248
-20.7825
-20.8705
-20.9936
-21.1584
-21.3734
-21.6497
-22.0005
-22.4382
-22.9696
-23.5897
-24.277
-24.9903
-25.6727
-26.2698
-26.7502
-27.1093
-27.3612
-27.5266
-27.625
-27.6706
-28.0341
-27.9256
-27.7232
-27.4515
-27.1397
-26.8143
-26.4932
-26.1867
-25.8982
-25.6245
-25.3591
-25.0961
-24.8329
-24.5698
-24.3099
-24.0589
-23.8226
-23.6041
-23.4042
-23.2212
-23.0505
-22.8867
-22.7253
-22.5645
-22.4045
-22.2471
-22.095
-21.9504
-21.8125
-21.6789
-21.5473
-21.4167
-21.2878
-21.1624
-21.0438
-20.9354
-20.8394
-20.7573
-20.69
-20.6377
-20.601
-20.5811
-20.5804
-20.602
-20.6497
-20.7271
-20.8393
-20.9933
-21.1984
-21.4681
-21.8196
-22.271
-22.8347
-23.509
-24.2715
-25.073
-25.8394
-26.4979
-27.0107
-27.3783
-27.6243
-27.7783
-27.8662
-27.9056
-28.2727
-28.1455
-27.9101
-27.5975
-27.2449
-26.8848
-26.5371
-26.2128
-25.9145
-25.636
-25.3674
-25.1
-24.8304
-24.5592
-24.2896
-24.0295
-23.7868
-23.5652
-23.3655
-23.1856
-23.0195
-22.8597
-22.7002
-22.5394
-22.3778
-22.2176
-22.0631
-21.9177
-21.7801
-21.6465
-21.5132
-21.3792
-21.2451
-21.113
-20.9871
-20.8717
-20.7691
-20.6809
-20.6076
-20.549
-20.505
-20.4766
-20.4663
-20.4779
-20.5149
-20.581
-20.681
-20.8221
-21.0144
-21.2732
-21.6208
-22.0823
-22.6773
-23.4091
-24.2562
-25.1613
-26.0265
-26.7536
-27.2973
-27.6669
-27.8996
-28.0361
-28.1093
-28.1407
-28.5309
-28.3812
-28.1071
-27.7466
-27.3472
-26.9493
-26.5737
-26.2317
-25.9254
-25.6447
-25.3751
-25.1042
-24.8285
-24.5487
-24.268
-23.9972
-23.7477
-23.5229
-23.3238
-23.1483
-22.9884
-22.8337
-22.6767
-22.5156
-22.3519
-22.188
-22.0305
-21.8846
-21.7482
-21.6153
-21.4808
-21.3433
-21.2039
-21.0643
-20.9303
-20.8077
-20.6986
-20.6043
-20.5254
-20.4607
-20.4094
-20.3723
-20.3521
-20.3532
-20.3792
-20.4333
-20.5198
-20.6462
-20.8226
-21.0659
-21.4039
-21.8703
-22.4945
-23.2864
-24.2279
-25.2551
-26.238
-27.0413
-27.6124
-27.9753
-28.1856
-28.2977
-28.3518
-28.373
-28.8101
-28.6336
-28.3141
-27.8975
-27.4449
-27.0061
-26.6015
-26.2421
-25.9303
-25.6506
-25.3826
-25.1092
-24.8276
-24.5388
-24.2451
-23.9618
-23.7049
-23.4768
-23.2788
-23.1094
-22.9574
-22.8094
-22.655
-22.4935
-22.3272
-22.1583
-21.9968
-21.8509
-21.7168
-21.5859
-21.4504
-21.3095
-21.1644
-21.0165
-20.8736
-20.7435
-20.6279
-20.5278
-20.4436
-20.3733
-20.315
-20.2688
-20.2384
-20.2285
-20.2433
-20.285
-20.3571
-20.4672
-20.6248
-20.8472
-21.1687
-21.6335
-22.2837
-23.1368
-24.1825
-25.3544
-26.4789
-27.3664
-27.9585
-28.3031
-28.4804
-28.5603
-28.5908
-28.5997
-29.1118
-28.9031
-28.5312
-28.0491
-27.5355
-27.0538
-26.6192
-26.2426
-25.9286
-25.654
-25.3909
-25.1156
-24.828
-24.5304
-24.2211
-23.9228
-23.6583
-23.4269
-23.2301
-23.0687
-22.927
-22.7874
-22.6356
-22.4733
-22.304
-22.1284
-21.9616
-21.8164
-21.6862
-21.5587
-21.4224
-21.278
-21.1272
-20.9699
-20.8169
-20.6794
-20.5573
-20.4514
-20.3627
-20.2873
-20.2223
-20.1668
-20.1255
-20.1044
-20.108
-20.1372
-20.1939
-20.2866
-20.4229
-20.6184
-20.9155
-21.3705
-22.042
-22.9559
-24.1142
-25.4587
-26.7558
-27.7354
-28.3384
-28.6497
-28.7816
-28.8214
-28.8236
-28.8184
-29.4381
-29.1903
-28.7587
-28.1997
-27.6165
-27.091
-26.6257
-26.2318
-25.9199
-25.6551
-25.4011
-25.124
-24.8303
-24.5244
-24.1962
-23.8794
-23.6078
-23.3729
-23.1772
-23.0262
-22.8976
-22.7686
-22.6189
-22.4552
-22.283
-22.0983
-21.924
-21.7807
-21.6565
-21.5343
-21.3971
-21.2489
-21.0929
-20.9244
-20.7598
-20.6152
-20.4869
-20.3753
-20.2829
-20.2033
-20.1319
-20.0667
-20.0139
-19.9812
-19.9739
-19.9909
-20.0313
-20.1059
-20.219
-20.3812
-20.6449
-21.0799
-21.7673
-22.7389
-24.0156
-25.567
-27.0777
-28.1562
-28.7542
-29.0135
-29.0864
-29.0778
-29.0478
-29.0266
-29.7909
-29.4952
-28.9973
-28.3478
-27.6845
-27.1166
-26.6201
-26.208
-25.9037
-25.6544
-25.4145
-25.1347
-24.8344
-24.5222
-24.1706
-23.8305
-23.5534
-23.3147
-23.1192
-22.9819
-22.8696
-22.754
-22.6053
-22.4393
-22.265
-22.0678
-21.8829
-21.7433
-21.6277
-21.5134
-21.3747
-21.2224
-21.062
-20.8804
-20.702
-20.5511
-20.4167
-20.2993
-20.2044
-20.1215
-20.0443
-19.9689
-19.9038
-19.8592
-19.8418
-19.847
-19.8701
-19.9268
-20.0158
-20.1377
-20.3578
-20.7604
-21.4576
-22.481
-23.8762
-25.6774
-27.4567
-28.6376
-29.2078
-29.3922
-29.3913
-29.3267
-29.2607
-29.2222
-30.1728
-29.8174
-29.2483
-28.4915
-27.7353
-27.1302
-26.602
-26.1691
-25.88
-25.6524
-25.4333
-25.1481
-24.8402
-24.5261
-24.1442
-23.7743
-23.4956
-23.2526
-23.055
-22.9358
-22.8432
-22.7449
-22.5949
-22.4253
-22.2511
-22.0368
-21.8369
-21.704
-21.6001
-21.497
-21.3554
-21.1983
-21.0357
-20.8377
-20.6426
-20.4874
-20.347
-20.2233
-20.1276
-20.0424
-19.9604
-19.8739
-19.7954
-19.7385
-19.7119
-19.7067
-19.711
-19.7507
-19.8164
-19.8899
-20.0556
-20.4104
-21.1123
-22.1785
-23.682
-25.7863
-27.9089
-29.1898
-29.6997
-29.7824
-29.6926
-29.5649
-29.4602
-29.4035
-30.587
-30.1551
-29.5141
-28.6289
-27.7632
-27.1326
-26.5716
-26.112
-25.8488
-25.6492
-25.4603
-25.1639
-24.8467
-24.5391
-24.1174
-23.708
-23.4354
-23.187
-22.9828
-22.888
-22.8188
-22.7434
-22.5877
-22.4127
-22.2434
-22.0051
-21.7837
-21.6625
-21.5734
-21.4867
-21.339
-21.1761
-21.0154
-20.7966
-20.5802
-20.4244
-20.2781
-20.1467
-20.0527
-19.9663
-19.8807
-19.7818
-19.6887
-19.6189
-19.5847
-19.5713
-19.5538
-19.5786
-19.6246
-19.6402
-19.7405
-20.0279
-20.7318
-21.8288
-23.4138
-25.8881
-28.457
-29.8241
-30.2292
-30.1795
-29.9861
-29.7896
-29.6444
-29.5692
-31.0375
-30.5045
-29.799
-28.7578
-27.7604
-27.1261
-26.5296
-26.0328
-25.8109
-25.6448
-25.4995
-25.1818
-24.8516
-24.5657
-24.0903
-23.6274
-23.3748
-23.1186
-22.9001
-22.8391
-22.7962
-22.752
-22.5832
-22.3999
-22.2446
-21.9727
-21.7202
-21.6187
-21.5477
-21.4844
-21.3253
-21.1545
-21.0032
-20.7569
-20.513
-20.3629
-20.2103
-20.0688
-19.98
-19.8935
-19.8061
-19.6931
-19.5838
-19.5
-19.4605
-19.4422
-19.3983
-19.4113
-19.4449
-19.3906
-19.4155
-19.6096
-20.3182
-21.4328
-23.0458
-25.9737
-29.1319
-30.5519
-30.793
-30.5776
-30.2673
-29.9981
-29.8117
-29.7181
-31.5297
-30.8588
-30.1101
-28.8762
-27.716
-27.1154
-26.478
-25.9255
-25.7682
-25.6383
-25.5569
-25.2004
-24.8514
-24.613
-24.0628
-23.5262
-23.317
-23.0488
-22.8029
-22.7901
-22.7748
-22.7745
-22.5806
-22.3845
-22.2591
-21.9395
-21.6422
-21.5732
-21.5222
-21.4932
-21.3136
-21.1317
-21.0025
-20.7187
-20.438
-20.3043
-20.1441
-19.9883
-19.9103
-19.824
-19.7377
-19.6078
-19.4806
-19.3812
-19.3393
-19.3216
-19.243
-19.249
-19.2831
-19.1427
-19.085
-19.1503
-19.8757
-20.9963
-22.543
-26.0294
-29.9769
-31.3837
-31.385
-30.9693
-30.5316
-30.1879
-29.9611
-29.8496
-32.071
-31.2061
-30.4584
-28.9817
-27.615
-27.1088
-26.4195
-25.7814
-25.7244
-25.627
-25.6405
-25.2174
-24.8397
-24.6907
-24.0352
-23.3951
-23.2679
-22.9796
-22.6855
-22.7435
-22.7528
-22.8163
-22.5785
-22.3624
-22.2933
-21.9054
-21.5436
-21.5278
-21.4956
-21.5175
-21.3026
-21.1044
-21.018
-20.6818
-20.3509
-20.2511
-20.0804
-19.9031
-19.8444
-19.7575
-19.6769
-19.526
-19.3789
-19.2615
-19.2209
-19.2127
-19.0856
-19.0908
-19.1465
-18.897
-18.7559
-18.6418
-19.4107
-20.5336
-21.8587
-26.0345
-31.0515
-32.3273
-31.9953
-31.3465
-30.7745
-30.3572
-30.0918
-29.9637
-32.6719
-31.5275
-30.8615
-29.072
-27.4359
-27.1199
-26.3586
-25.5878
-25.6863
-25.6057
-25.7623
-25.2294
-24.8066
-24.8136
-24.0072
-23.2206
-23.2362
-22.9139
-22.5394
-22.7035
-22.7266
-22.8851
-22.5743
-22.3272
-22.3565
-21.8703
-21.4162
-21.4859
-21.465
-21.5633
-21.2905
-21.0677
-21.0568
-20.646
-20.2455
-20.2069
-20.0201
-19.8103
-19.7842
-19.6933
-19.6255
-19.4474
-19.2788
-19.1398
-19.1045
-19.1199
-18.9224
-18.9348
-19.0451
-18.6517
-18.4382
-18.0705
-18.9316
-20.0708
-20.9307
-25.9591
-32.4381
-33.3849
-32.61
-31.6999
-30.9919
-30.5044
-30.2035
-30.0604
-33.3472
-31.7934
-31.3455
-29.1449
-27.1491
-27.1693
-26.3011
-25.3265
-25.6653
-25.5646
-25.9392
-25.2313
-24.7375
-25.0023
-23.9787
-22.9834
-23.2353
-22.8556
-22.3524
-22.6774
-22.6898
-22.992
-22.5648
-22.2693
-22.4621
-21.8338
-21.2484
-21.4535
-21.4253
-21.6396
-21.2747
-21.014
-21.1288
-20.6109
-20.113
-20.1776
-19.9645
-19.7054
-19.7323
-19.63
-19.5861
-19.3714
-19.1805
-19.0142
-18.9888
-19.0498
-18.748
-18.777
-18.9924
-18.4014
-18.1477
-17.4164
-18.4487
-19.6517
-19.6775
-25.76
-34.2494
-34.5486
-33.2102
-32.0203
-31.1804
-30.6287
-30.2965
-30.1403
-34.1178
-31.9597
-31.9488
-29.1983
-26.7132
-27.2876
-26.2547
-24.9715
-25.6802
-25.4876
-26.1952
-25.216
-24.6108
-25.286
-23.9491
-22.6566
-23.2848
-22.8096
-22.1072
-22.6772
-22.6314
-23.1526
-22.5451
-22.175
-22.6287
-21.7955
-21.0244
-21.4411
-21.3679
-21.7589
-21.2511
-20.9327
-21.2485
-20.5757
-19.9413
-20.1718
-19.9151
-19.5823
-19.693
-19.5649
-19.5621
-19.2969
-19.0845
-18.8829
-18.8713
-19.0118
-18.5548
-18.6114
-19.0065
-18.1352
-17.9079
-16.6494
-17.973
-19.3442
-17.993
-25.377
-36.6386
-35.7942
-33.7727
-32.2987
-31.3375
-30.7299
-30.3711
-30.2041
-35.0133
-31.962
-32.7267
-29.23
-26.0723
-27.5183
-26.2287
-24.486
-25.7604
-25.3483
-26.5637
-25.1741
-24.396
-25.7047
-23.9176
-22.2031
-23.4128
-22.782
-21.7792
-22.7219
-22.5341
-23.3888
-22.5088
-22.0243
-22.8823
-21.7542
-20.7231
-21.4649
-21.2792
-21.9389
-21.2147
-20.8084
-21.4353
-20.5392
-19.7137
-20.2019
-19.8735
-19.4322
-19.673
-19.4936
-19.5586
-19.222
-18.992
-18.7435
-18.748
-19.0193
-18.3325
-18.4283
-19.113
-17.8337
-17.7537
-15.7265
-17.5144
-19.2484
-15.7409
-24.7267
-39.8116
-37.0737
-34.2708
-32.5272
-31.4617
-30.8083
-30.4283
-30.2527
-36.0746
-31.7092
-33.7565
-29.2378
-25.1509
-27.9224
-26.2343
-23.8197
-25.9498
-25.1065
-27.0908
-25.0932
-24.0508
-26.3127
-23.8825
-21.5733
-23.6582
-22.7804
-21.335
-22.8399
-22.3711
-23.7308
-22.4474
-21.7902
-23.2578
-21.7081
-20.3158
-21.5495
-21.1376
-22.2036
-21.1585
-20.6203
-21.716
-20.4997
-19.408
-20.2855
-19.8414
-19.243
-19.6822
-19.4092
-19.5823
-19.1434
-18.905
-18.5933
-18.6123
-19.0908
-18.0676
-18.214
-19.3466
-17.4654
-17.7365
-14.5882
-17.0794
-19.5069
-12.7485
-23.6962
-44.0417
-38.3039
-34.6764
-32.7001
-31.5526
-30.8648
-30.4692
-30.2873
-37.3576
-31.0752
-35.144
-29.219
-23.8495
-28.5823
-26.2847
-22.9042
-26.3131
-24.7025
-27.8392
-24.9575
-23.5183
-27.1818
-23.8415
-20.7013
-24.074
-22.8135
-20.729
-23.0732
-22.1032
-24.2196
-22.3501
-21.4359
-23.8017
-21.6541
-19.7651
-21.7308
-20.9118
-22.5861
-21.0736
-20.3403
-22.1263
-20.4542
-18.995
-20.4466
-19.8204
-18.9988
-19.7348
-19.3016
-19.6428
-19.0563
-18.8263
-18.4295
-18.4548
-19.2514
-17.7427
-17.9489
-19.7549
-16.9818
-17.9294
-13.1539
-16.6677
-20.3161
-8.79972
-22.1346
-49.6875
-39.3536
-34.9629
-32.8143
-31.6112
-30.9008
-30.4951
-30.3092
-38.9371
-29.8886
-37.0307
-29.1691
-22.0374
-29.6064
-26.3929
-21.6474
-26.9409
-24.0502
-28.8919
-24.7465
-22.723
-28.4057
-23.7912
-19.5025
-24.7318
-22.8918
-19.9016
-23.4823
-21.6749
-24.9111
-22.2039
-20.9136
-24.5754
-21.5884
-19.0225
-22.0603
-20.5565
-23.1308
-20.9489
-19.9314
-22.7126
-20.3989
-18.4365
-20.7168
-19.811
-18.6774
-19.8501
-19.1549
-19.7521
-18.9526
-18.7601
-18.2487
-18.2605
-19.5339
-17.3354
-17.6055
-20.4018
-16.311
-18.4338
-11.3167
-16.2665
-21.9389
-3.62751
-19.8439
-57.2129
-40.0272
-35.1107
-32.8701
-31.6394
-30.918
-30.5074
-30.3196
)
;

boundaryField
{
    left
    {
        type            calculated;
        value           nonuniform List<scalar> 
32
(
-26.4235
-26.4459
-26.4886
-26.5498
-26.6282
-26.7228
-26.8329
-26.9582
-27.0984
-27.2538
-27.4244
-27.6109
-27.8138
-28.0341
-28.2727
-28.5309
-28.8101
-29.1118
-29.4381
-29.7909
-30.1728
-30.587
-31.0375
-31.5297
-32.071
-32.6719
-33.3472
-34.1178
-35.0133
-36.0746
-37.3576
-38.9371
)
;
    }
    right
    {
        type            calculated;
        value           nonuniform List<scalar> 
32
(
-25.7944
-25.829
-25.895
-25.989
-26.1079
-26.2493
-26.4108
-26.5901
-26.7849
-26.9928
-27.2115
-27.4383
-27.6706
-27.9056
-28.1407
-28.373
-28.5997
-28.8184
-29.0266
-29.2222
-29.4035
-29.5692
-29.7181
-29.8496
-29.9637
-30.0604
-30.1403
-30.2041
-30.2527
-30.2873
-30.3092
-30.3196
)
;
    }
    interface
    {
        type            calculated;
        value           nonuniform List<scalar> 
64
(
-39.8116
-29.1326
-38.1189
-29.1355
-20.985
-30.2248
-26.4629
-20.9204
-27.334
-23.6492
-29.5062
-24.6193
-22.2489
-29.1196
-23.7632
-18.8095
-25.1314
-22.9438
-19.4242
-23.7398
-21.4125
-25.3156
-22.1169
-20.6037
-25.0284
-21.552
-18.5964
-22.2697
-20.3401
-23.4502
-20.8752
-19.6895
-23.0565
-20.3682
-18.1154
-20.8836
-19.8092
-18.4942
-19.9261
-19.0694
-19.8207
-18.8953
-18.7305
-18.1535
-18.152
-19.7102
-17.108
-17.4101
-20.7939
-15.9181
-18.7786
-10.2823
-16.066
-22.991
-0.698752
-18.4881
-61.5107
-40.241
-35.148
-32.8837
-31.6462
-30.9221
-30.5103
-30.322
)
;
    }
    bottom
    {
        type            calculated;
        value           nonuniform List<scalar> 
64
(
-26.4177
-26.3903
-26.3363
-26.2571
-26.1548
-26.032
-25.8913
-25.7356
-25.5676
-25.3899
-25.2049
-25.0147
-24.8212
-24.6262
-24.4311
-24.2373
-24.0459
-23.8578
-23.6737
-23.4943
-23.32
-23.1511
-22.988
-22.8308
-22.6798
-22.5353
-22.3975
-22.2668
-22.1435
-22.0281
-21.9213
-21.8236
-21.7357
-21.6586
-21.5931
-21.5402
-21.5012
-21.477
-21.4691
-21.4785
-21.5066
-21.5545
-21.6237
-21.715
-21.8296
-21.9681
-22.1309
-22.3178
-22.5283
-22.7609
-23.0132
-23.2819
-23.5628
-23.8507
-24.1395
-24.4227
-24.6937
-24.9459
-25.1733
-25.3705
-25.5333
-25.6582
-25.7427
-25.7854
)
;
    }
    defaultFaces
    {
        type            empty;
    }
}


// ************************************************************************* //
