/*--------------------------------*- C++ -*----------------------------------*\
| =========                 |                                                 |
| \\      /  F ield         | OpenFOAM: The Open Source CFD Toolbox           |
|  \\    /   O peration     | Version:  5.x                                   |
|   \\  /    A nd           | Web:      www.OpenFOAM.org                      |
|    \\/     M anipulation  |                                                 |
\*---------------------------------------------------------------------------*/
FoamFile
{
    version     2.0;
    format      ascii;
    class       volScalarField;
    location    "5";
    object      T;
}
// * * * * * * * * * * * * * * * * * * * * * * * * * * * * * * * * * * * * * //

dimensions      [0 0 0 1 0 0 0];

internalField   nonuniform List<scalar> 
2048
(
9.81021
9.8104
9.81079
9.81136
9.8121
9.81298
9.81399
9.81511
9.81632
9.81759
9.81892
9.82029
9.82168
9.82308
9.82448
9.82587
9.82725
9.8286
9.82992
9.83121
9.83246
9.83368
9.83485
9.83598
9.83706
9.8381
9.83909
9.84003
9.84092
9.84174
9.84251
9.84321
9.84384
9.8444
9.84487
9.84525
9.84553
9.8457
9.84576
9.84569
9.84549
9.84515
9.84465
9.84399
9.84317
9.84218
9.84101
9.83966
9.83815
9.83648
9.83467
9.83274
9.83072
9.82865
9.82658
9.82454
9.82259
9.82078
9.81915
9.81773
9.81656
9.81566
9.81506
9.81475
9.43876
9.43935
9.4405
9.4422
9.44439
9.44701
9.45002
9.45334
9.45692
9.46071
9.46465
9.4687
9.47282
9.47697
9.48112
9.48525
9.48932
9.49332
9.49723
9.50104
9.50475
9.50834
9.5118
9.51514
9.51835
9.52142
9.52435
9.52713
9.52975
9.5322
9.53448
9.53656
9.53843
9.54007
9.54147
9.5426
9.54343
9.54395
9.54413
9.54394
9.54335
9.54234
9.54088
9.53894
9.53651
9.53357
9.53012
9.52614
9.52166
9.51671
9.51133
9.5056
9.4996
9.49345
9.48728
9.48122
9.47543
9.47004
9.46518
9.46096
9.45748
9.45482
9.45301
9.4521
9.08311
9.08409
9.086
9.08881
9.09243
9.09676
9.10172
9.10719
9.11309
9.11932
9.12579
9.13244
9.1392
9.14601
9.15281
9.15956
9.16622
9.17277
9.17916
9.1854
9.19145
9.19732
9.20298
9.20844
9.21368
9.2187
9.22349
9.22803
9.23232
9.23634
9.24006
9.24347
9.24654
9.24924
9.25154
9.2534
9.25479
9.25566
9.25597
9.25568
9.25474
9.25311
9.25074
9.2476
9.24365
9.23886
9.23321
9.22671
9.21937
9.21124
9.2024
9.19296
9.18308
9.17293
9.16273
9.15272
9.14314
9.13423
9.1262
9.11923
9.1135
9.1091
9.10612
9.10462
8.74235
8.74371
8.74639
8.75031
8.75536
8.7614
8.76829
8.77589
8.78407
8.79269
8.80164
8.81082
8.82014
8.82951
8.83888
8.84817
8.85734
8.86633
8.87512
8.88368
8.89199
8.90004
8.90781
8.9153
8.92249
8.92938
8.93595
8.94219
8.94809
8.95361
8.95874
8.96343
8.96767
8.97141
8.97459
8.97718
8.97913
8.98036
8.98083
8.98048
8.97923
8.97704
8.97384
8.96957
8.96418
8.95763
8.94989
8.94095
8.93085
8.91963
8.9074
8.89431
8.88058
8.86646
8.85225
8.83829
8.82493
8.81249
8.8013
8.79161
8.78363
8.77751
8.77338
8.7713
8.41562
8.41739
8.42085
8.42591
8.43241
8.44017
8.449
8.45872
8.46915
8.48013
8.49151
8.50317
8.51499
8.52687
8.53873
8.55048
8.56207
8.57343
8.58452
8.59532
8.60579
8.61593
8.62572
8.63516
8.64422
8.65291
8.6612
8.66908
8.67652
8.6835
8.68998
8.69594
8.70132
8.70607
8.71014
8.71346
8.71596
8.71759
8.71825
8.71787
8.71638
8.71369
8.70972
8.7044
8.69766
8.68945
8.67971
8.66843
8.65564
8.64141
8.62584
8.60913
8.59156
8.57344
8.55519
8.53723
8.52004
8.50405
8.48967
8.47723
8.467
8.45918
8.4539
8.45124
8.10217
8.10435
8.10863
8.11486
8.12285
8.13236
8.14316
8.15501
8.16769
8.18101
8.19479
8.20888
8.22315
8.23748
8.25177
8.26591
8.27985
8.29349
8.30681
8.31975
8.33231
8.34446
8.35618
8.36749
8.37835
8.38876
8.39871
8.40816
8.4171
8.42549
8.4333
8.44047
8.44697
8.45273
8.45768
8.46174
8.46483
8.46686
8.46775
8.46739
8.46571
8.46258
8.45793
8.45165
8.44366
8.43387
8.42223
8.40871
8.39332
8.37612
8.35725
8.33693
8.31549
8.29332
8.27094
8.2489
8.22779
8.20817
8.19054
8.17532
8.16283
8.1533
8.14688
8.14365
7.80127
7.80389
7.80902
7.81648
7.82602
7.83734
7.85014
7.86414
7.87908
7.89473
7.91088
7.92737
7.94404
7.96077
7.97743
7.99391
8.01011
8.02597
8.04143
8.05645
8.071
8.08507
8.09866
8.11175
8.12434
8.13641
8.14795
8.15892
8.16931
8.17907
8.18816
8.19654
8.20415
8.2109
8.21673
8.22154
8.22523
8.2277
8.22886
8.22858
8.22676
8.22327
8.21802
8.21087
8.20171
8.19046
8.17701
8.16134
8.14342
8.12332
8.10117
8.07723
8.05187
8.02557
7.99895
7.97269
7.94753
7.92417
7.90321
7.88516
7.87039
7.85915
7.85159
7.84779
7.51227
7.51536
7.5214
7.53015
7.54131
7.5545
7.56936
7.58555
7.60275
7.62072
7.63922
7.65807
7.67712
7.69619
7.71517
7.73392
7.75234
7.77035
7.78788
7.80488
7.82135
7.83727
7.85263
7.86744
7.88169
7.89536
7.90843
7.92087
7.93266
7.94375
7.9541
7.96366
7.97235
7.9801
7.98681
7.99238
7.9967
7.99965
8.00111
8.00095
7.99906
7.99529
7.98951
7.98158
7.97137
7.95874
7.9436
7.92586
7.9055
7.88256
7.85716
7.82958
7.80023
7.76968
7.73867
7.70803
7.67867
7.65142
7.62705
7.60612
7.58904
7.57609
7.5674
7.56304
7.23454
7.23813
7.24515
7.25529
7.26815
7.28329
7.30027
7.31868
7.33817
7.35845
7.37929
7.40048
7.42185
7.44323
7.46448
7.48546
7.50603
7.52612
7.54564
7.56456
7.58286
7.60054
7.61761
7.63407
7.64991
7.66512
7.67967
7.69353
7.70666
7.71905
7.73062
7.74133
7.75111
7.75985
7.76745
7.7738
7.77877
7.78222
7.78403
7.78406
7.78215
7.77817
7.77195
7.76333
7.75216
7.73828
7.72154
7.70185
7.67914
7.65341
7.62479
7.59355
7.56013
7.52519
7.48961
7.45439
7.42062
7.38934
7.36144
7.33757
7.31818
7.30352
7.29372
7.28881
6.96751
6.97165
6.97972
6.99134
7.00602
7.0232
7.04237
7.06305
7.08484
7.10743
7.13058
7.15408
7.17774
7.20139
7.22487
7.24802
7.2707
7.29279
7.31424
7.33499
7.35505
7.37442
7.39312
7.41115
7.42852
7.44521
7.46118
7.47641
7.49086
7.5045
7.51727
7.52912
7.53996
7.54969
7.5582
7.56534
7.57098
7.57497
7.57717
7.57742
7.57557
7.57144
7.56487
7.55566
7.54363
7.5286
7.51039
7.48886
7.46389
7.43546
7.40365
7.36871
7.33114
7.29166
7.25129
7.21125
7.17285
7.13736
7.10581
7.07895
7.05724
7.04091
7.03003
7.02459
6.71062
6.71536
6.72458
6.73781
6.75442
6.77375
6.79519
6.81818
6.84229
6.86719
6.89262
6.91839
6.9443
6.97019
6.99586
7.02114
7.04586
7.06992
7.09321
7.11572
7.13745
7.15843
7.17868
7.19823
7.21707
7.23518
7.25253
7.26908
7.2848
7.29965
7.31359
7.32655
7.33845
7.34918
7.3586
7.36655
7.37289
7.37745
7.38008
7.3806
7.37886
7.37467
7.36782
7.35812
7.34534
7.32928
7.30971
7.28645
7.25934
7.22829
7.19333
7.15469
7.11287
7.06867
7.02327
6.97813
6.93485
6.89494
6.85962
6.82974
6.80573
6.78777
6.77585
6.76992
6.46337
6.46877
6.47925
6.49421
6.5129
6.53451
6.5583
6.58365
6.61009
6.63727
6.66496
6.69296
6.72109
6.74917
6.777
6.80437
6.83109
6.85704
6.88212
6.90631
6.92963
6.95214
6.97387
6.99486
7.01511
7.0346
7.05327
7.0711
7.08804
7.10407
7.11914
7.1332
7.14616
7.15788
7.16822
7.177
7.18406
7.18922
7.19231
7.19316
7.19159
7.18739
7.18036
7.17025
7.15683
7.13985
7.11905
7.0942
7.06506
7.0315
6.99345
6.95111
6.90494
6.85584
6.80514
6.75459
6.70611
6.66156
6.62237
6.58944
6.56318
6.54366
6.53077
6.52437
6.22525
6.2314
6.24327
6.26013
6.28104
6.30505
6.33128
6.35904
6.38781
6.41725
6.44715
6.47734
6.50765
6.53789
6.56785
6.59727
6.62596
6.65374
6.68054
6.70632
6.73115
6.7551
6.77824
6.80062
6.82222
6.84304
6.86299
6.88205
6.90017
6.91733
6.93352
6.94866
6.96266
6.97538
6.98665
6.99628
7.00408
7.00986
7.01345
7.01467
7.01332
7.00919
7.00204
6.99163
6.97767
6.95989
6.93799
6.91167
6.88066
6.84469
6.80365
6.75761
6.70701
6.65281
6.59651
6.54018
6.48617
6.43673
6.39355
6.35759
6.32915
6.30817
6.2944
6.28759
5.99582
6.00278
6.01619
6.03513
6.05845
6.08499
6.11376
6.14396
6.17506
6.20673
6.23879
6.27112
6.30357
6.33594
6.36799
6.39945
6.43005
6.45962
6.48805
6.51535
6.5416
6.56691
6.59138
6.61508
6.638
6.66009
6.68129
6.70153
6.72078
6.73904
6.7563
6.7725
6.78754
6.80126
6.81348
6.82397
6.83254
6.83897
6.84309
6.84471
6.84363
6.83962
6.83245
6.82181
6.80742
6.78896
6.76609
6.73846
6.70571
6.6675
6.62356
6.57386
6.51876
6.45925
6.39701
6.33448
6.27455
6.21997
6.17271
6.13374
6.10325
6.08094
6.0664
6.05924
5.77461
5.7825
5.79762
5.81884
5.84476
5.87399
5.90538
5.93806
5.97147
6.00531
6.03948
6.07389
6.10843
6.1429
6.17703
6.21049
6.24298
6.27427
6.30428
6.33301
6.36058
6.38716
6.4129
6.43786
6.46204
6.48538
6.50779
6.52917
6.5495
6.56881
6.58711
6.60435
6.62042
6.63516
6.64833
6.6597
6.66905
6.67615
6.68082
6.68288
6.68211
6.6783
6.67117
6.6604
6.64568
6.62665
6.60294
6.57415
6.53983
6.49954
6.45284
6.39954
6.33989
6.27486
6.20632
6.13711
6.0708
6.01079
5.95937
5.9175
5.88511
5.86165
5.84646
5.83902
5.56122
5.57014
5.58716
5.61089
5.63963
5.6717
5.70581
5.74099
5.77668
5.81263
5.84882
5.88526
5.92185
5.95839
5.99458
6.03003
6.06437
6.09734
6.12885
6.15891
6.18771
6.21548
6.24241
6.26857
6.29398
6.31854
6.34211
6.36458
6.38595
6.40627
6.42557
6.44383
6.46093
6.47668
6.49083
6.5031
6.51324
6.52103
6.52627
6.52879
6.52838
6.52482
6.5178
6.50698
6.49202
6.47254
6.44813
6.41833
6.38262
6.34043
6.29115
6.23435
6.17012
6.09936
6.02412
5.94769
5.87447
5.80873
5.75311
5.70847
5.67439
5.64999
5.63431
5.62667
5.35523
5.36531
5.38445
5.41097
5.44275
5.47782
5.51473
5.55244
5.59035
5.62832
5.66645
5.70484
5.74344
5.78202
5.82027
5.85771
5.89386
5.92846
5.9614
5.9927
6.02263
6.05149
6.07953
6.10686
6.13345
6.1592
6.18391
6.20744
6.22978
6.25105
6.27132
6.29058
6.3087
6.32549
6.34063
6.35381
6.36475
6.37324
6.37907
6.38207
6.38206
6.3788
6.37195
6.36117
6.34606
6.32624
6.30126
6.27061
6.23369
6.18982
6.13815
6.078
6.00917
5.93251
5.85014
5.76586
5.68512
5.61331
5.5535
5.50629
5.4708
5.44569
5.42971
5.42195
5.15626
5.16765
5.18916
5.21874
5.25383
5.29206
5.33185
5.37209
5.41215
5.45203
5.492
5.53228
5.57283
5.61342
5.65374
5.69318
5.73112
5.7673
5.80159
5.83404
5.86498
5.89483
5.92392
5.95236
5.9801
6.00703
6.03287
6.0574
6.08065
6.10281
6.12402
6.14426
6.1634
6.18123
6.19739
6.21148
6.22324
6.23244
6.23887
6.24237
6.24278
6.23987
6.23327
6.22259
6.20742
6.18735
6.16193
6.13058
6.09265
6.04733
5.99352
5.93019
5.85682
5.77408
5.68416
5.59128
5.50228
5.42407
5.36013
5.31064
5.27406
5.24853
5.23243
5.22465
4.96393
4.97681
5.00094
5.03392
5.0726
5.11414
5.15689
5.19966
5.24179
5.28345
5.32512
5.36721
5.40967
5.45225
5.49466
5.53611
5.57581
5.61353
5.6491
5.68259
5.71442
5.74515
5.77524
5.80475
5.83361
5.86172
5.88868
5.91416
5.93825
5.96123
5.98334
6.00454
6.02468
6.04358
6.06078
6.0758
6.08839
6.0983
6.10532
6.10934
6.1102
6.10768
6.10139
6.09089
6.07573
6.05551
6.02977
5.99787
5.95912
5.91261
5.85694
5.79067
5.71282
5.62388
5.52596
5.42363
5.32548
5.24052
5.17261
5.1212
5.08394
5.05829
5.04227
5.03457
4.77788
4.79245
4.81949
4.85625
4.89882
4.94381
4.98957
5.03487
5.07895
5.12223
5.16546
5.20931
5.25363
5.29816
5.34269
5.3862
5.42763
5.46683
5.50364
5.53803
5.57062
5.60213
5.63315
5.66369
5.69365
5.72295
5.75103
5.7774
5.80225
5.82598
5.84895
5.8711
5.89224
5.91224
5.93051
5.94646
5.95987
5.9705
5.97812
5.98264
5.98397
5.98189
5.97597
5.96572
5.95064
5.93035
5.9044
5.87209
5.83271
5.78529
5.72809
5.65917
5.57696
5.48174
5.37542
5.26263
5.15424
5.06218
4.99056
4.93772
4.9002
4.87477
4.85905
4.85154
4.59776
4.61427
4.64451
4.68547
4.73228
4.7808
4.82965
4.87748
4.92335
4.96808
5.0127
5.05824
5.10438
5.1508
5.19753
5.24315
5.28627
5.32691
5.36489
5.40006
5.43328
5.46544
5.49735
5.5289
5.55991
5.59044
5.61967
5.64686
5.67237
5.69676
5.72057
5.74365
5.76576
5.78689
5.80628
5.82316
5.8374
5.84875
5.85694
5.86198
5.86379
5.86219
5.8567
5.84675
5.8318
5.81151
5.78548
5.75288
5.71304
5.66502
5.60665
5.53542
5.449
5.34748
5.23243
5.108
4.98802
4.88855
4.81363
4.75994
4.72267
4.69781
4.6826
4.67537
4.42324
4.44198
4.47571
4.52134
4.57279
4.62489
4.67686
4.72724
4.77472
4.82068
4.86649
4.91369
4.96163
5.00985
5.05887
5.10672
5.15142
5.19348
5.23261
5.2684
5.30209
5.33476
5.36754
5.40008
5.43208
5.4639
5.49433
5.52226
5.54833
5.57327
5.59791
5.6219
5.64496
5.66728
5.68784
5.70562
5.72068
5.73276
5.7415
5.74703
5.74932
5.74826
5.74326
5.73367
5.7189
5.69867
5.67267
5.63989
5.59973
5.55145
5.49229
5.41919
5.32873
5.22098
5.097
4.95952
4.82623
4.71912
4.64149
4.58767
4.55119
4.52725
4.51276
4.50591
4.25398
4.27533
4.31277
4.36366
4.42019
4.4758
4.53095
4.58394
4.63277
4.67975
4.7265
4.77537
4.82508
4.87496
4.92642
4.97664
5.02282
5.06625
5.10653
5.14277
5.17677
5.20977
5.24344
5.27695
5.30986
5.34307
5.37479
5.40334
5.42986
5.45522
5.4807
5.5056
5.52952
5.55311
5.57493
5.59356
5.60944
5.62227
5.63152
5.63752
5.64029
5.6398
5.63536
5.62619
5.61163
5.59149
5.56565
5.53277
5.49241
5.44421
5.3847
5.31023
5.2159
5.10206
4.96919
4.817
4.6682
4.55338
4.47388
4.42074
4.38563
4.36297
4.34938
4.343
4.08965
4.11411
4.15541
4.21222
4.27438
4.33329
4.39167
4.44739
4.49726
4.54501
4.59239
4.643
4.69448
4.74578
4.7999
4.85272
4.90015
4.94496
4.98643
5.02289
5.05704
5.09018
5.12478
5.15929
5.19296
5.2277
5.26084
5.28986
5.3167
5.34233
5.36867
5.3945
5.41918
5.44414
5.46733
5.48672
5.50342
5.51702
5.52672
5.53317
5.53641
5.53655
5.53273
5.52404
5.50969
5.48966
5.46413
5.43121
5.39069
5.34298
5.28354
5.20834
5.11026
4.99053
4.84921
4.68032
4.51316
4.3908
4.31055
4.25902
4.22587
4.20481
4.19231
4.18647
3.92993
3.95816
4.0033
4.06684
4.13528
4.19707
4.25876
4.31743
4.36789
4.4162
4.4638
4.51632
4.56962
4.62195
4.67906
4.73479
4.78312
4.82932
4.87212
4.90849
4.94265
4.97567
5.01132
5.04685
5.08105
5.11754
5.15231
5.18158
5.20862
5.23429
5.2616
5.28837
5.31363
5.34013
5.36483
5.38483
5.40236
5.41679
5.42684
5.43373
5.43739
5.43824
5.4351
5.42695
5.41282
5.39286
5.36783
5.33489
5.29417
5.24741
5.18848
5.11332
5.01154
4.88617
4.7374
4.54943
4.36017
4.23087
4.15133
4.10243
4.07181
4.05267
4.04141
4.03618
3.77446
3.8074
3.85605
3.92735
4.00291
4.06681
4.13196
4.19394
4.24438
4.2931
4.34035
4.39511
4.45031
4.50308
4.56364
4.62273
4.67142
4.71906
4.76342
4.79932
4.83338
4.86591
4.90284
4.93946
4.97382
5.01237
5.04905
5.07824
5.1054
5.13081
5.15927
5.18704
5.21258
5.24084
5.26727
5.28765
5.30602
5.32137
5.33164
5.33895
5.34298
5.34461
5.34223
5.33469
5.32074
5.30079
5.2765
5.24353
5.20247
5.15719
5.09914
5.02503
4.91941
4.78864
4.63426
4.4244
4.20806
4.07313
3.99611
3.95093
3.92338
3.90642
3.89653
3.89195
3.62288
3.66183
3.71324
3.79357
3.87736
3.94214
4.01098
4.07688
4.12643
4.17551
4.22165
4.27917
4.33643
4.38872
4.45339
4.5165
4.5647
4.61392
4.66023
4.69508
4.72902
4.76056
4.79912
4.83697
4.87091
4.91195
4.95098
4.97961
5.00685
5.0316
5.06147
5.09033
5.1157
5.14605
5.17451
5.19488
5.21416
5.23056
5.24086
5.24861
5.25291
5.25542
5.25387
5.24702
5.23322
5.21313
5.18994
5.15688
5.11514
5.07205
5.01513
4.9434
4.83353
4.69746
4.54053
4.30541
4.05541
3.91717
3.84486
3.80449
3.78051
3.76594
3.75751
3.75362
3.47478
3.52163
3.57434
3.66537
3.75883
3.8226
3.89554
3.96625
4.01368
4.0633
4.10721
4.16831
4.22794
4.27836
4.34809
4.41611
4.46256
4.51361
4.56248
4.59547
4.62942
4.65925
4.7
4.73928
4.77193
4.8161
4.85803
4.8854
4.9128
4.93631
4.96803
4.99814
5.02266
5.05557
5.08646
5.10627
5.12656
5.14422
5.15426
5.1625
5.16692
5.17047
5.1698
5.16376
5.15004
5.12955
5.10796
5.07473
5.03174
4.99176
4.93598
4.86841
4.75352
4.61195
4.45723
4.19282
3.9004
3.7627
3.69765
3.66313
3.64312
3.63111
3.6242
3.62103
3.32969
3.38713
3.43868
3.5426
3.64769
3.7076
3.7853
3.86219
3.90569
3.95641
3.99651
4.06241
4.12487
4.1714
4.24753
4.32171
4.36456
4.41785
4.47017
4.50015
4.53448
4.56156
4.60533
4.64635
4.67642
4.7246
4.77023
4.7953
4.82317
4.84458
4.8788
4.91039
4.93307
4.96919
5.00308
5.02149
5.04297
5.06222
5.07158
5.08043
5.08475
5.08954
5.08981
5.0847
5.071
5.0497
5.03043
4.99689
4.95177
4.91614
4.86117
4.8002
4.67899
4.53116
4.38569
4.08722
3.74074
3.60962
3.55461
3.52688
3.51115
3.50181
3.49645
3.494
3.18706
3.2589
3.30542
3.42511
3.54446
3.59643
3.67994
3.76493
3.80194
3.85492
3.8889
3.96138
4.02738
4.06712
4.15149
4.23355
4.27013
4.32634
4.38342
4.40871
4.44418
4.46702
4.51498
4.55823
4.58387
4.63728
4.68766
4.70896
4.73788
4.75599
4.79365
4.82708
4.84649
4.88674
4.92439
4.94022
4.9632
4.98448
4.99255
5.00225
5.00615
5.01246
5.01369
5.00967
4.99592
4.97322
4.95725
4.92323
4.87465
4.84514
4.79004
4.73905
4.60952
4.45374
4.32761
3.98949
3.57349
3.45808
3.41599
3.39578
3.38452
3.37788
3.37409
3.37236
3.04623
3.13784
3.17345
3.31278
3.4499
3.48817
3.57909
3.67489
3.70174
3.75904
3.78362
3.86516
3.93578
3.96464
4.0598
4.15207
4.17862
4.23879
4.30243
4.32064
4.35861
4.37506
4.42888
4.47505
4.49364
4.55396
4.6105
4.62593
4.657
4.67008
4.71248
4.74829
4.7624
4.80805
4.85049
4.86205
4.88701
4.91095
4.91688
4.92786
4.93083
4.93906
4.94121
4.93853
4.92469
4.89965
4.88839
4.8537
4.79973
4.77882
4.72176
4.68542
4.5447
4.37787
4.28518
3.90085
3.39498
3.30864
3.28207
3.26986
3.26314
3.2592
3.25696
3.25593
2.90638
3.02525
3.04139
3.20548
3.36506
3.38166
3.48237
3.59268
3.6042
3.6692
3.67972
3.77377
3.85055
3.86289
3.97228
4.07787
4.08922
4.15487
4.22755
4.2353
4.27801
4.28502
4.34697
4.39707
4.40501
4.47451
4.53904
4.54564
4.58068
4.58626
4.63524
4.67417
4.68021
4.73299
4.78157
4.78655
4.81421
4.84165
4.84422
4.85716
4.85851
4.86922
4.87217
4.87113
4.85719
4.82853
4.82386
4.78829
4.7262
4.71745
4.6553
4.64004
4.4842
4.30113
4.26109
3.82296
3.20055
3.16235
3.1532
3.14914
3.14691
3.14561
3.14487
3.14454
)
;

boundaryField
{
    left
    {
        type            zeroGradient;
    }
    right
    {
        type            zeroGradient;
    }
    interface
    {
        type            fixedValue;
        value           nonuniform List<scalar> 
64
(
2.83488
2.97294
2.97294
3.15317
3.32739
3.32739
3.43486
3.55512
3.55512
3.62673
3.62673
3.72956
3.81059
3.81059
3.9296
4.04407
4.04407
4.11365
4.19265
4.19265
4.23954
4.23954
4.30724
4.36005
4.36005
4.43579
4.50563
4.50563
4.54414
4.54414
4.59774
4.6388
4.6388
4.6964
4.74905
4.74905
4.77864
4.80844
4.80844
4.82292
4.82292
4.83529
4.83854
4.83854
4.8246
4.79314
4.79314
4.75703
4.68887
4.68887
4.62158
4.62158
4.45535
4.25984
4.25984
3.78976
3.09008
3.09008
3.09008
3.09008
3.09008
3.09008
3.09008
3.09008
)
;
    }
    bottom
    {
        type            fixedValue;
        value           uniform 10;
    }
    defaultFaces
    {
        type            empty;
    }
}


// ************************************************************************* //
