/*--------------------------------*- C++ -*----------------------------------*\
| =========                 |                                                 |
| \\      /  F ield         | OpenFOAM: The Open Source CFD Toolbox           |
|  \\    /   O peration     | Version:  5.x                                   |
|   \\  /    A nd           | Web:      www.OpenFOAM.org                      |
|    \\/     M anipulation  |                                                 |
\*---------------------------------------------------------------------------*/
FoamFile
{
    version     2.0;
    format      ascii;
    class       volScalarField;
    location    "6.1";
    object      gradTx;
}
// * * * * * * * * * * * * * * * * * * * * * * * * * * * * * * * * * * * * * //

dimensions      [0 -1 0 1 0 0 0];

internalField   nonuniform List<scalar> 
2048
(
0.00630473
0.018734
0.0306385
0.0417199
0.0517494
0.0605776
0.0681343
0.0744172
0.0794759
0.0833935
0.0862697
0.0882089
0.089313
0.089679
0.0893992
0.0885628
0.0872566
0.0855641
0.0835631
0.0813221
0.0788969
0.076328
0.0736405
0.0708444
0.0679374
0.0649075
0.0617351
0.0583947
0.0548553
0.0510812
0.047032
0.0426641
0.0379323
0.032792
0.0272014
0.0211228
0.014524
0.00737888
-0.00033217
-0.00862082
-0.0174886
-0.0269232
-0.0368932
-0.0473413
-0.0581758
-0.0692621
-0.080413
-0.0913813
-0.101856
-0.111464
-0.119782
-0.126359
-0.130753
-0.13257
-0.131511
-0.127416
-0.120277
-0.110247
-0.0976153
-0.0827648
-0.0661295
-0.0481501
-0.0292468
-0.00980737
0.0187879
0.0558172
0.0912562
0.124205
0.153979
0.180136
0.202477
0.221009
0.235896
0.247395
0.255811
0.26146
0.264644
0.265649
0.264748
0.262204
0.258273
0.253205
0.247233
0.240562
0.233359
0.225744
0.217791
0.209526
0.200943
0.192002
0.182644
0.172795
0.162361
0.151237
0.139303
0.126427
0.112476
0.0973144
0.0808181
0.0628748
0.0433888
0.022282
-0.000504235
-0.0250064
-0.0512321
-0.0791493
-0.108671
-0.139634
-0.171775
-0.204704
-0.237873
-0.270556
-0.30183
-0.330584
-0.355547
-0.375359
-0.388673
-0.394289
-0.391295
-0.379192
-0.357961
-0.328073
-0.290412
-0.246151
-0.196608
-0.143109
-0.0869049
-0.0291382
0.0311393
0.0924821
0.151106
0.205485
0.254472
0.297351
0.333824
0.363949
0.388037
0.406555
0.420032
0.428998
0.433954
0.435365
0.433671
0.429299
0.42267
0.414199
0.404274
0.39324
0.381377
0.368882
0.355871
0.342385
0.328401
0.313852
0.298638
0.282633
0.265688
0.247626
0.22825
0.207342
0.184674
0.160025
0.133184
0.103968
0.0722171
0.0378038
0.000629085
-0.0393718
-0.0822205
-0.127878
-0.176219
-0.226999
-0.279811
-0.33404
-0.388815
-0.44296
-0.494965
-0.542988
-0.584897
-0.618383
-0.641135
-0.651074
-0.646609
-0.62686
-0.591799
-0.542251
-0.479768
-0.406388
-0.324372
-0.235961
-0.143223
-0.0480091
0.0435988
0.129425
0.211275
0.28694
0.354796
0.413871
0.463819
0.504812
0.537378
0.562242
0.58019
0.591982
0.598311
0.599807
0.597059
0.590646
0.581152
0.569156
0.555213
0.539815
0.523357
0.506116
0.488242
0.469777
0.450676
0.430833
0.410106
0.388319
0.365267
0.340709
0.314367
0.285933
0.255086
0.221508
0.184904
0.145016
0.101626
0.0545566
0.00366761
-0.0511394
-0.109911
-0.172619
-0.239126
-0.309137
-0.382141
-0.457343
-0.533592
-0.609304
-0.682409
-0.750332
-0.810043
-0.858203
-0.891418
-0.906592
-0.901327
-0.874289
-0.82543
-0.756011
-0.668378
-0.56559
-0.450972
-0.327744
-0.198792
-0.0666105
0.0563821
0.167268
0.272723
0.369773
0.456286
0.531067
0.593794
0.644846
0.685059
0.715493
0.737238
0.751294
0.758537
0.75974
0.755618
0.746886
0.734284
0.718567
0.700471
0.680649
0.659624
0.637747
0.615197
0.592
0.568072
0.543258
0.517369
0.490182
0.461443
0.430849
0.398041
0.362615
0.324146
0.282216
0.236439
0.186484
0.132077
0.0729925
0.00905127
-0.0598847
-0.133901
-0.213001
-0.297067
-0.385791
-0.478606
-0.574592
-0.672376
-0.770021
-0.864932
-0.953802
-1.03265
-1.09699
-1.14217
-1.16386
-1.15868
-1.1247
-1.06185
-0.97194
-0.858327
-0.725313
-0.577481
-0.419133
-0.253974
-0.0850558
0.0696941
0.206599
0.336345
0.455077
0.560125
0.65011
0.724838
0.785023
0.831938
0.867069
0.891863
0.907578
0.91525
0.915758
0.909909
0.898532
0.88252
0.86282
0.840373
0.816019
0.790423
0.764011
0.736974
0.709301
0.680845
0.651389
0.62069
0.588488
0.554487
0.518327
0.479569
0.437703
0.392188
0.342493
0.288136
0.228715
0.163901
0.093431
0.0170883
-0.0653095
-0.1539
-0.248746
-0.349779
-0.456726
-0.569017
-0.685674
-0.805172
-0.925292
-1.04297
-1.15417
-1.25391
-1.33641
-1.39553
-1.42543
-1.42143
-1.38085
-1.30358
-1.19214
-1.05119
-0.886621
-0.704539
-0.510464
-0.308916
-0.103385
0.083739
0.247998
0.403009
0.543889
0.667388
0.772016
0.857843
0.92609
0.978625
1.01748
1.04453
1.06128
1.0689
1.06831
1.06038
1.046
1.02622
1.00222
0.975163
0.946126
0.915931
0.885083
0.853761
0.821885
0.789214
0.755448
0.720288
0.683447
0.644604
0.603354
0.559174
0.511438
0.459466
0.402599
0.340252
0.27195
0.197324
0.116082
0.0279762
-0.0672218
-0.169717
-0.279655
-0.397058
-0.521733
-0.653167
-0.790395
-0.931831
-1.07507
-1.21664
-1.35184
-1.47461
-1.57773
-1.65327
-1.69348
-1.69203
-1.64521
-1.55281
-1.41831
-1.24811
-1.05014
-0.832382
-0.601754
-0.363563
-0.121567
0.0987285
0.292062
0.473591
0.637223
0.77909
0.897683
0.993533
1.06859
1.12551
1.16703
1.1955
1.21268
1.21979
1.21775
1.20738
1.18962
1.16568
1.13699
1.10502
1.0711
1.03627
1.00109
0.965708
0.929929
0.893373
0.855629
0.816344
0.77522
0.731943
0.68608
0.637019
0.583995
0.52617
0.462727
0.392969
0.316353
0.232485
0.141062
0.0418181
-0.0655214
-0.181243
-0.305603
-0.438752
-0.580627
-0.730834
-0.888501
-1.05208
-1.21909
-1.3858
-1.54687
-1.69517
-1.82184
-1.91681
-1.96996
-1.97275
-1.92005
-1.8115
-1.65186
-1.44984
-1.21607
-0.960862
-0.692708
-0.417659
-0.139505
0.114888
0.33942
0.549002
0.736101
0.896199
1.02792
1.13249
1.21287
1.27278
1.31581
1.34486
1.3619
1.36814
1.36435
1.35121
1.32969
1.30115
1.26732
1.23005
1.19102
1.15149
1.11211
1.07294
1.03359
0.993502
0.952111
0.909011
0.863932
0.816607
0.766601
0.713211
0.655504
0.59244
0.523019
0.446413
0.362022
0.269449
0.168409
0.0586349
-0.0601884
-0.188443
-0.326529
-0.474764
-0.633262
-0.801806
-0.979701
-1.16556
-1.35696
-1.55005
-1.73902
-1.91566
-2.06929
-2.18733
-2.25662
-2.26574
-2.20757
-2.08148
-1.89393
-1.6568
-1.38423
-1.08945
-0.782735
-0.470764
-0.157036
0.132465
0.390756
0.630208
0.841575
1.01967
1.16343
1.27514
1.35913
1.42045
1.46375
1.49254
1.50896
1.51406
1.5083
1.49215
1.46647
1.43284
1.39334
1.35032
1.3059
1.26161
1.21819
1.17554
1.13302
1.08978
1.04507
0.998426
0.949672
0.898653
0.844969
0.787817
0.726052
0.658382
0.58358
0.500667
0.409003
0.308221
0.198091
0.0783759
-0.0512745
-0.191353
-0.342436
-0.505051
-0.679531
-0.865892
-1.06369
-1.27182
-1.48811
-1.70879
-1.92774
-2.1358
-2.32033
-2.46572
-2.55508
-2.57313
-2.50997
-2.3645
-2.14547
-1.86904
-1.55401
-1.21723
-0.87095
-0.522256
-0.17394
0.151729
0.446815
0.71825
0.954743
1.15043
1.30487
1.42182
1.50737
1.56831
1.61058
1.63834
1.65378
1.65761
1.64981
1.63043
1.60021
1.56092
1.51516
1.46585
1.41569
1.3666
1.31934
1.27361
1.22837
1.18238
1.13467
1.08471
1.0325
0.978097
0.921193
0.860866
0.7957
0.724079
0.644491
0.555786
0.457302
0.348755
0.230021
0.100928
-0.0388939
-0.190066
-0.353382
-0.529625
-0.719384
-0.922945
-1.14019
-1.37042
-1.61191
-1.86122
-2.11225
-2.35501
-2.57485
-2.75267
-2.86686
-2.8971
-2.8296
-2.66236
-2.40724
-2.08628
-1.72442
-1.34294
-0.9562
-0.571356
-0.189944
0.172986
0.508424
0.814257
1.07676
1.28942
1.45281
1.57269
1.65746
1.71603
1.75589
1.78192
1.7962
1.79881
1.78905
1.76634
1.73117
1.6856
1.63285
1.57662
1.52033
1.46637
1.41556
1.36723
1.31979
1.27153
1.2211
1.16799
1.11244
1.05491
0.995241
0.932356
0.864484
0.789598
0.705822
0.611802
0.506891
0.390961
0.264057
0.126121
-0.0232162
-0.184729
-0.359479
-0.548553
-0.752827
-0.972873
-1.20896
-1.46091
-1.72764
-2.00641
-2.29148
-2.57239
-2.83246
-3.04858
-3.1934
-3.23997
-3.16897
-2.97691
-2.67982
-2.30785
-1.894
-1.46494
-1.03708
-0.617148
-0.204732
0.196573
0.576495
0.919466
1.20886
1.43757
1.60774
1.72782
1.80909
1.86306
1.89912
1.92286
1.93599
1.93767
1.9262
1.90015
1.85963
1.80704
1.74646
1.68256
1.61966
1.5608
1.5068
1.45647
1.40748
1.35744
1.30459
1.24837
1.18951
1.12903
1.06704
1.00226
0.932429
0.855
0.767639
0.668736
0.557719
0.434716
0.300016
0.153739
-0.00445892
-0.175532
-0.360879
-0.561953
-0.77993
-1.01566
-1.26981
-1.54286
-1.8346
-2.1433
-2.46416
-2.78672
-3.09239
-3.3536
-3.53603
-3.60419
-3.53095
-3.31018
-2.96364
-2.53267
-2.06088
-1.58123
-1.11197
-0.658613
-0.217961
0.222871
0.652042
1.03522
1.35235
1.59579
1.77005
1.88715
1.96181
2.00873
2.03958
2.06064
2.0729
2.07417
2.06148
2.03221
1.98587
1.92542
1.85605
1.78357
1.71352
1.64972
1.59302
1.54144
1.49162
1.44039
1.38538
1.32599
1.26366
1.20033
1.1365
1.07054
0.99955
0.920352
0.830017
0.726605
0.609714
0.479864
0.337677
0.18352
0.0171189
-0.162701
-0.357771
-0.569988
-0.800827
-1.05136
-1.32266
-1.61594
-1.93208
-2.27078
-2.6288
-2.99644
-3.35352
-3.66756
-3.896
-3.99248
-3.91881
-3.66444
-3.25893
-2.75921
-2.22268
-1.68949
-1.17909
-0.694672
-0.229272
0.252306
0.736179
1.163
1.50862
1.76499
1.94006
2.05048
2.11503
2.15219
2.17642
2.19468
2.20666
2.20832
2.19513
2.1629
2.11024
2.04093
1.96165
1.87954
1.80165
1.73291
1.67414
1.62222
1.57246
1.52068
1.46378
1.40097
1.33482
1.26865
1.20346
1.13713
1.06586
0.985725
0.893049
0.78543
0.662786
0.526229
0.376786
0.215166
0.0412229
-0.146488
-0.350365
-0.572856
-0.815718
-1.08014
-1.36751
-1.67991
-2.01946
-2.38767
-2.78376
-3.19973
-3.61436
-3.98993
-4.27436
-4.40778
-4.33644
-4.04229
-3.56566
-2.98536
-2.37654
-1.78712
-1.23655
-0.724237
-0.238316
0.285361
0.830132
1.30439
1.67916
1.946
2.11791
2.21752
2.26802
2.29244
2.3087
2.32433
2.33701
2.34011
2.32743
2.2927
2.23311
2.15375
2.0633
1.97032
1.88376
1.8101
1.75009
1.69897
1.65023
1.59868
1.54013
1.47347
1.40287
1.33374
1.26777
1.20198
1.13136
1.05121
0.956858
0.845236
0.716828
0.573613
0.417064
0.248341
0.0675284
-0.127161
-0.338881
-0.570782
-0.824859
-1.10223
-1.40449
-1.73466
-2.09625
-2.49287
-2.92724
-3.39444
-3.87303
-4.31976
-4.67187
-4.85335
-4.7885
-4.44676
-3.8835
-3.20836
-2.51908
-1.8713
-1.28245
-0.746267
-0.244769
0.322585
0.935225
1.46111
1.86559
2.13964
2.30363
2.38787
2.41995
2.42832
2.43532
2.44896
2.46373
2.46954
2.45871
2.42219
2.35489
2.26402
2.16104
2.05574
1.95948
1.88097
1.8208
1.77185
1.7252
1.67477
1.6149
1.54365
1.46763
1.39531
1.32922
1.26505
1.19606
1.11689
1.02161
0.906055
0.771709
0.621808
0.458213
0.282679
0.0956841
-0.104996
-0.323535
-0.564003
-0.828564
-1.11797
-1.43382
-1.78022
-2.1621
-2.5853
-3.05734
-3.57817
-4.12727
-4.65562
-5.0889
-5.33269
-5.28066
-4.88145
-4.21164
-3.42466
-2.64642
-1.93905
-1.31496
-0.759834
-0.248352
0.364616
1.05288
1.63499
2.06965
2.34657
2.497
2.56108
2.56994
2.55852
2.55509
2.56791
2.58667
2.59661
2.58933
2.55211
2.476
2.37187
2.25497
2.13564
2.02838
1.94512
1.88619
1.84108
1.79765
1.74941
1.68866
1.61169
1.52883
1.45295
1.38761
1.3263
1.25995
1.18289
1.08755
0.967931
0.827266
0.670603
0.499924
0.317781
0.125314
-0.0802703
-0.304525
-0.552756
-0.827196
-1.12779
-1.45582
-1.81677
-2.2169
-2.66403
-3.17211
-3.74828
-4.3745
-4.99559
-5.52516
-5.84956
-5.81995
-5.35063
-4.54859
-3.62978
-2.75417
-1.98738
-1.3324
-0.764177
-0.248856
0.412219
1.18459
1.82792
2.29332
2.56732
2.69753
2.7367
2.71703
2.68158
2.66669
2.68058
2.70584
2.72123
2.71966
2.68338
2.59687
2.4773
2.34523
2.20986
2.08992
2.00205
1.94622
1.90698
1.86779
1.82304
1.76212
1.67783
1.58609
1.50617
1.44271
1.38579
1.32297
1.24931
1.15498
1.03091
0.883287
0.719798
0.541884
0.353215
0.156021
-0.0532498
-0.282011
-0.537263
-0.82116
-1.13221
-1.47092
-1.84464
-2.2608
-2.7283
-3.26955
-3.9019
-4.61185
-5.33724
-5.97945
-6.40785
-6.41517
-5.85946
-4.89193
-3.81811
-2.83754
-2.01337
-1.33339
-0.758765
-0.246154
0.466352
1.33187
2.04185
2.53885
2.80219
2.90434
2.91438
2.86031
2.79587
2.76864
2.78645
2.82143
2.8432
2.85002
2.81722
2.71792
2.58019
2.43209
2.27828
2.14348
2.0512
2.00089
1.96999
1.93579
1.89612
1.83623
1.74231
1.63888
1.55434
1.49431
1.44366
1.38503
1.31625
1.22439
1.09502
0.939482
0.769229
0.583787
0.388509
0.187381
-0.0241885
-0.256101
-0.517712
-0.810897
-1.13188
-1.47956
-1.86427
-2.29429
-2.77756
-3.34766
-4.03596
-4.83626
-5.6777
-6.44922
-7.01134
-7.07745
-6.41414
-5.23782
-3.98279
-2.89139
-2.01439
-1.31692
-0.743335
-0.240213
0.52828
1.49624
2.27862
2.80898
3.05118
3.11603
3.09398
2.99888
2.89952
2.85932
2.88509
2.93395
2.9621
2.98066
2.95525
2.83949
2.68014
2.51601
2.34083
2.18825
2.09185
2.05023
2.03074
2.00163
1.96906
1.91225
1.80541
1.68652
1.59669
1.54225
1.5002
1.44591
1.38374
1.29643
1.16029
0.995444
0.818794
0.625346
0.423143
0.218948
0.0066773
-0.226834
-0.494241
-0.79688
-1.12752
-1.48222
-1.8762
-2.31827
-2.81154
-3.40449
-4.14723
-5.04464
-6.01385
-6.9301
-7.66345
-7.82107
-7.02213
-5.58048
-4.11553
-2.91047
-1.98821
-1.28243
-0.717925
-0.2311
0.599754
1.67909
2.53988
3.10714
3.3138
3.33049
3.27582
3.13199
2.99047
2.93692
2.97622
3.04442
3.07712
3.11167
3.09974
2.96177
2.77638
2.59779
2.39752
2.2233
2.12315
2.09435
2.09017
2.06507
2.04217
1.99185
1.86741
1.72804
1.6323
1.58637
1.55597
1.50522
1.45176
1.37208
1.22668
1.05059
0.868516
0.666298
0.456539
0.25025
0.0391296
-0.194162
-0.466927
-0.779605
-1.12003
-1.47934
-1.88095
-2.33412
-2.83025
-3.43811
-4.23225
-5.23398
-6.34262
-7.41525
-8.36663
-8.66443
-7.69239
-5.91139
-4.20652
-2.88962
-1.93324
-1.22992
-0.682885
-0.21898
0.683299
1.88157
2.82684
3.43787
3.58895
3.5446
3.461
3.25898
3.06632
2.99937
3.0597
3.15454
3.18687
3.24283
3.25385
3.08469
2.86755
2.67873
2.44843
2.24746
2.14406
2.13342
2.14964
2.12547
2.11554
2.07735
1.92858
1.76224
1.66006
1.62661
1.61186
1.56228
1.52013
1.45273
1.29404
1.10409
0.918612
0.706414
0.488035
0.280793
0.0729649
-0.157928
-0.435763
-0.759579
-1.11048
-1.47124
-1.87898
-2.34385
-2.83401
-3.44672
-4.2873
-5.40152
-6.66156
-7.89451
-9.12171
-9.63146
-8.43563
-6.21819
-4.24448
-2.8241
-1.84868
-1.15995
-0.638866
-0.204109
0.782657
2.10446
3.1399
3.80732
3.87469
3.75388
3.65177
3.37935
3.12431
3.04438
3.13554
3.26706
3.28908
3.37344
3.42204
3.20777
2.95146
2.76092
2.49372
2.25927
2.15333
2.16768
2.21118
2.18157
2.18898
2.17188
1.98911
1.78753
1.67865
1.66292
1.66934
1.61599
1.58842
1.5404
1.36208
1.15472
0.96961
0.745493
0.516867
0.310068
0.107986
-0.117853
-0.400647
-0.7373
-1.1002
-1.45806
-1.87048
-2.35022
-2.82344
-3.4286
-4.30831
-5.54487
-6.96969
-8.35348
-9.92672
-10.7534
-9.26449
-6.48339
-4.2168
-2.70999
-1.73467
-1.07366
-0.58679
-0.18682
0.903421
2.34788
3.47818
4.22407
4.16783
3.95205
3.85221
3.49262
3.16126
3.06933
3.20378
3.38623
3.38021
3.50212
3.61066
3.32991
3.02473
2.84761
2.53356
2.25698
2.14947
2.19737
2.27776
2.2313
2.26178
2.2798
2.04898
1.8019
1.68658
1.6953
1.73063
1.66463
1.65588
1.63802
1.43021
1.2008
1.02251
0.783343
0.542131
0.337562
0.143985
-0.0735118
-0.361375
-0.713223
-1.09091
-1.43969
-1.85525
-2.35701
-2.79938
-3.38225
-4.29066
-5.66205
-7.26868
-8.77235
-10.7755
-12.0711
-10.1937
-6.6826
-4.11001
-2.54467
-1.59241
-0.972724
-0.527803
-0.167504
1.05394
2.61104
3.83885
4.70016
4.4636
4.13036
4.06901
3.59822
3.17344
3.07129
3.26439
3.5184
3.45498
3.62644
3.82867
3.44906
3.08241
2.94375
2.56802
2.23844
2.13076
2.22261
2.3537
2.27142
2.33261
2.40705
2.1078
1.80291
1.68218
1.7237
1.79904
1.70561
1.72128
1.74973
1.49745
1.23992
1.07898
0.819741
0.56275
0.36279
0.18072
-0.0243102
-0.31764
-0.687704
-1.08483
-1.41567
-1.83234
-2.36924
-2.76278
-3.30645
-4.22903
-5.75137
-7.56455
-9.12461
-11.6555
-13.638
-11.2403
-6.78235
-3.91049
-2.32731
-1.42422
-0.859308
-0.463215
-0.146586
1.24659
2.89181
4.21616
5.25251
4.755
4.27686
4.31256
3.69516
3.15658
3.04704
3.31694
3.67283
3.50568
3.7426
4.08857
3.56184
3.11741
3.05663
2.59689
2.20108
2.09522
2.24329
2.44518
2.2971
2.39917
2.56177
2.16453
1.78759
1.66362
1.74786
1.87939
1.73515
1.78268
1.88138
1.56222
1.2688
1.14168
0.854358
0.577428
0.385331
0.217874
0.0305408
-0.26904
-0.660915
-1.08488
-1.38512
-1.7998
-2.39361
-2.71451
-3.20046
-4.11707
-5.81107
-7.86986
-9.37563
-12.5455
-15.5236
-12.4232
-6.73751
-3.60577
-2.05933
-1.23348
-0.735927
-0.394425
-0.124509
1.49937
3.18626
4.60027
5.90475
5.03213
4.37544
4.59828
3.7815
3.10577
2.99317
3.36022
3.86275
3.52145
3.84484
4.40765
3.66302
3.11984
3.19681
2.61932
2.14191
2.04071
2.25871
2.56097
2.30143
2.45791
2.75497
2.21714
1.75248
1.62905
1.76716
1.97853
1.7479
1.83727
2.04105
1.62207
1.28297
1.2146
0.886632
0.584612
0.404892
0.255006
0.0920602
-0.215114
-0.632713
-1.09494
-1.34666
-1.75421
-2.43898
-2.655
-3.06428
-3.94715
-5.83867
-8.20654
-9.48114
-13.4121
-17.8181
-13.7634
-6.48813
-3.1862
-1.74481
-1.02454
-0.605325
-0.322855
-0.101708
1.83809
3.48803
4.9757
6.68946
5.28123
4.40472
4.9484
3.85369
3.01557
2.90618
3.39156
4.10671
3.48735
3.92487
4.80942
3.74486
3.07629
3.37924
2.63334
2.0575
1.96498
2.26723
2.71323
2.27482
2.50369
3.00144
2.26202
1.69367
1.57666
1.7802
2.10601
1.73645
1.88101
2.23977
1.6734
1.27652
1.30355
0.915594
0.582448
0.42139
0.291474
0.161542
-0.155398
-0.602457
-1.12013
-1.29838
-1.69011
-2.51701
-2.5838
-2.89905
-3.7101
-5.82985
-8.60933
-9.38565
-14.2056
-20.6379
-15.2831
-5.95591
-2.64743
-1.39074
-0.802479
-0.470326
-0.249882
-0.0785929
2.29899
3.78759
5.31947
7.65096
5.48356
4.33677
5.39403
3.90542
2.88006
2.78277
3.40595
4.43016
3.38321
3.97114
5.32536
3.79632
2.96895
3.62457
2.63523
1.9441
1.86588
2.26566
2.91863
2.20427
2.52928
3.32075
2.29335
1.60691
1.50489
1.78441
2.27495
1.69075
1.90836
2.49234
1.71102
1.2417
1.41667
0.939606
0.568755
0.435059
0.326339
0.240613
-0.0895149
-0.568767
-1.16719
-1.23778
-1.5994
-2.64301
-2.49891
-2.70752
-3.39495
-5.77682
-9.12994
-9.02097
-14.8555
-24.1311
-17.0048
-5.04005
-1.9935
-1.00696
-0.572817
-0.333678
-0.176776
-0.0555348
2.93198
4.0714
5.59882
8.84862
5.61402
4.13561
5.97762
3.92632
2.69314
2.62018
3.39487
4.86743
3.18246
3.96795
5.99695
3.8021
2.77459
3.96083
2.61856
1.79774
1.74156
2.24852
3.19959
2.07256
2.5249
3.73852
2.30222
1.4878
1.41268
1.7754
2.50296
1.59749
1.91186
2.81827
1.72771
1.16859
1.56519
0.956032
0.541017
0.446583
0.358249
0.331318
-0.01732
-0.529204
-1.24484
-1.16187
-1.47049
-2.83692
-2.39592
-2.49477
-2.98882
-5.66607
-9.84184
-8.3048
-15.2641
-28.4856
-18.9504
-3.61288
-1.24082
-0.605807
-0.341143
-0.197922
-0.104663
-0.0328559
3.80438
4.32089
5.76863
10.3606
5.63961
3.75563
6.75588
3.90015
2.44884
2.41675
3.34475
5.46398
2.85072
3.89454
6.87792
3.74158
2.46354
4.4253
2.5731
1.61453
1.59085
2.20703
3.58577
1.85733
2.47766
4.2878
2.2755
1.33209
1.29975
1.74618
2.81335
1.43937
1.88174
3.24284
1.71363
1.04466
1.7641
0.960803
0.496388
0.457254
0.385279
0.436221
0.0609135
-0.479881
-1.36428
-1.06716
-1.28743
-3.12452
-2.2669
-2.26896
-2.47705
-5.47546
-10.8456
-7.13963
-15.3009
-33.9362
-21.1389
-1.51514
-0.42285
-0.201265
-0.112736
-0.0652793
-0.0344905
-0.0108236
)
;

boundaryField
{
    left
    {
        type            calculated;
        value           uniform 0;
    }
    right
    {
        type            calculated;
        value           uniform 0;
    }
    interface
    {
        type            calculated;
        value           nonuniform List<scalar> 
64
(
3.80438
4.32089
5.76863
10.3606
5.63961
3.75563
6.75588
3.90015
2.44884
2.41675
3.34475
5.46398
2.85072
3.89454
6.87792
3.74158
2.46354
4.4253
2.5731
1.61453
1.59085
2.20703
3.58577
1.85733
2.47766
4.2878
2.2755
1.33209
1.29975
1.74618
2.81335
1.43937
1.88174
3.24284
1.71363
1.04466
1.7641
0.960803
0.496388
0.457254
0.385279
0.436221
0.0609135
-0.479881
-1.36428
-1.06716
-1.28743
-3.12452
-2.2669
-2.26896
-2.47705
-5.47546
-10.8456
-7.13963
-15.3009
-33.9362
-21.1389
-1.51514
-0.42285
-0.201265
-0.112736
-0.0652793
-0.0344905
-0.0108236
)
;
    }
    bottom
    {
        type            calculated;
        value           nonuniform List<scalar> 
64
(
0.00630473
0.018734
0.0306385
0.0417199
0.0517494
0.0605776
0.0681343
0.0744172
0.0794759
0.0833935
0.0862697
0.0882089
0.089313
0.089679
0.0893992
0.0885628
0.0872566
0.0855641
0.0835631
0.0813221
0.0788969
0.076328
0.0736405
0.0708444
0.0679374
0.0649075
0.0617351
0.0583947
0.0548553
0.0510812
0.047032
0.0426641
0.0379323
0.032792
0.0272014
0.0211228
0.014524
0.00737888
-0.00033217
-0.00862082
-0.0174886
-0.0269232
-0.0368932
-0.0473413
-0.0581758
-0.0692621
-0.080413
-0.0913813
-0.101856
-0.111464
-0.119782
-0.126359
-0.130753
-0.13257
-0.131511
-0.127416
-0.120277
-0.110247
-0.0976153
-0.0827648
-0.0661295
-0.0481501
-0.0292468
-0.00980737
)
;
    }
    defaultFaces
    {
        type            empty;
    }
}


// ************************************************************************* //
