/*--------------------------------*- C++ -*----------------------------------*\
| =========                 |                                                 |
| \\      /  F ield         | OpenFOAM: The Open Source CFD Toolbox           |
|  \\    /   O peration     | Version:  5.x                                   |
|   \\  /    A nd           | Web:      www.OpenFOAM.org                      |
|    \\/     M anipulation  |                                                 |
\*---------------------------------------------------------------------------*/
FoamFile
{
    version     2.0;
    format      ascii;
    class       volScalarField;
    location    "18.6999";
    object      gradTx;
}
// * * * * * * * * * * * * * * * * * * * * * * * * * * * * * * * * * * * * * //

dimensions      [0 -1 0 1 0 0 0];

internalField   nonuniform List<scalar> 
6300
(
-31.9552
-32.0259
-32.1666
-32.376
-32.6517
-32.9906
-33.3884
-33.8398
-34.338
-34.8749
-35.4412
-36.0265
-36.6197
-37.2095
-37.7854
-31.8845
-31.9559
-32.098
-32.3096
-32.5885
-32.9316
-33.3349
-33.793
-34.2993
-34.8455
-35.4222
-36.0186
-36.623
-37.2235
-37.8087
-31.7424
-31.8151
-31.96
-32.176
-32.461
-32.8125
-33.2266
-33.6981
-34.2206
-34.7857
-35.3836
-36.0027
-36.6302
-37.2527
-37.8573
-31.5276
-31.6022
-31.751
-31.9732
-32.2672
-32.6308
-33.0607
-33.5523
-34.0992
-34.6931
-35.3237
-35.9783
-36.6424
-37.3
-37.9354
-31.2381
-31.315
-31.4687
-31.6985
-32.0038
-32.3828
-32.8332
-33.3511
-33.9307
-34.5639
-35.2399
-35.9446
-36.6609
-37.3694
-38.0498
-30.8718
-30.9512
-31.1101
-31.3485
-31.6665
-32.0635
-32.5383
-33.0882
-33.7085
-34.392
-35.1273
-35.8991
-36.6873
-37.4671
-38.2112
-30.4261
-30.5079
-30.6719
-30.919
-31.2502
-31.6664
-32.1682
-32.7548
-33.4234
-34.168
-34.9782
-35.8374
-36.7219
-37.6003
-38.4349
-29.8986
-29.9823
-30.1507
-30.4053
-30.7488
-31.1838
-31.7133
-32.3393
-33.0621
-33.8786
-34.7802
-35.7505
-36.7627
-37.7773
-38.742
-29.2874
-29.3722
-29.5431
-29.8029
-30.1557
-30.6067
-31.1619
-31.8271
-32.6072
-33.504
-34.5134
-35.6216
-36.8009
-38.0043
-39.1608
-28.5915
-28.6759
-28.8466
-29.1075
-29.4645
-29.9255
-30.5003
-31.1999
-32.0357
-33.0169
-34.1477
-35.4216
-36.815
-38.2783
-39.7232
-27.8111
-27.8932
-28.0598
-28.3159
-28.6693
-29.1306
-29.7139
-30.4366
-31.3186
-32.3802
-33.6388
-35.1021
-36.7591
-38.5705
-40.4501
-26.9486
-27.026
-27.1836
-27.4272
-27.766
-28.2136
-28.7882
-29.5141
-30.4217
-31.5464
-32.9252
-34.5884
-36.5485
-38.7943
-41.2987
-26.0088
-26.0787
-26.2214
-26.4431
-26.754
-27.1694
-27.7112
-28.4099
-29.3076
-30.4584
-31.9269
-33.7772
-36.0508
-38.7573
-41.9967
-24.999
-25.0585
-25.1801
-25.3698
-25.6376
-25.9989
-26.477
-27.1069
-27.9402
-29.0523
-30.5459
-32.5405
-35.1151
-38.1777
-41.5905
-23.9299
-23.976
-24.0706
-24.2184
-24.4276
-24.7115
-25.0911
-25.6003
-26.2941
-27.2642
-28.662
-30.7185
-33.6765
-37.2133
-37.6609
-38.294
-38.7335
-39.1489
-39.5381
-39.9004
-40.2357
-40.5442
-40.8266
-41.0831
-41.3134
-41.5171
-41.693
-41.8403
-41.958
-42.0462
-42.1056
-42.1381
-42.1468
-42.1354
-42.1083
-42.0695
-42.023
-41.9716
-41.9172
-41.8602
-41.8001
-41.7353
-41.6641
-41.5843
-41.4947
-41.3945
-41.2841
-41.1649
-41.0393
-40.9101
-40.7801
-40.652
-40.5276
-40.4077
-40.2923
-40.18
-40.069
-39.957
-39.8417
-39.7213
-39.595
-39.4629
-39.326
-39.1862
-39.0461
-38.9082
-38.7748
-38.6474
-38.5268
-38.4125
-38.3034
-38.1974
-38.0923
-37.9859
-37.8764
-37.7629
-37.6454
-37.5248
-37.4031
-37.2825
-37.1653
-37.0538
-36.9496
-36.8532
-36.7645
-36.6824
-36.6053
-36.5314
-36.459
-36.387
-36.3155
-36.2454
-36.1788
-36.119
-36.0697
-36.035
-36.0185
-36.0232
-36.0508
-36.1015
-36.1736
-36.2638
-36.367
-36.4771
-36.5873
-38.3243
-38.7683
-39.1864
-39.577
-39.9394
-40.2741
-40.582
-40.864
-41.1207
-41.3519
-41.557
-41.7344
-41.8827
-42.0006
-42.0876
-42.1442
-42.1725
-42.1757
-42.1582
-42.1249
-42.0807
-42.03
-41.976
-41.9208
-41.8647
-41.8067
-41.7448
-41.6762
-41.5986
-41.5099
-41.4091
-41.2967
-41.1743
-41.0446
-40.9111
-40.7775
-40.6466
-40.521
-40.4014
-40.2877
-40.1782
-40.0705
-39.9617
-39.8489
-39.7299
-39.6034
-39.4697
-39.33
-39.1868
-39.043
-38.9018
-38.7661
-38.6377
-38.5176
-38.4051
-38.2988
-38.1961
-38.0942
-37.9903
-37.8822
-37.7686
-37.6497
-37.5266
-37.4015
-37.2774
-37.1572
-37.0435
-36.9382
-36.8421
-36.7549
-36.6752
-36.6007
-36.5292
-36.4583
-36.3865
-36.3135
-36.2402
-36.1691
-36.1038
-36.0488
-36.0086
-35.9879
-35.9902
-36.0177
-36.0707
-36.1477
-36.245
-36.3571
-36.4771
-36.5972
-38.3871
-38.8402
-39.2638
-39.6564
-40.0183
-40.3511
-40.6569
-40.9378
-41.1949
-41.4282
-41.6366
-41.8177
-41.9689
-42.0877
-42.1726
-42.2237
-42.243
-42.2345
-42.2038
-42.1572
-42.1012
-42.0415
-41.9823
-41.9258
-41.872
-41.819
-41.7636
-41.7016
-41.6289
-41.5424
-41.4406
-41.3237
-41.194
-41.0553
-40.9125
-40.7706
-40.6339
-40.5055
-40.3868
-40.277
-40.1739
-40.0737
-39.9721
-39.865
-39.749
-39.6224
-39.4852
-39.3392
-39.1881
-39.036
-38.8876
-38.7468
-38.6163
-38.4973
-38.3889
-38.289
-38.1937
-38.099
-38.0008
-37.8957
-37.7822
-37.66
-37.5311
-37.3987
-37.2667
-37.1396
-37.021
-36.9136
-36.8183
-36.7346
-36.6603
-36.5921
-36.5261
-36.4588
-36.3877
-36.3118
-36.232
-36.1511
-36.074
-36.0063
-35.9544
-35.9243
-35.921
-35.9477
-36.0053
-36.0925
-36.2048
-36.3358
-36.4768
-36.6182
-38.4877
-38.9547
-39.3857
-39.7799
-40.1392
-40.467
-40.7679
-41.0458
-41.3032
-41.5404
-41.7554
-41.9442
-42.1019
-42.2237
-42.3063
-42.3488
-42.3534
-42.3253
-42.2721
-42.203
-42.1271
-42.0524
-41.9847
-41.9267
-41.8779
-41.8349
-41.7919
-41.7422
-41.679
-41.5971
-41.4937
-41.3691
-41.2266
-41.072
-40.9127
-40.7562
-40.6092
-40.4762
-40.3591
-40.2567
-40.1652
-40.0788
-39.9906
-39.894
-39.7836
-39.6566
-39.5131
-39.356
-39.1907
-39.0238
-38.8624
-38.7125
-38.5784
-38.4615
-38.3608
-38.2723
-38.1906
-38.109
-38.021
-37.9216
-37.808
-37.6802
-37.5408
-37.395
-37.2491
-37.1097
-36.9825
-36.8714
-36.7779
-36.7009
-36.6367
-36.5801
-36.5248
-36.4649
-36.3959
-36.3157
-36.2251
-36.1279
-36.0305
-35.9411
-35.8687
-35.8221
-35.8085
-35.833
-35.8976
-36.0009
-36.1379
-36.3
-36.4759
-36.6527
-38.6348
-39.1208
-39.5605
-39.9539
-40.3052
-40.6217
-40.9119
-41.1833
-41.4407
-41.6847
-41.9119
-42.1155
-42.2865
-42.4161
-42.4978
-42.5286
-42.511
-42.4522
-42.3635
-42.2586
-42.1512
-42.0533
-41.9732
-41.9144
-41.8756
-41.8507
-41.83
-41.8022
-41.7561
-41.6827
-41.5774
-41.4402
-41.2765
-41.0955
-40.9087
-40.7283
-40.5644
-40.4241
-40.3102
-40.2207
-40.1493
-40.0865
-40.0212
-39.9426
-39.842
-39.7147
-39.5607
-39.3847
-39.1954
-39.0036
-38.8205
-38.6556
-38.5155
-38.4026
-38.3148
-38.2461
-38.1874
-38.128
-38.0576
-37.9679
-37.8543
-37.7168
-37.5599
-37.3916
-37.2222
-37.0622
-36.9207
-36.8038
-36.7138
-36.6485
-36.6023
-36.5662
-36.5301
-36.484
-36.4202
-36.3346
-36.2278
-36.1049
-35.9754
-35.8513
-35.746
-35.6723
-35.6412
-35.6606
-35.7342
-35.8609
-36.0347
-36.2442
-36.4737
-36.705
-38.8421
-39.3536
-39.8021
-40.1886
-40.5214
-40.8143
-41.083
-41.3412
-41.5974
-41.8532
-42.1025
-42.3336
-42.5306
-42.6777
-42.7623
-42.7783
-42.7279
-42.6221
-42.4782
-42.3177
-42.1617
-42.0286
-41.9308
-41.8734
-41.8534
-41.8604
-41.8784
-41.8886
-41.8722
-41.8144
-41.7069
-41.5497
-41.3514
-41.1271
-40.8958
-40.6764
-40.4855
-40.334
-40.2262
-40.1586
-40.121
-40.0979
-40.0711
-40.0229
-39.9389
-39.8112
-39.6398
-39.4326
-39.2038
-38.9711
-38.7524
-38.5631
-38.4135
-38.3074
-38.2413
-38.2055
-38.1851
-38.163
-38.122
-38.0486
-37.9351
-37.7815
-37.5952
-37.3897
-37.1816
-36.9881
-36.8235
-36.6976
-36.6139
-36.5689
-36.5532
-36.5524
-36.5498
-36.5287
-36.476
-36.3842
-36.2534
-36.0915
-35.9124
-35.7345
-35.5777
-35.4612
-35.4013
-35.4101
-35.4941
-35.6533
-35.8802
-36.1595
-36.4691
-36.7819
-39.1311
-39.6772
-40.133
-40.5004
-40.795
-41.0418
-41.2692
-41.5018
-41.7548
-42.0308
-42.3196
-42.6006
-42.8466
-43.0293
-43.1257
-43.1234
-43.0247
-42.8466
-42.6171
-42.3701
-42.1392
-41.9529
-41.8302
-41.7785
-41.7922
-41.8541
-41.9382
-42.0132
-42.0481
-42.0178
-41.9078
-41.7183
-41.4637
-41.1691
-40.8655
-40.5836
-40.3498
-40.1812
-40.0842
-40.0533
-40.0717
-40.1145
-40.1519
-40.1547
-40.0988
-39.9706
-39.7704
-39.5115
-39.2178
-38.9183
-38.642
-38.4135
-38.249
-38.1544
-38.1242
-38.1425
-38.1855
-38.225
-38.2331
-38.187
-38.0737
-37.8932
-37.6583
-37.3915
-37.1203
-36.8722
-36.6706
-36.5307
-36.4581
-36.4472
-36.4826
-36.5414
-36.5959
-36.619
-36.588
-36.4899
-36.3241
-36.1027
-35.8477
-35.5874
-35.3516
-35.1685
-35.0624
-35.0513
-35.1458
-35.3481
-35.65
-36.0313
-36.4598
-36.8945
-39.535
-40.131
-40.591
-40.9173
-41.1374
-41.2973
-41.448
-41.6332
-41.8791
-42.1899
-42.548
-42.9181
-43.2537
-43.5054
-43.6312
-43.6073
-43.4359
-43.145
-42.7812
-42.3993
-42.0527
-41.7856
-41.6276
-41.5894
-41.6615
-41.8161
-42.0109
-42.1954
-42.3181
-42.3357
-42.2232
-41.9808
-41.6334
-41.2241
-40.8037
-40.4219
-40.1199
-39.9252
-39.8473
-39.8769
-39.9874
-40.1386
-40.2827
-40.3709
-40.3625
-40.234
-39.9854
-39.6407
-39.2402
-38.8319
-38.4628
-38.1716
-37.9839
-37.9088
-37.9373
-38.044
-38.1909
-38.3324
-38.4224
-38.422
-38.309
-38.0832
-37.7673
-37.3996
-37.0255
-36.6896
-36.4287
-36.2671
-36.2134
-36.2587
-36.3786
-36.5363
-36.6875
-36.7871
-36.7966
-36.693
-36.4749
-36.1622
-35.7909
-35.4049
-35.0493
-34.7651
-34.5868
-34.5403
-34.6423
-34.8996
-35.3056
-35.835
-36.4414
-37.0606
-40.1045
-40.7804
-41.2417
-41.4869
-41.5667
-41.566
-41.5773
-41.6771
-41.9099
-42.2809
-42.7592
-43.2854
-43.7816
-44.1626
-44.3521
-44.3037
-44.0192
-43.5485
-42.9714
-42.3778
-41.8515
-41.4612
-41.2524
-41.2413
-41.4121
-41.72
-42.0986
-42.4668
-42.7393
-42.8409
-42.7258
-42.3943
-41.8924
-41.2951
-40.6863
-40.1451
-39.7358
-39.5009
-39.4554
-39.5841
-39.8443
-40.1731
-40.494
-40.7263
-40.7994
-40.6701
-40.3391
-39.85
-39.2736
-38.6893
-38.1714
-37.7806
-37.5567
-37.514
-37.6377
-37.8876
-38.2039
-38.514
-38.7416
-38.8194
-38.7065
-38.4032
-37.951
-37.4167
-36.8759
-36.399
-36.0437
-35.8482
-35.826
-35.9628
-36.2201
-36.5404
-36.8535
-37.0848
-37.168
-37.0612
-36.7617
-36.306
-35.7551
-35.1788
-34.6441
-34.2093
-33.9215
-33.8153
-33.9152
-34.2371
-34.7835
-35.528
-36.4045
-37.3095
-40.9163
-41.7388
-42.2038
-42.2945
-42.1118
-41.8175
-41.5792
-41.5294
-41.7417
-42.2176
-42.9013
-43.6959
-44.4755
-45.0956
-45.4156
-45.3402
-44.8707
-44.105
-43.1856
-42.2591
-41.4545
-40.8755
-40.5924
-40.6315
-40.9651
-41.5224
-42.2011
-42.876
-43.4066
-43.6583
-43.5401
-43.053
-42.2889
-41.3824
-40.4717
-39.6785
-39.1005
-38.8037
-38.8129
-39.1016
-39.6026
-40.2191
-40.8327
-41.3111
-41.5275
-41.3968
-40.9202
-40.1851
-39.3186
-38.451
-37.6972
-37.149
-36.8688
-36.8796
-37.1565
-37.6357
-38.2258
-38.8145
-39.2765
-39.4914
-39.3781
-38.9377
-38.2527
-37.4435
-36.634
-35.9332
-35.4287
-35.18
-35.2094
-35.4933
-35.9711
-36.555
-37.1372
-37.5959
-37.813
-37.7068
-37.2736
-36.5869
-35.756
-34.8928
-34.0949
-33.442
-32.9945
-32.7938
-32.8681
-33.2514
-33.976
-35.0307
-36.3268
-37.6907
-42.0807
-43.2122
-43.7044
-43.4956
-42.8175
-41.9887
-41.3098
-41.0044
-41.1939
-41.855
-42.8836
-44.1278
-45.3993
-46.4609
-47.0483
-46.944
-46.149
-44.8829
-43.4099
-41.9649
-40.7328
-39.8638
-39.4684
-39.5975
-40.1959
-41.1499
-42.3091
-43.4928
-44.4756
-45.0081
-44.8857
-44.1105
-42.8905
-41.4757
-40.088
-38.9022
-38.06
-37.666
-37.768
-38.3135
-39.1946
-40.2692
-41.3662
-42.2732
-42.7556
-42.6214
-41.8737
-40.7095
-39.3648
-38.0491
-36.9268
-36.1315
-35.7616
-35.8622
-36.3837
-37.2243
-38.2495
-39.2976
-40.1673
-40.6359
-40.5208
-39.8244
-38.7332
-37.4707
-36.2357
-35.1848
-34.4452
-34.1113
-34.2265
-34.7446
-35.5691
-36.5721
-37.5988
-38.4549
-38.9234
-38.8234
-38.1505
-37.0755
-35.8035
-34.5126
-33.3368
-32.379
-31.7122
-31.3764
-31.3759
-31.7744
-32.6932
-34.186
-36.1513
-38.292
-43.7258
-45.6083
-46.2151
-45.3711
-43.7388
-41.9446
-40.5028
-39.7668
-39.9669
-40.9633
-42.5556
-44.5206
-46.6252
-48.509
-49.6773
-49.5424
-48.1055
-45.9587
-43.5938
-41.3641
-39.4883
-38.1699
-37.5892
-37.8877
-38.9146
-40.4818
-42.3821
-44.3987
-46.1931
-47.3011
-47.1714
-45.8084
-43.7727
-41.5298
-39.4136
-37.6309
-36.3743
-35.8142
-36.0844
-37.0419
-38.5081
-40.287
-42.173
-43.8468
-44.8716
-44.7295
-43.4268
-41.4937
-39.3695
-37.3686
-35.6855
-34.5014
-33.9769
-34.2386
-35.1515
-36.5471
-38.2403
-40.0374
-41.6357
-42.6209
-42.5007
-41.2798
-39.4602
-37.4583
-35.5724
-33.9879
-32.8776
-32.3957
-32.6636
-33.5546
-34.9099
-36.5551
-38.306
-39.8723
-40.8523
-40.765
-39.6062
-37.8479
-35.8783
-33.9667
-32.2646
-30.897
-29.9532
-29.476
-29.3092
-29.5481
-30.5839
-32.6606
-35.7235
-39.2773
-45.8439
-49.8493
-50.8227
-48.3798
-44.8876
-41.3922
-38.6799
-37.1816
-37.5932
-39.2138
-41.6906
-44.7126
-48.1691
-51.5874
-54.1831
-54.0154
-51.0845
-47.3484
-43.5833
-40.2537
-37.441
-35.4138
-34.444
-35.1289
-36.8556
-39.3338
-42.2877
-45.6247
-48.899
-51.3763
-51.2331
-48.4751
-44.9532
-41.4016
-38.2588
-35.6022
-33.6855
-32.7666
-33.4111
-35.0378
-37.3715
-40.1503
-43.2856
-46.3552
-48.6676
-48.509
-45.8879
-42.5529
-39.1967
-36.2305
-33.7259
-31.9212
-31.0602
-31.6775
-33.2242
-35.4412
-38.0816
-41.0633
-43.9871
-46.1975
-46.0655
-43.5974
-40.4497
-37.2788
-34.4752
-32.108
-30.4053
-29.6003
-30.2036
-31.6957
-33.8335
-36.386
-39.2789
-42.1339
-44.3182
-44.2494
-41.9253
-38.9246
-35.8698
-33.1188
-30.7109
-28.8049
-27.5222
-27.1287
-26.6583
-26.1742
-26.9758
-29.7151
-34.5887
-40.9783
-47.3695
-58.4744
-60.396
-52.918
-46.0269
-39.7046
-35.107
-31.8459
-33.4785
-36.2314
-40.0405
-44.2791
-49.7678
-55.8506
-62.668
-62.4676
-55.2228
-48.7801
-42.9454
-38.3991
-34.2626
-31.1352
-28.9158
-30.8699
-33.7142
-37.501
-41.6414
-46.941
-52.7524
-59.2252
-59.06
-52.2419
-46.1764
-40.6846
-36.4039
-32.508
-29.5599
-27.4677
-29.3236
-32.0156
-35.5941
-39.5
-44.493
-49.9537
-56.0218
-55.8346
-49.3767
-43.6428
-38.4624
-34.4276
-30.7583
-27.9822
-26.0146
-27.778
-30.3317
-33.7255
-37.4317
-42.1723
-47.366
-53.1472
-52.9941
-46.8939
-41.4725
-36.5703
-32.7495
-29.2714
-26.6404
-24.7772
-26.4634
-28.9073
-32.1599
-35.7267
-40.3064
-45.3612
-51.0288
-50.9816
-45.2188
-40.079
-35.4238
-31.7767
-28.4347
-25.8152
-23.8109
-24.8918
-24.0274
-20.9488
-20.5775
-23.6963
-31.2709
-44.1092
-40.992
-80.2751
-83.6696
-56.7784
-46.3709
-35.5306
-29.6091
-19.4632
-27.7505
-31.7283
-37.7717
-42.0457
-50.5109
-59.0559
-81.2586
-81.064
-58.2058
-49.3365
-40.4521
-35.9545
-29.6309
-25.5492
-17.3777
-25.3292
-29.2157
-35.1591
-39.3257
-47.5204
-55.6534
-76.6327
-76.4669
-54.9252
-46.5733
-38.2238
-33.9949
-28.0491
-24.2016
-16.4837
-24.0319
-27.7167
-33.3453
-37.2842
-45.0269
-52.6777
-72.3838
-72.19
-51.8229
-43.9357
-36.0786
-32.0983
-26.5045
-22.8789
-15.5963
-22.7403
-26.2296
-31.5599
-35.2923
-42.6288
-49.899
-68.6424
-68.4865
-49.2128
-41.7478
-34.3044
-30.5302
-25.2152
-21.7697
-14.8428
-21.632
-24.9543
-30.034
-33.6088
-40.6496
-47.706
-65.9685
-65.9442
-47.615
-40.5356
-33.5263
-29.9951
-25.1181
-21.9395
-15.6567
-25.4565
-24.5846
-11.8251
-9.1533
-11.261
-20.3734
-50.2144
-36.6997
-36.8036
-36.8789
-36.92
-36.9253
-36.8966
-36.8385
-36.7579
-36.6631
-36.5625
-36.4643
-36.3762
-36.3044
-36.2537
-36.2275
-36.7197
-36.8323
-36.913
-36.9559
-36.9594
-36.9259
-36.8609
-36.7723
-36.6689
-36.56
-36.4544
-36.3599
-36.2832
-36.2292
-36.2013
-36.7619
-36.893
-36.9849
-37.0311
-37.0305
-36.9867
-36.9071
-36.8013
-36.6801
-36.5541
-36.4332
-36.3259
-36.2393
-36.1786
-36.1473
-36.8317
-36.9928
-37.1025
-37.1532
-37.1447
-37.0832
-36.9793
-36.8458
-36.6962
-36.5433
-36.3984
-36.2713
-36.1694
-36.0984
-36.062
-36.9377
-37.1439
-37.2791
-37.3344
-37.3119
-37.2223
-37.0812
-36.9065
-36.7156
-36.5243
-36.346
-36.1914
-36.0687
-35.9838
-35.9404
-37.0945
-37.3661
-37.5356
-37.5934
-37.5463
-37.4127
-37.2167
-36.9833
-36.7354
-36.4924
-36.2698
-36.0795
-35.9302
-35.8275
-35.7753
-37.3254
-37.6905
-37.9039
-37.9571
-37.8671
-37.6656
-37.3897
-37.0747
-36.7502
-36.44
-36.1614
-35.9268
-35.7448
-35.6209
-35.5581
-37.6683
-38.1665
-38.4324
-38.4642
-38.2992
-37.9929
-37.602
-37.1753
-36.7509
-36.3559
-36.0089
-35.7216
-35.5015
-35.3529
-35.2781
-38.1871
-38.8748
-39.1951
-39.1681
-38.8728
-38.4048
-37.8498
-37.2738
-36.7222
-36.224
-35.7965
-35.4492
-35.1868
-35.0112
-34.9234
-38.9937
-39.9504
-40.3051
-40.1402
-39.6191
-38.9036
-38.1188
-37.3478
-36.6399
-36.0214
-35.5041
-35.092
-34.7851
-34.5818
-34.4807
-40.2972
-41.628
-41.9347
-41.4686
-40.5596
-39.4718
-38.3741
-37.3587
-36.4684
-35.7175
-35.1064
-34.6295
-34.2797
-34.0504
-33.937
-42.5184
-44.3298
-44.337
-43.2399
-41.679
-40.0499
-38.547
-37.2447
-36.1573
-35.2737
-34.5745
-34.04
-33.6537
-33.403
-33.2798
-46.5966
-48.8358
-47.8435
-45.4751
-42.8667
-40.5018
-38.5192
-36.9156
-35.6425
-34.6456
-33.8778
-33.3024
-32.8921
-32.6283
-32.4993
-54.9114
-56.5732
-52.7262
-47.9502
-43.8108
-40.5714
-38.1125
-36.256
-34.8516
-33.7884
-32.9889
-32.3995
-31.9841
-31.7189
-31.5897
-74.4917
-69.8194
-58.5378
-49.7887
-43.8552
-39.8603
-37.1033
-35.1445
-33.7194
-32.6676
-31.8897
-31.3226
-30.9257
-30.6736
-30.551
-22.9075
-22.9395
-23.0048
-23.1066
-23.25
-23.4436
-23.702
-24.0499
-24.5316
-25.2325
-26.3287
-28.2116
-31.793
-39.0643
-52.1093
-21.9557
-21.9739
-22.0107
-22.067
-22.1445
-22.2461
-22.3771
-22.5474
-22.7771
-23.1106
-23.6581
-24.737
-27.4538
-36.5961
-78.02
-20.9914
-20.9955
-21.003
-21.0126
-21.0222
-21.0281
-21.0248
-21.0037
-20.9506
-20.8401
-20.6167
-20.1073
-18.5454
-11.6976
25.32
-20.0242
-20.0146
-19.9937
-19.9583
-19.9024
-19.8164
-19.685
-19.4823
-19.1641
-18.6488
-17.7751
-16.202
-13.2109
-7.73861
-3.90269
-19.0637
-19.0415
-18.9946
-18.9182
-18.8035
-18.6364
-18.3945
-18.0411
-17.5144
-16.7068
-15.422
-13.2902
-9.58299
-2.63233
13.4362
-18.1187
-18.0854
-18.0161
-17.9047
-17.7408
-17.5083
-17.1814
-16.7201
-16.0598
-15.096
-13.6578
-11.4772
-8.20868
-3.85385
-1.97716
-17.1967
-17.1544
-17.0668
-16.9275
-16.726
-16.4456
-16.0618
-15.5372
-14.8159
-13.8143
-12.4087
-10.4211
-7.58947
-3.35351
4.89671
-16.3042
-16.2549
-16.1534
-15.9936
-15.7657
-15.4549
-15.0399
-14.4909
-13.7667
-12.8131
-11.5636
-9.95129
-7.94571
-5.64069
-3.48376
-15.4458
-15.3915
-15.2804
-15.107
-14.8631
-14.5365
-14.1111
-13.5661
-12.8769
-12.0174
-10.9704
-9.75462
-8.50998
-7.82499
-10.3664
-14.6252
-14.5677
-14.4506
-14.2695
-14.0178
-13.6867
-13.2652
-12.7416
-12.1052
-11.352
-10.4944
-9.57797
-8.68562
-7.76871
-5.05824
-13.8444
-13.7853
-13.6652
-13.481
-13.2277
-12.8996
-12.4904
-11.9954
-11.4147
-10.7589
-10.0594
-9.38453
-8.87833
-8.95798
-11.8237
-13.1048
-13.0451
-12.9244
-12.7404
-12.4897
-12.1688
-11.7751
-11.3087
-10.7762
-10.1962
-9.60721
-9.07395
-8.66418
-8.21249
-5.59066
-12.4066
-12.3473
-12.2276
-12.046
-11.8003
-11.4886
-11.1102
-10.6679
-10.1708
-9.63978
-9.11631
-8.67762
-8.47913
-8.97405
-12.5256
-11.7497
-11.6913
-11.5739
-11.3962
-11.1569
-10.8547
-10.4898
-10.0651
-9.5888
-9.07812
-8.56652
-8.11448
-7.81254
-7.61299
-5.50166
-11.1333
-11.0764
-10.962
-10.7893
-10.557
-10.2643
-9.9109
-9.49828
-9.03068
-8.51709
-7.97538
-7.44709
-7.07483
-7.57957
-13.4367
-10.5564
-10.5013
-10.3907
-10.2236
-9.99912
-9.71599
-9.37313
-8.96961
-8.5045
-7.97559
-7.37491
-6.67136
-5.72809
-3.82919
3.37652
-10.0179
-9.96486
-9.85846
-9.69788
-9.48198
-9.2092
-8.87748
-8.48371
-8.02262
-7.48391
-6.84589
-6.06208
-5.04497
-3.76409
-3.62201
-9.51609
-9.46548
-9.36389
-9.21057
-9.00432
-8.74335
-8.42491
-8.04457
-7.59465
-7.06121
-6.41811
-5.61483
-4.54503
-2.90817
0.762744
-9.04947
-9.0015
-8.90525
-8.76002
-8.56468
-8.31741
-8.01535
-7.65375
-7.22467
-6.71466
-6.10158
-5.35264
-4.43889
-3.46476
-3.5878
-8.61617
-8.57107
-8.48062
-8.34428
-8.16109
-7.92953
-7.64712
-7.30979
-6.91089
-6.43968
-5.87941
-5.20491
-4.37469
-3.25943
-1.00771
-8.21419
-8.17214
-8.08788
-7.96107
-7.7911
-7.57698
-7.31704
-7.0086
-6.64734
-6.22656
-5.73655
-5.16531
-4.50845
-3.84329
-3.87991
-7.84142
-7.80252
-7.72469
-7.60783
-7.45178
-7.25623
-7.02064
-6.74409
-6.42511
-6.06152
-5.65012
-5.18516
-4.64796
-3.93981
-2.45237
-7.49567
-7.45995
-7.3886
-7.28182
-7.1399
-6.96331
-6.75269
-6.50904
-6.23387
-5.92969
-5.60088
-5.25519
-4.9062
-4.57748
-4.31697
-7.17473
-7.14213
-7.07713
-6.98021
-6.8521
-6.69401
-6.5077
-6.29589
-6.06277
-5.81497
-5.56337
-5.32751
-5.15037
-5.16778
-6.00061
-6.87644
-6.8468
-6.78785
-6.70025
-6.58514
-6.4443
-6.28041
-6.09754
-5.90188
-5.70288
-5.51493
-5.35905
-5.25944
-5.1918
-4.65722
-6.59873
-6.57184
-6.51845
-6.4394
-6.33606
-6.21061
-6.06631
-5.90807
-5.7433
-5.58313
-5.44422
-5.35152
-5.34633
-5.54006
-6.54791
-6.3397
-6.31529
-6.26689
-6.19541
-6.10234
-5.99001
-5.86188
-5.72314
-5.58153
-5.44862
-5.34143
-5.28322
-5.29507
-5.32295
-4.71064
-6.09763
-6.0754
-6.03136
-5.96641
-5.88201
-5.78038
-5.66484
-5.54021
-5.41372
-5.29625
-5.20463
-5.16627
-5.2327
-5.5504
-6.87592
-5.871
-5.85066
-5.81036
-5.75092
-5.67364
-5.58043
-5.47409
-5.35859
-5.23966
-5.12592
-5.03084
-4.97655
-4.99584
-5.07796
-4.55283
-5.65849
-5.63978
-5.60267
-5.54783
-5.47632
-5.38961
-5.28972
-5.17933
-5.06201
-4.94264
-4.82873
-4.73574
-4.71535
-5.02722
-7.27386
-5.45899
-5.44167
-5.40728
-5.35633
-5.28956
-5.20794
-5.11264
-5.0049
-4.88578
-4.75557
-4.61209
-4.44453
-4.20412
-3.63289
-1.14894
-5.27152
-5.25542
-5.22341
-5.17582
-5.11311
-5.03578
-4.94421
-4.83837
-4.71725
-4.57772
-4.41217
-4.20391
-3.92264
-3.56681
-3.7051
-5.09523
-5.08023
-5.05036
-5.00581
-4.94681
-4.8735
-4.78568
-4.68245
-4.56152
-4.41795
-4.2419
-4.01399
-3.69293
-3.15761
-1.79784
-4.92935
-4.91537
-4.8875
-4.84583
-4.79047
-4.72131
-4.63786
-4.53884
-4.42151
-4.28075
-4.10765
-3.88877
-3.61201
-3.32092
-3.50568
-4.77318
-4.76018
-4.73421
-4.69538
-4.6437
-4.57904
-4.50086
-4.40793
-4.29778
-4.166
-4.00521
-3.80373
-3.54106
-3.15377
-2.24723
-4.62606
-4.61398
-4.58987
-4.55384
-4.50595
-4.44615
-4.37411
-4.28898
-4.18908
-4.07138
-3.93103
-3.76117
-3.55667
-3.34721
-3.45376
-4.48732
-4.47613
-4.45382
-4.42055
-4.37648
-4.32177
-4.25645
-4.1803
-4.09274
-3.99251
-3.87735
-3.74269
-3.57571
-3.32119
-2.67152
-4.35636
-4.346
-4.32539
-4.29475
-4.25441
-4.20477
-4.1463
-4.07956
-4.00519
-3.92402
-3.8372
-3.74664
-3.65555
-3.56957
-3.50083
-4.23259
-4.22299
-4.20392
-4.1757
-4.1388
-4.09389
-4.04189
-3.98411
-3.92237
-3.85944
-3.79967
-3.75097
-3.73183
-3.80598
-4.28237
-4.1155
-4.10655
-4.08881
-4.06268
-4.02876
-3.98793
-3.94152
-3.89141
-3.8404
-3.79266
-3.75445
-3.73479
-3.74332
-3.76307
-3.5278
-4.00463
-3.9962
-3.97954
-3.95508
-3.9235
-3.88586
-3.84371
-3.79933
-3.75615
-3.71926
-3.69636
-3.69902
-3.74703
-3.89724
-4.47671
-3.89962
-3.89158
-3.8757
-3.85242
-3.82246
-3.78693
-3.74745
-3.70644
-3.66752
-3.63616
-3.62051
-3.63177
-3.67976
-3.7333
-3.4332
-3.8002
-3.7924
-3.77699
-3.75439
-3.7253
-3.69074
-3.65225
-3.61209
-3.57365
-3.54217
-3.52596
-3.53902
-3.60865
-3.81493
-4.57607
-3.7062
-3.6985
-3.68327
-3.66088
-3.63193
-3.59729
-3.55822
-3.51655
-3.47495
-3.43756
-3.41109
-3.40699
-3.44264
-3.51124
-3.23787
-3.61755
-3.60983
-3.59453
-3.57194
-3.54252
-3.50691
-3.46601
-3.42096
-3.37334
-3.32538
-3.2807
-3.24736
-3.25374
-3.44502
-4.71941
-3.53427
-3.52643
-3.51085
-3.48773
-3.4574
-3.42023
-3.37667
-3.32715
-3.27196
-3.21092
-3.14244
-3.06013
-2.93646
-2.62662
-1.24196
-3.45644
-3.4484
-3.4324
-3.40855
-3.37703
-3.33798
-3.29146
-3.23728
-3.17466
-3.10163
-3.01377
-2.90165
-2.74845
-2.55463
-2.64688
-3.3842
-3.37592
-3.3594
-3.3347
-3.30188
-3.26092
-3.21159
-3.15327
-3.08457
-3.00265
-2.90196
-2.77169
-2.58865
-2.28398
-1.50809
-3.3177
-3.30915
-3.29207
-3.26649
-3.2324
-3.18967
-3.13796
-3.07648
-3.00368
-2.9167
-2.8107
-2.67838
-2.51332
-2.34055
-2.43822
-3.25715
-3.24831
-3.23066
-3.2042
-3.16891
-3.12467
-3.07112
-3.00756
-2.93262
-2.84396
-2.73772
-2.6078
-2.44334
-2.20931
-1.68361
-3.20273
-3.1936
-3.17536
-3.14804
-3.11165
-3.06612
-3.01124
-2.94653
-2.8711
-2.78344
-2.68119
-2.5612
-2.42169
-2.2806
-2.31645
-3.15466
-3.14522
-3.12637
-3.09818
-3.06073
-3.01407
-2.95818
-2.89295
-2.81808
-2.73305
-2.63697
-2.52815
-2.40116
-2.22901
-1.85099
-3.11314
-3.10336
-3.08387
-3.05476
-3.01622
-2.96842
-2.91162
-2.84607
-2.77213
-2.69033
-2.60161
-2.50773
-2.41197
-2.32038
-2.24616
-3.07842
-3.06826
-3.04804
-3.01791
-2.97813
-2.92904
-2.87112
-2.80501
-2.73163
-2.65242
-2.56984
-2.48862
-2.4199
-2.39968
-2.58978
-3.05075
-3.04016
-3.01909
-2.98775
-2.94649
-2.89579
-2.83632
-2.769
-2.69518
-2.61685
-2.53712
-2.46082
-2.39416
-2.33291
-2.15892
-3.03043
-3.01933
-2.99727
-2.96449
-2.92142
-2.86864
-2.80697
-2.73752
-2.66186
-2.58225
-2.50202
-2.42634
-2.36465
-2.34443
-2.51368
-3.01782
-3.00613
-2.98289
-2.94839
-2.9031
-2.84767
-2.78302
-2.71034
-2.63129
-2.54809
-2.46376
-2.38215
-2.30634
-2.22438
-2.00229
-3.01334
-3.00095
-2.97632
-2.93978
-2.89181
-2.83311
-2.76463
-2.6876
-2.60361
-2.51472
-2.4236
-2.33393
-2.25232
-2.20162
-2.32032
-3.01746
-3.00426
-2.97804
-2.9391
-2.88797
-2.82535
-2.75219
-2.66969
-2.57933
-2.48289
-2.38244
-2.28011
-2.17684
-2.06121
-1.81866
-3.03074
-3.01663
-2.98858
-2.9469
-2.89211
-2.82492
-2.74624
-2.65723
-2.55927
-2.45387
-2.34258
-2.22695
-2.10996
-2.00892
-2.05065
-3.05382
-3.03869
-3.00858
-2.96381
-2.90487
-2.83246
-2.74746
-2.651
-2.54437
-2.42893
-2.30574
-2.17475
-2.03199
-1.85748
-1.54533
-3.08742
-3.07115
-3.03876
-2.99055
-2.92699
-2.84873
-2.75665
-2.65183
-2.5356
-2.40936
-2.27432
-2.13072
-1.97607
-1.80163
-1.58949
-3.13231
-3.11481
-3.07993
-3.02796
-2.95932
-2.87461
-2.77467
-2.6606
-2.53378
-2.39591
-2.24885
-2.09436
-1.93389
-1.77197
-1.64914
-3.18935
-3.17053
-3.13298
-3.07695
-3.0028
-2.91107
-2.80251
-2.67821
-2.53964
-2.38884
-2.22854
-2.06215
-1.89271
-1.71516
-1.46065
-3.25948
-3.23925
-3.19887
-3.13853
-3.05849
-2.9592
-2.8413
-2.70574
-2.55399
-2.38837
-2.21247
-2.03207
-1.85716
-1.71178
-1.70526
-3.34365
-3.32196
-3.27863
-3.21377
-3.12756
-3.02027
-2.89234
-2.7445
-2.57799
-2.39503
-2.19952
-1.99819
-1.80109
-1.61198
-1.33547
-3.44288
-3.4197
-3.37334
-3.30385
-3.21127
-3.09567
-2.95722
-2.79622
-2.61342
-2.4104
-2.19061
-1.96136
-1.73948
-1.57287
-1.64809
-3.55822
-3.53353
-3.48412
-3.40996
-3.31096
-3.18695
-3.03774
-2.86309
-2.66288
-2.43743
-2.18828
-1.91941
-1.6395
-1.36582
-1.1385
-3.69071
-3.66452
-3.6121
-3.53333
-3.428
-3.29574
-3.13594
-2.94772
-2.72985
-2.48093
-2.19964
-1.88512
-1.53519
-1.12657
-0.471027
-3.84138
-3.81373
-3.75837
-3.67514
-3.56375
-3.42365
-3.25388
-3.05292
-2.8184
-2.54692
-2.23407
-1.87543
-1.47165
-1.0588
-0.920774
-4.01125
-3.98219
-3.92399
-3.83652
-3.71945
-3.57216
-3.39349
-3.18143
-2.93261
-2.64162
-2.30031
-1.89708
-1.41439
-0.80019
0.297817
-4.20131
-4.17087
-4.10995
-4.01845
-3.89614
-3.74245
-3.55628
-3.33548
-3.07611
-2.77128
-2.40955
-1.97392
-1.44845
-0.877551
-0.784396
-4.41252
-4.38072
-4.31714
-4.22178
-4.0946
-3.93531
-3.74313
-3.51631
-3.25117
-2.94044
-2.57012
-2.11315
-1.51406
-0.623143
1.26141
-4.64581
-4.61264
-4.54638
-4.44722
-4.31537
-4.151
-3.95404
-3.72374
-3.45788
-3.15101
-2.79084
-2.35109
-1.78234
-1.05876
-0.858164
-4.90214
-4.86753
-4.79849
-4.69537
-4.55873
-4.38934
-4.18809
-3.95588
-3.69309
-3.39858
-3.06684
-2.6786
-2.15814
-1.13118
2.63568
-5.1825
-5.14634
-5.07425
-4.96678
-4.82483
-4.64979
-4.44366
-4.20925
-3.95032
-3.672
-3.38208
-3.09792
-2.88567
-3.10632
-6.05631
-5.48798
-5.45009
-5.3746
-5.26215
-5.11392
-4.93182
-4.71887
-4.47964
-4.22103
-3.95346
-3.69332
-3.46731
-3.31259
-3.18607
-1.99517
-5.81978
-5.77996
-5.7006
-5.58237
-5.42652
-5.23529
-5.01232
-4.76349
-4.49795
-4.22978
-3.98087
-3.78718
-3.71993
-4.00498
-5.89731
-6.17923
-6.13728
-6.0536
-5.9287
-5.76371
-5.56078
-5.32373
-5.05896
-4.7767
-4.49272
-4.23007
-4.01925
-3.8826
-3.70773
-2.32325
-6.56781
-6.5236
-6.43521
-6.30287
-6.12725
-5.90998
-5.6544
-5.36655
-5.05666
-4.74083
-4.44329
-4.19981
-4.07183
-4.25047
-5.88284
-6.98709
-6.94059
-6.84736
-6.7071
-6.51971
-6.28579
-6.00747
-5.68947
-5.34073
-4.97625
-4.61897
-4.30017
-4.04811
-3.78368
-2.48093
-7.43867
-7.39003
-7.29217
-7.14406
-6.94447
-6.69244
-6.38808
-6.03374
-5.63574
-5.20665
-4.76793
-4.35418
-4.03299
-4.03796
-5.6244
-7.92403
-7.87364
-7.77187
-7.61677
-7.40564
-7.13544
-6.80341
-6.40831
-5.95233
-5.44376
-4.89955
-4.34393
-3.79136
-3.19398
-2.41949
-8.44437
-8.39295
-8.28861
-8.12838
-7.90785
-7.62138
-7.26255
-6.82517
-6.30545
-5.7056
-5.03911
-4.33154
-3.58085
-2.47298
1.32328
-9.00043
-8.949
-8.84416
-8.68186
-8.45585
-8.15757
-7.77622
-7.29923
-6.7142
-6.01373
-5.20718
-4.34911
-3.61839
-3.61893
-6.95726
-9.5922
-9.54215
-9.43962
-9.27958
-9.05403
-8.75147
-8.3563
-7.84831
-7.20312
-6.39552
-5.41103
-4.27823
-3.1481
-2.44698
-2.89647
-10.2187
-10.1717
-10.075
-9.9228
-9.70568
-9.40967
-9.01472
-8.49267
-7.80482
-6.90016
-5.71788
-4.20551
-2.37989
-0.475991
0.852184
-10.8779
-10.8359
-10.749
-10.6111
-10.4121
-10.1366
-9.76141
-9.25216
-8.5571
-7.59758
-6.25397
-4.35031
-1.66603
1.8948
5.52318
-11.5662
-11.5312
-11.4583
-11.3418
-11.1717
-10.9327
-10.6012
-10.1407
-9.49301
-8.56174
-7.17896
-5.03723
-1.5609
4.2187
12.7139
-12.2789
-12.2527
-12.198
-12.1097
-11.9792
-11.7931
-11.5306
-11.1592
-10.6259
-9.83946
-8.63102
-6.65094
-3.05525
4.65675
25.8041
-146.468
-88.0205
-61.5435
-48.8932
-42.1186
-38.0737
-35.4467
-33.6363
-32.3392
-31.3892
-30.689
-30.1794
-29.823
-29.5965
-29.4865
-182.169
-82.3651
-54.674
-43.9987
-38.6444
-35.4649
-33.3735
-31.9088
-30.8436
-30.0534
-29.4652
-29.0336
-28.7302
-28.5366
-28.4423
46.8927
-26.6316
-35.9881
-35.409
-33.66
-32.1004
-30.8651
-29.904
-29.1569
-28.5774
-28.1325
-27.799
-27.561
-27.4078
-27.3327
-7.05771
-15.4591
-24.2019
-27.6316
-28.5441
-28.5109
-28.1661
-27.7505
-27.3538
-27.0079
-26.7224
-26.4981
-26.333
-26.2246
-26.171
25.8884
-4.04936
-16.1054
-21.6023
-24.085
-25.1376
-25.5164
-25.5839
-25.5154
-25.3966
-25.2698
-25.156
-25.0656
-25.0035
-24.972
-1.43774
-5.05751
-12.5638
-17.6662
-20.6188
-22.2324
-23.0828
-23.5118
-23.712
-23.7908
-23.8081
-23.7977
-23.7785
-23.7611
-23.7511
11.4398
-3.36667
-10.6916
-15.223
-18.0826
-19.8571
-20.9419
-21.5985
-21.9929
-22.2277
-22.3658
-22.4455
-22.4901
-22.5134
-22.5234
-3.0903
-6.87133
-10.7594
-13.9407
-16.3
-17.9608
-19.0983
-19.8674
-20.3846
-20.7318
-20.964
-21.1177
-21.2165
-21.2752
-21.3025
-14.9947
-10.3017
-11.318
-13.2292
-15.0025
-16.4279
-17.5106
-18.311
-18.8944
-19.3157
-19.6167
-19.828