/*--------------------------------*- C++ -*----------------------------------*\
| =========                 |                                                 |
| \\      /  F ield         | OpenFOAM: The Open Source CFD Toolbox           |
|  \\    /   O peration     | Version:  5.x                                   |
|   \\  /    A nd           | Web:      www.OpenFOAM.org                      |
|    \\/     M anipulation  |                                                 |
\*---------------------------------------------------------------------------*/
FoamFile
{
    version     2.0;
    format      ascii;
    class       volScalarField;
    location    "6";
    object      gradTx;
}
// * * * * * * * * * * * * * * * * * * * * * * * * * * * * * * * * * * * * * //

dimensions      [0 -1 0 1 0 0 0];

internalField   nonuniform List<scalar> 
6300
(
-31.4368
-31.5076
-31.6486
-31.8582
-32.1343
-32.4737
-32.8721
-33.3241
-33.823
-34.3606
-34.9277
-35.5139
-36.1082
-36.6993
-37.2767
-31.3661
-31.4376
-31.5799
-31.7918
-32.0711
-32.4148
-32.8186
-33.2773
-33.7843
-34.3312
-34.9087
-35.506
-36.1114
-36.713
-37.2997
-31.2239
-31.2967
-31.4419
-31.6581
-31.9437
-32.2957
-32.7103
-33.1825
-33.7056
-34.2714
-34.87
-35.4899
-36.1183
-36.742
-37.3479
-31.0089
-31.0836
-31.2327
-31.4553
-31.7498
-32.114
-32.5445
-33.0367
-33.5843
-34.1789
-34.8101
-35.4654
-36.1302
-36.7887
-37.4252
-30.7192
-30.7963
-30.9502
-31.1806
-31.4864
-31.8661
-32.3172
-32.8357
-33.4159
-34.0498
-34.7263
-35.4315
-36.1484
-36.8576
-37.5388
-30.3526
-30.4322
-30.5914
-30.8304
-31.1491
-31.5469
-32.0224
-32.5731
-33.1941
-33.8781
-34.6139
-35.386
-36.1743
-36.9544
-37.6991
-29.9064
-29.9885
-30.153
-30.4007
-30.7328
-31.15
-31.6527
-32.2401
-32.9095
-33.6547
-34.4651
-35.3243
-36.2086
-37.0868
-37.9213
-29.3783
-29.4624
-29.6313
-29.8869
-30.2314
-30.6676
-31.1983
-31.8254
-32.549
-33.366
-34.2677
-35.2377
-36.2491
-37.2629
-38.2268
-28.7663
-28.8515
-29.0232
-29.2841
-29.6383
-30.0908
-30.6475
-31.3141
-32.0954
-32.9928
-34.0021
-35.1096
-36.2875
-37.4889
-38.6434
-28.0692
-28.1541
-28.3258
-28.5882
-28.947
-29.4101
-29.9869
-30.6884
-31.5256
-32.5076
-33.6384
-34.9111
-36.3022
-37.7621
-39.2031
-27.2872
-27.37
-27.5379
-27.7959
-28.1516
-28.6155
-29.2017
-29.927
-30.811
-31.8739
-33.1327
-34.5945
-36.2482
-38.0543
-39.9265
-26.4226
-26.5008
-26.66
-26.906
-27.2479
-27.699
-28.2773
-29.0069
-29.9175
-31.0444
-32.424
-34.0859
-36.0422
-38.2804
-40.7716
-25.4798
-25.5507
-25.6955
-25.9203
-26.2351
-26.6551
-27.2019
-27.9057
-28.808
-29.9624
-31.433
-33.2834
-35.5548
-38.2544
-41.4727
-24.4661
-24.5268
-24.651
-24.8446
-25.1173
-25.4846
-25.9693
-26.6062
-27.4463
-28.5643
-30.0624
-32.0608
-34.6411
-37.7133
-41.117
-23.3918
-23.4396
-23.5373
-23.6898
-23.9051
-24.1966
-24.5848
-25.1034
-25.8068
-26.7862
-28.1922
-30.2584
-33.2409
-36.8534
-37.4601
-37.787
-38.2283
-38.6458
-39.0375
-39.4025
-39.7409
-40.053
-40.3394
-40.6004
-40.8359
-41.0453
-41.2278
-41.3823
-41.5082
-41.6054
-41.6748
-41.7184
-41.739
-41.7404
-41.727
-41.7027
-41.6715
-41.6362
-41.5985
-41.5589
-41.5167
-41.4705
-41.4184
-41.3584
-41.289
-41.2095
-41.1203
-41.0228
-40.9192
-40.8123
-40.7048
-40.5993
-40.4977
-40.4006
-40.3078
-40.2179
-40.1291
-40.039
-39.9451
-39.8458
-39.74
-39.6279
-39.5104
-39.3894
-39.2675
-39.1472
-39.0307
-38.9196
-38.8145
-38.715
-38.6199
-38.5271
-38.4343
-38.3392
-38.2401
-38.1359
-38.0268
-37.9136
-37.7983
-37.6832
-37.5707
-37.4631
-37.3619
-37.2678
-37.1807
-37.0995
-37.0226
-36.9483
-36.8748
-36.8012
-36.7274
-36.6545
-36.5848
-36.5216
-36.4686
-36.4301
-36.4098
-36.4109
-36.4349
-36.4822
-36.551
-36.6381
-36.7383
-36.8455
-36.9527
-37.8169
-38.2627
-38.6829
-39.0759
-39.441
-39.7788
-40.0901
-40.3761
-40.6372
-40.8735
-41.0842
-41.268
-41.4235
-41.5495
-41.6455
-41.7121
-41.7514
-41.7666
-41.762
-41.7425
-41.7129
-41.6775
-41.6397
-41.6012
-41.5625
-41.5225
-41.4792
-41.4298
-41.3719
-41.3035
-41.2235
-41.1323
-41.0316
-40.9241
-40.813
-40.7019
-40.5939
-40.4911
-40.3944
-40.3034
-40.2165
-40.1311
-40.0442
-39.953
-39.8551
-39.7492
-39.6355
-39.5153
-39.3908
-39.2653
-39.1417
-39.0229
-38.9109
-38.8063
-38.7088
-38.6165
-38.5271
-38.4375
-38.345
-38.2472
-38.1431
-38.0325
-37.9167
-37.798
-37.6793
-37.5637
-37.4538
-37.3515
-37.2577
-37.1721
-37.0932
-37.019
-36.947
-36.8749
-36.8014
-36.726
-36.6499
-36.5756
-36.5067
-36.4478
-36.4037
-36.3791
-36.3776
-36.4015
-36.451
-36.5248
-36.619
-36.7282
-36.8454
-36.9627
-37.8792
-38.334
-38.7595
-39.1544
-39.519
-39.8548
-40.1639
-40.4486
-40.7099
-40.948
-41.1619
-41.3492
-41.5074
-41.6341
-41.7279
-41.7889
-41.8193
-41.8228
-41.8051
-41.7725
-41.7313
-41.6871
-41.6441
-41.6045
-41.5681
-41.5332
-41.4965
-41.4536
-41.4007
-41.3346
-41.2536
-41.1581
-41.0503
-40.9339
-40.8138
-40.6947
-40.581
-40.4757
-40.38
-40.2932
-40.2129
-40.1352
-40.0558
-39.9704
-39.8757
-39.7697
-39.6526
-39.5261
-39.3938
-39.26
-39.1292
-39.0055
-38.8914
-38.7881
-38.6948
-38.6091
-38.5272
-38.445
-38.3582
-38.2636
-38.1594
-38.0456
-37.9239
-37.7977
-37.6711
-37.5483
-37.4334
-37.3289
-37.2358
-37.1537
-37.0802
-37.0121
-36.9456
-36.8771
-36.8041
-36.7256
-36.6427
-36.5583
-36.4772
-36.4054
-36.3494
-36.3151
-36.3078
-36.3308
-36.385
-36.469
-36.5784
-36.7066
-36.845
-36.9838
-37.979
-38.4475
-38.8803
-39.2768
-39.6385
-39.9691
-40.2732
-40.5546
-40.816
-41.0577
-41.2777
-41.4724
-41.6367
-41.7662
-41.8576
-41.91
-41.9257
-41.9098
-41.8699
-41.8149
-41.7541
-41.6952
-41.6439
-41.6029
-41.5717
-41.5468
-41.5225
-41.492
-41.4486
-41.3871
-41.3048
-41.2017
-41.0813
-40.9493
-40.8129
-40.6797
-40.556
-40.4465
-40.3528
-40.2737
-40.2054
-40.1418
-40.0761
-40.0014
-39.9124
-39.8063
-39.683
-39.5455
-39.399
-39.2504
-39.1067
-38.9739
-38.8563
-38.7554
-38.6699
-38.5959
-38.5279
-38.4589
-38.3826
-38.2938
-38.1896
-38.0699
-37.9377
-37.7979
-37.657
-37.5218
-37.398
-37.2896
-37.1982
-37.1227
-37.0594
-37.0029
-36.947
-36.8857
-36.8146
-36.7316
-36.6375
-36.5363
-36.4344
-36.3404
-36.2634
-36.2123
-36.1944
-36.215
-36.2762
-36.3764
-36.5106
-36.6702
-36.8439
-37.0184
-38.1249
-38.6123
-39.0537
-39.4491
-39.8028
-40.1219
-40.4151
-40.6897
-40.9506
-41.1986
-41.4303
-41.6391
-41.8163
-41.9533
-42.0434
-42.0842
-42.0777
-42.0313
-41.9563
-41.866
-41.7741
-41.6923
-41.6289
-41.5873
-41.5662
-41.5594
-41.5574
-41.5489
-41.5226
-41.4698
-41.3857
-41.2704
-41.1291
-40.971
-40.8077
-40.6508
-40.5108
-40.3945
-40.3045
-40.2388
-40.191
-40.1515
-40.1091
-40.0528
-39.9739
-39.8676
-39.7339
-39.5776
-39.4072
-39.2337
-39.0683
-38.9206
-38.7972
-38.7004
-38.6282
-38.5744
-38.5298
-38.4835
-38.425
-38.346
-38.2418
-38.1124
-37.9622
-37.7996
-37.6348
-37.4786
-37.3402
-37.2259
-37.1378
-37.074
-37.0286
-36.9927
-36.956
-36.9085
-36.8423
-36.7535
-36.6425
-36.5149
-36.3803
-36.2508
-36.1402
-36.0614
-36.0256
-36.0409
-36.1109
-36.2348
-36.4062
-36.6136
-36.8414
-37.0709
-38.3307
-38.8434
-39.2934
-39.6818
-40.0169
-40.3123
-40.5837
-40.8447
-41.1039
-41.3629
-41.616
-41.8515
-42.054
-42.2078
-42.3005
-42.3263
-42.2873
-42.1943
-42.0647
-41.9194
-41.7795
-41.6631
-41.5824
-41.5424
-41.5402
-41.5653
-41.6019
-41.6313
-41.6348
-41.5976
-41.5115
-41.3765
-41.2011
-41.0004
-40.7929
-40.5979
-40.4314
-40.3046
-40.2213
-40.1781
-40.1647
-40.1655
-40.1622
-40.1367
-40.0748
-39.9684
-39.8174
-39.6298
-39.4199
-39.2054
-39.0044
-38.8323
-38.6996
-38.6099
-38.5599
-38.5396
-38.534
-38.5255
-38.4969
-38.4345
-38.3304
-38.1846
-38.0047
-37.8042
-37.6002
-37.4098
-37.2479
-37.1242
-37.0423
-36.9988
-36.9841
-36.9837
-36.9805
-36.958
-36.9026
-36.807
-36.6714
-36.5038
-36.3185
-36.1341
-35.971
-35.8485
-35.7833
-35.7877
-35.8681
-36.0247
-36.2497
-36.5278
-36.8364
-37.1483
-38.6179
-39.1649
-39.622
-39.9913
-40.2881
-40.5374
-40.7673
-41.0023
-41.2576
-41.5358
-41.8272
-42.1115
-42.3617
-42.5502
-42.6542
-42.6616
-42.5747
-42.4101
-42.1958
-41.9651
-41.7512
-41.5824
-41.4773
-41.4433
-41.4747
-41.5546
-41.657
-41.7509
-41.8056
-41.7959
-41.7076
-41.5408
-41.3097
-41.0393
-40.7604
-40.5037
-40.2951
-40.1519
-40.0803
-40.0745
-40.118
-40.1854
-40.247
-40.2732
-40.2399
-40.1333
-39.9536
-39.7142
-39.4391
-39.1576
-38.8987
-38.6874
-38.54
-38.4624
-38.4489
-38.4835
-38.5422
-38.5964
-38.6176
-38.5828
-38.479
-38.306
-38.0767
-37.814
-37.5458
-37.3
-37.1003
-36.9622
-36.8913
-36.8821
-36.919
-36.9785
-37.033
-37.0546
-37.0207
-36.9182
-36.7465
-36.518
-36.2552
-35.9868
-35.7432
-35.553
-35.4408
-35.4247
-35.5157
-35.7159
-36.0167
-36.3978
-36.8266
-37.2617
-39.0195
-39.6158
-40.077
-40.4052
-40.6279
-40.7905
-40.9437
-41.1308
-41.3782
-41.6899
-42.0489
-42.4204
-42.7585
-43.0145
-43.1471
-43.1329
-42.9738
-42.6977
-42.3506
-41.9865
-41.6583
-41.4098
-41.2701
-41.2498
-41.3396
-41.5117
-41.7243
-41.9272
-42.0692
-42.1074
-42.0169
-41.7977
-41.4747
-41.0906
-40.696
-40.3403
-40.0646
-39.8961
-39.8444
-39.9002
-40.0366
-40.2136
-40.3828
-40.4954
-40.5103
-40.4036
-40.1757
-39.8501
-39.4677
-39.0769
-38.7247
-38.4504
-38.2799
-38.2223
-38.2685
-38.3929
-38.5569
-38.7145
-38.8189
-38.8307
-38.7271
-38.5082
-38.1967
-37.8316
-37.459
-37.1239
-36.8638
-36.7035
-36.6515
-36.699
-36.8212
-36.9806
-37.1325
-37.2312
-37.2376
-37.1288
-36.9032
-36.5814
-36.2001
-35.8038
-35.4383
-35.1453
-34.9597
-34.9076
-35.0062
-35.2619
-35.6681
-36.1991
-36.8078
-37.4293
-39.5858
-40.2615
-40.7238
-40.9712
-41.0543
-41.0571
-41.0713
-41.1729
-41.406
-41.7761
-42.2527
-42.7775
-43.2735
-43.6566
-43.8516
-43.8128
-43.5417
-43.0877
-42.5297
-41.9564
-41.4508
-41.0806
-40.891
-40.898
-41.0859
-41.4104
-41.8056
-42.1911
-42.4823
-42.6043
-42.5115
-42.2041
-41.7279
-41.1571
-40.5755
-40.0617
-39.6796
-39.472
-39.4538
-39.6096
-39.8971
-40.2529
-40.6002
-40.8582
-40.9556
-40.8487
-40.5382
-40.0677
-39.5085
-38.9404
-38.4385
-38.0639
-37.8572
-37.8327
-37.9755
-38.245
-38.5808
-38.9094
-39.1534
-39.2445
-39.1412
-38.8438
-38.394
-37.86
-37.3179
-36.8397
-36.4837
-36.2888
-36.2684
-36.4084
-36.6695
-36.9934
-37.3088
-37.5403
-37.6206
-37.5074
-37.1984
-36.7306
-36.1663
-35.5763
-35.0288
-34.5829
-34.2861
-34.1737
-34.27
-34.5914
-35.1397
-35.8884
-36.7705
-37.6809
-40.3932
-41.2144
-41.6802
-41.774
-41.5962
-41.3075
-41.0734
-41.0255
-41.2368
-41.709
-42.3873
-43.176
-43.9511
-44.5697
-44.893
-44.827
-44.373
-43.6274
-42.731
-41.8288
-41.0481
-40.4916
-40.2288
-40.2858
-40.6354
-41.2075
-41.9008
-42.591
-43.139
-43.4105
-43.3153
-42.8537
-42.1172
-41.2393
-40.3575
-39.5932
-39.0436
-38.7752
-38.8126
-39.1295
-39.6591
-40.3042
-40.9464
-41.4525
-41.6948
-41.5872
-41.1309
-40.4132
-39.5619
-38.7086
-37.9689
-37.4357
-37.1722
-37.2021
-37.4999
-38.0018
-38.615
-39.2261
-39.7079
-39.9383
-39.8349
-39.3985
-38.7127
-37.8997
-37.085
-36.3794
-35.8717
-35.6225
-35.6543
-35.9432
-36.4275
-37.0183
-37.606
-38.0671
-38.2819
-38.1681
-37.722
-37.0188
-36.1695
-35.2878
-34.4729
-33.8057
-33.3471
-33.139
-33.2098
-33.5937
-34.3229
-35.3857
-36.6921
-38.0667
-41.5507
-42.6792
-43.1724
-42.9683
-42.2982
-41.4791
-40.8075
-40.505
-40.6918
-41.3454
-42.3628
-43.5944
-44.8541
-45.908
-46.4951
-46.4002
-45.6244
-44.3843
-42.9409
-41.5262
-40.3229
-39.4797
-39.106
-39.2524
-39.8646
-40.8301
-42.0003
-43.196
-44.1936
-44.745
-44.6464
-43.8993
-42.7101
-41.3269
-39.9706
-38.8154
-38.0029
-37.638
-37.7688
-38.3434
-39.2545
-40.3599
-41.4884
-42.4265
-42.9377
-42.8281
-42.0999
-40.9509
-39.6183
-38.3132
-37.2017
-36.419
-36.0649
-36.1853
-36.7306
-37.5982
-38.6521
-39.7289
-40.6244
-41.1126
-41.0079
-40.3123
-39.2146
-37.9417
-36.6951
-35.6339
-34.8874
-34.5514
-34.6701
-35.1964
-36.0322
-37.0476
-38.0853
-38.9483
-39.4165
-39.3071
-38.616
-37.5172
-36.2192
-34.9028
-33.7043
-32.7279
-32.0473
-31.7028
-31.6987
-32.0989
-33.0255
-34.532
-36.5157
-38.6756
-43.1841
-45.0582
-45.6685
-44.8345
-43.2152
-41.4382
-40.0102
-39.28
-39.475
-40.4577
-42.0301
-43.9722
-46.0536
-47.9188
-49.0791
-48.9539
-47.5443
-45.4342
-43.1096
-40.9191
-39.0793
-37.7916
-37.2345
-37.5485
-38.5849
-40.1579
-42.0633
-44.0862
-45.8908
-47.0157
-46.9115
-45.5817
-43.5823
-41.3758
-39.2941
-37.5439
-36.3178
-35.7869
-36.0858
-37.0728
-38.5701
-40.3825
-42.3045
-44.0153
-45.0746
-44.9596
-43.6749
-41.7528
-39.6352
-37.639
-35.9612
-34.7851
-34.2742
-34.5568
-35.4973
-36.926
-38.6565
-40.4925
-42.1275
-43.1406
-43.0319
-41.8051
-39.9688
-37.9455
-36.0382
-34.435
-33.312
-32.8255
-33.099
-34.0037
-35.3781
-37.0447
-38.8162
-40.398
-41.3828
-41.2835
-40.0969
-38.3026
-36.2951
-34.3482
-32.6158
-31.2242
-30.2634
-29.7763
-29.6052
-29.846
-30.8928
-32.9912
-36.0853
-39.6743
-45.2822
-49.254
-50.242
-47.8321
-44.3618
-40.8952
-38.2081
-36.7225
-37.124
-38.7211
-41.1652
-44.1495
-47.5647
-50.9446
-53.5145
-53.3574
-50.4729
-46.7933
-43.085
-39.8072
-37.0406
-35.0513
-34.1088
-34.8043
-36.5325
-39.0074
-41.9569
-45.2908
-48.5671
-51.056
-50.9416
-48.2283
-44.7528
-41.2448
-38.1404
-35.5179
-33.6315
-32.7407
-33.4122
-35.067
-37.4322
-40.2471
-43.4248
-46.542
-48.9024
-48.7756
-46.1679
-42.836
-39.4771
-36.5065
-33.9979
-32.1935
-31.3406
-31.9808
-33.5607
-35.8195
-38.5087
-41.5454
-44.5259
-46.7843
-46.6656
-44.1754
-40.9923
-37.7825
-34.9431
-32.5448
-30.8198
-30.0051
-30.6191
-32.1343
-34.3033
-36.8907
-39.8202
-42.7073
-44.9101
-44.8257
-42.4528
-39.3948
-36.2838
-33.4844
-31.0364
-29.1002
-27.7974
-27.3947
-26.9186
-26.4325
-27.2459
-30.0163
-34.9423
-41.3986
-46.8049
-57.7399
-59.6914
-52.3502
-45.5086
-39.2327
-34.6769
-31.4478
-33.0517
-35.7647
-39.5225
-43.7065
-49.1266
-55.137
-61.8768
-61.6885
-54.5463
-48.194
-42.4406
-37.959
-33.8828
-30.8039
-28.6243
-30.5733
-33.4047
-37.1734
-41.2971
-46.5784
-52.3773
-58.8451
-58.7141
-51.9725
-45.9702
-40.5327
-36.2929
-32.4319
-29.5117
-27.4449
-29.3226
-32.0383
-35.6468
-39.5892
-44.6323
-50.1586
-56.3117
-56.1641
-49.7034
-43.9582
-38.76
-34.7085
-31.0208
-28.2314
-26.2572
-28.0516
-30.6462
-34.0935
-37.8601
-42.6796
-47.9638
-53.8507
-53.7144
-47.5434
-42.0541
-37.086
-33.2126
-29.6852
-27.0167
-25.1274
-26.8413
-29.3236
-32.6259
-36.2438
-40.8854
-46.0018
-51.731
-51.6631
-45.7951
-40.563
-35.824
-32.1144
-28.7201
-26.0641
-24.035
-25.1187
-24.2465
-21.1476
-20.7807
-23.9374
-31.5954
-44.5719
-40.7152
-79.1806
-82.4612
-56.0866
-45.8325
-35.0943
-29.2355
-19.2138
-27.3823
-31.3041
-37.266
-41.4837
-49.8387
-58.2791
-80.2156
-80.0332
-57.4826
-48.7324
-39.9647
-35.5275
-29.2887
-25.2616
-17.1946
-25.0717
-28.9274
-34.8282
-38.9705
-47.1207
-55.2242
-76.1365
-76.0061
-54.6522
-46.3744
-38.0957
-33.9001
-27.9909
-24.1629
-16.4689
-24.0262
-27.7241
-33.3806
-37.346
-45.1441
-52.8725
-72.794
-72.6433
-52.2089
-44.2925
-36.3914
-32.3869
-26.7499
-23.0954
-15.7469
-22.9702
-26.5038
-31.9075
-35.6956
-43.1442
-50.534
-69.5906
-69.4531
-49.9295
-42.3652
-34.8132
-30.9838
-25.5886
-22.0916
-15.0608
-21.957
-25.3321
-30.4938
-34.1227
-41.2668
-48.4136
-66.8995
-66.8525
-48.2219
-41.021
-33.8818
-30.2903
-25.3406
-22.1252
-15.79
-25.6595
-24.7807
-11.9285
-9.24151
-11.3766
-20.5898
-50.757
-37.0618
-37.1619
-37.2331
-37.2699
-37.2707
-37.2373
-37.1745
-37.0894
-36.9901
-36.8855
-36.7837
-36.6926
-36.6184
-36.5661
-36.5391
-37.0819
-37.1907
-37.2674
-37.3059
-37.3049
-37.2666
-37.1969
-37.1035
-36.9955
-36.8824
-36.7731
-36.6756
-36.5964
-36.5408
-36.5121
-37.1244
-37.2518
-37.3397
-37.3815
-37.3762
-37.3274
-37.2428
-37.132
-37.006
-36.8756
-36.7507
-36.6401
-36.5509
-36.4884
-36.4563
-37.1945
-37.3522
-37.458
-37.5042
-37.4908
-37.4241
-37.3147
-37.1757
-37.0208
-36.8631
-36.7139
-36.5832
-36.4785
-36.4057
-36.3683
-37.3013
-37.5044
-37.6358
-37.6865
-37.6587
-37.5633
-37.4161
-37.2353
-37.0385
-36.8418
-36.6587
-36.5001
-36.3743
-36.2873
-36.2429
-37.4593
-37.7284
-37.8942
-37.9471
-37.8942
-37.7541
-37.5512
-37.3107
-37.0561
-36.8069
-36.579
-36.3842
-36.2313
-36.1264
-36.073
-37.6922
-38.0556
-38.2656
-38.3136
-38.2168
-38.0077
-37.7236
-37.4004
-37.0681
-36.7508
-36.466
-36.2263
-36.0404
-35.9137
-35.8496
-38.0385
-38.5361
-38.7988
-38.8247
-38.6517
-38.3361
-37.9353
-37.4989
-37.0653
-36.662
-36.3077
-36.0146
-35.7901
-35.6385
-35.5622
-38.5627
-39.2516
-39.5687
-39.5345
-39.2293
-38.7496
-38.1825
-37.5946
-37.032
-36.5241
-36.0883
-35.7343
-35.4668
-35.2879
-35.1983
-39.3784
-40.3387
-40.6899
-40.5155
-39.9811
-39.2506
-38.4505
-37.6649
-36.9439
-36.314
-35.7871
-35.3674
-35.0548
-34.8479
-34.7449
-40.6971
-42.0349
-42.3365
-41.8565
-40.9289
-39.821
-38.7038
-37.6707
-36.7647
-36.0006
-35.3787
-34.8934
-34.5372
-34.3038
-34.1883
-42.9448
-44.7674
-44.7646
-43.645
-42.0569
-40.4007
-38.873
-37.5492
-36.4437
-35.5451
-34.8338
-34.29
-33.8969
-33.6417
-33.5163
-47.0719
-49.3251
-48.3093
-45.902
-43.2531
-40.8518
-38.8383
-37.2093
-35.9156
-34.9021
-34.1213
-33.5359
-33.1185
-32.85
-32.7186
-55.4855
-57.1519
-53.2454
-48.4006
-44.2017
-40.9148
-38.4191
-36.534
-35.1072
-34.0265
-33.2134
-32.6138
-32.191
-31.9211
-31.7896
-75.2945
-70.5516
-59.1196
-50.2531
-44.2381
-40.1867
-37.3893
-35.4004
-33.9525
-32.8833
-32.092
-31.5148
-31.1107
-30.8538
-30.729
-22.3633
-22.3972
-22.4663
-22.5736
-22.7243
-22.9271
-23.1963
-23.5563
-24.0512
-24.7653
-25.8736
-27.77
-31.3926
-38.8565
-52.4792
-21.4049
-21.4252
-21.4661
-21.5288
-21.6147
-21.7271
-21.871
-22.0563
-22.303
-22.6546
-23.2198
-24.3149
-27.0686
-36.4502
-78.2878
-20.4325
-20.4389
-20.451
-20.4678
-20.4869
-20.5051
-20.5169
-20.5138
-20.4818
-20.3955
-20.1984
-19.7146
-18.1817
-11.507
25.3649
-19.4557
-19.4486
-19.4328
-19.4051
-19.3598
-19.2876
-19.1732
-18.9913
-18.6982
-18.2131
-17.3757
-15.8453
-12.9016
-7.53831
-3.80053
-18.4839
-18.4643
-18.4229
-18.3548
-18.2515
-18.0994
-17.8763
-17.5462
-17.048
-16.2751
-15.0332
-12.954
-9.30793
-2.44505
13.5274
-17.5258
-17.4953
-17.4317
-17.329
-17.1772
-16.9605
-16.6539
-16.2177
-15.5886
-14.6631
-13.2719
-11.1489
-7.94772
-3.67931
-1.94467
-16.5889
-16.5494
-16.4676
-16.3372
-16.1481
-15.8842
-15.5214
-15.0233
-14.3351
-13.3745
-12.0191
-10.092
-7.32837
-3.15427
5.11577
-15.6795
-15.633
-15.5372
-15.3864
-15.1709
-14.8766
-14.4829
-13.961
-13.2709
-12.36
-11.1634
-9.61608
-7.68845
-5.4736
-3.40785
-14.8025
-14.7509
-14.6452
-14.4805
-14.2486
-13.938
-13.5335
-13.0154
-12.3602
-11.5438
-10.5513
-9.40426
-8.24798
-7.68927
-10.4964
-13.9613
-13.9063
-13.7944
-13.6213
-13.3809
-13.0648
-12.6631
-12.165
-11.5613
-10.8501
-10.0465
-9.19892
-8.39254
-7.56744
-4.83616
-13.1584
-13.1014
-12.986
-12.8089
-12.5657
-12.2512
-11.8598
-11.3879
-10.8373
-10.2206
-9.57231
-8.96501
-8.55012
-8.76922
-11.9763
-12.3951
-12.3372
-12.2204
-12.0424
-11.8003
-11.4909
-11.1123
-10.6657
-10.1591
-9.6132
-9.06968
-8.59753
-8.26747
-7.89588
-5.16976
-11.672
-11.6141
-11.4975
-11.3206
-11.0816
-10.7788
-10.4122
-9.9852
-9.50824
-9.00416
-8.51753
-8.13143
-8.01371
-8.65749
-12.6426
-10.9891
-10.9318
-10.8164
-10.642
-10.4072
-10.111
-9.754
-9.33947
-8.87628
-8.38307
-7.89564
-7.47902
-7.23118
-7.09859
-4.8646
-10.3462
-10.2898
-10.1765
-10.0054
-9.77543
-9.48561
-9.13584
-8.72759
-8.26523
-7.75803
-7.22462
-6.70946
-6.36867
-6.99883
-13.5521
-9.74247
-9.6874
-9.5768
-9.40982
-9.1853
-8.90191
-8.55836
-8.15336
-7.6854
-7.15125
-6.54101
-5.81889
-4.83195
-2.78561
5.14775
-9.17706
-9.12362
-9.01631
-8.85425
-8.63611
-8.36007
-8.02361
-7.62293
-7.1516
-6.59738
-5.93517
-5.11228
-4.03101
-2.66044
-2.57994
-8.64882
-8.59733
-8.49392
-8.33768
-8.12719
-7.86026
-7.53353
-7.14164
-6.67543
-6.11859
-5.441
-4.58518
-3.43104
-1.63923
2.44889
-8.15641
-8.10717
-8.00827
-7.85887
-7.65755
-7.40203
-7.08878
-6.71203
-6.26228
-5.72372
-5.07067
-4.26532
-3.27399
-2.21252
-2.38232
-7.69827
-7.65155
-7.55777
-7.4162
-7.2256
-6.98399
-6.6882
-6.33319
-5.91087
-5.40845
-4.80619
-4.07471
-3.16574
-1.9306
0.598074
-7.27264
-7.22868
-7.14052
-7.00764
-6.82916
-6.60364
-6.32882
-6.00116
-5.61518
-5.16258
-4.63154
-4.00746
-3.28408
-2.54677
-2.59338
-6.87761
-6.83658
-6.7544
-6.63083
-6.46545
-6.25759
-6.0062
-5.70972
-5.36582
-4.97128
-4.52157
-4.00924
-3.41219
-2.61839
-0.942467
-6.51114
-6.47312
-6.39709
-6.28313
-6.13133
-5.94185
-5.71499
-5.45128
-5.15173
-4.81837
-4.45519
-4.06995
-3.67704
-3.30241
-3.00075
-6.17115
-6.13612
-6.06621
-5.96178
-5.82344
-5.65214
-5.44944
-5.2178
-4.9612
-4.68624
-4.40421
-4.13608
-3.92927
-3.93557
-4.84871
-5.85556
-5.82341
-5.75937
-5.66407
-5.5385
-5.38432
-5.20407
-5.00173
-4.7835
-4.55911
-4.34367
-4.15971
-4.0336
-3.93881
-3.32433
-5.56237
-5.5329
-5.47433
-5.38743
-5.27352
-5.13468
-4.97412
-4.79677
-4.61017
-4.42586
-4.26135
-4.14325
-4.11629
-4.30274
-5.37798
-5.28971
-5.26269
-5.20903
-5.12963
-5.02592
-4.90019
-4.75591
-4.59831
-4.43532
-4.27894
-4.1469
-4.06359
-4.05087
-4.04928
-3.34702
-5.0359
-5.01103
-4.96169
-4.88877
-4.79369
-4.67867
-4.54702
-4.40366
-4.25598
-4.11518
-3.99871
-3.93499
-3.97781
-4.28222
-5.65798
-4.79942
-4.77643
-4.73081
-4.66337
-4.57538
-4.46877
-4.34634
-4.2121
-4.07193
-3.93462
-3.81396
-3.73251
-3.72318
-3.77098
-3.16097
-4.57899
-4.55761
-4.51516
-4.45231
-4.37007
-4.26994
-4.15393
-4.02474
-3.88598
-3.74257
-3.60207
-3.48002
-3.42896
-3.71638
-6.00205
-4.37347
-4.35348
-4.31375
-4.25477
-4.17727
-4.08221
-3.97074
-3.8441
-3.70332
-3.5486
-3.37746
-3.1783
-2.89978
-2.27393
0.333188
-4.1819
-4.16314
-4.12579
-4.07017
-3.99673
-3.90594
-3.79817
-3.67335
-3.53042
-3.36609
-3.17239
-2.93177
-2.6119
-2.20716
-2.28308
-4.00343
-3.98577
-3.95057
-3.89801
-3.8283
-3.74154
-3.6375
-3.51526
-3.37246
-3.20406
-2.99997
-2.74035
-2.38303
-1.80643
-0.407168
-3.83728
-3.82066
-3.78748
-3.73784
-3.67178
-3.5892
-3.48955
-3.37152
-3.23235
-3.06688
-2.86621
-2.61685
-2.3065
-1.97684
-2.10294
-3.68274
-3.66711
-3.63588
-3.58912
-3.52682
-3.44878
-3.35444
-3.24252
-3.11056
-2.95421
-2.76633
-2.53577
-2.24345
-1.83057
-0.926453
-3.53912
-3.52445
-3.49514
-3.45126
-3.39284
-3.31975
-3.2316
-3.12752
-3.00579
-2.86351
-2.69616
-2.49766
-2.26418
-2.02528
-2.0805
-3.40576
-3.39201
-3.36458
-3.32358
-3.2691
-3.20123
-3.1199
-3.02483
-2.91535
-2.79029
-2.64768
-2.4839
-2.28875
-2.01557
-1.39288
-3.28199
-3.26914
-3.24352
-3.2053
-3.15474
-3.09212
-3.01781
-2.93221
-2.83581
-2.72932
-2.61397
-2.492
-2.36757
-2.24843
-2.15148
-3.16722
-3.15519
-3.13126
-3.09566
-3.0488
-2.9912
-2.92363
-2.84715
-2.76332
-2.67458
-2.58493
-2.50186
-2.44279
-2.46574
-2.8421
-3.06086
-3.04957
-3.02715
-2.99391
-2.95037
-2.89726
-2.83569
-2.76725
-2.69432
-2.62052
-2.55139
-2.49511
-2.46111
-2.43746
-2.20342
-2.96239
-2.95174
-2.93061
-2.89938
-2.85863
-2.80926
-2.75258
-2.69052
-2.62599
-2.56329
-2.50897
-2.47297
-2.47232
-2.55516
-2.99159
-2.87136
-2.86123
-2.84115
-2.81151
-2.77294
-2.72639
-2.67325
-2.61558
-2.55643
-2.50031
-2.4539
-2.42634
-2.4256
-2.42717
-2.14557
-2.78743
-2.77769
-2.75838
-2.7299
-2.69284
-2.64814
-2.59712
-2.54173
-2.48481
-2.43063
-2.3858
-2.36114
-2.37736
-2.49569
-3.04006
-2.71031
-2.70083
-2.68204
-2.65428
-2.61811
-2.57433
-2.52409
-2.469
-2.41135
-2.35452
-2.30376
-2.26759
-2.25827
-2.26821
-2.01063
-2.63983
-2.6305
-2.61197
-2.58456
-2.5487
-2.50505
-2.45447
-2.39809
-2.33736
-2.27424
-2.21164
-2.15547
-2.12586
-2.22638
-3.10319
-2.57587
-2.56659
-2.54813
-2.52074
-2.48475
-2.44064
-2.38894
-2.33024
-2.26508
-2.19366
-2.1151
-2.02494
-1.90313
-1.64534
-0.617183
-2.51841
-2.50909
-2.49054
-2.46293
-2.4265
-2.38154
-2.3283
-2.26694
-2.1972
-2.11806
-2.02667
-1.91643
-1.77488
-1.59917
-1.60369
-2.46746
-2.45805
-2.43928
-2.41128
-2.37421
-2.32822
-2.27336
-2.20947
-2.1359
-2.05102
-1.95135
-1.82971
-1.67039
-1.42772
-0.876093
-2.42309
-2.41354
-2.39447
-2.36597
-2.32816
-2.2811
-2.22473
-2.15878
-2.08249
-1.99429
-1.89134
-1.76918
-1.62382
-1.47071
-1.48185
-2.3854
-2.37567
-2.35624
-2.32718
-2.28858
-2.24047
-2.1828
-2.11531
-2.03737
-1.94783
-1.84469
-1.7248
-1.58265
-1.39954
-1.04951
-2.35451
-2.34457
-2.32473
-2.29505
-2.25563
-2.20652
-2.14772
-2.07911
-2.00036
-1.91086
-1.8097
-1.69591
-1.56995
-1.4442
-1.41921
-2.33056
-2.32039
-2.30008
-2.26973
-2.22944
-2.17933
-2.1195
-2.05
-1.97084
-1.882
-1.78352
-1.67549
-1.55714
-1.41879
-1.1867
-2.31371
-2.30327
-2.28244
-2.25133
-2.2101
-2.15892
-2.09802
-2.02762
-1.94807
-1.85988
-1.76399
-1.66227
-1.55822
-1.45842
-1.37723
-2.30414
-2.29339
-2.27197
-2.24001
-2.1977
-2.14531
-2.08315
-2.01164
-1.93133
-1.84312
-1.74855
-1.65068
-1.55639
-1.48504
-1.51109
-2.30206
-2.29096
-2.26885
-2.23589
-2.19233
-2.1385
-2.07481
-2.00178
-1.92012
-1.83081
-1.73542
-1.63664
-1.53864
-1.44396
-1.31831
-2.30771
-2.2962
-2.27329
-2.23916
-2.19412
-2.13856
-2.07297
-1.99795
-1.91423
-1.82273
-1.72469
-1.62207
-1.5186
-1.42433
-1.38244
-2.32138
-2.30939
-2.28554
-2.25004
-2.20325
-2.14561
-2.07771
-2.00019
-1.91378
-1.81921
-1.71716
-1.60811
-1.4922
-1.36825
-1.2233
-2.3434
-2.33085
-2.30589
-2.26878
-2.21992
-2.15982
-2.08915
-2.00862
-1.91901
-1.82092
-1.71452
-1.59893
-1.47142
-1.32671
-1.15719
-2.37415
-2.36096
-2.33471
-2.29571
-2.24441
-2.1814
-2.10744
-2.02339
-1.93015
-1.82842
-1.71826
-1.59806
-1.46259
-1.30234
-1.13593
-2.41409
-2.40014
-2.37241
-2.33121
-2.27705
-2.21061
-2.13276
-2.04457
-1.9472
-1.84179
-1.72901
-1.60782
-1.47099
-1.2822
-0.836104
-2.46373
-2.44892
-2.41947
-2.37573
-2.31824
-2.24775
-2.16529
-2.07213
-1.96985
-1.8603
-1.7456
-1.62846
-1.51548
-1.44069
-1.62923
-2.52367
-2.50788
-2.47648
-2.42981
-2.36846
-2.29323
-2.20526
-2.10603
-1.99756
-1.8824
-1.76389
-1.64623
-1.53347
-1.41627
-1.15021
-2.59459
-2.57771
-2.5441
-2.49412
-2.42834
-2.34758
-2.25305
-2.14639
-2.02992
-1.90684
-1.78161
-1.66059
-1.55456
-1.49517
-1.66017
-2.67726
-2.65916
-2.6231
-2.56941
-2.49862
-2.41152
-2.30927
-2.19357
-2.06688
-1.93278
-1.79641
-1.66454
-1.54328
-1.41821
-1.11072
-2.77251
-2.75309
-2.71436
-2.6566
-2.58024
-2.48599
-2.37485
-2.24838
-2.10899
-1.96032
-1.80809
-1.66113
-1.53463
-1.46791
-1.66167
-2.88127
-2.86043
-2.81885
-2.7567
-2.67432
-2.57219
-2.45107
-2.3122
-2.15754
-1.99036
-1.8161
-1.64353
-1.48447
-1.33669
-1.03305
-3.00451
-2.9822
-2.93762
-2.87087
-2.78211
-2.67158
-2.53965
-2.38698
-2.21478
-2.02531
-1.82295
-1.61656
-1.42647
-1.31368
-1.53459
-3.14326
-3.11944
-3.0718
-3.00034
-2.90504
-2.78583
-2.64263
-2.47534
-2.28403
-2.06922
-1.8326
-1.57826
-1.31479
-1.0589
-0.848362
-3.29856
-3.27323
-3.22253
-3.14638
-3.04457
-2.91676
-2.76234
-2.5804
-2.36961
-2.12829
-1.85456
-1.54631
-1.19785
-0.772621
-0.0158558
-3.47145
-3.44464
-3.39096
-3.31024
-3.20217
-3.06616
-2.90118
-2.70549
-2.47639
-2.20987
-1.9005
-1.54228
-1.13422
-0.716552
-0.630499
-3.66298
-3.63472
-3.57815
-3.49309
-3.37918
-3.2357
-3.06134
-2.85379
-2.60916
-2.32121
-1.98038
-1.57287
-1.07728
-0.430178
0.787418
-3.87412
-3.84448
-3.78514
-3.696
-3.57673
-3.42669
-3.24455
-3.02784
-2.77203
-2.46926
-2.10655
-1.66464
-1.12555
-0.539968
-0.505011
-4.10587
-4.07486
-4.01284
-3.91982
-3.79565
-3.63996
-3.45179
-3.22905
-2.96751
-2.65896
-2.28773
-1.8239
-1.2061
-0.267372
1.78283
-4.35915
-4.32677
-4.26209
-4.16527
-4.03647
-3.8758
-3.68303
-3.4572
-3.19564
-2.89217
-2.53322
-2.09008
-1.50951
-0.766624
-0.618318
-4.63492
-4.60111
-4.53366
-4.43292
-4.29943
-4.13393
-3.93725
-3.71016
-3.45287
-3.16393
-2.83718
-2.4517
-1.92566
-0.852962
3.19634
-4.93417
-4.89881
-4.82835
-4.72332
-4.58463
-4.41371
-4.21258
-3.98409
-3.7321
-3.46194
-3.18192
-2.91095
-2.72143
-3.00638
-6.25741
-5.25798
-5.2209
-5.14704
-5.03708
-4.89223
-4.71446
-4.50691
-4.27434
-4.02395
-3.76679
-3.52037
-3.31363
-3.18772
-3.1
-1.88836
-5.60754
-5.56853
-5.49081
-5.37508
-5.22268
-5.03591
-4.81862
-4.57695
-4.32052
-4.06419
-3.83125
-3.66019
-3.62747
-3.97413
-6.03094
-5.98419
-5.94304
-5.86097
-5.73856
-5.57699
-5.37855
-5.14725
-4.88982
-4.617
-4.34535
-4.09917
-3.91068
-3.80378
-3.66064
-2.24882
-6.38941
-6.34597
-6.25915
-6.12921
-5.95691
-5.74401
-5.49404
-5.21337
-4.91269
-4.60882
-4.32701
-4.10452
-4.00525
-4.22816
-5.97034
-6.8248
-6.77903
-6.68728
-6.54929
-6.36502
-6.13521
-5.86214
-5.55082
-5.21058
-4.85696
-4.51367
-4.2128
-3.98297
-3.74064
-2.41767
-7.29197
-7.24401
-7.14752
-7.00149
-6.80476
-6.55646
-6.2568
-5.90836
-5.51775
-5.09794
-4.67086
-4.27173
-3.96937
-4.00358
-5.67023
-7.79245
-7.74268
-7.64214
-7.48891
-7.28032
-7.01335
-6.68534
-6.29517
-5.8452
-5.34396
-4.80864
-4.26347
-3.72202
-3.13289
-2.35627
-8.32749
-8.27661
-8.17336
-8.01476
-7.7964
-7.51264
-7.15705
-6.72351
-6.20826
-5.61364
-4.95327
-4.25263
-3.5078
-2.3924
1.49698
-8.89785
-8.84691
-8.74302
-8.58211
-8.3579
-8.06179
-7.68289
-7.20859
-6.62642
-5.92898
-5.12585
-4.27248
-3.5509
-3.57829
-7.02941
-9.50359
-9.45397
-9.35226
-9.19341
-8.96933
-8.66843
-8.27498
-7.76858
-7.12463
-6.31771
-5.33333
-4.2008
-3.07389
-2.38661
-2.87189
-10.1438
-10.0972
-10.0012
-9.84999
-9.63409
-9.33935
-8.9455
-8.42409
-7.736
-6.82967
-5.6437
-4.1252
-2.29158
-0.380659
0.948573
-10.8163
-10.7747
-10.6885
-10.5515
-10.3536
-10.0791
-9.7046
-9.19533
-8.49892
-7.53582
-6.18498
-4.26845
-1.56294
2.02923
5.69206
-11.5178
-11.4831
-11.4109
-11.2953
-11.1263
-10.8882
-10.5573
-10.0965
-9.44704
-8.51122
-7.11912
-4.95958
-1.45004
4.39002
12.9791
-12.2434
-12.2176
-12.1636
-12.0763
-11.9469
-11.7619
-11.5002
-11.1288
-10.594
-9.80348
-8.58618
-6.58822
-2.95555
4.84173
26.2308
-148.128
-88.9663
-62.1526
-49.3373
-42.4715
-38.3697
-35.7039
-33.8654
-32.547
-31.5805
-30.8677
-30.3486
-29.9853
-29.7545
-29.6422
-184.379
-83.243
-55.1887
-44.373
-38.9459
-35.7207
-33.5973
-32.1086
-31.0247
-30.22
-29.6203
-29.1801
-28.8703
-28.6726
-28.5763
47.7563
-26.7684
-36.2537
-35.6664
-33.8913
-32.3066
-31.0498
-30.0707
-29.3087
-28.7169
-28.2621
-27.921
-27.6773
-27.5204
-27.4435
-6.97574
-15.46
-24.3134
-27.7847
-28.7043
-28.6648
-28.3093
-27.882
-27.4743
-27.1187
-26.825
-26.5941
-26.4241
-26.3125
-26.2572
26.4636
-3.89547
-16.1107
-21.675
-24.1835
-25.2424
-25.6186
-25.6798
-25.6038
-25.4776
-25.3442
-25.225
-25.1303
-25.0654
-25.0326
-1.29438
-4.9309
-12.5266
-17.6873
-20.6692
-22.2942
-23.1466
-23.5727
-23.768
-23.8414
-23.8536
-23.8386
-23.8159
-23.7961
-23.785
11.8151
-3.21696
-10.6335
-15.2127
-18.0971
-19.8826
-20.9705
-21.6259
-22.017
-22.2477
-22.3817
-22.4577
-22.4994
-22.5208
-22.5297
-2.97902
-6.79164
-10.7108
-13.9149
-16.288
-17.9555
-19.0948
-19.8627
-20.3773
-20.7211
-20.95
-21.1007
-21.1971
-21.2541
-21.2806
-15.1257
-10.2924
-11.2848
-13.1942
-14.9691
-16.3951
-17.477
-18.2754