/*--------------------------------*- C++ -*----------------------------------*\
| =========                 |                                                 |
| \\      /  F ield         | OpenFOAM: The Open Source CFD Toolbox           |
|  \\    /   O peration     | Version:  5.x                                   |
|   \\  /    A nd           | Web:      www.OpenFOAM.org                      |
|    \\/     M anipulation  |                                                 |
\*---------------------------------------------------------------------------*/
FoamFile
{
    version     2.0;
    format      ascii;
    class       volScalarField;
    location    "6";
    object      gradTy;
}
// * * * * * * * * * * * * * * * * * * * * * * * * * * * * * * * * * * * * * //

dimensions      [0 -1 0 1 0 0 0];

internalField   nonuniform List<scalar> 
6300
(
32284.3
32252.9
32221.4
32189.7
32157.7
32125.5
32092.8
32059.8
32026.2
31992.2
31957.5
31922.3
31886.5
31850.1
31813.1
0.0533694
0.159604
0.2643
0.366326
0.46439
0.557003
0.642458
0.718848
0.784132
0.836261
0.87336
0.89398
0.897381
0.883808
0.854683
0.0894919
0.267679
0.443418
0.614882
0.779965
0.936203
1.08073
1.21029
1.32136
1.4103
1.47372
1.50888
1.51426
1.49005
1.4386
0.126414
0.378209
0.626821
0.869833
1.1044
1.32713
1.53399
1.72027
1.88074
2.0099
2.10237
2.15362
2.16078
2.12358
2.04519
0.164367
0.491923
0.815824
1.13322
1.44068
1.73395
2.00781
2.25604
2.47145
2.64618
2.77224
2.84246
2.85167
2.79831
2.68597
0.203497
0.609291
1.01133
1.40656
1.79115
2.16016
2.50727
2.82464
3.10285
3.33112
3.49797
3.5923
3.60513
3.53204
3.3759
0.243827
0.730418
1.21363
1.69053
2.1572
2.60826
3.03647
3.43241
3.78417
4.07749
4.29623
4.42364
4.44454
4.34882
4.13607
0.285217
0.854927
1.42223
1.98474
2.53886
3.07919
3.59796
4.08435
4.52395
4.89846
5.18584
5.36149
5.40061
5.28267
4.99845
0.327333
0.981842
1.63563
2.28735
2.9343
3.5717
4.19183
4.78308
5.32884
5.80655
6.18722
6.43589
6.51376
6.38283
6.01455
0.369607
1.10948
1.85108
2.59472
3.33929
4.08146
4.8146
5.52732
6.20178
6.8117
7.32063
7.68113
7.83574
7.72034
7.27041
0.411221
1.23538
2.06451
2.90116
3.74668
4.60027
5.45778
6.30983
7.13928
7.91786
8.60249
9.13226
9.42769
9.39227
8.90938
0.451115
1.35633
2.27039
3.19875
4.146
5.11517
6.10642
7.11497
8.12767
9.11799
10.0392
10.8177
11.3503
11.5111
11.1501
0.48802
1.46843
2.46199
3.47743
4.52341
5.60799
6.73778
7.91596
9.13848
10.3872
11.6187
12.7488
13.6438
14.1499
14.2109
0.520551
1.5674
2.63168
3.7256
4.86221
6.0556
7.32077
8.67263
10.1231
11.6738
13.2993
14.9145
16.3244
17.2285
17.7254
0.547332
1.64894
2.77174
3.93107
5.14422
6.43144
7.81707
9.3307
11.0075
12.8854
14.9902
17.2849
19.5072
20.7015
18.1819
31778.7
31747
31714.9
31682.5
31649.8
31616.8
31583.6
31550
31516.3
31482.3
31448.2
31413.9
31379.5
31344.9
31310.2
31275.5
31240.7
31206
31171.2
31136.4
31101.6
31066.9
31032.1
30997.5
30962.8
30928.2
30893.6
30859.1
30824.6
30790.1
30755.7
30721.4
30687.2
30653.1
30619
30585
30551.2
30517.4
30483.7
30450
30416.5
30383
30349.6
30316.3
30283
30249.9
30216.8
30183.8
30150.9
30118.2
30085.5
30052.9
30020.4
29988.1
29955.8
29923.5
29891.4
29859.3
29827.3
29795.4
29763.6
29731.9
29700.2
29668.7
29637.2
29605.9
29574.6
29543.4
29512.3
29481.3
29450.4
29419.5
29388.7
29357.9
29327.2
29296.6
29266
29235.5
29205
29174.6
29144.3
29113.9
29083.6
29053.3
29022.9
28992.5
28962
28931.5
28900.8
28870.1
0.816114
0.774311
0.728039
0.679508
0.630568
0.58246
0.535687
0.490036
0.444749
0.398814
0.351301
0.301691
0.250107
0.197411
0.145146
0.0953107
0.0500388
0.0112175
-0.0198531
-0.0427064
-0.0578101
-0.0665088
-0.0708217
-0.0731303
-0.0758086
-0.0808556
-0.0895872
-0.10244
-0.118923
-0.13772
-0.156949
-0.174508
-0.188468
-0.197423
-0.200741
-0.198674
-0.192311
-0.183392
-0.174009
-0.16626
-0.161899
-0.162038
-0.166965
-0.176096
-0.188074
-0.201012
-0.21283
-0.221621
-0.22599
-0.225291
-0.219727
-0.21031
-0.198674
-0.186795
-0.176658
-0.169916
-0.167615
-0.170012
-0.176528
-0.185849
-0.196153
-0.205428
-0.211831
-0.214004
-0.211299
-0.203876
-0.192658
-0.179151
-0.165174
-0.152529
-0.142675
-0.136452
-0.133901
-0.134217
-0.135836
-0.13666
-0.134372
-0.126802
-0.112271
-0.08987
-0.0596329
-0.0225921
0.0192828
0.06325
0.106047
0.144211
0.174436
0.193952
0.200861
0.194383
1.37069
1.29738
1.21673
1.1329
1.04934
0.968337
0.890699
0.815794
0.741902
0.666793
0.58841
0.505511
0.418148
0.327861
0.237562
0.151109
0.0726482
0.00587351
-0.0466604
-0.0840146
-0.107059
-0.118358
-0.12177
-0.121853
-0.123148
-0.129475
-0.143338
-0.165547
-0.195107
-0.22943
-0.264817
-0.297148
-0.322649
-0.338579
-0.343711
-0.338538
-0.325175
-0.306984
-0.288014
-0.272317
-0.263278
-0.26305
-0.27219
-0.289558
-0.312513
-0.337378
-0.360095
-0.376958
-0.385262
-0.383767
-0.372886
-0.35459
-0.33205
-0.309096
-0.289566
-0.276663
-0.272413
-0.277317
-0.290257
-0.308677
-0.329031
-0.347409
-0.36023
-0.364871
-0.360099
-0.346255
-0.325155
-0.299748
-0.273583
-0.250184
-0.232419
-0.221972
-0.218993
-0.221994
-0.228018
-0.23306
-0.232684
-0.222722
-0.199935
-0.162531
-0.110478
-0.0455932
0.028577
0.107062
0.183918
0.252793
0.307588
0.343147
0.355909
0.344406
1.942
1.8311
1.71009
1.58595
1.4645
1.34945
1.24185
1.14017
1.04089
0.93957
0.832103
0.715848
0.590491
0.458421
0.324537
0.195494
0.0785306
-0.0198748
-0.0952218
-0.145822
-0.173115
-0.181452
-0.177401
-0.168717
-0.163127
-0.167125
-0.184955
-0.217946
-0.264313
-0.319487
-0.376961
-0.429499
-0.47049
-0.495159
-0.501395
-0.490073
-0.464862
-0.431574
-0.39718
-0.368659
-0.351842
-0.350446
-0.365439
-0.394848
-0.434078
-0.47671
-0.515667
-0.544496
-0.558523
-0.555637
-0.536602
-0.504859
-0.465904
-0.426349
-0.392816
-0.370835
-0.363915
-0.37294
-0.395983
-0.428611
-0.464649
-0.497285
-0.520306
-0.52919
-0.521862
-0.498983
-0.46376
-0.421343
-0.377918
-0.339635
-0.311536
-0.296652
-0.295389
-0.305338
-0.321534
-0.337184
-0.344725
-0.337039
-0.308579
-0.256219
-0.179734
-0.0819027
0.0317178
0.153279
0.273335
0.381704
0.468491
0.525218
0.545945
0.528181
2.53793
2.37937
2.20797
2.03513
1.87044
1.71982
1.58449
1.46109
1.3428
1.2212
1.08845
0.939288
0.772497
0.591591
0.404538
0.222481
0.0576868
-0.0788304
-0.179422
-0.241194
-0.266472
-0.262389
-0.239708
-0.211129
-0.189303
-0.184861
-0.204745
-0.251091
-0.32084
-0.406239
-0.49622
-0.578482
-0.641841
-0.678291
-0.684367
-0.661613
-0.616187
-0.557761
-0.497897
-0.448152
-0.418203
-0.414248
-0.437935
-0.486002
-0.550745
-0.621339
-0.685826
-0.733353
-0.756139
-0.750766
-0.718621
-0.665515
-0.600623
-0.534933
-0.479435
-0.443319
-0.432458
-0.448377
-0.487907
-0.543635
-0.605164
-0.661008
-0.700737
-0.716852
-0.706018
-0.669486
-0.612721
-0.544387
-0.474847
-0.414417
-0.371623
-0.351713
-0.355639
-0.37968
-0.415834
-0.452981
-0.478688
-0.481266
-0.451634
-0.384642
-0.279725
-0.140945
0.0234277
0.201669
0.379584
0.541696
0.672685
0.75913
0.791409
0.765359
3.16842
2.94614
2.70791
2.47259
2.25614
2.06817
1.90995
1.77465
1.64947
1.51887
1.36843
1.18811
0.974816
0.733604
0.477334
0.224597
-0.00388645
-0.18953
-0.319537
-0.389128
-0.402125
-0.370118
-0.310521
-0.243831
-0.190461
-0.167581
-0.186448
-0.250549
-0.354846
-0.486408
-0.626611
-0.754705
-0.851955
-0.905176
-0.908873
-0.865816
-0.786249
-0.686038
-0.584057
-0.499156
-0.44715
-0.43826
-0.47534
-0.553158
-0.659001
-0.774778
-0.880423
-0.95785
-0.994317
-0.98446
-0.930836
-0.843154
-0.736504
-0.628853
-0.538151
-0.479447
-0.462448
-0.489824
-0.556516
-0.650315
-0.753871
-0.847943
-0.915178
-0.943325
-0.927186
-0.869127
-0.778347
-0.669173
-0.558661
-0.463806
-0.39876
-0.372454
-0.386924
-0.436584
-0.508702
-0.585252
-0.645956
-0.671873
-0.648486
-0.567678
-0.428475
-0.236838
-0.00483221
0.250529
0.508592
0.746506
0.94102
1.07104
1.12087
1.08335
3.84739
3.53588
3.20371
2.88287
2.60085
2.37369
2.20238
2.07367
1.96391
1.84513
1.69141
1.48439
1.21733
0.897286
0.545031
0.191774
-0.127163
-0.38036
-0.546665
-0.618573
-0.602598
-0.517596
-0.391563
-0.257371
-0.147733
-0.090202
-0.103033
-0.192143
-0.349612
-0.554152
-0.774461
-0.975361
-1.12549
-1.2034
-1.20073
-1.12261
-0.986061
-0.816883
-0.64564
-0.502814
-0.414029
-0.396096
-0.4541
-0.579978
-0.75297
-0.942824
-1.11567
-1.24135
-1.29922
-1.2812
-1.19211
-1.04812
-0.873839
-0.698381
-0.550806
-0.455531
-0.428552
-0.474666
-0.586101
-0.742954
-0.916247
-1.07353
-1.18591
-1.23358
-1.20873
-1.11589
-0.970466
-0.795889
-0.619932
-0.470276
-0.370113
-0.33448
-0.367536
-0.461148
-0.595191
-0.740342
-0.863318
-0.933476
-0.928023
-0.834801
-0.652729
-0.390861
-0.0667215
0.295499
0.666618
1.01381
1.30222
1.49844
1.5761
1.52226
4.59705
4.15544
3.68323
3.23725
2.86661
2.59877
2.4335
2.3454
2.29136
2.22169
2.09113
1.86713
1.53613
1.10734
0.614155
0.109513
-0.345121
-0.696334
-0.909744
-0.97459
-0.902489
-0.724181
-0.484375
-0.235575
-0.0299916
0.0884757
0.0902023
-0.0353259
-0.276616
-0.599215
-0.950282
-1.26915
-1.50307
-1.61767
-1.60124
-1.46359
-1.23288
-0.950729
-0.66633
-0.428675
-0.278908
-0.244603
-0.335147
-0.538976
-0.822679
-1.13538
-1.41885
-1.62252
-1.71341
-1.68029
-1.53245
-1.29674
-1.01288
-0.727774
-0.488164
-0.333287
-0.289418
-0.365459
-0.550296
-0.811934
-1.10168
-1.3638
-1.54985
-1.62826
-1.58817
-1.4384
-1.20457
-0.924598
-0.643337
-0.405481
-0.248546
-0.197599
-0.260952
-0.427493
-0.665686
-0.927362
-1.15674
-1.30396
-1.33394
-1.22987
-0.991883
-0.634553
-0.183444
0.327656
0.859101
1.36576
1.79619
2.09657
2.22069
2.14339
5.4572
4.81911
4.12505
3.48315
2.98436
2.67618
2.55353
2.56808
2.64132
2.6859
2.62542
2.40395
1.99573
1.41011
0.69976
-0.0447742
-0.712027
-1.21076
-1.48678
-1.52783
-1.35534
-1.01935
-0.590163
-0.151573
0.213172
0.435235
0.466659
0.288163
-0.0865637
-0.603313
-1.1725
-1.68528
-2.0525
-2.22064
-2.17636
-1.9386
-1.55379
-1.08785
-0.619735
-0.228007
0.0224514
0.0866437
-0.0530899
-0.38298
-0.850648
-1.37007
-1.83698
-2.16609
-2.30621
-2.2446
-1.99933
-1.61473
-1.15373
-0.69167
-0.303527
-0.051208
0.02237
-0.099603
-0.403914
-0.840449
-1.32692
-1.76359
-2.06882
-2.19357
-2.12556
-1.88197
-1.50512
-1.05517
-0.604244
-0.224167
0.0256393
0.103867
-0.00577897
-0.290662
-0.702368
-1.1609
-1.56845
-1.84326
-1.93291
-1.81775
-1.50289
-1.01328
-0.38655
0.330522
1.08728
1.82746
2.47745
2.9485
3.15532
3.0449
6.50665
5.56351
4.49187
3.52303
2.82762
2.48644
2.47599
2.70629
3.03254
3.30143
3.3915
3.20969
2.71075
1.89249
0.834571
-0.310367
-1.32162
-2.04594
-2.40217
-2.38861
-2.04367
-1.44873
-0.709526
0.0387351
0.661773
1.05648
1.14537
0.894194
0.307971
-0.531929
-1.47599
-2.31103
-2.88866
-3.12952
-3.03012
-2.62541
-1.99154
-1.22813
-0.463176
0.176055
0.592002
0.711512
0.502763
-0.0286156
-0.804119
-1.6804
-2.45357
-2.98184
-3.18952
-3.07339
-2.66689
-2.04277
-1.29613
-0.549149
0.076673
0.488237
0.615731
0.4288
-0.0671467
-0.797067
-1.6239
-2.35266
-2.8477
-3.03648
-2.91579
-2.51744
-1.91092
-1.18717
-0.463134
0.14473
0.54689
0.675867
0.501731
0.0287904
-0.671625
-1.46783
-2.17132
-2.64916
-2.82682
-2.69319
-2.26555
-1.58945
-0.719741
0.276241
1.33934
2.41903
3.4164
4.18094
4.54676
4.39326
7.9142
6.49313
4.71106
3.1695
2.16072
1.82036
2.05178
2.70634
3.50638
4.17446
4.5491
4.47207
3.8856
2.71995
1.09467
-0.76849
-2.34441
-3.4112
-3.85009
-3.72663
-3.092
-2.08588
-0.841966
0.409334
1.43913
2.11809
2.31374
1.98266
1.06777
-0.310589
-1.93651
-3.30747
-4.20983
-4.52841
-4.32358
-3.64224
-2.61589
-1.37069
-0.12561
0.90161
1.58839
1.80904
1.52317
0.677257
-0.612499
-2.13926
-3.42282
-4.25929
-4.53914
-4.32034
-3.64784
-2.64726
-1.43903
-0.232192
0.76538
1.43672
1.66184
1.40216
0.606522
-0.614145
-2.06213
-3.2783
-4.06761
-4.32506
-4.10583
-3.45268
-2.48556
-1.31958
-0.154745
0.809833
1.46152
1.68434
1.43951
0.675804
-0.502946
-1.90827
-3.09914
-3.88731
-4.16895
-3.99201
-3.38595
-2.44443
-1.23475
0.125312
1.56752
3.12914
4.69061
5.98753
6.68604
6.49322
10.0637
7.94179
4.58473
2.05043
0.531557
0.330747
1.01812
2.49689
4.1702
5.47005
6.3571
6.46806
5.89446
4.20924
1.69732
-1.64027
-4.10035
-5.68068
-6.10785
-5.80074
-4.67534
-3.06551
-0.985072
1.09886
2.72167
3.8756
4.24059
3.91177
2.49492
0.267201
-2.7642
-4.97876
-6.37167
-6.68104
-6.30328
-5.15592
-3.55541
-1.5131
0.525626
2.11737
3.25594
3.63593
3.34998
2.02223
-0.0796309
-2.94835
-5.03589
-6.33831
-6.60685
-6.22065
-5.10124
-3.5508
-1.57994
0.386075
1.92384
3.02772
3.40602
3.14729
1.8922
-0.103909
-2.83417
-4.81865
-6.0534
-6.30004
-5.92076
-4.84003
-3.34657
-1.45036
0.442011
1.92549
2.99369
3.36623
3.12447
1.92047
-0.00800053
-2.65752
-4.60683
-5.85485
-6.17144
-5.90875
-4.98941
-3.68552
-1.96632
-0.1439
1.62376
3.83947
6.34577
8.6558
10.1089
9.96699
13.8384
11.1598
3.27022
-0.525948
-2.99291
-2.43714
-1.15498
2.00731
5.37182
7.36009
9.28265
9.4498
9.50406
6.88899
3.48891
-3.7757
-7.12319
-9.61073
-9.423
-9.05325
-6.9563
-4.72283
-1.13325
2.45235
4.67938
6.76914
7.1665
7.40759
5.08968
2.00225
-4.76818
-7.83326
-10.0938
-9.82319
-9.39126
-7.32216
-5.13118
-1.65039
1.82047
3.98563
6.01582
6.42174
6.67693
4.48189
1.55748
-4.88238
-7.77958
-9.90615
-9.61741
-9.17679
-7.17533
-5.0598
-1.7139
1.62099
3.70704
5.66353
6.06751
6.32713
4.24493
1.46348
-4.68015
-7.43865
-9.46205
-9.17635
-8.74578
-6.8217
-4.78756
-1.57564
1.62756
3.63914
5.5276
5.93268
6.19504
4.20838
1.52525
-4.41508
-7.12438
-9.16363
-9.00808
-8.77104
-7.14662
-5.52464
-2.8465
-0.334255
1.03481
4.13137
8.28352
12.5581
15.8283
16.2997
20.9481
21.8242
-3.99069
-5.02508
-10.8694
-6.25062
-6.03535
1.22658
8.55522
9.34475
14.736
12.5941
16.9575
10.6991
10.8454
-11.5518
-11.3844
-17.3932
-13.0003
-14.793
-9.43389
-8.33301
-1.27576
5.76216
6.83474
12.0997
10.3174
14.5883
8.79253
9.04075
-12.1079
-11.8463
-17.4611
-13.1976
-14.8368
-9.66397
-8.56433
-1.77345
4.9955
6.04819
11.1146
9.42457
13.5321
7.99183
8.25677
-11.9179
-11.633
-16.9521
-12.8467
-14.3806
-9.41371
-8.34058
-1.83201
4.6542
5.67679
10.5349
8.93685
12.8791
7.60455
7.87237
-11.4007
-11.1172
-16.1958
-12.2613
-13.7215
-8.96185
-7.92456
-1.68836
4.52905
5.53004
10.1976
8.70464
12.5042
7.49917
7.74888
-10.8253
-10.6068
-15.6329
-11.962
-13.6311
-9.3003
-8.88459
-3.48778
1.12158
-2.04176
2.90321
10.0449
17.9068
25.578
29.8672
30.9435
70.9215
-46.9419
-2.60381
-33.8148
-3.7232
-21.0627
0.350167
21.1554
4.70333
31.0376
6.37114
39.7069
5.28698
50.6651
-51.8205
-6.75124
-40.1536
-7.66978
-30.8306
-5.77905
-20.5197
-1.38977
17.6627
2.95379
27.5788
4.75246
36.2659
3.79266
46.8915
-50.2776
-7.39663
-39.0523
-8.07138
-30.091
-6.13958
-20.1921
-1.86418
16.4027
2.33179
25.9434
4.07964
34.2811
3.14293
44.3899
-48.4144
-7.41604
-37.5684
-7.95482
-28.9447
-6.04438
-19.4477
-1.91725
15.5557
2.12405
24.7038
3.82875
32.7041
2.98375
42.4209
-46.2824
-7.07347
-35.9081
-7.57717
-27.6531
-5.74128
-18.5474
-1.77348
14.9427
2.14168
23.739
3.85596
31.4924
3.22363
41.0794
-44.2966
-6.53657
-34.6253
-7.22608
-27.1308
-5.81581
-19.417
-2.99483
13.7704
-16.794
-1.48795
10.7694
23.5305
40.1977
67.0182
28836.1
28799
28761.8
28724.5
28687.2
28649.9
28612.7
28575.5
28538.5
28501.6
28464.7
28428
28391.4
28354.8
28318.3
0.173041
0.133736
0.083165
0.0271429
-0.0284146
-0.0782959
-0.118512
-0.146505
-0.16111
-0.162359
-0.151217
-0.129318
-0.0987357
-0.0618122
-0.0210352
0.306
0.235252
0.14455
0.044645
-0.053712
-0.141261
-0.21112
-0.259065
-0.28337
-0.284379
-0.263992
-0.225185
-0.171608
-0.107298
-0.0364906
0.467848
0.356755
0.215168
0.0606285
-0.0897906
-0.221894
-0.32562
-0.395247
-0.428911
-0.427781
-0.395178
-0.335815
-0.255208
-0.159278
-0.0541195
0.674973
0.508754
0.298743
0.0724942
-0.144182
-0.330903
-0.474215
-0.56739
-0.609246
-0.602652
-0.553121
-0.467688
-0.35413
-0.220488
-0.0748282
0.949714
0.704548
0.398555
0.0747886
-0.228527
-0.483318
-0.672947
-0.79085
-0.838027
-0.820459
-0.746965
-0.627686
-0.473135
-0.293713
-0.0995337
1.32384
0.961169
0.51614
0.0566339
-0.361395
-0.700893
-0.943403
-1.08503
-1.13155
-1.09419
-0.986593
-0.822952
-0.617011
-0.381695
-0.129127
1.84417
1.30015
0.648205
-0.00299657
-0.57279
-1.01545
-1.31474
-1.47432
-1.50896
-1.43815
-1.28226
-1.06052
-0.790262
-0.486928
-0.164404
2.58211
1.74705
0.77953
-0.144033
-0.911314
-1.47338
-1.82578
-1.98855
-1.9918
-1.8672
-1.64378
-1.34659
-0.996588
-0.61135
-0.205967
3.65025
2.32642
0.866897
-0.441348
-1.45504
-2.14099
-2.52643
-2.66228
-2.60251
-2.39504
-2.07908
-1.68547
-1.23815
-0.755916
-0.254078
5.23166
3.04149
0.802986
-1.03321
-2.32653
-3.10908
-3.47666
-3.53163
-3.36091
-3.03137
-2.59203
-2.07805
-1.51461
-0.920089
-0.308507
7.62699
3.80489
0.336767
-2.16793
-3.70876
-4.49215
-4.7395
-4.62665
-4.27811
-3.7775
-3.17961
-2.52008
-1.82216
-1.10132
-0.368366
11.2917
4.21429
-1.09286
-4.26653
-5.8484
-6.41125
-6.36254
-5.95736
-5.34738
-4.62088
-3.82883
-3.0005
-2.15262
-1.29465
-0.432002
16.5705
2.85344
-4.65598
-7.95691
-9.00706
-8.9419
-8.34202
-7.49285
-6.53316
-5.52981
-4.51431
-3.50047
-2.49316
-1.49267
-0.49699
21.0609
-4.71508
-12.4276
-13.8981
-13.281
-12.0073
-10.5708
-9.13887
-7.76257
-6.45089
-5.19813
-3.99391
-2.82688
-1.68589
-0.56027
0.566084
1.706
2.86965
4.07456
5.3411
6.69422
8.16601
9.79938
11.6537
13.8125
16.3911
19.5265
23.2518
26.7316
23.9541
0.57723
1.7398
2.92724
4.15809
5.45422
6.84297
8.36067
10.0583
12.0117
14.3416
17.2555
21.1519
26.922
37.0049
59.7414
0.582747
1.75632
2.95468
4.19631
5.50302
6.90218
8.43038
10.1395
12.1084
14.4652
17.4382
21.4781
27.6018
38.4785
62.2961
0.582654
1.75563
2.95207
4.18934
5.48761
6.87179
8.37442
10.0405
11.9356
14.161
16.8799
20.3592
24.9927
31.0078
35.867
0.577238
1.73863
2.92113
4.14
5.41253
6.75913
8.20498
9.78228
11.5333
13.5138
15.7933
18.4383
21.429
24.383
26.0598
0.56702
1.70698
2.86491
4.0534
5.28601
6.57755
7.94426
9.40346
10.9717
12.6589
14.4525
16.2758
17.8868
18.6513
17.0358
0.552688
1.66286
2.78747
3.93617
5.11856
6.34375
7.6193
8.94892
10.3274
11.7302
13.0912
14.2604
14.9305
14.5715
12.7774
0.535022
1.60872
2.69329
3.79554
4.9214
6.07497
7.25678
8.46041
9.66632
10.8304
11.8631
12.5917
12.6884
11.4882
7.24638
0.514815
1.54704
2.58684
3.63851
4.70498
5.78658
6.8791
7.97031
9.03425
10.0218
10.846
11.362
11.3466
10.5171
8.83402
0.492808
1.48009
2.47213
3.47122
4.47805
5.49061
6.50231
7.49913
8.45522
9.32659
10.0431
10.5014
10.5702
10.1388
9.27423
0.469641
1.40984
2.35254
3.29853
4.24714
5.19524
6.13586
7.05622
7.935
8.73893
9.41933
9.91113
10.141
10.0612
9.74687
0.445839
1.33785
2.23065
3.12404
4.01659
4.90505
5.78346
6.64217
7.46676
8.23703
8.92653
9.50276
9.92683
10.1465
10.0609
0.421805
1.26532
2.10837
2.95011
3.78888
4.62184
5.44473
6.25182
7.03622
7.79119
8.51237
9.20004
9.85459
10.4436
10.8113
0.39784
1.1931
1.98699
2.77825
3.5652
4.34561
5.11698
5.8772
6.62611
7.3688
8.12147
8.9203
9.82783
10.8943
11.8182
0.374166
1.12183
1.86742
2.6094
3.34605
4.07565
4.79698
5.51042
6.2203
6.93948
7.69848
8.56502
9.69064
11.4441
14.8662
0.350959
1.052
1.75037
2.44424
3.13178
3.81143
4.48244
5.14611
5.80803
6.48247
7.20081
8.02981
9.11743
10.835
14.3235
0.328361
0.984013
1.63644
2.28348
2.923
3.5532
4.17299
4.78299
5.38706
5.99495
6.62626
7.31497
8.10671
8.99606
9.48236
0.306507
0.918268
1.52626
2.12792
2.7207
3.30219
3.87034
4.42399
4.96343
5.49117
6.01182
6.52857
7.02816
7.43699
7.56567
0.285522
0.855142
1.42046
1.97852
2.52625
3.06043
3.57777
4.07483
4.54791
4.9923
5.40008
5.75406
6.01263
6.07243
5.663
0.265525
0.795001
1.31971
1.8363
2.34119
2.83037
3.29926
3.74232
4.1523
4.51884
4.82567
5.0458
5.13511
5.0337
4.73401
0.246621
0.738171
1.22459
1.70221
2.16702
2.61439
3.0387
3.43278
3.78686
4.08684
4.31146
4.42838
4.39003
4.13263
3.56468
0.22889
0.684908
1.13556
1.57702
2.00498
2.41441
2.79912
3.15101
3.45898
3.70715
3.87204
3.91877
3.79705
3.44722
2.89029
0.212382
0.635366
1.05293
1.46119
1.85579
2.23161
2.58233
2.89973
3.17264
3.38528
3.51468
3.52612
3.36248
2.90562
1.78186
0.19711
0.589587
0.976763
1.35485
1.71964
2.06624
2.38868
2.67934
2.92814
3.12122
3.23924
3.25504
3.13153
2.82715
2.36785
0.183048
0.547489
0.906904
1.25774
1.59613
1.91765
2.21709
2.48803
2.72232
2.90927
3.03478
3.0807
3.02617
2.85627
2.58557
0.170136
0.50888
0.843001
1.16929
1.48433
1.78439
2.06528
2.32218
2.54939
2.74
2.8856
2.97612
3.00094
2.9554
2.86837
0.158285
0.473481
0.784537
1.08864
1.38293
1.66444
1.93014
2.17696
2.40186
2.60198
2.77468
2.91716
3.02459
3.08334
3.04921
0.14739
0.440958
0.730899
1.01482
1.29041
1.55547
1.80811
2.04696
2.27156
2.48303
2.68474
2.88256
3.08204
3.27579
3.416
0.137336
0.410955
0.681441
0.946796
1.2052
1.45514
1.69567
1.92685
2.15038
2.37085
2.59751
2.84681
3.14348
3.50543
3.82249
0.128014
0.38313
0.635547
0.883601
1.12586
1.36133
1.58974
1.81205
2.03134
2.25438
2.49457
2.77818
3.15962
3.76626
4.95609
0.119325
0.35718
0.592687
0.82443
1.05125
1.27244
1.48805
1.69935
1.90971
2.12602
2.36149
2.64164
3.01939
3.62212
4.83046
0.11119
0.332862
0.552443
0.768681
0.980554
1.18744
1.38936
1.58733
1.78396
1.98436
2.19741
2.43734
2.72295
3.05745
3.28394
0.103549
0.309996
0.514526
0.715966
0.913325
1.1059
1.29341
1.47624
1.65562
1.83393
2.01467
2.20134
2.39258
2.56783
2.66897
0.0963587
0.288465
0.478757
0.666091
0.849427
1.02787
1.20074
1.36755
1.52802
1.68182
1.82784
1.9622
2.07333
2.12969
2.04437
0.0895939
0.268196
0.445046
0.618999
0.788932
0.953737
1.11228
1.26328
1.40508
1.53514
1.64912
1.73921
1.79214
1.78998
1.73401
0.0832369
0.249145
0.413352
0.574704
0.732005
0.883959
1.02906
1.1654
1.2903
1.39966
1.487
1.54204
1.54925
1.48767
1.32724
0.0772737
0.231279
0.383644
0.533228
0.678799
0.818949
0.951948
1.0755
1.18632
1.27948
1.34734
1.3781
1.35414
1.25403
1.08635
0.0716882
0.214554
0.355872
0.494546
0.629367
0.758915
0.881406
0.994446
1.09462
1.17688
1.23348
1.25218
1.21193
1.06734
0.671735
0.066458
0.198908
0.32994
0.458548
0.583606
0.703792
0.817442
0.922341
1.01539
1.09212
1.14595
1.16722
1.14221
1.05497
0.915373
0.0615529
0.184248
0.305699
0.42502
0.541239
0.653219
0.759568
0.85848
0.947516
1.02329
1.08106
1.11443
1.11572
1.079
1.00841
0.0569336
0.170457
0.28294
0.393656
0.501824
0.606569
0.706872
0.801494
0.88887
0.96697
1.03313
1.08395
1.11566
1.12656
1.12801
0.0525542
0.157392
0.261414
0.364069
0.464796
0.563016
0.658138
0.749558
0.836687
0.918967
0.995879
1.06677
1.13008
1.18072
1.20145
0.0483641
0.144896
0.240842
0.33583
0.429519
0.521629
0.611988
0.700621
0.787891
0.874716
0.962836
1.05488
1.15333
1.25569
1.34408
0.0443117
0.13281
0.220942
0.308501
0.39535
0.48147
0.567053
0.65265
0.739426
0.829591
0.927094
1.03859
1.1739
1.34039
1.49706
0.0403477
0.120982
0.201445
0.281674
0.361697
0.441698
0.522125
0.603879
0.688629
0.779395
0.881666
1.00579
1.17285
1.43195
1.92029
0.0364277
0.109276
0.182116
0.254999
0.328071
0.401642
0.476292
0.553047
0.633678
0.721237
0.821095
0.943206
1.10794
1.36438
1.86059
0.0325142
0.0975783
0.162763
0.228201
0.29411
0.360852
0.429014
0.499543
0.573938
0.654564
0.745101
0.851062
0.979377
1.13035
1.24053
0.0285772
0.0858005
0.143241
0.201085
0.259582
0.319088
0.380109
0.443373
0.509895
0.581035
0.658426
0.74343
0.835126
0.924707
0.989277
0.0245936
0.0738749
0.123445
0.173523
0.224365
0.276284
0.329664
0.38496
0.442667
0.503191
0.566492
0.631186
0.692381
0.736476
0.726194
0.0205459
0.0617521
0.103303
0.145439
0.188411
0.23248
0.277903
0.324891
0.373504
0.423442
0.47362
0.521404
0.561547
0.586043
0.59336
0.0164203
0.049393
0.0827607
0.116782
0.151705
0.187748
0.225073
0.263711
0.303441
0.343552
0.382436
0.416955
0.441609
0.447573
0.418503
0.012204
0.0367631
0.0617699
0.0875076
0.11423
0.14214
0.171345
0.20179
0.233133
0.264535
0.294307
0.319384
0.334677
0.33346
0.317611
0.00788424
0.0238254
0.0402772
0.0575569
0.0759419
0.0956439
0.11677
0.139262
0.162805
0.18667
0.209463
0.228632
0.239235
0.229532
0.159737
0.00344575
0.0105363
0.018215
0.0268462
0.0367488
0.0481713
0.0612607
0.0760223
0.0922705
0.109569
0.127158
0.143852
0.157916
0.167356
0.175265
-0.00112974
-0.00315823
-0.00450335
-0.00473984
-0.00349023
-0.000447082
0.00460406
0.0117657
0.0210247
0.0322869
0.0454953
0.0609196
0.0798307
0.106262
0.152687
-0.00586448
-0.0173242
-0.0279864
-0.0373506
-0.0449654
-0.0504485
-0.0535048
-0.0539319
-0.0515948
-0.0463276
-0.0376854
-0.0244121
-0.00345427
0.0313054
0.0873936
-0.010785
-0.0320412
-0.0523657
-0.0711692
-0.0879118
-0.102124
-0.113426
-0.121534
-0.126232
-0.127267
-0.124062
-0.115058
-0.0963005
-0.0584383
0.0208425
-0.0159224
-0.0474022
-0.0777964
-0.106412
-0.132606
-0.15581
-0.175553
-0.191489
-0.203396
-0.211132
-0.214443
-0.212455
-0.202389
-0.176918
-0.123291
-0.0213123
-0.0635144
-0.104457
-0.14333
-0.179369
-0.211888
-0.240311
-0.264226
-0.283441
-0.29805
-0.308484
-0.315438
-0.31915
-0.314923
-0.265737
-0.0269947
-0.0804982
-0.132551
-0.182209
-0.228569
-0.2708
-0.308188
-0.340214
-0.366668
-0.38785
-0.404921
-0.420648
-0.441396
-0.48412
-0.607416
-0.0330135
-0.0984869
-0.162303
-0.223372
-0.280628
-0.333065
-0.379778
-0.420057
-0.45354
-0.480486
-0.50227
-0.522347
-0.548355
-0.597329
-0.709238
-0.0394159
-0.117624
-0.19396
-0.267175
-0.336027
-0.399295
-0.455823
-0.504606
-0.544937
-0.57669
-0.600785
-0.619903
-0.639336
-0.6668
-0.704713
-0.0462505
-0.138058
-0.227779
-0.314004
-0.395295
-0.470195
-0.537238
-0.595011
-0.642275
-0.678195
-0.702738
-0.717218
-0.724716
-0.728981
-0.72705
-0.0535659
-0.159939
-0.264023
-0.364252
-0.458996
-0.546543
-0.625079
-0.692702
-0.747476
-0.787586
-0.81166
-0.819362
-0.812317
-0.79544
-0.779603
-0.0614075
-0.183407
-0.302941
-0.418303
-0.527688
-0.629139
-0.720489
-0.799305
-0.862848
-0.908097
-0.931936
-0.931729
-0.906727
-0.861157
-0.808897
-0.0698147
-0.208584
-0.344751
-0.476501
-0.601884
-0.718741
-0.824593
-0.916503
-0.990912
-1.04346
-1.0689
-1.0613
-1.0154
-0.931504
-0.830326
-0.0788184
-0.235567
-0.389626
-0.539114
-0.681995
-0.815979
-0.93837
-1.04585
-1.13415
-1.19764
-1.22879
-1.21744
-1.15046
-1.01383
-0.817122
-0.0884381
-0.264415
-0.437673
-0.606311
-0.768279
-0.921261
-1.0625
-1.18849
-1.29459
-1.37428
-1.41817
-1.41222
-1.33387
-1.13788
-0.684604
-0.0986814
-0.295151
-0.488923
-0.678135
-0.860797
-1.03469
-1.1972
-1.34495
-1.47337
-1.57578
-1.64214
-1.65726
-1.59897
-1.44058
-1.18815
-0.109544
-0.327758
-0.543339
-0.754502
-0.959398
-1.15603
-1.34213
-1.51483
-1.6702
-1.80229
-1.9017
-1.95327
-1.93357
-1.80858
-1.52264
-0.121014
-0.362191
-0.600819
-0.835218
-1.06373
-1.28469
-1.49636
-1.69674
-1.88318
-2.05151
-2.19445
-2.29876
-2.34128
-2.28835
-2.12938
-0.133075
-0.398392
-0.661233
-0.92002
-1.1733
-1.41979
-1.65841
-1.88833
-2.10872
-2.31834
-2.51402
-2.68717
-2.81525
-2.84175
-2.61989
-0.145714
-0.436312
-0.724458
-1.00864
-1.28758
-1.56034
-1.82652
-2.08651
-2.34175
-2.59484
-2.84924
-3.10685
-3.35977
-3.56761
-3.63176
-0.158928
-0.475934
-0.79043
-1.10091
-1.40615
-1.70545
-1.99891
-2.288
-2.57625
-2.87044
-3.18221
-3.52977
-3.93558
-4.39325
-4.63829
-0.172733
-0.517296
-0.85919
-1.19681
-1.52885
-1.8546
-2.17434
-2.49005
-2.80661
-3.13381
-3.49033
-3.91224
-4.47537
-5.36654
-7.16307
-0.187166
-0.560509
-0.930918
-1.29657
-1.65592
-2.00793
-2.35256
-2.69152
-3.02957
-3.37682
-3.75301
-4.19664
-4.78732
-5.71111
-7.48377
-0.202285
-0.605757
-1.00595
-1.40071
-1.78807
-2.16637
-2.53471
-2.89362
-3.24615
-3.59971
-3.96885
-4.37892
-4.86794
-5.46617
-6.02925
-0.218166
-0.653285
-1.08474
-1.51
-1.9265
-2.33172
-2.72341
-3.10013
-3.46199
-3.81179
-4.15626
-4.50635
-4.87272
-5.24563
-5.54548
-0.234889
-0.703358
-1.16782
-1.62537
-2.07278
-2.50645
-2.9225
-3.31695
-3.6862
-4.02756
-4.33975
-4.62247
-4.87295
-5.0758
-5.17779
-0.252522
-0.756211
-1.2557
-1.74778
-2.22858
-2.69342
-3.13657
-3.55128
-3.92978
-4.26357
-4.54371
-4.76097
-4.90625
-4.976
-5.00226
-0.271096
-0.811977
-1.34874
-1.87801
-2.39547
-2.89543
-3.3704
-3.81075
-4.20439
-4.53682
-4.79133
-4.94944
-4.99199
-4.90638
-4.72249
-0.290581
-0.870602
-1.44697
-2.01644
-2.57451
-3.11479
-3.62828
-4.10263
-4.5215
-4.86418
-5.1059
-5.21815
-5.16671
-4.90502
-4.4374
-0.310857
-0.931764
-1.54998
-2.16278
-2.76591
-3.35275
-3.91332
-4.43305
-4.89151
-5.26165
-5.51035
-5.60054
-5.48742
-5.04666
-3.554
-0.331691
-0.994792
-1.65676
-2.31584
-2.9686
-3.60894
-4.22673
-4.806
-5.32283
-5.74346
-6.02486
-6.12411
-6.03566
-5.91877
-6.57015
-0.35272
-1.0586
-1.76554
-2.47328
-3.17992
-3.88079
-4.56687
-5.22231
-5.82096
-6.32195
-6.66584
-6.77803
-6.60364
-6.25734
-6.59669
-0.373441
-1.12168
-1.87377
-2.63149
-3.39523
-4.16291
-4.92829
-5.67804
-6.38689
-7.00954
-7.46771
-7.63095
-7.29098
-6.11976
-3.45382
-0.393219
-1.18208
-1.97808
-2.78551
-3.60779
-4.44663
-5.30056
-6.16217
-7.01267
-7.81132
-8.4744
-8.83331
-8.55558
-7.02017
-3.25658
-0.411315
-1.23752
-2.07444
-2.92922
-3.80885
-4.71985
-5.6675
-6.65401
-7.67444
-8.70726
-9.6923
-10.4778
-10.6936
-9.46791
-4.96874
-0.426928
-1.28551
-2.15841
-3.05568
-3.98811
-4.96761
-6.00744
-7.12229
-8.32758
-9.63636
-11.0488
-12.5178
-13.8325
-14.1889
-10.4575
-0.439259
-1.32355
-2.22545
-3.1577
-4.13469
-5.17348
-6.29527
-7.52775
-8.90886
-10.4935
-12.3659
-14.665
-17.6369
-21.7487
-27.8793
-11.519
-26.181
-24.7399
-21.1331
-17.7836
-14.9752
-12.6227
-10.6087
-8.83995
-7.24868
-5.78607
-4.41621
-3.11167
-1.8505
-0.61414
-112.559
-58.7237
-37.9217
-27.645
-21.5167
-17.3488
-14.241
-11.7638
-9.68737
-7.8778
-6.25106
-4.75106
-3.33794
-1.98147
-0.657032
-125.134
-68.3263
-43.7944
-31.2759
-23.8885
-18.986
-15.4214
-12.6404
-10.3495
-8.37994
-6.62802
-5.02558
-3.52488
-2.09019
-0.69272
-68.7717
-55.5152
-41.3242
-31.3436
-24.5345
-19.6942
-16.0575
-13.1768
-10.7884
-8.73094
-6.90118
-5.22942
-3.66596
-2.17306
-0.720051
-48.5652
-43.353
-35.9302
-29.2088
-23.8133
-19.5666
-16.1686
-13.3714
-10.9974
-8.9238
-7.06459
-5.35806
-3.75803
-2.22823
-0.738416
-30.8632
-32.7258
-30.049
-26.1533
-22.2942
-18.8496
-15.8625
-13.2719
-10.9979
-8.96775
-7.12198
-5.41272
-3.80133
-2.25563
-0.747762
-22.7814
-25.251
-25.0143
-23.0721
-20.4874
-17.8148
-15.2809
-12.9526
-10.8289
-8.88369
-7.08454
-5.39942
-3.79899
-2.25676
-0.748531
-12.6733
-19.6556
-21.1637
-20.4372
-18.7416
-16.6836
-14.5566
-12.4913
-10.5359
-8.69819
-6.96791
-5.32729
-3.75622
-2.23429
-0.741541
-15.3181
-17.8618
-18.8651
-18.4752
-17.2475
-15.6003
-13.7893
-11.9537
-10.1611
-8.43809
-6.78899
-5.20686
-3.67931
-2.19155
-0.727836
-16.007
-17.1378
-17.5338
-17.095
-16.0445
-14.6308
-13.039
-11.3862
-9.73804
-8.12664
-6.56355
-5.04853
-3.57478