/*--------------------------------*- C++ -*----------------------------------*\
| =========                 |                                                 |
| \\      /  F ield         | OpenFOAM: The Open Source CFD Toolbox           |
|  \\    /   O peration     | Version:  5.x                                   |
|   \\  /    A nd           | Web:      www.OpenFOAM.org                      |
|    \\/     M anipulation  |                                                 |
\*---------------------------------------------------------------------------*/
FoamFile
{
    version     2.0;
    format      ascii;
    class       volScalarField;
    location    "6";
    object      T;
}
// * * * * * * * * * * * * * * * * * * * * * * * * * * * * * * * * * * * * * //

dimensions      [0 0 0 1 0 0 0];

internalField   nonuniform List<scalar> 
6300
(
322.843
322.528
322.213
321.895
321.576
321.253
320.926
320.595
320.26
319.919
319.572
319.22
318.862
318.498
318.128
322.843
322.529
322.215
321.898
321.579
321.256
320.93
320.6
320.265
319.924
319.578
319.226
318.868
318.504
318.134
322.844
322.532
322.218
321.903
321.585
321.264
320.939
320.61
320.275
319.936
319.59
319.238
318.88
318.516
318.145
322.845
322.535
322.223
321.91
321.594
321.275
320.952
320.624
320.291
319.953
319.608
319.256
318.898
318.534
318.163
322.847
322.539
322.231
321.92
321.607
321.29
320.97
320.644
320.313
319.976
319.632
319.281
318.923
318.558
318.186
322.848
322.545
322.24
321.933
321.623
321.31
320.992
320.669
320.341
320.005
319.663
319.313
318.955
318.59
318.216
322.851
322.551
322.251
321.948
321.643
321.334
321.02
320.701
320.375
320.042
319.702
319.353
318.995
318.629
318.254
322.853
322.559
322.264
321.967
321.666
321.362
321.053
320.738
320.416
320.087
319.749
319.402
319.044
318.677
318.299
322.856
322.568
322.279
321.988
321.694
321.395
321.092
320.782
320.465
320.14
319.806
319.46
319.103
318.735
318.354
322.86
322.579
322.297
322.012
321.725
321.433
321.137
320.834
320.523
320.203
319.873
319.53
319.175
318.804
318.419
322.864
322.591
322.316
322.04
321.76
321.477
321.188
320.893
320.589
320.277
319.952
319.614
319.26
318.889
318.499
322.868
322.604
322.338
322.07
321.8
321.525
321.246
320.96
320.666
320.362
320.045
319.713
319.363
318.992
318.598
322.873
322.618
322.362
322.104
321.843
321.579
321.31
321.035
320.752
320.459
320.153
319.83
319.487
319.119
318.722
322.878
322.633
322.387
322.14
321.89
321.638
321.381
321.118
320.849
320.569
320.277
319.968
319.636
319.275
318.882
322.883
322.649
322.414
322.178
321.941
321.7
321.457
321.209
320.955
320.692
320.419
320.129
319.814
319.464
319.077
317.784
317.467
317.147
316.823
316.496
316.166
315.834
315.499
315.161
314.822
314.481
314.138
313.794
313.448
313.102
312.755
312.407
312.06
311.712
311.364
311.016
310.669
310.322
309.975
309.628
309.282
308.936
308.591
308.246
307.902
307.558
307.215
306.873
306.531
306.191
305.851
305.512
305.174
304.837
304.501
304.165
303.831
303.497
303.163
302.831
302.499
302.169
301.839
301.51
301.182
300.856
300.53
300.205
299.881
299.558
299.236
298.915
298.594
298.274
297.955
297.637
297.319
297.003
296.687
296.373
296.059
295.747
295.435
295.124
294.814
294.504
294.195
293.887
293.58
293.273
292.966
292.661
292.355
292.051
291.747
291.443
291.14
290.836
290.533
290.229
289.925
289.62
289.314
289.007
288.7
317.789
317.472
317.152
316.828
316.5
316.17
315.837
315.502
315.164
314.825
314.483
314.14
313.795
313.45
313.103
312.755
312.408
312.06
311.712
311.364
311.016
310.668
310.321
309.974
309.628
309.282
308.936
308.59
308.245
307.901
307.557
307.214
306.871
306.53
306.189
305.85
305.511
305.173
304.836
304.5
304.164
303.83
303.496
303.162
302.83
302.498
302.167
301.837
301.509
301.181
300.854
300.528
300.204
299.88
299.557
299.235
298.913
298.593
298.273
297.954
297.635
297.318
297.001
296.686
296.371
296.058
295.745
295.434
295.123
294.813
294.503
294.195
293.886
293.579
293.272
292.965
292.66
292.355
292.05
291.746
291.443
291.139
290.836
290.533
290.23
289.926
289.621
289.315
289.009
288.701
317.8
317.483
317.161
316.837
316.509
316.178
315.844
315.509
315.17
314.83
314.488
314.144
313.799
313.452
313.105
312.757
312.408
312.06
311.711
311.363
311.015
310.667
310.32
309.973
309.627
309.281
308.935
308.589
308.244
307.899
307.555
307.211
306.869
306.527
306.187
305.847
305.508
305.171
304.834
304.498
304.162
303.827
303.493
303.16
302.827
302.495
302.164
301.834
301.506
301.178
300.851
300.526
300.201
299.877
299.555
299.233
298.911
298.59
298.27
297.951
297.633
297.315
296.999
296.683
296.369
296.055
295.743
295.431
295.121
294.811
294.501
294.193
293.885
293.577
293.27
292.964
292.658
292.353
292.049
291.745
291.442
291.139
290.837
290.534
290.231
289.928
289.623
289.318
289.011
288.704
317.817
317.498
317.176
316.85
316.521
316.19
315.855
315.518
315.179
314.838
314.495
314.15
313.804
313.456
313.108
312.758
312.409
312.06
311.711
311.362
311.014
310.666
310.319
309.972
309.625
309.279
308.933
308.587
308.241
307.896
307.552
307.208
306.865
306.523
306.182
305.843
305.504
305.167
304.83
304.494
304.159
303.824
303.49
303.156
302.823
302.491
302.16
301.83
301.501
301.173
300.847
300.521
300.197
299.874
299.551
299.229
298.908
298.587
298.267
297.947
297.629
297.311
296.994
296.679
296.364
296.051
295.739
295.428
295.117
294.808
294.499
294.19
293.882
293.574
293.267
292.961
292.655
292.35
292.046
291.743
291.44
291.138
290.837
290.535
290.233
289.931
289.627
289.322
289.016
288.708
317.839
317.519
317.195
316.868
316.538
316.205
315.869
315.531
315.191
314.849
314.504
314.158
313.81
313.461
313.111
312.761
312.41
312.059
311.709
311.36
311.012
310.664
310.317
309.97
309.624
309.277
308.931
308.585
308.238
307.893
307.547
307.203
306.859
306.517
306.177
305.837
305.499
305.162
304.826
304.49
304.155
303.82
303.486
303.152
302.818
302.486
302.154
301.823
301.494
301.167
300.84
300.516
300.192
299.869
299.547
299.225
298.904
298.583
298.262
297.943
297.623
297.305
296.988
296.672
296.358
296.045
295.734
295.423
295.113
294.804
294.495
294.187
293.879
293.571
293.264
292.957
292.651
292.346
292.042
291.74
291.438
291.137
290.837
290.537
290.237
289.935
289.633
289.328
289.022
288.714
317.867
317.546
317.22
316.891
316.559
316.224
315.887
315.548
315.206
314.862
314.517
314.169
313.819
313.468
313.116
312.763
312.41
312.058
311.707
311.357
311.008
310.661
310.314
309.968
309.622
309.275
308.929
308.582
308.235
307.888
307.542
307.196
306.852
306.51
306.169
305.83
305.492
305.156
304.82
304.485
304.151
303.816
303.481
303.147
302.812
302.479
302.146
301.815
301.486
301.158
300.832
300.508
300.185
299.863
299.542
299.22
298.899
298.578
298.257
297.937
297.617
297.298
296.98
296.664
296.35
296.038
295.727
295.417
295.108
294.799
294.491
294.183
293.875
293.567
293.259
292.952
292.645
292.341
292.037
291.735
291.435
291.136
290.837
290.539
290.241
289.941
289.64
289.337
289.032
288.723
317.902
317.578
317.25
316.918
316.583
316.246
315.907
315.567
315.224
314.879
314.532
314.182
313.83
313.476
313.121
312.765
312.41
312.056
311.703
311.352
311.004
310.656
310.311
309.965
309.62
309.274
308.927
308.58
308.231
307.883
307.535
307.188
306.842
306.499
306.158
305.82
305.483
305.148
304.814
304.48
304.146
303.812
303.476
303.141
302.805
302.47
302.136
301.804
301.474
301.147
300.822
300.499
300.177
299.856
299.536
299.216
298.895
298.573
298.251
297.93
297.608
297.288
296.97
296.654
296.34
296.028
295.718
295.41
295.102
294.795
294.487
294.179
293.871
293.562
293.253
292.945
292.638
292.333
292.029
291.728
291.43
291.133
290.837
290.542
290.247
289.95
289.651
289.35
289.045
288.736
317.944
317.616
317.284
316.949
316.611
316.271
315.931
315.589
315.245
314.899
314.551
314.199
313.844
313.486
313.127
312.767
312.408
312.051
311.696
311.345
310.996
310.65
310.306
309.963
309.619
309.274
308.927
308.578
308.228
307.877
307.526
307.177
306.83
306.485
306.145
305.807
305.472
305.139
304.807
304.475
304.142
303.808
303.472
303.135
302.797
302.46
302.124
301.79
301.46
301.133
300.808
300.487
300.168
299.849
299.531
299.211
298.891
298.569
298.245
297.922
297.598
297.276
296.956
296.64
296.326
296.015
295.707
295.401
295.096
294.79
294.484
294.176
293.868
293.558
293.247
292.937
292.628
292.322
292.018
291.718
291.422
291.128
290.836
290.545
290.254
289.962
289.667
289.367
289.063
288.754
317.994
317.661
317.323
316.982
316.64
316.298
315.956
315.614
315.27
314.924
314.574
314.219
313.861
313.498
313.133
312.767
312.403
312.042
311.685
311.333
310.985
310.642
310.301
309.96
309.619
309.276
308.929
308.579
308.226
307.871
307.516
307.162
306.812
306.467
306.126
305.791
305.459
305.129
304.801
304.472
304.141
303.807
303.47
303.13
302.789
302.448
302.108
301.772
301.44
301.113
300.791
300.473
300.157
299.842
299.526
299.209
298.889
298.566
298.24
297.913
297.586
297.261
296.939
296.621
296.308
295.999
295.694
295.391
295.089
294.787
294.482
294.175
293.866
293.554
293.24
292.927
292.615
292.307
292.003
291.704
291.41
291.12
290.833
290.549
290.264
289.977
289.687
289.392
289.089
288.779
318.054
317.713
317.367
317.018
316.67
316.325
315.982
315.64
315.298
314.953
314.603
314.247
313.883
313.514
313.141
312.766
312.393
312.026
311.666
311.314
310.969
310.63
310.294
309.96
309.623
309.282
308.936
308.584
308.226
307.865
307.503
307.143
306.789
306.441
306.101
305.768
305.441
305.118
304.795
304.471
304.143
303.81
303.471
303.127
302.78
302.433
302.087
301.747
301.414
301.088
300.768
300.455
300.145
299.835
299.525
299.21
298.891
298.567
298.237
297.905
297.572
297.241
296.915
296.596
296.283
295.978
295.677
295.38
295.083
294.786
294.484
294.178
293.867
293.552
293.233
292.914
292.597
292.285
291.98
291.682
291.392
291.108
290.828
290.552
290.276
289.998
289.716
289.426
289.126
288.815
318.124
317.772
317.413
317.053
316.697
316.348
316.006
315.668
315.331
314.99
314.642
314.284
313.915
313.536
313.15
312.761
312.376
312.001
311.637
311.285
310.945
310.613
310.287
309.961
309.632
309.297
308.952
308.597
308.232
307.86
307.486
307.116
306.755
306.404
306.066
305.738
305.419
305.105
304.792
304.475
304.153
303.821
303.48
303.13
302.773
302.414
302.059
301.712
301.376
301.052
300.738
300.432
300.131
299.831
299.528
299.219
298.901
298.574
298.239
297.897
297.554
297.214
296.882
296.56
296.25
295.949
295.656
295.367
295.08
294.789
294.493
294.189
293.876
293.554
293.227
292.897
292.571
292.254
291.946
291.65
291.364
291.088
290.819
290.554
290.291
290.026
289.756
289.475
289.18
288.867
318.212
317.843
317.461
317.082
316.714
316.361
316.023
315.694
315.368
315.037
314.694
314.336
313.961
313.569
313.162
312.751
312.347
311.958
311.589
311.24
310.907
310.588
310.278
309.968
309.652
309.325
308.982
308.624
308.248
307.859
307.464
307.077
306.704
306.351
306.015
305.696
305.389
305.09
304.793
304.489
304.175
303.846
303.502
303.141
302.768
302.39
302.019
301.662
301.323
301.001
300.696
300.402
300.116
299.831
299.54
299.239
298.924
298.595
298.25
297.893
297.531
297.175
296.834
296.509
296.201
295.909
295.627
295.353
295.08
294.802
294.514
294.212
293.896
293.565
293.223
292.876
292.535
292.207
291.896
291.602
291.324
291.059
290.804
290.554
290.307
290.061
289.81
289.546
289.26
288.945
318.326
317.931
317.505
317.094
316.708
316.355
316.026
315.718
315.414
315.099
314.769
314.413
314.033
313.62
313.184
312.728
312.294
311.887
311.515
311.169
310.851
310.552
310.267
309.983
309.687
309.374
309.037
308.675
308.282
307.866
307.431
307.017
306.627
306.271
305.94
305.635
305.348
305.074
304.802
304.518
304.218
303.894
303.547
303.17
302.771
302.355
301.958
301.585
301.244
300.928
300.636
300.361
300.099
299.839
299.566
299.279
298.969
298.637
298.277
297.895
297.497
297.118
296.761
296.434
296.131
295.852
295.589
295.338
295.089
294.828
294.553
294.256
293.938
293.593
293.226
292.844
292.479
292.137
291.823
291.532
291.265
291.015
290.78
290.551
290.323
290.103
289.883
289.648
289.382
289.066
318.489
318.066
317.526
317.071
316.654
316.313
316
315.735
315.476
315.184
314.88
314.525
314.151
313.706
313.232
312.675
312.204
311.766
311.401
311.059
310.768
310.494
310.255
310.017
309.745
309.46
309.126
308.772
308.349
307.899
307.369
306.92
306.502
306.154
305.827
305.549
305.286
305.057
304.829
304.569
304.295
303.974
303.635
303.231
302.799
302.292
301.863
301.464
301.131
300.818
300.552
300.301
300.082
299.863
299.614
299.352
299.046
298.721
298.334
297.922
297.437
297.027
296.645
296.326
296.026
295.772
295.532
295.322
295.113
294.875
294.624
294.331
294.02
293.649
293.253
292.787
292.392
292.024
291.716
291.427
291.181
290.948
290.747
290.548
290.328
290.144
289.976
289.797
289.577
289.271
318.745
318.368
317.425
316.993
316.49
316.23
315.905
315.742
315.585
315.286
315.063
314.665
314.372
313.834
313.401
312.497
312.067
311.539
311.255
310.873
310.662
310.385
310.241
310.098
309.824
309.616
309.243
308.967
308.458
308.046
307.189
306.78
306.278
306.007
305.643
305.442
305.176
305.039
304.902
304.639
304.44
304.082
303.817
303.33
302.936
302.117
301.726
301.246
300.987
300.64
300.448
300.194
300.063
299.932
299.68
299.49
299.148
298.895
298.429
298.053
297.269
296.895
296.437
296.189
295.857
295.673
295.43
295.305
295.179
294.939
294.757
294.43
294.188
293.743
293.381
292.628
292.267
291.824
291.584
291.259
291.079
290.837
290.71
290.574
290.282
290.161
290.083
290.007
289.894
289.663
288.361
287.99
287.617
287.245
286.872
286.499
286.127
285.756
285.386
285.016
284.648
284.28
283.914
283.548
283.183
288.362
287.99
287.618
287.245
286.872
286.499
286.127
285.755
285.384
285.015
284.647
284.28
283.913
283.548
283.183
288.364
287.992
287.619
287.245
286.872
286.498
286.125
285.753
285.382
285.013
284.645
284.278
283.912
283.547
283.182
288.368
287.995
287.621
287.246
286.871
286.496
286.122
285.75
285.379
285.009
284.642
284.275
283.91
283.546
283.182
288.374
287.999
287.623
287.247
286.87
286.493
286.118
285.745
285.374
285.004
284.637
284.271
283.907
283.544
283.181
288.381
288.005
287.627
287.247
286.868
286.49
286.113
285.738
285.367
284.997
284.631
284.266
283.903
283.541
283.18
288.393
288.013
287.631
287.248
286.865
286.484
286.105
285.729
285.357
284.988
284.622
284.259
283.897
283.538
283.179
288.408
288.025
287.637
287.249
286.861
286.475
286.094
285.717
285.344
284.975
284.611
284.249
283.89
283.534
283.178
288.429
288.039
287.644
287.248
286.854
286.463
286.079
285.7
285.327
284.959
284.596
284.237
283.882
283.528
283.176
288.46
288.059
287.653
287.246
286.842
286.446
286.057
285.677
285.304
284.938
284.578
284.222
283.871
283.521
283.174
288.502
288.086
287.662
287.239
286.825
286.421
286.028
285.647
285.275
284.911
284.555
284.204
283.857
283.513
283.171
288.564
288.12
287.669
287.225
286.796
286.384
285.988
285.606
285.237
284.878
284.526
284.181
283.84
283.503
283.167
288.655
288.162
287.668
287.196
286.75
286.331
285.933
285.554
285.189
284.836
284.491
284.153
283.82
283.491
283.163
288.79
288.205
287.647
287.14
286.679
286.256
285.861
285.487
285.13
284.785
284.449
284.121
283.797
283.477
283.159
288.986
288.219
287.575
287.037
286.57
286.152
285.767
285.404
285.059
284.725
284.401
284.083
283.771
283.461
283.153
322.888
322.665
322.44
322.215
321.989
321.761
321.53
321.297
321.059
320.816
320.564
320.298
320.008
319.67
319.231
322.893
322.679
322.464
322.25
322.034
321.817
321.599
321.38
321.158
320.934
320.705
320.469
320.219
319.928
319.49
322.898
322.694
322.489
322.284
322.08
321.875
321.67
321.464
321.259
321.055
320.851
320.651
320.457
320.287
320.227
322.903
322.708
322.514
322.32
322.126
321.932
321.74
321.549
321.36
321.175
320.996
320.827
320.679
320.569
320.528
322.908
322.723
322.538
322.354
322.171
321.989
321.809
321.632
321.458
321.291
321.133
320.99
320.874
320.804
320.825
322.912
322.737
322.562
322.389
322.216
322.045
321.877
321.712
321.552
321.4
321.259
321.135
321.036
320.976
320.962
322.917
322.751
322.586
322.422
322.259
322.099
321.942
321.788
321.641
321.502
321.374
321.261
321.172
321.115
321.109
322.922
322.765
322.609
322.454
322.301
322.151
322.004
321.861
321.724
321.596
321.477
321.372
321.285
321.219
321.175
322.926
322.778
322.631
322.485
322.341
322.2
322.063
321.929
321.802
321.682
321.571
321.471
321.383
321.306
321.229
322.93
322.791
322.652
322.515
322.38
322.247
322.118
321.994
321.875
321.763
321.658
321.562
321.474
321.394
321.323
322.934
322.803
322.672
322.543
322.416
322.292
322.171
322.054
321.943
321.838
321.739
321.646
321.559
321.475
321.384
322.938
322.814
322.691
322.57
322.45
322.334
322.221
322.111
322.007
321.908
321.815
321.727
321.643
321.562
321.485
322.942
322.825
322.709
322.595
322.483
322.373
322.267
322.165
322.068
321.975
321.888
321.805
321.725
321.644
321.552
322.945
322.835
322.726
322.619
322.514
322.411
322.311
322.216
322.124
322.038
321.957
321.88
321.807
321.736
321.665
322.948
322.845
322.742
322.641
322.542
322.446
322.353
322.263
322.178
322.098
322.023
321.953
321.889
321.826
321.749
322.951
322.854
322.757
322.662
322.569
322.479
322.391
322.308
322.228
322.154
322.085
322.023
321.969
321.926
321.913
322.954
322.862
322.772
322.682
322.594
322.509
322.427
322.349
322.275
322.206
322.143
322.087
322.041
322.007
321.987
322.957
322.87
322.785
322.7
322.618
322.538
322.461
322.387
322.318
322.254
322.196
322.145
322.104
322.076
322.071
322.959
322.878
322.797
322.718
322.64
322.564
322.492
322.423
322.358
322.297
322.243
322.196
322.158
322.13
322.114
322.961
322.885
322.808
322.733
322.66
322.589
322.52
322.455
322.394
322.337
322.286
322.241
322.204
322.177
322.165
322.964
322.891
322.819
322.748
322.679
322.612
322.547
322.485
322.427
322.373
322.324
322.28
322.243
322.214
322.192
322.966
322.897
322.829
322.762
322.696
322.632
322.571
322.512
322.457
322.405
322.357
322.315
322.277
322.246
322.225
322.967
322.902
322.838
322.774
322.712
322.652
322.593
322.538
322.484
322.434
322.388
322.345
322.307
322.272
322.241
322.969
322.907
322.846
322.786
322.727
322.67
322.614
322.561
322.51
322.461
322.416
322.373
322.333
322.295
322.255
322.971
322.912
322.854
322.797
322.741
322.686
322.633
322.582
322.533
322.486
322.442
322.4
322.359
322.319
322.28
322.972
322.917
322.861
322.807
322.754
322.702
322.651
322.602
322.555
322.51
322.467
322.425
322.384
322.342
322.298
322.974
322.921
322.868
322.817
322.766
322.716
322.668
322.621
322.576
322.532
322.49
322.449
322.409
322.368
322.328
322.975
322.924
322.875
322.825
322.777
322.729
322.683
322.638
322.595
322.553
322.513
322.473
322.434
322.394
322.348
322.976
322.928
322.88
322.833
322.787
322.742
322.698
322.655
322.614
322.574
322.535
322.497
322.46
322.423
322.385
322.977
322.931
322.886
322.841
322.797
322.754
322.711
322.671
322.631
322.593
322.556
322.521
322.487
322.452
322.412
322.978
322.934
322.891
322.848
322.806
322.765
322.724
322.685
322.647
322.611
322.576
322.544
322.513
322.486
322.467
322.979
322.937
322.896
322.855
322.814
322.775
322.736
322.699
322.663
322.628
322.595
322.565
322.537
322.513
322.493
322.98
322.94
322.9
322.861
322.822
322.784
322.747
322.712
322.677
322.644
322.613
322.584
322.558
322.537
322.522
322.981
322.942
322.904
322.867
322.83
322.793
322.758
322.723
322.69
322.659
322.629
322.602
322.577
322.555
322.537
322.982
322.945
322.908
322.872
322.836
322.802
322.767
322.734
322.703
322.672
322.644
322.617
322.593
322.572
322.556
322.982
322.947
322.912
322.877
322.843
322.809
322.776
322.745
322.714
322.684
322.657
322.631
322.607
322.585
322.566
322.983
322.949
322.915
322.882
322.849
322.816
322.785
322.754
322.724
322.696
322.668
322.643
322.619
322.597
322.578
322.984
322.951
322.918
322.886
322.854
322.823
322.792
322.762
322.734
322.706
322.679
322.653
322.629
322.606
322.584
322.984
322.953
322.921
322.89
322.859
322.829
322.799
322.77
322.742
322.715
322.689
322.663
322.639
322.615
322.59
322.985
322.954
322.924
322.894
322.864
322.835
322.806
322.778
322.751
322.724
322.698
322.673
322.648
322.624
322.599
322.985
322.956
322.926
322.897
322.868
322.84
322.812
322.785
322.758
322.732
322.707
322.682
322.657
322.633
322.606
322.986
322.957
322.928
322.9
322.872
322.845
322.818
322.791
322.765
322.74
322.715
322.691
322.667
322.642
322.618
322.986
322.958
322.93
322.903
322.876
322.849
322.823
322.797
322.772
322.748
322.723
322.7
322.676
322.652
322.626
322.986
322.959
322.932
322.906
322.879
322.853
322.828
322.803
322.778
322.755
322.731
322.709
322.686
322.663
322.641
322.987
322.96
322.934
322.908
322.882
322.857
322.832
322.808
322.784
322.761
322.739
322.717
322.696
322.675
322.651
322.987
322.961
322.936
322.91
322.885
322.861
322.837
322.813
322.79
322.768
322.746
322.725
322.706
322.687
322.673
322.987
322.962
322.937
322.912
322.888
322.864
322.84
322.817
322.795
322.773
322.753
322.733
322.714
322.697
322.682
322.988
322.963
322.938
322.914
322.89
322.867
322.844
322.821
322.8
322.779
322.758
322.74
322.722
322.706
322.693
322.988
322.964
322.94
322.916
322.892
322.869
322.847
322.825
322.803
322.783
322.764
322.745
322.728
322.713
322.699
322.988
322.964
322.941
322.917
322.894
322.871
322.849
322.828
322.807
322.787
322.768
322.75
322.733
322.718
322.705
322.988
322.965
322.941
322.918
322.895
322.873
322.851
322.83
322.81
322.79
322.771
322.754
322.738
322.723
322.709
322.988
322.965
322.942
322.919
322.897
322.874
322.853
322.832
322.812
322.793
322.774
322.757
322.741
322.726
322.712
322.988
322.965
322.942
322.92
322.897
322.875
322.854
322.833
322.814
322.795
322.776
322.759
322.743
322.728
322.714
322.988
322.965
322.943
322.92
322.898
322.876
322.855
322.834
322.815
322.796
322.778
322.761
322.745
322.73
322.715
322.988
322.965
322.943
322.92
322.898
322.876
322.855
322.835
322.815
322.796
322.779
322.762
322.746
322.731
322.717
322.988
322.965
322.943
322.92
322.898
322.876
322.855
322.835
322.815
322.796
322.779
322.762
322.746
322.731
322.718
322.988
322.965
322.942
322.919
322.897
322.875
322.854
322.834
322.814
322.796
322.778
322.761
322.746
322.731
322.718
322.988
322.965
322.942
322.919
322.896
322.874
322.853
322.833
322.813
322.794
322.776
322.76
322.745
322.73
322.718
322.988
322.964
322.941
322.918
322.895
322.873
322.851
322.831
322.811
322.792
322.774
322.758
322.742
322.728
322.716
322.988
322.964
322.94
322.916
322.893
322.871
322.849
322.828
322.808
322.789
322.771
322.755
322.739
322.725
322.714
322.988
322.963
322.939
322.915
322.891
322.868
322.846
322.825
322.805
322.786
322.768
322.751
322.735
322.72
322.706
322.987
322.962
322.937
322.913
322.889
322.865
322.843
322.821
322.801
322.781
322.763
322.746
322.73
322.715
322.702
322.987
322.961
322.935
322.91
322.886
322.862
322.839
322.817
322.796
322.776
322.758
322.74
322.724
322.709
322.694
322.987
322.96
322.933
322.907
322.882
322.857
322.834
322.811
322.79
322.77
322.751
322.734
322.718
322.703
322.69
322.986
322.958
322.931
322.904
322.878
322.853
322.828
322.805
322.783
322.763
322.744
322.727
322.711
322.696
322.681
322.986
322.957
322.928
322.9
322.873
322.847
322.822
322.798
322.776
322.755
322.736
322.718
322.703
322.689
322.676
322.985
322.955
322.925
322.896
322.868
322.841
322.814
322.79
322.767
322.745
322.726
322.709
322.694
322.68
322.668
322.984
322.953
322.922
322.891
322.862
322.833
322.806
322.78
322.757
322.735
322.715
322.698
322.684
322.672
322.663
322.983
322.951
322.918
322.886
322.855
322.825
322.797
322.77
322.745
322.723
322.703
322.685
322.672
322.662
322.656
322.983
322.948
322.914
322.88
322.848
322.816
322.786
322.758
322.732
322.709
322.688
322.671
322.657
322.648
322.643
322.982
322.945
322.909
322.874
322.839
322.806
322.774
322.745
322.717
322.693
322.671
322.653
322.639
322.631
322.631
322.981
322.942
322.904
322.866
322.83
322.795
322.761
322.73
322.701
322.674
322.651
322.632
322.618
322.61
322.607
322.979
322.938
322.898
322.858
322.82
322.782
322.747
322.713
322.682
322.654
322.629
322.608
322.593
322.584
322.587
322.978
322.935
322.892
322.849
322.808
322.769
322.731
322.695
322.662
322.631
322.604
322.58
322.562
322.55
322.547
322.977
322.931
322.885
322.84
322.796
322.754
322.713
322.675
322.639
322.606
322.576
322.549
322.527
322.511
322.51
322.975
322.926
322.877
322.829
322.783
322.738
322.695
322.654
322.615
322.579
322.546
322.515
322.487
322.461
322.427
322.974
322.921
322.869
322.818
322.769
322.72
322.674
322.63
322.589
322.55
322.513
322.479
322.447
322.416
322.385
322.972
322.916
322.861
322.806
322.753
322.702
322.652
322.605
322.561
322.519
322.48
322.442
322.406
322.37
322.327
322.97
322.91
322.851
322.793
322.736
322.682
322.629
322.579
322.531
322.486
322.444
322.404
322.366
322.328
322.293
322.968
322.904
322.841
322.779
322.718
322.66
322.604
322.55
322.499
322.452
322.407
322.365
322.325
322.285
322.241
322.966
322.898
322.83
322.764
322.699
322.637
322.577
322.519
322.466
322.415
322.368
322.325
322.284
322.245
322.209
322.963
322.891
322.819
322.748
322.679
322.612
322.547
322.486
322.429
322.376
322.327
322.283
322.242
322.203
322.162
322.961
322.883
322.806
322.73
322.656
322.585
322.516
322.451
322.39
322.334
322.283
322.238
322.198
322.164
322.135
322.958
322.875
322.793
322.712
322.632
322.556
322.482
322.413
322.348
322.288
322.235
322.189
322.15
322.119
322.103
322.955
322.867
322.779
322.692
322.607
322.525
322.446
322.371
322.301
322.238
322.183
322.136
322.097
322.065
322.026
322.952
322.858
322.763
322.67
322.579
322.491
322.406
322.326
322.251
322.183
322.124
322.076
322.04
322.015
321.993
322.949
322.848
322.747
322.648
322.55
322.455
322.363
322.276
322.195
322.122
322.058
322.009
321.976
321.963
321.968
322.946
322.838
322.73
322.624
322.519
322.417
322.318
322.223
322.134
322.053
321.983
321.929
321.898
321.898
321.938
322.942
322.827
322.713
322.599
322.487
322.377
322.269
322.165
322.067
321.976
321.897
321.834
321.798
321.805
321.885
322.939
322.816
322.694
322.573
322.453
322.334
322.218
322.104
321.995
321.892
321.799
321.721
321.667
321.661
321.764
289.193
288.119
287.413
286.876
286.426
286.027
285.659
285.313
284.982
284.662
284.35
284.044
283.743
283.445
283.148
288.813
287.774
287.148
286.67
286.261
285.891
285.546
285.219
284.904
284.599
284.3
284.006
283.716
283.429
283.143
287.317
287.141
286.781
286.416
286.068
285.738
285.422
285.117
284.82
284.531
284.246
283.965
283.688
283.412
283.137
286.728
286.635
286.418
286.149
285.863
285.575
285.289
285.008
284.732
284.459
284.189
283.922
283.657
283.394
283.131
286.17
286.215
286.092
285.893
285.659
285.409
285.154
284.897
284.64
284.385
284.131
283.878
283.626
283.376
283.125
285.918
285.912
285.82
285.662
285.466
285.248
285.02
284.786
284.548
284.31
284.072
283.833
283.595
283.357
283.119
285.656
285.67
285.592
285.457
285.287
285.095
284.89
284.676
284.457
284.236
284.012
283.788
283.563
283.338
283.113
285.538
285.492
285.403
285.277
285.124
284.952
284.765
284.57
284.368
284.162
283.954
283.743
283.532
283.319
283.106
285.445
285.342
285.239
285.117
284.975
284.817
284.647
284.468
284.282
284.091
283.896
283.699
283.5
283.301
283.1
285.283
285.194
285.088
284.969
284.837
284.692
284.535
284.37
284.199
284.021
283.84
283.656
283.47
283.283
283.094
285.178
285.057
284.947
284.832
284.708
284.573
284.43
284.278
284.119
283.955
283.787
283.615
283.441
283.265
283.088
285.005
284.912
284.808
284.7
284.585
284.462
284.33
284.19
284.044
283.892
283.735
283.575
283.413
283.248
283.083
284.893
284.774
284.674
284.574
284.469
284.356
284.235
284.107
283.972
283.832
283.686
283.537
283.386
283.232
283.078
284.702
284.622
284.539
284.451
284.358
284.256
284.146
284.029
283.904
283.775
283.64
283.501
283.36
283.217
283.072
284.564
284.474
284.406
284.333
284.252
284.161
284.062
283.955
283.841
283.721
283.596
283.468
283.336
283.202
283.068
284.295
284.31
284.276
284.221
284.153
284.073
283.983
283.886
283.781
283.67
283.555
283.436
283.313
283.189
283.063
284.175
284.181
284.161
284.119
284.061
283.991
283.911
283.822
283.726
283.624
283.517
283.406
283.292
283.176
283.059
284.042
284.07
284.06
284.028
283.978
283.916
283.844
283.762
283.674
283.58
283.481
283.378
283.272
283.164
283.055
283.976
283.985
283.976
283.948
283.904
283.849
283.783
283.708
283.627
283.54
283.448
283.352
283.254
283.153
283.051
283.897
283.913
283.904
283.879
283.839
283.788
283.728
283.659
283.584
283.503
283.417
283.328
283.236
283.143
283.048
283.857
283.857
283.845
283.819
283.782
283.734
283.678
283.614
283.544
283.469
283.39
283.307
283.221
283.133
283.045
283.81
283.81
283.795
283.768
283.732
283.686
283.634
283.574
283.509
283.438
283.364
283.287
283.206
283.125
283.042
283.788
283.774
283.753
283.724
283.688
283.644
283.594
283.538
283.476
283.41
283.341
283.268
283.193
283.117
283.039
283.769
283.743
283.716
283.685
283.648
283.606
283.558
283.505
283.447
283.385
283.32
283.252
283.181
283.109
283.037
283.737
283.711
283.682
283.65
283.613
283.572
283.526
283.475
283.421
283.362
283.301
283.237
283.171
283.103
283.034
283.715
283.682
283.651
283.618
283.581
283.541
283.497
283.449
283.397
283.342
283.284
283.223
283.161
283.097
283.032
283.68
283.652
283.621
283.588
283.552
283.513
283.471
283.425
283.375
283.323
283.268
283.211
283.152
283.092
283.031
283.658
283.623
283.592
283.56
283.525
283.488
283.447
283.403
283.356
283.306
283.254
283.2
283.144
283.087
283.029
283.62
283.593
283.564
283.533
283.5
283.464
283.425
283.383
283.338
283.291
283.241
283.19
283.136
283.082
283.028
283.594
283.564
283.537
283.509
283.477
283.443
283.406
283.365
283.323
283.277
283.23
283.181
283.13
283.078
283.026
283.543
283.533
283.512
283.486
283.457
283.424
283.388
283.35
283.308
283.265
283.22
283.173
283.124
283.075
283.025
283.521
283.509
283.49
283.466
283.438
283.407
283.373
283.336
283.296
283.254
283.211
283.166
283.119
283.072
283.024
283.499
283.489
283.471
283.449
283.422
283.392
283.359
283.323
283.285
283.245
283.203
283.159
283.115
283.069
283.023
283.488
283.474
283.457
283.434
283.409
283.379
283.347
283.313
283.276
283.237
283.196
283.154
283.111
283.067
283.022
283.476
283.463
283.445
283.423
283.397
283.369
283.337
283.303
283.267
283.23
283.19
283.149
283.107
283.065
283.022
283.471
283.455
283.436
283.413
283.388
283.36
283.329
283.296
283.261
283.224
283.185
283.145
283.104
283.063