/*--------------------------------*- C++ -*----------------------------------*\
| =========                 |                                                 |
| \\      /  F ield         | OpenFOAM: The Open Source CFD Toolbox           |
|  \\    /   O peration     | Version:  5.x                                   |
|   \\  /    A nd           | Web:      www.OpenFOAM.org                      |
|    \\/     M anipulation  |                                                 |
\*---------------------------------------------------------------------------*/
FoamFile
{
    version     2.0;
    format      ascii;
    class       volScalarField;
    location    "7.8";
    object      gradTy;
}
// * * * * * * * * * * * * * * * * * * * * * * * * * * * * * * * * * * * * * //

dimensions      [0 -1 0 1 0 0 0];

internalField   nonuniform List<scalar> 
6300
(
32284.1
32252.4
32220.5
32188.4
32156.1
32123.5
32090.5
32057.1
32023.2
31988.8
31953.8
31918.2
31882.1
31845.3
31807.9
0.0534795
0.159938
0.264861
0.367115
0.465406
0.558239
0.643898
0.720468
0.785896
0.838116
0.875237
0.895796
0.899038
0.885199
0.855697
0.0896872
0.268266
0.4444
0.616261
0.78174
0.938364
1.08325
1.21315
1.32448
1.4136
1.47708
1.51217
1.5173
1.49265
1.44058
0.126691
0.379043
0.628217
0.871797
1.10694
1.33023
1.53762
1.7244
1.88528
2.01473
2.10733
2.1585
2.16534
2.12754
2.04827
0.164725
0.493002
0.817634
1.13578
1.44399
1.73801
2.01262
2.26154
2.47754
2.65271
2.77901
2.84918
2.85801
2.80389
2.69039
0.203934
0.610609
1.01354
1.4097
1.79525
2.16523
2.51331
2.8316
3.11064
3.33956
3.50681
3.60117
3.61361
3.53959
3.38199
0.244337
0.731961
1.21623
1.69425
2.16208
2.61434
3.04379
3.44094
3.79383
4.08809
4.30747
4.43507
4.45561
4.35882
4.14425
0.285793
0.85667
1.42519
1.98899
2.54448
3.08628
3.60659
4.09453
4.53564
4.91147
5.19986
5.37598
5.41485
5.29575
5.00932
0.327959
0.983742
1.63887
2.29204
2.94058
3.57972
4.20173
4.79495
5.34269
5.82225
6.20444
6.45405
6.53196
6.39988
6.02899
0.37026
1.11147
1.85451
2.59974
3.34609
4.09028
4.82566
5.54084
6.21787
6.83033
7.34152
7.70366
7.85887
7.74256
7.28975
0.411873
1.23738
2.06797
2.9063
3.75377
4.60964
5.46979
6.32484
7.15758
7.93958
8.6275
9.15998
9.45693
9.42115
8.9354
0.451723
1.35821
2.2737
3.20374
4.15304
5.12471
6.11899
7.13112
8.14796
9.14282
10.0687
10.8514
11.3868
11.548
11.1841
0.488534
1.47004
2.46487
3.48192
4.52994
5.61716
6.7503
7.93266
9.16024
10.4149
11.6528
12.7893
13.6888
14.1948
14.2489
0.520907
1.56854
2.63383
3.72912
4.86765
6.06368
7.3324
8.68893
10.1454
11.7035
13.3379
14.9626
16.3796
17.2798
17.7463
0.547461
1.6494
2.77278
3.93309
5.14785
6.4375
7.82666
9.34525
11.0289
12.9158
15.0324
17.3417
19.5783
20.7668
18.1391
31773.2
31741.2
31708.8
31676.1
31643.1
31609.8
31576.3
31542.5
31508.4
31474.2
31439.8
31405.2
31370.5
31335.6
31300.7
31265.7
31230.7
31195.7
31160.6
31125.6
31090.6
31055.7
31020.7
30985.9
30951
30916.2
30881.5
30846.8
30812.1
30777.5
30743
30708.6
30674.3
30640
30605.9
30571.8
30537.9
30504.1
30470.3
30436.7
30403.1
30369.6
30336.2
30302.9
30269.7
30236.6
30203.5
30170.6
30137.8
30105.1
30072.6
30040.1
30007.7
29975.5
29943.3
29911.2
29879.2
29847.3
29815.5
29783.8
29752.1
29720.6
29689.1
29657.8
29626.6
29595.4
29564.4
29533.4
29502.6
29471.8
29441.1
29410.5
29379.9
29349.4
29318.9
29288.5
29258.2
29228
29197.8
29167.6
29137.5
29107.4
29077.3
29047.3
29017.2
28987
28956.8
28926.4
28896
28865.5
0.816689
0.774427
0.727645
0.678562
0.629032
0.5803
0.532867
0.486515
0.440477
0.393732
0.345345
0.294793
0.242207
0.188461
0.135116
0.0841967
0.0378619
-0.00197642
-0.0339986
-0.0577248
-0.0736174
-0.0830236
-0.0879714
-0.0908552
-0.094064
-0.0996103
-0.108821
-0.12214
-0.139075
-0.15831
-0.177954
-0.195897
-0.2102
-0.219449
-0.223005
-0.221116
-0.21487
-0.206006
-0.19662
-0.188814
-0.184345
-0.184332
-0.18907
-0.197978
-0.209707
-0.222375
-0.233907
-0.242398
-0.246454
-0.245425
-0.23951
-0.229712
-0.217653
-0.205302
-0.19463
-0.187287
-0.184315
-0.185974
-0.191694
-0.200175
-0.209609
-0.218005
-0.223533
-0.224846
-0.221302
-0.21306
-0.201037
-0.186728
-0.17194
-0.158465
-0.147754
-0.140651
-0.137205
-0.13663
-0.137386
-0.137403
-0.134396
-0.126219
-0.111214
-0.0884815
-0.0580537
-0.0209511
0.020879
0.0647251
0.10736
0.145357
0.175447
0.194887
0.201801
0.19542
1.37195
1.29788
1.21638
1.13161
1.04707
0.965042
0.88632
0.810264
0.735139
0.658694
0.578859
0.494388
0.405338
0.313272
0.221139
0.132842
0.0525751
-0.0159222
-0.0700585
-0.108871
-0.133223
-0.145682
-0.150127
-0.151142
-0.153295
-0.160433
-0.175082
-0.19806
-0.228378
-0.263438
-0.299529
-0.332513
-0.358599
-0.375029
-0.380563
-0.375689
-0.362518
-0.344417
-0.325436
-0.309636
-0.30041
-0.299922
-0.308737
-0.325726
-0.34826
-0.37267
-0.394909
-0.411274
-0.419064
-0.417032
-0.405582
-0.38667
-0.363448
-0.339725
-0.319319
-0.305422
-0.300052
-0.303718
-0.315315
-0.332312
-0.351196
-0.368088
-0.379438
-0.382642
-0.376479
-0.361287
-0.338868
-0.312149
-0.284654
-0.259885
-0.240697
-0.228773
-0.224281
-0.225763
-0.230308
-0.233965
-0.232355
-0.221358
-0.197771
-0.159822
-0.107476
-0.0425305
0.0315108
0.109732
0.186252
0.254789
0.309305
0.344698
0.357444
0.346093
1.94405
1.83205
1.70982
1.58436
1.46153
1.34505
1.23596
1.13271
1.03174
0.928582
0.819094
0.700619
0.572856
0.438226
0.301686
0.169966
0.0503852
-0.0505034
-0.128139
-0.180798
-0.209908
-0.219834
-0.217179
-0.209742
-0.205301
-0.210394
-0.229299
-0.263363
-0.310802
-0.367034
-0.425527
-0.479014
-0.520854
-0.546246
-0.553059
-0.54216
-0.517216
-0.484042
-0.44962
-0.420939
-0.403843
-0.402063
-0.416581
-0.44544
-0.484059
-0.52604
-0.564317
-0.59245
-0.605766
-0.602151
-0.582351
-0.549785
-0.509915
-0.469321
-0.43459
-0.411228
-0.402733
-0.409995
-0.431111
-0.46169
-0.495607
-0.526108
-0.547029
-0.553885
-0.544617
-0.519879
-0.482852
-0.438648
-0.393405
-0.353231
-0.323142
-0.306161
-0.302718
-0.310453
-0.324476
-0.338081
-0.3438
-0.334595
-0.304982
-0.251864
-0.175017
-0.0771817
0.036148
0.157212
0.276664
0.384431
0.47072
0.527138
0.547806
0.53026
2.54097
2.38093
2.20789
2.03332
1.86685
1.71441
1.57722
1.45188
1.3315
1.2076
1.07228
0.920244
0.750276
0.565944
0.375305
0.18962
0.0212861
-0.118562
-0.222184
-0.28663
-0.314216
-0.312103
-0.291114
-0.264029
-0.243578
-0.240466
-0.261689
-0.309408
-0.380563
-0.467376
-0.558735
-0.642287
-0.706796
-0.744218
-0.751062
-0.728857
-0.683765
-0.625468
-0.565541
-0.515561
-0.485221
-0.480737
-0.503777
-0.551099
-0.615021
-0.684745
-0.748337
-0.794962
-0.81685
-0.810577
-0.777507
-0.723416
-0.657429
-0.590476
-0.533492
-0.495626
-0.482726
-0.496323
-0.533284
-0.586259
-0.644937
-0.697925
-0.734874
-0.748346
-0.73503
-0.696165
-0.637172
-0.566641
-0.494855
-0.432054
-0.386709
-0.364051
-0.365059
-0.386085
-0.419242
-0.453553
-0.476731
-0.477219
-0.446034
-0.378077
-0.272776
-0.134143
0.0296511
0.207014
0.383904
0.545004
0.675152
0.76106
0.793197
0.767445
3.1727
2.94849
2.70814
2.4706
2.25194
2.06179
1.90141
1.76391
1.63634
1.50308
1.34956
1.1657
0.948393
0.702759
0.4418
0.184295
-0.048825
-0.238784
-0.37264
-0.445539
-0.461293
-0.431553
-0.373832
-0.308763
-0.256891
-0.2355
-0.255931
-0.321707
-0.427782
-0.561177
-0.703191
-0.832986
-0.931749
-0.986229
-0.9909
-0.948518
-0.869338
-0.769246
-0.667144
-0.581908
-0.529373
-0.519785
-0.556015
-0.632859
-0.737634
-0.852288
-0.956795
-1.0331
-1.06849
-1.0576
-1.00294
-0.914185
-0.806338
-0.69728
-0.604869
-0.544077
-0.524569
-0.549012
-0.612399
-0.702621
-0.802464
-0.892839
-0.95653
-0.981382
-0.962238
-0.901439
-0.808106
-0.696443
-0.583368
-0.485739
-0.417608
-0.387864
-0.398571
-0.44425
-0.512347
-0.585055
-0.642333
-0.66545
-0.64004
-0.558061
-0.418533
-0.227334
0.00361671
0.257498
0.513881
0.750151
0.94329
1.07241
1.12195
1.08484
3.85324
3.53922
3.20429
2.88064
2.59594
2.36627
2.19263
2.06162
1.94939
1.82774
1.67055
1.45933
1.18732
0.861653
0.503332
0.143866
-0.181082
-0.439787
-0.610875
-0.686734
-0.673886
-0.591295
-0.467136
-0.3345
-0.226314
-0.170315
-0.184881
-0.27598
-0.435668
-0.642571
-0.86525
-1.06838
-1.22047
-1.29998
-1.2985
-1.22118
-1.08503
-0.915929
-0.744469
-0.601172
-0.511693
-0.49286
-0.549779
-0.674408
-0.846031
-1.03445
-1.20587
-1.33018
-1.38679
-1.36763
-1.27749
-1.13245
-0.957001
-0.780121
-0.630721
-0.533086
-0.503128
-0.545627
-0.652878
-0.805132
-0.973631
-1.12618
-1.23412
-1.27778
-1.24943
-1.15356
-1.00544
-0.828283
-0.649638
-0.49695
-0.39323
-0.353427
-0.381722
-0.470135
-0.598809
-0.738775
-0.857128
-0.923557
-0.915502
-0.820915
-0.638694
-0.377765
-0.0554362
0.304381
0.672824
1.01741
1.30362
1.49836
1.57549
1.5222
4.60492
4.15997
3.68411
3.23451
2.86061
2.59001
2.42243
2.33225
2.276
2.20356
2.06935
1.84053
1.5035
1.06759
0.566523
0.0537424
-0.408723
-0.766956
-0.986238
-1.05567
-0.986909
-0.810899
-0.572653
-0.325032
-0.120594
-0.0035231
-0.00362891
-0.131493
-0.375573
-0.701256
-1.05547
-1.37728
-1.61374
-1.73034
-1.71533
-1.57854
-1.3482
-1.06602
-0.781248
-0.54295
-0.392294
-0.356864
-0.446049
-0.648298
-0.930248
-1.24111
-1.52277
-1.72476
-1.81421
-1.7799
-1.63109
-1.39452
-1.10973
-0.823403
-0.582037
-0.42465
-0.377358
-0.449007
-0.62856
-0.884256
-1.16777
-1.42378
-1.60426
-1.67787
-1.63385
-1.48095
-1.24456
-0.962273
-0.678534
-0.437647
-0.276814
-0.220929
-0.278306
-0.438042
-0.669012
-0.923616
-1.14669
-1.28892
-1.31557
-1.20996
-0.97219
-0.616612
-0.16847
0.338846
0.866128
1.36871
1.79567
2.09365
2.21685
2.14032
5.46778
4.82515
4.126
3.47923
2.97642
2.66531
2.54074
2.554
2.62589
2.66835
2.60436
2.37757
1.96207
1.36736
0.646597
-0.108828
-0.786451
-1.29421
-1.57739
-1.6236
-1.45438
-1.12013
-0.691676
-0.253386
0.110928
0.331995
0.361587
0.180336
-0.197978
-0.71887
-1.29235
-1.80909
-2.17962
-2.35022
-2.30755
-2.07063
-1.68603
-1.21984
-0.751122
-0.358535
-0.106981
-0.0414368
-0.179518
-0.507432
-0.972839
-1.48985
-1.9544
-2.28142
-2.41986
-2.35706
-2.11107
-1.72605
-1.26468
-0.801949
-0.412438
-0.157685
-0.0803216
-0.197013
-0.494607
-0.923331
-1.40151
-1.83016
-2.12831
-2.24734
-2.17507
-1.92857
-1.54979
-1.09836
-0.645724
-0.263066
-0.00927604
0.0746639
-0.0274927
-0.30337
-0.705183
-1.15386
-1.55267
-1.82071
-1.90609
-1.78931
-1.47533
-0.988748
-0.366712
0.344561
1.095
1.82893
2.47346
2.94061
3.14582
3.03652
6.52115
5.57169
4.49248
3.51653
2.81594
2.47185
2.46052
2.69128
3.01812
3.28643
3.37378
3.18638
2.67871
1.84864
0.776599
-0.383426
-1.40878
-2.14486
-2.50977
-2.50175
-2.15949
-1.56502
-0.82487
-0.0752243
0.548719
0.943228
1.03041
0.775926
0.184918
-0.660775
-1.61093
-2.45146
-3.03342
-3.27723
-3.1795
-2.7754
-2.14138
-1.3773
-0.611389
0.0289547
0.44617
0.567196
0.360357
-0.168591
-0.941137
-1.81414
-2.5841
-3.10963
-3.3153
-3.19803
-2.79126
-2.16754
-1.4216
-0.675074
-0.0487976
0.364706
0.496142
0.315469
-0.171838
-0.891203
-1.70657
-2.42445
-2.91032
-3.09228
-2.96718
-2.56667
-1.95963
-1.23617
-0.512156
0.0970827
0.502844
0.638234
0.473478
0.0126482
-0.673871
-1.4559
-2.14696
-2.6155
-2.78774
-2.6526
-2.22702
-1.55593
-0.693451
0.293885
1.34763
2.41788
3.40666
4.16477
4.5277
4.37579
7.93475
6.50511
4.71095
3.15779
2.14171
1.79885
2.03157
2.69016
3.49461
4.1651
4.53884
4.45637
3.85963
2.67838
1.0333
-0.851947
-2.44765
-3.53002
-3.97917
-3.86122
-3.22778
-2.2197
-0.971748
0.283939
1.31689
1.997
2.19122
1.8561
0.934549
-0.452266
-2.08739
-3.46617
-4.37418
-4.69606
-4.49265
-3.81128
-2.78401
-1.53742
-0.290855
0.737732
1.42582
1.64794
1.36405
0.521017
-0.7648
-2.28681
-3.5658
-4.39846
-4.6758
-4.45591
-3.78387
-2.78503
-1.57939
-0.375052
0.62122
1.29326
1.52203
1.26949
0.485081
-0.720845
-2.15201
-3.35287
-4.12997
-4.37936
-4.15592
-3.50217
-2.53711
-1.3748
-0.213309
0.750235
1.40429
1.63401
1.40079
0.65366
-0.505023
-1.88894
-3.06168
-3.83697
-4.11201
-3.93414
-3.33222
-2.39873
-1.19997
0.147578
1.57651
3.12413
4.67202
5.958
6.65095
6.46029
10.0927
7.96103
4.58396
2.02945
0.49857
0.296509
0.988985
2.47885
4.16394
5.47104
6.36084
6.4669
5.88224
4.17602
1.63587
-1.73741
-4.22574
-5.82699
-6.26522
-5.96298
-4.83559
-3.21981
-1.12978
0.96384
2.59311
3.75048
4.11424
3.78074
2.35415
0.113799
-2.93301
-5.15882
-6.55898
-6.87131
-6.49408
-5.34525
-3.74251
-1.69752
0.343549
1.93681
3.07643
3.45732
3.17289
1.84821
-0.248358
-3.10947
-5.19023
-6.48696
-6.75232
-6.36489
-5.2471
-3.70032
-1.73532
0.224567
1.75811
2.86011
3.24098
2.9894
1.74897
-0.226159
-2.9291
-4.89149
-6.10953
-6.34733
-5.96429
-4.88597
-3.39863
-1.51227
0.370583
1.84904
2.91679
3.29643
3.06813
1.8873
-0.0118364
-2.62606
-4.54874
-5.7788
-6.08847
-5.82628
-4.9149
-3.62351
-1.92075
-0.11592
1.63449
3.83
6.31454
8.60519
10.0466
9.9069
13.8703
11.187
3.26349
-0.561394
-3.05167
-2.49233
-1.20153
1.98644
5.37754
7.37788
9.31144
9.47205
9.51993
6.87455
3.43812
-3.89718
-7.28123
-9.79872
-9.61756
-9.253
-7.14668
-4.90284
-1.29298
2.31238
4.54887
6.64673
7.04131
7.2794
4.94554
1.84116
-4.96088
-8.04042
-10.3103
-10.0396
-9.60661
-7.53289
-5.33786
-1.852
1.62278
3.78912
5.81959
6.22473
6.47969
4.2869
1.369
-5.05583
-7.94368
-10.0606
-9.7689
-9.32562
-7.32807
-5.21788
-1.8839
1.4381
3.51641
5.46538
5.87063
6.13323
4.07081
1.31656
-4.77259
-7.502
-9.50064
-9.2093
-8.77389
-6.85877
-4.83472
-1.6447
1.5368
3.53926
5.42014
5.83429
6.10709
4.15532
1.51107
-4.359
-7.03315
-9.04599
-8.88838
-8.65325
-7.04477
-5.44066
-2.7885
-0.301057
1.05155
4.11965
8.23625
12.4753
15.719
16.1881
20.9309
21.8173
-4.08703
-5.09574
-10.9918
-6.33352
-6.12367
1.20163
8.59386
9.38088
14.8151
12.6396
17.0359
10.7122
10.8547
-11.7467
-11.5846
-17.6565
-13.234
-15.0512
-9.65581
-8.55297
-1.44973
5.6321
6.70423
11.9957
10.1937
14.4817
8.64649
8.89311
-12.3491
-12.088
-17.72
-13.4415
-15.0819
-9.89526
-8.79202
-1.99054
4.78612
5.83707
10.9032
9.20838
13.3112
7.76976
8.03629
-12.0955
-11.8073
-17.1028
-13.0037
-14.5245
-9.57125
-8.49773
-2.01522
4.44249
5.46097
10.2936
8.70568
12.6251
7.38886
7.66154
-11.4541
-11.1648
-16.1893
-12.2787
-13.7143
-8.98841
-7.94983
-1.76484
4.40082
5.40456
10.0356
8.57569
12.3494
7.42051
7.67916
-10.6941
-10.4698
-15.4386
-11.7999
-13.4578
-9.16836
-8.76697
-3.41907
1.14798
-2.00172
2.89947
9.98164
17.7787
25.3869
29.6423
30.6983
71.0107
-47.3024
-2.60658
-34.1356
-3.76995
-21.2921
0.320571
21.3218
4.69209
31.2769
6.34371
39.9889
5.23856
51.023
-52.3758
-6.91059
-40.6262
-7.8652
-31.2351
-5.98348
-20.8434
-1.57539
17.606
2.78397
27.5596
4.57688
36.2615
3.58992
46.8893
-50.7021
-7.64896
-39.4009
-8.31972
-30.3877
-6.37729
-20.4514
-2.09307
16.1948
2.10347
25.7229
3.84375
34.0307
2.88942
44.0775
-48.5396
-7.62984
-37.6731
-8.14563
-29.0457
-6.22728
-19.5663
-2.11056
15.2797
1.91347
24.3675
3.61053
32.3012
2.77437
41.926
-46.0785
-7.17558
-35.7443
-7.64957
-27.5267
-5.80818
-18.4756
-1.85695
14.6982
2.04675
23.4221
3.78086
31.1237
3.21581
40.6773
-43.8094
-6.42834
-34.2259
-7.08425
-26.8264
-5.69302
-19.2161
-2.92509
13.7093
-16.6482
-1.46123
10.6977
23.3542
39.8828
66.4783
28831.9
28795.1
28758.1
28721.2
28684.2
28647.2
28610.2
28573.4
28536.6
28500
28463.5
28427
28390.7
28354.4
28318.1
0.17428
0.135298
0.0851131
0.0294924
-0.0256982
-0.0752909
-0.115329
-0.143274
-0.157969
-0.159443
-0.148649
-0.127204
-0.0971619
-0.0608412
-0.0207067
0.308035
0.237859
0.147848
0.0486607
-0.0490432
-0.136082
-0.205628
-0.253491
-0.277956
-0.279358
-0.259576
-0.221556
-0.16891
-0.105636
-0.0359295
0.470462
0.360269
0.219771
0.0663577
-0.0830429
-0.214356
-0.3176
-0.3871
-0.421
-0.42045
-0.388739
-0.33053
-0.251283
-0.156863
-0.0533045
0.677849
0.512985
0.304611
0.0800439
-0.135129
-0.320696
-0.463316
-0.556308
-0.598492
-0.592704
-0.544398
-0.46054
-0.348829
-0.217229
-0.0737292
0.952362
0.709212
0.405645
0.0843369
-0.216818
-0.469983
-0.658658
-0.776321
-0.823955
-0.807473
-0.735609
-0.618401
-0.466264
-0.289495
-0.098112
1.32551
0.965858
0.52442
0.0684783
-0.346495
-0.68376
-0.925008
-1.06636
-1.11353
-1.07763
-0.972161
-0.811192
-0.60833
-0.376375
-0.127335
1.84372
1.30429
0.6577
0.0116532
-0.553877
-0.993553
-1.29125
-1.45059
-1.48618
-1.41733
-1.26422
-1.04587
-0.779487
-0.48034
-0.162188
2.57781
1.74989
0.790434
-0.125686
-0.887113
-1.44532
-1.79585
-1.95856
-1.96326
-1.84131
-1.62149
-1.3286
-0.983403
-0.60331
-0.203265
3.63941
2.32703
0.879832
-0.417716
-1.42357
-2.10476
-2.48827
-2.62453
-2.56699
-2.36315
-2.05185
-1.66363
-1.22221
-0.74623
-0.250829
5.21007
3.03899
0.81958
-1.00144
-2.28467
-3.06188
-3.42794
-3.48428
-3.31703
-2.99245
-2.55911
-2.05184
-1.49559
-0.908566
-0.304648
7.58794
3.79929
0.360935
-2.12295
-3.6518
-4.43014
-4.67733
-4.56762
-4.22439
-3.73052
-3.1403
-2.48903
-1.79975
-1.08779
-0.363843
11.2247
4.20929
-1.05217
-4.1995
-5.76943
-6.32953
-6.2836
-5.88446
-5.2824
-4.56492
-3.78252
-2.96423
-2.1266
-1.279
-0.426777
16.4621
2.86538
-4.5794
-7.85345
-8.89688
-8.83496
-8.24309
-7.40421
-6.45582
-5.46423
-4.46064
-3.45876
-2.4634
-1.47483
-0.491044
20.9181
-4.63053
-12.2774
-13.738
-13.1297
-11.8703
-10.4496
-9.03345
-7.67243
-6.37552
-5.13706
-3.94678
-2.7934
-1.66588
-0.553612
0.565942
1.70565
2.86934
4.07472
5.34238
6.69752
8.17255
9.81081
11.6722
13.8412
16.4342
19.5903
23.3453
26.8534
23.9845
0.576783
1.73853
2.9254
4.1561
5.45271
6.84285
8.3632
10.0652
12.0255
14.3657
17.2951
21.2161
27.0319
37.2174
60.1942
0.581942
1.75397
2.95102
4.19171
5.49808
6.89776
8.42769
10.1403
12.115
14.4812
17.4686
21.5313
27.6955
38.6681
62.784
0.581441
1.75205
2.94631
4.18173
5.47865
6.86224
8.36534
10.0334
11.9326
14.1652
16.8958
20.3922
25.0494
31.0964
36.0185
0.575576
1.73369
2.91304
4.12902
5.39904
6.74372
8.18848
9.76588
11.5187
13.5033
15.7901
18.4461
21.4499
24.413
26.1005
0.564877
1.70058
2.85433
4.03879
5.2676
6.55571
7.91954
9.37664
10.9439
12.6315
14.4275
16.2548
17.8699
18.6306
16.9907
0.550046
1.65494
2.77428
3.91775
5.09498
6.31512
7.58584
8.91096
10.2855
11.6848
13.0432
14.2105
14.8784
14.5136
12.7051
0.531876
1.59927
2.67747
3.77326
4.89255
6.03941
7.21437
8.41101
9.60982
10.7667
11.7921
12.5134
12.6031
11.3989
7.17486
0.511178
1.53608
2.56844
3.61246
4.67096
5.7442
6.82785
7.90959
8.96334
9.93986
10.7521
11.2552
11.226
10.3815
8.67629
0.488706
1.46772
2.4513
3.44159
4.43913
5.44175
6.44266
7.42761
8.37052
9.22713
9.92702
10.3668
10.4152
9.96178
9.07511
0.465119
1.39619
2.3295
3.26566
4.20378
5.14049
6.06854
6.97483
7.83764
8.62325
9.28257
9.75021
9.95286
9.84301
9.49366
0.440953
1.32309
2.2057
3.08835
3.96938
4.84521
5.70953
6.55225
7.35838
8.10709
8.77123
9.31768
9.70757
9.89057
9.77357
0.416624
1.24965
2.08187
2.91217
3.73858
4.55792
5.36551
6.15505
6.91898
7.64965
8.34161
8.99387
9.60597
10.1465
10.4649
0.392442
1.17678
1.95937
2.73867
3.51267
4.27877
5.034
5.77561
6.50266
7.21909
7.93953
8.69795
9.55407
10.5565
11.4171
0.368638
1.10511
1.83913
2.56884
3.29222
4.00716
4.71192
5.40628
6.09368
6.78572
7.51105
8.33417
9.40054
11.065
14.3291
0.345387
1.03515
1.72187
2.4034
3.07763
3.74258
4.39706
5.04175
5.68144
6.3292
7.01463
7.80142
8.83161
10.4626
13.7943
0.322833
0.967307
1.60819
2.24304
2.86945
3.48526
4.08897
4.68068
5.26358
5.8465
6.44778
7.09961
7.84539
8.67915
9.11674
0.301106
0.901953
1.49869
2.08852
2.66863
3.23631
3.78919
4.3257
4.84566
5.35103
5.84578
6.33253
6.79804
7.17075
7.26683
0.280325
0.839452
1.39398
1.94074
2.47643
2.99763
3.50078
3.98218
4.43786
4.86291
5.2493
5.58015
5.81509
5.8544
5.43812
0.2606
0.780141
1.29466
1.80063
2.29429
2.77148
3.22744
3.6565
4.05132
4.4016
4.69136
4.89436
4.96795
4.8544
4.5463
0.242027
0.724318
1.20126
1.66907
2.12358
2.56005
2.97279
3.35457
3.6957
3.98229
4.19365
4.29841
4.25073
3.98948
3.42789
0.224675
0.672207
1.11421
1.54673
1.9654
2.3651
2.73961
3.08086
3.37792
3.61522
3.76994
3.80829
3.6818
3.33312
2.78268
0.208586
0.623933
1.03373
1.43402
1.82037
2.18764
2.52951
2.83784
3.10163
3.30548
3.42703
3.43264
3.26716
2.81685
1.72229
0.193762
0.57951
0.95986
1.33097
1.68859
2.02781
2.3427
2.62572
2.86696
3.05288
3.16462
3.17577
3.05031
2.74796
2.29385
0.180172
0.538834
0.892402
1.23729
1.56958
1.88488
2.178
2.44262
2.6707
2.85178
2.97207
3.01375
2.95627
2.78444
2.51053
0.167747
0.501696
0.830972
1.15234
1.46237
1.75734
2.0331
2.28487
2.50706
2.69289
2.83408
2.92059
2.94164
2.89181
2.79842
0.156396
0.467801
0.775032
1.07526
1.36562
1.64314
1.90484
2.14767
2.36866
2.565
2.73405
2.87289
2.97623
3.0294
2.98572
0.146008
0.436804
0.72395
1.00505
1.27776
1.53993
1.78967
2.02562
2.24738
2.45606
2.65498
2.84982
3.04565
3.23424
3.36708
0.136467
0.408342
0.677068
0.940642
1.19724
1.44536
1.68407
1.91343
2.13518
2.35388
2.57875
2.82605
3.1201
3.47779
3.78586
0.12766
0.382065
0.633762
0.881081
1.1226
1.35731
1.58495
1.80651
2.02508
2.24742
2.48693
2.76981
3.15034
3.75578
4.94537
0.119489
0.357668
0.593495
0.82555
1.05267
1.27416
1.49007
1.70167
1.91236
2.12904
2.36498
2.64575
3.02437
3.62812
4.83575
0.111871
0.334904
0.555846
0.77344
0.986665
1.1949
1.39816
1.59747
1.79546
1.99728
2.21189
2.45374
2.74206
3.08108
3.31725
0.104747
0.313592
0.520521
0.724362
0.924121
1.11909
1.30899
1.49418
1.67592
1.85662
2.03988
2.22947
2.42453
2.60544
2.715
0.0980732
0.293611
0.48734
0.678118
0.864902
1.04679
1.22308
1.39328
1.55709
1.71417
1.86349
2.00138
2.11681
2.17936
2.10461
0.091822
0.274884
0.456207
0.634647
0.80908
0.978387
1.14141
1.29682
1.44292
1.57712
1.69502
1.78889
1.8458
1.84864
1.80028
0.0859748
0.257366
0.427075
0.593958
0.756818
0.914347
1.06501
1.20683
1.33702
1.45138
1.54323
1.60208
1.61233
1.55347
1.39766
0.0805154
0.241015
0.399906
0.556062
0.708259
0.855075
0.994748
1.1249
1.24213
1.34127
1.41435
1.44901
1.42687
1.32561
1.15497
0.075425
0.225781
0.374635
0.520917
0.663434
0.800765
0.931097
1.05196
1.15979
1.24926
1.31215
1.33538
1.29635
1.14594
0.724816
0.070678
0.21159
0.351149
0.488387
0.622211
0.751314
0.874022
0.988065
1.09021
1.1757
1.23748
1.26501
1.24317
1.15425
1.00891
0.0662397
0.198338
0.329276
0.458228
0.584268
0.706305
0.822966
0.932435
1.03219
1.11863
1.18659
1.22891
1.23658
1.20176
1.12543
0.0620662
0.185891
0.308783
0.430091
0.549106
0.665029
0.776907
0.883553
0.983412
1.07438
1.15353
1.21687
1.2595
1.2781
1.28415
0.0581067
0.174092
0.289392
0.403547
0.516093
0.626562
0.734483
0.839385
0.940816
1.03833
1.13144
1.21922
1.2991
1.36316
1.38619
0.0543056
0.162769
0.270796
0.378121
0.484524
0.589868
0.694156
0.797631
0.90094
1.00536
1.11306
1.22705
1.34971
1.47671
1.58503
0.0506074
0.15175
0.252688
0.353336
0.453693
0.553909
0.654395
0.755996
0.860295
0.970112
1.09031
1.22886
1.3973
1.60325
1.79184
0.0469598
0.140873
0.234784
0.328755
0.422961
0.517766
0.613863
0.712491
0.815823
0.927664
1.05481
1.20994
1.41885
1.74185
2.3496
0.0433169
0.129998
0.216839
0.304014
0.391814
0.480728
0.571577
0.665724
0.765446
0.874594
0.99988
1.15367
1.36117
1.68272
2.29825
0.0396416
0.119012
0.198663
0.278841
0.359896
0.442351
0.527004
0.615089
0.708527
0.810325
0.925164
1.06012
1.2243
1.41946
1.5719
0.0359058
0.107833
0.180123
0.25306
0.327008
0.40245
0.480052
0.560741
0.64581
0.737004
0.836486
0.946273
1.06593
1.18586
1.27925
0.0320896
0.0964045
0.161134
0.22658
0.293086
0.361054
0.430959
0.503357
0.578845
0.657934
0.740659
0.825586
0.907365
0.970716
0.972855
0.0281797
0.0846888
0.141649
0.199366
0.258152
0.318315
0.380141
0.443832
0.509387
0.576347
0.643311
0.707094
0.761612
0.798087
0.816781
0.0241662
0.0726612
0.12164
0.171413
0.222264
0.274427
0.328033
0.383019
0.438959
0.494764
0.548181
0.595044
0.628397
0.637816
0.605756
0.0200404
0.0602986
0.101082
0.142714
0.18547
0.229542
0.274971
0.321549
0.368632
0.414848
0.457611
0.492385
0.511813
0.506358
0.479605
0.0157917
0.0475728
0.0799366
0.113237
0.147766
0.183718
0.221118
0.259734
0.298914
0.337339
0.372599
0.400392
0.41252
0.389701
0.266802
0.0114064
0.0344437
0.0581435
0.082909
0.10908
0.136892
0.166428
0.197536
0.229729
0.262035
0.292781
0.319288
0.337504
0.342555
0.339218
0.00686553
0.0208558
0.0356126
0.0516091
0.0692574
0.0888762
0.110652
0.134591
0.160475
0.187825
0.215918
0.243951
0.271643
0.301243
0.343622
0.00214522
0.00673721
0.0122234
0.0191656
0.0280712
0.0393683
0.0533796
0.0703026
0.0902108
0.113109
0.139109
0.168862
0.204468
0.251071
0.317881
-0.00278392
-0.00800086
-0.0121742
-0.0146376
-0.0147708
-0.0120184
-0.00590711
0.00395013
0.0178805
0.0362492
0.0597061
0.0897232
0.129671
0.18688
0.277318
-0.00795613
-0.0234621
-0.0377564
-0.0500551
-0.0596114
-0.0657314
-0.0677876
-0.065222
-0.0575218
-0.0441322
-0.0242395
0.00370277
0.0429025
0.0996319
0.182002
-0.0134099
-0.039763
-0.0647216
-0.087373
-0.106833
-0.12226
-0.13287
-0.137951
-0.136864
-0.129017
-0.113761
-0.0901191
-0.0560207
-0.00540215
0.0868578
-0.0191871
-0.0570308
-0.0932859
-0.126903
-0.15685
-0.182127
-0.201783
-0.214952
-0.22089
-0.219035
-0.20909
-0.191185
-0.166396
-0.13933
-0.13339
-0.025332
-0.0753999
-0.123679
-0.168977
-0.210105
-0.24589
-0.275194
-0.296966
-0.310316
-0.314656
-0.309932
-0.297013
-0.278329
-0.25856
-0.241262
-0.0318903
-0.0950093
-0.15614
-0.213943
-0.267066
-0.314145
-0.353827
-0.384818
-0.405987
-0.416558
-0.416448
-0.406825
-0.390993
-0.376045
-0.378689
-0.0389074
-0.115998
-0.190908
-0.262155
-0.328218
-0.387531
-0.438487
-0.479481
-0.509005
-0.525863
-0.529556
-0.520929
-0.503021
-0.481284
-0.457853
-0.0464267
-0.138499
-0.228216
-0.313961
-0.394053
-0.466713
-0.530057
-0.582098
-0.620808
-0.644297
-0.651204
-0.641461
-0.617686
-0.587677
-0.570598
-0.0544877
-0.162635
-0.268279
-0.369691
-0.465041
-0.552358
-0.629469
-0.693963
-0.743169
-0.774235
-0.7844
-0.77172
-0.736661
-0.685071
-0.630357
-0.0631232
-0.188506
-0.311279
-0.429625
-0.541604
-0.645082
-0.737635
-0.816435
-0.878117
-0.918673
-0.933447
-0.917504
-0.867101
-0.784615
-0.693998
-0.0723576
-0.21619
-0.35735
-0.493975
-0.624065
-0.745387
-0.855344
-0.950784
-1.02773
-1.081
-1.10381
-1.0872
-1.01981
-0.889791
-0.70576
-0.0822045
-0.245726
-0.406566
-0.56286
-0.712609
-0.853576
-0.983127
-1.09797
-1.19376
-1.26448
-1.30154
-1.29216
-1.21598
-1.03246
-0.617109
-0.0926668
-0.277124
-0.458937
-0.636286
-0.807246
-0.969688
-1.12112
-1.25838
-1.37719
-1.47134
-1.53149
-1.5435
-1.48669
-1.33613
-1.09711
-0.103737
-0.310356
-0.514404
-0.714146
-0.907794
-1.09344
-1.26893
-1.43159
-1.57773
-1.70179
-1.79488
-1.84262
-1.82248
-1.70121
-1.42267
-0.115401
-0.345372
-0.572859
-0.796233
-1.01389
-1.22425
-1.42566
-1.61627
-1.79359
-1.95373
-2.08974
-2.18886
-2.2285
-2.17549
-2.01853
-0.127641
-0.382111
-0.634169
-0.882285
-1.12505
-1.36125
-1.58988
-1.81016
-2.02139
-2.22241
-2.41021
-2.57639
-2.69884
-2.72193
-2.50124
-0.140445
-0.420524
-0.698213
-0.972046
-1.24077
-1.50351
-1.75989
-2.01033
-2.25626
-2.50027
-2.74568
-2.99429
-3.23817
-3.43766
-3.49694
-0.153809
-0.460596
-0.764933
-1.06535
-1.36066
-1.65017
-1.93402
-2.21362
-2.49246
-2.77713
-3.07893
-3.41546
-3.80831
-4.25073
-4.48398
-0.167751
-0.502368
-0.834373
-1.16219
-1.48455
-1.80076
-2.11108
-2.41745
-2.7246
-3.04209
-3.38804
-3.7975
-4.34402
-5.20904
-6.95405
-0.182307
-0.545952
-0.906719
-1.26282
-1.61273
-1.95543
-2.29088
-2.62071
-2.94956
-3.28727
-3.65304
-4.08434
-4.65853
-5.55622
-7.27694
-0.197537
-0.591532
-0.982302
-1.36775
-1.7459
-2.11514
-2.47456
-2.82465
-3.16837
-3.51294
-3.87253
-4.27193
-4.74837
-5.33185
-5.88421
-0.213514
-0.639351
-1.06158
-1.47773
-1.88525
-2.28166
-2.66473
-3.03301
-3.38658
-3.72816
-4.06437
-4.40602
-4.76386
-5.12905
-5.42451
-0.23032
-0.689671
-1.14509
-1.5937
-2.03233
-2.45743
-2.86515
-3.25157
-3.61311
-3.94712
-4.2524
-4.52885
-4.77424
-4.97467
-5.08094
-0.248019
-0.742725
-1.23331
-1.7166
-2.18879
-2.64526
-3.08037
-3.48741
-3.85875
-4.18601
-4.46046
-4.67322
-4.81582
-4.88567
-4.91561
-0.266643
-0.798641
-1.3266
-1.84719
-2.35618
-2.84793
-3.31506
-3.74805
-4.13498
-4.46155
-4.71135
-4.86632
-4.90792
-4.82436
-4.64592
-0.28616
-0.857365
-1.42499
-1.98585
-2.53552
-3.06768
-3.57346
-4.04066
-4.45312
-4.79041
-5.02809
-5.13813
-5.08694
-4.82893
-4.36848
-0.306452
-0.918572
-1.52808
-2.13229
-2.72702
-3.30576
-3.85865
-4.37128
-4.82345
-5.18844
-5.43346
-5.5219
-5.40956
-4.97407
-3.50215
-0.327286
-0.981597
-1.63484
-2.2853
-2.92961
-3.56178
-4.17179
-4.74386
-5.25433
-5.66977
-5.94755
-6.04509
-5.9566
-5.83893
-6.47773
-0.348302
-1.04536
-1.74353
-2.44257
-3.14065
-3.83319
-4.51127
-5.15923
-5.7512
-6.2467
-6.58679
-6.69746
-6.5239
-6.17848
-6.50633
-0.369
-1.10836
-1.8516
-2.60051
-3.35552
-4.11462
-4.87166
-5.61347
-6.31504
-6.93153
-7.38536
-7.54719
-7.21055
-6.05046
-3.41173
-0.388751
-1.16867
-1.95573
-2.75422
-3.56756
-4.39749
-5.24262
-6.09564
-6.93797
-7.72932
-8.3867
-8.74309
-8.46901
-6.94927
-3.22319
-0.406822
-1.22403
-2.05192
-2.89761
-3.76806
-4.6698
-5.60811
-6.58522
-7.59631
-8.62012
-9.59707
-10.3768
-10.5925
-9.38024
-4.92373
-0.422418
-1.27196
-2.13575
-3.02379
-3.94683
-4.91671
-5.94663
-7.05121
-8.24581
-9.54345
-10.9444
-12.4021
-13.7077
-14.0641
-10.368
-0.434749
-1.30999
-2.20274
-3.12567
-4.09308
-5.12193
-6.2333
-7.45467
-8.82375
-10.395
-12.2523
-14.5331
-17.4821
-21.5623
-27.6454
-11.3697
-25.8999
-24.4757
-20.9053
-17.5894
-14.8094
-12.481
-10.4882
-8.73847
-7.1647
-5.71851
-4.36432
-3.07494
-1.82859
-0.606858
-111.481
-58.144
-37.5363
-27.3565
-21.287
-17.1597
-14.083
-11.6312
-9.5767
-7.78678
-6.17816
-4.69524
-3.29851
-1.95798
-0.649228
-123.942
-67.6597
-43.3552
-30.9535
-23.6357
-18.7804
-15.2509
-12.4982
-10.2312
-8.28295
-6.5505
-4.96631
-3.48305
-2.06529
-0.684451
-68.1046
-54.9688
-40.9082
-31.0198
-24.2745
-19.4804
-15.8794
-13.0278
-10.6644
-8.62923
-6.81988
-5.16728
-3.62211
-2.14696
-0.711384
-48.0871
-42.9201
-35.5638
-28.9036
-23.5582
-19.3519
-15.9873
-13.2185
-10.8696
-8.81867
-6.98041
-5.29364
-3.71255
-2.20114
-0.729419
-30.5529
-32.3919
-29.7359
-25.8742
-22.0507
-18.6389
-15.6815
-13.1177
-10.868
-8.86038
-7.03574
-5.3466
-3.75458
-2.22777
-0.738506
-22.5472
-24.9851
-24.7451
-22.8184
-20.2572
-17.6105
-15.1023
-12.7986
-10.6981
-8.77504
-6.99697
-5.3321
-3.75132
-2.22833
-0.73908
-12.5349
-19.438
-20.9257
-20.2033
-18.5232
-16.4857
-14.3811
-12.3384
-10.4052
-8.58899
-6.87956
-5.25921
-3.70793
-2.20545
-0.731951
-15.1385
-17.6516
-18.641
-18.2531
-17.0374
-15.4077
-13.6167
-11.8022
-10.0308
-8.3288
-6.70029
-5.13835
-3.63064
-2.16245
-0.718156
-15.8106
-16.9234
-17.3127
-16.8778
-15.839
-14.4416
-12.8687
-11.236
-9.6084
-8.01753
-6.47478
-4.97983
-3.52591
-2.10285
-0.698815
-16.4573
-16.6977
-16.5568