/*--------------------------------*- C++ -*----------------------------------*\
| =========                 |                                                 |
| \\      /  F ield         | OpenFOAM: The Open Source CFD Toolbox           |
|  \\    /   O peration     | Version:  5.x                                   |
|   \\  /    A nd           | Web:      www.OpenFOAM.org                      |
|    \\/     M anipulation  |                                                 |
\*---------------------------------------------------------------------------*/
FoamFile
{
    version     2.0;
    format      ascii;
    class       volScalarField;
    location    "7.8";
    object      T;
}
// * * * * * * * * * * * * * * * * * * * * * * * * * * * * * * * * * * * * * //

dimensions      [0 0 0 1 0 0 0];

internalField   nonuniform List<scalar> 
6300
(
322.841
322.523
322.204
321.883
321.56
321.233
320.903
320.569
320.229
319.885
319.535
319.179
318.818
318.45
318.076
322.841
322.524
322.206
321.885
321.563
321.237
320.907
320.573
320.235
319.891
319.541
319.185
318.824
318.456
318.082
322.842
322.526
322.209
321.89
321.569
321.244
320.916
320.583
320.245
319.902
319.553
319.197
318.836
318.468
318.094
322.843
322.529
322.215
321.898
321.578
321.256
320.929
320.598
320.261
319.919
319.57
319.216
318.854
318.486
318.111
322.845
322.534
322.222
321.908
321.591
321.271
320.947
320.618
320.283
319.942
319.595
319.24
318.879
318.51
318.135
322.847
322.539
322.231
321.92
321.607
321.29
320.969
320.643
320.311
319.972
319.626
319.273
318.911
318.542
318.165
322.849
322.546
322.242
321.936
321.627
321.314
320.997
320.674
320.345
320.009
319.665
319.312
318.951
318.581
318.202
322.851
322.554
322.255
321.954
321.651
321.343
321.03
320.712
320.387
320.054
319.712
319.361
319
318.629
318.248
322.855
322.563
322.271
321.976
321.678
321.376
321.069
320.756
320.436
320.107
319.769
319.42
319.06
318.687
318.302
322.858
322.574
322.288
322
321.709
321.414
321.114
320.808
320.493
320.17
319.836
319.49
319.131
318.757
318.368
322.862
322.585
322.308
322.028
321.745
321.458
321.166
320.867
320.56
320.244
319.916
319.574
319.217
318.842
318.448
322.866
322.598
322.329
322.058
321.784
321.507
321.224
320.934
320.637
320.329
320.009
319.674
319.32
318.945
318.547
322.871
322.613
322.353
322.092
321.828
321.56
321.288
321.01
320.723
320.427
320.117
319.791
319.444
319.073
318.672
322.876
322.628
322.379
322.128
321.875
321.619
321.359
321.093
320.82
320.537
320.242
319.929
319.594
319.229
318.832
322.881
322.644
322.406
322.166
321.925
321.682
321.435
321.183
320.926
320.661
320.384
320.09
319.772
319.418
319.027
317.729
317.409
317.086
316.759
316.429
316.096
315.761
315.423
315.083
314.741
314.397
314.051
313.704
313.356
313.007
312.657
312.307
311.957
311.607
311.256
310.906
310.557
310.208
309.859
309.511
309.163
308.815
308.468
308.122
307.776
307.431
307.087
306.743
306.401
306.059
305.719
305.38
305.041
304.704
304.367
304.032
303.697
303.363
303.03
302.698
302.366
302.036
301.707
301.379
301.052
300.726
300.402
300.078
299.755
299.434
299.113
298.793
298.474
298.156
297.838
297.522
297.207
296.892
296.579
296.266
295.955
295.645
295.335
295.026
294.719
294.412
294.105
293.799
293.494
293.19
292.886
292.583
292.28
291.978
291.676
291.375
291.074
290.773
290.472
290.171
289.869
289.567
289.264
288.96
288.655
317.734
317.414
317.091
316.764
316.433
316.1
315.765
315.426
315.086
314.743
314.399
314.053
313.706
313.357
313.008
312.658
312.307
311.957
311.606
311.256
310.906
310.556
310.207
309.858
309.51
309.162
308.814
308.467
308.121
307.775
307.43
307.085
306.742
306.399
306.058
305.718
305.378
305.04
304.702
304.366
304.03
303.696
303.362
303.028
302.696
302.365
302.035
301.705
301.377
301.05
300.725
300.4
300.077
299.754
299.432
299.112
298.792
298.473
298.154
297.837
297.521
297.205
296.891
296.577
296.265
295.954
295.643
295.334
295.025
294.718
294.411
294.104
293.798
293.493
293.189
292.885
292.582
292.279
291.977
291.676
291.375
291.074
290.774
290.473
290.172
289.87
289.568
289.265
288.961
288.656
317.745
317.425
317.1
316.773
316.442
316.108
315.772
315.433
315.092
314.749
314.403
314.057
313.709
313.36
313.009
312.659
312.308
311.957
311.606
311.255
310.905
310.555
310.206
309.857
309.509
309.161
308.813
308.466
308.119
307.773
307.427
307.083
306.739
306.396
306.055
305.715
305.375
305.037
304.7
304.363
304.028
303.693
303.359
303.026
302.693
302.362
302.031
301.702
301.374
301.047
300.722
300.397
300.074
299.751
299.43
299.109
298.789
298.47
298.152
297.834
297.518
297.202
296.888
296.574
296.262
295.951
295.641
295.331
295.023
294.715
294.409
294.102
293.797
293.491
293.187
292.883
292.58
292.277
291.976
291.675
291.374
291.074
290.774
290.474
290.173
289.872
289.571
289.268
288.964
288.659
317.762
317.44
317.115
316.786
316.454
316.12
315.782
315.443
315.101
314.756
314.41
314.063
313.714
313.363
313.012
312.66
312.308
311.956
311.605
311.254
310.903
310.553
310.204
309.855
309.507
309.159
308.811
308.463
308.116
307.77
307.424
307.079
306.735
306.392
306.05
305.71
305.371
305.033
304.696
304.36
304.024
303.69
303.355
303.022
302.689
302.357
302.027
301.697
301.369
301.042
300.717
300.392
300.069
299.747
299.426
299.106
298.786
298.467
298.148
297.83
297.514
297.198
296.883
296.57
296.257
295.946
295.636
295.328
295.02
294.712
294.406
294.1
293.794
293.489
293.184
292.88
292.577
292.275
291.973
291.673
291.373
291.073
290.774
290.475
290.176
289.875
289.574
289.272
288.968
288.663
317.784
317.461
317.135
316.804
316.471
316.135
315.796
315.455
315.112
314.767
314.42
314.071
313.72
313.368
313.015
312.662
312.309
311.956
311.603
311.252
310.901
310.551
310.202
309.853
309.505
309.156
308.808
308.46
308.113
307.765
307.419
307.073
306.729
306.385
306.044
305.704
305.365
305.027
304.691
304.355
304.02
303.685
303.351
303.017
302.684
302.351
302.02
301.69
301.362
301.035
300.71
300.386
300.063
299.742
299.421
299.101
298.781
298.462
298.143
297.825
297.508
297.192
296.877
296.563
296.251
295.94
295.631
295.323
295.015
294.708
294.402
294.096
293.791
293.485
293.18
292.876
292.573
292.271
291.97
291.67
291.37
291.072
290.775
290.477
290.179
289.88
289.58
289.278
288.975
288.669
317.813
317.488
317.159
316.827
316.492
316.154
315.814
315.472
315.127
314.781
314.432
314.081
313.729
313.375
313.02
312.664
312.309
311.954
311.6
311.248
310.897
310.547
310.198
309.85
309.502
309.154
308.806
308.457
308.109
307.76
307.412
307.066
306.721
306.377
306.035
305.695
305.357
305.02
304.685
304.349
304.015
303.68
303.345
303.011
302.677
302.344
302.012
301.681
301.353
301.026
300.701
300.378
300.056
299.735
299.415
299.096
298.776
298.457
298.137
297.819
297.501
297.184
296.868
296.555
296.243
295.932
295.624
295.316
295.01
294.704
294.398
294.092
293.787
293.481
293.176
292.871
292.568
292.265
291.964
291.665
291.367
291.071
290.775
290.479
290.183
289.886
289.588
289.287
288.984
288.678
317.848
317.52
317.189
316.854
316.516
316.176
315.834
315.491
315.145
314.797
314.447
314.094
313.739
313.382
313.024
312.666
312.308
311.951
311.596
311.243
310.892
310.542
310.194
309.847
309.499
309.152
308.803
308.454
308.104
307.754
307.405
307.056
306.71
306.366
306.024
305.685
305.348
305.012
304.678
304.343
304.009
303.675
303.34
303.004
302.669
302.334
302.001
301.67
301.341
301.014
300.69
300.368
300.047
299.728
299.409
299.09
298.771
298.451
298.131
297.811
297.492
297.174
296.858
296.544
296.232
295.922
295.615
295.309
295.003
294.699
294.394
294.088
293.783
293.476
293.17
292.865
292.56
292.257
291.957
291.658
291.362
291.068
290.775
290.482
290.189
289.895
289.599
289.3
288.997
288.691
317.89
317.559
317.223
316.885
316.544
316.201
315.858
315.513
315.166
314.817
314.465
314.11
313.752
313.392
313.03
312.667
312.305
311.945
311.588
311.234
310.884
310.535
310.189
309.843
309.497
309.15
308.802
308.452
308.1
307.747
307.395
307.044
306.696
306.351
306.009
305.671
305.336
305.002
304.67
304.337
304.004
303.67
303.334
302.997
302.66
302.323
301.988
301.655
301.325
300.999
300.676
300.355
300.037
299.72
299.403
299.085
298.766
298.446
298.124
297.803
297.481
297.161
296.844
296.529
296.218
295.909
295.604
295.3
294.997
294.694
294.39
294.085
293.779
293.472
293.164
292.856
292.55
292.247
291.946
291.649
291.354
291.063
290.774
290.485
290.197
289.907
289.614
289.317
289.016
288.709
317.94
317.603
317.262
316.918
316.573
316.228
315.883
315.537
315.191
314.841
314.488
314.131
313.769
313.404
313.036
312.667
312.3
311.936
311.576
311.222
310.872
310.526
310.183
309.84
309.497
309.152
308.803
308.451
308.097
307.74
307.384
307.029
306.678
306.331
305.99
305.653
305.321
304.991
304.662
304.333
304.001
303.667
303.331
302.991
302.65
302.309
301.971
301.635
301.304
300.978
300.657
300.34
300.025
299.711
299.397
299.082
298.763
298.442
298.118
297.793
297.469
297.145
296.826
296.51
296.199
295.893
295.59
295.289
294.99
294.69
294.388
294.084
293.777
293.468
293.157
292.846
292.537
292.232
291.93
291.634
291.343
291.055
290.771
290.489
290.206
289.922
289.635
289.342
289.042
288.734
317.999
317.655
317.306
316.954
316.603
316.255
315.908
315.564
315.219
314.871
314.517
314.158
313.792
313.419
313.043
312.665
312.289
311.919
311.557
311.202
310.855
310.513
310.175
309.838
309.5
309.157
308.809
308.455
308.096
307.733
307.369
307.008
306.653
306.304
305.963
305.63
305.302
304.978
304.655
304.33
304.002
303.669
303.331
302.987
302.64
302.293
301.948
301.609
301.276
300.951
300.633
300.321
300.012
299.704
299.394
299.082
298.764
298.442
298.115
297.784
297.453
297.125
296.801
296.484
296.174
295.871
295.573
295.278
294.984
294.689
294.39
294.087
293.778
293.466
293.15
292.833
292.519
292.21
291.908
291.613
291.325
291.043
290.766
290.492
290.219
289.943
289.663
289.376
289.078
288.769
318.07
317.715
317.352
316.989
316.63
316.277
315.932
315.591
315.251
314.907
314.556
314.195
313.823
313.441
313.051
312.659
312.271
311.893
311.526
311.172
310.829
310.495
310.166
309.839
309.508
309.17
308.824
308.467
308.1
307.727
307.351
306.98
306.617
306.266
305.926
305.598
305.278
304.963
304.65
304.333
304.01
303.679
303.338
302.988
302.631
302.273
301.919
301.573
301.238
300.914
300.601
300.297
299.997
299.698
299.396
299.089
298.773
298.448
298.115
297.776
297.434
297.097
296.767
296.448
296.14
295.841
295.551
295.265
294.98
294.692
294.398
294.097
293.786
293.468
293.143
292.817
292.494
292.179
291.875
291.581
291.298
291.024
290.757
290.495
290.233
289.971
289.703
289.425
289.132
288.821
318.158
317.785
317.4
317.017
316.646
316.291
315.949
315.618
315.289
314.954
314.608
314.247
313.869
313.473
313.063
312.648
312.24
311.849
311.477
311.125
310.79
310.469
310.156
309.844
309.526
309.197
308.853
308.492
308.115
307.724
307.328
306.939
306.565
306.21
305.873
305.553
305.246
304.947
304.649
304.345
304.031
303.702
303.358
302.998
302.625
302.247
301.877
301.521
301.183
300.862
300.558
300.265
299.98
299.696
299.407
299.108
298.795
298.467
298.124
297.77
297.41
297.058
296.719
296.397
296.091
295.801
295.522
295.25
294.98
294.704
294.418
294.119
293.806
293.479
293.14
292.796
292.458
292.134
291.826
291.534
291.258
290.995
290.742
290.495
290.25
290.006
289.757
289.495
289.211
288.899
318.272
317.874
317.444
317.029
316.64
316.283
315.952
315.641
315.334
315.016
314.683
314.324
313.94
313.524
313.084
312.625
312.187
311.776
311.401
311.052
310.732
310.43
310.144
309.858
309.56
309.245
308.906
308.542
308.147
307.729
307.293
306.877
306.486
306.128
305.796
305.491
305.203
304.929
304.657
304.372
304.072
303.748
303.401
303.025
302.626
302.211
301.815
301.443
301.103
300.787
300.496
300.222
299.962
299.702
299.432
299.146
298.838
298.508
298.15
297.771
297.376
296.999
296.645
296.321
296.02
295.744
295.483
295.234
294.987
294.729
294.457
294.163
293.848
293.506
293.143
292.765
292.403
292.064
291.753
291.465
291.2
290.952
290.719
290.492
290.266
290.047
289.829
289.597
289.333
289.019
318.435
318.009
317.465
317.006
316.585
316.241
315.925
315.657
315.396
315.101
314.794
314.436
314.059
313.61
313.132
312.57
312.095
311.653
311.285
310.94
310.647
310.371
310.13
309.89
309.617
309.33
308.994
308.638
308.213
307.761
307.228
306.778
306.359
306.009
305.681
305.403
305.139
304.91
304.681
304.421
304.147
303.827
303.488
303.083
302.653
302.146
301.718
301.32
300.988
300.676
300.411
300.161
299.942
299.725
299.477
299.217
298.912
298.59
298.206
297.796
297.315
296.908
296.529
296.212
295.916
295.664
295.425
295.217
295.01
294.774
294.526
294.236
293.929
293.562
293.17
292.708
292.317
291.953
291.648
291.361
291.117
290.886
290.687
290.489
290.271
290.088
289.922
289.745
289.526
289.222
318.691
318.31
317.362
316.927
316.42
316.157
315.829
315.665
315.506
315.204
314.979
314.577
314.281
313.738
313.301
312.39
311.955
311.423
311.136
310.751
310.539
310.259
310.115
309.971
309.694
309.485
309.11
308.832
308.32
307.907
307.046
306.635
306.131
305.859
305.495
305.293
305.027
304.889
304.752
304.489
304.29
303.932
303.668
303.18
302.787
301.969
301.579
301.101
300.843
300.497
300.305
300.053
299.922
299.791
299.541
299.352
299.012
298.761
298.298
297.924
297.147
296.776
296.321
296.076
295.746
295.564
295.324
295.199
295.075
294.837
294.657
294.334
294.095
293.654
293.297
292.551
292.194
291.755
291.517
291.195
291.016
290.776
290.651
290.515
290.226
290.105
290.029
289.953
289.841
289.612
288.318
287.95
287.581
287.211
286.842
286.472
286.103
285.734
285.367
285
284.635
284.271
283.907
283.544
283.181
288.319
287.951
287.582
287.212
286.842
286.472
286.102
285.734
285.366
284.999
284.634
284.27
283.906
283.543
283.181
288.322
287.953
287.583
287.212
286.841
286.471
286.101
285.732
285.364
284.997
284.632
284.268
283.905
283.543
283.181
288.326
287.956
287.585
287.213
286.841
286.469
286.098
285.728
285.36
284.994
284.629
284.265
283.903
283.541
283.18
288.331
287.96
287.587
287.213
286.839
286.466
286.094
285.724
285.355
284.989
284.624
284.261
283.9
283.54
283.18
288.339
287.966
287.591
287.214
286.838
286.462
286.089
285.717
285.348
284.982
284.618
284.256
283.896
283.537
283.179
288.35
287.974
287.595
287.215
286.835
286.457
286.081
285.708
285.339
284.973
284.61
284.249
283.891
283.534
283.178
288.366
287.985
287.601
287.216
286.831
286.449
286.07
285.696
285.326
284.96
284.599
284.24
283.884
283.529
283.176
288.387
288
287.608
287.215
286.824
286.437
286.055
285.679
285.309
284.944
284.584
284.228
283.875
283.524
283.175
288.417
288.02
287.617
287.213
286.813
286.42
286.034
285.657
285.287
284.924
284.566
284.213
283.864
283.517
283.172
288.46
288.047
287.626
287.207
286.796
286.395
286.005
285.627
285.258
284.897
284.543
284.195
283.851
283.509
283.17
288.521
288.081
287.633
287.193
286.767
286.359
285.966
285.587
285.22
284.864
284.515
284.172
283.834
283.499
283.166
288.612
288.123
287.633
287.165
286.723
286.306
285.912
285.535
285.173
284.822
284.48
284.145
283.815
283.487
283.162
288.746
288.165
287.612
287.109
286.652
286.232
285.84
285.469
285.115
284.772
284.439
284.113
283.792
283.474
283.158
288.941
288.18
287.542
287.007
286.545
286.13
285.747
285.387
285.044
284.713
284.391
284.076
283.765
283.458
283.152
322.887
322.659
322.432
322.203
321.974
321.742
321.508
321.272
321.031
320.784
320.529
320.261
319.968
319.626
319.181
322.891
322.674
322.456
322.238
322.019
321.799
321.578
321.355
321.13
320.903
320.671
320.432
320.179
319.885
319.441
322.896
322.688
322.481
322.273
322.064
321.856
321.648
321.439
321.231
321.024
320.818
320.614
320.418
320.246
320.184
322.901
322.703
322.505
322.308
322.11
321.914
321.718
321.524
321.332
321.144
320.962
320.791
320.64
320.529
320.487
322.906
322.718
322.53
322.342
322.156
321.971
321.787
321.607
321.43
321.26
321.099
320.954
320.836
320.764
320.784
322.911
322.732
322.554
322.376
322.2
322.026
321.855
321.687
321.524
321.369
321.225
321.099
320.998
320.936
320.922
322.915
322.746
322.577
322.41
322.244
322.08
321.919
321.763
321.613
321.47
321.34
321.225
321.133
321.075
321.067
322.92
322.759
322.6
322.442
322.285
322.131
321.981
321.835
321.695
321.564
321.443
321.335
321.246
321.178
321.134
322.924
322.773
322.622
322.472
322.325
322.18
322.039
321.903
321.773
321.65
321.536
321.434
321.343
321.265
321.187
322.928
322.785
322.643
322.502
322.363
322.227
322.095
321.967
321.845
321.729
321.622
321.523
321.433
321.351
321.278
322.932
322.797
322.663
322.53
322.399
322.271
322.147
322.027
321.912
321.804
321.702
321.606
321.517
321.431
321.338
322.936
322.808
322.682
322.556
322.433
322.313
322.196
322.083
321.975
321.873
321.777
321.686
321.599
321.515
321.437
322.94
322.819
322.699
322.581
322.465
322.352
322.242
322.136
322.035
321.939
321.848
321.762
321.679
321.596
321.501
322.943
322.829
322.716
322.605
322.495
322.389
322.285
322.186
322.091
322.001
321.916
321.835
321.759
321.684
321.611
322.946
322.839
322.732
322.627
322.524
322.423
322.326
322.232
322.143
322.059
321.98
321.907
321.838
321.772
321.691
322.949
322.848
322.747
322.648
322.55
322.456
322.364
322.276
322.192
322.114
322.041
321.974
321.916
321.869
321.85
322.952
322.856
322.761
322.667
322.575
322.486
322.399
322.316
322.238
322.165
322.097
322.037
321.985
321.946
321.921
322.954
322.864
322.774
322.685
322.598
322.514
322.432
322.354
322.28
322.211
322.148
322.093
322.046
322.013
322.002
322.957
322.871
322.786
322.702
322.62
322.54
322.462
322.389
322.319
322.254
322.194
322.142
322.099
322.066
322.042
322.959
322.878
322.797
322.717
322.639
322.564
322.49
322.42
322.354
322.292
322.236
322.186
322.143
322.111
322.092
322.961
322.884
322.807
322.732
322.658
322.586
322.516
322.449
322.386
322.327
322.273
322.224
322.181
322.146
322.118
322.963
322.89
322.817
322.745
322.675
322.606
322.54
322.476
322.416
322.359
322.306
322.257
322.214
322.177
322.149
322.965
322.895
322.826
322.758
322.691
322.625
322.562
322.501
322.443
322.387
322.335
322.287
322.243
322.202
322.165
322.967
322.9
322.834
322.769
322.705
322.643
322.582
322.523
322.467
322.414
322.363
322.315
322.269
322.224
322.178
322.968
322.905
322.842
322.78
322.719
322.659
322.601
322.545
322.49
322.438
322.388
322.34
322.294
322.248
322.203
322.97
322.909
322.849
322.79
322.731
322.674
322.618
322.564
322.512
322.461
322.412
322.365
322.318
322.271
322.22
322.971
322.913
322.856
322.799
322.743
322.688
322.635
322.583
322.532
322.483
322.435
322.389
322.343
322.296
322.25
322.972
322.917
322.862
322.808
322.754
322.701
322.65
322.6
322.551
322.504
322.458
322.413
322.368
322.321
322.27
322.973
322.92
322.868
322.816
322.764
322.714
322.665
322.616
322.57
322.524
322.48
322.436
322.393
322.35
322.306
322.975
322.924
322.873
322.823
322.774
322.726
322.678
322.632
322.587
322.543
322.501
322.46
322.42
322.379
322.333
322.976
322.927
322.878
322.83
322.783
322.737
322.691
322.647
322.603
322.561
322.521
322.483
322.446
322.413
322.388
322.977
322.93
322.883
322.837
322.792
322.747
322.703
322.66
322.619
322.579
322.54
322.504
322.47
322.44
322.413
322.977
322.932
322.888
322.843
322.8
322.756
322.714
322.673
322.633
322.595
322.558
322.523
322.492
322.464
322.443
322.978
322.935
322.892
322.849
322.807
322.765
322.725
322.685
322.647
322.61
322.574
322.541
322.51
322.483
322.459
322.979
322.937
322.896
322.855
322.814
322.774
322.735
322.696
322.659
322.623
322.589
322.557
322.527
322.5
322.478
322.98
322.94
322.899
322.86
322.82
322.782
322.744
322.707
322.671
322.636
322.603
322.571
322.541
322.514
322.489
322.981
322.942
322.903
322.864
322.827
322.789
322.752
322.716
322.681
322.648
322.615
322.583
322.554
322.526
322.502
322.981
322.944
322.906
322.869
322.832
322.796
322.76
322.726
322.691
322.658
322.626
322.595
322.565
322.536
322.508
322.982
322.945
322.909
322.873
322.838
322.802
322.768
322.734
322.701
322.668
322.637
322.606
322.575
322.545
322.514
322.982
322.947
322.912
322.877
322.843
322.809
322.775
322.742
322.71
322.678
322.647
322.616
322.586
322.555
322.525
322.983
322.949
322.915
322.881
322.847
322.814
322.782
322.75
322.718
322.687
322.656
322.626
322.596
322.565
322.533
322.983
322.95
322.917
322.884
322.852
322.82
322.788
322.757
322.726
322.696
322.666
322.636
322.607
322.577
322.546
322.984
322.952
322.919
322.888
322.856
322.825
322.794
322.764
322.734
322.704
322.675
322.647
322.618
322.588
322.556
322.984
322.953
322.922
322.891
322.86
322.829
322.799
322.77
322.741
322.713
322.684
322.657
322.629
322.601
322.573
322.985
322.954
322.924
322.893
322.863
322.834
322.805
322.776
322.748
322.72
322.693
322.667
322.641
322.615
322.586
322.985
322.955
322.926
322.896
322.867
322.838
322.81
322.782
322.755
322.728
322.702
322.677
322.653
322.63
322.612
322.985
322.956
322.927
322.898
322.87
322.842
322.814
322.787
322.761
322.735
322.71
322.686
322.664
322.643
322.624
322.986
322.957
322.929
322.901
322.873
322.845
322.819
322.792
322.766
322.742
322.717
322.695
322.673
322.654
322.638
322.986
322.958
322.93
322.903
322.875
322.849
322.822
322.797
322.772
322.747
322.724
322.702
322.681
322.662
322.645
322.986
322.959
322.932
322.904
322.878
322.851
322.826
322.801
322.776
322.752
322.73
322.708
322.688
322.67
322.654
322.986
322.959
322.933
322.906
322.88
322.854
322.829
322.804
322.78
322.757
322.735
322.714
322.694
322.676
322.659
322.987
322.96
322.934
322.907
322.881
322.856
322.831
322.807
322.783
322.761
322.739
322.718
322.699
322.681
322.664
322.987
322.96
322.934
322.908
322.883
322.858
322.833
322.809
322.786
322.764
322.742
322.722
322.703
322.684
322.667
322.987
322.961
322.935
322.909
322.884
322.859
322.835
322.811
322.788
322.766
322.745
322.725
322.706
322.687
322.669
322.987
322.961
322.935
322.91
322.885
322.86
322.836
322.813
322.79
322.768
322.747
322.727
322.708
322.69
322.672
322.987
322.961
322.935
322.91
322.885
322.861
322.837
322.813
322.791
322.769
322.749
322.729
322.71
322.692
322.674
322.987
322.961
322.936
322.91
322.885
322.861
322.837
322.814
322.792
322.77
322.75
322.73
322.712
322.694
322.678
322.987
322.961
322.935
322.91
322.885
322.86
322.837
322.814
322.791
322.77
322.75
322.731
322.712
322.695
322.679
322.987
322.961
322.935
322.909
322.884
322.86
322.836
322.813
322.791
322.769
322.749
322.73
322.712
322.696
322.681
322.987
322.96
322.934
322.908
322.883
322.858
322.834
322.811
322.789
322.768
322.748
322.729
322.711
322.695
322.681
322.987
322.96
322.933
322.907
322.882
322.857
322.832
322.809
322.787
322.766
322.746
322.727
322.71
322.693
322.679
322.986
322.959
322.932
322.906
322.88
322.854
322.83
322.806
322.784
322.763
322.743
322.724
322.707
322.691
322.677
322.986
322.958
322.931
322.904
322.877
322.851
322.826
322.803
322.78
322.759
322.739
322.72
322.703
322.687
322.672
322.986
322.957
322.929
322.901
322.874
322.848
322.822
322.798
322.775
322.754
322.734
322.715
322.698
322.683
322.669
322.985
322.956
322.927
322.898
322.871
322.844
322.818
322.793
322.77
322.748
322.728
322.71
322.693
322.677
322.663
322.985
322.954
322.925
322.895
322.866
322.839
322.812
322.787
322.763
322.741
322.721
322.703
322.686
322.671
322.658
322.984
322.953
322.922
322.891
322.861
322.833
322.805
322.779
322.755
322.733
322.712
322.694
322.678
322.664
322.651
322.984
322.951
322.919
322.887
322.856
322.826
322.798
322.771
322.746
322.723
322.702
322.684
322.669
322.657
322.647
322.983
322.949
322.915
322.882
322.85
322.819
322.789
322.761
322.735
322.712
322.691
322.673
322.658
322.647
322.641
322.982
322.946
322.911
322.876
322.842
322.81
322.779
322.75
322.723
322.698
322.677
322.659
322.644
322.634
322.628
322.981
322.944
322.906
322.87
322.834
322.8
322.768
322.737
322.709
322.683
322.661
322.642
322.628
322.619
322.617
322.98
322.941
322.901
322.863
322.826
322.79
322.755
322.723
322.693
322.666
322.642
322.622
322.607
322.598
322.595
322.979
322.937
322.896
322.855
322.816
322.778
322.741
322.707
322.675
322.646
322.621
322.599
322.583
322.573
322.575
322.978
322.934
322.89
322.847
322.805
322.765
322.726
322.689
322.655
322.624
322.596
322.572
322.553
322.541
322.536
322.976
322.929
322.883
322.837
322.793
322.75
322.709
322.67
322.634
322.6
322.569
322.542
322.519
322.503
322.501
322.975
322.925
322.876
322.827
322.78
322.735
322.691
322.649
322.61
322.574
322.54
322.509
322.481
322.454
322.42
322.973
322.92
322.868
322.816
322.766
322.718
322.671
322.626
322.585
322.545
322.508
322.474
322.442
322.41
322.379
322.972
322.915
322.859
322.805
322.751
322.699
322.65
322.602
322.557
322.515
322.475
322.438
322.402
322.365
322.322
322.97
322.91
322.85
322.792
322.735
322.68
322.627
322.576
322.528
322.483
322.441
322.401
322.362
322.324
322.289
322.968
322.904
322.84
322.778
322.717
322.658
322.602
322.548
322.497
322.449
322.404
322.362
322.322
322.282
322.238
322.966
322.897
322.83
322.763
322.698
322.635
322.575
322.518
322.464
322.413
322.366
322.323
322.282
322.243
322.207
322.963
322.89
322.818
322.747
322.678
322.611
322.547
322.485
322.428
322.375
322.326
322.281
322.24
322.202
322.16
322.961
322.883
322.806
322.73
322.656
322.584
322.516
322.45
322.39
322.333
322.283
322.237
322.197
322.163
322.134
322.958
322.875
322.793
322.712
322.632
322.556
322.482
322.413
322.348
322.288
322.235
322.189
322.15
322.119
322.102
322.955
322.867
322.779
322.692
322.607
322.525
322.446
322.371
322.302
322.239
322.183
322.136
322.098
322.065
322.026
322.952
322.858
322.764
322.671
322.58
322.492
322.407
322.327
322.252
322.184
322.126
322.078
322.041
322.016
321.994
322.949
322.848
322.748
322.649
322.551
322.456
322.365
322.278
322.197
322.123
322.06
322.011
321.978
321.964
321.969
322.946
322.838
322.731
322.625
322.521
322.419
322.32
322.225
322.136
322.055
321.986
321.932
321.9
321.9
321.94
322.943
322.828
322.714
322.6
322.488
322.379
322.271
322.168
322.07
321.98
321.9
321.838
321.801
321.808
321.887
322.939
322.817
322.696
322.575
322.455
322.337
322.221
322.107
321.999
321.896
321.803
321.725
321.672
321.666
321.767
289.146
288.082
287.381
286.849
286.402
286.006
285.641
285.297
284.968
284.651
284.341
284.037
283.738
283.442
283.147
288.77
287.74
287.119
286.645
286.239
285.871
285.529
285.204
284.892
284.588
284.291
284
283.712
283.426
283.142
287.288
287.113
286.756
286.393
286.048
285.72
285.406
285.103
284.809
284.521
284.238
283.959
283.683
283.409
283.136
286.704
286.612
286.397
286.129
285.845
285.558
285.275
284.996
284.721
284.45
284.182
283.917
283.654
283.392
283.13
286.153
286.196
286.074
285.876
285.643
285.395
285.141
284.886
284.631
284.377
284.124
283.873
283.623
283.373
283.124
285.903
285.897
285.804
285.647
285.452
285.236
285.009
284.776
284.54
284.303
284.066
283.829
283.592
283.355
283.118
285.643
285.657
285.578
285.445
285.276
285.085
284.88
284.667
284.45
284.229
284.007
283.784
283.56
283.336
283.112
285.527
285.48
285.391
285.267
285.114
284.942
284.757
284.562
284.362
284.157
283.949
283.74
283.529
283.318
283.106
285.434
285.333
285.23
285.108
284.967
284.81
284.64
284.462
284.276
284.086
283.893
283.696
283.498
283.3
283.1
285.275
285.186
285.081
284.962
284.83
284.686
284.53
284.366
284.194
284.018
283.838
283.654
283.469
283.282
283.094
285.171
285.051
284.941
284.827
284.703
284.569
284.426
284.274
284.116
283.953
283.785
283.613
283.44
283.264
283.088
285
284.908
284.805
284.697
284.582
284.459
284.327
284.188
284.042
283.89
283.734
283.574
283.412
283.248
283.083
284.89
284.772
284.672
284.573
284.467
284.355
284.234
284.106
283.971
283.831
283.686
283.537
283.385
283.232
283.077
284.702
284.623
284.539
284.452
284.358
284.256
284.146
284.029
283.905
283.775
283.64
283.502
283.36
283.217
283.072
284.567
284.477
284.409
284.336
284.254
284.163
284.064
283.956
283.842
283.722
283.597
283.468
283.336
283.203
283.068
284.302
284.316
284.281
284.226
284.157
284.076
283.986
283.888
283.783
283.672
283.557
283.437
283.314
283.189
283.063
284.184
284.189
284.168
284.125
284.067
283.996
283.915
283.826
283.729
283.626
283.519
283.407
283.293
283.177
283.059
284.054
284.081
284.07
284.036
283.986
283.923
283.849
283.768
283.679
283.584
283.484
283.38
283.274
283.165
283.055
283.99
283.998
283.987
283.958
283.913
283.857
283.79
283.715
283.632
283.544
283.452
283.355
283.256
283.154
283.052
283.913
283.927
283.917
283.89
283.85
283.798
283.736
283.666
283.59
283.508
283.422
283.332
283.239
283.144
283.048
283.874
283.873
283.86
283.833
283.794
283.745
283.688
283.623
283.552
283.475
283.395
283.31
283.224
283.135
283.045
283.829
283.828
283.811
283.783
283.745
283.699
283.645
283.584
283.517
283.445
283.37
283.291
283.21
283.127
283.042
283.808
283.793
283.77
283.74
283.703
283.658
283.606
283.548
283.486
283.418
283.347
283.273
283.197
283.119
283.04
283.79
283.763
283.735
283.703
283.665
283.621
283.572
283.517
283.457
283.394
283.327
283.257
283.185
283.112
283.037
283.76
283.733
283.703
283.669
283.631
283.588
283.541
283.489
283.432
283.372
283.309
283.243
283.175
283.106
283.035
283.74
283.706
283.674
283.639
283.601
283.559
283.513
283.463
283.409
283.352
283.292
283.23
283.165
283.1
283.033
283.707
283.678
283.646
283.611
283.574
283.533
283.488
283.44
283.389
283.334
283.277
283.218
283.157
283.095
283.032
283.687
283.652
283.619
283.585
283.549
283.509
283.466
283.42
283.37
283.318
283.264
283.207
283.149
283.09
283.03
283.653
283.624
283.594
283.561
283.526
283.487
283.446
283.401
283.354
283.304
283.252
283.198
283.143
283.086
283.029
283.629
283.598
283.57
283.539
283.505
283.468
283.428
283.385
283.339
283.291
283.241
283.19
283.136
283.082
283.027
283.586
283.571
283.547
283.518
283.486
283.45
283.412
283.37
283.326
283.28
283.232
283.182
283.131
283.079
283.026
283.567
283.55
283.528
283.5
283.469
283.435
283.398
283.357
283.315
283.27
283.224
283.176
283.126
283.076
283.025
283.548
283.533
283.512
283.485
283.455
283.422
283.385
283.346
283.305
283.262
283.217
283.17
283.122
283.074
283.025
283.539
283.521
283.499
283.473
283.443
283.41
283.375
283.337
283.297
283.254
283.21
283.165
283.119
283.072
283.024
283.53
283.512
283.489
283.463
283.434
283.401
283.366
283.329
283.289
283.248
283.205
283.161
283.116
283.07
283.023
283.526
283.505
283.482
283.455
283.426
283.394
283.359
283.322
283.283
283.243
283.201
283.157
283.113
283.068
283.023
283.522
283.501
283.477
283.45
283.42
283.388
283.354
283.317