/*--------------------------------*- C++ -*----------------------------------*\
| =========                 |                                                 |
| \\      /  F ield         | OpenFOAM: The Open Source CFD Toolbox           |
|  \\    /   O peration     | Version:  5.x                                   |
|   \\  /    A nd           | Web:      www.OpenFOAM.org                      |
|    \\/     M anipulation  |                                                 |
\*---------------------------------------------------------------------------*/
FoamFile
{
    version     2.0;
    format      ascii;
    class       volScalarField;
    location    "3";
    object      gradTx;
}
// * * * * * * * * * * * * * * * * * * * * * * * * * * * * * * * * * * * * * //

dimensions      [0 -1 0 1 0 0 0];

internalField   nonuniform List<scalar> 
3200
(
45.2812
3.70307
1.64348
1.53512
0.811053
0.767536
0.46341
0.443996
0.291043
0.279991
0.168924
0.164803
0.178517
0.178659
0.171069
0.170242
0.157719
0.156626
0.14282
0.141664
0.127697
0.126553
0.113032
0.111958
0.09964
0.0987682
0.0897379
0.0897384
0.0947006
0.164119
0.0821885
0.0550461
0.0532242
0.0415079
0.0406833
0.0331131
0.0325571
0.0268795
0.0264538
0.0219482
0.0216064
0.0179274
0.0176446
0.0145534
0.0143102
0.0115828
0.0113579
0.00870778
0.00846832
0.00531449
0.0051828
0.00519175
0.00514315
0.00404623
0.00392938
0.00222004
0.00204908
-0.000331113
-0.000574754
-0.00400852
-0.00437677
-0.00970877
-0.0103183
-0.0194312
-0.0205804
-0.0384294
-0.0410965
-0.0841744
-0.0930733
-0.238493
-0.616334
-0.435403
-0.680158
-0.711462
-1.26587
-1.24031
-0.0556924
-0.00751548
-0.00152264
-52.9609
47.9582
3.09777
1.57243
1.35001
0.770499
0.677595
0.43332
0.39181
0.269272
0.245793
0.158565
0.149767
0.159053
0.159247
0.153346
0.151604
0.141726
0.139412
0.128486
0.126036
0.114975
0.112549
0.101844
0.0995698
0.0898405
0.0880092
0.0810514
0.0812155
0.0880148
0.136837
0.076309
0.051419
0.0473619
0.0378561
0.0360879
0.0300531
0.0288706
0.0243613
0.0234574
0.0198824
0.0191569
0.0162384
0.0156384
0.0131859
0.0126698
0.0105049
0.0100274
0.00792218
0.00741681
0.00495588
0.00467607
0.00463757
0.00453138
0.00366549
0.00341787
0.00206245
0.00169946
-0.000191618
-0.000709469
-0.00344141
-0.004225
-0.008475
-0.00977451
-0.0170639
-0.0195249
-0.0339179
-0.0396952
-0.0751835
-0.0950524
-0.226846
-0.516908
-0.414075
-0.600776
-0.665228
-1.08301
-1.02948
-0.12162
-0.0208591
-0.00437837
-54.7554
50.6184
2.57019
1.44926
1.17919
0.710481
0.593709
0.395121
0.342866
0.24354
0.214145
0.14507
0.134008
0.139953
0.140079
0.135458
0.133292
0.12543
0.122543
0.113813
0.110752
0.101908
0.0988763
0.0903192
0.0874798
0.0797252
0.0774554
0.0720801
0.0724274
0.0796481
0.11393
0.0690043
0.0469588
0.0417178
0.033895
0.0316633
0.026799
0.0253171
0.0216989
0.020568
0.0177027
0.0167953
0.0144568
0.0137063
0.0117409
0.0110954
0.00935938
0.00876186
0.00707256
0.00644349
0.00451001
0.00415968
0.0040861
0.00395002
0.00326006
0.00295071
0.00186523
0.00141104
-0.00010697
-0.000755535
-0.00295214
-0.00393448
-0.00735915
-0.00899105
-0.0148896
-0.0179919
-0.0297508
-0.0371055
-0.0668173
-0.0925544
-0.208867
-0.433199
-0.381166
-0.526285
-0.60486
-0.919011
-0.852838
-0.155263
-0.0308315
-0.00671888
-56.5499
53.258
2.10804
1.29206
1.01631
0.636387
0.513097
0.351069
0.295805
0.215011
0.184086
0.129254
0.11757
0.121086
0.121101
0.117472
0.115208
0.108935
0.105907
0.0989131
0.0956995
0.0886077
0.085425
0.0785656
0.0755866
0.0693906
0.0670259
0.06288
0.0633645
0.0701993
0.0941912
0.0607845
0.0418265
0.036177
0.0297104
0.0273442
0.0234098
0.0218492
0.0189371
0.0177479
0.0154447
0.0144909
0.0126116
0.0118228
0.0102431
0.00956448
0.00816834
0.00754002
0.00618051
0.00552234
0.00400081
0.00363222
0.00353714
0.00339083
0.00283944
0.00251464
0.00164281
0.00116524
-5.70227e-05
-0.000739594
-0.00251136
-0.00354617
-0.00631492
-0.00803683
-0.012827
-0.0161127
-0.0257599
-0.0336214
-0.05861
-0.0864334
-0.186568
-0.360544
-0.340371
-0.454455
-0.535069
-0.770221
-0.701447
-0.16598
-0.0367912
-0.00831542
-58.344
55.8763
1.69991
1.11325
0.857598
0.552029
0.434036
0.302747
0.249766
0.184488
0.154983
0.111713
0.100524
0.102359
0.10227
0.0994317
0.0972845
0.092311
0.089431
0.0838624
0.0808026
0.0751516
0.0721208
0.0666569
0.0638222
0.0589028
0.0566677
0.0534949
0.0540477
0.0600643
0.0767485
0.051987
0.0361621
0.0306691
0.025362
0.0230879
0.0199257
0.0184355
0.0161065
0.0149725
0.0131327
0.0122235
0.0107228
0.00997089
0.00870925
0.00806229
0.00694656
0.00634739
0.00526039
0.00463571
0.00344549
0.00309382
0.00299024
0.00284787
0.00240979
0.00210049
0.00140467
0.000949288
-2.85932e-05
-0.000680011
-0.00209997
-0.00308842
-0.00531248
-0.0069598
-0.0108246
-0.0139789
-0.0218403
-0.0294521
-0.0502894
-0.0774198
-0.161316
-0.295655
-0.294205
-0.383965
-0.459097
-0.633588
-0.568724
-0.160447
-0.0387223
-0.00904525
-60.138
58.4744
1.33536
0.921204
0.700886
0.460169
0.355507
0.251294
0.20422
0.152535
0.126431
0.0928897
0.0829573
0.08371
0.0835482
0.0813639
0.0794744
0.0756034
0.0730623
0.0687115
0.0660094
0.0615909
0.0589141
0.0546432
0.0521412
0.0483078
0.0463472
0.0439608
0.0445125
0.0495028
0.0609639
0.0428322
0.0300845
0.0251538
0.0208922
0.0188672
0.0163748
0.0150553
0.0132281
0.0122253
0.0107835
0.00997976
0.00880404
0.00813937
0.0071508
0.00657882
0.0057041
0.00517426
0.00432176
0.00377168
0.00285662
0.0025455
0.0024449
0.00231674
0.00197501
0.00170183
0.00115696
0.000754286
-1.3163e-05
-0.000589623
-0.00170577
-0.00258117
-0.00433305
-0.00579399
-0.00885051
-0.0116568
-0.0179306
-0.0247538
-0.041717
-0.0661357
-0.134046
-0.236198
-0.244391
-0.314059
-0.37915
-0.506529
-0.449737
-0.143451
-0.0369716
-0.00888352
-61.9316
61.0549
1.00497
0.721404
0.544991
0.362867
0.27696
0.197556
0.158858
0.119559
0.0981768
0.0731219
0.0649634
0.0650976
0.064908
0.0632846
0.0617439
0.0588427
0.0567661
0.0534948
0.051285
0.0479605
0.0457713
0.0425587
0.0405136
0.0376379
0.0360437
0.0343092
0.0347999
0.0386826
0.0463632
0.0334621
0.0236943
0.0196119
0.0163331
0.0146652
0.0127771
0.0116955
0.0103167
0.00949569
0.00840884
0.00775094
0.00686484
0.00632081
0.00557568
0.00510745
0.00444783
0.00401403
0.00337102
0.00292225
0.00224359
0.00198876
0.00190066
0.00179418
0.00153751
0.00131407
0.000903598
0.000573918
-5.32343e-06
-0.000477594
-0.00132115
-0.00203881
-0.00336519
-0.00456431
-0.00688638
-0.00919593
-0.013999
-0.0196499
-0.0328463
-0.0531119
-0.105406
-0.180499
-0.192118
-0.244337
-0.296712
-0.386837
-0.340731
-0.118463
-0.0320851
-0.00788785
-63.7249
63.6211
0.700178
0.517319
0.389325
0.261717
0.198154
0.14219
0.113521
0.0858665
0.07007
0.0526784
0.0466381
0.0464983
0.0463253
0.0452022
0.0440679
0.0420491
0.0405179
0.0382358
0.0366053
0.0342849
0.0326694
0.0304276
0.0289192
0.0269168
0.0257459
0.0245687
0.0249516
0.0277106
0.0325858
0.0239668
0.0170768
0.0140379
0.0117097
0.0104721
0.00914709
0.00834765
0.00738309
0.00677675
0.00601702
0.00553126
0.00491197
0.00451028
0.00398947
0.00364373
0.00318251
0.00286215
0.0024125
0.00208201
0.0016136
0.00142535
0.00135717
0.00127763
0.0010987
0.000933817
0.000647032
0.000403565
-1.72468e-06
-0.000350672
-0.000941515
-0.00147206
-0.00240237
-0.00328967
-0.00492271
-0.00663528
-0.0100334
-0.0142441
-0.0236928
-0.0388069
-0.0758536
-0.127339
-0.138222
-0.174609
-0.212764
-0.272595
-0.23877
-0.0880399
-0.0247115
-0.00618092
-65.518
66.1769
0.413149
0.31104
0.233643
0.158006
0.119044
0.0857323
0.0681438
0.0516999
0.0420271
0.0317811
0.0280768
0.0279005
0.0277808
0.0271204
0.0264275
0.0252362
0.0242997
0.0229508
0.0219532
0.0205811
0.0195927
0.0182673
0.0173446
0.0161625
0.0154484
0.0147659
0.0150083
0.016654
0.0193483
0.0144025
0.0103054
0.00843549
0.00704264
0.00628259
0.00549613
0.00500643
0.00443516
0.00406397
0.00361426
0.00331692
0.00295038
0.00270452
0.00239625
0.00218461
0.00191155
0.00171543
0.00144921
0.00124727
0.000972408
0.000857137
0.000814141
0.000765069
0.00065934
0.000558454
0.000388755
0.00023971
-3.52327e-07
-0.000214045
-0.000564264
-0.000889285
-0.00144124
-0.00198517
-0.00295583
-0.00400718
-0.00603521
-0.00862884
-0.0143127
-0.0236247
-0.0457241
-0.0758039
-0.0833048
-0.104809
-0.12795
-0.162098
-0.141487
-0.0541203
-0.0155459
-0.00393354
-67.3109
68.7264
0.136567
0.103772
0.0778919
0.0528279
0.0397088
0.0286459
0.0227208
0.0172627
0.0140073
0.0106222
0.00937458
0.00930059
0.0092579
0.00903992
0.008807
0.00841311
0.00809815
0.00765173
0.00731615
0.00686198
0.00652948
0.00609079
0.00578047
0.00538952
0.00514969
0.00492604
0.00500895
0.00555552
0.00641645
0.00480419
0.00344483
0.00281405
0.00235031
0.00209413
0.00183332
0.00166848
0.00147924
0.00135433
0.0012054
0.00110536
0.000983977
0.000901248
0.000799162
0.000727948
0.000637511
0.000571516
0.00048334
0.000415455
0.000324827
0.000286034
0.000271355
0.000254777
0.000219793
0.000185853
0.000129664
7.95097e-05
-1.82142e-08
-7.19393e-05
-0.000188002
-0.000297412
-0.000480419
-0.000663579
-0.000985709
-0.00134
-0.00201442
-0.00288991
-0.00478753
-0.0079309
-0.0152754
-0.0251714
-0.0278277
-0.0349449
-0.0426945
-0.0537926
-0.0468728
-0.0182491
-0.00530191
-0.0013493
-69.1036
68.7295
0.150438
0.128102
0.10723
0.0850418
0.0725547
0.0606071
0.0532075
0.0447503
0.038633
0.0308822
0.0280655
0.0281581
0.028042
0.0271918
0.0262835
0.0247562
0.0235622
0.0219101
0.0207116
0.0191497
0.0180507
0.0166599
0.0157111
0.0145612
0.0138779
0.0132722
0.0135388
0.0151403
0.0176302
0.0133417
0.00975616
0.00810709
0.00691348
0.00625574
0.00558485
0.00515667
0.00465835
0.00432441
0.00391905
0.00364223
0.00330018
0.00306333
0.00276597
0.00255518
0.00228269
0.00207935
0.001801
0.00157977
0.00127925
0.0011716
0.00118114
0.00117802
0.00114216
0.00110292
0.00103618
0.000983548
0.000910049
0.000855768
0.000783332
0.000729106
0.000654418
0.000591132
0.000490379
0.000376875
0.00014951
-0.000199363
-0.00103263
-0.00260472
-0.00647406
-0.0121529
-0.0154238
-0.0224341
-0.0299072
-0.0409068
-0.0364465
-0.0142423
-0.00414241
-0.00105437
-69.8059
66.186
0.454671
0.384247
0.321742
0.254737
0.217643
0.181639
0.159665
0.134157
0.115964
0.0924492
0.0840803
0.0844828
0.0841555
0.0815779
0.0788752
0.0742552
0.070705
0.0657123
0.0621494
0.0574308
0.0541639
0.0499621
0.0471413
0.0436651
0.0416305
0.0397818
0.0405632
0.0453854
0.0531618
0.039997
0.0291911
0.0243031
0.0207191
0.0187678
0.0167449
0.0154729
0.0139685
0.0129761
0.011752
0.0109294
0.00989637
0.00919246
0.00829448
0.00766805
0.00684533
0.00624108
0.00540075
0.00474252
0.00383007
0.00351015
0.00354394
0.00353538
0.00342664
0.0033099
0.00310801
0.00295151
0.0027294
0.00256806
0.00234929
0.00218816
0.00196282
0.00177492
0.00147167
0.0011352
0.00045341
-0.000578691
-0.0030683
-0.00772223
-0.0193498
-0.036555
-0.0461216
-0.0672836
-0.0895805
-0.123339
-0.110049
-0.0422427
-0.0121467
-0.00307379
-69.4176
63.6351
0.76906
0.640076
0.536435
0.423237
0.362687
0.302111
0.266263
0.223272
0.193509
0.15341
0.139744
0.140837
0.140359
0.135969
0.131544
0.123712
0.117906
0.109457
0.103634
0.0956539
0.0903146
0.0832091
0.0785978
0.0727114
0.0693759
0.0661864
0.067426
0.0755126
0.0895313
0.0665583
0.0483896
0.0404472
0.0344595
0.0312829
0.0278751
0.0257986
0.0232584
0.0216373
0.0195691
0.0182251
0.0164795
0.0153295
0.0138123
0.0127889
0.0113994
0.0104124
0.00899333
0.00791554
0.00635726
0.00583463
0.00590852
0.00589684
0.00571153
0.00552037
0.0051781
0.00492217
0.00454641
0.00428272
0.00391302
0.00364985
0.0032698
0.00296338
0.00245435
0.00190741
0.000771387
-0.000899655
-0.00501734
-0.0125607
-0.0320022
-0.0612625
-0.0763556
-0.112088
-0.148795
-0.207652
-0.185832
-0.0687346
-0.0193101
-0.00483008
-69.0292
61.0722
1.10066
0.894892
0.75151
0.58963
0.507733
0.421593
0.373148
0.311858
0.271467
0.213315
0.194818
0.197254
0.196719
0.190362
0.184349
0.173087
0.165212
0.153098
0.145204
0.133772
0.126536
0.116357
0.110106
0.101656
0.0971157
0.0924141
0.0940154
0.105403
0.127381
0.0929279
0.0671794
0.0565134
0.0480878
0.0438076
0.0389523
0.0361431
0.0325118
0.0303166
0.0273576
0.0255371
0.0230392
0.0214814
0.0193105
0.0179246
0.0159375
0.0146011
0.0125724
0.0111079
0.00884318
0.00813538
0.00827666
0.00826539
0.0079968
0.00773703
0.00724489
0.00689777
0.00635907
0.00600176
0.00547262
0.00511635
0.00457395
0.00416007
0.00343867
0.00270329
0.00111088
-0.00112264
-0.00682923
-0.0169231
-0.0442618
-0.0865365
-0.105764
-0.156852
-0.207124
-0.295193
-0.265427
-0.0925194
-0.0250757
-0.0061642
-68.6407
58.4928
1.45692
1.14721
0.967326
0.752825
0.652949
0.539568
0.480547
0.399608
0.350135
0.271633
0.249055
0.25379
0.253313
0.244741
0.237364
0.222328
0.212689
0.19657
0.186917
0.171722
0.162876
0.149348
0.141702
0.130445
0.124862
0.11839
0.120214
0.13487
0.167489
0.11895
0.0853664
0.0724905
0.0615508
0.0563557
0.0499481
0.0465209
0.0417082
0.0390268
0.0351008
0.0328765
0.0295615
0.0276583
0.0247777
0.0230847
0.0204499
0.0188179
0.0161292
0.0143326
0.011267
0.0104024
0.0106511
0.0106444
0.0102819
0.0099632
0.00930608
0.00888124
0.00816468
0.00772786
0.0070255
0.00659048
0.00587314
0.00536923
0.00442371
0.00353361
0.00147617
-0.00120654
-0.00846544
-0.0205956
-0.0559236
-0.112732
-0.133897
-0.201649
-0.26394
-0.387446
-0.350746
-0.112086
-0.0288999
-0.00694263
-68.2519
55.8931
1.84581
1.39434
1.18453
0.911436
0.798705
0.655369
0.588823
0.486099
0.429965
0.327714
0.302199
0.310535
0.31023
0.299073
0.290687
0.271353
0.260425
0.239784
0.228852
0.209419
0.199404
0.182104
0.173443
0.159007
0.152645
0.144035
0.1459
0.16362
0.210844
0.144375
0.102726
0.0883908
0.0747846
0.0689529
0.0608252
0.0569546
0.0508198
0.0477874
0.0427765
0.0402601
0.0360279
0.0338747
0.0301979
0.0282829
0.0249226
0.0230773
0.0196507
0.0176083
0.0136031
0.012625
0.013036
0.013038
0.0125656
0.0122032
0.0113583
0.0108766
0.00995935
0.00946484
0.00856792
0.00807613
0.00716401
0.00659628
0.00540675
0.00441083
0.00186668
-0.00110718
-0.00990658
-0.0233398
-0.0667258
-0.140353
-0.160166
-0.246664
-0.318307
-0.486108
-0.444143
-0.125432
-0.030275
-0.00706939
-67.863
53.2703
2.27591
1.63181
1.40426
1.06363
0.945686
0.768099
0.698546
0.570728
0.511641
0.380727
0.35399
0.367625
0.367583
0.353295
0.344447
0.320042
0.30855
0.28261
0.271127
0.24674
0.236224
0.214515
0.205416
0.187247
0.180519
0.169262
0.170952
0.191191
0.258748
0.168808
0.118994
0.104263
0.0877081
0.0816426
0.0715328
0.0674796
0.059808
0.0566277
0.050353
0.047713
0.0424117
0.0401526
0.0355481
0.0335394
0.0293353
0.0274004
0.0231172
0.0209629
0.0158184
0.0147925
0.0154376
0.0154509
0.0148452
0.0144628
0.0133962
0.0128898
0.0117374
0.0112182
0.0100944
0.00957889
0.00844139
0.00784847
0.00638231
0.00535024
0.00227463
-0.000774537
-0.0111621
-0.0248856
-0.076318
-0.170125
-0.183767
-0.292273
-0.368827
-0.593159
-0.54861
-0.129837
-0.0287718
-0.00649928
-67.4738
50.6228
2.75632
1.85261
1.62852
1.20692
1.09505
0.876508
0.810601
0.652608
0.59619
0.429572
0.404167
0.425264
0.425505
0.407299
0.398831
0.368216
0.357254
0.324858
0.313919
0.283506
0.273492
0.246422
0.237753
0.21503
0.208574
0.193971
0.195263
0.21687
0.312954
0.191637
0.133859
0.120208
0.100213
0.0944949
0.0819988
0.0781501
0.0686173
0.0655926
0.0577848
0.0552729
0.0486744
0.0465249
0.0407951
0.0388844
0.0336577
0.031818
0.0264991
0.0244376
0.0178694
0.0168934
0.0178649
0.0178889
0.0171162
0.0167502
0.0154122
0.0149292
0.0134906
0.0129962
0.011597
0.0111069
0.00969732
0.0091359
0.00734081
0.0063717
0.00268183
-0.000148057
-0.0122838
-0.0249227
-0.0842146
-0.203104
-0.203573
-0.339159
-0.413435
-0.710964
-0.668044
-0.121533
-0.024117
-0.00525159
-67.0844
47.9517
3.29651
2.04623
1.86068
1.33782
1.24869
0.978812
0.926339
0.730426
0.685147
0.47277
0.452484
0.483737
0.484167
0.460915
0.454101
0.415604
0.406817
0.366249
0.357491
0.319458
0.311443
0.277595
0.270652
0.242163
0.236957
0.218046
0.218763
0.239571
0.375857
0.211927
0.146961
0.136409
0.112148
0.107619
0.0921199
0.0890489
0.0771671
0.0747496
0.0650057
0.0629972
0.05476
0.0530413
0.0458901
0.0443627
0.0378453
0.0363753
0.0297512
0.028093
0.0196971
0.0189169
0.0203305
0.0203592
0.0193715
0.0190769
0.0173944
0.0170072
0.0152063
0.0148107
0.0130636
0.012672
0.0109197
0.0104731
0.00826663
0.00750233
0.00305497
0.000851007
-0.0133851
-0.0230932
-0.0897267
-0.240818
-0.217974
-0.388497
-0.449112
-0.842387
-0.807622
-0.0952648
-0.01632
-0.0034222
-66.6948
45.2614
3.90586
2.19727
2.10633
1.45138
1.40955
1.07242
1.04782
0.802218
0.780789
0.508285
0.49874
0.543444
0.543776
0.513874
0.510639
0.461804
0.457651
0.406369
0.402236
0.354209
0.350429
0.307692
0.304415
0.268366
0.265889
0.241336
0.241461
0.257655
0.450771
0.228259
0.157887
0.153159
0.123294
0.121184
0.101745
0.100301
0.0853394
0.0842006
0.071918
0.0709715
0.0605858
0.0597758
0.0507609
0.0500413
0.0418317
0.0411396
0.0328054
0.0320186
0.0212206
0.020853
0.022852
0.0228707
0.0215995
0.0214597
0.0193253
0.0191423
0.0168664
0.0166798
0.0144764
0.014292
0.0120903
0.011881
0.00913517
0.00878069
0.00333876
0.00233175
-0.0146671
-0.0189862
-0.0918599
-0.285489
-0.224639
-0.44223
-0.471482
-0.99093
-0.974302
-0.0436598
-0.00588118
-0.00119002
-66.3052
45.2613
3.90584
2.19726
2.10632
1.45138
1.40956
1.07242
1.04782
0.802221
0.780792
0.508287
0.498742
0.543446
0.543778
0.513877
0.510642
0.461806
0.457653
0.406371
0.402238
0.354212
0.350431
0.307694
0.304417
0.268368
0.265891
0.241339
0.241463
0.257658
0.450778
0.228263
0.157889
0.153162
0.123296
0.121186
0.101747
0.100303
0.0853411
0.0842024
0.0719197
0.0709732
0.0605873
0.0597773
0.0507623
0.0500427
0.0418329
0.0411408
0.0328063
0.0320194
0.0212211
0.0208535
0.0228527
0.0228715
0.0216004
0.0214605
0.0193262
0.0191432
0.0168673
0.0166807
0.0144772
0.0142929
0.0120912
0.0118819
0.00913616
0.0087817
0.00334036
0.00233349
-0.0146629
-0.0189814
-0.0918442
-0.285444
-0.224606
-0.442171
-0.471421
-0.990818
-0.974192
-0.0436548
-0.00588049
-0.0011901
-66.3056
47.9516
3.2965
2.04623
1.86067
1.33783
1.24869
0.978815
0.926342
0.730428
0.68515
0.472772
0.452486
0.483739
0.484169
0.460917
0.454103
0.415606
0.406819
0.366251
0.357493
0.31946
0.311445
0.277597
0.270654
0.242165
0.236959
0.218048
0.218766
0.239574
0.375863
0.21193
0.146963
0.136411
0.11215
0.107621
0.0921219
0.0890507
0.0771689
0.0747513
0.0650073
0.0629988
0.0547615
0.0530427
0.0458915
0.044364
0.0378465
0.0363765
0.0297522
0.0280939
0.0196976
0.0189174
0.0203312
0.0203599
0.0193723
0.0190777
0.0173953
0.0170081
0.0152072
0.0148116
0.0130644
0.0126729
0.0109205
0.0104739
0.00826758
0.00750335
0.00305646
0.000852796
-0.0133813
-0.0230879
-0.0897116
-0.240781
-0.217942
-0.388445
-0.449054
-0.842291
-0.807531
-0.0952538
-0.0163181
-0.0034219
-66.6952
50.6228
2.7563
1.85261
1.62852
1.20692
1.09506
0.87651
0.810603
0.652611
0.596192
0.429574
0.404169
0.425266
0.425507
0.407301
0.398833
0.368217
0.357256
0.32486
0.313921
0.283508
0.273494
0.246424
0.237754
0.215032
0.208576
0.193973
0.195266
0.216873
0.312958
0.191641
0.133862
0.120211
0.100215
0.0944968
0.0820006
0.0781518
0.0686189
0.0655941
0.0577863
0.0552744
0.0486758
0.0465263
0.0407964
0.0388856
0.0336588
0.031819
0.0265
0.0244384
0.0178699
0.0168939
0.0178655
0.0178895
0.017117
0.0167509
0.015413
0.01493
0.0134913
0.0129969
0.0115977
0.0111076
0.00969809
0.00913668
0.00734167
0.00637264
0.00268317
-0.000146335
-0.0122804
-0.0249174
-0.0842006
-0.203072
-0.203544
-0.339114
-0.413382
-0.710883
-0.667969
-0.121519
-0.0241141
-0.00525078
-67.0848
53.2702
2.27589
1.6318
1.40426
1.06363
0.945688
0.768101
0.698548
0.57073
0.511643
0.380728
0.353992
0.367627
0.367584
0.353296
0.344449
0.320044
0.308552
0.282611
0.271129
0.246741
0.236225
0.214516
0.205418
0.187248
0.180521
0.169263
0.170954
0.191193
0.258752
0.168811
0.118996
0.104265
0.0877099
0.0816442
0.0715343
0.0674811
0.0598094
0.0566291
0.0503543
0.0477142
0.0424129
0.0401537
0.0355492
0.0335405
0.0293362
0.0274013
0.023118
0.0209636
0.0158189
0.0147929
0.0154381
0.0154514
0.0148458
0.0144635
0.0133969
0.0128905
0.0117381
0.0112189
0.0100951
0.00957956
0.00844207
0.00784915
0.00638306
0.00535108
0.00227581
-0.000772952
-0.011159
-0.0248806
-0.0763054
-0.170099
-0.183741
-0.292234
-0.36878
-0.593091
-0.548547
-0.129822
-0.0287683
-0.00649803
-67.4741
55.8931
1.84579
1.39434
1.18453
0.911437
0.798706
0.655371
0.588825
0.486101
0.429967
0.327716
0.302201
0.310536
0.310232
0.299074
0.290688
0.271354
0.260426
0.239785
0.228853
0.20942
0.199405
0.182105
0.173444
0.159008
0.152647
0.144036
0.145901
0.163622
0.210847
0.144378
0.102728
0.0883925
0.0747861
0.0689543
0.0608265
0.0569559
0.050821
0.0477885
0.0427776
0.0402612
0.0360289
0.0338757
0.0301988
0.0282838
0.0249235
0.0230781
0.0196514
0.0176089
0.0136036
0.0126254
0.0130365
0.0130385
0.0125661
0.0122037
0.0113588
0.0108772
0.00995993
0.00946542
0.00856849
0.0080767
0.00716458
0.00659686
0.00540739
0.00441156
0.00186769
-0.00110578
-0.00990394
-0.0233352
-0.066715
-0.140331
-0.160143
-0.246632
-0.318267
-0.486052
-0.444092
-0.125418
-0.0302712
-0.00706786
-67.8632
58.4927
1.4569
1.14721
0.967325
0.752826
0.65295
0.53957
0.480548
0.399609
0.350137
0.271634
0.249056
0.253791
0.253314
0.244742
0.237365
0.222329
0.21269
0.196571
0.186918
0.171723
0.162877
0.149349
0.141703
0.130446
0.124864
0.118391
0.120215
0.134872
0.167491
0.118952
0.0853681
0.0724919
0.061552
0.0563568
0.0499491
0.0465219
0.0417091
0.0390278
0.0351017
0.0328774
0.0295623
0.0276591
0.0247785
0.0230854
0.0204506
0.0188185
0.0161298
0.0143331
0.0112674
0.0104027
0.0106514
0.0106448
0.0102824
0.00996364
0.00930654
0.00888171
0.00816514
0.00772833
0.00702596
0.00659094
0.0058736
0.00536971
0.00442423
0.00353421
0.001477
-0.00120536
-0.00846324
-0.0205916
-0.0559146
-0.112715
-0.133878
-0.201623
-0.263907
-0.387402
-0.350706
-0.112072
-0.0288963
-0.00694099
-68.2522
61.0721
1.10064
0.894888
0.751509
0.589631
0.507734
0.421594
0.373149
0.311859
0.271468
0.213315
0.194819
0.197254
0.19672
0.190363
0.18435
0.173088
0.165213
0.153099
0.145205
0.133772
0.126537
0.116358
0.110107
0.101657
0.0971166
0.092415
0.0940163
0.105404
0.127383
0.0929297
0.0671807
0.0565145
0.0480888
0.0438084
0.0389531
0.0361438
0.0325125
0.0303173
0.0273582
0.0255377
0.0230398
0.0214821
0.0193111
0.0179252
0.015938
0.0146016
0.0125729
0.0111083
0.00884348
0.0081356
0.00827691
0.00826568
0.00799712
0.00773737
0.00724524
0.00689813
0.00635943
0.00600211
0.00547298
0.00511671
0.0045743
0.00416044
0.00343907
0.00270375
0.00111152
-0.0011217
-0.00682749
-0.01692
-0.0442547
-0.0865233
-0.105748
-0.156832
-0.207098
-0.295159
-0.265396
-0.0925086
-0.0250725
-0.00616264
-68.6408
63.6351
0.76905
0.640073
0.536434
0.423237
0.362688
0.302112
0.266264
0.223273
0.193509
0.153411
0.139745
0.140837
0.14036
0.13597
0.131544
0.123712
0.117906
0.109458
0.103634
0.0956544
0.0903152
0.0832097
0.0785984
0.072712
0.0693764
0.066187
0.0674266
0.0755134
0.0895326
0.0665596
0.0483905
0.0404479
0.0344602
0.0312835
0.0278756
0.0257991
0.0232589
0.0216378
0.0195696
0.0182255
0.01648
0.0153299
0.0138127
0.0127893
0.0113997
0.0104127
0.00899363
0.00791581
0.00635747
0.00583478
0.00590869
0.00589704
0.00571175
0.0055206
0.00517834
0.00492242
0.00454666
0.00428297
0.00391327
0.0036501
0.00327004
0.00296364
0.00245464
0.00190774
0.000771843
-0.000898982
-0.00501609
-0.0125584
-0.0319972
-0.0612532
-0.0763446
-0.112073
-0.148777
-0.207628
-0.185811
-0.0687265
-0.0193077
-0.00482876
-69.0293
66.1859
0.454664
0.384246
0.321742
0.254738
0.217643
0.18164
0.159665
0.134158
0.115965
0.0924495
0.0840806
0.0844831
0.0841558
0.0815782
0.0788756
0.0742555
0.0707053
0.0657126
0.0621497
0.0574311
0.0541642
0.0499624
0.0471416
0.0436654
0.0416308
0.0397821
0.0405635
0.0453858
0.0531625
0.0399978
0.0291917
0.0243036
0.0207194
0.0187682
0.0167452
0.0154732
0.0139688
0.0129764
0.0117523
0.0109296
0.00989662
0.0091927
0.00829472
0.00766827
0.00684554
0.00624127
0.00540093
0.00474268
0.00383019
0.00351024
0.00354404
0.00353549
0.00342677
0.00331004
0.00310815
0.00295165
0.00272955
0.0025682
0.00234944
0.0021883
0.00196297
0.00177507
0.00147183
0.0011354
0.00045368
-0.000578288
-0.00306756
-0.00772084
-0.0193467
-0.0365495
-0.0461151
-0.0672747
-0.0895695
-0.123324
-0.110037
-0.0422377
-0.0121452
-0.00307289
-69.4177
68.7295
0.150435
0.128101
0.10723
0.0850418
0.0725548
0.0606073
0.0532076
0.0447505
0.0386331
0.0308823
0.0280656
0.0281582
0.0280421
0.0271919
0.0262836
0.0247563
0.0235623
0.0219102
0.0207117
0.0191498
0.0180508
0.01666
0.0157112
0.0145613
0.013878
0.0132723
0.0135389
0.0151404
0.0176304
0.0133419
0.00975635
0.00810723
0.0069136
0.00625585
0.00558495
0.00515677
0.00465845
0.0043245
0.00391913
0.00364232
0.00330026
0.00306341
0.00276604
0.00255525
0.00228275
0.00207941
0.00180106
0.00157982
0.00127929
0.00117163
0.00118116
0.00117805
0.0011422
0.00110297
0.00103623
0.000983593
0.000910095
0.000855814
0.000783378
0.000729151
0.000654464
0.00059118
0.000490432
0.000376938
0.000149598
-0.00019923
-0.00103238
-0.00260425
-0.00647305
-0.0121511
-0.0154216
-0.0224311
-0.0299035
-0.0409021
-0.0364423
-0.0142406
-0.00414188
-0.00105403
-69.8059
68.7259
0.136404
0.103499
0.0775045
0.0522288
0.0388639
0.0273371
0.0209414
0.0148777
0.0124661
0.011797
0.0114438
0.0108909
0.0104556
0.00984848
0.00940886
0.00883653
0.00842645
0.00789438
0.00751164
0.0070129
0.00665508
0.00619143
0.00586658
0.0054609
0.0052126
0.00498084
0.00506099
0.00560893
0.00647536
0.00484678
0.003474
0.00283706
0.00236889
0.00211033
0.00184718
0.00168091
0.00149006
0.00136411
0.00121397
0.00111312
0.000990783
0.000907413
0.000804552
0.000732811
0.000641722
0.000575267
0.000486497
0.000418168
0.000326966
0.00028795
0.000273241
0.000256628
0.00022155
0.000187523
0.000131198
8.09423e-05
1.27763e-06
-7.07413e-05
-0.000186929
-0.000296427
-0.000479545
-0.000662781
-0.000985007
-0.00133936
-0.00201386
-0.0028894
-0.00478707
-0.00793046
-0.0152749
-0.0251709
-0.0278273
-0.0349446
-0.0426942
-0.0537923
-0.0468726
-0.018249
-0.00530188
-0.00134925
-69.1036
66.1757
0.41266
0.31022
0.232485
0.15621
0.116518
0.0818061
0.0628109
0.044487
0.0373286
0.0353785
0.0343394
0.0326681
0.0313737
0.0295388
0.0282319
0.0265031
0.0252843
0.0236772
0.0225396
0.0210331
0.0199695
0.0185688
0.017603
0.0163764
0.0156371
0.01493
0.0151643
0.0168141
0.0195259
0.0145301
0.0103926
0.00850445
0.0070983
0.00633119
0.00553768
0.00504371
0.0044676
0.00409332
0.00363994
0.00334022
0.00297079
0.00272302
0.00241241
0.0021992
0.00192418
0.00172669
0.00145867
0.00125542
0.00097881
0.000862877
0.000819799
0.000770625
0.000664609
0.000563463
0.000393356
0.000244007
3.5318e-06
-0.000210452
-0.000561049
-0.000886331
-0.00143862
-0.00198278
-0.00295373
-0.00400527
-0.00603354
-0.00862732
-0.0143114
-0.0236233
-0.0457227
-0.0758021
-0.0833034
-0.104808
-0.127949
-0.162098
-0.141486
-0.0541201
-0.0155459
-0.00393342
-67.3109
63.619
0.699364
0.515953
0.387407
0.258728
0.193973
0.135647
0.104654
0.0736499
0.061983
0.0589237
0.0572603
0.0544304
0.0523134
0.049208
0.0470719
0.0441494
0.0421576
0.0394413
0.0375823
0.0350355
0.0332974
0.0309287
0.0293499
0.0272725
0.0260604
0.0248416
0.0252109
0.0279768
0.0328848
0.0241792
0.0172212
0.0141526
0.0118022
0.0105531
0.00921622
0.00840981
0.00743708
0.00682569
0.00605977
0.00557011
0.00494593
0.00454114
0.00401637
0.00366807
0.00320353
0.00288093
0.00242825
0.0020956
0.00162423
0.00143489
0.0013666
0.0012869
0.00110748
0.000942171
0.000654694
0.00041073
4.74085e-06
-0.000344682
-0.000936164
-0.00146714
-0.00239801
-0.00328569
-0.00491921
-0.0066321
-0.0100306
-0.0142416
-0.0236906
-0.0388047
-0.0758512
-0.127337
-0.138219
-0.174607
-0.212763
-0.272593
-0.238769
-0.0880395
-0.0247114
-0.00618076
-65.518
61.052
1.00383
0.719493
0.542335
0.35869
0.271172
0.188394
0.146497
0.102039
0.0862931
0.0824131
0.0802281
0.0761643
0.0732929
0.0688387
0.0659435
0.0617585
0.0590601
0.0551711
0.0526526
0.0490057
0.0466506
0.0432571
0.0411167
0.0381339
0.036484
0.0346897
0.0351618
0.0390538
0.0467883
0.0337584
0.0238944
0.019772
0.016462
0.0147786
0.0128736
0.0117826
0.0103921
0.00956427
0.00846856
0.00780539
0.0069123
0.00636405
0.00561327
0.00514157
0.0044772
0.00404037
0.00339303
0.00294132
0.00225836
0.00200206
0.00191387
0.00180717
0.0015498
0.00132578
0.00091431
0.000583956
3.7129e-06
-0.000469201
-0.00131367
-0.00203192
-0.00335909
-0.00455873
-0.00688149
-0.00919147
-0.0139951
-0.0196464
-0.0328431
-0.0531088
-0.105402
-0.180495
-0.192115
-0.244335
-0.29671
-0.386835
-0.340729
-0.118463
-0.032085
-0.00788767
-63.7249
58.4707
1.33391
0.918745
0.697523
0.454807
0.348181
0.239506
0.188444
0.129281
0.110129
0.105835
0.103271
0.0978507
0.0943359
0.0884071
0.0848669
0.0793083
0.0760103
0.0708463
0.0677681
0.0629244
0.0600454
0.0555354
0.0529173
0.0489421
0.0469134
0.0444472
0.0449759
0.0499773
0.0615224
0.0432111
0.0303379
0.0253591
0.0210569
0.019013
0.0164984
0.0151674
0.0133247
0.0123136
0.0108601
0.0100499
0.00886488
0.00819507
0.00719899
0.00662277
0.00574175
0.00520822
0.00434996
0.00379629
0.00287542
0.00256251
0.00246188
0.00233347
0.0019908
0.00171691
0.00117071
0.00076721
-1.5713e-06
-0.000578819
-0.00169618
-0.00257229
-0.00432524
-0.0057868
-0.00884424
-0.0116511
-0.0179257
-0.0247493
-0.0417129
-0.0661317
-0.134041
-0.236193
-0.244387
-0.314056
-0.379147
-0.506527
-0.449735
-0.143451
-0.0369714
-0.00888334
-61.9316
55.8718
1.69816
1.11024
0.853572
0.545481
0.425273
0.288315
0.230714
0.154922
0.133371
0.129188
0.126429
0.119461
0.115476
0.10788
0.103871
0.0967679
0.0930354
0.0864382
0.0829544
0.0767645
0.0735055
0.0677382
0.0647722
0.0596726
0.0573604
0.054085
0.0546113
0.0606392
0.077451
0.0524465
0.0364658
0.0309191
0.0255615
0.0232663
0.020076
0.0185727
0.0162241
0.0150806
0.0132259
0.0123094
0.0107969
0.0100391
0.00876791
0.00811616
0.00699239
0.00638904
0.00529471
0.00466594
0.00346816
0.00311446
0.003011
0.00286836
0.00242906
0.00211895
0.00142143
0.000965117
-1.44688e-05
-0.000666779
-0.00208829
-0.00307754
-0.00530297
-0.00695098
-0.010817
-0.0139719
-0.0218342
-0.0294465
-0.0502844
-0.077415
-0.161311
-0.295648
-0.2942
-0.383961
-0.459093
-0.633585
-0.568722
-0.160446
-0.0387221
-0.00904509
-60.138
53.2528
2.106
1.28849
1.01168
0.628641
0.503036
0.33395
0.273713
0.178394
0.155918
0.152485
0.149756
0.140953
0.13676
0.12721
0.123
0.114093