/*--------------------------------*- C++ -*----------------------------------*\
| =========                 |                                                 |
| \\      /  F ield         | OpenFOAM: The Open Source CFD Toolbox           |
|  \\    /   O peration     | Version:  5.x                                   |
|   \\  /    A nd           | Web:      www.OpenFOAM.org                      |
|    \\/     M anipulation  |                                                 |
\*---------------------------------------------------------------------------*/
FoamFile
{
    version     2.0;
    format      ascii;
    class       volScalarField;
    location    "3";
    object      gradTy;
}
// * * * * * * * * * * * * * * * * * * * * * * * * * * * * * * * * * * * * * //

dimensions      [0 -1 0 1 0 0 0];

internalField   nonuniform List<scalar> 
3200
(
18.2001
8.60939
11.6953
8.2891
9.72107
8.01967
8.76953
7.77571
8.22096
7.58639
7.85898
7.50419
7.71219
7.30684
7.51652
7.13097
7.3278
6.97332
7.15312
6.8325
6.99427
6.70784
6.85176
6.59845
6.72563
6.50275
6.6164
6.41769
6.53217
6.36372
6.22908
6.31589
6.19788
6.25528
6.16354
6.20798
6.13434
6.17009
6.11021
6.13931
6.09038
6.11415
6.07417
6.09353
6.06107
6.07662
6.05079
6.06283
6.04341
6.05174
6.04043
6.0467
6.03488
6.04037
6.03127
6.03494
6.03
6.031
6.03182
6.02901
6.03811
6.02954
6.05139
6.03327
6.07665
6.04049
6.12481
6.04642
6.22155
5.99933
6.29154
7.10533
6.41969
7.94184
6.77741
9.88639
9.11743
8.99983
8.97555
8.97033
16.9633
9.72265
11.299
8.75154
9.51929
8.24868
8.65015
7.90723
8.1445
7.66972
7.81527
7.55045
7.6613
7.35763
7.4684
7.17958
7.28365
7.01813
7.11323
6.87309
6.95867
6.74414
6.82029
6.63058
6.6979
6.531
6.59133
6.44272
6.50478
6.36745
6.25383
6.30153
6.2134
6.244
6.17533
6.1989
6.14376
6.1627
6.11786
6.13327
6.09663
6.10921
6.07928
6.08952
6.06521
6.07345
6.0541
6.06047
6.04592
6.05034
6.0419
6.04523
6.03637
6.03926
6.03244
6.03437
6.03067
6.03118
6.03179
6.03028
6.03707
6.03249
6.04882
6.03912
6.07152
6.05207
6.11492
6.07202
6.2017
6.07462
6.34983
6.99029
6.62102
7.75965
7.15403
9.49395
9.09137
8.9961
8.97479
8.97011
16.0162
10.4832
11.0675
9.08134
9.39901
8.41078
8.57652
7.99952
8.09649
7.72822
7.78796
7.58166
7.62697
7.39183
7.43624
7.21246
7.25426
7.04851
7.08674
6.90064
6.93506
6.7688
6.79944
6.65241
6.67953
6.55016
6.57461
6.45931
6.48535
6.37023
6.27212
6.29261
6.22416
6.23668
6.18343
6.19296
6.15022
6.15786
6.12309
6.12931
6.10091
6.10598
6.08277
6.0869
6.06806
6.07137
6.05638
6.05894
6.04767
6.04946
6.04289
6.04424
6.03739
6.03854
6.03326
6.03403
6.03116
6.03135
6.03183
6.0312
6.03648
6.0346
6.04728
6.04329
6.06847
6.06035
6.10926
6.09072
6.19213
6.13381
6.39351
6.91563
6.76203
7.64724
7.41283
9.2112
9.05302
8.9894
8.97336
8.96971
15.2903
10.999
10.9389
9.31898
9.33097
8.52672
8.5326
8.06486
8.0671
7.7696
7.77129
7.60282
7.60387
7.41485
7.41482
7.23472
7.23479
7.06912
7.06923
6.91937
6.91948
6.78559
6.7857
6.66728
6.66741
6.56317
6.56348
6.47024
6.47158
6.37232
6.28567
6.28724
6.23169
6.23199
6.18902
6.18912
6.15466
6.15471
6.12669
6.12673
6.10384
6.10387
6.08517
6.08519
6.07002
6.07003
6.05795
6.05796
6.04889
6.04892
6.04357
6.04359
6.03809
6.03808
6.03384
6.03383
6.03153
6.03152
6.03193
6.0319
6.03619
6.03613
6.04642
6.04628
6.06675
6.06635
6.1063
6.10461
6.18894
6.18029
6.42669
6.86801
6.8615
7.57961
7.59031
9.00672
9.01088
8.9808
8.97143
8.96917
14.7361
11.3456
10.8727
9.49136
9.29559
8.61027
8.50764
8.1114
8.04971
7.79902
7.76143
7.61719
7.58837
7.43031
7.40061
7.24977
7.22194
7.08311
7.05771
6.93211
6.90926
6.79702
6.77671
6.67741
6.65948
6.572
6.55609
6.4774
6.46183
6.37392
6.29569
6.28416
6.23698
6.22904
6.19289
6.18665
6.15772
6.15268
6.12917
6.12507
6.10586
6.10252
6.08683
6.0841
6.07137
6.06917
6.05904
6.05734
6.04975
6.04859
6.04403
6.04315
6.03857
6.03778
6.03425
6.03372
6.03182
6.03167
6.03204
6.03242
6.03606
6.03724
6.04597
6.04845
6.06586
6.07073
6.105
6.11507
6.18947
6.21656
6.45208
6.83829
6.93198
7.54027
7.71157
8.85873
8.97012
8.97137
8.96922
8.96853
14.3175
11.5756
10.8428
9.61633
9.2798
8.67052
8.49442
8.14456
8.03988
7.81991
7.75585
7.62696
7.57805
7.44065
7.39124
7.25991
7.21354
7.09257
7.05021
6.94073
6.90262
6.80478
6.77088
6.68429
6.65433
6.57796
6.55121
6.48203
6.45497
6.37512
6.30305
6.2825
6.24071
6.22721
6.19556
6.1851
6.15982
6.1514
6.13087
6.12402
6.10725
6.10165
6.08796
6.0834
6.07229
6.06863
6.0598
6.05696
6.05035
6.0484
6.04434
6.04287
6.0389
6.0376
6.03454
6.03367
6.03203
6.03179
6.03215
6.03281
6.03604
6.03805
6.04578
6.05003
6.06547
6.07395
6.10467
6.12296
6.19189
6.2445
6.47144
6.82028
6.98187
7.51841
7.7938
8.75217
8.93376
8.96208
8.96695
8.96787
14.0087
11.7251
10.8327
9.7057
9.27492
8.71344
8.48816
8.16792
8.03467
7.83458
7.75286
7.63352
7.57127
7.44746
7.38515
7.26666
7.20812
7.09889
7.0454
6.94651
6.89838
6.80998
6.76715
6.6889
6.65104
6.58194
6.54804
6.48498
6.45023
6.37602
6.30834
6.2817
6.2433
6.22612
6.19739
6.18414
6.16125
6.1506
6.13203
6.12336
6.10819
6.10112
6.08873
6.08297
6.07293
6.0683
6.06032
6.05674
6.05077
6.04829
6.04456
6.04269
6.03912
6.03749
6.03474
6.03365
6.03219
6.0319
6.03225
6.03309
6.03607
6.03864
6.04572
6.05116
6.06536
6.07627
6.10485
6.12882
6.19497
6.26546
6.48593
6.80975
7.01677
7.50701
7.8487
8.67668
8.90354
8.95373
8.96484
8.96725
13.7911
11.8191
10.832
9.76723
9.27528
8.74293
8.48571
8.18381
8.03213
7.84452
7.75138
7.63781
7.56695
7.45183
7.38132
7.27101
7.20473
7.10297
7.0424
6.95025
6.89574
6.81336
6.76485
6.6919
6.649
6.58452
6.54603
6.4868
6.44707
6.37666
6.312
6.28136
6.24505
6.22548
6.1986
6.18357
6.16219
6.15012
6.13279
6.12296
6.10881
6.10079
6.08924
6.08271
6.07334
6.0681
6.06066
6.05661
6.05105
6.04823
6.0447
6.04257
6.03927
6.03743
6.03487
6.03365
6.0323
6.03198
6.03233
6.0333
6.03611
6.03904
6.04573
6.05194
6.06538
6.07788
6.1052
6.13299
6.19787
6.28042
6.49628
6.8039
7.04034
7.50154
7.88416
8.62523
8.88038
8.94695
8.96307
8.96672
13.6525
11.8736
10.8344
9.80586
9.27727
8.76142
8.48505
8.1937
8.03104
7.85068
7.75073
7.6404
7.56441
7.45441
7.37908
7.2736
7.20277
7.10542
7.04067
6.9525
6.89423
6.81538
6.76353
6.6937
6.64783
6.58606
6.54485
6.48785
6.44514
6.37707
6.31429
6.28126
6.24613
6.22514
6.19933
6.18325
6.16277
6.14985
6.13325
6.12274
6.10919
6.10061
6.08955
6.08257
6.0736
6.06799
6.06087
6.05654
6.05123
6.0482
6.04478
6.04251
6.03935
6.03739
6.03496
6.03365
6.03237
6.03203
6.03238
6.03343
6.03615
6.0393
6.04576
6.05243
6.06544
6.07891
6.10554
6.13568
6.20006
6.29006
6.50296
6.8009
7.05493
7.49922
7.90527
8.59323
8.86476
8.94218
8.96181
8.96634
13.585
11.8986
10.8364
9.8245
9.27876
8.77033
8.48499
8.19844
8.03067
7.85363
7.75049
7.64161
7.56324
7.45561
7.37804
7.27481
7.20187
7.10656
7.03988
6.95355
6.89354
6.81633
6.76293
6.69454
6.6473
6.58678
6.54431
6.48832
6.44422
6.37727
6.3154
6.28124
6.24665
6.22499
6.19968
6.18311
6.16304
6.14973
6.13346
6.12264
6.10937
6.10053
6.08969
6.0825
6.07372
6.06794
6.06097
6.05651
6.05131
6.04819
6.04482
6.04248
6.0394
6.03738
6.035
6.03365
6.03241
6.03206
6.03241
6.03349
6.03617
6.03942
6.04578
6.05267
6.06549
6.0794
6.10573
6.137
6.20124
6.29477
6.50623
6.79965
7.0619
7.49842
7.91512
8.57788
8.85691
8.93972
8.96115
8.96614
-13.6114
-11.8114
-10.5858
-9.2497
-8.44098
-7.55081
-6.98999
-6.33957
-5.92563
-5.44504
-5.15264
-4.82838
-4.59191
-4.26517
-4.03092
-3.72133
-3.50513
-3.22627
-3.0338
-2.78816
-2.61949
-2.40525
-2.25842
-2.07214
-1.94416
-1.78101
-1.66661
-1.51574
-1.3961
-1.21311
-1.04214
-0.946421
-0.847408
-0.78437
-0.709245
-0.659253
-0.597597
-0.556105
-0.504462
-0.469602
-0.426107
-0.396744
-0.360124
-0.335465
-0.304822
-0.284349
-0.259182
-0.242747
-0.223173
-0.211136
-0.197626
-0.187727
-0.174001
-0.16416
-0.151157
-0.142096
-0.130436
-0.12242
-0.112239
-0.105301
-0.0965754
-0.0907149
-0.0834893
-0.0788847
-0.073679
-0.0713243
-0.0706644
-0.0752146
-0.0911691
-0.126849
-0.220288
-0.370389
-0.528015
-0.818977
-1.12545
-1.64021
-1.85793
-1.92263
-1.93938
-1.94327
-13.6834
-11.7885
-10.5903
-9.22864
-8.44426
-7.53766
-6.9936
-6.33014
-5.92832
-5.43753
-5.15394
-4.82489
-4.59555
-4.2615
-4.03396
-3.71761
-3.50766
-3.22284
-3.03594
-2.7851
-2.62133
-2.40258
-2.26002
-2.06983
-1.94558
-1.77908
-1.66809
-1.51451
-1.39865
-1.21265
-1.03915
-0.946567
-0.845982
-0.784867
-0.708252
-0.659731
-0.596801
-0.556521
-0.503801
-0.469957
-0.42555
-0.397043
-0.359653
-0.335712
-0.304422
-0.284544
-0.258838
-0.242879
-0.222877
-0.2112
-0.197487
-0.187885
-0.17385
-0.16429
-0.151003
-0.142203
-0.130293
-0.12251
-0.112112
-0.105375
-0.0964632
-0.0907716
-0.0833863
-0.0789104
-0.0735664
-0.0712577
-0.070457
-0.0747592
-0.0903806
-0.124539
-0.218021
-0.370087
-0.52268
-0.818355
-1.11712
-1.65208
-1.86405
-1.92454
-1.93989
-1.94342
-13.8312
-11.7377
-10.6013
-9.18451
-8.45247
-7.51004
-7.00202
-6.31028
-5.9346
-5.42177
-5.15709
-4.81745
-4.6034
-4.25359
-4.04058
-3.70967
-3.51321
-3.21551
-3.04068
-2.77858
-2.6254
-2.39688
-2.26354
-2.06491
-1.94872
-1.77495
-1.67129
-1.51179
-1.40403
-1.2117
-1.03293
-0.947048
-0.842992
-0.785997
-0.706148
-0.660798
-0.595111
-0.557447
-0.502395
-0.470745
-0.424367
-0.397706
-0.358653
-0.336261
-0.303573
-0.284978
-0.258112
-0.243178
-0.222254
-0.211351
-0.197188
-0.188225
-0.173525
-0.164575
-0.150674
-0.142439
-0.129989
-0.122708
-0.111841
-0.105539
-0.0962245
-0.0908983
-0.0831688
-0.0789725
-0.0733338
-0.0711321
-0.0700465
-0.0738518
-0.0888511
-0.119856
-0.213411
-0.369764
-0.511621
-0.817607
-1.09934
-1.67688
-1.87622
-1.92826
-1.94087
-1.94371
-14.0629
-11.6487
-10.6236
-9.11302
-8.46912
-7.46508
-7.01781
-6.27779
-5.9464
-5.39612
-5.16326
-4.805
-4.61671
-4.24024
-4.05194
-3.69638
-3.52284
-3.2033
-3.04892
-2.76774
-2.63251
-2.3874
-2.2697
-2.0567
-1.95418
-1.76804
-1.67675
-1.50702
-1.41281
-1.21023
-1.02302
-0.948272
-0.838135
-0.788055
-0.702678
-0.662691
-0.592313
-0.55908
-0.500064
-0.472132
-0.422406
-0.398874
-0.356996
-0.33723
-0.302169
-0.285751
-0.256916
-0.243724
-0.221236
-0.211638
-0.196687
-0.1888
-0.172974
-0.165062
-0.150122
-0.142848
-0.129483
-0.123052
-0.111391
-0.105826
-0.0958288
-0.0911234
-0.0828121
-0.0790941
-0.0729653
-0.0709631
-0.0694414
-0.0724975
-0.0866819
-0.112672
-0.206289
-0.370019
-0.493995
-0.817828
-1.06972
-1.7168
-1.89429
-1.93355
-1.94223
-1.94411
-14.3911
-11.5042
-10.6653
-9.00691
-8.50021
-7.39788
-7.04535
-6.229
-5.96698
-5.35779
-5.17448
-4.78579
-4.63758
-4.21939
-4.07002
-3.67583
-3.53833
-3.1845
-3.06227
-2.75108
-2.64403
-2.37284
-2.27969
-2.04411
-1.96301
-1.75735
-1.68536
-1.49925
-1.42594
-1.20816
-1.00862
-0.950927
-0.83089
-0.79154
-0.697406
-0.665813
-0.588041
-0.561755
-0.496501
-0.474401
-0.419407
-0.400786
-0.354463
-0.33882
-0.300026
-0.287028
-0.2551
-0.244648
-0.219709
-0.212146
-0.195909
-0.189697
-0.172113
-0.165834
-0.149269
-0.143504
-0.128702
-0.123609
-0.1107
-0.106294
-0.095224
-0.091495
-0.0822737
-0.0793139
-0.0724333
-0.0707762
-0.0686543
-0.0706989
-0.0840411
-0.102782
-0.196361
-0.371863
-0.468374
-0.820923
-1.02429
-1.7755
-1.91787
-1.94006
-1.94387
-1.94459
-14.8348
-11.2777
-10.7398
-8.85475
-8.55516
-7.30072
-7.09147
-6.15806
-6.00147
-5.30246
-5.19395
-4.75699
-4.66927
-4.18781
-4.09792
-3.64504
-3.5625
-3.15647
-3.0832
-2.72627
-2.66214
-2.35118
-2.29541
-2.02535
-1.97684
-1.74134
-1.69855
-1.48698
-1.44486
-1.20538
-0.988568
-0.956091
-0.820432
-0.79723
-0.689645
-0.670795
-0.581722
-0.566001
-0.491223
-0.477997
-0.414962
-0.403815
-0.350711
-0.341344
-0.29686
-0.28907
-0.252433
-0.246158
-0.217493
-0.213006
-0.194736
-0.191055
-0.170803
-0.167023
-0.147987
-0.144525
-0.127537
-0.124482
-0.109673
-0.107031
-0.0943281
-0.0920886
-0.0814868
-0.0796924
-0.0716938
-0.0706092
-0.0677015
-0.0684492
-0.0811848
-0.0898994
-0.183157
-0.376866
-0.432509
-0.829985
-0.956945
-1.85855
-1.94626
-1.9473
-1.94562
-1.94509
-15.4208
-10.9306
-10.8683
-8.63921
-8.64833
-7.16178
-7.16659
-6.05608
-6.0577
-5.22354
-5.22658
-4.71425
-4.71674
-4.1406
-4.14036
-3.59947
-3.59964
-3.11516
-3.11549
-2.68978
-2.69016
-2.31935
-2.31972
-1.99775
-1.99817
-1.71764
-1.71852
-1.46796
-1.47171
-1.20171
-0.961157
-0.965397
-0.805491
-0.806309
-0.678349
-0.678599
-0.572481
-0.572621
-0.483493
-0.483595
-0.408452
-0.408531
-0.345219
-0.34528
-0.292233
-0.292273
-0.248558
-0.248569
-0.214316
-0.214423
-0.192985
-0.193081
-0.16884
-0.168827
-0.146087
-0.146092
-0.125817
-0.125829
-0.108161
-0.108173
-0.0930161
-0.0930189
-0.0803496
-0.0803208
-0.0706793
-0.0705164
-0.0666035
-0.0657208
-0.0784898
-0.0736352
-0.165934
-0.387391
-0.38297
-0.849865
-0.858611
-1.97415
-1.97812
-1.95465
-1.94733
-1.94556
-16.1865
-10.4063
-11.0834
-8.33417
-8.80136
-6.96321
-7.28635
-5.90964
-6.14738
-5.11116
-5.27985
-4.65094
-4.78738
-4.07038
-4.20446
-3.53228
-3.65619
-3.05447
-3.16486
-2.63627
-2.73304
-2.27268
-2.35694
-1.95728
-2.03076
-1.6827
-1.74857
-1.43878
-1.50951
-1.19688
-0.923969
-0.981285
-0.784135
-0.820553
-0.661937
-0.69067
-0.559001
-0.582823
-0.472205
-0.492214
-0.398942
-0.415793
-0.3372
-0.351349
-0.28549
-0.297233
-0.24294
-0.252358
-0.20977
-0.216708
-0.190377
-0.196086
-0.165913
-0.171544
-0.143281
-0.148474
-0.12329
-0.127886
-0.105946
-0.109924
-0.0911002
-0.0944584
-0.0787087
-0.0813354
-0.0692871
-0.070575
-0.0653854
-0.0624473
-0.0765004
-0.0534852
-0.143544
-0.40695
-0.314577
-0.888068
-0.716004
-2.13421
-2.01107
-1.96135
-1.94881
-1.94596
-17.1834
-9.62379
-11.4357
-7.90051
-9.04663
-6.67823
-7.47413
-5.69866
-6.28805
-4.95061
-5.36505
-4.55705
-4.89219
-3.96614
-4.30084
-3.43327
-3.74179
-2.96533
-3.23981
-2.55777
-2.79823
-2.20426
-2.41354
-1.89791
-2.08023
-1.63123
-1.79366
-1.3944
-1.56268
-1.19048
-0.873589
-1.00737
-0.75345
-0.842613
-0.638044
-0.70917
-0.539314
-0.598415
-0.455703
-0.505374
-0.385037
-0.426881
-0.32548
-0.360627
-0.275651
-0.304842
-0.234781
-0.258234
-0.20325
-0.220329
-0.186493
-0.200531
-0.161558
-0.175622
-0.139141
-0.152074
-0.119576
-0.131009
-0.102696
-0.11259
-0.0882995
-0.0966645
-0.0763346
-0.0829389
-0.0673629
-0.070894
-0.0640782
-0.0584949
-0.0759943
-0.0288127
-0.114221
-0.440738
-0.219548
-0.956092
-0.509784
-2.35592
-2.04107
-1.96655
-1.94989
-1.94625
-18.4826
-8.46629
-12.0017
-7.27947
-9.43237
-6.26656
-7.76466
-5.39297
-6.50569
-4.71988
-5.49905
-4.41732
-5.04734
-3.81138
-4.4452
-3.28712
-3.8707
-2.83405
-3.35293
-2.44229
-2.89671
-2.10362
-2.49906
-1.81054
-2.15488
-1.55522
-1.86115
-1.32725
-1.63739
-1.1818
-0.805123
-1.0489
-0.70899
-0.87637
-0.603075
-0.737261
-0.510424
-0.622035
-0.431466
-0.525296
-0.364609
-0.443665
-0.308267
-0.374679
-0.261218
-0.316394
-0.222857
-0.267223
-0.193824
-0.225966
-0.180675
-0.207077
-0.155064
-0.181704
-0.13301
-0.157477
-0.114091
-0.135708
-0.0979078
-0.116613
-0.0841834
-0.10001
-0.072876
-0.0854228
-0.0646689
-0.0716217
-0.0627179
-0.0536159
-0.0780734
0.00116501
-0.075253
-0.496439
-0.0862144
-1.07144
-0.211874
-2.66408
-2.06148
-1.96946
-1.95047
-1.9464
18.4826
8.46631
12.0017
7.27949
9.43239
6.26656
7.76467
5.39298
6.5057
4.71988
5.49906
4.41733
5.04735
3.81138
4.44521
3.28712
3.8707
2.83405
3.35293
2.44229
2.89671
2.10362
2.49907
1.81054
2.15489
1.55522
1.86116
1.32725
1.63739
1.1818
0.805118
1.0489
0.708986
0.876371
0.603072
0.737262
0.510421
0.622036
0.431464
0.525297
0.364607
0.443666
0.308265
0.37468
0.261216
0.316395
0.222855
0.267224
0.193824
0.225967
0.180675
0.207079
0.155064
0.181706
0.13301
0.157479
0.114091
0.13571
0.0979083
0.116616
0.0841839
0.100012
0.0728765
0.0854249
0.0646692
0.0716241
0.0627172
0.0536194
0.0780692
-0.00115453
0.0752478
0.496372
0.086205
1.0713
0.211836
2.66377
2.06124
1.96923
1.95024
1.94617
17.1834
9.62383
11.4357
7.90055
9.04667
6.67826
7.47417
5.69869
6.28809
4.95064
5.36509
4.55707
4.89222
3.96617
4.30087
3.43329
3.74182
2.96535
3.23984
2.5578
2.79825
2.20428
2.41357
1.89793
2.08026
1.63125
1.79369
1.39442
1.5627
1.19049
0.8736
1.00738
0.753461
0.842626
0.638054
0.709181
0.539322
0.598425
0.455711
0.505383
0.385044
0.42689
0.325487
0.360635
0.275657
0.304849
0.234786
0.25824
0.203255
0.220335
0.186499
0.200537
0.161563
0.175627
0.139146
0.152079
0.11958
0.131013
0.1027
0.112594
0.0883023
0.0966681
0.076337
0.0829421
0.0673646
0.0708967
0.0640786
0.0584976
0.0759912
0.0288178
0.114209
0.440679
0.21952
0.955965
0.50971
2.35564
2.04083
1.96632
1.94966
1.94602
16.1865
10.4064
11.0835
8.33423
8.80142
6.96327
7.28641
5.9097
6.14744
5.11121
5.2799
4.65099
4.78743
4.07043
4.20451
3.53232
3.65624
3.05451
3.1649
2.63631
2.73308
2.27272
2.35698
1.95732
2.0308
1.68274
1.74861
1.43881
1.50955
1.19691
0.923993
0.98131
0.784156
0.820576
0.661957
0.69069
0.559019
0.582842
0.472222
0.49223
0.398957
0.415808
0.337213
0.351362
0.285502
0.297245
0.242951
0.252369
0.20978
0.216718
0.190386
0.196095
0.165921
0.171553
0.143289
0.148481
0.123297
0.127893
0.105952
0.10993
0.0911051
0.0944635
0.0787127
0.0813397
0.0692901
0.0705784
0.0653869
0.0624496
0.0764981
0.0534865
0.143529
0.406895
0.314535
0.887949
0.715906
2.13395
2.01082
1.96111
1.94857
1.94573
15.4209
10.9306
10.8683
8.63928
8.6484
7.16184
7.16665
6.05614
6.05776
5.2236
5.22663
4.7143
4.71679
4.14066
4.14042
3.59952
3.59969
3.1152
3.11554
2.68983
2.6902
2.31939
2.31976
1.99779
1.99821
1.71768
1.71856
1.46799
1.47174
1.20174
0.961185
0.965426
0.805516
0.806335
0.678372
0.678622
0.572502
0.572642
0.483513
0.483614
0.408469
0.408548
0.345234
0.345295
0.292247
0.292286
0.24857
0.248582
0.214327
0.214434
0.192995
0.193092
0.16885
0.168837
0.146096
0.146101
0.125825
0.125837
0.108168
0.108179
0.0930218
0.0930245
0.0803543
0.0803254
0.0706829
0.07052
0.0666055
0.0657228
0.0784877
0.0736335
0.165916
0.38734
0.382919
0.849751
0.858497
1.97391
1.97788
1.95441
1.94709
1.94533
14.8348
11.2778
10.7399
8.85482
8.55523
7.30078
7.09154
6.15813
6.00154
5.30252
5.19401
4.75705
4.66933
4.18787
4.09797
3.6451
3.56256
3.15652
3.08325
2.72632
2.66219
2.35123
2.29545
2.02539
1.97688
1.74138
1.6986
1.48702
1.4449
1.20541
0.988599
0.95612
0.82046
0.797257
0.68967
0.670819
0.581745
0.566023
0.491243
0.478017
0.41498
0.403833
0.350728
0.341359
0.296874
0.289084
0.252446
0.24617
0.217505
0.213018
0.194747
0.191066
0.170814
0.167033
0.147997
0.144534
0.127545
0.12449
0.10968
0.107038
0.0943342
0.0920944
0.0814919
0.0796972
0.0716977
0.0706128
0.0677036
0.0684508
0.0811826
0.0898954
0.183137
0.376817
0.432452
0.829875
0.956819
1.85832
1.94603
1.94707
1.94539
1.94485
14.3911
11.5042
10.6654
9.00698
8.50028
7.39795
7.04542
6.22907
5.96704
5.35785
5.17454
4.78585
4.63764
4.21945
4.07008
3.67589
3.53839
3.18456
3.06232
2.75113
2.64408
2.37289
2.27974
2.04415
1.96305
1.75739
1.6854
1.49929
1.42597
1.2082
1.00865
0.950957
0.830918
0.791567
0.697431
0.665838
0.588064
0.561778
0.496522
0.474421
0.419425
0.400804
0.35448
0.338836
0.300041
0.287043
0.255114
0.244661
0.219721
0.212158
0.195921
0.189709
0.172123
0.165845
0.149278
0.143513
0.12871
0.123617
0.110708
0.106301
0.0952304
0.091501
0.082279
0.0793189
0.0724374
0.0707798
0.0686566
0.0707002
0.0840388
0.102776
0.19634
0.371815
0.468313
0.820816
1.02416
1.77528
1.91764
1.93983
1.94363
1.94435
14.0629
11.6488
10.6236
9.11309
8.46919
7.46515
7.01788
6.27786
5.94646
5.39618
5.16332
4.80506
4.61677
4.2403
4.052
3.69643
3.52289
3.20335
3.04897
2.76779
2.63256
2.38744
2.26975
2.05675
1.95422
1.76808
1.67679
1.50706
1.41284
1.21027
1.02305
0.948302
0.838163
0.788082
0.702704
0.662716
0.592336
0.559102
0.500085
0.472152
0.422425
0.398893
0.357013
0.337247
0.302184
0.285766
0.256929
0.243737
0.221249
0.21165
0.196699
0.188811
0.172985
0.165072
0.150132
0.142857
0.129491
0.12306
0.111399
0.105834
0.0958353
0.0911294
0.0828175
0.0790991
0.0729695
0.0709667
0.0694438
0.0724986
0.0866795
0.112665
0.206267
0.369972
0.493931
0.817721
1.06958
1.71659
1.89406
1.93332
1.942
1.94388
13.8313
11.7378
10.6014
9.18458
8.45254
7.51011
7.00208
6.31034
5.93466
5.42183
5.15715
4.8175
4.60346
4.25365
4.04064
3.70973
3.51326
3.21556
3.04073
2.77863
2.62545
2.39693
2.26358
2.06495
1.94876
1.77499
1.67133
1.51183
1.40407
1.21174
1.03297
0.947078
0.84302
0.786023
0.706174
0.660822
0.595134
0.557469
0.502416
0.470764
0.424386
0.397724
0.35867
0.336277
0.303588
0.284993
0.258126
0.243191
0.222266
0.211363
0.1972
0.188236
0.173535
0.164585
0.150684
0.142448
0.129998
0.122716
0.111849
0.105546
0.096231
0.0909043
0.0831743
0.0789775
0.0733381
0.0711357
0.0700489
0.0738528
0.0888486
0.119849
0.213389
0.369717
0.511556
0.817502
1.0992
1.67667
1.876
1.92803
1.94063
1.94348
13.6834
11.7886
10.5904
9.2287
8.44433
7.53773
6.99366
6.3302
5.92838
5.43759
5.154
4.82495
4.5956
4.26155
4.03402
3.71767
3.50771
3.22289
3.03599
2.78515
2.62138
2.40262
2.26006
2.06988
1.94562
1.77912
1.66813
1.51455
1.39869
1.21268
1.03918
0.946596
0.846009
0.784893
0.708276
0.659754
0.596823
0.556543
0.503821
0.469976
0.425568
0.39706
0.35967
0.335728
0.304436
0.284558
0.258852
0.242891
0.222889
0.211211
0.197498
0.187895
0.17386
0.1643
0.151012
0.142212
0.130302
0.122518
0.112119
0.105382
0.0964696
0.0907776
0.0833917
0.0789153
0.0735707
0.0712613
0.0704594
0.0747601
0.090378
0.124531
0.217999
0.370042
0.522614
0.81825
1.11698
1.65188
1.86382
1.92431
1.93965
1.94318
13.6114
11.8115
10.5859
9.24976
8.44104
7.55087
6.99005
6.33963
5.92568
5.44509
5.15269
4.82843
4.59196
4.26522
4.03097
3.72137
3.50518
3.22632
3.03384
2.7882
2.61953
2.4053
2.25846
2.07218
1.94419
1.78105
1.66665
1.51578
1.39614
1.21315
1.04217
0.946449
0.847433
0.784395
0.709268
0.659275
0.597617
0.556125
0.504481
0.46962
0.426124
0.396761
0.360139
0.33548
0.304836
0.284362
0.259194
0.242759
0.223184
0.211146
0.197637
0.187737
0.174011
0.164169
0.151166
0.142104
0.130444
0.122428
0.112246
0.105308
0.0965817
0.0907208
0.0834946
0.0788895
0.0736832
0.0713279
0.0706668
0.0752155
0.0911665
0.126841
0.220265
0.370344
0.527948
0.818873
1.12531
1.64001
1.85771
1.9224
1.93914
1.94303
-13.5885
-11.9035
-10.8432
-9.83491
-9.29327
-8.79272
-8.51636
-8.247
-8.0976
-7.95018
-7.84862
-7.7143
-7.61971
-7.4965
-7.41056
-7.29957
-7.22236
-7.12287
-7.0538
-6.96501
-6.90355
-6.82478
-6.77042
-6.70098
-6.65308
-6.59179
-6.54883
-6.49224
-6.4477
-6.38012
-6.31769
-6.28324
-6.24836
-6.22653
-6.20103
-6.18432
-6.1641
-6.1507
-6.13431
-6.12341
-6.11004
-6.10115
-6.09024
-6.083
-6.07415
-6.06834
-6.06132
-6.05683
-6.0516
-6.04846
-6.04507
-6.0427
-6.0396
-6.03757
-6.03517
-6.03381
-6.03255
-6.03219
-6.03252
-6.03359
-6.03626
-6.03951
-6.04585
-6.05274
-6.06555
-6.07946
-6.10579
-6.13704
-6.20128
-6.29481
-6.50627
-6.79968
-7.06192
-7.49844
-7.91513
-8.57789
-8.85693
-8.93974
-8.96116
-8.96615
-13.6559
-11.8785
-10.8411
-9.81625
-9.29163
-8.78376
-8.51608
-8.24221
-8.09752
-7.94835
-7.84994
-7.71271
-7.62085
-7.49502
-7.41157
-7.29822
-7.22325
-7.12166
-7.05459
-6.96392
-6.90424
-6.82381
-6.77103
-6.70012
-6.65361
-6.59106
-6.54937
-6.49176
-6.44862
-6.37992
-6.31658
-6.28326
-6.24784
-6.22668
-6.20067
-6.18447
-6.16383
-6.15082
-6.13409
-6.12351
-6.10987
-6.10123
-6.09009
-6.08306
-6.07403
-6.06838
-6.06122
-6.05686
-6.05151
-6.04847
-6.04503
-6.04273
-6.03956
-6.03758
-6.03513
-6.03381
-6.03251
-6.03216
-6.0325
-6.03353
-6.03624
-6.03938
-6.04583
-6.0525
-6.0655
-6.07896
-6.10559
-6.13572
-6.20011
-6.29009
-6.50299
-6.80092
-7.05495
-7.49923
-7.90529
-8.59324
-8.86478
-8.94219
-8.96182
-8.96635
-13.7945
-11.824
-10.8386
-9.77759
-9.28933
-8.76519
-8.51606
-8.23226
-8.09763
-7.94449
-7.85281
-7.70932
-7.62337
-7.49184
-7.41377
-7.29534
-7.22521
-7.11906
-7.05633
-6.96159
-6.90577
-6.82173
-6.77236
-6.69829
-6.65479
-6.5895
-6.55056
-6.4907
-6.45057
-6.3795
-6.31426
-6.28336
-6.24675
-6.22702
-6.19993
-6.18479
-6.16325
-6.15109
-6.13363
-6.12374
-6.10949
-6.10141
-6.08978
-6.08321
-6.07378
-6.06849
-6.06101
-6.05693
-6.05134
-6.0485
-6.04494
-6.0428
-6.03947
-6.03762
-6.03504
-6.03381
-6.03244
-6.03211
-6.03244
-6.0334
-6.0362
-6.03913
-6.0458
-6.05201
-6.06544
-6.07794
-6.10525
-6.13303
-6.19791
-6.28046
-6.49631
-6.80393
-7.04037
-7.50156
-7.88417
-8.62525
-8.88039
-8.94696
-8.96309
-8.96673
-14.0118
-11.73
-10.8391
-9.71603
-9.28848
-8.73564
-8.51744
-8.21634
-8.09849
-7.93819
-7.85776
-7.70363
-7.62771
-7.48653
-7.41759
-7.29053
-7.22862
-7.11474
-7.05936
-6.95771
-6.90843
-6.81827
-6.77469
-6.69523
-6.65685
-6.58689
-6.55258
-6.48886
-6.45376
-6.37886
-6.31057
-6.2837
-6.24499
-6.22766
-6.19871
-6.18536
-6.1623
-6.15158
-6.13287
-6.12414
-6.10886
-6.10174
-6.08927
-6.08347
-6.07336
-6.06869
-6.06066
-6.05706
-6.05106
-6.04855
-6.0448
-6.04292
-6.03932
-6.03768
-6.03491
-6.03381
-6.03233
-6.03203
-6.03236
-6.0332
-6.03616
-6.03872
-6.0458
-6.05123
-6.06542
-6.07632
-6.1049
-6.12886
-6.19501
-6.2655
-6.48596
-6.80978
-7.0168
-7.50702
-7.84872
-8.67669
-8.90355
-8.95375
-8.96485
-8.96726
-14.3204
-11.5804
-10.8488
-9.62666
-9.29265
-8.69271
-8.52214
-8.1931
-8.10105
-7.92869
-7.86567
-7.69481
-7.63466
-7.47833
-7.42375
-7.28312
-7.23411
-7.10808
-7.06423
-6.95174
-6.91272
-6.81295
-6.77845
-6.69054
-6.66017
-6.58285
-6.55579
-6.48587
-6.45854
-6.37794
-6.30523
-6.2845
-6.24237
-6.22877
-6.19687
-6.18633
-6.16086
-6.15238
-6.1317
-6.1248
-6.10791
-6.10228
-6.08849
-6.0839
-6.07272
-6.06903
-6.06014
-6.05729
-6.05063
-6.04866
-6.04459
-6.0431
-6.0391
-6.0378
-6.0347
-6.03383
-6.03217
-6.03192
-6.03226
-6.03291
-6.03613
-6.03814
-6.04585
-6.0501
-6.06553
-6.074
-6.10472
-6.123
-6.19193
-6.24454
-6.47147
-6.8203
-6.9819
-7.51843
-7.79381
-8.75218
-8.93377
-8.9621
-8.96696
-8.96788
-14.7387
-11.3505
-10.8782
-9.50178
-9.30746
-8.63261
-8.53318
-8.16039
-8.10684
-7.91483
-7.87789
-7.68158
-7.64547
-7.46607
-7.43335
-7.27205
-7.24268
-7.09813
-7.07186
-6.94283
-6.91945
-6.80502
-6.78435
-6.68355
-6.66537
-6.5768
-6.56071
-6.48118
-6.46546
-6.37672
-6.29781
-6.28617
-6.23861
-6.23061
-6.19418
-6.1879
-6.15874
-6.15367
-6.12999
-6.12586
-6.10652
-6.10315
-6.08735
-6.0846
-6.07178
-6.06957
-6.05938
-6.05767
-6.05003
-6.04886
-6.04427
-6.04339
-6.03877
-6.03798
-6.03441
-6.03388
-6.03195
-6.0318
-6.03215
-6.03252
-6.03615
-6.03733
-6.04605
-6.04853
-6.06592
-6.07079
-6.10505
-6.11512
-6.18951
-6.2166
-6.45211
-6.83831
-6.932
-7.54029
-7.71159
-8.85874
-8.97013
-8.97139
-8.96923
-8.96855
-15.2925
-11.004
-10.9438
-9.32962
-9.3415
-8.5495
-8.55517
-8.11492
-8.11816
-7.89476
-7.89649
-7.66194
-7.66201
-7.44794
-7.44809
-7.25571
-7.25587
-7.08345
-7.0836
-6.9297
-6.92983
-6.79334
-6.79346
-6.67325
-6.67339
-6.56786
-6.56817
-6.47394
-6.47529
-6.37511
-6.28769
-6.28928
-6.23328
-6.23358
-6.19028
-6.19038
-6.15566
-6.15571
-6.12749
-6.12753
-6.10448
-6.10451
-6.08568
-6.08571
-6.07042
-6.07044
-6.05828
-6.05829
-6.04916
-6.04919
-6.0438
-6.04382
-6.03829
-6.03828
-6.034
-6.03399
-6.03167
-6.03165
-6.03203
-6.032
-6.03628
-6.03621
-6.04649
-6.04635
-6.0668
-6.06641
-6.10635
-6.10466
-6.18898
-6.18033
-6.42673
-6.86803
-6.86152
-7.57962
-7.59033
-9.00673
-9.0109
-8.98081
-8.97144
-8.96918
-16.0178
-10.4883
-11.0716
-9.09242
-9.4077
-8.43449
-8.595
-8.05171
-8.13856
-7.8657
-7.92455
-7.63292
-7.68712
-7.42125
-7.47054
-7.23166
-7.27596
-7.06188
-7.1015
-6.91041
-6.94567
-6.7762
-6.80738
-6.65815
-6.68564
-6.55468
-6.57941
-6.46289
-6.48919
-6.37298
-6.27402
-6.29469
-6.22569
-6.23831
-6.18465
-6.19425
-6.15118
-6.15888
-6.12387
-6.13013
-6.10152
-6.10663
-6.08327
-6.08742
-6.06845
-6.07179
-6.05669
-6.05927
-6.04793
-6.04974
-6.04312
-6.04449
-6.03758
-6.03874
-6.03342
-6.03419
-6.03129
-6.03149
-6.03194
-6.03132
-6.03657
-6.03469
-6.04735
-6.04336
-6.06853
-6.06041
-6.10931
-6.09077
-6.19216
-6.13385
-6.39354
-6.91566
-6.76206
-7.64725
-7.41285
-9.21121
-9.05303
-8.98941
-8.97337
-8.96973
-16.9643
-9.72814
-11.3018
-8.76345
-9.52545
-8.27414
-8.66299
-7.9633
-8.17335
-7.82338
-7.96664
-7.59007
-7.72504
-7.38196
-7.50452
-7.1963
-7.30639
-7.03016
-7.12863
-6.88207
-6.9697
-6.75103
-6.82853
-6.63597
-6.70423
-6.53528
-6.59631
-6.44612
-6.5088
-6.37017
-6.25557
-6.30368
-6.21483
-6.24568
-6.17648
-6.20023
-6.14468
-6.16376
-6.11859
-6.13412
-6.09722
-6.10989
-6.07975
-6.09006
-6.06559
-6.07388
-6.0544
-6.06082
-6.04617
-6.05063
-6.04213
-6.04548
-6.03656
-6.03947
-6.03259
-6.03454
-6.03079
-6.03132
-6.03189
-6.03039
-6.03715
-6.03258
-6.04888
-6.0392
-6.07158
-6.05213
-6.11496
-6.07207
-6.20174
-6.07466
-6.34986
-6.99031
-6.62104
-7.75967
-7.15405
-9.49396
-9.09138
-8.99611
-8.9748
-8.97013
-18.2002
-8.61554
-11.6965
-8.30244
-9.7237
-8.04816
-8.77449
-7.83848
-8.23052
-7.7613
-8.0295
-7.52674
-7.78207
-7.32402
-7.55572
-7.14419
-7.35225
-6.98344
-7.16956
-6.84035
-7.00598
-6.71401
-6.86046
-6.60336
-6.7323
-6.50667
-6.62165
-6.42082
-6.53644
-6.36639
-6.23061
-6.31815
-6.19919
-6.25706
-6.1646
-6.20938
-6.13519
-6.17121
-6.11089
-6.1402
-6.09093
-6.11486
-6.07461
-6.09409
-6.06142
-6.07708
-6.05107
-6.0632
-6.04365
-6.05203
-6.04065
-6.04696
-6.03506
-6.04059
-6.03141
-6.03512
-6.03012
-6.03115
-6.03192
-6.02913
-6.03818
-6.02964
-6.05145
-6.03335
-6.07671
-6.04056
-6.12485
-6.04647
-6.22159
-5.99937
-6.29157
-7.10535
-6.41971
-7.94185
-6.77743
-9.8864
-9.11744
-8.99984
-8.97557
-8.97034
)
;

boundaryField
{
    F1_1
    {
        type            calculated;
        value           nonuniform List<scalar> 
80
(
18.9008
7.94869
11.9441
8.01864
9.84671
7.88531
8.84305
7.6983
8.26778
7.53736
7.88579
7.47655
7.74257
7.27648
7.54535
7.10196
7.3543
6.9466
7.17707
6.80832
7.01566
6.68622
6.87067
6.57932
6.74229
6.48591
6.63144
6.40265
6.5482
6.36158
6.21484
6.3247
6.1887
6.26212
6.15654
6.21346
6.12874
6.17455
6.10566
6.14295
6.08667
6.11713
6.07114
6.09594
6.0586
6.07854
6.04882
6.06427
6.04193
6.05259
6.03956
6.04757
6.03399
6.04104
6.03058
6.03529
6.02961
6.03091
6.03186
6.02828
6.03876
6.02781
6.05299
6.02985
6.07985
6.03373
6.13104
6.03157
6.23462
5.95718
6.25812
7.17494
6.30113
8.05413
6.55423
10.1147
9.12606
9.00083
8.97575
8.97038
)
;
    }
    F1_2
    {
        type            calculated;
        value           nonuniform List<scalar> 
80
(
-19.218
-7.77658
-12.3497
-6.9133
-9.66757
-6.023
-7.94079
-5.21193
-6.63762
-4.58366
-5.58077
-4.3337
-5.13991
-3.71888
-4.53172
-3.19996
-3.9481
-2.75582
-3.4209
-2.37349
-2.9559
-2.04367
-2.55046
-1.75848
-2.19973
-1.50988
-1.90159
-1.28684
-1.68104
-1.17677
-0.765645
-1.0743
-0.682641
-0.896747
-0.582277
-0.754172
-0.493225
-0.636243
-0.417031
-0.537275
-0.352442