/*--------------------------------*- C++ -*----------------------------------*\
| =========                 |                                                 |
| \\      /  F ield         | OpenFOAM: The Open Source CFD Toolbox           |
|  \\    /   O peration     | Version:  5.x                                   |
|   \\  /    A nd           | Web:      www.OpenFOAM.org                      |
|    \\/     M anipulation  |                                                 |
\*---------------------------------------------------------------------------*/
FoamFile
{
    version     2.0;
    format      ascii;
    class       volScalarField;
    location    "3";
    object      T;
}
// * * * * * * * * * * * * * * * * * * * * * * * * * * * * * * * * * * * * * //

dimensions      [0 0 0 1 0 0 0];

internalField   nonuniform List<scalar> 
3200
(
2.0889
2.43923
2.4592
2.60357
2.61271
2.68468
2.68947
2.73102
2.73387
2.76012
2.76187
2.77702
2.77835
2.79487
2.79621
2.81198
2.81324
2.82775
2.8289
2.84203
2.84307
2.8548
2.85572
2.8661
2.86692
2.87607
2.87679
2.88504
2.88577
2.89451
2.90218
2.90273
2.90768
2.90805
2.91183
2.91212
2.91515
2.91538
2.91783
2.91802
2.92003
2.92018
2.92182
2.92195
2.92328
2.92338
2.92444
2.92451
2.92531
2.92536
2.92584
2.92588
2.92636
2.92639
2.92676
2.92678
2.92698
2.92699
2.92695
2.92693
2.92655
2.92649
2.92558
2.92546
2.92364
2.9234
2.91979
2.9193
2.91137
2.90999
2.88753
2.84835
2.84399
2.78034
2.77284
2.65375
2.64881
2.64818
2.64806
2.64803
2.26389
2.53193
2.57367
2.68917
2.70867
2.76622
2.77643
2.80955
2.81561
2.83648
2.84019
2.85233
2.85516
2.86824
2.87109
2.88357
2.88625
2.89775
2.90019
2.9106
2.91279
2.92209
2.92405
2.93228
2.93401
2.94126
2.94281
2.94937
2.95093
2.95817
2.96461
2.9658
2.96975
2.97054
2.97354
2.97414
2.97655
2.97703
2.97898
2.97938
2.98097
2.98129
2.98259
2.98286
2.98391
2.98412
2.98496
2.98513
2.98576
2.98587
2.98625
2.98634
2.98671
2.98679
2.98708
2.98713
2.98729
2.9873
2.98727
2.98723
2.98692
2.98681
2.98608
2.98583
2.98437
2.98388
2.98098
2.97991
2.97346
2.9704
2.95078
2.91871
2.90937
2.85863
2.84284
2.75033
2.7399
2.73817
2.73781
2.73773
2.42816
2.63368
2.68518
2.7786
2.8031
2.84965
2.86247
2.88916
2.89676
2.91352
2.91817
2.92803
2.93157
2.94202
2.94558
2.95557
2.95891
2.96811
2.97116
2.97949
2.98224
2.98968
2.99213
2.99871
3.00087
3.00669
3.00862
3.01389
3.01586
3.02186
3.02726
3.02876
3.03195
3.03293
3.03534
3.0361
3.03802
3.03863
3.04019
3.04069
3.04196
3.04237
3.04341
3.04374
3.04458
3.04485
3.04552
3.04572
3.04622
3.04637
3.04668
3.04678
3.04708
3.04718
3.04741
3.04747
3.0476
3.04761
3.04759
3.04754
3.04729
3.04714
3.04655
3.04625
3.04507
3.04445
3.04209
3.04074
3.03541
3.03148
3.01452
2.98816
2.97641
2.93553
2.91592
2.84363
2.83064
2.8281
2.82755
2.82743
2.58421
2.74159
2.79502
2.8708
2.89665
2.93443
2.94796
2.96954
2.97754
2.99104
2.99595
3.00397
3.0077
3.01608
3.01981
3.02782
3.03134
3.03872
3.04193
3.04861
3.0515
3.05747
3.06004
3.06533
3.0676
3.07227
3.0743
3.07855
3.08064
3.08557
3.09006
3.09165
3.09424
3.09527
3.09721
3.098
3.09955
3.10019
3.10144
3.10196
3.10299
3.10341
3.10425
3.10459
3.10527
3.10555
3.10609
3.10631
3.10671
3.10686
3.10711
3.10722
3.10746
3.10756
3.10775
3.10781
3.10791
3.10793
3.1079
3.10785
3.10765
3.1075
3.10702
3.1067
3.10574
3.10508
3.10316
3.10172
3.0973
3.09308
3.07865
3.05702
3.04461
3.01158
2.9911
2.93456
2.92096
2.91796
2.91728
2.91713
2.73397
2.85366
2.90396
2.96498
2.98972
3.02019
3.03312
3.05046
3.0581
3.06891
3.0736
3.08008
3.08365
3.09032
3.09388
3.10026
3.10361
3.10949
3.11255
3.11788
3.12063
3.12539
3.12784
3.13206
3.13422
3.13795
3.13989
3.1433
3.14529
3.14931
3.15297
3.1545
3.15659
3.15757
3.15912
3.15988
3.16111
3.16172
3.16273
3.16322
3.16404
3.16444
3.16511
3.16544
3.16598
3.16625
3.16668
3.16688
3.1672
3.16734
3.16755
3.16765
3.16785
3.16794
3.16809
3.16815
3.16823
3.16824
3.16822
3.16818
3.16801
3.16787
3.16748
3.16717
3.1664
3.16577
3.16422
3.16283
3.15919
3.15509
3.14306
3.12552
3.11364
3.08712
3.06773
3.02377
3.01085
3.00772
3.00698
3.00682
2.87894
2.9685
3.01247
3.06062
3.08256
3.10664
3.11811
3.13177
3.13853
3.14702
3.15118
3.15631
3.15947
3.16468
3.16783
3.17282
3.17577
3.18038
3.18308
3.18725
3.18968
3.19341
3.19557
3.19887
3.20079
3.20371
3.20542
3.2081
3.20987
3.21305
3.21597
3.21733
3.21898
3.21985
3.22107
3.22174
3.2227
3.22324
3.22403
3.22446
3.22511
3.22546
3.22599
3.22628
3.2267
3.22693
3.22727
3.22745
3.2277
3.22783
3.22799
3.22808
3.22823
3.22832
3.22843
3.22849
3.22855
3.22856
3.22855
3.2285
3.22837
3.22824
3.22794
3.22766
3.22706
3.2265
3.22526
3.22402
3.22109
3.21741
3.20769
3.19379
3.18325
3.16238
3.14533
3.11173
3.10036
3.09739
3.09666
3.0965
3.02032
3.08517
3.12082
3.15731
3.17532
3.1936
3.20301
3.21335
3.2189
3.22531
3.22871
3.23262
3.23521
3.23913
3.2417
3.24546
3.24788
3.25134
3.25355
3.25669
3.25868
3.26149
3.26326
3.26574
3.26731
3.26951
3.27091
3.27294
3.27439
3.27681
3.27903
3.28015
3.2814
3.28212
3.28303
3.28358
3.28431
3.28475
3.28534
3.2857
3.28618
3.28648
3.28687
3.28711
3.28743
3.28762
3.28787
3.28802
3.28821
3.28831
3.28843
3.28851
3.28862
3.28869
3.28878
3.28882
3.28887
3.28888
3.28887
3.28883
3.28874
3.28863
3.2884
3.28817
3.28771
3.28725
3.28631
3.28529
3.28303
3.27998
3.27249
3.26193
3.25327
3.23749
3.2236
3.19881
3.18953
3.18696
3.18632
3.18617
3.15911
3.20301
3.22913
3.25474
3.26806
3.28091
3.28787
3.29513
3.29923
3.30371
3.30623
3.30898
3.3109
3.31363
3.31553
3.31815
3.31994
3.32236
3.32399
3.32618
3.32765
3.32961
3.33092
3.33265
3.33381
3.33534
3.33638
3.3378
3.33888
3.34057
3.34214
3.34297
3.34384
3.34437
3.34501
3.34542
3.34593
3.34625
3.34667
3.34693
3.34727
3.34749
3.34776
3.34794
3.34816
3.3483
3.34848
3.34859
3.34872
3.3488
3.34888
3.34894
3.34902
3.34907
3.34913
3.34916
3.34919
3.3492
3.34919
3.34916
3.3491
3.34902
3.34886
3.34869
3.34836
3.34802
3.34736
3.3466
3.34499
3.34272
3.33741
3.32999
3.32358
3.31252
3.30231
3.28526
3.27843
3.27646
3.27596
3.27584
3.29614
3.32155
3.33746
3.35266
3.36082
3.36846
3.37273
3.37703
3.37954
3.3822
3.38374
3.38538
3.38655
3.38817
3.38933
3.39088
3.39197
3.3934
3.3944
3.3957
3.3966
3.39776
3.39856
3.39958
3.40029
3.4012
3.40183
3.40268
3.40334
3.40434
3.40527
3.40578
3.4063
3.40662
3.40701
3.40725
3.40755
3.40775
3.408
3.40816
3.40836
3.40849
3.40865
3.40876
3.40889
3.40898
3.40909
3.40915
3.40923
3.40928
3.40933
3.40936
3.40941
3.40944
3.40948
3.4095
3.40951
3.40952
3.40951
3.4095
3.40946
3.40941
3.40931
3.40921
3.40902
3.40881
3.40841
3.40795
3.40698
3.40558
3.40241
3.398
3.39408
3.38752
3.38129
3.37131
3.36714
3.3659
3.36558
3.36551
3.43216
3.44048
3.44581
3.45085
3.4536
3.45614
3.45757
3.459
3.45985
3.46073
3.46125
3.46179
3.46219
3.46272
3.46311
3.46362
3.46399
3.46447
3.4648
3.46523
3.46553
3.46592
3.46619
3.46653
3.46676
3.46707
3.46728
3.46756
3.46778
3.46811
3.46842
3.46859
3.46877
3.46888
3.469
3.46908
3.46918
3.46925
3.46933
3.46939
3.46945
3.4695
3.46955
3.46959
3.46963
3.46966
3.4697
3.46972
3.46974
3.46976
3.46978
3.46979
3.4698
3.46981
3.46982
3.46983
3.46984
3.46984
3.46984
3.46983
3.46982
3.4698
3.46977
3.46974
3.46967
3.4696
3.46947
3.46931
3.46899
3.46852
3.46746
3.466
3.46468
3.46251
3.46041
3.45713
3.45573
3.4553
3.4552
3.45517
3.43203
3.44092
3.44708
3.45373
3.4578
3.46223
3.46505
3.46829
3.47037
3.47277
3.47424
3.47585
3.47704
3.47867
3.47985
3.48139
3.48248
3.48386
3.48483
3.48606
3.4869
3.48797
3.48871
3.48964
3.49028
3.49109
3.49167
3.49242
3.49302
3.49393
3.49479
3.49527
3.49576
3.49608
3.49645
3.4967
3.49701
3.49722
3.49748
3.49765
3.49787
3.49802
3.4982
3.49832
3.49848
3.49858
3.4987
3.49879
3.49888
3.49894
3.49901
3.49906
3.49913
3.49918
3.49924
3.49929
3.49935
3.49939
3.49944
3.49947
3.49952
3.49955
3.49958
3.49961
3.49963
3.49964
3.49965
3.49962
3.49954
3.49936
3.4989
3.49815
3.49735
3.4959
3.49436
3.49181
3.49072
3.49039
3.4903
3.49028
3.29574
3.32286
3.34121
3.36128
3.37338
3.38675
3.39515
3.40492
3.41111
3.41833
3.42271
3.42758
3.43112
3.43603
3.43953
3.44418
3.44742
3.45161
3.45449
3.45818
3.46071
3.46392
3.46612
3.46892
3.47084
3.47329
3.475
3.47727
3.47906
3.4818
3.48437
3.4858
3.48729
3.48823
3.48936
3.49011
3.49104
3.49166
3.49243
3.49296
3.49361
3.49405
3.4946
3.49497
3.49543
3.49573
3.49611
3.49636
3.49665
3.49683
3.49704
3.49718
3.49739
3.49754
3.49773
3.49787
3.49804
3.49816
3.49832
3.49842
3.49855
3.49864
3.49875
3.49882
3.49889
3.49893
3.49894
3.49887
3.49863
3.4981
3.4967
3.49444
3.49209
3.48772
3.48313
3.47538
3.47212
3.47116
3.47091
3.47085
3.15836
3.20515
3.23527
3.26915
3.28891
3.31148
3.32518
3.34169
3.35181
3.36401
3.37116
3.37936
3.38513
3.39344
3.39917
3.40704
3.41232
3.41941
3.42411
3.43035
3.43448
3.43992
3.44351
3.44824
3.45137
3.45551
3.45831
3.46213
3.46505
3.46968
3.474
3.47634
3.47884
3.48038
3.48229
3.48351
3.48508
3.48609
3.4874
3.48825
3.48936
3.49008
3.49101
3.49161
3.49239
3.49289
3.49353
3.49393
3.49443
3.49472
3.49506
3.4953
3.49565
3.49589
3.49622
3.49645
3.49674
3.49694
3.4972
3.49737
3.49759
3.49773
3.49791
3.49803
3.49816
3.49822
3.49824
3.49813
3.49774
3.49687
3.49454
3.49075
3.4869
3.47954
3.47202
3.45877
3.45344
3.4519
3.45151
3.45142
3.01912
3.0881
3.12918
3.17759
3.20433
3.23655
3.25511
3.27871
3.29242
3.3099
3.31957
3.33123
3.33905
3.35095
3.35872
3.36999
3.37716
3.3873
3.39368
3.40261
3.4082
3.41599
3.42085
3.42762
3.43186
3.43779
3.44157
3.44703
3.45097
3.45757
3.46371
3.46686
3.47043
3.47251
3.47524
3.47689
3.47913
3.48051
3.48239
3.48354
3.48512
3.48609
3.48743
3.48824
3.48936
3.49003
3.49095
3.4915
3.49221
3.49261
3.49309
3.49342
3.49392
3.49425
3.49472
3.49502
3.49544
3.49571
3.49608
3.49631
3.49663
3.49682
3.49708
3.49724
3.49743
3.49751
3.49754
3.4974
3.49686
3.4957
3.49243
3.48705
3.48185
3.47136
3.46114
3.44184
3.4346
3.43259
3.43209
3.43198
2.87711
2.97217
3.0228
3.08689
3.11953
3.16218
3.18483
3.21613
3.23288
3.25609
3.26789
3.28326
3.2928
3.30863
3.31813
3.33311
3.34187
3.35534
3.36314
3.375
3.38183
3.39217
3.39812
3.40711
3.41229
3.42015
3.42477
3.43199
3.43679
3.44548
3.45354
3.45737
3.46208
3.46462
3.46823
3.47026
3.47323
3.47491
3.4774
3.47881
3.48091
3.4821
3.48387
3.48486
3.48634
3.48717
3.48839
3.48905
3.49
3.49049
3.49113
3.49153
3.49219
3.49259
3.49322
3.49359
3.49415
3.49448
3.49497
3.49525
3.49567
3.49591
3.49626
3.49645
3.4967
3.4968
3.49685
3.49668
3.496
3.49462
3.49041
3.48335
3.47702
3.46318
3.45063
3.42444
3.41555
3.41323
3.41266
3.41253
2.73129
2.85802
2.91588
2.99745
3.03433
3.0886
3.1142
3.15413
3.17308
3.20274
3.21608
3.23551
3.2463
3.26657
3.27732
3.29647
3.30639
3.32361
3.33243
3.34759
3.35532
3.36853
3.37526
3.38674
3.3926
3.40264
3.40787
3.41704
3.42246
3.43341
3.44354
3.44784
3.45381
3.45668
3.46129
3.46358
3.46737
3.46927
3.47246
3.47405
3.47673
3.47808
3.48034
3.48147
3.48336
3.48429
3.48585
3.4866
3.48781
3.48836
3.48917
3.48963
3.49048
3.49093
3.49173
3.49215
3.49287
3.49324
3.49387
3.49418
3.49472
3.49499
3.49544
3.49565
3.49598
3.49609
3.49617
3.49598
3.49518
3.49365
3.4885
3.47961
3.47249
3.45495
3.44066
3.40633
3.39624
3.39379
3.39321
3.39308
2.58041
2.74662
2.808
2.9098
2.94843
3.01616
3.043
3.09297
3.11285
3.15004
3.16402
3.18812
3.19941
3.22488
3.23617
3.26021
3.27062
3.29221
3.30147
3.32047
3.32859
3.34515
3.35221
3.3666
3.37275
3.38532
3.3908
3.40225
3.4079
3.42137
3.43377
3.43825
3.44567
3.44868
3.45444
3.45684
3.46159
3.46359
3.46758
3.46925
3.47261
3.47402
3.47685
3.47804
3.48041
3.48139
3.48334
3.48413
3.48565
3.48623
3.48723
3.48771
3.48878
3.48925
3.49026
3.4907
3.4916
3.49199
3.49278
3.49311
3.49378
3.49407
3.49463
3.49485
3.49527
3.49539
3.49549
3.49531
3.49438
3.49282
3.48675
3.47581
3.46837
3.44658
3.43149
3.38726
3.37663
3.37428
3.37375
3.37363
2.42288
2.63941
2.69851
2.82467
2.86136
2.94536
2.97087
3.03301
3.05193
3.09827
3.11155
3.14123
3.15196
3.18376
3.19451
3.22449
3.2344
3.26131
3.27012
3.29379
3.30151
3.32214
3.32886
3.34679
3.35264
3.36829
3.3735
3.38769
3.39302
3.40937
3.42432
3.42854
3.4377
3.44056
3.44772
3.45001
3.45592
3.45782
3.46279
3.46438
3.46856
3.46991
3.47343
3.47456
3.47751
3.47845
3.48088
3.48163
3.48353
3.48407
3.48531
3.48576
3.4871
3.48755
3.48881
3.48923
3.49035
3.49072
3.4917
3.49202
3.49286
3.49313
3.49383
3.49404
3.49457
3.49468
3.49483
3.49467
3.49361
3.49217
3.48518
3.47186
3.46483
3.43795
3.42348
3.36685
3.35668
3.3547
3.35427
3.35417
2.25668
2.53849
2.58633
2.74311
2.7724
2.8769
2.89727
2.97478
2.9899
3.04782
3.05842
3.0951
3.10367
3.14347
3.15208
3.18956
3.19749
3.23112
3.23818
3.26775
3.27392
3.29969
3.30507
3.32745
3.33213
3.35167
3.35583
3.37347
3.37771
3.39743
3.41529
3.41862
3.42999
3.43226
3.4412
3.44303
3.45041
3.45193
3.45813
3.45941
3.46463
3.46571
3.47011
3.47101
3.4747
3.47545
3.47848
3.47908
3.48146
3.48189
3.48343
3.48379
3.48546
3.48582
3.4874
3.48773
3.48914
3.48943
3.49066
3.49091
3.49196
3.49218
3.49305
3.49322
3.49388
3.49398
3.49419
3.49406
3.49285
3.49175
3.48388
3.46767
3.46208
3.42882
3.41717
3.34458
3.3364
3.33505
3.33477
3.33471
2.07921
2.44693
2.4698
2.66666
2.68043
2.8118
2.82138
2.91904
2.92617
2.99926
3.00424
3.05009
3.05412
3.10443
3.1085
3.15582
3.15956
3.202
3.20533
3.24264
3.24555
3.27806
3.28059
3.30883
3.31103
3.33566
3.33762
3.3598
3.36177
3.38556
3.40685
3.40839
3.42263
3.4237
3.43496
3.43582
3.44514
3.44585
3.45367
3.45427
3.46086
3.46137
3.46692
3.46735
3.472
3.47235
3.47618
3.47647
3.47946
3.47967
3.48158
3.48175
3.48387
3.48404
3.48603
3.48619
3.48796
3.4881
3.48965
3.48977
3.4911
3.4912
3.49231
3.49239
3.49322
3.49326
3.49355
3.4935
3.49209
3.4916
3.4829
3.46305
3.46044
3.41883
3.41329
3.31973
3.31586
3.31537
3.31527
3.31525
2.07921
2.44693
2.46979
2.66665
2.68042
2.81179
2.82138
2.91903
2.92616
2.99925
3.00424
3.05008
3.05411
3.10443
3.10849
3.15582
3.15956
3.202
3.20532
3.24263
3.24555
3.27805
3.28059
3.30882
3.31103
3.33566
3.33762
3.35979
3.36177
3.38556
3.40684
3.40839
3.42263
3.4237
3.43496
3.43582
3.44514
3.44585
3.45367
3.45427
3.46086
3.46137
3.46692
3.46735
3.472
3.47235
3.47618
3.47646
3.47946
3.47967
3.48158
3.48175
3.48387
3.48404
3.48603
3.48619
3.48796
3.4881
3.48965
3.48977
3.4911
3.4912
3.4923
3.49239
3.49322
3.49326
3.49355
3.4935
3.49209
3.4916
3.4829
3.46305
3.46044
3.41884
3.4133
3.31976
3.31588
3.31539
3.31529
3.31527
2.25668
2.53849
2.58633
2.74311
2.7724
2.87689
2.89726
2.97477
2.9899
3.04782
3.05841
3.09509
3.10366
3.14347
3.15208
3.18956
3.19749
3.23112
3.23817
3.26774
3.27392
3.29969
3.30506
3.32745
3.33213
3.35167
3.35583
3.37347
3.3777
3.39743
3.41529
3.41862
3.42999
3.43226
3.4412
3.44302
3.45041
3.45193
3.45813
3.4594
3.46463
3.4657
3.47011
3.47101
3.4747
3.47545
3.47848
3.47908
3.48146
3.48189
3.48343
3.48378
3.48546
3.48582
3.4874
3.48773
3.48913
3.48943
3.49066
3.49091
3.49196
3.49218
3.49305
3.49322
3.49388
3.49397
3.49419
3.49406
3.49285
3.49175
3.48388
3.46767
3.46208
3.42883
3.41718
3.3446
3.33642
3.33507
3.33479
3.33473
2.42288
2.6394
2.6985
2.82466
2.86136
2.94535
2.97086
3.03301
3.05192
3.09827
3.11154
3.14122
3.15196
3.18375
3.19451
3.22448
3.23439
3.2613
3.27012
3.29379
3.30151
3.32214
3.32886
3.34678
3.35263
3.36829
3.37349
3.38768
3.39302
3.40937
3.42431
3.42853
3.4377
3.44055
3.44772
3.45
3.45592
3.45782
3.46278
3.46438
3.46856
3.46991
3.47343
3.47456
3.47751
3.47845
3.48088
3.48163
3.48353
3.48407
3.48531
3.48576
3.4871
3.48755
3.48881
3.48923
3.49035
3.49072
3.4917
3.49202
3.49286
3.49313
3.49383
3.49404
3.49457
3.49468
3.49483
3.49467
3.49361
3.49218
3.48519
3.47187
3.46483
3.43796
3.42349
3.36687
3.3567
3.35472
3.35429
3.35419
2.58041
2.74661
2.808
2.90979
2.94842
3.01616
3.04299
3.09297
3.11285
3.15004
3.16401
3.18811
3.19941
3.22488
3.23617
3.2602
3.27061
3.29221
3.30147
3.32047
3.32858
3.34514
3.3522
3.3666
3.37275
3.38532
3.3908
3.40225
3.40789
3.42137
3.43377
3.43825
3.44567
3.44867
3.45444
3.45684
3.46159
3.46359
3.46757
3.46925
3.47261
3.47402
3.47685
3.47804
3.48041
3.48139
3.48334
3.48413
3.48565
3.48623
3.48723
3.48771
3.48878
3.48925
3.49026
3.4907
3.4916
3.49199
3.49277
3.49311
3.49378
3.49407
3.49463
3.49485
3.49527
3.49539
3.49549
3.49531
3.49438
3.49282
3.48675
3.47581
3.46837
3.44659
3.4315
3.38728
3.37664
3.3743
3.37376
3.37365
2.73129
2.85801
2.91587
2.99745
3.03432
3.08859
3.1142
3.15413
3.17308
3.20274
3.21607
3.23551
3.24629
3.26656
3.27732
3.29647
3.30639
3.32361
3.33243
3.34759
3.35531
3.36853
3.37525
3.38674
3.3926
3.40264
3.40786
3.41704
3.42245
3.4334
3.44354
3.44784
3.45381
3.45668
3.46129
3.46358
3.46737
3.46927
3.47245
3.47405
3.47673
3.47808
3.48034
3.48147
3.48336
3.48429
3.48585
3.4866
3.48781
3.48836
3.48917
3.48962
3.49048
3.49093
3.49173
3.49215
3.49287
3.49324
3.49387
3.49418
3.49472
3.49499
3.49544
3.49565
3.49598
3.49609
3.49617
3.49598
3.49518
3.49365
3.4885
3.47961
3.47249
3.45495
3.44066
3.40635
3.39625
3.3938
3.39323
3.3931
2.87711
2.97217
3.0228
3.08689
3.11953
3.16217
3.18482
3.21613
3.23288
3.25609
3.26789
3.28325
3.2928
3.30863
3.31813
3.33311
3.34187
3.35534
3.36313
3.375
3.38183
3.39217
3.39811
3.4071
3.41228
3.42015
3.42477
3.43199
3.43679
3.44547
3.45354
3.45737
3.46208
3.46462
3.46823
3.47025
3.47323
3.47491
3.4774
3.47881
3.48091
3.4821
3.48387
3.48486
3.48634
3.48717
3.48839
3.48905
3.49
3.49049
3.49113
3.49153
3.49219
3.49259
3.49322
3.49359
3.49415
3.49448
3.49497
3.49525
3.49567
3.49591
3.49626
3.49645
3.4967
3.4968
3.49685
3.49668
3.496
3.49462
3.49041
3.48335
3.47702
3.46319
3.45063
3.42445
3.41556
3.41324
3.41267
3.41254
3.01911
3.0881
3.12918
3.17759
3.20433
3.23655
3.2551
3.27871
3.29242
3.3099
3.31957
3.33123
3.33905
3.35095
3.35872
3.36999
3.37715
3.3873
3.39368
3.40261
3.4082
3.41599
3.42085
3.42762
3.43186
3.43779
3.44157
3.44703
3.45097
3.45757
3.46371
3.46686
3.47043
3.47251
3.47524
3.47689
3.47913
3.48051
3.48239
3.48354
3.48512
3.48609
3.48743
3.48824
3.48936
3.49003
3.49095
3.49149
3.49221
3.49261
3.49309
3.49342
3.49392
3.49425
3.49472
3.49502
3.49544
3.49571
3.49608
3.49631
3.49663
3.49682
3.49708
3.49724
3.49743
3.49751
3.49754
3.4974
3.49686
3.4957
3.49243
3.48705
3.48186
3.47137
3.46115
3.44185
3.43461
3.4326
3.4321
3.43198
3.15836
3.20514
3.23527
3.26915
3.28891
3.31148
3.32518
3.34169
3.35181
3.36401
3.37116
3.37935
3.38513
3.39344
3.39917
3.40704
3.41232
3.41941
3.42411
3.43035
3.43448
3.43992
3.44351
3.44824
3.45137
3.45551
3.45831
3.46213
3.46505
3.46968
3.474
3.47634
3.47884
3.48038
3.48229
3.48351
3.48507
3.48609
3.4874
3.48825
3.48936
3.49008
3.49101
3.49161
3.49239
3.49289
3.49353
3.49393
3.49443
3.49472
3.49506
3.4953
3.49565
3.49589
3.49622
3.49645
3.49674
3.49694
3.4972
3.49737
3.49759
3.49773
3.49791
3.49803
3.49816
3.49822
3.49824
3.49813
3.49774
3.49687
3.49454
3.49075
3.4869
3.47954
3.47202
3.45878
3.45344
3.4519
3.45151
3.45142
3.29574
3.32285
3.34121
3.36128
3.37338
3.38675
3.39515
3.40492
3.41111
3.41833
3.42271
3.42758
3.43112
3.43603
3.43953
3.44418
3.44742
3.45161
3.45449
3.45818
3.4607
3.46392
3.46612
3.46892
3.47084
3.47329
3.475
3.47726
3.47905
3.4818
3.48437
3.4858
3.48729
3.48823
3.48936
3.49011
3.49104
3.49166
3.49243
3.49296
3.49361
3.49405
3.4946
3.49497
3.49543
3.49573
3.49611
3.49636
3.49665
3.49683
3.49704
3.49718
3.49739
3.49754
3.49773
3.49787
3.49804
3.49816
3.49832
3.49842
3.49855
3.49864
3.49875
3.49882
3.49889
3.49893
3.49894
3.49887
3.49863
3.4981
3.4967
3.49445
3.49209
3.48772
3.48313
3.47539
3.47213
3.47116
3.47091
3.47085
3.43203
3.44092
3.44708
3.45373
3.4578
3.46223
3.46505
3.46829
3.47037
3.47277
3.47424
3.47585
3.47704
3.47867
3.47985
3.48139
3.48248
3.48386
3.48483
3.48606
3.4869
3.48797
3.48871
3.48964
3.49028
3.49109
3.49167
3.49242
3.49302
3.49393
3.49479
3.49527
3.49576
3.49608
3.49645
3.4967
3.49701
3.49722
3.49748
3.49765
3.49787
3.49802
3.4982
3.49832
3.49848
3.49858
3.4987
3.49879
3.49888
3.49894
3.49901
3.49906
3.49913
3.49918
3.49924
3.49929
3.49935
3.49939
3.49944
3.49947
3.49952
3.49955
3.49958
3.49961
3.49963
3.49964
3.49965
3.49962
3.49954
3.49936
3.4989
3.49815
3.49735
3.4959
3.49436
3.49181
3.49072
3.49039
3.4903
3.49029
3.43214
3.44045
3.44578
3.4508
3.45353
3.45603
3.45742
3.45876
3.45951
3.46025
3.46076
3.46143
3.4619
3.46252
3.46295
3.4635
3.46389
3.46438
3.46473
3.46517
3.46548
3.46587
3.46615
3.46649
3.46674
3.46704
3.46726
3.46754
3.46776
3.4681
3.46841
3.46858
3.46876
3.46887
3.46899
3.46908
3.46918
3.46925
3.46933
3.46938
3.46945
3.46949
3.46955
3.46959
3.46963
3.46966
3.46969
3.46972
3.46974
3.46976
3.46977
3.46979
3.4698
3.46981
3.46982
3.46983
3.46984
3.46984
3.46984
3.46983
3.46982
3.4698
3.46977
3.46974
3.46967
3.4696
3.46947
3.46931
3.46899
3.46852
3.46746
3.466
3.46468
3.46251
3.46041
3.45713
3.45573
3.4553
3.4552
3.45517
3.29609
3.32148
3.33735
3.3525
3.3606
3.36812
3.37226
3.3763
3.37854
3.38075
3.38227
3.38429
3.3857
3.38755
3.38884
3.39051
3.39166
3.39316
3.39419
3.39553
3.39645
3.39763
3.39844
3.39949
3.4002
3.40112
3.40177
3.40262
3.40328
3.4043
3.40524
3.40575
3.40628
3.4066
3.40699
3.40723
3.40754
3.40774
3.40799
3.40815
3.40835
3.40848
3.40865
3.40875
3.40889
3.40897
3.40908
3.40915
3.40923
3.40927
3.40932
3.40936
3.40941
3.40944
3.40947
3.40949
3.40951
3.40952
3.40951
3.4095
3.40946
3.40941
3.40931
3.40921
3.40902
3.40881
3.40841
3.40795
3.40698
3.40558
3.40241
3.398
3.39408
3.38752
3.38128
3.37131
3.36714
3.3659
3.36558
3.36551
3.15902
3.20288
3.22896
3.25448
3.2677
3.28035
3.2871
3.29391
3.29756
3.30128
3.30376
3.30717
3.30949
3.31262
3.31472
3.31754
3.31942
3.32195
3.32364
3.3259
3.3274
3.3294
3.33073
3.33249
3.33366
3.33522
3.33627
3.3377
3.33879
3.3405
3.34208
3.34292
3.3438
3.34433
3.34498
3.34539
3.3459
3.34623
3.34665
3.34691
3.34725
3.34747
3.34775
3.34792
3.34815
3.34829
3.34847
3.34858
3.34871
3.34879
3.34887
3.34893
3.34901
3.34906
3.34912
3.34915
3.34919
3.3492
3.34919
3.34916
3.34909
3.34901
3.34885
3.34869
3.34836
3.34802
3.34736
3.3466
3.34499
3.34272
3.3374
3.32998
3.32358
3.31252
3.30231
3.28526
3.27843
3.27646
3.27596
3.27584
3.0202
3.085
3.12058
3.15695
3.17482
3.19282
3.20193
3.21166
3.21658
3.22186
3.22521
3.2301
3.23324
3.23772
3.24056
3.2446
3.24716
3.25078
3.25307
3.25629
3.25833
3.26119
3.263
3.26552
3.26711
3.26933
3.27076
3.2728
3.27427
3.27671
3.27895
3.28008
3.28134
3.28206
3.28299
3.28354
3.28427
3.28472
3.28531
3.28567
3.28616
3.28645
3.28685
3.28709
3.28741
3.28761
3.28786
3.28801
3.2882
3.2883
3.28843
3.2885
3.28862
3.28868
3.28877
3.28882
3.28886
3.28888
3.28886
3.28883
3.28873
3.28862
3.2884
3.28817
3.28771
3.28725
3.28631
3.28529
3.28302
3.27997
3.27248
3.26192
3.25327
3.23749
3.2236
3.19881
3.18953
3.18696
3.18632
3.18617
2.87879
2.96828
3.01218
3.06016
3.08193
3.10564
3.11675
3.12959
3.13559
3.14252
3.1466
3.1531
3.15693
3.16288
3.16637
3.17173
3.17485
3.17966
3.18245
3.18674
3.18923
3.19303
3.19523
3.19859
3.20053
3.20348
3.20522
3.20793
3.20971
3.21292
3.21587
3.21724
3.2189
3.21978
3.22101
3.22168
3.22266
3.2232
3.22399
3.22443
3.22507
3.22544
3.22596
3.22625
3.22668
3.22692
3.22726
3.22744
3.22769
3.22782
3.22798
3.22807
3.22822
3.22831
3.22842
3.22848
3.22854
3.22856
3.22854
3.2285
3.22837
3.22824
3.22794
3.22766
3.22705
3.2265
3.22526
3.22402
3.22109
3.21741
3.20769
3.19379
3.18325
3.16238
3.14533
3.11173
3.10036
3.09739
3.09666
3.0965
2.73379
2.85339
2.90361
2.96441
2.98896
3.01896
3.03149
3.04779
3.05456
3.06329
3.0679
3.0762
3.08054
3.08815
3.09209
3.09894
3.10248
3.10862
3.11178
3.11726
3.12008
3.12494
3.12743
3.13171
3.1339
3.13768
3.13964
3.14309
3.1451
3.14915
3.15285
3.15439
3.15649
3.15749
3.15905
3.15981
3.16106
3.16167
3.16268
3.16318
3.164
3.16441
3.16508
3.16541
3.16596
3.16622
3.16666
3.16686
3.16719
3.16733
3.16753
3.16764
3.16783
3.16793
3.16808
3.16814
3.16822
3.16824
3.16822
3.16817
3.16801
3.16786
3.16748
3.16717
3.1664
3.16577
3.16421
3.16283
3.15919
3.15508
3.14305
3.12552
3.11363
3.08712
3.06773
3.02376
3.01085
3.00772
3.00698
3.00682
2.58401
2.74127
2.79461
2.87012
2.89578
2.93299
2.94608
2.96638
2.97345
2.98422
2.98905
2.99947
3.00402
3.01356
3.0177
3.02628
3.03
3.03769
3.04102
3.04788
3.05084
3.05693
3.05955
3.06492
3.06722
3.07195
3.074
3.0783
3.08041
3.08539
3.08991
3.09152
3.09413
3.09517
3.09712
3.09792
3.09948
3.10013
3.10139
3.10191
3.10294
3.10337
3.10421
3.10456
3.10525
3.10553
3.10607
3.10628
3.10669
3.10684
3.10709
3.10721
3.10745
3.10755
3.10774
3.1078
3.1079
3.10792
3.1079
3.10785
3.10765
3.10749
3.10702
3.10669
3.10574
3.10508
3.10316
3.10172
3.0973
3.09308
3.07864
3.05702
3.04461
3.01158
2.9911
2.93456
2.92096
2.91796
2.91728
2.91713
2.42794
2.63331
2.68473
2.77782
2.80213
2.84797
2.86039
2.8855
2.8922
2.90539
2.90997
2.92297
2.9273
2.93919
2.94313
2.95382
2.95736
2.96695
2.97011
2.97867
2.98148
2.98907
2.99156
2.99824
3.00044
3.00632
3.00828
3.01361
3.0156
3.02165
3.02709
3.02861
3.03183
3.03281
3.03524
3.03601
3.03794
3.03856
3.04013
3.04063
3.04191
3.04232
3.04337
3.0437
3.04455
3.04482
3.04549
3.0457
3.0462
3.04635
3.04666
3.04676
3.04707
3.04716
3.0474
3.04746
3.04759
3.0476
3.04758
3.04753
3.04728
3.04714
3.04655
3.04624
3.04506
3.04444
3.04209
3.04073
3.03541
3.03148
3.01452
2.98816
2.9764
2.93553
2.91592
2.84363
2.83064
2.8281
2.82755
2.82743
2.26366
2.53151
2.57318
2.68827
2.70763
2.7643
2.77418
2.80535
2.81068
2.82691
2.83056
2.84681
2.85028
2.86514
2.86829
2.88165
2.88448
2.89646
2.89899
2.90968
2.91193
2.92141
2.9234
2.93175
2.93351
2.94085
2.94241
2.94904
2.95062
2.95793
2.96443
2.96563
2.96961
2.9704
2.97343
2.97404
2.97646
2.97695
2.97891
2.97931
2.98091
2.98124
2.98255
2.98281
2.98388
2.98409
2.98493
2.9851
2.98573
2.98585
2.98623
2.98632
2.9867
2.98677
2.98707
2.98712
2.98728
2.98729
2.98726
2.98722
2.98692
2.9868
2.98607
2.98582
2.98436
2.98387
2.98097
2.9799
2.97346
2.9704
2.95077
2.91871
2.90937
2.85863
2.84284
2.75033
2.7399
2.73817
2.73781
2.73773
2.08866
2.43875
2.45869
2.60255
2.61162
2.68249
2.68713
2.72623
2.72873
2.74892
2.75064
2.77116
2.7728
2.79155
2.79304
2.8099
2.81123
2.82634
2.82754
2.84102
2.84209
2.85405
2.85499
2.86553
2.86635
2.87561
2.87635
2.88468
2.88542
2.89424
2.90198
2.90253
2.90753
2.9079
2.91171
2.912
2.91505
2.91528
2.91776
2.91794
2.91997
2.92012
2.92177
2.9219
2.92324
2.92334
2.9244
2.92448
2.92528
2.92533
2.92581
2.92586
2.92634
2.92637
2.92675
2.92677
2.92697
2.92698
2.92694
2.92692
2.92654
2.92649
2.92557
2.92546
2.92363
2.9234
2.91979
2.91929
2.91137
2.90998
2.88752
2.84835
2.84398
2.78034
2.77284
2.65375
2.64881
2.64818
2.64806
2.64803
)
;

boundaryField
{
    F1_1
    {
        type            fixedValue;
        value           nonuniform List<scalar> 
80
(
1.99438
2.39947
2.39947
2.56347
2.56347
2.64525
2.64525
2.69252
2.69252
2.72243
2.72243
2.73963
2.73963
2.75848
2.75848
2.77646
2.77646
2.79301
2.79301
2.80799
2.80799
2.82137
2.82137
2.8332
2.8332
2.84364
2.84364
2.85303
2.85303
2.8627
2.8711
2.8711
2.87674
2.87674
2.88105
2.88105
2.8845
2.8845
2.88731
2.88731
2.88959
2.88959
2.89147
2.89147
2.89298
2.89298
2.89419
2.89419
2.8951
2.8951
2.89564
2.89564
2.89619
2.89619
2.89661
2.89661
2.89683
2.89683
2.89679
2.89679
2.89636
2.89636
2.89531
2.89531
2.89324
2.89324
2.88914
2.88914
2.8802
2.8802
2.85623
2.81248
2.81248
2.74007
2.74007
2.60318
2.60318
2.60318
2.60318
2.60318
)
;
    }
    F1_2
    {
        type            fixedValue;
        value           nonuniform List<scalar> 
80
(
1.9831
2.40803
2.40803
2.63207
2.63207
2.78166
2.78166
2.89296
2.89296
2.97632
2.97632
3.0284
3.0284
3.08582
3.08582
3.1398
3.1398
3.1882
3.1882
3.23075
3.23075
3.26782
3.26782
3.30002
3.30002
3.3281
3.3281
3.35335
3.35335
3.37967
3.40301
3.40301
3.41921
3.41921
3.43204
3.43204
3.44266
3.44266
3.45158
3.45158
3.4591
3.4591
3.46543
3.46543
3.47073
3.47073
3.4751
3.4751
3.47852
3.47852
3.48069
3.48069
3.48311
3.48311
3.48538
3.48538
3.48741
3.48741
3.48917
3.48917
3.49069
3.49069
3.49195
3.49195
3.4929
3.4929
3.49324
3.49324
3.49169
3.49169
3.48264
3.4604
3.4604
3.41311
3.41311
3.30552
3.30552
3.30552
3.30552
3.30552
)
;
    }
    F1_3
    {
        type            fixedValue;
        value           nonuniform List<scalar> 
80
(
1.98309
2.40802
2.40802
2.63206
2.63206
2.78165
2.78165
2.89295
2.89295
2.97632
2.97632
3.0284
3.0284
3.08581
3.08581
3.1398
3.1398
3.1882
3.1882
3.23075
3.23075
3.26782
3.26782
3.30002
3.30002
3.3281
3.3281
3.35335
3.35335
3.37966
3.403
3.403
3.41921
3.41921
3.43204
3.43204
3.44266
3.44266
3.45158
3.45158
3.45909
3.45909
3.46543
3.46543
3.47073
3.47073
3.4751
3.4751
3.47852
3.47852
3.48069
3.48069
3.48311
3.48311
3.48538
3.48538
3.4874
3.4874
3.48917
3.48917
3.49069
3.49069
3.49195
3.49195
3.4929
3.4929
3.49324
3.49324
3.49169
3.49169
3.48264
3.4604
3.4604
3.41312
3.41312
3.30554
3.30554
3.30554
3.30554
3.30554
)
;
    }
    F1_4
    {
        type            fixedValue;
        value           nonuniform List<scalar> 
80
(
1.99414
2.39896
2.39896
2.56238
2.56238
2.64291
2.64291
2.6874
2.6874
2.7103
2.7103
2.73372
2.73372
2.7551
2.7551
2.77433
2.77433
2.79156
2.79156
2.80694
2.80694
2.82059
2.82059
2.8326
2.8326
2.84316
2.84316
2.85265
2.85265
2.86242
2.8709
2.8709
2.87658
2.87658
2.88093
2.88093
2.8844
2.8844
2.88722
2.88722
2.88953
2.88953
2.89141
2.89141
2.89294
2.89294
2.89416
2.89416
2.89507
2.89507
2.89562
2.89562
2.89617
2.89617
2.89659
2.89659
2.89682
2.89682
2.89678
2.89678
2.89635
2.89635
2.89531
2.89531
2.89323
2.89323
2.88913
2.88913
2.8802
2.8802
2.85623
2.81248
2.81248
2.74007
2.74007
2.60318
2.60318
2.60318
2.60318
2.60318
)
;
    }
    F2_1
    {
        type            fixedValue;
        value           uniform 3.5;
    }
    F2_2
    {
        type            fixedValue;
        value           uniform 3.5;
    }
    F2_3
    {
        type            fixedValue;
        value           uniform 3.5;
    }
    F2_4
    {
        type            fixedValue;
        value           uniform 3.5;
    }
    defaultFaces
    {
        type            empty;
    }
}


// ************************************************************************* //
