/*--------------------------------*- C++ -*----------------------------------*\
| =========                 |                                                 |
| \\      /  F ield         | OpenFOAM: The Open Source CFD Toolbox           |
|  \\    /   O peration     | Version:  5.x                                   |
|   \\  /    A nd           | Web:      www.OpenFOAM.org                      |
|    \\/     M anipulation  |                                                 |
\*---------------------------------------------------------------------------*/
FoamFile
{
    version     2.0;
    format      ascii;
    class       volScalarField;
    location    "8.1";
    object      gradTy;
}
// * * * * * * * * * * * * * * * * * * * * * * * * * * * * * * * * * * * * * //

dimensions      [0 -1 0 1 0 0 0];

internalField   nonuniform List<scalar> 
3200
(
18.2485
8.63568
11.7296
8.31229
9.74965
8.03971
8.79388
7.79266
8.24155
7.60073
7.87613
7.51725
7.72771
7.31738
7.52963
7.13937
7.33853
6.97999
7.16175
6.83786
7.00117
6.71225
6.85732
6.60222
6.73021
6.50609
6.62033
6.42073
6.53569
6.3666
6.23149
6.31861
6.20018
6.25781
6.1657
6.21032
6.13638
6.17227
6.11218
6.14136
6.09235
6.11612
6.07621
6.0955
6.06324
6.07867
6.05314
6.06502
6.04593
6.0541
6.04304
6.04917
6.03763
6.043
6.0341
6.0377
6.03282
6.03384
6.03454
6.03185
6.04063
6.03227
6.05364
6.03581
6.07861
6.04274
6.1265
6.04832
6.22314
6.00071
6.29313
7.10893
6.42159
7.94779
6.78062
9.89652
9.12584
9.00798
8.98365
8.97841
17.009
9.7516
11.332
8.77627
9.54689
8.26989
8.67366
7.92519
8.16439
7.68493
7.83197
7.5641
7.67625
7.36886
7.48098
7.18863
7.29394
7.02538
7.12151
6.87892
6.96532
6.74892
6.82568
6.63463
6.70238
6.53456
6.59519
6.44592
6.50824
6.37039
6.25636
6.30424
6.21579
6.24651
6.17757
6.20123
6.14587
6.16488
6.11988
6.13533
6.09863
6.11122
6.08133
6.09154
6.06739
6.07555
6.05643
6.06271
6.04841
6.05275
6.04449
6.04775
6.0391
6.04193
6.03526
6.03715
6.03349
6.03402
6.03453
6.03308
6.03964
6.03517
6.05114
6.0416
6.07356
6.05426
6.11669
6.0739
6.20335
6.07613
6.35162
6.99362
6.62345
7.7651
7.15805
9.50317
9.09969
9.0042
8.98285
8.97816
16.0597
10.5139
11.0998
9.10715
9.426
8.43281
8.59948
8.01818
8.11593
7.74403
7.80437
7.5957
7.64154
7.40351
7.44847
7.22195
7.26425
7.05614
7.09479
6.90679
6.94154
6.77383
6.80472
6.65664
6.68393
6.55385
6.57842
6.4626
6.48876
6.3732
6.27474
6.2953
6.2266
6.23917
6.18571
6.19528
6.15236
6.16003
6.12515
6.13138
6.10293
6.108
6.08483
6.08894
6.07022
6.07351
6.05869
6.06121
6.05014
6.0519
6.04547
6.0468
6.0401
6.04123
6.03607
6.03682
6.03399
6.03419
6.03459
6.03399
6.03908
6.03724
6.04965
6.04571
6.07056
6.0625
6.11108
6.09258
6.19381
6.13543
6.39545
6.9188
6.76484
7.65238
7.41742
9.21979
9.06125
8.99749
8.98141
8.97776
15.3322
11.031
10.9708
9.34557
9.35758
8.54932
8.55521
8.084
8.08625
7.78583
7.78754
7.61712
7.61818
7.42685
7.42682
7.24452
7.24459
7.07702
7.07713
6.92574
6.92585
6.7908
6.79091
6.67165
6.67178
6.56695
6.56726
6.47361
6.47495
6.37532
6.28835
6.28992
6.23417
6.23448
6.19133
6.19143
6.15683
6.15688
6.12877
6.12881
6.10588
6.10591
6.08724
6.08726
6.07218
6.07219
6.06025
6.06026
6.05135
6.05138
6.04614
6.04616
6.04079
6.04079
6.03664
6.03663
6.03436
6.03435
6.03469
6.03466
6.03881
6.03875
6.04882
6.04868
6.06887
6.06847
6.10816
6.10647
6.19066
6.18199
6.42875
6.87108
6.86456
7.58456
7.59529
9.01485
9.01902
8.98887
8.97948
8.97721
14.7768
11.3785
10.9043
9.5185
9.32197
8.63327
8.53004
8.13089
8.06869
7.81555
7.77758
7.63169
7.60252
7.44253
7.41246
7.25979
7.23162
7.0912
7.06553
6.93863
6.91557
6.80235
6.78188
6.68187
6.66383
6.57585
6.55986
6.48082
6.46518
6.37693
6.29842
6.28684
6.23949
6.23152
6.19523
6.18897
6.15991
6.15486
6.13126
6.12715
6.10791
6.10456
6.0889
6.08618
6.07353
6.07135
6.06134
6.05967
6.0522
6.05106
6.0466
6.04575
6.04127
6.0405
6.03704
6.03653
6.03464
6.03449
6.03481
6.03517
6.0387
6.03984
6.04839
6.05083
6.06801
6.07284
6.1069
6.11693
6.19123
6.21834
6.45422
6.84131
6.93523
7.54511
7.71681
8.86653
8.97817
8.97942
8.97726
8.97658
14.3573
11.6089
10.8743
9.64385
9.30605
8.69381
8.51669
8.1643
8.05876
7.83667
7.77194
7.64158
7.59209
7.45301
7.403
7.27007
7.22315
7.1008
7.05798
6.94737
6.9089
6.8102
6.77603
6.68882
6.65867
6.58187
6.55498
6.48549
6.45832
6.37816
6.30581
6.28519
6.24324
6.2297
6.19792
6.18741
6.16203
6.15358
6.13298
6.1261
6.10931
6.10371
6.09004
6.0855
6.07446
6.07083
6.0621
6.0593
6.0528
6.05088
6.04692
6.04548
6.0416
6.04033
6.03733
6.03648
6.03486
6.03462
6.03493
6.03556
6.03868
6.04065
6.04821
6.0524
6.06764
6.07604
6.10659
6.12482
6.19368
6.24633
6.47365
6.82326
6.98526
7.52318
7.79922
8.75973
8.94173
8.97011
8.97499
8.97591
14.0477
11.7589
10.8641
9.7335
9.30111
8.73693
8.51036
8.18783
8.05349
7.85148
7.76893
7.64824
7.58525
7.45993
7.39686
7.27692
7.21769
7.1072
7.05313
6.95323
6.90464
6.81546
6.7723
6.69348
6.65538
6.58589
6.55181
6.48847
6.45357
6.37907
6.31114
6.28439
6.24586
6.2286
6.19976
6.18646
6.16347
6.15278
6.13414
6.12545
6.11026
6.10318
6.09082
6.08508
6.0751
6.07051
6.06262
6.05909
6.05322
6.05078
6.04713
6.0453
6.04182
6.04023
6.03753
6.03646
6.03502
6.03472
6.03503
6.03584
6.03872
6.04122
6.04816
6.05352
6.06754
6.07836
6.10677
6.13069
6.19678
6.26734
6.48818
6.81273
7.02025
7.51174
7.85424
8.68407
8.91143
8.96174
8.97287
8.97529
13.8297
11.853
10.8634
9.79523
9.30144
8.76655
8.50787
8.20383
8.05092
7.86152
7.76744
7.65259
7.58089
7.46436
7.39299
7.28134
7.21428
7.11135
7.05012
6.95703
6.902
6.81889
6.76999
6.69652
6.65334
6.58849
6.5498
6.49031
6.45041
6.37972
6.31481
6.28406
6.24762
6.22797
6.20098
6.18589
6.16442
6.15231
6.13491
6.12506
6.11089
6.10287
6.09133
6.08483
6.07552
6.07031
6.06296
6.05896
6.0535
6.05073
6.04727
6.04519
6.04196
6.04017
6.03767
6.03646
6.03513
6.0348
6.03511
6.03604
6.03876
6.04162
6.04817
6.05429
6.06757
6.07997
6.10714
6.13486
6.1997
6.28234
6.49856
6.80687
7.04388
7.50625
7.88977
8.63251
8.88822
8.95494
8.9711
8.97476
13.6908
11.9077
10.8658
9.83397
9.30341
8.78512
8.50718
8.21378
8.04982
7.86775
7.76678
7.65521
7.57833
7.46698
7.39073
7.28397
7.21231
7.11384
7.04839
6.95931
6.90048
6.82094
6.76867
6.69834
6.65218
6.59005
6.54863
6.49136
6.44847
6.38014
6.31712
6.28396
6.2487
6.22763
6.20172
6.18557
6.165
6.15204
6.13538
6.12484
6.11127
6.10269
6.09164
6.08469
6.07577
6.07021
6.06317
6.0589
6.05367
6.05071
6.04736
6.04513
6.04205
6.04013
6.03775
6.03647
6.0352
6.03485
6.03517
6.03617
6.0388
6.04188
6.04821
6.05478
6.06764
6.08099
6.10748
6.13755
6.2019
6.29199
6.50527
6.80386
7.0585
7.50391
7.91093
8.60043
8.87257
8.95016
8.96984
8.97438
13.6232
11.9327
10.8678
9.85266
9.30489
8.79408
8.50712
8.21856
8.04943
7.87073
7.76654
7.65644
7.57714
7.4682
7.38969
7.2852
7.2114
7.115
7.04759
6.96037
6.89979
6.8219
6.76807
6.69919
6.65164
6.59078
6.54808
6.49184
6.44756
6.38034
6.31823
6.28395
6.24922
6.22748
6.20207
6.18543
6.16527
6.15192
6.13559
6.12475
6.11145
6.10261
6.09179
6.08462
6.07589
6.07016
6.06327
6.05887
6.05376
6.0507
6.0474
6.0451
6.04209
6.04012
6.03779
6.03647
6.03524
6.03488
6.03519
6.03623
6.03883
6.042
6.04823
6.05501
6.06768
6.08149
6.10768
6.13887
6.20308
6.29672
6.50856
6.80262
7.06549
7.50312
7.92079
8.58504
8.86471
8.9477
8.96918
8.97418
-13.7627
-11.9572
-10.7282
-9.38903
-8.57862
-7.68678
-7.12483
-6.47294
-6.05791
-5.57581
-5.28236
-4.95671
-4.71908
-4.39054
-4.15483
-3.84309
-3.62524
-3.34399
-3.14971
-2.90152
-2.73094
-2.51404
-2.36521
-2.17619
-2.04615
-1.88015
-1.76356
-1.60953
-1.48707
-1.29934
-1.12357
-1.02492
-0.922541
-0.857177
-0.779036
-0.726887
-0.662369
-0.61882
-0.564434
-0.527602
-0.48148
-0.450235
-0.411117
-0.384678
-0.351689
-0.329565
-0.302255
-0.284355
-0.262947
-0.249735
-0.234836
-0.223863
-0.208578
-0.197565
-0.18294
-0.172693
-0.159433
-0.150262
-0.138537
-0.130492
-0.120293
-0.113376
-0.104747
-0.0991299
-0.0925683
-0.0892132
-0.087171
-0.0906129
-0.104866
-0.138778
-0.228855
-0.374944
-0.529506
-0.815962
-1.11861
-1.62772
-1.84309
-1.90708
-1.92365
-1.92751
-13.835
-11.9342
-10.7326
-9.36788
-8.58188
-7.67358
-7.12843
-6.46348
-6.06059
-5.56827
-5.28365
-4.9532
-4.72272
-4.38683
-4.15788
-3.83934
-3.62778
-3.34052
-3.15187
-2.89842
-2.7328
-2.51132
-2.36683
-2.17384
-2.04759
-1.87818
-1.76507
-1.60827
-1.48968
-1.29887
-1.12049
-1.02507
-0.921063
-0.857691
-0.777998
-0.727384
-0.661533
-0.619255
-0.563734
-0.527976
-0.480887
-0.450552
-0.410611
-0.384942
-0.351256
-0.329774
-0.30188
-0.284497
-0.26262
-0.249803
-0.23468
-0.224037
-0.208408
-0.197711
-0.182766
-0.172815
-0.15927
-0.150365
-0.138391
-0.130579
-0.120163
-0.113446
-0.104627
-0.0991685
-0.0924407
-0.0891614
-0.0869522
-0.0901811
-0.10408
-0.136532
-0.226615
-0.374606
-0.524231
-0.815315
-1.11035
-1.63947
-1.84914
-1.90898
-1.92416
-1.92766
-13.9832
-11.8832
-10.7436
-9.32359
-8.59004
-7.64587
-7.13683
-6.44353
-6.06686
-5.55242
-5.28678
-4.94569
-4.73058
-4.37885
-4.16452
-3.83132
-3.63335
-3.33311
-3.15662
-2.89181
-2.73689
-2.50553
-2.37038
-2.16882
-2.05076
-1.87396
-1.76832
-1.60548
-1.49519
-1.2979
-1.11409
-1.02557
-0.917962
-0.85886
-0.7758
-0.728493
-0.659756
-0.620223
-0.562245
-0.528804
-0.479626
-0.451255
-0.409537
-0.385528
-0.350336
-0.330241
-0.301086
-0.28482
-0.261933
-0.249966
-0.234347
-0.224411
-0.208043
-0.198027
-0.182393
-0.173081
-0.158923
-0.150592
-0.138079
-0.130771
-0.119885
-0.1136
-0.104374
-0.0992586
-0.092176
-0.0890675
-0.0865167
-0.0893232
-0.102553
-0.131981
-0.222059
-0.374202
-0.513297
-0.814509
-1.09273
-1.664
-1.86119
-1.91266
-1.92514
-1.92795
-14.2155
-11.7937
-10.7657
-9.25185
-8.60663
-7.60076
-7.1526
-6.41092
-6.07865
-5.52663
-5.29294
-4.93314
-4.74392
-4.36537
-4.17591
-3.81789
-3.64301
-3.32075
-3.16492
-2.88081
-2.74405
-2.49589
-2.3766
-2.16046
-2.05629
-1.8669
-1.77386
-1.6006
-1.50418
-1.2964
-1.10388
-1.02684
-0.912923
-0.860991
-0.772175
-0.730462
-0.656813
-0.621931
-0.559778
-0.530265
-0.477534
-0.452494
-0.407756
-0.386563
-0.348814
-0.331072
-0.299778
-0.285409
-0.26081
-0.250276
-0.233787
-0.225044
-0.207424
-0.19857
-0.181769
-0.173543
-0.158344
-0.150987
-0.13756
-0.131107
-0.119425
-0.113873
-0.103957
-0.0994283
-0.0917531
-0.088952
-0.0858675
-0.0880489
-0.100378
-0.125005
-0.215021
-0.37432
-0.495879
-0.814622
-1.06339
-1.70349
-1.87906
-1.91791
-1.9265
-1.92836
-14.5446
-11.6486
-10.8073
-9.14536
-8.63765
-7.53335
-7.18012
-6.36195
-6.09923
-5.48811
-5.30414
-4.91378
-4.76483
-4.34434
-4.19405
-3.79714
-3.65858
-3.30174
-3.17835
-2.86393
-2.75567
-2.4811
-2.38669
-2.14763
-2.06523
-1.85598
-1.78262
-1.59264
-1.51763
-1.29429
-1.08906
-1.02958
-0.905409
-0.864599
-0.766668
-0.733711
-0.652322
-0.624732
-0.556007
-0.532656
-0.474337
-0.454522
-0.405035
-0.388262
-0.346494
-0.332447
-0.297795
-0.286409
-0.259127
-0.250825
-0.232919
-0.226034
-0.206457
-0.199432
-0.180803
-0.174285
-0.157453
-0.151627
-0.136763
-0.131654
-0.11872
-0.114321
-0.103325
-0.0997246
-0.0911361
-0.0888487
-0.0850085
-0.0863695
-0.0977119
-0.115413
-0.205212
-0.375949
-0.470573
-0.817535
-1.01839
-1.76156
-1.90241
-1.92436
-1.92813
-1.92884
-14.9896
-11.4212
-10.8818
-8.99271
-8.69254
-7.4359
-7.22624
-6.29075
-6.13375
-5.43252
-5.32361
-4.88476
-4.79661
-4.31251
-4.22206
-3.76606
-3.68289
-3.27339
-3.19942
-2.8388
-2.77394
-2.45911
-2.40258
-2.12853
-2.07924
-1.83964
-1.79605
-1.5801
-1.53701
-1.29145
-1.06841
-1.03492
-0.894562
-0.870495
-0.758565
-0.7389
-0.645681
-0.62918
-0.550423
-0.536449
-0.469602
-0.45774
-0.401008
-0.390963
-0.343067
-0.334648
-0.294883
-0.288046
-0.256685
-0.25176
-0.231612
-0.227532
-0.204988
-0.200759
-0.179354
-0.17544
-0.156122
-0.152628
-0.135577
-0.132514
-0.117674
-0.115034
-0.102399
-0.100221
-0.0902678
-0.0888082
-0.0839421
-0.0842915
-0.0947921
-0.102939
-0.192165
-0.380622
-0.435174
-0.826292
-0.9517
-1.84372
-1.93051
-1.93154
-1.92988
-1.92935
-15.5773
-11.0727
-11.0102
-8.77651
-8.78569
-7.29657
-7.3014
-6.18843
-6.19005
-5.35323
-5.35628
-4.84173
-4.84423
-4.26494
-4.2647
-3.72008
-3.72025
-3.23163
-3.23197
-2.80184
-2.80222
-2.42679
-2.42717
-2.10045
-2.10088
-1.81546
-1.81637
-1.56064
-1.5645
-1.28772
-1.04018
-1.04453
-0.879067
-0.879908
-0.746774
-0.747033
-0.635974
-0.636121
-0.54225
-0.542358
-0.46267
-0.462754
-0.395115
-0.39518
-0.338062
-0.338105
-0.290655
-0.290666
-0.253188
-0.253306
-0.229663
-0.229771
-0.202788
-0.202775
-0.177206
-0.177212
-0.154159
-0.154174
-0.133832
-0.133847
-0.116142
-0.116148
-0.101055
-0.10103
-0.0890605
-0.0889047
-0.0826678
-0.0818081
-0.0919672
-0.0872213
-0.17515
-0.390651
-0.386313
-0.845678
-0.854346
-1.95809
-1.96204
-1.93883
-1.93158
-1.92984
-16.3452
-10.5465
-11.2255
-8.4706
-8.93878
-7.09749
-7.42128
-6.04153
-6.27989
-5.24035
-5.40965
-4.77801
-4.91513
-4.19421
-4.32912
-3.6523
-3.77717
-3.17031
-3.28174
-2.74767
-2.84553
-2.37945
-2.46485
-2.05929
-2.13395
-1.77983
-1.84696
-1.5308
-1.60321
-1.28283
-1.00188
-1.06094
-0.856923
-0.894683
-0.72965
-0.759622
-0.621822
-0.646826
-0.53032
-0.551461
-0.452548
-0.47048
-0.386515
-0.401686
-0.330773
-0.343463
-0.28453
-0.294788
-0.248188
-0.255803
-0.226766
-0.233094
-0.199511
-0.205814
-0.174036
-0.179909
-0.151275
-0.156534
-0.131275
-0.135889
-0.113902
-0.117867
-0.0991089
-0.102317
-0.0873814
-0.0892452
-0.0811791
-0.0788846
-0.089739
-0.0677976
-0.153033
-0.409474
-0.318903
-0.883091
-0.713189
-2.11645
-1.99466
-1.94547
-1.93307
-1.93025
-17.3451
-9.76119
-11.5782
-8.03577
-9.18425
-6.81181
-7.60931
-5.8299
-6.42085
-5.07913
-5.49507
-4.68356
-5.02035
-4.08925
-4.42601
-3.55246
-3.86336
-3.08027
-3.35734
-2.66822
-2.91141
-2.31005
-2.52217
-1.99892
-2.18417
-1.72735
-1.89289
-1.48542
-1.65764
-1.27636
-0.949984
-1.08787
-0.825111
-0.917572
-0.704729
-0.778924
-0.601159
-0.663193
-0.512887
-0.565369
-0.437755
-0.482283
-0.373952
-0.411637
-0.320141
-0.351687
-0.275639
-0.301185
-0.241021
-0.259768
-0.222455
-0.238015
-0.194639
-0.210377
-0.169362
-0.183986
-0.147036
-0.160116
-0.127523
-0.138996
-0.110625
-0.120495
-0.0962852
-0.104331
-0.0850311
-0.0899836
-0.0794602
-0.0754359
-0.0888233
-0.0440874
-0.124068
-0.442178
-0.225304
-0.949868
-0.509104
-2.33582
-2.02437
-1.95065
-1.93417
-1.93056
-18.6486
-8.60011
-12.1454
-7.41357
-9.57082
-6.39961
-7.90068
-5.52373
-6.63938
-4.84786
-5.62985
-4.54343
-5.17655
-3.93383
-4.57157
-3.4055
-3.99356
-2.94806
-3.47182
-2.55172
-3.0113
-2.20833
-2.60912
-1.91042
-2.26029
-1.65018
-1.96194
-1.41704
-1.7344
-1.26786
-0.87967
-1.13098
-0.779231
-0.952816
-0.668456
-0.808435
-0.571025
-0.688174
-0.487453
-0.586591
-0.416178
-0.500302
-0.355642
-0.426849
-0.304673
-0.364301
-0.262763
-0.311089
-0.23077
-0.266048
-0.216099
-0.245363
-0.187468
-0.217275
-0.162522
-0.190186
-0.140851
-0.165581
-0.122059
-0.143748
-0.105865
-0.124534
-0.0922139
-0.107481
-0.0817496
-0.0913801
-0.0775164
-0.0713257
-0.0902627
-0.0154189
-0.0855985
-0.496291
-0.0940563
-1.06325
-0.214317
-2.6407
-2.04455
-1.95352
-1.93474
-1.9307
18.6486
8.60011
12.1454
7.41357
9.57082
6.3996
7.90068
5.52373
6.63938
4.84786
5.62985
4.54343
5.17655
3.93383
4.57157
3.4055
3.99356
2.94806
3.47182
2.55172
3.0113
2.20832
2.60912
1.91042
2.26029
1.65018
1.96194
1.41704
1.7344
1.26786
0.879669
1.13098
0.77923
0.952815
0.668455
0.808435
0.571024
0.688173
0.487452
0.586591
0.416177
0.500302
0.355641
0.426849
0.304673
0.364301
0.262763
0.311089
0.23077
0.266048
0.216099
0.245363
0.187468
0.217275
0.162521
0.190186
0.140851
0.165581
0.122059
0.143748
0.105865
0.124534
0.0922137
0.107481
0.0817495
0.0913801
0.0775162
0.0713258
0.0902626
0.0154189
0.0855983
0.496292
0.0940563
1.06326
0.214317
2.64069
2.04455
1.95352
1.93474
1.9307
17.3451
9.76119
11.5782
8.03577
9.18425
6.81182
7.60931
5.82991
6.42085
5.07913
5.49508
4.68356
5.02035
4.08925
4.42602
3.55247
3.86337
3.08027
3.35734
2.66823
2.91141
2.31005
2.52217
1.99892
2.18418
1.72736
1.89289
1.48542
1.65765
1.27636
0.949986
1.08787
0.825112
0.917574
0.70473
0.778926
0.60116
0.663194
0.512888
0.56537
0.437756
0.482284
0.373953
0.411638
0.320142
0.351688
0.27564
0.301186
0.241022
0.259769
0.222456
0.238016
0.19464
0.210378
0.169363
0.183987
0.147037
0.160117
0.127524
0.138997
0.110626
0.120496
0.0962858
0.104332
0.0850317
0.0899843
0.0794607
0.0754364
0.0888237
0.0440878
0.124068
0.442179
0.225304
0.94987
0.509105
2.33582
2.02437
1.95065
1.93417
1.93056
16.3453
10.5465
11.2255
8.47061
8.93878
7.0975
7.42129
6.04153
6.2799
5.24036
5.40966
4.77802
4.91513
4.19421
4.32913
3.65231
3.77718
3.17032
3.28175
2.74768
2.84554
2.37945
2.46485
2.05929
2.13395
1.77984
1.84697
1.5308
1.60322
1.28283
1.00189
1.06094
0.856927
0.894687
0.729654
0.759625
0.621825
0.646829
0.530323
0.551464
0.452551
0.470482
0.386518
0.401689
0.330775
0.343465
0.284532
0.29479
0.24819
0.255805
0.226768
0.233096
0.199513
0.205816
0.174038
0.17991
0.151277
0.156536
0.131276
0.13589
0.113904
0.117868
0.0991101
0.102318
0.0873825
0.0892464
0.0811801
0.0788857
0.0897399
0.0677984
0.153033
0.409475
0.318904
0.883093
0.71319
2.11646
1.99466
1.94548
1.93307
1.93026
15.5773
11.0727
11.0102
8.77652
8.7857
7.29658
7.30141
6.18844
6.19006
5.35324
5.35628
4.84174
4.84424
4.26494
4.26471
3.72008
3.72026
3.23164
3.23198
2.80185
2.80223
2.4268
2.42718
2.10046
2.10088
1.81547
1.81638
1.56064
1.5645
1.28773
1.04019
1.04453
0.879072
0.879913
0.746778
0.747037
0.635978
0.636125
0.542254
0.542361
0.462673
0.462757
0.395118
0.395183
0.338065
0.338108
0.290657
0.290669
0.25319
0.253308
0.229665
0.229773
0.20279
0.202777
0.177208
0.177214
0.154161
0.154176
0.133834
0.133848
0.116144
0.11615
0.101056
0.101031
0.0890618
0.088906
0.082669
0.0818093
0.0919682
0.0872223
0.175151
0.390652
0.386314
0.84568
0.854348
1.95809
1.96204
1.93883
1.93159
1.92984
14.9896
11.4212
10.8818
8.99272
8.69254
7.4359
7.22625
6.29076
6.13376
5.43252
5.32362
4.88477
4.79662
4.31252
4.22207
3.76607
3.6829
3.2734
3.19943
2.83881
2.77395
2.45912
2.40259
2.12854
2.07925
1.83965
1.79605
1.5801
1.53702
1.29146
1.06842
1.03492
0.894567
0.8705
0.75857
0.738904
0.645685
0.629184
0.550427
0.536452
0.469605
0.457743
0.401011
0.390966
0.34307
0.334651
0.294885
0.288049
0.256688
0.251763
0.231614
0.227535
0.20499
0.200761
0.179356
0.175442
0.156124
0.15263
0.135579
0.132516
0.117676
0.115036
0.1024
0.100223
0.0902692
0.0888096
0.0839434
0.0842928
0.0947933
0.10294
0.192166
0.380623
0.435176
0.826295
0.951703
1.84372
1.93051
1.93154
1.92988
1.92935
14.5446
11.6486
10.8074
9.14537
8.63766
7.53336
7.18013
6.36195
6.09924
5.48812
5.30415
4.91379
4.76484
4.34435
4.19406
3.79715
3.65859
3.30174
3.17836
2.86394
2.75567
2.48111
2.3867
2.14763
2.06523
1.85599
1.78263
1.59265
1.51763
1.29429
1.08906
1.02959
0.905414
0.864604
0.766673
0.733715
0.652326
0.624736
0.55601
0.53266
0.474341
0.454526
0.405038
0.388265
0.346497
0.33245
0.297798
0.286412
0.259129
0.250828
0.232922
0.226036
0.206459
0.199434
0.180805
0.174287
0.157455
0.151629
0.136765
0.131656
0.118721
0.114323
0.103327
0.0997262
0.0911376
0.0888501
0.0850098
0.0863708
0.0977131
0.115414
0.205213
0.37595
0.470575
0.817538
1.01839
1.76156
1.90241
1.92436
1.92813
1.92884
14.2155
11.7937
10.7657
9.25186
8.60664
7.60077
7.15261
6.41093
6.07866
5.52664
5.29295
4.93315
4.74393
4.36538
4.17592
3.8179
3.64302
3.32076
3.16493
2.88082
2.74406
2.4959
2.37661
2.16047
2.05629
1.8669
1.77387
1.6006
1.50418
1.2964
1.10389
1.02684
0.912928
0.860995
0.77218
0.730467
0.656817
0.621935
0.559781
0.530268
0.477538
0.452497
0.407759
0.386566
0.348817
0.331075
0.299781
0.285412
0.260813
0.250278
0.23379
0.225047
0.207427
0.198572
0.181771
0.173545
0.158346
0.150989
0.137562
0.131109
0.119426
0.113874
0.103958
0.0994298
0.0917546
0.0889535
0.0858689
0.0880503
0.100379
0.125006
0.215022
0.374322
0.495881
0.814625
1.06339
1.70349
1.87907
1.91791
1.9265
1.92836
13.9832
11.8832
10.7436
9.3236
8.59005
7.64588
7.13683
6.44354
6.06687
5.55243
5.28679
4.94569
4.73059
4.37886
4.16452
3.83133
3.63336
3.33311
3.15663
2.89182
2.7369
2.50554
2.37039
2.16882
2.05077
1.87397
1.76833
1.60549
1.49519
1.29791
1.11409
1.02558
0.917967
0.858865
0.775805
0.728498
0.65976
0.620227
0.562249
0.528808
0.479629
0.451258
0.40954
0.385531
0.350339
0.330244
0.301089
0.284822
0.261936
0.249968
0.234349
0.224413
0.208045
0.19803
0.182395
0.173084
0.158925
0.150594
0.138081
0.130773
0.119887
0.113602
0.104375
0.0992601
0.0921775
0.0890689
0.086518
0.0893245
0.102554
0.131982
0.22206
0.374203
0.513299
0.814511
1.09273
1.664
1.86119
1.91267
1.92514
1.92796
13.835
11.9342
10.7326
9.36789
8.58189
7.67359
7.12844
6.46348
6.0606
5.56828
5.28366
4.9532
4.72273
4.38684
4.15789
3.83935
3.62778
3.34053
3.15188
2.89843
2.7328
2.51133
2.36683
2.17384
2.0476
1.87819
1.76507
1.60827
1.48969
1.29888
1.12049
1.02508
0.921067
0.857695
0.778003
0.727388
0.661537
0.619259
0.563737
0.527979
0.48089
0.450555
0.410614
0.384945
0.351258
0.329777
0.301882
0.284499
0.262623
0.249806
0.234683
0.224039
0.208411
0.197713
0.182768
0.172817
0.159272
0.150367
0.138393
0.130581
0.120164
0.113447
0.104628
0.09917
0.0924422
0.0891628
0.0869535
0.0901824
0.104081
0.136533
0.226616
0.374607
0.524233
0.815317
1.11036
1.63947
1.84915
1.90899
1.92416
1.92766
13.7627
11.9572
10.7282
9.38904
8.57863
7.68678
7.12483
6.47295
6.05791
5.57582
5.28237
4.95672
4.71909
4.39055
4.15484
3.8431
3.62524
3.344
3.14971
2.90153
2.73095
2.51405
2.36522
2.1762
2.04615
1.88016
1.76357
1.60953
1.48707
1.29935
1.12357
1.02493
0.922545
0.857182
0.77904
0.726891
0.662373
0.618823
0.564437
0.527605
0.481483
0.450238
0.41112
0.384681
0.351691
0.329568
0.302257
0.284357
0.262949
0.249737
0.234838
0.223865
0.20858
0.197567
0.182942
0.172695
0.159435
0.150264
0.138539
0.130493
0.120295
0.113378
0.104748
0.0991313
0.0925696
0.0892145
0.0871722
0.0906142
0.104867
0.138779
0.228856
0.374946
0.529509
0.815965
1.11861
1.62772
1.84309
1.90709
1.92366
1.92751
-13.6267
-11.9377
-10.8746
-9.86319
-9.31958
-8.81674
-8.53888
-8.26772
-8.11717
-7.96841
-7.86582
-7.73001
-7.63432
-7.50964
-7.42265
-7.31031
-7.23219
-7.13156
-7.06173
-6.97202
-6.90997
-6.8305
-6.7757
-6.70575
-6.65753
-6.59589
-6.5527
-6.49585
-6.45112
-6.38328
-6.32061
-6.28602
-6.25101
-6.2291
-6.20349
-6.18672
-6.16641
-6.15296
-6.13651
-6.12558
-6.11219
-6.10329
-6.09239
-6.08518
-6.07638
-6.07061
-6.06368
-6.05924
-6.05409
-6.05101
-6.04769
-6.04537
-6.04234
-6.04035
-6.038
-6.03667
-6.03541
-6.03504
-6.03534
-6.03636
-6.03895
-6.04211
-6.04833
-6.0551
-6.06776
-6.08156
-6.10775
-6.13894
-6.20314
-6.29677
-6.5086
-6.80265
-7.06553
-7.50314
-7.92082
-8.58507
-8.86473
-8.94773
-8.9692
-8.9742
-13.6942
-11.9126
-10.8725
-9.84448
-9.31795
-8.80774
-8.53862
-8.26289
-8.1171
-7.96656
-7.86715
-7.7284
-7.63548
-7.50813
-7.42367
-7.30895
-7.23309
-7.13032
-7.06253
-6.97092
-6.91066
-6.82952
-6.77631
-6.70488
-6.65807
-6.59516
-6.55325
-6.49537
-6.45205
-6.38307
-6.31948
-6.28604
-6.25049
-6.22924
-6.20313
-6.18686
-6.16614
-6.15308
-6.13629
-6.12568
-6.11201
-6.10337
-6.09224
-6.08524
-6.07626
-6.07066
-6.06358
-6.05927
-6.05401
-6.05102
-6.04765
-6.0454
-6.0423
-6.04036
-6.03796
-6.03666
-6.03537
-6.03501
-6.03531
-6.0363
-6.03892
-6.04199
-6.0483
-6.05487
-6.06772
-6.08107
-6.10755
-6.13762
-6.20196
-6.29204
-6.50531
-6.8039
-7.05854
-7.50394
-7.91096
-8.60045
-8.8726
-8.95019
-8.96986
-8.9744
-13.833
-11.8579
-10.87
-9.80571
-9.31566
-8.7891
-8.53861
-8.25287
-8.11721
-7.96267
-7.87005
-7.72497
-7.63802
-7.5049
-7.42589
-7.30602
-7.23506
-7.12769
-7.06427
-6.96856
-6.91219
-6.82741
-6.77764
-6.70303
-6.65925
-6.59358
-6.55443
-6.4943
-6.454
-6.38265
-6.31715
-6.28614
-6.24939
-6.22959
-6.20238
-6.18718
-6.16555
-6.15335
-6.13582
-6.1259
-6.11163
-6.10355
-6.09193
-6.08538
-6.076
-6.07077
-6.06336
-6.05933
-6.05384
-6.05104
-6.04756
-6.04547
-6.04221
-6.0404
-6.03788
-6.03666
-6.0353
-6.03496
-6.03525
-6.03617
-6.03888
-6.04173
-6.04827
-6.05438
-6.06765
-6.08005
-6.10721
-6.13492
-6.19975
-6.28239
-6.49861
-6.8069
-7.04392
-7.50628
-7.88979
-8.63253
-8.88825
-8.95497
-8.97113
-8.97478
-14.0509
-11.7638
-10.8705
-9.74396
-9.31484
-8.75941
-8.54001
-8.23684
-8.11808
-7.9563
-7.87505
-7.7192
-7.6424
-7.49951
-7.42974
-7.30114
-7.23849
-7.1233
-7.06731
-6.96462
-6.91486
-6.8239
-6.77997
-6.69994
-6.6613
-6.59094
-6.55645
-6.49243
-6.45719
-6.38199
-6.31345
-6.28647
-6.24761
-6.23022
-6.20116
-6.18775
-6.16459
-6.15383
-6.13505
-6.1263
-6.111
-6.10387
-6.09142
-6.08564
-6.07558
-6.07096
-6.06302
-6.05946
-6.05355
-6.0511
-6.04742
-6.04558
-6.04206
-6.04046
-6.03774
-6.03666
-6.03519
-6.03488
-6.03517
-6.03597
-6.03883
-6.04133
-6.04826
-6.05361
-6.06762
-6.07844
-6.10684
-6.13075
-6.19683
-6.26739
-6.48822
-6.81276
-7.02028
-7.51176
-7.85426
-8.68409
-8.91146
-8.96177
-8.97289
-8.97531
-14.3602
-11.6138
-10.8803
-9.65431
-9.31906
-8.71628
-8.54477
-8.21344
-8.12067
-7.9467
-7.88303
-7.71027
-7.64942
-7.4912
-7.43595
-7.29362
-7.24402
-7.11654
-7.07222
-6.95856
-6.91917
-6.81851
-6.78374
-6.69519
-6.66463
-6.58686
-6.55966
-6.48942
-6.46197
-6.38106
-6.30807
-6.28727
-6.24498
-6.23133
-6.1993
-6.18872
-6.16314
-6.15463
-6.13387
-6.12695
-6.11004
-6.1044
-6.09063
-6.08606
-6.07494
-6.07128
-6.06249
-6.05968
-6.05313
-6.0512
-6.0472
-6.04575
-6.04184
-6.04056
-6.03754
-6.03668
-6.03503
-6.03478
-6.03507
-6.03569
-6.0388
-6.04076
-6.0483
-6.05249
-6.06772
-6.07612
-6.10665
-6.12488
-6.19373
-6.24638
-6.47369
-6.8233
-6.98529
-7.52321
-7.79924
-8.75975
-8.94175
-8.97014
-8.97501
-8.97594
-14.7793
-11.3833
-10.9099
-9.52904
-9.33399
-8.6559
-8.55591
-8.18049
-8.12651
-7.93269
-7.89538
-7.69687
-7.66034
-7.47876
-7.44564
-7.28239
-7.25267
-7.10645
-7.0799
-6.94954
-6.92594
-6.81049
-6.78966
-6.68813
-6.66984
-6.58076
-6.56458
-6.48469
-6.4689
-6.37982
-6.30061
-6.28893
-6.2412
-6.23316
-6.19659
-6.19028
-6.161
-6.15592
-6.13215
-6.12801
-6.10863
-6.10526
-6.08948
-6.08675
-6.074
-6.07181
-6.06173
-6.06004
-6.05253
-6.05138
-6.04689
-6.04603
-6.04151
-6.04074
-6.03725
-6.03672
-6.03481
-6.03465
-6.03495
-6.03531
-6.03881
-6.03996
-6.04849
-6.05092
-6.06809
-6.07292
-6.10696
-6.117
-6.19128
-6.21839
-6.45426
-6.84134
-6.93526
-7.54513
-7.71684
-8.86655
-8.97819
-8.97945
-8.97729
-8.9766
-15.3343
-11.036
-10.9757
-9.35633
-9.36823
-8.57239
-8.57807
-8.13469
-8.13794
-7.91243
-7.91417
-7.67698
-7.67705
-7.46039
-7.46054
-7.26581
-7.26597
-7.09158
-7.09172
-6.93624
-6.93637
-6.79868
-6.7988
-6.67773
-6.67788
-6.57174
-6.57206
-6.4774
-6.47876
-6.37818
-6.29045
-6.29204
-6.23583
-6.23614
-6.19266
-6.19276
-6.1579
-6.15795
-6.12963
-6.12967
-6.10658
-6.10661
-6.08781
-6.08783
-6.07264
-6.07266
-6.06064
-6.06064
-6.05167
-6.0517
-6.04642
-6.04644
-6.04103
-6.04102
-6.03684
-6.03683
-6.03453
-6.03451
-6.03483
-6.0348
-6.03892
-6.03886
-6.04891
-6.04877
-6.06895
-6.06855
-6.10823
-6.10654
-6.19071
-6.18204
-6.42879
-6.87111
-6.86459
-7.58458
-7.59532
-9.01487
-9.01904
-8.98889
-8.9795
-8.97724
-16.0613
-10.5191
-11.1039
-9.11837
-9.43479
-8.45683
-8.6182
-8.07101
-8.15852
-7.88307
-7.94251
-7.64761
-7.70244
-7.43334
-7.48323
-7.24144
-7.28626
-7.06972
-7.10978
-6.91672
-6.95232
-6.78136
-6.8128
-6.66249
-6.69017
-6.55846
-6.58333
-6.46627
-6.49269
-6.37603
-6.27671
-6.29745
-6.2282
-6.24087
-6.187
-6.19664
-6.1534
-6.16112
-6.12599
-6.13226
-6.10361
-6.10872
-6.08539
-6.08953
-6.07067
-6.07398
-6.05906
-6.0616
-6.05045
-6.05222
-6.04575
-6.04708
-6.04034
-6.04147
-6.03626
-6.03702
-6.03415
-6.03435
-6.03473
-6.03413
-6.0392
-6.03736
-6.04974
-6.04581
-6.07064
-6.06258
-6.11115
-6.09265
-6.19386
-6.13548
-6.39549
-6.91883
-6.76487
-7.65241
-7.41745
-9.21981
-9.06127
-8.99751
-8.98144
-8.97778
-17.0099
-9.75713
-11.3349
-8.78833
-9.55312
-8.29568
-8.68666
-7.98195
-8.19362
-7.84031
-7.98504
-7.60424
-7.74078
-7.39353
-7.51759
-7.20561
-7.317
-7.0376
-7.13715
-6.88805
-6.97653
-6.75594
-6.83406
-6.64013
-6.70883
-6.53892
-6.60027
-6.4494
-6.51235
-6.37318
-6.25817
-6.30647
-6.21729
-6.24826
-6.17879
-6.20263
-6.14685
-6.16601
-6.12068
-6.13625
-6.09928
-6.11196
-6.08186
-6.09214
-6.06782
-6.07604
-6.05678
-6.06311
-6.04871
-6.05308
-6.04476
-6.04804
-6.03933
-6.04218
-6.03544
-6.03736
-6.03365
-6.03419
-6.03466
-6.03323
-6.03975
-6.03529
-6.05123
-6.04169
-6.07364
-6.05434
-6.11675
-6.07396
-6.2034
-6.07618
-6.35166
-6.99364
-6.62348
-7.76513
-7.15808
-9.50319
-9.09971
-9.00423
-8.98287
-8.97819
-18.2486
-8.64188
-11.7308
-8.32579
-9.75229
-8.06856
-8.79891
-7.85619
-8.25128
-7.77759
-8.04853
-7.54014
-7.79844
-7.33483
-7.56934
-7.1528
-7.36333
-6.99028
-7.17843
-6.84584
-7.01306
-6.71853
-6.86616
-6.60722
-6.73701
-6.5101
-6.62567
-6.42394
-6.54006
-6.36934
-6.23308
-6.32096
-6.20156
-6.25965
-6.16682
-6.21179
-6.1373
-6.17345
-6.11292
-6.14232
-6.09296
-6.1169
-6.07671
-6.09612
-6.06364
-6.07918
-6.05347
-6.06543
-6.04621
-6.05444
-6.0433
-6.04947
-6.03784
-6.04326
-6.03427
-6.03792
-6.03297
-6.03402
-6.03466
-6.032
-6.04073
-6.0324
-6.05373
-6.03591
-6.07868
-6.04283
-6.12655
-6.04839
-6.22319
-6.00077
-6.29317
-7.10895
-6.42163
-7.94781
-6.78064
-9.89655
-9.12586
-9.00801
-8.98367
-8.97844
)
;

boundaryField
{
    F1_1
    {
        type            calculated;
        value           nonuniform List<scalar> 
80
(
18.9508
7.9734
11.9792
8.04091
9.87589
7.90466
8.86791
7.71464
8.28879
7.55118
7.90321
7.48925
7.75842
7.28661
7.55877
7.10997
7.36529
6.95292
7.1859
6.81338
7.0227
6.6904
6.87633
6.58291
6.74694
6.48912
6.6354
6.40559
6.55175
6.36441
6.21717
6.32743
6.19094
6.26464
6.15865
6.21581
6.13074
6.17672
6.1076
6.14499
6.08862
6.11908
6.07317
6.09788
6.06078
6.08055
6.05118
6.06641
6.04446
6.05492
6.04217
6.05001
6.03675
6.04364
6.03341
6.03804
6.03243
6.03375
6.03457
6.03114
6.04125
6.03058
6.0552
6.03242
6.08175
6.03601
6.13268
6.03348
6.23618
5.95849
6.25959
7.1787
6.30273
8.0604
6.55696
10.1254
9.13453
9.00902
8.98389
8.9785
)
;
    }
    F1_2
    {
        type            calculated;
        value           nonuniform List<scalar> 
80
(
-19.3867
-7.90846
-12.4944
-7.04689
-9.80669
-6.15591
-8.07749
-5.34257
-6.77203
-4.7115
-5.71221
-4.45973
-5.26991
-3.8411
-4.65897
-3.31801
-4.0719
-2.86943
-3.54076
-2.48246
-3.07148
-2.14787
-2.66153
-1.85783
-2.30615
-1.60426
-2.00343
-1.376
-1.77935
-1.26305
-0.83922
-1.15744
-0.752128
-0.974174
-0.646962
-0.826279
-0.553159
-0.703271
-0.472373
-0.599418
-0.403387
-0.511196
-0.344793
-0.436051
-0.295515
-0.371942