/*--------------------------------*- C++ -*----------------------------------*\
| =========                 |                                                 |
| \\      /  F ield         | OpenFOAM: The Open Source CFD Toolbox           |
|  \\    /   O peration     | Version:  5.x                                   |
|   \\  /    A nd           | Web:      www.OpenFOAM.org                      |
|    \\/     M anipulation  |                                                 |
\*---------------------------------------------------------------------------*/
FoamFile
{
    version     2.0;
    format      ascii;
    class       volScalarField;
    location    "4";
    object      gradTx;
}
// * * * * * * * * * * * * * * * * * * * * * * * * * * * * * * * * * * * * * //

dimensions      [0 -1 0 1 0 0 0];

internalField   nonuniform List<scalar> 
2048
(
0.00630472
0.0187337
0.0306377
0.0417188
0.051748
0.0605761
0.0681326
0.0744155
0.0794742
0.0833918
0.0862679
0.088207
0.089311
0.0896767
0.0893966
0.0885598
0.0872532
0.0855602
0.0835587
0.0813172
0.0788915
0.0763221
0.0736341
0.0708375
0.0679301
0.0648998
0.0617271
0.0583864
0.0548468
0.0510725
0.0470231
0.0426551
0.0379234
0.0327832
0.0271928
0.0211146
0.0145163
0.00737175
-0.00033863
-0.00862651
-0.0174934
-0.0269271
-0.0368962
-0.0473432
-0.0581767
-0.0692619
-0.0804118
-0.0913791
-0.101853
-0.11146
-0.119777
-0.126354
-0.130747
-0.132563
-0.131505
-0.127409
-0.12027
-0.110241
-0.0976098
-0.0827601
-0.0661256
-0.0481472
-0.029245
-0.00980671
0.0187878
0.0558162
0.0912538
0.124202
0.153974
0.180131
0.202472
0.221004
0.235891
0.24739
0.255806
0.261454
0.264638
0.265643
0.264741
0.262195
0.258263
0.253194
0.24722
0.240548
0.233343
0.225727
0.217772
0.209506
0.200921
0.191979
0.182621
0.17277
0.162336
0.151211
0.139276
0.126401
0.112449
0.0972884
0.0807928
0.0628505
0.0433659
0.0222609
-0.000523367
-0.0250233
-0.0512464
-0.0791609
-0.108679
-0.139639
-0.171778
-0.204703
-0.237869
-0.270549
-0.301821
-0.330572
-0.355532
-0.375342
-0.388654
-0.394269
-0.391276
-0.379172
-0.357942
-0.328055
-0.290395
-0.246137
-0.196596
-0.1431
-0.0868992
-0.0291361
0.031139
0.0924802
0.151102
0.205479
0.254465
0.297343
0.333816
0.363941
0.388029
0.406547
0.420023
0.428989
0.433945
0.435355
0.43366
0.429285
0.422654
0.414181
0.404253
0.393217
0.381351
0.368854
0.355841
0.342352
0.328366
0.313815
0.298599
0.282593
0.265646
0.247584
0.228207
0.207298
0.184631
0.159982
0.133143
0.103928
0.0721796
0.0377691
0.000597729
-0.0393994
-0.0822439
-0.127897
-0.176233
-0.227008
-0.279815
-0.334039
-0.388809
-0.442949
-0.494949
-0.542968
-0.584873
-0.618355
-0.641104
-0.651042
-0.646576
-0.626828
-0.591768
-0.542222
-0.479741
-0.406365
-0.324353
-0.235946
-0.143214
-0.0480055
0.0435983
0.129422
0.211268
0.286932
0.354786
0.413859
0.463808
0.504801
0.537366
0.562231
0.580179
0.591971
0.598299
0.599794
0.597044
0.590629
0.581131
0.569132
0.555186
0.539784
0.523323
0.506078
0.488201
0.469733
0.450628
0.430783
0.410053
0.388264
0.36521
0.340651
0.314308
0.285874
0.255027
0.221449
0.184847
0.144961
0.101575
0.0545088
0.00362442
-0.0511773
-0.109943
-0.172645
-0.239146
-0.30915
-0.382147
-0.457342
-0.533583
-0.609288
-0.682386
-0.750303
-0.810009
-0.858165
-0.891376
-0.906547
-0.901282
-0.874244
-0.825387
-0.75597
-0.668342
-0.565558
-0.450946
-0.327724
-0.198779
-0.0666056
0.0563814
0.167264
0.272714
0.369761
0.456272
0.531052
0.593778
0.64483
0.685044
0.71548
0.737225
0.751281
0.758524
0.759725
0.755601
0.746866
0.73426
0.718539
0.700438
0.680611
0.659581
0.6377
0.615146
0.591945
0.568012
0.543196
0.517303
0.490113
0.461372
0.430776
0.397966
0.36254
0.324071
0.282141
0.236366
0.186415
0.132011
0.0729319
0.00899657
-0.0599327
-0.133941
-0.213034
-0.297091
-0.385806
-0.478612
-0.57459
-0.672365
-0.770001
-0.864903
-0.953765
-1.03261
-1.09694
-1.14211
-1.1638
-1.15862
-1.12464
-1.06179
-0.971888
-0.85828
-0.725272
-0.577447
-0.419107
-0.253957
-0.0850494
0.0696931
0.206594
0.336333
0.455061
0.560106
0.65009
0.724818
0.785004
0.83192
0.867053
0.891849
0.907564
0.915236
0.915742
0.909891
0.89851
0.882493
0.862788
0.840335
0.815976
0.790373
0.763956
0.736914
0.709235
0.680774
0.651315
0.620612
0.588406
0.554402
0.518239
0.479479
0.437612
0.392098
0.342403
0.288049
0.228631
0.163821
0.0933579
0.0170224
-0.0653673
-0.153949
-0.248785
-0.349808
-0.456744
-0.569025
-0.685671
-0.805158
-0.925267
-1.04293
-1.15413
-1.25386
-1.33635
-1.39546
-1.42536
-1.42136
-1.38078
-1.30351
-1.19207
-1.05113
-0.886571
-0.704498
-0.510433
-0.308895
-0.103377
0.0837375
0.247991
0.402994
0.543868
0.667365
0.77199
0.857817
0.926067
0.978604
1.01747
1.04451
1.06127
1.06889
1.0683
1.06036
1.04597
1.02619
1.00218
0.975123
0.946079
0.915877
0.885021
0.853693
0.82181
0.789134
0.755362
0.720198
0.683352
0.644505
0.603252
0.55907
0.511332
0.45936
0.402494
0.34015
0.271852
0.197231
0.115997
0.0278993
-0.067289
-0.169774
-0.2797
-0.397091
-0.521753
-0.653175
-0.79039
-0.931814
-1.07504
-1.2166
-1.35178
-1.47455
-1.57766
-1.65319
-1.6934
-1.69195
-1.64512
-1.55273
-1.41823
-1.24804
-1.05008
-0.832335
-0.601717
-0.363538
-0.121558
0.0987263
0.292052
0.473572
0.637196
0.779059
0.897651
0.993502
1.06856
1.12549
1.16701
1.19548
1.21266
1.21978
1.21774
1.20736
1.1896
1.16566
1.13696
1.10497
1.07105
1.03621
1.00102
0.965633
0.929847
0.893284
0.855534
0.816243
0.775114
0.731832
0.685964
0.6369
0.583875
0.526049
0.462607
0.392852
0.316241
0.232379
0.140964
0.0417304
-0.0655977
-0.181307
-0.305654
-0.438789
-0.58065
-0.730843
-0.888495
-1.05206
-1.21906
-1.38575
-1.54681
-1.6951
-1.82176
-1.91672
-1.96986
-1.97265
-1.91995
-1.81141
-1.65177
-1.44977
-1.216
-0.960807
-0.692667
-0.417632
-0.139494
0.114885
0.339407
0.548977
0.736068
0.896161
1.02788
1.13245
1.21284
1.27276
1.31579
1.34484
1.36189
1.36813
1.36434
1.3512
1.32967
1.30113
1.26729
1.23001
1.19097
1.15143
1.11204
1.07285
1.0335
0.993404
0.952007
0.9089
0.863814
0.816484
0.766473
0.713079
0.65537
0.592304
0.522884
0.446281
0.361896
0.26933
0.168299
0.0585366
-0.0602738
-0.188514
-0.326585
-0.474805
-0.633286
-0.801814
-0.979693
-1.16553
-1.35692
-1.55
-1.73894
-1.91557
-2.0692
-2.18722
-2.25651
-2.26562
-2.20745
-2.08137
-1.89383
-1.65671
-1.38415
-1.08939
-0.782688
-0.470733
-0.157024
0.132461
0.390739
0.630177
0.841533
1.01962
1.16338
1.2751
1.35909
1.42041
1.46373
1.49253
1.50896
1.51406
1.5083
1.49214
1.46646
1.43281
1.39331
1.35028
1.30584
1.26155
1.21811
1.17546
1.13292
1.08967
1.04495
0.998305
0.949544
0.898519
0.844829
0.787671
0.725904
0.658232
0.58343
0.500521
0.408863
0.308089
0.19797
0.0782672
-0.0513685
-0.191431
-0.342497
-0.505095
-0.679558
-0.865901
-1.06368
-1.27179
-1.48807
-1.70873
-1.92766
-2.1357
-2.32022
-2.4656
-2.55495
-2.573
-2.50984
-2.36438
-2.14536
-1.86894
-1.55393
-1.21716
-0.870899
-0.522222
-0.173927
0.151724
0.446794
0.71821
0.954691
1.15037
1.30481
1.42176
1.50733
1.56828
1.61055
1.63833
1.65378
1.65761
1.64982
1.63043
1.60021
1.56091
1.51513
1.46581
1.41564
1.36653
1.31927
1.27352
1.22827
1.18227
1.13455
1.08458
1.03236
0.977952
0.92104
0.860707
0.795537
0.723915
0.644327
0.555625
0.457147
0.348609
0.229887
0.100809
-0.0389964
-0.190151
-0.353448
-0.529671
-0.719412
-0.922953
-1.14018
-1.37039
-1.61186
-1.86115
-2.11216
-2.35491
-2.57473
-2.75253
-2.86672
-2.89696
-2.82945
-2.66222
-2.40711
-2.08617
-1.72433
-1.34287
-0.956145
-0.571319
-0.18993
0.172979
0.508397
0.814209
1.0767
1.28935
1.45274
1.57262
1.65741
1.71599
1.75587
1.78191
1.7962
1.79883
1.78906
1.76635
1.73118
1.68559
1.63283
1.57658
1.52028
1.4663
1.41548
1.36714
1.31969
1.27141
1.22098
1.16785
1.1123
1.05476
0.995077
0.932185
0.864307
0.789419
0.705643
0.611626
0.506721
0.390802
0.263911
0.125992
-0.0233269
-0.18482
-0.359549
-0.548602
-0.752855
-0.972881
-1.20895
-1.46087
-1.72759
-2.00634
-2.29138
-2.57228
-2.83232
-3.04843
-3.19324
-3.2398
-3.16881
-2.97675
-2.67968
-2.30773
-1.8939
-1.46486
-1.03702
-0.617109
-0.204717
0.196564
0.576462
0.919406
1.20879
1.43748
1.60765
1.72774
1.80903
1.86302
1.8991
1.92286
1.936
1.93769
1.92623
1.90017
1.85964
1.80704
1.74645
1.68253
1.61962
1.56073
1.50672
1.45638
1.40737
1.35732
1.30446
1.24823
1.18935
1.12886
1.06687
1.00208
0.932238
0.854806
0.767445
0.668544
0.557535
0.434542
0.299858
0.1536
-0.00457761
-0.175629
-0.360953
-0.562004
-0.779958
-1.01567
-1.2698
-1.54282
-1.83454
-2.14322
-2.46405
-2.78659
-3.09223
-3.35343
-3.53586
-3.60401
-3.53077
-3.31001
-2.96349
-2.53254
-2.06077
-1.58114
-1.11191
-0.658572
-0.217945
0.222859
0.652
1.03515
1.35226
1.59569
1.76995
1.88705
1.96174
2.00868
2.03956
2.06065
2.07292
2.07421
2.06152
2.03224
1.9859
1.92543
1.85605
1.78355
1.71347
1.64965
1.59294
1.54134
1.49151
1.44026
1.38525
1.32584
1.26349
1.20016
1.13631
1.07034
0.999345
0.920143
0.829807
0.726398
0.609514
0.479677
0.337506
0.183371
0.0169925
-0.162803
-0.357848
-0.57004
-0.800856
-1.05137
-1.32264
-1.61589
-1.93201
-2.27068
-2.62868
-2.9963
-3.35335
-3.66738
-3.89581
-3.99228
-3.91861
-3.66425
-3.25876
-2.75907
-2.22256
-1.6894
-1.17902
-0.694629
-0.229256
0.252291
0.736128
1.16291
1.50851
1.76486
1.93993
2.05037
2.11494
2.15214
2.1764
2.19469
2.20669
2.20837
2.19518
2.16295
2.11028
2.04096
1.96166
1.87953
1.80161
1.73285
1.67406
1.62213
1.57234
1.52055
1.46363
1.40082
1.33465
1.26847
1.20326
1.13692
1.06564
0.985501
0.892823
0.785207
0.662571
0.526026
0.376602
0.215005
0.041089
-0.146594
-0.350444
-0.572909
-0.815745
-1.08014
-1.36749
-1.67986
-2.01939
-2.38758
-2.78363
-3.19957
-3.61418
-3.98973
-4.27414
-4.40756
-4.33622
-4.04208
-3.56549
-2.98521
-2.37642
-1.78703
-1.23648
-0.724192
-0.2383
0.285343
0.830069
1.30428
1.67903
1.94585
2.11776
2.21738
2.26791
2.29238
2.30868
2.32435
2.33706
2.34017
2.3275
2.29277
2.23317
2.15379
2.06332
1.97032
1.88372
1.81005
1.75001
1.69887
1.65011
1.59855
1.53999
1.47331
1.4027
1.33355
1.26756
1.20176
1.13113
1.05097
0.956615
0.844995
0.716596
0.573395
0.416867
0.24817
0.0673874
-0.127271
-0.338962
-0.570834
-0.824885
-1.10223
-1.40447
-1.73461
-2.09617
-2.49276
-2.9271
-3.39427
-3.87283
-4.31953
-4.67163
-4.8531
-4.78826
-4.44654
-3.88331
-3.2082
-2.51896
-1.8712
-1.28238
-0.746222
-0.244752
0.322562
0.93515
1.46098
1.86542
2.13946
2.30345
2.38771
2.41983
2.42825
2.4353
2.44899
2.4638
2.46963
2.45881
2.42228
2.35497
2.26408
2.16108
2.05575
1.95946
1.88092
1.82072
1.77175
1.72509
1.67464
1.61476
1.54348
1.46745
1.39511
1.329
1.26481
1.19581
1.11664
1.02135
0.905797
0.77146
0.621574
0.458003
0.282498
0.0955363
-0.105111
-0.323617
-0.564055
-0.828588
-1.11796
-1.43379
-1.78017
-2.16202
-2.58519
-3.0572
-3.57799
-4.12706
-4.65537
-5.08864
-5.33242
-5.28039
-4.88121
-4.21143
-3.42449
-2.64629
-1.93895
-1.31488
-0.759788
-0.248335
0.364588
1.05279
1.63484
2.06946
2.34635
2.49679
2.56089
2.5698
2.55844
2.55508
2.56796
2.58676
2.59672
2.58945
2.55223
2.47609
2.37194
2.25502
2.13566
2.02836
1.94507
1.88611
1.84098
1.79753
1.74927
1.68851
1.61153
1.52865
1.45275
1.38738
1.32605
1.25968
1.18262
1.08727
0.967654
0.826998
0.670352
0.4997
0.317591
0.12516
-0.0803873
-0.304607
-0.552806
-0.827217
-1.12778
-1.4558
-1.81672
-2.21681
-2.66392
-3.17196
-3.74809
-4.37427
-4.99532
-5.52487
-5.84926
-5.81966
-5.35037
-4.54837
-3.6296
-2.75404
-1.98728
-1.33233
-0.764132
-0.24884
0.412186
1.18448
1.82774
2.29309
2.56707
2.69728
2.73648
2.71687
2.6815
2.66668
2.68065
2.70595
2.72137
2.7198
2.68352
2.59699
2.4774
2.3453
2.20989
2.08992
2.00201
1.94615
1.90688
1.86767
1.82291
1.76197
1.67767
1.5859
1.50596
1.44247
1.38553
1.32269
1.24902
1.15469
1.03061
0.882999
0.71953
0.541645
0.353014
0.155861
-0.0533689
-0.282092
-0.537311
-0.821176
-1.13221
-1.47088
-1.84458
-2.26071
-2.72818
-3.26939
-3.90169
-4.6116
-5.33695
-5.97913
-6.40752
-6.41485
-5.85917
-4.89169
-3.81793
-2.8374
-2.01327
-1.33332
-0.758721
-0.246138
0.466313
1.33175
2.04163
2.53858
2.8019
2.90405
2.91412
2.86012
2.79577
2.76864
2.78653
2.82157
2.84337
2.85019
2.81739
2.71807
2.58031
2.43218
2.27832
2.14348
2.05116
2.00082
1.96989
1.93567
1.89599
1.83608
1.74214
1.63869
1.55412
1.49406
1.44338
1.38474
1.31594
1.22407
1.09471
0.939173
0.76894
0.583533
0.388298
0.187216
-0.0243087
-0.25618
-0.517756
-0.810909
-1.13186
-1.47952
-1.86422
-2.29421
-2.77744
-3.3475
-4.03575
-4.83599
-5.67739
-6.44887
-7.01098
-7.0771
-6.41382
-5.23756
-3.9826
-2.89125
-2.01428
-1.31685
-0.743292
-0.240197
0.528233
1.49609
2.27837
2.80866
3.05084
3.1157
3.09368
2.99867
2.89942
2.85933
2.8852
2.93413
2.9623
2.98087
2.95545
2.83966
2.68028
2.51612
2.34089
2.18827
2.09182
2.05016
2.03064
2.00151
1.96894
1.9121
1.80524
1.68632
1.59647
1.54199
1.49991
1.4456
1.38342
1.2961
1.15995
0.995113
0.818483
0.625075
0.422923
0.218778
0.00655732
-0.226911
-0.494281
-0.796886
-1.1275
-1.48218
-1.87614
-2.31818
-2.81141
-3.40432
-4.14701
-5.04435
-6.01351
-6.92973
-7.66305
-7.82068
-7.02178
-5.58021
-4.11533
-2.91033
-1.98811
-1.28237
-0.717884
-0.231084
0.599698
1.67891
2.53959
3.10677
3.31341
3.33011
3.27548
3.13175
2.99036
2.93693
2.97636
3.04464
3.07735
3.11192
3.09998
2.96196
2.77655
2.59792
2.3976
2.22333
2.12312
2.09427
2.09006
2.06496
2.04205
1.99171
1.86725
1.72785
1.63207
1.5861
1.55566
1.5049
1.45142
1.37172
1.22632
1.05024
0.86818
0.666009
0.45631
0.250077
0.0390114
-0.194233
-0.466962
-0.779603
-1.12
-1.4793
-1.88089
-2.33404
-2.83012
-3.43794
-4.23201
-5.23367
-6.34225
-7.41484
-8.3662
-8.664
-7.69202
-5.9111
-4.20632
-2.88948
-1.93314
-1.22986
-0.682845
-0.218964
0.683234
1.88137
2.8265
3.43743
3.58851
3.54416
3.46059
3.25871
3.0662
2.9994
3.05988
3.15481
3.18714
3.24311
3.25412
3.08491
2.86775
2.67889
2.44853
2.24749
2.14404
2.13335
2.14953
2.12535
2.11542
2.07722
1.92842
1.76205
1.65982
1.62632
1.61153
1.56194
1.51977
1.45235
1.29366
1.1037
0.918247
0.706105
0.487798
0.280618
0.0728504
-0.157993
-0.43579
-0.759567
-1.11044
-1.47119
-1.87892
-2.34376
-2.83389
-3.44654
-4.28706
-5.40119
-6.66116
-7.89407
-9.12124
-9.63099
-8.43522
-6.21789
-4.24428
-2.82396
-1.84859
-1.15989
-0.638827
-0.204093
0.782581
2.10423
3.13949
3.80679
3.87417
3.75338
3.65129
3.37903
3.12419
3.04442
3.13577
3.26741
3.2894
3.37377
3.42236
3.20803
2.95168
2.76112
2.49384
2.25931
2.15331
2.16761
2.21107
2.18145
2.18887
2.17177
1.98896
1.78734
1.67841
1.66262
1.66899
1.61563
1.58804
1.54
1.36167
1.15431
0.969209
0.74516
0.516622
0.309891
0.107878
-0.117908
-0.400666
-0.737274
-1.10015
-1.45801
-1.87043
-2.35014
-2.82332
-3.42842
-4.30805
-5.54453
-6.96926
-8.35301
-9.92621
-10.7529
-9.26404
-6.48308
-4.21661
-2.70986
-1.73458
-1.0736
-0.586752
-0.186803
0.903332
2.34762
3.47771
4.22343
4.16723
3.95148
3.85163
3.49225
3.16113
3.06938
3.20408
3.38667
3.38059
3.50249
3.61104
3.3302
3.02499
2.84786
2.53371
2.25703
2.14946
2.19728
2.27764
2.23118
2.26169
2.2797
2.04884
1.80171
1.68634
1.69498
1.73025
1.66425
1.65549
1.63759
1.42977
1.20035
1.02206
0.782982
0.541879
0.337385
0.143887
-0.0735518
-0.361383
-0.71318
-1.09084
-1.43964
-1.85519
-2.35694
-2.79926
-3.38207
-4.2904
-5.66168
-7.26821
-8.77184
-10.7749
-12.0705
-10.1932
-6.68227
-4.10981
-2.54455
-1.59233
-0.972677
-0.527766
-0.167484
1.05384
2.61074
3.83829
4.69938
4.46291
4.12971
4.06832
3.59778
3.17331
3.07136
3.26477
3.51895
3.45542
3.62688
3.82912
3.44939
3.08271
2.94405
2.56821
2.2385
2.13075
2.22251
2.35356
2.2713
2.33253
2.40698
2.10768
1.80272
1.68194
1.72335
1.79863
1.70521
1.72087
1.74928
1.49699
1.23944
1.07847
0.819347
0.562493
0.362614
0.180636
-0.0243298
-0.317634
-0.687638
-1.08473
-1.41561
-1.83229
-2.36918
-2.76267
-3.30627
-4.22877
-5.75097
-7.56404
-9.12407
-11.6549
-13.6373
-11.2397
-6.78202
-3.91031
-2.3272
-1.42415
-0.859267
-0.463177
-0.146563
1.24647
2.89148
4.21551
5.25156
4.7542
4.27611
4.31169
3.69463
3.15644
3.04713
3.31743
3.67355
3.5062
3.7431
4.08912
3.56221
3.11774
3.05701
2.59713
2.20115
2.09522
2.24317
2.44502
2.29697
2.39911
2.56174
2.16444
1.78741
1.66339
1.74749
1.87893
1.73473
1.78227
1.8809
1.56173
1.26828
1.1411
0.85392
0.577167
0.385156
0.21781
0.0305502
-0.269017
-0.660819
-1.08474
-1.38505
-1.79977
-2.39357
-2.71441
-3.20028
-4.1168
-5.81064
-7.8693
-9.37506
-12.5449
-15.5229
-12.4226
-6.73717
-3.6056
-2.05924
-1.23342
-0.735893
-0.394386
-0.124482
1.49922
3.1859
4.5995
5.90356
5.03119
4.37457
4.59719
3.78086
3.10563
2.99328
3.36086
3.8637
3.52208
3.84542
4.40832
3.66344
3.12022
3.1973
2.61961
2.14199
2.04071
2.25857
2.56076
2.3013
2.45788
2.755
2.21708
1.7523
1.62882
1.76675
1.978
1.74747
1.83686
2.04055
1.62157
1.28241
1.21393
0.88614
0.584349
0.404719
0.254969
0.0921106
-0.215067
-0.632575
-1.09474
-1.34657
-1.75418
-2.43895
-2.65492
-3.06411
-3.94689
-5.83821
-8.20592
-9.48055
-13.4114
-17.8174
-13.7628
-6.48781
-3.18605
-1.74473
-1.02449
-0.605299
-0.322815
-0.101676
1.83792
3.48764
4.9748
6.68794
5.28011
4.40373
4.94702
3.85289
3.01543
2.90629
3.39238
4.10797
3.4881
3.92555
4.81026
3.74534
3.07673
3.37986
2.63372
2.0576
1.965
2.26706
2.71297
2.27468
2.5037
3.00155
2.26201
1.6935
1.57643
1.77974
2.1054
1.736
1.88061
2.23926
1.6729
1.27591
1.30274
0.91503
0.582185
0.421217
0.291473
0.161649
-0.155318
-0.602263
-1.11985
-1.29826
-1.6901
-2.51702
-2.58375
-2.89888
-3.70985
-5.82935
-8.60863
-9.38504
-14.205
-20.6371
-15.2825
-5.95561
-2.6473
-1.39067
-0.802441
-0.470306
-0.24984
-0.0785562
2.29878
3.78717
5.31842
7.64902
5.4822
4.33562
5.39225
3.90441
2.87994
2.78287
3.40701
4.43185
3.38413
3.97195
5.32643
3.79686
2.96945
3.62538
2.63571
1.9442
1.86591
2.26545
2.91831
2.20411
2.52935
3.32098
2.29343
1.60676
1.50468
1.7839
2.27423
1.69028
1.90798
2.49183
1.71053
1.24106
1.41569
0.93895
0.568497
0.434884
0.326387
0.240801
-0.0893928
-0.568499
-1.1668
-1.23763
-1.59941
-2.64306
-2.49889
-2.70736
-3.39471
-5.77627
-9.12914
-9.02035
-14.8548
-24.1303
-17.0042
-5.03979
-1.99341
-1.00691
-0.57279
-0.333665
-0.176735
-0.0554963
2.93172
4.07098
5.59758
8.8461
5.61237
4.13428
5.97531
3.92504
2.69304
2.62027
3.39623
4.86969
3.1836
3.96893
5.99833
3.80273
2.77516
3.96189
2.61918
1.79786
1.74162
2.24826
3.19918
2.07237
2.52504
3.73891
2.3024
1.48767
1.4125
1.77482
2.50209
1.59701
1.91153
2.81775
1.72727
1.16791
1.56398
0.955258
0.540768
0.446401
0.35836
0.331615
-0.0171407
-0.528839
-1.24429
-1.16165
-1.47052
-2.83703
-2.39595
-2.49461
-2.98861
-5.66547
-9.8409
-8.30419
-15.2636
-28.4848
-18.9498
-3.6127
-1.24076
-0.605779
-0.341127
-0.197916
-0.104628
-0.0328216
3.80405
4.3205
5.7672
10.3573
5.63758
3.75409
6.75286
3.8985
2.44878
2.41679
3.34649
5.46701
2.85213
3.89571
6.87971
3.74233
2.46419
4.42669
2.57391
1.61466
1.59094
2.2067
3.58523
1.85711
2.4779
4.2884
2.27584
1.33198
1.29961
1.74552
2.81227
1.43888
1.88149
3.24232
1.71326
1.04396
1.76259
0.959878
0.496156
0.457059
0.385472
0.436665
0.0611685
-0.47939
-1.36352
-1.06686
-1.28748
-3.1247
-2.267
-2.26882
-2.47687
-5.4748
-10.8445
-7.13906
-15.3004
-33.9354
-21.1384
-1.51507
-0.42283
-0.201256
-0.112731
-0.0652776
-0.0344726
-0.0108054
)
;

boundaryField
{
    left
    {
        type            calculated;
        value           uniform 0;
    }
    right
    {
        type            calculated;
        value           uniform 0;
    }
    interface
    {
        type            calculated;
        value           nonuniform List<scalar> 
64
(
3.80405
4.3205
5.7672
10.3573
5.63758
3.75409
6.75286
3.8985
2.44878
2.41679
3.34649
5.46701
2.85213
3.89571
6.87971
3.74233
2.46419
4.42669
2.57391
1.61466
1.59094
2.2067
3.58523
1.85711
2.4779
4.2884
2.27584
1.33198
1.29961
1.74552
2.81227
1.43888
1.88149
3.24232
1.71326
1.04396
1.76259
0.959878
0.496156
0.457059
0.385472
0.436665
0.0611685
-0.47939
-1.36352
-1.06686
-1.28748
-3.1247
-2.267
-2.26882
-2.47687
-5.4748
-10.8445
-7.13906
-15.3004
-33.9354
-21.1384
-1.51507
-0.42283
-0.201256
-0.112731
-0.0652776
-0.0344726
-0.0108054
)
;
    }
    bottom
    {
        type            calculated;
        value           nonuniform List<scalar> 
64
(
0.00630472
0.0187337
0.0306377
0.0417188
0.051748
0.0605761
0.0681326
0.0744155
0.0794742
0.0833918
0.0862679
0.088207
0.089311
0.0896767
0.0893966
0.0885598
0.0872532
0.0855602
0.0835587
0.0813172
0.0788915
0.0763221
0.0736341
0.0708375
0.0679301
0.0648998
0.0617271
0.0583864
0.0548468
0.0510725
0.0470231
0.0426551
0.0379234
0.0327832
0.0271928
0.0211146
0.0145163
0.00737175
-0.00033863
-0.00862651
-0.0174934
-0.0269271
-0.0368962
-0.0473432
-0.0581767
-0.0692619
-0.0804118
-0.0913791
-0.101853
-0.11146
-0.119777
-0.126354
-0.130747
-0.132563
-0.131505
-0.127409
-0.12027
-0.110241
-0.0976098
-0.0827601
-0.0661256
-0.0481472
-0.029245
-0.00980671
)
;
    }
    defaultFaces
    {
        type            empty;
    }
}


// ************************************************************************* //
