/*--------------------------------*- C++ -*----------------------------------*\
| =========                 |                                                 |
| \\      /  F ield         | OpenFOAM: The Open Source CFD Toolbox           |
|  \\    /   O peration     | Version:  5.x                                   |
|   \\  /    A nd           | Web:      www.OpenFOAM.org                      |
|    \\/     M anipulation  |                                                 |
\*---------------------------------------------------------------------------*/
FoamFile
{
    version     2.0;
    format      ascii;
    class       volScalarField;
    location    "4";
    object      gradTy;
}
// * * * * * * * * * * * * * * * * * * * * * * * * * * * * * * * * * * * * * //

dimensions      [0 -1 0 1 0 0 0];

internalField   nonuniform List<scalar> 
2048
(
-26.4238
-26.3962
-26.3419
-26.2622
-26.1594
-26.036
-25.8948
-25.7385
-25.5699
-25.3917
-25.2062
-25.0156
-24.8218
-24.6265
-24.4311
-24.2371
-24.0455
-23.8572
-23.673
-23.4935
-23.3191
-23.1502
-22.9871
-22.8298
-22.6788
-22.5342
-22.3964
-22.2656
-22.1422
-22.0268
-21.9198
-21.822
-21.734
-21.6566
-21.5909
-21.5379
-21.4986
-21.4743
-21.466
-21.4752
-21.503
-21.5508
-21.6197
-21.7108
-21.8252
-21.9637
-22.1265
-22.3136
-22.5244
-22.7574
-23.0104
-23.28
-23.562
-23.8511
-24.1413
-24.4259
-24.6983
-24.9517
-25.1802
-25.3784
-25.5418
-25.6672
-25.7521
-25.7949
-26.4461
-26.4179
-26.3623
-26.2809
-26.1761
-26.0505
-25.9069
-25.7484
-25.5778
-25.3976
-25.2104
-25.0182
-24.823
-24.6265
-24.4301
-24.2351
-24.0428
-23.8539
-23.6692
-23.4894
-23.3147
-23.1456
-22.9822
-22.8248
-22.6736
-22.5288
-22.3907
-22.2596
-22.1358
-22.02
-21.9125
-21.814
-21.7253
-21.6472
-21.5807
-21.5268
-21.4865
-21.4612
-21.452
-21.4601
-21.4869
-21.5337
-21.6016
-21.692
-21.8058
-21.9439
-22.1068
-22.2944
-22.5064
-22.7413
-22.9969
-23.27
-23.5563
-23.8503
-24.1457
-24.4359
-24.7136
-24.972
-25.2047
-25.4064
-25.5726
-25.7
-25.7861
-25.8296
-26.4888
-26.4593
-26.4013
-26.3166
-26.2078
-26.0778
-25.9299
-25.7671
-25.5924
-25.4086
-25.2181
-25.023
-24.8252
-24.6264
-24.428
-24.2313
-24.0375
-23.8475
-23.662
-23.4815
-23.3063
-23.1368
-22.9731
-22.8154
-22.6638
-22.5185
-22.3799
-22.2482
-22.1238
-22.007
-21.8986
-21.799
-21.709
-21.6295
-21.5614
-21.5057
-21.4637
-21.4365
-21.4253
-21.4315
-21.4564
-21.5012
-21.5674
-21.6563
-21.7689
-21.9063
-22.0692
-22.2578
-22.4718
-22.7102
-22.9708
-23.2505
-23.5449
-23.8483
-24.1541
-24.4548
-24.7428
-25.0107
-25.2517
-25.4601
-25.6315
-25.7625
-25.851
-25.8956
-26.5501
-26.5187
-26.4571
-26.3674
-26.2527
-26.1164
-25.9621
-25.7931
-25.6128
-25.4238
-25.2287
-25.0295
-24.828
-24.6259
-24.4247
-24.2257
-24.0299
-23.8384
-23.6516
-23.4702
-23.2944
-23.1243
-22.9602
-22.802
-22.65
-22.5041
-22.3648
-22.2323
-22.1069
-21.989
-21.8791
-21.7779
-21.6861
-21.6046
-21.5342
-21.4762
-21.4317
-21.4018
-21.3879
-21.3913
-21.4133
-21.4555
-21.5191
-21.6056
-21.7164
-21.8527
-22.0154
-22.2051
-22.4219
-22.6651
-22.9327
-23.2218
-23.5278
-23.8448
-24.1655
-24.4817
-24.7847
-25.0663
-25.3191
-25.537
-25.7157
-25.8518
-25.9434
-25.9895
-26.6285
-26.5946
-26.5281
-26.4319
-26.3094
-26.1648
-26.0021
-25.8253
-25.6377
-25.4423
-25.2414
-25.037
-24.8311
-24.625
-24.4203
-24.2183
-24.02
-23.8265
-23.6383
-23.4558
-23.2793
-23.1087
-22.9441
-22.7854
-22.6328
-22.4863
-22.3461
-22.2126
-22.0859
-21.9666
-21.8551
-21.7519
-21.6578
-21.5737
-21.5005
-21.4395
-21.3917
-21.3585
-21.3411
-21.341
-21.3595
-21.3981
-21.4583
-21.5418
-21.6501
-21.7847
-21.9469
-22.1377
-22.3576
-22.6064
-22.8827
-23.1836
-23.5046
-23.8392
-24.1794
-24.5157
-24.8383
-25.1376
-25.4055
-25.6355
-25.823
-25.9652
-26.0606
-26.1084
-26.7231
-26.6859
-26.6133
-26.5086
-26.3764
-26.2214
-26.0486
-25.8623
-25.6662
-25.4631
-25.2555
-25.0453
-24.834
-24.6233
-24.4145
-24.209
-24.0079
-23.8121
-23.6223
-23.4387
-23.2614
-23.0903
-22.9252
-22.7661
-22.6128
-22.4655
-22.3244
-22.1897
-22.0617
-21.9407
-21.8272
-21.7217
-21.6249
-21.5377
-21.4612
-21.3966
-21.345
-21.3078
-21.2864
-21.2821
-21.2963
-21.3307
-21.3868
-21.4665
-21.5715
-21.7037
-21.8648
-22.0563
-22.2794
-22.5345
-22.8206
-23.1355
-23.4744
-23.8306
-24.1948
-24.5561
-24.9029
-25.224
-25.5101
-25.7542
-25.9519
-26.1008
-26.2002
-26.2498
-26.8332
-26.7919
-26.7116
-26.5966
-26.4525
-26.2851
-26.1003
-25.9029
-25.697
-25.4854
-25.2704
-25.0537
-24.8366
-24.6207
-24.4072
-24.1977
-23.9934
-23.7952
-23.6036
-23.419
-23.2411
-23.0696
-22.9041
-22.7444
-22.5905
-22.4424
-22.3002
-22.1643
-22.0348
-21.912
-21.7963
-21.6882
-21.5884
-21.4977
-21.4174
-21.3487
-21.2928
-21.2511
-21.225
-21.2159
-21.2252
-21.2547
-21.3059
-21.381
-21.482
-21.6109
-21.7702
-21.9619
-22.1878
-22.4492
-22.7462
-23.0767
-23.4366
-23.8182
-24.2112
-24.6025
-24.9783
-25.3251
-25.6323
-25.8922
-26.1008
-26.2567
-26.36
-26.4113
-26.9585
-26.9121
-26.8224
-26.6949
-26.5364
-26.3544
-26.1557
-25.9459
-25.7292
-25.5085
-25.2856
-25.0619
-24.8386
-24.6169
-24.3984
-24.1845
-23.9766
-23.7758
-23.5825
-23.3969
-23.2185
-23.0468
-22.8811
-22.721
-22.5664
-22.4173
-22.2741
-22.1368
-22.0058
-21.8811
-21.7631
-21.6522
-21.549
-21.4545
-21.3699
-21.2966
-21.236
-21.1893
-21.1581
-21.1437
-21.1475
-21.1714
-21.2171
-21.2868
-21.3828
-21.5076
-21.6641
-21.855
-22.0831
-22.3506
-22.6587
-23.0065
-23.3898
-23.8009
-24.2276
-24.6544
-25.0643
-25.441
-25.7719
-26.0489
-26.2688
-26.4312
-26.5379
-26.5906
-27.0988
-27.0462
-26.9451
-26.8025
-26.6271
-26.4282
-26.2137
-25.9901
-25.7618
-25.5314
-25.3004
-25.0695
-24.8397
-24.612
-24.3879
-24.1692
-23.9575
-23.7539
-23.5589
-23.3725
-23.194
-23.0223
-22.8565
-22.6961
-22.5409
-22.3908
-22.2464
-22.1078
-21.9752
-21.8487
-21.7282
-21.6143
-21.5074
-21.4087
-21.3195
-21.2412
-21.1754
-21.1234
-21.0867
-21.0665
-21.0644
-21.0821
-21.1215
-21.185
-21.2751
-21.3948
-21.5473
-21.7363
-21.9655
-22.2384
-22.5576
-22.9236
-23.3329
-23.7775
-24.2433
-24.7116
-25.1612
-25.572
-25.9291
-26.2241
-26.4547
-26.6228
-26.7318
-26.7854
-27.2541
-27.1941
-27.0793
-26.9186
-26.7234
-26.505
-26.2728
-26.0343
-25.7938
-25.5537
-25.3145
-25.0765
-24.8399
-24.6058
-24.3757
-24.1518
-23.9359
-23.7294
-23.5329
-23.3461
-23.1677
-22.9964
-22.8309
-22.6703
-22.5143
-22.3632
-22.2176
-22.0776
-21.9436
-21.8151
-21.6923
-21.5751
-21.4643
-21.3611
-21.2668
-21.1832
-21.1119
-21.0542
-21.0116
-20.9854
-20.9769
-20.9879
-21.0204
-21.0769
-21.1602
-21.2737
-21.421
-21.6066
-21.8353
-22.1124
-22.4421
-22.8268
-23.2644
-23.7465
-24.2573
-24.7738
-25.2694
-25.719
-26.1046
-26.4176
-26.6578
-26.8298
-26.9398
-26.9933
-27.4247
-27.3558
-27.2244
-27.0425
-26.8242
-26.5834
-26.3318
-26.0773
-25.8244
-25.5746
-25.3276
-25.0826
-24.8392
-24.5983
-24.3618
-24.1321
-23.9117
-23.7023
-23.5045
-23.3177
-23.14
-22.9696
-22.8046
-22.6438
-22.4871
-22.3349
-22.1879
-22.0466
-21.9112
-21.781
-21.6557
-21.5353
-21.4204
-21.3122
-21.2125
-21.1232
-21.0461
-20.9825
-20.9338
-20.9012
-20.886
-20.8898
-20.9148
-20.9636
-21.0392
-21.1453
-21.286
-21.4665
-21.693
-21.9724
-22.3114
-22.7148
-23.1824
-23.7063
-24.2685
-24.8411
-25.3899
-25.8831
-26.2991
-26.6295
-26.8772
-27.0506
-27.1596
-27.2119
-27.6112
-27.5314
-27.3804
-27.1732
-26.9281
-26.6622
-26.3892
-26.1179
-25.8526
-25.5937
-25.3395
-25.0878
-24.8377
-24.5898
-24.3462
-24.1101
-23.8849
-23.6725
-23.4737
-23.2873
-23.1111
-22.9422
-22.7779
-22.6171
-22.4596
-22.306
-22.1575
-22.015
-21.8784
-21.7468
-21.6192
-21.4954
-21.3761
-21.2626
-21.1571
-21.0618
-20.9785
-20.9089
-20.854
-20.8149
-20.7927
-20.7889
-20.8058
-20.8462
-20.9132
-21.0108
-21.1434
-21.3171
-21.5391
-21.8184
-22.1647
-22.586
-23.0851
-23.655
-24.2758
-24.9134
-25.5239
-26.0662
-26.5139
-26.8601
-27.1121
-27.2837
-27.3889
-27.4387
-27.8142
-27.7213
-27.5468
-27.31
-27.0338
-26.7398
-26.4436
-26.1549
-25.8776
-25.6106
-25.3501
-25.0923
-24.8355
-24.5803
-24.3289
-24.0858
-23.8553
-23.6399
-23.4403
-23.2552
-23.0812
-22.9144
-22.7514
-22.5906
-22.432
-22.2767
-22.1266
-21.983
-21.8455
-21.7127
-21.583
-21.4558
-21.3319
-21.2127
-21.1009
-20.9992
-20.9097
-20.8339
-20.7728
-20.7271
-20.6977
-20.686
-20.6943
-20.7256
-20.7833
-20.8713
-20.9944
-21.1592
-21.3742
-21.6505
-22.0012
-22.4389
-22.9703
-23.5904
-24.2776
-24.9908
-25.6732
-26.2703
-26.7506
-27.1097
-27.3616
-27.527
-27.6254
-27.671
-28.0345
-27.9259
-27.7236
-27.4518
-27.1401
-26.8147
-26.4935
-26.187
-25.8986
-25.6248
-25.3594
-25.0963
-24.8331
-24.57
-24.3101
-24.059
-23.8227
-23.6042
-23.4043
-23.2213
-23.0506
-22.8868
-22.7254
-22.5646
-22.4047
-22.2473
-22.0952
-21.9506
-21.8128
-21.6793
-21.5476
-21.4171
-21.2882
-21.1629
-21.0444
-20.936
-20.84
-20.758
-20.6907
-20.6385
-20.6018
-20.5819
-20.5812
-20.6029
-20.6505
-20.728
-20.8402
-20.9941
-21.1992
-21.4689
-21.8203
-22.2718
-22.8354
-23.5096
-24.2721
-25.0736
-25.8398
-26.4984
-27.0111
-27.3787
-27.6247
-27.7787
-27.8665
-27.906
-28.2731
-28.1458
-27.9105
-27.5979
-27.2453
-26.8852
-26.5375
-26.2132
-25.9148
-25.6364
-25.3677
-25.1002
-24.8307
-24.5594
-24.2898
-24.0296
-23.7869
-23.5653
-23.3656
-23.1857
-23.0196
-22.8598
-22.7004
-22.5396
-22.378
-22.2177
-22.0633
-21.9179
-21.7804
-21.6468
-21.5136
-21.3796
-21.2456
-21.1135
-20.9876
-20.8723
-20.7698
-20.6816
-20.6084
-20.5498
-20.5058
-20.4774
-20.4672
-20.4788
-20.5158
-20.5819
-20.6818
-20.8229
-21.0152
-21.274
-21.6216
-22.083
-22.678
-23.4097
-24.2568
-25.1618
-26.027
-26.754
-27.2977
-27.6673
-27.9
-28.0365
-28.1097
-28.1411
-28.5313
-28.3817
-28.1075
-27.747
-27.3476
-26.9497
-26.5741
-26.2321
-25.9257
-25.6451
-25.3754
-25.1044
-24.8287
-24.5489
-24.2681
-23.9974
-23.7478
-23.5229
-23.3238
-23.1484
-22.9884
-22.8338
-22.6768
-22.5158
-22.352
-22.1881
-22.0307
-21.8848
-21.7484
-21.6156
-21.4811
-21.3437
-21.2043
-21.0648
-20.9309
-20.8083
-20.6993
-20.6051
-20.5261
-20.4615
-20.4102
-20.3731
-20.353
-20.354
-20.3801
-20.4342
-20.5207
-20.6471
-20.8235
-21.0668
-21.4047
-21.8711
-22.4953
-23.287
-24.2285
-25.2556
-26.2385
-27.0417
-27.6127
-27.9757
-28.186
-28.298
-28.3521
-28.3733
-28.8105
-28.634
-28.3145
-27.898
-27.4453
-27.0066
-26.602
-26.2425
-25.9306
-25.651
-25.383
-25.1095
-24.8278
-24.539
-24.2452
-23.9619
-23.705
-23.4769
-23.2788
-23.1094
-22.9575
-22.8095
-22.655
-22.4936
-22.3273
-22.1584
-21.997
-21.8511
-21.7171
-21.5862
-21.4507
-21.3099
-21.1649
-21.0171
-20.8742
-20.7442
-20.6286
-20.5285
-20.4444
-20.3741
-20.3158
-20.2697
-20.2392
-20.2294
-20.2442
-20.2859
-20.358
-20.4681
-20.6257
-20.8481
-21.1696
-21.6343
-22.2844
-23.1375
-24.1831
-25.3549
-26.4793
-27.3668
-27.9589
-28.3035
-28.4808
-28.5607
-28.5911
-28.6
-29.1123
-28.9036
-28.5317
-28.0496
-27.536
-27.0543
-26.6197
-26.243
-25.929
-25.6544
-25.3913
-25.1159
-24.8283
-24.5306
-24.2213
-23.9229
-23.6584
-23.4269
-23.2301
-23.0687
-22.927
-22.7874
-22.6356
-22.4733
-22.3041
-22.1285
-21.9617
-21.8166
-21.6864
-21.559
-21.4227
-21.2783
-21.1277
-20.9704
-20.8175
-20.68
-20.5581
-20.4522
-20.3635
-20.2882
-20.2231
-20.1677
-20.1264
-20.1053
-20.1089
-20.1381
-20.1948
-20.2875
-20.4238
-20.6193
-20.9164
-21.3713
-22.0428
-22.9566
-24.1149
-25.4592
-26.7563
-27.7358
-28.3387
-28.65
-28.7819
-28.8217
-28.824
-28.8187
-29.4385
-29.1908
-28.7592
-28.2002
-27.617
-27.0915
-26.6262
-26.2323
-25.9203
-25.6555
-25.4014
-25.1243
-24.8305
-24.5245
-24.1963
-23.8795
-23.6078
-23.3729
-23.1771
-23.0262
-22.8976
-22.7686
-22.6189
-22.4552
-22.2831
-22.0984
-21.9241
-21.7808
-21.6567
-21.5345
-21.3974
-21.2493
-21.0933
-20.925
-20.7605
-20.6159
-20.4876
-20.3761
-20.2837
-20.2041
-20.1328
-20.0676
-20.0148
-19.9822
-19.9749
-19.9918
-20.0323
-20.1069
-20.2199
-20.3822
-20.6458
-21.0808
-21.7681
-22.7396
-24.0162
-25.5675
-27.0782
-28.1565
-28.7545
-29.0138
-29.0867
-29.0781
-29.0481
-29.0269
-29.7913
-29.4957
-28.9978
-28.3483
-27.6851
-27.1171
-26.6206
-26.2085
-25.9042
-25.6549
-25.4148
-25.135
-24.8347
-24.5224
-24.1707
-23.8305
-23.5534
-23.3147
-23.1191
-22.9818
-22.8695
-22.7539
-22.6053
-22.4393
-22.265
-22.0679
-21.883
-21.7435
-21.6279
-21.5136
-21.375
-21.2228
-21.0625
-20.8809
-20.7026
-20.5519
-20.4175
-20.3002
-20.2053
-20.1224
-20.0453
-19.9699
-19.9048
-19.8602
-19.8428
-19.848
-19.8712
-19.9279
-20.0168
-20.1387
-20.3587
-20.7613
-21.4585
-22.4818
-23.8769
-25.6779
-27.4571
-28.6379
-29.2081
-29.3925
-29.3916
-29.3269
-29.261
-29.2225
-30.1733
-29.818
-29.2488
-28.4921
-27.7359
-27.1308
-26.6026
-26.1696
-25.8805
-25.6528
-25.4336
-25.1484
-24.8405
-24.5263
-24.1443
-23.7743
-23.4956
-23.2526
-23.0549
-22.9357
-22.8431
-22.7448
-22.5948
-22.4253
-22.2511
-22.0368
-21.837
-21.7041
-21.6002
-21.4972
-21.3556
-21.1986
-21.0361
-20.8383
-20.6432
-20.4882
-20.3479
-20.2242
-20.1285
-20.0434
-19.9614
-19.8749
-19.7964
-19.7396
-19.713
-19.7078
-19.712
-19.7517
-19.8175
-19.891
-20.0566
-20.4114
-21.1132
-22.1793
-23.6827
-25.7868
-27.9093
-29.1901
-29.7
-29.7827
-29.6929
-29.5652
-29.4605
-29.4038
-30.5875
-30.1556
-29.5147
-28.6295
-27.7639
-27.1333
-26.5722
-26.1126
-25.8493
-25.6497
-25.4607
-25.1643
-24.8469
-24.5392
-24.1175
-23.7079
-23.4353
-23.1869
-22.9827
-22.8878
-22.8186
-22.7433
-22.5876
-22.4126
-22.2433
-22.0051
-21.7837
-21.6626
-21.5736
-21.4868
-21.3392
-21.1764
-21.0158
-20.7971
-20.5809
-20.4252
-20.279
-20.1477
-20.0537
-19.9674
-19.8817
-19.7829
-19.6898
-19.62
-19.5858
-19.5724
-19.5549
-19.5797
-19.6257
-19.6413
-19.7416
-20.0289
-20.7327
-21.8297
-23.4145
-25.8886
-28.4573
-29.8244
-30.2294
-30.1798
-29.9864
-29.7899
-29.6447
-29.5694
-31.038
-30.5051
-29.7997
-28.7585
-27.7611
-27.1268
-26.5303
-26.0334
-25.8115
-25.6453
-25.5
-25.1822
-24.8519
-24.5659
-24.0903
-23.6273
-23.3746
-23.1184
-22.8999
-22.8389
-22.796
-22.7518
-22.5831
-22.3997
-22.2445
-21.9727
-21.7202
-21.6187
-21.5478
-21.4845
-21.3255
-21.1548
-21.0036
-20.7574
-20.5137
-20.3637
-20.2112
-20.0698
-19.9811
-19.8946
-19.8072
-19.6942
-19.5849
-19.5011
-19.4617
-19.4433
-19.3994
-19.4125
-19.4461
-19.3917
-19.4166
-19.6107
-20.3192
-21.4337
-23.0466
-25.9743
-29.1323
-30.5521
-30.7932
-30.5778
-30.2676
-29.9983
-29.812
-29.7183
-31.5302
-30.8593
-30.1107
-28.8769
-27.7168
-27.1162
-26.4787
-25.9261
-25.7688
-25.6388
-25.5573
-25.2007
-24.8517
-24.6131
-24.0629
-23.5261
-23.3169
-23.0486
-22.8027
-22.7899
-22.7746
-22.7743
-22.5804
-22.3843
-22.259
-21.9395
-21.6422
-21.5733
-21.5223
-21.4933
-21.3137
-21.132
-21.0029
-20.7192
-20.4388
-20.3052
-20.1451
-19.9893
-19.9114
-19.8251
-19.7388
-19.6089
-19.4817
-19.3824
-19.3405
-19.3228
-19.2442
-19.2502
-19.2843
-19.144
-19.0862
-19.1515
-19.8768
-20.9973
-22.5438
-26.03
-29.9772
-31.3839
-31.3851
-30.9695
-30.5318
-30.1882
-29.9614
-29.8499
-32.0715
-31.2066
-30.4591
-28.9824
-27.6158
-27.1096
-26.4202
-25.782
-25.725
-25.6275
-25.641
-25.2178
-24.84
-24.6909
-24.0352
-23.395
-23.2677
-22.9794
-22.6852
-22.7432
-22.7526
-22.816
-22.5782
-22.3622
-22.2931
-21.9053
-21.5436
-21.5278
-21.4956
-21.5175
-21.3027
-21.1047
-21.0184
-20.6823
-20.3517
-20.252
-20.0814
-19.9042
-19.8456
-19.7586
-19.678
-19.5271
-19.38
-19.2627
-19.2221
-19.2139
-19.0868
-19.0921
-19.1477
-18.8983
-18.7571
-18.643
-19.4118
-20.5345
-21.8595
-26.0351
-31.0517
-32.3275
-31.9955
-31.3467
-30.7747
-30.3574
-30.0921
-29.964
-32.6724
-31.5279
-30.8621
-29.0727
-27.4367
-27.1207
-26.3593
-25.5885
-25.6868
-25.6062
-25.7628
-25.2298
-24.8069
-24.8138
-24.0072
-23.2205
-23.236
-22.9137
-22.5391
-22.7032
-22.7264
-22.8848
-22.5741
-22.327
-22.3563
-21.8702
-21.4162
-21.4859
-21.465
-21.5633
-21.2906
-21.0679
-21.057
-20.6465
-20.2463
-20.2077
-20.0211
-19.8113
-19.7853
-19.6944
-19.6266
-19.4485
-19.2799
-19.1409
-19.1057
-19.1211
-18.9236
-18.936
-19.0463
-18.6529
-18.4395
-18.0717
-18.9327
-20.0718
-20.9316
-25.9596
-32.4383
-33.385
-32.6101
-31.7001
-30.9921
-30.5046
-30.2038
-30.0607
-33.3475
-31.7937
-31.3459
-29.1455
-27.1498
-27.17
-26.3018
-25.3271
-25.6658
-25.5652
-25.9397
-25.2317
-24.7378
-25.0025
-23.9788
-22.9833
-23.2351
-22.8554
-22.3522
-22.6771
-22.6895
-22.9917
-22.5645
-22.2691
-22.4618
-21.8337
-21.2483
-21.4535
-21.4253
-21.6395
-21.2747
-21.0142
-21.129
-20.6113
-20.1137
-20.1783
-19.9654
-19.7064
-19.7333
-19.631
-19.587
-19.3724
-19.1815
-19.0152
-18.9899
-19.0508
-18.7491
-18.7781
-18.9934
-18.4025
-18.1488
-17.4175
-18.4497
-19.6526
-19.6784
-25.7605
-34.2494
-34.5485
-33.2102
-32.0204
-31.1806
-30.6289
-30.2967
-30.1405
-34.1181
-31.9598
-31.9491
-29.1987
-26.7137
-27.288
-26.2551
-24.9719
-25.6806
-25.488
-26.1956
-25.2163
-24.6111
-25.2862
-23.9492
-22.6565
-23.2847
-22.8094
-22.107
-22.677
-22.6312
-23.1524
-22.5449
-22.1748
-22.6285
-21.7954
-21.0244
-21.4411
-21.3679
-21.7588
-21.2511
-20.9327
-21.2485
-20.5759
-19.9418
-20.1723
-19.9157
-19.5831
-19.6937
-19.5656
-19.5628
-19.2977
-19.0853
-18.8837
-18.8721
-19.0126
-18.5557
-18.6122
-19.0074
-18.136
-17.9087
-16.6503
-17.9738
-19.3449
-17.9937
-25.3773
-36.6384
-35.794
-33.7726
-32.2987
-31.3376
-30.73
-30.3712
-30.2042
-35.0134
-31.9617
-32.7265
-29.2299
-26.0723
-27.5184
-26.2288
-24.4861
-25.7605
-25.3485
-26.5639
-25.1743
-24.3961
-25.705
-23.9177
-22.2031
-23.4128
-22.782
-21.7792
-22.7218
-22.534
-23.3887
-22.5087
-22.0242
-22.8821
-21.7541
-20.7231
-21.4648
-21.2791
-21.9386
-21.2146
-20.8084
-21.435
-20.5392
-19.714
-20.202
-19.8737
-19.4325
-19.6732
-19.4938
-19.5587
-19.2222
-18.9923
-18.7437
-18.7483
-19.0196
-18.3329
-18.4287
-19.1133
-17.834
-17.7541
-15.727
-17.5148
-19.2487
-15.7414
-24.7267
-39.811
-37.0733
-34.2706
-32.5271
-31.4616
-30.8083
-30.4283
-30.2526
-36.0744
-31.7084
-33.7555
-29.237
-25.1502
-27.9217
-26.2338
-23.8193
-25.9496
-25.1062
-27.0908
-25.0932
-24.0508
-26.313
-23.8827
-21.5734
-23.6584
-22.7807
-21.3352
-22.8401
-22.3713
-23.7309
-22.4475
-21.7902
-23.2576
-21.708
-20.3159
-21.5493
-21.1375
-22.2032
-21.1583
-20.6201
-21.7153
-20.4992
-19.4078
-20.2848
-19.8408
-19.2426
-19.6815
-19.4086
-19.5815
-19.1428
-18.9044
-18.5926
-18.6118
-19.0903
-18.0671
-18.2135
-19.346
-17.4649
-17.7361
-14.588
-17.0791
-19.5065
-12.7486
-23.6958
-44.0406
-38.3032
-34.6759
-32.6997
-31.5523
-30.8646
-30.4689
-30.2871
-37.3571
-31.0736
-35.1419
-29.217
-23.8476
-28.5805
-26.2831
-22.9029
-26.3121
-24.7016
-27.8387
-24.957
-23.518
-27.1821
-23.8417
-20.7016
-24.0747
-22.8141
-20.7296
-23.0738
-22.1038
-24.22
-22.3505
-21.4362
-23.8016
-21.6541
-19.7653
-21.7306
-20.9117
-22.5855
-21.0732
-20.3398
-22.1249
-20.4532
-18.994
-20.4447
-19.8186
-18.9971
-19.7326
-19.2996
-19.6405
-19.0542
-18.8244
-18.4274
-18.4529
-19.2496
-17.7408
-17.9471
-19.7529
-16.9801
-17.9276
-13.1524
-16.6662
-20.3146
-8.7991
-22.1335
-49.6856
-39.3525
-34.962
-32.8135
-31.6105
-30.9002
-30.4945
-30.3086
-38.9364
-29.8868
-37.0282
-29.1669
-22.0352
-29.6044
-26.3911
-21.6457
-26.9398
-24.0491
-28.8915
-24.7459
-22.7226
-28.4062
-23.7914
-19.5027
-24.7326
-22.8925
-19.9024
-23.483
-21.6755
-24.9116
-22.2044
-20.914
-24.5752
-21.5884
-19.0228
-22.06
-20.5565
-23.1301
-20.9485
-19.931
-22.7109
-20.3976
-18.4356
-20.7145
-19.8089
-18.6756
-19.8476
-19.1526
-19.7494
-18.9503
-18.7579
-18.2463
-18.2584
-19.5318
-17.3333
-17.6034
-20.3995
-16.309
-18.4317
-11.3152
-16.2648
-21.9369
-3.62712
-19.8427
-57.2104
-40.026
-35.1097
-32.8693
-31.6386
-30.9173
-30.5067
-30.3191
)
;

boundaryField
{
    left
    {
        type            calculated;
        value           nonuniform List<scalar> 
32
(
-26.4238
-26.4461
-26.4888
-26.5501
-26.6285
-26.7231
-26.8332
-26.9585
-27.0988
-27.2541
-27.4247
-27.6112
-27.8142
-28.0345
-28.2731
-28.5313
-28.8105
-29.1123
-29.4385
-29.7913
-30.1733
-30.5875
-31.038
-31.5302
-32.0715
-32.6724
-33.3475
-34.1181
-35.0134
-36.0744
-37.3571
-38.9364
)
;
    }
    right
    {
        type            calculated;
        value           nonuniform List<scalar> 
32
(
-25.7949
-25.8296
-25.8956
-25.9895
-26.1084
-26.2498
-26.4113
-26.5906
-26.7854
-26.9933
-27.2119
-27.4387
-27.671
-27.906
-28.1411
-28.3733
-28.6
-28.8187
-29.0269
-29.2225
-29.4038
-29.5694
-29.7183
-29.8499
-29.964
-30.0607
-30.1405
-30.2042
-30.2526
-30.2871
-30.3086
-30.3191
)
;
    }
    interface
    {
        type            calculated;
        value           nonuniform List<scalar> 
64
(
-39.8109
-29.1311
-38.1167
-29.1338
-20.9833
-30.2234
-26.4617
-20.919
-27.3333
-23.6483
-29.506
-24.6189
-22.2485
-29.1202
-23.7634
-18.8096
-25.1321
-22.9444
-19.4248
-23.7403
-21.413
-25.3158
-22.1172
-20.6041
-25.0281
-21.5521
-18.5969
-22.2694
-20.3401
-23.4494
-20.8748
-19.6894
-23.0547
-20.3671
-18.1152
-20.8817
-19.8075
-18.4931
-19.9241
-19.0677
-19.8185
-18.8936
-18.7289
-18.1517
-18.1504
-19.7087
-17.1064
-17.4086
-20.7922
-15.9166
-18.777
-10.2815
-16.0648
-22.9894
-0.699027
-18.4873
-61.5082
-40.2399
-35.1472
-32.883
-31.6456
-30.9216
-30.5098
-30.3218
)
;
    }
    bottom
    {
        type            calculated;
        value           nonuniform List<scalar> 
64
(
-26.418
-26.3906
-26.3365
-26.2573
-26.1551
-26.0322
-25.8916
-25.7359
-25.5679
-25.3902
-25.2052
-25.0149
-24.8215
-24.6265
-24.4314
-24.2376
-24.0462
-23.8581
-23.674
-23.4946
-23.3203
-23.1514
-22.9883
-22.8312
-22.6802
-22.5357
-22.3979
-22.2672
-22.1439
-22.0286
-21.9218
-21.8241
-21.7362
-21.6591
-21.5936
-21.5408
-21.5018
-21.4777
-21.4697
-21.4791
-21.5072
-21.5552
-21.6244
-21.7157
-21.8303
-21.9688
-22.1316
-22.3186
-22.5291
-22.7616
-23.0139
-23.2826
-23.5635
-23.8513
-24.1401
-24.4233
-24.6943
-24.9465
-25.1738
-25.3711
-25.5338
-25.6587
-25.7433
-25.7859
)
;
    }
    defaultFaces
    {
        type            empty;
    }
}


// ************************************************************************* //
