/*--------------------------------*- C++ -*----------------------------------*\
| =========                 |                                                 |
| \\      /  F ield         | OpenFOAM: The Open Source CFD Toolbox           |
|  \\    /   O peration     | Version:  5.x                                   |
|   \\  /    A nd           | Web:      www.OpenFOAM.org                      |
|    \\/     M anipulation  |                                                 |
\*---------------------------------------------------------------------------*/
FoamFile
{
    version     2.0;
    format      ascii;
    class       volScalarField;
    location    "4";
    object      T;
}
// * * * * * * * * * * * * * * * * * * * * * * * * * * * * * * * * * * * * * //

dimensions      [0 0 0 1 0 0 0];

internalField   nonuniform List<scalar> 
2048
(
9.81021
9.8104
9.81079
9.81136
9.81209
9.81298
9.81399
9.81511
9.81631
9.81759
9.81892
9.82029
9.82168
9.82308
9.82448
9.82587
9.82725
9.8286
9.82992
9.83121
9.83246
9.83367
9.83485
9.83597
9.83706
9.8381
9.83909
9.84003
9.84091
9.84174
9.84251
9.84321
9.84384
9.8444
9.84487
9.84524
9.84553
9.8457
9.84576
9.84569
9.84549
9.84514
9.84464
9.84399
9.84317
9.84217
9.841
9.83966
9.83815
9.83647
9.83466
9.83273
9.83071
9.82865
9.82657
9.82454
9.82259
9.82078
9.81914
9.81773
9.81656
9.81566
9.81505
9.81475
9.43875
9.43934
9.4405
9.44219
9.44438
9.44701
9.45001
9.45333
9.45692
9.4607
9.46465
9.4687
9.47282
9.47697
9.48112
9.48524
9.48931
9.49331
9.49722
9.50104
9.50474
9.50833
9.5118
9.51513
9.51834
9.52141
9.52434
9.52712
9.52974
9.53219
9.53447
9.53655
9.53842
9.54006
9.54146
9.54258
9.54342
9.54394
9.54412
9.54392
9.54333
9.54232
9.54086
9.53893
9.5365
9.53356
9.5301
9.52612
9.52165
9.51669
9.51131
9.50558
9.49959
9.49344
9.48726
9.48121
9.47542
9.47002
9.46516
9.46095
9.45747
9.45481
9.453
9.45209
9.0831
9.08408
9.08599
9.0888
9.09242
9.09675
9.10171
9.10718
9.11308
9.11931
9.12579
9.13244
9.13919
9.146
9.1528
9.15955
9.16621
9.17276
9.17915
9.18539
9.19144
9.19731
9.20297
9.20843
9.21367
9.21869
9.22347
9.22802
9.23231
9.23632
9.24004
9.24345
9.24652
9.24922
9.25152
9.25338
9.25477
9.25564
9.25595
9.25566
9.25472
9.25309
9.25072
9.24758
9.24363
9.23883
9.23319
9.22668
9.21935
9.21122
9.20238
9.19294
9.18305
9.17291
9.16271
9.1527
9.14312
9.13421
9.12618
9.11922
9.11348
9.10908
9.1061
9.1046
8.74234
8.7437
8.74638
8.7503
8.75535
8.76139
8.76828
8.77588
8.78406
8.79267
8.80162
8.8108
8.82012
8.8295
8.83887
8.84816
8.85732
8.86632
8.87511
8.88367
8.89198
8.90002
8.90779
8.91528
8.92247
8.92936
8.93593
8.94218
8.94807
8.95359
8.95871
8.96341
8.96765
8.97138
8.97457
8.97716
8.9791
8.98033
8.9808
8.98044
8.9792
8.97701
8.97381
8.96953
8.96414
8.95759
8.94985
8.94092
8.93081
8.91959
8.90737
8.89428
8.88055
8.86643
8.85222
8.83826
8.8249
8.81247
8.80127
8.79158
8.7836
8.77749
8.77336
8.77128
8.41561
8.41737
8.42084
8.42589
8.43239
8.44015
8.44899
8.45871
8.46914
8.48011
8.4915
8.50315
8.51497
8.52686
8.53871
8.55047
8.56205
8.57341
8.58451
8.5953
8.60578
8.61592
8.62571
8.63514
8.6442
8.65289
8.66118
8.66905
8.67649
8.68347
8.68996
8.69591
8.70129
8.70604
8.7101
8.71342
8.71593
8.71755
8.71821
8.71783
8.71633
8.71364
8.70968
8.70436
8.69762
8.6894
8.67966
8.66839
8.6556
8.64136
8.6258
8.60909
8.59152
8.5734
8.55515
8.5372
8.52
8.50402
8.48963
8.47719
8.46697
8.45915
8.45387
8.45121
8.10215
8.10433
8.10861
8.11484
8.12283
8.13234
8.14314
8.15499
8.16767
8.18099
8.19477
8.20886
8.22313
8.23746
8.25175
8.2659
8.27983
8.29347
8.30679
8.31973
8.33229
8.34443
8.35616
8.36746
8.37832
8.38874
8.39868
8.40813
8.41707
8.42546
8.43326
8.44044
8.44694
8.45269
8.45764
8.46169
8.46478
8.46681
8.4677
8.46735
8.46566
8.46253
8.45788
8.4516
8.44361
8.43382
8.42218
8.40866
8.39327
8.37607
8.3572
8.33688
8.31544
8.29328
8.2709
8.24886
8.22775
8.20812
8.1905
8.17528
8.16279
8.15326
8.14684
8.14361
7.80125
7.80387
7.809
7.81646
7.826
7.83732
7.85012
7.86412
7.87906
7.8947
7.91086
7.92734
7.94402
7.96075
7.9774
7.99388
8.01009
8.02595
8.04141
8.05642
8.07097
8.08505
8.09863
8.11172
8.12431
8.13638
8.14792
8.15889
8.16927
8.17903
8.18812
8.1965
8.2041
8.21086
8.21668
8.22149
8.22518
8.22765
8.2288
8.22852
8.2267
8.22322
8.21796
8.21081
8.20165
8.1904
8.17695
8.16128
8.14336
8.12326
8.10112
8.07718
8.05181
8.02552
7.9989
7.97264
7.94749
7.92412
7.90317
7.88512
7.87035
7.85911
7.85155
7.84775
7.51224
7.51533
7.52137
7.53013
7.54128
7.55447
7.56933
7.58552
7.60273
7.62069
7.6392
7.65805
7.67709
7.69617
7.71515
7.7339
7.75232
7.77033
7.78785
7.80486
7.82132
7.83724
7.8526
7.86741
7.88166
7.89533
7.9084
7.92084
7.93262
7.94371
7.95405
7.96361
7.9723
7.98005
7.98676
7.99232
7.99664
7.99959
8.00105
8.00089
7.999
7.99522
7.98944
7.98151
7.9713
7.95867
7.94353
7.9258
7.90544
7.88249
7.8571
7.82952
7.80017
7.76962
7.73861
7.70798
7.67861
7.65137
7.627
7.60607
7.58899
7.57604
7.56735
7.56299
7.23451
7.2381
7.24512
7.25526
7.26812
7.28326
7.30024
7.31865
7.33814
7.35843
7.37926
7.40045
7.42182
7.44321
7.46446
7.48543
7.50601
7.52609
7.54561
7.56453
7.58283
7.60051
7.61758
7.63404
7.64988
7.66508
7.67963
7.69348
7.70662
7.719
7.73057
7.74128
7.75105
7.75979
7.76739
7.77374
7.7787
7.78216
7.78396
7.78398
7.78208
7.77809
7.77187
7.76326
7.75208
7.7382
7.72147
7.70178
7.67906
7.65334
7.62472
7.59348
7.56006
7.52513
7.48954
7.45433
7.42056
7.38928
7.36138
7.33751
7.31812
7.30347
7.29366
7.28876
6.96747
6.97161
6.97969
6.99131
7.00598
7.02317
7.04234
7.06302
7.08481
7.1074
7.13055
7.15405
7.17771
7.20136
7.22484
7.24799
7.27067
7.29277
7.31421
7.33496
7.35502
7.37438
7.39308
7.41112
7.42849
7.44517
7.46114
7.47637
7.49081
7.50445
7.51722
7.52906
7.5399
7.54963
7.55813
7.56527
7.57091
7.5749
7.5771
7.57735
7.57549
7.57136
7.56479
7.55558
7.54355
7.52852
7.51031
7.48878
7.46381
7.43538
7.40357
7.36864
7.33106
7.29159
7.25122
7.21118
7.17279
7.13729
7.10575
7.07889
7.05718
7.04085
7.02997
7.02453
6.71059
6.71533
6.72455
6.73777
6.75438
6.77372
6.79516
6.81815
6.84226
6.86716
6.89259
6.91836
6.94427
6.97016
6.99583
7.02111
7.04583
7.06989
7.09318
7.11569
7.13742
7.1584
7.17865
7.19819
7.21703
7.23514
7.25249
7.26903
7.28475
7.29959
7.31353
7.32649
7.33839
7.34911
7.35853
7.36648
7.37281
7.37737
7.38
7.38052
7.37878
7.37458
7.36773
7.35803
7.34525
7.32918
7.30962
7.28636
7.25925
7.2282
7.19324
7.15461
7.11278
7.06859
7.0232
6.97806
6.93478
6.89487
6.85956
6.82967
6.80567
6.78771
6.77579
6.76986
6.46333
6.46873
6.47921
6.49418
6.51286
6.53447
6.55826
6.58361
6.61005
6.63724
6.66492
6.69292
6.72106
6.74914
6.77696
6.80433
6.83106
6.85701
6.88209
6.90628
6.9296
6.9521
6.97383
6.99482
7.01507
7.03455
7.05323
7.07105
7.08799
7.10401
7.11908
7.13314
7.14609
7.15781
7.16814
7.17692
7.18398
7.18914
7.19223
7.19307
7.1915
7.1873
7.18026
7.17015
7.15673
7.13975
7.11895
7.0941
7.06497
7.0314
6.99336
6.95102
6.90485
6.85575
6.80506
6.75451
6.70604
6.66149
6.6223
6.58937
6.56311
6.54359
6.53071
6.52431
6.22521
6.23135
6.24323
6.26008
6.281
6.30501
6.33124
6.359
6.38777
6.41722
6.44712
6.47731
6.50762
6.53786
6.56781
6.59724
6.62593
6.65371
6.6805
6.70629
6.73112
6.75506
6.7782
6.80057
6.82218
6.84299
6.86295
6.882
6.90011
6.91727
6.93345
6.94859
6.96258
6.9753
6.98657
6.99619
7.00399
7.00977
7.01336
7.01457
7.01322
7.00908
7.00194
6.99152
6.97756
6.95978
6.93788
6.91157
6.88055
6.84459
6.80355
6.75751
6.70692
6.65272
6.59642
6.54009
6.48609
6.43665
6.39348
6.35751
6.32908
6.3081
6.29433
6.28752
5.99577
6.00274
6.01615
6.03508
6.0584
6.08495
6.11371
6.14392
6.17502
6.20669
6.23876
6.27109
6.30353
6.33591
6.36796
6.39941
6.43002
6.45958
6.48802
6.51532
6.54156
6.56687
6.59134
6.61504
6.63795
6.66004
6.68124
6.70148
6.72073
6.73898
6.75624
6.77243
6.78746
6.80119
6.8134
6.82389
6.83244
6.83887
6.84299
6.84461
6.84352
6.83952
6.83234
6.8217
6.80731
6.78885
6.76598
6.73835
6.7056
6.66739
6.62346
6.57376
6.51867
6.45915
6.39692
6.33439
6.27447
6.21989
6.17263
6.13367
6.10317
6.08087
6.06633
6.05916
5.77456
5.78245
5.79757
5.81879
5.84471
5.87394
5.90533
5.93802
5.97142
6.00527
6.03944
6.07385
6.1084
6.14287
6.177
6.21046
6.24294
6.27424
6.30424
6.33297
6.36054
6.38712
6.41286
6.43782
6.46199
6.48533
6.50773
6.52911
6.54944
6.56875
6.58704
6.60428
6.62034
6.63507
6.64824
6.65961
6.66895
6.67605
6.68072
6.68277
6.682
6.67819
6.67105
6.66028
6.64556
6.62653
6.60282
6.57403
6.53972
6.49942
6.45273
6.39944
6.33979
6.27476
6.20622
6.13702
6.07071
6.01071
5.95929
5.91742
5.88503
5.86157
5.84639
5.83894
5.56117
5.57009
5.58711
5.61084
5.63958
5.67165
5.70576
5.74095
5.77663
5.81258
5.84878
5.88522
5.92181
5.95835
5.99454
6.03
6.06433
6.0973
6.12881
6.15888
6.18768
6.21544
6.24236
6.26853
6.29393
6.31848
6.34205
6.36453
6.38589
6.4062
6.4255
6.44375
6.46085
6.4766
6.49074
6.503
6.51313
6.52092
6.52616
6.52868
6.52827
6.5247
6.51768
6.50686
6.4919
6.47242
6.44801
6.41821
6.3825
6.34031
6.29103
6.23424
6.17
6.09925
6.02402
5.94759
5.87438
5.80864
5.75303
5.70838
5.67431
5.64991
5.63424
5.62659
5.35518
5.36526
5.3844
5.41091
5.44269
5.47777
5.51468
5.55239
5.5903
5.62827
5.6664
5.7048
5.74339
5.78198
5.82023
5.85767
5.89382
5.92842
5.96136
5.99267
6.02259
6.05145
6.07949
6.10681
6.1334
6.15915
6.18386
6.20738
6.22972
6.25098
6.27125
6.2905
6.30862
6.3254
6.34053
6.3537
6.36464
6.37313
6.37895
6.38195
6.38194
6.37867
6.37183
6.36104
6.34593
6.32611
6.30113
6.27048
6.23356
6.18969
6.13803
6.07788
6.00906
5.9324
5.85004
5.76576
5.68502
5.61322
5.55342
5.50621
5.47072
5.44561
5.42963
5.42187
5.1562
5.16759
5.1891
5.21868
5.25377
5.29201
5.3318
5.37203
5.4121
5.45198
5.49195
5.53223
5.57278
5.61338
5.6537
5.69314
5.73108
5.76726
5.80155
5.834
5.86494
5.89478
5.92388
5.95231
5.98005
6.00698
6.03282
6.05734
6.08059
6.10274
6.12394
6.14418
6.16331
6.18113
6.19729
6.21137
6.22313
6.23232
6.23874
6.24225
6.24266
6.23973
6.23314
6.22246
6.20729
6.18722
6.16179
6.13044
6.09252
6.0472
5.99339
5.93007
5.8567
5.77396
5.68405
5.59118
5.50218
5.42398
5.36004
5.31055
5.27398
5.24845
5.23235
5.22457
4.96387
4.97675
5.00088
5.03386
5.07254
5.11408
5.15683
5.1996
5.24173
5.2834
5.32507
5.36717
5.40963
5.45221
5.49462
5.53607
5.57578
5.61349
5.64907
5.68255
5.71438
5.74511
5.77519
5.8047
5.83356
5.86167
5.88862
5.91409
5.93818
5.96115
5.98326
6.00445
6.02459
6.04348
6.06068
6.07569
6.08827
6.09818
6.1052
6.10921
6.11007
6.10754
6.10125
6.09075
6.07559
6.05537
6.02962
5.99772
5.95898
5.91247
5.85681
5.79054
5.7127
5.62376
5.52585
5.42353
5.32538
5.24043
5.17252
5.12112
5.08385
5.0582
5.04218
5.03449
4.77781
4.79239
4.81943
4.85619
4.89876
4.94375
4.98951
5.03481
5.07889
5.12218
5.16541
5.20926
5.25358
5.29811
5.34265
5.38616
5.42759
5.46679
5.5036
5.53799
5.57058
5.60209
5.63311
5.66365
5.6936
5.7229
5.75097
5.77734
5.80218
5.82591
5.84887
5.87101
5.89215
5.91213
5.9304
5.94634
5.95975
5.97037
5.97798
5.98251
5.98383
5.98175
5.97583
5.96557
5.95049
5.9302
5.90425
5.87194
5.83256
5.78515
5.72795
5.65903
5.57682
5.48161
5.3753
5.26252
5.15414
5.06209
4.99046
4.93763
4.90011
4.87468
4.85896
4.85145
4.59769
4.6142
4.64445
4.6854
4.73222
4.78074
4.82958
4.87742
4.92329
4.96802
5.01265
5.05819
5.10434
5.15076
5.19749
5.24311
5.28623
5.32687
5.36486
5.40003
5.43324
5.4654
5.49731
5.52885
5.55985
5.59038
5.61961
5.6468
5.67231
5.69669
5.72049
5.74356
5.76567
5.78679
5.80617
5.82304
5.83727
5.84862
5.8568
5.86183
5.86364
5.86204
5.85655
5.84659
5.83165
5.81136
5.78533
5.75273
5.71288
5.66487
5.6065
5.53528
5.44886
5.34735
5.23231
5.10788
4.98791
4.88845
4.81353
4.75985
4.72258
4.69772
4.68251
4.67529
4.42317
4.44191
4.47563
4.52127
4.57272
4.62482
4.67679
4.72717
4.77465
4.82062
4.86643
4.91363
4.96158
5.0098
5.05883
5.10668
5.15139
5.19344
5.23257
5.26837
5.30205
5.33472
5.3675
5.40003
5.43203
5.46384
5.49427
5.5222
5.54826
5.5732
5.59783
5.62181
5.64486
5.66717
5.68772
5.70549
5.72054
5.73262
5.74136
5.74688
5.74917
5.7481
5.7431
5.73351
5.71874
5.69851
5.67251
5.63973
5.59957
5.55129
5.49214
5.41904
5.32858
5.22084
5.09687
4.9594
4.82612
4.71902
4.6414
4.58758
4.5511
4.52717
4.51267
4.50583
4.25391
4.27526
4.3127
4.36359
4.42012
4.47573
4.53087
4.58387
4.63271
4.67969
4.72644
4.77531
4.82503
4.87491
4.92638
4.9766
5.02278
5.06622
5.10649
5.14273
5.17673
5.20973
5.2434
5.27691
5.30981
5.34301
5.37473
5.40328
5.42979
5.45515
5.48061
5.50551
5.52942
5.553
5.57481
5.59343
5.6093
5.62212
5.63137
5.63737
5.64013
5.63964
5.6352
5.62602
5.61146
5.59132
5.56549
5.53261
5.49224
5.44405
5.38454
5.31008
5.21575
5.10192
4.96906
4.81688
4.66809
4.55328
4.47378
4.42064
4.38554
4.36287
4.34929
4.34291
4.08958
4.11404
4.15534
4.21214
4.2743
4.33321
4.39159
4.44732
4.49719
4.54495
4.59233
4.64294
4.69443
4.74573
4.79986
4.85268
4.90011
4.94492
4.9864
5.02285
5.057
5.09014
5.12474
5.15924
5.19291
5.22764
5.26078
5.2898
5.31663
5.34225
5.36859
5.3944
5.41908
5.44403
5.4672
5.48658
5.50327
5.51687
5.52656
5.53301
5.53624
5.53639
5.53256
5.52386
5.50952
5.48949
5.46396
5.43103
5.39051
5.34281
5.28338
5.20818
5.11011
4.99039
4.84908
4.6802
4.51305
4.39069
4.31045
4.25893
4.22577
4.20472
4.19222
4.18638
3.92985
3.95808
4.00322
4.06676
4.1352
4.19699
4.25868
4.31735
4.36781
4.41614
4.46373
4.51626
4.56957
4.62191
4.67902
4.73475
4.78309
4.82928
4.87208
4.90846
4.94262
4.97563
5.01128
5.04681
5.08101
5.11749
5.15225
5.18151
5.20855
5.23421
5.26152
5.28828
5.31353
5.34001
5.3647
5.38469
5.40221
5.41663
5.42668
5.43357
5.43722
5.43806
5.43492
5.42677
5.41264
5.39268
5.36765
5.33471
5.29399
5.24723
5.1883
5.11316
5.01138
4.88602
4.73726
4.54931
4.36005
4.23077
4.15123
4.10234
4.07171
4.05258
4.04132
4.03608
3.77438
3.80732
3.85597
3.92726
4.00282
4.06673
4.13188
4.19386
4.24431
4.29303
4.34029
4.39505
4.45026
4.50303
4.5636
4.62269
4.67139
4.71903
4.76339
4.79929
4.83334
4.86587
4.9028
4.93942
4.97377
5.01231
5.04899
5.07818
5.10533
5.13074
5.15918
5.18694
5.21247
5.24072
5.26714
5.2875
5.30587
5.3212
5.33147
5.33878
5.3428
5.34443
5.34204
5.3345
5.32056
5.3006
5.27632
5.24334
5.20228
5.15701
5.09896
5.02486
4.91924
4.78849
4.63411
4.42427
4.20795
4.07303
3.99601
3.95083
3.92328
3.90633
3.89643
3.89185
3.6228
3.66175
3.71316
3.79349
3.87727
3.94206
4.0109
4.0768
4.12636
4.17543
4.22158
4.2791
4.33638
4.38867
4.45335
4.51646
4.56467
4.61389
4.6602
4.69505
4.72899
4.76052
4.79908
4.83693
4.87086
4.9119
4.95092
4.97954
5.00678
5.03152
5.06138
5.09024
5.11559
5.14593
5.17437
5.19474
5.21401
5.2304
5.24069
5.24843
5.25273
5.25524
5.25368
5.24683
5.23303
5.21294
5.18975
5.15669
5.11495
5.07187
5.01494
4.94322
4.83336
4.6973
4.54039
4.30527
4.0553
3.91707
3.84476
3.80439
3.78041
3.76585
3.75741
3.75352
3.4747
3.52155
3.57426
3.66528
3.75874
3.82251
3.89545
3.96617
4.0136
4.06322
4.10714
4.16825
4.22788
4.27831
4.34805
4.41607
4.46253
4.51358
4.56245
4.59544
4.62939
4.65921
4.69997
4.73924
4.77188
4.81605
4.85797
4.88533
4.91273
4.93623
4.96795
4.99804
5.02255
5.05545
5.08632
5.10612
5.1264
5.14405
5.15409
5.16232
5.16674
5.17028
5.16961
5.16356
5.14985
5.12935
5.10777
5.07453
5.03155
4.99157
4.93579
4.86823
4.75335
4.61179
4.45708
4.19269
3.90029
3.7626
3.69755
3.66303
3.64302
3.63102
3.62411
3.62093
3.32961
3.38704
3.4386
3.54251
3.64759
3.70751
3.78521
3.8621
3.90561
3.95634
3.99644
4.06235
4.12481
4.17135
4.24748
4.32167
4.36453
4.41782
4.47015
4.50012
4.53445
4.56153
4.60529
4.64631
4.67637
4.72455
4.77017
4.79524
4.8231
4.8445
4.87871
4.9103
4.93296
4.96906
5.00294
5.02134
5.04281
5.06205
5.07141
5.08025
5.08457
5.08935
5.08962
5.0845
5.0708
5.04951
5.03023
4.99669
4.95157
4.91595
4.86098
4.80002
4.67882
4.531
4.38553
4.08709
3.74062
3.60951
3.55451
3.52678
3.51105
3.50171
3.49636
3.4939
3.18698
3.25882
3.30533
3.42502
3.54436
3.59634
3.67985
3.76485
3.80186
3.85484
3.88883
3.96131
4.02732
4.06707
4.15145
4.23352
4.2701
4.32631
4.38339
4.40868
4.44415
4.46699
4.51494
4.55819
4.58382
4.63723
4.6876
4.7089
4.73781
4.75592
4.79356
4.82699
4.84638
4.88661
4.92425
4.94007
4.96303
4.98431
4.99238
5.00207
5.00597
5.01227
5.01349
5.00948
4.99573
4.97302
4.95705
4.92304
4.87445
4.84494
4.78985
4.73886
4.60934
4.45357
4.32746
3.98936
3.57338
3.45798
3.41589
3.39568
3.38442
3.37779
3.374
3.37226
3.04615
3.13777
3.17337
3.31269
3.44981
3.48808
3.57901
3.67481
3.70166
3.75896
3.78355
3.8651
3.93572
3.96458
4.05975
4.15203
4.17859
4.23876
4.3024
4.32061
4.35858
4.37503
4.42884
4.47501
4.4936
4.55391
4.61044
4.62586
4.65693
4.67
4.71239
4.74819
4.7623
4.80793
4.85036
4.86191
4.88685
4.91078
4.9167
4.92768
4.93066
4.93888
4.94102
4.93834
4.92449
4.89946
4.88819
4.8535
4.79953
4.77863
4.72158
4.68524
4.54453
4.37771
4.28502
3.90072
3.39487
3.30854
3.28198
3.26977
3.26305
3.25911
3.25686
3.25584
2.9063
3.02518
3.04132
3.2054
3.36498
3.38158
3.4823
3.5926
3.60413
3.66913
3.67965
3.77371
3.85049
3.86284
3.97224
4.07783
4.08918
4.15483
4.22752
4.23527
4.27798
4.28498
4.34693
4.39702
4.40497
4.47446
4.53898
4.54558
4.58061
4.58619
4.63515
4.67407
4.68012
4.73287
4.78144
4.78641
4.81406
4.84149
4.84406
4.857
4.85834
4.86904
4.87199
4.87095
4.85701
4.82834
4.82367
4.78811
4.72602
4.71727
4.65512
4.63986
4.48403
4.30097
4.26094
3.82284
3.20046
3.16226
3.15311
3.14905
3.14682
3.14552
3.14478
3.14445
)
;

boundaryField
{
    left
    {
        type            zeroGradient;
    }
    right
    {
        type            zeroGradient;
    }
    interface
    {
        type            fixedValue;
        value           nonuniform List<scalar> 
64
(
2.8348
2.97285
2.97285
3.15307
3.32729
3.32729
3.43477
3.55503
3.55503
3.62665
3.62665
3.72949
3.81053
3.81053
3.92955
4.04404
4.04404
4.11362
4.19262
4.19262
4.23951
4.23951
4.30721
4.36001
4.36001
4.43574
4.50557
4.50557
4.54407
4.54407
4.59765
4.6387
4.6387
4.69628
4.74889
4.74889
4.77848
4.80826
4.80826
4.82274
4.82274
4.83509
4.83834
4.83834
4.8244
4.79293
4.79293
4.75683
4.68866
4.68866
4.62138
4.62138
4.45517
4.25967
4.25967
3.78962
3.08998
3.08998
3.08998
3.08998
3.08998
3.08998
3.08998
3.08998
)
;
    }
    bottom
    {
        type            fixedValue;
        value           uniform 10;
    }
    defaultFaces
    {
        type            empty;
    }
}


// ************************************************************************* //
