/*--------------------------------*- C++ -*----------------------------------*\
| =========                 |                                                 |
| \\      /  F ield         | OpenFOAM: The Open Source CFD Toolbox           |
|  \\    /   O peration     | Version:  5.x                                   |
|   \\  /    A nd           | Web:      www.OpenFOAM.org                      |
|    \\/     M anipulation  |                                                 |
\*---------------------------------------------------------------------------*/
FoamFile
{
    version     2.0;
    format      ascii;
    class       volScalarField;
    location    "0.7";
    object      gradTx;
}
// * * * * * * * * * * * * * * * * * * * * * * * * * * * * * * * * * * * * * //

dimensions      [0 -1 0 1 0 0 0];

internalField   nonuniform List<scalar> 
3200
(
47.485
3.19163
1.36971
1.2737
0.632149
0.594253
0.340416
0.324896
0.214272
0.20652
0.132618
0.130327
0.15067
0.151347
0.149476
0.148843
0.135381
0.133981
0.11372
0.11193
0.0891463
0.087298
0.0656313
0.0639753
0.0458295
0.0445077
0.0308453
0.0299758
0.0221273
0.0328628
0.0135728
0.00597754
0.00549746
0.00275454
0.00258296
0.00133337
0.00125468
0.000639656
0.000600748
0.000289423
0.000269332
0.000101649
9.02079e-05
-1.52124e-05
-2.31656e-05
-0.000108059
-0.000114923
-0.000195089
-0.000200687
-0.000250185
-0.000263891
-0.000539533
-0.000568666
-0.000990303
-0.00103794
-0.00175088
-0.00183297
-0.00307414
-0.00321901
-0.00542309
-0.00568575
-0.00971614
-0.0102159
-0.0179969
-0.0190401
-0.0356686
-0.038259
-0.0806677
-0.0896152
-0.23655
-0.618093
-0.439578
-0.693377
-0.72542
-1.28904
-1.26298
-0.0567115
-0.00765334
-0.00155025
-51.8806
49.9193
2.66687
1.31597
1.11879
0.605469
0.524563
0.320466
0.287243
0.198303
0.181808
0.123773
0.118861
0.133713
0.135057
0.13363
0.132292
0.121669
0.118704
0.10269
0.0989003
0.0808835
0.0769687
0.0598279
0.0563195
0.0419566
0.0391576
0.028363
0.0265451
0.0207831
0.0274494
0.0127677
0.0059327
0.00486729
0.00263589
0.002267
0.00126604
0.0010982
0.000607486
0.000524669
0.000276494
0.000233757
0.000100166
7.58419e-05
-8.04455e-06
-2.49339e-05
-9.23021e-05
-0.000106847
-0.00017016
-0.000182217
-0.000224221
-0.000253434
-0.000471114
-0.000532956
-0.000868716
-0.000970062
-0.00153787
-0.00171254
-0.00270139
-0.00300977
-0.00476712
-0.00532675
-0.00854534
-0.00961213
-0.0158472
-0.0180838
-0.0315148
-0.0371318
-0.0721132
-0.0920977
-0.225282
-0.518468
-0.418212
-0.61212
-0.678116
-1.10289
-1.04832
-0.123846
-0.0212418
-0.00445776
-53.7881
52.3391
2.21043
1.21612
0.976563
0.561518
0.459823
0.293694
0.251828
0.179437
0.158758
0.112801
0.106601
0.117294
0.118877
0.117783
0.116118
0.107661
0.103962
0.0911864
0.0864559
0.0720749
0.0671869
0.0534972
0.0491157
0.037637
0.0341428
0.0255347
0.023285
0.0189535
0.0229062
0.0116569
0.00566132
0.0042874
0.00244494
0.00197827
0.00116659
0.000955699
0.000559645
0.000455775
0.00025569
0.000202115
9.44849e-05
6.40079e-05
-3.47842e-06
-2.4618e-05
-7.86349e-05
-9.68036e-05
-0.00014729
-0.000162563
-0.000198795
-0.000235471
-0.000408993
-0.000486362
-0.00075662
-0.00088365
-0.00134076
-0.00155974
-0.00235615
-0.00274289
-0.00415951
-0.00486188
-0.00746128
-0.00880236
-0.0138584
-0.0166808
-0.027675
-0.0348315
-0.0641605
-0.0900543
-0.207616
-0.434586
-0.385082
-0.535979
-0.616461
-0.935906
-0.868447
-0.158106
-0.0313974
-0.00684095
-55.6957
54.7413
1.81136
1.0861
0.841383
0.505054
0.39768
0.261962
0.217643
0.158504
0.136718
0.100237
0.0936634
0.101238
0.102803
0.101962
0.100219
0.0934715
0.0895919
0.0793748
0.0744119
0.0629026
0.0577734
0.0468102
0.0422115
0.0330123
0.029346
0.0224638
0.0201192
0.016803
0.0189847
0.0103433
0.00520907
0.00372943
0.00220096
0.00170501
0.00104419
0.000821521
0.000500705
0.000391225
0.000229336
0.000172896
8.5876e-05
5.37836e-05
-6.93872e-07
-2.2931e-05
-6.63787e-05
-8.54545e-05
-0.000125836
-0.000142083
-0.000173376
-0.000212064
-0.000350774
-0.000432118
-0.000650351
-0.000784148
-0.00115335
-0.00138402
-0.00202754
-0.0024351
-0.00358086
-0.00432157
-0.00642814
-0.00784465
-0.0119599
-0.014952
-0.02399
-0.0316457
-0.056347
-0.0843461
-0.185578
-0.361767
-0.343938
-0.462656
-0.545248
-0.784399
-0.714294
-0.169021
-0.0374667
-0.00846681
-57.6033
57.1252
1.45954
0.936894
0.709892
0.439451
0.336688
0.226584
0.184058
0.136079
0.115267
0.0864743
0.080158
0.0854205
0.0868254
0.0861789
0.0845245
0.0791744
0.0754845
0.0673646
0.0626423
0.0534889
0.0486073
0.0398824
0.0355048
0.0281785
0.0246895
0.0192215
0.0170021
0.0144419
0.0155073
0.00889603
0.00461426
0.00317618
0.00191748
0.0014398
0.000905226
0.000692059
0.000433835
0.000329197
0.000199042
0.000145123
7.5211e-05
4.45654e-05
8.65906e-07
-2.0348e-05
-5.50764e-05
-7.32421e-05
-0.000105353
-0.000121012
-0.000147681
-0.000184683
-0.000294896
-0.000372457
-0.000547545
-0.000675331
-0.00097161
-0.00119196
-0.0017086
-0.00209803
-0.00301875
-0.003727
-0.00542311
-0.00677956
-0.010107
-0.0129821
-0.0203613
-0.0277792
-0.0484031
-0.0757103
-0.160543
-0.296711
-0.297334
-0.390778
-0.467772
-0.645261
-0.579146
-0.163386
-0.0394334
-0.00921018
-59.5109
59.4919
1.1458
0.775882
0.580158
0.367157
0.276002
0.188512
0.150696
0.11257
0.0941353
0.0718116
0.0661878
0.0697568
0.0709296
0.0704385
0.0689812
0.0648171
0.0615618
0.0552282
0.0510605
0.0439159
0.0396068
0.0327924
0.0289274
0.0232016
0.020122
0.015858
0.0139067
0.0119437
0.0123461
0.00736114
0.00390889
0.0026181
0.00160431
0.00117809
0.000754243
0.000565062
0.000361273
0.000268547
0.000165939
0.000118177
6.30973e-05
3.59624e-05
1.58255e-06
-1.71844e-05
-4.4418e-05
-6.04631e-05
-8.55311e-05
-9.95112e-05
-0.00012159
-0.000154398
-0.000240364
-0.000308945
-0.000446702
-0.000559861
-0.000793026
-0.000988179
-0.00139492
-0.00173993
-0.00246541
-0.00309325
-0.00443209
-0.00563612
-0.00827279
-0.0108328
-0.0167319
-0.0233855
-0.0401931
-0.064775
-0.133456
-0.237079
-0.247018
-0.319558
-0.386276
-0.515867
-0.457983
-0.14608
-0.0376505
-0.00904568
-61.4183
61.8435
0.861859
0.607922
0.451132
0.290004
0.215182
0.148459
0.117352
0.0882738
0.073159
0.05648
0.0518487
0.0541881
0.0551001
0.0547384
0.0535491
0.0504283
0.0477685
0.0430131
0.0396064
0.034239
0.0307162
0.025594
0.0224338
0.0181274
0.01561
0.0124091
0.0108186
0.00935742
0.00940765
0.00576958
0.00311974
0.00205086
0.00126893
0.000917289
0.000594565
0.000439193
0.000284643
0.000208584
0.00013084
9.16773e-05
4.99671e-05
2.7725e-05
1.72161e-06
-1.36497e-05
-3.41913e-05
-4.73159e-05
-6.61559e-05
-7.76941e-05
-9.5084e-05
-0.000122006
-0.000186559
-0.000242707
-0.000346902
-0.000439661
-0.000616059
-0.000776051
-0.00108387
-0.00136678
-0.00191622
-0.00243134
-0.0034468
-0.00443579
-0.0064422
-0.00855051
-0.0130732
-0.0185865
-0.0316732
-0.0520769
-0.104973
-0.181197
-0.1942
-0.248571
-0.302265
-0.393971
-0.34698
-0.120634
-0.0326744
-0.00803196
-63.3256
64.1829
0.600233
0.436089
0.322292
0.209408
0.154046
0.106988
0.0839303
0.0634205
0.0522455
0.0406657
0.0372299
0.0386759
0.0393216
0.0390726
0.0381965
0.036025
0.0340638
0.0307501
0.0282375
0.0244956
0.021897
0.0183246
0.0159931
0.0129883
0.0111314
0.00890132
0.00773052
0.00671586
0.00662227
0.00414211
0.00226949
0.00147366
0.000917356
0.000656104
0.000428738
0.000313711
0.000205168
0.000148916
9.43541e-05
6.5398e-05
3.6138e-05
1.96969e-05
1.47241e-06
-9.88311e-06
-2.42488e-05
-3.39345e-05
-4.7075e-05
-5.56493e-05
-6.82076e-05
-8.81254e-05
-0.000133116
-0.000174581
-0.000247604
-0.000316172
-0.000439821
-0.0005581
-0.000773925
-0.000983121
-0.00136857
-0.00174962
-0.00246285
-0.00319508
-0.00460792
-0.00617212
-0.00937534
-0.0134853
-0.0228614
-0.03808
-0.0755586
-0.127845
-0.139727
-0.177612
-0.216734
-0.277623
-0.243151
-0.0896532
-0.0251653
-0.00629394
-65.2327
66.5134
0.354081
0.262254
0.193424
0.126519
0.0925839
0.0645603
0.0504093
0.0381948
0.0313482
0.0245251
0.0224152
0.0231952
0.0235788
0.0234328
0.0228974
0.021616
0.0204167
0.0184595
0.0169227
0.0147118
0.0131222
0.0110108
0.00958454
0.00780812
0.00667231
0.0053552
0.00463995
0.00404113
0.00393625
0.00249293
0.00137772
0.00088795
0.000554716
0.000394121
0.000258809
0.000188271
0.000123814
8.93418e-05
5.69568e-05
3.92157e-05
2.18536e-05
1.17821e-05
9.75138e-07
-5.97812e-06
-1.44845e-05
-2.04111e-05
-2.81782e-05
-3.34496e-05
-4.10447e-05
-5.3253e-05
-7.98318e-05
-0.000105215
-0.000148516
-0.00019052
-0.000263851
-0.000336312
-0.000464331
-0.000592507
-0.000821229
-0.00105476
-0.00147833
-0.00192737
-0.00276788
-0.0037285
-0.00564164
-0.00817387
-0.0138165
-0.0231934
-0.0455526
-0.0761102
-0.0842152
-0.106604
-0.130332
-0.165089
-0.144083
-0.0551121
-0.0158314
-0.00400554
-67.1397
68.8384
0.117027
0.0875039
0.0644855
0.0423157
0.0308891
0.0215804
0.0168124
0.0127549
0.0104501
0.00819563
0.00748454
0.00773019
0.00785727
0.00780912
0.00762911
0.00720544
0.00680209
0.00615461
0.00563771
0.00490619
0.00437153
0.00367284
0.00319306
0.00260513
0.00222309
0.0017874
0.00154697
0.00134887
0.00130608
0.000832183
0.000461869
0.000296634
0.000185614
0.000131459
8.65258e-05
6.27687e-05
4.13873e-05
2.97814e-05
1.90416e-05
1.30691e-05
7.31224e-06
3.92202e-06
3.39811e-07
-2.00027e-06
-4.81778e-06
-6.81163e-06
-9.38208e-06
-1.11597e-05
-1.37019e-05
-1.78126e-05
-2.6606e-05
-3.51477e-05
-4.95005e-05
-6.36396e-05
-8.7948e-05
-0.00011234
-0.000154781
-0.000197931
-0.000273772
-0.000352403
-0.000492907
-0.000644147
-0.000923204
-0.00124698
-0.00188343
-0.00273831
-0.00462254
-0.00778798
-0.0152191
-0.025274
-0.0281324
-0.0355417
-0.0434886
-0.054785
-0.047733
-0.0185835
-0.00539928
-0.00137403
-69.0466
68.9987
0.121491
0.10123
0.083068
0.0640626
0.0534349
0.0433618
0.0372427
0.0304477
0.0257285
0.0199437
0.0175883
0.0169589
0.0163874
0.015193
0.0141594
0.0126188
0.0114783
0.00997224
0.00891817
0.00759447
0.00669546
0.00560025
0.00487356
0.00401163
0.00345871
0.00283702
0.00250549
0.002259
0.00224827
0.00146992
0.00085226
0.000572551
0.00037767
0.000279458
0.000193442
0.000146342
0.000101754
7.68628e-05
5.29577e-05
3.96321e-05
2.69088e-05
1.9875e-05
1.32459e-05
9.62044e-06
6.2571e-06
4.43697e-06
2.77216e-06
1.87354e-06
1.05605e-06
6.50026e-07
3.32634e-07
1.20534e-07
-1.67901e-07
-4.51567e-07
-9.70827e-07
-1.6737e-06
-3.18976e-06
-5.46258e-06
-1.05569e-05
-1.83746e-05
-3.60925e-05
-6.37751e-05
-0.000127371
-0.000230213
-0.000473148
-0.00089478
-0.00194559
-0.00397654
-0.00899996
-0.0163255
-0.0201426
-0.0285575
-0.0375199
-0.0506368
-0.0449584
-0.0175589
-0.00510649
-0.00129954
-69.5094
66.9941
0.367257
0.30361
0.24924
0.191855
0.160285
0.12993
0.111758
0.0912623
0.0772302
0.0596957
0.0526977
0.0508765
0.0491893
0.0455749
0.0425008
0.0378428
0.0344518
0.0299009
0.0267675
0.0227685
0.0200963
0.0167879
0.0146279
0.0120241
0.0103804
0.00850082
0.00751436
0.00676889
0.00677693
0.00440431
0.00254387
0.00171471
0.00112946
0.000838137
0.000578957
0.000439073
0.000304585
0.000230635
0.000158513
0.000118921
8.05342e-05
5.96359e-05
3.96367e-05
2.88653e-05
1.87197e-05
1.33122e-05
8.29091e-06
5.62103e-06
3.15403e-06
1.94819e-06
9.94947e-07
3.65658e-07
-5.03163e-07
-1.34472e-06
-2.90477e-06
-4.98832e-06
-9.53894e-06
-1.62749e-05
-3.15621e-05
-5.47282e-05
-0.00010788
-0.00018989
-0.000380544
-0.000685037
-0.0014123
-0.00265917
-0.00579756
-0.0118099
-0.0269077
-0.0491165
-0.0602435
-0.0856503
-0.112393
-0.152661
-0.135743
-0.0520786
-0.0149736
-0.00378859
-68.5282
64.9836
0.621451
0.505626
0.415541
0.318623
0.267094
0.216018
0.186373
0.151825
0.128878
0.0990318
0.0876054
0.0847947
0.0820747
0.0759419
0.0709124
0.0630231
0.0574786
0.0497797
0.0446581
0.0378959
0.0335286
0.0279353
0.0244052
0.0200031
0.017316
0.014133
0.0125175
0.0112526
0.011405
0.00732115
0.00419605
0.00284845
0.00187046
0.00139628
0.000960259
0.000732031
0.000505323
0.000384593
0.000262956
0.000198309
0.000133566
9.9442e-05
6.57159e-05
4.81285e-05
3.10229e-05
2.21943e-05
1.37308e-05
9.37133e-06
5.20851e-06
3.24123e-06
1.64806e-06
6.23369e-07
-8.3733e-07
-2.20748e-06
-4.81668e-06
-8.20356e-06
-1.58005e-05
-2.67454e-05
-5.22529e-05
-8.98838e-05
-0.000178515
-0.000311662
-0.000629168
-0.00112295
-0.00233066
-0.00434789
-0.00953454
-0.0192797
-0.0445307
-0.0823502
-0.0997724
-0.142688
-0.186723
-0.256971
-0.229196
-0.0847351
-0.0238036
-0.00595347
-67.5472
62.9635
0.889936
0.706625
0.582128
0.443587
0.373897
0.301261
0.261195
0.211935
0.180813
0.13764
0.122178
0.118719
0.115107
0.106276
0.0994499
0.0881211
0.0806031
0.0695666
0.0626253
0.052938
0.04702
0.0390096
0.0342263
0.0279215
0.0242789
0.0197092
0.0175131
0.0156861
0.0162097
0.0102045
0.00578014
0.00396965
0.00259291
0.00195415
0.00133418
0.00102567
0.000702366
0.000539017
0.000365434
0.000277946
0.000185548
0.000139367
9.12449e-05
6.74448e-05
4.30451e-05
3.10992e-05
1.90317e-05
1.31319e-05
7.18666e-06
4.52757e-06
2.28468e-06
9.03534e-07
-1.17148e-06
-3.0179e-06
-6.69566e-06
-1.12492e-05
-2.19277e-05
-3.66337e-05
-7.24601e-05
-0.000123002
-0.000247374
-0.000426066
-0.000870748
-0.00153232
-0.00321666
-0.00590983
-0.0130891
-0.0261291
-0.0616504
-0.116399
-0.13828
-0.199679
-0.260002
-0.365197
-0.327312
-0.114049
-0.0309101
-0.00759824
-66.5662
60.9302
1.17893
0.905291
0.749295
0.565815
0.480836
0.385218
0.336403
0.271335
0.233244
0.175153
0.156282
0.152664
0.148364
0.136545
0.128184
0.113083
0.103884
0.0892056
0.0807179
0.0678441
0.0606093
0.0499679
0.0441208
0.0357448
0.0312894
0.0252
0.022503
0.0200347
0.0212855
0.0130315
0.00726383
0.0050766
0.00328804
0.00251302
0.00169693
0.00132092
0.00089377
0.000694453
0.000464904
0.000358121
0.000235927
0.00017956
0.000115933
8.68863e-05
5.46387e-05
4.00612e-05
2.41209e-05
1.69198e-05
9.04925e-06
5.80875e-06
2.89552e-06
1.21849e-06
-1.50973e-06
-3.75118e-06
-8.53708e-06
-1.40482e-05
-2.78933e-05
-4.56775e-05
-9.20805e-05
-0.00015317
-0.000314065
-0.000529837
-0.00110366
-0.00190079
-0.0040623
-0.00729231
-0.0164092
-0.0320791
-0.0780004
-0.151761
-0.175205
-0.256711
-0.331482
-0.479141
-0.432438
-0.138157
-0.035623
-0.00855835
-65.5855
58.8807
1.4951
1.09927
0.917584
0.684126
0.588222
0.467325
0.412282
0.329676
0.286494
0.211113
0.189793
0.186655
0.18194
0.166697
0.157207
0.137829
0.127406
0.108617
0.0990058
0.0825435
0.0743532
0.0607514
0.0541323
0.0434257
0.0383789
0.0305672
0.0274953
0.0242462
0.0267548
0.0157677
0.00860954
0.00617157
0.00394545
0.00307577
0.00204372
0.00161956
0.00107703
0.000851874
0.000560019
0.000439355
0.000283982
0.000220286
0.000139407
0.000106586
6.56138e-05
4.9145e-05
2.89049e-05
2.07673e-05
1.07467e-05
7.09154e-06
3.46799e-06
1.58455e-06
-1.86099e-06
-4.37766e-06
-1.03463e-05
-1.65117e-05
-3.37007e-05
-5.3577e-05
-0.000111116
-0.000179349
-0.000378568
-0.000619296
-0.00132766
-0.0022147
-0.00486521
-0.0084393
-0.019467
-0.0368187
-0.093236
-0.189133
-0.209806
-0.314007
-0.40004
-0.600851
-0.54746
-0.154593
-0.0373166
-0.00871545
-64.6051
56.8126
1.84567
1.28472
1.08797
0.796963
0.696636
0.546824
0.489289
0.386465
0.341055
0.244931
0.222596
0.22073
0.215961
0.196643
0.186652
0.162243
0.151287
0.127687
0.117592
0.0969352
0.0883357
0.0712762
0.0643269
0.0508978
0.0455954
0.0357596
0.0325089
0.0282415
0.0327806
0.0183612
0.0097727
0.00726288
0.00455199
0.00364777
0.00236817
0.00192455
0.00124875
0.00101291
0.000648956
0.000522517
0.000328745
0.000261997
0.000161161
0.000126771
7.57149e-05
5.84618e-05
3.3258e-05
2.47302e-05
1.22133e-05
8.39091e-06
3.98424e-06
2.02424e-06
-2.24162e-06
-4.8599e-06
-1.21437e-05
-1.85316e-05
-3.93997e-05
-5.99705e-05
-0.000129726
-0.000200294
-0.00044142
-0.000690061
-0.00154453
-0.00245809
-0.0056312
-0.00928813
-0.0222718
-0.0399954
-0.106891
-0.229513
-0.241062
-0.372026
-0.464002
-0.732719
-0.676053
-0.160003
-0.0354625
-0.00801363
-63.6251
54.7249
2.23839
1.45564
1.26217
0.902204
0.80706
0.622664
0.568139
0.440986
0.397673
0.27582
0.254602
0.254948
0.250591
0.226245
0.216702
0.186148
0.175704
0.146245
0.136629
0.110872
0.102683
0.0814209
0.0748038
0.0580655
0.0530128
0.0407059
0.0375797
0.0319011
0.0395851
0.0207338
0.0106998
0.00836792
0.00509017
0.00423804
0.00266149
0.00224076
0.00140423
0.00118021
0.00072917
0.000609015
0.00036886
0.000305427
0.000180492
0.000147812
8.45867e-05
6.81946e-05
3.70056e-05
2.89004e-05
1.33594e-05
9.73461e-06
4.41824e-06
2.56945e-06
-2.67908e-06
-5.14816e-06
-1.39725e-05
-1.99691e-05
-4.51099e-05
-6.4397e-05
-0.000148308
-0.000214422
-0.000503982
-0.000736607
-0.00175905
-0.00261111
-0.00637785
-0.00976389
-0.0248869
-0.0412048
-0.118317
-0.274332
-0.267538
-0.431598
-0.520887
-0.877592
-0.82301
-0.149751
-0.0297241
-0.00647632
-62.6457
52.6182
2.6814
1.60302
1.44306
0.996891
0.921093
0.693345
0.649929
0.492188
0.457463
0.30271
0.285772
0.289385
0.286052
0.255288
0.247628
0.209284
0.200916
0.164043
0.156346
0.124137
0.117584
0.0910076
0.0857125
0.0647897
0.0607431
0.0453047
0.0427718
0.0350449
0.0474757
0.0227677
0.0113269
0.00951733
0.00553574
0.00486108
0.00291118
0.00257586
0.00153674
0.0013579
0.000797027
0.000701061
0.000402396
0.00035173
0.000196396
0.000170296
9.17231e-05
7.86334e-05
3.98989e-05
3.34239e-05
1.40591e-05
1.11702e-05
4.73128e-06
3.2662e-06
-3.21746e-06
-5.17357e-06
-1.59094e-05
-2.06369e-05
-5.10532e-05
-6.62388e-05
-0.000167605
-0.000219619
-0.000568834
-0.000751575
-0.00198041
-0.00264758
-0.00713975
-0.00977016
-0.0274541
-0.0399822
-0.126584
-0.32566
-0.287177
-0.494155
-0.567066
-1.0389
-0.9947
-0.117368
-0.0201138
-0.00422119
-61.6671
50.4961
3.18294
1.71371
1.63544
1.07681
1.04124
0.756694
0.736334
0.538506
0.522092
0.324116
0.316149
0.324135
0.322647
0.283447
0.27982
0.23126
0.227308
0.180713
0.177081
0.136412
0.13332
0.0997748
0.097277
0.0708656
0.0689551
0.0494096
0.0481934
0.037403
0.0568816
0.0242863
0.0115772
0.0107611
0.00585389
0.0055395
0.00309917
0.0029417
0.00163653
0.00155239
0.000847259
0.000802082
0.000426552
0.000402698
0.000207422
0.000195135
9.63916e-05
9.02304e-05
4.15772e-05
3.85279e-05
1.41321e-05
1.27753e-05
4.86516e-06
4.18173e-06
-3.92556e-06
-4.83774e-06
-1.8081e-05
-2.02726e-05
-5.76048e-05
-6.46335e-05
-0.000188881
-0.000212933
-0.000640359
-0.000724716
-0.00222427
-0.00253107
-0.00797614
-0.00917431
-0.0302274
-0.0357964
-0.130352
-0.386487
-0.296993
-0.562067
-0.59728
-1.22083
-1.1997
-0.0537814
-0.00724818
-0.00146824
-60.6894
50.495
3.18278
1.71355
1.63527
1.07667
1.04112
0.756641
0.736287
0.538541
0.522131
0.324187
0.316224
0.324263
0.322778
0.283596
0.279969
0.231401
0.227447
0.180831
0.177196
0.136505
0.133411
0.0998457
0.0973465
0.0709197
0.069008
0.0494515
0.0482346
0.0374403
0.0569425
0.0243148
0.0115937
0.0107767
0.00586395
0.00554917
0.00310567
0.00294798
0.00164094
0.00155666
0.000850455
0.000805205
0.000429056
0.000405161
0.000209532
0.000197219
9.82118e-05
9.20272e-05
4.30904e-05
4.00115e-05
1.51825e-05
1.3818e-05
6.15826e-06
5.48996e-06
-2.49128e-06
-3.39314e-06
-1.65181e-05
-1.86977e-05
-5.58659e-05
-6.28746e-05
-0.000186822
-0.000210821
-0.000637334
-0.000721529
-0.00221824
-0.00252455
-0.00796094
-0.00915756
-0.0301842
-0.0357478
-0.130214
-0.386136
-0.296749
-0.561736
-0.596943
-1.22041
-1.19928
-0.0537631
-0.00724594
-0.00146627
-60.6919
52.6171
2.68126
1.60287
1.44291
0.996771
0.920982
0.693294
0.649891
0.492214
0.4575
0.302772
0.285843
0.289497
0.28617
0.255421
0.247761
0.20941
0.201039
0.16415
0.156448
0.124221
0.117664
0.0910722
0.0857739
0.0648389
0.06079
0.0453429
0.0428088
0.0350797
0.0475265
0.0227943
0.0113425
0.00953114
0.00554508
0.00486961
0.00291718
0.00258139
0.00154079
0.00136168
0.000799953
0.00070383
0.000404676
0.00035392
0.000198306
0.000172149
9.33671e-05
8.02276e-05
4.12675e-05
3.47303e-05
1.50311e-05
1.21258e-05
5.8771e-06
4.44356e-06
-1.93906e-06
-3.87315e-06
-1.45144e-05
-1.92164e-05
-4.95012e-05
-6.46439e-05
-0.000165766
-0.000217666
-0.000566141
-0.000748533
-0.00197507
-0.00264116
-0.00712627
-0.00975335
-0.0274155
-0.0399316
-0.126454
-0.325367
-0.286948
-0.493863
-0.56676
-1.03853
-0.994353
-0.117328
-0.0201082
-0.00421616
-61.6692
54.7239
2.23827
1.45551
1.26204
0.902098
0.806966
0.622616
0.568108
0.441007
0.397705
0.275875
0.254666
0.255045
0.250695
0.226361
0.216819
0.18626
0.175812
0.146339
0.136719
0.110947
0.102753
0.0814785
0.0748576
0.0581095
0.0530539
0.04074
0.0376125
0.0319327
0.0396273
0.020758
0.0107142
0.00838004
0.00509865
0.00424548
0.00266691
0.00224559
0.00140788
0.00118351
0.000731794
0.000611442
0.000370897
0.000307351
0.000182191
0.00014944
8.60472e-05
6.95924e-05
3.82224e-05
3.00399e-05
1.42398e-05
1.05944e-05
5.42255e-06
3.61261e-06
-1.55406e-06
-3.99546e-06
-1.27433e-05
-1.87078e-05
-4.37421e-05
-6.29749e-05
-0.000146684
-0.000212655
-0.000501606
-0.000733788
-0.00175434
-0.00260504
-0.00636596
-0.00974774
-0.0248526
-0.041155
-0.118197
-0.274086
-0.26733
-0.431342
-0.520614
-0.87727
-0.822721
-0.149699
-0.029717
-0.00647063
-62.6476
56.8118
1.84557
1.28461
1.08786
0.796871
0.696556
0.546781
0.489264
0.386481
0.341084
0.244978
0.222652
0.220813
0.216051
0.196743
0.186753
0.162339
0.15138
0.127769
0.117669
0.0970008
0.0883962
0.0713267
0.0643732
0.0509363
0.0456308
0.0357896
0.0325374
0.0282694
0.0328155
0.0183826
0.00978555
0.00727339
0.00455951
0.00365418
0.00237295
0.00192871
0.00125196
0.00101577
0.000651259
0.000524613
0.000330527
0.00026366
0.000162644
0.000128178
7.69872e-05
5.9668e-05
3.43183e-05
2.57098e-05
1.2992e-05
9.14803e-06
4.85081e-06
2.93103e-06
-1.26834e-06
-3.85739e-06
-1.10792e-05
-1.74332e-05
-3.82146e-05
-5.87277e-05
-0.000128317
-0.000198732
-0.000439355
-0.000687525
-0.00154043
-0.00245254
-0.00562084
-0.00927322
-0.0222417
-0.0399485
-0.106785
-0.229309
-0.240877
-0.371805
-0.463765
-0.732447
-0.675814
-0.159947
-0.0354549
-0.0080089
-63.6267
58.88
1.49502
1.09918
0.917493
0.684048
0.588156
0.467288
0.412262
0.329688
0.286519
0.211153
0.189842
0.186724
0.182017
0.166781
0.157292
0.137911
0.127484
0.108687
0.0990709
0.0825993
0.0744042
0.0607944
0.0541713
0.0434585
0.0384087
0.0305928
0.0275196
0.0242701
0.0267833
0.015786
0.00862069
0.00618048
0.00395194
0.00308118
0.00204782
0.00162307
0.00107978
0.000854281
0.000561987
0.000441125
0.000285502
0.000221691
0.000140669
0.000107775
6.66946e-05
5.01625e-05
2.98056e-05
2.15917e-05
1.14162e-05
7.74047e-06
4.19918e-06
2.35353e-06
-1.03841e-06
-3.52711e-06
-9.44573e-06
-1.55788e-05
-3.26976e-05
-5.25184e-05
-0.00010992
-0.000178007
-0.000376813
-0.000617087
-0.00132417
-0.00220981
-0.00485637
-0.00842605
-0.0194411
-0.0367765
-0.0931442
-0.188967
-0.209647
-0.313821
-0.399839
-0.600625
-0.547266
-0.154537
-0.037309
-0.0087122
-64.6065
60.9296
1.17886
0.905216
0.749221
0.565752
0.480782
0.385187
0.336387
0.271344
0.233264
0.175185
0.156323
0.15272
0.148426
0.136614
0.128253
0.11315
0.103949
0.089263
0.080771
0.0678899
0.060651
0.0500033
0.0441526
0.0357718
0.0313139
0.0252211
0.022523
0.0200544
0.0213082
0.0130466
0.00727313
0.00508393
0.00329343
0.00251744
0.00170032
0.00132379
0.000896042
0.000696421
0.000466528
0.000359569
0.000237178
0.00018071
0.00011697
8.78583e-05
5.55258e-05
4.08921e-05
2.48601e-05
1.75919e-05
9.60392e-06
6.34516e-06
3.49274e-06
1.84867e-06
-8.37209e-07
-3.05385e-06
-7.80027e-06
-1.32826e-05
-2.70722e-05
-4.48069e-05
-9.10997e-05
-0.000152057
-0.000312621
-0.000527989
-0.00110079
-0.00189667
-0.004055
-0.00728105
-0.0163876
-0.0320429
-0.0779243
-0.151628
-0.175074
-0.256559
-0.331316
-0.478958
-0.432283
-0.138106
-0.035616
-0.00855655
-65.5866
62.963
0.889886
0.706568
0.582071
0.443538
0.373856
0.301237
0.261184
0.211942
0.180829
0.137665
0.122209
0.118763
0.115156
0.106329
0.0995039
0.0881731
0.0806528
0.0696114
0.0626666
0.0529737
0.0470524
0.0390372
0.0342511
0.0279426
0.0242979
0.0197257
0.0175287
0.0157015
0.0162269
0.0102164
0.00578748
0.00397539
0.00259715
0.00195759
0.00133684
0.0010279
0.000704147
0.000540547
0.000366705
0.000279072
0.000186526
0.000140262
9.20538e-05
6.82007e-05
4.37367e-05
3.17446e-05
1.96079e-05
1.36534e-05
7.62215e-06
4.94807e-06
2.74873e-06
1.39426e-06
-6.4866e-07
-2.4747e-06
-6.12251e-06
-1.06524e-05
-2.12887e-05
-3.59538e-05
-7.16954e-05
-0.000122129
-0.000246246
-0.000424604
-0.000868496
-0.00152904
-0.00321093
-0.00590083
-0.0130721
-0.0261
-0.0615907
-0.116297
-0.138178
-0.199561
-0.259873
-0.365057
-0.327194
-0.114006
-0.030904
-0.00759759
-66.5671
64.9833
0.621416
0.505585
0.4155
0.318587
0.267065
0.216001
0.186364
0.151829
0.12889
0.0990495
0.0876282
0.0848255
0.0821096
0.0759797
0.0709509
0.0630602
0.057514
0.0498117
0.0446875
0.0379215
0.0335516
0.0279551
0.0244229
0.0200182
0.0173295
0.0141448
0.0125287
0.0112636
0.0114172
0.00732968
0.00420135
0.00285258
0.00187352
0.00139875
0.000962174
0.000733625
0.000506602
0.000385686
0.000263868
0.000199114
0.000134267
0.000100081
6.62951e-05
4.86685e-05
3.15178e-05
2.2655e-05
1.4143e-05
9.74323e-06
5.52168e-06
3.54333e-06
1.97936e-06
9.74179e-07
-4.63987e-07
-1.81906e-06
-4.40722e-06
-7.7766e-06
-1.53438e-05
-2.62584e-05
-5.17056e-05
-8.92559e-05
-0.000177706
-0.000310605
-0.00062755
-0.00112057
-0.00232654
-0.00434133
-0.00952226
-0.0192584
-0.0444877
-0.0822789
-0.0996988
-0.142604
-0.186631
-0.256872
-0.229113
-0.0847021
-0.0237989
-0.0059536
-67.5478
66.9939
0.367236
0.303585
0.249216
0.191834
0.160268
0.129919
0.111753
0.0912648
0.0772369
0.0597063
0.0527114
0.0508949
0.0492102
0.0455976
0.0425239
0.0378651
0.034473
0.0299201
0.0267851
0.0227839
0.0201101
0.0167998
0.0146385
0.0120332
0.0103885
0.00850791
0.00752112
0.00677553
0.00678414
0.00440945
0.00254707
0.00171719
0.00113131
0.000839617
0.000580111
0.00044003
0.000305355
0.000231292
0.000159062
0.000119404
8.09558e-05
6.00198e-05
3.99848e-05
2.91893e-05
1.90169e-05
1.35885e-05
8.53844e-06
5.84399e-06
3.34276e-06
2.13014e-06
1.19367e-06
5.76256e-07
-2.79192e-07
-1.11151e-06
-2.65906e-06
-4.73187e-06
-9.26482e-06
-1.59822e-05
-3.12333e-05
-5.43498e-05
-0.000107393
-0.000189251
-0.000379569
-0.000683591
-0.00140981
-0.00265518
-0.00579014
-0.0117969
-0.0268818
-0.0490741
-0.0601992
-0.0855998
-0.112338
-0.152602
-0.135694
-0.0520578
-0.0149705
-0.00378907
-68.5286
68.9986
0.121484
0.101222
0.0830599
0.0640555
0.0534291
0.0433584
0.0372411
0.0304485
0.0257307
0.0199472
0.0175929
0.0169651
0.0163944
0.0152006
0.0141671
0.0126263
0.0114854
0.00997864
0.00892404
0.0075996
0.00670007
0.00560421
0.00487709
0.00401466
0.00346141
0.00283939
0.00250774
0.00226122
0.00225067
0.00147163
0.000853328
0.000573381
0.000378287
0.000279952
0.000193828
0.000146661
0.000102012
7.70818e-05
5.31408e-05
3.97932e-05
2.70495e-05
2.0003e-05
1.3362e-05
9.72845e-06
6.35623e-06
4.52905e-06
2.8547e-06
1.94784e-06
1.1191e-06
7.10787e-07
3.98869e-07
1.90752e-07
-9.32493e-08
-3.73802e-07
-8.88917e-07
-1.58817e-06
-3.09837e-06
-5.3649e-06
-1.04472e-05
-1.82482e-05
-3.59301e-05
-6.35612e-05
-0.000127045
-0.000229729
-0.000472318
-0.000893442
-0.00194311
-0.00397218
-0.00899132
-0.0163114
-0.0201278
-0.0285407
-0.0375015
-0.0506171
-0.044942
-0.0175517
-0.00510545
-0.00129986
-69.5095
68.8383
0.116935
0.0873374
0.0642353
0.0419044
0.030288
0.0206192
0.0154858
0.0109539
0.00927345
0.00905421
0.00901569
0.00890774
0.00874402
0.00840804
0.00807532
0.00752008
0.00704645
0.00633536
0.00578306
0.00501744
0.00446296
0.00374409
0.00325222
0.00265155
0.0022618
0.001818
0.00157317
0.00137156
0.00132789
0.000845911
0.00046927
0.000301142
0.000188146
0.000133018
8.72544e-05
6.30541e-05
4.12604e-05
2.9411e-05
1.84109e-05
1.22915e-05
6.39408e-06
2.93106e-06
-7.11154e-07
-3.07393e-06
-5.8945e-06
-7.86991e-06
-1.03873e-05
-1.21002e-05
-1.45345e-05
-1.86388e-05
-2.75244e-05
-3.61295e-05
-5.05491e-05
-6.47323e-05
-8.90945e-05
-0.000113531
-0.00015604
-0.000199255
-0.000275206
-0.000353951
-0.000494656
-0.00064611
-0.000925557
-0.00124977
-0.00188705
-0.00274294
-0.00462926
-0.00779783
-0.0152359
-0.0252994
-0.0281571
-0.0355678
-0.0435165
-0.054815
-0.0477579
-0.0185933
-0.00540188
-0.00137455
-69.0463
66.513
0.353806
0.261754
0.192677
0.125286
0.0907873
0.0616771
0.0464338
0.0327478
0.0277619
0.0271553
0.0270497
0.0267254
0.026239
0.0252242
0.0242352
0.0225575
0.0211495
0.0190006
0.0173587
0.0150449
0.0133965
0.0112242
0.00976205
0.00794716
0.00678847
0.00544685
0.00471854
0.0041091
0.00400197
0.00253405
0.00139978
0.000901444
0.000562274
0.000398792
0.000260981
0.000189127
0.000123427
8.82324e-05
5.50609e-05
3.68831e-05
1.90969e-05
8.8091e-06
-2.17895e-06
-9.19966e-06
-1.77153e-05
-2.35871e-05
-3.11942e-05
-3.62724e-05
-4.3538e-05
-5.57274e-05
-8.25879e-05
-0.00010816
-0.000151663
-0.000193798
-0.000267291
-0.000339884
-0.000468107
-0.000596476
-0.000825532
-0.00105941
-0.00148358
-0.00193326
-0.00277494
-0.00373685
-0.00565247
-0.00818771
-0.0138366
-0.0232228
-0.045603
-0.0761865
-0.0842894
-0.106682
-0.130416
-0.165179
-0.144158
-0.0551411
-0.0158391
-0.00400717
-67.139
64.1823
0.599777
0.435258
0.321056
0.207356
0.151075
0.102183
0.0773212
0.0541943
0.0460754
0.0452361
0.0450921
0.0445492
0.043755
0.0420398
0.0404236
0.0375858
0.0352844
0.0316482
0.0289641
0.0250489
0.0223543
0.0186792
0.0162891
0.0132194
0.0113251
0.0090536
0.00786144
0.00682879
0.00673282
0.00421043
0.0023058
0.00149605
0.00092983
0.00066388
0.000432312
0.000315139
0.000204505
0.000147072
9.11811e-05
6.15115e-05
3.15358e-05
1.47414e-05
-3.78841e-06
-1.52541e-05
-2.96356e-05
-3.9232e-05
-5.21027e-05
-6.03595e-05
-7.2349e-05
-9.22358e-05
-0.000137713
-0.000179488
-0.000252851
-0.000321633
-0.000445555
-0.000564049
-0.000780219
-0.00098973
-0.00137574
-0.00175734
-0.00247159
-0.00320486
-0.00461967
-0.00618598
-0.00939336
-0.0135082
-0.0228948
-0.0381285
-0.0756424
-0.127973
-0.13985
-0.177743
-0.216873
-0.277775
-0.243278
-0.0897002
-0.0251774
-0.00629665
-65.2316
61.8427
0.861227
0.60676
0.449424
0.287138
0.211073
0.141731
0.108142
0.0750416
0.0640977
0.0632886
0.0631498
0.0623826
0.0613078
0.0588522
0.0566624
0.0525953
0.049476
0.044262
0.0406235
0.0350094
0.0313567
0.0260881
0.0228485
0.0184494
0.0158814
0.0126212
0.0110018
0.00951473
0.00956467
0.00586475
0.00316958
0.00208202
0.00128613
0.000928159
0.000599469
0.000441197
0.000283673
0.000206017
0.000126369
8.62395e-05
4.35073e-05
2.07868e-05
-5.65223e-06
-2.11728e-05
-4.17373e-05
-5.47411e-05
-7.31964e-05
-8.43012e-05
-0.000100851
-0.000127731
-0.000193004
-0.000249575
-0.000354254
-0.000447301
-0.000624088