/*--------------------------------*- C++ -*----------------------------------*\
| =========                 |                                                 |
| \\      /  F ield         | OpenFOAM: The Open Source CFD Toolbox           |
|  \\    /   O peration     | Version:  5.x                                   |
|   \\  /    A nd           | Web:      www.OpenFOAM.org                      |
|    \\/     M anipulation  |                                                 |
\*---------------------------------------------------------------------------*/
FoamFile
{
    version     2.0;
    format      ascii;
    class       volScalarField;
    location    "0.7";
    object      T;
}
// * * * * * * * * * * * * * * * * * * * * * * * * * * * * * * * * * * * * * //

dimensions      [0 0 0 1 0 0 0];

internalField   nonuniform List<scalar> 
3200
(
2.22319
2.52531
2.54235
2.66229
2.66972
2.7255
2.72914
2.75954
2.76163
2.78097
2.78229
2.79423
2.79532
2.8093
2.81045
2.82425
2.82534
2.83778
2.83874
2.84916
2.84993
2.85807
2.85866
2.86463
2.86506
2.86922
2.86951
2.8723
2.8725
2.87451
2.87579
2.87587
2.87639
2.87642
2.87666
2.87668
2.8768
2.8768
2.87686
2.87686
2.87689
2.87689
2.8769
2.8769
2.8769
2.8769
2.87689
2.87689
2.87687
2.87687
2.87684
2.87684
2.87679
2.87678
2.87669
2.87668
2.87652
2.8765
2.87621
2.87617
2.87567
2.87561
2.87469
2.87458
2.87289
2.87268
2.86933
2.86885
2.86126
2.85989
2.83761
2.79808
2.79365
2.72875
2.72111
2.59984
2.59481
2.59417
2.59404
2.59402
2.38041
2.61151
2.6471
2.74311
2.75898
2.80366
2.81143
2.8357
2.84016
2.85554
2.85834
2.86791
2.87023
2.88128
2.88373
2.89465
2.89696
2.90681
2.90883
2.91708
2.91872
2.92517
2.92642
2.93115
2.93205
2.93535
2.93597
2.93819
2.93862
2.94026
2.94136
2.94154
2.94196
2.94203
2.94222
2.94225
2.94235
2.94236
2.94241
2.94242
2.94244
2.94244
2.94245
2.94245
2.94245
2.94244
2.94244
2.94243
2.94242
2.94242
2.9424
2.94239
2.94235
2.94234
2.94226
2.94224
2.94211
2.94207
2.94184
2.94177
2.94136
2.94124
2.94051
2.94027
2.93892
2.93847
2.93577
2.93475
2.92856
2.92554
2.90603
2.8737
2.86421
2.81248
2.7964
2.7022
2.69157
2.68981
2.68944
2.68936
2.52838
2.70553
2.74943
2.82714
2.84708
2.88329
2.89307
2.91266
2.91825
2.93061
2.93412
2.94189
2.94478
2.95362
2.95667
2.96539
2.96828
2.97616
2.97868
2.98528
2.98733
2.99249
2.99404
2.99784
2.99896
3.0016
3.00237
3.00415
3.0047
3.00605
3.00699
3.00721
3.00756
3.00764
3.0078
3.00784
3.00792
3.00794
3.00797
3.00798
3.008
3.008
3.00801
3.00801
3.00801
3.00801
3.008
3.008
3.00798
3.00798
3.00796
3.00796
3.00792
3.00791
3.00785
3.00782
3.00771
3.00766
3.00748
3.00739
3.00706
3.0069
3.00632
3.00602
3.00493
3.00435
3.00216
3.00087
2.99575
2.99187
2.97499
2.94841
2.93648
2.89481
2.87483
2.80122
2.78799
2.78541
2.78485
2.78472
2.66926
2.80487
2.8504
2.91348
2.93454
2.96399
2.97431
2.99018
2.99607
3.00603
3.00974
3.01606
3.01911
3.02618
3.02939
3.03638
3.03941
3.04572
3.04837
3.05366
3.05581
3.05995
3.06159
3.06463
3.06581
3.06793
3.06874
3.07018
3.07076
3.07186
3.07265
3.07289
3.07318
3.07327
3.0734
3.07344
3.0735
3.07352
3.07355
3.07356
3.07357
3.07358
3.07358
3.07358
3.07358
3.07358
3.07357
3.07357
3.07356
3.07356
3.07354
3.07354
3.07351
3.07349
3.07344
3.07341
3.07333
3.07328
3.07313
3.07303
3.07277
3.0726
3.07213
3.07182
3.07093
3.07032
3.06853
3.06716
3.0629
3.05872
3.04434
3.02254
3.00994
2.97628
2.95542
2.89784
2.88399
2.88094
2.88024
2.88009
2.80471
2.90781
2.95067
3.0015
3.02166
3.04545
3.05532
3.0681
3.07373
3.08171
3.08526
3.09036
3.09327
3.0989
3.10196
3.10752
3.11041
3.11544
3.11796
3.12217
3.12422
3.12752
3.12908
3.13151
3.13263
3.13433
3.1351
3.13625
3.1368
3.13769
3.13835
3.13858
3.13881
3.1389
3.139
3.13905
3.1391
3.13911
3.13914
3.13915
3.13916
3.13916
3.13917
3.13917
3.13917
3.13916
3.13916
3.13916
3.13915
3.13915
3.13914
3.13913
3.13911
3.13909
3.13905
3.13902
3.13895
3.1389
3.13878
3.13869
3.13848
3.13832
3.13794
3.13764
3.13693
3.13634
3.13489
3.13357
3.13005
3.126
3.114
3.09632
3.08426
3.05725
3.03749
2.99272
2.97957
2.97638
2.97563
2.97546
2.93603
3.01316
3.05061
3.09075
3.10863
3.12746
3.13623
3.14631
3.1513
3.15757
3.16071
3.16475
3.16733
3.17173
3.17442
3.17877
3.18132
3.18525
3.18748
3.19077
3.19258
3.19517
3.19654
3.19845
3.19944
3.20077
3.20145
3.20235
3.20284
3.20355
3.20407
3.20428
3.20446
3.20454
3.20463
3.20466
3.2047
3.20472
3.20474
3.20474
3.20475
3.20476
3.20476
3.20476
3.20476
3.20476
3.20476
3.20475
3.20475
3.20474
3.20473
3.20473
3.20471
3.2047
3.20467
3.20464
3.20459
3.20454
3.20445
3.20437
3.2042
3.20406
3.20376
3.20349
3.20293
3.20241
3.20126
3.20007
3.19724
3.1936
3.18389
3.16989
3.15919
3.13793
3.12056
3.08634
3.07476
3.07174
3.071
3.07083
3.06426
3.12009
3.15045
3.18088
3.19556
3.20988
3.21708
3.22473
3.22881
3.23355
3.23613
3.2392
3.24131
3.24462
3.24682
3.25009
3.25218
3.25514
3.25696
3.25944
3.26092
3.26286
3.26399
3.26542
3.26623
3.26723
3.26779
3.26848
3.26888
3.26941
3.26982
3.26999
3.27013
3.27019
3.27025
3.27028
3.27031
3.27033
3.27034
3.27035
3.27036
3.27036
3.27036
3.27036
3.27036
3.27036
3.27036
3.27036
3.27035
3.27035
3.27034
3.27034
3.27032
3.27031
3.27029
3.27027
3.27023
3.27019
3.27012
3.27005
3.26993
3.26981
3.26958
3.26937
3.26894
3.26851
3.26763
3.26665
3.26446
3.26144
3.25397
3.24332
3.23455
3.21847
3.20432
3.17907
3.16962
3.16701
3.16635
3.1662
3.19026
3.22803
3.25028
3.27164
3.28251
3.29258
3.29791
3.30328
3.30631
3.30962
3.31153
3.31369
3.31525
3.31756
3.31919
3.32147
3.32301
3.32507
3.32641
3.32814
3.32924
3.33059
3.33142
3.33243
3.33302
3.33372
3.33414
3.33461
3.33491
3.33529
3.33557
3.3357
3.3358
3.33585
3.33589
3.33591
3.33593
3.33594
3.33595
3.33596
3.33596
3.33597
3.33597
3.33597
3.33597
3.33597
3.33597
3.33596
3.33596
3.33596
3.33595
3.33595
3.33594
3.33593
3.33592
3.3359
3.33587
3.33584
3.33579
3.33575
3.33566
3.33557
3.33541
3.33525
3.33495
3.33463
3.33401
3.33329
3.33173
3.32948
3.32417
3.31669
3.3102
3.29893
3.28852
3.27117
3.26421
3.2622
3.26169
3.26158
3.31474
3.3366
3.35014
3.36283
3.36949
3.37548
3.37875
3.38193
3.38379
3.38575
3.38692
3.38821
3.38916
3.39053
3.39152
3.39287
3.39381
3.39503
3.39585
3.39688
3.39754
3.39835
3.39886
3.39945
3.39981
3.40023
3.40048
3.40076
3.40095
3.40117
3.40134
3.40142
3.40148
3.40151
3.40153
3.40155
3.40156
3.40157
3.40157
3.40157
3.40158
3.40158
3.40158
3.40158
3.40158
3.40158
3.40158
3.40158
3.40157
3.40157
3.40157
3.40157
3.40156
3.40156
3.40155
3.40154
3.40152
3.4015
3.40148
3.40145
3.40139
3.40134
3.40125
3.40115
3.40097
3.40077
3.4004
3.39996
3.39902
3.39764
3.39447
3.39003
3.38605
3.37937
3.37301
3.36286
3.3586
3.35735
3.35702
3.35695
3.43834
3.4455
3.45004
3.45425
3.45649
3.45848
3.45958
3.46064
3.46126
3.46191
3.46231
3.46273
3.46306
3.46351
3.46384
3.46429
3.4646
3.46501
3.46528
3.46562
3.46585
3.46611
3.46629
3.46648
3.4666
3.46674
3.46683
3.46692
3.46698
3.46706
3.46711
3.46714
3.46716
3.46717
3.46718
3.46718
3.46719
3.46719
3.46719
3.46719
3.46719
3.46719
3.46719
3.46719
3.46719
3.46719
3.46719
3.46719
3.46719
3.46719
3.46719
3.46719
3.46719
3.46719
3.46718
3.46718
3.46717
3.46717
3.46716
3.46715
3.46713
3.46711
3.46708
3.46705
3.46699
3.46692
3.4668
3.46665
3.46634
3.46587
3.46482
3.46334
3.462
3.45979
3.45765
3.45431
3.45288
3.45245
3.45234
3.45232
3.44632
3.45354
3.45847
3.46367
3.46678
3.47007
3.47212
3.47441
3.47585
3.47745
3.47842
3.47945
3.48018
3.48114
3.48182
3.48266
3.48323
3.48393
3.48438
3.48492
3.48527
3.48568
3.48594
3.48624
3.48643
3.48664
3.48678
3.48693
3.48703
3.48715
3.48725
3.4873
3.48734
3.48736
3.48738
3.48739
3.48739
3.4874
3.4874
3.48741
3.48741
3.48741
3.48741
3.48741
3.48741
3.48741
3.48741
3.48741
3.48741
3.48741
3.48742
3.48742
3.48742
3.48742
3.48742
3.48742
3.48741
3.48741
3.48741
3.48741
3.48741
3.48741
3.48741
3.48741
3.4874
3.48738
3.48735
3.48729
3.48716
3.4869
3.48626
3.48526
3.48424
3.48241
3.48049
3.47734
3.47599
3.47559
3.47548
3.47546
3.33868
3.36072
3.37541
3.39108
3.40033
3.41027
3.41636
3.42326
3.42754
3.43239
3.43526
3.43836
3.44053
3.44345
3.44545
3.448
3.4497
3.45179
3.45315
3.45478
3.45582
3.45705
3.45783
3.45873
3.45929
3.45994
3.46033
3.46079
3.46108
3.46146
3.46176
3.4619
3.46202
3.46207
3.46213
3.46216
3.46219
3.4622
3.46222
3.46223
3.46223
3.46224
3.46224
3.46224
3.46225
3.46225
3.46225
3.46225
3.46225
3.46225
3.46225
3.46225
3.46225
3.46225
3.46225
3.46225
3.46225
3.46225
3.46225
3.46225
3.46224
3.46224
3.46223
3.46222
3.4622
3.46215
3.46205
3.46189
3.46147
3.46071
3.45878
3.45579
3.45276
3.44723
3.44152
3.43196
3.42795
3.42676
3.42645
3.42638
3.23016
3.2682
3.29231
3.31876
3.33386
3.35062
3.36057
3.37222
3.37921
3.38741
3.3921
3.39731
3.40086
3.40579
3.40906
3.41338
3.41616
3.41968
3.4219
3.42466
3.42637
3.42845
3.42972
3.43125
3.43216
3.43325
3.43389
3.43466
3.43515
3.43578
3.43629
3.43652
3.43671
3.4368
3.43689
3.43694
3.43699
3.43701
3.43704
3.43705
3.43707
3.43707
3.43708
3.43708
3.43709
3.43709
3.43709
3.43709
3.43709
3.43709
3.43709
3.43709
3.43709
3.43709
3.43709
3.43709
3.43709
3.43709
3.43709
3.43709
3.43708
3.43708
3.43707
3.43705
3.437
3.43693
3.43677
3.4365
3.43582
3.43457
3.43136
3.42634
3.42139
3.41207
3.40271
3.38637
3.37979
3.3779
3.37741
3.3773
3.12012
3.17623
3.20911
3.24689
3.26733
3.29125
3.30471
3.32137
3.33083
3.34257
3.34892
3.35633
3.36113
3.3682
3.37264
3.37883
3.38259
3.38764
3.39065
3.3946
3.39691
3.39989
3.40161
3.40379
3.40504
3.40659
3.40746
3.40856
3.40922
3.41013
3.41084
3.41115
3.41141
3.41154
3.41167
3.41174
3.41181
3.41184
3.41188
3.4119
3.41191
3.41192
3.41193
3.41194
3.41194
3.41194
3.41195
3.41195
3.41195
3.41195
3.41195
3.41195
3.41195
3.41195
3.41195
3.41195
3.41195
3.41195
3.41195
3.41194
3.41194
3.41193
3.41191
3.41189
3.41183
3.41174
3.41151
3.41115
3.4102
3.40853
3.40403
3.39689
3.3902
3.37692
3.3642
3.3404
3.33147
3.329
3.32838
3.32824
3.00783
3.08519
3.12572
3.17572
3.20065
3.2323
3.24874
3.27082
3.28238
3.29795
3.3057
3.31547
3.32133
3.33073
3.33616
3.34439
3.34898
3.3557
3.35937
3.36462
3.36744
3.3714
3.3735
3.3764
3.37792
3.37997
3.38105
3.38249
3.3833
3.3845
3.38542
3.3858
3.38615
3.38631
3.38648
3.38656
3.38665
3.38669
3.38674
3.38676
3.38679
3.3868
3.38681
3.38681
3.38682
3.38682
3.38683
3.38683
3.38683
3.38683
3.38683
3.38683
3.38683
3.38683
3.38683
3.38683
3.38683
3.38683
3.38683
3.38682
3.38682
3.38681
3.38678
3.38675
3.38667
3.38656
3.38627
3.38584
3.38463
3.38263
3.37683
3.36745
3.35931
3.34178
3.32616
3.29387
3.28291
3.28005
3.27935
3.27919
2.89245
2.99562
3.04196
3.10555
3.13371
3.17396
3.19254
3.22069
3.23376
3.25366
3.26241
3.27477
3.28139
3.29344
3.29959
3.31011
3.31531
3.32389
3.32805
3.33475
3.33795
3.34301
3.34538
3.34908
3.3508
3.35342
3.35464
3.35648
3.35739
3.3589
3.36006
3.36048
3.36092
3.3611
3.36132
3.36141
3.36152
3.36157
3.36163
3.36165
3.36168
3.3617
3.36171
3.36172
3.36173
3.36173
3.36173
3.36173
3.36174
3.36174
3.36174
3.36174
3.36174
3.36174
3.36174
3.36174
3.36174
3.36174
3.36173
3.36173
3.36172
3.36171
3.36168
3.36165
3.36155
3.36143
3.36106
3.36058
3.35912
3.3569
3.34979
3.33799
3.32881
3.30659
3.28881
3.2465
3.23406
3.23104
3.23033
3.23017
2.77293
2.90833
2.9575
3.0368
3.0663
3.1165
3.13596
3.17118
3.18489
3.20982
3.219
3.23432
3.24126
3.25639
3.26285
3.27605
3.28152
3.29228
3.29665
3.30505
3.3084
3.31474
3.31724
3.32187
3.32367
3.32696
3.32823
3.33053
3.33148
3.33336
3.33476
3.33519
3.33574
3.33592
3.33619
3.33629
3.33643
3.33648
3.33655
3.33658
3.33662
3.33663
3.33665
3.33666
3.33667
3.33667
3.33668
3.33668
3.33668
3.33668
3.33668
3.33668
3.33668
3.33668
3.33668
3.33668
3.33668
3.33668
3.33667
3.33667
3.33666
3.33665
3.33662
3.33658
3.33646
3.33634
3.3359
3.33541
3.33367
3.33141
3.32298
3.30846
3.29888
3.27125
3.25248
3.19798
3.18487
3.18198
3.18133
3.18118
2.648
2.82448
2.87184
2.97005
2.99806
3.06027
3.07876
3.12253
3.13558
3.16663
3.17535
3.19421
3.20081
3.21971
3.22587
3.24233
3.24754
3.26095
3.26511
3.27557
3.27877
3.28666
3.28904
3.2948
3.29652
3.30061
3.30182
3.30468
3.30558
3.30787
3.30954
3.30994
3.31061
3.31078
3.31111
3.3112
3.31138
3.31143
3.31152
3.31155
3.31159
3.31161
3.31163
3.31164
3.31165
3.31165
3.31166
3.31166
3.31166
3.31166
3.31166
3.31166
3.31166
3.31166
3.31166
3.31166
3.31166
3.31166
3.31166
3.31165
3.31164
3.31163
3.31159
3.31156
3.31142
3.3113
3.31078
3.31032
3.30829
3.3062
3.29646
3.27877
3.2697
3.23561
3.21761
3.14785
3.13531
3.13287
3.13234
3.13223
2.51601
2.74581
2.78415
2.90611
2.92846
3.0058
3.02057
3.07513
3.08556
3.12435
3.13131
3.15462
3.15988
3.18356
3.18849
3.20909
3.21325
3.23002
3.23334
3.24642
3.24898
3.25883
3.26074
3.26794
3.26931
3.27441
3.27538
3.27894
3.27966
3.28245
3.28441
3.28473
3.28554
3.28568
3.28609
3.28616
3.28638
3.28642
3.28654
3.28656
3.28662
3.28663
3.28666
3.28666
3.28668
3.28668
3.28669
3.28669
3.28669
3.28669
3.28669
3.28669
3.28669
3.28669
3.28669
3.28669
3.28669
3.28669
3.28669
3.28668
3.28667
3.28666
3.28661
3.28659
3.28641
3.28632
3.2857
3.28534
3.28295
3.28135
3.2703
3.24878
3.24158
3.19936
3.18487
3.09547
3.0854
3.08374
3.08339
3.08332
2.37483
2.67479
2.69312
2.84616
2.85666
2.95384
2.96079
3.02951
3.03442
3.08336
3.08663
3.11577
3.11825
3.14818
3.15051
3.17653
3.17849
3.19965
3.20122
3.21773
3.21893
3.23137
3.23226
3.24134
3.24199
3.24843
3.24889
3.25337
3.25371
3.25711
3.25939
3.25954
3.26055
3.26062
3.26114
3.26117
3.26145
3.26146
3.26161
3.26162
3.2617
3.2617
3.26174
3.26174
3.26176
3.26176
3.26177
3.26177
3.26177
3.26177
3.26177
3.26177
3.26177
3.26177
3.26177
3.26177
3.26177
3.26177
3.26177
3.26177
3.26175
3.26174
3.26168
3.26167
3.26146
3.26142
3.26066
3.2605
3.25764
3.25692
3.24461
3.21827
3.21491
3.16207
3.15518
3.03998
3.03521
3.0346
3.03448
3.03446
2.37477
2.67472
2.69305
2.84608
2.85658
2.95374
2.96069
3.02941
3.03432
3.08326
3.08653
3.11568
3.11816
3.14811
3.15043
3.17647
3.17843
3.19961
3.20118
3.21769
3.2189
3.23134
3.23224
3.24132
3.24197
3.24842
3.24887
3.25336
3.2537
3.2571
3.25939
3.25954
3.26055
3.26061
3.26114
3.26117
3.26145
3.26146
3.26161
3.26162
3.2617
3.2617
3.26174
3.26174
3.26176
3.26176
3.26177
3.26177
3.26177
3.26177
3.26177
3.26177
3.26178
3.26178
3.26177
3.26177
3.26177
3.26177
3.26177
3.26177
3.26175
3.26175
3.26169
3.26167
3.26146
3.26142
3.26067
3.26051
3.25765
3.25693
3.24463
3.21832
3.21495
3.16214
3.15526
3.0401
3.03533
3.03473
3.03461
3.03458
2.51597
2.74575
2.78409
2.90603
2.92838
3.00571
3.02048
3.07504
3.08547
3.12426
3.13122
3.15454
3.1598
3.18349
3.18842
3.20903
3.2132
3.22997
3.2333
3.24639
3.24895
3.25881
3.26071
3.26792
3.26929
3.2744
3.27537
3.27893
3.27965
3.28244
3.2844
3.28472
3.28554
3.28568
3.28609
3.28616
3.28638
3.28642
3.28654
3.28656
3.28662
3.28663
3.28666
3.28666
3.28668
3.28668
3.28669
3.28669
3.28669
3.28669
3.28669
3.28669
3.28669
3.28669
3.28669
3.28669
3.28669
3.28669
3.28669
3.28668
3.28667
3.28666
3.28661
3.28659
3.28642
3.28632
3.2857
3.28535
3.28296
3.28135
3.27032
3.24882
3.24162
3.19943
3.18495
3.09558
3.08551
3.08385
3.0835
3.08342
2.64796
2.82443
2.87179
2.96998
2.99799
3.06019
3.07869
3.12245
3.1355
3.16656
3.17527
3.19414
3.20074
3.21965
3.22581
3.24228
3.24749
3.26091
3.26507
3.27554
3.27874
3.28664
3.28902
3.29479
3.2965
3.3006
3.30181
3.30467
3.30557
3.30786
3.30953
3.30994
3.3106
3.31078
3.31111
3.3112
3.31138
3.31143
3.31152
3.31155
3.31159
3.31161
3.31163
3.31164
3.31165
3.31165
3.31166
3.31166
3.31166
3.31166
3.31166
3.31166
3.31166
3.31166
3.31166
3.31166
3.31166
3.31166
3.31166
3.31165
3.31164
3.31163
3.31159
3.31156
3.31142
3.3113
3.31078
3.31032
3.3083
3.30621
3.29648
3.2788
3.26974
3.23567
3.21768
3.14794
3.13541
3.13297
3.13244
3.13232
2.7729
2.90828
2.95745
3.03674
3.06624
3.11643
3.1359
3.17111
3.18482
3.20976
3.21893
3.23425
3.2412
3.25634
3.2628
3.27601
3.28148
3.29224
3.29661
3.30502
3.30838
3.31472
3.31722
3.32185
3.32366
3.32695
3.32822
3.33053
3.33147
3.33335
3.33476
3.33519
3.33573
3.33592
3.33619
3.33628
3.33643
3.33648
3.33655
3.33658
3.33662
3.33663
3.33665
3.33666
3.33667
3.33667
3.33668
3.33668
3.33668
3.33668
3.33668
3.33668
3.33668
3.33668
3.33668
3.33668
3.33668
3.33668
3.33668
3.33667
3.33666
3.33665
3.33662
3.33658
3.33646
3.33634
3.3359
3.33541
3.33368
3.33142
3.323
3.30849
3.29891
3.2713
3.25254
3.19806
3.18495
3.18207
3.18141
3.18126
2.89241
2.99558
3.04192
3.1055
3.13366
3.17391
3.19248
3.22063
3.23371
3.2536
3.26236
3.27472
3.28134
3.29339
3.29954
3.31007
3.31527
3.32386
3.32802
3.33473
3.33793
3.34299
3.34537
3.34907
3.35079
3.35341
3.35463
3.35647
3.35738
3.3589
3.36006
3.36048
3.36092
3.3611
3.36132
3.3614
3.36152
3.36157
3.36163
3.36165
3.36168
3.3617
3.36171
3.36172
3.36173
3.36173
3.36173
3.36173
3.36174
3.36174
3.36174
3.36174
3.36174
3.36174
3.36174
3.36174
3.36174
3.36174
3.36173
3.36173
3.36172
3.36171
3.36168
3.36165
3.36155
3.36143
3.36107
3.36059
3.35912
3.35691
3.34981
3.33801
3.32884
3.30663
3.28886
3.24657
3.23413
3.23112
3.2304
3.23024
3.0078
3.08516
3.12569
3.17568
3.20061
3.23225
3.24869
3.27077
3.28233
3.29791
3.30565
3.31542
3.32129
3.3307
3.33613
3.34436
3.34896
3.35567
3.35935
3.3646
3.36743
3.37139
3.37349
3.37639
3.37791
3.37997
3.38104
3.38249
3.38329
3.38449
3.38542
3.3858
3.38615
3.38631
3.38648
3.38656
3.38665
3.38669
3.38674
3.38676
3.38678
3.3868
3.38681
3.38681
3.38682
3.38682
3.38683
3.38683
3.38683
3.38683
3.38683
3.38683
3.38683
3.38683
3.38683
3.38683
3.38683
3.38683
3.38683
3.38682
3.38682
3.38681
3.38679
3.38676
3.38668
3.38657
3.38627
3.38584
3.38463
3.38263
3.37684
3.36747
3.35933
3.34181
3.3262
3.29392
3.28297
3.28011
3.27941
3.27925
3.1201
3.1762
3.20909
3.24686
3.26729
3.29121
3.30468
3.32134
3.3308
3.34253
3.34888
3.3563
3.3611
3.36817
3.37262
3.37881
3.38257
3.38762
3.39063
3.39459
3.3969
3.39988
3.4016
3.40379
3.40503
3.40658
3.40746
3.40855
3.40921
3.41012
3.41084
3.41115
3.41141
3.41154
3.41167
3.41174
3.41181
3.41184
3.41188
3.4119
3.41191
3.41192
3.41193
3.41194
3.41194
3.41194
3.41195
3.41195
3.41195
3.41195
3.41195
3.41195
3.41195
3.41195
3.41195
3.41195
3.41195
3.41195
3.41195
3.41194
3.41194
3.41193
3.41191
3.41189
3.41183
3.41174
3.41151
3.41115
3.4102
3.40854
3.40404
3.39691
3.39022
3.37695
3.36424
3.34045
3.33152
3.32904
3.32843
3.32829
3.23015
3.26818
3.29229
3.31874
3.33384
3.3506
3.36055
3.3722
3.37918
3.38738
3.39207
3.39728
3.40083
3.40577
3.40904
3.41337
3.41614
3.41967
3.42189
3.42465
3.42636
3.42844
3.42972
3.43124
3.43216
3.43324
3.43389
3.43466
3.43514
3.43578
3.43629
3.43652
3.43671
3.4368
3.43689
3.43694
3.43699
3.43701
3.43704
3.43705
3.43707
3.43707
3.43708
3.43708
3.43709
3.43709
3.43709
3.43709
3.43709
3.43709
3.43709
3.43709
3.43709
3.43709
3.43709
3.43709
3.43709
3.43709
3.43709
3.43709
3.43708
3.43708
3.43707
3.43705
3.437
3.43694
3.43677
3.4365
3.43582
3.43458
3.43137
3.42635
3.4214
3.41209
3.40274
3.3864
3.37983
3.37793
3.37745
3.37733
3.33868
3.36071
3.3754
3.39107
3.40032
3.41025
3.41635
3.42325
3.42752
3.43237
3.43525
3.43834
3.44052
3.44343
3.44544
3.44799
3.44969
3.45178
3.45314
3.45477
3.45582
3.45705
3.45783
3.45873
3.45929
3.45993
3.46033
3.46078
3.46108
3.46146
3.46176
3.4619
3.46202
3.46207
3.46213
3.46216
3.46219
3.4622
3.46222
3.46223
3.46223
3.46224
3.46224
3.46224
3.46225
3.46225
3.46225
3.46225
3.46225
3.46225
3.46225
3.46225
3.46225
3.46225
3.46225
3.46225
3.46225
3.46225
3.46225
3.46225
3.46224
3.46224
3.46223
3.46222
3.4622
3.46215
3.46205
3.46189
3.46148
3.46071
3.45879
3.4558
3.45277
3.44724
3.44153
3.43198
3.42796
3.42677
3.42647
3.4264
3.44632
3.45354
3.45847
3.46366
3.46678
3.47007
3.47212
3.4744
3.47584
3.47745
3.47842
3.47944
3.48018
3.48114
3.48181
3.48266
3.48323
3.48392
3.48438
3.48492
3.48527
3.48568
3.48594
3.48624
3.48643
3.48664
3.48678
3.48693
3.48703
3.48715
3.48725
3.4873
3.48734
3.48736
3.48738
3.48739
3.48739
3.4874
3.4874
3.48741
3.48741
3.48741
3.48741
3.48741
3.48741
3.48741
3.48741
3.48741
3.48741
3.48742
3.48742
3.48742
3.48742
3.48742
3.48742
3.48742
3.48742
3.48741
3.48741
3.48741
3.48741
3.48741
3.48741
3.48741
3.4874
3.48738
3.48735
3.48729
3.48716
3.4869
3.48626
3.48527
3.48424
3.48241
3.48049
3.47735
3.476
3.47559
3.47549
3.47546
3.43834
3.44549
3.45003
3.45422
3.45645
3.45842
3.45948
3.46048
3.46103
3.46157
3.46196
3.46248
3.46286
3.46337
3.46373
3.46421
3.46454
3.46496
3.46525
3.46559
3.46582
3.4661
3.46627
3.46647
3.4666
3.46674
3.46682
3.46692
3.46698
3.46706
3.46711
3.46714
3.46716
3.46717
3.46718
3.46718
3.46719
3.46719
3.46719
3.46719
3.46719
3.46719
3.46719
3.46719
3.46719
3.46719
3.46719
3.46719
3.46719
3.46719
3.46719
3.46719
3.46719
3.46719
3.46718
3.46718
3.46717
3.46717
3.46716
3.46715
3.46713
3.46711
3.46708
3.46705
3.46699
3.46692
3.4668
3.46665
3.46634
3.46587
3.46481
3.46334
3.462
3.45978
3.45765
3.4543
3.45287
3.45244
3.45233
3.4523
3.31472
3.33658
3.3501
3.36275
3.36937
3.37528
3.37845
3.38145
3.38309
3.38472
3.38587
3.38744
3.38858
3.39011
3.3912
3.39263
3.39362
3.39489
3.39574
3.39679
3.39747
3.39829
3.39881
3.39942
3.39979
3.40021
3.40047
3.40076
3.40094
3.40117
3.40134
3.40142
3.40148
3.40151
3.40154
3.40155
3.40156
3.40157
3.40158
3.40158
3.40158
3.40158
3.40158
3.40158
3.40158
3.40158
3.40158
3.40158
3.40158
3.40158
3.40157
3.40157
3.40156
3.40156
3.40155
3.40154
3.40152
3.40151
3.40148
3.40145
3.40139
3.40134
3.40125
3.40115
3.40097
3.40077
3.4004
3.39995
3.39902
3.39763
3.39446
3.39001
3.38603
3.37935
3.37299
3.36283
3.35857
3.35731
3.35699
3.35691
3.19024
3.22799
3.25021
3.27152
3.28232
3.29226
3.29743
3.30247
3.30516
3.30789
3.30977
3.31242
3.31428
3.31687
3.31865
3.32108
3.32269
3.32484
3.32622
3.328
3.32912
3.3305
3.33135
3.33237
3.33298
3.33369
3.33411
3.3346
3.3349
3.33528
3.33557
3.3357
3.3358
3.33585
3.3359
3.33592
3.33594
3.33595
3.33596
3.33597
3.33597
3.33597
3.33597
3.33597
3.33597
3.33597
3.33597
3.33597
3.33596
3.33596
3.33596
3.33595
3.33594
3.33594
3.33592
3.3359
3.33587
3.33585
3.3358
3.33575
3.33566
3.33557
3.33541
3.33525
3.33495
3.33463
3.33401
3.33328
3.33172
3.32947
3.32416
3.31667
3.31017
3.2989
3.28848
3.27112
3.26416
3.26215
3.26164
3.26152
3.06423
3.12003
3.15036
3.18071
3.1953
3.20942
3.21641
3.2236
3.22722
3.2311
3.23363
3.23743
3.23995
3.24367
3.24608
3.24955
3.25174
3.25481
3.25669
3.25924
3.26075
3.26274
3.26389
3.26535
3.26617
3.26719
3.26776
3.26845
3.26886
3.26941
3.26982
3.26999
3.27013
3.2702
3.27026
3.27029
3.27032
3.27034
3.27035
3.27036
3.27036
3.27037
3.27037
3.27037
3.27037
3.27037
3.27036
3.27036
3.27036
3.27035
3.27035
3.27034
3.27033
3.27032
3.27029
3.27027
3.27023
3.27019
3.27012
3.27005
3.26993
3.26981
3.26958
3.26937
3.26894
3.26851
3.26763
3.26665
3.26445
3.26143
3.25395
3.24329
3.23451
3.21842
3.20426
3.179
3.16955
3.16693
3.16628
3.16613
2.936
3.01309
3.0505
3.09053
3.1083
3.12687
3.13538
3.14486
3.14927
3.15436
3.15745
3.16249
3.16557
3.17051
3.17346
3.17808
3.18076
3.18484
3.18713
3.19052
3.19237
3.19501
3.19641
3.19835
3.19936
3.20071
3.20141
3.20233
3.20282
3.20354
3.20408
3.20429
3.20447
3.20455
3.20464
3.20467
3.20471
3.20473
3.20475
3.20476
3.20476
3.20477
3.20477
3.20477
3.20477
3.20477
3.20476
3.20476
3.20475
3.20475
3.20474
3.20473
3.20472
3.2047
3.20467
3.20464
3.20459
3.20454
3.20445
3.20437
3.2042
3.20406
3.20376
3.20349
3.20293
3.20241
3.20125
3.20007
3.19723
3.19358
3.18387
3.16985
3.15914
3.13787
3.12049
3.08625
3.07467
3.07164
3.0709
3.07073
2.80467
2.90773
2.95053
3.00123
3.02126
3.04473
3.05431
3.06633
3.0713
3.0777
3.08118
3.08763
3.09112
3.09744
3.10078
3.10669
3.10972
3.11494
3.11754
3.12186
3.12396
3.12733
3.12892
3.1314
3.13254
3.13426
3.13505
3.13622
3.13678
3.13769
3.13836
3.13859
3.13882
3.13891
3.13902
3.13906
3.13911
3.13913
3.13915
3.13916
3.13917
3.13918
3.13918
3.13918
3.13918
3.13918
3.13917
3.13917
3.13916
3.13915
3.13914
3.13913
3.13911
3.1391
3.13906
3.13903
3.13896
3.13891
3.13879
3.1387
3.13848
3.13832
3.13794
3.13764
3.13693
3.13634
3.13489
3.13356
3.13004
3.12598
3.11397
3.09628
3.08421
3.05717
3.0374
2.99261
2.97945
2.97626
2.97551
2.97534
2.66922
2.80477
2.85025
2.91317
2.93409
2.96314
2.97315
2.98808
2.99327
3.00116
3.0048
3.0129
3.01656
3.02449
3.02799
3.03541
3.03859
3.04514
3.04787
3.0533
3.0555
3.05973
3.0614
3.0645
3.0657
3.06786
3.06868
3.07014
3.07073
3.07185
3.07266
3.0729
3.07319
3.07328
3.07341
3.07346
3.07352
3.07354
3.07357
3.07358
3.07359
3.07359
3.0736
3.0736
3.07359
3.07359
3.07359
3.07358
3.07357
3.07357
3.07355
3.07355
3.07352
3.0735
3.07345
3.07342
3.07334
3.07328
3.07313
3.07304
3.07277
3.0726
3.07213
3.07181
3.07093
3.07032
3.06852
3.06715
3.06288
3.0587
3.0443
3.02249
3.00988
2.97619
2.95532
2.89771
2.88385
2.88079
2.8801
2.87995
2.52834
2.70542
2.74926
2.82678
2.8466
2.88231
2.89179
2.91022
2.91514
2.92479
2.92825
2.93834
2.94182
2.95172
2.95506
2.9643
2.96734
2.9755
2.9781
2.98487
2.98697
2.99224
2.99382
2.99769
2.99883
3.00152
3.0023
3.00411
3.00467
3.00604
3.007
3.00722
3.00757
3.00766
3.00782
3.00786
3.00794
3.00796
3.00799
3.008
3.00802
3.00802
3.00803
3.00803
3.00802
3.00802
3.00801
3.00801
3.008
3.00799
3.00798
3.00797
3.00793
3.00792
3.00786
3.00783
3.00772
3.00767
3.00748
3.00739
3.00707
3.00691
3.00632
3.00602
3.00493
3.00435
3.00215
3.00086
2.99573
2.99184
2.97494
2.94834
2.9364
2.8947
2.87471
2.80106
2.78782
2.78524
2.78468
2.78456
2.38037
2.61138
2.64693
2.74269
2.75846
2.80254
2.81008
2.8329
2.83682
2.84868
2.85143
2.86405
2.86684
2.87921
2.88188
2.89345
2.89588
2.90609
2.90817
2.91663
2.91831
2.92489
2.92617
2.93099
2.9319
2.93526
2.93588
2.93814
2.93858
2.94025
2.94137
2.94155
2.94198
2.94205
2.94224
2.94228
2.94237
2.94239
2.94243
2.94244
2.94246
2.94246
2.94247
2.94247
2.94246
2.94246
2.94245
2.94245
2.94243
2.94243
2.94241
2.9424
2.94236
2.94235
2.94227
2.94225
2.94212
2.94208
2.94184
2.94177
2.94137
2.94124
2.94051
2.94027
2.93892
2.93846
2.93576
2.93474
2.92854
2.92552
2.90599
2.87362
2.86413
2.81236
2.79627
2.70202
2.69138
2.68962
2.68926
2.68918
2.22315
2.52516
2.54218
2.66181
2.6692
2.72422
2.72776
2.75635
2.75818
2.77292
2.77422
2.79015
2.79147
2.8071
2.80835
2.82296
2.82411
2.837
2.83798
2.84867
2.84946
2.85777
2.85837
2.86446
2.86489
2.86912
2.86941
2.87225
2.87246
2.8745
2.8758
2.87588
2.87641
2.87644
2.87669
2.8767
2.87682
2.87683
2.87689
2.87689
2.87691
2.87691
2.87692
2.87692
2.87692
2.87692
2.87691
2.8769
2.87688
2.87688
2.87686
2.87685
2.8768
2.8768
2.8767
2.87669
2.87652
2.8765
2.87621
2.87618
2.87567
2.87561
2.87469
2.87458
2.87289
2.87267
2.86932
2.86884
2.86124
2.85987
2.83755
2.79799
2.79355
2.72861
2.72096
2.59964
2.5946
2.59396
2.59383
2.59381
)
;

boundaryField
{
    F1_1
    {
        type            fixedValue;
        value           nonuniform List<scalar> 
80
(
2.13842
2.48786
2.48786
2.62411
2.62411
2.68748
2.68748
2.72205
2.72205
2.74407
2.74407
2.75763
2.75763
2.77358
2.77358
2.78933
2.78933
2.80354
2.80354
2.81544
2.81544
2.82475
2.82475
2.83159
2.83159
2.83635
2.83635
2.83955
2.83955
2.84181
2.84319
2.84319
2.84378
2.84378
2.84406
2.84406
2.84419
2.84419
2.84426
2.84426
2.84429
2.84429
2.8443
2.8443
2.8443
2.8443
2.84428
2.84428
2.84426
2.84426
2.84424
2.84424
2.84418
2.84418
2.84407
2.84407
2.84389
2.84389
2.84356
2.84356
2.84298
2.84298
2.84194
2.84194
2.84002
2.84002
2.83621
2.83621
2.82765
2.82765
2.8039
2.75973
2.75973
2.68589
2.68589
2.5465
2.5465
2.5465
2.5465
2.5465
)
;
    }
    F1_2
    {
        type            fixedValue;
        value           nonuniform List<scalar> 
80
(
2.29819
2.64493
2.64493
2.81911
2.81911
2.92979
2.92979
3.00815
3.00815
3.064
3.064
3.09713
3.09713
3.13135
3.13135
3.16108
3.16108
3.18526
3.18526
3.20413
3.20413
3.21835
3.21835
3.22874
3.22874
3.23612
3.23612
3.24125
3.24125
3.24507
3.24756
3.24756
3.24871
3.24871
3.24931
3.24931
3.24963
3.24963
3.2498
3.2498
3.24988
3.24988
3.24993
3.24993
3.24995
3.24995
3.24996
3.24996
3.24996
3.24996
3.24996
3.24996
3.24996
3.24996
3.24996
3.24996
3.24996
3.24996
3.24996
3.24996
3.24994
3.24994
3.24987
3.24987
3.24963
3.24963
3.24878
3.24878
3.24559
3.24559
3.23269
3.20321
3.20321
3.14316
3.14316
3.01072
3.01072
3.01072
3.01072
3.01072
)
;
    }
    F1_3
    {
        type            fixedValue;
        value           nonuniform List<scalar> 
80
(
2.29813
2.64486
2.64486
2.81902
2.81902
2.92969
2.92969
3.00804
3.00804
3.0639
3.0639
3.09704
3.09704
3.13127
3.13127
3.16101
3.16101
3.18521
3.18521
3.20409
3.20409
3.21832
3.21832
3.22872
3.22872
3.2361
3.2361
3.24124
3.24124
3.24507
3.24755
3.24755
3.24871
3.24871
3.24931
3.24931
3.24963
3.24963
3.2498
3.2498
3.24988
3.24988
3.24993
3.24993
3.24995
3.24995
3.24996
3.24996
3.24996
3.24996
3.24996
3.24996
3.24997
3.24997
3.24997
3.24997
3.24996
3.24996
3.24996
3.24996
3.24994
3.24994
3.24987
3.24987
3.24963
3.24963
3.24879
3.24879
3.2456
3.2456
3.23271
3.20326
3.20326
3.14324
3.14324
3.01084
3.01084
3.01084
3.01084
3.01084
)
;
    }
    F1_4
    {
        type            fixedValue;
        value           nonuniform List<scalar> 
80
(
2.13839
2.4877
2.4877
2.62359
2.62359
2.6861
2.6861
2.71863
2.71863
2.73534
2.73534
2.75352
2.75352
2.77134
2.77134
2.78801
2.78801
2.80273
2.80273
2.81494
2.81494
2.82444
2.82444
2.83141
2.83141
2.83625
2.83625
2.8395
2.8395
2.8418
2.8432
2.8432
2.8438
2.8438
2.84408
2.84408
2.84422
2.84422
2.84429
2.84429
2.84431
2.84431
2.84432
2.84432
2.84432
2.84432
2.8443
2.8443
2.84428
2.84428
2.84425
2.84425
2.84419
2.84419
2.84408
2.84408
2.84389
2.84389
2.84356
2.84356
2.84298
2.84298
2.84194
2.84194
2.84001
2.84001
2.8362
2.8362
2.82762
2.82762
2.80384
2.75964
2.75964
2.68574
2.68574
2.54628
2.54628
2.54628
2.54628
2.54628
)
;
    }
    F2_1
    {
        type            fixedValue;
        value           uniform 3.5;
    }
    F2_2
    {
        type            fixedValue;
        value           uniform 3.5;
    }
    F2_3
    {
        type            fixedValue;
        value           uniform 3.5;
    }
    F2_4
    {
        type            fixedValue;
        value           uniform 3.5;
    }
    defaultFaces
    {
        type            empty;
    }
}


// ************************************************************************* //
