/*--------------------------------*- C++ -*----------------------------------*\
| =========                 |                                                 |
| \\      /  F ield         | OpenFOAM: The Open Source CFD Toolbox           |
|  \\    /   O peration     | Version:  5.x                                   |
|   \\  /    A nd           | Web:      www.OpenFOAM.org                      |
|    \\/     M anipulation  |                                                 |
\*---------------------------------------------------------------------------*/
FoamFile
{
    version     2.0;
    format      ascii;
    class       volScalarField;
    location    "12.9";
    object      gradTx;
}
// * * * * * * * * * * * * * * * * * * * * * * * * * * * * * * * * * * * * * //

dimensions      [0 -1 0 1 0 0 0];

internalField   nonuniform List<scalar> 
2048
(
0.00630489
0.0187342
0.0306384
0.0417197
0.0517493
0.0605777
0.0681346
0.0744177
0.0794769
0.0833948
0.0862714
0.0882109
0.0893153
0.0896814
0.0894017
0.0885653
0.087259
0.0855664
0.0835653
0.0813242
0.0788988
0.0763298
0.0736422
0.070846
0.0679389
0.064909
0.0617365
0.058396
0.0548567
0.0510825
0.0470332
0.0426652
0.0379334
0.0327931
0.0272025
0.0211239
0.0145251
0.00738003
-0.000331006
-0.00861964
-0.0174874
-0.026922
-0.0368921
-0.0473402
-0.0581748
-0.0692611
-0.0804121
-0.0913805
-0.101855
-0.111463
-0.119781
-0.126359
-0.130753
-0.132569
-0.131511
-0.127415
-0.120277
-0.110247
-0.0976151
-0.0827647
-0.0661293
-0.0481501
-0.0292468
-0.00980735
0.0187883
0.0558174
0.0912558
0.124205
0.153978
0.180136
0.202477
0.221011
0.235899
0.247399
0.255816
0.261466
0.26465
0.265656
0.264756
0.262211
0.25828
0.253212
0.24724
0.240568
0.233365
0.22575
0.217796
0.209531
0.200947
0.192006
0.182649
0.172799
0.162365
0.151241
0.139306
0.126431
0.112479
0.0973176
0.0808212
0.062878
0.0433921
0.0222854
-0.000500812
-0.0250029
-0.0512286
-0.0791458
-0.108667
-0.13963
-0.171772
-0.204701
-0.23787
-0.270553
-0.301828
-0.330582
-0.355545
-0.375357
-0.388671
-0.394288
-0.391294
-0.379191
-0.357961
-0.328072
-0.290411
-0.246151
-0.196608
-0.143109
-0.0869048
-0.0291381
0.0311398
0.0924823
0.151105
0.205484
0.254471
0.297351
0.333825
0.363951
0.388042
0.406562
0.42004
0.429008
0.433965
0.435378
0.433684
0.429312
0.422683
0.414211
0.404285
0.393251
0.381386
0.368891
0.35588
0.342393
0.328409
0.313859
0.298645
0.28264
0.265694
0.247632
0.228255
0.207347
0.184679
0.16003
0.133189
0.103973
0.0722223
0.0378091
0.000634623
-0.0393661
-0.0822147
-0.127872
-0.176213
-0.226993
-0.279805
-0.334035
-0.38881
-0.442956
-0.494962
-0.542985
-0.584894
-0.61838
-0.641133
-0.651072
-0.646607
-0.626859
-0.591798
-0.542251
-0.479767
-0.406387
-0.324372
-0.23596
-0.143223
-0.048009
0.0435993
0.129425
0.211273
0.286938
0.354794
0.413869
0.46382
0.504815
0.537384
0.562251
0.580202
0.591996
0.598328
0.599825
0.597077
0.590665
0.58117
0.569173
0.555229
0.53983
0.523371
0.506128
0.488254
0.469789
0.450687
0.430844
0.410116
0.388328
0.365275
0.340717
0.314374
0.28594
0.255093
0.221514
0.18491
0.145023
0.101633
0.0545638
0.0036751
-0.0511315
-0.109903
-0.172611
-0.239118
-0.309129
-0.382133
-0.457336
-0.533585
-0.609298
-0.682403
-0.750327
-0.810039
-0.8582
-0.891415
-0.906589
-0.901325
-0.874287
-0.825429
-0.75601
-0.668378
-0.56559
-0.450971
-0.327743
-0.198792
-0.0666104
0.0563825
0.167267
0.27272
0.369769
0.456282
0.531064
0.593794
0.644849
0.685066
0.715505
0.737253
0.751313
0.75856
0.759764
0.755643
0.746912
0.734308
0.71859
0.700492
0.680669
0.659642
0.637764
0.615213
0.592015
0.568086
0.543272
0.517381
0.490194
0.461454
0.430858
0.398049
0.362623
0.324154
0.282223
0.236446
0.186492
0.132085
0.073001
0.0090605
-0.0598748
-0.13389
-0.212991
-0.297056
-0.38578
-0.478596
-0.574583
-0.672368
-0.770013
-0.864925
-0.953796
-1.03264
-1.09698
-1.14216
-1.16386
-1.15868
-1.1247
-1.06185
-0.971939
-0.858326
-0.725312
-0.57748
-0.419132
-0.253973
-0.0850557
0.0696944
0.206597
0.336339
0.45507
0.560118
0.650104
0.724836
0.785026
0.831945
0.867083
0.891883
0.907602
0.915279
0.915789
0.909942
0.898564
0.882551
0.86285
0.8404
0.816045
0.790446
0.764032
0.736994
0.70932
0.680863
0.651406
0.620706
0.588503
0.5545
0.518338
0.479578
0.437711
0.392196
0.3425
0.288144
0.228723
0.163909
0.0934407
0.017099
-0.0652977
-0.153888
-0.248733
-0.349765
-0.456713
-0.569004
-0.685662
-0.805161
-0.925282
-1.04296
-1.15416
-1.2539
-1.33641
-1.39552
-1.42542
-1.42143
-1.38085
-1.30358
-1.19214
-1.05119
-0.88662
-0.704538
-0.510463
-0.308916
-0.103385
0.0837389
0.247995
0.403001
0.543878
0.667378
0.772007
0.857838
0.926092
0.978633
1.0175
1.04455
1.06131
1.06893
1.06835
1.06042
1.04604
1.02626
1.00225
0.975198
0.946158
0.91596
0.885109
0.853786
0.821908
0.789236
0.755468
0.720307
0.683463
0.644618
0.603366
0.559184
0.511445
0.459473
0.402606
0.340259
0.271958
0.197332
0.116092
0.0279882
-0.0672082
-0.169702
-0.279639
-0.397041
-0.521716
-0.653151
-0.79038
-0.931817
-1.07505
-1.21663
-1.35183
-1.47461
-1.57773
-1.65326
-1.69348
-1.69203
-1.64521
-1.55281
-1.41831
-1.24811
-1.05014
-0.832382
-0.601753
-0.363562
-0.121567
0.0987278
0.292056
0.473579
0.637207
0.779074
0.89767
0.993524
1.06859
1.12552
1.16705
1.19553
1.21271
1.21984
1.2178
1.20743
1.18967
1.16573
1.13704
1.10506
1.07114
1.0363
1.00112
0.965738
0.929957
0.8934
0.855654
0.816366
0.775239
0.731959
0.686091
0.637027
0.584002
0.526174
0.462732
0.392974
0.316359
0.232493
0.141072
0.0418308
-0.065506
-0.181225
-0.305584
-0.438732
-0.580607
-0.730814
-0.888482
-1.05206
-1.21908
-1.38578
-1.54686
-1.69516
-1.82183
-1.91681
-1.96996
-1.97275
-1.92005
-1.8115
-1.65186
-1.44984
-1.21607
-0.960861
-0.692708
-0.417659
-0.139505
0.114887
0.339412
0.548986
0.736079
0.896176
1.0279
1.13247
1.21287
1.27279
1.31584
1.34489
1.36194
1.3682
1.36441
1.35128
1.32975
1.30121
1.26738
1.2301
1.19107
1.15153
1.11215
1.07297
1.03362
0.993533
0.952141
0.909037
0.863954
0.816624
0.766612
0.713218
0.655508
0.592441
0.52302
0.446414
0.362026
0.269455
0.168418
0.0586479
-0.0601716
-0.188423
-0.326506
-0.47474
-0.633237
-0.801782
-0.979678
-1.16553
-1.35694
-1.55004
-1.739
-1.91565
-2.06929
-2.18732
-2.25662
-2.26574
-2.20756
-2.08148
-1.89393
-1.6568
-1.38423
-1.08945
-0.782734
-0.470763
-0.157036
0.132462
0.390744
0.630186
0.841546
1.01963
1.1634
1.27512
1.35912
1.42045
1.46377
1.49258
1.50902
1.51413
1.50838
1.49222
1.46655
1.43291
1.39341
1.35038
1.30595
1.26166
1.21823
1.17558
1.13306
1.08981
1.0451
0.998457
0.949696
0.898671
0.844979
0.78782
0.726052
0.658379
0.583576
0.500665
0.409003
0.308224
0.198099
0.0783887
-0.0512563
-0.19133
-0.342409
-0.505022
-0.679502
-0.865863
-1.06367
-1.2718
-1.48809
-1.70877
-1.92773
-2.13579
-2.32032
-2.46572
-2.55508
-2.57313
-2.50997
-2.36451
-2.14547
-1.86905
-1.55402
-1.21723
-0.87095
-0.522255
-0.17394
0.151726
0.446799
0.71822
0.954705
1.15039
1.30484
1.42179
1.50736
1.56832
1.6106
1.63838
1.65385
1.65769
1.64991
1.63053
1.60031
1.56101
1.51524
1.46593
1.41576
1.36665
1.31939
1.27366
1.22841
1.18243
1.13471
1.08475
1.03253
0.978115
0.9212
0.860865
0.795693
0.724069
0.644481
0.555777
0.457296
0.348754
0.230026
0.10094
-0.0388745
-0.19004
-0.353351
-0.52959
-0.719349
-0.92291
-1.14016
-1.37039
-1.61188
-1.8612
-2.11223
-2.355
-2.57484
-2.75266
-2.86686
-2.8971
-2.8296
-2.66236
-2.40724
-2.08628
-1.72442
-1.34295
-0.9562
-0.571355
-0.189943
0.17298
0.508402
0.814219
1.07671
1.28937
1.45276
1.57265
1.65744
1.71603
1.75592
1.78198
1.79628
1.79891
1.78916
1.76646
1.73129
1.68571
1.63295
1.5767
1.5204
1.46643
1.41562
1.36728
1.31985
1.27158
1.22115
1.16803
1.11248
1.05493
0.995245
0.932348
0.864468
0.789579
0.705802
0.611784
0.506877
0.390954
0.264058
0.126132
-0.0231959
-0.1847
-0.359442
-0.548512
-0.752785
-0.972832
-1.20892
-1.46087
-1.72762
-2.00639
-2.29146
-2.57238
-2.83245
-3.04857
-3.1934
-3.23997
-3.16898
-2.97691
-2.67983
-2.30785
-1.89401
-1.46494
-1.03708
-0.617147
-0.204731
0.196566
0.576467
0.919417
1.2088
1.4375
1.60768
1.72777
1.80907
1.86307
1.89916
1.92293
1.93608
1.93779
1.92633
1.90029
1.85976
1.80716
1.74658
1.68266
1.61975
1.56087
1.50687
1.45654
1.40754
1.3575
1.30465
1.24842
1.18954
1.12905
1.06704
1.00225
0.932403
0.854969
0.767608
0.668707
0.557695
0.4347
0.300011
0.153747
-0.00443796
-0.175499
-0.360837
-0.561905
-0.77988
-1.01561
-1.26977
-1.54282
-1.83456
-2.14328
-2.46414
-2.7867
-3.09237
-3.3536
-3.53603
-3.6042
-3.53095
-3.31018
-2.96365
-2.53268
-2.06088
-1.58123
-1.11197
-0.658612
-0.21796
0.222861
0.652006
1.03516
1.35227
1.59571
1.76998
1.88709
1.96178
2.00874
2.03962
2.06072
2.07301
2.07431
2.06164
2.03237
1.98603
1.92557
1.85619
1.78369
1.71361
1.6498
1.59309
1.54151
1.4917
1.44046
1.38546
1.32605
1.2637
1.20035
1.13649
1.07051
0.99951
0.920306
0.829971
0.726563
0.609678
0.479838
0.337665
0.183524
0.0171403
-0.162664
-0.357722
-0.569932
-0.800769
-1.05131
-1.32261
-1.61589
-1.93204
-2.27074
-2.62878
-2.99642
-3.35351
-3.66756
-3.89601
-3.99249
-3.91882
-3.66445
-3.25894
-2.75922
-2.22269
-1.68949
-1.17909
-0.694671
-0.229272
0.252293
0.736135
1.16292
1.50852
1.76488
1.93996
2.0504
2.11498
2.15219
2.17647
2.19477
2.20679
2.20848
2.19531
2.16309
2.11043
2.04111
1.96181
1.87968
1.80176
1.733
1.67422
1.6223
1.57254
1.52077
1.46386
1.40105
1.33487
1.26866
1.20345
1.13709
1.0658
0.985662
0.892985
0.785371
0.662736
0.52619
0.376764
0.215165
0.0412444
-0.146446
-0.350307
-0.57279
-0.815649
-1.08007
-1.36745
-1.67985
-2.01942
-2.38764
-2.78373
-3.19971
-3.61435
-3.98993
-4.27436
-4.40779
-4.33646
-4.0423
-3.56568
-2.98537
-2.37655
-1.78713
-1.23655
-0.724236
-0.238316
0.285345
0.830077
1.3043
1.67904
1.94588
2.11779
2.21742
2.26796
2.29243
2.30875
2.32444
2.33716
2.3403
2.32765
2.29292
2.23334
2.15395
2.06348
1.97048
1.88388
1.8102
1.75018
1.69906
1.65032
1.59878
1.54024
1.47356
1.40293
1.33376
1.26774
1.20193
1.13128
1.05112
0.956774
0.845157
0.71676
0.573559
0.417031
0.248334
0.0675498
-0.127114
-0.338814
-0.570704
-0.824778
-1.10215
-1.40442
-1.7346
-2.0962
-2.49283
-2.92721
-3.39442
-3.87301
-4.31975
-4.67188
-4.85336
-4.78852
-4.44678
-3.88352
-3.20837
-2.51909
-1.87131
-1.28245
-0.746266
-0.244768
0.322565
0.935159
1.461
1.86544
2.13948
2.30348
2.38775
2.41988
2.4283
2.43537
2.44908
2.46391
2.46977
2.45897
2.42246
2.35515
2.26426
2.16125
2.05592
1.95962
1.88108
1.82089
1.77194
1.72531
1.67489
1.61503
1.54375
1.4677
1.39532
1.32918
1.26497
1.19596
1.11678
1.0215
0.905954
0.77162
0.621736
0.458167
0.282665
0.0957051
-0.104943
-0.323458
-0.563912
-0.82847
-1.11788
-1.43374
-1.78015
-2.16204
-2.58525
-3.05731
-3.57815
-4.12726
-4.65561
-5.08891
-5.33271
-5.28068
-4.88147
-4.21166
-3.42468
-2.64643
-1.93906
-1.31496
-0.759833
-0.248351
0.364592
1.0528
1.63485
2.06948
2.34638
2.49682
2.56093
2.56985
2.5585
2.55515
2.56805
2.58688
2.59687
2.58963
2.55242
2.4763
2.37214
2.25521
2.13584
2.02853
1.94523
1.88629
1.84118
1.79777
1.74955
1.68881
1.61182
1.52891
1.45297
1.38755
1.3262
1.25982
1.18275
1.08741
0.967804
0.827153
0.67051
0.499863
0.317759
0.125335
-0.0802103
-0.304435
-0.552651
-0.827086
-1.12768
-1.45573
-1.81669
-2.21683
-2.66398
-3.17207
-3.74825
-4.37449
-4.99559
-5.52517
-5.84959
-5.81998
-5.35066
-4.54862
-3.6298
-2.75419
-1.98739
-1.3324
-0.764176
-0.248855
0.41219
1.18449
1.82776
2.29311
2.5671
2.69731
2.73653
2.71692
2.68156
2.66676
2.68075
2.70608
2.72153
2.71999
2.68374
2.59722
2.47762
2.34551
2.21008
2.09009
2.00217
1.94632
1.90709
1.86792
1.8232
1.7623
1.67798
1.58618
1.50618
1.44264
1.38567
1.32281
1.24914
1.15482
1.03075
0.883146
0.719682
0.541804
0.353183
0.156041
-0.0531821
-0.281907
-0.537141
-0.821032
-1.1321
-1.47081
-1.84455
-2.26073
-2.72824
-3.26951
-3.90186
-4.61183
-5.33724
-5.97946
-6.40788
-6.41521
-5.8595
-4.89196
-3.81814
-2.83755
-2.01338
-1.33339
-0.758764
-0.246153
0.466319
1.33176
2.04166
2.53861
2.80194
2.90409
2.91417
2.86017
2.79584
2.76872
2.78664
2.82171
2.84354
2.8504
2.81762
2.71832
2.58055
2.4324
2.27852
2.14365
2.05133
2.00099
1.9701
1.93593
1.89631
1.83644
1.74249
1.63899
1.55435
1.49423
1.4435
1.38484
1.31604
1.22419
1.09483
0.939311
0.769085
0.583687
0.388466
0.1874
-0.0241121
-0.255982
-0.517571
-0.81075
-1.13174
-1.47944
-1.86418
-2.29422
-2.7775
-3.34761
-4.03593
-4.83624
-5.6777
-6.44923
-7.01138
-7.0775
-6.41418
-5.23785
-3.98282
-2.89141
-2.01439
-1.31692
-0.743334
-0.240212
0.528241
1.49611
2.27839
2.80869
3.05087
3.11574
3.09373
2.99872
2.89949
2.85941
2.88531
2.93428
2.96249
2.9811
2.95572
2.83994
2.68055
2.51636
2.3411
2.18844
2.09198
2.05033
2.03085
2.00179
1.96928
1.91249
1.80562
1.68664
1.5967
1.54214
1.50001
1.44568
1.3835
1.2962
1.16007
0.99524
0.818619
0.625223
0.423089
0.218966
0.00676357
-0.226697
-0.49408
-0.796712
-1.12736
-1.48209
-1.8761
-2.31819
-2.81147
-3.40444
-4.14719
-5.04462
-6.01384
-6.93013
-7.66349
-7.82113
-7.02218
-5.58052
-4.11556
-2.91049
-1.98822
-1.28244
-0.717924
-0.231098
0.599708
1.67894
2.53962
3.1068
3.31344
3.33015
3.27553
3.1318
2.99043
2.93702
2.97647
3.04479
3.07756
3.11217
3.10027
2.96227
2.77683
2.59818
2.39782
2.22351
2.12328
2.09445
2.09028
2.06525
2.04242
1.99214
1.86766
1.72819
1.63231
1.58625
1.55574
1.50496
1.45149
1.3718
1.22642
1.05035
0.868306
0.666149
0.456472
0.250268
0.0392271
-0.194005
-0.466744
-0.779413
-1.11985
-1.4792
-1.88084
-2.33404
-2.83018
-3.43806
-4.23221
-5.23395
-6.34261
-7.41528
-8.36669
-8.6645
-7.69246
-5.91143
-4.20655
-2.88964
-1.93325
-1.22993
-0.682884
-0.218978
0.683246
1.8814
2.82653
3.43746
3.58854
3.5442
3.46064
3.25876
3.06627
2.99949
3.06
3.15498
3.18736
3.24339
3.25444
3.08524
2.86805
2.67916
2.44876
2.24767
2.14419
2.13352
2.14975
2.12565
2.11583
2.07768
1.92887
1.7624
1.66006
1.62646
1.6116
1.56198
1.51981
1.45241
1.29375
1.10381
0.918362
0.706237
0.487956
0.280811
0.0730752
-0.157749
-0.435556
-0.759361
-1.11027
-1.47108
-1.87886
-2.34376
-2.83394
-3.44666
-4.28725
-5.40148
-6.66155
-7.89454
-9.12178
-9.63154
-8.43571
-6.21824
-4.24451
-2.82411
-1.84869
-1.15996
-0.638865
-0.204108
0.782596
2.10426
3.13953
3.80683
3.87421
3.75343
3.65134
3.37909
3.12425
3.04451
3.13589
3.26758
3.28963
3.37406
3.42271
3.20839
2.95201
2.76141
2.49408
2.2595
2.15346
2.16777
2.21129
2.18176
2.1893
2.17227
1.98945
1.7877
1.67865
1.66274
1.66904
1.61565
1.58806
1.54004
1.36174
1.1544
0.969315
0.745284
0.516775
0.310086
0.108111
-0.117649
-0.400415
-0.737052
-1.09996
-1.45788
-1.87036
-2.35013
-2.82336
-3.42854
-4.30826
-5.54483
-6.96967
-8.35351
-9.9268
-10.7535
-9.26458
-6.48345
-4.21684
-2.71001
-1.73468
-1.07366
-0.586789
-0.186819
0.90335
2.34766
3.47775
4.22348
4.16727
3.95152
3.85169
3.4923
3.16119
3.06947
3.2042
3.38685
3.38083
3.50281
3.61142
3.33059
3.02534
2.84816
2.53396
2.25721
2.1496
2.19744
2.27786
2.23151
2.26215
2.28025
2.04936
1.8021
1.68657
1.6951
1.73029
1.66424
1.6555
1.63762
1.42983
1.20044
1.02216
0.783098
0.542027
0.337581
0.144127
-0.0732792
-0.361117
-0.712941
-1.09063
-1.43949
-1.85512
-2.35692
-2.7993
-3.38218
-4.29061
-5.662
-7.26864
-8.77238
-10.7755
-12.0712
-10.1938
-6.68266
-4.11004
-2.54469
-1.59242
-0.972727
-0.527802
-0.167502
1.05386
2.61079
3.83834
4.69944
4.46295
4.12975
4.06837
3.59784
3.17337
3.07144
3.2649
3.51914
3.45567
3.62721
3.82954
3.4498
3.08307
2.94437
2.56847
2.23868
2.13088
2.22268
2.35379
2.27163
2.33301
2.40757
2.10822
1.80312
1.68216
1.72346
1.79865
1.70519
1.72087
1.7493
1.49704
1.23951
1.07857
0.819456
0.562634
0.362808
0.180882
-0.0240435
-0.317355
-0.687384
-1.0845
-1.41545
-1.83221
-2.36916
-2.76271
-3.30638
-4.22897
-5.7513
-7.5645
-9.12463
-11.6556
-13.6381
-11.2404
-6.78241
-3.91053
-2.32733
-1.42422
-0.859311
-0.463214
-0.146585
1.24649
2.89153
4.21556
5.25162
4.75424
4.27615
4.31175
3.69469
3.1565
3.04722
3.31757
3.67374
3.50646
3.74346
4.08957
3.56265
3.11812
3.05734
2.59739
2.20133
2.09535
2.24333
2.44525
2.29731
2.39961
2.56236
2.16501
1.78781
1.6636
1.7476
1.87895
1.7347
1.78225
1.88091
1.56177
1.26834
1.14119
0.854024
0.577302
0.385348
0.21806
0.0308488
-0.268727
-0.66055
-1.08449
-1.38488
-1.79968
-2.39354
-2.71444
-3.20039
-4.117
-5.81098
-7.86978
-9.37565
-12.5456
-15.5238
-12.4233
-6.73756
-3.6058
-2.05935
-1.23349
-0.735929
-0.394424
-0.124508
1.49924
3.18595
4.59957
5.90362
5.03123
4.37461
4.59726
3.78092
3.1057
2.99336
3.36099
3.8639
3.52234
3.84579
4.4088
3.66389
3.1206
3.19764
2.61987
2.14217
2.04083
2.25873
2.56101
2.30163
2.4584
2.75565
2.21767
1.7527
1.62903
1.76686
1.97803
1.74743
1.83683
2.04055
1.6216
1.28247
1.21402
0.886241
0.584476
0.404905
0.255219
0.0924198
-0.214773
-0.632295
-1.09447
-1.34639
-1.75409
-2.43893
-2.65495
-3.06421
-3.94709
-5.83855
-8.20642
-9.48115
-13.4122
-17.8184
-13.7636
-6.48819
-3.18623
-1.74483
-1.02455
-0.605327
-0.322855
-0.101707
1.83793
3.48768
4.97488
6.68802
5.28015
4.40377
4.94709
3.85295
3.0155
2.90637
3.39252
4.10818
3.48836
3.92593
4.81077
3.7458
3.07711
3.38022
2.63398
2.05776
1.96511
2.26723
2.71325
2.27501
2.50421
3.00223
2.2626
1.69389
1.57664
1.77986
2.10545
1.73596
1.88057
2.23925
1.67292
1.27598
1.30284
0.915132
0.582305
0.421395
0.29172
0.161967
-0.155027
-0.601975
-1.11955
-1.29806
-1.69001
-2.51699
-2.58377
-2.89898
-3.71003
-5.82969
-8.60916
-9.38564
-14.2058
-20.6382
-15.2833
-5.95596
-2.64745
-1.39075
-0.802484
-0.470327
-0.249881
-0.0785921
2.29878
3.78721
5.3185
7.64912
5.48225
4.33566
5.39232
3.90447
2.88
2.78295
3.40715
4.43207
3.38437
3.97232
5.32697
3.79731
2.96981
3.62574
2.63596
1.94436
1.86602
2.26563
2.91861
2.20443
2.52984
3.32167
2.29399
1.60712
1.50488
1.78403
2.27431
1.69025
1.90794
2.4918
1.71055
1.24112
1.41581
0.939057
0.568609
0.435047
0.326624
0.241124
-0.0891155
-0.568207
-1.16646
-1.23742
-1.59932
-2.64303
-2.49892
-2.70745
-3.39487
-5.77661
-9.12969
-9.02092
-14.8557
-24.1316
-17.0051
-5.0401
-1.99352
-1.00696
-0.572821
-0.333679
-0.176776
-0.0555342
2.93169
4.07098
5.59767
8.84623
5.61244
4.13432
5.97539
3.92509
2.69309
2.62033
3.39637
4.86993
3.18382
3.96928
5.9989
3.80315
2.77548
3.96227
2.61942
1.798
1.74172
2.24846
3.19954
2.07267
2.5255
3.73959
2.3029
1.48798
1.41269
1.77498
2.50223
1.59701
1.91148
2.8177
1.72726
1.16797
1.56412
0.955375
0.540873
0.446545
0.358579
0.331941
-0.0168939
-0.528552
-1.24391
-1.16144
-1.47045
-2.837
-2.39598
-2.4947
-2.98875
-5.6658
-9.84148
-8.30471
-15.2644
-28.4862
-18.9508
-3.61292
-1.24083
-0.605812
-0.341145
-0.197923
-0.104663
-0.0328554
3.80399
4.32044
5.76729
10.3574
5.63767
3.75413
6.75295
3.89855
2.44883
2.41684
3.34662
5.46727
2.8523
3.89603
6.88031
3.74269
2.46444
4.42708
2.57412
1.61478
1.59105
2.20693
3.58567
1.85738
2.47828
4.28906
2.27623
1.33222
1.29981
1.74571
2.81251
1.43892
1.88144
3.24225
1.71323
1.04402
1.76277
0.960012
0.496257
0.457175
0.385661
0.436988
0.0613613
-0.479118
-1.36308
-1.06666
-1.28742
-3.12468
-2.26703
-2.2689
-2.47698
-5.47511
-10.8451
-7.13948
-15.3012
-33.9369
-21.1394
-1.51516
-0.422854
-0.201267
-0.112737
-0.0652795
-0.0344903
-0.0108234
)
;

boundaryField
{
    left
    {
        type            calculated;
        value           uniform 0;
    }
    right
    {
        type            calculated;
        value           uniform 0;
    }
    interface
    {
        type            calculated;
        value           nonuniform List<scalar> 
64
(
3.80399
4.32044
5.76729
10.3574
5.63767
3.75413
6.75295
3.89855
2.44883
2.41684
3.34662
5.46727
2.8523
3.89603
6.88031
3.74269
2.46444
4.42708
2.57412
1.61478
1.59105
2.20693
3.58567
1.85738
2.47828
4.28906
2.27623
1.33222
1.29981
1.74571
2.81251
1.43892
1.88144
3.24225
1.71323
1.04402
1.76277
0.960012
0.496257
0.457175
0.385661
0.436988
0.0613613
-0.479118
-1.36308
-1.06666
-1.28742
-3.12468
-2.26703
-2.2689
-2.47698
-5.47511
-10.8451
-7.13948
-15.3012
-33.9369
-21.1394
-1.51516
-0.422854
-0.201267
-0.112737
-0.0652795
-0.0344903
-0.0108234
)
;
    }
    bottom
    {
        type            calculated;
        value           nonuniform List<scalar> 
64
(
0.00630489
0.0187342
0.0306384
0.0417197
0.0517493
0.0605777
0.0681346
0.0744177
0.0794769
0.0833948
0.0862714
0.0882109
0.0893153
0.0896814
0.0894017
0.0885653
0.087259
0.0855664
0.0835653
0.0813242
0.0788988
0.0763298
0.0736422
0.070846
0.0679389
0.064909
0.0617365
0.058396
0.0548567
0.0510825
0.0470332
0.0426652
0.0379334
0.0327931
0.0272025
0.0211239
0.0145251
0.00738003
-0.000331006
-0.00861964
-0.0174874
-0.026922
-0.0368921
-0.0473402
-0.0581748
-0.0692611
-0.0804121
-0.0913805
-0.101855
-0.111463
-0.119781
-0.126359
-0.130753
-0.132569
-0.131511
-0.127415
-0.120277
-0.110247
-0.0976151
-0.0827647
-0.0661293
-0.0481501
-0.0292468
-0.00980735
)
;
    }
    defaultFaces
    {
        type            empty;
    }
}


// ************************************************************************* //
