/*--------------------------------*- C++ -*----------------------------------*\
| =========                 |                                                 |
| \\      /  F ield         | OpenFOAM: The Open Source CFD Toolbox           |
|  \\    /   O peration     | Version:  5.x                                   |
|   \\  /    A nd           | Web:      www.OpenFOAM.org                      |
|    \\/     M anipulation  |                                                 |
\*---------------------------------------------------------------------------*/
FoamFile
{
    version     2.0;
    format      ascii;
    class       volScalarField;
    location    "15.3999";
    object      T;
}
// * * * * * * * * * * * * * * * * * * * * * * * * * * * * * * * * * * * * * //

dimensions      [0 0 0 1 0 0 0];

internalField   nonuniform List<scalar> 
6300
(
322.84
322.521
322.2
321.878
321.553
321.225
320.893
320.557
320.217
319.871
319.519
319.162
318.799
318.43
318.055
322.841
322.522
322.202
321.88
321.556
321.229
320.897
320.562
320.222
319.876
319.525
319.168
318.805
318.436
318.061
322.841
322.524
322.205
321.885
321.562
321.236
320.906
320.572
320.232
319.887
319.537
319.18
318.817
318.448
318.072
322.843
322.527
322.211
321.892
321.571
321.247
320.919
320.586
320.248
319.904
319.555
319.198
318.835
318.466
318.089
322.844
322.532
322.218
321.902
321.584
321.263
320.937
320.606
320.27
319.928
319.579
319.223
318.86
318.49
318.113
322.846
322.537
322.227
321.915
321.6
321.282
320.959
320.631
320.298
319.957
319.61
319.255
318.892
318.521
318.143
322.848
322.544
322.238
321.93
321.62
321.306
320.987
320.663
320.332
319.994
319.649
319.295
318.932
318.561
318.18
322.851
322.552
322.251
321.949
321.643
321.334
321.02
320.7
320.373
320.039
319.696
319.344
318.981
318.608
318.226
322.854
322.561
322.267
321.97
321.671
321.367
321.059
320.744
320.422
320.092
319.753
319.402
319.04
318.666
318.28
322.857
322.571
322.284
321.995
321.702
321.405
321.104
320.796
320.48
320.155
319.82
319.472
319.112
318.736
318.346
322.861
322.583
322.304
322.022
321.737
321.449
321.155
320.855
320.547
320.229
319.899
319.556
319.197
318.821
318.426
322.865
322.596
322.325
322.052
321.777
321.497
321.213
320.922
320.623
320.314
319.992
319.655
319.3
318.924
318.525
322.87
322.61
322.349
322.086
321.82
321.551
321.277
320.997
320.709
320.411
320.1
319.773
319.425
319.052
318.65
322.875
322.625
322.374
322.122
321.867
321.609
321.347
321.08
320.806
320.521
320.225
319.911
319.574
319.209
318.811
322.88
322.641
322.401
322.16
321.917
321.672
321.423
321.17
320.911
320.645
320.366
320.072
319.752
319.398
319.009
317.706
317.385
317.061
316.733
316.402
316.068
315.731
315.392
315.051
314.708
314.363
314.016
313.668
313.319
312.969
312.618
312.267
311.916
311.565
311.214
310.863
310.513
310.163
309.813
309.464
309.115
308.767
308.42
308.073
307.727
307.381
307.037
306.693
306.351
306.009
305.669
305.33
304.991
304.654
304.318
303.982
303.648
303.314
302.982
302.65
302.32
301.99
301.662
301.335
301.009
300.684
300.36
300.037
299.716
299.395
299.075
298.756
298.438
298.121
297.805
297.49
297.175
296.862
296.55
296.238
295.928
295.619
295.31
295.003
294.696
294.39
294.085
293.78
293.476
293.172
292.869
292.567
292.265
291.964
291.663
291.362
291.062
290.762
290.462
290.161
289.86
289.558
289.256
288.952
288.648
317.711
317.39
317.065
316.737
316.406
316.072
315.735
315.396
315.054
314.71
314.365
314.018
313.669
313.32
312.97
312.619
312.267
311.916
311.564
311.213
310.862
310.512
310.162
309.812
309.463
309.115
308.767
308.419
308.072
307.726
307.38
307.036
306.692
306.349
306.008
305.667
305.328
304.99
304.653
304.316
303.981
303.647
303.313
302.98
302.649
302.318
301.989
301.66
301.333
301.007
300.682
300.358
300.036
299.714
299.394
299.074
298.755
298.437
298.12
297.804
297.488
297.174
296.861
296.548
296.237
295.927
295.618
295.309
295.002
294.695
294.389
294.084
293.779
293.475
293.171
292.868
292.566
292.264
291.963
291.662
291.362
291.062
290.762
290.462
290.162
289.861
289.56
289.257
288.954
288.649
317.722
317.401
317.075
316.746
316.414
316.08
315.742
315.402
315.06
314.716
314.369
314.022
313.673
313.322
312.971
312.62
312.268
311.916
311.564
311.212
310.861
310.511
310.161
309.811
309.462
309.113
308.765
308.417
308.07
307.723
307.378
307.033
306.689
306.346
306.005
305.664
305.325
304.987
304.65
304.314
303.978
303.644
303.31
302.978
302.646
302.315
301.985
301.657
301.329
301.003
300.679
300.355
300.033
299.711
299.391
299.071
298.753
298.435
298.117
297.801
297.486
297.171
296.858
296.545
296.234
295.924
295.615
295.307
295
294.693
294.387
294.082
293.777
293.473
293.169
292.866
292.564
292.263
291.962
291.661
291.361
291.062
290.763
290.463
290.163
289.863
289.562
289.26
288.956
288.652
317.739
317.416
317.09
316.76
316.427
316.091
315.753
315.412
315.069
314.723
314.376
314.028
313.677
313.326
312.974
312.621
312.268
311.915
311.563
311.211
310.859
310.509
310.159
309.809
309.46
309.111
308.763
308.415
308.067
307.72
307.374
307.028
306.684
306.341
306
305.659
305.32
304.983
304.646
304.31
303.975
303.64
303.307
302.974
302.641
302.31
301.98
301.652
301.324
300.998
300.674
300.35
300.028
299.707
299.387
299.068
298.749
298.431
298.114
297.797
297.481
297.167
296.853
296.541
296.23
295.92
295.611
295.303
294.996
294.69
294.384
294.079
293.775
293.47
293.167
292.864
292.561
292.26
291.959
291.659
291.36
291.062
290.763
290.465
290.166
289.866
289.566
289.264
288.961
288.656
317.761
317.437
317.109
316.778
316.444
316.106
315.767
315.425
315.08
314.734
314.386
314.036
313.684
313.331
312.977
312.623
312.268
311.914
311.561
311.208
310.857
310.506
310.156
309.806
309.457
309.109
308.76
308.411
308.063
307.716
307.369
307.023
306.678
306.335
305.993
305.653
305.314
304.977
304.64
304.305
303.97
303.635
303.302
302.968
302.636
302.304
301.974
301.645
301.317
300.991
300.667
300.344
300.022
299.702
299.382
299.063
298.744
298.426
298.109
297.792
297.476
297.161
296.847
296.534
296.223
295.914
295.606
295.298
294.992
294.686
294.381
294.076
293.771
293.467
293.163
292.86
292.558
292.256
291.956
291.657
291.358
291.061
290.764
290.467
290.169
289.871
289.572
289.271
288.968
288.663
317.79
317.464
317.134
316.8
316.464
316.125
315.784
315.441
315.095
314.747
314.398
314.046
313.692
313.337
312.981
312.625
312.268
311.913
311.558
311.205
310.853
310.502
310.152
309.803
309.455
309.106
308.757
308.408
308.059
307.71
307.362
307.015
306.669
306.326
305.984
305.644
305.306
304.969
304.634
304.299
303.964
303.63
303.296
302.962
302.629
302.296
301.965
301.635
301.307
300.982
300.658
300.336
300.015
299.695
299.376
299.057
298.739
298.421
298.103
297.785
297.468
297.153
296.839
296.526
296.215
295.906
295.599
295.292
294.987
294.682
294.377
294.072
293.768
293.463
293.159
292.855
292.552
292.251
291.951
291.652
291.355
291.059
290.764
290.469
290.174
289.878
289.58
289.28
288.977
288.672
317.824
317.496
317.163
316.827
316.488
316.147
315.805
315.46
315.113
314.764
314.413
314.059
313.703
313.345
312.986
312.626
312.267
311.909
311.553
311.199
310.847
310.497
310.148
309.8
309.452
309.103
308.754
308.404
308.054
307.704
307.354
307.005
306.658
306.314
305.972
305.633
305.296
304.96
304.626
304.292
303.958
303.624
303.29
302.955
302.62
302.286
301.954
301.623
301.295
300.969
300.646
300.325
300.006
299.687
299.37
299.052
298.734
298.415
298.096
297.778
297.46
297.143
296.828
296.515
296.204
295.896
295.59
295.285
294.981
294.677
294.373
294.069
293.764
293.459
293.154
292.849
292.545
292.243
291.944
291.646
291.35
291.057
290.764
290.472
290.18
289.886
289.591
289.292
288.99
288.685
317.866
317.534
317.198
316.858
316.516
316.172
315.828
315.482
315.134
314.784
314.431
314.075
313.716
313.354
312.991
312.627
312.264
311.903
311.545
311.19
310.839
310.49
310.142
309.796
309.449
309.102
308.752
308.401
308.049
307.696
307.344
306.992
306.644
306.299
305.957
305.618
305.283
304.95
304.618
304.285
303.953
303.619
303.284
302.947
302.611
302.274
301.94
301.608
301.279
300.954
300.632
300.312
299.995
299.679
299.363
299.047
298.729
298.41
298.09
297.769
297.449
297.13
296.814
296.501
296.191
295.883
295.579
295.276
294.974
294.672
294.37
294.066
293.761
293.454
293.148
292.841
292.536
292.233
291.933
291.636
291.343
291.052
290.764
290.476
290.188
289.898
289.606
289.31
289.009
288.703
317.916
317.579
317.237
316.892
316.546
316.199
315.853
315.506
315.158
314.808
314.454
314.095
313.733
313.366
312.997
312.627
312.258
311.893
311.533
311.177
310.827
310.48
310.136
309.792
309.448
309.102
308.753
308.401
308.045
307.688
307.331
306.976
306.625
306.278
305.936
305.6
305.267
304.938
304.609
304.28
303.949
303.616
303.279
302.941
302.6
302.26
301.922
301.588
301.258
300.933
300.613
300.297
299.983
299.67
299.358
299.043
298.726
298.406
298.084
297.76
297.436
297.115
296.796
296.482
296.172
295.867
295.565
295.266
294.968
294.669
294.368
294.065
293.759
293.451
293.141
292.831
292.523
292.218
291.918
291.622
291.332
291.045
290.761
290.48
290.198
289.914
289.627
289.335
289.035
288.728
317.976
317.631
317.28
316.927
316.575
316.226
315.879
315.533
315.187
314.837
314.483
314.122
313.755
313.381
313.003
312.624
312.248
311.877
311.513
311.157
310.809
310.466
310.128
309.79
309.45
309.107
308.759
308.404
308.044
307.681
307.316
306.955
306.599
306.25
305.909
305.575
305.248
304.924
304.601
304.277
303.949
303.617
303.279
302.936
302.59
302.243
301.9
301.561
301.23
300.906
300.589
300.277
299.969
299.662
299.354
299.043
298.727
298.406
298.08
297.751
297.421
297.094
296.772
296.456
296.148
295.846
295.549
295.255
294.962
294.668
294.37
294.068
293.761
293.449
293.134
292.819
292.506
292.198
291.896
291.602
291.314
291.033
290.757
290.483
290.21
289.936
289.656
289.369
289.072
288.764
318.047
317.69
317.327
316.962
316.602
316.248
315.902
315.56
315.219
314.874
314.521
314.159
313.786
313.403
313.012
312.619
312.23
311.85
311.482
311.126
310.782
310.448
310.118
309.79
309.458
309.12
308.772
308.415
308.048
307.674
307.298
306.926
306.562
306.211
305.871
305.543
305.223
304.908
304.595
304.279
303.956
303.625
303.285
302.936
302.58
302.223
301.869
301.525
301.191
300.868
300.556
300.253
299.954
299.656
299.356
299.05
298.735
298.412
298.08
297.742
297.402
297.067
296.738
296.421
296.114
295.817
295.527
295.242
294.958
294.672
294.379
294.079
293.769
293.452
293.128
292.803
292.481
292.167
291.863
291.57
291.288
291.015
290.748
290.486
290.225
289.963
289.696
289.418
289.126
288.816
318.134
317.76
317.374
316.99
316.618
316.262
315.919
315.587
315.256
314.921
314.574
314.212
313.832
313.435
313.024
312.607
312.198
311.805
311.432
311.079
310.743
310.421
310.107
309.794
309.476
309.146
308.801
308.44
308.061
307.67
307.273
306.884
306.509
306.154
305.817
305.497
305.19
304.891
304.593
304.289
303.975
303.647
303.304
302.944
302.573
302.196
301.827
301.472
301.135
300.816
300.512
300.221
299.937
299.654
299.366
299.068
298.757
298.43
298.089
297.736
297.378
297.028
296.69
296.37
296.065
295.776
295.499
295.228
294.959
294.684
294.399
294.102
293.79
293.463
293.125
292.782
292.446
292.122
291.815
291.524
291.249
290.986
290.734
290.487
290.243
289.999
289.75
289.489
289.206
288.894
318.249
317.849
317.418
317.002
316.612
316.254
315.922
315.61
315.302
314.983
314.649
314.289
313.904
313.486
313.044
312.583
312.144
311.732
311.355
311.006
310.684
310.382
310.094
309.808
309.509
309.194
308.853
308.489
308.093
307.674
307.237
306.82
306.429
306.071
305.739
305.433
305.146
304.872
304.599
304.315
304.015
303.692
303.346
302.97
302.573
302.159
301.764
301.394
301.055
300.74
300.451
300.178
299.918
299.66
299.39
299.106
298.799
298.471
298.115
297.737
297.344
296.969
296.617
296.295
295.996
295.72
295.46
295.213
294.967
294.71
294.438
294.146
293.832
293.491
293.129
292.752
292.392
292.053
291.743
291.455
291.191
290.943
290.711
290.485
290.259
290.041
289.823
289.591
289.327
289.014
318.413
317.985
317.438
316.978
316.557
316.211
315.895
315.627
315.364
315.069
314.761
314.401
314.023
313.572
313.092
312.528
312.051
311.608
311.239
310.892
310.599
310.321
310.08
309.839
309.565
309.278
308.941
308.584
308.158
307.705
307.171
306.72
306.301
305.951
305.623
305.344
305.081
304.851
304.623
304.362
304.089
303.769
303.431
303.027
302.598
302.093
301.667
301.27
300.939
300.629
300.365
300.116
299.898
299.682
299.435
299.176
298.873
298.552
298.17
297.762
297.283
296.878
296.501
296.187
295.892
295.641
295.404
295.197
294.99
294.755
294.509
294.219
293.913
293.547
293.157
292.697
292.307
291.943
291.639
291.353
291.109
290.879
290.679
290.482
290.264
290.082
289.915
289.739
289.52
289.217
318.677
318.297
317.338
316.9
316.391
316.127
315.799
315.634
315.475
315.172
314.946
314.542
314.246
313.701
313.262
312.347
311.911
311.377
311.089
310.703
310.49
310.209
310.064
309.919
309.642
309.433
309.056
308.777
308.264
307.85
306.987
306.576
306.072
305.799
305.435
305.233
304.967
304.829
304.692
304.429
304.23
303.873
303.609
303.122
302.73
301.915
301.527
301.051
300.794
300.449
300.259
300.008
299.877
299.747
299.498
299.31
298.972
298.722
298.261
297.89
297.116
296.747
296.296
296.051
295.724
295.542
295.303
295.179
295.056
294.819
294.64
294.318
294.079
293.64
293.284
292.541
292.185
291.747
291.509
291.188
291.009
290.77
290.644
290.509
290.22
290.099
290.023
289.946
289.835
289.607
288.312
287.944
287.576
287.207
286.838
286.468
286.1
285.732
285.365
284.999
284.633
284.269
283.906
283.543
283.181
288.313
287.945
287.576
287.207
286.837
286.468
286.099
285.731
285.364
284.998
284.633
284.269
283.905
283.543
283.181
288.316
287.947
287.578
287.208
286.837
286.467
286.097
285.729
285.362
284.995
284.631
284.267
283.904
283.542
283.181
288.319
287.95
287.58
287.208
286.837
286.465
286.095
285.726
285.358
284.992
284.627
284.264
283.902
283.541
283.18
288.325
287.955
287.582
287.209
286.836
286.463
286.091
285.721
285.353
284.987
284.623
284.26
283.899
283.539
283.18
288.333
287.961
287.586
287.21
286.834
286.459
286.086
285.715
285.346
284.98
284.617
284.255
283.895
283.537
283.179
288.345
287.969
287.591
287.211
286.832
286.454
286.078
285.706
285.337
284.971
284.608
284.248
283.89
283.533
283.178
288.36
287.98
287.597
287.212
286.828
286.446
286.068
285.694
285.325
284.959
284.598
284.239
283.883
283.529
283.176
288.382
287.996
287.604
287.212
286.821
286.434
286.053
285.678
285.308
284.943
284.583
284.227
283.875
283.524
283.174
288.412
288.016
287.613
287.21
286.811
286.418
286.033
285.655
285.286
284.923
284.565
284.213
283.864
283.517
283.172
288.455
288.043
287.623
287.204
286.793
286.393
286.004
285.626
285.257
284.897
284.543
284.195
283.85
283.509
283.17
288.517
288.077
287.63
287.191
286.766
286.357
285.965
285.586
285.22
284.863
284.515
284.172
283.834
283.499
283.166
288.608
288.12
287.631
287.163
286.721
286.306
285.911
285.535
285.173
284.823
284.481
284.145
283.815
283.488
283.162
288.742
288.163
287.611
287.108
286.652
286.232
285.84
285.47
285.115
284.773
284.44
284.113
283.792
283.474
283.158
288.937
288.178
287.541
287.007
286.545
286.13
285.748
285.388
285.045
284.714
284.392
284.077
283.766
283.458
283.153
322.886
322.657
322.427
322.197
321.965
321.732
321.497
321.258
321.016
320.768
320.511
320.242
319.947
319.606
319.168
322.89
322.671
322.451
322.231
322.01
321.788
321.566
321.341
321.115
320.886
320.653
320.413
320.158
319.864
319.429
322.895
322.685
322.476
322.266
322.056
321.846
321.635
321.425
321.216
321.007
320.799
320.594
320.397
320.224
320.164
322.9
322.7
322.5
322.3
322.101
321.903
321.705
321.509
321.316
321.126
320.943
320.771
320.619
320.507
320.465
322.905
322.714
322.524
322.335
322.146
321.959
321.774
321.592
321.413
321.242
321.08
320.933
320.814
320.742
320.762
322.909
322.729
322.548
322.369
322.191
322.014
321.841
321.671
321.507
321.35
321.205
321.077
320.976
320.913
320.899
322.914
322.742
322.571
322.402
322.233
322.067
321.905
321.747
321.594
321.451
321.318
321.203
321.11
321.051
321.043
322.919
322.756
322.594
322.433
322.275
322.118
321.966
321.818
321.676
321.543
321.421
321.312
321.222
321.153
321.109
322.923
322.769
322.616
322.464
322.314
322.167
322.024
321.885
321.753
321.628
321.513
321.409
321.318
321.239
321.161
322.927
322.781
322.636
322.493
322.351
322.213
322.078
321.948
321.824
321.706
321.597
321.497
321.406
321.323
321.25
322.931
322.793
322.656
322.52
322.387
322.256
322.129
322.007
321.89
321.779
321.675
321.578
321.488
321.401
321.309
322.935
322.804
322.674
322.546
322.42
322.297
322.177
322.062
321.952
321.847
321.748
321.655
321.567
321.482
321.403
322.938
322.814
322.692
322.571
322.452
322.335
322.222
322.114
322.01
321.911
321.817
321.729
321.644
321.56
321.465
322.941
322.824
322.708
322.594
322.481
322.371
322.265
322.162
322.064
321.971
321.883
321.8
321.721
321.644
321.569
322.944
322.834
322.724
322.615
322.509
322.405
322.304
322.207
322.115
322.027
321.945
321.869
321.797
321.728
321.646
322.947
322.842
322.738
322.635
322.534
322.436
322.341
322.249
322.162
322.08
322.004
321.933
321.871
321.82
321.795
322.95
322.85
322.752
322.654
322.558
322.465
322.375
322.289
322.206
322.129
322.057
321.993
321.937
321.893
321.863
322.953
322.858
322.764
322.672
322.581
322.492
322.407
322.325
322.247
322.174
322.106
322.046
321.995
321.957
321.938
322.955
322.865
322.776
322.688
322.601
322.517
322.436
322.358
322.284
322.214
322.151
322.093
322.045
322.006
321.977
322.957
322.872
322.787
322.703
322.621
322.541
322.463
322.389
322.318
322.251
322.19
322.135
322.087
322.049
322.023
322.959
322.878
322.797
322.717
322.638
322.562
322.488
322.417
322.349
322.285
322.225
322.171
322.123
322.082
322.048
322.961
322.883
322.806
322.73
322.655
322.582
322.511
322.442
322.377
322.315
322.257
322.203
322.154
322.111
322.077
322.963
322.888
322.815
322.742
322.67
322.6
322.532
322.466
322.403
322.342
322.285
322.231
322.181
322.135
322.091
322.964
322.893
322.823
322.753
322.684
322.617
322.551
322.488
322.426
322.368
322.311
322.257
322.206
322.156
322.104
322.966
322.898
322.83
322.763
322.697
322.632
322.569
322.508
322.448
322.391
322.336
322.282
322.23
322.178
322.127
322.967
322.902
322.837
322.773
322.709
322.647
322.586
322.527
322.469
322.413
322.359
322.305
322.253
322.2
322.143
322.969
322.906
322.843
322.782
322.721
322.661
322.602
322.545
322.489
322.434
322.381
322.329
322.277
322.224
322.171
322.97
322.909
322.849
322.79
322.731
322.673
322.617
322.561
322.507
322.454
322.403
322.351
322.3
322.248
322.191
322.971
322.913
322.855
322.798
322.741
322.685
322.631
322.577
322.525
322.474
322.424
322.374
322.325
322.276
322.225
322.972
322.916
322.86
322.805
322.751
322.697
322.644
322.592
322.542
322.492
322.444
322.397
322.351
322.304
322.252
322.973
322.919
322.865
322.812
322.759
322.707
322.656
322.606
322.558
322.51
322.464
322.419
322.376
322.336
322.305
322.974
322.922
322.87
322.819
322.768
322.718
322.668
322.62
322.573
322.527
322.482
322.44
322.4
322.363
322.33
322.975
322.924
322.874
322.825
322.775
322.727
322.679
322.633
322.587
322.543
322.5
322.459
322.421
322.387
322.359
322.976
322.927
322.879
322.83
322.783
322.736
322.69
322.644
322.6
322.557
322.516
322.476
322.44
322.406
322.375
322.976
322.929
322.882
322.836
322.79
322.744
322.699
322.655
322.613
322.571
322.531
322.492
322.456
322.423
322.394
322.977
322.932
322.886
322.841
322.796
322.752
322.709
322.666
322.624
322.583
322.544
322.506
322.47
322.436
322.405
322.978
322.934
322.89
322.846
322.802
322.759
322.717
322.676
322.635
322.595
322.556
322.519
322.483
322.449
322.418
322.979
322.936
322.893
322.85
322.808
322.766
322.725
322.685
322.645
322.606
322.568
322.531
322.494
322.459
322.424
322.979
322.937
322.896
322.855
322.814
322.773
322.733
322.693
322.655
322.616
322.579
322.542
322.505
322.468
322.43
322.98
322.939
322.899
322.859
322.819
322.779
322.74
322.702
322.664
322.626
322.589
322.552
322.516
322.479
322.442
322.98
322.941
322.902
322.862
322.824
322.785
322.747
322.71
322.672
322.636
322.599
322.563
322.527
322.49
322.45
322.981
322.942
322.904
322.866
322.828
322.791
322.754
322.717
322.681
322.645
322.609
322.574
322.538
322.502
322.465
322.981
322.944
322.907
322.87
322.833
322.796
322.76
322.724
322.689
322.654
322.619
322.585
322.55
322.514
322.475
322.982
322.945
322.909
322.873
322.837
322.801
322.766
322.731
322.697
322.663
322.629
322.596
322.563
322.529
322.494
322.982
322.947
322.911
322.876
322.841
322.806
322.772
322.738
322.705
322.672
322.639
322.607
322.576
322.544
322.508
322.983
322.948
322.913
322.879
322.845
322.811
322.777
322.744
322.712
322.68
322.649
322.618
322.589
322.561
322.538
322.983
322.949
322.915
322.881
322.848
322.815
322.782
322.75
322.719
322.688
322.658
322.629
322.601
322.575
322.551
322.983
322.95
322.917
322.884
322.851
322.819
322.787
322.756
322.725
322.695
322.666
322.638
322.612
322.588
322.567
322.984
322.951
322.919
322.886
322.854
322.823
322.792
322.761
322.731
322.702
322.674
322.647
322.621
322.598
322.576
322.984
322.952
322.92
322.888
322.857
322.826
322.796
322.766
322.736
322.708
322.681
322.654
322.63
322.607
322.586
322.984
322.953
322.921
322.89
322.859
322.829
322.799
322.77
322.741
322.713
322.687
322.661
322.636
322.613
322.592
322.984
322.953
322.923
322.892
322.862
322.832
322.802
322.774
322.745
322.718
322.692
322.666
322.642
322.619
322.599
322.985
322.954
322.924
322.893
322.863
322.834
322.805
322.777
322.749
322.722
322.696
322.671
322.647
322.624
322.602
322.985
322.955
322.924
322.895
322.865
322.836
322.807
322.779
322.752
322.726
322.7
322.675
322.651
322.628
322.605
322.985
322.955
322.925
322.895
322.866
322.837
322.809
322.782
322.755
322.729
322.703
322.679
322.655
322.632
322.61
322.985
322.955
322.926
322.896
322.867
322.839
322.811
322.783
322.757
322.731
322.706
322.682
322.659
322.636
322.613
322.985
322.955
322.926
322.897
322.868
322.839
322.812
322.785
322.758
322.733
322.708
322.685
322.662
322.639
322.618
322.985
322.955
322.926
322.897
322.868
322.84
322.812
322.785
322.759
322.734
322.71
322.686
322.664
322.642
322.621
322.985
322.955
322.926
322.897
322.868
322.84
322.812
322.785
322.76
322.735
322.711
322.688
322.666
322.645
322.626
322.985
322.955
322.925
322.896
322.867
322.839
322.812
322.785
322.759
322.735
322.711
322.688
322.667
322.647
322.628
322.985
322.955
322.925
322.895
322.866
322.838
322.81
322.784
322.758
322.734
322.71
322.688
322.668
322.648
322.631
322.985
322.954
322.924
322.894
322.865
322.836
322.809
322.782
322.756
322.732
322.709
322.687
322.667
322.648
322.631
322.984
322.954
322.923
322.893
322.863
322.834
322.806
322.779
322.754
322.729
322.706
322.685
322.665
322.647
322.63
322.984
322.953
322.921
322.891
322.861
322.831
322.803
322.776
322.75
322.726
322.703
322.682
322.662
322.644
322.628
322.984
322.952
322.92
322.888
322.858
322.828
322.799
322.772
322.746
322.721
322.698
322.677
322.658
322.641
322.624
322.983
322.95
322.918
322.885
322.854
322.823
322.794
322.766
322.74
322.715
322.692
322.672
322.653
322.636
322.621
322.983
322.949
322.915
322.882
322.85
322.818
322.788
322.76
322.733
322.708
322.685
322.665
322.647
322.63
322.615
322.982
322.947
322.912
322.878
322.845
322.812
322.781
322.752
322.725
322.699
322.676
322.656
322.639
322.624
322.612
322.982
322.945
322.909
322.873
322.839
322.805
322.773
322.743
322.715
322.689
322.666
322.646
322.629
322.615
322.607
322.981
322.943
322.905
322.868
322.832
322.797
322.764
322.733
322.704
322.677
322.653
322.633
322.616
322.604
322.595
322.98
322.94
322.901
322.862
322.825
322.788
322.754
322.721
322.691
322.663
322.638
322.617
322.601
322.589
322.585
322.979
322.937
322.896
322.856
322.816
322.778
322.742
322.708
322.676
322.646
322.621
322.599
322.582
322.57
322.565
322.978
322.934
322.891
322.848
322.807
322.767
322.729
322.692
322.659
322.628
322.6
322.577
322.558
322.547
322.547
322.977
322.931
322.885
322.84
322.797
322.754
322.714
322.676
322.64
322.607
322.577
322.551
322.531
322.516
322.51
322.976
322.927
322.879
322.831
322.785
322.74
322.698
322.657
322.619
322.584
322.551
322.523
322.498
322.48
322.476
322.974
322.923
322.872
322.822
322.773
322.725
322.68
322.637
322.596
322.558
322.523
322.491
322.461
322.433
322.4
322.973
322.918
322.864
322.811
322.759
322.709
322.661
322.615
322.572
322.531
322.493
322.457
322.424
322.391
322.36
322.971
322.913
322.856
322.799
322.744
322.691
322.64
322.591
322.545
322.502
322.461
322.422
322.385
322.348
322.305
322.969
322.908
322.847
322.787
322.728
322.672
322.618
322.566
322.517
322.471
322.427
322.386
322.347
322.309
322.273
322.967
322.902
322.837
322.773
322.711
322.651
322.593
322.538
322.486
322.438
322.392
322.349
322.308
322.268
322.223
322.965
322.895
322.827
322.759
322.693
322.629
322.567
322.509
322.454
322.402
322.355
322.31
322.269
322.229
322.193
322.963
322.889
322.815
322.743
322.673
322.605
322.539
322.477
322.419
322.365
322.315
322.269
322.228
322.189
322.147
322.96
322.881
322.803
322.726
322.651
322.578
322.509
322.443
322.381
322.324
322.272
322.226
322.185
322.15
322.122
322.958
322.874
322.79
322.708
322.628
322.55
322.476
322.405
322.339
322.279
322.226
322.179
322.139
322.107
322.09
322.955
322.865
322.776
322.689
322.603
322.52
322.44
322.364
322.294
322.23
322.174
322.126
322.087
322.054
322.015
322.952
322.856
322.761
322.668
322.576
322.487
322.401
322.32
322.245
322.176
322.117
322.068
322.031
322.005
321.983
322.949
322.847
322.746
322.646
322.548
322.452
322.36
322.272
322.19
322.116
322.052
322.002
321.968
321.954
321.959
322.946
322.837
322.729
322.622
322.517
322.414
322.315
322.219
322.13
322.048
321.978
321.923
321.891
321.89
321.929
322.942
322.827
322.712
322.598
322.485
322.375
322.267
322.163
322.064
321.973
321.893
321.83
321.793
321.799
321.877
322.939
322.816
322.694
322.572
322.452
322.333
322.216
322.103
321.993
321.89
321.797
321.718
321.664
321.657
321.757
289.142
288.08
287.382
286.85
286.404
286.007
285.642
285.299
284.97
284.652
284.342
284.039
283.739
283.442
283.147
288.768
287.74
287.121
286.647
286.241
285.874
285.532
285.207
284.894
284.59
284.293
284.001
283.713
283.427
283.142
287.292
287.116
286.759
286.396
286.051
285.723
285.409
285.106
284.811
284.523
284.24
283.961
283.684
283.41
283.137
286.711
286.618
286.402
286.134
285.849
285.563
285.279
285
284.725
284.453
284.185
283.919
283.655
283.392
283.131
286.162
286.204
286.081
285.882
285.649
285.401
285.147
284.891
284.635
284.381
284.127
283.875
283.625
283.374
283.125
285.913
285.906
285.812
285.655
285.459
285.243
285.015
284.781
284.545
284.307
284.069
283.831
283.594
283.356
283.119
285.655
285.667
285.588
285.454
285.284
285.092
284.887
284.674
284.455
284.234
284.011
283.787
283.563
283.338
283.113
285.54
285.492
285.403
285.277
285.124
284.951
284.765
284.57
284.368
284.162
283.954
283.743
283.532
283.319
283.106
285.448
285.346
285.242
285.12
284.978
284.82
284.649
284.47
284.284
284.092
283.898
283.7
283.501
283.301
283.1
285.29
285.2
285.095
284.975
284.843
284.697
284.54
284.375
284.202
284.025
283.843
283.658
283.472
283.284
283.095
285.187
285.066
284.956
284.841
284.716
284.581
284.437
284.284
284.125
283.96
283.791
283.618
283.443
283.267
283.089
285.019
284.925
284.822
284.713
284.597
284.473
284.34
284.199
284.051
283.898
283.741
283.579
283.416
283.25
283.083
284.909
284.791
284.691
284.59
284.484
284.37
284.248
284.118
283.982
283.84
283.693
283.543
283.39
283.234
283.078
284.725
284.645
284.56
284.471
284.376
284.273
284.161
284.042
283.916
283.784
283.648
283.508
283.365
283.22
283.073
284.592
284.501
284.431
284.357
284.274
284.181
284.08
283.97
283.854
283.732
283.605
283.475
283.341
283.206
283.069
284.333
284.343
284.306
284.249
284.178
284.096
284.004
283.904
283.797
283.684
283.566
283.444
283.319
283.192
283.064
284.217
284.219
284.195
284.15
284.09
284.017
283.933
283.842
283.743
283.638
283.529
283.415
283.299
283.18
283.06
284.09
284.113
284.099
284.063
284.01
283.945
283.869
283.785
283.694
283.596
283.494
283.388
283.279
283.168
283.056
284.027
284.032
284.018
283.986
283.939
283.88
283.811
283.733
283.648
283.558
283.463
283.364
283.262
283.158
283.053
283.953
283.963
283.95
283.921
283.877
283.822
283.758
283.686
283.607
283.523
283.434
283.341
283.245
283.148
283.049
283.915
283.911
283.894
283.864
283.823
283.771
283.711
283.643
283.57
283.49
283.407
283.32
283.231
283.139
283.046
283.872
283.867
283.847
283.816
283.776
283.726
283.669
283.605
283.536
283.461
283.383
283.301
283.217
283.131
283.044
283.852
283.834
283.808
283.775
283.734
283.686
283.632
283.571
283.505
283.435
283.361
283.284
283.205
283.123
283.041
283.835
283.805
283.774
283.739
283.698
283.651
283.599
283.541
283.478
283.412
283.341
283.268
283.193
283.117
283.039
283.806
283.777
283.744
283.707
283.666
283.62
283.569
283.513
283.454
283.39
283.324
283.254
283.183
283.111
283.037
283.787
283.751
283.716
283.678
283.637
283.592
283.543
283.489
283.432
283.371
283.308
283.242
283.174
283.105
283.035
283.757
283.725
283.69
283.652
283.611
283.567
283.519
283.467
283.412
283.354
283.294
283.231
283.166
283.1
283.033
283.739
283.701
283.666
283.628
283.588
283.544
283.498
283.448
283.395
283.339
283.281
283.221
283.159
283.096
283.032
283.708
283.676
283.642
283.606
283.567
283.524
283.479
283.431
283.379
283.326
283.27
283.212
283.152
283.092
283.031
283.688
283.653
283.62
283.585
283.547
283.506
283.462
283.415
283.366
283.314
283.26
283.204
283.147
283.088
283.03
283.649
283.629
283.6
283.567
283.53
283.49
283.447
283.402
283.354
283.303
283.251
283.197
283.141
283.085
283.028
283.633
283.611
283.583
283.551
283.515
283.476
283.435
283.39
283.343
283.294
283.243
283.191
283.137
283.083
283.028
283.617
283.596
283.569
283.538
283.503
283.465
283.424
283.38
283.334
283.286
283.237
283.185
283.133
283.08
283.027
283.61
283.586
283.559
283.527
283.492
283.455
283.414
283.371
283.326
283.279
283.231
283.181
283.13
283.078
283.026
283.603
283.579
283.55
283.519
283.484
283.447
283.407
283.364
283.32
283.274
283.226
283.177
283.127
283.077
283.026
283.6
283.574
283.545
283.513
283.478
283.44
283.401
283.359
283.315
283.269
283.222
283.174
283.125
283.075
283.025
283.598
283.571
283.541