/*--------------------------------*- C++ -*----------------------------------*\
| =========                 |                                                 |
| \\      /  F ield         | OpenFOAM: The Open Source CFD Toolbox           |
|  \\    /   O peration     | Version:  5.x                                   |
|   \\  /    A nd           | Web:      www.OpenFOAM.org                      |
|    \\/     M anipulation  |                                                 |
\*---------------------------------------------------------------------------*/
FoamFile
{
    version     2.0;
    format      ascii;
    class       volScalarField;
    location    "18";
    object      gradTy;
}
// * * * * * * * * * * * * * * * * * * * * * * * * * * * * * * * * * * * * * //

dimensions      [0 -1 0 1 0 0 0];

internalField   nonuniform List<scalar> 
2048
(
-26.4236
-26.396
-26.3416
-26.262
-26.1592
-26.0358
-25.8945
-25.7382
-25.5697
-25.3915
-25.206
-25.0153
-24.8215
-24.6261
-24.4308
-24.2367
-24.0451
-23.8568
-23.6726
-23.4931
-23.3187
-23.1497
-22.9865
-22.8293
-22.6783
-22.5337
-22.3958
-22.265
-22.1416
-22.0261
-21.9192
-21.8213
-21.7332
-21.6559
-21.5902
-21.5371
-21.4979
-21.4735
-21.4652
-21.4744
-21.5022
-21.55
-21.6188
-21.71
-21.8244
-21.9628
-22.1256
-22.3128
-22.5236
-22.7566
-23.0096
-23.2793
-23.5613
-23.8504
-24.1406
-24.4252
-24.6976
-24.9511
-25.1795
-25.3777
-25.5412
-25.6666
-25.7515
-25.7943
-26.4459
-26.4177
-26.3621
-26.2807
-26.1759
-26.0502
-25.9067
-25.7482
-25.5775
-25.3974
-25.2101
-25.0179
-24.8227
-24.6261
-24.4297
-24.2348
-24.0424
-23.8535
-23.6688
-23.4889
-23.3143
-23.1451
-22.9817
-22.8243
-22.6731
-22.5282
-22.3901
-22.2589
-22.1352
-22.0193
-21.9118
-21.8133
-21.7246
-21.6465
-21.58
-21.526
-21.4858
-21.4604
-21.4512
-21.4593
-21.4861
-21.5329
-21.6008
-21.6912
-21.805
-21.9431
-22.106
-22.2936
-22.5056
-22.7405
-22.9962
-23.2693
-23.5555
-23.8495
-24.145
-24.4352
-24.7129
-24.9713
-25.2041
-25.4058
-25.572
-25.6994
-25.7855
-25.829
-26.4887
-26.4591
-26.4011
-26.3164
-26.2076
-26.0776
-25.9296
-25.7668
-25.5922
-25.4084
-25.2178
-25.0227
-24.8249
-24.626
-24.4276
-24.231
-24.0372
-23.8471
-23.6616
-23.481
-23.3058
-23.1363
-22.9726
-22.8148
-22.6632
-22.518
-22.3793
-22.2476
-22.1231
-22.0064
-21.8979
-21.7983
-21.7083
-21.6287
-21.5606
-21.505
-21.463
-21.4357
-21.4246
-21.4307
-21.4556
-21.5004
-21.5666
-21.6555
-21.7681
-21.9055
-22.0684
-22.257
-22.471
-22.7094
-22.9701
-23.2498
-23.5442
-23.8476
-24.1534
-24.4541
-24.7421
-25.01
-25.251
-25.4595
-25.6309
-25.7619
-25.8504
-25.895
-26.5499
-26.5185
-26.4569
-26.3672
-26.2525
-26.1162
-25.9619
-25.7929
-25.6126
-25.4236
-25.2284
-25.0292
-24.8277
-24.6256
-24.4244
-24.2254
-24.0296
-23.838
-23.6512
-23.4697
-23.2939
-23.1239
-22.9597
-22.8015
-22.6494
-22.5036
-22.3642
-22.2317
-22.1062
-21.9883
-21.8785
-21.7773
-21.6854
-21.6039
-21.5335
-21.4755
-21.4309
-21.401
-21.3871
-21.3905
-21.4125
-21.4547
-21.5183
-21.6048
-21.7156
-21.8519
-22.0146
-22.2043
-22.4212
-22.6643
-22.9319
-23.221
-23.5271
-23.8441
-24.1648
-24.481
-24.784
-25.0656
-25.3184
-25.5364
-25.715
-25.8512
-25.9428
-25.9889
-26.6283
-26.5944
-26.5279
-26.4317
-26.3092
-26.1646
-26.0019
-25.8251
-25.6375
-25.442
-25.2411
-25.0368
-24.8308
-24.6247
-24.42
-24.2179
-24.0197
-23.8261
-23.6379
-23.4554
-23.2788
-23.1082
-22.9436
-22.7849
-22.6322
-22.4857
-22.3455
-22.212
-22.0853
-21.966
-21.8544
-21.7512
-21.6571
-21.573
-21.4998
-21.4387
-21.3909
-21.3577
-21.3403
-21.3402
-21.3587
-21.3973
-21.4575
-21.541
-21.6493
-21.7839
-21.9461
-22.1369
-22.3568
-22.6056
-22.8819
-23.1828
-23.5038
-23.8385
-24.1787
-24.515
-24.8376
-25.137
-25.4049
-25.6349
-25.8224
-25.9647
-26.06
-26.1079
-26.7229
-26.6857
-26.6131
-26.5084
-26.3762
-26.2212
-26.0484
-25.8621
-25.6659
-25.4629
-25.2553
-25.045
-24.8338
-24.623
-24.4142
-24.2086
-24.0075
-23.8117
-23.6219
-23.4383
-23.261
-23.0899
-22.9248
-22.7656
-22.6123
-22.465
-22.3238
-22.1891
-22.0611
-21.9401
-21.8266
-21.721
-21.6242
-21.537
-21.4605
-21.3959
-21.3443
-21.3071
-21.2856
-21.2813
-21.2955
-21.3299
-21.386
-21.4657
-21.5707
-21.7029
-21.864
-22.0555
-22.2787
-22.5337
-22.8199
-23.1347
-23.4737
-23.8299
-24.1942
-24.5555
-24.9023
-25.2234
-25.5095
-25.7536
-25.9513
-26.1003
-26.1996
-26.2493
-26.8331
-26.7917
-26.7114
-26.5964
-26.4523
-26.2849
-26.1001
-25.9027
-25.6968
-25.4852
-25.2702
-25.0534
-24.8363
-24.6204
-24.4069
-24.1974
-23.9931
-23.7948
-23.6033
-23.4186
-23.2406
-23.0691
-22.9036
-22.7439
-22.59
-22.4418
-22.2996
-22.1637
-22.0342
-21.9114
-21.7957
-21.6876
-21.5877
-21.497
-21.4167
-21.348
-21.2921
-21.2504
-21.2243
-21.2151
-21.2245
-21.2539
-21.3052
-21.3802
-21.4812
-21.6102
-21.7694
-21.9611
-22.187
-22.4485
-22.7454
-23.076
-23.4359
-23.8175
-24.2105
-24.6019
-24.9777
-25.3245
-25.6317
-25.8916
-26.1003
-26.2562
-26.3594
-26.4108
-26.9583
-26.912
-26.8223
-26.6947
-26.5362
-26.3543
-26.1555
-25.9457
-25.729
-25.5082
-25.2853
-25.0616
-24.8383
-24.6167
-24.3981
-24.1842
-23.9763
-23.7754
-23.5821
-23.3965
-23.2181
-23.0463
-22.8806
-22.7205
-22.5659
-22.4168
-22.2735
-22.1363
-22.0052
-21.8806
-21.7625
-21.6515
-21.5483
-21.4538
-21.3692
-21.2959
-21.2352
-21.1886
-21.1574
-21.1429
-21.1468
-21.1706
-21.2163
-21.286
-21.382
-21.5068
-21.6633
-21.8542
-22.0823
-22.3499
-22.658
-23.0058
-23.3891
-23.8002
-24.227
-24.6538
-25.0637
-25.4404
-25.7713
-26.0484
-26.2682
-26.4307
-26.5373
-26.5901
-27.0986
-27.0461
-26.945
-26.8023
-26.627
-26.428
-26.2135
-25.9899
-25.7616
-25.5312
-25.3002
-25.0693
-24.8394
-24.6117
-24.3876
-24.1689
-23.9571
-23.7535
-23.5586
-23.3722
-23.1936
-23.0219
-22.8561
-22.6957
-22.5404
-22.3903
-22.2459
-22.1073
-21.9747
-21.8481
-21.7277
-21.6136
-21.5068
-21.408
-21.3188
-21.2405
-21.1747
-21.1227
-21.0859
-21.0658
-21.0637
-21.0813
-21.1208
-21.1842
-21.2744
-21.394
-21.5466
-21.7355
-21.9647
-22.2376
-22.5569
-22.9229
-23.3323
-23.7768
-24.2426
-24.711
-25.1606
-25.5715
-25.9286
-26.2236
-26.4542
-26.6223
-26.7313
-26.7849
-27.2539
-27.194
-27.0791
-26.9185
-26.7233
-26.5048
-26.2727
-26.0341
-25.7937
-25.5535
-25.3143
-25.0763
-24.8397
-24.6055
-24.3755
-24.1515
-23.9356
-23.7291
-23.5326
-23.3457
-23.1674
-22.9961
-22.8305
-22.6698
-22.5138
-22.3628
-22.2171
-22.0771
-21.943
-21.8146
-21.6917
-21.5745
-21.4637
-21.3605
-21.2662
-21.1826
-21.1112
-21.0535
-21.0109
-20.9847
-20.9762
-20.9871
-21.0197
-21.0762
-21.1595
-21.2729
-21.4202
-21.6058
-21.8346
-22.1116
-22.4414
-22.8261
-23.2637
-23.7458
-24.2566
-24.7732
-25.2689
-25.7185
-26.104
-26.4171
-26.6573
-26.8293
-26.9393
-26.9928
-27.4246
-27.3556
-27.2243
-27.0423
-26.824
-26.5833
-26.3316
-26.0771
-25.8242
-25.5744
-25.3274
-25.0824
-24.839
-24.5981
-24.3616
-24.1318
-23.9114
-23.702
-23.5042
-23.3173
-23.1397
-22.9693
-22.8042
-22.6434
-22.4867
-22.3344
-22.1874
-22.0462
-21.9107
-21.7805
-21.6552
-21.5348
-21.4198
-21.3116
-21.2119
-21.1226
-21.0454
-20.9818
-20.9331
-20.9005
-20.8853
-20.8891
-20.9141
-20.9629
-21.0385
-21.1445
-21.2852
-21.4658
-21.6923
-21.9717
-22.3107
-22.7141
-23.1818
-23.7057
-24.2679
-24.8405
-25.3894
-25.8826
-26.2986
-26.6291
-26.8768
-27.0502
-27.1591
-27.2114
-27.6111
-27.5312
-27.3802
-27.1731
-26.9279
-26.6621
-26.3891
-26.1177
-25.8524
-25.5936
-25.3393
-25.0876
-24.8375
-24.5896
-24.346
-24.1099
-23.8846
-23.6723
-23.4734
-23.287
-23.1108
-22.9418
-22.7776
-22.6167
-22.4592
-22.3055
-22.1571
-22.0146
-21.8779
-21.7463
-21.6186
-21.4948
-21.3755
-21.262
-21.1565
-21.0611
-20.9778
-20.9082
-20.8533
-20.8142
-20.7919
-20.7882
-20.8051
-20.8454
-20.9125
-21.01
-21.1427
-21.3164
-21.5384
-21.8177
-22.164
-22.5853
-23.0845
-23.6544
-24.2752
-24.9128
-25.5234
-26.0657
-26.5134
-26.8597
-27.1117
-27.2832
-27.3885
-27.4383
-27.814
-27.7212
-27.5467
-27.3098
-27.0337
-26.7397
-26.4435
-26.1547
-25.8774
-25.6104
-25.3499
-25.0921
-24.8354
-24.5801
-24.3287
-24.0856
-23.855
-23.6396
-23.44
-23.2549
-23.0809
-22.9141
-22.7511
-22.5903
-22.4316
-22.2763
-22.1262
-21.9826
-21.8451
-21.7122
-21.5825
-21.4553
-21.3313
-21.2121
-21.1003
-20.9986
-20.9091
-20.8332
-20.7721
-20.7264
-20.697
-20.6853
-20.6936
-20.7249
-20.7826
-20.8706
-20.9937
-21.1585
-21.3735
-21.6498
-22.0005
-22.4382
-22.9696
-23.5898
-24.277
-24.9903
-25.6727
-26.2698
-26.7502
-27.1093
-27.3612
-27.5266
-27.625
-27.6706
-28.0343
-27.9258
-27.7234
-27.4517
-27.14
-26.8145
-26.4934
-26.1869
-25.8984
-25.6247
-25.3593
-25.0962
-24.8329
-24.5698
-24.3099
-24.0588
-23.8225
-23.604
-23.4041
-23.221
-23.0503
-22.8865
-22.7251
-22.5643
-22.4044
-22.2469
-22.0949
-21.9502
-21.8124
-21.6788
-21.5472
-21.4166
-21.2877
-21.1623
-21.0438
-20.9354
-20.8394
-20.7573
-20.69
-20.6378
-20.6011
-20.5812
-20.5804
-20.6021
-20.6498
-20.7272
-20.8394
-20.9934
-21.1985
-21.4681
-21.8197
-22.2711
-22.8348
-23.509
-24.2715
-25.0731
-25.8394
-26.4979
-27.0107
-27.3783
-27.6243
-27.7783
-27.8662
-27.9057
-28.273
-28.1457
-27.9104
-27.5978
-27.2451
-26.8851
-26.5374
-26.2131
-25.9147
-25.6362
-25.3676
-25.1001
-24.8305
-24.5593
-24.2896
-24.0294
-23.7867
-23.5651
-23.3653
-23.1854
-23.0193
-22.8595
-22.7001
-22.5392
-22.3776
-22.2174
-22.063
-21.9176
-21.78
-21.6464
-21.5131
-21.3791
-21.2451
-21.113
-20.9871
-20.8717
-20.7692
-20.681
-20.6077
-20.5491
-20.5051
-20.4767
-20.4665
-20.478
-20.5151
-20.5812
-20.6811
-20.8222
-21.0145
-21.2733
-21.6209
-22.0824
-22.6774
-23.4091
-24.2562
-25.1613
-26.0265
-26.7536
-27.2973
-27.667
-27.8996
-28.0361
-28.1093
-28.1407
-28.5312
-28.3815
-28.1074
-27.7469
-27.3475
-26.9496
-26.574
-26.232
-25.9256
-25.6449
-25.3753
-25.1043
-24.8286
-24.5487
-24.2679
-23.9972
-23.7476
-23.5227
-23.3236
-23.1482
-22.9882
-22.8335
-22.6765
-22.5155
-22.3517
-22.1878
-22.0304
-21.8845
-21.748
-21.6153
-21.4807
-21.3433
-21.2038
-21.0643
-20.9304
-20.8077
-20.6987
-20.6044
-20.5255
-20.4608
-20.4096
-20.3724
-20.3523
-20.3533
-20.3793
-20.4335
-20.52
-20.6463
-20.8228
-21.066
-21.404
-21.8704
-22.4947
-23.2864
-24.228
-25.2552
-26.238
-27.0413
-27.6124
-27.9753
-28.1857
-28.2977
-28.3518
-28.373
-28.8104
-28.6339
-28.3144
-27.8979
-27.4452
-27.0065
-26.6019
-26.2424
-25.9305
-25.6509
-25.3829
-25.1094
-24.8277
-24.5389
-24.2451
-23.9618
-23.7048
-23.4767
-23.2786
-23.1092
-22.9572
-22.8092
-22.6548
-22.4933
-22.327
-22.1581
-21.9967
-21.8508
-21.7167
-21.5859
-21.4503
-21.3095
-21.1644
-21.0166
-20.8737
-20.7436
-20.628
-20.5279
-20.4437
-20.3734
-20.3151
-20.269
-20.2385
-20.2287
-20.2435
-20.2852
-20.3572
-20.4673
-20.625
-20.8473
-21.1688
-21.6336
-22.2838
-23.1369
-24.1825
-25.3544
-26.4789
-27.3665
-27.9586
-28.3032
-28.4805
-28.5604
-28.5908
-28.5997
-29.1122
-28.9035
-28.5316
-28.0495
-27.5359
-27.0542
-26.6196
-26.2429
-25.9289
-25.6543
-25.3912
-25.1158
-24.8281
-24.5304
-24.2211
-23.9228
-23.6582
-23.4267
-23.2299
-23.0685
-22.9268
-22.7872
-22.6354
-22.4731
-22.3038
-22.1283
-21.9614
-21.8162
-21.6861
-21.5586
-21.4223
-21.2779
-21.1272
-20.9699
-20.8169
-20.6795
-20.5574
-20.4516
-20.3629
-20.2875
-20.2225
-20.167
-20.1257
-20.1046
-20.1082
-20.1374
-20.1941
-20.2868
-20.4231
-20.6186
-20.9157
-21.3706
-22.0422
-22.956
-24.1143
-25.4588
-26.7559
-27.7355
-28.3384
-28.6497
-28.7817
-28.8214
-28.8237
-28.8184
-29.4384
-29.1907
-28.7591
-28.2001
-27.617
-27.0914
-26.6261
-26.2322
-25.9202
-25.6554
-25.4013
-25.1242
-24.8304
-24.5244
-24.1962
-23.8793
-23.6077
-23.3727
-23.1769
-23.026
-22.8974
-22.7684
-22.6187
-22.455
-22.2828
-22.0981
-21.9238
-21.7805
-21.6563
-21.5342
-21.397
-21.2489
-21.0929
-20.9245
-20.7599
-20.6153
-20.487
-20.3755
-20.2831
-20.2035
-20.1321
-20.0669
-20.0141
-19.9814
-19.9742
-19.9911
-20.0315
-20.1062
-20.2192
-20.3815
-20.6451
-21.0801
-21.7674
-22.739
-24.0157
-25.5671
-27.0778
-28.1562
-28.7543
-29.0135
-29.0864
-29.0779
-29.0478
-29.0266
-29.7913
-29.4957
-28.9977
-28.3482
-27.685
-27.117
-26.6206
-26.2084
-25.9041
-25.6548
-25.4148
-25.1349
-24.8346
-24.5223
-24.1705
-23.8304
-23.5533
-23.3145
-23.1189
-22.9816
-22.8693
-22.7537
-22.6051
-22.4391
-22.2648
-22.0676
-21.8827
-21.7431
-21.6275
-21.5132
-21.3746
-21.2224
-21.062
-20.8804
-20.7021
-20.5513
-20.4169
-20.2995
-20.2047
-20.1217
-20.0446
-19.9692
-19.904
-19.8595
-19.842
-19.8473
-19.8704
-19.9271
-20.016
-20.1379
-20.358
-20.7606
-21.4578
-22.4812
-23.8763
-25.6775
-27.4567
-28.6376
-29.2078
-29.3923
-29.3914
-29.3267
-29.2607
-29.2223
-30.1732
-29.8179
-29.2487
-28.492
-27.7359
-27.1308
-26.6025
-26.1695
-25.8804
-25.6527
-25.4336
-25.1483
-24.8404
-24.5262
-24.1442
-23.7741
-23.4954
-23.2524
-23.0547
-22.9354
-22.8429
-22.7446
-22.5947
-22.4251
-22.2509
-22.0365
-21.8366
-21.7037
-21.5998
-21.4968
-21.3552
-21.1983
-21.0357
-20.8378
-20.6427
-20.4875
-20.3472
-20.2235
-20.1279
-20.0427
-19.9607
-19.8741
-19.7956
-19.7388
-19.7122
-19.707
-19.7112
-19.7509
-19.8167
-19.8901
-20.0559
-20.4106
-21.1125
-22.1787
-23.6821
-25.7864
-27.909
-29.1899
-29.6998
-29.7825
-29.6927
-29.565
-29.4603
-29.4036
-30.5874
-30.1556
-29.5146
-28.6294
-27.7638
-27.1332
-26.5721
-26.1125
-25.8493
-25.6496
-25.4606
-25.1642
-24.8469
-24.5392
-24.1174
-23.7078
-23.4352
-23.1866
-22.9824
-22.8876
-22.8184
-22.7431
-22.5874
-22.4125
-22.2432
-22.0049
-21.7833
-21.6621
-21.5731
-21.4864
-21.3388
-21.176
-21.0154
-20.7966
-20.5803
-20.4245
-20.2783
-20.147
-20.053
-19.9667
-19.881
-19.7821
-19.689
-19.6192
-19.585
-19.5716
-19.5541
-19.5789
-19.6249
-19.6404
-19.7408
-20.0281
-20.732
-21.829
-23.414
-25.8882
-28.4571
-29.8242
-30.2293
-30.1796
-29.9862
-29.7897
-29.6445
-29.5692
-31.038
-30.505
-29.7996
-28.7584
-27.761
-27.1268
-26.5302
-26.0333
-25.8114
-25.6453
-25.4999
-25.1821
-24.8519
-24.5659
-24.0902
-23.6272
-23.3744
-23.1182
-22.8996
-22.8385
-22.7957
-22.7516
-22.5829
-22.3996
-22.2444
-21.9724
-21.7198
-21.6182
-21.5472
-21.484
-21.325
-21.1544
-21.0032
-20.757
-20.5131
-20.363
-20.2105
-20.0691
-19.9804
-19.8939
-19.8064
-19.6934
-19.5841
-19.5003
-19.4608
-19.4425
-19.3986
-19.4116
-19.4452
-19.3909
-19.4158
-19.6099
-20.3184
-21.433
-23.046
-25.9739
-29.132
-30.552
-30.793
-30.5776
-30.2674
-29.9982
-29.8118
-29.7181
-31.5302
-30.8593
-30.1106
-28.8768
-27.7167
-27.1161
-26.4786
-25.926
-25.7687
-25.6388
-25.5573
-25.2007
-24.8516
-24.6131
-24.0628
-23.526
-23.3166
-23.0483
-22.8023
-22.7895
-22.7743
-22.774
-22.5803
-22.3842
-22.2589
-21.9392
-21.6417
-21.5726
-21.5216
-21.4928
-21.3132
-21.1316
-21.0025
-20.7187
-20.4382
-20.3045
-20.1444
-19.9886
-19.9107
-19.8243
-19.7381
-19.6081
-19.4809
-19.3815
-19.3396
-19.3219
-19.2433
-19.2493
-19.2834
-19.143
-19.0853
-19.1506
-19.8759
-20.9965
-22.5432
-26.0296
-29.977
-31.3838
-31.385
-30.9694
-30.5317
-30.188
-29.9612
-29.8497
-32.0715
-31.2066
-30.459
-28.9823
-27.6157
-27.1095
-26.4202
-25.7819
-25.7249
-25.6275
-25.6409
-25.2177
-24.8399
-24.6909
-24.0351
-23.3949
-23.2675
-22.9791
-22.6848
-22.7428
-22.7522
-22.8158
-22.578
-22.3621
-22.293
-21.9051
-21.5431
-21.5271
-21.4949
-21.5169
-21.3021
-21.1042
-21.018
-20.6818
-20.3511
-20.2512
-20.0807
-19.9034
-19.8448
-19.7579
-19.6773
-19.5263
-19.3792
-19.2618
-19.2212
-19.213
-19.0859
-19.0912
-19.1468
-18.8973
-18.7562
-18.642
-19.4109
-20.5338
-21.8589
-26.0347
-31.0516
-32.3274
-31.9954
-31.3466
-30.7746
-30.3573
-30.0919
-29.9638
-32.6723
-31.5279
-30.862
-29.0726
-27.4366
-27.1206
-26.3593
-25.5884
-25.6868
-25.6062
-25.7628
-25.2297
-24.8069
-24.8138
-24.0072
-23.2203
-23.2358
-22.9134
-22.5387
-22.7027
-22.726
-22.8846
-22.5738
-22.3269
-22.3562
-21.87
-21.4157
-21.4851
-21.4642
-21.5626
-21.29
-21.0674
-21.0567
-20.646
-20.2457
-20.207
-20.0204
-19.8105
-19.7846
-19.6937
-19.6259
-19.4477
-19.2791
-19.14
-19.1048
-19.1202
-18.9227
-18.9351
-19.0455
-18.652
-18.4385
-18.0708
-18.9319
-20.071
-20.9309
-25.9592
-32.4382
-33.385
-32.6101
-31.7
-30.992
-30.5045
-30.2036
-30.0605
-33.3475
-31.7937
-31.3459
-29.1455
-27.1497
-27.1699
-26.3017
-25.3271
-25.6657
-25.5651
-25.9397
-25.2316
-24.7378
-25.0025
-23.9787
-22.9832
-23.2349
-22.8551
-22.3518
-22.6767
-22.6892
-22.9915
-22.5643
-22.269
-22.4618
-21.8335
-21.248
-21.4528
-21.4245
-21.6389
-21.274
-21.0137
-21.1287
-20.6109
-20.1132
-20.1777
-19.9647
-19.7057
-19.7326
-19.6303
-19.5864
-19.3717
-19.1807
-19.0145
-18.989
-19.05
-18.7483
-18.7773
-18.9927
-18.4016
-18.148
-17.4167
-18.4489
-19.6519
-19.6777
-25.7602
-34.2495
-34.5487
-33.2103
-32.0204
-31.1806
-30.6288
-30.2966
-30.1404
-34.1181
-31.9598
-31.9491
-29.1987
-26.7137
-27.288
-26.2551
-24.9719
-25.6806
-25.488
-26.1957
-25.2164
-24.6111
-25.2863
-23.9492
-22.6564
-23.2846
-22.8092
-22.1068
-22.6768
-22.631
-23.1524
-22.5446
-22.1746
-22.6284
-21.7953
-21.0243
-21.4407
-21.3674
-21.7585
-21.2505
-20.9323
-21.2482
-20.5756
-19.9415
-20.1719
-19.9153
-19.5825
-19.6932
-19.5651
-19.5623
-19.2972
-19.0848
-18.8831
-18.8715
-19.0119
-18.555
-18.6116
-19.0068
-18.1354
-17.908
-16.6496
-17.9731
-19.3443
-17.9932
-25.3771
-36.6387
-35.7943
-33.7728
-32.2988
-31.3377
-30.73
-30.3712
-30.2042
-35.0135
-31.9619
-32.7267
-29.23
-26.0724
-27.5185
-26.2288
-24.4862
-25.7606
-25.3485
-26.5641
-25.1744
-24.3961
-25.7051
-23.9177
-22.2031
-23.4129
-22.782
-21.7793
-22.722
-22.5341
-23.389
-22.5085
-22.0239
-22.8819
-21.7541
-20.7234
-21.4651
-21.2792
-21.9389
-21.2143
-20.8081
-21.435
-20.5392
-19.7139
-20.2021
-19.8736
-19.4322
-19.673
-19.4936
-19.5586
-19.2222
-18.9922
-18.7436
-18.7481
-19.0193
-18.3326
-18.4284
-19.1131
-17.8337
-17.7538
-15.7267
-17.5144
-19.2485
-15.741
-24.7268
-39.8117
-37.0738
-34.271
-32.5273
-31.4618
-30.8085
-30.4284
-30.2528
-36.0746
-31.7087
-33.7558
-29.2372
-25.1504
-27.9219
-26.234
-23.8195
-25.9498
-25.1065
-27.0911
-25.0933
-24.0508
-26.3132
-23.8828
-21.5736
-23.6588
-22.7811
-21.3359
-22.8409
-22.3721
-23.7317
-22.4475
-21.7898
-23.2574
-21.7082
-20.3171
-21.5509
-21.1387
-22.2045
-21.1586
-20.6201
-21.7156
-20.4996
-19.4084
-20.2857
-19.8415
-19.2429
-19.6819
-19.4089
-19.5819
-19.1434
-18.905
-18.5933
-18.6123
-19.0906
-18.0674
-18.2138
-19.3465
-17.4653
-17.7365
-14.5882
-17.0794
-19.5069
-12.7486
-23.6962
-44.0418
-38.304
-34.6765
-32.7002
-31.5528
-30.865
-30.4694
-30.2875
-37.3573
-31.0741
-35.1425
-29.2175
-23.848
-28.5809
-26.2835
-22.9033
-26.3126
-24.7022
-27.8393
-24.9573
-23.5181
-27.1824
-23.842
-20.7021
-24.0757
-22.8152
-20.7312
-23.0758
-22.1057
-24.2218
-22.3509
-21.4355
-23.8012
-21.6547
-19.7677
-21.7341
-20.9148
-22.5885
-21.0746
-20.3404
-22.1256
-20.4542
-18.9955
-20.4469
-19.8205
-18.9984
-19.7339
-19.3007
-19.6418
-19.0559
-18.8262
-18.4294
-18.4545
-19.2509
-17.742
-17.9483
-19.7544
-16.9815
-17.9291
-13.1536
-16.6674
-20.3159
-8.79966
-22.1346
-49.6876
-39.3538
-34.9631
-32.8145
-31.6114
-30.901
-30.4953
-30.3094
-38.9367
-29.8874
-37.0289
-29.1674
-22.0356
-29.6049
-26.3916
-21.6462
-26.9404
-24.0497
-28.8921
-24.7463
-22.7227
-28.4066
-23.7918
-19.5032
-24.7339
-22.894
-19.9042
-23.4854
-21.6778
-24.9134
-22.2048
-20.9131
-24.5749
-21.5894
-19.0256
-22.0643
-20.5602
-23.1335
-20.9502
-19.9317
-22.7119
-20.3989
-18.4373
-20.7171
-19.8111
-18.677
-19.849
-19.154
-19.7511
-18.9522
-18.76
-18.2486
-18.2602
-19.5333
-17.3347
-17.6048
-20.4013
-16.3107
-18.4335
-11.3165
-16.2662
-21.9386
-3.62751
-19.8438
-57.2129
-40.0274
-35.1109
-32.8703
-31.6396
-30.9182
-30.5076
-30.3198
)
;

boundaryField
{
    left
    {
        type            calculated;
        value           nonuniform List<scalar> 
32
(
-26.4236
-26.4459
-26.4887
-26.5499
-26.6283
-26.7229
-26.8331
-26.9583
-27.0986
-27.2539
-27.4246
-27.6111
-27.814
-28.0343
-28.273
-28.5312
-28.8104
-29.1122
-29.4384
-29.7913
-30.1732
-30.5874
-31.038
-31.5302
-32.0715
-32.6723
-33.3475
-34.1181
-35.0135
-36.0746
-37.3573
-38.9367
)
;
    }
    right
    {
        type            calculated;
        value           nonuniform List<scalar> 
32
(
-25.7943
-25.829
-25.895
-25.9889
-26.1079
-26.2493
-26.4108
-26.5901
-26.7849
-26.9928
-27.2114
-27.4383
-27.6706
-27.9057
-28.1407
-28.373
-28.5997
-28.8184
-29.0266
-29.2223
-29.4036
-29.5692
-29.7181
-29.8497
-29.9638
-30.0605
-30.1404
-30.2042
-30.2528
-30.2875
-30.3094
-30.3198
)
;
    }
    interface
    {
        type            calculated;
        value           nonuniform List<scalar> 
64
(
-39.8112
-29.1316
-38.1173
-29.1343
-20.9837
-30.2238
-26.4621
-20.9194
-27.3338
-23.6488
-29.5066
-24.6192
-22.2486
-29.1207
-23.7639
-18.8098
-25.1333
-22.9457
-19.4263
-23.7424
-21.4149
-25.3173
-22.1174
-20.6032
-25.0281
-21.5531
-18.5991
-22.2732
-20.3433
-23.4521
-20.876
-19.6898
-23.0556
-20.3683
-18.1164
-20.8838
-19.8092
-18.4941
-19.9253
-19.0687
-19.82
-18.8951
-18.7306
-18.1535
-18.1518
-19.7098
-17.1075
-17.4097
-20.7936
-15.9179
-18.7783
-10.2822
-16.0658
-22.9908
-0.698874
-18.4882
-61.5107
-40.2412
-35.1482
-32.8839
-31.6464
-30.9224
-30.5106
-30.3222
)
;
    }
    bottom
    {
        type            calculated;
        value           nonuniform List<scalar> 
64
(
-26.4178
-26.3904
-26.3363
-26.2571
-26.1549
-26.032
-25.8913
-25.7356
-25.5676
-25.3899
-25.2049
-25.0146
-24.8212
-24.6261
-24.4311
-24.2372
-24.0458
-23.8577
-23.6736
-23.4942
-23.3198
-23.1509
-22.9878
-22.8306
-22.6796
-22.5351
-22.3973
-22.2665
-22.1433
-22.0279
-21.9211
-21.8234
-21.7355
-21.6584
-21.5929
-21.5401
-21.501
-21.4769
-21.4689
-21.4783
-21.5064
-21.5544
-21.6235
-21.7149
-21.8295
-21.968
-22.1308
-22.3178
-22.5283
-22.7608
-23.0131
-23.2818
-23.5627
-23.8506
-24.1394
-24.4226
-24.6936
-24.9458
-25.1732
-25.3704
-25.5332
-25.6581
-25.7426
-25.7853
)
;
    }
    defaultFaces
    {
        type            empty;
    }
}


// ************************************************************************* //
