/*--------------------------------*- C++ -*----------------------------------*\
| =========                 |                                                 |
| \\      /  F ield         | OpenFOAM: The Open Source CFD Toolbox           |
|  \\    /   O peration     | Version:  5.x                                   |
|   \\  /    A nd           | Web:      www.OpenFOAM.org                      |
|    \\/     M anipulation  |                                                 |
\*---------------------------------------------------------------------------*/
FoamFile
{
    version     2.0;
    format      ascii;
    class       volScalarField;
    location    "18";
    object      gradTx;
}
// * * * * * * * * * * * * * * * * * * * * * * * * * * * * * * * * * * * * * //

dimensions      [0 -1 0 1 0 0 0];

internalField   nonuniform List<scalar> 
2048
(
0.00630506
0.0187347
0.0306392
0.0417209
0.0517508
0.0605795
0.0681367
0.0744202
0.0794796
0.0833978
0.0862746
0.0882143
0.0893188
0.0896851
0.0894054
0.088569
0.0872627
0.0855701
0.0835688
0.0813275
0.0789018
0.0763325
0.0736444
0.0708477
0.0679402
0.0649097
0.0617367
0.0583957
0.0548558
0.0510812
0.0470315
0.0426631
0.0379308
0.0327902
0.0271992
0.0211204
0.0145216
0.00737639
-0.000334616
-0.00862315
-0.0174908
-0.0269252
-0.036895
-0.0473429
-0.0581772
-0.0692633
-0.0804141
-0.0913823
-0.101857
-0.111465
-0.119783
-0.12636
-0.130754
-0.13257
-0.131512
-0.127416
-0.120277
-0.110248
-0.0976158
-0.0827653
-0.0661298
-0.0481504
-0.029247
-0.00980742
0.0187888
0.055819
0.0912583
0.124208
0.153983
0.180141
0.202484
0.221018
0.235907
0.247408
0.255826
0.261476
0.264661
0.265667
0.264767
0.262222
0.258291
0.253223
0.24725
0.240578
0.233374
0.225757
0.217802
0.209536
0.200951
0.192008
0.182649
0.172798
0.162363
0.151237
0.139301
0.126424
0.112471
0.097309
0.0808118
0.0628679
0.0433815
0.0222747
-0.000511477
-0.0250133
-0.0512385
-0.0791551
-0.108676
-0.139638
-0.171779
-0.204707
-0.237876
-0.270559
-0.301833
-0.330586
-0.355549
-0.375361
-0.388675
-0.394291
-0.391298
-0.379194
-0.357963
-0.328075
-0.290413
-0.246153
-0.196609
-0.14311
-0.0869054
-0.0291383
0.0311406
0.0924848
0.151109
0.20549
0.254478
0.29736
0.333836
0.363963
0.388055
0.406576
0.420056
0.429024
0.433982
0.435395
0.433702
0.42933
0.422701
0.414228
0.404302
0.393267
0.381401
0.368904
0.355891
0.342401
0.328415
0.313863
0.298646
0.282638
0.26569
0.247626
0.228247
0.207336
0.184667
0.160016
0.133174
0.103956
0.0722051
0.0377917
0.000617219
-0.0393831
-0.0822309
-0.127887
-0.176227
-0.227006
-0.279817
-0.334046
-0.38882
-0.442964
-0.49497
-0.542992
-0.584901
-0.618387
-0.641138
-0.651078
-0.646612
-0.626864
-0.591803
-0.542255
-0.47977
-0.40639
-0.324374
-0.235962
-0.143224
-0.0480093
0.0436005
0.129428
0.211278
0.286946
0.354804
0.413882
0.463834
0.504832
0.537402
0.56227
0.580223
0.592019
0.598351
0.599849
0.597102
0.590689
0.581194
0.569197
0.555252
0.539852
0.523391
0.506146
0.488269
0.4698
0.450695
0.430848
0.410117
0.388326
0.36527
0.340708
0.314363
0.285927
0.255077
0.221496
0.18489
0.145001
0.10161
0.0545399
0.00365128
-0.0511548
-0.109925
-0.172632
-0.239138
-0.309147
-0.38215
-0.457351
-0.533599
-0.60931
-0.682414
-0.750337
-0.810048
-0.858208
-0.891423
-0.906597
-0.901332
-0.874294
-0.825435
-0.756015
-0.668382
-0.565594
-0.450974
-0.327746
-0.198793
-0.0666109
0.0563841
0.167272
0.272727
0.369778
0.456295
0.531079
0.593812
0.644869
0.685089
0.71553
0.73728
0.751341
0.758589
0.759794
0.755674
0.746942
0.734339
0.71862
0.700521
0.680696
0.659667
0.637786
0.615231
0.592029
0.568096
0.543277
0.517382
0.490191
0.461448
0.430849
0.398036
0.362606
0.324134
0.2822
0.236421
0.186465
0.132056
0.0729713
0.00903063
-0.0599042
-0.133918
-0.213017
-0.297081
-0.385803
-0.478616
-0.574601
-0.672384
-0.770029
-0.864939
-0.953808
-1.03266
-1.09699
-1.14217
-1.16387
-1.15868
-1.1247
-1.06185
-0.971946
-0.858332
-0.725317
-0.577484
-0.419135
-0.253975
-0.0850563
0.0696963
0.206603
0.336348
0.455082
0.560133
0.650123
0.724857
0.78505
0.831973
0.867112
0.891915
0.907635
0.915313
0.915824
0.909977
0.8986
0.882587
0.862886
0.840435
0.816077
0.790476
0.764059
0.737016
0.709336
0.680874
0.651412
0.620707
0.588499
0.554492
0.518327
0.479563
0.437693
0.392174
0.342475
0.288115
0.228691
0.163875
0.0934056
0.0170635
-0.0653328
-0.153921
-0.248765
-0.349795
-0.45674
-0.569029
-0.685684
-0.805181
-0.9253
-1.04297
-1.15418
-1.25392
-1.33642
-1.39554
-1.42543
-1.42144
-1.38086
-1.30359
-1.19214
-1.05119
-0.886626
-0.704543
-0.510467
-0.308918
-0.103385
0.0837412
0.248001
0.40301
0.543891
0.667395
0.772028
0.857862
0.92612
0.978664
1.01753
1.04459
1.06135
1.06897
1.06839
1.06046
1.04608
1.0263
1.0023
0.975237
0.946196
0.915995
0.88514
0.85381
0.821927
0.789248
0.755474
0.720308
0.683459
0.64461
0.603354
0.559168
0.511426
0.45945
0.402578
0.340227
0.271922
0.197295
0.116052
0.0279475
-0.0672487
-0.169741
-0.279677
-0.397076
-0.521748
-0.65318
-0.790406
-0.931841
-1.07507
-1.21665
-1.35185
-1.47462
-1.57774
-1.65327
-1.69349
-1.69204
-1.64522
-1.55282
-1.41832
-1.24811
-1.05014
-0.832387
-0.601757
-0.363565
-0.121568
0.0987303
0.292063
0.47359
0.637222
0.779092
0.897693
0.993552
1.06862
1.12555
1.16709
1.19557
1.21276
1.21988
1.21785
1.20747
1.18971
1.16578
1.13708
1.1051
1.07118
1.03634
1.00115
0.965765
0.929977
0.893412
0.85566
0.816366
0.775234
0.73195
0.68608
0.637012
0.583983
0.526151
0.462704
0.392941
0.316322
0.232452
0.141028
0.0417855
-0.0655516
-0.18127
-0.305626
-0.438772
-0.580644
-0.730848
-0.888512
-1.05209
-1.2191
-1.38581
-1.54688
-1.69518
-1.82185
-1.91682
-1.96997
-1.97276
-1.92006
-1.81151
-1.65187
-1.44985
-1.21608
-0.960868
-0.692713
-0.417662
-0.139506
0.11489
0.339419
0.548997
0.736095
0.896197
1.02792
1.1325
1.2129
1.27283
1.31588
1.34494
1.36199
1.36824
1.36445
1.35132
1.3298
1.30126
1.26743
1.23015
1.19111
1.15157
1.11218
1.073
1.03365
0.993545
0.952145
0.909035
0.863947
0.816615
0.766601
0.713204
0.655491
0.59242
0.522993
0.446382
0.361987
0.269412
0.168371
0.0585987
-0.0602217
-0.188473
-0.326554
-0.474785
-0.633278
-0.801819
-0.979712
-1.16556
-1.35697
-1.55006
-1.73902
-1.91566
-2.0693
-2.18734
-2.25663
-2.26575
-2.20758
-2.08149
-1.89394
-1.65681
-1.38424
-1.08945
-0.78274
-0.470767
-0.157037
0.132465
0.390752
0.630197
0.841562
1.01966
1.16343
1.27516
1.35916
1.42049
1.46382
1.49263
1.50907
1.51418
1.50843
1.49227
1.4666
1.43296
1.39346
1.35043
1.306
1.26171
1.21827
1.17561
1.13308
1.08983
1.0451
0.998452
0.949689
0.898662
0.84497
0.78781
0.726039
0.658362
0.583552
0.500634
0.408965
0.308181
0.19805
0.0783364
-0.0513106
-0.191385
-0.342462
-0.505072
-0.679548
-0.865905
-1.0637
-1.27183
-1.48812
-1.7088
-1.92775
-2.13581
-2.32034
-2.46573
-2.55509
-2.57314
-2.50999
-2.36452
-2.14549
-1.86906
-1.55402
-1.21724
-0.870956
-0.522259
-0.173941
0.151729
0.446807
0.718232
0.954721
1.15041
1.30486
1.42182
1.5074
1.56836
1.61065
1.63843
1.6539
1.65774
1.64995
1.63058
1.60036
1.56106
1.5153
1.46598
1.41581
1.3667
1.31944
1.27369
1.22843
1.18244
1.13471
1.08474
1.03252
0.978106
0.921194
0.86086
0.795686
0.724058
0.644463
0.555751
0.457261
0.348711
0.229976
0.100885
-0.0389324
-0.190099
-0.353409
-0.529646
-0.7194
-0.922957
-1.1402
-1.37043
-1.61192
-1.86123
-2.11226
-2.35502
-2.57486
-2.75268
-2.86687
-2.89712
-2.82961
-2.66237
-2.40725
-2.08629
-1.72443
-1.34295
-0.956207
-0.57136
-0.189945
0.172984
0.50841
0.814231
1.07673
1.28939
1.45279
1.57269
1.65748
1.71608
1.75597
1.78203
1.79633
1.79896
1.78921
1.7665
1.73134
1.68576
1.633
1.57676
1.52046
1.46648
1.41566
1.36732
1.31987
1.27159
1.22115
1.16802
1.11246
1.05492
0.995243
0.932351
0.864471
0.789577
0.705793
0.611764
0.506847
0.390914
0.264009
0.126076
-0.0232568
-0.184763
-0.359506
-0.548573
-0.752841
-0.972883
-1.20897
-1.46091
-1.72765
-2.00642
-2.29149
-2.5724
-2.83247
-3.04859
-3.19341
-3.23998
-3.16899
-2.97693
-2.67984
-2.30786
-1.89402
-1.46495
-1.03709
-0.617152
-0.204733
0.196569
0.576475
0.919428
1.20882
1.43752
1.6077
1.72781
1.80911
1.86311
1.89921
1.92298
1.93613
1.93784
1.92638
1.90033
1.85981
1.80721
1.74663
1.68271
1.61981
1.56092
1.50692
1.45657
1.40756
1.3575
1.30464
1.24841
1.18953
1.12904
1.06705
1.00226
0.932417
0.85498
0.767609
0.668697
0.557673
0.434665
0.299965
0.153691
-0.00450125
-0.175567
-0.360905
-0.561972
-0.779942
-1.01567
-1.26982
-1.54286
-1.8346
-2.14331
-2.46416
-2.78672
-3.0924
-3.35361
-3.53605
-3.60421
-3.53097
-3.3102
-2.96366
-2.53269
-2.06089
-1.58124
-1.11198
-0.658618
-0.217962
0.222864
0.652014
1.03517
1.35229
1.59573
1.77
1.88712
1.96182
2.00878
2.03967
2.06077
2.07306
2.07436
2.06168
2.03241
1.98607
1.92561
1.85624
1.78374
1.71367
1.64985
1.59314
1.54154
1.49171
1.44046
1.38543
1.32603
1.26368
1.20034
1.1365
1.07054
0.999539
0.920332
0.829988
0.726565
0.609665
0.47981
0.337622
0.183469
0.0170752
-0.162735
-0.357796
-0.570004
-0.800836
-1.05137
-1.32266
-1.61594
-1.93208
-2.27078
-2.62881
-2.99645
-3.35353
-3.66758
-3.89602
-3.9925
-3.91883
-3.66446
-3.25895
-2.75923
-2.2227
-1.6895
-1.1791
-0.694677
-0.229274
0.252296
0.736142
1.16293
1.50854
1.7649
1.93998
2.05043
2.11502
2.15224
2.17652
2.19482
2.20684
2.20852
2.19535
2.16312
2.11047
2.04115
1.96185
1.87973
1.80182
1.73306
1.67427
1.62234
1.57255
1.52076
1.46383
1.40101
1.33484
1.26866
1.20347
1.13713
1.06585
0.985707
0.89302
0.785389
0.662735
0.526171
0.376727
0.215112
0.0411784
-0.146521
-0.350387
-0.572868
-0.815722
-1.08014
-1.36751
-1.6799
-2.01946
-2.38768
-2.78376
-3.19973
-3.61437
-3.98995
-4.27437
-4.4078
-4.33647
-4.04231
-3.56569
-2.98538
-2.37656
-1.78714
-1.23656
-0.724242
-0.238318
0.285348
0.830083
1.3043
1.67906
1.94589
2.11782
2.21745
2.268
2.29248
2.3088
2.32449
2.33721
2.34034
2.32767
2.29295
2.23336
2.15398
2.06352
1.97053
1.88394
1.81026
1.75023
1.69909
1.65033
1.59876
1.54019
1.47351
1.4029
1.33375
1.26777
1.20198
1.13135
1.05119
0.956831
0.845194
0.716773
0.57355
0.417002
0.248285
0.0674835
-0.127193
-0.338899
-0.570789
-0.824859
-1.10222
-1.40449
-1.73465
-2.09624
-2.49287
-2.92724
-3.39444
-3.87303
-4.31977
-4.67189
-4.85337
-4.78853
-4.44679
-3.88353
-3.20838
-2.5191
-1.87131
-1.28246
-0.746272
-0.24477
0.322567
0.935163
1.461
1.86545
2.1395
2.30351
2.38778
2.41992
2.42835
2.43542
2.44913
2.46395
2.4698
2.45899
2.42247
2.35516
2.26428
2.16129
2.05596
1.95967
1.88114
1.82094
1.77197
1.72531
1.67486
1.61497
1.54369
1.46766
1.39532
1.32922
1.26504
1.19605
1.11688
1.02159
0.906013
0.771651
0.62174
0.458146
0.28262
0.0956393
-0.105026
-0.323549
-0.564005
-0.828558
-1.11796
-1.43381
-1.78021
-2.16209
-2.5853
-3.05734
-3.57818
-4.12728
-4.65563
-5.08892
-5.33271
-5.28069
-4.88148
-4.21167
-3.42469
-2.64644
-1.93907
-1.31496
-0.759839
-0.248353
0.364593
1.0528
1.63486
2.06948
2.34639
2.49684
2.56096
2.56989
2.55854
2.5552
2.56809
2.58692
2.59689
2.58964
2.55242
2.4763
2.37215
2.25524
2.13588
2.02859
1.94529
1.88634
1.84121
1.79776
1.74951
1.68874
1.61175
1.52886
1.45296
1.3876
1.3263
1.25994
1.18288
1.08752
0.967889
0.827204
0.670529
0.499852
0.31772
0.12527
-0.0802958
-0.304533
-0.552752
-0.827183
-1.12777
-1.45581
-1.81676
-2.21689
-2.66403
-3.17211
-3.74828
-4.37451
-4.9956
-5.52518
-5.84959
-5.81999
-5.35067
-4.54863
-3.62981
-2.75419
-1.98739
-1.33241
-0.764182
-0.248858
0.412191
1.18449
1.82776
2.29311
2.5671
2.69733
2.73655
2.71696
2.6816
2.6668
2.68079
2.70611
2.72154
2.71999
2.68373
2.5972
2.47761
2.34552
2.21012
2.09014
2.00223
1.94637
1.90711
1.86791
1.82315
1.76222
1.6779
1.58611
1.50617
1.4427
1.38578
1.32296
1.24931
1.15497
1.03087
0.88322
0.719717
0.541805
0.353151
0.155978
-0.0532702
-0.282011
-0.53725
-0.821139
-1.13219
-1.47089
-1.84462
-2.26079
-2.72829
-3.26955
-3.9019
-4.61185
-5.33725
-5.97947
-6.40788
-6.41521
-5.8595
-4.89196
-3.81814
-2.83756
-2.01339
-1.3334
-0.75877
-0.246155
0.466319
1.33176
2.04165
2.5386
2.80194
2.9041
2.91419
2.86021
2.79588
2.76876
2.78667
2.82173
2.84355
2.85039
2.8176
2.71829
2.58053
2.43241
2.27856
2.14371
2.05138
2.00104
1.97011
1.93591
1.89625
1.83635
1.7424
1.63892
1.55433
1.49429
1.44364
1.38502
1.31625
1.22438
1.09498
0.939409
0.769136
0.583699
0.388441
0.18734
-0.0242022
-0.256091
-0.517688
-0.810867
-1.13185
-1.47953
-1.86425
-2.29428
-2.77755
-3.34766
-4.03596
-4.83626
-5.67771
-6.44924
-7.01138
-7.0775
-6.41418
-5.23786
-3.98282
-2.89142
-2.0144
-1.31693
-0.743339
-0.240214
0.528241
1.49611
2.27839
2.80869
3.05087
3.11575
3.09375
2.99876
2.89952
2.85945
2.88534
2.93429
2.96248
2.98108
2.95568
2.83989
2.68052
2.51636
2.34113
2.1885
2.09204
2.05037
2.03086
2.00176
1.96922
1.9124
1.80552
1.68656
1.59668
1.54221
1.50016
1.44589
1.38375
1.29643
1.16026
0.995365
0.818688
0.625246
0.423071
0.21891
0.00667238
-0.226812
-0.494206
-0.79684
-1.12748
-1.48219
-1.87617
-2.31825
-2.81153
-3.40448
-4.14723
-5.04464
-6.01386
-6.93013
-7.66349
-7.82112
-7.02218
-5.58053
-4.11556
-2.9105
-1.98822
-1.28244
-0.717929
-0.2311
0.599707
1.67893
2.53961
3.10679
3.31344
3.33015
3.27554
3.13183
2.99046
2.93705
2.9765
3.0448
3.07754
3.11213
3.10021
2.96221
2.7768
2.59817
2.39784
2.22356
2.12333
2.09448
2.09027
2.0652
2.04235
1.99205
1.86756
1.7281
1.63227
1.58632
1.5559
1.50518
1.45177
1.37209
1.22665
1.0505
0.868392
0.666182
0.456461
0.250217
0.0391358
-0.194123
-0.466877
-0.779553
-1.11998
-1.47931
-1.88093
-2.3341
-2.83023
-3.4381
-4.23224
-5.23397
-6.34262
-7.41528
-8.36668
-8.66449
-7.69245
-5.91143
-4.20655
-2.88964
-1.93325
-1.22993
-0.682888
-0.21898
0.683245
1.88139
2.82652
3.43745
3.58854
3.5442
3.46065
3.25879
3.0663
2.99952
3.06002
3.15497
3.18733
3.24334
3.25437
3.08518
2.86801
2.67915
2.44878
2.24772
2.14423
2.13353
2.14972
2.12559
2.11575
2.0776
1.92879
1.76232
1.66001
1.62652
1.61176
1.56222
1.52013
1.45275
1.29402
1.10399
0.918464
0.706279
0.48795
0.280765
0.072985
-0.157869
-0.435695
-0.759512
-1.11041
-1.4712
-1.87895
-2.34383
-2.83399
-3.44671
-4.28729
-5.40151
-6.66156
-7.89454
-9.12177
-9.63153
-8.4357
-6.21824
-4.24452
-2.82412
-1.84869
-1.15996
-0.638868
-0.204109
0.782594
2.10425
3.13952
3.80682
3.8742
3.75343
3.65135
3.37911
3.12428
3.04453
3.1359
3.26756
3.28959
3.374
3.42263
3.20832
2.95196
2.76139
2.49411
2.25954
2.15348
2.16777
2.21123
2.18168
2.18922
2.1722
1.98938
1.78763
1.67859
1.6628
1.66919
1.6159
1.58843
1.54044
1.36207
1.15462
0.969432
0.745331
0.516772
0.310045
0.108023
-0.117769
-0.400557
-0.737215
-1.10013
-1.45802
-1.87046
-2.35021
-2.82342
-3.42858
-4.30829
-5.54485
-6.96968
-8.35351
-9.92679
-10.7535
-9.26457
-6.48344
-4.21684
-2.71001
-1.73468
-1.07366
-0.586791
-0.18682
0.903347
2.34765
3.47774
4.22346
4.16726
3.95152
3.8517
3.49233
3.16122
3.06949
3.20421
3.38682
3.38078
3.50274
3.61134
3.33052
3.02529
2.84815
2.53399
2.25726
2.14961
2.19742
2.27777
2.23139
2.26207
2.2802
2.04933
1.80204
1.6865
1.69514
1.73042
1.66449
1.65589
1.63807
1.43021
1.20068
1.02229
0.783149
0.542025
0.337545
0.144043
-0.0733962
-0.36126
-0.713115
-1.09082
-1.43965
-1.85523
-2.357
-2.79936
-3.38223
-4.29065
-5.66202
-7.26866
-8.77238
-10.7755
-12.0712
-10.1938
-6.68265
-4.11004
-2.54469
-1.59242
-0.97273
-0.527804
-0.167503
1.05386
2.61078
3.83833
4.69941
4.46294
4.12975
4.06838
3.59786
3.1734
3.07146
3.26489
3.5191
3.4556
3.62713
3.82944
3.44973
3.08304
2.94436
2.56851
2.23873
2.13087
2.22263
2.35367
2.27148
2.33294
2.40755
2.10825
1.8031
1.68208
1.72349
1.79877
1.70541
1.72128
1.7498
1.49747
1.23978
1.07871
0.819507
0.56263
0.362779
0.180801
-0.024156
-0.317494
-0.687567
-1.0847
-1.41563
-1.83233
-2.36924
-2.76276
-3.30642
-4.22901
-5.75133
-7.56451
-9.12464
-11.6556
-13.6381
-11.2404
-6.7824
-3.91052
-2.32733
-1.42423
-0.859313
-0.463215
-0.146586
1.24648
2.89152
4.21555
5.25159
4.75423
4.27615
4.31176
3.69471
3.15653
3.04722
3.31755
3.67369
3.50638
3.74336
4.08946
3.56258
3.11809
3.05734
2.59744
2.20139
2.09531
2.24326
2.4451
2.29713
2.39954
2.56236
2.16509
1.78784
1.66351
1.74761
1.87904
1.73488
1.78268
1.88145
1.56225
1.26864
1.14135
0.854076
0.577292
0.385325
0.217983
0.0307416
-0.268859
-0.660739
-1.08471
-1.38507
-1.7998
-2.39362
-2.7145
-3.20043
-4.11705
-5.81101
-7.8698
-9.37566
-12.5456
-15.5238
-12.4233
-6.73756
-3.6058
-2.05935
-1.23349
-0.735931
-0.394425
-0.124509
1.49924
3.18594
4.59955
5.9036
5.03122
4.37462
4.59726
3.78094
3.10572
2.99336
3.36097
3.86385
3.52225
3.84569
4.40869
3.66383
3.12059
3.19764
2.61993
2.14223
2.04078
2.25865
2.56085
2.30143
2.45832
2.75565
2.21779
1.75279
1.62894
1.76686
1.9781
1.74756
1.83725
2.04113
1.62211
1.28279
1.21419
0.886294
0.58446
0.404889
0.255144
0.0923159
-0.214895
-0.632486
-1.0947
-1.34659
-1.75423
-2.43901
-2.655
-3.06425
-3.94713
-5.83858
-8.20645
-9.48116
-13.4122
-17.8184
-13.7636
-6.48819
-3.18622
-1.74483
-1.02455
-0.605328
-0.322856
-0.101709
1.83792
3.48767
4.97486
6.688
5.28014
4.40377
4.94709
3.85296
3.01551
2.90637
3.3925
4.10813
3.48827
3.92583
4.81065
3.74574
3.07711
3.3802
2.63403
2.05783
1.96504
2.26716
2.7131
2.2748
2.50412
3.00218
2.26274
1.69404
1.57655
1.77988
2.10554
1.73605
1.88098
2.23984
1.67344
1.2763
1.30304
0.915194
0.582283
0.421385
0.291642
0.16186
-0.155137
-0.602162
-1.11979
-1.29828
-1.69015
-2.51709
-2.58383
-2.89901
-3.71007
-5.82972
-8.60918
-9.38566
-14.2058
-20.6382
-15.2833
-5.95596
-2.64745
-1.39075
-0.802485
-0.470328
-0.249883
-0.0785943
2.29878
3.7872
5.31848
7.64909
5.48224
4.33567
5.39232
3.90448
2.88001
2.78294
3.40713
4.43203
3.38429
3.97222
5.32683
3.79725
2.96981
3.62571
2.63599
1.94442
1.86595
2.26561
2.91854
2.20425
2.52971
3.3215
2.29407
1.60731
1.50482
1.78411
2.27446
1.69032
1.90832
2.49239
1.71105
1.24144
1.41604
0.939141
0.568586
0.435046
0.326536
0.241003
-0.0892142
-0.568382
-1.1667
-1.23763
-1.59946
-2.64315
-2.49898
-2.70748
-3.39491
-5.77663
-9.12972
-9.02095
-14.8557
-24.1316
-17.0051
-5.04009
-1.99352
-1.00696
-0.572821
-0.333679
-0.176778
-0.0555369
2.93169
4.07097
5.59765
8.84619
5.61242
4.13432
5.97539
3.92509
2.6931
2.62032
3.39637
4.86992
3.18376
3.96917
5.99872
3.80307
2.77548
3.96218
2.6194
1.79805
1.74166
2.24854
3.19962
2.07257
2.52529
3.73919
2.3028
1.48819
1.41268
1.77518
2.50253
1.59709
1.91182
2.81825
1.72768
1.16826
1.56442
0.955504
0.540858
0.446552
0.35847
0.331784
-0.0169862
-0.528704
-1.24414
-1.16162
-1.47057
-2.83714
-2.39605
-2.49472
-2.98878
-5.66581
-9.8415
-8.30473
-15.2644
-28.4862
-18.9508
-3.61292
-1.24083
-0.605812
-0.341146
-0.197923
-0.104665
-0.0328582
3.80399
4.32044
5.76726
10.3574
5.63764
3.75413
6.75294
3.89853
2.44883
2.41683
3.34666
5.46731
2.85229
3.89592
6.88007
3.74256
2.4644
4.42689
2.57399
1.6148
1.59102
2.2072
3.58605
1.85746
2.47796
4.28825
2.27577
1.33237
1.29989
1.74612
2.81309
1.4391
1.88171
3.24269
1.71349
1.04425
1.76316
0.960222
0.496268
0.457191
0.385514
0.436764
0.0612651
-0.479232
-1.36326
-1.06676
-1.28753
-3.12486
-2.26713
-2.26893
-2.477
-5.47511
-10.8451
-7.13949
-15.3013
-33.937
-21.1394
-1.51516
-0.422853
-0.201267
-0.112737
-0.0652793
-0.0344918
-0.0108251
)
;

boundaryField
{
    left
    {
        type            calculated;
        value           uniform 0;
    }
    right
    {
        type            calculated;
        value           uniform 0;
    }
    interface
    {
        type            calculated;
        value           nonuniform List<scalar> 
64
(
3.80399
4.32044
5.76726
10.3574
5.63764
3.75413
6.75294
3.89853
2.44883
2.41683
3.34666
5.46731
2.85229
3.89592
6.88007
3.74256
2.4644
4.42689
2.57399
1.6148
1.59102
2.2072
3.58605
1.85746
2.47796
4.28825
2.27577
1.33237
1.29989
1.74612
2.81309
1.4391
1.88171
3.24269
1.71349
1.04425
1.76316
0.960222
0.496268
0.457191
0.385514
0.436764
0.0612651
-0.479232
-1.36326
-1.06676
-1.28753
-3.12486
-2.26713
-2.26893
-2.477
-5.47511
-10.8451
-7.13949
-15.3013
-33.937
-21.1394
-1.51516
-0.422853
-0.201267
-0.112737
-0.0652793
-0.0344918
-0.0108251
)
;
    }
    bottom
    {
        type            calculated;
        value           nonuniform List<scalar> 
64
(
0.00630506
0.0187347
0.0306392
0.0417209
0.0517508
0.0605795
0.0681367
0.0744202
0.0794796
0.0833978
0.0862746
0.0882143
0.0893188
0.0896851
0.0894054
0.088569
0.0872627
0.0855701
0.0835688
0.0813275
0.0789018
0.0763325
0.0736444
0.0708477
0.0679402
0.0649097
0.0617367
0.0583957
0.0548558
0.0510812
0.0470315
0.0426631
0.0379308
0.0327902
0.0271992
0.0211204
0.0145216
0.00737639
-0.000334616
-0.00862315
-0.0174908
-0.0269252
-0.036895
-0.0473429
-0.0581772
-0.0692633
-0.0804141
-0.0913823
-0.101857
-0.111465
-0.119783
-0.12636
-0.130754
-0.13257
-0.131512
-0.127416
-0.120277
-0.110248
-0.0976158
-0.0827653
-0.0661298
-0.0481504
-0.029247
-0.00980742
)
;
    }
    defaultFaces
    {
        type            empty;
    }
}


// ************************************************************************* //
