/*--------------------------------*- C++ -*----------------------------------*\
| =========                 |                                                 |
| \\      /  F ield         | OpenFOAM: The Open Source CFD Toolbox           |
|  \\    /   O peration     | Version:  5.x                                   |
|   \\  /    A nd           | Web:      www.OpenFOAM.org                      |
|    \\/     M anipulation  |                                                 |
\*---------------------------------------------------------------------------*/
FoamFile
{
    version     2.0;
    format      ascii;
    class       volScalarField;
    location    "18";
    object      T;
}
// * * * * * * * * * * * * * * * * * * * * * * * * * * * * * * * * * * * * * //

dimensions      [0 0 0 1 0 0 0];

internalField   nonuniform List<scalar> 
2048
(
9.81021
9.8104
9.81079
9.81136
9.8121
9.81298
9.81399
9.81511
9.81632
9.81759
9.81892
9.82029
9.82168
9.82308
9.82448
9.82587
9.82725
9.8286
9.82992
9.83121
9.83246
9.83368
9.83485
9.83598
9.83706
9.8381
9.83909
9.84003
9.84092
9.84175
9.84251
9.84322
9.84385
9.8444
9.84487
9.84525
9.84553
9.8457
9.84576
9.84569
9.84549
9.84515
9.84465
9.84399
9.84317
9.84218
9.84101
9.83966
9.83815
9.83648
9.83467
9.83274
9.83072
9.82865
9.82658
9.82454
9.82259
9.82078
9.81915
9.81773
9.81656
9.81567
9.81506
9.81475
9.43876
9.43935
9.4405
9.4422
9.44438
9.44701
9.45001
9.45334
9.45692
9.46071
9.46465
9.4687
9.47282
9.47697
9.48113
9.48525
9.48932
9.49332
9.49723
9.50105
9.50475
9.50834
9.51181
9.51515
9.51835
9.52143
9.52435
9.52713
9.52975
9.53221
9.53448
9.53656
9.53843
9.54008
9.54147
9.5426
9.54344
9.54396
9.54413
9.54394
9.54335
9.54234
9.54088
9.53894
9.53651
9.53358
9.53012
9.52614
9.52166
9.51671
9.51133
9.5056
9.4996
9.49345
9.48728
9.48122
9.47543
9.47004
9.46518
9.46096
9.45749
9.45482
9.45301
9.4521
9.08311
9.08408
9.086
9.08881
9.09242
9.09676
9.10172
9.10719
9.11309
9.11932
9.1258
9.13245
9.1392
9.14601
9.15281
9.15956
9.16622
9.17277
9.17917
9.1854
9.19146
9.19732
9.20299
9.20844
9.21369
9.21871
9.2235
9.22804
9.23233
9.23634
9.24007
9.24348
9.24655
9.24925
9.25155
9.25341
9.25479
9.25566
9.25598
9.25568
9.25475
9.25311
9.25075
9.24761
9.24365
9.23886
9.23322
9.22671
9.21937
9.21124
9.2024
9.19297
9.18308
9.17293
9.16273
9.15272
9.14314
9.13423
9.1262
9.11924
9.1135
9.1091
9.10613
9.10463
8.74235
8.74371
8.74639
8.75031
8.75536
8.7614
8.76829
8.77589
8.78407
8.79269
8.80164
8.81082
8.82014
8.82952
8.83888
8.84818
8.85734
8.86634
8.87513
8.88369
8.892
8.90005
8.90782
8.9153
8.9225
8.92939
8.93596
8.94221
8.9481
8.95362
8.95875
8.96344
8.96768
8.97141
8.9746
8.97719
8.97913
8.98037
8.98084
8.98048
8.97924
8.97705
8.97384
8.96957
8.96418
8.95763
8.94989
8.94096
8.93085
8.91963
8.9074
8.89432
8.88058
8.86646
8.85225
8.83829
8.82493
8.8125
8.8013
8.79161
8.78363
8.77752
8.77339
8.77131
8.41562
8.41738
8.42085
8.4259
8.4324
8.44016
8.449
8.45872
8.46915
8.48013
8.49151
8.50317
8.51499
8.52688
8.53873
8.55049
8.56208
8.57344
8.58453
8.59533
8.60581
8.61594
8.62574
8.63517
8.64424
8.65292
8.66121
8.66909
8.67653
8.68351
8.69
8.69595
8.70133
8.70608
8.71015
8.71347
8.71597
8.71759
8.71825
8.71788
8.71638
8.71369
8.70973
8.70441
8.69767
8.68945
8.67971
8.66844
8.65565
8.64141
8.62584
8.60914
8.59156
8.57345
8.55519
8.53724
8.52004
8.50405
8.48967
8.47723
8.467
8.45919
8.45391
8.45125
8.10216
8.10434
8.10862
8.11485
8.12284
8.13236
8.14316
8.15501
8.16769
8.18101
8.19479
8.20888
8.22315
8.23748
8.25177
8.26592
8.27985
8.2935
8.30682
8.31977
8.33232
8.34447
8.3562
8.3675
8.37836
8.38878
8.39872
8.40817
8.41711
8.4255
8.43331
8.44049
8.44699
8.45274
8.45769
8.46175
8.46484
8.46687
8.46776
8.4674
8.46571
8.46259
8.45794
8.45166
8.44367
8.43388
8.42224
8.40872
8.39332
8.37612
8.35726
8.33694
8.31549
8.29333
8.27095
8.24891
8.2278
8.20817
8.19054
8.17532
8.16283
8.1533
8.14688
8.14365
7.80127
7.80388
7.80902
7.81648
7.82601
7.83733
7.85014
7.86414
7.87908
7.89472
7.91088
7.92737
7.94404
7.96077
7.97743
7.99391
8.01012
8.02598
8.04144
8.05646
8.07101
8.08509
8.09867
8.11177
8.12436
8.13643
8.14797
8.15894
8.16932
8.17909
8.18818
8.19656
8.20416
8.21092
8.21674
8.22155
8.22524
8.22771
8.22887
8.22859
8.22677
8.22328
8.21803
8.21087
8.20172
8.19046
8.17702
8.16134
8.14342
8.12332
8.10118
8.07724
8.05187
8.02558
7.99895
7.9727
7.94754
7.92417
7.90322
7.88517
7.8704
7.85916
7.8516
7.8478
7.51226
7.51535
7.52139
7.53015
7.5413
7.55449
7.56935
7.58554
7.60275
7.62072
7.63922
7.65808
7.67712
7.6962
7.71518
7.73393
7.75236
7.77036
7.78789
7.8049
7.82136
7.83728
7.85265
7.86746
7.88171
7.89538
7.90845
7.92089
7.93268
7.94377
7.95412
7.96367
7.97237
7.98012
7.98683
7.99239
7.99671
7.99966
8.00112
8.00096
7.99907
7.9953
7.98952
7.98159
7.97137
7.95875
7.94361
7.92587
7.90551
7.88256
7.85717
7.82959
7.80024
7.76969
7.73868
7.70804
7.67867
7.65143
7.62705
7.60612
7.58905
7.5761
7.5674
7.56304
7.23453
7.23812
7.24514
7.25528
7.26814
7.28328
7.30026
7.31867
7.33817
7.35845
7.37929
7.40048
7.42185
7.44324
7.46449
7.48547
7.50605
7.52613
7.54565
7.56457
7.58288
7.60056
7.61763
7.63409
7.64993
7.66514
7.67969
7.69355
7.70669
7.71907
7.73064
7.74135
7.75113
7.75987
7.76747
7.77382
7.77878
7.78224
7.78404
7.78407
7.78216
7.77818
7.77196
7.76334
7.75217
7.73828
7.72155
7.70186
7.67914
7.65342
7.6248
7.59355
7.56013
7.5252
7.48961
7.4544
7.42063
7.38935
7.36144
7.33757
7.31818
7.30353
7.29372
7.28882
6.9675
6.97164
6.97971
6.99133
7.00601
7.02319
7.04236
7.06304
7.08484
7.10743
7.13058
7.15408
7.17774
7.20139
7.22488
7.24803
7.27071
7.29281
7.31425
7.33501
7.35507
7.37444
7.39314
7.41118
7.42855
7.44523
7.46121
7.47643
7.49088
7.50452
7.51729
7.52914
7.53998
7.54971
7.55821
7.56536
7.57099
7.57499
7.57718
7.57743
7.57558
7.57145
7.56488
7.55567
7.54364
7.52861
7.5104
7.48887
7.4639
7.43547
7.40366
7.36872
7.33114
7.29167
7.2513
7.21126
7.17286
7.13737
7.10581
7.07896
7.05725
7.04092
7.03003
7.0246
6.71061
6.71535
6.72457
6.73779
6.75441
6.77374
6.79518
6.81818
6.84229
6.86719
6.89262
6.91839
6.94431
6.97019
6.99587
7.02115
7.04588
7.06993
7.09323
7.11574
7.13748
7.15845
7.17871
7.19826
7.2171
7.23521
7.25256
7.26911
7.28482
7.29967
7.31361
7.32657
7.33847
7.3492
7.35861
7.36657
7.3729
7.37746
7.38009
7.38062
7.37887
7.37468
7.36783
7.35812
7.34535
7.32928
7.30972
7.28646
7.25934
7.22829
7.19334
7.1547
7.11287
7.06868
7.02328
6.97814
6.93486
6.89494
6.85963
6.82975
6.80574
6.78778
6.77586
6.76992
6.46335
6.46876
6.47924
6.4942
6.51289
6.53449
6.55829
6.58364
6.61008
6.63727
6.66496
6.69296
6.72109
6.74917
6.777
6.80438
6.83111
6.85706
6.88214
6.90633
6.92965
6.95216
6.97389
6.99489
7.01514
7.03462
7.0533
7.07113
7.08806
7.10409
7.11917
7.13323
7.14618
7.1579
7.16824
7.17702
7.18408
7.18924
7.19233
7.19318
7.1916
7.1874
7.18036
7.17026
7.15684
7.13986
7.11906
7.0942
7.06507
7.0315
6.99346
6.95111
6.90495
6.85585
6.80515
6.7546
6.70612
6.66157
6.62238
6.58945
6.56319
6.54367
6.53078
6.52438
6.22524
6.23138
6.24325
6.26011
6.28103
6.30503
6.33127
6.35903
6.3878
6.41725
6.44715
6.47734
6.50766
6.5379
6.56786
6.59729
6.62597
6.65376
6.68056
6.70635
6.73118
6.75512
6.77827
6.80064
6.82225
6.84306
6.86302
6.88208
6.9002
6.91736
6.93354
6.94868
6.96268
6.9754
6.98667
6.99629
7.00409
7.00988
7.01347
7.01468
7.01333
7.00919
7.00205
6.99163
6.97768
6.95989
6.93799
6.91168
6.88066
6.8447
6.80366
6.75762
6.70702
6.65281
6.59652
6.54018
6.48618
6.43674
6.39356
6.35759
6.32916
6.30818
6.29441
6.2876
5.9958
6.00276
6.01617
6.03511
6.05843
6.08498
6.11374
6.14395
6.17505
6.20672
6.23879
6.27112
6.30357
6.33595
6.368
6.39946
6.43007
6.45964
6.48807
6.51538
6.54163
6.56694
6.59141
6.61511
6.63803
6.66012
6.68132
6.70156
6.72081
6.73907
6.75633
6.77253
6.78756
6.80129
6.8135
6.82399
6.83255
6.83899
6.8431
6.84472
6.84364
6.83963
6.83246
6.82182
6.80743
6.78897
6.7661
6.73847
6.70572
6.66751
6.62357
6.57387
6.51877
6.45925
6.39702
6.33449
6.27456
6.21997
6.17271
6.13375
6.10326
6.08095
6.06641
6.05924
5.77459
5.78248
5.7976
5.81882
5.84474
5.87397
5.90536
5.93805
5.97146
6.0053
6.03947
6.07389
6.10844
6.14291
6.17704
6.21051
6.24299
6.27429
6.3043
6.33303
6.36061
6.38719
6.41293
6.43789
6.46207
6.48541
6.50782
6.5292
6.54953
6.56884
6.58714
6.60438
6.62045
6.63518
6.64835
6.65972
6.66906
6.67617
6.68084
6.68289
6.68212
6.67831
6.67117
6.66041
6.64568
6.62665
6.60295
6.57416
6.53984
6.49954
6.45285
6.39955
6.3399
6.27486
6.20632
6.13712
6.07081
6.0108
5.95938
5.9175
5.88511
5.86166
5.84647
5.83902
5.5612
5.57011
5.58714
5.61087
5.63961
5.67168
5.70579
5.74098
5.77666
5.81262
5.84881
5.88526
5.92185
5.95839
5.99459
6.03005
6.06438
6.09736
6.12887
6.15894
6.18774
6.21551
6.24244
6.26861
6.29401
6.31857
6.34214
6.36461
6.38598
6.40629
6.4256
6.44386
6.46095
6.47671
6.49085
6.50312
6.51325
6.52104
6.52628
6.5288
6.52839
6.52483
6.5178
6.50699
6.49203
6.47254
6.44814
6.41834
6.38263
6.34043
6.29115
6.23436
6.17012
6.09936
6.02412
5.9477
5.87448
5.80873
5.75312
5.70847
5.6744
5.64999
5.63432
5.62667
5.35521
5.36529
5.38443
5.41094
5.44272
5.4778
5.51471
5.55242
5.59033
5.62831
5.66644
5.70484
5.74344
5.78202
5.82028
5.85772
5.89388
5.92848
5.96142
5.99273
6.02266
6.05152
6.07956
6.10689
6.13348
6.15923
6.18395
6.20747
6.22981
6.25107
6.27135
6.29061
6.30873
6.32551
6.34065
6.35382
6.36476
6.37325
6.37908
6.38208
6.38207
6.3788
6.37196
6.36118
6.34607
6.32624
6.30126
6.27061
6.2337
6.18982
6.13815
6.078
6.00918
5.93251
5.85015
5.76586
5.68513
5.61332
5.55351
5.5063
5.47081
5.4457
5.42972
5.42196
5.15623
5.16762
5.18913
5.21871
5.2538
5.29204
5.33183
5.37207
5.41214
5.45202
5.49199
5.53227
5.57283
5.61343
5.65375
5.69319
5.73114
5.76732
5.80161
5.83407
5.86501
5.89486
5.92396
5.95239
5.98014
6.00707
6.03291
6.05743
6.08069
6.10284
6.12405
6.14429
6.16342
6.18125
6.19741
6.2115
6.22326
6.23245
6.23888
6.24238
6.24279
6.23987
6.23327
6.2226
6.20743
6.18735
6.16193
6.13058
6.09265
6.04733
5.99352
5.9302
5.85682
5.77408
5.68416
5.59128
5.50229
5.42408
5.36014
5.31064
5.27407
5.24854
5.23243
5.22466
4.9639
4.97678
5.00091
5.03389
5.07257
5.11412
5.15686
5.19963
5.24177
5.28343
5.3251
5.36721
5.40967
5.45226
5.49467
5.53612
5.57583
5.61355
5.64913
5.68261
5.71445
5.74518
5.77527
5.80478
5.83364
5.86175
5.88871
5.91419
5.93828
5.96126
5.98336
6.00456
6.02471
6.0436
6.0608
6.07582
6.0884
6.09831
6.10533
6.10935
6.11021
6.10768
6.10139
6.09089
6.07573
6.05551
6.02977
5.99787
5.95912
5.91261
5.85694
5.79067
5.71282
5.62388
5.52596
5.42364
5.32549
5.24053
5.17262
5.12121
5.08394
5.05829
5.04227
5.03458
4.77784
4.79242
4.81946
4.85622
4.89879
4.94378
4.98955
5.03485
5.07893
5.12222
5.16545
5.2093
5.25363
5.29816
5.3427
5.38621
5.42765
5.46685
5.50366
5.53806
5.57065
5.60216
5.63319
5.66373
5.69368
5.72299
5.75107
5.77744
5.80229
5.82601
5.84898
5.87112
5.89226
5.91226
5.93053
5.94648
5.95988
5.97051
5.97812
5.98265
5.98398
5.98189
5.97598
5.96572
5.95064
5.93035
5.9044
5.87209
5.8327
5.78529
5.72809
5.65917
5.57696
5.48174
5.37542
5.26263
5.15425
5.06219
4.99056
4.93772
4.90021
4.87477
4.85905
4.85155
4.59772
4.61423
4.64448
4.68543
4.73225
4.78077
4.82962
4.87745
4.92333
4.96806
5.01269
5.05823
5.10438
5.15081
5.19754
5.24317
5.28629
5.32694
5.36492
5.4001
5.43331
5.46547
5.49739
5.52894
5.55994
5.59048
5.61971
5.6469
5.67241
5.69679
5.7206
5.74367
5.76579
5.78692
5.8063
5.82317
5.83741
5.84876
5.85695
5.86198
5.86379
5.86219
5.8567
5.84674
5.8318
5.81151
5.78548
5.75288
5.71303
5.66502
5.60664
5.53542
5.449
5.34749
5.23243
5.108
4.98802
4.88856
4.81363
4.75995
4.72268
4.69781
4.6826
4.67538
4.4232
4.44194
4.47567
4.5213
4.57275
4.62485
4.67682
4.72721
4.77469
4.82066
4.86647
4.91368
4.96162
5.00985
5.05888
5.10673
5.15145
5.19351
5.23264
5.26844
5.30213
5.33479
5.36758
5.40011
5.43212
5.46394
5.49437
5.5223
5.54837
5.57331
5.59794
5.62193
5.64498
5.6673
5.68786
5.70563
5.72069
5.73277
5.7415
5.74703
5.74932
5.74825
5.74326
5.73366
5.7189
5.69867
5.67267
5.63989
5.59973
5.55144
5.49229
5.41918
5.32872
5.22098
5.097
4.95952
4.82623
4.71913
4.6415
4.58767
4.5512
4.52726
4.51276
4.50592
4.25394
4.27529
4.31273
4.36362
4.42015
4.47576
4.53091
4.58391
4.63275
4.67973
4.72648
4.77535
4.82507
4.87496
4.92643
4.97666
5.02284
5.06628
5.10656
5.14281
5.1768
5.20981
5.24348
5.27699
5.3099
5.34311
5.37483
5.40338
5.4299
5.45526
5.48073
5.50563
5.52955
5.55313
5.57495
5.59357
5.60945
5.62227
5.63152
5.63752
5.64029
5.6398
5.63536
5.62619
5.61162
5.59149
5.56565
5.53277
5.4924
5.44421
5.38469
5.31023
5.2159
5.10205
4.96919
4.817
4.66821
4.55338
4.47389
4.42074
4.38563
4.36297
4.34938
4.34301
4.08961
4.11407
4.15537
4.21218
4.27433
4.33325
4.39163
4.44735
4.49722
4.54499
4.59237
4.64298
4.69448
4.74578
4.79991
4.85274
4.90017
4.94499
4.98647
5.02293
5.05708
5.09023
5.12482
5.15933
5.193
5.22774
5.26088
5.28991
5.31674
5.34236
5.36871
5.39453
5.4192
5.44416
5.46734
5.48673
5.50342
5.51702
5.52672
5.53317
5.5364
5.53655
5.53272
5.52403
5.50969
5.48965
5.46412
5.4312
5.39068
5.34297
5.28354
5.20833
5.11026
4.99053
4.84921
4.68032
4.51316
4.3908
4.31056
4.25903
4.22587
4.20482
4.19232
4.18648
3.92989
3.95812
4.00325
4.06679
4.13523
4.19702
4.25872
4.31739
4.36785
4.41617
4.46377
4.51631
4.56961
4.62196
4.67907
4.73481
4.78315
4.82935
4.87216
4.90854
4.9427
4.97571
5.01137
5.04689
5.0811
5.11758
5.15235
5.18162
5.20867
5.23433
5.26164
5.2884
5.31365
5.34015
5.36484
5.38484
5.40237
5.41679
5.42684
5.43373
5.43739
5.43823
5.43509
5.42694
5.41281
5.39285
5.36782
5.33488
5.29416
5.2474
5.18847
5.11331
5.01153
4.88617
4.73739
4.54943
4.36017
4.23088
4.15134
4.10244
4.07181
4.05267
4.04142
4.03618
3.77442
3.80735
3.856
3.9273
4.00286
4.06676
4.13191
4.1939
4.24435
4.29307
4.34033
4.3951
4.4503
4.50308
4.56365
4.62275
4.67145
4.7191
4.76346
4.79936
4.83343
4.86595
4.90288
4.93951
4.97387
5.01241
5.0491
5.07829
5.10545
5.13086
5.15931
5.18707
5.2126
5.24086
5.26728
5.28766
5.30603
5.32137
5.33164
5.33895
5.34297
5.3446
5.34222
5.33468
5.32073
5.30078
5.27649
5.24352
5.20245
5.15718
5.09913
5.02503
4.9194
4.78863
4.63425
4.4244
4.20806
4.07314
3.99611
3.95093
3.92338
3.90643
3.89653
3.89195
3.62283
3.66178
3.71319
3.79352
3.8773
3.94209
4.01093
4.07683
4.12639
4.17547
4.22162
4.27915
4.33642
4.38872
4.4534
4.51652
4.56473
4.61396
4.66028
4.69513
4.72907
4.76061
4.79917
4.83702
4.87096
4.912
4.95103
4.97966
5.0069
5.03165
5.06151
5.09037
5.11573
5.14607
5.17452
5.19489
5.21417
5.23056
5.24086
5.2486
5.2529
5.25541
5.25386
5.24701
5.23321
5.21312
5.18993
5.15687
5.11513
5.07204
5.01511
4.94339
4.83352
4.69745
4.54053
4.3054
4.05541
3.91717
3.84486
3.80449
3.78051
3.76595
3.75751
3.75362
3.47473
3.52158
3.57429
3.66532
3.75878
3.82254
3.89548
3.96621
4.01364
4.06326
4.10718
4.16829
4.22793
4.27836
4.3481
4.41613
4.4626
4.51365
4.56253
4.59552
4.62947
4.6593
4.70005
4.73933
4.77197
4.81615
4.85809
4.88545
4.91286
4.93636
4.96808
4.99817
5.02269
5.05559
5.08647
5.10628
5.12656
5.14422
5.15426
5.16249
5.16691
5.17046
5.16979
5.16374
5.15003
5.12953
5.10795
5.07472
5.03173
4.99175
4.93597
4.8684
4.75352
4.61195
4.45723
4.19282
3.9004
3.7627
3.69765
3.66313
3.64312
3.63112
3.62421
3.62103
3.32964
3.38708
3.43863
3.54254
3.64763
3.70754
3.78525
3.86214
3.90565
3.95638
3.99648
4.06239
4.12486
4.1714
4.24754
4.32173
4.36459
4.41789
4.47022
4.50021
4.53453
4.56161
4.60538
4.6464
4.67647
4.72465
4.77029
4.79536
4.82322
4.84463
4.87885
4.91043
4.9331
4.96921
5.00309
5.0215
5.04298
5.06222
5.07158
5.08042
5.08474
5.08953
5.0898
5.08468
5.07098
5.04969
5.03041
4.99687
4.95175
4.91613
4.86116
4.80019
4.67898
4.53115
4.38568
4.08722
3.74074
3.60962
3.55461
3.52689
3.51115
3.50181
3.49645
3.494
3.18701
3.25885
3.30536
3.42505
3.5444
3.59637
3.67989
3.76488
3.8019
3.85488
3.88887
3.96136
4.02737
4.06712
4.1515
4.23358
4.27017
4.32639
4.38347
4.40876
4.44423
4.46707
4.51503
4.55828
4.58391
4.63733
4.68771
4.70902
4.73794
4.75604
4.79369
4.82712
4.84652
4.88676
4.9244
4.94023
4.9632
4.98448
4.99255
5.00225
5.00614
5.01245
5.01367
5.00966
4.99591
4.9732
4.95724
4.92322
4.87464
4.84513
4.79003
4.73904
4.60951
4.45373
4.3276
3.98949
3.57349
3.45808
3.41599
3.39578
3.38452
3.37788
3.37409
3.37236
3.04618
3.1378
3.1734
3.31272
3.44984
3.48811
3.57904
3.67484
3.7017
3.759
3.78359
3.86514
3.93577
3.96463
4.05981
4.15209
4.17865
4.23883
4.30247
4.32068
4.35866
4.37511
4.42893
4.4751
4.4937
4.55401
4.61054
4.62597
4.65705
4.67012
4.71252
4.74833
4.76243
4.80807
4.8505
4.86206
4.88701
4.91095
4.91687
4.92785
4.93083
4.93905
4.9412
4.93852
4.92467
4.89964
4.88837
4.85369
4.79971
4.77881
4.72175
4.68541
4.5447
4.37786
4.28517
3.90085
3.39498
3.30864
3.28207
3.26986
3.26314
3.2592
3.25696
3.25593
2.90633
3.02521
3.04135
3.20543
3.36501
3.38161
3.48233
3.59264
3.60416
3.66916
3.67969
3.77375
3.85054
3.86288
3.97229
4.07788
4.08924
4.1549
4.22758
4.23533
4.27804
4.28505
4.34702
4.39712
4.40507
4.47455
4.53907
4.54567
4.58071
4.58629
4.63528
4.6742
4.68025
4.73301
4.78158
4.78655
4.81421
4.84165
4.84422
4.85716
4.85851
4.86921
4.87216
4.87112
4.85718
4.82852
4.82385
4.78828
4.72619
4.71744
4.65529
4.64003
4.48419
4.30112
4.26108
3.82296
3.20055
3.16235
3.1532
3.14914
3.14691
3.14561
3.14487
3.14454
)
;

boundaryField
{
    left
    {
        type            zeroGradient;
    }
    right
    {
        type            zeroGradient;
    }
    interface
    {
        type            fixedValue;
        value           nonuniform List<scalar> 
64
(
2.83483
2.97288
2.97288
3.15311
3.32733
3.32733
3.43481
3.55507
3.55507
3.6267
3.6267
3.72953
3.81058
3.81058
3.92961
4.04411
4.04411
4.1137
4.19271
4.19271
4.2396
4.2396
4.30729
4.36009
4.36009
4.43585
4.50571
4.50571
4.54421
4.54421
4.59779
4.63884
4.63884
4.69643
4.74906
4.74906
4.77865
4.80844
4.80844
4.82291
4.82291
4.83528
4.83853
4.83853
4.82459
4.79312
4.79312
4.75702
4.68885
4.68885
4.62157
4.62157
4.45534
4.25983
4.25983
3.78975
3.09008
3.09008
3.09008
3.09008
3.09008
3.09008
3.09008
3.09008
)
;
    }
    bottom
    {
        type            fixedValue;
        value           uniform 10;
    }
    defaultFaces
    {
        type            empty;
    }
}


// ************************************************************************* //
