/*--------------------------------*- C++ -*----------------------------------*\
| =========                 |                                                 |
| \\      /  F ield         | OpenFOAM: The Open Source CFD Toolbox           |
|  \\    /   O peration     | Version:  5.x                                   |
|   \\  /    A nd           | Web:      www.OpenFOAM.org                      |
|    \\/     M anipulation  |                                                 |
\*---------------------------------------------------------------------------*/
FoamFile
{
    version     2.0;
    format      ascii;
    class       volScalarField;
    location    "2.5";
    object      gradTy;
}
// * * * * * * * * * * * * * * * * * * * * * * * * * * * * * * * * * * * * * //

dimensions      [0 -1 0 1 0 0 0];

internalField   nonuniform List<scalar> 
2048
(
-26.4246
-26.397
-26.3427
-26.2631
-26.1603
-26.0369
-25.8957
-25.7395
-25.571
-25.3929
-25.2075
-25.017
-24.8232
-24.628
-24.4328
-24.2389
-24.0474
-23.8592
-23.6752
-23.4959
-23.3216
-23.1529
-22.9899
-22.8329
-22.682
-22.5377
-22.4
-22.2695
-22.1463
-22.0311
-21.9244
-21.8268
-21.739
-21.6619
-21.5964
-21.5436
-21.5045
-21.4804
-21.4724
-21.4817
-21.5097
-21.5576
-21.6266
-21.7178
-21.8323
-21.9708
-22.1336
-22.3207
-22.5314
-22.7644
-23.0172
-23.2867
-23.5685
-23.8575
-24.1475
-24.4319
-24.7041
-24.9574
-25.1857
-25.3837
-25.547
-25.6723
-25.7572
-25.8
-26.4469
-26.4187
-26.3631
-26.2818
-26.177
-26.0514
-25.9079
-25.7494
-25.5788
-25.3988
-25.2116
-25.0195
-24.8244
-24.628
-24.4317
-24.2369
-24.0447
-23.8559
-23.6714
-23.4917
-23.3172
-23.1482
-22.9851
-22.8278
-22.6768
-22.5322
-22.3943
-22.2634
-22.1399
-22.0243
-21.917
-21.8188
-21.7303
-21.6525
-21.5862
-21.5325
-21.4925
-21.4673
-21.4583
-21.4666
-21.4936
-21.5405
-21.6086
-21.699
-21.8129
-21.951
-22.1139
-22.3015
-22.5134
-22.7482
-23.0038
-23.2767
-23.5628
-23.8566
-24.1519
-24.4418
-24.7194
-24.9776
-25.2102
-25.4117
-25.5778
-25.7051
-25.7912
-25.8346
-26.4896
-26.4601
-26.4021
-26.3174
-26.2086
-26.0787
-25.9308
-25.7681
-25.5935
-25.4098
-25.2193
-25.0243
-24.8266
-24.6279
-24.4296
-24.2331
-24.0394
-23.8495
-23.6641
-23.4838
-23.3088
-23.1394
-22.9759
-22.8183
-22.667
-22.5219
-22.3835
-22.252
-22.1278
-22.0113
-21.9031
-21.8037
-21.714
-21.6347
-21.5668
-21.5114
-21.4696
-21.4426
-21.4317
-21.438
-21.463
-21.5081
-21.5744
-21.6633
-21.776
-21.9134
-22.0763
-22.2649
-22.4789
-22.7171
-22.9777
-23.2572
-23.5514
-23.8546
-24.1602
-24.4607
-24.7485
-25.0162
-25.257
-25.4653
-25.6366
-25.7675
-25.856
-25.9005
-26.5508
-26.5195
-26.4578
-26.3682
-26.2536
-26.1173
-25.963
-25.7941
-25.6138
-25.425
-25.2299
-25.0307
-24.8294
-24.6274
-24.4263
-24.2274
-24.0318
-23.8403
-23.6537
-23.4725
-23.2968
-23.1269
-22.963
-22.805
-22.6531
-22.5075
-22.3684
-22.2361
-22.1109
-21.9932
-21.8836
-21.7827
-21.6911
-21.6098
-21.5397
-21.4819
-21.4376
-21.4079
-21.3942
-21.3978
-21.42
-21.4623
-21.526
-21.6127
-21.7235
-21.8598
-22.0225
-22.2123
-22.429
-22.672
-22.9395
-23.2285
-23.5343
-23.8511
-24.1716
-24.4876
-24.7904
-25.0717
-25.3244
-25.5422
-25.7207
-25.8567
-25.9483
-25.9943
-26.6292
-26.5953
-26.5289
-26.4326
-26.3102
-26.1656
-26.003
-25.8263
-25.6388
-25.4434
-25.2425
-25.0383
-24.8324
-24.6264
-24.4219
-24.22
-24.0218
-23.8284
-23.6404
-23.4581
-23.2817
-23.1113
-22.9468
-22.7883
-22.6359
-22.4896
-22.3496
-22.2163
-22.0899
-21.9708
-21.8595
-21.7566
-21.6627
-21.5788
-21.5059
-21.4451
-21.3976
-21.3646
-21.3474
-21.3475
-21.3661
-21.4049
-21.4653
-21.5489
-21.6572
-21.7919
-21.954
-22.1448
-22.3647
-22.6134
-22.8895
-23.1903
-23.511
-23.8455
-24.1854
-24.5215
-24.8439
-25.143
-25.4107
-25.6405
-25.8279
-25.97
-26.0653
-26.1131
-26.7238
-26.6866
-26.614
-26.5094
-26.3772
-26.2223
-26.0495
-25.8632
-25.6671
-25.4642
-25.2566
-25.0465
-24.8353
-24.6247
-24.416
-24.2106
-24.0096
-23.814
-23.6243
-23.4409
-23.2638
-23.0928
-22.9279
-22.7689
-22.6158
-22.4687
-22.3278
-22.1934
-22.0656
-21.9449
-21.8316
-21.7263
-21.6298
-21.5429
-21.4666
-21.4022
-21.3509
-21.3139
-21.2927
-21.2885
-21.303
-21.3375
-21.3938
-21.4736
-21.5787
-21.7109
-21.872
-22.0635
-22.2865
-22.5415
-22.8275
-23.1421
-23.4809
-23.8369
-24.2008
-24.5619
-24.9084
-25.2293
-25.5152
-25.7591
-25.9566
-26.1055
-26.2048
-26.2544
-26.8339
-26.7926
-26.7123
-26.5973
-26.4532
-26.2859
-26.1011
-25.9038
-25.6979
-25.4864
-25.2715
-25.0549
-24.8379
-24.622
-24.4087
-24.1993
-23.9951
-23.797
-23.6056
-23.4211
-23.2433
-23.072
-22.9067
-22.7472
-22.5935
-22.4455
-22.3036
-22.1679
-22.0386
-21.9161
-21.8006
-21.6928
-21.5932
-21.5028
-21.4227
-21.3542
-21.2986
-21.2572
-21.2313
-21.2224
-21.2319
-21.2615
-21.3129
-21.3881
-21.4891
-21.6182
-21.7774
-21.9691
-22.1949
-22.4563
-22.753
-23.0834
-23.443
-23.8244
-24.2171
-24.6082
-24.9837
-25.3303
-25.6372
-25.8969
-26.1054
-26.2612
-26.3644
-26.4157
-26.9591
-26.9128
-26.8231
-26.6955
-26.5371
-26.3552
-26.1565
-25.9468
-25.7301
-25.5094
-25.2866
-25.063
-24.8398
-24.6182
-24.3998
-24.186
-23.9783
-23.7776
-23.5844
-23.3989
-23.2207
-23.0491
-22.8836
-22.7237
-22.5693
-22.4204
-22.2774
-22.1403
-22.0095
-21.8851
-21.7674
-21.6567
-21.5537
-21.4595
-21.3752
-21.3021
-21.2417
-21.1953
-21.1643
-21.1501
-21.1542
-21.1782
-21.2241
-21.2939
-21.39
-21.5149
-21.6713
-21.8622
-22.0902
-22.3577
-22.6656
-23.0131
-23.3963
-23.807
-24.2335
-24.66
-25.0696
-25.446
-25.7766
-26.0535
-26.2732
-26.4355
-26.5421
-26.5947
-27.0993
-27.0468
-26.9457
-26.8031
-26.6278
-26.4289
-26.2144
-25.9909
-25.7627
-25.5324
-25.3014
-25.0706
-24.8409
-24.6132
-24.3893
-24.1707
-23.9591
-23.7556
-23.5608
-23.3745
-23.1961
-23.0246
-22.859
-22.6988
-22.5437
-22.3939
-22.2496
-22.1113
-21.9789
-21.8526
-21.7324
-21.6187
-21.5121
-21.4136
-21.3247
-21.2467
-21.1811
-21.1294
-21.0929
-21.0729
-21.071
-21.0889
-21.1285
-21.1921
-21.2823
-21.4021
-21.5546
-21.7436
-21.9727
-22.2455
-22.5645
-22.9303
-23.3393
-23.7836
-24.249
-24.717
-25.1663
-25.5769
-25.9337
-26.2285
-26.4589
-26.6268
-26.7358
-26.7893
-27.2546
-27.1946
-27.0798
-26.9192
-26.724
-26.5056
-26.2735
-26.0351
-25.7947
-25.5546
-25.3155
-25.0775
-24.841
-24.607
-24.377
-24.1532
-23.9374
-23.7311
-23.5347
-23.348
-23.1698
-22.9987
-22.8333
-22.6728
-22.517
-22.3662
-22.2207
-22.081
-21.9471
-21.819
-21.6963
-21.5794
-21.4689
-21.366
-21.272
-21.1886
-21.1175
-21.0602
-21.0178
-20.9918
-20.9835
-20.9947
-21.0274
-21.084
-21.1675
-21.281
-21.4283
-21.6139
-21.8426
-22.1195
-22.449
-22.8335
-23.2708
-23.7525
-24.2629
-24.7791
-25.2744
-25.7236
-26.1089
-26.4217
-26.6618
-26.8336
-26.9435
-26.997
-27.4252
-27.3562
-27.2249
-27.043
-26.8247
-26.584
-26.3324
-26.078
-25.8252
-25.5755
-25.3285
-25.0835
-24.8403
-24.5995
-24.363
-24.1335
-23.9132
-23.7039
-23.5062
-23.3195
-23.142
-22.9718
-22.8069
-22.6463
-22.4897
-22.3377
-22.1909
-22.0499
-21.9147
-21.7847
-21.6597
-21.5395
-21.4249
-21.317
-21.2176
-21.1286
-21.0517
-20.9884
-20.9399
-20.9076
-20.8926
-20.8966
-20.9218
-20.9707
-21.0465
-21.1526
-21.2933
-21.4739
-21.7003
-21.9795
-22.3183
-22.7215
-23.1888
-23.7123
-24.2741
-24.8462
-25.3947
-25.8876
-26.3032
-26.6334
-26.8809
-27.0542
-27.1631
-27.2153
-27.6116
-27.5318
-27.3808
-27.1737
-26.9286
-26.6628
-26.3898
-26.1185
-25.8533
-25.5945
-25.3403
-25.0887
-24.8387
-24.5909
-24.3474
-24.1114
-23.8863
-23.6741
-23.4753
-23.2891
-23.113
-22.9442
-22.7801
-22.6195
-22.4621
-22.3087
-22.1604
-22.0182
-21.8818
-21.7504
-21.623
-21.4995
-21.3805
-21.2673
-21.1621
-21.067
-20.984
-20.9147
-20.86
-20.8212
-20.7992
-20.7956
-20.8127
-20.8533
-20.9205
-21.0181
-21.1508
-21.3245
-21.5464
-21.8256
-22.1716
-22.5927
-23.0914
-23.661
-24.2813
-24.9184
-25.5285
-26.0703
-26.5178
-26.8638
-27.1156
-27.287
-27.3922
-27.4419
-27.8145
-27.7217
-27.5472
-27.3104
-27.0343
-26.7403
-26.4441
-26.1555
-25.8782
-25.6113
-25.3508
-25.0932
-24.8365
-24.5813
-24.33
-24.0871
-23.8566
-23.6413
-23.4419
-23.2569
-23.083
-22.9164
-22.7535
-22.5929
-22.4344
-22.2793
-22.1294
-21.986
-21.8488
-21.7162
-21.5867
-21.4598
-21.3361
-21.2173
-21.1058
-21.0044
-20.9152
-20.8396
-20.7787
-20.7333
-20.7041
-20.6927
-20.7012
-20.7327
-20.7905
-20.8786
-21.0018
-21.1666
-21.3816
-21.6577
-22.0082
-22.4456
-22.9766
-23.5962
-24.283
-24.9956
-25.6775
-26.2742
-26.7542
-27.1131
-27.3648
-27.5301
-27.6284
-27.6739
-28.0347
-27.9263
-27.7239
-27.4522
-27.1405
-26.8151
-26.494
-26.1876
-25.8991
-25.6255
-25.3601
-25.0971
-24.8339
-24.571
-24.3111
-24.0602
-23.824
-23.6056
-23.4058
-23.2229
-23.0523
-22.8886
-22.7274
-22.5668
-22.407
-22.2498
-22.0979
-21.9535
-21.8159
-21.6826
-21.5512
-21.421
-21.2924
-21.1674
-21.0491
-20.941
-20.8454
-20.7636
-20.6966
-20.6446
-20.6082
-20.5885
-20.588
-20.6099
-20.6577
-20.7353
-20.8476
-21.0015
-21.2066
-21.4761
-21.8274
-22.2785
-22.8417
-23.5154
-24.2773
-25.0782
-25.844
-26.502
-27.0144
-27.3818
-27.6276
-27.7814
-27.8692
-27.9087
-28.2733
-28.1461
-27.9107
-27.5982
-27.2456
-26.8856
-26.5379
-26.2137
-25.9154
-25.637
-25.3684
-25.101
-24.8315
-24.5603
-24.2907
-24.0307
-23.7881
-23.5666
-23.367
-23.1872
-23.0212
-22.8615
-22.7022
-22.5416
-22.3802
-22.2201
-22.0659
-21.9207
-21.7834
-21.65
-21.517
-21.3833
-21.2496
-21.1179
-20.9923
-20.8772
-20.7751
-20.6872
-20.6142
-20.5558
-20.5121
-20.4839
-20.474
-20.4858
-20.523
-20.5892
-20.6893
-20.8304
-21.0226
-21.2813
-21.6287
-22.0897
-22.6843
-23.4154
-24.2618
-25.1663
-26.0308
-26.7574
-27.3007
-27.6701
-27.9026
-28.039
-28.1121
-28.1435
-28.5315
-28.3819
-28.1077
-27.7473
-27.3479
-26.9501
-26.5745
-26.2325
-25.9262
-25.6456
-25.376
-25.1051
-24.8295
-24.5497
-24.269
-23.9984
-23.7489
-23.5242
-23.3251
-23.1498
-22.9899
-22.8354
-22.6785
-22.5177
-22.3541
-22.1904
-22.0331
-21.8875
-21.7513
-21.6187
-21.4844
-21.3473
-21.2082
-21.069
-20.9355
-20.8132
-20.7045
-20.6105
-20.5319
-20.4674
-20.4165
-20.3796
-20.3597
-20.361
-20.3872
-20.4415
-20.5281
-20.6546
-20.831
-21.0741
-21.4118
-21.8778
-22.5015
-23.2927
-24.2334
-25.2599
-26.242
-27.0447
-27.6154
-27.9781
-28.1883
-28.3002
-28.3543
-28.3754
-28.8106
-28.6342
-28.3147
-27.8982
-27.4455
-27.0069
-26.6023
-26.2429
-25.931
-25.6515
-25.3835
-25.1101
-24.8284
-24.5398
-24.2461
-23.9629
-23.706
-23.478
-23.28
-23.1107
-22.9589
-22.811
-22.6567
-22.4954
-22.3292
-22.1606
-21.9993
-21.8536
-21.7198
-21.5891
-21.4539
-21.3133
-21.1686
-21.0211
-20.8786
-20.749
-20.6337
-20.5339
-20.45
-20.38
-20.322
-20.2761
-20.2459
-20.2363
-20.2513
-20.2932
-20.3654
-20.4756
-20.6332
-20.8554
-21.1767
-21.6411
-22.2907
-23.1431
-24.1879
-25.3589
-26.4826
-27.3695
-27.9612
-28.3055
-28.4827
-28.5626
-28.593
-28.6019
-29.1123
-28.9037
-28.5317
-28.0497
-27.5362
-27.0546
-26.6199
-26.2434
-25.9293
-25.6548
-25.3917
-25.1164
-24.8288
-24.5312
-24.222
-23.9238
-23.6593
-23.428
-23.2312
-23.0699
-22.9284
-22.7888
-22.6371
-22.475
-22.3059
-22.1306
-21.9639
-21.8189
-21.689
-21.5618
-21.4257
-21.2816
-21.1313
-20.9743
-20.8218
-20.6847
-20.563
-20.4575
-20.369
-20.294
-20.2292
-20.174
-20.133
-20.1121
-20.116
-20.1455
-20.2023
-20.2951
-20.4313
-20.6267
-20.9236
-21.3781
-22.0491
-22.9621
-24.1196
-25.463
-26.7592
-27.7381
-28.3406
-28.6517
-28.7836
-28.8233
-28.8256
-28.8203
-29.4385
-29.1908
-28.7592
-28.2004
-27.6171
-27.0917
-26.6264
-26.2326
-25.9206
-25.6559
-25.4018
-25.1247
-24.831
-24.5251
-24.197
-23.8803
-23.6087
-23.3738
-23.1782
-23.0273
-22.8988
-22.7699
-22.6203
-22.4567
-22.2848
-22.1003
-21.9262
-21.7831
-21.6591
-21.5371
-21.4002
-21.2524
-21.0967
-20.9288
-20.7647
-20.6204
-20.4925
-20.3813
-20.2892
-20.2098
-20.1387
-20.0738
-20.0213
-19.989
-19.982
-19.9992
-20.0398
-20.1145
-20.2275
-20.3897
-20.6531
-21.0877
-21.7744
-22.7451
-24.0209
-25.571
-27.0807
-28.1584
-28.7561
-29.0151
-29.088
-29.0794
-29.0494
-29.0282
-29.7912
-29.4958
-28.9977
-28.3484
-27.6852
-27.1173
-26.6208
-26.2088
-25.9044
-25.6552
-25.4152
-25.1354
-24.8351
-24.5229
-24.1713
-23.8313
-23.5543
-23.3156
-23.1201
-22.9829
-22.8706
-22.7551
-22.6065
-22.4407
-22.2665
-22.0696
-21.885
-21.7456
-21.6302
-21.516
-21.3777
-21.2257
-21.0657
-20.8846
-20.7067
-20.5563
-20.4223
-20.3053
-20.2107
-20.128
-20.0511
-19.976
-19.9112
-19.867
-19.8498
-19.8554
-19.8787
-19.9355
-20.0245
-20.1463
-20.3661
-20.7683
-21.4649
-22.4874
-23.8814
-25.6812
-27.4592
-28.6393
-29.2092
-29.3934
-29.3926
-29.328
-29.2621
-29.2237
-30.1731
-29.8179
-29.2487
-28.4921
-27.736
-27.131
-26.6027
-26.1698
-25.8807
-25.6531
-25.4339
-25.1487
-24.8408
-24.5267
-24.1449
-23.775
-23.4964
-23.2534
-23.0558
-22.9366
-22.8441
-22.7459
-22.596
-22.4266
-22.2526
-22.0385
-21.8388
-21.7062
-21.6023
-21.4995
-21.3581
-21.2014
-21.0392
-20.8418
-20.6472
-20.4925
-20.3526
-20.2292
-20.1338
-20.0489
-19.9671
-19.8809
-19.8028
-19.7462
-19.72
-19.7152
-19.7196
-19.7594
-19.8252
-19.8986
-20.0642
-20.4185
-21.1197
-22.1849
-23.6872
-25.7898
-27.911
-29.191
-29.7007
-29.7833
-29.6936
-29.566
-29.4614
-29.4048
-30.5873
-30.1555
-29.5145
-28.6295
-27.7638
-27.1334
-26.5723
-26.1128
-25.8495
-25.6499
-25.4609
-25.1646
-24.8472
-24.5396
-24.118
-23.7086
-23.4361
-23.1877
-22.9836
-22.8887
-22.8195
-22.7442
-22.5886
-22.4138
-22.2446
-22.0067
-21.7855
-21.6645
-21.5755
-21.4889
-21.3416
-21.179
-21.0188
-20.8005
-20.5848
-20.4295
-20.2836
-20.1527
-20.0589
-19.9727
-19.8873
-19.7888
-19.6961
-19.6266
-19.5929
-19.5798
-19.5626
-19.5875
-19.6336
-19.6491
-19.7493
-20.0362
-20.7394
-21.8353
-23.419
-25.8914
-28.4585
-29.8248
-30.2296
-30.18
-29.9868
-29.7904
-29.6454
-29.5702
-31.0378
-30.5049
-29.7994
-28.7584
-27.761
-27.1269
-26.5304
-26.0336
-25.8116
-25.6455
-25.5001
-25.1824
-24.8521
-24.5662
-24.0908
-23.6279
-23.3753
-23.1192
-22.9007
-22.8397
-22.7968
-22.7526
-22.584
-22.4008
-22.2457
-21.9742
-21.722
-21.6205
-21.5497
-21.4865
-21.3277
-21.1573
-21.0064
-20.7608
-20.5176
-20.3679
-20.2158
-20.0748
-19.9862
-19.8999
-19.8127
-19.7001
-19.5912
-19.5077
-19.4687
-19.4508
-19.4072
-19.4204
-19.454
-19.3997
-19.4245
-19.6182
-20.326
-21.4394
-23.0511
-25.9768
-29.1329
-30.5519
-30.7929
-30.5777
-30.2677
-29.9987
-29.8125
-29.7189
-31.5299
-30.8591
-30.1105
-28.8768
-27.7167
-27.1162
-26.4787
-25.9262
-25.7689
-25.6389
-25.5574
-25.2009
-24.8519
-24.6134
-24.0633
-23.5267
-23.3175
-23.0493
-22.8035
-22.7906
-22.7753
-22.775
-22.5813
-22.3853
-22.26
-21.9409
-21.6439
-21.575
-21.5241
-21.4951
-21.3158
-21.1343
-21.0055
-20.7224
-20.4426
-20.3093
-20.1497
-19.9943
-19.9165
-19.8303
-19.7442
-19.6147
-19.4879
-19.3889
-19.3476
-19.3304
-19.252
-19.2582
-19.2923
-19.1521
-19.0943
-19.1593
-19.8838
-21.0032
-22.5486
-26.0323
-29.9771
-31.3831
-31.3844
-30.9691
-30.5317
-30.1883
-29.9617
-29.8504
-32.0712
-31.2063
-30.4588
-28.9822
-27.6157
-27.1096
-26.4203
-25.7821
-25.7251
-25.6276
-25.641
-25.2179
-24.8401
-24.691
-24.0356
-23.3956
-23.2683
-22.9801
-22.686
-22.7439
-22.7532
-22.8166
-22.579
-22.363
-22.294
-21.9067
-21.5453
-21.5295
-21.4973
-21.5191
-21.3046
-21.1069
-21.0207
-20.6854
-20.3556
-20.256
-20.086
-19.9092
-19.8506
-19.7638
-19.6832
-19.5329
-19.3863
-19.2692
-19.2292
-19.2216
-19.0947
-19.1002
-19.1559
-18.9066
-18.7654
-18.6511
-19.419
-20.5406
-21.8645
-26.0372
-31.0509
-32.326
-31.9943
-31.3459
-30.7744
-30.3574
-30.0923
-29.9643
-32.672
-31.5276
-30.8618
-29.0724
-27.4367
-27.1206
-26.3594
-25.5886
-25.6869
-25.6062
-25.7627
-25.2298
-24.807
-24.8138
-24.0076
-23.2211
-23.2365
-22.9143
-22.5399
-22.7038
-22.727
-22.8853
-22.5747
-22.3278
-22.357
-21.8714
-21.4179
-21.4874
-21.4665
-21.5646
-21.2924
-21.07
-21.0592
-20.6495
-20.2503
-20.2117
-20.0256
-19.8165
-19.7903
-19.6995
-19.6317
-19.4542
-19.2862
-19.1473
-19.1129
-19.1289
-18.9317
-18.9443
-19.0547
-18.6614
-18.448
-18.0803
-18.9402
-20.078
-20.9371
-25.9615
-32.4364
-33.3828
-32.6084
-31.6991
-30.9916
-30.5045
-30.2038
-30.0609
-33.3472
-31.7933
-31.3456
-29.1452
-27.1497
-27.1698
-26.3018
-25.3272
-25.6659
-25.5651
-25.9396
-25.2316
-24.7379
-25.0024
-23.979
-22.9839
-23.2356
-22.856
-22.353
-22.6777
-22.6901
-22.992
-22.5651
-22.2699
-22.4624
-21.8349
-21.2503
-21.455
-21.4268
-21.6406
-21.2764
-21.0163
-21.1308
-20.6143
-20.118
-20.1823
-19.97
-19.7118
-19.7383
-19.6361
-19.5919
-19.3781
-19.1879
-19.0216
-18.9972
-19.059
-18.7574
-18.7866
-19.002
-18.4113
-18.1576
-17.4267
-18.4576
-19.659
-19.6846
-25.7623
-34.2463
-34.5456
-33.2081
-32.0192
-31.1799
-30.6287
-30.2966
-30.1407
-34.1177
-31.9594
-31.9488
-29.1983
-26.7137
-27.2878
-26.2552
-24.972
-25.6807
-25.488
-26.1954
-25.2163
-24.6112
-25.286
-23.9495
-22.6573
-23.2851
-22.81
-22.108
-22.6776
-22.6318
-23.1525
-22.5454
-22.1756
-22.6288
-21.7966
-21.0266
-21.4426
-21.3695
-21.7596
-21.2528
-20.935
-21.2499
-20.579
-19.9465
-20.1762
-19.9204
-19.5888
-19.6988
-19.5709
-19.5675
-19.3035
-19.0919
-18.8899
-18.8797
-19.0212
-18.5641
-18.621
-19.0161
-18.1452
-17.9178
-16.6602
-17.9821
-19.3513
-18.001
-25.3791
-36.6338
-35.7903
-33.7702
-32.2973
-31.3368
-30.7298
-30.3712
-30.2043
-35.013
-31.9614
-32.7262
-29.2296
-26.0725
-27.5181
-26.2288
-24.4864
-25.7606
-25.3484
-26.5636
-25.1743
-24.3963
-25.7046
-23.918
-22.2041
-23.4132
-22.7827
-21.7804
-22.7224
-22.5347
-23.3886
-22.5093
-22.0252
-22.8821
-21.7554
-20.7257
-21.4664
-21.2809
-21.9392
-21.2164
-20.811
-21.4361
-20.5424
-19.7194
-20.2059
-19.8785
-19.4389
-19.6784
-19.4995
-19.5633
-19.2284
-18.9995
-18.75
-18.7562
-19.0289
-18.3418
-18.438
-19.1224
-17.8438
-17.7637
-15.738
-17.5236
-19.2553
-15.7504
-24.7288
-39.8045
-37.0688
-34.2679
-32.5257
-31.4609
-30.8081
-30.4283
-30.2529
-36.0741
-31.7082
-33.7553
-29.2367
-25.1506
-27.9214
-26.2339
-23.8197
-25.9496
-25.1063
-27.0904
-25.0931
-24.0511
-26.3124
-23.883
-21.5748
-23.6588
-22.7815
-21.3369
-22.8408
-22.3723
-23.7307
-22.4483
-21.7917
-23.2574
-21.7095
-20.3194
-21.551
-21.1398
-22.2036
-21.1604
-20.6234
-21.7161
-20.5029
-19.4145
-20.2889
-19.8462
-19.2502
-19.6871
-19.4151
-19.5862
-19.1497
-18.9126
-18.5991
-18.6206
-19.1007
-18.0768
-18.2238
-19.3559
-17.4757
-17.7464
-14.6007
-17.089
-19.5133
-12.7602
-23.6985
-44.0318
-38.2982
-34.6732
-32.6984
-31.5518
-30.8646
-30.4692
-30.2875
-37.3568
-31.0735
-35.1419
-29.2168
-23.8483
-28.5802
-26.2833
-22.9035
-26.3122
-24.7019
-27.8382
-24.9571
-23.5187
-27.1813
-23.8423
-20.7036
-24.0752
-22.8152
-20.7321
-23.0747
-22.1053
-24.2198
-22.3517
-21.4384
-23.8012
-21.6562
-19.77
-21.7326
-20.9149
-22.5858
-21.0761
-20.3444
-22.1254
-20.4576
-19.0028
-20.4492
-19.825
-19.0068
-19.7391
-19.3078
-19.6457
-19.0626
-18.8345
-18.4347
-18.4632
-19.2621
-17.752
-17.9592
-19.7643
-16.9928
-17.9393
-13.1679
-16.6778
-20.3218
-8.81464
-22.1375
-49.6742
-39.3475
-34.9597
-32.8128
-31.6105
-30.9007
-30.4953
-30.3096
-38.936
-29.8869
-37.0281
-29.1665
-22.0361
-29.604
-26.3912
-21.6465
-26.9396
-24.0494
-28.8906
-24.7459
-22.7234
-28.4049
-23.7918
-19.5051
-24.7326
-22.8934
-19.9051
-23.4834
-21.6772
-24.9105
-22.2055
-20.9165
-24.5737
-21.5902
-19.0282
-22.0612
-20.56
-23.1291
-20.9512
-19.936
-22.7097
-20.4017
-18.4453
-20.7176
-19.8147
-18.6858
-19.8528
-19.1609
-19.7531
-18.9582
-18.7681
-18.252
-18.2683
-19.5443
-17.3436
-17.6151
-20.41
-16.3214
-18.4423
-11.3315
-16.2761
-21.9419
-3.64564
-19.8467
-57.1944
-40.0203
-35.107
-32.8682
-31.6383
-30.9175
-30.5073
-30.3196
)
;

boundaryField
{
    left
    {
        type            calculated;
        value           nonuniform List<scalar> 
32
(
-26.4246
-26.4469
-26.4896
-26.5508
-26.6292
-26.7238
-26.8339
-26.9591
-27.0993
-27.2546
-27.4252
-27.6116
-27.8145
-28.0347
-28.2733
-28.5315
-28.8106
-29.1123
-29.4385
-29.7912
-30.1731
-30.5873
-31.0378
-31.5299
-32.0712
-32.672
-33.3472
-34.1177
-35.013
-36.0741
-37.3568
-38.936
)
;
    }
    right
    {
        type            calculated;
        value           nonuniform List<scalar> 
32
(
-25.8
-25.8346
-25.9005
-25.9943
-26.1131
-26.2544
-26.4157
-26.5947
-26.7893
-26.997
-27.2153
-27.4419
-27.6739
-27.9087
-28.1435
-28.3754
-28.6019
-28.8203
-29.0282
-29.2237
-29.4048
-29.5702
-29.7189
-29.8504
-29.9643
-30.0609
-30.1407
-30.2043
-30.2529
-30.2875
-30.3096
-30.3196
)
;
    }
    interface
    {
        type            calculated;
        value           nonuniform List<scalar> 
64
(
-39.8104
-29.1312
-38.1165
-29.1332
-20.9842
-30.2227
-26.4615
-20.9198
-27.3329
-23.6486
-29.5049
-24.6188
-22.2492
-29.1185
-23.7636
-18.8119
-25.1316
-22.9448
-19.4274
-23.7401
-21.4145
-25.3141
-22.1179
-20.6064
-25.0256
-21.5532
-18.6021
-22.2695
-20.3432
-23.4471
-20.8768
-19.694
-23.0518
-20.3701
-18.1245
-20.8831
-19.8119
-18.5026
-19.9276
-19.0749
-19.8202
-18.9002
-18.738
-18.1553
-18.1588
-19.7198
-17.1149
-17.4188
-20.8008
-15.9275
-18.7856
-10.2969
-16.0747
-22.9919
-0.718126
-18.4905
-61.489
-40.2334
-35.1439
-32.8813
-31.6446
-30.9212
-30.5097
-30.3215
)
;
    }
    bottom
    {
        type            calculated;
        value           nonuniform List<scalar> 
64
(
-26.4188
-26.3914
-26.3374
-26.2582
-26.156
-26.0332
-25.8926
-25.7369
-25.569
-25.3914
-25.2064
-25.0163
-24.8229
-24.628
-24.433
-24.2394
-24.0481
-23.8601
-23.6762
-23.4969
-23.3228
-23.1541
-22.9912
-22.8342
-22.6834
-22.5391
-22.4015
-22.271
-22.148
-22.0329
-21.9263
-21.8288
-21.7412
-21.6644
-21.5991
-21.5465
-21.5077
-21.4838
-21.476
-21.4857
-21.5139
-21.562
-21.6313
-21.7227
-21.8374
-21.9759
-22.1387
-22.3256
-22.5361
-22.7685
-23.0207
-23.2893
-23.57
-23.8577
-24.1463
-24.4293
-24.7001
-24.9521
-25.1793
-25.3764
-25.539
-25.6638
-25.7483
-25.7909
)
;
    }
    defaultFaces
    {
        type            empty;
    }
}


// ************************************************************************* //
