/*--------------------------------*- C++ -*----------------------------------*\
| =========                 |                                                 |
| \\      /  F ield         | OpenFOAM: The Open Source CFD Toolbox           |
|  \\    /   O peration     | Version:  5.x                                   |
|   \\  /    A nd           | Web:      www.OpenFOAM.org                      |
|    \\/     M anipulation  |                                                 |
\*---------------------------------------------------------------------------*/
FoamFile
{
    version     2.0;
    format      ascii;
    class       volScalarField;
    location    "2.5";
    object      T;
}
// * * * * * * * * * * * * * * * * * * * * * * * * * * * * * * * * * * * * * //

dimensions      [0 0 0 1 0 0 0];

internalField   nonuniform List<scalar> 
2048
(
9.8102
9.8104
9.81079
9.81135
9.81209
9.81297
9.81398
9.8151
9.81631
9.81758
9.81891
9.82028
9.82167
9.82307
9.82447
9.82586
9.82723
9.82858
9.8299
9.83119
9.83244
9.83365
9.83483
9.83595
9.83704
9.83807
9.83906
9.84
9.84088
9.84171
9.84248
9.84318
9.84381
9.84436
9.84483
9.8452
9.84548
9.84565
9.84571
9.84564
9.84544
9.84509
9.8446
9.84394
9.84311
9.84212
9.84095
9.83961
9.83809
9.83642
9.83461
9.83268
9.83067
9.8286
9.82653
9.82449
9.82255
9.82074
9.81911
9.81769
9.81652
9.81562
9.81502
9.81471
9.43874
9.43932
9.44048
9.44218
9.44436
9.44699
9.44999
9.45331
9.45689
9.46068
9.46462
9.46867
9.47279
9.47694
9.48108
9.4852
9.48927
9.49327
9.49718
9.50099
9.50469
9.50827
9.51174
9.51507
9.51827
9.52134
9.52426
9.52704
9.52965
9.5321
9.53437
9.53644
9.53831
9.53995
9.54134
9.54246
9.54329
9.54381
9.54398
9.54379
9.54319
9.54218
9.54071
9.53878
9.53635
9.53341
9.52995
9.52597
9.5215
9.51655
9.51117
9.50544
9.49945
9.4933
9.48713
9.48108
9.47529
9.4699
9.46505
9.46084
9.45736
9.4547
9.45289
9.45198
9.08308
9.08405
9.08597
9.08877
9.09239
9.09672
9.10167
9.10715
9.11304
9.11927
9.12574
9.13239
9.13914
9.14594
9.15274
9.15949
9.16615
9.17269
9.17908
9.18531
9.19136
9.19721
9.20287
9.20832
9.21356
9.21857
9.22335
9.22789
9.23216
9.23617
9.23989
9.24329
9.24635
9.24904
9.25133
9.25318
9.25456
9.25543
9.25573
9.25543
9.25449
9.25285
9.25048
9.24734
9.24338
9.23859
9.23294
9.22644
9.2191
9.21098
9.20214
9.19271
9.18283
9.17269
9.1625
9.15249
9.14292
9.13401
9.12599
9.11903
9.1133
9.1089
9.10593
9.10443
8.7423
8.74366
8.74634
8.75026
8.75531
8.76134
8.76823
8.77583
8.784
8.79262
8.80157
8.81074
8.82006
8.82943
8.83879
8.84808
8.85724
8.86622
8.87501
8.88356
8.89186
8.8999
8.90766
8.91514
8.92232
8.9292
8.93576
8.94199
8.94787
8.95338
8.9585
8.96318
8.96741
8.97113
8.97431
8.97689
8.97882
8.98004
8.9805
8.98013
8.97888
8.97668
8.97348
8.9692
8.96381
8.95725
8.94951
8.94058
8.93048
8.91926
8.90704
8.89396
8.88024
8.86612
8.85193
8.83798
8.82462
8.8122
8.80102
8.79133
8.78336
8.77725
8.77312
8.77104
8.41556
8.41732
8.42079
8.42584
8.43234
8.4401
8.44893
8.45865
8.46907
8.48005
8.49142
8.50307
8.51489
8.52677
8.53862
8.55036
8.56194
8.57329
8.58438
8.59517
8.60563
8.61576
8.62554
8.63496
8.64401
8.65269
8.66096
8.66883
8.67625
8.68322
8.68969
8.69562
8.70099
8.70572
8.70978
8.71308
8.71557
8.71718
8.71783
8.71744
8.71594
8.71324
8.70926
8.70394
8.6972
8.68898
8.67924
8.66797
8.65518
8.64095
8.62539
8.60869
8.59113
8.57302
8.55478
8.53684
8.51966
8.50368
8.48931
8.47688
8.46666
8.45885
8.45357
8.45092
8.1021
8.10427
8.10855
8.11478
8.12277
8.13228
8.14308
8.15492
8.1676
8.18091
8.19468
8.20877
8.22303
8.23735
8.25163
8.26577
8.27969
8.29333
8.30664
8.31957
8.33211
8.34425
8.35596
8.36725
8.3781
8.38849
8.39842
8.40786
8.41678
8.42515
8.43294
8.4401
8.44658
8.45232
8.45725
8.46129
8.46436
8.46638
8.46725
8.46688
8.46518
8.46205
8.45739
8.4511
8.4431
8.43331
8.42167
8.40815
8.39276
8.37557
8.35671
8.33641
8.31497
8.29282
8.27046
8.24844
8.22734
8.20773
8.19011
8.1749
8.16243
8.15291
8.14649
8.14326
7.80119
7.8038
7.80894
7.81639
7.82593
7.83724
7.85004
7.86404
7.87897
7.89461
7.91076
7.92724
7.94391
7.96062
7.97727
7.99374
8.00994
8.02579
8.04123
8.05624
8.07077
8.08483
8.0984
8.11148
8.12405
8.13611
8.14762
8.15858
8.16894
8.17868
8.18775
8.19611
8.20369
8.21043
8.21623
8.22102
8.22469
8.22714
8.22828
8.22798
8.22615
8.22265
8.21738
8.21023
8.20107
8.1898
8.17636
8.16069
8.14277
8.12268
8.10055
8.07663
8.05128
8.02499
7.99839
7.97216
7.94701
7.92367
7.90273
7.88469
7.86993
7.8587
7.85115
7.84735
7.51217
7.51526
7.5213
7.53005
7.54121
7.55439
7.56925
7.58543
7.60263
7.62059
7.63909
7.65793
7.67696
7.69603
7.715
7.73374
7.75215
7.77014
7.78765
7.80465
7.8211
7.837
7.85235
7.86714
7.88137
7.89502
7.90807
7.92048
7.93225
7.94331
7.95364
7.96317
7.97184
7.97956
7.98625
7.9918
7.99609
7.99902
8.00046
8.00028
7.99837
7.99459
7.98879
7.98085
7.97063
7.958
7.94286
7.92513
7.90478
7.88184
7.85646
7.8289
7.79956
7.76903
7.73804
7.70743
7.67809
7.65086
7.6265
7.60559
7.58853
7.57559
7.5669
7.56255
7.23444
7.23803
7.24504
7.25518
7.26804
7.28317
7.30015
7.31855
7.33804
7.35831
7.37914
7.40032
7.42168
7.44306
7.46429
7.48526
7.50582
7.52589
7.5454
7.5643
7.58258
7.60025
7.6173
7.63374
7.64955
7.66474
7.67926
7.6931
7.70621
7.71856
7.73011
7.7408
7.75054
7.75926
7.76683
7.77315
7.77809
7.78152
7.78331
7.78331
7.78139
7.77739
7.77115
7.76252
7.75134
7.73746
7.72072
7.70103
7.67833
7.65261
7.62401
7.59278
7.55939
7.52448
7.48892
7.45372
7.41998
7.38872
7.36084
7.33699
7.31762
7.30297
7.29317
7.28827
6.96739
6.97153
6.9796
6.99122
7.00589
7.02308
7.04224
7.06291
7.0847
7.10728
7.13042
7.15391
7.17756
7.2012
7.22467
7.2478
7.27047
7.29255
7.31398
7.33471
7.35475
7.3741
7.39278
7.41079
7.42814
7.4448
7.46075
7.47595
7.49037
7.50397
7.51672
7.52853
7.53934
7.54905
7.55752
7.56463
7.57024
7.57421
7.57638
7.57661
7.57473
7.57059
7.564
7.55478
7.54274
7.5277
7.50949
7.48796
7.463
7.43458
7.40279
7.36788
7.33033
7.29088
7.25054
7.21052
7.17216
7.13669
7.10516
7.07833
7.05664
7.04032
7.02944
7.02401
6.7105
6.71524
6.72446
6.73768
6.75429
6.77362
6.79505
6.81804
6.84214
6.86703
6.89245
6.91821
6.94411
6.96998
6.99564
7.02091
7.04562
7.06965
7.09293
7.11542
7.13713
7.15809
7.17832
7.19784
7.21666
7.23474
7.25206
7.26858
7.28427
7.29909
7.31299
7.32592
7.33779
7.34848
7.35787
7.36579
7.37209
7.37662
7.37922
7.37972
7.37796
7.37374
7.36688
7.35716
7.34437
7.3283
7.30873
7.28548
7.25837
7.22734
7.1924
7.15379
7.11199
7.06782
7.02246
6.97736
6.9341
6.89422
6.85893
6.82907
6.80509
6.78714
6.77523
6.7693
6.46324
6.46864
6.47912
6.49408
6.51276
6.53436
6.55815
6.58349
6.60993
6.6371
6.66478
6.69276
6.72088
6.74895
6.77677
6.80412
6.83083
6.85676
6.88182
6.90599
6.92929
6.95177
6.97348
6.99445
7.01467
7.03413
7.05278
7.07057
7.08748
7.10347
7.11851
7.13254
7.14545
7.15714
7.16744
7.17619
7.18321
7.18834
7.1914
7.19222
7.19062
7.1864
7.17934
7.16922
7.15579
7.1388
7.118
7.09315
7.06403
7.03048
6.99246
6.95014
6.904
6.85493
6.80428
6.75376
6.70532
6.6608
6.62164
6.58873
6.5625
6.54299
6.53011
6.52372
6.22512
6.23126
6.24313
6.25999
6.2809
6.3049
6.33112
6.35887
6.38764
6.41707
6.44696
6.47714
6.50744
6.53767
6.5676
6.59702
6.62568
6.65345
6.68022
6.70599
6.7308
6.75472
6.77783
6.80018
6.82176
6.84254
6.86247
6.88149
6.89957
6.9167
6.93285
6.94795
6.96191
6.97459
6.98582
6.99541
7.00317
7.00892
7.01248
7.01367
7.01228
7.00813
7.00096
6.99053
6.97656
6.95877
6.93687
6.91056
6.87955
6.84361
6.80259
6.75657
6.70601
6.65185
6.59559
6.5393
6.48533
6.43593
6.39279
6.35685
6.32843
6.30747
6.29371
6.28691
5.99568
6.00264
6.01605
6.03498
6.0583
6.08483
6.11359
6.14379
6.17488
6.20654
6.2386
6.27091
6.30335
6.3357
6.36774
6.39918
6.42976
6.45931
6.48773
6.51501
6.54123
6.56651
6.59096
6.61463
6.63751
6.65958
6.68074
6.70095
6.72016
6.73838
6.7556
6.77176
6.78675
6.80044
6.81261
6.82306
6.83158
6.83798
6.84206
6.84365
6.84254
6.83851
6.83131
6.82065
6.80625
6.78778
6.7649
6.73728
6.70454
6.66635
6.62243
6.57276
6.51771
6.45823
6.39604
6.33356
6.27367
6.21913
6.17191
6.13297
6.1025
6.08022
6.06569
6.05853
5.77447
5.78235
5.79747
5.81868
5.8446
5.87382
5.90521
5.93788
5.97128
6.00512
6.03927
6.07368
6.1082
6.14266
6.17677
6.21021
6.24268
6.27396
6.30394
6.33265
6.3602
6.38675
6.41246
6.43739
6.46154
6.48485
6.50721
6.52855
6.54885
6.56812
6.58638
6.60357
6.6196
6.63429
6.64742
6.65875
6.66805
6.67511
6.67974
6.68176
6.68097
6.67712
6.66996
6.65918
6.64444
6.6254
6.60169
6.5729
6.5386
6.49832
6.45165
6.39839
6.33878
6.27379
6.2053
6.13615
6.06989
6.00992
5.95855
5.9167
5.88434
5.8609
5.84573
5.83829
5.56107
5.56999
5.58701
5.61074
5.63947
5.67153
5.70563
5.74081
5.77648
5.81242
5.84861
5.88503
5.92161
5.95813
5.99431
6.02975
6.06406
6.09701
6.1285
6.15854
6.18732
6.21505
6.24195
6.26809
6.29346
6.31798
6.34151
6.36395
6.38528
6.40555
6.42481
6.44302
6.46007
6.47578
6.48988
6.5021
6.51219
6.51994
6.52515
6.52762
6.52718
6.52359
6.51654
6.5057
6.49072
6.47123
6.44682
6.41702
6.38133
6.33915
6.2899
6.23314
6.16895
6.09825
6.02306
5.94669
5.87353
5.80784
5.75226
5.70765
5.6736
5.64922
5.63356
5.62592
5.35508
5.36516
5.3843
5.4108
5.44258
5.47765
5.51455
5.55225
5.59015
5.62811
5.66623
5.70461
5.74319
5.78176
5.81999
5.85741
5.89355
5.92813
5.96104
5.99232
6.02222
6.05105
6.07906
6.10636
6.13291
6.15862
6.1833
6.20679
6.22909
6.25031
6.27054
6.28975
6.30782
6.32455
6.33964
6.35277
6.36366
6.37211
6.3779
6.38086
6.38081
6.37751
6.37064
6.35983
6.34471
6.32487
6.29988
6.26924
6.23233
6.18848
6.13684
6.07673
6.00796
5.93135
5.84905
5.76483
5.68415
5.6124
5.55263
5.50546
5.47
5.44491
5.42894
5.42118
5.1561
5.16749
5.189
5.21857
5.25365
5.29188
5.33166
5.37189
5.41195
5.45182
5.49177
5.53204
5.57258
5.61316
5.65346
5.69287
5.7308
5.76695
5.80122
5.83365
5.86456
5.89438
5.92344
5.95185
5.97955
6.00644
6.03225
6.05673
6.07994
6.10205
6.12321
6.1434
6.16248
6.18026
6.19637
6.21041
6.22212
6.23127
6.23765
6.24111
6.24149
6.23853
6.23191
6.2212
6.20601
6.18593
6.1605
6.12915
6.09124
6.04593
5.99216
5.92888
5.85555
5.77288
5.68302
5.59022
5.50128
5.42313
5.35925
5.30979
5.27324
5.24773
5.23164
5.22387
4.96377
4.97664
5.00078
5.03375
5.07242
5.11396
5.1567
5.19945
5.24158
5.28323
5.32489
5.36697
5.40942
5.45198
5.49437
5.5358
5.57549
5.61317
5.64873
5.68219
5.71399
5.74469
5.77475
5.80422
5.83305
5.86112
5.88804
5.91347
5.93751
5.96045
5.9825
6.00365
6.02374
6.04259
6.05973
6.07469
6.08722
6.09709
6.10406
6.10804
6.10886
6.1063
6.09998
6.08945
6.07427
6.05403
6.02828
5.99638
5.95764
5.91116
5.85553
5.7893
5.71151
5.62264
5.52479
5.42254
5.32447
5.23957
5.17171
5.12034
5.0831
5.05747
5.04147
5.03378
4.77771
4.79228
4.81933
4.85607
4.89864
4.94362
4.98938
5.03466
5.07873
5.12201
5.16523
5.20906
5.25337
5.29788
5.3424
5.38588
5.4273
5.46647
5.50326
5.53762
5.57019
5.60167
5.63265
5.66316
5.69308
5.72234
5.75038
5.7767
5.8015
5.82518
5.8481
5.87019
5.89128
5.91121
5.92942
5.94532
5.95867
5.96925
5.97682
5.9813
5.98259
5.98047
5.97451
5.96423
5.94912
5.92881
5.90286
5.87055
5.83118
5.78379
5.72662
5.65775
5.5756
5.48045
5.37421
5.26151
5.15321
5.06122
4.98965
4.93685
4.89936
4.87395
4.85824
4.85074
4.5976
4.6141
4.64434
4.68529
4.7321
4.78061
4.82945
4.87727
4.92313
4.96785
5.01246
5.05798
5.10412
5.15052
5.19723
5.24284
5.28593
5.32655
5.36451
5.39965
5.43284
5.46497
5.49685
5.52836
5.55932
5.58981
5.619
5.64615
5.67161
5.69595
5.71971
5.74272
5.76478
5.78585
5.80517
5.82199
5.83616
5.84746
5.8556
5.86059
5.86236
5.86072
5.85519
5.84521
5.83024
5.80993
5.78389
5.75129
5.71146
5.66347
5.60513
5.53395
5.4476
5.34617
5.2312
5.10686
4.98697
4.88758
4.81271
4.75906
4.72182
4.69698
4.68178
4.67456
4.42307
4.44181
4.47553
4.52116
4.5726
4.62469
4.67665
4.72702
4.7745
4.82045
4.86625
4.91343
4.96136
5.00956
5.05857
5.10639
5.15108
5.19311
5.23222
5.26799
5.30165
5.33428
5.36703
5.39953
5.43149
5.46326
5.49365
5.52153
5.54756
5.57245
5.59703
5.62096
5.64395
5.66621
5.6867
5.70441
5.71941
5.73144
5.74013
5.74561
5.74786
5.74675
5.74171
5.73209
5.71729
5.69704
5.67103
5.63825
5.5981
5.54984
5.49072
5.41767
5.32728
5.21962
5.09574
4.95836
4.82517
4.71815
4.64057
4.58679
4.55034
4.52642
4.51193
4.5051
4.25381
4.27516
4.3126
4.36347
4.42
4.4756
4.53074
4.58372
4.63255
4.67951
4.72625
4.77511
4.82481
4.87467
4.92611
4.97631
5.02247
5.06588
5.10614
5.14235
5.17632
5.20929
5.24292
5.2764
5.30927
5.34243
5.3741
5.40261
5.42907
5.45439
5.4798
5.50464
5.5285
5.55202
5.57377
5.59233
5.60814
5.62091
5.63011
5.63607
5.63879
5.63826
5.63377
5.62457
5.60997
5.58981
5.56396
5.53108
5.49073
5.44256
5.38308
5.30867
5.21441
5.10066
4.9679
4.81582
4.66714
4.5524
4.47296
4.41986
4.38477
4.36213
4.34855
4.34218
4.08949
4.11393
4.15524
4.21203
4.27418
4.33308
4.39146
4.44716
4.49703
4.54477
4.59214
4.64273
4.69421
4.74549
4.7996
4.85239
4.8998
4.94458
4.98603
5.02246
5.05659
5.0897
5.12426
5.15873
5.19236
5.22705
5.26014
5.28912
5.31591
5.34148
5.36776
5.39353
5.41814
5.44303
5.46614
5.48546
5.50209
5.51564
5.52528
5.53169
5.53487
5.53497
5.5311
5.52237
5.50799
5.48794
5.46239
5.42947
5.38896
5.34127
5.28188
5.20673
5.10874
4.98911
4.84789
4.67913
4.51209
4.38982
4.30963
4.25814
4.22501
4.20397
4.19148
4.18565
3.92976
3.95798
4.00312
4.06665
4.13508
4.19686
4.25854
4.3172
4.36765
4.41596
4.46355
4.51606
4.56934
4.62166
4.67875
4.73446
4.78277
4.82894
4.87172
4.90807
4.9422
4.97518
5.0108
5.04629
5.08045
5.11688
5.1516
5.18082
5.20782
5.23343
5.26068
5.28739
5.31258
5.339
5.36362
5.38355
5.40101
5.41537
5.42537
5.43221
5.43582
5.43662
5.43344
5.42525
5.41108
5.39109
5.36605
5.3331
5.2924
5.24565
5.18676
5.11167
5.00997
4.88471
4.73605
4.54823
4.3591
4.2299
4.15041
4.10155
4.07095
4.05183
4.04058
4.03535
3.77429
3.80722
3.85587
3.92715
4.00271
4.0666
4.13174
4.19371
4.24415
4.29285
4.3401
4.39485
4.45003
4.50279
4.56333
4.6224
4.67107
4.71868
4.76302
4.79889
4.83292
4.86542
4.90231
4.9389
4.97321
5.0117
5.04834
5.07748
5.10459
5.12995
5.15834
5.18604
5.21151
5.23969
5.26603
5.28634
5.30464
5.31992
5.33014
5.3374
5.34138
5.34296
5.34053
5.33295
5.31896
5.29898
5.27468
5.2417
5.20064
5.1554
5.09738
5.02334
4.9178
4.78714
4.63288
4.42318
4.207
4.07217
3.9952
3.95005
3.92252
3.90558
3.89569
3.89111
3.62271
3.66166
3.71306
3.79338
3.87715
3.94193
4.01076
4.07664
4.12619
4.17526
4.22139
4.2789
4.33615
4.38843
4.45308
4.51616
4.56435
4.61354
4.65982
4.69465
4.72856
4.76007
4.7986
4.8364
4.8703
4.91129
4.95026
4.97884
5.00603
5.03073
5.06053
5.08933
5.11463
5.14489
5.17325
5.19356
5.21276
5.22909
5.23934
5.24703
5.25128
5.25374
5.25214
5.24525
5.2314
5.21127
5.18807
5.15501
5.11327
5.07021
5.01332
4.94165
4.83188
4.69593
4.53913
4.30418
4.05436
3.91622
3.84396
3.80362
3.77965
3.7651
3.75667
3.75279
3.47461
3.52145
3.57416
3.66517
3.75863
3.82238
3.89531
3.96602
4.01344
4.06304
4.10695
4.16804
4.22766
4.27807
4.34778
4.41577
4.46221
4.51323
4.56207
4.59504
4.62896
4.65876
4.69948
4.73871
4.77132
4.81543
4.8573
4.88462
4.91198
4.93543
4.96709
4.99712
5.02158
5.05439
5.08518
5.10492
5.12513
5.14272
5.15271
5.16089
5.16527
5.16876
5.16804
5.16195
5.14818
5.12765
5.10605
5.07281
5.02983
4.98987
4.93414
4.86662
4.75183
4.61039
4.45579
4.19158
3.89937
3.76176
3.69675
3.66227
3.64227
3.63027
3.62337
3.62019
3.32952
3.38695
3.4385
3.5424
3.64748
3.70738
3.78507
3.86195
3.90545
3.95616
3.99625
4.06214
4.12459
4.17111
4.24721
4.32137
4.3642
4.41747
4.46976
4.49972
4.53402
4.56108
4.6048
4.64578
4.67581
4.72393
4.76949
4.79452
4.82233
4.8437
4.87785
4.90937
4.93198
4.96799
5.00178
5.02013
5.04153
5.06069
5.07001
5.0788
5.08308
5.08781
5.08802
5.08286
5.06911
5.04777
5.02848
4.99493
4.94982
4.91421
4.85928
4.79836
4.67726
4.52957
4.38421
4.08598
3.73973
3.6087
3.55373
3.52602
3.5103
3.50096
3.49561
3.49316
3.1869
3.25873
3.30524
3.42491
3.54425
3.59621
3.67971
3.76469
3.8017
3.85467
3.88864
3.96111
4.0271
4.06683
4.15117
4.23321
4.26977
4.32596
4.383
4.40827
4.44372
4.46654
4.51445
4.55765
4.58326
4.6366
4.68691
4.70817
4.73704
4.75512
4.79269
4.82605
4.8454
4.88553
4.92307
4.93884
4.96173
4.98292
4.99096
5.0006
5.00446
5.0107
5.01186
5.00781
4.994
4.97124
4.95526
4.92124
4.87267
4.84317
4.78811
4.73716
4.60775
4.45212
4.32609
3.98824
3.57251
3.45718
3.41512
3.39493
3.38367
3.37704
3.37325
3.37152
3.04607
3.13768
3.17328
3.31259
3.44969
3.48795
3.57887
3.67465
3.7015
3.75879
3.78337
3.86489
3.9355
3.96435
4.05948
4.15172
4.17826
4.2384
4.302
4.3202
4.35814
4.37458
4.42834
4.47446
4.49304
4.55328
4.60973
4.62513
4.65615
4.6692
4.71151
4.74724
4.76131
4.80683
4.84914
4.86066
4.88553
4.90936
4.91526
4.92618
4.92913
4.93728
4.93935
4.93665
4.92273
4.89764
4.88636
4.85166
4.7977
4.77681
4.7198
4.68349
4.5429
4.37623
4.28361
3.89959
3.39404
3.30776
3.28122
3.26901
3.2623
3.25836
3.25612
3.25509
2.90622
3.02509
3.04123
3.2053
3.36486
3.38145
3.48216
3.59244
3.60396
3.66895
3.67947
3.7735
3.85026
3.8626
3.97196
4.0775
4.08885
4.15447
4.22711
4.23486
4.27753
4.28454
4.34643
4.39647
4.40441
4.47381
4.53825
4.54484
4.57981
4.58539
4.63426
4.6731
4.67913
4.73175
4.78019
4.78515
4.81271
4.84003
4.84259
4.85546
4.8568
4.86741
4.87028
4.86923
4.8552
4.82647
4.8218
4.78622
4.72415
4.7154
4.6533
4.63805
4.48236
4.29946
4.25946
3.82168
3.19968
3.1615
3.15236
3.14829
3.14607
3.14477
3.14404
3.1437
)
;

boundaryField
{
    left
    {
        type            zeroGradient;
    }
    right
    {
        type            zeroGradient;
    }
    interface
    {
        type            fixedValue;
        value           nonuniform List<scalar> 
64
(
2.83472
2.97277
2.97277
3.15297
3.32717
3.32717
3.43463
3.55487
3.55487
3.62648
3.62648
3.72928
3.8103
3.8103
3.92928
4.04372
4.04372
4.11326
4.19222
4.19222
4.23907
4.23907
4.30671
4.35946
4.35946
4.4351
4.50484
4.50484
4.54328
4.54328
4.59676
4.63773
4.63773
4.69517
4.74764
4.74764
4.77713
4.8068
4.8068
4.8212
4.8212
4.83346
4.83663
4.83663
4.82259
4.79106
4.79106
4.75494
4.68679
4.68679
4.61956
4.61956
4.45349
4.25817
4.25817
3.78848
3.08925
3.08925
3.08925
3.08925
3.08925
3.08925
3.08925
3.08925
)
;
    }
    bottom
    {
        type            fixedValue;
        value           uniform 10;
    }
    defaultFaces
    {
        type            empty;
    }
}


// ************************************************************************* //
