/*--------------------------------*- C++ -*----------------------------------*\
| =========                 |                                                 |
| \\      /  F ield         | OpenFOAM: The Open Source CFD Toolbox           |
|  \\    /   O peration     | Version:  5.x                                   |
|   \\  /    A nd           | Web:      www.OpenFOAM.org                      |
|    \\/     M anipulation  |                                                 |
\*---------------------------------------------------------------------------*/
FoamFile
{
    version     2.0;
    format      ascii;
    class       volScalarField;
    location    "17.1";
    object      T;
}
// * * * * * * * * * * * * * * * * * * * * * * * * * * * * * * * * * * * * * //

dimensions      [0 0 0 1 0 0 0];

internalField   nonuniform List<scalar> 
2048
(
9.81021
9.8104
9.81079
9.81136
9.8121
9.81298
9.81399
9.81511
9.81632
9.81759
9.81892
9.82029
9.82168
9.82308
9.82448
9.82587
9.82725
9.8286
9.82992
9.83121
9.83246
9.83368
9.83485
9.83598
9.83706
9.8381
9.83909
9.84003
9.84092
9.84175
9.84251
9.84321
9.84385
9.8444
9.84487
9.84525
9.84553
9.8457
9.84576
9.84569
9.84549
9.84515
9.84465
9.84399
9.84317
9.84218
9.84101
9.83966
9.83815
9.83648
9.83467
9.83274
9.83072
9.82865
9.82658
9.82454
9.82259
9.82078
9.81915
9.81773
9.81656
9.81567
9.81506
9.81475
9.43876
9.43935
9.4405
9.4422
9.44438
9.44701
9.45001
9.45334
9.45692
9.46071
9.46465
9.4687
9.47282
9.47697
9.48113
9.48525
9.48932
9.49332
9.49723
9.50105
9.50475
9.50834
9.51181
9.51515
9.51835
9.52143
9.52435
9.52713
9.52975
9.53221
9.53448
9.53656
9.53843
9.54008
9.54147
9.5426
9.54344
9.54396
9.54413
9.54394
9.54335
9.54234
9.54088
9.53894
9.53651
9.53358
9.53012
9.52614
9.52166
9.51671
9.51133
9.5056
9.4996
9.49345
9.48728
9.48122
9.47543
9.47004
9.46518
9.46096
9.45749
9.45482
9.45301
9.4521
9.08311
9.08408
9.086
9.08881
9.09242
9.09676
9.10172
9.10719
9.11309
9.11932
9.12579
9.13244
9.1392
9.14601
9.15281
9.15956
9.16622
9.17277
9.17917
9.1854
9.19146
9.19732
9.20299
9.20844
9.21369
9.21871
9.22349
9.22804
9.23233
9.23634
9.24007
9.24347
9.24654
9.24925
9.25155
9.25341
9.25479
9.25566
9.25598
9.25568
9.25474
9.25311
9.25075
9.24761
9.24365
9.23886
9.23322
9.22671
9.21937
9.21124
9.2024
9.19297
9.18308
9.17293
9.16273
9.15272
9.14314
9.13423
9.1262
9.11924
9.1135
9.1091
9.10613
9.10462
8.74235
8.74371
8.74639
8.75031
8.75536
8.7614
8.76829
8.77589
8.78407
8.79269
8.80164
8.81082
8.82014
8.82952
8.83888
8.84818
8.85734
8.86634
8.87513
8.88369
8.892
8.90004
8.90782
8.9153
8.9225
8.92939
8.93596
8.9422
8.9481
8.95362
8.95874
8.96344
8.96768
8.97141
8.9746
8.97719
8.97913
8.98037
8.98084
8.98048
8.97924
8.97705
8.97384
8.96957
8.96418
8.95763
8.94989
8.94096
8.93085
8.91963
8.9074
8.89432
8.88058
8.86646
8.85225
8.83829
8.82493
8.8125
8.8013
8.79161
8.78363
8.77752
8.77339
8.77131
8.41562
8.41738
8.42085
8.4259
8.4324
8.44016
8.449
8.45872
8.46915
8.48013
8.49151
8.50317
8.51499
8.52687
8.53873
8.55049
8.56207
8.57344
8.58453
8.59533
8.6058
8.61594
8.62573
8.63517
8.64423
8.65292
8.66121
8.66909
8.67653
8.68351
8.68999
8.69595
8.70133
8.70608
8.71015
8.71347
8.71597
8.71759
8.71825
8.71788
8.71638
8.71369
8.70973
8.70441
8.69767
8.68945
8.67971
8.66844
8.65565
8.64141
8.62584
8.60914
8.59156
8.57345
8.55519
8.53724
8.52004
8.50405
8.48967
8.47723
8.467
8.45918
8.45391
8.45125
8.10216
8.10434
8.10862
8.11485
8.12284
8.13236
8.14316
8.15501
8.16769
8.18101
8.19479
8.20888
8.22315
8.23748
8.25177
8.26592
8.27985
8.2935
8.30682
8.31976
8.33232
8.34447
8.35619
8.3675
8.37836
8.38877
8.39872
8.40817
8.41711
8.4255
8.43331
8.44049
8.44698
8.45274
8.45769
8.46175
8.46483
8.46687
8.46775
8.4674
8.46571
8.46259
8.45794
8.45166
8.44367
8.43388
8.42224
8.40872
8.39332
8.37612
8.35725
8.33694
8.31549
8.29333
8.27095
8.24891
8.22779
8.20817
8.19054
8.17532
8.16283
8.1533
8.14688
8.14365
7.80127
7.80388
7.80902
7.81648
7.82601
7.83733
7.85014
7.86414
7.87908
7.89472
7.91088
7.92737
7.94404
7.96077
7.97743
7.99391
8.01012
8.02598
8.04144
8.05646
8.07101
8.08508
8.09867
8.11176
8.12435
8.13643
8.14796
8.15894
8.16932
8.17908
8.18818
8.19656
8.20416
8.21091
8.21674
8.22155
8.22524
8.22771
8.22887
8.22859
8.22676
8.22328
8.21802
8.21087
8.20172
8.19046
8.17702
8.16134
8.14342
8.12332
8.10118
8.07724
8.05187
8.02557
7.99895
7.9727
7.94754
7.92417
7.90322
7.88517
7.8704
7.85916
7.85159
7.8478
7.51226
7.51535
7.52139
7.53015
7.5413
7.55449
7.56935
7.58554
7.60275
7.62071
7.63922
7.65807
7.67712
7.6962
7.71517
7.73393
7.75235
7.77036
7.78789
7.80489
7.82136
7.83728
7.85265
7.86746
7.88171
7.89538
7.90845
7.92089
7.93267
7.94376
7.95411
7.96367
7.97236
7.98011
7.98682
7.99239
7.99671
7.99966
8.00112
8.00096
7.99907
7.9953
7.98952
7.98159
7.97137
7.95875
7.94361
7.92587
7.90551
7.88256
7.85717
7.82959
7.80024
7.76969
7.73868
7.70804
7.67867
7.65143
7.62705
7.60612
7.58905
7.5761
7.5674
7.56304
7.23453
7.23812
7.24514
7.25528
7.26814
7.28328
7.30026
7.31867
7.33817
7.35845
7.37929
7.40048
7.42185
7.44323
7.46449
7.48546
7.50604
7.52613
7.54565
7.56457
7.58287
7.60055
7.61763
7.63409
7.64993
7.66513
7.67968
7.69354
7.70668
7.71906
7.73064
7.74135
7.75112
7.75986
7.76747
7.77381
7.77878
7.78223
7.78404
7.78407
7.78216
7.77818
7.77196
7.76334
7.75217
7.73828
7.72155
7.70186
7.67914
7.65342
7.6248
7.59355
7.56013
7.5252
7.48961
7.45439
7.42063
7.38935
7.36144
7.33757
7.31818
7.30353
7.29372
7.28882
6.9675
6.97163
6.97971
6.99133
7.006
7.02319
7.04236
7.06304
7.08483
7.10743
7.13058
7.15407
7.17774
7.20139
7.22487
7.24802
7.2707
7.2928
7.31425
7.335
7.35506
7.37443
7.39313
7.41117
7.42854
7.44523
7.4612
7.47643
7.49088
7.50451
7.51728
7.52913
7.53997
7.54971
7.55821
7.56535
7.57099
7.57498
7.57718
7.57743
7.57558
7.57145
7.56488
7.55567
7.54364
7.52861
7.5104
7.48886
7.4639
7.43546
7.40365
7.36872
7.33114
7.29167
7.2513
7.21126
7.17286
7.13736
7.10581
7.07896
7.05725
7.04092
7.03003
7.0246
6.71061
6.71535
6.72457
6.73779
6.7544
6.77374
6.79518
6.81817
6.84229
6.86719
6.89262
6.91839
6.9443
6.97019
6.99586
7.02114
7.04587
7.06993
7.09323
7.11574
7.13747
7.15845
7.1787
7.19825
7.21709
7.2352
7.25255
7.2691
7.28482
7.29966
7.3136
7.32657
7.33847
7.3492
7.35861
7.36656
7.3729
7.37746
7.38009
7.38062
7.37887
7.37468
7.36783
7.35812
7.34535
7.32928
7.30972
7.28646
7.25934
7.22829
7.19333
7.1547
7.11287
7.06868
7.02328
6.97814
6.93486
6.89494
6.85963
6.82975
6.80574
6.78778
6.77586
6.76992
6.46335
6.46876
6.47924
6.4942
6.51289
6.53449
6.55828
6.58364
6.61008
6.63727
6.66495
6.69295
6.72109
6.74917
6.777
6.80437
6.8311
6.85705
6.88213
6.90633
6.92965
6.95215
6.97389
6.99488
7.01513
7.03462
7.05329
7.07112
7.08806
7.10408
7.11916
7.13322
7.14618
7.1579
7.16823
7.17702
7.18407
7.18923
7.19232
7.19317
7.1916
7.1874
7.18036
7.17026
7.15684
7.13985
7.11906
7.0942
7.06507
7.0315
6.99346
6.95111
6.90494
6.85584
6.80515
6.75459
6.70612
6.66157
6.62237
6.58945
6.56319
6.54367
6.53078
6.52438
6.22523
6.23138
6.24325
6.26011
6.28102
6.30503
6.33127
6.35903
6.3878
6.41725
6.44715
6.47734
6.50765
6.5379
6.56785
6.59728
6.62597
6.65375
6.68055
6.70634
6.73117
6.75512
6.77826
6.80063
6.82224
6.84306
6.86301
6.88207
6.90019
6.91735
6.93353
6.94867
6.96267
6.97539
6.98666
6.99629
7.00409
7.00988
7.01347
7.01468
7.01333
7.00919
7.00205
6.99163
6.97767
6.95989
6.93799
6.91168
6.88066
6.8447
6.80366
6.75761
6.70702
6.65281
6.59652
6.54018
6.48617
6.43674
6.39356
6.35759
6.32916
6.30818
6.29441
6.2876
5.9958
6.00276
6.01617
6.03511
6.05843
6.08498
6.11374
6.14395
6.17505
6.20672
6.23879
6.27112
6.30357
6.33594
6.368
6.39945
6.43006
6.45963
6.48807
6.51537
6.54162
6.56693
6.5914
6.6151
6.63802
6.66011
6.68131
6.70155
6.7208
6.73906
6.75632
6.77252
6.78756
6.80128
6.81349
6.82399
6.83255
6.83898
6.8431
6.84472
6.84363
6.83963
6.83245
6.82182
6.80743
6.78896
6.76609
6.73847
6.70572
6.6675
6.62357
6.57386
6.51877
6.45925
6.39702
6.33449
6.27455
6.21997
6.17271
6.13375
6.10325
6.08095
6.06641
6.05924
5.77459
5.78248
5.7976
5.81882
5.84474
5.87397
5.90536
5.93804
5.97145
6.0053
6.03947
6.07389
6.10843
6.1429
6.17704
6.2105
6.24299
6.27429
6.30429
6.33303
6.3606
6.38718
6.41292
6.43788
6.46206
6.4854
6.50781
6.52919
6.54952
6.56883
6.58713
6.60437
6.62044
6.63517
6.64835
6.65972
6.66906
6.67616
6.68083
6.68289
6.68212
6.67831
6.67117
6.66041
6.64568
6.62665
6.60295
6.57415
6.53984
6.49954
6.45284
6.39955
6.3399
6.27486
6.20632
6.13712
6.07081
6.0108
5.95938
5.9175
5.88511
5.86165
5.84647
5.83902
5.5612
5.57011
5.58714
5.61087
5.63961
5.67168
5.70579
5.74098
5.77666
5.81261
5.84881
5.88525
5.92185
5.95839
5.99459
6.03004
6.06438
6.09735
6.12886
6.15893
6.18773
6.2155
6.24243
6.2686
6.294
6.31856
6.34213
6.3646
6.38597
6.40628
6.42559
6.44385
6.46095
6.4767
6.49085
6.50311
6.51325
6.52104
6.52628
6.5288
6.52839
6.52482
6.5178
6.50699
6.49202
6.47254
6.44813
6.41833
6.38263
6.34043
6.29115
6.23436
6.17012
6.09936
6.02412
5.94769
5.87448
5.80873
5.75312
5.70847
5.6744
5.64999
5.63432
5.62667
5.3552
5.36528
5.38443
5.41094
5.44272
5.4778
5.51471
5.55242
5.59033
5.6283
5.66643
5.70484
5.74343
5.78202
5.82027
5.85772
5.89387
5.92847
5.96141
5.99272
6.02265
6.05151
6.07955
6.10688
6.13347
6.15922
6.18394
6.20746
6.2298
6.25106
6.27134
6.2906
6.30872
6.3255
6.34064
6.35382
6.36476
6.37325
6.37908
6.38208
6.38207
6.3788
6.37196
6.36118
6.34607
6.32624
6.30126
6.27061
6.23369
6.18982
6.13815
6.078
6.00917
5.93251
5.85015
5.76586
5.68512
5.61332
5.55351
5.50629
5.47081
5.4457
5.42972
5.42195
5.15623
5.16762
5.18913
5.21871
5.2538
5.29203
5.33182
5.37206
5.41213
5.45202
5.49198
5.53227
5.57282
5.61342
5.65375
5.69318
5.73113
5.76731
5.8016
5.83406
5.865
5.89485
5.92394
5.95238
5.98012
6.00705
6.0329
6.05742
6.08067
6.10283
6.12404
6.14428
6.16341
6.18124
6.1974
6.21149
6.22325
6.23245
6.23887
6.24238
6.24279
6.23987
6.23327
6.2226
6.20742
6.18735
6.16193
6.13058
6.09265
6.04733
5.99352
5.93019
5.85682
5.77408
5.68416
5.59128
5.50228
5.42407
5.36014
5.31064
5.27407
5.24854
5.23243
5.22466
4.96389
4.97678
5.00091
5.03389
5.07257
5.11411
5.15686
5.19963
5.24176
5.28343
5.3251
5.3672
5.40967
5.45225
5.49466
5.53612
5.57582
5.61354
5.64912
5.6826
5.71444
5.74517
5.77526
5.80477
5.83363
5.86174
5.8887
5.91418
5.93827
5.96124
5.98335
6.00455
6.0247
6.04359
6.06079
6.07581
6.08839
6.0983
6.10533
6.10934
6.1102
6.10768
6.10139
6.09089
6.07573
6.05551
6.02976
5.99786
5.95911
5.9126
5.85694
5.79067
5.71282
5.62388
5.52596
5.42363
5.32549
5.24053
5.17261
5.12121
5.08394
5.05829
5.04227
5.03458
4.77784
4.79241
4.81946
4.85622
4.89879
4.94378
4.98954
5.03484
5.07892
5.12221
5.16545
5.2093
5.25362
5.29816
5.3427
5.3862
5.42764
5.46684
5.50365
5.53805
5.57064
5.60215
5.63318
5.66372
5.69367
5.72297
5.75105
5.77742
5.80227
5.826
5.84897
5.87111
5.89226
5.91225
5.93052
5.94647
5.95988
5.97051
5.97812
5.98265
5.98398
5.98189
5.97597
5.96571
5.95063
5.93034
5.9044
5.87209
5.8327
5.78529
5.72809
5.65916
5.57695
5.48173
5.37541
5.26263
5.15424
5.06219
4.99056
4.93772
4.9002
4.87477
4.85905
4.85154
4.59772
4.61423
4.64448
4.68543
4.73225
4.78077
4.82961
4.87745
4.92332
4.96806
5.01268
5.05822
5.10438
5.1508
5.19753
5.24316
5.28628
5.32693
5.36491
5.40008
5.4333
5.46546
5.49738
5.52893
5.55993
5.59046
5.61969
5.64688
5.67239
5.69678
5.72059
5.74366
5.76578
5.78691
5.80629
5.82317
5.8374
5.84875
5.85694
5.86198
5.86378
5.86218
5.8567
5.84674
5.8318
5.81151
5.78548
5.75288
5.71303
5.66502
5.60664
5.53541
5.449
5.34748
5.23243
5.108
4.98802
4.88856
4.81363
4.75994
4.72268
4.69781
4.6826
4.67538
4.4232
4.44194
4.47566
4.5213
4.57275
4.62485
4.67682
4.72721
4.77469
4.82066
4.86647
4.91367
4.96162
5.00984
5.05887
5.10672
5.15144
5.19349
5.23263
5.26842
5.30211
5.33478
5.36757
5.4001
5.4321
5.46392
5.49435
5.52228
5.54835
5.57329
5.59793
5.62192
5.64497
5.66729
5.68785
5.70562
5.72068
5.73276
5.7415
5.74703
5.74932
5.74825
5.74325
5.73366
5.71889
5.69866
5.67266
5.63988
5.59972
5.55144
5.49228
5.41918
5.32872
5.22097
5.09699
4.95951
4.82623
4.71913
4.6415
4.58767
4.5512
4.52726
4.51276
4.50592
4.25394
4.27529
4.31273
4.36362
4.42015
4.47576
4.53091
4.5839
4.63274
4.67972
4.72648
4.77535
4.82507
4.87495
4.92642
4.97665
5.02283
5.06627
5.10655
5.14279
5.17679
5.2098
5.24346
5.27698
5.30989
5.34309
5.3748
5.40336
5.42988
5.45524
5.48071
5.50561
5.52954
5.55312
5.57493
5.59356
5.60944
5.62227
5.63151
5.63752
5.64029
5.6398
5.63535
5.62618
5.61162
5.59148
5.56564
5.53276
5.4924
5.4442
5.38469
5.31022
5.21589
5.10205
4.96919
4.817
4.6682
4.55338
4.47388
4.42074
4.38563
4.36297
4.34938
4.343
4.08961
4.11407
4.15537
4.21217
4.27433
4.33324
4.39162
4.44735
4.49722
4.54498
4.59236
4.64298
4.69447
4.74577
4.79991
4.85273
4.90016
4.94497
4.98645
5.02291
5.05706
5.09021
5.12481
5.15931
5.19299
5.22772
5.26085
5.28988
5.31671
5.34234
5.36869
5.39451
5.41919
5.44415
5.46733
5.48672
5.50341
5.51702
5.52671
5.53317
5.5364
5.53654
5.53272
5.52403
5.50968
5.48965
5.46412
5.4312
5.39067
5.34296
5.28353
5.20833
5.11025
4.99053
4.84921
4.68032
4.51316
4.3908
4.31055
4.25902
4.22587
4.20481
4.19231
4.18648
3.92988
3.95811
4.00325
4.06679
4.13523
4.19702
4.25871
4.31738
4.36785
4.41617
4.46377
4.5163
4.56961
4.62195
4.67906
4.7348
4.78314
4.82933
4.87213
4.90851
4.94267
4.97569
5.01135
5.04688
5.08108
5.11756
5.15232
5.18159
5.20863
5.2343
5.26162
5.28839
5.31364
5.34014
5.36483
5.38483
5.40235
5.41678
5.42683
5.43372
5.43738
5.43822
5.43509
5.42693
5.4128
5.39285
5.36781
5.33487
5.29416
5.24739
5.18846
5.11331
5.01152
4.88616
4.73739
4.54943
4.36016
4.23087
4.15133
4.10243
4.07181
4.05267
4.04141
4.03618
3.77441
3.80735
3.856
3.92729
4.00285
4.06676
4.13191
4.19389
4.24434
4.29306
4.34032
4.39509
4.45029
4.50308
4.56364
4.62274
4.67143
4.71908
4.76344
4.79934
4.8334
4.86593
4.90287
4.9395
4.97385
5.01238
5.04906
5.07825
5.1054
5.13082
5.15928
5.18705
5.21259
5.24084
5.26727
5.28764
5.30601
5.32136
5.33163
5.33894
5.34297
5.34459
5.34221
5.33467
5.32072
5.30077
5.27649
5.24351
5.20245
5.15717
5.09912
5.02502
4.91939
4.78863
4.63425
4.42439
4.20806
4.07313
3.99611
3.95093
3.92338
3.90642
3.89653
3.89195
3.62283
3.66178
3.71319
3.79352
3.8773
3.94208
4.01093
4.07682
4.12638
4.17546
4.22161
4.27914
4.33642
4.38871
4.45339
4.5165
4.56471
4.61393
4.66024
4.69509
4.72904
4.76058
4.79915
4.83701
4.87094
4.91197
4.95098
4.9796
5.00685
5.0316
5.06148
5.09035
5.11571
5.14606
5.1745
5.19487
5.21415
5.23055
5.24085
5.2486
5.25289
5.2554
5.25385
5.247
5.2332
5.21311
5.18992
5.15686
5.11512
5.07203
5.0151
4.94338
4.83351
4.69745
4.54052
4.3054
4.05541
3.91717
3.84486
3.80449
3.78051
3.76594
3.75751
3.75362
3.47473
3.52158
3.57429
3.66531
3.75877
3.82253
3.89548
3.9662
4.01363
4.06325
4.10717
4.16828
4.22792
4.27835
4.34809
4.41611
4.46257
4.51362
4.56249
4.59548
4.62943
4.65927
4.70003
4.73932
4.77196
4.81611
4.85803
4.88538
4.9128
4.9363
4.96804
4.99815
5.02267
5.05557
5.08645
5.10626
5.12654
5.14421
5.15425
5.16248
5.1669
5.17045
5.16978
5.16373
5.15002
5.12953
5.10794
5.07471
5.03172
4.99173
4.93596
4.86839
4.7535
4.61194
4.45722
4.19281
3.9004
3.7627
3.69764
3.66313
3.64312
3.63111
3.6242
3.62102
3.32964
3.38707
3.43863
3.54253
3.64762
3.70753
3.78524
3.86213
3.90564
3.95636
3.99646
4.06238
4.12485
4.17139
4.24752
4.32171
4.36456
4.41785
4.47018
4.50016
4.53448
4.56157
4.60536
4.64639
4.67646
4.72461
4.77021
4.79528
4.82314
4.84456
4.8788
4.9104
4.93307
4.96918
5.00306
5.02147
5.04296
5.06221
5.07157
5.08041
5.08474
5.08952
5.08979
5.08467
5.07097
5.04968
5.0304
4.99686
4.95174
4.91611
4.86115
4.80017
4.67897
4.53114
4.38567
4.08721
3.74073
3.60961
3.55461
3.52688
3.51115
3.5018
3.49645
3.49399
3.18701
3.25885
3.30536
3.42505
3.54439
3.59636
3.67987
3.76487
3.80189
3.85487
3.88885
3.96134
4.02736
4.06711
4.15148
4.23355
4.27013
4.32634
4.38341
4.4087
4.44418
4.46702
4.51501
4.55827
4.58391
4.63728
4.68762
4.70892
4.73785
4.75596
4.79364
4.82709
4.84649
4.88673
4.92437
4.94019
4.96317
4.98447
4.99254
5.00224
5.00613
5.01243
5.01365
5.00964
4.99589
4.97319
4.95722
4.9232
4.87462
4.84511
4.79001
4.73902
4.60949
4.45372
4.32759
3.98948
3.57348
3.45807
3.41598
3.39578
3.38451
3.37787
3.37409
3.37235
3.04618
3.13779
3.1734
3.31272
3.44983
3.4881
3.57903
3.67483
3.70168
3.75898
3.78357
3.86513
3.93576
3.96462
4.05979
4.15206
4.17861
4.23878
4.30241
4.32062
4.3586
4.37505
4.4289
4.47509
4.49369
4.55396
4.61044
4.62586
4.65694
4.67002
4.71247
4.74829
4.7624
4.80804
4.85047
4.86202
4.88699
4.91094
4.91686
4.92784
4.93082
4.93903
4.94117
4.9385
4.92465
4.89963
4.88836
4.85367
4.79969
4.77879
4.72173
4.68539
4.54468
4.37785
4.28516
3.90084
3.39497
3.30863
3.28207
3.26985
3.26313
3.25919
3.25695
3.25592
2.90633
3.0252
3.04134
3.20542
3.365
3.3816
3.48231
3.59262
3.60414
3.66914
3.67966
3.77373
3.85053
3.86287
3.97226
4.07784
4.0892
4.15484
4.22751
4.23526
4.27797
4.28498
4.34699
4.39711
4.40506
4.47449
4.53894
4.54554
4.58058
4.58617
4.63521
4.67416
4.68021
4.73297
4.78154
4.78651
4.81418
4.84164
4.84421
4.85715
4.8585
4.86919
4.87213
4.8711
4.85716
4.8285
4.82383
4.78826
4.72617
4.71741
4.65526
4.64
4.48417
4.3011
4.26106
3.82294
3.20054
3.16234
3.15319
3.14913
3.1469
3.1456
3.14486
3.14453
)
;

boundaryField
{
    left
    {
        type            zeroGradient;
    }
    right
    {
        type            zeroGradient;
    }
    interface
    {
        type            fixedValue;
        value           nonuniform List<scalar> 
64
(
2.83483
2.97288
2.97288
3.1531
3.32732
3.32732
3.4348
3.55506
3.55506
3.62669
3.62669
3.72952
3.81057
3.81057
3.92959
4.04409
4.04409
4.11367
4.19268
4.19268
4.23957
4.23957
4.30727
4.36007
4.36007
4.43582
4.50567
4.50567
4.54416
4.54416
4.59774
4.63881
4.63881
4.69641
4.74904
4.74904
4.77863
4.80842
4.80842
4.8229
4.8229
4.83527
4.83852
4.83852
4.82458
4.79311
4.79311
4.75701
4.68884
4.68884
4.62156
4.62156
4.45533
4.25982
4.25982
3.78975
3.09007
3.09007
3.09007
3.09007
3.09007
3.09007
3.09007
3.09007
)
;
    }
    bottom
    {
        type            fixedValue;
        value           uniform 10;
    }
    defaultFaces
    {
        type            empty;
    }
}


// ************************************************************************* //
