/*--------------------------------*- C++ -*----------------------------------*\
| =========                 |                                                 |
| \\      /  F ield         | OpenFOAM: The Open Source CFD Toolbox           |
|  \\    /   O peration     | Version:  5.x                                   |
|   \\  /    A nd           | Web:      www.OpenFOAM.org                      |
|    \\/     M anipulation  |                                                 |
\*---------------------------------------------------------------------------*/
FoamFile
{
    version     2.0;
    format      ascii;
    class       volScalarField;
    location    "4.1";
    object      gradTx;
}
// * * * * * * * * * * * * * * * * * * * * * * * * * * * * * * * * * * * * * //

dimensions      [0 -1 0 1 0 0 0];

internalField   nonuniform List<scalar> 
3200
(
45.2116
3.71202
1.64866
1.54011
0.814796
0.771203
0.466519
0.447061
0.293616
0.282512
0.170679
0.166537
0.180515
0.180664
0.172981
0.17214
0.159382
0.158267
0.144169
0.142989
0.128729
0.127561
0.113782
0.112689
0.100171
0.0992859
0.0901335
0.0901297
0.0950926
0.164814
0.0825486
0.0553275
0.0535008
0.0417699
0.040944
0.0333593
0.0328013
0.0270924
0.0266633
0.0221077
0.0217612
0.0180199
0.0177319
0.0145772
0.0143293
0.0115502
0.011322
0.00864381
0.00840343
0.00525605
0.00512449
0.00512971
0.00508222
0.00401469
0.00390132
0.00224579
0.00207989
-0.00023241
-0.000470312
-0.00383405
-0.00419691
-0.00946903
-0.0100745
-0.0191504
-0.0202982
-0.0381496
-0.04082
-0.0839725
-0.0928863
-0.238556
-0.616822
-0.435879
-0.6811
-0.712445
-1.26738
-1.24178
-0.0557589
-0.00752446
-0.00152445
-52.9518
47.8961
3.10534
1.57725
1.35444
0.773928
0.68086
0.436136
0.39453
0.271599
0.24801
0.160189
0.151346
0.160826
0.161033
0.15506
0.153289
0.143225
0.140865
0.129708
0.127206
0.115914
0.113439
0.10253
0.100215
0.0903273
0.0884678
0.0814142
0.08157
0.0883822
0.137419
0.0766453
0.0516787
0.0476106
0.0380921
0.0363209
0.0302742
0.0290875
0.0245534
0.0236423
0.0200276
0.0192922
0.0163244
0.0157133
0.0132106
0.0126844
0.0104786
0.0099941
0.00786682
0.00735947
0.00490322
0.00462368
0.00458272
0.00447893
0.0036363
0.00339604
0.00208319
0.00173095
-0.000106442
-0.000612136
-0.00328871
-0.00406088
-0.00826358
-0.00955462
-0.0168148
-0.0192729
-0.0336683
-0.0394531
-0.0750022
-0.0949036
-0.226914
-0.51732
-0.414529
-0.601596
-0.66613
-1.08432
-1.03071
-0.121765
-0.020884
-0.00438357
-54.7473
50.5638
2.57652
1.45362
1.18307
0.713561
0.596583
0.397628
0.345252
0.245608
0.216078
0.14654
0.135422
0.141508
0.141648
0.136972
0.13477
0.12676
0.123815
0.114901
0.111776
0.102746
0.0996541
0.0909334
0.0880435
0.0801626
0.0778576
0.0724065
0.0727441
0.079983
0.114415
0.0693097
0.0471939
0.0419384
0.0341044
0.0318688
0.0269948
0.0255076
0.0218694
0.0207293
0.0178324
0.0169125
0.0145347
0.0137703
0.0117649
0.0111067
0.00933815
0.00873191
0.00702503
0.00639347
0.00446331
0.00411332
0.00403823
0.00390519
0.00323382
0.00293366
0.00188217
0.0014414
-3.37455e-05
-0.000667131
-0.00281955
-0.00378763
-0.0071746
-0.00879594
-0.0146714
-0.0177702
-0.0295314
-0.0368955
-0.0666578
-0.0924366
-0.208936
-0.433545
-0.381584
-0.526993
-0.60567
-0.920121
-0.853857
-0.155449
-0.0308684
-0.00672685
-56.5427
53.2108
2.11328
1.2959
1.01967
0.639094
0.515586
0.353257
0.297865
0.216813
0.185746
0.130554
0.11881
0.122428
0.122457
0.118784
0.116483
0.110092
0.107004
0.0998623
0.0965812
0.089341
0.0860944
0.079104
0.076072
0.0697748
0.0673733
0.0631674
0.0636421
0.070496
0.0945936
0.0610546
0.0420347
0.0363693
0.0298927
0.0275223
0.0235798
0.0220136
0.0190854
0.0178867
0.015558
0.0145911
0.0126803
0.011877
0.0102653
0.00957338
0.00815121
0.00751375
0.00614022
0.00547941
0.00396019
0.00359197
0.00349606
0.00335299
0.00281648
0.00250133
0.00165671
0.00119323
5.27622e-06
-0.000661368
-0.00239778
-0.00341763
-0.00615625
-0.0078671
-0.0126389
-0.015921
-0.0255704
-0.033442
-0.0584727
-0.0863407
-0.186633
-0.360834
-0.340744
-0.45506
-0.535779
-0.771155
-0.702286
-0.166179
-0.0368352
-0.00832528
-58.3378
55.8364
1.70416
1.11653
0.860441
0.554344
0.436142
0.304609
0.251505
0.186019
0.156379
0.11283
0.101584
0.103491
0.103414
0.100542
0.0983597
0.0932926
0.0903549
0.0846693
0.0815452
0.0757762
0.0726846
0.0671163
0.0642311
0.0592313
0.0569612
0.053741
0.054285
0.0603193
0.0770773
0.0522186
0.0363413
0.0308326
0.0255167
0.0232386
0.0200698
0.0185742
0.0162323
0.0150892
0.0132292
0.0123075
0.0107817
0.010016
0.00872888
0.00806928
0.00693288
0.00632503
0.0052269
0.00459968
0.00341104
0.00305973
0.00295578
0.00281652
0.00239029
0.00209018
0.00141601
0.000974031
2.34422e-05
-0.000612818
-0.00200466
-0.00297889
-0.00517902
-0.00681582
-0.0106661
-0.013817
-0.0216806
-0.0293022
-0.0501741
-0.0773479
-0.161374
-0.295894
-0.294527
-0.384471
-0.459701
-0.634359
-0.569405
-0.160639
-0.0387686
-0.00905597
-60.1327
58.4418
1.33872
0.923904
0.703211
0.462078
0.357231
0.252823
0.20564
0.15379
0.127568
0.0938137
0.0838313
0.0846343
0.0844825
0.0822723
0.0803518
0.0764079
0.073816
0.0693739
0.066615
0.0621043
0.0593739
0.0550213
0.0524748
0.0485786
0.0465871
0.0441641
0.0447083
0.0497137
0.0612256
0.0430235
0.0302331
0.0252883
0.0210193
0.0189905
0.0164928
0.0151686
0.0133312
0.0123204
0.0108628
0.010048
0.00885271
0.00817581
0.00716737
0.00658425
0.00569341
0.00515591
0.00429475
0.00374241
0.00282839
0.00251759
0.0024169
0.00229153
0.00195905
0.00169399
0.00116602
0.000775177
2.90321e-05
-0.000534048
-0.00162826
-0.00249111
-0.00422432
-0.00567601
-0.00872129
-0.0115246
-0.0178004
-0.0246323
-0.0416234
-0.066081
-0.134096
-0.236389
-0.244659
-0.31447
-0.379646
-0.507147
-0.450277
-0.143623
-0.0370158
-0.00889404
-61.9273
61.0296
1.00751
0.723511
0.546799
0.364361
0.278302
0.198749
0.159962
0.120537
0.0990585
0.0738468
0.0656474
0.0658154
0.0656334
0.063991
0.062425
0.0594692
0.0573511
0.0540112
0.051755
0.0483612
0.0461281
0.0428542
0.0407726
0.0378497
0.0362303
0.0344686
0.0349532
0.0388479
0.0465626
0.0336119
0.0238111
0.0197169
0.0164322
0.0147612
0.0128689
0.0117835
0.010397
0.00956942
0.00847065
0.00780377
0.00690294
0.0063489
0.00558885
0.00511152
0.0044398
0.00399974
0.00335024
0.00289961
0.00222161
0.00196704
0.00187902
0.00177483
0.00152512
0.00130831
0.000910537
0.000590532
2.72973e-05
-0.000434036
-0.00126111
-0.00196852
-0.00328089
-0.00447246
-0.00678613
-0.00909327
-0.0138979
-0.0195561
-0.0327741
-0.0530718
-0.105446
-0.180646
-0.192329
-0.244655
-0.297099
-0.38731
-0.34114
-0.118605
-0.0321235
-0.00789719
-63.7216
63.6031
0.701954
0.518826
0.390617
0.262789
0.199113
0.143044
0.114309
0.086566
0.0706985
0.0531994
0.0471288
0.0470106
0.0468429
0.0457066
0.0445538
0.042497
0.0409351
0.0386052
0.0369405
0.0345717
0.0329239
0.0306393
0.029104
0.0270687
0.0258792
0.0246831
0.0250617
0.0278292
0.0327262
0.0240742
0.0171609
0.0141131
0.0117806
0.0105407
0.00921275
0.00841043
0.00744051
0.0068293
0.00606125
0.00556886
0.00493929
0.00453023
0.00399902
0.00364656
0.00317692
0.00285194
0.00239778
0.0020659
0.00159789
0.00140984
0.00134178
0.00126394
0.00108986
0.000929876
0.000651945
0.000415615
2.14848e-05
-0.000319396
-0.000898752
-0.00142173
-0.00234229
-0.00322402
-0.00485124
-0.00656204
-0.00996131
-0.0141775
-0.0236416
-0.0387796
-0.0758831
-0.127443
-0.138373
-0.174834
-0.213041
-0.272928
-0.239057
-0.0881453
-0.024741
-0.00618823
-65.5156
66.1661
0.4142
0.311945
0.234419
0.158651
0.11962
0.0862452
0.0686161
0.05212
0.0424038
0.0320949
0.0283721
0.0282077
0.028091
0.027423
0.0267187
0.025505
0.0245498
0.0231726
0.0221541
0.0207534
0.0197453
0.0183945
0.0174554
0.0162539
0.0155284
0.0148348
0.0150746
0.0167254
0.0194317
0.0144671
0.0103561
0.00848073
0.00708522
0.00632375
0.00553554
0.00504407
0.00446963
0.00409545
0.00364082
0.00333943
0.00296682
0.00271645
0.00240203
0.00218628
0.00190825
0.00170931
0.00144042
0.00123764
0.000962979
0.000847828
0.000804932
0.000756907
0.000654046
0.000556156
0.000391688
0.000247009
1.35411e-05
-0.000195217
-0.00053865
-0.000859044
-0.00140524
-0.00194576
-0.002913
-0.00396327
-0.00599204
-0.00858902
-0.0142822
-0.0236088
-0.0457421
-0.0758657
-0.083396
-0.104945
-0.128116
-0.162297
-0.141657
-0.0541852
-0.0155645
-0.00393819
-67.3095
68.7228
0.136915
0.104074
0.0781504
0.0530431
0.0399008
0.028817
0.0228782
0.0174027
0.0141328
0.010727
0.00947316
0.00940295
0.0093613
0.00914077
0.00890404
0.00850275
0.00818149
0.00772572
0.0073831
0.00691947
0.00658031
0.00613325
0.00581739
0.00542
0.00517636
0.00494904
0.00503108
0.00557935
0.00644414
0.00482575
0.00346177
0.00282915
0.00236451
0.00210785
0.00184646
0.00168103
0.00149074
0.00136482
0.00121426
0.00111285
0.000989464
0.000905217
0.000801098
0.000728502
0.000636419
0.000569475
0.000480418
0.000412247
0.000321684
0.000282931
0.00026829
0.000252065
0.00021803
0.000185098
0.00013064
8.19544e-05
4.60825e-06
-6.56531e-05
-0.00017947
-0.000287325
-0.000468427
-0.000650441
-0.000971438
-0.00132537
-0.00200004
-0.00287666
-0.00477735
-0.00792569
-0.0152814
-0.025192
-0.0278582
-0.0349899
-0.0427498
-0.0538584
-0.0469292
-0.018271
-0.00530825
-0.00135089
-69.1032
68.7178
0.15082
0.12839
0.107448
0.0852021
0.0726897
0.0607287
0.0533237
0.0448632
0.0387413
0.0309824
0.0281682
0.0282757
0.02817
0.0273315
0.0264305
0.0249113
0.0237224
0.022076
0.0208811
0.0193234
0.0182271
0.0168396
0.0158934
0.0147479
0.0140702
0.0134775
0.0137693
0.0154323
0.0179985
0.0136422
0.0100018
0.00832967
0.00712296
0.00645894
0.00578254
0.00535087
0.00484836
0.00451133
0.00410177
0.00382165
0.00347486
0.00323412
0.00293095
0.00271512
0.0024347
0.00222395
0.00193336
0.00170047
0.00138236
0.00127067
0.001287
0.00128792
0.00125469
0.00121604
0.00114849
0.00109465
0.00101886
0.000962637
0.000887338
0.000830956
0.00075339
0.00068818
0.000585245
0.000470953
0.000244051
-0.000101215
-0.000923208
-0.00247087
-0.00627879
-0.0118745
-0.0151547
-0.0221432
-0.029582
-0.0405299
-0.036126
-0.014118
-0.00410637
-0.00104538
-69.8073
66.151
0.455826
0.38511
0.322397
0.255217
0.218047
0.182004
0.160013
0.134496
0.116289
0.0927494
0.0843879
0.0848356
0.0845393
0.0819971
0.0793162
0.0747206
0.0711855
0.06621
0.0626579
0.0579517
0.054693
0.0505012
0.0476883
0.0442249
0.0422071
0.0403971
0.0412532
0.0462608
0.0542723
0.0408979
0.0299266
0.0249704
0.0213472
0.0193773
0.0173378
0.0160555
0.0145385
0.0135369
0.0123001
0.0114676
0.0104203
0.00970487
0.00878937
0.00814794
0.00730132
0.00667506
0.00579778
0.00510483
0.00413882
0.00380689
0.00386161
0.00386514
0.00376428
0.00364928
0.00344493
0.00328485
0.0030558
0.00288868
0.00266126
0.00249372
0.00225968
0.00206605
0.00175619
0.00141737
0.000736892
-0.000284571
-0.00274059
-0.0073222
-0.0187648
-0.0357162
-0.0453157
-0.0664115
-0.0886057
-0.122204
-0.109082
-0.0418741
-0.0120411
-0.0030476
-69.4218
63.5767
0.77102
0.64151
0.537524
0.424031
0.36336
0.302717
0.266844
0.223837
0.194051
0.153909
0.140255
0.141425
0.140998
0.136668
0.132279
0.124487
0.118706
0.110287
0.104481
0.0965222
0.0911962
0.0841076
0.0795092
0.0736442
0.0703357
0.0672102
0.068571
0.0769691
0.0914017
0.0680576
0.0496108
0.0415578
0.0355053
0.0322985
0.0288629
0.0267694
0.024208
0.0225719
0.0204823
0.0191222
0.0173526
0.0161836
0.0146369
0.013589
0.0121592
0.0111362
0.00965484
0.00852014
0.00686993
0.00632766
0.00643829
0.00644655
0.00627445
0.00608611
0.00573961
0.00547781
0.00509029
0.00481715
0.00443281
0.00415916
0.00376437
0.00344859
0.00292832
0.00237747
0.00124339
-0.000410528
-0.00447293
-0.0118991
-0.0310305
-0.0598519
-0.0750167
-0.110636
-0.147173
-0.205746
-0.184202
-0.0681352
-0.0191422
-0.00478899
-69.0363
60.9905
1.10347
0.896889
0.753031
0.590733
0.508671
0.422439
0.373961
0.312648
0.272226
0.21401
0.19553
0.198079
0.197614
0.191342
0.185377
0.174174
0.166333
0.15426
0.14639
0.134987
0.12777
0.117614
0.111381
0.102961
0.098457
0.0938438
0.0956074
0.107436
0.130042
0.0950214
0.0688793
0.0580653
0.0495496
0.045229
0.0403343
0.0375022
0.0338406
0.031625
0.0286354
0.0267932
0.0242608
0.0226776
0.0204644
0.0190454
0.0170007
0.0156158
0.0134981
0.0119561
0.00955675
0.00882234
0.00901908
0.00903521
0.0087853
0.00852929
0.00803093
0.00767584
0.00712022
0.0067501
0.00619995
0.00582947
0.00526593
0.00483934
0.00410169
0.00336092
0.00177071
-0.000440117
-0.00607069
-0.0160077
-0.0429085
-0.0845337
-0.1039
-0.154823
-0.204859
-0.292493
-0.263102
-0.0917132
-0.0248577
-0.00611187
-68.6506
58.3877
1.46066
1.14976
0.969277
0.754225
0.654149
0.540652
0.48159
0.400624
0.351114
0.272521
0.249963
0.254853
0.254461
0.246003
0.238685
0.223726
0.214128
0.198064
0.18844
0.173285
0.164461
0.150965
0.14334
0.132122
0.126583
0.120222
0.122241
0.137472
0.170988
0.12163
0.0875348
0.0744809
0.0634262
0.0581824
0.0517233
0.0482682
0.0434153
0.0407092
0.0367427
0.0344919
0.0311312
0.0291967
0.0262603
0.0245268
0.021816
0.0201247
0.0173183
0.0154264
0.012177
0.0112798
0.0116071
0.0116345
0.0112964
0.0109822
0.0103166
0.00988192
0.00914278
0.00869028
0.00795995
0.00750754
0.00676204
0.00624256
0.00527522
0.00437839
0.00232289
-0.000332873
-0.00749614
-0.0194376
-0.0541974
-0.110106
-0.13152
-0.199046
-0.261041
-0.383921
-0.347682
-0.11111
-0.0286488
-0.00688384
-68.2647
55.7646
1.85058
1.39741
1.1869
0.913118
0.800164
0.656687
0.590096
0.487342
0.431165
0.32879
0.303298
0.311839
0.311632
0.300619
0.292299
0.273064
0.262182
0.241611
0.230712
0.21133
0.20134
0.18408
0.175443
0.161055
0.154742
0.146266
0.148347
0.166777
0.215249
0.147629
0.105349
0.0908167
0.0770705
0.0711845
0.0629922
0.0590902
0.0529043
0.0498439
0.0447814
0.0422351
0.0379446
0.0357561
0.0320081
0.0300474
0.0265905
0.0246783
0.021102
0.018951
0.0147032
0.0136883
0.0142072
0.0142485
0.0138067
0.0134492
0.012593
0.0121002
0.0111539
0.0106416
0.00970888
0.00919739
0.00824917
0.00766375
0.00644599
0.00544225
0.00289913
-4.52731e-05
-0.0087304
-0.0219548
-0.0646403
-0.137057
-0.157296
-0.24349
-0.314787
-0.481713
-0.440275
-0.124342
-0.030012
-0.0070097
-67.8786
53.1183
2.28183
1.63536
1.40706
1.06558
0.9474
0.769646
0.700048
0.572197
0.513064
0.381985
0.355272
0.369174
0.369235
0.355127
0.346349
0.322068
0.310625
0.284772
0.273323
0.248999
0.238509
0.21685
0.207776
0.189666
0.182987
0.171887
0.173798
0.19488
0.264153
0.172614
0.122053
0.107121
0.0904005
0.084279
0.0740896
0.0700037
0.0622684
0.0590588
0.0527195
0.0500481
0.0446739
0.0423779
0.0376845
0.035628
0.0313034
0.0292985
0.0248288
0.0225596
0.0171002
0.0160356
0.0168265
0.0168819
0.0163136
0.0159363
0.014855
0.0143368
0.0131478
0.0126099
0.011441
0.0109048
0.00972184
0.0091103
0.00760826
0.00656775
0.00349149
0.000472027
-0.00978301
-0.0232934
-0.0738937
-0.166096
-0.180433
-0.288529
-0.364708
-0.58784
-0.543848
-0.12871
-0.0285221
-0.00644461
-67.4922
50.4474
2.76355
1.85658
1.63175
1.20911
1.09702
0.87828
0.812331
0.654303
0.59784
0.431005
0.405621
0.427064
0.427404
0.409422
0.40102
0.370558
0.359643
0.327356
0.31645
0.286115
0.276125
0.249117
0.240471
0.217819
0.211409
0.196989
0.198483
0.221056
0.319491
0.19596
0.137332
0.123497
0.103307
0.0975364
0.0849429
0.0810633
0.0714516
0.0683991
0.0605111
0.0579693
0.0512803
0.0490957
0.0432555
0.0412994
0.0359236
0.0340174
0.0284677
0.0262959
0.0193215
0.0183087
0.0194753
0.0195404
0.018813
0.0184516
0.0170945
0.0166002
0.0151157
0.0146034
0.0131479
0.0126381
0.0111717
0.0105925
0.00875214
0.00777477
0.00408166
0.00127884
-0.0107053
-0.0231483
-0.0814829
-0.198249
-0.199819
-0.334845
-0.40875
-0.704651
-0.662266
-0.120479
-0.0239078
-0.00520762
-67.1057
47.7528
3.30525
2.05051
1.86435
1.34021
1.2509
0.980801
0.928297
0.732346
0.687032
0.474367
0.454098
0.485797
0.486306
0.463334
0.456573
0.418267
0.409517
0.369085
0.360353
0.322418
0.314422
0.28065
0.273726
0.245323
0.240152
0.221453
0.222325
0.244198
0.383707
0.21671
0.15082
0.140128
0.115636
0.111067
0.095448
0.0923523
0.0803726
0.0779329
0.0680889
0.0660566
0.0577067
0.0559599
0.0486714
0.0471077
0.0404051
0.0388821
0.0319716
0.0302243
0.0213043
0.0204947
0.0221682
0.0222306
0.0212978
0.0210068
0.0192996
0.0189034
0.0170447
0.0166348
0.0148171
0.0144098
0.0125863
0.0121253
0.0098616
0.0090905
0.00463632
0.002453
-0.0116091
-0.0211674
-0.0867345
-0.235009
-0.213867
-0.383606
-0.443912
-0.834992
-0.80066
-0.0944403
-0.0161785
-0.00339373
-66.7189
45.039
3.91632
2.20171
2.11047
1.45392
1.41202
1.07462
1.05
0.804365
0.782918
0.510033
0.500496
0.545779
0.546148
0.516598
0.513388
0.464794
0.460658
0.409546
0.405425
0.357522
0.353751
0.311109
0.307841
0.271898
0.269436
0.245135
0.245328
0.262635
0.460184
0.233417
0.1621
0.157311
0.127169
0.12504
0.105452
0.103997
0.0889122
0.087763
0.0753545
0.0743968
0.0638691
0.063046
0.0538584
0.0531217
0.0446796
0.0439626
0.0352691
0.0344399
0.0229629
0.0225814
0.0249257
0.0249608
0.0237571
0.0236188
0.0214525
0.0212652
0.018916
0.0187226
0.0164301
0.0162383
0.0139464
0.0137304
0.0109115
0.0105537
0.00510026
0.00410245
-0.0126929
-0.016946
-0.0886776
-0.278546
-0.220279
-0.436743
-0.465842
-0.98235
-0.965929
-0.0432827
-0.00583021
-0.00118023
-66.3321
45.039
3.91632
2.20171
2.11047
1.45393
1.41202
1.07462
1.05
0.804365
0.782919
0.510033
0.500497
0.545779
0.546149
0.516599
0.513389
0.464794
0.460658
0.409547
0.405426
0.357523
0.353751
0.31111
0.307841
0.271898
0.269437
0.245136
0.245328
0.262635
0.460185
0.233417
0.1621
0.157311
0.127169
0.12504
0.105453
0.103997
0.0889125
0.0877633
0.0753548
0.0743971
0.0638694
0.0630462
0.0538586
0.0531219
0.0446798
0.0439628
0.0352693
0.03444
0.022963
0.0225815
0.0249258
0.0249609
0.0237572
0.0236189
0.0214526
0.0212653
0.0189162
0.0187228
0.0164302
0.0162384
0.0139465
0.0137305
0.0109116
0.0105538
0.00510046
0.00410264
-0.0126927
-0.0169458
-0.0886776
-0.278547
-0.220281
-0.436749
-0.465848
-0.982368
-0.965946
-0.0432834
-0.00583031
-0.0011803
-66.332
47.7528
3.30525
2.05051
1.86435
1.34021
1.2509
0.980802
0.928298
0.732347
0.687033
0.474367
0.454099
0.485798
0.486307
0.463335
0.456573
0.418267
0.409517
0.369085
0.360354
0.322418
0.314423
0.280651
0.273727
0.245323
0.240153
0.221454
0.222326
0.244199
0.383708
0.216711
0.15082
0.140128
0.115636
0.111067
0.0954483
0.0923526
0.0803729
0.0779331
0.0680892
0.0660569
0.0577069
0.0559601
0.0486716
0.0471079
0.0404053
0.0388823
0.0319718
0.0302245
0.0213044
0.0204947
0.0221683
0.0222307
0.0212979
0.0210069
0.0192998
0.0189035
0.0170449
0.016635
0.0148173
0.0144099
0.0125864
0.0121255
0.00986176
0.00909067
0.00463651
0.00245319
-0.0116089
-0.0211673
-0.0867347
-0.235011
-0.213869
-0.383611
-0.443918
-0.835007
-0.800674
-0.0944418
-0.0161788
-0.0033938
-66.7189
50.4474
2.76355
1.85658
1.63175
1.20911
1.09702
0.87828
0.812332
0.654303
0.597841
0.431005
0.405622
0.427064
0.427404
0.409423
0.40102
0.370559
0.359644
0.327356
0.31645
0.286116
0.276126
0.249118
0.240471
0.217819
0.21141
0.196989
0.198484
0.221057
0.319492
0.195961
0.137333
0.123498
0.103307
0.0975367
0.0849432
0.0810635
0.0714519
0.0683993
0.0605113
0.0579696
0.0512806
0.0490959
0.0432557
0.0412996
0.0359237
0.0340175
0.0284679
0.026296
0.0193215
0.0183087
0.0194754
0.0195405
0.0188131
0.0184517
0.0170946
0.0166003
0.0151158
0.0146036
0.0131481
0.0126382
0.0111719
0.0105927
0.00875229
0.00777491
0.00408183
0.001279
-0.0107051
-0.0231482
-0.0814831
-0.19825
-0.199821
-0.33485
-0.408756
-0.704663
-0.662278
-0.120481
-0.0239081
-0.00520765
-67.1056
53.1183
2.28183
1.63536
1.40706
1.06558
0.9474
0.769647
0.700049
0.572197
0.513064
0.381985
0.355272
0.369175
0.369235
0.355128
0.34635
0.322068
0.310625
0.284772
0.273324
0.249
0.238509
0.216851
0.207777
0.189666
0.182987
0.171888
0.173799
0.194881
0.264154
0.172614
0.122053
0.107121
0.0904007
0.0842793
0.0740898
0.0700039
0.0622686
0.0590591
0.0527197
0.0500483
0.0446741
0.0423781
0.0376847
0.0356281
0.0313035
0.0292986
0.024829
0.0225597
0.0171003
0.0160356
0.0168266
0.016882
0.0163137
0.0159364
0.0148551
0.0143369
0.0131479
0.01261
0.0114411
0.0109049
0.00972196
0.00911042
0.00760838
0.00656788
0.00349163
0.000472168
-0.00978287
-0.0232934
-0.073894
-0.166097
-0.180434
-0.288533
-0.364713
-0.58785
-0.543857
-0.128712
-0.0285225
-0.0064446
-67.4922
55.7646
1.85058
1.39741
1.1869
0.913119
0.800164
0.656687
0.590096
0.487342
0.431165
0.328791
0.303298
0.311839
0.311632
0.300619
0.292299
0.273064
0.262183
0.241612
0.230712
0.21133
0.20134
0.18408
0.175443
0.161055
0.154742
0.146266
0.148347
0.166777
0.215249
0.147629
0.105349
0.090817
0.0770707
0.0711848
0.0629924
0.0590904
0.0529045
0.0498441
0.0447815
0.0422352
0.0379447
0.0357562
0.0320082
0.0300476
0.0265907
0.0246784
0.0211021
0.0189511
0.0147033
0.0136884
0.0142073
0.0142486
0.0138067
0.0134493
0.0125931
0.0121003
0.011154
0.0106417
0.00970898
0.00919749
0.00824926
0.00766385
0.00644609
0.00544236
0.00289925
-4.51579e-05
-0.0087303
-0.0219548
-0.0646406
-0.137058
-0.157297
-0.243493
-0.314792
-0.481721
-0.440283
-0.124344
-0.0300125
-0.00700966
-67.8785
58.3877
1.46066
1.14976
0.969276
0.754225
0.654149
0.540652
0.48159
0.400624
0.351114
0.272521
0.249963
0.254854
0.254462
0.246003
0.238685
0.223727
0.214128
0.198065
0.188441
0.173286
0.164462
0.150965
0.14334
0.132122
0.126583
0.120223
0.122242
0.137473
0.170988
0.121631
0.0875351
0.0744811
0.0634264
0.0581826
0.0517234
0.0482684
0.0434155
0.0407094
0.0367428
0.034492
0.0311313
0.0291969
0.0262604
0.0245269
0.0218161
0.0201248
0.0173184
0.0154264
0.0121771
0.0112798
0.0116072
0.0116346
0.0112965
0.0109823
0.0103166
0.00988199
0.00914285
0.00869036
0.00796003
0.00750762
0.00676212
0.00624264
0.00527531
0.00437847
0.00232298
-0.000332784
-0.00749607
-0.0194376
-0.0541977
-0.110106
-0.131521
-0.199049
-0.261045
-0.383927
-0.347688
-0.111112
-0.0286492
-0.00688377
-68.2647
60.9904
1.10347
0.896888
0.753031
0.590733
0.508671
0.42244
0.373961
0.312648
0.272227
0.21401
0.19553
0.198079
0.197614
0.191342
0.185377
0.174174
0.166333
0.15426
0.14639
0.134988
0.12777
0.117615
0.111381
0.102961
0.0984572
0.093844
0.0956076
0.107436
0.130042
0.0950218
0.0688795
0.0580655
0.0495498
0.0452291
0.0403344
0.0375023
0.0338407
0.0316252
0.0286355
0.0267933
0.0242609
0.0226777
0.0204645
0.0190454
0.0170008
0.0156159
0.0134981
0.0119561
0.0095568
0.00882237
0.00901912
0.00903525
0.00878535
0.00852934
0.00803098
0.00767589
0.00712028
0.00675015
0.00620001
0.00582953
0.00526599
0.0048394
0.00410175
0.00336098
0.00177077
-0.000440051
-0.00607064
-0.0160077
-0.0429087
-0.0845343
-0.1039
-0.154825
-0.204862
-0.292498
-0.263107
-0.0917146
-0.024858
-0.0061118
-68.6506
63.5767
0.771017
0.641509
0.537524
0.424031
0.36336
0.302717
0.266844
0.223837
0.194051
0.153909
0.140255
0.141425
0.140999
0.136668
0.132279
0.124488
0.118706
0.110287
0.104481
0.0965224
0.0911964
0.0841077
0.0795094
0.0736443
0.0703358
0.0672103
0.0685712
0.0769693
0.0914019
0.0680578
0.0496109
0.041558
0.0355054
0.0322986
0.028863
0.0267695
0.0242081
0.022572
0.0204824
0.0191223
0.0173526
0.0161837
0.0146369
0.0135891
0.0121592
0.0111363
0.00965489
0.00852018
0.00686996
0.00632768
0.00643831
0.00644658
0.00627448
0.00608614
0.00573964
0.00547785
0.00509033
0.00481719
0.00443285
0.0041592
0.00376441
0.00344864
0.00292836
0.00237751
0.00124344
-0.000410485
-0.0044729
-0.0118991
-0.0310307
-0.0598523
-0.0750174
-0.110637
-0.147175
-0.20575
-0.184205
-0.0681362
-0.0191425
-0.00478892
-69.0363
66.151
0.455825
0.385109
0.322396
0.255217
0.218047
0.182004
0.160014
0.134496
0.116289
0.0927495
0.084388
0.0848357
0.0845394
0.0819972
0.0793163
0.0747207
0.0711856
0.0662101
0.062658
0.0579518
0.0546931
0.0505012
0.0476884
0.044225
0.0422071
0.0403972
0.0412533
0.0462609
0.0542725
0.0408981
0.0299267
0.0249705
0.0213472
0.0193774
0.0173379
0.0160555
0.0145385
0.0135369
0.0123002
0.0114677
0.0104204
0.0097049
0.00878941
0.00814797
0.00730136
0.00667509
0.00579781
0.00510486
0.00413884
0.0038069
0.00386162
0.00386516
0.0037643
0.0036493
0.00344495
0.00328487
0.00305583
0.0028887
0.00266129
0.00249374
0.00225971
0.00206608
0.00175622
0.00141739
0.000736919
-0.000284547
-0.00274058
-0.00732222
-0.018765
-0.0357164
-0.0453161
-0.0664123
-0.088607
-0.122206
-0.109084
-0.0418747
-0.0120412
-0.00304754
-69.4218
68.7178
0.150819
0.12839
0.107448
0.0852021
0.0726898
0.0607288
0.0533238
0.0448632
0.0387413
0.0309824
0.0281683
0.0282757
0.02817
0.0273316
0.0264305
0.0249113
0.0237224
0.022076
0.0208811
0.0193234
0.0182271
0.0168396
0.0158935
0.0147479
0.0140702
0.0134775
0.0137694
0.0154323
0.0179985
0.0136422
0.0100018
0.00832969
0.00712298
0.00645896
0.00578256
0.00535089
0.00484838
0.00451134
0.00410178
0.00382166
0.00347487
0.00323413
0.00293096
0.00271513
0.00243471
0.00222396
0.00193337
0.00170048
0.00138236
0.00127067
0.001287
0.00128793
0.00125469
0.00121605
0.0011485
0.00109466
0.00101887
0.000962645
0.000887345
0.000830963
0.000753398
0.000688188
0.000585253
0.000470961
0.000244059
-0.000101208
-0.000923204
-0.00247088
-0.00627883
-0.0118746
-0.0151548
-0.0221435
-0.0295825
-0.0405305
-0.0361266
-0.0141182
-0.00410642
-0.00104535
-69.8073
68.7223
0.136748
0.103796
0.0777578
0.0524368
0.0390461
0.0274939
0.0210801
0.0149936
0.0125759
0.0119129
0.0115624
0.0110091
0.0105711
0.00995779
0.00951234
0.00893083
0.00851347
0.00797116
0.00758086
0.00707215
0.00670738
0.00623505
0.00590448
0.00549216
0.00523993
0.00500438
0.00508359
0.0056332
0.0065035
0.00486866
0.00349115
0.00285232
0.00238323
0.00212418
0.00186046
0.00169359
0.00150171
0.00137477
0.00122302
0.00112082
0.000996495
0.00091162
0.000806739
0.000733622
0.00064089
0.000573482
0.000483818
0.000415185
0.000324018
0.000285035
0.000270376
0.000254122
0.000219993
0.00018697
0.000132367
8.35714e-05
6.07617e-06
-6.42919e-05
-0.000178246
-0.000286196
-0.000467418
-0.000649516
-0.000970615
-0.00132461
-0.00199937
-0.00287604
-0.00477679
-0.00792513
-0.0152808
-0.0251913
-0.0278576
-0.0349895
-0.0427494
-0.053858
-0.0469288
-0.0182708
-0.0053082
-0.00135085
-69.1032
66.1648
0.4137
0.311112
0.233245
0.156833
0.117065
0.0822762
0.0632271
0.0448339
0.0376575
0.0357264
0.0346955
0.0330227
0.0317204
0.0298666
0.0285425
0.0267859
0.0255454
0.0239074
0.0227473
0.0212107
0.0201264
0.0186995
0.0177167
0.0164701
0.0157191
0.0150005
0.015232
0.0168868
0.0196107
0.0145957
0.0104439
0.00855017
0.00714129
0.00637273
0.0055775
0.00508177
0.00450254
0.00412531
0.00366708
0.00336335
0.00298791
0.00273566
0.00241895
0.00220165
0.00192166
0.00172133
0.00145061
0.00124646
0.000969966
0.000854133
0.000811193
0.000763082
0.000659933
0.000561772
0.000396869
0.000251862
1.79432e-05
-0.000191132
-0.00053498
-0.000855658
-0.00140222
-0.00194299
-0.00291053
-0.00396101
-0.00599003
-0.00858716
-0.0142805
-0.0236071
-0.0457402
-0.0758636
-0.0833943
-0.104943
-0.128114
-0.162296
-0.141655
-0.0541847
-0.0155644
-0.00393808
-67.3095
63.601
0.701122
0.517439
0.388673
0.259764
0.194884
0.136429
0.105348
0.0742256
0.0625293
0.0595038
0.0578542
0.0550215
0.0528918
0.0497543
0.0475899
0.0446204
0.0425933
0.0398245
0.0379288
0.0353312
0.0335592
0.0311462
0.0295395
0.0274282
0.026197
0.0249587
0.0253234
0.0280976
0.0330275
0.0242882
0.0173063
0.0142286
0.0118737
0.0106223
0.00928255
0.00847329
0.00749528
0.00687909
0.00610496
0.00560874
0.00497439
0.00456228
0.00402717
0.00367218
0.00319924
0.002872
0.00241474
0.00208062
0.00160949
0.00142031
0.00135222
0.00127424
0.00109967
0.000939245
0.000660574
0.000423709
2.8816e-05
-0.000312583
-0.00089264
-0.00141608
-0.00233726
-0.00321939
-0.00484713
-0.00655827
-0.00995796
-0.0141744
-0.0236388
-0.0387768
-0.0758801
-0.12744
-0.13837
-0.174832
-0.213039
-0.272926
-0.239055
-0.0881446
-0.0247408
-0.00618808
-65.5156
61.0267
1.00635
0.72157
0.544108
0.360133
0.272447
0.189487
0.14747
0.10284
0.0870543
0.0832261
0.0810602
0.0769923
0.0741035
0.0696031
0.0666696
0.0624172
0.0596708
0.0557068
0.0531385
0.0494186
0.0470176
0.0435606
0.0413825
0.0383511
0.0366752
0.0348528
0.0353184
0.0392222
0.046991
0.0339104
0.0240126
0.0198782
0.016562
0.0148755
0.0129664
0.0118716
0.0104735
0.00963918
0.00853171
0.00785965
0.00695198
0.00639381
0.0056282
0.00514743
0.00447098
0.00402787
0.00337395
0.00292027
0.00223773
0.00198165
0.00189363
0.00178927
0.00153885
0.00132145
0.000922606
0.000601876
3.75479e-05
-0.000424488
-0.00125257
-0.0019606
-0.00327385
-0.00446597
-0.00678039
-0.00908798
-0.0138932
-0.0195518
-0.0327702
-0.0530679
-0.105442
-0.180641
-0.192325
-0.244651
-0.297096
-0.387307
-0.341137
-0.118604
-0.0321232
-0.00789701
-63.7216
58.4381
1.33724
0.921408
0.699803
0.456651
0.34982
0.240907
0.189698
0.130301
0.111101
0.106882
0.104342
0.0989158
0.0953797
0.0893893
0.085802
0.0801538
0.0767971
0.0715332
0.0683942
0.0634533
0.0605183
0.0559239
0.0532597
0.0492198
0.0471593
0.0446553
0.045176
0.0501922
0.0617886
0.0434053
0.0304883
0.025495
0.0211851
0.0191375
0.0166176
0.0152819
0.0134293
0.0124102
0.010941
0.01012
0.00891558
0.00823363
0.00721782
0.00663051
0.0057334
0.00519217
0.00432514
0.00376907
0.00284891
0.00253627
0.00243571
0.00231013
0.0019767
0.0017109
0.00118151
0.000789785
4.21866e-05
-0.000521753
-0.0016173
-0.00248092
-0.0042153
-0.00566765
-0.00871393
-0.0115178
-0.0177944
-0.0246268
-0.0416184
-0.066076
-0.13409
-0.236383
-0.244654
-0.314466
-0.379643
-0.507143
-0.450273
-0.143622
-0.0370154
-0.00889385
-61.9273
55.8319
1.70237
1.11348
0.85636
0.547716
0.427277
0.290019
0.232252
0.156154
0.134548
0.130471
0.12774
0.120764
0.116754
0.109079
0.105017
0.0977987
0.0939997
0.0872747
0.083722
0.0774078
0.0740854
0.06821
0.0651919
0.0600094
0.0576612
0.0543369
0.0548537
0.060899
0.0777853
0.0526816
0.0366471
0.0310844
0.0257178
0.0234184
0.0202215
0.018713
0.0163516
0.0151992
0.0133244
0.0123956
0.0108583
0.0100868
0.0087903
0.00812597
0.00698157
0.0063695
0.00526389
0.00463243
0.0034358
0.0030824
0.00297878
0.00283931
0.00241185
0.0021109
0.00143491
0.000991928
3.94769e-05
-0.000597756
-0.00199131
-0.0029664
-0.00516803
-0.00680558
-0.0106572
-0.0138087
-0.0216733
-0.0292954
-0.050168
-0.0773419
-0.161368
-0.295885
-0.294521
-0.384466
-0.459696
-0.634353
-0.569401
-0.160638
-0.0387683
-0.00905578
-60.1327
53.2056
2.1112
1.29227
1.01498
0.631253
0.505407
0.335951
0.27554
0.179828
0.157295
0.154006
0.151308
0.142493
0.138275
0.128625
0.124358
0.115307
0.111319
0.102889
0.0991603
0.0912427
0.0877547
0.0803818
0.0772107
0.0706856