/*--------------------------------*- C++ -*----------------------------------*\
| =========                 |                                                 |
| \\      /  F ield         | OpenFOAM: The Open Source CFD Toolbox           |
|  \\    /   O peration     | Version:  5.x                                   |
|   \\  /    A nd           | Web:      www.OpenFOAM.org                      |
|    \\/     M anipulation  |                                                 |
\*---------------------------------------------------------------------------*/
FoamFile
{
    version     2.0;
    format      ascii;
    class       volScalarField;
    location    "4.1";
    object      T;
}
// * * * * * * * * * * * * * * * * * * * * * * * * * * * * * * * * * * * * * //

dimensions      [0 0 0 1 0 0 0];

internalField   nonuniform List<scalar> 
3200
(
2.085
2.43617
2.4562
2.60103
2.61021
2.68251
2.68733
2.72917
2.73203
2.75853
2.76029
2.77559
2.77694
2.79365
2.79501
2.81094
2.81222
2.82688
2.82805
2.8413
2.84235
2.85417
2.8551
2.86555
2.86637
2.87557
2.8763
2.88458
2.88531
2.89409
2.90179
2.90235
2.90733
2.9077
2.9115
2.91179
2.91484
2.91507
2.91755
2.91774
2.91976
2.91991
2.92156
2.92169
2.92302
2.92312
2.92417
2.92425
2.92504
2.92509
2.92556
2.9256
2.92608
2.92611
2.92648
2.9265
2.9267
2.92671
2.92668
2.92666
2.9263
2.92624
2.92535
2.92524
2.92343
2.92321
2.91962
2.91912
2.91122
2.90984
2.88737
2.84815
2.84378
2.78004
2.77253
2.6533
2.64836
2.64773
2.6476
2.64758
2.26046
2.52914
2.571
2.68687
2.70644
2.76426
2.77453
2.80788
2.81398
2.83503
2.83878
2.85105
2.85391
2.86714
2.87002
2.88264
2.88535
2.89696
2.89943
2.90994
2.91215
2.92153
2.9235
2.93178
2.93352
2.94081
2.94237
2.94895
2.95052
2.95779
2.96426
2.96546
2.96943
2.97022
2.97324
2.97385
2.97627
2.97676
2.97872
2.97912
2.98073
2.98105
2.98236
2.98262
2.98368
2.98389
2.98473
2.98489
2.98552
2.98563
2.98601
2.98609
2.98646
2.98654
2.98683
2.98688
2.98704
2.98705
2.98703
2.98699
2.9867
2.98658
2.98587
2.98563
2.98419
2.9837
2.98082
2.97976
2.97332
2.97026
2.95063
2.91853
2.90918
2.85837
2.84256
2.74994
2.73949
2.73777
2.7374
2.73733
2.42518
2.63119
2.68283
2.77656
2.80114
2.84791
2.8608
2.88767
2.89532
2.91224
2.91693
2.92689
2.93047
2.94104
2.94464
2.95474
2.95812
2.96741
2.9705
2.9789
2.98168
2.98918
2.99164
2.99827
3.00045
3.00629
3.00823
3.01353
3.01551
3.02153
3.02695
3.02846
3.03167
3.03265
3.03508
3.03584
3.03778
3.03839
3.03996
3.04046
3.04175
3.04215
3.0432
3.04353
3.04438
3.04464
3.04531
3.04551
3.04601
3.04615
3.04646
3.04656
3.04686
3.04696
3.04719
3.04725
3.04737
3.04739
3.04737
3.04733
3.04709
3.04695
3.04637
3.04607
3.0449
3.04429
3.04195
3.0406
3.03529
3.03136
3.01439
2.988
2.97623
2.9353
2.91567
2.84329
2.83028
2.82775
2.82719
2.82707
2.58166
2.73942
2.79299
2.86901
2.89496
2.93292
2.94651
2.96824
2.9763
2.98992
2.99488
3.00298
3.00676
3.01522
3.019
3.0271
3.03065
3.03811
3.04135
3.0481
3.05101
3.05703
3.05962
3.06494
3.06723
3.07192
3.07396
3.07824
3.08033
3.08528
3.08979
3.09139
3.09399
3.09503
3.09698
3.09778
3.09934
3.09998
3.10125
3.10177
3.1028
3.10323
3.10407
3.10442
3.1051
3.10537
3.10591
3.10612
3.10653
3.10667
3.10692
3.10703
3.10727
3.10737
3.10755
3.10762
3.10772
3.10774
3.10772
3.10767
3.10748
3.10733
3.10686
3.10654
3.1056
3.10495
3.10304
3.10161
3.09719
3.09297
3.07853
3.05689
3.04446
3.01138
2.99088
2.93427
2.92065
2.91765
2.91697
2.91682
2.73183
2.85181
2.90224
2.96346
2.98829
3.0189
3.0319
3.04936
3.05705
3.06796
3.07269
3.07924
3.08285
3.08959
3.09319
3.09965
3.10303
3.10898
3.11206
3.11744
3.12022
3.12502
3.12749
3.13173
3.13391
3.13766
3.13961
3.14303
3.14503
3.14906
3.15274
3.15428
3.15638
3.15737
3.15893
3.15969
3.16093
3.16155
3.16256
3.16306
3.16388
3.16429
3.16496
3.16529
3.16583
3.1661
3.16652
3.16673
3.16705
3.16719
3.16739
3.16749
3.16768
3.16778
3.16792
3.16798
3.16806
3.16808
3.16807
3.16802
3.16787
3.16772
3.16735
3.16704
3.16628
3.16566
3.16411
3.16273
3.1591
3.15499
3.14296
3.12541
3.11351
3.08696
3.06754
3.02352
3.0106
3.00746
3.00672
3.00655
2.8772
2.96698
3.01107
3.05937
3.08139
3.10558
3.11711
3.13086
3.13768
3.14624
3.15044
3.15562
3.15882
3.16409
3.16727
3.17232
3.1753
3.17996
3.18268
3.18689
3.18934
3.1931
3.19528
3.19861
3.20053
3.20346
3.20519
3.20788
3.20966
3.21285
3.21578
3.21715
3.2188
3.21968
3.22091
3.22158
3.22256
3.2231
3.22389
3.22433
3.22498
3.22534
3.22586
3.22615
3.22658
3.22681
3.22715
3.22733
3.22758
3.2277
3.22786
3.22795
3.2281
3.22818
3.2283
3.22835
3.22841
3.22843
3.22842
3.22838
3.22825
3.22813
3.22783
3.22756
3.22696
3.22641
3.22518
3.22394
3.22102
3.21734
3.20761
3.1937
3.18314
3.16225
3.14518
3.11153
3.10015
3.09717
3.09645
3.09628
3.01898
3.08398
3.11973
3.15634
3.17441
3.19277
3.20224
3.21265
3.21823
3.2247
3.22814
3.23209
3.2347
3.23867
3.24127
3.24507
3.24751
3.25101
3.25324
3.25641
3.25842
3.26125
3.26303
3.26554
3.26711
3.26932
3.27073
3.27277
3.27423
3.27665
3.27888
3.28001
3.28127
3.28199
3.28291
3.28346
3.2842
3.28464
3.28524
3.2856
3.28608
3.28638
3.28677
3.28701
3.28733
3.28752
3.28778
3.28792
3.28811
3.28821
3.28833
3.28841
3.28852
3.28859
3.28867
3.28872
3.28876
3.28878
3.28877
3.28873
3.28864
3.28854
3.28831
3.28809
3.28763
3.28718
3.28624
3.28522
3.28297
3.27992
3.27242
3.26185
3.25319
3.23739
3.22348
3.19866
3.18937
3.1868
3.18615
3.18601
3.15815
3.20216
3.22835
3.25404
3.26741
3.28032
3.28732
3.29462
3.29875
3.30328
3.30582
3.3086
3.31053
3.3133
3.31522
3.31787
3.31967
3.32212
3.32377
3.32598
3.32746
3.32944
3.33075
3.3325
3.33366
3.33521
3.33625
3.33768
3.33876
3.34046
3.34203
3.34287
3.34375
3.34428
3.34493
3.34533
3.34585
3.34617
3.34659
3.34686
3.3472
3.34741
3.34769
3.34787
3.34809
3.34823
3.34841
3.34852
3.34865
3.34872
3.34881
3.34886
3.34894
3.34899
3.34905
3.34908
3.34912
3.34913
3.34912
3.34909
3.34903
3.34895
3.34879
3.34863
3.34831
3.34797
3.34731
3.34656
3.34495
3.34268
3.33736
3.32993
3.32352
3.31245
3.30222
3.28516
3.27831
3.27634
3.27584
3.27572
3.29557
3.32104
3.33699
3.35224
3.36043
3.3681
3.37239
3.37673
3.37926
3.38194
3.3835
3.38515
3.38633
3.38797
3.38914
3.39071
3.39181
3.39326
3.39427
3.39558
3.39648
3.39765
3.39846
3.39949
3.4002
3.40112
3.40176
3.4026
3.40326
3.40427
3.40521
3.40572
3.40624
3.40657
3.40695
3.4072
3.40751
3.40771
3.40795
3.40812
3.40832
3.40845
3.40861
3.40872
3.40885
3.40894
3.40904
3.40911
3.40919
3.40923
3.40928
3.40932
3.40936
3.40939
3.40943
3.40945
3.40947
3.40948
3.40947
3.40946
3.40942
3.40937
3.40928
3.40918
3.40899
3.40878
3.40839
3.40792
3.40696
3.40556
3.40238
3.39797
3.39404
3.38748
3.38123
3.37125
3.36707
3.36583
3.36551
3.36544
3.43197
3.44031
3.44566
3.45071
3.45347
3.45602
3.45746
3.4589
3.45975
3.46064
3.46117
3.46171
3.46211
3.46265
3.46305
3.46357
3.46394
3.46442
3.46476
3.46519
3.4655
3.46588
3.46615
3.4665
3.46674
3.46704
3.46725
3.46753
3.46776
3.46809
3.4684
3.46857
3.46875
3.46886
3.46898
3.46907
3.46917
3.46924
3.46932
3.46937
3.46944
3.46948
3.46954
3.46957
3.46962
3.46965
3.46968
3.4697
3.46973
3.46974
3.46976
3.46977
3.46979
3.4698
3.46981
3.46982
3.46982
3.46983
3.46982
3.46982
3.46981
3.46979
3.46976
3.46972
3.46966
3.46959
3.46946
3.4693
3.46898
3.46851
3.46746
3.46599
3.46467
3.46249
3.46039
3.45711
3.4557
3.45528
3.45517
3.45515
3.43144
3.44034
3.44652
3.45318
3.45726
3.4617
3.46453
3.46778
3.46987
3.47226
3.47374
3.47536
3.47656
3.47819
3.47937
3.48092
3.48202
3.48341
3.48439
3.48562
3.48648
3.48755
3.4883
3.48924
3.48989
3.49071
3.4913
3.49206
3.49267
3.4936
3.49447
3.49497
3.49547
3.4958
3.49618
3.49645
3.49676
3.49698
3.49725
3.49743
3.49766
3.49781
3.49801
3.49814
3.4983
3.49841
3.49854
3.49863
3.49874
3.4988
3.49887
3.49893
3.499
3.49906
3.49913
3.49918
3.49924
3.49929
3.49934
3.49938
3.49943
3.49947
3.49951
3.49954
3.49957
3.49958
3.49959
3.49957
3.4995
3.49933
3.49887
3.49814
3.49736
3.49592
3.4944
3.49187
3.49079
3.49046
3.49037
3.49035
3.29395
3.32114
3.33954
3.35965
3.37178
3.38517
3.39358
3.40337
3.40958
3.41682
3.42121
3.4261
3.42965
3.43458
3.4381
3.44278
3.44604
3.45025
3.45316
3.45687
3.45942
3.46267
3.46489
3.46772
3.46966
3.47214
3.47388
3.47618
3.478
3.48081
3.48343
3.4849
3.48642
3.4874
3.48856
3.48933
3.49029
3.49094
3.49175
3.49229
3.49298
3.49344
3.49402
3.49441
3.4949
3.49522
3.49563
3.49589
3.49621
3.4964
3.49662
3.49678
3.49701
3.49717
3.49738
3.49753
3.49773
3.49786
3.49803
3.49815
3.4983
3.4984
3.49853
3.49861
3.4987
3.49875
3.49878
3.49872
3.4985
3.49799
3.49663
3.49442
3.49209
3.48778
3.48323
3.47556
3.47233
3.47137
3.47112
3.47106
3.15539
3.20229
3.23249
3.26644
3.28624
3.30884
3.32258
3.33912
3.34926
3.3615
3.36866
3.37689
3.38269
3.39103
3.39679
3.4047
3.41002
3.41715
3.42189
3.42818
3.43234
3.43783
3.44146
3.44624
3.44941
3.4536
3.45644
3.46033
3.4633
3.46802
3.47244
3.47483
3.4774
3.47898
3.48095
3.48221
3.48384
3.48489
3.48626
3.48715
3.48831
3.48906
3.49004
3.49068
3.4915
3.49204
3.49272
3.49315
3.49369
3.494
3.49437
3.49464
3.49502
3.49528
3.49564
3.49589
3.49622
3.49644
3.49673
3.49692
3.49717
3.49733
3.49755
3.49768
3.49784
3.49792
3.49796
3.49788
3.49752
3.49669
3.49441
3.4907
3.48691
3.47964
3.47219
3.45906
3.45377
3.45225
3.45186
3.45177
3.01494
3.08411
3.12529
3.1738
3.20059
3.23287
3.25146
3.27511
3.28885
3.30638
3.31608
3.32778
3.33563
3.34759
3.35539
3.36672
3.37393
3.38414
3.39056
3.39956
3.4052
3.41306
3.41798
3.42482
3.42911
3.43512
3.43896
3.4445
3.44852
3.45525
3.46153
3.46475
3.46841
3.47056
3.47337
3.47508
3.4774
3.47883
3.48079
3.48199
3.48365
3.48467
3.48608
3.48694
3.48812
3.48884
3.48982
3.49041
3.49117
3.4916
3.49213
3.49248
3.49303
3.49339
3.49391
3.49424
3.49471
3.49501
3.49542
3.49568
3.49604
3.49627
3.49657
3.49675
3.49698
3.49709
3.49716
3.49704
3.49655
3.49544
3.49226
3.48699
3.48187
3.4715
3.46138
3.44226
3.43507
3.43308
3.43259
3.43247
2.87173
2.96704
3.01779
3.08202
3.11472
3.15744
3.18013
3.21151
3.22829
3.25157
3.26341
3.27882
3.2884
3.30431
3.31385
3.32891
3.33772
3.35128
3.35913
3.37109
3.37797
3.38841
3.39442
3.40351
3.40875
3.41672
3.42141
3.42874
3.43364
3.44249
3.45073
3.45465
3.45949
3.4621
3.46583
3.46792
3.471
3.47275
3.47534
3.47682
3.47902
3.48027
3.48213
3.48319
3.48476
3.48564
3.48694
3.48765
3.48867
3.4892
3.48989
3.49032
3.49105
3.49149
3.49218
3.49259
3.49321
3.49357
3.49413
3.49444
3.49492
3.49519
3.4956
3.49582
3.49612
3.49626
3.49636
3.49622
3.49561
3.49428
3.49019
3.48327
3.47704
3.46336
3.45093
3.42497
3.41616
3.41386
3.4133
3.41317
2.7247
2.85176
2.90976
2.9915
3.02845
3.08281
3.10847
3.14848
3.16748
3.19722
3.21059
3.2301
3.24092
3.26128
3.27208
3.29134
3.30131
3.31865
3.32753
3.34281
3.3506
3.36394
3.37074
3.38235
3.38828
3.39846
3.40376
3.41308
3.41859
3.42976
3.44012
3.44452
3.45065
3.4536
3.45836
3.46072
3.46466
3.46663
3.46995
3.47162
3.47443
3.47584
3.47822
3.47942
3.48142
3.48242
3.48408
3.48489
3.48619
3.48678
3.48766
3.48815
3.48908
3.48958
3.49046
3.49092
3.49172
3.49213
3.49284
3.4932
3.49381
3.49412
3.49463
3.49488
3.49528
3.49543
3.49557
3.49542
3.49469
3.49323
3.48823
3.47952
3.4725
3.45517
3.44102
3.407
3.39699
3.39457
3.39399
3.39386
2.57259
2.73924
2.80078
2.90278
2.94148
3.00933
3.03622
3.0863
3.10623
3.14352
3.15753
3.18172
3.19306
3.21863
3.22998
3.25415
3.26462
3.28635
3.29568
3.31483
3.32301
3.33973
3.34686
3.36142
3.36764
3.38038
3.38594
3.39757
3.40332
3.41706
3.42974
3.43432
3.44194
3.44503
3.45098
3.45346
3.45839
3.46046
3.46462
3.46637
3.46989
3.47137
3.47436
3.47561
3.47812
3.47917
3.48125
3.4821
3.48374
3.48436
3.48545
3.48596
3.48713
3.48765
3.48876
3.48924
3.49025
3.49068
3.49156
3.49194
3.49271
3.49303
3.49368
3.49394
3.49444
3.4946
3.49479
3.49464
3.49381
3.49231
3.48642
3.47571
3.46838
3.44685
3.43191
3.38807
3.37752
3.3752
3.37467
3.37455
2.41382
2.63093
2.69017
2.81658
2.85335
2.93749
2.96305
3.02532
3.04428
3.09075
3.10407
3.13385
3.14463
3.17656
3.18737
3.2175
3.22747
3.25456
3.26344
3.28729
3.29508
3.3159
3.32269
3.34082
3.34674
3.3626
3.36788
3.3823
3.38773
3.4044
3.41968
3.424
3.43341
3.43635
3.44374
3.4461
3.45224
3.45421
3.45938
3.46105
3.46543
3.46684
3.47056
3.47175
3.47489
3.47588
3.47848
3.47929
3.48133
3.48192
3.48326
3.48375
3.48521
3.4857
3.48709
3.48755
3.4888
3.48921
3.49031
3.49067
3.49162
3.49193
3.49274
3.49299
3.49361
3.49377
3.49402
3.49389
3.49295
3.49158
3.4848
3.47175
3.46482
3.43827
3.42395
3.36781
3.35772
3.35576
3.35533
3.35524
2.24636
2.52892
2.57688
2.73398
2.76332
2.868
2.88841
2.96608
2.98124
3.03931
3.04994
3.08675
3.09535
3.13533
3.14398
3.18166
3.18964
3.22349
3.23059
3.2604
3.26663
3.29264
3.29807
3.3207
3.32544
3.34524
3.34946
3.36738
3.37169
3.3918
3.41006
3.41347
3.42514
3.42748
3.4367
3.43859
3.44625
3.44783
3.45429
3.45562
3.4611
3.46223
3.46687
3.46782
3.47173
3.47253
3.47577
3.47642
3.47897
3.47944
3.4811
3.48149
3.48332
3.48372
3.48545
3.48582
3.48738
3.48771
3.48908
3.48937
3.49056
3.49081
3.49182
3.49202
3.49281
3.49293
3.49327
3.49318
3.49211
3.49106
3.48344
3.46756
3.46205
3.4292
3.41766
3.3457
3.33759
3.33626
3.33598
3.33592
2.06759
2.43631
2.45923
2.65648
2.67027
2.80187
2.81148
2.90933
2.91648
2.98977
2.99477
3.04077
3.04482
3.09535
3.09943
3.14701
3.15077
3.19349
3.19684
3.23444
3.23738
3.27019
3.27275
3.30131
3.30354
3.3285
3.33048
3.35301
3.35502
3.37927
3.40103
3.40261
3.41724
3.41835
3.42996
3.43085
3.44051
3.44125
3.4494
3.45002
3.45693
3.45746
3.46332
3.46377
3.4687
3.46908
3.47317
3.47348
3.4767
3.47692
3.479
3.47918
3.48149
3.48168
3.48386
3.48404
3.48601
3.48616
3.4879
3.48804
3.48954
3.48966
3.49094
3.49103
3.49203
3.49209
3.49254
3.4925
3.49127
3.4908
3.4824
3.46295
3.46038
3.41928
3.41379
3.32104
3.3172
3.31671
3.31662
3.31659
2.06759
2.4363
2.45923
2.65648
2.67027
2.80187
2.81147
2.90933
2.91647
2.98977
2.99477
3.04077
3.04482
3.09535
3.09943
3.14701
3.15077
3.19349
3.19684
3.23444
3.23738
3.27019
3.27275
3.3013
3.30354
3.32849
3.33048
3.35301
3.35501
3.37927
3.40103
3.40261
3.41724
3.41834
3.42996
3.43085
3.44051
3.44125
3.4494
3.45002
3.45693
3.45746
3.46332
3.46377
3.4687
3.46908
3.47317
3.47348
3.4767
3.47692
3.479
3.47918
3.48149
3.48168
3.48386
3.48404
3.48601
3.48616
3.4879
3.48804
3.48954
3.48966
3.49094
3.49103
3.49203
3.49209
3.49254
3.4925
3.49127
3.4908
3.4824
3.46295
3.46037
3.41927
3.41379
3.32104
3.3172
3.31671
3.31661
3.31659
2.24636
2.52892
2.57688
2.73397
2.76332
2.868
2.88841
2.96608
2.98124
3.03931
3.04994
3.08675
3.09535
3.13533
3.14398
3.18166
3.18964
3.22349
3.23059
3.2604
3.26663
3.29264
3.29807
3.3207
3.32544
3.34523
3.34946
3.36738
3.37169
3.3918
3.41006
3.41347
3.42514
3.42748
3.4367
3.43859
3.44625
3.44783
3.45429
3.45562
3.4611
3.46222
3.46687
3.46782
3.47173
3.47253
3.47577
3.47642
3.47897
3.47944
3.4811
3.48149
3.48332
3.48371
3.48545
3.48582
3.48738
3.48771
3.48908
3.48937
3.49056
3.49081
3.49182
3.49202
3.49281
3.49293
3.49327
3.49318
3.49211
3.49106
3.48344
3.46756
3.46205
3.4292
3.41766
3.3457
3.33759
3.33625
3.33597
3.33591
2.41382
2.63092
2.69017
2.81658
2.85335
2.93749
2.96305
3.02532
3.04428
3.09075
3.10407
3.13385
3.14463
3.17656
3.18737
3.2175
3.22747
3.25456
3.26343
3.28729
3.29508
3.3159
3.32269
3.34082
3.34674
3.3626
3.36788
3.3823
3.38773
3.4044
3.41968
3.424
3.43341
3.43635
3.44374
3.4461
3.45224
3.45421
3.45938
3.46105
3.46543
3.46684
3.47056
3.47175
3.47489
3.47588
3.47848
3.47929
3.48133
3.48192
3.48326
3.48375
3.48521
3.4857
3.48709
3.48755
3.4888
3.48921
3.49031
3.49067
3.49162
3.49193
3.49274
3.49299
3.49361
3.49377
3.49402
3.49389
3.49295
3.49158
3.4848
3.47175
3.46482
3.43827
3.42395
3.3678
3.35772
3.35576
3.35533
3.35523
2.57259
2.73924
2.80077
2.90278
2.94148
3.00933
3.03622
3.0863
3.10623
3.14352
3.15753
3.18172
3.19306
3.21863
3.22998
3.25415
3.26462
3.28635
3.29568
3.31483
3.32301
3.33973
3.34686
3.36142
3.36764
3.38038
3.38594
3.39757
3.40332
3.41706
3.42974
3.43432
3.44194
3.44503
3.45098
3.45346
3.45839
3.46046
3.46462
3.46637
3.46989
3.47137
3.47436
3.47561
3.47812
3.47917
3.48125
3.4821
3.48374
3.48436
3.48545
3.48596
3.48713
3.48765
3.48876
3.48924
3.49025
3.49068
3.49156
3.49194
3.49271
3.49303
3.49368
3.49394
3.49444
3.4946
3.49479
3.49464
3.49381
3.49231
3.48642
3.47571
3.46838
3.44685
3.43191
3.38807
3.37752
3.3752
3.37467
3.37455
2.7247
2.85176
2.90976
2.9915
3.02845
3.08281
3.10846
3.14848
3.16747
3.19722
3.21059
3.23009
3.24092
3.26128
3.27208
3.29134
3.30131
3.31865
3.32753
3.34281
3.3506
3.36394
3.37074
3.38235
3.38828
3.39845
3.40376
3.41308
3.41859
3.42976
3.44012
3.44452
3.45065
3.4536
3.45836
3.46072
3.46466
3.46663
3.46995
3.47162
3.47443
3.47584
3.47822
3.47941
3.48142
3.48242
3.48408
3.48489
3.48619
3.48678
3.48766
3.48815
3.48908
3.48958
3.49046
3.49092
3.49172
3.49213
3.49284
3.4932
3.49381
3.49412
3.49463
3.49488
3.49528
3.49543
3.49557
3.49542
3.49469
3.49323
3.48823
3.47952
3.4725
3.45517
3.44102
3.407
3.39699
3.39456
3.39399
3.39386
2.87173
2.96704
3.01779
3.08202
3.11472
3.15744
3.18013
3.21151
3.22829
3.25157
3.2634
3.27882
3.2884
3.30431
3.31385
3.32891
3.33772
3.35128
3.35913
3.37108
3.37797
3.38841
3.39442
3.40351
3.40875
3.41672
3.42141
3.42874
3.43364
3.44249
3.45073
3.45465
3.45949
3.4621
3.46583
3.46792
3.471
3.47275
3.47534
3.47682
3.47902
3.48027
3.48213
3.48319
3.48476
3.48564
3.48694
3.48765
3.48867
3.4892
3.48989
3.49032
3.49105
3.49149
3.49218
3.49258
3.49321
3.49357
3.49413
3.49444
3.49492
3.49519
3.4956
3.49582
3.49612
3.49626
3.49636
3.49622
3.49561
3.49428
3.49019
3.48327
3.47704
3.46336
3.45093
3.42497
3.41616
3.41386
3.4133
3.41317
3.01494
3.08411
3.12529
3.17379
3.20059
3.23287
3.25146
3.27511
3.28885
3.30638
3.31607
3.32778
3.33563
3.34759
3.35539
3.36672
3.37393
3.38414
3.39056
3.39956
3.4052
3.41306
3.41798
3.42482
3.42911
3.43512
3.43896
3.4445
3.44852
3.45525
3.46153
3.46475
3.46841
3.47056
3.47337
3.47508
3.4774
3.47883
3.48079
3.48199
3.48365
3.48467
3.48608
3.48694
3.48812
3.48884
3.48982
3.49041
3.49117
3.4916
3.49213
3.49248
3.49303
3.49339
3.49391
3.49424
3.49471
3.49501
3.49542
3.49568
3.49604
3.49627
3.49657
3.49675
3.49698
3.49709
3.49716
3.49704
3.49655
3.49544
3.49226
3.48699
3.48187
3.4715
3.46138
3.44225
3.43507
3.43308
3.43259
3.43247
3.15539
3.20229
3.23249
3.26644
3.28624
3.30884
3.32258
3.33912
3.34926
3.3615
3.36866
3.37689
3.38269
3.39103
3.39679
3.4047
3.41002
3.41715
3.42189
3.42818
3.43234
3.43783
3.44146
3.44624
3.44941
3.4536
3.45644
3.46033
3.4633
3.46802
3.47244
3.47483
3.4774
3.47898
3.48095
3.48221
3.48384
3.48489
3.48626
3.48715
3.48831
3.48906
3.49004
3.49068
3.4915
3.49204
3.49272
3.49315
3.49369
3.494
3.49437
3.49464
3.49502
3.49528
3.49564
3.49589
3.49622
3.49644
3.49673
3.49692
3.49717
3.49733
3.49755
3.49768
3.49784
3.49792
3.49796
3.49788
3.49752
3.49669
3.49441
3.4907
3.48691
3.47964
3.47219
3.45906
3.45377
3.45225
3.45186
3.45177
3.29395
3.32114
3.33954
3.35965
3.37178
3.38517
3.39358
3.40337
3.40958
3.41682
3.42121
3.4261
3.42965
3.43458
3.4381
3.44278
3.44604
3.45025
3.45315
3.45687
3.45942
3.46267
3.46489
3.46772
3.46966
3.47214
3.47388
3.47618
3.478
3.48081
3.48343
3.4849
3.48642
3.4874
3.48856
3.48933
3.49029
3.49094
3.49175
3.49229
3.49298
3.49344
3.49402
3.49441
3.4949
3.49522
3.49563
3.49589
3.49621
3.4964
3.49662
3.49678
3.49701
3.49717
3.49738
3.49753
3.49773
3.49786
3.49803
3.49815
3.4983
3.4984
3.49853
3.49861
3.4987
3.49875
3.49878
3.49872
3.4985
3.49799
3.49663
3.49442
3.49209
3.48778
3.48323
3.47556
3.47232
3.47137
3.47112
3.47106
3.43144
3.44034
3.44652
3.45318
3.45726
3.4617
3.46453
3.46778
3.46987
3.47226
3.47374
3.47536
3.47656
3.47819
3.47937
3.48092
3.48202
3.48341
3.48439
3.48562
3.48648
3.48755
3.4883
3.48924
3.48989
3.49071
3.4913
3.49206
3.49267
3.4936
3.49447
3.49497
3.49547
3.4958
3.49618
3.49645
3.49676
3.49698
3.49725
3.49743
3.49766
3.49781
3.49801
3.49814
3.4983
3.49841
3.49854
3.49863
3.49874
3.4988
3.49887
3.49893
3.499
3.49906
3.49913
3.49918
3.49924
3.49929
3.49934
3.49938
3.49943
3.49947
3.49951
3.49954
3.49957
3.49958
3.49959
3.49957
3.4995
3.49933
3.49887
3.49814
3.49736
3.49592
3.4944
3.49187
3.49079
3.49046
3.49037
3.49035
3.43195
3.44028
3.44562
3.45066
3.4534
3.45591
3.45731
3.45866
3.45941
3.46015
3.46067
3.46135
3.46183
3.46245
3.46288
3.46344
3.46384
3.46434
3.46469
3.46513
3.46544
3.46584
3.46612
3.46646
3.46671
3.46701
3.46723
3.46751
3.46774
3.46808
3.46839
3.46856
3.46874
3.46885
3.46898
3.46906
3.46916
3.46923
3.46931
3.46937
3.46943
3.46948
3.46953
3.46957
3.46962
3.46964
3.46968
3.4697
3.46973
3.46974
3.46976
3.46977
3.46979
3.4698
3.46981
3.46982
3.46982
3.46982
3.46982
3.46982
3.46981
3.46979
3.46976
3.46972
3.46966
3.46959
3.46946
3.4693
3.46898
3.46851
3.46746
3.46599
3.46467
3.46249
3.46039
3.45711
3.4557
3.45528
3.45517
3.45515
3.29552
3.32097
3.33689
3.35208
3.36021
3.36776
3.37192
3.37599
3.37824
3.38047
3.38201
3.38405
3.38548
3.38735
3.38865
3.39033
3.3915
3.39301
3.39406
3.3954
3.39633
3.39752
3.39834
3.39939
3.40012
3.40104
3.40169
3.40254
3.40321
3.40423
3.40517
3.40569
3.40622
3.40654
3.40693
3.40718
3.40749
3.40769
3.40794
3.4081
3.40831
3.40844
3.4086
3.40871
3.40885
3.40893
3.40904
3.40911
3.40918
3.40923
3.40928
3.40932
3.40936
3.40939
3.40943
3.40945
3.40947
3.40947
3.40947
3.40945
3.40942
3.40937
3.40928
3.40917
3.40898
3.40878
3.40839
3.40792
3.40696
3.40556
3.40238
3.39797
3.39404
3.38748
3.38123
3.37125
3.36707
3.36583
3.36551
3.36544
3.15807
3.20203
3.22818
3.25378
3.26705
3.27975
3.28653
3.2934
3.29707
3.30082
3.30332
3.30677
3.30911
3.31227
3.3144
3.31725
3.31916
3.32171
3.32341
3.32569
3.32721
3.32922
3.33056
3.33234
3.33352
3.33508
3.33614
3.33758
3.33867
3.34039
3.34197
3.34282
3.3437
3.34424
3.34489
3.3453
3.34582
3.34615
3.34657
3.34684
3.34718
3.3474
3.34768
3.34785
3.34808
3.34822
3.3484
3.34851
3.34864
3.34872
3.3488
3.34886
3.34894
3.34899
3.34905
3.34908
3.34911
3.34912
3.34912
3.34909
3.34903
3.34895
3.34879
3.34863
3.34831
3.34797
3.34731
3.34655
3.34495
3.34268
3.33736
3.32993
3.32352
3.31245
3.30222
3.28516
3.27831
3.27634
3.27584
3.27572
3.01886
3.08381
3.11949
3.15597
3.1739
3.19198
3.20115
3.21093
3.21589
3.22121
3.2246
3.22954
3.23271
3.23724
3.24012
3.2442
3.24678
3.25044
3.25275
3.25601
3.25806
3.26095
3.26277
3.26531
3.2669
3.26914
3.27057
3.27263
3.2741
3.27655
3.2788
3.27994
3.2812
3.28193
3.28286
3.28342
3.28416
3.2846
3.2852
3.28557
3.28606
3.28635
3.28675
3.28699
3.28731
3.28751
3.28776
3.28791
3.2881
3.2882
3.28832
3.2884
3.28851
3.28858
3.28867
3.28871
3.28876
3.28877
3.28876
3.28873
3.28864
3.28853
3.28831
3.28809
3.28763
3.28718
3.28624
3.28522
3.28297
3.27992
3.27242
3.26185
3.25319
3.23739
3.22348
3.19866
3.18937
3.1868
3.18615
3.18601
2.87705
2.96676
3.01077
3.0589
3.08075
3.10457
3.11573
3.12866
3.1347
3.14169
3.14581
3.15238
3.15625
3.16227
3.16579
3.17121
3.17437
3.17922
3.18205
3.18638
3.18889
3.19272
3.19494
3.19831
3.20026
3.20324
3.20498
3.2077
3.2095
3.21272
3.21568
3.21706
3.21873
3.21961
3.22084
3.22152
3.22251
3.22305
3.22385
3.22429
3.22494
3.2253
3.22583
3.22613
3.22656
3.22679
3.22713
3.22731
3.22756
3.22769
3.22785
3.22794
3.22809
3.22817
3.22829
3.22834
3.22841
3.22842
3.22841
3.22837
3.22825
3.22812
3.22783
3.22756
3.22696
3.2264
3.22518
3.22394
3.22101
3.21733
3.20761
3.19369
3.18314
3.16225
3.14518
3.11153
3.10015
3.09717
3.09645
3.09628
2.73165
2.85154
2.90189
2.96289
2.98752
3.01766
3.03025
3.04666
3.05348
3.06228
3.06693
3.07532
3.07971
3.0874
3.09138
3.09831
3.10188
3.10809
3.11128
3.11681
3.11966
3.12456
3.12706
3.13138
3.13358
3.13738
3.13935
3.14281
3.14484
3.1489
3.15261
3.15417
3.15628
3.15728
3.15885
3.15962
3.16087
3.16149
3.16251
3.16301
3.16384
3.16425
3.16493
3.16526
3.1658
3.16607
3.1665
3.16671
3.16703
3.16717
3.16737
3.16748
3.16767
3.16776
3.16791
3.16797
3.16806
3.16807
3.16806
3.16801
3.16786
3.16772
3.16734
3.16704
3.16628
3.16566
3.16411
3.16273
3.15909
3.15499
3.14296
3.1254
3.1135
3.08696
3.06753
3.02352
3.01059
3.00746
3.00672
3.00655
2.58146
2.7391
2.79258
2.86833
2.89408
2.93145
2.94462
2.96505
2.97217
2.98303
2.9879
2.99843
3.00303
3.01268
3.01686
3.02554
3.0293
3.03707
3.04043
3.04736
3.05034
3.05648
3.05912
3.06452
3.06684
3.07159
3.07366
3.07798
3.08009
3.0851
3.08964
3.09125
3.09388
3.09492
3.09689
3.0977
3.09926
3.09991
3.10119
3.10171
3.10275
3.10318
3.10403
3.10438
3.10506
3.10534
3.10589
3.1061
3.1065
3.10665
3.1069
3.10701
3.10726
3.10735
3.10754
3.10761
3.10771
3.10773
3.10771
3.10766
3.10747
3.10732
3.10686
3.10654
3.10559
3.10495
3.10304
3.1016
3.09719
3.09297
3.07853
3.05689
3.04446
3.01138
2.99088
2.93427
2.92065
2.91765
2.91697
2.91682
2.42496
2.63082
2.68238
2.77576
2.80016
2.84621
2.85869
2.88396
2.89072
2.90402
2.90864
2.92177
2.92616
2.93818
2.94216
2.95297
2.95655
2.96623
2.96943
2.97807
2.9809
2.98856
2.99106
2.99779
3
3.00591
3.00788
3.01323
3.01523
3.02131
3.02678
3.0283
3.03154
3.03253
3.03497
3.03574
3.03769
3.03831
3.0399
3.0404
3.04169
3.0421
3.04316
3.04349
3.04434
3.04461
3.04528
3.04549
3.04599
3.04613
3.04644
3.04654
3.04685
3.04694
3.04717
3.04723
3.04736
3.04738
3.04736
3.04732
3.04708
3.04694
3.04637
3.04606
3.0449
3.04429
3.04195
3.0406
3.03528
3.03135
3.01439
2.988
2.97623
2.9353
2.91567
2.84329
2.83028
2.82775
2.82719
2.82707
2.26023
2.52872
2.57051
2.68596
2.70539
2.76231
2.77226
2.80362
2.809
2.82536
2.82905
2.84547
2.84897
2.864
2.86718
2.88069
2.88355
2.89566
2.89821
2.909
2.91127
2.92083
2.92284
2.93125
2.93301
2.94039
2.94196
2.94862
2.95021
2.95755
2.96408
2.96528
2.96929
2.97008
2.97313
2.97374
2.97618
2.97667
2.97865
2.97905
2.98067
2.98099
2.98231
2.98258
2.98364
2.98385
2.9847
2.98486
2.98549
2.9856
2.98598
2.98607
2.98644
2.98652
2.98681
2.98686
2.98702
2.98704
2.98701
2.98698
2.98669
2.98657
2.98586
2.98562
2.98418
2.98369
2.98082
2.97975
2.97332
2.97026
2.95063
2.91853
2.90917
2.85837
2.84256
2.74994
2.73949
2.73776
2.7374
2.73733
2.08476
2.43569
2.45568
2.6
2.60911
2.6803
2.68496
2.72432
2.72684
2.74721
2.74894
2.76968
2.77133
2.79029
2.79179
2.80884
2.81019
2.82546
2.82666
2.84028
2.84135
2.85341
2.85435
2.86496
2.86579
2.87511
2.87585
2.88422
2.88496
2.89382
2.90159
2.90214
2.90717
2.90754
2.91138
2.91166
2.91474
2.91497
2.91747
2.91765
2.91969
2.91985
2.92151
2.92163
2.92297
2.92307
2.92414
2.92421
2.92501
2.92506
2.92554
2.92558
2.92605
2.92609
2.92646
2.92648
2.92669
2.92669
2.92667
2.92665
2.92629
2.92623
2.92534
2.92523
2.92343
2.9232
2.91961
2.91912
2.91122
2.90983
2.88736
2.84815
2.84378
2.78004
2.77253
2.6533
2.64835
2.64773
2.6476
2.64757
)
;

boundaryField
{
    F1_1
    {
        type            fixedValue;
        value           nonuniform List<scalar> 
80
(
1.99024
2.3963
2.3963
2.56083
2.56083
2.64299
2.64299
2.69059
2.69059
2.72077
2.72077
2.73814
2.73814
2.75721
2.75721
2.77539
2.77539
2.79211
2.79211
2.80723
2.80723
2.82071
2.82071
2.83263
2.83263
2.84311
2.84311
2.85255
2.85255
2.86226
2.8707
2.8707
2.87637
2.87637
2.8807
2.8807
2.88418
2.88418
2.88701
2.88701
2.88931
2.88931
2.89119
2.89119
2.89271
2.89271
2.89392
2.89392
2.89481
2.89481
2.89535
2.89535
2.89589
2.89589
2.89631
2.89631
2.89654
2.89654
2.89651
2.89651
2.89609
2.89609
2.89507
2.89507
2.89303
2.89303
2.88896
2.88896
2.88004
2.88004
2.85607
2.81227
2.81227
2.73975
2.73975
2.6027
2.6027
2.6027
2.6027
2.6027
)
;
    }
    F1_2
    {
        type            fixedValue;
        value           nonuniform List<scalar> 
80
(
1.97083
2.39691
2.39691
2.62139
2.62139
2.77124
2.77124
2.88277
2.88277
2.96636
2.96636
3.01862
3.01862
3.07628
3.07628
3.13055
3.13055
3.17927
3.17927
3.22216
3.22216
3.25957
3.25957
3.29213
3.29213
3.32058
3.32058
3.34623
3.34623
3.37306
3.39692
3.39692
3.41356
3.41356
3.4268
3.4268
3.43781
3.43781
3.4471
3.4471
3.45498
3.45498
3.46165
3.46165
3.46728
3.46728
3.47195
3.47195
3.47562
3.47562
3.47798
3.47798
3.48062
3.48062
3.48311
3.48311
3.48536
3.48536
3.48734
3.48734
3.48906
3.48906
3.49052
3.49052
3.49166
3.49166
3.49218
3.49218
3.49083
3.49083
3.48211
3.46031
3.46031
3.4136
3.4136
3.30693
3.30693
3.30693
3.30693
3.30693
)
;
    }
    F1_3
    {
        type            fixedValue;
        value           nonuniform List<scalar> 
80
(
1.97083
2.39691
2.39691
2.62139
2.62139
2.77124
2.77124
2.88277
2.88277
2.96636
2.96636
3.01862
3.01862
3.07628
3.07628
3.13055
3.13055
3.17927
3.17927
3.22215
3.22215
3.25957
3.25957
3.29213
3.29213
3.32058
3.32058
3.34623
3.34623
3.37306
3.39692
3.39692
3.41356
3.41356
3.4268
3.4268
3.43781
3.43781
3.4471
3.4471
3.45498
3.45498
3.46165
3.46165
3.46728
3.46728
3.47195
3.47195
3.47562
3.47562
3.47798
3.47798
3.48061
3.48061
3.48311
3.48311
3.48536
3.48536
3.48734
3.48734
3.48906
3.48906
3.49052
3.49052
3.49166
3.49166
3.49218
3.49218
3.49083
3.49083
3.48211
3.46031
3.46031
3.4136
3.4136
3.30693
3.30693
3.30693
3.30693
3.30693
)
;
    }
    F1_4
    {
        type            fixedValue;
        value           nonuniform List<scalar> 
80
(
1.99
2.39579
2.39579
2.55972
2.55972
2.64062
2.64062
2.68541
2.68541
2.7085
2.7085
2.73216
2.73216
2.75379
2.75379
2.77323
2.77323
2.79064
2.79064
2.80617
2.80617
2.81992
2.81992
2.83202
2.83202
2.84263
2.84263
2.85217
2.85217
2.86197
2.87049
2.87049
2.8762
2.8762
2.88057
2.88057
2.88407
2.88407
2.88692
2.88692
2.88924
2.88924
2.89114
2.89114
2.89267
2.89267
2.89388
2.89388
2.89478
2.89478
2.89532
2.89532
2.89587
2.89587
2.89629
2.89629
2.89652
2.89652
2.89649
2.89649
2.89608
2.89608
2.89506
2.89506
2.89302
2.89302
2.88895
2.88895
2.88004
2.88004
2.85607
2.81226
2.81226
2.73975
2.73975
2.6027
2.6027
2.6027
2.6027
2.6027
)
;
    }
    F2_1
    {
        type            fixedValue;
        value           uniform 3.5;
    }
    F2_2
    {
        type            fixedValue;
        value           uniform 3.5;
    }
    F2_3
    {
        type            fixedValue;
        value           uniform 3.5;
    }
    F2_4
    {
        type            fixedValue;
        value           uniform 3.5;
    }
    defaultFaces
    {
        type            empty;
    }
}


// ************************************************************************* //
