/*--------------------------------*- C++ -*----------------------------------*\
| =========                 |                                                 |
| \\      /  F ield         | OpenFOAM: The Open Source CFD Toolbox           |
|  \\    /   O peration     | Version:  5.x                                   |
|   \\  /    A nd           | Web:      www.OpenFOAM.org                      |
|    \\/     M anipulation  |                                                 |
\*---------------------------------------------------------------------------*/
FoamFile
{
    version     2.0;
    format      ascii;
    class       volScalarField;
    location    "5.3";
    object      gradTx;
}
// * * * * * * * * * * * * * * * * * * * * * * * * * * * * * * * * * * * * * //

dimensions      [0 -1 0 1 0 0 0];

internalField   nonuniform List<scalar> 
3200
(
45.209
3.71213
1.64883
1.54027
0.814991
0.771399
0.466728
0.44727
0.29381
0.282704
0.170818
0.166675
0.180678
0.180827
0.173141
0.1723
0.159529
0.158412
0.144299
0.143117
0.128841
0.127672
0.113877
0.112782
0.100248
0.0993617
0.090193
0.0901878
0.0951331
0.164861
0.0825578
0.0553041
0.0534751
0.0417224
0.0408949
0.033294
0.0327349
0.0270153
0.0265855
0.0220248
0.021678
0.0179369
0.0176492
0.0144993
0.014252
0.0114817
0.0112544
0.00858858
0.00834946
0.00522032
0.00508942
0.00509236
0.00504493
0.00398077
0.00386772
0.00221669
0.00205116
-0.000256793
-0.000494346
-0.00385403
-0.00421657
-0.00948499
-0.0100903
-0.019164
-0.0203119
-0.0381677
-0.0408396
-0.0840193
-0.0929396
-0.238721
-0.617268
-0.436203
-0.681608
-0.712971
-1.2682
-1.24258
-0.0557949
-0.00752933
-0.00152545
-52.9477
47.8937
3.10544
1.57739
1.35459
0.7741
0.681036
0.436322
0.394716
0.271773
0.248179
0.160317
0.151472
0.16097
0.161179
0.155204
0.153432
0.143357
0.140995
0.129825
0.127321
0.116015
0.113537
0.102615
0.100298
0.0903974
0.0885351
0.0814684
0.0816212
0.0884198
0.137457
0.0766538
0.0516599
0.0475867
0.0380508
0.0362762
0.0302167
0.0290276
0.024485
0.0235725
0.0199538
0.0192179
0.0162503
0.0156396
0.0131407
0.0126158
0.0104169
0.00993432
0.00781688
0.00731218
0.00487009
0.00459196
0.00454947
0.00444584
0.00360585
0.00336627
0.00205696
0.00170549
-0.000128458
-0.000633416
-0.00330679
-0.00407827
-0.00827806
-0.0095686
-0.0168272
-0.0192856
-0.0336847
-0.0394725
-0.0750443
-0.0949603
-0.227071
-0.517694
-0.414835
-0.602043
-0.666615
-1.08502
-1.03138
-0.121844
-0.0208975
-0.00438645
-54.7436
50.5617
2.57661
1.45375
1.18321
0.713713
0.59674
0.397792
0.345416
0.245762
0.216225
0.146655
0.135535
0.141635
0.141777
0.137099
0.134895
0.126877
0.123929
0.115005
0.111876
0.102836
0.0997405
0.0910096
0.0881162
0.0802251
0.0779166
0.0724551
0.0727888
0.0800169
0.114448
0.0693174
0.0471788
0.0419168
0.0340688
0.031829
0.0269447
0.0254545
0.0218095
0.0206677
0.0177674
0.0168471
0.0144693
0.0137055
0.0117032
0.0110465
0.00928354
0.00867966
0.00698066
0.00635239
0.0044333
0.00408508
0.00400902
0.0038762
0.00320689
0.00290758
0.00185891
0.0014191
-5.32949e-05
-0.000685761
-0.00283562
-0.00380285
-0.00718751
-0.00880824
-0.0146824
-0.0177816
-0.0295461
-0.0369141
-0.0666955
-0.0924932
-0.209081
-0.433859
-0.381865
-0.527383
-0.606106
-0.920723
-0.854409
-0.155549
-0.0308883
-0.00673127
-56.5394
53.209
2.11336
1.29601
1.01979
0.639225
0.515722
0.353399
0.298007
0.216947
0.185872
0.130656
0.118909
0.122537
0.122568
0.118894
0.116591
0.110194
0.107102
0.0999529
0.096668
0.0894195
0.0861692
0.0791705
0.0761348
0.0698294
0.0674241
0.0632099
0.0636806
0.0705259
0.0946203
0.0610614
0.0420226
0.0363503
0.0298624
0.0274875
0.0235368
0.0219675
0.0190338
0.0178332
0.0155019
0.0145345
0.0126238
0.011821
0.0102118
0.00952147
0.00810377
0.00746878
0.0061016
0.00544421
0.00393366
0.00356729
0.00347083
0.003328
0.00279312
0.00247886
0.00163649
0.00117401
-1.17409e-05
-0.000677421
-0.00241178
-0.00343075
-0.00616753
-0.00787774
-0.0126487
-0.0159311
-0.0255833
-0.0334592
-0.058506
-0.0863946
-0.186763
-0.361094
-0.340994
-0.455395
-0.536162
-0.771661
-0.702741
-0.166286
-0.036859
-0.00833076
-58.335
55.8348
1.70423
1.11662
0.860539
0.554454
0.436256
0.304728
0.251624
0.186132
0.156485
0.112917
0.101668
0.103583
0.103508
0.100635
0.0984512
0.0933791
0.0904383
0.0847463
0.0816186
0.0758429
0.0727477
0.0671729
0.0642841
0.0592778
0.0570041
0.0537772
0.0543175
0.0603449
0.0770991
0.0522245
0.0363317
0.0308165
0.0254914
0.023209
0.0200336
0.0185351
0.0161888
0.0150439
0.0131818
0.0122596
0.0107339
0.00996871
0.00868359
0.00802551
0.00689269
0.00628718
0.00519413
0.00457015
0.00338825
0.0030387
0.00293448
0.00279547
0.00237052
0.00207125
0.00139886
0.000957839
8.99951e-06
-0.000626343
-0.00201656
-0.00298994
-0.00518862
-0.00682482
-0.0106744
-0.0138257
-0.0216916
-0.0293174
-0.0502029
-0.0773967
-0.161487
-0.296107
-0.294744
-0.384753
-0.460028
-0.634776
-0.569774
-0.160743
-0.0387937
-0.00906194
-60.1303
58.4406
1.33877
0.923977
0.703292
0.462168
0.357325
0.252921
0.205737
0.153883
0.127654
0.0938859
0.0839009
0.0847093
0.0845592
0.0823485
0.0804266
0.0764788
0.0738841
0.0694371
0.066675
0.062159
0.0594255
0.0550678
0.0525181
0.0486168
0.0466221
0.0441939
0.0447348
0.0497347
0.061243
0.0430283
0.0302257
0.025275
0.0209988
0.0189662
0.0164634
0.0151365
0.0132957
0.0122834
0.0108241
0.0100089
0.00881361
0.00813722
0.00713032
0.00654853
0.00566049
0.00512507
0.00426788
0.0037184
0.00280953
0.00250029
0.00239951
0.00227437
0.00194288
0.00167855
0.00115196
0.000761969
1.7191e-05
-0.00054508
-0.00163802
-0.00250012
-0.00423221
-0.00568337
-0.00872813
-0.0115318
-0.0178095
-0.0246453
-0.0416475
-0.0661231
-0.134189
-0.23656
-0.244838
-0.3147
-0.379915
-0.507481
-0.450569
-0.143716
-0.0370397
-0.00889991
-61.9254
61.0286
1.00755
0.723567
0.546862
0.364431
0.278375
0.198824
0.160037
0.120609
0.0991254
0.0739034
0.0657019
0.0658737
0.0656931
0.0640502
0.0624831
0.0595244
0.057404
0.0540604
0.0518016
0.0484039
0.0461682
0.0428904
0.0408062
0.0378795
0.0362575
0.0344918
0.0349737
0.0388643
0.0465758
0.0336156
0.0238056
0.0197066
0.0164164
0.0147423
0.0128461
0.0117585
0.0103695
0.00954063
0.00844062
0.00777335
0.00687256
0.00631893
0.00556004
0.0050838
0.00441418
0.00397583
0.00332932
0.00288101
0.00220682
0.00195353
0.00186551
0.00176151
0.00151254
0.00129634
0.000899596
0.000580282
1.80748e-05
-0.000442596
-0.00126871
-0.00197552
-0.00328704
-0.00447818
-0.00679149
-0.00909894
-0.0139051
-0.0195665
-0.0327932
-0.0531058
-0.105519
-0.180776
-0.19247
-0.244833
-0.297309
-0.387566
-0.341361
-0.118682
-0.0321443
-0.0079024
-63.7201
63.6024
0.701983
0.518866
0.390662
0.262839
0.199165
0.143098
0.114362
0.0866173
0.0707462
0.0532401
0.0471679
0.0470521
0.0468854
0.0457489
0.0445952
0.0425365
0.0409729
0.0386404
0.0369738
0.0346023
0.0329526
0.0306652
0.029128
0.02709
0.0258987
0.0246998
0.0250763
0.027841
0.0327355
0.0240769
0.0171571
0.0141057
0.0117693
0.0105272
0.00919651
0.0083926
0.00742089
0.00680874
0.00603983
0.00554714
0.0049176
0.00450884
0.00397844
0.00362679
0.00315862
0.0028349
0.00238282
0.00205266
0.00158727
0.00140015
0.00133214
0.00125445
0.00108088
0.000921336
0.000644126
0.000408305
1.48914e-05
-0.000325501
-0.000904189
-0.00142672
-0.00234669
-0.00322811
-0.00485508
-0.00656613
-0.00996651
-0.0141851
-0.0236554
-0.0388046
-0.075936
-0.127535
-0.138474
-0.174962
-0.213191
-0.273109
-0.239213
-0.0882024
-0.0247571
-0.00619232
-65.5146
66.1657
0.414217
0.311968
0.234446
0.158681
0.119651
0.0862776
0.0686483
0.0521507
0.0424323
0.0321194
0.0283957
0.0282326
0.0281166
0.0274484
0.0267436
0.0255287
0.0245725
0.0231938
0.0221741
0.0207718
0.0197624
0.0184101
0.0174699
0.0162667
0.0155401
0.0148448
0.0150834
0.0167325
0.0194373
0.0144687
0.0103538
0.0084763
0.00707851
0.00631563
0.00552582
0.00503337
0.00445787
0.00408312
0.00362798
0.00332641
0.00295382
0.00270362
0.00238969
0.00217443
0.00189727
0.0016991
0.00143144
0.0012297
0.000956579
0.000842004
0.00079915
0.00075122
0.000648657
0.000551037
0.000386995
0.000242628
9.58291e-06
-0.000198877
-0.000541915
-0.000862036
-0.00140789
-0.00194822
-0.00291531
-0.00396574
-0.00599518
-0.00859361
-0.0142905
-0.023624
-0.045774
-0.0759204
-0.0834569
-0.105021
-0.128206
-0.162404
-0.141749
-0.0542203
-0.0155746
-0.00394079
-67.3088
68.7226
0.136921
0.104082
0.0781594
0.0530531
0.0399113
0.0288278
0.0228889
0.017413
0.0141423
0.0107352
0.00948101
0.00941126
0.0093698
0.00914923
0.00891233
0.00851065
0.00818905
0.00773277
0.00738975
0.00692559
0.00658604
0.00613845
0.0058222
0.00542428
0.00518024
0.00495238
0.00503401
0.00558171
0.00644597
0.00482629
0.00346103
0.00282767
0.00236228
0.00210515
0.00184322
0.00167746
0.00148682
0.00136071
0.00120998
0.00110851
0.000985128
0.000900944
0.000796983
0.000724554
0.000632759
0.000566073
0.000477426
0.000409605
0.000319547
0.000280987
0.000266363
0.00025017
0.000216234
0.000183393
0.000129075
8.04946e-05
3.28855e-06
-6.68724e-05
-0.000180559
-0.000288321
-0.000469309
-0.00065126
-0.00097221
-0.00132619
-0.00200109
-0.0028782
-0.00478015
-0.00793081
-0.0152921
-0.0252101
-0.0278786
-0.0350154
-0.0427799
-0.0538941
-0.0469596
-0.0182828
-0.00531169
-0.00135179
-69.103
68.7154
0.150873
0.128423
0.107469
0.0852139
0.072699
0.0607393
0.0533361
0.0448785
0.0387581
0.0310001
0.0281878
0.0282994
0.0281965
0.0273615
0.0264626
0.0249458
0.0237585
0.0221138
0.0209198
0.0193631
0.0182674
0.0168804
0.0159346
0.0147895
0.0141125
0.0135218
0.0138182
0.0154926
0.0180735
0.0137027
0.0100504
0.00837327
0.00716341
0.00649779
0.00581985
0.00538719
0.0048835
0.00454562
0.00413497
0.00385404
0.00350615
0.00326456
0.00296019
0.00274336
0.00246145
0.00224936
0.00195658
0.00172163
0.00140042
0.00128801
0.00130548
0.0013071
0.0012743
0.00123576
0.0011681
0.00111409
0.00103796
0.000981459
0.000905765
0.000849106
0.000771202
0.000705822
0.000602797
0.00048869
0.00026248
-8.1393e-05
-0.000899836
-0.0024409
-0.00623301
-0.0118084
-0.0150916
-0.0220783
-0.0295144
-0.0404596
-0.0360685
-0.0140958
-0.00409995
-0.00104379
-69.8074
66.1439
0.455989
0.38521
0.322458
0.255252
0.218075
0.182036
0.16005
0.134542
0.11634
0.0928026
0.0844465
0.0849066
0.0846188
0.082087
0.0794125
0.0748243
0.0712938
0.0663232
0.062774
0.0580709
0.0548138
0.0506236
0.0478118
0.0443497
0.0423341
0.04053
0.0413994
0.0464416
0.0544986
0.0410793
0.0300723
0.0251011
0.0214685
0.0194939
0.0174498
0.0161644
0.0146439
0.0136398
0.0123997
0.0115648
0.0105142
0.00979621
0.00887708
0.0082327
0.00738157
0.0067513
0.00586742
0.00516835
0.00419292
0.00385884
0.00391709
0.00392267
0.00382314
0.00370846
0.00350376
0.00334315
0.00311309
0.00294515
0.00271654
0.00254817
0.00231311
0.00211898
0.00180884
0.00147056
0.00079215
-0.000225192
-0.0026706
-0.00723267
-0.0186277
-0.0355169
-0.0451268
-0.066217
-0.0884027
-0.121992
-0.108909
-0.0418083
-0.0120223
-0.00304297
-69.4221
63.5649
0.771297
0.641675
0.537625
0.424089
0.363405
0.30277
0.266906
0.223914
0.194135
0.153998
0.140353
0.141544
0.141131
0.136818
0.132439
0.124661
0.118887
0.110476
0.104674
0.0967208
0.0913976
0.0843117
0.079715
0.0738522
0.0705472
0.0674312
0.0688137
0.0772701
0.0917829
0.0683594
0.0498528
0.0417755
0.0357073
0.0324928
0.0290493
0.0269511
0.0243836
0.0227434
0.0206483
0.0192842
0.017509
0.0163359
0.014783
0.0137303
0.0122929
0.0112634
0.00977089
0.00862614
0.00695978
0.00641398
0.00653081
0.00654246
0.00637259
0.00618477
0.00583766
0.00557501
0.00518576
0.00491128
0.00452491
0.00424992
0.00385339
0.00353678
0.00301601
0.00246604
0.00133539
-0.000311858
-0.00435668
-0.0117511
-0.0308026
-0.0595165
-0.0747026
-0.110312
-0.146835
-0.205392
-0.18391
-0.0680283
-0.0191123
-0.00478175
-69.0368
60.9739
1.10387
0.897117
0.753172
0.590812
0.508734
0.422513
0.374046
0.312756
0.272344
0.214133
0.195665
0.198245
0.197799
0.191552
0.185602
0.174417
0.166585
0.154524
0.146661
0.135266
0.128052
0.1179
0.111669
0.103252
0.0987529
0.0941526
0.0959451
0.107856
0.130585
0.095443
0.0692162
0.0583695
0.0498319
0.0455009
0.0405952
0.0377566
0.0340863
0.0318653
0.0288677
0.0270202
0.0244797
0.0228909
0.0206689
0.0192434
0.0171879
0.0157941
0.0136605
0.0121048
0.00968184
0.00894264
0.00914876
0.00916953
0.00892279
0.00866748
0.00816822
0.00781195
0.00725385
0.0068819
0.00632885
0.00595654
0.00539049
0.00496277
0.00422438
0.00348477
0.00189931
-0.0003026
-0.00590876
-0.0158032
-0.0425909
-0.0840572
-0.103462
-0.15437
-0.204386
-0.291993
-0.262687
-0.0915696
-0.0248189
-0.00610266
-68.6513
58.3664
1.46119
1.15005
0.969456
0.754323
0.654228
0.540746
0.481699
0.400764
0.351265
0.272679
0.250136
0.255068
0.254699
0.246274
0.238974
0.224039
0.214453
0.198405
0.188789
0.173643
0.164824
0.151332
0.14371
0.132496
0.126963
0.120618
0.122672
0.13801
0.171701
0.12217
0.0879645
0.0748713
0.0637884
0.058532
0.0520584
0.0485954
0.0437311
0.0410183
0.0370411
0.0347838
0.0314125
0.0294712
0.0265231
0.0247817
0.0220565
0.0203544
0.017527
0.0156182
0.0123366
0.0114335
0.0117742
0.0118073
0.0114734
0.01116
0.0104931
0.010057
0.00931453
0.0088598
0.00812559
0.00767094
0.00692209
0.00640121
0.00543281
0.00453736
0.00248791
-0.000157143
-0.00728928
-0.0191796
-0.0537921
-0.10948
-0.13096
-0.198464
-0.260433
-0.383271
-0.347136
-0.110936
-0.0286041
-0.0068735
-68.2656
55.7386
1.85127
1.39776
1.18712
0.913233
0.800257
0.656802
0.590228
0.487514
0.43135
0.328983
0.303508
0.312102
0.311922
0.300951
0.292651
0.273447
0.262579
0.242028
0.231138
0.211768
0.201783
0.184529
0.175895
0.161512
0.155205
0.146748
0.148867
0.16743
0.216147
0.148284
0.105868
0.0912927
0.077512
0.071612
0.0634012
0.0594904
0.05329
0.050222
0.0451459
0.0425922
0.0382881
0.0360919
0.032329
0.0303594
0.0268842
0.0249597
0.0213568
0.0191866
0.0148962
0.0138747
0.0144119
0.0144599
0.0140232
0.0136666
0.0128088
0.0123143
0.0113637
0.0108489
0.00991118
0.00939715
0.00844461
0.00785759
0.00663837
0.00563614
0.00310038
0.000167834
-0.00847942
-0.021647
-0.0641502
-0.136272
-0.156618
-0.242779
-0.314045
-0.480907
-0.439588
-0.124148
-0.0299653
-0.00699923
-67.8797
53.0875
2.28269
1.63575
1.40732
1.06571
0.947506
0.769782
0.700203
0.572403
0.513283
0.382212
0.355517
0.369488
0.369576
0.355522
0.346765
0.322521
0.311093
0.285265
0.273826
0.249517
0.239032
0.217382
0.208311
0.190206
0.183533
0.172455
0.174405
0.195644
0.265256
0.173381
0.122659
0.107682
0.0909204
0.0847845
0.0745722
0.070477
0.0627236
0.059506
0.0531498
0.0504706
0.0450795
0.0427753
0.0380633
0.0359974
0.03165
0.0296323
0.0251294
0.0228399
0.0173252
0.0162536
0.0170692
0.0171318
0.0165698
0.0161934
0.0151099
0.01459
0.0133956
0.012855
0.0116799
0.0111409
0.00995255
0.0093393
0.00783529
0.0067963
0.00372876
0.000721445
-0.0094887
-0.0229409
-0.0733234
-0.165134
-0.179643
-0.28769
-0.363833
-0.58687
-0.543005
-0.12851
-0.0284777
-0.00643505
-67.4935
50.4119
2.76461
1.857
1.63204
1.20924
1.09714
0.878437
0.812506
0.654544
0.598094
0.431266
0.405899
0.427429
0.427796
0.40988
0.401498
0.371084
0.360182
0.327927
0.317029
0.286714
0.276729
0.249731
0.241088
0.218442
0.212038
0.197642
0.199172
0.221923
0.320825
0.196832
0.13802
0.124144
0.103904
0.0981201
0.0854987
0.0816102
0.0719759
0.0689158
0.0610067
0.0584576
0.0517475
0.0495551
0.0436919
0.0417268
0.0363227
0.0344044
0.0288135
0.0266222
0.0195764
0.018557
0.0197568
0.0198289
0.0191091
0.0187486
0.0173886
0.0168927
0.0154013
0.0148865
0.0134232
0.0129108
0.0114375
0.0108567
0.00901365
0.00803766
0.00435478
0.00156322
-0.0103682
-0.0227575
-0.0808394
-0.197088
-0.198926
-0.333877
-0.407746
-0.70351
-0.661246
-0.120293
-0.0238706
-0.00519997
-67.1072
47.7125
3.30654
2.05095
1.86467
1.34035
1.25103
0.980981
0.928491
0.732624
0.68732
0.474661
0.454406
0.486217
0.486747
0.463858
0.457112
0.418865
0.410126
0.369734
0.361009
0.323097
0.315106
0.281346
0.274425
0.246029
0.240863
0.222191
0.22309
0.245156
0.385311
0.217675
0.151583
0.14086
0.116309
0.111729
0.096076
0.0929732
0.0809655
0.0785196
0.0686494
0.0666112
0.0582349
0.0564819
0.0491647
0.0475938
0.0408561
0.0393235
0.0323617
0.0305987
0.0215867
0.0207717
0.0224895
0.0225576
0.021634
0.0213437
0.0196329
0.0192352
0.017368
0.0169561
0.0151285
0.0147191
0.0128869
0.0124246
0.0101574
0.00938735
0.00494521
0.00277066
-0.0112294
-0.0207463
-0.0860286
-0.233618
-0.212884
-0.382507
-0.442782
-0.83367
-0.799435
-0.0942945
-0.0161534
-0.00338881
-66.7206
44.9939
3.91788
2.20212
2.11083
1.45406
1.41215
1.07482
1.05021
0.804683
0.783241
0.51036
0.500829
0.546255
0.546635
0.51719
0.513987
0.465467
0.461336
0.410275
0.406157
0.358284
0.354514
0.311888
0.308621
0.272687
0.270228
0.245957
0.246161
0.263666
0.462108
0.234457
0.162932
0.158129
0.127916
0.125782
0.106151
0.104693
0.0895727
0.0884206
0.075979
0.0750185
0.0644575
0.0636314
0.0544077
0.0536677
0.0451814
0.0444598
0.0357021
0.0348654
0.0232692
0.0228852
0.0252883
0.0253261
0.0241338
0.0239958
0.0218246
0.0216367
0.0192766
0.0190823
0.0167772
0.0165844
0.0142815
0.0140648
0.0112413
0.010884
0.005445
0.00445118
-0.0122698
-0.0165044
-0.0879254
-0.276881
-0.219228
-0.43551
-0.464594
-0.980836
-0.964461
-0.0432161
-0.00582117
-0.00117856
-66.334
44.9939
3.91788
2.20212
2.11083
1.45406
1.41215
1.07482
1.05021
0.804683
0.783241
0.51036
0.50083
0.546256
0.546635
0.51719
0.513987
0.465467
0.461337
0.410275
0.406158
0.358285
0.354515
0.311889
0.308621
0.272687
0.270228
0.245958
0.246162
0.263666
0.462109
0.234458
0.162933
0.15813
0.127917
0.125782
0.106152
0.104693
0.0895729
0.0884209
0.0759793
0.0750188
0.0644577
0.0636316
0.0544079
0.0536679
0.0451815
0.04446
0.0357022
0.0348655
0.0232693
0.0228852
0.0252884
0.0253262
0.0241339
0.0239959
0.0218247
0.0216368
0.0192767
0.0190824
0.0167773
0.0165845
0.0142816
0.0140649
0.0112414
0.0108841
0.00544508
0.00445126
-0.0122698
-0.0165044
-0.0879252
-0.276881
-0.219228
-0.435509
-0.464592
-0.98083
-0.964455
-0.0432159
-0.00582114
-0.00117855
-66.334
47.7125
3.30653
2.05095
1.86467
1.34035
1.25103
0.980981
0.928491
0.732625
0.687321
0.474661
0.454406
0.486217
0.486747
0.463858
0.457113
0.418866
0.410127
0.369734
0.36101
0.323098
0.315107
0.281347
0.274425
0.246029
0.240863
0.222191
0.22309
0.245156
0.385311
0.217676
0.151584
0.14086
0.11631
0.11173
0.0960763
0.0929735
0.0809657
0.0785199
0.0686497
0.0666115
0.0582351
0.0564821
0.0491649
0.047594
0.0408563
0.0393236
0.0323619
0.0305989
0.0215868
0.0207718
0.0224896
0.0225577
0.0216341
0.0213439
0.019633
0.0192354
0.0173681
0.0169562
0.0151286
0.0147192
0.012887
0.0124247
0.0101575
0.00938744
0.00494529
0.00277074
-0.0112293
-0.0207462
-0.0860285
-0.233618
-0.212884
-0.382505
-0.44278
-0.833666
-0.799431
-0.0942939
-0.0161533
-0.00338877
-66.7207
50.4119
2.7646
1.857
1.63204
1.20924
1.09714
0.878437
0.812506
0.654544
0.598094
0.431266
0.405899
0.427429
0.427796
0.409881
0.401498
0.371084
0.360183
0.327927
0.31703
0.286714
0.276729
0.249731
0.241088
0.218443
0.212038
0.197642
0.199172
0.221923
0.320826
0.196832
0.13802
0.124144
0.103904
0.0981204
0.085499
0.0816104
0.0719762
0.068916
0.061007
0.0584579
0.0517477
0.0495553
0.0436921
0.041727
0.0363229
0.0344045
0.0288136
0.0266223
0.0195765
0.018557
0.0197569
0.0198289
0.0191092
0.0187487
0.0173887
0.0168928
0.0154014
0.0148866
0.0134233
0.0129109
0.0114376
0.0108568
0.00901374
0.00803774
0.00435486
0.00156329
-0.0103682
-0.0227574
-0.0808393
-0.197087
-0.198925
-0.333875
-0.407744
-0.703506
-0.661242
-0.120292
-0.0238705
-0.00519991
-67.1072
53.0875
2.28269
1.63575
1.40732
1.06571
0.947506
0.769782
0.700203
0.572403
0.513283
0.382212
0.355517
0.369488
0.369576
0.355522
0.346765
0.322522
0.311093
0.285265
0.273826
0.249518
0.239033
0.217382
0.208311
0.190206
0.183534
0.172456
0.174406
0.195644
0.265257
0.173381
0.122659
0.107683
0.0909207
0.0847847
0.0745725
0.0704773
0.0627238
0.0595062
0.05315
0.0504708
0.0450796
0.0427755
0.0380635
0.0359976
0.0316502
0.0296324
0.0251295
0.0228399
0.0173252
0.0162536
0.0170693
0.0171319
0.0165699
0.0161935
0.01511
0.0145901
0.0133957
0.0128551
0.01168
0.011141
0.00995263
0.00933938
0.00783536
0.00679638
0.00372882
0.000721503
-0.00948866
-0.0229408
-0.0733233
-0.165133
-0.179642
-0.287689
-0.363832
-0.586867
-0.543001
-0.128509
-0.0284775
-0.00643499
-67.4935
55.7386
1.85126
1.39775
1.18712
0.913233
0.800258
0.656802
0.590229
0.487515
0.43135
0.328984
0.303508
0.312102
0.311922
0.300952
0.292651
0.273447
0.262579
0.242028
0.231138
0.211768
0.201783
0.184529
0.175896
0.161513
0.155205
0.146749
0.148868
0.16743
0.216148
0.148285
0.105869
0.091293
0.0775122
0.0716122
0.0634014
0.0594906
0.0532902
0.0502221
0.045146
0.0425923
0.0382882
0.036092
0.0323292
0.0303595
0.0268844
0.0249599
0.0213569
0.0191867
0.0148963
0.0138747
0.0144119
0.0144599
0.0140232
0.0136667
0.0128088
0.0123144
0.0113638
0.010849
0.00991125
0.00939722
0.00844468
0.00785766
0.00663843
0.0056362
0.00310043
0.00016788
-0.00847939
-0.0216469
-0.0641501
-0.136271
-0.156617
-0.242778
-0.314044
-0.480904
-0.439585
-0.124147
-0.0299651
-0.00699916
-67.8797
58.3664
1.46119
1.15005
0.969456
0.754323
0.654228
0.540746
0.4817
0.400764
0.351266
0.272679
0.250136
0.255068
0.254699
0.246274
0.238974
0.224039
0.214453
0.198405
0.188789
0.173643
0.164824
0.151332
0.14371
0.132496
0.126963
0.120619
0.122672
0.13801
0.171702
0.122171
0.0879648
0.0748715
0.0637886
0.0585322
0.0520585
0.0485956
0.0437313
0.0410184
0.0370413
0.034784
0.0314126
0.0294713
0.0265232
0.0247818
0.0220566
0.0203545
0.0175271
0.0156183
0.0123366
0.0114336
0.0117742
0.0118074
0.0114734
0.01116
0.0104931
0.0100571
0.00931459
0.00885986
0.00812565
0.007671
0.00692215
0.00640127
0.00543287
0.0045374
0.00248796
-0.000157108
-0.00728925
-0.0191795
-0.0537921
-0.10948
-0.13096
-0.198463
-0.260432
-0.383268
-0.347134
-0.110936
-0.0286039
-0.00687344
-68.2656
60.9739
1.10387
0.897117
0.753172
0.590812
0.508734
0.422513
0.374046
0.312756
0.272344
0.214133
0.195665
0.198245
0.197799
0.191552
0.185602
0.174417
0.166585
0.154524
0.146661
0.135266
0.128052
0.1179
0.111669
0.103252
0.098753
0.0941528
0.0959453
0.107857
0.130585
0.0954433
0.0692164
0.0583697
0.0498321
0.045501
0.0405953
0.0377567
0.0340864
0.0318654
0.0288678
0.0270202
0.0244798
0.022891
0.020669
0.0192435
0.017188
0.0157941
0.0136605
0.0121049
0.00968188
0.00894267
0.00914879
0.00916956
0.00892283
0.00866752
0.00816826
0.007812
0.0072539
0.00688195
0.00632889
0.00595658
0.00539054
0.00496281
0.00422441
0.0034848
0.00189934
-0.000302576
-0.00590875
-0.0158032
-0.0425909
-0.0840571
-0.103461
-0.154369
-0.204385
-0.291991
-0.262685
-0.0915691
-0.0248187
-0.0061026
-68.6513
63.5649
0.771295
0.641674
0.537625
0.424089
0.363405
0.30277
0.266906
0.223914
0.194135
0.153998
0.140353
0.141544
0.141131
0.136818
0.132439
0.124661
0.118887
0.110476
0.104674
0.0967209
0.0913976
0.0843117
0.0797151
0.0738523
0.0705473
0.0674313
0.0688138
0.0772703
0.0917831
0.0683597
0.049853
0.0417756
0.0357074
0.0324929
0.0290494
0.0269512
0.0243837
0.0227435
0.0206484
0.0192843
0.0175091
0.016336
0.0147831
0.0137304
0.0122929
0.0112635
0.00977093
0.00862618
0.00695981
0.006414
0.00653083
0.00654248
0.00637262
0.0061848
0.00583769
0.00557504
0.00518579
0.00491131
0.00452494
0.00424995
0.00385342
0.00353681
0.00301604
0.00246606
0.00133541
-0.000311843
-0.00435668
-0.0117511
-0.0308026
-0.0595164
-0.0747024
-0.110311
-0.146834
-0.205391
-0.183909
-0.0680279
-0.0191122
-0.0047817
-69.0368
66.1439
0.455988
0.385209
0.322458
0.255252
0.218075
0.182036
0.16005
0.134542
0.11634
0.0928026
0.0844466
0.0849067
0.0846189
0.082087
0.0794126
0.0748244
0.0712938
0.0663233
0.062774
0.0580709
0.0548138
0.0506236
0.0478118
0.0443498
0.0423341
0.04053
0.0413994
0.0464417
0.0544988
0.0410794
0.0300724
0.0251012
0.0214685
0.0194939
0.0174498
0.0161645
0.0146439
0.0136398
0.0123998
0.0115649
0.0105143
0.00979624
0.00887711
0.00823273
0.0073816
0.00675133
0.00586745
0.00516837
0.00419294
0.00385885
0.0039171
0.00392268
0.00382315
0.00370848
0.00350377
0.00334317
0.00311311
0.00294517
0.00271655
0.00254819
0.00231313
0.00211899
0.00180885
0.00147057
0.000792161
-0.000225185
-0.0026706
-0.00723267
-0.0186277
-0.0355168
-0.0451266
-0.0662168
-0.0884024
-0.121992
-0.108908
-0.0418081
-0.0120222
-0.00304295
-69.4222
68.7154
0.150873
0.128423
0.107469
0.0852139
0.0726991
0.0607393
0.0533361
0.0448786
0.0387581
0.0310001
0.0281878
0.0282994
0.0281965
0.0273615
0.0264626
0.0249458
0.0237585
0.0221138
0.0209198
0.0193631
0.0182674
0.0168804
0.0159346
0.0147895
0.0141125
0.0135218
0.0138182
0.0154927
0.0180736
0.0137027
0.0100505
0.00837329
0.00716343
0.00649781
0.00581987
0.00538721
0.00488352
0.00454564
0.00413498
0.00385406
0.00350617
0.00326457
0.0029602
0.00274337
0.00246146
0.00224937
0.00195658
0.00172164
0.00140043
0.00128801
0.00130549
0.0013071
0.00127431
0.00123577
0.00116811
0.00111409
0.00103796
0.000981465
0.00090577
0.000849111
0.000771208
0.000705827
0.000602801
0.000488694
0.000262483
-8.13909e-05
-0.000899836
-0.00244091
-0.00623301
-0.0118084
-0.0150916
-0.0220783
-0.0295142
-0.0404594
-0.0360683
-0.0140957
-0.00409992
-0.00104378
-69.8074
68.7222
0.136753
0.103804
0.0777662
0.052446
0.0390556
0.0275035
0.0210893
0.0150019
0.0125842
0.011922
0.0115719
0.0110187
0.0105807
0.00996698
0.00952121
0.00893917
0.0085214
0.0079785
0.00758776
0.00707848
0.00671328
0.0062404
0.00590942
0.00549655
0.00524391
0.0050078
0.0050866
0.00563563
0.0065054
0.00486926
0.00349043
0.00285085
0.002381
0.00212147
0.00185721
0.00169001
0.00149778
0.00137064
0.00121872
0.00111646
0.000992135
0.000907322
0.0008026
0.000729651
0.000637209
0.000570061
0.000480809
0.00041253
0.00032187
0.000283084
0.000268443
0.000252224
0.000218197
0.000185268
0.00013081
8.21225e-05
4.77208e-06
-6.5492e-05
-0.000179311
-0.000287166
-0.000468269
-0.000650299
-0.000971348
-0.00132539
-0.00200037
-0.00287753
-0.00477953
-0.00793019
-0.0152914
-0.0252093
-0.027878
-0.035015
-0.0427795
-0.0538938
-0.0469594
-0.0182827
-0.00531165
-0.00135174
-69.103
66.1644
0.413716
0.311134
0.23327
0.156861
0.117093
0.082305
0.0632548
0.0448588
0.0376823
0.0357535
0.0347238
0.0330515
0.031749
0.0298942
0.0285691
0.0268109
0.0255692
0.0239294
0.022768
0.0212297
0.0201441
0.0187155
0.0177315
0.0164832
0.0157311
0.0150108
0.015241
0.0168941
0.0196164
0.0145975
0.0104417
0.00854576
0.00713458
0.00636459
0.00556774
0.00507103
0.00449072
0.00411292
0.00365417
0.00335025
0.00297483
0.00272276
0.00240653
0.00218973
0.00191061
0.00171107
0.00144159
0.00123848
0.000963535
0.000848284
0.000805393
0.000757383
0.000654545
0.000556663
0.000392198
0.000247513
1.4032e-05
-0.000194735
-0.000538173
-0.000858568
-0.00140477
-0.00194534
-0.00291272
-0.00396335
-0.00599302
-0.00859159
-0.0142886
-0.0236221
-0.0457719
-0.075918
-0.0834551
-0.10502
-0.128205
-0.162403
-0.141748
-0.05422
-0.0155745
-0.00394068
-67.3088
63.6003
0.701149
0.517477
0.388715
0.25981
0.194932
0.136477
0.105394
0.074267
0.0625705
0.0595491
0.0579015
0.0550696
0.0529395
0.0498003
0.0476343
0.0446621
0.0426329
0.0398612
0.0379634
0.0353627
0.0335887
0.0311728
0.0295642
0.0274501
0.026217
0.0249758
0.0253384
0.0281097
0.0330371
0.0242912
0.0173026
0.0142213
0.0118625
0.0106088
0.00926626
0.00845539
0.00747556
0.00685843
0.00608342
0.0055869
0.00495258
0.00454077
0.00400648
0.0036523
0.00318083
0.00285487
0.00239971
0.00206731
0.00159881
0.00141059
0.00134254
0.00126473
0.00109069
0.00093072
0.000652792
0.000416453
2.2301e-05
-0.000318592
-0.000897958
-0.00142094
-0.0023415
-0.0032233
-0.00485077
-0.00656214
-0.00996292
-0.0141817
-0.0236523
-0.0388014
-0.0759326
-0.127531
-0.138471
-0.17496
-0.213189
-0.273107
-0.239211
-0.088202
-0.0247569
-0.00619215
-65.5145
61.0257
1.00639
0.721622
0.544167
0.360198
0.272514
0.189554
0.147535
0.102898
0.0871117
0.0832898
0.0811265
0.0770596
0.0741703
0.0696675
0.0667318
0.0624755
0.0597264
0.055758
0.0531868
0.0494627
0.047059
0.0435979
0.0414171
0.0383817
0.0367032
0.0348766
0.0353395
0.0392391
0.0470048
0.0339145
0.0240072
0.0198679
0.0165462
0.0148565
0.0129435
0.0118465
0.0104459
0.00961025
0.00850153
0.00782907
0.00692142
0.00636366
0.00559922
0.00511956
0.00444522
0.00400383
0.00335291
0.00290157
0.00222287
0.00196808
0.00188008
0.00177593
0.00152627
0.00130949
0.000911719
0.000591702
2.84355e-05
-0.000432915
-0.00126
-0.00196741
-0.00327978
-0.00447145
-0.00678546
-0.00909336
-0.0139001
-0.0195618
-0.0327888
-0.0531015
-0.105515
-0.18077
-0.192465
-0.24483
-0.297306
-0.387564
-0.34136
-0.118681
-0.0321441
-0.00790221
-63.7201
58.4368
1.33729
0.921476
0.699879
0.456735
0.349906
0.240993
0.189781
0.130375
0.111174
0.106964
0.104428
0.0990024
0.0954656
0.0894719
0.085882
0.0802286
0.0768686
0.0715989
0.0684564
0.0635099
0.0605715
0.0559717
0.0533042
0.049259
0.0471953
0.0446859
0.0452032
0.0502138
0.0618066
0.0434106
0.0304811
0.0254818
0.0211647
0.0191132
0.0165881
0.0152497
0.0133936
0.012373
0.0109022
0.0100806
0.00887627
0.00819482
0.00718056
0.00659459
0.00570029
0.00516116
0.00429813
0.00374493
0.00282997
0.0025189
0.00241826
0.00229294
0.00196053
0.00169549
0.00116753
0.000776674
3.04875e-05
-0.000532614
-0.00162684
-0.00248969
-0.00422289
-0.0056747
-0.00872041
-0.0115246
-0.0178031
-0.0246392
-0.0416419
-0.0661175
-0.134183
-0.236552
-0.244833
-0.314696
-0.379912
-0.507479
-0.450567
-0.143715
-0.0370395
-0.00889972
-61.9253
55.8304
1.70243
1.11356
0.856452
0.547819
0.427382
0.290125
0.232355
0.156244
0.134637
0.130571
0.127844
0.12087
0.116859
0.10918
0.105115
0.09789
0.0940872
0.0873547
0.0837981
0.0774768
0.0741506
0.0682682
0.0652464
0.0600571
0.0577052
0.0543741
0.0548871
0.0609253
0.077808
0.052688
0.0366377
0.0310684
0.0256925
0.0233888
0.0201852
0.0186737
0.0163079
0.0151537
0.0132769
0.0123475
0.0108102
0.0100393
0.00874476
0.00808195
0.00694115
0.00633145
0.00523094
0.00460274
0.0034129
0.00306129
0.00295742
0.00281822
0.00239209
0.002092
0.00141784
0.000975851
2.52087e-05
-0.000611075
-0.00200293
-0.00297716
-0.00517727
-0.0068142
-0.010665
-0.0138169
-0.0216838
-0.02931
-0.0501961
-0.07739
-0.161479
-0.296098
-0.294737
-0.384748
-0.460024
-0.634773
-0.569771
-0.160742
-0.0387935
-0.00906177
-60.1303
53.2038
2.11127
1.29237
1.01509
0.631375
0.505531
0.336077
0.275662
0.179932
0.157399
0.154125
0.151431
0.142619
0.1384
0.128744
0.124474
0.115414
0.111423
0.102984
0.0992505
0.0913239
0.0878318
0.0804503