/*--------------------------------*- C++ -*----------------------------------*\
| =========                 |                                                 |
| \\      /  F ield         | OpenFOAM: The Open Source CFD Toolbox           |
|  \\    /   O peration     | Version:  5.x                                   |
|   \\  /    A nd           | Web:      www.OpenFOAM.org                      |
|    \\/     M anipulation  |                                                 |
\*---------------------------------------------------------------------------*/
FoamFile
{
    version     2.0;
    format      ascii;
    class       volScalarField;
    location    "5.3";
    object      T;
}
// * * * * * * * * * * * * * * * * * * * * * * * * * * * * * * * * * * * * * //

dimensions      [0 0 0 1 0 0 0];

internalField   nonuniform List<scalar> 
3200
(
2.08486
2.43604
2.45607
2.60092
2.6101
2.68242
2.68724
2.72909
2.73197
2.75848
2.76024
2.77556
2.7769
2.79363
2.79499
2.81094
2.81222
2.82689
2.82806
2.84132
2.84237
2.85421
2.85514
2.86559
2.86641
2.87562
2.87635
2.88464
2.88537
2.89415
2.90186
2.90241
2.90739
2.90775
2.91156
2.91184
2.91489
2.91512
2.91759
2.91778
2.91979
2.91994
2.92159
2.92171
2.92304
2.92313
2.92418
2.92426
2.92504
2.92509
2.92556
2.9256
2.92607
2.92611
2.92647
2.92649
2.92669
2.9267
2.92667
2.92665
2.92628
2.92623
2.92533
2.92522
2.92342
2.92319
2.9196
2.9191
2.9112
2.90981
2.88733
2.84808
2.84371
2.77992
2.77241
2.6531
2.64815
2.64752
2.6474
2.64737
2.26034
2.52903
2.57088
2.68677
2.70634
2.76418
2.77445
2.80781
2.81392
2.83499
2.83874
2.85102
2.85388
2.86712
2.87
2.88264
2.88534
2.89697
2.89944
2.90996
2.91218
2.92156
2.92353
2.93182
2.93356
2.94086
2.94241
2.94901
2.95057
2.95785
2.96432
2.96551
2.96949
2.97027
2.97329
2.9739
2.97631
2.9768
2.97876
2.97916
2.98076
2.98108
2.98238
2.98264
2.9837
2.98391
2.98474
2.9849
2.98552
2.98563
2.98601
2.98609
2.98646
2.98653
2.98682
2.98687
2.98703
2.98704
2.98701
2.98698
2.98668
2.98657
2.98586
2.98561
2.98417
2.98369
2.98081
2.97974
2.9733
2.97024
2.95059
2.91847
2.90911
2.85827
2.84245
2.74977
2.73931
2.73758
2.73722
2.73714
2.42507
2.63109
2.68274
2.77647
2.80106
2.84784
2.86073
2.88762
2.89527
2.91219
2.91689
2.92686
2.93045
2.94102
2.94463
2.95473
2.95811
2.96742
2.97051
2.97892
2.9817
2.9892
2.99167
2.9983
3.00048
3.00633
3.00827
3.01357
3.01555
3.02157
3.027
3.02851
3.03171
3.0327
3.03512
3.03588
3.03782
3.03843
3.04
3.04049
3.04177
3.04218
3.04322
3.04355
3.04439
3.04465
3.04532
3.04552
3.04602
3.04616
3.04646
3.04656
3.04686
3.04695
3.04718
3.04724
3.04737
3.04739
3.04736
3.04732
3.04708
3.04694
3.04636
3.04606
3.04489
3.04428
3.04194
3.04059
3.03527
3.03134
3.01436
2.98795
2.97617
2.93521
2.91556
2.84314
2.83012
2.82759
2.82703
2.82691
2.58157
2.73933
2.7929
2.86893
2.89488
2.93285
2.94645
2.96819
2.97625
2.98989
2.99484
3.00295
3.00673
3.01521
3.01899
3.0271
3.03065
3.03812
3.04136
3.04811
3.05103
3.05705
3.05964
3.06497
3.06726
3.07195
3.074
3.07827
3.08037
3.08533
3.08983
3.09143
3.09403
3.09507
3.09702
3.09782
3.09937
3.10001
3.10127
3.1018
3.10282
3.10325
3.10409
3.10443
3.10511
3.10538
3.10592
3.10613
3.10653
3.10668
3.10692
3.10703
3.10727
3.10736
3.10755
3.10761
3.10771
3.10773
3.10771
3.10766
3.10747
3.10732
3.10685
3.10653
3.10559
3.10494
3.10303
3.10159
3.09718
3.09295
3.0785
3.05684
3.0444
3.0113
2.99079
2.93414
2.92051
2.91751
2.91683
2.91668
2.73175
2.85173
2.90217
2.9634
2.98823
3.01884
3.03185
3.04932
3.05701
3.06793
3.07266
3.07922
3.08283
3.08958
3.09318
3.09964
3.10303
3.10898
3.11207
3.11745
3.12023
3.12504
3.12751
3.13176
3.13393
3.13768
3.13964
3.14306
3.14507
3.1491
3.15278
3.15432
3.15641
3.1574
3.15896
3.15972
3.16096
3.16157
3.16258
3.16308
3.1639
3.1643
3.16497
3.1653
3.16584
3.1661
3.16653
3.16673
3.16705
3.16719
3.16739
3.16749
3.16768
3.16777
3.16792
3.16798
3.16806
3.16808
3.16806
3.16801
3.16786
3.16771
3.16734
3.16703
3.16627
3.16565
3.1641
3.16272
3.15908
3.15498
3.14293
3.12537
3.11346
3.08689
3.06746
3.02341
3.01048
3.00734
3.0066
3.00643
2.87713
2.96692
3.01101
3.05932
3.08134
3.10554
3.11707
3.13083
3.13765
3.14622
3.15041
3.15561
3.1588
3.16408
3.16726
3.17231
3.1753
3.17996
3.18269
3.1869
3.18936
3.19312
3.1953
3.19863
3.20055
3.20349
3.20521
3.20791
3.20969
3.21288
3.21581
3.21718
3.21883
3.21971
3.22093
3.22161
3.22258
3.22312
3.22391
3.22435
3.22499
3.22535
3.22587
3.22616
3.22659
3.22682
3.22715
3.22733
3.22758
3.2277
3.22786
3.22795
3.2281
3.22818
3.22829
3.22835
3.22841
3.22842
3.22841
3.22837
3.22825
3.22812
3.22782
3.22755
3.22695
3.2264
3.22517
3.22393
3.22101
3.21732
3.20759
3.19367
3.1831
3.1622
3.14511
3.11145
3.10005
3.09708
3.09635
3.09619
3.01893
3.08394
3.11968
3.15629
3.17437
3.19274
3.2022
3.21262
3.21821
3.22468
3.22812
3.23207
3.23469
3.23866
3.24126
3.24506
3.24751
3.25102
3.25325
3.25642
3.25843
3.26126
3.26305
3.26555
3.26713
3.26934
3.27075
3.27279
3.27425
3.27667
3.27891
3.28004
3.28129
3.28201
3.28293
3.28348
3.28421
3.28466
3.28525
3.28561
3.28609
3.28639
3.28678
3.28702
3.28734
3.28753
3.28778
3.28793
3.28811
3.28821
3.28833
3.28841
3.28852
3.28859
3.28867
3.28872
3.28876
3.28877
3.28876
3.28873
3.28864
3.28853
3.28831
3.28808
3.28763
3.28717
3.28624
3.28522
3.28296
3.27991
3.27241
3.26183
3.25316
3.23735
3.22343
3.19859
3.18929
3.18672
3.18608
3.18593
3.15812
3.20212
3.22832
3.25401
3.26738
3.28029
3.2873
3.2946
3.29873
3.30326
3.30581
3.30859
3.31053
3.31329
3.31521
3.31787
3.31967
3.32212
3.32377
3.32599
3.32747
3.32945
3.33076
3.33251
3.33368
3.33522
3.33627
3.33769
3.33877
3.34048
3.34205
3.34288
3.34376
3.34429
3.34494
3.34535
3.34586
3.34619
3.3466
3.34687
3.34721
3.34742
3.3477
3.34787
3.3481
3.34824
3.34841
3.34852
3.34865
3.34872
3.34881
3.34886
3.34894
3.34899
3.34905
3.34908
3.34911
3.34912
3.34912
3.34909
3.34903
3.34895
3.34879
3.34863
3.3483
3.34797
3.34731
3.34655
3.34494
3.34267
3.33735
3.32992
3.3235
3.31242
3.30218
3.28511
3.27826
3.27629
3.27579
3.27567
3.29555
3.32102
3.33697
3.35222
3.36041
3.36809
3.37238
3.37671
3.37924
3.38193
3.38349
3.38514
3.38633
3.38796
3.38914
3.39071
3.39181
3.39326
3.39427
3.39558
3.39649
3.39766
3.39846
3.3995
3.40021
3.40113
3.40177
3.40261
3.40327
3.40428
3.40522
3.40573
3.40625
3.40658
3.40696
3.40721
3.40751
3.40771
3.40796
3.40812
3.40832
3.40845
3.40862
3.40872
3.40886
3.40894
3.40905
3.40911
3.40919
3.40923
3.40928
3.40932
3.40936
3.40939
3.40943
3.40945
3.40947
3.40947
3.40947
3.40945
3.40941
3.40937
3.40927
3.40917
3.40898
3.40878
3.40838
3.40792
3.40695
3.40555
3.40238
3.39796
3.39403
3.38746
3.38121
3.37122
3.36704
3.3658
3.36548
3.3654
3.43196
3.4403
3.44565
3.45071
3.45347
3.45601
3.45746
3.4589
3.45975
3.46064
3.46116
3.46171
3.46211
3.46265
3.46305
3.46357
3.46394
3.46442
3.46476
3.46519
3.4655
3.46588
3.46616
3.4665
3.46674
3.46704
3.46726
3.46754
3.46776
3.46809
3.4684
3.46858
3.46875
3.46886
3.46899
3.46907
3.46917
3.46924
3.46932
3.46937
3.46944
3.46948
3.46954
3.46957
3.46962
3.46965
3.46968
3.4697
3.46973
3.46974
3.46976
3.46977
3.46979
3.4698
3.46981
3.46982
3.46982
3.46982
3.46982
3.46982
3.4698
3.46979
3.46976
3.46972
3.46966
3.46959
3.46946
3.4693
3.46898
3.46851
3.46745
3.46599
3.46467
3.46249
3.46039
3.4571
3.45569
3.45527
3.45516
3.45513
3.43132
3.44023
3.4464
3.45307
3.45715
3.46159
3.46442
3.46767
3.46975
3.47215
3.47363
3.47525
3.47645
3.47808
3.47927
3.48082
3.48192
3.48331
3.48429
3.48552
3.48638
3.48746
3.48821
3.48915
3.4898
3.49063
3.49121
3.49198
3.4926
3.49353
3.4944
3.4949
3.49541
3.49574
3.49613
3.49639
3.49671
3.49693
3.4972
3.49738
3.49761
3.49777
3.49796
3.49809
3.49826
3.49837
3.4985
3.49859
3.4987
3.49876
3.49884
3.49889
3.49897
3.49902
3.4991
3.49915
3.49921
3.49926
3.49932
3.49936
3.49941
3.49944
3.49948
3.49951
3.49954
3.49956
3.49957
3.49955
3.49948
3.49931
3.49886
3.49813
3.49735
3.49592
3.4944
3.49187
3.49079
3.49046
3.49038
3.49036
3.2936
3.32079
3.33919
3.35931
3.37144
3.38484
3.39325
3.40304
3.40925
3.4165
3.42089
3.42578
3.42933
3.43427
3.43779
3.44248
3.44573
3.44996
3.45286
3.45659
3.45914
3.4624
3.46462
3.46746
3.4694
3.47189
3.47364
3.47595
3.47778
3.48059
3.48323
3.4847
3.48623
3.48721
3.48838
3.48916
3.49013
3.49078
3.49159
3.49214
3.49283
3.4933
3.49388
3.49428
3.49477
3.4951
3.49551
3.49577
3.49609
3.49629
3.49651
3.49668
3.4969
3.49707
3.49729
3.49744
3.49764
3.49777
3.49795
3.49807
3.49822
3.49832
3.49845
3.49854
3.49863
3.49868
3.49871
3.49866
3.49844
3.49794
3.49658
3.49438
3.49207
3.48776
3.48323
3.47556
3.47234
3.47138
3.47114
3.47108
3.15478
3.20171
3.23191
3.26588
3.28568
3.30828
3.32202
3.33856
3.34871
3.36095
3.36812
3.37635
3.38216
3.39051
3.39627
3.40419
3.40951
3.41665
3.4214
3.4277
3.43187
3.43737
3.44101
3.44581
3.44898
3.45319
3.45604
3.45993
3.46292
3.46766
3.4721
3.4745
3.47708
3.47867
3.48065
3.48192
3.48356
3.48462
3.486
3.48689
3.48806
3.48882
3.48981
3.49045
3.49129
3.49183
3.49252
3.49295
3.4935
3.49382
3.49419
3.49446
3.49484
3.49511
3.49548
3.49573
3.49607
3.49629
3.49658
3.49678
3.49704
3.4972
3.49742
3.49756
3.49772
3.4978
3.49786
3.49777
3.49742
3.4966
3.49434
3.49065
3.48687
3.47962
3.47219
3.45908
3.4538
3.45227
3.45189
3.4518
3.0141
3.08329
3.12449
3.173
3.1998
3.23208
3.25068
3.27434
3.28808
3.30561
3.31531
3.32703
3.33488
3.34685
3.35466
3.366
3.37322
3.38345
3.38988
3.3989
3.40455
3.41243
3.41735
3.42422
3.42852
3.43454
3.43839
3.44396
3.44799
3.45474
3.46105
3.46429
3.46797
3.47012
3.47295
3.47467
3.47701
3.47845
3.48042
3.48164
3.48331
3.48434
3.48575
3.48663
3.48782
3.48855
3.48954
3.49013
3.49091
3.49134
3.49187
3.49223
3.49279
3.49315
3.49368
3.49402
3.4945
3.4948
3.49522
3.49549
3.49586
3.49608
3.4964
3.49658
3.49682
3.49693
3.49701
3.4969
3.49642
3.49532
3.49216
3.48691
3.48181
3.47147
3.46137
3.44228
3.4351
3.43312
3.43262
3.43251
2.87064
2.966
3.01676
3.081
3.11371
3.15643
3.17913
3.21051
3.2273
3.25058
3.26243
3.27785
3.28744
3.30336
3.31291
3.32799
3.33681
3.35039
3.35825
3.37023
3.37713
3.3876
3.39361
3.40273
3.40799
3.41598
3.42068
3.42804
3.43295
3.44184
3.45012
3.45406
3.45892
3.46154
3.46529
3.4674
3.4705
3.47226
3.47487
3.47636
3.47858
3.47984
3.48172
3.48278
3.48437
3.48526
3.48658
3.4873
3.48833
3.48886
3.48956
3.49
3.49074
3.49118
3.49189
3.4923
3.49294
3.49331
3.49387
3.49419
3.49468
3.49496
3.49537
3.4956
3.49592
3.49605
3.49617
3.49604
3.49544
3.49412
3.49006
3.48317
3.47696
3.46332
3.45092
3.425
3.4162
3.4139
3.41334
3.41322
2.72337
2.85048
2.9085
2.99026
3.02721
3.08158
3.10724
3.14726
3.16626
3.19601
3.2094
3.22891
3.23975
3.26012
3.27094
3.29022
3.3002
3.31756
3.32646
3.34177
3.34958
3.36294
3.36975
3.38139
3.38734
3.39755
3.40286
3.41222
3.41775
3.42896
3.43937
3.44379
3.44995
3.45292
3.4577
3.46008
3.46404
3.46603
3.46937
3.47105
3.47389
3.47531
3.47772
3.47892
3.48095
3.48196
3.48364
3.48445
3.48577
3.48637
3.48726
3.48776
3.4887
3.48921
3.49011
3.49057
3.49139
3.4918
3.49252
3.49289
3.49351
3.49383
3.49436
3.49462
3.49502
3.49518
3.49533
3.4952
3.49448
3.49303
3.48807
3.4794
3.47241
3.45513
3.441
3.40704
3.39704
3.39462
3.39405
3.39392
2.57102
2.73773
2.79929
2.90131
2.94002
3.00788
3.03477
3.08486
3.10479
3.1421
3.15612
3.18032
3.19167
3.21727
3.22863
3.25282
3.26331
3.28507
3.29441
3.3136
3.3218
3.33855
3.3457
3.36029
3.36653
3.37931
3.38488
3.39656
3.40233
3.41612
3.42885
3.43346
3.44112
3.44423
3.45021
3.4527
3.45767
3.45975
3.46394
3.4657
3.46925
3.47075
3.47376
3.47503
3.47757
3.47863
3.48073
3.48159
3.48325
3.48387
3.48498
3.4855
3.48668
3.48721
3.48834
3.48883
3.48985
3.49029
3.49119
3.49158
3.49236
3.49269
3.49336
3.49362
3.49414
3.4943
3.49451
3.49438
3.49356
3.49208
3.48623
3.47557
3.46827
3.4468
3.43188
3.38811
3.37758
3.37526
3.37474
3.37462
2.412
2.62919
2.68846
2.81489
2.85166
2.93582
2.96138
3.02366
3.04263
3.08911
3.10244
3.13224
3.14302
3.17498
3.1858
3.21597
3.22595
3.25308
3.26197
3.28587
3.29368
3.31454
3.32135
3.33952
3.34546
3.36136
3.36666
3.38113
3.38658
3.40332
3.41866
3.423
3.43246
3.43542
3.44285
3.44523
3.4514
3.45339
3.4586
3.46028
3.4647
3.46613
3.46988
3.47108
3.47425
3.47525
3.47788
3.47869
3.48076
3.48136
3.48272
3.48321
3.48469
3.4852
3.4866
3.48707
3.48834
3.48876
3.48988
3.49025
3.49122
3.49154
3.49237
3.49262
3.49327
3.49343
3.4937
3.49358
3.49267
3.49131
3.48458
3.4716
3.46469
3.43821
3.42392
3.36786
3.35779
3.35583
3.35541
3.35531
2.24429
2.52697
2.57494
2.73206
2.76141
2.8661
2.88651
2.96419
2.97936
3.03746
3.04809
3.08492
3.09353
3.13354
3.14221
3.17993
3.18792
3.22182
3.22893
3.25879
3.26503
3.2911
3.29654
3.31923
3.32398
3.34384
3.34807
3.36606
3.37038
3.39057
3.40891
3.41234
3.42407
3.42642
3.4357
3.4376
3.44531
3.4469
3.4534
3.45475
3.46027
3.46141
3.46609
3.46706
3.47101
3.47182
3.47509
3.47575
3.47833
3.47881
3.48049
3.48089
3.48274
3.48314
3.4849
3.48528
3.48686
3.4872
3.4886
3.48889
3.49011
3.49037
3.4914
3.49161
3.49242
3.49255
3.49291
3.49282
3.49179
3.49075
3.48319
3.46739
3.4619
3.42914
3.41762
3.34577
3.33768
3.33634
3.33606
3.336
2.06527
2.43413
2.45706
2.65434
2.66814
2.79975
2.80935
2.90723
2.91437
2.9877
2.9927
3.03873
3.04278
3.09336
3.09745
3.14508
3.14884
3.19162
3.19498
3.23265
3.23559
3.26848
3.27104
3.29967
3.30191
3.32694
3.32893
3.35153
3.35355
3.3779
3.39976
3.40134
3.41605
3.41716
3.42884
3.42974
3.43946
3.4402
3.44841
3.44905
3.45601
3.45655
3.46246
3.46291
3.4679
3.46828
3.47242
3.47272
3.47599
3.47621
3.47831
3.4785
3.48084
3.48103
3.48326
3.48343
3.48544
3.4856
3.48737
3.4875
3.48904
3.48916
3.49047
3.49057
3.4916
3.49166
3.49214
3.4921
3.49091
3.49045
3.48212
3.46276
3.4602
3.41921
3.41374
3.32113
3.31729
3.31681
3.31671
3.31669
2.06527
2.43413
2.45705
2.65434
2.66814
2.79974
2.80935
2.90723
2.91437
2.98769
2.9927
3.03873
3.04278
3.09336
3.09744
3.14508
3.14884
3.19162
3.19498
3.23265
3.23559
3.26848
3.27104
3.29967
3.30191
3.32694
3.32893
3.35153
3.35355
3.3779
3.39976
3.40134
3.41605
3.41716
3.42884
3.42974
3.43946
3.4402
3.44841
3.44905
3.45601
3.45655
3.46246
3.46291
3.4679
3.46828
3.47242
3.47272
3.47599
3.47621
3.47831
3.4785
3.48084
3.48103
3.48326
3.48343
3.48544
3.4856
3.48737
3.4875
3.48904
3.48916
3.49047
3.49057
3.4916
3.49166
3.49214
3.4921
3.49091
3.49045
3.48212
3.46276
3.4602
3.41921
3.41374
3.32113
3.31729
3.31681
3.31671
3.31669
2.24429
2.52696
2.57494
2.73206
2.76141
2.86609
2.88651
2.96419
2.97936
3.03745
3.04809
3.08492
3.09353
3.13354
3.14221
3.17993
3.18792
3.22182
3.22893
3.25879
3.26503
3.2911
3.29654
3.31923
3.32398
3.34384
3.34807
3.36606
3.37038
3.39057
3.40891
3.41234
3.42407
3.42642
3.4357
3.4376
3.44531
3.44689
3.4534
3.45475
3.46027
3.46141
3.46609
3.46706
3.47101
3.47182
3.47509
3.47575
3.47833
3.47881
3.48049
3.48088
3.48274
3.48314
3.4849
3.48527
3.48686
3.4872
3.4886
3.48889
3.49011
3.49037
3.4914
3.49161
3.49242
3.49255
3.49291
3.49282
3.49179
3.49075
3.48319
3.46739
3.4619
3.42914
3.41762
3.34577
3.33768
3.33634
3.33606
3.336
2.412
2.62919
2.68846
2.81489
2.85166
2.93582
2.96137
3.02366
3.04262
3.08911
3.10243
3.13224
3.14302
3.17498
3.1858
3.21597
3.22595
3.25308
3.26197
3.28587
3.29367
3.31454
3.32135
3.33952
3.34546
3.36136
3.36666
3.38112
3.38658
3.40332
3.41866
3.423
3.43246
3.43541
3.44285
3.44523
3.4514
3.45339
3.4586
3.46028
3.4647
3.46613
3.46988
3.47108
3.47424
3.47525
3.47788
3.47869
3.48076
3.48136
3.48272
3.48321
3.48469
3.48519
3.4866
3.48707
3.48834
3.48876
3.48988
3.49025
3.49122
3.49154
3.49237
3.49262
3.49327
3.49343
3.4937
3.49358
3.49267
3.49131
3.48458
3.4716
3.46469
3.43821
3.42392
3.36786
3.35779
3.35583
3.35541
3.35531
2.57102
2.73773
2.79929
2.90131
2.94002
3.00788
3.03477
3.08486
3.10479
3.1421
3.15612
3.18032
3.19167
3.21727
3.22863
3.25282
3.2633
3.28507
3.29441
3.3136
3.3218
3.33855
3.3457
3.36029
3.36653
3.37931
3.38488
3.39655
3.40232
3.41612
3.42885
3.43346
3.44112
3.44423
3.45021
3.4527
3.45767
3.45975
3.46394
3.4657
3.46925
3.47075
3.47376
3.47503
3.47757
3.47863
3.48073
3.48159
3.48325
3.48387
3.48498
3.4855
3.48668
3.48721
3.48834
3.48883
3.48985
3.49029
3.49119
3.49158
3.49236
3.49269
3.49336
3.49362
3.49414
3.4943
3.49451
3.49438
3.49356
3.49208
3.48623
3.47557
3.46827
3.4468
3.43188
3.38811
3.37758
3.37526
3.37474
3.37462
2.72337
2.85048
2.9085
2.99026
3.02721
3.08158
3.10724
3.14726
3.16626
3.19601
3.2094
3.22891
3.23975
3.26012
3.27094
3.29022
3.3002
3.31756
3.32646
3.34176
3.34958
3.36294
3.36975
3.38139
3.38734
3.39755
3.40286
3.41222
3.41775
3.42896
3.43937
3.44379
3.44995
3.45292
3.4577
3.46008
3.46404
3.46603
3.46937
3.47105
3.47389
3.47531
3.47772
3.47892
3.48095
3.48196
3.48364
3.48445
3.48577
3.48637
3.48726
3.48776
3.4887
3.48921
3.49011
3.49057
3.49139
3.4918
3.49252
3.49289
3.49351
3.49383
3.49436
3.49461
3.49502
3.49518
3.49533
3.4952
3.49448
3.49303
3.48807
3.4794
3.47241
3.45513
3.441
3.40704
3.39705
3.39462
3.39405
3.39392
2.87064
2.966
3.01676
3.081
3.11371
3.15643
3.17913
3.21051
3.2273
3.25058
3.26243
3.27785
3.28744
3.30336
3.31291
3.32799
3.33681
3.35039
3.35825
3.37023
3.37713
3.38759
3.39361
3.40273
3.40799
3.41598
3.42068
3.42804
3.43295
3.44184
3.45012
3.45406
3.45892
3.46154
3.46529
3.4674
3.4705
3.47226
3.47487
3.47636
3.47858
3.47984
3.48172
3.48278
3.48437
3.48526
3.48658
3.4873
3.48833
3.48886
3.48956
3.49
3.49074
3.49118
3.49189
3.4923
3.49294
3.49331
3.49387
3.49419
3.49468
3.49496
3.49537
3.4956
3.49592
3.49605
3.49617
3.49604
3.49544
3.49412
3.49006
3.48317
3.47696
3.46332
3.45092
3.425
3.4162
3.4139
3.41334
3.41322
3.0141
3.08329
3.12448
3.173
3.1998
3.23208
3.25068
3.27434
3.28808
3.30561
3.31531
3.32702
3.33488
3.34685
3.35466
3.366
3.37322
3.38345
3.38988
3.3989
3.40455
3.41243
3.41735
3.42422
3.42852
3.43454
3.43839
3.44396
3.44799
3.45474
3.46105
3.46429
3.46797
3.47012
3.47295
3.47467
3.47701
3.47845
3.48042
3.48164
3.48331
3.48434
3.48575
3.48663
3.48782
3.48855
3.48954
3.49013
3.49091
3.49134
3.49187
3.49223
3.49279
3.49315
3.49368
3.49402
3.4945
3.4948
3.49522
3.49549
3.49586
3.49608
3.4964
3.49658
3.49682
3.49693
3.49701
3.4969
3.49642
3.49532
3.49216
3.48691
3.48181
3.47147
3.46137
3.44228
3.4351
3.43312
3.43262
3.43251
3.15478
3.20171
3.23191
3.26587
3.28568
3.30828
3.32202
3.33856
3.34871
3.36095
3.36812
3.37635
3.38216
3.39051
3.39627
3.40419
3.40951
3.41665
3.4214
3.4277
3.43187
3.43737
3.44101
3.4458
3.44898
3.45319
3.45604
3.45993
3.46292
3.46766
3.4721
3.4745
3.47708
3.47867
3.48065
3.48192
3.48356
3.48462
3.48599
3.48689
3.48806
3.48882
3.48981
3.49045
3.49129
3.49183
3.49252
3.49295
3.4935
3.49382
3.49419
3.49446
3.49484
3.49511
3.49548
3.49573
3.49607
3.49629
3.49658
3.49678
3.49704
3.4972
3.49742
3.49756
3.49772
3.4978
3.49786
3.49777
3.49742
3.4966
3.49434
3.49065
3.48687
3.47962
3.47219
3.45908
3.4538
3.45227
3.45189
3.4518
3.29359
3.32079
3.33919
3.35931
3.37144
3.38484
3.39325
3.40304
3.40925
3.4165
3.42089
3.42578
3.42933
3.43427
3.43779
3.44248
3.44573
3.44996
3.45286
3.45659
3.45914
3.4624
3.46462
3.46746
3.4694
3.47189
3.47364
3.47595
3.47778
3.48059
3.48323
3.4847
3.48623
3.48721
3.48838
3.48916
3.49013
3.49078
3.49159
3.49214
3.49283
3.4933
3.49388
3.49428
3.49477
3.4951
3.49551
3.49577
3.49609
3.49629
3.49651
3.49668
3.4969
3.49707
3.49729
3.49744
3.49764
3.49777
3.49795
3.49807
3.49822
3.49832
3.49845
3.49854
3.49863
3.49868
3.49871
3.49866
3.49844
3.49794
3.49658
3.49438
3.49207
3.48776
3.48323
3.47556
3.47234
3.47138
3.47114
3.47108
3.43132
3.44023
3.4464
3.45307
3.45715
3.46159
3.46442
3.46767
3.46975
3.47215
3.47363
3.47525
3.47645
3.47808
3.47927
3.48082
3.48192
3.48331
3.48429
3.48552
3.48638
3.48746
3.48821
3.48915
3.4898
3.49063
3.49121
3.49198
3.4926
3.49353
3.4944
3.4949
3.49541
3.49574
3.49613
3.49639
3.49671
3.49693
3.4972
3.49738
3.49761
3.49777
3.49796
3.49809
3.49826
3.49837
3.4985
3.49859
3.4987
3.49876
3.49884
3.49889
3.49897
3.49902
3.4991
3.49915
3.49921
3.49926
3.49932
3.49936
3.49941
3.49944
3.49948
3.49951
3.49954
3.49956
3.49957
3.49955
3.49948
3.49931
3.49886
3.49813
3.49735
3.49592
3.4944
3.49187
3.49079
3.49046
3.49038
3.49036
3.43194
3.44028
3.44562
3.45066
3.45339
3.4559
3.4573
3.45865
3.45941
3.46015
3.46067
3.46134
3.46183
3.46245
3.46288
3.46344
3.46384
3.46434
3.46469
3.46513
3.46545
3.46584
3.46612
3.46647
3.46671
3.46702
3.46723
3.46752
3.46774
3.46808
3.46839
3.46857
3.46874
3.46885
3.46898
3.46906
3.46916
3.46923
3.46931
3.46937
3.46944
3.46948
3.46954
3.46957
3.46962
3.46965
3.46968
3.4697
3.46973
3.46974
3.46976
3.46977
3.46979
3.4698
3.46981
3.46982
3.46982
3.46982
3.46982
3.46982
3.4698
3.46979
3.46976
3.46972
3.46966
3.46959
3.46946
3.4693
3.46898
3.46851
3.46745
3.46599
3.46467
3.46249
3.46039
3.4571
3.45569
3.45527
3.45516
3.45513
3.2955
3.32095
3.33687
3.35206
3.36019
3.36775
3.3719
3.37598
3.37823
3.38046
3.382
3.38404
3.38547
3.38734
3.38864
3.39033
3.3915
3.39301
3.39406
3.39541
3.39634
3.39753
3.39835
3.3994
3.40012
3.40105
3.4017
3.40255
3.40322
3.40424
3.40518
3.4057
3.40623
3.40655
3.40694
3.40719
3.4075
3.4077
3.40795
3.40811
3.40831
3.40844
3.40861
3.40872
3.40885
3.40894
3.40904
3.40911
3.40918
3.40923
3.40928
3.40931
3.40936
3.40939
3.40943
3.40945
3.40947
3.40947
3.40947
3.40945
3.40941
3.40937
3.40927
3.40917
3.40898
3.40877
3.40838
3.40792
3.40695
3.40555
3.40238
3.39796
3.39403
3.38746
3.38121
3.37122
3.36704
3.3658
3.36548
3.3654
3.15803
3.202
3.22815
3.25375
3.26702
3.27973
3.28651
3.29338
3.29705
3.3008
3.30331
3.30676
3.3091
3.31226
3.31439
3.31724
3.31915
3.32171
3.32342
3.3257
3.32721
3.32923
3.33057
3.33235
3.33353
3.33509
3.33615
3.33759
3.33868
3.3404
3.34199
3.34283
3.34372
3.34425
3.3449
3.34532
3.34583
3.34616
3.34658
3.34685
3.34719
3.34741
3.34768
3.34786
3.34808
3.34822
3.3484
3.34851
3.34864
3.34872
3.3488
3.34886
3.34894
3.34898
3.34904
3.34908
3.34911
3.34912
3.34911
3.34909
3.34902
3.34895
3.34879
3.34862
3.3483
3.34797
3.34731
3.34655
3.34494
3.34267
3.33735
3.32992
3.3235
3.31242
3.30218
3.28511
3.27826
3.27629
3.27579
3.27567
3.01881
3.08376
3.11945
3.15593
3.17386
3.19195
3.20111
3.2109
3.21587
3.22119
3.22458
3.22952
3.23269
3.23723
3.24011
3.24419
3.24678
3.25044
3.25275
3.25602
3.25807
3.26096
3.26278
3.26532
3.26692
3.26916
3.27059
3.27265
3.27412
3.27657
3.27882
3.27996
3.28123
3.28195
3.28288
3.28344
3.28417
3.28462
3.28522
3.28558
3.28607
3.28636
3.28676
3.287
3.28732
3.28751
3.28777
3.28791
3.2881
3.2882
3.28832
3.2884
3.28851
3.28858
3.28866
3.28871
3.28875
3.28877
3.28876
3.28872
3.28863
3.28853
3.2883
3.28808
3.28763
3.28717
3.28624
3.28521
3.28296
3.2799
3.2724
3.26183
3.25316
3.23734
3.22343
3.19859
3.18929
3.18672
3.18608
3.18593
2.87698
2.9667
3.01071
3.05885
3.0807
3.10452
3.11569
3.12862
3.13467
3.14166
3.14579
3.15235
3.15623
3.16225
3.16578
3.1712
3.17436
3.17922
3.18205
3.18638
3.1889
3.19274
3.19495
3.19833
3.20028
3.20326
3.205
3.20773
3.20952
3.21275
3.21571
3.21709
3.21875
3.21964
3.22087
3.22155
3.22253
3.22307
3.22387
3.22431
3.22496
3.22532
3.22585
3.22614
3.22656
3.2268
3.22713
3.22731
3.22756
3.22769
3.22785
3.22794
3.22809
3.22817
3.22828
3.22834
3.2284
3.22842
3.2284
3.22836
3.22824
3.22811
3.22782
3.22755
3.22695
3.22639
3.22517
3.22393
3.221
3.21732
3.20758
3.19366
3.1831
3.16219
3.14511
3.11145
3.10005
3.09707
3.09635
3.09618
2.73157
2.85146
2.90182
2.96282
2.98746
3.0176
3.0302
3.04661
3.05344
3.06224
3.0669
3.0753
3.07968
3.08738
3.09137
3.0983
3.10188
3.10809
3.11129
3.11683
3.11967
3.12457
3.12708
3.1314
3.13361
3.13741
3.13938
3.14284
3.14487
3.14894
3.15265
3.1542
3.15631
3.15731
3.15888
3.15965
3.1609
3.16152
3.16253
3.16303
3.16386
3.16427
3.16494
3.16527
3.16581
3.16608
3.16651
3.16671
3.16703
3.16717
3.16737
3.16748
3.16767
3.16776
3.16791
3.16797
3.16805
3.16807
3.16805
3.16801
3.16785
3.16771
3.16733
3.16703
3.16627
3.16565
3.1641
3.16271
3.15908
3.15498
3.14293
3.12537
3.11346
3.08689
3.06746
3.02341
3.01048
3.00734
3.0066
3.00643
2.58137
2.73901
2.79249
2.86825
2.894
2.93138
2.94456
2.96499
2.97212
2.98299
2.98786
2.9984
3.003
3.01266
3.01684
3.02553
3.02929
3.03708
3.04043
3.04737
3.05036
3.05651
3.05914
3.06455
3.06687
3.07163
3.0737
3.07802
3.08013
3.08514
3.08968
3.0913
3.09392
3.09496
3.09693
3.09773
3.0993
3.09994
3.10122
3.10174
3.10278
3.1032
3.10405
3.1044
3.10508
3.10535
3.10589
3.10611
3.10651
3.10665
3.1069
3.10701
3.10725
3.10735
3.10753
3.1076
3.1077
3.10772
3.1077
3.10765
3.10746
3.10731
3.10685
3.10653
3.10558
3.10493
3.10303
3.10159
3.09718
3.09295
3.0785
3.05684
3.0444
3.0113
2.99079
2.93414
2.92051
2.91751
2.91683
2.91668
2.42485
2.63072
2.68228
2.77567
2.80008
2.84614
2.85862
2.8839
2.89066
2.90397
2.9086
2.92174
2.92612
2.93816
2.94214
2.95296
2.95654
2.96624
2.96944
2.97808
2.98092
2.98858
2.99109
2.99783
3.00003
3.00595
3.00792
3.01328
3.01528
3.02136
3.02683
3.02835
3.03158
3.03258
3.03502
3.03578
3.03773
3.03835
3.03993
3.04043
3.04172
3.04213
3.04318
3.04351
3.04435
3.04462
3.04529
3.04549
3.04599
3.04613
3.04644
3.04654
3.04684
3.04693
3.04717
3.04723
3.04735
3.04737
3.04735
3.04731
3.04707
3.04693
3.04635
3.04605
3.04489
3.04427
3.04193
3.04058
3.03526
3.03133
3.01436
2.98795
2.97617
2.93521
2.91556
2.84314
2.83012
2.82758
2.82703
2.82691
2.26011
2.52861
2.57039
2.68586
2.70529
2.76223
2.77217
2.80355
2.80893
2.82531
2.82899
2.84543
2.84894
2.86397
2.86716
2.88069
2.88355
2.89566
2.89822
2.90902
2.91129
2.92086
2.92287
2.93128
2.93305
2.94044
2.94201
2.94867
2.95026
2.9576
2.96413
2.96533
2.96934
2.97013
2.97317
2.97379
2.97622
2.97671
2.97869
2.97909
2.9807
2.98102
2.98233
2.9826
2.98366
2.98387
2.9847
2.98487
2.98549
2.9856
2.98598
2.98607
2.98644
2.98651
2.9868
2.98685
2.98701
2.98703
2.987
2.98697
2.98667
2.98656
2.98585
2.98561
2.98417
2.98368
2.9808
2.97973
2.9733
2.97024
2.95059
2.91847
2.90911
2.85827
2.84245
2.74976
2.73931
2.73758
2.73722
2.73714
2.08462
2.43556
2.45556
2.59989
2.609
2.6802
2.68487
2.72424
2.72677
2.74715
2.74888
2.76963
2.77129
2.79027
2.79177
2.80883
2.81018
2.82547
2.82667
2.8403
2.84137
2.85344
2.85439
2.86501
2.86584
2.87516
2.8759
2.88427
2.88501
2.89388
2.90165
2.90221
2.90723
2.9076
2.91143
2.91172
2.91478
2.91502
2.91751
2.91769
2.91972
2.91988
2.92153
2.92165
2.92299
2.92309
2.92415
2.92422
2.92501
2.92506
2.92554
2.92558
2.92605
2.92609
2.92645
2.92648
2.92668
2.92668
2.92665
2.92664
2.92627
2.92622
2.92532
2.92521
2.92341
2.92318
2.91959
2.9191
2.91119
2.90981
2.88732
2.84808
2.8437
2.77992
2.77241
2.6531
2.64815
2.64752
2.6474
2.64737
)
;

boundaryField
{
    F1_1
    {
        type            fixedValue;
        value           nonuniform List<scalar> 
80
(
1.99009
2.39617
2.39617
2.56071
2.56071
2.64289
2.64289
2.69052
2.69052
2.72072
2.72072
2.73811
2.73811
2.75719
2.75719
2.77538
2.77538
2.79212
2.79212
2.80725
2.80725
2.82075
2.82075
2.83268
2.83268
2.84317
2.84317
2.85261
2.85261
2.86233
2.87077
2.87077
2.87643
2.87643
2.88076
2.88076
2.88423
2.88423
2.88705
2.88705
2.88935
2.88935
2.89122
2.89122
2.89273
2.89273
2.89393
2.89393
2.89482
2.89482
2.89535
2.89535
2.89589
2.89589
2.8963
2.8963
2.89653
2.89653
2.89649
2.89649
2.89608
2.89608
2.89506
2.89506
2.89301
2.89301
2.88894
2.88894
2.88002
2.88002
2.85603
2.81219
2.81219
2.73963
2.73963
2.60248
2.60248
2.60248
2.60248
2.60248
)
;
    }
    F1_2
    {
        type            fixedValue;
        value           nonuniform List<scalar> 
80
(
1.96838
2.39462
2.39462
2.61914
2.61914
2.76901
2.76901
2.88056
2.88056
2.96418
2.96418
3.01647
3.01647
3.07419
3.07419
3.12852
3.12852
3.17731
3.17731
3.22027
3.22027
3.25777
3.25777
3.29041
3.29041
3.31894
3.31894
3.34468
3.34468
3.37161
3.39558
3.39558
3.41231
3.41231
3.42563
3.42563
3.43671
3.43671
3.44607
3.44607
3.45401
3.45401
3.46075
3.46075
3.46643
3.46643
3.47115
3.47115
3.47487
3.47487
3.47726
3.47726
3.47994
3.47994
3.48247
3.48247
3.48476
3.48476
3.48678
3.48678
3.48854
3.48854
3.49003
3.49003
3.4912
3.4912
3.49176
3.49176
3.49046
3.49046
3.48181
3.46012
3.46012
3.41354
3.41354
3.30703
3.30703
3.30703
3.30703
3.30703
)
;
    }
    F1_3
    {
        type            fixedValue;
        value           nonuniform List<scalar> 
80
(
1.96838
2.39462
2.39462
2.61914
2.61914
2.76901
2.76901
2.88055
2.88055
2.96418
2.96418
3.01647
3.01647
3.07419
3.07419
3.12852
3.12852
3.17731
3.17731
3.22027
3.22027
3.25777
3.25777
3.29041
3.29041
3.31894
3.31894
3.34468
3.34468
3.37161
3.39558
3.39558
3.41231
3.41231
3.42563
3.42563
3.43671
3.43671
3.44607
3.44607
3.45401
3.45401
3.46075
3.46075
3.46643
3.46643
3.47115
3.47115
3.47487
3.47487
3.47726
3.47726
3.47994
3.47994
3.48247
3.48247
3.48476
3.48476
3.48678
3.48678
3.48854
3.48854
3.49003
3.49003
3.4912
3.4912
3.49176
3.49176
3.49046
3.49046
3.48181
3.46012
3.46012
3.41354
3.41354
3.30703
3.30703
3.30703
3.30703
3.30703
)
;
    }
    F1_4
    {
        type            fixedValue;
        value           nonuniform List<scalar> 
80
(
1.98986
2.39565
2.39565
2.55961
2.55961
2.64052
2.64052
2.68533
2.68533
2.70844
2.70844
2.73212
2.73212
2.75376
2.75376
2.77322
2.77322
2.79065
2.79065
2.80619
2.80619
2.81996
2.81996
2.83206
2.83206
2.84269
2.84269
2.85223
2.85223
2.86204
2.87055
2.87055
2.87626
2.87626
2.88063
2.88063
2.88412
2.88412
2.88696
2.88696
2.88928
2.88928
2.89116
2.89116
2.89268
2.89268
2.89389
2.89389
2.89479
2.89479
2.89532
2.89532
2.89586
2.89586
2.89628
2.89628
2.89651
2.89651
2.89648
2.89648
2.89606
2.89606
2.89505
2.89505
2.893
2.893
2.88893
2.88893
2.88001
2.88001
2.85602
2.81219
2.81219
2.73962
2.73962
2.60248
2.60248
2.60248
2.60248
2.60248
)
;
    }
    F2_1
    {
        type            fixedValue;
        value           uniform 3.5;
    }
    F2_2
    {
        type            fixedValue;
        value           uniform 3.5;
    }
    F2_3
    {
        type            fixedValue;
        value           uniform 3.5;
    }
    F2_4
    {
        type            fixedValue;
        value           uniform 3.5;
    }
    defaultFaces
    {
        type            empty;
    }
}


// ************************************************************************* //
