/*--------------------------------*- C++ -*----------------------------------*\
| =========                 |                                                 |
| \\      /  F ield         | OpenFOAM: The Open Source CFD Toolbox           |
|  \\    /   O peration     | Version:  5.x                                   |
|   \\  /    A nd           | Web:      www.OpenFOAM.org                      |
|    \\/     M anipulation  |                                                 |
\*---------------------------------------------------------------------------*/
FoamFile
{
    version     2.0;
    format      ascii;
    class       volScalarField;
    location    "12.2";
    object      gradTy;
}
// * * * * * * * * * * * * * * * * * * * * * * * * * * * * * * * * * * * * * //

dimensions      [0 -1 0 1 0 0 0];

internalField   nonuniform List<scalar> 
2048
(
-26.4237
-26.3961
-26.3417
-26.2621
-26.1593
-26.0359
-25.8946
-25.7383
-25.5698
-25.3916
-25.2061
-25.0155
-24.8216
-24.6263
-24.4309
-24.2369
-24.0453
-23.857
-23.6728
-23.4933
-23.3189
-23.1499
-22.9867
-22.8295
-22.6785
-22.5339
-22.396
-22.2652
-22.1418
-22.0264
-21.9194
-21.8215
-21.7334
-21.6561
-21.5904
-21.5373
-21.498
-21.4736
-21.4654
-21.4745
-21.5023
-21.5501
-21.6189
-21.7101
-21.8245
-21.9629
-22.1257
-22.3129
-22.5236
-22.7567
-23.0097
-23.2793
-23.5613
-23.8504
-24.1406
-24.4253
-24.6976
-24.9511
-25.1796
-25.3777
-25.5412
-25.6666
-25.7515
-25.7943
-26.446
-26.4178
-26.3621
-26.2808
-26.176
-26.0503
-25.9068
-25.7482
-25.5776
-25.3975
-25.2102
-25.018
-24.8228
-24.6263
-24.4299
-24.2349
-24.0426
-23.8537
-23.669
-23.4891
-23.3145
-23.1453
-22.9819
-22.8245
-22.6733
-22.5284
-22.3903
-22.2592
-22.1354
-22.0195
-21.912
-21.8135
-21.7248
-21.6467
-21.5801
-21.5262
-21.4859
-21.4606
-21.4513
-21.4594
-21.4862
-21.533
-21.6009
-21.6913
-21.8051
-21.9432
-22.106
-22.2937
-22.5057
-22.7406
-22.9962
-23.2693
-23.5556
-23.8496
-24.1451
-24.4352
-24.7129
-24.9713
-25.2041
-25.4058
-25.572
-25.6994
-25.7855
-25.829
-26.4887
-26.4592
-26.4012
-26.3165
-26.2076
-26.0777
-25.9297
-25.7669
-25.5923
-25.4085
-25.218
-25.0228
-24.825
-24.6262
-24.4278
-24.2311
-24.0373
-23.8473
-23.6618
-23.4812
-23.306
-23.1365
-22.9728
-22.815
-22.6634
-22.5182
-22.3795
-22.2478
-22.1233
-22.0066
-21.8981
-21.7985
-21.7085
-21.6289
-21.5608
-21.5052
-21.4631
-21.4359
-21.4247
-21.4309
-21.4557
-21.5005
-21.5667
-21.6555
-21.7682
-21.9056
-22.0684
-22.257
-22.4711
-22.7095
-22.9701
-23.2498
-23.5442
-23.8476
-24.1534
-24.4541
-24.7421
-25.01
-25.251
-25.4595
-25.6309
-25.7619
-25.8504
-25.895
-26.55
-26.5186
-26.4569
-26.3673
-26.2526
-26.1163
-25.9619
-25.793
-25.6126
-25.4237
-25.2285
-25.0293
-24.8278
-24.6257
-24.4245
-24.2255
-24.0297
-23.8381
-23.6514
-23.4699
-23.2941
-23.1241
-22.9599
-22.8017
-22.6496
-22.5038
-22.3645
-22.2319
-22.1065
-21.9885
-21.8787
-21.7775
-21.6856
-21.604
-21.5337
-21.4756
-21.4311
-21.4012
-21.3872
-21.3906
-21.4127
-21.4548
-21.5184
-21.6049
-21.7157
-21.8519
-22.0147
-22.2044
-22.4212
-22.6643
-22.932
-23.2211
-23.5271
-23.8441
-24.1649
-24.481
-24.784
-25.0656
-25.3184
-25.5364
-25.7151
-25.8512
-25.9428
-25.9889
-26.6284
-26.5944
-26.528
-26.4317
-26.3093
-26.1646
-26.002
-25.8252
-25.6376
-25.4421
-25.2412
-25.0369
-24.8309
-24.6248
-24.4201
-24.2181
-24.0198
-23.8263
-23.6381
-23.4556
-23.279
-23.1084
-22.9438
-22.7851
-22.6325
-22.4859
-22.3458
-22.2122
-22.0855
-21.9662
-21.8546
-21.7514
-21.6573
-21.5731
-21.5
-21.4389
-21.3911
-21.3578
-21.3405
-21.3403
-21.3588
-21.3974
-21.4576
-21.5411
-21.6494
-21.784
-21.9461
-22.1369
-22.3569
-22.6057
-22.882
-23.1829
-23.5039
-23.8385
-24.1787
-24.515
-24.8376
-25.137
-25.4049
-25.6349
-25.8224
-25.9647
-26.0601
-26.1079
-26.723
-26.6858
-26.6131
-26.5085
-26.3762
-26.2213
-26.0485
-25.8622
-25.666
-25.463
-25.2554
-25.0451
-24.8339
-24.6231
-24.4143
-24.2088
-24.0077
-23.8119
-23.6221
-23.4385
-23.2612
-23.0901
-22.925
-22.7658
-22.6125
-22.4652
-22.324
-22.1893
-22.0613
-21.9403
-21.8268
-21.7212
-21.6244
-21.5372
-21.4607
-21.396
-21.3444
-21.3072
-21.2858
-21.2814
-21.2956
-21.33
-21.3861
-21.4658
-21.5708
-21.703
-21.8641
-22.0556
-22.2787
-22.5338
-22.8199
-23.1348
-23.4738
-23.83
-24.1942
-24.5555
-24.9023
-25.2234
-25.5095
-25.7536
-25.9513
-26.1003
-26.1997
-26.2493
-26.8331
-26.7918
-26.7115
-26.5965
-26.4523
-26.285
-26.1001
-25.9028
-25.6968
-25.4853
-25.2703
-25.0535
-24.8365
-24.6205
-24.4071
-24.1976
-23.9932
-23.795
-23.6034
-23.4188
-23.2408
-23.0693
-22.9038
-22.7442
-22.5902
-22.442
-22.2999
-22.1639
-22.0344
-21.9116
-21.7959
-21.6878
-21.5879
-21.4972
-21.4169
-21.3481
-21.2922
-21.2505
-21.2244
-21.2152
-21.2246
-21.254
-21.3053
-21.3803
-21.4813
-21.6102
-21.7695
-21.9611
-22.1871
-22.4485
-22.7455
-23.0761
-23.4359
-23.8176
-24.2106
-24.6019
-24.9777
-25.3246
-25.6317
-25.8916
-26.1003
-26.2562
-26.3595
-26.4108
-26.9584
-26.912
-26.8223
-26.6948
-26.5363
-26.3543
-26.1556
-25.9458
-25.7291
-25.5083
-25.2854
-25.0617
-24.8384
-24.6168
-24.3982
-24.1843
-23.9764
-23.7756
-23.5823
-23.3967
-23.2183
-23.0465
-22.8808
-22.7207
-22.5661
-22.417
-22.2737
-22.1365
-22.0054
-21.8808
-21.7627
-21.6517
-21.5485
-21.454
-21.3694
-21.2961
-21.2354
-21.1887
-21.1575
-21.143
-21.1469
-21.1707
-21.2164
-21.2861
-21.3821
-21.5069
-21.6634
-21.8543
-22.0824
-22.3499
-22.658
-23.0058
-23.3892
-23.8003
-24.227
-24.6539
-25.0637
-25.4404
-25.7713
-26.0484
-26.2683
-26.4307
-26.5374
-26.5901
-27.0986
-27.0461
-26.945
-26.8024
-26.627
-26.428
-26.2136
-25.99
-25.7617
-25.5313
-25.3003
-25.0694
-24.8395
-24.6118
-24.3878
-24.169
-23.9573
-23.7537
-23.5587
-23.3723
-23.1938
-23.022
-22.8563
-22.6959
-22.5406
-22.3905
-22.2461
-22.1075
-21.9749
-21.8483
-21.7279
-21.6138
-21.507
-21.4082
-21.319
-21.2407
-21.1748
-21.1228
-21.0861
-21.0659
-21.0638
-21.0814
-21.1209
-21.1843
-21.2744
-21.3941
-21.5466
-21.7356
-21.9648
-22.2377
-22.557
-22.9229
-23.3323
-23.7768
-24.2427
-24.711
-25.1606
-25.5715
-25.9286
-26.2236
-26.4542
-26.6223
-26.7314
-26.7849
-27.254
-27.194
-27.0792
-26.9185
-26.7233
-26.5048
-26.2727
-26.0342
-25.7937
-25.5536
-25.3144
-25.0763
-24.8398
-24.6056
-24.3756
-24.1516
-23.9357
-23.7292
-23.5328
-23.3459
-23.1675
-22.9962
-22.8307
-22.67
-22.5141
-22.363
-22.2173
-22.0773
-21.9432
-21.8148
-21.6919
-21.5747
-21.4639
-21.3606
-21.2663
-21.1827
-21.1113
-21.0537
-21.0111
-20.9848
-20.9763
-20.9873
-21.0198
-21.0763
-21.1596
-21.273
-21.4203
-21.6059
-21.8346
-22.1117
-22.4415
-22.8262
-23.2638
-23.7459
-24.2567
-24.7733
-25.2689
-25.7185
-26.1041
-26.4171
-26.6573
-26.8293
-26.9393
-26.9928
-27.4246
-27.3556
-27.2243
-27.0424
-26.8241
-26.5833
-26.3317
-26.0772
-25.8243
-25.5745
-25.3275
-25.0824
-24.8391
-24.5982
-24.3617
-24.132
-23.9116
-23.7022
-23.5044
-23.3175
-23.1399
-22.9694
-22.8044
-22.6436
-22.4869
-22.3346
-22.1876
-22.0464
-21.9109
-21.7807
-21.6554
-21.5349
-21.42
-21.3118
-21.2121
-21.1227
-21.0455
-20.982
-20.9333
-20.9006
-20.8854
-20.8892
-20.9142
-20.963
-21.0386
-21.1446
-21.2853
-21.4659
-21.6924
-21.9717
-22.3107
-22.7142
-23.1818
-23.7057
-24.2679
-24.8405
-25.3894
-25.8827
-26.2986
-26.6291
-26.8768
-27.0502
-27.1591
-27.2115
-27.6111
-27.5313
-27.3803
-27.1731
-26.928
-26.6621
-26.3891
-26.1178
-25.8525
-25.5936
-25.3394
-25.0877
-24.8376
-24.5897
-24.3461
-24.11
-23.8848
-23.6724
-23.4735
-23.2872
-23.111
-22.942
-22.7778
-22.6169
-22.4594
-22.3057
-22.1573
-22.0148
-21.8782
-21.7465
-21.6188
-21.495
-21.3757
-21.2622
-21.1566
-21.0613
-20.978
-20.9083
-20.8534
-20.8143
-20.7921
-20.7883
-20.8052
-20.8455
-20.9126
-21.0101
-21.1428
-21.3164
-21.5384
-21.8177
-22.164
-22.5854
-23.0845
-23.6545
-24.2752
-24.9128
-25.5235
-26.0657
-26.5134
-26.8597
-27.1117
-27.2833
-27.3885
-27.4383
-27.8141
-27.7212
-27.5467
-27.3099
-27.0338
-26.7397
-26.4435
-26.1548
-25.8775
-25.6105
-25.35
-25.0922
-24.8355
-24.5802
-24.3288
-24.0857
-23.8552
-23.6398
-23.4402
-23.2551
-23.0811
-22.9143
-22.7513
-22.5905
-22.4318
-22.2765
-22.1264
-21.9828
-21.8453
-21.7125
-21.5827
-21.4555
-21.3315
-21.2123
-21.1005
-20.9988
-20.9092
-20.8334
-20.7722
-20.7265
-20.6971
-20.6854
-20.6937
-20.725
-20.7827
-20.8706
-20.9938
-21.1586
-21.3736
-21.6498
-22.0006
-22.4383
-22.9697
-23.5898
-24.2771
-24.9903
-25.6727
-26.2698
-26.7502
-27.1094
-27.3613
-27.5266
-27.625
-27.6706
-28.0344
-27.9258
-27.7235
-27.4517
-27.14
-26.8146
-26.4934
-26.187
-25.8985
-25.6248
-25.3593
-25.0963
-24.833
-24.5699
-24.31
-24.059
-23.8226
-23.6041
-23.4042
-23.2212
-23.0505
-22.8867
-22.7253
-22.5645
-22.4046
-22.2471
-22.0951
-21.9505
-21.8126
-21.6791
-21.5474
-21.4168
-21.2879
-21.1625
-21.044
-20.9355
-20.8396
-20.7575
-20.6902
-20.6379
-20.6012
-20.5813
-20.5806
-20.6022
-20.6499
-20.7273
-20.8395
-20.9934
-21.1986
-21.4682
-21.8197
-22.2712
-22.8348
-23.5091
-24.2716
-25.0731
-25.8394
-26.498
-27.0108
-27.3784
-27.6243
-27.7783
-27.8662
-27.9057
-28.273
-28.1458
-27.9104
-27.5978
-27.2452
-26.8851
-26.5375
-26.2131
-25.9148
-25.6363
-25.3677
-25.1002
-24.8306
-24.5594
-24.2897
-24.0296
-23.7869
-23.5653
-23.3655
-23.1856
-23.0195
-22.8597
-22.7003
-22.5394
-22.3778
-22.2176
-22.0632
-21.9178
-21.7802
-21.6466
-21.5134
-21.3793
-21.2453
-21.1132
-20.9873
-20.8718
-20.7693
-20.6811
-20.6078
-20.5492
-20.5052
-20.4768
-20.4666
-20.4781
-20.5151
-20.5812
-20.6812
-20.8222
-21.0146
-21.2734
-21.621
-22.0824
-22.6774
-23.4092
-24.2563
-25.1614
-26.0266
-26.7537
-27.2973
-27.667
-27.8997
-28.0362
-28.1094
-28.1408
-28.5312
-28.3816
-28.1074
-27.7469
-27.3476
-26.9496
-26.5741
-26.232
-25.9257
-25.645
-25.3753
-25.1044
-24.8287
-24.5489
-24.2681
-23.9973
-23.7477
-23.5229
-23.3238
-23.1484
-22.9884
-22.8337
-22.6767
-22.5157
-22.352
-22.1881
-22.0306
-21.8848
-21.7483
-21.6155
-21.481
-21.3435
-21.2041
-21.0645
-20.9306
-20.8079
-20.6988
-20.6046
-20.5256
-20.4609
-20.4097
-20.3725
-20.3524
-20.3534
-20.3794
-20.4335
-20.52
-20.6464
-20.8229
-21.0661
-21.4041
-21.8705
-22.4947
-23.2865
-24.228
-25.2552
-26.2381
-27.0414
-27.6124
-27.9754
-28.1857
-28.2977
-28.3518
-28.373
-28.8104
-28.6339
-28.3145
-27.8979
-27.4453
-27.0065
-26.6019
-26.2424
-25.9306
-25.651
-25.3829
-25.1095
-24.8278
-24.539
-24.2452
-23.9619
-23.705
-23.4769
-23.2788
-23.1094
-22.9574
-22.8094
-22.655
-22.4935
-22.3272
-22.1584
-21.997
-21.8511
-21.717
-21.5862
-21.4506
-21.3097
-21.1646
-21.0168
-20.8739
-20.7438
-20.6282
-20.5281
-20.4439
-20.3736
-20.3153
-20.2691
-20.2387
-20.2288
-20.2436
-20.2853
-20.3573
-20.4674
-20.6251
-20.8474
-21.1689
-21.6337
-22.2839
-23.137
-24.1826
-25.3545
-26.479
-27.3665
-27.9586
-28.3032
-28.4805
-28.5604
-28.5908
-28.5998
-29.1122
-28.9035
-28.5316
-28.0495
-27.536
-27.0543
-26.6197
-26.243
-25.929
-25.6544
-25.3913
-25.1159
-24.8282
-24.5306
-24.2213
-23.9229
-23.6584
-23.4269
-23.2301
-23.0687
-22.9271
-22.7875
-22.6356
-22.4733
-22.3041
-22.1286
-21.9618
-21.8166
-21.6865
-21.559
-21.4227
-21.2782
-21.1275
-20.9701
-20.8172
-20.6797
-20.5576
-20.4517
-20.363
-20.2877
-20.2226
-20.1672
-20.1258
-20.1047
-20.1083
-20.1375
-20.1942
-20.2869
-20.4232
-20.6187
-20.9158
-21.3707
-22.0423
-22.9561
-24.1144
-25.4588
-26.7559
-27.7355
-28.3385
-28.6498
-28.7817
-28.8214
-28.8237
-28.8184
-29.4385
-29.1907
-28.7592
-28.2002
-27.617
-27.0915
-26.6262
-26.2323
-25.9203
-25.6555
-25.4014
-25.1243
-24.8305
-24.5246
-24.1964
-23.8795
-23.6079
-23.3729
-23.1772
-23.0263
-22.8977
-22.7686
-22.6189
-22.4552
-22.2831
-22.0985
-21.9242
-21.7809
-21.6568
-21.5346
-21.3974
-21.2492
-21.0932
-20.9248
-20.7602
-20.6156
-20.4872
-20.3756
-20.2832
-20.2036
-20.1322
-20.0671
-20.0142
-19.9816
-19.9743
-19.9912
-20.0316
-20.1063
-20.2193
-20.3816
-20.6452
-21.0802
-21.7675
-22.7391
-24.0158
-25.5672
-27.0779
-28.1563
-28.7543
-29.0136
-29.0865
-29.0779
-29.0479
-29.0267
-29.7913
-29.4957
-28.9978
-28.3483
-27.6851
-27.1171
-26.6206
-26.2085
-25.9042
-25.6549
-25.4149
-25.135
-24.8347
-24.5224
-24.1707
-23.8306
-23.5535
-23.3148
-23.1193
-22.982
-22.8696
-22.754
-22.6053
-22.4393
-22.265
-22.068
-21.8832
-21.7437
-21.6281
-21.5137
-21.375
-21.2227
-21.0623
-20.8807
-20.7024
-20.5515
-20.4171
-20.2997
-20.2048
-20.1219
-20.0448
-19.9694
-19.9042
-19.8597
-19.8422
-19.8474
-19.8705
-19.9272
-20.0161
-20.1381
-20.3581
-20.7607
-21.4579
-22.4813
-23.8764
-25.6775
-27.4568
-28.6377
-29.2079
-29.3923
-29.3914
-29.3268
-29.2608
-29.2223
-30.1732
-29.8179
-29.2488
-28.4921
-27.7359
-27.1308
-26.6026
-26.1696
-25.8805
-25.6529
-25.4337
-25.1484
-24.8405
-24.5263
-24.1444
-23.7744
-23.4957
-23.2527
-23.0551
-22.9359
-22.8433
-22.745
-22.5949
-22.4253
-22.2512
-22.037
-21.8372
-21.7044
-21.6005
-21.4974
-21.3557
-21.1986
-21.0361
-20.8381
-20.643
-20.4879
-20.3475
-20.2237
-20.128
-20.0429
-19.9608
-19.8744
-19.7959
-19.739
-19.7123
-19.7072
-19.7114
-19.7511
-19.8168
-19.8903
-20.056
-20.4108
-21.1126
-22.1788
-23.6822
-25.7865
-27.9091
-29.19
-29.6998
-29.7825
-29.6928
-29.565
-29.4603
-29.4037
-30.5875
-30.1556
-29.5147
-28.6295
-27.7639
-27.1333
-26.5722
-26.1127
-25.8494
-25.6497
-25.4608
-25.1644
-24.847
-24.5393
-24.1176
-23.7081
-23.4355
-23.1871
-22.9829
-22.8881
-22.8189
-22.7435
-22.5876
-22.4126
-22.2434
-22.0054
-21.7841
-21.663
-21.5739
-21.4872
-21.3394
-21.1764
-21.0158
-20.797
-20.5807
-20.4249
-20.2786
-20.1472
-20.0532
-19.9668
-19.8812
-19.7824
-19.6893
-19.6194
-19.5852
-19.5717
-19.5543
-19.579
-19.6251
-19.6406
-19.741
-20.0283
-20.7322
-21.8291
-23.4141
-25.8883
-28.4571
-29.8243
-30.2293
-30.1797
-29.9863
-29.7897
-29.6445
-29.5693
-31.038
-30.505
-29.7996
-28.7585
-27.7611
-27.1269
-26.5304
-26.0335
-25.8116
-25.6454
-25.5001
-25.1823
-24.852
-24.566
-24.0905
-23.6275
-23.3748
-23.1187
-22.9002
-22.8392
-22.7964
-22.7521
-22.5832
-22.3998
-22.2446
-21.9731
-21.7208
-21.6193
-21.5483
-21.485
-21.3257
-21.1548
-21.0036
-20.7574
-20.5136
-20.3635
-20.2109
-20.0693
-19.9805
-19.894
-19.8067
-19.6937
-19.5845
-19.5006
-19.4611
-19.4427
-19.3988
-19.4118
-19.4454
-19.3911
-19.416
-19.6101
-20.3186
-21.4332
-23.0461
-25.974
-29.1321
-30.5521
-30.7931
-30.5777
-30.2675
-29.9982
-29.8119
-29.7182
-31.5302
-30.8593
-30.1107
-28.8769
-27.7168
-27.1162
-26.4788
-25.9262
-25.769
-25.639
-25.5575
-25.2009
-24.8518
-24.6132
-24.0631
-23.5264
-23.3172
-23.0489
-22.8031
-22.7903
-22.775
-22.7747
-22.5806
-22.3843
-22.2591
-21.9399
-21.643
-21.574
-21.523
-21.494
-21.314
-21.132
-21.0029
-20.7192
-20.4387
-20.3051
-20.1448
-19.9888
-19.9108
-19.8245
-19.7383
-19.6085
-19.4813
-19.3819
-19.3399
-19.3221
-19.2435
-19.2495
-19.2836
-19.1433
-19.0856
-19.1509
-19.8762
-20.9967
-22.5434
-26.0297
-29.9771
-31.3839
-31.3851
-30.9695
-30.5318
-30.1881
-29.9613
-29.8498
-32.0715
-31.2066
-30.4591
-28.9824
-27.6159
-27.1097
-26.4204
-25.7822
-25.7252
-25.6277
-25.6412
-25.2179
-24.8401
-24.691
-24.0354
-23.3954
-23.2681
-22.9799
-22.6858
-22.7438
-22.7532
-22.8166
-22.5784
-22.3621
-22.2932
-21.906
-21.5447
-21.5289
-21.4967
-21.5184
-21.3031
-21.1047
-21.0184
-20.6824
-20.3518
-20.2519
-20.0812
-19.9036
-19.845
-19.7581
-19.6775
-19.5267
-19.3797
-19.2623
-19.2215
-19.2132
-19.0861
-19.0914
-19.1472
-18.8977
-18.7565
-18.6424
-19.4112
-20.534
-21.8591
-26.0349
-31.0517
-32.3275
-31.9955
-31.3466
-30.7747
-30.3574
-30.092
-29.9639
-32.6723
-31.5279
-30.8621
-29.0727
-27.4368
-27.1208
-26.3595
-25.5887
-25.6871
-25.6065
-25.7631
-25.23
-24.8071
-24.814
-24.0076
-23.221
-23.2365
-22.9143
-22.54
-22.704
-22.7272
-22.8856
-22.5743
-22.3269
-22.3563
-21.871
-21.4177
-21.4874
-21.4664
-21.5646
-21.2912
-21.068
-21.0572
-20.6467
-20.2465
-20.2079
-20.021
-19.8108
-19.7848
-19.6939
-19.6261
-19.4482
-19.2797
-19.1407
-19.1052
-19.1204
-18.923
-18.9354
-19.0459
-18.6524
-18.439
-18.0712
-18.9322
-20.0713
-20.9312
-25.9594
-32.4383
-33.3851
-32.6102
-31.7001
-30.9921
-30.5046
-30.2037
-30.0607
-33.3476
-31.7938
-31.346
-29.1456
-27.1499
-27.1702
-26.3021
-25.3275
-25.6662
-25.5655
-25.9401
-25.2319
-24.738
-25.0027
-23.9792
-22.9839
-23.2358
-22.8563
-22.3534
-22.6783
-22.6908
-22.9929
-22.5649
-22.2689
-22.4618
-21.8348
-21.2505
-21.4557
-21.4273
-21.6415
-21.2755
-21.0143
-21.1293
-20.6118
-20.1143
-20.1789
-19.9655
-19.7059
-19.7328
-19.6305
-19.5867
-19.3723
-19.1816
-19.0153
-18.9896
-19.0503
-18.7486
-18.7777
-18.9932
-18.4022
-18.1485
-17.4172
-18.4494
-19.6523
-19.6781
-25.7604
-34.2496
-34.5488
-33.2104
-32.0205
-31.1807
-30.629
-30.2967
-30.1405
-34.1181
-31.9599
-31.9492
-29.1989
-26.714
-27.2883
-26.2555
-24.9724
-25.6812
-25.4885
-26.1961
-25.2167
-24.6113
-25.2865
-23.9498
-22.6574
-23.2857
-22.8107
-22.1087
-22.6788
-22.633
-23.1542
-22.5454
-22.1745
-22.6283
-21.7968
-21.0276
-21.4443
-21.3709
-21.7618
-21.2523
-20.933
-21.2489
-20.5768
-19.9429
-20.1734
-19.9162
-19.5827
-19.6934
-19.5653
-19.5626
-19.2979
-19.0857
-18.8841
-18.8721
-19.0123
-18.5553
-18.612
-19.0074
-18.136
-17.9087
-16.6502
-17.9737
-19.3448
-17.9936
-25.3774
-36.6388
-35.7944
-33.7729
-32.2989
-31.3378
-30.7302
-30.3713
-30.2043
-35.0135
-31.962
-32.7268
-29.2303
-26.0728
-27.5188
-26.2293
-24.4869
-25.7613
-25.3492
-26.5647
-25.1749
-24.3965
-25.7054
-23.9185
-22.2044
-23.4141
-22.7838
-21.7817
-22.7244
-22.5366
-23.3913
-22.5095
-22.0238
-22.8818
-21.7561
-20.7276
-21.4694
-21.2834
-21.943
-21.2164
-20.8089
-21.4358
-20.5406
-19.7157
-20.2039
-19.8747
-19.4323
-19.6732
-19.4937
-19.5588
-19.223
-18.9934
-18.7448
-18.7488
-19.0196
-18.3329
-18.4289
-19.1139
-17.8345
-17.7546
-15.7275
-17.5151
-19.2491
-15.7417
-24.7272
-39.8118
-37.0739
-34.2711
-32.5275
-31.462
-30.8086
-30.4286
-30.253
-36.0746
-31.7089
-33.756
-29.2376
-25.1509
-27.9224
-26.2346
-23.8203
-25.9506
-25.1073
-27.0919
-25.094
-24.0514
-26.3135
-23.8838
-21.5753
-23.6604
-22.7832
-21.3388
-22.8438
-22.375
-23.7348
-22.4488
-21.7898
-23.2572
-21.7108
-20.3224
-21.556
-21.1437
-22.2097
-21.1611
-20.621
-21.7166
-20.5015
-19.4106
-20.288
-19.8428
-19.2428
-19.6819
-19.409
-19.5821
-19.1443
-18.9064
-18.5948
-18.6131
-19.0909
-18.0677
-18.2144
-19.3474
-17.4663
-17.7374
-14.5892
-17.0802
-19.5076
-12.7494
-23.6967
-44.0418
-38.3041
-34.6767
-32.7004
-31.553
-30.8652
-30.4695
-30.2876
-37.3573
-31.0743
-35.1427
-29.218
-23.8486
-28.5814
-26.2842
-22.9043
-26.3136
-24.7032
-27.8403
-24.9581
-23.5189
-27.1829
-23.8433
-20.7044
-24.0775
-22.8177
-20.7348
-23.0791
-22.1091
-24.2258
-22.3525
-21.4357
-23.801
-21.658
-19.7745
-21.7401
-20.9204
-22.5949
-21.0774
-20.3413
-22.1269
-20.4566
-18.9983
-20.4498
-19.822
-18.998
-19.7338
-19.3007
-19.6418
-19.0569
-18.8278
-18.4311
-18.4554
-19.2511
-17.7424
-17.949
-19.7556
-16.9827
-17.9301
-13.1548
-16.6684
-20.3168
-8.80069
-22.1352
-49.6876
-39.3539
-34.9632
-32.8146
-31.6116
-30.9012
-30.4954
-30.3095
-38.9366
-29.8877
-37.029
-29.1679
-22.0363
-29.6054
-26.3923
-21.6473
-26.9413
-24.0507
-28.8932
-24.747
-22.7234
-28.407
-23.7931
-19.5057
-24.7355
-22.8963
-19.9078
-23.4886
-21.681
-24.9178
-22.2063
-20.9133
-24.5743
-21.5925
-19.0329
-22.07
-20.5655
-23.1403
-20.9526
-19.9323
-22.7131
-20.4014
-18.4401
-20.72
-19.8126
-18.6763
-19.849
-19.1539
-19.7509
-18.9532
-18.7616
-18.2504
-18.261
-19.5333
-17.335
-17.6055
-20.4025
-16.3118
-18.4345
-11.3177
-16.2671
-21.9394
-3.62861
-19.8444
-57.2128
-40.0275
-35.111
-32.8704
-31.6397
-30.9184
-30.5078
-30.3199
)
;

boundaryField
{
    left
    {
        type            calculated;
        value           nonuniform List<scalar> 
32
(
-26.4237
-26.446
-26.4887
-26.55
-26.6284
-26.723
-26.8331
-26.9584
-27.0986
-27.254
-27.4246
-27.6111
-27.8141
-28.0344
-28.273
-28.5312
-28.8104
-29.1122
-29.4385
-29.7913
-30.1732
-30.5875
-31.038
-31.5302
-32.0715
-32.6723
-33.3476
-34.1181
-35.0135
-36.0746
-37.3573
-38.9366
)
;
    }
    right
    {
        type            calculated;
        value           nonuniform List<scalar> 
32
(
-25.7943
-25.829
-25.895
-25.9889
-26.1079
-26.2493
-26.4108
-26.5901
-26.7849
-26.9928
-27.2115
-27.4383
-27.6706
-27.9057
-28.1408
-28.373
-28.5998
-28.8184
-29.0267
-29.2223
-29.4037
-29.5693
-29.7182
-29.8498
-29.9639
-30.0607
-30.1405
-30.2043
-30.253
-30.2876
-30.3095
-30.3199
)
;
    }
    interface
    {
        type            calculated;
        value           nonuniform List<scalar> 
64
(
-39.8111
-29.1319
-38.1174
-29.1347
-20.9844
-30.2242
-26.4627
-20.9204
-27.3346
-23.6497
-29.5076
-24.6198
-22.2492
-29.1209
-23.765
-18.8122
-25.1346
-22.9476
-19.4297
-23.7451
-21.4178
-25.3216
-22.1185
-20.6031
-25.027
-21.5558
-18.6062
-22.2782
-20.3478
-23.4587
-20.8779
-19.69
-23.0566
-20.3704
-18.1189
-20.8866
-19.8106
-18.4931
-19.9252
-19.0687
-19.8197
-18.8961
-18.732
-18.1553
-18.1525
-19.7097
-17.1077
-17.4103
-20.7947
-15.9189
-18.7792
-10.2834
-16.0666
-22.9915
-0.699911
-18.4886
-61.5106
-40.2412
-35.1483
-32.884
-31.6465
-30.9225
-30.5107
-30.3223
)
;
    }
    bottom
    {
        type            calculated;
        value           nonuniform List<scalar> 
64
(
-26.4179
-26.3905
-26.3364
-26.2572
-26.1549
-26.0321
-25.8914
-25.7357
-25.5677
-25.39
-25.205
-25.0148
-24.8213
-24.6263
-24.4312
-24.2374
-24.046
-23.8578
-23.6738
-23.4943
-23.32
-23.1512
-22.988
-22.8308
-22.6798
-22.5353
-22.3975
-22.2668
-22.1435
-22.0281
-21.9213
-21.8236
-21.7357
-21.6586
-21.5931
-21.5402
-21.5012
-21.477
-21.4691
-21.4785
-21.5066
-21.5545
-21.6237
-21.715
-21.8296
-21.968
-22.1308
-22.3178
-22.5283
-22.7609
-23.0131
-23.2819
-23.5628
-23.8506
-24.1394
-24.4227
-24.6937
-24.9458
-25.1732
-25.3704
-25.5332
-25.6581
-25.7427
-25.7853
)
;
    }
    defaultFaces
    {
        type            empty;
    }
}


// ************************************************************************* //
