/*--------------------------------*- C++ -*----------------------------------*\
| =========                 |                                                 |
| \\      /  F ield         | OpenFOAM: The Open Source CFD Toolbox           |
|  \\    /   O peration     | Version:  5.x                                   |
|   \\  /    A nd           | Web:      www.OpenFOAM.org                      |
|    \\/     M anipulation  |                                                 |
\*---------------------------------------------------------------------------*/
FoamFile
{
    version     2.0;
    format      ascii;
    class       volScalarField;
    location    "6.7";
    object      T;
}
// * * * * * * * * * * * * * * * * * * * * * * * * * * * * * * * * * * * * * //

dimensions      [0 0 0 1 0 0 0];

internalField   nonuniform List<scalar> 
2048
(
9.81021
9.8104
9.81079
9.81136
9.8121
9.81298
9.81399
9.81511
9.81632
9.81759
9.81892
9.82029
9.82168
9.82308
9.82448
9.82587
9.82725
9.8286
9.82992
9.83121
9.83246
9.83368
9.83485
9.83598
9.83706
9.8381
9.83909
9.84003
9.84092
9.84174
9.84251
9.84321
9.84385
9.8444
9.84487
9.84525
9.84553
9.8457
9.84576
9.84569
9.84549
9.84515
9.84465
9.84399
9.84317
9.84218
9.84101
9.83966
9.83815
9.83648
9.83467
9.83274
9.83072
9.82865
9.82658
9.82454
9.82259
9.82078
9.81915
9.81773
9.81656
9.81567
9.81506
9.81475
9.43876
9.43935
9.44051
9.4422
9.44439
9.44701
9.45002
9.45334
9.45692
9.46071
9.46465
9.46871
9.47282
9.47698
9.48113
9.48525
9.48932
9.49332
9.49723
9.50105
9.50475
9.50834
9.51181
9.51515
9.51835
9.52142
9.52435
9.52713
9.52975
9.53221
9.53448
9.53656
9.53843
9.54007
9.54147
9.5426
9.54344
9.54395
9.54413
9.54394
9.54335
9.54234
9.54088
9.53894
9.53651
9.53357
9.53012
9.52614
9.52166
9.51671
9.51133
9.5056
9.4996
9.49345
9.48728
9.48122
9.47543
9.47004
9.46518
9.46096
9.45748
9.45482
9.45301
9.4521
9.08312
9.08409
9.08601
9.08881
9.09243
9.09676
9.10172
9.10719
9.11309
9.11932
9.1258
9.13245
9.1392
9.14601
9.15281
9.15956
9.16623
9.17277
9.17917
9.1854
9.19146
9.19732
9.20299
9.20844
9.21369
9.21871
9.22349
9.22804
9.23233
9.23634
9.24006
9.24347
9.24654
9.24924
9.25154
9.25341
9.25479
9.25566
9.25597
9.25568
9.25474
9.25311
9.25075
9.2476
9.24365
9.23886
9.23321
9.22671
9.21937
9.21124
9.2024
9.19296
9.18308
9.17293
9.16273
9.15272
9.14314
9.13423
9.1262
9.11924
9.1135
9.1091
9.10612
9.10462
8.74235
8.74371
8.74639
8.75031
8.75536
8.7614
8.7683
8.7759
8.78407
8.79269
8.80164
8.81082
8.82014
8.82952
8.83889
8.84818
8.85734
8.86634
8.87513
8.88369
8.892
8.90004
8.90782
8.9153
8.9225
8.92939
8.93596
8.9422
8.94809
8.95362
8.95874
8.96344
8.96768
8.97141
8.9746
8.97719
8.97913
8.98036
8.98083
8.98048
8.97923
8.97704
8.97384
8.96957
8.96418
8.95763
8.94989
8.94095
8.93085
8.91963
8.9074
8.89431
8.88058
8.86646
8.85225
8.83829
8.82493
8.8125
8.8013
8.79161
8.78363
8.77752
8.77339
8.7713
8.41563
8.41739
8.42085
8.42591
8.43241
8.44017
8.449
8.45873
8.46916
8.48013
8.49152
8.50317
8.51499
8.52688
8.53874
8.55049
8.56208
8.57344
8.58453
8.59533
8.6058
8.61594
8.62573
8.63517
8.64423
8.65292
8.66121
8.66909
8.67653
8.68351
8.68999
8.69595
8.70132
8.70607
8.71014
8.71346
8.71597
8.71759
8.71825
8.71787
8.71638
8.71369
8.70972
8.7044
8.69766
8.68945
8.67971
8.66843
8.65564
8.64141
8.62584
8.60913
8.59156
8.57344
8.55519
8.53723
8.52004
8.50405
8.48967
8.47723
8.467
8.45918
8.4539
8.45124
8.10217
8.10435
8.10863
8.11486
8.12285
8.13236
8.14316
8.15502
8.1677
8.18101
8.19479
8.20889
8.22316
8.23749
8.25177
8.26592
8.27985
8.2935
8.30682
8.31977
8.33232
8.34447
8.35619
8.3675
8.37836
8.38877
8.39872
8.40817
8.41711
8.4255
8.4333
8.44048
8.44698
8.45274
8.45768
8.46174
8.46483
8.46686
8.46775
8.4674
8.46571
8.46259
8.45793
8.45165
8.44366
8.43387
8.42223
8.40871
8.39332
8.37612
8.35725
8.33693
8.31549
8.29332
8.27094
8.2489
8.22779
8.20817
8.19054
8.17532
8.16283
8.1533
8.14688
8.14365
7.80127
7.80389
7.80902
7.81648
7.82602
7.83734
7.85015
7.86415
7.87909
7.89473
7.91088
7.92737
7.94405
7.96078
7.97744
7.99392
8.01012
8.02599
8.04144
8.05646
8.07101
8.08508
8.09867
8.11176
8.12435
8.13643
8.14796
8.15894
8.16932
8.17908
8.18817
8.19655
8.20415
8.21091
8.21673
8.22154
8.22523
8.22771
8.22886
8.22858
8.22676
8.22328
8.21802
8.21087
8.20171
8.19046
8.17701
8.16134
8.14342
8.12332
8.10117
8.07723
8.05187
8.02557
7.99895
7.97269
7.94753
7.92417
7.90321
7.88516
7.8704
7.85915
7.85159
7.84779
7.51227
7.51536
7.5214
7.53015
7.54131
7.5545
7.56936
7.58555
7.60276
7.62072
7.63923
7.65808
7.67712
7.6962
7.71518
7.73393
7.75236
7.77036
7.78789
7.8049
7.82136
7.83728
7.85265
7.86746
7.88171
7.89538
7.90844
7.92089
7.93267
7.94376
7.95411
7.96366
7.97236
7.98011
7.98682
7.99239
7.9967
7.99965
8.00111
8.00096
7.99906
7.99529
7.98951
7.98158
7.97137
7.95874
7.9436
7.92586
7.9055
7.88256
7.85716
7.82958
7.80023
7.76968
7.73867
7.70803
7.67867
7.65142
7.62705
7.60612
7.58904
7.57609
7.5674
7.56304
7.23454
7.23813
7.24515
7.25529
7.26815
7.28329
7.30027
7.31868
7.33817
7.35846
7.37929
7.40049
7.42186
7.44324
7.46449
7.48547
7.50605
7.52613
7.54565
7.56457
7.58287
7.60056
7.61763
7.63409
7.64993
7.66513
7.67968
7.69354
7.70668
7.71906
7.73063
7.74134
7.75112
7.75986
7.76746
7.77381
7.77877
7.78223
7.78403
7.78406
7.78215
7.77817
7.77195
7.76333
7.75216
7.73827
7.72154
7.70185
7.67914
7.65341
7.62479
7.59355
7.56013
7.52519
7.48961
7.45439
7.42062
7.38934
7.36144
7.33757
7.31818
7.30352
7.29372
7.28881
6.96751
6.97165
6.97972
6.99134
7.00602
7.0232
7.04237
7.06305
7.08484
7.10744
7.13059
7.15408
7.17774
7.2014
7.22488
7.24803
7.27071
7.29281
7.31425
7.33501
7.35506
7.37443
7.39313
7.41117
7.42854
7.44523
7.4612
7.47643
7.49088
7.50451
7.51728
7.52913
7.53997
7.5497
7.5582
7.56534
7.57098
7.57497
7.57717
7.57742
7.57557
7.57144
7.56487
7.55566
7.54363
7.5286
7.51039
7.48886
7.46389
7.43546
7.40365
7.36871
7.33114
7.29166
7.25129
7.21125
7.17285
7.13736
7.10581
7.07895
7.05724
7.04091
7.03003
7.02459
6.71062
6.71536
6.72458
6.7378
6.75442
6.77375
6.79519
6.81818
6.8423
6.8672
6.89263
6.91839
6.94431
6.9702
6.99587
7.02115
7.04588
7.06993
7.09323
7.11574
7.13747
7.15845
7.1787
7.19825
7.21709
7.2352
7.25255
7.2691
7.28481
7.29966
7.3136
7.32656
7.33846
7.34919
7.3586
7.36656
7.37289
7.37745
7.38008
7.38061
7.37886
7.37466
7.36782
7.35811
7.34534
7.32927
7.30971
7.28645
7.25933
7.22828
7.19333
7.15469
7.11286
7.06867
7.02327
6.97813
6.93485
6.89493
6.85962
6.82974
6.80573
6.78777
6.77585
6.76992
6.46336
6.46877
6.47925
6.49421
6.5129
6.5345
6.5583
6.58365
6.61009
6.63728
6.66496
6.69296
6.7211
6.74918
6.77701
6.80438
6.83111
6.85706
6.88214
6.90633
6.92965
6.95215
6.97389
6.99488
7.01513
7.03462
7.05329
7.07112
7.08806
7.10408
7.11916
7.13322
7.14617
7.15789
7.16822
7.17701
7.18406
7.18922
7.19231
7.19316
7.19159
7.18739
7.18035
7.17025
7.15683
7.13984
7.11905
7.09419
7.06506
7.03149
6.99345
6.9511
6.90493
6.85583
6.80514
6.75459
6.70611
6.66156
6.62237
6.58944
6.56318
6.54366
6.53077
6.52437
6.22525
6.23139
6.24326
6.26012
6.28104
6.30504
6.33128
6.35904
6.38781
6.41726
6.44716
6.47735
6.50766
6.5379
6.56786
6.59729
6.62598
6.65376
6.68056
6.70634
6.73117
6.75512
6.77826
6.80064
6.82225
6.84306
6.86301
6.88207
6.90019
6.91735
6.93353
6.94867
6.96267
6.97539
6.98665
6.99628
7.00408
7.00986
7.01345
7.01467
7.01331
7.00918
7.00204
6.99162
6.97766
6.95988
6.93798
6.91167
6.88065
6.84469
6.80364
6.7576
6.70701
6.6528
6.59651
6.54017
6.48616
6.43673
6.39355
6.35758
6.32915
6.30817
6.2944
6.28759
5.99581
6.00277
6.01618
6.03512
6.05844
6.08499
6.11375
6.14396
6.17506
6.20673
6.2388
6.27113
6.30358
6.33595
6.36801
6.39946
6.43007
6.45964
6.48807
6.51538
6.54162
6.56693
6.59141
6.6151
6.63802
6.66011
6.68131
6.70155
6.7208
6.73906
6.75632
6.77251
6.78755
6.80127
6.81349
6.82398
6.83254
6.83897
6.84309
6.8447
6.84362
6.83962
6.83244
6.82181
6.80742
6.78895
6.76608
6.73845
6.7057
6.66749
6.62355
6.57385
6.51876
6.45924
6.39701
6.33448
6.27455
6.21996
6.1727
6.13374
6.10324
6.08094
6.0664
6.05923
5.7746
5.78249
5.79761
5.81883
5.84475
5.87398
5.90537
5.93806
5.97147
6.00531
6.03948
6.0739
6.10844
6.14291
6.17705
6.21051
6.243
6.27429
6.3043
6.33303
6.36061
6.38719
6.41292
6.43788
6.46206
6.48541
6.50781
6.52919
6.54952
6.56883
6.58713
6.60436
6.62043
6.63517
6.64834
6.65971
6.66905
6.67615
6.68082
6.68287
6.68211
6.67829
6.67116
6.66039
6.64567
6.62664
6.60293
6.57414
6.53982
6.49953
6.45283
6.39953
6.33988
6.27485
6.20631
6.13711
6.0708
6.01079
5.95937
5.91749
5.8851
5.86165
5.84646
5.83901
5.56121
5.57012
5.58715
5.61088
5.63962
5.67169
5.7058
5.74099
5.77667
5.81263
5.84882
5.88526
5.92186
5.9584
5.9946
6.03005
6.06439
6.09736
6.12887
6.15894
6.18774
6.21551
6.24243
6.2686
6.294
6.31856
6.34213
6.36461
6.38597
6.40628
6.42559
6.44384
6.46094
6.47669
6.49084
6.5031
6.51324
6.52103
6.52627
6.52878
6.52838
6.52481
6.51779
6.50697
6.49201
6.47253
6.44812
6.41832
6.38261
6.34042
6.29114
6.23434
6.1701
6.09935
6.02411
5.94768
5.87447
5.80872
5.75311
5.70846
5.67439
5.64998
5.63431
5.62666
5.35522
5.3653
5.38444
5.41095
5.44274
5.47781
5.51472
5.55243
5.59034
5.62831
5.66645
5.70485
5.74344
5.78203
5.82028
5.85773
5.89388
5.92848
5.96142
5.99273
6.02266
6.05151
6.07956
6.10689
6.13347
6.15922
6.18394
6.20746
6.2298
6.25106
6.27134
6.2906
6.30871
6.3255
6.34064
6.35381
6.36475
6.37324
6.37907
6.38207
6.38205
6.37879
6.37194
6.36116
6.34605
6.32622
6.30124
6.27059
6.23368
6.1898
6.13814
6.07798
6.00916
5.9325
5.85013
5.76585
5.68511
5.61331
5.5535
5.50629
5.4708
5.44569
5.42971
5.42195
5.15624
5.16763
5.18914
5.21872
5.25381
5.29205
5.33184
5.37208
5.41215
5.45203
5.49199
5.53228
5.57283
5.61343
5.65376
5.69319
5.73114
5.76732
5.80161
5.83407
5.865
5.89485
5.92395
5.95239
5.98013
6.00706
6.0329
6.05743
6.08068
6.10283
6.12404
6.14427
6.16341
6.18124
6.19739
6.21148
6.22324
6.23243
6.23886
6.24236
6.24277
6.23985
6.23326
6.22258
6.20741
6.18734
6.16191
6.13056
6.09264
6.04731
5.99351
5.93018
5.85681
5.77407
5.68414
5.59127
5.50227
5.42406
5.36013
5.31063
5.27406
5.24853
5.23242
5.22465
4.96391
4.97679
5.00092
5.03391
5.07258
5.11413
5.15687
5.19964
5.24178
5.28344
5.32511
5.36721
5.40968
5.45226
5.49468
5.53613
5.57584
5.61355
5.64913
5.68261
5.71445
5.74518
5.77527
5.80478
5.83364
5.86175
5.88871
5.91418
5.93827
5.96125
5.98335
6.00455
6.02469
6.04359
6.06078
6.0758
6.08838
6.09829
6.10531
6.10933
6.11019
6.10766
6.10137
6.09087
6.07571
6.05549
6.02975
5.99785
5.9591
5.91259
5.85693
5.79066
5.71281
5.62387
5.52595
5.42362
5.32548
5.24051
5.1726
5.1212
5.08393
5.05828
5.04226
5.03457
4.77785
4.79243
4.81947
4.85623
4.8988
4.94379
4.98956
5.03486
5.07894
5.12223
5.16546
5.20931
5.25364
5.29817
5.34271
5.38622
5.42765
5.46686
5.50366
5.53806
5.57065
5.60216
5.63318
5.66373
5.69368
5.72298
5.75106
5.77743
5.80228
5.826
5.84897
5.87111
5.89225
5.91224
5.93051
5.94646
5.95987
5.97049
5.97811
5.98263
5.98396
5.98188
5.97596
5.9657
5.95062
5.93033
5.90438
5.87207
5.83269
5.78527
5.72807
5.65915
5.57694
5.48172
5.3754
5.26262
5.15423
5.06217
4.99055
4.93771
4.90019
4.87476
4.85904
4.85153
4.59774
4.61424
4.64449
4.68544
4.73226
4.78078
4.82963
4.87746
4.92334
4.96807
5.01269
5.05823
5.10439
5.15081
5.19755
5.24317
5.28629
5.32694
5.36492
5.4001
5.43331
5.46547
5.49738
5.52893
5.55994
5.59047
5.6197
5.64689
5.6724
5.69678
5.72059
5.74366
5.76578
5.7869
5.80629
5.82316
5.83739
5.84874
5.85693
5.86196
5.86377
5.86217
5.85668
5.84672
5.83178
5.81149
5.78546
5.75286
5.71302
5.665
5.60663
5.5354
5.44898
5.34747
5.23242
5.10799
4.98801
4.88854
4.81362
4.75993
4.72267
4.6978
4.68259
4.67537
4.42321
4.44195
4.47568
4.52131
4.57276
4.62486
4.67683
4.72722
4.7747
4.82067
4.86648
4.91368
4.96163
5.00986
5.05888
5.10674
5.15145
5.19351
5.23264
5.26844
5.30212
5.33479
5.36758
5.40011
5.43211
5.46393
5.49436
5.52229
5.54836
5.5733
5.59793
5.62192
5.64497
5.66728
5.68784
5.70561
5.72067
5.73275
5.74149
5.74701
5.7493
5.74824
5.74324
5.73365
5.71888
5.69865
5.67265
5.63987
5.59971
5.55142
5.49227
5.41917
5.32871
5.22096
5.09698
4.9595
4.82622
4.71912
4.64149
4.58766
4.55119
4.52725
4.51275
4.50591
4.25395
4.2753
4.31274
4.36363
4.42016
4.47577
4.53092
4.58392
4.63276
4.67974
4.72649
4.77536
4.82508
4.87496
4.92643
4.97666
5.02284
5.06628
5.10656
5.1428
5.1768
5.20981
5.24348
5.27699
5.3099
5.3431
5.37482
5.40337
5.42989
5.45525
5.48072
5.50562
5.52954
5.55312
5.57493
5.59355
5.60943
5.62225
5.6315
5.6375
5.64027
5.63978
5.63534
5.62617
5.6116
5.59147
5.56563
5.53275
5.49238
5.44419
5.38467
5.31021
5.21588
5.10204
4.96918
4.81698
4.66819
4.55337
4.47387
4.42073
4.38562
4.36296
4.34937
4.34299
4.08962
4.11408
4.15538
4.21219
4.27434
4.33326
4.39164
4.44736
4.49723
4.54499
4.59237
4.64299
4.69448
4.74579
4.79992
4.85274
4.90018
4.94499
4.98647
5.02293
5.05708
5.09022
5.12482
5.15932
5.193
5.22773
5.26087
5.28989
5.31673
5.34235
5.3687
5.39452
5.41919
5.44415
5.46733
5.48671
5.5034
5.517
5.5267
5.53315
5.53638
5.53653
5.5327
5.52401
5.50967
5.48963
5.4641
5.43118
5.39066
5.34295
5.28352
5.20832
5.11024
4.99051
4.84919
4.6803
4.51315
4.39079
4.31054
4.25901
4.22586
4.2048
4.19231
4.18647
3.9299
3.95813
4.00326
4.0668
4.13524
4.19703
4.25873
4.3174
4.36786
4.41618
4.46378
4.51631
4.56962
4.62196
4.67908
4.73481
4.78315
4.82935
4.87215
4.90853
4.94269
4.97571
5.01136
5.04689
5.08109
5.11758
5.15234
5.18161
5.20865
5.23432
5.26163
5.28839
5.31364
5.34014
5.36483
5.38483
5.40235
5.41677
5.42682
5.43371
5.43737
5.43821
5.43507
5.42692
5.41279
5.39283
5.3678
5.33486
5.29414
5.24738
5.18845
5.1133
5.01151
4.88615
4.73738
4.54942
4.36015
4.23086
4.15132
4.10243
4.0718
4.05266
4.0414
4.03617
3.77443
3.80736
3.85601
3.92731
4.00287
4.06677
4.13192
4.19391
4.24436
4.29308
4.34034
4.3951
4.45031
4.50309
4.56366
4.62276
4.67146
4.7191
4.76346
4.79936
4.83342
4.86595
4.90288
4.93951
4.97387
5.01241
5.04909
5.07828
5.10543
5.13084
5.1593
5.18706
5.21259
5.24085
5.26727
5.28764
5.30601
5.32135
5.33162
5.33893
5.34295
5.34458
5.3422
5.33465
5.32071
5.30076
5.27647
5.2435
5.20244
5.15716
5.09911
5.02501
4.91938
4.78862
4.63424
4.42438
4.20805
4.07312
3.9961
3.95092
3.92337
3.90641
3.89652
3.89194
3.62284
3.6618
3.7132
3.79353
3.87732
3.9421
4.01094
4.07684
4.1264
4.17548
4.22163
4.27916
4.33643
4.38873
4.45341
4.51652
4.56474
4.61396
4.66027
4.69512
4.72906
4.7606
4.79917
4.83702
4.87096
4.912
4.95102
4.97964
5.00688
5.03163
5.0615
5.09036
5.11572
5.14606
5.17451
5.19487
5.21415
5.23054
5.24084
5.24858
5.25288
5.25539
5.25384
5.24699
5.23319
5.21309
5.18991
5.15685
5.11511
5.07202
5.0151
4.94337
4.8335
4.69744
4.54051
4.30539
4.0554
3.91716
3.84485
3.80448
3.7805
3.76594
3.7575
3.75361
3.47474
3.52159
3.5743
3.66533
3.75879
3.82255
3.89549
3.96622
4.01365
4.06327
4.10719
4.1683
4.22793
4.27837
4.34811
4.41614
4.4626
4.51365
4.56252
4.59552
4.62946
4.65929
4.70005
4.73933
4.77197
4.81614
4.85807
4.88543
4.91284
4.93634
4.96806
4.99816
5.02268
5.05557
5.08646
5.10626
5.12654
5.1442
5.15424
5.16247
5.16689
5.17044
5.16977
5.16372
5.15001
5.12951
5.10793
5.0747
5.03171
4.99173
4.93595
4.86838
4.7535
4.61193
4.45721
4.1928
3.90039
3.76269
3.69764
3.66312
3.64311
3.63111
3.6242
3.62102
3.32965
3.38709
3.43864
3.54255
3.64764
3.70755
3.78526
3.86215
3.90566
3.95639
3.99649
4.0624
4.12486
4.17141
4.24754
4.32174
4.3646
4.41789
4.47022
4.5002
4.53452
4.56161
4.60538
4.6464
4.67647
4.72465
4.77027
4.79534
4.8232
4.84461
4.87883
4.91042
4.93309
4.96919
5.00307
5.02148
5.04296
5.0622
5.07156
5.0804
5.08473
5.08951
5.08978
5.08466
5.07096
5.04967
5.03039
4.99685
4.95174
4.91611
4.86114
4.80017
4.67896
4.53113
4.38566
4.08721
3.74072
3.60961
3.5546
3.52687
3.51114
3.5018
3.49644
3.49399
3.18702
3.25886
3.30537
3.42506
3.54441
3.59638
3.6799
3.76489
3.80191
3.85489
3.88888
3.96136
4.02738
4.06712
4.15151
4.23359
4.27017
4.32639
4.38346
4.40875
4.44422
4.46707
4.51503
4.55828
4.58392
4.63732
4.6877
4.709
4.73792
4.75603
4.79368
4.82711
4.84651
4.88674
4.92439
4.94021
4.96318
4.98446
4.99253
5.00223
5.00612
5.01243
5.01365
5.00964
4.99589
4.97318
4.95722
4.9232
4.87462
4.84511
4.79001
4.73902
4.60949
4.45371
4.32759
3.98948
3.57348
3.45807
3.41598
3.39577
3.38451
3.37787
3.37408
3.37235
3.04619
3.13781
3.17341
3.31274
3.44986
3.48812
3.57905
3.67486
3.70171
3.75902
3.7836
3.86515
3.93578
3.96464
4.05981
4.1521
4.17866
4.23883
4.30247
4.32068
4.35866
4.37511
4.42892
4.4751
4.49369
4.55401
4.61054
4.62596
4.65703
4.67011
4.71251
4.74831
4.76242
4.80806
4.85049
4.86204
4.887
4.91093
4.91686
4.92783
4.93081
4.93903
4.94118
4.9385
4.92465
4.89962
4.88835
4.85367
4.7997
4.77879
4.72174
4.68539
4.54468
4.37785
4.28516
3.90084
3.39497
3.30863
3.28207
3.26985
3.26313
3.25919
3.25695
3.25592
2.90634
3.02522
3.04136
3.20545
3.36503
3.38162
3.48234
3.59265
3.60418
3.66918
3.6797
3.77376
3.85054
3.86289
3.97229
4.0779
4.08925
4.1549
4.22759
4.23534
4.27805
4.28506
4.34702
4.39711
4.40506
4.47455
4.53907
4.54567
4.5807
4.58629
4.63526
4.67419
4.68024
4.73299
4.78157
4.78654
4.8142
4.84164
4.84421
4.85714
4.85849
4.86919
4.87214
4.87111
4.85716
4.8285
4.82383
4.78827
4.72618
4.71742
4.65528
4.64002
4.48418
4.3011
4.26107
3.82294
3.20055
3.16234
3.1532
3.14913
3.14691
3.14561
3.14487
3.14453
)
;

boundaryField
{
    left
    {
        type            zeroGradient;
    }
    right
    {
        type            zeroGradient;
    }
    interface
    {
        type            fixedValue;
        value           nonuniform List<scalar> 
64
(
2.83484
2.97289
2.97289
3.15312
3.32734
3.32734
3.43481
3.55508
3.55508
3.6267
3.6267
3.72954
3.81059
3.81059
3.92961
4.0441
4.0441
4.11369
4.1927
4.1927
4.23959
4.23959
4.30729
4.3601
4.3601
4.43584
4.50568
4.50568
4.54417
4.54417
4.59777
4.63882
4.63882
4.69641
4.74904
4.74904
4.77862
4.80842
4.80842
4.82289
4.82289
4.83525
4.8385
4.8385
4.82456
4.7931
4.7931
4.757
4.68883
4.68883
4.62154
4.62154
4.45532
4.25981
4.25981
3.78974
3.09006
3.09006
3.09006
3.09006
3.09006
3.09006
3.09006
3.09006
)
;
    }
    bottom
    {
        type            fixedValue;
        value           uniform 10;
    }
    defaultFaces
    {
        type            empty;
    }
}


// ************************************************************************* //
