/*--------------------------------*- C++ -*----------------------------------*\
| =========                 |                                                 |
| \\      /  F ield         | OpenFOAM: The Open Source CFD Toolbox           |
|  \\    /   O peration     | Version:  5.x                                   |
|   \\  /    A nd           | Web:      www.OpenFOAM.org                      |
|    \\/     M anipulation  |                                                 |
\*---------------------------------------------------------------------------*/
FoamFile
{
    version     2.0;
    format      ascii;
    class       volScalarField;
    location    "1.7";
    object      gradTy;
}
// * * * * * * * * * * * * * * * * * * * * * * * * * * * * * * * * * * * * * //

dimensions      [0 -1 0 1 0 0 0];

internalField   nonuniform List<scalar> 
2048
(
-26.4324
-26.4049
-26.3507
-26.2713
-26.1689
-26.0459
-25.9052
-25.7495
-25.5817
-25.4042
-25.2196
-25.0299
-24.8371
-24.6429
-24.4488
-24.2561
-24.0659
-23.8791
-23.6965
-23.5186
-23.346
-23.179
-23.0177
-22.8626
-22.7137
-22.5714
-22.4359
-22.3075
-22.1866
-22.0738
-21.9694
-21.8742
-21.7889
-21.7142
-21.6512
-21.6008
-21.564
-21.5421
-21.5362
-21.5476
-21.5774
-21.6269
-21.6974
-21.7899
-21.9054
-22.0445
-22.2078
-22.395
-22.6056
-22.8381
-23.0903
-23.3589
-23.6395
-23.9272
-24.2157
-24.4987
-24.7694
-25.0213
-25.2483
-25.4452
-25.6076
-25.7321
-25.8164
-25.859
-26.4546
-26.4265
-26.3711
-26.29
-26.1855
-26.0603
-25.9172
-25.7593
-25.5894
-25.41
-25.2237
-25.0324
-24.8383
-24.6428
-24.4477
-24.254
-24.0631
-23.8757
-23.6926
-23.5144
-23.3415
-23.1742
-23.0128
-22.8575
-22.7084
-22.5659
-22.4301
-22.3014
-22.1802
-22.0669
-21.962
-21.8662
-21.7802
-21.7048
-21.641
-21.5897
-21.552
-21.5291
-21.5222
-21.5326
-21.5614
-21.61
-21.6795
-21.7713
-21.8861
-22.025
-22.1883
-22.3761
-22.5878
-22.8222
-23.077
-23.349
-23.6339
-23.9264
-24.2202
-24.5086
-24.7846
-25.0414
-25.2726
-25.473
-25.6381
-25.7646
-25.8502
-25.8933
-26.4972
-26.4678
-26.4099
-26.3255
-26.217
-26.0875
-25.9401
-25.7779
-25.6039
-25.4209
-25.2312
-25.0371
-24.8403
-24.6426
-24.4454
-24.2501
-24.0577
-23.8691
-23.6852
-23.5063
-23.3329
-23.1652
-23.0035
-22.8478
-22.6984
-22.5554
-22.4191
-22.2899
-22.1679
-22.0538
-21.948
-21.8511
-21.7638
-21.687
-21.6216
-21.5687
-21.5292
-21.5045
-21.4958
-21.5042
-21.5311
-21.5778
-21.6457
-21.7359
-21.8496
-21.9878
-22.1511
-22.3398
-22.5537
-22.7915
-23.0512
-23.3298
-23.6227
-23.9245
-24.2285
-24.5275
-24.8137
-25.0798
-25.3192
-25.5263
-25.6965
-25.8267
-25.9146
-25.9588
-26.5582
-26.5269
-26.4655
-26.3761
-26.2618
-26.1259
-25.9721
-25.8037
-25.6241
-25.4359
-25.2416
-25.0433
-24.8429
-24.6419
-24.442
-24.2442
-24.0498
-23.8597
-23.6745
-23.4948
-23.3207
-23.1525
-22.9904
-22.8342
-22.6843
-22.5408
-22.4038
-22.2737
-22.1508
-22.0356
-21.9284
-21.8299
-21.7409
-21.6621
-21.5945
-21.5392
-21.4973
-21.47
-21.4585
-21.4642
-21.4884
-21.5324
-21.5977
-21.6857
-21.7976
-21.9347
-22.0979
-22.2878
-22.5043
-22.7469
-23.0135
-23.3014
-23.6059
-23.9212
-24.24
-24.5542
-24.8553
-25.135
-25.3861
-25.6027
-25.7801
-25.9152
-26.0062
-26.052
-26.6364
-26.6025
-26.5363
-26.4403
-26.3182
-26.174
-26.0119
-25.8357
-25.6488
-25.4541
-25.254
-25.0507
-24.8457
-24.6407
-24.4372
-24.2365
-24.0397
-23.8476
-23.6609
-23.4801
-23.3053
-23.1366
-22.9739
-22.8173
-22.6668
-22.5226
-22.3848
-22.2537
-22.1296
-22.0129
-21.9041
-21.8037
-21.7124
-21.6311
-21.5607
-21.5025
-21.4574
-21.4268
-21.412
-21.4142
-21.4349
-21.4755
-21.5375
-21.6225
-21.732
-21.8674
-22.0301
-22.221
-22.4407
-22.6889
-22.9641
-23.2637
-23.583
-23.9157
-24.2538
-24.588
-24.9085
-25.2059
-25.472
-25.7004
-25.8866
-26.0278
-26.1225
-26.17
-26.7307
-26.6936
-26.6211
-26.5168
-26.3849
-26.2304
-26.0581
-25.8724
-25.6769
-25.4746
-25.2679
-25.0586
-24.8484
-24.6387
-24.4311
-24.2269
-24.0272
-23.8328
-23.6446
-23.4626
-23.2871
-23.1178
-22.9547
-22.7976
-22.6464
-22.5014
-22.3627
-22.2305
-22.105
-21.9867
-21.876
-21.7733
-21.6794
-21.5951
-21.5215
-21.4597
-21.4109
-21.3764
-21.3576
-21.3557
-21.3722
-21.4086
-21.4666
-21.5478
-21.6541
-21.7872
-21.9489
-22.1406
-22.3634
-22.6178
-22.9028
-23.2162
-23.5533
-23.9074
-24.2693
-24.6283
-24.9727
-25.2917
-25.5758
-25.8181
-26.0144
-26.1624
-26.261
-26.3103
-26.8405
-26.7993
-26.7192
-26.6044
-26.4606
-26.2937
-26.1094
-25.9127
-25.7074
-25.4966
-25.2825
-25.0666
-24.8506
-24.6357
-24.4235
-24.2153
-24.0123
-23.8155
-23.6255
-23.4425
-23.2663
-23.0966
-22.9331
-22.7755
-22.6237
-22.4778
-22.3381
-22.2046
-22.0777
-21.9577
-21.8448
-21.7395
-21.6426
-21.555
-21.4776
-21.4118
-21.3588
-21.3199
-21.2965
-21.2899
-21.3016
-21.3332
-21.3864
-21.4632
-21.5655
-21.6955
-21.8553
-22.0472
-22.2728
-22.5335
-22.8292
-23.1581
-23.5159
-23.8952
-24.2857
-24.6744
-25.0476
-25.392
-25.697
-25.9551
-26.1622
-26.317
-26.4195
-26.4705
-26.9654
-26.9191
-26.8296
-26.7023
-26.5442
-26.3627
-26.1645
-25.9553
-25.7392
-25.5193
-25.2972
-25.0744
-24.8522
-24.6316
-24.4143
-24.2017
-23.9951
-23.7957
-23.604
-23.42
-23.2433
-23.0733
-22.9096
-22.7515
-22.5991
-22.4523
-22.3115
-22.1767
-22.0483
-21.9264
-21.8112
-21.7032
-21.603
-21.5116
-21.4301
-21.3598
-21.3021
-21.2584
-21.2299
-21.2181
-21.2245
-21.2506
-21.2984
-21.3698
-21.4673
-21.5932
-21.7503
-21.9415
-22.1693
-22.436
-22.7428
-23.0887
-23.4698
-23.8783
-24.3021
-24.726
-25.133
-25.507
-25.8356
-26.1106
-26.3289
-26.4901
-26.596
-26.6484
-27.1053
-27.0528
-26.9519
-26.8096
-26.6346
-26.4361
-26.2221
-25.9991
-25.7715
-25.5418
-25.3116
-25.0817
-24.8529
-24.6263
-24.4034
-24.1859
-23.9755
-23.7734
-23.5799
-23.3951
-23.2182
-23.0483
-22.8845
-22.7261
-22.573
-22.4253
-22.2833
-22.1472
-22.0173
-21.8935
-21.776
-21.665
-21.5612
-21.4657
-21.3796
-21.3045
-21.2417
-21.1928
-21.1589
-21.1414
-21.1419
-21.162
-21.2036
-21.269
-21.3607
-21.4816
-21.6349
-21.8241
-22.053
-22.3251
-22.6429
-23.0068
-23.4136
-23.8552
-24.3178
-24.7828
-25.2292
-25.6371
-25.9916
-26.2844
-26.5134
-26.6802
-26.7884
-26.8416
-27.2602
-27.2003
-27.0856
-26.9253
-26.7305
-26.5124
-26.2809
-26.0429
-25.8031
-25.5637
-25.3253
-25.0882
-24.8526
-24.6196
-24.3907
-24.168
-23.9535
-23.7484
-23.5535
-23.3682
-23.1915
-23.022
-22.8583
-22.6997
-22.5459
-22.3971
-22.2539
-22.1165
-21.9851
-21.8595
-21.7395
-21.6255
-21.5179
-21.4179
-21.3269
-21.2466
-21.1784
-21.1239
-21.0842
-21.0608
-21.055
-21.0685
-21.1034
-21.1619
-21.247
-21.3618
-21.5099
-21.6958
-21.9243
-22.2005
-22.5287
-22.9111
-23.3459
-23.8247
-24.3319
-24.8447
-25.3367
-25.783
-26.1657
-26.4764
-26.7148
-26.8855
-26.9947
-27.0478
-27.4304
-27.3615
-27.2304
-27.0487
-26.8308
-26.5905
-26.3394
-26.0855
-25.8332
-25.5842
-25.338
-25.0938
-24.8515
-24.6117
-24.3764
-24.1479
-23.9289
-23.7209
-23.5246
-23.3392
-23.1632
-22.9946
-22.8314
-22.6727
-22.5181
-22.3682
-22.2236
-22.0849
-21.9521
-21.8248
-21.7025
-21.5853
-21.4736
-21.3688
-21.2726
-21.1866
-21.1128
-21.0524
-21.0069
-20.9772
-20.9648
-20.9713
-20.9987
-21.0497
-21.1272
-21.2348
-21.3765
-21.5574
-21.7837
-22.0621
-22.3994
-22.8004
-23.2649
-23.7851
-24.3432
-24.9115
-25.4563
-25.9459
-26.3587
-26.6867
-26.9325
-27.1047
-27.2128
-27.2647
-27.6164
-27.5367
-27.3859
-27.179
-26.9343
-26.6689
-26.3964
-26.1257
-25.861
-25.6029
-25.3494
-25.0986
-24.8495
-24.6027
-24.3603
-24.1255
-23.9016
-23.6906
-23.4932
-23.3084
-23.1338
-22.9665
-22.8041
-22.6453
-22.4899
-22.3386
-22.1926
-22.0527
-21.9188
-21.79
-21.6654
-21.5449
-21.429
-21.319
-21.2171
-21.1253
-21.0454
-20.9791
-20.9274
-20.8914
-20.8721
-20.8711
-20.8906
-20.9334
-21.0025
-21.1018
-21.2356
-21.4097
-21.6316
-21.9099
-22.2544
-22.673
-23.1687
-23.7344
-24.3506
-24.9833
-25.5893
-26.1275
-26.5718
-26.9155
-27.1656
-27.3359
-27.4403
-27.4897
-27.8189
-27.7261
-27.5518
-27.3153
-27.0396
-26.7461
-26.4504
-26.1622
-25.8855
-25.6192
-25.3595
-25.1027
-24.8469
-24.5927
-24.3426
-24.1007
-23.8715
-23.6575
-23.4593
-23.2757
-23.1033
-22.9381
-22.777
-22.6182
-22.4617
-22.3088
-22.1611
-22.0201
-21.8853
-21.7553
-21.6287
-21.5049
-21.3844
-21.2689
-21.1608
-21.0628
-20.9769
-20.9045
-20.8466
-20.8041
-20.7777
-20.769
-20.7801
-20.814
-20.874
-20.9638
-21.0883
-21.2538
-21.4686
-21.7439
-22.0927
-22.5275
-23.0551
-23.6705
-24.3525
-25.0603
-25.7374
-26.33
-26.8067
-27.1632
-27.4132
-27.5773
-27.6749
-27.7201
-28.0386
-27.9303
-27.7281
-27.4568
-27.1454
-26.8205
-26.4999
-26.194
-25.9061
-25.6331
-25.3684
-25.1062
-24.8439
-24.582
-24.3233
-24.0735
-23.8385
-23.6214
-23.4229
-23.2412
-23.0721
-22.9099
-22.7503
-22.5915
-22.4338
-22.2787
-22.1291
-21.987
-21.8519
-21.7213
-21.5928
-21.4656
-21.3404
-21.2189
-21.1042
-20.9997
-20.9075
-20.829
-20.765
-20.716
-20.6825
-20.6656
-20.6679
-20.6924
-20.7426
-20.8221
-20.9359
-21.0906
-21.2957
-21.5644
-21.9139
-22.3622
-22.9217
-23.5907
-24.3472
-25.1425
-25.9029
-26.5564
-27.0652
-27.4301
-27.6741
-27.827
-27.9142
-27.9533
-28.2768
-28.1497
-27.9146
-27.6024
-27.2502
-26.8906
-26.5435
-26.2197
-25.922
-25.6441
-25.3762
-25.1096
-24.841
-24.5709
-24.3025
-24.0436
-23.8023
-23.582
-23.3836
-23.2051
-23.0404
-22.8822
-22.7246
-22.5657
-22.4063
-22.2485
-22.0965
-21.9537
-21.8188
-21.6881
-21.558
-21.4276
-21.2973
-21.1693
-21.0475
-20.9361
-20.8375
-20.753
-20.6831
-20.6278
-20.5871
-20.5619
-20.5549
-20.5695
-20.6093
-20.6778
-20.7795
-20.9215
-21.1139
-21.3718
-21.7173
-22.1755
-22.7658
-23.4917
-24.3321
-25.2301
-26.0886
-26.8101
-27.3496
-27.7164
-27.9473
-28.0827
-28.1554
-28.1865
-28.5345
-28.385
-28.1111
-27.7511
-27.3522
-26.9547
-26.5797
-26.2382
-25.9324
-25.6524
-25.3834
-25.1133
-24.8386
-24.5599
-24.2803
-24.0109
-23.7627
-23.5392
-23.3414
-23.1673
-23.0086
-22.8555
-22.7002
-22.5412
-22.3797
-22.2182
-22.0633
-21.9199
-21.7861
-21.6562
-21.5249
-21.3911
-21.2556
-21.1203
-20.9907
-20.8723
-20.7673
-20.6768
-20.6014
-20.54
-20.4921
-20.4584
-20.4416
-20.446
-20.4751
-20.5319
-20.6204
-20.7479
-20.9246
-21.167
-21.5028
-21.9657
-22.5849
-23.3702
-24.3041
-25.3232
-26.2984
-27.0955
-27.6622
-28.0224
-28.2311
-28.3422
-28.3959
-28.4169
-28.8131
-28.6369
-28.3177
-27.9016
-27.4494
-27.0113
-26.6071
-26.2482
-25.9369
-25.6578
-25.3905
-25.1178
-24.8371
-24.5495
-24.257
-23.9751
-23.7195
-23.4927
-23.2959
-23.1277
-22.977
-22.8305
-22.6778
-22.5183
-22.3542
-22.1878
-22.0289
-21.8856
-21.7541
-21.626
-21.4938
-21.3566
-21.2156
-21.0723
-20.934
-20.8084
-20.697
-20.6007
-20.5201
-20.4532
-20.3982
-20.3556
-20.3288
-20.3225
-20.3407
-20.3854
-20.4597
-20.5712
-20.7293
-20.9508
-21.2702
-21.7313
-22.3761
-23.222
-24.2591
-25.4217
-26.5374
-27.4181
-28.0057
-28.3476
-28.5235
-28.6028
-28.633
-28.6418
-29.1144
-28.9059
-28.5343
-28.0528
-27.5397
-27.0586
-26.6245
-26.2484
-25.9348
-25.6608
-25.3983
-25.1237
-24.837
-24.5405
-24.2326
-23.9356
-23.6725
-23.4423
-23.2468
-23.0865
-22.946
-22.8077
-22.6576
-22.4973
-22.3303
-22.1573
-21.9931
-21.8504
-21.7227
-21.598
-21.4649
-21.3243
-21.1779
-21.0253
-20.8773
-20.7444
-20.6268
-20.5249
-20.4397
-20.3677
-20.306
-20.2543
-20.2168
-20.1996
-20.2069
-20.2395
-20.2987
-20.393
-20.5299
-20.7248
-21.0198
-21.471
-22.1367
-23.0427
-24.1914
-25.5251
-26.8121
-27.7842
-28.3825
-28.6914
-28.8223
-28.8617
-28.864
-28.8587
-29.4401
-29.1926
-28.7614
-28.203
-27.6204
-27.0954
-26.6307
-26.2373
-25.9257
-25.6615
-25.4079
-25.1315
-24.8387
-24.534
-24.2072
-23.8918
-23.6216
-23.3879
-23.1934
-23.0435
-22.9159
-22.7881
-22.6401
-22.4784
-22.3085
-22.1265
-21.9549
-21.814
-21.6922
-21.5726
-21.4387
-21.2944
-21.1429
-20.9796
-20.8203
-20.6806
-20.5568
-20.4493
-20.3604
-20.284
-20.216
-20.1548
-20.106
-20.0775
-20.0745
-20.0952
-20.1384
-20.2149
-20.3287
-20.4905
-20.7522
-21.1833
-21.8644
-22.8275
-24.0935
-25.6324
-27.1315
-28.2016
-28.7951
-29.0524
-29.1247
-29.1161
-29.0863
-29.0652
-29.7924
-29.4971
-28.9995
-28.3507
-27.6881
-27.1207
-26.6248
-26.2132
-25.9093
-25.6603
-25.4208
-25.1417
-24.8424
-24.5313
-24.1811
-23.8426
-23.5668
-23.3295
-23.1351
-22.9987
-22.8872
-22.7727
-22.6256
-22.4616
-22.2897
-22.0954
-21.9134
-21.7761
-21.6626
-21.5507
-21.4154
-21.2671
-21.1113
-20.9352
-20.7626
-20.6168
-20.4871
-20.374
-20.2825
-20.2027
-20.1289
-20.0575
-19.9968
-19.9567
-19.9439
-19.9534
-19.9796
-20.0384
-20.1283
-20.25
-20.4683
-20.867
-21.5576
-22.5718
-23.9551
-25.7417
-27.5073
-28.6793
-29.2452
-29.4282
-29.4272
-29.363
-29.2975
-29.2593
-30.1737
-29.8188
-29.25
-28.494
-27.7386
-27.1341
-26.6065
-26.174
-25.8852
-25.6578
-25.4391
-25.1545
-24.8476
-24.5346
-24.1543
-23.786
-23.5087
-23.267
-23.0706
-22.9521
-22.8601
-22.7628
-22.6144
-22.4468
-22.275
-22.0638
-21.867
-21.7362
-21.6341
-21.5333
-21.3951
-21.2421
-21.0842
-20.8923
-20.7035
-20.5535
-20.4181
-20.2988
-20.2063
-20.124
-20.0452
-19.963
-19.8892
-19.837
-19.8156
-19.8153
-19.8229
-19.8649
-19.9319
-20.0054
-20.1695
-20.5206
-21.2155
-22.2717
-23.7622
-25.8496
-27.956
-29.2273
-29.7334
-29.8154
-29.7262
-29.5994
-29.4955
-29.4392
-30.5874
-30.1559
-29.5154
-28.6311
-27.7662
-27.1363
-26.5758
-26.1168
-25.8537
-25.6543
-25.4655
-25.1699
-24.8535
-24.5469
-24.1271
-23.7194
-23.4482
-23.2011
-22.9982
-22.9038
-22.835
-22.7603
-22.6063
-22.4334
-22.2663
-22.0316
-21.8135
-21.6942
-21.6067
-21.5218
-21.3777
-21.2189
-21.0629
-20.8509
-20.6416
-20.4909
-20.3498
-20.2232
-20.132
-20.0484
-19.9656
-19.8714
-19.7834
-19.7184
-19.6902
-19.6822
-19.6683
-19.6956
-19.7431
-19.759
-19.8581
-20.1419
-20.8384
-21.9248
-23.496
-25.9503
-28.4998
-29.8568
-30.2588
-30.2095
-30.0175
-29.8224
-29.6783
-29.6036
-31.0374
-30.5048
-29.7999
-28.7597
-27.7632
-27.1296
-26.5337
-26.0374
-25.8156
-25.6495
-25.5043
-25.1872
-24.8579
-24.573
-24.0995
-23.6387
-23.3872
-23.1325
-22.9153
-22.8545
-22.8118
-22.768
-22.601
-22.4198
-22.2666
-21.9987
-21.7501
-21.65
-21.5803
-21.5183
-21.363
-21.1965
-21.0496
-20.811
-20.5751
-20.4299
-20.2828
-20.1464
-20.0601
-19.9759
-19.891
-19.7832
-19.6794
-19.6003
-19.5677
-19.5556
-19.5154
-19.5312
-19.5665
-19.5129
-19.5369
-19.7279
-20.4286
-21.5319
-23.1306
-26.0349
-29.1695
-30.5791
-30.8184
-30.6045
-30.2966
-30.0293
-29.8444
-29.7513
-31.529
-30.8585
-30.1104
-28.8777
-27.7187
-27.1186
-26.4819
-25.93
-25.7726
-25.6426
-25.561
-25.2053
-24.8572
-24.6194
-24.0717
-23.5375
-23.3292
-23.0625
-22.8181
-22.8051
-22.7898
-22.7894
-22.5975
-22.4036
-22.2799
-21.9651
-21.6723
-21.6043
-21.5541
-21.5256
-21.3502
-21.1729
-21.0474
-20.7725
-20.5011
-20.3718
-20.2175
-20.0674
-19.9911
-19.9067
-19.8224
-19.6983
-19.577
-19.4822
-19.4482
-19.4378
-19.3628
-19.3718
-19.4078
-19.2685
-19.2103
-19.2733
-19.9902
-21.0989
-22.6314
-26.0896
-30.008
-31.4047
-31.406
-30.9934
-30.5589
-30.2178
-29.9926
-29.8819
-32.0697
-31.2053
-30.4582
-28.9828
-27.6176
-27.1118
-26.4233
-25.7859
-25.7285
-25.6309
-25.6439
-25.2218
-24.845
-24.6963
-24.0436
-23.4066
-23.2797
-22.9931
-22.7009
-22.7582
-22.7672
-22.8299
-22.5945
-22.3808
-22.3127
-21.9306
-21.5745
-21.5586
-21.5267
-21.5481
-21.3382
-21.1449
-21.061
-20.7353
-20.4155
-20.3187
-20.1545
-19.984
-19.9259
-19.8406
-19.7608
-19.6168
-19.4764
-19.3627
-19.3314
-19.3318
-19.208
-19.2165
-19.2744
-19.0263
-18.8851
-18.7697
-19.5294
-20.6396
-21.952
-26.0939
-31.0745
-32.3414
-32.0119
-31.3678
-30.8
-30.3858
-30.1223
-29.9951
-32.6699
-31.5261
-30.8606
-29.0728
-27.4386
-27.1225
-26.3622
-25.5924
-25.6901
-25.6092
-25.7649
-25.2333
-24.8116
-24.8181
-24.0153
-23.2325
-23.2476
-22.9273
-22.5553
-22.7178
-22.7405
-22.8972
-22.5896
-22.3452
-22.374
-21.8951
-21.4482
-21.5163
-21.4956
-21.5916
-21.3251
-21.1077
-21.0971
-20.6992
-20.3122
-20.2744
-20.0948
-19.8935
-19.8661
-19.7768
-19.7081
-19.5386
-19.3775
-19.2406
-19.2166
-19.2423
-19.0473
-19.0632
-19.1759
-18.7843
-18.5713
-18.204
-19.0546
-20.1801
-21.0307
-26.0178
-32.4506
-33.3911
-32.622
-31.7186
-31.0157
-30.5319
-30.2332
-30.091
-33.3445
-31.7914
-31.3438
-29.1453
-27.1517
-27.1715
-26.3044
-25.3313
-25.6688
-25.5679
-25.9409
-25.2347
-24.7422
-25.0054
-23.9864
-22.9961
-23.2461
-22.8688
-22.3692
-22.6912
-22.7033
-23.0023
-22.5794
-22.2872
-22.4772
-21.8583
-21.2823
-21.4835
-21.4555
-21.6651
-21.3083
-21.054
-21.1655
-20.6637
-20.1828
-20.2443
-20.0396
-19.7916
-19.8142
-19.7139
-19.6665
-19.4629
-19.2808
-19.1138
-19.1024
-19.176
-18.875
-18.9081
-19.1259
-18.5373
-18.2843
-17.5561
-18.576
-19.7638
-19.7866
-25.8184
-34.2484
-34.5461
-33.2177
-32.0366
-31.2028
-30.6552
-30.3253
-30.1701
-34.1144
-31.9572
-31.9462
-29.1982
-26.716
-27.289
-26.2575
-24.9765
-25.6832
-25.4905
-26.1956
-25.219
-24.6154
-25.2873
-23.9565
-22.6706
-23.2948
-22.8226
-22.1254
-22.6906
-22.6448
-23.1605
-22.5592
-22.1932
-22.6406
-21.8197
-21.0613
-21.4704
-21.3983
-21.7806
-21.2841
-20.9734
-21.28
-20.6281
-20.0155
-20.2368
-19.9903
-19.6724
-19.7744
-19.6495
-19.6391
-19.3888
-19.187
-18.98
-18.9865
-19.1424
-18.6834
-18.745
-19.1426
-18.2742
-18.0475
-16.7961
-18.1045
-19.4577
-18.1145
-25.4358
-36.6199
-35.7826
-33.776
-32.3128
-31.3586
-30.7555
-30.3993
-30.2333
-35.009
-31.959
-32.7227
-29.2292
-26.0753
-27.5187
-26.2309
-24.4915
-25.7626
-25.351
-26.5624
-25.1767
-24.4009
-25.7036
-23.9246
-22.2193
-23.4216
-22.7948
-21.7996
-22.7345
-22.548
-23.3938
-22.5227
-22.0438
-22.8898
-21.7782
-20.7643
-21.4929
-21.3104
-21.9556
-21.2474
-20.8511
-21.4597
-20.5911
-19.7945
-20.2638
-19.9483
-19.5277
-19.7529
-19.5797
-19.6306
-19.3145
-19.0976
-18.8363
-18.8646
-19.1554
-18.4621
-18.5645
-19.2514
-17.9758
-17.8958
-15.8815
-17.6501
-19.3615
-15.8796
-24.7869
-39.7698
-37.0527
-34.2704
-32.5395
-31.4818
-30.8332
-30.456
-30.2816
-36.0693
-31.7057
-33.7506
-29.236
-25.1543
-27.9212
-26.2356
-23.8259
-25.951
-25.1092
-27.0872
-25.0954
-24.0565
-26.3083
-23.8891
-21.5928
-23.6652
-22.793
-21.3588
-22.8514
-22.3865
-23.732
-22.4616
-21.8122
-23.2594
-21.732
-20.3635
-21.5753
-21.1711
-22.2136
-21.1914
-20.667
-21.7306
-20.551
-19.4983
-20.3422
-19.9153
-19.3461
-19.7591
-19.498
-19.647
-19.2369
-19.0152
-18.6796
-18.7307
-19.2339
-18.1972
-18.3529
-19.487
-17.6107
-17.88
-14.7533
-17.2194
-19.6164
-12.9107
-23.7594
-43.9696
-38.2741
-34.673
-32.7111
-31.572
-30.8892
-30.4965
-30.3161
-37.3511
-31.0714
-35.1356
-29.2158
-23.8534
-28.5787
-26.2845
-22.9112
-26.3125
-24.7055
-27.8325
-24.9592
-23.5256
-27.173
-23.8477
-20.7257
-24.0786
-22.8257
-20.7577
-23.0829
-22.1213
-24.2157
-22.365
-21.4622
-23.7951
-21.6781
-19.8219
-21.7528
-20.9494
-22.5869
-21.1073
-20.3936
-22.1272
-20.5049
-19.0986
-20.495
-19.8924
-19.1122
-19.8062
-19.3948
-19.697
-19.1511
-18.9432
-18.5058
-18.5749
-19.4032
-17.8707
-18.0905
-19.8969
-17.1304
-18.0725
-13.3312
-16.8118
-20.4168
-8.99341
-22.2028
-49.5754
-39.3163
-34.9573
-32.8244
-31.6301
-30.9248
-30.5221
-30.3379
-38.9294
-29.8854
-37.0199
-29.1653
-22.0433
-29.6009
-26.3919
-21.6566
-26.9385
-24.0545
-28.8818
-24.7482
-22.7331
-28.3912
-23.7968
-19.5334
-24.7321
-22.9028
-19.9367
-23.4884
-21.6967
-24.8996
-22.2196
-20.9463
-24.5572
-21.612
-19.0916
-22.0758
-20.601
-23.1189
-20.9842
-19.9952
-22.6949
-20.449
-18.5595
-20.7534
-19.8809
-18.8062
-19.9134
-19.2566
-19.7927
-19.0506
-18.8876
-18.3115
-18.3838
-19.6979
-17.4606
-17.7513
-20.5457
-16.4642
-18.5751
-11.5104
-16.416
-22.024
-3.86429
-19.9205
-57.0484
-39.9853
-35.1042
-32.88
-31.6582
-30.9419
-30.5344
-30.3486
)
;

boundaryField
{
    left
    {
        type            calculated;
        value           nonuniform List<scalar> 
32
(
-26.4324
-26.4546
-26.4972
-26.5582
-26.6364
-26.7307
-26.8405
-26.9654
-27.1053
-27.2602
-27.4304
-27.6164
-27.8189
-28.0386
-28.2768
-28.5345
-28.8131
-29.1144
-29.4401
-29.7924
-30.1737
-30.5874
-31.0374
-31.529
-32.0697
-32.6699
-33.3445
-34.1144
-35.009
-36.0693
-37.3511
-38.9294
)
;
    }
    right
    {
        type            calculated;
        value           nonuniform List<scalar> 
32
(
-25.859
-25.8933
-25.9588
-26.052
-26.17
-26.3103
-26.4705
-26.6484
-26.8416
-27.0478
-27.2647
-27.4897
-27.7201
-27.9533
-28.1865
-28.4169
-28.6418
-28.8587
-29.0652
-29.2593
-29.4392
-29.6036
-29.7513
-29.8819
-29.9951
-30.091
-30.1701
-30.2333
-30.2816
-30.3161
-30.3379
-30.3486
)
;
    }
    interface
    {
        type            calculated;
        value           nonuniform List<scalar> 
64
(
-39.8033
-29.1301
-38.1071
-29.1319
-20.9928
-30.2187
-26.4621
-20.9313
-27.3309
-23.6547
-29.4943
-24.6213
-22.2608
-29.1017
-23.7685
-18.844
-25.1289
-22.9537
-19.4627
-23.7433
-21.4365
-25.2995
-22.1329
-20.6402
-25.0034
-21.5753
-18.6726
-22.281
-20.3887
-23.4308
-20.9114
-19.7597
-23.028
-20.418
-18.2501
-20.9136
-19.8781
-18.6324
-19.985
-19.1769
-19.8538
-18.9957
-18.8649
-18.209
-18.2776
-19.8817
-17.2317
-17.5588
-20.9392
-16.0742
-18.9189
-10.4857
-16.2188
-23.0667
-0.960579
-18.5702
-61.3167
-40.1978
-35.1416
-32.8938
-31.6652
-30.9463
-30.5375
-30.3515
)
;
    }
    bottom
    {
        type            calculated;
        value           nonuniform List<scalar> 
64
(
-26.4266
-26.3993
-26.3454
-26.2665
-26.1645
-26.0422
-25.902
-25.7469
-25.5796
-25.4027
-25.2185
-25.0293
-24.8368
-24.6429
-24.4491
-24.2566
-24.0666
-23.8799
-23.6975
-23.5197
-23.3472
-23.1802
-23.019
-22.8639
-22.7151
-22.5728
-22.4374
-22.3091
-22.1883
-22.0756
-21.9714
-21.8763
-21.7911
-21.7167
-21.6539
-21.6037
-21.5672
-21.5455
-21.5399
-21.5515
-21.5816
-21.6314
-21.7021
-21.7948
-21.9104
-22.0496
-22.2128
-22.3999
-22.6102
-22.8423
-23.0937
-23.3614
-23.641
-23.9274
-24.2146
-24.4962
-24.7655
-25.0161
-25.242
-25.4379
-25.5996
-25.7237
-25.8077
-25.85
)
;
    }
    defaultFaces
    {
        type            empty;
    }
}


// ************************************************************************* //
