/*--------------------------------*- C++ -*----------------------------------*\
| =========                 |                                                 |
| \\      /  F ield         | OpenFOAM: The Open Source CFD Toolbox           |
|  \\    /   O peration     | Version:  5.x                                   |
|   \\  /    A nd           | Web:      www.OpenFOAM.org                      |
|    \\/     M anipulation  |                                                 |
\*---------------------------------------------------------------------------*/
FoamFile
{
    version     2.0;
    format      ascii;
    class       volScalarField;
    location    "1.7";
    object      gradTx;
}
// * * * * * * * * * * * * * * * * * * * * * * * * * * * * * * * * * * * * * //

dimensions      [0 -1 0 1 0 0 0];

internalField   nonuniform List<scalar> 
2048
(
0.00628417
0.0186726
0.0305368
0.041578
0.0515674
0.0603561
0.0678734
0.0741169
0.0791363
0.0830144
0.0858508
0.08775
0.0888137
0.089139
0.088818
0.08794
0.0865917
0.0848564
0.082812
0.0805269
0.078057
0.0754431
0.0727103
0.0698694
0.0669185
0.0638463
0.060634
0.0572568
0.0536849
0.0498833
0.045813
0.0414315
0.0366948
0.0315592
0.0259838
0.0199316
0.013371
0.00627599
-0.00137264
-0.00958649
-0.0183671
-0.0277022
-0.0375609
-0.0478866
-0.0585888
-0.0695348
-0.08054
-0.0913605
-0.101689
-0.111157
-0.119347
-0.125812
-0.130114
-0.131863
-0.130764
-0.126656
-0.119533
-0.109547
-0.0969813
-0.082218
-0.0656866
-0.0478244
-0.0290477
-0.00974037
0.0187274
0.0556358
0.0909552
0.123785
0.153441
0.179481
0.201705
0.220122
0.234892
0.246274
0.254573
0.260104
0.263168
0.264053
0.263031
0.260363
0.256308
0.251114
0.245014
0.238212
0.230877
0.223129
0.215041
0.206644
0.19793
0.188863
0.179387
0.169428
0.158897
0.147691
0.135694
0.122777
0.10881
0.0936619
0.07721
0.0593445
0.0399709
0.0190122
-0.00358965
-0.0278708
-0.0538386
-0.0814615
-0.110653
-0.141253
-0.173002
-0.205514
-0.23825
-0.270493
-0.301332
-0.329669
-0.354248
-0.373724
-0.386763
-0.392177
-0.389063
-0.376924
-0.355742
-0.325982
-0.288521
-0.244521
-0.195288
-0.142139
-0.0863114
-0.0289382
0.0310407
0.092186
0.150614
0.204799
0.253593
0.296281
0.332565
0.362501
0.386399
0.404727
0.418012
0.426785
0.431547
0.432762
0.43087
0.426297
0.419465
0.410788
0.400654
0.389407
0.377327
0.364613
0.351383
0.337678
0.32348
0.308724
0.293314
0.277128
0.260021
0.241823
0.222341
0.201362
0.178667
0.154037
0.127267
0.0981763
0.0666083
0.0324362
-0.00443777
-0.0440779
-0.0865054
-0.131682
-0.179483
-0.229667
-0.281834
-0.335377
-0.389436
-0.442852
-0.494136
-0.541466
-0.582737
-0.615662
-0.637956
-0.647559
-0.642893
-0.623087
-0.588109
-0.538778
-0.47663
-0.403686
-0.322187
-0.234355
-0.14224
-0.0476771
0.0434635
0.129018
0.210599
0.285998
0.35359
0.412404
0.462094
0.502828
0.535135
0.559738
0.577425
0.588953
0.595016
0.596243
0.593224
0.586537
0.576765
0.564488
0.550258
0.534567
0.517812
0.500269
0.482093
0.463326
0.443928
0.423798
0.402798
0.380758
0.35748
0.332729
0.306236
0.277701
0.24681
0.213254
0.176744
0.137026
0.0938851
0.0471449
-0.00333275
-0.0576457
-0.11584
-0.177888
-0.243652
-0.312842
-0.384952
-0.459202
-0.534454
-0.609149
-0.681243
-0.748193
-0.807005
-0.854375
-0.886943
-0.901642
-0.896096
-0.868979
-0.820244
-0.751135
-0.663981
-0.561809
-0.447918
-0.325503
-0.19742
-0.0661473
0.0562114
0.166755
0.27187
0.368585
0.454767
0.52922
0.591623
0.64235
0.682239
0.712347
0.733762
0.747487
0.754396
0.755261
0.750799
0.741723
0.728773
0.712703
0.694246
0.674056
0.652655
0.630397
0.607462
0.583881
0.559574
0.534394
0.508155
0.480643
0.451611
0.420765
0.387757
0.352195
0.313664
0.271754
0.226091
0.176346
0.122249
0.063578
0.000153315
-0.0681618
-0.141451
-0.219719
-0.302846
-0.390529
-0.482207
-0.576976
-0.673482
-0.769817
-0.86342
-0.951028
-1.0287
-1.09201
-1.13634
-1.15742
-1.15187
-1.11779
-1.05511
-0.965621
-0.852638
-0.720432
-0.573548
-0.41625
-0.252211
-0.0844611
0.0694891
0.205983
0.335321
0.453652
0.558304
0.647898
0.72224
0.78204
0.828568
0.86331
0.887712
0.90303
0.910303
0.910408
0.904153
0.892366
0.87594
0.855819
0.832941
0.808147
0.782099
0.755228
0.727726
0.699587
0.670672
0.64077
0.609644
0.577043
0.54268
0.506207
0.467196
0.425154
0.379552
0.329872
0.275644
0.216469
0.152023
0.0820461
0.00631966
-0.0753369
-0.16306
-0.256908
-0.356813
-0.462505
-0.573419
-0.688594
-0.806529
-0.925038
-1.0411
-1.15074
-1.24902
-1.33023
-1.38829
-1.41741
-1.41296
-1.37227
-1.29522
-1.18432
-1.04417
-0.880612
-0.69971
-0.506932
-0.306759
-0.102658
0.0835004
0.247282
0.401819
0.542234
0.665277
0.769455
0.854837
0.922641
0.974732
1.01314
1.03974
1.05603
1.06319
1.06214
1.05373
1.03888
1.01863
0.994138
0.966588
0.937041
0.906322
0.874937
0.843071
0.810648
0.777437
0.743145
0.70748
0.670164
0.630888
0.589258
0.544768
0.496809
0.444721
0.38786
0.325651
0.257629
0.183426
0.102752
0.0153574
-0.0789855
-0.180479
-0.289263
-0.405357
-0.528567
-0.658388
-0.793868
-0.933451
-1.07477
-1.2144
-1.34772
-1.46873
-1.57028
-1.64453
-1.6838
-1.68181
-1.63486
-1.54274
-1.40891
-1.2397
-1.04297
-0.82664
-0.597564
-0.361009
-0.120708
0.0984567
0.291247
0.472239
0.635345
0.776697
0.894786
0.990137
1.0647
1.12112
1.16214
1.1901
1.20676
1.21335
1.21079
1.19988
1.18159
1.15713
1.12789
1.09536
1.06087
1.02544
0.989648
0.953645
0.917238
0.880061
0.841711
0.801842
0.760166
0.716381
0.670067
0.620632
0.567334
0.509355
0.445902
0.37629
0.299984
0.216592
0.125808
0.0273655
-0.0790116
-0.193605
-0.316665
-0.448333
-0.588541
-0.7369
-0.892554
-1.05398
-1.21876
-1.38319
-1.54204
-1.68825
-1.81305
-1.90647
-1.95849
-1.96064
-1.9078
-1.79962
-1.6408
-1.43999
-1.20771
-0.954189
-0.687856
-0.414708
-0.138513
0.114583
0.338509
0.547491
0.734006
0.893535
1.02469
1.12872
1.20856
1.26792
1.3104
1.33888
1.35534
1.36101
1.35663
1.34291
1.32081
1.29168
1.25725
1.21937
1.1797
1.13951
1.09944
1.05956
1.01951
0.97872
0.936643
0.89288
0.847171
0.79926
0.748727
0.694892
0.636851
0.57359
0.504137
0.427679
0.343627
0.251581
0.15125
0.0423626
-0.0753978
-0.202408
-0.339057
-0.485648
-0.642285
-0.808751
-0.984366
-1.16777
-1.3566
-1.54707
-1.73344
-1.90763
-2.05907
-2.17528
-2.24324
-2.2516
-2.19328
-2.06766
-1.88113
-1.64545
-1.37464
-1.08183
-0.777219
-0.467419
-0.155914
0.132126
0.389749
0.628539
0.839266
1.01674
1.1599
1.27102
1.35441
1.41514
1.45783
1.48601
1.50181
1.50627
1.49988
1.48308
1.45677
1.4225
1.38236
1.33867
1.29355
1.24854
1.20436
1.16093
1.11762
1.07359
1.02811
0.980729
0.931266
0.879581
0.825288
0.767612
0.705444
0.637526
0.562663
0.4799
0.3886
0.288396
0.179044
0.0602979
-0.0681961
-0.206924
-0.356445
-0.517265
-0.6897
-0.873758
-1.06901
-1.27438
-1.48775
-1.70543
-1.92141
-2.12662
-2.30859
-2.45185
-2.53964
-2.5568
-2.4935
-2.34863
-2.13082
-1.85613
-1.54317
-1.20867
-0.864779
-0.518526
-0.172691
0.151357
0.445712
0.716424
0.952222
1.14724
1.30104
1.41735
1.50228
1.56258
1.6042
1.63129
1.64606
1.6492
1.64071
1.62064
1.58974
1.54977
1.50332
1.4533
1.40239
1.3525
1.30441
1.25782
1.2117
1.16485
1.11628
1.06551
1.01251
0.957359
0.899758
0.838819
0.77317
0.70124
0.621558
0.532998
0.434906
0.326989
0.209103
0.0810591
-0.0575196
-0.207247
-0.36889
-0.543199
-0.73074
-0.931779
-1.14621
-1.37337
-1.61158
-1.8575
-2.10514
-2.34464
-2.56151
-2.73684
-2.8492
-2.87841
-2.81077
-2.64427
-2.39064
-2.07174
-1.7123
-1.33345
-0.949391
-0.567256
-0.188574
0.172577
0.507223
0.812273
1.07403
1.28598
1.44868
1.56789
1.652
1.7099
1.74907
1.77439
1.78793
1.7898
1.7793
1.75585
1.71996
1.67367
1.62019
1.56321
1.50612
1.45131
1.3996
1.35032
1.30192
1.25271
1.20135
1.14735
1.09094
1.03257
0.972105
0.90851
0.840063
0.764796
0.680884
0.587005
0.482515
0.367272
0.241288
0.10448
-0.0435352
-0.203521
-0.376503
-0.563523
-0.765416
-0.982731
-1.21573
-1.46429
-1.72738
-2.00235
-2.28358
-2.56078
-2.81743
-3.03066
-3.17334
-3.21872
-3.1476
-2.95645
-2.66118
-2.29165
-1.88062
-1.45452
-1.02966
-0.6127
-0.203249
0.196125
0.575195
0.917321
1.20592
1.43387
1.60332
1.72271
1.80329
1.85656
1.89189
1.91487
1.92721
1.9281
1.91583
1.889
1.84771
1.79437
1.73305
1.66835
1.60462
1.54484
1.48986
1.4385
1.38846
1.33738
1.28353
1.22635
1.16654
1.10514
1.04226
0.976659
0.906146
0.828251
0.740704
0.641936
0.531374
0.409119
0.275418
0.130348
-0.0264563
-0.195934
-0.379437
-0.578354
-0.793805
-1.0266
-1.27741
-1.54673
-1.83444
-2.13892
-2.45547
-2.77381
-3.07558
-3.33346
-3.5134
-3.58017
-3.50681
-3.28719
-2.94285
-2.51477
-2.04623
-1.56993
-1.10398
-0.653848
-0.216374
0.22238
0.650638
1.03291
1.34919
1.59184
1.76535
1.88173
1.95568
2.00188
2.03196
2.05223
2.06364
2.06406
2.05051
2.02041
1.97328
1.91206
1.84192
1.76863
1.6977
1.63292
1.57517
1.52246
1.47151
1.41914
1.36306
1.30264
1.2393
1.17496
1.11012
1.04322
0.971431
0.891666
0.801087
0.697804
0.581408
0.452378
0.311275
0.158407
-0.00653588
-0.18471
-0.377881
-0.587859
-0.816044
-1.06346
-1.33114
-1.62037
-1.93209
-2.26611
-2.61933
-2.98223
-3.33486
-3.64505
-3.8706
-3.96545
-3.89168
-3.63873
-3.23588
-2.73959
-2.2068
-1.67737
-1.17059
-0.689628
-0.227595
0.251769
0.734668
1.16052
1.50524
1.76078
1.93508
2.04477
2.10859
2.14502
2.16845
2.18586
2.19695
2.19769
2.18359
2.15048
2.09701
2.02691
1.94685
1.86392
1.78511
1.71534
1.65543
1.6023
1.55129
1.4983
1.44024
1.37635
1.30913
1.24187
1.17556
1.10814
1.03593
0.95511
0.86212
0.754625
0.632526
0.496872
0.34861
0.188365
0.0159389
-0.170095
-0.372043
-0.592237
-0.832337
-1.09346
-1.37696
-1.68496
-2.01969
-2.38277
-2.77353
-3.18418
-3.59377
-3.96492
-4.24597
-4.3775
-4.30606
-4.01367
-3.54027
-2.96401
-2.35949
-1.77426
-1.22761
-0.71896
-0.236564
0.284773
0.828506
1.30174
1.67555
1.94155
2.11266
2.21153
2.26129
2.28497
2.3004
2.31515
2.32687
2.32899
2.31534
2.27969
2.21926
2.1391
2.04786
1.95406
1.86657
1.79183
1.73059
1.67815
1.62805
1.57519
1.51542
1.44764
1.37593
1.30563
1.2384
1.17137
1.09964
1.01866
0.923918
0.812419
0.684619
0.542405
0.387151
0.219898
0.0406524
-0.152352
-0.362143
-0.591714
-0.842944
-1.11685
-1.41498
-1.74041
-2.09677
-2.48778
-2.91629
-3.37756
-3.85044
-4.2921
-4.64029
-4.81951
-4.75458
-4.41501
-3.85566
-3.1853
-2.50094
-1.85778
-1.27315
-0.740814
-0.242959
0.321941
0.933479
1.45827
1.86173
2.13492
2.2981
2.38161
2.41296
2.42057
2.42673
2.43944
2.45319
2.45796
2.44609
2.4086
2.34043
2.24877
2.14502
2.03891
1.9417
1.86206
1.80056
1.75017
1.70206
1.65022
1.58906
1.51665
1.43951
1.36593
1.29845
1.23284
1.16257
1.08242
0.986643
0.871214
0.737555
0.588772
0.426606
0.25265
0.067264
-0.131751
-0.348394
-0.586528
-0.848182
-1.13397
-1.44544
-1.78675
-2.16298
-2.58009
-3.04571
-3.55997
-4.10265
-4.62519
-5.0539
-5.29501
-5.24287
-4.84633
-4.18128
-3.39995
-2.6273
-1.92501
-1.3054
-0.754267
-0.246507
0.363912
1.051
1.63195
2.06554
2.34158
2.4912
2.55456
2.5627
2.55053
2.54624
2.55808
2.57576
2.58458
2.57619
2.53795
2.46095
2.35604
2.2384
2.11828
2.01008
1.92564
1.86528
1.8186
1.77358
1.72381
1.6617
1.58359
1.4996
1.42241
1.3555
1.29256
1.22471
1.14647
1.05051
0.931048
0.791172
0.635761
0.46667
0.286233
0.0954103
-0.108563
-0.330993
-0.576915
-0.848417
-1.14527
-1.46865
-1.82415
-2.2182
-2.65877
-3.15987
-3.72879
-4.34781
-4.96228
-5.48652
-5.80769
-5.7779
-5.31189
-4.51565
-3.60349
-2.73422
-1.97295
-1.3227
-0.758567
-0.247
0.41145
1.18257
1.82468
2.28894
2.56205
2.69145
2.72992
2.70956
2.67339
2.65761
2.67048
2.69458
2.70877
2.706
2.66864
2.58125
2.46093
2.32814
2.19203
2.07118
1.98208
1.9247
1.88374
1.84283
1.79641
1.73407
1.64867
1.55584
1.47455
1.40935
1.35056
1.28602
1.21094
1.11585
0.991959
0.845258
0.683173
0.507039
0.32023
0.124707
-0.0830485
-0.310103
-0.563096
-0.844055
-1.15127
-1.48505
-1.85294
-2.26261
-2.72306
-3.25676
-3.88117
-4.58307
-5.30093
-5.93695
-6.36142
-6.36843
-5.8168
-4.85636
-3.79038
-2.81694
-1.99873
-1.32367
-0.753188
-0.244313
0.465516
1.32971
2.03837
2.53418
2.79664
2.89798
2.90734
2.85262
2.78749
2.75938
2.77611
2.80985
2.83034
2.83585
2.8019
2.70173
2.56329
2.41452
2.26003
2.12436
2.03081
1.97881
1.94602
1.90996
1.86848
1.80708
1.71213
1.60772
1.52176
1.45978
1.40698
1.34638
1.2759
1.18309
1.05398
0.899526
0.730837
0.54741
0.354184
0.154747
-0.0554552
-0.285833
-0.545255
-0.835539
-1.15262
-1.49509
-1.87357
-2.29667
-2.77242
-3.33442
-4.01407
-4.80541
-5.63831
-6.40267
-6.95997
-7.0255
-6.36723
-5.19963
-3.95381
-2.87037
-1.99972
-1.30731
-0.737868
-0.238414
0.527373
1.49392
2.2749
2.804
3.04533
3.1094
3.08669
2.991
2.89101
2.84992
2.87454
2.92208
2.94886
2.966
2.93934
2.82273
2.66274
2.49797
2.32222
2.16884
2.07113
2.02765
2.00608
1.97497
1.94042
1.88197
1.77424
1.65454
1.56328
1.50663
1.46211
1.40561
1.3414
1.25288
1.11713
0.953578
0.778646
0.587502
0.387596
0.185103
-0.0260152
-0.258231
-0.523526
-0.823342
-1.15007
-1.49924
-1.88655
-2.32129
-2.80659
-3.39089
-4.12427
-5.01174
-5.97131
-6.87932
-7.6067
-7.76329
-6.97059
-5.53971
-4.08553
-2.8893
-1.97372
-1.27307
-0.712646
-0.229369
0.598773
1.6766
2.5359
3.10182
3.30763
3.32358
3.26828
3.12393
2.98185
2.92741
2.9655
3.03228
3.06352
3.09651
3.0832
2.94445
2.75849
2.57931
2.37859
2.20368
2.10218
2.07132
2.06484
2.03762
2.01251
1.96041
1.8353
1.69539
1.5982
1.54975
1.51648
1.46331
1.4074
1.32615
1.18136
1.00684
0.826607
0.627053
0.419908
0.215325
0.00505689
-0.227261
-0.497974
-0.807957
-1.14452
-1.49794
-1.8924
-2.33784
-2.82558
-3.42428
-4.20834
-5.19909
-6.29686
-7.36011
-8.30407
-8.60007
-7.63581
-5.86815
-4.17583
-2.86858
-1.91915
-1.22094
-0.677864
-0.217341
0.682242
1.87891
2.82257
3.43217
3.58247
3.5374
3.45318
3.25076
3.05764
2.98982
3.04886
3.14215
3.17295
3.22716
3.23664
3.0668
2.84921
2.6598
2.42923
2.22772
2.12295
2.11
2.12364
2.09727
2.08486
2.04465
1.89556
1.72905
1.62543
1.58906
1.571
1.51883
1.47372
1.40426
1.24653
1.0585
0.874912
0.665834
0.450486
0.244942
0.0375597
-0.192788
-0.468576
-0.789881
-1.13709
-1.49152
-1.89154
-2.34831
-2.8297
-3.43277
-4.26261
-5.3647
-6.61255
-7.83496
-9.05287
-9.55961
-8.37352
-6.17269
-4.2135
-2.80353
-1.8352
-1.15148
-0.634166
-0.202579
0.781521
2.10161
3.13531
3.80119
3.86786
3.74641
3.64365
3.37097
3.11562
3.03484
3.1246
3.25444
3.27489
3.35728
3.4041
3.18933
2.9327
2.74154
2.4743
2.23953
2.13218
2.14392
2.18451
2.15269
2.15726
2.13779
1.95521
1.75396
1.64369
1.62455
1.62708
1.57111
1.53995
1.48915
1.31236
1.1074
0.92405
0.703644
0.478595
0.273474
0.0712973
-0.154568
-0.435203
-0.769599
-1.12915
-1.4801
-1.88417
-2.35549
-2.81958
-3.41467
-4.28303
-5.50622
-6.91737
-8.28955
-9.85115
-10.6729
-9.19628
-6.43598
-4.18603
-2.69024
-1.72203
-1.06582
-0.582463
-0.185412
0.902201
2.34485
3.47325
4.21744
4.16065
3.94431
3.84376
3.4841
3.15261
3.05985
3.1928
3.37339
3.36581
3.48547
3.5919
3.31092
3.00562
2.82774
2.51396
2.23735
2.12843
2.17331
2.25036
2.20184
2.22904
2.24411
2.01421
1.76818
1.65151
1.65618
1.6869
1.61848
1.60537
1.58366
1.37828
1.15187
0.974958
0.74029
0.503371
0.300445
0.106064
-0.112228
-0.397608
-0.747543
-1.12247
-1.46356
-1.87
-2.36311
-2.79605
-3.36847
-4.26504
-5.62168
-7.21298
-8.70423
-10.6927
-11.9805
-10.1188
-6.63378
-4.08002
-2.52613
-1.58083
-0.96563
-0.52389
-0.166223
1.05263
2.60782
3.83355
4.69294
4.45605
4.12237
4.06016
3.58956
3.1649
3.06195
3.2534
3.50534
3.44046
3.60933
3.80894
3.42955
3.06303
2.92332
2.5483
2.21905
2.10996
2.19831
2.32548
2.24152
2.29886
2.36946
2.07219
1.76926
1.64726
1.68392
1.75368
1.65842
1.66876
1.69179
1.44335
1.18961
1.02922
0.775551
0.523779
0.325409
0.141623
-0.06525
-0.355417
-0.724035
-1.11935
-1.44143
-1.84807
-2.37623
-2.76006
-3.29295
-4.20335
-5.7094
-7.50534
-9.0527
-11.5653
-13.5355
-11.1579
-6.7329
-3.88198
-2.31036
-1.41388
-0.853048
-0.459745
-0.145436
1.24516
2.88842
4.21047
5.24459
4.74709
4.26864
4.30319
3.68635
3.1482
3.03794
3.306
3.65952
3.49117
3.72506
4.06767
3.54186
3.09788
3.03551
2.57708
2.18209
2.07485
2.21877
2.41598
2.26697
2.36445
2.52185
2.12814
1.7543
1.62917
1.70752
1.83214
1.68728
1.72826
1.81919
1.50605
1.21745
1.08936
0.809102
0.538577
0.34799
0.177669
-0.0129598
-0.308137
-0.699193
-1.12284
-1.41279
-1.81636
-2.40152
-2.71247
-3.18735
-4.09169
-5.76766
-7.80689
-9.30059
-12.4476
-15.4069
-12.3325
-6.68852
-3.57951
-2.04434
-1.22454
-0.730573
-0.391424
-0.123494
1.4978
3.18272
4.59417
5.89594
5.02385
4.36704
4.58827
3.77254
3.09764
2.98439
3.34939
3.84916
3.50715
3.82694
4.38531
3.64263
3.10035
3.17483
2.59949
2.12348
2.02096
2.23404
2.53052
2.27137
2.42233
2.71214
2.18004
1.7199
1.59542
1.72635
1.92896
1.69986
1.78111
1.97369
1.56403
1.23109
1.15918
0.840402
0.546267
0.367947
0.213781
0.0454991
-0.25517
-0.672801
-1.13699
-1.37621
-1.77135
-2.44789
-2.6537
-3.05165
-3.92254
-5.79399
-8.13937
-9.40397
-13.3065
-17.6842
-13.6636
-6.44112
-3.16303
-1.73211
-1.01714
-0.600929
-0.320347
-0.100834
1.83632
3.48436
4.96919
6.67954
5.27258
4.39623
4.93753
3.84456
3.00777
2.89782
3.38092
4.09274
3.4735
3.90672
4.78524
3.72419
3.05712
3.3561
2.61356
2.03983
1.9461
2.24247
2.68113
2.24527
2.46742
2.95487
2.22435
1.66218
1.54426
1.73905
2.05346
1.68895
1.82343
2.16597
1.6138
1.22484
1.2442
0.868514
0.54506
0.385246
0.249358
0.111191
-0.195869
-0.64412
-1.16715
-1.3297
-1.7075
-2.52703
-2.58329
-2.88693
-3.68681
-5.78413
-8.5372
-9.30781
-14.0927
-20.4828
-15.1732
-5.91292
-2.62821
-1.38062
-0.796698
-0.466917
-0.247891
-0.077873
2.29694
3.78385
5.31255
7.63962
5.47457
4.32831
5.38201
3.89611
2.87268
2.77494
3.39561
4.41565
3.37017
3.95291
5.29881
3.77555
2.95047
3.59984
2.61561
1.92738
1.84814
2.24091
2.88427
2.17583
2.4926
3.26933
2.25535
1.57695
1.4742
1.74312
2.21841
1.64478
1.84983
2.41032
1.65037
1.19126
1.3522
0.89187
0.532842
0.400172
0.283534
0.185426
-0.129611
-0.61164
-1.22037
-1.27067
-1.61659
-2.65431
-2.49924
-2.69586
-3.37367
-5.73037
-9.05167
-8.94448
-14.7361
-23.9501
-16.8838
-5.00384
-1.97905
-0.999631
-0.568702
-0.331267
-0.175327
-0.0549876
2.92951
4.06766
5.59154
8.83543
5.60473
4.12734
5.96405
3.91682
2.68628
2.61303
3.38497
4.85214
3.1707
3.9499
5.96729
3.7815
2.75732
3.93393
2.59928
1.7822
1.72528
2.22393
3.1621
2.04604
2.48823
3.68074
2.26425
1.45985
1.38423
1.73424
2.441
1.55442
1.85309
2.72561
1.66675
1.12082
1.49387
0.907947
0.507163
0.413454
0.31507
0.269822
-0.0559206
-0.572747
-1.30579
-1.19594
-1.48688
-2.84977
-2.39712
-2.48339
-2.97044
-5.61933
-9.75558
-8.23236
-15.1397
-28.2721
-18.8173
-3.58706
-1.23184
-0.601402
-0.338699
-0.196499
-0.103778
-0.0325037
3.80131
4.31726
5.76109
10.345
5.63008
3.74782
6.7402
3.89045
2.4426
2.41042
3.33549
5.44754
2.84085
3.87703
6.84415
3.72152
2.44821
4.39536
2.5544
1.6004
1.57639
2.18285
3.54391
1.83385
2.44165
4.22165
2.23816
1.30668
1.27413
1.7056
2.74392
1.40101
1.82379
3.13629
1.65342
1.00152
1.68356
0.912859
0.465251
0.426423
0.342228
0.366377
0.0253592
-0.523327
-1.43513
-1.10181
-1.30224
-3.13932
-2.269
-2.25756
-2.46264
-5.42907
-10.7486
-7.07481
-15.1737
-33.6821
-20.9927
-1.50439
-0.419792
-0.199802
-0.111931
-0.0648137
-0.0341855
-0.0106924
)
;

boundaryField
{
    left
    {
        type            calculated;
        value           uniform 0;
    }
    right
    {
        type            calculated;
        value           uniform 0;
    }
    interface
    {
        type            calculated;
        value           nonuniform List<scalar> 
64
(
3.80131
4.31726
5.76109
10.345
5.63008
3.74782
6.7402
3.89045
2.4426
2.41042
3.33549
5.44754
2.84085
3.87703
6.84415
3.72152
2.44821
4.39536
2.5544
1.6004
1.57639
2.18285
3.54391
1.83385
2.44165
4.22165
2.23816
1.30668
1.27413
1.7056
2.74392
1.40101
1.82379
3.13629
1.65342
1.00152
1.68356
0.912859
0.465251
0.426423
0.342228
0.366377
0.0253592
-0.523327
-1.43513
-1.10181
-1.30224
-3.13932
-2.269
-2.25756
-2.46264
-5.42907
-10.7486
-7.07481
-15.1737
-33.6821
-20.9927
-1.50439
-0.419792
-0.199802
-0.111931
-0.0648137
-0.0341855
-0.0106924
)
;
    }
    bottom
    {
        type            calculated;
        value           nonuniform List<scalar> 
64
(
0.00628417
0.0186726
0.0305368
0.041578
0.0515674
0.0603561
0.0678734
0.0741169
0.0791363
0.0830144
0.0858508
0.08775
0.0888137
0.089139
0.088818
0.08794
0.0865917
0.0848564
0.082812
0.0805269
0.078057
0.0754431
0.0727103
0.0698694
0.0669185
0.0638463
0.060634
0.0572568
0.0536849
0.0498833
0.045813
0.0414315
0.0366948
0.0315592
0.0259838
0.0199316
0.013371
0.00627599
-0.00137264
-0.00958649
-0.0183671
-0.0277022
-0.0375609
-0.0478866
-0.0585888
-0.0695348
-0.08054
-0.0913605
-0.101689
-0.111157
-0.119347
-0.125812
-0.130114
-0.131863
-0.130764
-0.126656
-0.119533
-0.109547
-0.0969813
-0.082218
-0.0656866
-0.0478244
-0.0290477
-0.00974037
)
;
    }
    defaultFaces
    {
        type            empty;
    }
}


// ************************************************************************* //
