/*--------------------------------*- C++ -*----------------------------------*\
| =========                 |                                                 |
| \\      /  F ield         | OpenFOAM: The Open Source CFD Toolbox           |
|  \\    /   O peration     | Version:  5.x                                   |
|   \\  /    A nd           | Web:      www.OpenFOAM.org                      |
|    \\/     M anipulation  |                                                 |
\*---------------------------------------------------------------------------*/
FoamFile
{
    version     2.0;
    format      ascii;
    class       volScalarField;
    location    "1.7";
    object      T;
}
// * * * * * * * * * * * * * * * * * * * * * * * * * * * * * * * * * * * * * //

dimensions      [0 0 0 1 0 0 0];

internalField   nonuniform List<scalar> 
2048
(
9.81014
9.81034
9.81073
9.81129
9.81203
9.81291
9.81391
9.81503
9.81623
9.8175
9.81882
9.82018
9.82157
9.82296
9.82435
9.82573
9.8271
9.82844
9.82975
9.83103
9.83227
9.83347
9.83463
9.83574
9.83681
9.83783
9.8388
9.83973
9.84059
9.8414
9.84215
9.84283
9.84345
9.84398
9.84443
9.84479
9.84506
9.84521
9.84525
9.84517
9.84495
9.84459
9.84409
9.84342
9.84259
9.84159
9.84042
9.83907
9.83756
9.8359
9.83409
9.83217
9.83016
9.8281
9.82604
9.82401
9.82208
9.82028
9.81865
9.81725
9.81609
9.81519
9.81459
9.81429
9.43857
9.43916
9.44031
9.442
9.44418
9.4468
9.44979
9.4531
9.45667
9.46044
9.46436
9.46839
9.47249
9.47662
9.48074
9.48484
9.48888
9.49285
9.49673
9.5005
9.50417
9.50772
9.51114
9.51444
9.5176
9.52062
9.5235
9.52623
9.5288
9.5312
9.53341
9.53544
9.53725
9.53884
9.54018
9.54125
9.54203
9.5425
9.54263
9.54239
9.54175
9.5407
9.53921
9.53725
9.5348
9.53184
9.52837
9.52439
9.51992
9.51498
9.50962
9.50391
9.49794
9.49182
9.48568
9.47966
9.4739
9.46855
9.46372
9.45953
9.45608
9.45343
9.45163
9.45073
9.08281
9.08378
9.08569
9.08849
9.09209
9.09641
9.10135
9.1068
9.11268
9.11888
9.12532
9.13194
9.13866
9.14543
9.15219
9.15889
9.16551
9.172
9.17834
9.18452
9.19051
9.19631
9.20191
9.20729
9.21246
9.2174
9.22211
9.22657
9.23077
9.23469
9.23832
9.24164
9.24462
9.24722
9.24943
9.2512
9.2525
9.25328
9.25351
9.25314
9.25214
9.25044
9.24802
9.24483
9.24084
9.23603
9.23036
9.22386
9.21652
9.20841
9.1996
9.1902
9.18036
9.17027
9.16013
9.15018
9.14066
9.1318
9.12382
9.1169
9.1112
9.10684
9.10388
9.10239
8.74193
8.74329
8.74597
8.74987
8.7549
8.76092
8.76779
8.77536
8.7835
8.79209
8.801
8.81013
8.8194
8.82873
8.83803
8.84726
8.85636
8.86529
8.874
8.88248
8.89071
8.89866
8.90634
8.91373
8.92082
8.9276
8.93406
8.94019
8.94596
8.95136
8.95636
8.96093
8.96504
8.96864
8.9717
8.97417
8.97599
8.9771
8.97746
8.977
8.97566
8.97338
8.9701
8.96576
8.96032
8.95373
8.94597
8.93703
8.92694
8.91574
8.90355
8.89052
8.87686
8.86281
8.84868
8.8348
8.82152
8.80917
8.79805
8.78842
8.78049
8.77442
8.77032
8.76825
8.41511
8.41686
8.42032
8.42536
8.43184
8.43957
8.44838
8.45806
8.46845
8.47938
8.49071
8.50231
8.51407
8.52588
8.53767
8.54935
8.56085
8.57212
8.58312
8.59382
8.60419
8.61421
8.62389
8.6332
8.64213
8.65068
8.65883
8.66656
8.67385
8.68067
8.687
8.69279
8.69801
8.70259
8.7065
8.70966
8.71201
8.71348
8.714
8.71348
8.71187
8.70906
8.705
8.6996
8.6928
8.68453
8.67477
8.66348
8.65071
8.6365
8.62099
8.60436
8.58686
8.56885
8.55069
8.53285
8.51576
8.49988
8.48559
8.47323
8.46307
8.45531
8.45007
8.44743
8.10156
8.10373
8.108
8.11421
8.12217
8.13166
8.14242
8.15423
8.16686
8.18012
8.19384
8.20786
8.22206
8.23631
8.25051
8.26456
8.27839
8.29193
8.30514
8.31796
8.33039
8.3424
8.35399
8.36515
8.37585
8.3861
8.39588
8.40516
8.41391
8.42211
8.42973
8.43671
8.44302
8.44858
8.45332
8.45719
8.46009
8.46194
8.46265
8.46214
8.4603
8.45704
8.45227
8.44589
8.43782
8.42797
8.4163
8.40277
8.38739
8.37023
8.35143
8.3312
8.30986
8.28782
8.26557
8.24366
8.22268
8.20319
8.18567
8.17056
8.15815
8.14869
8.14231
8.1391
7.80057
7.80318
7.8083
7.81574
7.82525
7.83653
7.84929
7.86324
7.87812
7.8937
7.90979
7.9262
7.94279
7.95942
7.97598
7.99235
8.00844
8.02418
8.03951
8.05439
8.06879
8.08271
8.09613
8.10906
8.12147
8.13335
8.14469
8.15546
8.16563
8.17518
8.18405
8.1922
8.19957
8.2061
8.21169
8.21627
8.21974
8.22201
8.22296
8.22249
8.22049
8.21685
8.21145
8.20418
8.19493
8.1836
8.17012
8.15443
8.13653
8.11648
8.09442
8.07059
8.04535
8.01919
7.99273
7.96664
7.94164
7.91843
7.89761
7.87969
7.86502
7.85385
7.84634
7.84257
7.51149
7.51457
7.52059
7.52933
7.54045
7.5536
7.56841
7.58454
7.60168
7.61957
7.638
7.65677
7.67571
7.69468
7.71355
7.73218
7.75047
7.76834
7.78572
7.80257
7.81887
7.83461
7.8498
7.86442
7.87846
7.89192
7.90476
7.91697
7.92852
7.93936
7.94946
7.95876
7.96719
7.97467
7.98112
7.98643
7.9905
7.9932
7.99443
7.99406
7.99196
7.98801
7.98206
7.974
7.96367
7.95097
7.93578
7.91803
7.89769
7.87481
7.8495
7.82205
7.79285
7.76247
7.73164
7.7012
7.67202
7.64496
7.62075
7.59996
7.58301
7.57014
7.56151
7.55719
7.23369
7.23727
7.24427
7.25438
7.26721
7.2823
7.29923
7.31758
7.337
7.3572
7.37795
7.39904
7.4203
7.44157
7.4627
7.48354
7.50397
7.5239
7.54326
7.56201
7.58013
7.59762
7.61448
7.63073
7.64634
7.66131
7.67561
7.68922
7.70209
7.71419
7.72548
7.73591
7.74539
7.75383
7.76114
7.7672
7.77188
7.77506
7.77661
7.77638
7.77425
7.77006
7.76365
7.75488
7.74358
7.72961
7.71282
7.69311
7.67043
7.64477
7.61626
7.58516
7.55191
7.51718
7.48181
7.44682
7.41327
7.3822
7.35448
7.33078
7.31153
7.29697
7.28724
7.28237
6.96659
6.97072
6.97877
6.99036
7.005
7.02214
7.04125
7.06186
7.08357
7.10608
7.12913
7.15252
7.17606
7.19959
7.22293
7.24593
7.26845
7.29039
7.31165
7.33222
7.35208
7.37124
7.38971
7.40752
7.42464
7.44107
7.45677
7.47171
7.48587
7.4992
7.51166
7.52319
7.5337
7.54311
7.55129
7.55811
7.56343
7.56712
7.56903
7.569
7.5669
7.56254
7.55576
7.54637
7.5342
7.51907
7.5008
7.47924
7.4543
7.42595
7.39426
7.35949
7.32212
7.28287
7.24275
7.20297
7.16483
7.12958
7.09824
7.07157
7.05002
7.0338
7.023
7.0176
6.70965
6.71438
6.72358
6.73677
6.75333
6.77262
6.79399
6.81691
6.84094
6.86574
6.89107
6.91672
6.94251
6.96825
6.99378
7.0189
7.04346
7.06733
7.09044
7.11275
7.13426
7.15501
7.17502
7.19432
7.21289
7.23072
7.24777
7.26402
7.27941
7.29393
7.30753
7.32015
7.33169
7.34206
7.35112
7.35872
7.36471
7.36894
7.37124
7.37147
7.36945
7.36499
7.35792
7.34802
7.33508
7.3189
7.29926
7.27598
7.2489
7.21793
7.18312
7.14466
7.10307
7.05914
7.01403
6.96919
6.92619
6.88655
6.85149
6.82181
6.79798
6.78014
6.76831
6.76242
6.46234
6.46773
6.47819
6.49312
6.51175
6.5333
6.55703
6.5823
6.60865
6.63573
6.66331
6.69118
6.71918
6.74712
6.77479
6.80199
6.82853
6.85429
6.87917
6.90314
6.92623
6.94849
6.96997
6.99069
7.01065
7.02984
7.0482
7.06569
7.08229
7.09796
7.11267
7.12635
7.13892
7.15025
7.1602
7.16859
7.17527
7.18007
7.18281
7.18334
7.18145
7.17698
7.16969
7.15937
7.14577
7.12866
7.10778
7.0829
7.0538
7.02032
6.98244
6.9403
6.89439
6.84559
6.79522
6.74501
6.69686
6.65262
6.6137
6.581
6.55493
6.53555
6.52275
6.5164
6.22418
6.23031
6.24216
6.25898
6.27984
6.30379
6.32995
6.35762
6.3863
6.41564
6.44542
6.47548
6.50565
6.53573
6.56551
6.59476
6.62326
6.65084
6.67741
6.70297
6.72756
6.75125
6.77412
6.7962
6.81751
6.83799
6.85762
6.87632
6.89407
6.91085
6.92664
6.94137
6.95496
6.96726
6.9781
6.98732
6.99471
7.0001
7.00332
7.00418
7.00249
6.99805
6.99063
6.97998
6.96583
6.9479
6.92591
6.89956
6.86858
6.83272
6.79185
6.74604
6.69574
6.64187
6.58594
6.52999
6.47635
6.42726
6.38439
6.34868
6.32045
6.29962
6.28595
6.27918
5.99471
6.00166
6.01504
6.03393
6.0572
6.08368
6.11237
6.14248
6.17348
6.20504
6.23698
6.26917
6.30147
6.33368
6.36555
6.39681
6.42721
6.45657
6.48477
6.51184
6.53783
6.56286
6.58705
6.61044
6.63304
6.65479
6.67563
6.6955
6.71436
6.73221
6.74905
6.76482
6.77941
6.79268
6.80444
6.81449
6.82261
6.82862
6.83234
6.83357
6.83213
6.8278
6.82033
6.80943
6.79482
6.7762
6.75323
6.72556
6.69285
6.65475
6.61099
6.56155
6.50678
6.44764
6.38582
6.32372
6.26421
6.21001
6.16309
6.1244
6.09412
6.07198
6.05754
6.05043
5.77347
5.78134
5.79643
5.8176
5.84347
5.87263
5.90394
5.93653
5.96983
6.00356
6.03759
6.07187
6.10625
6.14054
6.17449
6.20775
6.24002
6.27109
6.30086
6.32934
6.35664
6.38294
6.40837
6.43301
6.45685
6.47983
6.50186
6.52284
6.54277
6.56165
6.57951
6.59628
6.61188
6.62613
6.63882
6.64971
6.65859
6.66524
6.66948
6.67113
6.66998
6.66581
6.65835
6.6473
6.63234
6.61313
6.58931
6.56048
6.5262
6.48602
6.43952
6.38651
6.32722
6.26261
6.19453
6.12581
6.05997
6.00038
5.94933
5.90776
5.8756
5.85231
5.83724
5.82984
5.56005
5.56895
5.58594
5.60962
5.6383
5.6703
5.70432
5.73941
5.77498
5.81081
5.84687
5.88316
5.91959
5.95594
5.99194
6.02718
6.06129
6.09403
6.12529
6.15509
6.18362
6.21109
6.2377
6.26353
6.28858
6.31276
6.33593
6.35799
6.37893
6.3988
6.41763
6.4354
6.45199
6.46723
6.48087
6.49262
6.50226
6.50957
6.51436
6.51644
6.51563
6.51168
6.50431
6.49319
6.47797
6.45829
6.43375
6.4039
6.36823
6.32616
6.2771
6.22061
6.15677
6.08648
6.01176
5.93587
5.86318
5.7979
5.74269
5.69836
5.66454
5.64031
5.62475
5.61716
5.35403
5.36409
5.3832
5.40967
5.44138
5.47638
5.5132
5.55081
5.5886
5.62645
5.66444
5.70268
5.7411
5.77949
5.81754
5.85476
5.89068
5.92504
5.95771
5.98875
6.01839
6.04694
6.07466
6.10163
6.12785
6.1532
6.17751
6.2006
6.22249
6.24328
6.26307
6.28181
6.2994
6.31564
6.33023
6.34286
6.35328
6.36126
6.36661
6.36916
6.36871
6.36504
6.35782
6.34671
6.33132
6.31127
6.28615
6.25544
6.21856
6.17481
6.12338
6.06356
5.99517
5.91902
5.83724
5.75355
5.6734
5.60211
5.54273
5.49586
5.46063
5.4357
5.41983
5.41213
5.15504
5.16641
5.18788
5.21741
5.25243
5.29059
5.33028
5.37042
5.41037
5.45012
5.48994
5.53006
5.57043
5.61083
5.65094
5.69014
5.72784
5.76377
5.79779
5.82996
5.86061
5.89014
5.9189
5.94697
5.97432
6.00084
6.02625
6.05033
6.07311
6.09478
6.11547
6.13517
6.15374
6.171
6.18657
6.20009
6.21129
6.21996
6.22588
6.2289
6.22886
6.22551
6.21852
6.20748
6.192
6.17169
6.14611
6.11469
6.07679
6.0316
5.97804
5.91508
5.84217
5.76001
5.67072
5.57851
5.49016
5.41252
5.34905
5.29991
5.2636
5.23825
5.22227
5.21455
4.96269
4.97555
4.99965
5.03257
5.07118
5.11264
5.15529
5.19795
5.23996
5.28149
5.32301
5.36494
5.40722
5.44959
5.49178
5.53299
5.57244
5.60989
5.6452
5.67839
5.70992
5.74033
5.77007
5.7992
5.82766
5.85534
5.88185
5.90686
5.93047
5.95294
5.97451
5.99514
6.0147
6.03298
6.04957
6.06398
6.07598
6.08533
6.09183
6.09534
6.09572
6.09274
6.08603
6.07515
6.05966
6.03917
6.01325
5.98127
5.94254
5.89617
5.84077
5.77488
5.69755
5.60923
5.51202
5.41044
5.313
5.22866
5.16124
5.11021
5.07321
5.04775
5.03185
5.02421
4.77663
4.79118
4.81819
4.85488
4.89738
4.94228
4.98794
5.03313
5.07709
5.12024
5.16332
5.20699
5.25112
5.29544
5.33975
5.383
5.42417
5.4631
5.49963
5.53373
5.56601
5.59719
5.62785
5.658
5.68754
5.71639
5.74401
5.7699
5.79425
5.81745
5.83987
5.86142
5.88194
5.90129
5.91891
5.93423
5.94702
5.95707
5.96413
5.96814
5.96897
5.9664
5.96004
5.94936
5.93392
5.91335
5.8872
5.8548
5.81543
5.76816
5.71123
5.64272
5.56106
5.46652
5.36098
5.24902
5.14143
5.05005
4.97894
4.92649
4.88924
4.864
4.84839
4.84094
4.59651
4.61299
4.64319
4.68408
4.73082
4.77925
4.82799
4.87571
4.92146
4.96605
5.01052
5.05588
5.10183
5.14803
5.19452
5.23989
5.28273
5.3231
5.36079
5.39567
5.42857
5.46039
5.49193
5.52308
5.55365
5.58372
5.61246
5.63916
5.66417
5.68801
5.71125
5.7337
5.75517
5.77562
5.79433
5.81053
5.82413
5.83487
5.84248
5.84698
5.84827
5.84617
5.8402
5.82981
5.81447
5.79387
5.76762
5.73491
5.69508
5.64721
5.58911
5.51832
5.4325
5.33172
5.21752
5.09401
4.97491
4.87618
4.8018
4.74851
4.71151
4.68683
4.67172
4.66456
4.42198
4.4407
4.47438
4.51994
4.57131
4.62331
4.67517
4.72544
4.77279
4.81862
4.86428
4.91129
4.95903
5.00703
5.0558
5.10338
5.14781
5.18958
5.22842
5.26391
5.29728
5.32961
5.36201
5.39413
5.42569
5.45702
5.48695
5.51438
5.53993
5.56432
5.58836
5.61171
5.63409
5.65569
5.67553
5.69261
5.707
5.71844
5.72659
5.73156
5.73332
5.73172
5.72622
5.71616
5.70097
5.68039
5.65416
5.62126
5.5811
5.53296
5.47409
5.40145
5.31162
5.20467
5.08162
4.94517
4.81286
4.70655
4.62949
4.57605
4.53984
4.51608
4.50169
4.4949
4.25272
4.27404
4.31144
4.36225
4.4187
4.4742
4.52924
4.58211
4.63083
4.67767
4.72426
4.77294
4.82245
4.8721
4.9233
4.97324
5.01914
5.06228
5.10226
5.13819
5.17187
5.20453
5.23781
5.2709
5.30335
5.33605
5.36724
5.39529
5.42128
5.44608
5.47094
5.49518
5.5184
5.54123
5.56228
5.58018
5.59536
5.60752
5.61617
5.6216
5.62382
5.62278
5.6178
5.60813
5.59311
5.5726
5.5465
5.51349
5.47312
5.42506
5.36584
5.29185
5.1982
5.08521
4.95336
4.80231
4.65462
4.54064
4.46172
4.40896
4.37411
4.35161
4.33813
4.3318
4.0884
4.11282
4.15408
4.2108
4.27286
4.33167
4.38994
4.44554
4.49528
4.5429
4.59012
4.64054
4.69182
4.74288
4.79674
4.84926
4.8964
4.94091
4.98208
5.01823
5.05206
5.08486
5.11906
5.15313
5.18633
5.22054
5.25314
5.28164
5.30795
5.33301
5.35872
5.38385
5.40781
5.43198
5.45435
5.47299
5.48896
5.50187
5.51094
5.51682
5.51949
5.51905
5.51466
5.50545
5.49061
5.47016
5.44436
5.41128
5.37075
5.32317
5.26404
5.18933
5.09197
4.97316
4.83292
4.66531
4.49939
4.37793
4.29827
4.24711
4.2142
4.1933
4.18089
4.1751
3.92868
3.95688
4.00196
4.06542
4.13375
4.19544
4.25701
4.31555
4.36589
4.41407
4.46151
4.51385
4.56693
4.61903
4.67585
4.73128
4.77932
4.8252
4.86769
4.90376
4.9376
4.97028
5.00552
5.0406
5.07433
5.11026
5.14445
5.1732
5.19971
5.22481
5.25147
5.27753
5.30204
5.32769
5.35153
5.37077
5.38753
5.40123
5.41066
5.41696
5.42005
5.42028
5.41654
5.40785
5.39318
5.37278
5.34745
5.31434
5.2736
5.22696
5.16834
5.09368
4.99266
4.86827
4.72065
4.53413
4.34626
4.21791
4.13895
4.09041
4.06001
4.04101
4.02984
4.02464
3.77322
3.80612
3.85472
3.92592
4.00137
4.06517
4.1302
4.19205
4.24237
4.29095
4.33806
4.39262
4.4476
4.50013
4.56039
4.61916
4.66756
4.71488
4.75892
4.79452
4.82826
4.86045
4.89696
4.93312
4.96701
5.00496
5.04105
5.06972
5.09634
5.1212
5.14896
5.176
5.20079
5.22815
5.25366
5.27325
5.29083
5.30542
5.31507
5.32178
5.32524
5.32621
5.3232
5.3151
5.30057
5.28012
5.25553
5.22237
5.18127
5.13612
5.07837
5.00476
4.89995
4.77022
4.61705
4.40881
4.19407
4.06012
3.98366
3.93881
3.91146
3.89463
3.88481
3.88026
3.62165
3.66056
3.71192
3.79214
3.87581
3.94049
4.0092
4.07496
4.1244
4.17334
4.21934
4.27666
4.3337
4.38575
4.45011
4.51287
4.56079
4.60968
4.65565
4.69021
4.72384
4.75505
4.79318
4.83055
4.86402
4.90444
4.94283
4.97094
4.99765
5.02186
5.05101
5.07911
5.10374
5.13312
5.16059
5.18018
5.19863
5.21423
5.22392
5.23106
5.23479
5.23661
5.23439
5.22698
5.21254
5.19189
5.16839
5.13513
5.09334
5.05036
4.99373
4.9225
4.81349
4.67853
4.52285
4.28955
4.04139
3.90415
3.83237
3.79229
3.76848
3.75403
3.74565
3.7418
3.47356
3.52037
3.57302
3.66394
3.75727
3.82093
3.89374
3.96432
4.01163
4.06112
4.1049
4.16579
4.22518
4.27539
4.34477
4.41243
4.45861
4.50931
4.55782
4.59055
4.62418
4.6537
4.69399
4.73278
4.76497
4.80848
4.84973
4.8766
4.90347
4.92646
4.95742
4.98674
5.01054
5.0424
5.07222
5.09128
5.11069
5.1275
5.13696
5.14457
5.14845
5.15125
5.14988
5.14328
5.12885
5.10775
5.08584
5.05239
5.00935
4.96946
4.91398
4.84689
4.73292
4.59253
4.43905
4.1767
3.88642
3.74971
3.68513
3.65087
3.631
3.61908
3.61222
3.60907
3.32849
3.38588
3.43738
3.54116
3.64611
3.70593
3.7835
3.86023
3.90364
3.95422
3.9942
4.05988
4.12209
4.16842
4.24418
4.31796
4.36056
4.4135
4.46544
4.49517
4.52918
4.55599
4.59926
4.63977
4.66942
4.71688
4.76176
4.78639
4.81371
4.83465
4.86805
4.89882
4.92083
4.9558
4.98852
5.00623
5.02679
5.04511
5.05394
5.06215
5.06597
5.06994
5.06945
5.06382
5.04932
5.02734
5.00777
4.97398
4.9288
4.89326
4.83858
4.77804
4.65783
4.51126
4.36696
4.07086
3.72687
3.5967
3.54209
3.51457
3.49895
3.48967
3.48436
3.48192
3.18588
3.25766
3.30413
3.42368
3.54287
3.59476
3.67813
3.76295
3.79988
3.85272
3.8866
3.95883
4.02459
4.06415
4.14812
4.22974
4.2661
4.32194
4.3786
4.40368
4.43883
4.46143
4.50886
4.55157
4.57685
4.62946
4.67902
4.69994
4.7283
4.74601
4.78277
4.81533
4.83417
4.87314
4.90949
4.92472
4.94672
4.96697
4.97459
4.98362
4.98709
4.99248
4.99289
4.98843
4.97377
4.9503
4.93407
4.89978
4.85112
4.82168
4.76687
4.71625
4.5878
4.43338
4.30828
3.97288
3.55985
3.44526
3.40348
3.38342
3.37224
3.36565
3.36189
3.36017
3.04508
3.13662
3.17219
3.31136
3.4483
3.48651
3.57728
3.67288
3.69968
3.75683
3.78133
3.86261
3.93296
3.96169
4.0564
4.14817
4.17457
4.23434
4.29751
4.31557
4.3532
4.36948
4.4227
4.4683
4.48664
4.54605
4.60166
4.61681
4.64728
4.66007
4.70147
4.73635
4.75005
4.79426
4.83523
4.84634
4.87025
4.89303
4.89862
4.90888
4.91154
4.91872
4.91998
4.91698
4.90208
4.87617
4.86471
4.8297
4.77565
4.75479
4.69804
4.66197
4.52244
4.35711
4.26518
3.88399
3.38167
3.29595
3.26958
3.25746
3.25079
3.24687
3.24464
3.24363
2.90525
3.02404
3.04016
3.20407
3.36344
3.38001
3.48056
3.59065
3.60214
3.66698
3.67747
3.77121
3.8477
3.85999
3.96886
4.07387
4.08516
4.15037
4.22251
4.2302
4.27252
4.27946
4.34074
4.39021
4.39804
4.46651
4.52997
4.53645
4.57081
4.57627
4.62411
4.66202
4.66789
4.71901
4.7659
4.77068
4.79719
4.82329
4.82572
4.83783
4.83905
4.84852
4.85049
4.84932
4.83414
4.80447
4.79971
4.76377
4.70161
4.69287
4.63106
4.61591
4.4614
4.28002
4.24031
3.80584
3.18775
3.14982
3.14073
3.1367
3.13449
3.1332
3.13246
3.13213
)
;

boundaryField
{
    left
    {
        type            zeroGradient;
    }
    right
    {
        type            zeroGradient;
    }
    interface
    {
        type            fixedValue;
        value           nonuniform List<scalar> 
64
(
2.83378
2.97174
2.97174
3.15177
3.32576
3.32576
3.43307
3.55309
3.55309
3.62453
3.62453
3.72703
3.80777
3.80777
3.92622
4.04009
4.04009
4.10922
4.18764
4.18764
4.23411
4.23411
4.30109
4.35325
4.35325
4.42789
4.49659
4.49659
4.53435
4.53435
4.58673
4.62673
4.62673
4.68257
4.73338
4.73338
4.76177
4.79013
4.79013
4.8037
4.8037
4.81475
4.81697
4.81697
4.80169
4.76915
4.76915
4.73264
4.6644
4.6644
4.59748
4.59748
4.43265
4.23893
4.23893
3.77277
3.07783
3.07783
3.07783
3.07783
3.07783
3.07783
3.07783
3.07783
)
;
    }
    bottom
    {
        type            fixedValue;
        value           uniform 10;
    }
    defaultFaces
    {
        type            empty;
    }
}


// ************************************************************************* //
