/*--------------------------------*- C++ -*----------------------------------*\
| =========                 |                                                 |
| \\      /  F ield         | OpenFOAM: The Open Source CFD Toolbox           |
|  \\    /   O peration     | Version:  5.x                                   |
|   \\  /    A nd           | Web:      www.OpenFOAM.org                      |
|    \\/     M anipulation  |                                                 |
\*---------------------------------------------------------------------------*/
FoamFile
{
    version     2.0;
    format      ascii;
    class       volScalarField;
    location    "9.4";
    object      gradTx;
}
// * * * * * * * * * * * * * * * * * * * * * * * * * * * * * * * * * * * * * //

dimensions      [0 -1 0 1 0 0 0];

internalField   nonuniform List<scalar> 
2048
(
0.00630487
0.018734
0.030638
0.0417192
0.0517486
0.0605769
0.0681336
0.0744167
0.0794757
0.0833936
0.0862701
0.0882095
0.0893139
0.08968
0.0894003
0.0885639
0.0872577
0.0855653
0.0835643
0.0813233
0.0788981
0.0763294
0.0736419
0.0708459
0.0679391
0.0649094
0.0617373
0.0583971
0.054858
0.0510841
0.0470351
0.0426674
0.0379357
0.0327955
0.027205
0.0211264
0.0145276
0.00738248
-0.000328632
-0.00861736
-0.0174852
-0.02692
-0.0368901
-0.0473384
-0.0581732
-0.0692597
-0.0804108
-0.0913794
-0.101854
-0.111462
-0.119781
-0.126359
-0.130752
-0.132569
-0.131511
-0.127415
-0.120277
-0.110247
-0.0976153
-0.0827649
-0.0661295
-0.0481502
-0.0292469
-0.00980739
0.0187882
0.055817
0.0912548
0.124203
0.153976
0.180133
0.202475
0.221008
0.235895
0.247395
0.255812
0.261462
0.264646
0.265652
0.264751
0.262207
0.258277
0.253209
0.247237
0.240566
0.233363
0.225748
0.217795
0.209531
0.200948
0.192007
0.182651
0.172802
0.162369
0.151246
0.139312
0.126437
0.112486
0.0973248
0.0808287
0.0628855
0.0433995
0.0222927
-0.000493763
-0.0249962
-0.0512221
-0.0791397
-0.108662
-0.139625
-0.171767
-0.204697
-0.237867
-0.27055
-0.301825
-0.33058
-0.355543
-0.375356
-0.38867
-0.394287
-0.391294
-0.379191
-0.357961
-0.328073
-0.290412
-0.246151
-0.196608
-0.143109
-0.0869051
-0.0291382
0.0311397
0.0924816
0.151104
0.205482
0.254468
0.297347
0.333821
0.363946
0.388036
0.406555
0.420034
0.429001
0.433958
0.43537
0.433677
0.429305
0.422676
0.414205
0.40428
0.393246
0.381383
0.368888
0.355878
0.342393
0.32841
0.313862
0.298649
0.282645
0.2657
0.24764
0.228265
0.207357
0.184691
0.160042
0.133202
0.103985
0.0722346
0.0378212
0.000646219
-0.039355
-0.0822042
-0.127862
-0.176204
-0.226985
-0.279798
-0.334028
-0.388804
-0.44295
-0.494957
-0.542981
-0.584891
-0.618378
-0.641131
-0.651071
-0.646607
-0.626859
-0.591799
-0.542251
-0.479768
-0.406388
-0.324372
-0.235961
-0.143224
-0.0480092
0.0435991
0.129424
0.21127
0.286934
0.354789
0.413864
0.463814
0.504808
0.537376
0.562242
0.580193
0.591987
0.598318
0.599815
0.597067
0.590655
0.581161
0.569165
0.555222
0.539824
0.523366
0.506125
0.488252
0.469788
0.450688
0.430846
0.41012
0.388335
0.365284
0.340728
0.314387
0.285955
0.255109
0.221531
0.184928
0.14504
0.10165
0.0545805
0.00369116
-0.0511162
-0.109888
-0.172597
-0.239106
-0.309118
-0.382123
-0.457326
-0.533577
-0.60929
-0.682397
-0.750322
-0.810035
-0.858197
-0.891413
-0.906588
-0.901325
-0.874287
-0.82543
-0.75601
-0.668379
-0.565591
-0.450972
-0.327744
-0.198793
-0.0666107
0.0563823
0.167266
0.272717
0.369764
0.456277
0.531057
0.593786
0.64484
0.685056
0.715494
0.737241
0.7513
0.758547
0.759751
0.75563
0.746899
0.734297
0.71858
0.700483
0.680661
0.659636
0.637759
0.61521
0.592014
0.568086
0.543275
0.517387
0.490202
0.461465
0.430873
0.398066
0.362642
0.324175
0.282245
0.236469
0.186515
0.132107
0.0730225
0.00908102
-0.0598554
-0.133872
-0.212973
-0.29704
-0.385765
-0.478582
-0.574571
-0.672357
-0.770004
-0.864917
-0.953789
-1.03264
-1.09698
-1.14216
-1.16386
-1.15867
-1.1247
-1.06185
-0.97194
-0.858327
-0.725313
-0.577481
-0.419133
-0.253974
-0.0850561
0.0696941
0.206596
0.336336
0.455065
0.560111
0.650096
0.724826
0.785015
0.831933
0.86707
0.891869
0.907587
0.915263
0.915773
0.909925
0.898549
0.882537
0.862837
0.840389
0.816035
0.790438
0.764026
0.73699
0.709317
0.680862
0.651408
0.620712
0.588512
0.554514
0.518356
0.479599
0.437736
0.392222
0.342528
0.288172
0.228751
0.163937
0.093467
0.017124
-0.0652742
-0.153865
-0.248712
-0.349746
-0.456695
-0.568988
-0.685647
-0.805148
-0.925271
-1.04295
-1.15415
-1.2539
-1.3364
-1.39552
-1.42542
-1.42143
-1.38085
-1.30358
-1.19214
-1.05119
-0.886622
-0.704539
-0.510465
-0.308917
-0.103385
0.0837387
0.247993
0.402996
0.543872
0.667369
0.771997
0.857826
0.926078
0.978619
1.01748
1.04454
1.06129
1.06892
1.06833
1.0604
1.04602
1.02624
1.00224
0.975184
0.946146
0.91595
0.885101
0.85378
0.821904
0.789234
0.75547
0.720313
0.683474
0.644634
0.603387
0.55921
0.511475
0.459505
0.402639
0.340293
0.271992
0.197365
0.116124
0.0280177
-0.0671806
-0.169676
-0.279615
-0.397019
-0.521695
-0.653132
-0.790363
-0.931802
-1.07504
-1.21662
-1.35182
-1.4746
-1.57772
-1.65326
-1.69347
-1.69203
-1.64521
-1.55281
-1.41831
-1.24811
-1.05014
-0.832384
-0.601755
-0.363564
-0.121567
0.0987275
0.292054
0.473574
0.6372
0.779064
0.897658
0.993511
1.06857
1.1255
1.16703
1.19551
1.21269
1.21982
1.21778
1.2074
1.18965
1.16571
1.13702
1.10504
1.07113
1.03629
1.00111
0.96573
0.929951
0.893396
0.855654
0.816371
0.775251
0.731977
0.686116
0.637058
0.584038
0.526214
0.462772
0.393015
0.3164
0.232532
0.141109
0.0418651
-0.0654744
-0.181196
-0.305557
-0.438707
-0.580584
-0.730793
-0.888463
-1.05205
-1.21906
-1.38577
-1.54685
-1.69516
-1.82183
-1.9168
-1.96995
-1.97275
-1.92005
-1.8115
-1.65186
-1.44984
-1.21607
-0.960863
-0.69271
-0.417661
-0.139505
0.114886
0.339409
0.548979
0.73607
0.896165
1.02788
1.13246
1.21285
1.27277
1.31582
1.34487
1.36192
1.36817
1.36438
1.35125
1.32972
1.30119
1.26736
1.23008
1.19105
1.15152
1.11213
1.07296
1.03362
0.993527
0.952139
0.909041
0.863966
0.816645
0.766642
0.713255
0.655551
0.592488
0.523069
0.446464
0.362074
0.269501
0.168461
0.0586871
-0.0601359
-0.18839
-0.326477
-0.474712
-0.633212
-0.801758
-0.979657
-1.16552
-1.35692
-1.55002
-1.73899
-1.91564
-2.06928
-2.18732
-2.25661
-2.26574
-2.20756
-2.08148
-1.89393
-1.6568
-1.38423
-1.08945
-0.782736
-0.470765
-0.157037
0.132462
0.390741
0.630178
0.841535
1.01962
1.16339
1.27511
1.3591
1.42043
1.46375
1.49255
1.50899
1.5141
1.50835
1.49219
1.46652
1.43288
1.39339
1.35036
1.30593
1.26164
1.21822
1.17557
1.13305
1.0898
1.04509
0.998458
0.949708
0.898694
0.845014
0.787865
0.726103
0.658435
0.583634
0.500723
0.409059
0.308277
0.198148
0.078433
-0.0512165
-0.191294
-0.342377
-0.504992
-0.679474
-0.865838
-1.06364
-1.27178
-1.48807
-1.70876
-1.92772
-2.13578
-2.32031
-2.46571
-2.55507
-2.57312
-2.50997
-2.36451
-2.14547
-1.86905
-1.55402
-1.21724
-0.870953
-0.522257
-0.173941
0.151725
0.446795
0.718211
0.954692
1.15037
1.30482
1.42177
1.50734
1.56829
1.61058
1.63835
1.65381
1.65765
1.64987
1.63049
1.60027
1.56098
1.51521
1.4659
1.41573
1.36663
1.31938
1.27364
1.2284
1.18241
1.1347
1.08475
1.03254
0.978141
0.921241
0.860918
0.795755
0.724136
0.64455
0.555845
0.457361
0.348815
0.230081
0.100989
-0.0388307
-0.190002
-0.353317
-0.529559
-0.71932
-0.922883
-1.14014
-1.37037
-1.61187
-1.86119
-2.11222
-2.35499
-2.57483
-2.75265
-2.86685
-2.8971
-2.8296
-2.66236
-2.40724
-2.08628
-1.72442
-1.34295
-0.956203
-0.571358
-0.189945
0.17298
0.508398
0.814208
1.0767
1.28935
1.45274
1.57263
1.65742
1.716
1.75589
1.78195
1.79624
1.79887
1.78911
1.76641
1.73124
1.68566
1.63291
1.57667
1.52038
1.46641
1.4156
1.36726
1.31983
1.27156
1.22114
1.16802
1.11249
1.05496
0.995293
0.932412
0.864543
0.789659
0.705884
0.611864
0.506954
0.391024
0.264121
0.126187
-0.023148
-0.184658
-0.359406
-0.548479
-0.752754
-0.972804
-1.20889
-1.46085
-1.7276
-2.00637
-2.29145
-2.57237
-2.83244
-3.04856
-3.19339
-3.23996
-3.16897
-2.97691
-2.67982
-2.30785
-1.89401
-1.46494
-1.03708
-0.61715
-0.204733
0.196565
0.576462
0.919404
1.20878
1.43748
1.60765
1.72775
1.80904
1.86304
1.89913
1.92289
1.93604
1.93774
1.92628
1.90023
1.8597
1.80711
1.74653
1.68262
1.61972
1.56085
1.50685
1.45651
1.40751
1.35747
1.30462
1.24841
1.18955
1.12908
1.0671
1.00232
0.932492
0.855065
0.767705
0.668801
0.557784
0.434781
0.300083
0.153809
-0.00438598
-0.175455
-0.360799
-0.561871
-0.779848
-1.01558
-1.26974
-1.54279
-1.83454
-2.14326
-2.46412
-2.78668
-3.09236
-3.35358
-3.53602
-3.60419
-3.53095
-3.31018
-2.96365
-2.53268
-2.06088
-1.58123
-1.11197
-0.658615
-0.217961
0.22286
0.651999
1.03515
1.35225
1.59568
1.76995
1.88706
1.96175
2.0087
2.03958
2.06068
2.07296
2.07425
2.06157
2.0323
1.98596
1.92551
1.85613
1.78365
1.71358
1.64978
1.59307
1.54148
1.49166
1.44042
1.38541
1.32603
1.2637
1.20039
1.13656
1.07061
0.999618
0.92042
0.830086
0.726673
0.609781
0.479932
0.337746
0.183593
0.0171962
-0.162618
-0.357683
-0.569897
-0.800736
-1.05128
-1.32258
-1.61586
-1.93202
-2.27072
-2.62876
-2.99641
-3.35349
-3.66754
-3.89599
-3.99247
-3.91881
-3.66444
-3.25893
-2.75922
-2.22269
-1.68949
-1.17909
-0.694674
-0.229273
0.252292
0.736127
1.16291
1.5085
1.76485
1.93993
2.05037
2.11495
2.15216
2.17643
2.19472
2.20673
2.20842
2.19523
2.163
2.11035
2.04103
1.96174
1.87963
1.80172
1.73298
1.6742
1.62227
1.5725
1.52071
1.4638
1.40101
1.33486
1.2687
1.20353
1.1372
1.06593
0.985798
0.89312
0.7855
0.662855
0.526297
0.376857
0.215241
0.0413043
-0.146399
-0.350269
-0.572755
-0.815615
-1.08004
-1.36742
-1.67983
-2.01939
-2.38762
-2.78371
-3.19969
-3.61433
-3.98991
-4.27434
-4.40778
-4.33644
-4.04229
-3.56567
-2.98537
-2.37655
-1.78713
-1.23655
-0.724239
-0.238317
0.285343
0.830067
1.30428
1.67902
1.94584
2.11776
2.21738
2.26792
2.29239
2.30871
2.32439
2.3371
2.34022
2.32755
2.29282
2.23324
2.15386
2.0634
1.97042
1.88384
1.81018
1.75016
1.69903
1.65027
1.59871
1.54015
1.4735
1.40291
1.3338
1.26784
1.20206
1.13144
1.05128
0.956933
0.845307
0.716898
0.573682
0.417135
0.248418
0.0676134
-0.127066
-0.338777
-0.57067
-0.824744
-1.10212
-1.40439
-1.73457
-2.09617
-2.49281
-2.92719
-3.3944
-3.87299
-4.31973
-4.67186
-4.85334
-4.7885
-4.44677
-3.88351
-3.20837
-2.51909
-1.87131
-1.28245
-0.746269
-0.244769
0.322562
0.935146
1.46097
1.86541
2.13944
2.30344
2.3877
2.41984
2.42826
2.43533
2.44903
2.46384
2.46968
2.45886
2.42234
2.35503
2.26415
2.16116
2.05585
1.95958
1.88106
1.82088
1.77191
1.72525
1.6748
1.61492
1.54367
1.46767
1.39537
1.3293
1.26513
1.19615
1.11698
1.02169
0.906128
0.771778
0.621876
0.458285
0.282757
0.0957723
-0.104896
-0.323422
-0.56388
-0.828436
-1.11784
-1.43371
-1.78012
-2.16202
-2.58524
-3.05729
-3.57813
-4.12723
-4.65559
-5.08888
-5.33268
-5.28066
-4.88145
-4.21165
-3.42467
-2.64643
-1.93906
-1.31496
-0.759835
-0.248352
0.364588
1.05278
1.63482
2.06944
2.34634
2.49677
2.56089
2.5698
2.55846
2.55511
2.568
2.58681
2.59677
2.58951
2.55228
2.47615
2.37201
2.25511
2.13577
2.02849
1.94522
1.88628
1.84115
1.79769
1.74943
1.68866
1.6117
1.52886
1.45302
1.38769
1.3264
1.26004
1.18298
1.08763
0.968004
0.827334
0.670669
0.499994
0.31786
0.125405
-0.080164
-0.304403
-0.552621
-0.827053
-1.12765
-1.4557
-1.81666
-2.21681
-2.66396
-3.17206
-3.74823
-4.37446
-4.99556
-5.52514
-5.84955
-5.81995
-5.35064
-4.5486
-3.62979
-2.75418
-1.98739
-1.3324
-0.764179
-0.248856
0.412185
1.18447
1.82773
2.29307
2.56704
2.69726
2.73647
2.71687
2.68151
2.66671
2.68069
2.70601
2.72142
2.71985
2.68357
2.59704
2.47746
2.34538
2.21
2.09005
2.00217
1.94633
1.90706
1.86784
1.82305
1.76211
1.67783
1.58611
1.50623
1.4428
1.3859
1.32308
1.24941
1.15507
1.03098
0.883353
0.719862
0.541952
0.353293
0.156114
-0.0531378
-0.281879
-0.537114
-0.820999
-1.13206
-1.47078
-1.84452
-2.26071
-2.72823
-3.26949
-3.90184
-4.6118
-5.3372
-5.97942
-6.40784
-6.41517
-5.85947
-4.89194
-3.81812
-2.83755
-2.01338
-1.33339
-0.758766
-0.246154
0.466313
1.33174
2.04161
2.53855
2.80187
2.90402
2.91411
2.86012
2.79579
2.76867
2.78658
2.82163
2.84342
2.85024
2.81743
2.71811
2.58036
2.43225
2.27843
2.14362
2.05134
2.00102
1.97009
1.93584
1.89612
1.8362
1.74229
1.6389
1.5544
1.49442
1.44378
1.38515
1.31636
1.22448
1.0951
0.939544
0.769287
0.583852
0.388586
0.187476
-0.0240708
-0.255959
-0.517548
-0.810717
-1.1317
-1.4794
-1.86415
-2.2942
-2.77749
-3.3476
-4.03591
-4.83621
-5.67766
-6.44919
-7.01133
-7.07745
-6.41415
-5.23783
-3.9828
-2.8914
-2.01439
-1.31692
-0.743336
-0.240213
0.528234
1.49608
2.27834
2.80863
3.0508
3.11567
3.09366
2.99866
2.89944
2.85936
2.88525
2.93419
2.96236
2.98092
2.95549
2.8397
2.68033
2.51619
2.341
2.18841
2.09201
2.05037
2.03085
2.00169
1.96906
1.91219
1.80536
1.68652
1.59676
1.54237
1.50034
1.44605
1.38386
1.29653
1.16037
0.995502
0.818846
0.625405
0.423219
0.219044
0.006801
-0.226681
-0.494062
-0.796678
-1.12732
-1.48205
-1.87606
-2.31817
-2.81147
-3.40443
-4.14717
-5.04458
-6.0138
-6.93007
-7.66343
-7.82107
-7.02214
-5.58049
-4.11554
-2.91049
-1.98822
-1.28244
-0.717926
-0.231099
0.599699
1.6789
2.53956
3.10673
3.31336
3.33007
3.27545
3.13174
2.99037
2.93697
2.97642
3.04471
3.07742
3.11196
3.1
2.96199
2.77659
2.59798
2.3977
2.22348
2.12332
2.09452
2.0903
2.06514
2.04215
1.99177
1.86734
1.72803
1.63237
1.58651
1.55612
1.50538
1.4519
1.37218
1.22676
1.05064
0.868558
0.66635
0.456612
0.250348
0.0392597
-0.193995
-0.466731
-0.779379
-1.1198
-1.47915
-1.88081
-2.33402
-2.83018
-3.43805
-4.23219
-5.23391
-6.34256
-7.41521
-8.36662
-8.66443
-7.6924
-5.9114
-4.20653
-2.88963
-1.93325
-1.22993
-0.682886
-0.218979
0.683235
1.88136
2.82646
3.43738
3.58845
3.54411
3.46055
3.25869
3.06621
2.99944
3.05995
3.15489
3.18721
3.24315
3.25413
3.08492
2.86777
2.67894
2.44863
2.24765
2.14425
2.13361
2.14979
2.12553
2.11551
2.07724
1.92848
1.76221
1.66012
1.62675
1.61204
1.56246
1.52028
1.45284
1.29412
1.10413
0.91864
0.706457
0.488105
0.280892
0.0731022
-0.157747
-0.435548
-0.759325
-1.11021
-1.47102
-1.87882
-2.34375
-2.83394
-3.44666
-4.28723
-5.40144
-6.66149
-7.89447
-9.12169
-9.63146
-8.43564
-6.2182
-4.24449
-2.82411
-1.84868
-1.15996
-0.638867
-0.204109
0.782583
2.10422
3.13946
3.80673
3.8741
3.75332
3.65124
3.37901
3.1242
3.04447
3.13585
3.26749
3.28947
3.3738
3.42236
3.20803
2.95169
2.76116
2.49394
2.25947
2.15353
2.1679
2.21135
2.18164
2.18893
2.17175
1.98899
1.78748
1.67871
1.66308
1.66954
1.61618
1.58859
1.54053
1.36216
1.15475
0.969619
0.745523
0.516933
0.310166
0.108132
-0.117655
-0.400412
-0.737013
-1.0999
-1.45782
-1.87032
-2.35013
-2.82337
-3.42854
-4.30824
-5.54478
-6.9696
-8.35343
-9.9267
-10.7534
-9.2645
-6.4834
-4.21682
-2.71
-1.73467
-1.07366
-0.586791
-0.18682
0.903334
2.34761
3.47767
4.22337
4.16716
3.95141
3.85158
3.49222
3.16114
3.06943
3.20417
3.38677
3.38066
3.50252
3.61103
3.33019
3.02499
2.84789
2.5338
2.2572
2.14969
2.19761
2.27795
2.23137
2.26173
2.27963
2.04883
1.80184
1.68663
1.69547
1.73084
1.66484
1.65608
1.63816
1.43029
1.20081
1.02249
0.783355
0.542192
0.33766
0.144141
-0.0732919
-0.361119
-0.712899
-1.09056
-1.43942
-1.85508
-2.35692
-2.79931
-3.38218
-4.29059
-5.66195
-7.26857
-8.77228
-10.7754
-12.0711
-10.1937
-6.6826
-4.11002
-2.54468
-1.59241
-0.972728
-0.527805
-0.167504
1.05384
2.61074
3.83825
4.69931
4.46282
4.12963
4.06825
3.59775
3.17332
3.07141
3.26487
3.51906
3.45549
3.6269
3.82909
3.44937
3.0827
2.94407
2.5683
2.23867
2.13099
2.22288
2.35391
2.27149
2.33254
2.40686
2.10763
1.80284
1.68222
1.72387
1.79926
1.70582
1.72151
1.74989
1.49753
1.23991
1.07892
0.819728
0.562804
0.362886
0.18089
-0.0240624
-0.31736
-0.687336
-1.08442
-1.41538
-1.83217
-2.36916
-2.76272
-3.30638
-4.22895
-5.75125
-7.56442
-9.12453
-11.6555
-13.638
-11.2403
-6.78235
-3.9105
-2.32732
-1.42422
-0.859312
-0.463217
-0.146586
1.24647
2.89148
4.21546
5.25148
4.7541
4.27602
4.31162
3.69459
3.15645
3.04718
3.31755
3.67367
3.50628
3.74311
4.08907
3.56218
3.11773
3.05701
2.59721
2.20133
2.09547
2.24357
2.44541
2.29717
2.39908
2.56155
2.16435
1.78752
1.66366
1.74804
1.87961
1.73537
1.78294
1.88157
1.5623
1.26876
1.14157
0.85431
0.577473
0.385424
0.218062
0.0308255
-0.268735
-0.660496
-1.08439
-1.3848
-1.79964
-2.39354
-2.71446
-3.20039
-4.11699
-5.81092
-7.8697
-9.37554
-12.5455
-15.5236
-12.4232
-6.73751
-3.60577
-2.05934
-1.23348
-0.73593
-0.394427
-0.12451
1.49922
3.18589
4.59946
5.90347
5.03108
4.37448
4.59711
3.78082
3.10565
2.99333
3.36098
3.86384
3.52216
3.84542
4.40825
3.66339
3.1202
3.19729
2.61968
2.14217
2.04096
2.259
2.56121
2.3015
2.45781
2.75474
2.21696
1.75242
1.62908
1.76733
1.97874
1.74811
1.83755
2.04127
1.62216
1.2829
1.21442
0.886537
0.584646
0.40498
0.255217
0.0923941
-0.214782
-0.632231
-1.09435
-1.3463
-1.75406
-2.43893
-2.65497
-3.06422
-3.94707
-5.83849
-8.20633
-9.48104
-13.4121
-17.8182
-13.7635
-6.48814
-3.1862
-1.74482
-1.02454
-0.605329
-0.322858
-0.101708
1.8379
3.48762
4.97477
6.68785
5.28
4.40363
4.94693
3.85284
3.01545
2.90634
3.39252
4.10813
3.48818
3.92554
4.81015
3.74527
3.07671
3.37984
2.63377
2.05777
1.96524
2.26753
2.71348
2.27489
2.50358
3.00119
2.26185
1.69364
1.57669
1.78035
2.1062
1.73663
1.88132
2.24005
1.6735
1.2764
1.30326
0.915432
0.58247
0.421469
0.291714
0.161942
-0.155036
-0.601899
-1.11941
-1.29797
-1.68998
-2.517
-2.5838
-2.89899
-3.71002
-5.82963
-8.60906
-9.38553
-14.2057
-20.638
-15.2832
-5.95591
-2.64743
-1.39074
-0.802482
-0.470329
-0.249884
-0.0785924
2.29875
3.78715
5.31838
7.64893
5.4821
4.33553
5.39215
3.90436
2.87996
2.78292
3.40716
4.43203
3.38422
3.97191
5.32627
3.79677
2.96943
3.62534
2.63575
1.94437
1.86613
2.26597
2.91891
2.20433
2.52915
3.32048
2.29319
1.60692
1.50493
1.78454
2.27511
1.69089
1.90869
2.49268
1.71114
1.24152
1.41625
0.939356
0.568764
0.435124
0.326617
0.241102
-0.0891229
-0.568117
-1.16629
-1.23732
-1.5993
-2.64305
-2.49894
-2.70745
-3.39486
-5.77656
-9.12959
-9.02082
-14.8555
-24.1314
-17.005
-5.04006
-1.9935
-1.00696
-0.572819
-0.333681
-0.176778
-0.0555334
2.93165
4.07092
5.59755
8.84601
5.61228
4.13419
5.9752
3.92497
2.69306
2.6203
3.3964
4.86991
3.18369
3.96886
5.99811
3.8026
2.77515
3.96184
2.6192
1.79802
1.74181
2.24884
3.19992
2.07263
2.52475
3.73822
2.30205
1.48786
1.41274
1.77552
2.50308
1.59757
1.91222
2.8187
1.72786
1.16834
1.56458
0.955663
0.541012
0.446627
0.358572
0.331924
-0.0168991
-0.528441
-1.2437
-1.16133
-1.47044
-2.83703
-2.39601
-2.49469
-2.98873
-5.66575
-9.84137
-8.30462
-15.2642
-28.486
-18.9507
-3.61289
-1.24082
-0.605809
-0.341144
-0.197924
-0.104663
-0.0328537
3.80395
4.32039
5.76717
10.3572
5.63752
3.75402
6.75273
3.89841
2.44879
2.41682
3.34668
5.46728
2.85223
3.8956
6.87939
3.74212
2.46417
4.42662
2.57388
1.6148
1.5911
2.20737
3.58617
1.85743
2.47748
4.28743
2.2753
1.33219
1.29985
1.74629
2.81343
1.43938
1.88213
3.24337
1.7138
1.04432
1.76325
0.960279
0.496374
0.45727
0.385658
0.436979
0.0613583
-0.478981
-1.36281
-1.06651
-1.28742
-3.12472
-2.26706
-2.26889
-2.47696
-5.47506
-10.845
-7.1394
-15.3011
-33.9366
-21.1392
-1.51515
-0.42285
-0.201266
-0.112736
-0.0652802
-0.0344895
-0.0108218
)
;

boundaryField
{
    left
    {
        type            calculated;
        value           uniform 0;
    }
    right
    {
        type            calculated;
        value           uniform 0;
    }
    interface
    {
        type            calculated;
        value           nonuniform List<scalar> 
64
(
3.80395
4.32039
5.76717
10.3572
5.63752
3.75402
6.75273
3.89841
2.44879
2.41682
3.34668
5.46728
2.85223
3.8956
6.87939
3.74212
2.46417
4.42662
2.57388
1.6148
1.5911
2.20737
3.58617
1.85743
2.47748
4.28743
2.2753
1.33219
1.29985
1.74629
2.81343
1.43938
1.88213
3.24337
1.7138
1.04432
1.76325
0.960279
0.496374
0.45727
0.385658
0.436979
0.0613583
-0.478981
-1.36281
-1.06651
-1.28742
-3.12472
-2.26706
-2.26889
-2.47696
-5.47506
-10.845
-7.1394
-15.3011
-33.9366
-21.1392
-1.51515
-0.42285
-0.201266
-0.112736
-0.0652802
-0.0344895
-0.0108218
)
;
    }
    bottom
    {
        type            calculated;
        value           nonuniform List<scalar> 
64
(
0.00630487
0.018734
0.030638
0.0417192
0.0517486
0.0605769
0.0681336
0.0744167
0.0794757
0.0833936
0.0862701
0.0882095
0.0893139
0.08968
0.0894003
0.0885639
0.0872577
0.0855653
0.0835643
0.0813233
0.0788981
0.0763294
0.0736419
0.0708459
0.0679391
0.0649094
0.0617373
0.0583971
0.054858
0.0510841
0.0470351
0.0426674
0.0379357
0.0327955
0.027205
0.0211264
0.0145276
0.00738248
-0.000328632
-0.00861736
-0.0174852
-0.02692
-0.0368901
-0.0473384
-0.0581732
-0.0692597
-0.0804108
-0.0913794
-0.101854
-0.111462
-0.119781
-0.126359
-0.130752
-0.132569
-0.131511
-0.127415
-0.120277
-0.110247
-0.0976153
-0.0827649
-0.0661295
-0.0481502
-0.0292469
-0.00980739
)
;
    }
    defaultFaces
    {
        type            empty;
    }
}


// ************************************************************************* //
