/*--------------------------------*- C++ -*----------------------------------*\
| =========                 |                                                 |
| \\      /  F ield         | OpenFOAM: The Open Source CFD Toolbox           |
|  \\    /   O peration     | Version:  5.x                                   |
|   \\  /    A nd           | Web:      www.OpenFOAM.org                      |
|    \\/     M anipulation  |                                                 |
\*---------------------------------------------------------------------------*/
FoamFile
{
    version     2.0;
    format      ascii;
    class       volScalarField;
    location    "9.4";
    object      T;
}
// * * * * * * * * * * * * * * * * * * * * * * * * * * * * * * * * * * * * * //

dimensions      [0 0 0 1 0 0 0];

internalField   nonuniform List<scalar> 
2048
(
9.81021
9.8104
9.81079
9.81136
9.8121
9.81298
9.81399
9.81511
9.81631
9.81759
9.81892
9.82029
9.82168
9.82308
9.82448
9.82587
9.82725
9.8286
9.82992
9.83121
9.83246
9.83368
9.83485
9.83598
9.83706
9.8381
9.83909
9.84003
9.84092
9.84174
9.84251
9.84321
9.84384
9.8444
9.84487
9.84525
9.84553
9.8457
9.84576
9.84569
9.84549
9.84515
9.84465
9.84399
9.84317
9.84218
9.84101
9.83966
9.83815
9.83648
9.83467
9.83274
9.83072
9.82865
9.82658
9.82454
9.82259
9.82078
9.81915
9.81773
9.81656
9.81567
9.81506
9.81475
9.43876
9.43935
9.4405
9.4422
9.44438
9.44701
9.45001
9.45334
9.45692
9.46071
9.46465
9.4687
9.47282
9.47697
9.48112
9.48525
9.48932
9.49332
9.49723
9.50104
9.50475
9.50834
9.5118
9.51514
9.51835
9.52142
9.52435
9.52713
9.52975
9.5322
9.53448
9.53656
9.53843
9.54007
9.54147
9.5426
9.54343
9.54395
9.54413
9.54394
9.54335
9.54234
9.54088
9.53894
9.53651
9.53357
9.53012
9.52614
9.52166
9.51671
9.51133
9.5056
9.4996
9.49345
9.48728
9.48122
9.47543
9.47004
9.46518
9.46096
9.45749
9.45482
9.45301
9.4521
9.08311
9.08408
9.086
9.0888
9.09242
9.09676
9.10171
9.10719
9.11309
9.11932
9.12579
9.13244
9.1392
9.146
9.1528
9.15955
9.16622
9.17276
9.17916
9.1854
9.19145
9.19732
9.20298
9.20844
9.21368
9.2187
9.22349
9.22803
9.23232
9.23634
9.24006
9.24347
9.24654
9.24924
9.25154
9.2534
9.25479
9.25566
9.25597
9.25568
9.25474
9.25311
9.25075
9.2476
9.24365
9.23886
9.23321
9.22671
9.21937
9.21124
9.2024
9.19297
9.18308
9.17293
9.16273
9.15272
9.14314
9.13423
9.1262
9.11924
9.1135
9.1091
9.10613
9.10463
8.74234
8.74371
8.74639
8.75031
8.75535
8.76139
8.76829
8.77589
8.78406
8.79268
8.80163
8.81081
8.82013
8.82951
8.83888
8.84817
8.85733
8.86633
8.87512
8.88368
8.89199
8.90004
8.90781
8.91529
8.92249
8.92938
8.93595
8.94219
8.94809
8.95361
8.95873
8.96343
8.96767
8.97141
8.97459
8.97718
8.97913
8.98036
8.98083
8.98048
8.97923
8.97704
8.97384
8.96957
8.96418
8.95763
8.94989
8.94095
8.93085
8.91963
8.9074
8.89432
8.88058
8.86646
8.85225
8.83829
8.82493
8.8125
8.8013
8.79161
8.78363
8.77752
8.77339
8.77131
8.41562
8.41738
8.42084
8.4259
8.4324
8.44016
8.44899
8.45872
8.46915
8.48012
8.4915
8.50316
8.51498
8.52687
8.53873
8.55048
8.56207
8.57343
8.58452
8.59532
8.60579
8.61593
8.62572
8.63516
8.64422
8.65291
8.6612
8.66908
8.67652
8.6835
8.68998
8.69594
8.70132
8.70607
8.71014
8.71346
8.71596
8.71759
8.71825
8.71787
8.71638
8.71369
8.70972
8.7044
8.69767
8.68945
8.67971
8.66844
8.65565
8.64141
8.62584
8.60914
8.59156
8.57345
8.55519
8.53724
8.52004
8.50405
8.48967
8.47723
8.467
8.45919
8.45391
8.45125
8.10216
8.10434
8.10862
8.11485
8.12284
8.13235
8.14315
8.155
8.16769
8.181
8.19478
8.20887
8.22314
8.23747
8.25176
8.26591
8.27984
8.29349
8.3068
8.31975
8.33231
8.34445
8.35618
8.36748
8.37835
8.38876
8.3987
8.40816
8.41709
8.42549
8.43329
8.44047
8.44697
8.45273
8.45768
8.46174
8.46483
8.46686
8.46775
8.46739
8.46571
8.46259
8.45793
8.45166
8.44366
8.43388
8.42224
8.40871
8.39332
8.37612
8.35725
8.33694
8.31549
8.29333
8.27095
8.24891
8.2278
8.20817
8.19054
8.17532
8.16283
8.1533
8.14688
8.14365
7.80126
7.80388
7.80901
7.81647
7.82601
7.83733
7.85013
7.86413
7.87907
7.89472
7.91087
7.92736
7.94403
7.96076
7.97742
7.9939
8.01011
8.02597
8.04143
8.05644
8.07099
8.08507
8.09865
8.11175
8.12434
8.13641
8.14795
8.15892
8.16931
8.17907
8.18816
8.19654
8.20415
8.2109
8.21673
8.22154
8.22523
8.2277
8.22886
8.22858
8.22676
8.22328
8.21802
8.21087
8.20172
8.19046
8.17702
8.16134
8.14342
8.12332
8.10118
8.07724
8.05187
8.02558
7.99895
7.9727
7.94754
7.92417
7.90322
7.88517
7.8704
7.85916
7.8516
7.8478
7.51226
7.51534
7.52138
7.53014
7.5413
7.55449
7.56935
7.58553
7.60274
7.62071
7.63921
7.65807
7.67711
7.69618
7.71516
7.73392
7.75234
7.77034
7.78787
7.80488
7.82134
7.83726
7.85263
7.86744
7.88169
7.89536
7.90843
7.92087
7.93265
7.94374
7.9541
7.96365
7.97235
7.9801
7.98681
7.99238
7.9967
7.99965
8.00111
8.00095
7.99906
7.99529
7.98951
7.98158
7.97137
7.95874
7.9436
7.92587
7.90551
7.88256
7.85717
7.82959
7.80024
7.76969
7.73868
7.70804
7.67867
7.65143
7.62705
7.60612
7.58905
7.5761
7.5674
7.56304
7.23453
7.23812
7.24513
7.25527
7.26813
7.28328
7.30026
7.31867
7.33816
7.35844
7.37928
7.40047
7.42184
7.44322
7.46447
7.48545
7.50603
7.52611
7.54563
7.56455
7.58285
7.60054
7.61761
7.63407
7.64991
7.66511
7.67966
7.69352
7.70666
7.71904
7.73062
7.74133
7.7511
7.75985
7.76745
7.7738
7.77877
7.78222
7.78403
7.78405
7.78215
7.77817
7.77195
7.76333
7.75216
7.73828
7.72155
7.70185
7.67914
7.65342
7.6248
7.59355
7.56013
7.5252
7.48961
7.4544
7.42063
7.38935
7.36144
7.33757
7.31819
7.30353
7.29372
7.28882
6.96749
6.97163
6.9797
6.99132
7.006
7.02319
7.04235
7.06303
7.08483
7.10742
7.13057
7.15406
7.17772
7.20138
7.22486
7.24801
7.27069
7.29279
7.31423
7.33499
7.35504
7.37441
7.39311
7.41115
7.42852
7.44521
7.46118
7.47641
7.49086
7.50449
7.51726
7.52911
7.53995
7.54969
7.55819
7.56534
7.57098
7.57497
7.57717
7.57742
7.57557
7.57144
7.56487
7.55566
7.54364
7.5286
7.5104
7.48886
7.46389
7.43546
7.40365
7.36872
7.33114
7.29167
7.2513
7.21126
7.17286
7.13737
7.10581
7.07896
7.05725
7.04092
7.03003
7.0246
6.7106
6.71534
6.72456
6.73779
6.7544
6.77374
6.79517
6.81817
6.84228
6.86718
6.89261
6.91837
6.94429
6.97018
6.99585
7.02113
7.04586
7.06991
7.09321
7.11572
7.13745
7.15843
7.17868
7.19823
7.21707
7.23518
7.25253
7.26908
7.28479
7.29964
7.31358
7.32655
7.33845
7.34918
7.35859
7.36655
7.37288
7.37745
7.38007
7.3806
7.37886
7.37466
7.36782
7.35812
7.34534
7.32928
7.30971
7.28645
7.25934
7.22829
7.19333
7.1547
7.11287
7.06868
7.02328
6.97814
6.93486
6.89494
6.85963
6.82975
6.80574
6.78778
6.77586
6.76992
6.46334
6.46875
6.47923
6.49419
6.51288
6.53449
6.55828
6.58363
6.61007
6.63726
6.66494
6.69294
6.72108
6.74916
6.77699
6.80436
6.83109
6.85703
6.88211
6.9063
6.92963
6.95213
6.97386
6.99486
7.01511
7.03459
7.05327
7.07109
7.08803
7.10406
7.11914
7.1332
7.14615
7.15788
7.16821
7.177
7.18406
7.18922
7.19231
7.19316
7.19159
7.18739
7.18035
7.17025
7.15683
7.13985
7.11905
7.0942
7.06507
7.0315
6.99346
6.95111
6.90494
6.85584
6.80515
6.7546
6.70612
6.66157
6.62238
6.58945
6.56319
6.54367
6.53078
6.52438
6.22523
6.23137
6.24324
6.2601
6.28102
6.30502
6.33126
6.35902
6.38779
6.41724
6.44714
6.47733
6.50764
6.53788
6.56783
6.59726
6.62595
6.65374
6.68053
6.70632
6.73115
6.75509
6.77823
6.80061
6.82222
6.84303
6.86299
6.88204
6.90016
6.91733
6.93351
6.94865
6.96265
6.97537
6.98664
6.99627
7.00407
7.00986
7.01345
7.01466
7.01331
7.00918
7.00204
6.99162
6.97767
6.95989
6.93799
6.91167
6.88066
6.8447
6.80365
6.75761
6.70702
6.65281
6.59652
6.54018
6.48618
6.43674
6.39356
6.35759
6.32916
6.30818
6.29441
6.2876
5.99579
6.00275
6.01617
6.0351
6.05842
6.08497
6.11373
6.14394
6.17504
6.20671
6.23878
6.27111
6.30356
6.33593
6.36798
6.39944
6.43004
6.45961
6.48805
6.51535
6.54159
6.5669
6.59138
6.61507
6.63799
6.66009
6.68129
6.70153
6.72078
6.73904
6.75629
6.77249
6.78753
6.80126
6.81347
6.82397
6.83253
6.83896
6.84308
6.8447
6.84362
6.83962
6.83244
6.82181
6.80742
6.78896
6.76609
6.73846
6.70571
6.6675
6.62357
6.57386
6.51877
6.45925
6.39702
6.33449
6.27456
6.21997
6.17271
6.13375
6.10326
6.08095
6.06641
6.05924
5.77458
5.78247
5.79759
5.81881
5.84473
5.87396
5.90535
5.93804
5.97144
6.00529
6.03946
6.07388
6.10842
6.14289
6.17702
6.21048
6.24297
6.27426
6.30427
6.333
6.36058
6.38716
6.41289
6.43785
6.46204
6.48538
6.50778
6.52916
6.54949
6.56881
6.5871
6.60434
6.62041
6.63515
6.64832
6.6597
6.66904
6.67614
6.68082
6.68287
6.68211
6.67829
6.67116
6.6604
6.64567
6.62664
6.60294
6.57415
6.53983
6.49954
6.45284
6.39955
6.3399
6.27486
6.20632
6.13712
6.07081
6.0108
5.95938
5.9175
5.88511
5.86166
5.84647
5.83902
5.56119
5.57011
5.58713
5.61086
5.6396
5.67167
5.70578
5.74097
5.77665
5.8126
5.8488
5.88524
5.92183
5.95837
5.99457
6.03002
6.06436
6.09733
6.12884
6.15891
6.18771
6.21547
6.2424
6.26857
6.29397
6.31853
6.3421
6.36458
6.38594
6.40626
6.42556
6.44382
6.46092
6.47667
6.49082
6.50309
6.51323
6.52102
6.52626
6.52878
6.52838
6.52481
6.51779
6.50698
6.49202
6.47254
6.44813
6.41833
6.38262
6.34043
6.29115
6.23435
6.17012
6.09936
6.02412
5.9477
5.87448
5.80873
5.75312
5.70847
5.6744
5.64999
5.63432
5.62667
5.3552
5.36528
5.38442
5.41093
5.44272
5.47779
5.5147
5.55241
5.59032
5.62829
5.66642
5.70482
5.74342
5.782
5.82026
5.8577
5.89385
5.92845
5.96139
5.9927
6.02262
6.05148
6.07953
6.10685
6.13344
6.15919
6.18391
6.20743
6.22977
6.25104
6.27131
6.29057
6.30869
6.32548
6.34062
6.35379
6.36474
6.37323
6.37906
6.38206
6.38205
6.37878
6.37194
6.36116
6.34606
6.32623
6.30125
6.2706
6.23369
6.18981
6.13815
6.078
6.00917
5.93251
5.85015
5.76586
5.68513
5.61332
5.55351
5.5063
5.47081
5.4457
5.42972
5.42196
5.15622
5.16762
5.18912
5.2187
5.25379
5.29203
5.33182
5.37205
5.41212
5.45201
5.49197
5.53226
5.57281
5.61341
5.65373
5.69316
5.73111
5.76729
5.80158
5.83403
5.86497
5.89482
5.92392
5.95236
5.9801
6.00703
6.03287
6.05739
6.08064
6.1028
6.12401
6.14425
6.16339
6.18122
6.19737
6.21147
6.22323
6.23242
6.23885
6.24236
6.24277
6.23985
6.23326
6.22258
6.20741
6.18734
6.16192
6.13057
6.09265
6.04732
5.99352
5.93019
5.85682
5.77408
5.68416
5.59128
5.50228
5.42408
5.36014
5.31064
5.27407
5.24854
5.23243
5.22466
4.96389
4.97677
5.0009
5.03389
5.07256
5.11411
5.15685
5.19962
5.24175
5.28342
5.32509
5.36719
5.40965
5.45223
5.49465
5.5361
5.5758
5.61352
5.6491
5.68258
5.71441
5.74515
5.77523
5.80474
5.8336
5.86171
5.88867
5.91414
5.93824
5.96121
5.98332
6.00452
6.02467
6.04357
6.06077
6.07579
6.08837
6.09828
6.10531
6.10932
6.11018
6.10766
6.10138
6.09088
6.07572
6.0555
6.02976
5.99786
5.95911
5.9126
5.85694
5.79067
5.71282
5.62388
5.52596
5.42364
5.32549
5.24053
5.17262
5.12121
5.08394
5.05829
5.04227
5.03458
4.77784
4.79241
4.81945
4.85621
4.89878
4.94377
4.98953
5.03483
5.07891
5.1222
5.16543
5.20928
5.25361
5.29814
5.34268
5.38618
5.42762
5.46682
5.50363
5.53802
5.57062
5.60213
5.63315
5.66369
5.69364
5.72294
5.75102
5.77739
5.80224
5.82597
5.84894
5.87108
5.89223
5.91222
5.93049
5.94644
5.95985
5.97048
5.9781
5.98263
5.98396
5.98187
5.97596
5.9657
5.95062
5.93033
5.90439
5.87208
5.8327
5.78528
5.72808
5.65916
5.57695
5.48173
5.37542
5.26263
5.15425
5.06219
4.99056
4.93773
4.90021
4.87478
4.85905
4.85155
4.59772
4.61422
4.64447
4.68542
4.73224
4.78076
4.8296
4.87744
4.92331
4.96804
5.01267
5.05821
5.10436
5.15078
5.19751
5.24314
5.28625
5.3269
5.36489
5.40006
5.43327
5.46543
5.49735
5.5289
5.5599
5.59043
5.61966
5.64685
5.67236
5.69675
5.72056
5.74363
5.76575
5.78688
5.80626
5.82314
5.83737
5.84873
5.85692
5.86195
5.86376
5.86217
5.85668
5.84673
5.83178
5.8115
5.78547
5.75287
5.71303
5.66501
5.60664
5.53541
5.449
5.34748
5.23243
5.108
4.98802
4.88856
4.81363
4.75995
4.72268
4.69782
4.6826
4.67538
4.42319
4.44193
4.47566
4.52129
4.57274
4.62484
4.67681
4.72719
4.77467
4.82064
4.86646
4.91366
4.9616
5.00983
5.05885
5.1067
5.15141
5.19347
5.2326
5.2684
5.30208
5.33475
5.36754
5.40007
5.43207
5.46389
5.49432
5.52224
5.54832
5.57326
5.5979
5.62189
5.64494
5.66726
5.68782
5.70559
5.72065
5.73274
5.74148
5.747
5.7493
5.74823
5.74324
5.73365
5.71888
5.69865
5.67266
5.63988
5.59972
5.55143
5.49228
5.41918
5.32872
5.22097
5.09699
4.95952
4.82623
4.71913
4.6415
4.58768
4.5512
4.52726
4.51276
4.50592
4.25393
4.27528
4.31272
4.36361
4.42014
4.47575
4.5309
4.58389
4.63273
4.67971
4.72646
4.77533
4.82505
4.87493
4.9264
4.97663
5.0228
5.06624
5.10652
5.14276
5.17676
5.20977
5.24344
5.27695
5.30986
5.34306
5.37477
5.40333
5.42984
5.45521
5.48068
5.50558
5.5295
5.55309
5.57491
5.59353
5.60941
5.62224
5.63149
5.63749
5.64026
5.63978
5.63533
5.62617
5.61161
5.59147
5.56564
5.53276
5.49239
5.4442
5.38469
5.31022
5.21589
5.10205
4.96919
4.817
4.66821
4.55338
4.47389
4.42074
4.38563
4.36297
4.34939
4.34301
4.0896
4.11406
4.15536
4.21217
4.27432
4.33323
4.39161
4.44733
4.49721
4.54497
4.59235
4.64296
4.69446
4.74576
4.79989
4.85271
4.90014
4.94495
4.98642
5.02288
5.05703
5.09018
5.12478
5.15928
5.19296
5.22769
5.26082
5.28984
5.31668
5.3423
5.36865
5.39448
5.41916
5.44412
5.4673
5.48669
5.50339
5.51699
5.52668
5.53314
5.53638
5.53652
5.5327
5.52401
5.50967
5.48964
5.46411
5.43119
5.39067
5.34296
5.28353
5.20833
5.11025
4.99053
4.84921
4.68032
4.51316
4.3908
4.31056
4.25903
4.22587
4.20482
4.19232
4.18648
3.92988
3.95811
4.00324
4.06678
4.13522
4.19701
4.2587
4.31737
4.36783
4.41615
4.46375
4.51629
4.56959
4.62193
4.67904
4.73478
4.78311
4.82931
4.87211
4.90849
4.94265
4.97567
5.01132
5.04685
5.08105
5.11753
5.15229
5.18156
5.2086
5.23426
5.26158
5.28835
5.31361
5.34011
5.3648
5.3848
5.40233
5.41675
5.42681
5.4337
5.43736
5.4382
5.43507
5.42692
5.41279
5.39284
5.36781
5.33487
5.29415
5.24739
5.18846
5.11331
5.01152
4.88616
4.73739
4.54943
4.36017
4.23088
4.15134
4.10244
4.07181
4.05268
4.04142
4.03618
3.77441
3.80734
3.85599
3.92729
4.00285
4.06675
4.1319
4.19388
4.24433
4.29305
4.34031
4.39507
4.45028
4.50306
4.56362
4.62272
4.67141
4.71905
4.76341
4.79931
4.83337
4.86591
4.90284
4.93946
4.97382
5.01236
5.04904
5.07822
5.10537
5.13079
5.15925
5.18702
5.21255
5.24081
5.26724
5.28761
5.30598
5.32133
5.3316
5.33891
5.34294
5.34457
5.34219
5.33465
5.32071
5.30076
5.27648
5.24351
5.20244
5.15717
5.09912
5.02502
4.91939
4.78863
4.63425
4.4244
4.20806
4.07314
3.99611
3.95093
3.92339
3.90643
3.89653
3.89195
3.62282
3.66178
3.71318
3.79351
3.87729
3.94208
4.01092
4.07681
4.12637
4.17545
4.2216
4.27913
4.3364
4.3887
4.45337
4.51648
4.56469
4.61391
4.66022
4.69507
4.72901
4.76056
4.79912
4.83697
4.87091
4.91195
4.95096
4.97958
5.00682
5.03157
5.06145
5.09031
5.11568
5.14603
5.17448
5.19485
5.21412
5.23052
5.24082
5.24857
5.25287
5.25538
5.25383
5.24698
5.23319
5.2131
5.18991
5.15686
5.11512
5.07203
5.0151
4.94338
4.83351
4.69745
4.54053
4.3054
4.05541
3.91718
3.84487
3.80449
3.78051
3.76595
3.75751
3.75362
3.47472
3.52157
3.57428
3.66531
3.75876
3.82253
3.89547
3.96619
4.01362
4.06324
4.10716
4.16827
4.2279
4.27834
4.34807
4.41609
4.46255
4.5136
4.56247
4.59547
4.62941
4.65925
4.70001
4.73928
4.77193
4.81609
4.85801
4.88537
4.91278
4.93628
4.96801
4.99811
5.02263
5.05554
5.08642
5.10623
5.12651
5.14418
5.15422
5.16245
5.16687
5.17043
5.16976
5.16371
5.15
5.12952
5.10793
5.0747
5.03172
4.99173
4.93596
4.86839
4.75351
4.61194
4.45722
4.19281
3.9004
3.7627
3.69765
3.66314
3.64312
3.63112
3.62421
3.62103
3.32963
3.38707
3.43862
3.54253
3.64762
3.70753
3.78523
3.86212
3.90563
3.95635
3.99645
4.06237
4.12483
4.17137
4.24751
4.32169
4.36455
4.41784
4.47017
4.50014
4.53447
4.56156
4.60533
4.64635
4.67642
4.72459
4.77021
4.79527
4.82313
4.84455
4.87877
4.91036
4.93304
4.96916
5.00304
5.02145
5.04293
5.06218
5.07154
5.08038
5.08471
5.0895
5.08977
5.08465
5.07096
5.04967
5.0304
4.99686
4.95174
4.91612
4.86115
4.80018
4.67897
4.53114
4.38567
4.08722
3.74074
3.60962
3.55461
3.52689
3.51115
3.50181
3.49646
3.494
3.18701
3.25884
3.30535
3.42504
3.54438
3.59636
3.67987
3.76486
3.80188
3.85486
3.88885
3.96133
4.02735
4.06709
4.15147
4.23354
4.27012
4.32633
4.38341
4.4087
4.44417
4.46702
4.51498
4.55823
4.58387
4.63727
4.68763
4.70893
4.73785
4.75596
4.79362
4.82706
4.84646
4.8867
4.92435
4.94018
4.96315
4.98443
4.99251
5.00221
5.0061
5.01241
5.01364
5.00963
4.99588
4.97318
4.95722
4.9232
4.87462
4.84511
4.79001
4.73902
4.6095
4.45372
4.3276
3.98949
3.57349
3.45808
3.41599
3.39578
3.38452
3.37788
3.37409
3.37236
3.04618
3.13779
3.17339
3.31271
3.44983
3.4881
3.57902
3.67482
3.70168
3.75898
3.78356
3.86512
3.93575
3.96461
4.05977
4.15205
4.17861
4.23877
4.30241
4.32062
4.3586
4.37505
4.42888
4.47505
4.49365
4.55395
4.61047
4.62589
4.65696
4.67004
4.71245
4.74826
4.76237
4.80801
4.85046
4.86201
4.88697
4.9109
4.91683
4.92781
4.93079
4.93902
4.94116
4.93849
4.92465
4.89962
4.88835
4.85367
4.7997
4.7788
4.72174
4.6854
4.54468
4.37785
4.28516
3.90085
3.39498
3.30864
3.28208
3.26986
3.26314
3.2592
3.25696
3.25593
2.90632
3.0252
3.04134
3.20542
3.365
3.38159
3.48231
3.59262
3.60414
3.66914
3.67966
3.77373
3.85052
3.86286
3.97225
4.07784
4.08919
4.15484
4.22753
4.23528
4.27799
4.285
4.34697
4.39707
4.40501
4.47449
4.539
4.54559
4.58063
4.58621
4.6352
4.67413
4.68018
4.73295
4.78153
4.78651
4.81417
4.84161
4.84418
4.85712
4.85847
4.86917
4.87212
4.87109
4.85716
4.8285
4.82383
4.78827
4.72618
4.71742
4.65528
4.64002
4.48418
4.30111
4.26107
3.82295
3.20055
3.16235
3.15321
3.14914
3.14692
3.14562
3.14488
3.14454
)
;

boundaryField
{
    left
    {
        type            zeroGradient;
    }
    right
    {
        type            zeroGradient;
    }
    interface
    {
        type            fixedValue;
        value           nonuniform List<scalar> 
64
(
2.83482
2.97288
2.97288
3.1531
3.32731
3.32731
3.43479
3.55505
3.55505
3.62667
3.62667
3.72951
3.81055
3.81055
3.92958
4.04407
4.04407
4.11365
4.19266
4.19266
4.23955
4.23955
4.30724
4.36005
4.36005
4.43579
4.50563
4.50563
4.54412
4.54412
4.59772
4.63878
4.63878
4.69637
4.74901
4.74901
4.7786
4.8084
4.8084
4.82287
4.82287
4.83524
4.83849
4.83849
4.82456
4.7931
4.7931
4.757
4.68884
4.68884
4.62155
4.62155
4.45533
4.25982
4.25982
3.78975
3.09007
3.09007
3.09007
3.09007
3.09007
3.09007
3.09007
3.09007
)
;
    }
    bottom
    {
        type            fixedValue;
        value           uniform 10;
    }
    defaultFaces
    {
        type            empty;
    }
}


// ************************************************************************* //
