/*--------------------------------*- C++ -*----------------------------------*\
| =========                 |                                                 |
| \\      /  F ield         | OpenFOAM: The Open Source CFD Toolbox           |
|  \\    /   O peration     | Version:  5.x                                   |
|   \\  /    A nd           | Web:      www.OpenFOAM.org                      |
|    \\/     M anipulation  |                                                 |
\*---------------------------------------------------------------------------*/
FoamFile
{
    version     2.0;
    format      ascii;
    class       volScalarField;
    location    "3.9";
    object      T;
}
// * * * * * * * * * * * * * * * * * * * * * * * * * * * * * * * * * * * * * //

dimensions      [0 0 0 1 0 0 0];

internalField   nonuniform List<scalar> 
2048
(
9.81021
9.8104
9.81079
9.81136
9.81209
9.81298
9.81399
9.81511
9.81631
9.81759
9.81892
9.82029
9.82168
9.82308
9.82448
9.82587
9.82725
9.8286
9.82992
9.83121
9.83246
9.83367
9.83485
9.83597
9.83706
9.8381
9.83909
9.84003
9.84091
9.84174
9.84251
9.84321
9.84384
9.84439
9.84486
9.84524
9.84552
9.8457
9.84576
9.84569
9.84549
9.84514
9.84464
9.84399
9.84316
9.84217
9.841
9.83966
9.83814
9.83647
9.83466
9.83273
9.83071
9.82865
9.82657
9.82454
9.82259
9.82078
9.81914
9.81773
9.81656
9.81566
9.81505
9.81475
9.43875
9.43934
9.4405
9.44219
9.44438
9.44701
9.45001
9.45333
9.45692
9.4607
9.46465
9.4687
9.47282
9.47697
9.48112
9.48524
9.48931
9.49331
9.49722
9.50104
9.50474
9.50833
9.51179
9.51513
9.51834
9.52141
9.52434
9.52712
9.52974
9.53219
9.53446
9.53654
9.53841
9.54006
9.54145
9.54258
9.54342
9.54394
9.54411
9.54392
9.54333
9.54232
9.54086
9.53892
9.53649
9.53356
9.5301
9.52612
9.52164
9.51669
9.51131
9.50558
9.49958
9.49343
9.48726
9.48121
9.47541
9.47002
9.46516
9.46095
9.45747
9.4548
9.453
9.45209
9.0831
9.08408
9.08599
9.0888
9.09242
9.09675
9.10171
9.10718
9.11308
9.11931
9.12579
9.13243
9.13919
9.146
9.1528
9.15955
9.16621
9.17275
9.17915
9.18539
9.19144
9.1973
9.20297
9.20842
9.21367
9.21869
9.22347
9.22802
9.2323
9.23632
9.24004
9.24345
9.24652
9.24922
9.25152
9.25338
9.25477
9.25563
9.25595
9.25565
9.25471
9.25308
9.25072
9.24758
9.24362
9.23883
9.23318
9.22668
9.21934
9.21121
9.20237
9.19294
9.18305
9.1729
9.16271
9.1527
9.14312
9.1342
9.12617
9.11921
9.11347
9.10908
9.1061
9.1046
8.74234
8.7437
8.74638
8.7503
8.75535
8.76139
8.76828
8.77588
8.78405
8.79267
8.80162
8.8108
8.82012
8.8295
8.83887
8.84816
8.85732
8.86632
8.87511
8.88367
8.89198
8.90002
8.90779
8.91528
8.92247
8.92936
8.93593
8.94217
8.94806
8.95359
8.95871
8.96341
8.96764
8.97138
8.97456
8.97715
8.97909
8.98033
8.9808
8.98044
8.9792
8.977
8.9738
8.96953
8.96414
8.95759
8.94985
8.94091
8.93081
8.91959
8.90736
8.89428
8.88054
8.86642
8.85221
8.83826
8.82489
8.81246
8.80127
8.79158
8.7836
8.77749
8.77336
8.77127
8.41561
8.41737
8.42083
8.42589
8.43239
8.44015
8.44898
8.45871
8.46914
8.48011
8.49149
8.50315
8.51497
8.52685
8.53871
8.55047
8.56205
8.57341
8.58451
8.5953
8.60577
8.61591
8.6257
8.63514
8.6442
8.65289
8.66118
8.66905
8.67649
8.68347
8.68995
8.6959
8.70128
8.70603
8.7101
8.71342
8.71592
8.71754
8.7182
8.71782
8.71633
8.71364
8.70967
8.70435
8.69762
8.6894
8.67966
8.66839
8.6556
8.64136
8.62579
8.60909
8.59151
8.5734
8.55514
8.53719
8.52
8.50401
8.48963
8.47719
8.46696
8.45914
8.45387
8.45121
8.10215
8.10433
8.10861
8.11484
8.12283
8.13234
8.14314
8.15499
8.16767
8.18099
8.19477
8.20886
8.22313
8.23746
8.25175
8.26589
8.27982
8.29347
8.30679
8.31973
8.33228
8.34443
8.35616
8.36746
8.37832
8.38873
8.39867
8.40813
8.41706
8.42545
8.43326
8.44043
8.44693
8.45269
8.45763
8.46169
8.46478
8.46681
8.46769
8.46734
8.46565
8.46253
8.45788
8.4516
8.4436
8.43381
8.42217
8.40865
8.39326
8.37606
8.35719
8.33688
8.31543
8.29327
8.27089
8.24885
8.22774
8.20812
8.19049
8.17527
8.16278
8.15326
8.14683
8.1436
7.80125
7.80387
7.809
7.81646
7.82599
7.83731
7.85012
7.86412
7.87906
7.8947
7.91085
7.92734
7.94402
7.96075
7.9774
7.99388
8.01009
8.02595
8.04141
8.05642
8.07097
8.08504
8.09863
8.11172
8.12431
8.13638
8.14791
8.15889
8.16927
8.17903
8.18812
8.1965
8.2041
8.21085
8.21668
8.22148
8.22517
8.22764
8.2288
8.22852
8.22669
8.22321
8.21795
8.2108
8.20165
8.19039
8.17695
8.16127
8.14335
8.12325
8.10111
8.07717
8.05181
8.02551
7.99889
7.97264
7.94748
7.92411
7.90316
7.88511
7.87034
7.8591
7.85154
7.84774
7.51224
7.51533
7.52137
7.53013
7.54128
7.55447
7.56933
7.58552
7.60273
7.62069
7.63919
7.65805
7.67709
7.69617
7.71514
7.7339
7.75232
7.77032
7.78785
7.80485
7.82132
7.83723
7.8526
7.86741
7.88166
7.89532
7.90839
7.92083
7.93261
7.9437
7.95405
7.9636
7.97229
7.98004
7.98675
7.99232
7.99663
7.99958
8.00104
8.00088
7.99899
7.99522
7.98944
7.9815
7.97129
7.95867
7.94352
7.92579
7.90543
7.88248
7.85709
7.82951
7.80016
7.76962
7.7386
7.70797
7.67861
7.65136
7.62699
7.60606
7.58899
7.57604
7.56734
7.56298
7.23451
7.2381
7.24512
7.25526
7.26812
7.28326
7.30024
7.31865
7.33814
7.35842
7.37926
7.40045
7.42182
7.4432
7.46445
7.48543
7.50601
7.52609
7.54561
7.56453
7.58283
7.60051
7.61758
7.63403
7.64987
7.66508
7.67962
7.69348
7.70662
7.71899
7.73057
7.74128
7.75105
7.75979
7.76739
7.77373
7.7787
7.78215
7.78395
7.78398
7.78207
7.77809
7.77186
7.76325
7.75207
7.73819
7.72146
7.70177
7.67906
7.65333
7.62471
7.59347
7.56005
7.52512
7.48954
7.45432
7.42055
7.38928
7.36137
7.3375
7.31812
7.30346
7.29366
7.28875
6.96747
6.97161
6.97968
6.99131
7.00598
7.02317
7.04234
7.06302
7.08481
7.1074
7.13055
7.15404
7.1777
7.20136
7.22484
7.24799
7.27066
7.29276
7.31421
7.33496
7.35501
7.37438
7.39308
7.41111
7.42848
7.44517
7.46114
7.47636
7.49081
7.50444
7.51721
7.52905
7.53989
7.54962
7.55812
7.56526
7.5709
7.57489
7.57709
7.57734
7.57548
7.57135
7.56478
7.55557
7.54354
7.52851
7.5103
7.48877
7.4638
7.43537
7.40356
7.36863
7.33105
7.29158
7.25121
7.21117
7.17278
7.13729
7.10574
7.07888
7.05718
7.04085
7.02996
7.02453
6.71058
6.71533
6.72455
6.73777
6.75438
6.77372
6.79516
6.81815
6.84226
6.86716
6.89259
6.91835
6.94427
6.97015
6.99583
7.0211
7.04583
7.06988
7.09318
7.11569
7.13742
7.15839
7.17864
7.19819
7.21703
7.23514
7.25248
7.26903
7.28474
7.29959
7.31352
7.32648
7.33838
7.34911
7.35852
7.36647
7.3728
7.37736
7.37999
7.38051
7.37877
7.37457
7.36772
7.35802
7.34524
7.32918
7.30961
7.28635
7.25924
7.22819
7.19324
7.1546
7.11278
7.06858
7.02319
6.97805
6.93477
6.89486
6.85955
6.82967
6.80566
6.7877
6.77578
6.76985
6.46333
6.46873
6.47921
6.49418
6.51286
6.53447
6.55826
6.58361
6.61005
6.63724
6.66492
6.69292
6.72105
6.74913
6.77696
6.80433
6.83106
6.85701
6.88209
6.90627
6.92959
6.95209
6.97383
6.99482
7.01507
7.03455
7.05322
7.07104
7.08798
7.104
7.11908
7.13313
7.14609
7.1578
7.16814
7.17692
7.18397
7.18913
7.19222
7.19306
7.19149
7.18729
7.18025
7.17014
7.15672
7.13974
7.11895
7.09409
7.06496
7.03139
6.99335
6.95101
6.90484
6.85575
6.80506
6.7545
6.70603
6.66148
6.62229
6.58936
6.56311
6.54359
6.5307
6.5243
6.22521
6.23135
6.24322
6.26008
6.281
6.305
6.33124
6.359
6.38777
6.41722
6.44712
6.4773
6.50762
6.53786
6.56781
6.59724
6.62592
6.65371
6.6805
6.70629
6.73111
6.75506
6.7782
6.80057
6.82218
6.84298
6.86294
6.88199
6.90011
6.91727
6.93345
6.94858
6.96258
6.97529
6.98656
6.99619
7.00398
7.00976
7.01335
7.01456
7.01321
7.00908
7.00193
6.99151
6.97756
6.95977
6.93787
6.91156
6.88055
6.84459
6.80354
6.7575
6.70691
6.65271
6.59642
6.54009
6.48608
6.43665
6.39347
6.35751
6.32907
6.3081
6.29433
6.28752
5.99577
6.00273
6.01615
6.03508
6.0584
6.08495
6.11371
6.14392
6.17502
6.20669
6.23875
6.27108
6.30353
6.3359
6.36795
6.39941
6.43001
6.45958
6.48801
6.51531
6.54156
6.56687
6.59134
6.61503
6.63795
6.66004
6.68124
6.70147
6.72072
6.73898
6.75623
6.77242
6.78746
6.80118
6.81339
6.82388
6.83244
6.83887
6.84298
6.8446
6.84351
6.83951
6.83233
6.8217
6.8073
6.78884
6.76597
6.73834
6.7056
6.66738
6.62345
6.57375
6.51866
6.45915
6.39691
6.33439
6.27446
6.21988
6.17262
6.13366
6.10317
6.08087
6.06632
6.05916
5.77456
5.78245
5.79757
5.81879
5.84471
5.87394
5.90533
5.93801
5.97142
6.00527
6.03944
6.07385
6.10839
6.14286
6.17699
6.21045
6.24294
6.27423
6.30424
6.33297
6.36054
6.38712
6.41285
6.43781
6.46199
6.48533
6.50773
6.5291
6.54943
6.56874
6.58704
6.60427
6.62034
6.63507
6.64824
6.6596
6.66894
6.67604
6.68071
6.68276
6.68199
6.67818
6.67104
6.66028
6.64555
6.62652
6.60282
6.57403
6.53971
6.49941
6.45272
6.39943
6.33978
6.27475
6.20621
6.13701
6.07071
6.0107
5.95929
5.91741
5.88502
5.86157
5.84638
5.83894
5.56117
5.57008
5.58711
5.61084
5.63958
5.67165
5.70576
5.74094
5.77663
5.81258
5.84877
5.88522
5.92181
5.95835
5.99454
6.03
6.06433
6.0973
6.12881
6.15887
6.18767
6.21544
6.24236
6.26853
6.29392
6.31848
6.34205
6.36452
6.38588
6.40619
6.42549
6.44375
6.46084
6.47659
6.49073
6.503
6.51313
6.52091
6.52615
6.52867
6.52826
6.52469
6.51767
6.50685
6.49189
6.47241
6.448
6.4182
6.38249
6.3403
6.29102
6.23423
6.17
6.09925
6.02401
5.94759
5.87438
5.80863
5.75302
5.70838
5.67431
5.6499
5.63423
5.62658
5.35518
5.36526
5.3844
5.41091
5.44269
5.47777
5.51468
5.55239
5.5903
5.62827
5.6664
5.7048
5.74339
5.78197
5.82023
5.85767
5.89382
5.92842
5.96136
5.99266
6.02259
6.05144
6.07948
6.10681
6.13339
6.15914
6.18385
6.20737
6.22971
6.25097
6.27124
6.2905
6.30861
6.32539
6.34053
6.3537
6.36464
6.37312
6.37895
6.38195
6.38193
6.37866
6.37182
6.36104
6.34593
6.3261
6.30112
6.27047
6.23356
6.18968
6.13802
6.07787
6.00905
5.93239
5.85003
5.76575
5.68502
5.61322
5.55341
5.5062
5.47072
5.44561
5.42963
5.42187
5.1562
5.16759
5.1891
5.21868
5.25377
5.292
5.33179
5.37203
5.4121
5.45198
5.49195
5.53223
5.57278
5.61338
5.6537
5.69314
5.73108
5.76726
5.80155
5.834
5.86493
5.89478
5.92388
5.95231
5.98005
6.00698
6.03281
6.05734
6.08058
6.10273
6.12394
6.14417
6.1633
6.18113
6.19728
6.21137
6.22312
6.23232
6.23874
6.24224
6.24265
6.23973
6.23313
6.22245
6.20728
6.18721
6.16179
6.13044
6.09251
6.04719
5.99339
5.93006
5.85669
5.77396
5.68404
5.59117
5.50218
5.42397
5.36004
5.31055
5.27398
5.24844
5.23234
5.22456
4.96386
4.97675
5.00088
5.03386
5.07254
5.11408
5.15683
5.1996
5.24173
5.2834
5.32506
5.36717
5.40963
5.45221
5.49462
5.53607
5.57577
5.61349
5.64906
5.68254
5.71437
5.74511
5.77519
5.8047
5.83356
5.86166
5.88862
5.91409
5.93818
5.96115
5.98325
6.00445
6.02459
6.04348
6.06067
6.07569
6.08826
6.09817
6.10519
6.1092
6.11006
6.10753
6.10124
6.09074
6.07558
6.05536
6.02962
5.99772
5.95897
5.91246
5.8568
5.79053
5.71269
5.62376
5.52584
5.42352
5.32538
5.24042
5.17251
5.12111
5.08384
5.0582
5.04218
5.03449
4.77781
4.79238
4.81943
4.85619
4.89876
4.94375
4.98951
5.03481
5.07889
5.12218
5.16541
5.20926
5.25358
5.29811
5.34265
5.38616
5.42759
5.46679
5.5036
5.53799
5.57058
5.60209
5.63311
5.66364
5.69359
5.72289
5.75097
5.77734
5.80218
5.8259
5.84887
5.87101
5.89214
5.91213
5.93039
5.94634
5.95974
5.97037
5.97798
5.9825
5.98383
5.98174
5.97582
5.96556
5.95048
5.93019
5.90425
5.87194
5.83255
5.78514
5.72794
5.65902
5.57682
5.48161
5.37529
5.26251
5.15413
5.06208
4.99046
4.93762
4.90011
4.87468
4.85896
4.85145
4.59769
4.6142
4.64445
4.6854
4.73222
4.78074
4.82958
4.87742
4.92329
4.96802
5.01264
5.05818
5.10434
5.15076
5.19749
5.24311
5.28623
5.32687
5.36486
5.40002
5.43324
5.46539
5.49731
5.52885
5.55985
5.59038
5.61961
5.64679
5.6723
5.69668
5.72049
5.74355
5.76566
5.78679
5.80617
5.82304
5.83726
5.84861
5.8568
5.86183
5.86363
5.86203
5.85654
5.84659
5.83164
5.81135
5.78532
5.75272
5.71288
5.66487
5.60649
5.53527
5.44886
5.34735
5.2323
5.10788
4.98791
4.88845
4.81353
4.75985
4.72258
4.69772
4.6825
4.67528
4.42317
4.44191
4.47563
4.52127
4.57272
4.62482
4.67679
4.72717
4.77465
4.82062
4.86643
4.91363
4.96158
5.0098
5.05882
5.10667
5.15139
5.19344
5.23257
5.26837
5.30205
5.33471
5.3675
5.40003
5.43203
5.46384
5.49427
5.52219
5.54826
5.57319
5.59783
5.62181
5.64485
5.66717
5.68772
5.70549
5.72054
5.73262
5.74135
5.74688
5.74917
5.7481
5.7431
5.7335
5.71874
5.6985
5.67251
5.63973
5.59957
5.55129
5.49213
5.41904
5.32858
5.22084
5.09687
4.9594
4.82612
4.71902
4.64139
4.58757
4.5511
4.52716
4.51267
4.50582
4.25391
4.27526
4.3127
4.36359
4.42012
4.47573
4.53087
4.58387
4.63271
4.67969
4.72644
4.77531
4.82503
4.87491
4.92637
4.9766
5.02278
5.06622
5.10649
5.14273
5.17673
5.20973
5.24339
5.27691
5.30981
5.34301
5.37472
5.40328
5.42979
5.45515
5.48061
5.50551
5.52942
5.553
5.57481
5.59343
5.6093
5.62212
5.63136
5.63736
5.64013
5.63964
5.63519
5.62602
5.61146
5.59132
5.56548
5.5326
5.49224
5.44405
5.38454
5.31008
5.21575
5.10191
4.96906
4.81687
4.66809
4.55327
4.47378
4.42064
4.38553
4.36287
4.34929
4.34291
4.08958
4.11403
4.15534
4.21214
4.2743
4.33321
4.39159
4.44732
4.49719
4.54495
4.59232
4.64294
4.69443
4.74573
4.79986
4.85268
4.90011
4.94492
4.9864
5.02285
5.057
5.09014
5.12474
5.15924
5.19291
5.22764
5.26078
5.2898
5.31663
5.34225
5.36859
5.3944
5.41907
5.44403
5.4672
5.48658
5.50327
5.51687
5.52656
5.53301
5.53624
5.53638
5.53256
5.52386
5.50952
5.48948
5.46395
5.43103
5.39051
5.3428
5.28337
5.20818
5.11011
4.99039
4.84908
4.68019
4.51305
4.39069
4.31045
4.25892
4.22577
4.20472
4.19222
4.18638
3.92985
3.95808
4.00321
4.06676
4.1352
4.19699
4.25868
4.31735
4.36781
4.41614
4.46373
4.51626
4.56957
4.62191
4.67902
4.73475
4.78309
4.82928
4.87208
4.90846
4.94262
4.97563
5.01128
5.04681
5.081
5.11748
5.15225
5.18151
5.20855
5.23421
5.26152
5.28828
5.31352
5.34001
5.3647
5.38469
5.40221
5.41663
5.42668
5.43357
5.43722
5.43806
5.43492
5.42677
5.41264
5.39268
5.36765
5.33471
5.29399
5.24723
5.1883
5.11315
5.01138
4.88602
4.73726
4.54931
4.36005
4.23077
4.15123
4.10234
4.07171
4.05258
4.04132
4.03608
3.77438
3.80731
3.85597
3.92726
4.00282
4.06673
4.13188
4.19386
4.24431
4.29303
4.34029
4.39505
4.45025
4.50303
4.56359
4.62269
4.67139
4.71903
4.76339
4.79929
4.83334
4.86587
4.9028
4.93942
4.97377
5.01231
5.04899
5.07818
5.10533
5.13074
5.15918
5.18694
5.21247
5.24072
5.26714
5.2875
5.30587
5.32121
5.33147
5.33878
5.3428
5.34443
5.34204
5.3345
5.32056
5.3006
5.27632
5.24334
5.20228
5.15701
5.09896
5.02486
4.91924
4.78849
4.63411
4.42427
4.20795
4.07303
3.99601
3.95083
3.92328
3.90633
3.89643
3.89185
3.6228
3.66175
3.71316
3.79349
3.87727
3.94206
4.0109
4.0768
4.12636
4.17543
4.22158
4.2791
4.33638
4.38867
4.45335
4.51646
4.56467
4.61389
4.6602
4.69505
4.72899
4.76052
4.79908
4.83693
4.87086
4.9119
4.95092
4.97954
5.00678
5.03152
5.06138
5.09024
5.1156
5.14593
5.17437
5.19474
5.21401
5.2304
5.24069
5.24843
5.25273
5.25524
5.25368
5.24683
5.23303
5.21294
5.18975
5.15669
5.11495
5.07187
5.01494
4.94322
4.83336
4.6973
4.54039
4.30527
4.0553
3.91707
3.84476
3.80439
3.78041
3.76585
3.75741
3.75352
3.47469
3.52155
3.57425
3.66528
3.75874
3.82251
3.89545
3.96617
4.0136
4.06322
4.10714
4.16825
4.22788
4.27831
4.34805
4.41607
4.46253
4.51358
4.56245
4.59544
4.62939
4.65921
4.69997
4.73924
4.77188
4.81605
4.85798
4.88533
4.91273
4.93623
4.96795
4.99804
5.02255
5.05545
5.08632
5.10612
5.1264
5.14406
5.15409
5.16232
5.16674
5.17029
5.16962
5.16356
5.14985
5.12935
5.10777
5.07454
5.03155
4.99157
4.9358
4.86823
4.75335
4.61179
4.45709
4.19269
3.90029
3.7626
3.69755
3.66303
3.64302
3.63102
3.62411
3.62093
3.32961
3.38704
3.43859
3.5425
3.64759
3.70751
3.78521
3.8621
3.90561
3.95634
3.99644
4.06235
4.12481
4.17135
4.24748
4.32167
4.36453
4.41782
4.47015
4.50012
4.53445
4.56153
4.60529
4.64631
4.67638
4.72455
4.77017
4.79524
4.8231
4.8445
4.87871
4.9103
4.93296
4.96907
5.00294
5.02134
5.04281
5.06206
5.07141
5.08025
5.08457
5.08936
5.08962
5.0845
5.0708
5.04951
5.03023
4.99669
4.95158
4.91595
4.86099
4.80002
4.67882
4.531
4.38553
4.08709
3.74062
3.60951
3.55451
3.52678
3.51105
3.50171
3.49636
3.4939
3.18698
3.25882
3.30533
3.42502
3.54436
3.59634
3.67985
3.76485
3.80186
3.85484
3.88883
3.96131
4.02732
4.06707
4.15145
4.23352
4.2701
4.32631
4.38339
4.40868
4.44415
4.46699
4.51494
4.55819
4.58382
4.63723
4.6876
4.7089
4.73781
4.75592
4.79356
4.82699
4.84638
4.88661
4.92425
4.94007
4.96304
4.98431
4.99238
5.00208
5.00597
5.01227
5.01349
5.00948
4.99573
4.97302
4.95705
4.92304
4.87446
4.84495
4.78985
4.73886
4.60934
4.45358
4.32746
3.98936
3.57338
3.45798
3.41589
3.39568
3.38442
3.37779
3.374
3.37226
3.04615
3.13777
3.17337
3.31269
3.44981
3.48808
3.57901
3.67481
3.70166
3.75897
3.78355
3.8651
3.93573
3.96458
4.05975
4.15203
4.17859
4.23876
4.3024
4.32061
4.35858
4.37503
4.42884
4.47501
4.4936
4.55391
4.61044
4.62586
4.65693
4.67
4.7124
4.74819
4.7623
4.80793
4.85036
4.86191
4.88686
4.91078
4.91671
4.92768
4.93066
4.93888
4.94102
4.93834
4.92449
4.89946
4.88819
4.85351
4.79953
4.77863
4.72158
4.68524
4.54453
4.37771
4.28503
3.90072
3.39488
3.30854
3.28198
3.26977
3.26305
3.25911
3.25686
3.25584
2.9063
3.02518
3.04132
3.2054
3.36498
3.38158
3.4823
3.59261
3.60413
3.66913
3.67965
3.77371
3.85049
3.86284
3.97224
4.07783
4.08918
4.15483
4.22752
4.23527
4.27798
4.28498
4.34693
4.39702
4.40497
4.47446
4.53898
4.54558
4.58061
4.58619
4.63515
4.67407
4.68012
4.73287
4.78144
4.78641
4.81407
4.84149
4.84406
4.857
4.85834
4.86904
4.87199
4.87095
4.85701
4.82834
4.82367
4.78811
4.72602
4.71727
4.65512
4.63986
4.48403
4.30097
4.26094
3.82284
3.20046
3.16226
3.15311
3.14905
3.14682
3.14552
3.14478
3.14445
)
;

boundaryField
{
    left
    {
        type            zeroGradient;
    }
    right
    {
        type            zeroGradient;
    }
    interface
    {
        type            fixedValue;
        value           nonuniform List<scalar> 
64
(
2.8348
2.97285
2.97285
3.15307
3.32729
3.32729
3.43477
3.55503
3.55503
3.62665
3.62665
3.72949
3.81053
3.81053
3.92955
4.04404
4.04404
4.11362
4.19263
4.19263
4.23951
4.23951
4.30721
4.36001
4.36001
4.43574
4.50558
4.50558
4.54407
4.54407
4.59766
4.63871
4.63871
4.69628
4.7489
4.7489
4.77848
4.80827
4.80827
4.82274
4.82274
4.8351
4.83834
4.83834
4.8244
4.79293
4.79293
4.75683
4.68867
4.68867
4.62139
4.62139
4.45517
4.25967
4.25967
3.78962
3.08998
3.08998
3.08998
3.08998
3.08998
3.08998
3.08998
3.08998
)
;
    }
    bottom
    {
        type            fixedValue;
        value           uniform 10;
    }
    defaultFaces
    {
        type            empty;
    }
}


// ************************************************************************* //
