/*--------------------------------*- C++ -*----------------------------------*\
| =========                 |                                                 |
| \\      /  F ield         | OpenFOAM: The Open Source CFD Toolbox           |
|  \\    /   O peration     | Version:  5.x                                   |
|   \\  /    A nd           | Web:      www.OpenFOAM.org                      |
|    \\/     M anipulation  |                                                 |
\*---------------------------------------------------------------------------*/
FoamFile
{
    version     2.0;
    format      ascii;
    class       volScalarField;
    location    "5.6001";
    object      gradTy;
}
// * * * * * * * * * * * * * * * * * * * * * * * * * * * * * * * * * * * * * //

dimensions      [0 -1 0 1 0 0 0];

internalField   nonuniform List<scalar> 
6300
(
32284.4
32253.1
32221.7
32190.1
32158.3
32126.2
32093.6
32060.7
32027.3
31993.4
31958.9
31923.8
31888.1
31851.8
31814.9
0.0533325
0.159494
0.264117
0.366073
0.464074
0.556631
0.64204
0.718399
0.783673
0.835814
0.872955
0.893649
0.897159
0.883732
0.854788
0.0894286
0.26749
0.443105
0.614451
0.779424
0.935564
1.08001
1.20952
1.32056
1.40952
1.473
1.50828
1.51384
1.48987
1.43872
0.126324
0.37794
0.626376
0.869218
1.10363
1.32622
1.53295
1.71914
1.87957
2.00873
2.10128
2.15269
2.1601
2.12324
2.04528
0.16425
0.491572
0.815242
1.13242
1.43966
1.73273
2.00642
2.25452
2.46985
2.64457
2.77071
2.84111
2.85063
2.79772
2.68594
0.203352
0.608857
1.0106
1.40555
1.78987
2.15862
2.5055
2.82268
3.10075
3.32898
3.49589
3.59041
3.60361
3.53106
3.37564
0.243654
0.729901
1.21276
1.68932
2.15565
2.60637
3.03428
3.42995
3.7815
4.07471
4.29346
4.42105
4.44235
4.34727
4.13541
0.285019
0.854329
1.42123
1.98333
2.53703
3.07695
3.59531
4.08133
4.52061
4.89489
5.18221
5.35799
5.3975
5.28028
4.99714
0.32711
0.981168
1.63449
2.28574
2.93219
3.56908
4.1887
4.77944
5.32473
5.80206
6.18252
6.4312
6.50942
6.37925
6.01223
0.369364
1.10874
1.84984
2.59293
3.33693
4.07848
4.81097
5.52302
6.19681
6.80613
7.31462
7.67494
7.82979
7.71518
7.26666
0.410965
1.23461
2.06318
2.89924
3.7441
4.59697
5.45367
6.30486
7.13339
7.91107
8.59493
9.12425
9.41978
9.38528
8.90407
0.450854
1.35554
2.26903
3.19675
4.14328
5.11162
6.10191
7.10936
8.12084
9.10986
10.0299
10.8075
11.3402
11.5028
11.145
0.487769
1.46767
2.46065
3.47545
4.52066
5.60432
6.733
7.90984
9.13078
10.3777
11.6073
12.7361
13.6315
14.1424
14.2147
0.520325
1.56671
2.63046
3.72374
4.85958
6.052
7.31593
8.66623
10.1147
11.663
13.2858
14.8986
16.309
17.2249
17.7619
0.547151
1.64838
2.77073
3.92949
5.14192
6.42817
7.8125
9.32441
10.999
12.8738
14.9745
17.2643
19.4837
20.6941
18.2818
31780.6
31749
31717.1
31684.8
31652.2
31619.3
31586.2
31552.7
31519.1
31485.2
31451.2
31417
31382.7
31348.2
31313.6
31279
31244.3
31209.6
31174.9
31140.2
31105.5
31070.8
31036.2
31001.6
30967
30932.4
30897.9
30863.4
30829
30794.6
30760.2
30725.9
30691.7
30657.6
30623.6
30589.6
30555.8
30522
30488.3
30454.7
30421.1
30387.7
30354.2
30320.9
30287.6
30254.4
30221.3
30188.3
30155.4
30122.6
30089.9
30057.3
30024.8
29992.3
29960
29927.7
29895.5
29863.4
29831.3
29799.3
29767.5
29735.6
29703.9
29672.3
29640.8
29609.4
29578
29546.8
29515.6
29484.5
29453.5
29422.5
29391.6
29360.8
29330
29299.3
29268.6
29238
29207.5
29177
29146.5
29116.1
29085.7
29055.3
29024.9
28994.4
28963.8
28933.1
28902.4
28871.6
0.816413
0.774804
0.72874
0.680429
0.631718
0.583846
0.53732
0.491927
0.446916
0.401276
0.354082
0.304816
0.2536
0.201292
0.149428
0.099999
0.0551288
0.0166961
-0.0140068
-0.0365187
-0.0513099
-0.0597253
-0.0637819
-0.0658578
-0.0683233
-0.0731734
-0.0817215
-0.094403
-0.110726
-0.129377
-0.148476
-0.165924
-0.179796
-0.188688
-0.19197
-0.189895
-0.183555
-0.174686
-0.165381
-0.157737
-0.153505
-0.153796
-0.158893
-0.16821
-0.180385
-0.193527
-0.205553
-0.214552
-0.219128
-0.218634
-0.213275
-0.204064
-0.192638
-0.180979
-0.171073
-0.164577
-0.162538
-0.165211
-0.172016
-0.181634
-0.192236
-0.201808
-0.208498
-0.210946
-0.208503
-0.201329
-0.190349
-0.177075
-0.16333
-0.15092
-0.141306
-0.13533
-0.133031
-0.133598
-0.13546
-0.13651
-0.134423
-0.12702
-0.112615
-0.0902967
-0.0600988
-0.0230573
0.0188513
0.0628759
0.105743
0.143977
0.174263
0.193819
0.200741
0.194248
1.37114
1.29816
1.21786
1.13439
1.05121
0.970598
0.893363
0.818881
0.745439
0.670815
0.592958
0.510633
0.423887
0.334254
0.244635
0.158871
0.0810924
0.0149755
-0.0369387
-0.073721
-0.0962462
-0.107077
-0.110069
-0.109771
-0.110719
-0.116723
-0.130283
-0.152206
-0.181499
-0.215575
-0.250741
-0.282883
-0.308234
-0.324056
-0.329126
-0.323941
-0.310614
-0.292509
-0.273672
-0.258152
-0.249333
-0.249362
-0.258791
-0.276474
-0.299764
-0.324974
-0.348042
-0.365254
-0.373903
-0.372748
-0.362203
-0.344243
-0.322047
-0.299452
-0.280303
-0.267807
-0.263993
-0.269361
-0.282788
-0.30171
-0.322571
-0.341448
-0.354753
-0.359853
-0.355515
-0.34208
-0.32137
-0.296342
-0.270555
-0.24754
-0.230174
-0.220141
-0.217587
-0.221017
-0.227458
-0.232891
-0.232861
-0.223186
-0.200613
-0.163345
-0.11135
-0.046452
0.0277909
0.106391
0.183383
0.252396
0.307308
0.342946
0.355738
0.344209
1.94256
1.83212
1.71162
1.588
1.46708
1.35257
1.24553
1.14442
1.04575
0.945101
0.838365
0.722913
0.598432
0.467299
0.334396
0.20635
0.0903725
-0.007086
-0.0815477
-0.131339
-0.157906
-0.165597
-0.160971
-0.151771
-0.145708
-0.149265
-0.166677
-0.199268
-0.245254
-0.300074
-0.357228
-0.409491
-0.450261
-0.474772
-0.480917
-0.469576
-0.444418
-0.411253
-0.37705
-0.348784
-0.332283
-0.331258
-0.346668
-0.376532
-0.416242
-0.459372
-0.49883
-0.528155
-0.542666
-0.540252
-0.521678
-0.490393
-0.451906
-0.412839
-0.379828
-0.358411
-0.352104
-0.361788
-0.385529
-0.418879
-0.455646
-0.489
-0.51271
-0.522243
-0.515519
-0.493201
-0.458507
-0.416601
-0.373688
-0.335932
-0.308388
-0.294089
-0.293439
-0.304013
-0.320825
-0.337055
-0.34511
-0.337847
-0.309698
-0.257528
-0.181111
-0.0832354
0.0305214
0.152284
0.272574
0.381176
0.468162
0.525026
0.545808
0.528007
2.53853
2.3806
2.20987
2.03772
1.87372
1.72379
1.58915
1.46646
1.34892
1.22814
1.09632
0.948193
0.782549
0.602891
0.417154
0.236443
0.0729774
-0.0622722
-0.161692
-0.22241
-0.246759
-0.241865
-0.218474
-0.189264
-0.166859
-0.161871
-0.181227
-0.227056
-0.296304
-0.381228
-0.470775
-0.552662
-0.615718
-0.651951
-0.657905
-0.635124
-0.589768
-0.531506
-0.471896
-0.422491
-0.392963
-0.389502
-0.413747
-0.462424
-0.527812
-0.599071
-0.664224
-0.712401
-0.735814
-0.73104
-0.69947
-0.646928
-0.582608
-0.517518
-0.462668
-0.427268
-0.417198
-0.433982
-0.47444
-0.531136
-0.593645
-0.650448
-0.691089
-0.708048
-0.697983
-0.66215
-0.606032
-0.538317
-0.469399
-0.409621
-0.367531
-0.348386
-0.353131
-0.378027
-0.415033
-0.45299
-0.479417
-0.482582
-0.453374
-0.386626
-0.28177
-0.142886
0.0217253
0.200301
0.378597
0.541085
0.672396
0.759065
0.791439
0.765339
3.16897
2.94751
2.71015
2.4757
2.26012
2.07297
1.91555
1.78107
1.65673
1.52709
1.37774
1.19868
0.986835
0.747221
0.492662
0.241684
0.0149334
-0.169072
-0.29759
-0.365872
-0.377747
-0.34479
-0.284382
-0.216981
-0.162957
-0.139446
-0.157683
-0.221147
-0.324808
-0.455751
-0.595383
-0.722977
-0.819828
-0.872763
-0.8763
-0.833209
-0.753733
-0.653732
-0.552074
-0.467606
-0.416136
-0.407877
-0.445674
-0.524279
-0.630957
-0.747591
-0.854087
-0.932336
-0.969575
-0.960438
-0.907486
-0.820448
-0.714443
-0.607473
-0.517523
-0.459671
-0.443642
-0.472106
-0.539987
-0.635043
-0.739874
-0.835188
-0.903584
-0.932781
-0.917569
-0.860322
-0.770269
-0.661779
-0.551959
-0.457852
-0.393645
-0.36829
-0.383816
-0.434607
-0.507879
-0.585536
-0.647225
-0.673938
-0.651112
-0.570601
-0.431431
-0.239588
-0.00718093
0.248717
0.507382
0.745887
0.940909
1.07129
1.12127
1.08368
3.84776
3.53732
3.20627
2.88653
2.60557
2.37935
2.20892
2.08105
1.97218
1.85441
1.70192
1.49638
1.23109
0.913056
0.562997
0.212016
-0.104685
-0.355798
-0.520252
-0.590588
-0.57332
-0.487275
-0.360389
-0.225465
-0.115148
-0.056934
-0.0690447
-0.157388
-0.314056
-0.517798
-0.737356
-0.9376
-1.08721
-1.16475
-1.16187
-1.08372
-0.94729
-0.778377
-0.607535
-0.465241
-0.377117
-0.359967
-0.41887
-0.545743
-0.719797
-0.910741
-1.08466
-1.21135
-1.27015
-1.25296
-1.16461
-1.02131
-0.847693
-0.672947
-0.526185
-0.431874
-0.406041
-0.453491
-0.566428
-0.724894
-0.899831
-1.05871
-1.17255
-1.22148
-1.1977
-1.10575
-0.961069
-0.787169
-0.611905
-0.463038
-0.363824
-0.329336
-0.363728
-0.458825
-0.594421
-0.74108
-0.865402
-0.936638
-0.931918
-0.839047
-0.656944
-0.394705
-0.0699165
0.293143
0.665192
1.0133
1.3025
1.49928
1.57719
1.52325
4.59704
4.15682
3.6861
3.24155
2.87219
2.60541
2.44102
2.35368
2.30043
2.23173
2.10245
1.88013
1.55125
1.12499
0.634641
0.132964
-0.318773
-0.667338
-0.878474
-0.94148
-0.867963
-0.688601
-0.448001
-0.198549
0.00765865
0.126811
0.129334
0.0047244
-0.235554
-0.557109
-0.907178
-1.22517
-1.45842
-1.57255
-1.55589
-1.41821
-1.18766
-0.90584
-0.621927
-0.384911
-0.235935
-0.20258
-0.294228
-0.499302
-0.784351
-1.09844
-1.38327
-1.58818
-1.68017
-1.64798
-1.50091
-1.26585
-0.982601
-0.698152
-0.459345
-0.305496
-0.262942
-0.340602
-0.52733
-0.791049
-1.08294
-1.3471
-1.53499
-1.61491
-1.57601
-1.42713
-1.19396
-0.914539
-0.633855
-0.396738
-0.240811
-0.191205
-0.256236
-0.424735
-0.665038
-0.928796
-1.16003
-1.30872
-1.33966
-1.23599
-0.997858
-0.639895
-0.187766
0.324618
0.857473
1.36552
1.79716
2.09841
2.22293
2.14549
5.4565
4.82026
4.12824
3.48829
2.99109
2.68407
2.56217
2.57723
2.65094
2.69626
2.63696
2.41732
2.01162
1.42921
0.722571
-0.018022
-0.681457
-1.1768
-1.45004
-1.489
-1.31506
-0.978142
-0.548396
-0.109398
0.25579
0.478465
0.510747
0.333363
-0.0400516
-0.555396
-1.12323
-1.63483
-2.00118
-2.16875
-2.12422
-1.88647
-1.50189
-1.03636
-0.56883
-0.177844
0.0716983
0.134774
-0.00629464
-0.337734
-0.807119
-1.32833
-1.79698
-2.12765
-2.26906
-2.20846
-1.96392
-1.57984
-1.11926
-0.657666
-0.270194
-0.0188854
0.0532373
-0.0706798
-0.377394
-0.816664
-1.30599
-1.74535
-2.05291
-2.17947
-2.11272
-1.8699
-1.49346
-1.04374
-0.593084
-0.21354
0.035292
0.111991
0.000237422
-0.287258
-0.701885
-1.16335
-1.57353
-1.85035
-1.94127
-1.82654
-1.51133
-1.02069
-0.392386
0.326613
1.08547
1.82774
2.47958
2.952
3.15946
3.04882
6.50476
5.56403
4.49535
3.52942
2.8361
2.49613
2.48612
2.71632
3.04237
3.31142
3.40236
3.22241
2.72645
1.9123
0.859375
-0.280138
-1.28622
-2.00613
-2.35898
-2.34312
-1.99687
-1.4014
-0.662151
0.086006
0.709106
1.10425
1.19404
0.944246
0.359792
-0.478142
-1.42028
-2.25371
-2.83021
-3.07043
-2.97081
-2.56622
-1.93271
-1.16983
-0.405549
0.232862
0.647801
0.766054
0.555733
0.0224349
-0.755294
-1.63396
-2.40941
-2.93967
-3.1489
-3.03383
-2.62792
-2.00403
-1.2574
-0.510479
0.115004
0.525722
0.651685
0.462442
-0.0366028
-0.770225
-1.60101
-2.33343
-2.83148
-3.02241
-2.90298
-2.50511
-1.89849
-1.17432
-0.449923
0.15787
0.559253
0.686548
0.509767
0.0332815
-0.671289
-1.47178
-2.17905
-2.6597
-2.83899
-2.70578
-2.27743
-1.59969
-0.7276
0.271228
1.33741
2.4202
3.42041
4.18714
4.55404
4.40018
7.91074
6.49234
4.71453
3.17784
2.17213
1.83296
2.06413
2.71739
3.51588
4.18305
4.55786
4.48254
3.89949
2.73919
1.12086
-0.734414
-2.3031
-3.36404
-3.7989
-3.67306
-3.03758
-2.03172
-0.788771
0.461458
1.49065
2.16969
2.36632
2.037
1.12461
-0.250872
-1.87391
-3.24262
-4.14355
-4.46149
-4.25663
-3.57564
-2.54987
-1.30537
-0.061052
0.965325
1.65109
1.87044
1.58281
0.734547
-0.558155
-2.08825
-3.37494
-4.21403
-4.49574
-4.27804
-3.60585
-2.60497
-1.39601
-0.188443
0.809432
1.48035
1.704
1.44165
0.641956
-0.583896
-2.03768
-3.25903
-4.05233
-4.31228
-4.09421
-3.44094
-2.47279
-1.30522
-0.138869
0.826498
1.47789
1.69896
1.45086
0.682254
-0.502568
-1.91445
-3.11089
-3.90301
-4.18668
-4.01003
-3.40265
-2.45852
-1.24526
0.118958
1.56558
3.13179
4.69771
5.99826
6.69872
6.50534
10.0606
7.93985
4.58741
2.06165
0.548149
0.348349
1.03428
2.5093
4.1785
5.4757
6.36152
6.47383
5.90376
4.22563
1.72353
-1.60138
-4.05115
-5.62354
-6.04625
-5.73689
-4.61169
-3.00346
-0.925903
1.15518
2.77638
3.9298
4.29594
3.96935
2.55626
0.332843
-2.69378
-4.90517
-6.2964
-6.60544
-6.22809
-5.08158
-3.48204
-1.44066
0.597242
2.18823
3.326
3.70484
3.41716
2.08662
-0.0191978
-2.89306
-4.98503
-6.29105
-6.56177
-6.17671
-5.05711
-3.50556
-1.53264
0.435532
1.97466
3.07902
3.45613
3.19462
1.93416
-0.0693594
-2.80907
-4.80101
-6.0412
-6.29051
-5.91211
-4.83018
-3.33428
-1.43438
0.461601
1.94725
3.01616
3.38699
3.14148
1.93057
-0.00687261
-2.66737
-4.62492
-5.87845
-6.19722
-5.93451
-5.01273
-3.70483
-1.98017
-0.151677
1.62208
3.84455
6.358
8.67444
10.1314
9.98882
13.8511
11.168
3.27486
-0.510979
-2.96741
-2.41175
-1.1319
2.02162
5.37682
7.36076
9.27908
9.44778
9.50366
6.89863
3.5111
-3.72853
-7.06262
-9.53856
-9.34775
-8.97552
-6.88136
-4.65102
-1.0681
2.51116
4.73574
6.82359
7.22312
7.46629
5.15481
2.07319
-4.68758
-7.74875
-10.0076
-9.73778
-9.30713
-7.23987
-5.05045
-1.57093
1.89911
4.0638
6.09378
6.49904
6.75327
4.55512
1.62576
-4.82379
-7.72684
-9.85888
-9.57207
-9.13312
-7.13033
-5.01292
-1.66241
1.67736
3.76598
5.72493
6.12792
6.38609
4.29641
1.50531
-4.65721
-7.42549
-9.45689
-9.17259
-8.74308
-6.81549
-4.77748
-1.55786
1.65298
3.66813
5.55969
5.96258
6.22229
4.22514
1.53005
-4.43249
-7.15265
-9.19991
-9.04503
-8.80801
-7.17878
-5.55115
-2.86424
-0.342818
1.03373
4.14032
8.30439
12.5908
15.8696
16.3414
21.047
21.9236
-3.93119
-4.99283
-10.8192
-6.21435
-5.99603
1.24364
8.54982
9.34042
14.7162
12.5843
16.9354
10.6985
10.8458
-11.4795
-11.3097
-17.2936
-12.9104
-14.6936
-9.34705
-8.2462
-1.2049
5.81797
6.89209
12.1487
10.3756
14.642
8.86248
9.11163
-12.0087
-11.7476
-17.3599
-13.1016
-14.7428
-9.57396
-8.47646
-1.68744
5.08078
6.13348
11.2013
9.51084
13.6209
8.0767
8.33993
-11.8614
-11.5788
-16.9097
-12.8013
-14.3413
-9.36847
-8.2958
-1.77658
4.72095
5.74414
10.6116
9.00835
12.9586
7.6688
7.93497
-11.393
-11.1109
-16.207
-12.2637
-13.7312
-8.95968
-7.92208
-1.66858
4.56623
5.56707
10.247
8.74445
12.553
7.52484
7.77221
-10.8665
-10.6492
-15.6923
-12.011
-13.6863
-9.34245
-8.92266
-3.50939
1.11594
-2.04333
2.91837
10.0804
17.9638
25.6556
29.955
31.2965
71.1589
-46.838
-2.61258
-33.6911
-3.69964
-20.9703
0.370484
21.1059
4.71808
30.9651
6.38588
39.6146
5.30597
50.5418
-51.6227
-6.69475
-39.9764
-7.59263
-30.6776
-5.69796
-20.3947
-1.3142
17.692
3.02668
27.5977
4.83201
36.2851
3.88989
46.9232
-50.1179
-7.28774
-38.9246
-7.96928
-29.9836
-6.04426
-20.0971
-1.77286
16.494
2.42253
26.0418
4.17107
34.3918
3.23669
44.5242
-48.3947
-7.34602
-37.5522
-7.89568
-28.927
-5.98925
-19.4207
-1.85845
15.6486
2.18765
24.8169
3.89282
32.8376
3.04159
42.5811
-46.3662
-7.0509
-35.9732
-7.56216
-27.7026
-5.72626
-18.5768
-1.7516
15.0172
2.16888
23.8378
3.87897
31.6095
3.2284
41.211
-44.4526
-6.57032
-34.7471
-7.26312
-27.2314
-5.85492
-19.4841
-3.01891
13.7865
-16.8147
-1.4721
10.8171
23.6126
40.3256
67.2212
28837.5
28800.3
28763
28725.6
28688.2
28650.8
28613.5
28576.3
28539.1
28502.1
28465.2
28428.3
28391.6
28354.9
28318.3
0.172855
0.133458
0.0827712
0.0266244
-0.0290511
-0.0790299
-0.119312
-0.147335
-0.161929
-0.163128
-0.1519
-0.129883
-0.0991583
-0.0620734
-0.0211236
0.305715
0.234802
0.143891
0.0437624
-0.0548054
-0.142528
-0.212503
-0.260499
-0.284785
-0.285705
-0.265169
-0.226158
-0.172334
-0.107746
-0.036642
0.467535
0.356181
0.214265
0.0593722
-0.0913759
-0.223747
-0.327651
-0.397355
-0.430989
-0.429726
-0.3969
-0.337237
-0.256268
-0.159932
-0.0543403
0.674744
0.508129
0.297618
0.0708422
-0.146319
-0.333429
-0.476997
-0.570277
-0.612088
-0.605308
-0.555467
-0.469621
-0.355568
-0.221373
-0.0751272
0.949735
0.703975
0.397239
0.0727013
-0.231311
-0.486648
-0.676627
-0.794667
-0.841775
-0.82395
-0.750038
-0.63021
-0.475009
-0.294865
-0.0999224
1.32436
0.960791
0.514662
0.0540372
-0.364975
-0.705219
-0.94819
-1.08998
-1.13639
-1.09868
-0.990525
-0.826169
-0.619392
-0.383156
-0.129619
1.84554
1.30015
0.646569
-0.00624558
-0.577405
-1.02106
-1.32092
-1.48068
-1.51513
-1.44384
-1.28721
-1.06455
-0.793233
-0.488747
-0.165017
2.58487
1.74767
0.777674
-0.148206
-0.917349
-1.48069
-1.83376
-1.99667
-1.99961
-1.87432
-1.64994
-1.35157
-1.00024
-0.613582
-0.206717
3.65524
2.32793
0.864616
-0.446944
-1.46312
-2.15061
-2.53677
-2.67263
-2.61231
-2.40388
-2.08665
-1.69155
-1.24259
-0.758618
-0.254984
5.24033
3.04421
0.799784
-1.04111
-2.3376
-3.1219
-3.49007
-3.54476
-3.37313
-3.04224
-2.60123
-2.08538
-1.51994
-0.923315
-0.309587
7.64199
3.80906
0.331525
-2.1797
-3.72429
-4.50934
-4.75687
-4.6432
-4.2932
-3.7907
-3.19066
-2.52881
-1.82845
-1.10512
-0.369635
11.3178
4.2194
-1.10268
-4.28479
-5.87049
-6.4343
-6.38486
-5.97798
-5.36575
-4.63669
-3.84189
-3.01073
-2.15995
-1.29906
-0.433472
16.6154
2.8554
-4.67606
-7.986
-9.0385
-8.97249
-8.37027
-7.51811
-6.55513
-5.5484
-4.52949
-3.51225
-2.50155
-1.4977
-0.498662
21.122
-4.73397
-12.4698
-13.9443
-13.3249
-12.0468
-10.6056
-9.16905
-7.78826
-6.47229
-5.21541
-4.00721
-2.83631
-1.69152
-0.562141
0.565963
1.70561
2.86893
4.07338
5.33928
6.69151
8.16204
9.79365
11.6455
13.8008
16.3743
19.5016
23.2144
26.6861
23.9977
0.577179
1.73962
2.92687
4.15742
5.45306
6.84106
8.35762
10.0536
12.0046
14.331
17.2395
21.1263
26.875
36.8999
59.4889
0.582782
1.7564
2.95476
4.19627
5.50269
6.90132
8.42863
10.1364
12.1031
14.4568
17.425
21.4572
27.5648
38.3903
62.0094
0.582788
1.75601
2.95267
4.19004
5.48828
6.87223
8.37432
10.0394
11.9329
14.1558
16.8711
20.3454
24.9729
30.9784
35.7947
0.577484
1.73936
2.92229
4.14155
5.41435
6.76108
8.20684
9.78371
11.5339
13.5128
15.79
18.432
21.42
24.3748
26.0477
0.567383
1.70807
2.8667
4.05586
5.28909
6.58117
7.9483
9.40774
10.9759
12.6628
14.4558
16.2782
17.8891
18.6575
17.0516
0.553172
1.66432
2.7899
3.93958
5.12296
6.34913
7.62565
8.95621
10.3356
11.7392
13.1011
14.2714
14.9433
14.5882
12.8012
0.535627
1.61055
2.69636
3.7999
4.92711
6.08212
7.26546
8.47076
9.67849
10.8446
11.8796
12.611
12.7107
11.5133
7.26769
0.515533
1.54921
2.59051
3.64377
4.71195
5.79542
6.89002
7.9836
9.05025
10.0409
10.8689
11.3892
11.3788
10.5551
8.87986
0.493628
1.48258
2.47635
3.47729
4.48616
5.50099
6.51529
7.51512
8.47475
9.35032
10.0718
10.536
10.6117
10.1883
9.33196
0.470548
1.41259
2.35722
3.3053
4.25622
5.20693
6.15059
7.07454
7.9576
8.76668
9.4533
9.95258
10.1913
10.122
9.82059
0.446811
1.3408
2.23569
3.13133
4.02642
4.91778
5.79958
6.66235
7.49182
8.26806
8.96488
9.55005
9.98484
10.2168
10.1436
0.422818
1.26839
2.11362
2.95775
3.79919
4.63525
5.46179
6.27326
7.06301
7.82458
8.55398
9.25193
9.91921
10.5234
10.9079
0.398867
1.19622
1.99233
2.78602
3.57571
4.35931
5.13447
5.89924
6.65375
7.40343
8.16492
8.97509
9.89736
10.9827
11.9268
0.37518
1.12491
1.8727
2.61708
3.35646
4.08924
4.81434
5.53235
6.24785
6.97405
7.74203
8.62037
9.76224
11.54
15.0043
0.351929
1.05495
1.75542
2.45161
3.14178
3.82449
4.49913
5.16719
5.8345
6.51564
7.2425
8.08263
9.18552
10.9261
14.4562
0.329261
0.98675
1.64113
2.29032
2.93229
3.56533
4.18849
4.80253
5.41153
6.02547
6.66428
7.3624
8.16592
9.06941
9.56725
0.307309
0.92071
1.53044
2.13403
2.729
3.31302
3.88417
4.44138
4.98511
5.51802
6.04486
6.56894
7.0769
7.4944
7.63056
0.286203
0.857217
1.42402
1.98372
2.5333
3.06965
3.58952
4.08958
4.56621
5.01477
5.42735
5.78668
6.05066
6.11475
5.70513
0.266065
0.796645
1.32253
1.84043
2.3468
2.83771
3.30863
3.75405
4.16679
4.53649
4.84682
5.0706
5.16324
5.06405
4.76506
0.247002
0.739334
1.22659
1.70515
2.17104
2.61966
3.04543
3.44122
3.79726
4.09943
4.3264
4.44558
4.40901
4.1521
3.58152
0.229099
0.685548
1.13668
1.57867
2.00727
2.41746
2.80306
3.15598
3.46514
3.7146
3.88081
3.92872
3.80779
3.45798
2.90015
0.212409
0.635457
1.05311
1.4615
1.85628
2.23234
2.58337
2.90115
3.17448
3.38756
3.51738
3.5291
3.36553
2.90831
1.78342
0.19695
0.589111
0.97598
1.35377
1.71829
2.06461
2.38678
2.67717
2.92565
3.11836
3.23595
3.25123
3.12717
2.82231
2.36251
0.182699
0.546441
0.905152
1.25528
1.59292
1.91366
2.21227
2.4823
2.71556
2.90134
3.02556
3.07012
3.01439
2.8439
2.57456
0.1696
0.507265
0.840289
1.16544
1.4793
1.77809
2.0576
2.31296
2.53844
2.72708
2.87049
2.95868
2.98129
2.93414
2.84634
0.157566
0.471314
0.780891
1.08347
1.37614
1.65591
1.9197
2.1644
2.38689
2.58425
2.75379
2.89278
2.99666
3.05263
3.01885
0.146495
0.43826
0.726358
1.00837
1.28193
1.54483
1.79508
2.03126
2.25281
2.46074
2.65831
2.85129
3.0453
3.23347
3.36922
0.136274
0.407755
0.676055
0.939143
1.19515
1.44252
1.68025
1.90827
2.12821
2.34445
2.56603
2.80909
3.098
3.45074
3.76084
0.126796
0.37946
0.629375
0.874837
1.11437
1.34693
1.57216
1.79093
2.00617
2.22446
2.45885
2.73507
3.10642
3.69763
4.85871
0.117963
0.353077
0.585791
0.81465
1.03845
1.25643
1.46856
1.67603
1.88205
2.0933
2.32265
2.59502
2.96216
3.54882
4.72849
0.109696
0.328362
0.544887
0.75798
0.966578
1.17001
1.36822
1.56216
1.7543
1.94958
2.1566
2.38918
2.66549
2.98822
3.20222
0.101934
0.305136
0.506372
0.704437
0.898301
1.08722
1.27086
1.44954
1.6244
1.79772
1.97283
2.15299
2.33662
2.50316
2.59512
0.0946347
0.283278
0.470064
0.653818
0.833469
1.00809
1.17696
1.33957
1.49559
1.64464
1.78556
1.91441
2.01965
2.06992
1.97925
0.087771
0.262714
0.435866
0.606056
0.772136
0.932979
1.08743
1.2342
1.37164
1.49724
1.60668
1.69227
1.74087
1.73457
1.67396
0.0813244
0.243396
0.40373
0.561153
0.71445
0.862314
1.00324
1.13533
1.25594
1.36107
1.44439
1.49584
1.50024
1.43696
1.27613
0.0752801
0.225287
0.373621
0.519123
0.660547
0.796479
0.925199
1.04444
1.151
1.24007
1.30425
1.3321
1.30662
1.20713
1.04171
0.0696211
0.208342
0.345484
0.479933
0.610467
0.735664
0.853753
0.962381
1.05822
1.13637
1.18935
1.20542
1.16443
1.02309
0.641904
0.0643252
0.192498
0.319222
0.443469
0.564104
0.679796
0.788893
0.889218
0.977749
1.05016
1.10012
1.1184
1.09194
1.00565
0.868931
0.059362
0.177664
0.294686
0.409523
0.521182
0.62852
0.730141
0.824261
0.908493
0.979554
1.0329
1.06247
1.06103
1.02323
0.953836
0.054693
0.163722
0.271672
0.377791
0.481273
0.581225
0.676612
0.766189
0.848403
0.921272
0.982234
1.02809
1.05538
1.06279
1.06129
0.0502729
0.150533
0.249935
0.347897
0.443827
0.537115
0.627133
0.713246
0.794824
0.871279
0.942079
1.00662
1.06357
1.10857
1.12647
0.0460522
0.137945
0.229204
0.319424
0.408226
0.495287
0.580383
0.66347
0.744823
0.825237
0.906295
0.990451
1.0801
1.17318
1.25337
0.0419802
0.125799
0.209201
0.291943
0.373845
0.454837
0.535042
0.614918
0.695493
0.778772
0.868384
0.970497
1.09427
1.24677
1.39096
0.038008
0.113946
0.189661
0.265054
0.340107
0.414946
0.489947
0.565898
0.644307
0.727931
0.821821
0.935526
1.08854
1.32618
1.77475
0.0340913
0.10225
0.170352
0.23841
0.306528
0.374958
0.444206
0.515191
0.589521
0.669987
0.761523
0.873292
1.02406
1.25915
1.71559
0.0301924
0.090598
0.151079
0.211734
0.272742
0.334414
0.397275
0.462179
0.530493
0.604379
0.687204
0.784005
0.901071
1.03843
1.13674
0.0262802
0.0788966
0.131691
0.184821
0.238504
0.293058
0.348941
0.406818
0.467618
0.532587
0.603206
0.680675
0.764019
0.844883
0.901867
0.0223304
0.0670749
0.112077
0.157532
0.203674
0.250791
0.299239
0.349444
0.401869
0.456895
0.514476
0.573294
0.628721
0.667947
0.656034
0.0183239
0.0550778
0.0921528
0.129773
0.168176
0.207612
0.248331
0.290544
0.334334
0.379449
0.424912
0.468295
0.504701
0.526553
0.53205
0.0142448
0.0428611
0.0718558
0.101479
0.131972
0.163555
0.1964
0.230568
0.265896
0.301783
0.336815
0.368167
0.390813
0.396541
0.369801
0.0100791
0.0303846
0.0511279
0.0725879
0.0950197
0.118634
0.143564
0.169801
0.197088
0.224732
0.251294
0.274106
0.288695
0.289099
0.276827
0.00581227
0.0176073
0.0299075
0.0430295
0.0572556
0.0728117
0.0898344
0.108321
0.128049
0.148451
0.168398
0.185777
0.196449
0.190478
0.134044
0.00142817
0.00448224
0.00812162
0.0127116
0.0185771
0.0259817
0.0351013
0.0459928
0.0585583
0.072505
0.0873026
0.102126
0.115779
0.126918
0.138254
-0.00309213
-0.00904636
-0.0143194
-0.0184852
-0.0211612
-0.0220283
-0.0208496
-0.017483
-0.0118754
-0.00401466
0.00620792
0.0193066
0.0368726
0.0632375
0.110901
-0.00777107
-0.0230452
-0.0375246
-0.0507096
-0.0621469
-0.0714486
-0.0783076
-0.0825008
-0.0838582
-0.0821575
-0.0768659
-0.0665966
-0.0481257
-0.0152165
0.0392259
-0.0126351
-0.037593
-0.0616239
-0.0841413
-0.104607
-0.122555
-0.137605
-0.149474
-0.157949
-0.162777
-0.163379
-0.158177
-0.143132
-0.108605
-0.0313467
-0.017715
-0.0527819
-0.0867698
-0.118991
-0.148809
-0.175663
-0.199099
-0.218792
-0.234558
-0.246315
-0.253904
-0.256573
-0.251646
-0.231649
-0.182989
-0.0230459
-0.0687177
-0.113138
-0.155503
-0.19506
-0.231136
-0.263181
-0.290823
-0.313937
-0.332732
-0.347827
-0.360225
-0.370605
-0.374577
-0.33313
-0.0286677
-0.0855198
-0.140929
-0.19396
-0.243721
-0.289398
-0.33031
-0.365985
-0.396301
-0.421701
-0.443605
-0.465257
-0.493992
-0.549023
-0.695306
-0.0346242
-0.103321
-0.170369
-0.234682
-0.29521
-0.350962
-0.401064
-0.444858
-0.482063
-0.513083
-0.539541
-0.565352
-0.599097
-0.660073
-0.795022
-0.0409628
-0.122266
-0.201702
-0.278028
-0.350008
-0.416439
-0.47619
-0.528292
-0.572108
-0.607618
-0.635907
-0.659916
-0.685269
-0.719729
-0.762898
-0.0477327
-0.142505
-0.235192
-0.324385
-0.408654
-0.486548
-0.556616
-0.617471
-0.667909
-0.707151
-0.735231
-0.753529
-0.765096
-0.773312
-0.774199
-0.0549832
-0.16419
-0.271104
-0.374157
-0.471721
-0.562082
-0.643431
-0.713871
-0.771472
-0.814421
-0.841332
-0.851798
-0.847232
-0.831966
-0.815255
-0.0627609
-0.187464
-0.309693
-0.427737
-0.539783
-0.643866
-0.737813
-0.819178
-0.885199
-0.932816
-0.958839
-0.960491
-0.936784
-0.891606
-0.838845
-0.0711062
-0.212454
-0.351186
-0.485477
-0.613368
-0.732683
-0.840925
-0.93513
-1.0117
-1.06619
-1.09326
-1.08678
-1.04123
-0.956499
-0.852695
-0.0800511
-0.239259
-0.39576
-0.547658
-0.692902
-0.829183
-0.953776
-1.06332
-1.15351
-1.21861
-1.25095
-1.2402
-1.17288
-1.03463
-0.835152
-0.0896162
-0.267943
-0.443527
-0.614455
-0.778657
-0.933792
-1.07707
-1.20495
-1.31272
-1.39377
-1.43857
-1.43288
-1.35377
-1.15526
-0.695411
-0.0998098
-0.298528
-0.494525
-0.685919
-0.870701
-1.04663
-1.21104
-1.36055
-1.49048
-1.5941
-1.66124
-1.67653
-1.61756
-1.45738
-1.20217
-0.110629
-0.331002
-0.548717
-0.76197
-0.96889
-1.16746
-1.35536
-1.52971
-1.68651
-1.81976
-1.91992
-1.97174
-1.95163
-1.82548
-1.53776
-0.12206
-0.36532
-0.606005
-0.842416
-1.07287
-1.29569
-1.50909
-1.71106
-1.8989
-2.06837
-2.21215
-2.31689
-2.35934
-2.30577
-2.14569
-0.134089
-0.401425
-0.666258
-0.926994
-1.18216
-1.43044
-1.67076
-1.90223
-2.12402
-2.33483
-2.53148
-2.7053
-2.83371
-2.86002
-2.63716
-0.146702
-0.439267
-0.729354
-1.01544
-1.29621
-1.57072
-1.83856
-2.1001
-2.35675
-2.61112
-2.86664
-3.12523
-3.37897
-3.5873
-3.65115
-0.159896
-0.478829
-0.795228
-1.10757
-1.41461
-1.71564
-2.01074
-2.30137
-2.59106
-2.8866
-3.19967
-3.54853
-3.95574
-4.41492
-4.66061
-0.173687
-0.520148
-0.863918
-1.20337
-1.53719
-1.86465
-2.18602
-2.50327
-2.82129
-3.1499
-3.50783
-3.93131
-4.49642
-5.39077
-7.19387
-0.188111
-0.563336
-0.935604
-1.30308
-1.66418
-2.01789
-2.36415
-2.70465
-3.04417
-3.39283
-3.77047
-4.21571
-4.80846
-5.73554
-7.51486
-0.203227
-0.608576
-1.01062
-1.4072
-1.79631
-2.1763
-2.54626
-2.9067
-3.26068
-3.61564
-3.98615
-4.39767
-4.88833
-5.48845
-6.05289
-0.219111
-0.656112
-1.08942
-1.51651
-1.93477
-2.34168
-2.73498
-3.11322
-3.4765
-3.82763
-4.17335
-4.52464
-4.89218
-5.26613
-5.56652
-0.235842
-0.706209
-1.17255
-1.63193
-2.08112
-2.5165
-2.93416
-3.33013
-3.70076
-4.04337
-4.35667
-4.64033
-4.89156
-5.09488
-5.19686
-0.253489
-0.759103
-1.2605
-1.75443
-2.23704
-2.70361
-3.1484
-3.56462
-3.94448
-4.27945
-4.56057
-4.77853
-4.92421
-4.99399
-5.02013
-0.272081
-0.814924
-1.35363
-1.8848
-2.40411
-2.90584
-3.38248
-3.82435
-4.21935
-4.55293
-4.8083
-4.96693
-5.00954
-4.92341
-4.73819
-0.291589
-0.873621
-1.45198
-2.02341
-2.58338
-3.12548
-3.64069
-4.11663
-4.53688
-4.8807
-5.12322
-5.23588
-5.18428
-4.92165
-4.45196
-0.311893
-0.934868
-1.55514
-2.16996
-2.77506
-3.3638
-3.92618
-4.44756
-4.90748
-5.27881
-5.52832
-5.61889
-5.5056
-5.0637
-3.56639
-0.332759
-0.997992
-1.66208
-2.32326
-2.97808
-3.62043
-4.24012
-4.82117
-5.33958
-5.7615
-6.0438
-6.14349
-6.05513
-5.93877
-6.59449
-0.353822
-1.06191
-1.77105
-2.48097
-3.18977
-3.89277
-4.5809
-5.23828
-5.83869
-6.34115
-6.68607
-6.79871
-6.62416
-6.27783
-6.62091
-0.374579
-1.12509
-1.87946
-2.63946
-3.40548
-4.17543
-4.94304
-5.69494
-6.40579
-7.03019
-7.48965
-7.65337
-7.31259
-6.1384
-3.46522
-0.394391
-1.1856
-1.98396
-2.79377
-3.61845
-4.4597
-5.31607
-6.18009
-7.03293
-7.83376
-8.49859
-8.85841
-8.57984
-7.04015
-3.26604
-0.412519
-1.24114
-2.0805
-2.93775
-3.8199
-4.73348
-5.68377
-6.673
-7.69619
-8.73175
-9.71934
-10.5068
-10.7229
-9.49364
-4.98211
-0.42816
-1.28921
-2.16462
-3.06444
-3.99951
-4.98175
-6.02444
-7.14231
-8.35083
-9.66304
-11.0791
-12.5518
-13.8696
-14.2265
-10.4847
-0.440512
-1.32732
-2.23178
-3.16666
-4.14637
-5.18803
-6.31288
-7.54868
-8.93344
-10.5222
-12.3995
-14.7044
-17.6837
-21.8055
-27.9509
-11.5566
-26.2629
-24.8177
-21.2001
-17.8404
-15.0234
-12.6636
-10.6433
-8.8689
-7.27252
-5.80517
-4.43083
-3.12199
-1.85665
-0.616183
-112.906
-58.9034
-38.0383
-27.7309
-21.5843
-17.4039
-14.2866
-11.8018
-9.71889
-7.90358
-6.27162
-4.76675
-3.34899
-1.98804
-0.659213
-125.517
-68.5343
-43.928
-31.3722
-23.9629
-19.0459
-15.4705
-12.6811
-10.3831
-8.40731
-6.64979
-5.04215
-3.53654
-2.09712
-0.69502
-68.9783
-55.683
-41.4499
-31.4399
-24.6108
-19.7562
-16.1086
-13.2192
-10.8234
-8.75947
-6.92387
-5.2467
-3.67812
-2.18029
-0.722448
-48.7098
-43.4837
-36.0395
-29.2987
-23.8875
-19.6283
-16.2202
-13.4145
-11.0332
-8.95306
-7.08791
-5.37584
-3.77055
-2.23567
-0.740885
-30.9563
-32.8251
-30.141
-26.2342
-22.3641
-18.9094
-15.9134
-13.3149
-11.0339
-8.99735
-7.14564
-5.43081
-3.81408
-2.26322
-0.750281
-22.8507
-25.3283
-25.0916
-23.1443
-20.5522
-17.8718
-15.3304
-12.995
-10.8647
-8.91329
-7.10831
-5.41763
-3.81186
-2.26443
-0.751078
-12.7122
-19.7166
-21.2301
-20.502
-18.8017
-16.7378
-14.6043
-12.5327
-10.5712
-8.72755
-6.99158
-5.3455
-3.76911
-2.24198
-0.744096
-15.3653
-17.918
-18.9252
-18.5348
-17.3038
-15.6519
-13.8353
-11.994
-10.1957
-8.46703
-6.81244
-5.22494
-3.69214
-2.19921
-0.730385
-16.0568
-17.1926
-17.5909
-17.1514
-16.0981
-14.6802
-13.0835