/*--------------------------------*- C++ -*----------------------------------*\
| =========                 |                                                 |
| \\      /  F ield         | OpenFOAM: The Open Source CFD Toolbox           |
|  \\    /   O peration     | Version:  5.x                                   |
|   \\  /    A nd           | Web:      www.OpenFOAM.org                      |
|    \\/     M anipulation  |                                                 |
\*---------------------------------------------------------------------------*/
FoamFile
{
    version     2.0;
    format      ascii;
    class       volScalarField;
    location    "4.9";
    object      gradTy;
}
// * * * * * * * * * * * * * * * * * * * * * * * * * * * * * * * * * * * * * //

dimensions      [0 -1 0 1 0 0 0];

internalField   nonuniform List<scalar> 
3200
(
18.2509
8.63674
11.7311
8.31335
9.75084
8.04081
8.795
7.79383
8.24268
7.60196
7.87731
7.51851
7.72892
7.31869
7.53089
7.1407
7.33984
6.98132
7.16307
6.83916
7.00249
6.71352
6.85862
6.60344
6.73148
6.50725
6.62155
6.42182
6.53687
6.36764
6.23238
6.3196
6.20101
6.25872
6.16647
6.21117
6.13709
6.17305
6.11283
6.14208
6.09295
6.11678
6.07676
6.0961
6.06373
6.07922
6.05358
6.06551
6.04633
6.05454
6.04342
6.04958
6.03796
6.04337
6.03439
6.03804
6.03308
6.03414
6.03477
6.03211
6.04083
6.0325
6.05383
6.03602
6.07878
6.04294
6.12664
6.04851
6.22323
6.00094
6.29316
7.10838
6.42151
7.94669
6.78019
9.89441
9.12414
9.00635
8.98203
8.97679
17.0111
9.75274
11.3334
8.77733
9.54803
8.27097
8.67473
7.92632
8.16549
7.68611
7.83313
7.56531
7.67744
7.37011
7.48221
7.18992
7.29521
7.02666
7.1228
6.8802
6.9666
6.75017
6.82694
6.63582
6.70361
6.5357
6.59637
6.447
6.50937
6.3714
6.25726
6.30519
6.21662
6.24739
6.17834
6.20204
6.14658
6.16563
6.12054
6.13603
6.09923
6.11186
6.08188
6.09212
6.06788
6.07607
6.05687
6.06318
6.04881
6.05318
6.04487
6.04815
6.03944
6.04229
6.03555
6.03747
6.03375
6.0343
6.03476
6.03333
6.03984
6.03539
6.05132
6.04179
6.07373
6.05444
6.11683
6.07406
6.20343
6.0763
6.3516
6.99315
6.62323
7.76413
7.15743
9.50128
9.09802
9.00258
8.98124
8.97656
16.0617
10.5152
11.1011
9.10825
9.42712
8.43388
8.60056
8.01929
8.11703
7.74519
7.80553
7.5969
7.64273
7.40476
7.4497
7.22322
7.26552
7.05742
7.09607
6.90806
6.94281
6.77508
6.80597
6.65784
6.68515
6.55499
6.57958
6.46369
6.48987
6.37421
6.27565
6.29623
6.22745
6.24004
6.1865
6.19608
6.15308
6.16077
6.12581
6.13206
6.10354
6.10862
6.08539
6.08951
6.07072
6.07402
6.05914
6.06168
6.05055
6.05232
6.04585
6.04718
6.04044
6.04158
6.03637
6.03713
6.03425
6.03446
6.03482
6.03423
6.03929
6.03745
6.04984
6.0459
6.07073
6.06267
6.11123
6.09273
6.1939
6.13556
6.3954
6.91839
6.76453
7.65148
7.41666
9.21806
9.0596
8.99588
8.97981
8.97616
15.3341
11.0323
10.9721
9.34669
9.3587
8.5504
8.5563
8.08511
8.08736
7.78699
7.78869
7.61832
7.61938
7.42808
7.42805
7.24578
7.24585
7.0783
7.0784
6.92701
6.92712
6.79204
6.79215
6.67285
6.67298
6.5681
6.56841
6.4747
6.47605
6.37633
6.28927
6.29085
6.23503
6.23533
6.19213
6.19222
6.15756
6.15761
6.12944
6.12948
6.1065
6.10653
6.0878
6.08782
6.07269
6.0727
6.06071
6.06072
6.05176
6.05179
6.04653
6.04655
6.04114
6.04113
6.03694
6.03693
6.03463
6.03461
6.03493
6.0349
6.03902
6.03895
6.049
6.04887
6.06904
6.06864
6.10831
6.10662
6.19075
6.18209
6.42868
6.8707
6.86419
7.58371
7.59444
9.01323
9.0174
8.98726
8.97788
8.97561
14.7786
11.3798
10.9056
9.51963
9.32309
8.63436
8.53112
8.13199
8.06979
7.8167
7.77873
7.63287
7.60371
7.44375
7.41369
7.26104
7.23288
7.09248
7.0668
6.9399
6.91684
6.80359
6.78311
6.68307
6.66502
6.577
6.561
6.48191
6.46626
6.37794
6.29935
6.28776
6.24035
6.23237
6.19602
6.18975
6.16064
6.15558
6.13194
6.12782
6.10853
6.10518
6.08947
6.08674
6.07404
6.07186
6.06181
6.06012
6.05262
6.05147
6.04699
6.04613
6.04162
6.04084
6.03735
6.03683
6.03491
6.03475
6.03505
6.0354
6.03891
6.04005
6.04858
6.05102
6.06818
6.07301
6.10704
6.11707
6.19132
6.21841
6.45413
6.84095
6.93481
7.54429
7.7159
8.86499
8.97656
8.97782
8.97566
8.97498
14.359
11.6103
10.8756
9.645
9.30717
8.69489
8.51777
8.16539
8.05986
7.83781
7.77309
7.64276
7.59328
7.45423
7.40423
7.27132
7.2244
7.10206
7.05924
6.94864
6.91016
6.81144
6.77726
6.69002
6.65986
6.58302
6.55612
6.48658
6.45939
6.37916
6.30675
6.2861
6.24411
6.23054
6.19872
6.1882
6.16277
6.1543
6.13366
6.12677
6.10994
6.10432
6.09061
6.08605
6.07498
6.07133
6.06256
6.05975
6.05322
6.05129
6.0473
6.04585
6.04194
6.04067
6.03764
6.03678
6.03513
6.03488
6.03516
6.03579
6.03889
6.04085
6.0484
6.05258
6.06781
6.07621
6.10673
6.12495
6.19376
6.24638
6.47354
6.82292
6.98481
7.52238
7.79826
8.75824
8.94015
8.96852
8.97339
8.97431
14.0494
11.7602
10.8654
9.73466
9.30223
8.73801
8.51144
8.18892
8.05459
7.85262
7.77008
7.64941
7.58643
7.46115
7.39809
7.27817
7.21894
7.10847
7.0544
6.95449
6.90589
6.8167
6.77352
6.69468
6.65657
6.58704
6.55294
6.48956
6.45464
6.38008
6.31208
6.2853
6.24672
6.22944
6.20056
6.18724
6.16421
6.1535
6.13482
6.12612
6.11089
6.10379
6.09139
6.08563
6.07561
6.071
6.06308
6.05953
6.05364
6.05119
6.04752
6.04568
6.04217
6.04056
6.03784
6.03676
6.03529
6.03498
6.03527
6.03607
6.03893
6.04143
6.04835
6.0537
6.06771
6.07852
6.10692
6.13081
6.19686
6.26738
6.48807
6.81239
7.01978
7.51095
7.85325
8.68263
8.90987
8.96015
8.97127
8.97369
13.8314
11.8544
10.8647
9.79638
9.30255
8.76763
8.50895
8.20492
8.05203
7.86266
7.76859
7.65376
7.58208
7.46558
7.39422
7.28258
7.21553
7.11262
7.05138
6.95829
6.90325
6.82012
6.77122
6.69772
6.65453
6.58964
6.55093
6.4914
6.45147
6.38072
6.31575
6.28497
6.24848
6.22881
6.20178
6.18666
6.16517
6.15302
6.13559
6.12572
6.11151
6.10347
6.0919
6.08538
6.07603
6.07081
6.06343
6.05941
6.05392
6.05114
6.04766
6.04557
6.04231
6.0405
6.03798
6.03676
6.0354
6.03506
6.03535
6.03627
6.03897
6.04183
6.04836
6.05447
6.06774
6.08013
6.10728
6.13499
6.19978
6.28237
6.49844
6.80654
7.0434
7.50547
7.88876
8.63109
8.88667
8.95335
8.96951
8.97316
13.6924
11.9091
10.8671
9.83513
9.30452
8.78621
8.50827
8.21488
8.05092
7.86888
7.76793
7.65638
7.57952
7.4682
7.39196
7.28521
7.21356
7.1151
7.04965
6.96056
6.90173
6.82218
6.76989
6.69954
6.65336
6.5912
6.54975
6.49245
6.44953
6.38114
6.31806
6.28487
6.24957
6.22847
6.20252
6.18635
6.16574
6.15276
6.13606
6.1255
6.11189
6.10329
6.09221
6.08524
6.07629
6.07071
6.06364
6.05934
6.0541
6.05111
6.04774
6.0455
6.0424
6.04047
6.03806
6.03676
6.03547
6.03511
6.0354
6.03639
6.03901
6.04208
6.04839
6.05496
6.0678
6.08115
6.10762
6.13768
6.20198
6.29201
6.50514
6.80353
7.05801
7.50313
7.90991
8.59903
8.87103
8.94858
8.96824
8.97278
13.6248
11.9341
10.869
9.85383
9.306
8.79516
8.5082
8.21965
8.05054
7.87186
7.76769
7.65761
7.57833
7.46941
7.39092
7.28644
7.21265
7.11626
7.04885
6.96163
6.90104
6.82314
6.76929
6.70039
6.65282
6.59193
6.54921
6.49293
6.44861
6.38135
6.31918
6.28485
6.25009
6.22832
6.20287
6.18621
6.16602
6.15264
6.13628
6.1254
6.11207
6.10321
6.09236
6.08517
6.07641
6.07066
6.06374
6.05932
6.05418
6.0511
6.04778
6.04547
6.04244
6.04045
6.0381
6.03677
6.03551
6.03514
6.03543
6.03646
6.03904
6.0422
6.04842
6.05519
6.06785
6.08165
6.10782
6.139
6.20316
6.29674
6.50843
6.80229
7.06499
7.50234
7.91977
8.58366
8.86317
8.94612
8.96758
8.97258
-13.7498
-11.9446
-10.7156
-9.37646
-8.56602
-7.67412
-7.11214
-6.46025
-6.04523
-5.56318
-5.26978
-4.94423
-4.70668
-4.37828
-4.1427
-3.83115
-3.61345
-3.33244
-3.13834
-2.89041
-2.72003
-2.50341
-2.3548
-2.16607
-2.03624
-1.87055
-1.7542
-1.60049
-1.47832
-1.29108
-1.11579
-1.01744
-0.915391
-0.850256
-0.772407
-0.720466
-0.65622
-0.612864
-0.558733
-0.522082
-0.476199
-0.445124
-0.406228
-0.379946
-0.347162
-0.325181
-0.298055
-0.28028
-0.259028
-0.245915
-0.231132
-0.220248
-0.205091
-0.194174
-0.179679
-0.169527
-0.156394
-0.147314
-0.135709
-0.12775
-0.117665
-0.110829
-0.102307
-0.0967682
-0.090311
-0.0870342
-0.085102
-0.0886354
-0.103033
-0.137102
-0.227483
-0.373935
-0.528761
-0.815585
-1.11851
-1.62799
-1.84351
-1.90755
-1.92413
-1.92798
-13.822
-11.9215
-10.7201
-9.35531
-8.56929
-7.66093
-7.11575
-6.45078
-6.04791
-5.55564
-5.27108
-4.94071
-4.71032
-4.37457
-4.14575
-3.82741
-3.61599
-3.32897
-3.1405
-2.88732
-2.72189
-2.5007
-2.35641
-2.16372
-2.03768
-1.86858
-1.75569
-1.59923
-1.48093
-1.29061
-1.11272
-1.01759
-0.913918
-0.850767
-0.771374
-0.720961
-0.655387
-0.613297
-0.558036
-0.522454
-0.475609
-0.445439
-0.405725
-0.380208
-0.346731
-0.325389
-0.297683
-0.280421
-0.258704
-0.245983
-0.230978
-0.220421
-0.204924
-0.194318
-0.179507
-0.169648
-0.156233
-0.147416
-0.135565
-0.127836
-0.117536
-0.110898
-0.102189
-0.0968061
-0.0901849
-0.0869815
-0.0848844
-0.0882018
-0.102247
-0.134851
-0.225241
-0.3736
-0.523482
-0.814941
-1.11025
-1.63975
-1.84956
-1.90945
-1.92464
-1.92814
-13.9703
-11.8705
-10.731
-9.31103
-8.57745
-7.63322
-7.12414
-6.43083
-6.05418
-5.5398
-5.27421
-4.9332
-4.71818
-4.36659
-4.15238
-3.81939
-3.62156
-3.32156
-3.14525
-2.88072
-2.72597
-2.49491
-2.35996
-2.1587
-2.04085
-1.86437
-1.75894
-1.59645
-1.48642
-1.28964
-1.10634
-1.01808
-0.910827
-0.851932
-0.769184
-0.722065
-0.653618
-0.61426
-0.556555
-0.523279
-0.474355
-0.446138
-0.404658
-0.380791
-0.345818
-0.325853
-0.296895
-0.280742
-0.258022
-0.246145
-0.230648
-0.220793
-0.204562
-0.194633
-0.179139
-0.169913
-0.15589
-0.147642
-0.135257
-0.128027
-0.117262
-0.111051
-0.101939
-0.0968947
-0.0899233
-0.0868856
-0.0844513
-0.0873401
-0.10072
-0.130288
-0.220681
-0.373206
-0.51254
-0.814144
-1.09262
-1.66429
-1.86162
-1.91313
-1.92561
-1.92843
-14.2025
-11.7811
-10.7532
-9.23929
-8.59405
-7.58811
-7.13992
-6.39823
-6.06597
-5.51401
-5.28036
-4.92066
-4.73151
-4.35313
-4.16376
-3.80596
-3.63122
-3.30921
-3.15353
-2.86973
-2.73312
-2.48528
-2.36616
-2.15036
-2.04636
-1.85732
-1.76447
-1.59158
-1.49539
-1.28814
-1.09616
-1.01934
-0.905805
-0.854054
-0.765573
-0.724026
-0.650688
-0.61596
-0.5541
-0.524732
-0.472275
-0.44737
-0.402888
-0.381821
-0.344307
-0.32668
-0.295597
-0.281328
-0.256909
-0.246453
-0.230094
-0.221422
-0.203949
-0.195172
-0.178521
-0.170371
-0.155318
-0.148034
-0.134744
-0.128361
-0.116808
-0.111321
-0.101528
-0.0970617
-0.0895055
-0.0867668
-0.0838064
-0.0860598
-0.0985464
-0.123294
-0.213637
-0.373339
-0.495107
-0.814272
-1.06326
-1.70381
-1.87951
-1.91838
-1.92698
-1.92884
-14.5316
-11.636
-10.7948
-9.13281
-8.62508
-7.52069
-7.16744
-6.34925
-6.08654
-5.4755
-5.29156
-4.9013
-4.75241
-4.33211
-4.18189
-3.78523
-3.64677
-3.29022
-3.16695
-2.85286
-2.74472
-2.47052
-2.37624
-2.13755
-2.05529
-1.84643
-1.77321
-1.58364
-1.5088
-1.28603
-1.08138
-1.02208
-0.898315
-0.857649
-0.760087
-0.727261
-0.646216
-0.618749
-0.550347
-0.527112
-0.469096
-0.449388
-0.400183
-0.38351
-0.342002
-0.328047
-0.293628
-0.282322
-0.255239
-0.247
-0.229234
-0.222405
-0.202991
-0.196027
-0.177565
-0.171107
-0.154436
-0.148668
-0.133957
-0.128902
-0.116112
-0.111765
-0.100905
-0.0973535
-0.0888963
-0.0866581
-0.0829541
-0.0843713
-0.0958833
-0.113677
-0.203819
-0.374991
-0.46978
-0.817208
-1.01824
-1.76192
-1.90287
-1.92484
-1.92861
-1.92932
-14.9765
-11.4086
-10.8693
-8.98017
-8.67998
-7.42323
-7.21357
-6.27806
-6.12106
-5.41991
-5.31102
-4.8723
-4.78417
-4.30029
-4.20989
-3.75417
-3.67105
-3.2619
-3.188
-2.82775
-2.76297
-2.44855
-2.3921
-2.11848
-2.06928
-1.83011
-1.78661
-1.57112
-1.52813
-1.2832
-1.06078
-1.02739
-0.887505
-0.863522
-0.752016
-0.732429
-0.639605
-0.623177
-0.544791
-0.530886
-0.464386
-0.452589
-0.39618
-0.386196
-0.338598
-0.330234
-0.290738
-0.28395
-0.252817
-0.247929
-0.227939
-0.223892
-0.201537
-0.197345
-0.176131
-0.172253
-0.15312
-0.149661
-0.132785
-0.129755
-0.11508
-0.112471
-0.0999908
-0.0978428
-0.0880396
-0.0866092
-0.0818981
-0.0822801
-0.0929699
-0.101167
-0.19076
-0.379699
-0.434347
-0.826
-0.951519
-1.84415
-1.931
-1.93203
-1.93036
-1.92983
-15.5642
-11.0602
-10.9977
-8.76398
-8.77315
-7.2839
-7.28873
-6.17573
-6.17735
-5.34063
-5.34368
-4.82927
-4.83178
-4.25273
-4.2525
-3.70821
-3.70839
-3.22017
-3.22051
-2.79084
-2.79122
-2.41628
-2.41666
-2.09045
-2.09087
-1.80598
-1.80689
-1.5517
-1.55555
-1.27947
-1.03263
-1.03697
-0.872061
-0.8729
-0.74027
-0.740529
-0.629941
-0.630087
-0.536658
-0.536766
-0.457492
-0.457576
-0.390323
-0.390388
-0.333627
-0.333669
-0.286541
-0.286552
-0.249348
-0.249465
-0.226008
-0.226115
-0.199358
-0.199344
-0.174004
-0.174011
-0.151178
-0.151193
-0.13106
-0.131074
-0.113567
-0.113572
-0.0986647
-0.0986396
-0.0868491
-0.0866927
-0.0806395
-0.0797777
-0.0901572
-0.0854017
-0.173729
-0.389778
-0.385435
-0.845437
-0.854111
-1.9586
-1.96255
-1.93932
-1.93207
-1.93032
-16.332
-10.5341
-11.2131
-8.45808
-8.92626
-7.08481
-7.40862
-6.02883
-6.26718
-5.22777
-5.39704
-4.76558
-4.90264
-4.18203
-4.31688
-3.64048
-3.76526
-3.15891
-3.27023
-2.73672
-2.83447
-2.369
-2.45428
-2.04935
-2.12388
-1.77041
-1.83741
-1.52192
-1.59416
-1.27458
-0.994442
-1.05332
-0.849992
-0.88762
-0.723213
-0.753065
-0.61585
-0.640743
-0.524787
-0.545824
-0.447425
-0.465259
-0.381775
-0.396856
-0.326385
-0.338993
-0.28046
-0.290646
-0.244387
-0.251946
-0.223136
-0.229413
-0.196111
-0.202359
-0.170866
-0.176684
-0.148324
-0.153531
-0.128532
-0.133096
-0.111354
-0.115272
-0.0967446
-0.0999083
-0.0851944
-0.0870132
-0.0791743
-0.0768267
-0.0879509
-0.0659143
-0.151589
-0.408675
-0.317949
-0.882929
-0.71287
-2.11708
-1.99519
-1.94598
-1.93356
-1.93074
-17.3317
-9.74893
-11.5657
-8.02326
-9.17177
-6.79911
-7.59665
-5.8172
-6.40813
-5.06656
-5.48243
-4.67115
-5.00783
-4.07712
-4.41371
-3.54071
-3.85138
-3.06894
-3.34575
-2.65737
-2.90027
-2.29969
-2.51151
-1.98908
-2.17402
-1.71804
-1.88325
-1.47664
-1.64846
-1.26811
-0.942692
-1.08016
-0.818287
-0.910425
-0.698388
-0.772288
-0.595278
-0.657036
-0.507438
-0.559662
-0.432712
-0.476998
-0.369287
-0.406748
-0.315823
-0.347165
-0.271633
-0.297
-0.237276
-0.255883
-0.218863
-0.234297
-0.191283
-0.206885
-0.166237
-0.180726
-0.14413
-0.15708
-0.124822
-0.136172
-0.108116
-0.117871
-0.0939581
-0.101893
-0.0828796
-0.0877211
-0.0774905
-0.0733378
-0.0870721
-0.0421194
-0.122594
-0.441484
-0.224236
-0.949822
-0.508658
-2.3366
-2.02493
-1.95116
-1.93467
-1.93105
-18.635
-8.58797
-12.133
-7.40099
-9.55832
-6.38681
-7.88796
-5.51095
-6.62656
-4.83525
-5.61711
-4.53099
-5.16389
-3.9217
-4.55911
-3.39377
-3.98141
-2.93678
-3.46005
-2.54092
-2.99996
-2.19804
-2.59827
-1.90066
-2.24994
-1.64095
-1.95209
-1.40836
-1.72497
-1.25957
-0.87254
-1.12309
-0.772527
-0.945502
-0.662223
-0.801645
-0.565246
-0.681874
-0.482102
-0.580752
-0.411228
-0.494896
-0.351066
-0.421849
-0.300439
-0.359681
-0.258834
-0.306821
-0.227093
-0.262106
-0.212549
-0.241576
-0.184167
-0.213716
-0.159454
-0.186862
-0.138001
-0.162486
-0.119413
-0.14087
-0.103409
-0.121859
-0.0899377
-0.104996
-0.0796479
-0.0890693
-0.0755981
-0.069168
-0.0885718
-0.0133385
-0.0840876
-0.495756
-0.0928266
-1.06339
-0.213693
-2.64171
-2.04515
-1.95406
-1.93526
-1.93122
18.635
8.58797
12.133
7.40099
9.55832
6.38681
7.88796
5.51095
6.62656
4.83525
5.61711
4.53099
5.16389
3.9217
4.55912
3.39377
3.98141
2.93678
3.46005
2.54092
2.99996
2.19804
2.59827
1.90066
2.24994
1.64095
1.95209
1.40836
1.72497
1.25957
0.872539
1.12309
0.772526
0.945501
0.662222
0.801645
0.565245
0.681873
0.482101
0.580752
0.411227
0.494895
0.351065
0.421849
0.300438
0.359681
0.258833
0.306821
0.227092
0.262105
0.212549
0.241576
0.184166
0.213716
0.159453
0.186863
0.138001
0.162486
0.119413
0.14087
0.103409
0.121859
0.0899376
0.104996
0.0796479
0.0890694
0.0755983
0.0691681
0.0885724
0.0133378
0.0840883
0.495764
0.0928285
1.06341
0.213699
2.64174
2.04518
1.95408
1.93529
1.93124
17.3317
9.74894
11.5657
8.02326
9.17178
6.79912
7.59666
5.81721
6.40813
5.06657
5.48244
4.67116
5.00783
4.07713
4.41372
3.54071
3.85139
3.06895
3.34576
2.65737
2.90027
2.29969
2.51151
1.98908
2.17402
1.71804
1.88325
1.47665
1.64846
1.26811
0.942695
1.08017
0.818289
0.910427
0.698389
0.77229
0.595279
0.657038
0.50744
0.559664
0.432713
0.477
0.369288
0.406749
0.315824
0.347167
0.271634
0.297001
0.237278
0.255884
0.218864
0.234298
0.191285
0.206887
0.166238
0.180727
0.144131
0.157081
0.124823
0.136174
0.108118
0.117872
0.0939593
0.101895
0.0828807
0.0877223
0.0774917
0.0733389
0.0870735
0.0421199
0.122596
0.441492
0.22424
0.949838
0.508668
2.33663
2.02496
1.95119
1.9347
1.93108
16.332
10.5341
11.2131
8.45809
8.92628
7.08482
7.40863
6.02884
6.26719
5.22778
5.39705
4.76559
4.90265
4.18204
4.31689
3.64049
3.76527
3.15892
3.27024
2.73673
2.83448
2.369
2.45428
2.04936
2.12389
1.77042
1.83742
1.52193
1.59417
1.27458
0.994447
1.05333
0.849996
0.887625
0.723217
0.75307
0.615854
0.640747
0.52479
0.545827
0.447429
0.465263
0.381778
0.396859
0.326388
0.338996
0.280463
0.290649
0.24439
0.251948
0.223139
0.229416
0.196114
0.202362
0.170868
0.176686
0.148327
0.153534
0.128534
0.133099
0.111356
0.115274
0.0967467
0.0999104
0.0851964
0.0870152
0.0791763
0.0768285
0.0879531
0.0659159
0.151592
0.408682
0.317955
0.882944
0.712883
2.11711
1.99522
1.946
1.93359
1.93077
15.5642
11.0602
10.9977
8.76399
8.77316
7.28391
7.28875
6.17574
6.17736
5.34064
5.34369
4.82929
4.83179
4.25275
4.25251
3.70822
3.7084
3.22018
3.22052
2.79085
2.79123
2.41629
2.41666
2.09046
2.09088
1.80599
1.80689
1.55171
1.55555
1.27948
1.03264
1.03698
0.872067
0.872906
0.740275
0.740534
0.629945
0.630092
0.536663
0.53677
0.457496
0.45758
0.390327
0.390392
0.33363
0.333673
0.286544
0.286556
0.249351
0.249468
0.226011
0.226118
0.199361
0.199348
0.174007
0.174014
0.151181
0.151195
0.131063
0.131077
0.113569
0.113575
0.0986672
0.0986421
0.0868514
0.086695
0.0806417
0.0797799
0.0901597
0.085404
0.173733
0.389786
0.385442
0.845452
0.854125
1.95863
1.96258
1.93935
1.9321
1.93035
14.9765
11.4087
10.8693
8.98018
8.67999
7.42325
7.21358
6.27807
6.12107
5.41992
5.31103
4.87231
4.78419
4.3003
4.2099
3.75418
3.67107
3.26191
3.18801
2.82776
2.76298
2.44856
2.39211
2.11849
2.06929
1.83012
1.78661
1.57112
1.52814
1.2832
1.06079
1.0274
0.887511
0.863528
0.752021
0.732434
0.63961
0.623182
0.544796
0.53089
0.464391
0.452593
0.396185
0.3862
0.338602
0.330238
0.290741
0.283953
0.252821
0.247933
0.227942
0.223896
0.20154
0.197348
0.176134
0.172256
0.153123
0.149664
0.132788
0.129758
0.115083
0.112473
0.0999934
0.0978454
0.088042
0.0866116
0.0819005
0.0822825
0.0929725
0.101169
0.190765
0.379706
0.434356
0.826014
0.951535
1.84417
1.93102
1.93205
1.93039
1.92986
14.5316
11.636
10.7948
9.13283
8.62509
7.5207
7.16745
6.34926
6.08656
5.47551
5.29157
4.90132
4.75242
4.33212
4.1819
3.78524
3.64678
3.29023
3.16696
2.85287
2.74473
2.47053
2.37625
2.13756
2.0553
1.84644
1.77322
1.58365
1.50881
1.28603
1.08138
1.02208
0.898321
0.857654
0.760093
0.727267
0.646222
0.618754
0.550352
0.527117
0.4691
0.449393
0.400188
0.383514
0.342006
0.328051
0.293632
0.282326
0.255243
0.247003
0.229238
0.222408
0.202995
0.196031
0.177568
0.17111
0.154439
0.148671
0.13396
0.128905
0.116115
0.111768
0.100908
0.0973561
0.0888988
0.0866606
0.0829566
0.0843738
0.095886
0.11368
0.203823
0.374999
0.469789
0.817223
1.01826
1.76195
1.9029
1.92487
1.92864
1.92935
14.2025
11.7811
10.7532
9.2393
8.59406
7.58812
7.13993
6.39824
6.06598
5.51402
5.28037
4.92067
4.73152
4.35314
4.16377
3.80598
3.63123
3.30923
3.15354
2.86974
2.73313
2.48529
2.36617
2.15037
2.04637
1.85733
1.76448
1.59159
1.49539
1.28814
1.09616
1.01935
0.905811
0.85406
0.765579
0.724031
0.650693
0.615966
0.554104
0.524737
0.47228
0.447375
0.402892
0.381825
0.344311
0.326684
0.295601
0.281332
0.256913
0.246457
0.230097
0.221425
0.203953
0.195175
0.178524
0.170374
0.155321
0.148037
0.134747
0.128363
0.116811
0.111324
0.101531
0.0970642
0.089508
0.0867693
0.0838089
0.0860623
0.0985492
0.123297
0.213642
0.373347
0.495117
0.814287
1.06328
1.70384
1.87954
1.91841
1.927
1.92887
13.9703
11.8705
10.731
9.31104
8.57746
7.63323
7.12416
6.43085
6.05419
5.53981
5.27422
4.93321
4.71819
4.36661
4.15239
3.8194
3.62157
3.32157
3.14526
2.88073
2.72598
2.49492
2.35997
2.15871
2.04086
1.86438
1.75895
1.59646
1.48643
1.28965
1.10634
1.01809
0.910833
0.851938
0.76919
0.72207
0.653623
0.614265
0.55656
0.523283
0.474359
0.446142
0.404662
0.380795
0.345822
0.325857
0.296899
0.280746
0.258026
0.246148
0.230651
0.220796
0.204565
0.194636
0.179142
0.169916
0.155893
0.147645
0.13526
0.12803
0.117265
0.111054
0.101942
0.0968972
0.0899257
0.086888
0.0844537
0.0873426
0.100723
0.130292
0.220686
0.373213
0.51255
0.814158
1.09264
1.66432
1.86165
1.91316
1.92564
1.92846
13.822
11.9215
10.7201
9.35532
8.5693
7.66094
7.11576
6.45079
6.04792
5.55565
5.27109
4.94072
4.71033
4.37458
4.14576
3.82742
3.616
3.32898
3.14051
2.88733
2.72189
2.50071
2.35642
2.16373
2.03769
1.86859
1.7557
1.59924
1.48094
1.29061
1.11272
1.01759
0.913923
0.850773
0.771379
0.720966
0.655392
0.613302
0.558041
0.522458
0.475614
0.445443
0.405729
0.380212
0.346735
0.325392
0.297686
0.280425
0.258707
0.245986
0.230981
0.220424
0.204927
0.194321
0.17951
0.169651
0.156236
0.147419
0.135568
0.127839
0.117539
0.110901
0.102192
0.0968085
0.0901873
0.0869838
0.0848867
0.0882042
0.10225
0.134854
0.225246
0.373608
0.523492
0.814956
1.11027
1.63977
1.84959
1.90947
1.92466
1.92817
13.7498
11.9446
10.7156
9.37647
8.56603
7.67413
7.11215
6.46026
6.04524
5.56319
5.26979
4.94424
4.70669
4.37829
4.14271
3.83116
3.61346
3.33245
3.13835
2.89042
2.72004
2.50342
2.35481
2.16608
2.03625
1.87056
1.7542
1.6005
1.47833
1.29109
1.1158
1.01744
0.915396
0.850261
0.772412
0.720471
0.656224
0.612868
0.558737
0.522086
0.476203
0.445128
0.406231
0.37995
0.347165
0.325184
0.298058
0.280283
0.259031
0.245918
0.231135
0.220251
0.205094
0.194176
0.179682
0.16953
0.156397
0.147317
0.135712
0.127753
0.117667
0.110832
0.10231
0.0967705
0.0903133
0.0870364
0.0851042
0.0886377
0.103036
0.137106
0.227489
0.373942
0.528771
0.815599
1.11853
1.62801
1.84353
1.90758
1.92416
1.92801
-13.6283
-11.9391
-10.8759
-9.86437
-9.3207
-8.81783
-8.53996
-8.26881
-8.11827
-7.96952
-7.86695
-7.73117
-7.6355
-7.51084
-7.42388
-7.31156
-7.23344
-7.13282
-7.063
-6.97328
-6.91122
-6.83174
-6.77693
-6.70696
-6.65872
-6.59705
-6.55383
-6.49695
-6.45219
-6.38428
-6.32156
-6.28693
-6.25188
-6.22994
-6.20429
-6.1875
-6.16715
-6.15368
-6.1372
-6.12624
-6.11282
-6.10389
-6.09297
-6.08573
-6.0769
-6.07111
-6.06414
-6.05969
-6.05451
-6.05142
-6.04807
-6.04575
-6.04269
-6.04068
-6.03831
-6.03696
-6.03568
-6.0353
-6.03558
-6.03659
-6.03916
-6.04231
-6.04851
-6.05528
-6.06793
-6.08172
-6.10789
-6.13906
-6.20321
-6.29679
-6.50847
-6.80232
-7.06502
-7.50236
-7.91979
-8.58368
-8.86318
-8.94613
-8.9676
-8.97259
-13.6959
-11.9141
-10.8738
-9.84565
-9.31907
-8.80883
-8.5397
-8.26398
-8.11819
-7.96768
-7.86828
-7.72957
-7.63666
-7.50934
-7.42489
-7.31019
-7.23434
-7.13159
-7.06379
-6.97218
-6.91192
-6.83076
-6.77754
-6.70609
-6.65926
-6.59631
-6.55438
-6.49646
-6.45311
-6.38408
-6.32043
-6.28695
-6.25136
-6.23009
-6.20394
-6.18764
-6.16688
-6.1538
-6.13698
-6.12634
-6.11264
-6.10397
-6.09282
-6.08579
-6.07678
-6.07116
-6.06404
-6.05972
-6.05443
-6.05143
-6.04803
-6.04577
-6.04265
-6.0407
-6.03827
-6.03696
-6.03565
-6.03527
-6.03555
-6.03653
-6.03913
-6.04219
-6.04849
-6.05505
-6.06788
-6.08123
-6.10769
-6.13774
-6.20204
-6.29206
-6.50518
-6.80357
-7.05804
-7.50316
-7.90993
-8.59905
-8.87105
-8.94859
-8.96826
-8.97279
-13.8347
-11.8594
-10.8713
-9.80687
-9.31678
-8.79019
-8.53969
-8.25396
-8.11831
-7.96379
-7.87118
-7.72613
-7.6392
-7.50611
-7.42711
-7.30727
-7.23632
-7.12896
-7.06554
-6.96982
-6.91345
-6.82865
-6.77887
-6.70423
-6.66044
-6.59473
-6.55557
-6.49539
-6.45506
-6.38365
-6.3181
-6.28705
-6.25026
-6.23043
-6.20319
-6.18796
-6.1663
-6.15407
-6.13651
-6.12657
-6.11225
-6.10415
-6.0925
-6.08593
-6.07652
-6.07126
-6.06383
-6.05978
-6.05426
-6.05145
-6.04795
-6.04584
-6.04256
-6.04073
-6.03819
-6.03695
-6.03557
-6.03522
-6.03549
-6.0364
-6.03909
-6.04194
-6.04846
-6.05456
-6.06782
-6.08021
-6.10735
-6.13505
-6.19983
-6.28242
-6.49849
-6.80657
-7.04343
-7.50549
-7.88878
-8.63111
-8.88669
-8.95337
-8.96952
-8.97317
-14.0526
-11.7652
-10.8718
-9.74512
-9.31596
-8.7605
-8.54109
-8.23793
-8.11918
-7.95742
-7.87618
-7.72037
-7.64358
-7.50073
-7.43097
-7.30239
-7.23975
-7.12457
-7.06858
-6.96588
-6.91612
-6.82515
-6.7812
-6.70115
-6.66249
-6.59209
-6.55759
-6.49353
-6.45826
-6.383
-6.31439
-6.28738
-6.24848
-6.23107
-6.20196
-6.18853
-6.16534
-6.15455
-6.13573
-6.12696
-6.11162
-6.10448
-6.09199
-6.08619
-6.0761
-6.07146
-6.06348
-6.05991
-6.05397
-6.0515
-6.0478
-6.04595
-6.04241
-6.04079
-6.03805
-6.03695
-6.03546
-6.03514
-6.03541
-6.0362
-6.03904
-6.04154
-6.04844
-6.05379
-6.06779
-6.0786
-6.10698
-6.13087
-6.19691
-6.26743
-6.48811
-6.81242
-7.01981
-7.51097
-7.85327
-8.68264
-8.90989
-8.96017
-8.97129
-8.9737
-14.3619
-11.6152
-10.8816
-9.65547
-9.32018
-8.71737
-8.54585
-8.21453
-8.12177
-7.94783
-7.88417
-7.71144
-7.6506
-7.49242
-7.43718
-7.29487
-7.24528
-7.11781
-7.07349
-6.95983
-6.92043
-6.81976
-6.78497
-6.6964
-6.66582
-6.58802
-6.5608
-6.49052
-6.46305
-6.38207
-6.30901
-6.28819
-6.24585
-6.23218
-6.2001
-6.1895
-6.16388
-6.15535
-6.13456
-6.12762
-6.11066
-6.10501
-6.0912
-6.08662
-6.07546
-6.07178
-6.06296
-6.06013
-6.05355
-6.05161
-6.04759
-6.04613
-6.04219
-6.0409
-6.03784
-6.03697
-6.0353
-6.03504
-6.0353
-6.03592
-6.03901
-6.04096
-6.04849
-6.05267
-6.06788
-6.07628
-6.1068
-6.12502
-6.19382
-6.24643
-6.47358
-6.82295
-6.98484
-7.52241
-7.79828
-8.75826
-8.94016
-8.96853
-8.9734
-8.97433
-14.7812
-11.3847
-10.9112
-9.53018
-9.33511
-8.65699
-8.55699
-8.18159
-8.12761
-7.93382
-7.89651
-7.69804
-7.66152
-7.47999
-7.44687
-7.28364
-7.25393
-7.10773
-7.08117
-6.95081
-6.9272
-6.81174
-6.7909
-6.68934
-6.67104
-6.58191
-6.56573
-6.48579
-6.46999
-6.38083
-6.30155
-6.28986
-6.24206
-6.23402
-6.19739
-6.19107
-6.16174
-6.15664
-6.13283
-6.12868
-6.10925
-6.10587
-6.09005
-6.0873
-6.07452
-6.07232
-6.0622
-6.0605
-6.05294
-6.05179
-6.04727
-6.0464
-6.04186
-6.04108
-6.03755
-6.03702
-6.03508
-6.03492
-6.03519
-6.03554
-6.03902
-6.04016
-6.04867
-6.05111
-6.06825
-6.07308
-6.1071
-6.11713
-6.19137
-6.21846
-6.45417
-6.84098
-6.93484
-7.54431
-7.71592
-8.865
-8.97658
-8.97784
-8.97568
-8.97499
-15.3362
-11.0373
-10.977
-9.35746
-9.36936
-8.57348
-8.57916
-8.13579
-8.13904
-7.91356
-7.9153
-7.67817
-7.67824
-7.46162
-7.46177
-7.26708
-7.26724
-7.09286
-7.093
-6.93751
-6.93764
-6.79993
-6.80005
-6.67894
-6.67908
-6.5729
-6.57321
-6.4785
-6.47985
-6.3792
-6.29138
-6.29297
-6.23669
-6.237
-6.19346
-6.19356
-6.15863
-6.15869
-6.13031
-6.13035
-6.1072
-6.10723
-6.08837
-6.0884
-6.07315
-6.07317
-6.06109
-6.0611
-6.05208
-6.05211
-6.04681
-6.04683
-6.04138
-6.04137
-6.03714
-6.03713
-6.03479
-6.03478
-6.03506
-6.03504
-6.03913
-6.03907
-6.0491
-6.04896
-6.06912
-6.06872
-6.10837
-6.10668
-6.19081
-6.18214
-6.42872
-6.87073
-6.86422
-7.58373
-7.59446
-9.01324
-9.01741
-8.98728
-8.97789
-8.97563
-16.0633
-10.5203
-11.1052
-9.11947
-9.43592
-8.45791
-8.61928
-8.07212
-8.15963
-7.88421
-7.94365
-7.6488
-7.70362
-7.43458
-7.48446
-7.24272
-7.28753
-7.07101
-7.11106
-6.91799
-6.9536
-6.7826
-6.81405
-6.6637
-6.69138
-6.55962
-6.58449
-6.46736
-6.4938
-6.37705
-6.27763
-6.29839
-6.22905
-6.24174
-6.18779
-6.19744
-6.15412
-6.16187
-6.12666
-6.13294
-6.10422
-6.10934
-6.08594
-6.0901
-6.07118
-6.0745
-6.05951
-6.06207
-6.05086
-6.05264
-6.04613
-6.04747
-6.04068
-6.04182
-6.03656
-6.03733
-6.03441
-6.03463
-6.03496
-6.03437
-6.0394
-6.03757
-6.04993
-6.046
-6.0708
-6.06275
-6.11129
-6.0928
-6.19395
-6.13561
-6.39544
-6.91842
-6.76456
-7.65151
-7.41668
-9.21807
-9.05962
-8.99589
-8.97982
-8.97618
-17.012
-9.75828
-11.3363
-8.7894
-9.55426
-8.29676
-8.68775
-7.98307
-8.19472
-7.84147
-7.98616
-7.60545
-7.74196
-7.39479
-7.51882
-7.20689
-7.31827
-7.03889
-7.13844
-6.88933
-6.97782
-6.75718
-6.83533
-6.64133
-6.71006
-6.54007
-6.60145
-6.45048
-6.51348
-6.3742
-6.25908
-6.30742
-6.21813
-6.24915
-6.17957
-6.20345
-6.14757
-6.16676
-6.12134
-6.13694
-6.09989
-6.1126
-6.08241
-6.09272
-6.06831
-6.07656
-6.05722
-6.06358
-6.04911
-6.05351
-6.04514
-6.04844
-6.03966
-6.04254
-6.03574
-6.03768
-6.0339
-6.03447
-6.03488
-6.03347
-6.03995
-6.0355
-6.05141
-6.04189
-6.0738
-6.05452
-6.11689
-6.07413
-6.20348
-6.07635
-6.35164
-6.99318
-6.62326
-7.76415
-7.15746
-9.50129
-9.09804
-9.0026
-8.98126
-8.97658
-18.2509
-8.64294
-11.7323
-8.32686
-9.75349
-8.06967
-8.80004
-7.85736
-8.25241
-7.7788
-8.04969
-7.5414
-7.79964
-7.33614
-7.5706
-7.15413
-7.36463
-6.99161
-7.17976
-6.84715
-7.01439
-6.7198
-6.86748
-6.60844
-6.73828
-6.51126
-6.6269
-6.42504
-6.54124
-6.37038
-6.23397
-6.32195
-6.2024
-6.26056
-6.1676
-6.21264
-6.13801
-6.17424
-6.11358
-6.14304
-6.09356
-6.11756
-6.07725
-6.09673
-6.06414
-6.07973
-6.05391
-6.06593
-6.04661
-6.05488
-6.04368
-6.04989
-6.03818
-6.04363
-6.03457
-6.03825
-6.03322
-6.03432
-6.03489
-6.03226
-6.04093
-6.03263
-6.05391
-6.03612
-6.07884
-6.04302
-6.12669
-6.04858
-6.22327
-6.001
-6.2932
-7.10841
-6.42154
-7.94671
-6.78022
-9.89442
-9.12416
-9.00637
-8.98205
-8.97681
)
;

boundaryField
{
    F1_1
    {
        type            calculated;
        value           nonuniform List<scalar> 
80
(
18.9533
7.97442
11.9807
8.04199
9.87713
7.9058
8.86907
7.71586
8.28995
7.55246
7.90442
7.49055
7.75966
7.28796
7.56006
7.11133
7.36663
6.95428
7.18726
6.81472
7.02407
6.69169
6.87767
6.58415
6.74824
6.49029
6.63665
6.4067
6.55296
6.36547
6.21806
6.32844
6.19178
6.26558
6.15942
6.21667
6.13146
6.17752
6.10825
6.14573
6.08921
6.11976
6.07371
6.0985
6.06127
6.08111
6.05162
6.06692
6.04486
6.05537
6.04255
6.05044
6.03709
6.04403
6.03371
6.03839
6.03269
6.03406
6.03479
6.03141
6.04146
6.03082
6.05539
6.03264
6.08193
6.03622
6.13282
6.03369
6.23626
5.95876
6.25965
7.17811
6.30273
8.05922
6.55666
10.1231
9.13281
9.00737
8.98225
8.97687
)
;
    }
    F1_2
    {
        type            calculated;
        value           nonuniform List<scalar> 
80
(
-19.3729
-7.89637
-12.4819
-7.03424
-9.79415
-6.14302
-8.06471
-5.32972
-6.75912
-4.69884
-5.69937
-4.44725
-5.25713
-3.82895
-4.64639
-3.30626
-4.0596
-2.85814
-3.52885
-2.47167
-3.06
-2.1376
-2.65053
-1.84809
-2.29566
-1.59507
-1.99344
-1.36736
-1.76976
-1.25471
-0.832166
-1.14943
-0.74548
-0.966745
-0.64078
-0.819383
-0.547428
-0.696873
-0.46707
-0.593488
-0.398484
-0.505707
-0.340261
-0.430977