/*--------------------------------*- C++ -*----------------------------------*\
| =========                 |                                                 |
| \\      /  F ield         | OpenFOAM: The Open Source CFD Toolbox           |
|  \\    /   O peration     | Version:  5.x                                   |
|   \\  /    A nd           | Web:      www.OpenFOAM.org                      |
|    \\/     M anipulation  |                                                 |
\*---------------------------------------------------------------------------*/
FoamFile
{
    version     2.0;
    format      ascii;
    class       volScalarField;
    location    "4.9";
    object      T;
}
// * * * * * * * * * * * * * * * * * * * * * * * * * * * * * * * * * * * * * //

dimensions      [0 0 0 1 0 0 0];

internalField   nonuniform List<scalar> 
3200
(
2.08483
2.43602
2.45605
2.60091
2.61008
2.68241
2.68722
2.72908
2.73195
2.75845
2.76021
2.77553
2.77688
2.7936
2.79496
2.81091
2.81219
2.82686
2.82803
2.84129
2.84234
2.85418
2.85511
2.86557
2.86639
2.87559
2.87632
2.88461
2.88534
2.89413
2.90183
2.90238
2.90736
2.90773
2.91154
2.91182
2.91487
2.9151
2.91757
2.91776
2.91978
2.91993
2.92157
2.92169
2.92302
2.92312
2.92417
2.92425
2.92503
2.92509
2.92556
2.9256
2.92607
2.9261
2.92647
2.92649
2.92669
2.9267
2.92666
2.92665
2.92628
2.92623
2.92533
2.92522
2.92342
2.92319
2.9196
2.9191
2.9112
2.90981
2.88733
2.8481
2.84372
2.77995
2.77244
2.65315
2.6482
2.64757
2.64745
2.64742
2.26032
2.52901
2.57087
2.68675
2.70633
2.76416
2.77443
2.80779
2.8139
2.83497
2.83872
2.851
2.85386
2.86709
2.86998
2.88261
2.88532
2.89695
2.89942
2.90993
2.91215
2.92153
2.9235
2.93179
2.93353
2.94083
2.94239
2.94898
2.95055
2.95783
2.9643
2.96549
2.96947
2.97025
2.97327
2.97388
2.9763
2.97678
2.97875
2.97914
2.98074
2.98107
2.98237
2.98263
2.98368
2.98389
2.98473
2.98489
2.98551
2.98562
2.986
2.98608
2.98646
2.98653
2.98682
2.98687
2.98702
2.98704
2.98701
2.98698
2.98668
2.98657
2.98585
2.98561
2.98417
2.98368
2.9808
2.97974
2.9733
2.97024
2.9506
2.91848
2.90912
2.85829
2.84247
2.74981
2.73935
2.73762
2.73726
2.73719
2.42505
2.63108
2.68272
2.77645
2.80104
2.84783
2.86072
2.8876
2.89526
2.91218
2.91688
2.92684
2.93043
2.941
2.94461
2.95471
2.95809
2.9674
2.97049
2.9789
2.98167
2.98918
2.99165
2.99828
3.00046
3.00631
3.00825
3.01355
3.01553
3.02156
3.02698
3.02849
3.0317
3.03268
3.0351
3.03587
3.0378
3.03841
3.03998
3.04048
3.04176
3.04217
3.04321
3.04354
3.04438
3.04464
3.04531
3.04551
3.04601
3.04615
3.04645
3.04656
3.04686
3.04695
3.04718
3.04724
3.04736
3.04738
3.04736
3.04731
3.04708
3.04693
3.04636
3.04605
3.04489
3.04428
3.04194
3.04059
3.03527
3.03134
3.01436
2.98796
2.97619
2.93523
2.91559
2.84317
2.83016
2.82762
2.82707
2.82695
2.58155
2.73932
2.79289
2.86892
2.89487
2.93284
2.94644
2.96818
2.97624
2.98987
2.99483
3.00294
3.00672
3.01519
3.01897
3.02708
3.03063
3.0381
3.04134
3.04809
3.05101
3.05703
3.05962
3.06495
3.06724
3.07193
3.07398
3.07826
3.08035
3.08531
3.08981
3.09142
3.09402
3.09505
3.097
3.0978
3.09936
3.1
3.10126
3.10178
3.10281
3.10324
3.10408
3.10442
3.1051
3.10538
3.10591
3.10612
3.10652
3.10667
3.10692
3.10703
3.10726
3.10736
3.10754
3.10761
3.10771
3.10773
3.10771
3.10766
3.10747
3.10732
3.10685
3.10653
3.10559
3.10494
3.10303
3.10159
3.09718
3.09295
3.07851
3.05685
3.04441
3.01132
2.99081
2.93417
2.92054
2.91754
2.91686
2.91671
2.73174
2.85172
2.90216
2.96339
2.98822
3.01883
3.03184
3.0493
3.057
3.06792
3.07265
3.07921
3.08282
3.08956
3.09317
3.09963
3.10301
3.10896
3.11205
3.11744
3.12022
3.12502
3.12749
3.13174
3.13392
3.13767
3.13962
3.14305
3.14505
3.14908
3.15276
3.15431
3.1564
3.15739
3.15895
3.15971
3.16095
3.16156
3.16257
3.16307
3.16389
3.1643
3.16496
3.16529
3.16583
3.1661
3.16652
3.16673
3.16704
3.16718
3.16738
3.16749
3.16768
3.16777
3.16792
3.16798
3.16806
3.16807
3.16806
3.16801
3.16786
3.16771
3.16734
3.16703
3.16627
3.16565
3.1641
3.16272
3.15908
3.15498
3.14294
3.12538
3.11347
3.08691
3.06747
3.02344
3.01051
3.00737
3.00663
3.00646
2.87712
2.96691
3.011
3.05931
3.08133
3.10553
3.11706
3.13082
3.13764
3.14621
3.1504
3.15559
3.15879
3.16406
3.16725
3.1723
3.17529
3.17995
3.18268
3.18689
3.18934
3.19311
3.19529
3.19861
3.20054
3.20347
3.2052
3.20789
3.20967
3.21287
3.2158
3.21717
3.21882
3.2197
3.22092
3.2216
3.22257
3.22311
3.2239
3.22434
3.22498
3.22534
3.22587
3.22616
3.22658
3.22681
3.22715
3.22733
3.22757
3.2277
3.22786
3.22795
3.2281
3.22818
3.22829
3.22835
3.22841
3.22842
3.22841
3.22837
3.22825
3.22812
3.22782
3.22755
3.22695
3.2264
3.22517
3.22393
3.22101
3.21732
3.20759
3.19367
3.18311
3.16221
3.14513
3.11147
3.10008
3.0971
3.09637
3.09621
3.01892
3.08393
3.11967
3.15629
3.17436
3.19273
3.2022
3.21261
3.2182
3.22467
3.22811
3.23206
3.23468
3.23865
3.24125
3.24505
3.2475
3.25101
3.25324
3.25641
3.25842
3.26125
3.26304
3.26554
3.26712
3.26933
3.27074
3.27278
3.27424
3.27667
3.2789
3.28003
3.28128
3.282
3.28292
3.28347
3.28421
3.28465
3.28524
3.2856
3.28609
3.28638
3.28678
3.28701
3.28733
3.28752
3.28778
3.28792
3.28811
3.28821
3.28833
3.28841
3.28852
3.28858
3.28867
3.28871
3.28876
3.28877
3.28876
3.28873
3.28864
3.28853
3.28831
3.28808
3.28763
3.28717
3.28624
3.28522
3.28296
3.27991
3.27241
3.26183
3.25317
3.23735
3.22344
3.1986
3.18931
3.18674
3.1861
3.18595
3.15811
3.20212
3.22831
3.25401
3.26738
3.28029
3.28729
3.2946
3.29873
3.30326
3.3058
3.30858
3.31052
3.31329
3.31521
3.31786
3.31967
3.32212
3.32376
3.32598
3.32746
3.32944
3.33076
3.33251
3.33367
3.33522
3.33626
3.33769
3.33877
3.34047
3.34204
3.34288
3.34376
3.34429
3.34493
3.34534
3.34585
3.34618
3.3466
3.34686
3.3472
3.34742
3.34769
3.34787
3.34809
3.34823
3.34841
3.34852
3.34865
3.34872
3.34881
3.34886
3.34894
3.34899
3.34905
3.34908
3.34911
3.34912
3.34911
3.34909
3.34902
3.34895
3.34879
3.34862
3.3483
3.34797
3.34731
3.34655
3.34494
3.34267
3.33735
3.32992
3.32351
3.31243
3.30219
3.28512
3.27827
3.2763
3.2758
3.27568
3.29554
3.32102
3.33697
3.35222
3.36041
3.36808
3.37238
3.37671
3.37924
3.38193
3.38348
3.38514
3.38632
3.38796
3.38913
3.3907
3.39181
3.39326
3.39427
3.39558
3.39648
3.39765
3.39846
3.3995
3.40021
3.40112
3.40176
3.40261
3.40327
3.40428
3.40521
3.40573
3.40625
3.40657
3.40696
3.40721
3.40751
3.40771
3.40796
3.40812
3.40832
3.40845
3.40861
3.40872
3.40885
3.40894
3.40904
3.40911
3.40919
3.40923
3.40928
3.40932
3.40936
3.40939
3.40943
3.40945
3.40947
3.40947
3.40947
3.40945
3.40941
3.40937
3.40927
3.40917
3.40898
3.40878
3.40838
3.40792
3.40695
3.40555
3.40238
3.39796
3.39403
3.38746
3.38122
3.37123
3.36704
3.36581
3.36549
3.36541
3.43196
3.4403
3.44565
3.45071
3.45347
3.45601
3.45746
3.4589
3.45975
3.46064
3.46116
3.46171
3.46211
3.46265
3.46305
3.46357
3.46394
3.46442
3.46476
3.46519
3.4655
3.46588
3.46615
3.4665
3.46674
3.46704
3.46725
3.46753
3.46776
3.46809
3.4684
3.46858
3.46875
3.46886
3.46899
3.46907
3.46917
3.46924
3.46932
3.46937
3.46944
3.46948
3.46954
3.46957
3.46962
3.46965
3.46968
3.4697
3.46973
3.46974
3.46976
3.46977
3.46979
3.4698
3.46981
3.46982
3.46982
3.46982
3.46982
3.46982
3.4698
3.46979
3.46976
3.46972
3.46966
3.46959
3.46946
3.4693
3.46898
3.46851
3.46745
3.46599
3.46467
3.46249
3.46039
3.4571
3.45569
3.45527
3.45516
3.45514
3.43134
3.44025
3.44643
3.45309
3.45717
3.46161
3.46444
3.46769
3.46978
3.47217
3.47365
3.47527
3.47647
3.4781
3.47929
3.48084
3.48194
3.48333
3.48431
3.48554
3.4864
3.48748
3.48823
3.48917
3.48982
3.49064
3.49123
3.492
3.49261
3.49354
3.49442
3.49491
3.49542
3.49575
3.49614
3.4964
3.49672
3.49694
3.49721
3.49739
3.49762
3.49777
3.49797
3.4981
3.49826
3.49837
3.49851
3.4986
3.4987
3.49877
3.49884
3.4989
3.49897
3.49903
3.4991
3.49915
3.49922
3.49926
3.49932
3.49936
3.49941
3.49945
3.49949
3.49952
3.49955
3.49956
3.49957
3.49956
3.49948
3.49931
3.49886
3.49813
3.49735
3.49592
3.4944
3.49187
3.49079
3.49046
3.49038
3.49036
3.29366
3.32086
3.33926
3.35938
3.37151
3.3849
3.39331
3.40311
3.40932
3.41656
3.42095
3.42584
3.4294
3.43433
3.43786
3.44254
3.4458
3.45002
3.45292
3.45665
3.4592
3.46245
3.46468
3.46751
3.46945
3.47194
3.47369
3.47599
3.47782
3.48063
3.48327
3.48474
3.48627
3.48725
3.48842
3.48919
3.49016
3.49081
3.49162
3.49217
3.49286
3.49332
3.49391
3.4943
3.49479
3.49512
3.49553
3.4958
3.49611
3.49631
3.49653
3.4967
3.49692
3.49709
3.49731
3.49746
3.49765
3.49779
3.49796
3.49808
3.49824
3.49834
3.49847
3.49855
3.49865
3.49869
3.49872
3.49867
3.49846
3.49795
3.49659
3.49439
3.49208
3.48777
3.48323
3.47557
3.47234
3.47138
3.47114
3.47108
3.1549
3.20182
3.23203
3.26599
3.28579
3.30839
3.32213
3.33867
3.34882
3.36106
3.36823
3.37646
3.38226
3.39061
3.39638
3.40429
3.40962
3.41675
3.4215
3.4278
3.43196
3.43747
3.4411
3.44589
3.44907
3.45327
3.45612
3.46001
3.46299
3.46773
3.47216
3.47456
3.47714
3.47873
3.48071
3.48198
3.48361
3.48467
3.48604
3.48694
3.48811
3.48887
3.48985
3.4905
3.49133
3.49187
3.49256
3.49299
3.49353
3.49385
3.49422
3.49449
3.49488
3.49514
3.49551
3.49576
3.49609
3.49632
3.49661
3.4968
3.49706
3.49723
3.49744
3.49758
3.49774
3.49783
3.49788
3.49779
3.49744
3.49661
3.49435
3.49066
3.48688
3.47962
3.47219
3.45908
3.4538
3.45228
3.45189
3.4518
3.01426
3.08345
3.12464
3.17316
3.19996
3.23224
3.25083
3.27449
3.28823
3.30577
3.31547
3.32718
3.33503
3.347
3.35481
3.36615
3.37336
3.38359
3.39002
3.39903
3.40468
3.41255
3.41748
3.42434
3.42864
3.43466
3.43851
3.44407
3.44809
3.45484
3.46114
3.46438
3.46805
3.47021
3.47303
3.47475
3.47709
3.47852
3.48049
3.4817
3.48337
3.4844
3.48581
3.48668
3.48788
3.4886
3.48959
3.49018
3.49095
3.49139
3.49192
3.49228
3.49283
3.49319
3.49372
3.49406
3.49454
3.49484
3.49526
3.49552
3.49589
3.49612
3.49643
3.49661
3.49685
3.49696
3.49703
3.49692
3.49644
3.49534
3.49218
3.48693
3.48182
3.47148
3.46138
3.44228
3.43511
3.43312
3.43263
3.43251
2.87085
2.9662
3.01696
3.0812
3.11391
3.15663
3.17933
3.21071
3.2275
3.25078
3.26262
3.27805
3.28763
3.30355
3.3131
3.32817
3.33699
3.35057
3.35843
3.3704
3.3773
3.38776
3.39378
3.40289
3.40814
3.41613
3.42083
3.42818
3.43309
3.44197
3.45024
3.45417
3.45903
3.46165
3.4654
3.4675
3.4706
3.47235
3.47496
3.47645
3.47866
3.47992
3.4818
3.48286
3.48444
3.48533
3.48664
3.48736
3.48839
3.48892
3.48962
3.49006
3.4908
3.49124
3.49194
3.49235
3.49299
3.49335
3.49392
3.49424
3.49472
3.495
3.49541
3.49564
3.49595
3.49609
3.4962
3.49607
3.49547
3.49415
3.49008
3.48319
3.47698
3.46334
3.45093
3.425
3.41621
3.41391
3.41335
3.41322
2.72363
2.85073
2.90874
2.9905
3.02746
3.08183
3.10748
3.14751
3.1665
3.19626
3.20964
3.22915
3.23998
3.26036
3.27117
3.29044
3.30043
3.31778
3.32668
3.34198
3.34978
3.36314
3.36995
3.38159
3.38753
3.39773
3.40304
3.41239
3.41792
3.42912
3.43951
3.44394
3.45009
3.45305
3.45783
3.46021
3.46416
3.46615
3.46948
3.47116
3.47399
3.47541
3.47781
3.47901
3.48104
3.48204
3.48372
3.48453
3.48585
3.48645
3.48734
3.48783
3.48877
3.48927
3.49017
3.49064
3.49145
3.49186
3.49258
3.49295
3.49357
3.49388
3.49441
3.49466
3.49507
3.49522
3.49538
3.49524
3.49452
3.49307
3.4881
3.47943
3.47243
3.45514
3.44102
3.40704
3.39705
3.39462
3.39405
3.39392
2.57132
2.73802
2.79958
2.9016
2.94031
3.00817
3.03506
3.08515
3.10508
3.14238
3.1564
3.1806
3.19195
3.21754
3.2289
3.25309
3.26357
3.28533
3.29467
3.31385
3.32204
3.33879
3.34593
3.36052
3.36675
3.37952
3.3851
3.39676
3.40252
3.41631
3.42902
3.43363
3.44128
3.44438
3.45036
3.45285
3.4578
3.45989
3.46407
3.46583
3.46937
3.47087
3.47387
3.47514
3.47767
3.47873
3.48083
3.48168
3.48334
3.48396
3.48506
3.48558
3.48677
3.48729
3.48842
3.48891
3.48992
3.49036
3.49126
3.49164
3.49242
3.49275
3.49341
3.49368
3.49419
3.49436
3.49456
3.49443
3.49361
3.49213
3.48627
3.4756
3.46829
3.44682
3.4319
3.38812
3.37759
3.37527
3.37474
3.37462
2.41234
2.62953
2.68879
2.81522
2.85199
2.93615
2.96171
3.02399
3.04296
3.08944
3.10276
3.13257
3.14335
3.1753
3.18612
3.21628
3.22626
3.25338
3.26227
3.28616
3.29396
3.31482
3.32162
3.33978
3.34571
3.36161
3.3669
3.38136
3.38681
3.40353
3.41886
3.4232
3.43265
3.4356
3.44302
3.4454
3.45156
3.45354
3.45875
3.46043
3.46484
3.46626
3.47
3.47121
3.47436
3.47537
3.47799
3.4788
3.48086
3.48146
3.48282
3.48331
3.48479
3.48529
3.48669
3.48716
3.48842
3.48884
3.48996
3.49032
3.4913
3.49161
3.49244
3.49269
3.49333
3.49349
3.49376
3.49364
3.49272
3.49136
3.48463
3.47163
3.46472
3.43823
3.42393
3.36787
3.3578
3.35584
3.35541
3.35532
2.24468
2.52734
2.57532
2.73243
2.76178
2.86647
2.88689
2.96457
2.97973
3.03783
3.04846
3.08529
3.0939
3.1339
3.14256
3.18028
3.18827
3.22215
3.22927
3.25911
3.26535
3.29141
3.29685
3.31953
3.32428
3.34412
3.34835
3.36632
3.37064
3.39081
3.40914
3.41256
3.42428
3.42663
3.43589
3.43779
3.44549
3.44707
3.45357
3.45491
3.46042
3.46156
3.46624
3.4672
3.47114
3.47195
3.47522
3.47587
3.47845
3.47892
3.4806
3.481
3.48284
3.48325
3.485
3.48537
3.48696
3.48729
3.48869
3.48898
3.4902
3.49045
3.49148
3.49168
3.49249
3.49262
3.49298
3.49289
3.49185
3.49081
3.48324
3.46742
3.46193
3.42916
3.41764
3.34578
3.33768
3.33635
3.33607
3.33601
2.06571
2.43455
2.45747
2.65476
2.66856
2.80017
2.80977
2.90765
2.91479
2.98811
2.99311
3.03914
3.04319
3.09376
3.09785
3.14547
3.14923
3.192
3.19535
3.23301
3.23595
3.26882
3.27139
3.3
3.30223
3.32725
3.32924
3.35183
3.35384
3.37817
3.40001
3.40159
3.41628
3.41739
3.42906
3.42995
3.43966
3.4404
3.4486
3.44923
3.45618
3.45672
3.46262
3.46307
3.46805
3.46843
3.47256
3.47286
3.47612
3.47634
3.47844
3.47862
3.48096
3.48115
3.48337
3.48354
3.48554
3.4857
3.48746
3.4876
3.48913
3.48925
3.49056
3.49065
3.49167
3.49174
3.49221
3.49217
3.49098
3.49052
3.48217
3.4628
3.46024
3.41923
3.41376
3.32114
3.3173
3.31682
3.31672
3.3167
2.06571
2.43455
2.45747
2.65476
2.66856
2.80016
2.80977
2.90765
2.91479
2.98811
2.99311
3.03914
3.04319
3.09376
3.09785
3.14547
3.14923
3.192
3.19535
3.23301
3.23595
3.26882
3.27139
3.3
3.30223
3.32725
3.32924
3.35182
3.35384
3.37817
3.40001
3.40159
3.41628
3.41739
3.42906
3.42995
3.43966
3.4404
3.4486
3.44923
3.45618
3.45672
3.46262
3.46307
3.46805
3.46843
3.47256
3.47286
3.47612
3.47634
3.47844
3.47862
3.48096
3.48115
3.48337
3.48354
3.48554
3.4857
3.48746
3.4876
3.48913
3.48925
3.49056
3.49065
3.49167
3.49174
3.49221
3.49217
3.49098
3.49052
3.48217
3.4628
3.46023
3.41923
3.41376
3.32113
3.3173
3.31681
3.31672
3.31669
2.24468
2.52734
2.57531
2.73243
2.76178
2.86647
2.88689
2.96457
2.97973
3.03783
3.04846
3.08529
3.0939
3.1339
3.14256
3.18028
3.18826
3.22215
3.22926
3.25911
3.26535
3.29141
3.29685
3.31953
3.32428
3.34412
3.34835
3.36632
3.37064
3.39081
3.40913
3.41256
3.42428
3.42663
3.43589
3.43779
3.44549
3.44707
3.45357
3.45491
3.46042
3.46156
3.46624
3.4672
3.47114
3.47195
3.47522
3.47587
3.47845
3.47892
3.4806
3.481
3.48284
3.48325
3.485
3.48537
3.48696
3.48729
3.48869
3.48898
3.4902
3.49045
3.49148
3.49168
3.49249
3.49262
3.49298
3.49289
3.49185
3.49081
3.48323
3.46742
3.46193
3.42916
3.41764
3.34578
3.33768
3.33635
3.33607
3.33601
2.41234
2.62952
2.68879
2.81522
2.85199
2.93615
2.96171
3.02399
3.04296
3.08944
3.10276
3.13256
3.14335
3.1753
3.18612
3.21628
3.22626
3.25338
3.26227
3.28616
3.29396
3.31482
3.32162
3.33978
3.34571
3.36161
3.3669
3.38136
3.38681
3.40353
3.41886
3.4232
3.43265
3.4356
3.44302
3.44539
3.45156
3.45354
3.45875
3.46042
3.46484
3.46626
3.47
3.47121
3.47436
3.47537
3.47799
3.4788
3.48086
3.48146
3.48282
3.48331
3.48479
3.48529
3.48669
3.48716
3.48842
3.48884
3.48996
3.49032
3.4913
3.49161
3.49244
3.49269
3.49333
3.49349
3.49376
3.49364
3.49272
3.49136
3.48463
3.47163
3.46472
3.43823
3.42393
3.36787
3.3578
3.35584
3.35541
3.35532
2.57132
2.73802
2.79958
2.9016
2.94031
3.00817
3.03506
3.08515
3.10508
3.14238
3.1564
3.1806
3.19195
3.21754
3.2289
3.25309
3.26357
3.28533
3.29467
3.31385
3.32204
3.33879
3.34593
3.36052
3.36675
3.37952
3.38509
3.39676
3.40252
3.4163
3.42902
3.43363
3.44128
3.44438
3.45036
3.45285
3.4578
3.45989
3.46407
3.46583
3.46937
3.47087
3.47387
3.47514
3.47767
3.47873
3.48083
3.48168
3.48334
3.48396
3.48506
3.48558
3.48677
3.48729
3.48842
3.48891
3.48992
3.49036
3.49126
3.49164
3.49242
3.49275
3.49341
3.49368
3.49419
3.49436
3.49456
3.49443
3.49361
3.49213
3.48627
3.4756
3.46829
3.44682
3.4319
3.38812
3.37759
3.37527
3.37474
3.37462
2.72363
2.85073
2.90874
2.9905
3.02745
3.08183
3.10748
3.14751
3.1665
3.19625
3.20964
3.22915
3.23998
3.26036
3.27117
3.29044
3.30043
3.31778
3.32668
3.34198
3.34978
3.36314
3.36995
3.38159
3.38753
3.39773
3.40304
3.41239
3.41792
3.42912
3.43951
3.44393
3.45009
3.45305
3.45783
3.46021
3.46416
3.46615
3.46948
3.47116
3.47399
3.47541
3.47781
3.47901
3.48104
3.48204
3.48372
3.48453
3.48585
3.48645
3.48734
3.48783
3.48877
3.48927
3.49017
3.49064
3.49145
3.49186
3.49258
3.49294
3.49357
3.49388
3.49441
3.49466
3.49507
3.49522
3.49538
3.49524
3.49452
3.49307
3.4881
3.47943
3.47243
3.45514
3.44101
3.40704
3.39705
3.39462
3.39405
3.39392
2.87085
2.9662
3.01696
3.0812
3.11391
3.15663
3.17933
3.21071
3.2275
3.25078
3.26262
3.27805
3.28763
3.30355
3.3131
3.32817
3.33699
3.35057
3.35843
3.3704
3.3773
3.38776
3.39378
3.40288
3.40814
3.41613
3.42083
3.42818
3.43308
3.44197
3.45024
3.45417
3.45903
3.46165
3.4654
3.4675
3.4706
3.47235
3.47496
3.47645
3.47866
3.47992
3.4818
3.48286
3.48444
3.48533
3.48664
3.48736
3.48839
3.48892
3.48962
3.49006
3.4908
3.49124
3.49194
3.49235
3.49299
3.49335
3.49391
3.49424
3.49472
3.495
3.49541
3.49564
3.49595
3.49609
3.4962
3.49607
3.49547
3.49415
3.49008
3.48319
3.47698
3.46334
3.45093
3.425
3.41621
3.41391
3.41335
3.41322
3.01426
3.08345
3.12464
3.17316
3.19996
3.23224
3.25083
3.27449
3.28823
3.30577
3.31547
3.32718
3.33503
3.347
3.35481
3.36615
3.37336
3.38359
3.39002
3.39903
3.40468
3.41255
3.41748
3.42434
3.42864
3.43466
3.43851
3.44406
3.44809
3.45484
3.46114
3.46438
3.46805
3.47021
3.47303
3.47475
3.47709
3.47852
3.48049
3.4817
3.48337
3.4844
3.48581
3.48668
3.48788
3.4886
3.48959
3.49018
3.49095
3.49139
3.49192
3.49228
3.49283
3.49319
3.49372
3.49406
3.49454
3.49484
3.49526
3.49552
3.49589
3.49612
3.49643
3.49661
3.49685
3.49696
3.49703
3.49692
3.49644
3.49534
3.49218
3.48693
3.48182
3.47148
3.46138
3.44228
3.43511
3.43312
3.43262
3.43251
3.1549
3.20182
3.23203
3.26599
3.28579
3.30839
3.32213
3.33867
3.34882
3.36106
3.36823
3.37646
3.38226
3.39061
3.39637
3.40429
3.40962
3.41675
3.4215
3.4278
3.43196
3.43747
3.4411
3.44589
3.44907
3.45327
3.45612
3.46001
3.46299
3.46773
3.47216
3.47456
3.47714
3.47873
3.48071
3.48198
3.48361
3.48467
3.48604
3.48694
3.48811
3.48887
3.48985
3.4905
3.49133
3.49187
3.49256
3.49299
3.49353
3.49385
3.49422
3.49449
3.49488
3.49514
3.49551
3.49576
3.49609
3.49632
3.49661
3.4968
3.49706
3.49723
3.49744
3.49758
3.49774
3.49783
3.49788
3.49779
3.49744
3.49661
3.49435
3.49066
3.48688
3.47962
3.47219
3.45908
3.4538
3.45228
3.45189
3.4518
3.29366
3.32086
3.33926
3.35938
3.37151
3.3849
3.39331
3.40311
3.40932
3.41656
3.42095
3.42584
3.4294
3.43433
3.43786
3.44254
3.4458
3.45002
3.45292
3.45665
3.4592
3.46245
3.46468
3.46751
3.46945
3.47194
3.47369
3.47599
3.47782
3.48063
3.48327
3.48474
3.48627
3.48725
3.48842
3.48919
3.49016
3.49081
3.49162
3.49217
3.49286
3.49332
3.49391
3.4943
3.49479
3.49512
3.49553
3.4958
3.49611
3.49631
3.49653
3.4967
3.49692
3.49709
3.4973
3.49746
3.49765
3.49779
3.49796
3.49808
3.49824
3.49834
3.49847
3.49855
3.49865
3.49869
3.49872
3.49867
3.49846
3.49795
3.49659
3.49439
3.49207
3.48777
3.48323
3.47557
3.47234
3.47138
3.47114
3.47108
3.43134
3.44025
3.44643
3.45309
3.45717
3.46161
3.46444
3.46769
3.46978
3.47217
3.47365
3.47527
3.47647
3.4781
3.47929
3.48084
3.48194
3.48333
3.48431
3.48554
3.4864
3.48748
3.48823
3.48917
3.48982
3.49064
3.49123
3.492
3.49261
3.49354
3.49442
3.49491
3.49542
3.49575
3.49614
3.4964
3.49672
3.49694
3.49721
3.49739
3.49762
3.49777
3.49797
3.4981
3.49826
3.49837
3.49851
3.4986
3.4987
3.49877
3.49884
3.4989
3.49897
3.49903
3.4991
3.49915
3.49922
3.49926
3.49932
3.49936
3.49941
3.49945
3.49949
3.49952
3.49955
3.49956
3.49957
3.49956
3.49948
3.49931
3.49886
3.49813
3.49735
3.49592
3.4944
3.49187
3.49079
3.49046
3.49038
3.49036
3.43194
3.44027
3.44562
3.45066
3.45339
3.4559
3.4573
3.45865
3.45941
3.46015
3.46067
3.46134
3.46182
3.46244
3.46288
3.46344
3.46383
3.46433
3.46469
3.46513
3.46544
3.46584
3.46612
3.46646
3.46671
3.46701
3.46723
3.46751
3.46774
3.46808
3.46839
3.46857
3.46874
3.46885
3.46898
3.46906
3.46916
3.46923
3.46931
3.46937
3.46944
3.46948
3.46953
3.46957
3.46962
3.46964
3.46968
3.4697
3.46973
3.46974
3.46976
3.46977
3.46979
3.4698
3.46981
3.46982
3.46982
3.46982
3.46982
3.46982
3.4698
3.46979
3.46976
3.46972
3.46966
3.46959
3.46946
3.4693
3.46898
3.46851
3.46745
3.46599
3.46467
3.46249
3.46039
3.4571
3.45569
3.45527
3.45516
3.45514
3.29549
3.32094
3.33686
3.35206
3.36019
3.36774
3.3719
3.37597
3.37823
3.38046
3.38199
3.38403
3.38547
3.38734
3.38864
3.39033
3.3915
3.39301
3.39405
3.3954
3.39633
3.39753
3.39835
3.3994
3.40012
3.40105
3.40169
3.40255
3.40322
3.40424
3.40518
3.4057
3.40622
3.40655
3.40694
3.40719
3.40749
3.40769
3.40794
3.40811
3.40831
3.40844
3.40861
3.40871
3.40885
3.40893
3.40904
3.4091
3.40918
3.40923
3.40928
3.40931
3.40936
3.40939
3.40943
3.40945
3.40946
3.40947
3.40947
3.40945
3.40941
3.40937
3.40927
3.40917
3.40898
3.40877
3.40838
3.40792
3.40695
3.40555
3.40238
3.39796
3.39403
3.38746
3.38121
3.37123
3.36704
3.3658
3.36549
3.36541
3.15802
3.20199
3.22814
3.25374
3.26701
3.27972
3.28651
3.29337
3.29704
3.3008
3.3033
3.30675
3.30909
3.31226
3.31438
3.31724
3.31915
3.3217
3.32341
3.32569
3.32721
3.32922
3.33057
3.33234
3.33352
3.33509
3.33614
3.33759
3.33868
3.3404
3.34198
3.34283
3.34371
3.34425
3.3449
3.34531
3.34583
3.34616
3.34657
3.34684
3.34718
3.3474
3.34768
3.34786
3.34808
3.34822
3.3484
3.34851
3.34864
3.34871
3.3488
3.34886
3.34893
3.34898
3.34904
3.34908
3.34911
3.34912
3.34911
3.34909
3.34902
3.34894
3.34879
3.34862
3.3483
3.34797
3.34731
3.34655
3.34494
3.34267
3.33735
3.32992
3.32351
3.31243
3.30219
3.28512
3.27827
3.2763
3.2758
3.27568
3.0188
3.08376
3.11944
3.15592
3.17386
3.19194
3.20111
3.21089
3.21586
3.22118
3.22457
3.22951
3.23268
3.23722
3.2401
3.24418
3.24677
3.25043
3.25274
3.25601
3.25806
3.26095
3.26277
3.26531
3.26691
3.26915
3.27058
3.27264
3.27411
3.27656
3.27882
3.27995
3.28122
3.28194
3.28287
3.28343
3.28417
3.28461
3.28521
3.28557
3.28606
3.28636
3.28676
3.287
3.28732
3.28751
3.28776
3.28791
3.2881
3.2882
3.28832
3.2884
3.28851
3.28858
3.28866
3.28871
3.28875
3.28877
3.28876
3.28872
3.28863
3.28853
3.2883
3.28808
3.28762
3.28717
3.28623
3.28521
3.28296
3.27991
3.27241
3.26183
3.25316
3.23735
3.22344
3.1986
3.18931
3.18674
3.18609
3.18595
2.87697
2.96669
3.0107
3.05884
3.08069
3.10451
3.11568
3.12861
3.13466
3.14165
3.14578
3.15234
3.15622
3.16224
3.16576
3.17119
3.17435
3.17921
3.18204
3.18637
3.18888
3.19272
3.19494
3.19832
3.20027
3.20325
3.20499
3.20771
3.20951
3.21274
3.21569
3.21708
3.21874
3.21963
3.22086
3.22154
3.22252
3.22306
3.22386
3.2243
3.22495
3.22531
3.22584
3.22613
3.22656
3.22679
3.22713
3.22731
3.22756
3.22768
3.22784
3.22794
3.22809
3.22817
3.22828
3.22834
3.2284
3.22842
3.2284
3.22836
3.22824
3.22811
3.22782
3.22755
3.22695
3.22639
3.22517
3.22393
3.221
3.21732
3.20759
3.19367
3.18311
3.16221
3.14513
3.11147
3.10008
3.0971
3.09637
3.09621
2.73156
2.85145
2.90181
2.96281
2.98745
3.01759
3.03019
3.0466
3.05342
3.06223
3.06689
3.07528
3.07967
3.08737
3.09135
3.09829
3.10187
3.10807
3.11127
3.11681
3.11965
3.12456
3.12707
3.13138
3.13359
3.13739
3.13936
3.14283
3.14485
3.14892
3.15264
3.15419
3.1563
3.1573
3.15887
3.15964
3.16089
3.16151
3.16252
3.16302
3.16385
3.16426
3.16493
3.16526
3.16581
3.16607
3.1665
3.16671
3.16703
3.16717
3.16737
3.16747
3.16766
3.16776
3.1679
3.16797
3.16805
3.16807
3.16805
3.168
3.16785
3.16771
3.16733
3.16703
3.16627
3.16565
3.1641
3.16271
3.15908
3.15498
3.14294
3.12537
3.11347
3.08691
3.06747
3.02344
3.01051
3.00737
3.00663
3.00646
2.58135
2.739
2.79248
2.86824
2.89399
2.93137
2.94454
2.96498
2.97211
2.98297
2.98785
2.99838
3.00299
3.01264
3.01683
3.02552
3.02927
3.03706
3.04042
3.04735
3.05034
3.05649
3.05912
3.06453
3.06685
3.07161
3.07368
3.078
3.08011
3.08512
3.08966
3.09128
3.0939
3.09495
3.09691
3.09772
3.09928
3.09993
3.1012
3.10173
3.10277
3.10319
3.10404
3.10439
3.10507
3.10535
3.10588
3.1061
3.1065
3.10665
3.1069
3.10701
3.10725
3.10735
3.10753
3.1076
3.1077
3.10772
3.1077
3.10765
3.10746
3.10731
3.10685
3.10652
3.10558
3.10493
3.10302
3.10159
3.09718
3.09295
3.0785
3.05685
3.04441
3.01132
2.99081
2.93417
2.92054
2.91754
2.91686
2.91671
2.42483
2.63071
2.68227
2.77566
2.80007
2.84612
2.85861
2.88389
2.89064
2.90396
2.90858
2.92172
2.92611
2.93814
2.94212
2.95294
2.95652
2.96622
2.96941
2.97806
2.9809
2.98856
2.99107
2.99781
3.00001
3.00593
3.0079
3.01326
3.01526
3.02134
3.02681
3.02833
3.03157
3.03256
3.035
3.03577
3.03772
3.03833
3.03991
3.04042
3.04171
3.04211
3.04316
3.0435
3.04434
3.04461
3.04528
3.04548
3.04598
3.04613
3.04643
3.04654
3.04684
3.04693
3.04716
3.04722
3.04735
3.04737
3.04735
3.0473
3.04707
3.04693
3.04635
3.04605
3.04488
3.04427
3.04193
3.04058
3.03526
3.03133
3.01436
2.98796
2.97618
2.93523
2.91558
2.84317
2.83016
2.82762
2.82707
2.82695
2.26008
2.52859
2.57038
2.68585
2.70527
2.76222
2.77216
2.80354
2.80892
2.82529
2.82897
2.84541
2.84892
2.86395
2.86714
2.88066
2.88352
2.89564
2.89819
2.909
2.91127
2.92084
2.92284
2.93126
2.93302
2.94042
2.94199
2.94865
2.95024
2.95758
2.96411
2.96531
2.96932
2.97011
2.97316
2.97377
2.9762
2.97669
2.97867
2.97907
2.98068
2.98101
2.98232
2.98258
2.98364
2.98386
2.98469
2.98486
2.98548
2.9856
2.98597
2.98606
2.98643
2.98651
2.9868
2.98685
2.98701
2.98702
2.987
2.98696
2.98667
2.98656
2.98585
2.9856
2.98417
2.98368
2.9808
2.97973
2.9733
2.97024
2.9506
2.91848
2.90912
2.85829
2.84247
2.74981
2.73935
2.73762
2.73726
2.73718
2.08459
2.43554
2.45554
2.59987
2.60898
2.68019
2.68485
2.72423
2.72675
2.74713
2.74886
2.76961
2.77127
2.79024
2.79174
2.80881
2.81016
2.82544
2.82664
2.84027
2.84134
2.85341
2.85436
2.86498
2.86581
2.87513
2.87587
2.88425
2.88499
2.89385
2.90163
2.90218
2.9072
2.90758
2.91141
2.9117
2.91477
2.915
2.91749
2.91768
2.91971
2.91986
2.92152
2.92164
2.92298
2.92308
2.92414
2.92421
2.925
2.92506
2.92553
2.92557
2.92604
2.92608
2.92645
2.92647
2.92667
2.92668
2.92665
2.92663
2.92627
2.92622
2.92532
2.92521
2.92341
2.92318
2.91959
2.9191
2.91119
2.90981
2.88733
2.8481
2.84372
2.77995
2.77244
2.65315
2.6482
2.64757
2.64744
2.64742
)
;

boundaryField
{
    F1_1
    {
        type            fixedValue;
        value           nonuniform List<scalar> 
80
(
1.99006
2.39615
2.39615
2.5607
2.5607
2.64288
2.64288
2.6905
2.6905
2.72069
2.72069
2.73808
2.73808
2.75716
2.75716
2.77536
2.77536
2.79209
2.79209
2.80722
2.80722
2.82072
2.82072
2.83265
2.83265
2.84314
2.84314
2.85258
2.85258
2.8623
2.87074
2.87074
2.87641
2.87641
2.88074
2.88074
2.88421
2.88421
2.88703
2.88703
2.88933
2.88933
2.8912
2.8912
2.89272
2.89272
2.89391
2.89391
2.89481
2.89481
2.89534
2.89534
2.89588
2.89588
2.8963
2.8963
2.89653
2.89653
2.89649
2.89649
2.89607
2.89607
2.89506
2.89506
2.89301
2.89301
2.88894
2.88894
2.88002
2.88002
2.85603
2.81221
2.81221
2.73965
2.73965
2.60253
2.60253
2.60253
2.60253
2.60253
)
;
    }
    F1_2
    {
        type            fixedValue;
        value           nonuniform List<scalar> 
80
(
1.96884
2.39506
2.39506
2.61959
2.61959
2.76945
2.76945
2.881
2.881
2.96462
2.96462
3.0169
3.0169
3.07461
3.07461
3.12893
3.12893
3.17771
3.17771
3.22065
3.22065
3.25814
3.25814
3.29075
3.29075
3.31927
3.31927
3.34499
3.34499
3.3719
3.39584
3.39584
3.41255
3.41255
3.42585
3.42585
3.43692
3.43692
3.44626
3.44626
3.45419
3.45419
3.46092
3.46092
3.46659
3.46659
3.4713
3.4713
3.47501
3.47501
3.47739
3.47739
3.48006
3.48006
3.48259
3.48259
3.48487
3.48487
3.48688
3.48688
3.48863
3.48863
3.49012
3.49012
3.49129
3.49129
3.49184
3.49184
3.49053
3.49053
3.48186
3.46016
3.46016
3.41356
3.41356
3.30704
3.30704
3.30704
3.30704
3.30704
)
;
    }
    F1_3
    {
        type            fixedValue;
        value           nonuniform List<scalar> 
80
(
1.96884
2.39506
2.39506
2.61958
2.61958
2.76945
2.76945
2.881
2.881
2.96462
2.96462
3.0169
3.0169
3.07461
3.07461
3.12893
3.12893
3.17771
3.17771
3.22065
3.22065
3.25813
3.25813
3.29075
3.29075
3.31927
3.31927
3.34499
3.34499
3.37189
3.39584
3.39584
3.41255
3.41255
3.42585
3.42585
3.43692
3.43692
3.44626
3.44626
3.45419
3.45419
3.46092
3.46092
3.46659
3.46659
3.4713
3.4713
3.47501
3.47501
3.47739
3.47739
3.48006
3.48006
3.48259
3.48259
3.48487
3.48487
3.48688
3.48688
3.48863
3.48863
3.49012
3.49012
3.49129
3.49129
3.49184
3.49184
3.49053
3.49053
3.48186
3.46015
3.46015
3.41356
3.41356
3.30704
3.30704
3.30704
3.30704
3.30704
)
;
    }
    F1_4
    {
        type            fixedValue;
        value           nonuniform List<scalar> 
80
(
1.98983
2.39564
2.39564
2.55959
2.55959
2.6405
2.6405
2.68531
2.68531
2.70842
2.70842
2.73209
2.73209
2.75373
2.75373
2.77319
2.77319
2.79062
2.79062
2.80616
2.80616
2.81993
2.81993
2.83203
2.83203
2.84266
2.84266
2.8522
2.8522
2.86201
2.87053
2.87053
2.87624
2.87624
2.88061
2.88061
2.8841
2.8841
2.88694
2.88694
2.88926
2.88926
2.89114
2.89114
2.89267
2.89267
2.89388
2.89388
2.89478
2.89478
2.89532
2.89532
2.89586
2.89586
2.89628
2.89628
2.89651
2.89651
2.89648
2.89648
2.89606
2.89606
2.89505
2.89505
2.893
2.893
2.88893
2.88893
2.88001
2.88001
2.85603
2.8122
2.8122
2.73965
2.73965
2.60253
2.60253
2.60253
2.60253
2.60253
)
;
    }
    F2_1
    {
        type            fixedValue;
        value           uniform 3.5;
    }
    F2_2
    {
        type            fixedValue;
        value           uniform 3.5;
    }
    F2_3
    {
        type            fixedValue;
        value           uniform 3.5;
    }
    F2_4
    {
        type            fixedValue;
        value           uniform 3.5;
    }
    defaultFaces
    {
        type            empty;
    }
}


// ************************************************************************* //
