/*--------------------------------*- C++ -*----------------------------------*\
| =========                 |                                                 |
| \\      /  F ield         | OpenFOAM: The Open Source CFD Toolbox           |
|  \\    /   O peration     | Version:  5.x                                   |
|   \\  /    A nd           | Web:      www.OpenFOAM.org                      |
|    \\/     M anipulation  |                                                 |
\*---------------------------------------------------------------------------*/
FoamFile
{
    version     2.0;
    format      ascii;
    class       volScalarField;
    location    "5.8";
    object      gradTx;
}
// * * * * * * * * * * * * * * * * * * * * * * * * * * * * * * * * * * * * * //

dimensions      [0 -1 0 1 0 0 0];

internalField   nonuniform List<scalar> 
3200
(
45.2097
3.71201
1.64878
1.54023
0.814982
0.771392
0.466737
0.44728
0.293826
0.282719
0.170831
0.166688
0.180692
0.180841
0.173153
0.172311
0.159535
0.158418
0.144299
0.143117
0.128836
0.127666
0.113867
0.112772
0.100235
0.099348
0.0901766
0.0901709
0.095111
0.164819
0.0825351
0.0552861
0.0534573
0.0417065
0.0408791
0.0332796
0.0327206
0.0270019
0.0265722
0.022012
0.0216653
0.0179246
0.0176368
0.0144872
0.0142399
0.0114699
0.0112427
0.00857784
0.00833886
0.00521226
0.00508137
0.00508222
0.00503468
0.00396989
0.00385682
0.00220593
0.00204044
-0.000266788
-0.000504264
-0.00386282
-0.00422526
-0.00949244
-0.0100976
-0.0191706
-0.0203186
-0.0381757
-0.0408479
-0.0840348
-0.0929568
-0.238767
-0.617385
-0.436284
-0.681728
-0.713094
-1.26839
-1.24276
-0.0558029
-0.00753041
-0.00152568
-52.9469
47.8943
3.10534
1.57735
1.35455
0.774091
0.681031
0.436329
0.394725
0.271787
0.248192
0.160329
0.151483
0.160983
0.161191
0.155214
0.153441
0.143363
0.140999
0.129826
0.12732
0.116011
0.113532
0.102607
0.100288
0.0903856
0.0885227
0.0814538
0.0816058
0.0883993
0.137423
0.0766328
0.0516433
0.0475709
0.0380365
0.0362622
0.0302038
0.0290149
0.024473
0.0235606
0.0199423
0.0192066
0.0162392
0.0156286
0.0131299
0.012605
0.0104064
0.00992394
0.00780724
0.00730283
0.00486269
0.0045846
0.00454051
0.00443665
0.00359615
0.00335652
0.00204733
0.00169594
-0.000137433
-0.000642226
-0.0033147
-0.00408598
-0.0082848
-0.00957517
-0.0168332
-0.0192916
-0.0336918
-0.0394804
-0.0750582
-0.0949779
-0.227114
-0.517791
-0.414912
-0.602148
-0.666728
-1.08518
-1.03153
-0.121861
-0.0209005
-0.0043871
-54.7429
50.5622
2.57653
1.4537
1.18318
0.713703
0.596735
0.397798
0.345424
0.245774
0.216236
0.146666
0.135545
0.141645
0.141788
0.137108
0.134903
0.126882
0.123933
0.115006
0.111876
0.102833
0.0997358
0.0910022
0.088108
0.0802148
0.0779055
0.0724422
0.0727749
0.0799984
0.114419
0.0692985
0.0471639
0.0419029
0.0340561
0.0318167
0.0269332
0.0254432
0.0217988
0.0206572
0.0177573
0.0168371
0.0144595
0.0136958
0.0116936
0.011037
0.00927428
0.00867054
0.00697213
0.00634422
0.00442663
0.00407845
0.00400118
0.00386808
0.00319836
0.00289899
0.00185041
0.00141071
-6.12331e-05
-0.000693493
-0.00284264
-0.00380962
-0.0071935
-0.00881401
-0.0146878
-0.0177871
-0.0295524
-0.0369215
-0.0667079
-0.0925104
-0.20912
-0.43394
-0.381935
-0.527475
-0.606208
-0.920857
-0.854532
-0.155571
-0.0308928
-0.00673227
-56.5388
53.2095
2.11329
1.29597
1.01976
0.639216
0.515718
0.353403
0.298014
0.216956
0.185882
0.130665
0.118918
0.122546
0.122578
0.118902
0.116598
0.110199
0.107106
0.0999537
0.0966676
0.0894164
0.086165
0.0791642
0.0761276
0.0698206
0.0674145
0.0631987
0.0636683
0.0705096
0.0945965
0.0610448
0.0420095
0.0363383
0.0298514
0.0274769
0.0235268
0.0219578
0.0190246
0.0178241
0.0154931
0.0145258
0.0126153
0.0118126
0.0102035
0.00951325
0.00809574
0.0074609
0.0060942
0.00543719
0.00392779
0.00356146
0.00346407
0.00332096
0.00278575
0.00247142
0.00162913
0.00116675
-1.86315e-05
-0.000684095
-0.00241788
-0.00343658
-0.00617274
-0.00788274
-0.0126533
-0.0159358
-0.0255888
-0.0334658
-0.0585169
-0.0864106
-0.186798
-0.361162
-0.341057
-0.455475
-0.53625
-0.771774
-0.702842
-0.16631
-0.0368643
-0.008332
-58.3345
55.8353
1.70417
1.11659
0.860518
0.554446
0.436253
0.304732
0.25163
0.18614
0.156493
0.112925
0.101676
0.103591
0.103516
0.100642
0.0984571
0.0933831
0.0904411
0.084747
0.0816181
0.0758404
0.0727442
0.0671676
0.064278
0.0592703
0.0569959
0.0537678
0.0543069
0.060331
0.0770797
0.0522103
0.0363205
0.0308063
0.0254821
0.0232
0.0200252
0.0185268
0.016181
0.0150363
0.0131744
0.0122523
0.0107267
0.0099616
0.00867657
0.00801856
0.00688589
0.00628053
0.00518786
0.00456424
0.00338321
0.00303371
0.00292879
0.00278951
0.00236429
0.00206496
0.00139263
0.000951709
3.16321e-06
-0.000631974
-0.00202173
-0.00299486
-0.00519305
-0.00682904
-0.0106784
-0.0138298
-0.0216963
-0.0293232
-0.0502123
-0.0774111
-0.161517
-0.296163
-0.294798
-0.38482
-0.460104
-0.63487
-0.569856
-0.160766
-0.0387993
-0.00906329
-60.1299
58.4409
1.33873
0.923951
0.703275
0.462161
0.357322
0.252923
0.205742
0.153889
0.127661
0.0938923
0.0839071
0.0847158
0.0845655
0.082354
0.0804314
0.0764821
0.0738864
0.0694377
0.0666746
0.062157
0.0594225
0.0550635
0.0525131
0.0486107
0.0466154
0.0441862
0.044726
0.0497233
0.0612276
0.0430167
0.0302164
0.0252666
0.0209911
0.0189589
0.0164565
0.0151298
0.0132893
0.0122771
0.010818
0.0100029
0.00880774
0.0081314
0.00712458
0.00654285
0.00565493
0.00511964
0.00426275
0.00371358
0.00280537
0.00249617
0.00239487
0.00226949
0.00193779
0.00167341
0.00114687
0.000756962
1.24129e-05
-0.000549676
-0.00164226
-0.00250414
-0.00423584
-0.00568683
-0.00873139
-0.0115352
-0.0178134
-0.0246501
-0.0416553
-0.0661354
-0.134214
-0.236604
-0.244883
-0.314755
-0.379977
-0.507556
-0.450634
-0.143737
-0.037045
-0.00890123
-61.925
61.0289
1.00752
0.723546
0.546849
0.364425
0.278373
0.198826
0.160041
0.120614
0.0991307
0.0739083
0.0657067
0.0658787
0.065698
0.0640545
0.0624868
0.059527
0.0574058
0.0540609
0.0518013
0.0484024
0.0461659
0.0428871
0.0408023
0.0378748
0.0362523
0.0344858
0.0349669
0.0388554
0.0465641
0.0336065
0.0237984
0.0197
0.0164104
0.0147366
0.0128408
0.0117533
0.0103645
0.00953575
0.0084359
0.00776869
0.00686799
0.0063144
0.00555557
0.00507938
0.00440986
0.0039716
0.00332533
0.00287728
0.00220356
0.0019503
0.0018619
0.00175772
0.00150858
0.00129234
0.000895635
0.000576392
1.43571e-05
-0.000446165
-0.00127202
-0.00197863
-0.00328987
-0.00448087
-0.00679403
-0.00910157
-0.0139082
-0.0195703
-0.0327993
-0.0531157
-0.105539
-0.18081
-0.192505
-0.244876
-0.297357
-0.387623
-0.34141
-0.118699
-0.0321489
-0.00790358
-63.7198
63.6026
0.701961
0.518851
0.390652
0.262835
0.199164
0.143099
0.114365
0.0866209
0.07075
0.0532436
0.0471714
0.0470557
0.0468889
0.045752
0.0445978
0.0425383
0.0409741
0.0386408
0.0369735
0.0346012
0.0329509
0.0306629
0.0291252
0.0270867
0.0258949
0.0246955
0.0250714
0.0278346
0.0327273
0.0240704
0.0171519
0.0141011
0.0117651
0.0105231
0.00919267
0.00838888
0.00741732
0.00680526
0.00603645
0.00554382
0.00491434
0.00450561
0.00397525
0.00362363
0.00315553
0.00283188
0.00237997
0.00204999
0.00158492
0.00139783
0.00132957
0.00125174
0.00107806
0.000918484
0.000641297
0.000405529
1.22353e-05
-0.000328047
-0.000906551
-0.00142895
-0.00234872
-0.00323003
-0.0048569
-0.00656801
-0.00996869
-0.0141879
-0.0236599
-0.0388118
-0.0759503
-0.127559
-0.138499
-0.174992
-0.213226
-0.273149
-0.239247
-0.0882151
-0.0247606
-0.00619324
-65.5143
66.1658
0.414204
0.311959
0.23444
0.158678
0.119651
0.0862784
0.0686499
0.0521529
0.0424346
0.0321215
0.0283978
0.0282348
0.0281186
0.0274502
0.0267451
0.0255298
0.0245733
0.023194
0.0221739
0.0207711
0.0197615
0.0184087
0.0174682
0.0162647
0.0155378
0.0148422
0.0150804
0.0167286
0.0194324
0.0144648
0.0103507
0.0084735
0.00707594
0.00631319
0.00552351
0.00503114
0.00445573
0.00408103
0.00362595
0.00332441
0.00295186
0.00270168
0.00238777
0.00217254
0.00189542
0.00169729
0.00142973
0.00122811
0.000955168
0.000840609
0.000797609
0.000749594
0.000646965
0.000549327
0.000385299
0.000240963
7.98909e-06
-0.000200404
-0.000543332
-0.000863369
-0.00140911
-0.00194937
-0.00291641
-0.00396687
-0.00599649
-0.0085953
-0.0142932
-0.0236284
-0.0457826
-0.0759346
-0.0834721
-0.105039
-0.128226
-0.162428
-0.141769
-0.0542281
-0.0155769
-0.00394138
-67.3087
68.7226
0.136917
0.104079
0.0781575
0.0530522
0.039911
0.0288281
0.0228895
0.0174137
0.014143
0.0107359
0.00948171
0.00941197
0.00937049
0.00914984
0.00891285
0.00851101
0.00818929
0.00773284
0.0073897
0.00692538
0.00658571
0.00613798
0.00582164
0.00542361
0.00517949
0.00495153
0.00503302
0.00558043
0.00644436
0.00482499
0.00345998
0.00282674
0.00236142
0.00210433
0.00184245
0.00167672
0.0014861
0.00136002
0.00120931
0.00110785
0.000984475
0.000900297
0.000796345
0.000723922
0.00063214
0.000565471
0.000476856
0.000409073
0.000319076
0.000280522
0.000265849
0.000249629
0.00021567
0.000182823
0.00012851
7.99398e-05
2.75726e-06
-6.73811e-05
-0.000181032
-0.000288766
-0.000469715
-0.000651643
-0.000972577
-0.00132657
-0.00200153
-0.00287877
-0.00478105
-0.00793229
-0.015295
-0.0252148
-0.0278836
-0.0350214
-0.0427868
-0.0539021
-0.0469665
-0.0182855
-0.00531245
-0.00135199
-69.1029
68.7151
0.150878
0.128424
0.107468
0.0852126
0.0726977
0.0607385
0.0533359
0.0448792
0.0387592
0.0310018
0.02819
0.0283022
0.0281999
0.0273655
0.0264671
0.0249508
0.0237638
0.0221195
0.0209258
0.0193694
0.0182738
0.0168871
0.0159414
0.0147964
0.0141196
0.0135293
0.0138265
0.015503
0.0180865
0.0137132
0.0100589
0.00838087
0.00717047
0.00650456
0.00582634
0.0053935
0.00488958
0.00455154
0.00414067
0.00385958
0.00351147
0.00326971
0.0029651
0.00274808
0.00246589
0.00225354
0.00196038
0.00172508
0.00140334
0.00129079
0.00130841
0.00131011
0.00127735
0.0012388
0.00117108
0.00111701
0.00104079
0.000984225
0.000908435
0.000851708
0.000773719
0.000708288
0.000605215
0.000491108
0.000264957
-7.87587e-05
-0.000896779
-0.00243704
-0.00622721
-0.0118001
-0.0150838
-0.0220705
-0.0295063
-0.0404514
-0.0360619
-0.0140933
-0.00409921
-0.00104358
-69.8074
66.1428
0.456002
0.385214
0.322457
0.255248
0.218071
0.182033
0.16005
0.134544
0.116343
0.0928076
0.0844529
0.0849152
0.0846289
0.082099
0.079426
0.0748393
0.0713098
0.0663405
0.062792
0.0580897
0.0548332
0.0506435
0.0478321
0.0443705
0.0423554
0.0405525
0.0414244
0.0464728
0.0545378
0.0411108
0.0300977
0.0251239
0.0214896
0.0195142
0.0174692
0.0161833
0.0146621
0.0136575
0.0124168
0.0115814
0.0105302
0.00981165
0.0088918
0.00824685
0.00739487
0.00676387
0.00587882
0.00517869
0.00420166
0.00386715
0.00392587
0.0039317
0.00383228
0.00371757
0.0035127
0.00335193
0.0031216
0.00295345
0.00272455
0.00255598
0.00232066
0.00212637
0.00181609
0.00147781
0.000799578
-0.0002173
-0.00266144
-0.00722113
-0.0186103
-0.0354919
-0.0451034
-0.0661934
-0.0883785
-0.121968
-0.108889
-0.0418008
-0.0120201
-0.00304235
-69.4222
63.5632
0.77132
0.641681
0.537623
0.424082
0.363398
0.302766
0.266905
0.223917
0.19414
0.154006
0.140363
0.141558
0.141148
0.136838
0.132461
0.124686
0.118913
0.110505
0.104704
0.0967523
0.0914298
0.0843449
0.0797488
0.0738868
0.0705828
0.0674688
0.0688552
0.077322
0.0918488
0.0684118
0.0498949
0.0418134
0.0357425
0.0325266
0.0290818
0.0269826
0.024414
0.022773
0.0206768
0.0193119
0.0175356
0.0163617
0.0148075
0.0137539
0.012315
0.0112844
0.00978988
0.0086434
0.00697429
0.00642781
0.00654546
0.00655752
0.00638783
0.00619996
0.00585257
0.00558965
0.00519993
0.00492512
0.00453825
0.00426293
0.00386597
0.00354911
0.0030281
0.00247812
0.00134776
-0.00029874
-0.00434147
-0.011732
-0.0307737
-0.0594744
-0.0746637
-0.110272
-0.146794
-0.20535
-0.183876
-0.068016
-0.0191088
-0.00478077
-69.0368
60.9715
1.1039
0.897126
0.753169
0.590802
0.508724
0.422508
0.374044
0.312761
0.272352
0.214145
0.19568
0.198265
0.197823
0.19158
0.185633
0.174452
0.166622
0.154565
0.146703
0.13531
0.128097
0.117947
0.111716
0.103301
0.0988026
0.0942051
0.0960029
0.107929
0.130678
0.0955162
0.0692749
0.0584225
0.0498812
0.0455482
0.0406405
0.0378008
0.0341288
0.0319067
0.0289075
0.0270589
0.0245169
0.0229269
0.0207033
0.0192764
0.0172189
0.0158235
0.013687
0.012129
0.00970204
0.00896191
0.0091693
0.00919064
0.00894414
0.00868875
0.00818908
0.00783245
0.00727369
0.00690128
0.00634752
0.00597477
0.00540809
0.00498003
0.00424128
0.00350166
0.0019166
-0.000284309
-0.00588756
-0.0157768
-0.0425507
-0.0839973
-0.103407
-0.154315
-0.204329
-0.291934
-0.262638
-0.0915531
-0.0248144
-0.00610139
-68.6514
58.3633
1.46124
1.15006
0.969452
0.754311
0.654215
0.540739
0.481697
0.40077
0.351276
0.272694
0.250155
0.255094
0.254729
0.246311
0.239014
0.224084
0.214501
0.198457
0.188843
0.1737
0.164882
0.151392
0.143771
0.132558
0.127026
0.120686
0.122745
0.138103
0.171825
0.122264
0.0880393
0.0749393
0.0638516
0.0585929
0.0521167
0.0486522
0.0437858
0.0410716
0.0370923
0.0348337
0.0314602
0.0295176
0.0265672
0.0248242
0.0220963
0.0203922
0.0175611
0.0156495
0.0123623
0.0114582
0.0118006
0.0118345
0.0115008
0.0111874
0.0105199
0.0100834
0.00934003
0.00888474
0.00814958
0.00769439
0.0069447
0.00642341
0.00545452
0.00455905
0.0025101
-0.000133756
-0.00726218
-0.0191462
-0.0537406
-0.109402
-0.130891
-0.198393
-0.26036
-0.383194
-0.347072
-0.110916
-0.0285989
-0.00687206
-68.2657
55.7348
1.85133
1.39777
1.18712
0.913217
0.800241
0.656793
0.590225
0.487522
0.431363
0.329002
0.30353
0.312134
0.311958
0.300996
0.2927
0.273502
0.262638
0.242092
0.231204
0.211837
0.201854
0.184602
0.17597
0.161589
0.155283
0.14683
0.148956
0.167542
0.216303
0.148398
0.105959
0.0913757
0.077589
0.0716865
0.0634724
0.0595599
0.0533567
0.0502872
0.0452084
0.0426532
0.0383464
0.0361486
0.0323829
0.0304115
0.0269329
0.0250062
0.0213985
0.019225
0.0149274
0.0139046
0.0144443
0.0144931
0.0140568
0.0137002
0.0128415
0.0123466
0.0113949
0.0108794
0.00994048
0.00942583
0.00847221
0.00788472
0.00666487
0.00566261
0.00312744
0.000196218
-0.00844653
-0.0216071
-0.0640879
-0.136173
-0.156534
-0.242692
-0.313956
-0.480812
-0.439508
-0.124126
-0.0299598
-0.00699774
-67.8798
53.0831
2.28276
1.63576
1.40731
1.06569
0.947486
0.769772
0.700199
0.572413
0.513298
0.382234
0.355543
0.369526
0.369619
0.355575
0.346822
0.322587
0.311162
0.28534
0.273904
0.249599
0.239116
0.217468
0.208399
0.190296
0.183625
0.172552
0.174509
0.195775
0.265447
0.173514
0.122764
0.10778
0.0910111
0.0848725
0.0746562
0.0705592
0.0628023
0.0595832
0.0532236
0.0505429
0.0451483
0.0428425
0.0381269
0.0360591
0.0317074
0.0296874
0.0251785
0.0228855
0.0173615
0.0162885
0.0171077
0.0171712
0.0166096
0.0162331
0.0151487
0.0146282
0.0134323
0.0128911
0.0117145
0.0111749
0.00998512
0.00937138
0.00786655
0.00682753
0.00376066
0.0007547
-0.00945012
-0.0228952
-0.0732509
-0.165013
-0.179544
-0.287587
-0.363728
-0.586756
-0.542906
-0.128487
-0.0284726
-0.00643365
-67.4936
50.4068
2.7647
1.85701
1.63203
1.20922
1.09711
0.878426
0.812501
0.654556
0.598111
0.431291
0.405929
0.427473
0.427845
0.409942
0.401564
0.37116
0.360262
0.328014
0.317119
0.286809
0.276825
0.249831
0.241189
0.218546
0.212143
0.197752
0.199289
0.222072
0.321056
0.196983
0.138139
0.124257
0.104008
0.0982219
0.0855953
0.0817051
0.0720666
0.069005
0.0610918
0.0585412
0.0518267
0.0496329
0.0437651
0.0417982
0.0363888
0.0344683
0.02887
0.0266753
0.0196176
0.0185969
0.0198014
0.0198743
0.019155
0.0187944
0.0174333
0.0169368
0.0154437
0.0149283
0.013463
0.01295
0.011475
0.0108937
0.00904965
0.00807362
0.00439149
0.00160119
-0.010324
-0.0227067
-0.0807575
-0.196941
-0.198815
-0.333758
-0.407624
-0.703376
-0.661127
-0.120271
-0.0238663
-0.0051988
-67.1073
47.7067
3.30665
2.05095
1.86466
1.34032
1.251
0.980969
0.928483
0.73264
0.687339
0.47469
0.454438
0.486268
0.486802
0.463929
0.457187
0.418953
0.410216
0.369833
0.361111
0.323205
0.315215
0.28146
0.274539
0.246147
0.240982
0.222316
0.22322
0.245321
0.385588
0.217843
0.151716
0.140988
0.116427
0.111845
0.0961852
0.0930811
0.081068
0.078621
0.0687456
0.0667062
0.0583245
0.0565703
0.0492474
0.0476752
0.0409307
0.0393963
0.0324255
0.0306598
0.0216323
0.0208163
0.0225404
0.0226092
0.0216862
0.0213958
0.0196834
0.0192854
0.017416
0.0170035
0.0151735
0.0147636
0.0129293
0.0124666
0.0101981
0.009428
0.00498672
0.00281314
-0.0111796
-0.0206914
-0.0859386
-0.233443
-0.212762
-0.382372
-0.442645
-0.833515
-0.799291
-0.0942775
-0.0161505
-0.00338802
-66.7208
44.9875
3.91802
2.20212
2.11082
1.45403
1.41212
1.07481
1.0502
0.804701
0.783261
0.510393
0.500865
0.546314
0.546695
0.51727
0.514069
0.465566
0.461436
0.410387
0.40627
0.358405
0.354636
0.312016
0.308748
0.272819
0.27036
0.246097
0.246303
0.263843
0.46244
0.234638
0.163077
0.158272
0.128047
0.125911
0.106273
0.104814
0.0896868
0.0885342
0.0760861
0.075125
0.0645573
0.0637306
0.0544997
0.0537591
0.0452644
0.044542
0.0357728
0.0349348
0.0233186
0.0229341
0.0253456
0.0253838
0.0241922
0.0240542
0.0218811
0.0216929
0.01933
0.0191355
0.0168273
0.0166343
0.0143287
0.0141119
0.0112866
0.0109293
0.0054913
0.00449792
-0.0122143
-0.0164466
-0.0878293
-0.276671
-0.219097
-0.43536
-0.464441
-0.980657
-0.964287
-0.0432084
-0.00582012
-0.00117827
-66.3342
44.9875
3.91802
2.20212
2.11082
1.45403
1.41212
1.07481
1.0502
0.804702
0.783262
0.510394
0.500865
0.546314
0.546696
0.517271
0.514069
0.465566
0.461436
0.410387
0.40627
0.358406
0.354636
0.312016
0.308749
0.272819
0.27036
0.246097
0.246304
0.263844
0.462441
0.234639
0.163078
0.158272
0.128047
0.125912
0.106273
0.104814
0.0896871
0.0885345
0.0760863
0.0751253
0.0645575
0.0637309
0.0544999
0.0537593
0.0452645
0.0445422
0.035773
0.0349349
0.0233187
0.0229342
0.0253457
0.0253839
0.0241923
0.0240543
0.0218812
0.021693
0.0193302
0.0191356
0.0168274
0.0166344
0.0143288
0.014112
0.0112868
0.0109294
0.00549147
0.00449811
-0.0122138
-0.0164461
-0.0878277
-0.276666
-0.219093
-0.435352
-0.464434
-0.980642
-0.964273
-0.0432077
-0.00582003
-0.00117827
-66.3342
47.7067
3.30665
2.05095
1.86466
1.34032
1.251
0.980969
0.928484
0.73264
0.687339
0.47469
0.454438
0.486268
0.486802
0.463929
0.457187
0.418953
0.410216
0.369834
0.361111
0.323206
0.315216
0.28146
0.274539
0.246147
0.240982
0.222316
0.22322
0.245321
0.385589
0.217843
0.151717
0.140988
0.116427
0.111845
0.0961855
0.0930814
0.0810682
0.0786212
0.0687458
0.0667064
0.0583247
0.0565705
0.0492476
0.0476753
0.0409309
0.0393965
0.0324256
0.0306599
0.0216324
0.0208163
0.0225404
0.0226093
0.0216863
0.0213959
0.0196835
0.0192855
0.0174161
0.0170036
0.0151736
0.0147637
0.0129294
0.0124668
0.0101982
0.00942812
0.00498688
0.00281333
-0.0111792
-0.0206909
-0.085937
-0.233438
-0.212758
-0.382366
-0.442638
-0.833502
-0.79928
-0.0942761
-0.0161502
-0.00338797
-66.7208
50.4068
2.7647
1.85701
1.63203
1.20922
1.09711
0.878426
0.812501
0.654556
0.598111
0.431292
0.405929
0.427473
0.427845
0.409943
0.401564
0.37116
0.360262
0.328014
0.317119
0.286809
0.276826
0.249831
0.241189
0.218546
0.212144
0.197753
0.19929
0.222072
0.321057
0.196983
0.13814
0.124257
0.104008
0.0982222
0.0855956
0.0817054
0.0720669
0.0690052
0.061092
0.0585414
0.0518269
0.0496331
0.0437653
0.0417984
0.036389
0.0344684
0.0288702
0.0266755
0.0196177
0.0185969
0.0198014
0.0198744
0.0191551
0.0187945
0.0174334
0.0169369
0.0154438
0.0149284
0.0134631
0.0129501
0.0114751
0.0108938
0.00904975
0.00807373
0.00439164
0.00160137
-0.0103237
-0.0227061
-0.080756
-0.196938
-0.198811
-0.333753
-0.407618
-0.703365
-0.661117
-0.120269
-0.0238659
-0.00519869
-67.1073
53.0831
2.28276
1.63576
1.40731
1.06569
0.947486
0.769773
0.700199
0.572413
0.513298
0.382234
0.355543
0.369526
0.369619
0.355575
0.346822
0.322587
0.311162
0.285341
0.273904
0.2496
0.239116
0.217468
0.208399
0.190296
0.183625
0.172552
0.174509
0.195776
0.265448
0.173515
0.122765
0.107781
0.0910114
0.0848728
0.0746564
0.0705595
0.0628025
0.0595834
0.0532238
0.0505431
0.0451485
0.0428427
0.038127
0.0360593
0.0317076
0.0296875
0.0251786
0.0228856
0.0173615
0.0162886
0.0171078
0.0171712
0.0166097
0.0162332
0.0151488
0.0146283
0.0134324
0.0128912
0.0117145
0.011175
0.0099852
0.00937146
0.00786664
0.00682763
0.00376079
0.000754865
-0.00944981
-0.0228946
-0.0732495
-0.16501
-0.179541
-0.287583
-0.363722
-0.586748
-0.542898
-0.128485
-0.0284721
-0.00643349
-67.4937
55.7348
1.85132
1.39777
1.18712
0.913217
0.800241
0.656794
0.590225
0.487523
0.431363
0.329002
0.30353
0.312134
0.311958
0.300996
0.2927
0.273502
0.262638
0.242092
0.231204
0.211837
0.201854
0.184603
0.17597
0.161589
0.155283
0.14683
0.148957
0.167543
0.216303
0.148399
0.105959
0.0913759
0.0775892
0.0716867
0.0634726
0.0595601
0.0533568
0.0502873
0.0452086
0.0426534
0.0383465
0.0361488
0.032383
0.0304116
0.026933
0.0250063
0.0213986
0.0192251
0.0149274
0.0139046
0.0144444
0.0144932
0.0140568
0.0137002
0.0128416
0.0123467
0.011395
0.0108795
0.00994056
0.0094259
0.00847228
0.0078848
0.00666494
0.00566269
0.00312755
0.000196362
-0.00844627
-0.0216067
-0.0640867
-0.13617
-0.156531
-0.242689
-0.313951
-0.480805
-0.439501
-0.124124
-0.0299593
-0.00699754
-67.8798
58.3633
1.46124
1.15006
0.969451
0.75431
0.654215
0.540739
0.481697
0.40077
0.351276
0.272695
0.250155
0.255094
0.254729
0.246311
0.239014
0.224084
0.214501
0.198457
0.188843
0.1737
0.164882
0.151392
0.143771
0.132558
0.127027
0.120686
0.122746
0.138103
0.171825
0.122264
0.0880396
0.0749395
0.0638518
0.0585931
0.0521168
0.0486524
0.0437859
0.0410717
0.0370925
0.0348339
0.0314604
0.0295177
0.0265673
0.0248243
0.0220964
0.0203923
0.0175612
0.0156495
0.0123624
0.0114582
0.0118007
0.0118345
0.0115009
0.0111874
0.01052
0.0100834
0.00934009
0.0088848
0.00814964
0.00769445
0.00694476
0.00642347
0.00545458
0.00455912
0.00251019
-0.000133636
-0.00726196
-0.0191458
-0.0537397
-0.1094
-0.130889
-0.19839
-0.260356
-0.383188
-0.347067
-0.110914
-0.0285985
-0.00687185
-68.2657
60.9715
1.1039
0.897125
0.753169
0.590802
0.508724
0.422508
0.374045
0.312761
0.272352
0.214145
0.19568
0.198265
0.197823
0.19158
0.185633
0.174452
0.166623
0.154565
0.146703
0.13531
0.128097
0.117947
0.111716
0.103301
0.0988027
0.0942052
0.096003
0.107929
0.130679
0.0955165
0.0692751
0.0584227
0.0498813
0.0455484
0.0406407
0.0378009
0.034129
0.0319068
0.0289076
0.027059
0.024517
0.022927
0.0207033
0.0192765
0.017219
0.0158235
0.0136871
0.0121291
0.00970208
0.00896194
0.00916933
0.00919068
0.00894418
0.0086888
0.00818912
0.0078325
0.00727374
0.00690133
0.00634757
0.00597481
0.00540814
0.00498008
0.00424133
0.00350171
0.00191667
-0.000284216
-0.00588739
-0.0157765
-0.0425499
-0.0839959
-0.103406
-0.154312
-0.204326
-0.29193
-0.262634
-0.0915516
-0.024814
-0.0061012
-68.6514
63.5632
0.771318
0.641681
0.537623
0.424082
0.363398
0.302766
0.266905
0.223917
0.194141
0.154006
0.140363
0.141558
0.141148
0.136838
0.132461
0.124686
0.118913
0.110505
0.104704
0.0967523
0.0914299
0.084345
0.0797489
0.0738869
0.0705829
0.0674689
0.0688553
0.0773221
0.091849
0.068412
0.0498951
0.0418135
0.0357426
0.0325267
0.0290819
0.0269827
0.0244141
0.0227731
0.0206769
0.019312
0.0175356
0.0163617
0.0148076
0.013754
0.0123151
0.0112844
0.00978992
0.00864343
0.00697432
0.00642783
0.00654548
0.00655755
0.00638786
0.00619999
0.0058526
0.00558968
0.00519997
0.00492515
0.00453829
0.00426296
0.003866
0.00354914
0.00302813
0.00247815
0.0013478
-0.000298674
-0.00434135
-0.0117318
-0.0307732
-0.0594734
-0.0746625
-0.110271
-0.146792
-0.205347
-0.183873
-0.0680149
-0.0191085
-0.00478061
-69.0369
66.1428
0.456001
0.385213
0.322457
0.255248
0.218071
0.182033
0.16005
0.134544
0.116343
0.0928076
0.0844529
0.0849152
0.084629
0.0820991
0.079426
0.0748394
0.0713098
0.0663405
0.062792
0.0580898
0.0548332
0.0506436
0.0478321
0.0443706
0.0423555
0.0405526
0.0414244
0.0464729
0.0545379
0.0411109
0.0300978
0.025124
0.0214897
0.0195142
0.0174693
0.0161834
0.0146622
0.0136576
0.0124169
0.0115815
0.0105302
0.00981168
0.00889183
0.00824688
0.0073949
0.0067639
0.00587884
0.00517871
0.00420167
0.00386717
0.00392588
0.00393172
0.00383229
0.00371759
0.00351272
0.00335195
0.00312162
0.00295347
0.00272456
0.002556
0.00232068
0.00212639
0.00181611
0.00147783
0.000799606
-0.000217262
-0.00266137
-0.00722099
-0.01861
-0.0354913
-0.0451026
-0.0661923
-0.0883771
-0.121966
-0.108887
-0.0418001
-0.0120199
-0.00304225
-69.4222
68.7151
0.150877
0.128424
0.107468
0.0852126
0.0726977
0.0607385
0.0533359
0.0448792
0.0387592
0.0310018
0.02819
0.0283022
0.0281999
0.0273655
0.0264671
0.0249508
0.0237638
0.0221195
0.0209258
0.0193694
0.0182738
0.0168871
0.0159414
0.0147964
0.0141196
0.0135294
0.0138265
0.015503
0.0180865
0.0137132
0.0100589
0.00838089
0.00717048
0.00650458
0.00582636
0.00539351
0.00488959
0.00455155
0.00414068
0.00385959
0.00351148
0.00326972
0.00296511
0.00274809
0.00246589
0.00225355
0.00196038
0.00172508
0.00140335
0.00129079
0.00130841
0.00131011
0.00127735
0.0012388
0.00117109
0.00111702
0.0010408
0.000984231
0.000908441
0.000851713
0.000773725
0.000708294
0.000605221
0.000491114
0.000264966
-7.87463e-05
-0.000896756
-0.002437
-0.00622711
-0.0117999
-0.0150836
-0.0220701
-0.0295058
-0.0404508
-0.0360613
-0.014093
-0.00409914
-0.00104354
-69.8074
68.7222
0.136749
0.103801
0.0777642
0.052445
0.0390553
0.0275036
0.0210896
0.0150024
0.0125848
0.0119228
0.0115727
0.0110195
0.0105814
0.00996764
0.00952177
0.00893957
0.00852166
0.00797858
0.00758772
0.00707827
0.00671296
0.00623993
0.00590886
0.00549589
0.00524317
0.00500695
0.00508561
0.00563436
0.0065038
0.00486796
0.00348939
0.00284992
0.00238014
0.00212066
0.00185644
0.00168926
0.00149706
0.00136994
0.00121804
0.00111579
0.000991478
0.000906672
0.000801958
0.000729015
0.000636586
0.000569454
0.000480235
0.000411993
0.000321396
0.000282614
0.000267926
0.000251678
0.000217629
0.000184694
0.000130241
8.15642e-05
4.23761e-06
-6.60036e-05
-0.000179786
-0.000287612
-0.000468676
-0.000650683
-0.000971713
-0.00132577
-0.00200081
-0.00287809
-0.00478042
-0.00793166
-0.0152943
-0.025214
-0.027883
-0.035021
-0.0427865
-0.0539019
-0.0469662
-0.0182854
-0.00531242
-0.00135194
-69.1029
66.1645
0.413702
0.311125
0.233264
0.156858
0.117092
0.0823054
0.0632559
0.0448604
0.0376842
0.0357558
0.0347263
0.033054
0.0317513
0.0298962
0.0285708
0.0268121
0.02557
0.0239297
0.0227679
0.021229
0.0201432
0.0187141
0.0177299
0.0164812
0.0157288
0.0150083
0.015238
0.0168902
0.0196116
0.0145936
0.0104386
0.00854297
0.00713201
0.00636215
0.00556542
0.00506879
0.00448857
0.00411082
0.00365213
0.00334825
0.00297285
0.00272081
0.0024046
0.00218782
0.00190874
0.00170925
0.00143986
0.00123687
0.000962114
0.000846878
0.00080384
0.000755746
0.000652841
0.000554942
0.00039049
0.000245838
1.24287e-05
-0.00019627
-0.000539597
-0.000859906
-0.00140599
-0.00194649
-0.00291382
-0.00396447
-0.00599433
-0.00859328
-0.0142913
-0.0236265
-0.0457805
-0.0759321
-0.0834703
-0.105038
-0.128225
-0.162428
-0.141769
-0.0542278
-0.0155768
-0.00394125
-67.3087
63.6005
0.701126
0.517461
0.388705
0.259805
0.19493
0.136478
0.105396
0.0742696
0.0625736
0.059553
0.0579055
0.0550736
0.0529433
0.0498036
0.0476371
0.044664
0.0426343
0.0398616
0.0379632
0.0353617
0.0335871
0.0311705
0.0295614
0.0274468
0.0262132
0.0249715
0.0253335
0.0281033
0.033029
0.0242847
0.0172974
0.0142166
0.0118582
0.0106047
0.0092624
0.00845166
0.00747198
0.00685494
0.00608002
0.00558356
0.00494929
0.00453751
0.00400326
0.00364912
0.00317772
0.00285183
0.00239684
0.00206462
0.00159645
0.00140825
0.00133995
0.001262
0.00108785
0.000927849
0.000649945
0.00041366
1.96291e-05
-0.000321153
-0.00090033
-0.00142317
-0.00234353
-0.00322522
-0.00485259
-0.00656401
-0.00996509
-0.0141845
-0.0236567
-0.0388087
-0.0759468
-0.127555
-0.138496
-0.17499
-0.213224
-0.273148
-0.239246
-0.0882147
-0.0247605
-0.00619306
-65.5143
61.026
1.00636
0.721601
0.544153
0.360192
0.272511
0.189555
0.147538
0.102902
0.0871161
0.0832951
0.0811322
0.0770652
0.0741757
0.0696721
0.0667357
0.0624782
0.0597282
0.0557586
0.0531866
0.0494612
0.0470567
0.0435946
0.0414132
0.038377
0.036698
0.0348707
0.0353327
0.0392302
0.0469931
0.0339055
0.024
0.0198614
0.0165403
0.0148508
0.0129381
0.0118413
0.0104409
0.00960536
0.00849678
0.00782439
0.00691683
0.00635911
0.00559472
0.0051151
0.00444086
0.00399957
0.00334889
0.00289781
0.00221958
0.00196483
0.00187645
0.00177211
0.00152229
0.00130547
0.000907732
0.000587787
2.46957e-05
-0.000436504
-0.00126332
-0.00197054
-0.00328262
-0.00447413
-0.00678801
-0.00909597
-0.0139031
-0.0195656
-0.0327949
-0.0531113
-0.105534
-0.180804
-0.1925
-0.244873
-0.297355
-0.387621
-0.341409
-0.118698
-0.0321487
-0.00790337
-63.7198
58.4372
1.33725
0.921449
0.69986
0.456727
0.349903
0.240995
0.189784
0.13038
0.11118
0.106971
0.104435
0.0990097
0.0954726
0.0894778
0.0858871
0.0802321
0.076871
0.0715996
0.0684561
0.063508
0.0605687
0.0559675
0.0532992
0.049253
0.0471886
0.0446782
0.0451945
0.0502025
0.0617913
0.0433989
0.0304718
0.0254734
0.021157
0.0191059
0.0165812
0.015243
0.0133872
0.0123667
0.0108961
0.0100746
0.00887036
0.00818896
0.00717478
0.00658887
0.00569469
0.00515569
0.00429296
0.00374007
0.00282577
0.00251474
0.00241358
0.00228802
0.00195541
0.00169032
0.0011624
0.000771635
2.56812e-05
-0.000537236
-0.0016311
-0.00249372
-0.00422654
-0.00567815
-0.00872366
-0.011528
-0.0178069
-0.0246441
-0.0416497
-0.0661298
-0.134208
-0.236596
-0.244878
-0.314751
-0.379974
-0.507554
-0.450632
-0.143736
-0.0370448
-0.00890103
-61.925
55.8308
1.70238
1.11353
0.85643
0.547809
0.427378
0.290127
0.232359
0.156249
0.134644
0.13058
0.127853
0.120879
0.116868
0.109187
0.105121
0.0978942
0.0940902
0.0873556
0.0837978
0.0774744
0.0741471
0.068263
0.0652403
0.0600497
0.0576971
0.0543647
0.0548765
0.0609114
0.0777887
0.0526738
0.0366265
0.0310582
0.0256831
0.0233798
0.0201768
0.0186655
0.0163
0.015146
0.0132694
0.0123401
0.010803
0.0100321
0.00873769
0.00807495
0.00693429
0.00632474
0.00522463
0.00459678
0.00340782
0.00305626
0.00295168
0.00281221
0.00238581
0.00208568
0.00141158
0.000969683
1.9338e-05
-0.000616737
-0.00200814
-0.00298209
-0.00518171
-0.00681842
-0.010669
-0.013821
-0.0216884
-0.0293158
-0.0502055
-0.0774043
-0.16151
-0.296153
-0.294791
-0.384815
-0.4601
-0.634867
-0.569854
-0.160765
-0.0387991
-0.00906311
-60.1298
53.2043
2.1112
1.29234
1.01506
0.631364
0.505526
0.33608
0.275667
0.179939
0.157407
0.154135
0.151442
0.142629
0.13841
0.128753
0.124482
0.115419
0.111427
0.102984
0.0992501
0.0913209
0.0878277
0.080444