/*--------------------------------*- C++ -*----------------------------------*\
| =========                 |                                                 |
| \\      /  F ield         | OpenFOAM: The Open Source CFD Toolbox           |
|  \\    /   O peration     | Version:  5.x                                   |
|   \\  /    A nd           | Web:      www.OpenFOAM.org                      |
|    \\/     M anipulation  |                                                 |
\*---------------------------------------------------------------------------*/
FoamFile
{
    version     2.0;
    format      ascii;
    class       volScalarField;
    location    "5.8";
    object      T;
}
// * * * * * * * * * * * * * * * * * * * * * * * * * * * * * * * * * * * * * //

dimensions      [0 0 0 1 0 0 0];

internalField   nonuniform List<scalar> 
3200
(
2.0849
2.43607
2.4561
2.60095
2.61012
2.68245
2.68726
2.72912
2.73199
2.7585
2.76026
2.77559
2.77693
2.79366
2.79502
2.81097
2.81225
2.82692
2.82809
2.84135
2.8424
2.85424
2.85517
2.86562
2.86644
2.87565
2.87638
2.88467
2.8854
2.89418
2.90188
2.90243
2.90741
2.90778
2.91158
2.91186
2.91491
2.91514
2.91761
2.91779
2.91981
2.91996
2.9216
2.92172
2.92305
2.92315
2.9242
2.92427
2.92505
2.92511
2.92557
2.92561
2.92608
2.92612
2.92648
2.9265
2.9267
2.92671
2.92667
2.92666
2.92629
2.92623
2.92534
2.92522
2.92342
2.92319
2.9196
2.91911
2.9112
2.90981
2.88732
2.84807
2.84369
2.7799
2.77239
2.65306
2.64811
2.64748
2.64736
2.64733
2.26038
2.52906
2.57091
2.68679
2.70637
2.7642
2.77447
2.80783
2.81394
2.83501
2.83876
2.85105
2.85391
2.86714
2.87003
2.88267
2.88537
2.897
2.89947
2.90998
2.9122
2.92159
2.92356
2.93185
2.93359
2.94088
2.94244
2.94903
2.9506
2.95787
2.96434
2.96553
2.96951
2.97029
2.97331
2.97392
2.97633
2.97682
2.97878
2.97917
2.98077
2.98109
2.98239
2.98266
2.98371
2.98392
2.98475
2.98491
2.98553
2.98564
2.98602
2.9861
2.98647
2.98654
2.98683
2.98688
2.98703
2.98705
2.98702
2.98698
2.98669
2.98657
2.98586
2.98562
2.98418
2.98369
2.98081
2.97974
2.9733
2.97024
2.95059
2.91846
2.9091
2.85825
2.84243
2.74973
2.73927
2.73754
2.73718
2.73711
2.42511
2.63112
2.68276
2.77649
2.80108
2.84786
2.86075
2.88764
2.89529
2.91221
2.91692
2.92688
2.93047
2.94105
2.94465
2.95476
2.95814
2.96744
2.97053
2.97895
2.98172
2.98923
2.99169
2.99833
3.0005
3.00635
3.0083
3.01359
3.01557
3.02159
3.02701
3.02852
3.03173
3.03271
3.03514
3.0359
3.03783
3.03844
3.04001
3.04051
3.04179
3.04219
3.04323
3.04356
3.0444
3.04466
3.04533
3.04553
3.04603
3.04616
3.04647
3.04657
3.04687
3.04696
3.04719
3.04725
3.04737
3.04739
3.04737
3.04732
3.04708
3.04694
3.04636
3.04606
3.04489
3.04428
3.04194
3.04059
3.03527
3.03134
3.01436
2.98794
2.97616
2.9352
2.91554
2.84311
2.83009
2.82755
2.827
2.82688
2.58159
2.73935
2.79292
2.86895
2.8949
2.93287
2.94647
2.96821
2.97627
2.98991
2.99486
3.00297
3.00675
3.01523
3.01901
3.02712
3.03067
3.03814
3.04138
3.04813
3.05105
3.05707
3.05966
3.06499
3.06728
3.07197
3.07402
3.07829
3.08038
3.08534
3.08984
3.09145
3.09405
3.09508
3.09703
3.09783
3.09938
3.10003
3.10129
3.10181
3.10284
3.10326
3.1041
3.10444
3.10512
3.10539
3.10593
3.10614
3.10654
3.10668
3.10693
3.10704
3.10728
3.10737
3.10755
3.10762
3.10772
3.10773
3.10771
3.10767
3.10747
3.10732
3.10686
3.10653
3.10559
3.10494
3.10303
3.10159
3.09718
3.09295
3.0785
3.05684
3.04439
3.01129
2.99077
2.93411
2.92048
2.91748
2.9168
2.91665
2.73177
2.85175
2.90219
2.96341
2.98824
3.01886
3.03187
3.04933
3.05703
3.06794
3.07268
3.07924
3.08285
3.0896
3.0932
3.09966
3.10304
3.109
3.11209
3.11747
3.12025
3.12506
3.12752
3.13177
3.13395
3.1377
3.13965
3.14308
3.14508
3.14911
3.15279
3.15433
3.15642
3.15741
3.15897
3.15973
3.16097
3.16158
3.16259
3.16309
3.16391
3.16431
3.16498
3.16531
3.16585
3.16611
3.16654
3.16674
3.16706
3.1672
3.16739
3.1675
3.16769
3.16778
3.16792
3.16799
3.16806
3.16808
3.16806
3.16802
3.16786
3.16772
3.16734
3.16703
3.16627
3.16565
3.1641
3.16272
3.15908
3.15498
3.14293
3.12536
3.11345
3.08688
3.06744
3.02339
3.01046
3.00732
3.00658
3.00641
2.87715
2.96694
3.01102
3.05933
3.08135
3.10555
3.11708
3.13084
3.13766
3.14623
3.15042
3.15562
3.15882
3.16409
3.16727
3.17233
3.17532
3.17997
3.1827
3.18692
3.18937
3.19313
3.19531
3.19864
3.20056
3.2035
3.20523
3.20792
3.2097
3.21289
3.21582
3.21719
3.21884
3.21972
3.22094
3.22162
3.22259
3.22313
3.22392
3.22436
3.225
3.22536
3.22588
3.22617
3.22659
3.22682
3.22716
3.22734
3.22758
3.22771
3.22786
3.22796
3.2281
3.22818
3.2283
3.22835
3.22841
3.22843
3.22841
3.22837
3.22825
3.22812
3.22783
3.22755
3.22695
3.2264
3.22517
3.22393
3.22101
3.21732
3.20758
3.19366
3.1831
3.16219
3.1451
3.11143
3.10004
3.09706
3.09633
3.09617
3.01894
3.08395
3.11969
3.1563
3.17438
3.19275
3.20221
3.21263
3.21822
3.22469
3.22813
3.23208
3.2347
3.23867
3.24127
3.24507
3.24752
3.25103
3.25326
3.25643
3.25844
3.26127
3.26306
3.26556
3.26714
3.26935
3.27076
3.2728
3.27426
3.27668
3.27892
3.28004
3.2813
3.28201
3.28294
3.28349
3.28422
3.28466
3.28526
3.28562
3.2861
3.28639
3.28679
3.28703
3.28734
3.28753
3.28778
3.28793
3.28812
3.28822
3.28834
3.28841
3.28852
3.28859
3.28867
3.28872
3.28876
3.28878
3.28876
3.28873
3.28864
3.28853
3.28831
3.28809
3.28763
3.28717
3.28624
3.28522
3.28296
3.27991
3.2724
3.26183
3.25315
3.23734
3.22342
3.19858
3.18928
3.18671
3.18606
3.18592
3.15813
3.20213
3.22832
3.25402
3.26739
3.2803
3.2873
3.29461
3.29874
3.30327
3.30582
3.3086
3.31053
3.3133
3.31522
3.31788
3.31968
3.32213
3.32378
3.32599
3.32748
3.32946
3.33077
3.33252
3.33368
3.33523
3.33627
3.3377
3.33878
3.34048
3.34205
3.34289
3.34377
3.3443
3.34495
3.34535
3.34586
3.34619
3.34661
3.34687
3.34721
3.34743
3.3477
3.34788
3.3481
3.34824
3.34841
3.34852
3.34865
3.34873
3.34881
3.34887
3.34894
3.34899
3.34905
3.34908
3.34912
3.34912
3.34912
3.34909
3.34903
3.34895
3.34879
3.34863
3.34831
3.34797
3.34731
3.34655
3.34494
3.34267
3.33735
3.32991
3.3235
3.31241
3.30218
3.2851
3.27825
3.27628
3.27577
3.27566
3.29555
3.32103
3.33697
3.35222
3.36042
3.36809
3.37238
3.37672
3.37925
3.38193
3.38349
3.38515
3.38633
3.38797
3.38914
3.39071
3.39182
3.39327
3.39428
3.39559
3.39649
3.39766
3.39847
3.3995
3.40022
3.40113
3.40177
3.40261
3.40328
3.40429
3.40522
3.40573
3.40626
3.40658
3.40696
3.40721
3.40752
3.40772
3.40796
3.40812
3.40832
3.40846
3.40862
3.40873
3.40886
3.40894
3.40905
3.40911
3.40919
3.40924
3.40929
3.40932
3.40937
3.4094
3.40943
3.40945
3.40947
3.40947
3.40947
3.40945
3.40942
3.40937
3.40927
3.40917
3.40898
3.40878
3.40838
3.40792
3.40695
3.40555
3.40238
3.39796
3.39403
3.38746
3.38121
3.37121
3.36703
3.36579
3.36547
3.3654
3.43196
3.4403
3.44565
3.45071
3.45347
3.45602
3.45746
3.4589
3.45975
3.46064
3.46116
3.46171
3.46211
3.46265
3.46305
3.46357
3.46394
3.46442
3.46476
3.46519
3.4655
3.46589
3.46616
3.4665
3.46674
3.46704
3.46726
3.46754
3.46776
3.4681
3.46841
3.46858
3.46875
3.46886
3.46899
3.46907
3.46917
3.46924
3.46932
3.46937
3.46944
3.46949
3.46954
3.46958
3.46962
3.46965
3.46968
3.4697
3.46973
3.46975
3.46976
3.46977
3.46979
3.4698
3.46981
3.46982
3.46982
3.46982
3.46982
3.46982
3.46981
3.46979
3.46976
3.46972
3.46966
3.46959
3.46946
3.4693
3.46898
3.46851
3.46745
3.46599
3.46466
3.46249
3.46039
3.4571
3.45569
3.45527
3.45516
3.45513
3.4313
3.44021
3.44639
3.45305
3.45713
3.46157
3.4644
3.46765
3.46974
3.47214
3.47361
3.47524
3.47643
3.47807
3.47925
3.4808
3.4819
3.4833
3.48428
3.48551
3.48637
3.48745
3.4882
3.48914
3.48979
3.49062
3.4912
3.49197
3.49258
3.49352
3.49439
3.49489
3.4954
3.49573
3.49612
3.49638
3.4967
3.49692
3.49719
3.49737
3.4976
3.49776
3.49795
3.49809
3.49825
3.49836
3.4985
3.49859
3.49869
3.49876
3.49883
3.49889
3.49896
3.49902
3.49909
3.49914
3.49921
3.49925
3.49931
3.49935
3.4994
3.49944
3.49948
3.49951
3.49954
3.49956
3.49957
3.49955
3.49948
3.49931
3.49886
3.49813
3.49735
3.49592
3.4944
3.49187
3.49079
3.49046
3.49038
3.49036
3.29354
3.32074
3.33914
3.35926
3.37139
3.38479
3.3932
3.40299
3.4092
3.41644
3.42084
3.42573
3.42928
3.43422
3.43774
3.44243
3.44569
3.44991
3.45282
3.45655
3.4591
3.46235
3.46458
3.46742
3.46936
3.47186
3.4736
3.47591
3.47774
3.48056
3.4832
3.48467
3.4862
3.48718
3.48835
3.48913
3.4901
3.49075
3.49157
3.49212
3.49281
3.49328
3.49386
3.49426
3.49475
3.49508
3.49549
3.49576
3.49608
3.49628
3.4965
3.49666
3.49689
3.49706
3.49727
3.49743
3.49763
3.49776
3.49794
3.49806
3.49821
3.49831
3.49844
3.49853
3.49862
3.49867
3.4987
3.49865
3.49844
3.49793
3.49658
3.49438
3.49207
3.48776
3.48323
3.47556
3.47234
3.47138
3.47114
3.47108
3.1547
3.20162
3.23183
3.26579
3.28559
3.3082
3.32193
3.33848
3.34862
3.36087
3.36804
3.37627
3.38207
3.39042
3.39619
3.40411
3.40943
3.41658
3.42133
3.42763
3.4318
3.4373
3.44094
3.44574
3.44891
3.45313
3.45597
3.45987
3.46286
3.4676
3.47204
3.47445
3.47703
3.47863
3.48061
3.48188
3.48352
3.48458
3.48596
3.48686
3.48802
3.48879
3.48978
3.49042
3.49126
3.4918
3.49249
3.49293
3.49347
3.49379
3.49417
3.49443
3.49482
3.49509
3.49546
3.49571
3.49605
3.49627
3.49657
3.49676
3.49702
3.49719
3.49741
3.49754
3.49771
3.49779
3.49784
3.49776
3.49741
3.49659
3.49433
3.49064
3.48687
3.47961
3.47219
3.45908
3.4538
3.45228
3.45189
3.4518
3.01398
3.08317
3.12437
3.17289
3.19969
3.23197
3.25056
3.27422
3.28796
3.30549
3.3152
3.32691
3.33477
3.34673
3.35455
3.36589
3.37311
3.38334
3.38977
3.39879
3.40444
3.41233
3.41725
3.42412
3.42842
3.43445
3.4383
3.44387
3.4479
3.45466
3.46097
3.46422
3.4679
3.47006
3.47289
3.47461
3.47695
3.47839
3.48037
3.48158
3.48326
3.48429
3.48571
3.48658
3.48778
3.48851
3.4895
3.49009
3.49087
3.4913
3.49184
3.4922
3.49276
3.49312
3.49365
3.49399
3.49447
3.49477
3.4952
3.49546
3.49583
3.49606
3.49637
3.49656
3.4968
3.49691
3.49699
3.49688
3.4964
3.4953
3.49214
3.4869
3.4818
3.47147
3.46137
3.44228
3.43511
3.43312
3.43263
3.43251
2.87049
2.96584
3.01661
3.08085
3.11356
3.15628
3.17898
3.21036
3.22715
3.25043
3.26228
3.2777
3.28729
3.30321
3.31276
3.32784
3.33667
3.35025
3.35812
3.3701
3.377
3.38747
3.39349
3.40261
3.40787
3.41586
3.42057
3.42793
3.43284
3.44174
3.45002
3.45397
3.45883
3.46146
3.46521
3.46732
3.47043
3.47219
3.4748
3.47629
3.47851
3.47978
3.48166
3.48273
3.48432
3.48521
3.48653
3.48725
3.48828
3.48881
3.48952
3.48996
3.4907
3.49114
3.49185
3.49226
3.4929
3.49327
3.49383
3.49416
3.49465
3.49493
3.49534
3.49557
3.49589
3.49603
3.49614
3.49601
3.49541
3.4941
3.49004
3.48316
3.47695
3.46332
3.45091
3.425
3.41621
3.41391
3.41335
3.41322
2.72318
2.8503
2.90832
2.99008
3.02703
3.0814
3.10705
3.14708
3.16607
3.19583
3.20921
3.22873
3.23956
3.25994
3.27076
3.29004
3.30003
3.31739
3.32629
3.3416
3.34941
3.36279
3.3696
3.38125
3.3872
3.3974
3.40272
3.41209
3.41762
3.42884
3.43925
3.44368
3.44985
3.45282
3.45761
3.45999
3.46395
3.46594
3.46929
3.47097
3.47381
3.47524
3.47764
3.47885
3.48088
3.48189
3.48358
3.48439
3.48572
3.48632
3.48721
3.48771
3.48865
3.48916
3.49006
3.49053
3.49134
3.49176
3.49248
3.49285
3.49348
3.49379
3.49432
3.49458
3.49499
3.49515
3.4953
3.49517
3.49446
3.49301
3.48805
3.47939
3.4724
3.45512
3.441
3.40704
3.39705
3.39462
3.39405
3.39393
2.5708
2.73752
2.79907
2.90109
2.9398
3.00766
3.03455
3.08464
3.10457
3.14188
3.1559
3.1801
3.19146
3.21706
3.22842
3.25261
3.2631
3.28487
3.29422
3.31341
3.32161
3.33837
3.34552
3.36011
3.36636
3.37914
3.38472
3.3964
3.40217
3.41597
3.42872
3.43333
3.44099
3.4441
3.45009
3.45259
3.45756
3.45965
3.46384
3.46561
3.46916
3.47066
3.47368
3.47494
3.47749
3.47855
3.48066
3.48152
3.48318
3.48381
3.48491
3.48544
3.48662
3.48715
3.48829
3.48878
3.4898
3.49024
3.49114
3.49153
3.49231
3.49265
3.49331
3.49358
3.4941
3.49427
3.49448
3.49434
3.49353
3.49205
3.48621
3.47555
3.46825
3.44679
3.43188
3.38812
3.37759
3.37527
3.37474
3.37462
2.41174
2.62894
2.68821
2.81464
2.85141
2.93556
2.96112
3.02341
3.04237
3.08886
3.10218
3.13199
3.14278
3.17474
3.18556
3.21573
3.22572
3.25285
3.26174
3.28565
3.29345
3.31433
3.32114
3.33931
3.34526
3.36117
3.36647
3.38094
3.3864
3.40315
3.4185
3.42285
3.43232
3.43527
3.44272
3.4451
3.45128
3.45327
3.45849
3.46017
3.4646
3.46602
3.46978
3.47098
3.47415
3.47516
3.47779
3.47861
3.48068
3.48128
3.48264
3.48314
3.48462
3.48513
3.48654
3.48701
3.48828
3.4887
3.48983
3.49019
3.49117
3.49149
3.49232
3.49258
3.49322
3.49338
3.49366
3.49354
3.49263
3.49127
3.48456
3.47158
3.46467
3.4382
3.42391
3.36787
3.3578
3.35584
3.35541
3.35532
2.24399
2.52668
2.57466
2.73178
2.76112
2.86581
2.88622
2.96391
2.97907
3.03717
3.04781
3.08464
3.09325
3.13327
3.14193
3.17966
3.18765
3.22155
3.22867
3.25854
3.26478
3.29086
3.2963
3.319
3.32376
3.34362
3.34785
3.36585
3.37018
3.39038
3.40873
3.41217
3.42391
3.42626
3.43555
3.43745
3.44517
3.44676
3.45327
3.45462
3.46015
3.46129
3.46598
3.46695
3.47091
3.47171
3.475
3.47565
3.47824
3.47872
3.48041
3.4808
3.48266
3.48306
3.48483
3.4852
3.4868
3.48713
3.48854
3.48883
3.49005
3.49031
3.49135
3.49155
3.49237
3.4925
3.49287
3.49278
3.49175
3.49071
3.48315
3.46736
3.46188
3.42913
3.41761
3.34578
3.33768
3.33635
3.33607
3.33601
2.06494
2.43381
2.45674
2.65402
2.66782
2.79942
2.80903
2.90691
2.91405
2.98738
2.99238
3.03842
3.04247
3.09305
3.09713
3.14477
3.14854
3.19133
3.19469
3.23237
3.23531
3.26821
3.27078
3.29941
3.30165
3.32669
3.32869
3.3513
3.35332
3.37769
3.39956
3.40115
3.41587
3.41698
3.42867
3.42957
3.4393
3.44005
3.44827
3.4489
3.45588
3.45642
3.46233
3.46279
3.46778
3.46817
3.47231
3.47262
3.47589
3.47611
3.47822
3.47841
3.48075
3.48094
3.48317
3.48335
3.48536
3.48552
3.48729
3.48743
3.48898
3.4891
3.49041
3.49051
3.49154
3.4916
3.49209
3.49205
3.49087
3.49041
3.48208
3.46274
3.46017
3.4192
3.41373
3.32114
3.3173
3.31682
3.31672
3.3167
2.06494
2.43381
2.45674
2.65402
2.66782
2.79942
2.80903
2.9069
2.91405
2.98737
2.99238
3.03841
3.04246
3.09305
3.09713
3.14477
3.14854
3.19133
3.19468
3.23237
3.23531
3.26821
3.27078
3.29941
3.30165
3.32669
3.32869
3.3513
3.35332
3.37769
3.39956
3.40115
3.41587
3.41698
3.42867
3.42957
3.4393
3.44005
3.44827
3.4489
3.45588
3.45642
3.46233
3.46279
3.46778
3.46816
3.47231
3.47262
3.47589
3.47611
3.47822
3.47841
3.48075
3.48094
3.48317
3.48335
3.48536
3.48552
3.48729
3.48743
3.48898
3.4891
3.49041
3.49051
3.49154
3.4916
3.49209
3.49205
3.49087
3.49041
3.48208
3.46274
3.46017
3.4192
3.41373
3.32114
3.3173
3.31682
3.31672
3.3167
2.24399
2.52668
2.57466
2.73178
2.76112
2.86581
2.88622
2.9639
2.97907
3.03717
3.0478
3.08464
3.09325
3.13326
3.14193
3.17966
3.18765
3.22155
3.22867
3.25854
3.26478
3.29086
3.2963
3.319
3.32376
3.34362
3.34785
3.36585
3.37018
3.39038
3.40873
3.41217
3.42391
3.42626
3.43555
3.43745
3.44517
3.44676
3.45327
3.45462
3.46015
3.46129
3.46598
3.46695
3.47091
3.47171
3.475
3.47565
3.47824
3.47872
3.4804
3.4808
3.48266
3.48306
3.48483
3.4852
3.4868
3.48713
3.48854
3.48883
3.49005
3.49031
3.49135
3.49155
3.49237
3.4925
3.49287
3.49278
3.49175
3.49071
3.48315
3.46737
3.46188
3.42913
3.41762
3.34578
3.33769
3.33635
3.33607
3.33601
2.41174
2.62894
2.68821
2.81464
2.85141
2.93556
2.96112
3.0234
3.04237
3.08886
3.10218
3.13199
3.14278
3.17474
3.18556
3.21573
3.22572
3.25285
3.26174
3.28565
3.29345
3.31433
3.32114
3.33931
3.34526
3.36117
3.36647
3.38094
3.3864
3.40315
3.4185
3.42285
3.43232
3.43527
3.44272
3.4451
3.45128
3.45327
3.45849
3.46017
3.46459
3.46602
3.46978
3.47098
3.47415
3.47516
3.47779
3.47861
3.48068
3.48128
3.48264
3.48314
3.48462
3.48513
3.48654
3.48701
3.48828
3.4887
3.48983
3.49019
3.49117
3.49149
3.49232
3.49258
3.49322
3.49338
3.49366
3.49354
3.49263
3.49127
3.48456
3.47158
3.46467
3.4382
3.42391
3.36787
3.3578
3.35584
3.35541
3.35532
2.5708
2.73752
2.79907
2.90109
2.9398
3.00766
3.03455
3.08464
3.10457
3.14188
3.1559
3.1801
3.19145
3.21705
3.22842
3.25261
3.2631
3.28487
3.29421
3.31341
3.32161
3.33837
3.34552
3.36011
3.36636
3.37914
3.38472
3.3964
3.40217
3.41597
3.42871
3.43333
3.44099
3.4441
3.45009
3.45259
3.45756
3.45965
3.46384
3.46561
3.46916
3.47066
3.47368
3.47494
3.47749
3.47855
3.48066
3.48152
3.48318
3.48381
3.48491
3.48544
3.48662
3.48715
3.48828
3.48878
3.4898
3.49024
3.49114
3.49153
3.49231
3.49265
3.49331
3.49358
3.4941
3.49427
3.49448
3.49434
3.49353
3.49205
3.48621
3.47555
3.46825
3.44679
3.43188
3.38812
3.37759
3.37527
3.37474
3.37463
2.72318
2.8503
2.90832
2.99007
3.02703
3.0814
3.10705
3.14708
3.16607
3.19583
3.20921
3.22873
3.23956
3.25994
3.27076
3.29004
3.30003
3.31739
3.32629
3.3416
3.34941
3.36278
3.3696
3.38124
3.3872
3.3974
3.40272
3.41209
3.41762
3.42884
3.43925
3.44368
3.44985
3.45282
3.45761
3.45999
3.46395
3.46594
3.46929
3.47097
3.47381
3.47524
3.47764
3.47885
3.48088
3.48189
3.48358
3.48439
3.48572
3.48632
3.48721
3.48771
3.48865
3.48916
3.49006
3.49053
3.49134
3.49176
3.49248
3.49285
3.49348
3.49379
3.49432
3.49458
3.49499
3.49515
3.4953
3.49517
3.49446
3.49301
3.48805
3.47939
3.4724
3.45512
3.441
3.40704
3.39705
3.39463
3.39405
3.39393
2.87049
2.96584
3.01661
3.08085
3.11356
3.15628
3.17898
3.21036
3.22715
3.25043
3.26228
3.2777
3.28729
3.30321
3.31276
3.32784
3.33667
3.35025
3.35812
3.3701
3.377
3.38747
3.39349
3.40261
3.40786
3.41586
3.42057
3.42793
3.43284
3.44174
3.45002
3.45397
3.45883
3.46146
3.46521
3.46732
3.47043
3.47218
3.4748
3.47629
3.47851
3.47978
3.48166
3.48273
3.48432
3.48521
3.48653
3.48725
3.48828
3.48881
3.48952
3.48996
3.4907
3.49114
3.49185
3.49226
3.4929
3.49327
3.49383
3.49416
3.49465
3.49493
3.49534
3.49557
3.49589
3.49603
3.49614
3.49601
3.49541
3.4941
3.49004
3.48316
3.47695
3.46332
3.45092
3.425
3.41621
3.41391
3.41335
3.41322
3.01398
3.08317
3.12437
3.17289
3.19968
3.23197
3.25056
3.27422
3.28796
3.30549
3.3152
3.32691
3.33476
3.34673
3.35455
3.36589
3.37311
3.38334
3.38977
3.39879
3.40444
3.41233
3.41725
3.42412
3.42842
3.43445
3.4383
3.44387
3.4479
3.45466
3.46097
3.46422
3.4679
3.47006
3.47289
3.47461
3.47695
3.47839
3.48037
3.48158
3.48326
3.48429
3.48571
3.48658
3.48778
3.48851
3.4895
3.49009
3.49087
3.4913
3.49184
3.4922
3.49276
3.49312
3.49365
3.49399
3.49447
3.49477
3.4952
3.49546
3.49583
3.49606
3.49637
3.49656
3.4968
3.49691
3.49699
3.49688
3.4964
3.4953
3.49214
3.4869
3.4818
3.47147
3.46137
3.44228
3.43511
3.43312
3.43263
3.43251
3.1547
3.20162
3.23183
3.26579
3.28559
3.3082
3.32193
3.33848
3.34862
3.36087
3.36804
3.37627
3.38207
3.39042
3.39619
3.40411
3.40943
3.41658
3.42133
3.42763
3.4318
3.4373
3.44094
3.44574
3.44891
3.45313
3.45597
3.45987
3.46286
3.4676
3.47204
3.47445
3.47703
3.47863
3.48061
3.48188
3.48352
3.48458
3.48596
3.48686
3.48802
3.48879
3.48978
3.49042
3.49126
3.4918
3.49249
3.49293
3.49347
3.49379
3.49417
3.49443
3.49482
3.49509
3.49546
3.49571
3.49605
3.49627
3.49657
3.49676
3.49702
3.49719
3.49741
3.49754
3.49771
3.49779
3.49784
3.49776
3.49741
3.49659
3.49433
3.49064
3.48687
3.47961
3.47219
3.45908
3.4538
3.45228
3.45189
3.4518
3.29354
3.32074
3.33914
3.35926
3.37139
3.38479
3.3932
3.40299
3.4092
3.41644
3.42084
3.42573
3.42928
3.43422
3.43774
3.44243
3.44569
3.44991
3.45282
3.45655
3.4591
3.46235
3.46458
3.46742
3.46936
3.47186
3.4736
3.47591
3.47774
3.48056
3.48319
3.48467
3.4862
3.48718
3.48835
3.48913
3.4901
3.49075
3.49157
3.49212
3.49281
3.49328
3.49386
3.49426
3.49475
3.49508
3.49549
3.49576
3.49608
3.49628
3.4965
3.49666
3.49689
3.49706
3.49727
3.49743
3.49763
3.49776
3.49794
3.49806
3.49821
3.49831
3.49844
3.49853
3.49862
3.49867
3.4987
3.49865
3.49844
3.49793
3.49658
3.49438
3.49207
3.48776
3.48323
3.47556
3.47234
3.47138
3.47114
3.47108
3.4313
3.44021
3.44639
3.45305
3.45713
3.46157
3.4644
3.46765
3.46974
3.47214
3.47361
3.47524
3.47643
3.47807
3.47925
3.4808
3.4819
3.4833
3.48428
3.48551
3.48637
3.48745
3.4882
3.48914
3.48979
3.49062
3.4912
3.49197
3.49258
3.49352
3.49439
3.49489
3.4954
3.49573
3.49612
3.49638
3.4967
3.49692
3.49719
3.49737
3.4976
3.49776
3.49795
3.49809
3.49825
3.49836
3.4985
3.49859
3.49869
3.49876
3.49883
3.49889
3.49896
3.49902
3.49909
3.49914
3.49921
3.49925
3.49931
3.49935
3.4994
3.49944
3.49948
3.49951
3.49954
3.49956
3.49957
3.49955
3.49948
3.49931
3.49886
3.49813
3.49735
3.49592
3.4944
3.49187
3.49079
3.49046
3.49038
3.49036
3.43195
3.44028
3.44562
3.45066
3.4534
3.4559
3.4573
3.45865
3.45941
3.46015
3.46067
3.46134
3.46183
3.46245
3.46288
3.46344
3.46384
3.46434
3.46469
3.46514
3.46545
3.46584
3.46612
3.46647
3.46671
3.46702
3.46723
3.46752
3.46774
3.46808
3.46839
3.46857
3.46874
3.46885
3.46898
3.46906
3.46917
3.46923
3.46932
3.46937
3.46944
3.46948
3.46954
3.46957
3.46962
3.46965
3.46968
3.4697
3.46973
3.46974
3.46976
3.46977
3.46979
3.4698
3.46981
3.46982
3.46982
3.46982
3.46982
3.46982
3.4698
3.46979
3.46976
3.46972
3.46966
3.46959
3.46946
3.4693
3.46898
3.46851
3.46745
3.46599
3.46466
3.46249
3.46039
3.4571
3.45569
3.45527
3.45516
3.45513
3.2955
3.32095
3.33687
3.35206
3.3602
3.36775
3.37191
3.37598
3.37823
3.38047
3.382
3.38404
3.38547
3.38735
3.38865
3.39034
3.39151
3.39302
3.39406
3.39541
3.39634
3.39753
3.39835
3.39941
3.40013
3.40105
3.4017
3.40255
3.40322
3.40424
3.40519
3.4057
3.40623
3.40656
3.40694
3.40719
3.4075
3.4077
3.40795
3.40811
3.40831
3.40845
3.40861
3.40872
3.40885
3.40894
3.40904
3.40911
3.40919
3.40923
3.40928
3.40932
3.40936
3.40939
3.40943
3.40945
3.40947
3.40947
3.40947
3.40945
3.40941
3.40937
3.40927
3.40917
3.40898
3.40878
3.40838
3.40792
3.40695
3.40555
3.40238
3.39796
3.39403
3.38746
3.38121
3.37121
3.36703
3.36579
3.36547
3.3654
3.15804
3.20201
3.22815
3.25375
3.26702
3.27973
3.28652
3.29338
3.29706
3.30081
3.30331
3.30676
3.3091
3.31227
3.3144
3.31725
3.31916
3.32172
3.32343
3.3257
3.32722
3.32924
3.33058
3.33236
3.33354
3.3351
3.33616
3.3376
3.33869
3.34041
3.34199
3.34284
3.34372
3.34426
3.34491
3.34532
3.34584
3.34617
3.34658
3.34685
3.34719
3.34741
3.34769
3.34786
3.34809
3.34823
3.3484
3.34851
3.34864
3.34872
3.3488
3.34886
3.34894
3.34899
3.34905
3.34908
3.34911
3.34912
3.34911
3.34909
3.34902
3.34895
3.34879
3.34862
3.3483
3.34797
3.34731
3.34655
3.34494
3.34267
3.33735
3.32991
3.3235
3.31241
3.30217
3.2851
3.27825
3.27628
3.27577
3.27566
3.01882
3.08378
3.11946
3.15594
3.17387
3.19195
3.20112
3.21091
3.21588
3.2212
3.22459
3.22953
3.2327
3.23724
3.24012
3.2442
3.24679
3.25045
3.25277
3.25603
3.25808
3.26097
3.26279
3.26533
3.26693
3.26917
3.2706
3.27266
3.27413
3.27658
3.27883
3.27997
3.28123
3.28196
3.28289
3.28344
3.28418
3.28463
3.28523
3.28559
3.28607
3.28637
3.28677
3.28701
3.28733
3.28752
3.28777
3.28792
3.2881
3.28821
3.28833
3.2884
3.28851
3.28858
3.28867
3.28871
3.28876
3.28877
3.28876
3.28873
3.28863
3.28853
3.28831
3.28808
3.28763
3.28717
3.28624
3.28522
3.28296
3.2799
3.2724
3.26182
3.25315
3.23734
3.22342
3.19857
3.18928
3.1867
3.18606
3.18591
2.877
2.96672
3.01073
3.05886
3.08071
3.10453
3.1157
3.12863
3.13468
3.14167
3.1458
3.15237
3.15624
3.16227
3.16579
3.17122
3.17438
3.17924
3.18207
3.1864
3.18891
3.19275
3.19497
3.19835
3.2003
3.20327
3.20502
3.20774
3.20954
3.21276
3.21572
3.2171
3.21876
3.21965
3.22088
3.22156
3.22254
3.22308
3.22388
3.22432
3.22497
3.22533
3.22585
3.22615
3.22657
3.2268
3.22714
3.22732
3.22757
3.22769
3.22785
3.22795
3.22809
3.22817
3.22829
3.22834
3.2284
3.22842
3.22841
3.22837
3.22824
3.22812
3.22782
3.22755
3.22695
3.2264
3.22517
3.22393
3.221
3.21732
3.20758
3.19366
3.18309
3.16218
3.1451
3.11143
3.10003
3.09706
3.09633
3.09617
2.7316
2.85148
2.90183
2.96284
2.98748
3.01762
3.03021
3.04663
3.05345
3.06225
3.06691
3.07531
3.0797
3.0874
3.09139
3.09832
3.1019
3.10811
3.11131
3.11684
3.11969
3.12459
3.1271
3.13142
3.13363
3.13742
3.1394
3.14286
3.14488
3.14895
3.15266
3.15422
3.15633
3.15732
3.15889
3.15966
3.16091
3.16153
3.16254
3.16304
3.16387
3.16428
3.16495
3.16528
3.16582
3.16609
3.16652
3.16672
3.16704
3.16718
3.16738
3.16748
3.16767
3.16777
3.16791
3.16797
3.16805
3.16807
3.16806
3.16801
3.16785
3.16771
3.16734
3.16703
3.16627
3.16565
3.1641
3.16272
3.15908
3.15498
3.14293
3.12536
3.11345
3.08688
3.06744
3.02339
3.01046
3.00732
3.00658
3.00641
2.58139
2.73903
2.79251
2.86827
2.89402
2.9314
2.94457
2.96501
2.97214
2.983
2.98788
2.99842
3.00302
3.01268
3.01686
3.02556
3.02931
3.0371
3.04046
3.0474
3.05038
3.05653
3.05916
3.06457
3.06689
3.07165
3.07371
3.07804
3.08015
3.08515
3.0897
3.09131
3.09393
3.09498
3.09694
3.09774
3.09931
3.09996
3.10123
3.10175
3.10279
3.10322
3.10406
3.10441
3.10509
3.10536
3.1059
3.10611
3.10651
3.10666
3.10691
3.10702
3.10726
3.10736
3.10754
3.10761
3.10771
3.10772
3.10771
3.10766
3.10747
3.10732
3.10685
3.10653
3.10559
3.10494
3.10303
3.10159
3.09718
3.09295
3.0785
3.05683
3.04439
3.01129
2.99077
2.93411
2.92048
2.91748
2.9168
2.91665
2.42489
2.63075
2.6823
2.77569
2.8001
2.84616
2.85864
2.88392
2.89068
2.90399
2.90862
2.92176
2.92615
2.93818
2.94216
2.95299
2.95657
2.96626
2.96946
2.97811
2.98095
2.9886
2.99111
2.99785
3.00006
3.00598
3.00794
3.0133
3.0153
3.02138
3.02684
3.02837
3.0316
3.03259
3.03503
3.0358
3.03775
3.03836
3.03994
3.04044
3.04173
3.04214
3.04319
3.04352
3.04436
3.04463
3.0453
3.0455
3.046
3.04614
3.04645
3.04655
3.04685
3.04694
3.04717
3.04723
3.04736
3.04738
3.04736
3.04731
3.04707
3.04693
3.04636
3.04605
3.04489
3.04427
3.04193
3.04058
3.03526
3.03133
3.01435
2.98794
2.97616
2.93519
2.91554
2.84311
2.83009
2.82755
2.827
2.82688
2.26014
2.52863
2.57042
2.68588
2.70531
2.76225
2.7722
2.80358
2.80896
2.82533
2.82902
2.84545
2.84896
2.864
2.86719
2.88071
2.88357
2.89569
2.89825
2.90905
2.91132
2.92089
2.92289
2.93131
2.93307
2.94046
2.94204
2.9487
2.95028
2.95762
2.96415
2.96535
2.96936
2.97015
2.97319
2.9738
2.97624
2.97673
2.9787
2.9791
2.98071
2.98104
2.98234
2.98261
2.98367
2.98388
2.98472
2.98488
2.9855
2.98561
2.98599
2.98608
2.98645
2.98652
2.98681
2.98686
2.98702
2.98703
2.98701
2.98697
2.98668
2.98657
2.98585
2.98561
2.98417
2.98368
2.9808
2.97973
2.9733
2.97024
2.95059
2.91846
2.9091
2.85825
2.84242
2.74973
2.73927
2.73754
2.73718
2.7371
2.08466
2.43559
2.45559
2.59992
2.60902
2.68023
2.68489
2.72427
2.72679
2.74717
2.7489
2.76966
2.77132
2.7903
2.7918
2.80886
2.81021
2.8255
2.8267
2.84033
2.8414
2.85347
2.85442
2.86504
2.86587
2.87519
2.87593
2.8843
2.88504
2.8939
2.90167
2.90223
2.90725
2.90762
2.91145
2.91174
2.9148
2.91503
2.91752
2.91771
2.91974
2.91989
2.92154
2.92167
2.923
2.9231
2.92416
2.92424
2.92502
2.92508
2.92555
2.92559
2.92606
2.92609
2.92646
2.92648
2.92668
2.92669
2.92666
2.92664
2.92628
2.92622
2.92533
2.92522
2.92341
2.92318
2.9196
2.9191
2.91119
2.90981
2.88732
2.84807
2.84369
2.7799
2.77238
2.65306
2.64811
2.64748
2.64735
2.64733
)
;

boundaryField
{
    F1_1
    {
        type            fixedValue;
        value           nonuniform List<scalar> 
80
(
1.99014
2.3962
2.3962
2.56074
2.56074
2.64292
2.64292
2.69054
2.69054
2.72074
2.72074
2.73814
2.73814
2.75722
2.75722
2.77542
2.77542
2.79216
2.79216
2.80728
2.80728
2.82078
2.82078
2.83271
2.83271
2.8432
2.8432
2.85264
2.85264
2.86235
2.87079
2.87079
2.87645
2.87645
2.88078
2.88078
2.88425
2.88425
2.88707
2.88707
2.88936
2.88936
2.89123
2.89123
2.89274
2.89274
2.89394
2.89394
2.89483
2.89483
2.89536
2.89536
2.8959
2.8959
2.89631
2.89631
2.89654
2.89654
2.8965
2.8965
2.89608
2.89608
2.89506
2.89506
2.89301
2.89301
2.88894
2.88894
2.88002
2.88002
2.85602
2.81218
2.81218
2.7396
2.7396
2.60244
2.60244
2.60244
2.60244
2.60244
)
;
    }
    F1_2
    {
        type            fixedValue;
        value           nonuniform List<scalar> 
80
(
1.96803
2.39429
2.39429
2.61881
2.61881
2.76867
2.76867
2.88022
2.88022
2.96384
2.96384
3.01614
3.01614
3.07386
3.07386
3.12821
3.12821
3.177
3.177
3.21998
3.21998
3.25749
3.25749
3.29014
3.29014
3.31869
3.31869
3.34444
3.34444
3.37139
3.39538
3.39538
3.41212
3.41212
3.42545
3.42545
3.43655
3.43655
3.44592
3.44592
3.45387
3.45387
3.46062
3.46062
3.46631
3.46631
3.47104
3.47104
3.47477
3.47477
3.47716
3.47716
3.47984
3.47984
3.48239
3.48239
3.48468
3.48468
3.4867
3.4867
3.48847
3.48847
3.48996
3.48996
3.49114
3.49114
3.49171
3.49171
3.49041
3.49041
3.48177
3.46009
3.46009
3.41353
3.41353
3.30704
3.30704
3.30704
3.30704
3.30704
)
;
    }
    F1_3
    {
        type            fixedValue;
        value           nonuniform List<scalar> 
80
(
1.96803
2.39429
2.39429
2.61881
2.61881
2.76867
2.76867
2.88022
2.88022
2.96384
2.96384
3.01614
3.01614
3.07386
3.07386
3.1282
3.1282
3.177
3.177
3.21998
3.21998
3.25749
3.25749
3.29014
3.29014
3.31869
3.31869
3.34444
3.34444
3.37139
3.39538
3.39538
3.41212
3.41212
3.42545
3.42545
3.43655
3.43655
3.44592
3.44592
3.45387
3.45387
3.46062
3.46062
3.46631
3.46631
3.47104
3.47104
3.47477
3.47477
3.47716
3.47716
3.47984
3.47984
3.48239
3.48239
3.48468
3.48468
3.4867
3.4867
3.48847
3.48847
3.48996
3.48996
3.49114
3.49114
3.49171
3.49171
3.49041
3.49041
3.48177
3.46009
3.46009
3.41353
3.41353
3.30704
3.30704
3.30704
3.30704
3.30704
)
;
    }
    F1_4
    {
        type            fixedValue;
        value           nonuniform List<scalar> 
80
(
1.9899
2.39569
2.39569
2.55964
2.55964
2.64055
2.64055
2.68536
2.68536
2.70847
2.70847
2.73215
2.73215
2.75379
2.75379
2.77325
2.77325
2.79068
2.79068
2.80623
2.80623
2.81999
2.81999
2.8321
2.8321
2.84272
2.84272
2.85226
2.85226
2.86206
2.87058
2.87058
2.87628
2.87628
2.88065
2.88065
2.88414
2.88414
2.88698
2.88698
2.88929
2.88929
2.89118
2.89118
2.8927
2.8927
2.8939
2.8939
2.8948
2.8948
2.89533
2.89533
2.89587
2.89587
2.89629
2.89629
2.89652
2.89652
2.89649
2.89649
2.89607
2.89607
2.89505
2.89505
2.893
2.893
2.88893
2.88893
2.88001
2.88001
2.85602
2.81218
2.81218
2.7396
2.7396
2.60244
2.60244
2.60244
2.60244
2.60244
)
;
    }
    F2_1
    {
        type            fixedValue;
        value           uniform 3.5;
    }
    F2_2
    {
        type            fixedValue;
        value           uniform 3.5;
    }
    F2_3
    {
        type            fixedValue;
        value           uniform 3.5;
    }
    F2_4
    {
        type            fixedValue;
        value           uniform 3.5;
    }
    defaultFaces
    {
        type            empty;
    }
}


// ************************************************************************* //
