/*--------------------------------*- C++ -*----------------------------------*\
| =========                 |                                                 |
| \\      /  F ield         | OpenFOAM: The Open Source CFD Toolbox           |
|  \\    /   O peration     | Version:  5.x                                   |
|   \\  /    A nd           | Web:      www.OpenFOAM.org                      |
|    \\/     M anipulation  |                                                 |
\*---------------------------------------------------------------------------*/
FoamFile
{
    version     2.0;
    format      ascii;
    class       volScalarField;
    location    "1.4";
    object      gradTy;
}
// * * * * * * * * * * * * * * * * * * * * * * * * * * * * * * * * * * * * * //

dimensions      [0 -1 0 1 0 0 0];

internalField   nonuniform List<scalar> 
2048
(
-26.4483
-26.421
-26.3671
-26.2882
-26.1864
-26.0642
-25.9244
-25.7698
-25.6032
-25.4272
-25.2441
-25.0561
-24.8652
-24.673
-24.481
-24.2906
-24.1028
-23.9187
-23.7388
-23.5639
-23.3944
-23.2306
-23.0728
-22.9212
-22.776
-22.6376
-22.506
-22.3818
-22.2651
-22.1566
-22.0566
-21.9659
-21.885
-21.8148
-21.7561
-21.71
-21.6774
-21.6595
-21.6574
-21.6722
-21.7052
-21.7576
-21.8306
-21.9251
-22.0422
-22.1824
-22.3462
-22.5336
-22.7437
-22.9753
-23.226
-23.4927
-23.7712
-24.0563
-24.3422
-24.6225
-24.8905
-25.1397
-25.3643
-25.5591
-25.7197
-25.8429
-25.9262
-25.9683
-26.4704
-26.4424
-26.3873
-26.3067
-26.2028
-26.0784
-25.9363
-25.7795
-25.6108
-25.4328
-25.248
-25.0585
-24.8662
-24.6728
-24.4797
-24.2884
-24.0999
-23.9151
-23.7348
-23.5595
-23.3897
-23.2257
-23.0677
-22.9159
-22.7706
-22.6319
-22.5001
-22.3755
-22.2585
-22.1496
-22.0491
-21.9578
-21.8763
-21.8054
-21.7459
-21.699
-21.6655
-21.6466
-21.6435
-21.6574
-21.6895
-21.7409
-21.813
-21.9068
-22.0233
-22.1632
-22.3271
-22.515
-22.7263
-22.9596
-23.213
-23.4831
-23.7657
-24.0556
-24.3467
-24.6323
-24.9055
-25.1596
-25.3884
-25.5866
-25.7499
-25.875
-25.9596
-26.0022
-26.5127
-26.4835
-26.4259
-26.342
-26.2341
-26.1054
-25.9589
-25.7978
-25.6251
-25.4435
-25.2553
-25.0629
-24.8679
-24.6722
-24.4772
-24.2842
-24.0942
-23.9083
-23.7271
-23.5512
-23.3809
-23.2164
-23.0581
-22.906
-22.7603
-22.6212
-22.4889
-22.3638
-22.2461
-22.1363
-22.035
-21.9426
-21.8598
-21.7876
-21.7266
-21.6781
-21.6429
-21.6223
-21.6173
-21.6294
-21.6596
-21.7092
-21.7796
-21.872
-21.9873
-22.1267
-22.2906
-22.4794
-22.6927
-22.9295
-23.1877
-23.4643
-23.7548
-24.0539
-24.3551
-24.651
-24.9343
-25.1976
-25.4344
-25.6392
-25.8076
-25.9363
-26.0231
-26.0668
-26.5734
-26.5422
-26.4811
-26.3922
-26.2785
-26.1434
-25.9905
-25.8233
-25.6449
-25.4581
-25.2653
-25.0687
-24.8702
-24.6712
-24.4734
-24.278
-24.086
-23.8985
-23.7161
-23.5392
-23.3683
-23.2033
-23.0445
-22.892
-22.7458
-22.6061
-22.4732
-22.3472
-22.2287
-22.1178
-22.0151
-21.9212
-21.8368
-21.7626
-21.6995
-21.6487
-21.6111
-21.588
-21.5805
-21.5898
-21.6174
-21.6645
-21.7324
-21.8226
-21.9362
-22.0745
-22.2383
-22.4283
-22.6443
-22.8858
-23.1508
-23.4365
-23.7384
-24.0508
-24.3665
-24.6775
-24.9754
-25.2522
-25.5005
-25.7146
-25.89
-26.0237
-26.1137
-26.1588
-26.6511
-26.6174
-26.5514
-26.4559
-26.3345
-26.1911
-26.0299
-25.8548
-25.6691
-25.4758
-25.2773
-25.0756
-24.8725
-24.6695
-24.4682
-24.2698
-24.0754
-23.8859
-23.702
-23.5241
-23.3523
-23.1868
-23.0275
-22.8745
-22.7277
-22.5874
-22.4536
-22.3267
-22.207
-22.0948
-21.9905
-21.8947
-21.8081
-21.7315
-21.6658
-21.6121
-21.5715
-21.5452
-21.5344
-21.5404
-21.5646
-21.6083
-21.6731
-21.7604
-21.8717
-22.0084
-22.1717
-22.3628
-22.5819
-22.8289
-23.1023
-23.3995
-23.7161
-24.0456
-24.3803
-24.711
-25.0281
-25.3222
-25.5853
-25.8111
-25.9952
-26.1348
-26.2285
-26.2753
-26.7448
-26.7079
-26.6358
-26.5319
-26.4006
-26.2469
-26.0756
-25.8909
-25.6967
-25.4958
-25.2906
-25.083
-24.8746
-24.667
-24.4615
-24.2596
-24.0623
-23.8705
-23.685
-23.506
-23.3335
-23.1674
-23.0077
-22.8541
-22.7067
-22.5656
-22.4309
-22.3029
-22.1819
-22.0681
-21.962
-21.864
-21.7749
-21.6954
-21.6266
-21.5695
-21.5253
-21.4952
-21.4805
-21.4825
-21.5027
-21.5424
-21.6032
-21.6869
-21.7951
-21.9296
-22.092
-22.2838
-22.506
-22.7591
-23.0422
-23.353
-23.687
-24.0376
-24.3958
-24.7509
-25.0916
-25.4069
-25.6878
-25.9274
-26.1215
-26.2676
-26.3652
-26.4137
-26.854
-26.813
-26.7332
-26.6189
-26.4758
-26.3097
-26.1263
-25.9306
-25.7266
-25.5172
-25.3046
-25.0904
-24.8762
-24.6634
-24.4533
-24.2473
-24.0468
-23.8526
-23.6653
-23.4851
-23.312
-23.1455
-22.9853
-22.8313
-22.6832
-22.5413
-22.4056
-22.2765
-22.154
-22.0385
-21.9303
-21.8299
-21.7379
-21.6552
-21.5827
-21.5218
-21.4735
-21.4392
-21.4201
-21.4175
-21.433
-21.468
-21.5243
-21.6036
-21.7079
-21.8394
-22.0001
-22.192
-22.4171
-22.6764
-22.97
-23.2961
-23.6505
-24.0259
-24.4122
-24.7966
-25.1656
-25.5061
-25.8075
-26.0626
-26.2674
-26.4203
-26.5216
-26.5719
-26.9782
-26.9321
-26.843
-26.7162
-26.5587
-26.378
-26.1808
-25.9726
-25.7578
-25.5392
-25.3186
-25.0976
-24.8771
-24.6586
-24.4434
-24.233
-24.0289
-23.8321
-23.643
-23.4618
-23.2882
-23.1214
-22.961
-22.8065
-22.6578
-22.515
-22.3782
-22.2478
-22.1239
-22.0066
-21.8963
-21.7932
-21.698
-21.6116
-21.5352
-21.47
-21.4172
-21.3781
-21.3542
-21.3466
-21.3568
-21.3866
-21.4375
-21.5117
-21.6114
-21.7389
-21.897
-22.0882
-22.3154
-22.5807
-22.8852
-23.228
-23.6053
-24.0095
-24.4286
-24.8477
-25.25
-25.6197
-25.9444
-26.2162
-26.4319
-26.5912
-26.6959
-26.7474
-27.1174
-27.0651
-26.9646
-26.8227
-26.6484
-26.4507
-26.2377
-26.0158
-25.7893
-25.5611
-25.3324
-25.1041
-24.8771
-24.6525
-24.4317
-24.2166
-24.0086
-23.8089
-23.6182
-23.4362
-23.2623
-23.0955
-22.9351
-22.7802
-22.6309
-22.4871
-22.3492
-22.2175
-22.0921
-21.973
-21.8604
-21.7545
-21.6559
-21.5656
-21.4848
-21.4148
-21.3572
-21.313
-21.2838
-21.2708
-21.2753
-21.2992
-21.3442
-21.4125
-21.5066
-21.6293
-21.7836
-21.973
-22.2013
-22.4718
-22.7871
-23.1476
-23.5503
-23.987
-24.4444
-24.904
-25.3451
-25.7482
-26.0984
-26.3878
-26.614
-26.7788
-26.8858
-26.9381
-27.2715
-27.2118
-27.0975
-26.9377
-26.7436
-26.5264
-26.2957
-26.0588
-25.8202
-25.5822
-25.3453
-25.1098
-24.8761
-24.6451
-24.4183
-24.1979
-23.9858
-23.7832
-23.5909
-23.4084
-23.2347
-23.0683
-22.9079
-22.7529
-22.6028
-22.458
-22.3189
-22.1859
-22.0591
-21.9383
-21.8233
-21.7144
-21.6122
-21.5176
-21.4321
-21.3571
-21.2942
-21.2447
-21.2099
-21.1911
-21.1895
-21.207
-21.2454
-21.3071
-21.3948
-21.5115
-21.6609
-21.8471
-22.075
-22.3495
-22.675
-23.0538
-23.4839
-23.9572
-24.4585
-24.9652
-25.4513
-25.8922
-26.2703
-26.5773
-26.8129
-26.9815
-27.0894
-27.1417
-27.4409
-27.3723
-27.2415
-27.0604
-26.8431
-26.6037
-26.3535
-26.1007
-25.8496
-25.6019
-25.3572
-25.1147
-24.8741
-24.6364
-24.4032
-24.177
-23.9604
-23.7549
-23.5612
-23.3786
-23.2055
-23.0399
-22.88
-22.7248
-22.574
-22.4281
-22.2877
-22.1534
-22.0253
-21.9028
-21.7856
-21.6736
-21.5675
-21.4683
-21.3777
-21.2974
-21.229
-21.1739
-21.1333
-21.1084
-21.1004
-21.111
-21.1423
-21.1967
-21.2771
-21.3868
-21.5299
-21.7113
-21.937
-22.2137
-22.5481
-22.945
-23.4043
-23.9184
-24.4699
-25.0313
-25.5695
-26.0531
-26.4609
-26.7849
-27.0278
-27.1978
-27.3047
-27.3558
-27.6261
-27.5466
-27.3961
-27.1899
-26.9458
-26.6813
-26.4097
-26.1401
-25.8766
-25.6198
-25.3678
-25.1186
-24.8713
-24.6265
-24.3863
-24.1538
-23.9323
-23.7238
-23.529
-23.3468
-23.175
-23.0108
-22.8517
-22.6965
-22.5448
-22.3975
-22.2557
-22.1203
-21.991
-21.8671
-21.7477
-21.6326
-21.5224
-21.4183
-21.3222
-21.2363
-21.1621
-21.1012
-21.0547
-21.0235
-21.0088
-21.0122
-21.0359
-21.0823
-21.1546
-21.2562
-21.3916
-21.5664
-21.7877
-22.0642
-22.4056
-22.8199
-23.3098
-23.8688
-24.4774
-25.1023
-25.7009
-26.2324
-26.6713
-27.0108
-27.2579
-27.426
-27.5292
-27.5779
-27.8277
-27.7352
-27.5613
-27.3254
-27.0504
-26.7578
-26.463
-26.1759
-25.9004
-25.6354
-25.3771
-25.1218
-24.8679
-24.6157
-24.3677
-24.1282
-23.9014
-23.6899
-23.4942
-23.3132
-23.1436
-22.9814
-22.8235
-22.6682
-22.5155
-22.3666
-22.2232
-22.0866
-21.9565
-21.8315
-21.7101
-21.5919
-21.4773
-21.3679
-21.266
-21.1741
-21.094
-21.0272
-20.9747
-20.9372
-20.9156
-20.9115
-20.9269
-20.9648
-21.0283
-21.1208
-21.2472
-21.4134
-21.6278
-21.9013
-22.2469
-22.6769
-23.1981
-23.806
-24.4795
-25.1784
-25.8471
-26.4324
-26.9032
-27.2553
-27.5022
-27.6643
-27.7608
-27.8053
-28.0465
-27.9385
-27.7367
-27.4661
-27.1554
-26.8315
-26.5117
-26.2069
-25.9201
-25.6484
-25.3851
-25.1245
-24.864
-24.6041
-24.3476
-24.1002
-23.8676
-23.6529
-23.4569
-23.2778
-23.1114
-22.9521
-22.7957
-22.6404
-22.4865
-22.3355
-22.1902
-22.0526
-21.9221
-21.7964
-21.6732
-21.5518
-21.4327
-21.3176
-21.2094
-21.1112
-21.0251
-20.9524
-20.894
-20.8501
-20.8215
-20.8095
-20.8164
-20.8452
-20.8992
-20.9818
-21.0977
-21.2534
-21.4582
-21.7251
-22.0712
-22.5144
-23.0669
-23.7274
-24.4743
-25.2596
-26.0105
-26.6559
-27.1585
-27.5188
-27.7598
-27.9108
-27.9969
-28.0355
-28.2837
-28.1571
-27.9223
-27.6109
-27.2594
-26.9008
-26.5546
-26.2319
-25.9352
-25.6586
-25.392
-25.127
-24.8602
-24.5921
-24.326
-24.0695
-23.8306
-23.6128
-23.4168
-23.2408
-23.0787
-22.9233
-22.7688
-22.6135
-22.4579
-22.3042
-22.1566
-22.0182
-21.8879
-21.7621
-21.6375
-21.5129
-21.389
-21.2677
-21.1527
-21.048
-20.9558
-20.8772
-20.8129
-20.7629
-20.7273
-20.7071
-20.705
-20.7243
-20.7683
-20.8403
-20.9444
-21.0877
-21.28
-21.5361
-21.8782
-22.3308
-22.9136
-23.6301
-24.4596
-25.3461
-26.1938
-26.9063
-27.4392
-27.8015
-28.0295
-28.1632
-28.235
-28.2657
-28.5405
-28.3915
-28.1179
-27.7588
-27.3606
-26.9643
-26.5901
-26.2497
-25.9449
-25.666
-25.3983
-25.1298
-24.8569
-24.5802
-24.303
-24.0361
-23.7903
-23.5692
-23.3738
-23.202
-23.0459
-22.8955
-22.7433
-22.5878
-22.4301
-22.2729
-22.1223
-21.9834
-21.8541
-21.7291
-21.6033
-21.4755
-21.3466
-21.2185
-21.096
-20.9846
-20.8862
-20.8019
-20.7321
-20.6761
-20.6334
-20.6049
-20.5934
-20.6028
-20.6366
-20.6973
-20.7886
-20.9177
-21.0944
-21.3352
-21.6674
-22.1245
-22.7355
-23.5104
-24.4321
-25.438
-26.401
-27.1881
-27.7478
-28.1035
-28.3096
-28.4194
-28.4724
-28.4931
-28.8182
-28.6425
-28.3236
-27.9086
-27.4571
-27.0201
-26.6169
-26.259
-25.9486
-25.6707
-25.4045
-25.1334
-24.8545
-24.569
-24.2789
-23.9995
-23.7464
-23.522
-23.3276
-23.1616
-23.0132
-22.8693
-22.7196
-22.5636
-22.4035
-22.2415
-22.087
-21.948
-21.8209
-21.6977
-21.571
-21.44
-21.306
-21.1701
-21.0395
-20.9212
-20.8166
-20.7267
-20.6518
-20.5902
-20.5406
-20.5035
-20.4823
-20.4814
-20.5048
-20.5539
-20.6314
-20.7448
-20.9031
-21.1232
-21.439
-21.894
-22.53
-23.3644
-24.3877
-25.5352
-26.6369
-27.5066
-28.087
-28.4247
-28.5984
-28.6767
-28.7065
-28.7152
-29.1184
-28.9106
-28.5393
-28.0589
-27.5467
-27.0668
-26.6336
-26.2585
-25.9458
-25.6728
-25.4114
-25.1384
-24.8534
-24.5591
-24.2536
-23.9594
-23.6987
-23.471
-23.2777
-23.1195
-22.9812
-22.8453
-22.6981
-22.5414
-22.3784
-22.2099
-22.0503
-21.9119
-21.7885
-21.6684
-21.5409
-21.4067
-21.2675
-21.1229
-20.983
-20.8578
-20.7473
-20.6519
-20.5724
-20.5057
-20.4494
-20.4034
-20.3719
-20.3606
-20.3736
-20.4112
-20.474
-20.5705
-20.708
-20.9016
-21.1931
-21.638
-22.2943
-23.1876
-24.3209
-25.6373
-26.9082
-27.8682
-28.4592
-28.7642
-28.8935
-28.9323
-28.9346
-28.9294
-29.4431
-29.1964
-28.7655
-28.2084
-27.6267
-27.103
-26.6391
-26.2468
-25.936
-25.6726
-25.4201
-25.1452
-24.8542
-24.5516
-24.2275
-23.9149
-23.6472
-23.4161
-23.2238
-23.0757
-22.95
-22.8245
-22.6794
-22.5212
-22.3554
-22.1782
-22.0113
-21.8746
-21.7568
-21.6418
-21.5135
-21.3757
-21.2316
-21.0769
-20.9263
-20.7946
-20.6782
-20.5774
-20.4942
-20.423
-20.3604
-20.3051
-20.2627
-20.2406
-20.2439
-20.2701
-20.3175
-20.3965
-20.5112
-20.672
-20.9303
-21.3551
-22.0261
-22.9754
-24.2242
-25.7432
-27.2235
-28.2804
-28.8666
-29.1207
-29.1921
-29.1836
-29.1541
-29.1333
-29.7944
-29.4999
-29.0027
-28.3553
-27.6938
-27.1277
-26.6327
-26.2222
-25.9189
-25.6707
-25.4321
-25.1544
-24.8569
-24.548
-24.2006
-23.8651
-23.592
-23.3571
-23.1649
-23.0301
-22.9202
-22.8077
-22.6636
-22.5032
-22.3354
-22.1461
-21.9691
-21.8358
-21.7261
-21.6184
-21.4888
-21.3472
-21.199
-21.0322
-20.8691
-20.7316
-20.6097
-20.5034
-20.4174
-20.3426
-20.2741
-20.209
-20.1551
-20.1217
-20.116
-20.1318
-20.1626
-20.2242
-20.3154
-20.4363
-20.6515
-21.0439
-21.7239
-22.7231
-24.0875
-25.8509
-27.5946
-28.7522
-29.3111
-29.4918
-29.4909
-29.4274
-29.3626
-29.3249
-30.1747
-29.8206
-29.2524
-28.4979
-27.7437
-27.1405
-26.6139
-26.1824
-25.8942
-25.6674
-25.4494
-25.1663
-24.8611
-24.5503
-24.1731
-23.8081
-23.5334
-23.2942
-23.0999
-22.9828
-22.8921
-22.7965
-22.651
-22.4871
-22.3194
-22.1137
-21.9222
-21.7952
-21.6964
-21.5994
-21.4669
-21.3209
-21.1707
-20.989
-20.8105
-20.6691
-20.5417
-20.4296
-20.3423
-20.2647
-20.1909
-20.1155
-20.049
-20.0039
-19.9904
-19.9972
-20.0098
-20.055
-20.1236
-20.1967
-20.3582
-20.703
-21.3867
-22.4269
-23.8968
-25.957
-28.0375
-29.2934
-29.7933
-29.8743
-29.7862
-29.6608
-29.558
-29.5025
-30.5874
-30.1567
-29.5169
-28.6342
-27.7708
-27.1421
-26.5827
-26.1248
-25.8621
-25.663
-25.4748
-25.1806
-24.866
-24.5616
-24.1451
-23.7411
-23.4724
-23.2279
-23.0272
-22.9339
-22.866
-22.7925
-22.6415
-22.4723
-22.3093
-22.0807
-21.8685
-21.7525
-21.6678
-21.5861
-21.448
-21.2963
-21.148
-20.9472
-20.7494
-20.6073
-20.4746
-20.3556
-20.2692
-20.1897
-20.1117
-20.0247
-19.9445
-19.8869
-19.8676
-19.8677
-19.8591
-19.89
-19.9394
-19.9554
-20.0522
-20.3303
-21.015
-22.0843
-23.6334
-26.0559
-28.5744
-29.9151
-30.3123
-30.2635
-30.0738
-29.8809
-29.7384
-29.6647
-31.0363
-30.5046
-29.8004
-28.7621
-27.7673
-27.1348
-26.5402
-26.045
-25.8234
-25.6574
-25.5125
-25.1969
-24.8694
-24.5864
-24.1168
-23.6601
-23.4109
-23.1589
-22.9442
-22.8839
-22.8416
-22.7985
-22.6347
-22.4573
-22.3078
-22.047
-21.8051
-21.7077
-21.6401
-21.5805
-21.4315
-21.2724
-21.1327
-20.9068
-20.684
-20.5469
-20.4087
-20.2807
-20.1983
-20.1178
-20.037
-19.9371
-19.8418
-19.7701
-19.7476
-19.7448
-19.7101
-19.7297
-19.7673
-19.7143
-19.7367
-19.9227
-20.6108
-21.6961
-23.2719
-26.1385
-29.2355
-30.6285
-30.8649
-30.6537
-30.3493
-30.0852
-29.9023
-29.8105
-31.5269
-30.8572
-30.11
-28.8794
-27.7225
-27.1233
-26.488
-25.9373
-25.7799
-25.6497
-25.568
-25.2139
-24.8677
-24.6314
-24.0882
-23.5589
-23.3524
-23.0886
-22.8471
-22.8339
-22.8185
-22.818
-22.6298
-22.4399
-22.3191
-22.0126
-21.7279
-21.6614
-21.6126
-21.5853
-21.4169
-21.2473
-21.128
-20.8679
-20.6116
-20.4893
-20.3445
-20.2038
-20.1302
-20.0491
-19.9676
-19.8527
-19.7408
-19.6527
-19.6305
-19.6309
-19.5613
-19.5744
-19.6129
-19.475
-19.4159
-19.475
-20.1783
-21.2681
-22.7781
-26.1913
-30.0634
-31.4439
-31.4453
-31.0376
-30.6082
-30.2711
-30.0485
-29.9393
-32.0666
-31.2029
-30.4568
-28.9838
-27.6212
-27.1159
-26.429
-25.7931
-25.7353
-25.6373
-25.6496
-25.2294
-24.8546
-24.7066
-24.0595
-23.4282
-23.3023
-23.019
-22.7303
-22.7863
-22.7948
-22.8563
-22.6253
-22.416
-22.3494
-21.9774
-21.6311
-21.6152
-21.5842
-21.6046
-21.4032
-21.2181
-21.1383
-20.8302
-20.5283
-20.4365
-20.2826
-20.1232
-20.0659
-19.9833
-19.9048
-19.7717
-19.6416
-19.5335
-19.5161
-19.5293
-19.4102
-19.4232
-19.4838
-19.2378
-19.0964
-18.979
-19.7237
-20.8139
-22.1062
-26.1939
-31.1164
-32.369
-32.0437
-31.4073
-30.8462
-30.4368
-30.1764
-30.051
-32.6657
-31.5227
-30.8581
-29.073
-27.4421
-27.126
-26.3675
-25.5997
-25.6963
-25.6149
-25.7691
-25.24
-24.8204
-24.8264
-24.0304
-23.2549
-23.2694
-22.9528
-22.5855
-22.7452
-22.7672
-22.9209
-22.6191
-22.3795
-22.4076
-21.9413
-21.507
-21.5724
-21.552
-21.6444
-21.3885
-21.1801
-21.17
-20.7935
-20.4285
-20.392
-20.224
-20.0363
-20.0068
-19.9201
-19.85
-19.694
-19.5447
-19.4108
-19.4038
-19.4448
-19.2532
-19.274
-19.3896
-19.0009
-18.7883
-18.4219
-19.2555
-20.3594
-21.1953
-26.1166
-32.4755
-33.4061
-32.6463
-31.7537
-31.0592
-30.5809
-30.2857
-30.1457
-33.3392
-31.7871
-31.34
-29.1449
-27.1556
-27.1742
-26.3095
-25.3391
-25.6744
-25.573
-25.9433
-25.2405
-24.7506
-25.0111
-24.0008
-23.0199
-23.2668
-22.8939
-22.401
-22.7179
-22.7294
-23.0227
-22.6077
-22.3213
-22.5065
-21.904
-21.3444
-21.5389
-21.5116
-21.713
-21.3703
-21.1266
-21.2324
-20.7575
-20.3044
-20.3608
-20.1697
-19.9395
-19.9553
-19.8582
-19.8051
-19.6191
-19.4506
-19.2825
-19.2923
-19.3844
-19.0845
-19.1232
-19.3438
-18.7591
-18.5069
-17.7839
-18.7837
-19.9473
-19.9659
-25.917
-34.2515
-34.5473
-33.2348
-32.0678
-31.2439
-30.7027
-30.3766
-30.2239
-34.108
-31.9521
-31.9409
-29.1972
-26.7205
-27.2909
-26.2622
-24.9851
-25.6882
-25.4954
-26.1958
-25.2241
-24.6239
-25.2897
-23.9702
-22.6968
-23.3139
-22.8472
-22.1596
-22.7161
-22.6708
-23.1768
-22.5866
-22.2279
-22.6643
-21.865
-21.1286
-21.5246
-21.4547
-21.8223
-21.3451
-21.0475
-21.3387
-20.7215
-20.145
-20.351
-20.121
-19.8272
-19.9152
-19.7958
-19.7731
-19.5463
-19.3608
-19.1456
-19.1793
-19.3581
-18.8963
-18.9647
-19.3647
-18.5015
-18.2753
-17.0357
-18.3193
-19.6441
-18.3142
-25.5355
-36.5949
-35.7693
-33.7866
-32.3408
-31.3979
-30.8018
-30.4497
-30.2864
-35.0014
-31.9533
-32.7156
-29.2276
-26.081
-27.5193
-26.2351
-24.5015
-25.7668
-25.356
-26.5598
-25.1812
-24.41
-25.7016
-23.9376
-22.2493
-23.4382
-22.8188
-21.8375
-22.7585
-22.5746
-23.4046
-22.5495
-22.0805
-22.9059
-21.8231
-20.8392
-21.545
-21.3684
-21.9889
-21.308
-20.9289
-21.507
-20.6842
-19.9353
-20.3736
-20.0792
-19.6922
-19.8922
-19.7292
-19.7575
-19.4739
-19.2773
-18.9966
-19.0608
-19.3801
-18.6776
-18.789
-19.4775
-18.2089
-18.128
-16.1352
-17.8721
-19.5476
-16.1071
-24.8896
-39.708
-37.0247
-34.2754
-32.5649
-31.5197
-30.8788
-30.5059
-30.3342
-36.0604
-31.6999
-33.7412
-29.2338
-25.1619
-27.9201
-26.2393
-23.838
-25.9538
-25.1148
-27.0811
-25.0996
-24.0674
-26.3003
-23.9014
-21.6285
-23.6782
-22.8159
-21.4021
-22.8728
-22.4149
-23.7355
-22.4883
-21.853
-23.2648
-21.7765
-20.4492
-21.6235
-21.2328
-22.2355
-21.2525
-20.7516
-21.762
-20.6438
-19.6553
-20.4445
-20.0457
-19.5238
-19.8947
-19.6529
-19.7638
-19.399
-19.2032
-18.8312
-18.9307
-19.4699
-18.4142
-18.5827
-19.7167
-17.8501
-18.1151
-15.0242
-17.4488
-19.7972
-13.1761
-23.8677
-43.8594
-38.2321
-34.6734
-32.7346
-31.609
-30.9344
-30.5463
-30.3684
-37.3407
-31.066
-35.1233
-29.213
-23.8639
-28.5753
-26.2874
-22.9265
-26.3134
-24.7126
-27.8216
-24.9634
-23.5397
-27.157
-23.859
-20.7697
-24.0861
-22.847
-20.809
-23.1001
-22.1536
-24.2094
-22.3924
-21.5101
-23.786
-21.7222
-19.9229
-21.7943
-21.018
-22.5932
-21.1699
-20.4895
-22.1366
-20.5973
-19.2787
-20.5851
-20.0214
-19.3082
-19.9348
-19.5586
-19.7992
-19.3173
-19.1433
-18.6442
-18.7795
-19.6537
-18.0874
-18.3266
-20.1297
-17.3768
-18.3082
-13.6235
-17.049
-20.5846
-9.31016
-22.3204
-49.4016
-39.2625
-34.9548
-32.8469
-31.6666
-30.97
-30.572
-30.3901
-38.9171
-29.8813
-37.0037
-29.1617
-22.0581
-29.5941
-26.3936
-21.6765
-26.9363
-24.0645
-28.8644
-24.7527
-22.7526
-28.3641
-23.8069
-19.5891
-24.7315
-22.9217
-19.9989
-23.4988
-21.7357
-24.8798
-22.2483
-21.0051
-24.5279
-21.6556
-19.2137
-22.106
-20.681
-23.1036
-21.0494
-20.1085
-22.6736
-20.5407
-18.7714
-20.8246
-20.0068
-19.0271
-20.0294
-19.4341
-19.8737
-19.2221
-19.1044
-18.4299
-18.5939
-19.9665
-17.6738
-17.9942
-20.7803
-16.7184
-18.8075
-11.8292
-16.661
-22.1671
-4.24942
-20.0518
-56.7906
-39.9241
-35.1002
-32.902
-31.6945
-30.9872
-30.5846
-30.4007
)
;

boundaryField
{
    left
    {
        type            calculated;
        value           nonuniform List<scalar> 
32
(
-26.4483
-26.4704
-26.5127
-26.5734
-26.6511
-26.7448
-26.854
-26.9782
-27.1174
-27.2715
-27.4409
-27.6261
-27.8277
-28.0465
-28.2837
-28.5405
-28.8182
-29.1184
-29.4431
-29.7944
-30.1747
-30.5874
-31.0363
-31.5269
-32.0666
-32.6657
-33.3392
-34.108
-35.0014
-36.0604
-37.3407
-38.9171
)
;
    }
    right
    {
        type            calculated;
        value           nonuniform List<scalar> 
32
(
-25.9683
-26.0022
-26.0668
-26.1588
-26.2753
-26.4137
-26.5719
-26.7474
-26.9381
-27.1417
-27.3558
-27.5779
-27.8053
-28.0355
-28.2657
-28.4931
-28.7152
-28.9294
-29.1333
-29.3249
-29.5025
-29.6647
-29.8105
-29.9393
-30.051
-30.1457
-30.2239
-30.2864
-30.3342
-30.3684
-30.3901
-30.4007
)
;
    }
    interface
    {
        type            calculated;
        value           nonuniform List<scalar> 
64
(
-39.79
-29.1268
-38.0888
-29.1279
-21.0101
-30.2099
-26.463
-20.9539
-27.3269
-23.6665
-29.4732
-24.626
-22.2835
-29.0684
-23.7779
-18.9066
-25.1235
-22.9711
-19.5313
-23.7494
-21.4796
-25.2718
-22.1623
-20.7056
-24.9623
-21.6185
-18.8068
-22.3041
-20.4758
-23.4029
-20.9782
-19.8834
-22.9888
-20.5092
-18.4803
-20.9731
-20.0019
-18.8676
-20.0929
-19.3625
-19.9223
-19.1702
-19.0912
-18.3152
-18.4905
-20.1602
-17.442
-17.8052
-21.1743
-16.3325
-19.1482
-10.8189
-16.4677
-23.1937
-1.38458
-18.7095
-61.011
-40.1341
-35.1371
-32.9155
-31.7013
-30.9914
-30.5878
-30.4033
)
;
    }
    bottom
    {
        type            calculated;
        value           nonuniform List<scalar> 
64
(
-26.4425
-26.4154
-26.3618
-26.2833
-26.1821
-26.0605
-25.9212
-25.7673
-25.6012
-25.4257
-25.243
-25.0555
-24.8649
-24.673
-24.4813
-24.2912
-24.1036
-23.9196
-23.7399
-23.5651
-23.3956
-23.2319
-23.0741
-22.9226
-22.7775
-22.639
-22.5076
-22.3834
-22.2669
-22.1584
-22.0586
-21.968
-21.8873
-21.8173
-21.7588
-21.7129
-21.6806
-21.6629
-21.661
-21.6761
-21.7094
-21.762
-21.8352
-21.9299
-22.0471
-22.1874
-22.3512
-22.5384
-22.7482
-22.9793
-23.2294
-23.4952
-23.7726
-24.0565
-24.3411
-24.6199
-24.8866
-25.1346
-25.3581
-25.5519
-25.7119
-25.8345
-25.9176
-25.9594
)
;
    }
    defaultFaces
    {
        type            empty;
    }
}


// ************************************************************************* //
