/*--------------------------------*- C++ -*----------------------------------*\
| =========                 |                                                 |
| \\      /  F ield         | OpenFOAM: The Open Source CFD Toolbox           |
|  \\    /   O peration     | Version:  5.x                                   |
|   \\  /    A nd           | Web:      www.OpenFOAM.org                      |
|    \\/     M anipulation  |                                                 |
\*---------------------------------------------------------------------------*/
FoamFile
{
    version     2.0;
    format      ascii;
    class       volScalarField;
    location    "8.3";
    object      gradTx;
}
// * * * * * * * * * * * * * * * * * * * * * * * * * * * * * * * * * * * * * //

dimensions      [0 -1 0 1 0 0 0];

internalField   nonuniform List<scalar> 
2048
(
0.00630506
0.0187346
0.0306391
0.0417207
0.0517506
0.0605793
0.0681365
0.07442
0.0794795
0.0833977
0.0862746
0.0882144
0.0893189
0.0896852
0.0894056
0.0885692
0.0872628
0.0855701
0.0835688
0.0813273
0.0789016
0.0763322
0.0736441
0.0708474
0.0679398
0.0649093
0.0617363
0.0583952
0.0548553
0.0510806
0.0470308
0.0426624
0.0379302
0.0327896
0.0271987
0.02112
0.0145212
0.00737608
-0.000334875
-0.00862337
-0.017491
-0.0269253
-0.0368952
-0.047343
-0.0581774
-0.0692635
-0.0804142
-0.0913824
-0.101857
-0.111465
-0.119783
-0.12636
-0.130754
-0.13257
-0.131512
-0.127416
-0.120277
-0.110248
-0.0976156
-0.0827651
-0.0661297
-0.0481503
-0.029247
-0.00980741
0.0187888
0.0558188
0.091258
0.124208
0.153982
0.18014
0.202483
0.221018
0.235906
0.247407
0.255826
0.261476
0.264661
0.265668
0.264767
0.262223
0.258292
0.253223
0.24725
0.240578
0.233373
0.225757
0.217801
0.209535
0.20095
0.192007
0.182648
0.172796
0.162361
0.151235
0.139299
0.126422
0.112469
0.0973071
0.0808101
0.0628664
0.0433803
0.0222737
-0.000512291
-0.025014
-0.0512391
-0.0791557
-0.108677
-0.139639
-0.17178
-0.204708
-0.237877
-0.270559
-0.301833
-0.330586
-0.355549
-0.375361
-0.388674
-0.39429
-0.391297
-0.379193
-0.357963
-0.328074
-0.290413
-0.246152
-0.196609
-0.143109
-0.0869053
-0.0291383
0.0311406
0.0924845
0.151109
0.205489
0.254477
0.297358
0.333835
0.363963
0.388054
0.406576
0.420056
0.429025
0.433983
0.435396
0.433703
0.429331
0.422701
0.414228
0.404302
0.393266
0.3814
0.368902
0.355889
0.3424
0.328413
0.313861
0.298644
0.282636
0.265687
0.247623
0.228244
0.207333
0.184664
0.160013
0.133171
0.103954
0.072203
0.0377899
0.000615753
-0.0393843
-0.082232
-0.127888
-0.176228
-0.227007
-0.279818
-0.334047
-0.388821
-0.442965
-0.49497
-0.542992
-0.584901
-0.618386
-0.641138
-0.651077
-0.646611
-0.626863
-0.591801
-0.542253
-0.479769
-0.406389
-0.324373
-0.235962
-0.143224
-0.0480093
0.0436004
0.129428
0.211278
0.286944
0.354802
0.41388
0.463833
0.504831
0.537401
0.56227
0.580223
0.59202
0.598352
0.59985
0.597104
0.590691
0.581196
0.569198
0.555252
0.539851
0.52339
0.506145
0.488267
0.469798
0.450693
0.430846
0.410114
0.388322
0.365266
0.340704
0.314358
0.285921
0.255071
0.221491
0.184885
0.144997
0.101606
0.0545371
0.00364899
-0.0511567
-0.109927
-0.172634
-0.239139
-0.309149
-0.382151
-0.457352
-0.533599
-0.60931
-0.682415
-0.750337
-0.810048
-0.858208
-0.891422
-0.906595
-0.901331
-0.874292
-0.825434
-0.756013
-0.668381
-0.565592
-0.450974
-0.327745
-0.198793
-0.0666108
0.0563839
0.167271
0.272725
0.369777
0.456293
0.531078
0.59381
0.644868
0.685088
0.715529
0.73728
0.751342
0.758591
0.759797
0.755677
0.746945
0.734341
0.718622
0.700522
0.680696
0.659666
0.637785
0.61523
0.592027
0.568093
0.543274
0.517379
0.490187
0.461442
0.430842
0.398029
0.362599
0.324126
0.282193
0.236414
0.186459
0.132051
0.0729672
0.00902729
-0.0599069
-0.133921
-0.213019
-0.297083
-0.385805
-0.478618
-0.574603
-0.672386
-0.77003
-0.864939
-0.953808
-1.03266
-1.09699
-1.14217
-1.16387
-1.15868
-1.1247
-1.06185
-0.971944
-0.85833
-0.725316
-0.577483
-0.419134
-0.253975
-0.0850563
0.069696
0.206602
0.336346
0.45508
0.56013
0.65012
0.724855
0.785049
0.831972
0.867113
0.891916
0.907638
0.915317
0.915829
0.909982
0.898605
0.882591
0.862889
0.840437
0.816078
0.790475
0.764057
0.737014
0.709334
0.680871
0.651409
0.620703
0.588494
0.554486
0.518319
0.479554
0.437683
0.392163
0.342464
0.288106
0.228683
0.163868
0.0933998
0.0170588
-0.0653366
-0.153925
-0.248768
-0.349798
-0.456742
-0.569032
-0.685686
-0.805183
-0.925302
-1.04298
-1.15418
-1.25392
-1.33642
-1.39554
-1.42543
-1.42143
-1.38086
-1.30358
-1.19214
-1.05119
-0.886624
-0.704541
-0.510466
-0.308918
-0.103385
0.0837408
0.248
0.403008
0.543889
0.667392
0.772025
0.85786
0.926118
0.978664
1.01753
1.04459
1.06135
1.06898
1.0684
1.06046
1.04608
1.02631
1.0023
0.975241
0.946197
0.915995
0.885139
0.853809
0.821925
0.789246
0.755472
0.720304
0.683453
0.644602
0.603343
0.559156
0.511412
0.459435
0.402564
0.340214
0.271911
0.197285
0.116045
0.0279411
-0.0672538
-0.169746
-0.27968
-0.397079
-0.521751
-0.653183
-0.790409
-0.931843
-1.07508
-1.21665
-1.35185
-1.47462
-1.57774
-1.65327
-1.69349
-1.69204
-1.64522
-1.55282
-1.41832
-1.24811
-1.05014
-0.832386
-0.601756
-0.363564
-0.121568
0.0987299
0.292062
0.473588
0.637219
0.77909
0.89769
0.99355
1.06862
1.12555
1.16709
1.19557
1.21276
1.21989
1.21786
1.20748
1.18972
1.16579
1.13709
1.10511
1.07119
1.03634
1.00115
0.965764
0.929976
0.893411
0.855658
0.816362
0.775228
0.731941
0.686066
0.636996
0.583965
0.526132
0.462685
0.392924
0.316307
0.232439
0.141018
0.0417771
-0.0655583
-0.181275
-0.305631
-0.438776
-0.580648
-0.730851
-0.888516
-1.05209
-1.21911
-1.38581
-1.54688
-1.69518
-1.82185
-1.91682
-1.96997
-1.97276
-1.92006
-1.81151
-1.65186
-1.44985
-1.21608
-0.960865
-0.692711
-0.417661
-0.139506
0.114889
0.339418
0.548995
0.736092
0.896194
1.02792
1.1325
1.2129
1.27283
1.31588
1.34494
1.362
1.36825
1.36447
1.35134
1.32981
1.30127
1.26744
1.23016
1.19112
1.15158
1.11218
1.073
1.03365
0.993545
0.952144
0.909032
0.863941
0.816604
0.766585
0.713184
0.655468
0.592395
0.522969
0.446359
0.361968
0.269395
0.168358
0.0585879
-0.0602303
-0.18848
-0.32656
-0.47479
-0.633283
-0.801824
-0.979716
-1.16557
-1.35697
-1.55006
-1.73902
-1.91566
-2.0693
-2.18734
-2.25663
-2.26575
-2.20757
-2.08149
-1.89394
-1.65681
-1.38423
-1.08945
-0.782738
-0.470766
-0.157037
0.132464
0.39075
0.630195
0.841559
1.01965
1.16343
1.27515
1.35916
1.4205
1.46382
1.49263
1.50908
1.51419
1.50845
1.49229
1.46662
1.43298
1.39348
1.35045
1.30601
1.26171
1.21828
1.17562
1.13308
1.08983
1.0451
0.99845
0.949682
0.898649
0.844951
0.787785
0.726009
0.65833
0.583521
0.500605
0.40894
0.308159
0.198033
0.0783226
-0.0513214
-0.191393
-0.342469
-0.505078
-0.679554
-0.865911
-1.06371
-1.27184
-1.48813
-1.7088
-1.92775
-2.13581
-2.32034
-2.46573
-2.55509
-2.57314
-2.50998
-2.36451
-2.14548
-1.86905
-1.55402
-1.21724
-0.870954
-0.522258
-0.173941
0.151728
0.446805
0.718229
0.954718
1.15041
1.30486
1.42182
1.5074
1.56836
1.61066
1.63844
1.65391
1.65776
1.64998
1.6306
1.60038
1.56109
1.51532
1.46599
1.41582
1.36671
1.31944
1.2737
1.22844
1.18244
1.13471
1.08474
1.03251
0.978092
0.921171
0.860828
0.795649
0.724019
0.644423
0.555714
0.457229
0.348684
0.229954
0.100868
-0.0389457
-0.19011
-0.353418
-0.529653
-0.719407
-0.922963
-1.14021
-1.37044
-1.61192
-1.86123
-2.11226
-2.35502
-2.57486
-2.75268
-2.86687
-2.89711
-2.82961
-2.66237
-2.40725
-2.08629
-1.72443
-1.34295
-0.956205
-0.571359
-0.189945
0.172983
0.508408
0.814227
1.07673
1.28938
1.45279
1.57269
1.65748
1.71608
1.75598
1.78204
1.79634
1.79898
1.78924
1.76653
1.73137
1.68578
1.63302
1.57678
1.52047
1.46649
1.41567
1.36732
1.31987
1.27159
1.22115
1.16802
1.11246
1.05491
0.995216
0.932313
0.864425
0.789528
0.705744
0.611719
0.506808
0.390881
0.263982
0.126055
-0.023273
-0.184776
-0.359516
-0.548582
-0.75285
-0.972892
-1.20897
-1.46092
-1.72766
-2.00642
-2.29149
-2.5724
-2.83247
-3.04859
-3.19341
-3.23998
-3.16899
-2.97692
-2.67983
-2.30786
-1.89401
-1.46495
-1.03708
-0.617151
-0.204733
0.196568
0.576473
0.919424
1.20881
1.43752
1.6077
1.72781
1.80911
1.86312
1.89922
1.923
1.93615
1.93786
1.92641
1.90037
1.85985
1.80725
1.74666
1.68274
1.61982
1.56093
1.50692
1.45658
1.40757
1.35751
1.30465
1.24841
1.18952
1.12902
1.06702
1.00221
0.932362
0.85492
0.76755
0.668642
0.557624
0.434625
0.299933
0.153666
-0.00452058
-0.175582
-0.360917
-0.561982
-0.779952
-1.01568
-1.26983
-1.54287
-1.83461
-2.14332
-2.46417
-2.78672
-3.09239
-3.35361
-3.53605
-3.60421
-3.53096
-3.31019
-2.96366
-2.53268
-2.06089
-1.58123
-1.11197
-0.658616
-0.217961
0.222863
0.652011
1.03517
1.35228
1.59572
1.77
1.88712
1.96182
2.00879
2.03968
2.06079
2.07309
2.07439
2.06172
2.03246
1.98612
1.92566
1.85627
1.78377
1.71369
1.64987
1.59315
1.54155
1.49172
1.44047
1.38545
1.32603
1.26368
1.20033
1.13646
1.07048
0.999474
0.92026
0.829916
0.726499
0.609607
0.479762
0.337584
0.18344
0.0170525
-0.162753
-0.35781
-0.570016
-0.800847
-1.05138
-1.32267
-1.61595
-1.93209
-2.27079
-2.62881
-2.99645
-3.35353
-3.66757
-3.89602
-3.99249
-3.91883
-3.66445
-3.25894
-2.75922
-2.22269
-1.6895
-1.17909
-0.694675
-0.229273
0.252295
0.736138
1.16293
1.50853
1.7649
1.93998
2.05043
2.11502
2.15225
2.17653
2.19484
2.20687
2.20857
2.1954
2.16318
2.11052
2.0412
1.9619
1.87977
1.80184
1.73307
1.67428
1.62235
1.57256
1.52077
1.46385
1.40102
1.33484
1.26864
1.20343
1.13707
1.06577
0.985622
0.892935
0.78531
0.662667
0.526115
0.376683
0.215077
0.0411519
-0.146542
-0.350403
-0.572882
-0.815735
-1.08015
-1.36752
-1.67992
-2.01947
-2.38768
-2.78377
-3.19973
-3.61436
-3.98994
-4.27437
-4.4078
-4.33646
-4.04231
-3.56568
-2.98537
-2.37655
-1.78713
-1.23656
-0.72424
-0.238317
0.285346
0.830079
1.3043
1.67905
1.94589
2.11781
2.21745
2.268
2.29249
2.30881
2.32451
2.33724
2.34039
2.32773
2.29301
2.23343
2.15404
2.06357
1.97057
1.88397
1.81028
1.75024
1.6991
1.65034
1.59878
1.54022
1.47353
1.4029
1.33374
1.26773
1.20191
1.13126
1.05109
0.95673
0.845101
0.716694
0.573485
0.41695
0.248245
0.0674531
-0.127216
-0.338918
-0.570805
-0.824873
-1.10224
-1.4045
-1.73466
-2.09625
-2.49288
-2.92724
-3.39444
-3.87303
-4.31977
-4.67188
-4.85336
-4.78852
-4.44678
-3.88352
-3.20838
-2.5191
-1.87131
-1.28246
-0.74627
-0.244769
0.322565
0.935158
1.461
1.86545
2.13949
2.3035
2.38778
2.41992
2.42836
2.43544
2.44916
2.46399
2.46985
2.45905
2.42255
2.35524
2.26435
2.16135
2.05601
1.95971
1.88116
1.82096
1.77199
1.72533
1.67489
1.615
1.54371
1.46766
1.3953
1.32917
1.26497
1.19595
1.11676
1.02147
0.905906
0.77156
0.621666
0.458088
0.282575
0.0956048
-0.105052
-0.32357
-0.564023
-0.828574
-1.11797
-1.43382
-1.78022
-2.1621
-2.58531
-3.05735
-3.57818
-4.12728
-4.65562
-5.08891
-5.33271
-5.28068
-4.88147
-4.21166
-3.42468
-2.64644
-1.93906
-1.31496
-0.759836
-0.248352
0.364591
1.0528
1.63485
2.06948
2.34639
2.49684
2.56096
2.56989
2.55856
2.55522
2.56813
2.58697
2.59696
2.58972
2.55251
2.47638
2.37223
2.25531
2.13593
2.02862
1.94532
1.88636
1.84123
1.79778
1.74953
1.68877
1.61177
1.52886
1.45294
1.38755
1.32621
1.25983
1.18275
1.08739
0.967766
0.827101
0.670446
0.499787
0.31767
0.125232
-0.0803255
-0.304557
-0.552772
-0.827201
-1.12779
-1.45583
-1.81677
-2.2169
-2.66404
-3.17212
-3.74828
-4.3745
-4.99559
-5.52518
-5.84958
-5.81998
-5.35066
-4.54862
-3.6298
-2.75419
-1.98739
-1.3324
-0.764179
-0.248856
0.412189
1.18449
1.82775
2.29311
2.5671
2.69733
2.73655
2.71697
2.68162
2.66683
2.68083
2.70617
2.72162
2.72008
2.68382
2.5973
2.4777
2.3456
2.21018
2.09019
2.00227
1.9464
1.90714
1.86794
1.82318
1.76224
1.67792
1.58613
1.50616
1.44265
1.38569
1.32284
1.24916
1.15481
1.03073
0.883104
0.719625
0.541733
0.353096
0.155935
-0.0533035
-0.282038
-0.537272
-0.821158
-1.13221
-1.47091
-1.84464
-2.2608
-2.7283
-3.26955
-3.9019
-4.61185
-5.33724
-5.97946
-6.40787
-6.4152
-5.85949
-4.89195
-3.81813
-2.83755
-2.01338
-1.3334
-0.758767
-0.246154
0.466316
1.33175
2.04164
2.53859
2.80193
2.9041
2.91419
2.86021
2.79589
2.76879
2.78672
2.82179
2.84363
2.85048
2.8177
2.71839
2.58063
2.43249
2.27862
2.14375
2.05142
2.00107
1.97015
1.93594
1.89628
1.83637
1.74241
1.63893
1.55432
1.49425
1.44355
1.38489
1.31608
1.22421
1.09483
0.93928
0.769037
0.583622
0.388382
0.187293
-0.0242394
-0.256122
-0.517713
-0.810887
-1.13187
-1.47955
-1.86427
-2.2943
-2.77757
-3.34766
-4.03596
-4.83626
-5.6777
-6.44923
-7.01137
-7.07749
-6.41417
-5.23785
-3.98282
-2.89141
-2.0144
-1.31692
-0.743336
-0.240212
0.528237
1.4961
2.27837
2.80867
3.05086
3.11574
3.09375
2.99876
2.89954
2.85948
2.88539
2.93436
2.96257
2.98118
2.95579
2.84001
2.68062
2.51645
2.3412
2.18855
2.09208
2.05041
2.03091
2.0018
1.96924
1.91241
1.80553
1.68657
1.59667
1.54217
1.50008
1.44576
1.38357
1.29624
1.16008
0.995223
0.818582
0.625165
0.423008
0.218859
0.00663096
-0.226847
-0.494234
-0.796861
-1.1275
-1.48221
-1.8762
-2.31828
-2.81154
-3.40449
-4.14723
-5.04463
-6.01384
-6.93011
-7.66348
-7.82111
-7.02217
-5.58052
-4.11555
-2.91049
-1.98822
-1.28244
-0.717926
-0.231099
0.599703
1.67892
2.53959
3.10678
3.31343
3.33015
3.27554
3.13184
2.99048
2.93709
2.97655
3.04488
3.07764
3.11224
3.10033
2.96233
2.77691
2.59826
2.39792
2.22362
2.12339
2.09453
2.09033
2.06525
2.04237
1.99205
1.86755
1.72811
1.63228
1.58628
1.55582
1.50505
1.45158
1.37187
1.22645
1.05035
0.868279
0.666099
0.456396
0.250161
0.0390898
-0.194164
-0.466909
-0.779575
-1.12
-1.47933
-1.88095
-2.33413
-2.83025
-3.43811
-4.23224
-5.23396
-6.34261
-7.41526
-8.36667
-8.66448
-7.69244
-5.91142
-4.20655
-2.88964
-1.93325
-1.22993
-0.682885
-0.218978
0.68324
1.88138
2.8265
3.43743
3.58852
3.5442
3.46065
3.2588
3.06632
2.99956
3.06008
3.15506
3.18744
3.24345
3.2545
3.0853
2.86812
2.67925
2.44886
2.24778
2.1443
2.1336
2.1498
2.12564
2.11576
2.07758
1.92876
1.76231
1.66002
1.6265
1.6117
1.5621
1.51993
1.45251
1.2938
1.10382
0.918347
0.706194
0.487884
0.280706
0.0729343
-0.157916
-0.435732
-0.759535
-1.11043
-1.47122
-1.87897
-2.34385
-2.83401
-3.44672
-4.28729
-5.4015
-6.66154
-7.89452
-9.12175
-9.63152
-8.43569
-6.21823
-4.24451
-2.82411
-1.84869
-1.15996
-0.638866
-0.204107
0.782588
2.10424
3.1395
3.80679
3.87418
3.75342
3.65135
3.37912
3.1243
3.04458
3.13597
3.26766
3.28971
3.37412
3.42276
3.20843
2.95207
2.76149
2.49418
2.25961
2.15356
2.16786
2.21133
2.18174
2.18922
2.17216
1.98932
1.78761
1.67861
1.66279
1.66915
1.61579
1.58822
1.54018
1.36182
1.15443
0.969309
0.745248
0.516707
0.309983
0.107967
-0.117823
-0.4006
-0.737238
-1.10014
-1.45803
-1.87048
-2.35023
-2.82344
-3.4286
-4.30829
-5.54484
-6.96966
-8.35349
-9.92677
-10.7535
-9.26455
-6.48343
-4.21683
-2.71
-1.73468
-1.07366
-0.586789
-0.186817
0.90334
2.34763
3.47771
4.22343
4.16723
3.95151
3.8517
3.49233
3.16124
3.06953
3.20428
3.38693
3.38091
3.50286
3.61146
3.33063
3.0254
2.84824
2.53407
2.25733
2.1497
2.19753
2.2779
2.23147
2.26206
2.28013
2.04924
1.802
1.68653
1.69515
1.73041
1.6644
1.65567
1.63779
1.42994
1.20048
1.02216
0.783067
0.541962
0.33748
0.143982
-0.0734586
-0.361309
-0.713139
-1.09083
-1.43966
-1.85525
-2.35703
-2.79939
-3.38224
-4.29064
-5.66201
-7.26863
-8.77235
-10.7755
-12.0712
-10.1938
-6.68264
-4.11003
-2.54469
-1.59242
-0.972729
-0.527801
-0.167499
1.05385
2.61076
3.8383
4.69938
4.4629
4.12973
4.06838
3.59787
3.17342
3.07151
3.26497
3.51922
3.45574
3.62726
3.82957
3.44984
3.08313
2.94445
2.56858
2.2388
2.13098
2.22276
2.35381
2.27158
2.33292
2.40744
2.10811
1.80303
1.68212
1.72351
1.79878
1.70535
1.72107
1.74949
1.49717
1.23957
1.07858
0.819428
0.562571
0.362711
0.180737
-0.024227
-0.317551
-0.687592
-1.08472
-1.41563
-1.83235
-2.36927
-2.76279
-3.30644
-4.229
-5.75131
-7.56448
-9.1246
-11.6555
-13.6381
-11.2404
-6.78239
-3.91052
-2.32733
-1.42422
-0.859313
-0.46321
-0.14658
1.24647
2.8915
4.21551
5.25155
4.75418
4.27613
4.31176
3.69471
3.15655
3.04728
3.31764
3.67382
3.50652
3.7435
4.0896
3.56268
3.11818
3.05743
2.59751
2.20146
2.09544
2.24341
2.44527
2.29725
2.3995
2.56223
2.1649
1.78773
1.66356
1.74765
1.87907
1.73487
1.78247
1.88114
1.56193
1.26841
1.14121
0.853999
0.57724
0.385255
0.217916
0.0306625
-0.268925
-0.660766
-1.08472
-1.38507
-1.79982
-2.39366
-2.71453
-3.20045
-4.11704
-5.81098
-7.86977
-9.37562
-12.5456
-15.5237
-12.4233
-6.73755
-3.60579
-2.05935
-1.23349
-0.735932
-0.394418
-0.124501
1.49923
3.18591
4.59952
5.90355
5.03117
4.37459
4.59726
3.78094
3.10574
2.99342
3.36106
3.86398
3.5224
3.84583
4.40883
3.66392
3.12066
3.19773
2.61999
2.14229
2.04092
2.25881
2.56103
2.30157
2.45828
2.75552
2.21757
1.75265
1.62899
1.76691
1.97815
1.74758
1.83706
2.0408
1.62178
1.28255
1.21405
0.886218
0.584414
0.404817
0.255077
0.092231
-0.214967
-0.632515
-1.09471
-1.34659
-1.75424
-2.43905
-2.65504
-3.06427
-3.94712
-5.83856
-8.20641
-9.48111
-13.4122
-17.8183
-13.7635
-6.48818
-3.18622
-1.74483
-1.02454
-0.60533
-0.322846
-0.101697
1.83791
3.48764
4.97483
6.68795
5.28009
4.40373
4.94708
3.85297
3.01554
2.90643
3.39258
4.10826
3.48842
3.92597
4.8108
3.74582
3.07717
3.3803
2.63409
2.05789
1.96519
2.26731
2.71328
2.27494
2.50408
3.00207
2.26251
1.69386
1.57661
1.77991
2.10557
1.7361
1.8808
2.23952
1.67312
1.27606
1.30288
0.915113
0.582242
0.421313
0.291579
0.161775
-0.155214
-0.602196
-1.11982
-1.29827
-1.69016
-2.51712
-2.58386
-2.89903
-3.71006
-5.8297
-8.60915
-9.3856
-14.2058
-20.6381
-15.2833
-5.95595
-2.64744
-1.39075
-0.802484
-0.47033
-0.249871
-0.0785793
2.29876
3.78717
5.31845
7.64905
5.48219
4.33562
5.39231
3.90449
2.88004
2.783
3.4072
4.43214
3.38443
3.97236
5.32701
3.79735
2.96987
3.62582
2.63606
1.94447
1.86608
2.26573
2.91868
2.20437
2.52969
3.32147
2.29389
1.60713
1.50487
1.7841
2.27444
1.69036
1.90816
2.49209
1.71076
1.2412
1.41586
0.939046
0.568547
0.434973
0.326485
0.240924
-0.0892897
-0.568422
-1.16674
-1.23763
-1.59947
-2.64317
-2.499
-2.7075
-3.3949
-5.77663
-9.12969
-9.02089
-14.8556
-24.1315
-17.0051
-5.04008
-1.99351
-1.00696
-0.57282
-0.333681
-0.176763
-0.0555197
2.93167
4.07094
5.59764
8.84617
5.61238
4.13428
5.97537
3.92511
2.69313
2.62038
3.39641
4.86999
3.18386
3.96932
5.99896
3.80319
2.77554
3.96232
2.61948
1.79809
1.74177
2.24859
3.19967
2.07265
2.52532
3.73932
2.30277
1.48803
1.41271
1.77508
2.50238
1.59709
1.91168
2.81801
1.72747
1.16806
1.56419
0.955381
0.540814
0.446479
0.358439
0.331727
-0.0170499
-0.528752
-1.24421
-1.16164
-1.47059
-2.83716
-2.39606
-2.49473
-2.98877
-5.66582
-9.84149
-8.30469
-15.2643
-28.4861
-18.9507
-3.61291
-1.24082
-0.605811
-0.341145
-0.197925
-0.104651
-0.0328419
3.80397
4.32041
5.76728
10.3574
5.63763
3.75409
6.75292
3.89855
2.44886
2.41688
3.34665
5.46732
2.85234
3.89607
6.88038
3.74274
2.4645
4.42709
2.5741
1.61483
1.59107
2.20712
3.58593
1.85744
2.47807
4.28866
2.27602
1.3323
1.29988
1.74588
2.8127
1.43897
1.88159
3.24255
1.71342
1.0441
1.76288
0.96005
0.496205
0.457119
0.385518
0.436749
0.0612301
-0.479291
-1.36338
-1.06683
-1.28755
-3.12486
-2.26711
-2.26892
-2.47699
-5.47515
-10.8451
-7.13948
-15.3012
-33.9368
-21.1393
-1.51516
-0.422852
-0.201266
-0.112737
-0.0652803
-0.0344836
-0.0108159
)
;

boundaryField
{
    left
    {
        type            calculated;
        value           uniform 0;
    }
    right
    {
        type            calculated;
        value           uniform 0;
    }
    interface
    {
        type            calculated;
        value           nonuniform List<scalar> 
64
(
3.80397
4.32041
5.76728
10.3574
5.63763
3.75409
6.75292
3.89855
2.44886
2.41688
3.34665
5.46732
2.85234
3.89607
6.88038
3.74274
2.4645
4.42709
2.5741
1.61483
1.59107
2.20712
3.58593
1.85744
2.47807
4.28866
2.27602
1.3323
1.29988
1.74588
2.8127
1.43897
1.88159
3.24255
1.71342
1.0441
1.76288
0.96005
0.496205
0.457119
0.385518
0.436749
0.0612301
-0.479291
-1.36338
-1.06683
-1.28755
-3.12486
-2.26711
-2.26892
-2.47699
-5.47515
-10.8451
-7.13948
-15.3012
-33.9368
-21.1393
-1.51516
-0.422852
-0.201266
-0.112737
-0.0652803
-0.0344836
-0.0108159
)
;
    }
    bottom
    {
        type            calculated;
        value           nonuniform List<scalar> 
64
(
0.00630506
0.0187346
0.0306391
0.0417207
0.0517506
0.0605793
0.0681365
0.07442
0.0794795
0.0833977
0.0862746
0.0882144
0.0893189
0.0896852
0.0894056
0.0885692
0.0872628
0.0855701
0.0835688
0.0813273
0.0789016
0.0763322
0.0736441
0.0708474
0.0679398
0.0649093
0.0617363
0.0583952
0.0548553
0.0510806
0.0470308
0.0426624
0.0379302
0.0327896
0.0271987
0.02112
0.0145212
0.00737608
-0.000334875
-0.00862337
-0.017491
-0.0269253
-0.0368952
-0.047343
-0.0581774
-0.0692635
-0.0804142
-0.0913824
-0.101857
-0.111465
-0.119783
-0.12636
-0.130754
-0.13257
-0.131512
-0.127416
-0.120277
-0.110248
-0.0976156
-0.0827651
-0.0661297
-0.0481503
-0.029247
-0.00980741
)
;
    }
    defaultFaces
    {
        type            empty;
    }
}


// ************************************************************************* //
