/*--------------------------------*- C++ -*----------------------------------*\
| =========                 |                                                 |
| \\      /  F ield         | OpenFOAM: The Open Source CFD Toolbox           |
|  \\    /   O peration     | Version:  5.x                                   |
|   \\  /    A nd           | Web:      www.OpenFOAM.org                      |
|    \\/     M anipulation  |                                                 |
\*---------------------------------------------------------------------------*/
FoamFile
{
    version     2.0;
    format      ascii;
    class       volScalarField;
    location    "7.4";
    object      gradTx;
}
// * * * * * * * * * * * * * * * * * * * * * * * * * * * * * * * * * * * * * //

dimensions      [0 -1 0 1 0 0 0];

internalField   nonuniform List<scalar> 
2048
(
0.00630508
0.0187345
0.0306387
0.0417201
0.0517498
0.0605783
0.0681354
0.0744187
0.079478
0.0833962
0.086273
0.0882126
0.0893171
0.0896834
0.0894037
0.0885672
0.0872609
0.0855682
0.0835669
0.0813255
0.0788999
0.0763307
0.0736427
0.0708461
0.0679387
0.0649084
0.0617356
0.0583947
0.054855
0.0510805
0.0470309
0.0426627
0.0379306
0.0327901
0.0271994
0.0211208
0.014522
0.00737698
-0.000333949
-0.00862244
-0.01749
-0.0269245
-0.0368943
-0.0473422
-0.0581767
-0.0692628
-0.0804136
-0.0913818
-0.101856
-0.111464
-0.119782
-0.12636
-0.130753
-0.13257
-0.131512
-0.127416
-0.120277
-0.110248
-0.0976155
-0.0827651
-0.0661297
-0.0481504
-0.029247
-0.00980745
0.0187888
0.0558184
0.0912567
0.124206
0.15398
0.180137
0.20248
0.221014
0.235902
0.247403
0.255821
0.261471
0.264656
0.265662
0.264762
0.262217
0.258286
0.253218
0.247245
0.240572
0.233368
0.225752
0.217797
0.209532
0.200947
0.192004
0.182646
0.172795
0.16236
0.151235
0.139299
0.126423
0.112471
0.0973087
0.0808121
0.0628687
0.0433828
0.0222763
-0.000509571
-0.0250113
-0.0512364
-0.0791531
-0.108674
-0.139637
-0.171778
-0.204706
-0.237875
-0.270557
-0.301831
-0.330585
-0.355548
-0.375359
-0.388673
-0.394289
-0.391296
-0.379193
-0.357962
-0.328074
-0.290412
-0.246152
-0.196609
-0.14311
-0.0869055
-0.0291384
0.0311406
0.0924837
0.151107
0.205486
0.254473
0.297354
0.333829
0.363956
0.388047
0.406568
0.420048
0.429016
0.433974
0.435387
0.433694
0.429321
0.422692
0.414219
0.404293
0.393257
0.381392
0.368895
0.355882
0.342394
0.328408
0.313857
0.29864
0.282633
0.265686
0.247622
0.228244
0.207334
0.184666
0.160015
0.133174
0.103957
0.072207
0.0377941
0.000620147
-0.0393799
-0.0822277
-0.127884
-0.176224
-0.227003
-0.279815
-0.334044
-0.388818
-0.442962
-0.494967
-0.54299
-0.584899
-0.618384
-0.641136
-0.651075
-0.64661
-0.626861
-0.5918
-0.542253
-0.479769
-0.406389
-0.324373
-0.235962
-0.143224
-0.0480095
0.0436003
0.129427
0.211275
0.28694
0.354797
0.413873
0.463825
0.504822
0.537392
0.56226
0.580213
0.592008
0.598341
0.599838
0.597091
0.590679
0.581183
0.569186
0.55524
0.53984
0.523379
0.506134
0.488258
0.46979
0.450685
0.43084
0.410109
0.388319
0.365264
0.340703
0.314358
0.285923
0.255074
0.221494
0.184889
0.145001
0.101612
0.0545429
0.00365492
-0.0511508
-0.109921
-0.172628
-0.239134
-0.309144
-0.382146
-0.457348
-0.533596
-0.609307
-0.682411
-0.750334
-0.810045
-0.858205
-0.891419
-0.906593
-0.901328
-0.87429
-0.825432
-0.756012
-0.66838
-0.565592
-0.450974
-0.327745
-0.198794
-0.0666113
0.0563838
0.16727
0.272722
0.369771
0.456286
0.531069
0.5938
0.644857
0.685076
0.715517
0.737267
0.751328
0.758576
0.759782
0.755661
0.746929
0.734326
0.718607
0.700507
0.680682
0.659652
0.637772
0.615218
0.592017
0.568084
0.543267
0.517373
0.490182
0.461439
0.430841
0.398029
0.3626
0.324129
0.282197
0.236419
0.186465
0.132058
0.0729742
0.00903457
-0.0598996
-0.133914
-0.213012
-0.297076
-0.385799
-0.478612
-0.574598
-0.672381
-0.770025
-0.864935
-0.953804
-1.03265
-1.09699
-1.14217
-1.16386
-1.15868
-1.1247
-1.06185
-0.971942
-0.858329
-0.725315
-0.577483
-0.419135
-0.253976
-0.0850569
0.0696958
0.2066
0.336341
0.455073
0.560121
0.650109
0.724843
0.785035
0.831958
0.867097
0.8919
0.907621
0.9153
0.915811
0.909964
0.898587
0.882573
0.86287
0.840419
0.816061
0.790459
0.764042
0.737
0.709321
0.68086
0.6514
0.620696
0.588489
0.554482
0.518317
0.479553
0.437684
0.392166
0.342469
0.288111
0.228689
0.163876
0.0934078
0.0170673
-0.0653281
-0.153916
-0.248759
-0.34979
-0.456735
-0.569025
-0.68568
-0.805177
-0.925297
-1.04297
-1.15417
-1.25391
-1.33641
-1.39553
-1.42543
-1.42143
-1.38085
-1.30358
-1.19214
-1.05119
-0.886623
-0.704541
-0.510467
-0.308919
-0.103386
0.0837406
0.247997
0.403002
0.54388
0.667381
0.772012
0.857846
0.926102
0.978647
1.01752
1.04457
1.06133
1.06896
1.06838
1.06044
1.04606
1.02629
1.00228
0.97522
0.946177
0.915976
0.885121
0.853793
0.82191
0.789233
0.755461
0.720295
0.683447
0.644597
0.603341
0.559155
0.511413
0.459438
0.402568
0.34022
0.271918
0.197293
0.116053
0.0279505
-0.0672442
-0.169736
-0.279671
-0.397071
-0.521743
-0.653175
-0.790402
-0.931837
-1.07507
-1.21664
-1.35184
-1.47462
-1.57773
-1.65327
-1.69348
-1.69204
-1.64521
-1.55281
-1.41831
-1.24811
-1.05014
-0.832386
-0.601757
-0.363566
-0.121569
0.0987296
0.292059
0.47358
0.637209
0.779076
0.897675
0.993532
1.0686
1.12554
1.16707
1.19555
1.21274
1.21987
1.21784
1.20746
1.1897
1.16577
1.13707
1.10509
1.07116
1.03632
1.00113
0.965746
0.929959
0.893396
0.855645
0.816352
0.77522
0.731935
0.686063
0.636995
0.583965
0.526135
0.462689
0.392929
0.316314
0.232447
0.141027
0.0417871
-0.0655479
-0.181265
-0.305621
-0.438767
-0.580639
-0.730843
-0.888508
-1.05209
-1.2191
-1.3858
-1.54687
-1.69517
-1.82184
-1.91681
-1.96996
-1.97275
-1.92005
-1.8115
-1.65186
-1.44985
-1.21607
-0.960865
-0.692712
-0.417663
-0.139507
0.114889
0.339414
0.548986
0.73608
0.896178
1.0279
1.13248
1.21288
1.27281
1.31586
1.34492
1.36198
1.36823
1.36444
1.35131
1.32979
1.30125
1.26741
1.23013
1.19109
1.15155
1.11216
1.07298
1.03363
0.993529
0.95213
0.909021
0.863932
0.816597
0.76658
0.713181
0.655467
0.592397
0.522972
0.446364
0.361974
0.269404
0.168367
0.0585982
-0.0602194
-0.188468
-0.326549
-0.47478
-0.633274
-0.801815
-0.979708
-1.16556
-1.35696
-1.55005
-1.73902
-1.91566
-2.06929
-2.18733
-2.25662
-2.26574
-2.20757
-2.08148
-1.89393
-1.65681
-1.38423
-1.08945
-0.782739
-0.470768
-0.157039
0.132464
0.390746
0.630185
0.841544
1.01963
1.16341
1.27513
1.35914
1.42047
1.4638
1.49261
1.50905
1.51417
1.50842
1.49227
1.46659
1.43295
1.39345
1.35042
1.30598
1.26168
1.21825
1.17559
1.13306
1.08981
1.04509
0.998438
0.949672
0.898641
0.844944
0.787781
0.726007
0.65833
0.583523
0.500609
0.408946
0.308167
0.198042
0.078333
-0.0513102
-0.191382
-0.342458
-0.505067
-0.679544
-0.865902
-1.0637
-1.27183
-1.48812
-1.70879
-1.92775
-2.1358
-2.32033
-2.46572
-2.55508
-2.57313
-2.50997
-2.36451
-2.14547
-1.86905
-1.55402
-1.21724
-0.870955
-0.522261
-0.173943
0.151727
0.4468
0.718217
0.954701
1.15038
1.30484
1.4218
1.50738
1.56834
1.61063
1.63842
1.65389
1.65774
1.64995
1.63058
1.60036
1.56106
1.51529
1.46597
1.41579
1.36668
1.31942
1.27367
1.22842
1.18242
1.13469
1.08473
1.0325
0.978082
0.921163
0.860822
0.795645
0.724017
0.644423
0.555717
0.457233
0.34869
0.229963
0.100878
-0.0389345
-0.190098
-0.353406
-0.529642
-0.719397
-0.922954
-1.1402
-1.37043
-1.61191
-1.86123
-2.11225
-2.35501
-2.57485
-2.75266
-2.86686
-2.8971
-2.8296
-2.66236
-2.40724
-2.08628
-1.72442
-1.34295
-0.956206
-0.571362
-0.189947
0.172982
0.508402
0.814213
1.07671
1.28936
1.45276
1.57266
1.65746
1.71605
1.75595
1.78202
1.79632
1.79896
1.78921
1.76651
1.73134
1.68576
1.633
1.57675
1.52044
1.46646
1.41564
1.3673
1.31985
1.27157
1.22114
1.16801
1.11244
1.05489
0.995205
0.932304
0.864418
0.789523
0.705742
0.611719
0.50681
0.390886
0.263989
0.126064
-0.023262
-0.184764
-0.359504
-0.548571
-0.752839
-0.972883
-1.20897
-1.46091
-1.72765
-2.00642
-2.29148
-2.57239
-2.83245
-3.04857
-3.19339
-3.23996
-3.16897
-2.97691
-2.67982
-2.30785
-1.89401
-1.46495
-1.03709
-0.617155
-0.204735
0.196567
0.576465
0.919408
1.20879
1.43749
1.60767
1.72778
1.80908
1.86309
1.89919
1.92297
1.93613
1.93784
1.92639
1.90035
1.85982
1.80722
1.74663
1.68271
1.61979
1.5609
1.50689
1.45655
1.40754
1.35749
1.30463
1.24839
1.18951
1.12901
1.067
1.0022
0.932351
0.854912
0.767545
0.668639
0.557624
0.434627
0.299938
0.153674
-0.00451013
-0.17557
-0.360905
-0.561971
-0.779941
-1.01567
-1.26982
-1.54286
-1.8346
-2.14331
-2.46416
-2.78671
-3.09238
-3.35359
-3.53603
-3.60419
-3.53095
-3.31018
-2.96365
-2.53268
-2.06088
-1.58123
-1.11198
-0.65862
-0.217964
0.222861
0.652002
1.03515
1.35226
1.59569
1.76997
1.88709
1.96179
2.00876
2.03966
2.06077
2.07306
2.07437
2.0617
2.03243
1.98609
1.92563
1.85625
1.78375
1.71366
1.64984
1.59312
1.54152
1.49169
1.44045
1.38543
1.32602
1.26366
1.20031
1.13645
1.07047
0.999459
0.920248
0.829907
0.726493
0.609604
0.479762
0.337587
0.183446
0.0170621
-0.162741
-0.357797
-0.570004
-0.800838
-1.05137
-1.32267
-1.61594
-1.93208
-2.27078
-2.6288
-2.99643
-3.35351
-3.66755
-3.89599
-3.99247
-3.91881
-3.66444
-3.25893
-2.75921
-2.22269
-1.6895
-1.17909
-0.69468
-0.229276
0.252293
0.736128
1.16291
1.5085
1.76486
1.93994
2.0504
2.11499
2.15221
2.17651
2.19482
2.20685
2.20854
2.19537
2.16315
2.1105
2.04118
1.96187
1.87974
1.80181
1.73304
1.67425
1.62231
1.57253
1.52075
1.46383
1.40101
1.33482
1.26862
1.2034
1.13705
1.06575
0.985605
0.892921
0.7853
0.662659
0.526111
0.376683
0.215082
0.0411605
-0.14653
-0.350391
-0.572871
-0.815726
-1.08014
-1.36752
-1.67991
-2.01946
-2.38767
-2.78375
-3.19972
-3.61434
-3.98992
-4.27434
-4.40777
-4.33644
-4.04229
-3.56567
-2.98536
-2.37655
-1.78713
-1.23656
-0.724245
-0.23832
0.285344
0.830067
1.30427
1.67901
1.94585
2.11777
2.21741
2.26796
2.29246
2.30879
2.32449
2.33722
2.34036
2.32771
2.29299
2.23341
2.15402
2.06355
1.97054
1.88394
1.81025
1.75021
1.69907
1.65031
1.59875
1.5402
1.47351
1.40288
1.33371
1.2677
1.20188
1.13124
1.05107
0.956711
0.845086
0.716682
0.573477
0.416947
0.248247
0.0674605
-0.127205
-0.338906
-0.570794
-0.824864
-1.10223
-1.4045
-1.73466
-2.09625
-2.49287
-2.92723
-3.39442
-3.87301
-4.31974
-4.67185
-4.85333
-4.78849
-4.44676
-3.88351
-3.20836
-2.51909
-1.87131
-1.28246
-0.746275
-0.244773
0.322563
0.935145
1.46097
1.86541
2.13944
2.30345
2.38773
2.41988
2.42833
2.43542
2.44914
2.46397
2.46984
2.45904
2.42253
2.35522
2.26434
2.16133
2.05599
1.95968
1.88113
1.82092
1.77195
1.7253
1.67486
1.61498
1.5437
1.46764
1.39528
1.32914
1.26493
1.19592
1.11673
1.02145
0.905885
0.771542
0.621653
0.45808
0.282575
0.0956108
-0.105041
-0.323558
-0.564011
-0.828566
-1.11797
-1.43382
-1.78022
-2.1621
-2.5853
-3.05733
-3.57815
-4.12725
-4.65559
-5.08888
-5.33267
-5.28065
-4.88145
-4.21164
-3.42467
-2.64643
-1.93906
-1.31496
-0.759842
-0.248356
0.364588
1.05278
1.63482
2.06943
2.34633
2.49678
2.56091
2.56985
2.55852
2.5552
2.56811
2.58696
2.59694
2.5897
2.55249
2.47637
2.37222
2.2553
2.13592
2.0286
1.94528
1.88632
1.84118
1.79775
1.74951
1.68875
1.61176
1.52885
1.45291
1.38751
1.32617
1.25978
1.18271
1.08736
0.967739
0.827077
0.670427
0.499774
0.317666
0.125236
-0.0803152
-0.304544
-0.55276
-0.827194
-1.12778
-1.45583
-1.81678
-2.2169
-2.66403
-3.1721
-3.74826
-4.37447
-4.99556
-5.52514
-5.84955
-5.81994
-5.35063
-4.5486
-3.62979
-2.75418
-1.98739
-1.33241
-0.764186
-0.24886
0.412185
1.18447
1.82772
2.29305
2.56704
2.69727
2.7365
2.71692
2.68158
2.6668
2.68081
2.70616
2.72161
2.72007
2.68381
2.59729
2.4777
2.3456
2.21017
2.09016
2.00223
1.94635
1.90709
1.8679
1.82316
1.76224
1.67791
1.58611
1.50612
1.4426
1.38564
1.32278
1.24911
1.15477
1.03069
0.883073
0.719599
0.541715
0.353088
0.155938
-0.0532934
-0.282024
-0.53726
-0.821151
-1.13221
-1.47092
-1.84465
-2.26081
-2.7283
-3.26954
-3.90187
-4.61181
-5.3372
-5.97941
-6.40783
-6.41516
-5.85946
-4.89193
-3.81812
-2.83754
-2.01338
-1.3334
-0.758773
-0.246158
0.466311
1.33174
2.0416
2.53854
2.80186
2.90403
2.91413
2.86017
2.79586
2.76877
2.78671
2.82179
2.84363
2.85048
2.8177
2.71839
2.58064
2.4325
2.27862
2.14373
2.05138
2.00102
1.97009
1.9359
1.89626
1.83637
1.74242
1.63891
1.55429
1.49419
1.44348
1.38482
1.31602
1.22416
1.09478
0.939242
0.769003
0.583597
0.388369
0.187294
-0.0242293
-0.256108
-0.517701
-0.810881
-1.13187
-1.47956
-1.86428
-2.2943
-2.77756
-3.34765
-4.03593
-4.83622
-5.67765
-6.44918
-7.01132
-7.07745
-6.41414
-5.23782
-3.9828
-2.8914
-2.01439
-1.31693
-0.743343
-0.240216
0.52823
1.49608
2.27833
2.80861
3.05079
3.11567
3.09369
2.99871
2.89951
2.85947
2.88539
2.93437
2.96257
2.98118
2.95579
2.84001
2.68064
2.51647
2.34121
2.18853
2.09204
2.05035
2.03084
2.00175
1.96922
1.91242
1.80554
1.68656
1.59663
1.5421
1.49999
1.44567
1.3835
1.29618
1.16003
0.995176
0.818539
0.625132
0.422991
0.218858
0.00664124
-0.226831
-0.494221
-0.796856
-1.12751
-1.48222
-1.87621
-2.31829
-2.81154
-3.40447
-4.14719
-5.04458
-6.01379
-6.93006
-7.66342
-7.82106
-7.02213
-5.58049
-4.11553
-2.91048
-1.98822
-1.28244
-0.717932
-0.231102
0.599693
1.6789
2.53955
3.1067
3.31334
3.33007
3.27548
3.13179
2.99045
2.93708
2.97656
3.04489
3.07765
3.11224
3.10033
2.96234
2.77693
2.5983
2.39794
2.2236
2.12334
2.09446
2.09026
2.06519
2.04235
1.99206
1.86758
1.7281
1.63223
1.58621
1.55572
1.50495
1.45149
1.3718
1.22639
1.05029
0.868227
0.666057
0.456373
0.250159
0.0391005
-0.194146
-0.466894
-0.779571
-1.12001
-1.47934
-1.88097
-2.33414
-2.83026
-3.4381
-4.23221
-5.23391
-6.34254
-7.41519
-8.36661
-8.66442
-7.6924
-5.91139
-4.20653
-2.88963
-1.93325
-1.22993
-0.682891
-0.218981
0.683227
1.88135
2.82645
3.43735
3.58843
3.54411
3.46058
3.25874
3.06629
2.99955
3.06009
3.15508
3.18746
3.24346
3.2545
3.08531
2.86816
2.6793
2.4489
2.24778
2.14424
2.13352
2.14971
2.12558
2.11575
2.0776
1.92879
1.76232
1.65998
1.62641
1.61158
1.56197
1.51983
1.45243
1.29373
1.10376
0.918285
0.706143
0.487855
0.280702
0.0729455
-0.157896
-0.435714
-0.759532
-1.11044
-1.47124
-1.879
-2.34388
-2.83402
-3.4467
-4.28725
-5.40144
-6.66147
-7.89445
-9.12168
-9.63146
-8.43564
-6.21819
-4.24449
-2.8241
-1.84869
-1.15996
-0.638869
-0.204108
0.782571
2.10421
3.13945
3.8067
3.87407
3.75332
3.65127
3.37906
3.12427
3.04458
3.13599
3.26769
3.28974
3.37414
3.42277
3.20845
2.95212
2.76156
2.49424
2.25961
2.1535
2.16777
2.21123
2.18167
2.18921
2.1722
1.98938
1.78762
1.67856
1.66269
1.66902
1.61564
1.5881
1.54008
1.36175
1.15436
0.969238
0.745186
0.516672
0.309977
0.107979
-0.117801
-0.40058
-0.737235
-1.10016
-1.45806
-1.87052
-2.35026
-2.82346
-3.42859
-4.30825
-5.54478
-6.96957
-8.3534
-9.92669
-10.7534
-9.26451
-6.4834
-4.21681
-2.70999
-1.73467
-1.07367
-0.58679
-0.186816
0.903317
2.3476
3.47766
4.22333
4.16712
3.95141
3.85162
3.49228
3.16121
3.06954
3.20431
3.38697
3.38094
3.50288
3.61148
3.33065
3.02546
2.84833
2.53414
2.25734
2.14964
2.19743
2.27778
2.23139
2.26205
2.28018
2.04931
1.80203
1.68648
1.69504
1.73026
1.66424
1.65554
1.63768
1.42986
1.2004
1.02208
0.782996
0.54192
0.337474
0.143995
-0.0734349
-0.361287
-0.713136
-1.09085
-1.43969
-1.85529
-2.35706
-2.79941
-3.38223
-4.2906
-5.66194
-7.26854
-8.77225
-10.7754
-12.0711
-10.1937
-6.68261
-4.11001
-2.54468
-1.59241
-0.972732
-0.527799
-0.167495
1.05382
2.61072
3.83825
4.69927
4.46278
4.12962
4.06829
3.59781
3.17339
3.07152
3.26501
3.51928
3.45579
3.62729
3.82959
3.44987
3.0832
2.94455
2.56867
2.23883
2.13091
2.22265
2.35369
2.27149
2.33291
2.4075
2.10819
1.80306
1.68207
1.7234
1.79861
1.70517
1.72091
1.74937
1.49708
1.23949
1.07849
0.819348
0.562523
0.362704
0.180749
-0.0242022
-0.317526
-0.687589
-1.08473
-1.41567
-1.83239
-2.36931
-2.76282
-3.30643
-4.22895
-5.75123
-7.56438
-9.1245
-11.6554
-13.638
-11.2403
-6.78236
-3.9105
-2.32732
-1.42422
-0.859316
-0.463205
-0.146572
1.24643
2.89145
4.21546
5.25144
4.75405
4.27601
4.31167
3.69465
3.15652
3.0473
3.31768
3.67388
3.50658
3.74354
4.08962
3.56271
3.11825
3.05753
2.59762
2.20149
2.09537
2.2433
2.44515
2.29715
2.39949
2.56229
2.165
1.78778
1.66351
1.74754
1.8789
1.73467
1.78229
1.88099
1.56183
1.26833
1.14112
0.853912
0.577185
0.385248
0.217927
0.0306867
-0.268896
-0.660763
-1.08474
-1.38511
-1.79987
-2.3937
-2.71457
-3.20044
-4.11698
-5.81091
-7.86966
-9.3755
-12.5455
-15.5236
-12.4232
-6.73752
-3.60577
-2.05934
-1.23348
-0.735935
-0.394409
-0.124488
1.49918
3.18586
4.59947
5.90344
5.03104
4.37446
4.59717
3.78088
3.10571
2.99344
3.3611
3.86404
3.52247
3.84588
4.40887
3.66396
3.12073
3.19783
2.62011
2.14234
2.04084
2.2587
2.56091
2.30146
2.45825
2.75556
2.21768
1.7527
1.62893
1.7668
1.97799
1.74738
1.83686
2.04063
1.62167
1.28246
1.21395
0.886128
0.584354
0.404809
0.255087
0.0922515
-0.214938
-0.632512
-1.09474
-1.34664
-1.75429
-2.43909
-2.65508
-3.06427
-3.94706
-5.83848
-8.2063
-9.48099
-13.4121
-17.8182
-13.7635
-6.48815
-3.1862
-1.74482
-1.02454
-0.605333
-0.322832
-0.101679
1.83785
3.48759
4.97478
6.68784
5.27996
4.40361
4.947
3.85291
3.01551
2.90645
3.39261
4.10831
3.48848
3.92604
4.81087
3.74587
3.07722
3.38038
2.63421
2.05795
1.96512
2.26722
2.71318
2.27484
2.50404
3.00209
2.26261
1.69392
1.57655
1.77982
2.10543
1.7359
1.88059
2.23932
1.67299
1.27598
1.30279
0.915025
0.58218
0.421304
0.291584
0.161787
-0.155187
-0.602192
-1.11984
-1.29832
-1.69021
-2.51715
-2.5839
-2.89904
-3.71001
-5.82963
-8.60904
-9.38548
-14.2056
-20.638
-15.2832
-5.95593
-2.64743
-1.39074
-0.802482
-0.470333
-0.249852
-0.0785571
2.29869
3.7871
5.31841
7.64895
5.48207
4.33551
5.39223
3.90444
2.88002
2.78302
3.40721
4.43216
3.38448
3.97245
5.32712
3.7974
2.96989
3.62584
2.63615
1.94454
1.86602
2.26567
2.91863
2.20429
2.52963
3.32143
2.29396
1.60717
1.5048
1.78403
2.27434
1.6902
1.90794
2.49185
1.71061
1.24113
1.41578
0.938972
0.568487
0.434963
0.326482
0.24092
-0.0892713
-0.56842
-1.16676
-1.23767
-1.59951
-2.64319
-2.49903
-2.70751
-3.39485
-5.77657
-9.1296
-9.02078
-14.8555
-24.1313
-17.005
-5.04007
-1.9935
-1.00696
-0.572819
-0.333684
-0.176742
-0.055495
2.93159
4.07087
5.5976
8.84609
5.6123
4.13418
5.97529
3.92506
2.69311
2.6204
3.39639
4.86996
3.18389
3.96945
5.99914
3.80328
2.77552
3.96226
2.6195
1.79815
1.74174
2.24858
3.19971
2.07263
2.52523
3.7392
2.30277
1.48803
1.41263
1.77506
2.50236
1.597
1.91146
2.81771
1.7273
1.168
1.56414
0.955337
0.540763
0.446467
0.358422
0.331696
-0.0170488
-0.528753
-1.24422
-1.16167
-1.47061
-2.83714
-2.39607
-2.49475
-2.98874
-5.66579
-9.84143
-8.3046
-15.2642
-28.4859
-18.9506
-3.6129
-1.24082
-0.605808
-0.341145
-0.197927
-0.104631
-0.0328192
3.80389
4.32033
5.76725
10.3574
5.6376
3.75403
6.75285
3.89853
2.44885
2.41689
3.34657
5.4672
2.85231
3.89624
6.88068
3.74288
2.46441
4.42688
2.57401
1.61486
1.59108
2.2072
3.58611
1.85752
2.47795
4.28839
2.27589
1.33224
1.29979
1.74591
2.81282
1.43901
1.88139
3.24217
1.71321
1.04406
1.76287
0.96006
0.496177
0.457103
0.38548
0.436675
0.0611993
-0.479301
-1.36339
-1.06683
-1.28753
-3.12479
-2.26707
-2.26893
-2.47698
-5.47516
-10.8451
-7.13944
-15.301
-33.9366
-21.1392
-1.51515
-0.422851
-0.201266
-0.112736
-0.0652815
-0.0344724
-0.0108035
)
;

boundaryField
{
    left
    {
        type            calculated;
        value           uniform 0;
    }
    right
    {
        type            calculated;
        value           uniform 0;
    }
    interface
    {
        type            calculated;
        value           nonuniform List<scalar> 
64
(
3.80389
4.32033
5.76725
10.3574
5.6376
3.75403
6.75285
3.89853
2.44885
2.41689
3.34657
5.4672
2.85231
3.89624
6.88068
3.74288
2.46441
4.42688
2.57401
1.61486
1.59108
2.2072
3.58611
1.85752
2.47795
4.28839
2.27589
1.33224
1.29979
1.74591
2.81282
1.43901
1.88139
3.24217
1.71321
1.04406
1.76287
0.96006
0.496177
0.457103
0.38548
0.436675
0.0611993
-0.479301
-1.36339
-1.06683
-1.28753
-3.12479
-2.26707
-2.26893
-2.47698
-5.47516
-10.8451
-7.13944
-15.301
-33.9366
-21.1392
-1.51515
-0.422851
-0.201266
-0.112736
-0.0652815
-0.0344724
-0.0108035
)
;
    }
    bottom
    {
        type            calculated;
        value           nonuniform List<scalar> 
64
(
0.00630508
0.0187345
0.0306387
0.0417201
0.0517498
0.0605783
0.0681354
0.0744187
0.079478
0.0833962
0.086273
0.0882126
0.0893171
0.0896834
0.0894037
0.0885672
0.0872609
0.0855682
0.0835669
0.0813255
0.0788999
0.0763307
0.0736427
0.0708461
0.0679387
0.0649084
0.0617356
0.0583947
0.054855
0.0510805
0.0470309
0.0426627
0.0379306
0.0327901
0.0271994
0.0211208
0.014522
0.00737698
-0.000333949
-0.00862244
-0.01749
-0.0269245
-0.0368943
-0.0473422
-0.0581767
-0.0692628
-0.0804136
-0.0913818
-0.101856
-0.111464
-0.119782
-0.12636
-0.130753
-0.13257
-0.131512
-0.127416
-0.120277
-0.110248
-0.0976155
-0.0827651
-0.0661297
-0.0481504
-0.029247
-0.00980745
)
;
    }
    defaultFaces
    {
        type            empty;
    }
}


// ************************************************************************* //
