/*--------------------------------*- C++ -*----------------------------------*\
| =========                 |                                                 |
| \\      /  F ield         | OpenFOAM: The Open Source CFD Toolbox           |
|  \\    /   O peration     | Version:  5.x                                   |
|   \\  /    A nd           | Web:      www.OpenFOAM.org                      |
|    \\/     M anipulation  |                                                 |
\*---------------------------------------------------------------------------*/
FoamFile
{
    version     2.0;
    format      ascii;
    class       volScalarField;
    location    "9.1";
    object      gradTy;
}
// * * * * * * * * * * * * * * * * * * * * * * * * * * * * * * * * * * * * * //

dimensions      [0 -1 0 1 0 0 0];

internalField   nonuniform List<scalar> 
3200
(
18.2484
8.6356
11.7295
8.31221
9.74956
8.03963
8.7938
7.79258
8.24147
7.60065
7.87605
7.51717
7.72763
7.3173
7.52955
7.13929
7.33846
6.97991
7.16167
6.83778
7.00109
6.71218
6.85724
6.60215
6.73014
6.50603
6.62026
6.42067
6.53563
6.36654
6.23144
6.31856
6.20013
6.25776
6.16566
6.21028
6.13634
6.17223
6.11215
6.14132
6.09232
6.11609
6.07619
6.09547
6.06322
6.07864
6.05311
6.06499
6.04591
6.05408
6.04302
6.04915
6.03761
6.04298
6.03408
6.03768
6.03281
6.03383
6.03453
6.03183
6.04062
6.03226
6.05363
6.0358
6.0786
6.04273
6.12649
6.0483
6.22313
6.0007
6.29312
7.10894
6.42159
7.94783
6.78063
9.89661
9.12591
9.00805
8.98372
8.97848
17.0089
9.75152
11.332
8.7762
9.54682
8.26983
8.67358
7.92513
8.16432
7.68486
7.8319
7.56403
7.67618
7.36879
7.48091
7.18857
7.29387
7.02531
7.12145
6.87886
6.96525
6.74886
6.82562
6.63457
6.70232
6.5345
6.59514
6.44586
6.50819
6.37034
6.25632
6.3042
6.21575
6.24647
6.17753
6.2012
6.14584
6.16485
6.11985
6.1353
6.09861
6.11119
6.08131
6.09152
6.06736
6.07553
6.05641
6.06269
6.0484
6.05274
6.04448
6.04773
6.03909
6.04191
6.03524
6.03714
6.03348
6.034
6.03452
6.03307
6.03963
6.03516
6.05113
6.04158
6.07355
6.05425
6.11668
6.07389
6.20334
6.07611
6.35161
6.99363
6.62345
7.76513
7.15807
9.50324
9.09975
9.00426
8.98291
8.97822
16.0596
10.5139
11.0997
9.10708
9.42592
8.43274
8.5994
8.01811
8.11586
7.74396
7.8043
7.59563
7.64147
7.40344
7.4484
7.22188
7.26418
7.05607
7.09472
6.90672
6.94147
6.77377
6.80465
6.65658
6.68387
6.55379
6.57836
6.46255
6.48871
6.37315
6.2747
6.29525
6.22656
6.23913
6.18568
6.19525
6.15233
6.16
6.12512
6.13135
6.1029
6.10797
6.08481
6.08892
6.0702
6.07349
6.05867
6.06119
6.05012
6.05188
6.04546
6.04678
6.04009
6.04122
6.03605
6.0368
6.03397
6.03417
6.03458
6.03397
6.03907
6.03723
6.04964
6.0457
6.07055
6.06249
6.11107
6.09257
6.1938
6.13542
6.39545
6.91881
6.76484
7.65241
7.41744
9.21985
9.06131
8.99755
8.98147
8.97782
15.3321
11.0309
10.9707
9.34549
9.3575
8.54925
8.55514
8.08394
8.08619
7.78576
7.78747
7.61705
7.61812
7.42678
7.42675
7.24445
7.24452
7.07696
7.07706
6.92568
6.92579
6.79073
6.79085
6.67159
6.67172
6.56689
6.56721
6.47356
6.4749
6.37527
6.28831
6.28988
6.23413
6.23444
6.1913
6.19139
6.15679
6.15685
6.12874
6.12878
6.10585
6.10588
6.08722
6.08724
6.07216
6.07217
6.06024
6.06024
6.05133
6.05136
6.04613
6.04615
6.04078
6.04077
6.03662
6.03661
6.03435
6.03433
6.03468
6.03465
6.0388
6.03873
6.04881
6.04867
6.06886
6.06846
6.10815
6.10646
6.19065
6.18198
6.42874
6.87109
6.86457
7.58459
7.59532
9.01491
9.01908
8.98893
8.97954
8.97727
14.7767
11.3784
10.9042
9.51842
9.3219
8.6332
8.52996
8.13082
8.06862
7.81548
7.77751
7.63162
7.60245
7.44246
7.41239
7.25972
7.23155
7.09114
7.06546
6.93857
6.91551
6.80229
6.78182
6.68181
6.66377
6.57579
6.55981
6.48077
6.46513
6.37689
6.29838
6.2868
6.23945
6.23148
6.19519
6.18893
6.15988
6.15483
6.13123
6.12712
6.10789
6.10454
6.08888
6.08616
6.07351
6.07133
6.06132
6.05965
6.05219
6.05105
6.04659
6.04573
6.04125
6.04049
6.03703
6.03651
6.03463
6.03448
6.0348
6.03516
6.03869
6.03983
6.04838
6.05082
6.068
6.07283
6.10688
6.11692
6.19122
6.21833
6.45422
6.84131
6.93524
7.54513
7.71684
8.86658
8.97823
8.97948
8.97732
8.97664
14.3572
11.6088
10.8742
9.64378
9.30598
8.69373
8.51662
8.16423
8.05869
7.8366
7.77187
7.64151
7.59202
7.45294
7.40293
7.27
7.22308
7.10073
7.05791
6.94731
6.90884
6.81014
6.77597
6.68876
6.65861
6.58181
6.55493
6.48544
6.45827
6.37811
6.30577
6.28515
6.2432
6.22966
6.19788
6.18738
6.162
6.15355
6.13295
6.12608
6.10929
6.10369
6.09002
6.08548
6.07444
6.07081
6.06208
6.05928
6.05279
6.05086
6.0469
6.04546
6.04158
6.04032
6.03732
6.03647
6.03484
6.0346
6.03491
6.03554
6.03867
6.04063
6.0482
6.05238
6.06763
6.07603
6.10658
6.12481
6.19367
6.24632
6.47364
6.82327
6.98527
7.52321
7.79925
8.75978
8.94179
8.97017
8.97505
8.97597
14.0476
11.7588
10.864
9.73343
9.30104
8.73686
8.51029
8.18776
8.05342
7.85142
7.76886
7.64817
7.58518
7.45986
7.39679
7.27685
7.21762
7.10714
7.05307
6.95316
6.90457
6.8154
6.77223
6.69342
6.65532
6.58583
6.55175
6.48841
6.45352
6.37902
6.31109
6.28435
6.24582
6.22856
6.19972
6.18642
6.16344
6.15275
6.13411
6.12542
6.11024
6.10316
6.0908
6.08506
6.07507
6.07048
6.0626
6.05907
6.0532
6.05076
6.04711
6.04529
6.0418
6.04021
6.03752
6.03645
6.035
6.03471
6.03501
6.03583
6.0387
6.04121
6.04815
6.0535
6.06753
6.07835
6.10676
6.13068
6.19677
6.26733
6.48818
6.81273
7.02026
7.51176
7.85427
8.68412
8.91149
8.9618
8.97293
8.97534
13.8296
11.8529
10.8633
9.79515
9.30136
8.76648
8.5078
8.20376
8.05085
7.86145
7.76737
7.65252
7.58082
7.46429
7.39292
7.28127
7.21421
7.11129
7.05006
6.95696
6.90193
6.81882
6.76993
6.69646
6.65329
6.58844
6.54974
6.49025
6.45035
6.37967
6.31477
6.28402
6.24758
6.22793
6.20094
6.18585
6.16439
6.15227
6.13488
6.12503
6.11086
6.10284
6.09131
6.0848
6.07549
6.07029
6.06294
6.05894
6.05348
6.05071
6.04726
6.04518
6.04195
6.04015
6.03765
6.03645
6.03512
6.03479
6.0351
6.03603
6.03875
6.04161
6.04816
6.05428
6.06756
6.07996
6.10713
6.13485
6.19969
6.28233
6.49856
6.80688
7.0439
7.50627
7.8898
8.63256
8.88828
8.955
8.97116
8.97482
13.6907
11.9076
10.8657
9.83389
9.30333
8.78505
8.50711
8.21371
8.04975
7.86768
7.76671
7.65514
7.57826
7.46692
7.39066
7.2839
7.21224
7.11377
7.04832
6.95924
6.90041
6.82088
6.76861
6.69828
6.65212
6.58999
6.54857
6.49131
6.44842
6.38009
6.31708
6.28392
6.24866
6.22759
6.20168
6.18553
6.16497
6.15201
6.13535
6.12481
6.11124
6.10266
6.09162
6.08466
6.07575
6.07019
6.06315
6.05888
6.05366
6.05069
6.04734
6.04512
6.04204
6.04012
6.03774
6.03645
6.03519
6.03484
6.03515
6.03615
6.03879
6.04187
6.04819
6.05477
6.06763
6.08098
6.10747
6.13754
6.20189
6.29199
6.50527
6.80387
7.05852
7.50394
7.91096
8.60048
8.87263
8.95022
8.9699
8.97443
13.6231
11.9326
10.8677
9.85259
9.30481
8.794
8.50705
8.21849
8.04937
7.87066
7.76648
7.65637
7.57707
7.46813
7.38962
7.28513
7.21133
7.11493
7.04753
6.96031
6.89972
6.82184
6.76801
6.69913
6.65158
6.59072
6.54803
6.49179
6.4475
6.3803
6.31819
6.2839
6.24918
6.22744
6.20204
6.18539
6.16524
6.15189
6.13557
6.12472
6.11142
6.10258
6.09176
6.0846
6.07587
6.07014
6.06325
6.05885
6.05374
6.05068
6.04738
6.04509
6.04208
6.0401
6.03778
6.03646
6.03522
6.03487
6.03518
6.03622
6.03881
6.04199
6.04822
6.055
6.06767
6.08148
6.10767
6.13886
6.20307
6.29672
6.50855
6.80262
7.06551
7.50314
7.92083
8.58509
8.86476
8.94776
8.96924
8.97423
-13.7632
-11.9577
-10.7286
-9.38945
-8.57904
-7.6872
-7.12525
-6.47337
-6.05834
-5.57624
-5.28279
-4.95714
-4.7195
-4.39095
-4.15525
-3.8435
-3.62563
-3.34438
-3.15009
-2.9019
-2.73131
-2.5144
-2.36556
-2.17653
-2.04648
-1.88047
-1.76388
-1.60983
-1.48736
-1.29962
-1.12383
-1.02517
-0.922775
-0.857403
-0.779251
-0.727096
-0.662568
-0.619012
-0.564617
-0.527779
-0.481648
-0.450398
-0.411271
-0.384827
-0.35183
-0.329702
-0.302385
-0.284481
-0.263068
-0.249852
-0.234949
-0.223973
-0.208684
-0.197667
-0.183038
-0.172788
-0.159523
-0.150349
-0.13862
-0.130572
-0.120369
-0.11345
-0.104816
-0.0991971
-0.092632
-0.0892743
-0.0872283
-0.0906671
-0.104915
-0.138822
-0.228888
-0.374965
-0.529518
-0.815961
-1.1186
-1.6277
-1.84306
-1.90705
-1.92362
-1.92747
-13.8354
-11.9346
-10.733
-9.3683
-8.5823
-7.67401
-7.12885
-6.4639
-6.06102
-5.5687
-5.28408
-4.95362
-4.72314
-4.38724
-4.15829
-3.83975
-3.62817
-3.34091
-3.15225
-2.8988
-2.73316
-2.51168
-2.36718
-2.17418
-2.04792
-1.8785
-1.76538
-1.60857
-1.48997
-1.29914
-1.12074
-1.02532
-0.921297
-0.857917
-0.778214
-0.727593
-0.661731
-0.619447
-0.563917
-0.528152
-0.481055
-0.450714
-0.410766
-0.385091
-0.351397
-0.329911
-0.30201
-0.284623
-0.262741
-0.24992
-0.234793
-0.224147
-0.208514
-0.197813
-0.182864
-0.172909
-0.15936
-0.150452
-0.138474
-0.130659
-0.120239
-0.113519
-0.104697
-0.0992357
-0.0925044
-0.0892225
-0.0870095
-0.0902354
-0.104129
-0.136576
-0.226648
-0.374626
-0.524242
-0.815313
-1.11034
-1.63944
-1.84911
-1.90895
-1.92413
-1.92763
-13.9836
-11.8836
-10.744
-9.32401
-8.59046
-7.6463
-7.13725
-6.44396
-6.06729
-5.55285
-5.28721
-4.94611
-4.73101
-4.37926
-4.16493
-3.83172
-3.63375
-3.3335
-3.15701
-2.89219
-2.73726
-2.50589
-2.37073
-2.16915
-2.05109
-1.87428
-1.76863
-1.60578
-1.49548
-1.29817
-1.11434
-1.02582
-0.918195
-0.859086
-0.776016
-0.728702
-0.659954
-0.620415
-0.562428
-0.528981
-0.479794
-0.451417
-0.409691
-0.385677
-0.350477
-0.330378
-0.301216
-0.284946
-0.262053
-0.250083
-0.23446
-0.224521
-0.208148
-0.19813
-0.182491
-0.173176
-0.159013
-0.150679
-0.138162
-0.130851
-0.119961
-0.113673
-0.104443
-0.0993259
-0.0922395
-0.0891286
-0.0865739
-0.0893776
-0.102602
-0.132025
-0.222092
-0.374222
-0.513309
-0.814507
-1.09272
-1.66397
-1.86116
-1.91263
-1.9251
-1.92792
-14.2159
-11.7942
-10.7662
-9.25227
-8.60705
-7.60119
-7.15303
-6.41135
-6.07908
-5.52706
-5.29336
-4.93356
-4.74434
-4.36579
-4.17632
-3.81829
-3.64341
-3.32114
-3.1653
-2.88119
-2.74442
-2.49625
-2.37695
-2.1608
-2.05662
-1.86722
-1.77418
-1.6009
-1.50447
-1.29667
-1.10414
-1.02708
-0.913156
-0.861217
-0.77239
-0.730671
-0.657011
-0.622123
-0.55996
-0.530442
-0.477702
-0.452656
-0.40791
-0.386712
-0.348955
-0.33121
-0.299908
-0.285535
-0.26093
-0.250393
-0.2339
-0.225154
-0.20753
-0.198673
-0.181866
-0.173638
-0.158434
-0.151075
-0.137642
-0.131187
-0.1195
-0.113946
-0.104026
-0.0994956
-0.0918165
-0.0890133
-0.0859246
-0.0881036
-0.100427
-0.12505
-0.215054
-0.37434
-0.495891
-0.81462
-1.06338
-1.70346
-1.87903
-1.91788
-1.92646
-1.92833
-14.5451
-11.649
-10.8078
-9.14578
-8.63807
-7.53377
-7.18055
-6.36237
-6.09966
-5.48854
-5.30457
-4.9142
-4.76525
-4.34476
-4.19446
-3.79754
-3.65898
-3.30213
-3.17873
-2.8643
-2.75604
-2.48146
-2.38704
-2.14796
-2.06556
-1.8563
-1.78293
-1.59294
-1.51792
-1.29456
-1.08931
-1.02983
-0.905641
-0.864826
-0.766882
-0.733921
-0.652519
-0.624924
-0.556188
-0.532834
-0.474504
-0.454686
-0.405188
-0.388412
-0.346635
-0.332585
-0.297924
-0.286535
-0.259246
-0.250942
-0.233032
-0.226144
-0.206561
-0.199535
-0.1809
-0.174379
-0.157542
-0.151714
-0.136845
-0.131734
-0.118795
-0.114395
-0.103394
-0.0997921
-0.0911992
-0.0889101
-0.0850653
-0.0864245
-0.097761
-0.115459
-0.205245
-0.375967
-0.470586
-0.817532
-1.01838
-1.76153
-1.90238
-1.92433
-1.92809
-1.92881
-14.99
-11.4216
-10.8822
-8.99313
-8.69296
-7.43632
-7.22667
-6.29118
-6.13418
-5.43294
-5.32403
-4.88519
-4.79703
-4.31293
-4.22247
-3.76646
-3.68329
-3.27378
-3.19981
-2.83917
-2.77431
-2.45947
-2.40293
-2.12887
-2.07958
-1.83996
-1.79636
-1.58039
-1.53731
-1.29173
-1.06866
-1.03516
-0.894793
-0.870723
-0.758778
-0.73911
-0.645878
-0.629374
-0.550604
-0.536627
-0.469768
-0.457904
-0.40116
-0.391114
-0.343207
-0.334786
-0.295011
-0.288173
-0.256804
-0.251878
-0.231724
-0.227643
-0.205092
-0.200862
-0.17945
-0.175535
-0.156211
-0.152716
-0.135659
-0.132595
-0.117749
-0.115108
-0.102467
-0.100289
-0.0903305
-0.0888699
-0.0839986
-0.0843469
-0.0948411
-0.102986
-0.1922
-0.380639
-0.435188
-0.826288
-0.951692
-1.84369
-1.93048
-1.93151
-1.92984
-1.92932
-15.5778
-11.0731
-11.0106
-8.77693
-8.78611
-7.297
-7.30183
-6.18886
-6.19048
-5.35366
-5.3567
-4.84215
-4.84465
-4.26535
-4.26511
-3.72048
-3.72065
-3.23202
-3.23236
-2.80221
-2.80259
-2.42715
-2.42752
-2.10079
-2.10121
-1.81578
-1.81669
-1.56093
-1.56479
-1.288
-1.04043
-1.04478
-0.879297
-0.880137
-0.746986
-0.747245
-0.636169
-0.636316
-0.54243
-0.542537
-0.462834
-0.462919
-0.395266
-0.395331
-0.338201
-0.338244
-0.290782
-0.290794
-0.253306
-0.253424
-0.229775
-0.229882
-0.202892
-0.202878
-0.177302
-0.177308
-0.154247
-0.154262
-0.133914
-0.133928
-0.116216
-0.116223
-0.101123
-0.101098
-0.0891226
-0.0889669
-0.0827238
-0.0818642
-0.0920157
-0.0872702
-0.175185
-0.390667
-0.386329
-0.845671
-0.854339
-1.95806
-1.96201
-1.93879
-1.93155
-1.9298
-16.3457
-10.5469
-11.2259
-8.47102
-8.93919
-7.09792
-7.42171
-6.04196
-6.28032
-5.24078
-5.41008
-4.77844
-4.91555
-4.19462
-4.32953
-3.6527
-3.77757
-3.1707
-3.28213
-2.74804
-2.84591
-2.3798
-2.4652
-2.05962
-2.13429
-1.78014
-1.84728
-1.53109
-1.60351
-1.2831
-1.00213
-1.06119
-0.85715
-0.894914
-0.729859
-0.759835
-0.622014
-0.647022
-0.530498
-0.551642
-0.452711
-0.470646
-0.386665
-0.401839
-0.33091
-0.343603
-0.284656
-0.294916
-0.248304
-0.255922
-0.226876
-0.233206
-0.199614
-0.205918
-0.174131
-0.180005
-0.151362
-0.156623
-0.131355
-0.135971
-0.113976
-0.117942
-0.0991762
-0.102386
-0.0874428
-0.0893081
-0.0812343
-0.0789417
-0.0897868
-0.0678488
-0.153069
-0.409488
-0.318922
-0.883082
-0.713185
-2.11642
-1.99462
-1.94544
-1.93303
-1.93022
-17.3456
-9.7616
-11.5786
-8.03619
-9.18466
-6.81224
-7.60974
-5.83033
-6.42128
-5.07955
-5.4955
-4.68398
-5.02078
-4.08966
-4.42643
-3.55286
-3.86377
-3.08065
-3.35773
-2.66859
-2.91179
-2.31039
-2.52253
-1.99925
-2.18452
-1.72766
-1.89321
-1.48571
-1.65795
-1.27663
-0.950224
-1.08812
-0.825334
-0.917807
-0.704934
-0.77914
-0.601349
-0.663392
-0.513061
-0.565552
-0.437915
-0.482451
-0.374099
-0.411792
-0.320276
-0.351829
-0.275763
-0.301315
-0.241136
-0.259887
-0.222564
-0.238129
-0.194741
-0.210483
-0.169455
-0.184084
-0.147122
-0.160207
-0.127602
-0.139079
-0.110697
-0.120571
-0.0963513
-0.104401
-0.0850913
-0.0900476
-0.0795143
-0.0754943
-0.0888699
-0.0441416
-0.124104
-0.442188
-0.225326
-0.949855
-0.509105
-2.33578
-2.02433
-1.95062
-1.93414
-1.93052
-18.6491
-8.60056
-12.1459
-7.41404
-9.57129
-6.40009
-7.90116
-5.52422
-6.63987
-4.84834
-5.63034
-4.5439
-5.17704
-3.93429
-4.57205
-3.40595
-3.99403
-2.94849
-3.47227
-2.55213
-3.01173
-2.20872
-2.60954
-1.91079
-2.26068
-1.65053
-1.96231
-1.41736
-1.73475
-1.26817
-0.879936
-1.13127
-0.77948
-0.953086
-0.668685
-0.808684
-0.571236
-0.688404
-0.487647
-0.586803
-0.416356
-0.500496
-0.355806
-0.427027
-0.304823
-0.364465
-0.262901
-0.311238
-0.230898
-0.266185
-0.216221
-0.245493
-0.18758
-0.217397
-0.162625
-0.190298
-0.140946
-0.165684
-0.122146
-0.143843
-0.105945
-0.124621
-0.0922867
-0.107561
-0.0818158
-0.0914533
-0.0775756
-0.0713931
-0.0903131
-0.0154828
-0.0856411
-0.496297
-0.0940865
-1.06323
-0.214321
-2.64063
-2.0445
-1.95347
-1.93469
-1.93065
18.6491
8.60056
12.1459
7.41404
9.57129
6.40009
7.90116
5.52422
6.63987
4.84834
5.63034
4.5439
5.17703
3.93429
4.57205
3.40595
3.99403
2.94849
3.47227
2.55213
3.01173
2.20872
2.60954
1.91079
2.26068
1.65053
1.96231
1.41736
1.73475
1.26817
0.879935
1.13127
0.779479
0.953085
0.668684
0.808684
0.571235
0.688403
0.487646
0.586802
0.416355
0.500496
0.355805
0.427027
0.304822
0.364464
0.2629
0.311238
0.230897
0.266185
0.216221
0.245493
0.18758
0.217397
0.162625
0.190298
0.140946
0.165684
0.122146
0.143843
0.105944
0.124621
0.0922865
0.107561
0.0818156
0.0914533
0.0775754
0.0713931
0.090313
0.0154829
0.0856409
0.496296
0.0940863
1.06323
0.214321
2.64063
2.0445
1.95347
1.93469
1.93065
17.3456
9.7616
11.5786
8.03619
9.18467
6.81225
7.60974
5.83034
6.42128
5.07956
5.4955
4.68398
5.02078
4.08966
4.42643
3.55287
3.86377
3.08066
3.35773
2.66859
2.91179
2.3104
2.52253
1.99925
2.18452
1.72767
1.89322
1.48571
1.65795
1.27663
0.950225
1.08812
0.825335
0.917809
0.704936
0.779142
0.60135
0.663394
0.513063
0.565554
0.437916
0.482453
0.3741
0.411793
0.320277
0.35183
0.275764
0.301316
0.241136
0.259888
0.222565
0.23813
0.194741
0.210484
0.169456
0.184085
0.147123
0.160207
0.127602
0.13908
0.110698
0.120572
0.0963519
0.104401
0.0850918
0.0900482
0.0795148
0.0754949
0.0888703
0.044142
0.124105
0.442188
0.225327
0.949854
0.509105
2.33577
2.02433
1.95061
1.93413
1.93052
16.3457
10.5469
11.2259
8.47103
8.9392
7.09793
7.42172
6.04196
6.28033
5.24079
5.41009
4.77844
4.91556
4.19462
4.32954
3.65271
3.77758
3.17071
3.28214
2.74804
2.84591
2.37981
2.46521
2.05963
2.13429
1.78015
1.84729
1.5311
1.60352
1.2831
1.00213
1.06119
0.857153
0.894918
0.729863
0.759839
0.622017
0.647026
0.530501
0.551645
0.452714
0.470649
0.386667
0.401841
0.330912
0.343605
0.284658
0.294918
0.248306
0.255924
0.226878
0.233208
0.199615
0.20592
0.174133
0.180007
0.151364
0.156625
0.131356
0.135972
0.113977
0.117943
0.0991774
0.102387
0.0874439
0.0893092
0.0812353
0.0789427
0.0897877
0.0678496
0.153069
0.409488
0.318922
0.883082
0.713184
2.11641
1.99462
1.94544
1.93303
1.93022
15.5778
11.0731
11.0106
8.77694
8.78612
7.29701
7.30184
6.18887
6.19049
5.35366
5.35671
4.84216
4.84466
4.26536
4.26512
3.72049
3.72066
3.23202
3.23237
2.80222
2.8026
2.42715
2.42753
2.10079
2.10122
1.81578
1.81669
1.56094
1.5648
1.288
1.04044
1.04478
0.879301
0.880142
0.74699
0.747249
0.636173
0.63632
0.542433
0.542541
0.462837
0.462922
0.395269
0.395334
0.338204
0.338246
0.290785
0.290796
0.253308
0.253426
0.229777
0.229884
0.202894
0.20288
0.177304
0.17731
0.154249
0.154264
0.133915
0.133929
0.116218
0.116224
0.101124
0.1011
0.089124
0.0889682
0.082725
0.0818654
0.0920168
0.0872712
0.175186
0.390667
0.386329
0.845671
0.854339
1.95806
1.962
1.93879
1.93155
1.9298
14.99
11.4216
10.8822
8.99314
8.69296
7.43633
7.22668
6.29119
6.13419
5.43295
5.32404
4.8852
4.79704
4.31293
4.22248
3.76647
3.6833
3.27379
3.19982
2.83918
2.77432
2.45947
2.40294
2.12888
2.07958
1.83997
1.79637
1.5804
1.53731
1.29173
1.06867
1.03517
0.894798
0.870727
0.758783
0.739114
0.645882
0.629378
0.550607
0.53663
0.469771
0.457907
0.401163
0.391117
0.34321
0.334789
0.295014
0.288176
0.256807
0.25188
0.231726
0.227645
0.205095
0.200864
0.179452
0.175537
0.156213
0.152718
0.135661
0.132597
0.117751
0.11511
0.102469
0.100291
0.0903319
0.0888713
0.0839999
0.0843482
0.0948422
0.102987
0.192201
0.38064
0.435189
0.826288
0.951692
1.84369
1.93047
1.93151
1.92984
1.92931
14.5451
11.649
10.8078
9.14579
8.63808
7.53378
7.18056
6.36238
6.09967
5.48855
5.30458
4.91421
4.76526
4.34477
4.19447
3.79755
3.65899
3.30213
3.17874
2.86431
2.75604
2.48147
2.38705
2.14797
2.06557
1.85631
1.78294
1.59295
1.51793
1.29456
1.08932
1.02983
0.905646
0.864831
0.766887
0.733925
0.652523
0.624928
0.556192
0.532837
0.474508
0.454689
0.405192
0.388415
0.346638
0.332588
0.297927
0.286538
0.259249
0.250945
0.233034
0.226147
0.206564
0.199537
0.180902
0.174382
0.157544
0.151716
0.136847
0.131736
0.118797
0.114397
0.103396
0.0997937
0.0912006
0.0889115
0.0850667
0.0864257
0.0977622
0.11546
0.205246
0.375968
0.470587
0.817532
1.01838
1.76153
1.90238
1.92433
1.92809
1.92881
14.2159
11.7942
10.7662
9.25228
8.60706
7.6012
7.15304
6.41136
6.07909
5.52707
5.29337
4.93357
4.74435
4.3658
4.17633
3.8183
3.64342
3.32115
3.16531
2.8812
2.74443
2.49625
2.37696
2.1608
2.05663
1.86722
1.77418
1.6009
1.50448
1.29668
1.10414
1.02709
0.913161
0.861222
0.772394
0.730675
0.657015
0.622127
0.559964
0.530446
0.477705
0.45266
0.407913
0.386715
0.348958
0.331212
0.29991
0.285538
0.260933
0.250395
0.233902
0.225157
0.207532
0.198675
0.181868
0.17364
0.158436
0.151077
0.137644
0.131189
0.119502
0.113948
0.104028
0.0994972
0.091818
0.0890147
0.085926
0.0881049
0.100428
0.125051
0.215055
0.374341
0.495892
0.81462
1.06338
1.70346
1.87903
1.91787
1.92646
1.92833
13.9836
11.8836
10.744
9.32402
8.59047
7.64631
7.13726
6.44397
6.0673
5.55286
5.28722
4.94612
4.73101
4.37927
4.16494
3.83173
3.63375
3.3335
3.15702
2.8922
2.73727
2.50589
2.37074
2.16916
2.0511
1.87429
1.76864
1.60579
1.49549
1.29818
1.11435
1.02582
0.9182
0.859091
0.77602
0.728706
0.659958
0.620419
0.562432
0.528985
0.479797
0.451421
0.409694
0.38568
0.35048
0.330381
0.301219
0.284948
0.262056
0.250085
0.234462
0.224524
0.20815
0.198132
0.182493
0.173178
0.159015
0.150681
0.138164
0.130853
0.119963
0.113675
0.104445
0.0993274
0.092241
0.08913
0.0865752
0.0893788
0.102603
0.132026
0.222093
0.374223
0.51331
0.814507
1.09272
1.66397
1.86116
1.91263
1.9251
1.92792
13.8354
11.9346
10.7331
9.36831
8.58231
7.67402
7.12886
6.46391
6.06103
5.5687
5.28409
4.95363
4.72315
4.38725
4.1583
3.83976
3.62818
3.34092
3.15226
2.8988
2.73317
2.51169
2.36718
2.17418
2.04793
1.87851
1.76539
1.60857
1.48998
1.29915
1.12075
1.02532
0.921301
0.857921
0.778218
0.727597
0.661735
0.619451
0.56392
0.528155
0.481058
0.450717
0.410769
0.385094
0.3514
0.329914
0.302012
0.284625
0.262743
0.249923
0.234796
0.224149
0.208516
0.197815
0.182866
0.172911
0.159362
0.150454
0.138475
0.130661
0.12024
0.113521
0.104698
0.0992371
0.0925058
0.0892238
0.0870108
0.0902366
0.10413
0.136577
0.226649
0.374627
0.524243
0.815314
1.11034
1.63944
1.84911
1.90895
1.92413
1.92763
13.7632
11.9577
10.7286
9.38946
8.57905
7.68721
7.12526
6.47338
6.05834
5.57624
5.28279
4.95714
4.71951
4.39096
4.15525
3.84351
3.62564
3.34439
3.1501
2.9019
2.73131
2.51441
2.36557
2.17654
2.04649
1.88048
1.76388
1.60983
1.48736
1.29962
1.12383
1.02517
0.922779
0.857407
0.779255
0.727099
0.662572
0.619015
0.56462
0.527782
0.481651
0.4504
0.411274
0.38483
0.351833
0.329704
0.302387
0.284483
0.26307
0.249854
0.234951
0.223975
0.208686
0.197669
0.18304
0.17279
0.159525
0.150351
0.138622
0.130573
0.120371
0.113451
0.104818
0.0991985
0.0926333
0.0892755
0.0872295
0.0906683
0.104916
0.138823
0.228889
0.374966
0.529519
0.815962
1.1186
1.6277
1.84306
1.90705
1.92362
1.92747
-13.6266
-11.9376
-10.8745
-9.86312
-9.3195
-8.81667
-8.53881
-8.26765
-8.1171
-7.96834
-7.86575
-7.72994
-7.63425
-7.50957
-7.42258
-7.31025
-7.23212
-7.13149
-7.06167
-6.97196
-6.9099
-6.83044
-6.77564
-6.70569
-6.65747
-6.59584
-6.55265
-6.4958
-6.45107
-6.38323
-6.32056
-6.28598
-6.25097
-6.22906
-6.20345
-6.18668
-6.16638
-6.15293
-6.13648
-6.12555
-6.11216
-6.10326
-6.09237
-6.08515
-6.07636
-6.07059
-6.06366
-6.05922
-6.05407
-6.05099
-6.04767
-6.04536
-6.04232
-6.04033
-6.03799
-6.03665
-6.0354
-6.03503
-6.03533
-6.03635
-6.03893
-6.0421
-6.04832
-6.05509
-6.06775
-6.08155
-6.10774
-6.13893
-6.20313
-6.29677
-6.5086
-6.80266
-7.06554
-7.50317
-7.92085
-8.58512
-8.86478
-8.94778
-8.96926
-8.97426
-13.6941
-11.9125
-10.8725
-9.8444
-9.31787
-8.80767
-8.53854
-8.26282
-8.11703
-7.96649
-7.86708
-7.72834
-7.63541
-7.50806
-7.4236
-7.30888
-7.23302
-7.13026
-7.06246
-6.97085
-6.9106
-6.82945
-6.77625
-6.70482
-6.65801
-6.5951
-6.55319
-6.49531
-6.45199
-6.38302
-6.31944
-6.286
-6.25045
-6.2292
-6.2031
-6.18682
-6.1661
-6.15305
-6.13626
-6.12565
-6.11198
-6.10334
-6.09222
-6.08522
-6.07624
-6.07064
-6.06355
-6.05925
-6.05399
-6.051
-6.04763
-6.04539
-6.04228
-6.04035
-6.03795
-6.03665
-6.03536
-6.035
-6.0353
-6.03629
-6.03891
-6.04198
-6.04829
-6.05486
-6.06771
-6.08106
-6.10754
-6.13761
-6.20195
-6.29204
-6.50531
-6.8039
-7.05855
-7.50397
-7.91099
-8.6005
-8.87265
-8.95024
-8.96992
-8.97446
-13.8329
-11.8578
-10.8699
-9.80563
-9.31559
-8.78903
-8.53854
-8.2528
-8.11714
-7.9626
-7.86998
-7.7249
-7.63795
-7.50483
-7.42582
-7.30595
-7.23499
-7.12762
-7.06421
-6.96849
-6.91213
-6.82735
-6.77758
-6.70297
-6.65919
-6.59352
-6.55438
-6.49424
-6.45394
-6.3826
-6.31711
-6.2861
-6.24935
-6.22955
-6.20235
-6.18714
-6.16552
-6.15331
-6.13579
-6.12587
-6.1116
-6.10352
-6.09191
-6.08536
-6.07598
-6.07074
-6.06334
-6.05931
-6.05382
-6.05103
-6.04754
-6.04545
-6.04219
-6.04038
-6.03786
-6.03664
-6.03529
-6.03495
-6.03524
-6.03616
-6.03887
-6.04172
-6.04826
-6.05437
-6.06764
-6.08004
-6.1072
-6.13491
-6.19974
-6.28238
-6.49861
-6.80691
-7.04393
-7.5063
-7.88983
-8.63258
-8.8883
-8.95502
-8.97119
-8.97484
-14.0508
-11.7637
-10.8704
-9.74388
-9.31476
-8.75934
-8.53994
-8.23677
-8.11801
-7.95623
-7.87498
-7.71913
-7.64233
-7.49944
-7.42967
-7.30107
-7.23842
-7.12323
-7.06725
-6.96455
-6.91479
-6.82384
-6.77991
-6.69988
-6.66124
-6.59088
-6.5564
-6.49238
-6.45713
-6.38194
-6.3134
-6.28642
-6.24757
-6.23018
-6.20112
-6.18772
-6.16456
-6.15379
-6.13502
-6.12627
-6.11097
-6.10384
-6.09139
-6.08561
-6.07556
-6.07094
-6.063
-6.05944
-6.05353
-6.05108
-6.0474
-6.04556
-6.04205
-6.04044
-6.03772
-6.03664
-6.03517
-6.03487
-6.03516
-6.03596
-6.03882
-6.04132
-6.04825
-6.0536
-6.06761
-6.07842
-6.10683
-6.13074
-6.19682
-6.26738
-6.48822
-6.81277
-7.02029
-7.51179
-7.8543
-8.68414
-8.91151
-8.96182
-8.97295
-8.97537
-14.3601
-11.6137
-10.8803
-9.65424
-9.31899
-8.71621
-8.5447
-8.21337
-8.1206
-7.94663
-7.88296
-7.7102
-7.64935
-7.49113
-7.43588
-7.29355
-7.24395
-7.11647
-7.07215
-6.9585
-6.91911
-6.81845
-6.78368
-6.69513
-6.66457
-6.5868
-6.5596
-6.48937
-6.46192
-6.38101
-6.30803
-6.28723
-6.24494
-6.23129
-6.19926
-6.18868
-6.16311
-6.15459
-6.13384
-6.12692
-6.11001
-6.10437
-6.09061
-6.08604
-6.07492
-6.07126
-6.06247
-6.05966
-6.05311
-6.05118
-6.04719
-6.04573
-6.04182
-6.04055
-6.03752
-6.03666
-6.03501
-6.03476
-6.03505
-6.03568
-6.03879
-6.04075
-6.04829
-6.05248
-6.06771
-6.07611
-6.10664
-6.12487
-6.19372
-6.24638
-6.47369
-6.8233
-6.9853
-7.52324
-7.79927
-8.7598
-8.94181
-8.97019
-8.97507
-8.97599
-14.7792
-11.3833
-10.9098
-9.52896
-9.33391
-8.65583
-8.55584
-8.18042
-8.12644
-7.93263
-7.89531
-7.6968
-7.66027
-7.47869
-7.44557
-7.28232
-7.2526
-7.10639
-7.07983
-6.94947
-6.92587
-6.81043
-6.78959
-6.68807
-6.66978
-6.5807
-6.56453
-6.48464
-6.46885
-6.37977
-6.30057
-6.28889
-6.24116
-6.23312
-6.19655
-6.19024
-6.16097
-6.15588
-6.13212
-6.12798
-6.1086
-6.10523
-6.08946
-6.08672
-6.07398
-6.07179
-6.06171
-6.06002
-6.05251
-6.05136
-6.04687
-6.04601
-6.0415
-6.04072
-6.03723
-6.03671
-6.0348
-6.03464
-6.03494
-6.0353
-6.0388
-6.03994
-6.04847
-6.05091
-6.06808
-6.07291
-6.10695
-6.11699
-6.19127
-6.21838
-6.45426
-6.84135
-6.93527
-7.54516
-7.71687
-8.86661
-8.97825
-8.9795
-8.97734
-8.97666
-15.3342
-11.0359
-10.9756
-9.35625
-9.36816
-8.57232
-8.578
-8.13462
-8.13787
-7.91236
-7.9141
-7.67691
-7.67698
-7.46032
-7.46047
-7.26574
-7.26591
-7.09151
-7.09166
-6.93618
-6.93631
-6.79862
-6.79874
-6.67767
-6.67782
-6.57168
-6.572
-6.47735
-6.4787
-6.37813
-6.29041
-6.29199
-6.23579
-6.2361
-6.19263
-6.19272
-6.15787
-6.15792
-6.1296
-6.12964
-6.10656
-6.10658
-6.08779
-6.08781
-6.07262
-6.07263
-6.06062
-6.06062
-6.05165
-6.05168
-6.04641
-6.04643
-6.04102
-6.04101
-6.03682
-6.03681
-6.03451
-6.0345
-6.03482
-6.03479
-6.03891
-6.03885
-6.0489
-6.04876
-6.06894
-6.06854
-6.10822
-6.10653
-6.1907
-6.18203
-6.42878
-6.87112
-6.8646
-7.58461
-7.59535
-9.01493
-9.0191
-8.98895
-8.97956
-8.9773
-16.0612
-10.519
-11.1038
-9.11829
-9.43471
-8.45676
-8.61813
-8.07094
-8.15845
-7.883
-7.94245
-7.64754
-7.70237
-7.43327
-7.48316
-7.24137
-7.28619
-7.06965
-7.10971
-6.91665
-6.95225
-6.78129
-6.81273
-6.66243
-6.69011
-6.55841
-6.58327
-6.46622
-6.49264
-6.37598
-6.27667
-6.29741
-6.22816
-6.24083
-6.18696
-6.1966
-6.15336
-6.16109
-6.12596
-6.13223
-6.10358
-6.10869
-6.08536
-6.0895
-6.07065
-6.07396
-6.05904
-6.06158
-6.05043
-6.05221
-6.04573
-6.04706
-6.04032
-6.04146
-6.03625
-6.03701
-6.03413
-6.03434
-6.03471
-6.03411
-6.03918
-6.03735
-6.04973
-6.0458
-6.07062
-6.06257
-6.11114
-6.09263
-6.19385
-6.13547
-6.39549
-6.91884
-6.76487
-7.65243
-7.41747
-9.21988
-9.06133
-8.99757
-8.98149
-8.97784
-17.0098
-9.75705
-11.3348
-8.78826
-9.55304
-8.29562
-8.68659
-7.98188
-8.19355
-7.84024
-7.98497
-7.60417
-7.74071
-7.39346
-7.51752
-7.20554
-7.31693
-7.03753
-7.13708
-6.88798
-6.97646
-6.75587
-6.83399
-6.64007
-6.70877
-6.53887
-6.60021
-6.44935
-6.51229
-6.37313
-6.25813
-6.30642
-6.21726
-6.24822
-6.17875
-6.2026
-6.14682
-6.16597
-6.12065
-6.13622
-6.09926
-6.11193
-6.08184
-6.09212
-6.06779
-6.07602
-6.05676
-6.06309
-6.04869
-6.05306
-6.04474
-6.04802
-6.03931
-6.04216
-6.03543
-6.03735
-6.03363
-6.03418
-6.03465
-6.03321
-6.03973
-6.03528
-6.05122
-6.04168
-6.07362
-6.05433
-6.11674
-6.07395
-6.20339
-6.07617
-6.35165
-6.99366
-6.62348
-7.76516
-7.1581
-9.50326
-9.09977
-9.00428
-8.98293
-8.97824
-18.2484
-8.6418
-11.7307
-8.32571
-9.7522
-8.06848
-8.79883
-7.85611
-8.2512
-7.77751
-8.04845
-7.54006
-7.79836
-7.33475
-7.56926
-7.15272
-7.36325
-6.9902
-7.17835
-6.84576
-7.01298
-6.71846
-6.86609
-6.60715
-6.73693
-6.51004
-6.62561
-6.42388
-6.53999
-6.36928
-6.23303
-6.3209
-6.20151
-6.2596
-6.16679
-6.21175
-6.13726
-6.17341
-6.11289
-6.14228
-6.09293
-6.11687
-6.07668
-6.0961
-6.06362
-6.07915
-6.05345
-6.06541
-6.04619
-6.05442
-6.04328
-6.04945
-6.03783
-6.04324
-6.03426
-6.0379
-6.03295
-6.03401
-6.03465
-6.03198
-6.04071
-6.03238
-6.05371
-6.0359
-6.07867
-6.04282
-6.12654
-6.04837
-6.22318
-6.00076
-6.29316
-7.10897
-6.42163
-7.94785
-6.78066
-9.89663
-9.12593
-9.00807
-8.98374
-8.9785
)
;

boundaryField
{
    F1_1
    {
        type            calculated;
        value           nonuniform List<scalar> 
80
(
18.9506
7.97331
11.9791
8.04082
9.87579
7.90457
8.86782
7.71456
8.2887
7.55109
7.90312
7.48916
7.75833
7.28652
7.55868
7.10988
7.3652
6.95283
7.18581
6.8133
7.02262
6.69032
6.87624
6.58284
6.74686
6.48904
6.63532
6.40553
6.55168
6.36435
6.21711
6.32737
6.19089
6.26459
6.1586
6.21576
6.1307
6.17668
6.10756
6.14495
6.08858
6.11904
6.07314
6.09785
6.06075
6.08052
6.05116
6.06638
6.04444
6.05489
6.04215
6.04999
6.03673
6.04362
6.03339
6.03802
6.03242
6.03373
6.03455
6.03112
6.04124
6.03056
6.05519
6.03241
6.08174
6.036
6.13267
6.03347
6.23617
5.95847
6.25958
7.17871
6.30273
8.06044
6.55697
10.1255
9.13461
9.0091
8.98396
8.97858
)
;
    }
    F1_2
    {
        type            calculated;
        value           nonuniform List<scalar> 
80
(
-19.3872
-7.90897
-12.4949
-7.04742
-9.80722
-6.15646
-8.07803
-5.34312
-6.77257
-4.71204
-5.71276
-4.46026
-5.27045
-3.84162
-4.6595
-3.31851
-4.07242
-2.86991
-3.54127
-2.48292
-3.07197
-2.14831
-2.66199
-1.85824
-2.30659
-1.60465
-2.00384
-1.37636
-1.77975
-1.2634
-0.839516
-1.15777
-0.752405
-0.974478
-0.647217
-0.826559
-0.553393
-0.70353
-0.472589
-0.599655
-0.403585
-0.511414
-0.344974
-0.436251
-0.295682
-0.372126