/*--------------------------------*- C++ -*----------------------------------*\
| =========                 |                                                 |
| \\      /  F ield         | OpenFOAM: The Open Source CFD Toolbox           |
|  \\    /   O peration     | Version:  5.x                                   |
|   \\  /    A nd           | Web:      www.OpenFOAM.org                      |
|    \\/     M anipulation  |                                                 |
\*---------------------------------------------------------------------------*/
FoamFile
{
    version     2.0;
    format      ascii;
    class       volScalarField;
    location    "1.7";
    object      gradTx;
}
// * * * * * * * * * * * * * * * * * * * * * * * * * * * * * * * * * * * * * //

dimensions      [0 -1 0 1 0 0 0];

internalField   nonuniform List<scalar> 
3200
(
45.9971
3.56545
1.57372
1.46896
0.770057
0.728124
0.436316
0.417734
0.272136
0.261658
0.15705
0.153118
0.164835
0.16489
0.157002
0.156176
0.143996
0.142953
0.129995
0.128931
0.116319
0.115306
0.103579
0.102665
0.0923822
0.0916755
0.0845891
0.0847174
0.09093
0.158415
0.0797494
0.0535284
0.051744
0.039801
0.0389417
0.0307401
0.0301279
0.023724
0.0232415
0.018094
0.0177071
0.013585
0.0132763
0.0100037
0.00975802
0.0071449
0.0069453
0.00477982
0.00460488
0.00255041
0.00244501
0.0019858
0.00192099
0.000867625
0.000762178
-0.000710932
-0.000859225
-0.00292882
-0.00314591
-0.00625216
-0.00659372
-0.0116127
-0.0121975
-0.0210297
-0.0221573
-0.0397682
-0.0424183
-0.085321
-0.0942181
-0.239704
-0.618563
-0.436614
-0.681415
-0.712775
-1.26861
-1.243
-0.0558134
-0.00753171
-0.00152601
-52.9041
48.5961
2.98206
1.50671
1.29166
0.732277
0.642751
0.408338
0.368603
0.251941
0.229677
0.147493
0.139098
0.146909
0.146924
0.140781
0.13904
0.129432
0.127224
0.11697
0.114715
0.104729
0.102581
0.0932974
0.0913609
0.0832415
0.0817595
0.0763336
0.0767637
0.0844674
0.132064
0.0739933
0.0499723
0.0460029
0.0363291
0.0344884
0.0279567
0.0266553
0.0215724
0.0205483
0.0164659
0.015645
0.0123763
0.0117215
0.00912596
0.00860456
0.00653146
0.00610783
0.00438895
0.00401893
0.00240651
0.00218242
0.00179491
0.0016558
0.000821888
0.000598167
-0.000571346
-0.000886384
-0.0025319
-0.00299348
-0.00546614
-0.00619315
-0.0101952
-0.0114422
-0.0185092
-0.0209244
-0.0351291
-0.0408708
-0.0762236
-0.0960913
-0.227981
-0.518774
-0.415221
-0.601924
-0.666487
-1.08535
-1.03172
-0.121884
-0.0209041
-0.00438806
-54.7046
51.1788
2.47375
1.38929
1.12816
0.675709
0.563179
0.372577
0.322552
0.227974
0.200097
0.134986
0.124431
0.129297
0.129208
0.124386
0.122221
0.114574
0.111819
0.103628
0.100811
0.0928267
0.0901436
0.0827221
0.0803048
0.0738354
0.0720012
0.0678436
0.0685187
0.0764087
0.109938
0.0668753
0.0456147
0.0404906
0.0325447
0.0302237
0.0249652
0.0233351
0.0192597
0.0179787
0.0147086
0.0136822
0.0110642
0.0102454
0.00816623
0.00751417
0.00585289
0.00532299
0.00394475
0.00348326
0.00220747
0.00192675
0.00159448
0.00141878
0.000752103
0.000472343
-0.000465626
-0.000860017
-0.00218207
-0.00276037
-0.00474974
-0.00566137
-0.00888775
-0.0104541
-0.0161747
-0.0192199
-0.0308284
-0.0381389
-0.0677455
-0.0934835
-0.209902
-0.434759
-0.382218
-0.527319
-0.606028
-0.920984
-0.854689
-0.1556
-0.0308979
-0.0067336
-56.5049
53.7417
2.02863
1.23895
0.97231
0.60555
0.486734
0.331196
0.278287
0.201342
0.172008
0.120299
0.109149
0.111886
0.111682
0.107887
0.105624
0.0995226
0.096633
0.0900719
0.087115
0.0807133
0.0778963
0.0719472
0.0694112
0.0642439
0.0623359
0.0591599
0.0599849
0.0673242
0.0908764
0.0588853
0.0406119
0.0350916
0.0285361
0.0260773
0.0218295
0.0201137
0.0168363
0.0154897
0.0128628
0.011784
0.00968122
0.00882076
0.00715033
0.00646503
0.00512982
0.00457279
0.00346444
0.0029807
0.001969
0.00167348
0.00138813
0.00120176
0.000667163
0.000373161
-0.000381369
-0.000796272
-0.00186176
-0.00247058
-0.00407625
-0.00503683
-0.00764655
-0.00929959
-0.0139471
-0.0171728
-0.0266996
-0.034515
-0.059422
-0.0872483
-0.187486
-0.36184
-0.341308
-0.455369
-0.536117
-0.77187
-0.702968
-0.166341
-0.0368703
-0.00833342
-58.3051
56.284
1.63566
1.0677
0.820475
0.525478
0.411763
0.285713
0.234987
0.172807
0.144816
0.103992
0.0933136
0.0945938
0.094303
0.0913289
0.0891826
0.0843446
0.0815961
0.0763733
0.0735581
0.0684576
0.0657752
0.0610362
0.0586233
0.0545221
0.0527212
0.0503161
0.0511903
0.057591
0.0740361
0.0503467
0.0350994
0.0297344
0.0243643
0.0220032
0.0185935
0.0169558
0.0143367
0.013053
0.0109559
0.00992789
0.00824946
0.00742943
0.00609584
0.00544266
0.00437629
0.00384528
0.00295965
0.00249971
0.0017022
0.0014201
0.00117813
0.000998961
0.000572885
0.000292678
-0.000310448
-0.000706266
-0.00155951
-0.00214072
-0.00342841
-0.00434616
-0.00644349
-0.0080252
-0.0117763
-0.0148735
-0.0226391
-0.0302073
-0.0509817
-0.0781166
-0.162104
-0.296716
-0.295015
-0.38475
-0.460006
-0.634942
-0.569957
-0.160795
-0.0388055
-0.00906462
-60.105
58.8069
1.28475
0.88363
0.670557
0.438158
0.337289
0.237221
0.192146
0.142908
0.11814
0.0864803
0.0770013
0.0773664
0.0770326
0.0747396
0.0728504
0.0690846
0.0666597
0.0625798
0.0600939
0.056106
0.0537371
0.0500327
0.0479031
0.0447084
0.0431307
0.0413409
0.0421744
0.0474558
0.058801
0.0414704
0.0291919
0.0243779
0.0200727
0.0179717
0.0152874
0.0138379
0.0117846
0.0106497
0.0090072
0.0080986
0.00678418
0.00605941
0.00501483
0.00443748
0.00360192
0.00313249
0.00243828
0.00203261
0.00141508
0.00116539
0.000965883
0.000806303
0.000473018
0.000225349
-0.000247604
-0.000597758
-0.00126796
-0.00178243
-0.00279521
-0.00360818
-0.00526094
-0.00666394
-0.0096315
-0.0123873
-0.0185865
-0.0253713
-0.0422869
-0.0667107
-0.134698
-0.237044
-0.245063
-0.314711
-0.379908
-0.50761
-0.450712
-0.143763
-0.0370508
-0.00890237
-61.9046
61.3128
0.966791
0.692041
0.521418
0.345581
0.262786
0.18653
0.149475
0.112031
0.0917412
0.0680827
0.0602965
0.0601684
0.0598419
0.0581355
0.0565947
0.0537723
0.0517908
0.0487235
0.0466906
0.0436904
0.0417529
0.0389665
0.0372259
0.0348301
0.0335487
0.0322607
0.0329805
0.0370779
0.0447129
0.0323921
0.0229861
0.0190013
0.0156935
0.013964
0.0119325
0.0107448
0.0091964
0.00826744
0.00702984
0.00628624
0.00529597
0.00470283
0.00391572
0.00344319
0.00281339
0.00242913
0.00190572
0.00157432
0.00111348
0.000908888
0.000752257
0.000620811
0.000369931
0.000167227
-0.000189494
-0.000476279
-0.000982482
-0.00140408
-0.00216989
-0.00283649
-0.00408828
-0.00524001
-0.00749513
-0.00976342
-0.0145103
-0.0201301
-0.0332917
-0.0535621
-0.105917
-0.181145
-0.192646
-0.24485
-0.297309
-0.387662
-0.341469
-0.11872
-0.0321539
-0.00790447
-63.7039
63.805
0.673533
0.496291
0.372492
0.249286
0.188024
0.134274
0.106821
0.0804688
0.0654783
0.0490512
0.0432863
0.0429794
0.0427076
0.0415259
0.0403915
0.0384274
0.0369663
0.0348268
0.0333269
0.0312329
0.0298033
0.0278588
0.026575
0.0249072
0.0239669
0.0231
0.0236513
0.0265584
0.031423
0.0231972
0.0165636
0.013598
0.0112515
0.00996885
0.0085443
0.00766667
0.00658399
0.00589806
0.00503327
0.0044843
0.0037924
0.00335452
0.00280449
0.00245561
0.00201541
0.00173169
0.00136577
0.00112145
0.000801834
0.000650642
0.000537797
0.000440265
0.000265077
0.000115421
-0.000134041
-0.000345891
-0.000700275
-0.00101184
-0.00154844
-0.0020413
-0.00291955
-0.00377187
-0.00535818
-0.0070403
-0.0103993
-0.0145871
-0.0240121
-0.0391302
-0.0762204
-0.127794
-0.138602
-0.174978
-0.213195
-0.273176
-0.239287
-0.088231
-0.0247644
-0.00619386
-65.503
66.2871
0.397409
0.298406
0.223545
0.150515
0.112963
0.0809672
0.0641241
0.0484535
0.0392738
0.0295939
0.0260586
0.0257898
0.0256105
0.0249152
0.0242222
0.0230632
0.0221697
0.020905
0.0199874
0.0187492
0.0178745
0.0167249
0.0159397
0.0149552
0.0143821
0.0138826
0.0142278
0.0159605
0.0186567
0.0139387
0.00999452
0.00817001
0.00676715
0.00597969
0.00513462
0.00459711
0.00395611
0.00353624
0.00302447
0.00268848
0.00227905
0.00201104
0.00168553
0.001472
0.00121144
0.00103778
0.000821167
0.000671771
0.000483586
0.000390989
0.000322847
0.000262948
0.000159316
6.77168e-05
-7.9991e-05
-0.000209707
-0.000419696
-0.00061052
-0.000928673
-0.00123064
-0.00175181
-0.00227433
-0.00321736
-0.00425008
-0.006255
-0.00883464
-0.0145048
-0.0238193
-0.0459448
-0.0760743
-0.0835337
-0.105032
-0.128209
-0.162444
-0.141793
-0.0542378
-0.0155792
-0.00394173
-67.3019
68.763
0.131362
0.0995588
0.0745257
0.0503255
0.0376812
0.027055
0.0213809
0.0161793
0.0130897
0.00989136
0.00870065
0.0085971
0.00853456
0.00830498
0.008072
0.00768878
0.00738826
0.00696976
0.00666108
0.00625126
0.00595701
0.0055765
0.0053124
0.00498685
0.00479444
0.00463126
0.0047487
0.005324
0.00618689
0.0046493
0.00334074
0.0027253
0.00225839
0.00199301
0.00171284
0.00153193
0.00131962
0.00117834
0.00100888
0.000895833
0.000760262
0.000670088
0.000562302
0.000490453
0.000404168
0.000345731
0.000273995
0.000223753
0.000161599
0.000130433
0.000107642
8.74527e-05
5.31441e-05
2.23233e-05
-2.66003e-05
-7.02543e-05
-0.000139833
-0.000204062
-0.000309512
-0.000411165
-0.000583983
-0.000759941
-0.00107292
-0.00142095
-0.00208772
-0.00295851
-0.00485161
-0.00799588
-0.0153491
-0.0252612
-0.0279042
-0.0350194
-0.0427812
-0.0539071
-0.0469742
-0.0182887
-0.00531323
-0.00135209
-69.1006
68.8355
0.144388
0.122785
0.102603
0.0811001
0.0689729
0.0573353
0.0501395
0.0419451
0.0360659
0.0286665
0.0259153
0.0258321
0.0256055
0.0246656
0.0237212
0.0221821
0.0209951
0.0193709
0.0182012
0.0166877
0.0156279
0.0142932
0.0133832
0.0122784
0.0116039
0.010958
0.0110467
0.0121473
0.0139801
0.0104588
0.00750859
0.00614161
0.00513625
0.00457865
0.00400701
0.00364285
0.00322062
0.00293955
0.00260128
0.00237276
0.00209406
0.0019043
0.00167085
0.00150994
0.00130871
0.00116543
0.000979011
0.00083932
0.000657508
0.000583312
0.000564145
0.000545865
0.000506722
0.000472974
0.000422873
0.000385854
0.000336933
0.000301928
0.000256407
0.000221936
0.00017319
0.000127513
4.75885e-05
-5.56219e-05
-0.000278299
-0.000642187
-0.00153135
-0.0032314
-0.00742621
-0.0135503
-0.0168153
-0.0239894
-0.0316681
-0.042957
-0.0381914
-0.0149192
-0.00433863
-0.00110427
-69.777
66.5042
0.436392
0.368297
0.307864
0.242926
0.2069
0.171829
0.150459
0.125743
0.108259
0.0858142
0.0776397
0.0775025
0.0768455
0.0739975
0.0711878
0.0665327
0.0630034
0.0580951
0.0546179
0.0500452
0.0468952
0.0428629
0.0401578
0.0368182
0.034811
0.0328449
0.0331
0.036413
0.0421551
0.031354
0.0224628
0.0184107
0.0153911
0.0137368
0.012013
0.0109311
0.00965643
0.00882117
0.00779966
0.0071205
0.0062788
0.00571483
0.00500983
0.00453159
0.00392397
0.00349816
0.00293529
0.00251976
0.00196831
0.00174783
0.00169249
0.00163852
0.00152004
0.00141967
0.00126818
0.00115812
0.00101032
0.000906278
0.000768844
0.000666441
0.000519503
0.000383964
0.000143746
-0.00016204
-0.000829202
-0.0019055
-0.00456157
-0.00959433
-0.0222013
-0.0407652
-0.0502893
-0.0719477
-0.0948595
-0.129513
-0.115314
-0.0442497
-0.012722
-0.00321923
-69.331
64.1657
0.738166
0.613506
0.513309
0.403599
0.344792
0.285777
0.250915
0.209255
0.180653
0.142393
0.129044
0.129195
0.128175
0.123329
0.11873
0.11084
0.105068
0.0967635
0.0910799
0.0833473
0.078199
0.0713808
0.0669591
0.0613059
0.0580175
0.054644
0.0550321
0.060583
0.0709935
0.0521741
0.0372245
0.0306393
0.0255922
0.0228985
0.019994
0.0182278
0.0160753
0.0147109
0.012985
0.0118753
0.010453
0.00953155
0.00834026
0.00755891
0.00653243
0.00583681
0.00488607
0.00420599
0.00326617
0.00290601
0.00282106
0.00273404
0.00253292
0.00236868
0.00211209
0.00193214
0.00168219
0.00151218
0.00128008
0.00111292
0.000865532
0.000644762
0.000242673
-0.000253863
-0.0013636
-0.00310548
-0.00749655
-0.0156541
-0.0367377
-0.0683409
-0.0832772
-0.119855
-0.15758
-0.218021
-0.19471
-0.0719982
-0.0202242
-0.00505855
-68.8849
61.8157
1.05649
0.85774
0.71914
0.56224
0.482696
0.398763
0.351646
0.292247
0.253435
0.197977
0.179911
0.180937
0.179659
0.172654
0.166406
0.155065
0.147237
0.13533
0.127626
0.116548
0.109572
0.0998049
0.0938115
0.085701
0.0812293
0.0762946
0.0767598
0.0845609
0.101004
0.0728417
0.0516535
0.042808
0.0357005
0.0320699
0.0279308
0.0255411
0.0224639
0.0206162
0.0181467
0.0166437
0.0146081
0.01336
0.0116552
0.0105969
0.00912842
0.0081864
0.00682666
0.00590319
0.00454133
0.00405364
0.00395019
0.0038346
0.00354478
0.00332184
0.00295337
0.00270938
0.00235124
0.00212094
0.00178905
0.00156292
0.00121078
0.000913081
0.000345622
-0.000320921
-0.00187249
-0.00419925
-0.0102806
-0.0211963
-0.0508527
-0.0965822
-0.115398
-0.167715
-0.21939
-0.309877
-0.27808
-0.0969085
-0.0262619
-0.00645571
-68.4386
59.4497
1.39854
1.09957
0.925711
0.717794
0.620782
0.510282
0.452874
0.37442
0.326888
0.252069
0.230017
0.232775
0.231377
0.221952
0.21429
0.199153
0.189573
0.173731
0.164311
0.149588
0.141059
0.128081
0.120751
0.109953
0.104462
0.0977319
0.0981968
0.108196
0.132803
0.0932333
0.0655912
0.0549094
0.0456717
0.0412635
0.0357992
0.0328836
0.0288048
0.0265478
0.0232711
0.0214348
0.0187331
0.017208
0.0149454
0.0136524
0.0117044
0.0105537
0.00875071
0.00761876
0.00578218
0.00518654
0.00508045
0.00494279
0.00455463
0.00428146
0.00379028
0.00349177
0.00301572
0.00273427
0.00229426
0.0020184
0.00155425
0.00119257
0.000452878
-0.000352249
-0.00235005
-0.00514251
-0.0128708
-0.0259884
-0.0643238
-0.125898
-0.146178
-0.215598
-0.279646
-0.406621
-0.367422
-0.117397
-0.0302661
-0.00727096
-67.9922
57.0641
1.77198
1.33641
1.13366
0.868921
0.759416
0.619685
0.554951
0.455362
0.401438
0.304055
0.279136
0.284784
0.28342
0.271185
0.262477
0.243023
0.232163
0.211879
0.201211
0.182384
0.172729
0.156135
0.147834
0.133996
0.127748
0.118885
0.119256
0.131252
0.167174
0.113152
0.0788536
0.0669556
0.0554521
0.0505016
0.0435679
0.0402747
0.0350748
0.0325223
0.0283399
0.0262623
0.0228128
0.0210872
0.0181985
0.0167357
0.0142499
0.0129484
0.0106491
0.00936356
0.00697425
0.00630066
0.00621282
0.00606185
0.00556071
0.00525062
0.00462025
0.00428201
0.0036731
0.0033546
0.0027935
0.00248197
0.00189413
0.00148766
0.000563187
-0.000335449
-0.00279542
-0.0058879
-0.015245
-0.0297711
-0.0768641
-0.156864
-0.174989
-0.263693
-0.337381
-0.510008
-0.465194
-0.131368
-0.0317049
-0.00740388
-67.5457
54.6562
2.18507
1.56394
1.34409
1.01385
0.899268
0.726096
0.65843
0.534485
0.477733
0.353148
0.327037
0.337078
0.335904
0.320282
0.3111
0.286555
0.275136
0.249648
0.238444
0.214819
0.20468
0.183861
0.175142
0.15774
0.151143
0.139672
0.139854
0.153355
0.20515
0.132286
0.0912238
0.0789894
0.0649733
0.059822
0.0511937
0.0477447
0.0412414
0.0385643
0.0333267
0.0311468
0.0268255
0.0250149
0.0213963
0.0198617
0.0167497
0.0153846
0.0125083
0.0111538
0.0080987
0.00739232
0.00734874
0.00719594
0.00656017
0.00623359
0.00543947
0.00508398
0.0043197
0.00398542
0.00328348
0.00295728
0.00222737
0.00180405
0.000672987
-0.000255686
-0.00321501
-0.0063822
-0.0174118
-0.0322503
-0.0880867
-0.190303
-0.200976
-0.312386
-0.391154
-0.622087
-0.57452
-0.135972
-0.0301296
-0.00680716
-67.099
52.2245
2.64657
1.77543
1.55896
1.15016
1.04148
0.828297
0.76417
0.610928
0.55675
0.398308
0.373497
0.389828
0.388972
0.369128
0.360344
0.329569
0.318678
0.286852
0.276179
0.246719
0.237065
0.211109
0.202802
0.181057
0.174737
0.159998
0.159925
0.173932
0.24812
0.150153
0.102445
0.0910983
0.0741434
0.0692847
0.0586153
0.0553398
0.0472578
0.0447114
0.0381938
0.0361196
0.0307402
0.0290173
0.024513
0.0230528
0.0191816
0.0178832
0.0143082
0.0130136
0.00913035
0.00845859
0.00849022
0.00835054
0.00754843
0.00723642
0.00624223
0.00590336
0.00495005
0.00463189
0.00375925
0.00344955
0.00254905
0.00214943
0.0007753
-9.41066e-05
-0.00362571
-0.00656142
-0.0194255
-0.0330888
-0.0974524
-0.2274
-0.222929
-0.36238
-0.438836
-0.7453
-0.699481
-0.127265
-0.0252539
-0.00550093
-66.6521
49.7698
3.16563
1.96075
1.78154
1.27448
1.18788
0.924548
0.873485
0.683418
0.639945
0.438129
0.418319
0.443273
0.442807
0.417539
0.410475
0.371794
0.363065
0.323217
0.314672
0.277833
0.270107
0.237657
0.231006
0.203762
0.198674
0.179742
0.179437
0.192108
0.297987
0.166015
0.112217
0.103436
0.0828334
0.0789835
0.0657446
0.0631305
0.0530559
0.0510206
0.042886
0.0412275
0.0345114
0.0331335
0.0275104
0.0263429
0.0215127
0.0204748
0.0160187
0.0149786
0.0100348
0.00949796
0.00963989
0.009533
0.00851841
0.00826784
0.00702
0.00674851
0.00555608
0.00530158
0.00421344
0.00396634
0.00285148
0.00253456
0.000858101
0.000174625
-0.00405962
-0.00634285
-0.0214064
-0.0318982
-0.104193
-0.269869
-0.239123
-0.41489
-0.477313
-0.882597
-0.84549
-0.0997502
-0.0170886
-0.0035854
-66.2052
47.2965
3.75129
2.10506
2.01724
1.382
1.34136
1.01232
0.988372
0.750055
0.729484
0.470677
0.461357
0.497742
0.497642
0.465231
0.461879
0.412829
0.408704
0.358337
0.354304
0.30779
0.304145
0.263178
0.26004
0.225586
0.22317
0.198748
0.198437
0.206563
0.357379
0.178757
0.120192
0.116251
0.0908573
0.0890619
0.0724526
0.0712234
0.0585358
0.057577
0.0473225
0.0465408
0.0380719
0.0374225
0.0303322
0.029782
0.0236944
0.0232055
0.0175945
0.0171016
0.0107643
0.0105115
0.010801
0.0107532
0.00945928
0.00934059
0.00776002
0.00763179
0.00612575
0.00600576
0.00463498
0.00451883
0.00312285
0.0029749
0.000901914
0.000586112
-0.00457089
-0.00561238
-0.0235694
-0.0282345
-0.107197
-0.320192
-0.247053
-0.471928
-0.502071
-1.03758
-1.01984
-0.0457112
-0.00615784
-0.00124736
-65.7583
47.2965
3.75126
2.10505
2.01723
1.382
1.34136
1.01232
0.988372
0.750055
0.729485
0.470678
0.461357
0.497741
0.497641
0.465228
0.461876
0.412826
0.4087
0.358333
0.3543
0.307786
0.304142
0.263175
0.260037
0.225584
0.223168
0.198748
0.198437
0.206565
0.357386
0.178762
0.120198
0.116257
0.0908633
0.0890679
0.072458
0.0712288
0.0585405
0.0575817
0.0473263
0.0465446
0.0380751
0.0374256
0.0303348
0.0297846
0.0236965
0.0232076
0.0175962
0.0171033
0.0107655
0.0105126
0.0108021
0.0107543
0.00946023
0.00934153
0.00776084
0.0076326
0.00612644
0.00600645
0.00463561
0.00451946
0.00312349
0.00297556
0.000902752
0.000586979
-0.00456955
-0.00561101
-0.0235675
-0.0282327
-0.107197
-0.320201
-0.247064
-0.471965
-0.502111
-1.03768
-1.01994
-0.0457157
-0.00615901
-0.00124832
-65.758
49.7698
3.16562
1.96074
1.78153
1.27448
1.18787
0.924547
0.873485
0.683419
0.639946
0.438129
0.418319
0.443272
0.442806
0.417537
0.410473
0.371791
0.363061
0.323213
0.314668
0.27783
0.270104
0.237654
0.231003
0.20376
0.198672
0.179742
0.179438
0.19211
0.297993
0.16602
0.112222
0.103441
0.0828387
0.0789888
0.0657495
0.0631353
0.0530601
0.0510246
0.0428895
0.0412309
0.0345142
0.0331363
0.0275127
0.0263451
0.0215146
0.0204767
0.0160202
0.0149801
0.0100359
0.009499
0.00964088
0.00953396
0.00851926
0.00826867
0.00702072
0.00674922
0.00555669
0.00530219
0.00421399
0.0039669
0.00285205
0.00253515
0.00085884
0.000175427
-0.00405845
-0.0063416
-0.0214048
-0.0318968
-0.104194
-0.269878
-0.239135
-0.414922
-0.477353
-0.882683
-0.845574
-0.0997602
-0.0170911
-0.00358958
-66.2049
52.2244
2.64656
1.77542
1.55895
1.15016
1.04147
0.828297
0.76417
0.610929
0.55675
0.398308
0.373498
0.389827
0.388971
0.369126
0.360342
0.329566
0.318675
0.286849
0.276176
0.246716
0.237062
0.211107
0.2028
0.181056
0.174736
0.159998
0.159925
0.173934
0.248125
0.150157
0.10245
0.0911033
0.0741482
0.0692894
0.0586197
0.0553441
0.0472616
0.0447151
0.0381969
0.0361226
0.0307428
0.0290197
0.0245152
0.0230549
0.0191833
0.0178848
0.0143096
0.0130149
0.00913132
0.00845955
0.00849112
0.0083514
0.00754921
0.00723717
0.0062429
0.00590401
0.00495062
0.00463245
0.00375976
0.00345006
0.00254957
0.00214998
0.000775962
-9.33662e-05
-0.00362468
-0.00656029
-0.0194241
-0.0330877
-0.0974534
-0.227407
-0.222941
-0.362408
-0.438873
-0.745372
-0.69955
-0.127278
-0.0252564
-0.00550697
-66.6519
54.6562
2.18506
1.56392
1.34408
1.01385
0.899267
0.726096
0.65843
0.534485
0.477734
0.353148
0.327037
0.337078
0.335903
0.320281
0.311098
0.286553
0.275134
0.249646
0.238441
0.214816
0.204678
0.183859
0.17514
0.157739
0.151142
0.139672
0.139855
0.153357
0.205154
0.132289
0.0912282
0.0789938
0.0649776
0.0598261
0.0511975
0.0477484
0.0412448
0.0385674
0.0333295
0.0311495
0.0268278
0.0250171
0.0213982
0.0198634
0.0167513
0.0153861
0.0125095
0.011155
0.00809957
0.00739319
0.00734955
0.0071967
0.00656087
0.00623426
0.00544007
0.00508456
0.00432021
0.00398593
0.00328394
0.00295775
0.00222783
0.00180454
0.000673573
-0.000255021
-0.00321412
-0.00638121
-0.0174106
-0.0322496
-0.0880877
-0.190309
-0.200986
-0.31241
-0.391187
-0.622147
-0.574577
-0.135985
-0.0301312
-0.00681333
-67.0988
57.0641
1.77197
1.33639
1.13365
0.868918
0.759415
0.619685
0.554951
0.455363
0.401439
0.304056
0.279136
0.284783
0.283419
0.271184
0.262476
0.243021
0.232161
0.211877
0.201209
0.182382
0.172727
0.156133
0.147832
0.133996
0.127748
0.118885
0.119256
0.131254
0.167178
0.113154
0.0788575
0.0669594
0.0554557
0.0505052
0.0435713
0.0402779
0.0350777
0.032525
0.0283423
0.0262645
0.0228148
0.021089
0.0182001
0.0167372
0.0142513
0.0129497
0.0106502
0.00936455
0.00697501
0.00630141
0.00621352
0.00606249
0.00556132
0.0052512
0.00462077
0.00428251
0.00367355
0.00335503
0.00279391
0.00248237
0.00189454
0.00148809
0.000563689
-0.000334872
-0.00279468
-0.00588707
-0.0152441
-0.0297707
-0.0768652
-0.15687
-0.174999
-0.263713
-0.337409
-0.510057
-0.465239
-0.131381
-0.0317054
-0.00740912
-67.5455
59.4497
1.39853
1.09955
0.925706
0.717792
0.620781
0.510282
0.452875
0.37442
0.326889
0.25207
0.230018
0.232775
0.231376
0.221952
0.214289
0.199151
0.189571
0.173729
0.164309
0.149587
0.141058
0.12808
0.12075
0.109952
0.104462
0.0977319
0.0981971
0.108198
0.132806
0.0932356
0.0655944
0.0549125
0.0456747
0.0412664
0.035802
0.0328862
0.0288071
0.0265501
0.0232731
0.0214366
0.0187348
0.0172095
0.0149468
0.0136537
0.0117055
0.0105548
0.00875163
0.00761957
0.00578282
0.00518717
0.00508102
0.00494332
0.00455513
0.00428193
0.00379071
0.00349219
0.00301609
0.00273463
0.0022946
0.00201873
0.00155459
0.00119293
0.000453292
-0.000351771
-0.00234945
-0.00514183
-0.0128701
-0.0259882
-0.0643248
-0.125903
-0.146186
-0.215614
-0.279669
-0.40666
-0.367458
-0.117408
-0.0302655
-0.00727481
-67.9921
61.8157
1.05648
0.857723
0.719136
0.562239
0.482695
0.398763
0.351647
0.292247
0.253436
0.197977
0.179911
0.180937
0.179659
0.172654
0.166405
0.155064
0.147236
0.135328
0.127625
0.116547
0.109571
0.0998039
0.0938107
0.0857004
0.081229
0.0762946
0.07676
0.0845624
0.101006
0.0728435
0.0516561
0.0428105
0.0357028
0.0320722
0.0279329
0.0255431
0.0224657
0.0206179
0.0181482
0.0166451
0.0146094
0.0133612
0.0116562
0.0105979
0.00912929
0.00818721
0.00682738
0.00590383
0.00454183
0.00405413
0.00395063
0.00383501
0.00354517
0.0033222
0.00295371
0.00270971
0.00235153
0.00212122
0.00178932
0.00156318
0.00121105
0.000913365
0.000345946
-0.000320546
-0.00187203
-0.00419874
-0.0102801
-0.0211962
-0.0508536
-0.0965857
-0.115405
-0.167727
-0.219409
-0.309906
-0.278107
-0.0969178
-0.0262606
-0.00645811
-68.4385
64.1657
0.73816
0.613493
0.513306
0.403598
0.344791
0.285777
0.250915
0.209255
0.180653
0.142393
0.129044
0.129195
0.128174
0.123329
0.118729
0.110839
0.105068
0.0967626
0.0910789
0.0833464
0.0781982
0.0713801
0.0669584
0.0613055
0.0580173
0.054644
0.0550323
0.060584
0.070995
0.0521754
0.0372264
0.0306411
0.0255939
0.0229001
0.0199955
0.0182292
0.0160767
0.0147121
0.0129861
0.0118764
0.0104539
0.0095324
0.00834101
0.00755961
0.00653305
0.00583739
0.00488658
0.00420644
0.00326653
0.00290636
0.00282138
0.00273433
0.00253319
0.00236894
0.00211233
0.00193237
0.0016824
0.00151238
0.00128027
0.0011131
0.000865722
0.000644965
0.000242903
-0.000253595
-0.00136328
-0.00310512
-0.00749622
-0.015654
-0.0367384
-0.0683435
-0.083282
-0.119864
-0.157594
-0.218042
-0.194729
-0.0720051
-0.0202226
-0.00505974
-68.8848
66.5042
0.436388
0.368289
0.307862
0.242925
0.2069
0.171829
0.150459
0.125744
0.108259
0.0858143
0.0776398
0.0775024
0.0768452
0.0739972
0.0711874
0.0665322
0.0630029
0.0580946
0.0546174
0.0500447
0.0468946
0.0428625
0.0401575
0.036818
0.0348108
0.0328448
0.0331
0.0364136
0.042156
0.0313548
0.0224639
0.0184117
0.0153921
0.0137377
0.0120139
0.010932
0.00965721
0.0088219
0.00780032
0.00712111
0.00627935
0.00571533
0.00501028
0.004532
0.00392435
0.00349851
0.0029356
0.00252003
0.00196853
0.00174804
0.00169268
0.00163869
0.0015202
0.00141982
0.00126832
0.00115825
0.00101044
0.000906398
0.000768957
0.000666553
0.000519617
0.000384085
0.000143883
-0.00016188
-0.000829009
-0.00190529
-0.00456139
-0.00959434
-0.0222018
-0.0407667
-0.0502922
-0.0719532
-0.0948677
-0.129525
-0.115325
-0.0442539
-0.0127206
-0.0032196
-69.3309
68.8355
0.144386
0.122782
0.102603
0.0810998
0.0689728
0.0573353
0.0501395
0.0419452
0.036066
0.0286666
0.0259153
0.025832
0.0256054
0.0246655
0.023721
0.0221819
0.020995
0.0193708
0.018201
0.0166875
0.0156277
0.014293
0.0133831
0.0122783
0.0116039
0.0109579
0.0110467
0.0121475
0.0139804
0.0104591
0.00750897
0.00614196
0.00513658
0.00457897
0.00400731
0.00364313
0.00322088
0.0029398
0.0026015
0.00237296
0.00209424
0.00190446
0.001671
0.00151007
0.00130884
0.00116554
0.000979114
0.000839409
0.000657577
0.000583381
0.000564205
0.00054592
0.000506775
0.000473024
0.00042292
0.000385898
0.000336974
0.000301967
0.000256444
0.000221973
0.000173227
0.000127553
4.76339e-05
-5.55692e-05
-0.000278235
-0.000642117
-0.0015313
-0.00323141
-0.00742636
-0.0135509
-0.0168163
-0.0239912
-0.0316708
-0.042961
-0.0381951
-0.0149206
-0.00433804
-0.00110427
-69.777
68.7627
0.131216
0.0993138
0.0741748
0.0497791
0.0369064
0.0258482
0.0197343
0.0139646
0.0116579
0.0109852
0.0106261
0.0100767
0.00964872
0.00905721
0.00863197
0.00808274
0.00769364
0.00719522
0.00684242
0.00639069
0.00607253
0.00566827
0.00539026
0.00505045
0.00484973
0.0046784
0.00479256
0.00536776
0.00623425
0.00468302
0.00336337
0.00274287
0.00227239
0.00200513
0.00172316
0.00154116
0.00132766
0.00118561
0.00101524
0.000901594
0.0007653
0.000674638
0.000566254
0.000493995
0.000407198
0.000348396
0.000276184
0.000225595
0.000163002
0.000131643
0.000108776
8.85226e-05
5.40956e-05
2.31778e-05
-2.58859e-05
-6.96436e-05
-0.00013936
-0.000203689
-0.00030927
-0.000411021
-0.000583971
-0.000760033
-0.00107317
-0.00142132
-0.00208831
-0.00295931
-0.00485282
-0.00799765
-0.0153521
-0.0252656
-0.0279084
-0.0350236
-0.0427856
-0.0539117
-0.0469779
-0.0182902
-0.00531377
-0.00135221
-69.1006
66.2859
0.396972
0.297671
0.222495
0.148877
0.110647
0.077347
0.0591893
0.0417556
0.0349084
0.0329433
0.031886
0.0302253
0.0289529
0.0271651
0.025901
0.024242
0.0230854
0.02158
0.0205313
0.0191668
0.0182211
0.0169998
0.0161733
0.0151458
0.014548
0.0140238
0.0143592
0.0160916
0.0187994
0.0140398
0.0100622
0.00822265
0.00680908
0.00601604
0.00516555
0.00462481
0.0039802
0.00355804
0.00304354
0.00270577
0.00229415
0.0020247
0.00169738
0.00148263
0.00122053
0.00104578
0.000827728
0.000677301
0.000487785
0.000394615
0.000326249
0.000266159
0.000162169
7.02812e-05
-7.78497e-05
-0.000207873
-0.000418279
-0.0006094
-0.00092795
-0.0012302
-0.00175178
-0.00227461
-0.00321809
-0.0042512
-0.00625675
-0.00883704
-0.0145084
-0.0238245
-0.0459538
-0.0760876
-0.0835463
-0.105045
-0.128222
-0.162457
-0.141804
-0.054242
-0.0155807
-0.00394203
-67.3018
63.8031
0.672806
0.495066
0.370756
0.24656
0.184191
0.128241
0.0986159
0.0691236
0.0579641
0.0548656
0.0531706
0.050359
0.0482782
0.0452526
0.0431864
0.0403816
0.0384916
0.0359468
0.0342332
0.0319264
0.0303809
0.0283157
0.0269644
0.025224
0.0242434
0.0233347
0.02387
0.0267764
0.0316633
0.0233653
0.0166755
0.0136855
0.0113211
0.0100294
0.00859576
0.00771284
0.00662407
0.0059344
0.005065
0.00451313
0.00381754
0.00337728
0.00282421
0.00247334
0.00203053
0.00174504
0.00137669
0.00113068
0.000808799
0.000656672
0.000543465
0.000445624
0.000269829
0.000119701
-0.000130477
-0.000342831
-0.000697918
-0.00100997
-0.00154724
-0.00204057
-0.0029195
-0.00377233
-0.0053594
-0.00704216
-0.0104022
-0.0145911
-0.0240181
-0.0391389
-0.0762353
-0.127817
-0.138623
-0.174999
-0.213217
-0.273198
-0.239306
-0.0882379
-0.0247668
-0.00619424
-65.5028
61.3102
0.965778
0.690325
0.519014
0.341772
0.257481
0.178083
0.138038
0.095759
0.0806982
0.0767326
0.0745006
0.0704643
0.0676422
0.0633027
0.0605022
0.0564854
0.0539247
0.0502811
0.0479594
0.0446561
0.0425619
0.0396032
0.0377713
0.0352718
0.0339359
0.0325879
0.0332858
0.0373819
0.0450545
0.0326266
0.023141
0.0191235
0.0157905
0.0140488
0.0120043
0.0108095
0.00925238
0.00831835
0.00707417
0.00632663
0.00533109
0.00473474
0.00394327
0.00346804
0.00283452
0.00244786
0.00192097
0.00158727
0.00112316
0.000917299
0.00076019
0.000628329
0.000376577
0.000173233
-0.000184515
-0.000471982
-0.000979192
-0.00140144
-0.00216822
-0.00283546
-0.00408821
-0.00524063
-0.00749684
-0.00976599
-0.0145144
-0.0201356
-0.0333001
-0.0535742
-0.105937
-0.181176
-0.192676
-0.24488
-0.29734
-0.387694
-0.341495
-0.11873
-0.0321569
-0.00790483
-63.7037
58.8036
1.28345
0.881423
0.667515
0.433269
0.330576
0.226353
0.177552
0.121307
0.102989
0.0985314
0.0959041
0.0905223
0.0870681
0.0812923
0.0778678
0.072532
0.0694022
0.0645633
0.0617256
0.0573379
0.0547779
0.050846
0.0486051
0.0452732
0.0436288
0.0417591
0.0425656
0.0478443
0.0592498
0.0417702
0.0293879
0.0245344
0.0201966
0.0180807
0.0153793
0.0139211
0.0118563
0.0107153
0.00906404
0.00815061
0.0068292
0.00610052
0.00505015
0.00446951
0.00362901
0.00315664
0.00245781
0.00204934
0.00142739
0.00117615
0.000976079
0.000816001
0.000481551
0.000233098
-0.000241222
-0.00059221
-0.00126375
-0.00177903
-0.00279308
-0.00360683
-0.00526087
-0.0066647
-0.00963371
-0.0123906
-0.0185917
-0.0253783
-0.0422976
-0.0667258
-0.134724
-0.237086
-0.245101
-0.314749
-0.379948
-0.507652
-0.450747
-0.143774
-0.0370542
-0.00890262
-61.9043
56.28
1.63409
1.065
0.816834
0.519508
0.403737
0.272408
0.217365
0.145339
0.124728
0.120258
0.117419
0.110505
0.106589
0.0991895
0.0953113
0.0884918
0.0849494
0.0787667
0.0755548
0.0699475
0.0670495
0.0620216
0.0594828
0.0552072
0.0533308
0.0508231
0.0516664
0.0580614
0.0746003
0.0507099
0.035334
0.029925
0.0245143
0.0221365
0.0187053
0.0170577
0.014424
0.0131333
0.0110251
0.00999162
0.00830428
0.0074798
0.00613883
0.00548193
0.00440926
0.00387493
0.00298341
0.00252028
0.00171704
0.00143319
0.00119059
0.00101087
0.000583293
0.000302196
-0.000302681
-0.000699444
-0.0015544
-0.00213652
-0.00342583