/*--------------------------------*- C++ -*----------------------------------*\
| =========                 |                                                 |
| \\      /  F ield         | OpenFOAM: The Open Source CFD Toolbox           |
|  \\    /   O peration     | Version:  5.x                                   |
|   \\  /    A nd           | Web:      www.OpenFOAM.org                      |
|    \\/     M anipulation  |                                                 |
\*---------------------------------------------------------------------------*/
FoamFile
{
    version     2.0;
    format      ascii;
    class       volScalarField;
    location    "1.7";
    object      gradTy;
}
// * * * * * * * * * * * * * * * * * * * * * * * * * * * * * * * * * * * * * //

dimensions      [0 -1 0 1 0 0 0];

internalField   nonuniform List<scalar> 
3200
(
17.6324
8.39576
11.3616
8.10299
9.46985
7.85655
8.56611
7.63139
8.04937
7.45646
7.71072
7.381
7.57363
7.19939
7.39237
7.03858
7.21873
6.89515
7.05904
6.76727
6.91457
6.65368
6.78517
6.55302
6.67025
6.46353
6.56982
6.38242
6.4915
6.33005
6.19875
6.28298
6.16808
6.22353
6.13557
6.17752
6.10925
6.14163
6.08891
6.11376
6.07357
6.09239
6.06224
6.07624
6.05406
6.06422
6.0484
6.05545
6.04489
6.04921
6.04384
6.04651
6.04201
6.04366
6.04174
6.04174
6.0434
6.04109
6.04773
6.04203
6.05615
6.0451
6.07121
6.051
6.09795
6.06003
6.14733
6.06746
6.24511
6.02141
6.31566
7.13145
6.44423
7.96904
6.80221
9.91795
9.14732
9.02947
9.00514
8.99989
16.4409
9.46756
10.9824
8.54544
9.27841
8.0737
8.45369
7.755
7.97778
7.53419
7.66997
7.42387
7.52653
7.24618
7.34812
7.0831
7.17835
6.93599
7.02268
6.80416
6.88208
6.68669
6.75627
6.58241
6.64447
6.48967
6.5461
6.40595
6.4651
6.33334
6.22272
6.26897
6.18315
6.2127
6.14687
6.16911
6.11799
6.13515
6.09567
6.10883
6.07874
6.08871
6.06614
6.07355
6.05695
6.06233
6.05049
6.05422
6.04632
6.04861
6.0446
6.04602
6.04265
6.04351
6.04207
6.04206
6.04329
6.04206
6.04703
6.04399
6.05454
6.04865
6.06816
6.05737
6.09244
6.07205
6.13714
6.09345
6.22502
6.09712
6.37402
7.01614
6.64601
7.78662
7.17974
9.52475
9.1213
9.02582
9.00447
8.99978
15.5284
10.1999
10.7613
8.86113
9.16453
8.22749
8.38445
7.84178
7.93287
7.58878
7.64452
7.45281
7.49478
7.2777
7.31857
7.11323
7.15149
6.96368
6.99854
6.82919
6.86053
6.70911
6.73711
6.60236
6.62736
6.50737
6.53024
6.4215
6.44635
6.33579
6.24041
6.26025
6.19361
6.20569
6.15464
6.16364
6.12401
6.13093
6.10033
6.10564
6.08231
6.08633
6.06884
6.07183
6.05896
6.06113
6.05195
6.05345
6.04733
6.04826
6.04514
6.04572
6.04311
6.04345
6.04233
6.04232
6.04328
6.04277
6.04663
6.04539
6.05358
6.05117
6.06633
6.06188
6.08914
6.08064
6.13129
6.11242
6.21529
6.15664
6.41777
6.94131
6.78734
7.67409
7.43919
9.24147
9.08295
9.01919
9.00311
8.99946
14.8291
10.6967
10.6387
9.0887
9.10029
8.33755
8.34322
7.90323
7.90539
7.62739
7.62899
7.47242
7.4734
7.29891
7.29888
7.13362
7.13368
6.98247
6.98257
6.8462
6.84631
6.72436
6.72446
6.61593
6.61606
6.51936
6.51966
6.43172
6.43301
6.33764
6.2535
6.25499
6.20093
6.20121
6.16002
6.16011
6.12817
6.12821
6.10355
6.10358
6.08479
6.08481
6.07071
6.07073
6.06036
6.06038
6.05298
6.05299
6.04805
6.04807
6.04553
6.04554
6.04345
6.04344
6.04255
6.04254
6.04333
6.04331
6.04644
6.04641
6.05304
6.05298
6.06527
6.06513
6.08726
6.08686
6.12821
6.12652
6.21202
6.20335
6.45101
6.89357
6.88703
7.60641
7.61714
9.03662
9.0408
9.01065
9.00126
8.99899
14.2953
11.0305
10.5758
9.25385
9.06706
8.41689
8.31984
7.94701
7.88913
7.65484
7.61979
7.48575
7.45906
7.31315
7.28581
7.14741
7.12194
6.99522
6.97207
6.85776
6.83696
6.73473
6.71617
6.62515
6.60863
6.52748
6.5126
6.43838
6.42355
6.33904
6.26317
6.25196
6.20607
6.19839
6.16376
6.15787
6.13105
6.12649
6.10579
6.10229
6.08651
6.08386
6.07202
6.07005
6.06135
6.05992
6.05371
6.05271
6.04858
6.04797
6.04581
6.04543
6.0437
6.04346
6.04272
6.04272
6.04339
6.04371
6.04636
6.04715
6.05277
6.05429
6.0647
6.06747
6.08627
6.0914
6.12684
6.13712
6.21251
6.23981
6.47646
6.86379
6.95768
7.56707
7.73873
8.88837
9.00001
9.00127
8.99911
8.99842
13.892
11.2519
10.5477
9.37362
9.0524
8.47414
8.30751
7.97822
7.87996
7.67434
7.61458
7.49479
7.4495
7.32266
7.27719
7.1567
7.11425
7.00384
6.96523
6.86559
6.83089
6.74175
6.71078
6.6314
6.60379
6.53294
6.50793
6.44266
6.41688
6.3401
6.27026
6.25033
6.2097
6.19666
6.16634
6.15646
6.13304
6.12541
6.10733
6.10148
6.0877
6.08327
6.07294
6.06964
6.06204
6.05964
6.05422
6.05256
6.04895
6.04794
6.04601
6.04538
6.04388
6.04349
6.04286
6.04286
6.04347
6.04401
6.04635
6.04769
6.05265
6.05524
6.06442
6.06917
6.08583
6.09472
6.12647
6.14511
6.21492
6.26788
6.49586
6.84573
7.0077
7.54524
7.82119
8.78164
8.96363
8.99201
8.99689
8.99781
13.5945
11.396
10.5384
9.45931
9.04805
8.51495
8.30173
8.00021
7.8751
7.68802
7.61179
7.50087
7.44322
7.32894
7.27159
7.16287
7.1093
7.00959
6.96083
6.87082
6.827
6.74645
6.70733
6.63559
6.60069
6.53658
6.50487
6.44537
6.41225
6.34089
6.27536
6.24952
6.21222
6.19562
6.16811
6.15561
6.1344
6.12475
6.10839
6.10099
6.08853
6.08292
6.07357
6.0694
6.06251
6.05949
6.05458
6.05248
6.04922
6.04793
6.04615
6.04535
6.04401
6.04352
6.04297
6.04297
6.04354
6.04423
6.04638
6.04809
6.05261
6.05592
6.06432
6.07038
6.08569
6.09712
6.12662
6.15104
6.218
6.28894
6.51038
6.83519
7.04269
7.53386
7.87626
8.70603
8.93338
8.98369
8.99481
8.99723
13.3849
11.4865
10.538
9.51833
9.04862
8.54299
8.2995
8.01517
7.87275
7.69729
7.61041
7.50485
7.43922
7.33295
7.26806
7.16685
7.1062
7.01331
6.95809
6.87421
6.82458
6.74951
6.70519
6.6383
6.59875
6.53893
6.50292
6.44703
6.40916
6.34145
6.27888
6.24918
6.21392
6.19502
6.16929
6.1551
6.1353
6.12436
6.1091
6.10071
6.08907
6.08272
6.07399
6.06926
6.06283
6.0594
6.05483
6.05245
6.0494
6.04794
6.04625
6.04535
6.04411
6.04356
6.04305
6.04306
6.0436
6.04439
6.04641
6.04836
6.05262
6.05639
6.0643
6.07122
6.08569
6.09878
6.12697
6.15526
6.2209
6.30398
6.52076
6.82933
7.06633
7.52841
7.91183
8.65451
8.91021
8.97692
8.99308
8.99673
13.2513
11.539
10.5405
9.55538
9.05065
8.56058
8.29894
8.02449
7.87174
7.70304
7.60979
7.50724
7.43687
7.33533
7.266
7.16922
7.1044
7.01553
6.95651
6.87625
6.82318
6.75134
6.70395
6.63993
6.59764
6.54032
6.50178
6.44798
6.40726
6.34181
6.28108
6.24907
6.21497
6.19471
6.17
6.15483
6.13585
6.12415
6.10953
6.10055
6.0894
6.08261
6.07424
6.06919
6.06303
6.05936
6.05498
6.05243
6.04952
6.04795
6.04632
6.04534
6.04416
6.04358
6.04311
6.04311
6.04364
6.04449
6.04644
6.04853
6.05264
6.05668
6.06432
6.07174
6.08574
6.09984
6.1273
6.15798
6.2231
6.31365
6.52746
6.82632
7.08095
7.52611
7.93301
8.62245
8.89458
8.97216
8.99183
8.99637
13.1863
11.5631
10.5425
9.57327
9.05214
8.56907
8.29892
8.02896
7.87139
7.70579
7.60957
7.50836
7.43578
7.33643
7.26505
7.17033
7.10358
7.01657
6.95579
6.8772
6.82255
6.75219
6.70339
6.64069
6.59713
6.54098
6.50125
6.44841
6.40637
6.34198
6.28215
6.24904
6.21547
6.19457
6.17034
6.1547
6.13611
6.12406
6.10973
6.10049
6.08956
6.08256
6.07436
6.06916
6.06313
6.05935
6.05505
6.05243
6.04957
6.04795
6.04635
6.04534
6.04419
6.04359
6.04313
6.04314
6.04366
6.04454
6.04646
6.04861
6.05265
6.05682
6.06433
6.072
6.08578
6.10035
6.1275
6.15932
6.22428
6.31839
6.53075
6.82507
7.08794
7.52533
7.94289
8.60708
8.88672
8.96971
8.99119
8.99618
-12.5148
-10.7867
-9.61095
-8.33127
-7.55861
-6.71114
-6.17925
-5.56532
-5.17625
-4.72687
-4.45463
-4.15447
-3.93685
-3.6378
-3.4246
-3.14448
-2.95005
-2.70091
-2.53006
-2.31358
-2.16597
-1.97991
-1.85335
-1.69413
-1.58564
-1.44865
-1.35357
-1.22964
-1.13284
-0.986835
-0.852161
-0.777771
-0.702304
-0.655009
-0.599667
-0.563432
-0.519567
-0.490562
-0.455182
-0.431759
-0.403177
-0.384292
-0.361313
-0.346197
-0.327909
-0.315989
-0.301746
-0.292671
-0.282174
-0.275876
-0.269045
-0.26422
-0.257762
-0.253298
-0.247628
-0.243835
-0.239173
-0.236115
-0.232437
-0.230074
-0.22731
-0.225632
-0.223847
-0.223075
-0.22289
-0.224163
-0.228428
-0.236901
-0.258892
-0.30103
-0.40703
-0.572608
-0.742553
-1.05229
-1.37519
-1.91464
-2.14272
-2.21049
-2.22802
-2.2321
-12.5842
-10.7647
-9.61527
-8.31114
-7.56174
-6.69864
-6.18265
-5.55643
-5.17877
-4.71989
-4.45584
-4.15126
-3.94019
-3.63444
-3.42735
-3.14112
-2.95231
-2.69783
-2.53194
-2.31087
-2.16755
-1.97757
-1.85469
-1.69213
-1.58681
-1.447
-1.35474
-1.22857
-1.13482
-0.986387
-0.84975
-0.777811
-0.70117
-0.655322
-0.59889
-0.563723
-0.518955
-0.490798
-0.454681
-0.431942
-0.402763
-0.384429
-0.360968
-0.346292
-0.327621
-0.316048
-0.301503
-0.292691
-0.281967
-0.275857
-0.268924
-0.264244
-0.25764
-0.253303
-0.247509
-0.243824
-0.239062
-0.236093
-0.232336
-0.230042
-0.227218
-0.225587
-0.223756
-0.223001
-0.222781
-0.223992
-0.228207
-0.236308
-0.258033
-0.298421
-0.404591
-0.572374
-0.736901
-1.0517
-1.36646
-1.92702
-2.14905
-2.21242
-2.22848
-2.23219
-12.7264
-10.7162
-9.62594
-8.26896
-7.56956
-6.67239
-6.19058
-5.53772
-5.18465
-4.7052
-4.45876
-4.14439
-3.94741
-3.62722
-3.43334
-3.13393
-2.95725
-2.69127
-2.53608
-2.3051
-2.17104
-1.97259
-1.85765
-1.68788
-1.58939
-1.44346
-1.35729
-1.22621
-1.139
-0.985474
-0.844751
-0.778036
-0.698797
-0.656049
-0.59725
-0.564383
-0.517661
-0.491333
-0.453624
-0.432358
-0.401889
-0.384742
-0.360243
-0.346517
-0.327016
-0.31619
-0.300994
-0.292749
-0.281537
-0.275832
-0.268672
-0.264303
-0.257383
-0.253322
-0.24726
-0.243811
-0.238834
-0.236055
-0.232129
-0.229982
-0.227028
-0.225499
-0.223572
-0.222854
-0.222562
-0.223648
-0.227779
-0.235117
-0.256374
-0.293127
-0.399631
-0.572212
-0.725176
-1.05105
-1.34783
-1.95287
-2.16166
-2.21616
-2.22936
-2.23235
-12.9493
-10.631
-9.64744
-8.20063
-7.58543
-6.62965
-6.20548
-5.50713
-5.19568
-4.6813
-4.4645
-4.13292
-3.95963
-3.61502
-3.44362
-3.1219
-2.96582
-2.68034
-2.5433
-2.2955
-2.17715
-1.9643
-1.86285
-1.6808
-1.59388
-1.43756
-1.36166
-1.22212
-1.14584
-0.984054
-0.836791
-0.778759
-0.694958
-0.657409
-0.594561
-0.565584
-0.515535
-0.492305
-0.451887
-0.43312
-0.400456
-0.385323
-0.359056
-0.34694
-0.32603
-0.316473
-0.30017
-0.292888
-0.280847
-0.275824
-0.268267
-0.264422
-0.25697
-0.253378
-0.246861
-0.243814
-0.23847
-0.236016
-0.231803
-0.229906
-0.226732
-0.225378
-0.223288
-0.222639
-0.222237
-0.223131
-0.227169
-0.233316
-0.254041
-0.284988
-0.391971
-0.572776
-0.706473
-1.05149
-1.3168
-1.99449
-2.18036
-2.22149
-2.23057
-2.23255
-13.2651
-10.4925
-9.68764
-8.09917
-7.61506
-6.56577
-6.23146
-5.46117
-5.21494
-4.64559
-4.47492
-4.1152
-3.9788
-3.59596
-3.45999
-3.10331
-2.97964
-2.66352
-2.55501
-2.28077
-2.18708
-1.95159
-1.8713
-1.66994
-1.60119
-1.42846
-1.36859
-1.21551
-1.15611
-0.982059
-0.825262
-0.780509
-0.689261
-0.659771
-0.590503
-0.567612
-0.512317
-0.493944
-0.449263
-0.434414
-0.398296
-0.386321
-0.357273
-0.347685
-0.324557
-0.316991
-0.298949
-0.293181
-0.279837
-0.275879
-0.267673
-0.264644
-0.256359
-0.253508
-0.24628
-0.243864
-0.237945
-0.236001
-0.231336
-0.229833
-0.226314
-0.225237
-0.222897
-0.222364
-0.221809
-0.222437
-0.226424
-0.23088
-0.251246
-0.273754
-0.381303
-0.575165
-0.679258
-1.05506
-1.26921
-2.05571
-2.20478
-2.22801
-2.23199
-2.23275
-13.692
-10.2755
-9.75934
-7.95369
-7.66743
-6.47342
-6.275
-5.39435
-5.24722
-4.59402
-4.493
-4.08863
-4.0079
-3.56711
-3.48527
-3.07546
-3.00122
-2.63845
-2.5734
-2.25886
-2.20273
-1.93271
-1.88463
-1.65381
-1.61268
-1.41487
-1.37927
-1.20517
-1.17099
-0.979379
-0.809249
-0.784117
-0.681087
-0.663717
-0.584578
-0.570924
-0.507606
-0.496619
-0.445423
-0.436537
-0.395145
-0.387976
-0.354683
-0.348942
-0.322429
-0.317896
-0.297202
-0.293741
-0.278414
-0.276066
-0.266832
-0.265037
-0.25549
-0.253771
-0.245463
-0.244011
-0.237217
-0.236049
-0.230697
-0.229794
-0.225751
-0.225099
-0.222385
-0.222042
-0.221285
-0.221559
-0.225609
-0.227758
-0.248314
-0.259067
-0.367129
-0.581088
-0.641117
-1.06503
-1.19866
-2.14236
-2.23415
-2.23523
-2.23347
-2.23291
-14.2557
-9.94267
-9.88276
-7.74755
-7.75624
-6.34135
-6.34594
-5.29828
-5.29985
-4.52045
-4.52329
-4.04919
-4.05148
-3.52397
-3.52372
-3.03425
-3.03439
-2.60152
-2.60182
-2.22666
-2.22698
-1.90499
-1.9053
-1.63011
-1.63046
-1.39481
-1.39551
-1.18925
-1.19217
-0.975844
-0.787435
-0.790838
-0.669478
-0.670125
-0.576022
-0.57621
-0.500785
-0.500884
-0.43987
-0.439939
-0.390601
-0.390652
-0.350963
-0.351001
-0.31939
-0.319416
-0.294732
-0.294742
-0.276437
-0.276492
-0.265656
-0.265702
-0.254269
-0.254259
-0.244331
-0.24433
-0.236221
-0.236223
-0.229836
-0.229836
-0.225007
-0.224999
-0.221733
-0.22169
-0.220672
-0.220483
-0.224823
-0.223851
-0.245726
-0.240439
-0.348667
-0.593115
-0.588367
-1.08655
-1.09565
-2.26301
-2.26708
-2.2425
-2.23483
-2.23298
-14.9922
-9.43982
-10.0893
-7.45577
-7.90211
-6.1526
-6.45908
-5.16034
-5.3838
-4.41567
-4.57274
-3.99077
-4.11633
-3.4598
-3.58181
-2.97351
-3.08494
-2.54732
-2.6453
-2.17947
-2.26415
-1.8644
-1.93702
-1.59542
-1.6577
-1.36532
-1.42005
-1.16496
-1.22213
-0.971198
-0.757945
-0.802548
-0.652982
-0.680316
-0.563681
-0.584509
-0.490927
-0.507579
-0.431855
-0.445298
-0.384058
-0.394895
-0.345628
-0.354301
-0.315058
-0.321895
-0.291243
-0.296444
-0.273691
-0.27732
-0.26401
-0.266792
-0.252555
-0.255107
-0.242763
-0.244936
-0.234861
-0.236613
-0.228679
-0.230032
-0.224029
-0.224987
-0.220909
-0.221335
-0.219983
-0.219183
-0.224206
-0.218986
-0.244179
-0.217225
-0.324711
-0.615059
-0.515449
-1.12758
-0.946247
-2.43013
-2.3011
-2.24902
-2.23589
-2.23291
-15.9509
-8.68903
-10.4273
-7.04089
-8.13592
-5.88169
-6.63651
-4.96158
-5.5155
-4.26595
-4.65182
-3.9041
-4.21253
-3.36453
-3.66917
-2.88402
-3.1615
-2.46772
-2.71137
-2.1103
-2.32074
-1.80494
-1.98534
-1.54459
-1.69915
-1.32195
-1.45699
-1.1282
-1.26443
-0.965047
-0.718137
-0.822024
-0.629401
-0.696261
-0.545832
-0.597375
-0.476645
-0.517957
-0.420255
-0.453629
-0.374612
-0.401523
-0.337953
-0.359497
-0.308857
-0.325851
-0.286293
-0.299239
-0.269861
-0.278799
-0.261692
-0.268534
-0.250138
-0.256521
-0.240583
-0.246
-0.232994
-0.237358
-0.227116
-0.230488
-0.222737
-0.225142
-0.219868
-0.221015
-0.219235
-0.217613
-0.223961
-0.212868
-0.244681
-0.188597
-0.293401
-0.652558
-0.414021
-1.2003
-0.730194
-2.6617
-2.33197
-2.25393
-2.23649
-2.23266
-17.2004
-7.57842
-10.9705
-6.4469
-8.50386
-5.49056
-6.91127
-4.67379
-5.71945
-4.05091
-4.77636
-3.77529
-4.35508
-3.22325
-3.80021
-2.7521
-3.27698
-2.35068
-2.8113
-2.00871
-2.40643
-1.71767
-2.05854
-1.46998
-1.76191
-1.25811
-1.51251
-1.07285
-1.32417
-0.956805
-0.664291
-0.853359
-0.595432
-0.72089
-0.519887
-0.617119
-0.455861
-0.533877
-0.403387
-0.466432
-0.360898
-0.411742
-0.326839
-0.367547
-0.299913
-0.332032
-0.279201
-0.303687
-0.264455
-0.281276
-0.258369
-0.271241
-0.246682
-0.258781
-0.237499
-0.247752
-0.230382
-0.238636
-0.224955
-0.231337
-0.220985
-0.22555
-0.218515
-0.220756
-0.218424
-0.215669
-0.224356
-0.204977
-0.248639
-0.153476
-0.251857
-0.713899
-0.271538
-1.3232
-0.41801
-2.98364
-2.3527
-2.25633
-2.23646
-2.23216
17.2003
7.57849
10.9706
6.44696
8.5039
5.49061
6.91131
4.67383
5.71949
4.05095
4.77639
3.77533
4.35511
3.22329
3.80025
2.75214
3.27702
2.35073
2.81134
2.00876
2.40648
1.71773
2.05859
1.47004
1.76196
1.25817
1.51257
1.07291
1.32423
0.956861
0.664336
0.853409
0.59547
0.720934
0.519918
0.617156
0.455886
0.533907
0.403407
0.466457
0.360915
0.411763
0.326853
0.367563
0.299924
0.332046
0.27921
0.303697
0.264462
0.281284
0.258375
0.271248
0.246687
0.258786
0.237503
0.247757
0.230385
0.238639
0.224957
0.231339
0.220986
0.225552
0.218516
0.220758
0.218424
0.21567
0.224354
0.204977
0.248634
0.153471
0.251846
0.713909
0.271517
1.32326
0.417986
2.98387
2.35286
2.25649
2.23661
2.2323
15.9508
8.68908
10.4274
7.04092
8.13594
5.88172
6.63653
4.96161
5.51552
4.26598
4.65185
3.90413
4.21255
3.36457
3.6692
2.88406
3.16153
2.46776
2.71141
2.11034
2.32078
1.80499
1.98538
1.54465
1.6992
1.322
1.45704
1.12825
1.26448
0.965102
0.718182
0.822073
0.629441
0.696304
0.545865
0.597412
0.476674
0.517988
0.420279
0.453655
0.374632
0.401545
0.337971
0.359516
0.308872
0.325868
0.286306
0.299254
0.269873
0.278811
0.261702
0.268546
0.250147
0.256531
0.240592
0.246009
0.233003
0.237366
0.227124
0.230496
0.222744
0.225149
0.219875
0.221021
0.219241
0.21762
0.223965
0.212873
0.244682
0.188598
0.2934
0.652571
0.414019
1.20036
0.73021
2.66191
2.33215
2.2541
2.23666
2.2328
14.9921
9.43986
10.0893
7.45579
7.90213
6.15262
6.45909
5.16036
5.38382
4.4157
4.57276
3.99079
4.11635
3.45982
3.58184
2.97354
3.08497
2.54735
2.64533
2.17951
2.26419
1.86444
1.93706
1.59547
1.65775
1.36537
1.4201
1.16502
1.22218
0.97125
0.75799
0.802596
0.653022
0.680358
0.563716
0.584545
0.490956
0.50761
0.43188
0.445324
0.384079
0.394918
0.345647
0.354321
0.315075
0.321913
0.291258
0.29646
0.273705
0.277335
0.264023
0.266806
0.252567
0.255119
0.242775
0.244947
0.234871
0.236624
0.228689
0.230043
0.224039
0.224997
0.220918
0.221344
0.219991
0.219192
0.224213
0.218994
0.244184
0.217229
0.324714
0.615073
0.515458
1.12763
0.946287
2.43031
2.30127
2.24919
2.23607
2.23307
14.2557
9.9427
9.88277
7.74757
7.75626
6.34137
6.34597
5.29831
5.29987
4.52048
4.52332
4.04922
4.05151
3.524
3.52375
3.03428
3.03442
2.60156
2.60185
2.2267
2.22702
1.90503
1.90535
1.63016
1.63051
1.39486
1.39556
1.1893
1.19222
0.975895
0.78748
0.790885
0.669518
0.670165
0.576056
0.576244
0.500813
0.500913
0.439894
0.439963
0.390621
0.390672
0.350981
0.351019
0.319405
0.319431
0.294745
0.294755
0.276448
0.276503
0.265666
0.265713
0.254278
0.254268
0.244339
0.244338
0.236228
0.236231
0.229843
0.229844
0.225014
0.225005
0.221738
0.221696
0.220677
0.220488
0.224827
0.223854
0.245727
0.24044
0.348668
0.593125
0.588377
1.0866
1.0957
2.26318
2.26725
2.24266
2.235
2.23315
13.692
10.2756
9.75935
7.95371
7.66746
6.47345
6.27503
5.39438
5.24726
4.59405
4.49303
4.08866
4.00793
3.56714
3.4853
3.0755
3.00125
2.63849
2.57344
2.25891
2.20278
1.93276
1.88468
1.65386
1.61273
1.41493
1.37933
1.20522
1.17104
0.979429
0.809295
0.784163
0.681127
0.663756
0.584612
0.570957
0.507634
0.496646
0.445446
0.436559
0.395164
0.387995
0.354699
0.348958
0.322442
0.317909
0.297213
0.293752
0.278424
0.276075
0.26684
0.265045
0.255497
0.253778
0.245469
0.244016
0.237222
0.236055
0.230701
0.229798
0.225755
0.225103
0.222388
0.222045
0.221287
0.221561
0.22561
0.227758
0.248313
0.259065
0.367127
0.581095
0.641129
1.06507
1.19872
2.14251
2.23431
2.23539
2.23364
2.23308
13.2651
10.4925
9.68766
8.09921
7.6151
6.56581
6.2315
5.4612
5.21498
4.64562
4.47496
4.11523
3.97884
3.596
3.46003
3.10335
2.97968
2.66356
2.55505
2.28082
2.18713
1.95164
1.87135
1.66999
1.60124
1.42852
1.36865
1.21557
1.15617
0.98211
0.825309
0.780555
0.689302
0.659811
0.590537
0.567645
0.512346
0.493972
0.449286
0.434436
0.398315
0.386339
0.357289
0.3477
0.324569
0.317003
0.298959
0.293191
0.279845
0.275887
0.26768
0.264651
0.256365
0.253513
0.246284
0.243868
0.237949
0.236004
0.231339
0.229835
0.226316
0.225239
0.222899
0.222366
0.22181
0.222437
0.226423
0.230879
0.251243
0.273751
0.381301
0.575171
0.679271
1.0551
1.26927
2.05585
2.20493
2.22817
2.23215
2.23292
12.9493
10.631
9.64747
8.20066
7.58547
6.62969
6.20552
5.50717
5.19572
4.68134
4.46454
4.13296
3.95967
3.61506
3.44366
3.12194
2.96587
2.68038
2.54335
2.29555
2.1772
1.96435
1.8629
1.68085
1.59394
1.43762
1.36172
1.22218
1.14589
0.984106
0.83684
0.778805
0.694999
0.657448
0.594595
0.565617
0.515563
0.492332
0.451911
0.433142
0.400476
0.385341
0.359071
0.346955
0.326043
0.316485
0.30018
0.292898
0.280855
0.275832
0.268273
0.264428
0.256975
0.253383
0.246865
0.243818
0.238474
0.236019
0.231805
0.229908
0.226733
0.22538
0.223289
0.22264
0.222237
0.223131
0.227168
0.233314
0.254038
0.284985
0.391969
0.572782
0.706489
1.05153
1.31687
1.99462
2.18051
2.22164
2.23073
2.23271
12.7264
10.7162
9.62597
8.269
7.5696
6.67243
6.19062
5.53776
5.18469
4.70524
4.45881
4.14443
3.94745
3.62726
3.43338
3.13397
2.95729
2.69132
2.53613
2.30515
2.17109
1.97264
1.85771
1.68793
1.58944
1.44352
1.35735
1.22627
1.13905
0.985526
0.8448
0.778083
0.69884
0.656089
0.597286
0.564417
0.517691
0.491361
0.453649
0.432381
0.401909
0.384761
0.360259
0.346532
0.327029
0.316202
0.301004
0.292759
0.281545
0.27584
0.268679
0.264309
0.257389
0.253328
0.247264
0.243816
0.238837
0.236059
0.232132
0.229984
0.22703
0.225501
0.223573
0.222855
0.222563
0.223648
0.227778
0.235115
0.256371
0.293125
0.39963
0.57222
0.725193
1.05109
1.3479
1.953
2.16181
2.21632
2.22951
2.23251
12.5842
10.7647
9.6153
8.31117
7.56178
6.69869
6.18269
5.55648
5.17881
4.71993
4.45588
4.1513
3.94023
3.63448
3.42739
3.14116
2.95235
2.69788
2.53199
2.31092
2.1676
1.97762
1.85474
1.69219
1.58687
1.44705
1.3548
1.22862
1.13487
0.98644
0.8498
0.777858
0.701213
0.655363
0.598927
0.563757
0.518986
0.490827
0.454707
0.431965
0.402784
0.384448
0.360985
0.346308
0.327635
0.316061
0.301514
0.292701
0.281977
0.275866
0.268932
0.264251
0.257646
0.253309
0.247514
0.24383
0.239067
0.236097
0.23234
0.230045
0.227221
0.225589
0.223758
0.223002
0.222782
0.223993
0.228207
0.236308
0.258032
0.298421
0.404592
0.572384
0.736921
1.05175
1.36654
1.92715
2.14921
2.21257
2.22863
2.23235
12.5148
10.7867
9.61098
8.33131
7.55865
6.71118
6.17929
5.56536
5.17629
4.72691
4.45467
4.15451
3.93689
3.63784
3.42464
3.14452
2.9501
2.70095
2.53011
2.31363
2.16602
1.97997
1.8534
1.69419
1.5857
1.44871
1.35363
1.22969
1.13289
0.986888
0.852212
0.777819
0.702348
0.65505
0.599704
0.563467
0.519598
0.490591
0.455208
0.431783
0.403198
0.384312
0.361331
0.346213
0.327924
0.316003
0.301758
0.292683
0.282185
0.275886
0.269054
0.264228
0.25777
0.253305
0.247635
0.243841
0.239179
0.23612
0.232441
0.230079
0.227314
0.225636
0.22385
0.223078
0.222893
0.224165
0.228429
0.236902
0.258892
0.301031
0.407033
0.572619
0.742576
1.05234
1.37527
1.91477
2.14287
2.21064
2.22816
2.23226
-13.1895
-11.5675
-10.5485
-9.58257
-9.06517
-8.58929
-8.32741
-8.07332
-7.93279
-7.79472
-7.69996
-7.57507
-7.4874
-7.37356
-7.29439
-7.19245
-7.12172
-7.03083
-6.96783
-6.88695
-6.83096
-6.75917
-6.70949
-6.64582
-6.60167
-6.54484
-6.50469
-6.45133
-6.40893
-6.34404
-6.28376
-6.25042
-6.21663
-6.19559
-6.17122
-6.15549
-6.13678
-6.12466
-6.11024
-6.10094
-6.08995
-6.0829
-6.07465
-6.06941
-6.06333
-6.05952
-6.05519
-6.05255
-6.04967
-6.04804
-6.04642
-6.04541
-6.04424
-6.04363
-6.04316
-6.04317
-6.04368
-6.04455
-6.04647
-6.04862
-6.05265
-6.05683
-6.06433
-6.072
-6.08579
-6.10036
-6.12752
-6.15934
-6.22432
-6.31845
-6.53085
-6.82522
-7.08812
-7.52556
-7.94316
-8.60741
-8.88707
-8.97007
-8.99155
-8.99654
-13.2544
-11.5434
-10.5465
-9.56467
-9.06355
-8.58077
-8.32712
-8.0688
-7.93272
-7.79301
-7.70118
-7.57361
-7.48846
-7.37219
-7.29531
-7.19122
-7.12254
-7.02972
-6.96855
-6.88597
-6.8316
-6.75829
-6.71006
-6.64505
-6.60219
-6.54418
-6.50522
-6.4509
-6.40983
-6.34386
-6.28269
-6.25045
-6.21612
-6.19573
-6.17088
-6.15561
-6.13652
-6.12475
-6.11004
-6.10101
-6.08979
-6.08295
-6.07453
-6.06944
-6.06324
-6.05954
-6.05512
-6.05256
-6.04962
-6.04803
-6.04639
-6.04541
-6.04421
-6.04362
-6.04314
-6.04314
-6.04366
-6.0445
-6.04645
-6.04854
-6.05264
-6.05668
-6.06432
-6.07175
-6.08575
-6.09985
-6.12732
-6.15801
-6.22315
-6.31371
-6.52756
-6.82647
-7.08113
-7.52635
-7.93329
-8.62278
-8.89493
-8.97252
-8.99219
-8.99673
-13.3879
-11.4909
-10.5438
-9.52758
-9.06123
-8.56311
-8.32706
-8.05943
-7.93281
-7.78941
-7.70387
-7.57046
-7.49079
-7.36927
-7.29735
-7.18858
-7.12434
-7.02736
-6.97014
-6.88386
-6.833
-6.75641
-6.7113
-6.64339
-6.60331
-6.54276
-6.50637
-6.44994
-6.41174
-6.34349
-6.28046
-6.25056
-6.21507
-6.19605
-6.17016
-6.15589
-6.13597
-6.12497
-6.10961
-6.10116
-6.08945
-6.08306
-6.07427
-6.06951
-6.06304
-6.05958
-6.05497
-6.05257
-6.0495
-6.04802
-6.04633
-6.04541
-6.04416
-6.0436
-6.04308
-6.04308
-6.04362
-6.0444
-6.04642
-6.04836
-6.05262
-6.05639
-6.0643
-6.07122
-6.0857
-6.09879
-6.12699
-6.15529
-6.22095
-6.30404
-6.52086
-6.82948
-7.06651
-7.52865
-7.9121
-8.65484
-8.91056
-8.97728
-8.99344
-8.99709
-13.5973
-11.4003
-10.544
-9.46854
-9.06021
-8.53499
-8.32829
-8.04443
-7.93361
-7.78352
-7.70848
-7.56519
-7.49482
-7.36437
-7.30087
-7.18417
-7.12746
-7.02342
-6.97291
-6.88034
-6.83544
-6.75328
-6.71346
-6.64063
-6.60526
-6.54038
-6.50833
-6.44826
-6.41485
-6.34292
-6.27692
-6.2509
-6.21336
-6.19665
-6.16898
-6.1564
-6.13506
-6.12536
-6.1089
-6.10145
-6.0889
-6.08326
-6.07385
-6.06965
-6.06272
-6.05967
-6.05472
-6.05261
-6.04932
-6.04802
-6.04623
-6.04542
-6.04406
-6.04357
-6.043
-6.043
-6.04356
-6.04425
-6.04639
-6.04809
-6.05262
-6.05592
-6.06432
-6.07039
-6.08569
-6.09713
-6.12664
-6.15106
-6.21804
-6.289
-6.51048
-6.83534
-7.04287
-7.5341
-7.87653
-8.70636
-8.93373
-8.98404
-8.99517
-8.99759
-13.8946
-11.2562
-10.553
-9.38285
-9.06391
-8.49417
-8.33263
-8.02255
-7.936
-7.77465
-7.71585
-7.55702
-7.50126
-7.35682
-7.30653
-7.17738
-7.13248
-7.01735
-6.97736
-6.87492
-6.83938
-6.74846
-6.71694
-6.63637
-6.60839
-6.5367
-6.51141
-6.44552
-6.41951
-6.34212
-6.27178
-6.25171
-6.21082
-6.1977
-6.1672
-6.15726
-6.13369
-6.12602
-6.10783
-6.10194
-6.08808
-6.08362
-6.07321
-6.06989
-6.06224
-6.05982
-6.05436
-6.05269
-6.04905
-6.04802
-6.04608
-6.04544
-6.04393
-6.04353
-6.04289
-6.04289
-6.04349
-6.04402
-6.04636
-6.0477
-6.05265
-6.05524
-6.06443
-6.06917
-6.08584
-6.09473
-6.12649
-6.14513
-6.21496
-6.26793
-6.49596
-6.84589
-7.00788
-7.54548
-7.82145
-8.78198
-8.96398
-8.99237
-8.99724
-8.99817
-14.2975
-11.0348
-10.5807
-9.26315
-9.07768
-8.43705
-8.34295
-7.99175
-7.94141
-7.7617
-7.72725
-7.54474
-7.51127
-7.34551
-7.31536
-7.16723
-7.14033
-7.00828
-6.98432
-6.86684
-6.84554
-6.74128
-6.7224
-6.63002
-6.61327
-6.53116
-6.51613
-6.44119
-6.42623
-6.34105
-6.26464
-6.25335
-6.20717
-6.19944
-6.1646
-6.15867
-6.13169
-6.1271
-6.10628
-6.10276
-6.08688
-6.08421
-6.07229
-6.07031
-6.06154
-6.0601
-6.05384
-6.05284
-6.04867
-6.04806
-6.04588
-6.0455
-6.04374
-6.0435
-6.04275
-6.04274
-6.04341
-6.04372
-6.04637
-6.04716
-6.05277
-6.05429
-6.0647
-6.06747
-6.08628
-6.09141
-6.12686
-6.13714
-6.21256
-6.23985
-6.47655
-6.86395
-6.95785
-7.56732
-7.73899
-8.88872
-9.00037
-9.00162
-8.99946
-8.99878
-14.8311
-10.701
-10.6431
-9.0982
-9.10969
-8.3581
-8.36358
-7.94893
-7.95202
-7.74296
-7.74459
-7.52653
-7.52659
-7.32879
-7.32893
-7.15225
-7.15239
-6.9949
-6.99503
-6.85491
-6.85503
-6.73068
-6.7308
-6.62064
-6.62077
-6.52294
-6.52324
-6.43446
-6.43576
-6.33962
-6.2549
-6.2564
-6.20199
-6.20228
-6.16084
-6.16093
-6.12879
-6.12884
-6.10403
-6.10406
-6.08514
-6.08517
-6.07098
-6.071
-6.06055
-6.06056
-6.05311
-6.05312
-6.04814
-6.04816
-6.0456
-6.0456
-6.04349
-6.04348
-6.04258
-6.04257
-6.04334
-6.04332
-6.04644
-6.04641
-6.05305
-6.05298
-6.06527
-6.06513
-6.08727
-6.08687
-6.12822
-6.12654
-6.21207
-6.20339
-6.45111
-6.89374
-6.8872
-7.60666
-7.61739
-9.03698
-9.04115
-9.011
-9.00161
-8.99935
-15.5299
-10.2044
-10.7649
-8.87102
-9.17225
-8.24889
-8.40103
-7.88943
-7.97113
-7.71581
-7.77073
-7.4996
-7.54984
-7.30417
-7.34958
-7.1302
-7.17077
-6.97522
-7.01136
-6.83738
-6.8695
-6.71511
-6.74361
-6.60686
-6.6322
-6.5108
-6.53392
-6.42414
-6.4492
-6.33775
-6.24171
-6.26168
-6.19463
-6.20678
-6.15543
-6.16447
-6.12461
-6.13157
-6.10079
-6.10613
-6.08265
-6.0867
-6.06909
-6.0721
-6.05914
-6.06132
-6.05207
-6.05359
-6.04741
-6.04836
-6.04521
-6.04579
-6.04315
-6.04349
-6.04236
-6.04235
-6.04329
-6.04279
-6.04664
-6.04539
-6.05358
-6.05117
-6.06633
-6.06188
-6.08914
-6.08065
-6.1313
-6.11244
-6.21534
-6.15667
-6.41786
-6.94148
-6.78749
-7.67435
-7.43943
-9.24185
-9.08331
-9.01955
-9.00347
-8.99982
-16.4418
-9.47239
-10.9849
-8.55606
-9.28381
-8.09668
-8.46506
-7.80622
-8.00375
-7.67627
-7.80993
-7.45984
-7.58495
-7.26792
-7.38084
-7.09776
-7.1986
-6.94628
-7.0361
-6.81161
-6.89144
-6.69223
-6.76304
-6.58659
-6.6495
-6.49289
-6.54992
-6.40842
-6.4681
-6.33526
-6.22388
-6.27046
-6.1841
-6.21383
-6.1476
-6.16998
-6.11856
-6.13582
-6.0961
-6.10934
-6.07906
-6.08909
-6.06637
-6.07384
-6.05712
-6.06254
-6.0506
-6.05436
-6.04639
-6.04871
-6.04466
-6.0461
-6.04268
-6.04356
-6.04209
-6.04209
-6.0433
-6.04207
-6.04703
-6.04399
-6.05454
-6.04865
-6.06817
-6.05736
-6.09245
-6.07205
-6.13716
-6.09346
-6.22506
-6.09714
-6.37411
-7.01633
-6.64615
-7.78689
-7.17996
-9.52515
-9.12166
-9.02617
-9.00482
-9.00014
-17.6326
-8.40116
-11.3627
-8.11488
-9.47202
-7.88228
-8.57021
-7.68878
-8.05739
-7.61831
-7.86851
-7.40108
-7.63776
-7.21449
-7.42795
-7.04998
-7.24058
-6.90366
-7.07343
-6.77367
-6.92454
-6.65855
-6.79236
-6.55676
-6.67559
-6.46643
-6.57387
-6.38467
-6.4947
-6.33193
-6.19975
-6.28455
-6.16893
-6.22473
-6.13624
-6.17845
-6.10976
-6.14234
-6.08929
-6.1143
-6.07386
-6.0928
-6.06245
-6.07654
-6.0542
-6.06444
-6.0485
-6.0556
-6.04496
-6.04931
-6.04389
-6.04659
-6.04204
-6.04372
-6.04175
-6.04178
-6.0434
-6.04111
-6.04773
-6.04204
-6.05614
-6.0451
-6.07121
-6.051
-6.09796
-6.06003
-6.14736
-6.06746
-6.24516
-6.02141
-6.31574
-7.13166
-6.44435
-7.96934
-6.8024
-9.91838
-9.14768
-9.02982
-9.00549
-9.00025
)
;

boundaryField
{
    F1_1
    {
        type            calculated;
        value           nonuniform List<scalar> 
80
(
18.3075
7.7597
11.5998
7.84427
9.58913
7.72919
8.63539
7.55865
8.09322
7.41072
7.73573
7.3554
7.60176
7.17144
7.4189
7.01202
7.24296
6.8708
7.08088
6.74529
6.93409
6.63402
6.80254
6.53552
6.68575
6.44794
6.58404
6.36827
6.50694
6.32816
6.18496
6.29158
6.15917
6.2301
6.12887
6.18262
6.10406
6.14556
6.0849
6.11675
6.07051
6.09462
6.05993
6.07787
6.05235
6.06537
6.04717
6.0562
6.04405
6.04958
6.04339
6.04681
6.04163
6.04376
6.04155
6.04157
6.04347
6.04053
6.04818
6.04089
6.05714
6.04302
6.07309
6.04727
6.10138
6.05301
6.15375
6.05238
6.25832
5.97901
6.2822
7.20121
6.32542
8.08149
6.5785
10.1467
9.15592
9.03042
9.00529
8.9999
)
;
    }
    F1_2
    {
        type            calculated;
        value           nonuniform List<scalar> 
80
(
-17.9077
-6.91669
-11.3045
-6.09675
-8.72829
-5.25924
-7.07793
-4.50341
-5.84317
-3.92403
-4.85237
-3.69826
-4.44019
-3.13887
-3.87881
-2.67348
-3.34639
-2.28101
-2.87141
-1.94825
-2.45801
-1.66575
-2.10261
-1.42559
-1.79967
-1.22009
-1.54584
-1.03962
-1.35916
-0.952073
-0.633316
-0.872601
-0.575353
-0.735814
-0.504504
-0.629056
-0.443531
-0.543499
-0.393382
-0.474175
-0.352769
-0.417929
-0.320256
-0.372428
-0.294623
-0.33579
-0.275016
-0.306406
-0.261282
-0.282814
-0.256405
-0.27288
-0.244641
-0.260162