/*--------------------------------*- C++ -*----------------------------------*\
| =========                 |                                                 |
| \\      /  F ield         | OpenFOAM: The Open Source CFD Toolbox           |
|  \\    /   O peration     | Version:  5.x                                   |
|   \\  /    A nd           | Web:      www.OpenFOAM.org                      |
|    \\/     M anipulation  |                                                 |
\*---------------------------------------------------------------------------*/
FoamFile
{
    version     2.0;
    format      ascii;
    class       volScalarField;
    location    "17.7";
    object      gradTx;
}
// * * * * * * * * * * * * * * * * * * * * * * * * * * * * * * * * * * * * * //

dimensions      [0 -1 0 1 0 0 0];

internalField   nonuniform List<scalar> 
2048
(
0.00630489
0.0187342
0.0306385
0.04172
0.0517496
0.0605781
0.0681351
0.0744183
0.0794775
0.0833956
0.0862722
0.0882118
0.0893162
0.0896824
0.0894028
0.0885664
0.0872602
0.0855676
0.0835665
0.0813253
0.0788999
0.0763308
0.0736431
0.0708467
0.0679395
0.0649094
0.0617367
0.058396
0.0548564
0.051082
0.0470326
0.0426644
0.0379324
0.0327921
0.0272014
0.0211228
0.0145241
0.0073791
-0.000331804
-0.00862028
-0.0174879
-0.0269223
-0.0368923
-0.0473402
-0.0581748
-0.0692611
-0.080412
-0.0913805
-0.101855
-0.111463
-0.119781
-0.126359
-0.130753
-0.13257
-0.131512
-0.127416
-0.120277
-0.110248
-0.0976155
-0.082765
-0.0661296
-0.0481502
-0.0292469
-0.00980738
0.0187883
0.0558177
0.0912563
0.124205
0.153979
0.180137
0.202479
0.221013
0.235901
0.247401
0.255819
0.261468
0.264653
0.265659
0.264759
0.262215
0.258284
0.253216
0.247243
0.240572
0.233368
0.225753
0.217798
0.209534
0.200949
0.192007
0.182649
0.172799
0.162364
0.15124
0.139304
0.126428
0.112476
0.0973145
0.080818
0.0628747
0.043389
0.0222826
-0.000503212
-0.0250049
-0.05123
-0.0791468
-0.108668
-0.139631
-0.171772
-0.204701
-0.23787
-0.270553
-0.301828
-0.330582
-0.355546
-0.375358
-0.388672
-0.394289
-0.391296
-0.379192
-0.357962
-0.328074
-0.290412
-0.246152
-0.196608
-0.143109
-0.086905
-0.0291382
0.0311398
0.0924827
0.151106
0.205485
0.254473
0.297353
0.333828
0.363954
0.388045
0.406565
0.420044
0.429012
0.43397
0.435383
0.433689
0.429317
0.422688
0.414216
0.404291
0.393256
0.381392
0.368896
0.355884
0.342397
0.328412
0.313862
0.298646
0.28264
0.265693
0.24763
0.228252
0.207343
0.184675
0.160024
0.133184
0.103967
0.0722171
0.0378045
0.000630585
-0.0393694
-0.0822172
-0.127874
-0.176214
-0.226994
-0.279805
-0.334035
-0.38881
-0.442956
-0.494962
-0.542985
-0.584895
-0.618382
-0.641134
-0.651074
-0.646609
-0.626861
-0.5918
-0.542253
-0.479769
-0.406389
-0.324373
-0.235961
-0.143224
-0.0480091
0.0435994
0.129425
0.211274
0.28694
0.354796
0.413872
0.463824
0.504819
0.537388
0.562256
0.580208
0.592003
0.598334
0.599832
0.597085
0.590673
0.581178
0.569181
0.555237
0.539838
0.523379
0.506136
0.48826
0.469794
0.450691
0.430847
0.410117
0.388328
0.365274
0.340714
0.31437
0.285935
0.255086
0.221507
0.184903
0.145015
0.101626
0.0545571
0.00366933
-0.0511363
-0.109907
-0.172614
-0.23912
-0.30913
-0.382134
-0.457336
-0.533585
-0.609298
-0.682404
-0.750328
-0.81004
-0.858201
-0.891417
-0.906592
-0.901328
-0.87429
-0.825432
-0.756012
-0.66838
-0.565592
-0.450973
-0.327744
-0.198792
-0.0666105
0.0563827
0.167268
0.272721
0.369771
0.456285
0.531068
0.593798
0.644854
0.685072
0.715511
0.737261
0.751321
0.758568
0.759773
0.755653
0.746922
0.734319
0.718601
0.700503
0.680679
0.659652
0.637773
0.615221
0.592022
0.568091
0.543276
0.517383
0.490194
0.461452
0.430854
0.398043
0.362616
0.324145
0.282213
0.236436
0.186482
0.132075
0.0729923
0.00905288
-0.0598811
-0.133895
-0.212994
-0.297058
-0.385781
-0.478596
-0.574583
-0.672367
-0.770014
-0.864925
-0.953796
-1.03265
-1.09699
-1.14216
-1.16386
-1.15868
-1.1247
-1.06185
-0.971943
-0.858329
-0.725315
-0.577482
-0.419134
-0.253974
-0.0850558
0.0696947
0.206598
0.336341
0.455073
0.560122
0.650109
0.724841
0.785033
0.831953
0.867091
0.891892
0.907612
0.91529
0.915801
0.909954
0.898577
0.882564
0.862863
0.840413
0.816057
0.790458
0.764044
0.737004
0.709328
0.680869
0.65141
0.620708
0.588502
0.554497
0.518333
0.479571
0.437703
0.392186
0.342489
0.288132
0.22871
0.163898
0.0934298
0.0170894
-0.0653058
-0.153894
-0.248737
-0.349768
-0.456714
-0.569005
-0.685662
-0.805161
-0.925282
-1.04296
-1.15416
-1.25391
-1.33641
-1.39553
-1.42543
-1.42143
-1.38085
-1.30358
-1.19214
-1.05119
-0.886623
-0.704541
-0.510465
-0.308917
-0.103385
0.0837393
0.247996
0.403003
0.543882
0.667382
0.772013
0.857845
0.926099
0.978642
1.01751
1.04456
1.06132
1.06895
1.06837
1.06043
1.04605
1.02628
1.00227
0.975213
0.946173
0.915974
0.885123
0.853798
0.821918
0.789244
0.755474
0.72031
0.683463
0.644615
0.60336
0.559176
0.511435
0.459461
0.402592
0.340245
0.271943
0.197318
0.116079
0.0279765
-0.0672181
-0.16971
-0.279645
-0.397045
-0.521718
-0.653152
-0.79038
-0.931817
-1.07505
-1.21663
-1.35183
-1.47461
-1.57773
-1.65326
-1.69348
-1.69204
-1.64521
-1.55281
-1.41831
-1.24811
-1.05014
-0.832385
-0.601755
-0.363563
-0.121567
0.0987283
0.292058
0.473582
0.637212
0.779079
0.897677
0.993533
1.0686
1.12553
1.16706
1.19554
1.21273
1.21985
1.21782
1.20744
1.18969
1.16575
1.13706
1.10508
1.07116
1.03632
1.00114
0.965752
0.929969
0.893408
0.85566
0.816369
0.775239
0.731956
0.686085
0.637018
0.58399
0.526161
0.462717
0.392958
0.316343
0.232476
0.141057
0.041817
-0.0655179
-0.181235
-0.305591
-0.438737
-0.58061
-0.730816
-0.888483
-1.05206
-1.21908
-1.38579
-1.54686
-1.69517
-1.82184
-1.91681
-1.96996
-1.97276
-1.92005
-1.81151
-1.65186
-1.44985
-1.21608
-0.960865
-0.69271
-0.41766
-0.139505
0.114887
0.339414
0.548989
0.736084
0.896183
1.0279
1.13248
1.21288
1.27281
1.31585
1.34491
1.36196
1.36821
1.36443
1.35129
1.32977
1.30123
1.2674
1.23012
1.19109
1.15155
1.11216
1.07299
1.03364
0.993543
0.952148
0.909041
0.863953
0.81662
0.766605
0.713208
0.655495
0.592427
0.523004
0.446397
0.362007
0.269437
0.168401
0.0586319
-0.0601856
-0.188435
-0.326516
-0.474747
-0.633242
-0.801785
-0.97968
-1.16554
-1.35694
-1.55004
-1.739
-1.91565
-2.06929
-2.18733
-2.25662
-2.26574
-2.20757
-2.08149
-1.89394
-1.65681
-1.38423
-1.08945
-0.782737
-0.470765
-0.157036
0.132463
0.390746
0.63019
0.841551
1.01964
1.16341
1.27513
1.35913
1.42047
1.46379
1.4926
1.50904
1.51415
1.5084
1.49224
1.46657
1.43293
1.39344
1.35041
1.30597
1.26168
1.21825
1.1756
1.13307
1.08983
1.04511
0.99846
0.949696
0.898667
0.844972
0.78781
0.726039
0.658364
0.583559
0.500646
0.408983
0.308204
0.19808
0.0783706
-0.0512725
-0.191344
-0.34242
-0.50503
-0.679508
-0.865867
-1.06367
-1.2718
-1.48809
-1.70877
-1.92773
-2.13579
-2.32032
-2.46572
-2.55508
-2.57313
-2.50998
-2.36451
-2.14548
-1.86905
-1.55402
-1.21724
-0.870954
-0.522257
-0.17394
0.151727
0.446802
0.718224
0.954711
1.1504
1.30484
1.4218
1.50738
1.56833
1.61062
1.6384
1.65387
1.65771
1.64993
1.63055
1.60033
1.56104
1.51527
1.46595
1.41578
1.36668
1.31942
1.27368
1.22843
1.18244
1.13472
1.08475
1.03253
0.978111
0.921193
0.860854
0.79568
0.724054
0.644463
0.555757
0.457275
0.348732
0.230004
0.100919
-0.038893
-0.190056
-0.353365
-0.529601
-0.719357
-0.922916
-1.14017
-1.3704
-1.61189
-1.86121
-2.11224
-2.355
-2.57485
-2.75267
-2.86687
-2.89711
-2.82961
-2.66237
-2.40725
-2.08629
-1.72443
-1.34295
-0.956204
-0.571357
-0.189944
0.172981
0.508405
0.814223
1.07672
1.28938
1.45277
1.57267
1.65746
1.71605
1.75594
1.782
1.7963
1.79893
1.78918
1.76648
1.73131
1.68573
1.63297
1.57673
1.52043
1.46646
1.41564
1.3673
1.31987
1.27159
1.22116
1.16803
1.11248
1.05493
0.995238
0.932339
0.864456
0.789564
0.705785
0.611764
0.506856
0.390931
0.264035
0.12611
-0.0232166
-0.184719
-0.359459
-0.548526
-0.752795
-0.97284
-1.20893
-1.46088
-1.72762
-2.00639
-2.29146
-2.57238
-2.83245
-3.04858
-3.1934
-3.23998
-3.16899
-2.97692
-2.67983
-2.30786
-1.89401
-1.46495
-1.03708
-0.61715
-0.204732
0.196567
0.576471
0.919422
1.20881
1.43751
1.60769
1.72779
1.80908
1.86308
1.89918
1.92295
1.9361
1.93781
1.92636
1.90032
1.85979
1.80719
1.74661
1.68269
1.61978
1.5609
1.50689
1.45656
1.40756
1.35752
1.30466
1.24843
1.18954
1.12904
1.06704
1.00224
0.932392
0.854956
0.767592
0.668688
0.557674
0.434677
0.299988
0.153723
-0.00446105
-0.175521
-0.360856
-0.561921
-0.779893
-1.01562
-1.26977
-1.54282
-1.83457
-2.14328
-2.46414
-2.78671
-3.09238
-3.3536
-3.53604
-3.60421
-3.53096
-3.31019
-2.96366
-2.53269
-2.06089
-1.58124
-1.11197
-0.658615
-0.217961
0.222862
0.65201
1.03517
1.35228
1.59572
1.76999
1.8871
1.96179
2.00875
2.03964
2.06074
2.07303
2.07434
2.06166
2.0324
1.98606
1.9256
1.85622
1.78372
1.71364
1.64983
1.59312
1.54153
1.49171
1.44048
1.38546
1.32606
1.2637
1.20035
1.13648
1.07051
0.999501
0.920295
0.829958
0.726546
0.609658
0.479816
0.33764
0.183499
0.0171149
-0.162688
-0.357744
-0.569951
-0.800785
-1.05132
-1.32262
-1.6159
-1.93204
-2.27075
-2.62878
-2.99643
-3.35351
-3.66757
-3.89601
-3.9925
-3.91883
-3.66446
-3.25895
-2.75923
-2.22269
-1.6895
-1.17909
-0.694674
-0.229272
0.252295
0.736139
1.16293
1.50853
1.76489
1.93997
2.05042
2.115
2.15221
2.17649
2.19479
2.20681
2.20851
2.19534
2.16312
2.11046
2.04114
1.96184
1.87971
1.80179
1.73303
1.67425
1.62233
1.57256
1.52079
1.46387
1.40105
1.33487
1.26866
1.20344
1.13709
1.0658
0.985654
0.892975
0.785357
0.662718
0.526169
0.37674
0.215138
0.0412167
-0.146474
-0.350333
-0.572813
-0.815668
-1.08009
-1.36747
-1.67986
-2.01942
-2.38764
-2.78374
-3.19971
-3.61435
-3.98994
-4.27437
-4.4078
-4.33647
-4.04231
-3.56569
-2.98538
-2.37656
-1.78713
-1.23656
-0.724239
-0.238316
0.285346
0.830081
1.3043
1.67905
1.94589
2.11781
2.21743
2.26798
2.29245
2.30877
2.32446
2.33719
2.34032
2.32767
2.29295
2.23337
2.15399
2.06351
1.97051
1.88391
1.81023
1.7502
1.69908
1.65034
1.5988
1.54025
1.47356
1.40293
1.33375
1.26774
1.20192
1.13128
1.05112
0.956768
0.845147
0.716744
0.573539
0.417007
0.248306
0.0675199
-0.127145
-0.338844
-0.570731
-0.824802
-1.10217
-1.40444
-1.73461
-2.0962
-2.49283
-2.92721
-3.39442
-3.87302
-4.31976
-4.67189
-4.85337
-4.78853
-4.44679
-3.88353
-3.20838
-2.5191
-1.87131
-1.28246
-0.746269
-0.244768
0.322566
0.935163
1.46101
1.86545
2.13949
2.3035
2.38776
2.4199
2.42832
2.4354
2.4491
2.46393
2.46979
2.45899
2.42249
2.35518
2.26429
2.16129
2.05595
1.95965
1.88111
1.82092
1.77196
1.72533
1.67491
1.61505
1.54376
1.4677
1.39532
1.32918
1.26497
1.19596
1.11678
1.0215
0.905949
0.771608
0.621717
0.458143
0.282636
0.0956732
-0.104978
-0.323492
-0.563944
-0.828499
-1.1179
-1.43376
-1.78016
-2.16205
-2.58526
-3.05732
-3.57815
-4.12727
-4.65562
-5.08892
-5.33272
-5.28069
-4.88148
-4.21167
-3.42469
-2.64644
-1.93907
-1.31496
-0.759835
-0.248352
0.364593
1.0528
1.63486
2.06949
2.34639
2.49684
2.56095
2.56987
2.55852
2.55518
2.56807
2.58691
2.59689
2.58966
2.55245
2.47633
2.37218
2.25525
2.13587
2.02856
1.94526
1.88631
1.8412
1.79779
1.74957
1.68883
1.61183
1.52891
1.45296
1.38755
1.3262
1.25982
1.18276
1.08742
0.967804
0.827145
0.670494
0.499839
0.31773
0.125301
-0.0802481
-0.304474
-0.552688
-0.827121
-1.12771
-1.45576
-1.81671
-2.21685
-2.66399
-3.17208
-3.74826
-4.37449
-4.99559
-5.52518
-5.8496
-5.81999
-5.35067
-4.54863
-3.62981
-2.75419
-1.98739
-1.33241
-0.764179
-0.248856
0.412192
1.1845
1.82777
2.29312
2.56711
2.69733
2.73655
2.71695
2.68158
2.66678
2.68077
2.70611
2.72155
2.72002
2.68377
2.59725
2.47765
2.34555
2.21012
2.09012
2.0022
1.94634
1.9071
1.86794
1.82323
1.76233
1.678
1.58618
1.50617
1.44263
1.38566
1.32282
1.24916
1.15483
1.03076
0.883143
0.719667
0.541781
0.353153
0.156005
-0.0532231
-0.281951
-0.537184
-0.821073
-1.13213
-1.47084
-1.84457
-2.26074
-2.72825
-3.26952
-3.90188
-4.61184
-5.33725
-5.97947
-6.40789
-6.41522
-5.85951
-4.89197
-3.81814
-2.83756
-2.01339
-1.3334
-0.758766
-0.246153
0.46632
1.33177
2.04166
2.53862
2.80195
2.90411
2.91419
2.8602
2.79586
2.76874
2.78666
2.82173
2.84357
2.85043
2.81766
2.71836
2.58059
2.43244
2.27857
2.14369
2.05135
2.00101
1.97011
1.93595
1.89635
1.83648
1.74252
1.63899
1.55433
1.49421
1.44349
1.38484
1.31606
1.22421
1.09485
0.939312
0.769071
0.583663
0.388435
0.187363
-0.0241561
-0.25603
-0.51762
-0.810797
-1.13178
-1.47947
-1.8642
-2.29423
-2.77751
-3.34763
-4.03594
-4.83625
-5.67771
-6.44925
-7.01139
-7.07751
-6.4142
-5.23786
-3.98283
-2.89142
-2.0144
-1.31693
-0.743336
-0.240212
0.528243
1.49612
2.2784
2.80871
3.05089
3.11576
3.09375
2.99875
2.89951
2.85943
2.88533
2.9343
2.96251
2.98114
2.95576
2.83998
2.68059
2.51641
2.34115
2.18848
2.092
2.05034
2.03086
2.00181
1.96933
1.91255
1.80567
1.68665
1.59668
1.54212
1.49999
1.44568
1.38353
1.29623
1.16009
0.995246
0.818607
0.625197
0.423057
0.218928
0.00671704
-0.226749
-0.494134
-0.796766
-1.12741
-1.48213
-1.87612
-2.31821
-2.81149
-3.40445
-4.14721
-5.04463
-6.01386
-6.93014
-7.6635
-7.82114
-7.02219
-5.58053
-4.11556
-2.9105
-1.98822
-1.28244
-0.717926
-0.231099
0.59971
1.67894
2.53963
3.10682
3.31346
3.33017
3.27555
3.13183
2.99045
2.93704
2.97649
3.04481
3.07758
3.11221
3.10032
2.96232
2.77689
2.59823
2.39787
2.22354
2.12329
2.09444
2.09027
2.06526
2.04248
1.99223
1.86773
1.7282
1.63228
1.58621
1.55571
1.50494
1.45151
1.37184
1.22645
1.05036
0.868293
0.66612
0.456437
0.250229
0.0391787
-0.19406
-0.466803
-0.779475
-1.1199
-1.47924
-1.88087
-2.33405
-2.83019
-3.43807
-4.23222
-5.23396
-6.34262
-7.41529
-8.3667
-8.66451
-7.69247
-5.91144
-4.20656
-2.88965
-1.93325
-1.22993
-0.682885
-0.218979
0.683249
1.88141
2.82654
3.43748
3.58857
3.54423
3.46066
3.25879
3.06629
2.99951
3.06002
3.15499
3.18739
3.24343
3.2545
3.08531
2.86812
2.67923
2.44882
2.24771
2.14419
2.1335
2.14973
2.12566
2.11591
2.0778
1.92898
1.76243
1.66002
1.6264
1.61154
1.56195
1.51983
1.45246
1.29378
1.10382
0.918346
0.706201
0.487917
0.280771
0.0730257
-0.157806
-0.435618
-0.759429
-1.11033
-1.47113
-1.87889
-2.34378
-2.83395
-3.44667
-4.28727
-5.4015
-6.66156
-7.89455
-9.12179
-9.63156
-8.43572
-6.21825
-4.24452
-2.82412
-1.84869
-1.15996
-0.638866
-0.204108
0.782599
2.10427
3.13955
3.80686
3.87424
3.75345
3.65137
3.37911
3.12428
3.04453
3.1359
3.26759
3.28965
3.37411
3.42278
3.20847
2.95209
2.76148
2.49415
2.25953
2.15345
2.16773
2.21124
2.18176
2.1894
2.17243
1.9896
1.78776
1.6786
1.66267
1.66896
1.61559
1.58808
1.5401
1.36178
1.15442
0.969294
0.745239
0.51673
0.310046
0.108061
-0.117706
-0.400478
-0.737127
-1.10004
-1.45794
-1.8704
-2.35015
-2.82337
-3.42855
-4.30827
-5.54484
-6.96968
-8.35353
-9.92681
-10.7535
-9.26459
-6.48346
-4.21684
-2.71001
-1.73468
-1.07366
-0.58679
-0.18682
0.903353
2.34767
3.47777
4.22351
4.16731
3.95156
3.85172
3.49234
3.16122
3.06948
3.20421
3.38686
3.38086
3.50287
3.61151
3.33069
3.02544
2.84825
2.53404
2.25726
2.14957
2.19739
2.27779
2.23149
2.26226
2.28046
2.04957
1.80218
1.68651
1.695
1.73017
1.66415
1.6555
1.63768
1.42988
1.20045
1.02213
0.783042
0.541974
0.33754
0.144078
-0.0733349
-0.36118
-0.713021
-1.09072
-1.43956
-1.85516
-2.35694
-2.79931
-3.38219
-4.29063
-5.66202
-7.26866
-8.7724
-10.7756
-12.0713
-10.1938
-6.68267
-4.11005
-2.5447
-1.59242
-0.972728
-0.527804
-0.167504
1.05386
2.6108
3.83837
4.69947
4.46299
4.12979
4.06841
3.59787
3.1734
3.07146
3.2649
3.51915
3.45569
3.62728
3.82964
3.44993
3.08319
2.94447
2.56856
2.23873
2.13084
2.2226
2.35369
2.2716
2.33315
2.40782
2.10849
1.80324
1.68209
1.72334
1.79849
1.70505
1.72085
1.74935
1.49708
1.23952
1.07853
0.819386
0.562572
0.362768
0.180833
-0.024097
-0.317414
-0.687468
-1.0846
-1.41553
-1.83225
-2.36918
-2.76271
-3.30638
-4.22899
-5.75132
-7.56452
-9.12466
-11.6556
-13.6382
-11.2404
-6.78242
-3.91053
-2.32734
-1.42423
-0.859312
-0.463216
-0.146587
1.24649
2.89155
4.2156
5.25166
4.75429
4.27619
4.31179
3.69472
3.15653
3.04723
3.31757
3.67374
3.50648
3.74353
4.08969
3.5628
3.11826
3.05746
2.5975
2.20138
2.09529
2.24324
2.44513
2.29726
2.39977
2.56266
2.16535
1.78797
1.66353
1.74746
1.87876
1.73451
1.78222
1.88095
1.56181
1.26835
1.14115
0.853941
0.577229
0.385308
0.218012
0.0307975
-0.268782
-0.660636
-1.08459
-1.38496
-1.79972
-2.39356
-2.71445
-3.20039
-4.11702
-5.811
-7.86981
-9.37568
-12.5456
-15.5238
-12.4234
-6.73758
-3.6058
-2.05935
-1.23349
-0.735929
-0.394427
-0.124512
1.49925
3.18597
4.5996
5.90367
5.03128
4.37466
4.5973
3.78096
3.10572
2.99337
3.36099
3.86391
3.52236
3.84587
4.40894
3.66407
3.12076
3.19777
2.61999
2.14222
2.04076
2.25863
2.56088
2.30157
2.45856
2.75598
2.21805
1.75291
1.62895
1.76671
1.97781
1.74719
1.83676
2.04058
1.62164
1.28247
1.21397
0.886147
0.584394
0.404867
0.25517
0.0923686
-0.214821
-0.63238
-1.09458
-1.34648
-1.75414
-2.43895
-2.65495
-3.06421
-3.9471
-5.83857
-8.20645
-9.48118
-13.4123
-17.8184
-13.7636
-6.48821
-3.18623
-1.74483
-1.02455
-0.605327
-0.322859
-0.101712
1.83793
3.4877
4.97492
6.68808
5.28021
4.40382
4.94713
3.85299
3.01552
2.90638
3.39252
4.10819
3.48838
3.92602
4.81091
3.74598
3.07728
3.38034
2.6341
2.05782
1.96503
2.26713
2.71313
2.27494
2.50438
3.00254
2.26301
1.69414
1.57657
1.77972
2.10524
1.73569
1.88048
2.23925
1.67294
1.27597
1.30279
0.915035
0.582216
0.421359
0.291667
0.161911
-0.15507
-0.602057
-1.11967
-1.29815
-1.69006
-2.51701
-2.58377
-2.89898
-3.71005
-5.82971
-8.60918
-9.38567
-14.2059
-20.6382
-15.2833
-5.95598
-2.64745
-1.39075
-0.802486
-0.470327
-0.249887
-0.078599
2.29878
3.78722
5.31854
7.64917
5.48231
4.33571
5.39236
3.90451
2.88002
2.78295
3.40716
4.43209
3.3844
3.97241
5.32711
3.79749
2.96998
3.62586
2.63607
1.94442
1.86594
2.26558
2.91855
2.20437
2.52997
3.3219
2.29435
1.60738
1.50483
1.78394
2.27416
1.68999
1.90783
2.49178
1.71055
1.24111
1.41578
0.938975
0.568522
0.435015
0.326563
0.241053
-0.0891559
-0.568284
-1.16657
-1.23751
-1.59937
-2.64307
-2.49892
-2.70745
-3.39489
-5.77662
-9.12972
-9.02096
-14.8557
-24.1316
-17.0052
-5.04011
-1.99352
-1.00697
-0.572821
-0.333678
-0.176783
-0.0555422
2.93169
4.07099
5.59771
8.84627
5.61249
4.13436
5.97543
3.92512
2.69311
2.62033
3.39639
4.86997
3.18385
3.96936
5.99901
3.80329
2.77562
3.96234
2.61949
1.79805
1.74166
2.24848
3.1996
2.07267
2.52555
3.73965
2.3031
1.48822
1.41268
1.77499
2.50221
1.59681
1.91138
2.81765
1.72724
1.16797
1.56413
0.955335
0.540801
0.446519
0.358502
0.331838
-0.0169396
-0.528621
-1.24402
-1.16152
-1.47049
-2.83705
-2.39599
-2.4947
-2.98877
-5.66581
-9.8415
-8.30474
-15.2645
-28.4863
-18.9508
-3.61293
-1.24083
-0.605813
-0.341146
-0.197922
-0.104669
-0.0328631
3.80399
4.32044
5.76731
10.3575
5.6377
3.75416
6.75298
3.89856
2.44884
2.41685
3.34667
5.46735
2.85235
3.89608
6.88036
3.74274
2.46451
4.42708
2.5741
1.6148
1.59102
2.2071
3.58595
1.85749
2.47821
4.28879
2.2761
1.33236
1.29986
1.7459
2.81273
1.4389
1.88136
3.24214
1.71318
1.04404
1.76285
0.960058
0.496225
0.457158
0.385558
0.436831
0.0612972
-0.479177
-1.36318
-1.0667
-1.28747
-3.12476
-2.26707
-2.26891
-2.47699
-5.47511
-10.8451
-7.1395
-15.3013
-33.937
-21.1394
-1.51516
-0.422854
-0.201267
-0.112737
-0.0652791
-0.0344942
-0.0108278
)
;

boundaryField
{
    left
    {
        type            calculated;
        value           uniform 0;
    }
    right
    {
        type            calculated;
        value           uniform 0;
    }
    interface
    {
        type            calculated;
        value           nonuniform List<scalar> 
64
(
3.80399
4.32044
5.76731
10.3575
5.6377
3.75416
6.75298
3.89856
2.44884
2.41685
3.34667
5.46735
2.85235
3.89608
6.88036
3.74274
2.46451
4.42708
2.5741
1.6148
1.59102
2.2071
3.58595
1.85749
2.47821
4.28879
2.2761
1.33236
1.29986
1.7459
2.81273
1.4389
1.88136
3.24214
1.71318
1.04404
1.76285
0.960058
0.496225
0.457158
0.385558
0.436831
0.0612972
-0.479177
-1.36318
-1.0667
-1.28747
-3.12476
-2.26707
-2.26891
-2.47699
-5.47511
-10.8451
-7.1395
-15.3013
-33.937
-21.1394
-1.51516
-0.422854
-0.201267
-0.112737
-0.0652791
-0.0344942
-0.0108278
)
;
    }
    bottom
    {
        type            calculated;
        value           nonuniform List<scalar> 
64
(
0.00630489
0.0187342
0.0306385
0.04172
0.0517496
0.0605781
0.0681351
0.0744183
0.0794775
0.0833956
0.0862722
0.0882118
0.0893162
0.0896824
0.0894028
0.0885664
0.0872602
0.0855676
0.0835665
0.0813253
0.0788999
0.0763308
0.0736431
0.0708467
0.0679395
0.0649094
0.0617367
0.058396
0.0548564
0.051082
0.0470326
0.0426644
0.0379324
0.0327921
0.0272014
0.0211228
0.0145241
0.0073791
-0.000331804
-0.00862028
-0.0174879
-0.0269223
-0.0368923
-0.0473402
-0.0581748
-0.0692611
-0.080412
-0.0913805
-0.101855
-0.111463
-0.119781
-0.126359
-0.130753
-0.13257
-0.131512
-0.127416
-0.120277
-0.110248
-0.0976155
-0.082765
-0.0661296
-0.0481502
-0.0292469
-0.00980738
)
;
    }
    defaultFaces
    {
        type            empty;
    }
}


// ************************************************************************* //
