/*--------------------------------*- C++ -*----------------------------------*\
| =========                 |                                                 |
| \\      /  F ield         | OpenFOAM: The Open Source CFD Toolbox           |
|  \\    /   O peration     | Version:  5.x                                   |
|   \\  /    A nd           | Web:      www.OpenFOAM.org                      |
|    \\/     M anipulation  |                                                 |
\*---------------------------------------------------------------------------*/
FoamFile
{
    version     2.0;
    format      ascii;
    class       volScalarField;
    location    "9.8001";
    object      gradTy;
}
// * * * * * * * * * * * * * * * * * * * * * * * * * * * * * * * * * * * * * //

dimensions      [0 -1 0 1 0 0 0];

internalField   nonuniform List<scalar> 
6300
(
32284.1
32252.2
32220.2
32188.1
32155.7
32123
32089.9
32056.4
32022.4
31987.9
31952.8
31917.2
31880.9
31844
31806.6
0.0534266
0.159781
0.264604
0.366763
0.464966
0.557719
0.643308
0.719819
0.785197
0.837377
0.874469
0.895006
0.898236
0.884392
0.854889
0.0895989
0.268004
0.443969
0.615671
0.781003
0.937495
1.08227
1.21206
1.32332
1.41238
1.47581
1.51087
1.51599
1.49134
1.43928
0.126565
0.378667
0.6276
0.870952
1.10588
1.32899
1.53622
1.72286
1.88364
2.013
2.10555
2.15669
2.16351
2.12572
2.04647
0.164557
0.492502
0.816813
1.13466
1.44259
1.73637
2.01076
2.25951
2.47538
2.65045
2.77669
2.84683
2.85566
2.80156
2.6881
0.20372
0.609971
1.0125
1.40827
1.79347
2.16314
2.51096
2.82905
3.10793
3.33675
3.50395
3.5983
3.61075
3.53678
3.37924
0.24407
0.731168
1.21493
1.69247
2.15987
2.61177
3.04091
3.43782
3.79054
4.0847
4.30405
4.43168
4.45228
4.35559
4.14111
0.285466
0.855698
1.4236
1.98682
2.54179
3.08315
3.60309
4.09078
4.53171
4.90748
5.19589
5.37211
5.41113
5.29219
5.00588
0.327562
0.982562
1.63694
2.28942
2.93734
3.57595
4.19755
4.79049
5.33807
5.81762
6.19993
6.44976
6.52798
6.39618
6.02545
0.369782
1.11005
1.85219
2.59658
3.3422
4.08577
4.82069
5.53557
6.21248
6.82501
7.33648
7.69909
7.85491
7.7392
7.28661
0.411298
1.23567
2.06518
2.90252
3.74911
4.60426
5.46387
6.31862
7.15129
7.9335
8.62193
9.1553
9.45359
9.41947
8.93469
0.451034
1.35616
2.27035
3.1992
4.14746
5.11828
6.11194
7.12374
8.14057
9.1358
10.0625
10.8469
11.3853
11.5518
11.194
0.48771
1.46759
2.46087
3.47649
4.52326
5.60946
6.74187
7.92385
9.15147
10.4066
11.6458
12.7849
13.6908
14.2127
14.2977
0.519924
1.56562
2.62905
3.72262
4.85963
6.05442
7.32225
8.67832
10.1348
11.6936
13.3294
14.9572
16.3844
17.3223
17.905
0.54629
1.64592
2.76707
3.92532
5.13823
6.42634
7.81437
9.33235
11.016
12.9035
15.0212
17.3319
19.5748
20.8144
18.4745
31771.7
31739.7
31707.3
31674.5
31641.4
31608.1
31574.4
31540.6
31506.5
31472.1
31437.7
31403
31368.2
31333.3
31298.3
31263.3
31228.2
31193.1
31158
31123
31087.9
31052.9
31017.9
30983
30948.1
30913.3
30878.5
30843.8
30809.1
30774.5
30739.9
30705.5
30671.1
30636.9
30602.7
30568.7
30534.8
30500.9
30467.2
30433.5
30400
30366.5
30333.1
30299.9
30266.7
30233.6
30200.6
30167.7
30134.9
30102.3
30069.8
30037.4
30005
29972.8
29940.7
29908.7
29876.8
29844.9
29813.2
29781.5
29749.9
29718.4
29687
29655.8
29624.6
29593.5
29562.5
29531.6
29500.8
29470.1
29439.5
29408.9
29378.4
29347.9
29317.5
29287.2
29256.9
29226.7
29196.6
29166.5
29136.4
29106.4
29076.4
29046.3
29016.3
28986.1
28956
28925.7
28895.3
28864.9
0.815883
0.773626
0.72685
0.677771
0.62824
0.579496
0.532038
0.485639
0.43953
0.392683
0.344161
0.293442
0.240656
0.186681
0.133085
0.0818999
0.0352902
-0.00482449
-0.0371188
-0.0611091
-0.0772558
-0.0869061
-0.0920891
-0.0952015
-0.0986345
-0.104402
-0.113833
-0.127369
-0.144517
-0.163957
-0.183794
-0.201913
-0.21637
-0.225746
-0.229397
-0.227568
-0.221344
-0.212461
-0.203013
-0.195102
-0.190484
-0.190281
-0.194789
-0.203432
-0.214866
-0.227217
-0.238414
-0.246561
-0.250269
-0.248893
-0.242632
-0.23249
-0.220088
-0.20739
-0.196367
-0.188664
-0.185324
-0.186608
-0.191948
-0.200048
-0.20911
-0.217148
-0.222341
-0.223346
-0.219526
-0.211041
-0.198808
-0.18432
-0.16938
-0.155774
-0.144954
-0.137757
-0.134234
-0.133596
-0.134307
-0.134299
-0.131289
-0.123133
-0.108174
-0.0855102
-0.0551728
-0.0181769
0.0235362
0.067262
0.109781
0.147672
0.177673
0.197047
0.203916
0.197516
1.37066
1.29661
1.21513
1.13038
1.04585
0.963819
0.885068
0.80895
0.73372
0.657119
0.577069
0.492323
0.402942
0.310495
0.217941
0.129194
0.0484659
-0.0204942
-0.0750838
-0.114334
-0.139103
-0.151962
-0.156791
-0.158178
-0.160697
-0.1682
-0.183212
-0.206552
-0.237226
-0.272633
-0.30905
-0.342333
-0.368681
-0.385327
-0.391024
-0.386254
-0.373122
-0.35499
-0.335907
-0.319931
-0.310455
-0.309645
-0.31807
-0.334609
-0.356642
-0.380512
-0.402184
-0.417969
-0.425174
-0.422561
-0.410537
-0.391056
-0.367267
-0.342974
-0.32199
-0.307498
-0.301517
-0.304554
-0.315512
-0.33187
-0.350125
-0.366413
-0.377198
-0.379887
-0.373265
-0.357673
-0.334913
-0.307905
-0.280167
-0.255193
-0.23583
-0.223758
-0.21914
-0.220521
-0.224992
-0.228608
-0.226994
-0.216035
-0.192531
-0.154707
-0.102524
-0.0377706
0.0360597
0.114064
0.190374
0.258721
0.313077
0.34835
0.361018
0.34963
1.94227
1.8303
1.70811
1.58269
1.45989
1.34342
1.23431
1.13099
1.02989
0.926528
0.816745
0.697885
0.569648
0.434468
0.297317
0.164946
0.0446979
-0.0568551
-0.135136
-0.18841
-0.218102
-0.228579
-0.22645
-0.219524
-0.215587
-0.221185
-0.240599
-0.275175
-0.323124
-0.379855
-0.438822
-0.492744
-0.534966
-0.560675
-0.567729
-0.556985
-0.532103
-0.498893
-0.464331
-0.435403
-0.417952
-0.415712
-0.42967
-0.457879
-0.495775
-0.536975
-0.574436
-0.601736
-0.61422
-0.609786
-0.589183
-0.555828
-0.515178
-0.473799
-0.438268
-0.414079
-0.404727
-0.411099
-0.431304
-0.460963
-0.493975
-0.523608
-0.543718
-0.54984
-0.539925
-0.514632
-0.477138
-0.432545
-0.386979
-0.346534
-0.316212
-0.299029
-0.295411
-0.302999
-0.316911
-0.330451
-0.336159
-0.327007
-0.297513
-0.244583
-0.167981
-0.0704382
0.0425695
0.163301
0.282433
0.389911
0.47596
0.5322
0.552757
0.535168
2.53872
2.37873
2.20575
2.03124
1.86483
1.71243
1.57524
1.44985
1.32933
1.20519
1.0695
0.916957
0.746359
0.561284
0.369815
0.183246
0.0140111
-0.126725
-0.231197
-0.296441
-0.32477
-0.323349
-0.303016
-0.276565
-0.256746
-0.254274
-0.276154
-0.324543
-0.396376
-0.483858
-0.575858
-0.660001
-0.725032
-0.762887
-0.770062
-0.748074
-0.703077
-0.644743
-0.584642
-0.534347
-0.503546
-0.498456
-0.52075
-0.567202
-0.63015
-0.698824
-0.761321
-0.806838
-0.82763
-0.820292
-0.786193
-0.731105
-0.664138
-0.596203
-0.538213
-0.499297
-0.485292
-0.497727
-0.533481
-0.585229
-0.642692
-0.694513
-0.730381
-0.742884
-0.728729
-0.689159
-0.629587
-0.558586
-0.486417
-0.423296
-0.377673
-0.354765
-0.355545
-0.376371
-0.409367
-0.443573
-0.466721
-0.467269
-0.436245
-0.368545
-0.263591
-0.125375
0.0379572
0.214843
0.391273
0.55196
0.681769
0.767432
0.799429
0.77364
3.17001
2.94587
2.70561
2.46816
2.2496
2.05953
1.89921
1.76169
1.63401
1.50048
1.34653
1.16204
0.943922
0.697314
0.43526
0.17659
-0.0577099
-0.248814
-0.383746
-0.457628
-0.474276
-0.44535
-0.388391
-0.324058
-0.272925
-0.252299
-0.273534
-0.340152
-0.447094
-0.581356
-0.724209
-0.854782
-0.95423
-1.00928
-1.01439
-0.972299
-0.893256
-0.793137
-0.690836
-0.605219
-0.552116
-0.541765
-0.577046
-0.652768
-0.756279
-0.869567
-0.972656
-1.04754
-1.08155
-1.06933
-1.01343
-0.923487
-0.814492
-0.704286
-0.61069
-0.548641
-0.527782
-0.550774
-0.612626
-0.701265
-0.79953
-0.888392
-0.95069
-0.974314
-0.954132
-0.892489
-0.79849
-0.68631
-0.572826
-0.474859
-0.406424
-0.37639
-0.386812
-0.432219
-0.500079
-0.572616
-0.629824
-0.652997
-0.627787
-0.546153
-0.407099
-0.216478
0.0138285
0.267043
0.522782
0.758476
0.951148
1.07994
1.12932
1.09219
3.85018
3.53626
3.20143
2.8779
2.59334
2.36383
2.19034
2.05939
1.94711
1.82521
1.66753
1.45556
1.18252
0.855594
0.495838
0.134847
-0.191629
-0.451788
-0.624201
-0.701232
-0.689408
-0.607719
-0.484384
-0.352542
-0.245172
-0.190046
-0.205564
-0.297694
-0.458471
-0.666484
-0.890246
-1.09438
-1.24736
-1.32759
-1.32668
-1.24974
-1.11378
-0.944676
-0.773004
-0.629273
-0.539122
-0.519365
-0.575106
-0.69832
-0.868328
-1.055
-1.2246
-1.34712
-1.40203
-1.38128
-1.28968
-1.14331
-0.966588
-0.788452
-0.637738
-0.538673
-0.507126
-0.547863
-0.653198
-0.803438
-0.96991
-1.12052
-1.22669
-1.26883
-1.23924
-1.14241
-0.993572
-0.81591
-0.636889
-0.483893
-0.379878
-0.339756
-0.367697
-0.455735
-0.584052
-0.723735
-0.841936
-0.908396
-0.90058
-0.806444
-0.624864
-0.364727
-0.0432864
0.315608
0.683158
1.02694
1.31251
1.50682
1.58376
1.53052
4.60158
4.15675
3.68101
3.23155
2.85783
2.58748
2.4202
2.33025
2.27407
2.20146
2.06674
1.83703
1.49871
1.06116
0.558202
0.0434086
-0.421042
-0.781112
-1.002
-1.07279
-1.00514
-0.830059
-0.592625
-0.345788
-0.142186
-0.0260669
-0.0272724
-0.156385
-0.401831
-0.728935
-1.08454
-1.40765
-1.64524
-1.76276
-1.74846
-1.61214
-1.38206
-1.09991
-0.814936
-0.576174
-0.424761
-0.388249
-0.476006
-0.67649
-0.956386
-1.265
-1.54434
-1.74408
-1.83143
-1.79525
-1.64481
-1.40682
-1.12073
-0.83313
-0.59041
-0.431479
-0.382381
-0.451928
-0.629107
-0.882237
-1.16313
-1.41664
-1.59488
-1.66662
-1.62116
-1.46723
-1.23016
-0.947465
-0.663476
-0.422392
-0.261325
-0.20511
-0.262043
-0.421246
-0.65166
-0.905783
-1.12856
-1.27075
-1.29768
-1.19265
-0.955749
-0.601253
-0.154333
0.351709
0.877756
1.37924
1.80531
2.1027
2.22568
2.1493
5.46425
4.82173
4.12275
3.47616
2.97349
2.66275
2.53871
2.55247
2.62471
2.66718
2.60273
2.37492
1.95779
1.36092
0.637616
-0.120517
-0.800758
-1.31085
-1.59596
-1.64368
-1.47559
-1.14218
-0.714407
-0.276773
0.0867729
0.30686
0.335205
0.152441
-0.227603
-0.750339
-1.32564
-1.84406
-2.21603
-2.38776
-2.34593
-2.10958
-1.72531
-1.2592
-0.790327
-0.397292
-0.144943
-0.0781867
-0.214579
-0.540307
-1.00308
-1.51717
-1.97871
-2.30286
-2.43873
-2.37376
-2.12601
-1.73958
-1.27704
-0.813185
-0.422424
-0.166125
-0.0867851
-0.201004
-0.495644
-0.921053
-1.39578
-1.82115
-2.11645
-2.23319
-2.15928
-1.91175
-1.53246
-1.08088
-0.62828
-0.245663
0.00821604
0.0924698
-0.00911838
-0.284209
-0.685128
-1.13297
-1.53121
-1.79908
-1.88478
-1.76876
-1.45597
-0.97087
-0.350513
0.359006
1.10773
1.84012
2.4834
2.94974
3.15467
3.04568
6.51755
5.56789
4.48892
3.51351
2.81292
2.46924
2.45876
2.69052
3.0182
3.2869
3.37397
3.18543
2.67573
1.84275
0.767189
-0.396602
-1.42549
-2.16455
-2.53175
-2.52533
-2.18408
-1.5902
-0.850385
-0.101074
0.522314
0.915893
1.00168
0.745348
0.152102
-0.696048
-1.64866
-2.49138
-3.07513
-3.32029
-3.22351
-2.82004
-2.1864
-1.42248
-0.656511
-0.0158224
0.402125
0.524409
0.319491
-0.206773
-0.975905
-1.84499
-2.61095
-3.13275
-3.33525
-3.21548
-2.8069
-2.18197
-1.43522
-0.687991
-0.0608145
0.354053
0.487537
0.309725
-0.173872
-0.888845
-1.69951
-2.41298
-2.89512
-3.07429
-2.94741
-2.54602
-1.93884
-1.21576
-0.492307
0.116447
0.52202
0.657664
0.493652
0.034022
-0.651021
-1.43159
-2.1216
-2.58974
-2.76233
-2.62825
-2.20429
-1.53526
-0.675085
0.309846
1.36124
2.42931
3.41629
4.1732
4.53573
4.38439
7.93215
6.5001
4.70528
3.15455
2.13868
1.79614
2.03008
2.69045
3.49661
4.16818
4.54207
4.45845
3.85917
2.67392
1.02382
-0.866947
-2.46755
-3.55376
-4.00553
-3.88915
-3.25638
-2.24834
-1.00004
0.255957
1.28878
1.96814
2.16081
1.82341
0.898866
-0.491334
-2.12991
-3.51162
-4.42183
-4.7452
-4.54274
-3.86196
-2.83507
-1.58873
-0.342287
0.686392
1.37495
1.59817
1.3163
0.476492
-0.804801
-2.3213
-3.59476
-4.42244
-4.69584
-4.47309
-3.79935
-2.79976
-1.59409
-0.389922
0.606521
1.27942
1.51012
1.26079
0.481084
-0.718832
-2.14322
-3.3379
-4.11006
-4.35611
-4.13082
-3.47662
-2.51215
-1.35115
-0.191171
0.771142
1.42452
1.65437
1.42211
0.67685
-0.47935
-1.86062
-3.03147
-3.806
-4.08151
-3.90513
-3.30553
-2.3749
-1.1793
0.164985
1.59072
3.13528
4.68049
5.96454
6.65679
6.46705
10.1002
7.9566
4.56866
2.02201
0.494283
0.293314
0.987593
2.48055
4.16887
5.47816
6.36899
6.47404
5.88643
4.17449
1.627
-1.75512
-4.25032
-5.85655
-6.29745
-5.99655
-4.86906
-3.25245
-1.1608
0.934364
2.56422
3.72124
4.08324
3.74695
2.31618
0.071039
-2.98106
-5.2108
-6.61358
-6.9273
-6.55076
-5.40226
-3.79976
-1.75512
0.285513
1.87838
3.01785
3.39929
3.11652
1.7955
-0.295006
-3.14758
-5.22049
-6.51032
-6.77086
-6.38012
-5.26102
-3.71431
-1.75079
0.207271
1.73975
2.84157
3.22396
2.97558
1.74115
-0.225577
-2.91771
-4.87127
-6.08258
-6.31664
-5.93188
-4.854
-3.36844
-1.48507
0.394608
1.8707
2.93693
3.31649
3.08931
1.91143
0.0164211
-2.59264
-4.51206
-5.74085
-6.05138
-5.79147
-4.88347
-3.59606
-1.89765
-0.0971616
1.6491
3.84033
6.32075
8.60808
10.0479
9.90949
13.9413
11.2251
3.22829
-0.587809
-3.06624
-2.50014
-1.20528
1.98929
5.38695
7.39075
9.32744
9.48706
9.53275
6.87825
3.43206
-3.92047
-7.31319
-9.8374
-9.65758
-9.29423
-7.18607
-4.94064
-1.3266
2.28281
4.52056
6.61914
7.01121
7.24655
4.90616
1.79544
-5.01641
-8.10081
-10.3736
-10.1034
-9.6704
-7.59631
-5.40115
-1.91573
1.55809
3.72326
5.75232
6.15684
6.41184
4.22255
1.31217
-5.09656
-7.97387
-10.0804
-9.78374
-9.33598
-7.33844
-5.22908
-1.89963
1.4173
3.49315
5.43968
5.84611
6.1103
4.0557
1.31227
-4.75574
-7.47345
-9.46236
-9.16829
-8.73103
-6.81845
-4.79756
-1.61369
1.56156
3.56046
5.43813
5.85234
6.1255
4.17868
1.54043
-4.31774
-6.98713
-8.99801
-8.84269
-8.61104
-7.00776
-5.40907
-2.76296
-0.281226
1.06672
4.12895
8.23907
12.472
15.7117
16.1816
21.3008
22.2202
-4.02158
-5.10517
-11.0122
-6.34381
-6.13401
1.20552
8.61213
9.40001
14.8449
12.6642
17.0673
10.7221
10.8623
-11.788
-11.6267
-17.7121
-13.282
-15.1045
-9.70074
-8.5996
-1.48574
5.60644
6.67729
11.9744
10.1649
14.4552
8.60543
8.84945
-12.4193
-12.1596
-17.7954
-13.5139
-15.1532
-9.96469
-8.86052
-2.05965
4.71513
5.76413
10.8261
9.12973
13.2269
7.68796
7.95696
-12.1308
-11.8372
-17.1109
-13.0143
-14.5235
-9.57686
-8.50079
-2.03042
4.41446
5.4328
10.2555
8.67309
12.5841
7.36215
7.63752
-11.4182
-11.1251
-16.1296
-12.2261
-13.6546
-8.93885
-7.90138
-1.7299
4.42246
5.4248
10.0467
8.5913
12.3585
7.4416
7.70111
-10.6347
-10.4105
-15.3745
-11.7439
-13.4058
-9.12543
-8.73036
-3.39159
1.16737
-1.98422
2.90862
9.98048
17.7664
25.3638
29.6144
31.9433
72.3422
-47.4861
-2.66413
-34.1823
-3.76596
-21.3293
0.325169
21.3683
4.70324
31.343
6.36047
40.0797
5.2268
51.1106
-52.504
-6.94501
-40.729
-7.90279
-31.3204
-6.01969
-20.9169
-1.61365
17.6008
2.74815
27.5634
4.53463
36.2656
3.52963
46.8818
-50.8231
-7.7289
-39.4981
-8.39842
-30.4682
-6.45158
-20.5232
-2.166
16.1173
2.0263
25.632
3.75981
33.9181
2.78986
43.9155
-48.5142
-7.68376
-37.6345
-8.17235
-29.0077
-6.24161
-19.5403
-2.12454
15.2258
1.89409
24.2948
3.58951
32.2093
2.75246
41.7996
-45.9431
-7.14813
-35.6245
-7.60591
-27.426
-5.76253
-18.3982
-1.81859
14.6994
2.07694
23.4066
3.80975
31.0964
3.25048
40.639
-43.678
-6.36281
-34.1272
-7.024
-26.7573
-5.64837
-19.1706
-2.89732
13.7191
-16.6192
-1.4495
10.6937
23.332
39.8354
66.3884
28831.3
28794.5
28757.6
28720.7
28683.7
28646.8
28609.9
28573.1
28536.4
28499.8
28463.3
28426.9
28390.6
28354.3
28318.1
0.176374
0.137409
0.0872458
0.0316395
-0.0235564
-0.0731843
-0.113295
-0.141354
-0.156204
-0.157874
-0.147312
-0.12613
-0.0963753
-0.0603609
-0.0205449
0.311569
0.241427
0.151461
0.0523066
-0.0453994
-0.132493
-0.202161
-0.250218
-0.274948
-0.276685
-0.257301
-0.219729
-0.167574
-0.104823
-0.0356562
0.475385
0.365265
0.224862
0.071524
-0.077856
-0.209231
-0.312638
-0.382409
-0.416688
-0.416618
-0.385477
-0.327913
-0.249371
-0.155699
-0.0529134
0.684102
0.519389
0.311197
0.086784
-0.128317
-0.313936
-0.456751
-0.550092
-0.592775
-0.587624
-0.540075
-0.457074
-0.346298
-0.215688
-0.0732118
0.959854
0.716991
0.413755
0.0927326
-0.208262
-0.461443
-0.650338
-0.768432
-0.816697
-0.801026
-0.730126
-0.614009
-0.463058
-0.287545
-0.0974573
1.3341
0.974966
0.534102
0.0786533
-0.336017
-0.673237
-0.914725
-1.0566
-1.10455
-1.06966
-0.965394
-0.805777
-0.604382
-0.373975
-0.12653
1.85322
1.31467
0.669033
0.0237966
-0.541222
-0.980763
-1.27872
-1.4387
-1.47526
-1.40766
-1.25601
-1.03932
-0.774718
-0.477443
-0.161217
2.5879
1.76146
0.803562
-0.111276
-0.871903
-1.42987
-1.78071
-1.94421
-1.95012
-1.8297
-1.61168
-1.32078
-0.977722
-0.599864
-0.202111
3.64961
2.33973
0.895029
-0.40056
-1.40525
-2.0861
-2.47002
-2.60731
-2.5513
-2.34935
-2.04023
-1.6544
-1.21553
-0.74218
-0.249473
5.21963
3.05281
0.837388
-0.980745
-2.26241
-3.03927
-3.40597
-3.46371
-3.29841
-2.97618
-2.54548
-2.04106
-1.4878
-0.903856
-0.303072
7.59565
3.81449
0.382457
-2.09739
-3.62439
-4.4026
-4.65089
-4.54314
-4.20244
-3.71149
-3.12445
-2.47656
-1.79077
-1.08237
-0.362032
11.2286
4.22706
-1.02466
-4.16689
-5.73516
-6.29584
-6.25186
-5.8555
-5.25674
-4.54287
-3.76429
-2.94994
-2.11634
-1.27283
-0.424717
16.46
2.88975
-4.54127
-7.81033
-8.85351
-8.79374
-8.20522
-7.37027
-6.42613
-5.43896
-4.43989
-3.44258
-2.45182
-1.46788
-0.488725
20.9112
-4.58675
-12.2198
-13.6797
-13.0748
-11.8204
-10.405
-8.99423
-7.63856
-6.34694
-5.11374
-3.92867
-2.78049
-1.65813
-0.551032
0.564575
1.70158
2.86266
4.06559
5.33103
6.6843
8.1579
9.79531
11.6566
13.8264
16.4206
19.5761
23.3234
26.8334
24.2256
0.575213
1.73385
2.9177
4.14555
5.43954
6.82741
8.34595
10.0468
12.0068
14.3478
17.2794
21.2019
27.0035
37.105
59.8687
0.580147
1.74862
2.94219
4.17957
5.48285
6.87978
8.40741
10.1183
12.0922
14.4589
17.449
21.5182
27.6876
38.6097
62.356
0.579402
1.74596
2.93625
4.16782
5.46111
6.84137
8.34157
10.0073
11.905
14.1371
16.8691
20.3716
25.0459
31.1179
35.9307
0.573276
1.72681
2.90164
4.1132
5.37898
6.71967
8.1608
9.73509
11.4855
13.4685
15.7549
18.4122
21.4234
24.4081
26.0795
0.562301
1.69286
2.84151
4.02093
5.24483
6.5282
7.88756
9.34059
10.9043
12.5894
14.3836
16.2104
17.8271
18.5973
16.954
0.547186
1.64637
2.76
3.89778
5.06937
6.28395
7.54925
8.86921
10.2389
11.6342
12.9895
14.1549
14.8228
14.464
12.6616
0.528733
1.58983
2.66171
3.75115
4.86404
6.00447
7.17298
8.36324
9.55582
10.7068
11.7271
12.4445
12.5326
11.3335
7.12998
0.507756
1.5258
2.55123
3.58823
4.63957
5.70548
6.78161
7.85564
8.90155
9.8702
10.6749
11.1711
11.1365
10.2894
8.58197
0.485022
1.45664
2.43271
3.41533
4.40498
5.39938
6.39168
7.36757
8.30091
9.14745
9.83689
10.2661
10.3045
9.84285
8.95276
0.461195
1.38437
2.30965
3.23755
4.16707
5.09473
6.01313
6.90903
7.76054
8.53378
9.17958
9.6326
9.81976
9.69379
9.32495
0.436822
1.31064
2.18477
3.05864
3.93046
4.79649
5.65021
6.4813
7.27449
8.00861
8.65612
9.18366
9.55244
9.71338
9.57808
0.412325
1.23669
2.06005
2.88115
3.69785
4.50678
5.30299
6.07988
6.82946
7.54355
8.21597
8.84496
9.42944
9.93866
10.2259
0.388022
1.16345
1.93691
2.70671
3.47064
4.22589
4.96919
5.69741
6.40907
7.1074
7.80595
8.53714
9.35867
10.3181
11.1373
0.364146
1.09157
1.8163
2.53634
3.24945
3.95329
4.64584
5.32642
5.99792
6.67109
7.37323
8.16656
9.19214
10.7948
13.9476
0.340876
1.02155
1.69894
2.37077
3.03469
3.68853
4.33078
4.96173
5.5856
6.21465
6.87717
7.63466
8.62482
10.195
13.4159
0.318355
0.953804
1.58544
2.21068
2.82693
3.43181
4.02357
4.60194
5.16968
5.73495
6.31515
6.94116
7.65464
8.44895
8.85109
0.296711
0.888704
1.47639
2.05683
2.62706
3.18419
3.72563
4.24954
4.75544
5.24486
5.7213
6.18691
6.62831
6.97517
7.04731
0.276058
0.826596
1.37236
1.91007
2.43629
2.94746
3.43986
3.90964
4.35264
4.76378
5.13496
5.44944
5.6676
5.69214
5.27021
0.256502
0.767799
1.27393
1.77128
2.25597
2.72376
3.1698
3.58831
3.97195
4.31043
4.58798
4.77884
4.84134
4.71915
4.40463
0.23813
0.71259
1.18159
1.64127
2.08739
2.51516
2.91884
3.29121
3.62262
3.89939
4.10119
4.19738
4.14332
3.8797
3.32298
0.221007
0.661173
1.09572
1.52066
1.93156
2.32329
2.68961
3.02253
3.31123
3.54041
3.68773
3.72025
3.59081
3.24379
2.69907
0.205166
0.613655
1.01653
1.40981
1.78903
2.14906
2.48359
2.78456
3.04116
3.23826
3.35399
3.35557
3.1894
2.74517
1.67471
0.190607
0.57003
0.944016
1.3087
1.65984
1.99252
2.30086
2.57741
2.81242
2.9926
3.09952
3.10738
2.98108
2.68143
2.23295
0.177289
0.53018
0.877953
1.21701
1.54346
1.85289
2.14019
2.39911
2.62174
2.79782
2.91384
2.95234
2.89313
2.72104
2.44699
0.165145
0.493884
0.817942
1.13408
1.43888
1.72864
1.99924
2.24599
2.46338
2.64475
2.78198
2.86517
2.88356
2.83146
2.73523
0.154076
0.46084
0.763428
1.05902
1.34475
1.61769
1.87485
2.11327
2.33002
2.52234
2.68764
2.82298
2.92295
2.97252
2.92423
0.143971
0.430694
0.713773
0.990813
1.2595
1.51768
1.76349
1.9956
2.21363
2.4187
2.61409
2.80535
2.99734
3.18154
3.30975
0.134712
0.40308
0.66831
0.928405
1.18155
1.42626
1.66162
1.8877
2.10624
2.32178
2.54341
2.78722
3.07712
3.42943
3.73059
0.126186
0.377646
0.626412
0.870821
1.10946
1.34134
1.56621
1.78505
2.00094
2.22061
2.45734
2.73708
3.11356
3.71285
4.89133
0.118292
0.354084
0.587538
0.817246
1.04206
1.26129
1.47498
1.68443
1.89301
2.1076
2.34138
2.61975
2.99528
3.59405
4.7903
0.11095
0.332145
0.551266
0.767068
0.978542
1.18507
1.38669
1.58443
1.78091
1.98127
2.19447
2.43495
2.72198
3.06032
3.29954
0.104096
0.311646
0.517299
0.719897
0.918455
1.11228
1.3011
1.48529
1.66611
1.84601
2.02862
2.21782
2.41306
2.5954
2.70875
0.0976891
0.292465
0.485455
0.675529
0.861658
1.04295
1.21872
1.38849
1.55196
1.70886
1.85819
1.99649
2.11309
2.17841
2.10993
0.0916997
0.274525
0.455635
0.633902
0.808216
0.977471
1.14052
1.29606
1.44239
1.57696
1.69543
1.79024
1.84872
1.85435
1.81072
0.0861088
0.257777
0.42779
0.595021
0.758289
0.916299
1.06753
1.21002
1.34099
1.45623
1.54911
1.60921
1.62105
1.5645
1.41277
0.0808997
0.242178
0.401877
0.558892
0.712012
0.859837
1.00061
1.13197
1.2505
1.35104
1.42557
1.46168
1.44089
1.34074
1.1713
0.0760528
0.227675
0.377829
0.525467
0.669415
0.80827
0.940234
1.06284
1.17252
1.26391
1.3287
1.35367
1.31583
1.16511
0.738646
0.0715415
0.214193
0.355529
0.494606
0.630355
0.76149
0.886356
1.00269
1.10725
1.19524
1.25949
1.28929
1.26917
1.18097
1.03573
0.0673303
0.201623
0.334799
0.466057
0.594501
0.719065
0.838404
0.950715
1.05348
1.14306
1.21421
1.25956
1.26977
1.23646
1.15969
0.0633744
0.189831
0.3154
0.439462
0.561341
0.680271
0.795335
0.905375
1.00886
1.10368
1.18686
1.25425
1.30061
1.32213
1.33025
0.0596219
0.178654
0.29705
0.414384
0.530231
0.644164
0.755755
0.86459
0.970266
1.07239
1.17048
1.26354
1.3487
1.41711
1.44109
0.0560167
0.167919
0.279437
0.39034
0.500452
0.609683
0.718093
0.826
0.93414
1.0439
1.15759
1.27832
1.40843
1.54296
1.65721
0.0525026
0.157452
0.26225
0.366848
0.471288
0.575774
0.680783
0.787252
0.896889
1.0127
1.13981
1.28661
1.46508
1.6829
1.8808
0.0490271
0.147091
0.245204
0.343466
0.442092
0.541503
0.642462
0.746306
0.855356
0.97365
1.10837
1.27289
1.49442
1.83667
2.48049
0.0455448
0.136697
0.228057
0.319832
0.412354
0.506161
0.602139
0.701748
0.807407
0.9232
1.05623
1.21959
1.43994
1.78104
2.4324
0.0420194
0.126159
0.210621
0.295681
0.381724
0.469313
0.559299
0.652991
0.752425
0.860784
0.98304
1.12673
1.30163
1.50994
1.67499
0.0384238
0.115399
0.192771
0.270849
0.350023
0.430802
0.513888
0.600252
0.691249
0.788721
0.894969
1.0122
1.14011
1.2689
1.37055
0.0347398
0.104364
0.174431
0.245259
0.317208
0.390694
0.466203
0.544297
0.625582
0.710567
0.799281
0.89025
0.977982
1.04673
1.0522
0.0309553
0.0930229
0.155563
0.218892
0.283329
0.349182
0.416725
0.486132
0.557349
0.62983
0.702032
0.770557
0.829046
0.868508
0.889825
0.0270621
0.0813546
0.136147
0.191757
0.248468
0.3065
0.365956
0.426713
0.488243
0.549291
0.607341
0.657841
0.693329
0.702893
0.668883
0.0230523
0.0693396
0.116166
0.163859
0.212691
0.262833
0.314286
0.36676
0.419477
0.470839
0.517898
0.555556
0.575621
0.567544
0.535463
0.0189159
0.0569509
0.0955837
0.135173
0.176007
0.218258
0.26191
0.306643
0.351656
0.395379
0.434989
0.465493
0.477462
0.448871
0.305601
0.0146388
0.0441478
0.0743388
0.105623
0.13834
0.172714
0.208787
0.246335
0.284735
0.32278
0.358407
0.388309
0.407475
0.40984
0.400694
0.0102012
0.0308719
0.0523357
0.0750803
0.0995265
0.125992
0.154643
0.185439
0.218066
0.251866
0.285808
0.318585
0.349161
0.378808
0.417133
0.00557747
0.017046
0.0294445
0.0433575
0.0593127
0.077754
0.0990119
0.123276
0.150585
0.180857
0.214023
0.250394
0.291498
0.341757
0.410717
0.000736286
0.00257488
0.00550298
0.0102184
0.0173749
0.0275635
0.0412967
0.0590033
0.0810527
0.107843
0.140017
0.178923
0.227482
0.291727
0.3839
-0.00435879
-0.012652
-0.0196785
-0.0246141
-0.0266662
-0.0250856
-0.0191745
-0.00828166
0.00823242
0.0310952
0.0613432
0.100756
0.152581
0.222309
0.315558
-0.00974827
-0.0287579
-0.0463106
-0.0614473
-0.0732277
-0.0807391
-0.0831016
-0.0794662
-0.068992
-0.0507759
-0.023689
0.0139748
0.0652554
0.136564
0.246383
-0.0154756
-0.0458748
-0.0746193
-0.100609
-0.122751
-0.139965
-0.15119
-0.155396
-0.151588
-0.138802
-0.11606
-0.0822549
-0.0359706
0.0240866
0.0918056
-0.0215859
-0.0641401
-0.10484
-0.142441
-0.175695
-0.203348
-0.22415
-0.236886
-0.240414
-0.233736
-0.216108
-0.187143
-0.146752
-0.0937015
-0.0145518
-0.0281248
-0.0836926
-0.13721
-0.187291
-0.232527
-0.271483
-0.302708
-0.324768
-0.336321
-0.336269
-0.324021
-0.29996
-0.266316
-0.229602
-0.21247
-0.0351369
-0.104669
-0.171965
-0.235503
-0.293718
-0.344985
-0.387628
-0.419941
-0.440284
-0.447267
-0.440133
-0.419422
-0.388005
-0.351894
-0.315454
-0.042664
-0.127196
-0.209327
-0.287411
-0.359731
-0.424474
-0.479716
-0.523423
-0.553519
-0.568063
-0.565666
-0.546314
-0.512944
-0.474406
-0.453129
-0.0507435
-0.15139
-0.2495
-0.34332
-0.431002
-0.510559
-0.579812
-0.636354
-0.677549
-0.70062
-0.702967
-0.682935
-0.641466
-0.584924
-0.526021
-0.059406
-0.177346
-0.29265
-0.403489
-0.507915
-0.603797
-0.688731
-0.75994
-0.814161
-0.847564
-0.855803
-0.834438
-0.780448
-0.697077
-0.609244
-0.0686737
-0.205132
-0.3389
-0.468109
-0.590759
-0.704634
-0.807178
-0.89532
-0.965225
-1.01198
-1.02919
-1.00859
-0.939828
-0.812322
-0.633874
-0.0785589
-0.234785
-0.388315
-0.537283
-0.679695
-0.813338
-0.935625
-1.04336
-1.13236
-1.1969
-1.22884
-1.21619
-1.14
-0.962938
-0.571194
-0.0890632
-0.266309
-0.440898
-0.611008
-0.774719
-0.929924
-1.07417
-1.2044
-1.31648
-1.40447
-1.45944
-1.4679
-1.41021
-1.26264
-1.02979
-0.100179
-0.299677
-0.496589
-0.689175
-0.875648
-1.05412
-1.22246
-1.37805
-1.51734
-1.63495
-1.72232
-1.76557
-1.74283
-1.62155
-1.3459
-0.111892
-0.33484
-0.555284
-0.771585
-0.982133
-1.18534
-1.37958
-1.56302
-1.73324
-1.88643
-2.01586
-2.10904
-2.14387
-2.08767
-1.92882
-0.124187
-0.371741
-0.616856
-0.857988
-1.09371
-1.32279
-1.54421
-1.75717
-1.96096
-2.15442
-2.33454
-2.49305
-2.60812
-2.62507
-2.40218
-0.137051
-0.410334
-0.681194
-0.948143
-1.20991
-1.46556
-1.7147
-1.95769
-2.19585
-2.43165
-2.66825
-2.9072
-3.1405
-3.32902
-3.37898
-0.150484
-0.450609
-0.748247
-1.0419
-1.33034
-1.61285
-1.88947
-2.16155
-2.43238
-2.70834
-3.00031
-3.32528
-3.70398
-4.12917
-4.34706
-0.164503
-0.49261
-0.818067
-1.13927
-1.4549
-1.76422
-2.0674
-2.36626
-2.66536
-2.97389
-3.30945
-3.70605
-4.23516
-5.07328
-6.76761
-0.179145
-0.536451
-0.890843
-1.2405
-1.58385
-1.91984
-2.24832
-2.57082
-2.89177
-3.22067
-3.5762
-3.99479
-4.55176
-5.42279
-7.09272
-0.194468
-0.582316
-0.966905
-1.34611
-1.71792
-2.08068
-2.4334
-2.77646
-3.11265
-3.44895
-3.79915
-4.18742
-4.65025
-5.21749
-5.75699
-0.210548
-0.630444
-1.04671
-1.45684
-1.85828
-2.24848
-2.62518
-2.98685
-3.33347
-3.66759
-3.99564
-4.32827
-4.67623
-5.03146
-5.31937
-0.227462
-0.681093
-1.13077
-1.57362
-2.00643
-2.42565
-2.8274
-3.20771
-3.56295
-3.89044
-4.18896
-4.45848
-4.69715
-4.89217
-4.99733
-0.245274
-0.734488
-1.21957
-1.69735
-2.16403
-2.61496
-3.0445
-3.44596
-3.8117
-4.1334
-4.40242
-4.6101
-4.74839
-4.81528
-4.84335
-0.264012
-0.79075
-1.31345
-1.8288
-2.33256
-2.81911
-3.2811
-3.70903
-4.09104
-4.41294
-4.65847
-4.8099
-4.8492
-4.76534
-4.59002
-0.283642
-0.849816
-1.41243
-1.9683
-2.51303
-3.04033
-3.54135
-4.00397
-4.41212
-4.7455
-4.97988
-5.08758
-5.03553
-4.77891
-4.32215
-0.304044
-0.911357
-1.51608
-2.11555
-2.70561
-3.27979
-3.82828
-4.33674
-4.78512
-5.14681
-5.38926
-5.47619
-5.36391
-4.93148
-3.47226
-0.324984
-0.974699
-1.62337
-2.26932
-2.90921
-3.53708
-4.14299
-4.71125
-5.21831
-5.63091
-5.90664
-6.00313
-5.91462
-5.79709
-6.43161
-0.346099
-1.03876
-1.73256
-2.4273
-3.12117
-3.80963
-4.48385
-5.12825
-5.71709
-6.21007
-6.5485
-6.65856
-6.48546
-6.14046
-6.4629
-0.366889
-1.10204
-1.8411
-2.58589
-3.33687
-4.09208
-4.84542
-5.58383
-6.28243
-6.89657
-7.34894
-7.51061
-7.17569
-6.02031
-3.39287
-0.386726
-1.16261
-1.94565
-2.74018
-3.54963
-4.37581
-5.21736
-6.06705
-6.90644
-7.69539
-8.35126
-8.70752
-8.43568
-6.92243
-3.21055
-0.404876
-1.2182
-2.04223
-2.88409
-3.75079
-4.64887
-5.58364
-6.55743
-7.56546
-8.58664
-9.56164
-10.3406
-10.5578
-9.35138
-4.90963
-0.420548
-1.26635
-2.12642
-3.01077
-3.93016
-4.89644
-5.92284
-7.02401
-8.21536
-9.50995
-10.9082
-12.3638
-13.6685
-14.0271
-10.3431
-0.43295
-1.30459
-2.19376
-3.11311
-4.07695
-5.10226
-6.21011
-7.42798
-8.79355
-10.3613
-12.2149
-14.4918
-17.4361
-21.5102
-27.5836
-11.3102
-25.8086
-24.3896
-20.8292
-17.5228
-14.7511
-12.4302
-10.4442
-8.70079
-7.13312
-5.69286
-4.34448
-3.06081
-1.82013
-0.604041
-111.197
-57.9802
-37.4199
-27.2646
-21.2104
-17.0944
-14.0269
-11.583
-9.53577
-7.75261
-6.15048
-4.67387
-3.28332
-1.94889
-0.646203
-123.629
-67.4736
-43.2244
-30.8518
-23.5522
-18.7097
-15.1904
-12.4464
-10.1873
-8.2464
-6.52093
-4.9435
-3.46685
-2.0556
-0.681227
-67.9155
-54.8098
-40.7814
-30.9162
-24.1875
-19.4062
-15.8156
-12.9731
-10.618
-8.59054
-6.78859
-5.14314
-3.60497
-2.13671
-0.707973
-47.9419
-42.7868
-35.4471
-28.8026
-23.4705
-19.2757
-15.9211
-13.1615
-10.821
-8.77809
-6.94755
-5.26828
-3.69453
-2.19037
-0.725836
-30.4463
-32.2808
-29.6301
-25.7775
-21.9637
-18.5617
-15.6136
-13.0586
-10.8175
-8.81814
-7.00148
-5.32013
-3.73577
-2.21652
-0.734762
-22.4604
-24.8895
-24.6479
-22.7253
-20.1711
-17.5325
-15.0329
-12.7379
-10.646
-8.73131
-6.96144
-5.30463
-3.73179
-2.21665
-0.735191
-12.4797
-19.353
-20.833
-20.1117
-18.437
-16.4068
-14.3103
-12.2762
-10.3515
-8.54389
-6.84288
-5.23083
-3.68774
-2.19337
-0.727929
-15.059
-17.5618
-18.5468
-18.1603
-16.9497
-15.3271
-13.5443
-11.7384
-9.97576
-8.28243
-6.66255
-5.10913
-3.60985
-2.15001
-0.714013
-15.7184
-16.8246
-17.2129
-16.7812
-15.7484
-14.3587
-12.7944
-11.1705
-9.55188
-7.96995
-6.43605
-4.94985
-3.50457
-2.09008
-0.694563
-16.3437
-16.5859
-16.4485