/*--------------------------------*- C++ -*----------------------------------*\
| =========                 |                                                 |
| \\      /  F ield         | OpenFOAM: The Open Source CFD Toolbox           |
|  \\    /   O peration     | Version:  5.x                                   |
|   \\  /    A nd           | Web:      www.OpenFOAM.org                      |
|    \\/     M anipulation  |                                                 |
\*---------------------------------------------------------------------------*/
FoamFile
{
    version     2.0;
    format      ascii;
    class       volScalarField;
    location    "16.6";
    object      gradTy;
}
// * * * * * * * * * * * * * * * * * * * * * * * * * * * * * * * * * * * * * //

dimensions      [0 -1 0 1 0 0 0];

internalField   nonuniform List<scalar> 
2048
(
-26.4237
-26.3961
-26.3417
-26.2621
-26.1593
-26.0359
-25.8946
-25.7383
-25.5698
-25.3916
-25.2061
-25.0154
-24.8216
-24.6263
-24.4309
-24.2369
-24.0452
-23.8569
-23.6728
-23.4932
-23.3188
-23.1499
-22.9867
-22.8295
-22.6784
-22.5338
-22.396
-22.2652
-22.1418
-22.0263
-21.9193
-21.8214
-21.7334
-21.6561
-21.5904
-21.5373
-21.498
-21.4736
-21.4654
-21.4745
-21.5023
-21.5501
-21.619
-21.7101
-21.8245
-21.9629
-22.1257
-22.3129
-22.5237
-22.7567
-23.0097
-23.2793
-23.5613
-23.8504
-24.1406
-24.4253
-24.6976
-24.9511
-25.1796
-25.3778
-25.5412
-25.6666
-25.7515
-25.7944
-26.446
-26.4178
-26.3621
-26.2808
-26.1759
-26.0503
-25.9068
-25.7482
-25.5776
-25.3975
-25.2102
-25.018
-24.8228
-24.6263
-24.4299
-24.2349
-24.0425
-23.8536
-23.669
-23.4891
-23.3144
-23.1453
-22.9819
-22.8245
-22.6732
-22.5284
-22.3903
-22.2591
-22.1354
-22.0195
-21.912
-21.8135
-21.7248
-21.6467
-21.5801
-21.5262
-21.4859
-21.4606
-21.4513
-21.4594
-21.4862
-21.533
-21.6009
-21.6913
-21.8051
-21.9432
-22.106
-22.2937
-22.5057
-22.7406
-22.9962
-23.2693
-23.5556
-23.8496
-24.1451
-24.4352
-24.7129
-24.9713
-25.2041
-25.4058
-25.572
-25.6994
-25.7856
-25.829
-26.4887
-26.4592
-26.4012
-26.3165
-26.2076
-26.0777
-25.9297
-25.7669
-25.5923
-25.4085
-25.2179
-25.0228
-24.825
-24.6261
-24.4277
-24.2311
-24.0373
-23.8473
-23.6617
-23.4812
-23.306
-23.1365
-22.9727
-22.815
-22.6634
-22.5181
-22.3795
-22.2478
-22.1233
-22.0066
-21.8981
-21.7985
-21.7084
-21.6289
-21.5608
-21.5052
-21.4631
-21.4359
-21.4247
-21.4309
-21.4557
-21.5006
-21.5667
-21.6556
-21.7682
-21.9056
-22.0684
-22.2571
-22.4711
-22.7095
-22.9701
-23.2498
-23.5442
-23.8476
-24.1534
-24.4541
-24.7422
-25.01
-25.2511
-25.4595
-25.6309
-25.762
-25.8504
-25.895
-26.55
-26.5186
-26.4569
-26.3673
-26.2526
-26.1163
-25.9619
-25.793
-25.6126
-25.4237
-25.2285
-25.0293
-24.8278
-24.6257
-24.4245
-24.2255
-24.0297
-23.8381
-23.6513
-23.4699
-23.2941
-23.124
-22.9599
-22.8017
-22.6496
-22.5037
-22.3644
-22.2318
-22.1064
-21.9885
-21.8786
-21.7774
-21.6856
-21.604
-21.5337
-21.4756
-21.431
-21.4012
-21.3872
-21.3906
-21.4127
-21.4548
-21.5184
-21.6049
-21.7157
-21.852
-22.0147
-22.2044
-22.4212
-22.6644
-22.932
-23.2211
-23.5271
-23.8442
-24.1649
-24.481
-24.7841
-25.0657
-25.3185
-25.5365
-25.7151
-25.8512
-25.9429
-25.9889
-26.6284
-26.5944
-26.528
-26.4317
-26.3092
-26.1646
-26.002
-25.8252
-25.6376
-25.4421
-25.2412
-25.0369
-24.8309
-24.6248
-24.4201
-24.218
-24.0198
-23.8263
-23.638
-23.4556
-23.279
-23.1084
-22.9438
-22.7851
-22.6324
-22.4859
-22.3457
-22.2121
-22.0855
-21.9661
-21.8546
-21.7514
-21.6573
-21.5731
-21.4999
-21.4389
-21.3911
-21.3578
-21.3405
-21.3403
-21.3588
-21.3974
-21.4576
-21.5411
-21.6494
-21.784
-21.9461
-22.137
-22.3569
-22.6057
-22.882
-23.1829
-23.5039
-23.8385
-24.1787
-24.5151
-24.8376
-25.137
-25.4049
-25.6349
-25.8225
-25.9647
-26.0601
-26.1079
-26.723
-26.6857
-26.6131
-26.5085
-26.3762
-26.2213
-26.0485
-25.8622
-25.666
-25.4629
-25.2553
-25.0451
-24.8338
-24.6231
-24.4143
-24.2087
-24.0076
-23.8118
-23.622
-23.4384
-23.2611
-23.09
-22.9249
-22.7657
-22.6124
-22.4651
-22.324
-22.1892
-22.0612
-21.9402
-21.8267
-21.7212
-21.6244
-21.5372
-21.4607
-21.396
-21.3444
-21.3072
-21.2858
-21.2814
-21.2956
-21.33
-21.3861
-21.4658
-21.5708
-21.703
-21.8641
-22.0556
-22.2787
-22.5338
-22.8199
-23.1348
-23.4738
-23.83
-24.1942
-24.5555
-24.9023
-25.2234
-25.5095
-25.7536
-25.9513
-26.1003
-26.1997
-26.2493
-26.8331
-26.7918
-26.7115
-26.5965
-26.4523
-26.285
-26.1001
-25.9028
-25.6968
-25.4853
-25.2703
-25.0535
-24.8364
-24.6205
-24.407
-24.1975
-23.9932
-23.7949
-23.6034
-23.4187
-23.2408
-23.0692
-22.9037
-22.7441
-22.5901
-22.442
-22.2998
-22.1638
-22.0343
-21.9115
-21.7958
-21.6877
-21.5878
-21.4972
-21.4168
-21.3481
-21.2922
-21.2505
-21.2244
-21.2152
-21.2246
-21.254
-21.3053
-21.3803
-21.4813
-21.6102
-21.7695
-21.9611
-22.1871
-22.4485
-22.7455
-23.0761
-23.4359
-23.8176
-24.2106
-24.6019
-24.9777
-25.3246
-25.6317
-25.8917
-26.1003
-26.2562
-26.3595
-26.4108
-26.9584
-26.912
-26.8223
-26.6947
-26.5363
-26.3543
-26.1556
-25.9458
-25.729
-25.5083
-25.2854
-25.0617
-24.8384
-24.6167
-24.3982
-24.1843
-23.9764
-23.7755
-23.5822
-23.3966
-23.2182
-23.0464
-22.8807
-22.7206
-22.566
-22.4169
-22.2736
-22.1364
-22.0053
-21.8806
-21.7626
-21.6516
-21.5484
-21.4539
-21.3693
-21.296
-21.2354
-21.1887
-21.1575
-21.143
-21.1469
-21.1707
-21.2164
-21.2861
-21.3821
-21.5069
-21.6633
-21.8542
-22.0824
-22.3499
-22.658
-23.0058
-23.3892
-23.8003
-24.227
-24.6539
-25.0637
-25.4405
-25.7713
-26.0484
-26.2683
-26.4307
-26.5374
-26.5901
-27.0986
-27.0461
-26.945
-26.8024
-26.627
-26.428
-26.2136
-25.99
-25.7617
-25.5313
-25.3002
-25.0694
-24.8395
-24.6118
-24.3877
-24.169
-23.9572
-23.7536
-23.5586
-23.3722
-23.1936
-23.0219
-22.8562
-22.6957
-22.5405
-22.3904
-22.246
-22.1073
-21.9747
-21.8482
-21.7277
-21.6137
-21.5069
-21.4081
-21.3189
-21.2406
-21.1748
-21.1228
-21.086
-21.0659
-21.0638
-21.0814
-21.1209
-21.1843
-21.2744
-21.3941
-21.5466
-21.7356
-21.9647
-22.2377
-22.5569
-22.9229
-23.3323
-23.7768
-24.2427
-24.711
-25.1606
-25.5715
-25.9286
-26.2236
-26.4542
-26.6223
-26.7314
-26.7849
-27.254
-27.194
-27.0791
-26.9185
-26.7233
-26.5048
-26.2727
-26.0342
-25.7937
-25.5535
-25.3144
-25.0763
-24.8397
-24.6056
-24.3755
-24.1515
-23.9356
-23.7291
-23.5326
-23.3458
-23.1674
-22.9961
-22.8305
-22.6699
-22.5139
-22.3628
-22.2171
-22.0772
-21.9431
-21.8146
-21.6917
-21.5746
-21.4638
-21.3605
-21.2663
-21.1826
-21.1113
-21.0536
-21.011
-20.9847
-20.9763
-20.9872
-21.0197
-21.0762
-21.1595
-21.273
-21.4203
-21.6058
-21.8346
-22.1117
-22.4414
-22.8262
-23.2637
-23.7459
-24.2567
-24.7733
-25.2689
-25.7185
-26.1041
-26.4171
-26.6573
-26.8293
-26.9393
-26.9928
-27.4246
-27.3556
-27.2243
-27.0423
-26.824
-26.5833
-26.3317
-26.0771
-25.8242
-25.5745
-25.3275
-25.0824
-24.839
-24.5981
-24.3616
-24.1318
-23.9114
-23.7021
-23.5042
-23.3173
-23.1397
-22.9693
-22.8042
-22.6434
-22.4867
-22.3344
-22.1874
-22.0461
-21.9107
-21.7805
-21.6552
-21.5348
-21.4198
-21.3116
-21.212
-21.1226
-21.0455
-20.9819
-20.9332
-20.9006
-20.8854
-20.8892
-20.9142
-20.9629
-21.0385
-21.1446
-21.2853
-21.4658
-21.6923
-21.9717
-22.3107
-22.7141
-23.1818
-23.7057
-24.2679
-24.8405
-25.3894
-25.8826
-26.2986
-26.6291
-26.8768
-27.0502
-27.1591
-27.2115
-27.6111
-27.5313
-27.3802
-27.1731
-26.9279
-26.6621
-26.3891
-26.1177
-25.8524
-25.5936
-25.3393
-25.0876
-24.8375
-24.5896
-24.346
-24.1099
-23.8846
-23.6723
-23.4734
-23.287
-23.1108
-22.9418
-22.7776
-22.6167
-22.4591
-22.3055
-22.157
-22.0145
-21.8779
-21.7462
-21.6186
-21.4948
-21.3755
-21.262
-21.1565
-21.0612
-20.9779
-20.9082
-20.8534
-20.8142
-20.792
-20.7882
-20.8051
-20.8455
-20.9125
-21.0101
-21.1427
-21.3164
-21.5384
-21.8177
-22.164
-22.5853
-23.0845
-23.6544
-24.2752
-24.9128
-25.5234
-26.0657
-26.5134
-26.8597
-27.1117
-27.2833
-27.3885
-27.4383
-27.814
-27.7212
-27.5467
-27.3098
-27.0337
-26.7397
-26.4434
-26.1547
-25.8774
-25.6104
-25.3499
-25.0921
-24.8354
-24.58
-24.3287
-24.0856
-23.855
-23.6396
-23.44
-23.2548
-23.0809
-22.914
-22.751
-22.5902
-22.4316
-22.2762
-22.1261
-21.9825
-21.845
-21.7121
-21.5824
-21.4552
-21.3313
-21.2121
-21.1003
-20.9986
-20.9091
-20.8333
-20.7721
-20.7264
-20.697
-20.6853
-20.6936
-20.7249
-20.7826
-20.8706
-20.9937
-21.1585
-21.3735
-21.6498
-22.0005
-22.4382
-22.9696
-23.5898
-24.277
-24.9903
-25.6727
-26.2698
-26.7502
-27.1093
-27.3612
-27.5266
-27.625
-27.6706
-28.0343
-27.9258
-27.7234
-27.4517
-27.14
-26.8145
-26.4934
-26.1869
-25.8984
-25.6247
-25.3592
-25.0962
-24.8329
-24.5698
-24.3098
-24.0588
-23.8224
-23.6039
-23.404
-23.2209
-23.0503
-22.8864
-22.725
-22.5642
-22.4043
-22.2468
-22.0947
-21.9501
-21.8122
-21.6787
-21.547
-21.4165
-21.2876
-21.1623
-21.0437
-20.9354
-20.8394
-20.7574
-20.6901
-20.6378
-20.6011
-20.5812
-20.5805
-20.6022
-20.6498
-20.7272
-20.8394
-20.9934
-21.1985
-21.4681
-21.8196
-22.2711
-22.8348
-23.509
-24.2715
-25.0731
-25.8394
-26.4979
-27.0107
-27.3783
-27.6243
-27.7783
-27.8662
-27.9057
-28.273
-28.1457
-27.9104
-27.5977
-27.2451
-26.885
-26.5374
-26.213
-25.9147
-25.6362
-25.3675
-25.1001
-24.8305
-24.5592
-24.2895
-24.0293
-23.7866
-23.565
-23.3652
-23.1853
-23.0192
-22.8594
-22.7
-22.5391
-22.3775
-22.2172
-22.0628
-21.9173
-21.7798
-21.6462
-21.5129
-21.379
-21.2449
-21.1129
-20.987
-20.8716
-20.7692
-20.681
-20.6077
-20.5491
-20.5051
-20.4767
-20.4665
-20.478
-20.5151
-20.5812
-20.6811
-20.8222
-21.0145
-21.2733
-21.6209
-22.0823
-22.6774
-23.4091
-24.2562
-25.1613
-26.0265
-26.7536
-27.2973
-27.667
-27.8996
-28.0361
-28.1093
-28.1407
-28.5312
-28.3815
-28.1074
-27.7468
-27.3475
-26.9495
-26.574
-26.2319
-25.9256
-25.6449
-25.3752
-25.1043
-24.8285
-24.5487
-24.2678
-23.9971
-23.7474
-23.5226
-23.3234
-23.148
-22.988
-22.8334
-22.6763
-22.5153
-22.3515
-22.1876
-22.0301
-21.8842
-21.7478
-21.615
-21.4805
-21.3431
-21.2037
-21.0642
-20.9303
-20.8077
-20.6986
-20.6044
-20.5255
-20.4608
-20.4096
-20.3724
-20.3523
-20.3533
-20.3793
-20.4334
-20.5199
-20.6463
-20.8228
-21.066
-21.404
-21.8703
-22.4946
-23.2864
-24.2279
-25.2551
-26.238
-27.0413
-27.6124
-27.9753
-28.1857
-28.2977
-28.3518
-28.373
-28.8104
-28.6339
-28.3144
-27.8979
-27.4452
-27.0064
-26.6018
-26.2423
-25.9305
-25.6508
-25.3828
-25.1093
-24.8276
-24.5388
-24.2449
-23.9616
-23.7046
-23.4765
-23.2784
-23.109
-22.957
-22.809
-22.6546
-22.4931
-22.3268
-22.1578
-21.9964
-21.8504
-21.7164
-21.5855
-21.45
-21.3092
-21.1642
-21.0164
-20.8736
-20.7435
-20.628
-20.5279
-20.4437
-20.3734
-20.3152
-20.269
-20.2385
-20.2287
-20.2434
-20.2852
-20.3572
-20.4673
-20.625
-20.8473
-21.1688
-21.6336
-22.2838
-23.1369
-24.1825
-25.3544
-26.4789
-27.3664
-27.9586
-28.3032
-28.4805
-28.5604
-28.5908
-28.5997
-29.1122
-28.9034
-28.5315
-28.0494
-27.5359
-27.0542
-26.6195
-26.2428
-25.9288
-25.6542
-25.3911
-25.1157
-24.828
-24.5303
-24.221
-23.9226
-23.658
-23.4265
-23.2296
-23.0682
-22.9266
-22.787
-22.6351
-22.4728
-22.3036
-22.1279
-21.961
-21.8158
-21.6857
-21.5582
-21.422
-21.2776
-21.127
-20.9697
-20.8168
-20.6794
-20.5574
-20.4515
-20.3628
-20.2875
-20.2225
-20.167
-20.1257
-20.1046
-20.1081
-20.1374
-20.194
-20.2867
-20.423
-20.6185
-20.9156
-21.3706
-22.0421
-22.956
-24.1143
-25.4587
-26.7559
-27.7355
-28.3384
-28.6497
-28.7816
-28.8214
-28.8237
-28.8184
-29.4384
-29.1906
-28.7591
-28.2001
-27.6169
-27.0913
-26.626
-26.2321
-25.9201
-25.6553
-25.4012
-25.1241
-24.8303
-24.5243
-24.196
-23.8791
-23.6074
-23.3724
-23.1766
-23.0257
-22.8971
-22.7681
-22.6184
-22.4547
-22.2825
-22.0977
-21.9234
-21.78
-21.6559
-21.5337
-21.3966
-21.2485
-21.0926
-20.9242
-20.7597
-20.6152
-20.4869
-20.3754
-20.283
-20.2034
-20.1321
-20.0669
-20.0141
-19.9814
-19.9741
-19.991
-20.0315
-20.1061
-20.2191
-20.3814
-20.645
-21.08
-21.7674
-22.7389
-24.0157
-25.5671
-27.0778
-28.1562
-28.7543
-29.0135
-29.0864
-29.0778
-29.0478
-29.0266
-29.7912
-29.4956
-28.9977
-28.3482
-27.685
-27.117
-26.6205
-26.2083
-25.904
-25.6547
-25.4146
-25.1348
-24.8345
-24.5221
-24.1703
-23.8302
-23.553
-23.3142
-23.1186
-22.9813
-22.8689
-22.7534
-22.6047
-22.4387
-22.2644
-22.0672
-21.8822
-21.7426
-21.627
-21.5127
-21.3741
-21.222
-21.0617
-20.8802
-20.7019
-20.5511
-20.4168
-20.2995
-20.2046
-20.1217
-20.0446
-19.9692
-19.904
-19.8595
-19.842
-19.8472
-19.8703
-19.927
-20.0159
-20.1378
-20.3579
-20.7605
-21.4577
-22.4811
-23.8763
-25.6774
-27.4567
-28.6376
-29.2078
-29.3922
-29.3913
-29.3267
-29.2607
-29.2222
-30.1732
-29.8178
-29.2487
-28.4919
-27.7358
-27.1307
-26.6024
-26.1694
-25.8803
-25.6526
-25.4334
-25.1482
-24.8402
-24.526
-24.144
-23.7739
-23.4951
-23.252
-23.0543
-22.9351
-22.8425
-22.7443
-22.5943
-22.4247
-22.2505
-22.0361
-21.8361
-21.7032
-21.5992
-21.4963
-21.3547
-21.1978
-21.0353
-20.8375
-20.6424
-20.4874
-20.3471
-20.2235
-20.1278
-20.0427
-19.9606
-19.8741
-19.7956
-19.7387
-19.7121
-19.707
-19.7112
-19.7509
-19.8166
-19.8901
-20.0558
-20.4105
-21.1124
-22.1786
-23.6821
-25.7863
-27.9089
-29.1899
-29.6998
-29.7825
-29.6927
-29.5649
-29.4602
-29.4036
-30.5874
-30.1555
-29.5146
-28.6294
-27.7637
-27.1331
-26.572
-26.1124
-25.8491
-25.6495
-25.4605
-25.1641
-24.8467
-24.539
-24.1172
-23.7075
-23.4348
-23.1863
-22.9821
-22.8872
-22.818
-22.7427
-22.587
-22.412
-22.2427
-22.0044
-21.7828
-21.6615
-21.5725
-21.4858
-21.3383
-21.1755
-21.015
-20.7963
-20.5801
-20.4244
-20.2782
-20.1469
-20.0529
-19.9666
-19.881
-19.7821
-19.689
-19.6191
-19.585
-19.5715
-19.5541
-19.5788
-19.6248
-19.6403
-19.7407
-20.028
-20.7319
-21.8289
-23.4139
-25.8881
-28.457
-29.8242
-30.2292
-30.1796
-29.9862
-29.7896
-29.6444
-29.5692
-31.0379
-30.5049
-29.7995
-28.7584
-27.7609
-27.1267
-26.5301
-26.0332
-25.8113
-25.6451
-25.4998
-25.182
-24.8517
-24.5656
-24.09
-23.6269
-23.3741
-23.1178
-22.8992
-22.8381
-22.7953
-22.7512
-22.5824
-22.3992
-22.2439
-21.9719
-21.7192
-21.6176
-21.5466
-21.4834
-21.3245
-21.1539
-21.0028
-20.7566
-20.5129
-20.3629
-20.2104
-20.069
-19.9803
-19.8938
-19.8064
-19.6934
-19.5841
-19.5002
-19.4608
-19.4424
-19.3985
-19.4115
-19.4451
-19.3908
-19.4157
-19.6098
-20.3183
-21.4329
-23.0459
-25.9738
-29.132
-30.5519
-30.793
-30.5776
-30.2674
-29.9981
-29.8118
-29.7181
-31.5301
-30.8592
-30.1106
-28.8767
-27.7166
-27.116
-26.4785
-25.9259
-25.7686
-25.6386
-25.5571
-25.2005
-24.8514
-24.6129
-24.0625
-23.5257
-23.3163
-23.0479
-22.8019
-22.7891
-22.7739
-22.7736
-22.5798
-22.3837
-22.2584
-21.9387
-21.6411
-21.572
-21.521
-21.4921
-21.3126
-21.131
-21.002
-20.7183
-20.4379
-20.3043
-20.1443
-19.9885
-19.9106
-19.8243
-19.738
-19.6081
-19.4809
-19.3815
-19.3396
-19.3219
-19.2432
-19.2492
-19.2833
-19.1429
-19.0852
-19.1505
-19.8758
-20.9965
-22.5431
-26.0295
-29.9769
-31.3837
-31.385
-30.9694
-30.5316
-30.188
-29.9612
-29.8497
-32.0714
-31.2065
-30.4589
-28.9822
-27.6156
-27.1094
-26.42
-25.7818
-25.7248
-25.6273
-25.6408
-25.2176
-24.8397
-24.6906
-24.0349
-23.3945
-23.2671
-22.9787
-22.6845
-22.7424
-22.7518
-22.8154
-22.5776
-22.3616
-22.2925
-21.9046
-21.5426
-21.5265
-21.4943
-21.5163
-21.3016
-21.1037
-21.0175
-20.6814
-20.3508
-20.251
-20.0805
-19.9033
-19.8448
-19.7578
-19.6772
-19.5263
-19.3792
-19.2618
-19.2211
-19.2129
-19.0858
-19.0911
-19.1467
-18.8972
-18.7561
-18.642
-19.4108
-20.5337
-21.8588
-26.0346
-31.0516
-32.3274
-31.9954
-31.3465
-30.7745
-30.3572
-30.0919
-29.9638
-32.6723
-31.5278
-30.862
-29.0725
-27.4365
-27.1205
-26.3591
-25.5883
-25.6866
-25.606
-25.7626
-25.2296
-24.8067
-24.8136
-24.0069
-23.22
-23.2354
-22.913
-22.5384
-22.7024
-22.7256
-22.8842
-22.5734
-22.3264
-22.3557
-21.8695
-21.4152
-21.4846
-21.4637
-21.5621
-21.2894
-21.0669
-21.0562
-20.6456
-20.2454
-20.2069
-20.0202
-19.8105
-19.7845
-19.6936
-19.6258
-19.4477
-19.2791
-19.14
-19.1048
-19.1201
-18.9227
-18.935
-19.0454
-18.6519
-18.4385
-18.0707
-18.9318
-20.0709
-20.9309
-25.9592
-32.4382
-33.385
-32.61
-31.7
-30.992
-30.5045
-30.2036
-30.0605
-33.3475
-31.7937
-31.3459
-29.1454
-27.1496
-27.1698
-26.3016
-25.327
-25.6656
-25.565
-25.9396
-25.2315
-24.7376
-25.0023
-23.9785
-22.9829
-23.2346
-22.8548
-22.3515
-22.6764
-22.6889
-22.9912
-22.5639
-22.2686
-22.4613
-21.8331
-21.2475
-21.4524
-21.4241
-21.6385
-21.2736
-21.0132
-21.1282
-20.6105
-20.113
-20.1776
-19.9646
-19.7056
-19.7326
-19.6303
-19.5864
-19.3717
-19.1808
-19.0145
-18.9891
-19.05
-18.7483
-18.7773
-18.9926
-18.4016
-18.1479
-17.4166
-18.4489
-19.6519
-19.6777
-25.7601
-34.2495
-34.5486
-33.2102
-32.0204
-31.1805
-30.6288
-30.2965
-30.1404
-34.118
-31.9598
-31.949
-29.1986
-26.7136
-27.2879
-26.255
-24.9718
-25.6805
-25.4879
-26.1955
-25.2162
-24.6109
-25.2861
-23.949
-22.6562
-23.2844
-22.809
-22.1066
-22.6766
-22.6308
-23.1521
-22.5444
-22.1742
-22.628
-21.795
-21.024
-21.4405
-21.3672
-21.7582
-21.2502
-20.932
-21.2478
-20.5754
-19.9413
-20.1718
-19.9152
-19.5824
-19.6932
-19.5651
-19.5623
-19.2972
-19.0848
-18.8832
-18.8716
-19.0119
-18.555
-18.6116
-19.0067
-18.1353
-17.908
-16.6496
-17.9731
-19.3443
-17.9931
-25.3771
-36.6387
-35.7943
-33.7728
-32.2988
-31.3376
-30.73
-30.3712
-30.2042
-35.0134
-31.9619
-32.7266
-29.23
-26.0723
-27.5184
-26.2287
-24.4862
-25.7606
-25.3485
-26.564
-25.1743
-24.396
-25.705
-23.9177
-22.203
-23.4128
-22.7819
-21.7792
-22.7219
-22.5341
-23.3889
-22.5084
-22.0237
-22.8817
-21.754
-20.7233
-21.4651
-21.2792
-21.9388
-21.2143
-20.8079
-21.4347
-20.5391
-19.7139
-20.202
-19.8736
-19.4322
-19.673
-19.4936
-19.5586
-19.2222
-18.9922
-18.7437
-18.7481
-19.0193
-18.3326
-18.4284
-19.1131
-17.8338
-17.7539
-15.7267
-17.5145
-19.2485
-15.7411
-24.7268
-39.8117
-37.0738
-34.271
-32.5273
-31.4618
-30.8085
-30.4284
-30.2528
-36.0746
-31.7087
-33.7558
-29.2372
-25.1503
-27.9219
-26.234
-23.8195
-25.9498
-25.1065
-27.0911
-25.0934
-24.0508
-26.3132
-23.8829
-21.5737
-23.659
-22.7812
-21.3359
-22.841
-22.3722
-23.7319
-22.4477
-21.7898
-23.2575
-21.7085
-20.3172
-21.5512
-21.1391
-22.2048
-21.1589
-20.6203
-21.7155
-20.4997
-19.4085
-20.2856
-19.8415
-19.2429
-19.6818
-19.4089
-19.5819
-19.1433
-18.905
-18.5933
-18.6123
-19.0906
-18.0675
-18.2139
-19.3466
-17.4654
-17.7366
-14.5883
-17.0795
-19.507
-12.7487
-23.6963
-44.0418
-38.3041
-34.6766
-32.7003
-31.5528
-30.865
-30.4694
-30.2875
-37.3573
-31.0741
-35.1425
-29.2176
-23.848
-28.581
-26.2836
-22.9034
-26.3128
-24.7023
-27.8394
-24.9575
-23.5182
-27.1826
-23.8423
-20.7024
-24.0762
-22.8156
-20.7315
-23.0761
-22.1061
-24.2223
-22.3516
-21.4359
-23.8017
-21.6554
-19.7684
-21.7349
-20.9156
-22.5893
-21.0755
-20.3411
-22.126
-20.4546
-18.9959
-20.4468
-19.8205
-18.9984
-19.7338
-19.3007
-19.6418
-19.0558
-18.8261
-18.4294
-18.4545
-19.2509
-17.7422
-17.9485
-19.7547
-16.9818
-17.9293
-13.1539
-16.6677
-20.3161
-8.79989
-22.1348
-49.6877
-39.3539
-34.9632
-32.8146
-31.6115
-30.9011
-30.4954
-30.3095
-38.9366
-29.8874
-37.0289
-29.1675
-22.0357
-29.605
-26.3917
-21.6463
-26.9405
-24.0498
-28.8923
-24.7464
-22.7228
-28.4069
-23.7922
-19.5036
-24.7345
-22.8944
-19.9044
-23.4857
-21.6782
-24.9141
-22.2056
-20.9138
-24.5758
-21.5902
-19.0262
-22.0651
-20.5611
-23.1343
-20.9512
-19.9326
-22.7122
-20.3994
-18.4378
-20.7169
-19.811
-18.6771
-19.849
-19.154
-19.7511
-18.952
-18.7598
-18.2486
-18.2602
-19.5333
-17.3349
-17.6051
-20.4015
-16.311
-18.4337
-11.3168
-16.2665
-21.9388
-3.62775
-19.8441
-57.2131
-40.0275
-35.111
-32.8704
-31.6397
-30.9184
-30.5078
-30.3198
)
;

boundaryField
{
    left
    {
        type            calculated;
        value           nonuniform List<scalar> 
32
(
-26.4237
-26.446
-26.4887
-26.55
-26.6284
-26.723
-26.8331
-26.9584
-27.0986
-27.254
-27.4246
-27.6111
-27.814
-28.0343
-28.273
-28.5312
-28.8104
-29.1122
-29.4384
-29.7912
-30.1732
-30.5874
-31.0379
-31.5301
-32.0714
-32.6723
-33.3475
-34.118
-35.0134
-36.0746
-37.3573
-38.9366
)
;
    }
    right
    {
        type            calculated;
        value           nonuniform List<scalar> 
32
(
-25.7944
-25.829
-25.895
-25.9889
-26.1079
-26.2493
-26.4108
-26.5901
-26.7849
-26.9928
-27.2115
-27.4383
-27.6706
-27.9057
-28.1407
-28.373
-28.5997
-28.8184
-29.0266
-29.2222
-29.4036
-29.5692
-29.7181
-29.8497
-29.9638
-30.0605
-30.1404
-30.2042
-30.2528
-30.2875
-30.3095
-30.3198
)
;
    }
    interface
    {
        type            calculated;
        value           nonuniform List<scalar> 
64
(
-39.8112
-29.1316
-38.1174
-29.1343
-20.9837
-30.2239
-26.4622
-20.9194
-27.3339
-23.6489
-29.5068
-24.6193
-22.2487
-29.121
-23.7642
-18.8101
-25.1338
-22.946
-19.4264
-23.7426
-21.4152
-25.3178
-22.1181
-20.6038
-25.0289
-21.5538
-18.5994
-22.2736
-20.3438
-23.4526
-20.8768
-19.6906
-23.0557
-20.3686
-18.1168
-20.8836
-19.8091
-18.4942
-19.9252
-19.0687
-19.8199
-18.895
-18.7304
-18.1535
-18.1518
-19.7097
-17.1077
-17.4099
-20.7937
-15.9181
-18.7785
-10.2825
-16.066
-22.991
-0.699068
-18.4883
-61.5108
-40.2413
-35.1483
-32.884
-31.6465
-30.9224
-30.5107
-30.3223
)
;
    }
    bottom
    {
        type            calculated;
        value           nonuniform List<scalar> 
64
(
-26.4179
-26.3905
-26.3364
-26.2572
-26.1549
-26.0321
-25.8914
-25.7357
-25.5677
-25.39
-25.205
-25.0148
-24.8213
-24.6262
-24.4312
-24.2374
-24.0459
-23.8578
-23.6737
-23.4943
-23.32
-23.1511
-22.988
-22.8308
-22.6798
-22.5353
-22.3975
-22.2667
-22.1435
-22.0281
-21.9213
-21.8235
-21.7357
-21.6585
-21.593
-21.5402
-21.5012
-21.477
-21.4691
-21.4785
-21.5066
-21.5546
-21.6237
-21.715
-21.8296
-21.9681
-22.1309
-22.3178
-22.5283
-22.7609
-23.0132
-23.2819
-23.5628
-23.8506
-24.1394
-24.4227
-24.6937
-24.9459
-25.1732
-25.3705
-25.5332
-25.6581
-25.7427
-25.7853
)
;
    }
    defaultFaces
    {
        type            empty;
    }
}


// ************************************************************************* //
