/*--------------------------------*- C++ -*----------------------------------*\
| =========                 |                                                 |
| \\      /  F ield         | OpenFOAM: The Open Source CFD Toolbox           |
|  \\    /   O peration     | Version:  5.x                                   |
|   \\  /    A nd           | Web:      www.OpenFOAM.org                      |
|    \\/     M anipulation  |                                                 |
\*---------------------------------------------------------------------------*/
FoamFile
{
    version     2.0;
    format      ascii;
    class       volScalarField;
    location    "8.4";
    object      gradTy;
}
// * * * * * * * * * * * * * * * * * * * * * * * * * * * * * * * * * * * * * //

dimensions      [0 -1 0 1 0 0 0];

internalField   nonuniform List<scalar> 
3200
(
18.2485
8.63565
11.7296
8.31225
9.74961
8.03967
8.79384
7.79263
8.24152
7.60069
7.87609
7.51721
7.72767
7.31735
7.52959
7.13933
7.3385
6.97995
7.16171
6.83782
7.00114
6.71222
6.85728
6.60219
6.73018
6.50606
6.6203
6.42071
6.53566
6.36658
6.23147
6.31859
6.20016
6.25779
6.16568
6.2103
6.13636
6.17225
6.11216
6.14134
6.09234
6.11611
6.0762
6.09548
6.06323
6.07866
6.05313
6.06501
6.04592
6.05409
6.04303
6.04916
6.03762
6.04299
6.03409
6.03769
6.03281
6.03383
6.03453
6.03184
6.04062
6.03227
6.05364
6.03581
6.07861
6.04274
6.12649
6.04831
6.22314
6.0007
6.29312
7.10893
6.42159
7.94781
6.78062
9.89656
9.12587
9.00801
8.98368
8.97844
17.009
9.75157
11.332
8.77625
9.54687
8.26987
8.67363
7.92517
8.16436
7.6849
7.83195
7.56407
7.67623
7.36884
7.48096
7.18861
7.29391
7.02535
7.12149
6.8789
6.96529
6.7489
6.82566
6.63461
6.70236
6.53454
6.59518
6.4459
6.50822
6.37037
6.25635
6.30423
6.21577
6.2465
6.17756
6.20122
6.14586
6.16487
6.11987
6.13532
6.09862
6.11121
6.08132
6.09153
6.06738
6.07554
6.05642
6.0627
6.04841
6.05275
6.04449
6.04774
6.0391
6.04192
6.03525
6.03715
6.03349
6.03401
6.03453
6.03308
6.03964
6.03517
6.05114
6.04159
6.07356
6.05426
6.11669
6.07389
6.20334
6.07612
6.35162
6.99362
6.62345
7.76511
7.15806
9.50319
9.09971
9.00422
8.98287
8.97818
16.0597
10.5139
11.0998
9.10713
9.42597
8.43278
8.59945
8.01816
8.11591
7.744
7.80435
7.59568
7.64152
7.40349
7.44845
7.22193
7.26423
7.05611
7.09477
6.90676
6.94151
6.77381
6.8047
6.65662
6.68391
6.55383
6.5784
6.46259
6.48875
6.37318
6.27472
6.29528
6.22659
6.23916
6.1857
6.19527
6.15235
6.16002
6.12514
6.13137
6.10292
6.10799
6.08482
6.08894
6.07021
6.0735
6.05868
6.06121
6.05013
6.0519
6.04547
6.04679
6.0401
6.04123
6.03606
6.03681
6.03398
6.03418
6.03459
6.03398
6.03908
6.03724
6.04965
6.04571
6.07056
6.0625
6.11108
6.09258
6.19381
6.13542
6.39545
6.9188
6.76484
7.65239
7.41743
9.21981
9.06127
8.99751
8.98143
8.97778
15.3322
11.031
10.9707
9.34554
9.35755
8.5493
8.55519
8.08398
8.08623
7.78581
7.78751
7.6171
7.61816
7.42682
7.4268
7.24449
7.24456
7.077
7.07711
6.92572
6.92583
6.79078
6.79089
6.67163
6.67176
6.56693
6.56724
6.47359
6.47494
6.3753
6.28834
6.28991
6.23416
6.23447
6.19132
6.19142
6.15682
6.15687
6.12876
6.1288
6.10587
6.1059
6.08723
6.08725
6.07217
6.07218
6.06025
6.06025
6.05134
6.05137
6.04614
6.04616
6.04079
6.04078
6.03663
6.03662
6.03436
6.03434
6.03469
6.03466
6.0388
6.03874
6.04881
6.04868
6.06887
6.06847
6.10816
6.10647
6.19066
6.18199
6.42875
6.87108
6.86457
7.58457
7.5953
9.01487
9.01904
8.98889
8.9795
8.97723
14.7768
11.3784
10.9043
9.51847
9.32195
8.63325
8.53001
8.13087
8.06866
7.81553
7.77756
7.63166
7.6025
7.44251
7.41243
7.25976
7.2316
7.09118
7.06551
6.93861
6.91555
6.80233
6.78186
6.68185
6.66381
6.57583
6.55984
6.4808
6.46517
6.37692
6.29841
6.28683
6.23948
6.23151
6.19522
6.18895
6.1599
6.15485
6.13125
6.12714
6.10791
6.10456
6.08889
6.08618
6.07352
6.07135
6.06134
6.05966
6.0522
6.05106
6.0466
6.04574
6.04126
6.0405
6.03704
6.03652
6.03464
6.03449
6.03481
6.03517
6.03869
6.03984
6.04839
6.05083
6.068
6.07284
6.10689
6.11693
6.19122
6.21833
6.45422
6.84131
6.93523
7.54512
7.71682
8.86655
8.97819
8.97944
8.97728
8.9766
14.3573
11.6089
10.8743
9.64383
9.30603
8.69378
8.51667
8.16427
8.05873
7.83664
7.77192
7.64156
7.59207
7.45299
7.40298
7.27005
7.22312
7.10077
7.05795
6.94735
6.90888
6.81018
6.77601
6.6888
6.65865
6.58185
6.55496
6.48547
6.4583
6.37814
6.3058
6.28518
6.24323
6.22968
6.19791
6.1874
6.16202
6.15357
6.13297
6.1261
6.1093
6.1037
6.09004
6.08549
6.07445
6.07082
6.06209
6.0593
6.0528
6.05088
6.04691
6.04547
6.04159
6.04033
6.03733
6.03648
6.03485
6.03461
6.03492
6.03555
6.03868
6.04064
6.0482
6.05239
6.06763
6.07604
6.10659
6.12482
6.19367
6.24633
6.47365
6.82327
6.98526
7.52319
7.79923
8.75974
8.94175
8.97013
8.97501
8.97593
14.0477
11.7588
10.8641
9.73348
9.30109
8.73691
8.51034
8.1878
8.05346
7.85146
7.76891
7.64821
7.58522
7.45991
7.39683
7.2769
7.21767
7.10718
7.05311
6.95321
6.90462
6.81544
6.77228
6.69346
6.65536
6.58587
6.55179
6.48845
6.45355
6.37906
6.31112
6.28438
6.24584
6.22859
6.19975
6.18645
6.16346
6.15277
6.13413
6.12544
6.11025
6.10318
6.09081
6.08507
6.07509
6.0705
6.06261
6.05908
6.05322
6.05078
6.04713
6.0453
6.04181
6.04022
6.03753
6.03646
6.03501
6.03472
6.03502
6.03583
6.03871
6.04122
6.04816
6.05351
6.06754
6.07836
6.10677
6.13068
6.19677
6.26734
6.48818
6.81273
7.02026
7.51174
7.85425
8.68408
8.91145
8.96176
8.97289
8.97531
13.8297
11.853
10.8633
9.7952
9.30141
8.76653
8.50784
8.20381
8.0509
7.8615
7.76742
7.65256
7.58087
7.46434
7.39297
7.28131
7.21426
7.11133
7.0501
6.95701
6.90198
6.81887
6.76997
6.6965
6.65333
6.58847
6.54978
6.49029
6.45039
6.37971
6.3148
6.28405
6.2476
6.22796
6.20097
6.18587
6.16441
6.1523
6.1349
6.12505
6.11088
6.10286
6.09132
6.08482
6.07551
6.07031
6.06296
6.05896
6.0535
6.05073
6.04727
6.04519
6.04196
6.04016
6.03766
6.03646
6.03512
6.03479
6.0351
6.03603
6.03876
6.04162
6.04817
6.05429
6.06757
6.07997
6.10714
6.13486
6.19969
6.28234
6.49856
6.80687
7.04389
7.50626
7.88978
8.63252
8.88824
8.95496
8.97112
8.97478
13.6908
11.9077
10.8657
9.83394
9.30338
8.7851
8.50716
8.21376
8.04979
7.86773
7.76676
7.65518
7.5783
7.46696
7.39071
7.28395
7.21228
7.11381
7.04836
6.95928
6.90046
6.82092
6.76865
6.69832
6.65216
6.59003
6.54861
6.49134
6.44845
6.38012
6.31711
6.28395
6.24869
6.22762
6.20171
6.18556
6.16499
6.15203
6.13537
6.12483
6.11126
6.10268
6.09163
6.08468
6.07576
6.0702
6.06317
6.05889
6.05367
6.0507
6.04735
6.04513
6.04205
6.04013
6.03775
6.03646
6.0352
6.03485
6.03516
6.03616
6.0388
6.04187
6.0482
6.05477
6.06763
6.08099
6.10748
6.13755
6.2019
6.29199
6.50527
6.80387
7.05851
7.50392
7.91094
8.60044
8.87259
8.95018
8.96986
8.97439
13.6231
11.9327
10.8677
9.85264
9.30486
8.79405
8.5071
8.21854
8.04941
7.87071
7.76652
7.65642
7.57712
7.46818
7.38967
7.28518
7.21138
7.11498
7.04757
6.96035
6.89977
6.82188
6.76805
6.69917
6.65162
6.59076
6.54807
6.49182
6.44754
6.38033
6.31822
6.28393
6.24921
6.22747
6.20206
6.18542
6.16526
6.15191
6.13559
6.12474
6.11144
6.1026
6.09178
6.08462
6.07588
6.07016
6.06327
6.05886
6.05375
6.05069
6.04739
6.0451
6.04209
6.04012
6.03779
6.03647
6.03523
6.03488
6.03519
6.03623
6.03882
6.042
6.04822
6.05501
6.06768
6.08149
6.10768
6.13887
6.20308
6.29672
6.50856
6.80262
7.0655
7.50312
7.9208
8.58506
8.86472
8.94772
8.9692
8.97419
-13.7629
-11.9574
-10.7284
-9.38917
-8.57876
-7.68692
-7.12497
-6.47309
-6.05805
-5.57595
-5.2825
-4.95685
-4.71922
-4.39068
-4.15497
-3.84323
-3.62537
-3.34412
-3.14984
-2.90165
-2.73106
-2.51416
-2.36533
-2.17631
-2.04626
-1.88026
-1.76367
-1.60963
-1.48716
-1.29944
-1.12365
-1.025
-0.922619
-0.857253
-0.779108
-0.726957
-0.662436
-0.618884
-0.564495
-0.527661
-0.481536
-0.450289
-0.411168
-0.384728
-0.351736
-0.329611
-0.302298
-0.284397
-0.262987
-0.249774
-0.234874
-0.2239
-0.208613
-0.197599
-0.182973
-0.172725
-0.159463
-0.150291
-0.138565
-0.130519
-0.120319
-0.113401
-0.10477
-0.0991524
-0.0925896
-0.0892337
-0.0871902
-0.0906311
-0.104882
-0.138792
-0.228866
-0.374951
-0.52951
-0.815962
-1.11861
-1.62771
-1.84308
-1.90708
-1.92364
-1.9275
-13.8351
-11.9343
-10.7328
-9.36802
-8.58202
-7.67373
-7.12857
-6.46362
-6.06074
-5.56841
-5.28379
-4.95334
-4.72286
-4.38697
-4.15802
-3.83948
-3.62791
-3.34065
-3.152
-2.89855
-2.73292
-2.51144
-2.36694
-2.17395
-2.0477
-1.87829
-1.76517
-1.60837
-1.48978
-1.29896
-1.12057
-1.02516
-0.921141
-0.857767
-0.77807
-0.727454
-0.661599
-0.619319
-0.563795
-0.528034
-0.480943
-0.450606
-0.410663
-0.384991
-0.351303
-0.32982
-0.301923
-0.284539
-0.262661
-0.249842
-0.234718
-0.224074
-0.208444
-0.197745
-0.182799
-0.172847
-0.1593
-0.150394
-0.138418
-0.130606
-0.120188
-0.11347
-0.10465
-0.099191
-0.0924621
-0.0891819
-0.0869714
-0.0901993
-0.104096
-0.136546
-0.226626
-0.374612
-0.524235
-0.815314
-1.11035
-1.63946
-1.84913
-1.90897
-1.92415
-1.92765
-13.9834
-11.8833
-10.7437
-9.32373
-8.59018
-7.64601
-7.13697
-6.44367
-6.06701
-5.55257
-5.28693
-4.94583
-4.73072
-4.37899
-4.16465
-3.83145
-3.63348
-3.33324
-3.15675
-2.89194
-2.73701
-2.50565
-2.3705
-2.16893
-2.05087
-1.87407
-1.76842
-1.60558
-1.49529
-1.29799
-1.11417
-1.02565
-0.91804
-0.858936
-0.775872
-0.728563
-0.659822
-0.620287
-0.562306
-0.528863
-0.479682
-0.451309
-0.409588
-0.385578
-0.350383
-0.330287
-0.301129
-0.284862
-0.261973
-0.250005
-0.234384
-0.224448
-0.208078
-0.198062
-0.182426
-0.173113
-0.158953
-0.150621
-0.138107
-0.130798
-0.119911
-0.113625
-0.104397
-0.0992811
-0.0921973
-0.089088
-0.0865358
-0.0893414
-0.102569
-0.131996
-0.22207
-0.374209
-0.513301
-0.814508
-1.09273
-1.66399
-1.86118
-1.91265
-1.92513
-1.92794
-14.2156
-11.7939
-10.7659
-9.25199
-8.60677
-7.6009
-7.15274
-6.41107
-6.07879
-5.52678
-5.29308
-4.93328
-4.74406
-4.36551
-4.17605
-3.81802
-3.64315
-3.32088
-3.16505
-2.88094
-2.74417
-2.49601
-2.37672
-2.16057
-2.0564
-1.867
-1.77397
-1.6007
-1.50428
-1.29649
-1.10397
-1.02692
-0.913001
-0.861066
-0.772247
-0.730532
-0.656879
-0.621995
-0.559839
-0.530324
-0.47759
-0.452548
-0.407807
-0.386613
-0.348861
-0.331118
-0.299821
-0.285451
-0.26085
-0.250315
-0.233825
-0.225081
-0.20746
-0.198604
-0.181802
-0.173575
-0.158374
-0.151017
-0.137588
-0.131134
-0.11945
-0.113897
-0.10398
-0.0994508
-0.0917744
-0.0889726
-0.0858867
-0.0880673
-0.100394
-0.12502
-0.215032
-0.374327
-0.495883
-0.814622
-1.06338
-1.70348
-1.87905
-1.9179
-1.92649
-1.92835
-14.5448
-11.6487
-10.8075
-9.1455
-8.63779
-7.53349
-7.18026
-6.36209
-6.09937
-5.48826
-5.30429
-4.91392
-4.76497
-4.34448
-4.19419
-3.79728
-3.65872
-3.30187
-3.17848
-2.86405
-2.75579
-2.48122
-2.38681
-2.14774
-2.06534
-1.85609
-1.78273
-1.59274
-1.51772
-1.29438
-1.08914
-1.02966
-0.905486
-0.864675
-0.76674
-0.733781
-0.652388
-0.624796
-0.556067
-0.532716
-0.474393
-0.454577
-0.405086
-0.388312
-0.346541
-0.332493
-0.297838
-0.286451
-0.259167
-0.250864
-0.232957
-0.226071
-0.206492
-0.199466
-0.180835
-0.174316
-0.157483
-0.151656
-0.136791
-0.131681
-0.118745
-0.114346
-0.103348
-0.0997472
-0.0911572
-0.0888693
-0.0850275
-0.0863879
-0.0977283
-0.115429
-0.205223
-0.375955
-0.470578
-0.817534
-1.01839
-1.76155
-1.9024
-1.92435
-1.92812
-1.92883
-14.9897
-11.4213
-10.8819
-8.99285
-8.69268
-7.43604
-7.22639
-6.2909
-6.1339
-5.43266
-5.32375
-4.8849
-4.79675
-4.31265
-4.2222
-3.7662
-3.68302
-3.27352
-3.19955
-2.83892
-2.77406
-2.45923
-2.4027
-2.12864
-2.07935
-1.83975
-1.79615
-1.5802
-1.53711
-1.29154
-1.06849
-1.035
-0.894639
-0.870571
-0.758636
-0.73897
-0.645747
-0.629245
-0.550483
-0.536508
-0.469657
-0.457795
-0.401059
-0.391013
-0.343114
-0.334694
-0.294926
-0.288089
-0.256725
-0.2518
-0.231649
-0.227569
-0.205023
-0.200794
-0.179386
-0.175472
-0.156152
-0.152658
-0.135604
-0.132541
-0.1177
-0.115059
-0.102422
-0.100244
-0.0902888
-0.0888289
-0.083961
-0.0843101
-0.0948085
-0.102954
-0.192177
-0.380628
-0.435179
-0.826291
-0.951698
-1.84371
-1.9305
-1.93153
-1.92987
-1.92934
-15.5775
-11.0728
-11.0104
-8.77665
-8.78583
-7.29671
-7.30155
-6.18857
-6.19019
-5.35337
-5.35642
-4.84187
-4.84437
-4.26507
-4.26484
-3.72021
-3.72038
-3.23176
-3.2321
-2.80196
-2.80234
-2.42691
-2.42729
-2.10056
-2.10099
-1.81557
-1.81648
-1.56074
-1.5646
-1.28781
-1.04027
-1.04461
-0.879144
-0.879985
-0.746845
-0.747104
-0.636039
-0.636187
-0.54231
-0.542418
-0.462725
-0.462809
-0.395165
-0.395231
-0.338109
-0.338151
-0.290697
-0.290709
-0.253227
-0.253345
-0.2297
-0.229808
-0.202823
-0.202809
-0.177238
-0.177244
-0.154189
-0.154203
-0.13386
-0.133874
-0.116167
-0.116173
-0.101078
-0.101053
-0.0890813
-0.0889255
-0.0826866
-0.0818269
-0.0919834
-0.0872377
-0.175162
-0.390656
-0.386318
-0.845676
-0.854344
-1.95808
-1.96203
-1.93882
-1.93157
-1.92983
-16.3454
-10.5466
-11.2256
-8.47074
-8.93892
-7.09763
-7.42143
-6.04167
-6.28003
-5.2405
-5.4098
-4.77815
-4.91527
-4.19434
-4.32926
-3.65244
-3.7773
-3.17044
-3.28187
-2.74779
-2.84566
-2.37956
-2.46497
-2.0594
-2.13406
-1.77993
-1.84707
-1.5309
-1.60331
-1.28292
-1.00196
-1.06102
-0.856999
-0.89476
-0.72972
-0.759693
-0.621886
-0.646891
-0.53038
-0.551522
-0.452603
-0.470535
-0.386565
-0.401737
-0.330819
-0.34351
-0.284572
-0.294831
-0.248227
-0.255843
-0.226803
-0.233132
-0.199545
-0.205849
-0.174068
-0.179941
-0.151304
-0.156564
-0.131301
-0.135916
-0.113927
-0.117892
-0.0991314
-0.10234
-0.087402
-0.0892663
-0.0811976
-0.0789037
-0.089755
-0.0678148
-0.153045
-0.409479
-0.31891
-0.883089
-0.713187
-2.11644
-1.99465
-1.94546
-1.93306
-1.93024
-17.3453
-9.76132
-11.5783
-8.03591
-9.18439
-6.81196
-7.60945
-5.83005
-6.42099
-5.07927
-5.49521
-4.6837
-5.02049
-4.08938
-4.42615
-3.5526
-3.8635
-3.0804
-3.35747
-2.66835
-2.91154
-2.31016
-2.52229
-1.99903
-2.18429
-1.72746
-1.893
-1.48552
-1.65775
-1.27645
-0.950064
-1.08795
-0.825185
-0.917651
-0.704797
-0.778996
-0.601222
-0.663259
-0.512945
-0.56543
-0.437808
-0.482339
-0.374001
-0.411689
-0.320186
-0.351735
-0.27568
-0.301228
-0.241059
-0.259808
-0.222492
-0.238053
-0.194673
-0.210413
-0.169393
-0.184019
-0.147065
-0.160147
-0.127549
-0.139024
-0.110649
-0.120521
-0.0963073
-0.104354
-0.0850513
-0.0900051
-0.0794783
-0.0754554
-0.0888389
-0.0441056
-0.12408
-0.442182
-0.225311
-0.949864
-0.509104
-2.33581
-2.02436
-1.95064
-1.93416
-1.93055
-18.6488
-8.60031
-12.1456
-7.41378
-9.57103
-6.39982
-7.90089
-5.52395
-6.6396
-4.84808
-5.63007
-4.54364
-5.17677
-3.93403
-4.57178
-3.4057
-3.99377
-2.94825
-3.47202
-2.5519
-3.01149
-2.2085
-2.60931
-1.91059
-2.26046
-1.65033
-1.9621
-1.41718
-1.73455
-1.268
-0.87979
-1.13111
-0.779343
-0.952935
-0.668559
-0.808545
-0.57112
-0.688275
-0.48754
-0.586684
-0.416258
-0.500388
-0.355716
-0.426928
-0.304741
-0.364373
-0.262825
-0.311155
-0.230828
-0.266109
-0.216153
-0.24542
-0.187518
-0.217329
-0.162568
-0.190236
-0.140894
-0.165626
-0.122098
-0.143789
-0.105901
-0.124572
-0.0922466
-0.107516
-0.0817794
-0.0914122
-0.0775431
-0.0713551
-0.0902855
-0.0154462
-0.0856172
-0.496296
-0.0940689
-1.06325
-0.214318
-2.64067
-2.04453
-1.9535
-1.93472
-1.93068
18.6488
8.60031
12.1456
7.41378
9.57102
6.39982
7.90089
5.52395
6.6396
4.84807
5.63007
4.54364
5.17676
3.93403
4.57178
3.4057
3.99377
2.94825
3.47202
2.5519
3.01149
2.2085
2.60931
1.91059
2.26046
1.65033
1.9621
1.41718
1.73455
1.268
0.879789
1.13111
0.779342
0.952934
0.668558
0.808544
0.571119
0.688275
0.487539
0.586684
0.416257
0.500387
0.355715
0.426927
0.30474
0.364373
0.262825
0.311154
0.230827
0.266108
0.216153
0.24542
0.187518
0.217329
0.162568
0.190235
0.140893
0.165626
0.122098
0.143789
0.105901
0.124572
0.0922464
0.107516
0.0817792
0.0914122
0.0775429
0.0713551
0.0902854
0.0154462
0.0856171
0.496296
0.0940687
1.06325
0.214318
2.64067
2.04453
1.9535
1.93472
1.93068
17.3453
9.76133
11.5783
8.03591
9.18439
6.81196
7.60946
5.83005
6.421
5.07927
5.49522
4.6837
5.0205
4.08939
4.42615
3.5526
3.8635
3.0804
3.35747
2.66835
2.91154
2.31017
2.52229
1.99904
2.18429
1.72746
1.893
1.48552
1.65775
1.27645
0.950066
1.08795
0.825187
0.917652
0.704799
0.778998
0.601224
0.663261
0.512946
0.565432
0.437809
0.48234
0.374002
0.41169
0.320187
0.351736
0.275681
0.301229
0.24106
0.259809
0.222493
0.238054
0.194674
0.210414
0.169394
0.18402
0.147066
0.160147
0.12755
0.139025
0.11065
0.120522
0.0963079
0.104355
0.0850518
0.0900057
0.0794788
0.075456
0.0888393
0.044106
0.12408
0.442182
0.225312
0.949865
0.509105
2.33581
2.02436
1.95064
1.93416
1.93055
16.3454
10.5466
11.2256
8.47075
8.93892
7.09764
7.42143
6.04168
6.28004
5.2405
5.4098
4.77816
4.91527
4.19435
4.32926
3.65244
3.77731
3.17045
3.28188
2.7478
2.84566
2.37957
2.46497
2.05941
2.13407
1.77994
1.84707
1.5309
1.60332
1.28292
1.00197
1.06102
0.857002
0.894764
0.729723
0.759696
0.621889
0.646895
0.530383
0.551525
0.452605
0.470538
0.386568
0.401739
0.330821
0.343512
0.284574
0.294833
0.248229
0.255845
0.226805
0.233134
0.199547
0.20585
0.17407
0.179943
0.151306
0.156565
0.131303
0.135918
0.113928
0.117893
0.0991327
0.102341
0.0874031
0.0892674
0.0811986
0.0789048
0.0897559
0.0678156
0.153045
0.40948
0.31891
0.88309
0.713189
2.11644
1.99465
1.94546
1.93306
1.93024
15.5775
11.0728
11.0104
8.77666
8.78584
7.29672
7.30156
6.18858
6.1902
5.35338
5.35643
4.84188
4.84438
4.26508
4.26485
3.72022
3.72039
3.23177
3.23211
2.80197
2.80235
2.42692
2.42729
2.10057
2.101
1.81557
1.81648
1.56074
1.5646
1.28782
1.04027
1.04462
0.879148
0.879989
0.746849
0.747108
0.636043
0.63619
0.542314
0.542421
0.462728
0.462812
0.395168
0.395233
0.338111
0.338154
0.2907
0.290711
0.253229
0.253347
0.229703
0.22981
0.202825
0.202811
0.17724
0.177246
0.154191
0.154205
0.133861
0.133875
0.116169
0.116175
0.101079
0.101054
0.0890827
0.0889269
0.0826878
0.0818281
0.0919845
0.0872387
0.175163
0.390658
0.386319
0.845678
0.854345
1.95808
1.96203
1.93882
1.93157
1.92983
14.9898
11.4214
10.8819
8.99286
8.69268
7.43605
7.22639
6.29091
6.1339
5.43267
5.32376
4.88491
4.79676
4.31266
4.22221
3.7662
3.68303
3.27353
3.19956
2.83893
2.77407
2.45924
2.4027
2.12865
2.07936
1.83975
1.79616
1.5802
1.53711
1.29155
1.0685
1.035
0.894644
0.870576
0.758641
0.738974
0.645751
0.629249
0.550487
0.536512
0.469661
0.457798
0.401062
0.391016
0.343116
0.334697
0.294928
0.288091
0.256727
0.251802
0.231652
0.227572
0.205025
0.200796
0.179388
0.175474
0.156154
0.15266
0.135606
0.132543
0.117701
0.115061
0.102423
0.100246
0.0902902
0.0888303
0.0839624
0.0843113
0.0948097
0.102956
0.192178
0.380629
0.43518
0.826293
0.951699
1.84371
1.9305
1.93153
1.92987
1.92934
14.5448
11.6487
10.8075
9.14551
8.6378
7.5335
7.18027
6.3621
6.09938
5.48827
5.30429
4.91393
4.76498
4.34449
4.1942
3.79728
3.65873
3.30187
3.17849
2.86406
2.7558
2.48123
2.38682
2.14775
2.06535
1.8561
1.78273
1.59275
1.51773
1.29438
1.08915
1.02967
0.905491
0.864679
0.766744
0.733785
0.652392
0.6248
0.556071
0.532719
0.474396
0.45458
0.40509
0.388315
0.346544
0.332496
0.297841
0.286454
0.259169
0.250867
0.232959
0.226073
0.206494
0.199468
0.180838
0.174318
0.157485
0.151658
0.136792
0.131682
0.118747
0.114348
0.10335
0.0997488
0.0911587
0.0888707
0.0850289
0.0863892
0.0977295
0.11543
0.205224
0.375956
0.470579
0.817536
1.01839
1.76155
1.9024
1.92435
1.92812
1.92883
14.2156
11.7939
10.7659
9.252
8.60678
7.60091
7.15275
6.41107
6.0788
5.52679
5.29309
4.93329
4.74407
4.36552
4.17606
3.81803
3.64316
3.32089
3.16506
2.88095
2.74418
2.49602
2.37672
2.16058
2.05641
1.86701
1.77397
1.6007
1.50428
1.29649
1.10397
1.02693
0.913006
0.861071
0.772251
0.730536
0.656883
0.621999
0.559842
0.530328
0.477594
0.452551
0.407811
0.386616
0.348864
0.331121
0.299824
0.285454
0.260853
0.250317
0.233827
0.225083
0.207462
0.198607
0.181804
0.173577
0.158376
0.151019
0.137589
0.131136
0.119452
0.113899
0.103982
0.0994524
0.0917758
0.088974
0.085888
0.0880686
0.100396
0.125021
0.215033
0.374328
0.495884
0.814624
1.06339
1.70348
1.87906
1.9179
1.92649
1.92835
13.9834
11.8833
10.7437
9.32374
8.59019
7.64602
7.13698
6.44368
6.06701
5.55258
5.28693
4.94584
4.73073
4.37899
4.16466
3.83146
3.63349
3.33324
3.15676
2.89195
2.73702
2.50565
2.37051
2.16894
2.05088
1.87407
1.76843
1.60559
1.49529
1.298
1.11418
1.02566
0.918044
0.85894
0.775877
0.728567
0.659826
0.620291
0.56231
0.528867
0.479685
0.451312
0.409591
0.385581
0.350386
0.33029
0.301132
0.284864
0.261976
0.250007
0.234387
0.22445
0.20808
0.198064
0.182428
0.173115
0.158955
0.150623
0.138108
0.1308
0.119912
0.113626
0.104399
0.0992827
0.0921988
0.0890894
0.0865372
0.0893427
0.10257
0.131997
0.222071
0.37421
0.513303
0.81451
1.09273
1.66399
1.86118
1.91266
1.92513
1.92795
13.8351
11.9343
10.7328
9.36803
8.58203
7.67373
7.12858
6.46363
6.06074
5.56842
5.2838
4.95335
4.72287
4.38698
4.15803
3.83949
3.62792
3.34066
3.152
2.89855
2.73293
2.51145
2.36695
2.17396
2.04771
1.87829
1.76518
1.60837
1.48978
1.29897
1.12058
1.02516
0.921145
0.857771
0.778074
0.727458
0.661603
0.619323
0.563798
0.528038
0.480946
0.450609
0.410666
0.384994
0.351306
0.329822
0.301926
0.284541
0.262663
0.249845
0.23472
0.224076
0.208446
0.197747
0.182801
0.172849
0.159302
0.150396
0.13842
0.130607
0.12019
0.113472
0.104652
0.0991925
0.0924635
0.0891832
0.0869727
0.0902006
0.104098
0.136548
0.226627
0.374614
0.524237
0.815316
1.11035
1.63946
1.84913
1.90897
1.92415
1.92765
13.7629
11.9574
10.7284
9.38918
8.57877
7.68692
7.12498
6.4731
6.05806
5.57596
5.28251
4.95686
4.71923
4.39068
4.15498
3.84324
3.62538
3.34413
3.14984
2.90165
2.73107
2.51417
2.36534
2.17631
2.04626
1.88027
1.76367
1.60963
1.48717
1.29944
1.12366
1.02501
0.922623
0.857257
0.779112
0.72696
0.662439
0.618887
0.564498
0.527664
0.481539
0.450292
0.411171
0.38473
0.351739
0.329613
0.302301
0.284399
0.262989
0.249776
0.234876
0.223902
0.208615
0.197601
0.182975
0.172727
0.159465
0.150293
0.138566
0.13052
0.12032
0.113402
0.104771
0.0991538
0.0925909
0.089235
0.0871914
0.0906323
0.104883
0.138794
0.228867
0.374953
0.529512
0.815964
1.11861
1.62772
1.84308
1.90708
1.92365
1.9275
-13.6266
-11.9376
-10.8746
-9.86317
-9.31956
-8.81672
-8.53886
-8.2677
-8.11714
-7.96839
-7.8658
-7.72999
-7.6343
-7.50961
-7.42263
-7.31029
-7.23216
-7.13154
-7.06171
-6.972
-6.90995
-6.83048
-6.77568
-6.70573
-6.65751
-6.59588
-6.55268
-6.49583
-6.4511
-6.38326
-6.32059
-6.28601
-6.251
-6.22908
-6.20347
-6.1867
-6.1664
-6.15295
-6.1365
-6.12557
-6.11218
-6.10328
-6.09238
-6.08517
-6.07637
-6.07061
-6.06367
-6.05923
-6.05409
-6.051
-6.04768
-6.04537
-6.04234
-6.04035
-6.038
-6.03666
-6.03541
-6.03504
-6.03533
-6.03636
-6.03894
-6.04211
-6.04832
-6.0551
-6.06776
-6.08156
-6.10775
-6.13893
-6.20313
-6.29677
-6.5086
-6.80265
-7.06553
-7.50315
-7.92083
-8.58508
-8.86475
-8.94774
-8.96922
-8.97422
-13.6942
-11.9126
-10.8725
-9.84445
-9.31792
-8.80772
-8.53859
-8.26287
-8.11707
-7.96654
-7.86713
-7.72838
-7.63546
-7.50811
-7.42364
-7.30892
-7.23306
-7.1303
-7.06251
-6.9709
-6.91064
-6.82949
-6.77629
-6.70486
-6.65805
-6.59514
-6.55323
-6.49535
-6.45203
-6.38305
-6.31947
-6.28602
-6.25047
-6.22923
-6.20312
-6.18685
-6.16612
-6.15307
-6.13628
-6.12567
-6.112
-6.10336
-6.09224
-6.08523
-6.07625
-6.07065
-6.06357
-6.05926
-6.054
-6.05101
-6.04764
-6.0454
-6.04229
-6.04036
-6.03796
-6.03666
-6.03537
-6.03501
-6.0353
-6.0363
-6.03892
-6.04198
-6.0483
-6.05486
-6.06771
-6.08106
-6.10755
-6.13761
-6.20195
-6.29204
-6.50531
-6.8039
-7.05854
-7.50395
-7.91097
-8.60047
-8.87262
-8.95021
-8.96988
-8.97442
-13.833
-11.8579
-10.87
-9.80568
-9.31564
-8.78908
-8.53859
-8.25285
-8.11719
-7.96264
-7.87003
-7.72494
-7.63799
-7.50488
-7.42587
-7.306
-7.23504
-7.12767
-7.06425
-6.96853
-6.91217
-6.82739
-6.77762
-6.70301
-6.65923
-6.59356
-6.55441
-6.49428
-6.45398
-6.38263
-6.31714
-6.28612
-6.24938
-6.22957
-6.20237
-6.18716
-6.16554
-6.15333
-6.13581
-6.12589
-6.11162
-6.10354
-6.09192
-6.08537
-6.076
-6.07076
-6.06336
-6.05933
-6.05383
-6.05104
-6.04755
-6.04546
-6.0422
-6.04039
-6.03787
-6.03665
-6.0353
-6.03496
-6.03525
-6.03617
-6.03888
-6.04173
-6.04827
-6.05438
-6.06765
-6.08004
-6.1072
-6.13492
-6.19975
-6.28239
-6.49861
-6.80691
-7.04392
-7.50628
-7.8898
-8.63255
-8.88827
-8.95498
-8.97115
-8.9748
-14.0508
-11.7637
-10.8705
-9.74393
-9.31481
-8.75939
-8.53999
-8.23682
-8.11806
-7.95627
-7.87503
-7.71918
-7.64237
-7.49949
-7.42972
-7.30112
-7.23847
-7.12328
-7.06729
-6.9646
-6.91484
-6.82388
-6.77995
-6.69992
-6.66128
-6.59092
-6.55644
-6.49242
-6.45717
-6.38197
-6.31343
-6.28645
-6.2476
-6.23021
-6.20114
-6.18774
-6.16458
-6.15382
-6.13504
-6.12629
-6.11099
-6.10386
-6.09141
-6.08563
-6.07557
-6.07095
-6.06301
-6.05945
-6.05355
-6.05109
-6.04741
-6.04557
-6.04206
-6.04045
-6.03773
-6.03665
-6.03518
-6.03488
-6.03517
-6.03597
-6.03883
-6.04133
-6.04825
-6.0536
-6.06762
-6.07843
-6.10684
-6.13074
-6.19683
-6.26739
-6.48822
-6.81276
-7.02029
-7.51177
-7.85427
-8.68411
-8.91148
-8.96179
-8.97291
-8.97533
-14.3601
-11.6138
-10.8803
-9.65429
-9.31904
-8.71626
-8.54474
-8.21342
-8.12065
-7.94668
-7.88301
-7.71025
-7.6494
-7.49118
-7.43593
-7.2936
-7.244
-7.11652
-7.0722
-6.95854
-6.91915
-6.81849
-6.78372
-6.69517
-6.66461
-6.58684
-6.55964
-6.4894
-6.46196
-6.38105
-6.30806
-6.28726
-6.24497
-6.23131
-6.19929
-6.1887
-6.16313
-6.15462
-6.13386
-6.12694
-6.11003
-6.10439
-6.09063
-6.08605
-6.07493
-6.07128
-6.06249
-6.05967
-6.05313
-6.05119
-6.0472
-6.04575
-6.04183
-6.04056
-6.03753
-6.03667
-6.03502
-6.03477
-6.03506
-6.03569
-6.0388
-6.04075
-6.0483
-6.05248
-6.06771
-6.07612
-6.10665
-6.12488
-6.19373
-6.24638
-6.47369
-6.8233
-6.98529
-7.52322
-7.79925
-8.75977
-8.94177
-8.97016
-8.97503
-8.97596
-14.7793
-11.3833
-10.9098
-9.52901
-9.33396
-8.65588
-8.55589
-8.18047
-8.12649
-7.93267
-7.89535
-7.69684
-7.66031
-7.47874
-7.44562
-7.28236
-7.25265
-7.10643
-7.07987
-6.94952
-6.92591
-6.81047
-6.78964
-6.68811
-6.66982
-6.58074
-6.56456
-6.48468
-6.46888
-6.3798
-6.3006
-6.28892
-6.24119
-6.23315
-6.19658
-6.19027
-6.16099
-6.1559
-6.13214
-6.128
-6.10862
-6.10525
-6.08948
-6.08674
-6.074
-6.0718
-6.06173
-6.06004
-6.05252
-6.05137
-6.04688
-6.04602
-6.04151
-6.04073
-6.03724
-6.03672
-6.03481
-6.03465
-6.03495
-6.0353
-6.03881
-6.03995
-6.04848
-6.05092
-6.06808
-6.07292
-6.10696
-6.11699
-6.19128
-6.21838
-6.45426
-6.84134
-6.93526
-7.54514
-7.71685
-8.86657
-8.97821
-8.97947
-8.97731
-8.97662
-15.3343
-11.036
-10.9757
-9.3563
-9.36821
-8.57237
-8.57805
-8.13466
-8.13792
-7.9124
-7.91414
-7.67696
-7.67703
-7.46037
-7.46052
-7.26579
-7.26595
-7.09156
-7.0917
-6.93622
-6.93635
-6.79866
-6.79878
-6.67771
-6.67786
-6.57172
-6.57204
-6.47739
-6.47874
-6.37817
-6.29043
-6.29202
-6.23582
-6.23613
-6.19265
-6.19275
-6.15789
-6.15794
-6.12962
-6.12966
-6.10657
-6.1066
-6.0878
-6.08782
-6.07263
-6.07265
-6.06063
-6.06064
-6.05166
-6.05169
-6.04642
-6.04644
-6.04103
-6.04102
-6.03683
-6.03682
-6.03452
-6.03451
-6.03483
-6.0348
-6.03892
-6.03886
-6.04891
-6.04877
-6.06895
-6.06855
-6.10822
-6.10653
-6.19071
-6.18204
-6.42879
-6.87111
-6.8646
-7.58459
-7.59533
-9.01489
-9.01906
-8.98891
-8.97952
-8.97726
-16.0612
-10.5191
-11.1039
-9.11834
-9.43476
-8.4568
-8.61817
-8.07099
-8.1585
-7.88305
-7.94249
-7.64758
-7.70242
-7.43332
-7.48321
-7.24142
-7.28624
-7.0697
-7.10975
-6.9167
-6.9523
-6.78134
-6.81278
-6.66247
-6.69015
-6.55845
-6.58331
-6.46625
-6.49267
-6.37601
-6.2767
-6.29744
-6.22819
-6.24086
-6.18698
-6.19663
-6.15339
-6.16111
-6.12598
-6.13225
-6.1036
-6.10871
-6.08538
-6.08952
-6.07067
-6.07398
-6.05905
-6.06159
-6.05044
-6.05222
-6.04574
-6.04708
-6.04033
-6.04147
-6.03626
-6.03702
-6.03414
-6.03435
-6.03472
-6.03412
-6.03919
-6.03736
-6.04974
-6.04581
-6.07063
-6.06257
-6.11114
-6.09264
-6.19386
-6.13548
-6.39549
-6.91883
-6.76487
-7.65241
-7.41745
-9.21983
-9.06129
-8.99753
-8.98145
-8.9778
-17.0099
-9.7571
-11.3349
-8.7883
-9.55309
-8.29566
-8.68664
-7.98193
-8.1936
-7.84029
-7.98501
-7.60422
-7.74076
-7.39351
-7.51756
-7.20559
-7.31698
-7.03758
-7.13713
-6.88803
-6.97651
-6.75592
-6.83404
-6.64011
-6.70881
-6.53891
-6.60025
-6.44938
-6.51233
-6.37317
-6.25816
-6.30645
-6.21728
-6.24825
-6.17878
-6.20262
-6.14684
-6.166
-6.12067
-6.13624
-6.09927
-6.11195
-6.08185
-6.09213
-6.06781
-6.07603
-6.05677
-6.0631
-6.0487
-6.05308
-6.04476
-6.04804
-6.03932
-6.04217
-6.03544
-6.03736
-6.03364
-6.03419
-6.03465
-6.03322
-6.03974
-6.03529
-6.05123
-6.04169
-6.07363
-6.05434
-6.11675
-6.07396
-6.20339
-6.07618
-6.35166
-6.99365
-6.62348
-7.76514
-7.15808
-9.50321
-9.09973
-9.00424
-8.98289
-8.97821
-18.2485
-8.64184
-11.7308
-8.32575
-9.75225
-8.06853
-8.79887
-7.85616
-8.25124
-7.77756
-8.0485
-7.5401
-7.7984
-7.3348
-7.56931
-7.15276
-7.36329
-6.99024
-7.1784
-6.8458
-7.01303
-6.7185
-6.86613
-6.60719
-6.73697
-6.51007
-6.62564
-6.42392
-6.54003
-6.36931
-6.23306
-6.32093
-6.20154
-6.25963
-6.16681
-6.21177
-6.13728
-6.17343
-6.11291
-6.1423
-6.09294
-6.11688
-6.07669
-6.09611
-6.06363
-6.07917
-6.05346
-6.06542
-6.0462
-6.05443
-6.04329
-6.04946
-6.03784
-6.04325
-6.03427
-6.03791
-6.03296
-6.03402
-6.03465
-6.03199
-6.04072
-6.03239
-6.05372
-6.03591
-6.07867
-6.04282
-6.12655
-6.04838
-6.22318
-6.00076
-6.29316
-7.10896
-6.42163
-7.94783
-6.78065
-9.89658
-9.1259
-9.00804
-8.98371
-8.97847
)
;

boundaryField
{
    F1_1
    {
        type            calculated;
        value           nonuniform List<scalar> 
80
(
18.9507
7.97334
11.9791
8.04086
9.87583
7.90461
8.86787
7.7146
8.28874
7.55113
7.90316
7.4892
7.75837
7.28656
7.55872
7.10992
7.36524
6.95288
7.18586
6.81333
7.02266
6.69036
6.87628
6.58287
6.74689
6.48908
6.63536
6.40556
6.55171
6.36438
6.21714
6.3274
6.19092
6.26461
6.15862
6.21578
6.13072
6.1767
6.10758
6.14497
6.0886
6.11906
6.07315
6.09786
6.06077
6.08053
6.05117
6.0664
6.04445
6.05491
6.04216
6.05
6.03674
6.04363
6.0334
6.03803
6.03242
6.03374
6.03456
6.03113
6.04125
6.03057
6.0552
6.03242
6.08175
6.03601
6.13267
6.03347
6.23617
5.95848
6.25959
7.1787
6.30273
8.06042
6.55697
10.1254
9.13457
9.00906
8.98393
8.97854
)
;
    }
    F1_2
    {
        type            calculated;
        value           nonuniform List<scalar> 
80
(
-19.387
-7.90873
-12.4947
-7.04717
-9.80697
-6.1562
-8.07777
-5.34286
-6.77231
-4.71179
-5.7125
-4.46001
-5.27019
-3.84138
-4.65925
-3.31827
-4.07217
-2.86969
-3.54103
-2.4827
-3.07174
-2.1481
-2.66177
-1.85805
-2.30638
-1.60447
-2.00364
-1.3762
-1.77956
-1.26323
-0.839381
-1.15761
-0.752278
-0.974333
-0.647101
-0.826425
-0.553286
-0.703407
-0.47249
-0.599542
-0.403495
-0.51131
-0.344891
-0.436156
-0.295606
-0.372038
-0.255238
-0.317198
-0.224822
-0.269983
-0.212394