/*--------------------------------*- C++ -*----------------------------------*\
| =========                 |                                                 |
| \\      /  F ield         | OpenFOAM: The Open Source CFD Toolbox           |
|  \\    /   O peration     | Version:  5.x                                   |
|   \\  /    A nd           | Web:      www.OpenFOAM.org                      |
|    \\/     M anipulation  |                                                 |
\*---------------------------------------------------------------------------*/
FoamFile
{
    version     2.0;
    format      ascii;
    class       volScalarField;
    location    "8.4";
    object      gradTx;
}
// * * * * * * * * * * * * * * * * * * * * * * * * * * * * * * * * * * * * * //

dimensions      [0 -1 0 1 0 0 0];

internalField   nonuniform List<scalar> 
3200
(
45.2116
3.71173
1.64867
1.54012
0.814936
0.77135
0.466725
0.447269
0.293827
0.282721
0.170835
0.166692
0.180697
0.180846
0.173154
0.172313
0.159531
0.158414
0.144289
0.143106
0.128819
0.127649
0.113845
0.11275
0.100208
0.0993207
0.0901446
0.0901382
0.0950671
0.164735
0.082489
0.0552483
0.0534201
0.0416724
0.0408452
0.033248
0.0326892
0.0269728
0.0265432
0.0219853
0.0216388
0.0179003
0.0176128
0.0144654
0.0142183
0.0114507
0.0112237
0.00856181
0.00832314
0.00520123
0.00507047
0.00506957
0.00502197
0.00395723
0.0038442
0.00219405
0.00202863
-0.000277497
-0.000514874
-0.00387213
-0.00423446
-0.0095004
-0.0101055
-0.0191781
-0.0203261
-0.0381857
-0.0408586
-0.0840573
-0.0929819
-0.238837
-0.61757
-0.436416
-0.681928
-0.713302
-1.26871
-1.24308
-0.0558172
-0.00753234
-0.00152606
-52.9456
47.896
3.1051
1.57723
1.35446
0.774046
0.680994
0.436316
0.394716
0.271787
0.248194
0.160332
0.151487
0.160987
0.161195
0.155216
0.153442
0.14336
0.140995
0.129817
0.12731
0.115996
0.113517
0.102587
0.100268
0.0903618
0.088498
0.0814253
0.0815756
0.0883587
0.137353
0.0765902
0.0516088
0.0475376
0.0380058
0.036232
0.0301754
0.0289869
0.0244468
0.0235348
0.0199184
0.019183
0.0162174
0.0156072
0.0131103
0.0125858
0.0103892
0.00990713
0.00779277
0.00728902
0.00485251
0.00457467
0.00452929
0.0044253
0.00358483
0.00334527
0.00203666
0.00168543
-0.00014708
-0.000651663
-0.00332311
-0.00409417
-0.00829201
-0.00958224
-0.01684
-0.0192986
-0.0337008
-0.0394909
-0.0750784
-0.0950041
-0.227181
-0.517946
-0.415037
-0.602325
-0.66692
-1.08546
-1.03179
-0.121892
-0.0209059
-0.00438821
-54.7417
50.5637
2.57633
1.4536
1.18309
0.713661
0.596703
0.397785
0.345416
0.245774
0.216238
0.146669
0.135548
0.141649
0.141791
0.137109
0.134904
0.12688
0.123929
0.114998
0.111867
0.10282
0.0997222
0.0909853
0.08809
0.0801939
0.0778836
0.0724171
0.0727476
0.0799618
0.114361
0.0692601
0.0471329
0.0418736
0.0340289
0.0317901
0.0269081
0.0254187
0.0217757
0.0206346
0.0177361
0.0168164
0.0144402
0.013677
0.0116763
0.0110202
0.00925897
0.00865582
0.0069593
0.0063322
0.00441743
0.00406957
0.00399134
0.00385808
0.00318838
0.0028891
0.00184097
0.00140146
-6.97868e-05
-0.000701786
-0.00285012
-0.00381681
-0.00719993
-0.00882027
-0.0146938
-0.0177934
-0.0295604
-0.0369313
-0.0667259
-0.0925362
-0.209182
-0.43407
-0.38205
-0.527629
-0.60638
-0.921096
-0.854751
-0.155611
-0.0309007
-0.00673398
-56.5378
53.2107
2.11313
1.29588
1.01969
0.639177
0.515691
0.353391
0.298007
0.216956
0.185883
0.130667
0.118921
0.12255
0.12258
0.118904
0.116599
0.110197
0.107103
0.0999474
0.0966599
0.0894058
0.0861531
0.0791497
0.0761119
0.0698026
0.0673955
0.063177
0.0636442
0.0704774
0.0945487
0.061011
0.0419822
0.0363128
0.0298277
0.0274539
0.0235051
0.0219366
0.0190045
0.0178046
0.0154747
0.0145079
0.0125986
0.0117964
0.0101884
0.00949872
0.00808244
0.00744822
0.00608303
0.00542687
0.00391966
0.00355368
0.00345559
0.00331231
0.00277711
0.00246286
0.00162093
0.00115876
-2.60717e-05
-0.000691262
-0.00242439
-0.00344281
-0.00617836
-0.00788818
-0.0126586
-0.0159414
-0.0255959
-0.0334748
-0.0585328
-0.086435
-0.186853
-0.36127
-0.341159
-0.455607
-0.536402
-0.771975
-0.703022
-0.166353
-0.0368737
-0.00833411
-58.3336
55.8363
1.70404
1.11651
0.860458
0.554413
0.43623
0.304721
0.251624
0.186139
0.156494
0.112927
0.101678
0.103594
0.103518
0.100643
0.0984574
0.0933814
0.0904383
0.0847417
0.0816116
0.0758315
0.0727341
0.0671554
0.0642647
0.0592552
0.0569797
0.0537494
0.0542862
0.0603035
0.0770409
0.0521815
0.0362972
0.0307847
0.025462
0.0231806
0.0200068
0.0185089
0.016164
0.0150198
0.0131588
0.0122372
0.0107125
0.00994791
0.0086638
0.0080063
0.00687461
0.00626985
0.00517839
0.00455557
0.00337624
0.00302706
0.00292163
0.0027822
0.00235698
0.00205773
0.00138568
0.00094496
-3.14919e-06
-0.000638026
-0.00202727
-0.00300012
-0.00519783
-0.00683366
-0.0106829
-0.0138346
-0.0217024
-0.0293311
-0.050226
-0.0774331
-0.161565
-0.296251
-0.294885
-0.384932
-0.460233
-0.635035
-0.570003
-0.160807
-0.0388092
-0.00906558
-60.1291
58.4418
1.33863
0.923884
0.703226
0.462133
0.357303
0.252914
0.205737
0.153889
0.127662
0.093894
0.0839092
0.084718
0.0845675
0.082355
0.0804316
0.0764808
0.073884
0.0694334
0.0666692
0.0621498
0.0594143
0.0550536
0.0525023
0.0485984
0.0466021
0.0441711
0.0447089
0.0497007
0.0611968
0.0429929
0.0301972
0.025249
0.0209747
0.0189431
0.0164414
0.0151152
0.0132754
0.0122636
0.0108053
0.00999058
0.00879613
0.00812022
0.00711412
0.00653284
0.00564569
0.00511093
0.00425499
0.00370652
0.0027996
0.00249068
0.00238902
0.00226352
0.00193181
0.0016675
0.00114118
0.000751446
7.23812e-06
-0.000554622
-0.0016468
-0.00250844
-0.00423977
-0.00569062
-0.00873512
-0.0115392
-0.0178184
-0.0246568
-0.0416667
-0.0661542
-0.134254
-0.236675
-0.244956
-0.314846
-0.380084
-0.507689
-0.45075
-0.143773
-0.0370545
-0.00890349
-61.9244
61.0296
1.00744
0.723494
0.546811
0.364403
0.278359
0.198819
0.160037
0.120613
0.0991314
0.0739097
0.0657083
0.0658804
0.0656994
0.0640553
0.062487
0.059526
0.0574039
0.0540577
0.0517971
0.0483968
0.0461594
0.0428794
0.0407939
0.0378652
0.0362419
0.0344741
0.0349534
0.0388377
0.0465407
0.033588
0.0237833
0.0196863
0.0163976
0.0147243
0.012829
0.011742
0.0103537
0.00952529
0.00842597
0.00775912
0.00685895
0.00630572
0.00554743
0.00507161
0.00440267
0.00396484
0.00331929
0.00287181
0.00219904
0.00194601
0.00185737
0.00175308
0.00150394
0.00128775
0.000891209
0.000572107
1.03266e-05
-0.000450009
-0.00127556
-0.00198198
-0.00329294
-0.00448382
-0.00679695
-0.00910471
-0.0139121
-0.0195757
-0.0328083
-0.0531309
-0.10557
-0.180864
-0.192562
-0.244947
-0.29744
-0.387725
-0.341498
-0.11873
-0.0321572
-0.00790558
-63.7193
63.6031
0.701908
0.518814
0.390625
0.262819
0.199154
0.143094
0.114362
0.0866204
0.0707504
0.0532446
0.0471725
0.0470569
0.04689
0.0457526
0.044598
0.0425376
0.0409728
0.0386385
0.0369705
0.0345972
0.0329463
0.0306574
0.0291192
0.0270798
0.0258875
0.0246871
0.0250617
0.027822
0.0327108
0.0240572
0.0171411
0.0140912
0.0117559
0.0105143
0.00918428
0.00838077
0.00740959
0.00679779
0.00602936
0.00553699
0.00490788
0.00449942
0.00396943
0.00361809
0.00315039
0.00282706
0.00237566
0.00204609
0.00158168
0.00139476
0.00132633
0.00124843
0.00107474
0.000915208
0.000638134
0.00040247
9.35359e-06
-0.000330791
-0.000909084
-0.00143134
-0.00235092
-0.00323214
-0.004859
-0.00657027
-0.00997152
-0.0141917
-0.0236664
-0.0388229
-0.0759727
-0.127597
-0.13854
-0.175043
-0.213285
-0.273221
-0.239309
-0.0882377
-0.024767
-0.00619481
-65.514
66.1661
0.414173
0.311937
0.234424
0.158668
0.119644
0.0862753
0.0686483
0.0521526
0.0424349
0.0321221
0.0283984
0.0282355
0.0281193
0.0274505
0.0267452
0.0255294
0.0245725
0.0231926
0.0221722
0.0207688
0.0197587
0.0184054
0.0174646
0.0162606
0.0155334
0.0148372
0.0150746
0.016721
0.0194226
0.0144568
0.0103442
0.0084676
0.00707045
0.00630791
0.00551847
0.00502627
0.00445109
0.00407655
0.00362169
0.00332032
0.00294798
0.00269797
0.00238428
0.00216922
0.00189233
0.0016944
0.00142714
0.00122577
0.000953212
0.000838758
0.000795668
0.000747608
0.000644976
0.000547362
0.0003834
0.000239128
6.25899e-06
-0.00020205
-0.000544854
-0.000864802
-0.00141043
-0.00195064
-0.00291767
-0.00396824
-0.0059982
-0.00859765
-0.0142971
-0.0236352
-0.0457961
-0.0759572
-0.0834968
-0.10507
-0.128262
-0.162471
-0.141806
-0.054242
-0.0155808
-0.00394238
-67.3085
68.7227
0.136906
0.104071
0.0781521
0.053049
0.0399089
0.028827
0.0228889
0.0174136
0.0141431
0.0107361
0.00948194
0.00941221
0.0093707
0.00914996
0.00891287
0.00851088
0.00818902
0.00773238
0.0073891
0.00692459
0.00658479
0.00613689
0.00582043
0.00542225
0.00517801
0.00494985
0.00503107
0.0055779
0.00644112
0.00482233
0.00345781
0.00282477
0.00235959
0.00210257
0.00184077
0.00167509
0.00148456
0.00135852
0.00120789
0.00110648
0.000983183
0.00089906
0.000795181
0.000722815
0.000631113
0.000564509
0.000475992
0.000408295
0.000318422
0.000279904
0.000265202
0.000248967
0.000215007
0.000182168
0.000127877
7.93282e-05
2.18037e-06
-6.79296e-05
-0.000181539
-0.000289243
-0.000470156
-0.000652067
-0.000972997
-0.00132703
-0.0020021
-0.00287955
-0.00478237
-0.00793456
-0.0152995
-0.0252224
-0.0278919
-0.0350316
-0.0427987
-0.0539163
-0.0469786
-0.0182902
-0.00531381
-0.00135233
-69.1028
68.7146
0.150884
0.128426
0.107467
0.08521
0.0726952
0.060737
0.0533354
0.0448801
0.038761
0.0310044
0.0281933
0.0283066
0.0282051
0.0273717
0.026474
0.0249586
0.0237721
0.0221283
0.020935
0.019379
0.0182837
0.0168972
0.0159516
0.0148069
0.0141304
0.0135406
0.013839
0.0155186
0.0181059
0.0137288
0.0100716
0.00839221
0.00718101
0.00651468
0.00583605
0.00540294
0.00489869
0.00456041
0.00414922
0.0038679
0.00351946
0.00327746
0.0029725
0.00275519
0.00247258
0.00225988
0.00196613
0.0017303
0.00140777
0.001295
0.00131286
0.00131468
0.00128198
0.00124342
0.00117562
0.00112147
0.00104511
0.000988437
0.000912499
0.000855669
0.000777551
0.000712046
0.000608909
0.000494818
0.000268798
-7.46106e-05
-0.000891817
-0.00243055
-0.00621701
-0.0117851
-0.0150692
-0.022055
-0.02949
-0.0404342
-0.0360478
-0.0140878
-0.00409763
-0.00104317
-69.8075
66.1413
0.45602
0.385217
0.322453
0.25524
0.218063
0.182029
0.160048
0.134547
0.116348
0.0928155
0.0844629
0.0849285
0.0846446
0.0821178
0.0794467
0.0748625
0.0713345
0.066367
0.0628196
0.0581185
0.0548627
0.0506738
0.0478629
0.044402
0.0423876
0.0405864
0.0414618
0.0465194
0.0545962
0.0411577
0.0301356
0.0251579
0.0215212
0.0195445
0.0174984
0.0162117
0.0146894
0.0136842
0.0124425
0.0116064
0.0105541
0.00983489
0.00891399
0.0082682
0.00741496
0.00678287
0.00589607
0.00519436
0.00421491
0.00387979
0.00393922
0.00394544
0.00384618
0.00373143
0.00352631
0.00336529
0.00313455
0.00296608
0.00273674
0.00256786
0.00233215
0.00213765
0.00182717
0.00148893
0.000811092
-0.000204876
-0.00264659
-0.00720172
-0.0185798
-0.0354466
-0.0450596
-0.0661471
-0.0883295
-0.121916
-0.108846
-0.0417846
-0.0120154
-0.00304118
-69.4223
63.5607
0.77135
0.641687
0.537617
0.424069
0.363385
0.302759
0.266902
0.223922
0.194149
0.154019
0.14038
0.14158
0.141174
0.13687
0.132496
0.124724
0.118955
0.110549
0.10475
0.0968003
0.091479
0.0843954
0.0798001
0.0739392
0.0706364
0.0675251
0.0689173
0.0773994
0.0919472
0.0684899
0.0499578
0.04187
0.0357951
0.0325772
0.0291303
0.0270299
0.0244595
0.0228174
0.0207195
0.0193535
0.0175755
0.0164004
0.0148445
0.0137895
0.0123485
0.0113161
0.00981863
0.00866955
0.0069963
0.0064488
0.00656772
0.00658043
0.00641101
0.00622306
0.00587524
0.00561192
0.00522151
0.00494618
0.00455857
0.00428274
0.00388512
0.0035679
0.00304655
0.00249664
0.00136692
-0.000278101
-0.0043168
-0.0117
-0.0307229
-0.0593983
-0.074591
-0.110195
-0.146713
-0.205264
-0.183804
-0.0679898
-0.0191015
-0.00477892
-69.0371
60.968
1.10395
0.897133
0.75316
0.590784
0.508705
0.422497
0.374041
0.312768
0.272365
0.214164
0.195703
0.198297
0.197859
0.191624
0.185681
0.174506
0.16668
0.154626
0.146767
0.135377
0.128166
0.118018
0.111788
0.103374
0.0988775
0.0942838
0.0960893
0.108037
0.130818
0.0956253
0.0693624
0.0585017
0.0499547
0.0456191
0.0407084
0.0378669
0.0341926
0.0319689
0.0289674
0.0271172
0.0245728
0.0229812
0.020755
0.0193263
0.0172658
0.0158679
0.0137273
0.0121657
0.00973268
0.00899117
0.0092005
0.00922272
0.0089766
0.00872112
0.00822082
0.00786365
0.00730389
0.00693079
0.00637595
0.00600251
0.00543488
0.00500633
0.00426709
0.00352756
0.00194338
-0.000255559
-0.00585322
-0.0157326
-0.0424799
-0.0838892
-0.103306
-0.154207
-0.204215
-0.291812
-0.262536
-0.0915178
-0.0248049
-0.00609904
-68.6517
58.3588
1.4613
1.15007
0.969439
0.754286
0.654191
0.540726
0.481692
0.40078
0.351292
0.272718
0.250184
0.255134
0.254776
0.246367
0.239076
0.224154
0.214575
0.198536
0.188925
0.173786
0.16497
0.151483
0.143863
0.132653
0.127123
0.120787
0.122856
0.138241
0.172009
0.122403
0.0881509
0.0750409
0.063946
0.0586841
0.0522039
0.0487373
0.0438676
0.0411515
0.0371692
0.0349087
0.0315321
0.0295875
0.0266337
0.0248885
0.0221565
0.0204495
0.0176128
0.0156968
0.0124014
0.0114955
0.0118408
0.0118758
0.0115426
0.011229
0.0105607
0.0101235
0.00937884
0.00892269
0.0081861
0.00773007
0.00697912
0.00645722
0.00548767
0.0045923
0.00254446
-9.70398e-05
-0.00721834
-0.0190904
-0.0536504
-0.10926
-0.130761
-0.198254
-0.260213
-0.383035
-0.346938
-0.110874
-0.0285879
-0.00686941
-68.2661
55.7293
1.85141
1.39777
1.1871
0.913186
0.800211
0.656778
0.590219
0.487534
0.431382
0.329031
0.303566
0.312184
0.312015
0.301066
0.292776
0.273588
0.262728
0.242189
0.231305
0.211943
0.201962
0.184714
0.176083
0.161704
0.1554
0.146953
0.14909
0.16771
0.216534
0.148568
0.106094
0.0914996
0.077704
0.0717978
0.0635789
0.0596639
0.0534566
0.050385
0.0453023
0.042745
0.0384341
0.0362341
0.0324641
0.0304901
0.0270064
0.0250763
0.0214616
0.0192831
0.0149746
0.0139499
0.0144935
0.0145436
0.0141079
0.0137511
0.0128914
0.0123957
0.0114423
0.0109259
0.00998506
0.00946946
0.00851422
0.00792604
0.00670531
0.00570316
0.00316932
0.000240708
-0.00839338
-0.0215407
-0.0639789
-0.135994
-0.156377
-0.242523
-0.313777
-0.480615
-0.439339
-0.124078
-0.0299483
-0.00699504
-67.8803
53.0766
2.28286
1.63576
1.40729
1.06565
0.947449
0.769754
0.70019
0.572427
0.513321
0.382269
0.355585
0.369585
0.369686
0.355658
0.346911
0.322689
0.311268
0.285456
0.274023
0.249725
0.239244
0.2176
0.208532
0.190432
0.183763
0.172697
0.174664
0.195972
0.265732
0.173713
0.122922
0.107926
0.0911466
0.0850042
0.0747818
0.0706823
0.0629203
0.0596989
0.0533344
0.0506514
0.0452518
0.0429437
0.0382227
0.0361523
0.0317942
0.0297706
0.0252529
0.0229547
0.0174165
0.0163416
0.0171661
0.0172309
0.01667
0.0162934
0.0152076
0.0146863
0.0134883
0.012946
0.0117671
0.0112265
0.0100347
0.00942021
0.00791426
0.00687533
0.00381001
0.00080672
-0.00938784
-0.0228193
-0.0731241
-0.164794
-0.179362
-0.287387
-0.363517
-0.586519
-0.542699
-0.128437
-0.0284616
-0.00643117
-67.4943
50.3993
2.76483
1.85701
1.632
1.20917
1.09707
0.878405
0.81249
0.654574
0.598137
0.431332
0.405976
0.427543
0.427922
0.410039
0.401666
0.371278
0.360385
0.328148
0.317256
0.286954
0.276973
0.249983
0.241342
0.218703
0.212303
0.197919
0.199466
0.222295
0.321401
0.197208
0.138318
0.124425
0.104164
0.098374
0.08574
0.0818474
0.0722025
0.0691387
0.0612194
0.0586667
0.051946
0.0497499
0.0438754
0.041906
0.0364886
0.0345648
0.0289556
0.0267559
0.01968
0.0186574
0.019869
0.0199433
0.0192249
0.0188641
0.0175012
0.017004
0.0155081
0.0149917
0.0135236
0.0130096
0.0115321
0.0109501
0.00910456
0.00812861
0.00444826
0.00166043
-0.0102528
-0.0226229
-0.0806146
-0.196678
-0.198608
-0.333527
-0.407382
-0.703096
-0.660876
-0.120225
-0.0238571
-0.0051968
-67.108
47.6982
3.30681
2.05094
1.86463
1.34027
1.25095
0.980947
0.928469
0.732662
0.687368
0.474737
0.45449
0.486348
0.486888
0.464039
0.457302
0.419088
0.410355
0.369986
0.361266
0.32337
0.315382
0.281633
0.274713
0.246325
0.241162
0.222504
0.223416
0.245567
0.386002
0.218092
0.151915
0.141178
0.116602
0.112018
0.0963486
0.0932426
0.0812216
0.0787728
0.0688898
0.0668487
0.0584593
0.0567033
0.049372
0.0477977
0.0410435
0.0395065
0.032522
0.0307522
0.0217014
0.0208838
0.0226176
0.0226875
0.0217655
0.0214749
0.0197603
0.0193617
0.0174888
0.0170756
0.015242
0.0148313
0.0129938
0.0125306
0.0102601
0.00949011
0.00505088
0.00287922
-0.0110993
-0.0206015
-0.085782
-0.233127
-0.212535
-0.382109
-0.442372
-0.83319
-0.79899
-0.0942417
-0.0161443
-0.00338672
-66.7216
44.9779
3.91822
2.20209
2.11078
1.45396
1.41205
1.07479
1.05018
0.80473
0.783293
0.510447
0.50092
0.546405
0.54679
0.517396
0.514197
0.465718
0.46159
0.410558
0.406443
0.358591
0.354822
0.312209
0.308943
0.273018
0.27056
0.246307
0.246516
0.264109
0.462937
0.234907
0.163294
0.158485
0.128241
0.126105
0.106455
0.104995
0.0898579
0.0887045
0.0762468
0.0752849
0.0647074
0.0638799
0.0546385
0.0538968
0.0453898
0.0446661
0.0358799
0.0350399
0.0233935
0.0230083
0.0254327
0.0254714
0.0242809
0.0241428
0.0219669
0.0217784
0.0194113
0.0192163
0.0169036
0.0167102
0.0144005
0.0141834
0.0113558
0.0109984
0.00556285
0.00457036
-0.0121249
-0.0163529
-0.0876628
-0.276293
-0.218854
-0.435063
-0.464141
-0.980284
-0.963926
-0.043192
-0.00581789
-0.00117782
-66.3351
44.9779
3.91822
2.20209
2.11078
1.45396
1.41205
1.07479
1.05018
0.80473
0.783293
0.510447
0.500921
0.546405
0.54679
0.517396
0.514197
0.465718
0.46159
0.410559
0.406443
0.358591
0.354822
0.31221
0.308943
0.273019
0.270561
0.246307
0.246517
0.264109
0.462938
0.234908
0.163294
0.158486
0.128242
0.126105
0.106455
0.104995
0.0898582
0.0887048
0.076247
0.0752851
0.0647076
0.0638801
0.0546386
0.053897
0.0453899
0.0446663
0.03588
0.03504
0.0233935
0.0230083
0.0254328
0.0254715
0.024281
0.024143
0.021967
0.0217785
0.0194114
0.0192164
0.0169037
0.0167103
0.0144006
0.0141835
0.0113559
0.0109986
0.00556296
0.00457046
-0.0121248
-0.0163528
-0.0876628
-0.276294
-0.218855
-0.435064
-0.464141
-0.980284
-0.963926
-0.043192
-0.00581789
-0.00117783
-66.3351
47.6982
3.30681
2.05094
1.86463
1.34027
1.25095
0.980947
0.928469
0.732662
0.687368
0.474737
0.45449
0.486348
0.486888
0.46404
0.457302
0.419088
0.410355
0.369986
0.361266
0.323371
0.315382
0.281633
0.274713
0.246326
0.241162
0.222505
0.223416
0.245568
0.386003
0.218093
0.151915
0.141179
0.116603
0.112018
0.0963489
0.0932429
0.0812218
0.0787731
0.0688901
0.066849
0.0584595
0.0567035
0.0493722
0.0477979
0.0410436
0.0395066
0.0325221
0.0307523
0.0217014
0.0208839
0.0226176
0.0226876
0.0217656
0.0214751
0.0197604
0.0193618
0.017489
0.0170757
0.0152421
0.0148314
0.0129939
0.0125307
0.0102602
0.00949021
0.00505098
0.00287932
-0.0110992
-0.0206014
-0.085782
-0.233127
-0.212535
-0.382109
-0.442373
-0.83319
-0.79899
-0.0942416
-0.0161443
-0.0033867
-66.7216
50.3992
2.76483
1.85701
1.632
1.20917
1.09707
0.878405
0.812489
0.654574
0.598137
0.431332
0.405976
0.427543
0.427922
0.410039
0.401666
0.371278
0.360385
0.328148
0.317257
0.286954
0.276973
0.249984
0.241343
0.218704
0.212303
0.197919
0.199466
0.222295
0.321401
0.197209
0.138319
0.124425
0.104164
0.0983743
0.0857402
0.0818476
0.0722027
0.0691389
0.0612196
0.0586669
0.0519462
0.0497501
0.0438756
0.0419062
0.0364888
0.0345649
0.0289557
0.026756
0.0196801
0.0186574
0.0198691
0.0199434
0.019225
0.0188642
0.0175013
0.0170041
0.0155082
0.0149918
0.0135237
0.0130097
0.0115322
0.0109502
0.00910466
0.0081287
0.00444836
0.00166052
-0.0102527
-0.0226228
-0.0806146
-0.196678
-0.198608
-0.333527
-0.407382
-0.703096
-0.660876
-0.120225
-0.0238571
-0.00519674
-67.108
53.0766
2.28286
1.63576
1.40729
1.06565
0.947449
0.769754
0.70019
0.572427
0.513321
0.382269
0.355585
0.369585
0.369686
0.355658
0.346912
0.322689
0.311268
0.285456
0.274023
0.249725
0.239244
0.2176
0.208532
0.190432
0.183764
0.172697
0.174665
0.195972
0.265732
0.173713
0.122922
0.107927
0.0911468
0.0850045
0.074782
0.0706825
0.0629205
0.0596991
0.0533346
0.0506516
0.045252
0.0429438
0.0382228
0.0361524
0.0317943
0.0297708
0.025253
0.0229548
0.0174166
0.0163417
0.0171661
0.017231
0.0166701
0.0162935
0.0152077
0.0146864
0.0134884
0.0129461
0.0117672
0.0112266
0.0100348
0.0094203
0.00791434
0.00687541
0.00381009
0.000806793
-0.00938777
-0.0228193
-0.0731241
-0.164795
-0.179362
-0.287387
-0.363517
-0.586519
-0.542698
-0.128437
-0.0284616
-0.00643107
-67.4943
55.7293
1.8514
1.39777
1.1871
0.913186
0.80021
0.656778
0.590219
0.487534
0.431382
0.329031
0.303566
0.312184
0.312015
0.301066
0.292776
0.273588
0.262728
0.242189
0.231305
0.211943
0.201962
0.184714
0.176083
0.161704
0.1554
0.146953
0.14909
0.167711
0.216535
0.148568
0.106094
0.0914998
0.0777042
0.071798
0.0635791
0.0596641
0.0534568
0.0503851
0.0453024
0.0427451
0.0384343
0.0362343
0.0324642
0.0304902
0.0270065
0.0250765
0.0214617
0.0192832
0.0149747
0.01395
0.0144936
0.0145437
0.0141079
0.0137512
0.0128915
0.0123958
0.0114424
0.0109259
0.00998514
0.00946954
0.00851429
0.00792611
0.00670538
0.00570323
0.00316938
0.000240767
-0.00839333
-0.0215407
-0.0639789
-0.135995
-0.156377
-0.242523
-0.313777
-0.480615
-0.439339
-0.124078
-0.0299483
-0.00699492
-67.8803
58.3588
1.4613
1.15007
0.969439
0.754286
0.654191
0.540726
0.481692
0.40078
0.351292
0.272718
0.250184
0.255134
0.254776
0.246367
0.239076
0.224154
0.214575
0.198536
0.188925
0.173787
0.164971
0.151483
0.143864
0.132653
0.127123
0.120787
0.122856
0.138241
0.172009
0.122404
0.0881512
0.0750411
0.0639462
0.0586842
0.052204
0.0487374
0.0438678
0.0411517
0.0371693
0.0349088
0.0315322
0.0295876
0.0266338
0.0248886
0.0221566
0.0204496
0.0176129
0.0156969
0.0124015
0.0114956
0.0118408
0.0118758
0.0115427
0.0112291
0.0105608
0.0101236
0.0093789
0.00892275
0.00818616
0.00773013
0.00697917
0.00645727
0.00548773
0.00459235
0.00254451
-9.69943e-05
-0.0072183
-0.0190904
-0.0536505
-0.10926
-0.130761
-0.198255
-0.260213
-0.383035
-0.346938
-0.110874
-0.0285879
-0.00686927
-68.2661
60.968
1.10395
0.897133
0.75316
0.590784
0.508705
0.422497
0.374041
0.312768
0.272365
0.214164
0.195703
0.198297
0.197859
0.191624
0.185681
0.174506
0.16668
0.154627
0.146767
0.135377
0.128166
0.118018
0.111788
0.103374
0.0988776
0.0942839
0.0960895
0.108037
0.130819
0.0956255
0.0693626
0.0585019
0.0499549
0.0456192
0.0407086
0.037867
0.0341927
0.031969
0.0289675
0.0271173
0.0245729
0.0229813
0.0207551
0.0193264
0.0172658
0.015868
0.0137273
0.0121658
0.00973271
0.0089912
0.00920053
0.00922276
0.00897665
0.00872116
0.00822087
0.0078637
0.00730394
0.00693083
0.00637599
0.00600255
0.00543493
0.00500637
0.00426713
0.0035276
0.00194342
-0.000255526
-0.0058532
-0.0157326
-0.04248
-0.0838893
-0.103306
-0.154207
-0.204215
-0.291812
-0.262536
-0.0915178
-0.0248048
-0.00609891
-68.6517
63.5607
0.771349
0.641687
0.537617
0.424069
0.363385
0.302758
0.266902
0.223922
0.194149
0.154019
0.14038
0.14158
0.141174
0.13687
0.132496
0.124724
0.118955
0.110549
0.10475
0.0968003
0.0914791
0.0843955
0.0798002
0.0739393
0.0706364
0.0675252
0.0689174
0.0773996
0.0919474
0.0684901
0.049958
0.0418702
0.0357952
0.0325773
0.0291304
0.0270299
0.0244596
0.0228175
0.0207196
0.0193536
0.0175756
0.0164005
0.0148446
0.0137896
0.0123486
0.0113161
0.00981867
0.00866958
0.00699632
0.00644882
0.00656775
0.00658045
0.00641104
0.00622309
0.00587528
0.00561195
0.00522155
0.00494621
0.0045586
0.00428277
0.00388515
0.00356793
0.00304658
0.00249667
0.00136695
-0.00027808
-0.00431679
-0.0117
-0.030723
-0.0593984
-0.0745911
-0.110196
-0.146713
-0.205264
-0.183804
-0.0679897
-0.0191014
-0.00477881
-69.0371
66.1413
0.456019
0.385217
0.322453
0.25524
0.218063
0.182029
0.160048
0.134547
0.116348
0.0928155
0.0844629
0.0849285
0.0846446
0.0821178
0.0794467
0.0748625
0.0713345
0.066367
0.0628196
0.0581186
0.0548627
0.0506739
0.0478629
0.044402
0.0423876
0.0405865
0.0414619
0.0465194
0.0545963
0.0411578
0.0301356
0.025158
0.0215213
0.0195446
0.0174984
0.0162117
0.0146895
0.0136842
0.0124425
0.0116064
0.0105542
0.00983493
0.00891402
0.00826823
0.00741499
0.0067829
0.0058961
0.00519438
0.00421493
0.0038798
0.00393923
0.00394545
0.00384619
0.00373144
0.00352632
0.00336531
0.00313457
0.0029661
0.00273676
0.00256788
0.00233217
0.00213766
0.00182719
0.00148895
0.000811107
-0.000204865
-0.00264658
-0.00720173
-0.0185798
-0.0354467
-0.0450597
-0.0661472
-0.0883296
-0.121916
-0.108846
-0.0417846
-0.0120154
-0.0030411
-69.4223
68.7146
0.150883
0.128426
0.107467
0.08521
0.0726951
0.060737
0.0533354
0.0448801
0.038761
0.0310044
0.0281933
0.0283066
0.0282051
0.0273717
0.026474
0.0249586
0.0237721
0.0221283
0.020935
0.019379
0.0182837
0.0168972
0.0159516
0.0148069
0.0141304
0.0135407
0.013839
0.0155186
0.0181059
0.0137289
0.0100716
0.00839224
0.00718102
0.0065147
0.00583607
0.00540295
0.0048987
0.00456042
0.00414924
0.00386791
0.00351948
0.00327747
0.00297251
0.0027552
0.00247259
0.00225988
0.00196614
0.0017303
0.00140777
0.00129501
0.00131286
0.00131469
0.00128198
0.00124342
0.00117562
0.00112147
0.00104512
0.000988443
0.000912505
0.000855675
0.000777557
0.000712052
0.000608915
0.000494823
0.000268802
-7.46074e-05
-0.000891816
-0.00243055
-0.00621702
-0.0117851
-0.0150693
-0.0220551
-0.02949
-0.0404343
-0.0360477
-0.0140878
-0.00409762
-0.00104314
-69.8075
68.7223
0.136739
0.103793
0.0777587
0.0524417
0.0390531
0.0275025
0.0210891
0.0150022
0.0125849
0.011923
0.011573
0.0110198
0.0105817
0.00996781
0.00952183
0.00893946
0.00852142
0.00797814
0.00758713
0.00707748
0.00671203
0.00623884
0.00590765
0.00549451
0.00524167
0.00500525
0.00508364
0.00563179
0.00650053
0.00486527
0.00348719
0.00284793
0.00237829
0.00211888
0.00185474
0.00168763
0.0014955
0.00136844
0.00121661
0.00111441
0.000990174
0.000905422
0.000800782
0.000727897
0.000635548
0.000568482
0.000479362
0.000411208
0.000320736
0.00028199
0.000267273
0.000251009
0.000216959
0.000184032
0.000129601
8.0946e-05
3.65434e-06
-6.65584e-05
-0.000180299
-0.000288096
-0.000469123
-0.000651113
-0.00097214
-0.00132623
-0.00200139
-0.00287889
-0.00478176
-0.00793396
-0.0152988
-0.0252216
-0.0278913
-0.0350312
-0.0427985
-0.0539161
-0.0469784
-0.0182901
-0.00531379
-0.00135229
-69.1028
66.1648
0.413671
0.311102
0.233248
0.156848
0.117086
0.0823021
0.0632541
0.04486
0.0376844
0.0357565
0.0347271
0.0330549
0.0317521
0.0298967
0.0285709
0.0268118
0.0255693
0.0239283
0.0227661
0.0212267
0.0201404
0.0187108
0.0177262
0.0164771
0.0157243
0.0150032
0.0152321
0.0168826
0.0196017
0.0145855
0.010432
0.008537
0.00712646
0.00635682
0.00556034
0.00506388
0.00448388
0.0041063
0.00364783
0.00334411
0.00296894
0.00271706
0.00240108
0.00218447
0.00190563
0.00170633
0.00143725
0.00123452
0.000960138
0.000845008
0.000801879
0.000753739
0.00065083
0.000552955
0.000388571
0.000243983
1.06793e-05
-0.000197934
-0.000541136
-0.000861358
-0.00140733
-0.00194778
-0.0029151
-0.00396586
-0.00599606
-0.00859566
-0.0142953
-0.0236334
-0.0457942
-0.075955
-0.0834952
-0.105069
-0.128261
-0.16247
-0.141805
-0.0542418
-0.0155808
-0.00394226
-67.3085
63.601
0.701073
0.517423
0.388678
0.259789
0.194919
0.136472
0.105393
0.0742689
0.062574
0.0595541
0.057907
0.0550751
0.0529446
0.0498044
0.0476374
0.0446635
0.042633
0.0398594
0.0379602
0.0353577
0.0335825
0.031165
0.0295554
0.0274399
0.0262058
0.0249631
0.0253237
0.0280906
0.0330123
0.0242713
0.0172865
0.0142067
0.011849
0.0105958
0.00925393
0.00844346
0.00746417
0.00684739
0.00607286
0.00557666
0.00494277
0.00453126
0.00399739
0.00364352
0.00317253
0.00284696
0.00239248
0.00206069
0.00159317
0.00140514
0.00133668
0.00125866
0.0010845
0.000924537
0.000646748
0.000410567
1.67152e-05
-0.000323928
-0.000902894
-0.00142559
-0.00234576
-0.00322737
-0.00485472
-0.00656631
-0.00996796
-0.0141884
-0.0236633
-0.0388199
-0.0759695
-0.127593
-0.138538
-0.175041
-0.213284
-0.27322
-0.239308
-0.0882374
-0.0247669
-0.00619465
-65.514
61.0266
1.00628
0.721548
0.544114
0.360169
0.272496
0.189548
0.147534
0.102901
0.0871165
0.0832968
0.0811342
0.0770673
0.0741775
0.0696732
0.0667361
0.0624774
0.0597265
0.0557554
0.0531824
0.0494557
0.0470503
0.0435869
0.0414047
0.0383674
0.0366875
0.0348588
0.0353191
0.0392123
0.0469695
0.0338867
0.0239847
0.0198475
0.0165273
0.0148384
0.0129263
0.0118298
0.0104299
0.00959479
0.00848675
0.00781472
0.0069077
0.00635034
0.0055865
0.00510726
0.0044336
0.00399275
0.00334279
0.00289228
0.00221501
0.0019605
0.00187187
0.00176742
0.0015176
0.00130083
0.000903258
0.000583454
2.06201e-05
-0.000440392
-0.0012669
-0.00197393
-0.00328573
-0.00447713
-0.00679097
-0.00909916
-0.0139071
-0.019571
-0.0328041
-0.0531267
-0.105566
-0.180859
-0.192558
-0.244944
-0.297438
-0.387723
-0.341497
-0.118729
-0.032157
-0.0079054
-63.7193
58.438
1.33715
0.921381
0.699811
0.456698
0.349884
0.240986
0.189779
0.130379
0.111181
0.106973
0.104438
0.0990125
0.095475
0.0894793
0.0858877
0.080231
0.0768688
0.0715955
0.0684508
0.0635008
0.0605604
0.0559575
0.0532883
0.0492405
0.0471752
0.044663
0.0451771
0.0501796
0.0617601
0.043375
0.0304524
0.0254556
0.0211404
0.0190898
0.0165659
0.0152282
0.0133731
0.0123531
0.0108832
0.0100622
0.00885863
0.00817768
0.00716421
0.00657876
0.00568536
0.00514689
0.00428512
0.00373294
0.00281995
0.0025092
0.00240768
0.00228199
0.00194937
0.00168435
0.00115665
0.000766059
2.04482e-05
-0.000542239
-0.0016357
-0.00249808
-0.00423052
-0.005682
-0.00872745
-0.011532
-0.017812
-0.0246508
-0.0416613
-0.0661488
-0.134248
-0.236668
-0.244951
-0.314843
-0.380081
-0.507687
-0.450748
-0.143773
-0.0370544
-0.0089033
-61.9243
55.8319
1.70225
1.11345
0.856369
0.547775
0.427355
0.290116
0.232352
0.156248
0.134645
0.130583
0.127857
0.120882
0.116871
0.109189
0.105122
0.0978928
0.0940876
0.0873505
0.0837914
0.0774655
0.074137
0.0682507
0.065227
0.0600344
0.0576807
0.0543461
0.0548556
0.0608836
0.0777494
0.0526447
0.036603
0.0310364
0.0256628
0.0233602
0.0201582
0.0186474
0.0162829
0.0151294
0.0132536
0.0123249
0.0107886
0.0100183
0.00872479
0.00806257
0.00692291
0.00631395
0.00521506
0.00458803
0.00340078
0.00304954
0.00294445
0.00280483
0.00237842
0.00207837
0.00140456
0.000962859
1.29544e-05
-0.000622859
-0.00201374
-0.00298742
-0.00518656
-0.00682311
-0.0106736
-0.0138259
-0.0216946
-0.0293238
-0.0502194
-0.0774265
-0.161558
-0.296243
-0.29488
-0.384928
-0.46023
-0.635033
-0.570001
-0.160807
-0.0388091
-0.00906542
-60.1291
53.2055
2.11104
1.29224
1.01499
0.631325
0.505498
0.336067
0.275659
0.179938
0.157408
0.154139
0.151446
0.142633
0.138414
0.128755
0.124483
0.115418
0.111424
0.102978
0.0992426
0.0913103
0.0878159
0.0804294
0.0772524
0.0707147