/*--------------------------------*- C++ -*----------------------------------*\
| =========                 |                                                 |
| \\      /  F ield         | OpenFOAM: The Open Source CFD Toolbox           |
|  \\    /   O peration     | Version:  5.x                                   |
|   \\  /    A nd           | Web:      www.OpenFOAM.org                      |
|    \\/     M anipulation  |                                                 |
\*---------------------------------------------------------------------------*/
FoamFile
{
    version     2.0;
    format      ascii;
    class       volScalarField;
    location    "17.1";
    object      gradTx;
}
// * * * * * * * * * * * * * * * * * * * * * * * * * * * * * * * * * * * * * //

dimensions      [0 -1 0 1 0 0 0];

internalField   nonuniform List<scalar> 
6300
(
-31.9513
-32.022
-32.1628
-32.3722
-32.6479
-32.9869
-33.3848
-33.8363
-34.3346
-34.8717
-35.4381
-36.0235
-36.6168
-37.2068
-37.7828
-31.8806
-31.952
-32.0942
-32.3058
-32.5847
-32.9279
-33.3313
-33.7895
-34.2959
-34.8423
-35.4191
-36.0156
-36.6201
-37.2208
-37.8061
-31.7384
-31.8112
-31.9561
-32.1721
-32.4572
-32.8088
-33.2229
-33.6946
-34.2171
-34.7824
-35.3804
-35.9997
-36.6273
-37.25
-37.8547
-31.5235
-31.5982
-31.747
-31.9692
-32.2633
-32.627
-33.057
-33.5487
-34.0957
-34.6898
-35.3206
-35.9753
-36.6395
-37.2973
-37.9328
-31.234
-31.3109
-31.4646
-31.6945
-31.9998
-32.379
-32.8295
-33.3475
-33.9272
-34.5606
-35.2367
-35.9416
-36.6581
-37.3667
-38.0473
-30.8676
-30.947
-31.1059
-31.3444
-31.6624
-32.0595
-32.5345
-33.0845
-33.7051
-34.3887
-35.1242
-35.8962
-36.6845
-37.4644
-38.2087
-30.4217
-30.5035
-30.6676
-30.9147
-31.246
-31.6624
-32.1643
-32.7511
-33.4199
-34.1648
-34.9753
-35.8347
-36.7193
-37.5977
-38.4323
-29.894
-29.9778
-30.1462
-30.4009
-30.7445
-31.1797
-31.7094
-32.3357
-33.0588
-33.8756
-34.7775
-35.7481
-36.7604
-37.7751
-38.7395
-29.2826
-29.3674
-29.5384
-29.7983
-30.1513
-30.6025
-31.1579
-31.8235
-32.6041
-33.5014
-34.5114
-35.62
-36.7996
-38.0028
-39.1586
-28.5865
-28.6709
-28.8417
-29.1027
-29.4599
-29.9212
-30.4964
-31.1965
-32.0329
-33.0151
-34.1469
-35.4217
-36.8155
-38.2782
-39.7216
-27.8059
-27.888
-28.0547
-28.3109
-28.6645
-29.1261
-29.71
-30.4335
-31.3165
-32.3796
-33.64
-35.1051
-36.7632
-38.5737
-40.4498
-26.9431
-27.0205
-27.1782
-27.4219
-27.761
-28.209
-28.7844
-29.5114
-30.4206
-31.5477
-32.9297
-34.5966
-36.5596
-38.8045
-41.3003
-26.0029
-26.0729
-26.2157
-26.4376
-26.7488
-27.1647
-27.7074
-28.4076
-29.3076
-30.4621
-31.9361
-33.7939
-36.0763
-38.787
-42.008
-24.9928
-25.0523
-25.174
-25.364
-25.6321
-25.994
-26.4732
-27.1049
-27.9414
-29.0586
-30.5607
-32.57
-35.1705
-38.2702
-41.6811
-23.9233
-23.9695
-24.0642
-24.2122
-24.4218
-24.7063
-25.0871
-25.5983
-26.2958
-27.2721
-28.681
-30.7614
-33.7841
-37.4901
-38.2092
-38.2916
-38.7311
-39.1466
-39.5359
-39.8983
-40.2336
-40.5422
-40.8247
-41.0811
-41.3115
-41.5152
-41.6912
-41.8384
-41.9562
-42.0444
-42.1039
-42.1365
-42.1453
-42.134
-42.1069
-42.0683
-42.0219
-41.9707
-41.9164
-41.8596
-41.7996
-41.7351
-41.664
-41.5845
-41.4951
-41.3951
-41.2849
-41.166
-41.0407
-40.9117
-40.7819
-40.654
-40.5299
-40.4103
-40.295
-40.183
-40.0722
-39.9604
-39.8452
-39.725
-39.5989
-39.4669
-39.3301
-39.1905
-39.0504
-38.9126
-38.7792
-38.6519
-38.5312
-38.417
-38.3078
-38.2018
-38.0966
-37.9901
-37.8806
-37.767
-37.6493
-37.5287
-37.4068
-37.286
-37.1687
-37.057
-36.9526
-36.856
-36.7671
-36.6848
-36.6075
-36.5333
-36.4607
-36.3886
-36.3169
-36.2465
-36.1798
-36.1197
-36.0703
-36.0353
-36.0186
-36.0232
-36.0507
-36.1012
-36.1731
-36.2631
-36.3662
-36.4761
-36.5861
-38.3218
-38.7659
-39.1842
-39.5748
-39.9373
-40.272
-40.5799
-40.862
-41.1187
-41.35
-41.5551
-41.7326
-41.8809
-41.9988
-42.0858
-42.1425
-42.1709
-42.1742
-42.1568
-42.1235
-42.0794
-42.0288
-41.9751
-41.92
-41.8641
-41.8062
-41.7445
-41.6762
-41.5988
-41.5103
-41.4097
-41.2975
-41.1753
-41.0459
-40.9127
-40.7793
-40.6487
-40.5233
-40.404
-40.2905
-40.1812
-40.0737
-39.9651
-39.8525
-39.7336
-39.6073
-39.4738
-39.3342
-39.191
-39.0473
-38.9062
-38.7705
-38.6422
-38.5221
-38.4096
-38.3033
-38.2005
-38.0986
-37.9946
-37.8864
-37.7727
-37.6537
-37.5304
-37.4052
-37.2809
-37.1605
-37.0467
-36.9412
-36.8449
-36.7575
-36.6776
-36.6029
-36.5312
-36.46
-36.388
-36.3148
-36.2414
-36.1701
-36.1046
-36.0493
-36.009
-35.9881
-35.9902
-36.0175
-36.0703
-36.1471
-36.2443
-36.3562
-36.4761
-36.5961
-38.3847
-38.8379
-39.2615
-39.6542
-40.0162
-40.3491
-40.6549
-40.9358
-41.1929
-41.4263
-41.6347
-41.8159
-41.9671
-42.0859
-42.1709
-42.222
-42.2413
-42.2329
-42.2023
-42.1558
-42.1
-42.0404
-41.9813
-41.9249
-41.8713
-41.8185
-41.7633
-41.7015
-41.629
-41.5428
-41.4412
-41.3245
-41.195
-41.0566
-40.9141
-40.7724
-40.636
-40.5078
-40.3893
-40.2798
-40.1769
-40.0769
-39.9756
-39.8687
-39.7528
-39.6264
-39.4893
-39.3435
-39.1924
-39.0404
-38.892
-38.7512
-38.6208
-38.5018
-38.3935
-38.2935
-38.1982
-38.1034
-38.0051
-37.9
-37.7863
-37.6641
-37.535
-37.4024
-37.2703
-37.143
-37.0242
-36.9166
-36.8211
-36.7372
-36.6627
-36.5942
-36.528
-36.4606
-36.3893
-36.3131
-36.2331
-36.1521
-36.0747
-36.0068
-35.9547
-35.9244
-35.9209
-35.9474
-36.005
-36.0919
-36.2041
-36.3349
-36.4758
-36.6171
-38.4853
-38.9523
-39.3834
-39.7778
-40.1371
-40.465
-40.7659
-41.0439
-41.3013
-41.5386
-41.7535
-41.9424
-42.1001
-42.2219
-42.3046
-42.3471
-42.3518
-42.3237
-42.2706
-42.2016
-42.1258
-42.0513
-41.9837
-41.9258
-41.8772
-41.8344
-41.7916
-41.7421
-41.6791
-41.5974
-41.4943
-41.3699
-41.2276
-41.0733
-40.9143
-40.7581
-40.6113
-40.4786
-40.3617
-40.2595
-40.1683
-40.0821
-39.9941
-39.8976
-39.7875
-39.6607
-39.5173
-39.3603
-39.195
-39.0282
-38.8669
-38.7171
-38.5829
-38.4661
-38.3653
-38.2769
-38.1952
-38.1134
-38.0254
-37.9259
-37.8122
-37.6842
-37.5448
-37.3988
-37.2527
-37.1131
-36.9857
-36.8744
-36.7807
-36.7035
-36.6391
-36.5823
-36.5268
-36.4666
-36.3974
-36.317
-36.2262
-36.1288
-36.0312
-35.9416
-35.869
-35.8222
-35.8085
-35.8328
-35.8972
-36.0004
-36.1371
-36.2991
-36.4749
-36.6516
-38.6323
-39.1185
-39.5583
-39.9518
-40.3032
-40.6197
-40.91
-41.1815
-41.4388
-41.6828
-41.9101
-42.1136
-42.2846
-42.4143
-42.496
-42.5269
-42.5093
-42.4505
-42.3619
-42.2571
-42.1499
-42.0521
-41.9721
-41.9135
-41.8749
-41.8501
-41.8297
-41.802
-41.7561
-41.683
-41.5779
-41.441
-41.2776
-41.0968
-40.9103
-40.7301
-40.5665
-40.4265
-40.3128
-40.2236
-40.1524
-40.0899
-40.0248
-39.9464
-39.846
-39.7188
-39.5649
-39.3891
-39.1999
-39.0082
-38.8251
-38.6603
-38.5202
-38.4072
-38.3194
-38.2507
-38.192
-38.1326
-38.0621
-37.9723
-37.8586
-37.721
-37.5639
-37.3954
-37.2259
-37.0657
-36.924
-36.8069
-36.7166
-36.6512
-36.6047
-36.5684
-36.5321
-36.4858
-36.4218
-36.336
-36.2289
-36.1058
-35.976
-35.8518
-35.7463
-35.6724
-35.6411
-35.6603
-35.7337
-35.8603
-36.034
-36.2433
-36.4727
-36.7038
-38.8396
-39.3512
-39.7998
-40.1864
-40.5194
-40.8124
-41.0811
-41.3393
-41.5956
-41.8513
-42.1007
-42.3317
-42.5287
-42.6759
-42.7605
-42.7765
-42.7262
-42.6204
-42.4766
-42.3161
-42.1603
-42.0273
-41.9296
-41.8724
-41.8525
-41.8597
-41.878
-41.8884
-41.8722
-41.8147
-41.7074
-41.5504
-41.3524
-41.1284
-40.8973
-40.6783
-40.4876
-40.3364
-40.2288
-40.1615
-40.1241
-40.1013
-40.0748
-40.0268
-39.943
-39.8155
-39.6442
-39.4371
-39.2084
-38.9758
-38.7571
-38.5679
-38.4183
-38.3122
-38.2461
-38.2102
-38.1899
-38.1677
-38.1266
-38.0531
-37.9395
-37.7858
-37.5994
-37.3937
-37.1854
-36.9916
-36.8269
-36.7007
-36.6168
-36.5716
-36.5557
-36.5547
-36.5518
-36.5305
-36.4775
-36.3855
-36.2545
-36.0923
-35.913
-35.735
-35.578
-35.4612
-35.4012
-35.4098
-35.4936
-35.6527
-35.8794
-36.1586
-36.468
-36.7807
-39.1286
-39.6748
-40.1306
-40.4982
-40.7929
-41.0399
-41.2674
-41.5
-41.753
-42.029
-42.3178
-42.5988
-42.8447
-43.0275
-43.1238
-43.1215
-43.0229
-42.8448
-42.6154
-42.3685
-42.1377
-41.9515
-41.829
-41.7774
-41.7913
-41.8534
-41.9377
-42.0129
-42.0481
-42.0179
-41.9082
-41.719
-41.4646
-41.1704
-40.867
-40.5855
-40.3519
-40.1836
-40.0869
-40.0563
-40.075
-40.118
-40.1557
-40.1587
-40.103
-39.9751
-39.775
-39.5162
-39.2226
-38.9231
-38.6469
-38.4184
-38.2539
-38.1593
-38.1291
-38.1474
-38.1904
-38.2299
-38.2379
-38.1917
-38.0783
-37.8976
-37.6626
-37.3956
-37.1241
-36.8759
-36.674
-36.5339
-36.461
-36.4499
-36.4851
-36.5436
-36.5979
-36.6207
-36.5895
-36.4911
-36.3251
-36.1035
-35.8483
-35.5878
-35.3517
-35.1685
-35.0622
-35.0509
-35.1453
-35.3475
-35.6492
-36.0303
-36.4586
-36.8932
-39.5323
-40.1282
-40.5882
-40.9146
-41.1351
-41.2953
-41.4462
-41.6314
-41.8773
-42.1881
-42.5462
-42.9162
-43.2518
-43.5034
-43.6292
-43.6054
-43.434
-43.1432
-42.7794
-42.3976
-42.0511
-41.7841
-41.6262
-41.5882
-41.6605
-41.8152
-42.0103
-42.195
-42.3179
-42.3358
-42.2236
-41.9814
-41.6344
-41.2253
-40.8052
-40.4237
-40.1221
-39.9276
-39.85
-39.8799
-39.9907
-40.1423
-40.2867
-40.3752
-40.367
-40.2387
-39.9903
-39.6456
-39.2451
-38.837
-38.4678
-38.1766
-37.989
-37.9139
-37.9423
-38.049
-38.1959
-38.3374
-38.4273
-38.4269
-38.3137
-38.0879
-37.7718
-37.4038
-37.0295
-36.6933
-36.4322
-36.2703
-36.2163
-36.2614
-36.3811
-36.5385
-36.6895
-36.7888
-36.7981
-36.6943
-36.4758
-36.1629
-35.7914
-35.4052
-35.0494
-34.7651
-34.5866
-34.5399
-34.6417
-34.8989
-35.3048
-35.834
-36.4402
-37.0593
-40.1017
-40.7771
-41.2381
-41.4832
-41.5635
-41.5635
-41.5752
-41.6752
-41.9081
-42.2791
-42.7573
-43.2835
-43.7796
-44.1606
-44.35
-44.3017
-44.0172
-43.5465
-42.9695
-42.376
-41.8498
-41.4596
-41.2509
-41.24
-41.4109
-41.7191
-42.0978
-42.4663
-42.739
-42.8409
-42.7261
-42.3949
-41.8933
-41.2963
-40.6879
-40.147
-39.7379
-39.5033
-39.4582
-39.5872
-39.8478
-40.177
-40.4982
-40.7308
-40.8041
-40.6751
-40.3442
-39.8552
-39.2789
-38.6946
-38.1767
-37.7857
-37.5619
-37.5192
-37.6429
-37.8928
-38.2091
-38.5193
-38.7468
-38.8245
-38.7115
-38.4081
-37.9556
-37.4211
-36.88
-36.4028
-36.0473
-35.8515
-35.829
-35.9655
-36.2226
-36.5427
-36.8555
-37.0866
-37.1695
-37.0624
-36.7627
-36.3067
-35.7556
-35.179
-34.6441
-34.2092
-33.9212
-33.8148
-33.9145
-34.2363
-34.7826
-35.5269
-36.4034
-37.3082
-40.9134
-41.7348
-42.1987
-42.2887
-42.1065
-41.8137
-41.5765
-41.5272
-41.7398
-42.2157
-42.8993
-43.6939
-44.4735
-45.0935
-45.4133
-45.3379
-44.8685
-44.1029
-43.1835
-42.2572
-41.4527
-40.8738
-40.5908
-40.63
-40.9638
-41.5213
-42.2002
-42.8753
-43.4062
-43.6582
-43.5403
-43.0535
-42.2898
-41.3836
-40.4733
-39.6804
-39.1026
-38.8062
-38.8158
-39.1048
-39.6062
-40.2231
-40.8371
-41.3159
-41.5326
-41.4021
-40.9257
-40.1907
-39.3241
-38.4565
-37.7026
-37.1543
-36.874
-36.8849
-37.1618
-37.6411
-38.2312
-38.82
-39.282
-39.4969
-39.3835
-38.9429
-38.2576
-37.4481
-36.6383
-35.9371
-35.4323
-35.1833
-35.2124
-35.496
-35.9735
-36.5572
-37.1392
-37.5976
-37.8144
-37.708
-37.2745
-36.5875
-35.7564
-34.8929
-34.0947
-33.4417
-32.9941
-32.7932
-32.8674
-33.2506
-33.9751
-35.0297
-36.3256
-37.6894
-42.0771
-43.2071
-43.6978
-43.4865
-42.8078
-41.9818
-41.3054
-41.0014
-41.1916
-41.853
-42.8816
-44.1257
-45.397
-46.4585
-47.0459
-46.9415
-46.1465
-44.8806
-43.4077
-41.9628
-40.7309
-39.862
-39.4667
-39.5959
-40.1944
-41.1486
-42.308
-43.4919
-44.475
-45.0079
-44.8859
-44.111
-42.8914
-41.4769
-40.0895
-38.904
-38.0622
-37.6685
-37.7708
-38.3167
-39.1983
-40.2733
-41.3708
-42.2784
-42.7612
-42.6273
-41.8797
-40.7155
-39.3707
-38.0548
-36.9324
-36.1369
-35.7669
-35.8675
-36.3891
-37.2298
-38.2551
-39.3033
-40.1732
-40.6418
-40.5267
-39.83
-38.7384
-37.4756
-36.2402
-35.1888
-34.4489
-34.1146
-34.2295
-34.7473
-35.5715
-36.5743
-37.6008
-38.4567
-38.9248
-38.8245
-38.1513
-37.076
-35.8037
-34.5125
-33.3365
-32.3785
-31.7116
-31.3756
-31.3751
-31.7735
-32.6922
-34.1849
-36.1501
-38.2906
-43.717
-45.5968
-46.2075
-45.3606
-43.723
-41.9322
-40.4952
-39.7623
-39.9639
-40.961
-42.5533
-44.5184
-46.6228
-48.5064
-49.6746
-49.5396
-48.1028
-45.9561
-43.5915
-41.3619
-39.4862
-38.168
-37.5874
-37.886
-38.913
-40.4802
-42.3807
-44.3976
-46.1923
-47.3007
-47.1715
-45.8089
-43.7736
-41.531
-39.4151
-37.6327
-36.3763
-35.8165
-36.0871
-37.0451
-38.5118
-40.2912
-42.178
-43.8525
-44.8778
-44.7362
-43.4336
-41.5003
-39.3759
-37.3746
-35.6912
-34.5068
-33.9822
-34.2439
-35.1569
-36.5526
-38.2461
-40.0435
-41.6421
-42.6274
-42.5072
-41.286
-39.4659
-37.4634
-35.577
-33.992
-32.8813
-32.3989
-32.6665
-33.5572
-34.9124
-36.5574
-38.308
-39.8741
-40.8538
-40.7661
-39.607
-37.8483
-35.8783
-33.9664
-32.2641
-30.8964
-29.9524
-29.4751
-29.3083
-29.5471
-30.5829
-32.6596
-35.7223
-39.276
-45.8153
-49.7995
-50.8047
-48.3803
-44.8711
-41.3747
-38.6685
-37.1751
-37.5892
-39.2109
-41.6881
-44.7101
-48.1664
-51.5844
-54.1798
-54.0121
-51.0814
-47.3457
-43.5807
-40.2514
-37.4389
-35.4118
-34.4421
-35.127
-36.8537
-39.3319
-42.2859
-45.6231
-48.8978
-51.3757
-51.233
-48.4757
-44.9542
-41.4029
-38.2604
-35.604
-33.6875
-32.7688
-33.4137
-35.0408
-37.3751
-40.1545
-43.2908
-46.3614
-48.6748
-48.5168
-45.8956
-42.5603
-39.2036
-36.2368
-33.7316
-31.9265
-31.0652
-31.6825
-33.2294
-35.4467
-38.0876
-41.0697
-43.9942
-46.205
-46.073
-43.6044
-40.4559
-37.2842
-34.4799
-32.1121
-30.4088
-29.6034
-30.2063
-31.6983
-33.836
-36.3883
-39.281
-42.1358
-44.3199
-44.2506
-41.926
-38.9247
-35.8695
-33.1182
-30.7101
-28.804
-27.5212
-27.1276
-26.6572
-26.1732
-26.9749
-29.7142
-34.5876
-40.977
-47.3306
-58.2606
-60.267
-52.9404
-46.0336
-39.6948
-35.0976
-31.84
-33.4745
-36.2284
-40.0378
-44.2765
-49.7648
-55.8471
-62.6638
-62.4634
-55.2193
-48.7772
-42.9428
-38.3967
-34.2604
-31.1332
-28.914
-30.868
-33.7121
-37.4987
-41.639
-46.9388
-52.7506
-59.2243
-59.0599
-52.2427
-46.1777
-40.6862
-36.4057
-32.5098
-29.5617
-27.4696
-29.3257
-32.0182
-35.5974
-39.504
-44.4982
-49.9606
-56.0309
-55.8444
-49.3859
-43.6512
-38.4699
-34.4341
-30.7639
-27.9871
-26.019
-27.7825
-30.3366
-33.7309
-37.4377
-42.1791
-47.3739
-53.1564
-53.0033
-46.9019
-41.4794
-36.5759
-32.7542
-29.2753
-26.6436
-24.7798
-26.4658
-28.9097
-32.1623
-35.7291
-40.3086
-45.3633
-51.0307
-50.983
-45.2193
-40.0788
-35.4231
-31.7756
-28.4335
-25.8139
-23.8096
-24.8904
-24.026
-20.9478
-20.5767
-23.6955
-31.27
-44.1081
-41.3607
-79.6662
-82.897
-56.6164
-46.3457
-35.5152
-29.5982
-19.4588
-27.747
-31.7252
-37.769
-42.043
-50.5079
-59.0522
-81.2524
-81.0578
-58.2022
-49.3336
-40.4495
-35.9521
-29.6288
-25.5473
-17.3764
-25.3271
-29.2133
-35.1562
-39.3226
-47.517
-55.6504
-76.6316
-76.4667
-54.9265
-46.5752
-38.2258
-33.997
-28.051
-24.2032
-16.4848
-24.0336
-27.7188
-33.348
-37.2875
-45.0314
-52.6843
-72.3966
-72.2038
-51.8338
-43.9453
-36.0864
-32.1051
-26.5098
-22.8833
-15.5991
-22.7441
-26.2339
-31.5649
-35.2979
-42.6355
-49.9073
-68.655
-68.4992
-49.2218
-41.7553
-34.31
-30.5348
-25.2186
-21.7724
-14.8444
-21.6341
-24.9566
-30.0364
-33.6113
-40.6521
-47.7085
-65.9713
-65.9464
-47.6151
-40.5348
-33.5248
-29.9933
-25.1163
-21.9379
-15.6555
-25.4543
-24.5825
-11.8243
-9.15289
-11.2607
-20.3729
-50.2136
-36.6984
-36.8022
-36.8773
-36.9183
-36.9234
-36.8945
-36.8363
-36.7557
-36.6608
-36.56
-36.4619
-36.3737
-36.3018
-36.2511
-36.2249
-36.7184
-36.8309
-36.9114
-36.9541
-36.9575
-36.9239
-36.8588
-36.77
-36.6665
-36.5575
-36.4519
-36.3574
-36.2806
-36.2266
-36.1987
-36.7606
-36.8915
-36.9833
-37.0293
-37.0285
-36.9846
-36.9049
-36.799
-36.6778
-36.5517
-36.4307
-36.3233
-36.2366
-36.1759
-36.1446
-36.8303
-36.9913
-37.1008
-37.1514
-37.1427
-37.0812
-36.9771
-36.8435
-36.6938
-36.5408
-36.3959
-36.2687
-36.1667
-36.0957
-36.0593
-36.9364
-37.1424
-37.2774
-37.3325
-37.3099
-37.2201
-37.079
-36.9041
-36.7131
-36.5218
-36.3434
-36.1887
-36.0659
-35.981
-35.9376
-37.0932
-37.3646
-37.5339
-37.5915
-37.5442
-37.4105
-37.2144
-36.9809
-36.7329
-36.4898
-36.2671
-36.0768
-35.9273
-35.8247
-35.7725
-37.324
-37.6889
-37.9022
-37.9552
-37.865
-37.6634
-37.3874
-37.0722
-36.7476
-36.4373
-36.1586
-35.924
-35.742
-35.6179
-35.5552
-37.6669
-38.1649
-38.4306
-38.4622
-38.2971
-37.9906
-37.5995
-37.1727
-36.7482
-36.3531
-36.006
-35.7187
-35.4985
-35.3499
-35.2751
-38.1856
-38.8731
-39.1932
-39.166
-38.8706
-38.4024
-37.8473
-37.2711
-36.7193
-36.2211
-35.7935
-35.4461
-35.1836
-35.0081
-34.9202
-38.9922
-39.9487
-40.3032
-40.1381
-39.6168
-38.9011
-38.1162
-37.345
-36.637
-36.0183
-35.5009
-35.0887
-34.7818
-34.5785
-34.4774
-40.2957
-41.6263
-41.9327
-41.4664
-40.5572
-39.4692
-38.3713
-37.3558
-36.4653
-35.7143
-35.1031
-34.6261
-34.2762
-34.0469
-33.9335
-42.5169
-44.328
-44.3349
-43.2376
-41.6765
-40.0472
-38.544
-37.2416
-36.1541
-35.2704
-34.571
-34.0365
-33.6501
-33.3994
-33.2761
-46.5951
-48.834
-47.8414
-45.4727
-42.864
-40.4989
-38.5161
-36.9123
-35.6391
-34.6421
-33.8742
-33.2986
-32.8883
-32.6245
-32.4954
-54.9099
-56.5714
-52.724
-47.9476
-43.808
-40.5682
-38.1092
-36.2526
-34.848
-33.7847
-32.985
-32.3955
-31.9801
-31.7149
-31.5857
-74.4904
-69.8177
-58.5354
-49.786
-43.8521
-39.8569
-37.0998
-35.1408
-33.7155
-32.6636
-31.8856
-31.3184
-30.9215
-30.6693
-30.5467
-22.9005
-22.9326
-22.9981
-23.1
-23.2437
-23.438
-23.6976
-24.0475
-24.533
-25.2401
-26.346
-28.2521
-31.9339
-39.6646
-54.1099
-21.9484
-21.9666
-22.0035
-22.06
-22.1378
-22.24
-22.3721
-22.5444
-22.7778
-23.1171
-23.6711
-24.7579
-27.5384
-37.2333
-80.0689
-20.9837
-20.9878
-20.9954
-21.0052
-21.0151
-21.0215
-21.0192
-20.9999
-20.9502
-20.8452
-20.6267
-20.1095
-18.5159
-11.8285
25.5283
-20.0161
-20.0065
-19.9857
-19.9505
-19.8949
-19.8093
-19.6786
-19.4774
-19.162
-18.6518
-17.785
-16.2122
-13.1922
-7.74336
-3.80991
-19.0551
-19.0329
-18.9862
-18.9099
-18.7954
-18.6288
-18.3875
-18.0351
-17.5103
-16.7063
-15.4271
-13.2991
-9.57951
-2.62625
13.4478
-18.1096
-18.0764
-18.0072
-17.8959
-17.7323
-17.5001
-17.1738
-16.7132
-16.0542
-15.0926
-13.6579
-11.4807
-8.20797
-3.85053
-1.97948
-17.1871
-17.1448
-17.0573
-16.9182
-16.7169
-16.4369
-16.0535
-15.5295
-14.8092
-13.8091
-12.4057
-10.4204
-7.58778
-3.34912
4.9088
-16.2939
-16.2447
-16.1433
-15.9837
-15.7561
-15.4456
-15.031
-14.4825
-13.7592
-12.8067
-11.5588
-9.94833
-7.94343
-5.63838
-3.48115
-15.435
-15.3807
-15.2697
-15.0965
-14.8528
-14.5265
-14.1015
-13.5571
-12.8686
-12.0101
-10.9645
-9.75034
-8.5073
-7.82448
-10.3717
-14.6137
-14.5563
-14.4392
-14.2583
-14.0068
-13.676
-13.2549
-12.7318
-12.0961
-11.3438
-10.4875
-9.57263
-8.68216
-7.76717
-5.0558
-13.8323
-13.7731
-13.6532
-13.4691
-13.216
-12.8881
-12.4793
-11.9847
-11.4046
-10.7497
-10.0514
-9.37814
-8.87413
-8.95719
-11.8312
-13.0919
-13.0323
-12.9117
-12.7277
-12.4772
-12.1565
-11.7631
-11.2971
-10.7651
-10.1859
-9.59795
-9.06619
-8.65845
-8.20897
-5.58506
-12.393
-12.3337
-12.2141
-12.0326
-11.787
-11.4754
-11.0973
-10.6552
-10.1585
-9.62812
-9.10552
-8.66816
-8.47179
-8.97073
-12.5339
-11.7353
-11.677
-11.5596
-11.382
-11.1426
-10.8406
-10.4758
-10.0513
-9.57525
-9.06495
-8.55393
-8.10279
-7.80228
-7.60458
-5.49014
-11.1182
-11.0613
-10.9469
-10.7741
-10.5419
-10.2492
-9.89585
-9.48329
-9.01576
-8.50229
-7.96076
-7.43281
-7.0614
-7.56948
-13.4449
-10.5405
-10.4854
-10.3747
-10.2077
-9.98313
-9.69995
-9.35702
-8.95342
-8.48819
-7.9591
-7.35816
-6.65412
-5.70975
-3.80706
3.41762
-10.0012
-9.94817
-9.84173
-9.68109
-9.4651
-9.1922
-8.86032
-8.46634
-8.00495
-7.46582
-6.82716
-6.04235
-5.0236
-3.74045
-3.60017
-9.49866
-9.44802
-9.34637
-9.19295
-8.98657
-8.72542
-8.40674
-8.02607
-7.57571
-7.04165
-6.39766
-5.59302
-4.52106
-2.88019
0.801667
-9.03129
-8.98329
-8.88695
-8.7416
-8.54609
-8.29859
-7.99622
-7.63421
-7.20459
-6.69384
-6.07973
-5.32934
-4.41361
-3.43728
-3.56182
-8.59727
-8.55212
-8.46158
-8.32509
-8.1417
-7.90987
-7.6271
-7.28931
-6.8898
-6.41779
-5.85644
-5.18049
-4.34825
-3.22986
-0.970702
-8.19459
-8.15249
-8.06812
-7.94114
-7.77095
-7.55652
-7.2962
-6.98727
-6.62537
-6.20379
-5.71275
-5.14016
-4.48161
-3.81463
-3.85177
-7.82115
-7.7822
-7.70425
-7.58722
-7.43092
-7.23506
-6.99906
-6.722
-6.4024
-6.03804
-5.62568
-5.15954
-4.62083
-3.91043
-2.41777
-7.47477
-7.43899
-7.36753
-7.26055
-7.11838
-6.94146
-6.73044
-6.48628
-6.21051
-5.90561
-5.57597
-5.22932
-4.87928
-4.54947
-4.28798
-7.15324
-7.12058
-7.05546
-6.95834
-6.82998
-6.67154
-6.48482
-6.27253
-6.03884
-5.79038
-5.53807
-5.30147
-5.1237
-5.14104
-5.97656
-6.8544
-6.8247
-6.76562
-6.67782
-6.56245
-6.42128
-6.25698
-6.07363
-5.87743
-5.67783
-5.48925
-5.33276
-5.23262
-5.16444
-4.62768
-6.57619
-6.54923
-6.49571
-6.41646
-6.31286
-6.18707
-6.04237
-5.88366
-5.71837
-5.55764
-5.41816
-5.32493
-5.31937
-5.51322
-6.52366
-6.3167
-6.29222
-6.24369
-6.172
-6.07867
-5.96601
-5.83748
-5.69828
-5.55615
-5.42269
-5.31495
-5.25622
-5.26763
-5.29493
-4.68004
-6.07421
-6.05191
-6.00774
-5.94259
-5.85792
-5.75596
-5.64001
-5.51493
-5.38792
-5.26989
-5.17771
-5.13882
-5.20485
-5.5226
-6.85061
-5.84721
-5.8268
-5.78637
-5.72673
-5.64917
-5.55563
-5.44888
-5.33291
-5.21346
-5.09915
-5.00346
-4.94856
-4.96726
-5.0487
-4.5211
-5.63438
-5.6156
-5.57835
-5.52331
-5.45153
-5.36447
-5.26418
-5.15331
-5.03544
-4.91547
-4.80089
-4.7072
-4.68611
-4.99773
-7.24743
-5.43461
-5.41722
-5.38269
-5.33153
-5.26448
-5.18252
-5.08681
-4.97858
-4.8589
-4.72805
-4.58383
-4.41541
-4.17391
-3.60087
-1.11168
-5.24691
-5.23074
-5.19859
-5.15079
-5.0878
-5.01012
-4.91813
-4.8118
-4.69011
-4.54991
-4.38357
-4.17439
-3.89197
-3.53466
-3.67159
-5.07044
-5.05537
-5.02536
-4.9806
-4.92133
-4.84767
-4.75942
-4.65569
-4.53417
-4.38992
-4.21308
-3.98423
-3.66202
-3.12523
-1.76326
-4.90443
-4.89039
-4.86237
-4.8205
-4.76486
-4.69535
-4.61147
-4.51194
-4.39403
-4.25258
-4.0787
-3.8589
-3.58111
-3.28883
-3.47234
-4.74818
-4.73511
-4.70901
-4.66997
-4.61801
-4.553
-4.4744
-4.38096
-4.27022
-4.13776
-3.97621
-3.77386
-3.51026
-3.12201
-2.2147
-4.60102
-4.58888
-4.56464
-4.52841
-4.48024
-4.42009
-4.34763
-4.262
-4.16151
-4.04315
-3.90205
-3.73137
-3.52599
-3.31564
-3.42105
-4.4623
-4.45104
-4.42861
-4.39513
-4.3508
-4.29575
-4.23
-4.15337
-4.06522
-3.96434
-3.84843
-3.71297
-3.54517
-3.28998
-2.64037
-4.3314
-4.32098
-4.30024
-4.26941
-4.2288
-4.17882
-4.11995
-4.05272
-3.97779
-3.89596
-3.8084
-3.71702
-3.62505
-3.53821
-3.46873
-4.20774
-4.19807
-4.17888
-4.15048
-4.11332
-4.06809
-4.0157
-3.95743
-3.89514
-3.83155
-3.77104
-3.72149
-3.70138
-3.77438
-4.24878
-4.0908
-4.08179
-4.06394
-4.03762
-4.00345
-3.96232
-3.91552
-3.86495
-3.8134
-3.76502
-3.72606
-3.70552
-3.71306
-3.7318
-3.49636
-3.98013
-3.97164
-3.95487
-3.93023
-3.89843
-3.86049
-3.81798
-3.77316
-3.72945
-3.69194
-3.66829
-3.67006
-3.71697
-3.86571
-4.44226
-3.87535
-3.86725
-3.85126
-3.82783
-3.79766
-3.76185
-3.72203
-3.68061
-3.6412
-3.60925
-3.59287
-3.60325
-3.65015
-3.70254
-3.40271
-3.7762
-3.76835
-3.75284
-3.7301
-3.7008
-3.666
-3.6272
-3.58666
-3.54777
-3.51575
-3.49888
-3.51108
-3.57954
-3.78396
-4.54069
-3.68251
-3.67476
-3.65944
-3.63692
-3.60779
-3.57292
-3.53357
-3.49157
-3.44958
-3.41173
-3.38469
-3.37986
-3.41451
-3.48183
-3.20866
-3.5942
-3.58643
-3.57105
-3.54834
-3.51876
-3.48295
-3.4418
-3.39647
-3.34853
-3.3002
-3.25509
-3.22121
-3.22679
-3.41615
-4.68237
-3.51128
-3.5034
-3.48775
-3.46453
-3.43405
-3.3967
-3.35294
-3.30319
-3.24775
-3.18644
-3.11769
-3.03517
-2.91147
-2.60262
-1.22516
-3.43385
-3.42578
-3.4097
-3.38576
-3.35411
-3.31492
-3.26823
-3.21386
-3.15105
-3.07785
-2.98987
-2.87773
-2.72471
-2.5312
-2.62153
-3.36202
-3.35371
-3.33713
-3.31235
-3.27943
-3.23833
-3.18886
-3.13039
-3.06156
-2.97953
-2.87882
-2.74868
-2.56608
-2.26265
-1.49138
-3.29596
-3.28738
-3.27026
-3.2446
-3.21041
-3.16757
-3.11574
-3.05414
-2.98123
-2.89419
-2.78822
-2.65606
-2.49138
-2.31898
-2.4148
-3.23586
-3.227
-3.20931
-3.18278
-3.14741
-3.10306
-3.04941
-2.98574
-2.91071
-2.822
-2.71579
-2.58605
-2.42203
-2.18903
-1.66699
-3.18192
-3.17277
-3.15449
-3.12711
-3.09064
-3.04502
-2.99003
-2.92522
-2.8497
-2.76198
-2.65972
-2.53983
-2.40059
-2.2598
-2.29436
-3.13433
-3.12487
-3.10599
-3.07775
-3.04023
-2.99348
-2.93749
-2.87215
-2.79717
-2.71204
-2.61589
-2.50706
-2.38023
-2.20878
-1.83381
-3.09332
-3.08352
-3.06399
-3.03484
-2.99623
-2.94835
-2.89144
-2.82578
-2.7517
-2.66975
-2.58087
-2.48681
-2.39086
-2.29909
-2.22473
-3.05911
-3.04894
-3.02868
-2.99851
-2.95866
-2.9095
-2.85148
-2.78524
-2.7117
-2.63228
-2.54944
-2.46786
-2.3986
-2.3773
-2.56398
-3.03196
-3.02136
-3.00027
-2.96889
-2.92758
-2.8768
-2.81723
-2.74978
-2.67578
-2.5972
-2.51713
-2.44036
-2.37303
-2.31108
-2.13811
-3.01218
-3.00108
-2.97899
-2.94618
-2.90306
-2.85022
-2.78845
-2.71887
-2.64303
-2.56316
-2.48255
-2.4063
-2.34373
-2.32196
-2.48681
-3.00012
-2.98842
-2.96516
-2.93063
-2.88531
-2.82983
-2.76509
-2.69231
-2.6131
-2.52965
-2.44493
-2.36274
-2.28609
-2.20324
-1.98277
-2.99618
-2.98379
-2.95915
-2.92259
-2.8746
-2.81587
-2.74733
-2.67022
-2.5861
-2.49701
-2.40556
-2.31534
-2.23277
-2.18009
-2.29277
-3.00085
-2.98766
-2.96143
-2.92249
-2.87135
-2.80872
-2.73553
-2.65299
-2.56256
-2.46601
-2.36534
-2.26263
-2.15868
-2.0421
-1.80113
-3.01469
-3.00059
-2.97254
-2.93087
-2.87609
-2.8089
-2.73024
-2.64124
-2.54328
-2.43787
-2.32655
-2.21079
-2.09337
-1.99049
-2.022
-3.03833
-3.0232
-2.9931
-2.94835
-2.88944
-2.81706
-2.73212
-2.63572
-2.52917
-2.41384
-2.29083
-2.16012
-2.01797
-1.84554
-1.54385
-3.07247
-3.05621
-3.02385
-2.97567
-2.91215
-2.83395
-2.74195
-2.63725
-2.52117
-2.39516
-2.26045
-2.11738
-1.9636
-1.79035
-1.57704
-3.11791
-3.10042
-3.06557
-3.01364
-2.94505
-2.86043
-2.7606
-2.64667
-2.52007
-2.3825
-2.23589
-2.08209
-1.92275
-1.76297
-1.64618
-3.17549
-3.15668
-3.11916
-3.06318
-2.9891
-2.89746
-2.78904
-2.66491
-2.52659
-2.37613
-2.21633
-2.05065
-1.8822
-1.70574
-1.45009
-3.24614
-3.22592
-3.18558
-3.12529
-3.04534
-2.94615
-2.82839
-2.69301
-2.54153
-2.37625
-2.20084
-2.02113
-1.84722
-1.70349
-1.70119
-3.33082
-3.30915
-3.26586
-3.20106
-3.11493
-3.00775
-2.87996
-2.73231
-2.56605
-2.38341
-2.18834
-1.9876
-1.79129
-1.60303
-1.32592
-3.43056
-3.40739
-3.36108
-3.29165
-3.19915
-3.08366
-2.94534
-2.78452
-2.60194
-2.39921
-2.17977
-1.95098
-1.72977
-1.56428
-1.64259
-3.54639
-3.52171
-3.47235
-3.39825
-3.29932
-3.17543
-3.02635
-2.85185
-2.65182
-2.4266
-2.1777
-1.90912
-1.62954
-1.35621
-1.12923
-3.67935
-3.65318
-3.6008
-3.52209
-3.41685
-3.28468
-3.12501
-2.93692
-2.7192
-2.47044
-2.1893
-1.87489
-1.52497
-1.11597
-0.458224
-3.83048
-3.80286
-3.74754
-3.66437
-3.55306
-3.41305
-3.2434
-3.04255
-2.80815
-2.53677
-2.22399
-1.86534
-1.46143
-1.04845
-0.911501
-4.00081
-3.97176
-3.91361
-3.8262
-3.70921
-3.56201
-3.38344
-3.1715
-2.92277
-2.63186
-2.29055
-1.88721
-1.4042
-0.789233
0.311406
-4.1913
-4.16088
-4.1
-4.00857
-3.88633
-3.73274
-3.54668
-3.32598
-3.0667
-2.76193
-2.40019
-1.96441
-1.4386
-0.86729
-0.775196
-4.40293
-4.37115
-4.30761
-4.21233
-4.08523
-3.92604
-3.73397
-3.50726
-3.24222
-2.93157
-2.56124
-2.10413
-1.50461
-0.612552
1.27603
-4.63663
-4.60348
-4.53727
-4.43818
-4.30642
-4.14216
-3.94531
-3.71515
-3.44942
-3.14266
-2.78255
-2.34275
-1.77378
-1.04984
-0.850704
-4.89335
-4.85876
-4.78977
-4.68672
-4.55018
-4.3809
-4.1798
-3.94774
-3.68512
-3.39078
-3.05921
-2.67108
-2.15056
-1.12267
2.65035
-5.17408
-5.13794
-5.06591
-4.95852
-4.81667
-4.64176
-4.43579
-4.20156
-3.94285
-3.66477
-3.37514
-3.09135
-2.87969
-3.10185
-6.05863
-5.47992
-5.44205
-5.36661
-5.25425
-5.10613
-4.92418
-4.7114
-4.47238
-4.21402
-3.94677
-3.68702
-3.46152
-3.30754
-3.18199
-1.99071
-5.81205
-5.77226
-5.69296
-5.57481
-5.41909
-5.228
-5.00523
-4.75663
-4.49138
-4.22356
-3.97511
-3.78203
-3.71566
-4.00221
-5.89829
-6.17182
-6.1299
-6.04627
-5.92147
-5.75661
-5.55384
-5.31699
-5.05246
-4.77051
-4.48691
-4.22475
-4.01456
-3.87871
-3.70469
-2.31981
-6.56069
-6.51651
-6.42819
-6.29594
-6.12045
-5.90335
-5.64797
-5.36038
-5.0508
-4.73537
-4.43831
-4.19545
-4.06825
-4.24804
-5.88296
-6.98025
-6.93378
-6.84061
-6.70045
-6.51318
-6.27944
-6.00132
-5.68358
-5.33515
-4.97105
-4.61425
-4.29601
-4.04462
-3.78088
-2.47809
-7.43208
-7.38347
-7.28567
-7.13766
-6.9382
-6.68634
-6.38218
-6.02809
-5.6304
-5.20168
-4.76339
-4.35015
-4.02956
-4.0353
-5.62336
-7.91767
-7.86732
-7.76561
-7.6106
-7.3996
-7.12956
-6.79773
-6.40287
-5.94718
-5.43895
-4.89515
-4.33997
-3.78787
-3.19089
-2.41657
-8.43823
-8.38684
-8.28256
-8.12241
-7.90201
-7.61569
-7.25705
-6.8199
-6.30045
-5.70093
-5.0348
-4.32764
-3.57734
-2.46962
1.32795
-8.99449
-8.94309
-8.8383
-8.67608
-8.45018
-8.15205
-7.77087
-7.2941
-6.70933
-6.00915
-5.20295
-4.34527
-3.61503
-3.6163
-6.9566
-9.58643
-9.53641
-9.43393
-9.27397
-9.04852
-8.74609
-8.35109
-7.8433
-7.19834
-6.39101
-5.40684
-4.27441
-3.14473
-2.44421
-2.89452
-10.2131
-10.1662
-10.0695
-9.91733
-9.70031
-9.40442
-9.00962
-8.48775
-7.80011
-6.89569
-5.71369
-4.20164
-2.37639
-0.472929
0.85484
-10.8724
-10.8304
-10.7436
-10.6057
-10.4069
-10.1314
-9.7564
-9.24731
-8.55243
-7.59312
-6.24974
-4.34636
-1.66238
1.89814
5.52627
-11.5609
-11.5258
-11.453
-11.3366
-11.1666
-10.9277
-10.5963
-10.1359
-9.48837
-8.55727
-7.17469
-5.03316
-1.55707
4.22227
12.7172
-12.2737
-12.2475
-12.1928
-12.1046
-11.9741
-11.7881
-11.5257
-11.1545
-10.6212
-9.83497
-8.62667
-6.64676
-3.05123
4.66055
25.8075
-146.467
-88.0188
-61.5409
-48.8902
-42.1153
-38.0701
-35.4429
-33.6324
-32.3351
-31.3849
-30.6847
-30.1749
-29.8185
-29.592
-29.482
-182.172
-82.3633
-54.6711
-43.9953
-38.6408
-35.461
-33.3694
-31.9046
-30.8392
-30.0489
-29.4606
-29.029
-28.7254
-28.5319
-28.4376
46.9014
-26.6271
-35.9842
-35.4051
-33.656
-32.0963
-30.8607
-29.8995
-29.1523
-28.5727
-28.1277
-27.7941
-27.556
-27.4028
-27.3277
-7.05306
-15.4543
-24.1975
-27.6273
-28.5398
-28.5064
-28.1616
-27.7458
-27.349
-27.003
-26.7173
-26.4929
-26.3278
-26.2194
-26.1657
25.8954
-4.04413
-16.1007
-21.5977
-24.0804
-25.1329
-25.5116
-25.5789
-25.5103
-25.3914
-25.2644
-25.1506
-25.0601
-24.9979
-24.9664
-1.43356
-5.05265
-12.559
-17.6615
-20.614
-22.2275
-23.0777
-23.5065
-23.7066
-23.7853
-23.8025
-23.792
-23.7727
-23.7552
-23.7453
11.4462
-3.36165
-10.6868
-15.2181
-18.0777
-19.852
-20.9366
-21.593
-21.9872
-22.2219
-22.3599
-22.4395
-22.484
-22.5073
-22.5172
-3.08616
-6.86698
-10.7548
-13.9358
-16.2949
-17.9554
-19.0927
-19.8615
-20.3786
-20.7257
-20.9578
-21.1114
-21.2101
-21.2687
-21.2961
-14.993
-10.298
-11.3136
-13.2243
-14.9972
-16.4223
-17.5047
-18.3049
-18.8881
-19.3092
-19.6102