/*--------------------------------*- C++ -*----------------------------------*\
| =========                 |                                                 |
| \\      /  F ield         | OpenFOAM: The Open Source CFD Toolbox           |
|  \\    /   O peration     | Version:  5.x                                   |
|   \\  /    A nd           | Web:      www.OpenFOAM.org                      |
|    \\/     M anipulation  |                                                 |
\*---------------------------------------------------------------------------*/
FoamFile
{
    version     2.0;
    format      ascii;
    class       volScalarField;
    location    "3.3";
    object      T;
}
// * * * * * * * * * * * * * * * * * * * * * * * * * * * * * * * * * * * * * //

dimensions      [0 0 0 1 0 0 0];

internalField   nonuniform List<scalar> 
6300
(
322.849
322.548
322.245
321.941
321.634
321.324
321.011
320.693
320.371
320.044
319.711
319.372
319.028
318.678
318.322
322.85
322.549
322.247
321.943
321.637
321.328
321.015
320.698
320.376
320.049
319.717
319.378
319.034
318.684
318.327
322.85
322.551
322.25
321.948
321.643
321.335
321.024
320.708
320.387
320.06
319.728
319.39
319.046
318.695
318.339
322.851
322.554
322.256
321.955
321.652
321.346
321.036
320.722
320.402
320.077
319.746
319.408
319.064
318.713
318.356
322.853
322.558
322.263
321.965
321.665
321.361
321.054
320.741
320.423
320.1
319.769
319.432
319.088
318.737
318.379
322.855
322.564
322.272
321.978
321.681
321.38
321.076
320.766
320.451
320.129
319.8
319.464
319.12
318.768
318.409
322.857
322.57
322.282
321.993
321.7
321.404
321.103
320.797
320.484
320.165
319.838
319.503
319.159
318.807
318.446
322.859
322.578
322.295
322.011
321.723
321.432
321.135
320.833
320.525
320.209
319.885
319.551
319.207
318.854
318.491
322.862
322.587
322.31
322.032
321.75
321.464
321.173
320.877
320.573
320.261
319.94
319.608
319.266
318.911
318.545
322.866
322.597
322.327
322.055
321.78
321.501
321.217
320.927
320.629
320.323
320.006
319.677
319.335
318.98
318.609
322.87
322.609
322.347
322.082
321.815
321.544
321.268
320.985
320.695
320.395
320.083
319.759
319.419
319.063
318.688
322.874
322.621
322.368
322.112
321.854
321.592
321.324
321.051
320.769
320.478
320.174
319.856
319.52
319.164
318.784
322.879
322.635
322.391
322.145
321.896
321.644
321.387
321.124
320.854
320.573
320.28
319.971
319.641
319.288
318.906
322.884
322.65
322.416
322.18
321.942
321.701
321.456
321.206
320.948
320.681
320.402
320.105
319.787
319.441
319.063
322.889
322.666
322.443
322.218
321.992
321.763
321.531
321.294
321.052
320.801
320.54
320.262
319.96
319.625
319.253
317.99
317.685
317.376
317.064
316.749
316.431
316.11
315.786
315.46
315.132
314.802
314.47
314.137
313.802
313.466
313.13
312.792
312.454
312.116
311.778
311.439
311.101
310.762
310.423
310.085
309.746
309.407
309.069
308.73
308.392
308.054
307.716
307.378
307.041
306.705
306.369
306.033
305.698
305.363
305.029
304.695
304.361
304.027
303.694
303.361
303.029
302.697
302.365
302.035
301.704
301.375
301.046
300.717
300.389
300.062
299.735
299.408
299.082
298.756
298.43
298.106
297.781
297.458
297.135
296.812
296.491
296.17
295.85
295.53
295.211
294.892
294.574
294.256
293.939
293.623
293.306
292.991
292.676
292.361
292.047
291.733
291.419
291.105
290.792
290.477
290.163
289.847
289.531
289.214
288.896
317.996
317.69
317.381
317.069
316.753
316.435
316.113
315.789
315.463
315.135
314.805
314.472
314.139
313.804
313.468
313.131
312.793
312.455
312.117
311.778
311.439
311.101
310.762
310.423
310.085
309.746
309.407
309.069
308.73
308.391
308.053
307.715
307.378
307.041
306.704
306.368
306.032
305.697
305.363
305.028
304.694
304.36
304.027
303.693
303.36
303.028
302.696
302.364
302.034
301.703
301.374
301.045
300.716
300.388
300.061
299.734
299.407
299.081
298.755
298.43
298.105
297.78
297.457
297.134
296.811
296.49
296.169
295.849
295.529
295.21
294.892
294.573
294.256
293.939
293.622
293.306
292.99
292.675
292.36
292.046
291.732
291.419
291.105
290.792
290.478
290.164
289.848
289.532
289.215
288.897
318.006
317.7
317.391
317.078
316.762
316.442
316.121
315.796
315.469
315.141
314.81
314.477
314.143
313.807
313.47
313.133
312.794
312.456
312.117
311.778
311.439
311.101
310.762
310.423
310.085
309.746
309.407
309.068
308.729
308.391
308.052
307.714
307.376
307.039
306.703
306.367
306.031
305.696
305.361
305.027
304.693
304.359
304.026
303.692
303.359
303.026
302.694
302.363
302.032
301.702
301.372
301.043
300.715
300.387
300.06
299.733
299.406
299.08
298.754
298.428
298.103
297.778
297.455
297.131
296.809
296.488
296.167
295.847
295.528
295.209
294.89
294.572
294.254
293.937
293.62
293.304
292.988
292.673
292.359
292.045
291.732
291.419
291.106
290.793
290.48
290.166
289.851
289.535
289.218
288.9
318.023
317.716
317.405
317.092
316.774
316.454
316.132
315.806
315.479
315.149
314.817
314.484
314.148
313.812
313.474
313.135
312.796
312.457
312.118
311.778
311.439
311.101
310.762
310.423
310.085
309.746
309.407
309.068
308.729
308.39
308.051
307.712
307.374
307.037
306.7
306.364
306.029
305.694
305.36
305.026
304.692
304.358
304.024
303.691
303.357
303.024
302.692
302.36
302.029
301.699
301.369
301.041
300.713
300.385
300.058
299.731
299.404
299.078
298.752
298.426
298.1
297.775
297.451
297.128
296.806
296.485
296.164
295.844
295.525
295.206
294.888
294.57
294.252
293.935
293.618
293.302
292.986
292.671
292.357
292.043
291.73
291.418
291.106
290.794
290.482
290.169
289.855
289.54
289.223
288.904
318.045
317.737
317.425
317.11
316.791
316.47
316.146
315.82
315.491
315.16
314.827
314.493
314.156
313.818
313.479
313.139
312.798
312.458
312.118
311.778
311.439
311.1
310.762
310.423
310.085
309.746
309.407
309.068
308.728
308.388
308.049
307.71
307.371
307.034
306.697
306.361
306.026
305.692
305.358
305.024
304.69
304.357
304.023
303.689
303.355
303.021
302.688
302.356
302.025
301.694
301.365
301.037
300.709
300.382
300.056
299.729
299.402
299.076
298.749
298.423
298.097
297.771
297.447
297.124
296.801
296.48
296.16
295.841
295.522
295.204
294.886
294.568
294.25
293.932
293.615
293.298
292.982
292.667
292.353
292.04
291.728
291.417
291.107
290.796
290.485
290.174
289.861
289.546
289.229
288.911
318.073
317.763
317.45
317.132
316.812
316.489
316.164
315.836
315.507
315.175
314.841
314.504
314.166
313.826
313.484
313.143
312.8
312.459
312.117
311.777
311.438
311.099
310.761
310.423
310.085
309.747
309.407
309.068
308.727
308.387
308.046
307.706
307.367
307.029
306.692
306.357
306.022
305.689
305.356
305.023
304.689
304.355
304.021
303.686
303.352
303.017
302.683
302.351
302.019
301.689
301.36
301.032
300.706
300.379
300.053
299.727
299.4
299.073
298.746
298.419
298.092
297.766
297.441
297.117
296.795
296.474
296.155
295.836
295.518
295.201
294.883
294.565
294.247
293.929
293.611
293.294
292.977
292.662
292.348
292.036
291.725
291.416
291.107
290.799
290.49
290.18
289.869
289.555
289.239
288.92
318.108
317.796
317.479
317.159
316.837
316.512
316.185
315.856
315.526
315.192
314.857
314.518
314.178
313.835
313.491
313.147
312.802
312.458
312.116
311.775
311.436
311.098
310.761
310.424
310.086
309.748
309.409
309.068
308.727
308.385
308.042
307.701
307.361
307.022
306.685
306.351
306.017
305.685
305.353
305.021
304.688
304.355
304.02
303.684
303.348
303.012
302.677
302.343
302.011
301.681
301.353
301.026
300.701
300.376
300.051
299.725
299.399
299.071
298.743
298.415
298.086
297.759
297.433
297.109
296.787
296.466
296.148
295.831
295.514
295.197
294.88
294.563
294.244
293.925
293.606
293.288
292.97
292.654
292.341
292.029
291.72
291.413
291.107
290.802
290.496
290.189
289.88
289.568
289.253
288.933
318.149
317.834
317.514
317.19
316.865
316.538
316.209
315.879
315.548
315.213
314.876
314.536
314.193
313.847
313.499
313.15
312.802
312.456
312.112
311.771
311.432
311.095
310.76
310.424
310.089
309.751
309.412
309.071
308.727
308.383
308.038
307.694
307.352
307.013
306.676
306.342
306.011
305.681
305.351
305.021
304.689
304.356
304.02
303.683
303.345
303.006
302.669
302.333
302.001
301.671
301.344
301.019
300.695
300.373
300.049
299.725
299.398
299.07
298.741
298.41
298.079
297.75
297.422
297.097
296.775
296.456
296.139
295.824
295.51
295.195
294.879
294.561
294.242
293.922
293.601
293.28
292.961
292.644
292.33
292.019
291.712
291.408
291.106
290.805
290.504
290.201
289.896
289.586
289.272
288.952
318.199
317.878
317.553
317.225
316.895
316.565
316.235
315.905
315.573
315.239
314.901
314.558
314.212
313.861
313.508
313.154
312.801
312.45
312.104
311.762
311.425
311.09
310.758
310.426
310.093
309.757
309.418
309.075
308.729
308.381
308.032
307.684
307.34
306.999
306.663
306.331
306.002
305.676
305.349
305.022
304.692
304.359
304.023
303.683
303.341
302.999
302.658
302.32
301.986
301.656
301.331
301.009
300.689
300.37
300.049
299.727
299.401
299.072
298.739
298.405
298.071
297.738
297.408
297.081
296.76
296.443
296.129
295.817
295.506
295.194
294.879
294.562
294.242
293.92
293.595
293.271
292.948
292.629
292.314
292.005
291.7
291.4
291.103
290.809
290.514
290.218
289.917
289.611
289.298
288.977
318.257
317.929
317.596
317.261
316.925
316.592
316.262
315.932
315.602
315.269
314.931
314.587
314.236
313.879
313.518
313.155
312.795
312.439
312.09
311.748
311.413
311.083
310.756
310.43
310.101
309.768
309.43
309.085
308.734
308.38
308.024
307.67
307.321
306.979
306.643
306.315
305.991
305.67
305.349
305.027
304.7
304.368
304.03
303.686
303.338
302.989
302.642
302.3
301.965
301.636
301.314
300.996
300.682
300.368
300.053
299.733
299.408
299.077
298.741
298.401
298.06
297.721
297.387
297.059
296.738
296.424
296.115
295.808
295.503
295.195
294.884
294.568
294.246
293.919
293.589
293.259
292.93
292.607
292.291
291.983
291.682
291.387
291.098
290.812
290.526
290.239
289.947
289.647
289.337
289.014
318.327
317.989
317.643
317.296
316.953
316.617
316.287
315.961
315.636
315.307
314.971
314.625
314.269
313.903
313.53
313.154
312.782
312.418
312.065
311.724
311.393
311.071
310.753
310.436
310.115
309.788
309.45
309.103
308.745
308.381
308.013
307.65
307.294
306.949
306.615
306.291
305.975
305.663
305.352
305.038
304.716
304.386
304.045
303.694
303.337
302.977
302.62
302.271
301.933
301.606
301.289
300.979
300.674
300.37
300.062
299.747
299.424
299.09
298.748
298.398
298.046
297.698
297.357
297.027
296.708
296.398
296.096
295.799
295.502
295.202
294.896
294.581
294.257
293.924
293.584
293.243
292.905
292.575
292.257
291.95
291.654
291.367
291.089
290.814
290.541
290.267
289.988
289.698
289.392
289.068
318.413
318.058
317.69
317.325
316.971
316.631
316.305
315.989
315.674
315.355
315.024
314.679
314.317
313.938
313.545
313.147
312.756
312.38
312.023
311.684
311.362
311.052
310.75
310.448
310.14
309.82
309.486
309.135
308.766
308.385
307.998
307.617
307.251
306.902
306.571
306.256
305.952
305.656
305.361
305.059
304.746
304.418
304.074
303.713
303.339
302.959
302.586
302.227
301.886
301.561
301.253
300.956
300.666
300.376
300.081
299.774
299.454
299.117
298.764
298.399
298.028
297.663
297.313
296.979
296.662
296.361
296.071
295.789
295.507
295.219
294.92
294.608
294.281
293.937
293.582
293.222
292.868
292.528
292.206
291.9
291.612
291.337
291.072
290.814
290.559
290.303
290.044
289.771
289.475
289.148
318.525
318.145
317.735
317.339
316.967
316.627
316.311
316.014
315.721
315.418
315.099
314.756
314.389
313.991
313.569
313.129
312.71
312.316
311.956
311.621
311.313
311.022
310.745
310.469
310.18
309.875
309.545
309.191
308.806
308.398
307.972
307.565
307.182
306.831
306.504
306.203
305.919
305.648
305.378
305.095
304.796
304.473
304.127
303.749
303.35
302.932
302.533
302.158
301.814
301.494
301.2
300.921
300.656
300.392
300.115
299.822
299.506
299.167
298.798
298.407
297.999
297.609
297.243
296.907
296.595
296.307
296.036
295.777
295.519
295.25
294.965
294.657
294.327
293.968
293.588
293.19
292.811
292.455
292.129
291.827
291.55
291.291
291.047
290.811
290.575
290.346
290.119
289.876
289.601
289.274
318.685
318.277
317.757
317.319
316.917
316.589
316.288
316.033
315.783
315.502
315.209
314.867
314.507
314.077
313.62
313.082
312.627
312.204
311.851
311.519
311.238
310.972
310.74
310.508
310.243
309.965
309.639
309.293
308.88
308.438
307.918
307.478
307.067
306.724
306.401
306.127
305.867
305.64
305.413
305.154
304.882
304.562
304.224
303.819
303.386
302.877
302.446
302.043
301.707
301.391
301.123
300.868
300.646
300.424
300.171
299.904
299.592
299.26
298.864
298.441
297.944
297.522
297.129
296.801
296.493
296.23
295.982
295.765
295.549
295.302
295.043
294.738
294.415
294.03
293.618
293.133
292.722
292.339
292.019
291.718
291.463
291.222
291.013
290.806
290.579
290.388
290.215
290.03
289.802
289.485
318.935
318.572
317.662
317.246
316.762
316.511
316.199
316.043
315.891
315.604
315.389
315.006
314.723
314.205
313.786
312.915
312.499
311.99
311.715
311.346
311.142
310.873
310.733
310.594
310.327
310.125
309.761
309.491
308.994
308.591
307.75
307.348
306.854
306.587
306.228
306.029
305.767
305.631
305.495
305.233
305.036
304.679
304.415
303.928
303.533
302.71
302.316
301.833
301.572
301.22
301.026
300.769
300.635
300.502
300.246
300.053
299.704
299.446
298.969
298.583
297.778
297.394
296.922
296.666
296.323
296.133
295.883
295.753
295.623
295.373
295.185
294.845
294.593
294.129
293.753
292.968
292.593
292.131
291.881
291.544
291.356
291.105
290.974
290.833
290.532
290.406
290.326
290.246
290.13
289.891
288.545
288.161
287.776
287.391
287.005
286.62
286.235
285.851
285.468
285.085
284.704
284.324
283.945
283.567
283.189
288.546
288.162
287.777
287.391
287.005
286.619
286.234
285.85
285.466
285.084
284.703
284.324
283.945
283.567
283.189
288.549
288.164
287.778
287.391
287.005
286.618
286.232
285.848
285.464
285.082
284.701
284.322
283.943
283.566
283.188
288.553
288.167
287.78
287.392
287.004
286.616
286.23
285.844
285.461
285.078
284.698
284.319
283.941
283.564
283.188
288.558
288.171
287.782
287.393
287.003
286.613
286.226
285.839
285.455
285.073
284.693
284.315
283.938
283.562
283.187
288.566
288.177
287.786
287.393
287.001
286.609
286.22
285.832
285.448
285.066
284.686
284.309
283.934
283.56
283.186
288.578
288.186
287.79
287.394
286.998
286.603
286.212
285.823
285.438
285.056
284.678
284.302
283.928
283.556
283.185
288.594
288.197
287.796
287.394
286.993
286.595
286.2
285.81
285.424
285.043
284.666
284.292
283.921
283.552
283.184
288.616
288.212
287.804
287.394
286.986
286.582
286.184
285.792
285.407
285.026
284.651
284.28
283.912
283.546
283.182
288.647
288.233
287.812
287.391
286.974
286.564
286.162
285.769
285.383
285.004
284.632
284.264
283.9
283.539
283.18
288.691
288.26
287.821
287.384
286.956
286.538
286.132
285.737
285.353
284.977
284.608
284.245
283.886
283.531
283.177
288.755
288.296
287.829
287.37
286.926
286.5
286.09
285.695
285.313
284.942
284.578
284.221
283.869
283.52
283.173
288.849
288.339
287.828
287.339
286.879
286.445
286.034
285.641
285.264
284.898
284.542
284.193
283.848
283.508
283.169
288.988
288.382
287.806
287.281
286.804
286.367
285.958
285.572
285.203
284.846
284.499
284.159
283.824
283.493
283.164
289.191
288.397
287.731
287.174
286.692
286.259
285.861
285.486
285.129
284.784
284.448
284.12
283.797
283.477
283.159
322.894
322.681
322.468
322.254
322.039
321.822
321.603
321.38
321.154
320.922
320.682
320.428
320.151
319.827
319.406
322.898
322.695
322.492
322.288
322.083
321.877
321.67
321.462
321.251
321.037
320.82
320.595
320.356
320.077
319.657
322.903
322.71
322.516
322.322
322.128
321.934
321.739
321.545
321.35
321.156
320.963
320.772
320.588
320.426
320.372
322.908
322.724
322.54
322.356
322.173
321.99
321.808
321.627
321.449
321.273
321.104
320.945
320.804
320.702
320.665
322.913
322.738
322.564
322.391
322.218
322.046
321.876
321.709
321.545
321.387
321.238
321.104
320.995
320.931
320.955
322.917
322.752
322.588
322.424
322.262
322.101
321.942
321.787
321.637
321.494
321.362
321.246
321.154
321.1
321.091
322.922
322.766
322.611
322.457
322.304
322.154
322.006
321.862
321.724
321.594
321.474
321.37
321.288
321.237
321.236
322.926
322.78
322.634
322.489
322.345
322.205
322.067
321.934
321.806
321.686
321.576
321.48
321.399
321.339
321.302
322.931
322.793
322.655
322.519
322.385
322.253
322.125
322.001
321.883
321.772
321.669
321.577
321.497
321.427
321.356
322.935
322.805
322.676
322.548
322.423
322.3
322.18
322.065
321.955
321.851
321.755
321.667
321.587
321.514
321.45
322.939
322.817
322.696
322.576
322.459
322.344
322.232
322.125
322.022
321.926
321.835
321.751
321.672
321.596
321.512
322.943
322.828
322.715
322.603
322.493
322.385
322.281
322.181
322.086
321.996
321.911
321.831
321.756
321.682
321.614
322.946
322.839
322.733
322.628
322.525
322.424
322.327
322.234
322.146
322.062
321.983
321.909
321.838
321.766
321.681
322.95
322.849
322.749
322.651
322.555
322.461
322.371
322.284
322.202
322.125
322.052
321.985
321.921
321.858
321.796
322.953
322.859
322.765
322.673
322.583
322.496
322.412
322.331
322.255
322.184
322.118
322.058
322.002
321.949
321.881
322.956
322.868
322.78
322.694
322.61
322.528
322.45
322.375
322.305
322.24
322.18
322.127
322.083
322.05
322.047
322.959
322.876
322.794
322.713
322.635
322.559
322.486
322.416
322.351
322.292
322.238
322.192
322.155
322.13
322.121
322.961
322.884
322.807
322.732
322.658
322.587
322.519
322.454
322.394
322.339
322.29
322.249
322.218
322.2
322.205
322.964
322.891
322.819
322.748
322.68
322.613
322.549
322.489
322.433
322.382
322.337
322.3
322.271
322.254
322.247
322.966
322.898
322.83
322.764
322.699
322.637
322.577
322.521
322.469
322.421
322.379
322.344
322.317
322.301
322.299
322.968
322.904
322.841
322.778
322.718
322.659
322.603
322.55
322.501
322.456
322.417
322.383
322.356
322.337
322.325
322.97
322.91
322.85
322.792
322.735
322.68
322.627
322.577
322.531
322.488
322.45
322.416
322.389
322.368
322.357
322.972
322.915
322.859
322.804
322.75
322.698
322.649
322.601
322.557
322.516
322.479
322.446
322.417
322.393
322.372
322.973
322.92
322.867
322.815
322.765
322.716
322.669
322.624
322.582
322.542
322.506
322.473
322.443
322.415
322.385
322.975
322.924
322.875
322.826
322.778
322.731
322.687
322.644
322.604
322.566
322.531
322.498
322.467
322.437
322.409
322.976
322.929
322.881
322.835
322.79
322.746
322.704
322.663
322.625
322.588
322.554
322.521
322.49
322.459
322.425
322.977
322.932
322.888
322.844
322.801
322.759
322.719
322.681
322.644
322.609
322.576
322.544
322.513
322.482
322.453
322.979
322.936
322.894
322.852
322.812
322.772
322.734
322.697
322.662
322.628
322.597
322.566
322.536
322.505
322.471
322.98
322.939
322.899
322.86
322.821
322.784
322.747
322.712
322.679
322.647
322.616
322.587
322.559
322.531
322.503
322.981
322.942
322.904
322.867
322.83
322.794
322.76
322.726
322.694
322.664
322.635
322.608
322.582
322.557
322.527
322.982
322.945
322.909
322.873
322.838
322.804
322.771
322.739
322.709
322.68
322.653
322.628
322.605
322.585
322.574
322.983
322.948
322.913
322.879
322.846
322.813
322.782
322.752
322.723
322.695
322.67
322.647
322.626
322.608
322.595
322.983
322.95
322.917
322.885
322.853
322.822
322.792
322.763
322.735
322.709
322.685
322.663
322.644
322.629
322.62
322.984
322.952
322.921
322.89
322.859
322.829
322.801
322.773
322.747
322.722
322.699
322.678
322.659
322.644
322.632
322.985
322.954
322.924
322.894
322.865
322.837
322.809
322.782
322.757
322.733
322.711
322.691
322.673
322.658
322.647
322.985
322.956
322.927
322.898
322.87
322.843
322.816
322.791
322.766
322.743
322.722
322.702
322.684
322.668
322.655
322.986
322.958
322.93
322.902
322.875
322.849
322.823
322.798
322.775
322.752
322.731
322.711
322.693
322.677
322.664
322.986
322.959
322.932
322.906
322.88
322.854
322.829
322.805
322.782
322.76
322.74
322.72
322.702
322.685
322.669
322.987
322.961
322.935
322.909
322.884
322.859
322.835
322.812
322.789
322.768
322.747
322.728
322.709
322.691
322.673
322.987
322.962
322.937
322.912
322.887
322.863
322.84
322.817
322.795
322.774
322.754
322.735
322.716
322.697
322.68
322.988
322.963
322.939
322.915
322.891
322.867
322.845
322.823
322.801
322.78
322.76
322.741
322.722
322.704
322.684
322.988
322.964
322.94
322.917
322.894
322.871
322.849
322.827
322.806
322.786
322.766
322.747
322.729
322.71
322.692
322.988
322.965
322.942
322.919
322.896
322.874
322.853
322.832
322.811
322.791
322.772
322.753
322.735
322.717
322.698
322.989
322.966
322.943
322.921
322.899
322.877
322.856
322.835
322.815
322.796
322.777
322.759
322.741
322.724
322.706
322.989
322.967
322.944
322.922
322.901
322.88
322.859
322.839
322.819
322.8
322.782
322.764
322.747
322.73
322.713
322.989
322.967
322.945
322.924
322.903
322.882
322.862
322.842
322.823
322.804
322.786
322.769
322.753
322.738
322.725
322.989
322.968
322.946
322.925
322.904
322.884
322.864
322.844
322.826
322.807
322.79
322.773
322.758
322.744
322.731
322.989
322.968
322.947
322.926
322.906
322.885
322.866
322.847
322.828
322.81
322.793
322.777
322.762
322.748
322.736
322.989
322.968
322.948
322.927
322.907
322.887
322.867
322.848
322.83
322.812
322.796
322.78
322.765
322.752
322.739
322.99
322.969
322.948
322.927
322.907
322.888
322.868
322.85
322.831
322.814
322.798
322.782
322.768
322.754
322.742
322.99
322.969
322.948
322.928
322.908
322.888
322.869
322.85
322.832
322.815
322.799
322.784
322.769
322.756
322.743
322.99
322.969
322.948
322.928
322.908
322.888
322.869
322.851
322.833
322.816
322.8
322.784
322.77
322.757
322.744
322.99
322.969
322.948
322.928
322.908
322.888
322.869
322.851
322.833
322.816
322.8
322.785
322.77
322.757
322.745
322.99
322.969
322.948
322.927
322.907
322.888
322.868
322.85
322.832
322.815
322.799
322.784
322.77
322.757
322.744
322.989
322.968
322.947
322.927
322.907
322.887
322.867
322.849
322.831
322.814
322.798
322.783
322.769
322.756
322.744
322.989
322.968
322.947
322.926
322.905
322.885
322.866
322.847
322.829
322.812
322.796
322.781
322.767
322.754
322.743
322.989
322.967
322.946
322.925
322.904
322.884
322.864
322.845
322.827
322.81
322.793
322.778
322.764
322.752
322.74
322.989
322.967
322.945
322.923
322.902
322.882
322.862
322.842
322.824
322.806
322.79
322.774
322.76
322.748
322.738
322.989
322.966
322.944
322.922
322.9
322.879
322.859
322.839
322.82
322.802
322.786
322.77
322.756
322.743
322.732
322.988
322.965
322.942
322.92
322.898
322.876
322.855
322.835
322.816
322.798
322.781
322.764
322.75
322.736
322.726
322.988
322.964
322.941
322.917
322.895
322.873
322.851
322.831
322.811
322.792
322.775
322.758
322.743
322.728
322.712
322.988
322.963
322.939
322.915
322.891
322.869
322.847
322.825
322.805
322.786
322.768
322.751
322.735
322.72
322.705
322.987
322.962
322.937
322.912
322.888
322.864
322.841
322.82
322.799
322.779
322.761
322.743
322.727
322.711
322.694
322.987
322.96
322.934
322.908
322.883
322.859
322.836
322.813
322.792
322.772
322.753
322.735
322.718
322.703
322.688
322.986
322.959
322.931
322.905
322.879
322.853
322.829
322.806
322.784
322.763
322.744
322.726
322.709
322.693
322.677
322.986
322.957
322.928
322.9
322.873
322.847
322.822
322.798
322.775
322.754
322.734
322.716
322.7
322.685
322.671
322.985
322.955
322.925
322.896
322.867
322.84
322.813
322.788
322.765
322.743
322.723
322.706
322.69
322.675
322.661
322.984
322.952
322.921
322.891
322.861
322.832
322.804
322.778
322.754
322.731
322.711
322.693
322.678
322.665
322.655
322.983
322.95
322.917
322.885
322.853
322.823
322.794
322.767
322.741
322.718
322.697
322.68
322.665
322.654
322.648
322.982
322.947
322.912
322.878
322.845
322.813
322.783
322.754
322.727
322.703
322.682
322.664
322.649
322.639
322.633
322.981
322.944
322.907
322.871
322.836
322.802
322.77
322.74
322.712
322.686
322.664
322.645
322.631
322.622
322.621
322.98
322.941
322.902
322.864
322.826
322.79
322.756
322.724
322.694
322.667
322.643
322.623
322.608
322.599
322.596
322.979
322.937
322.896
322.855
322.815
322.777
322.741
322.707
322.675
322.645
322.62
322.598
322.581
322.572
322.575
322.978
322.933
322.889
322.846
322.804
322.763
322.724
322.687
322.653
322.622
322.593
322.569
322.55
322.537
322.533
322.976
322.929
322.882
322.836
322.791
322.748
322.706
322.667
322.63
322.596
322.564
322.537
322.513
322.496
322.495
322.975
322.924
322.874
322.825
322.777
322.731
322.686
322.644
322.604
322.567
322.533
322.502
322.473
322.445
322.41
322.973
322.919
322.866
322.813
322.762
322.713
322.665
322.62
322.577
322.537
322.5
322.464
322.431
322.398
322.367
322.971
322.914
322.857
322.801
322.746
322.693
322.643
322.594
322.548
322.505
322.465
322.426
322.389
322.351
322.307
322.969
322.908
322.847
322.787
322.729
322.672
322.618
322.566
322.518
322.471
322.428
322.387
322.347
322.309
322.272
322.967
322.901
322.836
322.773
322.71
322.65
322.592
322.537
322.485
322.436
322.39
322.347
322.305
322.264
322.219
322.965
322.895
322.825
322.757
322.69
322.626
322.564
322.505
322.45
322.398
322.35
322.305
322.263
322.223
322.187
322.962
322.887
322.813
322.74
322.669
322.6
322.534
322.471
322.412
322.358
322.307
322.262
322.22
322.18
322.138
322.96
322.88
322.8
322.722
322.646
322.572
322.502
322.435
322.372
322.314
322.262
322.215
322.174
322.139
322.11
322.957
322.871
322.786
322.703
322.621
322.542
322.467
322.395
322.328
322.267
322.213
322.165
322.125
322.093
322.077
322.954
322.863
322.772
322.682
322.595
322.51
322.429
322.352
322.28
322.215
322.158
322.11
322.07
322.037
321.997
322.951
322.853
322.756
322.66
322.567
322.475
322.388
322.305
322.228
322.158
322.098
322.048
322.011
321.985
321.963
322.948
322.843
322.739
322.637
322.536
322.438
322.344
322.254
322.17
322.095
322.03
321.978
321.945
321.932
321.938
322.944
322.833
322.722
322.612
322.504
322.399
322.296
322.199
322.107
322.024
321.952
321.896
321.864
321.864
321.907
322.941
322.822
322.704
322.586
322.471
322.357
322.246
322.139
322.038
321.944
321.863
321.798
321.761
321.768
321.852
322.937
322.811
322.685
322.56
322.436
322.313
322.193
322.076
321.963
321.857
321.761
321.681
321.626
321.62
321.726
289.404
288.294
287.563
287.008
286.543
286.13
285.749
285.391
285.049
284.718
284.396
284.08
283.768
283.46
283.153
289.011
287.936
287.289
286.794
286.371
285.989
285.633
285.294
284.969
284.653
284.344
284.04
283.74
283.443
283.148
287.462
287.28
286.909
286.531
286.172
285.83
285.504
285.188
284.882
284.582
284.288
283.998
283.711
283.426
283.142
286.852
286.757
286.533
286.255
285.959
285.661
285.367
285.076
284.79
284.508
284.229
283.953
283.68
283.407
283.136
286.276
286.323
286.196
285.99
285.748
285.49
285.226
284.961
284.696
284.431
284.169
283.908
283.647
283.388
283.129
286.015
286.01
285.914
285.751
285.548
285.324
285.087
284.845
284.6
284.354
284.107
283.861
283.615
283.369
283.123
285.744
285.759
285.678
285.539
285.364
285.165
284.953
284.732
284.506
284.277
284.046
283.814
283.582
283.349
283.116
285.623
285.574
285.483
285.353
285.195
285.016
284.824
284.622
284.413
284.201
283.985
283.768
283.549
283.33
283.11
285.526
285.42
285.313
285.187
285.04
284.877
284.701
284.516
284.324
284.126
283.925
283.722
283.517
283.311
283.104
285.359
285.267
285.157
285.034
284.897
284.747
284.586
284.415
284.238
284.055
283.868
283.678
283.485
283.292
283.097
285.251
285.125
285.011
284.892
284.763
284.625
284.476
284.319
284.155
283.986
283.812
283.635
283.455
283.274
283.091
285.072
284.975
284.868
284.756
284.637
284.509
284.372
284.228
284.077
283.92
283.759
283.594
283.426
283.256
283.086
284.956
284.832
284.728
284.625
284.516
284.399
284.274
284.142
284.003
283.858
283.708
283.554
283.398
283.239
283.08
284.758
284.675
284.588
284.497
284.4
284.295
284.182
284.06
283.932
283.798
283.659
283.517
283.371
283.224
283.075
284.615
284.521
284.45
284.375
284.29
284.197
284.094
283.984
283.866
283.742
283.614
283.481
283.346
283.208
283.07
284.335
284.351
284.315
284.258
284.187
284.105
284.012
283.912
283.804
283.69
283.571
283.448
283.322
283.194
283.065
284.21
284.216
284.195
284.151
284.092
284.019
283.936
283.845
283.746
283.641
283.531
283.417
283.3
283.181
283.06
284.071
284.1
284.09
284.056
284.005
283.941
283.866
283.783
283.692
283.595
283.494
283.388
283.279
283.168
283.056
284.002
284.011
284.001
283.973
283.928
283.87
283.803
283.726
283.643
283.553
283.459
283.361
283.26
283.157
283.052
283.919
283.935
283.926
283.9
283.859
283.807
283.745
283.674
283.597
283.515
283.427
283.336
283.242
283.146
283.049
283.876
283.876
283.864
283.838
283.799
283.75
283.693
283.627
283.556
283.479
283.398
283.313
283.225
283.136
283.045
283.827
283.827
283.811
283.783
283.746
283.7
283.646
283.585
283.518
283.447
283.371
283.292
283.21
283.127
283.042
283.803
283.788
283.766
283.736
283.699
283.654
283.603
283.546
283.484
283.417
283.346
283.272
283.196
283.118
283.04
283.782
283.754
283.726
283.694
283.657
283.614
283.565
283.511
283.453
283.39
283.324
283.255
283.184
283.111
283.037
283.747
283.72
283.69
283.656
283.619
283.577
283.53
283.479
283.424
283.365
283.303
283.239
283.172
283.104
283.035
283.723
283.688
283.655
283.621
283.584
283.543
283.499
283.45
283.398
283.343
283.285
283.224
283.161
283.097
283.033
283.683
283.654
283.621
283.588
283.552
283.513
283.47
283.424
283.375
283.323
283.268
283.211
283.152
283.091
283.031
283.657
283.621
283.589
283.556
283.522
283.484
283.444
283.4
283.353
283.304
283.252
283.198
283.143
283.086
283.029
283.614
283.586
283.557
283.526
283.493
283.458
283.42
283.378
283.334
283.287
283.238
283.187
283.135
283.081
283.027
283.582
283.551
283.525
283.498
283.467
283.434
283.397
283.358
283.316
283.272
283.225
283.177
283.128
283.077
283.026
283.521
283.514
283.495
283.471
283.443
283.412
283.377
283.34
283.3
283.258
283.214
283.168
283.121
283.073
283.024
283.494
283.485
283.469
283.447
283.421
283.392
283.359
283.324
283.286
283.246
283.204
283.16
283.115
283.069
283.023
283.465
283.46
283.446
283.426
283.402
283.374
283.343
283.309
283.273
283.234
283.194
283.153
283.11
283.066
283.022
283.451
283.441
283.427
283.408
283.385
283.358
283.328
283.296
283.261
283.225
283.186
283.146
283.105
283.063
283.021
283.435
283.426
283.412
283.393
283.37
283.345
283.316
283.285
283.251
283.216
283.179
283.141
283.101
283.061
283.02
283.426
283.415
283.399
283.38
283.358
283.333
283.305
283.275
283.243
283.208
283.173
283.136
283.098
283.059
283.02
283.418