/*--------------------------------*- C++ -*----------------------------------*\
| =========                 |                                                 |
| \\      /  F ield         | OpenFOAM: The Open Source CFD Toolbox           |
|  \\    /   O peration     | Version:  5.x                                   |
|   \\  /    A nd           | Web:      www.OpenFOAM.org                      |
|    \\/     M anipulation  |                                                 |
\*---------------------------------------------------------------------------*/
FoamFile
{
    version     2.0;
    format      ascii;
    class       volScalarField;
    location    "11.8";
    object      gradTx;
}
// * * * * * * * * * * * * * * * * * * * * * * * * * * * * * * * * * * * * * //

dimensions      [0 -1 0 1 0 0 0];

internalField   nonuniform List<scalar> 
2048
(
0.006305
0.0187343
0.0306385
0.0417198
0.0517493
0.0605777
0.0681346
0.0744177
0.0794768
0.0833948
0.0862713
0.0882108
0.0893151
0.0896812
0.0894015
0.0885651
0.0872588
0.0855663
0.0835652
0.0813241
0.0788988
0.0763299
0.0736423
0.0708462
0.0679393
0.0649094
0.0617372
0.0583969
0.0548577
0.0510837
0.0470347
0.0426668
0.037935
0.0327948
0.0272041
0.0211254
0.0145266
0.00738135
-0.000329846
-0.00861865
-0.0174866
-0.0269214
-0.0368916
-0.0473399
-0.0581746
-0.0692611
-0.0804122
-0.0913807
-0.101856
-0.111464
-0.119782
-0.126359
-0.130753
-0.13257
-0.131512
-0.127416
-0.120277
-0.110248
-0.0976156
-0.0827651
-0.0661297
-0.0481503
-0.029247
-0.00980742
0.0187886
0.0558179
0.0912561
0.124205
0.153978
0.180136
0.202477
0.221011
0.235898
0.247398
0.255816
0.261465
0.26465
0.265656
0.264755
0.262211
0.25828
0.253212
0.247239
0.240568
0.233365
0.22575
0.217796
0.209532
0.200948
0.192007
0.18265
0.172801
0.162368
0.151245
0.139311
0.126435
0.112484
0.0973226
0.0808262
0.0628828
0.0433965
0.0222894
-0.000497314
-0.025
-0.0512261
-0.0791438
-0.108666
-0.139629
-0.171771
-0.204701
-0.237871
-0.270554
-0.301829
-0.330583
-0.355546
-0.375359
-0.388673
-0.394289
-0.391296
-0.379193
-0.357962
-0.328074
-0.290413
-0.246152
-0.196609
-0.143109
-0.0869053
-0.0291383
0.0311402
0.092483
0.151106
0.205484
0.254471
0.297351
0.333825
0.363951
0.388041
0.406561
0.420039
0.429007
0.433964
0.435376
0.433683
0.42931
0.422682
0.41421
0.404284
0.39325
0.381386
0.368891
0.35588
0.342394
0.32841
0.313862
0.298648
0.282644
0.265699
0.247638
0.228263
0.207355
0.184688
0.160038
0.133198
0.103981
0.0722298
0.0378159
0.000640535
-0.0393611
-0.0822106
-0.127869
-0.176211
-0.226991
-0.279804
-0.334035
-0.388811
-0.442957
-0.494963
-0.542987
-0.584896
-0.618383
-0.641135
-0.651075
-0.64661
-0.626862
-0.591801
-0.542253
-0.479769
-0.406389
-0.324373
-0.235962
-0.143224
-0.0480093
0.0435999
0.129426
0.211273
0.286938
0.354794
0.413869
0.46382
0.504815
0.537383
0.56225
0.580201
0.591995
0.598326
0.599823
0.597075
0.590663
0.581168
0.569171
0.555228
0.539829
0.52337
0.506128
0.488254
0.469789
0.450688
0.430846
0.41012
0.388334
0.365283
0.340726
0.314385
0.285952
0.255105
0.221527
0.184923
0.145034
0.101644
0.0545735
0.00368361
-0.0511243
-0.109897
-0.172606
-0.239115
-0.309127
-0.382132
-0.457336
-0.533586
-0.609299
-0.682405
-0.75033
-0.810042
-0.858203
-0.891418
-0.906593
-0.901329
-0.874291
-0.825433
-0.756013
-0.668381
-0.565592
-0.450974
-0.327745
-0.198793
-0.0666109
0.0563833
0.167268
0.27272
0.369769
0.456282
0.531064
0.593793
0.644848
0.685065
0.715503
0.737251
0.75131
0.758557
0.759761
0.75564
0.746908
0.734305
0.718588
0.70049
0.680667
0.659641
0.637763
0.615213
0.592015
0.568087
0.543275
0.517386
0.490201
0.461464
0.43087
0.398063
0.362639
0.324171
0.28224
0.236463
0.186508
0.1321
0.0730142
0.00907189
-0.0598652
-0.133882
-0.212985
-0.297051
-0.385777
-0.478594
-0.574582
-0.672368
-0.770015
-0.864927
-0.953799
-1.03265
-1.09699
-1.14217
-1.16386
-1.15868
-1.1247
-1.06185
-0.971943
-0.858329
-0.725315
-0.577483
-0.419134
-0.253975
-0.0850563
0.0696952
0.206598
0.33634
0.45507
0.560117
0.650103
0.724835
0.785024
0.831943
0.86708
0.89188
0.907598
0.915274
0.915784
0.909936
0.898559
0.882546
0.862846
0.840396
0.816042
0.790443
0.764031
0.736993
0.709319
0.680863
0.651408
0.620711
0.588511
0.554512
0.518353
0.479596
0.437732
0.392218
0.342523
0.288166
0.228743
0.163928
0.0934577
0.0171137
-0.0652855
-0.153878
-0.248725
-0.34976
-0.456709
-0.569002
-0.685661
-0.805161
-0.925284
-1.04296
-1.15417
-1.25391
-1.33641
-1.39553
-1.42543
-1.42143
-1.38085
-1.30358
-1.19214
-1.05119
-0.886624
-0.704541
-0.510466
-0.308918
-0.103385
0.0837399
0.247996
0.403
0.543877
0.667376
0.772005
0.857836
0.926089
0.97863
1.0175
1.04455
1.0613
1.06893
1.06835
1.06041
1.04603
1.02625
1.00225
0.975192
0.946153
0.915956
0.885106
0.853783
0.821906
0.789235
0.75547
0.720312
0.683472
0.644632
0.603385
0.559207
0.511472
0.459501
0.402635
0.340287
0.271984
0.197357
0.116114
0.0280065
-0.067193
-0.16969
-0.27963
-0.397034
-0.521711
-0.653148
-0.790378
-0.931817
-1.07506
-1.21663
-1.35183
-1.47461
-1.57773
-1.65327
-1.69348
-1.69204
-1.64521
-1.55281
-1.41831
-1.24811
-1.05014
-0.832386
-0.601756
-0.363564
-0.121568
0.0987288
0.292057
0.473579
0.637206
0.779071
0.897667
0.993521
1.06858
1.12552
1.16705
1.19552
1.21271
1.21983
1.21779
1.20742
1.18966
1.16572
1.13703
1.10505
1.07113
1.0363
1.00112
0.965733
0.929952
0.893396
0.855653
0.81637
0.775249
0.731976
0.686115
0.637057
0.584035
0.526211
0.462768
0.393009
0.316393
0.232523
0.141099
0.0418534
-0.0654875
-0.18121
-0.305572
-0.438723
-0.580601
-0.73081
-0.88848
-1.05206
-1.21908
-1.38579
-1.54686
-1.69517
-1.82184
-1.91681
-1.96996
-1.97276
-1.92005
-1.81151
-1.65186
-1.44985
-1.21608
-0.960865
-0.692711
-0.417661
-0.139506
0.114888
0.339413
0.548984
0.736077
0.896173
1.02789
1.13247
1.21286
1.27279
1.31583
1.34488
1.36193
1.36818
1.36439
1.35126
1.32974
1.3012
1.26737
1.23009
1.19106
1.15152
1.11214
1.07296
1.03362
0.993527
0.952137
0.909039
0.863964
0.816643
0.766641
0.713254
0.65555
0.592487
0.523066
0.446459
0.362068
0.269493
0.168451
0.0586754
-0.0601493
-0.188406
-0.326493
-0.47473
-0.63323
-0.801777
-0.979676
-1.16553
-1.35694
-1.55004
-1.73901
-1.91565
-2.06929
-2.18733
-2.25662
-2.26574
-2.20757
-2.08148
-1.89394
-1.65681
-1.38423
-1.08945
-0.782738
-0.470766
-0.157037
0.132463
0.390744
0.630183
0.841542
1.01963
1.1634
1.27512
1.35912
1.42045
1.46376
1.49257
1.509
1.51411
1.50836
1.4922
1.46653
1.43289
1.3934
1.35037
1.30594
1.26165
1.21822
1.17557
1.13305
1.0898
1.04509
0.998456
0.949706
0.898693
0.845014
0.787866
0.726105
0.658436
0.583634
0.50072
0.409054
0.308271
0.198139
0.0784218
-0.0512299
-0.19131
-0.342394
-0.505011
-0.679494
-0.865858
-1.06366
-1.2718
-1.48809
-1.70877
-1.92773
-2.13579
-2.32032
-2.46572
-2.55508
-2.57313
-2.50998
-2.36451
-2.14548
-1.86905
-1.55402
-1.21724
-0.870954
-0.522259
-0.173941
0.151727
0.446799
0.718216
0.954699
1.15038
1.30483
1.42178
1.50735
1.56831
1.61059
1.63837
1.65383
1.65767
1.64988
1.6305
1.60028
1.56099
1.51522
1.46591
1.41574
1.36664
1.31938
1.27365
1.2284
1.18241
1.13469
1.08474
1.03254
0.97814
0.921243
0.860921
0.795759
0.72414
0.644552
0.555845
0.457359
0.34881
0.230074
0.100979
-0.0388436
-0.190017
-0.353334
-0.529578
-0.71934
-0.922904
-1.14016
-1.37039
-1.61189
-1.86121
-2.11224
-2.355
-2.57485
-2.75267
-2.86686
-2.89711
-2.8296
-2.66237
-2.40725
-2.08629
-1.72443
-1.34295
-0.956204
-0.571359
-0.189945
0.172981
0.508401
0.814213
1.07671
1.28936
1.45275
1.57264
1.65743
1.71602
1.75591
1.78196
1.79625
1.79888
1.78913
1.76642
1.73125
1.68567
1.63291
1.57668
1.52038
1.46641
1.4156
1.36727
1.31983
1.27156
1.22113
1.16802
1.11248
1.05496
0.995296
0.932418
0.86455
0.789666
0.70589
0.611868
0.506954
0.391022
0.264116
0.126178
-0.02316
-0.184674
-0.359424
-0.548499
-0.752775
-0.972826
-1.20892
-1.46087
-1.72762
-2.00639
-2.29146
-2.57238
-2.83245
-3.04858
-3.1934
-3.23997
-3.16898
-2.97692
-2.67983
-2.30785
-1.89401
-1.46495
-1.03708
-0.617151
-0.204733
0.196566
0.576465
0.919409
1.20879
1.43749
1.60766
1.72776
1.80905
1.86305
1.89914
1.92291
1.93605
1.93775
1.92629
1.90024
1.85971
1.80712
1.74654
1.68262
1.61973
1.56085
1.50685
1.45651
1.40751
1.35747
1.30462
1.2484
1.18955
1.12908
1.0671
1.00233
0.932504
0.855077
0.767715
0.668809
0.557789
0.434782
0.30008
0.153802
-0.00439679
-0.17547
-0.360817
-0.561891
-0.77987
-1.0156
-1.26976
-1.54281
-1.83456
-2.14328
-2.46414
-2.7867
-3.09238
-3.3536
-3.53603
-3.6042
-3.53095
-3.31019
-2.96365
-2.53268
-2.06089
-1.58123
-1.11197
-0.658617
-0.217962
0.222861
0.652002
1.03515
1.35226
1.59569
1.76996
1.88707
1.96176
2.00872
2.0396
2.06069
2.07297
2.07426
2.06158
2.03231
1.98597
1.92551
1.85614
1.78365
1.71359
1.64978
1.59307
1.54148
1.49166
1.44041
1.38541
1.32602
1.2637
1.20039
1.13656
1.07062
0.999634
0.920438
0.830101
0.726686
0.60979
0.479936
0.337747
0.183589
0.0171871
-0.162632
-0.357701
-0.569917
-0.800758
-1.0513
-1.3226
-1.61589
-1.93204
-2.27075
-2.62878
-2.99643
-3.35351
-3.66756
-3.896
-3.99248
-3.91882
-3.66445
-3.25894
-2.75922
-2.22269
-1.6895
-1.17909
-0.694676
-0.229274
0.252293
0.736129
1.16291
1.5085
1.76486
1.93994
2.05038
2.11496
2.15217
2.17644
2.19473
2.20674
2.20842
2.19524
2.16301
2.11035
2.04103
1.96174
1.87963
1.80172
1.73298
1.6742
1.62227
1.57249
1.52071
1.4638
1.401
1.33486
1.2687
1.20354
1.13722
1.06595
0.985821
0.893142
0.785518
0.662869
0.526307
0.376861
0.215239
0.0412972
-0.146411
-0.350286
-0.572776
-0.815638
-1.08006
-1.36745
-1.67985
-2.01942
-2.38764
-2.78373
-3.19971
-3.61434
-3.98992
-4.27436
-4.40779
-4.33645
-4.0423
-3.56568
-2.98537
-2.37655
-1.78713
-1.23656
-0.724241
-0.238318
0.285344
0.830069
1.30428
1.67902
1.94585
2.11777
2.21739
2.26793
2.2924
2.30871
2.3244
2.33711
2.34023
2.32756
2.29283
2.23324
2.15386
2.0634
1.97042
1.88384
1.81018
1.75015
1.69902
1.65026
1.5987
1.54015
1.47349
1.40291
1.3338
1.26785
1.20208
1.13147
1.05131
0.956961
0.845331
0.716917
0.573696
0.417144
0.24842
0.0676088
-0.127077
-0.338793
-0.570691
-0.824769
-1.10214
-1.40442
-1.73459
-2.0962
-2.49283
-2.92721
-3.39442
-3.87301
-4.31975
-4.67187
-4.85335
-4.78851
-4.44677
-3.88352
-3.20837
-2.51909
-1.87131
-1.28246
-0.746271
-0.24477
0.322563
0.935148
1.46098
1.86541
2.13945
2.30345
2.38771
2.41985
2.42827
2.43534
2.44904
2.46385
2.46969
2.45886
2.42234
2.35503
2.26415
2.16116
2.05585
1.95957
1.88106
1.82087
1.7719
1.72524
1.67479
1.61492
1.54366
1.46767
1.39537
1.32931
1.26516
1.19618
1.11701
1.02173
0.906158
0.771803
0.621896
0.458298
0.282763
0.0957705
-0.104905
-0.323438
-0.563901
-0.828462
-1.11787
-1.43373
-1.78015
-2.16204
-2.58526
-3.05731
-3.57815
-4.12725
-4.6556
-5.0889
-5.33269
-5.28067
-4.88146
-4.21165
-3.42468
-2.64643
-1.93906
-1.31496
-0.759838
-0.248354
0.364588
1.05279
1.63483
2.06944
2.34634
2.49678
2.56089
2.56981
2.55847
2.55511
2.568
2.58681
2.59677
2.58951
2.55228
2.47615
2.37201
2.2551
2.13576
2.02848
1.94521
1.88627
1.84114
1.79768
1.74942
1.68866
1.6117
1.52886
1.45302
1.3877
1.32642
1.26008
1.18302
1.08767
0.968042
0.827366
0.670695
0.500013
0.31787
0.125407
-0.0801711
-0.304418
-0.552643
-0.82708
-1.12767
-1.45573
-1.81669
-2.21683
-2.66398
-3.17208
-3.74825
-4.37448
-4.99557
-5.52516
-5.84957
-5.81996
-5.35065
-4.54861
-3.62979
-2.75418
-1.98739
-1.33241
-0.764182
-0.248858
0.412186
1.18447
1.82773
2.29307
2.56705
2.69727
2.73648
2.71688
2.68152
2.66671
2.68069
2.70601
2.72142
2.71985
2.68357
2.59704
2.47745
2.34537
2.20999
2.09004
2.00215
1.94631
1.90704
1.86782
1.82305
1.76212
1.67783
1.58611
1.50623
1.44281
1.38593
1.32312
1.24946
1.15512
1.03103
0.883391
0.719893
0.541976
0.353308
0.156119
-0.0531426
-0.281893
-0.537137
-0.821028
-1.13209
-1.47081
-1.84455
-2.26073
-2.72825
-3.26951
-3.90186
-4.61182
-5.33722
-5.97944
-6.40785
-6.41518
-5.85948
-4.89194
-3.81813
-2.83755
-2.01338
-1.3334
-0.75877
-0.246156
0.466313
1.33174
2.04162
2.53856
2.80188
2.90403
2.91411
2.86013
2.79579
2.76867
2.78658
2.82162
2.84342
2.85024
2.81743
2.71811
2.58036
2.43224
2.27842
2.1436
2.05131
2.00098
1.97006
1.93582
1.89613
1.83622
1.7423
1.6389
1.5544
1.49443
1.44381
1.38519
1.31641
1.22454
1.09515
0.939589
0.769325
0.583882
0.388606
0.187484
-0.024073
-0.255972
-0.517571
-0.810748
-1.13173
-1.47943
-1.86418
-2.29422
-2.77751
-3.34762
-4.03593
-4.83623
-5.67767
-6.4492
-7.01134
-7.07747
-6.41416
-5.23784
-3.98281
-2.89141
-2.0144
-1.31693
-0.74334
-0.240215
0.528233
1.49608
2.27835
2.80863
3.05081
3.11568
3.09367
2.99867
2.89944
2.85936
2.88524
2.93418
2.96235
2.98091
2.95549
2.8397
2.68033
2.51618
2.34098
2.18839
2.09197
2.05032
2.03081
2.00167
1.96906
1.91222
1.80539
1.68653
1.59676
1.54237
1.50036
1.44609
1.38392
1.29659
1.16043
0.995553
0.81889
0.625442
0.423244
0.219056
0.00680173
-0.226693
-0.494087
-0.796714
-1.12736
-1.48208
-1.87609
-2.3182
-2.81148
-3.40444
-4.14719
-5.0446
-6.01382
-6.93009
-7.66345
-7.82108
-7.02215
-5.5805
-4.11554
-2.91049
-1.98822
-1.28244
-0.71793
-0.231102
0.599699
1.6789
2.53956
3.10673
3.31337
3.33008
3.27546
3.13174
2.99037
2.93696
2.9764
3.04469
3.0774
3.11196
3.10001
2.96199
2.77659
2.59798
2.39768
2.22345
2.12328
2.09445
2.09024
2.06511
2.04217
1.99182
1.86738
1.72805
1.63237
1.5865
1.55614
1.50542
1.45196
1.37225
1.22682
1.0507
0.868608
0.666393
0.456641
0.250362
0.0392638
-0.194007
-0.466757
-0.779418
-1.11984
-1.47919
-1.88084
-2.33404
-2.83019
-3.43807
-4.2322
-5.23393
-6.34258
-7.41523
-8.36664
-8.66445
-7.69242
-5.91141
-4.20654
-2.88963
-1.93325
-1.22993
-0.68289
-0.218982
0.683235
1.88136
2.82647
3.43738
3.58846
3.54412
3.46057
3.2587
3.06621
2.99943
3.05993
3.15486
3.18719
3.24315
3.25415
3.08494
2.86777
2.67894
2.4486
2.24761
2.14419
2.13353
2.14972
2.1255
2.11554
2.07731
1.92854
1.76224
1.66012
1.62673
1.61204
1.5625
1.52034
1.45291
1.29419
1.10419
0.918695
0.706505
0.488139
0.280909
0.0731102
-0.157757
-0.435575
-0.75937
-1.11026
-1.47107
-1.87886
-2.34377
-2.83395
-3.44667
-4.28725
-5.40146
-6.66151
-7.89449
-9.12172
-9.63149
-8.43566
-6.21821
-4.2445
-2.82411
-1.84869
-1.15996
-0.638871
-0.204112
0.782583
2.10422
3.13946
3.80674
3.87411
3.75334
3.65126
3.37902
3.1242
3.04445
3.13581
3.26746
3.28945
3.3738
3.42239
3.20805
2.9517
2.76116
2.49391
2.25943
2.15347
2.16779
2.21126
2.18161
2.18898
2.17185
1.98906
1.78752
1.67872
1.66304
1.66953
1.61622
1.58864
1.54061
1.36223
1.15482
0.969677
0.745575
0.516971
0.310186
0.108144
-0.117662
-0.400441
-0.737064
-1.09996
-1.45787
-1.87036
-2.35014
-2.82338
-3.42855
-4.30825
-5.5448
-6.96962
-8.35345
-9.92673
-10.7534
-9.26453
-6.48341
-4.21682
-2.71
-1.73467
-1.07366
-0.586795
-0.186823
0.903335
2.34761
3.47767
4.22338
4.16717
3.95143
3.8516
3.49223
3.16113
3.06941
3.20412
3.38672
3.38064
3.50253
3.61106
3.33022
3.02501
2.8479
2.53378
2.25714
2.14962
2.19747
2.27783
2.23134
2.26179
2.27978
2.04893
1.80188
1.68665
1.69542
1.73081
1.66486
1.65613
1.63824
1.43037
1.20088
1.02255
0.783411
0.542233
0.337682
0.144159
-0.0732954
-0.361149
-0.712957
-1.09063
-1.43948
-1.85512
-2.35693
-2.79932
-3.38219
-4.2906
-5.66197
-7.2686
-8.77231
-10.7755
-12.0712
-10.1938
-6.68262
-4.11002
-2.54468
-1.59242
-0.97273
-0.527808
-0.167506
1.05384
2.61074
3.83826
4.69932
4.46283
4.12965
4.06828
3.59776
3.17331
3.07139
3.26481
3.51901
3.45547
3.62691
3.82914
3.4494
3.08272
2.94409
2.56828
2.23861
2.13091
2.2227
2.35376
2.27146
2.33263
2.40706
2.10775
1.80288
1.68224
1.7238
1.7992
1.70585
1.72155
1.74998
1.49762
1.23999
1.07898
0.819787
0.562849
0.36291
0.180914
-0.0240608
-0.317391
-0.687404
-1.08451
-1.41544
-1.83221
-2.36917
-2.76273
-3.30639
-4.22896
-5.75127
-7.56444
-9.12456
-11.6555
-13.638
-11.2403
-6.78237
-3.91051
-2.32732
-1.42422
-0.859313
-0.463219
-0.146588
1.24647
2.89148
4.21547
5.25149
4.75412
4.27604
4.31165
3.6946
3.15644
3.04716
3.31748
3.6736
3.50625
3.74313
4.08914
3.56222
3.11775
3.05705
2.59719
2.20126
2.09538
2.24336
2.44521
2.29713
2.39921
2.56182
2.16451
1.78755
1.66369
1.74794
1.87952
1.73538
1.78297
1.88166
1.56239
1.26883
1.14163
0.85437
0.577522
0.385449
0.218094
0.0308346
-0.268766
-0.660574
-1.0845
-1.38487
-1.79968
-2.39355
-2.71447
-3.2004
-4.117
-5.81094
-7.86973
-9.37558
-12.5455
-15.5237
-12.4233
-6.73753
-3.60578
-2.05934
-1.23348
-0.735932
-0.394429
-0.124511
1.49922
3.1859
4.59947
5.90349
5.0311
4.3745
4.59715
3.78084
3.10563
2.99331
3.3609
3.86375
3.52213
3.84545
4.40835
3.66345
3.12023
3.19734
2.61967
2.14209
2.04087
2.25875
2.56096
2.30146
2.458
2.7551
2.21715
1.75244
1.62911
1.76719
1.9786
1.74812
1.83758
2.04137
1.62225
1.28297
1.21447
0.886593
0.584697
0.405005
0.255258
0.0924145
-0.214812
-0.632323
-1.09448
-1.34638
-1.75409
-2.43894
-2.65497
-3.06423
-3.94708
-5.83851
-8.20636
-9.48107
-13.4121
-17.8183
-13.7635
-6.48816
-3.18621
-1.74482
-1.02454
-0.605329
-0.322859
-0.10171
1.83791
3.48763
4.97478
6.68788
5.28002
4.40366
4.94698
3.85286
3.01544
2.90632
3.39242
4.10802
3.48815
3.92559
4.81028
3.74535
3.07674
3.37991
2.63378
2.05769
1.96515
2.26722
2.71315
2.27483
2.50383
3.00169
2.2621
1.69363
1.57671
1.78016
2.106
1.73663
1.88135
2.24015
1.67359
1.27646
1.3033
0.915482
0.582521
0.421493
0.291767
0.161979
-0.155061
-0.602007
-1.11957
-1.29806
-1.69
-2.51699
-2.58379
-2.899
-3.71002
-5.82966
-8.6091
-9.38557
-14.2057
-20.6381
-15.2832
-5.95593
-2.64744
-1.39074
-0.802483
-0.470329
-0.249885
-0.0785944
2.29876
3.78716
5.3184
7.64897
5.48212
4.33555
5.39221
3.90439
2.87994
2.7829
3.40705
4.43189
3.38417
3.97199
5.32646
3.79687
2.96946
3.62544
2.63578
1.94429
1.86605
2.26559
2.91846
2.20424
2.52949
3.32117
2.29353
1.60687
1.50493
1.78429
2.27481
1.69087
1.90873
2.4928
1.71124
1.24158
1.41628
0.93939
0.568813
0.435147
0.326686
0.241165
-0.0891383
-0.568246
-1.1665
-1.23743
-1.59931
-2.64303
-2.49893
-2.70747
-3.39487
-5.77658
-9.12963
-9.02085
-14.8556
-24.1315
-17.0051
-5.04007
-1.99351
-1.00696
-0.57282
-0.33368
-0.176778
-0.0555359
2.93167
4.07094
5.59758
8.84607
5.61231
4.13422
5.97528
3.92502
2.69304
2.62029
3.39626
4.86972
3.18363
3.96896
5.99837
3.80275
2.77518
3.96197
2.61926
1.79794
1.74174
2.24836
3.19929
2.07247
2.52521
3.73919
2.30255
1.48777
1.4127
1.77516
2.50264
1.59751
1.91227
2.81884
1.72796
1.16838
1.56458
0.955671
0.541053
0.446648
0.358663
0.332026
-0.0168949
-0.528597
-1.24397
-1.16146
-1.47043
-2.83698
-2.39598
-2.49471
-2.98874
-5.66577
-9.84142
-8.30465
-15.2643
-28.4861
-18.9507
-3.6129
-1.24082
-0.605809
-0.341145
-0.197924
-0.104664
-0.0328565
3.80397
4.32041
5.76721
10.3573
5.63756
3.75406
6.75284
3.89849
2.44878
2.4168
3.3465
5.46702
2.85214
3.89574
6.87975
3.74234
2.46422
4.4268
2.57401
1.61474
1.59104
2.20675
3.58527
1.85714
2.4781
4.28881
2.27607
1.3321
1.29976
1.74577
2.81276
1.43924
1.88219
3.24355
1.71393
1.04434
1.76322
0.960242
0.496397
0.457286
0.385779
0.437142
0.0613976
-0.47917
-1.36318
-1.0667
-1.28741
-3.12464
-2.26701
-2.2689
-2.47697
-5.47509
-10.845
-7.13944
-15.3012
-33.9369
-21.1393
-1.51515
-0.422852
-0.201266
-0.112736
-0.0652797
-0.0344909
-0.0108238
)
;

boundaryField
{
    left
    {
        type            calculated;
        value           uniform 0;
    }
    right
    {
        type            calculated;
        value           uniform 0;
    }
    interface
    {
        type            calculated;
        value           nonuniform List<scalar> 
64
(
3.80397
4.32041
5.76721
10.3573
5.63756
3.75406
6.75284
3.89849
2.44878
2.4168
3.3465
5.46702
2.85214
3.89574
6.87975
3.74234
2.46422
4.4268
2.57401
1.61474
1.59104
2.20675
3.58527
1.85714
2.4781
4.28881
2.27607
1.3321
1.29976
1.74577
2.81276
1.43924
1.88219
3.24355
1.71393
1.04434
1.76322
0.960242
0.496397
0.457286
0.385779
0.437142
0.0613976
-0.47917
-1.36318
-1.0667
-1.28741
-3.12464
-2.26701
-2.2689
-2.47697
-5.47509
-10.845
-7.13944
-15.3012
-33.9369
-21.1393
-1.51515
-0.422852
-0.201266
-0.112736
-0.0652797
-0.0344909
-0.0108238
)
;
    }
    bottom
    {
        type            calculated;
        value           nonuniform List<scalar> 
64
(
0.006305
0.0187343
0.0306385
0.0417198
0.0517493
0.0605777
0.0681346
0.0744177
0.0794768
0.0833948
0.0862713
0.0882108
0.0893151
0.0896812
0.0894015
0.0885651
0.0872588
0.0855663
0.0835652
0.0813241
0.0788988
0.0763299
0.0736423
0.0708462
0.0679393
0.0649094
0.0617372
0.0583969
0.0548577
0.0510837
0.0470347
0.0426668
0.037935
0.0327948
0.0272041
0.0211254
0.0145266
0.00738135
-0.000329846
-0.00861865
-0.0174866
-0.0269214
-0.0368916
-0.0473399
-0.0581746
-0.0692611
-0.0804122
-0.0913807
-0.101856
-0.111464
-0.119782
-0.126359
-0.130753
-0.13257
-0.131512
-0.127416
-0.120277
-0.110248
-0.0976156
-0.0827651
-0.0661297
-0.0481503
-0.029247
-0.00980742
)
;
    }
    defaultFaces
    {
        type            empty;
    }
}


// ************************************************************************* //
