/*--------------------------------*- C++ -*----------------------------------*\
| =========                 |                                                 |
| \\      /  F ield         | OpenFOAM: The Open Source CFD Toolbox           |
|  \\    /   O peration     | Version:  5.x                                   |
|   \\  /    A nd           | Web:      www.OpenFOAM.org                      |
|    \\/     M anipulation  |                                                 |
\*---------------------------------------------------------------------------*/
FoamFile
{
    version     2.0;
    format      ascii;
    class       volScalarField;
    location    "11.8";
    object      gradTy;
}
// * * * * * * * * * * * * * * * * * * * * * * * * * * * * * * * * * * * * * //

dimensions      [0 -1 0 1 0 0 0];

internalField   nonuniform List<scalar> 
2048
(
-26.4236
-26.3961
-26.3417
-26.262
-26.1592
-26.0358
-25.8946
-25.7383
-25.5697
-25.3915
-25.206
-25.0154
-24.8216
-24.6262
-24.4309
-24.2368
-24.0452
-23.8569
-23.6727
-23.4932
-23.3188
-23.1499
-22.9867
-22.8295
-22.6784
-22.5338
-22.396
-22.2651
-22.1418
-22.0263
-21.9193
-21.8214
-21.7334
-21.656
-21.5903
-21.5372
-21.4979
-21.4736
-21.4653
-21.4745
-21.5023
-21.55
-21.6189
-21.71
-21.8244
-21.9628
-22.1257
-22.3128
-22.5236
-22.7566
-23.0096
-23.2793
-23.5613
-23.8504
-24.1406
-24.4252
-24.6976
-24.9511
-25.1795
-25.3777
-25.5412
-25.6666
-25.7515
-25.7943
-26.446
-26.4177
-26.3621
-26.2808
-26.1759
-26.0503
-25.9067
-25.7482
-25.5776
-25.3974
-25.2102
-25.018
-24.8228
-24.6262
-24.4298
-24.2349
-24.0425
-23.8536
-23.669
-23.4891
-23.3144
-23.1453
-22.9819
-22.8245
-22.6732
-22.5284
-22.3902
-22.2591
-22.1354
-22.0194
-21.9119
-21.8134
-21.7247
-21.6466
-21.5801
-21.5261
-21.4859
-21.4605
-21.4512
-21.4594
-21.4862
-21.5329
-21.6009
-21.6912
-21.805
-21.9431
-22.106
-22.2936
-22.5056
-22.7405
-22.9961
-23.2693
-23.5555
-23.8495
-24.145
-24.4352
-24.7129
-24.9713
-25.2041
-25.4058
-25.572
-25.6994
-25.7855
-25.8289
-26.4887
-26.4592
-26.4011
-26.3164
-26.2076
-26.0776
-25.9297
-25.7669
-25.5922
-25.4084
-25.2179
-25.0228
-24.825
-24.6261
-24.4277
-24.2311
-24.0373
-23.8473
-23.6617
-23.4812
-23.306
-23.1365
-22.9727
-22.815
-22.6634
-22.5181
-22.3795
-22.2478
-22.1233
-22.0065
-21.8981
-21.7984
-21.7084
-21.6289
-21.5607
-21.5051
-21.4631
-21.4358
-21.4246
-21.4308
-21.4556
-21.5005
-21.5667
-21.6555
-21.7681
-21.9055
-22.0684
-22.257
-22.471
-22.7094
-22.9701
-23.2498
-23.5442
-23.8476
-24.1534
-24.4541
-24.7421
-25.01
-25.251
-25.4594
-25.6308
-25.7619
-25.8504
-25.8949
-26.5499
-26.5185
-26.4569
-26.3673
-26.2526
-26.1163
-25.9619
-25.793
-25.6126
-25.4236
-25.2285
-25.0293
-24.8278
-24.6257
-24.4245
-24.2255
-24.0297
-23.8381
-23.6513
-23.4699
-23.2941
-23.124
-22.9599
-22.8017
-22.6496
-22.5038
-22.3644
-22.2319
-22.1064
-21.9885
-21.8786
-21.7774
-21.6856
-21.604
-21.5336
-21.4756
-21.431
-21.4011
-21.3872
-21.3905
-21.4126
-21.4547
-21.5183
-21.6048
-21.7156
-21.8519
-22.0146
-22.2043
-22.4212
-22.6643
-22.9319
-23.221
-23.5271
-23.8441
-24.1648
-24.481
-24.784
-25.0656
-25.3184
-25.5364
-25.715
-25.8512
-25.9428
-25.9889
-26.6283
-26.5944
-26.5279
-26.4317
-26.3092
-26.1646
-26.002
-25.8251
-25.6376
-25.4421
-25.2412
-25.0369
-24.8309
-24.6248
-24.4201
-24.218
-24.0198
-23.8263
-23.638
-23.4556
-23.279
-23.1084
-22.9438
-22.7851
-22.6324
-22.4859
-22.3457
-22.2121
-22.0855
-21.9662
-21.8546
-21.7514
-21.6572
-21.5731
-21.4999
-21.4388
-21.391
-21.3578
-21.3404
-21.3402
-21.3587
-21.3973
-21.4576
-21.5411
-21.6493
-21.7839
-21.9461
-22.1369
-22.3568
-22.6056
-22.8819
-23.1828
-23.5038
-23.8385
-24.1787
-24.515
-24.8376
-25.137
-25.4049
-25.6349
-25.8224
-25.9646
-26.06
-26.1078
-26.723
-26.6857
-26.6131
-26.5085
-26.3762
-26.2213
-26.0485
-25.8622
-25.666
-25.4629
-25.2553
-25.0451
-24.8338
-24.6231
-24.4143
-24.2088
-24.0076
-23.8119
-23.622
-23.4384
-23.2612
-23.09
-22.9249
-22.7658
-22.6125
-22.4651
-22.324
-22.1893
-22.0613
-21.9403
-21.8267
-21.7212
-21.6244
-21.5372
-21.4607
-21.396
-21.3444
-21.3072
-21.2857
-21.2814
-21.2956
-21.3299
-21.3861
-21.4657
-21.5707
-21.7029
-21.864
-22.0556
-22.2787
-22.5337
-22.8199
-23.1347
-23.4737
-23.8299
-24.1942
-24.5555
-24.9023
-25.2234
-25.5095
-25.7536
-25.9513
-26.1003
-26.1996
-26.2493
-26.8331
-26.7918
-26.7115
-26.5965
-26.4523
-26.285
-26.1001
-25.9028
-25.6968
-25.4853
-25.2703
-25.0535
-24.8364
-24.6205
-24.407
-24.1975
-23.9932
-23.795
-23.6034
-23.4188
-23.2408
-23.0693
-22.9038
-22.7441
-22.5902
-22.442
-22.2999
-22.1639
-22.0344
-21.9116
-21.7959
-21.6877
-21.5879
-21.4972
-21.4169
-21.3481
-21.2922
-21.2505
-21.2243
-21.2152
-21.2245
-21.2539
-21.3052
-21.3803
-21.4812
-21.6102
-21.7694
-21.9611
-22.1871
-22.4485
-22.7454
-23.076
-23.4359
-23.8175
-24.2105
-24.6019
-24.9777
-25.3245
-25.6317
-25.8916
-26.1003
-26.2562
-26.3594
-26.4108
-26.9584
-26.912
-26.8223
-26.6947
-26.5363
-26.3543
-26.1556
-25.9458
-25.7291
-25.5083
-25.2854
-25.0617
-24.8384
-24.6168
-24.3982
-24.1843
-23.9764
-23.7756
-23.5823
-23.3967
-23.2183
-23.0465
-22.8808
-22.7207
-22.5661
-22.417
-22.2737
-22.1365
-22.0054
-21.8808
-21.7627
-21.6517
-21.5485
-21.454
-21.3694
-21.296
-21.2354
-21.1887
-21.1575
-21.143
-21.1469
-21.1707
-21.2164
-21.286
-21.382
-21.5069
-21.6633
-21.8542
-22.0823
-22.3499
-22.658
-23.0058
-23.3891
-23.8002
-24.227
-24.6538
-25.0637
-25.4404
-25.7713
-26.0484
-26.2682
-26.4307
-26.5373
-26.5901
-27.0986
-27.0461
-26.945
-26.8024
-26.627
-26.428
-26.2136
-25.99
-25.7617
-25.5313
-25.3003
-25.0694
-24.8395
-24.6118
-24.3878
-24.169
-23.9573
-23.7537
-23.5587
-23.3723
-23.1938
-23.0221
-22.8563
-22.6959
-22.5406
-22.3906
-22.2461
-22.1075
-21.9749
-21.8483
-21.7279
-21.6138
-21.5069
-21.4082
-21.319
-21.2407
-21.1748
-21.1228
-21.086
-21.0658
-21.0637
-21.0814
-21.1208
-21.1843
-21.2744
-21.3941
-21.5466
-21.7355
-21.9647
-22.2377
-22.5569
-22.9229
-23.3323
-23.7768
-24.2426
-24.711
-25.1606
-25.5715
-25.9286
-26.2236
-26.4542
-26.6222
-26.7313
-26.7849
-27.254
-27.194
-27.0791
-26.9185
-26.7233
-26.5048
-26.2727
-26.0342
-25.7937
-25.5536
-25.3144
-25.0763
-24.8398
-24.6056
-24.3756
-24.1516
-23.9357
-23.7293
-23.5328
-23.3459
-23.1676
-22.9963
-22.8307
-22.6701
-22.5141
-22.363
-22.2173
-22.0774
-21.9433
-21.8148
-21.6919
-21.5747
-21.4639
-21.3606
-21.2663
-21.1827
-21.1113
-21.0537
-21.011
-20.9848
-20.9763
-20.9872
-21.0197
-21.0762
-21.1595
-21.2729
-21.4202
-21.6058
-21.8346
-22.1116
-22.4414
-22.8261
-23.2637
-23.7458
-24.2566
-24.7732
-25.2689
-25.7185
-26.104
-26.4171
-26.6573
-26.8293
-26.9393
-26.9928
-27.4246
-27.3556
-27.2243
-27.0424
-26.824
-26.5833
-26.3317
-26.0772
-25.8243
-25.5745
-25.3275
-25.0824
-24.8391
-24.5982
-24.3617
-24.132
-23.9116
-23.7022
-23.5044
-23.3175
-23.1399
-22.9695
-22.8044
-22.6436
-22.4869
-22.3347
-22.1876
-22.0464
-21.9109
-21.7807
-21.6554
-21.535
-21.42
-21.3118
-21.2121
-21.1227
-21.0455
-20.9819
-20.9332
-20.9006
-20.8854
-20.8892
-20.9142
-20.9629
-21.0385
-21.1446
-21.2853
-21.4658
-21.6923
-21.9717
-22.3107
-22.7141
-23.1818
-23.7057
-24.2679
-24.8405
-25.3894
-25.8826
-26.2986
-26.6291
-26.8768
-27.0502
-27.1591
-27.2114
-27.6111
-27.5313
-27.3802
-27.1731
-26.928
-26.6621
-26.3891
-26.1178
-25.8525
-25.5936
-25.3394
-25.0877
-24.8376
-24.5897
-24.3461
-24.11
-23.8848
-23.6724
-23.4736
-23.2872
-23.111
-22.942
-22.7778
-22.617
-22.4594
-22.3058
-22.1573
-22.0148
-21.8782
-21.7465
-21.6189
-21.4951
-21.3757
-21.2622
-21.1567
-21.0613
-20.978
-20.9083
-20.8534
-20.8143
-20.792
-20.7883
-20.8052
-20.8455
-20.9126
-21.0101
-21.1427
-21.3164
-21.5384
-21.8177
-22.164
-22.5853
-23.0845
-23.6544
-24.2752
-24.9128
-25.5234
-26.0657
-26.5134
-26.8597
-27.1117
-27.2832
-27.3885
-27.4382
-27.8141
-27.7212
-27.5467
-27.3099
-27.0338
-26.7397
-26.4435
-26.1548
-25.8775
-25.6105
-25.35
-25.0922
-24.8355
-24.5802
-24.3288
-24.0858
-23.8552
-23.6398
-23.4402
-23.2551
-23.0811
-22.9143
-22.7513
-22.5905
-22.4319
-22.2766
-22.1265
-21.9829
-21.8454
-21.7125
-21.5827
-21.4556
-21.3315
-21.2123
-21.1005
-20.9988
-20.9092
-20.8334
-20.7722
-20.7265
-20.6971
-20.6853
-20.6937
-20.725
-20.7826
-20.8706
-20.9937
-21.1585
-21.3735
-21.6498
-22.0005
-22.4382
-22.9696
-23.5898
-24.2771
-24.9903
-25.6727
-26.2698
-26.7502
-27.1093
-27.3612
-27.5266
-27.625
-27.6706
-28.0344
-27.9258
-27.7235
-27.4517
-27.14
-26.8146
-26.4935
-26.187
-25.8985
-25.6248
-25.3593
-25.0963
-24.833
-24.57
-24.31
-24.059
-23.8227
-23.6042
-23.4043
-23.2212
-23.0506
-22.8867
-22.7253
-22.5646
-22.4046
-22.2472
-22.0952
-21.9505
-21.8127
-21.6791
-21.5474
-21.4168
-21.2879
-21.1626
-21.044
-20.9355
-20.8396
-20.7575
-20.6902
-20.6379
-20.6012
-20.5813
-20.5805
-20.6022
-20.6498
-20.7273
-20.8395
-20.9934
-21.1985
-21.4682
-21.8197
-22.2711
-22.8348
-23.509
-24.2715
-25.0731
-25.8394
-26.4979
-27.0107
-27.3783
-27.6243
-27.7783
-27.8662
-27.9057
-28.273
-28.1458
-27.9104
-27.5978
-27.2452
-26.8851
-26.5375
-26.2131
-25.9148
-25.6363
-25.3677
-25.1002
-24.8306
-24.5594
-24.2897
-24.0296
-23.7869
-23.5653
-23.3656
-23.1857
-23.0196
-22.8597
-22.7003
-22.5395
-22.3779
-22.2177
-22.0633
-21.9179
-21.7803
-21.6467
-21.5134
-21.3794
-21.2453
-21.1132
-20.9873
-20.8719
-20.7694
-20.6811
-20.6078
-20.5492
-20.5052
-20.4768
-20.4666
-20.4781
-20.5151
-20.5812
-20.6812
-20.8222
-21.0145
-21.2734
-21.621
-22.0824
-22.6774
-23.4091
-24.2562
-25.1613
-26.0266
-26.7536
-27.2973
-27.667
-27.8996
-28.0361
-28.1093
-28.1407
-28.5312
-28.3816
-28.1074
-27.7469
-27.3476
-26.9496
-26.5741
-26.232
-25.9257
-25.645
-25.3754
-25.1044
-24.8287
-24.5489
-24.2681
-23.9973
-23.7478
-23.5229
-23.3238
-23.1484
-22.9884
-22.8338
-22.6767
-22.5157
-22.352
-22.1881
-22.0307
-21.8848
-21.7484
-21.6156
-21.481
-21.3436
-21.2041
-21.0646
-20.9306
-20.8079
-20.6989
-20.6046
-20.5256
-20.4609
-20.4097
-20.3725
-20.3524
-20.3534
-20.3794
-20.4335
-20.52
-20.6464
-20.8228
-21.0661
-21.404
-21.8704
-22.4947
-23.2865
-24.228
-25.2552
-26.238
-27.0413
-27.6124
-27.9753
-28.1857
-28.2977
-28.3518
-28.373
-28.8104
-28.6339
-28.3145
-27.8979
-27.4453
-27.0066
-26.6019
-26.2424
-25.9306
-25.651
-25.383
-25.1095
-24.8278
-24.539
-24.2452
-23.962
-23.705
-23.4769
-23.2788
-23.1095
-22.9575
-22.8095
-22.655
-22.4936
-22.3273
-22.1584
-21.997
-21.8512
-21.7171
-21.5862
-21.4507
-21.3098
-21.1647
-21.0168
-20.8739
-20.7438
-20.6282
-20.5281
-20.4439
-20.3736
-20.3153
-20.2691
-20.2387
-20.2288
-20.2435
-20.2853
-20.3573
-20.4674
-20.6251
-20.8474
-21.1689
-21.6337
-22.2838
-23.1369
-24.1826
-25.3545
-26.4789
-27.3665
-27.9586
-28.3032
-28.4805
-28.5604
-28.5908
-28.5997
-29.1122
-28.9035
-28.5316
-28.0495
-27.536
-27.0543
-26.6197
-26.243
-25.929
-25.6544
-25.3913
-25.1159
-24.8283
-24.5306
-24.2213
-23.9229
-23.6584
-23.427
-23.2302
-23.0688
-22.9271
-22.7875
-22.6356
-22.4734
-22.3041
-22.1286
-21.9618
-21.8166
-21.6865
-21.559
-21.4227
-21.2782
-21.1275
-20.9702
-20.8172
-20.6797
-20.5577
-20.4518
-20.363
-20.2877
-20.2226
-20.1672
-20.1258
-20.1047
-20.1083
-20.1375
-20.1941
-20.2868
-20.4231
-20.6186
-20.9157
-21.3707
-22.0422
-22.9561
-24.1144
-25.4588
-26.7559
-27.7355
-28.3384
-28.6497
-28.7817
-28.8214
-28.8237
-28.8184
-29.4385
-29.1907
-28.7592
-28.2002
-27.617
-27.0915
-26.6262
-26.2323
-25.9203
-25.6555
-25.4014
-25.1243
-24.8305
-24.5246
-24.1964
-23.8795
-23.6079
-23.3729
-23.1772
-23.0263
-22.8977
-22.7687
-22.619
-22.4553
-22.2831
-22.0985
-21.9242
-21.7809
-21.6568
-21.5346
-21.3974
-21.2492
-21.0932
-20.9248
-20.7602
-20.6156
-20.4872
-20.3757
-20.2833
-20.2036
-20.1322
-20.0671
-20.0142
-19.9816
-19.9743
-19.9912
-20.0316
-20.1062
-20.2192
-20.3815
-20.6451
-21.0801
-21.7675
-22.739
-24.0158
-25.5671
-27.0778
-28.1562
-28.7543
-29.0135
-29.0864
-29.0779
-29.0478
-29.0266
-29.7913
-29.4957
-28.9978
-28.3483
-27.6851
-27.1171
-26.6206
-26.2085
-25.9042
-25.6549
-25.4149
-25.1351
-24.8347
-24.5225
-24.1707
-23.8306
-23.5535
-23.3148
-23.1192
-22.982
-22.8696
-22.754
-22.6054
-22.4393
-22.2651
-22.068
-21.8832
-21.7436
-21.6281
-21.5137
-21.3751
-21.2228
-21.0624
-20.8807
-20.7024
-20.5516
-20.4171
-20.2998
-20.2049
-20.1219
-20.0448
-19.9694
-19.9042
-19.8596
-19.8421
-19.8474
-19.8705
-19.9272
-20.0161
-20.138
-20.3581
-20.7607
-21.4579
-22.4813
-23.8764
-25.6775
-27.4568
-28.6376
-29.2079
-29.3923
-29.3914
-29.3267
-29.2608
-29.2223
-30.1732
-29.8179
-29.2488
-28.4921
-27.7359
-27.1308
-26.6026
-26.1696
-25.8805
-25.6529
-25.4337
-25.1484
-24.8405
-24.5263
-24.1444
-23.7744
-23.4957
-23.2527
-23.055
-22.9358
-22.8432
-22.745
-22.5949
-22.4254
-22.2512
-22.0369
-21.8371
-21.7043
-21.6004
-21.4974
-21.3557
-21.1987
-21.0361
-20.8381
-20.643
-20.4878
-20.3475
-20.2238
-20.1281
-20.0429
-19.9609
-19.8743
-19.7958
-19.739
-19.7123
-19.7071
-19.7113
-19.751
-19.8168
-19.8902
-20.0559
-20.4107
-21.1126
-22.1787
-23.6822
-25.7864
-27.909
-29.1899
-29.6998
-29.7825
-29.6927
-29.565
-29.4603
-29.4036
-30.5875
-30.1556
-29.5147
-28.6295
-27.7639
-27.1333
-26.5722
-26.1126
-25.8494
-25.6497
-25.4607
-25.1643
-24.847
-24.5393
-24.1176
-23.708
-23.4355
-23.187
-22.9828
-22.888
-22.8188
-22.7434
-22.5877
-22.4127
-22.2434
-22.0053
-21.7839
-21.6628
-21.5738
-21.487
-21.3394
-21.1764
-21.0158
-20.797
-20.5807
-20.4249
-20.2786
-20.1472
-20.0532
-19.9669
-19.8812
-19.7824
-19.6892
-19.6194
-19.5852
-19.5717
-19.5542
-19.579
-19.625
-19.6405
-19.7409
-20.0282
-20.7321
-21.8291
-23.414
-25.8883
-28.4571
-29.8243
-30.2293
-30.1796
-29.9862
-29.7897
-29.6445
-29.5693
-31.038
-30.505
-29.7996
-28.7585
-27.7611
-27.1269
-26.5303
-26.0335
-25.8116
-25.6454
-25.5001
-25.1822
-24.852
-24.566
-24.0904
-23.6274
-23.3747
-23.1186
-22.9
-22.839
-22.7962
-22.752
-22.5832
-22.3999
-22.2446
-21.9729
-21.7204
-21.619
-21.548
-21.4848
-21.3257
-21.1549
-21.0036
-20.7573
-20.5135
-20.3634
-20.2108
-20.0694
-19.9806
-19.8941
-19.8067
-19.6937
-19.5844
-19.5005
-19.461
-19.4426
-19.3987
-19.4117
-19.4453
-19.391
-19.4159
-19.61
-20.3185
-21.4331
-23.0461
-25.9739
-29.1321
-30.552
-30.7931
-30.5777
-30.2674
-29.9982
-29.8119
-29.7182
-31.5302
-30.8593
-30.1107
-28.8769
-27.7168
-27.1162
-26.4787
-25.9262
-25.7689
-25.6389
-25.5574
-25.2008
-24.8517
-24.6132
-24.063
-23.5262
-23.317
-23.0487
-22.8028
-22.79
-22.7747
-22.7744
-22.5806
-22.3844
-22.2591
-21.9396
-21.6424
-21.5735
-21.5225
-21.4935
-21.3139
-21.132
-21.0029
-20.7191
-20.4385
-20.3049
-20.1447
-19.9889
-19.9109
-19.8246
-19.7383
-19.6084
-19.4811
-19.3817
-19.3399
-19.3221
-19.2434
-19.2494
-19.2835
-19.1432
-19.0855
-19.1508
-19.8761
-20.9966
-22.5433
-26.0296
-29.977
-31.3838
-31.3851
-30.9694
-30.5317
-30.188
-29.9612
-29.8498
-32.0715
-31.2066
-30.459
-28.9824
-27.6158
-27.1096
-26.4203
-25.7821
-25.7251
-25.6276
-25.641
-25.2179
-24.84
-24.691
-24.0353
-23.3951
-23.2678
-22.9795
-22.6853
-22.7434
-22.7527
-22.8162
-22.5783
-22.3623
-22.2932
-21.9055
-21.5438
-21.528
-21.4958
-21.5177
-21.3029
-21.1047
-21.0183
-20.6822
-20.3514
-20.2516
-20.081
-19.9037
-19.8451
-19.7581
-19.6775
-19.5266
-19.3795
-19.2621
-19.2214
-19.2132
-19.0861
-19.0913
-19.147
-18.8975
-18.7563
-18.6422
-19.4111
-20.5339
-21.859
-26.0348
-31.0517
-32.3275
-31.9955
-31.3466
-30.7746
-30.3573
-30.0919
-29.9639
-32.6723
-31.5279
-30.8621
-29.0726
-27.4367
-27.1207
-26.3594
-25.5885
-25.6869
-25.6063
-25.7629
-25.2299
-24.807
-24.8138
-24.0073
-23.2206
-23.2361
-22.9138
-22.5392
-22.7033
-22.7265
-22.8849
-22.5742
-22.3271
-22.3564
-21.8703
-21.4163
-21.486
-21.4651
-21.5634
-21.2908
-21.0679
-21.0571
-20.6463
-20.246
-20.2074
-20.0207
-19.8109
-19.7848
-19.6939
-19.6261
-19.448
-19.2794
-19.1403
-19.105
-19.1204
-18.9229
-18.9353
-19.0456
-18.6522
-18.4387
-18.071
-18.932
-20.0711
-20.931
-25.9593
-32.4383
-33.3851
-32.6101
-31.7001
-30.9921
-30.5046
-30.2037
-30.0606
-33.3475
-31.7937
-31.3459
-29.1455
-27.1498
-27.17
-26.3018
-25.3272
-25.6659
-25.5652
-25.9398
-25.2317
-24.7379
-25.0026
-23.9788
-22.9834
-23.2352
-22.8554
-22.3522
-22.6772
-22.6896
-22.9918
-22.5646
-22.2692
-22.462
-21.8338
-21.2484
-21.4536
-21.4254
-21.6397
-21.2748
-21.0142
-21.1291
-20.6112
-20.1134
-20.178
-19.965
-19.706
-19.7329
-19.6306
-19.5867
-19.372
-19.181
-19.0148
-18.9893
-19.0502
-18.7485
-18.7775
-18.9928
-18.4018
-18.1481
-17.4168
-18.4491
-19.652
-19.6778
-25.7602
-34.2496
-34.5487
-33.2103
-32.0205
-31.1806
-30.6289
-30.2966
-30.1405
-34.1181
-31.9598
-31.9491
-29.1987
-26.7137
-27.2881
-26.2552
-24.972
-25.6807
-25.488
-26.1957
-25.2164
-24.6111
-25.2863
-23.9493
-22.6565
-23.2848
-22.8095
-22.107
-22.6771
-22.6312
-23.1525
-22.545
-22.1749
-22.6286
-21.7955
-21.0244
-21.4411
-21.368
-21.7589
-21.2512
-20.9329
-21.2487
-20.5759
-19.9416
-20.1721
-19.9155
-19.5827
-19.6935
-19.5653
-19.5626
-19.2974
-19.0849
-18.8833
-18.8717
-19.0121
-18.5552
-18.6117
-19.0069
-18.1355
-17.9082
-16.6497
-17.9733
-19.3444
-17.9933
-25.3772
-36.6388
-35.7944
-33.7729
-32.2989
-31.3377
-30.7301
-30.3713
-30.2042
-35.0134
-31.9619
-32.7266
-29.23
-26.0724
-27.5184
-26.2288
-24.4862
-25.7606
-25.3485
-26.564
-25.1744
-24.3962
-25.7051
-23.9178
-22.2032
-23.4129
-22.7821
-21.7792
-22.7218
-22.534
-23.3888
-22.5088
-22.0244
-22.8824
-21.7542
-20.723
-21.4648
-21.2791
-21.9388
-21.2148
-20.8086
-21.4355
-20.5394
-19.7138
-20.202
-19.8736
-19.4324
-19.6732
-19.4938
-19.5588
-19.2222
-18.9922
-18.7437
-18.7482
-19.0195
-18.3327
-18.4285
-19.1131
-17.8338
-17.7539
-15.7267
-17.5145
-19.2485
-15.7411
-24.7268
-39.8117
-37.0738
-34.271
-32.5274
-31.4619
-30.8085
-30.4285
-30.2529
-36.0746
-31.7087
-33.7558
-29.2371
-25.1503
-27.9218
-26.2339
-23.8193
-25.9496
-25.1063
-27.0908
-25.0933
-24.0509
-26.3131
-23.8828
-21.5735
-23.6585
-22.7808
-21.3352
-22.8401
-22.3713
-23.731
-22.4477
-21.7906
-23.2581
-21.7082
-20.3158
-21.5493
-21.1375
-22.2035
-21.1586
-20.6205
-21.7162
-20.4997
-19.4078
-20.2853
-19.8412
-19.2429
-19.682
-19.409
-19.5821
-19.1432
-18.9047
-18.5931
-18.6122
-19.0906
-18.0675
-18.2139
-19.3463
-17.4652
-17.7364
-14.5881
-17.0793
-19.5069
-12.7486
-23.6962
-44.0418
-38.304
-34.6766
-32.7003
-31.5528
-30.8651
-30.4694
-30.2875
-37.3573
-31.074
-35.1424
-29.2174
-23.8478
-28.5806
-26.2832
-22.9029
-26.3122
-24.7017
-27.8387
-24.9571
-23.5182
-27.1823
-23.8419
-20.7018
-24.0749
-22.8143
-20.7296
-23.0739
-22.1038
-24.2203
-22.3509
-21.4368
-23.8024
-21.6546
-19.7652
-21.7305
-20.9116
-22.5859
-21.0737
-20.3406
-22.1264
-20.4541
-18.9944
-20.4458
-19.8196
-18.998
-19.7339
-19.3008
-19.6419
-19.0554
-18.8254
-18.4287
-18.454
-19.2507
-17.7421
-17.9483
-19.7541
-16.9811
-17.9287
-13.1533
-16.6672
-20.3157
-8.79959
-22.1345
-49.6875
-39.3538
-34.9631
-32.8145
-31.6114
-30.901
-30.4953
-30.3094
-38.9366
-29.8874
-37.0287
-29.1674
-22.0356
-29.6047
-26.3914
-21.6461
-26.9402
-24.0495
-28.8919
-24.7462
-22.7227
-28.4064
-23.7918
-19.5034
-24.7333
-22.8934
-19.9035
-23.4843
-21.6769
-24.9132
-22.2048
-20.9137
-24.5751
-21.5895
-19.0251
-22.0624
-20.5586
-23.1328
-20.9495
-19.9313
-22.7123
-20.399
-18.4369
-20.7168
-19.8106
-18.6765
-19.8491
-19.154
-19.7512
-18.952
-18.7597
-18.2485
-18.26
-19.5331
-17.3348
-17.6049
-20.4012
-16.3106
-18.4333
-11.3165
-16.2662
-21.9386
-3.6277
-19.8438
-57.2127
-40.0273
-35.1108
-32.8703
-31.6395
-30.9182
-30.5076
-30.3197
)
;

boundaryField
{
    left
    {
        type            calculated;
        value           nonuniform List<scalar> 
32
(
-26.4236
-26.446
-26.4887
-26.5499
-26.6283
-26.723
-26.8331
-26.9584
-27.0986
-27.254
-27.4246
-27.6111
-27.8141
-28.0344
-28.273
-28.5312
-28.8104
-29.1122
-29.4385
-29.7913
-30.1732
-30.5875
-31.038
-31.5302
-32.0715
-32.6723
-33.3475
-34.1181
-35.0134
-36.0746
-37.3573
-38.9366
)
;
    }
    right
    {
        type            calculated;
        value           nonuniform List<scalar> 
32
(
-25.7943
-25.8289
-25.8949
-25.9889
-26.1078
-26.2493
-26.4108
-26.5901
-26.7849
-26.9928
-27.2114
-27.4382
-27.6706
-27.9057
-28.1407
-28.373
-28.5997
-28.8184
-29.0266
-29.2223
-29.4036
-29.5693
-29.7182
-29.8498
-29.9639
-30.0606
-30.1405
-30.2042
-30.2529
-30.2875
-30.3094
-30.3197
)
;
    }
    interface
    {
        type            calculated;
        value           nonuniform List<scalar> 
64
(
-39.8111
-29.1316
-38.1172
-29.1343
-20.9839
-30.2238
-26.4622
-20.9198
-27.334
-23.6491
-29.5069
-24.6193
-22.2486
-29.1203
-23.7641
-18.8107
-25.1333
-22.9458
-19.4271
-23.7427
-21.4157
-25.3189
-22.1177
-20.6026
-25.0268
-21.5535
-18.6015
-22.2741
-20.3443
-23.4544
-20.8763
-19.6891
-23.0557
-20.3687
-18.1171
-20.8848
-19.8096
-18.4936
-19.9254
-19.0688
-19.8201
-18.8955
-18.7311
-18.1544
-18.1521
-19.7096
-17.1076
-17.41
-20.7939
-15.9182
-18.7786
-10.2826
-16.0661
-22.9911
-0.699394
-18.4883
-61.5105
-40.241
-35.1481
-32.8838
-31.6463
-30.9223
-30.5105
-30.3221
)
;
    }
    bottom
    {
        type            calculated;
        value           nonuniform List<scalar> 
64
(
-26.4179
-26.3904
-26.3364
-26.2572
-26.1549
-26.0321
-25.8914
-25.7357
-25.5677
-25.39
-25.2049
-25.0147
-24.8212
-24.6262
-24.4311
-24.2373
-24.0459
-23.8578
-23.6737
-23.4943
-23.32
-23.1511
-22.988
-22.8308
-22.6798
-22.5353
-22.3974
-22.2667
-22.1434
-22.0281
-21.9212
-21.8235
-21.7356
-21.6585
-21.593
-21.5402
-21.5011
-21.477
-21.469
-21.4784
-21.5065
-21.5545
-21.6236
-21.7149
-21.8295
-21.968
-22.1308
-22.3178
-22.5283
-22.7608
-23.0131
-23.2818
-23.5627
-23.8506
-24.1394
-24.4226
-24.6936
-24.9458
-25.1732
-25.3704
-25.5332
-25.6581
-25.7426
-25.7853
)
;
    }
    defaultFaces
    {
        type            empty;
    }
}


// ************************************************************************* //
