/*--------------------------------*- C++ -*----------------------------------*\
| =========                 |                                                 |
| \\      /  F ield         | OpenFOAM: The Open Source CFD Toolbox           |
|  \\    /   O peration     | Version:  5.x                                   |
|   \\  /    A nd           | Web:      www.OpenFOAM.org                      |
|    \\/     M anipulation  |                                                 |
\*---------------------------------------------------------------------------*/
FoamFile
{
    version     2.0;
    format      ascii;
    class       volScalarField;
    location    "4.5";
    object      gradTy;
}
// * * * * * * * * * * * * * * * * * * * * * * * * * * * * * * * * * * * * * //

dimensions      [0 -1 0 1 0 0 0];

internalField   nonuniform List<scalar> 
3200
(
18.2508
8.63656
11.7309
8.31323
9.75068
8.04076
8.79488
7.79383
8.24262
7.60201
7.87731
7.51859
7.72896
7.31881
7.53097
7.14085
7.33995
6.9815
7.16322
6.83937
7.00267
6.71374
6.85882
6.60367
6.73169
6.50749
6.62178
6.42207
6.5371
6.36789
6.23264
6.31986
6.20126
6.25897
6.1667
6.21141
6.1373
6.17328
6.11301
6.14229
6.0931
6.11697
6.07687
6.09625
6.06382
6.07934
6.05363
6.0656
6.04636
6.0546
6.04344
6.04963
6.03797
6.0434
6.03438
6.03804
6.03306
6.03413
6.03474
6.03209
6.0408
6.03248
6.0538
6.03599
6.07875
6.04291
6.1266
6.04849
6.22317
6.00094
6.29309
7.1081
6.42139
7.94619
6.77995
9.89353
9.12343
9.00566
8.98134
8.97611
17.011
9.75256
11.3332
8.77719
9.54786
8.27088
8.67461
7.92629
8.16543
7.68613
7.83312
7.56536
7.67747
7.37021
7.48228
7.19005
7.29532
7.02683
7.12294
6.88038
6.96677
6.75037
6.82713
6.63604
6.70381
6.53593
6.59659
6.44724
6.5096
6.37165
6.25751
6.30544
6.21687
6.24764
6.17857
6.20228
6.14679
6.16585
6.12072
6.13622
6.09939
6.11203
6.082
6.09226
6.06797
6.07618
6.05693
6.06326
6.04885
6.05323
6.04489
6.04818
6.03944
6.0423
6.03555
6.03747
6.03373
6.03429
6.03473
6.03331
6.03981
6.03536
6.05129
6.04176
6.07369
6.05441
6.11679
6.07403
6.20338
6.07627
6.35151
6.9929
6.62306
7.76368
7.15711
9.50048
9.09731
9.00189
8.98055
8.97587
16.0616
10.515
11.101
9.10809
9.42696
8.43378
8.60044
8.01925
8.11698
7.7452
7.80553
7.59694
7.64277
7.40484
7.44978
7.22335
7.26563
7.05757
7.09621
6.90824
6.94298
6.77527
6.80616
6.65806
6.68536
6.55522
6.57981
6.46393
6.4901
6.37446
6.2759
6.29648
6.2277
6.24028
6.18673
6.19632
6.1533
6.16098
6.126
6.13225
6.10369
6.10879
6.08551
6.08965
6.07082
6.07413
6.05921
6.06175
6.05059
6.05237
6.04588
6.04722
6.04045
6.04159
6.03636
6.03713
6.03424
6.03444
6.0348
6.03421
6.03926
6.03743
6.04981
6.04587
6.07069
6.06264
6.11119
6.0927
6.19385
6.13552
6.3953
6.91815
6.76433
7.65106
7.41629
9.21732
9.0589
8.99518
8.97912
8.97547
15.334
11.0321
10.9719
9.34653
9.35854
8.55029
8.55619
8.08506
8.08731
7.78699
7.78869
7.61835
7.61941
7.42816
7.42813
7.24589
7.24596
7.07845
7.07855
6.92718
6.92729
6.79223
6.79235
6.67306
6.67319
6.56833
6.56864
6.47494
6.47628
6.37657
6.28952
6.2911
6.23527
6.23558
6.19236
6.19245
6.15777
6.15782
6.12963
6.12967
6.10666
6.10668
6.08793
6.08795
6.07278
6.0728
6.06078
6.06079
6.05181
6.05184
6.04655
6.04658
6.04115
6.04114
6.03694
6.03693
6.03461
6.0346
6.03491
6.03488
6.03899
6.03893
6.04897
6.04884
6.06901
6.06861
6.10827
6.10658
6.1907
6.18204
6.42856
6.87047
6.86396
7.58331
7.59403
9.01253
9.0167
8.98657
8.97719
8.97492
14.7784
11.3796
10.9054
9.51947
9.32294
8.63424
8.53101
8.13193
8.06975
7.81669
7.77874
7.6329
7.60375
7.44383
7.41377
7.26115
7.233
7.09262
7.06695
6.94007
6.91701
6.80378
6.78331
6.68328
6.66523
6.57722
6.56123
6.48215
6.4665
6.37819
6.2996
6.28801
6.2406
6.23261
6.19626
6.18998
6.16086
6.15579
6.13213
6.12801
6.1087
6.10533
6.0896
6.08687
6.07414
6.07195
6.06188
6.06019
6.05267
6.05152
6.04702
6.04615
6.04163
6.04085
6.03735
6.03682
6.0349
6.03474
6.03503
6.03538
6.03888
6.04002
6.04855
6.05099
6.06814
6.07297
6.107
6.11703
6.19126
6.21835
6.45401
6.84073
6.93457
7.5439
7.71547
8.86432
8.97588
8.97713
8.97497
8.97429
14.3589
11.6101
10.8754
9.64484
9.30702
8.69477
8.51767
8.16533
8.05981
7.8378
7.7731
7.64279
7.59332
7.4543
7.40431
7.27143
7.22452
7.1022
7.05939
6.9488
6.91033
6.81163
6.77745
6.69023
6.66007
6.58324
6.55634
6.48682
6.45963
6.37941
6.307
6.28635
6.24435
6.23078
6.19895
6.18842
6.16298
6.15451
6.13385
6.12695
6.1101
6.10448
6.09074
6.08618
6.07508
6.07142
6.06264
6.05982
6.05327
6.05133
6.04733
6.04588
6.04196
6.04068
6.03764
6.03677
6.03512
6.03486
6.03514
6.03576
6.03887
6.04082
6.04837
6.05255
6.06777
6.07617
6.10669
6.12491
6.19371
6.24632
6.47342
6.82271
6.98455
7.522
7.79781
8.7576
8.93947
8.96783
8.9727
8.97363
14.0493
11.7601
10.8652
9.73449
9.30207
8.73789
8.51134
8.18885
8.05454
7.85261
7.77008
7.64944
7.58647
7.46121
7.39816
7.27827
7.21906
7.1086
7.05454
6.95465
6.90606
6.81689
6.77372
6.69489
6.65678
6.58726
6.55316
6.48979
6.45487
6.38032
6.31232
6.28555
6.24696
6.22968
6.20079
6.18746
6.16443
6.15371
6.13501
6.1263
6.11105
6.10394
6.09152
6.08575
6.07571
6.07109
6.06316
6.0596
6.05369
6.05123
6.04755
6.0457
6.04218
6.04057
6.03784
6.03676
6.03528
6.03496
6.03525
6.03604
6.0389
6.0414
6.04832
6.05367
6.06767
6.07849
6.10688
6.13077
6.1968
6.26731
6.48794
6.81218
7.01952
7.51057
7.85279
8.682
8.9092
8.95947
8.97059
8.973
13.8312
11.8542
10.8645
9.79622
9.3024
8.76751
8.50884
8.20485
8.05198
7.86264
7.76859
7.65378
7.58212
7.46564
7.39429
7.28268
7.21565
7.11275
7.05153
6.95845
6.90342
6.82031
6.77141
6.69792
6.65474
6.58986
6.55115
6.49163
6.4517
6.38097
6.316
6.28522
6.24872
6.22905
6.20201
6.18689
6.16538
6.15323
6.13578
6.1259
6.11168
6.10362
6.09204
6.0855
6.07613
6.0709
6.0635
6.05947
6.05397
6.05118
6.04769
6.04559
6.04233
6.04051
6.03798
6.03675
6.03539
6.03504
6.03533
6.03624
6.03895
6.0418
6.04833
6.05444
6.06771
6.0801
6.10724
6.13494
6.19972
6.28229
6.49831
6.80633
7.04313
7.50509
7.8883
8.63048
8.886
8.95267
8.96882
8.97247
13.6923
11.9089
10.8669
9.83497
9.30437
8.78608
8.50816
8.21481
8.05087
7.86886
7.76793
7.6564
7.57955
7.46826
7.39204
7.28531
7.21367
7.11523
7.04979
6.96072
6.9019
6.82236
6.77008
6.69974
6.65357
6.59142
6.54998
6.49268
6.44977
6.38138
6.31831
6.28512
6.24981
6.22871
6.20275
6.18657
6.16596
6.15296
6.13625
6.12568
6.11206
6.10344
6.09235
6.08536
6.07639
6.0708
6.06371
6.05941
6.05414
6.05115
6.04777
6.04553
6.04241
6.04047
6.03806
6.03676
6.03546
6.0351
6.03538
6.03637
6.03899
6.04205
6.04836
6.05493
6.06777
6.08112
6.10758
6.13763
6.20192
6.29193
6.50501
6.80333
7.05774
7.50276
7.90945
8.59842
8.87036
8.9479
8.96756
8.97209
13.6246
11.9339
10.8689
9.85366
9.30585
8.79503
8.5081
8.21958
8.05049
7.87184
7.76769
7.65763
7.57837
7.46947
7.391
7.28654
7.21277
7.11639
7.049
6.96179
6.90121
6.82332
6.76948
6.70059
6.65303
6.59215
6.54944
6.49316
6.44885
6.38159
6.31942
6.2851
6.25033
6.22856
6.20311
6.18643
6.16623
6.15284
6.13647
6.12558
6.11224
6.10336
6.09249
6.08529
6.07651
6.07075
6.06381
6.05938
6.05423
6.05114
6.04781
6.0455
6.04246
6.04046
6.0381
6.03676
6.0355
6.03512
6.03541
6.03643
6.03901
6.04217
6.04839
6.05516
6.06782
6.08161
6.10778
6.13895
6.2031
6.29666
6.50829
6.80208
7.06472
7.50196
7.9193
8.58305
8.8625
8.94544
8.9669
8.97189
-13.7424
-11.9374
-10.7086
-9.36947
-8.55907
-7.66719
-7.10523
-6.45337
-6.03838
-5.55639
-5.26304
-4.93755
-4.70006
-4.37175
-4.13625
-3.82482
-3.6072
-3.32633
-3.13232
-2.88454
-2.71427
-2.4978
-2.34929
-2.16071
-2.031
-1.86547
-1.74923
-1.59569
-1.47366
-1.28666
-1.11161
-1.0134
-0.911517
-0.846493
-0.768787
-0.716946
-0.652832
-0.609569
-0.555562
-0.518999
-0.473233
-0.44224
-0.403452
-0.377247
-0.344564
-0.322654
-0.295619
-0.277906
-0.256731
-0.243667
-0.228944
-0.218104
-0.203013
-0.192144
-0.177717
-0.167614
-0.154547
-0.145515
-0.133975
-0.126062
-0.116038
-0.109247
-0.100785
-0.0952893
-0.0888912
-0.085659
-0.08379
-0.0873762
-0.101858
-0.136017
-0.226573
-0.37323
-0.528203
-0.815227
-1.1183
-1.62796
-1.84356
-1.90762
-1.92421
-1.92807
-13.8146
-11.9143
-10.713
-9.34833
-8.56233
-7.654
-7.10883
-6.4439
-6.04107
-5.54885
-5.26433
-4.93403
-4.7037
-4.36804
-4.13929
-3.82107
-3.60974
-3.32286
-3.13448
-2.88145
-2.71612
-2.49508
-2.3509
-2.15836
-2.03244
-1.8635
-1.75072
-1.59443
-1.47627
-1.28619
-1.10854
-1.01355
-0.910046
-0.847004
-0.767755
-0.71744
-0.652001
-0.610002
-0.554867
-0.51937
-0.472644
-0.442554
-0.402952
-0.377509
-0.344135
-0.322861
-0.295248
-0.278047
-0.256409
-0.243736
-0.22879
-0.218276
-0.202846
-0.192288
-0.177546
-0.167734
-0.154387
-0.145617
-0.133831
-0.126148
-0.115911
-0.109316
-0.100668
-0.0953267
-0.0887658
-0.0856056
-0.083573
-0.0869415
-0.101072
-0.133762
-0.22433
-0.372898
-0.522921
-0.814585
-1.11003
-1.63972
-1.84962
-1.90952
-1.92472
-1.92822
-13.9629
-11.8634
-10.724
-9.30404
-8.5705
-7.62628
-7.11723
-6.42395
-6.04733
-5.53301
-5.26746
-4.92652
-4.71155
-4.36007
-4.14592
-3.81305
-3.6153
-3.31545
-3.13923
-2.87485
-2.7202
-2.4893
-2.35444
-2.15335
-2.0356
-1.85929
-1.75396
-1.59165
-1.48175
-1.28522
-1.10217
-1.01405
-0.90696
-0.848166
-0.76557
-0.718542
-0.650235
-0.610963
-0.55339
-0.520193
-0.471393
-0.443251
-0.401887
-0.37809
-0.343225
-0.323324
-0.294463
-0.278367
-0.25573
-0.243897
-0.228461
-0.218647
-0.202486
-0.192601
-0.177179
-0.167998
-0.154046
-0.145841
-0.133525
-0.126337
-0.115639
-0.109467
-0.100419
-0.0954143
-0.0885057
-0.0855085
-0.0831411
-0.0860774
-0.0995448
-0.129194
-0.219767
-0.372508
-0.511975
-0.813792
-1.0924
-1.66428
-1.86168
-1.91321
-1.92569
-1.92851
-14.1951
-11.774
-10.7461
-9.23231
-8.58709
-7.58117
-7.133
-6.39135
-6.05911
-5.50723
-5.27361
-4.91398
-4.72488
-4.3466
-4.1573
-3.79963
-3.62496
-3.30311
-3.14751
-2.86387
-2.72735
-2.47968
-2.36065
-2.14502
-2.04111
-1.85225
-1.75949
-1.58678
-1.4907
-1.28372
-1.092
-1.0153
-0.901946
-0.850284
-0.761965
-0.720499
-0.647311
-0.612659
-0.55094
-0.521643
-0.469319
-0.44448
-0.400122
-0.379117
-0.341719
-0.324148
-0.29317
-0.278951
-0.254621
-0.244205
-0.22791
-0.219274
-0.201876
-0.193138
-0.176565
-0.168454
-0.153477
-0.146232
-0.133016
-0.126669
-0.115187
-0.109736
-0.100011
-0.0955794
-0.0880906
-0.0853875
-0.0824984
-0.0847934
-0.0973713
-0.122189
-0.212719
-0.37265
-0.494534
-0.813928
-1.06304
-1.70381
-1.87957
-1.91846
-1.92706
-1.92892
-14.5241
-11.6288
-10.7878
-9.12584
-8.61813
-7.51376
-7.16052
-6.34237
-6.07969
-5.46872
-5.28481
-4.89463
-4.74577
-4.32559
-4.17542
-3.7789
-3.6405
-3.28412
-3.16091
-2.847
-2.73894
-2.46492
-2.37072
-2.13221
-2.05003
-1.84136
-1.76822
-1.57885
-1.5041
-1.28161
-1.07724
-1.01803
-0.894468
-0.853872
-0.75649
-0.723727
-0.642849
-0.615441
-0.547196
-0.524017
-0.466148
-0.446493
-0.397426
-0.380802
-0.339422
-0.325511
-0.291209
-0.279942
-0.252958
-0.24475
-0.227054
-0.220253
-0.200923
-0.19399
-0.175614
-0.169187
-0.1526
-0.146863
-0.132233
-0.127208
-0.114496
-0.110177
-0.0993922
-0.0958683
-0.0874854
-0.0852753
-0.0816495
-0.0830992
-0.0947094
-0.112556
-0.202895
-0.374314
-0.469194
-0.816876
-1.01801
-1.76194
-1.90294
-1.92492
-1.92869
-1.9294
-14.969
-11.4016
-10.8622
-8.97322
-8.67303
-7.41631
-7.20665
-6.27118
-6.1142
-5.41313
-5.30426
-4.86563
-4.77753
-4.29378
-4.2034
-3.74786
-3.66478
-3.25581
-3.18195
-2.82191
-2.75718
-2.44297
-2.38656
-2.11316
-2.064
-1.82506
-1.7816
-1.56634
-1.52341
-1.27878
-1.05668
-1.02333
-0.883675
-0.859734
-0.748433
-0.728884
-0.636252
-0.61986
-0.541653
-0.527781
-0.461451
-0.449685
-0.393435
-0.383479
-0.336029
-0.327692
-0.288328
-0.281564
-0.250546
-0.245676
-0.225765
-0.221735
-0.199476
-0.195302
-0.174187
-0.170328
-0.151292
-0.147851
-0.131068
-0.128056
-0.113471
-0.110878
-0.0984846
-0.096353
-0.0866347
-0.085221
-0.080599
-0.0809998
-0.0917992
-0.100025
-0.18983
-0.379041
-0.433743
-0.825686
-0.951263
-1.8442
-1.93107
-1.9321
-1.93044
-1.92991
-15.5566
-11.0532
-10.9907
-8.75704
-8.76621
-7.27698
-7.28181
-6.16886
-6.17048
-5.33386
-5.33691
-4.82261
-4.82511
-4.24624
-4.246
-3.70191
-3.70209
-3.2141
-3.21445
-2.78502
-2.7854
-2.41072
-2.41109
-2.08515
-2.08558
-1.80095
-1.80186
-1.54694
-1.55079
-1.27505
-1.02857
-1.0329
-0.868257
-0.869095
-0.73671
-0.736968
-0.626608
-0.626755
-0.53354
-0.533647
-0.454575
-0.454659
-0.387595
-0.38766
-0.331073
-0.331116
-0.284146
-0.284158
-0.24709
-0.247207
-0.223843
-0.223949
-0.197307
-0.197294
-0.172071
-0.172078
-0.149361
-0.149375
-0.129354
-0.129368
-0.111967
-0.111973
-0.0971679
-0.0971426
-0.0854532
-0.0852964
-0.0793487
-0.0784858
-0.0889931
-0.084232
-0.172789
-0.389149
-0.384802
-0.845151
-0.853826
-1.95869
-1.96264
-1.9394
-1.93215
-1.9304
-16.3243
-10.5271
-11.206
-8.45115
-8.91932
-7.07789
-7.40169
-6.02196
-6.2603
-5.22101
-5.39026
-4.75893
-4.89596
-4.17556
-4.31035
-3.63421
-3.75893
-3.15287
-3.26414
-2.73094
-2.82862
-2.36347
-2.44868
-2.04409
-2.11856
-1.76542
-1.83235
-1.5172
-1.58935
-1.27016
-0.990426
-1.04922
-0.846223
-0.883788
-0.719684
-0.749479
-0.612547
-0.637387
-0.521697
-0.542683
-0.444535
-0.462322
-0.379072
-0.394108
-0.323855
-0.336423
-0.278088
-0.288238
-0.242149
-0.249679
-0.220984
-0.227235
-0.194075
-0.200295
-0.168949
-0.174738
-0.146522
-0.151702
-0.12684
-0.131379
-0.109769
-0.113661
-0.0952615
-0.0984002
-0.0838116
-0.0856047
-0.0778964
-0.075518
-0.0867988
-0.0647072
-0.150636
-0.408085
-0.317274
-0.882683
-0.712542
-2.11722
-1.99529
-1.94605
-1.93364
-1.93082
-17.324
-9.74206
-11.5587
-8.01635
-9.16483
-6.7922
-7.58971
-5.81035
-6.40123
-5.05983
-5.47564
-4.66452
-5.00112
-4.07067
-4.40715
-3.53447
-3.84502
-3.06294
-3.33961
-2.65162
-2.89437
-2.29421
-2.50587
-1.98387
-2.16864
-1.71309
-1.87813
-1.47197
-1.64358
-1.26369
-0.938749
-1.07602
-0.814571
-0.906551
-0.694906
-0.768663
-0.592018
-0.653643
-0.504389
-0.556487
-0.42986
-0.474029
-0.36662
-0.403971
-0.313327
-0.344569
-0.269292
-0.29457
-0.235066
-0.253602
-0.216729
-0.232099
-0.18927
-0.204802
-0.164342
-0.178761
-0.14235
-0.155232
-0.123152
-0.134437
-0.106552
-0.116243
-0.092495
-0.100368
-0.0815162
-0.0862944
-0.076232
-0.0720052
-0.0859405
-0.0408627
-0.121624
-0.440953
-0.223497
-0.949638
-0.508265
-2.33681
-2.02503
-1.95124
-1.93474
-1.93112
-18.6271
-8.58131
-12.126
-7.39418
-9.55143
-6.37996
-7.88106
-5.50418
-6.61969
-4.8286
-5.61034
-4.52445
-5.15719
-3.91535
-4.55255
-3.38763
-3.97503
-2.93089
-3.45389
-2.53529
-2.99405
-2.19267
-2.59261
-1.89556
-2.24454
-1.63612
-1.94695
-1.4038
-1.72004
-1.25519
-0.868732
-1.11892
-0.768921
-0.941599
-0.658843
-0.797994
-0.562082
-0.678458
-0.479143
-0.577556
-0.408462
-0.491907
-0.348479
-0.419056
-0.298019
-0.357071
-0.256563
-0.304382
-0.224945
-0.259826
-0.210465
-0.239372
-0.182208
-0.211625
-0.157614
-0.18489
-0.136274
-0.16063
-0.117794
-0.139126
-0.101893
-0.120223
-0.0885199
-0.103462
-0.078328
-0.0876302
-0.0743826
-0.0678143
-0.087486
-0.012028
-0.0831029
-0.495314
-0.0919983
-1.0633
-0.213198
-2.64201
-2.04524
-1.95412
-1.93532
-1.93127
18.6271
8.58131
12.126
7.39418
9.55143
6.37996
7.88107
5.50418
6.6197
4.8286
5.61034
4.52445
5.15719
3.91535
4.55255
3.38763
3.97503
2.93089
3.45389
2.53529
2.99405
2.19267
2.59261
1.89556
2.24454
1.63612
1.94695
1.4038
1.72004
1.25519
0.86873
1.11892
0.76892
0.941599
0.658841
0.797994
0.562081
0.678457
0.479142
0.577556
0.408461
0.491907
0.348478
0.419055
0.298018
0.35707
0.256562
0.304382
0.224945
0.259826
0.210465
0.239372
0.182207
0.211625
0.157613
0.18489
0.136274
0.160629
0.117793
0.139126
0.101892
0.120223
0.0885196
0.103462
0.0783277
0.0876301
0.0743825
0.067814
0.0874863
0.0120266
0.0831032
0.495325
0.0919994
1.06333
0.213204
2.64208
2.0453
1.95417
1.93537
1.93132
17.324
9.74207
11.5587
8.01636
9.16484
6.79221
7.58972
5.81036
6.40123
5.05984
5.47564
4.66453
5.00112
4.07068
4.40716
3.53448
3.84502
3.06295
3.33961
2.65163
2.89438
2.29421
2.50588
1.98387
2.16865
1.71309
1.87814
1.47197
1.64358
1.2637
0.938751
1.07602
0.814573
0.906554
0.694908
0.768665
0.59202
0.653645
0.504391
0.556489
0.429862
0.47403
0.366621
0.403973
0.313328
0.34457
0.269293
0.294571
0.235067
0.253603
0.21673
0.2321
0.189271
0.204803
0.164343
0.178762
0.142351
0.155233
0.123153
0.134438
0.106553
0.116244
0.092496
0.100369
0.0815171
0.0862954
0.076233
0.072006
0.0859417
0.0408627
0.121626
0.440964
0.223502
0.949663
0.508278
2.33687
2.02508
1.95129
1.93479
1.93117
16.3243
10.5271
11.206
8.45117
8.91933
7.0779
7.4017
6.02198
6.26031
5.22103
5.39027
4.75894
4.89597
4.17557
4.31036
3.63422
3.75894
3.15288
3.26414
2.73094
2.82863
2.36348
2.44869
2.04409
2.11856
1.76543
1.83236
1.51721
1.58936
1.27017
0.990431
1.04923
0.846228
0.883793
0.719689
0.749484
0.612551
0.637391
0.521701
0.542687
0.444538
0.462325
0.379075
0.394112
0.323859
0.336426
0.278091
0.288241
0.242152
0.249682
0.220986
0.227238
0.194078
0.200298
0.168951
0.174741
0.146525
0.151704
0.126843
0.131381
0.109771
0.113664
0.0952636
0.0984022
0.0838136
0.0856066
0.0778983
0.0755198
0.0868008
0.0647086
0.150639
0.408096
0.317281
0.882707
0.712561
2.11727
1.99534
1.94611
1.93369
1.93087
15.5566
11.0532
10.9907
8.75705
8.76622
7.27699
7.28182
6.16887
6.17049
5.33388
5.33692
4.82263
4.82513
4.24625
4.24601
3.70192
3.7021
3.21411
3.21446
2.78503
2.78541
2.41073
2.4111
2.08516
2.08558
1.80096
1.80186
1.54695
1.55079
1.27506
1.02857
1.0329
0.868263
0.869101
0.736715
0.736973
0.626613
0.62676
0.533545
0.533652
0.454579
0.454663
0.387599
0.387664
0.331077
0.33112
0.28415
0.284162
0.247094
0.24721
0.223846
0.223952
0.19731
0.197297
0.172074
0.172081
0.149364
0.149378
0.129357
0.129371
0.11197
0.111975
0.0971704
0.097145
0.0854555
0.0852986
0.079351
0.0784879
0.0889955
0.0842342
0.172793
0.389159
0.384812
0.845174
0.853849
1.95874
1.96269
1.93945
1.9322
1.93045
14.969
11.4016
10.8623
8.97323
8.67305
7.41632
7.20666
6.2712
6.11421
5.41314
5.30427
4.86564
4.77754
4.29379
4.20342
3.74787
3.66479
3.25582
3.18196
2.82193
2.75719
2.44298
2.38657
2.11317
2.06401
1.82507
1.78161
1.56635
1.52341
1.27879
1.05668
1.02334
0.883681
0.85974
0.748439
0.72889
0.636257
0.619865
0.541658
0.527786
0.461456
0.44969
0.393439
0.383484
0.336033
0.327696
0.288332
0.281568
0.25055
0.24568
0.225769
0.221739
0.199479
0.195305
0.17419
0.170331
0.151295
0.147854
0.131071
0.128059
0.113473
0.110881
0.0984872
0.0963556
0.0866371
0.0852234
0.0806013
0.0810022
0.0918018
0.100028
0.189835
0.379051
0.433754
0.825708
0.951288
1.84424
1.93112
1.93215
1.93049
1.92996
14.5242
11.6289
10.7878
9.12586
8.61814
7.51377
7.16054
6.34239
6.0797
5.46873
5.28482
4.89464
4.74578
4.3256
4.17543
3.77892
3.64052
3.28413
3.16092
2.84701
2.73895
2.46493
2.37073
2.13222
2.05003
1.84137
1.76823
1.57886
1.50411
1.28162
1.07725
1.01804
0.894474
0.853878
0.756496
0.723733
0.642855
0.615447
0.547202
0.524022
0.466153
0.446498
0.39743
0.380806
0.339426
0.325515
0.291212
0.279946
0.252962
0.244754
0.227058
0.220257
0.200927
0.193994
0.175617
0.16919
0.152604
0.146866
0.132236
0.127211
0.114499
0.11018
0.0993949
0.0958709
0.0874879
0.0852777
0.081652
0.0831017
0.0947122
0.112559
0.202901
0.374324
0.469207
0.816898
1.01803
1.76199
1.90299
1.92497
1.92874
1.92945
14.1951
11.774
10.7462
9.23233
8.58711
7.58119
7.13302
6.39136
6.05913
5.50724
5.27362
4.914
4.72489
4.34662
4.15731
3.79965
3.62497
3.30312
3.14752
2.86388
2.72736
2.47969
2.36066
2.14503
2.04112
1.85225
1.7595
1.58679
1.49071
1.28373
1.09201
1.01531
0.901953
0.85029
0.761971
0.720504
0.647317
0.612665
0.550945
0.521648
0.469324
0.444485
0.400127
0.379121
0.341723
0.324152
0.293174
0.278955
0.254625
0.244208
0.227914
0.219277
0.20188
0.193141
0.176568
0.168457
0.15348
0.146235
0.133019
0.126672
0.11519
0.109739
0.100014
0.095582
0.0880931
0.0853899
0.0825008
0.0847959
0.0973741
0.122192
0.212725
0.37266
0.494548
0.81395
1.06306
1.70386
1.87962
1.91851
1.92711
1.92897
13.9629
11.8634
10.724
9.30406
8.57051
7.6263
7.11724
6.42397
6.04735
5.53302
5.26747
4.92654
4.71156
4.36008
4.14593
3.81306
3.61531
3.31546
3.13924
2.87486
2.72021
2.48931
2.35445
2.15336
2.03561
1.8593
1.75397
1.59166
1.48176
1.28523
1.10218
1.01405
0.906966
0.848172
0.765576
0.718548
0.65024
0.610968
0.553394
0.520198
0.471398
0.443256
0.401891
0.378094
0.343229
0.323328
0.294467
0.278371
0.255733
0.243901
0.228465
0.218651
0.202489
0.192604
0.177182
0.168001
0.154049
0.145844
0.133528
0.12634
0.115641
0.10947
0.100422
0.0954168
0.0885082
0.0855109
0.0831435
0.0860799
0.0995476
0.129197
0.219773
0.372518
0.511989
0.813814
1.09243
1.66432
1.86173
1.91326
1.92574
1.92856
13.8147
11.9144
10.713
9.34834
8.56234
7.65401
7.10884
6.44391
6.04108
5.54887
5.26434
4.93404
4.70371
4.36806
4.1393
3.82108
3.60975
3.32287
3.13449
2.88146
2.71613
2.49509
2.35091
2.15837
2.03245
1.86351
1.75073
1.59444
1.47627
1.2862
1.10855
1.01356
0.910052
0.847009
0.767761
0.717445
0.652006
0.610007
0.554872
0.519375
0.472649
0.442558
0.402956
0.377513
0.344139
0.322865
0.295251
0.27805
0.256412
0.243739
0.228793
0.21828
0.202849
0.192291
0.177549
0.167737
0.15439
0.14562
0.133834
0.12615
0.115913
0.109318
0.10067
0.0953291
0.0887681
0.0856079
0.0835753
0.0869439
0.101075
0.133766
0.224336
0.372908
0.522936
0.814607
1.11006
1.63977
1.84967
1.90957
1.92477
1.92827
13.7424
11.9374
10.7086
9.36948
8.55908
7.6672
7.10524
6.45338
6.03839
5.5564
5.26305
4.93756
4.70007
4.37176
4.13626
3.82483
3.60721
3.32634
3.13233
2.88455
2.71427
2.4978
2.3493
2.16072
2.03101
1.86547
1.74923
1.59569
1.47367
1.28667
1.11162
1.01341
0.911523
0.846499
0.768792
0.716951
0.652837
0.609574
0.555567
0.519004
0.473237
0.442244
0.403456
0.377251
0.344567
0.322657
0.295622
0.277909
0.256734
0.243671
0.228947
0.218108
0.203016
0.192147
0.17772
0.167617
0.15455
0.145518
0.133977
0.126064
0.116041
0.10925
0.100787
0.0952915
0.0888934
0.0856611
0.0837922
0.0873785
0.101861
0.136021
0.226579
0.37324
0.528217
0.815249
1.11833
1.628
1.84361
1.90767
1.92426
1.92812
-13.6282
-11.9389
-10.8757
-9.86419
-9.32054
-8.8177
-8.53985
-8.26872
-8.1182
-7.96948
-7.86693
-7.73117
-7.63552
-7.51089
-7.42394
-7.31165
-7.23355
-7.13294
-7.06314
-6.97344
-6.91139
-6.83192
-6.77712
-6.70716
-6.65893
-6.59727
-6.55406
-6.49718
-6.45242
-6.38452
-6.3218
-6.28718
-6.25212
-6.23018
-6.20452
-6.18772
-6.16737
-6.15388
-6.13739
-6.12642
-6.11298
-6.10404
-6.0931
-6.08584
-6.077
-6.0712
-6.06421
-6.05975
-6.05456
-6.05145
-6.0481
-6.04577
-6.0427
-6.04069
-6.03831
-6.03695
-6.03567
-6.03528
-6.03556
-6.03656
-6.03913
-6.04228
-6.04848
-6.05525
-6.0679
-6.08168
-6.10785
-6.13901
-6.20315
-6.29671
-6.50834
-6.80211
-7.06475
-7.50199
-7.91932
-8.58307
-8.86252
-8.94545
-8.96691
-8.9719
-13.6957
-11.9139
-10.8737
-9.84548
-9.31891
-8.8087
-8.53958
-8.2639
-8.11813
-7.96763
-7.86826
-7.72957
-7.63668
-7.50938
-7.42496
-7.31028
-7.23445
-7.13171
-7.06393
-6.97233
-6.91208
-6.83094
-6.77772
-6.70629
-6.65946
-6.59653
-6.5546
-6.49669
-6.45334
-6.38432
-6.32068
-6.2872
-6.2516
-6.23033
-6.20417
-6.18786
-6.16709
-6.154
-6.13717
-6.12652
-6.1128
-6.10412
-6.09295
-6.08591
-6.07688
-6.07125
-6.06411
-6.05978
-6.05448
-6.05146
-6.04806
-6.0458
-6.04266
-6.0407
-6.03827
-6.03695
-6.03563
-6.03525
-6.03553
-6.0365
-6.0391
-6.04216
-6.04846
-6.05501
-6.06785
-6.08119
-6.10765
-6.13769
-6.20198
-6.29198
-6.50505
-6.80336
-7.05777
-7.50278
-7.90947
-8.59844
-8.87038
-8.94791
-8.96757
-8.9721
-13.8346
-11.8592
-10.8711
-9.8067
-9.31662
-8.79005
-8.53958
-8.25388
-8.11824
-7.96374
-7.87116
-7.72613
-7.63922
-7.50616
-7.42718
-7.30736
-7.23642
-7.12908
-7.06568
-6.96997
-6.91361
-6.82883
-6.77906
-6.70443
-6.66064
-6.59495
-6.55579
-6.49562
-6.4553
-6.38389
-6.31835
-6.2873
-6.2505
-6.23067
-6.20342
-6.18818
-6.16651
-6.15427
-6.1367
-6.12674
-6.11242
-6.1043
-6.09264
-6.08605
-6.07662
-6.07135
-6.0639
-6.05984
-6.0543
-6.05149
-6.04797
-6.04586
-6.04257
-6.04074
-6.03818
-6.03694
-6.03556
-6.0352
-6.03547
-6.03637
-6.03906
-6.04191
-6.04843
-6.05453
-6.06778
-6.08017
-6.10731
-6.135
-6.19977
-6.28234
-6.49835
-6.80636
-7.04316
-7.50511
-7.88832
-8.6305
-8.88602
-8.95269
-8.96884
-8.97249
-14.0524
-11.765
-10.8716
-9.74495
-9.3158
-8.76037
-8.54098
-8.23785
-8.11911
-7.95738
-7.87616
-7.72037
-7.6436
-7.50078
-7.43104
-7.30248
-7.23986
-7.1247
-7.06872
-6.96604
-6.91628
-6.82533
-6.78139
-6.70135
-6.6627
-6.59231
-6.55781
-6.49376
-6.45849
-6.38324
-6.31463
-6.28763
-6.24873
-6.23131
-6.20219
-6.18876
-6.16555
-6.15475
-6.13592
-6.12714
-6.11178
-6.10463
-6.09212
-6.08631
-6.0762
-6.07155
-6.06355
-6.05997
-6.05402
-6.05154
-6.04783
-6.04597
-6.04242
-6.0408
-6.03804
-6.03695
-6.03545
-6.03512
-6.03539
-6.03618
-6.03902
-6.04151
-6.04841
-6.05376
-6.06775
-6.07856
-6.10694
-6.13083
-6.19686
-6.26735
-6.48798
-6.81221
-7.01955
-7.51059
-7.85282
-8.68202
-8.90921
-8.95948
-8.9706
-8.97302
-14.3618
-11.615
-10.8814
-9.6553
-9.32002
-8.71724
-8.54573
-8.21445
-8.12171
-7.94779
-7.88414
-7.71145
-7.65062
-7.49247
-7.43725
-7.29497
-7.24539
-7.11794
-7.07363
-6.95999
-6.9206
-6.81994
-6.78516
-6.6966
-6.66603
-6.58823
-6.56102
-6.49075
-6.46329
-6.38232
-6.30926
-6.28844
-6.24609
-6.23242
-6.20033
-6.18973
-6.16409
-6.15556
-6.13475
-6.1278
-6.11083
-6.10516
-6.09133
-6.08674
-6.07556
-6.07188
-6.06303
-6.06019
-6.0536
-6.05165
-6.04762
-6.04615
-6.0422
-6.04091
-6.03784
-6.03697
-6.03528
-6.03502
-6.03528
-6.0359
-6.03898
-6.04093
-6.04846
-6.05264
-6.06785
-6.07625
-6.10676
-6.12497
-6.19376
-6.24637
-6.47346
-6.82274
-6.98459
-7.52202
-7.79783
-8.75762
-8.93948
-8.96785
-8.97272
-8.97364
-14.781
-11.3845
-10.911
-9.53001
-9.33495
-8.65686
-8.55688
-8.18152
-8.12755
-7.93379
-7.89648
-7.69806
-7.66154
-7.48005
-7.44694
-7.28375
-7.25404
-7.10786
-7.08131
-6.95097
-6.92737
-6.81192
-6.79109
-6.68954
-6.67124
-6.58213
-6.56595
-6.48602
-6.47022
-6.38108
-6.30179
-6.2901
-6.24231
-6.23426
-6.19762
-6.1913
-6.16195
-6.15685
-6.13302
-6.12886
-6.10941
-6.10603
-6.09018
-6.08743
-6.07461
-6.07241
-6.06226
-6.06056
-6.05299
-6.05183
-6.0473
-6.04643
-6.04187
-6.04109
-6.03755
-6.03702
-6.03507
-6.0349
-6.03516
-6.03552
-6.03899
-6.04013
-6.04864
-6.05108
-6.06822
-6.07305
-6.10706
-6.11709
-6.19131
-6.2184
-6.45405
-6.84077
-6.9346
-7.54392
-7.71549
-8.86434
-8.97589
-8.97715
-8.97499
-8.9743
-15.3361
-11.0371
-10.9768
-9.35729
-9.3692
-8.57336
-8.57904
-8.13572
-8.13898
-7.91353
-7.91527
-7.67819
-7.67826
-7.46169
-7.46184
-7.26718
-7.26735
-7.093
-7.09314
-6.93768
-6.93781
-6.80012
-6.80024
-6.67915
-6.67929
-6.57312
-6.57343
-6.47873
-6.48009
-6.37944
-6.29163
-6.29322
-6.23693
-6.23725
-6.19369
-6.19379
-6.15884
-6.1589
-6.1305
-6.13054
-6.10736
-6.10739
-6.0885
-6.08852
-6.07325
-6.07326
-6.06116
-6.06117
-6.05212
-6.05215
-6.04683
-6.04685
-6.04139
-6.04138
-6.03714
-6.03713
-6.03478
-6.03476
-6.03504
-6.03501
-6.0391
-6.03904
-6.04907
-6.04893
-6.06908
-6.06868
-6.10833
-6.10664
-6.19075
-6.18209
-6.4286
-6.87051
-6.864
-7.58333
-7.59406
-9.01255
-9.01672
-8.98659
-8.9772
-8.97494
-16.0632
-10.5202
-11.105
-9.11931
-9.43576
-8.4578
-8.61916
-8.07206
-8.15956
-7.88419
-7.94362
-7.64883
-7.70364
-7.43466
-7.48453
-7.24283
-7.28763
-7.07115
-7.1112
-6.91817
-6.95377
-6.7828
-6.81424
-6.66391
-6.69159
-6.55984
-6.58471
-6.4676
-6.49404
-6.37729
-6.27788
-6.29864
-6.2293
-6.24199
-6.18802
-6.19768
-6.15433
-6.16208
-6.12684
-6.13314
-6.10438
-6.10951
-6.08607
-6.09023
-6.07127
-6.0746
-6.05957
-6.06214
-6.0509
-6.05269
-6.04615
-6.0475
-6.04069
-6.04184
-6.03655
-6.03733
-6.03439
-6.03461
-6.03493
-6.03434
-6.03937
-6.03754
-6.0499
-6.04597
-6.07077
-6.06272
-6.11125
-6.09276
-6.1939
-6.13557
-6.39534
-6.91818
-6.76436
-7.65108
-7.41631
-9.21733
-9.05891
-8.9952
-8.97913
-8.97549
-17.0119
-9.75809
-11.3361
-8.78925
-9.55409
-8.29666
-8.68762
-7.98302
-8.19465
-7.84146
-7.98613
-7.60549
-7.74197
-7.39488
-7.51888
-7.20702
-7.31837
-7.03905
-7.13858
-6.88951
-6.97798
-6.75739
-6.83551
-6.64154
-6.71027
-6.5403
-6.60168
-6.45073
-6.51371
-6.37445
-6.25933
-6.30767
-6.21838
-6.2494
-6.1798
-6.20369
-6.14778
-6.16698
-6.12152
-6.13714
-6.10004
-6.11277
-6.08253
-6.09286
-6.0684
-6.07667
-6.05728
-6.06366
-6.04915
-6.05356
-6.04516
-6.04847
-6.03967
-6.04255
-6.03573
-6.03768
-6.03389
-6.03446
-6.03486
-6.03345
-6.03992
-6.03548
-6.05138
-6.04186
-6.07377
-6.05449
-6.11685
-6.0741
-6.20343
-6.07633
-6.35155
-6.99292
-6.6231
-7.7637
-7.15714
-9.50049
-9.09732
-9.00191
-8.98057
-8.97589
-18.2509
-8.64277
-11.7321
-8.32673
-9.75333
-8.0696
-8.79992
-7.85734
-8.25235
-7.77881
-8.04966
-7.54147
-7.79966
-7.33625
-7.57067
-7.15428
-7.36474
-6.99179
-7.1799
-6.84735
-7.01456
-6.72002
-6.86767
-6.60867
-6.73849
-6.5115
-6.62712
-6.42529
-6.54147
-6.37064
-6.23423
-6.3222
-6.20264
-6.26082
-6.16783
-6.21289
-6.13822
-6.17447
-6.11376
-6.14325
-6.0937
-6.11774
-6.07736
-6.09688
-6.06422
-6.07985
-6.05396
-6.06601
-6.04664
-6.05494
-6.0437
-6.04993
-6.03818
-6.04366
-6.03456
-6.03826
-6.0332
-6.03431
-6.03486
-6.03224
-6.0409
-6.0326
-6.05388
-6.03609
-6.07881
-6.04299
-6.12666
-6.04855
-6.22321
-6.001
-6.29312
-7.10812
-6.42143
-7.94621
-6.77998
-9.89354
-9.12344
-9.00567
-8.98136
-8.97612
)
;

boundaryField
{
    F1_1
    {
        type            calculated;
        value           nonuniform List<scalar> 
80
(
18.9532
7.97426
11.9806
8.0419
9.87698
7.90576
8.86896
7.71589
8.2899
7.55254
7.90444
7.49065
7.75971
7.2881
7.56015
7.11151
7.36675
6.95448
7.18742
6.81493
7.02425
6.69192
6.87787
6.58439
6.74846
6.49054
6.63688
6.40695
6.5532
6.36573
6.21832
6.32871
6.19203
6.26584
6.15965
6.21693
6.13166
6.17776
6.10843
6.14595
6.08936
6.11995
6.07383
6.09866
6.06135
6.08124
6.05168
6.06702
6.0449
6.05544
6.04258
6.05049
6.0371
6.04406
6.0337
6.0384
6.03268
6.03406
6.03477
6.0314
6.04143
6.0308
6.05536
6.03262
6.0819
6.0362
6.13279
6.03367
6.2362
5.95877
6.25959
7.17781
6.30264
8.05869
6.55646
10.1222
9.1321
9.00669
8.98157
8.97619
)
;
    }
    F1_2
    {
        type            calculated;
        value           nonuniform List<scalar> 
80
(
-19.365
-7.88985
-12.475
-7.0275
-9.78732
-6.13624
-8.05786
-5.323
-6.75229
-4.69226
-5.69264
-4.44077
-5.25046
-3.82267
-4.63984
-3.30021
-4.05324
-2.85234
-3.5227
-2.46613
-3.05409
-2.13232
-2.64487
-1.84308
-2.29026
-1.59032
-1.98829
-1.36288
-1.76481
-1.25038
-0.828451
-1.14524
-0.741954
-0.962839
-0.637474
-0.81573
-0.544334
-0.693456
-0.464177
-0.590292
-0.39578
-0.502718
-0.337734
-0.428184
-0.288959
-0.364647
-0.249046
-0.310352
-0.219001
-0.263649
-0.206748
-0.243744