/*--------------------------------*- C++ -*----------------------------------*\
| =========                 |                                                 |
| \\      /  F ield         | OpenFOAM: The Open Source CFD Toolbox           |
|  \\    /   O peration     | Version:  5.x                                   |
|   \\  /    A nd           | Web:      www.OpenFOAM.org                      |
|    \\/     M anipulation  |                                                 |
\*---------------------------------------------------------------------------*/
FoamFile
{
    version     2.0;
    format      ascii;
    class       volScalarField;
    location    "4.5";
    object      gradTx;
}
// * * * * * * * * * * * * * * * * * * * * * * * * * * * * * * * * * * * * * //

dimensions      [0 -1 0 1 0 0 0];

internalField   nonuniform List<scalar> 
3200
(
45.2088
3.71226
1.64883
1.54027
0.814938
0.771344
0.466651
0.447192
0.293733
0.282628
0.170764
0.166622
0.180619
0.180769
0.17309
0.17225
0.159489
0.158374
0.144271
0.14309
0.128823
0.127655
0.113866
0.112772
0.100243
0.0993571
0.0901918
0.0901869
0.0951371
0.164874
0.0825685
0.0553208
0.0534923
0.0417459
0.0409189
0.0333244
0.0327659
0.0270522
0.0266229
0.022067
0.0217206
0.0179827
0.0176951
0.0145462
0.0142988
0.0115266
0.011299
0.00862779
0.00838798
0.00524745
0.0051162
0.00512233
0.00507492
0.00400851
0.00389519
0.00223987
0.00207396
-0.000238873
-0.000476821
-0.00384114
-0.00420401
-0.00947608
-0.0100816
-0.0191567
-0.0203045
-0.0381563
-0.0408271
-0.0839875
-0.0929036
-0.238614
-0.616985
-0.436001
-0.681307
-0.712661
-1.26775
-1.24214
-0.055775
-0.00752664
-0.00152489
-52.9499
47.8936
3.10554
1.5774
1.35458
0.774056
0.680986
0.436255
0.394647
0.271705
0.248112
0.160267
0.151424
0.160918
0.161127
0.155158
0.153387
0.143321
0.14096
0.1298
0.127297
0.115999
0.113522
0.102606
0.100289
0.0903926
0.0885309
0.081467
0.0816207
0.0884235
0.137469
0.0766638
0.0516745
0.0476024
0.0380715
0.036298
0.0302436
0.0290556
0.0245177
0.0236062
0.0199913
0.0192562
0.0162911
0.0156807
0.0131826
0.0126576
0.0104572
0.00997394
0.00785216
0.00734602
0.00489511
0.00461626
0.00457607
0.00447247
0.00363072
0.00339057
0.00207788
0.0017256
-0.000112202
-0.000617995
-0.00329502
-0.00406723
-0.00826989
-0.00956086
-0.0168205
-0.0192786
-0.0336744
-0.03946
-0.0750158
-0.0949224
-0.226969
-0.517456
-0.414644
-0.601778
-0.666331
-1.08463
-1.03101
-0.1218
-0.02089
-0.00438485
-54.7457
50.5616
2.5767
1.45376
1.1832
0.713676
0.596695
0.397733
0.345355
0.245702
0.216167
0.14661
0.135492
0.141589
0.141732
0.137058
0.134856
0.126845
0.123899
0.114982
0.111855
0.102821
0.0997274
0.0910008
0.0881087
0.0802205
0.0779129
0.0724537
0.0727885
0.0800202
0.114457
0.0693264
0.0471914
0.0419308
0.0340868
0.0318484
0.0269681
0.0254793
0.0218381
0.0206975
0.0178004
0.0168809
0.0145052
0.0137418
0.0117401
0.0110833
0.0093191
0.00871438
0.0070119
0.00638183
0.00445589
0.00410675
0.00403234
0.00389955
0.00322885
0.00292883
0.00187747
0.00143666
-3.8815e-05
-0.000672322
-0.0028251
-0.00379323
-0.00718017
-0.00880143
-0.0146764
-0.0177753
-0.0295369
-0.036902
-0.0666701
-0.0924556
-0.208987
-0.43366
-0.38169
-0.527152
-0.605852
-0.920388
-0.854103
-0.155493
-0.0308773
-0.00672882
-56.5412
53.2089
2.11343
1.29602
1.01978
0.639194
0.515682
0.353348
0.297954
0.216894
0.185822
0.130616
0.118871
0.122497
0.122529
0.118859
0.116558
0.110166
0.107077
0.0999327
0.0966502
0.0894063
0.0861578
0.0791626
0.0761282
0.0698253
0.067421
0.0632085
0.0636804
0.0705288
0.0946279
0.0610693
0.0420334
0.0363626
0.0298778
0.0275044
0.023557
0.0219891
0.0190585
0.0178592
0.0155304
0.0145639
0.0126548
0.0118525
0.0102437
0.00955327
0.00813459
0.00749872
0.00612872
0.00546947
0.00395359
0.00358626
0.00349094
0.00334813
0.00281216
0.00249715
0.00165263
0.0011891
8.90653e-07
-0.00066588
-0.00240257
-0.00342248
-0.00616108
-0.00787184
-0.0126434
-0.0159254
-0.0255752
-0.033448
-0.0584836
-0.0863589
-0.186679
-0.360929
-0.340839
-0.455196
-0.535939
-0.771379
-0.702489
-0.166227
-0.0368458
-0.00832773
-58.3366
55.8348
1.70428
1.11663
0.860535
0.554429
0.436223
0.304686
0.25158
0.186088
0.156443
0.112883
0.101636
0.10355
0.103475
0.100605
0.0984228
0.0933551
0.0904166
0.084729
0.0816035
0.0758315
0.0727381
0.0671661
0.0642786
0.0592741
0.0570014
0.053776
0.0543173
0.0603473
0.0771052
0.0522312
0.0363407
0.0308269
0.0255044
0.0232234
0.0200506
0.0185534
0.0162096
0.015066
0.0132058
0.0122845
0.0107601
0.00999535
0.00871057
0.00805237
0.00691875
0.00631241
0.0052171
0.00459136
0.00340533
0.00305487
0.00295143
0.00281243
0.00238662
0.00208664
0.00141255
0.00097053
1.97359e-05
-0.000616645
-0.00200871
-0.00298299
-0.0051831
-0.00681983
-0.0106699
-0.0138208
-0.0216847
-0.0293075
-0.0501836
-0.0773645
-0.161414
-0.295972
-0.29461
-0.384585
-0.459838
-0.634543
-0.56957
-0.160685
-0.0387798
-0.00905864
-60.1316
58.4405
1.33882
0.923988
0.703288
0.462148
0.357297
0.252887
0.205701
0.153847
0.12762
0.0938578
0.0838744
0.0846821
0.0845323
0.0823236
0.0804035
0.076459
0.0738664
0.0694228
0.0666627
0.0621496
0.0594176
0.0550621
0.0525136
0.0486137
0.0466199
0.0441929
0.0447347
0.0497368
0.0612478
0.0430339
0.030233
0.0252836
0.0210094
0.0189781
0.0164773
0.0151516
0.0133127
0.0123014
0.0108437
0.0100293
0.00883501
0.008159
0.00715237
0.00657048
0.00568181
0.00514565
0.00428669
0.00373565
0.00282365
0.0025136
0.00241334
0.00228819
0.00195604
0.00169109
0.00116318
0.000772304
2.60022e-05
-0.000537184
-0.00163156
-0.00249446
-0.00422766
-0.00567928
-0.00872438
-0.0115277
-0.0178038
-0.0246368
-0.0416314
-0.0660954
-0.134129
-0.236452
-0.244728
-0.314563
-0.379759
-0.507294
-0.450407
-0.143664
-0.0370265
-0.00889667
-61.9264
61.0286
1.00758
0.723576
0.546859
0.364416
0.278354
0.198798
0.160009
0.120581
0.0990991
0.0738814
0.0656812
0.0658525
0.0656722
0.0640309
0.0624651
0.059509
0.0573903
0.0540493
0.051792
0.0483965
0.0461621
0.0428859
0.0408027
0.0378771
0.0362558
0.034491
0.0349737
0.0388659
0.0465795
0.03362
0.0238113
0.0197132
0.0164246
0.0147515
0.0128569
0.0117703
0.0103827
0.00955468
0.00845585
0.00778922
0.00688918
0.00633587
0.00557718
0.00510085
0.00443076
0.00399179
0.00334395
0.00289438
0.00221788
0.00196393
0.00187625
0.00177224
0.00152277
0.00130606
0.000908328
0.000588294
2.4942e-05
-0.000436478
-0.00126368
-0.00197113
-0.00328348
-0.004475
-0.00678854
-0.0090957
-0.0139006
-0.0195597
-0.0327805
-0.0530835
-0.105472
-0.180694
-0.192383
-0.244727
-0.297187
-0.387422
-0.341238
-0.118639
-0.0321328
-0.00789953
-63.7209
63.6024
0.702004
0.518873
0.390659
0.262828
0.19915
0.143079
0.114342
0.0865974
0.0707275
0.0532243
0.047153
0.047037
0.0468705
0.0457351
0.0445824
0.0425254
0.0409631
0.0386324
0.0369669
0.034597
0.0329482
0.030662
0.0291255
0.0270883
0.0258974
0.0246992
0.0250763
0.0278421
0.032738
0.02408
0.0171611
0.0141105
0.0117752
0.0105338
0.00920418
0.00840101
0.00743029
0.00681879
0.00605069
0.00555848
0.00492947
0.00452094
0.00399068
0.00363896
0.00317045
0.00284628
0.00239327
0.00206218
0.00159521
0.00140761
0.0013398
0.0012621
0.00108818
0.000928266
0.000650366
0.000414014
1.9803e-05
-0.000321141
-0.000900585
-0.00142359
-0.00234414
-0.00322583
-0.00485296
-0.00656378
-0.00996325
-0.0141802
-0.0236462
-0.0387882
-0.075902
-0.127477
-0.138412
-0.174886
-0.213104
-0.273007
-0.239126
-0.0881708
-0.0247482
-0.00619007
-65.5151
66.1657
0.414229
0.311972
0.234444
0.158674
0.119642
0.0862664
0.0686363
0.0521388
0.0424211
0.0321099
0.0283867
0.0282236
0.0281076
0.0274401
0.0267359
0.0255221
0.0245666
0.023189
0.02217
0.0207686
0.0197598
0.0184081
0.0174683
0.0162656
0.0155393
0.0148444
0.0150834
0.0167331
0.0194388
0.0144706
0.0103562
0.00847916
0.007082
0.00631959
0.00553041
0.00503842
0.00446351
0.00408915
0.00363449
0.00333321
0.00296093
0.00271088
0.00239703
0.00218173
0.00190437
0.00170592
0.00143771
0.00123541
0.000961362
0.000846489
0.000803742
0.0007558
0.000653037
0.00055519
0.00039074
0.000246048
1.25322e-05
-0.000196265
-0.000539749
-0.000860161
-0.00140636
-0.00194685
-0.00291404
-0.00396432
-0.00599321
-0.00859061
-0.014285
-0.023614
-0.0457535
-0.0758859
-0.0834194
-0.104976
-0.128153
-0.162344
-0.141698
-0.0542008
-0.015569
-0.00393936
-67.3092
68.7226
0.136925
0.104083
0.078159
0.053051
0.0399082
0.0288241
0.022885
0.017409
0.0141386
0.010732
0.00947803
0.00940824
0.00936683
0.00914647
0.00890977
0.00850843
0.00818709
0.00773116
0.00738839
0.00692453
0.00658516
0.0061378
0.00582169
0.00542393
0.00517999
0.00495226
0.005034
0.00558193
0.00644647
0.00482691
0.00346183
0.00282863
0.00236344
0.00210647
0.00184475
0.00167914
0.0014887
0.00136272
0.00121215
0.00111078
0.000987499
0.000903363
0.000799429
0.000726986
0.000635124
0.000568347
0.000479515
0.000411505
0.000321144
0.000282484
0.000267893
0.000251696
0.000217694
0.000184776
0.000130324
8.16338e-05
4.27196e-06
-6.60024e-05
-0.000179837
-0.000287697
-0.000468797
-0.000650803
-0.000971785
-0.00132572
-0.00200043
-0.00287719
-0.00477829
-0.00792746
-0.0152852
-0.0251987
-0.027866
-0.0350003
-0.0427625
-0.0538741
-0.0469427
-0.0182763
-0.00530978
-0.00135129
-69.1031
68.7166
0.150851
0.128411
0.107463
0.0852115
0.0726974
0.0607364
0.0533319
0.0448723
0.0387507
0.0309918
0.0281783
0.0282876
0.0281831
0.0273461
0.026446
0.0249278
0.0237395
0.0220938
0.0208992
0.0193419
0.0182458
0.0168585
0.0159124
0.0147671
0.0140897
0.0134979
0.0137919
0.0154602
0.0180332
0.0136702
0.0100244
0.00835004
0.00714195
0.00647724
0.0058002
0.00536812
0.00486514
0.00452776
0.00411776
0.00383732
0.00349008
0.00324899
0.00294531
0.00272904
0.00244795
0.00223658
0.00194495
0.00171107
0.00139145
0.00127943
0.00129639
0.0012977
0.00126474
0.00122618
0.00115862
0.00110473
0.00102881
0.000972473
0.00089701
0.000840511
0.000762803
0.000697526
0.000594569
0.000480392
0.000253878
-9.06187e-05
-0.000910648
-0.00245461
-0.00625358
-0.0118376
-0.0151186
-0.0221044
-0.0295398
-0.0404833
-0.0360871
-0.0141029
-0.004102
-0.00104429
-69.8074
66.1474
0.455922
0.385173
0.32244
0.255245
0.21807
0.182027
0.160038
0.134523
0.116318
0.0927777
0.0844181
0.0848713
0.0845787
0.0820409
0.0793627
0.0747701
0.0712368
0.0662633
0.0627122
0.0580072
0.0547491
0.0505578
0.0477453
0.0442825
0.0422656
0.0404584
0.0413206
0.0463444
0.0543771
0.0409821
0.0299944
0.0250315
0.0214041
0.0194322
0.0173908
0.0161072
0.0145888
0.0135862
0.0123481
0.0115146
0.010466
0.00974947
0.00883243
0.00818971
0.00734107
0.00671295
0.00583255
0.00513665
0.00416605
0.00383314
0.0038898
0.00389447
0.00379444
0.00367971
0.00347532
0.00331507
0.00308564
0.00291819
0.00269028
0.00252239
0.00228792
0.00209409
0.00178416
0.00144567
0.000766358
-0.00025283
-0.00270298
-0.00727362
-0.0186893
-0.0356049
-0.0452075
-0.0662951
-0.088479
-0.122063
-0.108965
-0.0418294
-0.0120283
-0.00304444
-69.4222
63.5708
0.771182
0.641615
0.537595
0.424078
0.363398
0.302755
0.266885
0.223882
0.194098
0.153956
0.140305
0.141485
0.141064
0.136741
0.132356
0.12457
0.118792
0.110376
0.104571
0.0966147
0.0912897
0.084202
0.0796043
0.0737401
0.0704332
0.067312
0.0686829
0.0771082
0.0915781
0.0681976
0.0497235
0.0416595
0.0356001
0.03239
0.0289511
0.0268557
0.0242919
0.0226541
0.0205623
0.0192006
0.0174287
0.016258
0.0147086
0.0136586
0.0122254
0.0111994
0.00971279
0.00857324
0.00691515
0.00637129
0.0064853
0.00649545
0.00632474
0.00613683
0.00579027
0.0055282
0.00514002
0.00486634
0.00448115
0.00420694
0.00381142
0.00349531
0.00297491
0.0024246
0.00129245
-0.000357787
-0.00441048
-0.0118188
-0.0309051
-0.0596646
-0.0748369
-0.110442
-0.146962
-0.205511
-0.184004
-0.0680625
-0.0191219
-0.00478404
-69.0368
60.9822
1.10371
0.897035
0.753131
0.590797
0.508724
0.422493
0.374017
0.312712
0.272292
0.214075
0.1956
0.198163
0.197706
0.191444
0.185485
0.17429
0.166452
0.154384
0.146517
0.135117
0.127901
0.117747
0.111514
0.103095
0.0985934
0.0939861
0.0957632
0.10763
0.130293
0.095217
0.0690362
0.0582074
0.0496822
0.045357
0.0404578
0.037623
0.0339579
0.0317402
0.0287473
0.026903
0.0243673
0.0227817
0.0205648
0.0191429
0.0170934
0.0157044
0.0135792
0.0120306
0.00961972
0.00888314
0.00908498
0.00910369
0.00885575
0.00860033
0.00810186
0.0077464
0.00718983
0.00681898
0.00626762
0.00589637
0.00533177
0.00490473
0.00416688
0.00342683
0.00183929
-0.000366619
-0.00598372
-0.0158968
-0.0427338
-0.0842677
-0.103649
-0.154552
-0.204564
-0.292161
-0.26282
-0.0916156
-0.0248313
-0.00610557
-68.6513
58.377
1.46097
1.14994
0.969404
0.754306
0.654216
0.54072
0.481663
0.400706
0.351199
0.272605
0.250052
0.254961
0.254579
0.246135
0.238824
0.223875
0.214282
0.198224
0.188603
0.173452
0.16463
0.151135
0.143511
0.132294
0.126758
0.120405
0.12244
0.137721
0.171318
0.121881
0.087735
0.0746633
0.0635963
0.0583471
0.0518819
0.0484236
0.0435661
0.0408573
0.0368865
0.0346331
0.031268
0.0293307
0.0263893
0.0246524
0.0219351
0.0202388
0.0174225
0.0155225
0.0122573
0.0113575
0.011692
0.0117226
0.0113871
0.0110736
0.0104078
0.00997268
0.00923226
0.00877887
0.00804691
0.00759357
0.00684665
0.00632661
0.00535897
0.00446299
0.00241089
-0.000238964
-0.00738507
-0.0192979
-0.0539746
-0.109757
-0.1312
-0.198698
-0.260663
-0.383487
-0.347311
-0.110992
-0.0286184
-0.00687677
-68.2656
55.7516
1.85098
1.39763
1.18706
0.913214
0.800245
0.65677
0.590184
0.487443
0.431269
0.328893
0.303406
0.311971
0.311776
0.300781
0.292469
0.273247
0.262371
0.241807
0.230911
0.211534
0.201546
0.184288
0.175652
0.161266
0.154955
0.146488
0.148587
0.167079
0.215665
0.147933
0.105591
0.0910391
0.0772778
0.0713858
0.0631858
0.0592802
0.0530885
0.0500251
0.0449571
0.0424078
0.0381117
0.03592
0.0321657
0.0302011
0.0267361
0.0248181
0.0212293
0.019069
0.0148004
0.0137825
0.0143113
0.0143563
0.0139176
0.013561
0.0127045
0.0122112
0.0112633
0.0107499
0.00981511
0.00930256
0.0083525
0.00776645
0.00654824
0.00554544
0.00300646
6.85918e-05
-0.00859569
-0.0217882
-0.064371
-0.136619
-0.156909
-0.243064
-0.314326
-0.481174
-0.439808
-0.12421
-0.0299802
-0.00700254
-67.8797
53.1029
2.28233
1.63561
1.40724
1.06569
0.947493
0.769745
0.700152
0.572317
0.513187
0.382105
0.355398
0.369332
0.369404
0.355319
0.34655
0.322284
0.310847
0.285004
0.273559
0.24924
0.238752
0.217096
0.208023
0.189915
0.183239
0.172149
0.174078
0.195233
0.264664
0.17297
0.122335
0.107383
0.0906447
0.084517
0.0743181
0.0702284
0.0624859
0.0592731
0.052927
0.0502524
0.0448713
0.0425719
0.0378706
0.03581
0.0314752
0.0294644
0.024979
0.0227
0.0172135
0.0161457
0.0169499
0.0170093
0.0164449
0.0160685
0.0149868
0.014468
0.0132769
0.0127379
0.0115665
0.0110291
0.00984384
0.00923162
0.00772894
0.0066894
0.00361804
0.000605266
-0.00962511
-0.0231029
-0.0735807
-0.16556
-0.179983
-0.288027
-0.364167
-0.587189
-0.543273
-0.128573
-0.0284919
-0.00643807
-67.4935
50.4296
2.76416
1.85686
1.63196
1.20923
1.09712
0.878393
0.812449
0.654443
0.597983
0.431142
0.405765
0.427247
0.427599
0.409645
0.401251
0.370809
0.359899
0.327624
0.316721
0.286394
0.276406
0.249401
0.240756
0.218106
0.211699
0.197289
0.198801
0.221457
0.320109
0.196364
0.137653
0.123799
0.103587
0.0978112
0.0852062
0.0813229
0.0717021
0.0686465
0.0607501
0.0582054
0.0515077
0.0493199
0.0434699
0.0415099
0.0361214
0.0342097
0.0286405
0.0264593
0.0194499
0.0184341
0.0196184
0.0196874
0.0189648
0.0186042
0.0172466
0.0167518
0.0152646
0.0147513
0.0132925
0.0127816
0.0113123
0.0107325
0.00889119
0.00791469
0.00422734
0.00143072
-0.0105246
-0.0229375
-0.0811301
-0.197603
-0.199311
-0.334265
-0.408131
-0.703882
-0.66157
-0.120352
-0.0238825
-0.00520238
-67.1072
47.7326
3.30599
2.05081
1.86459
1.34034
1.25102
0.98093
0.928429
0.732507
0.687195
0.474521
0.454257
0.486007
0.486526
0.463589
0.456834
0.418552
0.409806
0.36939
0.360661
0.322734
0.31474
0.280972
0.274049
0.245648
0.24048
0.221793
0.222678
0.244641
0.384449
0.217158
0.151176
0.14047
0.115953
0.111379
0.0957455
0.092647
0.080656
0.0782138
0.0683593
0.0663246
0.0579639
0.0562145
0.0489138
0.047347
0.0406287
0.0391013
0.0321667
0.0304118
0.0214466
0.0206345
0.0223316
0.0223972
0.0214702
0.0211799
0.019472
0.0190753
0.0172133
0.0168026
0.0149808
0.0145726
0.0127453
0.0122839
0.0100189
0.00924849
0.00480109
0.0026226
-0.0114056
-0.0209408
-0.0863481
-0.234236
-0.21331
-0.382946
-0.44322
-0.834096
-0.799822
-0.0943408
-0.0161614
-0.00339036
-66.7207
45.0164
3.91721
2.202
2.11073
1.45406
1.41215
1.07476
1.05015
0.804546
0.783101
0.510204
0.500669
0.546017
0.546391
0.516886
0.513679
0.465114
0.460981
0.409888
0.405769
0.357877
0.354106
0.31147
0.308201
0.272262
0.269801
0.245514
0.245712
0.263111
0.461075
0.233899
0.162488
0.157693
0.12752
0.125389
0.105784
0.104327
0.089228
0.0880777
0.0756559
0.0746971
0.0641558
0.0633314
0.0541285
0.0533904
0.0449285
0.0442094
0.0354857
0.0346528
0.0231173
0.0227347
0.0251101
0.0251467
0.0239503
0.0238124
0.021645
0.0214575
0.0191042
0.0189104
0.0166125
0.0164203
0.0141238
0.0139075
0.0110869
0.0107295
0.00528417
0.00428856
-0.0124662
-0.016709
-0.0882668
-0.277621
-0.219686
-0.436002
-0.465085
-0.981317
-0.964923
-0.0432372
-0.00582405
-0.00117909
-66.334
45.0164
3.91721
2.202
2.11073
1.45406
1.41215
1.07476
1.05015
0.804547
0.783102
0.510204
0.50067
0.546018
0.546392
0.516886
0.513679
0.465115
0.460981
0.409889
0.405769
0.357877
0.354106
0.31147
0.308202
0.272262
0.269802
0.245515
0.245712
0.263112
0.461076
0.2339
0.162489
0.157693
0.127521
0.125389
0.105784
0.104327
0.0892283
0.088078
0.0756562
0.0746974
0.064156
0.0633316
0.0541287
0.0533906
0.0449287
0.0442096
0.0354858
0.034653
0.0231174
0.0227348
0.0251102
0.0251468
0.0239505
0.0238125
0.0216452
0.0214576
0.0191043
0.0189105
0.0166127
0.0164205
0.0141239
0.0139076
0.0110871
0.0107296
0.00528421
0.00428858
-0.0124666
-0.0167094
-0.088269
-0.277628
-0.219692
-0.436014
-0.465098
-0.981342
-0.964948
-0.0432383
-0.0058242
-0.00117913
-66.3339
47.7326
3.30599
2.05081
1.86459
1.34034
1.25102
0.98093
0.92843
0.732507
0.687195
0.474522
0.454258
0.486008
0.486526
0.463589
0.456835
0.418553
0.409807
0.36939
0.360662
0.322734
0.314741
0.280973
0.274049
0.245649
0.24048
0.221794
0.222678
0.244641
0.38445
0.217159
0.151176
0.14047
0.115953
0.111379
0.0957458
0.0926473
0.0806563
0.0782141
0.0683596
0.0663249
0.0579642
0.0562148
0.0489141
0.0473472
0.0406289
0.0391015
0.0321668
0.0304119
0.0214467
0.0206346
0.0223317
0.0223973
0.0214704
0.02118
0.0194721
0.0190754
0.0172135
0.0168027
0.0149809
0.0145727
0.0127455
0.012284
0.010019
0.0092486
0.00480114
0.0026226
-0.0114059
-0.0209413
-0.0863503
-0.234242
-0.213316
-0.382957
-0.443232
-0.834118
-0.799843
-0.0943431
-0.0161618
-0.00339045
-66.7206
50.4296
2.76416
1.85686
1.63196
1.20923
1.09712
0.878393
0.81245
0.654443
0.597984
0.431143
0.405765
0.427247
0.427599
0.409646
0.401251
0.370809
0.3599
0.327625
0.316722
0.286394
0.276406
0.249402
0.240756
0.218107
0.211699
0.19729
0.198801
0.221457
0.320109
0.196365
0.137653
0.1238
0.103588
0.0978116
0.0852065
0.0813232
0.0717024
0.0686468
0.0607504
0.0582056
0.051508
0.0493201
0.0434701
0.0415101
0.0361216
0.0342098
0.0286407
0.0264594
0.01945
0.0184342
0.0196185
0.0196875
0.0189649
0.0186043
0.0172467
0.0167519
0.0152647
0.0147514
0.0132927
0.0127818
0.0113125
0.0107326
0.00889129
0.00791479
0.00422738
0.0014307
-0.0105248
-0.0229381
-0.0811322
-0.197608
-0.199317
-0.334274
-0.408142
-0.7039
-0.661587
-0.120355
-0.023883
-0.00520249
-67.1071
53.1029
2.28232
1.63561
1.40724
1.06569
0.947494
0.769745
0.700152
0.572317
0.513187
0.382105
0.355399
0.369332
0.369404
0.35532
0.34655
0.322285
0.310847
0.285004
0.273559
0.249241
0.238753
0.217096
0.208024
0.189915
0.183239
0.17215
0.174079
0.195234
0.264665
0.17297
0.122336
0.107384
0.090645
0.0845173
0.0743184
0.0702287
0.0624861
0.0592733
0.0529272
0.0502526
0.0448715
0.042572
0.0378708
0.0358101
0.0314753
0.0294645
0.0249791
0.0227001
0.0172136
0.0161458
0.01695
0.0170094
0.016445
0.0160686
0.0149869
0.0144681
0.013277
0.0127381
0.0115666
0.0110292
0.00984395
0.00923173
0.00772903
0.00668948
0.00361807
0.000605234
-0.00962538
-0.0231035
-0.0735826
-0.165564
-0.179987
-0.288034
-0.364176
-0.587205
-0.543287
-0.128577
-0.0284926
-0.00643819
-67.4935
55.7516
1.85098
1.39763
1.18706
0.913214
0.800245
0.656771
0.590184
0.487443
0.431269
0.328893
0.303406
0.311971
0.311776
0.300781
0.292469
0.273247
0.262371
0.241808
0.230912
0.211534
0.201546
0.184288
0.175652
0.161266
0.154955
0.146489
0.148587
0.167079
0.215665
0.147933
0.105591
0.0910394
0.0772781
0.0713861
0.0631861
0.0592805
0.0530887
0.0500253
0.0449572
0.0424079
0.0381119
0.0359202
0.0321658
0.0302013
0.0267362
0.0248183
0.0212294
0.0190691
0.0148005
0.0137826
0.0143113
0.0143563
0.0139177
0.0135611
0.0127046
0.0122113
0.0112633
0.01075
0.00981521
0.00930265
0.00835259
0.00776653
0.00654831
0.00554551
0.00300648
6.85507e-05
-0.00859593
-0.0217888
-0.0643727
-0.136623
-0.156913
-0.243071
-0.314335
-0.481187
-0.439819
-0.124213
-0.0299809
-0.00700265
-67.8796
58.377
1.46097
1.14994
0.969403
0.754306
0.654216
0.540721
0.481663
0.400707
0.351199
0.272605
0.250052
0.254961
0.25458
0.246135
0.238825
0.223876
0.214282
0.198225
0.188604
0.173452
0.16463
0.151135
0.143511
0.132294
0.126758
0.120405
0.12244
0.137721
0.171319
0.121881
0.0877353
0.0746636
0.0635965
0.0583472
0.0518821
0.0484238
0.0435663
0.0408575
0.0368867
0.0346332
0.0312682
0.0293309
0.0263894
0.0246525
0.0219352
0.0202389
0.0174226
0.0155226
0.0122574
0.0113575
0.0116921
0.0117227
0.0113872
0.0110737
0.0104078
0.00997275
0.00923233
0.00877894
0.00804699
0.00759364
0.00684672
0.00632668
0.00535903
0.00446304
0.00241091
-0.000239008
-0.00738528
-0.0192984
-0.053976
-0.10976
-0.131204
-0.198703
-0.26067
-0.383497
-0.34732
-0.110995
-0.0286191
-0.00687687
-68.2656
60.9822
1.1037
0.897034
0.753131
0.590797
0.508724
0.422493
0.374017
0.312712
0.272293
0.214076
0.1956
0.198163
0.197706
0.191444
0.185486
0.17429
0.166452
0.154384
0.146517
0.135117
0.127901
0.117747
0.111514
0.103096
0.0985935
0.0939863
0.0957634
0.107631
0.130294
0.0952174
0.0690365
0.0582076
0.0496823
0.0453572
0.0404579
0.0376232
0.033958
0.0317403
0.0287475
0.0269031
0.0243674
0.0227818
0.0205649
0.019143
0.0170935
0.0157045
0.0135792
0.0120306
0.00961976
0.00888317
0.00908501
0.00910373
0.0088558
0.00860038
0.00810192
0.00774645
0.00718989
0.00681903
0.00626768
0.00589643
0.00533182
0.00490478
0.00416692
0.00342687
0.00183929
-0.000366661
-0.00598389
-0.0158973
-0.042735
-0.08427
-0.103652
-0.154556
-0.20457
-0.292168
-0.262827
-0.0916178
-0.0248319
-0.00610565
-68.6513
63.5708
0.77118
0.641614
0.537595
0.424078
0.363398
0.302756
0.266885
0.223882
0.194098
0.153956
0.140306
0.141485
0.141064
0.136741
0.132356
0.12457
0.118792
0.110376
0.104572
0.0966148
0.0912898
0.0842021
0.0796044
0.0737402
0.0704333
0.0673122
0.0686831
0.0771084
0.0915784
0.0681979
0.0497237
0.0416597
0.0356002
0.0323901
0.0289512
0.0268558
0.0242919
0.0226542
0.0205624
0.0192007
0.0174287
0.0162581
0.0147087
0.0136587
0.0122254
0.0111995
0.00971283
0.00857328
0.00691519
0.00637131
0.00648532
0.00649548
0.00632477
0.00613687
0.00579031
0.00552824
0.00514005
0.00486638
0.00448119
0.00420698
0.00381146
0.00349535
0.00297494
0.00242463
0.00129245
-0.000357823
-0.00441061
-0.0118192
-0.0309059
-0.0596662
-0.0748389
-0.110445
-0.146966
-0.205516
-0.184009
-0.0680642
-0.0191223
-0.0047841
-69.0368
66.1474
0.45592
0.385173
0.32244
0.255245
0.21807
0.182027
0.160038
0.134523
0.116318
0.0927777
0.0844182
0.0848714
0.0845788
0.082041
0.0793628
0.0747702
0.0712369
0.0662633
0.0627123
0.0580073
0.0547492
0.0505579
0.0477454
0.0442825
0.0422657
0.0404584
0.0413207
0.0463444
0.0543772
0.0409822
0.0299945
0.0250316
0.0214042
0.0194323
0.0173909
0.0161073
0.0145888
0.0135862
0.0123482
0.0115147
0.010466
0.00974951
0.00883246
0.00818974
0.0073411
0.00671298
0.00583258
0.00513668
0.00416607
0.00383316
0.00388981
0.00389449
0.00379445
0.00367973
0.00347534
0.0033151
0.00308567
0.00291821
0.0026903
0.00252241
0.00228794
0.00209411
0.00178418
0.00144569
0.000766359
-0.000252854
-0.00270307
-0.00727384
-0.0186899
-0.0356058
-0.0452087
-0.0662969
-0.0884814
-0.122067
-0.108968
-0.0418305
-0.0120286
-0.00304447
-69.4221
68.7166
0.150851
0.128411
0.107462
0.0852115
0.0726974
0.0607364
0.0533319
0.0448723
0.0387507
0.0309918
0.0281784
0.0282876
0.0281832
0.0273461
0.026446
0.0249278
0.0237395
0.0220938
0.0208993
0.0193419
0.0182458
0.0168585
0.0159125
0.0147671
0.0140897
0.0134979
0.0137919
0.0154602
0.0180333
0.0136703
0.0100245
0.00835007
0.00714197
0.00647726
0.00580022
0.00536814
0.00486515
0.00452778
0.00411778
0.00383733
0.00349009
0.003249
0.00294532
0.00272905
0.00244796
0.00223659
0.00194496
0.00171108
0.00139146
0.00127944
0.00129639
0.0012977
0.00126474
0.00122619
0.00115863
0.00110474
0.00102881
0.00097248
0.000897017
0.000840518
0.00076281
0.000697533
0.000594575
0.000480396
0.000253878
-9.06277e-05
-0.000910678
-0.00245468
-0.00625376
-0.0118379
-0.015119
-0.022105
-0.0295406
-0.0404844
-0.036088
-0.0141033
-0.0041021
-0.0010443
-69.8074
68.7222
0.136758
0.103805
0.0777661
0.0524442
0.039053
0.0275003
0.0210859
0.0149987
0.0125809
0.0119185
0.0115683
0.0110152
0.0105773
0.00996392
0.00951842
0.00893677
0.00851929
0.00797676
0.00758629
0.00707732
0.00671232
0.00623967
0.00590885
0.00549614
0.00524361
0.00500764
0.00508655
0.00563581
0.00650587
0.00486985
0.00349122
0.0028518
0.00238216
0.00212279
0.00185874
0.0016917
0.00149966
0.00137266
0.0012209
0.00111874
0.00099452
0.000909756
0.000805061
0.000732098
0.000639589
0.000572349
0.000482911
0.000414441
0.000323477
0.000284589
0.000269982
0.000253758
0.000219663
0.000186657
0.000132062
8.32642e-05
5.75544e-06
-6.46242e-05
-0.000178594
-0.000286548
-0.000467768
-0.000649856
-0.000970939
-0.00132494
-0.00199974
-0.00287655
-0.00477771
-0.00792688
-0.0152846
-0.025198
-0.0278655
-0.0349998
-0.0427621
-0.0538737
-0.0469424
-0.0182761
-0.00530974
-0.00135125
-69.1031
66.1644
0.413728
0.311139
0.233269
0.156855
0.117085
0.0822953
0.0632447
0.0448492
0.0376726
0.035743
0.034713
0.033041
0.0317389
0.029885
0.0285607
0.0268037
0.0255629
0.0239242
0.0227636
0.0212262
0.0201413
0.0187134
0.0177298
0.016482
0.0157302
0.0150103
0.0152408
0.0168946
0.0196178
0.0145992
0.0104441
0.00854861
0.00713807
0.00636856
0.00557235
0.0050761
0.00449639
0.00411898
0.00366072
0.0033571
0.00298198
0.00273006
0.00241391
0.00219707
0.00191776
0.00171793
0.00144789
0.00124422
0.000968347
0.000852795
0.000810011
0.000761988
0.000658946
0.000560833
0.000395955
0.000250941
1.6981e-05
-0.000192129
-0.000536022
-0.000856715
-0.00140327
-0.00194401
-0.0029115
-0.00396199
-0.00599113
-0.00858869
-0.0142832
-0.0236123
-0.0457516
-0.0758837
-0.0834178
-0.104974
-0.128152
-0.162343
-0.141697
-0.0542004
-0.0155689
-0.00393925
-67.3092
63.6003
0.701171
0.517485
0.388715
0.259801
0.194919
0.136461
0.105377
0.0742511
0.0625544
0.0595315
0.0578834
0.0550519
0.0529225
0.049785
0.0476203
0.0446501
0.0426224
0.0398525
0.037956
0.035357
0.033584
0.0311693
0.0295614
0.0274481
0.0262155
0.024975
0.0253382
0.0281106
0.0330395
0.0242941
0.0173066
0.014226
0.0118683
0.0106154
0.00927395
0.00846383
0.00748502
0.00686853
0.00609435
0.00559831
0.00496451
0.00455294
0.00401879
0.00366454
0.00319274
0.00286632
0.00241022
0.00207689
0.0016068
0.00141809
0.00135025
0.00127242
0.00109803
0.00093768
0.000659053
0.000422175
2.72119e-05
-0.000314243
-0.000894379
-0.00141785
-0.002339
-0.00322109
-0.00484874
-0.0065599
-0.00995979
-0.0141769
-0.0236433
-0.0387853
-0.0758989
-0.127473
-0.138409
-0.174884
-0.213102
-0.273006
-0.239125
-0.0881702
-0.024748
-0.00618991
-65.5151
61.0257
1.00642
0.721633
0.544166
0.360185
0.272495
0.189531
0.147511
0.102876
0.0870892
0.0832651
0.0811012
0.0770348
0.0741465
0.0696461
0.0667121
0.0624587
0.0597115
0.055746
0.0531765
0.0494547
0.0470523
0.0435929
0.0414131
0.0383789
0.0367011
0.0348755
0.0353392
0.0392404
0.0470081
0.0339187
0.0240128
0.0198745
0.0165544
0.0148658
0.0129543
0.0118583
0.0104591
0.00962439
0.00851684
0.00784503
0.00693814
0.00638071
0.00561646
0.00513671
0.0044619
0.00401989
0.00336763
0.00291502
0.002234
0.00197855
0.00189088
0.00178671
0.00153655
0.00131926
0.000920479
0.00059973
3.53014e-05
-0.000426811
-0.001255
-0.00196307
-0.0032763
-0.00446835
-0.00678264
-0.00909025
-0.0138958
-0.0195552
-0.0327764
-0.0530795
-0.105468
-0.180689
-0.192379
-0.244724
-0.297184
-0.38742
-0.341236
-0.118639
-0.0321325
-0.00789934
-63.7209
58.4368
1.33733
0.921489
0.699877
0.456717
0.349883
0.240964
0.18975
0.130346
0.111146
0.106932
0.104395
0.0989706
0.0954351
0.0894445
0.0858567
0.0802072
0.0768495
0.0715835
0.0684431
0.0634997
0.060563
0.0559654
0.0532991
0.0492555
0.0471926
0.0446845
0.0452027
0.0502155
0.061811
0.0434159
0.0304883
0.0254903
0.0211752
0.0191251
0.016602
0.0152649
0.0134107
0.0123911
0.0109219
0.0101011
0.00889779
0.00821674
0.00720275
0.00661667
0.00572174
0.00518187
0.00431705
0.00376229
0.00284417
0.00253229
0.00243217
0.00230683
0.00197376
0.00170809
0.00117878
0.000787032
3.92968e-05
-0.000524737
-0.00162043
-0.00248409
-0.00421844
-0.00567073
-0.00871681
-0.0115207
-0.0177976
-0.0246311
-0.0416262
-0.0660902
-0.134123
-0.236445
-0.244723
-0.31456
-0.379756
-0.507291
-0.450404
-0.143663
-0.0370262
-0.00889648
-61.9264
55.8303
1.70249
1.11358
0.856451
0.547797
0.427353
0.290088
0.232317
0.156209
0.134602
0.130532
0.127804
0.120831
0.116822
0.109147
0.105084
0.0978639
0.0940638
0.0873361
0.0837819
0.0774644
0.0741401
0.0682606
0.0652401
0.0600528
0.0577019
0.0543724
0.0548865
0.0609273
0.0778136
0.0526944
0.0366466
0.0310787
0.0257054
0.0234032
0.0202023
0.0186922
0.0163288
0.0151759
0.013301
0.0123725
0.0108365
0.0100661
0.00877191
0.00810898
0.00696737
0.00635683
0.00525405
0.00462408
0.00343009
0.00307755
0.00297447
0.00283526
0.00240826
0.00210746
0.00143158
0.00098857
3.59422e-05
-0.000601398
-0.00199515
-0.00297029
-0.00517187
-0.00680935
-0.0106607
-0.0138122
-0.0216771
-0.0293004
-0.0501773
-0.0773583
-0.161407
-0.295964
-0.294604
-0.384581
-0.459834
-0.634539
-0.569566
-0.160684
-0.0387795
-0.00905847
-60.1316
53.2037
2.11134
1.29239
1.01509
0.631348
0.505497
0.336033
0.275617
0.179892
0.157358
0.154079
0.151384
0.142573
0.138355
0.128705
0.124437
0.115384
0.111395
0.102962
0.0992312
0.0913095
0.0878194
0.0804415