/*--------------------------------*- C++ -*----------------------------------*\
| =========                 |                                                 |
| \\      /  F ield         | OpenFOAM: The Open Source CFD Toolbox           |
|  \\    /   O peration     | Version:  5.x                                   |
|   \\  /    A nd           | Web:      www.OpenFOAM.org                      |
|    \\/     M anipulation  |                                                 |
\*---------------------------------------------------------------------------*/
FoamFile
{
    version     2.0;
    format      ascii;
    class       volScalarField;
    location    "4.5";
    object      T;
}
// * * * * * * * * * * * * * * * * * * * * * * * * * * * * * * * * * * * * * //

dimensions      [0 0 0 1 0 0 0];

internalField   nonuniform List<scalar> 
3200
(
2.08485
2.43604
2.45607
2.60092
2.6101
2.68242
2.68723
2.72908
2.73195
2.75845
2.76021
2.77553
2.77688
2.79359
2.79495
2.8109
2.81218
2.82685
2.82802
2.84128
2.84232
2.85416
2.85509
2.86555
2.86637
2.87557
2.8763
2.88459
2.88532
2.8941
2.90181
2.90236
2.90734
2.90771
2.91152
2.9118
2.91485
2.91508
2.91755
2.91774
2.91976
2.91991
2.92156
2.92168
2.92301
2.92311
2.92417
2.92424
2.92503
2.92508
2.92555
2.92559
2.92607
2.9261
2.92647
2.92649
2.92669
2.9267
2.92667
2.92665
2.92628
2.92623
2.92533
2.92522
2.92342
2.92319
2.9196
2.91911
2.9112
2.90982
2.88734
2.84812
2.84374
2.77999
2.77248
2.65321
2.64826
2.64764
2.64751
2.64748
2.26033
2.52903
2.57088
2.68677
2.70634
2.76417
2.77444
2.8078
2.81391
2.83497
2.83872
2.851
2.85386
2.86709
2.86997
2.8826
2.88531
2.89694
2.89941
2.90992
2.91214
2.92152
2.92349
2.93178
2.93352
2.94082
2.94237
2.94896
2.95053
2.9578
2.96428
2.96547
2.96945
2.97023
2.97325
2.97386
2.97628
2.97677
2.97873
2.97913
2.98073
2.98105
2.98236
2.98262
2.98368
2.98389
2.98472
2.98488
2.98551
2.98562
2.986
2.98608
2.98645
2.98653
2.98682
2.98687
2.98702
2.98704
2.98701
2.98698
2.98668
2.98657
2.98586
2.98561
2.98418
2.98369
2.98081
2.97974
2.97331
2.97025
2.95061
2.9185
2.90914
2.85833
2.84251
2.74986
2.73941
2.73768
2.73732
2.73724
2.42507
2.63109
2.68273
2.77647
2.80106
2.84783
2.86072
2.88761
2.89526
2.91218
2.91688
2.92684
2.93043
2.941
2.9446
2.9547
2.95808
2.96739
2.97047
2.97889
2.98166
2.98917
2.99163
2.99827
3.00044
3.00629
3.00824
3.01354
3.01551
3.02154
3.02696
3.02847
3.03168
3.03266
3.03509
3.03585
3.03778
3.0384
3.03997
3.04047
3.04175
3.04215
3.0432
3.04353
3.04437
3.04464
3.0453
3.04551
3.04601
3.04615
3.04645
3.04656
3.04685
3.04695
3.04718
3.04724
3.04737
3.04738
3.04736
3.04732
3.04708
3.04694
3.04636
3.04606
3.04489
3.04428
3.04194
3.04059
3.03527
3.03134
3.01437
2.98798
2.9762
2.93526
2.91562
2.84322
2.83021
2.82767
2.82712
2.827
2.58156
2.73933
2.7929
2.86893
2.89488
2.93285
2.94645
2.96818
2.97624
2.98987
2.99483
3.00294
3.00671
3.01519
3.01897
3.02707
3.03062
3.03809
3.04133
3.04808
3.051
3.05702
3.05961
3.06494
3.06722
3.07192
3.07397
3.07824
3.08033
3.08529
3.0898
3.0914
3.094
3.09504
3.09699
3.09779
3.09934
3.09999
3.10125
3.10177
3.1028
3.10323
3.10407
3.10441
3.10509
3.10537
3.10591
3.10612
3.10652
3.10667
3.10691
3.10702
3.10726
3.10736
3.10754
3.10761
3.10771
3.10773
3.10771
3.10766
3.10747
3.10732
3.10685
3.10653
3.10559
3.10494
3.10303
3.1016
3.09718
3.09296
3.07852
3.05687
3.04443
3.01135
2.99084
2.93421
2.92059
2.91759
2.9169
2.91675
2.73174
2.85173
2.90217
2.9634
2.98823
3.01884
3.03185
3.04931
3.05701
3.06792
3.07265
3.07921
3.08281
3.08956
3.09316
3.09962
3.103
3.10896
3.11205
3.11743
3.12021
3.12501
3.12748
3.13173
3.13391
3.13766
3.13961
3.14303
3.14504
3.14907
3.15275
3.15429
3.15638
3.15737
3.15893
3.1597
3.16094
3.16155
3.16256
3.16306
3.16388
3.16429
3.16496
3.16529
3.16583
3.16609
3.16652
3.16672
3.16704
3.16718
3.16738
3.16749
3.16768
3.16777
3.16792
3.16798
3.16806
3.16808
3.16806
3.16801
3.16786
3.16772
3.16734
3.16703
3.16627
3.16565
3.1641
3.16272
3.15909
3.15498
3.14295
3.12539
3.11348
3.08693
3.0675
3.02347
3.01054
3.00741
3.00667
3.0065
2.87713
2.96692
3.01101
3.05932
3.08134
3.10553
3.11707
3.13082
3.13764
3.14621
3.1504
3.15559
3.15879
3.16406
3.16724
3.17229
3.17528
3.17994
3.18267
3.18688
3.18934
3.1931
3.19528
3.1986
3.20053
3.20346
3.20519
3.20788
3.20966
3.21286
3.21579
3.21716
3.21881
3.21969
3.22091
3.22159
3.22256
3.2231
3.22389
3.22433
3.22498
3.22534
3.22586
3.22615
3.22658
3.22681
3.22714
3.22732
3.22757
3.2277
3.22785
3.22795
3.2281
3.22818
3.22829
3.22835
3.22841
3.22842
3.22841
3.22837
3.22825
3.22812
3.22782
3.22755
3.22695
3.2264
3.22517
3.22394
3.22101
3.21733
3.2076
3.19368
3.18312
3.16222
3.14515
3.1115
3.10011
3.09713
3.0964
3.09624
3.01892
3.08394
3.11968
3.15629
3.17437
3.19274
3.2022
3.21262
3.2182
3.22467
3.22811
3.23206
3.23468
3.23865
3.24125
3.24505
3.24749
3.251
3.25323
3.25641
3.25841
3.26125
3.26303
3.26553
3.26711
3.26932
3.27073
3.27277
3.27423
3.27666
3.27889
3.28002
3.28127
3.28199
3.28291
3.28347
3.2842
3.28464
3.28524
3.2856
3.28608
3.28638
3.28677
3.28701
3.28733
3.28752
3.28777
3.28792
3.28811
3.28821
3.28833
3.28841
3.28852
3.28858
3.28867
3.28871
3.28876
3.28877
3.28876
3.28873
3.28864
3.28853
3.28831
3.28808
3.28763
3.28717
3.28624
3.28522
3.28296
3.27991
3.27241
3.26184
3.25318
3.23737
3.22346
3.19863
3.18933
3.18676
3.18612
3.18597
3.15811
3.20212
3.22832
3.25401
3.26738
3.28029
3.2873
3.2946
3.29873
3.30326
3.3058
3.30858
3.31052
3.31329
3.31521
3.31786
3.31966
3.32211
3.32376
3.32598
3.32746
3.32944
3.33075
3.3325
3.33366
3.33521
3.33625
3.33768
3.33876
3.34046
3.34204
3.34287
3.34375
3.34428
3.34493
3.34534
3.34585
3.34618
3.34659
3.34686
3.3472
3.34741
3.34769
3.34787
3.34809
3.34823
3.34841
3.34852
3.34865
3.34872
3.34881
3.34886
3.34894
3.34899
3.34905
3.34908
3.34911
3.34912
3.34912
3.34909
3.34903
3.34895
3.34879
3.34863
3.34831
3.34797
3.34731
3.34655
3.34494
3.34267
3.33735
3.32992
3.32351
3.31244
3.3022
3.28514
3.27829
3.27632
3.27582
3.2757
3.29555
3.32102
3.33697
3.35222
3.36041
3.36809
3.37238
3.37671
3.37924
3.38193
3.38348
3.38514
3.38632
3.38796
3.38913
3.3907
3.39181
3.39326
3.39426
3.39557
3.39648
3.39765
3.39846
3.39949
3.4002
3.40112
3.40176
3.4026
3.40327
3.40428
3.40521
3.40572
3.40625
3.40657
3.40695
3.4072
3.40751
3.40771
3.40795
3.40812
3.40832
3.40845
3.40861
3.40872
3.40885
3.40894
3.40904
3.40911
3.40919
3.40923
3.40928
3.40932
3.40936
3.40939
3.40943
3.40945
3.40947
3.40947
3.40947
3.40945
3.40941
3.40937
3.40927
3.40917
3.40898
3.40878
3.40838
3.40792
3.40696
3.40556
3.40238
3.39797
3.39404
3.38747
3.38122
3.37124
3.36705
3.36582
3.3655
3.36542
3.43196
3.4403
3.44565
3.45071
3.45347
3.45601
3.45746
3.4589
3.45975
3.46064
3.46116
3.46171
3.46211
3.46265
3.46305
3.46357
3.46394
3.46442
3.46476
3.46519
3.46549
3.46588
3.46615
3.4665
3.46674
3.46704
3.46725
3.46753
3.46776
3.46809
3.4684
3.46857
3.46875
3.46886
3.46898
3.46907
3.46917
3.46924
3.46932
3.46937
3.46944
3.46948
3.46954
3.46957
3.46962
3.46965
3.46968
3.4697
3.46973
3.46974
3.46976
3.46977
3.46979
3.4698
3.46981
3.46982
3.46982
3.46982
3.46982
3.46982
3.4698
3.46979
3.46976
3.46972
3.46966
3.46959
3.46946
3.4693
3.46898
3.46851
3.46745
3.46599
3.46467
3.46249
3.46039
3.4571
3.4557
3.45528
3.45517
3.45514
3.43138
3.44029
3.44646
3.45313
3.45721
3.46165
3.46448
3.46772
3.46981
3.47221
3.47369
3.47531
3.4765
3.47814
3.47932
3.48087
3.48197
3.48336
3.48434
3.48557
3.48643
3.48751
3.48826
3.48919
3.48985
3.49067
3.49126
3.49202
3.49263
3.49357
3.49444
3.49493
3.49544
3.49577
3.49615
3.49642
3.49673
3.49695
3.49722
3.49741
3.49763
3.49779
3.49798
3.49811
3.49828
3.49839
3.49852
3.49861
3.49872
3.49878
3.49886
3.49891
3.49898
3.49904
3.49911
3.49916
3.49923
3.49927
3.49933
3.49937
3.49942
3.49945
3.4995
3.49952
3.49956
3.49957
3.49958
3.49956
3.49949
3.49932
3.49886
3.49813
3.49735
3.49592
3.4944
3.49187
3.49079
3.49046
3.49038
3.49036
3.29377
3.32097
3.33937
3.35948
3.37161
3.38501
3.39342
3.40321
3.40942
3.41666
3.42105
3.42594
3.42949
3.43443
3.43795
3.44263
3.44589
3.45011
3.45301
3.45674
3.45928
3.46254
3.46476
3.46759
3.46953
3.47202
3.47376
3.47607
3.47789
3.4807
3.48333
3.4848
3.48633
3.4873
3.48847
3.48925
3.49021
3.49086
3.49167
3.49221
3.4929
3.49337
3.49395
3.49434
3.49483
3.49516
3.49557
3.49583
3.49615
3.49634
3.49657
3.49673
3.49696
3.49712
3.49733
3.49749
3.49768
3.49782
3.49799
3.49811
3.49826
3.49836
3.49849
3.49857
3.49867
3.49872
3.49874
3.49869
3.49847
3.49796
3.4966
3.4944
3.49208
3.48777
3.48324
3.47557
3.47234
3.47138
3.47114
3.47108
3.15508
3.202
3.2322
3.26616
3.28596
3.30857
3.3223
3.33884
3.34899
3.36123
3.3684
3.37663
3.38243
3.39078
3.39654
3.40445
3.40977
3.41691
3.42165
3.42794
3.43211
3.43761
3.44124
3.44603
3.4492
3.4534
3.45624
3.46013
3.46311
3.46784
3.47227
3.47466
3.47724
3.47883
3.4808
3.48207
3.48369
3.48475
3.48612
3.48702
3.48818
3.48894
3.48992
3.49056
3.49139
3.49193
3.49262
3.49305
3.49359
3.49391
3.49428
3.49454
3.49493
3.49519
3.49556
3.49581
3.49614
3.49636
3.49665
3.49685
3.4971
3.49727
3.49748
3.49762
3.49778
3.49786
3.49791
3.49782
3.49747
3.49664
3.49438
3.49068
3.48689
3.47963
3.4722
3.45908
3.4538
3.45227
3.45189
3.4518
3.01452
3.0837
3.12489
3.1734
3.2002
3.23248
3.25107
3.27473
3.28847
3.306
3.3157
3.32741
3.33526
3.34723
3.35503
3.36637
3.37358
3.3838
3.39023
3.39924
3.40488
3.41275
3.41767
3.42453
3.42882
3.43483
3.43868
3.44423
3.44826
3.455
3.46129
3.46452
3.46819
3.47034
3.47316
3.47487
3.4772
3.47864
3.4806
3.48181
3.48347
3.4845
3.48591
3.48678
3.48797
3.48869
3.48968
3.49026
3.49103
3.49147
3.492
3.49236
3.49291
3.49327
3.49379
3.49413
3.4946
3.4949
3.49532
3.49558
3.49595
3.49617
3.49648
3.49666
3.4969
3.49701
3.49708
3.49697
3.49648
3.49538
3.49221
3.48695
3.48184
3.4715
3.46139
3.44228
3.43511
3.43312
3.43262
3.43251
2.87118
2.96652
3.01728
3.08151
3.11422
3.15694
3.17964
3.21102
3.22781
3.25109
3.26293
3.27835
3.28793
3.30384
3.31339
3.32846
3.33727
3.35084
3.3587
3.37067
3.37756
3.38801
3.39402
3.40313
3.40838
3.41636
3.42105
3.4284
3.4333
3.44217
3.45043
3.45436
3.4592
3.46182
3.46556
3.46766
3.47075
3.4725
3.47511
3.47659
3.47879
3.48005
3.48192
3.48298
3.48456
3.48545
3.48675
3.48747
3.4885
3.48902
3.48972
3.49016
3.49089
3.49133
3.49203
3.49244
3.49307
3.49344
3.49399
3.49431
3.4948
3.49507
3.49548
3.49571
3.49602
3.49615
3.49626
3.49613
3.49552
3.4942
3.49012
3.48322
3.477
3.46335
3.45094
3.425
3.41621
3.4139
3.41334
3.41322
2.72403
2.85112
2.90913
2.99089
3.02784
3.08221
3.10786
3.14788
3.16688
3.19663
3.21001
3.22952
3.24035
3.26072
3.27153
3.29079
3.30077
3.31812
3.32701
3.3423
3.3501
3.36345
3.37026
3.38188
3.38782
3.39801
3.40332
3.41266
3.41817
3.42936
3.43974
3.44416
3.4503
3.45326
3.45803
3.4604
3.46435
3.46633
3.46966
3.47133
3.47415
3.47557
3.47796
3.47916
3.48118
3.48218
3.48385
3.48467
3.48598
3.48657
3.48746
3.48795
3.48889
3.48939
3.49028
3.49074
3.49155
3.49196
3.49268
3.49304
3.49366
3.49397
3.49449
3.49474
3.49515
3.4953
3.49545
3.49531
3.49459
3.49313
3.48815
3.47947
3.47246
3.45516
3.44103
3.40704
3.39705
3.39462
3.39405
3.39392
2.5718
2.73849
2.80003
2.90205
2.94076
3.00862
3.03551
3.08559
3.10552
3.14282
3.15684
3.18104
3.19238
3.21797
3.22932
3.2535
3.26398
3.28573
3.29506
3.31423
3.32242
3.33915
3.34629
3.36086
3.3671
3.37985
3.38542
3.39707
3.40283
3.41659
3.42929
3.43389
3.44153
3.44463
3.45059
3.45308
3.45802
3.4601
3.46427
3.46603
3.46956
3.47105
3.47405
3.47531
3.47784
3.47889
3.48099
3.48184
3.48348
3.48411
3.48521
3.48572
3.4869
3.48742
3.48855
3.48903
3.49004
3.49048
3.49137
3.49175
3.49253
3.49286
3.49351
3.49378
3.49429
3.49445
3.49465
3.49451
3.49368
3.4922
3.48633
3.47564
3.46833
3.44684
3.43191
3.38812
3.37758
3.37526
3.37474
3.37462
2.4129
2.63006
2.68932
2.81575
2.85251
2.93667
2.96223
3.02451
3.04347
3.08995
3.10327
3.13307
3.14385
3.17579
3.18661
3.21675
3.22673
3.25384
3.26272
3.2866
3.29439
3.31524
3.32203
3.34018
3.34611
3.36199
3.36728
3.38172
3.38716
3.40386
3.41917
3.4235
3.43294
3.43588
3.44329
3.44566
3.45181
3.45379
3.45898
3.46066
3.46506
3.46648
3.47021
3.47141
3.47456
3.47556
3.47817
3.47898
3.48103
3.48163
3.48298
3.48347
3.48494
3.48544
3.48684
3.4873
3.48856
3.48898
3.49009
3.49045
3.49142
3.49173
3.49255
3.4928
3.49344
3.49359
3.49386
3.49374
3.49281
3.49144
3.4847
3.47168
3.46476
3.43826
3.42395
3.36787
3.35779
3.35583
3.35541
3.35531
2.24532
2.52795
2.57591
2.73303
2.76237
2.86706
2.88747
2.96515
2.98032
3.0384
3.04904
3.08586
3.09446
3.13446
3.14312
3.18082
3.1888
3.22267
3.22978
3.25961
3.26585
3.29188
3.29732
3.31998
3.32472
3.34455
3.34877
3.36673
3.37104
3.39119
3.40949
3.4129
3.4246
3.42695
3.4362
3.43809
3.44577
3.44735
3.45384
3.45518
3.46067
3.46181
3.46647
3.46743
3.47136
3.47216
3.47542
3.47607
3.47864
3.47912
3.48079
3.48118
3.48302
3.48342
3.48517
3.48554
3.48711
3.48744
3.48883
3.48912
3.49033
3.49058
3.49161
3.49181
3.49261
3.49274
3.49309
3.493
3.49195
3.4909
3.48331
3.46748
3.46198
3.42919
3.41766
3.34578
3.33768
3.33634
3.33606
3.336
2.06642
2.43522
2.45814
2.65542
2.66922
2.80082
2.81043
2.9083
2.91545
2.98875
2.99376
3.03978
3.04382
3.09438
3.09846
3.14607
3.14983
3.19258
3.19593
3.23357
3.23651
3.26935
3.27192
3.3005
3.30274
3.32773
3.32972
3.35228
3.35429
3.37859
3.4004
3.40198
3.41664
3.41775
3.4294
3.43029
3.43997
3.44072
3.4489
3.44953
3.45646
3.457
3.46288
3.46333
3.46829
3.46867
3.47278
3.47309
3.47633
3.47656
3.47864
3.47883
3.48116
3.48134
3.48355
3.48373
3.48571
3.48587
3.48763
3.48776
3.48929
3.4894
3.4907
3.49079
3.49181
3.49187
3.49234
3.4923
3.49109
3.49063
3.48226
3.46286
3.46029
3.41926
3.41379
3.32113
3.31729
3.31681
3.31671
3.31669
2.06642
2.43522
2.45814
2.65542
2.66922
2.80082
2.81043
2.9083
2.91545
2.98875
2.99376
3.03977
3.04382
3.09438
3.09846
3.14606
3.14983
3.19258
3.19593
3.23356
3.2365
3.26935
3.27192
3.3005
3.30274
3.32773
3.32972
3.35228
3.35429
3.37859
3.40039
3.40198
3.41664
3.41775
3.4294
3.43029
3.43997
3.44072
3.4489
3.44953
3.45646
3.457
3.46288
3.46333
3.46829
3.46867
3.47278
3.47309
3.47633
3.47656
3.47864
3.47883
3.48116
3.48134
3.48355
3.48372
3.48571
3.48587
3.48763
3.48776
3.48929
3.4894
3.4907
3.49079
3.49181
3.49187
3.49234
3.4923
3.49109
3.49063
3.48226
3.46286
3.46029
3.41926
3.41378
3.32113
3.31729
3.3168
3.31671
3.31669
2.24531
2.52794
2.57591
2.73303
2.76237
2.86706
2.88747
2.96515
2.98032
3.0384
3.04904
3.08586
3.09446
3.13446
3.14311
3.18082
3.1888
3.22267
3.22978
3.25961
3.26584
3.29188
3.29732
3.31998
3.32472
3.34455
3.34877
3.36672
3.37104
3.39119
3.40948
3.4129
3.4246
3.42695
3.4362
3.43809
3.44577
3.44735
3.45384
3.45518
3.46067
3.46181
3.46647
3.46743
3.47136
3.47216
3.47542
3.47607
3.47864
3.47912
3.48079
3.48118
3.48302
3.48342
3.48517
3.48554
3.48711
3.48744
3.48883
3.48912
3.49033
3.49058
3.49161
3.49181
3.49261
3.49274
3.49309
3.493
3.49195
3.4909
3.48331
3.46748
3.46198
3.42918
3.41766
3.34577
3.33767
3.33634
3.33606
3.336
2.4129
2.63006
2.68932
2.81574
2.85251
2.93667
2.96223
3.02451
3.04347
3.08995
3.10327
3.13306
3.14385
3.17579
3.18661
3.21675
3.22673
3.25384
3.26272
3.2866
3.29439
3.31524
3.32203
3.34018
3.34611
3.36199
3.36728
3.38172
3.38716
3.40386
3.41917
3.4235
3.43293
3.43588
3.44329
3.44566
3.45181
3.45379
3.45898
3.46066
3.46506
3.46648
3.47021
3.47141
3.47456
3.47556
3.47817
3.47898
3.48103
3.48163
3.48298
3.48347
3.48494
3.48544
3.48684
3.4873
3.48856
3.48898
3.49009
3.49045
3.49142
3.49173
3.49255
3.4928
3.49344
3.49359
3.49386
3.49374
3.49281
3.49144
3.48469
3.47168
3.46476
3.43825
3.42395
3.36786
3.35779
3.35583
3.3554
3.35531
2.5718
2.73849
2.80003
2.90205
2.94076
3.00862
3.03551
3.08559
3.10552
3.14282
3.15684
3.18103
3.19238
3.21797
3.22932
3.2535
3.26398
3.28573
3.29506
3.31423
3.32242
3.33915
3.34629
3.36086
3.3671
3.37985
3.38542
3.39707
3.40283
3.41659
3.42929
3.43389
3.44153
3.44463
3.45059
3.45308
3.45802
3.4601
3.46427
3.46603
3.46956
3.47105
3.47405
3.47531
3.47784
3.47889
3.48099
3.48184
3.48348
3.48411
3.48521
3.48572
3.4869
3.48742
3.48855
3.48903
3.49004
3.49048
3.49137
3.49175
3.49253
3.49286
3.49351
3.49378
3.49429
3.49445
3.49465
3.49451
3.49368
3.4922
3.48633
3.47564
3.46833
3.44684
3.43191
3.38812
3.37758
3.37526
3.37473
3.37462
2.72403
2.85112
2.90913
2.99089
3.02784
3.08221
3.10786
3.14788
3.16688
3.19663
3.21001
3.22952
3.24035
3.26071
3.27153
3.29079
3.30077
3.31812
3.32701
3.3423
3.3501
3.36345
3.37026
3.38188
3.38782
3.39801
3.40332
3.41266
3.41817
3.42936
3.43974
3.44416
3.4503
3.45326
3.45803
3.4604
3.46435
3.46633
3.46966
3.47133
3.47415
3.47557
3.47796
3.47916
3.48118
3.48218
3.48385
3.48466
3.48598
3.48657
3.48746
3.48795
3.48889
3.48939
3.49028
3.49074
3.49155
3.49196
3.49268
3.49304
3.49366
3.49397
3.49449
3.49474
3.49515
3.4953
3.49545
3.49531
3.49459
3.49313
3.48815
3.47947
3.47246
3.45516
3.44103
3.40704
3.39704
3.39462
3.39405
3.39392
2.87118
2.96652
3.01728
3.08151
3.11422
3.15694
3.17964
3.21102
3.22781
3.25109
3.26293
3.27835
3.28793
3.30384
3.31339
3.32846
3.33727
3.35084
3.3587
3.37067
3.37756
3.38801
3.39402
3.40313
3.40838
3.41636
3.42105
3.4284
3.4333
3.44217
3.45043
3.45436
3.4592
3.46182
3.46556
3.46766
3.47075
3.4725
3.4751
3.47658
3.47879
3.48005
3.48192
3.48298
3.48456
3.48545
3.48675
3.48747
3.4885
3.48902
3.48972
3.49016
3.49089
3.49133
3.49203
3.49244
3.49307
3.49344
3.49399
3.49431
3.4948
3.49507
3.49548
3.49571
3.49602
3.49615
3.49626
3.49613
3.49552
3.4942
3.49012
3.48322
3.477
3.46335
3.45094
3.425
3.4162
3.4139
3.41334
3.41321
3.01452
3.0837
3.12489
3.1734
3.2002
3.23248
3.25107
3.27473
3.28847
3.306
3.3157
3.32741
3.33526
3.34723
3.35503
3.36637
3.37358
3.3838
3.39023
3.39924
3.40488
3.41275
3.41767
3.42452
3.42882
3.43483
3.43868
3.44423
3.44826
3.455
3.46129
3.46452
3.46819
3.47034
3.47316
3.47487
3.4772
3.47864
3.4806
3.48181
3.48347
3.4845
3.48591
3.48678
3.48797
3.48869
3.48968
3.49026
3.49103
3.49147
3.492
3.49236
3.49291
3.49327
3.49379
3.49413
3.4946
3.4949
3.49532
3.49558
3.49595
3.49617
3.49648
3.49666
3.4969
3.497
3.49708
3.49697
3.49648
3.49538
3.49221
3.48695
3.48184
3.4715
3.46139
3.44228
3.4351
3.43312
3.43262
3.43251
3.15508
3.202
3.2322
3.26616
3.28596
3.30857
3.3223
3.33884
3.34899
3.36123
3.3684
3.37663
3.38243
3.39078
3.39654
3.40445
3.40977
3.41691
3.42165
3.42794
3.43211
3.43761
3.44124
3.44603
3.4492
3.4534
3.45624
3.46013
3.46311
3.46784
3.47227
3.47466
3.47724
3.47883
3.4808
3.48207
3.48369
3.48475
3.48612
3.48702
3.48818
3.48894
3.48992
3.49056
3.49139
3.49193
3.49262
3.49305
3.49359
3.49391
3.49428
3.49454
3.49493
3.49519
3.49556
3.49581
3.49614
3.49636
3.49665
3.49685
3.4971
3.49727
3.49748
3.49762
3.49778
3.49786
3.49791
3.49782
3.49747
3.49664
3.49438
3.49068
3.48689
3.47963
3.4722
3.45908
3.4538
3.45227
3.45188
3.45179
3.29377
3.32097
3.33937
3.35948
3.37161
3.38501
3.39342
3.40321
3.40942
3.41666
3.42105
3.42594
3.42949
3.43443
3.43795
3.44263
3.44589
3.45011
3.45301
3.45674
3.45928
3.46254
3.46476
3.46759
3.46953
3.47202
3.47376
3.47607
3.47789
3.4807
3.48333
3.4848
3.48633
3.4873
3.48847
3.48925
3.49021
3.49086
3.49167
3.49221
3.4929
3.49337
3.49395
3.49434
3.49483
3.49516
3.49557
3.49583
3.49615
3.49634
3.49657
3.49673
3.49695
3.49712
3.49733
3.49749
3.49768
3.49782
3.49799
3.49811
3.49826
3.49836
3.49849
3.49857
3.49867
3.49872
3.49874
3.49869
3.49847
3.49796
3.4966
3.4944
3.49208
3.48777
3.48324
3.47557
3.47234
3.47138
3.47114
3.47108
3.43138
3.44029
3.44646
3.45313
3.45721
3.46165
3.46448
3.46772
3.46981
3.47221
3.47369
3.47531
3.4765
3.47814
3.47932
3.48087
3.48197
3.48336
3.48434
3.48557
3.48643
3.48751
3.48826
3.48919
3.48985
3.49067
3.49126
3.49202
3.49263
3.49357
3.49444
3.49493
3.49544
3.49577
3.49615
3.49642
3.49673
3.49695
3.49722
3.49741
3.49763
3.49779
3.49798
3.49811
3.49828
3.49839
3.49852
3.49861
3.49872
3.49878
3.49886
3.49891
3.49898
3.49904
3.49911
3.49916
3.49923
3.49927
3.49933
3.49937
3.49942
3.49945
3.4995
3.49952
3.49956
3.49957
3.49958
3.49956
3.49949
3.49932
3.49886
3.49813
3.49735
3.49592
3.4944
3.49187
3.49079
3.49046
3.49038
3.49036
3.43194
3.44028
3.44562
3.45066
3.45339
3.4559
3.4573
3.45865
3.45941
3.46015
3.46067
3.46134
3.46182
3.46244
3.46288
3.46344
3.46383
3.46433
3.46469
3.46513
3.46544
3.46584
3.46612
3.46646
3.46671
3.46701
3.46723
3.46751
3.46774
3.46808
3.46839
3.46856
3.46874
3.46885
3.46898
3.46906
3.46916
3.46923
3.46931
3.46937
3.46943
3.46948
3.46953
3.46957
3.46961
3.46964
3.46968
3.4697
3.46973
3.46974
3.46976
3.46977
3.46979
3.4698
3.46981
3.46982
3.46982
3.46982
3.46982
3.46982
3.4698
3.46979
3.46976
3.46972
3.46966
3.46959
3.46946
3.4693
3.46898
3.46851
3.46745
3.46599
3.46467
3.46249
3.46039
3.4571
3.4557
3.45528
3.45517
3.45514
3.29549
3.32095
3.33687
3.35206
3.36019
3.36775
3.3719
3.37598
3.37823
3.38046
3.38199
3.38403
3.38547
3.38734
3.38864
3.39033
3.3915
3.39301
3.39405
3.3954
3.39633
3.39752
3.39834
3.39939
3.40012
3.40104
3.40169
3.40254
3.40321
3.40423
3.40517
3.40569
3.40622
3.40655
3.40693
3.40718
3.40749
3.40769
3.40794
3.4081
3.40831
3.40844
3.4086
3.40871
3.40885
3.40893
3.40904
3.4091
3.40918
3.40923
3.40928
3.40931
3.40936
3.40939
3.40943
3.40945
3.40947
3.40947
3.40947
3.40945
3.40941
3.40937
3.40927
3.40917
3.40898
3.40878
3.40838
3.40792
3.40695
3.40556
3.40238
3.39797
3.39404
3.38747
3.38122
3.37124
3.36705
3.36582
3.3655
3.36542
3.15803
3.202
3.22815
3.25375
3.26702
3.27973
3.28651
3.29337
3.29705
3.3008
3.3033
3.30675
3.30909
3.31226
3.31438
3.31723
3.31914
3.3217
3.32341
3.32568
3.3272
3.32922
3.33056
3.33234
3.33352
3.33508
3.33614
3.33758
3.33867
3.34039
3.34198
3.34282
3.34371
3.34424
3.34489
3.3453
3.34582
3.34615
3.34657
3.34684
3.34718
3.3474
3.34768
3.34785
3.34808
3.34822
3.3484
3.34851
3.34864
3.34871
3.3488
3.34886
3.34893
3.34898
3.34904
3.34908
3.34911
3.34912
3.34911
3.34909
3.34902
3.34895
3.34879
3.34862
3.3483
3.34797
3.34731
3.34655
3.34494
3.34267
3.33735
3.32992
3.32351
3.31244
3.3022
3.28513
3.27829
3.27632
3.27581
3.2757
3.0188
3.08376
3.11945
3.15593
3.17386
3.19194
3.20111
3.2109
3.21586
3.22119
3.22457
3.22951
3.23268
3.23722
3.2401
3.24418
3.24677
3.25043
3.25274
3.256
3.25806
3.26095
3.26276
3.26531
3.2669
3.26914
3.27057
3.27263
3.27411
3.27655
3.27881
3.27995
3.28121
3.28193
3.28286
3.28342
3.28416
3.28461
3.28521
3.28557
3.28606
3.28635
3.28675
3.28699
3.28731
3.2875
3.28776
3.28791
3.2881
3.2882
3.28832
3.2884
3.28851
3.28857
3.28866
3.28871
3.28875
3.28877
3.28876
3.28872
3.28863
3.28853
3.2883
3.28808
3.28763
3.28717
3.28624
3.28522
3.28296
3.27991
3.27241
3.26184
3.25317
3.23737
3.22346
3.19863
3.18933
3.18676
3.18612
3.18597
2.87698
2.9667
3.01071
3.05885
3.0807
3.10452
3.11569
3.12862
3.13466
3.14165
3.14578
3.15234
3.15622
3.16224
3.16576
3.17118
3.17435
3.17921
3.18203
3.18636
3.18888
3.19271
3.19493
3.19831
3.20026
3.20324
3.20498
3.2077
3.2095
3.21273
3.21568
3.21707
3.21873
3.21962
3.22085
3.22153
3.22251
3.22306
3.22385
3.22429
3.22494
3.2253
3.22583
3.22613
3.22655
3.22679
3.22713
3.22731
3.22756
3.22768
3.22784
3.22794
3.22808
3.22817
3.22828
3.22834
3.2284
3.22842
3.2284
3.22836
3.22824
3.22812
3.22782
3.22755
3.22695
3.2264
3.22517
3.22393
3.22101
3.21732
3.20759
3.19368
3.18312
3.16222
3.14515
3.11149
3.10011
3.09713
3.0964
3.09624
2.73157
2.85146
2.90182
2.96282
2.98746
3.0176
3.0302
3.04661
3.05343
3.06223
3.06689
3.07528
3.07967
3.08737
3.09135
3.09828
3.10186
3.10807
3.11127
3.1168
3.11964
3.12455
3.12706
3.13137
3.13358
3.13738
3.13935
3.14282
3.14484
3.14891
3.15262
3.15418
3.15629
3.15729
3.15886
3.15963
3.16088
3.1615
3.16251
3.16301
3.16384
3.16425
3.16492
3.16526
3.1658
3.16607
3.1665
3.1667
3.16702
3.16717
3.16737
3.16747
3.16766
3.16776
3.1679
3.16797
3.16805
3.16807
3.16805
3.16801
3.16785
3.16771
3.16734
3.16703
3.16627
3.16565
3.1641
3.16272
3.15908
3.15498
3.14294
3.12538
3.11348
3.08693
3.0675
3.02347
3.01054
3.0074
3.00666
3.0065
2.58136
2.73901
2.79249
2.86825
2.894
2.93138
2.94455
2.96499
2.97211
2.98297
2.98785
2.99838
3.00299
3.01264
3.01682
3.02551
3.02927
3.03705
3.04041
3.04734
3.05033
3.05648
3.05911
3.06452
3.06684
3.07159
3.07366
3.07798
3.0801
3.0851
3.08965
3.09127
3.09389
3.09493
3.0969
3.0977
3.09927
3.09992
3.10119
3.10172
3.10275
3.10318
3.10403
3.10438
3.10506
3.10534
3.10588
3.1061
3.1065
3.10665
3.1069
3.10701
3.10725
3.10734
3.10753
3.1076
3.1077
3.10772
3.1077
3.10765
3.10746
3.10731
3.10685
3.10653
3.10558
3.10494
3.10303
3.10159
3.09718
3.09296
3.07851
3.05686
3.04443
3.01134
2.99084
2.93421
2.92059
2.91759
2.9169
2.91675
2.42485
2.63072
2.68228
2.77567
2.80008
2.84613
2.85862
2.88389
2.89065
2.90396
2.90858
2.92172
2.9261
2.93813
2.94211
2.95294
2.95651
2.96621
2.9694
2.97805
2.98089
2.98854
2.99105
2.99779
3
3.00592
3.00788
3.01324
3.01524
3.02132
3.02679
3.02831
3.03155
3.03254
3.03498
3.03575
3.0377
3.03832
3.0399
3.0404
3.04169
3.0421
3.04315
3.04349
3.04434
3.0446
3.04528
3.04548
3.04598
3.04612
3.04643
3.04654
3.04684
3.04693
3.04716
3.04722
3.04735
3.04737
3.04735
3.04731
3.04707
3.04693
3.04635
3.04605
3.04489
3.04427
3.04193
3.04058
3.03527
3.03134
3.01437
2.98797
2.9762
2.93526
2.91562
2.84322
2.83021
2.82767
2.82712
2.827
2.2601
2.5286
2.57039
2.68586
2.70529
2.76223
2.77217
2.80354
2.80892
2.82529
2.82898
2.84541
2.84891
2.86395
2.86713
2.88065
2.88351
2.89563
2.89818
2.90898
2.91125
2.92082
2.92283
2.93124
2.93301
2.9404
2.94197
2.94863
2.95022
2.95756
2.96409
2.96529
2.9693
2.97009
2.97314
2.97375
2.97618
2.97668
2.97865
2.97905
2.98067
2.98099
2.98231
2.98257
2.98364
2.98385
2.98469
2.98485
2.98548
2.98559
2.98597
2.98606
2.98643
2.98651
2.9868
2.98685
2.98701
2.98703
2.987
2.98697
2.98667
2.98656
2.98585
2.98561
2.98417
2.98368
2.9808
2.97974
2.9733
2.97024
2.95061
2.9185
2.90914
2.85832
2.84251
2.74986
2.73941
2.73768
2.73732
2.73724
2.08461
2.43556
2.45556
2.59989
2.609
2.6802
2.68486
2.72423
2.72676
2.74713
2.74886
2.76961
2.77126
2.79023
2.79174
2.8088
2.81015
2.82543
2.82663
2.84026
2.84133
2.8534
2.85434
2.86496
2.86579
2.87511
2.87585
2.88423
2.88496
2.89383
2.9016
2.90216
2.90718
2.90755
2.91139
2.91168
2.91475
2.91498
2.91747
2.91766
2.91969
2.91985
2.9215
2.92163
2.92297
2.92307
2.92413
2.92421
2.925
2.92505
2.92553
2.92557
2.92604
2.92608
2.92645
2.92647
2.92667
2.92668
2.92665
2.92664
2.92627
2.92622
2.92533
2.92521
2.92341
2.92318
2.9196
2.9191
2.9112
2.90981
2.88734
2.84812
2.84374
2.77999
2.77248
2.65321
2.64826
2.64763
2.64751
2.64748
)
;

boundaryField
{
    F1_1
    {
        type            fixedValue;
        value           nonuniform List<scalar> 
80
(
1.99008
2.39617
2.39617
2.56071
2.56071
2.64289
2.64289
2.6905
2.6905
2.72069
2.72069
2.73808
2.73808
2.75715
2.75715
2.77534
2.77534
2.79208
2.79208
2.8072
2.8072
2.8207
2.8207
2.83263
2.83263
2.84312
2.84312
2.85256
2.85256
2.86228
2.87072
2.87072
2.87638
2.87638
2.88072
2.88072
2.88419
2.88419
2.88701
2.88701
2.88931
2.88931
2.89119
2.89119
2.89271
2.89271
2.89391
2.89391
2.8948
2.8948
2.89534
2.89534
2.89588
2.89588
2.8963
2.8963
2.89653
2.89653
2.89649
2.89649
2.89608
2.89608
2.89506
2.89506
2.89301
2.89301
2.88894
2.88894
2.88002
2.88002
2.85605
2.81223
2.81223
2.73969
2.73969
2.6026
2.6026
2.6026
2.6026
2.6026
)
;
    }
    F1_2
    {
        type            fixedValue;
        value           nonuniform List<scalar> 
80
(
1.9696
2.39577
2.39577
2.62028
2.62028
2.77014
2.77014
2.88168
2.88168
2.96529
2.96529
3.01757
3.01757
3.07526
3.07526
3.12956
3.12956
3.17831
3.17831
3.22123
3.22123
3.25869
3.25869
3.29128
3.29128
3.31977
3.31977
3.34546
3.34546
3.37234
3.39625
3.39625
3.41293
3.41293
3.42621
3.42621
3.43725
3.43725
3.44658
3.44658
3.45448
3.45448
3.46119
3.46119
3.46685
3.46685
3.47154
3.47154
3.47524
3.47524
3.47761
3.47761
3.48026
3.48026
3.48278
3.48278
3.48505
3.48505
3.48705
3.48705
3.48879
3.48879
3.49027
3.49027
3.49142
3.49142
3.49197
3.49197
3.49064
3.49064
3.48196
3.46022
3.46022
3.41359
3.41359
3.30703
3.30703
3.30703
3.30703
3.30703
)
;
    }
    F1_3
    {
        type            fixedValue;
        value           nonuniform List<scalar> 
80
(
1.9696
2.39577
2.39577
2.62028
2.62028
2.77014
2.77014
2.88168
2.88168
2.96529
2.96529
3.01757
3.01757
3.07526
3.07526
3.12956
3.12956
3.17831
3.17831
3.22123
3.22123
3.25869
3.25869
3.29128
3.29128
3.31977
3.31977
3.34546
3.34546
3.37234
3.39625
3.39625
3.41293
3.41293
3.42621
3.42621
3.43725
3.43725
3.44658
3.44658
3.45448
3.45448
3.46119
3.46119
3.46685
3.46685
3.47154
3.47154
3.47524
3.47524
3.47761
3.47761
3.48026
3.48026
3.48278
3.48278
3.48505
3.48505
3.48705
3.48705
3.48879
3.48879
3.49027
3.49027
3.49142
3.49142
3.49197
3.49197
3.49064
3.49064
3.48196
3.46022
3.46022
3.41359
3.41359
3.30703
3.30703
3.30703
3.30703
3.30703
)
;
    }
    F1_4
    {
        type            fixedValue;
        value           nonuniform List<scalar> 
80
(
1.98984
2.39565
2.39565
2.55961
2.55961
2.64052
2.64052
2.68532
2.68532
2.70842
2.70842
2.73209
2.73209
2.75373
2.75373
2.77318
2.77318
2.79061
2.79061
2.80615
2.80615
2.81991
2.81991
2.83201
2.83201
2.84264
2.84264
2.85218
2.85218
2.86199
2.8705
2.8705
2.87621
2.87621
2.88058
2.88058
2.88408
2.88408
2.88692
2.88692
2.88924
2.88924
2.89113
2.89113
2.89266
2.89266
2.89387
2.89387
2.89477
2.89477
2.89531
2.89531
2.89586
2.89586
2.89628
2.89628
2.89651
2.89651
2.89648
2.89648
2.89606
2.89606
2.89505
2.89505
2.893
2.893
2.88893
2.88893
2.88002
2.88002
2.85604
2.81223
2.81223
2.73969
2.73969
2.6026
2.6026
2.6026
2.6026
2.6026
)
;
    }
    F2_1
    {
        type            fixedValue;
        value           uniform 3.5;
    }
    F2_2
    {
        type            fixedValue;
        value           uniform 3.5;
    }
    F2_3
    {
        type            fixedValue;
        value           uniform 3.5;
    }
    F2_4
    {
        type            fixedValue;
        value           uniform 3.5;
    }
    defaultFaces
    {
        type            empty;
    }
}


// ************************************************************************* //
