/*--------------------------------*- C++ -*----------------------------------*\
| =========                 |                                                 |
| \\      /  F ield         | OpenFOAM: The Open Source CFD Toolbox           |
|  \\    /   O peration     | Version:  5.x                                   |
|   \\  /    A nd           | Web:      www.OpenFOAM.org                      |
|    \\/     M anipulation  |                                                 |
\*---------------------------------------------------------------------------*/
FoamFile
{
    version     2.0;
    format      ascii;
    class       volScalarField;
    location    "2.2";
    object      gradTx;
}
// * * * * * * * * * * * * * * * * * * * * * * * * * * * * * * * * * * * * * //

dimensions      [0 -1 0 1 0 0 0];

internalField   nonuniform List<scalar> 
6300
(
-29.5449
-29.6132
-29.7493
-29.9517
-30.2184
-30.5463
-30.9314
-31.3685
-31.8513
-32.3721
-32.9221
-33.4915
-34.0697
-34.6463
-35.2112
-29.4765
-29.5456
-29.683
-29.8876
-30.1573
-30.4892
-30.8794
-31.3229
-31.8134
-32.343
-32.9028
-33.4826
-34.0715
-34.6581
-35.2317
-29.3393
-29.4096
-29.5496
-29.7584
-30.034
-30.3738
-30.7743
-31.2305
-31.7363
-32.2838
-32.8637
-33.4649
-34.0755
-34.6828
-35.2747
-29.1318
-29.2039
-29.3477
-29.5624
-29.8465
-30.1979
-30.6134
-31.0887
-31.6176
-32.1924
-32.8032
-33.4379
-34.0829
-34.7233
-35.344
-28.8523
-28.9266
-29.075
-29.297
-29.5918
-29.958
-30.393
-30.8932
-31.4531
-32.0651
-32.7187
-33.4008
-34.0951
-34.7834
-35.4464
-28.4986
-28.5753
-28.7287
-28.959
-29.266
-29.6492
-30.1074
-30.6381
-31.2367
-31.8962
-32.606
-33.3515
-34.1135
-34.8689
-35.5918
-28.0683
-28.1473
-28.3057
-28.5443
-28.8639
-29.2656
-29.7495
-30.3151
-30.9595
-31.677
-32.4577
-33.2857
-34.1387
-34.9869
-35.7948
-27.5591
-27.64
-27.8026
-28.0485
-28.38
-28.7996
-29.3101
-29.9133
-30.6092
-31.3949
-32.2621
-33.1951
-34.1687
-35.1453
-36.0757
-26.9692
-27.0511
-27.2163
-27.4673
-27.8079
-28.243
-28.7781
-29.4187
-30.1693
-31.0313
-32.0007
-33.0642
-34.1956
-35.3502
-36.4611
-26.2973
-26.379
-26.5442
-26.7965
-27.1414
-27.5865
-28.1407
-28.8144
-29.6181
-30.5605
-31.6451
-32.8656
-34.1993
-35.5991
-36.9815
-25.5438
-25.6235
-25.785
-26.0331
-26.375
-26.8208
-27.3838
-28.0801
-28.9283
-29.9475
-31.1538
-32.5538
-34.137
-35.8654
-37.6569
-24.7108
-24.7861
-24.9393
-25.1759
-25.5047
-25.9381
-26.4937
-27.194
-28.0675
-29.1475
-30.4687
-32.0591
-33.9297
-36.0686
-38.448
-23.8026
-23.8709
-24.0103
-24.2267
-24.5296
-24.9335
-25.4589
-26.1347
-27.0002
-28.1066
-29.5145
-31.2842
-33.4542
-36.0314
-39.1026
-22.8262
-22.8847
-23.0045
-23.191
-23.4538
-23.8074
-24.2737
-24.8858
-25.6923
-26.7641
-28.1985
-30.1089
-32.5717
-35.5003
-38.7478
-21.7912
-21.8374
-21.9318
-22.0792
-22.2872
-22.5685
-22.9429
-23.4424
-24.119
-25.0593
-26.4065
-28.3815
-31.2233
-34.6506
-35.2117
-35.7122
-36.1474
-36.5609
-36.9511
-37.3172
-37.6591
-37.9775
-38.2727
-38.5452
-38.795
-39.0216
-39.2242
-39.402
-39.5544
-39.6814
-39.7838
-39.8637
-39.9236
-39.9674
-39.9988
-40.0221
-40.0405
-40.0569
-40.0727
-40.0885
-40.1034
-40.116
-40.1244
-40.1266
-40.1212
-40.1075
-40.0858
-40.0574
-40.0244
-39.9895
-39.9552
-39.924
-39.8975
-39.8762
-39.8598
-39.8468
-39.8352
-39.8225
-39.8063
-39.7847
-39.7567
-39.7223
-39.6825
-39.6391
-39.5946
-39.5513
-39.5114
-39.4764
-39.4467
-39.4218
-39.4001
-39.3795
-39.3574
-39.3315
-39.2997
-39.2611
-39.2155
-39.1639
-39.1081
-39.0505
-38.9934
-38.9392
-38.8892
-38.8441
-38.8035
-38.7663
-38.7306
-38.6945
-38.6562
-38.6146
-38.5697
-38.5227
-38.4762
-38.4336
-38.3993
-38.3779
-38.3734
-38.3894
-38.4279
-38.4894
-38.5722
-38.673
-38.7867
-38.9068
-39.0262
-35.7392
-36.1785
-36.5946
-36.9859
-37.352
-37.6933
-38.0108
-38.3055
-38.578
-38.8285
-39.0562
-39.26
-39.4387
-39.591
-39.7168
-39.8166
-39.8923
-39.9471
-39.9851
-40.0108
-40.029
-40.0436
-40.0577
-40.073
-40.0897
-40.1068
-40.1222
-40.1333
-40.1377
-40.1332
-40.1191
-40.0955
-40.0641
-40.0273
-39.9885
-39.9509
-39.9174
-39.8899
-39.8693
-39.8549
-39.845
-39.8369
-39.8276
-39.814
-39.7939
-39.7659
-39.7301
-39.6876
-39.6409
-39.5928
-39.5464
-39.5045
-39.4687
-39.4398
-39.417
-39.3985
-39.3816
-39.363
-39.3398
-39.3096
-39.2711
-39.2241
-39.1699
-39.1107
-39.0496
-38.9894
-38.9329
-38.8821
-38.8374
-38.7986
-38.764
-38.7312
-38.6976
-38.6608
-38.6192
-38.5726
-38.522
-38.4704
-38.4216
-38.3808
-38.3532
-38.3439
-38.3569
-38.3949
-38.4584
-38.5462
-38.6543
-38.7773
-38.9077
-39.0376
-35.7955
-36.2432
-36.6642
-37.0572
-37.4226
-37.7618
-38.077
-38.3703
-38.6428
-38.8948
-39.1253
-39.3322
-39.5133
-39.6662
-39.7897
-39.884
-39.9512
-39.9949
-40.0205
-40.0339
-40.0411
-40.0475
-40.0569
-40.0713
-40.0905
-40.1127
-40.1346
-40.1522
-40.1614
-40.1593
-40.1443
-40.1166
-40.0784
-40.0333
-39.9859
-39.9408
-39.9021
-39.8726
-39.8534
-39.8435
-39.8405
-39.8404
-39.8388
-39.8313
-39.8145
-39.7866
-39.7474
-39.699
-39.6446
-39.5885
-39.5352
-39.4886
-39.4513
-39.4241
-39.4061
-39.3947
-39.3859
-39.3752
-39.3582
-39.3315
-39.2931
-39.243
-39.1829
-39.1162
-39.0471
-38.9799
-38.9187
-38.8658
-38.8224
-38.7876
-38.759
-38.7328
-38.7052
-38.6721
-38.6311
-38.5809
-38.5229
-38.4602
-38.3981
-38.3431
-38.3021
-38.282
-38.2883
-38.3247
-38.3926
-38.4906
-38.6143
-38.7568
-38.9094
-39.0616
-35.8859
-36.3464
-36.7742
-37.1685
-37.5309
-37.865
-38.1751
-38.465
-38.7373
-38.9923
-39.2284
-39.4419
-39.6285
-39.7838
-39.9048
-39.9908
-40.0439
-40.0691
-40.0736
-40.0659
-40.0546
-40.0473
-40.0491
-40.0626
-40.0871
-40.1192
-40.1534
-40.183
-40.2016
-40.2041
-40.1879
-40.153
-40.1028
-40.0428
-39.9799
-39.9215
-39.8737
-39.8407
-39.824
-39.8224
-39.8318
-39.8462
-39.8585
-39.8619
-39.8512
-39.8233
-39.7783
-39.7189
-39.6507
-39.5801
-39.5144
-39.4594
-39.4191
-39.3951
-39.3858
-39.3871
-39.393
-39.3965
-39.3906
-39.3702
-39.3321
-39.2763
-39.2055
-39.1251
-39.0417
-38.962
-38.8921
-38.8359
-38.7949
-38.7676
-38.7502
-38.7366
-38.7204
-38.695
-38.6558
-38.6005
-38.5302
-38.4491
-38.3643
-38.2849
-38.221
-38.182
-38.1762
-38.2091
-38.2834
-38.3977
-38.5469
-38.722
-38.9112
-39.1007
-36.0187
-36.497
-36.9326
-37.3256
-37.6801
-38.0029
-38.3022
-38.5853
-38.8567
-39.1173
-39.364
-39.5905
-39.7888
-39.9508
-40.0703
-40.145
-40.1769
-40.1731
-40.1443
-40.1031
-40.0626
-40.0339
-40.0247
-40.0382
-40.0729
-40.1229
-40.1788
-40.2298
-40.2651
-40.2761
-40.2582
-40.2117
-40.1414
-40.0564
-39.9678
-39.887
-39.8239
-39.7852
-39.7731
-39.7856
-39.8161
-39.855
-39.8909
-39.9131
-39.9127
-39.8849
-39.8297
-39.7518
-39.66
-39.565
-39.4781
-39.4088
-39.3637
-39.3449
-39.3502
-39.373
-39.4037
-39.431
-39.4441
-39.4342
-39.3965
-39.3309
-39.242
-39.1384
-39.0307
-38.93
-38.8457
-38.7842
-38.7475
-38.7335
-38.7356
-38.7443
-38.7486
-38.7378
-38.7036
-38.6417
-38.5529
-38.4431
-38.3225
-38.2045
-38.1037
-38.0341
-38.008
-38.034
-38.1164
-38.2546
-38.442
-38.6667
-38.9123
-39.1593
-36.2071
-36.7091
-37.1525
-37.5384
-37.8748
-38.1747
-38.453
-38.7226
-38.9918
-39.2623
-39.5287
-39.7799
-40.0017
-40.1791
-40.3007
-40.3607
-40.3615
-40.3134
-40.2328
-40.1395
-40.0538
-39.9926
-39.9676
-39.9833
-40.0368
-40.118
-40.2116
-40.2994
-40.3636
-40.3897
-40.37
-40.3045
-40.2014
-40.0753
-39.9444
-39.8271
-39.7392
-39.6912
-39.687
-39.7228
-39.7883
-39.8679
-39.9434
-39.9967
-40.0136
-39.9859
-39.9137
-39.8049
-39.6738
-39.5383
-39.4164
-39.3236
-39.2703
-39.2601
-39.2893
-39.3474
-39.4191
-39.4861
-39.5306
-39.5382
-39.5011
-39.4189
-39.2997
-39.1574
-39.0096
-38.8743
-38.7665
-38.6964
-38.6675
-38.676
-38.7114
-38.7582
-38.7984
-38.8141
-38.7911
-38.7216
-38.6059
-38.4525
-38.277
-38.0993
-37.9412
-37.8236
-37.7646
-37.7773
-37.8692
-38.0404
-38.2831
-38.5813
-38.9114
-39.2446
-36.4715
-37.0056
-37.4553
-37.8227
-38.1223
-38.3779
-38.6162
-38.8605
-39.1253
-39.4133
-39.7152
-40.012
-40.2783
-40.488
-40.6197
-40.6618
-40.6168
-40.5005
-40.3395
-40.1653
-40.0097
-39.8993
-39.8519
-39.8742
-39.9608
-40.0954
-40.2527
-40.4031
-40.5168
-40.5696
-40.5478
-40.4515
-40.2945
-40.1012
-39.9014
-39.7249
-39.597
-39.5345
-39.5432
-39.6174
-39.7403
-39.887
-40.0277
-40.133
-40.1787
-40.1512
-40.0505
-39.8902
-39.6941
-39.4918
-39.3127
-39.1816
-39.1149
-39.1186
-39.1866
-39.3024
-39.4412
-39.5735
-39.67
-39.7068
-39.6703
-39.5604
-39.3905
-39.1843
-38.9706
-38.7787
-38.6329
-38.5493
-38.5336
-38.5796
-38.6706
-38.7817
-38.8833
-38.9459
-38.9454
-38.8679
-38.7129
-38.4937
-38.2344
-37.9657
-37.7202
-37.5287
-37.4176
-37.4066
-37.5075
-37.7229
-38.0442
-38.45
-38.9059
-39.3683
-36.8431
-37.4237
-37.8768
-38.2046
-38.4333
-38.606
-38.7709
-38.9691
-39.2255
-39.5443
-39.9094
-40.2879
-40.6367
-40.9096
-41.0676
-41.0886
-40.9747
-40.7523
-40.4651
-40.1646
-39.9007
-39.7153
-39.6359
-39.6725
-39.8161
-40.04
-40.304
-40.5597
-40.7579
-40.857
-40.833
-40.686
-40.44
-40.1366
-39.8248
-39.5529
-39.3608
-39.2752
-39.3053
-39.4418
-39.6582
-39.9146
-40.1631
-40.355
-40.4492
-40.422
-40.2732
-40.0268
-39.7235
-39.4121
-39.1399
-38.9466
-38.8583
-38.8843
-39.015
-39.2244
-39.4726
-39.7125
-39.8954
-39.9809
-39.9452
-39.7883
-39.5336
-39.2217
-38.9004
-38.6167
-38.4095
-38.3046
-38.3107
-38.4183
-38.6008
-38.8187
-39.0242
-39.1686
-39.2106
-39.1257
-38.9123
-38.5924
-38.2052
-37.7985
-37.4212
-37.118
-36.9264
-36.8746
-36.9809
-37.2529
-37.6836
-38.2461
-38.8908
-39.5492
-37.3701
-38.0253
-38.4789
-38.7295
-38.825
-38.8455
-38.8778
-38.9939
-39.2358
-39.6089
-40.0843
-40.607
-41.1043
-41.4967
-41.7129
-41.7098
-41.4891
-41.0976
-40.6101
-40.111
-39.679
-39.3787
-39.2528
-39.3169
-39.5557
-39.927
-40.3673
-40.7994
-41.1416
-41.3217
-41.2955
-41.063
-40.6685
-40.184
-39.691
-39.2659
-38.9715
-38.8493
-38.9142
-39.1512
-39.5186
-39.9536
-40.3802
-40.7177
-40.8947
-40.8677
-40.6366
-40.2452
-39.7648
-39.2757
-38.8536
-38.5604
-38.4373
-38.499
-38.7304
-39.0902
-39.5163
-39.9333
-40.2612
-40.4293
-40.3945
-40.1568
-39.7593
-39.2725
-38.776
-38.3443
-38.0388
-37.8998
-37.9416
-38.1489
-38.4801
-38.8734
-39.253
-39.5385
-39.6586
-39.5682
-39.2648
-38.7879
-38.2041
-37.5889
-37.0153
-36.5465
-36.2337
-36.1146
-36.2156
-36.5543
-37.1331
-37.9238
-38.8558
-39.8184
-38.125
-38.9175
-39.3736
-39.4776
-39.325
-39.0681
-38.8641
-38.8375
-39.0576
-39.5261
-40.1912
-40.9627
-41.7232
-42.3374
-42.6742
-42.6444
-42.2495
-41.5809
-40.7722
-39.9608
-39.2678
-38.7909
-38.5965
-38.7098
-39.1048
-39.7147
-40.4424
-41.1686
-41.7589
-42.0837
-42.0551
-41.6733
-41.0265
-40.244
-39.4594
-38.791
-38.3341
-38.154
-38.2754
-38.6731
-39.2814
-40.0048
-40.7257
-41.3115
-41.6342
-41.6072
-41.2308
-40.592
-39.8186
-39.0429
-38.3817
-37.9293
-37.7503
-37.8693
-38.261
-38.8604
-39.573
-40.2823
-40.8569
-41.1701
-41.1361
-40.7552
-40.1134
-39.3374
-38.5579
-37.8904
-37.4281
-37.2347
-37.334
-37.7008
-38.2701
-38.9476
-39.617
-40.1467
-40.4095
-40.3175
-39.8668
-39.1375
-38.2479
-37.3194
-36.4581
-35.7504
-35.2619
-35.0376
-35.108
-35.5098
-36.2771
-37.3978
-38.7768
-40.2286
-39.2117
-40.2945
-40.7751
-40.5955
-39.9751
-39.2146
-38.5951
-38.3262
-38.5217
-39.1603
-40.1451
-41.3345
-42.5527
-43.578
-44.1633
-44.105
-43.4043
-42.2663
-40.9382
-39.6401
-38.5456
-37.7964
-37.4973
-37.6971
-38.3445
-39.3328
-40.5199
-41.7337
-42.7586
-43.3545
-43.3233
-42.6654
-41.58
-40.3069
-39.0608
-38.0115
-37.2981
-37.0245
-37.2389
-37.8918
-38.8786
-40.0597
-41.2658
-42.284
-42.8773
-42.8501
-42.2029
-41.1324
-39.8759
-38.6454
-37.609
-36.9044
-36.6343
-36.8467
-37.4923
-38.4677
-39.6346
-40.8252
-41.8289
-42.4108
-42.3774
-41.7291
-40.6607
-39.4073
-38.1786
-37.1408
-36.4302
-36.1479
-36.3412
-36.961
-37.9043
-39.0336
-40.1818
-41.1392
-41.6712
-41.583
-40.8701
-39.7176
-38.3476
-36.9531
-35.6796
-34.6386
-33.9095
-33.536
-33.5232
-33.9389
-34.9121
-36.4996
-38.5927
-40.8732
-40.7506
-42.5388
-43.1275
-42.3483
-40.8273
-39.1581
-37.8213
-37.1464
-37.3478
-38.296
-39.8044
-41.6651
-43.6601
-45.4523
-46.5792
-46.491
-45.1887
-43.2255
-41.0612
-39.0263
-37.3264
-36.1537
-35.6798
-36.0398
-37.0934
-38.6646
-40.5589
-42.5708
-44.3764
-45.5286
-45.4939
-44.2735
-42.4036
-40.3313
-38.3788
-36.7482
-35.6293
-35.1921
-35.5711
-36.6298
-38.196
-40.0789
-42.0763
-43.8685
-45.0141
-44.9858
-43.7846
-41.9406
-39.8957
-37.9683
-36.3585
-35.254
-34.8235
-35.2003
-36.2489
-37.7992
-39.6621
-41.6373
-43.4082
-44.5377
-44.5038
-43.3079
-41.4746
-39.4416
-37.5242
-35.9202
-34.8154
-34.3762
-34.7343
-35.7553
-37.2705
-39.0921
-41.0213
-42.744
-43.826
-43.748
-42.5061
-40.6109
-38.4825
-36.4126
-34.5659
-33.0777
-32.0449
-31.5149
-31.3212
-31.5649
-32.6625
-34.8734
-38.1382
-41.9277
-42.7339
-46.5107
-47.4496
-45.1694
-41.8929
-38.6233
-36.0945
-34.7046
-35.0987
-36.6252
-38.9565
-41.8024
-45.0595
-48.2849
-50.7451
-50.6252
-47.9252
-44.4743
-40.998
-37.9301
-35.3479
-33.5051
-32.6615
-33.384
-35.0971
-37.5314
-40.4287
-43.7051
-46.935
-49.412
-49.3721
-46.817
-43.5187
-40.1832
-37.2333
-34.7481
-32.9788
-32.1843
-32.9249
-34.6368
-37.0575
-39.9332
-43.1823
-46.3843
-48.8415
-48.8102
-46.2922
-43.0382
-39.7462
-36.8341
-34.3801
-32.6332
-31.8503
-32.5862
-34.283
-36.6806
-39.5278
-42.7435
-45.9111
-48.3398
-48.3036
-45.8043
-42.5759
-39.3093
-36.4184
-33.9806
-32.2419
-31.4563
-32.1725
-33.8381
-36.1953
-38.9954
-42.1582
-45.2714
-47.6511
-47.5887
-45.0826
-41.8397
-38.533
-35.5507
-32.9357
-30.8608
-29.4564
-29.0094
-28.4892
-27.9613
-28.8099
-31.7292
-36.9283
-43.746
-44.176
-54.5692
-56.4075
-49.425
-42.949
-37.0218
-32.7277
-29.6942
-31.2188
-33.7958
-37.3675
-41.3478
-46.5047
-52.2196
-58.6266
-58.4748
-51.7431
-45.7597
-40.347
-36.1346
-32.3048
-29.4179
-27.3881
-29.3017
-32.0623
-35.7317
-39.7528
-44.9065
-50.5779
-56.9199
-56.8724
-50.431
-44.6874
-39.4798
-35.4189
-31.7174
-28.9246
-26.9661
-28.8798
-31.6235
-35.2637
-39.2499
-44.3561
-49.9726
-56.2523
-56.2156
-49.8597
-44.1907
-39.0498
-35.04
-31.3837
-28.6244
-26.6898
-28.5886
-31.308
-34.9147
-38.8628
-43.9188
-49.478
-55.6915
-55.6501
-49.3508
-43.7319
-38.636
-34.6602
-31.0343
-28.2961
-26.3736
-28.2436
-30.9247
-34.4821
-38.3766
-43.3662
-48.8546
-54.9928
-54.9481
-48.7202
-43.16
-38.1164
-34.1596
-30.5277
-27.6784
-25.4892
-26.6091
-25.6684
-22.3754
-21.9752
-25.3022
-33.3871
-47.0919
-38.3667
-74.9472
-78.0674
-52.9516
-43.2147
-33.0689
-27.5456
-18.1201
-25.8238
-29.5339
-35.1903
-39.1988
-47.1466
-55.1577
-75.9531
-75.7997
-54.4835
-46.2237
-37.9676
-33.7883
-27.9041
-24.0963
-16.4364
-23.9997
-27.719
-33.4257
-37.4459
-45.3625
-53.2552
-73.6288
-73.58
-53.0403
-45.0842
-37.1252
-33.0872
-27.3781
-23.669
-16.1719
-23.6398
-27.3194
-32.9715
-36.9539
-44.7953
-52.6061
-72.7587
-72.7206
-52.4383
-44.5826
-36.7246
-32.7368
-27.0956
-23.428
-16.0094
-23.4091
-27.0555
-32.6569
-36.6023
-44.3697
-52.1025
-72.0502
-72.0081
-51.9173
-44.1349
-36.3497
-32.3983
-26.8093
-23.1758
-15.8295
-23.1465
-26.7496
-32.2835
-36.1807
-43.8558
-51.5021
-71.2378
-71.2108
-51.3961
-43.7363
-36.1348
-32.3004
-26.9926
-23.5456
-16.7566
-27.1763
-26.2348
-12.6237
-9.77342
-12.0239
-21.753
-53.6154
-39.1473
-39.2587
-39.3389
-39.3823
-39.3871
-39.3553
-39.2921
-39.2049
-39.1024
-38.9938
-38.888
-38.7931
-38.7157
-38.6612
-38.633
-39.1693
-39.2898
-39.3757
-39.4208
-39.4235
-39.3866
-39.316
-39.22
-39.1084
-38.9909
-38.8771
-38.7754
-38.6928
-38.6347
-38.6047
-39.2156
-39.3554
-39.453
-39.5014
-39.4996
-39.4515
-39.3651
-39.2507
-39.12
-38.9842
-38.8539
-38.7384
-38.6452
-38.5799
-38.5463
-39.2917
-39.4632
-39.5794
-39.6322
-39.6217
-39.5545
-39.4419
-39.2978
-39.1365
-38.9718
-38.8159
-38.6791
-38.5695
-38.4932
-38.4541
-39.4071
-39.6261
-39.769
-39.8263
-39.8004
-39.7027
-39.5502
-39.3618
-39.1562
-38.9504
-38.7586
-38.5924
-38.4605
-38.3693
-38.3226
-39.577
-39.8651
-40.0439
-40.1033
-40.0507
-39.9057
-39.6942
-39.4428
-39.1761
-38.9148
-38.6756
-38.4712
-38.3107
-38.2005
-38.1444
-39.8261
-40.2132
-40.4383
-40.4922
-40.3931
-40.1752
-39.878
-39.539
-39.1903
-38.857
-38.5578
-38.306
-38.1105
-37.9774
-37.91
-40.1949
-40.7232
-41.0036
-41.034
-40.8543
-40.5239
-40.1033
-39.6448
-39.189
-38.765
-38.3924
-38.0841
-37.8479
-37.6884
-37.6081
-40.7513
-41.4811
-41.8188
-41.7856
-41.4662
-40.9625
-40.3663
-39.7479
-39.1559
-38.6213
-38.1627
-37.79
-37.5084
-37.3201
-37.2258
-41.615
-42.6311
-43.0046
-42.8234
-42.262
-41.4936
-40.6514
-39.8243
-39.0651
-38.4017
-37.8468
-37.4048
-37.0756
-36.8576
-36.7491
-43.0088
-44.4236
-44.7449
-44.2412
-43.2649
-42.0981
-40.9212
-39.8328
-38.8783
-38.0732
-37.418
-36.9066
-36.5313
-36.2854
-36.1637
-45.3824
-47.3095
-47.3099
-46.1315
-44.4582
-42.7126
-41.1025
-39.7072
-38.542
-37.5949
-36.8452
-36.2721
-35.8577
-35.5888
-35.4565
-49.739
-52.1219
-51.0536
-48.5163
-45.7235
-43.1916
-41.0687
-39.3513
-37.9874
-36.9189
-36.0958
-35.4786
-35.0385
-34.7554
-34.6169
-58.6204
-60.3853
-56.2662
-51.1563
-46.7277
-43.2613
-40.6295
-38.6417
-37.1371
-35.9976
-35.1402
-34.5079
-34.0621
-33.7774
-33.6387
-79.534
-74.5324
-62.4694
-53.1146
-46.7695
-42.4963
-39.546
-37.4486
-35.9217
-34.794
-33.9594
-33.3506
-32.9243
-32.6534
-32.5216
-20.8002
-20.8331
-20.9002
-21.0044
-21.1508
-21.3476
-21.6085
-21.9571
-22.4352
-23.1235
-24.1885
-26.0034
-29.4509
-36.499
-49.2482
-19.8765
-19.8964
-19.9366
-19.9981
-20.0827
-20.1931
-20.3346
-20.5168
-20.7586
-21.1022
-21.6515
-22.7079
-25.3391
-34.2228
-73.9337
-18.939
-18.9456
-18.9583
-18.9759
-18.9966
-19.0171
-19.0326
-19.035
-19.0114
-18.9381
-18.7622
-18.3189
-16.8855
-10.5408
24.4978
-17.997
-17.9906
-17.9766
-17.9517
-17.9107
-17.8447
-17.7396
-17.5714
-17.2988
-16.8452
-16.0588
-14.6175
-11.8425
-6.78542
-3.42874
-17.0594
-17.0411
-17.0024
-16.9387
-16.8421
-16.6996
-16.4904
-16.1804
-15.7119
-14.9834
-13.8103
-11.8422
-8.38452
-1.84942
13.4749
-16.1346
-16.1058
-16.0456
-15.9486
-15.8053
-15.6008
-15.3113
-14.8996
-14.3054
-13.4305
-12.1138
-10.1013
-7.06363
-3.01729
-1.47736
-15.2297
-15.1922
-15.1144
-14.9907
-14.8112
-14.5609
-14.2172
-13.7455
-13.094
-12.1845
-10.9005
-9.07233
-6.44322
-2.44482
5.58837
-14.351
-14.3067
-14.2153
-14.0714
-13.8662
-13.5861
-13.2119
-12.7163
-12.0619
-11.1985
-10.0651
-8.59963
-6.77374
-4.6745
-2.71469
-13.5032
-13.4538
-13.3526
-13.1949
-12.9732
-12.6766
-12.2909
-11.7975
-11.1747
-10.4001
-9.46021
-8.37727
-7.29409
-6.80757
-9.6562
-12.6897
-12.6368
-12.5291
-12.3629
-12.1321
-11.8291
-11.4447
-10.9687
-10.3931
-9.71659
-8.9547
-8.15508
-7.40013
-6.62478
-3.94015
-11.9129
-11.8579
-11.7465
-11.5756
-11.3412
-11.0383
-10.662
-10.209
-9.68152
-9.09237
-8.47542
-7.9019
-7.52034
-7.76809
-10.9945
-11.1744
-11.1183
-11.005
-10.8325
-10.5979
-10.2985
-9.93249
-9.50124
-9.01277
-8.48747
-7.96599
-7.51544
-7.20354
-6.84309
-4.11979
-10.4749
-10.4184
-10.3048
-10.1325
-9.89969
-9.60497
-9.24833
-8.83318
-8.36964
-7.87992
-7.40733
-7.03271
-6.92049
-7.55913
-11.5226
-9.8145
-9.75831
-9.64533
-9.47447
-9.24448
-8.95446
-8.60482
-8.19874
-7.74469
-7.26052
-6.78064
-6.36777
-6.11603
-5.96645
-3.70433
-9.19317
-9.13764
-9.02607
-8.85755
-8.63097
-8.34537
-8.00051
-7.59764
-7.14067
-6.63814
-6.10745
-5.59096
-5.24065
-5.84097
-12.2878
-8.61043
-8.5559
-8.44637
-8.28095
-8.05845
-7.77746
-7.43652
-7.03411
-6.56831
-6.03532
-5.42441
-4.69875
-3.70511
-1.65554
6.22009
-8.06558
-8.01237
-7.90549
-7.74402
-7.52657
-7.25119
-6.91522
-6.51461
-6.04262
-5.48664
-4.82105
-3.99265
-2.90287
-1.51606
-1.37061
-7.55768
-7.50612
-7.40254
-7.24598
-7.03491
-6.76702
-6.43881
-6.04469
-5.57528
-5.01407
-4.33078
-3.46807
-2.30691
-0.514582
3.5206
-7.08561
-7.03601
-6.93639
-6.7858
-6.58272
-6.32476
-6.00818
-5.62705
-5.17171
-4.62627
-3.96513
-3.15074
-2.14925
-1.07068
-1.16655
-6.64798
-6.60066
-6.50563
-6.36209
-6.16866
-5.92321
-5.62238
-5.26096
-4.83071
-4.31884
-3.70589
-2.96333
-2.04514
-0.811234
1.65322
-6.24322
-6.19844
-6.10857
-5.97302
-5.79073
-5.56011
-5.27868
-4.94266
-4.54641
-4.08159
-3.53667
-2.8979
-2.16026
-1.40635
-1.38888
-5.86958
-5.82752
-5.74325
-5.6164
-5.44638
-5.23231
-4.97287
-4.66621
-4.30971
-3.89998
-3.43263
-2.90112
-2.28667
-1.49006
0.112803
-5.52513
-5.48593
-5.4075
-5.28976
-5.13263
-4.93601
-4.69988
-4.42435
-4.11
-3.75838
-3.37314
-2.96193
-2.53959
-2.13368
-1.80398
-5.20792
-5.17159
-5.09904
-4.99048
-4.84629
-4.66716
-4.45423
-4.20945
-3.93616
-3.64014
-3.33169
-3.03046
-2.7811
-2.72437
-3.4918
-4.91593
-4.88241
-4.81559
-4.71593
-4.58422
-4.42178
-4.23071
-4.01436
-3.7781
-3.53053
-3.28524
-3.06297
-2.88883
-2.74275
-2.14313
-4.64721
-4.61636
-4.55496
-4.46363
-4.34349
-4.19628
-4.02473
-3.83309
-3.62791
-3.41932
-3.2228
-3.06205
-2.9771
-3.07605
-3.94751
-4.39991
-4.37152
-4.31509
-4.23135
-4.12156
-3.98768
-3.83271
-3.66122
-3.48008
-3.29972
-3.13551
-3.0085
-2.93764
-2.8729
-2.21113
-4.17233
-4.14616
-4.09418
-4.01715
-3.91635
-3.79372
-3.65217
-3.49603
-3.33172
-3.1689
-3.02239
-2.91595
-2.89394
-3.08431
-4.16123
-3.96291
-3.93871
-3.89066
-3.81946
-3.72629
-3.61288
-3.48176
-3.33651
-3.18231
-3.02675
-2.88143
-2.76478
-2.70273
-2.68005
-2.1084
-3.77029
-3.74783
-3.7032
-3.63702
-3.55027
-3.44435
-3.32114
-3.1832
-3.03383
-2.87747
-2.72057
-2.57569
-2.48419
-2.65694
-4.40964
-3.59326
-3.57232
-3.53069
-3.46886
-3.38756
-3.28779
-3.17076
-3.03781
-2.89021
-2.72857
-2.55135
-2.34951
-2.08213
-1.5366
0.57446
-3.43076
-3.41118
-3.37221
-3.31421
-3.23768
-3.14322
-3.03142
-2.90259
-2.75632
-2.59048
-2.39921
-2.16885
-1.87321
-1.5033
-1.47835
-3.28184
-3.2635
-3.22693
-3.1724
-3.10022
-3.01068
-2.90389
-2.77947
-2.636
-2.47003
-2.2742
-2.0335
-1.71586
-1.23031
-0.134763
-3.14566
-3.12845
-3.09412
-3.04285
-2.97481
-2.89011
-2.78859
-2.66956
-2.5313
-2.37032
-2.18032
-1.95158
-1.67509
-1.38078
-1.41008
-3.02141
-3.00527
-2.97306
-2.92492
-2.86095
-2.78119
-2.68544
-2.573
-2.44237
-2.29073
-2.11334
-1.9028
-1.64669
-1.30636
-0.629826
-2.90835
-2.89323
-2.86306
-2.81796
-2.75804
-2.68338
-2.59385
-2.48905
-2.368
-2.229
-2.06935
-1.88565
-1.67675
-1.46524
-1.45642
-2.80577
-2.79163
-2.76342
-2.72127
-2.66536
-2.59586
-2.51286
-2.41635
-2.30609
-2.1816
-2.04205
-1.88599
-1.7086
-1.48319
-1.03999
-2.713
-2.69978
-2.67343
-2.63412
-2.5821
-2.51769
-2.44124
-2.35319
-2.25406
-2.14462
-2.02618
-1.90112
-1.77379
-1.65219
-1.55352
-2.62939
-2.61703
-2.59242
-2.55577
-2.50743
-2.44785
-2.37766
-2.29769
-2.20915
-2.11388
-2.01491
-1.91779
-1.83498
-1.8051
-1.99897
-2.55434
-2.54277
-2.51974
-2.48553
-2.44054
-2.38537
-2.32084
-2.24813
-2.16891
-2.08569
-2.00232
-1.92452
-1.85939
-1.80243
-1.62738
-2.48732
-2.47643
-2.45481
-2.42274
-2.3807
-2.32936
-2.26969
-2.20306
-2.13141
-2.0576
-1.98583
-1.92244
-1.87811
-1.88158
-2.08682
-2.42782
-2.41754
-2.39711
-2.36686
-2.32729
-2.27911
-2.22336
-2.16144
-2.09539
-2.02806
-1.9635
-1.9071
-1.86361
-1.82043
-1.62578
-2.37545
-2.36565
-2.34621
-2.31744
-2.27983
-2.23411
-2.18127
-2.12268
-2.06023
-1.99657
-1.93549
-1.88278
-1.84886
-1.86426
-2.09356
-2.32986
-2.32045
-2.30176
-2.27412
-2.23798
-2.19402
-2.14315
-2.08657
-2.02589
-1.96325
-1.90165
-1.84539
-1.79986
-1.75934
-1.58222
-2.29078
-2.28165
-2.26352
-2.23667
-2.20153
-2.15871
-2.10897
-2.05329
-1.99288
-1.92919
-1.86408
-1.80053
-1.74734
-1.74904
-2.08733
-2.25802
-2.24907
-2.23129
-2.20494
-2.1704
-2.12817
-2.07888
-2.02327
-1.96212
-1.89609
-1.82539
-1.74846
-1.65668
-1.50477
-1.02162
-2.23144
-2.22259
-2.205
-2.17888
-2.14457
-2.1025
-2.05316
-1.99707
-1.93471
-1.86622
-1.79099
-1.70667
-1.60777
-1.49023
-1.42738
-2.21098
-2.20215
-2.18459
-2.15848
-2.12412
-2.08185
-2.03208
-1.97521
-1.91152
-1.84099
-1.76288
-1.67498
-1.57175
-1.43745
-1.19959
-2.19663
-2.18775
-2.17008
-2.14379
-2.10911
-2.06637
-2.01591
-1.95805
-1.89305
-1.82099
-1.74154
-1.65391
-1.5573
-1.45627
-1.39787
-2.18841
-2.17943
-2.16153
-2.13488
-2.09968
-2.05623
-2.00483
-1.94581
-1.87947
-1.80608
-1.72586
-1.63903
-1.54588
-1.4452
-1.31624
-2.1864
-2.17725
-2.15903
-2.13186
-2.09596
-2.05158
-1.99902
-1.93861
-1.87074
-1.79588
-1.71474
-1.62852
-1.53964
-1.45346
-1.38585
-2.19072
-2.18136
-2.1627
-2.13488
-2.09809
-2.05258
-1.99862
-1.93657
-1.86684
-1.79002
-1.7071
-1.61982
-1.5315
-1.44853
-1.38219
-2.2015
-2.19188
-2.1727
-2.14409
-2.10625
-2.0594
-2.00382
-1.93982
-1.86781
-1.78837
-1.70245
-1.6118
-1.51963
-1.43173
-1.36026
-2.21894
-2.209
-2.18921
-2.15969
-2.12063
-2.07225
-2.01482
-1.9486
-1.87392
-1.79117
-1.70105
-1.60482
-1.50475
-1.4032
-1.28945
-2.24323
-2.23294
-2.21245
-2.18188
-2.14144
-2.09136
-2.03188
-1.96323
-1.88559
-1.79907
-1.70386
-1.60048
-1.49088
-1.38283
-1.31668
-2.27463
-2.26394
-2.24264
-2.21089
-2.1689
-2.11695
-2.05528
-1.98407
-1.90338
-1.81297
-1.7123
-1.60042
-1.47589
-1.33303
-1.12249
-2.31343
-2.30227
-2.28005
-2.24696
-2.20326
-2.14926
-2.08526
-2.01147
-1.92787
-1.83397
-1.72848
-1.60911
-1.47361
-1.32993
-1.2666
-2.35993
-2.34824
-2.32498
-2.29037
-2.24473
-2.18847
-2.122
-2.04564
-1.95949
-1.86298
-1.75428
-1.62897
-1.47697
-1.2707
-0.883778
-2.41452
-2.40222
-2.37775
-2.3414
-2.29355
-2.23474
-2.16555
-2.08659
-1.99825
-1.90041
-1.79158
-1.66732
-1.51798
-1.3366
-1.24805
-2.47761
-2.4646
-2.43874
-2.40036
-2.34995
-2.28817
-2.21587
-2.134
-2.04358
-1.94544
-1.83956
-1.72306
-1.58121
-1.3377
-0.536657
-2.5497
-2.53587
-2.50839
-2.46764
-2.4142
-2.34888
-2.27278
-2.18731
-2.09424
-1.99579
-1.89487
-1.79637
-1.71501
-1.72563
-2.30067
-2.63136
-2.61658
-2.58723
-2.5437
-2.48666
-2.41704
-2.33617
-2.24586
-2.1486
-2.04783
-1.94847
-1.85775
-1.7849
-1.72126
-1.43398
-2.72323
-2.70738
-2.67586
-2.62911
-2.56781
-2.49298
-2.40608
-2.3092
-2.20535
-2.09885
-1.99604
-1.90668
-1.84835
-1.87184
-2.24897
-2.82609
-2.80901
-2.77504
-2.72458
-2.65832
-2.57725
-2.48287
-2.37735
-2.26391
-2.14726
-2.03422
-1.93402
-1.85495
-1.7765
-1.44636
-2.94077
-2.92233
-2.88562
-2.831
-2.75907
-2.67073
-2.56735
-2.45097
-2.32466
-2.19311
-2.06347
-1.94664
-1.86108
-1.85558
-2.18811
-3.06821
-3.0483
-3.0086
-2.9494
-2.87117
-2.77462
-2.66082
-2.53143
-2.389
-2.23762
-2.08377
-1.93752
-1.81159
-1.69957
-1.38887
-3.20945
-3.18796
-3.14508
-3.08098
-2.99595
-2.89044
-2.76509
-2.62091
-2.45953
-2.28379
-2.09876
-1.91424
-1.75239
-1.68118
-1.99611
-3.36557
-3.34245
-3.29625
-3.22705
-3.13493
-3.02001
-2.8824
-2.72228
-2.53999
-2.33636
-2.11336
-1.87519
-1.63023
-1.39427
-1.20152
-3.53771
-3.51293
-3.46336
-3.38898
-3.2897
-3.16529
-3.01531
-2.83901
-2.63523
-2.40236
-2.13845
-1.84081
-1.50178
-1.077
-0.273933
-3.72702
-3.70058
-3.64767
-3.56818
-3.46188
-3.32828
-3.16646
-2.97479
-2.75062
-2.48989
-2.18693
-1.83515
-1.43283
-1.02209
-0.972156
-3.93466
-3.90658
-3.85039
-3.76595
-3.65298
-3.51084
-3.33829
-3.13309
-2.89136
-2.6067
-2.26926
-1.86455
-1.3697
-0.716271
0.546101
-4.16175
-4.13206
-4.07268
-3.9835
-3.8643
-3.71447
-3.53276
-3.31674
-3.06186
-2.76014
-2.39827
-1.95652
-1.41666
-0.832977
-0.834466
-4.40941
-4.37814
-4.31562
-4.22188
-4.09684
-3.94019
-3.75103
-3.52732
-3.26485
-2.9553
-2.58273
-2.11658
-1.49402
-0.54297
1.55773
-4.67876
-4.64587
-4.5802
-4.48194
-4.3513
-4.18845
-3.99325
-3.7648
-3.5005
-3.19418
-2.83213
-2.38523
-1.79948
-1.05098
-0.923318
-4.9709
-4.93633
-4.86738
-4.76444
-4.62809
-4.45914
-4.25852
-4.02712
-3.7653
-3.47174
-3.14041
-2.75026
-2.21792
-1.12753
3.0147
-5.28701
-5.25063
-5.17814
-5.0701
-4.92749
-4.75178
-4.54512
-4.31053
-4.0521
-3.77549
-3.48951
-3.214
-3.02387
-3.32307
-6.6668
-5.62834
-5.58996
-5.51353
-5.39974
-5.24983
-5.06586
-4.85109
-4.61046
-4.3515
-4.0857
-3.8313
-3.61842
-3.48997
-3.40405
-2.17587
-5.99627
-5.95569
-5.87484
-5.75441
-5.59578
-5.40131
-5.17497
-4.92309
-4.65562
-4.38797
-4.14422
-3.96417
-3.92652
-4.27794
-6.37591
-6.39235
-6.34936
-6.26358
-6.13559
-5.96658
-5.75886
-5.51654
-5.2465
-4.95983
-4.67359
-4.41289
-4.21101
-4.09284
-3.93867
-2.49054
-6.81825
-6.77269
-6.6816
-6.5452
-6.36423
-6.14041
-5.87731
-5.58143
-5.2637
-4.94145
-4.64066
-4.39969
-4.28415
-4.49767
-6.26339
-7.27575
-7.22759
-7.13103
-6.98574
-6.79158
-6.5492
-6.26082
-5.93149
-5.57069
-5.19437
-4.82687
-4.50123
-4.24693
-3.97847
-2.60007
-7.76665
-7.71607
-7.61428
-7.46016
-7.25238
-6.98989
-6.67274
-6.30336
-5.88842
-5.44112
-4.98399
-4.55321
-4.21951
-4.22976
-5.91977
-8.29264
-8.24006
-8.13382
-7.97181
-7.75114
-7.4685
-7.12088
-6.70685
-6.22858
-5.69468
-5.12276
-4.53774
-3.95321
-3.31425
-2.47438
-8.85511
-8.80129
-8.69204
-8.52416
-8.2929
-7.9922
-7.6151
-7.1549
-6.60735
-5.9746
-5.2706
-4.52192
-3.72466
-2.53798
1.55347
-9.45491
-9.40096
-9.29093
-9.12046
-8.88286
-8.56891
-8.16698
-7.66356
-7.04526
-6.30395
-5.44943
-4.53978
-3.76652
-3.77861
-7.3828
-10.0921
-10.0395
-9.93175
-9.76336
-9.52578
-9.20668
-8.7893
-8.25198
-7.56853
-6.7119
-5.6665
-4.4629
-3.26298
-2.52404
-3.01857
-10.7658
-10.7164
-10.6146
-10.4543
-10.2253
-9.91264
-9.49489
-8.94183
-8.21204
-7.2509
-5.99339
-4.38343
-2.43927
-0.412215
1.00101
-11.4738
-11.4296
-11.3381
-11.1928
-10.9828
-10.6916
-10.2944
-9.75437
-9.01616
-7.99567
-6.56497
-4.53601
-1.67309
2.12656
6.00078
-12.2124
-12.1756
-12.0989
-11.9761
-11.7967
-11.5441
-11.193
-10.7045
-10.0163
-9.02526
-7.55194
-5.2677
-1.55742
4.61422
13.6897
-12.9766
-12.9491
-12.8917
-12.7988
-12.6613
-12.4648
-12.1871
-11.7933
-11.2266
-10.3897
-9.10197
-6.98967
-3.15101
5.08598
27.6799
-156.431
-93.9736
-65.6728
-52.1508
-44.9083
-40.5823
-37.7709
-35.8319
-34.4414
-33.422
-32.67
-32.1222
-31.7389
-31.4952
-31.3768
-194.669
-87.9243
-58.3218
-46.9136
-41.1908
-37.7903
-35.5512
-33.9812
-32.8379
-31.9888
-31.3559
-30.8912
-30.5641
-30.3554
-30.2536
50.4064
-28.301
-38.3359
-37.7279
-35.8606
-34.1915
-32.8667
-31.8341
-31.0301
-30.4053
-29.925
-29.5645
-29.307
-29.1411
-29.0598
-7.30759
-16.3662
-25.7407
-29.4165
-30.3926
-30.3535
-29.9792
-29.5283
-29.0975
-28.7215
-28.4107
-28.1663
-27.9862
-27.8679
-27.8094
27.7772
-4.21116
-17.1031
-22.9797
-25.6296
-26.748
-27.1447
-27.2084
-27.1269
-26.9924
-26.8502
-26.7232
-26.6224
-26.5532
-26.5182
-1.43562
-5.31697
-13.3371
-18.7837
-21.93
-23.6438
-24.5415
-24.9891
-25.1931
-25.2683
-25.2792
-25.2618
-25.2365
-25.2148
-25.2026
12.2459
-3.54802
-11.3583
-16.1849
-19.2252
-21.1061
-22.2507
-22.939
-23.3484
-23.5889
-23.7277
-23.8058
-23.8482
-23.8696
-23.8784
-3.30671
-7.32273
-11.4515
-14.8266
-17.3253
-19.0796
-20.2768
-21.0824
-21.6211
-21.9801
-22.2183
-22.3746
-22.4742
-22.533
-22.5603
-16.072
-11.0186
-12.0679
-14.0768
-15.9424
-17.44
-18.5748
-19.4112