/*--------------------------------*- C++ -*----------------------------------*\
| =========                 |                                                 |
| \\      /  F ield         | OpenFOAM: The Open Source CFD Toolbox           |
|  \\    /   O peration     | Version:  5.x                                   |
|   \\  /    A nd           | Web:      www.OpenFOAM.org                      |
|    \\/     M anipulation  |                                                 |
\*---------------------------------------------------------------------------*/
FoamFile
{
    version     2.0;
    format      ascii;
    class       volScalarField;
    location    "2.2";
    object      gradTy;
}
// * * * * * * * * * * * * * * * * * * * * * * * * * * * * * * * * * * * * * //

dimensions      [0 -1 0 1 0 0 0];

internalField   nonuniform List<scalar> 
6300
(
32285.3
32255.7
32226.1
32196.3
32166.3
32135.9
32105.2
32074.1
32042.5
32010.4
31977.8
31944.6
31910.8
31876.5
31841.5
0.0515116
0.154058
0.255146
0.353704
0.448509
0.538148
0.621003
0.695266
0.759004
0.810276
0.847309
0.868736
0.873864
0.862939
0.837322
0.0863686
0.258351
0.428015
0.593628
0.753195
0.904379
1.04446
1.17037
1.27874
1.36614
1.42936
1.46582
1.47407
1.45434
1.40886
0.121983
0.364971
0.604943
0.839611
1.06628
1.28173
1.48213
1.66303
1.81947
1.94622
2.0382
2.09114
2.10232
2.07152
2.00178
0.158574
0.474607
0.787179
1.09359
1.39059
1.67414
1.9393
2.18015
2.38989
2.56106
2.68611
2.75822
2.77255
2.72764
2.62695
0.19628
0.587706
0.975573
1.357
1.72835
2.08493
2.42077
2.7284
2.9989
3.22204
3.38695
3.4831
3.50202
3.43956
3.29852
0.235122
0.704364
1.17041
1.63049
2.08088
2.51649
2.93045
3.3138
3.65526
3.94127
4.15655
4.28521
4.31289
4.23006
4.03642
0.274968
0.824221
1.37121
1.91367
2.4482
2.96969
3.47074
3.94109
4.36706
4.73126
5.01279
5.18829
5.23429
5.13139
4.87094
0.315496
0.946347
1.57653
2.2048
2.82858
3.44334
4.04175
4.61278
5.14065
5.60392
5.97506
6.22089
6.30462
6.19026
5.85089
0.356168
1.06914
1.78378
2.50041
3.21798
3.93333
4.64016
5.32766
5.97883
6.56871
7.06266
7.41561
7.57304
7.47416
7.0579
0.396204
1.19026
1.98906
2.79508
3.6096
4.43186
5.25792
6.07885
6.87833
7.62946
8.29127
8.80588
9.09779
9.07546
8.62826
0.434593
1.30663
2.18713
3.08128
3.99348
4.92661
5.88081
6.85152
7.8262
8.77955
9.66712
10.4189
10.9368
11.1017
10.7708
0.470128
1.41456
2.37154
3.34943
4.35644
5.40028
6.48722
7.62024
8.79543
9.99545
11.1788
12.2656
13.129
13.6237
13.6972
0.501486
1.50995
2.53506
3.58845
4.68259
5.83088
7.04757
8.3468
9.73983
11.228
12.7871
14.3359
15.6898
16.5668
17.0706
0.527355
1.5887
2.67028
3.78675
4.9546
6.19309
7.52538
8.97959
10.5891
12.3897
14.4057
16.6013
18.7274
19.8832
17.5606
31809
31779
31748.7
31718.1
31687.1
31655.8
31624.3
31592.5
31560.5
31528.3
31495.8
31463.2
31430.4
31397.5
31364.5
31331.3
31298.1
31264.9
31231.6
31198.2
31164.9
31131.5
31098.1
31064.8
31031.4
30997.9
30964.5
30931.1
30897.6
30864.2
30830.8
30797.3
30763.9
30730.6
30697.2
30663.9
30630.6
30597.4
30564.2
30530.9
30497.7
30464.5
30431.3
30398.1
30365
30331.8
30298.7
30265.6
30232.6
30199.6
30166.6
30133.6
30100.7
30067.9
30035
30002.2
29969.3
29936.5
29903.7
29871
29838.2
29805.5
29772.9
29740.2
29707.7
29675.2
29642.7
29610.3
29577.9
29545.5
29513.2
29480.9
29448.7
29416.4
29384.2
29352.1
29319.9
29287.9
29255.8
29223.8
29191.8
29159.9
29127.9
29095.9
29063.9
29031.8
28999.6
28967.4
28935
28902.5
0.802651
0.764804
0.722794
0.678728
0.634368
0.590902
0.548815
0.507912
0.467481
0.426563
0.384279
0.340134
0.294238
0.247401
0.201072
0.157131
0.117579
0.0841838
0.0581514
0.0398957
0.0289426
0.0239856
0.0230799
0.0239401
0.0242939
0.0222337
0.0165109
0.00672325
-0.00663776
-0.0222919
-0.0384141
-0.0529753
-0.0641194
-0.0705041
-0.0715435
-0.0675139
-0.0595073
-0.0492467
-0.0387977
-0.0302234
-0.0252399
-0.0249276
-0.0295472
-0.0384924
-0.0503932
-0.0633559
-0.0752985
-0.0843217
-0.089044
-0.0888412
-0.0839481
-0.0754122
-0.0649101
-0.0544603
-0.0460816
-0.0414517
-0.0416204
-0.0468269
-0.0564528
-0.0691238
-0.0829458
-0.0958369
-0.105893
-0.111717
-0.112656
-0.108898
-0.101421
-0.0918114
-0.0819703
-0.0737732
-0.0687234
-0.0676622
-0.0705806
-0.076567
-0.0839049
-0.0903093
-0.0932662
-0.090419
-0.0799374
-0.0608144
-0.0330508
0.0022845
0.0431198
0.0865554
0.129131
0.167166
0.197139
0.216092
0.221981
0.213949
1.34762
1.28108
1.2077
1.13143
1.05559
0.982357
0.912498
0.845434
0.779543
0.712717
0.643007
0.569233
0.491435
0.411057
0.330839
0.254412
0.185674
0.128088
0.0840311
0.0543457
0.0381535
0.0329692
0.0350779
0.0401095
0.0437175
0.042256
0.0333461
0.0162425
-0.0080685
-0.0370663
-0.0671672
-0.0943924
-0.115107
-0.126688
-0.127991
-0.11955
-0.103477
-0.0831045
-0.0624208
-0.0454123
-0.0353973
-0.0344694
-0.0431371
-0.0602257
-0.0830716
-0.107985
-0.130908
-0.148143
-0.157007
-0.156298
-0.14648
-0.129592
-0.108883
-0.0882594
-0.0716295
-0.0622435
-0.0621417
-0.0717972
-0.090018
-0.114138
-0.140474
-0.164976
-0.183945
-0.194683
-0.195943
-0.188116
-0.173129
-0.154082
-0.134693
-0.118634
-0.108872
-0.107108
-0.113409
-0.126102
-0.141948
-0.156602
-0.165258
-0.163403
-0.147515
-0.11562
-0.0676254
-0.00541404
0.0672817
0.145203
0.222044
0.291054
0.345739
0.380593
0.391794
0.37773
1.9083
1.80726
1.69681
1.58358
1.47314
1.36902
1.27223
1.18134
1.09303
1.00311
0.907669
0.804215
0.692435
0.574573
0.455243
0.340716
0.23781
0.15261
0.0893209
0.0494729
0.0316227
0.0315634
0.0429821
0.0584461
0.0705614
0.0731262
0.062105
0.0362676
-0.00262117
-0.0501212
-0.0999285
-0.14505
-0.179111
-0.197532
-0.198329
-0.182433
-0.153497
-0.117265
-0.0806056
-0.0503831
-0.0323207
-0.0300441
-0.0444501
-0.0735174
-0.112621
-0.155328
-0.194556
-0.223863
-0.238603
-0.236717
-0.219041
-0.189122
-0.152579
-0.116155
-0.086594
-0.0695142
-0.0684616
-0.0842833
-0.114939
-0.155812
-0.200495
-0.241935
-0.273707
-0.291155
-0.292173
-0.277504
-0.250544
-0.21671
-0.182486
-0.154296
-0.137375
-0.134813
-0.14691
-0.170971
-0.201589
-0.231411
-0.252271
-0.256481
-0.238033
-0.193504
-0.122568
-0.0281098
0.0840153
0.2055
0.32632
0.435656
0.522975
0.579233
0.598062
0.576743
2.49212
2.34699
2.18991
2.03174
1.88159
1.74511
1.62348
1.51354
1.40885
1.30143
1.18388
1.05119
0.902195
0.740205
0.572731
0.41029
0.26445
0.145582
0.0608556
0.012923
-0.000527361
0.0136285
0.0450602
0.0816041
0.111156
0.123559
0.112198
0.0750842
0.0152238
-0.0598567
-0.139442
-0.211636
-0.265642
-0.29376
-0.292711
-0.264099
-0.214031
-0.152046
-0.0895288
-0.0378508
-0.00652052
-0.00160427
-0.0246594
-0.0723666
-0.13699
-0.20769
-0.2725
-0.320573
-0.344154
-0.339883
-0.309246
-0.258202
-0.196115
-0.134182
-0.0835987
-0.0537192
-0.0504961
-0.0754214
-0.125162
-0.192014
-0.265201
-0.332829
-0.384107
-0.4113
-0.411006
-0.384603
-0.33787
-0.279912
-0.221603
-0.173741
-0.145212
-0.141417
-0.163191
-0.206407
-0.262384
-0.319132
-0.363264
-0.382192
-0.366113
-0.309416
-0.211386
-0.0762499
0.0872674
0.266749
0.447128
0.611957
0.744935
0.831761
0.86214
0.831549
3.10842
2.90393
2.6846
2.46835
2.27038
2.09981
1.95789
1.83819
1.72857
1.61437
1.48189
1.32164
1.13067
0.913729
0.68297
0.455952
0.252246
0.0893842
-0.0205998
-0.0732887
-0.0724382
-0.0291919
0.039768
0.114821
0.176438
0.208201
0.199362
0.146645
0.0549739
-0.0631187
-0.189611
-0.30443
-0.389468
-0.432004
-0.426803
-0.376678
-0.291743
-0.187615
-0.0828621
0.00396226
0.0572956
0.0670934
0.0306084
-0.0468782
-0.152633
-0.268557
-0.37457
-0.452575
-0.489836
-0.481042
-0.428864
-0.343213
-0.239456
-0.135894
-0.0508179
0.000432512
0.00797488
-0.0308538
-0.110772
-0.219123
-0.337939
-0.447294
-0.52922
-0.571051
-0.567461
-0.521007
-0.441383
-0.343646
-0.245702
-0.165371
-0.117456
-0.111223
-0.148616
-0.223486
-0.322086
-0.425036
-0.510566
-0.558328
-0.552694
-0.484862
-0.353647
-0.165272
0.0675193
0.326691
0.590317
0.834108
1.03334
1.16556
1.214
1.17095
3.77036
3.48224
3.17487
2.87865
2.6197
2.41326
2.26031
2.14832
2.05491
1.95361
1.81989
1.63633
1.39653
1.10715
0.787815
0.46804
0.181218
-0.0429658
-0.18457
-0.236607
-0.20541
-0.109051
0.0256904
0.167372
0.284698
0.351296
0.349699
0.274286
0.132755
-0.0543017
-0.256607
-0.440127
-0.574515
-0.639012
-0.625606
-0.539405
-0.397119
-0.224104
-0.0504035
0.0939773
0.183777
0.202412
0.144891
0.0192888
-0.153663
-0.343725
-0.517002
-0.643282
-0.701872
-0.684706
-0.596717
-0.454333
-0.282552
-0.111021
0.0306365
0.117488
0.133184
0.0728467
-0.0554736
-0.231197
-0.424337
-0.60129
-0.732104
-0.796244
-0.785674
-0.705207
-0.571014
-0.407711
-0.244467
-0.110354
-0.0297085
-0.0182352
-0.0801014
-0.206419
-0.375546
-0.556048
-0.712271
-0.81137
-0.82886
-0.751593
-0.578233
-0.318268
0.00976677
0.380206
0.76205
1.12041
1.41823
1.61999
1.69759
1.63717
4.49889
4.08828
3.64908
3.23526
2.89344
2.64967
2.50376
2.43167
2.39262
2.33955
2.22964
2.032
1.73379
1.3437
0.89329
0.432667
0.0199818
-0.294242
-0.477527
-0.519797
-0.432228
-0.244194
0.00160309
0.254982
0.465991
0.592575
0.606315
0.497117
0.276075
-0.0235478
-0.350675
-0.646598
-0.860228
-0.958227
-0.929261
-0.782922
-0.546772
-0.261613
0.0242458
0.262558
0.412703
0.447363
0.357178
0.153604
-0.13009
-0.443103
-0.727145
-0.931502
-1.02304
-0.990396
-0.84294
-0.607826
-0.32533
-0.0431751
0.190968
0.336964
0.367839
0.274398
0.0680418
-0.218235
-0.534088
-0.821769
-1.03104
-1.12906
-1.10458
-0.966814
-0.742602
-0.471732
-0.201321
0.0216175
0.157611
0.180326
0.0811905
-0.127737
-0.412656
-0.722046
-0.996259
-1.18195
-1.2415
-1.15672
-0.92755
-0.569305
-0.109067
0.41728
0.967583
1.49386
1.94145
2.25317
2.37993
2.29488
5.33167
4.73547
4.08678
3.4882
3.02597
2.74515
2.64091
2.66747
2.7505
2.80736
2.76569
2.57251
2.20337
1.66708
1.01347
0.328254
-0.283051
-0.734086
-0.973561
-0.989971
-0.803735
-0.462531
-0.0334199
0.403586
0.76884
0.996333
1.03994
0.880985
0.532531
0.0467881
-0.489703
-0.971598
-1.31248
-1.4603
-1.40197
-1.1558
-0.767034
-0.300163
0.167326
0.558065
0.807893
0.87205
0.732708
0.403253
-0.0643394
-0.58424
-1.05208
-1.38223
-1.52306
-1.46147
-1.21544
-0.829599
-0.367668
0.0937575
0.478181
0.72216
0.781459
0.638496
0.306592
-0.162734
-0.684455
-1.15521
-1.49021
-1.63834
-1.58665
-1.35295
-0.981427
-0.535136
-0.0898625
0.278745
0.508006
0.554312
0.400543
0.0603363
-0.414561
-0.938729
-1.40774
-1.73421
-1.86198
-1.76979
-1.46276
-0.967231
-0.323117
0.419835
1.20769
1.98058
2.6603
3.15268
3.36725
3.24771
6.34329
5.45828
4.45232
3.5448
2.89728
2.58636
2.5897
2.82194
3.14607
3.41706
3.5199
3.3664
2.91362
2.1594
1.17915
0.117397
-0.816887
-1.47859
-1.79083
-1.75198
-1.39841
-0.807478
-0.0798312
0.65549
1.27004
1.66487
1.76523
1.53771
0.986655
0.190174
-0.70738
-1.49969
-2.04279
-2.25926
-2.1452
-1.73407
-1.0998
-0.339642
0.420882
1.05644
1.4704
1.58973
1.38196
0.851774
0.0766861
-0.800393
-1.57533
-2.10565
-2.31462
-2.19819
-1.78932
-1.161
-0.409338
0.341515
0.967572
1.37324
1.48628
1.27461
0.742969
-0.0318412
-0.908271
-1.68419
-2.21855
-2.43542
-2.33088
-1.93762
-1.32797
-0.597132
0.131941
0.736479
1.1218
1.21636
0.988316
0.44232
-0.345557
-1.23487
-2.02454
-2.57261
-2.79926
-2.69223
-2.26945
-1.57914
-0.679523
0.357691
1.46934
2.60142
3.64888
4.45219
4.83567
4.6715
7.69386
6.35526
4.67612
3.227
2.2839
1.97507
2.20885
2.84408
3.61817
4.26891
4.64324
4.59127
4.05794
2.97719
1.4622
-0.277028
-1.74325
-2.72635
-3.11369
-2.96718
-2.33493
-1.34931
-0.137311
1.08128
2.08764
2.75741
2.96266
2.66031
1.79417
0.479082
-1.07664
-2.38665
-3.24349
-3.53423
-3.31623
-2.63368
-1.6139
-0.379682
0.854348
1.87389
2.55715
2.77841
2.49543
1.65292
0.364535
-1.16367
-2.45089
-3.29188
-3.57478
-3.35609
-2.67926
-1.67008
-0.449894
0.768919
1.77427
2.44564
2.65861
2.37143
1.52945
0.245329
-1.27688
-2.56107
-3.40412
-3.69537
-3.49092
-2.83393
-1.84907
-0.65664
0.533021
1.50983
2.15426
2.34288
2.0339
1.17257
-0.130531
-1.67451
-2.98926
-3.87387
-4.21707
-4.06936
-3.46138
-2.49249
-1.23409
0.188325
1.7015
3.34405
4.98893
6.3562
7.09261
6.88831
9.74885
7.74266
4.56869
2.18057
0.757161
0.582406
1.24991
2.66625
4.26791
5.51877
6.38045
6.50928
5.99056
4.42028
2.06812
-1.0646
-3.36534
-4.83203
-5.20534
-4.88188
-3.78036
-2.21714
-0.204332
1.81267
3.3899
4.51882
4.89099
4.59475
3.24813
1.11446
-1.79976
-3.92624
-5.25942
-5.54184
-5.15629
-4.01898
-2.43686
-0.419506
1.59661
3.17554
4.30909
4.69316
4.41455
3.09606
0.997664
-1.87405
-3.96909
-5.28182
-5.55732
-5.17378
-4.04789
-2.48307
-0.488558
1.50362
3.06183
4.17804
4.55108
4.26709
2.95255
0.865253
-1.9883
-4.07329
-5.38434
-5.66923
-5.30267
-4.20244
-2.66917
-0.712236
1.24053
2.76172
3.843
4.1859
3.87477
2.53892
0.4313
-2.44432
-4.57344
-5.95479
-6.34182
-6.10929
-5.17309
-3.82274
-2.02492
-0.111809
1.74727
4.08316
6.72857
9.16835
10.7039
10.5554
13.355
10.8117
3.32967
-0.255045
-2.56763
-2.02311
-0.787352
2.22158
5.42279
7.32904
9.17299
9.35979
9.43743
6.98927
3.79806
-3.05023
-6.18847
-8.51218
-8.30036
-7.91702
-5.89065
-3.7324
-0.277408
3.17734
5.33772
7.36994
7.78184
8.04174
5.83545
2.87382
-3.65726
-6.60822
-8.78849
-8.51137
-8.07891
-6.04483
-3.88658
-0.457585
2.96841
5.1185
7.14027
7.56212
7.83108
5.66224
2.74433
-3.70288
-6.61385
-8.76545
-8.4889
-8.06053
-6.04861
-3.91489
-0.523912
2.86319
4.98581
6.98057
7.38962
7.64667
5.48835
2.58854
-3.80648
-6.70006
-8.84226
-8.58121
-8.17097
-6.19459
-4.09936
-0.76189
2.56947
4.64702
6.59496
6.97064
7.19118
5.01657
2.09901
-4.2891
-7.23441
-9.46757
-9.35873
-9.16252
-7.48119
-5.79737
-2.9818
-0.334217
1.10632
4.37645
8.76426
13.2825
16.7402
17.2418
20.1755
20.9923
-3.5215
-4.52255
-10.0067
-5.62401
-5.37801
1.50003
8.44243
9.22906
14.3518
12.3675
16.5215
10.6283
10.7942
-10.3783
-10.1846
-15.8436
-11.6424
-13.3182
-8.19086
-7.11502
-0.350145
6.40587
7.4701
12.5543
10.8916
15.04
9.51043
9.7732
-10.6702
-10.4
-15.8563
-11.7046
-13.3079
-8.24955
-7.16623
-0.491384
6.17745
7.24621
12.2753
10.6512
14.758
9.30703
9.57317
-10.624
-10.3522
-15.7457
-11.6392
-13.2277
-8.22478
-7.15722
-0.553746
6.04352
7.09387
12.0664
10.447
14.5043
9.09181
9.34486
-10.6668
-10.4089
-15.7609
-11.7081
-13.2946
-8.35791
-7.31846
-0.802803
5.70382
6.71888
11.6109
9.97872
13.9565
8.56401
8.76424
-11.0916
-10.9209
-16.3528
-12.5015
-14.3543
-9.79289
-9.40173
-3.69685
1.18145
-2.1693
3.06016
10.6121
18.9239
27.0332
31.5699
29.8814
67.6459
-44.2319
-2.33533
-31.6549
-3.26914
-19.5199
0.6847
20.3253
4.88389
29.7637
6.53497
38.0722
5.5408
48.5163
-48.4755
-5.75439
-37.3753
-6.52344
-28.5176
-4.65882
-18.6918
-0.412
17.8287
3.81176
27.4524
5.63114
35.9728
4.84222
46.4873
-47.513
-5.94818
-36.7618
-6.61341
-28.1322
-4.73278
-18.5003
-0.519116
17.448
3.66839
26.9883
5.48503
35.4455
4.71637
45.8663
-47.0232
-5.93549
-36.4087
-6.59162
-27.8894
-4.73702
-18.3743
-0.577602
17.2084
3.55094
26.6419
5.32671
34.9956
4.53388
45.2794
-46.7182
-6.04221
-36.2254
-6.71707
-27.8142
-4.91201
-18.426
-0.83341
16.7433
3.2053
26.0189
4.90588
34.2125
4.05545
44.3077
-46.7342
-6.54175
-36.6078
-7.432
-28.7844
-6.10125
-20.6596
-3.22345
14.5452
-17.8045
-1.60447
11.3614
24.8527
42.4665
70.8028
28866.7
28827.4
28788.1
28748.7
28709.3
28669.9
28630.6
28591.3
28552.2
28513.1
28474.2
28435.3
28396.6
28357.9
28319.3
0.1903
0.147799
0.0935696
0.0337099
-0.0255656
-0.0787789
-0.121737
-0.151752
-0.167605
-0.169337
-0.157971
-0.135237
-0.103326
-0.064714
-0.0220278
0.335395
0.259092
0.161987
0.0553659
-0.0494732
-0.142793
-0.217355
-0.268724
-0.29509
-0.296829
-0.275955
-0.235615
-0.179668
-0.112379
-0.0382256
0.510666
0.391241
0.239972
0.075287
-0.0848568
-0.225525
-0.336132
-0.410665
-0.447176
-0.44691
-0.413387
-0.351588
-0.267342
-0.166907
-0.0567203
0.733272
0.555232
0.331369
0.0906645
-0.139717
-0.338318
-0.49098
-0.590628
-0.636035
-0.630247
-0.579092
-0.490005
-0.371204
-0.231185
-0.0784691
1.0267
0.765034
0.439598
0.0957118
-0.226364
-0.497056
-0.698846
-0.824832
-0.876091
-0.858949
-0.782726
-0.658136
-0.496284
-0.308158
-0.10444
1.42442
1.0386
0.566267
0.0789408
-0.3644
-0.724702
-0.982519
-1.13376
-1.18455
-1.14673
-1.03473
-0.863525
-0.647639
-0.40072
-0.135575
1.97585
1.39867
0.707922
0.0181793
-0.58548
-1.05484
-1.37277
-1.54316
-1.58161
-1.5087
-1.34593
-1.1136
-0.830024
-0.511507
-0.172716
2.75643
1.87231
0.848561
-0.128671
-0.940865
-1.53639
-1.91055
-2.0845
-2.09003
-1.96053
-1.72669
-1.41491
-1.04735
-0.642567
-0.216496
3.88513
2.48553
0.942664
-0.440573
-1.51293
-2.23933
-2.64854
-2.79427
-2.73347
-2.51671
-2.18537
-1.77201
-1.3019
-0.794911
-0.267196
5.55555
3.24202
0.877131
-1.06334
-2.43094
-3.25947
-3.65001
-3.71056
-3.53286
-3.18745
-2.72608
-2.18584
-1.59334
-0.967977
-0.324574
8.08537
4.04974
0.387097
-2.25901
-3.88799
-4.71761
-4.98146
-4.86512
-4.49994
-3.97417
-3.34564
-2.65194
-1.91764
-1.15908
-0.387694
11.9562
4.48433
-1.1196
-4.47193
-6.14441
-6.74148
-6.69311
-6.26849
-5.62761
-4.86364
-4.03035
-3.15865
-2.26619
-1.363
-0.454816
17.5326
3.05099
-4.87791
-8.36478
-9.47626
-9.41079
-8.78101
-7.88809
-6.87837
-5.82243
-4.75347
-3.68609
-2.62546
-1.57192
-0.523381
22.2775
-4.93518
-13.0782
-14.633
-13.9851
-12.6444
-11.1321
-9.62447
-8.17536
-6.79421
-5.475
-4.2068
-2.97765
-1.77584
-0.590169
0.545532
1.644
2.76515
3.92573
5.14515
6.44722
7.86243
9.43162
11.2112
13.2804
15.7485
18.7445
22.2974
25.6122
23.0124
0.556416
1.67701
2.82139
4.00729
5.25556
6.5923
8.05209
9.68343
11.5585
13.792
16.5811
20.3036
25.8025
35.382
56.9524
0.561917
1.69349
2.84881
4.04555
5.30455
6.65196
8.12262
9.766
11.657
13.9178
16.7654
20.629
26.474
36.8249
59.3988
0.562044
1.69349
2.84746
4.04058
5.29217
6.62604
8.07324
9.67662
11.4987
13.6361
16.2443
19.5785
24.0164
29.7796
34.4461
0.557064
1.67785
2.81893
3.99501
5.22265
6.52143
7.91541
9.43535
11.1216
13.0274
15.2192
17.7614
20.6386
23.4961
25.1604
0.547462
1.64811
2.76612
3.91365
5.10376
6.35071
7.67013
9.07862
10.592
12.22
13.9508
15.7118
17.2746
18.0413
16.5601
0.533886
1.60633
2.6928
3.80272
4.94539
6.1297
7.36301
8.64903
9.98294
11.3413
12.6614
13.7998
14.4633
14.1477
12.4747
0.517069
1.5548
2.60322
3.66904
4.75814
5.87466
7.01931
8.1862
9.35687
10.4893
11.4981
12.2177
12.3322
11.1966
7.09687
0.497756
1.49586
2.50156
3.51921
4.55186
5.60009
6.66018
7.72077
8.75736
9.72328
10.5357
11.0557
11.0691
10.304
8.72877
0.476641
1.43165
2.39161
3.35898
4.33475
5.31731
6.30073
7.27202
8.20693
9.06389
9.77625
10.2456
10.3467
9.97414
9.19407
0.454328
1.36401
2.27652
3.19293
4.11295
5.03395
5.94971
6.84855
7.71066
8.50492
9.18561
9.69138
9.95318
9.92727
9.69121
0.431308
1.2944
2.15872
3.0244
3.89047
4.75423
5.61048
6.4506
7.26152
8.02486
8.71645
9.30657
9.75948
10.0264
10.0102
0.407958
1.22394
2.03997
2.8556
3.6696
4.47973
5.28246
6.07294
6.84545
7.59464
8.3178
9.01706
9.695
10.3221
10.747
0.384564
1.15345
1.92152
2.68793
3.45144
4.2104
4.96296
5.70777
6.44561
7.18253
7.93575
8.74239
9.66586
10.7582
11.7277
0.36134
1.08353
1.80423
2.52228
3.23645
3.94552
4.64885
5.34748
6.04641
6.75913
7.51664
8.38662
9.51947
11.2797
14.6926
0.338452
1.01466
1.68877
2.35935
3.025
3.68463
4.33802
4.98699
5.63765
6.30464
7.01945
7.84832
8.93742
10.6536
14.1273
0.316047
0.947252
1.57578
2.19985
2.81775
3.42809
4.03027
4.62534
5.21758
5.81697
6.44308
7.12932
7.9199
8.80716
9.28905
0.294261
0.881703
1.46589
2.04463
2.61575
3.17724
3.72747
4.26568
4.79254
5.31078
5.82498
6.33789
6.83528
7.24223
7.36973
0.273227
0.818417
1.35979
1.89471
2.42046
2.93421
3.43304
3.91392
4.37352
4.80741
5.20779
5.55728
5.81347
5.8714
5.45749
0.253073
0.757788
1.25817
1.75117
2.23351
2.70156
3.15109
3.57696
3.97235
4.32732
4.62597
4.84147
4.92938
4.82827
4.52657
0.233913
0.700173
1.16167
1.61503
2.0565
2.48177
2.88558
3.26118
3.59928
3.88637
4.10191
4.21429
4.17657
3.92445
3.36197
0.215841
0.645866
1.07084
1.48716
1.89075
2.27688
2.63967
2.97145
3.26165
3.49514
3.6495
3.69137
3.57266
3.23617
2.69987
0.198922
0.595067
0.986037
1.36812
1.73714
2.08823
2.41532
2.71059
2.96342
3.15886
3.27523
3.27998
3.12002
2.68667
1.63885
0.183184
0.547864
0.907409
1.25815
1.596
1.91623
2.21308
2.47923
2.70507
2.87751
2.9785
2.98299
2.85725
2.5639
2.12637
0.168619
0.50423
0.8349
1.15713
1.46711
1.76049
2.03216
2.27589
2.4838
2.64579
2.74879
2.77647
2.71088
2.54127
2.28886
0.155186
0.464031
0.768254
1.06464
1.34975
1.61983
1.87067
2.09743
2.29444
2.45505
2.57141
2.63472
2.63677
2.57616
2.48059
0.142814
0.427044
0.707056
0.979976
1.24283
1.49255
1.72591
1.93963
2.13039
2.29506
2.43089
2.53555
2.6062
2.63534
2.59629
0.131415
0.392989
0.650789
0.902307
1.14506
1.37663
1.59481
1.79778
1.98446
2.15511
2.31203
2.46
2.60449
2.74189
2.83591
0.12089
0.361556
0.59889
0.830733
1.05505
1.27002
1.47429
1.66725
1.84969
2.02471
2.1994
2.3869
2.60772
2.8786
3.12056
0.111141
0.332439
0.550807
0.764394
0.971526
1.17086
1.36163
1.54406
1.72007
1.89458
2.07788
2.29068
2.57621
3.03541
3.94835
0.102077
0.305358
0.506051
0.702543
0.893429
1.07766
1.25478
1.42533
1.59151
1.75835
1.93591
2.14398
2.42411
2.87716
3.80849
0.093621
0.280079
0.464214
0.644591
0.819963
0.989403
1.1525
1.30965
1.46251
1.61469
1.77275
1.94727
2.15196
2.38679
2.51951
0.0857101
0.256414
0.424993
0.590121
0.750623
0.905562
1.05436
1.19696
1.33399
1.46698
1.59819
1.72964
1.85891
1.96738
2.00593
0.0782979
0.234227
0.388171
0.53887
0.685155
0.825995
0.960539
1.08814
1.20831
1.3205
1.42348
1.51354
1.58032
1.59654
1.48906
0.0713497
0.213419
0.353608
0.49069
0.623474
0.750808
0.871551
0.984494
1.08817
1.18045
1.25775
1.31362
1.33686
1.31163
1.23551
0.0648398
0.193921
0.321207
0.445499
0.565585
0.680207
0.78799
0.887297
0.975963
1.05082
1.10692
1.13637
1.12709
1.06207
0.914898
0.0587463
0.175672
0.290888
0.403234
0.511498
0.614365
0.710324
0.797499
0.873356
0.934235
0.97461
0.986034
0.956052
0.869586
0.731708
0.0530476
0.158611
0.262567
0.36381
0.461164
0.553327
0.638769
0.715572
0.781162
0.831901
0.862418
0.864466
0.824251
0.712815
0.437962
0.0477193
0.142668
0.236134
0.327092
0.414443
0.496964
0.573223
0.641441
0.699295
0.743622
0.77001
0.772262
0.741922
0.669542
0.561634
0.0427323
0.127756
0.211447
0.292882
0.371081
0.444959
0.51327
0.574518
0.626833
0.667814
0.694376
0.702707
0.6888
0.650952
0.597014
0.0380523
0.113772
0.188329
0.260926
0.330726
0.396826
0.458231
0.51381
0.562252
0.602031
0.631415
0.648607
0.652319
0.643548
0.630721
0.0336405
0.100597
0.166576
0.230918
0.292945
0.351961
0.407247
0.458068
0.503698
0.543481
0.576934
0.603884
0.624522
0.638976
0.645309
0.0294547
0.0881022
0.145964
0.202521
0.257261
0.309694
0.359373
0.40594
0.449215
0.489338
0.526981
0.563559
0.601034
0.640061
0.674347
0.0254516
0.0761549
0.126262
0.17539
0.223185
0.269347
0.313667
0.356108
0.396933
0.436929
0.477783
0.522628
0.576483
0.644456
0.714748
0.0215882
0.0646235
0.107242
0.149189
0.19025
0.230285
0.269275
0.307409
0.345237
0.383936
0.425828
0.475454
0.542148
0.64726
0.847632
0.0178233
0.0533835
0.0886914
0.123606
0.158033
0.191956
0.225484
0.258931
0.292947
0.328739
0.368516
0.416442
0.481151
0.583933
0.791722
0.0141192
0.0423203
0.0704169
0.0983665
0.126172
0.153907
0.181756
0.210069
0.239433
0.270786
0.305559
0.345793
0.393732
0.447707
0.474516
0.0104416
0.0313314
0.0522473
0.0732312
0.0943636
0.115784
0.137715
0.160485
0.184547
0.210469
0.238822
0.269807
0.302139
0.330369
0.34289
0.00676015
0.0203258
0.0340331
0.0479964
0.0623604
0.0773134
0.0930978
0.110011
0.12838
0.148474
0.17027
0.1929
0.21341
0.223955
0.204104
0.00304773
0.00922338
0.0156438
0.0224868
0.0299526
0.0382709
0.0477035
0.0585338
0.0710242
0.0853079
0.101149
0.117477
0.131616
0.138663
0.134985
-0.000719849
-0.00204758
-0.00303677
-0.00345185
-0.00304276
-0.00154018
0.00134488
0.0059109
0.0124311
0.021069
0.0317016
0.0435849
0.0547572
0.0608298
0.0507648
-0.00456467
-0.0135523
-0.0221137
-0.0299597
-0.0367935
-0.0423064
-0.0461752
-0.0480623
-0.047625
-0.0445468
-0.0386058
-0.0298038
-0.0185499
-0.00578676
0.00753601
-0.00850742
-0.0253518
-0.0416853
-0.0571676
-0.0714576
-0.0842096
-0.0950661
-0.103643
-0.109508
-0.112143
-0.110892
-0.104887
-0.0928967
-0.0727838
-0.0385005
-0.0125681
-0.0375049
-0.061846
-0.0852007
-0.107186
-0.127425
-0.145535
-0.161102
-0.173628
-0.18243
-0.186472
-0.184117
-0.172877
-0.149614
-0.114198
-0.0167668
-0.0500706
-0.0826899
-0.114182
-0.144124
-0.172115
-0.197764
-0.220667
-0.240329
-0.256017
-0.266486
-0.269512
-0.261199
-0.234879
-0.177002
-0.0211247
-0.0631108
-0.104315
-0.144238
-0.182415
-0.218427
-0.251897
-0.282478
-0.309783
-0.333222
-0.351662
-0.362775
-0.362021
-0.342051
-0.298543
-0.0256649
-0.0766933
-0.126827
-0.175503
-0.222207
-0.266499
-0.308032
-0.346561
-0.381916
-0.413892
-0.441922
-0.464272
-0.476179
-0.465562
-0.401379
-0.0304141
-0.090896
-0.150351
-0.208135
-0.263671
-0.316485
-0.36625
-0.412842
-0.456391
-0.497299
-0.536119
-0.573014
-0.605974
-0.626264
-0.613981
-0.0354035
-0.105811
-0.175034
-0.242327
-0.307024
-0.368585
-0.426668
-0.481233
-0.532697
-0.582149
-0.631648
-0.684483
-0.744563
-0.809578
-0.824961
-0.04067
-0.121548
-0.201055
-0.27832
-0.352553
-0.423098
-0.489525
-0.551774
-0.610395
-0.666963
-0.724856
-0.790915
-0.879718
-1.02735
-1.34656
-0.0462567
-0.138238
-0.228632
-0.316417
-0.40064
-0.480468
-0.555281
-0.624832
-0.689516
-0.750852
-0.812388
-0.881548
-0.974012
-1.12597
-1.43429
-0.052213
-0.156029
-0.258019
-0.356988
-0.451778
-0.541318
-0.624689
-0.701267
-0.770958
-0.834599
-0.894621
-0.955994
-1.02698
-1.116
-1.20244
-0.0585928
-0.175087
-0.289504
-0.400458
-0.506562
-0.606449
-0.698812
-0.782483
-0.856598
-0.920856
-0.975911
-1.02376
-1.06743
-1.10782
-1.13372
-0.0654528
-0.195586
-0.323394
-0.447295
-0.565662
-0.676805
-0.778968
-0.870334
-0.949082
-1.0135
-1.0622
-1.09442
-1.11016
-1.1097
-1.09065
-0.0728489
-0.2177
-0.359996
-0.497974
-0.629776
-0.753397
-0.86662
-0.966946
-1.05151
-1.11706
-1.15994
-1.17651
-1.16414
-1.12448
-1.07183
-0.0808325
-0.241589
-0.399597
-0.552942
-0.699571
-0.837208
-0.963228
-1.0745
-1.16716
-1.23634
-1.27596
-1.27869
-1.23708
-1.14827
-1.0278
-0.0894468
-0.267386
-0.442435
-0.612573
-0.775611
-0.929084
-1.07008
-1.19498
-1.2991
-1.37616
-1.4176
-1.41167
-1.3428
-1.19404
-0.976445
-0.0987238
-0.29519
-0.488685
-0.677133
-0.858293
-1.02963
-1.1881
-1.32989
-1.44983
-1.54072
-1.59212
-1.58835
-1.50401
-1.28761
-0.779001
-0.108683
-0.325057
-0.538438
-0.746755
-0.947798
-1.1391
-1.31772
-1.47996
-1.62073
-1.73271
-1.80496
-1.82099
-1.75692
-1.58412
-1.3103
-0.119329
-0.357002
-0.591708
-0.82143
-1.04407
-1.25737
-1.45873
-1.64494
-1.81163
-1.9523
-2.05683
-2.10927
-2.08532
-1.95078
-1.65244
-0.130661
-0.391008
-0.648439
-0.901021
-1.14683
-1.38392
-1.61025
-1.82349
-2.02059
-2.19698
-2.34489
-2.45059
-2.49053
-2.43119
-2.26359
-0.142668
-0.427039
-0.708537
-0.985317
-1.25564
-1.51795
-1.77087
-2.01323
-2.24394
-2.46143
-2.66226
-2.83759
-2.96469
-2.98677
-2.75673
-0.155345
-0.465066
-0.771912
-1.07409
-1.37003
-1.6585
-1.93881
-2.21108
-2.47648
-2.73745
-2.99734
-3.25808
-3.51178
-3.71746
-3.77339
-0.168695
-0.505088
-0.838527
-1.16721
-1.48961
-1.80471
-2.11234
-2.41369
-2.7121
-3.01423
-3.33183
-3.68345
-4.09224
-4.55213
-4.79371
-0.182739
-0.54716
-0.908448
-1.26468
-1.61425
-1.95611
-2.29024
-2.61836
-2.94512
-3.28028
-3.64269
-4.06914
-4.63722
-5.5384
-7.36372
-0.197519
-0.591407
-0.981879
-1.36679
-1.74424
-2.11287
-2.47231
-2.82396
-3.17232
-3.5274
-3.90908
-4.35647
-4.95087
-5.88293
-7.68269
-0.213096
-0.638026
-1.05918
-1.47407
-1.88035
-2.27602
-2.6598
-3.03183
-3.39486
-3.75605
-4.12984
-4.54171
-5.03005
-5.62489
-6.17589
-0.22955
-0.68727
-1.14082
-1.58732
-2.02384
-2.44743
-2.85544
-3.24597
-3.61868
-3.97596
-4.32415
-4.67386
-5.03526
-5.39731
-5.6768
-0.246962
-0.73941
-1.22735
-1.70752
-2.1763
-2.62965
-3.06321
-3.47247
-3.85322
-4.20217
-4.5174
-4.7979
-5.04002
-5.22706
-5.3037
-0.265398
-0.79468
-1.31928
-1.83563
-2.33946
-2.82562
-3.28786
-3.71877
-4.10985
-4.4518
-4.73478
-4.94858
-5.08305
-5.13348
-5.13081
-0.284885
-0.853199
-1.41694
-1.97242
-2.5149
-3.03821
-3.53427
-3.99271
-4.40059
-4.74237
-5.0002
-5.15436
-5.18442
-5.07679
-4.86293
-0.305384
-0.914889
-1.52035
-2.11823
-2.70364
-3.26971
-3.8068
-4.30177
-4.73723
-5.09124
-5.3376
-5.44631
-5.38142
-5.09384
-4.58436
-0.326761
-0.979385
-1.62902
-2.2727
-2.90582
-3.52132
-4.10859
-4.65215
-5.13042
-5.51487
-5.77059
-5.8588
-5.73304
-5.26499
-3.7029
-0.348762
-1.04595
-1.74184
-2.43449
-3.12022
-3.79254
-4.44071
-5.04786
-5.58877
-6.02787
-6.3199
-6.41988
-6.32235
-6.19585
-6.87958
-0.370994
-1.11342
-1.85689
-2.60108
-3.34393
-4.08053
-4.80131
-5.48958
-6.11781
-6.64299
-7.00258
-7.11808
-6.93176
-6.56406
-6.91503
-0.39292
-1.18017
-1.97145
-2.76859
-3.57199
-4.37948
-5.18447
-5.97297
-6.7184
-7.37311
-7.85473
-8.02586
-7.6671
-6.43315
-3.62743
-0.413862
-1.24413
-2.08192
-2.93174
-3.79721
-4.68016
-5.57909
-6.48626
-7.38196
-8.22342
-8.92248
-9.30158
-9.01022
-7.39372
-3.4295
-0.433033
-1.30287
-2.18403
-3.08403
-4.01029
-4.96973
-5.96798
-7.00749
-8.08319
-9.17258
-10.2124
-11.0428
-11.2736
-9.98463
-5.24183
-0.449586
-1.35375
-2.27304
-3.21808
-4.20031
-5.23232
-6.32821
-7.50358
-8.7749
-10.1561
-11.6478
-13.2005
-14.5922
-14.974
-11.0409
-0.462671
-1.39411
-2.34417
-3.3263
-4.35575
-5.45056
-6.63322
-7.93304
-9.39025
-11.063
-13.0407
-15.4701
-18.612
-22.96
-29.443
-12.122
-27.5933
-26.0713
-22.2667
-18.7352
-15.7753
-13.2967
-11.1752
-9.31216
-7.63613
-6.09557
-4.65259
-3.27832
-1.94965
-0.647052
-118.788
-61.9406
-39.9804
-29.1363
-22.6729
-18.279
-15.0039
-12.3939
-10.2066
-8.30031
-6.58659
-5.00628
-3.51737
-2.08803
-0.692375
-132.04
-72.0608
-46.1699
-32.9635
-25.1734
-20.0057
-16.2492
-13.3192
-10.9057
-8.83076
-6.98497
-5.29648
-3.71504
-2.20302
-0.730123
-72.4583
-58.5088
-43.5505
-33.0294
-25.8527
-20.7522
-16.9206
-13.8858
-11.3697
-9.20206
-7.27408
-5.51235
-3.86449
-2.29083
-0.759087
-51.1087
-45.657
-37.8496
-30.7727
-25.0902
-20.6175
-17.0386
-14.0923
-11.5916
-9.40691
-7.44775
-5.64911
-3.96242
-2.34952
-0.778627
-32.4372
-34.4412
-31.6414
-27.5474
-23.4876
-19.8621
-16.7173
-13.9893
-11.594
-9.45514
-7.50993
-5.70812
-4.00909
-2.37904
-0.788692
-23.9249
-26.5612
-26.3319
-24.2984
-21.5834
-18.7728
-16.1064
-13.6552
-11.4184
-9.36885
-7.4725
-5.69576
-4.00785
-2.38098
-0.789755
-13.3104
-20.671
-22.2751
-21.5226
-19.7454
-17.5833
-15.3461
-13.1722
-11.1127
-9.17616
-7.35201
-5.6217
-3.96421
-2.35817
-0.782681
-16.0711
-18.7785
-19.8549
-19.4584