/*--------------------------------*- C++ -*----------------------------------*\
| =========                 |                                                 |
| \\      /  F ield         | OpenFOAM: The Open Source CFD Toolbox           |
|  \\    /   O peration     | Version:  5.x                                   |
|   \\  /    A nd           | Web:      www.OpenFOAM.org                      |
|    \\/     M anipulation  |                                                 |
\*---------------------------------------------------------------------------*/
FoamFile
{
    version     2.0;
    format      ascii;
    class       volScalarField;
    location    "2.9";
    object      gradTx;
}
// * * * * * * * * * * * * * * * * * * * * * * * * * * * * * * * * * * * * * //

dimensions      [0 -1 0 1 0 0 0];

internalField   nonuniform List<scalar> 
3200
(
45.2988
3.7005
1.64199
1.53368
0.81
0.766508
0.462585
0.443188
0.290412
0.279377
0.168532
0.16442
0.178117
0.178262
0.170728
0.169907
0.157456
0.156369
0.142626
0.141474
0.127552
0.12641
0.112912
0.111839
0.0995222
0.0986496
0.0896009
0.0895978
0.0945024
0.16374
0.0819793
0.0548853
0.0530671
0.0413821
0.0405603
0.033024
0.0324709
0.0268288
0.0264059
0.0219325
0.021593
0.0179381
0.0176568
0.0145779
0.0143353
0.0116077
0.0113824
0.0087221
0.00848162
0.00531355
0.00518041
0.00516899
0.00511855
0.00399786
0.00387914
0.00214851
0.00197604
-0.000418941
-0.000663455
-0.00410352
-0.00447194
-0.00980166
-0.0104107
-0.0195137
-0.0206618
-0.0384939
-0.0411591
-0.0842109
-0.0931066
-0.238479
-0.616254
-0.435332
-0.680049
-0.711353
-1.26578
-1.24022
-0.0556886
-0.00751497
-0.00152252
-52.9617
47.9738
3.09561
1.57105
1.34874
0.769533
0.676682
0.43257
0.391095
0.268699
0.245255
0.1582
0.14942
0.158696
0.158895
0.153039
0.151308
0.141486
0.139185
0.128309
0.125868
0.114843
0.112422
0.101735
0.0994628
0.0897345
0.0879015
0.0809287
0.0810848
0.087831
0.136521
0.0761158
0.0512711
0.0472224
0.0377419
0.0359796
0.0299716
0.0287952
0.024314
0.0234162
0.0198666
0.0191461
0.0162466
0.0156498
0.013207
0.012692
0.010527
0.0100486
0.00793539
0.00742786
0.00495562
0.00467273
0.00461811
0.00450802
0.00362336
0.00337177
0.00199952
0.00163336
-0.000269409
-0.000789109
-0.00352603
-0.00430997
-0.00855815
-0.00985658
-0.0171381
-0.0195967
-0.0339763
-0.0397498
-0.0752171
-0.0950789
-0.226832
-0.516842
-0.414009
-0.600681
-0.665132
-1.08294
-1.02941
-0.121611
-0.0208577
-0.00437802
-54.7561
50.6322
2.56837
1.44801
1.17807
0.709612
0.592907
0.394451
0.34224
0.243028
0.213677
0.144738
0.133699
0.139639
0.139771
0.135185
0.133033
0.125216
0.122344
0.113654
0.110605
0.101789
0.0987649
0.0902218
0.087385
0.0796312
0.0773593
0.0719715
0.0723084
0.0794822
0.113667
0.0688302
0.0468254
0.0415951
0.0337931
0.0315688
0.026726
0.0252518
0.021656
0.0205326
0.0176876
0.0167864
0.0144631
0.0137166
0.011759
0.0111148
0.00937875
0.00878011
0.00708445
0.00645268
0.00451012
0.00415595
0.00406947
0.00392853
0.0032236
0.0029093
0.00181039
0.00135225
-0.000175088
-0.000825959
-0.00302654
-0.0040093
-0.00743253
-0.00906306
-0.0149553
-0.0180547
-0.0298028
-0.0371526
-0.0668474
-0.0925756
-0.208854
-0.433144
-0.381106
-0.526203
-0.604777
-0.918941
-0.852779
-0.155252
-0.0308294
-0.00671835
-56.5505
53.2699
2.10654
1.29096
1.01534
0.635624
0.512404
0.350484
0.295265
0.214564
0.183684
0.12896
0.1173
0.120814
0.120836
0.117235
0.114985
0.108749
0.105736
0.0987741
0.0955729
0.0885036
0.0853285
0.0784804
0.0755041
0.0693087
0.0669418
0.0627856
0.0632588
0.0700532
0.0939738
0.0606317
0.0417088
0.0360709
0.0296213
0.0272629
0.0233458
0.0217933
0.0188992
0.0177179
0.0154309
0.0144836
0.0126165
0.0118319
0.0102584
0.00958119
0.008185
0.0075555
0.00619094
0.00552993
0.0040011
0.00362847
0.00352305
0.00337164
0.00280828
0.00247829
0.00159572
0.00111401
-0.000115719
-0.00080071
-0.00257565
-0.00361091
-0.0063785
-0.00809898
-0.0128841
-0.0161667
-0.0258051
-0.0336615
-0.0586364
-0.0864502
-0.186557
-0.360498
-0.340318
-0.454386
-0.534998
-0.770161
-0.701398
-0.165969
-0.0367886
-0.00831476
-58.3446
55.8863
1.69869
1.11231
0.856784
0.551376
0.43345
0.302249
0.249311
0.184108
0.154646
0.11146
0.100293
0.10213
0.102046
0.0992303
0.097097
0.0921522
0.0892869
0.0837438
0.0806958
0.0750627
0.0720393
0.0665843
0.0637521
0.0588333
0.056596
0.0534146
0.0539565
0.0599395
0.0765715
0.0518565
0.0360611
0.0305794
0.0252861
0.0230195
0.0198712
0.0183886
0.0160739
0.0149474
0.0131206
0.0122176
0.0107265
0.00997863
0.00872195
0.00807631
0.00696056
0.00636028
0.00526927
0.00464189
0.00344583
0.00309031
0.0029785
0.00283127
0.00238369
0.00206945
0.0013651
0.000905769
-7.80446e-05
-0.000731763
-0.00215425
-0.00314312
-0.00536626
-0.00701221
-0.010873
-0.0140243
-0.0218787
-0.0294857
-0.0503117
-0.077433
-0.161306
-0.295618
-0.29416
-0.383907
-0.459038
-0.633537
-0.568684
-0.160436
-0.0387196
-0.00904454
-60.1384
58.4826
1.3344
0.92043
0.700221
0.45963
0.355027
0.250884
0.203849
0.152222
0.126156
0.0926793
0.0827673
0.0835224
0.0833662
0.0811989
0.0793217
0.0754728
0.0729448
0.0686139
0.0659222
0.0615176
0.0588474
0.0545834
0.0520837
0.0482507
0.0462881
0.0438948
0.0444367
0.0494
0.0608234
0.0427249
0.0300009
0.0250804
0.0208299
0.0188115
0.0163299
0.0150172
0.0132012
0.012205
0.0107734
0.00997507
0.00880688
0.00814573
0.00716103
0.00659022
0.00571549
0.00518467
0.00432906
0.0037766
0.00285695
0.00254243
0.00243539
0.00230295
0.0019538
0.00167627
0.00112474
0.000718586
-5.3492e-05
-0.000631982
-0.0017501
-0.00262588
-0.00437703
-0.00583677
-0.00889013
-0.0116938
-0.0179621
-0.024781
-0.0417353
-0.0661458
-0.134037
-0.236168
-0.244355
-0.314013
-0.379102
-0.506488
-0.449706
-0.143441
-0.036969
-0.00888282
-61.932
61.0613
1.00424
0.7208
0.544473
0.362445
0.276587
0.197236
0.15857
0.119315
0.0979642
0.0729566
0.0648149
0.0649518
0.0647668
0.0631562
0.0616254
0.0587408
0.0566749
0.0534186
0.0512172
0.0479033
0.0457193
0.042512
0.0404687
0.0375933
0.0359975
0.0342577
0.0347402
0.0386023
0.0462564
0.0333784
0.0236288
0.0195548
0.0162845
0.014622
0.012742
0.0116661
0.0102957
0.00948003
0.00840079
0.00774736
0.00686692
0.00632576
0.00558353
0.00511627
0.00445664
0.00402204
0.00337671
0.00292599
0.00224387
0.00198625
0.00189332
0.00178333
0.0015211
0.0012941
0.000878629
0.000546102
-3.6616e-05
-0.000510545
-0.00135558
-0.00207355
-0.00339938
-0.00459752
-0.00691721
-0.00922458
-0.0140235
-0.0196709
-0.0328605
-0.0531194
-0.105399
-0.180477
-0.19209
-0.244301
-0.296675
-0.386805
-0.340706
-0.118455
-0.0320829
-0.00788723
-63.7252
63.6257
0.699669
0.516887
0.388955
0.261415
0.197888
0.141961
0.113316
0.085692
0.0699184
0.0525595
0.0465316
0.0463942
0.0462247
0.0451104
0.0439835
0.0419762
0.0404528
0.0381811
0.0365569
0.0342439
0.0326323
0.0303942
0.0288871
0.0268849
0.0257128
0.0245318
0.0249086
0.0276531
0.0325108
0.0239069
0.0170298
0.013997
0.0116748
0.0104413
0.009122
0.00832668
0.00736799
0.00676562
0.0060112
0.00552873
0.00491338
0.00451382
0.00399503
0.00365
0.00318878
0.00286783
0.00241656
0.00208463
0.00161381
0.0014235
0.00135195
0.00126982
0.00108702
0.000919507
0.000629241
0.000383674
-2.40393e-05
-0.00037421
-0.000966088
-0.00149686
-0.00242679
-0.00331336
-0.00494474
-0.0066557
-0.0100509
-0.014259
-0.023703
-0.0388121
-0.0758488
-0.127324
-0.138201
-0.174583
-0.212738
-0.272572
-0.238753
-0.0880337
-0.0247098
-0.00618043
-65.5182
66.1797
0.412848
0.31078
0.233422
0.157824
0.118885
0.0855945
0.0680205
0.0515951
0.0419363
0.0317095
0.0280128
0.0278381
0.0277204
0.0270653
0.0263768
0.0251924
0.0242607
0.0229179
0.0219242
0.0205564
0.0195704
0.0182472
0.0173254
0.0161433
0.0154285
0.0147437
0.0149824
0.0166195
0.0193038
0.0143665
0.010277
0.00841098
0.0070217
0.00626414
0.00548105
0.00499387
0.00442607
0.00405731
0.00361074
0.00331542
0.00295121
0.00270664
0.00239957
0.00218836
0.00191531
0.00171882
0.00145165
0.00124883
0.000972534
0.000856005
0.000811015
0.000760361
0.000652342
0.000549852
0.000378096
0.000227767
-1.3727e-05
-0.000228168
-0.000578998
-0.000904156
-0.00145589
-0.00199937
-0.00296905
-0.00401941
-0.00604573
-0.00863774
-0.0143188
-0.0236277
-0.0457212
-0.0757944
-0.0832925
-0.104794
-0.127934
-0.162085
-0.141476
-0.0541165
-0.0155449
-0.00393323
-67.311
68.7273
0.136468
0.103686
0.077818
0.0527671
0.0396556
0.0285999
0.0226797
0.0172277
0.013977
0.0105983
0.0093532
0.00927977
0.00923781
0.00902154
0.00879013
0.0083985
0.00808516
0.00764077
0.00730648
0.00685375
0.00652205
0.00608409
0.00577404
0.00538312
0.00514304
0.00491863
0.00500028
0.005544
0.00640168
0.00479219
0.00343536
0.00280588
0.00234332
0.00208798
0.00182829
0.0016643
0.00147621
0.00135212
0.00120423
0.00110486
0.000984248
0.000901955
0.000800265
0.000729197
0.00063876
0.000572643
0.000484153
0.000415972
0.00032487
0.000285653
0.000270314
0.000253204
0.000217462
0.000182983
0.000126113
7.55273e-05
-4.47424e-06
-7.66469e-05
-0.000192912
-0.000302368
-0.0004853
-0.00066831
-0.000990115
-0.00134407
-0.00201793
-0.00289287
-0.00478955
-0.0079319
-0.0152744
-0.0251683
-0.0278236
-0.0349398
-0.0426893
-0.0537881
-0.0468694
-0.0182478
-0.00530154
-0.00134919
-69.1037
68.7321
0.150342
0.128026
0.10717
0.0849954
0.0725146
0.0605708
0.0531731
0.0447178
0.0386023
0.0308544
0.0280375
0.0281264
0.0280077
0.0271548
0.0262447
0.0247156
0.0235205
0.0218672
0.0206679
0.0191052
0.0180056
0.0166141
0.0156647
0.0145139
0.0138293
0.0132205
0.0134811
0.0150675
0.0175388
0.0132676
0.00969611
0.00805305
0.00686307
0.00620716
0.005538
0.00511097
0.00461405
0.00428113
0.00387715
0.0036014
0.00326082
0.00302514
0.00272945
0.00252004
0.00224962
0.00204811
0.00177268
0.00155412
0.00125755
0.00115093
0.00115928
0.0011555
0.00111935
0.00108017
0.00101383
0.000961613
0.0008888
0.000835067
0.000763405
0.00070975
0.000635814
0.000573042
0.000472904
0.000359719
0.000132543
-0.00021667
-0.00105133
-0.00262673
-0.00650457
-0.0121948
-0.0154623
-0.0224728
-0.0299482
-0.0409515
-0.0364838
-0.0142567
-0.00414657
-0.00105538
-69.8056
66.1937
0.45438
0.38402
0.321562
0.254599
0.217522
0.181531
0.159562
0.13406
0.115872
0.092366
0.0839963
0.0843876
0.0840527
0.0814666
0.078759
0.0741335
0.0705799
0.0655835
0.0620183
0.0572971
0.0540285
0.0498246
0.0470021
0.0435232
0.0414848
0.0396269
0.0403902
0.0451673
0.0528864
0.0397748
0.0290113
0.0241411
0.0205679
0.0186221
0.0166044
0.0153358
0.0138356
0.0128463
0.0116264
0.0108068
0.00977832
0.00907787
0.00818495
0.00756262
0.00674615
0.00614735
0.00531581
0.00466552
0.00376508
0.00344823
0.00347837
0.00346782
0.00335819
0.00324163
0.00304096
0.00288569
0.00266567
0.00250595
0.00228952
0.00213009
0.00190702
0.00172065
0.00141926
0.00108374
0.000402533
-0.00063057
-0.00312432
-0.00778808
-0.0194412
-0.0366812
-0.046237
-0.0673996
-0.0897034
-0.123473
-0.110162
-0.0422854
-0.0121589
-0.00307672
-69.4167
63.6481
0.768568
0.639699
0.536136
0.423007
0.362487
0.30193
0.266092
0.223109
0.193355
0.153272
0.139605
0.140678
0.140188
0.135784
0.13135
0.123509
0.117697
0.109243
0.103415
0.095431
0.090089
0.0829801
0.0783661
0.072475
0.0691333
0.0659287
0.067139
0.0751497
0.0890675
0.0661885
0.048091
0.0401775
0.0342079
0.0310401
0.027641
0.02557
0.023037
0.0214209
0.0193598
0.0180208
0.0162829
0.0151385
0.0136298
0.0126131
0.0112341
0.010256
0.00885181
0.00778704
0.00624937
0.00573174
0.00579917
0.00578421
0.00559741
0.00540654
0.00506636
0.00481246
0.00444021
0.00417918
0.00381344
0.00355305
0.00317684
0.00287293
0.00236705
0.00182166
0.000686671
-0.00098597
-0.00511044
-0.0126698
-0.0321542
-0.0614748
-0.0765473
-0.112281
-0.149
-0.207878
-0.186022
-0.0688041
-0.0193295
-0.00483466
-69.0278
61.0904
1.09995
0.894365
0.751092
0.58931
0.507453
0.421341
0.372908
0.31163
0.271251
0.213122
0.194624
0.197031
0.19648
0.190102
0.184078
0.172803
0.164921
0.152797
0.144898
0.13346
0.126221
0.116036
0.109781
0.101325
0.0967767
0.0920543
0.0936163
0.104896
0.126721
0.0924115
0.0667639
0.0561366
0.0477362
0.0434678
0.0386249
0.0358231
0.032202
0.0300136
0.0270646
0.0252511
0.022764
0.0212139
0.0190552
0.0176784
0.0157063
0.014382
0.0123745
0.0109277
0.00869301
0.007992
0.00812343
0.00810763
0.00783696
0.0075776
0.00708848
0.00674411
0.00621046
0.00585676
0.0053333
0.00498079
0.0044439
0.00403342
0.00331655
0.0025833
0.00099244
-0.00124317
-0.00695904
-0.0170743
-0.0444736
-0.086838
-0.106031
-0.157122
-0.20741
-0.295512
-0.265697
-0.0926129
-0.0251009
-0.00617001
-68.6387
58.5162
1.45598
1.14654
0.966789
0.752418
0.65259
0.539244
0.480238
0.399315
0.349858
0.271387
0.248807
0.253503
0.253005
0.244407
0.237016
0.221962
0.212314
0.196183
0.186524
0.171321
0.16247
0.148935
0.141285
0.13002
0.124428
0.117929
0.119705
0.134222
0.166621
0.118289
0.0848366
0.0720073
0.0610997
0.0559189
0.0495276
0.0461095
0.0413102
0.0386371
0.0347245
0.0325087
0.029208
0.0273141
0.0244497
0.0227678
0.0201529
0.0185356
0.015875
0.0141001
0.0110756
0.0102192
0.0104538
0.0104415
0.0100763
0.00975809
0.00910504
0.00868358
0.00797374
0.00754135
0.00684653
0.00641611
0.00570611
0.00520636
0.00426689
0.00337941
0.00132418
-0.00136098
-0.00863146
-0.0207872
-0.056194
-0.113128
-0.134238
-0.201995
-0.264306
-0.387863
-0.351102
-0.112199
-0.0289289
-0.00694912
-68.2494
55.9217
1.84462
1.39353
1.18387
0.910944
0.798269
0.654975
0.588445
0.485742
0.429625
0.327417
0.3019
0.310183
0.309855
0.298663
0.290261
0.270905
0.259968
0.239311
0.228372
0.208928
0.198908
0.1816
0.172935
0.158488
0.152115
0.143474
0.145286
0.162833
0.209752
0.143572
0.102085
0.0878018
0.0742349
0.0684192
0.0603121
0.0564517
0.050334
0.0473109
0.0423171
0.0398103
0.0355963
0.0334537
0.0297975
0.027895
0.0245601
0.0227314
0.0193404
0.0173228
0.0133717
0.012403
0.0127944
0.0127898
0.0123141
0.0119523
0.0111127
0.0106349
0.00972622
0.00923672
0.00834945
0.00786288
0.00696016
0.00639713
0.00521539
0.00422248
0.00168134
-0.00129514
-0.0101082
-0.0235698
-0.067053
-0.14085
-0.160579
-0.247085
-0.318753
-0.486625
-0.444592
-0.125559
-0.0303053
-0.00707595
-67.8598
53.3041
2.27443
1.63086
1.40349
1.06306
0.945173
0.767636
0.6981
0.570306
0.511237
0.38038
0.353641
0.367208
0.36714
0.352809
0.343946
0.319513
0.30801
0.282051
0.270561
0.24616
0.235639
0.21392
0.204816
0.186634
0.179895
0.168601
0.170238
0.190271
0.257408
0.167869
0.118247
0.103569
0.087061
0.0810119
0.0709275
0.066885
0.0592348
0.0560643
0.0498109
0.0471809
0.0419025
0.0396545
0.0350757
0.0330802
0.0289077
0.0269902
0.0227515
0.0206234
0.0155489
0.0145328
0.0151511
0.0151573
0.0145477
0.014166
0.0131062
0.0126038
0.0114623
0.0109483
0.00983669
0.00932661
0.00820093
0.00761296
0.00615663
0.00512775
0.00205621
-0.000995549
-0.0113987
-0.0251511
-0.0766989
-0.170734
-0.184248
-0.292769
-0.36935
-0.593783
-0.549161
-0.129967
-0.0288007
-0.00650526
-67.4701
50.6619
2.75452
1.85155
1.62762
1.20628
1.09446
0.875978
0.810086
0.652122
0.595721
0.429178
0.40377
0.424779
0.424996
0.406737
0.398253
0.367604
0.356632
0.324213
0.313267
0.282837
0.272818
0.245736
0.237061
0.214323
0.207858
0.193212
0.194455
0.215826
0.311332
0.190571
0.133012
0.11941
0.0994697
0.0937671
0.0813022
0.0774636
0.0679572
0.0649418
0.0571606
0.0546583
0.0480882
0.0459492
0.0402514
0.0383531
0.0331656
0.0313424
0.0260787
0.0240423
0.0175642
0.0165976
0.0175328
0.0175498
0.0167726
0.0164072
0.0150778
0.0145987
0.0131737
0.0126843
0.0113003
0.0108154
0.00942057
0.00886387
0.00708112
0.00611508
0.00243061
-0.000401562
-0.0125549
-0.0252202
-0.0846447
-0.203838
-0.204116
-0.339729
-0.414033
-0.711703
-0.668713
-0.121655
-0.0241411
-0.00525635
-67.0801
47.996
3.29435
2.04508
1.85966
1.33711
1.24802
0.978217
0.925756
0.729876
0.684612
0.472332
0.452044
0.483183
0.483592
0.460275
0.453449
0.414909
0.406113
0.365517
0.356753
0.318699
0.31068
0.276817
0.26987
0.241363
0.236149
0.217188
0.217869
0.238418
0.37391
0.210746
0.14602
0.135505
0.11131
0.106794
0.0913329
0.0882699
0.0764211
0.074011
0.0643002
0.0622994
0.0540976
0.0523872
0.0452759
0.0437584
0.0372898
0.0358331
0.0292774
0.0276395
0.0193595
0.0185868
0.0199517
0.0199747
0.0189816
0.0186876
0.017016
0.0166319
0.0148481
0.0144565
0.0127283
0.0123409
0.0106071
0.0101642
0.00797334
0.00721153
0.00277131
0.000565661
-0.0136902
-0.0234185
-0.0901991
-0.241698
-0.21857
-0.389141
-0.44978
-0.843247
-0.808426
-0.0953601
-0.0163364
-0.00342525
-66.69
45.311
3.90327
2.19606
2.10518
1.45061
1.40881
1.07176
1.04716
0.801606
0.780183
0.507807
0.498261
0.542816
0.543139
0.513154
0.509914
0.461025
0.456868
0.405549
0.401413
0.353361
0.349578
0.306822
0.303543
0.267472
0.264991
0.240381
0.240489
0.256414
0.448437
0.226986
0.156861
0.15215
0.122365
0.12026
0.100869
0.0994289
0.0845086
0.0833734
0.0711324
0.0701895
0.0598483
0.0590423
0.0500776
0.0493627
0.0412144
0.0405285
0.0322802
0.031503
0.0208551
0.020491
0.0224248
0.0224408
0.0211632
0.0210237
0.0189032
0.0187217
0.0164674
0.0162827
0.0141033
0.0139209
0.0117425
0.011535
0.00880885
0.00845555
0.00302306
0.00201533
-0.0150061
-0.0193342
-0.092364
-0.286541
-0.225275
-0.442948
-0.472213
-0.991922
-0.975268
-0.0437034
-0.00588706
-0.00119105
-66.2997
45.3108
3.90325
2.19605
2.10518
1.45062
1.40881
1.07177
1.04717
0.801609
0.780187
0.507809
0.498263
0.542819
0.543141
0.513157
0.509916
0.461027
0.45687
0.405551
0.401415
0.353363
0.349581
0.306824
0.303545
0.267474
0.264993
0.240384
0.240492
0.256418
0.448445
0.226991
0.156864
0.152153
0.122367
0.120262
0.100871
0.0994312
0.0845107
0.0833754
0.0711344
0.0701915
0.0598501
0.0590441
0.0500793
0.0493643
0.0412158
0.0405299
0.0322813
0.0315041
0.0208557
0.0204916
0.0224257
0.0224417
0.0211642
0.0210246
0.0189043
0.0187227
0.0164684
0.0162837
0.0141042
0.0139219
0.0117435
0.011536
0.00880995
0.00845668
0.00302476
0.00201717
-0.0150018
-0.0193292
-0.0923481
-0.286496
-0.225241
-0.442889
-0.47215
-0.991806
-0.975154
-0.0436982
-0.00588634
-0.00119117
-66.3002
47.9959
3.29433
2.04508
1.85966
1.33712
1.24802
0.97822
0.92576
0.729879
0.684615
0.472334
0.452046
0.483185
0.483595
0.460278
0.453451
0.414911
0.406116
0.365519
0.356756
0.318702
0.310683
0.276819
0.269873
0.241365
0.236151
0.217191
0.217872
0.238422
0.373917
0.210751
0.146023
0.135508
0.111313
0.106796
0.0913352
0.0882721
0.0764232
0.074013
0.0643021
0.0623013
0.0540993
0.052389
0.0452775
0.04376
0.0372912
0.0358344
0.0292785
0.0276405
0.0193602
0.0185874
0.0199525
0.0199756
0.0189826
0.0186886
0.017017
0.0166329
0.0148491
0.0144575
0.0127293
0.0123419
0.0106081
0.0101652
0.0079744
0.00721264
0.0027729
0.000567551
-0.0136862
-0.0234131
-0.0901837
-0.24166
-0.218537
-0.389088
-0.449721
-0.843148
-0.808331
-0.0953487
-0.0163343
-0.00342495
-66.6904
50.6618
2.75449
1.85155
1.62762
1.20628
1.09447
0.875981
0.810089
0.652125
0.595724
0.42918
0.403772
0.424781
0.424998
0.406739
0.398256
0.367606
0.356635
0.324215
0.313269
0.282839
0.27282
0.245738
0.237063
0.214325
0.20786
0.193214
0.194458
0.21583
0.311338
0.190575
0.133015
0.119412
0.099472
0.0937693
0.0813042
0.0774656
0.0679591
0.0649436
0.0571623
0.05466
0.0480898
0.0459508
0.0402529
0.0383545
0.0331669
0.0313437
0.0260797
0.0240432
0.0175648
0.0165982
0.0175335
0.0175506
0.0167735
0.0164081
0.0150787
0.0145996
0.0131746
0.0126852
0.0113011
0.0108162
0.00942144
0.00886475
0.00708208
0.00611611
0.00243205
-0.000399749
-0.0125513
-0.0252148
-0.0846305
-0.203806
-0.204086
-0.339683
-0.413979
-0.711618
-0.668634
-0.12164
-0.0241381
-0.00525546
-67.0805
53.304
2.27441
1.63086
1.40349
1.06306
0.945175
0.767639
0.698103
0.570309
0.511239
0.380381
0.353642
0.36721
0.367142
0.352811
0.343947
0.319515
0.308012
0.282053
0.270563
0.246162
0.235641
0.213922
0.204818
0.186636
0.179897
0.168603
0.17024
0.190274
0.257412
0.167873
0.11825
0.103571
0.087063
0.0810139
0.0709293
0.0668868
0.0592364
0.0560659
0.0498124
0.0471824
0.0419039
0.0396558
0.035077
0.0330814
0.0289088
0.0269913
0.0227524
0.0206242
0.0155495
0.0145333
0.0151517
0.0151579
0.0145484
0.0141667
0.013107
0.0126046
0.0114631
0.0109491
0.00983746
0.00932738
0.0082017
0.00761373
0.00615747
0.00512868
0.00205746
-0.000993884
-0.0113956
-0.025146
-0.0766861
-0.170707
-0.184221
-0.292729
-0.369302
-0.593713
-0.549096
-0.129952
-0.028797
-0.00650385
-67.4704
55.9217
1.8446
1.39353
1.18387
0.910945
0.798271
0.654977
0.588448
0.485744
0.429627
0.327418
0.301901
0.310184
0.309856
0.298665
0.290263
0.270907
0.259969
0.239313
0.228373
0.20893
0.19891
0.181602
0.172936
0.158489
0.152117
0.143475
0.145288
0.162836
0.209755
0.143575
0.102088
0.0878038
0.0742367
0.0684208
0.0603136
0.0564532
0.0503354
0.0473123
0.0423184
0.0398116
0.0355975
0.0334549
0.0297986
0.0278961
0.0245611
0.0227323
0.0193412
0.0173236
0.0133722
0.0124035
0.0127949
0.0127903
0.0123147
0.0119529
0.0111133
0.0106355
0.00972688
0.00923738
0.00835011
0.00786353
0.00696081
0.00639779
0.0052161
0.00422327
0.00168242
-0.00129367
-0.0101055
-0.0235651
-0.0670419
-0.140828
-0.160555
-0.247052
-0.318712
-0.486567
-0.444539
-0.125544
-0.0303014
-0.00707422
-67.8601
58.5161
1.45596
1.14654
0.966788
0.752419
0.652592
0.539246
0.48024
0.399317
0.349859
0.271388
0.248808
0.253504
0.253006
0.244408
0.237017
0.221963
0.212315
0.196184
0.186525
0.171322
0.162472
0.148937
0.141287
0.130021
0.124429
0.11793
0.119707
0.134224
0.166624
0.118292
0.0848386
0.0720089
0.0611012
0.0559202
0.0495289
0.0461106
0.0413114
0.0386382
0.0347255
0.0325097
0.029209
0.0273151
0.0244506
0.0227687
0.0201537
0.0185363
0.0158756
0.0141007
0.011076
0.0102195
0.0104542
0.0104419
0.0100768
0.00975861
0.00910558
0.00868412
0.00797428
0.00754189
0.00684706
0.00641664
0.00570663
0.00520689
0.00426747
0.00338007
0.00132506
-0.00135975
-0.00862919
-0.0207832
-0.0561848
-0.11311
-0.134218
-0.201968
-0.264273
-0.387817
-0.35106
-0.112185
-0.0289252
-0.00694726
-68.2496
61.0903
1.09994
0.894362
0.751091
0.589311
0.507454
0.421342
0.372909
0.311631
0.271252
0.213123
0.194625
0.197032
0.196481
0.190103
0.184079
0.172804
0.164922
0.152798
0.144899
0.133461
0.126222
0.116037
0.109782
0.101326
0.0967777
0.0920553
0.0936174
0.104898
0.126723
0.0924136
0.0667655
0.0561379
0.0477373
0.0434688
0.0386258
0.035824
0.0322029
0.0300144
0.0270654
0.0252519
0.0227647
0.0212146
0.0190559
0.017679
0.0157069
0.0143825
0.012375
0.0109281
0.00869336
0.00799227
0.00812372
0.00810796
0.00783733
0.00757799
0.00708889
0.00674453
0.00621088
0.00585717
0.00533371
0.00498119
0.00444431
0.00403383
0.003317
0.0025838
0.000993124
-0.00124219
-0.00695726
-0.0170711
-0.0444664
-0.0868246
-0.106015
-0.157101
-0.207383
-0.295477
-0.265665
-0.0926016
-0.0250976
-0.00616821
-68.6388
63.6481
0.768556
0.639696
0.536135
0.423007
0.362488
0.301931
0.266093
0.22311
0.193356
0.153273
0.139605
0.140679
0.140188
0.135784
0.131351
0.123509
0.117698
0.109243
0.103416
0.0954317
0.0900897
0.0829807
0.0783667
0.0724757
0.069134
0.0659294
0.0671398
0.0751507
0.0890691
0.06619
0.0480922
0.0401785
0.0342087
0.0310408
0.0276417
0.0255707
0.0230376
0.0214214
0.0193603
0.0180214
0.0162834
0.015139
0.0136303
0.0126136
0.0112346
0.0102564
0.00885217
0.00778736
0.00624961
0.00573193
0.00579937
0.00578443
0.00559767
0.00540681
0.00506664
0.00481274
0.0044405
0.00417947
0.00381373
0.00355333
0.00317712
0.00287322
0.00236736
0.00182202
0.000687156
-0.000985268
-0.00510917
-0.0126674
-0.0321491
-0.0614653
-0.0765362
-0.112266
-0.148981
-0.207854
-0.186
-0.0687957
-0.019327
-0.00483314
-69.0279
66.1937
0.454372
0.384018
0.321562
0.254599
0.217523
0.181531
0.159562
0.13406
0.115873
0.0923664
0.0839967
0.0843879
0.084053
0.081467
0.0787593
0.0741338
0.0705803
0.0655839
0.0620186
0.0572974
0.0540289
0.049825
0.0470025
0.0435236
0.0414852
0.0396273
0.0403906
0.0451678
0.0528873
0.0397757
0.029012
0.0241417
0.0205684
0.0186225
0.0166048
0.0153361
0.013836
0.0128466
0.0116267
0.0108072
0.00977862
0.00907816
0.00818522
0.00756289
0.0067464
0.00614758
0.00531602
0.00466571
0.00376523
0.00344834
0.00347848
0.00346795
0.00335834
0.00324178
0.00304112
0.00288586
0.00266583
0.00250611
0.00228969
0.00213025
0.00190719
0.00172081
0.00141944
0.00108395
0.000402821
-0.000630149
-0.00312356
-0.00778666
-0.0194381
-0.0366756
-0.0462303
-0.0673906
-0.0896921
-0.123459
-0.110149
-0.0422803
-0.0121573
-0.00307567
-69.4168
68.7321
0.150339
0.128026
0.10717
0.0849955
0.0725147
0.060571
0.0531733
0.0447179
0.0386025
0.0308545
0.0280376
0.0281265
0.0280079
0.0271549
0.0262448
0.0247157
0.0235206
0.0218673
0.020668
0.0191053
0.0180057
0.0166142
0.0156648
0.014514
0.0138294
0.0132207
0.0134812
0.0150677
0.0175391
0.0132679
0.00969634
0.00805323
0.00686321
0.0062073
0.00553812
0.00511108
0.00461416
0.00428124
0.00387725
0.0036015
0.00326091
0.00302523
0.00272954
0.00252013
0.0022497
0.00204819
0.00177275
0.00155418
0.0012576
0.00115097
0.00115932
0.00115554
0.00111939
0.00108022
0.00101388
0.000961665
0.000888853
0.00083512
0.000763457
0.000709802
0.000635867
0.000573096
0.000472963
0.000359788
0.000132636
-0.000216532
-0.00105107
-0.00262626
-0.00650355
-0.0121929
-0.01546
-0.0224697
-0.0299444
-0.0409466
-0.0364795
-0.014255
-0.00414601
-0.00105498
-69.8056
68.7268
0.136305
0.103413
0.0774318
0.0521697
0.0388128
0.0272944
0.0209046
0.0148483
0.0124394
0.0117705
0.0114177
0.0108664
0.0104327
0.00982818
0.00939054
0.00882089
0.00841266
0.00788284
0.00750151
0.00700432
0.00664738
0.00618452
0.00585999
0.00545438
0.00520585
0.00497335
0.00505224
0.00559734
0.00646049
0.00483471
0.00346447
0.00282883
0.00236185
0.00210412
0.00184209
0.00167665
0.00148695
0.00136182
0.00121271
0.00111253
0.000990966
0.000908033
0.000805572
0.00073398
0.000642899
0.000576328
0.000487252
0.000418635
0.000326969
0.000287535
0.000272168
0.000255024
0.000219191
0.000184626
0.000127624
7.69374e-05
-3.19954e-06
-7.54695e-05
-0.000191859
-0.000301404
-0.000484448
-0.000667535
-0.000989438
-0.00134346
-0.0020174
-0.0028924
-0.00478913
-0.0079315
-0.015274
-0.0251678
-0.0278233
-0.0349396
-0.0426891
-0.0537879
-0.0468693
-0.0182478
-0.00530152
-0.00134916
-69.1037
66.1784
0.412361
0.309963
0.232267
0.156033
0.116365
0.081678
0.0627005
0.044399
0.0372488
0.0352987
0.0342609
0.0325946
0.0313049
0.0294779
0.0281769
0.0264562
0.0252429
0.0236426
0.0225092
0.0210074
0.0199464
0.018548
0.0175832
0.0163569
0.0156169
0.0149076
0.0151381
0.0167793
0.0194811
0.0144939
0.010364
0.00847976
0.00707718
0.00631254
0.0055224
0.00503093
0.00445827
0.00408641
0.00363616
0.00333845
0.00297135
0.00272488
0.00241548
0.00220272
0.00192771
0.00172988
0.00146094
0.00125683
0.000978819
0.000861643
0.000816576
0.000765824
0.000657527
0.000554781
0.000382625
0.000231996
-9.90667e-06
-0.000224637
-0.000575845
-0.000901265
-0.00145334
-0.00199705
-0.00296702
-0.00401758
-0.00604415
-0.00863631
-0.0143176
-0.0236265
-0.04572
-0.075793
-0.0832914
-0.104793
-0.127933
-0.162084
-0.141476
-0.0541164
-0.0155448
-0.00393314
-67.311
63.6236
0.698859
0.515526
0.387043
0.258434
0.193718
0.135433
0.10447
0.0735038
0.0618502
0.0587907
0.0571295
0.0543078
0.0521987
0.0491066
0.0469802
0.0440714
0.0420886
0.0393837
0.0375316
0.0349928
0.0332589
0.0308942
0.0293169
0.0272399
0.0260268
0.0248043
0.0251676
0.0279189
0.0328092
0.0241189
0.0171738
0.0141115
0.011767
0.010522
0.00919079
0.00838847
0.00742158
0.00681415
0.00605352
0.00556714
0.00494691
0.00454424
0.00402152
0.00367394
0.00320944
0.00288628
0.00243203
0.00209797
0.00162424
0.00143287
0.00136122
0.00127893
0.00109565
0.000927727
0.000636781
0.000390725
-1.76805e-05
-0.000368324
-0.00096084
-0.00149204
-0.00242254
-0.00330949
-0.00494136
-0.00665265
-0.0100483
-0.0142567
-0.0237009
-0.0388101
-0.0758468
-0.127321
-0.138199
-0.174582
-0.212737
-0.272571
-0.238753
-0.0880335
-0.0247097
-0.00618031
-65.5182
61.0584
1.00311
0.718895
0.541826
0.35828
0.270814
0.188096
0.146239
0.101836
0.0861081
0.0822268
0.0800446
0.0759927
0.073132
0.0686969
0.0658149
0.0616496
0.0589633
0.0550908
0.0525816
0.0489461
0.0465967
0.043209
0.0410707
0.0380885
0.0364371
0.0346376
0.0351016
0.038973
0.0466808
0.0336742
0.0238284
0.0197145
0.0164129
0.014735
0.0128381
0.0117526
0.0103705
0.00954803
0.00845992
0.0078012
0.00691377
0.0063684
0.00562054
0.00514983
0.0044855
0.00404791
0.00339831
0.00294471
0.00225836
0.00199931
0.0019063
0.0017961
0.00153318
0.00130562
0.000889171
0.00055598
-2.77292e-05
-0.000502299
-0.00134825
-0.0020668
-0.00339344
-0.00459209
-0.0069125
-0.00922031
-0.0140198
-0.0196675
-0.0328576
-0.0531166
-0.105396
-0.180473
-0.192087
-0.244299
-0.296674
-0.386804
-0.340706
-0.118455
-0.0320828
-0.00788709
-63.7252
58.4789
1.33296
0.917979
0.696868
0.454283
0.347721
0.239126
0.18811
0.129022
0.109892
0.105595
0.103035
0.0976302
0.0941285
0.0882253
0.0847011
0.0791688
0.0758857
0.0707435
0.0676768
0.0628481
0.0599761
0.0554739
0.0528583
0.0488839
0.0468534
0.0443805
0.0448994
0.0498738
0.061381
0.0431032
0.0302538
0.0252852
0.020994
0.0189568
0.0164529
0.0151287
0.0132971
0.0122926
0.0108491
0.0100444
0.00886693
0.00820064
0.00720847
0.00663345
0.00575248
0.00521801
0.00435674
0.00380075
0.0028754
0.00255912
0.00245208
0.00231939
0.00196933
0.0016911
0.00113827
0.000731303
-4.20924e-05
-0.000621365
-0.0017407
-0.00261719
-0.00436941
-0.00582978
-0.00888409
-0.0116883
-0.0179574
-0.0247767
-0.0417316
-0.0661423
-0.134033
-0.236164
-0.244351
-0.31401
-0.3791
-0.506487
-0.449704
-0.143441
-0.0369689
-0.00888268
-61.932
55.8819
1.69695
1.10931
0.85277
0.544846
0.42471
0.287852
0.230305
0.15461
0.133084
0.128895
0.126139
0.119192
0.115221
0.107659
0.103668
0.0965982
0.0928825
0.0863134
0.0828425
0.0766719
0.0734209
0.0676634
0.0647003
0.0596016
0.0572875
0.0540038
0.0545191
0.0605135
0.0772729
0.0523152
0.0363641
0.0308288
0.025485
0.0231973
0.0200207
0.0185251
0.0161907
0.0150547
0.0132128
0.0123025
0.0107996
0.0100459
0.00877969
0.0081293
0.00700559
0.00640117
0.00530296
0.00467156
0.00346808
0.00311058
0.0029989
0.00285142
0.00240264
0.00208762
0.0013816
0.000921345
-6.41542e-05
-0.000718759
-0.0021428
-0.00313247
-0.00535699
-0.00700365
-0.0108656
-0.0140176
-0.021873
-0.0294804
-0.0503072
-0.0774287
-0.161301
-0.295612
-0.294156
-0.383904
-0.459035
-0.633536
-0.568683
-0.160435
-0.0387195
-0.00904441
-60.1384
53.2648
2.10451
1.2874
1.01073
0.627898
0.502369
0.333407
0.273227
0.178032
0.155582
0.152137
0.149412
0.140635
0.136458
0.12695
0.122758
0.113894
0.109994
0.101759