/*--------------------------------*- C++ -*----------------------------------*\
| =========                 |                                                 |
| \\      /  F ield         | OpenFOAM: The Open Source CFD Toolbox           |
|  \\    /   O peration     | Version:  5.x                                   |
|   \\  /    A nd           | Web:      www.OpenFOAM.org                      |
|    \\/     M anipulation  |                                                 |
\*---------------------------------------------------------------------------*/
FoamFile
{
    version     2.0;
    format      ascii;
    class       volScalarField;
    location    "2.9";
    object      T;
}
// * * * * * * * * * * * * * * * * * * * * * * * * * * * * * * * * * * * * * //

dimensions      [0 0 0 1 0 0 0];

internalField   nonuniform List<scalar> 
3200
(
2.08989
2.43998
2.45995
2.60418
2.61331
2.68518
2.68996
2.73144
2.73428
2.76048
2.76222
2.77734
2.77866
2.79515
2.79649
2.81222
2.81348
2.82797
2.82912
2.84223
2.84326
2.85498
2.8559
2.86627
2.86709
2.87623
2.87695
2.88519
2.88591
2.89464
2.90229
2.90284
2.90778
2.90814
2.91191
2.9122
2.91522
2.91545
2.9179
2.91809
2.92009
2.92025
2.92189
2.92201
2.92334
2.92344
2.92451
2.92458
2.92538
2.92543
2.92591
2.92595
2.92643
2.92646
2.92683
2.92685
2.92704
2.92705
2.927
2.92698
2.92659
2.92653
2.92561
2.92549
2.92366
2.92343
2.91981
2.91931
2.91139
2.91
2.88754
2.84837
2.844
2.78037
2.77287
2.65379
2.64885
2.64822
2.6481
2.64807
2.26477
2.53262
2.57433
2.68972
2.7092
2.76668
2.77687
2.80993
2.81598
2.8368
2.8405
2.85262
2.85545
2.86849
2.87134
2.8838
2.88647
2.89794
2.90038
2.91078
2.91297
2.92226
2.92421
2.93243
2.93416
2.94141
2.94295
2.9495
2.95106
2.95828
2.96471
2.96589
2.96984
2.97062
2.97361
2.97421
2.97661
2.97709
2.97904
2.97944
2.98103
2.98135
2.98265
2.98292
2.98397
2.98418
2.98503
2.98519
2.98582
2.98593
2.98631
2.9864
2.98678
2.98685
2.98714
2.98719
2.98734
2.98735
2.98731
2.98727
2.98696
2.98684
2.9861
2.98586
2.98439
2.9839
2.98099
2.97992
2.97347
2.97041
2.95079
2.91873
2.90939
2.85866
2.84287
2.75037
2.73993
2.73821
2.73785
2.73777
2.42892
2.6343
2.68576
2.7791
2.80357
2.85006
2.86286
2.8895
2.89708
2.91381
2.91845
2.92828
2.93182
2.94224
2.9458
2.95576
2.9591
2.96828
2.97133
2.97965
2.98239
2.98983
2.99227
2.99885
3.00101
3.00681
3.00875
3.01401
3.01598
3.02196
3.02734
3.02884
3.03203
3.033
3.03541
3.03616
3.03808
3.03868
3.04024
3.04074
3.04201
3.04242
3.04346
3.04379
3.04463
3.0449
3.04557
3.04578
3.04628
3.04642
3.04673
3.04684
3.04714
3.04723
3.04746
3.04752
3.04764
3.04766
3.04762
3.04757
3.04732
3.04717
3.04658
3.04627
3.04508
3.04446
3.0421
3.04075
3.03542
3.03149
3.01453
2.98817
2.97642
2.93555
2.91594
2.84366
2.83067
2.82814
2.82758
2.82746
2.58486
2.74213
2.79552
2.87123
2.89705
2.93479
2.94829
2.96984
2.97782
2.99129
2.99619
3.00419
3.00792
3.01627
3.02
3.02799
3.0315
3.03887
3.04207
3.04875
3.05163
3.0576
3.06016
3.06545
3.06771
3.07238
3.07441
3.07866
3.08073
3.08566
3.09013
3.09172
3.0943
3.09533
3.09726
3.09806
3.0996
3.10024
3.10149
3.10201
3.10303
3.10346
3.10429
3.10464
3.10532
3.1056
3.10614
3.10635
3.10676
3.10691
3.10716
3.10727
3.10751
3.10761
3.10779
3.10785
3.10795
3.10797
3.10794
3.10789
3.10768
3.10752
3.10704
3.10671
3.10575
3.1051
3.10317
3.10173
3.09731
3.09309
3.07865
3.05704
3.04462
3.0116
2.99112
2.93458
2.92098
2.91799
2.9173
2.91715
2.73451
2.85412
2.90438
2.96535
2.99006
3.02049
3.03341
3.05071
3.05834
3.06912
3.0738
3.08027
3.08383
3.09048
3.09403
3.10041
3.10374
3.10962
3.11267
3.118
3.12074
3.1255
3.12795
3.13216
3.13432
3.13804
3.13998
3.14339
3.14538
3.14938
3.15303
3.15456
3.15664
3.15762
3.15917
3.15992
3.16116
3.16176
3.16276
3.16326
3.16408
3.16448
3.16515
3.16548
3.16602
3.16629
3.16672
3.16692
3.16724
3.16739
3.16759
3.16769
3.16789
3.16798
3.16812
3.16819
3.16826
3.16828
3.16825
3.1682
3.16804
3.16789
3.1675
3.16719
3.16641
3.16578
3.16423
3.16284
3.15919
3.15509
3.14306
3.12553
3.11365
3.08714
3.06774
3.02379
3.01088
3.00774
3.007
3.00684
2.87938
2.96888
3.01282
3.06092
3.08284
3.10689
3.11834
3.13198
3.13873
3.1472
3.15134
3.15647
3.15962
3.16482
3.16796
3.17294
3.17589
3.18049
3.18318
3.18735
3.18977
3.1935
3.19566
3.19896
3.20087
3.20378
3.2055
3.20817
3.20994
3.21311
3.21602
3.21738
3.21902
3.21989
3.22111
3.22177
3.22274
3.22328
3.22406
3.2245
3.22514
3.22549
3.22602
3.22631
3.22673
3.22697
3.2273
3.22749
3.22774
3.22786
3.22802
3.22812
3.22827
3.22835
3.22846
3.22852
3.22857
3.22859
3.22857
3.22852
3.22839
3.22826
3.22796
3.22768
3.22707
3.22651
3.22527
3.22403
3.2211
3.21742
3.20769
3.1938
3.18326
3.1624
3.14535
3.11175
3.10038
3.0974
3.09668
3.09652
3.02066
3.08547
3.12108
3.15755
3.17553
3.19379
3.20319
3.21351
3.21905
3.22545
3.22884
3.23274
3.23533
3.23924
3.2418
3.24555
3.24796
3.25143
3.25363
3.25677
3.25875
3.26156
3.26333
3.26581
3.26737
3.26957
3.27097
3.27299
3.27445
3.27685
3.27907
3.28019
3.28143
3.28215
3.28306
3.28361
3.28434
3.28478
3.28537
3.28573
3.28621
3.2865
3.28689
3.28713
3.28745
3.28764
3.2879
3.28805
3.28824
3.28834
3.28846
3.28854
3.28865
3.28872
3.2888
3.28885
3.28889
3.2889
3.28889
3.28885
3.28875
3.28864
3.28841
3.28818
3.28772
3.28726
3.28632
3.28529
3.28303
3.27998
3.27249
3.26193
3.25328
3.2375
3.22361
3.19882
3.18954
3.18698
3.18633
3.18619
3.15935
3.20322
3.22932
3.25491
3.26821
3.28105
3.288
3.29524
3.29933
3.30381
3.30633
3.30907
3.31098
3.31371
3.3156
3.31822
3.32
3.32242
3.32404
3.32623
3.3277
3.32966
3.33096
3.3327
3.33385
3.33539
3.33642
3.33784
3.33891
3.34061
3.34217
3.343
3.34387
3.3444
3.34504
3.34544
3.34595
3.34627
3.34669
3.34695
3.34729
3.3475
3.34778
3.34795
3.34818
3.34832
3.3485
3.34861
3.34874
3.34881
3.3489
3.34896
3.34903
3.34908
3.34914
3.34918
3.34921
3.34921
3.3492
3.34918
3.34911
3.34903
3.34886
3.34869
3.34837
3.34803
3.34736
3.3466
3.34499
3.34272
3.33741
3.32999
3.32359
3.31253
3.30232
3.28527
3.27844
3.27647
3.27597
3.27585
3.29629
3.32168
3.33757
3.35276
3.36091
3.36854
3.3728
3.3771
3.3796
3.38226
3.3838
3.38543
3.3866
3.38821
3.38937
3.39092
3.39201
3.39344
3.39443
3.39573
3.39663
3.39779
3.39858
3.39961
3.40032
3.40122
3.40186
3.4027
3.40336
3.40436
3.40529
3.4058
3.40632
3.40664
3.40702
3.40727
3.40757
3.40776
3.40801
3.40817
3.40837
3.4085
3.40867
3.40877
3.40891
3.40899
3.4091
3.40916
3.40924
3.40929
3.40934
3.40937
3.40942
3.40945
3.40949
3.40951
3.40952
3.40953
3.40952
3.4095
3.40946
3.40941
3.40932
3.40921
3.40902
3.40881
3.40842
3.40795
3.40698
3.40559
3.40241
3.39801
3.39408
3.38753
3.38129
3.37132
3.36714
3.36591
3.36559
3.36551
3.43221
3.44052
3.44585
3.45089
3.45363
3.45617
3.4576
3.45903
3.45987
3.46075
3.46127
3.46181
3.4622
3.46274
3.46313
3.46364
3.464
3.46448
3.46481
3.46524
3.46554
3.46593
3.4662
3.46654
3.46677
3.46707
3.46729
3.46757
3.46779
3.46812
3.46843
3.4686
3.46877
3.46888
3.46901
3.46909
3.46919
3.46926
3.46934
3.46939
3.46946
3.4695
3.46955
3.46959
3.46963
3.46966
3.4697
3.46972
3.46975
3.46976
3.46978
3.46979
3.46981
3.46982
3.46983
3.46983
3.46984
3.46984
3.46984
3.46983
3.46982
3.4698
3.46977
3.46974
3.46967
3.4696
3.46947
3.46931
3.46899
3.46852
3.46747
3.466
3.46468
3.46251
3.46041
3.45713
3.45573
3.45531
3.4552
3.45517
3.43216
3.44104
3.4472
3.45385
3.45792
3.46234
3.46517
3.4684
3.47048
3.47287
3.47434
3.47596
3.47715
3.47877
3.47995
3.48149
3.48257
3.48396
3.48493
3.48615
3.48699
3.48806
3.48879
3.48972
3.49036
3.49117
3.49174
3.49249
3.49309
3.494
3.49484
3.49532
3.49581
3.49613
3.4965
3.49675
3.49705
3.49726
3.49752
3.49769
3.4979
3.49805
3.49823
3.49835
3.4985
3.4986
3.49873
3.49881
3.4989
3.49896
3.49903
3.49908
3.49915
3.49919
3.49926
3.4993
3.49936
3.4994
3.49945
3.49948
3.49952
3.49955
3.49959
3.49961
3.49964
3.49965
3.49965
3.49963
3.49954
3.49936
3.49889
3.49814
3.49735
3.4959
3.49435
3.4918
3.4907
3.49038
3.49029
3.49027
3.29614
3.32324
3.34158
3.36164
3.37373
3.3871
3.39549
3.40525
3.41144
3.41866
3.42303
3.42789
3.43143
3.43633
3.43983
3.44448
3.44771
3.45189
3.45477
3.45845
3.46097
3.46418
3.46637
3.46916
3.47107
3.47352
3.47522
3.47748
3.47926
3.48199
3.48455
3.48597
3.48745
3.48839
3.48951
3.49025
3.49117
3.49178
3.49255
3.49307
3.49371
3.49415
3.49469
3.49506
3.49551
3.49581
3.49618
3.49643
3.49672
3.49689
3.49709
3.49724
3.49744
3.49758
3.49778
3.49791
3.49808
3.4982
3.49835
3.49845
3.49858
3.49866
3.49877
3.49883
3.49891
3.49894
3.49895
3.49888
3.49864
3.4981
3.49669
3.49443
3.49207
3.48769
3.4831
3.47534
3.47208
3.47112
3.47087
3.47081
3.15903
3.20578
3.23589
3.26975
3.2895
3.31205
3.32575
3.34224
3.35236
3.36455
3.37169
3.37988
3.38565
3.39395
3.39967
3.40753
3.41281
3.41988
3.42458
3.4308
3.43492
3.44035
3.44393
3.44864
3.45176
3.45589
3.45868
3.46248
3.46539
3.47
3.4743
3.47662
3.47911
3.48064
3.48253
3.48374
3.48529
3.4863
3.4876
3.48844
3.48953
3.49024
3.49116
3.49175
3.49252
3.49302
3.49365
3.49404
3.49453
3.49482
3.49516
3.49539
3.49574
3.49597
3.4963
3.49651
3.4968
3.49699
3.49725
3.49741
3.49763
3.49777
3.49795
3.49805
3.49818
3.49824
3.49825
3.49814
3.49774
3.49687
3.49452
3.49072
3.48687
3.4795
3.47197
3.45871
3.45337
3.45183
3.45143
3.45134
3.02005
3.08899
3.13004
3.17842
3.20515
3.23736
3.2559
3.27949
3.29319
3.31065
3.32031
3.33196
3.33978
3.35167
3.35942
3.37068
3.37783
3.38796
3.39432
3.40324
3.40881
3.41658
3.42144
3.42819
3.43241
3.43832
3.44209
3.44753
3.45145
3.45802
3.46412
3.46726
3.4708
3.47287
3.47557
3.47722
3.47944
3.4808
3.48266
3.4838
3.48536
3.48633
3.48764
3.48845
3.48955
3.49021
3.49112
3.49165
3.49235
3.49275
3.49322
3.49354
3.49404
3.49436
3.49482
3.49511
3.49553
3.49579
3.49615
3.49637
3.49668
3.49687
3.49713
3.49727
3.49746
3.49753
3.49756
3.49741
3.49686
3.4957
3.49241
3.48702
3.48181
3.47131
3.46107
3.44175
3.4345
3.43249
3.43199
3.43188
2.87831
2.97331
3.02391
3.08796
3.12058
3.16321
3.18584
3.21713
3.23387
3.25706
3.26885
3.2842
3.29373
3.30955
3.31903
3.33399
3.34274
3.35619
3.36397
3.37581
3.38262
3.39294
3.39887
3.40783
3.413
3.42083
3.42544
3.43263
3.43741
3.44605
3.45407
3.45788
3.46255
3.46508
3.46866
3.47067
3.47362
3.47528
3.47775
3.47914
3.48122
3.4824
3.48414
3.48513
3.48659
3.4874
3.4886
3.48926
3.49019
3.49067
3.4913
3.49169
3.49234
3.49273
3.49335
3.49371
3.49426
3.49458
3.49506
3.49533
3.49574
3.49597
3.49631
3.49649
3.49674
3.49683
3.49687
3.4967
3.49601
3.49462
3.49039
3.4833
3.47697
3.4631
3.45054
3.42432
3.41542
3.4131
3.41253
3.4124
2.73277
2.85941
2.91723
2.99876
3.03562
3.08985
3.11544
3.15535
3.17429
3.20393
3.21725
3.23667
3.24744
3.26769
3.27843
3.29755
3.30745
3.32464
3.33345
3.34857
3.35629
3.36947
3.37618
3.38763
3.39347
3.40348
3.40868
3.41782
3.42321
3.43411
3.44418
3.44846
3.45439
3.45724
3.46182
3.46409
3.46785
3.46973
3.47288
3.47446
3.47711
3.47844
3.48067
3.48179
3.48365
3.48458
3.48611
3.48685
3.48804
3.48858
3.48938
3.48982
3.49066
3.4911
3.49189
3.4923
3.493
3.49336
3.49397
3.49428
3.49481
3.49507
3.49551
3.49571
3.49603
3.49613
3.4962
3.496
3.49518
3.49365
3.48848
3.47956
3.47242
3.45485
3.44055
3.40619
3.39609
3.39363
3.39306
3.39293
2.58216
2.74825
2.8096
2.91134
2.94995
3.01765
3.04447
3.09441
3.11428
3.15144
3.1654
3.18948
3.20076
3.2262
3.23748
3.26148
3.27187
3.29343
3.30267
3.32164
3.32973
3.34625
3.35329
3.36764
3.37378
3.38631
3.39177
3.40317
3.40879
3.42219
3.43453
3.43898
3.44635
3.44934
3.45506
3.45744
3.46215
3.46413
3.46808
3.46973
3.47306
3.47445
3.47725
3.47842
3.48076
3.48173
3.48365
3.48443
3.48592
3.48649
3.48748
3.48794
3.48899
3.48946
3.49045
3.49087
3.49176
3.49213
3.4929
3.49323
3.49389
3.49416
3.49471
3.49492
3.49532
3.49544
3.49553
3.49534
3.49439
3.49282
3.48672
3.47575
3.46829
3.44647
3.43136
3.38709
3.37644
3.3741
3.37356
3.37344
2.4249
2.64129
2.70035
2.82644
2.86312
2.94707
2.97256
3.03467
3.05357
3.09988
3.11314
3.1428
3.15352
3.18528
3.19602
3.22595
3.23585
3.26271
3.27151
3.29513
3.30284
3.32342
3.33012
3.34799
3.35382
3.36942
3.37461
3.38874
3.39406
3.41033
3.42519
3.42938
3.43849
3.44132
3.44844
3.4507
3.45657
3.45845
3.46336
3.46494
3.46908
3.47041
3.47389
3.475
3.47791
3.47884
3.48123
3.48197
3.48384
3.48438
3.48559
3.48604
3.48735
3.48779
3.48902
3.48943
3.49053
3.49089
3.49185
3.49216
3.49298
3.49324
3.49392
3.49413
3.49463
3.49474
3.49487
3.4947
3.49362
3.49218
3.48515
3.47179
3.46474
3.43782
3.42334
3.36665
3.35647
3.35448
3.35405
3.35396
2.25899
2.54061
2.58842
2.74512
2.77439
2.87883
2.89919
2.97665
2.99177
3.04964
3.06023
3.09687
3.10543
3.14519
3.15379
3.19122
3.19914
3.23271
3.23975
3.26926
3.27543
3.30113
3.30649
3.32881
3.33348
3.35295
3.3571
3.37467
3.37888
3.39851
3.41627
3.41959
3.43088
3.43314
3.44201
3.44382
3.45114
3.45264
3.45878
3.46004
3.46521
3.46627
3.47062
3.47151
3.47515
3.47589
3.47888
3.47947
3.48181
3.48224
3.48374
3.48409
3.48574
3.48609
3.48763
3.48796
3.48934
3.48962
3.49082
3.49107
3.49209
3.4923
3.49315
3.49332
3.49395
3.49404
3.49423
3.4941
3.49286
3.49176
3.48384
3.46759
3.46198
3.42867
3.41701
3.34435
3.33616
3.33481
3.33453
3.33447
2.08181
2.44929
2.47214
2.66889
2.68265
2.81395
2.82354
2.92113
2.92825
3.00129
3.00627
3.05207
3.0561
3.10635
3.11041
3.15767
3.1614
3.20377
3.20709
3.24432
3.24723
3.27966
3.28219
3.31034
3.31254
3.33709
3.33904
3.36113
3.36309
3.38677
3.40793
3.40947
3.42362
3.42468
3.43586
3.43671
3.44594
3.44665
3.45439
3.45499
3.46151
3.46201
3.46749
3.46791
3.4725
3.47285
3.47662
3.4769
3.47985
3.48005
3.48194
3.4821
3.48418
3.48435
3.48629
3.48645
3.48818
3.48832
3.48983
3.48995
3.49124
3.49134
3.49242
3.49249
3.4933
3.49334
3.4936
3.49354
3.4921
3.49161
3.48286
3.46295
3.46033
3.41866
3.41311
3.31947
3.31559
3.3151
3.315
3.31498
2.08181
2.44928
2.47213
2.66888
2.68265
2.81395
2.82353
2.92112
2.92825
3.00128
3.00626
3.05206
3.05609
3.10635
3.11041
3.15766
3.1614
3.20376
3.20708
3.24432
3.24723
3.27966
3.28218
3.31034
3.31254
3.33709
3.33904
3.36112
3.36309
3.38677
3.40793
3.40947
3.42362
3.42468
3.43585
3.43671
3.44594
3.44665
3.45439
3.45499
3.46151
3.46201
3.46749
3.46791
3.4725
3.47285
3.47662
3.4769
3.47985
3.48005
3.48193
3.4821
3.48418
3.48434
3.48629
3.48645
3.48818
3.48832
3.48983
3.48995
3.49124
3.49134
3.49242
3.49249
3.4933
3.49334
3.4936
3.49354
3.4921
3.49161
3.48286
3.46296
3.46034
3.41867
3.41312
3.31949
3.31561
3.31512
3.31502
3.315
2.25899
2.54061
2.58842
2.74511
2.77438
2.87883
2.89919
2.97665
2.99176
3.04964
3.06022
3.09687
3.10543
3.14519
3.15379
3.19121
3.19913
3.23271
3.23975
3.26926
3.27542
3.30113
3.30649
3.32881
3.33348
3.35295
3.35709
3.37467
3.37888
3.39851
3.41627
3.41958
3.43087
3.43313
3.442
3.44381
3.45114
3.45264
3.45878
3.46004
3.46521
3.46627
3.47062
3.47151
3.47515
3.47589
3.47888
3.47947
3.4818
3.48223
3.48374
3.48409
3.48574
3.48609
3.48763
3.48796
3.48934
3.48962
3.49082
3.49107
3.49209
3.4923
3.49315
3.49332
3.49395
3.49404
3.49423
3.4941
3.49286
3.49176
3.48384
3.46759
3.46199
3.42868
3.41702
3.34437
3.33618
3.33483
3.33455
3.33449
2.4249
2.64128
2.70035
2.82644
2.86311
2.94707
2.97256
3.03466
3.05357
3.09988
3.11314
3.14279
3.15352
3.18527
3.19602
3.22595
3.23584
3.26271
3.27151
3.29513
3.30283
3.32341
3.33011
3.34799
3.35382
3.36942
3.37461
3.38874
3.39405
3.41032
3.42519
3.42938
3.43849
3.44132
3.44843
3.4507
3.45657
3.45844
3.46336
3.46494
3.46908
3.47041
3.47389
3.475
3.47791
3.47884
3.48123
3.48197
3.48384
3.48437
3.48559
3.48603
3.48735
3.48779
3.48902
3.48943
3.49053
3.49089
3.49185
3.49216
3.49298
3.49324
3.49392
3.49413
3.49463
3.49474
3.49487
3.4947
3.49362
3.49218
3.48515
3.4718
3.46475
3.43783
3.42335
3.36667
3.35648
3.3545
3.35407
3.35398
2.58215
2.74825
2.8096
2.91133
2.94994
3.01764
3.04446
3.09441
3.11427
3.15144
3.1654
3.18947
3.20076
3.22619
3.23747
3.26148
3.27187
3.29343
3.30267
3.32163
3.32973
3.34625
3.35329
3.36764
3.37377
3.3863
3.39176
3.40316
3.40879
3.42219
3.43453
3.43898
3.44635
3.44934
3.45506
3.45744
3.46215
3.46413
3.46808
3.46973
3.47306
3.47445
3.47725
3.47842
3.48075
3.48173
3.48365
3.48442
3.48592
3.48649
3.48748
3.48794
3.48899
3.48946
3.49045
3.49087
3.49176
3.49213
3.4929
3.49323
3.49389
3.49416
3.49471
3.49492
3.49532
3.49544
3.49553
3.49534
3.49439
3.49282
3.48672
3.47575
3.4683
3.44648
3.43137
3.38711
3.37646
3.37411
3.37358
3.37346
2.73276
2.8594
2.91722
2.99876
3.03561
3.08985
3.11544
3.15535
3.17428
3.20392
3.21725
3.23666
3.24744
3.26768
3.27842
3.29755
3.30745
3.32464
3.33344
3.34857
3.35628
3.36946
3.37617
3.38762
3.39347
3.40347
3.40868
3.41782
3.42321
3.4341
3.44418
3.44846
3.45439
3.45724
3.46182
3.46408
3.46785
3.46973
3.47288
3.47446
3.47711
3.47844
3.48067
3.48179
3.48365
3.48458
3.48611
3.48685
3.48804
3.48858
3.48938
3.48982
3.49066
3.4911
3.49189
3.4923
3.493
3.49336
3.49397
3.49428
3.49481
3.49507
3.49551
3.49571
3.49603
3.49613
3.49619
3.496
3.49518
3.49365
3.48848
3.47956
3.47242
3.45486
3.44055
3.4062
3.3961
3.39365
3.39307
3.39294
2.87831
2.97331
3.0239
3.08796
3.12058
3.1632
3.18584
3.21713
3.23386
3.25706
3.26885
3.2842
3.29373
3.30955
3.31903
3.33399
3.34273
3.35618
3.36396
3.3758
3.38262
3.39294
3.39886
3.40783
3.41299
3.42083
3.42544
3.43262
3.43741
3.44605
3.45407
3.45788
3.46255
3.46508
3.46866
3.47067
3.47362
3.47528
3.47775
3.47914
3.48122
3.48239
3.48414
3.48513
3.48659
3.4874
3.4886
3.48926
3.49019
3.49067
3.4913
3.49169
3.49234
3.49273
3.49335
3.49371
3.49426
3.49458
3.49506
3.49533
3.49574
3.49597
3.49631
3.49649
3.49674
3.49683
3.49687
3.4967
3.49601
3.49462
3.49039
3.48331
3.47697
3.46311
3.45054
3.42433
3.41544
3.41311
3.41254
3.41241
3.02005
3.08899
3.13004
3.17842
3.20515
3.23735
3.25589
3.27949
3.29319
3.31065
3.32031
3.33196
3.33977
3.35167
3.35942
3.37068
3.37783
3.38796
3.39432
3.40324
3.40881
3.41658
3.42143
3.42819
3.43241
3.43832
3.44209
3.44752
3.45145
3.45801
3.46412
3.46726
3.4708
3.47287
3.47557
3.47722
3.47944
3.4808
3.48266
3.4838
3.48536
3.48632
3.48764
3.48845
3.48955
3.49021
3.49112
3.49165
3.49235
3.49275
3.49322
3.49354
3.49404
3.49436
3.49482
3.49511
3.49553
3.49579
3.49615
3.49637
3.49668
3.49687
3.49713
3.49727
3.49746
3.49753
3.49756
3.49741
3.49686
3.4957
3.49242
3.48702
3.48181
3.47131
3.46108
3.44176
3.43451
3.4325
3.432
3.43188
3.15903
3.20578
3.23588
3.26975
3.2895
3.31205
3.32575
3.34224
3.35236
3.36455
3.37169
3.37988
3.38565
3.39395
3.39967
3.40753
3.41281
3.41988
3.42457
3.4308
3.43492
3.44034
3.44393
3.44864
3.45176
3.45589
3.45868
3.46248
3.46539
3.47
3.4743
3.47662
3.47911
3.48063
3.48253
3.48374
3.48529
3.4863
3.48759
3.48844
3.48953
3.49024
3.49116
3.49175
3.49252
3.49302
3.49365
3.49404
3.49453
3.49482
3.49516
3.49539
3.49574
3.49597
3.4963
3.49651
3.4968
3.49699
3.49725
3.49741
3.49763
3.49777
3.49795
3.49805
3.49818
3.49824
3.49825
3.49814
3.49774
3.49687
3.49452
3.49072
3.48687
3.4795
3.47197
3.45871
3.45337
3.45183
3.45144
3.45135
3.29614
3.32324
3.34158
3.36164
3.37373
3.3871
3.39548
3.40525
3.41144
3.41866
3.42303
3.42789
3.43143
3.43633
3.43983
3.44448
3.44771
3.45189
3.45477
3.45845
3.46097
3.46418
3.46637
3.46916
3.47107
3.47351
3.47522
3.47748
3.47926
3.48199
3.48455
3.48597
3.48745
3.48839
3.48951
3.49025
3.49117
3.49178
3.49255
3.49307
3.49371
3.49415
3.49469
3.49505
3.49551
3.49581
3.49618
3.49643
3.49672
3.49689
3.49709
3.49724
3.49744
3.49758
3.49778
3.49791
3.49808
3.4982
3.49835
3.49845
3.49858
3.49866
3.49877
3.49883
3.49891
3.49894
3.49895
3.49888
3.49864
3.4981
3.49669
3.49443
3.49207
3.48769
3.4831
3.47535
3.47208
3.47112
3.47087
3.47081
3.43216
3.44104
3.4472
3.45384
3.45792
3.46234
3.46517
3.4684
3.47048
3.47287
3.47434
3.47596
3.47715
3.47877
3.47995
3.48149
3.48257
3.48396
3.48493
3.48615
3.48699
3.48806
3.48879
3.48972
3.49036
3.49117
3.49174
3.49249
3.49309
3.494
3.49484
3.49532
3.49581
3.49613
3.4965
3.49675
3.49705
3.49726
3.49752
3.49769
3.4979
3.49805
3.49823
3.49835
3.4985
3.4986
3.49873
3.49881
3.4989
3.49896
3.49903
3.49908
3.49915
3.49919
3.49926
3.4993
3.49936
3.4994
3.49945
3.49948
3.49952
3.49955
3.49959
3.49961
3.49964
3.49965
3.49965
3.49963
3.49954
3.49936
3.49889
3.49814
3.49735
3.4959
3.49435
3.4918
3.49071
3.49038
3.49029
3.49027
3.43219
3.4405
3.44582
3.45084
3.45356
3.45605
3.45744
3.45878
3.45953
3.46027
3.46078
3.46144
3.46192
3.46253
3.46296
3.46351
3.4639
3.4644
3.46474
3.46518
3.46549
3.46588
3.46616
3.4665
3.46674
3.46705
3.46726
3.46755
3.46777
3.46811
3.46842
3.46859
3.46876
3.46887
3.469
3.46908
3.46918
3.46925
3.46933
3.46939
3.46945
3.4695
3.46955
3.46959
3.46963
3.46966
3.4697
3.46972
3.46975
3.46976
3.46978
3.46979
3.46981
3.46982
3.46983
3.46983
3.46984
3.46984
3.46984
3.46983
3.46982
3.4698
3.46977
3.46974
3.46967
3.4696
3.46947
3.46931
3.46899
3.46852
3.46747
3.466
3.46468
3.46251
3.46041
3.45713
3.45573
3.45531
3.4552
3.45517
3.29623
3.3216
3.33747
3.3526
3.3607
3.3682
3.37233
3.37637
3.3786
3.38081
3.38233
3.38434
3.38575
3.3876
3.38888
3.39055
3.3917
3.39319
3.39423
3.39556
3.39648
3.39766
3.39847
3.39951
3.40023
3.40115
3.40179
3.40264
3.40331
3.40432
3.40525
3.40577
3.40629
3.40662
3.407
3.40725
3.40755
3.40775
3.408
3.40816
3.40836
3.40849
3.40866
3.40877
3.4089
3.40899
3.40909
3.40916
3.40924
3.40928
3.40934
3.40937
3.40942
3.40945
3.40948
3.4095
3.40952
3.40953
3.40952
3.4095
3.40946
3.40941
3.40932
3.40921
3.40902
3.40881
3.40842
3.40795
3.40698
3.40559
3.40241
3.39801
3.39408
3.38753
3.38129
3.37132
3.36714
3.36591
3.36559
3.36551
3.15926
3.20309
3.22915
3.25465
3.26785
3.28049
3.28723
3.29403
3.29767
3.30138
3.30386
3.30726
3.30957
3.31269
3.31479
3.3176
3.31949
3.32201
3.3237
3.32595
3.32745
3.32945
3.33078
3.33254
3.33371
3.33526
3.33631
3.33774
3.33883
3.34053
3.34211
3.34295
3.34383
3.34436
3.345
3.34541
3.34592
3.34625
3.34666
3.34693
3.34727
3.34749
3.34776
3.34794
3.34817
3.34831
3.34849
3.3486
3.34873
3.34881
3.34889
3.34895
3.34903
3.34908
3.34914
3.34917
3.3492
3.34921
3.3492
3.34917
3.3491
3.34902
3.34886
3.34869
3.34837
3.34803
3.34736
3.3466
3.34499
3.34272
3.33741
3.32999
3.32359
3.31253
3.30231
3.28527
3.27844
3.27647
3.27597
3.27585
3.02054
3.08529
3.12085
3.15718
3.17503
3.19301
3.20212
3.21182
3.21674
3.222
3.22535
3.23023
3.23336
3.23783
3.24067
3.2447
3.24725
3.25086
3.25315
3.25637
3.2584
3.26127
3.26306
3.26559
3.26717
3.2694
3.27081
3.27286
3.27432
3.27676
3.27899
3.28012
3.28138
3.28209
3.28302
3.28357
3.2843
3.28474
3.28534
3.2857
3.28618
3.28648
3.28688
3.28712
3.28744
3.28763
3.28789
3.28804
3.28823
3.28833
3.28845
3.28853
3.28864
3.28871
3.2888
3.28884
3.28888
3.2889
3.28888
3.28885
3.28875
3.28864
3.28841
3.28818
3.28772
3.28726
3.28631
3.28529
3.28303
3.27998
3.27249
3.26193
3.25328
3.2375
3.22361
3.19882
3.18954
3.18698
3.18633
3.18619
2.87923
2.96866
3.01252
3.06046
3.08221
3.10589
3.11698
3.1298
3.13579
3.1427
3.14678
3.15326
3.15709
3.16303
3.1665
3.17185
3.17497
3.17976
3.18256
3.18684
3.18932
3.19312
3.19532
3.19867
3.20061
3.20356
3.20529
3.208
3.20978
3.21298
3.21592
3.2173
3.21895
3.21982
3.22105
3.22172
3.22269
3.22323
3.22402
3.22446
3.22511
3.22547
3.22599
3.22629
3.22671
3.22695
3.22729
3.22747
3.22772
3.22785
3.22801
3.22811
3.22826
3.22834
3.22845
3.22851
3.22857
3.22858
3.22856
3.22852
3.22839
3.22826
3.22795
3.22767
3.22706
3.22651
3.22527
3.22403
3.2211
3.21741
3.20769
3.1938
3.18326
3.1624
3.14535
3.11175
3.10038
3.0974
3.09668
3.09652
2.73434
2.85385
2.90403
2.96478
2.98931
3.01927
3.03178
3.04805
3.05481
3.06351
3.06812
3.0764
3.08073
3.08832
3.09225
3.09909
3.10262
3.10875
3.11191
3.11738
3.12019
3.12505
3.12753
3.13181
3.134
3.13777
3.13973
3.14317
3.14518
3.14922
3.15291
3.15446
3.15655
3.15754
3.1591
3.15986
3.1611
3.16171
3.16272
3.16322
3.16404
3.16445
3.16512
3.16545
3.166
3.16626
3.1667
3.1669
3.16723
3.16737
3.16758
3.16768
3.16787
3.16797
3.16812
3.16818
3.16825
3.16827
3.16825
3.1682
3.16803
3.16788
3.1675
3.16718
3.16641
3.16578
3.16422
3.16283
3.15919
3.15509
3.14306
3.12553
3.11365
3.08714
3.06774
3.02379
3.01087
3.00774
3.007
3.00684
2.58466
2.74181
2.79511
2.87055
2.89619
2.93334
2.94642
2.96668
2.97375
2.98449
2.9893
2.9997
3.00425
3.01376
3.01789
3.02646
3.03017
3.03785
3.04117
3.04803
3.05098
3.05706
3.05967
3.06504
3.06734
3.07206
3.07411
3.07841
3.08051
3.08548
3.08999
3.09159
3.09419
3.09523
3.09718
3.09798
3.09953
3.10017
3.10144
3.10196
3.10299
3.10342
3.10426
3.10461
3.10529
3.10557
3.10612
3.10633
3.10674
3.10689
3.10714
3.10725
3.1075
3.10759
3.10778
3.10784
3.10794
3.10796
3.10793
3.10788
3.10767
3.10752
3.10704
3.10671
3.10575
3.10509
3.10317
3.10173
3.09731
3.09308
3.07865
3.05704
3.04462
3.0116
2.99112
2.93458
2.92098
2.91798
2.9173
2.91715
2.4287
2.63393
2.68531
2.77832
2.8026
2.84838
2.86078
2.88584
2.89254
2.9057
2.91027
2.92323
2.92756
2.93942
2.94335
2.95403
2.95755
2.96713
2.97028
2.97883
2.98164
2.98922
2.9917
2.99838
3.00057
3.00645
3.0084
3.01373
3.01571
3.02175
3.02718
3.02869
3.0319
3.03289
3.03531
3.03607
3.038
3.03861
3.04018
3.04068
3.04196
3.04237
3.04342
3.04375
3.0446
3.04487
3.04555
3.04575
3.04626
3.0464
3.04671
3.04682
3.04712
3.04722
3.04745
3.04751
3.04763
3.04765
3.04762
3.04757
3.04732
3.04717
3.04657
3.04626
3.04508
3.04446
3.0421
3.04074
3.03542
3.03149
3.01453
2.98817
2.97642
2.93555
2.91594
2.84366
2.83067
2.82813
2.82758
2.82746
2.26453
2.5322
2.57384
2.68883
2.70816
2.76476
2.77463
2.80574
2.81107
2.82725
2.83089
2.84711
2.85057
2.8654
2.86854
2.88188
2.8847
2.89666
2.89918
2.90986
2.91211
2.92158
2.92357
2.93191
2.93366
2.941
2.94256
2.94918
2.95075
2.95805
2.96453
2.96572
2.9697
2.97048
2.9735
2.97411
2.97652
2.97701
2.97897
2.97937
2.98097
2.9813
2.98261
2.98287
2.98394
2.98415
2.985
2.98516
2.9858
2.98591
2.98629
2.98638
2.98676
2.98683
2.98712
2.98717
2.98733
2.98734
2.9873
2.98726
2.98695
2.98683
2.9861
2.98585
2.98438
2.98389
2.98099
2.97992
2.97347
2.97041
2.95078
2.91873
2.90938
2.85866
2.84287
2.75037
2.73993
2.7382
2.73784
2.73777
2.08965
2.43951
2.45944
2.60316
2.61223
2.683
2.68763
2.72666
2.72916
2.74931
2.75102
2.7715
2.77313
2.79184
2.79332
2.81015
2.81148
2.82657
2.82776
2.84123
2.84229
2.85424
2.85517
2.8657
2.86653
2.87578
2.87651
2.88483
2.88557
2.89437
2.90209
2.90264
2.90762
2.90799
2.91179
2.91208
2.91512
2.91535
2.91782
2.91801
2.92003
2.92019
2.92184
2.92196
2.92331
2.92341
2.92447
2.92455
2.92535
2.92541
2.92589
2.92593
2.92641
2.92644
2.92681
2.92683
2.92703
2.92703
2.92699
2.92697
2.92658
2.92652
2.9256
2.92548
2.92365
2.92342
2.9198
2.9193
2.91138
2.91
2.88754
2.84837
2.844
2.78037
2.77287
2.65379
2.64885
2.64822
2.64809
2.64807
)
;

boundaryField
{
    F1_1
    {
        type            fixedValue;
        value           nonuniform List<scalar> 
80
(
1.99545
2.40026
2.40026
2.56411
2.56411
2.64577
2.64577
2.69296
2.69296
2.72281
2.72281
2.73996
2.73996
2.75877
2.75877
2.77672
2.77672
2.79324
2.79324
2.80819
2.80819
2.82156
2.82156
2.83338
2.83338
2.8438
2.8438
2.85318
2.85318
2.86283
2.87122
2.87122
2.87684
2.87684
2.88113
2.88113
2.88458
2.88458
2.88737
2.88737
2.88966
2.88966
2.89153
2.89153
2.89305
2.89305
2.89426
2.89426
2.89517
2.89517
2.89571
2.89571
2.89626
2.89626
2.89667
2.89667
2.89689
2.89689
2.89684
2.89684
2.8964
2.8964
2.89534
2.89534
2.89326
2.89326
2.88915
2.88915
2.88021
2.88021
2.85625
2.8125
2.8125
2.7401
2.7401
2.60322
2.60322
2.60322
2.60322
2.60322
)
;
    }
    F1_2
    {
        type            fixedValue;
        value           nonuniform List<scalar> 
80
(
1.98584
2.41049
2.41049
2.63441
2.63441
2.78392
2.78392
2.89515
2.89515
2.97845
2.97845
3.03048
3.03048
3.08783
3.08783
3.14174
3.14174
3.19006
3.19006
3.23252
3.23252
3.2695
3.2695
3.30161
3.30161
3.3296
3.3296
3.35475
3.35475
3.38094
3.40414
3.40414
3.42024
3.42024
3.43298
3.43298
3.44351
3.44351
3.45234
3.45234
3.45977
3.45977
3.46602
3.46602
3.47126
3.47126
3.47556
3.47556
3.47892
3.47892
3.48106
3.48106
3.48343
3.48343
3.48566
3.48566
3.48764
3.48764
3.48936
3.48936
3.49084
3.49084
3.49206
3.49206
3.49298
3.49298
3.49329
3.49329
3.4917
3.4917
3.4826
3.46029
3.46029
3.41293
3.41293
3.30523
3.30523
3.30523
3.30523
3.30523
)
;
    }
    F1_3
    {
        type            fixedValue;
        value           nonuniform List<scalar> 
80
(
1.98584
2.41048
2.41048
2.6344
2.6344
2.78392
2.78392
2.89515
2.89515
2.97845
2.97845
3.03048
3.03048
3.08783
3.08783
3.14174
3.14174
3.19006
3.19006
3.23252
3.23252
3.2695
3.2695
3.30161
3.30161
3.32959
3.32959
3.35474
3.35474
3.38093
3.40414
3.40414
3.42024
3.42024
3.43298
3.43298
3.44351
3.44351
3.45233
3.45233
3.45977
3.45977
3.46602
3.46602
3.47125
3.47125
3.47556
3.47556
3.47892
3.47892
3.48106
3.48106
3.48343
3.48343
3.48566
3.48566
3.48764
3.48764
3.48936
3.48936
3.49084
3.49084
3.49206
3.49206
3.49298
3.49298
3.49329
3.49329
3.4917
3.4917
3.4826
3.4603
3.4603
3.41294
3.41294
3.30526
3.30526
3.30526
3.30526
3.30526
)
;
    }
    F1_4
    {
        type            fixedValue;
        value           nonuniform List<scalar> 
80
(
1.99521
2.39975
2.39975
2.56302
2.56302
2.64344
2.64344
2.68785
2.68785
2.7107
2.7107
2.73407
2.73407
2.7554
2.7554
2.77459
2.77459
2.7918
2.7918
2.80716
2.80716
2.82078
2.82078
2.83279
2.83279
2.84334
2.84334
2.85281
2.85281
2.86256
2.87101
2.87101
2.87668
2.87668
2.88101
2.88101
2.88448
2.88448
2.88729
2.88729
2.8896
2.8896
2.89148
2.89148
2.89301
2.89301
2.89423
2.89423
2.89514
2.89514
2.89569
2.89569
2.89624
2.89624
2.89666
2.89666
2.89688
2.89688
2.89683
2.89683
2.89639
2.89639
2.89534
2.89534
2.89325
2.89325
2.88915
2.88915
2.88021
2.88021
2.85624
2.8125
2.8125
2.7401
2.7401
2.60322
2.60322
2.60322
2.60322
2.60322
)
;
    }
    F2_1
    {
        type            fixedValue;
        value           uniform 3.5;
    }
    F2_2
    {
        type            fixedValue;
        value           uniform 3.5;
    }
    F2_3
    {
        type            fixedValue;
        value           uniform 3.5;
    }
    F2_4
    {
        type            fixedValue;
        value           uniform 3.5;
    }
    defaultFaces
    {
        type            empty;
    }
}


// ************************************************************************* //
