/*--------------------------------*- C++ -*----------------------------------*\
| =========                 |                                                 |
| \\      /  F ield         | OpenFOAM: The Open Source CFD Toolbox           |
|  \\    /   O peration     | Version:  5.x                                   |
|   \\  /    A nd           | Web:      www.OpenFOAM.org                      |
|    \\/     M anipulation  |                                                 |
\*---------------------------------------------------------------------------*/
FoamFile
{
    version     2.0;
    format      ascii;
    class       volScalarField;
    location    "6.9";
    object      gradTy;
}
// * * * * * * * * * * * * * * * * * * * * * * * * * * * * * * * * * * * * * //

dimensions      [0 -1 0 1 0 0 0];

internalField   nonuniform List<scalar> 
6300
(
32284.2
32252.6
32220.8
32188.9
32156.7
32124.3
32091.4
32058.1
32024.4
31990.1
31955.2
31919.8
31883.8
31847.1
31809.9
0.0534292
0.159785
0.264604
0.366752
0.464937
0.557665
0.643225
0.719706
0.785058
0.837223
0.874318
0.894882
0.898169
0.884416
0.85504
0.0895977
0.267997
0.443949
0.615627
0.780921
0.937363
1.08208
1.21181
1.32301
1.41203
1.47546
1.51055
1.51576
1.49125
1.43939
0.126564
0.378662
0.627578
0.870896
1.10577
1.32881
1.53594
1.72248
1.88318
2.01247
2.105
2.15617
2.16311
2.12552
2.04655
0.164562
0.492509
0.816807
1.13461
1.44248
1.73615
2.01042
2.25903
2.47476
2.64973
2.77592
2.84609
2.85506
2.80122
2.68813
0.203735
0.610009
1.01253
1.40827
1.79339
2.16293
2.51058
2.82847
3.10715
3.33581
3.50291
3.59728
3.6099
3.53626
3.37921
0.244106
0.731261
1.21505
1.69257
2.15988
2.61161
3.04053
3.43717
3.78961
4.08353
4.30272
4.43033
4.4511
4.3548
4.14097
0.285532
0.855882
1.42385
1.98708
2.54196
3.08313
3.60279
4.09012
4.53067
4.90606
5.19419
5.3703
5.40947
5.29099
5.00552
0.327676
0.982884
1.63741
2.28994
2.93779
3.57619
4.19744
4.78991
5.33695
5.81594
6.19777
6.4473
6.52552
6.39418
6.0245
0.369965
1.11057
1.85297
2.5975
3.34309
4.08644
4.82093
5.53519
6.21135
6.82305
7.33369
7.69562
7.85105
7.7355
7.28409
0.411578
1.23648
2.06642
2.90401
3.75065
4.60558
5.4647
6.31865
7.15028
7.93125
8.61831
9.15025
9.44715
9.41197
8.92762
0.451446
1.35736
2.27221
3.20151
4.14994
5.12059
6.11368
7.1245
8.13991
9.13333
10.0579
10.8395
11.3743
11.5356
11.1729
0.488296
1.4693
2.46355
3.4799
4.52704
5.61318
6.745
7.92578
9.15156
10.4042
11.64
12.7745
13.6725
14.1784
14.2343
0.520735
1.568
2.63281
3.72749
4.86518
6.06011
7.32739
8.68211
10.1363
11.6917
13.323
14.9442
16.3583
17.259
17.7339
0.547384
1.64914
2.77222
3.93207
5.14611
6.4347
7.82238
9.33896
11.0199
12.9033
15.0154
17.319
19.5496
20.7386
18.145
31775.3
31743.4
31711.2
31678.6
31645.7
31612.5
31579.1
31545.4
31511.5
31477.3
31443
31408.6
31373.9
31339.2
31304.4
31269.5
31234.6
31199.7
31164.7
31129.8
31094.9
31060
31025.2
30990.4
30955.6
30920.9
30886.2
30851.6
30817
30782.5
30748
30713.6
30679.3
30645.1
30611
30577
30543.1
30509.3
30475.6
30442
30408.4
30374.9
30341.5
30308.2
30275
30241.9
30208.8
30175.9
30143.1
30110.3
30077.7
30045.2
30012.8
29980.5
29948.3
29916.2
29884.1
29852.1
29820.3
29788.5
29756.7
29725.1
29693.6
29662.2
29630.8
29599.6
29568.5
29537.5
29506.5
29475.6
29444.8
29414.1
29383.4
29352.8
29322.2
29291.8
29261.3
29231
29200.7
29170.4
29140.2
29110
29079.8
29049.7
29019.4
28989.2
28958.9
28928.4
28897.9
28867.3
0.816184
0.774084
0.727485
0.678603
0.62929
0.58079
0.533605
0.487517
0.441763
0.395324
0.347266
0.297069
0.244857
0.191503
0.13856
0.088043
0.0421018
0.00263957
-0.0290307
-0.0524333
-0.0680316
-0.0771708
-0.0818741
-0.0845301
-0.087521
-0.0928535
-0.10185
-0.114951
-0.131665
-0.150677
-0.170101
-0.18783
-0.201931
-0.210993
-0.214383
-0.21235
-0.205983
-0.197021
-0.18756
-0.1797
-0.175197
-0.175168
-0.179906
-0.188829
-0.200587
-0.213298
-0.224883
-0.233439
-0.237574
-0.236638
-0.230834
-0.221167
-0.209265
-0.197099
-0.186646
-0.179556
-0.176873
-0.178855
-0.184927
-0.193784
-0.20361
-0.212406
-0.218335
-0.220045
-0.216891
-0.209032
-0.197386
-0.183452
-0.169042
-0.155951
-0.145634
-0.138932
-0.135891
-0.135715
-0.136857
-0.137234
-0.134547
-0.126641
-0.11185
-0.0892691
-0.0589334
-0.0218681
0.01997
0.0638567
0.10655
0.144608
0.174746
0.194212
0.201118
0.194694
1.37101
1.2972
1.21601
1.13158
1.0474
0.965744
0.887426
0.811803
0.737143
0.661203
0.581915
0.498036
0.409618
0.318218
0.226768
0.139156
0.0595584
-0.00830188
-0.0618461
-0.100119
-0.123985
-0.136007
-0.140056
-0.140702
-0.142504
-0.149294
-0.16359
-0.186207
-0.216155
-0.250839
-0.286556
-0.319177
-0.34492
-0.361033
-0.366287
-0.361172
-0.347799
-0.329536
-0.310432
-0.294545
-0.285265
-0.284753
-0.29357
-0.310587
-0.333171
-0.357651
-0.379979
-0.396452
-0.404368
-0.402487
-0.391215
-0.372514
-0.349545
-0.326124
-0.306078
-0.292601
-0.287715
-0.291924
-0.304116
-0.321751
-0.341299
-0.358867
-0.370893
-0.374762
-0.369247
-0.354687
-0.332888
-0.306785
-0.279912
-0.255779
-0.237245
-0.225995
-0.222186
-0.22435
-0.229554
-0.233827
-0.232765
-0.222229
-0.199002
-0.161302
-0.109099
-0.0441974
0.0298801
0.108195
0.18484
0.253503
0.308122
0.343573
0.356317
0.344897
1.94268
1.83106
1.70926
1.58428
1.46194
1.34598
1.23744
1.13477
1.03443
0.931963
0.823236
0.705596
0.578735
0.445063
0.309514
0.178788
0.0601774
-0.0397939
-0.116586
-0.168485
-0.196923
-0.206255
-0.203068
-0.195141
-0.190229
-0.194853
-0.213274
-0.246834
-0.293746
-0.34944
-0.407392
-0.460352
-0.501695
-0.526633
-0.533045
-0.521804
-0.496578
-0.463182
-0.428593
-0.399795
-0.382629
-0.380821
-0.395348
-0.42425
-0.462943
-0.505024
-0.543426
-0.571706
-0.585194
-0.58178
-0.562216
-0.52993
-0.490399
-0.450215
-0.415978
-0.393201
-0.385389
-0.393425
-0.415397
-0.446893
-0.481768
-0.513242
-0.535128
-0.542924
-0.534564
-0.510701
-0.474526
-0.431166
-0.386777
-0.347484
-0.318312
-0.302286
-0.299827
-0.308552
-0.323542
-0.338052
-0.344576
-0.336045
-0.306947
-0.254176
-0.177507
-0.0796989
0.0337283
0.154977
0.274658
0.382656
0.469133
0.525663
0.546342
0.528697
2.53919
2.37967
2.2072
2.03323
1.86738
1.71557
1.57905
1.45441
1.3348
1.21176
1.0774
0.926443
0.757666
0.574616
0.385315
0.200978
0.0339563
-0.104663
-0.207171
-0.270636
-0.297375
-0.294532
-0.272905
-0.245237
-0.224226
-0.220543
-0.241162
-0.288232
-0.358696
-0.444788
-0.535418
-0.618257
-0.682096
-0.718911
-0.725225
-0.702576
-0.657124
-0.598548
-0.538416
-0.488297
-0.457878
-0.453368
-0.476429
-0.523814
-0.587838
-0.657696
-0.72145
-0.768262
-0.790362
-0.784329
-0.751538
-0.69778
-0.632197
-0.565743
-0.509374
-0.472255
-0.460241
-0.47486
-0.512962
-0.567171
-0.627136
-0.681425
-0.719653
-0.734353
-0.722203
-0.684443
-0.626511
-0.557027
-0.486304
-0.424612
-0.380445
-0.35904
-0.361361
-0.383732
-0.418215
-0.453775
-0.478065
-0.479473
-0.448978
-0.38146
-0.276352
-0.137688
0.0263172
0.204017
0.381306
0.5428
0.673272
0.75938
0.791558
0.765668
3.17056
2.94703
2.70741
2.47061
2.25268
2.06326
1.90361
1.76688
1.64016
1.50788
1.3555
1.17296
0.957154
0.713174
0.453966
0.198235
-0.0331674
-0.221536
-0.353983
-0.425676
-0.440429
-0.409862
-0.351446
-0.285755
-0.233276
-0.211245
-0.230967
-0.295948
-0.401149
-0.53361
-0.674669
-0.80353
-0.901419
-0.955119
-0.959121
-0.91619
-0.836579
-0.736161
-0.633828
-0.548441
-0.495827
-0.486221
-0.522491
-0.599427
-0.704338
-0.819167
-0.923878
-1.00041
-1.03605
-1.02542
-0.971063
-0.882663
-0.775256
-0.666757
-0.575059
-0.515162
-0.496749
-0.522485
-0.58734
-0.679164
-0.780682
-0.87274
-0.938062
-0.964449
-0.946724
-0.887236
-0.795135
-0.684675
-0.572827
-0.476507
-0.409805
-0.381627
-0.394024
-0.441471
-0.511338
-0.585728
-0.644501
-0.668841
-0.644321
-0.562871
-0.423515
-0.232168
-0.000811752
0.253651
0.510699
0.747617
0.941295
1.07076
1.12039
1.08309
3.85082
3.53769
3.20369
2.88095
2.59709
2.36819
2.19527
2.065
1.95361
1.83297
1.67705
1.46739
1.19722
0.873665
0.517611
0.160458
-0.162263
-0.418941
-0.588283
-0.662715
-0.64875
-0.565302
-0.440471
-0.307254
-0.198488
-0.14183
-0.155605
-0.245758
-0.404354
-0.610058
-0.831496
-1.03341
-1.18438
-1.2629
-1.26061
-1.18264
-1.046
-0.876545
-0.704845
-0.561402
-0.471855
-0.453022
-0.510006
-0.634763
-0.806568
-0.995216
-1.16689
-1.29147
-1.34836
-1.32948
-1.23962
-1.09492
-0.919898
-0.743587
-0.594956
-0.498342
-0.469689
-0.513784
-0.622893
-0.777202
-0.947858
-1.10256
-1.21254
-1.25807
-1.23139
-1.137
-0.9902
-0.814322
-0.636993
-0.485754
-0.383692
-0.345789
-0.376215
-0.466924
-0.597947
-0.740166
-0.860521
-0.928564
-0.921642
-0.827664
-0.645542
-0.384258
-0.061212
0.299566
0.66908
1.0147
1.30179
1.4971
1.57441
1.52086
4.60227
4.15852
3.68389
3.23542
2.86249
2.59264
2.42567
2.33605
2.28046
2.20894
2.07603
1.84898
1.5142
1.08095
0.58284
0.0730974
-0.386462
-0.742112
-0.959261
-1.02705
-0.957131
-0.780343
-0.54158
-0.293552
-0.0886716
0.0289988
0.0297325
-0.0970192
-0.339732
-0.663862
-1.01644
-1.33667
-1.57169
-1.68707
-1.67109
-1.53356
-1.3027
-1.02017
-0.735184
-0.496765
-0.346064
-0.310658
-0.399938
-0.60236
-0.884555
-1.19572
-1.47771
-1.68003
-1.76979
-1.73574
-1.58717
-1.35086
-1.0664
-0.78057
-0.539958
-0.383668
-0.337883
-0.411472
-0.593366
-0.851706
-1.13801
-1.39679
-1.57983
-1.65569
-1.61356
-1.46222
-1.22715
-0.946065
-0.663591
-0.42419
-0.265191
-0.211558
-0.2716
-0.434325
-0.668434
-0.926088
-1.15187
-1.29623
-1.32432
-1.21938
-0.981557
-0.625282
-0.175943
0.332904
0.861867
1.36609
1.79443
2.09335
2.21688
2.13999
5.46484
4.82386
4.12642
3.48117
2.97948
2.66905
2.5448
2.55821
2.63034
2.67341
2.61061
2.38576
1.97297
1.38167
0.66482
-0.0865276
-0.760293
-1.26473
-1.54532
-1.58972
-1.4194
-1.08464
-0.656039
-0.217727
0.146716
0.368206
0.398638
0.218692
-0.15788
-0.676711
-1.24799
-1.76262
-2.1313
-2.3004
-2.2566
-2.01891
-1.63382
-1.16734
-0.698481
-0.305827
-0.054261
0.0112398
-0.126962
-0.455096
-0.920833
-1.43826
-1.90327
-2.23071
-2.3695
-2.30694
-2.06108
-1.67615
-1.21489
-0.752448
-0.363548
-0.109879
-0.0341897
-0.15321
-0.453767
-0.885948
-1.36782
-1.80008
-2.10148
-2.2232
-2.15301
-1.90803
-1.53034
-1.07982
-0.62817
-0.246849
0.00503279
0.0863621
-0.0191232
-0.298933
-0.705015
-1.15791
-1.56044
-1.83135
-1.91855
-1.80246
-1.48813
-1.00031
-0.37636
0.337277
1.09028
1.82674
2.47346
2.94215
3.14795
3.03813
6.51747
5.57034
4.49372
3.52003
2.82087
2.47731
2.46578
2.6959
3.02215
3.29041
3.37861
3.19322
2.68881
1.86319
0.796479
-0.357871
-1.37796
-2.10971
-2.47149
-2.46157
-2.1185
-1.52408
-0.784494
-0.0355469
0.587945
0.982522
1.07047
0.817533
0.228808
-0.614048
-1.56113
-2.39877
-2.97832
-3.22031
-3.12136
-2.71653
-2.08215
-1.31797
-0.552058
0.0882606
0.505458
0.626452
0.419502
-0.109703
-0.882695
-1.7563
-2.52693
-3.05306
-3.25917
-3.1421
-2.73529
-2.11134
-1.36511
-0.61844
0.00757862
0.420186
0.54987
0.366449
-0.124643
-0.848644
-1.66908
-2.39183
-2.88189
-3.06706
-2.94417
-2.54492
-1.93844
-1.21519
-0.491484
0.116878
0.520848
0.653291
0.484378
0.0182888
-0.674188
-1.46224
-2.15855
-2.631
-2.8055
-2.67098
-2.24454
-1.57138
-0.705918
0.284964
1.34253
2.41661
3.40885
4.16951
4.53354
4.38087
7.92921
6.50275
4.71289
3.16359
2.14965
1.80709
2.03868
2.69519
3.49752
4.16676
4.54063
4.46011
3.86723
2.6919
1.05434
-0.822553
-2.41084
-3.48746
-3.93295
-3.81316
-3.17957
-2.17255
-0.926455
0.32727
1.35879
2.03836
2.23318
1.89988
0.981427
-0.401322
-2.03188
-3.40659
-4.31144
-4.63121
-4.42659
-3.74472
-2.71744
-1.47109
-0.224811
0.803619
1.49169
1.71388
1.42999
0.586723
-0.699697
-2.22266
-3.50268
-4.33627
-4.61422
-4.39453
-3.72219
-2.72263
-1.51599
-0.310714
0.685995
1.35764
1.58478
1.32913
0.539851
-0.672491
-2.11102
-3.31868
-4.10133
-4.35454
-4.13331
-3.48023
-2.51471
-1.35124
-0.188707
0.774921
1.42765
1.65417
1.4158
0.661505
-0.505732
-1.89869
-3.07903
-3.85968
-4.13743
-3.95988
-3.3562
-2.41935
-1.21608
0.136627
1.57101
3.12433
4.6777
5.96804
6.66314
6.47145
10.0835
7.95558
4.58608
2.03864
0.511646
0.309397
0.999301
2.48438
4.16452
5.46848
6.357
6.46483
5.88438
4.18622
1.65685
-1.70284
-4.18055
-5.77407
-6.20841
-5.90466
-4.77841
-3.16533
-1.07942
1.01003
2.63644
3.7922
4.15635
3.82483
2.4026
0.168218
-2.87107
-5.09106
-6.48709
-6.79728
-6.41908
-5.27035
-3.6682
-1.62415
0.416106
2.00907
3.14875
3.53003
3.24594
1.92126
-0.176111
-3.03887
-5.12132
-6.41963
-6.6859
-6.29879
-5.18034
-3.63215
-1.66492
0.297313
1.83247
2.93515
3.31488
3.06022
1.81353
-0.170652
-2.88543
-4.85758
-6.08317
-6.32523
-5.94431
-4.86548
-3.37603
-1.48596
0.400481
1.88064
2.94818
3.32446
3.09016
1.89934
-0.0122497
-2.64129
-4.57508
-5.81255
-6.12497
-5.86241
-4.94761
-3.65098
-1.94141
-0.129324
1.6282
3.83196
6.3253
8.62373
10.0697
9.92891
13.8572
11.1762
3.26721
-0.547101
-3.02929
-2.47193
-1.18501
1.99269
5.3732
7.36848
9.29758
9.46071
9.51107
6.87749
3.45503
-3.85318
-7.22349
-9.72995
-9.54673
-9.18059
-7.07834
-4.83899
-1.23754
2.35955
4.59179
6.68595
7.08126
7.32036
4.99326
1.89678
-4.89007
-7.96207
-10.2264
-9.95469
-9.52115
-7.44897
-5.25531
-1.7718
1.70109
3.8672
5.89786
6.30429
6.56031
4.36843
1.4496
-4.97878
-7.86914
-9.98917
-9.69849
-9.25623
-7.25731
-5.14516
-1.80667
1.52028
3.60169
5.55366
5.95846
6.2198
4.14914
1.38322
-4.72928
-7.47152
-9.48133
-9.19304
-8.76034
-6.84202
-4.81426
-1.61549
1.57469
3.58052
5.46411
5.87395
6.1419
4.17508
1.51434
-4.38504
-7.07382
-9.09747
-8.9405
-8.70413
-7.08886
-5.47724
-2.81438
-0.316706
1.04282
4.12257
8.25356
12.5069
15.7612
16.2309
20.9275
21.8093
-4.05262
-5.06917
-10.9463
-6.30321
-6.09186
1.20905
8.57667
9.3638
14.7812
12.619
17.0027
10.7048
10.8487
-11.6741
-11.5104
-17.559
-13.1485
-14.9566
-9.57575
-8.4741
-1.38945
5.67445
6.74593
12.026
10.2311
14.5112
8.69178
8.93944
-12.2585
-11.9962
-17.6176
-13.3452
-14.9829
-9.80256
-8.69986
-1.9042
4.8678
5.92036
10.9858
9.29512
13.3996
7.86238
8.129
-12.0135
-11.7263
-17.0302
-12.9294
-14.4553
-9.49739
-8.42412
-1.93184
4.5368
5.55724
10.4001
8.8086
12.7374
7.48591
7.75614
-11.4263
-11.1402
-16.1888
-12.2688
-13.7157
-8.97617
-7.93877
-1.73266
4.45436
5.45637
10.1022
8.62775
12.4117
7.45003
7.70458
-10.7521
-10.5303
-15.5225
-11.8703
-13.5315
-9.22484
-8.81727
-3.44949
1.13483
-2.01969
2.89931
10.0055
17.8288
25.4623
29.7311
30.7608
70.9446
-47.1617
-2.60333
-34.0162
-3.75345
-21.2076
0.329497
21.2562
4.69168
31.1798
6.3514
39.8759
5.25623
50.8826
-52.1632
-6.85139
-40.4488
-7.79527
-31.0841
-5.91079
-20.7244
-1.51106
17.6188
2.84011
27.5545
4.63316
36.2459
3.65409
46.8642
-50.5293
-7.5572
-39.2555
-8.22467
-30.2623
-6.28385
-20.3418
-2.00206
16.271
2.19543
25.803
3.94143
34.1233
2.99928
44.198
-48.4664
-7.53189
-37.6133
-8.05747
-28.9906
-6.1431
-19.506
-2.02252
15.3992
2.00899
24.5122
3.71002
32.475
2.87181
42.1414
-46.1578
-7.12653
-35.8104
-7.61606
-27.579
-5.77893
-18.5059
-1.82198
14.8008
2.08541
23.5539
3.80972
31.2755
3.2139
40.8393
-44.0158
-6.4786
-34.395
-7.14883
-26.9521
-5.74593
-19.2998
-2.9562
13.7305
-16.7079
-1.47336
10.7251
23.4239
40.0087
66.6956
28833.6
28796.6
28759.6
28722.5
28685.4
28648.3
28611.2
28574.2
28537.4
28500.6
28464
28427.4
28390.9
28354.5
28318.2
0.173469
0.134354
0.0840133
0.028234
-0.0270974
-0.0767949
-0.116889
-0.144832
-0.159467
-0.160821
-0.149855
-0.128192
-0.097895
-0.0612925
-0.0208592
0.306692
0.23628
0.145989
0.0465178
-0.0514378
-0.138663
-0.208308
-0.25617
-0.280529
-0.281724
-0.261644
-0.223248
-0.170164
-0.106407
-0.0361895
0.468671
0.358106
0.217167
0.0633048
-0.0864911
-0.218097
-0.321497
-0.391
-0.424745
-0.423892
-0.391745
-0.332986
-0.253102
-0.15798
-0.0536811
0.675736
0.51031
0.301269
0.0760282
-0.139733
-0.325732
-0.468582
-0.561584
-0.603558
-0.597354
-0.548453
-0.46385
-0.351277
-0.218731
-0.0742354
0.950119
0.706132
0.401572
0.0792732
-0.222734
-0.476515
-0.665515
-0.783195
-0.830546
-0.813513
-0.740863
-0.622682
-0.469424
-0.291432
-0.0987643
1.32343
0.962527
0.519614
0.0622287
-0.353958
-0.692079
-0.933764
-1.07513
-1.12192
-1.08528
-0.978804
-0.816588
-0.612305
-0.378808
-0.128154
1.84227
1.30093
0.652132
0.00398797
-0.563247
-1.00408
-1.30233
-1.46165
-1.49671
-1.4269
-1.27248
-1.05256
-0.784398
-0.483339
-0.163197
2.57768
1.74678
0.783999
-0.13516
-0.898937
-1.45864
-1.80982
-1.97241
-1.97636
-1.85313
-1.63164
-1.33677
-0.989385
-0.606955
-0.20449
3.64168
2.32453
0.872239
-0.429685
-1.4387
-2.12174
-2.5059
-2.64182
-2.58318
-2.37763
-2.06418
-1.6735
-1.22941
-0.750604
-0.252296
5.21644
3.03741
0.810114
-1.01712
-2.30442
-3.0837
-3.45022
-3.50579
-3.33689
-3.01002
-2.57395
-2.06364
-1.50415
-0.913751
-0.306384
7.60111
3.79857
0.347925
-2.14449
-3.67816
-4.45842
-4.70547
-4.59423
-4.24855
-3.75162
-3.15795
-2.50297
-1.80981
-1.09386
-0.365872
11.2489
4.20783
-1.07249
-4.2306
-5.8053
-6.36633
-6.31901
-5.9171
-5.31147
-4.58995
-3.80324
-2.98046
-2.13825
-1.28601
-0.429117
16.5028
2.85631
-4.61511
-7.90011
-8.9461
-8.88258
-8.28712
-7.44367
-6.49027
-5.49347
-4.48459
-3.47739
-2.4767
-1.48281
-0.493702
20.9723
-4.67031
-12.3442
-13.8086
-13.1964
-11.9308
-10.5032
-9.08018
-7.71247
-6.40905
-5.16427
-3.96781
-2.80835
-1.67482
-0.556587
0.565979
1.70573
2.86935
4.07447
5.34159
6.69582
8.16943
9.8056
11.6641
13.8288
16.416
19.5637
23.3068
26.8031
23.9631
0.576949
1.739
2.92605
4.15676
5.45308
6.84254
8.36166
10.0617
12.019
14.3547
17.2774
21.1881
26.9857
37.1326
60.0208
0.582259
1.75489
2.95244
4.19346
5.49988
6.89922
8.42825
10.1392
12.1111
14.473
17.4538
21.5065
27.6538
38.5896
62.5984
0.581931
1.75349
2.94862
4.18474
5.48213
6.86582
8.3685
10.0354
11.9324
14.1614
16.8863
20.3748
25.021
31.054
35.9534
0.576257
1.73571
2.91633
4.13346
5.40443
6.74975
8.19472
9.7717
11.5232
13.5053
15.7882
18.4385
21.4356
24.3932
26.0757
0.565763
1.70322
2.85868
4.04477
5.27507
6.56446
7.92924
9.38681
10.9539
12.6405
14.4345
16.2589
17.8709
18.6309
16.9975
0.551145
1.65824
2.77975
3.92536
5.10466
6.32676
7.59925
8.92586
10.3015
11.7014
13.0599
14.2268
14.8943
14.53
12.724
0.533194
1.60322
2.68408
3.78253
4.90449
6.05403
7.23162
8.43082
9.63206
10.7912
11.8187
12.5421
12.6336
11.4304
7.1999
0.51271
1.54069
2.57617
3.62337
4.68515
5.76177
6.84892
7.93429
8.99182
9.97228
10.7887
11.2963
11.272
10.4333
8.73784
0.490445
1.47296
2.46011
3.45407
4.45547
5.46215
6.46739
7.45701
8.405
9.26717
9.97323
10.4199
10.4759
10.031
9.15361
0.467049
1.40201
2.3393
3.2796
4.2221
5.1635
6.09666
7.00858
7.87767
8.67038
9.33778
9.81463
10.0276
9.92912
9.59272
0.443054
1.32943
2.2164
3.1036
3.98947
4.87055
5.74065
6.58983
7.40332
8.16052
8.83455
9.39253
9.79554
9.99232
9.88636
0.418871
1.25644
2.09333
2.92852
3.76016
4.5852
5.39912
6.19581
6.96799
7.70834
8.41183
9.07797
9.70655
10.2656
10.6024
0.394807
1.18392
1.97143
2.7559
3.53543
4.30757
5.06953
5.81879
6.55471
7.2817
8.01497
8.78939
9.66574
10.6932
11.5778
0.37109
1.11252
1.85163
2.5867
3.31581
4.03699
4.74873
5.451
6.14761
6.85064
7.58949
8.42995
9.51992
11.2199
14.5475
0.347894
1.04272
1.73464
2.42164
3.10168
3.77297
4.43448
5.08713
5.73601
6.39466
7.09341
7.89718
8.95041
10.6162
14.0109
0.325363
0.974941
1.62106
2.26139
2.89363
3.51574
4.12638
4.72585
5.3176
5.91082
6.52435
7.19113
7.95548
8.81174
9.2693
0.303627
0.909559
1.5115
2.10676
2.69261
3.26645
3.82603
4.36992
4.89814
5.41286
5.91829
6.4173
6.89668
7.2841
7.39352
0.28281
0.846944
1.40659
1.95865
2.49992
3.02705
3.53656
4.02485
4.48806
4.92132
5.31665
5.65706
5.9017
5.94949
5.53652
0.263024
0.787444
1.30693
1.81804
2.31705
2.79988
3.26181
3.6972
4.09875
4.4561
4.75314
4.96331
5.04338
4.93484
4.63039
0.244367
0.731365
1.2131
1.68582
2.14542
2.5872
3.00548
3.39304
3.74012
4.03274
4.24993
4.35988
4.31602
4.0562
3.49201
0.226913
0.678944
1.12551
1.5627
1.98617
2.39084
2.77047
3.11697
3.41931
3.66176
3.82118
3.86323
3.73862
3.3889
2.83488
0.210707
0.630316
1.04443
1.44911
1.83997
2.21186
2.55845
2.87156
3.14008
3.34843
3.47391
3.48232
3.31752
2.86348
1.7534
0.195755
0.585502
0.969896
1.34512
1.70693
2.05044
2.36968
2.65709
2.90264
3.09263
3.20793
3.22169
3.09727
2.79362
2.33629
0.182024
0.544406
0.901729
1.25043
1.58661
1.90587
2.20302
2.47168
2.70377
2.88869
3.01245
3.05701
3.00147
2.83048
2.55672
0.169452
0.50682
0.839551
1.16443
1.47803
1.77665
2.05613
2.31168
2.53765
2.72721
2.87198
2.96182
2.98585
2.93869
2.84832
0.157944
0.472455
0.782825
1.08625
1.37986
1.66073
1.92585
2.1722
2.3968
2.59682
2.76963
2.91233
3.01965
3.07691
3.03724
0.147392
0.440966
0.730921
1.01488
1.29053
1.55573
1.8086
2.04782
2.27301
2.48534
2.6882
2.8874
3.0882
3.28242
3.42112
0.137679
0.411988
0.683181
0.949276
1.20847
1.45929
1.70083
1.93319
2.15816
2.38041
2.60929
2.86135
3.16131
3.5265
3.84287
0.128693
0.385174
0.63898
0.888464
1.13222
1.36929
1.59943
1.82368
2.0452
2.27087
2.51429
2.80204
3.18911
3.80446
5.01167
0.120335
0.360218
0.597781
0.831626
1.06062
1.28409
1.50212
1.71606
1.92934
2.14901
2.38851
2.67374
3.05838
3.6714
4.89691
0.112525
0.336874
0.559162
0.778154
0.992857
1.20267
1.40766
1.60889
1.80905
2.01338
2.23096
2.4764
2.76906
3.11301
3.35188
0.1052
0.31496
0.522831
0.727663
0.928484
1.12461
1.3158
1.50246
1.68588
1.86853
2.05408
2.24626
2.44412
2.62757
2.73848
0.0983196
0.294358
0.488612
0.679957
0.867371
1.04998
1.2271
1.39827
1.56324
1.72169
1.87258
2.01218
2.12919
2.19251
2.11592
0.0918568
0.274995
0.456413
0.634983
0.809597
0.979155
1.14252
1.2984
1.44512
1.58009
1.69892
1.79379
1.85154
1.85462
1.80557
0.0857937
0.256827
0.426192
0.592757
0.755335
0.912635
1.06314
1.2049
1.33516
1.44971
1.5419
1.60119
1.61185
1.55294
1.39552
0.0801156
0.239818
0.397919
0.5533
0.704742
0.850837
0.989837
1.11939
1.2361
1.33486
1.40773
1.44238
1.42047
1.31968
1.14956
0.0748051
0.223921
0.371535
0.51658
0.657863
0.79397
0.923098
1.04279
1.14953
1.23801
1.3001
1.32285
1.28387
1.13456
0.717303
0.0698383
0.209068
0.346938
0.482475
0.614583
0.741953
0.862915
0.97521
1.07563
1.15948
1.21979
1.24621
1.2239
1.13551
0.991544
0.0651823
0.195161
0.323964
0.450754
0.574597
0.69439
0.808756
0.915877
1.01325
1.09731
1.16303
1.2034
1.20983
1.17507
1.10133
0.0607952
0.18207
0.302389
0.421083
0.537427
0.6506
0.759634
0.863324
0.96011
1.0479
1.12386
1.18419
1.22437
1.24171
1.24793
0.0566278
0.169645
0.281946
0.393048
0.502463
0.609692
0.714231
0.815573
0.913227
1.00672
1.09557
1.17898
1.25479
1.3161
1.34051
0.0526264
0.157719
0.262338
0.366189
0.469022
0.570659
0.671055
0.770394
0.869241
0.96878
1.07107
1.17907
1.29529
1.41612
1.52029
0.0487369
0.146124
0.243266
0.340043
0.436417
0.532494
0.628623
0.725565
0.824787
0.928937
1.04262
1.17348
1.3326
1.52774
1.70881
0.0449079
0.134702
0.22445
0.31418
0.404025
0.494302
0.585634
0.679165
0.776923
0.882487
1.00227
1.14828
1.34492
1.64915
2.22129
0.0410943
0.123315
0.205651
0.288242
0.37134
0.455384
0.541129
0.629841
0.723652
0.826178
0.943727
1.08794
1.28255
1.58454
2.16455
0.037259
0.11185
0.186678
0.261957
0.338004
0.415295
0.494573
0.576989
0.664344
0.759452
0.866686
0.992623
1.14565
1.32691
1.46522
0.0333736
0.100224
0.167395
0.235146
0.30381
0.373836
0.445847
0.52072
0.599668
0.684322
0.776677
0.878517
0.989171
1.09914
1.18267
0.0294176
0.0883764
0.147713
0.207707
0.268678
0.331006
0.395147
0.461633
0.531044
0.603863
0.680102
0.758313
0.833194
0.889762
0.886399
0.0253768
0.076269
0.127579
0.179595
0.232611
0.286928
0.342828
0.40053
0.460067
0.521047
0.582179
0.640443
0.689961
0.722031
0.736068
0.0212405
0.0638736
0.10696
0.150794
0.195649
0.241759
0.289271
0.338166
0.388104
0.438142
0.486266
0.52867
0.558869
0.566849
0.534962
0.0169996
0.0511659
0.0858268
0.12129
0.157825
0.195626
0.234764
0.275092
0.316086
0.356583
0.394344
0.425393
0.443231
0.439374
0.416698
0.0126436
0.0381172
0.0641403
0.0910493
0.119128
0.148574
0.179443
0.211568
0.24443
0.276943
0.307103
0.33131
0.342679
0.324989
0.223415
0.00815932
0.0246894
0.0418432
0.0600022
0.0794909
0.100544
0.123261
0.147547
0.173031
0.198953
0.224015
0.246162
0.262328
0.268877
0.269903
0.00352921
0.0108311
0.0188526
0.0280382
0.0387758
0.0513684
0.0660015
0.0827086
0.101344
0.121579
0.14297
0.165188
0.188677
0.216621
0.261078
-0.00126898
-0.0035242
-0.00494174
-0.00499716
-0.00321925
0.000786254
0.007314
0.0165453
0.0285611
0.0434193
0.061371
0.0833519
0.111956
0.152919
0.214845
-0.00626251
-0.0184585
-0.0296774
-0.0392991
-0.0467527
-0.051537
-0.0532386
-0.0515373
-0.0461789
-0.0368698
-0.0230054
-0.00306099
0.0266774
0.0746841
0.160426
-0.0114835
-0.0340687
-0.0555174
-0.0751001
-0.0921314
-0.105991
-0.116142
-0.122145
-0.123646
-0.120303
-0.111583
-0.0962512
-0.0712609
-0.0297262
0.03878
-0.0169686
-0.0504654
-0.0826487
-0.112666
-0.139704
-0.163009
-0.181913
-0.195865
-0.204459
-0.207452
-0.204729
-0.196123
-0.180659
-0.152834
-0.0813096
-0.0227583
-0.0677715
-0.111279
-0.152295
-0.189861
-0.223073
-0.25111
-0.27329
-0.289145
-0.29855
-0.301936
-0.300732
-0.298611
-0.306252
-0.364534
-0.0288968
-0.0861203
-0.141636
-0.194313
-0.243034
-0.28672
-0.324363
-0.355092
-0.378293
-0.393809
-0.402308
-0.40595
-0.409749
-0.424464
-0.471346
-0.03543
-0.105652
-0.17396
-0.23907
-0.299695
-0.354554
-0.402405
-0.442109
-0.47276
-0.493922
-0.50603
-0.511031
-0.513275
-0.520293
-0.542181
-0.0424051
-0.126512
-0.2085
-0.286936
-0.360352
-0.427246
-0.486093
-0.535398
-0.5738
-0.600303
-0.614664
-0.618002
-0.613453
-0.605755
-0.594694
-0.0498677
-0.148839
-0.245504
-0.338283
-0.425531
-0.505514
-0.576396
-0.636244
-0.683089
-0.715098
-0.730931
-0.730427
-0.715789
-0.693522
-0.678943
-0.0578604
-0.172765
-0.285202
-0.393464
-0.495746
-0.590094
-0.674351
-0.746106
-0.802666
-0.841111
-0.858524
-0.852646
-0.823398
-0.775924
-0.72404
-0.0664192
-0.198402
-0.327794
-0.452793
-0.571465
-0.681673
-0.780977
-0.866507
-0.93481
-0.981713
-1.00227
-0.991075
-0.943645
-0.861366
-0.766712
-0.0755716
-0.225835
-0.373434
-0.51651
-0.653053
-0.780815
-0.89716
-0.998859
-1.0818
-1.14059
-1.16806
-1.15465
-1.08807
-0.955383
-0.765742
-0.0853342
-0.255115
-0.422213
-0.584757
-0.740734
-0.887878
-1.0235
-1.14423
-1.24555
-1.32122
-1.36222
-1.35513
-1.2784
-1.08893
-0.653821
-0.0957121
-0.286257
-0.47415
-0.657559
-0.834541
-1.00293
-1.16018
-1.30305
-1.4271
-1.5259
-1.58975
-1.60395
-1.54701
-1.39306
-1.14782
-0.1067
-0.31924
-0.529196
-0.734821
-0.934307
-1.12572
-1.30685
-1.47494
-1.62619
-1.75485
-1.85176
-1.90215
-1.88299
-1.76057
-1.47892
-0.118283
-0.354014
-0.587248
-0.81634
-1.03967
-1.25564
-1.46255
-1.65851
-1.84094
-2.00583
-2.14607
-2.24864
-2.29065
-2.23865
-2.08172
-0.130446
-0.390522
-0.648171
-0.901855
-1.15015
-1.39183
-1.62587
-1.85146
-2.06787
-2.27391
-2.46652
-2.63718
-2.76359
-2.78957
-2.56929
-0.143175
-0.428712
-0.711846
-0.991103
-1.26523
-1.53333
-1.79503
-2.05077
-2.30199
-2.55132
-2.80218
-3.05645
-3.30625
-3.51151
-3.5748
-0.156468
-0.468569
-0.778209
-1.08391
-1.38449
-1.67925
-1.96834
-2.25322
-2.53742
-2.82766
-3.13547
-3.47881
-3.87983
-4.33202
-4.57333
-0.170341
-0.510134
-0.847305
-1.18027
-1.50777
-1.8291
-2.14456
-2.45613
-2.76864
-3.09179
-3.44406
-3.86112
-4.41786
-5.29895
-7.07532
-0.184831
-0.553518
-0.919316
-1.28043
-1.63534
-1.98303
-2.32348
-2.65838
-2.99245
-3.33569
-3.70766
-4.1464
-4.73062
-5.64415
-7.39631
-0.199996
-0.598906
-0.994577
-1.3849
-1.76791
-2.14199
-2.50624
-2.8612
-3.20988
-3.55964
-3.92486
-4.33065
-4.81468
-5.40696
-5.9653
-0.215913
-0.646542
-1.07355
-1.49444
-1.90668
-2.30775
-2.69546
-3.06836
-3.42656
-3.77284
-4.11388
-4.46057
-4.82355
-5.19332
-5.49102
-0.232662
-0.696691
-1.15676
-1.60999
-2.05319
-2.4828
-2.89496
-3.28572
-3.65152
-3.98967
-4.29897
-4.57915
-4.82768
-5.02973
-5.13373
-0.25031
-0.749589
-1.24472
-1.73251
-2.20914
-2.66996
-3.1093
-3.52043
-3.89565
-4.22654
-4.50425
-4.71971
-4.86408
-4.93421
-4.96249
-0.268888
-0.805367
-1.33777
-1.86277
-2.37607
-2.87203
-3.34322
-3.78006
-4.17056
-4.50032
-4.75277
-4.90963
-4.95202
-4.86775
-4.68692
-0.288366
-0.863972
-1.43597
-2.00114
-2.55504
-3.0913
-3.60099
-4.07186
-4.48765
-4.82779
-5.06767
-5.17902
-5.12791
-4.86832
-4.40483
-0.308626
-0.925085
-1.53889
-2.14735
-2.74624
-3.32901
-3.88573
-4.40191
-4.85725
-5.22487
-5.47181
-5.56122
-5.44858
-5.01049
-3.52813
-0.329436
-0.988036
-1.64554
-2.3002
-2.94864
-3.5848
-4.1986
-4.77419
-5.28778
-5.70576
-5.98532
-6.08373
-5.99525
-5.87783
-6.52219
-0.350433
-1.05175
-1.75414
-2.45737
-3.15957
-3.8561
-4.53801
-5.18954
-5.78468
-6.28277
-6.62464
-6.736
-6.56202
-6.21616
-6.5494
-0.371118
-1.11471
-1.86217
-2.61527
-3.37441
-4.13756
-4.89852
-5.64403
-6.34896
-6.96826
-7.42403
-7.58641
-7.24815
-6.08287
-3.43151
-0.39086
-1.175
-1.96626
-2.76895
-3.58647
-4.42055
-5.26974
-6.12669
-6.97271
-7.7673
-8.42714
-8.78449
-8.50857
-6.98157
-3.23839
-0.408921
-1.23033
-2.06243
-2.91234
-3.78703
-4.69302
-5.63558
-6.61693
-7.63216
-8.65991
-9.6403
-10.4223
-10.6378
-9.41926
-4.94361
-0.424507
-1.27823
-2.14623
-3.03851
-3.96585
-4.9401
-5.97447
-7.08363
-8.28293
-9.58539
-10.9912
-12.4536
-13.7629
-14.1188
-10.4069
-0.436821
-1.31622
-2.21316
-3.14034
-4.11209
-5.14541
-6.26143
-7.48771
-8.86204
-10.4391
-12.3028
-14.5913
-17.5499
-21.6433
-27.7464
-11.4366
-26.0217
-24.5903
-21.0045
-17.6743
-14.8822
-12.5435
-10.5415
-8.78348
-7.20203
-5.7486
-4.38747
-3.09134
-1.83838
-0.610113
-111.935
-58.3905
-37.7017
-27.4813
-21.387
-17.2425
-14.1525
-11.6898
-9.62578
-7.82725
-6.21064
-4.72016
-3.31613
-1.96848
-0.65272
-124.444
-67.9428
-43.5433
-31.0928
-23.7457
-18.8705
-15.326
-12.5611
-10.2837
-8.32613
-6.58509
-4.9928
-3.50177
-2.07644
-0.688156
-68.389
-55.2023
-41.0871
-31.1601
-24.3879
-19.5743
-15.958
-13.0939
-10.7196
-8.67461
-6.85624
-5.19512
-3.64178
-2.15868
-0.715276
-48.2928
-43.1065
-35.7223
-29.0365
-23.6699
-19.4465
-16.0676
-13.2865
-10.9267
-8.86572
-7.01817
-5.32258
-3.73301
-2.21334
-0.733471
-30.6878
-32.537
-29.8725
-25.9966
-22.1581
-18.7323
-15.7621
-13.1866
-10.9262
-8.90864
-7.07457
-5.37641
-3.77568
-2.24036
-0.742688
-22.6499
-25.102
-24.8638
-22.9308
-20.3597
-17.7018
-15.1824
-12.8679
-10.7571
-8.82412
-7.03658
-5.36259
-3.77293
-2.24122
-0.743367
-12.5965
-19.5351
-21.0322
-20.3082
-18.6214
-16.575
-14.4604
-12.4076
-10.4645
-8.63859
-6.91973
-5.29019
-3.72991
-2.21859
-0.736319
-15.2197
-17.7471
-18.7429
-18.3541
-17.133
-15.4955
-13.6954
-11.8713
-10.0903
-8.37874
-6.74084
-5.16968
-3.65291
-2.17576
-0.722585
-15.9011
-17.0228
-17.415
-16.9781
-15.9337
-14.5288
-12.9471
-11.3051
-9.66802
-8.0677
-6.51559
-5.01141
-3.54837
-2.11629
-0.703288
-16.5633