/*--------------------------------*- C++ -*----------------------------------*\
| =========                 |                                                 |
| \\      /  F ield         | OpenFOAM: The Open Source CFD Toolbox           |
|  \\    /   O peration     | Version:  5.x                                   |
|   \\  /    A nd           | Web:      www.OpenFOAM.org                      |
|    \\/     M anipulation  |                                                 |
\*---------------------------------------------------------------------------*/
FoamFile
{
    version     2.0;
    format      ascii;
    class       volScalarField;
    location    "6.9";
    object      T;
}
// * * * * * * * * * * * * * * * * * * * * * * * * * * * * * * * * * * * * * //

dimensions      [0 0 0 1 0 0 0];

internalField   nonuniform List<scalar> 
6300
(
322.842
322.525
322.207
321.888
321.566
321.241
320.912
320.579
320.241
319.898
319.549
319.195
318.835
318.469
318.096
322.842
322.526
322.209
321.89
321.569
321.244
320.916
320.584
320.246
319.904
319.555
319.201
318.841
318.474
318.102
322.843
322.528
322.213
321.895
321.575
321.252
320.925
320.593
320.257
319.915
319.567
319.213
318.853
318.486
318.113
322.844
322.532
322.218
321.903
321.584
321.263
320.938
320.608
320.273
319.932
319.585
319.231
318.871
318.504
318.131
322.845
322.536
322.225
321.913
321.597
321.278
320.956
320.628
320.294
319.955
319.609
319.256
318.896
318.529
318.154
322.847
322.541
322.234
321.925
321.613
321.298
320.978
320.653
320.322
319.985
319.64
319.288
318.928
318.56
318.185
322.849
322.548
322.245
321.941
321.633
321.322
321.006
320.684
320.357
320.022
319.679
319.328
318.968
318.599
318.222
322.852
322.556
322.259
321.959
321.657
321.35
321.039
320.722
320.398
320.066
319.726
319.377
319.017
318.647
318.267
322.855
322.565
322.274
321.98
321.684
321.383
321.078
320.766
320.447
320.12
319.783
319.435
319.076
318.705
318.322
322.859
322.576
322.291
322.005
321.715
321.422
321.123
320.818
320.505
320.183
319.85
319.506
319.148
318.775
318.388
322.863
322.587
322.311
322.032
321.751
321.465
321.174
320.877
320.571
320.256
319.93
319.589
319.233
318.86
318.468
322.867
322.6
322.333
322.063
321.79
321.514
321.232
320.944
320.648
320.341
320.023
319.689
319.337
318.963
318.566
322.872
322.615
322.356
322.096
321.834
321.568
321.296
321.019
320.734
320.439
320.131
319.806
319.461
319.091
318.691
322.877
322.63
322.382
322.133
321.881
321.626
321.367
321.103
320.831
320.55
320.255
319.944
319.61
319.247
318.851
322.882
322.646
322.409
322.171
321.931
321.689
321.443
321.193
320.937
320.673
320.397
320.105
319.788
319.436
319.046
317.75
317.431
317.109
316.784
316.455
316.123
315.789
315.452
315.113
314.772
314.429
314.085
313.739
313.392
313.044
312.695
312.346
311.997
311.647
311.298
310.949
310.6
310.252
309.904
309.556
309.209
308.862
308.516
308.17
307.825
307.481
307.137
306.794
306.452
306.111
305.771
305.432
305.094
304.757
304.42
304.085
303.75
303.416
303.083
302.751
302.419
302.089
301.76
301.431
301.104
300.778
300.453
300.129
299.806
299.484
299.162
298.842
298.522
298.203
297.885
297.568
297.252
296.937
296.622
296.309
295.997
295.686
295.375
295.066
294.757
294.449
294.141
293.835
293.528
293.223
292.918
292.614
292.31
292.007
291.704
291.402
291.1
290.798
290.496
290.194
289.891
289.588
289.284
288.979
288.673
317.755
317.437
317.114
316.788
316.459
316.127
315.793
315.456
315.116
314.775
314.431
314.087
313.74
313.393
313.045
312.696
312.346
311.997
311.647
311.298
310.949
310.6
310.252
309.904
309.556
309.209
308.862
308.515
308.169
307.824
307.48
307.136
306.793
306.451
306.11
305.77
305.431
305.093
304.755
304.419
304.083
303.749
303.415
303.082
302.749
302.418
302.087
301.758
301.43
301.103
300.777
300.451
300.128
299.804
299.482
299.161
298.841
298.521
298.202
297.884
297.567
297.25
296.935
296.621
296.308
295.995
295.684
295.374
295.064
294.756
294.448
294.14
293.834
293.528
293.222
292.917
292.613
292.309
292.006
291.704
291.402
291.1
290.799
290.497
290.195
289.892
289.589
289.285
288.98
288.674
317.766
317.447
317.124
316.797
316.468
316.135
315.8
315.462
315.122
314.78
314.436
314.091
313.744
313.395
313.046
312.697
312.347
311.997
311.647
311.297
310.948
310.599
310.25
309.902
309.555
309.207
308.86
308.514
308.168
307.822
307.477
307.133
306.79
306.448
306.107
305.767
305.428
305.09
304.753
304.417
304.081
303.746
303.412
303.079
302.747
302.415
302.084
301.755
301.427
301.099
300.773
300.449
300.125
299.802
299.48
299.159
298.838
298.518
298.199
297.881
297.564
297.248
296.932
296.618
296.305
295.993
295.682
295.371
295.062
294.754
294.446
294.139
293.832
293.526
293.22
292.915
292.611
292.308
292.005
291.703
291.401
291.1
290.799
290.498
290.196
289.894
289.591
289.288
288.983
288.677
317.783
317.463
317.138
316.811
316.48
316.147
315.81
315.472
315.131
314.788
314.443
314.097
313.748
313.399
313.049
312.698
312.347
311.997
311.646
311.296
310.946
310.597
310.249
309.901
309.553
309.206
308.859
308.512
308.165
307.819
307.474
307.129
306.786
306.444
306.102
305.762
305.424
305.086
304.749
304.413
304.078
303.743
303.409
303.075
302.743
302.411
302.08
301.75
301.422
301.095
300.769
300.444
300.121
299.798
299.476
299.155
298.835
298.515
298.196
297.877
297.56
297.243
296.928
296.613
296.3
295.988
295.678
295.368
295.059
294.751
294.443
294.136
293.829
293.523
293.217
292.912
292.608
292.305
292.002
291.701
291.4
291.099
290.799
290.499
290.199
289.897
289.595
289.292
288.987
288.681
317.805
317.484
317.158
316.829
316.497
316.162
315.824
315.485
315.143
314.799
314.453
314.105
313.755
313.404
313.053
312.7
312.348
311.996
311.644
311.294
310.944
310.595
310.246
309.899
309.551
309.204
308.856
308.509
308.162
307.815
307.469
307.124
306.78
306.437
306.096
305.756
305.418
305.081
304.744
304.409
304.074
303.739
303.404
303.071
302.737
302.405
302.074
301.744
301.415
301.088
300.762
300.438
300.115
299.793
299.472
299.151
298.83
298.511
298.191
297.872
297.554
297.237
296.922
296.607
296.294
295.982
295.672
295.363
295.054
294.747
294.439
294.132
293.826
293.52
293.214
292.909
292.604
292.301
291.999
291.698
291.397
291.098
290.799
290.501
290.202
289.902
289.601
289.298
288.994
288.687
317.834
317.51
317.183
316.852
316.517
316.181
315.842
315.501
315.158
314.812
314.465
314.115
313.764
313.411
313.057
312.702
312.348
311.994
311.642
311.29
310.94
310.591
310.243
309.896
309.549
309.201
308.854
308.506
308.158
307.81
307.463
307.117
306.772
306.429
306.088
305.748
305.411
305.074
304.738
304.403
304.069
303.734
303.399
303.065
302.731
302.398
302.065
301.735
301.406
301.079
300.754
300.43
300.108
299.787
299.466
299.146
298.826
298.506
298.186
297.866
297.547
297.23
296.913
296.599
296.286
295.975
295.665
295.357
295.049
294.742
294.435
294.129
293.822
293.515
293.209
292.903
292.599
292.295
291.993
291.693
291.394
291.096
290.8
290.503
290.206
289.908
289.609
289.307
289.003
288.696
317.869
317.542
317.212
316.878
316.542
316.203
315.863
315.52
315.176
314.829
314.48
314.128
313.774
313.419
313.062
312.704
312.347
311.991
311.637
311.285
310.935
310.587
310.239
309.893
309.546
309.199
308.852
308.503
308.154
307.805
307.456
307.108
306.762
306.418
306.077
305.738
305.401
305.066
304.732
304.398
304.064
303.729
303.394
303.059
302.723
302.389
302.055
301.724
301.394
301.067
300.743
300.42
300.099
299.78
299.46
299.14
298.821
298.5
298.179
297.859
297.539
297.22
296.903
296.588
296.275
295.965
295.656
295.349
295.043
294.737
294.431
294.125
293.818
293.511
293.203
292.897
292.591
292.287
291.986
291.686
291.389
291.094
290.799
290.506
290.212
289.917
289.62
289.32
289.016
288.709
317.911
317.581
317.247
316.909
316.569
316.228
315.886
315.542
315.197
314.849
314.498
314.144
313.788
313.428
313.067
312.706
312.345
311.986
311.63
311.277
310.927
310.58
310.234
309.89
309.545
309.198
308.851
308.501
308.15
307.798
307.446
307.096
306.749
306.404
306.063
305.725
305.39
305.056
304.724
304.392
304.059
303.725
303.389
303.052
302.715
302.378
302.042
301.709
301.379
301.052
300.729
300.408
300.089
299.772
299.454
299.136
298.816
298.495
298.173
297.851
297.528
297.208
296.889
296.574
296.261
295.952
295.645
295.34
295.036
294.732
294.428
294.122
293.814
293.506
293.197
292.889
292.581
292.277
291.975
291.676
291.381
291.089
290.798
290.509
290.22
289.929
289.635
289.337
289.034
288.727
317.961
317.626
317.286
316.943
316.599
316.255
315.911
315.567
315.221
314.873
314.521
314.165
313.805
313.44
313.073
312.706
312.34
311.977
311.618
311.265
310.916
310.571
310.229
309.887
309.544
309.2
308.852
308.501
308.147
307.791
307.435
307.081
306.731
306.385
306.044
305.707
305.375
305.046
304.717
304.388
304.057
303.723
303.386
303.047
302.706
302.365
302.026
301.69
301.359
301.033
300.711
300.393
300.078
299.764
299.449
299.133
298.814
298.492
298.168
297.842
297.516
297.192
296.871
296.555
296.243
295.935
295.632
295.33
295.03
294.729
294.426
294.121
293.813
293.502
293.19
292.878
292.568
292.262
291.959
291.662
291.369
291.081
290.796
290.513
290.229
289.944
289.656
289.361
289.06
288.752
318.02
317.677
317.329
316.979
316.629
316.282
315.937
315.593
315.249
314.902
314.55
314.192
313.827
313.456
313.08
312.704
312.33
311.961
311.599
311.245
310.899
310.558
310.221
309.885
309.548
309.206
308.859
308.505
308.147
307.785
307.422
307.061
306.706
306.358
306.018
305.684
305.357
305.033
304.71
304.386
304.058
303.725
303.387
303.043
302.696
302.349
302.004
301.664
301.332
301.006
300.688
300.375
300.065
299.757
299.447
299.134
298.816
298.492
298.164
297.833
297.501
297.172
296.847
296.529
296.218
295.914
295.615
295.319
295.024
294.727
294.428
294.123
293.814
293.5
293.183
292.865
292.55
292.24
291.937
291.64
291.351
291.069
290.791
290.516
290.241
289.965
289.684
289.396
289.097
288.787
318.091
317.737
317.376
317.013
316.656
316.305
315.96
315.621
315.282
314.939
314.589
314.229
313.858
313.477
313.089
312.699
312.312
311.934
311.569
311.215
310.874
310.54
310.213
309.886
309.556
309.22
308.874
308.517
308.152
307.779
307.404
307.033
306.671
306.32
305.981
305.653
305.334
305.019
304.706
304.389
304.067
303.735
303.394
303.044
302.688
302.33
301.975
301.629
301.294
300.97
300.656
300.351
300.051
299.752
299.449
299.141
298.825
298.499
298.165
297.825
297.483
297.144
296.814
296.493
296.184
295.885
295.593
295.306
295.02
294.731
294.436
294.134
293.822
293.502
293.177
292.849
292.525
292.209
291.903
291.608
291.324
291.05
290.782
290.518
290.256
289.993
289.724
289.445
289.151
288.839
318.179
317.807
317.423
317.042
316.672
316.318
315.978
315.647
315.319
314.986
314.641
314.281
313.904
313.51
313.102
312.687
312.281
311.891
311.52
311.169
310.835
310.515
310.203
309.892
309.575
309.247
308.903
308.543
308.166
307.777
307.381
306.993
306.62
306.265
305.929
305.609
305.303
305.004
304.706
304.402
304.088
303.759
303.415
303.055
302.682
302.304
301.934
301.578
301.239
300.918
300.613
300.32
300.035
299.751
299.461
299.161
298.847
298.519
298.175
297.819
297.459
297.105
296.765
296.442
296.136
295.844
295.564
295.292
295.02
294.743
294.456
294.157
293.842
293.513
293.173
292.827
292.489
292.163
291.854
291.561
291.284
291.02
290.767
290.519
290.273
290.028
289.778
289.515
289.231
288.917
318.293
317.896
317.467
317.054
316.666
316.311
315.98
315.67
315.365
315.048
314.716
314.358
313.976
313.561
313.122
312.665
312.228
311.819
311.445
311.097
310.778
310.477
310.191
309.906
309.609
309.295
308.957
308.594
308.2
307.782
307.347
306.931
306.541
306.184
305.853
305.548
305.26
304.987
304.714
304.43
304.13
303.806
303.459
303.083
302.684
302.269
301.873
301.5
301.16
300.844
300.553
300.278
300.017
299.757
299.486
299.2
298.891
298.56
298.201
297.821
297.425
297.047
296.692
296.367
296.065
295.787
295.525
295.276
295.028
294.769
294.495
294.2
293.884
293.54
293.176
292.796
292.434
292.093
291.781
291.491
291.226
290.977
290.743
290.516
290.289
290.069
289.85
289.617
289.352
289.038
318.456
318.031
317.489
317.031
316.611
316.268
315.954
315.687
315.427
315.133
314.827
314.471
314.095
313.647
313.171
312.61
312.137
311.696
311.33
310.985
310.694
310.418
310.178
309.939
309.667
309.38
309.045
308.69
308.266
307.814
307.283
306.834
306.415
306.066
305.739
305.46
305.197
304.968
304.74
304.479
304.206
303.886
303.546
303.142
302.711
302.205
301.777
301.378
301.045
300.733
300.468
300.217
299.999
299.781
299.533
299.272
298.966
298.643
298.258
297.847
297.364
296.956
296.575
296.258
295.96
295.707
295.468
295.259
295.052
294.815
294.566
294.274
293.965
293.597
293.203
292.74
292.347
291.981
291.675
291.387
291.143
290.911
290.71
290.512
290.294
290.11
289.943
289.765
289.546
289.241
318.711
318.332
317.386
316.953
316.447
316.185
315.859
315.695
315.536
315.235
315.012
314.611
314.316
313.775
313.339
312.431
311.998
311.468
311.182
310.798
310.586
310.308
310.163
310.02
309.744
309.536
309.161
308.884
308.374
307.961
307.102
306.691
306.189
305.917
305.553
305.352
305.086
304.949
304.812
304.548
304.349
303.992
303.727
303.24
302.847
302.028
301.638
301.16
300.901
300.555
300.363
300.11
299.979
299.848
299.597
299.408
299.067
298.815
298.351
297.976
297.196
296.824
296.368
296.121
295.791
295.608
295.367
295.242
295.117
294.878
294.697
294.373
294.132
293.689
293.33
292.581
292.223
291.782
291.543
291.221
291.041
290.8
290.674
290.538
290.248
290.127
290.05
289.974
289.862
289.632
288.335
287.966
287.595
287.225
286.854
286.483
286.113
285.743
285.374
285.007
284.64
284.274
283.91
283.546
283.182
288.336
287.967
287.596
287.225
286.854
286.482
286.112
285.742
285.373
285.006
284.639
284.274
283.909
283.545
283.182
288.339
287.968
287.597
287.225
286.853
286.481
286.11
285.74
285.371
285.003
284.637
284.272
283.908
283.544
283.181
288.342
287.971
287.599
287.226
286.852
286.48
286.108
285.737
285.368
285
284.634
284.269
283.906
283.543
283.181
288.348
287.976
287.601
287.227
286.851
286.477
286.104
285.732
285.363
284.995
284.629
284.265
283.903
283.541
283.18
288.356
287.982
287.605
287.227
286.85
286.473
286.098
285.726
285.356
284.988
284.623
284.26
283.899
283.539
283.179
288.367
287.99
287.61
287.228
286.847
286.467
286.09
285.717
285.346
284.979
284.614
284.253
283.893
283.535
283.178
288.382
288.001
287.615
287.229
286.843
286.459
286.08
285.704
285.333
284.966
284.603
284.244
283.886
283.531
283.177
288.404
288.016
287.623
287.228
286.836
286.447
286.064
285.687
285.316
284.95
284.589
284.232
283.878
283.526
283.175
288.434
288.036
287.631
287.226
286.825
286.43
286.043
285.665
285.294
284.929
284.571
284.217
283.867
283.519
283.173
288.477
288.062
287.64
287.22
286.807
286.405
286.014
285.634
285.264
284.903
284.548
284.198
283.853
283.511
283.17
288.538
288.096
287.647
287.206
286.779
286.368
285.974
285.595
285.227
284.869
284.519
284.176
283.836
283.501
283.167
288.629
288.138
287.647
287.177
286.733
286.316
285.92
285.543
285.179
284.828
284.485
284.148
283.817
283.489
283.163
288.763
288.181
287.626
287.121
286.662
286.241
285.848
285.476
285.121
284.777
284.443
284.116
283.794
283.475
283.158
288.959
288.195
287.555
287.019
286.554
286.138
285.754
285.394
285.05
284.718
284.395
284.079
283.767
283.459
283.153
322.887
322.661
322.435
322.208
321.979
321.749
321.517
321.281
321.042
320.796
320.543
320.275
319.983
319.643
319.2
322.892
322.676
322.459
322.242
322.024
321.806
321.586
321.364
321.141
320.915
320.684
320.447
320.194
319.901
319.459
322.897
322.69
322.484
322.277
322.07
321.863
321.656
321.449
321.242
321.036
320.831
320.628
320.433
320.262
320.2
322.902
322.705
322.508
322.312
322.116
321.921
321.726
321.533
321.343
321.156
320.975
320.805
320.655
320.545
320.503
322.906
322.72
322.533
322.347
322.162
321.978
321.796
321.616
321.441
321.272
321.112
320.968
320.85
320.779
320.8
322.911
322.734
322.557
322.381
322.206
322.033
321.863
321.696
321.535
321.381
321.238
321.112
321.012
320.951
320.937
322.916
322.748
322.581
322.414
322.25
322.087
321.928
321.773
321.623
321.482
321.353
321.239
321.148
321.09
321.083
322.92
322.762
322.603
322.446
322.291
322.139
321.99
321.845
321.706
321.576
321.456
321.349
321.261
321.193
321.149
322.925
322.775
322.625
322.477
322.331
322.188
322.048
321.913
321.784
321.662
321.55
321.448
321.359
321.28
321.203
322.929
322.787
322.646
322.507
322.369
322.235
322.104
321.977
321.856
321.742
321.636
321.538
321.449
321.367
321.295
322.933
322.799
322.666
322.535
322.406
322.279
322.156
322.037
321.924
321.817
321.716
321.622
321.533
321.448
321.355
322.937
322.811
322.685
322.561
322.44
322.321
322.205
322.094
321.988
321.887
321.791
321.701
321.616
321.533
321.455
322.94
322.821
322.703
322.587
322.472
322.36
322.252
322.147
322.047
321.953
321.863
321.778
321.696
321.614
321.52
322.944
322.832
322.72
322.61
322.502
322.397
322.295
322.197
322.104
322.015
321.931
321.853
321.777
321.704
321.632
322.947
322.841
322.736
322.633
322.531
322.432
322.336
322.244
322.157
322.074
321.997
321.925
321.857
321.792
321.713
322.95
322.85
322.751
322.653
322.558
322.465
322.374
322.288
322.206
322.129
322.058
321.993
321.936
321.891
321.874
322.953
322.858
322.765
322.673
322.583
322.495
322.41
322.329
322.252
322.181
322.115
322.056
322.007
321.969
321.947
322.955
322.866
322.778
322.691
322.606
322.523
322.443
322.367
322.295
322.228
322.167
322.113
322.069
322.038
322.028
322.958
322.874
322.79
322.708
322.628
322.549
322.474
322.402
322.334
322.271
322.213
322.163
322.122
322.091
322.07
322.96
322.88
322.801
322.724
322.648
322.574
322.502
322.434
322.37
322.31
322.255
322.207
322.167
322.137
322.121
322.962
322.887
322.812
322.738
322.666
322.596
322.528
322.464
322.402
322.345
322.293
322.246
322.206
322.173
322.147
322.964
322.893
322.822
322.752
322.683
322.617
322.552
322.491
322.432
322.377
322.326
322.28
322.239
322.204
322.179
322.966
322.898
322.831
322.764
322.699
322.636
322.574
322.515
322.459
322.406
322.356
322.31
322.268
322.229
322.194
322.968
322.903
322.839
322.776
322.714
322.654
322.595
322.538
322.484
322.433
322.384
322.338
322.294
322.252
322.208
322.969
322.908
322.847
322.787
322.728
322.67
322.614
322.56
322.508
322.458
322.41
322.364
322.32
322.276
322.233
322.971
322.912
322.854
322.797
322.74
322.685
322.632
322.58
322.529
322.481
322.434
322.389
322.344
322.299
322.251
322.972
322.916
322.861
322.806
322.752
322.7
322.648
322.598
322.55
322.503
322.458
322.413
322.369
322.325
322.281
322.973
322.92
322.867
322.815
322.763
322.713
322.664
322.616
322.569
322.524
322.48
322.437
322.395
322.351
322.301
322.975
322.924
322.873
322.823
322.774
322.726
322.678
322.632
322.588
322.544
322.502
322.461
322.421
322.38
322.338
322.976
322.927
322.879
322.831
322.784
322.737
322.692
322.648
322.605
322.564
322.524
322.485
322.447
322.409
322.365
322.977
322.93
322.884
322.838
322.793
322.748
322.705
322.663
322.622
322.582
322.544
322.508
322.474
322.443
322.421
322.978
322.933
322.889
322.845
322.801
322.759
322.717
322.677
322.637
322.6
322.564
322.53
322.498
322.471
322.447
322.979
322.936
322.893
322.851
322.809
322.768
322.728
322.69
322.652
322.616
322.582
322.549
322.52
322.495
322.477
322.979
322.938
322.897
322.857
322.817
322.777
322.739
322.702
322.666
322.631
322.598
322.567
322.539
322.514
322.493
322.98
322.941
322.901
322.862
322.824
322.786
322.749
322.713
322.678
322.645
322.613
322.583
322.556
322.532
322.512
322.981
322.943
322.905
322.867
322.83
322.794
322.758
322.723
322.69
322.657
322.626
322.597
322.57
322.545
322.523
322.982
322.945
322.908
322.872
322.836
322.801
322.767
322.733
322.7
322.669
322.638
322.61
322.582
322.557
322.536
322.982
322.947
322.912
322.877
322.842
322.808
322.775
322.742
322.71
322.679
322.65
322.621
322.594
322.567
322.542
322.983
322.949
322.914
322.881
322.847
322.814
322.782
322.75
322.719
322.689
322.66
322.632
322.604
322.576
322.548
322.983
322.95
322.917
322.885
322.852
322.82
322.789
322.758
322.728
322.699
322.67
322.642
322.614
322.586
322.558
322.984
322.952
322.92
322.888
322.857
322.826
322.796
322.766
322.736
322.708
322.68
322.652
322.624
322.596
322.566
322.984
322.953
322.922
322.892
322.861
322.831
322.802
322.773
322.744
322.716
322.689
322.662
322.634
322.607
322.579
322.985
322.955
322.925
322.895
322.865
322.836
322.807
322.779
322.752
322.724
322.698
322.671
322.645
322.618
322.588
322.985
322.956
322.927
322.898
322.869
322.841
322.813
322.785
322.759
322.732
322.707
322.681
322.656
322.63
322.605
322.986
322.957
322.929
322.9
322.872
322.845
322.818
322.791
322.765
322.74
322.715
322.691
322.667
322.643
322.617
322.986
322.958
322.93
322.903
322.876
322.849
322.823
322.797
322.772
322.747
322.723
322.7
322.678
322.658
322.642
322.986
322.959
322.932
322.905
322.879
322.853
322.827
322.802
322.777
322.754
322.731
322.709
322.689
322.67
322.653
322.987
322.96
322.934
322.907
322.881
322.856
322.831
322.806
322.783
322.76
322.738
322.717
322.697
322.68
322.666
322.987
322.961
322.935
322.909
322.884
322.859
322.834
322.811
322.787
322.765
322.744
322.724
322.705
322.688
322.673
322.987
322.962
322.936
322.911
322.886
322.861
322.837
322.814
322.792
322.77
322.749
322.73
322.711
322.695
322.681
322.987
322.962
322.937
322.912
322.888
322.864
322.84
322.817
322.795
322.774
322.754
322.734
322.716
322.7
322.685
322.988
322.963
322.938
322.913
322.889
322.865
322.842
322.82
322.798
322.777
322.757
322.738
322.721
322.704
322.69
322.988
322.963
322.938
322.914
322.89
322.867
322.844
322.822
322.8
322.78
322.76
322.741
322.724
322.707
322.692
322.988
322.963
322.939
322.915
322.891
322.868
322.845
322.823
322.802
322.782
322.762
322.744
322.726
322.71
322.693
322.988
322.963
322.939
322.915
322.892
322.869
322.846
322.824
322.803
322.783
322.764
322.746
322.728
322.712
322.696
322.988
322.963
322.939
322.915
322.892
322.869
322.846
322.825
322.804
322.784
322.765
322.747
322.73
322.713
322.698
322.988
322.963
322.939
322.915
322.892
322.869
322.846
322.824
322.804
322.784
322.765
322.747
322.73
322.714
322.7
322.988
322.963
322.939
322.915
322.891
322.868
322.845
322.824
322.803
322.783
322.764
322.747
322.73
322.715
322.7
322.988
322.963
322.938
322.914
322.89
322.867
322.844
322.822
322.802
322.782
322.763
322.745
322.729
322.714
322.701
322.987
322.962
322.937
322.913
322.889
322.865
322.842
322.821
322.8
322.78
322.761
322.743
322.727
322.712
322.699
322.987
322.962
322.936
322.911
322.887
322.863
322.84
322.818
322.797
322.777
322.758
322.74
322.724
322.709
322.694
322.987
322.961
322.935
322.909
322.885
322.86
322.837
322.815
322.793
322.773
322.754
322.737
322.72
322.705
322.691
322.987
322.96
322.933
322.907
322.882
322.857
322.833
322.811
322.789
322.769
322.75
322.732
322.715
322.7
322.685
322.986
322.959
322.931
322.905
322.879
322.853
322.829
322.806
322.784
322.763
322.744
322.726
322.71
322.695
322.681
322.986
322.957
322.929
322.902
322.875
322.849
322.824
322.8
322.778
322.757
322.737
322.72
322.703
322.689
322.674
322.985
322.956
322.927
322.898
322.87
322.843
322.818
322.793
322.77
322.749
322.73
322.712
322.696
322.682
322.669
322.985
322.954
322.924
322.894
322.865
322.837
322.811
322.785
322.762
322.74
322.721
322.703
322.688
322.674
322.661
322.984
322.952
322.92
322.89
322.859
322.83
322.803
322.777
322.752
322.73
322.71
322.693
322.678
322.666
322.657
322.983
322.95
322.917
322.884
322.853
322.823
322.794
322.766
322.741
322.718
322.698
322.681
322.666
322.656
322.65
322.982
322.947
322.913
322.879
322.846
322.814
322.783
322.755
322.729
322.705
322.684
322.666
322.652
322.643
322.637
322.981
322.944
322.908
322.872
322.837
322.804
322.772
322.742
322.714
322.689
322.667
322.649
322.635
322.627
322.626
322.98
322.941
322.903
322.865
322.828
322.793
322.759
322.727
322.698
322.671
322.648
322.629
322.614
322.605
322.603
322.979
322.938
322.897
322.857
322.818
322.781
322.745
322.711
322.68
322.651
322.626
322.605
322.589
322.58
322.583
322.978
322.934
322.891
322.848
322.807
322.767
322.729
322.693
322.659
322.629
322.601
322.578
322.559
322.547
322.543
322.977
322.93
322.884
322.839
322.795
322.753
322.712
322.673
322.637
322.604
322.574
322.547
322.524
322.508
322.507
322.975
322.926
322.877
322.829
322.782
322.737
322.693
322.652
322.613
322.577
322.544
322.513
322.485
322.459
322.425
322.974
322.921
322.869
322.818
322.768
322.72
322.673
322.629
322.587
322.548
322.512
322.478
322.445
322.414
322.383
322.972
322.916
322.86
322.806
322.753
322.701
322.652
322.604
322.56
322.518
322.478
322.441
322.405
322.369
322.326
322.97
322.91
322.851
322.793
322.736
322.681
322.628
322.578
322.53
322.486
322.443
322.403
322.365
322.327
322.292
322.968
322.904
322.841
322.779
322.718
322.66
322.603
322.55
322.499
322.451
322.407
322.365
322.325
322.285
322.24
322.966
322.898
322.83
322.764
322.699
322.637
322.576
322.519
322.465
322.415
322.368
322.325
322.284
322.245
322.209
322.963
322.891
322.819
322.748
322.679
322.612
322.548
322.487
322.429
322.376
322.328
322.283
322.242
322.204
322.162
322.961
322.883
322.806
322.731
322.657
322.585
322.516
322.451
322.391
322.335
322.284
322.238
322.199
322.164
322.136
322.958
322.875
322.793
322.712
322.633
322.556
322.483
322.413
322.348
322.289
322.236
322.19
322.151
322.12
322.103
322.956
322.867
322.779
322.692
322.607
322.525
322.446
322.372
322.303
322.24
322.184
322.137
322.099
322.066
322.027
322.953
322.858
322.764
322.671
322.58
322.492
322.407
322.327
322.252
322.185
322.126
322.078
322.042
322.016
321.994
322.949
322.848
322.748
322.649
322.551
322.456
322.365
322.278
322.197
322.123
322.06
322.011
321.978
321.965
321.97
322.946
322.838
322.731
322.625
322.52
322.418
322.319
322.225
322.136
322.055
321.985
321.932
321.9
321.9
321.94
322.943
322.828
322.713
322.6
322.488
322.378
322.271
322.168
322.069
321.979
321.9
321.837
321.801
321.808
321.888
322.939
322.817
322.695
322.574
322.454
322.336
322.22
322.107
321.998
321.895
321.802
321.724
321.671
321.665
321.767
289.164
288.096
287.394
286.859
286.411
286.014
285.648
285.303
284.973
284.655
284.344
284.04
283.74
283.443
283.147
288.787
287.753
287.13
286.654
286.247
285.879
285.536
285.21
284.896
284.592
284.294
284.002
283.713
283.427
283.142
287.298
287.123
286.765
286.401
286.055
285.726
285.412
285.108
284.813
284.524
284.241
283.961
283.685
283.41
283.137
286.713
286.62
286.404
286.136
285.851
285.564
285.28
285
284.725
284.453
284.185
283.919
283.655
283.392
283.131
286.159
286.203
286.08
285.882
285.649
285.4
285.146
284.89
284.634
284.38
284.127
283.875
283.624
283.374
283.125
285.908
285.902
285.809
285.652
285.457
285.24
285.012
284.779
284.543
284.305
284.068
283.83
283.593
283.355
283.118
285.647
285.661
285.583
285.449
285.279
285.088
284.883
284.67
284.452
284.231
284.009
283.785
283.561
283.337
283.112
285.53
285.483
285.395
285.27
285.117
284.945
284.759
284.565
284.363
284.158
283.95
283.741
283.53
283.318
283.106
285.437
285.335
285.232
285.11
284.969
284.812
284.642
284.463
284.278
284.087
283.893
283.697
283.499
283.3
283.1
285.277
285.188
285.082
284.964
284.832
284.687
284.531
284.367
284.195
284.019
283.838
283.655
283.469
283.282
283.094
285.172
285.051
284.942
284.827
284.703
284.57
284.426
284.275
284.117
283.953
283.785
283.614
283.44
283.265
283.088
285.001
284.908
284.805
284.697
284.582
284.459
284.327
284.188
284.042
283.89
283.734
283.574
283.412
283.248
283.083
284.889
284.771
284.671
284.571
284.466
284.354
284.233
284.105
283.971
283.83
283.685
283.537
283.385
283.232
283.077
284.7
284.621
284.537
284.45
284.356
284.254
284.145
284.027
283.903
283.774
283.639
283.501
283.36
283.217
283.072
284.563
284.473
284.405
284.333
284.251
284.161
284.061
283.954
283.84
283.72
283.596
283.467
283.336
283.202
283.068
284.297
284.311
284.277
284.222
284.153
284.073
283.984
283.886
283.781
283.671
283.555
283.436
283.313
283.189
283.063
284.177
284.183
284.162
284.12
284.062
283.992
283.911
283.822
283.726
283.624
283.517
283.406
283.292
283.176
283.059
284.046
284.073
284.063
284.03
283.98
283.918
283.845
283.764
283.675
283.581
283.482
283.379
283.272
283.164
283.055
283.981
283.989
283.979
283.951
283.907
283.851
283.785
283.71
283.629
283.541
283.449
283.353
283.254
283.153
283.051
283.903
283.918
283.909
283.883
283.843
283.791
283.731
283.662
283.586
283.505
283.419
283.33
283.237
283.143
283.048
283.863
283.863
283.85
283.824
283.786
283.738
283.682
283.617
283.547
283.471
283.391
283.308
283.222
283.134
283.045
283.818
283.817
283.801
283.774
283.737
283.691
283.638
283.578
283.512
283.441
283.366
283.288
283.208
283.125
283.042
283.796
283.781
283.76
283.731
283.694
283.649
283.599
283.542
283.48
283.414
283.344
283.27
283.195
283.118
283.039
283.778
283.751
283.724
283.692
283.655
283.612
283.564
283.51
283.451
283.389
283.323
283.254
283.183
283.11
283.037
283.746
283.72
283.691
283.658
283.621
283.579
283.532
283.481
283.426
283.367
283.304
283.239
283.172
283.104
283.035
283.725
283.692
283.661
283.627
283.59
283.549
283.504
283.455
283.402
283.346
283.287
283.226
283.163
283.098
283.033
283.692
283.663
283.632
283.598
283.562
283.522
283.479
283.432
283.381
283.328
283.272
283.214
283.154
283.093
283.031
283.67
283.636
283.604
283.571
283.536
283.497
283.456
283.411
283.363
283.312
283.259
283.203
283.146
283.088
283.029
283.635
283.607
283.578
283.546
283.512
283.475
283.435
283.392
283.346
283.297
283.246
283.194
283.139
283.084
283.028
283.61
283.58
283.552
283.523
283.49
283.455
283.416
283.375
283.331
283.284
283.235
283.185
283.133
283.08
283.027
283.563
283.551
283.528
283.501
283.471
283.437
283.399
283.36
283.317
283.272
283.226
283.177
283.128
283.077
283.026
283.543
283.528
283.508
283.483
283.453
283.421
283.385
283.346
283.305
283.262
283.217
283.17
283.123
283.074
283.025
283.522
283.51
283.491
283.467
283.438
283.407
283.372
283.335
283.295
283.253
283.21
283.165
283.118
283.071
283.024
283.513
283.497
283.477
283.453
283.426
283.395
283.361
283.325
283.286
283.245
283.203
283.159
283.115
283.069
283.023
283.503
283.487
283.467
283.443
283.415
283.385
283.352
283.316
283.278
283.239
283.198
283.155
283.112
283.067
283.022
283.498
283.48
283.459
283.434
283.407
283.377
283.344
283.309
283.272
283.233
283.193
283.151
283.109
283.066
283.022
283.494
283.475