/*--------------------------------*- C++ -*----------------------------------*\
| =========                 |                                                 |
| \\      /  F ield         | OpenFOAM: The Open Source CFD Toolbox           |
|  \\    /   O peration     | Version:  5.x                                   |
|   \\  /    A nd           | Web:      www.OpenFOAM.org                      |
|    \\/     M anipulation  |                                                 |
\*---------------------------------------------------------------------------*/
FoamFile
{
    version     2.0;
    format      ascii;
    class       volScalarField;
    location    "5.1";
    object      gradTx;
}
// * * * * * * * * * * * * * * * * * * * * * * * * * * * * * * * * * * * * * //

dimensions      [0 -1 0 1 0 0 0];

internalField   nonuniform List<scalar> 
2048
(
0.00630438
0.018733
0.0306368
0.0417176
0.0517467
0.0605746
0.0681311
0.0744138
0.0794726
0.0833902
0.0862666
0.0882059
0.0893102
0.0896764
0.0893968
0.0885606
0.0872547
0.0855625
0.0835619
0.0813212
0.0788964
0.0763279
0.0736408
0.0708451
0.0679385
0.064909
0.0617369
0.0583968
0.0548578
0.0510839
0.0470348
0.042667
0.0379353
0.032795
0.0272043
0.0211256
0.0145267
0.00738134
-0.000329931
-0.00861882
-0.0174868
-0.0269217
-0.036892
-0.0473404
-0.0581752
-0.0692618
-0.0804129
-0.0913815
-0.101856
-0.111465
-0.119783
-0.12636
-0.130754
-0.132571
-0.131513
-0.127417
-0.120278
-0.110248
-0.0976161
-0.0827655
-0.0661299
-0.0481504
-0.029247
-0.0098074
0.0187868
0.055814
0.0912511
0.124198
0.15397
0.180126
0.202467
0.221
0.235886
0.247385
0.255802
0.261451
0.264635
0.265641
0.264741
0.262197
0.258268
0.253201
0.24723
0.24056
0.233357
0.225744
0.217792
0.209529
0.200946
0.192006
0.18265
0.172801
0.162368
0.151245
0.139311
0.126436
0.112485
0.0973233
0.0808268
0.0628831
0.0433967
0.0222894
-0.000497549
-0.0250004
-0.0512269
-0.0791449
-0.108667
-0.139631
-0.171773
-0.204703
-0.237873
-0.270556
-0.301831
-0.330586
-0.355549
-0.375362
-0.388676
-0.394292
-0.391299
-0.379195
-0.357964
-0.328076
-0.290414
-0.246153
-0.196609
-0.14311
-0.0869053
-0.0291382
0.0311375
0.0924767
0.151097
0.205474
0.254458
0.297336
0.333808
0.363932
0.388021
0.406539
0.420016
0.428983
0.43394
0.435353
0.43366
0.429288
0.422661
0.414191
0.404268
0.393236
0.381374
0.368881
0.355873
0.342389
0.328407
0.31386
0.298647
0.282644
0.2657
0.247639
0.228264
0.207356
0.184689
0.160039
0.133199
0.103982
0.0722302
0.037816
0.000640187
-0.0393619
-0.0822118
-0.127871
-0.176213
-0.226994
-0.279808
-0.334039
-0.388815
-0.442961
-0.494967
-0.542991
-0.584901
-0.618388
-0.64114
-0.65108
-0.646615
-0.626866
-0.591805
-0.542256
-0.479772
-0.406391
-0.324374
-0.235962
-0.143224
-0.0480091
0.0435962
0.129417
0.211262
0.286923
0.354776
0.413848
0.463796
0.504788
0.537354
0.562219
0.580168
0.591962
0.598292
0.599789
0.597043
0.590632
0.58114
0.569146
0.555205
0.539809
0.523354
0.506116
0.488245
0.469783
0.450684
0.430844
0.410119
0.388334
0.365284
0.340727
0.314387
0.285954
0.255107
0.221529
0.184924
0.145036
0.101645
0.0545737
0.00368319
-0.0511254
-0.109899
-0.172609
-0.239118
-0.309131
-0.382136
-0.457341
-0.533591
-0.609305
-0.682412
-0.750336
-0.810049
-0.85821
-0.891426
-0.9066
-0.901336
-0.874297
-0.825438
-0.756018
-0.668384
-0.565595
-0.450975
-0.327746
-0.198793
-0.0666105
0.0563786
0.167258
0.272706
0.36975
0.456259
0.531037
0.593763
0.644814
0.685028
0.715463
0.737209
0.751267
0.758513
0.759718
0.755599
0.746869
0.734269
0.718555
0.700461
0.680643
0.659621
0.637748
0.615201
0.592008
0.568083
0.543273
0.517386
0.490202
0.461466
0.430873
0.398066
0.362642
0.324173
0.282243
0.236465
0.18651
0.132101
0.0730146
0.00907146
-0.0598666
-0.133885
-0.212988
-0.297056
-0.385782
-0.4786
-0.574589
-0.672375
-0.770023
-0.864936
-0.953808
-1.03266
-1.097
-1.14218
-1.16387
-1.15869
-1.12471
-1.06186
-0.97195
-0.858334
-0.725319
-0.577485
-0.419135
-0.253975
-0.0850557
0.0696895
0.206585
0.336322
0.455047
0.560089
0.650071
0.724797
0.784983
0.831898
0.867032
0.891829
0.907546
0.915221
0.915732
0.909886
0.898511
0.882502
0.862806
0.840362
0.816012
0.79042
0.764012
0.73698
0.709311
0.680859
0.651407
0.620712
0.588514
0.554516
0.518358
0.479601
0.437736
0.392222
0.342526
0.288169
0.228746
0.16393
0.0934583
0.0171133
-0.0652871
-0.15388
-0.248729
-0.349765
-0.456715
-0.56901
-0.685669
-0.805171
-0.925294
-1.04297
-1.15418
-1.25392
-1.33642
-1.39554
-1.42544
-1.42144
-1.38086
-1.30359
-1.19215
-1.0512
-0.886628
-0.704544
-0.510467
-0.308917
-0.103385
0.0837332
0.24798
0.40298
0.543851
0.667344
0.771967
0.857792
0.92604
0.978576
1.01744
1.04449
1.06124
1.06887
1.06828
1.06035
1.04597
1.0262
1.0022
0.975152
0.946119
0.915929
0.885086
0.853769
0.821898
0.789232
0.75547
0.720315
0.683478
0.644638
0.603391
0.559213
0.511477
0.459507
0.402639
0.340291
0.271987
0.197359
0.116115
0.0280062
-0.0671948
-0.169693
-0.279635
-0.397041
-0.521719
-0.653157
-0.790389
-0.931829
-1.07507
-1.21664
-1.35185
-1.47463
-1.57775
-1.65328
-1.6935
-1.69205
-1.64523
-1.55283
-1.41832
-1.24812
-1.05015
-0.832389
-0.601758
-0.363564
-0.121567
0.098721
0.292039
0.473555
0.637175
0.779034
0.897623
0.99347
1.06853
1.12545
1.16698
1.19545
1.21263
1.21976
1.21772
1.20735
1.18959
1.16566
1.13698
1.10501
1.0711
1.03627
1.00109
0.965718
0.929945
0.893395
0.855657
0.816376
0.775257
0.731984
0.686123
0.637064
0.584042
0.526217
0.462774
0.393014
0.316397
0.232526
0.1411
0.0418532
-0.0654896
-0.181214
-0.305578
-0.438731
-0.580611
-0.730822
-0.888493
-1.05208
-1.2191
-1.3858
-1.54688
-1.69519
-1.82186
-1.91683
-1.96998
-1.97277
-1.92007
-1.81152
-1.65188
-1.44986
-1.21608
-0.96087
-0.692713
-0.417661
-0.139505
0.114879
0.339392
0.548957
0.736041
0.89613
1.02784
1.13241
1.2128
1.27272
1.31575
1.3448
1.36185
1.3681
1.36431
1.35118
1.32966
1.30113
1.26731
1.23004
1.19101
1.15149
1.11212
1.07295
1.03361
0.993528
0.952144
0.90905
0.863975
0.816655
0.766652
0.713264
0.655559
0.592494
0.523073
0.446465
0.362072
0.269496
0.168453
0.0586752
-0.0601517
-0.18841
-0.3265
-0.47474
-0.633242
-0.801791
-0.979692
-1.16555
-1.35696
-1.55006
-1.73903
-1.91567
-2.06931
-2.18735
-2.25664
-2.26576
-2.20759
-2.0815
-1.89395
-1.65682
-1.38424
-1.08946
-0.78274
-0.470766
-0.157036
0.132453
0.39072
0.630152
0.841502
1.01958
1.16334
1.27505
1.35904
1.42036
1.46367
1.49248
1.50891
1.51402
1.50827
1.49211
1.46645
1.43281
1.39333
1.35031
1.30589
1.26161
1.2182
1.17556
1.13304
1.08981
1.0451
0.998471
0.949722
0.898708
0.845027
0.787877
0.726114
0.658445
0.583641
0.500727
0.40906
0.308275
0.198141
0.0784217
-0.0512325
-0.191315
-0.342402
-0.505022
-0.679508
-0.865875
-1.06368
-1.27182
-1.48812
-1.7088
-1.92776
-2.13582
-2.32035
-2.46575
-2.55511
-2.57316
-2.51
-2.36453
-2.1455
-1.86906
-1.55403
-1.21724
-0.870957
-0.522258
-0.17394
0.151715
0.446772
0.718181
0.954654
1.15033
1.30476
1.42171
1.50727
1.56822
1.61049
1.63827
1.65372
1.65756
1.64978
1.6304
1.60019
1.5609
1.51515
1.46584
1.41569
1.3666
1.31936
1.27363
1.2284
1.18242
1.13471
1.08476
1.03256
0.978159
0.921259
0.860934
0.795769
0.724149
0.64456
0.555853
0.457365
0.348814
0.230076
0.100979
-0.0388466
-0.190023
-0.353344
-0.529591
-0.719357
-0.922924
-1.14018
-1.37042
-1.61191
-1.86123
-2.11226
-2.35503
-2.57488
-2.75269
-2.86689
-2.89713
-2.82963
-2.66239
-2.40726
-2.0863
-1.72444
-1.34296
-0.956208
-0.571359
-0.189944
0.172968
0.50837
0.814173
1.07666
1.2893
1.45268
1.57256
1.65734
1.71592
1.7558
1.78184
1.79613
1.79877
1.78901
1.76631
1.73115
1.68558
1.63284
1.57661
1.52033
1.46637
1.41558
1.36725
1.31983
1.27157
1.22116
1.16805
1.11251
1.05498
0.995314
0.932432
0.864561
0.789675
0.705898
0.611875
0.506961
0.391027
0.264118
0.126178
-0.0231634
-0.18468
-0.359435
-0.548514
-0.752795
-0.972849
-1.20894
-1.4609
-1.72765
-2.00642
-2.2915
-2.57242
-2.83248
-3.04861
-3.19343
-3.24
-3.16901
-2.97694
-2.67985
-2.30787
-1.89402
-1.46495
-1.03709
-0.617151
-0.204732
0.19655
0.57643
0.919364
1.20873
1.43742
1.60758
1.72767
1.80895
1.86294
1.89902
1.92278
1.93592
1.93762
1.92617
1.90013
1.85961
1.80702
1.74645
1.68255
1.61967
1.56081
1.50682
1.4565
1.40752
1.35749
1.30465
1.24844
1.18958
1.12911
1.06713
1.00235
0.932514
0.855085
0.767723
0.668816
0.557795
0.434787
0.300083
0.153801
-0.00440055
-0.175478
-0.360829
-0.561909
-0.779893
-1.01563
-1.26979
-1.54285
-1.8346
-2.14332
-2.46418
-2.78674
-3.09242
-3.35364
-3.53607
-3.60423
-3.53099
-3.31021
-2.96368
-2.5327
-2.0609
-1.58124
-1.11198
-0.658617
-0.217961
0.222843
0.651962
1.0351
1.3522
1.59562
1.76987
1.88697
1.96165
2.00859
2.03946
2.06055
2.07283
2.07412
2.06145
2.03218
1.98585
1.92541
1.85605
1.78357
1.71352
1.64973
1.59304
1.54147
1.49167
1.44045
1.38545
1.32607
1.26374
1.20042
1.13659
1.07063
0.999643
0.920444
0.830107
0.726692
0.609796
0.479941
0.337748
0.183588
0.0171829
-0.16264
-0.357714
-0.569937
-0.800785
-1.05133
-1.32264
-1.61593
-1.93208
-2.27079
-2.62882
-2.99647
-3.35355
-3.6676
-3.89605
-3.99252
-3.91885
-3.66448
-3.25897
-2.75924
-2.2227
-1.68951
-1.1791
-0.694676
-0.229273
0.252273
0.736084
1.16285
1.50843
1.76478
1.93984
2.05027
2.11484
2.15203
2.1763
2.19458
2.20659
2.20827
2.1951
2.16288
2.11023
2.04093
1.96165
1.87955
1.80166
1.73293
1.67417
1.62227
1.57251
1.52075
1.46385
1.40106
1.33491
1.26874
1.20356
1.13723
1.06596
0.985825
0.893146
0.785523
0.662873
0.52631
0.376862
0.215238
0.0412926
-0.14642
-0.350301
-0.572798
-0.815668
-1.0801
-1.36749
-1.6799
-2.01946
-2.38769
-2.78378
-3.19976
-3.61439
-3.98997
-4.2744
-4.40783
-4.33649
-4.04233
-3.56571
-2.98539
-2.37657
-1.78714
-1.23656
-0.724242
-0.238317
0.285321
0.830018
1.30421
1.67894
1.94576
2.11766
2.21728
2.2678
2.29226
2.30856
2.32423
2.33694
2.34006
2.32741
2.29269
2.23311
2.15375
2.0633
1.97033
1.88377
1.81013
1.75013
1.69902
1.65029
1.59875
1.54022
1.47357
1.40298
1.33385
1.26787
1.20209
1.13147
1.05131
0.956961
0.845333
0.71692
0.573698
0.417144
0.248418
0.0676039
-0.127087
-0.338809
-0.570716
-0.824803
-1.10218
-1.40446
-1.73464
-2.09625
-2.49288
-2.92726
-3.39447
-3.87306
-4.3198
-4.67192
-4.8534
-4.78855
-4.44681
-3.88355
-3.2084
-2.51911
-1.87132
-1.28246
-0.746273
-0.24477
0.322539
0.935091
1.4609
1.86533
2.13935
2.30334
2.38759
2.41971
2.42812
2.43516
2.44885
2.46366
2.46951
2.4587
2.42219
2.3549
2.26403
2.16106
2.05576
1.9595
1.881
1.82084
1.7719
1.72527
1.67486
1.61501
1.54376
1.46775
1.39542
1.32933
1.26516
1.19618
1.117
1.02172
0.906158
0.771804
0.621896
0.458297
0.28276
0.0957653
-0.104915
-0.323455
-0.563928
-0.8285
-1.11792
-1.43379
-1.7802
-2.1621
-2.58532
-3.05737
-3.5782
-4.12731
-4.65566
-5.08895
-5.33274
-5.28072
-4.8815
-4.21169
-3.4247
-2.64645
-1.93908
-1.31497
-0.75984
-0.248353
0.364563
1.05272
1.63474
2.06934
2.34623
2.49666
2.56076
2.56967
2.5583
2.55492
2.5678
2.58661
2.59658
2.58933
2.55213
2.47601
2.37189
2.25499
2.13566
2.02841
1.94515
1.88623
1.84114
1.79772
1.74951
1.68877
1.61182
1.52895
1.45308
1.38773
1.32642
1.26007
1.18301
1.08766
0.968037
0.827364
0.670694
0.500011
0.317867
0.125402
-0.0801807
-0.304435
-0.552672
-0.827123
-1.12773
-1.45579
-1.81676
-2.2169
-2.66405
-3.17214
-3.74831
-4.37454
-4.99563
-5.52522
-5.84962
-5.82001
-5.35069
-4.54865
-3.62982
-2.75421
-1.9874
-1.33241
-0.764184
-0.248858
0.41216
1.18441
1.82764
2.29296
2.56692
2.69713
2.73634
2.71673
2.68134
2.6665
2.68046
2.70578
2.72121
2.71966
2.68341
2.5969
2.47733
2.34526
2.20989
2.08996
2.00209
1.94627
1.90705
1.86788
1.82315
1.76225
1.67797
1.58622
1.5063
1.44284
1.38592
1.3231
1.24944
1.1551
1.03102
0.883386
0.71989
0.541973
0.353305
0.156114
-0.0531516
-0.281911
-0.537168
-0.821076
-1.13215
-1.47088
-1.84463
-2.26081
-2.72832
-3.26958
-3.90193
-4.61189
-5.33729
-5.9795
-6.40791
-6.41523
-5.85953
-4.89198
-3.81816
-2.83757
-2.01339
-1.3334
-0.758772
-0.246156
0.466289
1.33167
2.04151
2.53843
2.80174
2.90389
2.91397
2.85996
2.7956
2.76844
2.78633
2.82137
2.84319
2.85004
2.81726
2.71797
2.58023
2.43213
2.27831
2.14351
2.05124
2.00094
1.97006
1.93588
1.89625
1.83638
1.74247
1.63903
1.55448
1.49445
1.44379
1.38516
1.31638
1.22451
1.09513
0.939581
0.76932
0.583877
0.388602
0.18748
-0.024081
-0.255989
-0.517605
-0.810802
-1.13181
-1.47952
-1.86426
-2.29431
-2.77759
-3.3477
-4.036
-4.8363
-5.67775
-6.44927
-7.01141
-7.07752
-6.41421
-5.23787
-3.98284
-2.89143
-2.01441
-1.31693
-0.743342
-0.240215
0.528214
1.49602
2.27823
2.80849
3.05065
3.11552
3.09351
2.9985
2.89923
2.85911
2.88496
2.9339
2.9621
2.9807
2.95531
2.83955
2.6802
2.51606
2.34087
2.18829
2.0919
2.05028
2.03082
2.00174
1.96921
1.91242
1.80558
1.68668
1.59685
1.54239
1.50034
1.44605
1.38388
1.29656
1.16041
0.995541
0.818883
0.625436
0.42324
0.219053
0.00679534
-0.226709
-0.494122
-0.796772
-1.12744
-1.48218
-1.87619
-2.31829
-2.81157
-3.40453
-4.14727
-5.04468
-6.0139
-6.93016
-7.66352
-7.82114
-7.0222
-5.58054
-4.11557
-2.91051
-1.98823
-1.28245
-0.717932
-0.231102
0.599687
1.67884
2.53944
3.10657
3.31319
3.3299
3.27529
3.13156
2.99015
2.93669
2.97609
3.04438
3.07713
3.11173
3.09982
2.96185
2.77645
2.59786
2.39757
2.22335
2.1232
2.09441
2.09025
2.06519
2.04234
1.99205
1.8676
1.72823
1.63247
1.58652
1.55611
1.50537
1.4519
1.37221
1.22679
1.05068
0.868598
0.666386
0.456638
0.250361
0.0392595
-0.194021
-0.466793
-0.779482
-1.11993
-1.47929
-1.88095
-2.33415
-2.83029
-3.43816
-4.23229
-5.23402
-6.34266
-7.41531
-8.36671
-8.66451
-7.69247
-5.91144
-4.20657
-2.88966
-1.93326
-1.22994
-0.682892
-0.218982
0.683236
1.8813
2.82632
3.43721
3.58827
3.54393
3.46039
3.25851
3.06597
2.99914
3.05959
3.15452
3.18689
3.2429
3.25395
3.08478
2.86764
2.67881
2.44849
2.2475
2.14411
2.13348
2.14972
2.1256
2.11573
2.07757
1.9288
1.76244
1.66023
1.62676
1.61201
1.56243
1.52027
1.45286
1.29416
1.10417
0.918684
0.706497
0.488137
0.28091
0.0731084
-0.157769
-0.435612
-0.759439
-1.11036
-1.47118
-1.87898
-2.34389
-2.83406
-3.44677
-4.28734
-5.40155
-6.6616
-7.89457
-9.12179
-9.63155
-8.43571
-6.21825
-4.24453
-2.82413
-1.8487
-1.15997
-0.638873
-0.204111
0.782601
2.10417
3.1393
3.80655
3.8739
3.75313
3.65107
3.37882
3.12395
3.04414
3.13544
3.26707
3.28912
3.37354
3.42218
3.20789
2.95157
2.76103
2.49379
2.25932
2.15338
2.16774
2.21126
2.18171
2.18919
2.17215
1.98936
1.78774
1.67883
1.66307
1.66949
1.61614
1.58857
1.54054
1.36219
1.1548
0.969666
0.745567
0.51697
0.31019
0.108145
-0.117672
-0.400478
-0.737139
-1.10007
-1.458
-1.87049
-2.35028
-2.8235
-3.42866
-4.30835
-5.5449
-6.96972
-8.35354
-9.92681
-10.7535
-9.26457
-6.48345
-4.21685
-2.71002
-1.73469
-1.07367
-0.586796
-0.186822
0.903375
2.34758
3.4775
4.22316
4.16694
3.95121
3.8514
3.49202
3.16087
3.06909
3.20372
3.38629
3.38029
3.50224
3.61084
3.33006
3.02486
2.84775
2.53365
2.25703
2.14952
2.19742
2.27784
2.23145
2.26203
2.28011
2.04926
1.80212
1.68677
1.69545
1.73077
1.66478
1.65604
1.63817
1.43032
1.20086
1.02254
0.783403
0.542234
0.33769
0.144163
-0.0733028
-0.361186
-0.713037
-1.09076
-1.43962
-1.85526
-2.35708
-2.79945
-3.38231
-4.29071
-5.66207
-7.2687
-8.7724
-10.7755
-12.0712
-10.1938
-6.68265
-4.11005
-2.5447
-1.59243
-0.972736
-0.527809
-0.167505
1.05391
2.61073
3.83806
4.69909
4.46259
4.12941
4.06806
3.59754
3.17304
3.07105
3.26438
3.51854
3.4551
3.62661
3.8289
3.44923
3.08257
2.94394
2.56815
2.23849
2.13081
2.22265
2.35377
2.27157
2.33289
2.40742
2.10811
1.80314
1.68237
1.72383
1.79917
1.70575
1.72144
1.74989
1.49756
1.23996
1.07897
0.819779
0.562851
0.362921
0.180921
-0.0240661
-0.317428
-0.687489
-1.08464
-1.41559
-1.83236
-2.36934
-2.76287
-3.30651
-4.22907
-5.75138
-7.56455
-9.12465
-11.6556
-13.6381
-11.2404
-6.7824
-3.91053
-2.32734
-1.42423
-0.859318
-0.463219
-0.146587
1.24658
2.8915
4.21524
5.25123
4.75387
4.2758
4.31142
3.69438
3.15616
3.04681
3.31702
3.67308
3.50586
3.74282
4.08888
3.56205
3.1176
3.05688
2.59705
2.20114
2.09527
2.24331
2.44523
2.29725
2.39949
2.56222
2.16489
1.78783
1.66381
1.74798
1.8795
1.73529
1.78286
1.88155
1.56233
1.26881
1.14163
0.854363
0.577525
0.385463
0.218103
0.0308306
-0.268802
-0.660663
-1.08464
-1.38503
-1.79984
-2.39373
-2.71462
-3.20052
-4.11711
-5.81105
-7.86984
-9.37567
-12.5456
-15.5237
-12.4233
-6.73756
-3.6058
-2.05936
-1.23349
-0.735936
-0.394428
-0.12451
1.49938
3.18596
4.5992
5.90319
5.03085
4.37427
4.59691
3.7806
3.10534
2.99295
3.36042
3.86318
3.52172
3.84513
4.40806
3.66327
3.12007
3.19715
2.61953
2.14198
2.04076
2.2587
2.56098
2.30158
2.45828
2.75552
2.21755
1.75272
1.62924
1.76725
1.9786
1.74802
1.83746
2.04125
1.62218
1.28295
1.21448
0.88659
0.5847
0.405021
0.255268
0.0924102
-0.214847
-0.632414
-1.09464
-1.34655
-1.75426
-2.43914
-2.65513
-3.06435
-3.94719
-5.83863
-8.20649
-9.48117
-13.4122
-17.8183
-13.7635
-6.48818
-3.18622
-1.74483
-1.02455
-0.605332
-0.322858
-0.101708
1.83813
3.48775
4.97446
6.68752
5.27976
4.40344
4.94672
3.85262
3.01514
2.90597
3.39192
4.10739
3.48773
3.92526
4.80996
3.74515
3.07657
3.37969
2.63363
2.05759
1.96504
2.26719
2.7132
2.27495
2.50411
3.00212
2.2625
1.69391
1.57684
1.78025
2.10604
1.73654
1.88121
2.24
1.67352
1.27646
1.30332
0.915485
0.582524
0.421511
0.291776
0.161972
-0.155096
-0.602099
-1.11974
-1.29823
-1.69018
-2.51722
-2.58396
-2.89912
-3.71014
-5.82977
-8.60923
-9.38566
-14.2058
-20.6381
-15.2833
-5.95595
-2.64745
-1.39075
-0.802489
-0.470331
-0.249883
-0.0785928
2.29906
3.78736
5.31802
7.64851
5.48186
4.33537
5.39194
3.90414
2.87963
2.78255
3.40652
4.43119
3.38376
3.97165
5.32609
3.79667
2.96928
3.62517
2.63561
1.9442
1.86595
2.26558
2.91854
2.20436
2.52976
3.32161
2.29392
1.60714
1.50507
1.7844
2.27491
1.69081
1.90858
2.49262
1.71115
1.24158
1.41632
0.939407
0.568817
0.435165
0.326693
0.241152
-0.0891732
-0.568336
-1.16668
-1.2376
-1.59949
-2.64329
-2.49911
-2.70758
-3.39498
-5.77669
-9.12977
-9.02095
-14.8557
-24.1315
-17.0051
-5.04009
-1.99351
-1.00697
-0.572824
-0.333682
-0.176777
-0.0555347
2.93209
4.07128
5.59715
8.84547
5.61201
4.13408
5.97501
3.92477
2.69272
2.61994
3.39571
4.86893
3.18322
3.96863
5.99794
3.80253
2.77499
3.96164
2.61907
1.79786
1.74165
2.24838
3.19942
2.0726
2.52545
3.73961
2.30289
1.48803
1.41285
1.77532
2.50283
1.5975
1.9121
2.8186
1.72785
1.1684
1.56467
0.955713
0.541059
0.446666
0.358665
0.332002
-0.016932
-0.528683
-1.24416
-1.16163
-1.47061
-2.83728
-2.39617
-2.49482
-2.98885
-5.66588
-9.84157
-8.30474
-15.2644
-28.4861
-18.9507
-3.61291
-1.24083
-0.605813
-0.341147
-0.197924
-0.104663
-0.0328559
3.80456
4.32099
5.76673
10.3565
5.63718
3.75398
6.75258
3.89826
2.44844
2.41644
3.34591
5.4661
2.85174
3.89541
6.87925
3.74212
2.46401
4.42637
2.57376
1.61467
1.59097
2.20681
3.58548
1.85729
2.47829
4.28919
2.27632
1.33231
1.29994
1.74601
2.81309
1.43931
1.88201
3.24324
1.71378
1.04439
1.76336
0.960328
0.496413
0.457305
0.385774
0.437099
0.0613549
-0.479248
-1.36338
-1.06685
-1.28758
-3.125
-2.26723
-2.26901
-2.47708
-5.4752
-10.8452
-7.13952
-15.3012
-33.9369
-21.1393
-1.51516
-0.422853
-0.201267
-0.112737
-0.0652799
-0.0344907
-0.0108238
)
;

boundaryField
{
    left
    {
        type            calculated;
        value           uniform 0;
    }
    right
    {
        type            calculated;
        value           uniform 0;
    }
    interface
    {
        type            calculated;
        value           nonuniform List<scalar> 
64
(
3.80456
4.32099
5.76673
10.3565
5.63718
3.75398
6.75258
3.89826
2.44844
2.41644
3.34591
5.4661
2.85174
3.89541
6.87925
3.74212
2.46401
4.42637
2.57376
1.61467
1.59097
2.20681
3.58548
1.85729
2.47829
4.28919
2.27632
1.33231
1.29994
1.74601
2.81309
1.43931
1.88201
3.24324
1.71378
1.04439
1.76336
0.960328
0.496413
0.457305
0.385774
0.437099
0.0613549
-0.479248
-1.36338
-1.06685
-1.28758
-3.125
-2.26723
-2.26901
-2.47708
-5.4752
-10.8452
-7.13952
-15.3012
-33.9369
-21.1393
-1.51516
-0.422853
-0.201267
-0.112737
-0.0652799
-0.0344907
-0.0108238
)
;
    }
    bottom
    {
        type            calculated;
        value           nonuniform List<scalar> 
64
(
0.00630438
0.018733
0.0306368
0.0417176
0.0517467
0.0605746
0.0681311
0.0744138
0.0794726
0.0833902
0.0862666
0.0882059
0.0893102
0.0896764
0.0893968
0.0885606
0.0872547
0.0855625
0.0835619
0.0813212
0.0788964
0.0763279
0.0736408
0.0708451
0.0679385
0.064909
0.0617369
0.0583968
0.0548578
0.0510839
0.0470348
0.042667
0.0379353
0.032795
0.0272043
0.0211256
0.0145267
0.00738134
-0.000329931
-0.00861882
-0.0174868
-0.0269217
-0.036892
-0.0473404
-0.0581752
-0.0692618
-0.0804129
-0.0913815
-0.101856
-0.111465
-0.119783
-0.12636
-0.130754
-0.132571
-0.131513
-0.127417
-0.120278
-0.110248
-0.0976161
-0.0827655
-0.0661299
-0.0481504
-0.029247
-0.0098074
)
;
    }
    defaultFaces
    {
        type            empty;
    }
}


// ************************************************************************* //
