/*--------------------------------*- C++ -*----------------------------------*\
| =========                 |                                                 |
| \\      /  F ield         | OpenFOAM: The Open Source CFD Toolbox           |
|  \\    /   O peration     | Version:  5.x                                   |
|   \\  /    A nd           | Web:      www.OpenFOAM.org                      |
|    \\/     M anipulation  |                                                 |
\*---------------------------------------------------------------------------*/
FoamFile
{
    version     2.0;
    format      ascii;
    class       volScalarField;
    location    "4.2";
    object      gradTy;
}
// * * * * * * * * * * * * * * * * * * * * * * * * * * * * * * * * * * * * * //

dimensions      [0 -1 0 1 0 0 0];

internalField   nonuniform List<scalar> 
6300
(
32284.7
32254
32223.3
32192.4
32161.2
32129.7
32097.9
32065.6
32032.8
31999.6
31965.7
31931.3
31896.3
31860.7
31824.5
0.052888
0.158167
0.261931
0.363066
0.460304
0.552177
0.63701
0.712928
0.777927
0.829995
0.867293
0.888403
0.892601
0.880137
0.852413
0.0886795
0.265254
0.439417
0.609373
0.773049
0.928021
1.07147
1.20021
1.31076
1.39955
1.46327
1.49923
1.50593
1.48358
1.4345
0.125258
0.374759
0.621125
0.861977
1.09452
1.31541
1.52068
1.70571
1.86537
1.99424
2.08705
2.13936
2.14836
2.11381
2.03883
0.162854
0.487401
0.808348
1.12289
1.42765
1.71843
1.99012
2.2366
2.45079
2.62498
2.75134
2.82281
2.83436
2.78447
2.67668
0.201609
0.603645
1.00197
1.3936
1.77475
2.14054
2.48479
2.79977
3.07621
3.30356
3.47051
3.56619
3.58181
3.51303
3.36274
0.241548
0.723596
1.20231
1.6748
2.13719
2.58421
3.00873
3.40147
3.75074
4.04253
4.26097
4.38963
4.41365
4.32311
4.11767
0.282535
0.846886
1.40886
1.96609
2.51503
3.05037
3.56446
4.04665
4.48277
4.85484
5.14121
5.31772
5.36004
5.24806
4.97281
0.32424
0.97256
1.62015
2.26567
2.90646
3.5378
4.15209
4.73789
5.27886
5.75284
6.13132
6.37997
6.46071
6.33626
5.97871
0.366108
1.09897
1.8335
2.57
3.30736
4.04228
4.76822
5.47397
6.14196
6.74633
7.25126
7.61013
7.76652
7.65753
7.21986
0.407337
1.22369
2.0449
2.87347
3.71069
4.55575
5.40454
6.24782
7.06866
7.83926
8.51724
9.04275
9.33774
9.30751
8.83749
0.446881
1.34357
2.24894
3.1683
4.10618
5.06551
6.04639
7.04409
8.04561
9.02479
9.93568
10.7059
11.2343
11.3976
11.0482
0.483498
1.45479
2.43897
3.44463
4.48024
5.5537
6.67145
7.83654
9.0449
10.2786
11.4948
12.611
13.4964
14.0014
14.0723
0.515821
1.55311
2.60752
3.69103
4.81645
5.99761
7.24917
8.58572
10.0188
11.5499
13.154
14.7473
16.1397
17.0414
17.5617
0.542498
1.63432
2.74697
3.89552
5.09694
6.37111
7.74191
9.23832
10.8948
12.7483
14.8239
17.085
19.2751
20.4657
18.0689
31790.8
31759.8
31728.4
31696.7
31664.7
31632.4
31599.8
31566.9
31533.8
31500.5
31467
31433.4
31399.5
31365.6
31331.5
31297.4
31263.2
31229
31194.7
31160.5
31126.2
31092
31057.7
31023.5
30989.3
30955.1
30920.9
30886.7
30852.6
30818.4
30784.3
30750.3
30716.3
30682.4
30648.5
30614.7
30581
30547.3
30513.7
30480.2
30446.7
30413.2
30379.8
30346.4
30313.1
30279.8
30246.6
30213.5
30180.5
30147.5
30114.6
30081.8
30049.1
30016.4
29983.8
29951.3
29918.8
29886.4
29854
29821.7
29789.5
29757.3
29725.3
29693.3
29661.3
29629.5
29597.8
29566.1
29534.5
29503
29471.5
29440.1
29408.7
29377.4
29346.2
29315
29283.9
29252.8
29221.8
29190.8
29159.9
29129
29098.1
29067.2
29036.3
29005.3
28974.2
28943.1
28911.9
28880.5
0.815363
0.775083
0.730442
0.683616
0.636429
0.590105
0.545145
0.501347
0.457972
0.41403
0.368611
0.321205
0.27193
0.221627
0.171801
0.124403
0.0815115
0.0449651
0.0160224
-0.0048755
-0.0182047
-0.0253013
-0.0281623
-0.0291383
-0.0305696
-0.0344242
-0.0419953
-0.0537075
-0.0690687
-0.0867758
-0.104965
-0.12156
-0.134658
-0.142875
-0.145598
-0.143093
-0.136455
-0.127423
-0.118086
-0.110537
-0.106516
-0.107126
-0.112641
-0.12246
-0.13521
-0.148988
-0.161695
-0.171416
-0.176746
-0.17704
-0.172508
-0.164174
-0.15369
-0.143055
-0.134269
-0.128999
-0.128295
-0.132404
-0.14073
-0.151929
-0.164141
-0.175319
-0.183587
-0.187563
-0.186591
-0.180835
-0.171236
-0.159328
-0.146961
-0.135966
-0.12782
-0.123367
-0.122633
-0.124781
-0.128196
-0.13072
-0.129972
-0.123725
-0.110253
-0.0886211
-0.0588602
-0.0220227
0.0198793
0.0640435
0.107135
0.145611
0.176093
0.195744
0.202617
0.19591
1.36917
1.29846
1.22058
1.13962
1.059
0.980974
0.906338
0.834486
0.763741
0.691919
0.617007
0.537787
0.454304
0.36806
0.2819
0.199588
0.125172
0.0622494
0.0132995
-0.0207857
-0.0408897
-0.0495565
-0.0506016
-0.0485206
-0.0477895
-0.052169
-0.0641206
-0.0844305
-0.112108
-0.144586
-0.178203
-0.20889
-0.23292
-0.247594
-0.251719
-0.245809
-0.231987
-0.213618
-0.194739
-0.179392
-0.170943
-0.171525
-0.181672
-0.200216
-0.224487
-0.250776
-0.274999
-0.293423
-0.303332
-0.303482
-0.294299
-0.277779
-0.25713
-0.23622
-0.218922
-0.208467
-0.20689
-0.214679
-0.230681
-0.252286
-0.275879
-0.297478
-0.313442
-0.321102
-0.319208
-0.308111
-0.289664
-0.26687
-0.243341
-0.222658
-0.207731
-0.200254
-0.200354
-0.206483
-0.215592
-0.223564
-0.225844
-0.218155
-0.197171
-0.16105
-0.109753
-0.0451356
0.0291807
0.108115
0.18559
0.255112
0.310443
0.346308
0.359058
0.34718
1.93938
1.83223
1.71522
1.59521
1.47793
1.36705
1.26361
1.16613
1.07116
0.974361
0.87171
0.760616
0.640765
0.514489
0.386574
0.263523
0.152405
0.0595391
-0.0106999
-0.0566976
-0.0799107
-0.0846504
-0.0774037
-0.0658178
-0.0575068
-0.0588641
-0.0740621
-0.104395
-0.148082
-0.2006
-0.255508
-0.30565
-0.344498
-0.367345
-0.372129
-0.359756
-0.333905
-0.300383
-0.266145
-0.238149
-0.2222
-0.221987
-0.238445
-0.26956
-0.310692
-0.355377
-0.396487
-0.42753
-0.443806
-0.443201
-0.426495
-0.397171
-0.360787
-0.324023
-0.293566
-0.274995
-0.271843
-0.284976
-0.312414
-0.349632
-0.390341
-0.427609
-0.455113
-0.468258
-0.464939
-0.445835
-0.414219
-0.375339
-0.335493
-0.300937
-0.27679
-0.26611
-0.269274
-0.283778
-0.304512
-0.324495
-0.335967
-0.331626
-0.305785
-0.255234
-0.179735
-0.082124
0.0319195
0.154372
0.275577
0.385124
0.472898
0.530225
0.551028
0.532742
2.53369
2.38021
2.21419
2.04687
1.88767
1.74241
1.61233
1.49415
1.3812
1.26523
1.13857
0.996054
0.836478
0.663278
0.484244
0.310272
0.153354
0.0242439
-0.0696096
-0.125422
-0.145537
-0.137008
-0.110458
-0.0784033
-0.0533058
-0.0456331
-0.0622143
-0.105132
-0.171347
-0.253179
-0.339679
-0.418679
-0.479123
-0.513112
-0.517252
-0.493119
-0.446878
-0.388184
-0.328571
-0.279564
-0.250803
-0.248452
-0.274118
-0.324486
-0.39179
-0.465132
-0.532479
-0.582909
-0.608596
-0.606111
-0.576866
-0.526737
-0.464998
-0.402751
-0.3511
-0.319327
-0.31335
-0.33468
-0.380067
-0.441956
-0.509763
-0.571802
-0.617463
-0.639124
-0.633402
-0.60158
-0.549236
-0.4852
-0.42003
-0.364227
-0.326456
-0.312029
-0.321864
-0.352103
-0.394512
-0.43768
-0.468855
-0.476056
-0.449978
-0.38534
-0.281554
-0.142771
0.0225523
0.202431
0.382352
0.546494
0.679196
0.766742
0.799288
0.772559
3.16184
2.94623
2.71506
2.48685
2.27733
2.09592
1.94391
1.81465
1.69558
1.5715
1.42827
1.25605
1.0518
0.82046
0.574615
0.332455
0.11425
-0.0618331
-0.183311
-0.245566
-0.252423
-0.215332
-0.151454
-0.0809857
-0.0240289
0.00250751
-0.0124578
-0.0723393
-0.172138
-0.299056
-0.434668
-0.558447
-0.651862
-0.701883
-0.703107
-0.658336
-0.577802
-0.477331
-0.375744
-0.291843
-0.241398
-0.234594
-0.274239
-0.355045
-0.464212
-0.583543
-0.69285
-0.773937
-0.813976
-0.807577
-0.757329
-0.673042
-0.56996
-0.466241
-0.380029
-0.326532
-0.315553
-0.349758
-0.423976
-0.525776
-0.637506
-0.739593
-0.814388
-0.849437
-0.839462
-0.786888
-0.7011
-0.596706
-0.491088
-0.401559
-0.342516
-0.323021
-0.345079
-0.402908
-0.483425
-0.568139
-0.636269
-0.668412
-0.6497
-0.57182
-0.433768
-0.24164
-0.007775
0.250427
0.511849
0.753133
0.950519
1.08246
1.1329
1.09452
3.83746
3.53465
3.21166
2.89994
2.62651
2.4071
2.24276
2.12049
2.01717
1.90536
1.75969
1.56215
1.30612
0.998518
0.659668
0.32013
0.0144762
-0.226558
-0.382308
-0.445501
-0.422615
-0.332245
-0.201961
-0.0641303
0.0490336
0.110391
0.101957
0.0179136
-0.1339
-0.332433
-0.546721
-0.74196
-0.887115
-0.960945
-0.955218
-0.875076
-0.737464
-0.568108
-0.397475
-0.255972
-0.169178
-0.153873
-0.215117
-0.344788
-0.522024
-0.716412
-0.893886
-1.0241
-1.08625
-1.07221
-0.986833
-0.846437
-0.675863
-0.504547
-0.361871
-0.272534
-0.252713
-0.307239
-0.428188
-0.595316
-0.779153
-0.946701
-1.06857
-1.1246
-1.10688
-1.02004
-0.879773
-0.709986
-0.538992
-0.395004
-0.301641
-0.274185
-0.316792
-0.421052
-0.566303
-0.722485
-0.855509
-0.934
-0.934628
-0.844948
-0.663853
-0.400611
-0.0731492
0.293784
0.670345
1.02298
1.31608
1.51553
1.5944
1.53947
4.58228
4.15208
3.69201
3.25786
2.89786
2.63898
2.48101
2.39909
2.35098
2.28799
2.1658
1.95247
1.63471
1.22156
0.745699
0.258996
-0.178367
-0.514108
-0.714608
-0.769409
-0.690004
-0.506656
-0.263357
-0.0117778
0.196675
0.318749
0.325229
0.20573
-0.028409
-0.343147
-0.686231
-0.997623
-1.2251
-1.3346
-1.31452
-1.1746
-0.942866
-0.660756
-0.377287
-0.141349
0.00595762
0.0370471
-0.0574899
-0.26607
-0.555165
-0.873669
-1.16301
-1.37229
-1.46828
-1.4396
-1.29559
-1.06332
-0.782862
-0.501641
-0.266934
-0.118461
-0.0828421
-0.169096
-0.365927
-0.640821
-0.944279
-1.21961
-1.41757
-1.50599
-1.47385
-1.33014
-1.10097
-0.825022
-0.548025
-0.315562
-0.165872
-0.124471
-0.199734
-0.38018
-0.633446
-0.910184
-1.15328
-1.31172
-1.3496
-1.24971
-1.01223
-0.652057
-0.195363
0.323274
0.863293
1.37855
1.81651
2.12222
2.24856
2.16985
5.43527
4.81243
4.13492
3.50888
3.02353
2.72549
2.60975
2.62898
2.70621
2.7559
2.70315
2.49316
2.10067
1.53487
0.847335
0.126797
-0.517568
-0.996426
-1.25674
-1.2866
-1.1071
-0.76742
-0.336701
0.10265
0.468678
0.693536
0.729883
0.558602
0.193117
-0.313073
-0.871406
-1.37415
-1.73301
-1.89487
-1.84642
-1.60638
-1.22084
-0.755393
-0.28869
0.100869
0.348412
0.408836
0.264325
-0.0714424
-0.545994
-1.07295
-1.54746
-1.88365
-2.02986
-1.9731
-1.73148
-1.34961
-0.890996
-0.431789
-0.047852
0.198092
0.262495
0.128248
-0.191283
-0.645219
-1.14993
-1.60398
-1.92432
-2.061
-2.0015
-1.76332
-1.38956
-0.941582
-0.492945
-0.116941
0.125815
0.193224
0.068774
-0.234456
-0.666801
-1.14633
-1.57296
-1.86303
-1.96296
-1.85262
-1.53729
-1.04249
-0.406774
0.321975
1.0919
1.84542
2.50738
2.98721
3.19799
3.08569
6.47368
5.55141
4.50355
3.55713
2.87929
2.54931
2.54407
2.77529
3.1011
3.37132
3.46691
3.29665
2.81621
2.02345
0.996484
-0.115109
-1.09512
-1.79348
-2.13073
-2.1053
-1.75486
-1.15932
-0.422504
0.322637
0.943938
1.33975
1.43349
1.1911
0.61723
-0.207946
-1.13666
-1.95791
-2.52466
-2.75801
-2.65423
-2.24771
-1.61393
-0.851874
-0.0890423
0.547551
0.960282
1.07569
0.861513
0.322997
-0.461398
-1.34779
-2.13113
-2.66863
-2.88374
-2.77286
-2.36937
-1.74645
-1.00002
-0.253582
0.369904
0.776029
0.893853
0.692367
0.176872
-0.576529
-1.42856
-2.18092
-2.69555
-2.89853
-2.78649
-2.39174
-1.78504
-1.05911
-0.333293
0.273538
0.669982
0.787183
0.59471
0.0971834
-0.632217
-1.45866
-2.1893
-2.68816
-2.87908
-2.75072
-2.32076
-1.63585
-0.752149
0.261389
1.34411
2.44416
3.46049
4.23966
4.61265
4.45659
7.86352
6.47141
4.7262
3.21853
2.23394
1.90529
2.13774
2.78532
3.57602
4.23819
4.61348
4.54681
3.98148
2.84926
1.26748
-0.546515
-2.07828
-3.11054
-3.52704
-3.39205
-2.75563
-1.75467
-0.520332
0.720918
1.74387
2.42092
2.62111
2.30088
1.40319
0.0462352
-1.55668
-2.90819
-3.79644
-4.10666
-3.89804
-3.21635
-2.19177
-0.949517
0.292345
1.31655
2.00025
2.21711
1.9257
1.07146
-0.229974
-1.77105
-3.06886
-3.91791
-4.20708
-3.99401
-3.32327
-2.32118
-1.10911
0.101633
1.10062
1.76908
1.98498
1.70862
0.887575
-0.365846
-1.85076
-3.1002
-3.91558
-4.18974
-3.97859
-3.32538
-2.35224
-1.17651
-0.00232157
0.966951
1.61624
1.82705
1.5599
0.762706
-0.457901
-1.90895
-3.13938
-3.95674
-4.25496
-4.08311
-3.47135
-2.51547
-1.28448
0.101179
1.5714
3.16343
4.75512
6.07703
6.78914
6.59312
9.98405
7.90105
4.60776
2.12722
0.644039
0.453123
1.13348
2.58914
4.23596
5.51813
6.39643
6.51502
5.96304
4.32242
1.87284
-1.38438
-3.78078
-5.31435
-5.71756
-5.40091
-4.28139
-2.68614
-0.628176
1.43349
3.04183
4.18872
4.55807
4.24215
2.85045
0.654535
-2.33881
-4.52562
-5.90065
-6.20253
-5.82315
-4.67882
-3.08315
-1.04667
0.987079
2.57581
3.71238
4.09038
3.80029
2.46379
0.346456
-2.54467
-4.6529
-5.97347
-6.25372
-5.87427
-4.75441
-3.19836
-1.21634
0.7617
2.30721
3.41374
3.78488
3.50914
2.22083
0.178126
-2.61211
-4.64459
-5.91501
-6.17983
-5.8073
-4.71975
-3.21124
-1.29171
0.623676
2.12109
3.19385
3.55513
3.28833
2.0379
0.0482253
-2.67696
-4.68431
-5.97288
-6.30776
-6.04898
-5.11748
-3.79125
-2.03954
-0.180809
1.62326
3.88319
6.43819
8.7925
10.2733
10.1291
13.7138
11.0766
3.32177
-0.398421
-2.80606
-2.25363
-0.987302
2.11763
5.42095
7.3796
9.27333
9.44881
9.51219
6.96042
3.64115
-3.46188
-6.72583
-9.14596
-8.94478
-8.56601
-6.49229
-4.28403
-0.741447
2.79878
5.00418
7.07609
7.48172
7.73244
5.45568
2.41104
-4.28247
-7.31213
-9.55034
-9.2795
-8.84989
-6.79135
-4.60943
-1.13999
2.32251
4.48609
6.51672
6.92556
7.18161
4.9804
2.03703
-4.44579
-7.3713
-9.52722
-9.25044
-8.82084
-6.81375
-4.68907
-1.31796
2.0445
4.1458
6.11725
6.51619
6.76762
4.64032
1.79844
-4.46475
-7.28641
-9.36261
-9.08778
-8.66573
-6.72039
-4.66218
-1.40104
1.85147
3.88667
5.79591
6.18756
6.43311
4.37752
1.61344
-4.47872
-7.26432
-9.36234
-9.21546
-8.98359
-7.33202
-5.67975
-2.94872
-0.38412
1.01864
4.17795
8.41013
12.7657
16.0973
16.5775
20.7767
21.6263
-3.77116
-4.81263
-10.5179
-5.98827
-5.75571
1.36048
8.54228
9.3346
14.6245
12.544
16.8272
10.7036
10.8581
-11.0677
-10.886
-16.7523
-12.4278
-14.1719
-8.89697
-7.80339
-0.851336
6.08619
7.15874
12.3629
10.6285
14.8623
9.16666
9.4219
-11.5021
-11.2383
-16.8131
-12.5852
-14.2223
-9.08158
-7.98978
-1.22332
5.52835
6.58779
11.6564
9.98074
14.1014
8.56568
8.82439
-11.4695
-11.1979
-16.5841
-12.4672
-14.039
-9.04246
-7.97465
-1.40714
5.14333
6.17135
11.0851
9.45987
13.4515
8.08876
8.3454
-11.2732
-11.0017
-16.1957
-12.2077
-13.7177
-8.88356
-7.84533
-1.49794
4.83218
5.8336
10.5833
9.03035
12.8915
7.73736
7.97107
-11.0419
-10.8344
-15.9844
-12.2455
-13.9625
-9.54754
-9.12161
-3.61821
1.08563
-2.1155
2.92765
10.2042
18.2131
26.0271
30.3957
30.8033
69.9457
-45.9354
-2.5098
-32.9656
-3.5323
-20.4344
0.510895
20.8665
4.8153
30.5914
6.47811
39.1303
5.40906
49.8732
-50.5052
-6.33404
-39.0303
-7.16863
-29.8817
-5.27718
-19.7555
-0.936827
17.8227
3.3674
27.6448
5.18454
36.2943
4.31215
46.9346
-49.228
-6.75312
-38.1876
-7.44097
-29.3508
-5.53719
-19.5374
-1.28115
16.9352
2.92052
26.5121
4.69356
34.9304
3.81136
45.2117
-48.103
-6.87317
-37.3211
-7.48808
-28.7115
-5.60952
-19.1756
-1.46762
16.1986
2.60556
25.4733
4.31937
33.6095
3.4493
43.5166
-46.7196
-6.843
-36.2473
-7.40696
-27.9018
-5.57722
-18.6704
-1.56666
15.4895
2.38621
24.4496
4.07985
32.3351
3.3415
42.0468
-45.2801
-6.68729
-35.4041
-7.41692
-27.7693
-6.01665
-19.8731
-3.13447
13.9403
-17.1191
-1.53643
10.946
23.9436
40.9204
68.2397
28846
28808.2
28770.3
28732.3
28694.3
28656.3
28618.4
28580.6
28542.9
28505.3
28467.7
28430.3
28393
28355.8
28318.6
0.1741
0.134044
0.0825588
0.0255592
-0.0309353
-0.0816214
-0.12244
-0.150789
-0.165486
-0.166566
-0.155015
-0.132498
-0.101131
-0.0632998
-0.0215399
0.307966
0.235886
0.143555
0.0419115
-0.058104
-0.147067
-0.217974
-0.266528
-0.290978
-0.291677
-0.270567
-0.230681
-0.17574
-0.10986
-0.0373588
0.471184
0.358029
0.21391
0.0566784
-0.0962862
-0.230535
-0.335828
-0.406346
-0.440197
-0.438578
-0.404879
-0.343906
-0.261281
-0.16304
-0.0553931
0.680406
0.511139
0.29738
0.0671817
-0.153181
-0.342956
-0.488453
-0.582827
-0.624884
-0.617555
-0.566464
-0.478783
-0.362438
-0.225625
-0.0765662
0.958362
0.708741
0.39729
0.0678489
-0.240661
-0.499655
-0.692201
-0.811623
-0.858953
-0.840294
-0.764638
-0.642321
-0.484062
-0.300456
-0.101812
1.3374
0.96817
0.515188
0.0475841
-0.377655
-0.722801
-0.969069
-1.11251
-1.15901
-1.12003
-1.00947
-0.841802
-0.631029
-0.390324
-0.132039
1.86521
1.31135
0.647705
-0.0150469
-0.594743
-1.04482
-1.34877
-1.51032
-1.54455
-1.47133
-1.31141
-1.08438
-0.807929
-0.49777
-0.168058
2.61454
1.76432
0.779322
-0.160736
-0.941445
-1.51299
-1.87084
-2.03546
-2.03754
-1.90933
-1.68045
-1.37639
-1.01853
-0.624768
-0.210481
3.70009
2.35207
0.865999
-0.465772
-1.49731
-2.19484
-2.58615
-2.72314
-2.66081
-2.448
-2.12466
-1.7222
-1.26503
-0.77229
-0.259576
5.30841
3.0779
0.798384
-1.07103
-2.38719
-3.1829
-3.55577
-3.61013
-3.43456
-3.0972
-2.64798
-2.12272
-1.54709
-0.939786
-0.315106
7.74574
3.85272
0.320688
-2.22951
-3.79752
-4.59378
-4.84389
-4.72704
-4.3701
-3.85825
-3.24733
-2.57362
-1.86081
-1.12466
-0.376168
11.4759
4.26649
-1.13885
-4.37017
-5.97959
-6.55078
-6.49895
-6.08403
-5.46052
-4.71836
-3.90945
-3.06362
-2.19787
-1.32186
-0.441078
16.85
2.87606
-4.77244
-8.13275
-9.19985
-9.13078
-8.51709
-7.64959
-6.66959
-5.64521
-4.6085
-3.57351
-2.54519
-1.52383
-0.507362
21.4211
-4.83994
-12.6943
-14.1885
-13.5563
-12.2554
-10.789
-9.32763
-7.92304
-6.58438
-5.30581
-4.07673
-2.88555
-1.72089
-0.571906
0.561255
1.69139
2.84485
4.0389
5.29353
6.63326
8.08956
9.70455
11.5365
13.6671
16.2094
19.2967
22.9599
26.3807
23.7037
0.572503
1.72549
2.90296
4.12314
5.40754
6.78302
8.28525
9.96429
11.8947
14.1947
17.0681
20.905
26.5765
36.463
58.7322
0.578211
1.74259
2.9314
4.16281
5.4583
6.84478
8.35818
10.0495
11.9961
14.3241
17.2575
21.2392
27.266
37.9443
61.2437
0.578393
1.74274
2.93025
4.158
5.44588
6.8184
8.30756
9.95752
11.8328
14.033
16.7187
20.1528
24.7242
30.6578
35.4441
0.573324
1.72681
2.90115
4.11143
5.37469
6.71105
8.14529
9.70906
11.4439
13.4048
15.6601
18.2757
21.2343
24.1656
25.8503
0.563509
1.6964
2.84709
4.02808
5.25274
6.53574
7.89308
9.34182
10.8982
12.5721
14.3512
16.1601
17.762
18.5374
16.9844
0.549616
1.65363
2.77201
3.91439
5.0903
6.3088
7.57741
8.89984
10.271
11.6666
13.0216
14.1881
14.8631
14.5254
12.7814
0.532403
1.60088
2.68027
3.77741
4.89828
6.04707
7.22439
8.42404
9.62685
10.7894
11.8232
12.5578
12.6676
11.4901
7.27112
0.512642
1.54056
2.5762
3.62396
4.68689
5.76551
6.85585
7.94606
9.01072
10.0015
10.8328
11.3614
11.3661
10.5671
8.92987
0.491049
1.47489
2.46371
3.45998
4.4646
5.47582
6.48741
7.48582
8.44588
9.3245
10.0527
10.5288
10.623
10.2261
9.404
0.468248
1.40576
2.34607
3.2902
4.23773
5.18588
6.12812
7.05221
7.93759
8.75193
9.44776
9.96142
10.2211
10.1805
9.91803
0.444744
1.33468
2.22577
3.11805
4.01045
4.90006
5.78142
6.6455
7.47863
8.26164
8.96929
9.57046
10.0275
10.2889
10.252
0.420928
1.26281
2.10464
2.94584
3.7851
4.61998
5.44674
6.26026
7.05449
7.82369
8.56478
9.27954
9.96995
10.6045
11.0265
0.397092
1.19099
1.98394
2.77499
3.56279
4.34554
5.12126
5.88844
6.64774
7.40527
8.17855
9.00556
9.95112
11.0678
12.0511
0.373454
1.11983
1.86456
2.6064
3.34398
4.076
4.80171
5.52209
6.24222
6.97591
7.75503
8.64924
9.8135
11.6236
15.1384
0.350185
1.04981
1.74718
2.44076
3.12905
3.81085
4.48587
5.15593
5.82729
6.51501
7.25158
8.10539
9.22736
10.9958
14.5741
0.327435
0.981362
1.63245
2.27881
2.91862
3.5504
4.17347
4.78888
5.401
6.02019
6.66672
7.37534
8.19228
9.11113
9.6188
0.30534
0.914884
1.521
2.1214
2.71378
3.29602
3.8664
4.42411
4.96982
5.5064
6.03875
6.57006
7.08643
7.51201
7.65366
0.284035
0.850784
1.41354
1.96956
2.51598
3.04986
3.56814
4.06767
4.54498
4.99556
5.41149
5.77518
6.04363
6.11006
5.69514
0.263649
0.789459
1.31076
1.82437
2.3269
2.81455
3.28292
3.72666
4.13872
4.50879
4.82053
5.04643
5.14115
5.04239
4.74019
0.244297
0.731268
1.21331
1.6869
2.14816
2.59262
3.0148
3.40768
3.76161
4.06254
4.28917
4.4088
4.37302
4.116
3.54079
0.226073
0.676505
1.12172
1.55799
1.98111
2.38616
2.76703
3.11574
3.4213
3.6679
3.83213
3.87911
3.75855
3.41058
2.8549
0.209038
0.625364
1.03636
1.43821
1.8266
2.19649
2.5416
2.85379
3.12196
3.33046
3.45651
3.46578
3.302
2.84941
1.74346
0.193218
0.577923
0.957362
1.32777
1.68495
2.02403
2.33904
2.6224
2.86405
3.05028
3.16201
3.17263
3.04602
2.74196
2.28547
0.1786
0.534139
0.884635
1.22652
1.55589
1.86829
2.15847
2.41998
2.64464
2.82185
2.93774
2.97477
2.91327
2.74039
2.47527
0.165136
0.493859
0.817891
1.13397
1.4386
1.72798
1.99782
2.24316
2.4582
2.636
2.76825
2.84536
2.85786
2.8029
2.70934
0.15275
0.456838
0.756674
1.04936
1.33192
1.60126
1.85417
2.08739
2.29763
2.48179
2.63705
2.76083
2.84932
2.89223
2.8549
0.141344
0.422772
0.700423
0.971793
1.23442
1.48594
1.72422
1.94758
2.15519
2.34765
2.52774
2.70081
2.87244
3.03729
3.15316
0.130814
0.391331
0.648537
0.900302
1.14463
1.37982
1.60463
1.81872
2.02328
2.2221
2.42332
2.6418
2.90029
3.21639
3.49595
0.121054
0.362189
0.600434
0.833975
1.06121
1.28091
1.49249
1.69649
1.89535
2.09489
2.30693
2.55502
2.88814
3.42086
4.47307
0.111972
0.335057
0.555598
0.772032
0.983023
1.18764
1.38562
1.57782
1.76698
1.95901
2.16553
2.40921
2.73739
3.26462
4.3356
0.103488
0.309692
0.513618
0.713871
0.909269
1.09899
1.28277
1.46129
1.63662
1.81307
1.99832
2.20473
2.44845
2.73078
2.90569
0.0955388
0.28591
0.474191
0.659087
0.839465
1.01446
1.18359
1.34697
1.50549
1.66104
1.81644
1.97435
2.1327
2.27156
2.33669
0.0880811
0.263582
0.437118
0.607443
0.773406
0.934002
1.08842
1.23604
1.37644
1.50912
1.63283
1.74368
1.83052
1.86356
1.76208
0.081083
0.24262
0.402279
0.558831
0.711078
0.857848
0.997961
1.13013
1.25275
1.36344
1.45816
1.5297
1.5657
1.549
1.47869
0.0745221
0.222965
0.3696
0.513212
0.652559
0.786324
0.913029
1.03086
1.13736
1.22886
1.29959
1.34042
1.33749
1.27168
1.11456
0.0683798
0.204566
0.339022
0.47056
0.597921
0.719708
0.834267
0.939475
1.0324
1.1087
1.1618
1.18155
1.15295
1.05778
0.902768
0.0626362
0.18737
0.310474
0.430813
0.547159
0.658119
0.762005
0.856629
0.938976
1.00468
1.04718
1.05628
1.01465
0.885459
0.55063
0.0572674
0.171307
0.283849
0.393841
0.500143
0.601449
0.696181
0.782317
0.857125
0.916775
0.955778
0.96624
0.937154
0.855955
0.730742
0.0522428
0.156287
0.258997
0.359438
0.456601
0.549349
0.636335
0.71588
0.785811
0.84322
0.884202
0.903679
0.895863
0.857026
0.793276
0.047525
0.142196
0.235723
0.327314
0.416131
0.501259
0.581662
0.656129
0.723201
0.781083
0.827572
0.860084
0.876128
0.87541
0.867769
0.0430709
0.128902
0.213796
0.29712
0.378228
0.456455
0.531118
0.601523
0.666983
0.726868
0.780659
0.827938
0.868046
0.898616
0.910391
0.0388337
0.116259
0.192961
0.268469
0.34233
0.414133
0.483541
0.550358
0.614646
0.676898
0.738282
0.800785
0.866603
0.93489
0.993825
0.034765
0.104121
0.17296
0.240966
0.307867
0.37348
0.437769
0.50096
0.563733
0.627541
0.695141
0.771344
0.863461
0.977676
1.08819
0.030818
0.092342
0.153541
0.214233
0.274305
0.333753
0.392767
0.451863
0.512111
0.575561
0.646041
0.730866
0.844993
1.02305
1.36037
0.0269493
0.0807913
0.134475
0.187936
0.241181
0.294334
0.347717
0.401973
0.458277
0.518712
0.586994
0.670055
0.782146
0.957858
1.3029
0.0231204
0.0693521
0.115567
0.161794
0.208125
0.254761
0.302068
0.35067
0.401584
0.456425
0.517696
0.589102
0.675137
0.775094
0.841354
0.0192985
0.0579261
0.0966546
0.135583
0.174864
0.214729
0.255527
0.297771
0.342176
0.389684
0.441374
0.498007
0.55848
0.615755
0.652807
0.0154559
0.0464316
0.0776055
0.109132
0.141202
0.174054
0.207991
0.24338
0.280622
0.32005
0.361632
0.404259
0.444063
0.470479
0.455107
0.0115695
0.0348011
0.058314
0.0823083
0.107002
0.132632
0.159454
0.187709
0.217561
0.248932
0.281178
0.312485
0.338958
0.354238
0.355738
0.00761946
0.022977
0.0386911
0.0550028
0.0721555
0.0903899
0.109929
0.130939
0.153455
0.177216
0.201389
0.224081
0.241641
0.24758
0.228406
0.00358766
0.0109068
0.018656
0.0271172
0.0365631
0.0472477
0.0593886
0.0731327
0.0884919
0.105226
0.122638
0.139252
0.152406
0.158375
0.157592
-0.000543439
-0.00146034
-0.00187085
-0.00144839
0.000115401
0.00310017
0.00774212
0.0142124
0.0225835
0.0327745
0.0444535
0.0568378
0.0681729
0.0738695
0.0577161
-0.00479198
-0.0141776
-0.0229735
-0.0308028
-0.0373143
-0.0421923
-0.0451671
-0.04602
-0.0445799
-0.0407006
-0.0342108
-0.0248369
-0.0121335
0.00454753
0.0267893
-0.00917765
-0.0273029
-0.0447447
-0.0610688
-0.0758735
-0.0888007
-0.0995429
-0.107837
-0.113428
-0.115979
-0.114868
-0.108813
-0.0951913
-0.0686265
-0.0161595
-0.0137225
-0.0409013
-0.0672894
-0.0923863
-0.115732
-0.136921
-0.155612
-0.171523
-0.18438
-0.193791
-0.198947
-0.198033
-0.187226
-0.159777
-0.109791
-0.0184517
-0.0550472
-0.0907282
-0.124917
-0.157083
-0.186769
-0.213606
-0.237322
-0.257716
-0.274547
-0.287232
-0.294111
-0.290805
-0.266567
-0.194662
-0.0233943
-0.0698267
-0.115201
-0.158847
-0.200152
-0.238591
-0.273761
-0.30542
-0.333517
-0.358174
-0.379539
-0.39725
-0.408908
-0.406446
-0.373427
-0.0285837
-0.0853394
-0.140871
-0.1944
-0.245208
-0.292677
-0.336346
-0.375984
-0.411697
-0.444077
-0.474371
-0.504581
-0.536801
-0.567529
-0.550766
-0.0340583
-0.101701
-0.16793
-0.231839
-0.292577
-0.349398
-0.401725
-0.449265
-0.492184
-0.53142
-0.56925
-0.610503
-0.665716
-0.761576
-0.984269
-0.0398616
-0.119042
-0.196599
-0.271476
-0.342662
-0.409233
-0.470423
-0.525748
-0.57522
-0.619728
-0.66174
-0.706718
-0.766387
-0.867527
-1.07907
-0.0460416
-0.137508
-0.227126
-0.313673
-0.395948
-0.472799
-0.543187
-0.606288
-0.661696
-0.709761
-0.752158
-0.792719
-0.838241
-0.896792
-0.959088
-0.0526494
-0.157257
-0.259784
-0.358835
-0.452995
-0.540849
-0.621004
-0.692163
-0.753262
-0.803721
-0.84384
-0.875262
-0.901033
-0.923437
-0.935298
-0.0597371
-0.178447
-0.294855
-0.407388
-0.514418
-0.61424
-0.705064
-0.785018
-0.852208
-0.904853
-0.94155
-0.961718
-0.966148
-0.957391
-0.939632
-0.0673548
-0.201236
-0.332615
-0.459761
-0.580842
-0.693876
-0.796665
-0.886729
-0.961249
-1.01705
-1.05073
-1.05909
-1.04041
-0.997584
-0.944737
-0.0755471
-0.225761
-0.373312
-0.516341
-0.652851
-0.780623
-0.897098
-0.999229
-1.08328
-1.14461
-1.17749
-1.17523
-1.13143
-1.04473
-0.933336
-0.0843501
-0.252135
-0.417148
-0.577446
-0.730925
-0.875209
-1.00749
-1.12428
-1.22108
-1.29191
-1.32863
-1.32023
-1.25222
-1.10901
-0.900911
-0.0937882
-0.280432
-0.464255
-0.643283
-0.815381
-0.978127
-1.12863
-1.2632
-1.37692
-1.46289
-1.5111
-1.5066
-1.42523
-1.21834
-0.735272
-0.103873
-0.310688
-0.51469
-0.71393
-0.906326
-1.08955
-1.26082
-1.4166
-1.55203
-1.66008
-1.73017
-1.74635
-1.6854
-1.51946
-1.25538
-0.114605
-0.342897
-0.56843
-0.789328
-1.00364
-1.20926
-1.40376
-1.58412
-1.74616
-1.88363
-1.98668
-2.03965
-2.01847
-1.88874
-1.59558
-0.125972
-0.37702
-0.625386
-0.869296
-1.10699
-1.33669
-1.55653
-1.76436
-1.95733
-2.13106
-2.27796
-2.38444
-2.42692
-2.37151
-2.20821
-0.137961
-0.413005
-0.685435
-0.95358
-1.21588
-1.47096
-1.71763
-1.95491
-2.18188
-2.39712
-2.59731
-2.77366
-2.90334
-2.92919
-2.70314
-0.15056
-0.450805
-0.748457
-1.04192
-1.3298
-1.61107
-1.88524
-2.15262
-2.41455
-2.67361
-2.93322
-3.19529
-3.45185
-3.66181
-3.72422
-0.163767
-0.490403
-0.814389
-1.13412
-1.44829
-1.7561
-2.05757
-2.35411
-2.64922
-2.94972
-3.2674
-3.62075
-4.0327
-4.49688
-4.74437
-0.177597
-0.53184
-0.883273
-1.23019
-1.57121
-1.90552
-2.23333
-2.55658
-2.88014
-3.2139
-3.57679
-4.00552
-4.57727
-5.48242
-7.30897
-0.192088
-0.575227
-0.955289
-1.33036
-1.69878
-2.05945
-2.41225
-2.75883
-3.10396
-3.45783
-3.84046
-4.29096
-4.89032
-5.8281
-7.6306
-0.207299
-0.62075
-1.03077
-1.43513
-1.83173
-2.21885
-2.59548
-2.96209
-3.32171
-3.68179
-4.057
-4.47302
-4.96834
-5.57326
-6.13929
-0.223305
-0.668653
-1.11019
-1.54529
-1.97127
-2.38551
-2.78567
-3.1702
-3.53913
-3.89522
-4.24519
-4.60001
-4.97023
-5.34541
-5.64353
-0.240187
-0.719203
-1.19407
-1.66177
-2.11897
-2.56195
-2.98671
-3.38913
-3.76547
-4.1129
-4.43001
-4.7163
-4.96868
-5.17106
-5.26871
-0.258013
-0.772636
-1.28292
-1.78554
-2.27652
-2.75105
-3.20325
-3.62617
-4.01187
-4.35162
-4.63623
-4.85613
-5.00185
-5.06942
-5.09079
-0.276812
-0.82908
-1.37709
-1.91738
-2.44551
-2.95564
-3.44011
-3.88906
-4.29018
-4.62864
-4.88736
-5.04746
-5.08929
-4.99987
-4.80969
-0.296552
-0.888478
-1.47663
-2.05767
-2.62699
-3.17804
-3.70163
-4.18517
-4.61199
-4.96101
-5.20698
-5.32091
-5.26788
-5.00027
-4.52166
-0.31711
-0.950495
-1.5811
-2.2061
-2.82116
-3.4195
-3.99096
-4.52066
-4.98782
-5.36493
-5.61829
-5.7103
-5.59547
-5.14719
-3.62633
-0.338248
-1.01444
-1.68945
-2.36144
-3.02692
-3.67964
-4.30927
-4.89957
-5.42618
-5.85478
-6.14164
-6.24332
-6.15461
-6.03895
-6.71141
-0.359592
-1.07922
-1.79988
-2.52131
-3.24153
-3.95579
-4.6549
-5.3227
-5.9326
-6.44304
-6.79359
-6.90853
-6.73246
-6.38339
-6.73832
-0.380631
-1.14327
-1.90979
-2.682
-3.46027
-4.24248
-5.02225
-5.78602
-6.50807
-7.14232
-7.60915
-7.77582
-7.43043
-6.23891
-3.52395
-0.400718
-1.20461
-2.01575
-2.83848
-3.67627
-4.53084
-5.40071
-6.27831
-7.14451
-7.95786
-8.63313
-8.99868
-8.71597
-7.15235
-3.31856
-0.419097
-1.26092
-2.11364
-2.9845
-3.8806
-4.80858
-5.7738
-6.77849
-7.81763
-8.86929
-9.87218
-10.6717
-10.891
-9.64228
-5.05993
-0.434955
-1.30967
-2.19894
-3.11298
-4.06279
-5.06045
-6.11945
-7.25476
-8.48204
-9.81456
-11.2524
-12.7477
-14.0855
-14.4472
-10.6468
-0.447476
-1.3483
-2.26703
-3.21663
-4.21174
-5.2697
-6.41212
-7.66713
-9.07336
-10.6866
-12.5928
-14.933
-17.9578
-22.1425
-28.3817
-11.7791
-26.7171
-25.2425
-21.5621
-18.1451
-15.2803
-12.8805
-10.826
-9.02144
-7.39785
-5.90538
-4.50742
-3.17602
-1.8888
-0.626858
-114.766
-59.8837
-38.6758
-28.1979
-21.9492
-17.6992
-14.5299
-12.0034
-9.88542
-8.03937
-6.37962
-4.84899
-3.40686
-2.02242
-0.67062
-127.575
-69.6653
-44.6577
-31.8965
-24.3655
-19.3674
-15.7329
-12.8971
-10.5605
-8.5515
-6.76417
-5.12908
-3.59762
-2.13338
-0.707045
-70.1032
-56.5977
-42.1352
-31.9629
-25.0226
-20.0887
-16.3812
-13.444
-11.0082
-8.90966
-7.04298
-5.33721
-3.74169
-2.21802
-0.73496
-49.4989
-44.1946
-36.6333
-29.7848
-24.2865
-19.9583
-16.4945
-13.6426
-11.2218
-9.10676
-7.21004
-5.46875
-3.83586
-2.27446
-0.753748
-31.4501
-33.3587
-30.6363
-26.669
-22.7377
-19.2275
-16.1829
-13.5418
-11.2229
-9.15225
-7.26916
-5.52499
-3.88039
-2.30263
-0.763357
-23.2121
-25.7388
-25.5038
-23.5283
-20.8963
-18.1734
-15.591
-13.2174
-11.0516
-9.06746
-7.23179
-5.51207
-3.87848
-2.30408
-0.76424
-12.9141
-20.0366
-21.5798
-20.8436
-19.118
-17.0217
-14.854
-12.7485
-10.7543
-8.87953
-7.11389
-5.43934
-3.83546
-2.28152
-0.757232
-15.606
-18.209
-19.2386
-18.8458
-17.5972
-15.9196
-14.0739
-12.2023
-10.3739
-8.61582
-6.9327
-5.31753
-3.75775
-2.23836
-0.743401
-16.3098
-17.4741
-17.8851
-17.4423