/*--------------------------------*- C++ -*----------------------------------*\
| =========                 |                                                 |
| \\      /  F ield         | OpenFOAM: The Open Source CFD Toolbox           |
|  \\    /   O peration     | Version:  5.x                                   |
|   \\  /    A nd           | Web:      www.OpenFOAM.org                      |
|    \\/     M anipulation  |                                                 |
\*---------------------------------------------------------------------------*/
FoamFile
{
    version     2.0;
    format      ascii;
    class       volScalarField;
    location    "3.5";
    object      gradTy;
}
// * * * * * * * * * * * * * * * * * * * * * * * * * * * * * * * * * * * * * //

dimensions      [0 -1 0 1 0 0 0];

internalField   nonuniform List<scalar> 
6300
(
32284.9
32254.7
32224.4
32193.9
32163.1
32132.1
32100.7
32068.9
32036.6
32003.7
31970.4
31936.4
31901.9
31866.7
31831
0.0524209
0.156773
0.259629
0.359893
0.45631
0.547435
0.631611
0.70699
0.771594
0.823435
0.860699
0.881988
0.88659
0.874753
0.847866
0.0878939
0.262908
0.435543
0.604028
0.766316
0.920016
1.06235
1.19016
1.30001
1.38841
1.45204
1.48829
1.49566
1.47437
1.42672
0.124144
0.371429
0.615622
0.854375
1.08493
1.30399
1.50763
1.69131
1.84994
1.97817
2.07083
2.12351
2.13345
2.10042
2.0275
0.161396
0.483044
0.801141
1.11292
1.41505
1.70339
1.97289
2.2175
2.43026
2.60353
2.72959
2.80148
2.81423
2.76634
2.66133
0.199793
0.598212
0.992977
1.38113
1.75895
2.12163
2.46304
2.77557
3.05007
3.2761
3.44253
3.5386
3.55564
3.48939
3.34271
0.239356
0.717035
1.19142
1.65969
2.118
2.56113
2.98208
3.37167
3.71835
4.00829
4.22583
4.35474
4.38035
4.29289
4.09202
0.279952
0.839149
1.396
1.94819
2.49222
3.02284
3.53249
4.01067
4.44339
4.81288
5.09777
5.2742
5.31815
5.20979
4.94025
0.321254
0.963607
1.60525
2.24487
2.87985
3.50551
4.11438
4.69514
5.23167
5.70207
6.0782
6.32614
6.40829
6.28786
5.93731
0.362713
1.08878
1.81652
2.54621
3.27679
4.005
4.72438
5.42386
6.08609
6.68554
7.18682
7.54388
7.70101
7.59608
7.16663
0.403536
1.21228
2.02583
2.84668
3.67611
4.51333
5.35429
6.18985
7.00331
7.76721
8.43967
8.96158
9.25581
9.22881
8.7675
0.442691
1.33097
2.22784
3.13857
4.06764
5.01794
5.9896
6.97794
7.97012
8.94031
9.84311
10.607
11.1318
11.2959
10.9533
0.478946
1.44109
2.41599
3.41215
4.43794
5.50119
6.60826
7.76219
8.95895
10.1808
11.3855
12.4913
13.3688
13.8696
13.9403
0.510953
1.53845
2.58288
3.6561
4.7708
5.94062
7.18009
8.50362
9.92267
11.4386
13.0267
14.6041
15.9823
16.8735
17.3839
0.537373
1.61887
2.72098
3.8586
5.04854
6.31043
7.66787
9.14955
10.7895
12.6243
14.6787
16.9162
19.0827
20.2584
17.8813
31797.8
31767.1
31736.2
31704.9
31673.2
31641.3
31609.1
31576.6
31543.9
31511
31477.9
31444.6
31411.2
31377.6
31343.9
31310.2
31276.3
31242.5
31208.6
31174.6
31140.7
31106.8
31072.8
31038.9
31005
30971
30937.1
30903.2
30869.2
30835.3
30801.5
30767.6
30733.8
30700.1
30666.4
30632.7
30599.1
30565.6
30532.1
30498.6
30465.2
30431.8
30398.4
30365.1
30331.8
30298.5
30265.3
30232.2
30199.1
30166.1
30133.1
30100.3
30067.4
30034.7
30001.9
29969.2
29936.6
29904
29871.5
29839
29806.5
29774.1
29741.8
29709.6
29677.4
29645.3
29613.3
29581.3
29549.4
29517.6
29485.8
29454.1
29422.4
29390.8
29359.2
29327.6
29296.1
29264.7
29233.3
29202
29170.7
29139.4
29108.2
29076.9
29045.6
29014.2
28982.8
28951.3
28919.6
28887.9
0.811748
0.772415
0.728794
0.683037
0.636943
0.591726
0.547879
0.505205
0.462972
0.420203
0.376
0.329858
0.28189
0.232927
0.184449
0.138381
0.0967734
0.0614343
0.0336019
0.0137048
0.00126569
-0.00504284
-0.00720034
-0.00753473
-0.00836217
-0.0116284
-0.0186094
-0.0297199
-0.0444653
-0.0615482
-0.0791155
-0.0951051
-0.107628
-0.115316
-0.117564
-0.114641
-0.107645
-0.0983097
-0.0887202
-0.0809596
-0.0767632
-0.0772263
-0.0826182
-0.092335
-0.105003
-0.118718
-0.131385
-0.141091
-0.146437
-0.146783
-0.142348
-0.134166
-0.123899
-0.113555
-0.105142
-0.100335
-0.100181
-0.104927
-0.113964
-0.125934
-0.138962
-0.150984
-0.160107
-0.16494
-0.164824
-0.159929
-0.151208
-0.140213
-0.12881
-0.118848
-0.111811
-0.108545
-0.109064
-0.112505
-0.11722
-0.121006
-0.12144
-0.11625
-0.103678
-0.0827665
-0.05354
-0.0170601
0.024637
0.0687121
0.111784
0.150261
0.180712
0.20026
0.206923
0.199881
1.36299
1.29389
1.21775
1.13861
1.05984
0.983662
0.910876
0.840881
0.772019
0.702136
0.629241
0.552131
0.470846
0.386867
0.302998
0.222951
0.150717
0.0898397
0.0427584
0.0103424
-0.00829355
-0.0156754
-0.0155852
-0.0124747
-0.0107739
-0.0142013
-0.0251869
-0.0444987
-0.071143
-0.102564
-0.135125
-0.16478
-0.187834
-0.201612
-0.204937
-0.198332
-0.18392
-0.165058
-0.145771
-0.130085
-0.121355
-0.121701
-0.131649
-0.150026
-0.174161
-0.200345
-0.224496
-0.24289
-0.252816
-0.253042
-0.244008
-0.227727
-0.207424
-0.186986
-0.170304
-0.160618
-0.159967
-0.168833
-0.186043
-0.208963
-0.233944
-0.256973
-0.274376
-0.283469
-0.282994
-0.273313
-0.256303
-0.235
-0.213052
-0.194074
-0.180996
-0.175516
-0.177741
-0.186081
-0.197422
-0.207568
-0.211883
-0.206008
-0.186557
-0.151645
-0.101223
-0.0371612
0.0368741
0.115735
0.193259
0.262862
0.318214
0.35396
0.366392
0.353964
1.93037
1.82558
1.71111
1.59371
1.47907
1.3708
1.26994
1.17502
1.08263
0.988503
0.888652
0.780517
0.663787
0.540759
0.416153
0.296383
0.188422
0.0984986
0.0309189
-0.0127386
-0.0339315
-0.0369383
-0.028187
-0.0152503
-0.00566387
-0.00575144
-0.0196332
-0.0485753
-0.0907965
-0.141794
-0.195167
-0.243811
-0.281246
-0.302806
-0.306455
-0.293111
-0.266449
-0.232259
-0.197478
-0.169035
-0.152715
-0.15219
-0.168379
-0.199266
-0.240206
-0.284738
-0.325738
-0.356723
-0.373001
-0.372475
-0.355945
-0.32692
-0.290985
-0.254852
-0.225236
-0.207737
-0.205895
-0.22057
-0.249752
-0.288874
-0.331592
-0.370915
-0.400472
-0.415632
-0.414281
-0.397115
-0.367446
-0.330581
-0.292886
-0.260676
-0.239113
-0.231268
-0.237492
-0.255216
-0.279227
-0.302417
-0.316888
-0.315211
-0.291593
-0.24276
-0.168451
-0.0715308
0.042252
0.164767
0.286222
0.396062
0.484023
0.541303
0.561725
0.542674
2.5215
2.37124
2.20866
2.04486
1.88914
1.74727
1.62047
1.50549
1.39575
1.28311
1.15999
1.02128
0.865797
0.696922
0.522342
0.352808
0.200151
0.0749776
-0.0153735
-0.0681741
-0.0857634
-0.0751388
-0.0468225
-0.0132081
0.0133695
0.0225548
0.00759964
-0.0335379
-0.0978203
-0.177611
-0.262029
-0.338994
-0.397529
-0.4298
-0.432453
-0.407078
-0.359827
-0.300325
-0.240067
-0.190539
-0.161344
-0.158621
-0.183959
-0.234038
-0.301092
-0.374227
-0.441415
-0.491743
-0.517398
-0.514967
-0.485888
-0.436074
-0.374843
-0.313345
-0.262732
-0.232322
-0.228053
-0.251427
-0.299157
-0.363618
-0.434137
-0.498932
-0.547307
-0.571581
-0.568352
-0.538929
-0.488957
-0.427367
-0.364828
-0.311952
-0.277482
-0.266765
-0.280689
-0.315302
-0.362217
-0.409821
-0.445147
-0.45601
-0.432941
-0.370558
-0.268241
-0.130184
0.0350538
0.215322
0.395908
0.560765
0.694007
0.781716
0.813893
0.786187
3.14597
2.93462
2.70799
2.48436
2.27927
2.10205
1.95396
1.82842
1.71304
1.59282
1.45377
1.28619
1.08708
0.861293
0.621255
0.38492
0.172292
0.00129831
-0.115753
-0.174329
-0.17824
-0.138832
-0.0731048
-0.00105093
0.0574297
0.0856043
0.0725159
0.0148082
-0.0825325
-0.206785
-0.339648
-0.460736
-0.551653
-0.599469
-0.598837
-0.55257
-0.47087
-0.369506
-0.267232
-0.182786
-0.131882
-0.124668
-0.163937
-0.244394
-0.353247
-0.472307
-0.581396
-0.66232
-0.702266
-0.695858
-0.645716
-0.561698
-0.459112
-0.356192
-0.27116
-0.219292
-0.21043
-0.247238
-0.324495
-0.429664
-0.544949
-0.650616
-0.728871
-0.767157
-0.760162
-0.710352
-0.62722
-0.525536
-0.422876
-0.336738
-0.281666
-0.266793
-0.294105
-0.357688
-0.444225
-0.534917
-0.608642
-0.64568
-0.630911
-0.555868
-0.419506
-0.227983
0.0062015
0.265411
0.528234
0.770978
0.969548
1.10208
1.15228
1.11271
3.81723
3.52002
3.20298
2.89717
2.62928
2.41487
2.25496
2.13673
2.0373
1.92963
1.78862
1.59652
1.34676
1.04617
0.714823
0.382877
0.0844646
-0.150075
-0.300356
-0.359223
-0.333114
-0.240448
-0.108519
0.0306293
0.145108
0.208049
0.20166
0.120201
-0.0285176
-0.223585
-0.434249
-0.625951
-0.767873
-0.838931
-0.830967
-0.749116
-0.610261
-0.440025
-0.268759
-0.126763
-0.0395366
-0.0238125
-0.0846348
-0.213891
-0.390737
-0.58478
-0.761964
-0.891941
-0.953916
-0.939759
-0.854359
-0.714093
-0.543894
-0.373315
-0.231866
-0.144365
-0.127072
-0.184836
-0.30967
-0.481173
-0.66964
-0.841803
-0.968018
-1.02796
-1.01365
-0.929784
-0.792221
-0.625135
-0.457156
-0.316812
-0.227982
-0.206096
-0.255309
-0.367037
-0.520266
-0.684457
-0.82498
-0.90996
-0.915684
-0.829489
-0.650213
-0.387228
-0.0586989
0.310284
0.689456
1.04479
1.34017
1.54098
1.61992
1.56356
4.55676
4.13398
3.68181
3.25536
2.90229
2.64922
2.49596
2.41793
2.37345
2.31441
2.19705
1.98984
1.67963
1.27534
0.809236
0.332529
-0.0953586
-0.422803
-0.616619
-0.666506
-0.583857
-0.398627
-0.154356
0.0978078
0.306971
0.430303
0.438876
0.32242
0.0922091
-0.217955
-0.55619
-0.862882
-1.08617
-1.19222
-1.16953
-1.02778
-0.794877
-0.512066
-0.228171
0.0080897
0.155734
0.187232
0.0931734
-0.114896
-0.4035
-0.72157
-1.01055
-1.21952
-1.31523
-1.28629
-1.14205
-0.909633
-0.629262
-0.348529
-0.114926
0.0316203
0.0643282
-0.0258913
-0.227679
-0.508291
-0.817846
-1.09919
-1.30263
-1.39573
-1.36735
-1.22656
-0.999766
-0.726049
-0.451669
-0.222732
-0.0779224
-0.0430394
-0.126514
-0.316641
-0.580541
-0.868095
-1.12131
-1.28838
-1.33283
-1.23716
-1.00147
-0.640869
-0.181868
0.340467
0.884993
1.40491
1.84694
2.15536
2.28238
2.20197
5.40306
4.79027
4.1236
3.5079
3.03129
2.73983
2.62861
2.65083
2.73052
2.78319
2.73487
2.53146
2.14798
1.59348
0.918907
0.21186
-0.419843
-0.887978
-1.14017
-1.16467
-0.982346
-0.641853
-0.21159
0.226877
0.592401
0.817781
0.856101
0.688412
0.328035
-0.171937
-0.723587
-1.21995
-1.57333
-1.73095
-1.67956
-1.43777
-1.0514
-0.585711
-0.119034
0.270508
0.518214
0.579035
0.435114
0.100026
-0.373877
-0.900293
-1.37439
-1.71024
-1.8561
-1.79891
-1.55674
-1.17428
-0.715195
-0.255924
0.127329
0.371489
0.4327
0.293668
-0.0322224
-0.493772
-1.00672
-1.46878
-1.79617
-1.93845
-1.88293
-1.64724
-1.27491
-0.827952
-0.380775
-0.00753793
0.2304
0.290423
0.155837
-0.160039
-0.606773
-1.1012
-1.54171
-1.84339
-1.95179
-1.84644
-1.53263
-1.03622
-0.396253
0.338677
1.11595
1.87717
2.54608
3.03092
3.24355
3.12921
6.43241
5.52416
4.49201
3.56013
2.89366
2.57092
2.5691
2.80099
3.12651
3.39737
3.49602
3.33237
2.86258
2.08452
1.07532
-0.0173254
-0.979888
-1.66414
-1.99161
-1.9607
-1.60863
-1.01438
-0.280668
0.46095
1.07961
1.47459
1.56995
1.33184
0.764843
-0.0515402
-0.970635
-1.78295
-2.34244
-2.57067
-2.46382
-2.056
-1.42218
-0.660824
0.101131
0.737126
1.14976
1.26562
1.05229
0.514795
-0.26868
-1.1544
-1.93735
-2.4746
-2.68939
-2.57794
-2.17351
-1.5493
-0.801451
-0.0538997
0.56983
0.974756
1.08937
0.882257
0.358539
-0.405286
-1.26891
-2.03235
-2.55631
-2.76605
-2.65801
-2.2647
-1.65754
-0.930212
-0.203439
0.402452
0.794889
0.904093
0.699217
0.184975
-0.564356
-1.41194
-2.16207
-2.67672
-2.87854
-2.75594
-2.32676
-1.63828
-0.747404
0.275897
1.37004
2.48232
3.5103
4.29845
4.67554
4.51708
7.80846
6.43646
4.71601
3.23018
2.26103
1.93986
2.17302
2.81631
3.6012
4.25953
4.63488
4.5741
4.02107
2.90839
1.35187
-0.433857
-1.94073
-2.95413
-3.35916
-3.21923
-2.58369
-1.58778
-0.361169
0.872046
1.88887
2.56282
2.76395
2.44884
1.56072
0.216717
-1.37149
-2.71008
-3.58863
-3.89294
-3.68156
-2.99971
-1.97666
-0.736858
0.502623
1.52533
2.20861
2.42619
2.13621
1.28372
-0.0163024
-1.55656
-2.85417
-3.70336
-3.99253
-3.77894
-3.1068
-2.10241
-0.887343
0.326367
1.32735
1.99601
2.20928
1.92669
1.095
-0.17315
-1.6754
-2.94083
-3.76896
-4.05129
-3.84391
-3.19016
-2.21326
-1.03172
0.147921
1.11977
1.76719
1.96999
1.68805
0.868481
-0.380486
-1.86305
-3.12151
-3.96056
-4.27247
-4.1069
-3.49432
-2.53179
-1.28926
0.111097
1.59799
3.20888
4.81985
6.15791
6.87868
6.67998
9.90474
7.85052
4.60213
2.15621
0.695331
0.510524
1.18636
2.62773
4.25815
5.52916
6.40177
6.52466
5.98547
4.37139
1.95847
-1.25197
-3.61219
-5.12018
-5.51149
-5.19149
-4.07773
-2.49343
-0.451209
1.59471
3.19185
4.3319
4.7013
4.39093
3.01306
0.836586
-2.13181
-4.29971
-5.66179
-5.95783
-5.57681
-4.43481
-2.84332
-0.81247
1.21623
2.80224
3.93803
4.3176
4.03012
2.69702
0.581978
-2.30818
-4.41676
-5.73861
-6.01969
-5.6403
-4.51858
-2.95896
-0.971322
1.01291
2.56336
3.67297
4.04317
3.7618
2.4599
0.39605
-2.42295
-4.47906
-5.7676
-6.04173
-5.67262
-4.58099
-3.06369
-1.13051
0.79846
2.30423
3.3797
3.73391
3.45101
2.1703
0.139736
-2.63687
-4.68493
-6.00349
-6.35397
-6.10157
-5.16577
-3.82852
-2.05838
-0.178315
1.64739
3.93531
6.52237
8.90638
10.4059
10.2601
13.5865
10.9842
3.33265
-0.336239
-2.70794
-2.15814
-0.902686
2.1669
5.43264
7.37247
9.24829
9.42859
9.49773
6.98471
3.71347
-3.29443
-6.51088
-8.89434
-8.68815
-8.30679
-6.24941
-4.05853
-0.546623
2.9636
5.15298
7.21067
7.61748
7.87019
5.61536
2.59678
-4.04492
-7.04977
-9.27011
-8.99777
-8.56792
-6.51723
-4.34272
-0.885043
2.56724
4.72743
6.75637
7.16949
7.42967
5.23628
2.29637
-4.18534
-7.11229
-9.27262
-8.99798
-8.57068
-6.56098
-4.43193
-1.05046
2.32405
4.43409
6.41464
6.81524
7.06643
4.92193
2.05262
-4.26914
-7.12262
-9.22702
-8.95851
-8.54177
-6.58485
-4.51301
-1.2233
2.05836
4.10828
6.03077
6.41518
6.65079
4.55185
1.73422
-4.45981
-7.29883
-9.44045
-9.30363
-9.08032
-7.41533
-5.7486
-2.9858
-0.389464
1.03119
4.23089
8.51709
12.9282
16.3024
16.7892
20.5525
21.3891
-3.67177
-4.69667
-10.3182
-5.84299
-5.60409
1.42357
8.51647
9.30794
14.5364
12.4926
16.7283
10.6899
10.8493
-10.7966
-10.6091
-16.3976
-12.1171
-13.8356
-8.61336
-7.52596
-0.639654
6.23446
7.30373
12.4667
10.7556
14.9603
9.31745
9.57425
-11.1951
-10.9296
-16.4679
-12.2646
-13.8931
-8.778
-7.68996
-0.949899
5.77883
6.84158
11.9014
10.2416
14.3623
8.85047
9.11088
-11.1814
-10.9118
-16.3131
-12.1961
-13.7798
-8.77531
-7.70843
-1.11963
5.45598
6.4912
11.4314
9.80239
13.8208
8.42763
8.68065
-11.1097
-10.8449
-16.1035
-12.0887
-13.6288
-8.75421
-7.71609
-1.30455
5.0919
6.09578
10.8966
9.31069
13.2122
7.96829
8.19068
-11.114
-10.917
-16.1583
-12.3778
-14.1351
-9.66737
-9.247
-3.67351
1.09234
-2.14699
2.96177
10.3317
18.4429
26.3565
30.7812
30.4579
69.0824
-45.2891
-2.43902
-32.4691
-3.42885
-20.0827
0.584909
20.673
4.85274
30.2949
6.51267
38.752
5.46846
49.383
-49.741
-6.104
-38.4026
-6.90971
-29.3616
-5.0254
-19.3462
-0.717497
17.8619
3.55713
27.6191
5.37227
36.2283
4.52146
46.8268
-48.6384
-6.4547
-37.6967
-7.13631
-28.9322
-5.24271
-19.1791
-1.00138
17.1465
3.19694
26.7199
4.98662
35.1628
4.14957
45.5182
-47.7896
-6.54832
-37.0628
-7.18856
-28.4788
-5.32257
-18.9395
-1.17281
16.563
2.92216
25.9047
4.65433
34.1247
3.79987
44.1682
-46.8325
-6.61619
-36.3361
-7.22273
-27.9555
-5.40161
-18.6594
-1.36655
15.8882
2.61325
24.9569
4.30195
32.9408
3.51104
42.7639
-45.8523
-6.70581
-35.8693
-7.47927
-28.1552
-6.09272
-20.1672
-3.19956
14.1002
-17.3602
-1.57733
11.0651
24.2284
41.4209
69.0864
28852.9
28814.6
28776.2
28737.8
28699.3
28660.9
28622.5
28584.2
28546
28507.9
28469.9
28432
28394.2
28356.5
28318.8
0.177566
0.136802
0.0845038
0.0266505
-0.0306687
-0.0820892
-0.123505
-0.152284
-0.167232
-0.168386
-0.156745
-0.133997
-0.102285
-0.0640264
-0.0217878
0.313887
0.240575
0.146818
0.0436777
-0.057778
-0.148015
-0.219947
-0.269231
-0.294094
-0.294899
-0.273613
-0.23331
-0.177759
-0.111128
-0.0377909
0.479852
0.364843
0.218561
0.0590634
-0.0960666
-0.23221
-0.339006
-0.41057
-0.44499
-0.443482
-0.409482
-0.347858
-0.264304
-0.164934
-0.0560378
0.692289
0.520381
0.303518
0.0700814
-0.153341
-0.345751
-0.493295
-0.58905
-0.631812
-0.624555
-0.572974
-0.484334
-0.366665
-0.228266
-0.0774636
0.974189
0.720866
0.405042
0.0710795
-0.24163
-0.50416
-0.699374
-0.820521
-0.868652
-0.849949
-0.773522
-0.649839
-0.489753
-0.303999
-0.103014
1.35828
0.983839
0.524692
0.0508169
-0.380105
-0.729887
-0.979519
-1.12501
-1.17233
-1.13307
-1.02132
-0.851743
-0.638509
-0.394961
-0.133609
1.89286
1.33149
0.659053
-0.0124116
-0.599729
-1.05577
-1.36381
-1.52766
-1.56257
-1.48867
-1.32696
-1.0973
-0.817578
-0.503725
-0.17007
2.65158
1.7902
0.792421
-0.159802
-0.950643
-1.52966
-1.8923
-2.05926
-2.06163
-1.93206
-1.70055
-1.39291
-1.03078
-0.63229
-0.213016
3.75066
2.38532
0.880244
-0.468568
-1.51337
-2.21995
-2.61646
-2.75545
-2.69262
-2.4774
-2.15026
-1.743
-1.28033
-0.78164
-0.26272
5.37893
3.12016
0.811774
-1.08136
-2.41431
-3.22029
-3.59813
-3.65346
-3.47598
-3.13467
-2.68009
-2.1485
-1.5659
-0.951219
-0.318941
7.84668
3.90464
0.328078
-2.25434
-3.84225
-4.64876
-4.9023
-4.78429
-4.42317
-3.9052
-3.2869
-2.60502
-1.88353
-1.1384
-0.380765
11.6237
4.32361
-1.14971
-4.42178
-6.05158
-6.63019
-6.57801
-6.1582
-5.5272
-4.77605
-3.9573
-3.10114
-2.2248
-1.33806
-0.446487
17.0653
2.91569
-4.82883
-8.2314
-9.31207
-9.24239
-8.62133
-7.7433
-6.75137
-5.71448
-4.66509
-3.61742
-2.57648
-1.54257
-0.513603
21.6938
-4.89737
-12.85
-14.3629
-13.7229
-12.406
-10.9216
-9.44228
-8.02047
-6.66541
-5.37115
-4.12696
-2.92112
-1.74212
-0.57896
0.555955
1.6754
2.81795
4.00063
5.24326
6.57006
8.01214
9.61115
11.4246
13.5335
16.0493
19.1038
22.7268
26.1077
23.4532
0.567105
1.70921
2.87554
4.08415
5.35627
6.71851
8.20611
9.86855
11.7795
14.0559
16.8991
20.6949
26.3043
36.0803
58.1012
0.572773
1.7262
2.90379
4.12356
5.40673
6.77993
8.27868
9.95342
11.8806
14.1847
17.0875
21.0268
26.9883
37.5498
60.5928
0.572972
1.7264
2.90276
4.11896
5.39468
6.75416
8.22905
9.86302
11.7199
13.8979
16.5561
19.9543
24.4779
30.3515
35.0979
0.567974
1.71069
2.87406
4.07303
5.32446
6.64827
8.06897
9.61788
11.3361
13.2778
15.5108
18.1003
21.03
23.9361
25.616
0.558274
1.68064
2.82065
3.99068
5.20399
6.4751
7.81987
9.25518
10.7971
12.4554
14.2179
16.0102
17.5986
18.3723
16.8481
0.544533
1.63834
2.7464
3.87827
5.0434
6.25079
7.5079
8.81844
10.1774
11.5608
12.9043
14.0616
14.7332
14.4042
12.6871
0.527501
1.58615
2.65563
3.74276
4.85348
5.99195
7.15886
8.34809
9.54073
10.6938
11.72
12.4503
12.5626
11.4001
7.21996
0.507936
1.52643
2.55262
3.59088
4.64429
5.71339
6.79432
7.87539
8.93154
9.91503
10.7412
11.2682
11.2774
10.4916
8.87766
0.486547
1.46138
2.44121
3.4285
4.4242
5.42663
6.42968
7.42002
8.37282
9.24555
9.97005
10.4457
10.5444
10.1581
9.35261
0.46395
1.39287
2.32463
3.26028
4.19946
5.13946
6.07389
6.99073
7.86973
8.67901
9.37175
9.88511
10.1482
10.1157
9.86588
0.440643
1.3224
2.20535
3.08961
3.97415
4.85616
5.73031
6.58774
7.41507
8.19343
8.89804
9.4983
9.95728
10.2242
10.1977
0.417012
1.25109
2.08517
2.91876
3.75059
4.57834
5.39835
6.20568
6.99442
7.75908
8.4968
9.20961
9.89978
10.5364
10.9642
0.393346
1.17978
1.96534
2.74914
3.52989
4.30589
5.07522
5.83651
6.59052
7.34346
8.11287
8.93666
9.87944
10.9938
11.9784
0.36986
1.10908
1.84673
2.58163
3.31249
4.03807
4.75769
5.47242
6.18738
6.9164
7.6912
8.58108
9.73999
11.5412
15.0354
0.346726
1.03946
1.73003
2.41694
3.09877
3.77439
4.44357
5.10818
5.7745
6.45755
7.18964
8.0387
9.15455
10.9129
14.4696
0.32409
0.971356
1.61587
2.25579
2.88938
3.5152
4.13262
4.74276
5.35001
5.96466
6.60686
7.31105
8.12296
9.03575
9.53848
0.302091
0.905164
1.5049
2.09905
2.68538
3.26183
3.82675
4.37936
4.92038
5.45266
5.98104
6.50862
7.02132
7.44342
7.5826
0.280863
0.841294
1.39781
1.94773
2.48825
3.01648
3.52944
4.02402
4.49682
4.94338
5.3558
5.71653
5.98263
6.04756
5.63296
0.260535
0.780142
1.29531
1.80294
2.29966
2.78175
3.24489
3.68381
4.0915
4.45781
4.76647
4.99015
5.08365
4.98473
4.68284
0.241223
0.722071
1.19806
1.66573
2.12124
2.56019
2.97718
3.36528
3.71494
4.01228
4.23617
4.35421
4.31829
4.06287
3.49091
0.223023
0.667378
1.10659
1.53695
1.95434
2.35388
2.72955
3.07345
3.37473
3.61775
3.77939
3.82518
3.70539
3.36085
2.81071
0.205997
0.616261
1.02126
1.4172
1.79983
2.16416
2.50398
2.81124
3.07498
3.27975
3.40309
3.41114
3.24856
2.80163
1.7127
0.190173
0.568805
0.942219
1.30668
1.65804
1.99146
2.30103
2.57925
2.81619
2.99832
3.10685
3.11561
2.9892
2.68825
2.23725
0.175541
0.524975
0.869401
1.20528
1.52872
1.83532
2.11986
2.37594
2.59548
2.76801
2.8799
2.91396
2.85107
2.67907
2.41793
0.162055
0.484623
0.802523
1.11251
1.4111
1.69451
1.95845
2.19802
2.40743
2.57982
2.70701
2.77966
2.78871
2.73181
2.63751
0.149641
0.447516
0.741148
1.02765
1.30403
1.56722
1.81398
2.04104
2.2451
2.42302
2.57201
2.68954
2.77216
2.81053
2.77277
0.138205
0.413356
0.684729
0.949815
1.20614
1.45133
1.68321
1.90005
2.10093
2.28632
2.45886
2.62368
2.78636
2.94215
3.05081
0.127645
0.381821
0.632678
0.878071
1.11599
1.34469
1.56289
1.77015
1.96753
2.15857
2.35108
2.55933
2.80535
3.1065
3.37378
0.117857
0.352594
0.584424
0.811521
1.03225
1.24535
1.45017
1.64714
1.83852
2.02982
2.23237
2.46876
2.78608
3.29439
4.30038
0.108751
0.325386
0.539461
0.749393
0.953822
1.15177
1.34292
1.528
1.70959
1.89328
2.09018
2.32201
2.63418
3.13671
4.1614
0.100245
0.299959
0.497378
0.691092
0.879894
1.06292
1.23987
1.41132
1.57919
1.74757
1.92375
2.11949
2.35011
2.61643
2.7768
0.0922793
0.276128
0.457872
0.636206
0.809981
0.978304
1.14067
1.29712
1.44846
1.59646
1.74375
1.89276
2.04128
2.16976
2.22559
0.0848076
0.253759
0.420738
0.584489
0.743859
0.89783
1.04557
1.18647
1.32007
1.44585
1.56257
1.66638
1.74638
1.77355
1.66958
0.0777974
0.232763
0.385847
0.535821
0.681491
0.821688
0.955246
1.08091
1.19711
1.30155
1.39036
1.45656
1.48817
1.46843
1.39587
0.0712252
0.213074
0.353119
0.490148
0.622928
0.750164
0.870411
0.981917
1.08232
1.16813
1.23386
1.27078
1.26564
1.20002
1.04609
0.0650711
0.194641
0.322487
0.447429
0.568223
0.6835
0.791654
0.890648
0.977684
1.04867
1.09737
1.11423
1.08513
0.992934
0.843808
0.0593148
0.177407
0.293876
0.407595
0.517354
0.621789
0.719266
0.807692
0.884204
0.944686
0.982999
0.989613
0.948441
0.825399
0.511416
0.0539322
0.161303
0.267179
0.370516
0.470188
0.564917
0.653173
0.733019
0.801865
0.856114
0.890655
0.898193
0.86862
0.790472
0.671287
0.0488932
0.146238
0.242246
0.335988
0.426461
0.512546
0.592929
0.665995
0.729674
0.781239
0.817075
0.832558
0.822543
0.784053
0.723901
0.0441616
0.132103
0.218892
0.303733
0.385787
0.464142
0.537774
0.605499
0.665907
0.7173
0.757643
0.784642
0.796254
0.79269
0.78333
0.0396958
0.118771
0.196893
0.273419
0.347688
0.419025
0.48673
0.550093
0.608412
0.661045
0.70749
0.747424
0.78052
0.805366
0.815476
0.0354506
0.106102
0.176007
0.244675
0.311632
0.376437
0.438711
0.4982
0.554875
0.609102
0.661872
0.714971
0.77053
0.828294
0.878507
0.0313793
0.093954
0.155983
0.217124
0.277077
0.335613
0.392635
0.448272
0.50305
0.558183
0.61604
0.680824
0.759028
0.856482
0.952647
0.0274364
0.0821868
0.136578
0.190403
0.243511
0.295848
0.347528
0.398949
0.450991
0.505386
0.565413
0.637375
0.734176
0.885588
1.17278
0.0235794
0.0706709
0.11757
0.164185
0.210486
0.256547
0.302612
0.349205
0.39731
0.448691
0.506513
0.576693
0.671422
0.820423
1.11527
0.0197698
0.0592902
0.0987629
0.138191
0.177634
0.217249
0.257337
0.298422
0.341366
0.387537
0.439046
0.498981
0.570999
0.654003
0.705534
0.0159742
0.0479447
0.07999
0.112189
0.144669
0.17763
0.211378
0.246358
0.283193
0.32269
0.365742
0.412896
0.462967
0.509465
0.537325
0.0121639
0.0365492
0.0611133
0.0859974
0.111376
0.137473
0.164571
0.193015
0.223183
0.255388
0.289603
0.324802
0.357435
0.37789
0.36058
0.00831428
0.0250313
0.0420176
0.0594664
0.0775906
0.0966279
0.116838
0.138484
0.16177
0.186702
0.212794
0.238505
0.260378
0.272556
0.272005
0.00440394
0.0133284
0.0226039
0.0324708
0.0431765
0.0549749
0.0681169
0.0828236
0.0992236
0.117224
0.136263
0.154886
0.170068
0.176078
0.160218
0.000413362
0.00138337
0.00278275
0.004897
0.00800917
0.0123958
0.0183172
0.0259966
0.0355766
0.0470357
0.0600348
0.0736684
0.0861427
0.0948004
0.0995282
-0.00367605
-0.010858
-0.0175318
-0.0233655
-0.0280377
-0.0312424
-0.0326954
-0.0321413
-0.029365
-0.0242111
-0.0166223
-0.00673149
0.00487986
0.0162637
0.0199416
-0.00788296
-0.0234505
-0.0384268
-0.0524304
-0.0650981
-0.0760906
-0.0850941
-0.0918134
-0.0959479
-0.0971378
-0.0948665
-0.0883143
-0.0762133
-0.0569111
-0.0293881
-0.012227
-0.0364517
-0.0599944
-0.082419
-0.103317
-0.122313
-0.139071
-0.153272
-0.164566
-0.172458
-0.176072
-0.173739
-0.162296
-0.135784
-0.0808408
-0.0167297
-0.0499248
-0.0823355
-0.113464
-0.14285
-0.170085
-0.194817
-0.21674
-0.235537
-0.250737
-0.261397
-0.265478
-0.25883
-0.234391
-0.186836
-0.0214151
-0.0639411
-0.105564
-0.145714
-0.183872
-0.219588
-0.252506
-0.28237
-0.308995
-0.332158
-0.351279
-0.364655
-0.367707
-0.349037
-0.279883
-0.0263112
-0.0785828
-0.129813
-0.179345
-0.226584
-0.271027
-0.312309
-0.350241
-0.384849
-0.416376
-0.445139
-0.470988
-0.491655
-0.498726
-0.474214
-0.0314504
-0.0939461
-0.155238
-0.214564
-0.271231
-0.324657
-0.374432
-0.42041
-0.462832
-0.502502
-0.541012
-0.580905
-0.62503
-0.670331
-0.666898
-0.0368704
-0.110144
-0.182026
-0.251627
-0.318125
-0.380815
-0.439185
-0.493041
-0.542717
-0.589424
-0.635911
-0.68787
-0.757573
-0.875763
-1.14019
-0.0426144
-0.127306
-0.210394
-0.29084
-0.367658
-0.439967
-0.507064
-0.568567
-0.624655
-0.676487
-0.726997
-0.782499
-0.856427
-0.979624
-1.23297
-0.0487308
-0.14558
-0.240596
-0.332569
-0.420319
-0.502732
-0.57882
-0.647847
-0.709538
-0.764457
-0.814605
-0.864318
-0.92105
-0.993082
-1.06645
-0.0552719
-0.165126
-0.272907
-0.377226
-0.476683
-0.569884
-0.655474
-0.732212
-0.799117
-0.855729
-0.902504
-0.941249
-0.975034
-1.00559
-1.02407
-0.0622916
-0.18611
-0.307622
-0.425255
-0.537385
-0.642316
-0.73827
-0.823398
-0.895834
-0.953823
-0.995969
-1.02161
-1.03124
-1.02649
-1.00885
-0.0698421
-0.208693
-0.345027
-0.477103
-0.603084
-0.720977
-0.828576
-0.92339
-1.00258
-1.06291
-1.10088
-1.11309
-1.09743
-1.05631
-1.00403
-0.0779708
-0.233024
-0.385386
-0.533182
-0.674394
-0.806781
-0.927756
-1.03423
-1.1224
-1.18752
-1.22368
-1.2239
-1.18129
-1.09386
-0.978822
-0.0867162
-0.259221
-0.428915
-0.593829
-0.75183
-0.900505
-1.037
-1.15777
-1.25823
-1.33223
-1.37143
-1.36445
-1.29626
-1.15059
-0.93814
-0.0961055
-0.287368
-0.47576
-0.659275
-0.835737
-1.00268
-1.15716
-1.29541
-1.41242
-1.5011
-1.55124
-1.54749
-1.46502
-1.25369
-0.757834
-0.106153
-0.317508
-0.525991
-0.729615
-0.92625
-1.11352
-1.28858
-1.44781
-1.58626
-1.69674
-1.76847
-1.78519
-1.72327
-1.55437
-1.28573
-0.11686
-0.34964
-0.579596
-0.804804
-1.02327
-1.23282
-1.43098
-1.61464
-1.77953
-1.91928
-2.0239
-2.0775
-2.05581
-1.92432
-1.62857
-0.128218
-0.383734
-0.636495
-0.884677
-1.12647
-1.36003
-1.58344
-1.79449
-1.99024
-2.16622
-2.31474
-2.42209
-2.46458
-2.40833
-2.24373
-0.140215
-0.419739
-0.696571
-0.968986
-1.23537
-1.49429
-1.7445
-1.98496
-2.21468
-2.43221
-2.63417
-2.8117
-2.94193
-2.96757
-2.74026
-0.152839
-0.457614
-0.759713
-1.05748
-1.34947
-1.63459
-1.91231
-2.18287
-2.44759
-2.70901
-2.97055
-3.23417
-3.49189
-3.70248
-3.76422
-0.166091
-0.497346
-0.825862
-1.14998
-1.46832
-1.78003
-2.08509
-2.38485
-2.68278
-2.98571
-3.30548
-3.66073
-4.07456
-4.54074
-4.78893
-0.179987
-0.538978
-0.895066
-1.24648
-1.59178
-1.93009
-2.26155
-2.58808
-2.9145
-3.25072
-3.61578
-4.04658
-4.62088
-5.53039
-7.3671
-0.194565
-0.582626
-0.967511
-1.34724
-1.72009
-2.08488
-2.44145
-2.79137
-3.13939
-3.4957
-3.8804
-4.33279
-4.9344
-5.87614
-7.6884
-0.209886
-0.628477
-1.04354
-1.45276
-1.85398
-2.2454
-2.62594
-2.99599
-3.35853
-3.72097
-4.098
-4.51537
-5.01171
-5.61734
-6.18215
-0.226025
-0.67678
-1.12361
-1.56384
-1.99469
-2.41345
-2.81771
-3.20582
-3.57772
-3.93609
-4.28758
-4.64311
-5.01312
-5.38687
-5.68152
-0.243065
-0.727802
-1.20828
-1.68142
-2.14378
-2.59158
-3.02069
-3.42689
-3.8063
-4.15598
-4.47435
-4.76077
-5.01192
-5.21133
-5.30359
-0.261072
-0.78178
-1.29805
-1.80647
-2.30299
-2.78269
-3.23957
-3.66656
-4.05553
-4.39759
-4.68331
-4.90292
-5.04664
-5.11019
-5.12527
-0.280076
-0.838842
-1.39326
-1.93978
-2.47388
-2.98962
-3.47921
-3.93262
-4.33734
-4.67831
-4.93818
-5.09775
-5.13704
-5.04269
-4.84533
-0.300043
-0.898923
-1.49394
-2.08171
-2.65751
-3.21471
-3.74396
-4.2325
-4.66341
-5.01533
-5.26268
-5.3761
-5.32022
-5.04672
-4.55817
-0.320846
-0.961681
-1.59967
-2.23194
-2.85407
-3.45919
-4.03698
-4.57237
-5.04432
-5.42496
-5.68019
-5.77201
-5.65452
-5.2001
-3.66272
-0.342242
-1.02642
-1.70936
-2.38922
-3.06242
-3.72265
-4.35943
-4.9563
-5.48863
-5.92166
-6.21118
-6.31326
-6.2228
-6.1055
-6.78677
-0.363854
-1.092
-1.82119
-2.55111
-3.27978
-4.00238
-4.70958
-5.38505
-6.00188
-6.51801
-6.87231
-6.9882
-6.80969
-6.45631
-6.81549
-0.38516
-1.15686
-1.9325
-2.71386
-3.50135
-4.2928
-5.08176
-5.85451
-6.58504
-7.22672
-7.699
-7.86756
-7.51801
-6.31226
-3.56513
-0.405504
-1.219
-2.03982
-2.87237
-3.72015
-4.58493
-5.46518
-6.35328
-7.22988
-8.05306
-8.73657
-9.10672
-8.82087
-7.2386
-3.3586
-0.424122
-1.27604
-2.13898
-3.02029
-3.92715
-4.86629
-5.84315
-6.86002
-7.91181
-8.97638
-9.99174
-10.8014
-11.024
-9.76056
-5.12234
-0.440186
-1.32542
-2.2254
-3.15046
-4.11172
-5.12145
-6.19332
-7.34248
-8.58484
-9.93386
-11.3897
-12.9039
-14.259
-14.6261
-10.7794
-0.452873
-1.36456
-2.29439
-3.25547
-4.26263
-5.33345
-6.48981
-7.76021
-9.18379
-10.8171
-12.7471
-15.1168
-18.18
-22.4179
-28.7366
-11.9259
-27.0499
-25.5556
-21.8286
-18.3689
-15.4686
-13.0391
-10.9593
-9.13262
-7.48908
-5.97827
-4.56309
-3.21527
-1.91215
-0.634609
-116.213
-60.6334
-39.1568
-28.5469
-22.2202
-17.9174
-14.709
-12.1514
-10.0074
-8.1387
-6.45851
-4.90901
-3.44906
-2.04749
-0.678933
-129.179
-70.534
-45.2115
-32.2906
-24.666
-19.6062
-15.9269
-13.0563
-10.6911
-8.65735
-6.848
-5.19271
-3.64229
-2.15989
-0.715832
-70.9592
-57.2939
-42.6539
-32.3563
-25.3307
-20.3362
-16.5833
-13.6101
-11.1445
-9.02016
-7.13047
-5.40359
-3.78828
-2.24566
-0.744122
-50.0898
-44.7307
-37.0805
-30.1497
-24.5848
-20.204
-16.6981
-13.8114
-11.361
-9.21997
-7.29985
-5.53698
-3.88378
-2.3029
-0.763176
-31.8166
-33.7583
-31.0076
-26.9944
-23.0164
-19.4642
-16.3828
-13.7097
-11.3625
-9.26638
-7.36002
-5.59418
-3.92905
-2.33154
-0.772945
-23.4789
-26.0444
-25.8113
-23.8147
-21.1524
-18.3974
-15.784
-13.3817
-11.1896
-9.181
-7.32259
-5.58144
-3.92737
-2.33315
-0.773889
-13.0632
-20.274
-21.8395
-21.0973
-19.3527
-17.2321
-15.0387
-12.9077
-10.8892
-8.99132
-7.20372
-5.5082
-3.8841
-2.31049
-0.766853
-15.7832
-18.4239
-19.4703
-19.0758
-17.8141
-16.1174
-14.2499
-12.3557
-10.5049
-8.72505
-7.02088
-5.38535