/*--------------------------------*- C++ -*----------------------------------*\
| =========                 |                                                 |
| \\      /  F ield         | OpenFOAM: The Open Source CFD Toolbox           |
|  \\    /   O peration     | Version:  5.x                                   |
|   \\  /    A nd           | Web:      www.OpenFOAM.org                      |
|    \\/     M anipulation  |                                                 |
\*---------------------------------------------------------------------------*/
FoamFile
{
    version     2.0;
    format      ascii;
    class       volScalarField;
    location    "3.5";
    object      gradTx;
}
// * * * * * * * * * * * * * * * * * * * * * * * * * * * * * * * * * * * * * //

dimensions      [0 -1 0 1 0 0 0];

internalField   nonuniform List<scalar> 
6300
(
-30.234
-30.3036
-30.4421
-30.6481
-30.9195
-31.2532
-31.645
-32.0897
-32.5807
-33.1102
-33.6692
-34.2475
-34.8346
-35.4196
-35.9922
-30.1645
-30.2347
-30.3746
-30.5829
-30.8573
-31.1951
-31.5922
-32.0434
-32.5423
-33.0808
-33.6499
-34.2389
-34.8368
-35.432
-36.0136
-30.0248
-30.0964
-30.239
-30.4514
-30.732
-31.0779
-31.4854
-31.9497
-32.4642
-33.0211
-33.6106
-34.2217
-34.8419
-35.4583
-36.0585
-29.8137
-29.8871
-30.0335
-30.2521
-30.5414
-30.8991
-31.3221
-31.8058
-32.344
-32.9288
-33.55
-34.1953
-34.8508
-35.501
-36.1308
-29.5292
-29.6049
-29.756
-29.9821
-30.2824
-30.6552
-31.0981
-31.6074
-32.1774
-32.8002
-33.4653
-34.159
-34.865
-35.5643
-36.2373
-29.1692
-29.2473
-29.4036
-29.6382
-29.9509
-30.3413
-30.808
-31.3484
-31.958
-32.6295
-33.352
-34.1107
-34.8859
-35.6539
-36.3883
-28.7312
-28.8117
-28.9731
-29.2162
-29.5419
-29.9511
-30.4442
-31.0204
-31.6768
-32.4077
-33.2028
-34.0459
-34.9142
-35.7772
-36.5986
-28.2128
-28.2953
-28.461
-28.7116
-29.0494
-29.4772
-29.9974
-30.6121
-31.3214
-32.122
-33.0056
-33.9562
-34.9478
-35.9422
-36.889
-27.6121
-27.6957
-27.864
-28.1199
-28.4672
-28.9108
-29.4564
-30.1095
-30.8746
-31.7534
-32.7415
-33.8255
-34.9786
-36.1551
-37.2865
-26.928
-27.0113
-27.1797
-27.437
-27.7888
-28.2426
-28.8078
-29.4948
-30.3144
-31.2755
-32.3815
-33.6261
-34.986
-36.4132
-37.8223
-26.1606
-26.2419
-26.4066
-26.6597
-27.0084
-27.4632
-28.0375
-28.7477
-29.6129
-30.6526
-31.8831
-33.3113
-34.9264
-36.6895
-38.5169
-25.3122
-25.389
-25.5453
-25.7867
-26.1222
-26.5645
-27.1313
-27.8458
-28.7371
-29.8391
-31.1871
-32.8099
-34.7188
-36.9015
-39.3299
-24.387
-24.4567
-24.599
-24.8199
-25.1291
-25.5413
-26.0775
-26.7672
-27.6506
-28.7796
-30.2165
-32.0226
-34.2375
-36.8681
-40.0034
-23.3921
-23.4519
-23.5742
-23.7648
-24.0331
-24.3941
-24.8703
-25.4951
-26.3184
-27.4125
-28.8766
-30.8267
-33.3405
-36.33
-39.6451
-22.3376
-22.3848
-22.4814
-22.632
-22.8446
-23.132
-23.5145
-24.0246
-24.7156
-25.6756
-27.051
-29.0671
-31.9681
-35.4665
-36.0364
-36.4995
-36.9395
-37.3571
-37.7505
-38.1188
-38.4621
-38.7807
-39.0753
-39.3462
-39.5934
-39.8163
-40.0141
-40.1861
-40.3315
-40.4503
-40.5434
-40.6127
-40.6611
-40.6922
-40.7101
-40.7189
-40.7221
-40.7225
-40.7217
-40.7201
-40.717
-40.7109
-40.6999
-40.6819
-40.6556
-40.6201
-40.5759
-40.5242
-40.4671
-40.4074
-40.3477
-40.2904
-40.2373
-40.1889
-40.1449
-40.1039
-40.0638
-40.0221
-39.9764
-39.925
-39.8667
-39.8016
-39.7307
-39.6559
-39.5795
-39.5041
-39.4319
-39.3643
-39.3019
-39.2443
-39.19
-39.1368
-39.0824
-39.0244
-38.9609
-38.891
-38.8145
-38.7325
-38.6468
-38.5598
-38.474
-38.3917
-38.3143
-38.2427
-38.1765
-38.1147
-38.0556
-37.9973
-37.9382
-37.8772
-37.8143
-37.7508
-37.689
-37.6324
-37.5851
-37.5516
-37.5358
-37.541
-37.5692
-37.6206
-37.6937
-37.7851
-37.8896
-38.0011
-38.1122
-36.5276
-36.9719
-37.3922
-37.7867
-38.155
-38.4976
-38.8155
-39.1095
-39.3805
-39.6284
-39.8525
-40.0516
-40.2244
-40.3698
-40.4874
-40.5778
-40.6429
-40.686
-40.7113
-40.7233
-40.7269
-40.7262
-40.7243
-40.7229
-40.7223
-40.7214
-40.7181
-40.7099
-40.6941
-40.6687
-40.6328
-40.5867
-40.5319
-40.471
-40.4073
-40.3442
-40.2846
-40.2305
-40.1826
-40.1406
-40.1026
-40.0661
-40.0278
-39.9848
-39.9348
-39.8766
-39.81
-39.7364
-39.6581
-39.5781
-39.4995
-39.4251
-39.3567
-39.2951
-39.2395
-39.1882
-39.1386
-39.0876
-39.0323
-38.9702
-38.9003
-38.8223
-38.7377
-38.6486
-38.558
-38.469
-38.3844
-38.3061
-38.2348
-38.1702
-38.1108
-38.0544
-37.9985
-37.9408
-37.8798
-37.8152
-37.7482
-37.6814
-37.6188
-37.5653
-37.5259
-37.5054
-37.5078
-37.5356
-37.5893
-37.6673
-37.766
-37.8797
-38.0013
-38.1228
-36.5861
-37.0391
-37.4644
-37.8607
-38.2284
-38.5689
-38.8845
-39.1772
-39.4482
-39.6977
-39.9247
-40.1271
-40.3024
-40.4484
-40.5637
-40.6486
-40.705
-40.7369
-40.7495
-40.7489
-40.7414
-40.7322
-40.7255
-40.7231
-40.725
-40.7293
-40.7326
-40.7309
-40.7201
-40.6972
-40.6604
-40.6101
-40.5484
-40.479
-40.4066
-40.3358
-40.2708
-40.2146
-40.1681
-40.1306
-40.0994
-40.0708
-40.0402
-40.0033
-39.9567
-39.8984
-39.8285
-39.7488
-39.6627
-39.5746
-39.489
-39.4097
-39.3395
-39.2794
-39.2284
-39.184
-39.1423
-39.099
-39.0496
-38.9909
-38.921
-38.8398
-38.7492
-38.6524
-38.5538
-38.4577
-38.368
-38.2875
-38.2171
-38.1561
-38.1024
-38.0523
-38.0021
-37.948
-37.8874
-37.8194
-37.7451
-37.6677
-37.5922
-37.525
-37.4727
-37.442
-37.4381
-37.4646
-37.5227
-37.611
-37.7251
-37.8582
-38.0015
-38.145
-36.68
-37.1462
-37.5785
-37.9762
-38.3409
-38.6764
-38.9868
-39.2762
-39.547
-39.7997
-40.0325
-40.2417
-40.4227
-40.5712
-40.6841
-40.7605
-40.8027
-40.8156
-40.8067
-40.7846
-40.7582
-40.735
-40.7205
-40.7171
-40.7244
-40.7387
-40.7545
-40.7651
-40.7638
-40.7455
-40.7075
-40.65
-40.5761
-40.4915
-40.4034
-40.319
-40.2447
-40.1847
-40.1407
-40.1113
-40.0926
-40.0784
-40.0618
-40.0358
-39.9952
-39.937
-39.861
-39.7704
-39.6703
-39.5675
-39.4692
-39.3812
-39.3079
-39.2505
-39.2078
-39.1758
-39.1485
-39.1189
-39.0804
-39.0277
-38.9579
-38.8709
-38.7695
-38.6589
-38.5458
-38.437
-38.3384
-38.2542
-38.1856
-38.1317
-38.0885
-38.0505
-38.0111
-37.9644
-37.9055
-37.8325
-37.7463
-37.651
-37.5536
-37.4629
-37.3885
-37.3397
-37.3244
-37.348
-37.4127
-37.5173
-37.6567
-37.8219
-38.0013
-38.1814
-36.8178
-37.3022
-37.7426
-38.1392
-38.4959
-38.8199
-39.1195
-39.402
-39.672
-39.9305
-40.1743
-40.3969
-40.5901
-40.7455
-40.857
-40.9219
-40.9425
-40.9259
-40.8829
-40.8267
-40.7704
-40.7253
-40.6994
-40.696
-40.7136
-40.7461
-40.784
-40.8163
-40.832
-40.8224
-40.7828
-40.7134
-40.6192
-40.5093
-40.3949
-40.2878
-40.1978
-40.1318
-40.0922
-40.0768
-40.0792
-40.0896
-40.0967
-40.0895
-40.0592
-40.001
-39.9149
-39.8055
-39.6816
-39.5541
-39.4343
-39.3318
-39.2531
-39.2005
-39.1719
-39.1608
-39.1577
-39.1516
-39.1316
-39.0891
-39.0195
-38.9225
-38.8029
-38.669
-38.5316
-38.4015
-38.2882
-38.198
-38.1332
-38.0916
-38.0671
-38.0504
-38.0308
-37.998
-37.944
-37.8646
-37.7604
-37.6373
-37.5053
-37.3772
-37.2672
-37.1891
-37.1545
-37.1718
-37.2452
-37.3736
-37.5508
-37.7649
-37.9999
-38.2364
-37.0129
-37.5216
-37.9702
-38.3596
-38.698
-38.9988
-39.2769
-39.5458
-39.8138
-40.0826
-40.3467
-40.5947
-40.812
-40.9834
-41.097
-41.1471
-41.136
-41.0742
-40.9784
-40.8691
-40.7665
-40.6882
-40.6461
-40.6449
-40.6814
-40.7456
-40.8218
-40.8916
-40.9367
-40.9426
-40.9012
-40.8126
-40.685
-40.5334
-40.3761
-40.2318
-40.1165
-40.041
-40.0089
-40.0169
-40.0543
-40.1055
-40.1523
-40.1764
-40.1635
-40.1054
-40.0021
-39.8615
-39.6981
-39.5297
-39.3745
-39.248
-39.1606
-39.116
-39.1106
-39.1342
-39.1714
-39.2042
-39.215
-39.1897
-39.1203
-39.0067
-38.8567
-38.6842
-38.5066
-38.3417
-38.2046
-38.1052
-38.0471
-38.0269
-38.0343
-38.0543
-38.0694
-38.0622
-38.019
-37.932
-37.8017
-37.6364
-37.4511
-37.2652
-37.1
-36.9757
-36.9098
-36.9149
-36.9982
-37.1596
-37.3915
-37.678
-37.9959
-38.3171
-37.286
-37.8278
-38.2829
-38.6536
-38.9547
-39.2103
-39.4478
-39.6911
-39.9547
-40.2416
-40.5422
-40.8369
-41.1
-41.3045
-41.4286
-41.4606
-41.4028
-41.2715
-41.0937
-40.9017
-40.7278
-40.5992
-40.5341
-40.5394
-40.6096
-40.728
-40.869
-41.0024
-41.0979
-41.1309
-41.0876
-40.9678
-40.7857
-40.5659
-40.3386
-40.1342
-39.9781
-39.8875
-39.8682
-39.9144
-40.0095
-40.1281
-40.2404
-40.3167
-40.3327
-40.2748
-40.1429
-39.9505
-39.7219
-39.4863
-39.2733
-39.1078
-39.0065
-38.975
-39.0076
-39.0879
-39.1913
-39.2885
-39.3505
-39.3537
-39.2846
-39.1432
-38.9427
-38.7066
-38.4634
-38.242
-38.0664
-37.9528
-37.9066
-37.9222
-37.9831
-38.0653
-38.1399
-38.1782
-38.1567
-38.0619
-37.8933
-37.664
-37.3975
-37.1235
-36.8738
-36.6783
-36.5624
-36.5454
-36.6385
-36.8441
-37.1535
-37.5457
-37.9871
-38.435
-37.6693
-38.2587
-38.7176
-39.048
-39.2768
-39.448
-39.6107
-39.807
-40.0624
-40.381
-40.7464
-41.1249
-41.4724
-41.7417
-41.893
-41.9036
-41.7756
-41.536
-41.2294
-40.9084
-40.624
-40.4187
-40.3208
-40.3405
-40.4685
-40.6778
-40.9272
-41.1678
-41.3492
-41.4294
-41.384
-41.2129
-40.9406
-40.6092
-40.2684
-39.967
-39.7456
-39.6312
-39.633
-39.7418
-39.9307
-40.1597
-40.3804
-40.5437
-40.6085
-40.5508
-40.3707
-40.0919
-39.7555
-39.4102
-39.1037
-38.8754
-38.7516
-38.7416
-38.8359
-39.0084
-39.2199
-39.4233
-39.5706
-39.6217
-39.553
-39.3647
-39.0801
-38.739
-38.3888
-38.076
-37.839
-37.7031
-37.6772
-37.7519
-37.9014
-38.0871
-38.2625
-38.3802
-38.3999
-38.2977
-38.0723
-37.7452
-37.3545
-36.9467
-36.5693
-36.2659
-36.0728
-36.0171
-36.1168
-36.3788
-36.7961
-37.3423
-37.9688
-38.6087
-38.2117
-38.8777
-39.3373
-39.589
-39.682
-39.6979
-39.7254
-39.8381
-40.079
-40.4533
-40.9317
-41.4579
-41.9574
-42.349
-42.56
-42.5461
-42.3092
-41.897
-41.3861
-40.8624
-40.4063
-40.0838
-39.9384
-39.9858
-40.2106
-40.5697
-40.9984
-41.4184
-41.7464
-41.909
-41.8615
-41.6038
-41.1809
-40.6659
-40.1413
-39.6846
-39.3593
-39.2074
-39.244
-39.4537
-39.7945
-40.2031
-40.6029
-40.9127
-41.0607
-41.0033
-40.7404
-40.3162
-39.802
-39.2784
-38.8213
-38.4925
-38.3331
-38.3578
-38.5514
-38.8728
-39.2603
-39.6389
-39.9294
-40.0619
-39.9937
-39.7249
-39.2986
-38.7842
-38.2604
-37.8009
-37.4658
-37.2951
-37.3026
-37.4737
-37.7675
-38.1236
-38.4682
-38.723
-38.8184
-38.7108
-38.3977
-37.9179
-37.336
-36.7259
-36.1582
-35.6947
-35.3848
-35.2652
-35.3612
-35.6897
-36.2529
-37.0231
-37.9312
-38.8687
-38.9874
-39.794
-40.2564
-40.3588
-40.1985
-39.9312
-39.7175
-39.6847
-39.9035
-40.3758
-41.0485
-41.8292
-42.598
-43.2166
-43.5509
-43.5101
-43.0954
-42.4004
-41.5615
-40.719
-39.9966
-39.4938
-39.2784
-39.3757
-39.7594
-40.3613
-41.0825
-41.8014
-42.3816
-42.6914
-42.6416
-42.2326
-41.5538
-40.7366
-39.9165
-39.2132
-38.7232
-38.5123
-38.6056
-38.9771
-39.5605
-40.2594
-40.9552
-41.5145
-41.8089
-41.7515
-41.3426
-40.6699
-39.8619
-39.051
-38.3541
-37.8656
-37.6496
-37.7305
-38.083
-38.642
-39.3133
-39.9812
-40.5156
-40.7911
-40.723
-40.3121
-39.6437
-38.8431
-38.0394
-37.3464
-36.8559
-36.6302
-36.6927
-37.0184
-37.5439
-38.1766
-38.8031
-39.2953
-39.5293
-39.4196
-38.9629
-38.2373
-37.3582
-36.4437
-35.597
-34.9023
-34.4229
-34.2025
-34.2706
-34.6626
-35.4116
-36.5053
-37.8509
-39.2669
-40.1026
-41.2062
-41.6941
-41.5071
-40.8691
-40.0874
-39.4493
-39.1692
-39.3633
-40.0099
-41.0097
-42.218
-43.4548
-44.4937
-45.0822
-45.0124
-44.2854
-43.1111
-41.742
-40.4028
-39.2708
-38.4902
-38.168
-38.3535
-38.9942
-39.9813
-41.1697
-42.3845
-43.4064
-43.9916
-43.9392
-43.2499
-42.1261
-40.8116
-39.5237
-38.4347
-37.6851
-37.3794
-37.5664
-38.1954
-39.1603
-40.3201
-41.5039
-42.4978
-43.0638
-43.0057
-42.3247
-41.2186
-39.926
-38.6594
-37.5869
-36.846
-36.5387
-36.7122
-37.317
-38.2494
-39.3713
-40.5159
-41.4744
-42.0148
-41.9462
-41.2698
-40.179
-38.9063
-37.6588
-36.6003
-35.8644
-35.5501
-35.7034
-36.2757
-37.1655
-38.2384
-39.3312
-40.2393
-40.7347
-40.628
-39.9154
-38.7776
-37.4311
-36.0637
-34.817
-33.7995
-33.0878
-32.7242
-32.7135
-33.1214
-34.0736
-35.6248
-37.6688
-39.895
-41.6801
-43.505
-44.104
-43.3048
-41.7469
-40.0368
-38.6658
-37.9709
-38.1717
-39.1354
-40.671
-42.5658
-44.5968
-46.4196
-47.5616
-47.4612
-46.1197
-44.1025
-41.8796
-39.7884
-38.0389
-36.8268
-36.3266
-36.6757
-37.7305
-39.3112
-41.2193
-43.2453
-45.0602
-46.21
-46.1538
-44.8932
-42.9732
-40.8481
-38.8447
-37.1673
-36.0077
-35.5372
-35.8909
-36.9299
-38.4795
-40.3463
-42.3261
-44.0975
-45.2172
-45.1569
-43.9188
-42.036
-39.9526
-37.9881
-36.3423
-35.2022
-34.7351
-35.0729
-36.0794
-37.5837
-39.3965
-41.3184
-43.0354
-44.1155
-44.0443
-42.8243
-40.9762
-38.933
-37.006
-35.3896
-34.2657
-33.7967
-34.1109
-35.0753
-36.5236
-38.2716
-40.1249
-41.7775
-42.8071
-42.7088
-41.48
-39.6184
-37.5338
-35.5099
-33.7069
-32.2562
-31.2514
-30.7378
-30.5533
-30.7964
-31.8727
-34.0347
-37.2244
-40.9247
-43.7115
-47.5693
-48.5273
-46.1952
-42.8439
-39.4981
-36.9086
-35.483
-35.8816
-37.4375
-39.8151
-42.7175
-46.0387
-49.3261
-51.8302
-51.6972
-48.9273
-45.3903
-41.8276
-38.6823
-36.0331
-34.1384
-33.2622
-33.9818
-35.7096
-38.1699
-41.0989
-44.4104
-47.6716
-50.1654
-50.1027
-47.4859
-44.1159
-40.7096
-37.6961
-35.1545
-33.3383
-32.508
-33.2288
-34.9292
-37.3419
-40.2096
-43.4486
-46.6356
-49.07
-49.0042
-46.4412
-43.1421
-39.808
-36.858
-34.3693
-32.5893
-31.7724
-32.4706
-34.1249
-36.4736
-39.2647
-42.4158
-45.5133
-47.8742
-47.7963
-45.2834
-42.0542
-38.7923
-35.9059
-33.4696
-31.7238
-30.9156
-31.5818
-33.1782
-35.4499
-38.1529
-41.2075
-44.2128
-46.5033
-46.4176
-43.9554
-40.7805
-37.5488
-34.6379
-32.0894
-30.0706
-28.7076
-28.2773
-27.7771
-27.2714
-28.1083
-30.9646
-36.0444
-42.7028
-45.1887
-55.8096
-57.6885
-50.5535
-43.9332
-37.8705
-33.4757
-30.3685
-31.925
-34.5566
-38.2036
-42.2664
-47.5294
-53.3607
-59.8966
-59.7304
-52.8396
-46.7152
-41.1745
-36.8619
-32.941
-29.9835
-27.9
-29.8362
-32.634
-36.3538
-40.4278
-45.6479
-51.3883
-57.8024
-57.7296
-51.1634
-45.3108
-40.0055
-35.868
-32.0971
-29.2491
-27.2452
-29.156
-31.903
-35.549
-39.5383
-44.646
-50.2575
-56.5232
-56.4473
-50.0235
-44.2988
-39.1103
-35.0637
-31.3758
-28.5896
-26.6279
-28.4914
-31.1707
-34.7263
-38.6144
-43.5904
-49.052
-55.1448
-55.0545
-48.7738
-43.1793
-38.1107
-34.1576
-30.5551
-27.8319
-25.9111
-27.713
-30.3084
-33.7553
-37.5275
-42.3609
-47.6774
-53.6211
-53.5485
-47.4567
-42.0242
-37.1016
-33.2439
-29.7089
-26.9408
-24.8204
-25.9174
-25.0088
-21.8133
-21.4359
-24.6923
-32.5912
-45.9757
-39.2509
-76.6384
-79.8302
-54.1709
-44.2195
-33.8412
-28.1888
-18.5384
-26.4203
-30.2137
-35.9935
-40.0872
-48.202
-56.3809
-77.614
-77.4472
-55.6485
-47.1999
-38.7532
-34.4778
-28.4615
-24.57
-16.7497
-24.4497
-28.2309
-34.0277
-38.1066
-46.1361
-54.1348
-74.7805
-74.7073
-53.8133
-45.7179
-37.6198
-33.5122
-27.7107
-23.9445
-16.3454
-23.879
-27.5821
-33.2619
-37.2565
-45.1179
-52.9373
-73.1082
-73.0314
-52.5992
-44.6834
-36.7681
-32.7531
-27.0837
-23.4025
-15.9751
-23.3376
-26.9545
-32.5002
-36.3974
-44.0655
-51.6815
-71.3191
-71.2269
-51.2759
-43.5468
-35.8227
-31.9045
-26.3743
-22.7842
-15.546
-22.7014
-26.2125
-31.592
-35.3741
-42.8184
-50.2387
-69.402
-69.3469
-50.0086
-42.5335
-35.1208
-31.3854
-26.2237
-22.878
-16.3004
-26.4455
-25.5338
-12.297
-9.5309
-11.7347
-21.2385
-52.3561
-38.2251
-38.3284
-38.4018
-38.4397
-38.4402
-38.4055
-38.3404
-38.2522
-38.1495
-38.0412
-37.936
-37.8418
-37.7651
-37.711
-37.6831
-38.246
-38.3583
-38.4373
-38.4768
-38.4755
-38.4357
-38.3633
-38.2666
-38.155
-38.038
-37.925
-37.8241
-37.7423
-37.6848
-37.6551
-38.2902
-38.4215
-38.512
-38.5548
-38.549
-38.4983
-38.4106
-38.2959
-38.1656
-38.0307
-37.9016
-37.7873
-37.6951
-37.6305
-37.5973
-38.363
-38.5254
-38.6342
-38.6814
-38.6672
-38.5978
-38.4846
-38.3408
-38.1806
-38.0175
-37.8634
-37.7283
-37.6201
-37.5448
-37.5062
-38.4737
-38.6828
-38.8178
-38.8695
-38.8402
-38.7412
-38.5889
-38.4019
-38.1985
-37.9952
-37.806
-37.6421
-37.5122
-37.4223
-37.3764
-38.6374
-38.9142
-39.0845
-39.1383
-39.083
-38.9378
-38.7279
-38.4793
-38.2161
-37.9587
-37.7232
-37.5219
-37.364
-37.2556
-37.2005
-38.8782
-39.2519
-39.4675
-39.5161
-39.4155
-39.199
-38.9053
-38.5712
-38.2279
-37.9001
-37.6059
-37.3584
-37.1663
-37.0355
-36.9694
-39.2357
-39.7478
-40.0175
-40.0431
-39.8637
-39.5372
-39.123
-38.6721
-38.2242
-37.8077
-37.4418
-37.1391
-36.9073
-36.7507
-36.6719
-39.7767
-40.4857
-40.8115
-40.7749
-40.4588
-39.9631
-39.3772
-38.7699
-38.1889
-37.6645
-37.2145
-36.849
-36.5728
-36.388
-36.2956
-40.6182
-41.6069
-41.9675
-41.7862
-41.2336
-40.4789
-39.6526
-38.8414
-38.097
-37.4466
-36.9027
-36.4694
-36.1466
-35.9329
-35.8266
-41.9782
-43.3562
-43.6653
-43.1685
-42.2102
-41.0661
-39.9127
-38.8461
-37.9109
-37.1221
-36.4801
-35.979
-35.6114
-35.3704
-35.2512
-44.2963
-46.1741
-46.169
-45.0122
-43.3725
-41.6627
-40.0857
-38.7193
-37.5782
-36.6507
-35.9165
-35.3552
-34.9494
-34.686
-34.5564
-48.553
-50.8748
-49.8243
-47.3389
-44.6046
-42.1262
-40.0482
-38.367
-37.0318
-35.9858
-35.1799
-34.5757
-34.1448
-33.8676
-33.732
-57.2315
-58.9474
-54.9144
-49.9141
-45.5809
-42.1891
-39.6138
-37.6685
-36.196
-35.0808
-34.2416
-33.6227
-33.1863
-32.9077
-32.7719
-77.6654
-72.7689
-60.9714
-51.8221
-45.6156
-41.4355
-38.5491
-36.497
-35.003
-33.8995
-33.0829
-32.4871
-32.0699
-31.8048
-31.6759
-21.3277
-21.3614
-21.4301
-21.5368
-21.6866
-21.8879
-22.1548
-22.5111
-22.9997
-23.7027
-24.7902
-26.643
-30.1625
-37.3593
-50.3879
-20.3863
-20.4067
-20.4481
-20.5113
-20.5981
-20.7115
-20.8566
-21.0433
-21.2909
-21.6423
-22.2035
-23.2821
-25.9674
-35.0332
-75.5601
-19.4308
-19.4377
-19.451
-19.4695
-19.4913
-19.513
-19.5297
-19.5333
-19.5102
-19.4364
-19.2577
-18.8054
-17.3413
-10.8619
24.9051
-18.4705
-18.4642
-18.4503
-18.4255
-18.3845
-18.3182
-18.2121
-18.0417
-17.7648
-17.3033
-16.5019
-15.0314
-12.1982
-7.02947
-3.56803
-17.5146
-17.4962
-17.4572
-17.3929
-17.2953
-17.1511
-16.939
-16.6243
-16.1478
-15.4062
-14.2107
-12.2039
-8.67693
-2.01184
13.6003
-16.5716
-16.5425
-16.4817
-16.3835
-16.2384
-16.0311
-15.7374
-15.3191
-14.7149
-13.8244
-12.4831
-10.432
-7.335
-3.20782
-1.62496
-15.6489
-15.6109
-15.5322
-15.4068
-15.2249
-14.9712
-14.6223
-14.1432
-13.4809
-12.5556
-11.2484
-9.38656
-6.7085
-2.6373
5.53174
-14.7525
-14.7076
-14.6151
-14.4694
-14.2613
-13.9773
-13.5977
-13.0946
-12.4296
-11.552
-10.3991
-8.90791
-7.04948
-4.91289
-2.91933
-13.8875
-13.8374
-13.735
-13.5753
-13.3506
-13.05
-12.6588
-12.1583
-11.5261
-10.7395
-9.78471
-8.68434
-7.58367
-7.08953
-9.98497
-13.0572
-13.0037
-12.8947
-12.7263
-12.4926
-12.1857
-11.796
-11.3135
-10.7299
-10.044
-9.27145
-8.46102
-7.69669
-6.9127
-4.18984
-12.2642
-12.2085
-12.0957
-11.9228
-11.6855
-11.3788
-10.9977
-10.539
-10.0049
-9.40851
-8.78455
-8.20571
-7.82339
-8.08269
-11.3734
-11.5099
-11.4531
-11.3385
-11.1639
-10.9266
-10.6236
-10.2533
-9.817
-9.32303
-8.79227
-8.26637
-7.81398
-7.50454
-7.14796
-4.38847
-10.795
-10.738
-10.623
-10.4488
-10.2133
-9.91531
-9.5547
-9.13506
-8.66679
-8.17271
-7.69717
-7.32301
-7.21847
-7.88231
-11.939
-10.1198
-10.063
-9.9488
-9.77609
-9.54362
-9.2505
-8.89717
-8.48694
-8.02853
-7.5403
-7.0576
-6.64483
-6.39885
-6.26091
-3.97264
-9.48407
-9.42796
-9.31523
-9.14497
-8.91606
-8.62754
-8.27918
-7.87231
-7.41101
-6.90408
-6.3695
-5.85087
-5.50422
-6.1332
-12.7494
-8.88735
-8.83228
-8.72167
-8.55462
-8.32992
-8.04617
-7.70187
-7.29553
-6.82522
-6.28711
-5.67036
-4.93751
-3.93211
-1.84809
6.19849
-8.32891
-8.27521
-8.16733
-8.00435
-7.78485
-7.50687
-7.16769
-6.7632
-6.28653
-5.7248
-5.05188
-4.21344
-3.10907
-1.70402
-1.58316
-7.80781
-7.75579
-7.6513
-7.49336
-7.28042
-7.01013
-6.6789
-6.28104
-5.80696
-5.23973
-4.54837
-3.67409
-2.49486
-0.668493
3.46616
-7.32286
-7.27287
-7.17243
-7.02061
-6.81586
-6.55573
-6.23642
-5.85185
-5.39212
-4.84091
-4.17191
-3.34654
-2.33007
-1.23629
-1.35864
-6.87268
-6.825
-6.72927
-6.58466
-6.38979
-6.14247
-5.83929
-5.47489
-5.04083
-4.52392
-3.90408
-3.15173
-2.21899
-0.959885
1.57576
-6.45563
-6.41055
-6.3201
-6.18366
-6.00018
-5.76804
-5.48471
-5.14634
-4.74712
-4.27844
-3.72829
-3.08223
-2.33459
-1.57029
-1.57158
-6.06993
-6.02764
-5.94289
-5.81534
-5.6444
-5.42919
-5.16838
-4.86009
-4.50167
-4.08956
-3.61913
-3.0833
-2.46177
-1.64938
0.00841518
-5.71363
-5.67425
-5.59545
-5.47719
-5.31941
-5.12203
-4.88507
-4.60869
-4.29353
-3.94122
-3.55543
-3.1439
-2.72152
-2.31585
-1.98708
-5.38471
-5.34826
-5.27545
-5.16653
-5.02194
-4.8424
-4.62915
-4.38426
-4.11124
-3.81614
-3.50965
-3.21207
-2.96969
-2.92925
-3.75353
-5.08115
-5.04754
-4.98055
-4.88068
-4.74876
-4.58621
-4.39524
-4.17939
-3.94431
-3.699
-3.45769
-3.24194
-3.07766
-2.94248
-2.32606
-4.80095
-4.77004
-4.70853
-4.6171
-4.4969
-4.34978
-4.17863
-3.9879
-3.78452
-3.57912
-3.38802
-3.2361
-3.16544
-3.29021
-4.23543
-4.54225
-4.51382
-4.45732
-4.37353
-4.26376
-4.13008
-3.97564
-3.80524
-3.62614
-3.44935
-3.29116
-3.17386
-3.11754
-3.06848
-2.382
-4.30332
-4.27712
-4.22509
-4.14803
-4.04726
-3.92482
-3.78377
-3.62864
-3.4662
-3.3067
-3.16592
-3.0693
-3.06461
-3.2897
-4.46968
-4.08262
-4.05838
-4.01027
-3.93902
-3.84583
-3.73252
-3.60171
-3.45714
-3.30425
-3.15108
-3.01002
-2.90094
-2.85215
-2.8481
-2.25474
-3.87877
-3.85626
-3.81155
-3.74527
-3.65841
-3.55241
-3.42922
-3.29144
-3.14252
-2.98708
-2.83195
-2.69074
-2.60864
-2.81601
-4.74852
-3.69057
-3.66958
-3.62783
-3.56583
-3.48431
-3.38426
-3.26689
-3.13351
-2.98534
-2.82287
-2.64424
-2.43952
-2.16412
-1.58618
0.700689
-3.51699
-3.49733
-3.45821
-3.39996
-3.32309
-3.22816
-3.11569
-2.98589
-2.83813
-2.66991
-2.47467
-2.23741
-1.92972
-1.54333
-1.54587
-3.35707
-3.33863
-3.30189
-3.24706
-3.17445
-3.08427
-2.97656
-2.85075
-2.70513
-2.53574
-2.33431
-2.08422
-1.75
-1.23061
-0.0320358
-3.20998
-3.19267
-3.15814
-3.10654
-3.03801
-2.95259
-2.85001
-2.72939
-2.58867
-2.42384
-2.22776
-1.98947
-1.69889
-1.38974
-1.44702
-3.07493
-3.05869
-3.02628
-2.9778
-2.91333
-2.83284
-2.73603
-2.62201
-2.48898
-2.33366
-2.15053
-1.93104
-1.6607
-1.29461
-0.544016
-2.95118
-2.93596
-2.90559
-2.86017
-2.79979
-2.72446
-2.634
-2.52784
-2.4048
-2.2628
-2.09858
-1.90796
-1.689
-1.46666
-1.47664
-2.83801
-2.82378
-2.79538
-2.75295
-2.69665
-2.62661
-2.5429
-2.44541
-2.3338
-2.20738
-2.06499
-1.90456
-1.71967
-1.47757
-0.977528
-2.73475
-2.72145
-2.69494
-2.65539
-2.60306
-2.53827
-2.46138
-2.37281
-2.27312
-2.16306
-2.04394
-1.91816
-1.79008
-1.66776
-1.56901
-2.64075
-2.62831
-2.60356
-2.56672
-2.51815
-2.45835
-2.38798
-2.30797
-2.21964
-2.12505
-2.02755
-1.93335
-1.85651
-1.84175
-2.09154
-2.55539
-2.54375
-2.52059
-2.48622
-2.44106
-2.38578
-2.32129
-2.2489
-2.17054
-2.08907
-2.00888
-1.93652
-1.87985
-1.83221
-1.63891
-2.47814
-2.46719
-2.44544
-2.41321
-2.37102
-2.31963
-2.2601
-2.19401
-2.1236
-2.05221
-1.98479
-1.9288
-1.89693
-1.92396
-2.19993
-2.4085
-2.39814
-2.37757
-2.34714
-2.30739
-2.25913
-2.20349
-2.14213
-2.07737
-2.01262
-1.95276
-1.90434
-1.87314
-1.84298
-1.62173
-2.34608
-2.33619
-2.31656
-2.28755
-2.24968
-2.20376
-2.15088
-2.09261
-2.03114
-1.96965
-1.9128
-1.86794
-1.84865
-1.89483
-2.2201
-2.29054
-2.28101
-2.26209
-2.23412
-2.19759
-2.15323
-2.10202
-2.04532
-1.98495
-1.92346
-1.86454
-1.81379
-1.77871
-1.75299
-1.55131
-2.24164
-2.23235
-2.21392
-2.18664
-2.15094
-2.10746
-2.057
-2.0006
-1.93955
-1.87549
-1.8106
-1.74878
-1.70227
-1.73348
-2.23496
-2.19919
-2.19006
-2.17191
-2.14501
-2.10972
-2.06655
-2.01611
-1.9591
-1.89625
-1.82811
-1.75455
-1.67316
-1.57186
-1.38749
-0.739371
-2.16309
-2.15403
-2.13599
-2.10921
-2.07398
-2.03069
-1.97978
-1.92168
-1.85665
-1.78449
-1.70393
-1.61136
-1.49916
-1.3636
-1.32079
-2.13331
-2.12423
-2.10616
-2.07928
-2.04384
-2.00013
-1.94846
-1.88908
-1.82199
-1.74671
-1.66168
-1.5632
-1.44268
-1.27538
-0.943257
-2.10983
-2.10068
-2.08246
-2.05531
-2.01944
-1.9751
-1.92251
-1.86183
-1.79304
-1.7157
-1.62876
-1.53034
-1.41869
-1.30164
-1.26405
-2.09271
-2.08344
-2.06495
-2.03739
-2.00094
-1.9558
-1.90218
-1.84024
-1.77001
-1.69136
-1.60383
-1.50667
-1.39844
-1.27276
-1.07787
-2.08204
-2.07259
-2.05376
-2.02566
-1.98847
-1.94239
-1.88763
-1.82439
-1.75285
-1.67318
-1.58559
-1.49068
-1.39031
-1.29195
-1.23707
-2.07793
-2.06827
-2.049
-2.02025
-1.98219
-1.93501
-1.87897
-1.81431
-1.74135
-1.66049
-1.57245
-1.4785
-1.38078
-1.28097
-1.16558
-2.08054
-2.07062
-2.05083
-2.02131
-1.98222
-1.9338
-1.8763
-1.81001
-1.73532
-1.6528
-1.5634
-1.46893
-1.3727
-1.2808
-1.20648
-2.09005
-2.07982
-2.05942
-2.02901
-1.98875
-1.9389
-1.87972
-1.81154
-1.73474
-1.64987
-1.55788
-1.46058
-1.36162
-1.26841
-1.19575
-2.10665
-2.09607
-2.07498
-2.04353
-2.00194
-1.95046
-1.8894
-1.81905
-1.73976
-1.65189
-1.55605
-1.45338
-1.34653
-1.24177
-1.15803
-2.13061
-2.11962
-2.09773
-2.06511
-2.022
-1.96869
-1.90552
-1.83278
-1.75073
-1.65946
-1.55895
-1.4491
-1.32999
-1.20054
-1.0387
-2.1622
-2.15074
-2.12793
-2.09396
-2.04913
-1.99377
-1.92828
-1.85299
-1.76809
-1.67344
-1.56833
-1.45124
-1.32062
-1.18178
-1.09426
-2.20174
-2.18975
-2.16587
-2.13036
-2.08356
-2.02589
-1.95784
-1.87986
-1.79222
-1.6947
-1.58603
-1.46279
-1.31697
-1.12735
-0.801856
-2.24961
-2.23699
-2.2119
-2.1746
-2.12553
-2.06521
-1.99429
-1.91344
-1.8232
-1.72369
-1.61384
-1.49001
-1.34374
-1.16725
-1.05534
-2.30624
-2.2929
-2.26639
-2.22702
-2.1753
-2.11189
-2.03763
-1.95353
-1.86063
-1.75985
-1.65136
-1.5328
-1.39149
-1.16224
-0.459355
-2.37212
-2.35796
-2.3298
-2.28802
-2.23318
-2.16609
-2.08781
-1.99971
-1.90352
-1.80135
-1.69588
-1.59139
-1.50032
-1.48609
-1.95256
-2.44784
-2.43272
-2.40267
-2.35808
-2.29957
-2.22806
-2.1448
-2.05152
-1.95056
-1.84513
-1.73971
-1.64066
-1.55576
-1.47603
-1.1927
-2.53405
-2.51784
-2.48563
-2.43779
-2.37499
-2.29818
-2.20874
-2.10865
-2.0007
-1.8889
-1.7791
-1.6801
-1.60762
-1.60725
-1.92581
-2.6315
-2.61408
-2.57942
-2.52789
-2.46012
-2.37705
-2.28007
-2.17122
-2.05349
-1.93129
-1.81097
-1.7011
-1.60939
-1.51689
-1.19085
-2.74105
-2.72229
-2.68491
-2.62926
-2.55587
-2.46558
-2.35964
-2.23995
-2.10938
-1.97235
-1.83559
-1.70949
-1.61168
-1.5886
-1.88393
-2.86362
-2.8434
-2.80309
-2.74294
-2.66335
-2.56496
-2.44875
-2.31622
-2.16976
-2.01321
-1.85279
-1.69822
-1.56207
-1.43905
-1.12814
-3.00021
-2.97847
-2.93505
-2.8701
-2.78387
-2.67671
-2.54918
-2.40215
-2.23713
-2.05675
-1.86591
-1.67416
-1.50332
-1.41987
-1.71075
-3.1519
-3.12857
-3.08193
-3.01203
-2.91891
-2.8026
-2.66314
-2.50058
-2.31514
-2.10755
-1.87963
-1.63558
-1.38386
-1.14062
-0.94158
-3.31977
-3.29484
-3.24497
-3.17008
-3.07004
-2.94456
-2.79312
-2.61487
-2.40853
-2.17244
-1.90456
-1.60232
-1.25848
-0.830549
-0.0344754
-3.50495
-3.47843
-3.42536
-3.34558
-3.23883
-3.10454
-2.94172
-2.74865
-2.52258
-2.25939
-1.95334
-1.59792
-1.19151
-0.775999
-0.715872
-3.70852
-3.68046
-3.62427
-3.53981
-3.42672
-3.28432
-3.11131
-2.90533
-2.6624
-2.37608
-2.03641
-1.62891
-1.13084
-0.47452
0.785227
-3.93157
-3.902
-3.84281
-3.75389
-3.63496
-3.48536
-3.30377
-3.08764
-2.83236
-2.5298
-2.16657
-1.72279
-1.18004
-0.591957
-0.583889
-4.17515
-4.14409
-4.08198
-3.98881
-3.86448
-3.70859
-3.52019
-3.29715
-3.03512
-2.72565
-2.35266
-1.88537
-1.26073
-0.306465
1.79702
-4.44029
-4.40773
-4.34269
-4.24535
-4.11589
-3.9544
-3.76067
-3.53371
-3.2708
-2.9656
-2.6042
-2.15723
-1.5703
-0.818903
-0.685872
-4.72802
-4.6939
-4.62584
-4.52419
-4.38952
-4.22257
-4.02421
-3.79522
-3.53584
-3.24457
-2.91516
-2.52627
-1.99408
-0.901775
3.24752
-5.03942
-5.00362
-4.93228
-4.82595
-4.68556
-4.51254
-4.309
-4.07783
-3.823
-3.55
-3.26742
-2.99482
-2.8068
-3.10742
-6.45525
-5.37568
-5.33802
-5.26301
-5.15134
-5.00423
-4.8237
-4.61295
-4.37684
-4.12278
-3.86207
-3.61274
-3.40461
-3.2802
-3.19678
-1.96597
-5.73806
-5.69833
-5.61918
-5.50132
-5.34609
-5.15584
-4.93449
-4.68832
-4.42715
-4.16623
-3.92943
-3.75624
-3.72511
-4.08278
-6.18983
-6.12801
-6.08601
-6.00222
-5.87723
-5.71224
-5.50955
-5.27325
-5.01019
-4.73134
-4.45362
-4.20192
-4.00922
-3.9
-3.75378
-2.30981
-6.54712
-6.50268
-6.41386
-6.2809
-6.10456
-5.88659
-5.63058
-5.343
-5.03472
-4.72294
-4.43342
-4.20421
-4.10057
-4.32583
-6.10405
-6.99706
-6.95015
-6.85613
-6.71469
-6.52576
-6.29004
-6.00982
-5.69015
-5.34053
-4.97677
-4.62303
-4.312
-4.07272
-3.8193
-2.45691
-7.47955
-7.43033
-7.33131
-7.18142
-6.97943
-6.72437
-6.41642
-6.0581
-5.65612
-5.22363
-4.78296
-4.36993
-4.05469
-4.08275
-5.78378
-7.99619
-7.94507
-7.84179
-7.68433
-7.46992
-7.19541
-6.85797
-6.45636
-5.99289
-5.47617
-4.92367
-4.35994
-3.79824
-3.18426
-2.37257
-8.54832
-8.49602
-8.38986
-8.22676
-8.00213
-7.71013
-7.34407
-6.89755
-6.36661
-5.75353
-5.07217
-4.34854
-3.57809
-2.42291
1.6019
-9.13674
-9.08434
-8.97746
-8.81188
-8.58111
-8.27625
-7.88602
-7.39736
-6.79735
-6.07829
-5.25
-4.36963
-3.62511
-3.65423
-7.22038
-9.76153
-9.71046
-9.60578
-9.44225
-9.21153
-8.90163
-8.4963
-7.97447
-7.31074
-6.47889
-5.46399
-4.29636
-3.13486
-2.42775
-2.92962
-10.4218
-10.3738
-10.275
-10.1193
-9.89689
-9.59326
-9.18745
-8.65009
-7.94086
-7.00659
-5.78404
-4.21881
-2.32903
-0.360167
1.01078
-11.1153
-11.0724
-10.9836
-10.8425
-10.6387
-10.3558
-9.96992
-9.44505
-8.72722
-7.73447
-6.34204
-4.3666
-1.57809
2.12414
5.90138
-11.8386
-11.8028
-11.7285
-11.6094
-11.4352
-11.1899
-10.8489
-10.374
-9.70449
-8.73987
-7.30492
-5.079
-1.46163
4.55786
13.4132
-12.5866
-12.5601
-12.5045
-12.4145
-12.2812
-12.0905
-11.8208
-11.438
-10.8867
-10.0719
-8.81707
-6.75764
-3.01328
5.02374
27.0727
-152.797
-91.7644
-64.0959
-50.8732
-43.7899
-39.5585
-36.8083
-34.9115
-33.5512
-32.5538
-31.8181
-31.2822
-30.9071
-30.6688
-30.5529
-190.234
-85.8538
-56.9044
-45.747
-40.1496
-36.8233
-34.6331
-33.0975
-31.9791
-31.1486
-30.5296
-30.075
-29.7551
-29.5509
-29.4515
49.408
-27.5509
-37.3572
-36.7594
-34.932
-33.2991
-32.0033
-30.9935
-30.2072
-29.5964
-29.1267
-28.7743
-28.5225
-28.3604
-28.2809
-7.08451
-15.8812
-25.035
-28.6257
-29.5792
-29.5407
-29.1749
-28.7343
-28.3134
-27.946
-27.6424
-27.4036
-27.2277
-27.1122
-27.055
27.3634
-3.96309
-16.5758
-22.3234
-24.9153
-26.0096
-26.3983
-26.4612
-26.3822
-26.2513
-26.1129
-25.9891
-25.8909
-25.8236
-25.7894
-1.26852
-5.04018
-12.8841
-18.2126
-21.2912
-22.9685
-23.8477
-24.2866
-24.4872
-24.5617
-24.5732
-24.5569
-24.5327
-24.5117
-24.5
12.2047
-3.28889
-10.9393
-15.6642
-18.6401
-20.4816
-21.6029
-22.2776
-22.6795
-22.9159
-23.0527
-23.13
-23.1721
-23.1935
-23.2023
-3.0509
-6.98384
-11.0261
-14.3302
-16.7767
-18.4949
-19.668
-20.4579
-20.9866
-21.3392
-21.5736
-21.7275
-21.8258
-21.8838
-21.9108
-15.5763
-10.6025
-11.6253
-13.5918
-15.4191
-16.8866
-17.9992
-18.8197
-19.4158
-19.8447
-20.1501