/*--------------------------------*- C++ -*----------------------------------*\
| =========                 |                                                 |
| \\      /  F ield         | OpenFOAM: The Open Source CFD Toolbox           |
|  \\    /   O peration     | Version:  5.x                                   |
|   \\  /    A nd           | Web:      www.OpenFOAM.org                      |
|    \\/     M anipulation  |                                                 |
\*---------------------------------------------------------------------------*/
FoamFile
{
    version     2.0;
    format      ascii;
    class       volScalarField;
    location    "10";
    object      gradTy;
}
// * * * * * * * * * * * * * * * * * * * * * * * * * * * * * * * * * * * * * //

dimensions      [0 -1 0 1 0 0 0];

internalField   nonuniform List<scalar> 
2048
(
-26.4236
-26.396
-26.3417
-26.262
-26.1592
-26.0358
-25.8945
-25.7383
-25.5697
-25.3915
-25.206
-25.0154
-24.8215
-24.6262
-24.4308
-24.2368
-24.0451
-23.8568
-23.6726
-23.4931
-23.3187
-23.1498
-22.9866
-22.8293
-22.6783
-22.5337
-22.3958
-22.265
-22.1416
-22.0262
-21.9192
-21.8213
-21.7333
-21.6559
-21.5902
-21.5372
-21.4979
-21.4735
-21.4653
-21.4744
-21.5022
-21.55
-21.6189
-21.71
-21.8244
-21.9628
-22.1257
-22.3128
-22.5236
-22.7567
-23.0096
-23.2793
-23.5613
-23.8504
-24.1406
-24.4252
-24.6976
-24.9511
-25.1796
-25.3777
-25.5412
-25.6666
-25.7515
-25.7943
-26.446
-26.4177
-26.3621
-26.2807
-26.1759
-26.0502
-25.9067
-25.7482
-25.5775
-25.3974
-25.2101
-25.018
-24.8227
-24.6262
-24.4298
-24.2348
-24.0424
-23.8535
-23.6689
-23.489
-23.3143
-23.1451
-22.9818
-22.8243
-22.6731
-22.5283
-22.3901
-22.259
-22.1352
-22.0193
-21.9118
-21.8133
-21.7246
-21.6465
-21.58
-21.526
-21.4858
-21.4604
-21.4512
-21.4593
-21.4861
-21.5329
-21.6008
-21.6912
-21.805
-21.9431
-22.106
-22.2937
-22.5056
-22.7405
-22.9962
-23.2693
-23.5555
-23.8495
-24.145
-24.4352
-24.7129
-24.9713
-25.2041
-25.4058
-25.572
-25.6994
-25.7855
-25.829
-26.4887
-26.4592
-26.4011
-26.3164
-26.2076
-26.0776
-25.9296
-25.7669
-25.5922
-25.4084
-25.2179
-25.0227
-24.8249
-24.6261
-24.4277
-24.231
-24.0372
-23.8472
-23.6616
-23.4811
-23.3059
-23.1363
-22.9726
-22.8149
-22.6633
-22.518
-22.3794
-22.2476
-22.1232
-22.0064
-21.8979
-21.7983
-21.7083
-21.6288
-21.5607
-21.505
-21.463
-21.4358
-21.4246
-21.4308
-21.4556
-21.5005
-21.5666
-21.6555
-21.7681
-21.9055
-22.0684
-22.257
-22.471
-22.7094
-22.9701
-23.2498
-23.5442
-23.8476
-24.1534
-24.4541
-24.7421
-25.01
-25.251
-25.4595
-25.6309
-25.7619
-25.8504
-25.895
-26.5499
-26.5185
-26.4569
-26.3672
-26.2525
-26.1162
-25.9619
-25.7929
-25.6126
-25.4236
-25.2284
-25.0292
-24.8277
-24.6256
-24.4244
-24.2254
-24.0296
-23.838
-23.6512
-23.4698
-23.2939
-23.1239
-22.9597
-22.8015
-22.6494
-22.5036
-22.3643
-22.2317
-22.1063
-21.9884
-21.8785
-21.7773
-21.6855
-21.6039
-21.5335
-21.4755
-21.4309
-21.401
-21.3871
-21.3905
-21.4126
-21.4547
-21.5183
-21.6048
-21.7156
-21.8519
-22.0146
-22.2043
-22.4212
-22.6643
-22.9319
-23.221
-23.5271
-23.8441
-24.1648
-24.481
-24.784
-25.0656
-25.3184
-25.5364
-25.7151
-25.8512
-25.9428
-25.9889
-26.6283
-26.5944
-26.5279
-26.4317
-26.3092
-26.1646
-26.0019
-25.8251
-25.6375
-25.4421
-25.2411
-25.0368
-24.8308
-24.6247
-24.42
-24.2179
-24.0197
-23.8261
-23.6379
-23.4554
-23.2789
-23.1083
-22.9436
-22.7849
-22.6323
-22.4857
-22.3456
-22.212
-22.0853
-21.966
-21.8544
-21.7512
-21.6571
-21.573
-21.4998
-21.4387
-21.3909
-21.3577
-21.3403
-21.3402
-21.3587
-21.3973
-21.4575
-21.541
-21.6493
-21.7839
-21.9461
-22.1369
-22.3568
-22.6057
-22.8819
-23.1828
-23.5038
-23.8385
-24.1787
-24.515
-24.8376
-25.137
-25.4049
-25.6349
-25.8224
-25.9647
-26.0601
-26.1079
-26.7229
-26.6857
-26.6131
-26.5084
-26.3762
-26.2212
-26.0484
-25.8621
-25.6659
-25.4629
-25.2553
-25.045
-24.8338
-24.623
-24.4142
-24.2086
-24.0075
-23.8117
-23.6219
-23.4383
-23.261
-23.0899
-22.9248
-22.7656
-22.6123
-22.465
-22.3238
-22.1891
-22.0611
-21.9401
-21.8266
-21.721
-21.6242
-21.5371
-21.4605
-21.3959
-21.3443
-21.3071
-21.2856
-21.2813
-21.2955
-21.3299
-21.386
-21.4657
-21.5707
-21.7029
-21.864
-22.0555
-22.2787
-22.5337
-22.8199
-23.1347
-23.4737
-23.8299
-24.1942
-24.5555
-24.9023
-25.2234
-25.5095
-25.7536
-25.9513
-26.1003
-26.1997
-26.2493
-26.8331
-26.7917
-26.7114
-26.5964
-26.4523
-26.2849
-26.1001
-25.9027
-25.6968
-25.4852
-25.2702
-25.0534
-24.8364
-24.6204
-24.4069
-24.1974
-23.9931
-23.7948
-23.6033
-23.4186
-23.2406
-23.0691
-22.9036
-22.744
-22.59
-22.4418
-22.2996
-22.1637
-22.0342
-21.9114
-21.7957
-21.6876
-21.5877
-21.497
-21.4167
-21.348
-21.2921
-21.2504
-21.2243
-21.2151
-21.2245
-21.2539
-21.3052
-21.3802
-21.4812
-21.6102
-21.7694
-21.9611
-22.187
-22.4485
-22.7454
-23.076
-23.4359
-23.8175
-24.2105
-24.6019
-24.9777
-25.3245
-25.6317
-25.8916
-26.1003
-26.2562
-26.3594
-26.4108
-26.9583
-26.912
-26.8223
-26.6947
-26.5362
-26.3543
-26.1555
-25.9457
-25.729
-25.5082
-25.2853
-25.0616
-24.8383
-24.6166
-24.3981
-24.1842
-23.9763
-23.7754
-23.5821
-23.3965
-23.2181
-23.0463
-22.8806
-22.7205
-22.5659
-22.4168
-22.2735
-22.1362
-22.0052
-21.8805
-21.7625
-21.6515
-21.5483
-21.4538
-21.3692
-21.2959
-21.2352
-21.1886
-21.1573
-21.1429
-21.1468
-21.1706
-21.2163
-21.286
-21.382
-21.5068
-21.6633
-21.8542
-22.0823
-22.3499
-22.658
-23.0058
-23.3891
-23.8002
-24.227
-24.6538
-25.0637
-25.4404
-25.7713
-26.0484
-26.2682
-26.4307
-26.5374
-26.5901
-27.0986
-27.0461
-26.945
-26.8023
-26.627
-26.428
-26.2135
-25.9899
-25.7616
-25.5312
-25.3002
-25.0693
-24.8394
-24.6117
-24.3876
-24.1689
-23.9571
-23.7535
-23.5586
-23.3721
-23.1936
-23.0218
-22.8561
-22.6956
-22.5403
-22.3903
-22.2458
-22.1072
-21.9746
-21.8481
-21.7276
-21.6136
-21.5067
-21.408
-21.3188
-21.2405
-21.1747
-21.1227
-21.0859
-21.0657
-21.0636
-21.0813
-21.1208
-21.1842
-21.2743
-21.394
-21.5466
-21.7355
-21.9647
-22.2376
-22.5569
-22.9229
-23.3323
-23.7768
-24.2426
-24.711
-25.1606
-25.5715
-25.9286
-26.2236
-26.4542
-26.6223
-26.7313
-26.7849
-27.2539
-27.1939
-27.0791
-26.9185
-26.7233
-26.5048
-26.2727
-26.0341
-25.7936
-25.5535
-25.3143
-25.0762
-24.8396
-24.6055
-24.3754
-24.1514
-23.9355
-23.7291
-23.5326
-23.3457
-23.1673
-22.996
-22.8304
-22.6698
-22.5138
-22.3627
-22.217
-22.0771
-21.943
-21.8145
-21.6916
-21.5745
-21.4637
-21.3604
-21.2661
-21.1825
-21.1112
-21.0535
-21.0109
-20.9846
-20.9761
-20.9871
-21.0196
-21.0761
-21.1595
-21.2729
-21.4202
-21.6058
-21.8346
-22.1116
-22.4414
-22.8261
-23.2637
-23.7458
-24.2566
-24.7732
-25.2689
-25.7185
-26.104
-26.4171
-26.6573
-26.8293
-26.9393
-26.9928
-27.4246
-27.3556
-27.2243
-27.0423
-26.824
-26.5833
-26.3316
-26.0771
-25.8242
-25.5744
-25.3274
-25.0823
-24.839
-24.5981
-24.3615
-24.1318
-23.9114
-23.702
-23.5042
-23.3173
-23.1396
-22.9692
-22.8041
-22.6433
-22.4866
-22.3343
-22.1873
-22.0461
-21.9106
-21.7804
-21.6551
-21.5347
-21.4197
-21.3115
-21.2118
-21.1225
-21.0453
-20.9818
-20.9331
-20.9005
-20.8853
-20.8891
-20.9141
-20.9628
-21.0385
-21.1445
-21.2852
-21.4658
-21.6923
-21.9716
-22.3107
-22.7141
-23.1818
-23.7057
-24.2679
-24.8405
-25.3894
-25.8826
-26.2986
-26.6291
-26.8768
-27.0502
-27.1591
-27.2115
-27.6111
-27.5312
-27.3802
-27.173
-26.9279
-26.662
-26.389
-26.1177
-25.8524
-25.5935
-25.3393
-25.0876
-24.8374
-24.5895
-24.3459
-24.1098
-23.8846
-23.6722
-23.4733
-23.2869
-23.1107
-22.9417
-22.7775
-22.6167
-22.4591
-22.3054
-22.1569
-22.0145
-21.8778
-21.7461
-21.6185
-21.4947
-21.3754
-21.2619
-21.1564
-21.061
-20.9778
-20.9081
-20.8533
-20.8141
-20.7919
-20.7881
-20.805
-20.8454
-20.9125
-21.01
-21.1427
-21.3163
-21.5384
-21.8177
-22.1639
-22.5853
-23.0845
-23.6544
-24.2752
-24.9128
-25.5234
-26.0657
-26.5134
-26.8597
-27.1117
-27.2832
-27.3885
-27.4383
-27.814
-27.7211
-27.5466
-27.3098
-27.0337
-26.7396
-26.4434
-26.1547
-25.8774
-25.6104
-25.3499
-25.0921
-24.8353
-24.58
-24.3286
-24.0855
-23.855
-23.6395
-23.4399
-23.2548
-23.0808
-22.914
-22.751
-22.5901
-22.4315
-22.2762
-22.1261
-21.9824
-21.8449
-21.7121
-21.5823
-21.4552
-21.3312
-21.212
-21.1002
-20.9985
-20.909
-20.8331
-20.772
-20.7263
-20.6969
-20.6852
-20.6935
-20.7248
-20.7825
-20.8705
-20.9937
-21.1585
-21.3735
-21.6497
-22.0005
-22.4382
-22.9696
-23.5897
-24.277
-24.9903
-25.6727
-26.2698
-26.7502
-27.1093
-27.3612
-27.5266
-27.625
-27.6706
-28.0343
-27.9258
-27.7234
-27.4517
-27.1399
-26.8145
-26.4933
-26.1869
-25.8984
-25.6246
-25.3592
-25.0961
-24.8328
-24.5698
-24.3098
-24.0587
-23.8224
-23.6039
-23.404
-23.2209
-23.0502
-22.8864
-22.725
-22.5642
-22.4042
-22.2468
-22.0947
-21.95
-21.8122
-21.6786
-21.547
-21.4164
-21.2876
-21.1622
-21.0437
-20.9353
-20.8393
-20.7573
-20.69
-20.6377
-20.601
-20.5811
-20.5804
-20.6021
-20.6497
-20.7272
-20.8394
-20.9933
-21.1985
-21.4681
-21.8196
-22.2711
-22.8348
-23.509
-24.2715
-25.0731
-25.8394
-26.4979
-27.0107
-27.3783
-27.6243
-27.7783
-27.8662
-27.9057
-28.2729
-28.1457
-27.9103
-27.5977
-27.2451
-26.885
-26.5374
-26.213
-25.9146
-25.6362
-25.3675
-25.1
-24.8304
-24.5592
-24.2895
-24.0293
-23.7866
-23.5649
-23.3652
-23.1853
-23.0192
-22.8593
-22.6999
-22.5391
-22.3775
-22.2172
-22.0628
-21.9173
-21.7797
-21.6461
-21.5129
-21.3789
-21.2449
-21.1128
-20.9869
-20.8716
-20.7691
-20.6809
-20.6076
-20.549
-20.505
-20.4766
-20.4664
-20.478
-20.515
-20.5811
-20.681
-20.8221
-21.0144
-21.2733
-21.6209
-22.0823
-22.6773
-23.4091
-24.2562
-25.1613
-26.0265
-26.7536
-27.2973
-27.667
-27.8996
-28.0361
-28.1093
-28.1407
-28.5312
-28.3815
-28.1073
-27.7468
-27.3475
-26.9495
-26.574
-26.2319
-25.9255
-25.6449
-25.3752
-25.1042
-24.8285
-24.5486
-24.2678
-23.997
-23.7474
-23.5226
-23.3234
-23.148
-22.988
-22.8334
-22.6763
-22.5153
-22.3515
-22.1876
-22.0301
-21.8842
-21.7478
-21.615
-21.4805
-21.3431
-21.2036
-21.0641
-20.9302
-20.8076
-20.6985
-20.6043
-20.5254
-20.4607
-20.4095
-20.3723
-20.3522
-20.3532
-20.3792
-20.4334
-20.5199
-20.6463
-20.8227
-21.066
-21.4039
-21.8703
-22.4946
-23.2864
-24.2279
-25.2551
-26.238
-27.0413
-27.6124
-27.9753
-28.1857
-28.2977
-28.3518
-28.373
-28.8104
-28.6339
-28.3144
-27.8978
-27.4452
-27.0064
-26.6018
-26.2423
-25.9304
-25.6508
-25.3828
-25.1093
-24.8276
-24.5388
-24.2449
-23.9616
-23.7046
-23.4765
-23.2784
-23.109
-22.957
-22.809
-22.6546
-22.4931
-22.3268
-22.1579
-21.9964
-21.8505
-21.7164
-21.5855
-21.4501
-21.3092
-21.1642
-21.0164
-20.8735
-20.7435
-20.6279
-20.5278
-20.4436
-20.3733
-20.315
-20.2689
-20.2384
-20.2286
-20.2434
-20.2851
-20.3572
-20.4673
-20.6249
-20.8473
-21.1688
-21.6336
-22.2837
-23.1369
-24.1825
-25.3544
-26.4789
-27.3664
-27.9586
-28.3032
-28.4805
-28.5604
-28.5908
-28.5997
-29.1122
-28.9034
-28.5315
-28.0494
-27.5358
-27.0541
-26.6195
-26.2428
-25.9288
-25.6542
-25.3911
-25.1157
-24.828
-24.5303
-24.221
-23.9226
-23.658
-23.4265
-23.2297
-23.0682
-22.9266
-22.787
-22.6351
-22.4728
-22.3036
-22.128
-21.9611
-21.8159
-21.6857
-21.5583
-21.422
-21.2776
-21.127
-20.9697
-20.8168
-20.6793
-20.5573
-20.4514
-20.3627
-20.2874
-20.2224
-20.1669
-20.1256
-20.1045
-20.1081
-20.1373
-20.194
-20.2867
-20.423
-20.6185
-20.9156
-21.3706
-22.0421
-22.956
-24.1143
-25.4587
-26.7559
-27.7355
-28.3384
-28.6497
-28.7817
-28.8214
-28.8237
-28.8184
-29.4384
-29.1906
-28.7591
-28.2001
-27.6169
-27.0913
-26.626
-26.2321
-25.9201
-25.6553
-25.4012
-25.1241
-24.8303
-24.5243
-24.1961
-23.8792
-23.6074
-23.3724
-23.1767
-23.0257
-22.8971
-22.7681
-22.6184
-22.4547
-22.2825
-22.0978
-21.9234
-21.7801
-21.656
-21.5338
-21.3967
-21.2485
-21.0926
-20.9242
-20.7597
-20.6151
-20.4868
-20.3753
-20.2829
-20.2033
-20.132
-20.0668
-20.014
-19.9813
-19.9741
-19.991
-20.0314
-20.1061
-20.2191
-20.3814
-20.645
-21.08
-21.7674
-22.7389
-24.0157
-25.5671
-27.0778
-28.1562
-28.7543
-29.0135
-29.0864
-29.0779
-29.0478
-29.0266
-29.7912
-29.4956
-28.9977
-28.3482
-27.685
-27.1169
-26.6205
-26.2083
-25.904
-25.6547
-25.4146
-25.1348
-24.8345
-24.5222
-24.1704
-23.8302
-23.553
-23.3143
-23.1187
-22.9814
-22.869
-22.7534
-22.6048
-22.4388
-22.2645
-22.0673
-21.8824
-21.7427
-21.6271
-21.5128
-21.3742
-21.222
-21.0617
-20.8802
-20.7019
-20.5511
-20.4167
-20.2994
-20.2045
-20.1216
-20.0445
-19.9691
-19.9039
-19.8594
-19.8419
-19.8472
-19.8703
-19.927
-20.0159
-20.1378
-20.3579
-20.7605
-21.4577
-22.4811
-23.8763
-25.6774
-27.4567
-28.6376
-29.2078
-29.3923
-29.3914
-29.3267
-29.2607
-29.2223
-30.1732
-29.8178
-29.2487
-28.4919
-27.7358
-27.1307
-26.6024
-26.1694
-25.8803
-25.6526
-25.4335
-25.1482
-24.8403
-24.526
-24.144
-23.7739
-23.4952
-23.2521
-23.0544
-22.9352
-22.8426
-22.7444
-22.5944
-22.4248
-22.2506
-22.0362
-21.8363
-21.7034
-21.5994
-21.4964
-21.3548
-21.1979
-21.0354
-20.8375
-20.6424
-20.4874
-20.3471
-20.2234
-20.1277
-20.0426
-19.9605
-19.874
-19.7955
-19.7387
-19.7121
-19.7069
-19.7111
-19.7508
-19.8166
-19.8901
-20.0558
-20.4105
-21.1124
-22.1786
-23.6821
-25.7864
-27.909
-29.1899
-29.6998
-29.7825
-29.6927
-29.565
-29.4603
-29.4036
-30.5874
-30.1555
-29.5146
-28.6294
-27.7637
-27.1331
-26.572
-26.1124
-25.8491
-25.6495
-25.4605
-25.1641
-24.8467
-24.539
-24.1172
-23.7076
-23.4349
-23.1864
-22.9822
-22.8873
-22.8181
-22.7428
-22.5871
-22.4121
-22.2428
-22.0045
-21.783
-21.6618
-21.5727
-21.486
-21.3384
-21.1756
-21.015
-20.7963
-20.5801
-20.4244
-20.2782
-20.1468
-20.0528
-19.9665
-19.8809
-19.782
-19.6889
-19.6191
-19.5849
-19.5715
-19.554
-19.5788
-19.6248
-19.6403
-19.7407
-20.028
-20.7319
-21.8289
-23.4139
-25.8882
-28.457
-29.8242
-30.2292
-30.1796
-29.9862
-29.7897
-29.6445
-29.5692
-31.0379
-30.505
-29.7995
-28.7584
-27.7609
-27.1267
-26.5301
-26.0332
-25.8113
-25.6452
-25.4998
-25.182
-24.8517
-24.5657
-24.09
-23.627
-23.3742
-23.1179
-22.8994
-22.8383
-22.7955
-22.7513
-22.5826
-22.3993
-22.244
-21.9721
-21.7195
-21.6179
-21.547
-21.4837
-21.3247
-21.154
-21.0029
-20.7567
-20.5129
-20.3629
-20.2104
-20.069
-19.9802
-19.8937
-19.8063
-19.6933
-19.584
-19.5002
-19.4607
-19.4424
-19.3985
-19.4115
-19.4451
-19.3908
-19.4157
-19.6098
-20.3183
-21.4329
-23.0459
-25.9738
-29.132
-30.552
-30.793
-30.5776
-30.2674
-29.9982
-29.8118
-29.7181
-31.5301
-30.8592
-30.1106
-28.8768
-27.7166
-27.116
-26.4785
-25.9259
-25.7686
-25.6387
-25.5572
-25.2006
-24.8515
-24.6129
-24.0626
-23.5258
-23.3165
-23.0481
-22.8021
-22.7894
-22.7741
-22.7738
-22.58
-22.3838
-22.2585
-21.9389
-21.6415
-21.5724
-21.5215
-21.4925
-21.3129
-21.1312
-21.0021
-20.7184
-20.438
-20.3044
-20.1443
-19.9885
-19.9105
-19.8242
-19.738
-19.6081
-19.4808
-19.3814
-19.3396
-19.3219
-19.2432
-19.2492
-19.2833
-19.143
-19.0853
-19.1506
-19.8759
-20.9965
-22.5432
-26.0295
-29.977
-31.3838
-31.385
-30.9694
-30.5317
-30.188
-29.9612
-29.8497
-32.0715
-31.2065
-30.459
-28.9822
-27.6157
-27.1095
-26.4201
-25.7819
-25.7249
-25.6274
-25.6408
-25.2176
-24.8398
-24.6907
-24.0349
-23.3947
-23.2673
-22.9789
-22.6847
-22.7427
-22.7521
-22.8156
-22.5778
-22.3617
-22.2927
-21.9048
-21.5429
-21.527
-21.4948
-21.5167
-21.3019
-21.1039
-21.0176
-20.6816
-20.3509
-20.2511
-20.0806
-19.9033
-19.8447
-19.7577
-19.6772
-19.5262
-19.3791
-19.2618
-19.2211
-19.2129
-19.0858
-19.0911
-19.1468
-18.8973
-18.7561
-18.642
-19.4109
-20.5337
-21.8588
-26.0347
-31.0516
-32.3274
-31.9954
-31.3465
-30.7746
-30.3573
-30.0919
-29.9638
-32.6723
-31.5279
-30.862
-29.0726
-27.4366
-27.1205
-26.3592
-25.5883
-25.6867
-25.6061
-25.7627
-25.2297
-24.8068
-24.8136
-24.007
-23.2202
-23.2356
-22.9133
-22.5387
-22.7027
-22.7259
-22.8845
-22.5737
-22.3265
-22.3559
-21.8697
-21.4155
-21.4851
-21.4642
-21.5626
-21.2899
-21.0672
-21.0564
-20.6458
-20.2455
-20.207
-20.0203
-19.8105
-19.7845
-19.6936
-19.6258
-19.4477
-19.2791
-19.14
-19.1048
-19.1201
-18.9227
-18.9351
-19.0454
-18.652
-18.4385
-18.0708
-18.9318
-20.071
-20.9309
-25.9592
-32.4382
-33.385
-32.6101
-31.7
-30.992
-30.5045
-30.2036
-30.0605
-33.3475
-31.7937
-31.3459
-29.1454
-27.1496
-27.1699
-26.3017
-25.327
-25.6657
-25.5651
-25.9396
-25.2316
-24.7377
-25.0024
-23.9786
-22.983
-23.2348
-22.855
-22.3518
-22.6767
-22.6892
-22.9915
-22.5642
-22.2688
-22.4615
-21.8333
-21.2478
-21.4529
-21.4247
-21.639
-21.2741
-21.0136
-21.1284
-20.6107
-20.1131
-20.1777
-19.9647
-19.7057
-19.7326
-19.6303
-19.5863
-19.3717
-19.1808
-19.0145
-18.9891
-19.05
-18.7483
-18.7773
-18.9926
-18.4016
-18.148
-17.4167
-18.4489
-19.6519
-19.6777
-25.7601
-34.2495
-34.5487
-33.2102
-32.0204
-31.1805
-30.6288
-30.2965
-30.1404
-34.1181
-31.9598
-31.9491
-29.1986
-26.7136
-27.288
-26.2551
-24.9718
-25.6806
-25.488
-26.1956
-25.2163
-24.611
-25.2862
-23.9491
-22.6563
-23.2845
-22.8092
-22.1067
-22.6768
-22.631
-23.1523
-22.5446
-22.1745
-22.6283
-21.7951
-21.024
-21.4408
-21.3675
-21.7585
-21.2507
-20.9323
-21.2481
-20.5755
-19.9414
-20.1718
-19.9152
-19.5825
-19.6932
-19.5651
-19.5623
-19.2972
-19.0848
-18.8831
-18.8716
-19.012
-18.555
-18.6116
-19.0067
-18.1354
-17.908
-16.6496
-17.9732
-19.3443
-17.9931
-25.3771
-36.6387
-35.7943
-33.7728
-32.2988
-31.3376
-30.73
-30.3712
-30.2041
-35.0135
-31.9619
-32.7267
-29.23
-26.0723
-27.5184
-26.2288
-24.4862
-25.7606
-25.3485
-26.564
-25.1744
-24.3961
-25.7051
-23.9177
-22.203
-23.4128
-22.782
-21.7791
-22.7219
-22.534
-23.3888
-22.5086
-22.024
-22.8821
-21.7541
-20.723
-21.4649
-21.2791
-21.9388
-21.2145
-20.8082
-21.4349
-20.5391
-19.7138
-20.2019
-19.8735
-19.4323
-19.673
-19.4936
-19.5586
-19.2221
-18.9921
-18.7435
-18.7481
-19.0194
-18.3326
-18.4284
-19.1131
-17.8337
-17.7538
-15.7266
-17.5145
-19.2485
-15.741
-24.7268
-39.8116
-37.0738
-34.2709
-32.5272
-31.4618
-30.8084
-30.4283
-30.2527
-36.0746
-31.7087
-33.7559
-29.2372
-25.1503
-27.9219
-26.2339
-23.8194
-25.9498
-25.1064
-27.091
-25.0933
-24.0509
-26.3132
-23.8829
-21.5735
-23.6588
-22.781
-21.3355
-22.8405
-22.3717
-23.7314
-22.4477
-21.7902
-23.2579
-21.7083
-20.3163
-21.5501
-21.1382
-22.204
-21.1587
-20.6204
-21.7157
-20.4996
-19.4082
-20.2854
-19.8412
-19.2429
-19.6818
-19.4089
-19.5819
-19.1432
-18.9048
-18.5931
-18.6122
-19.0906
-18.0674
-18.2138
-19.3464
-17.4652
-17.7364
-14.5881
-17.0793
-19.5069
-12.7485
-23.6962
-44.0417
-38.3039
-34.6764
-32.7001
-31.5527
-30.8649
-30.4692
-30.2873
-37.3573
-31.0741
-35.1425
-29.2175
-23.8479
-28.5808
-26.2834
-22.9031
-26.3125
-24.702
-27.8391
-24.9573
-23.5182
-27.1826
-23.8421
-20.702
-24.0755
-22.8149
-20.7304
-23.0748
-22.1048
-24.2211
-22.3511
-21.4365
-23.8023
-21.655
-19.7664
-21.7323
-20.9132
-22.5872
-21.0743
-20.3407
-22.1259
-20.4543
-18.9952
-20.4461
-19.8199
-18.9982
-19.7338
-19.3007
-19.6418
-19.0555
-18.8258
-18.4289
-18.4542
-19.2508
-17.742
-17.9483
-19.7543
-16.9813
-17.9289
-13.1534
-16.6673
-20.3159
-8.79959
-22.1345
-49.6875
-39.3536
-34.9629
-32.8143
-31.6112
-30.9008
-30.4951
-30.3092
-38.9367
-29.8874
-37.0289
-29.1674
-22.0355
-29.6048
-26.3915
-21.6459
-26.9402
-24.0495
-28.892
-24.7462
-22.7228
-28.4069
-23.7919
-19.503
-24.7336
-22.8934
-19.9031
-23.4841
-21.6766
-24.9127
-22.2051
-20.9143
-24.5762
-21.5895
-19.0239
-22.062
-20.5581
-23.1319
-20.9497
-19.932
-22.7121
-20.3989
-18.4368
-20.7161
-19.8104
-18.6768
-19.8489
-19.1539
-19.751
-18.9517
-18.7594
-18.248
-18.2598
-19.5332
-17.3346
-17.6047
-20.4011
-16.3104
-18.4332
-11.3162
-16.2661
-21.9385
-3.62738
-19.8437
-57.2128
-40.0272
-35.1107
-32.8701
-31.6394
-30.918
-30.5074
-30.3196
)
;

boundaryField
{
    left
    {
        type            calculated;
        value           nonuniform List<scalar> 
32
(
-26.4236
-26.446
-26.4887
-26.5499
-26.6283
-26.7229
-26.8331
-26.9583
-27.0986
-27.2539
-27.4246
-27.6111
-27.814
-28.0343
-28.2729
-28.5312
-28.8104
-29.1122
-29.4384
-29.7912
-30.1732
-30.5874
-31.0379
-31.5301
-32.0715
-32.6723
-33.3475
-34.1181
-35.0135
-36.0746
-37.3573
-38.9367
)
;
    }
    right
    {
        type            calculated;
        value           nonuniform List<scalar> 
32
(
-25.7943
-25.829
-25.895
-25.9889
-26.1079
-26.2493
-26.4108
-26.5901
-26.7849
-26.9928
-27.2115
-27.4383
-27.6706
-27.9057
-28.1407
-28.373
-28.5997
-28.8184
-29.0266
-29.2223
-29.4036
-29.5692
-29.7181
-29.8497
-29.9638
-30.0605
-30.1404
-30.2041
-30.2527
-30.2873
-30.3092
-30.3196
)
;
    }
    interface
    {
        type            calculated;
        value           nonuniform List<scalar> 
64
(
-39.8112
-29.1316
-38.1173
-29.1342
-20.9835
-30.2237
-26.462
-20.9191
-27.3336
-23.6486
-29.5065
-24.6192
-22.2486
-29.1209
-23.7639
-18.8096
-25.133
-22.9451
-19.4252
-23.7412
-21.4138
-25.3168
-22.1178
-20.6042
-25.0292
-21.5529
-18.5974
-22.2709
-20.3412
-23.4508
-20.8757
-19.69
-23.0557
-20.3681
-18.116
-20.8829
-19.8086
-18.4939
-19.9252
-19.0687
-19.8198
-18.8947
-18.73
-18.1529
-18.1514
-19.7097
-17.1074
-17.4096
-20.7934
-15.9176
-18.7781
-10.282
-16.0657
-22.9908
-0.698711
-18.4881
-61.5106
-40.241
-35.148
-32.8837
-31.6462
-30.9221
-30.5103
-30.3221
)
;
    }
    bottom
    {
        type            calculated;
        value           nonuniform List<scalar> 
64
(
-26.4178
-26.3904
-26.3363
-26.2571
-26.1549
-26.032
-25.8914
-25.7357
-25.5677
-25.3899
-25.2049
-25.0147
-24.8212
-24.6262
-24.4311
-24.2373
-24.0458
-23.8577
-23.6736
-23.4942
-23.3199
-23.151
-22.9878
-22.8307
-22.6797
-22.5351
-22.3973
-22.2666
-22.1433
-22.028
-21.9211
-21.8234
-21.7355
-21.6584
-21.5929
-21.5401
-21.501
-21.4769
-21.4689
-21.4784
-21.5065
-21.5544
-21.6236
-21.7149
-21.8295
-21.968
-22.1308
-22.3178
-22.5283
-22.7608
-23.0131
-23.2819
-23.5628
-23.8506
-24.1394
-24.4227
-24.6936
-24.9458
-25.1732
-25.3704
-25.5332
-25.6581
-25.7427
-25.7853
)
;
    }
    defaultFaces
    {
        type            empty;
    }
}


// ************************************************************************* //
