/*--------------------------------*- C++ -*----------------------------------*\
| =========                 |                                                 |
| \\      /  F ield         | OpenFOAM: The Open Source CFD Toolbox           |
|  \\    /   O peration     | Version:  5.x                                   |
|   \\  /    A nd           | Web:      www.OpenFOAM.org                      |
|    \\/     M anipulation  |                                                 |
\*---------------------------------------------------------------------------*/
FoamFile
{
    version     2.0;
    format      ascii;
    class       volScalarField;
    location    "10";
    object      gradTx;
}
// * * * * * * * * * * * * * * * * * * * * * * * * * * * * * * * * * * * * * //

dimensions      [0 -1 0 1 0 0 0];

internalField   nonuniform List<scalar> 
2048
(
0.00630496
0.0187344
0.0306389
0.0417206
0.0517503
0.060579
0.0681361
0.0744195
0.0794788
0.0833969
0.0862736
0.0882133
0.0893177
0.089684
0.0894043
0.0885679
0.0872617
0.085569
0.0835679
0.0813266
0.0789011
0.0763319
0.073644
0.0708475
0.0679402
0.0649099
0.061737
0.0583962
0.0548564
0.0510818
0.0470321
0.0426638
0.0379316
0.032791
0.0272002
0.0211214
0.0145226
0.00737742
-0.000333609
-0.00862219
-0.0174899
-0.0269244
-0.0368943
-0.0473423
-0.0581768
-0.069263
-0.0804139
-0.0913822
-0.101857
-0.111465
-0.119783
-0.12636
-0.130754
-0.132571
-0.131513
-0.127417
-0.120278
-0.110248
-0.097616
-0.0827655
-0.06613
-0.0481505
-0.029247
-0.00980744
0.0187885
0.0558183
0.0912575
0.124207
0.153981
0.180139
0.202482
0.221016
0.235904
0.247405
0.255823
0.261473
0.264658
0.265664
0.264763
0.262219
0.258288
0.25322
0.247247
0.240576
0.233371
0.225756
0.217801
0.209536
0.200951
0.192009
0.18265
0.172799
0.162364
0.151239
0.139303
0.126426
0.112474
0.0973115
0.0808144
0.0628707
0.0433844
0.0222776
-0.000508541
-0.0250105
-0.0512359
-0.0791528
-0.108674
-0.139637
-0.171778
-0.204707
-0.237876
-0.270559
-0.301833
-0.330587
-0.35555
-0.375362
-0.388676
-0.394292
-0.391299
-0.379195
-0.357964
-0.328076
-0.290414
-0.246153
-0.196609
-0.14311
-0.0869055
-0.0291384
0.0311402
0.0924838
0.151108
0.205488
0.254476
0.297357
0.333833
0.36396
0.388051
0.406572
0.420051
0.429019
0.433977
0.43539
0.433697
0.429324
0.422696
0.414223
0.404297
0.393263
0.381397
0.368901
0.355889
0.342401
0.328415
0.313864
0.298648
0.282641
0.265692
0.247629
0.22825
0.20734
0.184671
0.16002
0.133178
0.103961
0.0722098
0.0377964
0.000621906
-0.0393786
-0.0822268
-0.127884
-0.176224
-0.227004
-0.279815
-0.334045
-0.388819
-0.442964
-0.49497
-0.542993
-0.584902
-0.618388
-0.64114
-0.651079
-0.646614
-0.626866
-0.591804
-0.542256
-0.479771
-0.406391
-0.324374
-0.235962
-0.143224
-0.0480093
0.0435999
0.129427
0.211277
0.286943
0.354801
0.413878
0.46383
0.504827
0.537397
0.562264
0.580217
0.592012
0.598344
0.599842
0.597095
0.590683
0.581188
0.569191
0.555246
0.539846
0.523386
0.506143
0.488267
0.469799
0.450695
0.43085
0.410119
0.388329
0.365274
0.340712
0.314367
0.285931
0.255081
0.221501
0.184895
0.145006
0.101616
0.0545461
0.00365748
-0.0511489
-0.10992
-0.172627
-0.239134
-0.309144
-0.382147
-0.457349
-0.533598
-0.60931
-0.682415
-0.750338
-0.81005
-0.85821
-0.891425
-0.906599
-0.901335
-0.874296
-0.825437
-0.756017
-0.668384
-0.565595
-0.450975
-0.327746
-0.198794
-0.0666109
0.0563834
0.16727
0.272725
0.369776
0.456291
0.531075
0.593807
0.644863
0.685082
0.715522
0.737272
0.751333
0.758581
0.759786
0.755666
0.746934
0.734331
0.718613
0.700514
0.68069
0.659662
0.637782
0.615229
0.592029
0.568097
0.54328
0.517386
0.490195
0.461452
0.430853
0.39804
0.362611
0.324139
0.282206
0.236427
0.186471
0.132063
0.0729787
0.00903807
-0.059897
-0.133912
-0.213011
-0.297076
-0.385799
-0.478613
-0.574599
-0.672384
-0.770029
-0.86494
-0.95381
-1.03266
-1.097
-1.14218
-1.16387
-1.15869
-1.12471
-1.06186
-0.971949
-0.858334
-0.725319
-0.577485
-0.419136
-0.253976
-0.0850563
0.0696954
0.206601
0.336346
0.455079
0.560129
0.650118
0.724852
0.785044
0.831965
0.867104
0.891906
0.907626
0.915304
0.915815
0.909968
0.898591
0.882578
0.862877
0.840427
0.81607
0.79047
0.764054
0.737013
0.709336
0.680876
0.651415
0.620712
0.588504
0.554498
0.518332
0.479568
0.437698
0.392179
0.34248
0.288121
0.228698
0.163883
0.0934137
0.0170719
-0.0653246
-0.153914
-0.248758
-0.349789
-0.456735
-0.569026
-0.685682
-0.80518
-0.925301
-1.04298
-1.15418
-1.25392
-1.33642
-1.39554
-1.42544
-1.42144
-1.38086
-1.30359
-1.19215
-1.0512
-0.886628
-0.704544
-0.510468
-0.308918
-0.103385
0.0837403
0.247999
0.403008
0.543889
0.667391
0.772023
0.857856
0.926112
0.978656
1.01752
1.04458
1.06134
1.06896
1.06838
1.06045
1.04607
1.02629
1.00229
0.975229
0.946188
0.915988
0.885135
0.853808
0.821927
0.789251
0.755479
0.720314
0.683465
0.644616
0.603359
0.559173
0.51143
0.459454
0.402583
0.340233
0.271929
0.197302
0.116061
0.0279564
-0.0672398
-0.169733
-0.279669
-0.39707
-0.521743
-0.653176
-0.790404
-0.93184
-1.07508
-1.21665
-1.35185
-1.47463
-1.57775
-1.65328
-1.6935
-1.69205
-1.64522
-1.55282
-1.41832
-1.24812
-1.05015
-0.832389
-0.601758
-0.363565
-0.121568
0.0987294
0.292061
0.473588
0.637219
0.779089
0.897688
0.993546
1.06861
1.12555
1.16708
1.19556
1.21275
1.21987
1.21784
1.20746
1.18971
1.16577
1.13707
1.10509
1.07117
1.03633
1.00115
0.965764
0.929979
0.893417
0.855667
0.816374
0.775242
0.731957
0.686084
0.637016
0.583986
0.526154
0.462707
0.392945
0.316328
0.232459
0.141037
0.0417947
-0.0655422
-0.181261
-0.305618
-0.438765
-0.580638
-0.730844
-0.88851
-1.05209
-1.2191
-1.38581
-1.54688
-1.69519
-1.82186
-1.91683
-1.96998
-1.97277
-1.92007
-1.81152
-1.65187
-1.44986
-1.21608
-0.96087
-0.692714
-0.417662
-0.139506
0.114889
0.339418
0.548995
0.736093
0.896193
1.02792
1.1325
1.2129
1.27282
1.31587
1.34493
1.36198
1.36823
1.36445
1.35131
1.32979
1.30125
1.26742
1.23014
1.1911
1.15157
1.11218
1.073
1.03365
0.993553
0.952155
0.909046
0.863957
0.816622
0.766606
0.713206
0.655492
0.592421
0.522994
0.446384
0.361992
0.269418
0.168379
0.0586076
-0.0602123
-0.188463
-0.326546
-0.474778
-0.633273
-0.801816
-0.97971
-1.16557
-1.35697
-1.55006
-1.73903
-1.91567
-2.06931
-2.18735
-2.25664
-2.26576
-2.20759
-2.0815
-1.89395
-1.65682
-1.38424
-1.08946
-0.782741
-0.470767
-0.157037
0.132464
0.39075
0.630196
0.841561
1.01965
1.16342
1.27515
1.35915
1.42049
1.46381
1.49262
1.50906
1.51417
1.50842
1.49227
1.46659
1.43295
1.39346
1.35043
1.30599
1.2617
1.21827
1.17561
1.13309
1.08984
1.04511
0.998466
0.9497
0.898669
0.844973
0.78781
0.726037
0.658359
0.58355
0.500634
0.408967
0.308185
0.198057
0.0783446
-0.0513013
-0.191375
-0.342454
-0.505065
-0.679543
-0.865902
-1.0637
-1.27183
-1.48812
-1.7088
-1.92776
-2.13581
-2.32035
-2.46574
-2.5551
-2.57315
-2.51
-2.36453
-2.14549
-1.86906
-1.55403
-1.21724
-0.870958
-0.52226
-0.173941
0.151728
0.446806
0.718231
0.954721
1.15041
1.30486
1.42182
1.50739
1.56835
1.61064
1.63842
1.65389
1.65773
1.64995
1.63057
1.60035
1.56106
1.51529
1.46597
1.4158
1.3667
1.31943
1.27369
1.22844
1.18245
1.13472
1.08476
1.03253
0.978114
0.921196
0.860856
0.79568
0.724051
0.644456
0.555747
0.457259
0.348713
0.229981
0.100892
-0.0389236
-0.19009
-0.353401
-0.529639
-0.719395
-0.922954
-1.1402
-1.37043
-1.61192
-1.86124
-2.11227
-2.35503
-2.57487
-2.75269
-2.86689
-2.89713
-2.82963
-2.66239
-2.40726
-2.0863
-1.72444
-1.34296
-0.956209
-0.57136
-0.189945
0.172983
0.50841
0.814231
1.07673
1.28939
1.45279
1.57268
1.65748
1.71607
1.75596
1.78202
1.79632
1.79896
1.78921
1.7665
1.73134
1.68575
1.63299
1.57675
1.52045
1.46648
1.41566
1.36732
1.31988
1.2716
1.22117
1.16804
1.11248
1.05493
0.995242
0.932343
0.864459
0.789564
0.705781
0.611756
0.506842
0.390912
0.264011
0.126081
-0.0232488
-0.184754
-0.359497
-0.548566
-0.752837
-0.972882
-1.20897
-1.46091
-1.72766
-2.00643
-2.2915
-2.57241
-2.83248
-3.04861
-3.19343
-3.24
-3.169
-2.97694
-2.67985
-2.30787
-1.89402
-1.46495
-1.03709
-0.617153
-0.204733
0.196568
0.576475
0.91943
1.20882
1.43752
1.6077
1.72781
1.8091
1.86311
1.8992
1.92297
1.93613
1.93783
1.92638
1.90034
1.85981
1.80721
1.74663
1.68271
1.6198
1.56092
1.50691
1.45657
1.40757
1.35753
1.30467
1.24843
1.18955
1.12905
1.06704
1.00224
0.932398
0.85496
0.767591
0.668682
0.557663
0.43466
0.299964
0.153694
-0.00449443
-0.175558
-0.360897
-0.561965
-0.779938
-1.01567
-1.26982
-1.54286
-1.83461
-2.14332
-2.46417
-2.78674
-3.09241
-3.35363
-3.53607
-3.60423
-3.53098
-3.31021
-2.96367
-2.5327
-2.0609
-1.58124
-1.11198
-0.658618
-0.217962
0.222864
0.652015
1.03518
1.35229
1.59573
1.77
1.88712
1.96181
2.00878
2.03966
2.06077
2.07305
2.07436
2.06168
2.03242
1.98608
1.92562
1.85624
1.78374
1.71367
1.64985
1.59314
1.54155
1.49173
1.44049
1.38547
1.32606
1.2637
1.20035
1.13649
1.07052
0.999511
0.920304
0.829962
0.726544
0.60965
0.4798
0.337618
0.18347
0.0170806
-0.162728
-0.357788
-0.569998
-0.800834
-1.05137
-1.32267
-1.61594
-1.93209
-2.27079
-2.62882
-2.99646
-3.35354
-3.6676
-3.89604
-3.99252
-3.91885
-3.66448
-3.25896
-2.75924
-2.2227
-1.68951
-1.1791
-0.694678
-0.229274
0.252297
0.736144
1.16294
1.50854
1.76491
1.93999
2.05044
2.11502
2.15223
2.17651
2.19481
2.20683
2.20853
2.19536
2.16314
2.11048
2.04116
1.96186
1.87973
1.80181
1.73305
1.67427
1.62234
1.57257
1.52079
1.46388
1.40106
1.33487
1.26867
1.20345
1.1371
1.06581
0.985668
0.892985
0.78536
0.662713
0.526156
0.376719
0.21511
0.0411819
-0.146514
-0.350379
-0.572863
-0.815721
-1.08014
-1.36752
-1.67991
-2.01947
-2.38769
-2.78378
-3.19975
-3.61439
-3.98997
-4.2744
-4.40783
-4.33649
-4.04233
-3.56571
-2.98539
-2.37657
-1.78714
-1.23656
-0.724243
-0.238318
0.285348
0.830086
1.30431
1.67907
1.9459
2.11783
2.21745
2.268
2.29247
2.30879
2.32448
2.33721
2.34034
2.32769
2.29297
2.23338
2.154
2.06353
1.97053
1.88393
1.81026
1.75023
1.6991
1.65035
1.5988
1.54025
1.47357
1.40293
1.33377
1.26775
1.20194
1.1313
1.05114
0.956785
0.845157
0.716745
0.57353
0.416988
0.248279
0.0674848
-0.127187
-0.338893
-0.570785
-0.824858
-1.10223
-1.40449
-1.73466
-2.09625
-2.49288
-2.92725
-3.39446
-3.87306
-4.31979
-4.67192
-4.8534
-4.78855
-4.44681
-3.88355
-3.2084
-2.51911
-1.87132
-1.28246
-0.746273
-0.24477
0.322568
0.935168
1.46101
1.86547
2.13951
2.30352
2.38778
2.41992
2.42835
2.43542
2.44912
2.46395
2.46981
2.45901
2.4225
2.35519
2.26431
2.1613
2.05597
1.95967
1.88113
1.82094
1.77198
1.72534
1.67491
1.61504
1.54376
1.4677
1.39533
1.3292
1.26499
1.19599
1.11681
1.02153
0.905966
0.771615
0.621713
0.458128
0.282611
0.0956381
-0.105021
-0.323543
-0.564001
-0.828559
-1.11796
-1.43382
-1.78022
-2.1621
-2.58531
-3.05736
-3.57819
-4.1273
-4.65566
-5.08895
-5.33275
-5.28072
-4.88151
-4.21169
-3.4247
-2.64645
-1.93908
-1.31497
-0.75984
-0.248353
0.364595
1.05281
1.63487
2.0695
2.34641
2.49686
2.56097
2.56989
2.55855
2.5552
2.56809
2.58692
2.59691
2.58967
2.55246
2.47634
2.37219
2.25526
2.13589
2.02858
1.94528
1.88633
1.84122
1.79779
1.74957
1.68882
1.61183
1.52891
1.45297
1.38757
1.32623
1.25986
1.1828
1.08745
0.967831
0.82716
0.670496
0.499828
0.317706
0.125266
-0.0802925
-0.304528
-0.552749
-0.827185
-1.12778
-1.45582
-1.81677
-2.2169
-2.66404
-3.17213
-3.7483
-4.37453
-4.99563
-5.52522
-5.84963
-5.82002
-5.3507
-4.54865
-3.62982
-2.75421
-1.9874
-1.33241
-0.764183
-0.248857
0.412194
1.1845
1.82778
2.29313
2.56713
2.69735
2.73657
2.71697
2.6816
2.6668
2.68079
2.70612
2.72156
2.72003
2.68377
2.59725
2.47766
2.34555
2.21013
2.09014
2.00223
1.94637
1.90712
1.86795
1.82322
1.7623
1.67799
1.58618
1.50619
1.44266
1.38571
1.32287
1.24921
1.15488
1.0308
0.883167
0.719677
0.541775
0.353132
0.155971
-0.0532688
-0.282007
-0.537248
-0.821142
-1.1322
-1.47091
-1.84464
-2.2608
-2.72831
-3.26956
-3.90192
-4.61188
-5.33728
-5.97951
-6.40792
-6.41525
-5.85954
-4.89199
-3.81816
-2.83757
-2.01339
-1.3334
-0.758771
-0.246155
0.466323
1.33177
2.04167
2.53863
2.80197
2.90412
2.91421
2.86022
2.79588
2.76876
2.78668
2.82174
2.84357
2.85043
2.81766
2.71835
2.58059
2.43245
2.27857
2.14371
2.05138
2.00104
1.97013
1.93595
1.89632
1.83645
1.74249
1.63899
1.55436
1.49426
1.44355
1.38491
1.31613
1.22427
1.0949
0.939347
0.769091
0.583665
0.388418
0.187329
-0.0242032
-0.256089
-0.517688
-0.810871
-1.13186
-1.47955
-1.86427
-2.2943
-2.77757
-3.34767
-4.03598
-4.83629
-5.67775
-6.44928
-7.01143
-7.07755
-6.41423
-5.23789
-3.98284
-2.89143
-2.01441
-1.31693
-0.74334
-0.240214
0.528245
1.49612
2.27841
2.80871
3.0509
3.11578
3.09377
2.99877
2.89953
2.85945
2.88534
2.93431
2.96251
2.98113
2.95574
2.83997
2.68058
2.5164
2.34115
2.1885
2.09203
2.05037
2.03089
2.00181
1.96929
1.9125
1.80562
1.68664
1.59671
1.54218
1.50007
1.44577
1.38361
1.2963
1.16016
0.995293
0.818637
0.625208
0.423044
0.218895
0.00666822
-0.226812
-0.494208
-0.796844
-1.12749
-1.48221
-1.87619
-2.31827
-2.81154
-3.4045
-4.14725
-5.04467
-6.0139
-6.93018
-7.66354
-7.82118
-7.02223
-5.58056
-4.11558
-2.91051
-1.98823
-1.28245
-0.71793
-0.2311
0.599712
1.67895
2.53963
3.10683
3.31347
3.33019
3.27557
3.13185
2.99047
2.93706
2.9765
3.04482
3.07758
3.11219
3.10029
2.96229
2.77687
2.59822
2.39786
2.22356
2.12333
2.09449
2.09031
2.06526
2.04243
1.99214
1.86766
1.72819
1.63232
1.58629
1.55581
1.50506
1.45161
1.37193
1.22653
1.05042
0.868337
0.666142
0.456431
0.250196
0.0391277
-0.194128
-0.466882
-0.779558
-1.11999
-1.47932
-1.88095
-2.33412
-2.83025
-3.43812
-4.23226
-5.234
-6.34266
-7.41533
-8.36674
-8.66455
-7.69251
-5.91147
-4.20658
-2.88966
-1.93326
-1.22994
-0.682889
-0.218979
0.683251
1.88141
2.82655
3.43749
3.58858
3.54424
3.46069
3.25881
3.06631
2.99952
3.06003
3.155
3.18738
3.2434
3.25446
3.08526
2.86808
2.6792
2.4488
2.24772
2.14424
2.13355
2.14978
2.12566
2.11583
2.07768
1.92887
1.76241
1.66007
1.6265
1.61168
1.56209
1.51996
1.45256
1.29388
1.10389
0.918406
0.706238
0.487919
0.28074
0.0729722
-0.157879
-0.435704
-0.759518
-1.11042
-1.47122
-1.87897
-2.34385
-2.83401
-3.44672
-4.28731
-5.40154
-6.6616
-7.8946
-9.12183
-9.6316
-8.43576
-6.21828
-4.24454
-2.82413
-1.8487
-1.15996
-0.638868
-0.204108
0.782601
2.10427
3.13955
3.80686
3.87424
3.75347
3.65139
3.37913
3.1243
3.04454
3.13592
3.26759
3.28964
3.37407
3.42272
3.2084
2.95204
2.76144
2.49412
2.25954
2.1535
2.16781
2.21131
2.18177
2.1893
2.17227
1.98944
1.78771
1.67866
1.66279
1.66913
1.61578
1.58823
1.54023
1.3619
1.15451
0.969371
0.745294
0.516743
0.310015
0.108005
-0.117786
-0.400572
-0.737221
-1.10013
-1.45803
-1.87048
-2.35023
-2.82344
-3.4286
-4.30831
-5.54488
-6.96972
-8.35357
-9.92686
-10.7536
-9.26463
-6.48349
-4.21687
-2.71002
-1.73469
-1.07367
-0.586791
-0.186818
0.903355
2.34767
3.47777
4.2235
4.16731
3.95157
3.85174
3.49235
3.16124
3.0695
3.20423
3.38686
3.38084
3.50281
3.61143
3.3306
3.02536
2.8482
2.534
2.25726
2.14964
2.19748
2.27788
2.23151
2.26214
2.28024
2.04936
1.8021
1.68659
1.69515
1.73038
1.66439
1.65568
1.63783
1.43001
1.20056
1.02223
0.783116
0.541999
0.337511
0.144018
-0.0734225
-0.361283
-0.713121
-1.09082
-1.43966
-1.85525
-2.35703
-2.79938
-3.38224
-4.29067
-5.66206
-7.2687
-8.77244
-10.7756
-12.0713
-10.1939
-6.6827
-4.11007
-2.54471
-1.59243
-0.972734
-0.527803
-0.1675
1.05387
2.6108
3.83836
4.69946
4.46298
4.12979
4.06842
3.59789
3.17341
3.07147
3.26492
3.51915
3.45567
3.62721
3.82954
3.44981
3.0831
2.9444
2.56851
2.23872
2.13092
2.22271
2.3538
2.27163
2.33301
2.40756
2.10822
1.80313
1.68218
1.72352
1.79876
1.70534
1.72107
1.74953
1.49724
1.23965
1.07865
0.819481
0.56261
0.362741
0.180771
-0.0241926
-0.317527
-0.687574
-1.0847
-1.41563
-1.83234
-2.36927
-2.76279
-3.30644
-4.22903
-5.75136
-7.56456
-9.1247
-11.6556
-13.6382
-11.2405
-6.78245
-3.91055
-2.32735
-1.42423
-0.859317
-0.463213
-0.146582
1.24649
2.89154
4.21559
5.25165
4.75428
4.27619
4.3118
3.69473
3.15654
3.04724
3.31758
3.67375
3.50645
3.74345
4.08956
3.56266
3.11814
3.05737
2.59742
2.20137
2.09538
2.24336
2.44527
2.29731
2.3996
2.56235
2.16501
1.78782
1.66362
1.74766
1.87906
1.73486
1.78247
1.88116
1.562
1.26849
1.14128
0.854057
0.577282
0.385284
0.217949
0.0306949
-0.268903
-0.660748
-1.0847
-1.38506
-1.79982
-2.39365
-2.71453
-3.20045
-4.11706
-5.81103
-7.86985
-9.37571
-12.5457
-15.5238
-12.4234
-6.7376
-3.60582
-2.05936
-1.23349
-0.735934
-0.394421
-0.124504
1.49925
3.18596
4.59959
5.90366
5.03127
4.37466
4.59731
3.78097
3.10573
2.99338
3.36101
3.86391
3.52233
3.84577
4.40879
3.6639
3.12062
3.19767
2.61991
2.1422
2.04086
2.25876
2.56103
2.30164
2.45838
2.75564
2.21767
1.75272
1.62905
1.76692
1.97815
1.74759
1.83705
2.04083
1.62184
1.28263
1.21412
0.88628
0.58446
0.404845
0.255109
0.0922618
-0.214949
-0.632497
-1.0947
-1.34658
-1.75423
-2.43905
-2.65504
-3.06427
-3.94714
-5.8386
-8.20649
-9.48121
-13.4123
-17.8185
-13.7636
-6.48823
-3.18625
-1.74484
-1.02455
-0.605331
-0.322851
-0.101702
1.83793
3.4877
4.9749
6.68806
5.28019
4.40381
4.94714
3.85299
3.01553
2.90639
3.39253
4.10819
3.48835
3.92591
4.81076
3.7458
3.07713
3.38024
2.63401
2.05779
1.96513
2.26726
2.71327
2.27501
2.50419
3.0022
2.2626
1.69391
1.57666
1.77993
2.10558
1.73611
1.8808
2.23954
1.67317
1.27613
1.30295
0.915175
0.582292
0.42134
0.291611
0.161806
-0.155199
-0.602178
-1.11979
-1.29826
-1.69015
-2.51712
-2.58386
-2.89904
-3.71008
-5.82975
-8.60923
-9.3857
-14.2059
-20.6383
-15.2834
-5.956
-2.64746
-1.39076
-0.80249
-0.47033
-0.249877
-0.0785867
2.29879
3.78722
5.31852
7.64916
5.48229
4.3357
5.39237
3.90451
2.88003
2.78296
3.40717
4.43208
3.38437
3.9723
5.32695
3.79731
2.96983
3.62577
2.63599
1.94438
1.86604
2.26567
2.91866
2.20444
2.52981
3.32163
2.29398
1.60715
1.50491
1.78411
2.27446
1.6904
1.90816
2.49211
1.7108
1.24127
1.41592
0.939103
0.568598
0.435
0.326519
0.240959
-0.0892773
-0.568406
-1.16672
-1.23761
-1.59946
-2.64317
-2.499
-2.7075
-3.39492
-5.77667
-9.12977
-9.02099
-14.8558
-24.1317
-17.0052
-5.04012
-1.99353
-1.00697
-0.572824
-0.333681
-0.176771
-0.0555288
2.9317
4.07099
5.5977
8.84628
5.61248
4.13435
5.97544
3.92512
2.69312
2.62035
3.39639
4.86995
3.18382
3.96926
5.99888
3.80315
2.7755
3.9623
2.61944
1.79801
1.74173
2.24851
3.19961
2.07269
2.52545
3.73953
2.30288
1.48802
1.41273
1.77507
2.50239
1.59714
1.91168
2.81803
1.7275
1.16811
1.56424
0.955422
0.540861
0.446507
0.358479
0.331771
-0.0170375
-0.528739
-1.24419
-1.16163
-1.47057
-2.83715
-2.39606
-2.49474
-2.98879
-5.66586
-9.84157
-8.30477
-15.2645
-28.4863
-18.9508
-3.61294
-1.24083
-0.605816
-0.341148
-0.197924
-0.104659
-0.032851
3.804
4.32045
5.76731
10.3575
5.63771
3.75416
6.753
3.89857
2.44884
2.41686
3.34666
5.46731
2.85231
3.896
6.88028
3.74269
2.46447
4.42711
2.57413
1.61478
1.59104
2.20699
3.58577
1.85742
2.47823
4.28897
2.27619
1.33227
1.29986
1.74582
2.81269
1.43903
1.8816
3.24257
1.71344
1.04414
1.7629
0.960058
0.496242
0.457149
0.38557
0.436813
0.0612462
-0.479284
-1.36338
-1.06682
-1.28753
-3.12485
-2.26712
-2.26894
-2.47701
-5.47517
-10.8452
-7.13954
-15.3013
-33.937
-21.1394
-1.51517
-0.422856
-0.201268
-0.112737
-0.0652799
-0.0344883
-0.0108212
)
;

boundaryField
{
    left
    {
        type            calculated;
        value           uniform 0;
    }
    right
    {
        type            calculated;
        value           uniform 0;
    }
    interface
    {
        type            calculated;
        value           nonuniform List<scalar> 
64
(
3.804
4.32045
5.76731
10.3575
5.63771
3.75416
6.753
3.89857
2.44884
2.41686
3.34666
5.46731
2.85231
3.896
6.88028
3.74269
2.46447
4.42711
2.57413
1.61478
1.59104
2.20699
3.58577
1.85742
2.47823
4.28897
2.27619
1.33227
1.29986
1.74582
2.81269
1.43903
1.8816
3.24257
1.71344
1.04414
1.7629
0.960058
0.496242
0.457149
0.38557
0.436813
0.0612462
-0.479284
-1.36338
-1.06682
-1.28753
-3.12485
-2.26712
-2.26894
-2.47701
-5.47517
-10.8452
-7.13954
-15.3013
-33.937
-21.1394
-1.51517
-0.422856
-0.201268
-0.112737
-0.0652799
-0.0344883
-0.0108212
)
;
    }
    bottom
    {
        type            calculated;
        value           nonuniform List<scalar> 
64
(
0.00630496
0.0187344
0.0306389
0.0417206
0.0517503
0.060579
0.0681361
0.0744195
0.0794788
0.0833969
0.0862736
0.0882133
0.0893177
0.089684
0.0894043
0.0885679
0.0872617
0.085569
0.0835679
0.0813266
0.0789011
0.0763319
0.073644
0.0708475
0.0679402
0.0649099
0.061737
0.0583962
0.0548564
0.0510818
0.0470321
0.0426638
0.0379316
0.032791
0.0272002
0.0211214
0.0145226
0.00737742
-0.000333609
-0.00862219
-0.0174899
-0.0269244
-0.0368943
-0.0473423
-0.0581768
-0.069263
-0.0804139
-0.0913822
-0.101857
-0.111465
-0.119783
-0.12636
-0.130754
-0.132571
-0.131513
-0.127417
-0.120278
-0.110248
-0.097616
-0.0827655
-0.06613
-0.0481505
-0.029247
-0.00980744
)
;
    }
    defaultFaces
    {
        type            empty;
    }
}


// ************************************************************************* //
