/*--------------------------------*- C++ -*----------------------------------*\
| =========                 |                                                 |
| \\      /  F ield         | OpenFOAM: The Open Source CFD Toolbox           |
|  \\    /   O peration     | Version:  5.x                                   |
|   \\  /    A nd           | Web:      www.OpenFOAM.org                      |
|    \\/     M anipulation  |                                                 |
\*---------------------------------------------------------------------------*/
FoamFile
{
    version     2.0;
    format      ascii;
    class       volScalarField;
    location    "7.2999";
    object      gradTy;
}
// * * * * * * * * * * * * * * * * * * * * * * * * * * * * * * * * * * * * * //

dimensions      [0 -1 0 1 0 0 0];

internalField   nonuniform List<scalar> 
6300
(
32284.2
32252.5
32220.6
32188.7
32156.4
32123.9
32091
32057.6
32023.8
31989.4
31954.5
31919
31882.9
31846.2
31808.9
0.0534516
0.159853
0.264718
0.366913
0.465145
0.55792
0.643525
0.720047
0.785435
0.837626
0.874733
0.895295
0.89856
0.884763
0.855323
0.0896371
0.268116
0.444148
0.615907
0.781283
0.937808
1.0826
1.21241
1.32367
1.41274
1.4762
1.51129
1.51646
1.49189
1.43992
0.12662
0.37883
0.627859
0.871294
1.10629
1.32944
1.5367
1.72335
1.88414
2.01351
2.10608
2.15726
2.16416
2.12646
2.04735
0.164633
0.492726
0.817172
1.13513
1.44315
1.73699
2.01142
2.26018
2.47605
2.65113
2.77738
2.84757
2.85648
2.80251
2.68922
0.203823
0.610274
1.01298
1.40891
1.79422
2.16397
2.51183
2.82993
3.10879
3.3376
3.50479
3.59918
3.61173
3.53791
3.3806
0.244208
0.731571
1.21558
1.69332
2.16087
2.61286
3.04204
3.43894
3.79162
4.08574
4.30505
4.43268
4.45336
4.35683
4.14264
0.285647
0.856231
1.42445
1.98794
2.54311
3.08458
3.60457
4.09222
4.53306
4.9087
5.197
5.37314
5.41218
5.29339
5.00742
0.327801
0.983264
1.63806
2.29089
2.93906
3.57783
4.19946
4.79232
5.33973
5.81904
6.20108
6.45068
6.52876
6.39703
6.02665
0.370095
1.11097
1.85366
2.59851
3.34446
4.08822
4.82317
5.5379
6.21452
6.82662
7.33758
7.69966
7.85507
7.73919
7.28686
0.411706
1.23687
2.0671
2.90504
3.75207
4.60746
5.4671
6.32161
7.15381
7.93532
8.62286
9.15525
9.45261
9.41785
8.933
0.451564
1.35772
2.27285
3.2025
4.15134
5.12248
6.11617
7.12764
8.14376
9.13791
10.0632
10.8459
11.3826
11.5476
11.189
0.488393
1.4696
2.46411
3.48077
4.52832
5.61498
6.74745
7.929
9.15565
10.4092
11.6462
12.7827
13.6858
14.2052
14.2883
0.520798
1.5682
2.63321
3.72815
4.86623
6.06167
7.32965
8.68524
10.1405
11.6971
13.3299
14.9538
16.3767
17.3112
17.8926
0.547397
1.6492
2.77238
3.93241
5.14676
6.43585
7.82423
9.34177
11.0239
12.9088
15.0224
17.3274
19.5638
20.7991
18.4704
31774.2
31742.3
31710
31677.4
31644.4
31611.2
31577.7
31543.9
31510
31475.8
31441.4
31406.9
31372.2
31337.4
31302.6
31267.6
31232.7
31197.7
31162.7
31127.7
31092.8
31057.9
31023
30988.1
30953.3
30918.6
30883.9
30849.2
30814.6
30780
30745.5
30711.1
30676.8
30642.6
30608.5
30574.5
30540.5
30506.7
30473
30439.3
30405.8
30372.3
30338.9
30305.6
30272.4
30239.2
30206.2
30173.3
30140.5
30107.8
30075.2
30042.7
30010.3
29978
29945.8
29913.7
29881.7
29849.8
29817.9
29786.1
29754.4
29722.9
29691.4
29660
29628.7
29597.5
29566.4
29535.5
29504.5
29473.7
29443
29412.3
29381.7
29351.1
29320.6
29290.1
29259.8
29229.5
29199.2
29169
29138.8
29108.7
29078.6
29048.5
29018.3
28988.1
28957.8
28927.4
28897
28866.4
0.816387
0.774202
0.727507
0.678518
0.62909
0.580467
0.533152
0.486927
0.441027
0.394431
0.346206
0.29583
0.243429
0.189878
0.136732
0.0860136
0.0398745
0.000223504
-0.031623
-0.055187
-0.0709311
-0.0802012
-0.0850228
-0.0877872
-0.0908798
-0.0963102
-0.105403
-0.1186
-0.135411
-0.15452
-0.174037
-0.191857
-0.206042
-0.215182
-0.218638
-0.216662
-0.210342
-0.201416
-0.191981
-0.184139
-0.179645
-0.179617
-0.18435
-0.193263
-0.205006
-0.217696
-0.229256
-0.237784
-0.241885
-0.24091
-0.235059
-0.225336
-0.213368
-0.201122
-0.190574
-0.183373
-0.180562
-0.1824
-0.188315
-0.197002
-0.206651
-0.215265
-0.221011
-0.222539
-0.219205
-0.211168
-0.199344
-0.185232
-0.17064
-0.157362
-0.146852
-0.139951
-0.136708
-0.136331
-0.137278
-0.137471
-0.134619
-0.126573
-0.111669
-0.0890068
-0.0586192
-0.0215296
0.0203098
0.064181
0.106849
0.14488
0.174997
0.194452
0.201364
0.194963
1.37141
1.29746
1.2161
1.1315
1.04712
0.96527
0.886737
0.810886
0.735984
0.659784
0.580217
0.496038
0.407301
0.315566
0.223773
0.135816
0.0558821
-0.0122979
-0.0661386
-0.104681
-0.128787
-0.141024
-0.145265
-0.146086
-0.148051
-0.155
-0.169455
-0.192231
-0.22234
-0.257188
-0.293064
-0.325839
-0.351725
-0.367969
-0.373336
-0.368316
-0.355021
-0.336818
-0.317757
-0.301897
-0.292631
-0.29212
-0.300928
-0.317927
-0.340484
-0.36493
-0.387218
-0.403644
-0.411507
-0.409562
-0.398216
-0.379427
-0.356351
-0.3328
-0.312599
-0.298938
-0.293838
-0.297805
-0.309731
-0.327079
-0.346327
-0.363588
-0.375305
-0.37887
-0.373056
-0.358201
-0.336111
-0.309715
-0.282543
-0.2581
-0.239245
-0.227661
-0.22351
-0.22533
-0.2302
-0.234159
-0.232815
-0.222039
-0.198622
-0.160787
-0.108502
-0.0435688
0.0304998
0.108776
0.185366
0.253972
0.308544
0.34397
0.356718
0.345335
1.9433
1.83148
1.70945
1.58421
1.46161
1.34537
1.23653
1.13355
1.03288
0.930053
0.820933
0.702867
0.575549
0.441393
0.305344
0.174118
0.0550192
-0.045413
-0.122628
-0.174907
-0.203678
-0.213302
-0.210372
-0.202678
-0.197985
-0.202822
-0.22146
-0.255241
-0.302383
-0.358309
-0.416493
-0.469676
-0.511227
-0.536352
-0.542926
-0.53182
-0.506702
-0.473387
-0.438855
-0.410093
-0.392942
-0.391134
-0.405646
-0.434519
-0.473173
-0.515207
-0.553552
-0.581769
-0.595185
-0.591687
-0.572027
-0.539624
-0.499952
-0.459593
-0.425143
-0.402111
-0.393998
-0.401689
-0.423278
-0.454362
-0.488804
-0.519837
-0.541283
-0.548648
-0.539869
-0.5156
-0.479026
-0.435264
-0.390465
-0.350743
-0.321119
-0.304619
-0.301668
-0.309893
-0.324392
-0.33844
-0.344549
-0.335667
-0.306297
-0.253338
-0.176564
-0.0787276
0.0346643
0.155832
0.27541
0.383301
0.469691
0.526169
0.546847
0.529254
2.54004
2.38025
2.20748
2.03319
1.867
1.71485
1.57796
1.45294
1.33292
1.20942
1.07456
0.923043
0.753658
0.569958
0.37998
0.194963
0.0272801
-0.111958
-0.215025
-0.278981
-0.306142
-0.303657
-0.28234
-0.254948
-0.234196
-0.230771
-0.251659
-0.299013
-0.369778
-0.456181
-0.547123
-0.630264
-0.694383
-0.731449
-0.737977
-0.715502
-0.670187
-0.611711
-0.551647
-0.501568
-0.471164
-0.466648
-0.489684
-0.537029
-0.601
-0.670794
-0.734476
-0.781208
-0.80322
-0.79709
-0.764187
-0.710293
-0.644543
-0.577879
-0.521247
-0.483802
-0.471398
-0.485563
-0.523154
-0.576808
-0.636191
-0.68989
-0.727536
-0.741675
-0.728989
-0.690717
-0.632288
-0.562308
-0.491074
-0.428841
-0.384094
-0.362065
-0.363728
-0.385421
-0.41923
-0.454151
-0.477868
-0.478797
-0.447937
-0.380177
-0.274952
-0.136284
0.0276344
0.205182
0.382285
0.543593
0.673911
0.759926
0.792087
0.766268
3.17163
2.94776
2.70776
2.47056
2.25224
2.06241
1.90235
1.76518
1.638
1.50519
1.3522
1.16898
0.952399
0.707576
0.44748
0.190852
-0.041418
-0.230588
-0.363745
-0.436043
-0.451296
-0.421137
-0.363058
-0.297661
-0.24546
-0.223716
-0.24375
-0.309079
-0.414659
-0.547523
-0.688992
-0.818249
-0.916504
-0.970526
-0.974798
-0.932082
-0.852632
-0.752329
-0.650068
-0.56472
-0.512115
-0.502493
-0.538726
-0.615606
-0.720446
-0.835192
-0.939813
-1.01625
-1.05179
-1.04105
-0.986581
-0.898041
-0.790458
-0.681727
-0.589726
-0.529442
-0.510547
-0.535708
-0.599906
-0.691008
-0.79177
-0.883064
-0.947645
-0.973332
-0.954957
-0.894864
-0.802188
-0.691159
-0.578722
-0.481764
-0.414356
-0.385397
-0.396946
-0.4435
-0.512467
-0.585997
-0.644
-0.667702
-0.642709
-0.560967
-0.421497
-0.230197
0.000979808
0.255173
0.511905
0.748513
0.941932
1.07123
1.12082
1.08361
3.85206
3.53849
3.20401
2.88079
2.59646
2.36714
2.19381
2.06311
1.95124
1.83004
1.67344
1.46296
1.19184
0.867202
0.509995
0.151671
-0.172177
-0.429879
-0.600103
-0.675254
-0.661849
-0.578826
-0.454321
-0.321376
-0.212872
-0.156505
-0.170625
-0.26119
-0.420259
-0.626481
-0.848452
-1.05089
-1.20233
-1.28125
-1.27929
-1.20157
-1.06511
-0.895775
-0.724144
-0.58073
-0.491179
-0.472317
-0.529247
-0.653928
-0.825639
-1.01418
-1.18574
-1.31021
-1.36699
-1.348
-1.25804
-1.11322
-0.938033
-0.761494
-0.612541
-0.515488
-0.486263
-0.529648
-0.637924
-0.791306
-0.960986
-1.11471
-1.22376
-1.26844
-1.241
-1.14593
-0.99852
-0.822042
-0.644082
-0.492135
-0.389253
-0.350401
-0.379756
-0.469304
-0.599133
-0.7402
-0.859523
-0.926725
-0.9192
-0.824881
-0.642673
-0.381533
-0.0588154
0.301508
0.670508
1.01563
1.30229
1.49732
1.57454
1.52112
4.60358
4.15925
3.68402
3.23496
2.86149
2.59123
2.42391
2.33395
2.27796
2.20592
2.07229
1.84431
1.50836
1.07375
0.574133
0.0628488
-0.398182
-0.755141
-0.97337
-1.04199
-0.972656
-0.796257
-0.557745
-0.309903
-0.105215
0.0121989
0.0125715
-0.114662
-0.357968
-0.682772
-1.03606
-1.35696
-1.59259
-1.70847
-1.69288
-1.55564
-1.32496
-1.04253
-0.757598
-0.519188
-0.368465
-0.333012
-0.422219
-0.624539
-0.906609
-1.21763
-1.49948
-1.70167
-1.7913
-1.75717
-1.60852
-1.37214
-1.08757
-0.801549
-0.560631
-0.403874
-0.35743
-0.430156
-0.610998
-0.868143
-1.15318
-1.4107
-1.59258
-1.66742
-1.62443
-1.47239
-1.23671
-0.955065
-0.671986
-0.431858
-0.27195
-0.21719
-0.27589
-0.437103
-0.669618
-0.925714
-1.1501
-1.29335
-1.32067
-1.21535
-0.977508
-0.621539
-0.172761
0.335352
0.8635
1.36692
1.79459
2.09304
2.2164
2.13969
5.46608
4.82431
4.12614
3.48019
2.97783
2.66702
2.54259
2.55588
2.62782
2.67052
2.60705
2.38117
1.96697
1.37392
0.655085
-0.0983305
-0.774051
-1.28017
-1.56207
-1.60739
-1.43764
-1.10314
-0.674612
-0.236298
0.128108
0.349432
0.37951
0.199001
-0.178331
-0.698062
-1.2703
-1.78584
-2.1553
-2.32502
-2.28168
-2.04427
-1.65934
-1.19292
-0.72407
-0.33139
-0.0797785
-0.0142125
-0.152321
-0.480327
-0.945896
-1.46313
-1.92793
-2.2552
-2.39387
-2.33124
-2.08537
-1.70045
-1.2392
-0.776674
-0.387544
-0.133424
-0.0570053
-0.174989
-0.47421
-0.904822
-1.38501
-1.81563
-2.11556
-2.23605
-2.16493
-1.91927
-1.5411
-1.09016
-0.638045
-0.256069
-0.00323713
0.0794014
-0.0244075
-0.30223
-0.706146
-1.15689
-1.55751
-1.82692
-1.91315
-1.79665
-1.48244
-0.995187
-0.372145
0.340348
1.0921
1.82731
2.47295
2.94088
3.14638
3.0368
6.51861
5.57014
4.49262
3.51838
2.8183
2.47432
2.46287
2.69329
3.01979
3.28801
3.37571
3.18925
2.68315
1.85526
0.785839
-0.371385
-1.39414
-2.12809
-2.49146
-2.48251
-2.13987
-1.54544
-0.805581
-0.05628
0.567459
0.962045
1.04968
0.796075
0.206346
-0.637761
-1.58619
-2.42509
-3.00567
-3.24841
-3.14993
-2.74536
-2.11106
-1.34685
-0.580869
0.059528
0.476796
0.597861
0.39101
-0.13804
-0.910807
-1.78413
-2.55447
-3.08035
-3.2863
-3.1692
-2.76247
-2.13869
-1.39267
-0.646133
-0.0200608
0.392901
0.523341
0.341145
-0.148234
-0.870121
-1.68824
-2.40877
-2.89692
-3.08064
-2.95677
-2.55697
-1.95027
-1.22696
-0.503111
0.105682
0.510548
0.644472
0.47765
0.0142151
-0.675246
-1.46024
-2.15386
-2.62427
-2.79755
-2.66264
-2.23655
-1.56437
-0.700338
0.288816
1.34451
2.41669
3.40722
4.16661
4.53007
4.37776
7.93133
6.50117
4.70921
3.16084
2.14599
1.80283
2.0348
2.6923
3.49565
4.16545
4.53919
4.45762
3.86274
2.6844
1.04305
-0.838069
-2.43011
-3.50964
-3.957
-3.83817
-3.20469
-2.19716
-0.950161
0.304533
1.33677
2.01665
2.21124
1.87715
0.957312
-0.42725
-2.05984
-3.43633
-4.34253
-4.66317
-4.459
-3.77726
-2.74989
-1.50334
-0.25685
0.77173
1.45988
1.68211
1.39828
0.555176
-0.730937
-2.25346
-3.53302
-4.36623
-4.64396
-4.42425
-3.75214
-2.75299
-1.5469
-0.342146
0.65428
1.32603
1.55386
1.2996
0.512536
-0.696866
-2.13201
-3.33655
-4.11666
-4.36815
-4.14595
-3.49263
-2.52739
-1.36452
-0.202511
0.761079
1.41448
1.64261
1.40683
0.656133
-0.506787
-1.89516
-3.07162
-3.84948
-4.12576
-3.94794
-3.34504
-2.40979
-1.20871
0.141471
1.57317
3.12367
4.67431
5.96248
6.65648
6.46527
10.0956
7.95471
4.57298
2.03104
0.505599
0.303336
0.994096
2.48133
4.16382
5.46925
6.35831
6.46516
5.88255
4.18032
1.64551
-1.72102
-4.20409
-5.80154
-6.23788
-5.93493
-4.80815
-3.19376
-1.10584
0.98566
2.61348
3.77005
4.13406
3.80167
2.37747
0.140397
-2.90227
-5.12483
-6.52264
-6.83368
-6.45578
-5.30689
-3.70435
-1.65978
0.380936
1.97412
3.11386
3.49506
3.2109
1.88629
-0.210669
-3.07266
-5.15436
-6.45201
-6.71796
-6.3308
-5.21275
-3.66533
-1.69923
0.26181
1.79612
2.89839
3.27857
3.02528
1.78145
-0.198564
-2.90787
-4.87552
-6.09765
-6.3378
-5.95597
-4.87746
-3.3891
-1.50087
0.383805
1.86314
2.9308
3.30876
3.07747
1.89165
-0.0136793
-2.63524
-4.56335
-5.79697
-6.10785
-5.84532
-4.93212
-3.63802
-1.93178
-0.12326
1.63076
3.83043
6.31939
8.61392
10.0576
9.91729
13.93
11.216
3.23519
-0.573503
-3.04638
-2.48384
-1.19395
1.98911
5.37492
7.37263
9.30385
9.46557
9.51462
6.87515
3.44568
-3.87613
-7.25339
-9.76546
-9.58334
-9.21802
-7.11379
-4.87225
-1.26668
2.33446
4.56876
6.66472
7.0597
7.29838
4.96814
1.86808
-4.92569
-8.00101
-10.2677
-9.99628
-9.56283
-7.4898
-5.29538
-1.8107
1.66314
3.82946
5.86012
6.26609
6.52173
4.32957
1.41122
-5.01551
-7.90477
-10.0235
-9.73245
-9.28985
-7.29169
-5.18058
-1.8443
1.48022
3.56008
5.51054
5.91545
6.17729
4.11043
1.3499
-4.75172
-7.48805
-9.49271
-9.2031
-8.7692
-6.85251
-4.82661
-1.63213
1.5538
3.55798
5.44026
5.85224
6.1226
4.16326
1.51079
-4.37387
-7.05518
-9.07317
-8.91566
-8.67968
-7.06767
-5.45971
-2.80213
-0.309511
1.04664
4.1206
8.24442
12.4906
15.7396
16.2089
21.2813
22.1911
-3.99312
-5.08198
-10.9709
-6.31935
-6.10848
1.20484
8.58484
9.37178
14.7975
12.6282
17.0182
10.7076
10.8508
-11.7114
-11.5486
-17.609
-13.1926
-15.0052
-9.61718
-8.51497
-1.42118
5.6515
6.72322
12.0088
10.2104
14.4943
8.66735
8.91468
-12.3037
-12.0417
-17.6677
-13.3922
-15.0309
-9.84755
-8.74442
-1.94604
4.82813
5.88011
10.9459
9.25357
13.3573
7.81853
8.08513
-12.0523
-11.7648
-17.065
-12.9652
-14.4889
-9.53332
-8.46009
-1.97249
4.49092
5.51033
10.3482
8.75834
12.6826
7.43825
7.7095
-11.4416
-11.1542
-16.1915
-12.2762
-13.7177
-8.98483
-7.94688
-1.75108
4.4255
5.42836
10.0669
8.59963
12.3785
7.43298
7.6896
-10.7253
-10.5022
-15.4821
-11.8364
-13.4955
-9.19738
-8.79282
-3.43496
1.14077
-2.01115
2.899
9.99322
17.8034
25.4243
29.6863
31.9318
72.1992
-47.3443
-2.6645
-34.0685
-3.7587
-21.25
0.324817
21.289
4.69125
31.2281
6.3458
39.9308
5.2468
50.952
-52.2705
-6.88202
-40.539
-7.83198
-31.1609
-5.94873
-20.7853
-1.54496
17.6102
2.81003
27.5542
4.6029
36.2502
3.61997
46.8722
-50.613
-7.60322
-39.3254
-8.27144
-30.3224
-6.32938
-20.3942
-2.04615
16.2334
2.15125
25.7638
3.89506
34.0787
2.94806
44.1413
-48.5008
-7.57797
-37.6423
-8.09965
-29.0179
-6.18392
-19.5359
-2.06548
15.3414
1.96231
24.4423
3.66125
32.391
2.82398
42.0377
-46.1227
-7.15235
-35.7818
-7.63509
-27.5569
-5.79617
-18.4942
-1.84205
14.7476
2.06362
23.4863
3.79281
31.1978
3.21186
40.7557
-43.9154
-6.45652
-34.3115
-7.11823
-26.8895
-5.72017
-19.2585
-2.94134
13.719
-16.6781
-1.4675
10.7112
23.3889
39.9457
66.5873
28832.7
28795.8
28758.9
28721.8
28684.8
28647.7
28610.7
28573.8
28537
28500.3
28463.7
28427.2
28390.8
28354.4
28318.1
0.173781
0.134733
0.0844721
0.0287742
-0.026484
-0.0761253
-0.116186
-0.144125
-0.158782
-0.160188
-0.149299
-0.127736
-0.0975559
-0.0610835
-0.0207886
0.307204
0.236912
0.146764
0.0474379
-0.0503871
-0.137513
-0.2071
-0.254953
-0.279352
-0.280637
-0.260691
-0.222466
-0.169583
-0.10605
-0.0360689
0.469344
0.358966
0.21825
0.0646169
-0.0849751
-0.216425
-0.319736
-0.389223
-0.423029
-0.422308
-0.390356
-0.331849
-0.252259
-0.157462
-0.0535062
0.676506
0.511362
0.302656
0.0777567
-0.137703
-0.323475
-0.466195
-0.559173
-0.60123
-0.595208
-0.546576
-0.462314
-0.35014
-0.218033
-0.0739999
0.95089
0.70732
0.403257
0.0814577
-0.220115
-0.473576
-0.662394
-0.780043
-0.827507
-0.810717
-0.738424
-0.620691
-0.467952
-0.290529
-0.0984601
1.32406
0.963773
0.521596
0.0649339
-0.350638
-0.688317
-0.929762
-1.07109
-1.11804
-1.08173
-0.975712
-0.814072
-0.610449
-0.377671
-0.127771
1.84252
1.30212
0.65442
0.00732255
-0.559053
-0.999289
-1.29724
-1.45653
-1.49182
-1.42244
-1.26862
-1.04943
-0.782099
-0.481935
-0.162724
2.57721
1.74778
0.786638
-0.131008
-0.893605
-1.45254
-1.80337
-1.96598
-1.97025
-1.84761
-1.62689
-1.33294
-0.986578
-0.605243
-0.203915
3.63995
2.32514
0.875366
-0.424386
-1.43181
-2.11391
-2.49771
-2.63375
-2.5756
-2.37084
-2.05839
-1.66886
-1.22603
-0.748545
-0.251605
5.2126
3.03748
0.814069
-1.01008
-2.29535
-3.07356
-3.43981
-3.4957
-3.32756
-3.00176
-2.56696
-2.05808
-1.50012
-0.911306
-0.305565
7.59381
3.7981
0.35352
-2.13467
-3.66592
-4.44519
-4.69225
-4.5817
-4.23716
-3.74166
-3.14961
-2.49638
-1.80506
-1.09099
-0.364914
11.236
4.20759
-1.06342
-4.21619
-5.78849
-6.349
-6.30229
-5.90167
-5.29772
-4.57811
-3.79344
-2.97278
-2.13273
-1.28269
-0.42801
16.4817
2.85967
-4.59861
-7.87816
-8.92282
-8.86002
-8.26625
-7.42496
-6.47394
-5.47961
-4.47324
-3.46857
-2.4704
-1.47903
-0.492443
20.9444
-4.65199
-12.3125
-13.775
-13.1646
-11.902
-10.4777
-9.05797
-7.69345
-6.39313
-5.15136
-3.95783
-2.80126
-1.67058
-0.555177
0.565935
1.70561
2.86922
4.07442
5.34175
6.69639
8.17066
9.80783
11.6677
13.8344
16.4236
19.5714
23.3077
26.8056
24.2042
0.576841
1.73869
2.9256
4.15624
5.45265
6.84239
8.36205
10.063
12.0218
14.3598
17.2859
21.199
26.9847
37.0557
59.7519
0.582075
1.75436
2.9516
4.1924
5.49872
6.89816
8.42755
10.1392
12.1125
14.4766
17.4616
21.5217
27.6754
38.5667
62.2382
0.581662
1.75269
2.94734
4.18304
5.48013
6.86368
8.36648
10.0338
11.9318
14.1625
16.8906
20.3861
25.0495
31.1066
35.9058
0.575894
1.73463
2.91456
4.13105
5.40147
6.74638
8.19114
9.76822
11.5202
13.5034
15.7878
18.4408
21.4452
24.4224
26.0888
0.565299
1.70184
2.85639
4.0416
5.27108
6.55973
7.92393
9.38115
10.9482
12.6352
14.4299
16.2551
17.8684
18.6349
16.993
0.550576
1.65653
2.77691
3.92139
5.09958
6.32061
7.5921
8.91784
10.2928
11.6923
13.0507
14.2174
14.8845
14.5218
12.7127
0.532518
1.60119
2.68068
3.77775
4.8983
6.04641
7.22258
8.42037
9.62026
10.7781
11.8045
12.5267
12.6169
11.4138
7.18642
0.511929
1.53834
2.57222
3.61779
4.67787
5.75271
6.83801
7.92145
8.97695
9.95531
10.7696
11.2747
11.2477
10.4062
8.70567
0.489563
1.4703
2.45563
3.44772
4.44714
5.45173
6.45471
7.44189
8.38721
9.24647
9.94931
10.3924
10.4444
9.99517
9.11289
0.466074
1.39907
2.33434
3.27255
4.21281
5.15181
6.08235
6.99136
7.8572
8.64624
9.30946
9.78158
9.98923
9.8849
9.54184
0.441996
1.32624
2.21101
3.09592
3.97934
4.85775
5.7249
6.57077
7.38049
8.13334
8.8023
9.35439
9.75068
9.9404
9.82872
0.417744
1.25304
2.08758
2.92031
3.74931
4.57148
5.38218
6.17524
6.94322
7.67864
8.37626
9.03534
9.65554
10.2052
10.5326
0.393624
1.18035
1.96539
2.74727
3.52403
4.29313
5.05169
5.79709
6.52851
7.25015
7.97692
8.74324
9.60935
10.6241
11.4965
0.369867
1.10883
1.84539
2.57779
3.30403
4.02208
4.73032
5.4286
6.12056
6.81805
7.55007
8.38178
9.45984
11.1419
14.4376
0.346648
1.03896
1.72829
2.41257
3.08971
3.75783
4.41582
5.06448
5.70874
6.36191
7.05395
7.84917
8.8908
10.5391
13.9021
0.32411
0.971162
1.61469
2.2523
2.88164
3.50061
4.10779
4.70338
5.29069
5.87875
6.48612
7.14539
7.90041
8.74539
9.19299
0.302385
0.90581
1.50518
2.09776
2.68077
3.25155
3.8078
4.34801
4.87211
5.38214
5.88221
6.37507
6.8475
7.22756
7.33034
0.281591
0.843269
1.4004
1.94986
2.48838
3.01258
3.51894
4.00381
4.46327
4.89242
5.28328
5.6189
5.85868
5.90224
5.48767
0.261842
0.783883
1.30094
1.80954
2.30593
2.78599
3.24498
3.67724
4.07545
4.42928
4.72269
4.92927
5.00608
4.89504
4.58878
0.243234
0.727953
1.20736
1.6777
2.13483
2.57401
2.98957
3.3743
3.71844
4.00808
4.22237
4.32972
4.28393
4.02337
3.46045
0.225839
0.675708
1.12008
1.55502
1.97617
2.37844
2.75558
3.09952
3.39928
3.6392
3.79629
3.83649
3.71091
3.36164
2.8093
0.209698
0.62728
1.03934
1.44192
1.83063
2.2003
2.54462
2.85542
3.12166
3.32782
3.45137
3.45839
3.29321
2.84091
1.7383
0.194818
0.582685
0.965176
1.33846
1.69829
2.03977
2.35694
2.64226
2.88575
3.07379
3.18737
3.19985
3.07488
2.77179
2.3159
0.181166
0.541824
0.897404
1.24433
1.5787
1.89611
2.19138
2.45814
2.68834
2.87145
2.99357
3.03674
2.98024
2.80875
2.53471
0.168675
0.504486
0.835641
1.15891
1.47089
1.76783
2.0456
2.29941
2.52363
2.71147
2.85457
2.94285
2.96545
2.91693
2.82493
0.157254
0.470381
0.779349
1.08135
1.3735
1.65287
1.91644
2.16121
2.38418
2.58254
2.75364
2.89457
3.00002
3.05528
3.01344
0.146792
0.439162
0.727898
1.01061
1.28499
1.54886
1.80035
2.03814
2.26182
2.47253
2.67365
2.8709
3.06945
3.26105
3.39688
0.137173
0.410466
0.680627
0.945664
1.20377
1.45344
1.69378
1.92486
2.14846
2.36919
2.59634
2.84633
3.1437
3.50554
3.81798
0.128284
0.383944
0.636912
0.885533
1.12839
1.36451
1.59363
1.81678
2.03708
2.26137
2.50315
2.78885
3.17316
3.78433
4.98424
0.120027
0.35929
0.596216
0.829401
1.0577
1.28042
1.49764
1.71067
1.92293
2.14141
2.37947
2.66288
3.04506
3.65427
4.87235
0.11232
0.336257
0.558118
0.776661
0.990877
1.20016
1.40455
1.60509
1.80446
2.00783
2.22428
2.46832
2.7593
3.10138
3.33951
0.105103
0.314664
0.522325
0.726924
0.927479
1.1233
1.31412
1.50032
1.6832
1.86519
2.04992
2.24117
2.43803
2.62066
2.73132
0.098332
0.294392
0.488656
0.679994
0.867371
1.0499
1.22689
1.39787
1.56255
1.72062
1.87104
2.01011
2.12665
2.18992
2.11453
0.091981
0.275365
0.457021
0.635814
0.810628
0.980354
1.14384
1.29979
1.4465
1.58138
1.70003
1.79468
1.85226
1.85546
1.80702
0.0860315
0.257539
0.427373
0.594396
0.757418
0.915138
1.06603
1.20813
1.33866
1.4534
1.54569
1.605
1.61564
1.55687
1.40039
0.0804679
0.240874
0.399678
0.555757
0.707891
0.854665
0.994322
1.1245
1.24178
1.34103
1.41426
1.44912
1.4272
1.32614
1.15569
0.0752722
0.225323
0.373875
0.51986
0.662086
0.799135
0.929201
1.04982
1.15743
1.24671
1.30948
1.33267
1.29372
1.14361
0.723335
0.0704193
0.210813
0.349855
0.486573
0.619877
0.748458
0.870644
0.984169
1.0858
1.17082
1.23217
1.25938
1.23743
1.1487
1.00376
0.0658754
0.197244
0.327448
0.455659
0.580949
0.702223
0.818106
0.92678
1.02573
1.11137
1.17857
1.22024
1.22753
1.19282
1.11762
0.0615975
0.184482
0.306428
0.426776
0.544813
0.659733
0.770577
0.87615
0.974897
1.06472
1.14272
1.20499
1.24679
1.26508
1.27148
0.0575352
0.172374
0.286518
0.399499
0.510845
0.620077
0.726712
0.830266
0.930271
1.02628
1.11779
1.20396
1.28239
1.3456
1.36959
0.053634
0.16075
0.267417
0.37336
0.478348
0.58223
0.68499
0.786851
0.888428
0.990964
1.09659
1.20831
1.32856
1.45336
1.56043
0.0498386
0.149439
0.24882
0.347886
0.446623
0.545165
0.643898
0.743639
0.845926
0.953513
1.07117
1.20674
1.37159
1.57346
1.75951
0.0460971
0.13828
0.230446
0.322645
0.415037
0.507971
0.602113
0.698667
0.799751
0.909082
1.03331
1.18484
1.38894
1.70456
2.29816
0.0423641
0.127134
0.21205
0.297272
0.383079
0.469943
0.558659
0.650557
0.747856
0.854319
0.976496
1.12647
1.32884
1.64263
2.24407
0.0386024
0.11589
0.193443
0.271497
0.350392
0.430634
0.513003
0.598702
0.689609
0.788653
0.900397
1.03171
1.19141
1.38096
1.52757
0.0347837
0.104463
0.17449
0.245142
0.316773
0.389855
0.465041
0.54324
0.625719
0.714181
0.810721
0.917261
1.03325
1.14912
1.23846
0.030888
0.0927955
0.155105
0.218112
0.282152
0.347622
0.414993
0.484816
0.557686
0.634109
0.714115
0.796262
0.875205
0.935741
0.935445
0.0269016
0.0808508
0.13524
0.190368
0.246544
0.304075
0.36325
0.424284
0.487195
0.551562
0.616036
0.677503
0.729957
0.764619
0.781351
0.0228146
0.0686025
0.114863
0.161902
0.21
0.259394
0.310226
0.362457
0.415706
0.468954
0.520059
0.565018
0.59708
0.605968
0.573982
0.0186181
0.0560277
0.0939502
0.132704
0.172562
0.213721
0.256238
0.299935
0.344228
0.387845
0.428363
0.461506
0.480311
0.475719
0.450992
0.0143019
0.0430985
0.0724635
0.102743
0.134228
0.167112
0.201439
0.237009
0.273232
0.308903
0.341804
0.367966
0.379806
0.359469
0.246602
0.00985273
0.0297767
0.050345
0.071951
0.0949272
0.119509
0.145788
0.173639
0.202632
0.231896
0.25994
0.284387
0.301662
0.307492
0.306345
0.0052526
0.0160093
0.0275096
0.0402124
0.0545179
0.0707367
0.0890536
0.109488
0.131856
0.155751
0.180589
0.205803
0.231483
0.260375
0.304045
0.000478586
0.00172784
0.00384276
0.00736615
0.0127869
0.0205152
0.0308588
0.0440057
0.0600315
0.0789667
0.100994
0.126914
0.159093
0.203013
0.267638
-0.00449743
-0.0131526
-0.0207984
-0.0267924
-0.0305398
-0.0315138
-0.0292724
-0.0234638
-0.0137992
5.01774e-05
0.0187134
0.0436979
0.0785705
0.131294
0.219731
-0.00970847
-0.0287318
-0.0465827
-0.0625055
-0.0757854
-0.0857669
-0.0918702
-0.0935989
-0.0905217
-0.082193
-0.0679387
-0.0463644
-0.0143254
0.0347979
0.110329
-0.0151919
-0.045123
-0.0737021
-0.100048
-0.123314
-0.142704
-0.157495
-0.167059
-0.170876
-0.168534
-0.159655
-0.143672
-0.11906
-0.0800079
0.00191383
-0.020989
-0.0624508
-0.102368
-0.139724
-0.173527
-0.202826
-0.22674
-0.244495
-0.255493
-0.259397
-0.256283
-0.246947
-0.233795
-0.224552
-0.251648
-0.0271437
-0.0808488
-0.132808
-0.181863
-0.226861
-0.26668
-0.300249
-0.326612
-0.345022
-0.355116
-0.357212
-0.352847
-0.345784
-0.343824
-0.35955
-0.0337017
-0.100457
-0.165263
-0.226811
-0.283785
-0.334863
-0.378752
-0.414238
-0.44031
-0.45637
-0.462606
-0.460596
-0.4542
-0.450775
-0.463759
-0.0407094
-0.121415
-0.199975
-0.274932
-0.344795
-0.408031
-0.463078
-0.508389
-0.542537
-0.564429
-0.573706
-0.571367
-0.560521
-0.546294
-0.529652
-0.0482112
-0.143862
-0.237185
-0.326585
-0.410399
-0.486876
-0.554155
-0.610281
-0.653259
-0.681231
-0.692853
-0.688022
-0.669166
-0.643459
-0.628174
-0.0562481
-0.167923
-0.277116
-0.382111
-0.481092
-0.572099
-0.652968
-0.721291
-0.774387
-0.809371
-0.823408
-0.814398
-0.782543
-0.733363
-0.680536
-0.0648546
-0.193705
-0.319959
-0.441807
-0.557317
-0.664352
-0.760484
-0.842862
-0.90808
-0.952043
-0.969949
-0.956618
-0.907933
-0.825778
-0.733396
-0.0740565
-0.221289
-0.365857
-0.505901
-0.639419
-0.764171
-0.877541
-0.97634
-1.05652
-1.1128
-1.13817
-1.12337
-1.05655
-0.925276
-0.738483
-0.0838689
-0.250721
-0.414893
-0.574522
-0.727602
-0.871884
-1.00471
-1.12274
-1.22155
-1.295
-1.33427
-1.32624
-1.24991
-1.06331
-0.637302
-0.0942959
-0.282011
-0.467082
-0.647685
-0.821888
-0.987548
-1.14214
-1.28247
-1.40417
-1.50093
-1.5632
-1.57653
-1.51982
-1.3676
-1.12541
-0.105331
-0.315137
-0.522369
-0.725289
-0.922101
-1.11089
-1.28947
-1.45513
-1.60412
-1.73078
-1.82609
-1.87545
-1.85604
-1.73436
-1.45429
-0.116959
-0.350047
-0.580648
-0.807128
-1.02788
-1.24131
-1.44576
-1.63935
-1.81955
-1.98241
-2.12089
-2.22211
-2.26328
-2.21108
-2.05442
-0.129165
-0.386682
-0.641784
-0.89294
-1.13874
-1.37796
-1.60959
-1.83285
-2.04703
-2.25094
-2.44156
-2.61045
-2.73535
-2.76034
-2.54013
-0.141934
-0.424992
-0.705658
-0.982466
-1.25417
-1.51987
-1.77923
-2.03266
-2.28161
-2.5287
-2.77732
-3.02931
-3.27679
-3.47987
-3.54188
-0.155265
-0.464962
-0.772209
-1.07553
-1.37375
-1.66619
-1.95298
-2.23557
-2.51748
-2.80538
-3.11071
-3.45129
-3.84904
-4.29735
-4.53565
-0.169173
-0.506632
-0.84148
-1.17214
-1.49735
-1.81642
-2.12963
-2.43895
-2.74918
-3.06996
-3.41962
-3.83357
-4.38615
-5.26067
-7.02407
-0.183695
-0.550114
-0.913655
-1.27253
-1.62521
-1.97071
-2.30897
-2.64169
-2.97354
-3.31446
-3.68387
-4.11956
-4.69968
-5.60669
-7.34578
-0.198891
-0.595593
-0.989068
-1.37721
-1.75807
-2.13001
-2.49216
-2.84502
-3.19159
-3.53917
-3.90207
-4.30525
-4.78618
-5.37486
-5.9307
-0.214836
-0.643312
-1.06818
-1.48695
-1.8971
-2.29611
-2.68179
-3.0527
-3.40893
-3.75324
-4.09228
-4.43692
-4.79785
-5.16581
-5.4626
-0.231609
-0.693537
-1.15152
-1.60269
-2.04385
-2.47147
-2.88168
-3.27057
-3.63454
-3.97095
-4.27859
-4.55728
-4.80461
-5.00617
-5.11147
-0.249278
-0.7465
-1.23959
-1.72536
-2.20001
-2.6589
-3.09638
-3.50573
-3.87928
-4.20863
-4.48501
-4.6994
-4.84314
-4.91336
-4.94273
-0.267875
-0.802332
-1.33273
-1.85575
-2.36712
-2.8612
-3.3306
-3.76575
-4.1547
-4.4831
-4.73445
-4.89057
-4.93273
-4.84892
-4.66929
-0.287367
-0.860982
-1.431
-1.99423
-2.54622
-3.08065
-3.58859
-4.05784
-4.47216
-4.81107
-5.05002
-5.16086
-5.10979
-4.851
-4.389
-0.307638
-0.922126
-1.53398
-2.14051
-2.73752
-3.31847
-3.87346
-4.38805
-4.84199
-5.20845
-5.45455
-5.54357
-5.4311
-4.99418
-3.51648
-0.328455
-0.985098
-1.64065
-2.2934
-2.93997
-3.57431
-4.18639
-4.76038
-5.27256
-5.6894
-5.96816
-6.06619
-5.97771
-5.86013
-6.50178
-0.349456
-1.04882
-1.74928
-2.45059
-3.15089
-3.8456
-4.52575
-5.17564
-5.76932
-6.26623
-6.60728
-6.71831
-6.54452
-6.19883
-6.52953
-0.370143
-1.11179
-1.8573
-2.60847
-3.36571
-4.12699
-4.88613
-5.62992
-6.33329
-6.95127
-7.40612
-7.56823
-7.2307
-6.06782
-3.42233
-0.389885
-1.17207
-1.96139
-2.76213
-3.57771
-4.40986
-5.25716
-6.11227
-6.95655
-7.7496
-8.40825
-8.76511
-8.49001
-6.96638
-3.23124
-0.407946
-1.2274
-2.05755
-2.90549
-3.7782
-4.68221
-5.62277
-6.60212
-7.61538
-8.64124
-9.61996
-10.4008
-10.6164
-9.40071
-4.93412
-0.423533
-1.27531
-2.14134
-3.03164
-3.95697
-4.92916
-5.96143
-7.06841
-8.26546
-9.5656
-10.969
-12.4292
-13.7366
-14.0926
-10.3882
-0.435852
-1.3133
-2.20828
-3.13346
-4.10317
-5.13439
-6.2482
-7.47214
-8.84395
-10.4182
-12.2788
-14.5636
-17.5174
-21.6044
-27.6976
-11.405
-25.9632
-24.5353
-20.957
-17.6337
-14.8474
-12.5137
-10.5161
-8.76208
-7.18429
-5.73432
-4.37649
-3.08356
-1.83373
-0.608569
-111.714
-58.271
-37.6219
-27.4213
-21.3391
-17.2029
-14.1193
-11.6619
-9.60243
-7.80802
-6.19522
-4.70834
-3.30777
-1.9635
-0.651064
-124.199
-67.8054
-43.4524
-31.0257
-23.693
-18.8274
-15.2901
-12.5311
-10.2587
-8.30561
-6.56867
-4.98023
-3.49289
-2.07116
-0.6864
-68.2514
-55.0894
-41.0008
-31.0927
-24.3336
-19.5294
-15.9205
-13.0624
-10.6933
-8.65306
-6.83899
-5.18192
-3.63246
-2.15312
-0.713431
-48.1938
-43.0168
-35.6461
-28.9728
-23.6165
-19.4014
-16.0294
-13.2542
-10.8996
-8.8434
-7.00027
-5.30887
-3.72331
-2.20756
-0.731552
-30.6236
-32.4676
-29.8071
-25.9382
-22.1069
-18.6879
-15.7238
-13.1539
-10.8986
-8.88577
-7.05618
-5.3623
-3.76569
-2.2344
-0.740709
-22.6013
-25.0464
-24.8073
-22.8774
-20.311
-17.6584
-15.1444
-12.8351
-10.7292
-8.80089
-7.01784
-5.34817
-3.76271
-2.23513
-0.74134
-12.5674
-19.4891
-20.9817
-20.2585
-18.575
-16.5328
-14.4229
-12.3749
-10.4364
-8.61516
-6.90076
-5.27556
-3.71953
-2.21238
-0.734257
-15.1813
-17.7021
-18.6949
-18.3065
-17.0879
-15.4541
-13.6583
-11.8387
-10.0623
-8.35519
-6.72171
-5.1549
-3.6424
-2.16948
-0.720495
-15.8586
-16.9763
-17.3671
-16.9311
-15.8893
-14.4878
-12.9103
-11.2726
-9.63996
-8.04408
-6.49637
-4.99653
-3.53778
-2.10996
-0.701179
-16.5144
-16.7551