/*--------------------------------*- C++ -*----------------------------------*\
| =========                 |                                                 |
| \\      /  F ield         | OpenFOAM: The Open Source CFD Toolbox           |
|  \\    /   O peration     | Version:  5.x                                   |
|   \\  /    A nd           | Web:      www.OpenFOAM.org                      |
|    \\/     M anipulation  |                                                 |
\*---------------------------------------------------------------------------*/
FoamFile
{
    version     2.0;
    format      ascii;
    class       volScalarField;
    location    "7.2999";
    object      T;
}
// * * * * * * * * * * * * * * * * * * * * * * * * * * * * * * * * * * * * * //

dimensions      [0 0 0 1 0 0 0];

internalField   nonuniform List<scalar> 
6300
(
322.841
322.524
322.206
321.885
321.563
321.237
320.908
320.574
320.235
319.892
319.542
319.187
318.826
318.459
318.086
322.842
322.525
322.207
321.888
321.566
321.241
320.912
320.579
320.24
319.897
319.548
319.193
318.832
318.465
318.092
322.843
322.527
322.211
321.893
321.572
321.248
320.92
320.588
320.251
319.908
319.56
319.205
318.844
318.477
318.104
322.844
322.531
322.216
321.9
321.581
321.259
320.933
320.603
320.267
319.925
319.578
319.223
318.863
318.495
318.121
322.845
322.535
322.223
321.91
321.594
321.275
320.951
320.623
320.289
319.949
319.602
319.248
318.887
318.52
318.145
322.847
322.54
322.233
321.923
321.61
321.294
320.974
320.648
320.316
319.978
319.633
319.28
318.92
318.551
318.175
322.849
322.547
322.244
321.938
321.63
321.318
321.001
320.679
320.351
320.015
319.672
319.32
318.96
318.59
318.212
322.852
322.555
322.257
321.957
321.654
321.346
321.035
320.717
320.392
320.06
319.719
319.369
319.009
318.638
318.258
322.855
322.564
322.272
321.978
321.681
321.38
321.073
320.761
320.442
320.114
319.776
319.428
319.068
318.696
318.312
322.858
322.575
322.29
322.003
321.712
321.418
321.119
320.813
320.499
320.176
319.843
319.498
319.139
318.766
318.378
322.862
322.586
322.309
322.03
321.748
321.461
321.17
320.872
320.566
320.25
319.923
319.582
319.225
318.851
318.458
322.867
322.599
322.331
322.061
321.787
321.51
321.228
320.939
320.642
320.335
320.016
319.681
319.328
318.954
318.557
322.871
322.614
322.355
322.094
321.831
321.564
321.292
321.014
320.729
320.433
320.124
319.799
319.453
319.082
318.682
322.876
322.629
322.38
322.13
321.878
321.622
321.363
321.098
320.825
320.543
320.249
319.937
319.602
319.239
318.843
322.882
322.645
322.407
322.169
321.928
321.685
321.439
321.188
320.931
320.667
320.391
320.098
319.78
319.428
319.04
317.739
317.42
317.098
316.771
316.442
316.11
315.775
315.438
315.098
314.756
314.413
314.068
313.721
313.374
313.025
312.676
312.327
311.977
311.627
311.277
310.928
310.579
310.23
309.882
309.534
309.186
308.839
308.492
308.146
307.801
307.456
307.112
306.769
306.427
306.085
305.745
305.406
305.068
304.73
304.394
304.058
303.724
303.39
303.057
302.724
302.393
302.063
301.734
301.405
301.078
300.752
300.427
300.104
299.781
299.459
299.138
298.818
298.498
298.18
297.862
297.545
297.229
296.914
296.601
296.288
295.976
295.665
295.355
295.046
294.738
294.43
294.123
293.817
293.511
293.206
292.902
292.598
292.295
291.992
291.69
291.389
291.087
290.786
290.484
290.183
289.88
289.577
289.274
288.969
288.664
317.745
317.425
317.102
316.776
316.446
316.114
315.779
315.441
315.101
314.759
314.415
314.07
313.723
313.375
313.026
312.677
312.327
311.977
311.627
311.277
310.927
310.578
310.229
309.881
309.533
309.185
308.838
308.491
308.145
307.8
307.455
307.111
306.767
306.425
306.084
305.744
305.405
305.066
304.729
304.393
304.057
303.722
303.388
303.055
302.723
302.392
302.061
301.732
301.404
301.077
300.751
300.426
300.102
299.779
299.458
299.137
298.816
298.497
298.178
297.861
297.544
297.228
296.913
296.599
296.286
295.975
295.664
295.354
295.045
294.737
294.429
294.122
293.816
293.51
293.205
292.901
292.597
292.294
291.992
291.69
291.388
291.087
290.786
290.485
290.183
289.881
289.579
289.275
288.97
288.665
317.756
317.436
317.112
316.785
316.455
316.122
315.786
315.447
315.107
314.764
314.42
314.074
313.726
313.378
313.028
312.678
312.327
311.977
311.626
311.276
310.926
310.577
310.228
309.88
309.532
309.184
308.837
308.49
308.143
307.798
307.452
307.108
306.765
306.422
306.081
305.741
305.402
305.064
304.727
304.39
304.055
303.72
303.386
303.053
302.72
302.389
302.058
301.729
301.401
301.074
300.748
300.423
300.099
299.777
299.455
299.134
298.814
298.494
298.176
297.858
297.541
297.225
296.91
296.596
296.283
295.972
295.661
295.351
295.043
294.735
294.427
294.12
293.814
293.509
293.204
292.899
292.595
292.292
291.99
291.689
291.387
291.087
290.786
290.486
290.185
289.883
289.581
289.278
288.973
288.668
317.772
317.451
317.127
316.799
316.467
316.133
315.796
315.457
315.116
314.772
314.427
314.08
313.731
313.381
313.031
312.679
312.328
311.977
311.625
311.275
310.925
310.575
310.227
309.878
309.53
309.182
308.835
308.488
308.141
307.795
307.449
307.104
306.76
306.418
306.077
305.736
305.398
305.06
304.723
304.387
304.051
303.716
303.382
303.049
302.716
302.384
302.053
301.724
301.396
301.069
300.743
300.418
300.095
299.773
299.451
299.131
298.81
298.491
298.172
297.854
297.537
297.221
296.906
296.592
296.279
295.967
295.657
295.348
295.039
294.732
294.424
294.118
293.812
293.506
293.201
292.896
292.593
292.29
291.988
291.687
291.386
291.086
290.787
290.487
290.187
289.886
289.585
289.282
288.978
288.672
317.795
317.472
317.146
316.817
316.484
316.148
315.81
315.47
315.128
314.783
314.436
314.088
313.738
313.386
313.034
312.681
312.328
311.976
311.624
311.273
310.922
310.573
310.224
309.876
309.528
309.18
308.832
308.485
308.137
307.79
307.444
307.099
306.754
306.412
306.07
305.73
305.392
305.054
304.718
304.382
304.047
303.712
303.378
303.044
302.711
302.378
302.047
301.717
301.389
301.062
300.736
300.412
300.089
299.768
299.447
299.126
298.806
298.486
298.167
297.849
297.531
297.215
296.899
296.585
296.273
295.961
295.652
295.343
295.035
294.728
294.421
294.114
293.808
293.502
293.197
292.892
292.589
292.286
291.984
291.684
291.384
291.085
290.787
290.489
290.19
289.891
289.59
289.288
288.984
288.678
317.823
317.499
317.171
316.839
316.505
316.167
315.828
315.486
315.142
314.796
314.448
314.098
313.746
313.393
313.038
312.683
312.328
311.974
311.621
311.269
310.919
310.569
310.221
309.873
309.525
309.178
308.83
308.482
308.133
307.785
307.438
307.092
306.747
306.403
306.062
305.722
305.384
305.047
304.712
304.377
304.042
303.707
303.373
303.038
302.704
302.371
302.039
301.708
301.379
301.053
300.728
300.404
300.082
299.761
299.441
299.121
298.801
298.481
298.162
297.843
297.524
297.207
296.891
296.577
296.264
295.954
295.644
295.337
295.029
294.723
294.417
294.11
293.804
293.498
293.192
292.887
292.583
292.28
291.979
291.679
291.381
291.083
290.787
290.491
290.195
289.897
289.598
289.297
288.993
288.687
317.858
317.531
317.2
316.866
316.529
316.19
315.848
315.505
315.16
314.813
314.463
314.111
313.757
313.401
313.043
312.685
312.328
311.971
311.617
311.264
310.913
310.564
310.217
309.87
309.523
309.176
308.827
308.479
308.129
307.779
307.43
307.082
306.736
306.392
306.051
305.712
305.375
305.039
304.705
304.371
304.037
303.702
303.367
303.032
302.696
302.362
302.028
301.697
301.368
301.041
300.717
300.394
300.074
299.754
299.435
299.115
298.796
298.476
298.155
297.835
297.515
297.197
296.88
296.566
296.254
295.944
295.636
295.329
295.023
294.718
294.413
294.107
293.8
293.494
293.187
292.881
292.576
292.272
291.971
291.672
291.376
291.081
290.787
290.494
290.2
289.906
289.609
289.31
289.007
288.7
317.9
317.57
317.235
316.897
316.557
316.215
315.872
315.527
315.181
314.833
314.482
314.127
313.77
313.41
313.048
312.686
312.325
311.966
311.609
311.256
310.906
310.558
310.212
309.867
309.521
309.175
308.826
308.476
308.125
307.773
307.421
307.071
306.722
306.378
306.036
305.698
305.363
305.03
304.697
304.365
304.032
303.698
303.362
303.025
302.688
302.351
302.015
301.682
301.352
301.026
300.702
300.382
300.063
299.746
299.429
299.111
298.791
298.471
298.149
297.827
297.505
297.185
296.866
296.551
296.24
295.931
295.624
295.32
295.017
294.713
294.409
294.103
293.797
293.489
293.18
292.872
292.566
292.262
291.96
291.662
291.368
291.076
290.786
290.497
290.208
289.918
289.624
289.327
289.025
288.718
317.95
317.615
317.274
316.931
316.586
316.242
315.897
315.552
315.206
314.857
314.505
314.148
313.787
313.422
313.055
312.686
312.32
311.956
311.597
311.243
310.894
310.549
310.206
309.864
309.521
309.176
308.828
308.476
308.122
307.766
307.41
307.055
306.704
306.358
306.017
305.681
305.348
305.018
304.69
304.36
304.029
303.695
303.359
303.019
302.678
302.337
301.998
301.663
301.332
301.006
300.684
300.367
300.052
299.738
299.423
299.107
298.789
298.467
298.143
297.818
297.492
297.169
296.848
296.532
296.221
295.914
295.611
295.31
295.01
294.709
294.407
294.102
293.795
293.485
293.173
292.862
292.553
292.247
291.945
291.648
291.356
291.068
290.784
290.501
290.218
289.933
289.645
289.351
289.051
288.743
318.01
317.666
317.317
316.966
316.616
316.268
315.923
315.579
315.234
314.886
314.534
314.175
313.809
313.438
313.062
312.684
312.31
311.94
311.578
311.224
310.877
310.536
310.198
309.862
309.524
309.182
308.834
308.48
308.121
307.759
307.396
307.035
306.679
306.331
305.991
305.657
305.33
305.006
304.683
304.358
304.03
303.697
303.359
303.015
302.669
302.321
301.977
301.637
301.304
300.979
300.661
300.348
300.039
299.73
299.421
299.108
298.79
298.467
298.139
297.809
297.477
297.148
296.824
296.507
296.196
295.892
295.594
295.298
295.004
294.708
294.409
294.105
293.796
293.483
293.166
292.849
292.535
292.225
291.922
291.627
291.338
291.056
290.779
290.504
290.23
289.954
289.674
289.386
289.088
288.778
318.081
317.726
317.364
317.001
316.643
316.291
315.946
315.606
315.266
314.923
314.572
314.212
313.841
313.459
313.07
312.679
312.292
311.914
311.547
311.194
310.851
310.518
310.19
309.863
309.532
309.195
308.849
308.492
308.126
307.753
307.378
307.007
306.644
306.293
305.954
305.626
305.306
304.991
304.678
304.362
304.039
303.707
303.366
303.016
302.66
302.302
301.947
301.601
301.266
300.942
300.629
300.324
300.024
299.725
299.423
299.115
298.799
298.474
298.14
297.8
297.459
297.121
296.79
296.471
296.162
295.863
295.572
295.285
295
294.711
294.417
294.115
293.804
293.485
293.16
292.833
292.51
292.194
291.889
291.595
291.311
291.037
290.769
290.506
290.245
289.982
289.713
289.435
289.141
288.83
318.168
317.796
317.412
317.03
316.659
316.304
315.963
315.632
315.304
314.97
314.625
314.264
313.887
313.491
313.082
312.668
312.261
311.87
311.499
311.147
310.813
310.492
310.179
309.868
309.55
309.222
308.878
308.518
308.141
307.75
307.354
306.966
306.593
306.238
305.901
305.582
305.275
304.976
304.678
304.374
304.06
303.731
303.387
303.027
302.654
302.276
301.906
301.55
301.211
300.891
300.586
300.293
300.008
299.724
299.434
299.134
298.821
298.493
298.15
297.795
297.435
297.081
296.742
296.419
296.113
295.822
295.543
295.271
295
294.723
294.437
294.138
293.824
293.496
293.156
292.811
292.473
292.148
291.84
291.548
291.271
291.008
290.754
290.507
290.261
290.017
289.767
289.505
289.221
288.908
318.282
317.885
317.455
317.042
316.653
316.297
315.966
315.656
315.35
315.032
314.699
314.341
313.958
313.543
313.103
312.645
312.208
311.798
311.423
311.075
310.755
310.454
310.167
309.882
309.584
309.27
308.931
308.568
308.174
307.756
307.32
306.904
306.514
306.156
305.825
305.519
305.232
304.958
304.686
304.401
304.101
303.777
303.431
303.054
302.656
302.24
301.844
301.472
301.132
300.816
300.525
300.251
299.99
299.73
299.459
299.173
298.865
298.534
298.176
297.796
297.4
297.023
296.669
296.344
296.043
295.765
295.504
295.255
295.007
294.749
294.476
294.181
293.866
293.523
293.16
292.78
292.418
292.078
291.767
291.478
291.213
290.964
290.731
290.504
290.277
290.058
289.84
289.607
289.343
289.029
318.447
318.021
317.476
317.018
316.598
316.254
315.939
315.672
315.411
315.117
314.811
314.454
314.077
313.629
313.151
312.59
312.116
311.675
311.307
310.963
310.67
310.394
310.154
309.915
309.642
309.355
309.019
308.664
308.24
307.788
307.256
306.806
306.387
306.038
305.71
305.432
305.169
304.939
304.711
304.45
304.177
303.856
303.517
303.113
302.682
302.176
301.748
301.349
301.017
300.705
300.44
300.189
299.971
299.753
299.505
299.245
298.94
298.617
298.232
297.822
297.34
296.932
296.552
296.235
295.938
295.685
295.447
295.238
295.031
294.794
294.546
294.255
293.947
293.579
293.186
292.724
292.332
291.967
291.661
291.374
291.13
290.899
290.698
290.501
290.282
290.099
289.932
289.755
289.536
289.232
318.708
318.329
317.376
316.94
316.433
316.171
315.844
315.68
315.521
315.22
314.995
314.594
314.299
313.757
313.32
312.41
311.977
311.445
311.159
310.775
310.563
310.283
310.139
309.995
309.719
309.511
309.136
308.858
308.347
307.934
307.074
306.663
306.16
305.889
305.524
305.323
305.057
304.919
304.782
304.519
304.32
303.962
303.698
303.21
302.817
301.999
301.609
301.131
300.872
300.526
300.334
300.082
299.951
299.82
299.569
299.38
299.04
298.788
298.325
297.951
297.172
296.8
296.345
296.099
295.768
295.586
295.345
295.22
295.096
294.857
294.677
294.353
294.113
293.672
293.313
292.566
292.208
291.768
291.53
291.208
291.029
290.788
290.662
290.527
290.237
290.116
290.039
289.963
289.851
289.622
288.327
287.958
287.588
287.218
286.848
286.477
286.108
285.739
285.371
285.004
284.638
284.272
283.908
283.545
283.182
288.328
287.959
287.589
287.218
286.847
286.477
286.107
285.738
285.37
285.002
284.637
284.272
283.908
283.544
283.181
288.33
287.961
287.59
287.219
286.847
286.476
286.105
285.736
285.367
285
284.635
284.27
283.906
283.543
283.181
288.334
287.964
287.592
287.219
286.846
286.474
286.103
285.733
285.364
284.997
284.631
284.267
283.904
283.542
283.181
288.34
287.968
287.594
287.22
286.845
286.472
286.099
285.728
285.359
284.992
284.627
284.263
283.901
283.54
283.18
288.347
287.974
287.598
287.221
286.844
286.468
286.093
285.721
285.352
284.985
284.62
284.258
283.897
283.538
283.179
288.359
287.982
287.602
287.222
286.841
286.462
286.086
285.712
285.342
284.976
284.612
284.251
283.892
283.535
283.178
288.374
287.993
287.608
287.222
286.837
286.454
286.075
285.7
285.33
284.963
284.601
284.242
283.885
283.53
283.177
288.395
288.008
287.615
287.222
286.83
286.442
286.06
285.683
285.313
284.947
284.587
284.23
283.876
283.525
283.175
288.425
288.028
287.624
287.219
286.819
286.425
286.039
285.661
285.29
284.926
284.568
284.215
283.865
283.518
283.173
288.468
288.054
287.633
287.213
286.801
286.4
286.01
285.631
285.261
284.9
284.545
284.196
283.852
283.51
283.17
288.53
288.089
287.64
287.199
286.773
286.363
285.97
285.591
285.224
284.866
284.517
284.174
283.835
283.5
283.166
288.62
288.13
287.64
287.17
286.728
286.311
285.916
285.539
285.176
284.825
284.482
284.147
283.816
283.488
283.162
288.754
288.173
287.619
287.115
286.657
286.236
285.844
285.473
285.118
284.775
284.441
284.114
283.793
283.474
283.158
288.95
288.188
287.548
287.013
286.549
286.134
285.751
285.39
285.047
284.715
284.393
284.077
283.766
283.459
283.153
322.887
322.66
322.433
322.206
321.976
321.746
321.513
321.276
321.036
320.79
320.536
320.268
319.976
319.636
319.198
322.892
322.675
322.458
322.24
322.022
321.802
321.582
321.36
321.135
320.909
320.678
320.439
320.186
319.894
319.457
322.896
322.689
322.482
322.275
322.067
321.86
321.652
321.444
321.237
321.03
320.824
320.621
320.425
320.253
320.193
322.901
322.704
322.507
322.31
322.113
321.917
321.722
321.529
321.337
321.15
320.969
320.798
320.648
320.537
320.495
322.906
322.719
322.531
322.345
322.159
321.974
321.791
321.611
321.435
321.266
321.106
320.961
320.843
320.772
320.792
322.911
322.733
322.555
322.379
322.203
322.03
321.859
321.691
321.529
321.375
321.232
321.105
321.005
320.944
320.93
322.916
322.747
322.579
322.412
322.247
322.083
321.923
321.768
321.618
321.476
321.346
321.232
321.141
321.082
321.075
322.92
322.761
322.602
322.444
322.288
322.135
321.985
321.84
321.701
321.57
321.449
321.342
321.253
321.186
321.141
322.924
322.774
322.624
322.475
322.328
322.184
322.044
321.908
321.778
321.656
321.543
321.441
321.351
321.273
321.195
322.929
322.786
322.645
322.504
322.366
322.231
322.099
321.972
321.851
321.736
321.629
321.53
321.441
321.359
321.286
322.933
322.798
322.664
322.532
322.402
322.275
322.151
322.032
321.918
321.81
321.709
321.614
321.525
321.439
321.347
322.936
322.809
322.683
322.559
322.436
322.317
322.201
322.089
321.981
321.88
321.784
321.693
321.607
321.524
321.446
322.94
322.82
322.701
322.584
322.469
322.356
322.247
322.142
322.041
321.946
321.855
321.77
321.687
321.605
321.511
322.943
322.83
322.718
322.608
322.499
322.393
322.29
322.192
322.097
322.008
321.923
321.844
321.768
321.694
321.621
322.947
322.84
322.734
322.63
322.527
322.428
322.331
322.238
322.15
322.066
321.988
321.915
321.848
321.782
321.702
322.95
322.849
322.749
322.65
322.554
322.46
322.369
322.282
322.199
322.121
322.049
321.984
321.926
321.88
321.862
322.952
322.857
322.763
322.67
322.579
322.49
322.405
322.323
322.245
322.172
322.106
322.046
321.996
321.958
321.934
322.955
322.865
322.776
322.688
322.602
322.518
322.438
322.36
322.287
322.219
322.157
322.103
322.057
322.025
322.015
322.957
322.872
322.788
322.705
322.624
322.544
322.468
322.395
322.326
322.262
322.204
322.153
322.11
322.078
322.056
322.96
322.879
322.799
322.721
322.643
322.569
322.496
322.427
322.362
322.301
322.245
322.196
322.155
322.124
322.106
322.962
322.885
322.81
322.735
322.662
322.591
322.522
322.456
322.394
322.336
322.283
322.235
322.193
322.16
322.133
322.964
322.891
322.819
322.748
322.679
322.611
322.546
322.483
322.424
322.368
322.316
322.269
322.226
322.191
322.164
322.965
322.897
322.828
322.761
322.695
322.63
322.568
322.508
322.451
322.397
322.346
322.299
322.255
322.216
322.179
322.967
322.902
322.837
322.773
322.71
322.648
322.588
322.531
322.476
322.423
322.373
322.326
322.281
322.238
322.193
322.969
322.906
322.844
322.783
322.723
322.664
322.607
322.552
322.499
322.448
322.399
322.352
322.306
322.262
322.218
322.97
322.911
322.852
322.793
322.736
322.68
322.625
322.572
322.521
322.471
322.423
322.377
322.331
322.285
322.235
322.972
322.915
322.858
322.803
322.748
322.694
322.641
322.59
322.541
322.493
322.447
322.401
322.356
322.31
322.265
322.973
322.919
322.865
322.811
322.759
322.707
322.657
322.608
322.56
322.514
322.469
322.425
322.381
322.336
322.285
322.974
322.922
322.87
322.819
322.769
322.72
322.671
322.624
322.579
322.534
322.491
322.449
322.407
322.365
322.322
322.975
322.925
322.876
322.827
322.779
322.731
322.685
322.64
322.596
322.554
322.512
322.472
322.433
322.394
322.349
322.976
322.928
322.881
322.834
322.788
322.742
322.698
322.655
322.613
322.572
322.533
322.495
322.46
322.428
322.405
322.977
322.931
322.886
322.841
322.796
322.753
322.71
322.669
322.628
322.589
322.552
322.517
322.484
322.455
322.43
322.978
322.934
322.89
322.847
322.804
322.762
322.721
322.681
322.643
322.605
322.57
322.536
322.506
322.48
322.46
322.979
322.937
322.895
322.853
322.812
322.772
322.732
322.694
322.656
322.62
322.586
322.554
322.525
322.499
322.476
322.98
322.939
322.899
322.858
322.819
322.78
322.742
322.705
322.669
322.634
322.601
322.57
322.541
322.516
322.496
322.98
322.941
322.902
322.864
322.825
322.788
322.751
322.715
322.68
322.647
322.615
322.584
322.556
322.53
322.506
322.981
322.943
322.906
322.868
322.832
322.795
322.76
322.725
322.691
322.658
322.627
322.597
322.568
322.542
322.519
322.982
322.945
322.909
322.873
322.837
322.802
322.768
322.734
322.701
322.669
322.638
322.608
322.579
322.552
322.525
322.982
322.947
322.912
322.877
322.843
322.809
322.775
322.742
322.71
322.679
322.649
322.619
322.59
322.561
322.531
322.983
322.949
322.915
322.881
322.848
322.815
322.782
322.75
322.719
322.689
322.659
322.629
322.6
322.571
322.542
322.983
322.95
322.917
322.885
322.852
322.82
322.789
322.758
322.727
322.698
322.668
322.639
322.61
322.581
322.55
322.984
322.952
322.92
322.888
322.857
322.826
322.795
322.765
322.735
322.706
322.678
322.649
322.621
322.592
322.563
322.984
322.953
322.922
322.891
322.861
322.831
322.801
322.772
322.743
322.715
322.687
322.659
322.632
322.603
322.572
322.985
322.954
322.924
322.894
322.865
322.835
322.806
322.778
322.75
322.723
322.696
322.669
322.643
322.616
322.589
322.985
322.956
322.926
322.897
322.868
322.84
322.812
322.784
322.757
322.731
322.705
322.679
322.655
322.63
322.602
322.986
322.957
322.928
322.9
322.872
322.844
322.816
322.79
322.764
322.738
322.713
322.689
322.666
322.645
322.627
322.986
322.958
322.93
322.902
322.875
322.848
322.821
322.795
322.77
322.745
322.721
322.698
322.677
322.657
322.639
322.986
322.959
322.931
322.904
322.877
322.851
322.825
322.8
322.775
322.751
322.728
322.706
322.686
322.668
322.653
322.986
322.96
322.933
322.906
322.88
322.854
322.829
322.804
322.78
322.757
322.735
322.714
322.694
322.676
322.66
322.987
322.96
322.934
322.908
322.882
322.857
322.832
322.808
322.784
322.762
322.74
322.72
322.701
322.683
322.669
322.987
322.961
322.935
322.909
322.884
322.859
322.835
322.811
322.788
322.766
322.745
322.725
322.706
322.689
322.673
322.987
322.961
322.936
322.911
322.886
322.861
322.837
322.814
322.791
322.77
322.749
322.729
322.711
322.693
322.678
322.987
322.962
322.937
322.911
322.887
322.863
322.839
322.816
322.794
322.772
322.752
322.733
322.714
322.697
322.68
322.987
322.962
322.937
322.912
322.888
322.864
322.84
322.818
322.796
322.775
322.754
322.735
322.717
322.699
322.682
322.987
322.962
322.937
322.913
322.888
322.865
322.841
322.819
322.797
322.776
322.756
322.737
322.719
322.702
322.685
322.987
322.962
322.937
322.913
322.889
322.865
322.842
322.82
322.798
322.777
322.757
322.739
322.721
322.704
322.687
322.987
322.962
322.937
322.913
322.889
322.865
322.842
322.82
322.798
322.778
322.758
322.739
322.722
322.705
322.69
322.987
322.962
322.937
322.912
322.888
322.864
322.841
322.819
322.798
322.777
322.758
322.739
322.722
322.706
322.691
322.987
322.962
322.937
322.912
322.887
322.864
322.84
322.818
322.797
322.776
322.757
322.739
322.722
322.706
322.692
322.987
322.961
322.936
322.911
322.886
322.862
322.839
322.816
322.795
322.774
322.755
322.737
322.72
322.705
322.691
322.987
322.961
322.935
322.909
322.884
322.86
322.837
322.814
322.792
322.772
322.753
322.734
322.718
322.702
322.688
322.987
322.96
322.934
322.908
322.882
322.858
322.834
322.811
322.789
322.769
322.749
322.731
322.714
322.699
322.685
322.986
322.959
322.932
322.906
322.88
322.855
322.83
322.807
322.785
322.764
322.745
322.727
322.71
322.695
322.68
322.986
322.958
322.93
322.903
322.877
322.851
322.826
322.802
322.78
322.759
322.74
322.722
322.705
322.69
322.676
322.986
322.957
322.928
322.9
322.873
322.846
322.821
322.797
322.774
322.753
322.733
322.715
322.699
322.684
322.669
322.985
322.955
322.926
322.897
322.869
322.841
322.815
322.79
322.767
322.746
322.726
322.708
322.692
322.678
322.665
322.984
322.954
322.923
322.893
322.864
322.835
322.808
322.783
322.759
322.737
322.717
322.699
322.684
322.67
322.657
322.984
322.952
322.92
322.888
322.858
322.829
322.801
322.774
322.75
322.727
322.707
322.689
322.674
322.662
322.652
322.983
322.949
322.916
322.883
322.851
322.821
322.792
322.764
322.739
322.715
322.695
322.677
322.663
322.652
322.647
322.982
322.947
322.912
322.878
322.844
322.812
322.782
322.753
322.726
322.702
322.681
322.663
322.649
322.639
322.634
322.981
322.944
322.907
322.871
322.836
322.802
322.77
322.74
322.712
322.687
322.664
322.646
322.632
322.623
322.622
322.98
322.941
322.902
322.864
322.827
322.791
322.757
322.725
322.696
322.669
322.646
322.626
322.611
322.602
322.599
322.979
322.938
322.897
322.856
322.817
322.779
322.743
322.709
322.678
322.649
322.624
322.603
322.586
322.577
322.58
322.978
322.934
322.89
322.848
322.806
322.766
322.728
322.692
322.658
322.627
322.599
322.575
322.557
322.544
322.54
322.977
322.93
322.884
322.838
322.794
322.752
322.711
322.672
322.636
322.602
322.572
322.545
322.522
322.506
322.504
322.975
322.925
322.876
322.828
322.781
322.736
322.692
322.651
322.612
322.576
322.542
322.512
322.484
322.457
322.423
322.974
322.921
322.868
322.817
322.767
322.719
322.672
322.628
322.586
322.547
322.511
322.476
322.444
322.412
322.382
322.972
322.916
322.86
322.805
322.752
322.7
322.651
322.604
322.559
322.517
322.477
322.44
322.404
322.367
322.325
322.97
322.91
322.851
322.792
322.736
322.68
322.628
322.577
322.53
322.485
322.442
322.402
322.364
322.326
322.291
322.968
322.904
322.841
322.779
322.718
322.659
322.603
322.549
322.498
322.451
322.406
322.364
322.324
322.284
322.239
322.966
322.898
322.83
322.764
322.699
322.636
322.576
322.519
322.465
322.414
322.368
322.324
322.283
322.244
322.209
322.963
322.891
322.819
322.748
322.678
322.611
322.547
322.486
322.429
322.376
322.327
322.282
322.242
322.203
322.162
322.961
322.883
322.806
322.73
322.656
322.585
322.516
322.451
322.39
322.334
322.283
322.238
322.198
322.164
322.135
322.958
322.875
322.793
322.712
322.633
322.556
322.483
322.413
322.348
322.289
322.236
322.19
322.151
322.12
322.103
322.956
322.867
322.779
322.692
322.607
322.525
322.446
322.372
322.302
322.239
322.184
322.137
322.098
322.066
322.027
322.953
322.858
322.764
322.671
322.58
322.492
322.407
322.327
322.252
322.185
322.126
322.078
322.042
322.016
321.994
322.949
322.848
322.748
322.649
322.551
322.456
322.365
322.278
322.197
322.124
322.061
322.011
321.978
321.965
321.97
322.946
322.838
322.731
322.625
322.521
322.419
322.32
322.225
322.136
322.055
321.986
321.932
321.9
321.9
321.94
322.943
322.828
322.714
322.6
322.488
322.378
322.271
322.168
322.07
321.98
321.9
321.837
321.801
321.808
321.888
322.939
322.817
322.695
322.575
322.455
322.336
322.22
322.107
321.998
321.896
321.803
321.725
321.671
321.665
321.767
289.155
288.089
287.387
286.854
286.407
286.01
285.644
285.3
284.971
284.653
284.343
284.039
283.739
283.442
283.147
288.778
287.746
287.125
286.649
286.243
285.875
285.532
285.207
284.894
284.59
284.293
284.001
283.712
283.426
283.142
287.293
287.118
286.76
286.397
286.051
285.723
285.409
285.105
284.811
284.522
284.239
283.96
283.684
283.41
283.136
286.708
286.616
286.4
286.132
285.848
285.561
285.278
284.998
284.723
284.451
284.183
283.918
283.654
283.392
283.131
286.155
286.199
286.077
285.879
285.646
285.397
285.143
284.888
284.632
284.378
284.125
283.874
283.623
283.374
283.125
285.905
285.899
285.806
285.649
285.454
285.238
285.01
284.777
284.541
284.304
284.067
283.829
283.592
283.355
283.118
285.645
285.658
285.58
285.446
285.277
285.086
284.881
284.669
284.451
284.23
284.008
283.785
283.561
283.336
283.112
285.528
285.481
285.393
285.268
285.116
284.944
284.758
284.563
284.362
284.157
283.95
283.74
283.529
283.318
283.106
285.435
285.334
285.23
285.109
284.968
284.81
284.641
284.462
284.277
284.087
283.893
283.697
283.499
283.3
283.1
285.275
285.186
285.081
284.963
284.831
284.686
284.53
284.366
284.195
284.018
283.838
283.654
283.469
283.282
283.094
285.171
285.051
284.941
284.826
284.703
284.569
284.426
284.274
284.116
283.953
283.785
283.613
283.44
283.264
283.088
285
284.907
284.804
284.697
284.582
284.459
284.327
284.188
284.041
283.89
283.734
283.574
283.412
283.248
283.083
284.889
284.771
284.671
284.572
284.467
284.354
284.233
284.105
283.971
283.83
283.685
283.537
283.385
283.232
283.077
284.701
284.621
284.537
284.45
284.357
284.255
284.145
284.028
283.904
283.774
283.639
283.501
283.36
283.217
283.072
284.564
284.475
284.406
284.334
284.252
284.162
284.062
283.955
283.841
283.721
283.596
283.468
283.336
283.202
283.068
284.299
284.313
284.278
284.223
284.154
284.074
283.985
283.887
283.782
283.671
283.556
283.436
283.314
283.189
283.063
284.18
284.185
284.165
284.122
284.064
283.994
283.913
283.824
283.727
283.625
283.518
283.407
283.292
283.176
283.059
284.049
284.076
284.066
284.032
283.983
283.92
283.847
283.765
283.677
283.582
283.483
283.379
283.273
283.165
283.055
283.984
283.993
283.983
283.954
283.91
283.853
283.787
283.712
283.63
283.542
283.45
283.354
283.255
283.154
283.051
283.907
283.922
283.912
283.886
283.846
283.794
283.733
283.664
283.588
283.506
283.42
283.33
283.238
283.144
283.048
283.868
283.867
283.854
283.828
283.79
283.741
283.684
283.62
283.549
283.473
283.393
283.309
283.223
283.134
283.045
283.823
283.821
283.805
283.778
283.74
283.694
283.641
283.58
283.514
283.443
283.368
283.29
283.209
283.126
283.042
283.801
283.786
283.764
283.735
283.697
283.653
283.602
283.545
283.483
283.416
283.345
283.272
283.196
283.118
283.039
283.783
283.756
283.729
283.697
283.659
283.616
283.567
283.513
283.454
283.391
283.325
283.256
283.184
283.111
283.037
283.752
283.726
283.696
283.663
283.625
283.583
283.536
283.484
283.428
283.369
283.306
283.241
283.174
283.105
283.035
283.731
283.698
283.666
283.632
283.595
283.553
283.508
283.459
283.405
283.349
283.29
283.228
283.164
283.099
283.033
283.698
283.67
283.638
283.604
283.567
283.527
283.483
283.435
283.385
283.331
283.274
283.216
283.155
283.094
283.031
283.677
283.643
283.611
283.577
283.541
283.502
283.46
283.415
283.366
283.315
283.261
283.205
283.148
283.089
283.03
283.643
283.615
283.585
283.553
283.518
283.48
283.44
283.396
283.349
283.3
283.249
283.196
283.141
283.085
283.028
283.619
283.588
283.56
283.53
283.497
283.461
283.421
283.379
283.335
283.287
283.238
283.187
283.135
283.081
283.027
283.573
283.56
283.537
283.509
283.478
283.443
283.405
283.364
283.321
283.276
283.229
283.179
283.129
283.078
283.026
283.554
283.538
283.517
283.491
283.461
283.427
283.391
283.351
283.31
283.266
283.22
283.173
283.124
283.075
283.025
283.534
283.521
283.501
283.475
283.446
283.414
283.378
283.34
283.3
283.257
283.213
283.167
283.12
283.072
283.024
283.525
283.508
283.487
283.462
283.434
283.402
283.367
283.33
283.291
283.249
283.206
283.162
283.117
283.07
283.023
283.515
283.499
283.477
283.452
283.424
283.393
283.358
283.322
283.284
283.243
283.201
283.158
283.113
283.068
283.023
283.511
283.492
283.47
283.444
283.416
283.385
283.351
283.315
283.277
283.238
283.197
283.154
283.111
283.067
283.022
283.507
283.487
283.464
283.438
283.41