/*--------------------------------*- C++ -*----------------------------------*\
| =========                 |                                                 |
| \\      /  F ield         | OpenFOAM: The Open Source CFD Toolbox           |
|  \\    /   O peration     | Version:  5.x                                   |
|   \\  /    A nd           | Web:      www.OpenFOAM.org                      |
|    \\/     M anipulation  |                                                 |
\*---------------------------------------------------------------------------*/
FoamFile
{
    version     2.0;
    format      ascii;
    class       volScalarField;
    location    "5.1";
    object      gradTy;
}
// * * * * * * * * * * * * * * * * * * * * * * * * * * * * * * * * * * * * * //

dimensions      [0 -1 0 1 0 0 0];

internalField   nonuniform List<scalar> 
3200
(
18.2507
8.6367
11.731
8.31329
9.75078
8.04074
8.79493
7.79374
8.24261
7.60185
7.87721
7.51839
7.72882
7.31856
7.53077
7.14056
7.33971
6.98118
7.16294
6.83902
7.00236
6.71338
6.85848
6.6033
6.73135
6.50712
6.62142
6.4217
6.53674
6.36752
6.23227
6.31948
6.20091
6.25861
6.16637
6.21106
6.137
6.17295
6.11275
6.14198
6.09287
6.1167
6.07669
6.09602
6.06367
6.07915
6.05353
6.06545
6.04629
6.05449
6.04338
6.04954
6.03794
6.04334
6.03437
6.03801
6.03306
6.03412
6.03476
6.0321
6.04082
6.03249
6.05382
6.03601
6.07878
6.04293
6.12664
6.0485
6.22323
6.00093
6.29317
7.10849
6.42154
7.94687
6.78027
9.89473
9.1244
9.0066
8.98228
8.97704
17.011
9.75268
11.3333
8.77727
9.54796
8.27089
8.67466
7.92622
8.1654
7.68599
7.83302
7.56519
7.67733
7.36998
7.48209
7.18977
7.29507
7.02652
7.12266
6.88005
6.96645
6.75002
6.82679
6.63568
6.70346
6.53556
6.59623
6.44686
6.50923
6.37127
6.25714
6.30506
6.21651
6.24727
6.17823
6.20193
6.14648
6.16552
6.12044
6.13593
6.09915
6.11176
6.0818
6.09204
6.06781
6.076
6.05682
6.06312
6.04877
6.05313
6.04483
6.0481
6.03941
6.04225
6.03553
6.03744
6.03373
6.03428
6.03475
6.03331
6.03983
6.03538
6.05132
6.04178
6.07372
6.05443
6.11683
6.07406
6.20344
6.07629
6.35163
6.99325
6.62329
7.76431
7.15756
9.50159
9.0983
9.00286
8.98151
8.97683
16.0615
10.5151
11.1011
9.10818
9.42706
8.43381
8.60048
8.0192
8.11695
7.74508
7.80542
7.59678
7.64262
7.40462
7.44958
7.22308
7.26538
7.05727
7.09592
6.90791
6.94266
6.77493
6.80582
6.6577
6.685
6.55485
6.57944
6.46355
6.48973
6.37408
6.27553
6.29611
6.22733
6.23992
6.18639
6.19597
6.15298
6.16066
6.12572
6.13196
6.10345
6.10853
6.08531
6.08943
6.07066
6.07395
6.05908
6.06162
6.0505
6.05227
6.04581
6.04714
6.04041
6.04155
6.03634
6.0371
6.03423
6.03444
6.03481
6.03421
6.03928
6.03745
6.04983
6.0459
6.07072
6.06267
6.11123
6.09273
6.19391
6.13556
6.39543
6.91848
6.7646
7.65165
7.41681
9.21835
9.05988
8.99615
8.98008
8.97643
15.334
11.0323
10.972
9.34662
9.35863
8.55033
8.55622
8.08502
8.08727
7.78688
7.78858
7.6182
7.61926
7.42795
7.42792
7.24564
7.24571
7.07816
7.07826
6.92686
6.92697
6.79189
6.79201
6.67271
6.67284
6.56796
6.56827
6.47457
6.47591
6.3762
6.28915
6.29072
6.23491
6.23522
6.19201
6.19211
6.15745
6.15751
6.12934
6.12938
6.10641
6.10644
6.08772
6.08775
6.07262
6.07263
6.06066
6.06066
6.05172
6.05174
6.04649
6.04651
6.04111
6.0411
6.03692
6.03691
6.03461
6.03459
6.03492
6.03489
6.03901
6.03895
6.049
6.04886
6.06904
6.06864
6.10831
6.10662
6.19076
6.18209
6.42871
6.87078
6.86427
7.58387
7.5946
9.0135
9.01767
8.98754
8.97815
8.97588
14.7785
11.3797
10.9055
9.51957
9.32302
8.63428
8.53104
8.1319
8.0697
7.8166
7.77863
7.63276
7.6036
7.44363
7.41356
7.2609
7.23274
7.09233
7.06666
6.93975
6.91669
6.80345
6.78297
6.68293
6.66488
6.57686
6.56087
6.48178
6.46613
6.37781
6.29923
6.28764
6.24024
6.23225
6.19591
6.18964
6.16054
6.15548
6.13184
6.12772
6.10845
6.10509
6.08939
6.08666
6.07397
6.07179
6.06175
6.06006
6.05257
6.05143
6.04695
6.04609
6.04158
6.04081
6.03732
6.0368
6.0349
6.03474
6.03503
6.03539
6.0389
6.04004
6.04857
6.05101
6.06817
6.073
6.10704
6.11707
6.19132
6.21842
6.45417
6.84103
6.9349
7.54444
7.71607
8.86525
8.97684
8.97809
8.97593
8.97525
14.3589
11.6102
10.8755
9.64493
9.3071
8.69482
8.5177
8.16531
8.05977
7.83771
7.77299
7.64265
7.59317
7.45411
7.4041
7.27119
7.22427
7.10192
7.0591
6.94849
6.91001
6.81129
6.77711
6.68988
6.65972
6.58288
6.55598
6.48645
6.45926
6.37904
6.30663
6.28598
6.24399
6.23043
6.19861
6.18809
6.16266
6.1542
6.13356
6.12667
6.10985
6.10423
6.09053
6.08598
6.07491
6.07126
6.06251
6.0597
6.05317
6.05124
6.04726
6.04581
6.04191
6.04064
6.03761
6.03676
6.03511
6.03486
6.03515
6.03577
6.03889
6.04084
6.04839
6.05257
6.0678
6.0762
6.10673
6.12495
6.19377
6.2464
6.47358
6.823
6.9849
7.52254
7.79843
8.7585
8.94041
8.96879
8.97366
8.97458
14.0493
11.7602
10.8653
9.73459
9.30216
8.73794
8.51137
8.18884
8.0545
7.85252
7.76997
7.6493
7.58632
7.46102
7.39796
7.27803
7.21881
7.10833
7.05425
6.95434
6.90575
6.81656
6.77338
6.69454
6.65643
6.5869
6.5528
6.48942
6.4545
6.37995
6.31195
6.28518
6.2466
6.22933
6.20045
6.18713
6.16411
6.1534
6.13473
6.12602
6.1108
6.1037
6.09131
6.08555
6.07554
6.07094
6.06303
6.05948
6.05359
6.05114
6.04748
6.04564
6.04213
6.04053
6.03782
6.03674
6.03527
6.03496
6.03525
6.03606
6.03892
6.04142
6.04834
6.05369
6.0677
6.07852
6.10692
6.13081
6.19687
6.26739
6.48811
6.81247
7.01988
7.5111
7.85343
8.68287
8.91014
8.96042
8.97154
8.97396
13.8313
11.8543
10.8646
9.79632
9.30249
8.76756
8.50887
8.20484
8.05194
7.86256
7.76848
7.65365
7.58196
7.46545
7.39409
7.28245
7.2154
7.11247
7.05124
6.95814
6.9031
6.81998
6.77107
6.69757
6.65439
6.58951
6.55079
6.49126
6.45133
6.3806
6.31563
6.28485
6.24836
6.22869
6.20167
6.18655
6.16506
6.15292
6.13549
6.12563
6.11142
6.10338
6.09182
6.0853
6.07596
6.07075
6.06337
6.05936
6.05387
6.05109
6.04762
6.04553
6.04228
6.04047
6.03795
6.03674
6.03538
6.03504
6.03534
6.03626
6.03896
6.04182
6.04836
6.05447
6.06774
6.08013
6.10728
6.13499
6.19979
6.28238
6.49849
6.80661
7.0435
7.50561
7.88894
8.63134
8.88694
8.95362
8.96978
8.97343
13.6923
11.909
10.867
9.83507
9.30446
8.78613
8.50819
8.21479
8.05083
7.86878
7.76782
7.65627
7.5794
7.46807
7.39183
7.28508
7.21342
7.11496
7.0495
6.96042
6.90158
6.82203
6.76975
6.6994
6.65322
6.59106
6.54962
6.49232
6.4494
6.38101
6.31794
6.28475
6.24945
6.22835
6.20241
6.18624
6.16564
6.15265
6.13596
6.12541
6.1118
6.10321
6.09213
6.08516
6.07622
6.07064
6.06358
6.05929
6.05405
6.05107
6.0477
6.04547
6.04237
6.04044
6.03804
6.03674
6.03546
6.0351
6.03539
6.03638
6.03901
6.04207
6.04839
6.05495
6.0678
6.08115
6.10762
6.13768
6.20199
6.29203
6.50518
6.80361
7.05811
7.50328
7.9101
8.59927
8.87129
8.94885
8.96851
8.97305
13.6247
11.934
10.869
9.85376
9.30594
8.79509
8.50813
8.21957
8.05045
7.87176
7.76759
7.6575
7.57821
7.46929
7.39079
7.28631
7.21252
7.11612
7.04871
6.96148
6.90089
6.823
6.76915
6.70025
6.65268
6.59179
6.54908
6.4928
6.44848
6.38122
6.31905
6.28473
6.24997
6.22821
6.20276
6.1861
6.16591
6.15253
6.13618
6.12531
6.11198
6.10313
6.09228
6.0851
6.07634
6.07059
6.06368
6.05926
6.05413
6.05106
6.04774
6.04544
6.04241
6.04042
6.03808
6.03674
6.03549
6.03512
6.03542
6.03645
6.03903
6.04219
6.04841
6.05519
6.06785
6.08164
6.10782
6.139
6.20317
6.29676
6.50847
6.80236
7.0651
7.50248
7.91995
8.5839
8.86343
8.94639
8.96785
8.97285
-13.7524
-11.9471
-10.7181
-9.37895
-8.56851
-7.67661
-7.11463
-6.46273
-6.0477
-5.56564
-5.27223
-4.94665
-4.70909
-4.38066
-4.14505
-3.83347
-3.61573
-3.33467
-3.14053
-2.89256
-2.72214
-2.50546
-2.35681
-2.16802
-2.03815
-1.8724
-1.756
-1.60223
-1.48001
-1.29268
-1.11729
-1.01889
-0.916776
-0.851598
-0.773695
-0.721715
-0.657419
-0.614027
-0.559849
-0.523165
-0.477238
-0.446132
-0.407195
-0.380884
-0.348062
-0.326056
-0.298896
-0.281098
-0.259817
-0.246686
-0.231882
-0.220982
-0.205802
-0.194866
-0.180348
-0.170179
-0.157021
-0.147925
-0.136297
-0.128322
-0.118216
-0.111365
-0.102822
-0.0972681
-0.090791
-0.0874991
-0.0855457
-0.0890617
-0.103432
-0.137472
-0.227799
-0.374188
-0.528971
-0.81574
-1.11863
-1.62806
-1.84356
-1.9076
-1.92418
-1.92804
-13.8246
-11.924
-10.7226
-9.3578
-8.57177
-7.66342
-7.11823
-6.45326
-6.05039
-5.5581
-5.27352
-4.94314
-4.71273
-4.37695
-4.1481
-3.82972
-3.61827
-3.3312
-3.14269
-2.88946
-2.72399
-2.50275
-2.35841
-2.16567
-2.03959
-1.87043
-1.7575
-1.60097
-1.48262
-1.2922
-1.11422
-1.01904
-0.915301
-0.85211
-0.772661
-0.72221
-0.656585
-0.614461
-0.559152
-0.523537
-0.476648
-0.446447
-0.406692
-0.381147
-0.347632
-0.326264
-0.298523
-0.281239
-0.259493
-0.246754
-0.231728
-0.221155
-0.205633
-0.195011
-0.180175
-0.170299
-0.15686
-0.148027
-0.136153
-0.128409
-0.118086
-0.111433
-0.102704
-0.0973061
-0.0906646
-0.0874465
-0.0853279
-0.0886284
-0.102646
-0.135222
-0.225557
-0.373852
-0.523692
-0.815095
-1.11037
-1.63982
-1.84962
-1.9095
-1.92469
-1.92819
-13.9729
-11.873
-10.7335
-9.31351
-8.57994
-7.63571
-7.12663
-6.43332
-6.05666
-5.54226
-5.27665
-4.93563
-4.72059
-4.36897
-4.15473
-3.82169
-3.62384
-3.32379
-3.14744
-2.88286
-2.72808
-2.49696
-2.36197
-2.16065
-2.04276
-1.86622
-1.76075
-1.59819
-1.48811
-1.29123
-1.10783
-1.01953
-0.912209
-0.853275
-0.77047
-0.723316
-0.654814
-0.615425
-0.557669
-0.524362
-0.475392
-0.447147
-0.405623
-0.38173
-0.346717
-0.326728
-0.297734
-0.281561
-0.25881
-0.246916
-0.231397
-0.221527
-0.205271
-0.195326
-0.179806
-0.170564
-0.156516
-0.148253
-0.135844
-0.128599
-0.117812
-0.111586
-0.102453
-0.097395
-0.0904023
-0.087351
-0.0848943
-0.0877674
-0.101119
-0.130661
-0.220998
-0.373456
-0.512751
-0.814296
-1.09274
-1.66436
-1.86168
-1.91319
-1.92567
-1.92849
-14.2051
-11.7836
-10.7557
-9.24177
-8.59653
-7.59059
-7.14241
-6.40071
-6.06844
-5.51647
-5.28281
-4.92308
-4.73392
-4.3555
-4.16612
-3.80827
-3.6335
-3.31144
-3.15573
-2.87187
-2.73523
-2.48733
-2.36817
-2.1523
-2.04828
-1.85917
-1.76628
-1.59332
-1.49708
-1.28973
-1.09765
-1.02079
-0.907184
-0.855399
-0.766855
-0.725278
-0.651882
-0.617126
-0.555211
-0.525817
-0.47331
-0.44838
-0.403851
-0.38276
-0.345204
-0.327556
-0.296434
-0.282147
-0.257695
-0.247225
-0.230842
-0.222157
-0.204657
-0.195865
-0.179187
-0.171023
-0.155943
-0.148645
-0.13533
-0.128933
-0.117356
-0.111857
-0.102041
-0.0975624
-0.0899835
-0.0872328
-0.0842485
-0.0864882
-0.0989449
-0.12367
-0.213954
-0.373587
-0.495321
-0.814422
-1.06338
-1.70388
-1.87957
-1.91843
-1.92703
-1.92889
-14.5342
-11.6385
-10.7973
-9.13529
-8.62756
-7.52318
-7.16993
-6.35173
-6.08902
-5.47795
-5.29401
-4.90373
-4.75482
-4.33448
-4.18425
-3.78753
-3.64905
-3.29244
-3.16915
-2.85499
-2.74683
-2.47256
-2.37826
-2.13949
-2.0572
-1.84827
-1.77502
-1.58537
-1.5105
-1.28762
-1.08286
-1.02353
-0.899689
-0.858995
-0.761366
-0.728515
-0.647407
-0.619916
-0.551455
-0.528199
-0.470127
-0.4504
-0.401143
-0.384452
-0.342896
-0.328924
-0.294463
-0.283142
-0.256022
-0.247772
-0.22998
-0.22314
-0.203697
-0.196722
-0.178229
-0.17176
-0.155059
-0.14928
-0.134541
-0.129476
-0.116659
-0.112302
-0.101416
-0.097855
-0.0893727
-0.087125
-0.0833948
-0.0848013
-0.096281
-0.114058
-0.204137
-0.375234
-0.469996
-0.817354
-1.01837
-1.76199
-1.90293
-1.92489
-1.92866
-1.92938
-14.9791
-11.4111
-10.8718
-8.98265
-8.68246
-7.42572
-7.21605
-6.28054
-6.12354
-5.42236
-5.31347
-4.87472
-4.78659
-4.30265
-4.21224
-3.75647
-3.67334
-3.26412
-3.19021
-2.82988
-2.76509
-2.45059
-2.39412
-2.12042
-2.0712
-1.83195
-1.78842
-1.57285
-1.52984
-1.28479
-1.06226
-1.02885
-0.888871
-0.864873
-0.753288
-0.733686
-0.640789
-0.624348
-0.545894
-0.531975
-0.465412
-0.453603
-0.397135
-0.38714
-0.339487
-0.331113
-0.291568
-0.284771
-0.253597
-0.248702
-0.228683
-0.22463
-0.20224
-0.198041
-0.176792
-0.172907
-0.15374
-0.150275
-0.133366
-0.13033
-0.115624
-0.113009
-0.100499
-0.0983456
-0.0885136
-0.0870776
-0.0823367
-0.0827125
-0.0933662
-0.101554
-0.19108
-0.379935
-0.434568
-0.82614
-0.951644
-1.84421
-1.93105
-1.93208
-1.93042
-1.92989
-15.5668
-11.0627
-11.0002
-8.76645
-8.77562
-7.28638
-7.29122
-6.17821
-6.17983
-5.34308
-5.34612
-4.83169
-4.83419
-4.2551
-4.25486
-3.7105
-3.71068
-3.22238
-3.22272
-2.79296
-2.79334
-2.4183
-2.41868
-2.09237
-2.0928
-1.8078
-1.80871
-1.55342
-1.55727
-1.28106
-1.03409
-1.03843
-0.873418
-0.874257
-0.741533
-0.741792
-0.631117
-0.631264
-0.537753
-0.53786
-0.45851
-0.458595
-0.391271
-0.391336
-0.334509
-0.334552
-0.287365
-0.287376
-0.250122
-0.250239
-0.226748
-0.226855
-0.200057
-0.200043
-0.174661
-0.174667
-0.151794
-0.151808
-0.131637
-0.131651
-0.114107
-0.114112
-0.0991695
-0.0991445
-0.0873197
-0.0871634
-0.0810749
-0.0802135
-0.0905509
-0.085797
-0.174051
-0.390006
-0.385663
-0.845568
-0.854241
-1.95865
-1.9626
-1.93937
-1.93212
-1.93038
-16.3346
-10.5366
-11.2155
-8.46054
-8.92873
-7.08729
-7.4111
-6.0313
-6.26966
-5.23021
-5.39949
-4.76799
-4.90506
-4.18439
-4.31925
-3.64276
-3.76756
-3.16111
-3.27245
-2.73883
-2.8366
-2.37101
-2.45631
-2.05126
-2.12582
-1.77223
-1.83925
-1.52363
-1.5959
-1.27617
-0.995878
-1.05479
-0.851333
-0.888986
-0.724463
-0.754337
-0.617014
-0.641927
-0.52587
-0.546926
-0.448433
-0.466285
-0.382713
-0.39781
-0.327259
-0.339882
-0.281275
-0.291475
-0.245154
-0.252722
-0.223871
-0.230157
-0.196804
-0.203062
-0.171516
-0.177344
-0.148934
-0.154151
-0.129103
-0.133677
-0.111888
-0.115815
-0.0972442
-0.100416
-0.08566
-0.0874875
-0.0796049
-0.0772674
-0.0883401
-0.0663209
-0.151915
-0.408889
-0.318188
-0.883047
-0.713009
-2.11712
-1.99524
-1.94603
-1.93361
-1.9308
-17.3344
-9.75136
-11.5682
-8.02572
-9.17423
-6.8016
-7.59913
-5.81967
-6.41061
-5.069
-5.48489
-4.67355
-5.01025
-4.07946
-4.41609
-3.54297
-3.85369
-3.07112
-3.34798
-2.65945
-2.90241
-2.30168
-2.51356
-1.99097
-2.17597
-1.71983
-1.8851
-1.47833
-1.65022
-1.2697
-0.944099
-1.08165
-0.819607
-0.911805
-0.699618
-0.773573
-0.596424
-0.658233
-0.508505
-0.560776
-0.433704
-0.478035
-0.37021
-0.407712
-0.316683
-0.348062
-0.272436
-0.297835
-0.238031
-0.256663
-0.21959
-0.235047
-0.191967
-0.207594
-0.166878
-0.181392
-0.14473
-0.157705
-0.125384
-0.136758
-0.108643
-0.118419
-0.0944501
-0.102406
-0.083338
-0.0882008
-0.077914
-0.0737858
-0.0874538
-0.042541
-0.122923
-0.441679
-0.224492
-0.949922
-0.508811
-2.33662
-2.02497
-1.95121
-1.93472
-1.9311
-18.6375
-8.59014
-12.1352
-7.40322
-9.56056
-6.38907
-7.89022
-5.5132
-6.62883
-4.83747
-5.61935
-4.53317
-5.16612
-3.92382
-4.56131
-3.39581
-3.98354
-2.93874
-3.46211
-2.5428
-3.00195
-2.19983
-2.60017
-1.90236
-2.25175
-1.64256
-1.95382
-1.40987
-1.72662
-1.26101
-0.873782
-1.12448
-0.773699
-0.946788
-0.663317
-0.802842
-0.566265
-0.682989
-0.48305
-0.58179
-0.41211
-0.495861
-0.351886
-0.422747
-0.301202
-0.360515
-0.259547
-0.307596
-0.227765
-0.262826
-0.213201
-0.242272
-0.184777
-0.214374
-0.160025
-0.187481
-0.138536
-0.163066
-0.119913
-0.141413
-0.103877
-0.122368
-0.0903746
-0.105473
-0.0800546
-0.0895161
-0.0759729
-0.0695885
-0.0889072
-0.0137459
-0.0843945
-0.495905
-0.0930884
-1.06346
-0.213855
-2.6417
-2.04519
-1.9541
-1.93531
-1.93127
18.6375
8.59014
12.1352
7.40323
9.56056
6.38907
7.89023
5.5132
6.62884
4.83747
5.61936
4.53317
5.16612
3.92382
4.56131
3.39581
3.98354
2.93874
3.46211
2.5428
3.00195
2.19983
2.60017
1.90236
2.25175
1.64255
1.95382
1.40987
1.72662
1.26101
0.87378
1.12448
0.773698
0.946788
0.663316
0.802842
0.566264
0.682988
0.483049
0.581789
0.412109
0.495861
0.351885
0.422747
0.301202
0.360515
0.259547
0.307596
0.227764
0.262826
0.213201
0.242272
0.184777
0.214374
0.160025
0.187481
0.138536
0.163066
0.119913
0.141414
0.103877
0.122369
0.0903746
0.105473
0.0800546
0.0895164
0.075973
0.0695887
0.0889076
0.0137457
0.0843952
0.495909
0.0930902
1.06346
0.213859
2.64171
2.0452
1.95411
1.93532
1.93127
17.3344
9.75136
11.5682
8.02572
9.17424
6.8016
7.59914
5.81968
6.41061
5.069
5.48489
4.67356
5.01026
4.07947
4.4161
3.54298
3.8537
3.07113
3.34799
2.65946
2.90242
2.30168
2.51356
1.99097
2.17597
1.71983
1.8851
1.47833
1.65023
1.2697
0.944101
1.08165
0.819609
0.911808
0.69962
0.773575
0.596425
0.658234
0.508506
0.560778
0.433705
0.478036
0.370211
0.407714
0.316684
0.348064
0.272437
0.297836
0.238033
0.256665
0.219591
0.235048
0.191969
0.207596
0.166879
0.181393
0.144732
0.157707
0.125385
0.136759
0.108644
0.118421
0.0944512
0.102408
0.083339
0.0882019
0.077915
0.0737868
0.0874549
0.0425417
0.122925
0.441683
0.224494
0.949929
0.508816
2.33663
2.02498
1.95122
1.93473
1.93111
16.3346
10.5366
11.2155
8.46056
8.92874
7.0873
7.41111
6.03131
6.26967
5.23022
5.3995
4.768
4.90507
4.1844
4.31926
3.64277
3.76757
3.16111
3.27246
2.73884
2.83661
2.37101
2.45632
2.05127
2.12583
1.77223
1.83926
1.52364
1.59591
1.27617
0.995883
1.0548
0.851338
0.888991
0.724466
0.754341
0.617017
0.641931
0.525874
0.54693
0.448436
0.466288
0.382716
0.397813
0.327261
0.339884
0.281278
0.291477
0.245156
0.252725
0.223874
0.23016
0.196806
0.203064
0.171519
0.177347
0.148936
0.154153
0.129105
0.133679
0.111891
0.115817
0.0972461
0.100418
0.0856619
0.0874893
0.0796066
0.0772691
0.0883419
0.0663224
0.151917
0.408893
0.318192
0.883054
0.713015
2.11713
1.99525
1.94604
1.93362
1.9308
15.5668
11.0627
11.0002
8.76647
8.77564
7.2864
7.29123
6.17822
6.17984
5.34309
5.34614
4.8317
4.8342
4.25511
4.25487
3.71051
3.71069
3.22239
3.22273
2.79297
2.79335
2.41831
2.41869
2.09238
2.09281
1.80781
1.80872
1.55343
1.55728
1.28107
1.0341
1.03844
0.873423
0.874262
0.741538
0.741797
0.631121
0.631268
0.537757
0.537865
0.458514
0.458599
0.391274
0.39134
0.334513
0.334555
0.287368
0.28738
0.250125
0.250242
0.226751
0.226858
0.20006
0.200046
0.174664
0.17467
0.151797
0.151811
0.13164
0.131654
0.114109
0.114115
0.0991717
0.0991467
0.0873218
0.0871655
0.0810769
0.0802154
0.090553
0.085799
0.174054
0.39001
0.385667
0.845575
0.854248
1.95866
1.96261
1.93938
1.93213
1.93039
14.9791
11.4112
10.8718
8.98266
8.68247
7.42573
7.21606
6.28055
6.12355
5.42237
5.31348
4.87473
4.7866
4.30267
4.21225
3.75648
3.67335
3.26413
3.19022
2.82989
2.7651
2.4506
2.39413
2.12043
2.0712
1.83196
1.78843
1.57285
1.52985
1.2848
1.06226
1.02885
0.888877
0.864878
0.753293
0.733691
0.640794
0.624353
0.545898
0.53198
0.465417
0.453607
0.397139
0.387143
0.339491
0.331117
0.291571
0.284774
0.2536
0.248705
0.228686
0.224633
0.202243
0.198044
0.176794
0.17291
0.153743
0.150277
0.133368
0.130332
0.115626
0.113011
0.100502
0.0983479
0.0885158
0.0870798
0.0823389
0.0827146
0.0933684
0.101556
0.191083
0.37994
0.434573
0.826146
0.951652
1.84422
1.93106
1.93209
1.93043
1.9299
14.5342
11.6385
10.7973
9.13531
8.62757
7.52319
7.16994
6.35174
6.08903
5.47796
5.29402
4.90374
4.75483
4.33449
4.18426
3.78754
3.64906
3.29245
3.16916
2.855
2.74684
2.47256
2.37826
2.1395
2.05721
1.84828
1.77503
1.58538
1.51051
1.28763
1.08287
1.02353
0.899694
0.859001
0.761371
0.72852
0.647412
0.619921
0.55146
0.528203
0.470131
0.450404
0.401147
0.384456
0.3429
0.328927
0.294466
0.283145
0.256026
0.247775
0.229984
0.223144
0.2037
0.196725
0.178232
0.171763
0.155062
0.149283
0.134543
0.129478
0.116661
0.112304
0.101418
0.0978574
0.089375
0.0871273
0.083397
0.0848035
0.0962833
0.11406
0.20414
0.375238
0.470001
0.817361
1.01837
1.762
1.90294
1.9249
1.92867
1.92939
14.2051
11.7836
10.7557
9.24179
8.59654
7.5906
7.14242
6.40072
6.06845
5.51648
5.28282
4.9231
4.73393
4.35551
4.16613
3.80828
3.63351
3.31145
3.15574
2.87188
2.73524
2.48734
2.36818
2.15231
2.04828
1.85917
1.76629
1.59332
1.49709
1.28974
1.09766
1.0208
0.907189
0.855404
0.766861
0.725283
0.651887
0.617131
0.555216
0.525821
0.473314
0.448384
0.403855
0.382764
0.345207
0.327559
0.296438
0.28215
0.257698
0.247228
0.230845
0.22216
0.20466
0.195868
0.17919
0.171026
0.155945
0.148648
0.135333
0.128936
0.117359
0.11186
0.102043
0.0975647
0.0899858
0.0872351
0.0842507
0.0864904
0.0989472
0.123673
0.213957
0.373591
0.495326
0.814429
1.06339
1.70389
1.87958
1.91844
1.92704
1.9289
13.9729
11.873
10.7335
9.31352
8.57995
7.63572
7.12664
6.43333
6.05667
5.54227
5.27666
4.93564
4.7206
4.36898
4.15474
3.8217
3.62385
3.3238
3.14745
2.88287
2.72809
2.49697
2.36197
2.16066
2.04277
1.86623
1.76075
1.5982
1.48812
1.29124
1.10784
1.01954
0.912214
0.853281
0.770475
0.723321
0.654819
0.615429
0.557674
0.524367
0.475396
0.447151
0.405627
0.381734
0.346721
0.326732
0.297737
0.281564
0.258813
0.246919
0.2314
0.22153
0.205274
0.195329
0.179809
0.170567
0.156519
0.148255
0.135847
0.128602
0.117814
0.111589
0.102455
0.0973973
0.0904045
0.0873532
0.0848965
0.0877696
0.101121
0.130664
0.221001
0.373461
0.512757
0.814303
1.09275
1.66437
1.86169
1.9132
1.92568
1.9285
13.8246
11.924
10.7226
9.35781
8.57178
7.66343
7.11824
6.45327
6.0504
5.55811
5.27353
4.94315
4.71274
4.37696
4.14811
3.82973
3.61828
3.33121
3.1427
2.88947
2.724
2.50275
2.35842
2.16567
2.0396
1.87044
1.75751
1.60098
1.48262
1.29221
1.11422
1.01904
0.915307
0.852115
0.772666
0.722215
0.65659
0.614465
0.559156
0.523541
0.476652
0.446451
0.406696
0.38115
0.347635
0.326267
0.298526
0.281242
0.259496
0.246757
0.231731
0.221158
0.205636
0.195014
0.180178
0.170302
0.156863
0.14803
0.136155
0.128411
0.118089
0.111436
0.102706
0.0973083
0.0906667
0.0874486
0.08533
0.0886305
0.102649
0.135224
0.225561
0.373857
0.523698
0.815102
1.11037
1.63983
1.84963
1.90951
1.9247
1.9282
13.7524
11.9471
10.7181
9.37896
8.56852
7.67662
7.11464
6.46274
6.04771
5.56565
5.27224
4.94666
4.7091
4.38067
4.14506
3.83347
3.61574
3.33468
3.14054
2.89257
2.72214
2.50547
2.35681
2.16803
2.03816
1.87241
1.75601
1.60224
1.48001
1.29268
1.1173
1.01889
0.916781
0.851603
0.773699
0.721719
0.657423
0.614031
0.559853
0.523169
0.477242
0.446135
0.407198
0.380888
0.348066
0.326059
0.298899
0.281101
0.25982
0.246689
0.231885
0.220985
0.205804
0.194869
0.18035
0.170181
0.157024
0.147927
0.1363
0.128324
0.118218
0.111367
0.102824
0.0972702
0.090793
0.0875011
0.0855477
0.0890637
0.103434
0.137475
0.227802
0.374192
0.528977
0.815747
1.11864
1.62807
1.84357
1.90761
1.92419
1.92805
-13.6282
-11.939
-10.8758
-9.8643
-9.32064
-8.81776
-8.53989
-8.26873
-8.11818
-7.96943
-7.86686
-7.73106
-7.63539
-7.51072
-7.42375
-7.31143
-7.23331
-7.13268
-7.06286
-6.97314
-6.91108
-6.8316
-6.77679
-6.70682
-6.65858
-6.59691
-6.5537
-6.49681
-6.45205
-6.38416
-6.32143
-6.28681
-6.25176
-6.22982
-6.20418
-6.18739
-6.16705
-6.15357
-6.1371
-6.12615
-6.11273
-6.10381
-6.09289
-6.08565
-6.07683
-6.07105
-6.06409
-6.05963
-6.05447
-6.05137
-6.04803
-6.04571
-6.04266
-6.04065
-6.03829
-6.03694
-6.03567
-6.03528
-6.03557
-6.03658
-6.03915
-6.0423
-6.04851
-6.05528
-6.06793
-6.08172
-6.10789
-6.13906
-6.20322
-6.29681
-6.50851
-6.8024
-7.06513
-7.50251
-7.91998
-8.58392
-8.86345
-8.9464
-8.96787
-8.97286
-13.6958
-11.914
-10.8738
-9.84559
-9.319
-8.80876
-8.53962
-8.2639
-8.11811
-7.96759
-7.86819
-7.72946
-7.63655
-7.50922
-7.42476
-7.31006
-7.23421
-7.13145
-7.06365
-6.97204
-6.91177
-6.83061
-6.77739
-6.70595
-6.65912
-6.59617
-6.55424
-6.49633
-6.45298
-6.38395
-6.32031
-6.28683
-6.25124
-6.22997
-6.20382
-6.18753
-6.16677
-6.15369
-6.13688
-6.12625
-6.11255
-6.10389
-6.09274
-6.08571
-6.07671
-6.07109
-6.06398
-6.05966
-6.05438
-6.05138
-6.04799
-6.04574
-6.04262
-6.04067
-6.03825
-6.03693
-6.03563
-6.03526
-6.03554
-6.03652
-6.03912
-6.04218
-6.04849
-6.05504
-6.06788
-6.08122
-6.10769
-6.13774
-6.20205
-6.29208
-6.50522
-6.80364
-7.05814
-7.50331
-7.91012
-8.59929
-8.87131
-8.94886
-8.96853
-8.97306
-13.8346
-11.8593
-10.8712
-9.80681
-9.31672
-8.79012
-8.53962
-8.25388
-8.11822
-7.96369
-7.87109
-7.72602
-7.63908
-7.50599
-7.42699
-7.30713
-7.23618
-7.12882
-7.0654
-6.96968
-6.91331
-6.82851
-6.77873
-6.70409
-6.6603
-6.5946
-6.55543
-6.49526
-6.45493
-6.38353
-6.31798
-6.28693
-6.25014
-6.23031
-6.20308
-6.18785
-6.16619
-6.15396
-6.13641
-6.12647
-6.11217
-6.10407
-6.09242
-6.08586
-6.07645
-6.0712
-6.06377
-6.05973
-6.05421
-6.05141
-6.04791
-6.0458
-6.04253
-6.0407
-6.03816
-6.03693
-6.03556
-6.0352
-6.03548
-6.03639
-6.03908
-6.04193
-6.04846
-6.05456
-6.06782
-6.0802
-6.10735
-6.13505
-6.19984
-6.28243
-6.49853
-6.80665
-7.04353
-7.50564
-7.88897
-8.63136
-8.88695
-8.95364
-8.96979
-8.97345
-14.0525
-11.7651
-10.8717
-9.74505
-9.31589
-8.76043
-8.54102
-8.23785
-8.1191
-7.95732
-7.87609
-7.72026
-7.64347
-7.5006
-7.43084
-7.30225
-7.23961
-7.12443
-7.06844
-6.96574
-6.91597
-6.825
-6.78106
-6.701
-6.66235
-6.59195
-6.55746
-6.4934
-6.45812
-6.38287
-6.31426
-6.28726
-6.24836
-6.23095
-6.20185
-6.18842
-6.16523
-6.15444
-6.13563
-6.12687
-6.11153
-6.10439
-6.09191
-6.08611
-6.07603
-6.07139
-6.06343
-6.05985
-6.05393
-6.05146
-6.04776
-6.04591
-6.04238
-6.04076
-6.03802
-6.03693
-6.03544
-6.03513
-6.0354
-6.03619
-6.03904
-6.04153
-6.04844
-6.05378
-6.06779
-6.07859
-6.10698
-6.13088
-6.19692
-6.26744
-6.48815
-6.8125
-7.01991
-7.51112
-7.85345
-8.68289
-8.91015
-8.96044
-8.97156
-8.97397
-14.3618
-11.6151
-10.8816
-9.6554
-9.32012
-8.7173
-8.54578
-8.21445
-8.12169
-7.94773
-7.88407
-7.71133
-7.65049
-7.49229
-7.43705
-7.29474
-7.24515
-7.11767
-7.07335
-6.95969
-6.92029
-6.81961
-6.78483
-6.69626
-6.66568
-6.58788
-6.56066
-6.49038
-6.46292
-6.38194
-6.30889
-6.28807
-6.24573
-6.23206
-6.19999
-6.18939
-6.16378
-6.15525
-6.13446
-6.12752
-6.11058
-6.10492
-6.09112
-6.08654
-6.07539
-6.07172
-6.0629
-6.06007
-6.0535
-6.05156
-6.04755
-6.04609
-6.04215
-6.04087
-6.03782
-6.03695
-6.03528
-6.03502
-6.03529
-6.03591
-6.039
-6.04095
-6.04849
-6.05266
-6.06788
-6.07628
-6.1068
-6.12502
-6.19383
-6.24645
-6.47362
-6.82303
-6.98493
-7.52256
-7.79845
-8.75852
-8.94043
-8.9688
-8.97368
-8.9746
-14.781
-11.3846
-10.9111
-9.53012
-9.33505
-8.65691
-8.55692
-8.18151
-8.12753
-7.93373
-7.89641
-7.69793
-7.66141
-7.47986
-7.44675
-7.28351
-7.25379
-7.10758
-7.08103
-6.95066
-6.92706
-6.81159
-6.79075
-6.68919
-6.67089
-6.58178
-6.56559
-6.48566
-6.46985
-6.3807
-6.30142
-6.28973
-6.24195
-6.2339
-6.19728
-6.19096
-6.16164
-6.15654
-6.13273
-6.12858
-6.10917
-6.10578
-6.08997
-6.08723
-6.07445
-6.07225
-6.06214
-6.06044
-6.0529
-6.05174
-6.04723
-6.04636
-6.04182
-6.04105
-6.03753
-6.037
-6.03506
-6.0349
-6.03517
-6.03553
-6.03901
-6.04015
-6.04867
-6.0511
-6.06825
-6.07308
-6.1071
-6.11713
-6.19138
-6.21847
-6.45421
-6.84106
-6.93493
-7.54447
-7.71609
-8.86527
-8.97685
-8.97811
-8.97595
-8.97526
-15.3361
-11.0372
-10.9769
-9.35739
-9.3693
-8.57341
-8.57909
-8.1357
-8.13896
-7.91347
-7.91521
-7.67805
-7.67813
-7.46149
-7.46164
-7.26694
-7.2671
-7.09271
-7.09286
-6.93737
-6.9375
-6.79978
-6.79991
-6.6788
-6.67894
-6.57276
-6.57307
-6.47836
-6.47972
-6.37907
-6.29125
-6.29284
-6.23657
-6.23688
-6.19335
-6.19344
-6.15853
-6.15858
-6.13021
-6.13025
-6.10711
-6.10714
-6.0883
-6.08832
-6.07308
-6.0731
-6.06104
-6.06104
-6.05203
-6.05206
-6.04677
-6.04679
-6.04134
-6.04133
-6.03712
-6.03711
-6.03478
-6.03476
-6.03505
-6.03502
-6.03912
-6.03906
-6.04909
-6.04895
-6.06911
-6.06871
-6.10837
-6.10668
-6.19081
-6.18215
-6.42875
-6.87081
-6.8643
-7.58389
-7.59462
-9.01352
-9.01769
-8.98755
-8.97817
-8.9759
-16.0631
-10.5203
-11.1052
-9.11941
-9.43586
-8.45783
-8.61921
-8.07203
-8.15954
-7.88411
-7.94355
-7.64869
-7.70351
-7.43446
-7.48434
-7.24258
-7.28739
-7.07086
-7.11092
-6.91785
-6.95345
-6.78246
-6.81391
-6.66355
-6.69124
-6.55948
-6.58435
-6.46723
-6.49367
-6.37691
-6.27751
-6.29827
-6.22894
-6.24162
-6.18767
-6.19733
-6.15402
-6.16176
-6.12656
-6.13285
-6.10413
-6.10925
-6.08587
-6.09002
-6.07111
-6.07443
-6.05946
-6.06201
-6.05081
-6.05259
-6.04609
-6.04743
-6.04065
-6.04179
-6.03654
-6.03731
-6.0344
-6.03461
-6.03495
-6.03435
-6.03939
-6.03756
-6.04992
-6.04599
-6.0708
-6.06275
-6.11129
-6.0928
-6.19396
-6.13561
-6.39547
-6.91851
-6.76463
-7.65167
-7.41683
-9.21836
-9.0599
-8.99617
-8.9801
-8.97645
-17.0119
-9.75822
-11.3362
-8.78934
-9.5542
-8.29668
-8.68768
-7.98298
-8.19464
-7.84136
-7.98607
-7.60533
-7.74185
-7.39466
-7.51869
-7.20675
-7.31813
-7.03875
-7.1383
-6.88918
-6.97767
-6.75704
-6.83518
-6.64118
-6.70992
-6.53993
-6.60131
-6.45035
-6.51334
-6.37407
-6.25895
-6.30729
-6.21802
-6.24902
-6.17946
-6.20334
-6.14747
-6.16665
-6.12125
-6.13684
-6.0998
-6.11251
-6.08233
-6.09264
-6.06825
-6.07649
-6.05717
-6.06352
-6.04907
-6.05346
-6.0451
-6.0484
-6.03963
-6.0425
-6.03572
-6.03765
-6.03389
-6.03445
-6.03487
-6.03346
-6.03994
-6.0355
-6.05141
-6.04188
-6.0738
-6.05451
-6.11689
-6.07413
-6.20349
-6.07635
-6.35167
-6.99328
-6.62332
-7.76433
-7.15758
-9.50161
-9.09832
-9.00288
-8.98153
-8.97685
-18.2508
-8.6429
-11.7322
-8.3268
-9.75343
-8.0696
-8.79997
-7.85727
-8.25234
-7.7787
-8.04961
-7.54128
-7.79954
-7.33601
-7.57049
-7.15399
-7.36451
-6.99147
-7.17963
-6.84701
-7.01425
-6.71967
-6.86734
-6.60831
-6.73814
-6.51113
-6.62677
-6.42491
-6.54111
-6.37026
-6.23386
-6.32183
-6.20229
-6.26045
-6.1675
-6.21253
-6.13792
-6.17413
-6.11349
-6.14294
-6.09348
-6.11747
-6.07718
-6.09665
-6.06408
-6.07966
-6.05386
-6.06587
-6.04657
-6.05483
-6.04364
-6.04984
-6.03815
-6.0436
-6.03455
-6.03823
-6.03321
-6.0343
-6.03488
-6.03225
-6.04092
-6.03262
-6.05391
-6.03611
-6.07884
-6.04302
-6.1267
-6.04857
-6.22328
-6.00099
-6.29321
-7.10851
-6.42157
-7.94689
-6.7803
-9.89474
-9.12442
-9.00662
-8.9823
-8.97706
)
;

boundaryField
{
    F1_1
    {
        type            calculated;
        value           nonuniform List<scalar> 
80
(
18.9531
7.97439
11.9807
8.04194
9.87708
7.90573
8.86901
7.71577
8.28988
7.55235
7.90434
7.49044
7.75957
7.28784
7.55996
7.11121
7.36651
6.95415
7.18714
6.81459
7.02394
6.69157
6.87754
6.58403
6.74812
6.49017
6.63653
6.40658
6.55284
6.36536
6.21796
6.32834
6.19169
6.26548
6.15933
6.21657
6.13137
6.17743
6.10818
6.14564
6.08915
6.11968
6.07365
6.09843
6.06122
6.08105
6.05158
6.06686
6.04483
6.05533
6.04252
6.0504
6.03707
6.044
6.03369
6.03836
6.03268
6.03404
6.03479
6.03139
6.04145
6.03081
6.05539
6.03263
6.08192
6.03621
6.13282
6.03368
6.23627
5.95874
6.25966
7.17821
6.30274
8.0594
6.55671
10.1234
9.13305
9.0076
8.98248
8.9771
)
;
    }
    F1_2
    {
        type            calculated;
        value           nonuniform List<scalar> 
80
(
-19.3752
-7.89829
-12.4839
-7.03625
-9.79617
-6.14507
-8.06675
-5.33175
-6.76118
-4.70083
-5.70141
-4.44921
-5.25916
-3.83085
-4.64838
-3.30809
-4.06155
-2.8599
-3.53074
-2.47335
-3.06182
-2.1392
-2.65227
-1.8496
-2.29732
-1.59649
-1.99502
-1.3687
-1.77128
-1.25602
-0.833259
-1.1507
-0.746517
-0.967928
-0.641749
-0.820484
-0.54833
-0.697899
-0.467909
-0.594443
-0.399264
-0.506595
-0.340986
-0.431801
-0.291999
-0.368021
-0.251896
-0.313497