/*--------------------------------*- C++ -*----------------------------------*\
| =========                 |                                                 |
| \\      /  F ield         | OpenFOAM: The Open Source CFD Toolbox           |
|  \\    /   O peration     | Version:  5.x                                   |
|   \\  /    A nd           | Web:      www.OpenFOAM.org                      |
|    \\/     M anipulation  |                                                 |
\*---------------------------------------------------------------------------*/
FoamFile
{
    version     2.0;
    format      ascii;
    class       volScalarField;
    location    "5.1";
    object      gradTx;
}
// * * * * * * * * * * * * * * * * * * * * * * * * * * * * * * * * * * * * * //

dimensions      [0 -1 0 1 0 0 0];

internalField   nonuniform List<scalar> 
3200
(
45.2087
3.71218
1.64884
1.54029
0.814989
0.771397
0.466719
0.447261
0.293799
0.282693
0.17081
0.166667
0.180669
0.180819
0.173135
0.172294
0.159525
0.158409
0.144298
0.143117
0.128843
0.127674
0.113881
0.112786
0.100254
0.0993673
0.0901994
0.0901943
0.0951413
0.164876
0.0825661
0.0553108
0.0534817
0.0417285
0.040901
0.0333
0.032741
0.0270215
0.0265918
0.0220313
0.0216846
0.0179439
0.0176562
0.0145067
0.0142594
0.0114891
0.0112618
0.00859553
0.00835632
0.00522552
0.00509459
0.00509871
0.00505133
0.00398728
0.00387422
0.00222272
0.00205714
-0.000251616
-0.000489244
-0.00384991
-0.00421253
-0.00948189
-0.0100872
-0.0191615
-0.0203094
-0.0381646
-0.0408362
-0.0840121
-0.0929315
-0.238698
-0.617209
-0.436161
-0.681547
-0.712909
-1.26811
-1.2425
-0.055791
-0.0075288
-0.00152534
-52.9481
47.8935
3.10548
1.57741
1.3546
0.7741
0.681034
0.436315
0.394708
0.271763
0.248169
0.16031
0.151465
0.160963
0.161171
0.155198
0.153426
0.143354
0.140992
0.129825
0.12732
0.116017
0.113539
0.102619
0.100301
0.0904023
0.0885401
0.0814741
0.0816272
0.0884274
0.13747
0.0766615
0.051666
0.0475926
0.0380563
0.0362817
0.0302221
0.0290331
0.0244906
0.0235781
0.0199596
0.0192239
0.0162565
0.0156459
0.0131473
0.0126224
0.0104236
0.00994094
0.00782312
0.00731824
0.00487487
0.00459669
0.00455509
0.00445157
0.00361166
0.00337204
0.00206238
0.00171079
-0.000123792
-0.000628908
-0.00330305
-0.00407471
-0.00827524
-0.00956591
-0.0168249
-0.0192833
-0.0336818
-0.0394693
-0.0750378
-0.0949519
-0.22705
-0.517644
-0.414795
-0.601989
-0.666558
-1.08494
-1.03131
-0.121835
-0.0208961
-0.00438613
-54.744
50.5615
2.57665
1.45376
1.18322
0.713713
0.596737
0.397785
0.345408
0.245754
0.216216
0.146649
0.135528
0.141628
0.14177
0.137093
0.13489
0.126874
0.123927
0.115004
0.111876
0.102838
0.0997424
0.0910127
0.0881196
0.0802293
0.077921
0.0724601
0.0727942
0.0800237
0.114458
0.0693243
0.0471842
0.041922
0.0340736
0.0318338
0.0269494
0.0254593
0.0218144
0.0206726
0.0177726
0.0168523
0.0144748
0.0137111
0.011709
0.0110523
0.00928941
0.00868548
0.00698617
0.00635767
0.0044376
0.00408932
0.00401394
0.00388124
0.00321201
0.00291266
0.00186369
0.00142375
-4.91581e-05
-0.000681821
-0.0028323
-0.00379974
-0.00718499
-0.00880588
-0.0146804
-0.0177796
-0.0295435
-0.036911
-0.0666897
-0.0924849
-0.209061
-0.433817
-0.381829
-0.527336
-0.606055
-0.920656
-0.854348
-0.155538
-0.0308861
-0.00673079
-56.5398
53.2088
2.11339
1.29602
1.01979
0.639225
0.51572
0.353393
0.298
0.216939
0.185864
0.13065
0.118903
0.122531
0.122563
0.11889
0.116587
0.110191
0.1071
0.0999522
0.096668
0.0894207
0.0861708
0.0791731
0.0761378
0.069833
0.067428
0.0632142
0.0636854
0.0705319
0.094629
0.0610674
0.0420274
0.0363548
0.0298666
0.0274916
0.0235409
0.0219716
0.019038
0.0178375
0.0155064
0.014539
0.0126285
0.0118258
0.0102168
0.00952652
0.00810886
0.00747381
0.00610637
0.00544876
0.00393745
0.00357102
0.00347506
0.00333236
0.00279755
0.00248324
0.00164064
0.00117802
-8.14425e-06
-0.000674031
-0.00240888
-0.00342807
-0.00616532
-0.0078757
-0.0126469
-0.0159293
-0.0255811
-0.0334564
-0.0585009
-0.0863867
-0.186745
-0.36106
-0.340962
-0.455355
-0.536117
-0.771605
-0.702691
-0.166275
-0.0368564
-0.00833016
-58.3353
55.8347
1.70425
1.11663
0.860546
0.554455
0.436255
0.304724
0.251619
0.186125
0.156478
0.112912
0.101663
0.103578
0.103503
0.100631
0.0984477
0.0933768
0.0904365
0.0847457
0.0816185
0.0758438
0.0727492
0.0671751
0.0642866
0.0592808
0.0570074
0.0537809
0.0543215
0.06035
0.0771061
0.0522296
0.0363358
0.0308203
0.025495
0.0232125
0.0200371
0.0185386
0.0161924
0.0150476
0.0131856
0.0122635
0.0107379
0.00997282
0.00868783
0.00802979
0.00689698
0.00629143
0.00519817
0.00457397
0.00339149
0.00304189
0.00293804
0.00279916
0.00237425
0.00207494
0.00140237
0.000961212
1.20492e-05
-0.00062349
-0.0020141
-0.00298769
-0.00518674
-0.0068231
-0.0106729
-0.0138242
-0.0216897
-0.0293149
-0.0501986
-0.0773897
-0.161471
-0.296079
-0.294716
-0.384719
-0.45999
-0.63473
-0.569734
-0.160731
-0.038791
-0.00906129
-60.1306
58.4404
1.33879
0.923986
0.703297
0.462169
0.357323
0.252917
0.205733
0.153878
0.127649
0.0938817
0.0838969
0.0847053
0.0845554
0.0823452
0.0804238
0.0764769
0.0738827
0.0694365
0.066675
0.0621598
0.0594266
0.0550696
0.0525202
0.0486192
0.0466248
0.0441969
0.0447381
0.0497389
0.0612486
0.0430325
0.0302291
0.0252781
0.0210017
0.0189691
0.0164663
0.0151394
0.0132987
0.0122863
0.0108272
0.0100121
0.0088169
0.00814058
0.00713378
0.00655204
0.00566401
0.00512854
0.00427119
0.00372151
0.00281221
0.00250292
0.00240242
0.00227738
0.00194593
0.00168157
0.00115484
0.00076472
1.96895e-05
-0.000542755
-0.001636
-0.00249829
-0.00423066
-0.00568196
-0.00872687
-0.0115305
-0.017808
-0.0246432
-0.0416439
-0.0661171
-0.134176
-0.236537
-0.244815
-0.314672
-0.379884
-0.507444
-0.450537
-0.143706
-0.0370371
-0.00889927
-61.9256
61.0285
1.00756
0.723574
0.546866
0.364432
0.278374
0.198822
0.160033
0.120605
0.0991216
0.0739001
0.0656988
0.0658706
0.0656901
0.0640477
0.0624809
0.0595229
0.0574029
0.05406
0.0518016
0.0484045
0.0461691
0.0428918
0.0408079
0.0378814
0.0362596
0.0344941
0.0349763
0.0388676
0.0465801
0.0336189
0.0238083
0.019709
0.0164187
0.0147445
0.0128484
0.0117608
0.0103718
0.00954295
0.00844303
0.00777581
0.00687511
0.00632155
0.00556273
0.00508652
0.00441692
0.00397852
0.00333189
0.00288343
0.00220892
0.00195558
0.00186776
0.00176385
0.00151491
0.00129868
0.000901831
0.000582417
2.00197e-05
-0.000440794
-0.00126714
-0.00197409
-0.00328583
-0.00447709
-0.0067905
-0.00909793
-0.0139039
-0.0195648
-0.0327903
-0.053101
-0.105509
-0.180759
-0.192452
-0.244812
-0.297284
-0.387537
-0.341337
-0.118674
-0.032142
-0.00790184
-63.7202
63.6023
0.701992
0.518871
0.390665
0.262839
0.199165
0.143096
0.11436
0.0866145
0.0707434
0.0532377
0.0471657
0.0470499
0.0468833
0.0457471
0.0445937
0.0425354
0.0409721
0.0386401
0.0369738
0.0346027
0.0329532
0.0306662
0.0291292
0.0270914
0.0259001
0.0247015
0.0250782
0.0278433
0.0327385
0.0240793
0.017159
0.0141075
0.011771
0.0105288
0.0091981
0.00839419
0.00742251
0.0068104
0.00604154
0.0055489
0.00491943
0.00451071
0.00398036
0.00362873
0.00316057
0.00283682
0.00238466
0.00205438
0.00158877
0.00140163
0.00133375
0.00125612
0.00108257
0.000923006
0.000645722
0.000409828
1.62812e-05
-0.000324216
-0.000903065
-0.00142571
-0.00234583
-0.00322733
-0.00485437
-0.0065654
-0.00996562
-0.0141839
-0.0236533
-0.038801
-0.0759289
-0.127523
-0.138461
-0.174947
-0.213173
-0.273089
-0.239196
-0.0881962
-0.0247553
-0.00619188
-65.5147
66.1657
0.414223
0.311972
0.234447
0.158681
0.119651
0.0862765
0.0686468
0.0521491
0.0424307
0.032118
0.0283943
0.0282313
0.0281153
0.0274473
0.0267427
0.0255281
0.0245721
0.0231936
0.0221741
0.020772
0.0197628
0.0184107
0.0174706
0.0162675
0.015541
0.0148458
0.0150845
0.0167339
0.019439
0.0144701
0.010355
0.00847733
0.00707949
0.00631659
0.00552677
0.00503433
0.00445884
0.00408412
0.00362901
0.00332747
0.00295491
0.00270474
0.00239084
0.0021756
0.00189844
0.00170025
0.00143254
0.00123074
0.000957486
0.000842893
0.000800114
0.000752221
0.000649671
0.000552039
0.000387953
0.00024354
1.0417e-05
-0.000198107
-0.00054124
-0.000861429
-0.00140737
-0.00194775
-0.00291489
-0.0039653
-0.00599464
-0.00859287
-0.0142893
-0.0236218
-0.0457697
-0.0759132
-0.0834492
-0.105012
-0.128195
-0.162392
-0.141739
-0.0542164
-0.0155735
-0.00394051
-67.3089
68.7226
0.136923
0.104083
0.07816
0.0530532
0.0399111
0.0288274
0.0228885
0.0174124
0.0141417
0.0107347
0.00948057
0.00941081
0.00936938
0.00914887
0.00891202
0.00851043
0.00818889
0.0077327
0.00738975
0.00692567
0.00658617
0.00613864
0.00582243
0.00542455
0.00518054
0.00495272
0.00503438
0.00558218
0.00644655
0.00482676
0.00346141
0.00282802
0.00236261
0.00210547
0.00184354
0.00167778
0.00148714
0.00136104
0.00121033
0.00110886
0.000985494
0.000901318
0.000797367
0.000724943
0.000633149
0.000566458
0.000477793
0.000409949
0.00031985
0.000281284
0.000266684
0.000250504
0.000216572
0.000183727
0.000129395
8.07986e-05
3.56662e-06
-6.66159e-05
-0.000180334
-0.000288119
-0.000469136
-0.000651104
-0.000972069
-0.00132605
-0.00200091
-0.00287795
-0.00477973
-0.00793008
-0.0152906
-0.0252077
-0.027876
-0.0350123
-0.0427764
-0.0538901
-0.0469563
-0.0182815
-0.00531131
-0.00135169
-69.103
68.7156
0.150871
0.128422
0.107468
0.0852142
0.0726995
0.0607394
0.0533359
0.0448779
0.0387572
0.030999
0.0281864
0.0282975
0.0281944
0.027359
0.0264599
0.0249428
0.0237553
0.0221103
0.0209163
0.0193594
0.0182636
0.0168765
0.0159307
0.0147855
0.0141084
0.0135175
0.0138134
0.0154867
0.0180662
0.0136968
0.0100457
0.00836902
0.00715948
0.00649402
0.00581625
0.0053837
0.00488014
0.00454236
0.00413183
0.003851
0.00350323
0.00326174
0.0029575
0.00274078
0.00245903
0.00224706
0.0019545
0.00171975
0.00139883
0.00128649
0.00130388
0.00130545
0.00127263
0.0012341
0.00116646
0.00111248
0.00103639
0.00097993
0.000904285
0.000847661
0.0007698
0.000704445
0.000601441
0.000487331
0.000261084
-8.28776e-05
-0.000901553
-0.00244305
-0.00623617
-0.0118128
-0.0150956
-0.0220821
-0.0295179
-0.0404628
-0.036071
-0.0140967
-0.00410021
-0.00104386
-69.8074
66.1445
0.45598
0.385206
0.322457
0.255253
0.218076
0.182036
0.16005
0.13454
0.116337
0.0927992
0.0844424
0.0849012
0.0846125
0.0820795
0.0794044
0.0748153
0.0712842
0.066313
0.0627634
0.0580598
0.0548025
0.050612
0.0478
0.0443377
0.0423218
0.0405171
0.0413851
0.046424
0.0544765
0.0410616
0.0300581
0.0250884
0.0214567
0.0194826
0.017439
0.016154
0.0146338
0.01363
0.0123903
0.0115557
0.0105055
0.00978774
0.00886901
0.00822495
0.00737429
0.00674442
0.00586119
0.0051627
0.00418815
0.00385428
0.00391228
0.00391771
0.00381812
0.00370346
0.00349884
0.00333832
0.0031084
0.00294056
0.0027121
0.00254384
0.0023089
0.00211484
0.00180477
0.00146648
0.000787963
-0.00022964
-0.00267574
-0.00723907
-0.0186372
-0.0355302
-0.0451388
-0.0662283
-0.0884135
-0.122002
-0.108916
-0.0418111
-0.012023
-0.00304318
-69.4222
63.5659
0.771281
0.641669
0.537624
0.424091
0.363407
0.30277
0.266905
0.22391
0.19413
0.153992
0.140346
0.141535
0.14112
0.136806
0.132425
0.124645
0.118871
0.110459
0.104657
0.0967024
0.0913787
0.0842923
0.0796954
0.0738322
0.0705268
0.0674098
0.0687901
0.0772407
0.0917456
0.0683299
0.0498292
0.0417543
0.0356876
0.0324739
0.0290313
0.0269336
0.0243668
0.0227271
0.0206326
0.019269
0.0174944
0.0163218
0.0147696
0.0137174
0.0122807
0.0112519
0.0097605
0.0086167
0.00695185
0.00640642
0.00652279
0.0065342
0.00636423
0.00617643
0.00582947
0.00556695
0.00517794
0.00490363
0.00451751
0.00424269
0.00384638
0.00352989
0.00300924
0.00245925
0.00132842
-0.000319251
-0.00436523
-0.0117617
-0.0308183
-0.059539
-0.0747227
-0.110331
-0.146853
-0.205408
-0.183922
-0.0680327
-0.0191135
-0.00478208
-69.0368
60.9753
1.10385
0.897109
0.753171
0.590814
0.508737
0.422514
0.374045
0.312752
0.272338
0.214125
0.195656
0.198233
0.197784
0.191535
0.185583
0.174395
0.166563
0.1545
0.146636
0.13524
0.128025
0.117873
0.111641
0.103224
0.0987243
0.0941226
0.0959122
0.107815
0.130532
0.0954018
0.0691833
0.0583399
0.0498045
0.0454745
0.04057
0.0377321
0.0340628
0.0318424
0.0288457
0.0269988
0.0244593
0.0228711
0.0206501
0.0192253
0.0171709
0.015778
0.0136459
0.0120916
0.0096708
0.0089321
0.00913752
0.00915796
0.00891108
0.00865579
0.00815674
0.00780067
0.0072429
0.00687119
0.0063185
0.00594642
0.00538069
0.00495313
0.0042149
0.00347527
0.00188956
-0.000312909
-0.00592067
-0.0158179
-0.0426129
-0.0840891
-0.10349
-0.154396
-0.204411
-0.292015
-0.262704
-0.0915756
-0.0248205
-0.00610309
-68.6513
58.3682
1.46116
1.15004
0.969454
0.754327
0.654232
0.540747
0.481698
0.400758
0.351257
0.272669
0.250124
0.255051
0.25468
0.246252
0.238949
0.224011
0.214424
0.198374
0.188757
0.17361
0.16479
0.151297
0.143675
0.13246
0.126926
0.12058
0.12263
0.137958
0.171632
0.122117
0.0879226
0.0748332
0.0637533
0.0584981
0.052026
0.048564
0.043701
0.0409889
0.0370129
0.0347564
0.0313862
0.0294457
0.0264989
0.0247584
0.0220347
0.0203336
0.0175083
0.0156012
0.0123225
0.01142
0.0117597
0.0117925
0.0114583
0.0111449
0.0104783
0.0100425
0.00930046
0.00884602
0.00811229
0.00765793
0.0069095
0.00638882
0.00542065
0.00452517
0.00247541
-0.000170324
-0.00730449
-0.0191981
-0.0538202
-0.109522
-0.130996
-0.198498
-0.260465
-0.383299
-0.347159
-0.110943
-0.028606
-0.00687399
-68.2656
55.7408
1.85123
1.39774
1.18712
0.913238
0.800263
0.656803
0.590227
0.487507
0.43134
0.328971
0.303493
0.312082
0.311899
0.300924
0.292621
0.273413
0.262544
0.24199
0.231099
0.211727
0.201741
0.184487
0.175852
0.161468
0.15516
0.146702
0.148817
0.167366
0.216059
0.14822
0.105818
0.0912463
0.0774691
0.0715705
0.0633618
0.0594519
0.0532531
0.050186
0.0451114
0.0425586
0.038256
0.0360607
0.0322995
0.0303309
0.0268576
0.0249343
0.021334
0.0191656
0.0148792
0.0138584
0.0143942
0.0144417
0.0140047
0.0136483
0.0127907
0.0122966
0.0113466
0.0108321
0.00989495
0.00938124
0.00842924
0.00784245
0.00662352
0.00562127
0.00308513
0.000151836
-0.0084979
-0.0216691
-0.0641841
-0.136324
-0.156661
-0.24282
-0.314085
-0.480942
-0.439617
-0.124156
-0.0299672
-0.00699973
-67.8797
53.0901
2.28264
1.63574
1.40732
1.06571
0.947513
0.769784
0.700201
0.572394
0.513272
0.382197
0.355499
0.369464
0.369549
0.355489
0.34673
0.322482
0.311051
0.28522
0.27378
0.249469
0.238984
0.217331
0.20826
0.190154
0.183481
0.1724
0.174346
0.195569
0.265149
0.173306
0.1226
0.107628
0.0908699
0.0847355
0.0745257
0.0704315
0.0626801
0.0594635
0.0531092
0.0504309
0.0450417
0.0427384
0.0380285
0.0359636
0.0316186
0.0296022
0.0251025
0.0228149
0.0173053
0.0162344
0.0170482
0.0171103
0.016548
0.0161717
0.0150886
0.014569
0.0133753
0.0128351
0.0116607
0.0111221
0.00993441
0.00932141
0.00781777
0.00677877
0.00371079
0.000702702
-0.00951039
-0.0229663
-0.073363
-0.165199
-0.179694
-0.287739
-0.36388
-0.586913
-0.54304
-0.128518
-0.0284796
-0.00643552
-67.4936
50.4149
2.76455
1.85699
1.63204
1.20925
1.09714
0.878438
0.812505
0.654533
0.598081
0.431248
0.40588
0.427401
0.427765
0.409842
0.401458
0.371038
0.360135
0.327875
0.316976
0.286658
0.276673
0.249673
0.241029
0.218382
0.211977
0.197578
0.199105
0.221838
0.320695
0.196746
0.137953
0.124081
0.103846
0.0980636
0.0854451
0.0815576
0.0719259
0.0688666
0.06096
0.0584117
0.0517039
0.0495125
0.0436518
0.0416877
0.0362866
0.0343695
0.0287826
0.0265931
0.0195539
0.0185352
0.0197324
0.019804
0.0190839
0.0187234
0.0173641
0.0168684
0.0153779
0.0148635
0.0134011
0.012889
0.0114166
0.010836
0.00899348
0.00801748
0.0043341
0.00154182
-0.0103931
-0.0227858
-0.0808842
-0.197166
-0.198984
-0.333933
-0.4078
-0.703559
-0.661288
-0.1203
-0.0238721
-0.00520035
-67.1072
47.7159
3.30646
2.05094
1.86467
1.34036
1.25104
0.980982
0.92849
0.732612
0.687306
0.474641
0.454384
0.486184
0.486713
0.463814
0.457067
0.418813
0.410073
0.369675
0.36095
0.323034
0.315042
0.28128
0.274358
0.245961
0.240794
0.222119
0.223016
0.245062
0.385154
0.217581
0.151509
0.140789
0.116244
0.111665
0.0960155
0.0929135
0.0809089
0.0784637
0.0685966
0.066559
0.0581857
0.0564334
0.0491194
0.0475493
0.0408153
0.0392836
0.0323269
0.0305654
0.0215618
0.0207474
0.0224617
0.0225294
0.0216054
0.0213152
0.0196051
0.0192077
0.0173416
0.0169299
0.0151036
0.0146944
0.0128633
0.0124012
0.0101346
0.00936455
0.00492182
0.00274672
-0.0112574
-0.020777
-0.0860779
-0.233712
-0.212948
-0.38257
-0.442844
-0.833727
-0.799486
-0.0943005
-0.0161545
-0.00338906
-66.7207
44.9977
3.91779
2.20212
2.11083
1.45408
1.41216
1.07482
1.05021
0.804667
0.783225
0.510338
0.500806
0.546219
0.546597
0.51714
0.513937
0.465408
0.461277
0.410209
0.406091
0.358213
0.354443
0.311814
0.308547
0.272611
0.270152
0.245877
0.24608
0.263565
0.46192
0.234356
0.162851
0.15805
0.127844
0.12571
0.106084
0.104626
0.0895096
0.0883579
0.0759201
0.07496
0.0644028
0.063577
0.0543573
0.0536176
0.045136
0.0444149
0.0356635
0.0348274
0.0232422
0.0228585
0.0252569
0.0252945
0.0241018
0.0239638
0.0217936
0.0216058
0.0192472
0.019053
0.0167494
0.0165567
0.0142552
0.0140386
0.0112159
0.0108586
0.00541891
0.00442484
-0.0123011
-0.0165369
-0.0879781
-0.276994
-0.219297
-0.435581
-0.464664
-0.980899
-0.964521
-0.0432189
-0.00582155
-0.00117865
-66.3341
44.9977
3.91778
2.20212
2.11083
1.45408
1.41216
1.07482
1.05021
0.804668
0.783225
0.510338
0.500807
0.546219
0.546598
0.517141
0.513937
0.465408
0.461277
0.410209
0.406091
0.358214
0.354443
0.311815
0.308547
0.272611
0.270152
0.245878
0.246081
0.263566
0.461921
0.234356
0.162851
0.15805
0.127844
0.12571
0.106084
0.104626
0.0895099
0.0883582
0.0759204
0.0749602
0.064403
0.0635772
0.0543575
0.0536178
0.0451361
0.044415
0.0356636
0.0348275
0.0232423
0.0228585
0.025257
0.0252946
0.0241019
0.0239639
0.0217937
0.0216059
0.0192473
0.0190531
0.0167495
0.0165568
0.0142553
0.0140387
0.011216
0.0108587
0.00541895
0.00442487
-0.0123012
-0.016537
-0.0879789
-0.276996
-0.219299
-0.435584
-0.464667
-0.980901
-0.964523
-0.043219
-0.00582156
-0.00117864
-66.334
47.7159
3.30646
2.05094
1.86467
1.34036
1.25104
0.980982
0.92849
0.732612
0.687306
0.474641
0.454384
0.486185
0.486713
0.463815
0.457067
0.418813
0.410073
0.369675
0.36095
0.323034
0.315043
0.281281
0.274359
0.245962
0.240795
0.22212
0.223016
0.245063
0.385155
0.217582
0.151509
0.140789
0.116244
0.111666
0.0960158
0.0929138
0.0809091
0.078464
0.0685968
0.0665593
0.0581859
0.0564336
0.0491196
0.0475495
0.0408154
0.0392838
0.032327
0.0305655
0.0215619
0.0207474
0.0224618
0.0225295
0.0216056
0.0213153
0.0196052
0.0192078
0.0173417
0.01693
0.0151037
0.0146945
0.0128634
0.0124013
0.0101347
0.00936463
0.00492187
0.00274674
-0.0112575
-0.0207772
-0.0860786
-0.233714
-0.21295
-0.382572
-0.442847
-0.833729
-0.799488
-0.0943007
-0.0161545
-0.00338905
-66.7207
50.4148
2.76454
1.85699
1.63204
1.20925
1.09714
0.878438
0.812505
0.654533
0.598081
0.431249
0.40588
0.427401
0.427765
0.409843
0.401458
0.371038
0.360135
0.327875
0.316977
0.286659
0.276673
0.249673
0.241029
0.218383
0.211978
0.197578
0.199105
0.221839
0.320696
0.196747
0.137953
0.124081
0.103846
0.0980639
0.0854454
0.0815578
0.0719261
0.0688668
0.0609602
0.0584119
0.0517041
0.0495127
0.043652
0.0416878
0.0362867
0.0343696
0.0287827
0.0265932
0.019554
0.0185353
0.0197325
0.0198041
0.019084
0.0187235
0.0173642
0.0168685
0.015378
0.0148636
0.0134012
0.0128891
0.0114167
0.0108361
0.00899356
0.00801756
0.00433414
0.00154184
-0.0103932
-0.0227861
-0.0808849
-0.197168
-0.198985
-0.333935
-0.407802
-0.703561
-0.66129
-0.120301
-0.0238722
-0.00520034
-67.1072
53.0901
2.28264
1.63574
1.40731
1.06571
0.947513
0.769784
0.700201
0.572394
0.513272
0.382197
0.3555
0.369464
0.369549
0.355489
0.34673
0.322482
0.311051
0.285221
0.27378
0.249469
0.238984
0.217332
0.20826
0.190154
0.183481
0.172401
0.174347
0.19557
0.265149
0.173307
0.1226
0.107628
0.0908702
0.0847357
0.0745259
0.0704318
0.0626804
0.0594637
0.0531094
0.0504311
0.0450418
0.0427386
0.0380287
0.0359638
0.0316187
0.0296023
0.0251026
0.022815
0.0173054
0.0162345
0.0170483
0.0171104
0.0165481
0.0161718
0.0150887
0.0145691
0.0133754
0.0128352
0.0116608
0.0111222
0.00993449
0.00932149
0.00781784
0.00677883
0.00371082
0.000702708
-0.00951049
-0.0229666
-0.0733637
-0.1652
-0.179695
-0.28774
-0.363882
-0.586914
-0.543041
-0.128518
-0.0284796
-0.00643551
-67.4936
55.7407
1.85123
1.39774
1.18712
0.913238
0.800263
0.656803
0.590227
0.487507
0.431341
0.328971
0.303493
0.312082
0.311899
0.300924
0.292621
0.273413
0.262544
0.241991
0.231099
0.211727
0.201741
0.184487
0.175853
0.161469
0.15516
0.146702
0.148817
0.167367
0.21606
0.148221
0.105818
0.0912466
0.0774693
0.0715708
0.063362
0.0594521
0.0532533
0.0501862
0.0451116
0.0425587
0.0382562
0.0360608
0.0322997
0.030331
0.0268577
0.0249344
0.0213341
0.0191657
0.0148793
0.0138584
0.0143942
0.0144417
0.0140048
0.0136483
0.0127908
0.0122967
0.0113466
0.0108321
0.00989502
0.00938131
0.00842931
0.00784252
0.00662358
0.00562132
0.00308516
0.000151834
-0.00849799
-0.0216693
-0.0641847
-0.136326
-0.156662
-0.242822
-0.314086
-0.480944
-0.439618
-0.124156
-0.0299673
-0.00699973
-67.8797
58.3682
1.46116
1.15004
0.969454
0.754327
0.654232
0.540747
0.481698
0.400758
0.351258
0.272669
0.250124
0.255052
0.254681
0.246252
0.238949
0.224011
0.214424
0.198374
0.188757
0.17361
0.16479
0.151297
0.143675
0.13246
0.126926
0.12058
0.12263
0.137958
0.171632
0.122118
0.0879228
0.0748334
0.0637534
0.0584983
0.0520262
0.0485641
0.0437011
0.040989
0.0370131
0.0347565
0.0313864
0.0294458
0.026499
0.0247585
0.0220348
0.0203337
0.0175084
0.0156012
0.0123225
0.0114201
0.0117597
0.0117925
0.0114584
0.011145
0.0104784
0.0100425
0.00930052
0.00884609
0.00811235
0.00765799
0.00690956
0.00638887
0.00542069
0.00452521
0.00247543
-0.000170332
-0.00730457
-0.0191983
-0.0538207
-0.109523
-0.130997
-0.198499
-0.260466
-0.383301
-0.34716
-0.110944
-0.028606
-0.006874
-68.2656
60.9753
1.10385
0.897109
0.753171
0.590814
0.508737
0.422514
0.374045
0.312752
0.272338
0.214125
0.195656
0.198233
0.197784
0.191535
0.185583
0.174396
0.166563
0.1545
0.146636
0.13524
0.128026
0.117873
0.111642
0.103225
0.0987245
0.0941228
0.0959124
0.107816
0.130532
0.0954021
0.0691835
0.05834
0.0498047
0.0454746
0.0405701
0.0377323
0.034063
0.0318425
0.0288458
0.0269989
0.0244594
0.0228712
0.0206502
0.0192253
0.017171
0.0157781
0.013646
0.0120916
0.00967084
0.00893213
0.00913755
0.009158
0.00891112
0.00865584
0.00815679
0.00780071
0.00724295
0.00687124
0.00631855
0.00594647
0.00538073
0.00495317
0.00421494
0.0034753
0.00188958
-0.000312919
-0.00592073
-0.015818
-0.0426133
-0.0840898
-0.10349
-0.154397
-0.204412
-0.292016
-0.262705
-0.0915758
-0.0248205
-0.0061031
-68.6513
63.5659
0.77128
0.641669
0.537624
0.424091
0.363407
0.30277
0.266905
0.22391
0.19413
0.153992
0.140346
0.141535
0.141121
0.136806
0.132426
0.124646
0.118871
0.110459
0.104657
0.0967025
0.0913788
0.0842924
0.0796955
0.0738323
0.0705269
0.0674099
0.0687902
0.0772409
0.0917458
0.0683302
0.0498293
0.0417544
0.0356877
0.032474
0.0290314
0.0269337
0.0243669
0.0227272
0.0206327
0.0192691
0.0174945
0.0163219
0.0147696
0.0137175
0.0122808
0.011252
0.00976054
0.00861674
0.00695188
0.00640644
0.00652281
0.00653422
0.00636426
0.00617646
0.0058295
0.00556698
0.00517797
0.00490366
0.00451755
0.00424272
0.00384641
0.00352992
0.00300926
0.00245927
0.00132842
-0.000319262
-0.00436528
-0.0117618
-0.0308186
-0.0595395
-0.0747232
-0.110331
-0.146853
-0.205408
-0.183923
-0.0680329
-0.0191136
-0.00478209
-69.0368
66.1445
0.455979
0.385206
0.322457
0.255253
0.218076
0.182036
0.16005
0.13454
0.116337
0.0927992
0.0844424
0.0849013
0.0846126
0.0820796
0.0794044
0.0748153
0.0712842
0.066313
0.0627634
0.0580599
0.0548025
0.050612
0.0478
0.0443378
0.0423219
0.0405171
0.0413852
0.0464241
0.0544766
0.0410617
0.0300582
0.0250885
0.0214568
0.0194826
0.017439
0.016154
0.0146339
0.01363
0.0123904
0.0115557
0.0105055
0.00978777
0.00886904
0.00822498
0.00737432
0.00674445
0.00586121
0.00516272
0.00418816
0.0038543
0.00391229
0.00391773
0.00381814
0.00370347
0.00349886
0.00333834
0.00310842
0.00294058
0.00271212
0.00254385
0.00230892
0.00211486
0.00180478
0.00146649
0.000787966
-0.000229648
-0.00267578
-0.00723916
-0.0186374
-0.0355305
-0.0451391
-0.0662287
-0.0884138
-0.122002
-0.108916
-0.0418112
-0.0120231
-0.00304319
-69.4222
68.7156
0.15087
0.128422
0.107468
0.0852142
0.0726995
0.0607394
0.0533359
0.0448779
0.0387572
0.030999
0.0281864
0.0282976
0.0281944
0.027359
0.0264599
0.0249428
0.0237553
0.0221104
0.0209163
0.0193594
0.0182636
0.0168766
0.0159307
0.0147855
0.0141084
0.0135175
0.0138134
0.0154868
0.0180662
0.0136968
0.0100457
0.00836904
0.0071595
0.00649404
0.00581627
0.00538372
0.00488016
0.00454237
0.00413185
0.00385101
0.00350325
0.00326175
0.00295751
0.00274079
0.00245903
0.00224707
0.00195451
0.00171976
0.00139883
0.00128649
0.00130388
0.00130545
0.00127263
0.0012341
0.00116647
0.00111248
0.0010364
0.000979936
0.000904291
0.000847666
0.000769805
0.000704449
0.000601445
0.000487334
0.000261084
-8.28809e-05
-0.000901565
-0.00244308
-0.00623624
-0.0118129
-0.0150958
-0.0220822
-0.0295181
-0.0404629
-0.036071
-0.0140968
-0.00410022
-0.00104386
-69.8074
68.7222
0.136755
0.103805
0.0777669
0.0524462
0.0390555
0.0275032
0.0210889
0.0150014
0.0125837
0.0119215
0.0115714
0.0110182
0.0105802
0.00996658
0.00952087
0.00893893
0.00852122
0.00797842
0.00758775
0.00707854
0.0067134
0.00624058
0.00590964
0.00549682
0.0052442
0.00500813
0.00508696
0.00563609
0.00650598
0.00486972
0.00349081
0.00285119
0.00238132
0.00212179
0.00185752
0.00169033
0.0014981
0.00137098
0.00121906
0.00111681
0.000992503
0.000907699
0.000802987
0.000730042
0.000637601
0.000570448
0.000481178
0.000412876
0.000322175
0.000283382
0.000268767
0.00025256
0.000218536
0.000185603
0.000131131
8.24281e-05
5.05132e-06
-6.52347e-05
-0.000179086
-0.000286964
-0.000468097
-0.000650144
-0.000971208
-0.00132525
-0.0020002
-0.00287729
-0.00477912
-0.00792947
-0.01529
-0.025207
-0.0278754
-0.0350119
-0.042776
-0.0538898
-0.0469561
-0.0182814
-0.00531128
-0.00135165
-69.103
66.1644
0.413721
0.311138
0.233272
0.156861
0.117093
0.082304
0.0632536
0.0448575
0.0376809
0.035752
0.0347222
0.03305
0.0317476
0.029893
0.0285681
0.0268102
0.0255687
0.0239292
0.022768
0.0212299
0.0201445
0.0187161
0.0177322
0.016484
0.0157319
0.0150118
0.0152421
0.0168954
0.0196182
0.0145989
0.0104429
0.00854679
0.00713555
0.00636555
0.00556869
0.00507199
0.0044917
0.00411392
0.0036552
0.00335131
0.00297593
0.00272389
0.00240769
0.00219091
0.00191179
0.00171223
0.0014427
0.00123952
0.000964448
0.000849179
0.000806363
0.000758391
0.000655565
0.000557671
0.000393161
0.00024843
1.48696e-05
-0.000193962
-0.000537496
-0.000857961
-0.00140425
-0.00194487
-0.0029123
-0.00396292
-0.0059925
-0.00859087
-0.0142874
-0.02362
-0.0457676
-0.0759108
-0.0834474
-0.105011
-0.128194
-0.162391
-0.141738
-0.0542161
-0.0155734
-0.0039404
-67.3089
63.6002
0.701158
0.517482
0.388719
0.259811
0.194932
0.136475
0.105392
0.0742648
0.0625682
0.0595465
0.0578988
0.055067
0.0529371
0.0497983
0.0476326
0.0446608
0.042632
0.0398608
0.0379633
0.0353631
0.0335893
0.0311738
0.0295653
0.0274514
0.0262184
0.0249774
0.0253403
0.028112
0.0330401
0.0242935
0.0173045
0.014223
0.0118641
0.0106104
0.00926784
0.00845699
0.00747719
0.00686009
0.00608514
0.00558868
0.00495442
0.00454265
0.00400841
0.00365426
0.0031828
0.0028568
0.00240156
0.00206904
0.00160033
0.00141207
0.00134416
0.00126641
0.00109239
0.0009324
0.000654398
0.000417984
2.36966e-05
-0.000317303
-0.000896831
-0.00141993
-0.00234064
-0.00322253
-0.00485007
-0.00656142
-0.00996206
-0.0141805
-0.0236503
-0.0387979
-0.0759255
-0.127519
-0.138458
-0.174944
-0.213172
-0.273087
-0.239194
-0.0881957
-0.0247552
-0.00619171
-65.5147
61.0256
1.0064
0.72163
0.544171
0.360199
0.272513
0.189552
0.147532
0.102895
0.0871084
0.0832861
0.0811227
0.077056
0.0741669
0.0696646
0.0667294
0.0624738
0.0597251
0.0557574
0.0531867
0.0494632
0.0470598
0.0435992
0.0414187
0.0383836
0.0367052
0.0348789
0.0353421
0.0392423
0.047009
0.0339178
0.0240098
0.0198703
0.0165485
0.0148588
0.0129457
0.0118487
0.0104482
0.00961258
0.00850394
0.00783154
0.006924
0.0063663
0.00560193
0.0051223
0.00444798
0.00400654
0.0033555
0.00290401
0.00222498
0.00197015
0.00188235
0.00177828
0.00152866
0.00131185
0.000913967
0.000593847
3.03884e-05
-0.000431107
-0.00125843
-0.00196599
-0.00327858
-0.00447036
-0.00678449
-0.00909236
-0.0138989
-0.0195601
-0.032786
-0.0530967
-0.105505
-0.180753
-0.192448
-0.244809
-0.297282
-0.387535
-0.341335
-0.118673
-0.0321418
-0.00790165
-63.7202
58.4367
1.33731
0.921486
0.699884
0.456736
0.349906
0.24099
0.189777
0.130371
0.11117
0.106959
0.104423
0.0989978
0.0954613
0.0894683
0.0858789
0.0802264
0.076867
0.0715982
0.0684563
0.0635106
0.0605726
0.0559734
0.0533062
0.0492614
0.0471979
0.0446888
0.0452064
0.050218
0.0618121
0.0434148
0.0304844
0.0254849
0.0211676
0.0191161
0.016591
0.0152526
0.0133966
0.012376
0.0109053
0.0100838
0.00887958
0.00819821
0.00718404
0.00659812
0.00570383
0.00516466
0.00430146
0.00374806
0.00283266
0.00252154
0.00242119
0.00229597
0.0019636
0.00169853
0.00117042
0.000779439
3.29963e-05
-0.000530282
-0.00162482
-0.00248786
-0.00422136
-0.0056733
-0.00871917
-0.0115234
-0.0178016
-0.0246372
-0.0416384
-0.0661116
-0.13417
-0.23653
-0.24481
-0.314669
-0.379881
-0.507441
-0.450535
-0.143705
-0.0370369
-0.00889908
-61.9255
55.8302
1.70245
1.11357
0.856459
0.54782
0.427381
0.290121
0.23235
0.156239
0.134632
0.130566
0.127838
0.120864
0.116854
0.109176
0.105111
0.0978873
0.0940852
0.087354
0.083798
0.0774776
0.0741519
0.0682703
0.0652488
0.06006
0.0577084
0.0543776
0.054891
0.0609303
0.077815
0.052693
0.0366418
0.0310721
0.025696
0.0233923
0.0201887
0.0186772
0.0163115
0.0151574
0.0132806
0.0123514
0.0108142
0.0100434
0.00874902
0.00808626
0.00694547
0.00633572
0.00523501
0.00460659
0.00341616
0.00306449
0.00296101
0.00282193
0.00239584
0.00209572
0.00142138
0.000979242
2.82707e-05
-0.000608213
-0.00200047
-0.00297491
-0.0051754
-0.00681249
-0.0106635
-0.0138154
-0.0216819
-0.0293076
-0.0501918
-0.077383
-0.161464
-0.29607
-0.29471
-0.384714
-0.459986
-0.634726
-0.569731
-0.160731
-0.0387907
-0.00906112
-60.1306
53.2036
2.1113
1.29239
1.0151
0.631376
0.50553
0.336072
0.275656
0.179926
0.157393
0.154118
0.151424
0.142612
0.138393
0.128739
0.12447
0.115411
0.111421
0.102983
0.0992502
0.0913249
0.0878334
0.0804528
0.0772782
0.0707451
0.068258
0.0639127
0.0643545