/*--------------------------------*- C++ -*----------------------------------*\
| =========                 |                                                 |
| \\      /  F ield         | OpenFOAM: The Open Source CFD Toolbox           |
|  \\    /   O peration     | Version:  5.x                                   |
|   \\  /    A nd           | Web:      www.OpenFOAM.org                      |
|    \\/     M anipulation  |                                                 |
\*---------------------------------------------------------------------------*/
FoamFile
{
    version     2.0;
    format      ascii;
    class       volScalarField;
    location    "11.2";
    object      gradTx;
}
// * * * * * * * * * * * * * * * * * * * * * * * * * * * * * * * * * * * * * //

dimensions      [0 -1 0 1 0 0 0];

internalField   nonuniform List<scalar> 
2048
(
0.00630499
0.0187345
0.030639
0.0417206
0.0517503
0.0605789
0.068136
0.0744194
0.0794787
0.0833968
0.0862735
0.0882132
0.0893177
0.0896839
0.0894042
0.0885679
0.0872616
0.085569
0.0835679
0.0813266
0.0789012
0.0763321
0.0736442
0.0708478
0.0679405
0.0649102
0.0617374
0.0583965
0.0548567
0.0510822
0.0470325
0.0426642
0.037932
0.0327915
0.0272006
0.0211219
0.0145231
0.00737797
-0.000333047
-0.00862163
-0.0174893
-0.0269239
-0.0368938
-0.0473418
-0.0581764
-0.0692627
-0.0804136
-0.091382
-0.101857
-0.111465
-0.119783
-0.12636
-0.130754
-0.132571
-0.131513
-0.127417
-0.120278
-0.110248
-0.0976161
-0.0827656
-0.06613
-0.0481506
-0.0292471
-0.00980746
0.0187886
0.0558185
0.0912576
0.124207
0.153981
0.180139
0.202482
0.221016
0.235904
0.247405
0.255823
0.261472
0.264657
0.265664
0.264763
0.262219
0.258288
0.25322
0.247247
0.240576
0.233372
0.225756
0.217802
0.209537
0.200952
0.19201
0.182651
0.1728
0.162365
0.15124
0.139304
0.126428
0.112475
0.0973127
0.0808158
0.0628722
0.043386
0.0222793
-0.00050689
-0.0250089
-0.0512343
-0.0791512
-0.108673
-0.139635
-0.171777
-0.204705
-0.237875
-0.270558
-0.301832
-0.330586
-0.355549
-0.375361
-0.388676
-0.394292
-0.391299
-0.379195
-0.357964
-0.328076
-0.290414
-0.246153
-0.19661
-0.14311
-0.0869057
-0.0291384
0.0311403
0.092484
0.151108
0.205488
0.254476
0.297357
0.333832
0.363959
0.388051
0.406571
0.42005
0.429019
0.433977
0.43539
0.433696
0.429324
0.422695
0.414223
0.404297
0.393263
0.381398
0.368902
0.35589
0.342402
0.328416
0.313866
0.298649
0.282642
0.265694
0.24763
0.228252
0.207342
0.184673
0.160022
0.13318
0.103963
0.0722122
0.037799
0.000624565
-0.0393759
-0.0822241
-0.127881
-0.176222
-0.227001
-0.279813
-0.334043
-0.388818
-0.442963
-0.494969
-0.542992
-0.584901
-0.618388
-0.64114
-0.651079
-0.646614
-0.626866
-0.591805
-0.542256
-0.479772
-0.406392
-0.324375
-0.235963
-0.143225
-0.0480095
0.0436001
0.129427
0.211277
0.286943
0.354801
0.413878
0.46383
0.504826
0.537396
0.562264
0.580216
0.592012
0.598344
0.599841
0.597095
0.590683
0.581188
0.569191
0.555246
0.539847
0.523387
0.506144
0.488268
0.469801
0.450697
0.430852
0.410122
0.388331
0.365276
0.340715
0.314369
0.285933
0.255083
0.221503
0.184898
0.145009
0.101619
0.0545496
0.00366105
-0.0511452
-0.109916
-0.172624
-0.23913
-0.309141
-0.382144
-0.457347
-0.533595
-0.609308
-0.682413
-0.750337
-0.810049
-0.85821
-0.891425
-0.906599
-0.901335
-0.874297
-0.825438
-0.756018
-0.668385
-0.565596
-0.450976
-0.327747
-0.198794
-0.0666111
0.0563836
0.167271
0.272725
0.369776
0.456291
0.531075
0.593806
0.644863
0.685082
0.715522
0.737271
0.751332
0.75858
0.759786
0.755665
0.746934
0.734331
0.718613
0.700514
0.68069
0.659663
0.637784
0.615231
0.592031
0.5681
0.543283
0.517389
0.490199
0.461455
0.430856
0.398043
0.362614
0.324142
0.282208
0.23643
0.186475
0.132067
0.0729828
0.00904242
-0.0598925
-0.133907
-0.213007
-0.297071
-0.385795
-0.47861
-0.574596
-0.672381
-0.770026
-0.864938
-0.953808
-1.03266
-1.097
-1.14217
-1.16387
-1.15869
-1.12471
-1.06186
-0.97195
-0.858335
-0.72532
-0.577486
-0.419137
-0.253976
-0.0850566
0.0696957
0.206601
0.336346
0.455079
0.560129
0.650118
0.724851
0.785043
0.831964
0.867103
0.891905
0.907626
0.915304
0.915815
0.909968
0.898592
0.882579
0.862878
0.840427
0.816071
0.790471
0.764056
0.737016
0.709339
0.68088
0.65142
0.620716
0.588508
0.554501
0.518335
0.479571
0.4377
0.392181
0.342482
0.288124
0.228701
0.163887
0.0934183
0.0170768
-0.0653194
-0.153908
-0.248753
-0.349784
-0.456731
-0.569022
-0.685678
-0.805177
-0.925298
-1.04297
-1.15418
-1.25392
-1.33642
-1.39554
-1.42544
-1.42144
-1.38086
-1.30359
-1.19215
-1.0512
-0.886629
-0.704545
-0.510469
-0.308919
-0.103386
0.0837405
0.248
0.403008
0.543889
0.667391
0.772023
0.857856
0.926112
0.978655
1.01752
1.04458
1.06134
1.06896
1.06838
1.06045
1.04607
1.02629
1.00229
0.97523
0.946189
0.91599
0.885137
0.853812
0.821931
0.789256
0.755485
0.720319
0.683471
0.64462
0.603363
0.559175
0.511432
0.459456
0.402585
0.340235
0.271932
0.197306
0.116066
0.0279618
-0.067234
-0.169727
-0.279663
-0.397064
-0.521737
-0.653171
-0.790399
-0.931836
-1.07507
-1.21665
-1.35185
-1.47462
-1.57774
-1.65328
-1.6935
-1.69205
-1.64523
-1.55282
-1.41832
-1.24812
-1.05015
-0.832391
-0.60176
-0.363566
-0.121568
0.0987297
0.292062
0.473588
0.63722
0.779089
0.897688
0.993545
1.06861
1.12554
1.16708
1.19556
1.21275
1.21987
1.21784
1.20746
1.18971
1.16577
1.13708
1.1051
1.07118
1.03634
1.00115
0.965768
0.929984
0.893423
0.855673
0.81638
0.775248
0.731962
0.686088
0.637018
0.583987
0.526155
0.462708
0.392947
0.31633
0.232463
0.141042
0.0418003
-0.065536
-0.181254
-0.305612
-0.438758
-0.580632
-0.730838
-0.888505
-1.05209
-1.2191
-1.38581
-1.54688
-1.69518
-1.82186
-1.91683
-1.96998
-1.97277
-1.92007
-1.81152
-1.65188
-1.44986
-1.21608
-0.960872
-0.692715
-0.417663
-0.139506
0.114889
0.339418
0.548996
0.736093
0.896194
1.02792
1.1325
1.2129
1.27282
1.31587
1.34493
1.36198
1.36823
1.36445
1.35132
1.32979
1.30126
1.26742
1.23014
1.19111
1.15157
1.11218
1.073
1.03366
0.99356
0.952163
0.909054
0.863964
0.816628
0.76661
0.713208
0.655492
0.592419
0.522993
0.446384
0.361993
0.269421
0.168383
0.0586132
-0.0602058
-0.188456
-0.326539
-0.47477
-0.633266
-0.801809
-0.979704
-1.16556
-1.35697
-1.55006
-1.73903
-1.91567
-2.06931
-2.18734
-2.25664
-2.26576
-2.20759
-2.0815
-1.89395
-1.65682
-1.38424
-1.08946
-0.782743
-0.470768
-0.157038
0.132465
0.390751
0.630197
0.841561
1.01965
1.16343
1.27515
1.35915
1.42049
1.46381
1.49262
1.50906
1.51417
1.50842
1.49227
1.46659
1.43296
1.39346
1.35043
1.30599
1.2617
1.21828
1.17562
1.13309
1.08984
1.04512
0.998475
0.949709
0.898676
0.844978
0.787811
0.726035
0.658356
0.583547
0.500631
0.408967
0.308187
0.198061
0.07835
-0.0512949
-0.191368
-0.342446
-0.505057
-0.679535
-0.865894
-1.0637
-1.27183
-1.48812
-1.7088
-1.92775
-2.13581
-2.32034
-2.46574
-2.5551
-2.57315
-2.51
-2.36453
-2.1455
-1.86906
-1.55403
-1.21725
-0.87096
-0.522261
-0.173942
0.151728
0.446807
0.718232
0.954722
1.15041
1.30486
1.42182
1.50739
1.56835
1.61064
1.63842
1.65389
1.65774
1.64995
1.63058
1.60036
1.56106
1.51529
1.46598
1.41581
1.3667
1.31944
1.2737
1.22845
1.18246
1.13473
1.08477
1.03254
0.978122
0.9212
0.860856
0.795676
0.724045
0.64445
0.555741
0.457257
0.348713
0.229984
0.100897
-0.0389175
-0.190083
-0.353393
-0.52963
-0.719387
-0.922946
-1.14019
-1.37043
-1.61191
-1.86123
-2.11226
-2.35503
-2.57487
-2.75269
-2.86689
-2.89713
-2.82963
-2.66239
-2.40727
-2.0863
-1.72444
-1.34296
-0.956211
-0.571362
-0.189946
0.172984
0.508411
0.814232
1.07673
1.28939
1.45279
1.57268
1.65748
1.71607
1.75596
1.78202
1.79632
1.79896
1.78921
1.76651
1.73134
1.68576
1.633
1.57676
1.52046
1.46648
1.41567
1.36733
1.31989
1.27162
1.22118
1.16805
1.11249
1.05494
0.995247
0.932342
0.864453
0.789555
0.705771
0.611747
0.506836
0.390911
0.264013
0.126085
-0.0232431
-0.184747
-0.359489
-0.548558
-0.752828
-0.972873
-1.20896
-1.46091
-1.72765
-2.00642
-2.29149
-2.57241
-2.83248
-3.0486
-3.19343
-3.24
-3.16901
-2.97694
-2.67985
-2.30787
-1.89403
-1.46496
-1.03709
-0.617154
-0.204734
0.196569
0.576477
0.919431
1.20882
1.43753
1.6077
1.72781
1.8091
1.86311
1.8992
1.92298
1.93613
1.93784
1.92639
1.90034
1.85982
1.80722
1.74664
1.68271
1.61981
1.56093
1.50692
1.45659
1.40759
1.35754
1.30468
1.24845
1.18956
1.12906
1.06705
1.00224
0.93239
0.854947
0.767577
0.668669
0.557654
0.434655
0.299964
0.153697
-0.00448945
-0.175552
-0.360889
-0.561956
-0.779928
-1.01566
-1.26981
-1.54286
-1.8346
-2.14331
-2.46417
-2.78673
-3.09241
-3.35363
-3.53607
-3.60423
-3.53099
-3.31022
-2.96368
-2.5327
-2.0609
-1.58125
-1.11198
-0.65862
-0.217962
0.222865
0.652017
1.03518
1.35229
1.59573
1.77001
1.88712
1.96182
2.00878
2.03967
2.06077
2.07306
2.07436
2.06169
2.03242
1.98609
1.92563
1.85625
1.78375
1.71368
1.64986
1.59315
1.54156
1.49174
1.4405
1.38549
1.32608
1.26372
1.20036
1.1365
1.07052
0.999503
0.920288
0.829943
0.726527
0.609637
0.479793
0.337616
0.183472
0.0170847
-0.162722
-0.35778
-0.569989
-0.800823
-1.05136
-1.32265
-1.61593
-1.93208
-2.27078
-2.62881
-2.99646
-3.35354
-3.66759
-3.89604
-3.99252
-3.91886
-3.66448
-3.25897
-2.75924
-2.22271
-1.68951
-1.1791
-0.694679
-0.229274
0.252297
0.736146
1.16294
1.50855
1.76491
1.93999
2.05044
2.11502
2.15223
2.17652
2.19482
2.20684
2.20853
2.19536
2.16314
2.11049
2.04117
1.96187
1.87974
1.80182
1.73307
1.67428
1.62236
1.57259
1.52081
1.46389
1.40107
1.33489
1.26868
1.20346
1.1371
1.0658
0.985649
0.892961
0.785338
0.662696
0.526146
0.376716
0.215111
0.041185
-0.14651
-0.350373
-0.572854
-0.81571
-1.08013
-1.36751
-1.6799
-2.01946
-2.38768
-2.78377
-3.19974
-3.61438
-3.98996
-4.2744
-4.40783
-4.33649
-4.04234
-3.56571
-2.9854
-2.37657
-1.78715
-1.23656
-0.724244
-0.238318
0.285349
0.830088
1.30431
1.67907
1.9459
2.11783
2.21746
2.268
2.29248
2.3088
2.32449
2.33722
2.34035
2.3277
2.29298
2.23339
2.15401
2.06354
1.97054
1.88395
1.81028
1.75025
1.69912
1.65037
1.59882
1.54026
1.47358
1.40295
1.33378
1.26777
1.20195
1.13129
1.05112
0.956756
0.845128
0.716723
0.573517
0.416983
0.248279
0.0674868
-0.127183
-0.338887
-0.570776
-0.824846
-1.10221
-1.40448
-1.73465
-2.09624
-2.49287
-2.92725
-3.39446
-3.87305
-4.31979
-4.67192
-4.8534
-4.78856
-4.44682
-3.88356
-3.2084
-2.51912
-1.87133
-1.28247
-0.746275
-0.244771
0.32257
0.93517
1.46102
1.86547
2.13951
2.30352
2.38778
2.41992
2.42835
2.43542
2.44913
2.46396
2.46982
2.45902
2.42251
2.3552
2.26431
2.16131
2.05598
1.95969
1.88116
1.82097
1.77201
1.72536
1.67493
1.61505
1.54377
1.46771
1.39535
1.32921
1.265
1.19598
1.11679
1.0215
0.905933
0.771589
0.621698
0.458122
0.28261
0.095639
-0.105019
-0.323539
-0.563993
-0.828546
-1.11795
-1.4338
-1.78021
-2.16209
-2.5853
-3.05735
-3.57819
-4.1273
-4.65565
-5.08895
-5.33275
-5.28073
-4.88151
-4.2117
-3.42471
-2.64646
-1.93908
-1.31497
-0.759842
-0.248354
0.364596
1.05281
1.63487
2.0695
2.34641
2.49686
2.56097
2.56989
2.55855
2.5552
2.5681
2.58694
2.59692
2.58968
2.55247
2.47634
2.37219
2.25527
2.1359
2.0286
1.94531
1.88637
1.84125
1.79782
1.74958
1.68882
1.61183
1.52892
1.45299
1.3876
1.32625
1.25986
1.18278
1.08741
0.967792
0.827129
0.670478
0.499821
0.317704
0.125266
-0.0802919
-0.304524
-0.552741
-0.827171
-1.12776
-1.4558
-1.81676
-2.21689
-2.66403
-3.17212
-3.7483
-4.37453
-4.99563
-5.52522
-5.84963
-5.82002
-5.3507
-4.54866
-3.62983
-2.75421
-1.98741
-1.33242
-0.764185
-0.248858
0.412195
1.1845
1.82778
2.29313
2.56713
2.69735
2.73657
2.71697
2.68161
2.66681
2.6808
2.70614
2.72158
2.72004
2.68378
2.59726
2.47766
2.34556
2.21014
2.09017
2.00226
1.94641
1.90716
1.86798
1.82323
1.76231
1.67798
1.58618
1.50621
1.44269
1.38573
1.32287
1.24919
1.15484
1.03075
0.883132
0.719657
0.541767
0.353131
0.15597
-0.0532698
-0.282005
-0.537241
-0.821127
-1.13218
-1.47089
-1.84462
-2.26079
-2.7283
-3.26956
-3.90191
-4.61187
-5.33728
-5.9795
-6.40792
-6.41525
-5.85954
-4.89199
-3.81817
-2.83758
-2.0134
-1.33341
-0.758773
-0.246156
0.466323
1.33177
2.04167
2.53863
2.80196
2.90412
2.9142
2.86022
2.79588
2.76877
2.78669
2.82176
2.84359
2.85044
2.81766
2.71835
2.58058
2.43244
2.27859
2.14373
2.05142
2.00108
1.97018
1.93599
1.89634
1.83644
1.74248
1.63899
1.55438
1.49429
1.44358
1.38492
1.31611
1.22423
1.09485
0.939309
0.769069
0.583657
0.388416
0.187327
-0.024206
-0.256089
-0.517681
-0.810855
-1.13184
-1.47953
-1.86425
-2.29428
-2.77756
-3.34767
-4.03598
-4.83629
-5.67774
-6.44928
-7.01142
-7.07754
-6.41423
-5.23789
-3.98285
-2.89143
-2.01441
-1.31694
-0.743342
-0.240215
0.528246
1.49612
2.27841
2.80871
3.0509
3.11577
3.09376
2.99877
2.89954
2.85946
2.88536
2.93433
2.96253
2.98114
2.95574
2.83996
2.68057
2.5164
2.34116
2.18853
2.09208
2.05043
2.03094
2.00184
1.9693
1.91248
1.8056
1.68663
1.59673
1.54221
1.50011
1.44579
1.38359
1.29626
1.16011
0.995252
0.818614
0.6252
0.423043
0.218892
0.00666389
-0.226815
-0.494202
-0.796828
-1.12747
-1.48218
-1.87617
-2.31826
-2.81154
-3.40449
-4.14724
-5.04466
-6.01389
-6.93017
-7.66353
-7.82117
-7.02222
-5.58056
-4.11559
-2.91052
-1.98824
-1.28245
-0.717932
-0.231101
0.599712
1.67895
2.53963
3.10682
3.31347
3.33018
3.27556
3.13184
2.99047
2.93707
2.97652
3.04484
3.0776
3.1122
3.10029
2.96228
2.77685
2.59821
2.39787
2.22359
2.12338
2.09455
2.09037
2.0653
2.04243
1.99212
1.86763
1.72817
1.63233
1.58633
1.55586
1.50508
1.4516
1.3719
1.22648
1.05038
0.868312
0.666134
0.45643
0.250193
0.0391219
-0.194132
-0.466876
-0.77954
-1.11996
-1.4793
-1.88093
-2.33411
-2.83025
-3.43812
-4.23226
-5.234
-6.34265
-7.41532
-8.36673
-8.66454
-7.6925
-5.91147
-4.20658
-2.88966
-1.93327
-1.22994
-0.682892
-0.218981
0.683251
1.88141
2.82654
3.43748
3.58857
3.54423
3.46067
3.2588
3.06631
2.99954
3.06005
3.15502
3.18739
3.24341
3.25445
3.08525
2.86806
2.67919
2.44881
2.24776
2.1443
2.13362
2.14984
2.1257
2.11583
2.07766
1.92884
1.76238
1.66008
1.62654
1.61173
1.56212
1.51995
1.45253
1.29383
1.10385
0.918381
0.706231
0.487918
0.280737
0.0729652
-0.157885
-0.435699
-0.759499
-1.1104
-1.47119
-1.87895
-2.34384
-2.83401
-3.44672
-4.28731
-5.40153
-6.66159
-7.89458
-9.12182
-9.63159
-8.43575
-6.21828
-4.24454
-2.82414
-1.8487
-1.15997
-0.638872
-0.20411
0.7826
2.10427
3.13954
3.80685
3.87423
3.75345
3.65137
3.37913
3.1243
3.04456
3.13594
3.26762
3.28966
3.37408
3.42272
3.20838
2.95201
2.76142
2.49413
2.25958
2.15356
2.16788
2.21137
2.1818
2.1893
2.17225
1.98941
1.78768
1.67867
1.66283
1.66919
1.61581
1.58824
1.5402
1.36185
1.15447
0.969345
0.745286
0.516741
0.310012
0.107997
-0.117793
-0.400568
-0.737201
-1.1001
-1.458
-1.87046
-2.35022
-2.82344
-3.4286
-4.30831
-5.54488
-6.96971
-8.35355
-9.92684
-10.7536
-9.26462
-6.48348
-4.21686
-2.71003
-1.73469
-1.07367
-0.586795
-0.186821
0.903354
2.34767
3.47776
4.22349
4.1673
3.95155
3.85172
3.49235
3.16124
3.06952
3.20425
3.38688
3.38085
3.50282
3.61142
3.33058
3.02533
2.84817
2.534
2.2573
2.1497
2.19755
2.27794
2.23153
2.26214
2.28022
2.04933
1.80208
1.68659
1.69519
1.73044
1.66442
1.65569
1.63781
1.42997
1.20052
1.0222
0.783107
0.541997
0.337507
0.14401
-0.0734301
-0.361279
-0.713101
-1.09079
-1.43962
-1.85522
-2.35701
-2.79938
-3.38225
-4.29066
-5.66205
-7.26869
-8.77242
-10.7756
-12.0713
-10.1939
-6.68269
-4.11006
-2.54471
-1.59243
-0.972737
-0.527807
-0.167503
1.05386
2.6108
3.83836
4.69945
4.46297
4.12978
4.0684
3.59788
3.17342
3.07149
3.26494
3.51917
3.45568
3.62721
3.82953
3.44979
3.08307
2.94438
2.56851
2.23876
2.13099
2.22278
2.35386
2.27165
2.333
2.40754
2.10821
1.80311
1.68218
1.72356
1.79881
1.70537
1.72108
1.74952
1.49721
1.23961
1.07862
0.81947
0.562607
0.362736
0.180763
-0.0242001
-0.317523
-0.687554
-1.08467
-1.41559
-1.83232
-2.36925
-2.76278
-3.30644
-4.22903
-5.75135
-7.56454
-9.12467
-11.6556
-13.6382
-11.2404
-6.78244
-3.91055
-2.32735
-1.42424
-0.85932
-0.463217
-0.146585
1.24649
2.89154
4.21558
5.25163
4.75426
4.27618
4.31178
3.69472
3.15654
3.04726
3.3176
3.67377
3.50646
3.74345
4.08955
3.56264
3.11812
3.05735
2.59743
2.20141
2.09544
2.24344
2.44532
2.29732
2.39958
2.56234
2.16501
1.78781
1.66362
1.74769
1.87911
1.73488
1.78249
1.88116
1.56197
1.26845
1.14125
0.854043
0.577277
0.385278
0.217941
0.030688
-0.268899
-0.660728
-1.08467
-1.38503
-1.79979
-2.39364
-2.71452
-3.20045
-4.11706
-5.81102
-7.86983
-9.37569
-12.5457
-15.5238
-12.4234
-6.7376
-3.60582
-2.05936
-1.2335
-0.735937
-0.394426
-0.124507
1.49925
3.18596
4.59958
5.90364
5.03125
4.37464
4.59729
3.78096
3.10573
2.99339
3.36103
3.86393
3.52234
3.84577
4.40878
3.66388
3.1206
3.19765
2.61992
2.14224
2.04092
2.25883
2.56108
2.30164
2.45836
2.75563
2.21768
1.75273
1.62904
1.76695
1.97819
1.7476
1.83707
2.04083
1.62182
1.28259
1.21409
0.886263
0.584452
0.404839
0.255102
0.0922562
-0.214945
-0.632477
-1.09467
-1.34655
-1.75421
-2.43903
-2.65503
-3.06427
-3.94714
-5.83859
-8.20647
-9.48119
-13.4123
-17.8185
-13.7636
-6.48823
-3.18624
-1.74484
-1.02455
-0.605334
-0.322855
-0.101704
1.83793
3.48769
4.97489
6.68804
5.28017
4.4038
4.94712
3.85298
3.01553
2.9064
3.39255
4.10821
3.48836
3.9259
4.81074
3.74578
3.07712
3.38023
2.63402
2.05783
1.96518
2.26733
2.71333
2.27501
2.50416
3.00218
2.26262
1.69394
1.57666
1.77996
2.10562
1.73611
1.88081
2.23955
1.67315
1.2761
1.30292
0.915157
0.582282
0.421333
0.291605
0.161801
-0.155195
-0.602158
-1.11976
-1.29823
-1.69013
-2.5171
-2.58385
-2.89903
-3.71008
-5.82974
-8.60921
-9.38568
-14.2059
-20.6383
-15.2834
-5.95599
-2.64746
-1.39076
-0.802491
-0.470333
-0.24988
-0.0785881
2.29879
3.78722
5.31851
7.64914
5.48227
4.33569
5.39236
3.9045
2.88003
2.78297
3.40719
4.43211
3.38438
3.97229
5.32692
3.7973
2.96983
3.62577
2.636
1.94441
1.86607
2.26575
2.91873
2.20445
2.52977
3.32158
2.294
1.6072
1.50491
1.78414
2.2745
1.69039
1.90817
2.49212
1.71078
1.24124
1.41589
0.939084
0.568587
0.434994
0.326514
0.240956
-0.089274
-0.568386
-1.16669
-1.23759
-1.59944
-2.64315
-2.49899
-2.7075
-3.39491
-5.77666
-9.12975
-9.02097
-14.8557
-24.1316
-17.0052
-5.04012
-1.99353
-1.00697
-0.572825
-0.333683
-0.176773
-0.0555292
2.9317
4.07099
5.59768
8.84624
5.61245
4.13435
5.97543
3.92512
2.69311
2.62035
3.39641
4.86999
3.18383
3.96923
5.99882
3.80313
2.77551
3.96231
2.61945
1.79802
1.74174
2.24859
3.19973
2.07274
2.52539
3.73942
2.30285
1.48808
1.41274
1.77513
2.50246
1.59713
1.9117
2.81803
1.72749
1.16809
1.56422
0.955406
0.540852
0.446502
0.358477
0.331769
-0.0170362
-0.52872
-1.24415
-1.1616
-1.47056
-2.83714
-2.39605
-2.49474
-2.98878
-5.66585
-9.84155
-8.30476
-15.2645
-28.4863
-18.9508
-3.61294
-1.24083
-0.605815
-0.341148
-0.197926
-0.104659
-0.0328506
3.804
4.32045
5.7673
10.3575
5.63767
3.75417
6.753
3.89857
2.44883
2.41685
3.34669
5.46737
2.85235
3.89597
6.88019
3.74263
2.46449
4.42713
2.57413
1.61477
1.59103
2.2071
3.58598
1.85753
2.47813
4.28873
2.27607
1.33232
1.29989
1.74593
2.81282
1.43905
1.88162
3.24257
1.71343
1.04412
1.76288
0.960051
0.496239
0.457147
0.385569
0.436811
0.0612443
-0.479264
-1.36333
-1.06679
-1.28752
-3.12484
-2.26711
-2.26893
-2.477
-5.47516
-10.8452
-7.13953
-15.3013
-33.937
-21.1394
-1.51517
-0.422856
-0.201268
-0.112738
-0.0652804
-0.0344881
-0.0108206
)
;

boundaryField
{
    left
    {
        type            calculated;
        value           uniform 0;
    }
    right
    {
        type            calculated;
        value           uniform 0;
    }
    interface
    {
        type            calculated;
        value           nonuniform List<scalar> 
64
(
3.804
4.32045
5.7673
10.3575
5.63767
3.75417
6.753
3.89857
2.44883
2.41685
3.34669
5.46737
2.85235
3.89597
6.88019
3.74263
2.46449
4.42713
2.57413
1.61477
1.59103
2.2071
3.58598
1.85753
2.47813
4.28873
2.27607
1.33232
1.29989
1.74593
2.81282
1.43905
1.88162
3.24257
1.71343
1.04412
1.76288
0.960051
0.496239
0.457147
0.385569
0.436811
0.0612443
-0.479264
-1.36333
-1.06679
-1.28752
-3.12484
-2.26711
-2.26893
-2.477
-5.47516
-10.8452
-7.13953
-15.3013
-33.937
-21.1394
-1.51517
-0.422856
-0.201268
-0.112738
-0.0652804
-0.0344881
-0.0108206
)
;
    }
    bottom
    {
        type            calculated;
        value           nonuniform List<scalar> 
64
(
0.00630499
0.0187345
0.030639
0.0417206
0.0517503
0.0605789
0.068136
0.0744194
0.0794787
0.0833968
0.0862735
0.0882132
0.0893177
0.0896839
0.0894042
0.0885679
0.0872616
0.085569
0.0835679
0.0813266
0.0789012
0.0763321
0.0736442
0.0708478
0.0679405
0.0649102
0.0617374
0.0583965
0.0548567
0.0510822
0.0470325
0.0426642
0.037932
0.0327915
0.0272006
0.0211219
0.0145231
0.00737797
-0.000333047
-0.00862163
-0.0174893
-0.0269239
-0.0368938
-0.0473418
-0.0581764
-0.0692627
-0.0804136
-0.091382
-0.101857
-0.111465
-0.119783
-0.12636
-0.130754
-0.132571
-0.131513
-0.127417
-0.120278
-0.110248
-0.0976161
-0.0827656
-0.06613
-0.0481506
-0.0292471
-0.00980746
)
;
    }
    defaultFaces
    {
        type            empty;
    }
}


// ************************************************************************* //
