/*--------------------------------*- C++ -*----------------------------------*\
| =========                 |                                                 |
| \\      /  F ield         | OpenFOAM: The Open Source CFD Toolbox           |
|  \\    /   O peration     | Version:  5.x                                   |
|   \\  /    A nd           | Web:      www.OpenFOAM.org                      |
|    \\/     M anipulation  |                                                 |
\*---------------------------------------------------------------------------*/
FoamFile
{
    version     2.0;
    format      ascii;
    class       volScalarField;
    location    "18.8001";
    object      gradTy;
}
// * * * * * * * * * * * * * * * * * * * * * * * * * * * * * * * * * * * * * //

dimensions      [0 -1 0 1 0 0 0];

internalField   nonuniform List<scalar> 
6300
(
32284
32252.1
32220.1
32187.8
32155.4
32122.6
32089.5
32055.9
32021.8
31987.2
31952.1
31916.4
31880.1
31843.1
31805.6
0.0533284
0.159489
0.264126
0.366112
0.464158
0.556774
0.64225
0.718673
0.783991
0.836139
0.873226
0.893784
0.897056
0.883272
0.853841
0.0894338
0.267513
0.443165
0.614574
0.77964
0.935901
1.08048
1.21013
1.32128
1.41029
1.47372
1.50882
1.51401
1.48947
1.43753
0.126328
0.377963
0.626447
0.869379
1.10393
1.32671
1.53366
1.72009
1.88072
2.01001
2.10255
2.15375
2.16069
2.12306
2.04401
0.164243
0.491567
0.815281
1.13257
1.44
1.73333
2.00736
2.25583
2.47151
2.64649
2.77273
2.84296
2.85195
2.79809
2.6849
0.203319
0.608781
1.01055
1.40561
1.79016
2.15927
2.50663
2.82437
3.10301
3.33172
3.49892
3.5934
3.60609
3.53243
3.37527
0.243574
0.729691
1.21251
1.68917
2.15577
2.60696
3.03553
3.432
3.78444
4.07847
4.29784
4.42565
4.44656
4.35029
4.13632
0.284861
0.853898
1.42065
1.98279
2.53679
3.07729
3.59653
4.08368
4.52427
4.89988
5.18834
5.3648
5.40423
5.28585
5.00022
0.326833
0.980394
1.63338
2.28456
2.9313
3.56888
4.18963
4.78192
5.32909
5.80846
6.19084
6.44099
6.51974
6.38868
6.01884
0.368912
1.10746
1.84794
2.59077
3.33497
4.0773
4.81119
5.52529
6.2017
6.81403
7.32559
7.68861
7.84512
7.73035
7.27893
0.410266
1.2326
2.06014
2.89562
3.74051
4.59417
5.45256
6.30635
7.13842
7.92038
8.60894
9.14281
9.44195
9.40899
8.92569
0.449818
1.35254
2.2644
3.19105
4.13729
5.10633
6.0985
7.10916
8.12524
9.12016
10.0471
10.832
11.3714
11.5391
11.1828
0.486284
1.46334
2.45388
3.4669
4.51128
5.59535
6.72597
7.90655
9.13324
10.388
11.6273
12.7671
13.674
14.1966
14.2817
0.51826
1.56066
2.62087
3.7114
4.84557
6.03782
7.30348
8.65783
10.1132
11.6714
13.3073
14.936
16.3641
17.3013
17.8772
0.544358
1.64016
2.75757
3.91224
5.1218
6.40688
7.79228
9.30813
10.9902
12.877
14.9949
17.3067
19.5514
20.7895
18.4266
31770.7
31738.6
31706.1
31673.3
31640.2
31606.8
31573.1
31539.2
31505
31470.7
31436.1
31401.5
31366.6
31331.7
31296.7
31261.6
31226.4
31191.3
31156.2
31121.1
31086
31050.9
31015.9
30981
30946.1
30911.2
30876.4
30841.6
30807
30772.3
30737.8
30703.3
30669
30634.7
30600.6
30566.5
30532.6
30498.8
30465.1
30431.4
30397.9
30364.5
30331.1
30297.9
30264.7
30231.7
30198.7
30165.9
30133.2
30100.6
30068.1
30035.7
30003.5
29971.3
29939.3
29907.3
29875.4
29843.7
29812
29780.3
29748.8
29717.4
29686.1
29654.9
29623.7
29592.7
29561.8
29531
29500.2
29469.6
29439
29408.4
29378
29347.6
29317.2
29286.9
29256.7
29226.5
29196.4
29166.3
29136.3
29106.3
29076.3
29046.3
29016.2
28986.1
28956
28925.7
28895.4
28864.9
0.814907
0.772714
0.725996
0.676965
0.627466
0.578733
0.531259
0.484814
0.438624
0.391658
0.342978
0.292062
0.239042
0.184802
0.130915
0.079418
0.0324842
-0.00796116
-0.0405874
-0.064907
-0.0813784
-0.0913479
-0.0968447
-0.100266
-0.104004
-0.110072
-0.119797
-0.13362
-0.151044
-0.170745
-0.190824
-0.209162
-0.22381
-0.233345
-0.23712
-0.235378
-0.229199
-0.220318
-0.210827
-0.202824
-0.198066
-0.197674
-0.201945
-0.210309
-0.221426
-0.233427
-0.244251
-0.252007
-0.255313
-0.253528
-0.246855
-0.236295
-0.223469
-0.210336
-0.198865
-0.190698
-0.186874
-0.187656
-0.192481
-0.20006
-0.2086
-0.216128
-0.220831
-0.221374
-0.217128
-0.208258
-0.195679
-0.180885
-0.165678
-0.15184
-0.14082
-0.133452
-0.129787
-0.129034
-0.12966
-0.129595
-0.126558
-0.118407
-0.103481
-0.0808778
-0.0506246
-0.0137318
0.0278647
0.0714663
0.113859
0.151626
0.181509
0.200773
0.207542
0.201048
1.36904
1.2951
1.21373
1.12907
1.0446
0.962591
0.883822
0.807633
0.732271
0.655472
0.575156
0.490078
0.4003
0.307401
0.214349
0.125071
0.0437915
-0.025729
-0.0808789
-0.120682
-0.145995
-0.159386
-0.164739
-0.166641
-0.169669
-0.177674
-0.19318
-0.217004
-0.248145
-0.283994
-0.320822
-0.354476
-0.381149
-0.398065
-0.403976
-0.399354
-0.386302
-0.368177
-0.349024
-0.332897
-0.323187
-0.322059
-0.330086
-0.346151
-0.367644
-0.39092
-0.411959
-0.427082
-0.43361
-0.430313
-0.417601
-0.397427
-0.372938
-0.347927
-0.326201
-0.310935
-0.304147
-0.306343
-0.316432
-0.331906
-0.349278
-0.3647
-0.374655
-0.376565
-0.369227
-0.352988
-0.329653
-0.302139
-0.27396
-0.248603
-0.228911
-0.216557
-0.211702
-0.212891
-0.217217
-0.220737
-0.219078
-0.208128
-0.184683
-0.146965
-0.0949295
-0.0303561
0.0432712
0.12106
0.197153
0.265287
0.319445
0.354534
0.367037
0.355498
1.94
1.82821
1.70618
1.5809
1.45821
1.34179
1.23267
1.12927
1.02799
0.924355
0.814199
0.694865
0.566057
0.430223
0.292352
0.159213
0.0381695
-0.0641869
-0.143265
-0.197321
-0.227776
-0.238998
-0.237598
-0.23139
-0.228165
-0.23447
-0.254585
-0.289849
-0.338465
-0.395831
-0.455388
-0.509844
-0.552534
-0.578634
-0.585995
-0.575469
-0.550708
-0.517516
-0.482863
-0.453728
-0.43595
-0.433261
-0.446649
-0.474177
-0.511293
-0.551636
-0.588183
-0.614535
-0.626055
-0.620655
-0.599091
-0.564775
-0.523157
-0.480789
-0.444231
-0.418967
-0.408481
-0.413663
-0.432629
-0.461021
-0.492761
-0.521146
-0.540064
-0.545072
-0.534141
-0.507938
-0.469643
-0.424351
-0.378179
-0.33721
-0.306435
-0.288862
-0.284913
-0.29223
-0.305935
-0.319336
-0.324979
-0.315841
-0.286437
-0.233668
-0.157289
-0.0600183
0.0526851
0.173096
0.291906
0.399076
0.484838
0.54082
0.56115
0.543359
2.53579
2.37606
2.20332
2.02902
1.86277
1.71047
1.57331
1.44783
1.32711
1.20263
1.06646
0.913297
0.741937
0.555983
0.363542
0.17594
0.00564045
-0.136163
-0.241682
-0.307942
-0.337253
-0.336783
-0.317378
-0.291845
-0.272938
-0.271381
-0.294174
-0.343468
-0.416185
-0.504511
-0.597299
-0.682154
-0.747808
-0.786186
-0.793773
-0.772081
-0.727255
-0.66896
-0.608756
-0.558204
-0.526985
-0.52131
-0.542853
-0.588395
-0.650297
-0.717818
-0.779089
-0.823344
-0.842867
-0.834273
-0.798942
-0.742639
-0.674457
-0.605282
-0.546001
-0.505717
-0.490253
-0.501135
-0.535254
-0.585313
-0.641074
-0.691226
-0.725503
-0.736532
-0.721047
-0.680302
-0.619708
-0.54783
-0.474907
-0.411135
-0.364948
-0.341547
-0.341902
-0.362372
-0.395089
-0.429106
-0.452166
-0.452735
-0.421839
-0.35437
-0.249734
-0.111903
0.0510002
0.227438
0.403422
0.563689
0.693117
0.778446
0.810159
0.784128
3.16642
2.94263
2.70271
2.46557
2.24726
2.05737
1.89712
1.75956
1.63166
1.49775
1.34321
1.15793
0.938838
0.69109
0.427769
0.167754
-0.0679203
-0.260384
-0.396631
-0.47177
-0.489612
-0.461831
-0.405985
-0.342754
-0.292729
-0.273227
-0.2956
-0.363359
-0.471426
-0.606769
-0.750631
-0.882116
-0.98236
-1.03808
-1.04371
-1.00201
-0.923197
-0.823152
-0.72075
-0.634842
-0.581238
-0.570165
-0.604497
-0.679054
-0.78121
-0.892999
-0.994499
-1.06777
-1.10017
-1.08639
-1.029
-0.937607
-0.827186
-0.71553
-0.620412
-0.556727
-0.534087
-0.555145
-0.614925
-0.701397
-0.797463
-0.884166
-0.94442
-0.966172
-0.944327
-0.881246
-0.786024
-0.672814
-0.558457
-0.45974
-0.390647
-0.360025
-0.369924
-0.414878
-0.482372
-0.554654
-0.611739
-0.634938
-0.609906
-0.528592
-0.389979
-0.199891
0.0298262
0.28243
0.537573
0.772713
0.964896
1.09328
1.14232
1.10493
3.84591
3.53246
3.1981
2.875
2.59082
2.3616
2.18828
2.05736
1.94489
1.82257
1.66421
1.45128
1.17701
0.848625
0.487239
0.124521
-0.2037
-0.465556
-0.639574
-0.718101
-0.707668
-0.627292
-0.505225
-0.374646
-0.268565
-0.214772
-0.231669
-0.325207
-0.487388
-0.696759
-0.921788
-1.12706
-1.28103
-1.36209
-1.36182
-1.28536
-1.14972
-0.980739
-0.808994
-0.664962
-0.574248
-0.553637
-0.608218
-0.729971
-0.898251
-1.083
-1.25057
-1.37104
-1.42395
-1.40133
-1.30799
-1.15998
-0.981692
-0.801964
-0.649561
-0.548633
-0.514996
-0.553393
-0.65616
-0.803664
-0.967334
-1.11519
-1.21878
-1.25859
-1.22699
-1.12847
-0.978243
-0.799447
-0.619487
-0.465685
-0.360948
-0.320154
-0.347465
-0.434928
-0.562758
-0.702086
-0.820109
-0.886594
-0.879019
-0.785323
-0.60435
-0.344944
-0.0243049
0.333768
0.700527
1.04359
1.32855
1.52236
1.59894
1.54544
4.59659
4.1524
3.67728
3.22841
2.85523
2.58535
2.41839
2.32859
2.27231
2.1993
2.06381
1.83295
1.4931
1.05369
0.548633
0.0316182
-0.435044
-0.797211
-1.02002
-1.09253
-1.02644
-0.852786
-0.616722
-0.371262
-0.169103
-0.0545252
-0.0573754
-0.188209
-0.435399
-0.7642
-1.12139
-1.4459
-1.68469
-1.80319
-1.78966
-1.65393
-1.42425
-1.14231
-0.857331
-0.618303
-0.466307
-0.428835
-0.515212
-0.713886
-0.991586
-1.29772
-1.57445
-1.77159
-1.85651
-1.81811
-1.66571
-1.42597
-1.13826
-0.849052
-0.604583
-0.443642
-0.392176
-0.458951
-0.632972
-0.882653
-1.15997
-1.40998
-1.58497
-1.65385
-1.606
-1.45016
-1.2116
-0.927755
-0.642849
-0.400977
-0.23917
-0.182212
-0.238388
-0.396846
-0.62659
-0.880196
-1.10269
-1.2449
-1.27215
-1.16773
-0.931666
-0.578172
-0.132341
0.372599
0.8976
1.39815
1.82345
2.12027
2.24286
2.16628
5.45854
4.81684
4.11866
3.47285
2.97094
2.66089
2.5374
2.55154
2.62384
2.666
2.60074
2.37158
1.95256
1.3533
0.627249
-0.133788
-0.816859
-1.32954
-1.6169
-1.66655
-1.5001
-1.16815
-0.741748
-0.305524
0.0564757
0.274819
0.301215
0.11634
-0.265887
-0.790763
-1.36804
-1.88818
-2.26156
-2.43442
-2.39347
-2.1578
-1.77403
-1.30825
-0.839502
-0.446319
-0.193451
-0.125692
-0.260498
-0.584006
-1.04397
-1.55481
-2.01294
-2.33376
-2.46662
-2.39907
-2.14919
-1.76104
-1.297
-0.831711
-0.439324
-0.181006
-0.0990875
-0.210075
-0.500833
-0.921847
-1.39194
-1.81278
-2.10395
-2.21721
-2.14054
-1.89094
-1.51018
-1.05759
-0.604241
-0.220974
0.0335912
0.118642
0.0179758
-0.256113
-0.656058
-1.10311
-1.50089
-1.76874
-1.85487
-1.73971
-1.42808
-0.944367
-0.325493
0.382544
1.12988
1.86106
2.50338
2.96905
3.17362
3.06453
6.51108
5.5625
4.48452
3.51006
2.8105
2.46781
2.45824
2.69073
3.0188
3.28739
3.37368
3.18362
2.67157
1.83549
0.756249
-0.41146
-1.44404
-2.1863
-2.55609
-2.55173
-2.21209
-1.61952
-0.880917
-0.132902
0.48892
0.880567
0.964037
0.705078
0.109037
-0.741864
-1.69698
-2.5418
-3.12718
-3.37355
-3.27769
-2.87493
-2.24188
-1.47847
-0.71286
-0.0722831
0.34596
0.469147
0.265944
-0.257629
-1.0231
-1.88779
-2.64914
-3.16659
-3.36534
-3.24258
-2.8318
-2.20536
-1.45755
-0.709386
-0.0810088
0.335647
0.471785
0.29767
-0.181124
-0.89037
-1.69483
-2.40228
-2.87914
-3.05408
-2.92407
-2.5206
-1.91221
-1.1885
-0.464721
0.14436
0.550454
0.686928
0.524069
0.0658532
-0.617696
-1.39696
-2.08619
-2.55425
-2.72746
-2.5946
-2.1723
-1.50519
-0.647038
0.335894
1.38543
2.45193
3.43769
4.19381
4.55603
4.40481
7.92486
6.49434
4.70075
3.15098
2.13634
1.79521
2.03056
2.69228
3.49941
4.17128
4.54459
4.45932
3.85721
2.66785
1.01264
-0.883711
-2.48928
-3.57943
-4.03407
-3.9197
-3.28828
-2.28119
-1.03364
0.22144
1.25282
1.93009
2.11996
1.77921
0.850958
-0.542893
-2.18475
-3.56899
-4.48097
-4.80549
-4.60382
-3.92369
-2.89747
-1.65186
-0.406167
0.621913
1.31025
1.53398
1.25372
0.417071
-0.859338
-2.36956
-3.63658
-4.45836
-4.72702
-4.50081
-3.82498
-2.82443
-1.61863
-0.414565
0.582186
1.25624
1.48942
1.24416
0.470433
-0.721787
-2.1374
-3.32385
-4.08911
-4.33006
-4.10138
-3.44537
-2.48028
-1.31951
-0.160038
0.801997
1.45557
1.68626
1.45547
0.7123
-0.441498
-1.82048
-2.98997
-3.76433
-4.04081
-3.86627
-3.26906
-2.3411
-1.14827
0.193328
1.61657
3.15904
4.70269
5.98579
6.6778
6.48855
10.0914
7.95056
4.56465
2.01857
0.491904
0.292781
0.989147
2.48451
4.17486
5.48509
6.37586
6.47926
5.88849
4.17104
1.61628
-1.77469
-4.2767
-5.88771
-6.3314
-6.03224
-4.90546
-3.2891
-1.1972
0.897913
2.52661
3.68148
4.03996
3.69936
2.26334
0.0132109
-3.04349
-5.27626
-6.68069
-6.99515
-6.61894
-5.47082
-3.86896
-1.82538
0.213889
1.80533
2.94359
3.32457
3.04269
1.72503
-0.358889
-3.20156
-5.26515
-6.54664
-6.80131
-6.40651
-5.28577
-3.73906
-1.7772
0.178787
1.71006
2.81172
3.19601
2.95162
1.72463
-0.231518
-2.90996
-4.85195
-6.05405
-6.28232
-5.89407
-4.81519
-3.33014
-1.44865
0.428955
1.90382
2.96963
3.3501
3.12473
1.95004
0.0589654
-2.54566
-4.46274
-5.69137
-6.0036
-5.7466
-4.8421
-3.55844
-1.86371
-0.0668139
1.67603
3.86447
6.34285
8.62896
10.0686
9.93116
13.9266
11.216
3.22545
-0.589926
-3.06874
-2.50034
-1.20307
1.99592
5.39769
7.40293
9.34096
9.49883
9.54218
6.87996
3.42409
-3.94579
-7.34716
-9.87693
-9.69842
-9.33657
-7.2276
-4.98182
-1.36537
2.24601
4.48274
6.57966
6.96665
7.1969
4.84803
1.73079
-5.08871
-8.17633
-10.4499
-10.1794
-9.74562
-7.67133
-5.47655
-1.99267
1.47881
3.64134
5.6674
6.06967
6.3232
4.13638
1.23416
-5.15542
-8.01995
-10.1135
-9.81082
-9.35758
-7.35993
-5.25153
-1.9273
1.38373
3.45657
5.4002
5.80788
6.07405
4.0288
1.29886
-4.74303
-7.4455
-9.4213
-9.12237
-8.68125
-6.7699
-4.75087
-1.57218
1.59789
3.59468
5.4706
5.88637
6.16097
4.2194
1.58694
-4.26093
-6.92685
-8.93804
-8.78609
-8.55931
-6.96114
-5.36771
-2.72627
-0.249122
1.09383
4.15239
8.25989
12.4911
15.7302
16.2016
21.2597
22.1839
-4.03631
-5.10793
-11.0184
-6.34373
-6.13396
1.21527
8.63149
9.41756
14.8695
12.6833
17.0919
10.7317
10.8681
-11.8315
-11.6727
-17.7661
-13.3294
-15.1567
-9.74675
-8.64832
-1.52624
5.57362
6.64019
11.9401
10.119
14.4084
8.53918
8.7796
-12.5078
-12.2486
-17.8828
-13.5986
-15.2346
-10.0454
-8.94045
-2.14211
4.62862
5.67386
10.7295
9.02897
13.1178
7.5779
7.84903
-12.1854
-11.8849
-17.1311
-13.0371
-14.5326
-9.59359
-8.51477
-2.05841
4.37166
5.38915
10.2005
8.62353
12.5249
7.31895
7.59844
-11.3848
-11.0855
-16.0642
-12.1672
-13.5856
-8.87964
-7.84153
-1.68331
4.45634
5.4596
10.0742
8.62591
12.3885
7.48364
7.7451
-10.5582
-10.3338
-15.2996
-11.6763
-13.3468
-9.07337
-8.68613
-3.35226
1.20182
-1.95885
2.92985
9.99876
17.782
25.3772
29.6281
31.8211
72.2516
-47.5014
-2.64773
-34.2071
-3.7567
-21.3455
0.338164
21.4127
4.71335
31.3969
6.37128
40.1488
5.22842
51.1959
-52.6334
-6.99515
-40.8184
-7.94041
-31.3986
-6.05722
-20.9889
-1.65512
17.5892
2.70158
27.5549
4.47242
36.2482
3.43249
46.8285
-50.9541
-7.83407
-39.5983
-8.49278
-30.5521
-6.53788
-20.6029
-2.25179
16.0231
1.93144
25.5204
3.65162
33.7778
2.65157
43.7039
-48.4975
-7.76276
-37.5984
-8.21452
-28.9733
-6.26857
-19.5217
-2.15163
15.1537
1.85865
24.1998
3.55042
32.0903
2.71007
41.6364
-45.7937
-7.12493
-35.4881
-7.55777
-27.3089
-5.70774
-18.3052
-1.76768
14.7112
2.12421
23.4083
3.86179
31.0972
3.30838
40.6365
-43.5353
-6.26677
-34.0296
-6.94362
-26.6935
-5.58947
-19.1277
-2.85537
13.762
-16.6026
-1.4322
10.709
23.3435
39.8401
66.3804
28831.3
28794.5
28757.7
28720.7
28683.8
28646.9
28610
28573.2
28536.4
28499.8
28463.3
28426.9
28390.6
28354.3
28318.1
0.179809
0.140739
0.0904662
0.0347368
-0.0206022
-0.0703981
-0.110704
-0.138988
-0.154091
-0.156039
-0.145779
-0.124917
-0.0954987
-0.0598307
-0.0203675
0.317283
0.246975
0.156835
0.0574839
-0.0404544
-0.127824
-0.197816
-0.246248
-0.271401
-0.273605
-0.254726
-0.217693
-0.166102
-0.103932
-0.0353581
0.483374
0.373044
0.232416
0.0788181
-0.070875
-0.202629
-0.306488
-0.376786
-0.411661
-0.412253
-0.381829
-0.325028
-0.247285
-0.154437
-0.052491
0.694358
0.52941
0.320965
0.0962481
-0.119235
-0.305329
-0.448723
-0.542745
-0.586206
-0.581918
-0.535307
-0.453303
-0.343572
-0.21404
-0.0726602
0.97236
0.729272
0.425788
0.104444
-0.196982
-0.450729
-0.640329
-0.759265
-0.808498
-0.793906
-0.724178
-0.609307
-0.45966
-0.28549
-0.0967699
1.34883
0.98953
0.548471
0.0927208
-0.32241
-0.660275
-0.902598
-1.04549
-1.09461
-1.06103
-0.958191
-0.800087
-0.600272
-0.371491
-0.125699
1.87011
1.33155
0.685845
0.0403785
-0.525102
-0.965364
-1.2643
-1.42548
-1.46344
-1.39741
-1.24747
-1.03258
-0.76985
-0.474503
-0.160233
2.60688
1.78071
0.822979
-0.0919495
-0.853013
-1.41178
-1.76375
-1.92868
-1.93626
-1.81771
-1.60169
-1.31291
-0.972045
-0.596437
-0.200965
3.67056
2.36144
0.917311
-0.378143
-1.38322
-2.06499
-2.45025
-2.58924
-2.53521
-2.33546
-2.02868
-1.64532
-1.20899
-0.738235
-0.248154
5.24235
3.07717
0.862969
-0.954709
-2.23675
-3.01469
-3.38303
-3.44282
-3.27988
-2.96024
-2.53227
-2.03069
-1.48035
-0.899364
-0.301572
7.61985
3.8419
0.412108
-2.06692
-3.59437
-4.37399
-4.62436
-4.51913
-4.18126
-3.69334
-3.10947
-2.46482
-1.78235
-1.0773
-0.360341
11.2539
4.25849
-0.989525
-4.1307
-5.69982
-6.26253
-6.22129
-5.82808
-5.2327
-4.52238
-3.74744
-2.93678
-2.10692
-1.26716
-0.422828
16.4857
2.92774
-4.498
-7.76654
-8.81167
-8.75503
-8.17019
-7.33918
-6.3991
-5.41604
-4.42111
-3.42796
-2.44137
-1.4616
-0.486634
20.9382
-4.53521
-12.1637
-13.6258
-13.0253
-11.7757
-10.3653
-8.95936
-7.60847
-6.32156
-5.09302
-3.91258
-2.76901
-1.65125
-0.548737
0.562371
1.695
2.8518
4.05061
5.31217
6.66188
8.13234
9.76717
11.6266
13.7953
16.3895
19.5465
23.2974
26.812
24.1871
0.57274
1.72646
2.90549
4.12866
5.41822
6.80198
8.31684
10.0146
11.9721
14.3117
17.2429
21.1667
26.973
37.0885
59.8837
0.577385
1.74036
2.92851
4.16062
5.45884
6.85103
8.37435
10.0815
12.0524
14.417
17.4063
21.4759
27.6482
38.5812
62.3738
0.576332
1.73677
2.92101
4.14665
5.43421
6.80902
8.30417
9.96537
11.8593
14.0887
16.8192
20.3215
24.9966
31.0702
35.895
0.569883
1.71664
2.88475
4.08969
5.349
6.68344
8.11868
9.68757
11.4333
13.4127
15.6967
18.3535
21.3656
24.3516
26.0277
0.558575
1.68169
2.82292
3.99498
5.2116
6.48786
7.84037
9.28697
10.8449
12.5251
14.3159
16.1412
17.759
18.5322
16.8933
0.543123
1.63417
2.73967
3.86932
5.03279
6.23932
7.49672
8.80904
10.1716
11.5606
12.911
14.0736
14.7422
14.3889
12.598
0.524333
1.57662
2.63964
3.72017
4.82407
5.95546
7.11492
8.29619
9.48005
10.6229
11.6362
12.3488
12.436
11.2442
7.07048
0.503031
1.5116
2.52747
3.55478
4.59626
5.6521
6.71796
7.78154
8.81693
9.77524
10.5702
11.0582
11.0182
10.1703
8.46465
0.47999
1.4415
2.40735
3.37954
4.35847
5.34179
6.32258
7.28647
8.20732
9.04098
9.71742
10.1341
10.1615
9.69208
8.80192
0.455886
1.36839
2.28284
3.19962
4.11763
5.03324
5.93893
6.82127
7.65826
8.41589
9.04499
9.48042
9.64966
9.50604
9.11703
0.431273
1.29393
2.15669
3.01885
3.87845
4.73157
5.57148
6.38758
7.16429
7.88007
8.50704
9.01157
9.35513
9.49041
9.33569
0.406583
1.21939
2.03096
2.83986
3.64377
4.43908
5.22056
5.98123
6.71262
7.40592
8.05412
8.6545
9.20521
9.67616
9.92428
0.38214
1.14572
1.90708
2.66433
3.41506
4.15618
4.88408
5.5952
6.28742
6.96307
7.6344
8.3319
9.11069
10.0166
10.7836
0.358183
1.07359
1.78604
2.49334
3.19302
3.88245
4.55926
5.22228
5.8737
6.52322
7.19649
7.95285
8.92784
10.4536
13.4674
0.334891
1.00351
1.66858
2.32763
2.97808
3.6175
4.24401
4.85742
5.4613
6.06688
6.70087
7.42197
8.36249
9.85724
12.9401
0.31241
0.935886
1.5553
2.16788
2.77082
3.36149
3.93784
4.49919
5.04771
5.59081
6.14473
6.73871
7.41226
8.158
8.51713
0.290863
0.871085
1.44677
2.01481
2.57207
3.11544
3.64208
4.14985
4.63787
5.10721
5.56079
6.00017
6.41188
6.72722
6.77087
0.27036
0.809435
1.34354
1.86924
2.38297
2.881
3.35943
3.81421
4.24101
4.63456
4.98668
5.28084
5.47842
5.48511
5.05686
0.251
0.751238
1.24614
1.73198
2.20478
2.66016
3.09319
3.49801
3.86724
4.19068
4.45282
4.62858
4.67751
4.54504
4.22325
0.232863
0.696745
1.15503
1.60378
2.03867
2.45485
2.84653
3.20652
3.52526
3.78934
3.97895
4.06439
4.00258
3.73645
3.18617
0.216007
0.646138
1.07055
1.48519
1.88557
2.26654
2.62188
2.94366
3.22125
3.43973
3.57741
3.60247
3.46951
3.12517
2.58855
0.200457
0.5995
0.99286
1.37649
1.74593
2.09603
2.42053
2.71148
2.95829
3.14621
3.25409
3.25026
3.08325
2.64741
1.60985
0.186206
0.55681
0.921922
1.27765
1.61974
1.94329
2.24247
2.50996
2.73621
2.90829
3.00832
3.01138
2.88367
2.58751
2.14654
0.173212
0.517933
0.857498
1.18829
1.50641
1.80748
2.08642
2.33709
2.55174
2.72039
2.82989
2.86332
2.80105
2.62817
2.35432
0.161399
0.482636
0.799163
1.10773
1.40492
1.68704
1.95001
2.18921
2.39923
2.57357
2.70429
2.78172
2.79525
2.73894
2.63784
0.150669
0.450611
0.746356
1.03507
1.31389
1.57989
1.83011
2.0616
2.27149
2.45704
2.61569
2.7445
2.83795
2.88081
2.82549
0.140908
0.421499
0.698427
0.96929
1.23177
1.4837
1.72322
1.949
2.16064
2.35919
2.54782
2.73184
2.91576
3.09086
3.20968
0.131997
0.394932
0.654711
0.909331
1.15697
1.39612
1.62586
1.84622
2.05887
2.26823
2.48315
2.71925
2.99971
3.33999
3.62742
0.123824
0.370555
0.614578
0.854221
1.08806
1.31508
1.53501
1.74879
1.9594
2.17341
2.40377
2.67585
3.04213
3.62581
4.77604
0.116286
0.34806
0.577485
0.803144
1.02388
1.23897
1.44845
1.65355
1.85757
2.06722
2.29542
2.56704
2.93356
3.5182
4.68587
0.109301
0.327196
0.543009
0.755488
0.963614
1.16676
1.36491
1.55908
1.75182
1.94816
2.15692
2.39234
2.67352
3.00571
3.2438
0.102807
0.307777
0.510847
0.710855
0.906811
1.09801
1.28415
1.4656
1.64357
1.82046
1.99991
2.18585
2.37805
2.55856
2.6731
0.0967595
0.289678
0.480813
0.669037
0.853316
1.03276
1.20666
1.37453
1.53607
1.691
1.8384
1.97501
2.0907
2.15723
2.0953
0.0911293
0.272818
0.452801
0.629957
0.803179
0.971362
1.13336
1.28785
1.43317
1.56676
1.68439
1.77869
1.83749
1.8451
1.80594
0.085895
0.257142
0.426752
0.593609
0.756542
0.914264
1.06526
1.20756
1.3384
1.4536
1.54658
1.60703
1.61982
1.56546
1.41893
0.0810382
0.242602
0.402615
0.559987
0.713525
0.86184
1.00319
1.13522
1.2545
1.35588
1.43135
1.46848
1.44878
1.34982
1.18195
0.0765371
0.22914
0.380311
0.529027
0.674135
0.814253
0.947601
1.07172
1.18304
1.27616
1.34274
1.36938
1.33279
1.18204
0.751029
0.0723631
0.216673
0.359714
0.500572
0.63821
0.771369
0.89842
1.01712
1.12421
1.21488
1.28185
1.3142
1.29609
1.20887
1.0639
0.0684785
0.205086
0.340632
0.474355
0.605395
0.732728
0.855042
0.970567
1.07679
1.17006
1.24502
1.29405
1.30738
1.27582
1.19787
0.0648363
0.194238
0.322817
0.449999
0.575156
0.697572
0.816381
0.930477
1.03837
1.13795
1.22619
1.29871
1.34983
1.375
1.38556
0.0613824
0.183959
0.305973
0.427051
0.546821
0.66492
0.780992
0.894696
1.00571
1.11372
1.21826
1.31824
1.4103
1.48432
1.50908
0.058059
0.174072
0.28978
0.40501
0.519648
0.633677
0.747247
0.860782
0.975151
1.0919
1.21352
1.34325
1.48331
1.62785
1.74983
0.0548085
0.164397
0.273918
0.38338
0.492897
0.602753
0.713528
0.82629
0.942932
1.06671
1.20313
1.36109
1.5532
1.78706
1.99718
0.0515776
0.15477
0.258096
0.361714
0.465911
0.571192
0.678428
0.789104
0.905756
1.03275
1.17779
1.35521
1.59411
1.96276
2.65588
0.0483208
0.145051
0.242071
0.339645
0.438173
0.538274
0.640939
0.74777
0.8614
0.986244
1.12996
1.30663
1.54491
1.91313
2.61361
0.0450021
0.135132
0.22566
0.316915
0.409343
0.503576
0.600557
0.701714
0.809258
0.926638
1.05925
1.21528
1.40547
1.63276
1.81677
0.0415958
0.124937
0.208743
0.293371
0.379258
0.466971
0.557275
0.651224
0.750285
0.856456
0.972266
1.10021
1.24027
1.38246
1.49726
0.0380852
0.11442
0.191257
0.268953
0.347906
0.428568
0.511462
0.597185
0.686376
0.779581
0.876858
0.976732
1.07359
1.15116
1.16326
0.0344604
0.103555
0.173173
0.243662
0.315367
0.388615
0.463684
0.540737
0.61968
0.69988
0.779646
0.855347
0.920308
0.965338
0.992291
0.0307146
0.0923273
0.154484
0.217527
0.281757
0.347397
0.414529
0.482979
0.552111
0.62048
0.685258
0.741421
0.780867
0.792069
0.757231
0.0268415
0.0807213
0.135181
0.190569
0.247168
0.305143
0.364459
0.424747
0.485073
0.543573
0.596855
0.639104
0.661039
0.650772
0.613279
0.0228319
0.0687128
0.115232
0.162769
0.211623
0.261958
0.313716
0.366488
0.419304
0.470291
0.516113
0.550895
0.563576
0.528382
0.358654
0.0186714
0.0562611
0.0945773
0.134056
0.175051
0.217784
0.262268
0.3082
0.354805
0.400597
0.443038
0.478036
0.49936
0.499419
0.484296
0.0143396
0.0433048
0.0731153
0.10429
0.137273
0.172395
0.209814
0.249446
0.290871
0.333231
0.375134
0.414671
0.449912
0.481
0.516202
0.00980911
0.0297616
0.0507062
0.0732673
0.0980102
0.125411
0.155825
0.189447
0.226289
0.266184
0.308872
0.354292
0.403348
0.459725
0.533639
0.00504652
0.0155296
0.0271748
0.04073
0.0569014
0.0763361
0.0996077
0.127212
0.159587
0.197197
0.240714
0.29139
0.3517
0.426272
0.523144
1.31089e-05
0.000490644
0.00231726
0.00637615
0.0135266
0.0245967
0.0403825
0.0616632
0.0892512
0.124109
0.167584
0.221798
0.29015
0.377334
0.486087
-0.00533368
-0.0154851
-0.0240904
-0.0301244
-0.0325698
-0.030417
-0.0226581
-0.00826479
0.013867
0.045039
0.0869969
0.142388
0.215523
0.313418
0.446958
-0.0110387
-0.0325344
-0.0522834
-0.0691168
-0.081859
-0.0893235
-0.0903055
-0.0835661
-0.0677944
-0.0415209
-0.00291777
0.0506577
0.123702
0.22475
0.368627
-0.0171478
-0.0507966
-0.0825009
-0.11095
-0.134813
-0.152731
-0.163315
-0.165139
-0.156748
-0.136642
-0.103229
-0.054592
0.0124365
0.10634
0.261636
-0.0237059
-0.0704091
-0.114979
-0.155968
-0.191895
-0.221232
-0.242406
-0.253806
-0.253836
-0.241004
-0.214111
-0.172612
-0.117491
-0.0547027
-0.0146833
-0.0307562
-0.0915031
-0.149943
-0.204501
-0.253553
-0.295403
-0.328283
-0.350369
-0.359856
-0.35513
-0.335136
-0.300091
-0.252742
-0.199932
-0.148847
-0.0383381
-0.114199
-0.187602
-0.256859
-0.320211
-0.375802
-0.421654
-0.455681
-0.475745
-0.479858
-0.466613
-0.436114
-0.391784
-0.343961
-0.319512
-0.0464858
-0.138603
-0.228139
-0.313316
-0.39226
-0.462963
-0.523239
-0.570687
-0.602713
-0.616638
-0.610069
-0.581742
-0.53325
-0.471759
-0.409408
-0.0552269
-0.164799
-0.271705
-0.374101
-0.47003
-0.557366
-0.63373
-0.696405
-0.742248
-0.76765
-0.768635
-0.741373
-0.683743
-0.600152
-0.517071
-0.0645805
-0.192845
-0.318402
-0.439376
-0.553769
-0.659388
-0.753726
-0.83381
-0.89598
-0.935616
-0.946818
-0.922091
-0.852265
-0.728191
-0.556913
-0.0745563
-0.222773
-0.368283
-0.50922
-0.643601
-0.769243
-0.883622
-0.983655
-1.06536
-1.12333
-1.14995
-1.13413
-1.05846
-0.889011
-0.523023
-0.0851543
-0.254579
-0.42134
-0.583616
-0.739501
-0.886918
-1.02348
-1.14623
-1.25122
-1.33281
-1.38256
-1.38773
-1.32977
-1.18632
-0.961397
-0.0963661
-0.288235
-0.47751
-0.662452
-0.841282
-1.01213
-1.17293
-1.32114
-1.45333
-1.56439
-1.64612
-1.68517
-1.66045
-1.5402
-1.26881
-0.108178
-0.323692
-0.536691
-0.74553
-0.948603
-1.14433
-1.33111
-1.50716
-1.67013
-1.81636
-1.93931
-2.02689
-2.05747
-1.99904
-1.83997
-0.120574
-0.360894
-0.59876
-0.832614
-1.06102
-1.28274
-1.49675
-1.70226
-1.89855
-2.08447
-2.25708
-2.40818
-2.51631
-2.52775
-2.30384
-0.133543
-0.399802
-0.663615
-0.923476
-1.17809
-1.42651
-1.6683
-1.90376
-2.13416
-2.36184
-2.58978
-2.81932
-3.0423
-3.21991
-3.25967
-0.147087
-0.440408
-0.731214
-1.01798
-1.29946
-1.57488
-1.84424
-2.10878
-2.37167
-2.63903
-2.92136
-3.23502
-3.5998
-4.0078
-4.20932
-0.161223
-0.482762
-0.801617
-1.11616
-1.42504
-1.72746
-2.02353
-2.31495
-2.60608
-2.90581
-3.23119
-3.61522
-4.12729
-4.93906
-6.58409
-0.17599
-0.526978
-0.875017
-1.21826
-1.55511
-1.88444
-2.20604
-2.52132
-2.8345
-3.15479
-3.5003
-3.90649
-4.44665
-5.29168
-6.91225
-0.191446
-0.573241
-0.951746
-1.32481
-1.6904
-2.04679
-2.39295
-2.72914
-3.058
-3.38624
-3.72727
-4.10472
-4.5543
-5.10572
-5.63259
-0.207665
-0.621788
-1.03225
-1.43655
-1.83207
-2.21626
-2.58678
-2.94205
-3.28192
-3.60881
-3.92896
-4.25285
-4.59123
-4.93679
-5.21715
-0.224724
-0.672873
-1.11705
-1.55437
-1.98162
-2.3952
-2.79122
-3.16565
-3.51485
-3.83606
-4.12806
-4.39092
-4.62317
-4.81315
-4.91774
-0.242683
-0.726715
-1.20661
-1.67919
-2.14066
-2.58635
-3.01063
-3.40679
-3.76721
-4.08359
-4.3474
-4.55023
-4.68448
-4.74881
-4.77561
-0.26157
-0.783428
-1.30125
-1.81174
-2.31064
-2.79237
-3.24956
-3.67276
-4.05015
-4.36762
-4.6091
-4.75716
-4.79433
-4.71054
-4.53932
-0.281349
-0.842942
-1.40099
-1.95232
-2.49256
-3.01542
-3.51211
-3.97053
-4.37469
-4.70442
-4.93568
-5.0411
-4.98817
-4.73299
-4.28054
-0.301896
-0.90492
-1.50538
-2.10062
-2.68653
-3.25665
-3.80123
-4.30598
-4.75093
-5.10961
-5.34964
-5.435
-5.32246
-4.89244
-3.44454
-0.322975
-0.968683
-1.61338
-2.25541
-2.89147
-3.51563
-4.118
-4.68297
-5.18707
-5.59719
-5.87103
-5.96633
-5.87723
-5.75875
-6.38715
-0.344223
-1.03315
-1.72324
-2.41434
-3.10467
-3.78973
-4.46075
-5.10221
-5.68849
-6.17941
-6.51639
-6.62571
-6.45241
-6.1064
-6.42116
-0.365138
-1.0968
-1.8324
-2.57381
-3.32152
-4.07359
-4.82402
-5.55978
-6.25613
-6.86852
-7.31984
-7.48136
-7.14752
-5.99517
-3.37602
-0.38509
-1.15771
-1.93754
-2.72891
-3.53533
-4.35861
-5.19746
-6.04473
-6.88207
-7.6695
-8.32454
-8.68101
-8.41105
-6.90255
-3.20095
-0.403347
-1.21362
-2.03465
-2.87357
-3.73743
-4.6328
-5.56506
-6.53658
-7.54268
-8.5624
-9.53658
-10.3157
-10.5347
-9.33293
-4.90107
-0.419117
-1.26207
-2.11933
-3.00092
-3.91764
-4.88138
-5.9054
-7.0044
-8.19385
-9.48691
-10.8841
-12.3394
-13.6449
-14.0064
-10.3306
-0.43161
-1.30058
-2.1871
-3.10387
-4.0652
-5.0881
-6.19366
-7.40941
-8.77306
-10.3391
-12.1913
-14.4671
-17.4105
-21.4838
-27.5553
-11.2467
-25.7286
-24.316
-20.7643
-17.4657
-14.7009
-12.3862
-10.4059
-8.66795
-7.10552
-5.67039
-4.32705
-3.04839
-1.81269
-0.601562
-110.995
-57.8564
-37.3282
-27.1901
-21.1472
-17.0398
-13.9793
-11.5419
-9.50056
-7.72309
-6.12647
-4.65527
-3.27007
-1.94095
-0.64356
-123.412
-67.3383
-43.1251
-30.7719
-23.4847
-18.6515
-15.1399
-12.4027
-10.15
-8.21506
-6.49545
-4.92377
-3.4528
-2.04719
-0.678424
-67.7845
-54.6948
-40.6859
-30.8356
-24.118
-19.3456
-15.7626
-12.9272
-10.5786
-8.55751
-6.76171
-5.12232
-3.59014
-2.12783
-0.705016
-47.8407
-42.6895
-35.3589
-28.7238
-23.4004
-19.2135
-15.8663
-13.1136
-10.7799
-8.74348
-6.91937
-5.24643
-3.67896
-2.18105
-0.722729
-30.3681
-32.1976
-29.5488
-25.7011
-21.8937
-18.4984
-15.5571
-13.009
-10.7747
-8.78203
-6.97203
-5.29729
-3.71949
-2.20677
-0.731512
-22.3947
-24.8158
-24.5713
-22.6505
-20.1007
-17.468
-14.9749
-12.6866
-10.6016
-8.69375
-6.93077
-5.28083
-3.71481
-2.20647
-0.731801
-12.436
-19.285
-20.7579
-20.0366
-18.3654
-16.3405
-14.2504
-12.223
-10.3054
-8.5049
-6.81102
-5.20608
-3.67008
-2.18279
-0.724404
-14.9934
-17.4874
-18.4683
-18.0825
-16.8756
-15.2585
-13.4822
-11.6833
-9.92794
-8.24198
-6.62949
-5.08346
-3.59154
-2.13903
-0.710356
-15.6408
-16.7407
-17.1278
-16.6986
-15.6705
-14.2871
-12.7297
-11.1133
-9.50229
-7.92804
-6.40182
-4.92327
-3.48561
-2.07872
-0.690778
-16.2455
-16.4889
-16.3543
-15.7304
-14.7124
-13.4364
-12.0183