/*--------------------------------*- C++ -*----------------------------------*\
| =========                 |                                                 |
| \\      /  F ield         | OpenFOAM: The Open Source CFD Toolbox           |
|  \\    /   O peration     | Version:  5.x                                   |
|   \\  /    A nd           | Web:      www.OpenFOAM.org                      |
|    \\/     M anipulation  |                                                 |
\*---------------------------------------------------------------------------*/
FoamFile
{
    version     2.0;
    format      ascii;
    class       volScalarField;
    location    "6.9";
    object      gradTy;
}
// * * * * * * * * * * * * * * * * * * * * * * * * * * * * * * * * * * * * * //

dimensions      [0 -1 0 1 0 0 0];

internalField   nonuniform List<scalar> 
3200
(
18.249
8.63592
11.73
8.31252
9.74991
8.03994
8.79412
7.79289
8.24178
7.60096
7.87636
7.51748
7.72794
7.31761
7.52986
7.1396
7.33877
6.98021
7.16198
6.83807
7.00139
6.71246
6.85753
6.60241
6.73042
6.50627
6.62052
6.4209
6.53588
6.36676
6.23162
6.31876
6.2003
6.25794
6.16581
6.21045
6.13648
6.17238
6.11227
6.14146
6.09244
6.11622
6.07629
6.09558
6.06331
6.07875
6.0532
6.06509
6.04599
6.05416
6.0431
6.04923
6.03768
6.04305
6.03414
6.03775
6.03287
6.03389
6.03458
6.03189
6.04067
6.03231
6.05368
6.03585
6.07865
6.04278
6.12653
6.04836
6.22317
6.00076
6.29315
7.10888
6.4216
7.94767
6.78058
9.89627
9.12564
9.00779
8.98346
8.97822
17.0094
9.75184
11.3323
8.77649
9.54713
8.27011
8.67388
7.92541
8.16461
7.68514
7.83219
7.56431
7.67647
7.36908
7.4812
7.18885
7.29415
7.02559
7.12173
6.87912
6.96552
6.74912
6.82588
6.63481
6.70257
6.53473
6.59537
6.44608
6.50841
6.37054
6.25649
6.30438
6.21591
6.24664
6.17768
6.20135
6.14597
6.16498
6.11997
6.13543
6.09872
6.11131
6.08141
6.09162
6.06745
6.07562
6.05649
6.06277
6.04847
6.05281
6.04455
6.04781
6.03915
6.04198
6.0353
6.0372
6.03353
6.03406
6.03457
6.03312
6.03968
6.03521
6.05118
6.04163
6.0736
6.0543
6.11672
6.07393
6.20338
6.07616
6.35164
6.99358
6.62344
7.765
7.158
9.50295
9.0995
9.00402
8.98266
8.97798
16.0601
10.5142
11.1001
9.10738
9.42623
8.43303
8.5997
8.0184
8.11615
7.74424
7.80459
7.59592
7.64176
7.40373
7.44869
7.22216
7.26447
7.05634
7.095
6.90699
6.94174
6.77403
6.80491
6.65683
6.68412
6.55402
6.5786
6.46277
6.48893
6.37335
6.27487
6.29544
6.22673
6.2393
6.18582
6.1954
6.15246
6.16013
6.12524
6.13147
6.10301
6.10809
6.08491
6.08902
6.07029
6.07358
6.05875
6.06128
6.0502
6.05196
6.04553
6.04685
6.04016
6.04128
6.03611
6.03687
6.03403
6.03423
6.03463
6.03403
6.03912
6.03728
6.04969
6.04575
6.0706
6.06254
6.11112
6.09262
6.19384
6.13546
6.39546
6.91877
6.76482
7.65229
7.41734
9.21959
9.06106
8.99731
8.98123
8.97758
15.3326
11.0313
10.971
9.3458
9.35782
8.54954
8.55544
8.08422
8.08647
7.78605
7.78775
7.61734
7.6184
7.42706
7.42703
7.24473
7.2448
7.07723
7.07734
6.92594
6.92605
6.79099
6.7911
6.67183
6.67197
6.56713
6.56744
6.47378
6.47512
6.37547
6.28849
6.29006
6.23429
6.2346
6.19145
6.19154
6.15693
6.15698
6.12886
6.1289
6.10596
6.10599
6.08732
6.08734
6.07225
6.07226
6.06032
6.06033
6.05141
6.05144
6.0462
6.04622
6.04085
6.04084
6.03668
6.03668
6.0344
6.03439
6.03473
6.03471
6.03885
6.03879
6.04886
6.04872
6.06891
6.06851
6.1082
6.10651
6.19069
6.18202
6.42876
6.87105
6.86454
7.58447
7.59521
9.01466
9.01884
8.98869
8.9793
8.97703
14.7772
11.3787
10.9046
9.51874
9.32221
8.6335
8.53026
8.13111
8.0689
7.81577
7.7778
7.6319
7.60274
7.44274
7.41267
7.26
7.23183
7.09141
7.06574
6.93884
6.91578
6.80255
6.78207
6.68206
6.66401
6.57603
6.56004
6.48098
6.46535
6.37708
6.29856
6.28698
6.23962
6.23164
6.19534
6.18908
6.16001
6.15496
6.13136
6.12725
6.108
6.10465
6.08898
6.08626
6.0736
6.07142
6.06141
6.05973
6.05226
6.05112
6.04666
6.0458
6.04132
6.04056
6.03709
6.03657
6.03469
6.03453
6.03485
6.03521
6.03874
6.03988
6.04843
6.05087
6.06804
6.07288
6.10693
6.11697
6.19125
6.21836
6.45423
6.84128
6.9352
7.54503
7.71672
8.86635
8.97798
8.97924
8.97708
8.97639
14.3577
11.6092
10.8746
9.6441
9.30629
8.69403
8.51691
8.16451
8.05897
7.83688
7.77216
7.64179
7.59231
7.45323
7.40321
7.27028
7.22336
7.101
7.05818
6.94758
6.9091
6.81039
6.77622
6.689
6.65886
6.58204
6.55516
6.48565
6.45848
6.37831
6.30595
6.28532
6.24337
6.22982
6.19803
6.18753
6.16213
6.15368
6.13307
6.1262
6.1094
6.1038
6.09012
6.08558
6.07453
6.0709
6.06217
6.05936
6.05286
6.05094
6.04697
6.04553
6.04165
6.04038
6.03738
6.03653
6.0349
6.03466
6.03497
6.0356
6.03872
6.04069
6.04825
6.05243
6.06767
6.07608
6.10662
6.12486
6.19371
6.24636
6.47365
6.82324
6.98522
7.5231
7.79911
8.75956
8.94155
8.96993
8.9748
8.97573
14.0481
11.7592
10.8644
9.73375
9.30135
8.73715
8.51058
8.18804
8.0537
7.8517
7.76914
7.64845
7.58546
7.46015
7.39707
7.27713
7.2179
7.10741
7.05334
6.95343
6.90484
6.81566
6.77249
6.69367
6.65556
6.58606
6.55198
6.48863
6.45373
6.37922
6.31127
6.28452
6.24598
6.22872
6.19987
6.18657
6.16358
6.15288
6.13424
6.12555
6.11035
6.10327
6.0909
6.08516
6.07517
6.07057
6.06268
6.05915
6.05328
6.05084
6.04719
6.04536
6.04187
6.04028
6.03758
6.03651
6.03506
6.03476
6.03507
6.03588
6.03876
6.04126
6.0482
6.05355
6.06758
6.0784
6.10681
6.13072
6.1968
6.26736
6.48818
6.8127
7.02021
7.51166
7.85413
8.6839
8.91126
8.96156
8.97269
8.9751
13.8301
11.8533
10.8636
9.79547
9.30167
8.76677
8.50809
8.20405
8.05114
7.86174
7.76765
7.6528
7.5811
7.46458
7.3932
7.28155
7.21449
7.11156
7.05033
6.95723
6.9022
6.81908
6.77018
6.6967
6.65353
6.58867
6.54997
6.49047
6.45056
6.37987
6.31495
6.2842
6.24774
6.22809
6.20109
6.186
6.16453
6.15241
6.13501
6.12515
6.11097
6.10295
6.09141
6.0849
6.07559
6.07038
6.06303
6.05902
6.05356
6.05079
6.04733
6.04525
6.04202
6.04022
6.03772
6.03651
6.03517
6.03484
6.03515
6.03608
6.0388
6.04166
6.04821
6.05433
6.06761
6.08001
6.10717
6.1349
6.19972
6.28236
6.49857
6.80685
7.04384
7.50617
7.88966
8.63235
8.88805
8.95476
8.97092
8.97457
13.6911
11.908
10.866
9.83422
9.30364
8.78534
8.50741
8.214
8.05003
7.86796
7.76699
7.65542
7.57854
7.4672
7.39094
7.28418
7.21252
7.11404
7.04859
6.95951
6.90068
6.82114
6.76886
6.69852
6.65236
6.59022
6.5488
6.49153
6.44863
6.38029
6.31726
6.2841
6.24883
6.22775
6.20183
6.18568
6.16511
6.15214
6.13547
6.12493
6.11135
6.10277
6.09172
6.08476
6.07584
6.07028
6.06324
6.05896
6.05373
6.05076
6.04741
6.04519
6.0421
6.04019
6.0378
6.03652
6.03525
6.0349
6.03521
6.03621
6.03884
6.04192
6.04825
6.05482
6.06767
6.08103
6.10752
6.13759
6.20193
6.29202
6.50527
6.80384
7.05846
7.50384
7.91082
8.60027
8.8724
8.94998
8.96966
8.97419
13.6235
11.933
10.868
9.85291
9.30512
8.7943
8.50734
8.21878
8.04965
7.87095
7.76676
7.65665
7.57736
7.46842
7.38991
7.28541
7.21161
7.1152
7.0478
6.96057
6.89999
6.8221
6.76826
6.69938
6.65182
6.59095
6.54826
6.492
6.44771
6.38049
6.31837
6.28408
6.24935
6.2276
6.20219
6.18554
6.16538
6.15202
6.13569
6.12484
6.11153
6.10269
6.09187
6.0847
6.07596
6.07023
6.06334
6.05893
6.05382
6.05076
6.04745
6.04516
6.04215
6.04017
6.03784
6.03652
6.03528
6.03492
6.03524
6.03627
6.03887
6.04204
6.04827
6.05505
6.06772
6.08153
6.10772
6.13891
6.20311
6.29674
6.50856
6.80259
7.06545
7.50304
7.92068
8.58489
8.86453
8.94752
8.969
8.97399
-13.7613
-11.9559
-10.7268
-9.38765
-8.57724
-7.68538
-7.12343
-6.47154
-6.05651
-5.57441
-5.28097
-4.95533
-4.71771
-4.38918
-4.1535
-3.84178
-3.62394
-3.34272
-3.14846
-2.9003
-2.72974
-2.51288
-2.36408
-2.17509
-2.04507
-1.87911
-1.76255
-1.60855
-1.48612
-1.29845
-1.12273
-1.02412
-0.921776
-0.856439
-0.77833
-0.726205
-0.661718
-0.61819
-0.563833
-0.527022
-0.480927
-0.449701
-0.410608
-0.384186
-0.35122
-0.329113
-0.301823
-0.283937
-0.262547
-0.249346
-0.23446
-0.223497
-0.208226
-0.197224
-0.182614
-0.172377
-0.159131
-0.14997
-0.138259
-0.130223
-0.120037
-0.113129
-0.104511
-0.0989031
-0.0923531
-0.0890067
-0.0869768
-0.0904292
-0.104699
-0.13863
-0.228744
-0.374878
-0.529472
-0.815972
-1.11865
-1.6278
-1.84319
-1.90719
-1.92376
-1.92761
-13.8336
-11.9328
-10.7313
-9.36651
-8.5805
-7.67219
-7.12703
-6.46207
-6.05919
-5.56687
-5.28226
-4.95182
-4.72135
-4.38548
-4.15654
-3.83803
-3.62648
-3.33925
-3.15062
-2.8972
-2.7316
-2.51016
-2.36569
-2.17273
-2.04651
-1.87714
-1.76405
-1.60729
-1.48873
-1.29798
-1.11965
-1.02427
-0.920298
-0.856952
-0.777293
-0.726702
-0.660882
-0.618625
-0.563133
-0.527395
-0.480334
-0.450017
-0.410102
-0.38445
-0.350787
-0.329321
-0.301448
-0.284079
-0.262221
-0.249414
-0.234304
-0.223671
-0.208057
-0.197369
-0.18244
-0.172499
-0.158969
-0.150073
-0.138113
-0.13031
-0.119907
-0.113198
-0.104392
-0.0989416
-0.0922257
-0.0889548
-0.0867582
-0.0899972
-0.103913
-0.136383
-0.226503
-0.374539
-0.524196
-0.815325
-1.11039
-1.63955
-1.84924
-1.90909
-1.92427
-1.92777
-13.9818
-11.8818
-10.7422
-9.32221
-8.58866
-7.64448
-7.13543
-6.44213
-6.06546
-5.55103
-5.28539
-4.94431
-4.72921
-4.37749
-4.16317
-3.83
-3.63205
-3.33184
-3.15537
-2.8906
-2.73569
-2.50437
-2.36924
-2.16771
-2.04968
-1.87292
-1.7673
-1.6045
-1.49424
-1.29701
-1.11326
-1.02477
-0.917199
-0.858121
-0.775096
-0.72781
-0.659105
-0.619592
-0.561646
-0.528223
-0.479073
-0.45072
-0.409029
-0.385036
-0.349868
-0.329788
-0.300655
-0.284402
-0.261534
-0.249577
-0.233971
-0.224045
-0.207692
-0.197686
-0.182068
-0.172765
-0.158622
-0.1503
-0.137801
-0.130502
-0.11963
-0.113353
-0.104139
-0.0990316
-0.0919613
-0.0888606
-0.0863229
-0.0891387
-0.102386
-0.131831
-0.221947
-0.374137
-0.513261
-0.81452
-1.09277
-1.66408
-1.86129
-1.91277
-1.92524
-1.92806
-14.2141
-11.7924
-10.7644
-9.25047
-8.60525
-7.59937
-7.1512
-6.40952
-6.07725
-5.52524
-5.29155
-4.93176
-4.74255
-4.36402
-4.17457
-3.81657
-3.64171
-3.31948
-3.16367
-2.8796
-2.74285
-2.49473
-2.37546
-2.15936
-2.05521
-1.86586
-1.77284
-1.59962
-1.50323
-1.29551
-1.10305
-1.02603
-0.912162
-0.86025
-0.771472
-0.729778
-0.656164
-0.621299
-0.559179
-0.529683
-0.476983
-0.451958
-0.407249
-0.38607
-0.348348
-0.330619
-0.299348
-0.284991
-0.260412
-0.249886
-0.233412
-0.224677
-0.207074
-0.198228
-0.181444
-0.173226
-0.158044
-0.150695
-0.137283
-0.130838
-0.11917
-0.113625
-0.103723
-0.099201
-0.091539
-0.0887448
-0.0856742
-0.0878638
-0.100211
-0.124852
-0.214908
-0.374257
-0.495841
-0.814636
-1.06343
-1.70358
-1.87917
-1.91801
-1.9266
-1.92847
-14.5432
-11.6472
-10.806
-9.14399
-8.63627
-7.53195
-7.17872
-6.36054
-6.09783
-5.48672
-5.30275
-4.9124
-4.76346
-4.34299
-4.19271
-3.79583
-3.65728
-3.30047
-3.17709
-2.86271
-2.75447
-2.47994
-2.38555
-2.14653
-2.06414
-1.85494
-1.7816
-1.59167
-1.51667
-1.29339
-1.08823
-1.02878
-0.90465
-0.863857
-0.765968
-0.733025
-0.651675
-0.624099
-0.55541
-0.532073
-0.473788
-0.453985
-0.40453
-0.387768
-0.34603
-0.331993
-0.297367
-0.28599
-0.25873
-0.250435
-0.232545
-0.225666
-0.206107
-0.199089
-0.180479
-0.173967
-0.157153
-0.151334
-0.136487
-0.131384
-0.118466
-0.114073
-0.103092
-0.0994969
-0.0909228
-0.0886409
-0.0848159
-0.0861833
-0.0975452
-0.115258
-0.205098
-0.375888
-0.470533
-0.817551
-1.01843
-1.76165
-1.90251
-1.92447
-1.92823
-1.92895
-14.9882
-11.4198
-10.8804
-8.99134
-8.69116
-7.4345
-7.22484
-6.28935
-6.13235
-5.43112
-5.32221
-4.88338
-4.79523
-4.31116
-4.22072
-3.76475
-3.68158
-3.27212
-3.19817
-2.83758
-2.77274
-2.45795
-2.40143
-2.12743
-2.07816
-1.8386
-1.79502
-1.57912
-1.53605
-1.29056
-1.06759
-1.03411
-0.893808
-0.86975
-0.757868
-0.738212
-0.645038
-0.628545
-0.54983
-0.535863
-0.469056
-0.457201
-0.400505
-0.390468
-0.342605
-0.334193
-0.294457
-0.287626
-0.256291
-0.25137
-0.231239
-0.227163
-0.20464
-0.200416
-0.179031
-0.175122
-0.155824
-0.152335
-0.135303
-0.132244
-0.117422
-0.114785
-0.102167
-0.0999928
-0.0900558
-0.0885994
-0.0837506
-0.0841037
-0.0946261
-0.102779
-0.19205
-0.380565
-0.435129
-0.826312
-0.951733
-1.84382
-1.93061
-1.93164
-1.92998
-1.92945
-15.5759
-11.0713
-11.0089
-8.77513
-8.78431
-7.29517
-7.30001
-6.18702
-6.18864
-5.35183
-5.35488
-4.84035
-4.84285
-4.26359
-4.26335
-3.71877
-3.71894
-3.23037
-3.23071
-2.80063
-2.80101
-2.42564
-2.42602
-2.09936
-2.09978
-1.81443
-1.81534
-1.55967
-1.56353
-1.28683
-1.03937
-1.04372
-0.878318
-0.879159
-0.746082
-0.746341
-0.635336
-0.635483
-0.541662
-0.541769
-0.462128
-0.462212
-0.394616
-0.394682
-0.337604
-0.337647
-0.290233
-0.290244
-0.252796
-0.252914
-0.229293
-0.2294
-0.202443
-0.202429
-0.176886
-0.176893
-0.153864
-0.153879
-0.13356
-0.133575
-0.115892
-0.115898
-0.100825
-0.1008
-0.0888504
-0.0886945
-0.0824781
-0.0816181
-0.0918025
-0.0870554
-0.175032
-0.3906
-0.386261
-0.845703
-0.854372
-1.9582
-1.96215
-1.93893
-1.93169
-1.92994
-16.3438
-10.5451
-11.2241
-8.46922
-8.9374
-7.09609
-7.41989
-6.04012
-6.27848
-5.23896
-5.40825
-4.77664
-4.91374
-4.19286
-4.32776
-3.651
-3.77585
-3.16906
-3.28047
-2.74647
-2.84432
-2.3783
-2.46369
-2.0582
-2.13285
-1.77881
-1.84592
-1.52984
-1.60223
-1.28194
-1.00108
-1.06012
-0.856183
-0.893928
-0.728966
-0.758924
-0.62119
-0.646182
-0.529738
-0.550867
-0.452012
-0.469933
-0.386023
-0.401183
-0.33032
-0.343001
-0.284113
-0.294362
-0.247801
-0.25541
-0.226398
-0.232721
-0.199169
-0.205466
-0.17372
-0.179586
-0.150983
-0.156237
-0.131006
-0.135615
-0.113655
-0.117615
-0.098882
-0.102085
-0.087174
-0.0890328
-0.080992
-0.0786914
-0.0895767
-0.0676239
-0.152912
-0.409432
-0.318842
-0.883126
-0.713205
-2.11657
-1.99476
-1.94558
-1.93317
-1.93036
-17.3437
-9.75985
-11.5768
-8.03439
-9.18288
-6.81041
-7.60791
-5.8285
-6.41944
-5.07773
-5.49367
-4.68218
-5.01896
-4.0879
-4.42465
-3.55117
-3.86204
-3.07902
-3.35606
-2.66703
-2.91018
-2.30891
-2.521
-1.99785
-2.18306
-1.72634
-1.89184
-1.48447
-1.65665
-1.27547
-0.949202
-1.08704
-0.824382
-0.916807
-0.704055
-0.778217
-0.600538
-0.66254
-0.512314
-0.564767
-0.437228
-0.481729
-0.373468
-0.411128
-0.319696
-0.351219
-0.275229
-0.300755
-0.24064
-0.259372
-0.222092
-0.237638
-0.194303
-0.210025
-0.169051
-0.18366
-0.146749
-0.159815
-0.127259
-0.138718
-0.110382
-0.12024
-0.0960624
-0.104096
-0.0848277
-0.0897679
-0.079277
-0.075238
-0.0886652
-0.0439034
-0.123942
-0.442149
-0.225229
-0.949916
-0.509106
-2.33595
-2.02448
-1.95075
-1.93427
-1.93066
-18.6471
-8.59872
-12.144
-7.41213
-9.56939
-6.39813
-7.89922
-5.52226
-6.63791
-4.84641
-5.62839
-4.54199
-5.17509
-3.93243
-4.57014
-3.40415
-3.99217
-2.94677
-3.47047
-2.55048
-3.01
-2.20715
-2.60789
-1.90932
-2.25911
-1.64914
-1.96082
-1.41606
-1.73334
-1.26693
-0.878876
-1.1301
-0.778488
-0.952003
-0.667768
-0.807685
-0.570391
-0.687481
-0.48687
-0.585953
-0.415642
-0.499715
-0.35515
-0.426309
-0.304221
-0.363806
-0.262347
-0.310635
-0.230384
-0.265632
-0.215727
-0.244965
-0.187125
-0.216904
-0.162206
-0.189842
-0.140561
-0.165263
-0.121792
-0.143455
-0.10562
-0.124264
-0.091989
-0.107233
-0.0815446
-0.0911519
-0.0773326
-0.0711146
-0.0901059
-0.0152156
-0.0854638
-0.496277
-0.0939572
-1.06332
-0.214294
-2.64085
-2.04466
-1.95362
-1.93484
-1.9308
18.6471
8.59872
12.144
7.41212
9.56939
6.39813
7.89922
5.52226
6.63791
4.84641
5.62838
4.54199
5.17509
3.93243
4.57014
3.40415
3.99217
2.94677
3.47047
2.55048
3.01
2.20715
2.60789
1.90931
2.25911
1.64913
1.96082
1.41606
1.73334
1.26693
0.878874
1.1301
0.778487
0.952003
0.667767
0.807684
0.57039
0.687481
0.486869
0.585953
0.415641
0.499714
0.355149
0.426309
0.304221
0.363806
0.262347
0.310634
0.230383
0.265632
0.215727
0.244965
0.187125
0.216904
0.162206
0.189842
0.14056
0.165263
0.121792
0.143455
0.105619
0.124264
0.0919888
0.107233
0.0815444
0.0911519
0.0773324
0.0711148
0.0901055
0.0152161
0.0854635
0.496275
0.0939571
1.06332
0.214294
2.64085
2.04466
1.95363
1.93484
1.9308
17.3437
9.75985
11.5768
8.0344
9.18288
6.81041
7.60792
5.8285
6.41944
5.07774
5.49367
4.68218
5.01897
4.08791
4.42465
3.55117
3.86204
3.07903
3.35606
2.66703
2.91019
2.30891
2.521
1.99785
2.18307
1.72634
1.89184
1.48447
1.65665
1.27547
0.949204
1.08704
0.824384
0.916809
0.704056
0.778218
0.600539
0.662542
0.512316
0.564769
0.437229
0.48173
0.373469
0.411129
0.319697
0.35122
0.27523
0.300756
0.240641
0.259373
0.222093
0.237639
0.194303
0.210026
0.169052
0.183661
0.14675
0.159816
0.12726
0.138719
0.110383
0.120241
0.0960631
0.104097
0.0848283
0.0897686
0.0792775
0.0752387
0.0886654
0.043904
0.123942
0.442147
0.225227
0.949915
0.509104
2.33596
2.02448
1.95076
1.93427
1.93066
16.3438
10.5451
11.2242
8.46923
8.93741
7.0961
7.41989
6.04013
6.27849
5.23897
5.40826
4.77664
4.91375
4.19287
4.32777
3.651
3.77586
3.16906
3.28048
2.74647
2.84432
2.37831
2.4637
2.05821
2.13285
1.77881
1.84593
1.52984
1.60224
1.28194
1.00109
1.06012
0.856186
0.893931
0.728969
0.758927
0.621193
0.646185
0.529741
0.55087
0.452015
0.469936
0.386025
0.401186
0.330322
0.343003
0.284115
0.294365
0.247803
0.255412
0.2264
0.232723
0.199171
0.205468
0.173722
0.179588
0.150985
0.156238
0.131007
0.135616
0.113656
0.117616
0.0988833
0.102087
0.0871752
0.089034
0.080993
0.0786925
0.0895774
0.0676247
0.152912
0.409431
0.318841
0.883124
0.713203
2.11657
1.99476
1.94558
1.93317
1.93036
15.5759
11.0713
11.0089
8.77514
8.78432
7.29518
7.30001
6.18703
6.18865
5.35184
5.35489
4.84036
4.84286
4.2636
4.26336
3.71877
3.71895
3.23037
3.23072
2.80064
2.80102
2.42565
2.42603
2.09937
2.09979
1.81443
1.81534
1.55967
1.56353
1.28684
1.03938
1.04372
0.878323
0.879163
0.746086
0.746345
0.63534
0.635487
0.541665
0.541773
0.462131
0.462216
0.394619
0.394685
0.337607
0.337649
0.290235
0.290247
0.252799
0.252917
0.229295
0.229402
0.202445
0.202432
0.176888
0.176895
0.153866
0.15388
0.133562
0.133576
0.115894
0.1159
0.100826
0.100802
0.0888518
0.0886959
0.0824793
0.0816193
0.0918034
0.0870563
0.175032
0.390599
0.38626
0.845702
0.85437
1.9582
1.96215
1.93893
1.93169
1.92994
14.9882
11.4198
10.8804
8.99134
8.69117
7.43451
7.22485
6.28936
6.13236
5.43113
5.32222
4.88339
4.79524
4.31117
4.22072
3.76476
3.68159
3.27213
3.19818
2.83759
2.77274
2.45796
2.40144
2.12744
2.07816
1.83861
1.79503
1.57913
1.53605
1.29057
1.0676
1.03411
0.893812
0.869755
0.757873
0.738216
0.645042
0.628549
0.549834
0.535867
0.469059
0.457204
0.400509
0.390471
0.342608
0.334195
0.29446
0.287629
0.256293
0.251373
0.231242
0.227166
0.204643
0.200418
0.179034
0.175124
0.155826
0.152337
0.135305
0.132245
0.117424
0.114787
0.102169
0.0999944
0.0900573
0.0886009
0.083752
0.084105
0.0946271
0.102779
0.19205
0.380564
0.435128
0.82631
0.951731
1.84382
1.93061
1.93164
1.92998
1.92945
14.5432
11.6472
10.806
9.144
8.63628
7.53196
7.17873
6.36055
6.09784
5.48673
5.30276
4.91241
4.76346
4.343
4.19272
3.79583
3.65729
3.30048
3.1771
2.86272
2.75447
2.47995
2.38556
2.14653
2.06415
1.85495
1.7816
1.59167
1.51668
1.2934
1.08824
1.02878
0.904655
0.863861
0.765972
0.73303
0.651679
0.624103
0.555414
0.532077
0.473792
0.453989
0.404533
0.387772
0.346033
0.331996
0.29737
0.285993
0.258733
0.250438
0.232548
0.225669
0.20611
0.199092
0.180481
0.17397
0.157156
0.151336
0.136489
0.131386
0.118468
0.114075
0.103094
0.0994985
0.0909244
0.0886424
0.0848172
0.0861846
0.0975462
0.115258
0.205098
0.375887
0.470531
0.817549
1.01843
1.76165
1.90251
1.92447
1.92823
1.92895
14.2141
11.7924
10.7644
9.25048
8.60525
7.59938
7.15121
6.40953
6.07726
5.52525
5.29156
4.93177
4.74255
4.36403
4.17458
3.81658
3.64172
3.31949
3.16367
2.87961
2.74286
2.49474
2.37546
2.15936
2.05521
1.86586
1.77285
1.59963
1.50323
1.29551
1.10306
1.02604
0.912167
0.860255
0.771477
0.729783
0.656168
0.621303
0.559183
0.529687
0.476987
0.451961
0.407252
0.386073
0.348351
0.330622
0.299351
0.284993
0.260415
0.249889
0.233415
0.22468
0.207076
0.198231
0.181446
0.173229
0.158046
0.150697
0.137285
0.13084
0.119172
0.113627
0.103724
0.0992026
0.0915405
0.0887463
0.0856756
0.0878651
0.100212
0.124853
0.214908
0.374256
0.49584
0.814634
1.06343
1.70357
1.87917
1.91801
1.9266
1.92847
13.9818
11.8818
10.7422
9.32222
8.58867
7.64449
7.13544
6.44214
6.06547
5.55104
5.2854
4.94431
4.72922
4.3775
4.16318
3.83001
3.63206
3.33184
3.15538
2.8906
2.7357
2.50437
2.36925
2.16772
2.04969
1.87292
1.76731
1.60451
1.49425
1.29702
1.11326
1.02477
0.917203
0.858125
0.775101
0.727815
0.659109
0.619596
0.561649
0.528227
0.479077
0.450723
0.409032
0.385039
0.349871
0.329791
0.300658
0.284404
0.261536
0.249579
0.233974
0.224047
0.207694
0.197688
0.18207
0.172767
0.158624
0.150302
0.137803
0.130504
0.119631
0.113354
0.10414
0.0990332
0.0919628
0.0888621
0.0863242
0.08914
0.102387
0.131831
0.221947
0.374136
0.51326
0.814519
1.09277
1.66408
1.86129
1.91277
1.92524
1.92806
13.8336
11.9328
10.7313
9.36651
8.58051
7.6722
7.12704
6.46208
6.0592
5.56688
5.28227
4.95182
4.72136
4.38548
4.15655
3.83803
3.62648
3.33926
3.15062
2.89721
2.73161
2.51017
2.36569
2.17274
2.04652
1.87714
1.76405
1.60729
1.48874
1.29798
1.11966
1.02428
0.920303
0.856956
0.777297
0.726706
0.660886
0.618629
0.563137
0.527398
0.480337
0.450021
0.410105
0.384453
0.35079
0.329324
0.301451
0.284081
0.262223
0.249417
0.234307
0.223673
0.208059
0.197372
0.182442
0.172501
0.158971
0.150075
0.138115
0.130312
0.119908
0.1132
0.104393
0.0989432
0.0922271
0.0889562
0.0867594
0.0899983
0.103914
0.136384
0.226504
0.374539
0.524195
0.815324
1.11039
1.63955
1.84924
1.90909
1.92427
1.92777
13.7613
11.9559
10.7269
9.38766
8.57724
7.68539
7.12343
6.47155
6.05651
5.57442
5.28098
4.95534
4.71772
4.38919
4.1535
3.84178
3.62394
3.34273
3.14846
2.90031
2.72975
2.51288
2.36408
2.17509
2.04507
1.87912
1.76255
1.60855
1.48613
1.29846
1.12274
1.02412
0.92178
0.856443
0.778334
0.726209
0.661721
0.618193
0.563836
0.527025
0.48093
0.449704
0.41061
0.384189
0.351223
0.329115
0.301825
0.28394
0.262549
0.249348
0.234462
0.223499
0.208229
0.197226
0.182616
0.172379
0.159133
0.149972
0.13826
0.130225
0.120038
0.113131
0.104513
0.0989046
0.0923544
0.089008
0.086978
0.0904303
0.1047
0.13863
0.228744
0.374877
0.529471
0.815971
1.11865
1.6278
1.84319
1.90719
1.92376
1.92761
-13.627
-11.938
-10.8749
-9.86344
-9.31981
-8.81697
-8.5391
-8.26794
-8.11738
-7.96862
-7.86604
-7.73022
-7.63453
-7.50985
-7.42286
-7.31053
-7.2324
-7.13177
-7.06194
-6.97223
-6.91017
-6.8307
-6.7759
-6.70594
-6.65772
-6.59607
-6.55288
-6.49602
-6.45128
-6.38343
-6.32075
-6.28616
-6.25114
-6.22922
-6.2036
-6.18683
-6.16652
-6.15306
-6.13661
-6.12568
-6.11228
-6.10337
-6.09247
-6.08525
-6.07645
-6.07068
-6.06374
-6.0593
-6.05415
-6.05107
-6.04774
-6.04543
-6.04239
-6.0404
-6.03805
-6.03671
-6.03546
-6.03508
-6.03538
-6.0364
-6.03899
-6.04215
-6.04837
-6.05514
-6.0678
-6.0816
-6.10779
-6.13897
-6.20316
-6.29679
-6.5086
-6.80263
-7.06548
-7.50307
-7.92071
-8.58491
-8.86455
-8.94754
-8.96902
-8.97401
-13.6946
-11.9129
-10.8728
-9.84473
-9.31818
-8.80797
-8.53884
-8.26311
-8.11731
-7.96678
-7.86736
-7.72862
-7.63569
-7.50834
-7.42388
-7.30916
-7.2333
-7.13053
-7.06273
-6.97112
-6.91086
-6.82971
-6.7765
-6.70507
-6.65825
-6.59533
-6.55342
-6.49553
-6.45221
-6.38322
-6.31962
-6.28617
-6.25061
-6.22937
-6.20325
-6.18697
-6.16624
-6.15318
-6.13639
-6.12577
-6.1121
-6.10345
-6.09232
-6.08532
-6.07633
-6.07073
-6.06364
-6.05933
-6.05407
-6.05108
-6.0477
-6.04546
-6.04235
-6.04042
-6.03801
-6.03671
-6.03542
-6.03506
-6.03535
-6.03634
-6.03896
-6.04203
-6.04834
-6.05491
-6.06775
-6.0811
-6.10759
-6.13765
-6.20199
-6.29207
-6.50531
-6.80388
-7.05849
-7.50386
-7.91085
-8.60029
-8.87242
-8.95
-8.96968
-8.97421
-13.8334
-11.8582
-10.8703
-9.80595
-9.3159
-8.78932
-8.53883
-8.25309
-8.11743
-7.96288
-7.87027
-7.72518
-7.63823
-7.50512
-7.4261
-7.30623
-7.23527
-7.1279
-7.06448
-6.96876
-6.91239
-6.82761
-6.77784
-6.70322
-6.65943
-6.59375
-6.55461
-6.49446
-6.45416
-6.3828
-6.31729
-6.28627
-6.24952
-6.22971
-6.2025
-6.18729
-6.16566
-6.15345
-6.13592
-6.12599
-6.11171
-6.10363
-6.09201
-6.08546
-6.07608
-6.07084
-6.06343
-6.0594
-6.0539
-6.0511
-6.04762
-6.04552
-6.04226
-6.04045
-6.03792
-6.03671
-6.03535
-6.035
-6.03529
-6.03621
-6.03892
-6.04177
-6.04831
-6.05442
-6.06769
-6.08008
-6.10724
-6.13496
-6.19978
-6.28241
-6.49861
-6.80688
-7.04388
-7.5062
-7.88969
-8.63237
-8.88807
-8.95478
-8.97094
-8.9746
-14.0512
-11.764
-10.8708
-9.7442
-9.31507
-8.75964
-8.54023
-8.23706
-8.1183
-7.95651
-7.87526
-7.71941
-7.64261
-7.49973
-7.42996
-7.30135
-7.2387
-7.12351
-7.06752
-6.96482
-6.91506
-6.8241
-6.78016
-6.70013
-6.66149
-6.59111
-6.55663
-6.4926
-6.45735
-6.38214
-6.31358
-6.2866
-6.24774
-6.23034
-6.20127
-6.18786
-6.1647
-6.15393
-6.13514
-6.12639
-6.11108
-6.10395
-6.0915
-6.08571
-6.07565
-6.07103
-6.06308
-6.05952
-6.05361
-6.05115
-6.04747
-6.04563
-6.04212
-6.04051
-6.03779
-6.03671
-6.03523
-6.03493
-6.03521
-6.03601
-6.03887
-6.04137
-6.0483
-6.05365
-6.06766
-6.07847
-6.10688
-6.13078
-6.19686
-6.26741
-6.48823
-6.81274
-7.02024
-7.51168
-7.85416
-8.68393
-8.91128
-8.96158
-8.97271
-8.97512
-14.3605
-11.6141
-10.8806
-9.65456
-9.3193
-8.7165
-8.54499
-8.21366
-8.12089
-7.94692
-7.88325
-7.71049
-7.64963
-7.49141
-7.43617
-7.29383
-7.24424
-7.11675
-7.07243
-6.95877
-6.91937
-6.81871
-6.78393
-6.69538
-6.66481
-6.58704
-6.55983
-6.48959
-6.46214
-6.38121
-6.30821
-6.28741
-6.24511
-6.23145
-6.19942
-6.18883
-6.16325
-6.15473
-6.13397
-6.12705
-6.11013
-6.10448
-6.09071
-6.08614
-6.07501
-6.07135
-6.06256
-6.05974
-6.05319
-6.05126
-6.04726
-6.04581
-6.04189
-6.04061
-6.03758
-6.03672
-6.03507
-6.03482
-6.03511
-6.03573
-6.03884
-6.0408
-6.04834
-6.05253
-6.06775
-6.07616
-6.10669
-6.12492
-6.19376
-6.24641
-6.47369
-6.82327
-6.98525
-7.52313
-7.79914
-8.75958
-8.94157
-8.96995
-8.97483
-8.97575
-14.7797
-11.3836
-10.9101
-9.52928
-9.33422
-8.65612
-8.55613
-8.18071
-8.12673
-7.93291
-7.89559
-7.69708
-7.66055
-7.47898
-7.44586
-7.2826
-7.25288
-7.10666
-7.0801
-6.94974
-6.92614
-6.81069
-6.78985
-6.68832
-6.67002
-6.58093
-6.56476
-6.48486
-6.46907
-6.37997
-6.30075
-6.28907
-6.24132
-6.23329
-6.1967
-6.19039
-6.16111
-6.15602
-6.13224
-6.1281
-6.10872
-6.10534
-6.08956
-6.08682
-6.07407
-6.07188
-6.0618
-6.06011
-6.05259
-6.05144
-6.04694
-6.04608
-6.04156
-6.04079
-6.03729
-6.03677
-6.03486
-6.0347
-6.03499
-6.03535
-6.03885
-6.04
-6.04852
-6.05096
-6.06812
-6.07296
-6.107
-6.11703
-6.19131
-6.21842
-6.45427
-6.84132
-6.93523
-7.54505
-7.71674
-8.86637
-8.978
-8.97926
-8.9771
-8.97641
-15.3347
-11.0363
-10.976
-9.35656
-9.36847
-8.57262
-8.57829
-8.1349
-8.13816
-7.91264
-7.91438
-7.6772
-7.67727
-7.4606
-7.46076
-7.26603
-7.26619
-7.09179
-7.09193
-6.93645
-6.93657
-6.79888
-6.799
-6.67792
-6.67806
-6.57192
-6.57223
-6.47757
-6.47892
-6.37833
-6.29059
-6.29217
-6.23596
-6.23627
-6.19278
-6.19287
-6.158
-6.15806
-6.12973
-6.12977
-6.10667
-6.1067
-6.08789
-6.08791
-6.07271
-6.07273
-6.0607
-6.06071
-6.05173
-6.05175
-6.04648
-6.0465
-6.04108
-6.04107
-6.03688
-6.03687
-6.03457
-6.03456
-6.03487
-6.03484
-6.03896
-6.0389
-6.04895
-6.04881
-6.06899
-6.06859
-6.10826
-6.10657
-6.19074
-6.18207
-6.4288
-6.87108
-6.86457
-7.5845
-7.59523
-9.01469
-9.01886
-8.98871
-8.97932
-8.97705
-16.0617
-10.5194
-11.1042
-9.1186
-9.43503
-8.45705
-8.61842
-8.07123
-8.15874
-7.88328
-7.94273
-7.64782
-7.70266
-7.43356
-7.48345
-7.24166
-7.28648
-7.06993
-7.10999
-6.91692
-6.95252
-6.78155
-6.81299
-6.66268
-6.69036
-6.55864
-6.5835
-6.46644
-6.49286
-6.37618
-6.27685
-6.29759
-6.22832
-6.241
-6.18711
-6.19675
-6.1535
-6.16123
-6.12608
-6.13236
-6.10369
-6.1088
-6.08546
-6.08961
-6.07074
-6.07405
-6.05912
-6.06167
-6.05051
-6.05228
-6.0458
-6.04714
-6.04039
-6.04153
-6.03631
-6.03707
-6.03419
-6.0344
-6.03477
-6.03417
-6.03923
-6.0374
-6.04978
-6.04585
-6.07067
-6.06262
-6.11118
-6.09268
-6.19389
-6.13551
-6.3955
-6.9188
-6.76485
-7.65231
-7.41737
-9.21961
-9.06108
-8.99733
-8.98125
-8.9776
-17.0103
-9.75737
-11.3352
-8.78855
-9.55336
-8.2959
-8.68689
-7.98217
-8.19384
-7.84053
-7.98525
-7.60446
-7.741
-7.39375
-7.5178
-7.20582
-7.31722
-7.03781
-7.13737
-6.88825
-6.97674
-6.75613
-6.83426
-6.64031
-6.70902
-6.5391
-6.60045
-6.44956
-6.51252
-6.37333
-6.25831
-6.30661
-6.21741
-6.24839
-6.1789
-6.20275
-6.14696
-6.16611
-6.12077
-6.13634
-6.09937
-6.11205
-6.08194
-6.09222
-6.06788
-6.07611
-6.05684
-6.06317
-6.04877
-6.05314
-6.04482
-6.0481
-6.03938
-6.04223
-6.03549
-6.03741
-6.03369
-6.03424
-6.0347
-6.03327
-6.03978
-6.03533
-6.05127
-6.04173
-6.07367
-6.05438
-6.11678
-6.074
-6.20342
-6.07622
-6.35168
-6.99361
-6.62347
-7.76502
-7.15802
-9.50297
-9.09952
-9.00404
-8.98269
-8.978
-18.249
-8.64211
-11.7311
-8.32601
-9.75255
-8.06879
-8.79915
-7.85642
-8.25151
-7.77782
-8.04877
-7.54037
-7.79867
-7.33506
-7.56957
-7.15302
-7.36356
-6.9905
-7.17866
-6.84605
-7.01328
-6.71874
-6.86638
-6.60741
-6.73721
-6.51028
-6.62587
-6.42411
-6.54024
-6.3695
-6.23321
-6.32111
-6.20168
-6.25979
-6.16694
-6.21192
-6.1374
-6.17357
-6.11302
-6.14242
-6.09304
-6.11699
-6.07678
-6.09621
-6.06371
-6.07926
-6.05353
-6.0655
-6.04627
-6.0545
-6.04336
-6.04953
-6.0379
-6.04331
-6.03432
-6.03797
-6.03301
-6.03407
-6.0347
-6.03204
-6.04077
-6.03244
-6.05377
-6.03595
-6.07872
-6.04287
-6.12659
-6.04843
-6.22322
-6.00082
-6.29319
-7.1089
-6.42164
-7.94769
-6.78061
-9.89629
-9.12566
-9.00781
-8.98348
-8.97824
)
;

boundaryField
{
    F1_1
    {
        type            calculated;
        value           nonuniform List<scalar> 
80
(
18.9513
7.97363
11.9795
8.04115
9.87616
7.9049
8.86817
7.71488
8.28903
7.55142
7.90345
7.48949
7.75866
7.28685
7.55901
7.11021
7.36553
6.95315
7.18614
6.8136
7.02294
6.69061
6.87655
6.58311
6.74715
6.48931
6.6356
6.40577
6.55194
6.36458
6.2173
6.32759
6.19107
6.26479
6.15876
6.21594
6.13085
6.17684
6.10769
6.1451
6.0887
6.11918
6.07325
6.09797
6.06085
6.08063
6.05125
6.06648
6.04452
6.05498
6.04223
6.05008
6.03681
6.0437
6.03346
6.03809
6.03248
6.0338
6.03461
6.03118
6.04129
6.03062
6.05524
6.03247
6.08179
6.03606
6.13271
6.03352
6.23621
5.95854
6.25962
7.17864
6.30275
8.06026
6.55694
10.1251
9.13432
9.00882
8.98368
8.9783
)
;
    }
    F1_2
    {
        type            calculated;
        value           nonuniform List<scalar> 
80
(
-19.3851
-7.90703
-12.4929
-7.04538
-9.80521
-6.15437
-8.07597
-5.34103
-6.77049
-4.70999
-5.71068
-4.45824
-5.26838
-3.83965
-4.65747
-3.31661
-4.07043
-2.86809
-3.53935
-2.48118
-3.07012
-2.14666
-2.66023
-1.85668
-2.30491
-1.60318
-2.00225
-1.37499
-1.77823
-1.26208
-0.838403
-1.15651
-0.751363
-0.97332
-0.646255
-0.82549
-0.552507
-0.702544
-0.471774
-0.598748
-0.402837
-0.510579
-0.344288
-0.435485
-0.295052
-0.371423
-0.254728
-0.316634
-0.224348
-0.269467
-0.211939