/*--------------------------------*- C++ -*----------------------------------*\
| =========                 |                                                 |
| \\      /  F ield         | OpenFOAM: The Open Source CFD Toolbox           |
|  \\    /   O peration     | Version:  5.x                                   |
|   \\  /    A nd           | Web:      www.OpenFOAM.org                      |
|    \\/     M anipulation  |                                                 |
\*---------------------------------------------------------------------------*/
FoamFile
{
    version     2.0;
    format      ascii;
    class       volScalarField;
    location    "12.8";
    object      gradTx;
}
// * * * * * * * * * * * * * * * * * * * * * * * * * * * * * * * * * * * * * //

dimensions      [0 -1 0 1 0 0 0];

internalField   nonuniform List<scalar> 
2048
(
0.00630494
0.0187342
0.0306385
0.0417198
0.0517494
0.0605778
0.0681347
0.0744179
0.0794771
0.083395
0.0862716
0.0882112
0.0893155
0.0896817
0.089402
0.0885656
0.0872593
0.0855667
0.0835656
0.0813245
0.0788991
0.07633
0.0736423
0.070846
0.0679389
0.0649089
0.0617364
0.0583959
0.0548565
0.0510823
0.0470331
0.0426651
0.0379332
0.0327929
0.0272022
0.0211236
0.0145248
0.00737962
-0.000331435
-0.00862007
-0.0174878
-0.0269224
-0.0368924
-0.0473404
-0.0581749
-0.0692612
-0.080412
-0.0913804
-0.101855
-0.111463
-0.119781
-0.126359
-0.130752
-0.132569
-0.131511
-0.127415
-0.120276
-0.110247
-0.0976151
-0.0827647
-0.0661294
-0.0481501
-0.0292468
-0.00980737
0.0187884
0.0558177
0.0912561
0.124205
0.153978
0.180136
0.202478
0.221012
0.235899
0.247399
0.255817
0.261466
0.264651
0.265657
0.264756
0.262212
0.258281
0.253213
0.247241
0.240569
0.233365
0.22575
0.217796
0.209531
0.200947
0.192006
0.182648
0.172798
0.162365
0.151241
0.139306
0.12643
0.112479
0.0973171
0.0808206
0.0628772
0.0433911
0.0222843
-0.000502026
-0.0250042
-0.0512297
-0.0791468
-0.108668
-0.139631
-0.171772
-0.204701
-0.23787
-0.270553
-0.301828
-0.330581
-0.355545
-0.375356
-0.388671
-0.394287
-0.391294
-0.379191
-0.35796
-0.328072
-0.290411
-0.246151
-0.196608
-0.143109
-0.0869048
-0.0291382
0.03114
0.0924827
0.151106
0.205484
0.254472
0.297351
0.333826
0.363952
0.388043
0.406562
0.420041
0.429009
0.433966
0.435379
0.433685
0.429313
0.422684
0.414212
0.404286
0.393252
0.381387
0.368892
0.35588
0.342393
0.328408
0.313859
0.298644
0.282639
0.265693
0.247632
0.228255
0.207347
0.184679
0.160029
0.133189
0.103972
0.0722209
0.0378075
0.000632793
-0.039368
-0.0822165
-0.127874
-0.176215
-0.226994
-0.279806
-0.334036
-0.38881
-0.442955
-0.494961
-0.542984
-0.584893
-0.618379
-0.641132
-0.651071
-0.646606
-0.626859
-0.591798
-0.54225
-0.479767
-0.406387
-0.324372
-0.23596
-0.143223
-0.048009
0.0435996
0.129425
0.211273
0.286938
0.354794
0.41387
0.463821
0.504816
0.537385
0.562252
0.580203
0.591998
0.598329
0.599826
0.597078
0.590666
0.581171
0.569175
0.55523
0.539831
0.523372
0.506129
0.488254
0.469788
0.450686
0.430843
0.410114
0.388327
0.365275
0.340716
0.314374
0.285941
0.255093
0.221514
0.18491
0.145022
0.101632
0.0545619
0.0036729
-0.051134
-0.109905
-0.172613
-0.23912
-0.309131
-0.382135
-0.457337
-0.533585
-0.609297
-0.682403
-0.750326
-0.810038
-0.858198
-0.891413
-0.906588
-0.901324
-0.874286
-0.825428
-0.756009
-0.668377
-0.56559
-0.450971
-0.327743
-0.198792
-0.0666105
0.0563829
0.167268
0.27272
0.369769
0.456283
0.531065
0.593795
0.64485
0.685067
0.715506
0.737254
0.751314
0.75856
0.759765
0.755644
0.746912
0.734309
0.718592
0.700493
0.68067
0.659643
0.637765
0.615213
0.592014
0.568084
0.54327
0.51738
0.490193
0.461454
0.430859
0.39805
0.362625
0.324155
0.282224
0.236447
0.186492
0.132084
0.0729995
0.00905827
-0.0598776
-0.133893
-0.212994
-0.297059
-0.385782
-0.478597
-0.574584
-0.672368
-0.770013
-0.864924
-0.953794
-1.03264
-1.09698
-1.14216
-1.16386
-1.15867
-1.12469
-1.06185
-0.971938
-0.858325
-0.725312
-0.57748
-0.419132
-0.253974
-0.0850559
0.0696948
0.206598
0.33634
0.455071
0.560118
0.650105
0.724836
0.785027
0.831946
0.867084
0.891883
0.907602
0.915279
0.915789
0.909941
0.898564
0.882551
0.862851
0.840401
0.816046
0.790446
0.764032
0.736993
0.709318
0.68086
0.651403
0.620703
0.588501
0.5545
0.518339
0.479581
0.437715
0.3922
0.342504
0.288147
0.228725
0.16391
0.0934401
0.0170972
-0.0653005
-0.153891
-0.248736
-0.349769
-0.456716
-0.569007
-0.685663
-0.805161
-0.925282
-1.04296
-1.15416
-1.2539
-1.3364
-1.39552
-1.42542
-1.42142
-1.38085
-1.30358
-1.19213
-1.05119
-0.88662
-0.704538
-0.510464
-0.308916
-0.103385
0.0837395
0.247996
0.403001
0.543878
0.667378
0.772007
0.857838
0.926092
0.978633
1.0175
1.04455
1.06131
1.06893
1.06835
1.06042
1.04604
1.02626
1.00225
0.975198
0.946158
0.91596
0.885108
0.853784
0.821905
0.789232
0.755464
0.720304
0.683462
0.644619
0.603369
0.559189
0.511452
0.459481
0.402613
0.340265
0.271962
0.197335
0.116093
0.0279872
-0.0672107
-0.169706
-0.279643
-0.397045
-0.52172
-0.653154
-0.790382
-0.931818
-1.07505
-1.21663
-1.35183
-1.4746
-1.57772
-1.65326
-1.69347
-1.69203
-1.64521
-1.55281
-1.41831
-1.24811
-1.05014
-0.832382
-0.601753
-0.363563
-0.121567
0.0987284
0.292057
0.473579
0.637207
0.779073
0.89767
0.993524
1.06859
1.12552
1.16705
1.19553
1.21271
1.21984
1.2178
1.20742
1.18967
1.16573
1.13704
1.10506
1.07114
1.0363
1.00112
0.965734
0.929952
0.893393
0.855648
0.816361
0.775237
0.73196
0.686097
0.637036
0.584013
0.526187
0.462744
0.392985
0.316368
0.232499
0.141076
0.0418314
-0.0655079
-0.181229
-0.305589
-0.438737
-0.580612
-0.730819
-0.888485
-1.05207
-1.21908
-1.38578
-1.54686
-1.69516
-1.82183
-1.9168
-1.96995
-1.97275
-1.92004
-1.8115
-1.65186
-1.44984
-1.21607
-0.960861
-0.692708
-0.41766
-0.139505
0.114887
0.339413
0.548985
0.736078
0.896175
1.02789
1.13247
1.21287
1.27279
1.31583
1.34489
1.36194
1.36819
1.3644
1.35127
1.32975
1.30121
1.26737
1.2301
1.19106
1.15153
1.11214
1.07296
1.03362
0.993524
0.952132
0.90903
0.863951
0.816627
0.766621
0.713232
0.655526
0.592461
0.52304
0.446432
0.362041
0.269466
0.168425
0.0586507
-0.0601725
-0.188427
-0.326512
-0.474746
-0.633243
-0.801787
-0.979683
-1.16554
-1.35694
-1.55004
-1.739
-1.91564
-2.06928
-2.18732
-2.25661
-2.26573
-2.20756
-2.08148
-1.89393
-1.6568
-1.38423
-1.08945
-0.782735
-0.470764
-0.157036
0.132463
0.390744
0.630184
0.841544
1.01963
1.1634
1.27512
1.35912
1.42045
1.46377
1.49257
1.50901
1.51412
1.50837
1.49221
1.46654
1.4329
1.39341
1.35038
1.30594
1.26165
1.21823
1.17557
1.13305
1.0898
1.04509
0.998447
0.949693
0.898675
0.844992
0.787841
0.726078
0.658408
0.583605
0.500691
0.409025
0.308241
0.19811
0.0783945
-0.0512557
-0.191334
-0.342416
-0.50503
-0.67951
-0.86587
-1.06367
-1.2718
-1.48809
-1.70877
-1.92773
-2.13578
-2.32031
-2.46571
-2.55507
-2.57312
-2.50997
-2.3645
-2.14547
-1.86904
-1.55401
-1.21723
-0.870951
-0.522256
-0.17394
0.151726
0.446799
0.718218
0.954701
1.15038
1.30483
1.42178
1.50736
1.56831
1.6106
1.63838
1.65384
1.65768
1.64989
1.63051
1.60029
1.561
1.51523
1.46592
1.41575
1.36665
1.31939
1.27365
1.2284
1.18241
1.13469
1.08474
1.03252
0.978121
0.921219
0.860893
0.795729
0.724109
0.64452
0.555814
0.457327
0.348778
0.230043
0.100949
-0.038872
-0.190044
-0.353359
-0.5296
-0.719359
-0.92292
-1.14017
-1.3704
-1.61189
-1.8612
-2.11223
-2.355
-2.57484
-2.75266
-2.86685
-2.8971
-2.82959
-2.66236
-2.40724
-2.08628
-1.72442
-1.34294
-0.956201
-0.571357
-0.189944
0.172981
0.508401
0.814215
1.07671
1.28936
1.45276
1.57265
1.65744
1.71602
1.75591
1.78197
1.79626
1.79889
1.78914
1.76643
1.73126
1.68568
1.63293
1.57669
1.52039
1.46642
1.41561
1.36727
1.31983
1.27156
1.22113
1.16801
1.11247
1.05494
0.995269
0.932387
0.864517
0.789632
0.705856
0.611834
0.50692
0.390988
0.264082
0.126146
-0.023191
-0.184703
-0.359451
-0.548524
-0.752798
-0.972845
-1.20893
-1.46088
-1.72762
-2.00639
-2.29146
-2.57238
-2.83244
-3.04857
-3.19339
-3.23996
-3.16897
-2.9769
-2.67982
-2.30785
-1.894
-1.46494
-1.03708
-0.617149
-0.204732
0.196565
0.576465
0.919411
1.20879
1.43749
1.60767
1.72777
1.80906
1.86306
1.89915
1.92291
1.93606
1.93776
1.9263
1.90026
1.85973
1.80713
1.74655
1.68264
1.61973
1.56086
1.50685
1.45652
1.40752
1.35747
1.30462
1.2484
1.18953
1.12906
1.06707
1.0023
0.932466
0.85504
0.767678
0.668772
0.557752
0.434745
0.300044
0.153767
-0.00443027
-0.175502
-0.360847
-0.56192
-0.779896
-1.01563
-1.26978
-1.54283
-1.83457
-2.14328
-2.46414
-2.7867
-3.09237
-3.35359
-3.53602
-3.60419
-3.53094
-3.31017
-2.96364
-2.53267
-2.06088
-1.58123
-1.11197
-0.658614
-0.217961
0.22286
0.652003
1.03515
1.35226
1.5957
1.76996
1.88707
1.96177
2.00872
2.0396
2.0607
2.07298
2.07428
2.0616
2.03233
1.98599
1.92553
1.85615
1.78366
1.7136
1.64978
1.59307
1.54148
1.49166
1.44042
1.38542
1.32602
1.26369
1.20036
1.13653
1.07058
0.999592
0.920396
0.830062
0.726646
0.60975
0.479896
0.337707
0.183551
0.0171512
-0.162666
-0.357734
-0.569949
-0.800788
-1.05133
-1.32262
-1.6159
-1.93205
-2.27075
-2.62878
-2.99642
-3.3535
-3.66755
-3.89599
-3.99247
-3.91881
-3.66444
-3.25893
-2.75921
-2.22268
-1.68949
-1.17909
-0.694673
-0.229273
0.252292
0.73613
1.16291
1.50851
1.76487
1.93994
2.05039
2.11497
2.15217
2.17645
2.19474
2.20676
2.20844
2.19526
2.16303
2.11038
2.04106
1.96177
1.87965
1.80173
1.73298
1.6742
1.62227
1.5725
1.52072
1.46381
1.40101
1.33485
1.26868
1.2035
1.13717
1.0659
0.985775
0.893099
0.785476
0.662826
0.526263
0.376818
0.215198
0.0412591
-0.146448
-0.350321
-0.572811
-0.815673
-1.0801
-1.36747
-1.67987
-2.01943
-2.38764
-2.78373
-3.1997
-3.61434
-3.98991
-4.27434
-4.40777
-4.33644
-4.04229
-3.56567
-2.98536
-2.37654
-1.78712
-1.23655
-0.724237
-0.238317
0.285343
0.83007
1.30429
1.67903
1.94586
2.11778
2.2174
2.26794
2.29241
2.30872
2.32441
2.33712
2.34025
2.32758
2.29286
2.23327
2.15389
2.06343
1.97044
1.88385
1.81018
1.75015
1.69902
1.65027
1.59872
1.54017
1.47351
1.40291
1.33378
1.2678
1.20203
1.13141
1.05126
0.956913
0.845285
0.71687
0.573648
0.417097
0.248376
0.0675684
-0.127115
-0.338831
-0.57073
-0.824807
-1.10218
-1.40445
-1.73462
-2.09621
-2.49284
-2.92721
-3.39441
-3.873
-4.31974
-4.67186
-4.85334
-4.7885
-4.44676
-3.88351
-3.20836
-2.51909
-1.8713
-1.28245
-0.746268
-0.244769
0.322563
0.93515
1.46098
1.86542
2.13946
2.30346
2.38772
2.41986
2.42828
2.43535
2.44905
2.46386
2.46971
2.45889
2.42238
2.35507
2.26418
2.16119
2.05587
1.95958
1.88105
1.82086
1.7719
1.72525
1.67482
1.61495
1.54369
1.46767
1.39534
1.32925
1.26509
1.19611
1.11695
1.02167
0.906109
0.771752
0.621842
0.458246
0.282715
0.0957281
-0.104944
-0.323477
-0.563943
-0.828505
-1.11791
-1.43377
-1.78017
-2.16206
-2.58527
-3.05731
-3.57814
-4.12725
-4.6556
-5.08889
-5.33268
-5.28066
-4.88145
-4.21164
-3.42467
-2.64642
-1.93906
-1.31496
-0.759834
-0.248352
0.364588
1.05279
1.63483
2.06946
2.34635
2.49679
2.56091
2.56982
2.55848
2.55512
2.56801
2.58683
2.5968
2.58954
2.55232
2.4762
2.37205
2.25514
2.13578
2.02849
1.9452
1.88626
1.84113
1.7977
1.74946
1.68872
1.61175
1.52887
1.45298
1.38764
1.32634
1.26
1.18296
1.08761
0.967988
0.827309
0.670635
0.499954
0.317818
0.125362
-0.0802107
-0.304458
-0.552687
-0.827128
-1.12772
-1.45577
-1.81672
-2.21685
-2.66399
-3.17208
-3.74825
-4.37447
-4.99557
-5.52515
-5.84956
-5.81995
-5.35064
-4.5486
-3.62978
-2.75418
-1.98738
-1.3324
-0.764177
-0.248856
0.412186
1.18448
1.82774
2.29308
2.56707
2.69728
2.7365
2.7169
2.68153
2.66672
2.6807
2.70602
2.72144
2.71989
2.68362
2.5971
2.47751
2.34542
2.21002
2.09005
2.00214
1.94629
1.90703
1.86785
1.8231
1.76219
1.67789
1.58613
1.5062
1.44273
1.38583
1.32302
1.24938
1.15505
1.03097
0.883328
0.719825
0.54191
0.353251
0.156072
-0.0531818
-0.281933
-0.537183
-0.821081
-1.13214
-1.47085
-1.84459
-2.26075
-2.72826
-3.26951
-3.90186
-4.61182
-5.33721
-5.97943
-6.40784
-6.41517
-5.85947
-4.89194
-3.81812
-2.83754
-2.01337
-1.33339
-0.758765
-0.246154
0.466314
1.33175
2.04163
2.53857
2.8019
2.90405
2.91413
2.86014
2.7958
2.76868
2.78659
2.82164
2.84345
2.85028
2.81749
2.71818
2.58043
2.4323
2.27845
2.14361
2.05129
2.00095
1.97004
1.93584
1.8962
1.83632
1.74239
1.63893
1.55437
1.49433
1.44369
1.38508
1.31632
1.22447
1.09509
0.939519
0.769247
0.583806
0.388543
0.187436
-0.0241109
-0.256011
-0.517619
-0.810807
-1.1318
-1.47949
-1.86422
-2.29425
-2.77752
-3.34762
-4.03593
-4.83623
-5.67767
-6.4492
-7.01134
-7.07746
-6.41415
-5.23783
-3.9828
-2.8914
-2.01439
-1.31692
-0.743334
-0.240212
0.528235
1.49609
2.27836
2.80865
3.05083
3.1157
3.09369
2.99869
2.89945
2.85937
2.88525
2.9342
2.96238
2.98097
2.95556
2.83978
2.68041
2.51625
2.34102
2.1884
2.09195
2.05029
2.03079
2.00169
1.96916
1.91235
1.8055
1.68657
1.59672
1.54225
1.50022
1.44596
1.38382
1.29652
1.16036
0.995476
0.8188
0.625355
0.423173
0.219006
0.00676625
-0.226729
-0.494135
-0.796777
-1.12743
-1.48215
-1.87614
-2.31822
-2.81149
-3.40445
-4.14719
-5.0446
-6.01382
-6.93009
-7.66345
-7.82108
-7.02214
-5.5805
-4.11554
-2.91048
-1.98821
-1.28243
-0.717924
-0.231098
0.599701
1.67891
2.53958
3.10676
3.3134
3.3301
3.27548
3.13176
2.99039
2.93697
2.97641
3.04471
3.07744
3.11202
3.1001
2.96209
2.77668
2.59806
2.39773
2.22346
2.12325
2.0944
2.09021
2.06514
2.04228
1.99199
1.86752
1.72811
1.63232
1.58636
1.55596
1.50526
1.45184
1.37217
1.22675
1.05061
0.868505
0.666293
0.456563
0.250311
0.0392318
-0.194039
-0.466805
-0.779486
-1.11992
-1.47926
-1.88089
-2.33407
-2.8302
-3.43807
-4.23221
-5.23394
-6.34258
-7.41524
-8.36664
-8.66445
-7.69241
-5.9114
-4.20653
-2.88963
-1.93324
-1.22993
-0.682883
-0.218978
0.683239
1.88137
2.82649
3.43741
3.58849
3.54415
3.46059
3.25872
3.06623
2.99944
3.05993
3.15488
3.18723
3.24322
3.25425
3.08505
2.86789
2.67904
2.44867
2.24762
2.14416
2.13346
2.14967
2.12553
2.11568
2.07752
1.92872
1.76232
1.66007
1.62657
1.61183
1.56231
1.5202
1.45282
1.29411
1.10409
0.918576
0.706392
0.488053
0.280857
0.0730829
-0.157784
-0.435622
-0.759442
-1.11035
-1.47115
-1.87891
-2.34379
-2.83396
-3.44667
-4.28726
-5.40147
-6.66152
-7.8945
-9.12172
-9.63149
-8.43566
-6.21821
-4.24449
-2.8241
-1.84868
-1.15995
-0.638864
-0.204107
0.782588
2.10423
3.13949
3.80678
3.87415
3.75337
3.65129
3.37904
3.12421
3.04446
3.13582
3.26748
3.28949
3.37389
3.4225
3.20818
2.95183
2.76127
2.49399
2.25944
2.15342
2.16771
2.2112
2.18164
2.18914
2.1721
1.98928
1.78762
1.67866
1.66285
1.66928
1.616
1.58849
1.5405
1.36214
1.15471
0.969541
0.745447
0.516877
0.310133
0.108122
-0.117683
-0.400485
-0.737142
-1.10006
-1.45796
-1.87042
-2.35017
-2.82339
-3.42855
-4.30826
-5.54482
-6.96964
-8.35346
-9.92674
-10.7534
-9.26453
-6.48341
-4.21682
-2.70999
-1.73467
-1.07366
-0.586787
-0.186818
0.903341
2.34763
3.47771
4.22342
4.16721
3.95147
3.85164
3.49226
3.16115
3.06942
3.20413
3.38674
3.38069
3.50262
3.6112
3.33037
3.02515
2.84803
2.53386
2.25716
2.14956
2.19737
2.27776
2.23137
2.26198
2.28007
2.04919
1.802
1.68659
1.6952
1.73053
1.66462
1.65596
1.63813
1.43027
1.20077
1.02239
0.783268
0.542132
0.337628
0.144144
-0.0733092
-0.361191
-0.713039
-1.09074
-1.43958
-1.85518
-2.35696
-2.79933
-3.3822
-4.29061
-5.66199
-7.26861
-8.77233
-10.7755
-12.0712
-10.1938
-6.68262
-4.11002
-2.54468
-1.59241
-0.972725
-0.5278
-0.167501
1.05385
2.61076
3.8383
4.69937
4.46288
4.12969
4.06832
3.59779
3.17333
3.07139
3.26482
3.51903
3.45552
3.62701
3.8293
3.44957
3.08288
2.94424
2.56837
2.23862
2.13085
2.22259
2.35366
2.27149
2.33285
2.4074
2.10805
1.80301
1.68218
1.72356
1.79889
1.70558
1.72136
1.74985
1.49751
1.23986
1.07881
0.819629
0.562743
0.362856
0.180906
-0.0240668
-0.31743
-0.687491
-1.08463
-1.41555
-1.83227
-2.3692
-2.76274
-3.30639
-4.22897
-5.75129
-7.56447
-9.12458
-11.6555
-13.6381
-11.2403
-6.78237
-3.91051
-2.32732
-1.42422
-0.859308
-0.463211
-0.146583
1.24648
2.8915
4.21551
5.25155
4.75417
4.27609
4.3117
3.69464
3.15646
3.04717
3.31748
3.67362
3.5063
3.74325
4.08931
3.56241
3.11793
3.05721
2.59729
2.20127
2.09531
2.24322
2.4451
2.29716
2.39946
2.56221
2.16484
1.78769
1.66362
1.74767
1.87917
1.73509
1.78277
1.88151
1.56227
1.26869
1.14143
0.854197
0.577413
0.385395
0.218093
0.0308365
-0.268802
-0.660666
-1.08463
-1.38498
-1.79974
-2.39358
-2.71447
-3.2004
-4.11701
-5.81097
-7.86975
-9.3756
-12.5455
-15.5237
-12.4233
-6.73753
-3.60578
-2.05934
-1.23348
-0.735927
-0.394421
-0.124506
1.49923
3.18592
4.59952
5.90355
5.03116
4.37455
4.5972
3.78087
3.10565
2.99331
3.3609
3.86377
3.52218
3.84558
4.40854
3.66365
3.12041
3.19752
2.61978
2.14211
2.0408
2.2586
2.56083
2.30148
2.45827
2.75554
2.21751
1.75258
1.62904
1.7669
1.97822
1.74782
1.83737
2.04121
1.62212
1.28281
1.21425
0.886409
0.58459
0.404953
0.255265
0.0924244
-0.214844
-0.632419
-1.09462
-1.3465
-1.75415
-2.43896
-2.65498
-3.06423
-3.94709
-5.83854
-8.2064
-9.4811
-13.4122
-17.8183
-13.7635
-6.48816
-3.18621
-1.74482
-1.02454
-0.605325
-0.322852
-0.101705
1.83792
3.48765
4.97483
6.68795
5.28008
4.40371
4.94703
3.8529
3.01545
2.90633
3.39243
4.10804
3.4882
3.92572
4.8105
3.74555
3.07693
3.3801
2.6339
2.0577
1.96508
2.26706
2.71301
2.27485
2.50412
3.00217
2.26247
1.69376
1.57664
1.77987
2.10559
1.73632
1.88114
2.23997
1.67345
1.2763
1.30305
0.915287
0.582422
0.421444
0.291783
0.161997
-0.155091
-0.60211
-1.11973
-1.29818
-1.69006
-2.51701
-2.58379
-2.899
-3.71003
-5.82968
-8.60913
-9.38559
-14.2057
-20.6381
-15.2832
-5.95593
-2.64744
-1.39074
-0.802481
-0.470326
-0.249878
-0.0785896
2.29877
3.78718
5.31845
7.64904
5.48218
4.3356
5.39227
3.90443
2.87996
2.7829
3.40705
4.43192
3.38422
3.97212
5.3267
3.79708
2.96964
3.62564
2.6359
1.9443
1.86599
2.26542
2.9183
2.20426
2.52981
3.3217
2.29391
1.60698
1.50487
1.78398
2.27438
1.69057
1.90853
2.4926
1.71109
1.2414
1.41599
0.939186
0.568726
0.435101
0.326711
0.241192
-0.0891638
-0.568355
-1.16667
-1.23755
-1.59936
-2.64304
-2.49893
-2.70748
-3.39488
-5.77661
-9.12967
-9.02088
-14.8556
-24.1315
-17.0051
-5.04007
-1.99351
-1.00696
-0.572818
-0.333678
-0.176773
-0.0555317
2.93168
4.07096
5.59763
8.84615
5.61237
4.13427
5.97534
3.92505
2.69306
2.62029
3.39627
4.86976
3.18368
3.9691
5.99863
3.80295
2.77534
3.96219
2.61939
1.79794
1.74169
2.24819
3.19911
2.07247
2.52554
3.73978
2.30293
1.48784
1.41265
1.77484
2.50218
1.59724
1.91208
2.81861
1.72781
1.1682
1.56425
0.955455
0.540983
0.446606
0.3587
0.332065
-0.0169143
-0.528713
-1.24417
-1.16158
-1.47047
-2.83699
-2.39597
-2.49472
-2.98876
-5.66581
-9.84147
-8.30468
-15.2644
-28.4861
-18.9507
-3.6129
-1.24082
-0.605809
-0.341144
-0.197922
-0.104661
-0.0328532
3.80398
4.32043
5.76726
10.3574
5.63761
3.75409
6.7529
3.89852
2.4488
2.41681
3.34652
5.46707
2.85218
3.89588
6.88005
3.74254
2.46435
4.42704
2.57413
1.61474
1.59102
2.20657
3.58507
1.85712
2.47844
4.28948
2.27644
1.33211
1.29972
1.74544
2.81227
1.43902
1.88203
3.24329
1.71377
1.04416
1.76283
0.960006
0.496346
0.457249
0.385833
0.437197
0.0613892
-0.479294
-1.3634
-1.06682
-1.28743
-3.12464
-2.26699
-2.26892
-2.47699
-5.47513
-10.8451
-7.13946
-15.3012
-33.9368
-21.1393
-1.51515
-0.422852
-0.201266
-0.112736
-0.0652794
-0.0344892
-0.0108222
)
;

boundaryField
{
    left
    {
        type            calculated;
        value           uniform 0;
    }
    right
    {
        type            calculated;
        value           uniform 0;
    }
    interface
    {
        type            calculated;
        value           nonuniform List<scalar> 
64
(
3.80398
4.32043
5.76726
10.3574
5.63761
3.75409
6.7529
3.89852
2.4488
2.41681
3.34652
5.46707
2.85218
3.89588
6.88005
3.74254
2.46435
4.42704
2.57413
1.61474
1.59102
2.20657
3.58507
1.85712
2.47844
4.28948
2.27644
1.33211
1.29972
1.74544
2.81227
1.43902
1.88203
3.24329
1.71377
1.04416
1.76283
0.960006
0.496346
0.457249
0.385833
0.437197
0.0613892
-0.479294
-1.3634
-1.06682
-1.28743
-3.12464
-2.26699
-2.26892
-2.47699
-5.47513
-10.8451
-7.13946
-15.3012
-33.9368
-21.1393
-1.51515
-0.422852
-0.201266
-0.112736
-0.0652794
-0.0344892
-0.0108222
)
;
    }
    bottom
    {
        type            calculated;
        value           nonuniform List<scalar> 
64
(
0.00630494
0.0187342
0.0306385
0.0417198
0.0517494
0.0605778
0.0681347
0.0744179
0.0794771
0.083395
0.0862716
0.0882112
0.0893155
0.0896817
0.089402
0.0885656
0.0872593
0.0855667
0.0835656
0.0813245
0.0788991
0.07633
0.0736423
0.070846
0.0679389
0.0649089
0.0617364
0.0583959
0.0548565
0.0510823
0.0470331
0.0426651
0.0379332
0.0327929
0.0272022
0.0211236
0.0145248
0.00737962
-0.000331435
-0.00862007
-0.0174878
-0.0269224
-0.0368924
-0.0473404
-0.0581749
-0.0692612
-0.080412
-0.0913804
-0.101855
-0.111463
-0.119781
-0.126359
-0.130752
-0.132569
-0.131511
-0.127415
-0.120276
-0.110247
-0.0976151
-0.0827647
-0.0661294
-0.0481501
-0.0292468
-0.00980737
)
;
    }
    defaultFaces
    {
        type            empty;
    }
}


// ************************************************************************* //
