/*--------------------------------*- C++ -*----------------------------------*\
| =========                 |                                                 |
| \\      /  F ield         | OpenFOAM: The Open Source CFD Toolbox           |
|  \\    /   O peration     | Version:  5.x                                   |
|   \\  /    A nd           | Web:      www.OpenFOAM.org                      |
|    \\/     M anipulation  |                                                 |
\*---------------------------------------------------------------------------*/
FoamFile
{
    version     2.0;
    format      ascii;
    class       volScalarField;
    location    "10.7";
    object      gradTy;
}
// * * * * * * * * * * * * * * * * * * * * * * * * * * * * * * * * * * * * * //

dimensions      [0 -1 0 1 0 0 0];

internalField   nonuniform List<scalar> 
2048
(
-26.4236
-26.396
-26.3416
-26.262
-26.1592
-26.0358
-25.8945
-25.7382
-25.5697
-25.3914
-25.2059
-25.0153
-24.8215
-24.6261
-24.4308
-24.2367
-24.0451
-23.8568
-23.6726
-23.4931
-23.3187
-23.1497
-22.9865
-22.8293
-22.6782
-22.5336
-22.3958
-22.2649
-22.1416
-22.0261
-21.9191
-21.8212
-21.7332
-21.6559
-21.5902
-21.5371
-21.4978
-21.4734
-21.4652
-21.4744
-21.5022
-21.5499
-21.6188
-21.71
-21.8244
-21.9628
-22.1256
-22.3128
-22.5236
-22.7566
-23.0096
-23.2792
-23.5613
-23.8504
-24.1405
-24.4252
-24.6976
-24.9511
-25.1795
-25.3777
-25.5412
-25.6666
-25.7515
-25.7943
-26.4459
-26.4177
-26.3621
-26.2807
-26.1759
-26.0502
-25.9067
-25.7481
-25.5775
-25.3973
-25.2101
-25.0179
-24.8227
-24.6261
-24.4297
-24.2348
-24.0424
-23.8535
-23.6688
-23.4889
-23.3142
-23.1451
-22.9817
-22.8243
-22.673
-22.5282
-22.3901
-22.2589
-22.1352
-22.0193
-21.9118
-21.8133
-21.7246
-21.6465
-21.5799
-21.526
-21.4857
-21.4604
-21.4511
-21.4593
-21.4861
-21.5328
-21.6008
-21.6912
-21.805
-21.9431
-22.1059
-22.2936
-22.5056
-22.7405
-22.9961
-23.2692
-23.5555
-23.8495
-24.145
-24.4352
-24.7129
-24.9713
-25.204
-25.4058
-25.572
-25.6994
-25.7855
-25.8289
-26.4886
-26.4591
-26.4011
-26.3164
-26.2076
-26.0776
-25.9296
-25.7668
-25.5922
-25.4084
-25.2178
-25.0227
-24.8249
-24.626
-24.4276
-24.231
-24.0372
-23.8471
-23.6616
-23.481
-23.3058
-23.1363
-22.9726
-22.8148
-22.6632
-22.5179
-22.3793
-22.2476
-22.1231
-22.0064
-21.8979
-21.7983
-21.7083
-21.6287
-21.5606
-21.505
-21.4629
-21.4357
-21.4245
-21.4307
-21.4555
-21.5004
-21.5666
-21.6554
-21.768
-21.9054
-22.0683
-22.257
-22.471
-22.7094
-22.97
-23.2498
-23.5441
-23.8476
-24.1533
-24.4541
-24.7421
-25.01
-25.251
-25.4594
-25.6308
-25.7619
-25.8504
-25.8949
-26.5499
-26.5185
-26.4568
-26.3672
-26.2525
-26.1162
-25.9618
-25.7929
-25.6125
-25.4236
-25.2284
-25.0292
-24.8277
-24.6256
-24.4244
-24.2253
-24.0296
-23.8379
-23.6512
-23.4697
-23.2939
-23.1238
-22.9597
-22.8015
-22.6494
-22.5036
-22.3642
-22.2317
-22.1062
-21.9883
-21.8785
-21.7772
-21.6854
-21.6038
-21.5335
-21.4754
-21.4309
-21.401
-21.3871
-21.3905
-21.4125
-21.4546
-21.5182
-21.6048
-21.7156
-21.8518
-22.0146
-22.2043
-22.4211
-22.6643
-22.9319
-23.221
-23.5271
-23.8441
-24.1648
-24.481
-24.784
-25.0656
-25.3184
-25.5364
-25.715
-25.8512
-25.9428
-25.9889
-26.6283
-26.5943
-26.5279
-26.4316
-26.3092
-26.1645
-26.0019
-25.8251
-25.6375
-25.442
-25.2411
-25.0368
-24.8307
-24.6247
-24.42
-24.2179
-24.0197
-23.8261
-23.6379
-23.4554
-23.2788
-23.1082
-22.9436
-22.7849
-22.6322
-22.4857
-22.3455
-22.2119
-22.0853
-21.966
-21.8544
-21.7512
-21.6571
-21.5729
-21.4998
-21.4387
-21.3909
-21.3577
-21.3403
-21.3401
-21.3586
-21.3972
-21.4575
-21.541
-21.6493
-21.7838
-21.946
-22.1369
-22.3568
-22.6056
-22.8819
-23.1828
-23.5038
-23.8385
-24.1787
-24.515
-24.8376
-25.137
-25.4049
-25.6349
-25.8224
-25.9646
-26.06
-26.1078
-26.7229
-26.6857
-26.6131
-26.5084
-26.3762
-26.2212
-26.0484
-25.8621
-25.6659
-25.4628
-25.2552
-25.045
-24.8337
-24.623
-24.4142
-24.2086
-24.0075
-23.8117
-23.6219
-23.4383
-23.261
-23.0898
-22.9247
-22.7656
-22.6122
-22.4649
-22.3238
-22.1891
-22.0611
-21.9401
-21.8265
-21.721
-21.6242
-21.537
-21.4605
-21.3958
-21.3443
-21.3071
-21.2856
-21.2812
-21.2955
-21.3298
-21.386
-21.4657
-21.5707
-21.7029
-21.864
-22.0555
-22.2786
-22.5337
-22.8199
-23.1347
-23.4737
-23.8299
-24.1941
-24.5555
-24.9023
-25.2234
-25.5095
-25.7536
-25.9513
-26.1002
-26.1996
-26.2493
-26.833
-26.7917
-26.7114
-26.5964
-26.4523
-26.2849
-26.1001
-25.9027
-25.6967
-25.4852
-25.2702
-25.0534
-24.8363
-24.6204
-24.4069
-24.1974
-23.993
-23.7948
-23.6032
-23.4186
-23.2406
-23.0691
-22.9036
-22.7439
-22.59
-22.4418
-22.2996
-22.1637
-22.0342
-21.9114
-21.7957
-21.6875
-21.5877
-21.497
-21.4167
-21.3479
-21.292
-21.2503
-21.2242
-21.2151
-21.2244
-21.2538
-21.3051
-21.3802
-21.4811
-21.6101
-21.7694
-21.9611
-22.187
-22.4485
-22.7454
-23.076
-23.4358
-23.8175
-24.2105
-24.6019
-24.9776
-25.3245
-25.6317
-25.8916
-26.1003
-26.2561
-26.3594
-26.4108
-26.9583
-26.912
-26.8223
-26.6947
-26.5362
-26.3542
-26.1555
-25.9457
-25.729
-25.5082
-25.2853
-25.0616
-24.8383
-24.6166
-24.3981
-24.1842
-23.9763
-23.7754
-23.5821
-23.3965
-23.2181
-23.0463
-22.8806
-22.7205
-22.5659
-22.4168
-22.2735
-22.1362
-22.0052
-21.8805
-21.7625
-21.6515
-21.5483
-21.4538
-21.3692
-21.2959
-21.2352
-21.1886
-21.1573
-21.1429
-21.1467
-21.1706
-21.2163
-21.286
-21.3819
-21.5068
-21.6632
-21.8542
-22.0823
-22.3498
-22.658
-23.0057
-23.3891
-23.8002
-24.2269
-24.6538
-25.0637
-25.4404
-25.7713
-26.0484
-26.2682
-26.4307
-26.5373
-26.5901
-27.0986
-27.0461
-26.945
-26.8023
-26.6269
-26.428
-26.2135
-25.9899
-25.7616
-25.5312
-25.3002
-25.0693
-24.8394
-24.6117
-24.3876
-24.1689
-23.9571
-23.7535
-23.5586
-23.3721
-23.1935
-23.0218
-22.8561
-22.6956
-22.5403
-22.3903
-22.2458
-22.1072
-21.9746
-21.8481
-21.7276
-21.6136
-21.5067
-21.408
-21.3188
-21.2405
-21.1747
-21.1227
-21.0859
-21.0657
-21.0636
-21.0813
-21.1207
-21.1842
-21.2743
-21.394
-21.5465
-21.7355
-21.9647
-22.2376
-22.5569
-22.9228
-23.3322
-23.7768
-24.2426
-24.711
-25.1606
-25.5714
-25.9286
-26.2236
-26.4542
-26.6222
-26.7313
-26.7849
-27.2539
-27.1939
-27.0791
-26.9185
-26.7233
-26.5048
-26.2727
-26.0341
-25.7936
-25.5535
-25.3143
-25.0762
-24.8396
-24.6055
-24.3754
-24.1514
-23.9355
-23.7291
-23.5326
-23.3457
-23.1673
-22.996
-22.8305
-22.6698
-22.5138
-22.3627
-22.217
-22.0771
-21.943
-21.8145
-21.6917
-21.5745
-21.4637
-21.3604
-21.2661
-21.1825
-21.1112
-21.0535
-21.0109
-20.9846
-20.9761
-20.9871
-21.0196
-21.0761
-21.1594
-21.2729
-21.4202
-21.6058
-21.8345
-22.1116
-22.4414
-22.8261
-23.2637
-23.7458
-24.2566
-24.7732
-25.2689
-25.7184
-26.104
-26.4171
-26.6573
-26.8293
-26.9393
-26.9928
-27.4246
-27.3556
-27.2243
-27.0423
-26.824
-26.5833
-26.3316
-26.0771
-25.8242
-25.5744
-25.3274
-25.0823
-24.839
-24.5981
-24.3615
-24.1318
-23.9114
-23.702
-23.5042
-23.3173
-23.1397
-22.9692
-22.8041
-22.6434
-22.4866
-22.3344
-22.1873
-22.0461
-21.9106
-21.7804
-21.6551
-21.5347
-21.4198
-21.3116
-21.2119
-21.1225
-21.0453
-20.9818
-20.9331
-20.9005
-20.8852
-20.8891
-20.914
-20.9628
-21.0385
-21.1445
-21.2852
-21.4658
-21.6923
-21.9716
-22.3107
-22.7141
-23.1817
-23.7057
-24.2679
-24.8405
-25.3894
-25.8826
-26.2986
-26.629
-26.8767
-27.0502
-27.1591
-27.2114
-27.6111
-27.5312
-27.3802
-27.173
-26.9279
-26.6621
-26.389
-26.1177
-25.8524
-25.5935
-25.3393
-25.0876
-24.8375
-24.5895
-24.3459
-24.1099
-23.8846
-23.6722
-23.4733
-23.287
-23.1107
-22.9418
-22.7775
-22.6167
-22.4591
-22.3055
-22.157
-22.0145
-21.8779
-21.7462
-21.6186
-21.4948
-21.3754
-21.262
-21.1564
-21.0611
-20.9778
-20.9081
-20.8533
-20.8141
-20.7919
-20.7881
-20.805
-20.8454
-20.9125
-21.01
-21.1427
-21.3163
-21.5383
-21.8177
-22.1639
-22.5853
-23.0844
-23.6544
-24.2752
-24.9128
-25.5234
-26.0657
-26.5134
-26.8597
-27.1117
-27.2832
-27.3885
-27.4382
-27.814
-27.7211
-27.5466
-27.3098
-27.0337
-26.7397
-26.4434
-26.1547
-25.8774
-25.6104
-25.3499
-25.0921
-24.8353
-24.58
-24.3287
-24.0856
-23.855
-23.6396
-23.44
-23.2548
-23.0809
-22.914
-22.751
-22.5902
-22.4316
-22.2762
-22.1261
-21.9825
-21.845
-21.7121
-21.5824
-21.4552
-21.3312
-21.2121
-21.1003
-20.9985
-20.909
-20.8332
-20.772
-20.7263
-20.6969
-20.6852
-20.6935
-20.7248
-20.7825
-20.8705
-20.9937
-21.1585
-21.3735
-21.6497
-22.0005
-22.4382
-22.9696
-23.5897
-24.277
-24.9903
-25.6726
-26.2698
-26.7501
-27.1093
-27.3612
-27.5266
-27.625
-27.6706
-28.0343
-27.9258
-27.7234
-27.4517
-27.1399
-26.8145
-26.4934
-26.1869
-25.8984
-25.6247
-25.3592
-25.0961
-24.8329
-24.5698
-24.3098
-24.0588
-23.8224
-23.6039
-23.404
-23.221
-23.0503
-22.8864
-22.725
-22.5642
-22.4043
-22.2468
-22.0948
-21.9501
-21.8123
-21.6787
-21.5471
-21.4165
-21.2876
-21.1623
-21.0437
-20.9353
-20.8393
-20.7573
-20.69
-20.6378
-20.601
-20.5811
-20.5804
-20.6021
-20.6497
-20.7272
-20.8394
-20.9933
-21.1985
-21.4681
-21.8196
-22.2711
-22.8348
-23.509
-24.2715
-25.073
-25.8394
-26.4979
-27.0107
-27.3783
-27.6243
-27.7783
-27.8662
-27.9056
-28.273
-28.1457
-27.9104
-27.5977
-27.2451
-26.885
-26.5374
-26.213
-25.9147
-25.6362
-25.3675
-25.1001
-24.8305
-24.5592
-24.2895
-24.0294
-23.7867
-23.565
-23.3653
-23.1854
-23.0193
-22.8594
-22.7
-22.5392
-22.3775
-22.2173
-22.0629
-21.9174
-21.7798
-21.6462
-21.513
-21.379
-21.245
-21.1129
-20.987
-20.8716
-20.7691
-20.6809
-20.6076
-20.549
-20.505
-20.4766
-20.4664
-20.478
-20.515
-20.5811
-20.681
-20.8221
-21.0144
-21.2733
-21.6209
-22.0823
-22.6773
-23.4091
-24.2562
-25.1613
-26.0265
-26.7536
-27.2973
-27.667
-27.8996
-28.0361
-28.1093
-28.1407
-28.5312
-28.3815
-28.1074
-27.7469
-27.3475
-26.9496
-26.574
-26.2319
-25.9256
-25.6449
-25.3752
-25.1043
-24.8286
-24.5487
-24.2679
-23.9971
-23.7475
-23.5227
-23.3235
-23.1481
-22.9881
-22.8334
-22.6764
-22.5154
-22.3516
-22.1877
-22.0302
-21.8843
-21.7479
-21.6151
-21.4806
-21.3432
-21.2037
-21.0642
-20.9303
-20.8076
-20.6986
-20.6044
-20.5254
-20.4607
-20.4095
-20.3723
-20.3522
-20.3533
-20.3793
-20.4334
-20.5199
-20.6463
-20.8227
-21.066
-21.404
-21.8703
-22.4946
-23.2864
-24.2279
-25.2551
-26.238
-27.0413
-27.6124
-27.9753
-28.1857
-28.2977
-28.3518
-28.373
-28.8104
-28.6339
-28.3144
-27.8979
-27.4452
-27.0065
-26.6018
-26.2423
-25.9305
-25.6509
-25.3828
-25.1093
-24.8276
-24.5388
-24.245
-23.9617
-23.7047
-23.4766
-23.2785
-23.1091
-22.9571
-22.8091
-22.6547
-22.4932
-22.3269
-22.158
-21.9966
-21.8506
-21.7166
-21.5857
-21.4502
-21.3093
-21.1643
-21.0164
-20.8736
-20.7435
-20.628
-20.5278
-20.4437
-20.3734
-20.3151
-20.2689
-20.2385
-20.2286
-20.2434
-20.2851
-20.3572
-20.4673
-20.6249
-20.8473
-21.1688
-21.6336
-22.2838
-23.1369
-24.1825
-25.3544
-26.4789
-27.3664
-27.9586
-28.3032
-28.4805
-28.5604
-28.5908
-28.5997
-29.1122
-28.9034
-28.5316
-28.0494
-27.5359
-27.0542
-26.6196
-26.2429
-25.9289
-25.6542
-25.3911
-25.1158
-24.8281
-24.5304
-24.2211
-23.9227
-23.6581
-23.4266
-23.2298
-23.0684
-22.9267
-22.7871
-22.6353
-22.473
-22.3037
-22.1281
-21.9613
-21.8161
-21.686
-21.5585
-21.4222
-21.2778
-21.1271
-20.9698
-20.8169
-20.6794
-20.5574
-20.4515
-20.3628
-20.2874
-20.2224
-20.167
-20.1256
-20.1045
-20.1081
-20.1373
-20.194
-20.2867
-20.423
-20.6185
-20.9156
-21.3706
-22.0421
-22.956
-24.1143
-25.4587
-26.7559
-27.7355
-28.3384
-28.6497
-28.7817
-28.8214
-28.8237
-28.8184
-29.4384
-29.1907
-28.7591
-28.2001
-27.6169
-27.0914
-26.6261
-26.2322
-25.9202
-25.6554
-25.4013
-25.1242
-24.8304
-24.5244
-24.1962
-23.8793
-23.6076
-23.3726
-23.1769
-23.0259
-22.8973
-22.7683
-22.6186
-22.4548
-22.2827
-22.098
-21.9237
-21.7804
-21.6562
-21.534
-21.3969
-21.2487
-21.0927
-20.9244
-20.7598
-20.6152
-20.4869
-20.3754
-20.283
-20.2034
-20.132
-20.0669
-20.014
-19.9814
-19.9741
-19.991
-20.0314
-20.1061
-20.2191
-20.3814
-20.645
-21.08
-21.7674
-22.739
-24.0157
-25.5671
-27.0778
-28.1562
-28.7543
-29.0135
-29.0864
-29.0778
-29.0478
-29.0266
-29.7912
-29.4956
-28.9977
-28.3482
-27.685
-27.117
-26.6205
-26.2084
-25.9041
-25.6548
-25.4147
-25.1349
-24.8345
-24.5223
-24.1705
-23.8304
-23.5532
-23.3145
-23.1189
-22.9816
-22.8692
-22.7536
-22.6049
-22.4389
-22.2646
-22.0675
-21.8827
-21.743
-21.6274
-21.5131
-21.3745
-21.2222
-21.0619
-20.8803
-20.702
-20.5512
-20.4168
-20.2995
-20.2046
-20.1217
-20.0445
-19.9691
-19.904
-19.8594
-19.8419
-19.8472
-19.8703
-19.927
-20.016
-20.1379
-20.3579
-20.7605
-21.4578
-22.4812
-23.8763
-25.6774
-27.4567
-28.6376
-29.2078
-29.3922
-29.3914
-29.3267
-29.2607
-29.2223
-30.1732
-29.8179
-29.2487
-28.492
-27.7359
-27.1307
-26.6025
-26.1695
-25.8804
-25.6527
-25.4336
-25.1483
-24.8403
-24.5261
-24.1442
-23.7741
-23.4954
-23.2523
-23.0547
-22.9354
-22.8428
-22.7446
-22.5945
-22.4249
-22.2508
-22.0365
-21.8366
-21.7038
-21.5998
-21.4968
-21.3551
-21.1981
-21.0356
-20.8377
-20.6426
-20.4875
-20.3472
-20.2235
-20.1278
-20.0426
-19.9606
-19.8741
-19.7956
-19.7387
-19.7121
-19.707
-19.7112
-19.7509
-19.8166
-19.8901
-20.0558
-20.4106
-21.1125
-22.1786
-23.6821
-25.7864
-27.909
-29.1899
-29.6998
-29.7825
-29.6927
-29.5649
-29.4602
-29.4036
-30.5874
-30.1556
-29.5146
-28.6294
-27.7638
-27.1332
-26.5721
-26.1125
-25.8493
-25.6496
-25.4606
-25.1642
-24.8468
-24.5391
-24.1174
-23.7078
-23.4352
-23.1867
-22.9825
-22.8876
-22.8184
-22.743
-22.5872
-22.4122
-22.243
-22.0048
-21.7835
-21.6623
-21.5732
-21.4864
-21.3387
-21.1758
-21.0153
-20.7965
-20.5803
-20.4245
-20.2783
-20.147
-20.0529
-19.9666
-19.881
-19.7821
-19.689
-19.6192
-19.585
-19.5715
-19.5541
-19.5788
-19.6249
-19.6404
-19.7408
-20.0281
-20.732
-21.829
-23.414
-25.8882
-28.457
-29.8242
-30.2292
-30.1796
-29.9862
-29.7897
-29.6445
-29.5692
-31.038
-30.505
-29.7996
-28.7585
-27.761
-27.1268
-26.5302
-26.0334
-25.8115
-25.6453
-25.4999
-25.1821
-24.8518
-24.5658
-24.0902
-23.6272
-23.3745
-23.1183
-22.8998
-22.8387
-22.7959
-22.7516
-22.5827
-22.3993
-22.2441
-21.9725
-21.7201
-21.6185
-21.5475
-21.4842
-21.325
-21.1543
-21.0031
-20.7569
-20.5132
-20.3631
-20.2106
-20.0691
-19.9803
-19.8938
-19.8064
-19.6935
-19.5842
-19.5003
-19.4608
-19.4424
-19.3985
-19.4116
-19.4452
-19.3909
-19.4158
-19.6099
-20.3184
-21.433
-23.046
-25.9738
-29.132
-30.552
-30.793
-30.5776
-30.2674
-29.9981
-29.8118
-29.7181
-31.5302
-30.8593
-30.1106
-28.8768
-27.7168
-27.1161
-26.4786
-25.9261
-25.7688
-25.6388
-25.5573
-25.2007
-24.8516
-24.613
-24.0628
-23.5261
-23.3168
-23.0485
-22.8026
-22.7898
-22.7745
-22.7742
-22.5801
-22.3838
-22.2586
-21.9393
-21.6422
-21.5733
-21.5222
-21.4932
-21.3133
-21.1315
-21.0024
-20.7187
-20.4382
-20.3046
-20.1445
-19.9886
-19.9107
-19.8243
-19.7381
-19.6082
-19.481
-19.3816
-19.3397
-19.3219
-19.2433
-19.2493
-19.2834
-19.1431
-19.0854
-19.1507
-19.876
-20.9966
-22.5432
-26.0295
-29.977
-31.3838
-31.385
-30.9694
-30.5316
-30.188
-29.9612
-29.8497
-32.0715
-31.2066
-30.459
-28.9823
-27.6158
-27.1096
-26.4203
-25.7821
-25.7251
-25.6276
-25.641
-25.2177
-24.8398
-24.6908
-24.0352
-23.3951
-23.2677
-22.9794
-22.6853
-22.7433
-22.7526
-22.816
-22.5779
-22.3616
-22.2927
-21.9053
-21.5439
-21.5281
-21.4958
-21.5176
-21.3024
-21.1042
-21.0179
-20.6818
-20.3512
-20.2514
-20.0808
-19.9035
-19.8449
-19.7579
-19.6773
-19.5265
-19.3794
-19.262
-19.2213
-19.213
-19.0859
-19.0912
-19.1469
-18.8974
-18.7563
-18.6421
-19.411
-20.5339
-21.8589
-26.0347
-31.0516
-32.3274
-31.9954
-31.3465
-30.7745
-30.3572
-30.0918
-29.9637
-32.6723
-31.5279
-30.862
-29.0727
-27.4368
-27.1207
-26.3594
-25.5886
-25.687
-25.6064
-25.7629
-25.2297
-24.8068
-24.8137
-24.0072
-23.2206
-23.2362
-22.9139
-22.5394
-22.7035
-22.7266
-22.885
-22.5737
-22.3263
-22.3557
-21.8702
-21.4169
-21.4865
-21.4655
-21.5637
-21.2905
-21.0675
-21.0566
-20.6461
-20.2459
-20.2073
-20.0206
-19.8107
-19.7847
-19.6937
-19.626
-19.4479
-19.2794
-19.1403
-19.1049
-19.1202
-18.9227
-18.9352
-19.0456
-18.6521
-18.4387
-18.0709
-18.932
-20.0711
-20.931
-25.9592
-32.4381
-33.385
-32.61
-31.7
-30.9919
-30.5044
-30.2036
-30.0605
-33.3476
-31.7937
-31.3459
-29.1455
-27.1499
-27.1701
-26.3019
-25.3273
-25.666
-25.5654
-25.9399
-25.2316
-24.7376
-25.0024
-23.9788
-22.9836
-23.2355
-22.8558
-22.3527
-22.6777
-22.6901
-22.9922
-22.5641
-22.2683
-22.4611
-21.8339
-21.2496
-21.4548
-21.4264
-21.6405
-21.2748
-21.0139
-21.1288
-20.611
-20.1135
-20.1781
-19.9651
-19.7059
-19.7328
-19.6304
-19.5865
-19.372
-19.1812
-19.0149
-18.9893
-19.0501
-18.7483
-18.7774
-18.9928
-18.4019
-18.1482
-17.4169
-18.4492
-19.6521
-19.6779
-25.7602
-34.2494
-34.5486
-33.2102
-32.0203
-31.1804
-30.6287
-30.2965
-30.1403
-34.1181
-31.9598
-31.9491
-29.1988
-26.7139
-27.2883
-26.2554
-24.9723
-25.681
-25.4884
-26.196
-25.2164
-24.6108
-25.2861
-23.9494
-22.657
-23.2853
-22.8101
-22.1079
-22.678
-22.6322
-23.1533
-22.5445
-22.1737
-22.6275
-21.7958
-21.0264
-21.4432
-21.3698
-21.7606
-21.2515
-20.9327
-21.2484
-20.5758
-19.9419
-20.1724
-19.9157
-19.5828
-19.6935
-19.5653
-19.5625
-19.2976
-19.0853
-18.8837
-18.8718
-19.012
-18.555
-18.6117
-19.007
-18.1356
-17.9083
-16.6499
-17.9734
-19.3446
-17.9934
-25.3771
-36.6386
-35.7942
-33.7726
-32.2986
-31.3375
-30.7299
-30.371
-30.204
-35.0135
-31.9618
-32.7266
-29.2301
-26.0727
-27.5188
-26.2292
-24.4867
-25.7611
-25.349
-26.5645
-25.1744
-24.3958
-25.7048
-23.9179
-22.204
-23.4138
-22.7832
-21.7807
-22.7235
-22.5355
-23.3903
-22.5083
-22.0228
-22.8808
-21.7548
-20.7262
-21.4682
-21.2821
-21.9417
-21.2156
-20.8086
-21.4353
-20.5394
-19.7144
-20.2026
-19.8741
-19.4326
-19.6733
-19.4938
-19.5588
-19.2227
-18.9929
-18.7443
-18.7485
-19.0194
-18.3326
-18.4285
-19.1134
-17.8341
-17.7542
-15.727
-17.5148
-19.2489
-15.7414
-24.7268
-39.8115
-37.0736
-34.2707
-32.5271
-31.4616
-30.8082
-30.4282
-30.2526
-36.0746
-31.7086
-33.7557
-29.2373
-25.1508
-27.9223
-26.2344
-23.8201
-25.9504
-25.1071
-27.0917
-25.0933
-24.0504
-26.3128
-23.8831
-21.5747
-23.66
-22.7825
-21.3375
-22.8426
-22.3736
-23.7334
-22.4472
-21.7885
-23.256
-21.7091
-20.3206
-21.5544
-21.142
-22.2079
-21.16
-20.6208
-21.7161
-20.5
-19.4089
-20.2862
-19.842
-19.2432
-19.6822
-19.4092
-19.5822
-19.1439
-18.9058
-18.5941
-18.6127
-19.0906
-18.0673
-18.2139
-19.3468
-17.4657
-17.7368
-14.5886
-17.0798
-19.5074
-12.749
-23.6962
-44.0415
-38.3037
-34.6762
-32.6999
-31.5524
-30.8646
-30.469
-30.2871
-37.3574
-31.0739
-35.1423
-29.2177
-23.8485
-28.5814
-26.284
-22.904
-26.3133
-24.7028
-27.84
-24.9572
-23.5176
-27.1818
-23.8423
-20.7036
-24.077
-22.8167
-20.733
-23.0775
-22.1072
-24.2238
-22.3504
-21.434
-23.7995
-21.6557
-19.772
-21.7378
-20.918
-22.5924
-21.0759
-20.3411
-22.1265
-20.4546
-18.9961
-20.4471
-19.8209
-18.9986
-19.7343
-19.3011
-19.6421
-19.0565
-18.827
-18.4302
-18.4548
-19.2507
-17.742
-17.9484
-19.7549
-16.9819
-17.9294
-13.154
-16.6679
-20.3165
-8.80027
-22.1346
-49.6871
-39.3533
-34.9626
-32.814
-31.6109
-30.9005
-30.4948
-30.3089
-38.9367
-29.8872
-37.0287
-29.1675
-22.0361
-29.6054
-26.3921
-21.6468
-26.941
-24.0502
-28.8929
-24.7461
-22.7221
-28.406
-23.792
-19.5048
-24.735
-22.8952
-19.9058
-23.4867
-21.6788
-24.9157
-22.2041
-20.9116
-24.573
-21.5901
-19.03
-22.0675
-20.5628
-23.1374
-20.951
-19.9322
-22.7126
-20.3992
-18.4378
-20.7171
-19.8114
-18.6771
-19.8495
-19.1543
-19.7512
-18.9527
-18.7606
-18.2493
-18.2604
-19.533
-17.3345
-17.6049
-20.4017
-16.3109
-18.4337
-11.3168
-16.2667
-21.9391
-3.62812
-19.8438
-57.2124
-40.0269
-35.1104
-32.8698
-31.6391
-30.9177
-30.5071
-30.3193
)
;

boundaryField
{
    left
    {
        type            calculated;
        value           nonuniform List<scalar> 
32
(
-26.4236
-26.4459
-26.4886
-26.5499
-26.6283
-26.7229
-26.833
-26.9583
-27.0986
-27.2539
-27.4246
-27.6111
-27.814
-28.0343
-28.273
-28.5312
-28.8104
-29.1122
-29.4384
-29.7912
-30.1732
-30.5874
-31.038
-31.5302
-32.0715
-32.6723
-33.3476
-34.1181
-35.0135
-36.0746
-37.3574
-38.9367
)
;
    }
    right
    {
        type            calculated;
        value           nonuniform List<scalar> 
32
(
-25.7943
-25.8289
-25.8949
-25.9889
-26.1078
-26.2493
-26.4108
-26.5901
-26.7849
-26.9928
-27.2114
-27.4382
-27.6706
-27.9056
-28.1407
-28.373
-28.5997
-28.8184
-29.0266
-29.2223
-29.4036
-29.5692
-29.7181
-29.8497
-29.9637
-30.0605
-30.1403
-30.204
-30.2526
-30.2871
-30.3089
-30.3193
)
;
    }
    interface
    {
        type            calculated;
        value           nonuniform List<scalar> 
64
(
-39.8113
-29.1314
-38.1171
-29.1344
-20.9842
-30.2242
-26.4625
-20.9199
-27.3343
-23.6493
-29.5074
-24.6189
-22.248
-29.1201
-23.764
-18.8114
-25.1342
-22.9466
-19.4277
-23.7434
-21.4157
-25.3197
-22.1166
-20.6018
-25.026
-21.5536
-18.6034
-22.2758
-20.3451
-23.4559
-20.8764
-19.6901
-23.0562
-20.3683
-18.1168
-20.8839
-19.8096
-18.4941
-19.9257
-19.0689
-19.8199
-18.8956
-18.7311
-18.1542
-18.152
-19.7094
-17.1073
-17.4097
-20.794
-15.9181
-18.7786
-10.2825
-16.0662
-22.9912
-0.699424
-18.488
-61.5102
-40.2407
-35.1478
-32.8834
-31.6459
-30.9219
-30.5101
-30.3219
)
;
    }
    bottom
    {
        type            calculated;
        value           nonuniform List<scalar> 
64
(
-26.4178
-26.3904
-26.3363
-26.2571
-26.1548
-26.032
-25.8913
-25.7356
-25.5676
-25.3899
-25.2049
-25.0146
-24.8211
-24.6261
-24.431
-24.2372
-24.0458
-23.8576
-23.6736
-23.4941
-23.3198
-23.1509
-22.9878
-22.8306
-22.6796
-22.5351
-22.3973
-22.2665
-22.1433
-22.0279
-21.9211
-21.8233
-21.7355
-21.6583
-21.5928
-21.54
-21.501
-21.4769
-21.4689
-21.4783
-21.5064
-21.5544
-21.6235
-21.7149
-21.8294
-21.9679
-22.1307
-22.3177
-22.5282
-22.7608
-23.0131
-23.2818
-23.5627
-23.8506
-24.1394
-24.4226
-24.6936
-24.9458
-25.1732
-25.3704
-25.5332
-25.6581
-25.7426
-25.7853
)
;
    }
    defaultFaces
    {
        type            empty;
    }
}


// ************************************************************************* //
