/*--------------------------------*- C++ -*----------------------------------*\
| =========                 |                                                 |
| \\      /  F ield         | OpenFOAM: The Open Source CFD Toolbox           |
|  \\    /   O peration     | Version:  5.x                                   |
|   \\  /    A nd           | Web:      www.OpenFOAM.org                      |
|    \\/     M anipulation  |                                                 |
\*---------------------------------------------------------------------------*/
FoamFile
{
    version     2.0;
    format      ascii;
    class       volScalarField;
    location    "10.7";
    object      gradTx;
}
// * * * * * * * * * * * * * * * * * * * * * * * * * * * * * * * * * * * * * //

dimensions      [0 -1 0 1 0 0 0];

internalField   nonuniform List<scalar> 
2048
(
0.0063051
0.0187347
0.0306393
0.041721
0.0517508
0.0605796
0.0681367
0.0744202
0.0794796
0.0833978
0.0862745
0.0882142
0.0893187
0.0896849
0.0894053
0.0885689
0.0872625
0.0855699
0.0835686
0.0813273
0.0789016
0.0763324
0.0736444
0.0708478
0.0679403
0.0649099
0.061737
0.0583961
0.0548563
0.0510817
0.047032
0.0426637
0.0379315
0.0327908
0.0271999
0.0211211
0.0145221
0.00737687
-0.000334267
-0.00862295
-0.0174907
-0.0269253
-0.0368952
-0.0473432
-0.0581777
-0.0692639
-0.0804147
-0.0913829
-0.101858
-0.111465
-0.119783
-0.126361
-0.130754
-0.132571
-0.131513
-0.127417
-0.120278
-0.110248
-0.0976161
-0.0827655
-0.06613
-0.0481505
-0.0292471
-0.00980744
0.0187889
0.0558192
0.0912585
0.124208
0.153983
0.180141
0.202484
0.221018
0.235907
0.247407
0.255826
0.261475
0.26466
0.265667
0.264766
0.262222
0.258291
0.253222
0.24725
0.240577
0.233373
0.225757
0.217802
0.209537
0.200951
0.192009
0.18265
0.172799
0.162364
0.151239
0.139303
0.126426
0.112473
0.0973109
0.0808137
0.0628698
0.0433832
0.0222761
-0.000510423
-0.0250127
-0.0512383
-0.0791554
-0.108677
-0.139639
-0.17178
-0.204709
-0.237878
-0.270561
-0.301835
-0.330588
-0.355551
-0.375363
-0.388677
-0.394293
-0.391299
-0.379195
-0.357964
-0.328076
-0.290414
-0.246153
-0.196609
-0.14311
-0.0869056
-0.0291384
0.0311408
0.0924851
0.15111
0.20549
0.254479
0.29736
0.333836
0.363963
0.388055
0.406576
0.420055
0.429024
0.433982
0.435394
0.433701
0.429329
0.4227
0.414227
0.404301
0.393265
0.3814
0.368903
0.35589
0.342402
0.328415
0.313864
0.298647
0.28264
0.265692
0.247628
0.22825
0.207339
0.18467
0.160019
0.133177
0.103959
0.072208
0.037794
0.000619003
-0.039382
-0.0822306
-0.127888
-0.176228
-0.227008
-0.279819
-0.334049
-0.388823
-0.442967
-0.494973
-0.542995
-0.584904
-0.61839
-0.641141
-0.65108
-0.646615
-0.626866
-0.591804
-0.542256
-0.479772
-0.406391
-0.324375
-0.235962
-0.143224
-0.0480094
0.0436007
0.129429
0.211279
0.286946
0.354804
0.413882
0.463834
0.504831
0.537402
0.56227
0.580222
0.592018
0.59835
0.599848
0.597101
0.590688
0.581193
0.569196
0.555251
0.53985
0.52339
0.506145
0.488268
0.4698
0.450696
0.43085
0.410119
0.388328
0.365273
0.340712
0.314367
0.28593
0.255081
0.2215
0.184894
0.145005
0.101614
0.0545433
0.00365385
-0.0511532
-0.109925
-0.172633
-0.239139
-0.309149
-0.382153
-0.457354
-0.533602
-0.609314
-0.682419
-0.750342
-0.810053
-0.858212
-0.891427
-0.9066
-0.901336
-0.874297
-0.825438
-0.756017
-0.668384
-0.565595
-0.450975
-0.327746
-0.198794
-0.066611
0.0563843
0.167272
0.272727
0.369779
0.456295
0.53108
0.593812
0.644869
0.685088
0.715529
0.737279
0.75134
0.758588
0.759793
0.755673
0.746941
0.734337
0.718619
0.700519
0.680694
0.659665
0.637785
0.615231
0.59203
0.568097
0.54328
0.517385
0.490195
0.461451
0.430853
0.39804
0.362611
0.324139
0.282205
0.236426
0.18647
0.132061
0.0729757
0.00903405
-0.0599019
-0.133918
-0.213018
-0.297082
-0.385806
-0.47862
-0.574606
-0.672389
-0.770034
-0.864944
-0.953814
-1.03266
-1.097
-1.14218
-1.16387
-1.15869
-1.12471
-1.06186
-0.971949
-0.858334
-0.725319
-0.577485
-0.419136
-0.253976
-0.0850564
0.0696965
0.206603
0.336348
0.455082
0.560133
0.650123
0.724857
0.78505
0.831972
0.867111
0.891913
0.907634
0.915312
0.915823
0.909976
0.898599
0.882586
0.862884
0.840432
0.816075
0.790473
0.764057
0.737015
0.709337
0.680876
0.651415
0.620711
0.588504
0.554497
0.518332
0.479568
0.437698
0.392179
0.34248
0.288121
0.228697
0.163882
0.093411
0.0170678
-0.0653299
-0.15392
-0.248765
-0.349797
-0.456743
-0.569034
-0.685689
-0.805187
-0.925307
-1.04298
-1.15418
-1.25392
-1.33643
-1.39554
-1.42544
-1.42144
-1.38086
-1.30359
-1.19215
-1.0512
-0.886628
-0.704544
-0.510468
-0.308919
-0.103386
0.0837414
0.248002
0.403011
0.543892
0.667395
0.772028
0.857862
0.926119
0.978663
1.01753
1.04459
1.06135
1.06897
1.06839
1.06046
1.04608
1.0263
1.00229
0.975234
0.946192
0.915992
0.885137
0.85381
0.821928
0.789251
0.755479
0.720313
0.683465
0.644615
0.603359
0.559173
0.511431
0.459455
0.402584
0.340234
0.271929
0.197302
0.116059
0.0279528
-0.067245
-0.169739
-0.279677
-0.397078
-0.521752
-0.653185
-0.790412
-0.931848
-1.07508
-1.21665
-1.35185
-1.47463
-1.57775
-1.65328
-1.6935
-1.69205
-1.64522
-1.55282
-1.41832
-1.24812
-1.05015
-0.832389
-0.601758
-0.363566
-0.121568
0.0987306
0.292064
0.473591
0.637223
0.779093
0.897693
0.993552
1.06862
1.12555
1.16709
1.19557
1.21275
1.21988
1.21785
1.20747
1.18971
1.16578
1.13708
1.1051
1.07118
1.03634
1.00115
0.965764
0.929979
0.893416
0.855665
0.816373
0.775241
0.731957
0.686085
0.637017
0.583988
0.526156
0.462709
0.392948
0.316329
0.232459
0.141036
0.0417918
-0.065547
-0.181267
-0.305626
-0.438774
-0.580647
-0.730853
-0.888519
-1.0521
-1.21911
-1.38581
-1.54689
-1.69519
-1.82186
-1.91683
-1.96998
-1.97277
-1.92007
-1.81152
-1.65187
-1.44986
-1.21608
-0.96087
-0.692714
-0.417663
-0.139506
0.11489
0.33942
0.548998
0.736097
0.896198
1.02792
1.1325
1.2129
1.27283
1.31588
1.34493
1.36199
1.36824
1.36445
1.35132
1.3298
1.30126
1.26743
1.23014
1.19111
1.15157
1.11218
1.073
1.03365
0.993551
0.952153
0.909044
0.863956
0.816623
0.766607
0.713209
0.655495
0.592424
0.522998
0.446388
0.361995
0.26942
0.168379
0.058606
-0.0602162
-0.188469
-0.326553
-0.474786
-0.633282
-0.801825
-0.979719
-1.16557
-1.35698
-1.55007
-1.73903
-1.91567
-2.06931
-2.18735
-2.25664
-2.26576
-2.20758
-2.0815
-1.89395
-1.65682
-1.38424
-1.08946
-0.782741
-0.470767
-0.157037
0.132466
0.390753
0.630199
0.841564
1.01966
1.16343
1.27516
1.35916
1.42049
1.46381
1.49262
1.50906
1.51418
1.50843
1.49227
1.4666
1.43296
1.39346
1.35043
1.30599
1.2617
1.21827
1.17561
1.13308
1.08983
1.04511
0.998464
0.9497
0.898671
0.844976
0.787814
0.726041
0.658364
0.583556
0.50064
0.408973
0.308189
0.198059
0.0783445
-0.0513041
-0.19138
-0.342461
-0.505073
-0.679552
-0.865911
-1.06371
-1.27184
-1.48813
-1.70881
-1.92776
-2.13582
-2.32035
-2.46574
-2.5551
-2.57315
-2.51
-2.36453
-2.14549
-1.86906
-1.55403
-1.21724
-0.870958
-0.52226
-0.173942
0.151729
0.446809
0.718234
0.954724
1.15041
1.30486
1.42182
1.5074
1.56836
1.61065
1.63843
1.6539
1.65774
1.64996
1.63058
1.60036
1.56107
1.51529
1.46598
1.4158
1.3667
1.31943
1.27369
1.22844
1.18245
1.13472
1.08476
1.03253
0.978117
0.9212
0.860862
0.795686
0.724058
0.644464
0.555754
0.457267
0.348719
0.229985
0.100894
-0.038925
-0.190094
-0.353407
-0.529647
-0.719404
-0.922963
-1.14021
-1.37044
-1.61193
-1.86124
-2.11227
-2.35503
-2.57487
-2.75269
-2.86689
-2.89713
-2.82962
-2.66238
-2.40726
-2.0863
-1.72443
-1.34296
-0.956208
-0.571361
-0.189945
0.172984
0.508413
0.814234
1.07673
1.28939
1.45279
1.57269
1.65748
1.71607
1.75597
1.78203
1.79633
1.79896
1.78921
1.76651
1.73134
1.68576
1.633
1.57676
1.52045
1.46648
1.41566
1.36732
1.31987
1.2716
1.22116
1.16804
1.11248
1.05493
0.995248
0.93235
0.864467
0.789573
0.70579
0.611766
0.506852
0.390922
0.264019
0.126085
-0.0232485
-0.184757
-0.359503
-0.548574
-0.752845
-0.972891
-1.20898
-1.46092
-1.72766
-2.00643
-2.2915
-2.57242
-2.83248
-3.04861
-3.19342
-3.24
-3.169
-2.97694
-2.67985
-2.30787
-1.89402
-1.46495
-1.03709
-0.617153
-0.204734
0.19657
0.576478
0.919432
1.20882
1.43753
1.60771
1.72781
1.80911
1.86311
1.89921
1.92298
1.93613
1.93784
1.92639
1.90034
1.85982
1.80722
1.74663
1.68271
1.6198
1.56092
1.50691
1.45657
1.40757
1.35752
1.30466
1.24843
1.18955
1.12905
1.06705
1.00225
0.932409
0.854971
0.767603
0.668695
0.557675
0.434672
0.299974
0.153701
-0.00449222
-0.17556
-0.360902
-0.561972
-0.779946
-1.01567
-1.26983
-1.54287
-1.83462
-2.14332
-2.46418
-2.78674
-3.09241
-3.35363
-3.53606
-3.60423
-3.53098
-3.31021
-2.96367
-2.5327
-2.0609
-1.58124
-1.11198
-0.658619
-0.217962
0.222865
0.652017
1.03518
1.35229
1.59573
1.77001
1.88712
1.96182
2.00878
2.03967
2.06077
2.07306
2.07436
2.06169
2.03242
1.98608
1.92562
1.85624
1.78374
1.71367
1.64985
1.59313
1.54154
1.49172
1.44047
1.38546
1.32605
1.2637
1.20036
1.1365
1.07053
0.999526
0.920317
0.829975
0.726559
0.609665
0.479816
0.337631
0.18348
0.0170849
-0.162728
-0.357792
-0.570004
-0.80084
-1.05138
-1.32267
-1.61595
-1.93209
-2.27079
-2.62882
-2.99646
-3.35354
-3.66759
-3.89604
-3.99252
-3.91885
-3.66447
-3.25896
-2.75924
-2.2227
-1.6895
-1.1791
-0.694678
-0.229274
0.252298
0.736146
1.16294
1.50854
1.76491
1.93999
2.05044
2.11502
2.15224
2.17652
2.19482
2.20684
2.20853
2.19536
2.16314
2.11048
2.04116
1.96186
1.87973
1.80181
1.73305
1.67426
1.62234
1.57256
1.52078
1.46386
1.40105
1.33487
1.26868
1.20347
1.13712
1.06583
0.985685
0.893001
0.785378
0.662732
0.526175
0.376736
0.215123
0.0411885
-0.146513
-0.350382
-0.572868
-0.815726
-1.08015
-1.36752
-1.67992
-2.01948
-2.38769
-2.78378
-3.19975
-3.61438
-3.98996
-4.27439
-4.40782
-4.33648
-4.04233
-3.5657
-2.98539
-2.37656
-1.78714
-1.23656
-0.724243
-0.238318
0.285349
0.830088
1.30431
1.67907
1.9459
2.11782
2.21745
2.268
2.29248
2.30879
2.32449
2.33721
2.34034
2.32769
2.29297
2.23338
2.154
2.06353
1.97053
1.88393
1.81026
1.75022
1.69909
1.65034
1.59878
1.54023
1.47355
1.40293
1.33378
1.26777
1.20197
1.13133
1.05116
0.956804
0.845177
0.716767
0.573553
0.417009
0.248295
0.0674937
-0.127184
-0.338895
-0.570789
-0.824862
-1.10223
-1.4045
-1.73467
-2.09626
-2.49288
-2.92726
-3.39446
-3.87305
-4.31979
-4.67191
-4.85339
-4.78855
-4.44681
-3.88355
-3.20839
-2.51911
-1.87132
-1.28246
-0.746274
-0.24477
0.322569
0.935169
1.46101
1.86546
2.13951
2.30351
2.38778
2.41992
2.42835
2.43542
2.44913
2.46395
2.46981
2.459
2.42249
2.35518
2.2643
2.1613
2.05596
1.95967
1.88113
1.82094
1.77198
1.72532
1.67489
1.61501
1.54374
1.4677
1.39535
1.32923
1.26503
1.19602
1.11684
1.02155
0.905989
0.771641
0.621741
0.458154
0.28263
0.0956493
-0.105017
-0.323544
-0.564004
-0.828561
-1.11796
-1.43382
-1.78022
-2.16211
-2.58531
-3.05736
-3.57819
-4.1273
-4.65565
-5.08894
-5.33274
-5.28071
-4.8815
-4.21169
-3.4247
-2.64645
-1.93907
-1.31497
-0.75984
-0.248354
0.364596
1.05281
1.63487
2.0695
2.3464
2.49685
2.56097
2.56989
2.55854
2.5552
2.5681
2.58693
2.59691
2.58966
2.55245
2.47632
2.37217
2.25525
2.13588
2.02858
1.94529
1.88634
1.84122
1.79777
1.74953
1.68878
1.6118
1.52891
1.45299
1.38761
1.32628
1.2599
1.18283
1.08748
0.967857
0.82719
0.670528
0.499859
0.31773
0.12528
-0.080288
-0.304528
-0.55275
-0.827185
-1.12778
-1.45582
-1.81678
-2.21691
-2.66404
-3.17213
-3.7483
-4.37453
-4.99562
-5.52521
-5.84962
-5.82001
-5.35069
-4.54864
-3.62982
-2.7542
-1.9874
-1.33241
-0.764183
-0.248858
0.412194
1.1845
1.82777
2.29313
2.56712
2.69734
2.73656
2.71696
2.6816
2.6668
2.68079
2.70612
2.72156
2.72002
2.68375
2.59723
2.47764
2.34553
2.21012
2.09014
2.00224
1.94638
1.90713
1.86793
1.82317
1.76225
1.67795
1.58618
1.50621
1.44271
1.38576
1.32292
1.24924
1.15491
1.03083
0.883202
0.719716
0.541812
0.35316
0.155986
-0.0532638
-0.282007
-0.537248
-0.821138
-1.1322
-1.47091
-1.84464
-2.26081
-2.72831
-3.26956
-3.90192
-4.61187
-5.33727
-5.97949
-6.40791
-6.41524
-5.85953
-4.89198
-3.81816
-2.83757
-2.01339
-1.3334
-0.75877
-0.246155
0.466322
1.33177
2.04167
2.53862
2.80195
2.90411
2.9142
2.86021
2.79588
2.76876
2.78668
2.82175
2.84357
2.85041
2.81763
2.71832
2.58056
2.43242
2.27856
2.14371
2.05139
2.00106
1.97014
1.93593
1.89626
1.83637
1.74244
1.63899
1.55439
1.49432
1.44363
1.38497
1.31617
1.22431
1.09493
0.939387
0.769136
0.583708
0.38845
0.187347
-0.0241983
-0.25609
-0.517686
-0.810863
-1.13185
-1.47954
-1.86427
-2.2943
-2.77757
-3.34768
-4.03598
-4.83628
-5.67774
-6.44927
-7.01141
-7.07753
-6.41421
-5.23788
-3.98284
-2.89143
-2.01441
-1.31693
-0.743339
-0.240213
0.528244
1.49612
2.2784
2.8087
3.05089
3.11576
3.09375
2.99876
2.89953
2.85945
2.88535
2.93431
2.9625
2.9811
2.9557
2.83992
2.68054
2.51637
2.34113
2.1885
2.09206
2.05041
2.03091
2.00178
1.9692
1.91239
1.80555
1.68663
1.59675
1.54226
1.50017
1.44584
1.38365
1.29634
1.16019
0.995339
0.818691
0.625258
0.423081
0.218914
0.00667205
-0.226815
-0.494204
-0.796832
-1.12748
-1.4822
-1.8762
-2.31828
-2.81155
-3.4045
-4.14725
-5.04466
-6.01388
-6.93016
-7.66352
-7.82115
-7.02221
-5.58055
-4.11558
-2.91051
-1.98823
-1.28245
-0.717928
-0.231099
0.599711
1.67894
2.53962
3.10681
3.31346
3.33017
3.27555
3.13183
2.99046
2.93706
2.97652
3.04483
3.07757
3.11215
3.10023
2.96224
2.77682
2.59817
2.39784
2.22356
2.12336
2.09455
2.09035
2.06523
2.0423
1.99199
1.86756
1.72818
1.63237
1.58639
1.55593
1.50514
1.45166
1.37198
1.22657
1.05047
0.868399
0.666201
0.456473
0.250217
0.0391292
-0.194133
-0.466877
-0.779538
-1.11997
-1.47931
-1.88095
-2.33414
-2.83026
-3.43812
-4.23226
-5.23399
-6.34265
-7.4153
-8.36671
-8.66452
-7.69248
-5.91146
-4.20657
-2.88966
-1.93326
-1.22994
-0.682887
-0.218978
0.68325
1.8814
2.82653
3.43746
3.58855
3.54422
3.46066
3.25879
3.0663
2.99953
3.06005
3.15501
3.18736
3.24335
3.25438
3.08519
2.86802
2.67914
2.44877
2.24773
2.14428
2.13365
2.14985
2.12562
2.11566
2.07747
1.92874
1.7624
1.66014
1.62664
1.61184
1.5622
1.52002
1.45261
1.29392
1.10396
0.91848
0.706307
0.487965
0.280761
0.0729694
-0.15789
-0.435697
-0.759489
-1.11039
-1.4712
-1.87898
-2.34387
-2.83403
-3.44673
-4.28731
-5.40153
-6.66158
-7.89457
-9.1218
-9.63156
-8.43573
-6.21827
-4.24453
-2.82413
-1.8487
-1.15996
-0.638865
-0.204106
0.7826
2.10426
3.13952
3.80682
3.87421
3.75344
3.65135
3.37911
3.12429
3.04455
3.13595
3.26762
3.28963
3.374
3.42261
3.20831
2.95196
2.76137
2.49408
2.25955
2.15357
2.16794
2.21143
2.18173
2.18906
2.17196
1.98926
1.78771
1.67876
1.66297
1.66934
1.6159
1.58829
1.54027
1.36194
1.15458
0.969458
0.745374
0.516794
0.310036
0.107995
-0.117805
-0.400565
-0.73718
-1.10008
-1.45801
-1.87049
-2.35026
-2.82346
-3.42861
-4.30831
-5.54487
-6.9697
-8.35353
-9.92681
-10.7535
-9.2646
-6.48347
-4.21686
-2.71002
-1.73469
-1.07367
-0.586787
-0.186815
0.903355
2.34766
3.47774
4.22345
4.16727
3.95153
3.8517
3.49232
3.16122
3.06951
3.20427
3.38691
3.38082
3.50271
3.61128
3.33048
3.02527
2.8481
2.53394
2.25727
2.14972
2.19767
2.27807
2.23148
2.26183
2.2798
2.04911
1.80211
1.68671
1.6954
1.73067
1.66454
1.65575
1.63787
1.43006
1.20063
1.02233
0.78321
0.542056
0.337532
0.143999
-0.0734535
-0.361277
-0.713065
-1.09075
-1.43962
-1.85526
-2.35706
-2.79941
-3.38225
-4.29066
-5.66204
-7.26868
-8.7724
-10.7755
-12.0712
-10.1938
-6.68268
-4.11006
-2.5447
-1.59243
-0.972732
-0.527797
-0.167496
1.05387
2.61079
3.83832
4.69939
4.46293
4.12976
4.06837
3.59785
3.1734
3.07149
3.26499
3.51923
3.45566
3.62708
3.82933
3.44966
3.08299
2.94428
2.56843
2.23874
2.13103
2.22299
2.3541
2.27162
2.33258
2.40693
2.10787
1.80314
1.68234
1.72386
1.79914
1.70553
1.72114
1.74957
1.49728
1.23973
1.07877
0.819593
0.562674
0.362761
0.180737
-0.024242
-0.317523
-0.687498
-1.0846
-1.41557
-1.83236
-2.36932
-2.76282
-3.30645
-4.22902
-5.75134
-7.56453
-9.12465
-11.6556
-13.6381
-11.2404
-6.78243
-3.91054
-2.32734
-1.42423
-0.859315
-0.463205
-0.146576
1.2465
2.89154
4.21552
5.25155
4.75421
4.27615
4.31174
3.69469
3.15653
3.04727
3.31769
3.67387
3.50646
3.74328
4.08928
3.56245
3.11801
3.05722
2.59732
2.20139
2.09551
2.24376
2.44572
2.29733
2.39903
2.56146
2.16451
1.78784
1.66383
1.74812
1.87959
1.7351
1.78254
1.88119
1.56202
1.26858
1.14143
0.854189
0.577352
0.385304
0.217893
0.0306185
-0.268906
-0.660646
-1.08456
-1.38498
-1.79984
-2.39372
-2.71458
-3.20046
-4.11706
-5.81102
-7.86982
-9.37566
-12.5456
-15.5237
-12.4233
-6.73759
-3.60581
-2.05936
-1.23349
-0.735932
-0.394412
-0.124496
1.49926
3.18596
4.59951
5.90353
5.03118
4.37461
4.59723
3.78091
3.10572
2.99341
3.36115
3.86409
3.52235
3.84556
4.40841
3.66363
3.12047
3.19747
2.61978
2.14223
2.04102
2.25931
2.56169
2.30172
2.45764
2.75438
2.21696
1.75276
1.6293
1.76754
1.97888
1.74789
1.83713
2.04083
1.62184
1.28273
1.2143
0.886439
0.584538
0.404867
0.255025
0.0921472
-0.214963
-0.632362
-1.09449
-1.34647
-1.75427
-2.43914
-2.6551
-3.06428
-3.94714
-5.83859
-8.20646
-9.48116
-13.4122
-17.8183
-13.7636
-6.48821
-3.18624
-1.74484
-1.02455
-0.605329
-0.32284
-0.101693
1.83795
3.4877
4.9748
6.68788
5.28008
4.40375
4.94705
3.85292
3.01552
2.90642
3.39274
4.10846
3.4884
3.92564
4.81023
3.74544
3.07695
3.37997
2.63383
2.05783
1.96531
2.26802
2.71423
2.2752
2.50322
3.00045
2.26161
1.69397
1.57696
1.78076
2.10659
1.7365
1.88088
2.23952
1.67314
1.27623
1.30317
0.915368
0.582379
0.421368
0.291489
0.161638
-0.155231
-0.602003
-1.1195
-1.29811
-1.6902
-2.51725
-2.58395
-2.89905
-3.71008
-5.82974
-8.6092
-9.38565
-14.2057
-20.6381
-15.2833
-5.95598
-2.64746
-1.39076
-0.802489
-0.470328
-0.249865
-0.0785763
2.29882
3.78724
5.31839
7.64892
5.48214
4.33564
5.39226
3.90443
2.88002
2.783
3.40745
4.43247
3.38447
3.97195
5.32623
3.79684
2.96962
3.62541
2.63575
1.94443
1.86623
2.26669
2.92001
2.20477
2.52856
3.31921
2.2926
1.60725
1.50526
1.78522
2.27584
1.69089
1.90825
2.49206
1.71072
1.24137
1.41619
0.939339
0.568695
0.435039
0.326348
0.24072
-0.0893353
-0.56818
-1.16632
-1.23741
-1.59952
-2.64336
-2.49913
-2.70752
-3.39492
-5.77666
-9.12974
-9.02093
-14.8556
-24.1314
-17.005
-5.04011
-1.99353
-1.00697
-0.572824
-0.33368
-0.176759
-0.0555185
2.93175
4.07103
5.59753
8.84595
5.61228
4.13429
5.9753
3.92502
2.69311
2.62038
3.39677
4.8705
3.18398
3.96882
5.99791
3.80254
2.77526
3.96182
2.61913
1.79809
1.74193
2.24986
3.20149
2.07323
2.52386
3.73624
2.301
1.48819
1.41312
1.77652
2.50428
1.59775
1.91179
2.81793
1.72736
1.1682
1.56457
0.955709
0.540968
0.446564
0.358247
0.331438
-0.0171324
-0.528452
-1.24365
-1.16135
-1.47065
-2.83741
-2.39624
-2.49476
-2.98879
-5.66585
-9.84154
-8.30472
-15.2642
-28.4859
-18.9507
-3.61293
-1.24083
-0.605815
-0.341147
-0.197923
-0.104649
-0.0328425
3.80408
4.32052
5.76711
10.3571
5.63746
3.7541
6.75282
3.89844
2.44885
2.41688
3.34715
5.46806
2.85257
3.89547
6.87899
3.74189
2.46421
4.42648
2.57372
1.6149
1.59123
2.20876
3.58835
1.85824
2.47622
4.28454
2.27366
1.33256
1.30028
1.7477
2.81522
1.43978
1.88172
3.24243
1.71321
1.04421
1.7633
0.960405
0.496354
0.457237
0.38526
0.436358
0.0611023
-0.478922
-1.36266
-1.06645
-1.28764
-3.12519
-2.26734
-2.26895
-2.47702
-5.47517
-10.8452
-7.13949
-15.301
-33.9365
-21.1392
-1.51516
-0.422855
-0.201268
-0.112737
-0.0652796
-0.0344839
-0.0108172
)
;

boundaryField
{
    left
    {
        type            calculated;
        value           uniform 0;
    }
    right
    {
        type            calculated;
        value           uniform 0;
    }
    interface
    {
        type            calculated;
        value           nonuniform List<scalar> 
64
(
3.80408
4.32052
5.76711
10.3571
5.63746
3.7541
6.75282
3.89844
2.44885
2.41688
3.34715
5.46806
2.85257
3.89547
6.87899
3.74189
2.46421
4.42648
2.57372
1.6149
1.59123
2.20876
3.58835
1.85824
2.47622
4.28454
2.27366
1.33256
1.30028
1.7477
2.81522
1.43978
1.88172
3.24243
1.71321
1.04421
1.7633
0.960405
0.496354
0.457237
0.38526
0.436358
0.0611023
-0.478922
-1.36266
-1.06645
-1.28764
-3.12519
-2.26734
-2.26895
-2.47702
-5.47517
-10.8452
-7.13949
-15.301
-33.9365
-21.1392
-1.51516
-0.422855
-0.201268
-0.112737
-0.0652796
-0.0344839
-0.0108172
)
;
    }
    bottom
    {
        type            calculated;
        value           nonuniform List<scalar> 
64
(
0.0063051
0.0187347
0.0306393
0.041721
0.0517508
0.0605796
0.0681367
0.0744202
0.0794796
0.0833978
0.0862745
0.0882142
0.0893187
0.0896849
0.0894053
0.0885689
0.0872625
0.0855699
0.0835686
0.0813273
0.0789016
0.0763324
0.0736444
0.0708478
0.0679403
0.0649099
0.061737
0.0583961
0.0548563
0.0510817
0.047032
0.0426637
0.0379315
0.0327908
0.0271999
0.0211211
0.0145221
0.00737687
-0.000334267
-0.00862295
-0.0174907
-0.0269253
-0.0368952
-0.0473432
-0.0581777
-0.0692639
-0.0804147
-0.0913829
-0.101858
-0.111465
-0.119783
-0.126361
-0.130754
-0.132571
-0.131513
-0.127417
-0.120278
-0.110248
-0.0976161
-0.0827655
-0.06613
-0.0481505
-0.0292471
-0.00980744
)
;
    }
    defaultFaces
    {
        type            empty;
    }
}


// ************************************************************************* //
