/*--------------------------------*- C++ -*----------------------------------*\
| =========                 |                                                 |
| \\      /  F ield         | OpenFOAM: The Open Source CFD Toolbox           |
|  \\    /   O peration     | Version:  5.x                                   |
|   \\  /    A nd           | Web:      www.OpenFOAM.org                      |
|    \\/     M anipulation  |                                                 |
\*---------------------------------------------------------------------------*/
FoamFile
{
    version     2.0;
    format      ascii;
    class       volScalarField;
    location    "10.7";
    object      T;
}
// * * * * * * * * * * * * * * * * * * * * * * * * * * * * * * * * * * * * * //

dimensions      [0 0 0 1 0 0 0];

internalField   nonuniform List<scalar> 
2048
(
9.81021
9.8104
9.81079
9.81136
9.8121
9.81298
9.81399
9.81511
9.81632
9.81759
9.81892
9.82029
9.82168
9.82308
9.82448
9.82587
9.82725
9.8286
9.82992
9.83121
9.83246
9.83368
9.83485
9.83598
9.83706
9.8381
9.83909
9.84003
9.84092
9.84175
9.84251
9.84322
9.84385
9.8444
9.84487
9.84525
9.84553
9.8457
9.84576
9.84569
9.84549
9.84515
9.84465
9.84399
9.84317
9.84218
9.84101
9.83966
9.83815
9.83648
9.83467
9.83274
9.83072
9.82865
9.82658
9.82454
9.82259
9.82078
9.81915
9.81773
9.81656
9.81567
9.81506
9.81475
9.43876
9.43935
9.4405
9.4422
9.44439
9.44701
9.45001
9.45334
9.45692
9.46071
9.46465
9.4687
9.47282
9.47698
9.48113
9.48525
9.48932
9.49332
9.49723
9.50105
9.50475
9.50834
9.51181
9.51515
9.51835
9.52143
9.52436
9.52713
9.52976
9.53221
9.53448
9.53656
9.53843
9.54008
9.54147
9.5426
9.54344
9.54396
9.54413
9.54394
9.54335
9.54234
9.54088
9.53894
9.53651
9.53358
9.53012
9.52614
9.52166
9.51671
9.51133
9.5056
9.4996
9.49345
9.48728
9.48122
9.47543
9.47004
9.46518
9.46096
9.45749
9.45482
9.45301
9.4521
9.08311
9.08409
9.086
9.08881
9.09242
9.09676
9.10172
9.10719
9.11309
9.11932
9.1258
9.13245
9.1392
9.14601
9.15281
9.15956
9.16623
9.17277
9.17917
9.1854
9.19146
9.19732
9.20299
9.20845
9.21369
9.21871
9.2235
9.22804
9.23233
9.23634
9.24007
9.24348
9.24655
9.24925
9.25155
9.25341
9.2548
9.25567
9.25598
9.25569
9.25475
9.25312
9.25075
9.24761
9.24366
9.23886
9.23322
9.22671
9.21937
9.21125
9.20241
9.19297
9.18308
9.17293
9.16273
9.15272
9.14314
9.13423
9.1262
9.11924
9.1135
9.1091
9.10613
9.10463
8.74235
8.74371
8.74639
8.75031
8.75536
8.7614
8.76829
8.77589
8.78407
8.79269
8.80164
8.81082
8.82014
8.82952
8.83888
8.84818
8.85734
8.86634
8.87513
8.88369
8.892
8.90005
8.90782
8.91531
8.9225
8.92939
8.93596
8.94221
8.9481
8.95362
8.95875
8.96344
8.96768
8.97142
8.9746
8.97719
8.97913
8.98037
8.98084
8.98048
8.97924
8.97705
8.97385
8.96958
8.96418
8.95763
8.94989
8.94096
8.93085
8.91963
8.9074
8.89432
8.88058
8.86646
8.85225
8.83829
8.82493
8.8125
8.80131
8.79161
8.78363
8.77752
8.77339
8.77131
8.41562
8.41738
8.42085
8.42591
8.4324
8.44017
8.449
8.45872
8.46915
8.48013
8.49151
8.50317
8.51499
8.52688
8.53874
8.55049
8.56208
8.57344
8.58453
8.59533
8.60581
8.61595
8.62574
8.63517
8.64424
8.65292
8.66122
8.66909
8.67653
8.68351
8.69
8.69595
8.70133
8.70608
8.71015
8.71347
8.71598
8.7176
8.71826
8.71788
8.71638
8.71369
8.70973
8.70441
8.69767
8.68945
8.67971
8.66844
8.65565
8.64141
8.62584
8.60914
8.59156
8.57345
8.55519
8.53724
8.52005
8.50406
8.48967
8.47723
8.46701
8.45919
8.45391
8.45125
8.10217
8.10434
8.10862
8.11486
8.12284
8.13236
8.14316
8.15501
8.16769
8.18101
8.19479
8.20888
8.22315
8.23749
8.25177
8.26592
8.27985
8.2935
8.30682
8.31977
8.33232
8.34447
8.3562
8.3675
8.37837
8.38878
8.39872
8.40818
8.41711
8.4255
8.43331
8.44049
8.44699
8.45275
8.45769
8.46175
8.46484
8.46687
8.46776
8.4674
8.46572
8.46259
8.45794
8.45166
8.44367
8.43388
8.42224
8.40872
8.39333
8.37613
8.35726
8.33694
8.31549
8.29333
8.27095
8.24891
8.2278
8.20817
8.19054
8.17532
8.16283
8.15331
8.14688
8.14365
7.80127
7.80388
7.80902
7.81648
7.82601
7.83734
7.85014
7.86414
7.87908
7.89473
7.91088
7.92737
7.94405
7.96078
7.97743
7.99391
8.01012
8.02599
8.04145
8.05646
8.07101
8.08509
8.09867
8.11177
8.12436
8.13643
8.14797
8.15894
8.16933
8.17909
8.18818
8.19656
8.20416
8.21092
8.21674
8.22155
8.22524
8.22772
8.22887
8.22859
8.22677
8.22329
8.21803
8.21088
8.20172
8.19047
8.17702
8.16135
8.14343
8.12332
8.10118
8.07724
8.05188
8.02558
7.99895
7.9727
7.94754
7.92418
7.90322
7.88517
7.8704
7.85916
7.8516
7.8478
7.51226
7.51535
7.52139
7.53015
7.5413
7.5545
7.56936
7.58554
7.60275
7.62072
7.63922
7.65808
7.67712
7.6962
7.71518
7.73393
7.75236
7.77036
7.78789
7.8049
7.82137
7.83728
7.85265
7.86746
7.88171
7.89538
7.90845
7.92089
7.93268
7.94377
7.95412
7.96368
7.97237
7.98012
7.98683
7.9924
7.99671
7.99966
8.00112
8.00097
7.99907
7.9953
7.98952
7.98159
7.97138
7.95875
7.94361
7.92587
7.90551
7.88257
7.85717
7.82959
7.80024
7.76969
7.73868
7.70804
7.67868
7.65143
7.62705
7.60612
7.58905
7.5761
7.56741
7.56305
7.23453
7.23812
7.24514
7.25528
7.26814
7.28329
7.30027
7.31868
7.33817
7.35845
7.37929
7.40048
7.42185
7.44324
7.46449
7.48547
7.50605
7.52613
7.54566
7.56457
7.58288
7.60056
7.61763
7.63409
7.64993
7.66514
7.67969
7.69355
7.70669
7.71907
7.73064
7.74136
7.75113
7.75987
7.76747
7.77382
7.77878
7.78224
7.78405
7.78407
7.78216
7.77818
7.77196
7.76334
7.75217
7.73829
7.72155
7.70186
7.67915
7.65342
7.6248
7.59356
7.56014
7.5252
7.48962
7.4544
7.42063
7.38935
7.36144
7.33758
7.31819
7.30353
7.29373
7.28882
6.9675
6.97164
6.97971
6.99133
7.00601
7.0232
7.04237
7.06304
7.08484
7.10743
7.13058
7.15408
7.17774
7.2014
7.22488
7.24803
7.27071
7.29281
7.31426
7.33501
7.35507
7.37444
7.39314
7.41118
7.42855
7.44524
7.46121
7.47644
7.49089
7.50452
7.51729
7.52914
7.53998
7.54971
7.55822
7.56536
7.571
7.57499
7.57719
7.57744
7.57558
7.57146
7.56488
7.55567
7.54365
7.52861
7.5104
7.48887
7.4639
7.43547
7.40366
7.36872
7.33115
7.29167
7.2513
7.21126
7.17286
7.13737
7.10582
7.07896
7.05725
7.04092
7.03004
7.0246
6.71061
6.71535
6.72457
6.7378
6.75441
6.77375
6.79519
6.81818
6.84229
6.86719
6.89262
6.91839
6.94431
6.9702
6.99587
7.02115
7.04588
7.06993
7.09323
7.11575
7.13748
7.15846
7.17871
7.19826
7.2171
7.23521
7.25256
7.26911
7.28483
7.29967
7.31361
7.32658
7.33848
7.3492
7.35862
7.36657
7.37291
7.37747
7.38009
7.38062
7.37888
7.37468
7.36783
7.35813
7.34535
7.32929
7.30972
7.28646
7.25935
7.2283
7.19334
7.1547
7.11287
7.06868
7.02328
6.97814
6.93486
6.89495
6.85963
6.82975
6.80574
6.78778
6.77586
6.76993
6.46335
6.46876
6.47924
6.4942
6.51289
6.5345
6.55829
6.58364
6.61009
6.63727
6.66496
6.69296
6.72109
6.74918
6.77701
6.80438
6.83111
6.85706
6.88214
6.90633
6.92966
6.95216
6.9739
6.99489
7.01514
7.03463
7.0533
7.07113
7.08807
7.1041
7.11917
7.13323
7.14619
7.15791
7.16824
7.17702
7.18408
7.18924
7.19233
7.19318
7.1916
7.18741
7.18037
7.17026
7.15684
7.13986
7.11906
7.09421
7.06507
7.03151
6.99346
6.95112
6.90495
6.85585
6.80515
6.7546
6.70612
6.66157
6.62238
6.58945
6.56319
6.54367
6.53078
6.52438
6.22524
6.23138
6.24325
6.26011
6.28103
6.30504
6.33127
6.35903
6.3878
6.41725
6.44715
6.47735
6.50766
6.5379
6.56786
6.59729
6.62598
6.65376
6.68056
6.70635
6.73118
6.75513
6.77827
6.80065
6.82226
6.84307
6.86303
6.88208
6.9002
6.91736
6.93355
6.94868
6.96268
6.9754
6.98667
6.9963
7.0041
7.00988
7.01347
7.01469
7.01333
7.0092
7.00205
6.99164
6.97768
6.9599
6.938
6.91168
6.88067
6.8447
6.80366
6.75762
6.70702
6.65282
6.59652
6.54019
6.48618
6.43674
6.39356
6.3576
6.32916
6.30818
6.29441
6.2876
5.9958
6.00276
6.01618
6.03511
6.05843
6.08498
6.11375
6.14395
6.17505
6.20673
6.23879
6.27113
6.30358
6.33595
6.368
6.39946
6.43007
6.45964
6.48808
6.51538
6.54163
6.56694
6.59141
6.61511
6.63803
6.66013
6.68133
6.70157
6.72082
6.73908
6.75633
6.77253
6.78757
6.80129
6.81351
6.824
6.83256
6.83899
6.84311
6.84472
6.84364
6.83964
6.83246
6.82183
6.80743
6.78897
6.7661
6.73847
6.70572
6.66751
6.62357
6.57387
6.51877
6.45926
6.39702
6.33449
6.27456
6.21998
6.17272
6.13375
6.10326
6.08095
6.06641
6.05925
5.77459
5.78248
5.7976
5.81882
5.84474
5.87397
5.90537
5.93805
5.97146
6.00531
6.03948
6.0739
6.10844
6.14291
6.17705
6.21051
6.243
6.2743
6.30431
6.33304
6.36061
6.3872
6.41293
6.43789
6.46208
6.48542
6.50782
6.5292
6.54954
6.56885
6.58714
6.60438
6.62045
6.63519
6.64836
6.65973
6.66907
6.67617
6.68084
6.68289
6.68213
6.67832
6.67118
6.66041
6.64569
6.62666
6.60295
6.57416
6.53984
6.49955
6.45285
6.39955
6.3399
6.27487
6.20633
6.13712
6.07081
6.0108
5.95938
5.91751
5.88512
5.86166
5.84647
5.83903
5.5612
5.57012
5.58714
5.61088
5.63961
5.67169
5.70579
5.74098
5.77667
5.81262
5.84882
5.88526
5.92186
5.9584
5.9946
6.03005
6.06439
6.09736
6.12887
6.15894
6.18775
6.21551
6.24244
6.26861
6.29401
6.31857
6.34215
6.36462
6.38599
6.4063
6.42561
6.44386
6.46096
6.47671
6.49086
6.50312
6.51326
6.52105
6.52629
6.52881
6.5284
6.52483
6.51781
6.50699
6.49203
6.47255
6.44814
6.41834
6.38263
6.34044
6.29116
6.23436
6.17012
6.09937
6.02413
5.9477
5.87448
5.80874
5.75312
5.70848
5.6744
5.65
5.63432
5.62668
5.35521
5.36529
5.38443
5.41095
5.44273
5.4778
5.51471
5.55242
5.59034
5.62831
5.66644
5.70484
5.74344
5.78203
5.82028
5.85773
5.89388
5.92849
5.96142
5.99274
6.02266
6.05152
6.07957
6.1069
6.13349
6.15924
6.18395
6.20748
6.22982
6.25108
6.27136
6.29062
6.30873
6.32552
6.34066
6.35383
6.36477
6.37326
6.37909
6.38209
6.38208
6.37881
6.37197
6.36118
6.34607
6.32625
6.30127
6.27062
6.2337
6.18982
6.13816
6.07801
6.00918
5.93252
5.85015
5.76587
5.68513
5.61332
5.55351
5.5063
5.47081
5.4457
5.42972
5.42196
5.15623
5.16763
5.18913
5.21872
5.2538
5.29204
5.33183
5.37207
5.41214
5.45203
5.49199
5.53228
5.57283
5.61343
5.65376
5.6932
5.73114
5.76733
5.80162
5.83407
5.86501
5.89486
5.92396
5.9524
5.98014
6.00707
6.03292
6.05744
6.08069
6.10285
6.12406
6.1443
6.16343
6.18126
6.19741
6.2115
6.22326
6.23246
6.23888
6.24239
6.2428
6.23988
6.23328
6.2226
6.20743
6.18736
6.16194
6.13059
6.09266
6.04734
5.99353
5.9302
5.85683
5.77409
5.68416
5.59129
5.50229
5.42408
5.36014
5.31065
5.27407
5.24854
5.23244
5.22466
4.9639
4.97678
5.00091
5.0339
5.07257
5.11412
5.15687
5.19964
5.24177
5.28344
5.32511
5.36721
5.40968
5.45226
5.49468
5.53613
5.57584
5.61355
5.64914
5.68262
5.71445
5.74519
5.77528
5.80479
5.83365
5.86176
5.88872
5.9142
5.93829
5.96127
5.98337
6.00457
6.02472
6.04361
6.06081
6.07583
6.08841
6.09832
6.10534
6.10935
6.11021
6.10769
6.1014
6.0909
6.07574
6.05552
6.02977
5.99787
5.95912
5.91261
5.85695
5.79068
5.71283
5.62389
5.52597
5.42364
5.32549
5.24053
5.17262
5.12121
5.08394
5.0583
5.04228
5.03458
4.77785
4.79242
4.81946
4.85622
4.8988
4.94378
4.98955
5.03485
5.07893
5.12222
5.16546
5.20931
5.25363
5.29817
5.34271
5.38622
5.42766
5.46686
5.50367
5.53807
5.57066
5.60217
5.63319
5.66374
5.69369
5.723
5.75108
5.77745
5.8023
5.82602
5.84899
5.87114
5.89228
5.91227
5.93053
5.94648
5.95989
5.97052
5.97813
5.98266
5.98399
5.9819
5.97598
5.96572
5.95064
5.93035
5.90441
5.87209
5.83271
5.7853
5.7281
5.65917
5.57696
5.48174
5.37542
5.26264
5.15425
5.06219
4.99057
4.93773
4.90021
4.87478
4.85905
4.85155
4.59773
4.61424
4.64448
4.68544
4.73225
4.78078
4.82962
4.87746
4.92333
4.96807
5.01269
5.05823
5.10439
5.15081
5.19755
5.24318
5.28629
5.32694
5.36493
5.4001
5.43332
5.46548
5.4974
5.52895
5.55995
5.59048
5.61971
5.64691
5.67242
5.69681
5.72062
5.74369
5.7658
5.78693
5.80631
5.82318
5.83741
5.84877
5.85695
5.86199
5.8638
5.8622
5.85671
5.84675
5.83181
5.81152
5.78549
5.75289
5.71304
5.66503
5.60665
5.53542
5.449
5.34749
5.23244
5.10801
4.98803
4.88856
4.81363
4.75995
4.72268
4.69782
4.6826
4.67538
4.4232
4.44194
4.47567
4.52131
4.57276
4.62485
4.67683
4.72721
4.7747
4.82067
4.86648
4.91368
4.96163
5.00986
5.05888
5.10674
5.15145
5.19351
5.23265
5.26845
5.30213
5.3348
5.36759
5.40013
5.43213
5.46395
5.49438
5.52231
5.54838
5.57332
5.59796
5.62194
5.64499
5.66731
5.68787
5.70564
5.72069
5.73278
5.74151
5.74704
5.74933
5.74826
5.74327
5.73367
5.7189
5.69867
5.67268
5.63989
5.59973
5.55145
5.49229
5.41919
5.32873
5.22098
5.097
4.95952
4.82624
4.71913
4.6415
4.58768
4.5512
4.52726
4.51277
4.50592
4.25394
4.27529
4.31274
4.36362
4.42016
4.47577
4.53091
4.58391
4.63275
4.67973
4.72649
4.77536
4.82508
4.87496
4.92644
4.97666
5.02285
5.06629
5.10657
5.14281
5.17681
5.20982
5.24349
5.27701
5.30991
5.34312
5.37484
5.40339
5.42991
5.45527
5.48074
5.50564
5.52956
5.55314
5.57496
5.59358
5.60945
5.62228
5.63153
5.63753
5.6403
5.63981
5.63537
5.62619
5.61163
5.59149
5.56566
5.53278
5.49241
5.44421
5.3847
5.31023
5.2159
5.10206
4.9692
4.817
4.66821
4.55339
4.47389
4.42075
4.38564
4.36297
4.34939
4.34301
4.08962
4.11407
4.15537
4.21218
4.27434
4.33325
4.39163
4.44736
4.49723
4.54499
4.59237
4.64299
4.69448
4.74579
4.79992
4.85275
4.90018
4.94499
4.98647
5.02293
5.05709
5.09023
5.12483
5.15934
5.19301
5.22775
5.26089
5.28991
5.31675
5.34237
5.36872
5.39454
5.41922
5.44418
5.46735
5.48674
5.50343
5.51703
5.52672
5.53318
5.53641
5.53656
5.53273
5.52404
5.50969
5.48966
5.46413
5.43121
5.39069
5.34298
5.28354
5.20834
5.11026
4.99054
4.84922
4.68032
4.51317
4.39081
4.31056
4.25903
4.22587
4.20482
4.19232
4.18648
3.92989
3.95812
4.00325
4.0668
4.13524
4.19702
4.25872
4.31739
4.36786
4.41618
4.46378
4.51631
4.56962
4.62196
4.67908
4.73482
4.78316
4.82936
4.87216
4.90854
4.9427
4.97572
5.01138
5.04691
5.08111
5.11759
5.15235
5.18163
5.20867
5.23434
5.26165
5.28842
5.31367
5.34016
5.36485
5.38485
5.40237
5.4168
5.42685
5.43374
5.4374
5.43824
5.4351
5.42695
5.41282
5.39286
5.36783
5.33489
5.29417
5.2474
5.18848
5.11332
5.01154
4.88617
4.7374
4.54944
4.36017
4.23088
4.15134
4.10244
4.07182
4.05268
4.04142
4.03618
3.77442
3.80735
3.85601
3.9273
4.00286
4.06677
4.13192
4.1939
4.24435
4.29307
4.34033
4.3951
4.45031
4.50309
4.56366
4.62276
4.67146
4.7191
4.76347
4.79936
4.83343
4.86596
4.9029
4.93953
4.97388
5.01242
5.0491
5.07829
5.10545
5.13086
5.15932
5.18709
5.21262
5.24087
5.26729
5.28766
5.30603
5.32137
5.33164
5.33896
5.34298
5.3446
5.34222
5.33468
5.32074
5.30079
5.2765
5.24353
5.20246
5.15719
5.09913
5.02503
4.9194
4.78864
4.63426
4.4244
4.20807
4.07314
3.99612
3.95094
3.92339
3.90643
3.89653
3.89195
3.62284
3.66179
3.7132
3.79352
3.87731
3.94209
4.01094
4.07683
4.1264
4.17548
4.22162
4.27915
4.33643
4.38873
4.45341
4.51652
4.56474
4.61396
4.66027
4.69513
4.72907
4.76061
4.79918
4.83704
4.87098
4.91201
4.95102
4.97965
5.00689
5.03164
5.06152
5.09038
5.11574
5.14609
5.17453
5.1949
5.21417
5.23057
5.24087
5.24861
5.25291
5.25542
5.25386
5.24702
5.23322
5.21312
5.18994
5.15688
5.11513
5.07205
5.01512
4.94339
4.83352
4.69746
4.54054
4.30541
4.05542
3.91718
3.84487
3.8045
3.78051
3.76595
3.75752
3.75363
3.47473
3.52158
3.57429
3.66532
3.75878
3.82254
3.89549
3.96621
4.01364
4.06326
4.10718
4.1683
4.22794
4.27837
4.34811
4.41613
4.4626
4.51365
4.56252
4.59552
4.62946
4.6593
4.70007
4.73935
4.772
4.81615
4.85807
4.88543
4.91284
4.93635
4.96808
4.99819
5.0227
5.0556
5.08648
5.10628
5.12656
5.14423
5.15426
5.16249
5.16692
5.17046
5.1698
5.16375
5.15003
5.12954
5.10796
5.07472
5.03173
4.99175
4.93597
4.8684
4.75352
4.61195
4.45723
4.19282
3.90041
3.76271
3.69765
3.66314
3.64313
3.63112
3.62421
3.62103
3.32964
3.38708
3.43863
3.54254
3.64763
3.70754
3.78525
3.86214
3.90565
3.95637
3.99648
4.0624
4.12487
4.17141
4.24754
4.32173
4.36459
4.41788
4.47021
4.50019
4.53452
4.56161
4.60539
4.64643
4.67649
4.72465
4.77026
4.79533
4.8232
4.84461
4.87884
4.91044
4.93311
4.96922
5.00309
5.0215
5.04298
5.06223
5.07158
5.08043
5.08475
5.08953
5.0898
5.08468
5.07099
5.0497
5.03042
4.99688
4.95176
4.91613
4.86116
4.80019
4.67898
4.53115
4.38568
4.08723
3.74074
3.60962
3.55462
3.52689
3.51116
3.50181
3.49646
3.494
3.18702
3.25885
3.30537
3.42505
3.5444
3.59637
3.67988
3.76488
3.8019
3.85488
3.88887
3.96136
4.02738
4.06713
4.1515
4.23357
4.27016
4.32637
4.38345
4.40874
4.44421
4.46706
4.51505
4.55831
4.58395
4.63733
4.68767
4.70897
4.7379
4.75601
4.79369
4.82713
4.84653
4.88676
4.9244
4.94022
4.9632
4.98448
4.99255
5.00225
5.00615
5.01245
5.01367
5.00966
4.99591
4.97321
4.95724
4.92323
4.87464
4.84513
4.79003
4.73904
4.60951
4.45373
4.3276
3.9895
3.5735
3.45809
3.416
3.39579
3.38453
3.37789
3.3741
3.37237
3.04619
3.1378
3.17341
3.31273
3.44984
3.48811
3.57904
3.67484
3.70169
3.759
3.78358
3.86515
3.93578
3.96465
4.05981
4.15208
4.17864
4.23881
4.30245
4.32065
4.35864
4.37509
4.42894
4.47514
4.49373
4.55401
4.61049
4.62591
4.657
4.67007
4.71251
4.74833
4.76244
4.80808
4.8505
4.86206
4.88701
4.91095
4.91688
4.92785
4.93083
4.93905
4.94119
4.93851
4.92467
4.89965
4.88838
4.85369
4.79971
4.77881
4.72175
4.68541
4.54469
4.37786
4.28517
3.90085
3.39499
3.30865
3.28208
3.26987
3.26315
3.25921
3.25697
3.25594
2.90633
3.02521
3.04135
3.20543
3.36501
3.3816
3.48232
3.59263
3.60415
3.66916
3.67968
3.77376
3.85056
3.8629
3.97229
4.07787
4.08922
4.15487
4.22755
4.2353
4.27802
4.28503
4.34704
4.39716
4.40511
4.47455
4.539
4.5456
4.58064
4.58623
4.63526
4.67421
4.68025
4.73301
4.78158
4.78655
4.81421
4.84165
4.84422
4.85716
4.85851
4.8692
4.87215
4.87111
4.85718
4.82853
4.82385
4.78829
4.72619
4.71743
4.65529
4.64003
4.48419
4.30112
4.26108
3.82296
3.20056
3.16236
3.15322
3.14915
3.14693
3.14563
3.14489
3.14455
)
;

boundaryField
{
    left
    {
        type            zeroGradient;
    }
    right
    {
        type            zeroGradient;
    }
    interface
    {
        type            fixedValue;
        value           nonuniform List<scalar> 
64
(
2.83483
2.97289
2.97289
3.15311
3.32733
3.32733
3.43481
3.55507
3.55507
3.6267
3.6267
3.72953
3.81058
3.81058
3.92961
4.04411
4.04411
4.11369
4.19271
4.19271
4.2396
4.2396
4.30729
4.3601
4.3601
4.43585
4.5057
4.5057
4.5442
4.5442
4.59778
4.63884
4.63884
4.69643
4.74906
4.74906
4.77865
4.80844
4.80844
4.82292
4.82292
4.83528
4.83853
4.83853
4.82459
4.79313
4.79313
4.75702
4.68886
4.68886
4.62157
4.62157
4.45534
4.25984
4.25984
3.78976
3.09008
3.09008
3.09008
3.09008
3.09008
3.09008
3.09008
3.09008
)
;
    }
    bottom
    {
        type            fixedValue;
        value           uniform 10;
    }
    defaultFaces
    {
        type            empty;
    }
}


// ************************************************************************* //
