/*--------------------------------*- C++ -*----------------------------------*\
| =========                 |                                                 |
| \\      /  F ield         | OpenFOAM: The Open Source CFD Toolbox           |
|  \\    /   O peration     | Version:  5.x                                   |
|   \\  /    A nd           | Web:      www.OpenFOAM.org                      |
|    \\/     M anipulation  |                                                 |
\*---------------------------------------------------------------------------*/
FoamFile
{
    version     2.0;
    format      ascii;
    class       volScalarField;
    location    "9.6";
    object      gradTx;
}
// * * * * * * * * * * * * * * * * * * * * * * * * * * * * * * * * * * * * * //

dimensions      [0 -1 0 1 0 0 0];

internalField   nonuniform List<scalar> 
3200
(
45.2118
3.7117
1.64865
1.54011
0.814932
0.771346
0.466723
0.447268
0.293827
0.282721
0.170835
0.166692
0.180696
0.180846
0.173154
0.172312
0.15953
0.158413
0.144288
0.143105
0.128817
0.127647
0.113842
0.112747
0.100205
0.0993178
0.0901413
0.0901348
0.0950628
0.164727
0.0824846
0.0552447
0.0534166
0.0416692
0.0408421
0.0332451
0.0326863
0.0269701
0.0265406
0.0219829
0.0216364
0.0178981
0.0176106
0.0144634
0.0142163
0.011449
0.011222
0.00856036
0.00832172
0.00520025
0.0050695
0.00506848
0.00502087
0.00395619
0.00384316
0.00219312
0.00202771
-0.000278266
-0.00051563
-0.00387273
-0.00423505
-0.00950084
-0.010106
-0.0191785
-0.0203265
-0.0381863
-0.0408592
-0.0840588
-0.0929837
-0.238842
-0.617584
-0.436426
-0.681944
-0.713318
-1.26874
-1.24311
-0.0558183
-0.00753249
-0.00152609
-52.9455
47.8962
3.10508
1.57722
1.35445
0.774042
0.680991
0.436315
0.394715
0.271787
0.248194
0.160332
0.151487
0.160987
0.161195
0.155216
0.153442
0.143359
0.140994
0.129816
0.127309
0.115995
0.113515
0.102585
0.100266
0.0903592
0.0884954
0.0814224
0.0815725
0.0883547
0.137346
0.0765861
0.0516055
0.0475345
0.0380029
0.0362292
0.0301728
0.0289843
0.0244444
0.0235325
0.0199162
0.0191808
0.0162154
0.0156052
0.0131085
0.0125841
0.0103876
0.0099056
0.00779147
0.00728777
0.0048516
0.0045738
0.00452832
0.00442432
0.00358389
0.00334435
0.00203583
0.00168462
-0.000147775
-0.000652332
-0.00332366
-0.00409469
-0.00829241
-0.00958263
-0.0168403
-0.019299
-0.0337013
-0.0394915
-0.0750797
-0.095006
-0.227186
-0.517958
-0.415046
-0.602339
-0.666935
-1.08548
-1.03181
-0.121895
-0.0209063
-0.0043883
-54.7416
50.5638
2.57632
1.45359
1.18309
0.713657
0.5967
0.397783
0.345415
0.245773
0.216238
0.146669
0.135548
0.141649
0.141791
0.137109
0.134904
0.126879
0.123929
0.114997
0.111866
0.102818
0.0997205
0.0909833
0.0880879
0.0801916
0.0778813
0.0724145
0.0727448
0.0799581
0.114355
0.0692564
0.04713
0.0418708
0.0340264
0.0317876
0.0269058
0.0254164
0.0217736
0.0206325
0.0177342
0.0168145
0.0144385
0.0136753
0.0116747
0.0110186
0.00925757
0.00865448
0.00695814
0.00633111
0.00441661
0.00406879
0.00399049
0.00385722
0.00318756
0.00288829
0.00184023
0.00140075
-7.04041e-05
-0.00070237
-0.0028506
-0.00381727
-0.00720029
-0.00882061
-0.0146941
-0.0177937
-0.0295609
-0.0369319
-0.0667271
-0.0925381
-0.209187
-0.43408
-0.382059
-0.527642
-0.606394
-0.921115
-0.854768
-0.155614
-0.0309013
-0.00673412
-56.5377
53.2108
2.11312
1.29587
1.01968
0.639174
0.515688
0.35339
0.298006
0.216956
0.185883
0.130667
0.118921
0.12255
0.12258
0.118903
0.116598
0.110196
0.107102
0.0999463
0.0966588
0.0894044
0.0861516
0.079148
0.0761101
0.0698006
0.0673934
0.0631747
0.0636418
0.0704742
0.094544
0.0610077
0.0419796
0.0363104
0.0298255
0.0274517
0.023503
0.0219346
0.0190026
0.0178028
0.0154731
0.0145063
0.012597
0.0117949
0.010187
0.00949738
0.00808122
0.00744707
0.00608202
0.00542594
0.00391894
0.00355299
0.00345485
0.00331157
0.00277639
0.00246217
0.00162029
0.00115815
-2.66092e-05
-0.000691765
-0.00242482
-0.0034432
-0.00617868
-0.00788847
-0.0126589
-0.0159417
-0.0255963
-0.0334754
-0.0585339
-0.0864367
-0.186858
-0.361278
-0.341167
-0.455618
-0.536414
-0.771991
-0.703037
-0.166356
-0.0368745
-0.00833428
-58.3335
55.8364
1.70403
1.1165
0.860452
0.554409
0.436228
0.30472
0.251623
0.186139
0.156494
0.112927
0.101678
0.103594
0.103518
0.100643
0.0984571
0.0933809
0.0904376
0.0847409
0.0816106
0.0758303
0.0727328
0.067154
0.0642632
0.0592535
0.056978
0.0537475
0.0542841
0.0603007
0.077037
0.0521787
0.0362949
0.0307827
0.0254602
0.0231788
0.0200051
0.0185073
0.0161624
0.0150183
0.0131574
0.0122358
0.0107112
0.00994665
0.00866263
0.00800518
0.00687358
0.00626887
0.00517754
0.00455479
0.00337562
0.00302647
0.00292101
0.00278158
0.00235638
0.00205714
0.00138514
0.000944445
-3.60552e-06
-0.00063845
-0.00202763
-0.00300045
-0.0051981
-0.00683391
-0.0106831
-0.0138349
-0.0217027
-0.0293316
-0.050227
-0.0774347
-0.161568
-0.296258
-0.294892
-0.384941
-0.460243
-0.635048
-0.570014
-0.16081
-0.03881
-0.00906577
-60.1291
58.4418
1.33862
0.923878
0.703221
0.46213
0.357301
0.252913
0.205737
0.153888
0.127662
0.093894
0.0839092
0.0847179
0.0845674
0.0823548
0.0804314
0.0764804
0.0738835
0.0694327
0.0666684
0.0621489
0.0594132
0.0550524
0.052501
0.048597
0.0466007
0.0441696
0.0447071
0.0496984
0.0611938
0.0429906
0.0301954
0.0252473
0.0209731
0.0189416
0.01644
0.0151138
0.0132741
0.0122624
0.0108041
0.00998944
0.00879506
0.00811919
0.00711316
0.00653193
0.00564485
0.00511013
0.00425429
0.00370589
0.00279909
0.0024902
0.00238852
0.00226301
0.00193132
0.00166702
0.00114074
0.000751027
6.8639e-06
-0.000554967
-0.0016471
-0.00250871
-0.00424
-0.00569082
-0.00873531
-0.0115394
-0.0178187
-0.0246572
-0.0416675
-0.0661556
-0.134257
-0.23668
-0.244961
-0.314853
-0.380092
-0.507699
-0.450759
-0.143776
-0.0370553
-0.00890367
-61.9243
61.0296
1.00744
0.723489
0.546807
0.364401
0.278357
0.198819
0.160037
0.120613
0.0991313
0.0739097
0.0657083
0.0658804
0.0656994
0.0640551
0.0624867
0.0595257
0.0574035
0.0540571
0.0517965
0.0483961
0.0461586
0.0428785
0.0407929
0.0378642
0.0362408
0.0344729
0.034952
0.0388359
0.0465384
0.0335862
0.0237818
0.019685
0.0163964
0.0147231
0.0128279
0.0117409
0.0103527
0.00952432
0.00842505
0.00775824
0.00685812
0.00630493
0.00554668
0.0050709
0.00440201
0.00396423
0.00331875
0.00287132
0.00219863
0.00194563
0.00185698
0.00175269
0.00150355
0.00128738
0.000890863
0.000571781
1.00351e-05
-0.000450277
-0.00127579
-0.00198219
-0.00329312
-0.00448398
-0.0067971
-0.00910487
-0.0139123
-0.019576
-0.032809
-0.053132
-0.105573
-0.180868
-0.192566
-0.244952
-0.297447
-0.387733
-0.341505
-0.118732
-0.0321578
-0.00790574
-63.7193
63.6031
0.701903
0.51881
0.390622
0.262817
0.199153
0.143093
0.114362
0.0866203
0.0707504
0.0532446
0.0471725
0.0470569
0.0468899
0.0457525
0.0445978
0.0425374
0.0409725
0.0386381
0.0369701
0.0345967
0.0329457
0.0306568
0.0291185
0.0270791
0.0258867
0.0246863
0.0250607
0.0278207
0.0327092
0.0240559
0.01714
0.0140903
0.0117551
0.0105135
0.0091835
0.00838002
0.00740887
0.0067971
0.0060287
0.00553636
0.00490729
0.00449885
0.0039689
0.00361758
0.00314992
0.00282663
0.00237527
0.00204574
0.00158139
0.00139449
0.00132605
0.00124815
0.00107447
0.000914942
0.000637887
0.000402237
9.14515e-06
-0.000330982
-0.000909249
-0.00143148
-0.00235104
-0.00323226
-0.0048591
-0.00657039
-0.00997168
-0.014192
-0.0236668
-0.0388237
-0.0759745
-0.1276
-0.138544
-0.175047
-0.21329
-0.273227
-0.239314
-0.0882396
-0.0247675
-0.00619494
-65.514
66.1661
0.41417
0.311935
0.234422
0.158668
0.119644
0.0862749
0.0686481
0.0521525
0.0424348
0.0321221
0.0283984
0.0282355
0.0281192
0.0274505
0.0267451
0.0255293
0.0245723
0.0231924
0.0221719
0.0207685
0.0197583
0.018405
0.0174641
0.0162601
0.0155329
0.0148366
0.015074
0.0167203
0.0194217
0.0144561
0.0103435
0.00846704
0.00706993
0.00630742
0.00551801
0.00502582
0.00445066
0.00407614
0.0036213
0.00331994
0.00294762
0.00269763
0.00238396
0.00216891
0.00189205
0.00169414
0.00142691
0.00122556
0.000953039
0.000838595
0.0007955
0.00074744
0.000644811
0.000547203
0.000383252
0.000238989
6.13385e-06
-0.000202164
-0.000544953
-0.000864891
-0.0014105
-0.00195071
-0.00291773
-0.00396831
-0.00599829
-0.00859779
-0.0142974
-0.0236357
-0.0457971
-0.075959
-0.0834988
-0.105072
-0.128265
-0.162474
-0.141809
-0.0542431
-0.0155812
-0.00394246
-67.3085
68.7228
0.136905
0.10407
0.0781516
0.0530487
0.0399087
0.0288269
0.0228889
0.0174136
0.0141431
0.0107361
0.00948194
0.0094122
0.00937069
0.00914994
0.00891284
0.00851083
0.00818896
0.00773231
0.00738901
0.00692449
0.00658467
0.00613676
0.00582029
0.0054221
0.00517785
0.00494967
0.00503087
0.00557764
0.0064408
0.00482208
0.0034576
0.00282459
0.00235942
0.00210241
0.00184062
0.00167494
0.00148441
0.00135839
0.00120776
0.00110636
0.000983064
0.000898946
0.000795074
0.000722714
0.000631019
0.000564421
0.000475915
0.000408226
0.000318365
0.00027985
0.000265147
0.000248911
0.000214952
0.000182115
0.000127828
7.92818e-05
2.13865e-06
-6.79678e-05
-0.000181572
-0.000289273
-0.000470181
-0.00065209
-0.000973018
-0.00132705
-0.00200213
-0.0028796
-0.00478246
-0.00793473
-0.0152998
-0.0252229
-0.0278925
-0.0350324
-0.0427997
-0.0539174
-0.0469795
-0.0182905
-0.00531392
-0.00135236
-69.1028
68.7146
0.150884
0.128426
0.107467
0.0852098
0.0726949
0.0607369
0.0533353
0.0448802
0.0387611
0.0310046
0.0281936
0.028307
0.0282055
0.0273722
0.0264746
0.0249592
0.0237727
0.022129
0.0209358
0.0193798
0.0182845
0.016898
0.0159525
0.0148078
0.0141312
0.0135416
0.01384
0.0155198
0.0181074
0.0137301
0.0100726
0.00839313
0.00718185
0.00651549
0.00583683
0.00540369
0.00489941
0.00456111
0.0041499
0.00386855
0.00352009
0.00327807
0.00297308
0.00275575
0.00247311
0.00226037
0.00196658
0.0017307
0.00140811
0.00129533
0.0013132
0.00131504
0.00128234
0.00124377
0.00117596
0.00112181
0.00104544
0.000988759
0.00091281
0.000855971
0.000777843
0.000712332
0.00060919
0.000495099
0.000269089
-7.42976e-05
-0.000891446
-0.00243007
-0.00621627
-0.011784
-0.0150682
-0.022054
-0.0294889
-0.0404331
-0.0360469
-0.0140875
-0.00409753
-0.00104314
-69.8075
66.1412
0.456022
0.385217
0.322452
0.25524
0.218062
0.182028
0.160048
0.134547
0.116349
0.0928161
0.0844637
0.0849296
0.0846459
0.0821193
0.0794484
0.0748644
0.0713365
0.0663691
0.0628218
0.0581209
0.0548651
0.0506763
0.0478654
0.0444045
0.0423902
0.0405892
0.0414648
0.0465231
0.0546009
0.0411615
0.0301386
0.0251607
0.0215238
0.019547
0.0175007
0.0162139
0.0146916
0.0136863
0.0124445
0.0116084
0.010556
0.00983672
0.00891573
0.00826987
0.00741653
0.00678436
0.00589742
0.00519558
0.00421594
0.00388077
0.00394026
0.0039465
0.00384725
0.0037325
0.00352735
0.00336632
0.00313554
0.00296705
0.00273767
0.00256877
0.00233303
0.0021385
0.00182801
0.00148978
0.000811964
-0.000203939
-0.00264547
-0.00720029
-0.0185775
-0.0354434
-0.0450566
-0.066144
-0.0883263
-0.121913
-0.108844
-0.0417836
-0.0120152
-0.00304109
-69.4223
63.5605
0.771352
0.641687
0.537616
0.424068
0.363384
0.302758
0.266902
0.223922
0.19415
0.15402
0.140381
0.141582
0.141176
0.136872
0.132499
0.124727
0.118958
0.110552
0.104754
0.0968042
0.0914831
0.0843995
0.0798043
0.0739435
0.0706407
0.0675297
0.0689224
0.0774057
0.0919552
0.0684962
0.0499629
0.0418746
0.0357993
0.0325813
0.0291342
0.0270336
0.0244632
0.0228209
0.0207229
0.0193568
0.0175787
0.0164035
0.0148474
0.0137923
0.0123511
0.0113186
0.00982087
0.00867159
0.00699801
0.00645043
0.00656945
0.0065822
0.0064128
0.00622485
0.00587699
0.00561363
0.00522317
0.00494779
0.00456012
0.00428425
0.00388658
0.00356933
0.00304795
0.00249805
0.00136837
-0.000276543
-0.00431496
-0.0116976
-0.0307193
-0.0593929
-0.074586
-0.11019
-0.146708
-0.205258
-0.1838
-0.0679881
-0.019101
-0.00477878
-69.0371
60.9677
1.10395
0.897133
0.753159
0.590782
0.508704
0.422496
0.37404
0.312768
0.272365
0.214165
0.195705
0.198299
0.197862
0.191628
0.185685
0.17451
0.166685
0.154632
0.146772
0.135382
0.128172
0.118023
0.111794
0.10338
0.0988836
0.0942902
0.0960964
0.108046
0.13083
0.0956341
0.0693694
0.0585081
0.0499606
0.0456248
0.0407138
0.0378721
0.0341976
0.0319738
0.0289721
0.0271218
0.0245772
0.0229855
0.0207591
0.0193302
0.0172694
0.0158714
0.0137304
0.0121686
0.00973506
0.00899345
0.00920292
0.00922521
0.00897911
0.00872361
0.00822327
0.00786604
0.00730621
0.00693304
0.00637812
0.00600462
0.00543692
0.00500833
0.00426905
0.00352953
0.00194541
-0.000253389
-0.00585065
-0.0157293
-0.0424748
-0.0838815
-0.103299
-0.1542
-0.204207
-0.291804
-0.26253
-0.0915156
-0.0248043
-0.00609886
-68.6517
58.3585
1.4613
1.15007
0.969437
0.754284
0.654188
0.540725
0.481691
0.40078
0.351293
0.27272
0.250187
0.255137
0.25478
0.246372
0.239081
0.224159
0.214581
0.198543
0.188932
0.173794
0.164978
0.15149
0.143871
0.13266
0.12713
0.120795
0.122865
0.138252
0.172024
0.122415
0.0881599
0.075049
0.0639535
0.0586913
0.0522108
0.0487441
0.0438741
0.0411579
0.0371753
0.0349146
0.0315377
0.0295929
0.0266389
0.0248935
0.0221612
0.020454
0.0176168
0.0157005
0.0124045
0.0114985
0.0118439
0.011879
0.0115458
0.0112322
0.0105639
0.0101266
0.00938181
0.00892559
0.00818889
0.00773279
0.00698173
0.00645979
0.00549019
0.00459482
0.00254706
-9.42671e-05
-0.00721505
-0.0190863
-0.0536439
-0.10925
-0.130752
-0.198245
-0.260204
-0.383025
-0.34693
-0.110871
-0.0285873
-0.0068692
-68.2662
55.7289
1.85141
1.39777
1.1871
0.913183
0.800208
0.656776
0.590218
0.487535
0.431384
0.329034
0.303569
0.312188
0.31202
0.301071
0.292782
0.273595
0.262735
0.242197
0.231313
0.211952
0.201971
0.184723
0.176092
0.161713
0.15541
0.146963
0.1491
0.167724
0.216553
0.148581
0.106105
0.0915095
0.0777132
0.0718067
0.0635874
0.0596722
0.0534646
0.0503927
0.0453097
0.0427522
0.038441
0.0362408
0.0324704
0.0304963
0.0270121
0.0250818
0.0214665
0.0192876
0.0149783
0.0139534
0.0144973
0.0145475
0.0141118
0.013755
0.0128952
0.0123995
0.0114459
0.0109294
0.00998847
0.00947279
0.00851742
0.00792919
0.00670839
0.00570624
0.00317249
0.000244069
-0.00838939
-0.0215358
-0.063971
-0.135982
-0.156366
-0.242512
-0.313765
-0.480602
-0.439328
-0.124075
-0.0299476
-0.00699483
-67.8804
53.0761
2.28287
1.63576
1.40729
1.06565
0.947445
0.769752
0.700189
0.572428
0.513322
0.382272
0.355588
0.36959
0.369691
0.355665
0.346919
0.322697
0.311277
0.285466
0.274033
0.249735
0.239254
0.217611
0.208543
0.190443
0.183775
0.172709
0.174677
0.195988
0.265755
0.173729
0.122935
0.107938
0.0911574
0.0850148
0.0747918
0.0706921
0.0629297
0.0597081
0.0533432
0.05066
0.04526
0.0429516
0.0382302
0.0361596
0.0318009
0.0297772
0.0252587
0.0229601
0.0174208
0.0163457
0.0171706
0.0172356
0.0166747
0.016298
0.0152121
0.0146907
0.0134926
0.0129502
0.0117711
0.0112304
0.0100385
0.00942393
0.00791788
0.00687896
0.00381375
0.000810651
-0.00938316
-0.0228137
-0.0731149
-0.164779
-0.179349
-0.287374
-0.363503
-0.586504
-0.542685
-0.128434
-0.028461
-0.00643097
-67.4943
50.3987
2.76484
1.85701
1.632
1.20917
1.09706
0.878403
0.812488
0.654576
0.598139
0.431335
0.40598
0.427548
0.427928
0.410047
0.401675
0.371288
0.360395
0.328159
0.317268
0.286966
0.276985
0.249996
0.241355
0.218716
0.212316
0.197933
0.19948
0.222313
0.321428
0.197227
0.138333
0.124438
0.104176
0.0983862
0.0857515
0.0818587
0.0722133
0.0691493
0.0612295
0.0586766
0.0519554
0.0497591
0.043884
0.0419144
0.0364964
0.0345723
0.0289623
0.0267622
0.0196848
0.0186621
0.0198743
0.0199487
0.0192303
0.0188695
0.0175064
0.0170091
0.0155131
0.0149966
0.0135282
0.0130142
0.0115364
0.0109544
0.00910873
0.00813278
0.00445257
0.00166491
-0.0102474
-0.0226167
-0.0806042
-0.196659
-0.198594
-0.333511
-0.407366
-0.703078
-0.66086
-0.120222
-0.0238566
-0.00519664
-67.1081
47.6975
3.30683
2.05094
1.86463
1.34027
1.25094
0.980945
0.928467
0.732664
0.68737
0.474741
0.454494
0.486354
0.486895
0.464048
0.457311
0.419099
0.410366
0.369999
0.361279
0.323384
0.315396
0.281647
0.274727
0.24634
0.241176
0.22252
0.223432
0.245587
0.386035
0.218113
0.151931
0.141193
0.116616
0.112031
0.0963616
0.0932555
0.0812338
0.0787849
0.0689012
0.06686
0.0584699
0.0567138
0.0493818
0.0478074
0.0410523
0.0395151
0.0325295
0.0307594
0.0217067
0.0208891
0.0226235
0.0226936
0.0217716
0.0214811
0.0197662
0.0193675
0.0174944
0.0170811
0.0152472
0.0148365
0.0129987
0.0125354
0.0102649
0.00949483
0.00505574
0.00288423
-0.0110933
-0.0205948
-0.0857707
-0.233105
-0.212519
-0.382091
-0.442354
-0.833169
-0.798971
-0.0942394
-0.0161439
-0.0033866
-66.7217
44.9772
3.91824
2.20209
2.11078
1.45396
1.41205
1.07479
1.05018
0.804732
0.783295
0.510451
0.500925
0.546413
0.546797
0.517406
0.514207
0.46573
0.461603
0.410573
0.406457
0.358606
0.354837
0.312225
0.308959
0.273035
0.270577
0.246324
0.246534
0.26413
0.462977
0.234929
0.163311
0.158502
0.128257
0.12612
0.106469
0.105009
0.0898715
0.088718
0.0762595
0.0752975
0.0647192
0.0638916
0.0546493
0.0539076
0.0453996
0.0446758
0.0358882
0.0350481
0.0233993
0.0230141
0.0254395
0.0254782
0.0242877
0.0241497
0.0219735
0.021785
0.0194175
0.0192225
0.0169094
0.016716
0.014406
0.0141888
0.011361
0.0110037
0.00556828
0.00457584
-0.0121182
-0.0163459
-0.0876506
-0.276266
-0.218837
-0.435043
-0.46412
-0.98026
-0.963903
-0.043191
-0.00581775
-0.00117778
-66.3352
44.9772
3.91824
2.20209
2.11078
1.45396
1.41205
1.07478
1.05018
0.804732
0.783295
0.510451
0.500925
0.546413
0.546797
0.517406
0.514207
0.46573
0.461603
0.410573
0.406457
0.358606
0.354838
0.312226
0.308959
0.273035
0.270577
0.246324
0.246534
0.264131
0.462978
0.23493
0.163312
0.158503
0.128257
0.126121
0.10647
0.105009
0.0898718
0.0887183
0.0762597
0.0752978
0.0647194
0.0638918
0.0546495
0.0539078
0.0453997
0.044676
0.0358883
0.0350482
0.0233994
0.0230141
0.0254396
0.0254783
0.0242879
0.0241498
0.0219736
0.0217851
0.0194176
0.0192226
0.0169095
0.0167161
0.0144061
0.0141889
0.0113611
0.0110038
0.00556838
0.00457595
-0.012118
-0.0163458
-0.0876505
-0.276266
-0.218837
-0.435043
-0.46412
-0.980259
-0.963902
-0.0431909
-0.00581774
-0.0011778
-66.3352
47.6975
3.30682
2.05094
1.86463
1.34027
1.25094
0.980945
0.928467
0.732664
0.68737
0.474741
0.454494
0.486354
0.486895
0.464049
0.457312
0.419099
0.410366
0.369999
0.361279
0.323384
0.315396
0.281647
0.274728
0.24634
0.241177
0.22252
0.223432
0.245588
0.386036
0.218113
0.151931
0.141194
0.116617
0.112032
0.0963619
0.0932558
0.081234
0.0787851
0.0689015
0.0668602
0.0584701
0.056714
0.049382
0.0478076
0.0410525
0.0395152
0.0325296
0.0307596
0.0217068
0.0208891
0.0226236
0.0226937
0.0217717
0.0214812
0.0197663
0.0193677
0.0174945
0.0170812
0.0152473
0.0148366
0.0129988
0.0125355
0.010265
0.00949493
0.00505584
0.00288433
-0.0110932
-0.0205947
-0.0857705
-0.233104
-0.212518
-0.382091
-0.442354
-0.833168
-0.79897
-0.0942393
-0.0161439
-0.00338661
-66.7217
50.3987
2.76484
1.85701
1.632
1.20917
1.09706
0.878403
0.812488
0.654576
0.598139
0.431335
0.40598
0.427548
0.427928
0.410047
0.401675
0.371288
0.360395
0.328159
0.317268
0.286966
0.276985
0.249996
0.241355
0.218716
0.212316
0.197933
0.19948
0.222313
0.321429
0.197227
0.138333
0.124439
0.104177
0.0983864
0.0857517
0.0818589
0.0722135
0.0691495
0.0612297
0.0586768
0.0519556
0.0497593
0.0438842
0.0419146
0.0364966
0.0345725
0.0289624
0.0267623
0.0196849
0.0186621
0.0198744
0.0199488
0.0192304
0.0188696
0.0175066
0.0170092
0.0155132
0.0149967
0.0135283
0.0130143
0.0115365
0.0109545
0.00910883
0.00813287
0.00445266
0.00166501
-0.0102473
-0.0226166
-0.0806041
-0.196659
-0.198593
-0.333511
-0.407365
-0.703077
-0.660859
-0.120222
-0.0238565
-0.0051966
-67.1081
53.0761
2.28287
1.63576
1.40729
1.06565
0.947445
0.769752
0.700189
0.572428
0.513322
0.382272
0.355588
0.36959
0.369691
0.355665
0.346919
0.322697
0.311277
0.285466
0.274033
0.249735
0.239255
0.217611
0.208543
0.190443
0.183775
0.172709
0.174677
0.195988
0.265755
0.173729
0.122935
0.107938
0.0911577
0.085015
0.074792
0.0706923
0.0629299
0.0597083
0.0533433
0.0506602
0.0452602
0.0429518
0.0382304
0.0361597
0.0318011
0.0297773
0.0252589
0.0229602
0.0174209
0.0163458
0.0171706
0.0172356
0.0166748
0.0162981
0.0152122
0.0146908
0.0134927
0.0129503
0.0117712
0.0112305
0.0100385
0.00942401
0.00791796
0.00687904
0.00381382
0.000810728
-0.00938309
-0.0228136
-0.0731148
-0.164779
-0.179349
-0.287373
-0.363502
-0.586503
-0.542685
-0.128434
-0.0284609
-0.00643089
-67.4943
55.7289
1.85141
1.39777
1.1871
0.913183
0.800208
0.656776
0.590218
0.487535
0.431384
0.329034
0.303569
0.312188
0.31202
0.301071
0.292782
0.273595
0.262735
0.242197
0.231313
0.211952
0.201971
0.184723
0.176092
0.161713
0.15541
0.146964
0.149101
0.167724
0.216554
0.148582
0.106105
0.0915098
0.0777134
0.0718069
0.0635875
0.0596724
0.0534647
0.0503929
0.0453098
0.0427524
0.0384412
0.036241
0.0324706
0.0304964
0.0270122
0.0250819
0.0214666
0.0192877
0.0149784
0.0139535
0.0144974
0.0145476
0.0141119
0.0137551
0.0128953
0.0123996
0.011446
0.0109295
0.00998854
0.00947286
0.00851749
0.00792926
0.00670845
0.0057063
0.00317255
0.000244131
-0.00838933
-0.0215358
-0.0639709
-0.135982
-0.156366
-0.242511
-0.313765
-0.480602
-0.439327
-0.124075
-0.0299475
-0.00699472
-67.8804
58.3585
1.4613
1.15007
0.969437
0.754284
0.654188
0.540725
0.481691
0.40078
0.351293
0.27272
0.250187
0.255137
0.25478
0.246372
0.239081
0.224159
0.214581
0.198543
0.188932
0.173794
0.164978
0.151491
0.143871
0.13266
0.127131
0.120795
0.122865
0.138253
0.172024
0.122415
0.0881602
0.0750493
0.0639537
0.0586915
0.052211
0.0487442
0.0438743
0.041158
0.0371754
0.0349148
0.0315379
0.0295931
0.026639
0.0248936
0.0221613
0.0204541
0.0176169
0.0157006
0.0124045
0.0114985
0.0118439
0.011879
0.0115459
0.0112323
0.0105639
0.0101267
0.00938187
0.00892566
0.00818895
0.00773285
0.00698179
0.00645984
0.00549024
0.00459487
0.00254711
-9.42193e-05
-0.00721501
-0.0190863
-0.0536439
-0.10925
-0.130752
-0.198245
-0.260203
-0.383025
-0.346929
-0.110871
-0.0285872
-0.00686908
-68.2662
60.9677
1.10395
0.897133
0.753158
0.590782
0.508704
0.422496
0.37404
0.312768
0.272365
0.214165
0.195705
0.198299
0.197862
0.191628
0.185685
0.17451
0.166685
0.154632
0.146772
0.135383
0.128172
0.118023
0.111794
0.10338
0.0988837
0.0942904
0.0960965
0.108046
0.13083
0.0956344
0.0693696
0.0585082
0.0499608
0.0456249
0.040714
0.0378723
0.0341977
0.0319739
0.0289722
0.0271219
0.0245773
0.0229856
0.0207592
0.0193303
0.0172695
0.0158715
0.0137305
0.0121686
0.0097351
0.00899348
0.00920295
0.00922524
0.00897915
0.00872366
0.00822331
0.00786609
0.00730625
0.00693309
0.00637816
0.00600467
0.00543697
0.00500837
0.00426909
0.00352957
0.00194545
-0.000253354
-0.00585062
-0.0157293
-0.0424748
-0.0838815
-0.103299
-0.1542
-0.204207
-0.291804
-0.26253
-0.0915154
-0.0248042
-0.00609874
-68.6517
63.5605
0.771351
0.641687
0.537616
0.424068
0.363384
0.302758
0.266902
0.223922
0.19415
0.15402
0.140381
0.141582
0.141176
0.136872
0.132499
0.124727
0.118958
0.110553
0.104754
0.0968043
0.0914831
0.0843996
0.0798044
0.0739436
0.0706408
0.0675298
0.0689225
0.0774058
0.0919554
0.0684964
0.049963
0.0418747
0.0357994
0.0325813
0.0291343
0.0270337
0.0244632
0.022821
0.020723
0.0193569
0.0175787
0.0164035
0.0148475
0.0137924
0.0123512
0.0113186
0.00982092
0.00867162
0.00699804
0.00645045
0.00656947
0.00658223
0.00641283
0.00622488
0.00587702
0.00561366
0.0052232
0.00494782
0.00456015
0.00428428
0.00388661
0.00356936
0.00304798
0.00249808
0.0013684
-0.000276521
-0.00431494
-0.0116976
-0.0307193
-0.0593929
-0.0745859
-0.11019
-0.146707
-0.205258
-0.183799
-0.067988
-0.0191009
-0.00477868
-69.0371
66.1412
0.456021
0.385217
0.322452
0.25524
0.218062
0.182028
0.160048
0.134547
0.116349
0.0928161
0.0844637
0.0849296
0.0846459
0.0821193
0.0794484
0.0748644
0.0713366
0.0663692
0.0628219
0.0581209
0.0548651
0.0506763
0.0478654
0.0444046
0.0423903
0.0405892
0.0414649
0.0465232
0.054601
0.0411616
0.0301387
0.0251607
0.0215238
0.019547
0.0175007
0.016214
0.0146917
0.0136863
0.0124446
0.0116084
0.0105561
0.00983676
0.00891576
0.00826991
0.00741656
0.00678439
0.00589744
0.0051956
0.00421596
0.00388078
0.00394027
0.00394652
0.00384727
0.00373251
0.00352737
0.00336634
0.00313556
0.00296707
0.00273769
0.00256879
0.00233305
0.00213852
0.00182803
0.00148979
0.000811979
-0.000203927
-0.00264547
-0.00720029
-0.0185776
-0.0354434
-0.0450565
-0.066144
-0.0883262
-0.121912
-0.108843
-0.0417835
-0.0120151
-0.00304102
-69.4223
68.7146
0.150884
0.128426
0.107467
0.0852098
0.0726949
0.0607369
0.0533353
0.0448802
0.0387611
0.0310046
0.0281936
0.028307
0.0282055
0.0273723
0.0264746
0.0249592
0.0237728
0.0221291
0.0209358
0.0193798
0.0182845
0.016898
0.0159525
0.0148078
0.0141312
0.0135416
0.01384
0.0155198
0.0181075
0.0137301
0.0100726
0.00839315
0.00718187
0.00651551
0.00583684
0.00540371
0.00489943
0.00456113
0.00414991
0.00386857
0.00352011
0.00327808
0.00297309
0.00275576
0.00247312
0.00226038
0.00196658
0.00173071
0.00140812
0.00129533
0.00131321
0.00131504
0.00128234
0.00124378
0.00117597
0.00112181
0.00104545
0.000988765
0.000912815
0.000855976
0.000777849
0.000712337
0.000609195
0.000495104
0.000269093
-7.42941e-05
-0.000891444
-0.00243007
-0.00621628
-0.011784
-0.0150682
-0.022054
-0.0294889
-0.0404331
-0.0360468
-0.0140874
-0.00409751
-0.00104312
-69.8075
68.7223
0.136738
0.103792
0.0777582
0.0524414
0.0390529
0.0275024
0.021089
0.0150022
0.0125848
0.011923
0.011573
0.0110198
0.0105817
0.00996778
0.0095218
0.00893941
0.00852136
0.00797806
0.00758704
0.00707738
0.00671192
0.00623871
0.00590751
0.00549436
0.00524151
0.00500508
0.00508344
0.00563154
0.00650021
0.00486502
0.00348698
0.00284774
0.00237812
0.00211871
0.00185458
0.00168748
0.00149535
0.0013683
0.00121647
0.00111428
0.000990054
0.000905307
0.000800675
0.000727795
0.000635453
0.000568394
0.000479284
0.000411138
0.000320677
0.000281935
0.000267216
0.000250953
0.000216903
0.000183978
0.000129551
8.08992e-05
3.61219e-06
-6.65968e-05
-0.000180333
-0.000288125
-0.000469148
-0.000651136
-0.000972161
-0.00132626
-0.00200142
-0.00287894
-0.00478185
-0.00793413
-0.0152992
-0.0252222
-0.027892
-0.035032
-0.0427994
-0.0539172
-0.0469794
-0.0182905
-0.0053139
-0.00135231
-69.1028
66.1649
0.413668
0.3111
0.233246
0.156847
0.117085
0.0823017
0.0632539
0.0448599
0.0376843
0.0357565
0.0347271
0.0330549
0.0317521
0.0298966
0.0285709
0.0268117
0.0255691
0.0239281
0.0227659
0.0212264
0.0201401
0.0187104
0.0177258
0.0164767
0.0157239
0.0150026
0.0152315
0.0168818
0.0196008
0.0145848
0.0104314
0.00853645
0.00712594
0.00635633
0.00555987
0.00506343
0.00448345
0.00410588
0.00364744
0.00334373
0.00296858
0.00271672
0.00240075
0.00218416
0.00190535
0.00170606
0.00143701
0.0012343
0.000959963
0.000844845
0.00080171
0.000753569
0.000650664
0.000552795
0.000388422
0.000243842
1.05529e-05
-0.00019805
-0.000541237
-0.000861447
-0.00140741
-0.00194785
-0.00291516
-0.00396593
-0.00599616
-0.0085958
-0.0142956
-0.0236339
-0.0457952
-0.0759568
-0.0834972
-0.105071
-0.128264
-0.162474
-0.141808
-0.0542429
-0.0155811
-0.00394235
-67.3085
63.601
0.701068
0.51742
0.388675
0.259787
0.194918
0.136472
0.105393
0.0742688
0.0625739
0.0595541
0.057907
0.0550751
0.0529446
0.0498043
0.0476373
0.0446632
0.0426327
0.039859
0.0379598
0.0353572
0.0335819
0.0311644
0.0295547
0.0274391
0.026205
0.0249622
0.0253228
0.0280893
0.0330107
0.02427
0.0172854
0.0142058
0.0118481
0.010595
0.00925315
0.00844271
0.00746345
0.0068467
0.0060722
0.00557603
0.00494217
0.00453068
0.00399685
0.00364301
0.00317206
0.00284652
0.00239208
0.00206033
0.00159288
0.00140487
0.0013364
0.00125837
0.00108422
0.000924269
0.000646499
0.000410332
1.65046e-05
-0.000324121
-0.000903061
-0.00142574
-0.00234588
-0.00322748
-0.00485482
-0.00656643
-0.00996812
-0.0141887
-0.0236638
-0.0388207
-0.0759712
-0.127596
-0.138541
-0.175045
-0.213288
-0.273226
-0.239313
-0.0882393
-0.0247674
-0.00619478
-65.514
61.0267
1.00627
0.721543
0.544111
0.360167
0.272495
0.189547
0.147533
0.102901
0.0871164
0.0832967
0.0811342
0.0770673
0.0741775
0.069673
0.0667359
0.0624771
0.0597261
0.0557549
0.0531818
0.049455
0.0470495
0.043586
0.0414037
0.0383663
0.0366864
0.0348576
0.0353177
0.0392106
0.0469672
0.033885
0.0239833
0.0198462
0.0165261
0.0148372
0.0129252
0.0118287
0.0104289
0.00959382
0.00848583
0.00781383
0.00690686
0.00634954
0.00558575
0.00510654
0.00443294
0.00399213
0.00334224
0.00289179
0.00221461
0.00196012
0.00187147
0.00176702
0.00151721
0.00130045
0.000902908
0.000583125
2.03256e-05
-0.000440662
-0.00126714
-0.00197414
-0.00328591
-0.00447729
-0.00679111
-0.00909932
-0.0139073
-0.0195713
-0.0328047
-0.0531278
-0.105568
-0.180863
-0.192563
-0.24495
-0.297445
-0.387731
-0.341504
-0.118732
-0.0321577
-0.00790556
-63.7192
58.4381
1.33714
0.921375
0.699806
0.456695
0.349882
0.240985
0.189779
0.130378
0.11118
0.106973
0.104438
0.0990124
0.095475
0.0894791
0.0858875
0.0802306
0.0768683
0.0715948
0.06845
0.0634999
0.0605594
0.0559563
0.053287
0.0492392
0.0471737
0.0446614
0.0451754
0.0501773
0.0617571
0.0433727
0.0304505
0.0254539
0.0211388
0.0190884
0.0165645
0.0152269
0.0133718
0.0123518
0.010882
0.010061
0.00885755
0.00817664
0.00716324
0.00657784
0.00568451
0.00514609
0.00428442
0.0037323
0.00281943
0.00250872
0.00240717
0.00228148
0.00194887
0.00168386
0.0011562
0.000765635
2.00701e-05
-0.000542587
-0.001636
-0.00249834
-0.00423075
-0.0056822
-0.00872763
-0.0115322
-0.0178123
-0.0246513
-0.041662
-0.0661502
-0.134251
-0.236673
-0.244957
-0.31485
-0.38009
-0.507698
-0.450758
-0.143776
-0.0370552
-0.00890349
-61.9243
55.832
1.70223
1.11344
0.856364
0.547772
0.427352
0.290115
0.232352
0.156248
0.134645
0.130583
0.127857
0.120882
0.116871
0.109189
0.105122
0.0978923
0.094087
0.0873496
0.0837904
0.0774643
0.0741357
0.0682493
0.0652254
0.0600327
0.057679
0.0543442
0.0548535
0.0608809
0.0777456
0.0526419
0.0366007
0.0310344
0.025661
0.0233584
0.0201564
0.0186457
0.0162813
0.0151278
0.0132522
0.0123235
0.0107873
0.010017
0.00872361
0.00806144
0.00692187
0.00631297
0.0052142
0.00458724
0.00340015
0.00304895
0.00294383
0.0028042
0.00237781
0.00207777
0.00140401
0.000962339
1.24933e-05
-0.000623287
-0.0020141
-0.00298775
-0.00518683
-0.00682336
-0.0106738
-0.0138261
-0.0216949
-0.0293243
-0.0502203
-0.0774281
-0.161561
-0.296249
-0.294887
-0.384937
-0.46024
-0.635046
-0.570013
-0.16081
-0.0388099
-0.00906561
-60.129
53.2056
2.11102
1.29223
1.01498
0.631321
0.505496
0.336066
0.275658
0.179938
0.157407
0.154139
0.151446
0.142633
0.138413
0.128754
0.124482
0.115417
0.111423
0.102977
0.0992415
0.0913089
0.0878144