/*--------------------------------*- C++ -*----------------------------------*\
| =========                 |                                                 |
| \\      /  F ield         | OpenFOAM: The Open Source CFD Toolbox           |
|  \\    /   O peration     | Version:  5.x                                   |
|   \\  /    A nd           | Web:      www.OpenFOAM.org                      |
|    \\/     M anipulation  |                                                 |
\*---------------------------------------------------------------------------*/
FoamFile
{
    version     2.0;
    format      ascii;
    class       volScalarField;
    location    "8.8";
    object      gradTx;
}
// * * * * * * * * * * * * * * * * * * * * * * * * * * * * * * * * * * * * * //

dimensions      [0 -1 0 1 0 0 0];

internalField   nonuniform List<scalar> 
2048
(
0.00630499
0.0187344
0.0306388
0.0417203
0.05175
0.0605785
0.0681356
0.0744189
0.0794782
0.0833963
0.086273
0.0882126
0.0893171
0.0896833
0.0894036
0.0885673
0.087261
0.0855684
0.0835672
0.081326
0.0789005
0.0763314
0.0736435
0.0708471
0.0679398
0.0649097
0.061737
0.0583963
0.0548566
0.0510822
0.0470327
0.0426645
0.0379324
0.0327919
0.0272011
0.0211224
0.0145236
0.00737844
-0.00033261
-0.00862123
-0.017489
-0.0269235
-0.0368936
-0.0473416
-0.0581762
-0.0692625
-0.0804134
-0.0913818
-0.101857
-0.111465
-0.119783
-0.12636
-0.130754
-0.13257
-0.131512
-0.127417
-0.120278
-0.110248
-0.0976159
-0.0827653
-0.0661299
-0.0481504
-0.029247
-0.00980744
0.0187886
0.0558182
0.091257
0.124206
0.15398
0.180138
0.20248
0.221015
0.235903
0.247403
0.255821
0.261471
0.264656
0.265662
0.264761
0.262217
0.258286
0.253218
0.247245
0.240574
0.23337
0.225754
0.2178
0.209535
0.20095
0.192008
0.18265
0.172799
0.162365
0.15124
0.139305
0.126428
0.112476
0.0973141
0.0808173
0.0628736
0.0433875
0.0222807
-0.000505592
-0.0250077
-0.0512332
-0.0791503
-0.108672
-0.139635
-0.171776
-0.204705
-0.237874
-0.270557
-0.301832
-0.330586
-0.355549
-0.375361
-0.388675
-0.394291
-0.391298
-0.379194
-0.357964
-0.328075
-0.290413
-0.246153
-0.196609
-0.14311
-0.0869055
-0.0291384
0.0311403
0.0924836
0.151107
0.205487
0.254474
0.297355
0.33383
0.363957
0.388048
0.406569
0.420048
0.429016
0.433974
0.435387
0.433694
0.429321
0.422692
0.41422
0.404294
0.393259
0.381394
0.368898
0.355886
0.342399
0.328413
0.313863
0.298647
0.282641
0.265694
0.247631
0.228253
0.207343
0.184675
0.160024
0.133183
0.103966
0.0722147
0.0378013
0.000626712
-0.039374
-0.0822224
-0.12788
-0.176221
-0.227
-0.279812
-0.334042
-0.388817
-0.442962
-0.494968
-0.542991
-0.5849
-0.618387
-0.641139
-0.651078
-0.646613
-0.626864
-0.591803
-0.542255
-0.479771
-0.406391
-0.324374
-0.235962
-0.143224
-0.0480094
0.0436
0.129427
0.211275
0.286941
0.354798
0.413875
0.463827
0.504823
0.537393
0.562261
0.580213
0.592008
0.59834
0.599838
0.597091
0.590678
0.581183
0.569186
0.555242
0.539842
0.523382
0.506139
0.488263
0.469796
0.450693
0.430848
0.410119
0.388329
0.365275
0.340715
0.314371
0.285935
0.255086
0.221506
0.184901
0.145013
0.101623
0.0545528
0.00366405
-0.0511425
-0.109914
-0.172622
-0.239128
-0.309139
-0.382143
-0.457345
-0.533594
-0.609307
-0.682412
-0.750336
-0.810048
-0.858208
-0.891423
-0.906597
-0.901333
-0.874294
-0.825436
-0.756015
-0.668383
-0.565594
-0.450975
-0.327746
-0.198793
-0.0666109
0.0563834
0.16727
0.272723
0.369773
0.456288
0.531071
0.593802
0.644859
0.685077
0.715517
0.737267
0.751328
0.758575
0.759781
0.75566
0.746929
0.734326
0.718607
0.700509
0.680684
0.659657
0.637777
0.615225
0.592025
0.568093
0.543277
0.517385
0.490195
0.461454
0.430856
0.398045
0.362617
0.324146
0.282213
0.236435
0.186479
0.132071
0.0729871
0.00904631
-0.059889
-0.133904
-0.213004
-0.297069
-0.385793
-0.478608
-0.574595
-0.672379
-0.770025
-0.864936
-0.953807
-1.03265
-1.09699
-1.14217
-1.16387
-1.15868
-1.1247
-1.06186
-0.971947
-0.858332
-0.725318
-0.577484
-0.419135
-0.253975
-0.0850563
0.0696954
0.2066
0.336343
0.455075
0.560125
0.650113
0.724846
0.785038
0.831959
0.867098
0.8919
0.90762
0.915298
0.915809
0.909962
0.898585
0.882572
0.862871
0.84042
0.816064
0.790464
0.764048
0.737008
0.709331
0.680871
0.651412
0.62071
0.588504
0.554499
0.518336
0.479573
0.437704
0.392187
0.342488
0.28813
0.228707
0.163893
0.0934237
0.0170817
-0.0653151
-0.153905
-0.248749
-0.349781
-0.456728
-0.569019
-0.685676
-0.805175
-0.925296
-1.04297
-1.15418
-1.25392
-1.33642
-1.39554
-1.42544
-1.42144
-1.38086
-1.30359
-1.19214
-1.0512
-0.886626
-0.704543
-0.510467
-0.308918
-0.103385
0.0837402
0.247998
0.403005
0.543884
0.667386
0.772017
0.85785
0.926106
0.978649
1.01752
1.04457
1.06133
1.06896
1.06838
1.06044
1.04606
1.02629
1.00228
0.975221
0.94618
0.915981
0.885128
0.853802
0.821921
0.789245
0.755475
0.720311
0.683465
0.644618
0.603363
0.559179
0.511438
0.459463
0.402593
0.340243
0.27194
0.197314
0.116072
0.0279678
-0.0672287
-0.169722
-0.279659
-0.39706
-0.521734
-0.653168
-0.790397
-0.931834
-1.07507
-1.21664
-1.35184
-1.47462
-1.57774
-1.65327
-1.69349
-1.69204
-1.64522
-1.55282
-1.41832
-1.24812
-1.05014
-0.832388
-0.601757
-0.363565
-0.121568
0.0987292
0.29206
0.473584
0.637214
0.779082
0.897681
0.993538
1.0686
1.12554
1.16707
1.19555
1.21274
1.21986
1.21783
1.20745
1.1897
1.16576
1.13707
1.10509
1.07117
1.03633
1.00114
0.965756
0.929971
0.89341
0.855661
0.81637
0.775241
0.731959
0.686089
0.637023
0.583995
0.526164
0.462718
0.392957
0.31634
0.232472
0.14105
0.0418075
-0.0655298
-0.181249
-0.305607
-0.438754
-0.580628
-0.730835
-0.888502
-1.05208
-1.2191
-1.3858
-1.54687
-1.69518
-1.82185
-1.91682
-1.96997
-1.97277
-1.92006
-1.81151
-1.65187
-1.44985
-1.21608
-0.960868
-0.692713
-0.417662
-0.139505
0.114888
0.339416
0.548991
0.736087
0.896186
1.02791
1.13249
1.21289
1.27281
1.31586
1.34492
1.36197
1.36822
1.36444
1.3513
1.32978
1.30124
1.26741
1.23013
1.1911
1.15156
1.11217
1.07299
1.03364
0.993543
0.952147
0.90904
0.863955
0.816624
0.766611
0.713215
0.655502
0.592432
0.523007
0.446398
0.362006
0.269433
0.168393
0.0586219
-0.0601984
-0.18845
-0.326533
-0.474766
-0.633262
-0.801805
-0.9797
-1.16556
-1.35696
-1.55006
-1.73902
-1.91566
-2.0693
-2.18734
-2.25663
-2.26575
-2.20758
-2.08149
-1.89394
-1.65681
-1.38424
-1.08945
-0.782739
-0.470766
-0.157037
0.132464
0.390748
0.630191
0.841553
1.01964
1.16342
1.27514
1.35914
1.42048
1.4638
1.49261
1.50905
1.51416
1.50841
1.49225
1.46658
1.43294
1.39345
1.35042
1.30598
1.26169
1.21826
1.1756
1.13308
1.08982
1.0451
0.998458
0.949697
0.898672
0.84498
0.787821
0.726049
0.658373
0.583565
0.500649
0.408983
0.308201
0.198073
0.0783605
-0.0512861
-0.191361
-0.34244
-0.505051
-0.67953
-0.86589
-1.06369
-1.27182
-1.48811
-1.70879
-1.92775
-2.13581
-2.32034
-2.46573
-2.55509
-2.57314
-2.50999
-2.36452
-2.14549
-1.86906
-1.55402
-1.21724
-0.870956
-0.522258
-0.173941
0.151727
0.446803
0.718225
0.954712
1.1504
1.30485
1.42181
1.50738
1.56834
1.61063
1.63841
1.65388
1.65772
1.64994
1.63056
1.60034
1.56105
1.51528
1.46596
1.41579
1.36669
1.31943
1.27368
1.22843
1.18244
1.13471
1.08475
1.03253
0.978117
0.921205
0.860869
0.795695
0.724067
0.644473
0.555764
0.457277
0.348731
0.229999
0.10091
-0.0389071
-0.190074
-0.353385
-0.529624
-0.71938
-0.92294
-1.14019
-1.37042
-1.61191
-1.86123
-2.11226
-2.35502
-2.57486
-2.75268
-2.86688
-2.89712
-2.82962
-2.66238
-2.40725
-2.08629
-1.72443
-1.34295
-0.956206
-0.571358
-0.189944
0.172982
0.508406
0.814224
1.07672
1.28938
1.45278
1.57267
1.65747
1.71606
1.75595
1.78201
1.79631
1.79894
1.78919
1.76648
1.73132
1.68574
1.63298
1.57674
1.52044
1.46647
1.41565
1.36731
1.31986
1.27158
1.22115
1.16803
1.11247
1.05493
0.995254
0.93236
0.864478
0.789584
0.705801
0.611776
0.506862
0.390933
0.264032
0.126101
-0.0232309
-0.184737
-0.359481
-0.54855
-0.75282
-0.972865
-1.20895
-1.4609
-1.72764
-2.00642
-2.29149
-2.5724
-2.83247
-3.04859
-3.19341
-3.23999
-3.16899
-2.97693
-2.67984
-2.30786
-1.89402
-1.46495
-1.03708
-0.61715
-0.204732
0.196567
0.576471
0.919421
1.20881
1.43751
1.60769
1.72779
1.80909
1.86309
1.89919
1.92296
1.93611
1.93782
1.92636
1.90032
1.85979
1.80719
1.74661
1.68269
1.61979
1.56091
1.50691
1.45656
1.40755
1.3575
1.30464
1.24841
1.18954
1.12905
1.06706
1.00227
0.932423
0.854985
0.767615
0.668706
0.557686
0.434683
0.299987
0.153716
-0.00447514
-0.175541
-0.36088
-0.561947
-0.77992
-1.01565
-1.2698
-1.54285
-1.8346
-2.14331
-2.46416
-2.78672
-3.0924
-3.35362
-3.53605
-3.60421
-3.53097
-3.3102
-2.96366
-2.53269
-2.06089
-1.58124
-1.11197
-0.658615
-0.21796
0.222862
0.65201
1.03517
1.35228
1.59571
1.76999
1.8871
1.9618
2.00876
2.03965
2.06075
2.07304
2.07434
2.06166
2.03239
1.98605
1.92559
1.85622
1.78373
1.71366
1.64984
1.59313
1.54153
1.49171
1.44045
1.38543
1.32603
1.26369
1.20036
1.13651
1.07055
0.999545
0.920335
0.829991
0.726572
0.609677
0.479828
0.337645
0.183494
0.0171013
-0.162709
-0.35777
-0.569979
-0.800813
-1.05135
-1.32265
-1.61593
-1.93207
-2.27078
-2.62881
-2.99645
-3.35353
-3.66758
-3.89602
-3.9925
-3.91883
-3.66446
-3.25895
-2.75923
-2.22269
-1.6895
-1.17909
-0.694673
-0.229272
0.252295
0.736138
1.16293
1.50853
1.76489
1.93997
2.05042
2.115
2.15222
2.1765
2.1948
2.20682
2.20851
2.19533
2.1631
2.11045
2.04112
1.96183
1.87971
1.8018
1.73305
1.67427
1.62233
1.57254
1.52075
1.46383
1.40101
1.33485
1.26868
1.20348
1.13714
1.06586
0.985709
0.893021
0.785394
0.662746
0.526189
0.37675
0.215137
0.0412042
-0.146495
-0.350361
-0.572842
-0.815697
-1.08012
-1.36749
-1.67989
-2.01945
-2.38767
-2.78376
-3.19973
-3.61437
-3.98995
-4.27438
-4.40781
-4.33647
-4.04231
-3.56569
-2.98538
-2.37656
-1.78713
-1.23655
-0.724237
-0.238315
0.285346
0.830079
1.3043
1.67905
1.94588
2.1178
2.21743
2.26798
2.29246
2.30878
2.32447
2.33719
2.34032
2.32765
2.29293
2.23334
2.15396
2.06349
1.97051
1.88392
1.81026
1.75023
1.69909
1.65032
1.59875
1.54019
1.47351
1.40291
1.33377
1.26779
1.202
1.13136
1.05119
0.95683
0.845197
0.716785
0.573569
0.417025
0.24831
0.0675088
-0.127168
-0.338874
-0.570763
-0.824832
-1.1022
-1.40447
-1.73464
-2.09623
-2.49286
-2.92724
-3.39444
-3.87304
-4.31977
-4.67189
-4.85337
-4.78853
-4.44679
-3.88353
-3.20838
-2.5191
-1.87131
-1.28246
-0.746267
-0.244767
0.322566
0.93516
1.461
1.86544
2.13948
2.30349
2.38776
2.4199
2.42833
2.4354
2.44911
2.46393
2.46978
2.45896
2.42245
2.35513
2.26425
2.16126
2.05594
1.95966
1.88114
1.82095
1.77198
1.72531
1.67485
1.61496
1.54368
1.46767
1.39534
1.32925
1.26507
1.19607
1.11688
1.02158
0.906015
0.771663
0.621761
0.458172
0.282647
0.0956639
-0.105002
-0.323525
-0.563979
-0.82853
-1.11793
-1.43379
-1.78019
-2.16208
-2.58529
-3.05734
-3.57818
-4.12728
-4.65563
-5.08892
-5.33271
-5.28069
-4.88148
-4.21167
-3.42469
-2.64644
-1.93907
-1.31496
-0.759832
-0.24835
0.364592
1.0528
1.63485
2.06948
2.34638
2.49682
2.56094
2.56986
2.55852
2.55518
2.56808
2.5869
2.59687
2.58961
2.55239
2.47626
2.37211
2.2552
2.13585
2.02858
1.9453
1.88636
1.84122
1.79776
1.74948
1.68871
1.61173
1.52886
1.45299
1.38764
1.32633
1.25996
1.18289
1.08752
0.96789
0.827218
0.670554
0.499881
0.317748
0.125294
-0.0802745
-0.304511
-0.552726
-0.827153
-1.12774
-1.45578
-1.81674
-2.21688
-2.66403
-3.17211
-3.74828
-4.37451
-4.9956
-5.52518
-5.84959
-5.81998
-5.35067
-4.54862
-3.6298
-2.75419
-1.98739
-1.3324
-0.764175
-0.248854
0.41219
1.18449
1.82776
2.29311
2.56709
2.69731
2.73653
2.71694
2.68158
2.66678
2.68077
2.7061
2.72152
2.71996
2.68369
2.59716
2.47757
2.34548
2.21009
2.09014
2.00225
1.94641
1.90714
1.86791
1.82312
1.76216
1.67786
1.58612
1.50621
1.44275
1.38583
1.323
1.24932
1.15496
1.03087
0.883237
0.719747
0.541839
0.353181
0.156
-0.0532523
-0.281992
-0.537225
-0.821105
-1.13216
-1.47087
-1.8446
-2.26078
-2.72829
-3.26955
-3.9019
-4.61185
-5.33725
-5.97947
-6.40788
-6.4152
-5.8595
-4.89196
-3.81814
-2.83756
-2.01338
-1.33339
-0.758762
-0.246151
0.466318
1.33176
2.04165
2.5386
2.80193
2.90408
2.91417
2.86018
2.79585
2.76874
2.78666
2.82171
2.84352
2.85035
2.81755
2.71823
2.58047
2.43235
2.27852
2.1437
2.05141
2.00109
1.97016
1.93591
1.8962
1.83627
1.74233
1.63891
1.55438
1.49437
1.44372
1.38507
1.31626
1.22437
1.09498
0.93943
0.769175
0.583741
0.388475
0.187361
-0.0241889
-0.256077
-0.517665
-0.81083
-1.13181
-1.4795
-1.86423
-2.29427
-2.77755
-3.34766
-4.03596
-4.83626
-5.67771
-6.44924
-7.01137
-7.07749
-6.41418
-5.23785
-3.98282
-2.89141
-2.0144
-1.31692
-0.743332
-0.24021
0.52824
1.49611
2.27838
2.80868
3.05086
3.11573
3.09372
2.99873
2.8995
2.85943
2.88532
2.93428
2.96246
2.98103
2.95561
2.83982
2.68044
2.51629
2.34108
2.18849
2.09208
2.05045
2.03093
2.00177
1.96914
1.91228
1.80542
1.68653
1.59674
1.54232
1.50027
1.44597
1.38377
1.29643
1.16026
0.995392
0.818738
0.625298
0.42311
0.218929
0.00667961
-0.226805
-0.494185
-0.796799
-1.12743
-1.48215
-1.87615
-2.31825
-2.81153
-3.40449
-4.14723
-5.04464
-6.01385
-6.93012
-7.66348
-7.82111
-7.02217
-5.58052
-4.11555
-2.91049
-1.98822
-1.28244
-0.717922
-0.231096
0.599706
1.67893
2.5396
3.10678
3.31342
3.33013
3.27551
3.1318
2.99044
2.93703
2.97648
3.04479
3.07751
3.11208
3.10013
2.96211
2.77669
2.59808
2.39778
2.22355
2.12339
2.09458
2.09037
2.06522
2.04225
1.99187
1.86741
1.72806
1.63235
1.58646
1.55605
1.5053
1.45181
1.37208
1.22665
1.05054
0.868456
0.666249
0.456506
0.250233
0.0391354
-0.194125
-0.466861
-0.779508
-1.11992
-1.47925
-1.8809
-2.3341
-2.83024
-3.43811
-4.23225
-5.23397
-6.34261
-7.41527
-8.36667
-8.66447
-7.69244
-5.91142
-4.20655
-2.88964
-1.93325
-1.22993
-0.682882
-0.218976
0.683244
1.88139
2.82651
3.43744
3.58852
3.54418
3.46062
3.25876
3.06627
2.9995
3.06001
3.15496
3.1873
3.24327
3.25427
3.08505
2.86788
2.67903
2.4487
2.24771
2.14431
2.13368
2.14986
2.12562
2.11562
2.07736
1.92857
1.76225
1.66011
1.6267
1.61197
1.56238
1.52019
1.45275
1.29402
1.10403
0.918546
0.706362
0.488004
0.280778
0.0729756
-0.157882
-0.435684
-0.759463
-1.11034
-1.47114
-1.87892
-2.34383
-2.83401
-3.44672
-4.2873
-5.40151
-6.66155
-7.89453
-9.12175
-9.63151
-8.43568
-6.21822
-4.24451
-2.82411
-1.84869
-1.15996
-0.638862
-0.204106
0.782593
2.10425
3.13951
3.80681
3.87418
3.7534
3.65131
3.37907
3.12426
3.04452
3.1359
3.26756
3.28956
3.37392
3.4225
3.20816
2.9518
2.76124
2.49401
2.25953
2.15359
2.16795
2.21142
2.18173
2.18906
2.17189
1.98909
1.78752
1.6787
1.66303
1.66947
1.61611
1.58851
1.54044
1.36206
1.15466
0.969532
0.745435
0.516837
0.310056
0.108003
-0.117795
-0.400555
-0.737161
-1.10004
-1.45794
-1.87042
-2.35021
-2.82344
-3.4286
-4.3083
-5.54485
-6.96967
-8.35349
-9.92676
-10.7535
-9.26455
-6.48343
-4.21683
-2.71
-1.73468
-1.07366
-0.586787
-0.186817
0.903346
2.34764
3.47773
4.22345
4.16724
3.95149
3.85166
3.49229
3.16119
3.06948
3.20421
3.38682
3.38075
3.50264
3.61118
3.33032
3.0251
2.84797
2.53387
2.25725
2.14974
2.19765
2.27801
2.23147
2.26187
2.2798
2.04895
1.80189
1.68663
1.69542
1.73077
1.66476
1.656
1.63808
1.4302
1.20073
1.02241
0.783275
0.542102
0.337553
0.144012
-0.0734377
-0.361267
-0.713056
-1.09072
-1.43956
-1.85518
-2.357
-2.79938
-3.38225
-4.29065
-5.66202
-7.26864
-8.77235
-10.7755
-12.0712
-10.1938
-6.68263
-4.11003
-2.54469
-1.59242
-0.972727
-0.527801
-0.167501
1.05386
2.61077
3.83832
4.6994
4.46291
4.12971
4.06833
3.59782
3.17337
3.07145
3.2649
3.51911
3.45557
3.62702
3.82925
3.4495
3.0828
2.94415
2.56836
2.23871
2.13103
2.22291
2.35396
2.2716
2.3327
2.40706
2.10777
1.80289
1.68223
1.72382
1.79919
1.70575
1.72142
1.74981
1.49745
1.23984
1.07885
0.819656
0.56272
0.362784
0.180759
-0.0242139
-0.317513
-0.687504
-1.08459
-1.41552
-1.83228
-2.36925
-2.7628
-3.30645
-4.22902
-5.75132
-7.56449
-9.12461
-11.6555
-13.6381
-11.2403
-6.78238
-3.91051
-2.32733
-1.42422
-0.859311
-0.463213
-0.146584
1.24648
2.89152
4.21554
5.25158
4.75419
4.27611
4.31171
3.69466
3.1565
3.04722
3.31756
3.6737
3.50635
3.74324
4.08923
3.56232
3.11782
3.05709
2.59726
2.20136
2.0955
2.24359
2.44546
2.29728
2.39926
2.56179
2.16451
1.78757
1.66367
1.74799
1.87954
1.7353
1.78285
1.88149
1.56223
1.2687
1.14151
0.854246
0.577395
0.385327
0.217932
0.0306679
-0.268891
-0.660673
-1.08458
-1.38494
-1.79975
-2.39363
-2.71454
-3.20046
-4.11705
-5.811
-7.86978
-9.37562
-12.5456
-15.5237
-12.4233
-6.73754
-3.60579
-2.05935
-1.23348
-0.73593
-0.394424
-0.124507
1.49924
3.18593
4.59955
5.90358
5.03118
4.37457
4.59721
3.78089
3.10569
2.99336
3.36098
3.86386
3.52222
3.84555
4.40843
3.66353
3.12029
3.19736
2.61973
2.1422
2.04099
2.25901
2.56125
2.30161
2.45802
2.75502
2.21714
1.75247
1.62909
1.76727
1.97867
1.74805
1.83746
2.0412
1.6221
1.28285
1.21437
0.886481
0.584573
0.404888
0.255087
0.09223
-0.214939
-0.632417
-1.09456
-1.34646
-1.75417
-2.43902
-2.65504
-3.06428
-3.94713
-5.83857
-8.20642
-9.48112
-13.4122
-17.8183
-13.7635
-6.48817
-3.18622
-1.74483
-1.02454
-0.605328
-0.322855
-0.101706
1.83792
3.48767
4.97486
6.68798
5.2801
4.40372
4.94703
3.85291
3.01548
2.90637
3.3925
4.10813
3.48824
3.92567
4.81035
3.74541
3.07679
3.3799
2.63382
2.0578
1.96526
2.26752
2.71351
2.27499
2.5038
3.00152
2.26205
1.69368
1.5767
1.78029
2.10614
1.73658
1.88123
2.23997
1.67344
1.27636
1.30323
0.915385
0.582399
0.421383
0.291586
0.16177
-0.15519
-0.602094
-1.11965
-1.29813
-1.69009
-2.51709
-2.58387
-2.89905
-3.71008
-5.82971
-8.60916
-9.38561
-14.2058
-20.6381
-15.2833
-5.95594
-2.64744
-1.39075
-0.802483
-0.470328
-0.249882
-0.0785907
2.29877
3.78719
5.31848
7.64908
5.48221
4.33561
5.39226
3.90443
2.87999
2.78294
3.40713
4.43201
3.38426
3.97205
5.3265
3.79692
2.96949
3.6254
2.63579
1.9444
1.86616
2.26594
2.91891
2.20442
2.52941
3.32089
2.29342
1.60694
1.50493
1.78448
2.27504
1.69086
1.9086
2.4926
1.71109
1.2415
1.41623
0.939318
0.568695
0.435043
0.32649
0.24092
-0.0892704
-0.568319
-1.16656
-1.23749
-1.5994
-2.64315
-2.49901
-2.70751
-3.39491
-5.77663
-9.1297
-9.0209
-14.8556
-24.1315
-17.0051
-5.04008
-1.99351
-1.00696
-0.572819
-0.33368
-0.176776
-0.0555321
2.93168
4.07097
5.59766
8.84619
5.61239
4.13427
5.97532
3.92505
2.69308
2.62033
3.39635
4.86986
3.18372
3.96901
5.99837
3.80276
2.77518
3.96189
2.61924
1.79804
1.74184
2.24878
3.19989
2.0727
2.52504
3.73873
2.30233
1.48785
1.41272
1.77544
2.50301
1.59756
1.91213
2.8186
1.72781
1.16833
1.56458
0.955641
0.540944
0.446552
0.358447
0.331728
-0.0170346
-0.528651
-1.24402
-1.16151
-1.47052
-2.83713
-2.39607
-2.49475
-2.98879
-5.66582
-9.84149
-8.30469
-15.2644
-28.4861
-18.9507
-3.61291
-1.24082
-0.60581
-0.341145
-0.197924
-0.104662
-0.0328528
3.80398
4.32043
5.76728
10.3574
5.63764
3.75409
6.75286
3.8985
2.44882
2.41684
3.34661
5.46719
2.85222
3.89576
6.87971
3.7423
2.46418
4.42665
2.57391
1.61483
1.59112
2.20727
3.58609
1.85746
2.47782
4.28809
2.27565
1.33215
1.29981
1.74618
2.81336
1.43941
1.88205
3.24325
1.71375
1.04434
1.76328
0.960282
0.496308
0.457199
0.385532
0.436764
0.0612409
-0.479198
-1.36319
-1.0667
-1.28749
-3.12482
-2.26712
-2.26895
-2.47701
-5.47514
-10.8451
-7.13947
-15.3012
-33.9368
-21.1393
-1.51516
-0.422852
-0.201266
-0.112736
-0.0652801
-0.0344891
-0.0108215
)
;

boundaryField
{
    left
    {
        type            calculated;
        value           uniform 0;
    }
    right
    {
        type            calculated;
        value           uniform 0;
    }
    interface
    {
        type            calculated;
        value           nonuniform List<scalar> 
64
(
3.80398
4.32043
5.76728
10.3574
5.63764
3.75409
6.75286
3.8985
2.44882
2.41684
3.34661
5.46719
2.85222
3.89576
6.87971
3.7423
2.46418
4.42665
2.57391
1.61483
1.59112
2.20727
3.58609
1.85746
2.47782
4.28809
2.27565
1.33215
1.29981
1.74618
2.81336
1.43941
1.88205
3.24325
1.71375
1.04434
1.76328
0.960282
0.496308
0.457199
0.385532
0.436764
0.0612409
-0.479198
-1.36319
-1.0667
-1.28749
-3.12482
-2.26712
-2.26895
-2.47701
-5.47514
-10.8451
-7.13947
-15.3012
-33.9368
-21.1393
-1.51516
-0.422852
-0.201266
-0.112736
-0.0652801
-0.0344891
-0.0108215
)
;
    }
    bottom
    {
        type            calculated;
        value           nonuniform List<scalar> 
64
(
0.00630499
0.0187344
0.0306388
0.0417203
0.05175
0.0605785
0.0681356
0.0744189
0.0794782
0.0833963
0.086273
0.0882126
0.0893171
0.0896833
0.0894036
0.0885673
0.087261
0.0855684
0.0835672
0.081326
0.0789005
0.0763314
0.0736435
0.0708471
0.0679398
0.0649097
0.061737
0.0583963
0.0548566
0.0510822
0.0470327
0.0426645
0.0379324
0.0327919
0.0272011
0.0211224
0.0145236
0.00737844
-0.00033261
-0.00862123
-0.017489
-0.0269235
-0.0368936
-0.0473416
-0.0581762
-0.0692625
-0.0804134
-0.0913818
-0.101857
-0.111465
-0.119783
-0.12636
-0.130754
-0.13257
-0.131512
-0.127417
-0.120278
-0.110248
-0.0976159
-0.0827653
-0.0661299
-0.0481504
-0.029247
-0.00980744
)
;
    }
    defaultFaces
    {
        type            empty;
    }
}


// ************************************************************************* //
