/*--------------------------------*- C++ -*----------------------------------*\
| =========                 |                                                 |
| \\      /  F ield         | OpenFOAM: The Open Source CFD Toolbox           |
|  \\    /   O peration     | Version:  5.x                                   |
|   \\  /    A nd           | Web:      www.OpenFOAM.org                      |
|    \\/     M anipulation  |                                                 |
\*---------------------------------------------------------------------------*/
FoamFile
{
    version     2.0;
    format      ascii;
    class       volScalarField;
    location    "3.2";
    object      gradTx;
}
// * * * * * * * * * * * * * * * * * * * * * * * * * * * * * * * * * * * * * //

dimensions      [0 -1 0 1 0 0 0];

internalField   nonuniform List<scalar> 
6300
(
-30.0616
-30.131
-30.2689
-30.4742
-30.7445
-31.0769
-31.4673
-31.9103
-32.3995
-32.9271
-33.4842
-34.0606
-34.6459
-35.2291
-35.8001
-29.9924
-30.0624
-30.2017
-30.4091
-30.6826
-31.0191
-31.4147
-31.8642
-32.3612
-32.8978
-33.4649
-34.052
-34.6479
-35.2414
-35.8213
-29.8533
-29.9245
-30.0666
-30.2782
-30.5577
-30.9022
-31.3082
-31.7707
-32.2834
-32.8382
-33.4256
-34.0345
-34.6527
-35.2672
-35.8657
-29.6429
-29.7161
-29.8619
-30.0796
-30.3677
-30.7241
-31.1454
-31.6272
-32.1634
-32.746
-33.3649
-34.008
-34.6612
-35.3093
-35.9372
-29.3596
-29.435
-29.5855
-29.8107
-30.1097
-30.481
-30.9222
-31.4295
-31.9972
-32.6177
-33.2802
-33.9714
-34.6748
-35.3718
-36.0427
-29.001
-29.0788
-29.2344
-29.468
-29.7795
-30.1683
-30.6331
-31.1713
-31.7785
-32.4473
-33.167
-33.9228
-34.6951
-35.4603
-36.1923
-28.5647
-28.6449
-28.8056
-29.0476
-29.372
-29.7795
-30.2706
-30.8444
-31.4981
-32.2261
-33.0179
-33.8576
-34.7225
-35.5822
-36.4007
-28.0484
-28.1305
-28.2955
-28.545
-28.8815
-29.3074
-29.8255
-30.4375
-31.1438
-31.941
-32.8209
-33.7676
-34.7551
-35.7456
-36.6887
-27.4501
-27.5332
-27.7009
-27.9557
-28.3015
-28.7432
-29.2864
-29.9367
-30.6985
-31.5735
-32.5573
-33.6367
-34.7848
-35.9564
-37.0832
-26.7687
-26.8516
-27.0193
-27.2755
-27.6258
-28.0776
-28.6403
-29.3243
-30.1403
-31.0971
-32.1983
-33.4373
-34.7913
-36.2122
-37.6152
-26.0044
-26.0853
-26.2493
-26.5013
-26.8485
-27.3013
-27.873
-28.5801
-29.4415
-30.4765
-31.7014
-33.1232
-34.7308
-36.4859
-38.305
-25.1594
-25.2359
-25.3915
-25.6319
-25.9658
-26.4062
-26.9704
-27.6818
-28.569
-29.666
-31.0079
-32.6232
-34.5232
-36.6957
-39.1126
-24.238
-24.3074
-24.4491
-24.669
-24.9768
-25.3871
-25.9209
-26.6076
-27.4869
-28.6108
-30.041
-31.8387
-34.0431
-36.6612
-39.7814
-23.2472
-23.3068
-23.4285
-23.6182
-23.8854
-24.2448
-24.7187
-25.3407
-26.1603
-27.2494
-28.7067
-30.6475
-33.1494
-36.1245
-39.4237
-22.197
-22.244
-22.3402
-22.4901
-22.7017
-22.9879
-23.3686
-23.8765
-24.5642
-25.5199
-26.8888
-28.8954
-31.7824
-35.2638
-35.8319
-36.3062
-36.7454
-37.1623
-37.5553
-37.9234
-38.2667
-38.5856
-38.8807
-39.1524
-39.4006
-39.6249
-39.8244
-39.9982
-40.1458
-40.2671
-40.363
-40.4354
-40.4872
-40.522
-40.5438
-40.5566
-40.5642
-40.5691
-40.5729
-40.5762
-40.5781
-40.5771
-40.5714
-40.5589
-40.5381
-40.5085
-40.4702
-40.4246
-40.3738
-40.3204
-40.2673
-40.2167
-40.1702
-40.1287
-40.0916
-40.0575
-40.0244
-39.9898
-39.9513
-39.9071
-39.8561
-39.7983
-39.7347
-39.6673
-39.5983
-39.5304
-39.4656
-39.4055
-39.3506
-39.3003
-39.2534
-39.2076
-39.1604
-39.1095
-39.053
-38.9899
-38.9201
-38.8446
-38.7653
-38.6846
-38.6049
-38.5284
-38.4567
-38.3905
-38.3296
-38.2727
-38.2183
-38.1644
-38.1093
-38.052
-37.9925
-37.932
-37.873
-37.8189
-37.7739
-37.7424
-37.7285
-37.7356
-37.7655
-37.8186
-37.8933
-37.9863
-38.0924
-38.2052
-38.3178
-36.334
-36.7775
-37.197
-37.5911
-37.9592
-38.3018
-38.62
-38.9146
-39.1863
-39.4353
-39.6607
-39.8614
-40.0361
-40.1837
-40.3038
-40.397
-40.4653
-40.5118
-40.5407
-40.5567
-40.5644
-40.5681
-40.5707
-40.5739
-40.5781
-40.5822
-40.5841
-40.5812
-40.5708
-40.5511
-40.521
-40.4808
-40.4321
-40.3775
-40.3202
-40.2636
-40.2107
-40.1633
-40.1223
-40.0872
-40.0562
-40.0266
-39.9954
-39.9596
-39.9169
-39.8659
-39.8066
-39.7403
-39.6694
-39.5969
-39.5258
-39.4589
-39.398
-39.3438
-39.2956
-39.2517
-39.2095
-39.1657
-39.1175
-39.0625
-38.9994
-38.9282
-38.8501
-38.7674
-38.683
-38.6001
-38.5214
-38.4487
-38.3829
-38.3235
-38.2692
-38.2175
-38.166
-38.1123
-38.055
-37.9938
-37.9299
-37.8658
-37.8057
-37.7543
-37.7169
-37.6983
-37.7025
-37.732
-37.7873
-37.8669
-37.9672
-38.0825
-38.2056
-38.3285
-36.392
-36.844
-37.2686
-37.6644
-38.0319
-38.3725
-38.6883
-38.9815
-39.2533
-39.5038
-39.7321
-39.936
-40.1132
-40.2614
-40.3792
-40.4669
-40.5265
-40.5618
-40.5782
-40.5816
-40.5783
-40.5736
-40.5714
-40.5737
-40.5804
-40.5897
-40.5982
-40.6017
-40.5964
-40.579
-40.548
-40.5037
-40.4482
-40.3851
-40.3191
-40.2549
-40.1966
-40.1472
-40.1075
-40.0769
-40.0528
-40.0312
-40.0077
-39.978
-39.9385
-39.8875
-39.8249
-39.7526
-39.674
-39.5933
-39.5152
-39.4435
-39.3808
-39.3282
-39.2847
-39.2478
-39.2135
-39.1774
-39.1352
-39.0836
-39.0206
-38.9461
-38.8621
-38.7717
-38.6793
-38.5893
-38.5056
-38.4308
-38.3659
-38.3103
-38.2616
-38.2163
-38.1705
-38.1205
-38.0636
-37.999
-37.9276
-37.8529
-37.7797
-37.7146
-37.6642
-37.6352
-37.633
-37.6611
-37.7209
-37.8107
-37.9265
-38.0612
-38.2061
-38.3511
-36.485
-36.9501
-37.3816
-37.7788
-38.1433
-38.4788
-38.7895
-39.0794
-39.351
-39.6046
-39.8386
-40.0494
-40.2322
-40.3829
-40.4982
-40.5775
-40.6229
-40.6394
-40.6343
-40.6164
-40.5943
-40.5756
-40.5657
-40.5671
-40.5792
-40.5985
-40.6194
-40.6351
-40.6393
-40.6266
-40.5944
-40.5429
-40.4752
-40.397
-40.3154
-40.2376
-40.1701
-40.1169
-40.0798
-40.0574
-40.0457
-40.0386
-40.029
-40.0103
-39.9769
-39.9259
-39.8573
-39.774
-39.6814
-39.5861
-39.4953
-39.415
-39.3492
-39.2995
-39.2644
-39.2399
-39.22
-39.1978
-39.1666
-39.121
-39.0581
-38.9779
-38.8831
-38.779
-38.6721
-38.5694
-38.4768
-38.3983
-38.3355
-38.287
-38.249
-38.2158
-38.1811
-38.1384
-38.0833
-38.0136
-37.9303
-37.8375
-37.7422
-37.6533
-37.5806
-37.5334
-37.5195
-37.5446
-37.6109
-37.7172
-37.8582
-38.0251
-38.2062
-38.388
-36.6215
-37.1047
-37.5443
-37.9403
-38.2968
-38.6209
-38.9208
-39.2038
-39.4745
-39.7339
-39.9788
-40.2029
-40.3978
-40.5553
-40.6692
-40.737
-40.761
-40.7481
-40.7091
-40.6572
-40.6054
-40.565
-40.5438
-40.5452
-40.5676
-40.605
-40.648
-40.6855
-40.7065
-40.7025
-40.6687
-40.6053
-40.5174
-40.4139
-40.3062
-40.2058
-40.1227
-40.0636
-40.031
-40.0226
-40.032
-40.0495
-40.0637
-40.0636
-40.0406
-39.9897
-39.9109
-39.8089
-39.6925
-39.5726
-39.4604
-39.3655
-39.2945
-39.2496
-39.2287
-39.2253
-39.2298
-39.2312
-39.2186
-39.1833
-39.1206
-39.0304
-38.9174
-38.79
-38.6588
-38.5349
-38.4276
-38.3434
-38.2843
-38.2484
-38.2292
-38.2176
-38.2027
-38.1742
-38.124
-38.0478
-37.9463
-37.8255
-37.6953
-37.5688
-37.4602
-37.3833
-37.3499
-37.3686
-37.4434
-37.5735
-37.7524
-37.9684
-38.2052
-38.4437
-36.8149
-37.3223
-37.7699
-38.1588
-38.4971
-38.798
-39.0765
-39.3459
-39.6146
-39.8842
-40.1492
-40.3985
-40.6173
-40.7907
-40.9067
-40.9598
-40.9522
-40.8943
-40.8028
-40.698
-40.6002
-40.5268
-40.4896
-40.4932
-40.5345
-40.6036
-40.6847
-40.7595
-40.8099
-40.8213
-40.7857
-40.7032
-40.582
-40.437
-40.2865
-40.1491
-40.0408
-39.9723
-39.9473
-39.9622
-40.0067
-40.065
-40.1189
-40.1501
-40.1444
-40.0936
-39.9977
-39.8646
-39.7087
-39.5479
-39.4004
-39.2816
-39.202
-39.1653
-39.1677
-39.1992
-39.2442
-39.2847
-39.303
-39.285
-39.2226
-39.1159
-38.9724
-38.8064
-38.6351
-38.4763
-38.3452
-38.2519
-38.1998
-38.1854
-38.1985
-38.2239
-38.244
-38.2413
-38.2018
-38.1181
-37.9903
-37.8269
-37.643
-37.4582
-37.2939
-37.1704
-37.1053
-37.1116
-37.1962
-37.3592
-37.593
-37.8816
-38.2018
-38.5253
-37.0858
-37.626
-38.0802
-38.4504
-38.7514
-39.0073
-39.2454
-39.4892
-39.7536
-40.0411
-40.3424
-40.6381
-40.9024
-41.1087
-41.2351
-41.2701
-41.216
-41.089
-40.9159
-40.7289
-40.5601
-40.4367
-40.3766
-40.3868
-40.4618
-40.5848
-40.7306
-40.8688
-40.9694
-41.0079
-40.9703
-40.8567
-40.6811
-40.4682
-40.248
-40.0507
-39.9018
-39.8182
-39.8061
-39.8594
-39.9615
-40.0871
-40.2065
-40.29
-40.3132
-40.2626
-40.1381
-39.9532
-39.7321
-39.5041
-39.2989
-39.1413
-39.0479
-39.0244
-39.0651
-39.1535
-39.2649
-39.3701
-39.4398
-39.4505
-39.3885
-39.254
-39.06
-38.8301
-38.5931
-38.3778
-38.2084
-38.1009
-38.061
-38.0828
-38.1499
-38.2379
-38.3179
-38.361
-38.3434
-38.2517
-38.0854
-37.8576
-37.5918
-37.3182
-37.0687
-36.8733
-36.7579
-36.7415
-36.8358
-37.043
-37.3546
-37.7493
-38.1936
-38.6443
-37.4662
-38.0537
-38.5115
-38.8417
-39.0707
-39.2426
-39.4061
-39.6032
-39.8592
-40.1783
-40.544
-40.923
-41.2712
-41.5418
-41.6952
-41.7089
-41.585
-41.3502
-41.049
-40.7336
-40.4549
-40.2552
-40.1626
-40.1873
-40.3199
-40.5335
-40.7874
-41.0324
-41.2186
-41.3041
-41.2644
-41.0996
-40.8342
-40.5099
-40.1764
-39.8825
-39.6686
-39.5615
-39.5706
-39.6864
-39.8824
-40.1183
-40.346
-40.5164
-40.5884
-40.538
-40.3652
-40.094
-39.7652
-39.4277
-39.1289
-38.9086
-38.7929
-38.791
-38.8937
-39.0747
-39.2946
-39.5063
-39.6617
-39.7204
-39.659
-39.4775
-39.1992
-38.8641
-38.52
-38.2131
-37.9822
-37.8527
-37.8333
-37.9148
-38.0711
-38.2634
-38.4449
-38.5678
-38.5917
-38.4926
-38.269
-37.9427
-37.5518
-37.1434
-36.7652
-36.4611
-36.2675
-36.2121
-36.3127
-36.5764
-36.9962
-37.5456
-38.1758
-38.8194
-38.0048
-38.6684
-39.1269
-39.3786
-39.4725
-39.4898
-39.5188
-39.6326
-39.8741
-40.2485
-40.7265
-41.2523
-41.7517
-42.144
-42.3567
-42.346
-42.1136
-41.7071
-41.2026
-40.6855
-40.2361
-39.9197
-39.78
-39.8323
-40.0615
-40.4244
-40.8569
-41.2807
-41.6129
-41.7805
-41.7387
-41.4876
-41.072
-40.5647
-40.0481
-39.5993
-39.2818
-39.1374
-39.1813
-39.3981
-39.7458
-40.1613
-40.5679
-40.8847
-41.0399
-40.9897
-40.7343
-40.3176
-39.811
-39.2952
-38.846
-38.5252
-38.3741
-38.4072
-38.6095
-38.9398
-39.3362
-39.7237
-40.0227
-40.1633
-40.1024
-39.8403
-39.42
-38.9112
-38.3929
-37.939
-37.6099
-37.4456
-37.4603
-37.6388
-37.9405
-38.3043
-38.6561
-38.9171
-39.0172
-38.9125
-38.6006
-38.1204
-37.5371
-36.9249
-36.355
-35.8895
-35.5781
-35.4579
-35.5545
-35.8848
-36.451
-37.2254
-38.1385
-39.0813
-38.7754
-39.5788
-40.04
-40.143
-39.9848
-39.7203
-39.5093
-39.4783
-39.6978
-40.1695
-40.8407
-41.6195
-42.3867
-43.0047
-43.3401
-43.3025
-42.8932
-42.2053
-41.3744
-40.5402
-39.8257
-39.3301
-39.1207
-39.2229
-39.6104
-40.2153
-40.9391
-41.6609
-42.2444
-42.5586
-42.5146
-42.1126
-41.4418
-40.6332
-39.8219
-39.1272
-38.6455
-38.4425
-38.543
-38.9215
-39.5116
-40.217
-40.9194
-41.4856
-41.787
-41.7369
-41.3355
-40.6705
-39.8702
-39.067
-38.378
-37.8975
-37.6899
-37.7795
-38.1411
-38.7096
-39.3906
-40.0682
-40.6119
-40.896
-40.8355
-40.4309
-39.7679
-38.9721
-38.1731
-37.485
-37
-36.7809
-36.8511
-37.1855
-37.7203
-38.3625
-38.9979
-39.4978
-39.7373
-39.6306
-39.1742
-38.4466
-37.5639
-36.6452
-35.7943
-35.0957
-34.6134
-34.3915
-34.4596
-34.8534
-35.606
-36.7055
-38.0582
-39.482
-39.8835
-40.9824
-41.4688
-41.2838
-40.6503
-39.874
-39.2407
-38.9636
-39.1584
-39.8033
-40.7998
-42.0039
-43.2366
-44.2726
-44.8608
-44.7943
-44.0743
-42.9094
-41.551
-40.2225
-39.1004
-38.3284
-38.0128
-38.2028
-38.8464
-39.835
-41.0244
-42.2402
-43.264
-43.8526
-43.8059
-43.1246
-42.0102
-40.7057
-39.428
-38.3486
-37.608
-37.3104
-37.5046
-38.1401
-39.1112
-40.2771
-41.4671
-42.4676
-43.0406
-42.9899
-42.3165
-41.2183
-39.9334
-38.6744
-37.6097
-36.8767
-36.5777
-36.7602
-37.3746
-38.3172
-39.4499
-40.6056
-41.5749
-42.1249
-42.0641
-41.3936
-40.307
-39.0376
-37.7933
-36.7384
-36.0073
-35.6995
-35.8612
-36.4437
-37.3451
-38.4302
-39.5348
-40.4533
-40.956
-40.8523
-40.1382
-38.9958
-37.6426
-36.2679
-35.014
-33.9903
-33.2738
-32.9074
-32.8957
-33.305
-34.2616
-35.8208
-37.8755
-40.1135
-41.4516
-43.268
-43.8647
-43.0705
-41.5217
-39.8218
-38.4593
-37.7696
-37.9708
-38.931
-40.4603
-42.3471
-44.3697
-46.1856
-47.3243
-47.2273
-45.896
-43.8925
-41.6845
-39.6078
-37.8711
-36.6696
-36.1768
-36.5298
-37.5857
-39.1656
-41.0719
-43.0961
-44.9101
-46.0616
-46.0112
-44.7604
-42.8524
-40.7398
-38.7484
-37.0822
-35.9324
-35.4703
-35.8309
-36.8756
-38.4304
-40.3024
-42.2879
-44.0654
-45.1921
-45.1395
-43.9094
-42.0347
-39.9592
-38.0022
-36.3637
-35.2312
-34.7721
-35.1189
-36.1355
-37.651
-39.4762
-41.4113
-43.1415
-44.2335
-44.1706
-42.9552
-41.1092
-39.0668
-37.1406
-35.5257
-34.405
-33.9419
-34.2654
-35.2423
-36.7054
-38.4697
-40.3397
-42.0074
-43.0477
-42.9526
-41.7191
-39.8483
-37.7521
-35.7164
-33.9024
-32.4422
-31.4303
-30.9123
-30.7254
-30.9685
-32.0495
-34.2223
-37.4286
-41.1487
-43.4713
-47.3099
-48.2635
-45.9441
-42.611
-39.2838
-36.7093
-35.2927
-35.6903
-37.2393
-39.6059
-42.4949
-45.8009
-49.0736
-51.5674
-51.438
-48.6857
-45.1702
-41.6292
-38.5035
-35.8714
-33.9902
-33.123
-33.8447
-35.5705
-38.0264
-40.9496
-44.2547
-47.5103
-50.0017
-49.945
-47.3427
-43.9893
-40.5994
-37.6006
-35.0721
-33.2669
-32.4454
-33.1719
-34.8766
-37.2929
-40.1644
-43.4079
-46.6006
-49.042
-48.9844
-46.4307
-43.1404
-39.8143
-36.8714
-34.3892
-32.6157
-31.806
-32.513
-34.1779
-36.5389
-39.3443
-42.5119
-45.6272
-48.0049
-47.9364
-45.4251
-42.194
-38.9289
-36.0395
-33.6011
-31.8555
-31.0514
-31.7287
-33.3408
-35.632
-38.3569
-41.4357
-44.4648
-46.7742
-46.6919
-44.2175
-41.025
-37.7744
-34.8458
-32.281
-30.2485
-28.8752
-28.4404
-27.9356
-27.4252
-28.2649
-31.1354
-36.2419
-42.9359
-44.94
-55.5066
-57.3759
-50.2775
-43.692
-37.6622
-33.2922
-30.2032
-31.7521
-34.3705
-37.9995
-42.0425
-47.2802
-53.0834
-59.5882
-59.4259
-52.5744
-46.4849
-40.9761
-36.6886
-32.7905
-29.8508
-27.7813
-29.7136
-32.5043
-36.2141
-40.2777
-45.4846
-51.2112
-57.6109
-57.5448
-51.0068
-45.1789
-39.8957
-35.7756
-32.0204
-29.1849
-27.1915
-29.1046
-31.8528
-35.4998
-39.4909
-44.6013
-50.2175
-56.4903
-56.4239
-50.0126
-44.2978
-39.1175
-35.0771
-31.3942
-28.6124
-26.6556
-28.528
-31.2177
-34.7868
-38.6906
-43.6877
-49.1748
-55.299
-55.2199
-48.9312
-43.3277
-38.2497
-34.2889
-30.6788
-27.9503
-26.0278
-27.8456
-30.4611
-33.9339
-37.7343
-42.6033
-47.9582
-53.9445
-53.8759
-47.7496
-42.2853
-37.333
-33.4512
-29.8929
-27.1055
-24.9686
-26.0691
-25.1534
-21.9375
-21.5558
-24.8285
-32.7693
-46.2258
-39.0336
-76.2274
-79.4019
-53.8726
-43.9727
-33.651
-28.0303
-18.4355
-26.2737
-30.0467
-35.7968
-39.8701
-47.945
-56.0833
-77.2098
-77.0465
-55.3658
-46.9637
-38.5644
-34.3129
-28.3295
-24.4586
-16.677
-24.3466
-28.1145
-33.8926
-37.9595
-45.9662
-53.9429
-74.531
-74.4641
-53.6485
-45.5841
-37.5174
-33.4254
-27.6443
-23.8904
-16.3122
-23.8347
-27.5346
-33.2113
-37.2055
-45.0666
-52.8886
-73.0673
-72.9999
-52.5917
-44.6856
-36.7791
-32.768
-27.1015
-23.4212
-15.9913
-23.3659
-26.9913
-32.5525
-36.4628
-44.1577
-51.8049
-71.5256
-71.4451
-51.4506
-43.7048
-35.9616
-32.0333
-26.4866
-22.8846
-15.6179
-22.8136
-26.3472
-31.7637
-35.5728
-43.0708
-50.5423
-69.8339
-69.7824
-50.3283
-42.8082
-35.35
-31.5908
-26.3947
-23.0256
-16.3998
-26.6006
-25.6823
-12.3677
-9.58441
-11.7993
-21.354
-52.6399
-38.432
-38.5367
-38.6111
-38.6498
-38.6509
-38.6164
-38.5514
-38.4631
-38.3602
-38.2516
-38.1461
-38.0515
-37.9746
-37.9203
-37.8924
-38.4531
-38.5668
-38.6468
-38.6872
-38.6863
-38.6468
-38.5745
-38.4777
-38.3657
-38.2484
-38.135
-38.0338
-37.9517
-37.894
-37.8642
-38.4977
-38.6305
-38.7221
-38.7657
-38.7603
-38.7099
-38.6221
-38.5072
-38.3765
-38.2412
-38.1116
-37.9969
-37.9043
-37.8395
-37.8062
-38.5712
-38.7351
-38.8451
-38.8932
-38.8793
-38.8101
-38.6966
-38.5524
-38.3918
-38.228
-38.0733
-37.9377
-37.8291
-37.7535
-37.7147
-38.6829
-38.8936
-39.0299
-39.0824
-39.0535
-38.9544
-38.8017
-38.6141
-38.4099
-38.2058
-38.0158
-37.8513
-37.7207
-37.6305
-37.5844
-38.8477
-39.1266
-39.2983
-39.3529
-39.2978
-39.1523
-38.9416
-38.6921
-38.4278
-38.1693
-37.9327
-37.7307
-37.572
-37.4631
-37.4078
-39.0903
-39.4665
-39.6838
-39.7331
-39.6324
-39.4151
-39.1202
-38.7847
-38.4399
-38.1106
-37.8151
-37.5664
-37.3735
-37.2421
-37.1756
-39.4502
-39.9654
-40.237
-40.2632
-40.0833
-39.7555
-39.3394
-38.8865
-38.4365
-38.018
-37.6505
-37.3463
-37.1134
-36.9561
-36.8769
-39.9945
-40.7077
-41.0356
-40.9993
-40.682
-40.1839
-39.5953
-38.9852
-38.4014
-37.8744
-37.4223
-37.055
-36.7774
-36.5918
-36.4989
-40.8407
-41.8351
-42.1981
-42.0163
-41.4612
-40.7029
-39.8726
-39.0575
-38.3093
-37.6557
-37.1092
-36.6737
-36.3494
-36.1347
-36.0278
-42.2081
-43.5938
-43.9052
-43.4063
-42.4434
-41.2937
-40.1345
-39.0626
-38.1227
-37.33
-36.6848
-36.1812
-35.8117
-35.5695
-35.4497
-44.5385
-46.4268
-46.4224
-45.2601
-43.6122
-41.8939
-40.309
-38.9356
-37.7887
-36.8565
-36.1186
-35.5545
-35.1466
-34.8819
-34.7517
-48.8177
-51.1525
-50.0973
-47.5994
-44.8513
-42.3604
-40.2718
-38.582
-37.24
-36.1887
-35.3787
-34.7713
-34.3382
-34.0597
-33.9234
-57.5424
-59.2682
-55.2146
-50.1887
-45.8333
-42.4242
-39.8356
-37.8804
-36.4004
-35.2794
-34.4359
-33.8138
-33.3752
-33.0952
-32.9587
-78.0862
-73.1639
-61.3043
-52.1074
-45.8688
-41.6672
-38.766
-36.7034
-35.2016
-34.0925
-33.2716
-32.6727
-32.2534
-31.9869
-31.8574
-21.1913
-21.2249
-21.2933
-21.3995
-21.5486
-21.749
-22.0147
-22.3694
-22.8558
-23.5556
-24.6381
-26.4822
-29.9845
-37.1455
-50.101
-20.2538
-20.2742
-20.3153
-20.3783
-20.4647
-20.5775
-20.722
-20.9079
-21.1545
-21.5044
-22.0631
-23.1367
-25.8093
-34.8319
-75.1596
-19.3023
-19.3091
-19.3224
-19.3408
-19.3624
-19.3841
-19.4008
-19.4043
-19.3815
-19.3081
-19.1306
-18.6808
-17.2245
-10.778
24.8154
-18.346
-18.3397
-18.3258
-18.3012
-18.2603
-18.1943
-18.0886
-17.9191
-17.6436
-17.1843
-16.387
-14.924
-12.1053
-6.96449
-3.53069
-17.3941
-17.3757
-17.3368
-17.2728
-17.1756
-17.032
-16.8209
-16.5076
-16.0334
-15.2953
-14.1057
-12.1086
-8.5987
-1.96488
13.5821
-16.455
-16.426
-16.3654
-16.2676
-16.1231
-15.9167
-15.6242
-15.2079
-14.6064
-13.72
-12.3851
-10.3438
-7.2615
-3.15433
-1.583
-15.536
-15.4982
-15.4198
-15.2949
-15.1138
-14.8611
-14.5137
-14.0367
-13.3774
-12.4563
-11.1552
-9.30194
-6.63605
-2.58214
5.55885
-14.6435
-14.5987
-14.5065
-14.3614
-14.1542
-13.8713
-13.4932
-12.9922
-12.3302
-11.4564
-10.3088
-8.82442
-6.97452
-4.84763
-2.8615
-13.782
-13.7321
-13.6301
-13.4709
-13.2471
-12.9477
-12.5581
-12.0596
-11.4301
-10.6468
-9.6962
-8.6008
-7.50538
-7.01482
-9.90256
-12.9552
-12.9019
-12.7933
-12.6255
-12.3926
-12.0868
-11.6986
-11.218
-10.6367
-9.95353
-9.18421
-8.37722
-7.61623
-6.83541
-4.11917
-12.1656
-12.1101
-11.9976
-11.8253
-11.5888
-11.2832
-10.9034
-10.4464
-9.91421
-9.32006
-8.69843
-8.12175
-7.74087
-7.99951
-11.2793
-11.4144
-11.3579
-11.2436
-11.0696
-10.833
-10.5311
-10.1619
-9.72708
-9.23474
-8.70572
-8.18146
-7.73035
-7.42146
-7.06505
-4.31076
-10.7027
-10.6458
-10.5312
-10.3575
-10.1227
-9.82561
-9.46608
-9.04769
-8.5808
-8.08809
-7.61375
-7.24022
-7.13507
-7.79528
-11.8358
-10.0304
-9.97377
-9.85989
-9.68766
-9.45583
-9.16352
-8.81116
-8.40203
-7.94481
-7.45776
-6.97605
-6.56375
-6.31722
-6.17755
-3.89213
-9.39753
-9.34157
-9.22913
-9.0593
-8.83097
-8.54317
-8.19568
-7.7898
-7.32958
-6.82376
-6.29018
-5.77222
-5.42518
-6.04944
-12.636
-8.80356
-8.74862
-8.63827
-8.47161
-8.24743
-7.96432
-7.6208
-7.21535
-6.74605
-6.20906
-5.59351
-4.86203
-3.85868
-1.78035
6.239
-8.24778
-8.19419
-8.08654
-7.92389
-7.70485
-7.42745
-7.08895
-6.68528
-6.20956
-5.64894
-4.97737
-4.14068
-3.03872
-1.63653
-1.50988
-7.72925
-7.67733
-7.57303
-7.41539
-7.20283
-6.93303
-6.60241
-6.20527
-5.73206
-5.16591
-4.47593
-3.60357
-2.42729
-0.606484
3.51245
-7.2468
-7.19689
-7.09661
-6.94504
-6.74061
-6.48089
-6.16208
-5.77812
-5.31915
-4.7689
-4.10118
-3.27756
-2.26346
-1.17196
-1.2881
-6.79905
-6.75145
-6.65585
-6.51143
-6.31681
-6.06981
-5.76703
-5.40311
-4.96964
-4.4535
-3.83471
-3.08386
-2.1534
-0.898408
1.62585
-6.3844
-6.33937
-6.24901
-6.11271
-5.92942
-5.69751
-5.41445
-5.07641
-4.67759
-4.20942
-3.65998
-3.01493
-2.26874
-1.50591
-1.50236
-6.00105
-5.95879
-5.87411
-5.74665
-5.57583
-5.36075
-5.1001
-4.79197
-4.43372
-4.02181
-3.55166
-3.01627
-2.39565
-1.58576
0.0630776
-5.64707
-5.60771
-5.52895
-5.41074
-5.253
-5.05567
-4.81873
-4.54235
-4.22713
-3.87468
-3.48868
-3.07682
-2.65402
-2.24786
-1.91762
-5.32046
-5.28401
-5.21121
-5.1023
-4.9577
-4.77813
-4.56479
-4.31973
-4.04643
-3.75087
-3.44367
-3.14501
-2.90087
-2.85687
-3.66898
-5.01919
-4.98558
-4.91858
-4.81867
-4.68671
-4.52405
-4.3329
-4.11676
-3.88122
-3.63518
-3.39277
-3.17536
-3.00875
-2.87101
-2.2566
-4.74128
-4.71036
-4.64882
-4.55734
-4.43705
-4.28979
-4.11839
-3.92729
-3.72331
-3.51701
-3.32451
-3.17048
-3.0966
-3.21584
-4.14524
-4.48487
-4.45643
-4.39989
-4.31604
-4.20616
-4.07231
-3.9176
-3.74678
-3.56705
-3.38927
-3.22957
-3.10998
-3.05036
-2.99773
-2.3149
-4.24824
-4.22202
-4.16995
-4.09282
-3.99194
-3.86933
-3.72802
-3.57249
-3.40945
-3.24902
-3.10678
-3.00786
-2.99929
-3.21692
-4.37478
-4.02985
-4.0056
-3.95744
-3.88612
-3.79283
-3.67937
-3.54833
-3.40343
-3.25006
-3.09615
-2.95395
-2.84302
-2.79116
-2.78287
-2.19264
-3.82831
-3.80579
-3.76104
-3.6947
-3.60776
-3.50164
-3.37828
-3.24028
-3.09106
-2.93518
-2.77943
-2.63717
-2.5528
-2.75264
-4.64673
-3.64244
-3.62143
-3.57966
-3.5176
-3.43602
-3.3359
-3.21843
-3.08496
-2.93669
-2.77415
-2.59556
-2.39115
-2.11711
-1.54555
0.70573
-3.47118
-3.45152
-3.41237
-3.35409
-3.27718
-3.18221
-3.06972
-2.93992
-2.79225
-2.6243
-2.42963
-2.19352
-1.88803
-1.5047
-1.5003
-3.3136
-3.29515
-3.25839
-3.20354
-3.1309
-3.04072
-2.93303
-2.80731
-2.66193
-2.49301
-2.29249
-2.04408
-1.71304
-1.20045
-0.0229153
-3.16884
-3.15152
-3.11698
-3.06536
-2.99682
-2.9114
-2.80888
-2.68839
-2.54796
-2.38368
-2.18861
-1.95205
-1.66414
-1.35778
-1.40815
-3.03612
-3.01987
-2.98744
-2.93894
-2.87447
-2.79399
-2.69721
-2.58332
-2.45057
-2.29576
-2.11357
-1.89568
-1.62806
-1.26719
-0.531937
-2.9147
-2.89947
-2.86909
-2.82364
-2.76324
-2.6879
-2.59746
-2.49137
-2.36851
-2.22687
-2.06333
-1.87387
-1.65675
-1.43642
-1.44153
-2.80386
-2.78962
-2.7612
-2.71874
-2.6624
-2.59232
-2.50857
-2.41108
-2.2995
-2.1732
-2.03111
-1.87128
-1.68767
-1.44891
-0.960815
-2.70294
-2.68962
-2.66308
-2.6235
-2.57111
-2.50624
-2.42925
-2.34057
-2.24074
-2.13051
-2.01121
-1.88521
-1.75692
-1.63438
-1.535
-2.61127
-2.59882
-2.57404
-2.53715
-2.4885
-2.42859
-2.35807
-2.27783
-2.18919
-2.09414
-1.99597
-1.90075
-1.82217
-1.80363
-2.04016
-2.52825
-2.51659
-2.49341
-2.45897
-2.41373
-2.35832
-2.29363
-2.22094
-2.14212
-2.05995
-1.9787
-1.90474
-1.84575
-1.79559
-1.60578
-2.45334
-2.44238
-2.4206
-2.38832
-2.34604
-2.2945
-2.23476
-2.16832
-2.09737
-2.02513
-1.95638
-1.89833
-1.86321
-1.88441
-2.14339
-2.38606
-2.37568
-2.35509
-2.32461
-2.28478
-2.23639
-2.18054
-2.11883
-2.05353
-1.9879
-1.92664
-1.87602
-1.84157
-1.80795
-1.59219
-2.32599
-2.31609
-2.29645
-2.2674
-2.22948
-2.18345
-2.13041
-2.07186
-2.00992
-1.94765
-1.88952
-1.84248
-1.81938
-1.85787
-2.15984
-2.2728
-2.26327
-2.24435
-2.21636
-2.17981
-2.1354
-2.0841
-2.02723
-1.96656
-1.90454
-1.8447
-1.79233
-1.7544
-1.72472
-1.52811
-2.22625
-2.21697
-2.19855
-2.17128
-2.13561
-2.09214
-2.04168
-1.98525
-1.92413
-1.85992
-1.7947
-1.73217
-1.68371
-1.70742
-2.16893
-2.18614
-2.17702
-2.1589
-2.13205
-2.09682
-2.05373
-2.0034
-1.94653
-1.88387
-1.81599
-1.74284
-1.66224
-1.56291
-1.386
-0.777354
-2.15236
-2.14332
-2.12533
-2.09862
-2.0635
-2.02036
-1.96966
-1.91184
-1.84723
-1.77571
-1.69618
-1.6053
-1.49599
-1.36439
-1.316
-2.12487
-2.11583
-2.09782
-2.07104
-2.03574
-1.99223
-1.94086
-1.88188
-1.81539
-1.741
-1.65738
-1.56117
-1.44455
-1.28496
-0.9758
-2.10367
-2.09456
-2.07641
-2.04938
-2.01368
-1.96958
-1.91733
-1.85713
-1.78903
-1.71271
-1.62732
-1.53123
-1.42293
-1.30942
-1.26614
-2.0888
-2.07956
-2.06116
-2.03373
-1.99747
-1.95259
-1.89932
-1.83788
-1.76837
-1.69073
-1.6047
-1.50976
-1.40492
-1.28513
-1.10673
-2.08034
-2.07093
-2.05218
-2.02422
-1.98723
-1.94141
-1.887
-1.82424
-1.75334
-1.67457
-1.58825
-1.49515
-1.39728
-1.30159
-1.24311
-2.0784
-2.06878
-2.0496
-2.02099
-1.98311
-1.93619
-1.88047
-1.81623
-1.74379
-1.66363
-1.57652
-1.48386
-1.38812
-1.29223
-1.1895
-2.08315
-2.07327
-2.05357
-2.02418
-1.98528
-1.93709
-1.87986
-1.81391
-1.73961
-1.65753
-1.56863
-1.4747
-1.37904
-1.2877
-1.21392
-2.09476
-2.08457
-2.06427
-2.03398
-1.99389
-1.94425
-1.88531
-1.81738
-1.74082
-1.65614
-1.56423
-1.46674
-1.36697
-1.27103
-1.18711
-2.11343
-2.10289
-2.08189
-2.05057
-2.00914
-1.95786
-1.89699
-1.82683
-1.74766
-1.65979
-1.56369
-1.46035
-1.35224
-1.24607
-1.16687
-2.13942
-2.12848
-2.10667
-2.07418
-2.03123
-1.97811
-1.91512
-1.84254
-1.76054
-1.66914
-1.56816
-1.45728
-1.33615
-1.20244
-1.02681
-2.173
-2.16159
-2.13887
-2.10504
-2.06038
-2.00521
-1.93991
-1.86478
-1.77993
-1.68514
-1.57951
-1.46132
-1.3288
-1.188
-1.10696
-2.2145
-2.20255
-2.17878
-2.14342
-2.0968
-2.03935
-1.97153
-1.89375
-1.80623
-1.70865
-1.59958
-1.4753
-1.32719
-1.13217
-0.78865
-2.26428
-2.25172
-2.22674
-2.18961
-2.14074
-2.08068
-2.01004
-1.92948
-1.8395
-1.74014
-1.63021
-1.50582
-1.35814
-1.17958
-1.07398
-2.32278
-2.30951
-2.28311
-2.24393
-2.19245
-2.12934
-2.05544
-1.97174
-1.87928
-1.77895
-1.67086
-1.55249
-1.41053
-1.17642
-0.443803
-2.39049
-2.37639
-2.34836
-2.30679
-2.25222
-2.18548
-2.10763
-2.02007
-1.92452
-1.82313
-1.71865
-1.61554
-1.5269
-1.51958
-2.01858
-2.46798
-2.45293
-2.42302
-2.37865
-2.32044
-2.24932
-2.16657
-2.07393
-1.9738
-1.86945
-1.76548
-1.66853
-1.58679
-1.5113
-1.22617
-2.55591
-2.53978
-2.50771
-2.4601
-2.39761
-2.32123
-2.23235
-2.13299
-2.02599
-1.91548
-1.80742
-1.71094
-1.64231
-1.64876
-1.98562
-2.65503
-2.63768
-2.60317
-2.55187
-2.48443
-2.4018
-2.30541
-2.19733
-2.08062
-1.95978
-1.84132
-1.73399
-1.64569
-1.55695
-1.22913
-2.76619
-2.7475
-2.71027
-2.65484
-2.58177
-2.49192
-2.38657
-2.26765
-2.1381
-2.00242
-1.86747
-1.74381
-1.64935
-1.63137
-1.93907
-2.89032
-2.87017
-2.82999
-2.77005
-2.69076
-2.59279
-2.47713
-2.34533
-2.19983
-2.04453
-1.88575
-1.73333
-1.59989
-1.47982
-1.1686
-3.02842
-3.00673
-2.96343
-2.89867
-2.81271
-2.70593
-2.57889
-2.43251
-2.26833
-2.08905
-1.8996
-1.70965
-1.54114
-1.46121
-1.76079
-3.18157
-3.15829
-3.11175
-3.04201
-2.94911
-2.83311
-2.69406
-2.53205
-2.34731
-2.14061
-1.91379
-1.67106
-1.42085
-1.17926
-0.982238
-3.35088
-3.32598
-3.27617
-3.2014
-3.10153
-2.97629
-2.82517
-2.64733
-2.44154
-2.20611
-1.93902
-1.63763
-1.29456
-0.866594
-0.0668642
-3.53745
-3.51095
-3.45792
-3.37821
-3.27156
-3.13742
-2.97481
-2.78202
-2.55632
-2.29357
-1.98804
-1.63314
-1.22721
-0.81231
-0.755974
-3.74241
-3.71434
-3.65816
-3.57371
-3.46066
-3.31831
-3.14539
-2.93955
-2.69682
-2.41073
-2.07133
-1.66407
-1.16608
-0.509247
0.753883
-3.96684
-3.93724
-3.87802
-3.78906
-3.67007
-3.52043
-3.33881
-3.12268
-2.86741
-2.5649
-2.20172
-1.75797
-1.21523
-0.627452
-0.623396
-4.21181
-4.1807
-4.11851
-4.02523
-3.90076
-3.74473
-3.55617
-3.33296
-3.07078
-2.76118
-2.38805
-1.92061
-1.29565
-0.340525
1.76644
-4.47835
-4.44573
-4.38057
-4.28305
-4.15336
-3.9916
-3.79757
-3.5703
-3.30707
-3.00156
-2.63987
-2.1926
-1.60534
-0.853723
-0.723517
-4.76753
-4.73333
-4.66509
-4.56319
-4.4282
-4.26085
-4.06204
-3.83258
-3.5727
-3.28094
-2.95109
-2.56179
-2.02914
-0.93563
3.21991
-5.08045
-5.04454
-4.97297
-4.8663
-4.72548
-4.55194
-4.34779
-4.11596
-3.86045
-3.58676
-3.30357
-3.0305
-2.84241
-3.14419
-6.4999
-5.41828
-5.38049
-5.3052
-5.19311
-5.04546
-4.86427
-4.65274
-4.41577
-4.1608
-3.89917
-3.64899
-3.4402
-3.31547
-3.2322
-2.00106
-5.78234
-5.74245
-5.66297
-5.5446
-5.3887
-5.19764
-4.97533
-4.72808
-4.46574
-4.20362
-3.96566
-3.79149
-3.75973
-4.1176
-6.22818
-6.17408
-6.13189
-6.04771
-5.92213
-5.75635
-5.55269
-5.31522
-5.05083
-4.77052
-4.49127
-4.23801
-4.04387
-3.9334
-3.78607
-2.34008
-6.59511
-6.55045
-6.46118
-6.32755
-6.15029
-5.93118
-5.6738
-5.38462
-5.07456
-4.76084
-4.46931
-4.23811
-4.13265
-4.35662
-6.1365
-7.04712
-6.99997
-6.90544
-6.76324
-6.57327
-6.33624
-6.05443
-5.73289
-5.38111
-5.01498
-4.65868
-4.34502
-4.10311
-3.84694
-2.48032
-7.53185
-7.48236
-7.38279
-7.23206
-7.02892
-6.77239
-6.46262
-6.10213
-5.69762
-5.26226
-4.81843
-4.40207
-4.08346
-4.1087
-5.8114
-8.05093
-7.99952
-7.89564
-7.73727
-7.52161
-7.24548
-6.90601
-6.50193
-6.03552
-5.51541
-4.95909
-4.3912
-3.825
-3.20588
-2.38858
-8.60568
-8.55307
-8.4463
-8.28223
-8.05628
-7.76252
-7.39425
-6.94498
-6.4107
-5.79367
-5.10777
-4.37914
-3.60328
-2.44105
1.60185
-9.19694
-9.14422
-9.03671
-8.87015
-8.638
-8.3313
-7.9387
-7.44705
-6.84331
-6.11973
-5.2861
-4.39987
-3.6499
-3.67704
-7.25906
-9.82478
-9.7734
-9.6681
-9.50358
-9.27147
-8.9597
-8.55191
-8.02692
-7.35913
-6.52216
-5.50096
-4.32597
-3.15688
-2.44431
-2.9488
-10.4883
-10.44
-10.3406
-10.1839
-9.96022
-9.65476
-9.2465
-8.70591
-7.99241
-7.05251
-5.82261
-4.248
-2.34694
-0.366349
1.0109
-11.1852
-11.1421
-11.0527
-10.9108
-10.7057
-10.4212
-10.033
-9.50495
-8.78286
-7.78423
-6.38364
-4.39676
-1.59234
2.13065
5.92678
-11.9122
-11.8762
-11.8014
-11.6816
-11.5063
-11.2595
-10.9165
-10.4387
-9.76531
-8.79504
-7.35182
-5.11328
-1.47572
4.57689
13.4786
-12.664
-12.6373
-12.5813
-12.4908
-12.3566
-12.1648
-11.8934
-11.5084
-10.9538
-10.1343
-8.87233
-6.80137
-3.03633
5.04461
27.212
-153.633
-92.2611
-64.4461
-51.1542
-44.0342
-39.781
-37.0168
-35.1101
-33.7427
-32.7402
-32.0007
-31.462
-31.085
-30.8454
-30.7289
-191.261
-86.3184
-57.2171
-46.0017
-40.3755
-37.0322
-34.8308
-33.2872
-32.163
-31.3281
-30.7058
-30.2489
-29.9273
-29.7221
-29.6221
49.657
-27.7077
-37.5676
-36.9678
-35.1314
-33.4903
-32.1879
-31.1728
-30.3823
-29.7682
-29.2961
-28.9418
-28.6887
-28.5256
-28.4457
-7.12342
-15.9767
-25.1818
-28.7925
-29.7515
-29.713
-29.3453
-28.9023
-28.4791
-28.1097
-27.8044
-27.5643
-27.3875
-27.2713
-27.2138
27.4778
-4.00271
-16.6809
-22.4588
-25.0643
-26.1643
-26.5549
-26.618
-26.5385
-26.4067
-26.2674
-26.1429
-26.0441
-25.9763
-25.9419
-1.29277
-5.08683
-12.9718
-18.3279
-21.4224
-23.1082
-23.9918
-24.4327
-24.634
-24.7087
-24.7201
-24.7035
-24.679
-24.6579
-24.646
12.233
-3.33091
-11.019
-15.7676
-18.7586
-20.6093
-21.7359
-22.4138
-22.8174
-23.0548
-23.192
-23.2695
-23.3116
-23.333
-23.3419
-3.09451
-7.04508
-11.1073
-14.4279
-16.8865
-18.613
-19.7917
-20.5852
-21.1161
-21.4703
-21.7055
-21.8599
-21.9585
-22.0167
-22.0438
-15.6787
-10.6824
-11.7107
-13.6868
-15.5228
-16.9972
-18.1148
-18.9389