/*--------------------------------*- C++ -*----------------------------------*\
| =========                 |                                                 |
| \\      /  F ield         | OpenFOAM: The Open Source CFD Toolbox           |
|  \\    /   O peration     | Version:  5.x                                   |
|   \\  /    A nd           | Web:      www.OpenFOAM.org                      |
|    \\/     M anipulation  |                                                 |
\*---------------------------------------------------------------------------*/
FoamFile
{
    version     2.0;
    format      ascii;
    class       volScalarField;
    location    "3.2";
    object      gradTy;
}
// * * * * * * * * * * * * * * * * * * * * * * * * * * * * * * * * * * * * * //

dimensions      [0 -1 0 1 0 0 0];

internalField   nonuniform List<scalar> 
6300
(
32285
32255
32224.8
32194.5
32163.9
32133.1
32101.8
32070.2
32038
32005.4
31972.2
31938.5
31904.1
31869.2
31833.6
0.0522191
0.15617
0.258635
0.358521
0.454583
0.545382
0.629272
0.704412
0.768837
0.82057
0.857807
0.879156
0.883912
0.872321
0.845766
0.087555
0.261895
0.433872
0.60172
0.763407
0.916555
1.0584
1.1858
1.29535
1.38355
1.44713
1.48347
1.4911
1.47023
1.42315
0.123663
0.369993
0.613248
0.851096
1.08079
1.29906
1.50199
1.68507
1.84324
1.97118
2.06374
2.11655
2.12685
2.09441
2.02232
0.160768
0.481167
0.798035
1.10863
1.40961
1.6969
1.96545
2.20925
2.42136
2.59422
2.72011
2.79214
2.80535
2.75825
2.65436
0.19901
0.595872
0.989102
1.37576
1.75214
2.11347
2.45366
2.76512
3.03876
3.26421
3.43037
3.52655
3.54415
3.4789
3.33367
0.238412
0.71421
1.18674
1.65318
2.10973
2.55119
2.9706
3.35881
3.70437
3.99349
4.2106
4.33957
4.36579
4.27955
4.08053
0.27884
0.835819
1.39047
1.94049
2.4824
3.01099
3.51873
3.99518
4.42642
4.79478
5.079
5.25534
5.29991
5.19297
4.92574
0.319969
0.959754
1.59884
2.23593
2.8684
3.49163
4.09816
4.67676
5.21138
5.68022
6.0553
6.30288
6.38555
6.26671
5.91897
0.361252
1.08439
1.80921
2.53598
3.26365
3.98898
4.70555
5.40234
6.06211
6.65944
7.15912
7.51535
7.67269
7.56934
7.1432
0.4019
1.20736
2.01762
2.83515
3.66124
4.4951
5.33271
6.16497
6.97529
7.73631
8.4064
8.92672
9.22054
9.1948
8.73701
0.440885
1.32554
2.21875
3.12578
4.05106
4.99749
5.96522
6.94957
7.93778
8.90414
9.80347
10.5646
11.088
11.2524
10.9127
0.476982
1.43518
2.40608
3.39815
4.41973
5.47861
6.58113
7.73031
8.92214
10.139
11.3388
12.4402
13.3145
13.814
13.8857
0.508849
1.53211
2.57224
3.64104
4.75112
5.9161
7.15041
8.4684
9.88149
11.391
12.9724
14.5432
15.9157
16.8039
17.3131
0.535154
1.61218
2.70973
3.84264
5.02763
6.28426
7.63601
9.11142
10.7444
12.5712
14.6167
16.8444
19.0014
20.1727
17.8093
31800.6
31770.1
31739.3
31708.1
31676.7
31644.9
31612.9
31580.6
31548
31515.3
31482.3
31449.2
31415.9
31382.5
31349
31315.4
31281.7
31248
31214.2
31180.4
31146.6
31112.8
31079
31045.2
31011.4
30977.6
30943.7
30909.9
30876.1
30842.3
30808.5
30774.8
30741.1
30707.4
30673.8
30640.2
30606.7
30573.2
30539.7
30506.3
30472.9
30439.5
30406.2
30372.9
30339.6
30306.4
30273.2
30240
30206.9
30173.9
30141
30108
30075.2
30042.4
30009.6
29976.9
29944.2
29911.5
29878.9
29846.3
29813.8
29781.3
29748.9
29716.6
29684.3
29652.1
29620
29587.9
29555.9
29523.9
29492
29460.2
29428.3
29396.5
29364.8
29333.1
29301.5
29269.9
29238.4
29206.9
29175.4
29144
29112.6
29081.1
29049.7
29018.1
28986.5
28954.8
28923
28891.2
0.810023
0.771071
0.727862
0.682537
0.636887
0.592119
0.548726
0.506508
0.464742
0.422453
0.378748
0.333123
0.285692
0.237279
0.189356
0.143838
0.10276
0.0679221
0.0405524
0.0210754
0.00901355
0.00304373
0.00119394
0.00114596
0.000593809
-0.00239914
-0.00910198
-0.019926
-0.0343765
-0.051159
-0.0684262
-0.0841229
-0.0963672
-0.103796
-0.105808
-0.102677
-0.0954966
-0.086001
-0.0762705
-0.0683844
-0.0640739
-0.0644309
-0.0697223
-0.0793427
-0.0919177
-0.105545
-0.11813
-0.127762
-0.133045
-0.133342
-0.128876
-0.120683
-0.110431
-0.10013
-0.0917947
-0.0870982
-0.0870914
-0.0920181
-0.101268
-0.113479
-0.126769
-0.139069
-0.148483
-0.153617
-0.153812
-0.149242
-0.140865
-0.130239
-0.119242
-0.109725
-0.10318
-0.10045
-0.101544
-0.105587
-0.110915
-0.115308
-0.116319
-0.111658
-0.0995502
-0.0790283
-0.0501111
-0.0138629
0.027671
0.0716367
0.114634
0.15305
0.183434
0.202888
0.209417
0.202192
1.36006
1.29161
1.21618
1.13777
1.05975
0.984324
0.912292
0.843053
0.774961
0.705871
0.633802
0.557557
0.477175
0.394128
0.311202
0.232089
0.160758
0.100729
0.0544263
0.0227107
0.00469696
-0.00213248
-0.00154478
0.00202678
0.00417181
0.00118891
-0.00933902
-0.0281737
-0.0543218
-0.0852342
-0.117284
-0.14644
-0.16902
-0.18236
-0.185291
-0.178339
-0.163625
-0.144501
-0.124986
-0.109098
-0.100183
-0.100358
-0.11014
-0.128358
-0.152338
-0.178374
-0.202386
-0.220653
-0.230469
-0.230608
-0.221516
-0.205212
-0.184928
-0.164559
-0.148002
-0.138501
-0.138097
-0.147269
-0.164842
-0.188172
-0.213599
-0.237099
-0.254993
-0.264587
-0.264626
-0.255477
-0.239028
-0.21833
-0.197047
-0.178807
-0.16655
-0.161973
-0.165175
-0.174544
-0.186939
-0.198129
-0.203436
-0.19847
-0.17981
-0.145555
-0.0956438
-0.0319531
0.0418343
0.120543
0.197978
0.267514
0.322784
0.358397
0.370618
0.357888
1.92613
1.8223
1.70884
1.59251
1.47894
1.37173
1.27192
1.17804
1.08671
0.993673
0.894968
0.788048
0.6726
0.550908
0.427665
0.309249
0.202592
0.113888
0.0474148
0.00473767
-0.0156
-0.0178619
-0.00845027
0.00509426
0.0152689
0.0157789
0.00252499
-0.0257489
-0.0672631
-0.117527
-0.17016
-0.218079
-0.254829
-0.275761
-0.278853
-0.265025
-0.237949
-0.203407
-0.168322
-0.139611
-0.123046
-0.122288
-0.138252
-0.168916
-0.209637
-0.253956
-0.294754
-0.325552
-0.341667
-0.341008
-0.324383
-0.295311
-0.25939
-0.223342
-0.193893
-0.17665
-0.175157
-0.190271
-0.219977
-0.259693
-0.303056
-0.343058
-0.37331
-0.389172
-0.38853
-0.372087
-0.343176
-0.307129
-0.270338
-0.239146
-0.218733
-0.212171
-0.219802
-0.239024
-0.264581
-0.289305
-0.305238
-0.304891
-0.282421
-0.23452
-0.160918
-0.0644837
0.0490064
0.171379
0.292786
0.40261
0.490524
0.54767
0.567827
0.548358
2.51581
2.36685
2.20566
2.04329
1.88899
1.74849
1.62302
1.50935
1.40092
1.28964
1.16797
1.03082
0.877018
0.709923
0.537177
0.369473
0.218575
0.0950304
0.00613399
-0.0454076
-0.0619302
-0.0504052
-0.0213117
0.0130097
0.0402779
0.0501838
0.0360123
-0.00426375
-0.0676111
-0.146415
-0.229829
-0.30581
-0.363423
-0.394861
-0.396787
-0.370795
-0.323032
-0.263105
-0.202487
-0.152642
-0.123156
-0.12015
-0.145205
-0.194999
-0.261766
-0.334618
-0.401532
-0.451606
-0.477032
-0.474408
-0.445184
-0.395286
-0.334046
-0.272634
-0.222217
-0.192129
-0.188313
-0.212273
-0.260708
-0.325972
-0.397363
-0.463066
-0.512356
-0.537534
-0.535194
-0.50666
-0.457606
-0.397005
-0.335576
-0.283972
-0.250974
-0.241938
-0.257741
-0.294389
-0.343423
-0.393144
-0.430484
-0.443168
-0.421649
-0.360495
-0.259067
-0.121569
0.0433946
0.223611
0.404282
0.569266
0.70258
0.790217
0.822111
0.793872
3.13861
2.929
2.7042
2.48244
2.27916
2.10363
1.95712
1.8331
1.71923
1.60058
1.46325
1.29758
1.10057
0.877068
0.639422
0.405487
0.19516
0.0262687
-0.0889491
-0.145992
-0.148662
-0.108261
-0.0417151
0.0310676
0.0902739
0.119245
0.107075
0.050428
-0.0457184
-0.168681
-0.300219
-0.420012
-0.509726
-0.556477
-0.554943
-0.507939
-0.425651
-0.323818
-0.221161
-0.136379
-0.0851575
-0.0776236
-0.116558
-0.196664
-0.305156
-0.423853
-0.532585
-0.613174
-0.652812
-0.646136
-0.595779
-0.511615
-0.408974
-0.306117
-0.221292
-0.169799
-0.161496
-0.199052
-0.277227
-0.383452
-0.499883
-0.606729
-0.686145
-0.725542
-0.719599
-0.670799
-0.588684
-0.488093
-0.386681
-0.302024
-0.248727
-0.235954
-0.265679
-0.331931
-0.421289
-0.514818
-0.591245
-0.630702
-0.617956
-0.544464
-0.409155
-0.218205
0.0158227
0.275195
0.538376
0.781532
0.980422
1.11304
1.163
1.12278
3.80794
3.51301
3.19839
2.89498
2.62936
2.41697
2.25886
2.14225
2.04441
1.93842
1.79933
1.60945
1.36227
1.06457
0.736313
0.407495
0.112066
-0.119796
-0.267818
-0.32489
-0.297431
-0.203781
-0.0711168
0.0686578
0.183791
0.247532
0.242164
0.16198
0.0147698
-0.178622
-0.387544
-0.577549
-0.717921
-0.787647
-0.778601
-0.695915
-0.55644
-0.385745
-0.214121
-0.0718139
0.0157243
0.0317898
-0.0286493
-0.157482
-0.333879
-0.527463
-0.704194
-0.833739
-0.895313
-0.880795
-0.795084
-0.65458
-0.484242
-0.313664
-0.172398
-0.0853037
-0.0686731
-0.127367
-0.253382
-0.426265
-0.616231
-0.789916
-0.917589
-0.978865
-0.965741
-0.882936
-0.746392
-0.580387
-0.413682
-0.274939
-0.188144
-0.168791
-0.221034
-0.336213
-0.493164
-0.661132
-0.805248
-0.893414
-0.901739
-0.817453
-0.639362
-0.376871
-0.0482407
0.321299
0.701307
1.05755
1.35369
1.55492
1.63374
1.57663
4.54511
4.12537
3.67643
3.25313
2.90289
2.65218
2.50082
2.42437
2.38134
2.32391
2.20853
2.00383
1.69672
1.29608
0.833998
0.361407
-0.0625783
-0.386608
-0.577673
-0.625533
-0.541536
-0.355502
-0.110779
0.14171
0.351291
0.475312
0.484965
0.370026
0.141734
-0.166223
-0.502136
-0.806585
-1.02788
-1.13228
-1.10833
-0.965702
-0.732215
-0.44904
-0.164898
0.0715858
0.219494
0.251337
0.157714
-0.0498429
-0.337885
-0.655375
-0.943785
-1.15222
-1.24742
-1.21801
-1.07333
-0.840542
-0.559894
-0.279037
-0.0455314
0.100623
0.132582
0.0412237
-0.16208
-0.444512
-0.756057
-1.03939
-1.24468
-1.33935
-1.31225
-1.17249
-0.946551
-0.673715
-0.400447
-0.173074
-0.0304694
0.00144667
-0.0857838
-0.280364
-0.549188
-0.841804
-1.09983
-1.2711
-1.31888
-1.22552
-0.991102
-0.630778
-0.171214
0.352324
0.898452
1.42009
1.86363
2.17303
2.30021
2.21893
5.38845
4.77976
4.11753
3.50608
3.03307
2.74432
2.63492
2.65834
2.739
2.79287
2.74636
2.54564
2.16587
1.61603
0.946801
0.245311
-0.381181
-0.84491
-1.09377
-1.11608
-0.9326
-0.591763
-0.161653
0.276522
0.641967
0.867754
0.90715
0.74127
0.383385
-0.113602
-0.662071
-1.15541
-1.50619
-1.66178
-1.609
-1.36636
-0.979585
-0.513772
-0.0470869
0.342491
0.590357
0.651512
0.508097
0.173652
-0.299529
-0.825205
-1.29859
-1.63379
-1.77903
-1.72125
-1.47849
-1.09547
-0.635892
-0.176271
0.207073
0.450944
0.511367
0.37097
0.043122
-0.420879
-0.936549
-1.4013
-1.73108
-1.87524
-1.82105
-1.58616
-1.21428
-0.767703
-0.321159
0.0508205
0.286563
0.343223
0.204021
-0.117631
-0.570974
-1.0723
-1.51935
-1.82662
-1.93929
-1.83671
-1.52415
-1.0276
-0.386329
0.350793
1.13083
1.89501
2.56666
3.05346
3.26675
3.15144
6.4138
5.51125
4.48552
3.55964
2.89788
2.57815
2.57774
2.80989
3.13525
3.40635
3.50624
3.34529
2.8799
2.10791
1.10603
0.0211954
-0.934188
-1.61266
-1.93612
-1.90299
-1.55029
-0.956612
-0.224179
0.516032
1.13372
1.52856
1.62489
1.38897
0.825303
0.0131107
-0.901441
-1.70955
-2.26561
-2.4914
-2.3831
-1.97465
-1.34081
-0.57981
0.181707
0.81741
1.23003
1.34622
1.13351
0.596874
-0.185631
-1.07038
-1.85246
-2.38894
-2.60304
-2.4909
-2.08571
-1.46069
-0.71201
0.0362759
0.660464
1.06537
1.17928
0.970588
0.444329
-0.322894
-1.19041
-1.95764
-2.48479
-2.69682
-2.59008
-2.19713
-1.58964
-0.861684
-0.134543
0.470853
0.86143
0.967001
0.756517
0.234708
-0.523691
-1.38098
-2.14018
-2.66237
-2.86964
-2.75028
-2.32217
-1.63283
-0.73951
0.287408
1.38595
2.50308
3.53576
4.32758
4.70631
4.54675
7.78401
6.42014
4.70974
3.23289
2.27018
1.95215
2.18565
2.82717
3.60964
4.26635
4.64171
4.58335
4.03541
2.9308
1.38471
-0.389362
-1.88598
-2.89165
-3.29202
-3.15013
-2.51505
-1.5213
-0.297947
0.931938
1.94632
2.61919
2.82105
2.50856
1.62506
0.287173
-1.29414
-2.62669
-3.50068
-3.80218
-3.58947
-2.90754
-1.88523
-0.646646
0.591613
1.6135
2.29652
2.51446
2.22533
1.37408
0.0754402
-1.46349
-2.76002
-3.6084
-3.89689
-3.68259
-3.00956
-2.00404
-0.787626
0.427456
1.42955
2.09877
2.31167
2.02744
1.19246
-0.0805504
-1.58875
-2.85975
-3.69235
-3.97749
-3.7713
-3.1171
-2.13852
-0.954542
0.227332
1.20017
1.84665
2.04585
1.75727
0.927696
-0.334046
-1.83091
-3.10231
-3.95163
-4.27037
-4.10844
-3.49638
-2.53185
-1.28513
0.120815
1.6142
3.23267
4.8516
6.19646
6.92091
6.7211
9.87073
7.82816
4.59776
2.16587
0.714189
0.53198
1.20599
2.64147
4.26512
5.53149
6.40174
6.52639
5.99251
4.38942
1.99166
-1.19946
-3.54478
-5.0423
-5.42879
-5.10752
-3.9963
-2.41668
-0.381145
1.65814
3.25066
4.38805
4.75786
4.45037
3.07911
0.911736
-2.0451
-4.2042
-5.5602
-5.85345
-5.47157
-4.33062
-2.74113
-0.713064
1.31305
2.89753
4.03269
4.41282
4.12658
2.79549
0.682476
-2.20568
-4.31298
-5.63417
-5.9148
-5.53492
-4.41224
-2.85115
-0.861371
1.12529
2.67792
3.78923
4.15986
3.8773
2.57131
0.50041
-2.32869
-4.3932
-5.68828
-5.96572
-5.59768
-4.50423
-2.98322
-1.04441
0.890172
2.3994
3.47593
3.82703
3.53705
2.24297
0.194163
-2.60554
-4.67223
-6.00491
-6.36327
-6.11477
-5.1782
-3.83723
-2.06007
-0.171719
1.66238
3.9617
6.56224
8.95898
10.4667
10.3203
13.5349
10.9468
3.33601
-0.31262
-2.66983
-2.12116
-0.870232
2.18478
5.43503
7.36702
9.23542
9.41769
9.48923
6.99234
3.74099
-3.22759
-6.4245
-8.79292
-8.58484
-8.20254
-6.15214
-3.96866
-0.469847
3.0276
5.21031
7.26212
7.66989
7.92393
5.67946
2.67303
-3.94491
-6.93828
-9.15022
-8.87702
-8.44686
-6.39974
-4.2287
-0.77679
2.67029
4.82844
6.85599
7.27062
7.53228
5.34273
2.4056
-4.07244
-6.99809
-9.15844
-8.884
-8.457
-6.44637
-4.31571
-0.930759
2.44799
4.56164
6.54612
6.9485
7.20076
5.05151
2.17303
-4.16974
-7.03475
-9.14974
-8.88354
-8.46877
-6.50713
-4.42968
-1.12828
2.1654
4.22159
6.14973
6.53125
6.7626
4.64495
1.80358
-4.43577
-7.29918
-9.46123
-9.33008
-9.11199
-7.4424
-5.77079
-2.99517
-0.386087
1.04083
4.25725
8.56666
13.002
16.3949
16.8848
20.4667
21.2979
-3.63124
-4.65076
-10.2383
-5.78557
-5.54435
1.44692
8.50325
9.29413
14.4971
12.4684
16.6845
10.6817
10.8431
-10.6869
-10.4973
-16.2537
-11.9919
-13.6997
-8.49969
-7.41478
-0.556634
6.29023
7.35843
12.5036
10.8032
14.9953
9.37698
9.63483
-11.0641
-10.7977
-16.3189
-12.1267
-13.7506
-8.6474
-7.56082
-0.833636
5.88354
6.94735
12.0018
10.3486
14.4676
8.96641
9.22758
-11.0547
-10.7853
-16.1889
-12.0729
-13.6596
-8.65343
-7.58651
-0.991301
5.59235
6.63128
11.5811
9.95325
13.9823
8.58168
8.83418
-11.0189
-10.7564
-16.0402
-12.0153
-13.5674
-8.67685
-7.6387
-1.20111
5.22257
6.22809
11.0506
9.45164
13.3706
8.08903
8.30603
-11.1274
-10.936
-16.2198
-12.4221
-14.1994
-9.70954
-9.29417
-3.69041
1.10204
-2.1572
2.97981
10.3907
18.5469
26.5042
30.9535
30.3307
68.745
-45.0264
-2.40899
-32.2627
-3.38305
-19.9361
0.617845
20.5962
4.87044
30.175
6.52958
38.5978
5.4977
49.1839
-49.4191
-6.00419
-38.1372
-6.79862
-29.1402
-4.91747
-19.1703
-0.623034
17.8783
3.63999
27.6068
5.4559
36.1982
4.61735
46.779
-48.3687
-6.31794
-37.47
-6.9961
-28.7364
-5.10595
-19.0102
-0.870883
17.2428
3.32494
26.812
5.11998
35.2614
4.29762
45.6375
-47.6261
-6.39786
-36.9222
-7.04467
-28.3504
-5.18255
-18.8126
-1.02981
16.7265
3.07455
26.0935
4.81726
34.348
3.97655
44.4525
-46.8294
-6.48637
-36.3301
-7.1116
-27.9387
-5.29439
-18.6183
-1.24931
16.0864
2.74264
25.2026
4.43053
33.2318
3.61919
43.1091
-46.0752
-6.68539
-36.0524
-7.48295
-28.3084
-6.10637
-20.2854
-3.21392
14.1882
-17.4463
-1.57252
11.1413
24.3777
41.6644
69.4804
28856
28817.5
28778.9
28740.2
28701.5
28662.9
28624.3
28585.8
28547.3
28509
28470.8
28432.7
28394.7
28356.8
28318.9
0.179621
0.138514
0.0858297
0.027575
-0.0301327
-0.0819033
-0.123611
-0.152612
-0.167706
-0.168931
-0.157292
-0.134488
-0.102671
-0.0642722
-0.0218722
0.317376
0.24347
0.14904
0.0451988
-0.0569329
-0.147775
-0.220207
-0.269866
-0.29497
-0.295887
-0.274594
-0.234183
-0.178442
-0.111562
-0.0379394
0.484904
0.369009
0.221714
0.0611618
-0.0949791
-0.232018
-0.339544
-0.411643
-0.446398
-0.445032
-0.410999
-0.349195
-0.265343
-0.165592
-0.0562626
0.699114
0.525959
0.307655
0.0727217
-0.15212
-0.345769
-0.494302
-0.590763
-0.633946
-0.62684
-0.575174
-0.486252
-0.368145
-0.229198
-0.0777817
0.98312
0.728072
0.410237
0.0742009
-0.240447
-0.50463
-0.701128
-0.823158
-0.871779
-0.853208
-0.776605
-0.652493
-0.491786
-0.305273
-0.103448
1.36982
0.992985
0.531036
0.0543072
-0.379222
-0.731166
-0.982414
-1.12896
-1.1768
-1.13761
-1.02554
-0.855329
-0.641232
-0.396658
-0.134185
1.90776
1.34301
0.666624
-0.0087699
-0.599564
-1.05838
-1.36839
-1.53344
-1.56885
-1.49487
-1.33262
-1.10205
-0.821153
-0.50594
-0.17082
2.67093
1.80462
0.801193
-0.156451
-0.951874
-1.53437
-1.89932
-2.06755
-2.0703
-1.9404
-1.70801
-1.39909
-1.03539
-0.63513
-0.213975
3.77604
2.40322
0.889872
-0.466422
-1.51714
-2.22789
-2.62694
-2.76711
-2.70436
-2.48842
-2.15994
-1.75091
-1.28617
-0.785217
-0.263924
5.41307
3.14219
0.821365
-1.08209
-2.42246
-3.23314
-3.61346
-3.66957
-3.49162
-3.14895
-2.6924
-2.15843
-1.57316
-0.955642
-0.320425
7.89419
3.93118
0.335496
-2.26089
-3.85757
-4.6688
-4.92419
-4.80608
-4.44357
-3.92336
-3.30227
-2.61725
-1.89239
-1.14376
-0.382561
11.6919
4.35296
-1.14957
-4.4393
-6.07817
-6.66034
-6.60844
-6.18698
-5.55321
-4.79863
-3.97607
-3.11588
-2.2354
-1.34444
-0.448616
17.1639
2.93858
-4.8474
-8.26846
-9.35541
-9.28597
-8.66225
-7.78021
-6.78364
-5.74186
-4.68748
-3.6348
-2.58887
-1.54999
-0.516076
21.8188
-4.91459
-12.9101
-14.4317
-13.789
-12.4659
-10.9744
-9.48794
-8.05929
-6.69769
-5.39718
-4.14698
-2.93529
-1.75057
-0.581771
0.553654
1.66847
2.80627
3.98405
5.2215
6.54274
7.97875
9.57097
11.3766
13.4763
15.981
19.0217
22.6281
25.9932
23.3516
0.564755
1.70213
2.86362
4.0672
5.33402
6.69055
8.17188
9.82726
11.73
13.9964
16.827
20.6055
26.1886
35.9174
57.8296
0.570398
1.71904
2.89174
4.10644
5.38426
6.75171
8.24417
9.91181
11.8307
14.1249
17.0148
20.9362
26.87
37.381
60.3109
0.570594
1.71924
2.89071
4.10186
5.37227
6.72609
8.19481
9.8219
11.6709
13.8396
16.4862
19.8694
24.3729
30.2205
34.9487
0.565615
1.70359
2.86213
4.05613
5.30237
6.62068
8.03548
9.57794
11.289
13.2226
15.4461
18.0248
20.9423
23.8373
25.5145
0.555954
1.67366
2.80894
3.97412
5.18242
6.44828
7.78752
9.21694
10.7526
12.4041
14.1595
15.9447
17.5275
18.2999
16.7868
0.542268
1.63153
2.735
3.86218
5.02251
6.22495
7.47694
8.78219
10.1357
11.5137
12.8521
14.0053
14.6753
14.3497
12.6434
0.525301
1.57954
2.64458
3.72722
4.83337
5.96721
7.12941
8.31392
9.50192
10.6507
11.6733
12.4015
12.5146
11.3583
7.1954
0.50581
1.52005
2.54196
3.57593
4.62501
5.68978
6.76639
7.84325
8.89541
9.87538
10.6989
11.2248
11.2355
10.4548
8.85018
0.4845
1.45524
2.43097
3.41416
4.40577
5.40414
6.40322
7.38974
8.33903
9.20877
9.93115
10.4061
10.506
10.1235
9.32438
0.461982
1.38697
2.3148
3.24654
4.18184
5.11803
6.04876
6.96211
7.83791
8.64449
9.33528
9.84779
10.1115
10.0815
9.83597
0.438753
1.31673
2.19592
3.07645
3.95731
4.83572
5.7064
6.56055
7.38488
8.16065
8.86324
9.46227
9.92108
10.1892
10.1662
0.415196
1.24565
2.07613
2.90615
3.73447
4.5588
5.37552
6.17972
6.96558
7.72764
8.46312
9.17413
9.86303
10.4992
10.928
0.3916
1.17455
1.95665
2.73703
3.51443
4.28716
5.05335
5.81164
6.56281
7.3131
8.08002
8.90137
9.84161
10.9532
11.9366
0.368179
1.10404
1.83836
2.56999
3.29763
4.02007
4.73667
5.4485
6.16069
6.88702
7.65913
8.54607
9.7012
11.4963
14.9778
0.345104
1.0346
1.72196
2.40572
3.08445
3.75705
4.42332
5.08513
5.74875
6.42915
7.15853
8.00453
9.11638
10.8683
14.4119
0.322521
0.966656
1.60807
2.24493
2.87553
3.49845
4.11307
4.72052
5.32517
5.9373
6.57694
7.27839
8.08709
8.99606
9.49573
0.300568
0.900603
1.49733
2.08851
2.67196
3.2456
3.80782
4.35785
4.89641
5.42635
5.95246
6.47778
6.9882
7.40809
7.54568
0.279379
0.836852
1.39044
1.93748
2.47519
3.0007
3.51105
4.00316
4.47365
4.91806
5.32854
5.68753
5.95219
6.01619
5.60188
0.259084
0.775799
1.28811
1.79292
2.2869
2.76634
3.22696
3.66349
4.06901
4.43337
4.74038
4.96281
5.05554
4.95647
4.6548
0.239799
0.717808
1.19098
1.65589
2.10871
2.54507
2.95959
3.34538
3.69296
3.9885
4.21099
4.32816
4.2921
4.03746
3.46728
0.221619
0.663175
1.09961
1.52725
1.94198
2.33895
2.71218
3.05382
3.35306
3.59437
3.75475
3.79993
3.68048
3.33758
2.79014
0.204607
0.6121
1.01435
1.40758
1.78757
2.14934
2.48672
2.79171
3.0534
3.25644
3.37852
3.38603
3.22403
2.77977
1.6987
0.188792
0.564669
0.935348
1.29711
1.64582
1.97667
2.28377
2.55966
2.79448
2.97476
3.08187
3.08986
2.96362
2.66419
2.21584
0.174164
0.520849
0.862543
1.19571
1.51649
1.82049
2.1025
2.35616
2.57343
2.74391
2.85407
2.8869
2.8235
2.65203
2.39274
0.160679
0.480498
0.79566
1.10292
1.39883
1.67958
1.94092
2.17794
2.3849
2.55495
2.67999
2.75079
2.75845
2.70086
2.6064
0.148262
0.443382
0.734265
1.01803
1.29169
1.55216
1.79624
2.02061
2.222
2.39725
2.54359
2.65852
2.73874
2.7753
2.73744
0.136823
0.409209
0.67782
0.940147
1.19372
1.43614
1.66524
1.87926
2.07726
2.25965
2.429
2.59039
2.74936
2.90142
3.00719
0.126258
0.37766
0.625741
0.868355
1.10349
1.32937
1.54472
1.74905
1.94336
2.13112
2.31996
2.52395
2.76478
3.05973
3.32193
0.116466
0.34842
0.577463
0.801764
1.01968
1.22994
1.43185
1.62582
1.81402
2.00186
2.20042
2.43193
2.74266
3.24079
4.22744
0.107356
0.321202
0.532481
0.739608
0.941211
1.1363
1.32452
1.50658
1.68496
1.86515
2.05802
2.28491
2.59041
3.08263
4.08794
0.0988485
0.295768
0.490387
0.681292
0.867267
1.04744
1.22148
1.38992
1.55465
1.71964
1.89202
2.08332
2.30851
2.5682
2.72262
0.0908814
0.271933
0.450877
0.626403
0.797359
0.962842
1.12233
1.27585
1.42417
1.569
1.7129
1.85822
2.00267
2.12689
2.17897
0.0834092
0.249563
0.413743
0.574694
0.731257
0.882415
1.02734
1.16539
1.29613
1.41902
1.53282
1.63372
1.7109
1.7357
1.63082
0.0763988
0.228567
0.378855
0.526035
0.668914
0.806328
0.937116
1.06003
1.17354
1.27537
1.36172
1.42571
1.45553
1.43458
1.36117
0.0698263
0.208878
0.346128
0.480369
0.610371
0.734848
0.852372
0.961217
1.05907
1.1425
1.20614
1.24145
1.23542
1.16992
1.01737
0.0636714
0.190443
0.315495
0.43765
0.555672
0.668204
0.773663
0.870047
0.954616
1.02337
1.07024
1.08592
1.05664
0.965716
0.819075
0.0579136
0.173205
0.286876
0.397806
0.50479
0.60648
0.701265
0.78709
0.861158
0.91946
0.956028
0.961621
0.920663
0.800221
0.494994
0.0525288
0.157093
0.260165
0.360705
0.457591
0.549558
0.635098
0.712308
0.778659
0.830652
0.863333
0.869661
0.839902
0.76306
0.646449
0.0474871
0.14202
0.235216
0.326146
0.413814
0.497106
0.574723
0.645077
0.706142
0.755265
0.788954
0.802773
0.791852
0.753528
0.694921
0.0427529
0.127876
0.211843
0.293858
0.373081
0.448602
0.519401
0.584306
0.641928
0.690609
0.728384
0.753081
0.762845
0.758094
0.748014
0.0382853
0.114537
0.18983
0.263514
0.334926
0.403383
0.468181
0.528601
0.583935
0.633538
0.676911
0.713773
0.743932
0.766376
0.775771
0.0340396
0.101866
0.168936
0.234751
0.298828
0.360713
0.42001
0.476439
0.529934
0.580806
0.629972
0.679134
0.730394
0.783738
0.83027
0.0299703
0.0897228
0.148917
0.2072
0.264259
0.319846
0.373838
0.426324
0.477765
0.529272
0.583052
0.643054
0.715427
0.80585
0.895973
0.0260321
0.0779692
0.129533
0.180504
0.230717
0.280095
0.328722
0.376944
0.425561
0.476172
0.531825
0.598401
0.687944
0.828192
1.09441
0.022183
0.0664769
0.110564
0.15434
0.197759
0.240874
0.283896
0.327299
0.371985
0.419584
0.473029
0.537815
0.62527
0.763082
1.03691
0.0183845
0.0551301
0.0918139
0.128428
0.165019
0.201723
0.238813
0.276773
0.316397
0.358949
0.406374
0.461505
0.527647
0.603544
0.648897
0.0146032
0.0438279
0.0731156
0.102536
0.132206
0.162311
0.193136
0.225101
0.258787
0.294942
0.334382
0.377566
0.423271
0.465241
0.489229
0.0108098
0.0324839
0.0543278
0.0764764
0.0990973
0.122406
0.146676
0.172242
0.199472
0.228669
0.259805
0.291891
0.321509
0.339446
0.321305
0.00697911
0.0210238
0.0353317
0.0500925
0.0655163
0.0818396
0.0993239
0.118238
0.138804
0.16106
0.184583
0.207945
0.227874
0.238724
0.237278
0.00308909
0.00938261
0.016024
0.0232524
0.0313162
0.0404738
0.0509866
0.0630966
0.0769709
0.0925832
0.109484
0.126397
0.14056
0.146557
0.132036
-0.000880381
-0.0024984
-0.00368826
-0.0041637
-0.00363812
-0.0018266
0.00154786
0.00673871
0.0139413
0.0232227
0.0343899
0.0467714
0.0589304
0.0686502
0.0755921
-0.00494833
-0.014675
-0.0238938
-0.0322709
-0.0394802
-0.045206
-0.0491448
-0.0510076
-0.0505221
-0.0474367
-0.0415361
-0.0326877
-0.0209928
-0.00731545
0.00445394
-0.00913365
-0.0272028
-0.0446809
-0.061185
-0.0763475
-0.0898201
-0.101272
-0.110376
-0.116781
-0.120041
-0.119498
-0.114112
-0.102281
-0.0819455
-0.0523189
-0.013456
-0.0401392
-0.0661416
-0.0910268
-0.114383
-0.135832
-0.155021
-0.171612
-0.185216
-0.195275
-0.200812
-0.2
-0.189464
-0.163018
-0.107158
-0.0179367
-0.0535468
-0.0883755
-0.121926
-0.15374
-0.183406
-0.210569
-0.234912
-0.256103
-0.27364
-0.286524
-0.292631
-0.287684
-0.264504
-0.218011
-0.0225994
-0.0674957
-0.111494
-0.154028
-0.194582
-0.232712
-0.268067
-0.300395
-0.32952
-0.355225
-0.376933
-0.392926
-0.398552
-0.382167
-0.314233
-0.0274717
-0.0820665
-0.135627
-0.187502
-0.237103
-0.28394
-0.327659
-0.368093
-0.405302
-0.439575
-0.471298
-0.500407
-0.524693
-0.535613
-0.514578
-0.0325855
-0.0973541
-0.160927
-0.222551
-0.28154
-0.337328
-0.389527
-0.438024
-0.483114
-0.525686
-0.567469
-0.611224
-0.660102
-0.711236
-0.7132
-0.0379783
-0.11347
-0.18758
-0.259425
-0.328195
-0.393201
-0.453958
-0.510314
-0.562665
-0.612334
-0.662258
-0.71847
-0.79393
-0.920985
-1.20194
-0.0436932
-0.130545
-0.215802
-0.298431
-0.37746
-0.452021
-0.52144
-0.585376
-0.644071
-0.698796
-0.752668
-0.812336
-0.891912
-1.02384
-1.29376
-0.0497789
-0.148726
-0.245846
-0.339935
-0.429822
-0.514406
-0.592723
-0.664069
-0.728226
-0.785839
-0.839041
-0.892365
-0.95352
-1.03086
-1.10853
-0.0562881
-0.168175
-0.277993
-0.384353
-0.485863
-0.581139
-0.66884
-0.747748
-0.816917
-0.875936
-0.92532
-0.966941
-1.00387
-1.03763
-1.05866
-0.0632754
-0.18906
-0.312538
-0.432135
-0.546229
-0.653127
-0.751059
-0.838184
-0.91265
-0.972713
-1.01698
-1.04476
-1.05642
-1.05321
-1.03555
-0.070794
-0.211546
-0.349775
-0.483737
-0.611589
-0.731338
-0.840775
-0.937405
-1.01838
-1.08045
-1.12008
-1.13377
-1.11929
-1.07882
-1.02672
-0.0788922
-0.235784
-0.389974
-0.539578
-0.682572
-0.816705
-0.93938
-1.04749
-1.13722
-1.20377
-1.24118
-1.24234
-1.20019
-1.11248
-0.995995
-0.0876099
-0.261896
-0.433356
-0.600008
-0.759705
-0.910024
-1.04809
-1.17034
-1.27215
-1.34733
-1.38744
-1.38097
-1.31271
-1.16612
-0.952049
-0.0969752
-0.28997
-0.480074
-0.665263
-0.843349
-1.01185
-1.16778
-1.30738
-1.42557
-1.51523
-1.56604
-1.56252
-1.47962
-1.26663
-0.766081
-0.107004
-0.320052
-0.530203
-0.73545
-0.933646
-1.12239
-1.29882
-1.45928
-1.59879
-1.7101
-1.78235
-1.79919
-1.73685
-1.56683
-1.29651
-0.117697
-0.352144
-0.583735
-0.810529
-1.03051
-1.24148
-1.44093
-1.62574
-1.79159
-1.93208
-2.03714
-2.09085
-2.06886
-1.93667
-1.64004
-0.12905
-0.386218
-0.640597
-0.890342
-1.13361
-1.36856
-1.59322
-1.80535
-2.002
-2.17865
-2.32759
-2.43507
-2.47739
-2.4207
-2.25556
-0.141048
-0.422227
-0.700676
-0.974647
-1.2425
-1.50278
-1.7542
-1.99571
-2.2263
-2.44447
-2.64683
-2.82454
-2.95468
-2.98002
-2.75221
-0.153683
-0.460131
-0.763863
-1.06319
-1.35666
-1.64313
-1.92206
-2.19365
-2.4592
-2.72125
-2.9832
-3.24702
-3.50475
-3.71514
-3.77627
-0.166954
-0.499919
-0.830104
-1.15582
-1.47566
-1.78874
-2.09501
-2.39579
-2.69455
-2.99809
-3.31826
-3.67373
-4.08768
-4.55391
-4.8018
-0.180879
-0.541638
-0.899449
-1.25251
-1.59935
-1.93906
-2.27176
-2.59932
-2.92656
-3.26338
-3.6288
-4.05982
-4.63429
-5.5443
-7.38285
-0.195496
-0.585403
-0.972088
-1.35353
-1.72799
-2.09424
-2.45208
-2.80308
-3.15192
-3.50879
-3.8938
-4.34628
-4.94789
-5.88988
-7.70378
-0.210867
-0.631406
-1.04836
-1.4594
-1.86232
-2.25527
-2.63716
-3.00832
-3.37169
-3.73467
-4.11192
-4.52918
-5.0251
-5.62997
-6.1932
-0.227069
-0.679893
-1.12875
-1.5709
-2.00357
-2.42398
-2.82967
-3.21896
-3.59174
-3.95063
-4.30225
-4.65746
-5.02666
-5.39897
-5.6913
-0.244182
-0.731137
-1.21378
-1.689
-2.15332
-2.6029
-3.03358
-3.44106
-3.82143
-4.17164
-4.49009
-4.77602
-5.02603
-5.22352
-5.31286
-0.262274
-0.78537
-1.30398
-1.81465
-2.3133
-2.79496
-3.25357
-3.682
-4.07204
-4.41471
-4.70049
-4.91951
-5.06187
-5.12316
-5.13493
-0.281374
-0.842721
-1.39967
-1.94865
-2.48509
-3.003
-3.49453
-3.94959
-4.35555
-4.69726
-4.95726
-5.11621
-5.15401
-5.05718
-4.8565
-0.301447
-0.903123
-1.5009
-2.09135
-2.66974
-3.22936
-3.76082
-4.25126
-4.68367
-5.03655
-5.28418
-5.39704
-5.3396
-5.06331
-4.57033
-0.322365
-0.966229
-1.60722
-2.24243
-2.86742
-3.47526
-4.05558
-4.59322
-5.067
-5.44891
-5.70469
-5.79612
-5.67718
-5.21991
-3.67599
-0.343883
-1.03133
-1.71753
-2.40062
-3.07699
-3.74028
-4.37997
-4.97951
-5.51412
-5.94886
-6.2393
-6.34127
-6.2497
-6.13115
-6.81509
-0.365619
-1.0973
-1.83001
-2.56346
-3.29563
-4.02169
-4.73224
-5.41089
-6.03057
-6.54901
-6.90476
-7.02084
-6.84096
-6.48516
-6.84488
-0.38705
-1.16254
-1.94198
-2.72718
-3.51852
-4.31384
-5.10667
-5.8832
-6.6173
-7.26211
-7.73665
-7.90592
-7.55441
-6.34237
-3.58158
-0.407515
-1.22504
-2.04994
-2.88663
-3.73863
-4.60772
-5.49239
-6.38497
-7.26603
-8.09344
-8.78051
-9.15265
-8.86545
-7.27519
-3.3755
-0.426245
-1.28243
-2.1497
-3.03543
-3.94687
-4.89077
-5.87262
-6.89472
-7.952
-9.0222
-10.043
-10.8573
-11.0814
-9.8118
-5.14948
-0.442407
-1.33211
-2.23664
-3.16639
-4.13255
-5.14746
-6.22487
-7.38003
-8.62896
-9.98522
-11.449
-12.9716
-14.3345
-14.7044
-10.8378
-0.455172
-1.3715
-2.30606
-3.27205
-4.28438
-5.36074
-6.52312
-7.80021
-9.23138
-10.8735
-12.8141
-15.1969
-18.2773
-22.5391
-28.8933
-11.9798
-27.1835
-25.6819
-21.9361
-18.4591
-15.5443
-13.1028
-11.0128
-9.17719
-7.52563
-6.00745
-4.58538
-3.23097
-1.9215
-0.637711
-116.818
-60.9435
-39.354
-28.6892
-22.3303
-18.0058
-14.7814
-12.2111
-10.0566
-8.17864
-6.49021
-4.93311
-3.46599
-2.05755
-0.682269
-129.85
-70.8945
-45.4396
-32.4521
-24.7886
-19.7033
-16.0056
-13.1207
-10.7438
-8.70003
-6.88177
-5.21833
-3.66027
-2.17055
-0.719367
-71.3133
-57.5816
-42.8674
-32.5176
-25.4565
-20.437
-16.6654
-13.6775
-11.1997
-9.06481
-7.16579
-5.43037
-3.80707
-2.2568
-0.747814
-50.332
-44.9511
-37.2642
-30.2992
-24.7067
-20.3042
-16.7809
-13.8799
-11.4174
-9.2658
-7.33617
-5.56455
-3.90313
-2.31438
-0.766982
-31.9658
-33.9218
-31.1596
-27.1275
-23.1303
-19.5607
-16.4642
-13.7779
-11.4191
-9.31263
-7.39681
-5.62218
-3.94874
-2.34323
-0.776821
-23.587
-26.169
-25.9369
-23.9316
-21.2569
-18.4886
-15.8626
-13.4485
-11.2456
-9.22704
-7.35938
-5.60952
-3.94716
-2.34492
-0.777793
-13.1235
-20.3705
-21.9453
-21.2006
-19.4483
-17.3177
-15.1137
-12.9724
-10.9439
-9.03667
-7.24014
-5.5361
-3.90381
-2.32222
-0.77075
-15.8545
-18.511
-19.5644
-19.1693
-17.9023
-16.1978
-14.3213
-12.418
-10.5581
-8.76938
-7.05665
-5.41284
-3.82524
-2.27861
-0.756777