/*--------------------------------*- C++ -*----------------------------------*\
| =========                 |                                                 |
| \\      /  F ield         | OpenFOAM: The Open Source CFD Toolbox           |
|  \\    /   O peration     | Version:  5.x                                   |
|   \\  /    A nd           | Web:      www.OpenFOAM.org                      |
|    \\/     M anipulation  |                                                 |
\*---------------------------------------------------------------------------*/
FoamFile
{
    version     2.0;
    format      ascii;
    class       volScalarField;
    location    "3.2";
    object      T;
}
// * * * * * * * * * * * * * * * * * * * * * * * * * * * * * * * * * * * * * //

dimensions      [0 0 0 1 0 0 0];

internalField   nonuniform List<scalar> 
6300
(
322.85
322.549
322.247
321.944
321.638
321.329
321.016
320.699
320.378
320.051
319.719
319.382
319.038
318.689
318.334
322.85
322.55
322.249
321.946
321.641
321.332
321.02
320.704
320.383
320.057
319.725
319.388
319.044
318.695
318.339
322.851
322.552
322.252
321.951
321.647
321.34
321.029
320.713
320.393
320.068
319.737
319.399
319.056
318.706
318.351
322.852
322.555
322.258
321.958
321.656
321.351
321.041
320.728
320.409
320.084
319.754
319.417
319.074
318.724
318.368
322.853
322.56
322.265
321.968
321.668
321.366
321.059
320.747
320.43
320.107
319.778
319.442
319.098
318.748
318.391
322.855
322.565
322.274
321.98
321.684
321.385
321.081
320.772
320.457
320.136
319.808
319.473
319.13
318.779
318.421
322.857
322.571
322.284
321.995
321.703
321.408
321.108
320.802
320.491
320.173
319.846
319.512
319.169
318.818
318.458
322.86
322.579
322.297
322.013
321.726
321.436
321.14
320.839
320.531
320.216
319.893
319.56
319.217
318.865
318.502
322.863
322.588
322.312
322.034
321.753
321.468
321.178
320.882
320.579
320.268
319.948
319.617
319.275
318.922
318.556
322.866
322.598
322.329
322.058
321.784
321.505
321.222
320.933
320.636
320.33
320.014
319.686
319.345
318.99
318.621
322.87
322.61
322.348
322.085
321.818
321.548
321.272
320.99
320.701
320.402
320.091
319.768
319.429
319.073
318.699
322.874
322.623
322.37
322.115
321.857
321.595
321.329
321.056
320.775
320.485
320.182
319.864
319.529
319.174
318.795
322.879
322.636
322.393
322.147
321.899
321.648
321.392
321.129
320.859
320.58
320.287
319.979
319.65
319.298
318.917
322.884
322.651
322.418
322.183
321.945
321.705
321.46
321.211
320.954
320.687
320.409
320.113
319.796
319.45
319.073
322.889
322.667
322.444
322.22
321.994
321.766
321.535
321.299
321.057
320.807
320.547
320.27
319.969
319.634
319.264
318.003
317.698
317.39
317.079
316.765
316.447
316.127
315.804
315.479
315.151
314.822
314.491
314.158
313.824
313.489
313.153
312.816
312.479
312.142
311.804
311.466
311.128
310.79
310.452
310.114
309.776
309.437
309.099
308.761
308.423
308.086
307.748
307.411
307.074
306.738
306.402
306.067
305.732
305.398
305.063
304.729
304.396
304.062
303.729
303.396
303.064
302.732
302.401
302.07
301.74
301.41
301.081
300.752
300.424
300.096
299.769
299.442
299.116
298.789
298.464
298.139
297.814
297.49
297.166
296.844
296.522
296.2
295.88
295.559
295.24
294.921
294.602
294.284
293.966
293.648
293.332
293.015
292.699
292.384
292.069
291.754
291.44
291.126
290.811
290.496
290.181
289.865
289.548
289.23
288.911
318.008
317.704
317.395
317.084
316.769
316.451
316.13
315.807
315.482
315.154
314.825
314.493
314.16
313.826
313.49
313.154
312.817
312.48
312.142
311.804
311.466
311.128
310.79
310.452
310.114
309.776
309.437
309.099
308.761
308.423
308.085
307.748
307.41
307.074
306.737
306.402
306.066
305.732
305.397
305.063
304.729
304.395
304.062
303.729
303.396
303.063
302.731
302.4
302.069
301.739
301.409
301.08
300.751
300.423
300.096
299.768
299.442
299.115
298.789
298.463
298.138
297.813
297.489
297.165
296.843
296.521
296.199
295.879
295.559
295.239
294.92
294.601
294.283
293.965
293.648
293.331
293.015
292.699
292.383
292.069
291.754
291.44
291.126
290.812
290.497
290.182
289.866
289.549
289.231
288.912
318.019
317.714
317.405
317.093
316.777
316.459
316.138
315.814
315.488
315.16
314.83
314.498
314.164
313.829
313.493
313.156
312.819
312.481
312.143
311.804
311.466
311.128
310.79
310.452
310.114
309.775
309.437
309.099
308.761
308.422
308.084
307.746
307.409
307.072
306.736
306.4
306.065
305.73
305.396
305.062
304.728
304.394
304.061
303.728
303.395
303.062
302.73
302.398
302.067
301.737
301.407
301.078
300.75
300.422
300.094
299.767
299.44
299.114
298.787
298.461
298.136
297.811
297.487
297.163
296.841
296.519
296.198
295.877
295.557
295.238
294.919
294.6
294.282
293.964
293.646
293.329
293.013
292.697
292.382
292.068
291.753
291.44
291.126
290.813
290.499
290.184
289.868
289.552
289.234
288.915
318.035
317.729
317.42
317.106
316.79
316.471
316.149
315.824
315.497
315.168
314.837
314.504
314.17
313.834
313.497
313.159
312.82
312.482
312.143
311.805
311.466
311.128
310.79
310.452
310.114
309.776
309.437
309.099
308.76
308.421
308.083
307.745
307.407
307.07
306.734
306.398
306.063
305.729
305.395
305.061
304.727
304.393
304.06
303.726
303.393
303.06
302.727
302.395
302.064
301.734
301.405
301.076
300.748
300.42
300.093
299.766
299.439
299.112
298.785
298.459
298.133
297.808
297.484
297.16
296.837
296.516
296.195
295.874
295.555
295.235
294.917
294.598
294.28
293.962
293.644
293.327
293.01
292.695
292.38
292.066
291.752
291.439
291.127
290.814
290.501
290.187
289.872
289.556
289.239
288.919
318.058
317.75
317.439
317.125
316.807
316.486
316.163
315.838
315.51
315.18
314.848
314.513
314.177
313.84
313.502
313.162
312.823
312.483
312.143
311.804
311.466
311.128
310.79
310.452
310.114
309.776
309.437
309.098
308.759
308.42
308.081
307.742
307.404
307.067
306.73
306.395
306.06
305.726
305.393
305.059
304.726
304.392
304.058
303.724
303.39
303.057
302.724
302.392
302.06
301.73
301.401
301.072
300.745
300.418
300.091
299.764
299.437
299.11
298.783
298.456
298.13
297.804
297.479
297.156
296.833
296.511
296.191
295.871
295.552
295.233
294.914
294.596
294.277
293.959
293.641
293.324
293.007
292.691
292.376
292.063
291.75
291.438
291.127
290.816
290.504
290.192
289.878
289.563
289.245
288.926
318.086
317.777
317.464
317.147
316.828
316.506
316.181
315.854
315.525
315.194
314.861
314.525
314.187
313.848
313.507
313.166
312.825
312.484
312.143
311.804
311.465
311.127
310.789
310.452
310.115
309.777
309.438
309.098
308.759
308.418
308.078
307.739
307.4
307.062
306.726
306.391
306.057
305.723
305.39
305.058
304.724
304.391
304.057
303.722
303.388
303.053
302.719
302.386
302.055
301.725
301.396
301.068
300.741
300.415
300.088
299.762
299.435
299.108
298.78
298.453
298.125
297.799
297.474
297.149
296.827
296.506
296.186
295.866
295.548
295.23
294.912
294.593
294.274
293.956
293.637
293.319
293.002
292.686
292.371
292.058
291.747
291.437
291.128
290.818
290.509
290.199
289.886
289.572
289.255
288.935
318.12
317.809
317.493
317.174
316.852
316.528
316.202
315.874
315.544
315.212
314.877
314.539
314.199
313.858
313.514
313.17
312.826
312.483
312.142
311.801
311.463
311.125
310.789
310.453
310.116
309.778
309.439
309.099
308.758
308.417
308.075
307.734
307.394
307.056
306.719
306.385
306.052
305.72
305.388
305.056
304.724
304.39
304.056
303.72
303.384
303.048
302.713
302.379
302.047
301.717
301.389
301.062
300.737
300.411
300.086
299.76
299.434
299.106
298.777
298.449
298.12
297.792
297.466
297.141
296.819
296.498
296.179
295.861
295.544
295.227
294.909
294.591
294.272
293.952
293.633
293.313
292.995
292.678
292.364
292.052
291.742
291.434
291.128
290.821
290.515
290.208
289.898
289.585
289.269
288.948
318.162
317.847
317.528
317.205
316.88
316.554
316.226
315.897
315.566
315.233
314.897
314.557
314.215
313.869
313.522
313.174
312.827
312.481
312.138
311.797
311.459
311.123
310.788
310.453
310.118
309.781
309.443
309.102
308.759
308.415
308.07
307.727
307.385
307.046
306.71
306.377
306.046
305.716
305.386
305.056
304.725
304.391
304.056
303.719
303.381
303.043
302.705
302.37
302.037
301.707
301.38
301.055
300.731
300.408
300.085
299.76
299.434
299.105
298.775
298.444
298.113
297.783
297.455
297.13
296.807
296.488
296.171
295.855
295.54
295.224
294.908
294.59
294.27
293.949
293.627
293.306
292.986
292.668
292.353
292.042
291.734
291.429
291.127
290.825
290.523
290.22
289.913
289.603
289.288
288.967
318.211
317.891
317.567
317.239
316.91
316.581
316.252
315.923
315.592
315.258
314.921
314.579
314.233
313.884
313.531
313.178
312.825
312.476
312.13
311.789
311.452
311.118
310.787
310.455
310.123
309.788
309.449
309.107
308.761
308.413
308.065
307.718
307.373
307.033
306.697
306.366
306.037
305.711
305.385
305.058
304.728
304.395
304.059
303.719
303.378
303.035
302.694
302.356
302.022
301.693
301.367
301.045
300.725
300.406
300.085
299.762
299.436
299.107
298.774
298.44
298.105
297.771
297.441
297.114
296.792
296.474
296.16
295.848
295.536
295.223
294.909
294.591
294.27
293.947
293.622
293.296
292.973
292.653
292.338
292.027
291.722
291.422
291.124
290.829
290.533
290.236
289.935
289.628
289.315
288.993
318.27
317.943
317.61
317.275
316.941
316.609
316.279
315.95
315.621
315.289
314.952
314.608
314.258
313.902
313.541
313.179
312.819
312.464
312.116
311.775
311.44
311.111
310.785
310.459
310.131
309.799
309.461
309.117
308.766
308.412
308.057
307.704
307.355
307.013
306.678
306.349
306.026
305.705
305.385
305.063
304.737
304.404
304.066
303.722
303.375
303.026
302.679
302.337
302.001
301.673
301.35
301.033
300.719
300.405
300.089
299.769
299.444
299.113
298.776
298.436
298.094
297.755
297.421
297.092
296.771
296.456
296.146
295.839
295.533
295.225
294.914
294.597
294.274
293.947
293.616
293.284
292.955
292.631
292.315
292.005
291.704
291.409
291.119
290.832
290.546
290.258
289.965
289.664
289.353
289.03
318.34
318.002
317.656
317.31
316.968
316.633
316.304
315.979
315.654
315.326
314.991
314.646
314.291
313.926
313.553
313.178
312.807
312.443
312.091
311.751
311.421
311.099
310.782
310.466
310.146
309.818
309.482
309.135
308.778
308.413
308.047
307.683
307.328
306.983
306.65
306.326
306.01
305.699
305.389
305.074
304.753
304.422
304.082
303.731
303.374
303.014
302.657
302.309
301.97
301.643
301.326
301.016
300.711
300.407
300.098
299.784
299.46
299.126
298.783
298.433
298.081
297.732
297.391
297.06
296.74
296.431
296.128
295.83
295.533
295.233
294.926
294.61
294.285
293.951
293.611
293.269
292.93
292.6
292.28
291.972
291.676
291.389
291.109
290.834
290.561
290.286
290.006
289.715
289.409
289.084
318.425
318.071
317.704
317.34
316.986
316.648
316.323
316.007
315.693
315.374
315.044
314.7
314.339
313.96
313.569
313.171
312.782
312.407
312.05
311.712
311.39
311.081
310.779
310.478
310.17
309.851
309.517
309.167
308.799
308.418
308.031
307.651
307.285
306.937
306.606
306.291
305.988
305.692
305.397
305.095
304.782
304.455
304.111
303.75
303.376
302.997
302.624
302.265
301.923
301.599
301.29
300.993
300.703
300.413
300.118
299.811
299.49
299.153
298.8
298.434
298.063
297.698
297.347
297.013
296.696
296.394
296.104
295.82
295.538
295.249
294.95
294.638
294.309
293.965
293.609
293.248
292.893
292.552
292.229
291.923
291.634
291.358
291.093
290.834
290.578
290.322
290.062
289.788
289.491
289.164
318.537
318.158
317.748
317.354
316.983
316.644
316.328
316.032
315.74
315.437
315.119
314.777
314.411
314.013
313.593
313.154
312.736
312.343
311.983
311.649
311.341
311.051
310.775
310.499
310.211
309.906
309.577
309.224
308.839
308.432
308.006
307.599
307.217
306.866
306.54
306.239
305.956
305.685
305.415
305.132
304.834
304.511
304.164
303.787
303.387
302.97
302.571
302.196
301.852
301.532
301.238
300.959
300.694
300.429
300.152
299.859
299.543
299.204
298.835
298.443
298.034
297.644
297.277
296.941
296.629
296.34
296.069
295.81
295.551
295.281
294.995
294.687
294.356
293.996
293.615
293.217
292.837
292.48
292.153
291.85
291.572
291.312
291.068
290.831
290.594
290.365
290.137
289.894
289.618
289.29
318.696
318.29
317.771
317.334
316.933
316.605
316.305
316.051
315.802
315.521
315.229
314.888
314.528
314.1
313.644
313.107
312.653
312.231
311.878
311.548
311.267
311.001
310.769
310.538
310.274
309.996
309.671
309.325
308.913
308.472
307.952
307.513
307.102
306.76
306.437
306.163
305.904
305.677
305.45
305.192
304.92
304.6
304.261
303.857
303.424
302.915
302.484
302.082
301.746
301.43
301.161
300.907
300.684
300.462
300.209
299.942
299.629
299.297
298.901
298.478
297.979
297.557
297.164
296.835
296.526
296.264
296.015
295.798
295.581
295.334
295.073
294.768
294.445
294.058
293.645
293.159
292.747
292.363
292.043
291.741
291.485
291.243
291.033
290.827
290.599
290.407
290.233
290.048
289.819
289.502
318.946
318.584
317.676
317.261
316.778
316.528
316.217
316.061
315.91
315.623
315.409
315.026
314.745
314.227
313.81
312.94
312.526
312.018
311.743
311.375
311.171
310.903
310.763
310.625
310.358
310.156
309.793
309.523
309.027
308.624
307.785
307.383
306.89
306.624
306.265
306.066
305.804
305.668
305.532
305.271
305.074
304.718
304.453
303.966
303.572
302.749
302.355
301.872
301.611
301.259
301.064
300.807
300.674
300.541
300.285
300.091
299.742
299.483
299.006
298.62
297.814
297.429
296.957
296.701
296.357
296.167
295.916
295.785
295.655
295.405
295.216
294.876
294.623
294.158
293.781
292.994
292.618
292.155
291.905
291.566
291.378
291.126
290.994
290.853
290.551
290.425
290.345
290.265
290.148
289.909
288.559
288.174
287.788
287.402
287.015
286.629
286.243
285.858
285.474
285.091
284.709
284.328
283.948
283.568
283.189
288.56
288.175
287.789
287.402
287.015
286.629
286.242
285.857
285.473
285.09
284.708
284.327
283.947
283.568
283.189
288.563
288.177
287.79
287.403
287.015
286.627
286.241
285.855
285.471
285.087
284.706
284.325
283.946
283.567
283.189
288.567
288.18
287.792
287.403
287.014
286.626
286.238
285.852
285.467
285.084
284.702
284.322
283.944
283.566
283.189
288.573
288.184
287.795
287.404
287.013
286.623
286.234
285.847
285.462
285.079
284.697
284.318
283.94
283.564
283.188
288.581
288.191
287.798
287.405
287.011
286.619
286.228
285.84
285.454
285.071
284.691
284.313
283.936
283.561
283.187
288.592
288.199
287.803
287.405
287.008
286.613
286.22
285.83
285.444
285.061
284.682
284.305
283.931
283.558
283.186
288.608
288.21
287.809
287.406
287.004
286.604
286.208
285.817
285.431
285.049
284.67
284.296
283.923
283.553
283.184
288.63
288.226
287.816
287.405
286.996
286.592
286.193
285.8
285.413
285.032
284.655
284.283
283.914
283.548
283.182
288.662
288.247
287.825
287.403
286.984
286.573
286.17
285.776
285.389
285.01
284.636
284.268
283.903
283.541
283.18
288.706
288.274
287.834
287.396
286.966
286.547
286.14
285.744
285.359
284.982
284.612
284.248
283.888
283.532
283.177
288.77
288.309
287.841
287.381
286.936
286.509
286.098
285.703
285.319
284.947
284.582
284.224
283.871
283.521
283.174
288.864
288.353
287.841
287.351
286.889
286.454
286.041
285.648
285.27
284.903
284.546
284.196
283.851
283.509
283.169
289.004
288.396
287.818
287.292
286.814
286.375
285.966
285.579
285.208
284.851
284.503
284.162
283.827
283.495
283.165
289.207
288.411
287.744
287.185
286.702
286.268
285.868
285.493
285.134
284.789
284.452
284.123
283.799
283.478
283.159
322.894
322.682
322.47
322.256
322.042
321.825
321.607
321.385
321.159
320.928
320.688
320.435
320.158
319.835
319.416
322.899
322.696
322.493
322.29
322.086
321.881
321.674
321.466
321.256
321.043
320.826
320.602
320.363
320.086
319.667
322.903
322.71
322.517
322.324
322.13
321.937
321.743
321.549
321.355
321.161
320.969
320.779
320.595
320.434
320.379
322.908
322.725
322.541
322.358
322.175
321.993
321.812
321.631
321.453
321.278
321.109
320.951
320.811
320.709
320.672
322.913
322.739
322.565
322.392
322.22
322.049
321.879
321.712
321.549
321.392
321.243
321.11
321.001
320.938
320.962
322.918
322.753
322.589
322.426
322.264
322.103
321.945
321.791
321.641
321.499
321.367
321.251
321.16
321.106
321.097
322.922
322.767
322.612
322.459
322.306
322.156
322.009
321.866
321.728
321.599
321.479
321.375
321.293
321.243
321.242
322.927
322.78
322.635
322.49
322.348
322.207
322.07
321.937
321.81
321.691
321.581
321.485
321.405
321.345
321.308
322.931
322.793
322.656
322.521
322.387
322.256
322.128
322.005
321.887
321.776
321.674
321.582
321.502
321.432
321.362
322.935
322.806
322.677
322.55
322.425
322.302
322.183
322.068
321.959
321.855
321.759
321.672
321.592
321.519
321.455
322.939
322.818
322.697
322.578
322.46
322.346
322.235
322.128
322.026
321.93
321.839
321.756
321.677
321.601
321.517
322.943
322.829
322.716
322.604
322.494
322.387
322.284
322.184
322.089
321.999
321.915
321.836
321.76
321.687
321.619
322.946
322.84
322.734
322.629
322.526
322.426
322.33
322.237
322.149
322.066
321.987
321.913
321.842
321.771
321.686
322.95
322.85
322.75
322.652
322.557
322.463
322.373
322.287
322.205
322.128
322.056
321.989
321.925
321.862
321.801
322.953
322.859
322.766
322.675
322.585
322.498
322.414
322.334
322.258
322.187
322.122
322.062
322.006
321.953
321.885
322.956
322.868
322.781
322.695
322.612
322.53
322.452
322.378
322.308
322.243
322.184
322.131
322.086
322.054
322.051
322.959
322.876
322.795
322.715
322.636
322.561
322.488
322.419
322.354
322.295
322.241
322.195
322.158
322.134
322.126
322.961
322.884
322.808
322.733
322.659
322.589
322.521
322.457
322.397
322.342
322.293
322.252
322.221
322.204
322.209
322.964
322.891
322.82
322.749
322.681
322.615
322.551
322.491
322.436
322.385
322.34
322.303
322.275
322.258
322.251
322.966
322.898
322.831
322.765
322.701
322.639
322.579
322.523
322.471
322.424
322.382
322.347
322.32
322.304
322.303
322.968
322.904
322.841
322.779
322.719
322.661
322.605
322.552
322.504
322.459
322.419
322.386
322.359
322.34
322.329
322.97
322.91
322.851
322.793
322.736
322.681
322.629
322.579
322.533
322.49
322.452
322.419
322.392
322.371
322.36
322.972
322.915
322.86
322.805
322.751
322.7
322.65
322.603
322.559
322.519
322.482
322.449
322.42
322.396
322.375
322.973
322.92
322.868
322.816
322.766
322.717
322.67
322.626
322.584
322.545
322.509
322.476
322.446
322.418
322.389
322.975
322.925
322.875
322.826
322.779
322.733
322.688
322.646
322.606
322.568
322.533
322.501
322.47
322.44
322.412
322.976
322.929
322.882
322.836
322.791
322.747
322.705
322.665
322.627
322.59
322.556
322.524
322.493
322.462
322.428
322.978
322.933
322.888
322.845
322.802
322.761
322.721
322.682
322.646
322.611
322.578
322.546
322.516
322.485
322.456
322.979
322.936
322.894
322.853
322.812
322.773
322.735
322.699
322.664
322.63
322.599
322.568
322.538
322.508
322.474
322.98
322.94
322.9
322.86
322.822
322.785
322.748
322.714
322.68
322.649
322.618
322.59
322.562
322.534
322.506
322.981
322.943
322.905
322.867
322.831
322.795
322.761
322.728
322.696
322.666
322.637
322.61
322.585
322.559
322.529
322.982
322.945
322.909
322.874
322.839
322.805
322.772
322.741
322.711
322.682
322.655
322.63
322.607
322.588
322.576
322.983
322.948
322.914
322.88
322.847
322.814
322.783
322.753
322.724
322.697
322.672
322.648
322.628
322.611
322.598
322.983
322.95
322.918
322.885
322.853
322.823
322.793
322.764
322.736
322.711
322.687
322.665
322.646
322.631
322.622
322.984
322.952
322.921
322.89
322.86
322.83
322.802
322.774
322.748
322.723
322.7
322.679
322.661
322.646
322.634
322.985
322.954
322.924
322.895
322.866
322.837
322.81
322.783
322.758
322.734
322.712
322.692
322.674
322.659
322.649
322.985
322.956
322.927
322.899
322.871
322.844
322.817
322.792
322.767
322.744
322.723
322.703
322.685
322.67
322.657
322.986
322.958
322.93
322.903
322.876
322.849
322.824
322.799
322.776
322.753
322.732
322.713
322.695
322.679
322.666
322.986
322.959
322.933
322.906
322.88
322.855
322.83
322.806
322.783
322.761
322.741
322.721
322.703
322.686
322.67
322.987
322.961
322.935
322.909
322.884
322.86
322.836
322.812
322.79
322.769
322.748
322.729
322.71
322.692
322.674
322.987
322.962
322.937
322.912
322.888
322.864
322.841
322.818
322.796
322.775
322.755
322.736
322.717
322.699
322.681
322.988
322.963
322.939
322.915
322.891
322.868
322.845
322.823
322.802
322.781
322.761
322.742
322.723
322.705
322.686
322.988
322.964
322.941
322.917
322.894
322.871
322.849
322.828
322.807
322.787
322.767
322.748
322.73
322.711
322.694
322.988
322.965
322.942
322.919
322.897
322.875
322.853
322.832
322.812
322.792
322.773
322.754
322.736
322.718
322.699
322.989
322.966
322.943
322.921
322.899
322.877
322.856
322.836
322.816
322.796
322.778
322.76
322.742
322.724
322.707
322.989
322.967
322.945
322.923
322.901
322.88
322.859
322.839
322.82
322.801
322.782
322.765
322.748
322.731
322.714
322.989
322.967
322.946
322.924
322.903
322.882
322.862
322.842
322.823
322.804
322.787
322.77
322.753
322.738
322.726
322.989
322.968
322.946
322.925
322.904
322.884
322.864
322.845
322.826
322.808
322.79
322.774
322.758
322.744
322.731
322.989
322.968
322.947
322.926
322.906
322.885
322.866
322.847
322.828
322.81
322.793
322.777
322.762
322.748
322.736
322.989
322.968
322.948
322.927
322.907
322.887
322.867
322.848
322.83
322.813
322.796
322.78
322.765
322.752
322.739
322.99
322.969
322.948
322.927
322.907
322.888
322.868
322.85
322.831
322.814
322.798
322.782
322.767
322.754
322.742
322.99
322.969
322.948
322.928
322.908
322.888
322.869
322.85
322.832
322.815
322.799
322.783
322.769
322.756
322.743
322.99
322.969
322.948
322.928
322.908
322.888
322.869
322.851
322.833
322.816
322.799
322.784
322.77
322.756
322.744
322.99
322.969
322.948
322.928
322.908
322.888
322.869
322.85
322.833
322.816
322.799
322.784
322.77
322.757
322.744
322.99
322.969
322.948
322.927
322.907
322.887
322.868
322.85
322.832
322.815
322.799
322.784
322.769
322.756
322.744
322.989
322.968
322.947
322.927
322.906
322.886
322.867
322.849
322.831
322.814
322.797
322.782
322.768
322.755
322.743
322.989
322.968
322.947
322.926
322.905
322.885
322.866
322.847
322.829
322.812
322.795
322.78
322.766
322.754
322.742
322.989
322.967
322.946
322.925
322.904
322.883
322.864
322.845
322.826
322.809
322.793
322.777
322.763
322.751
322.74
322.989
322.967
322.945
322.923
322.902
322.881
322.861
322.842
322.823
322.806
322.789
322.774
322.76
322.747
322.737
322.989
322.966
322.944
322.922
322.9
322.879
322.858
322.839
322.82
322.802
322.785
322.769
322.755
322.742
322.731
322.988
322.965
322.942
322.92
322.897
322.876
322.855
322.835
322.815
322.797
322.78
322.764
322.749
322.735
322.725
322.988
322.964
322.941
322.917
322.894
322.872
322.851
322.83
322.81
322.792
322.774
322.757
322.741
322.727
322.711
322.988
322.963
322.939
322.915
322.891
322.868
322.846
322.825
322.805
322.785
322.767
322.75
322.734
322.718
322.704
322.987
322.962
322.936
322.912
322.887
322.864
322.841
322.819
322.798
322.778
322.76
322.742
322.726
322.709
322.693
322.987
322.96
322.934
322.908
322.883
322.858
322.835
322.812
322.791
322.771
322.752
322.734
322.717
322.701
322.686
322.986
322.959
322.931
322.904
322.878
322.853
322.828
322.805
322.783
322.762
322.743
322.725
322.708
322.692
322.675
322.986
322.957
322.928
322.9
322.873
322.846
322.821
322.797
322.774
322.753
322.733
322.715
322.698
322.683
322.669
322.985
322.955
322.925
322.895
322.867
322.839
322.813
322.788
322.764
322.742
322.722
322.704
322.688
322.673
322.659
322.984
322.952
322.921
322.89
322.86
322.831
322.803
322.777
322.753
322.73
322.71
322.692
322.677
322.664
322.653
322.983
322.95
322.917
322.884
322.853
322.822
322.793
322.766
322.74
322.717
322.696
322.678
322.663
322.652
322.646
322.982
322.947
322.912
322.878
322.844
322.812
322.782
322.753
322.726
322.702
322.68
322.662
322.648
322.637
322.631
322.981
322.944
322.907
322.871
322.835
322.802
322.769
322.739
322.71
322.685
322.662
322.643
322.629
322.62
322.619
322.98
322.941
322.901
322.863
322.826
322.79
322.755
322.723
322.693
322.665
322.641
322.621
322.606
322.597
322.594
322.979
322.937
322.895
322.854
322.815
322.776
322.74
322.705
322.673
322.644
322.618
322.596
322.58
322.57
322.573
322.978
322.933
322.889
322.845
322.803
322.762
322.723
322.686
322.652
322.62
322.592
322.567
322.548
322.535
322.531
322.976
322.929
322.881
322.835
322.79
322.747
322.705
322.665
322.628
322.594
322.563
322.535
322.511
322.494
322.493
322.975
322.924
322.874
322.824
322.776
322.73
322.685
322.643
322.603
322.566
322.531
322.5
322.471
322.443
322.408
322.973
322.919
322.865
322.813
322.761
322.712
322.664
322.619
322.576
322.535
322.498
322.463
322.429
322.396
322.364
322.971
322.913
322.856
322.8
322.745
322.692
322.641
322.593
322.547
322.503
322.463
322.424
322.387
322.349
322.305
322.969
322.907
322.846
322.786
322.728
322.671
322.617
322.565
322.516
322.47
322.426
322.385
322.345
322.306
322.27
322.967
322.901
322.836
322.772
322.709
322.649
322.591
322.535
322.483
322.434
322.388
322.345
322.303
322.262
322.216
322.965
322.894
322.825
322.756
322.689
322.625
322.563
322.504
322.448
322.396
322.348
322.303
322.261
322.221
322.184
322.962
322.887
322.813
322.739
322.668
322.599
322.533
322.47
322.411
322.356
322.305
322.259
322.217
322.178
322.135
322.96
322.879
322.8
322.721
322.645
322.571
322.5
322.433
322.37
322.312
322.26
322.213
322.172
322.136
322.108
322.957
322.871
322.786
322.702
322.62
322.541
322.465
322.393
322.326
322.265
322.21
322.163
322.123
322.091
322.074
322.954
322.862
322.771
322.681
322.594
322.509
322.427
322.35
322.278
322.213
322.156
322.107
322.068
322.034
321.994
322.951
322.853
322.755
322.659
322.565
322.474
322.386
322.303
322.226
322.156
322.095
322.046
322.009
321.983
321.96
322.947
322.843
322.739
322.636
322.535
322.437
322.342
322.252
322.168
322.092
322.027
321.975
321.942
321.929
321.934
322.944
322.832
322.721
322.611
322.503
322.397
322.295
322.196
322.104
322.021
321.949
321.893
321.861
321.861
321.903
322.94
322.821
322.703
322.585
322.469
322.355
322.244
322.137
322.035
321.942
321.859
321.795
321.757
321.765
321.849
322.937
322.81
322.684
322.558
322.434
322.311
322.191
322.073
321.961
321.854
321.758
321.677
321.622
321.616
321.723
289.421
288.308
287.575
287.019
286.552
286.138
285.757
285.398
285.054
284.723
284.4
284.083
283.77
283.461
283.154
289.027
287.949
287.3
286.805
286.38
285.997
285.64
285.3
284.974
284.657
284.347
284.043
283.742
283.444
283.148
287.474
287.292
286.919
286.541
286.18
285.838
285.51
285.194
284.887
284.586
284.291
284.001
283.713
283.427
283.142
286.863
286.767
286.543
286.264
285.967
285.669
285.373
285.082
284.795
284.512
284.233
283.956
283.681
283.408
283.136
286.285
286.332
286.205
285.999
285.756
285.497
285.233
284.966
284.7
284.435
284.172
283.91
283.649
283.389
283.13
286.024
286.018
285.922
285.759
285.555
285.33
285.093
284.85
284.605
284.358
284.11
283.863
283.616
283.37
283.123
285.752
285.767
285.686
285.546
285.37
285.171
284.958
284.737
284.51
284.28
284.049
283.816
283.583
283.35
283.117
285.631
285.582
285.49
285.36
285.201
285.022
284.829
284.626
284.417
284.204
283.988
283.77
283.551
283.331
283.11
285.534
285.427
285.32
285.193
285.046
284.883
284.706
284.52
284.327
284.13
283.928
283.724
283.518
283.311
283.104
285.366
285.273
285.164
285.04
284.903
284.752
284.59
284.419
284.241
284.058
283.87
283.68
283.487
283.293
283.098
285.257
285.131
285.017
284.897
284.769
284.629
284.48
284.323
284.159
283.989
283.814
283.637
283.456
283.274
283.092
285.078
284.981
284.873
284.761
284.641
284.513
284.377
284.232
284.08
283.923
283.761
283.595
283.427
283.257
283.086
284.962
284.837
284.733
284.63
284.52
284.403
284.278
284.145
284.006
283.86
283.71
283.556
283.399
283.24
283.08
284.764
284.68
284.593
284.502
284.405
284.299
284.185
284.064
283.935
283.801
283.661
283.518
283.372
283.224
283.075
284.62
284.526
284.454
284.379
284.294
284.2
284.098
283.987
283.869
283.745
283.616
283.483
283.347
283.209
283.07
284.34
284.355
284.319
284.262
284.191
284.108
284.016
283.915
283.806
283.692
283.573
283.449
283.323
283.195
283.065
284.214
284.22
284.199
284.155
284.095
284.023
283.939
283.847
283.748
283.643
283.533
283.418
283.301
283.181
283.061
284.075
284.104
284.094
284.06
284.009
283.944
283.869
283.785
283.694
283.597
283.495
283.389
283.28
283.169
283.056
284.006
284.015
284.005
283.976
283.931
283.873
283.805
283.729
283.645
283.555
283.46
283.362
283.261
283.157
283.053
283.922
283.938
283.93
283.903
283.862
283.81
283.747
283.677
283.599
283.516
283.428
283.337
283.243
283.146
283.049
283.88
283.88
283.867
283.84
283.802
283.753
283.695
283.629
283.558
283.48
283.399
283.314
283.226
283.136
283.046
283.83
283.83
283.814
283.786
283.748
283.702
283.648
283.587
283.52
283.448
283.372
283.293
283.211
283.127
283.043
283.806
283.791
283.769
283.739
283.701
283.657
283.605
283.548
283.485
283.418
283.347
283.273
283.197
283.119
283.04
283.785
283.757
283.729
283.697
283.659
283.616
283.567
283.513
283.454
283.391
283.325
283.256
283.184
283.111
283.037
283.749
283.722
283.692
283.658
283.621
283.579
283.532
283.481
283.425
283.366
283.304
283.239
283.172
283.104
283.035
283.725
283.69
283.657
283.623
283.586
283.545
283.5
283.452
283.4
283.344
283.285
283.225
283.162
283.098
283.033
283.686
283.656
283.623
283.59
283.554
283.514
283.472
283.425
283.376
283.324
283.268
283.211
283.152
283.092
283.031
283.66
283.623
283.591
283.558
283.523
283.486
283.445
283.401
283.354
283.305
283.253
283.199
283.143
283.086
283.029
283.616
283.588
283.558
283.528
283.495
283.459
283.421
283.379
283.335
283.288
283.239
283.188
283.135
283.082
283.027
283.584
283.553
283.527
283.499
283.468
283.435
283.398
283.359
283.317
283.273
283.226
283.178
283.128
283.077
283.026
283.522
283.515
283.496
283.472
283.444
283.413
283.378
283.341
283.301
283.259
283.214
283.169
283.121
283.073
283.024
283.495
283.486
283.47
283.448
283.422
283.392
283.36
283.324
283.286
283.246
283.204
283.16
283.115
283.07
283.023
283.466
283.461
283.447
283.427
283.402
283.375
283.343
283.31
283.273
283.235
283.195
283.153
283.11
283.066
283.022
283.451
283.442
283.428
283.409
283.385
283.359
283.329
283.297
283.262
283.225
283.186
283.146
283.105
283.064
283.021
283.435
283.426
283.412
283.393
283.371
283.345
283.316
283.285
283.252
283.216
283.179
283.141
283.101
283.061
283.02
283.427
283.415
283.4
283.381
283.359
283.333
283.305
283.275
283.243
283.209
283.173
283.136
283.098
283.059
283.02
283.418
283.406
283.39
283.371