/*--------------------------------*- C++ -*----------------------------------*\
| =========                 |                                                 |
| \\      /  F ield         | OpenFOAM: The Open Source CFD Toolbox           |
|  \\    /   O peration     | Version:  5.x                                   |
|   \\  /    A nd           | Web:      www.OpenFOAM.org                      |
|    \\/     M anipulation  |                                                 |
\*---------------------------------------------------------------------------*/
FoamFile
{
    version     2.0;
    format      ascii;
    class       volScalarField;
    location    "6.5001";
    object      gradTx;
}
// * * * * * * * * * * * * * * * * * * * * * * * * * * * * * * * * * * * * * //

dimensions      [0 -1 0 1 0 0 0];

internalField   nonuniform List<scalar> 
6300
(
-31.5699
-31.6408
-31.7818
-31.9915
-32.2678
-32.6074
-33.006
-33.4582
-33.9573
-34.4952
-35.0626
-35.649
-36.2434
-36.8346
-37.412
-31.4991
-31.5706
-31.7131
-31.9251
-32.2045
-32.5483
-32.9524
-33.4114
-33.9186
-34.4658
-35.0436
-35.6411
-36.2467
-36.8485
-37.4352
-31.3568
-31.4296
-31.5749
-31.7913
-32.0769
-32.4291
-32.844
-33.3164
-33.8398
-34.406
-35.0049
-35.6251
-36.2537
-36.8776
-37.4835
-31.1416
-31.2164
-31.3656
-31.5882
-31.8829
-32.2473
-32.678
-33.1705
-33.7184
-34.3134
-34.945
-35.6006
-36.2658
-36.9246
-37.5613
-30.8517
-30.9288
-31.0828
-31.3133
-31.6192
-31.9991
-32.4505
-32.9693
-33.5499
-34.1842
-34.8611
-35.5668
-36.2841
-36.9937
-37.6753
-30.4848
-30.5644
-30.7237
-30.9628
-31.2816
-31.6796
-32.1554
-32.7064
-33.3278
-34.0123
-34.7486
-35.5214
-36.3103
-37.091
-37.8361
-30.0383
-30.1203
-30.2849
-30.5327
-30.8649
-31.2822
-31.7852
-32.373
-33.0428
-33.7886
-34.5998
-35.4598
-36.3449
-37.2239
-38.0591
-29.5097
-29.5938
-29.7628
-30.0184
-30.363
-30.7993
-31.3303
-31.9578
-32.6819
-33.4996
-34.4021
-35.3731
-36.3857
-37.4006
-38.3655
-28.8972
-28.9824
-29.1541
-29.4151
-29.7693
-30.222
-30.7789
-31.4458
-32.2276
-33.1258
-34.1361
-35.2449
-36.4243
-37.6274
-38.7834
-28.1996
-28.2845
-28.4562
-28.7185
-29.0773
-29.5404
-30.1174
-30.8192
-31.657
-32.6399
-33.7718
-35.0461
-36.4392
-37.9013
-39.3446
-27.4171
-27.4998
-27.6677
-27.9256
-28.2811
-28.745
-29.3312
-30.0567
-30.9413
-32.0051
-33.2651
-34.7288
-36.3851
-38.1942
-40.0702
-26.552
-26.6301
-26.7892
-27.035
-27.3766
-27.8274
-28.4057
-29.1353
-30.0464
-31.1741
-32.555
-34.2189
-36.178
-38.4203
-40.9178
-25.6087
-25.6795
-25.8241
-26.0485
-26.363
-26.7825
-27.3289
-28.0326
-28.935
-30.09
-31.5617
-33.4138
-35.6871
-38.3901
-41.6188
-24.5947
-24.6552
-24.7791
-24.9721
-25.2443
-25.6108
-26.0949
-26.7312
-27.5711
-28.6892
-30.1879
-32.1864
-34.7642
-37.8302
-41.2379
-23.5202
-23.5677
-23.6649
-23.8167
-24.0313
-24.3217
-24.7089
-25.2264
-25.929
-26.9079
-28.3136
-30.3774
-33.3464
-36.9124
-37.4291
-37.9222
-38.3632
-38.7803
-39.1715
-39.5359
-39.8735
-40.1847
-40.47
-40.7297
-40.9637
-41.1714
-41.352
-41.5044
-41.6279
-41.7226
-41.7892
-41.8296
-41.847
-41.8449
-41.8276
-41.7995
-41.7642
-41.7246
-41.6824
-41.6383
-41.5915
-41.5406
-41.4836
-41.4187
-41.3442
-41.2597
-41.1654
-41.0627
-40.9538
-40.8416
-40.7289
-40.6182
-40.5113
-40.409
-40.311
-40.2161
-40.1222
-40.0271
-39.9283
-39.8242
-39.7138
-39.597
-39.475
-39.3497
-39.2235
-39.099
-38.9784
-38.8633
-38.7543
-38.6511
-38.5523
-38.456
-38.3598
-38.2615
-38.1594
-38.0523
-37.9405
-37.8248
-37.7071
-37.5898
-37.4752
-37.3656
-37.2627
-37.167
-37.0784
-36.9959
-36.9178
-36.8425
-36.7681
-36.6938
-36.6195
-36.5463
-36.4763
-36.4129
-36.3598
-36.3212
-36.301
-36.302
-36.326
-36.3732
-36.442
-36.5289
-36.629
-36.7361
-36.8432
-37.9522
-38.3978
-38.8177
-39.2101
-39.5746
-39.9116
-40.222
-40.5069
-40.7667
-41.0015
-41.2106
-41.3926
-41.546
-41.6696
-41.763
-41.8268
-41.863
-41.8749
-41.8667
-41.8434
-41.8098
-41.7704
-41.7283
-41.6854
-41.6421
-41.5975
-41.5493
-41.4951
-41.4323
-41.3588
-41.2738
-41.1774
-41.0715
-40.9587
-40.8424
-40.726
-40.6127
-40.5047
-40.4027
-40.3066
-40.2145
-40.1241
-40.0322
-39.9361
-39.8334
-39.7228
-39.6045
-39.4798
-39.351
-39.2211
-39.0933
-38.9705
-38.8544
-38.746
-38.6446
-38.5487
-38.4558
-38.3629
-38.2671
-38.1663
-38.0593
-37.946
-37.8277
-37.7066
-37.5857
-37.468
-37.3562
-37.2521
-37.1567
-37.0696
-36.9894
-36.914
-36.8409
-36.768
-36.6938
-36.618
-36.5415
-36.4669
-36.3979
-36.3389
-36.2949
-36.2703
-36.2688
-36.2926
-36.3421
-36.4158
-36.5099
-36.619
-36.736
-36.8532
-38.0148
-38.4694
-38.8946
-39.289
-39.653
-39.988
-40.2963
-40.5798
-40.8399
-41.0766
-41.2888
-41.4743
-41.6305
-41.7549
-41.8461
-41.9043
-41.9316
-41.9318
-41.9105
-41.874
-41.8288
-41.7804
-41.7331
-41.6889
-41.648
-41.6084
-41.5669
-41.5192
-41.4613
-41.3901
-41.3041
-41.2034
-41.0903
-40.9687
-40.8432
-40.7188
-40.5998
-40.4892
-40.3882
-40.2962
-40.2107
-40.128
-40.0436
-39.9533
-39.8537
-39.7431
-39.6213
-39.4904
-39.3537
-39.2156
-39.0806
-38.9527
-38.8346
-38.7274
-38.6303
-38.5409
-38.4555
-38.3699
-38.2799
-38.1822
-38.0751
-37.9586
-37.8344
-37.7058
-37.577
-37.4522
-37.3354
-37.2291
-37.1344
-37.0508
-36.9759
-36.9066
-36.8391
-36.7698
-36.6961
-36.6172
-36.5339
-36.4494
-36.3683
-36.2965
-36.2405
-36.2063
-36.1991
-36.222
-36.2762
-36.3601
-36.4693
-36.5974
-36.7356
-36.8742
-38.115
-38.5833
-39.0159
-39.4119
-39.7731
-40.103
-40.4062
-40.6866
-40.9468
-41.1871
-41.4056
-41.5984
-41.7608
-41.888
-41.9769
-42.0265
-42.039
-42.0197
-41.9761
-41.9172
-41.8522
-41.7891
-41.7334
-41.6878
-41.652
-41.6224
-41.5932
-41.5578
-41.5095
-41.443
-41.3554
-41.2472
-41.1215
-40.9841
-40.8424
-40.7037
-40.5747
-40.4598
-40.3608
-40.2765
-40.2029
-40.1342
-40.0634
-39.9838
-39.8901
-39.7793
-39.6514
-39.5093
-39.3585
-39.2056
-39.0577
-38.9208
-38.7991
-38.6942
-38.6049
-38.5272
-38.4556
-38.3832
-38.3036
-38.2117
-38.1046
-37.9823
-37.8475
-37.7054
-37.5623
-37.4251
-37.2994
-37.1893
-37.0962
-37.0192
-36.9545
-36.8967
-36.8398
-36.7777
-36.706
-36.6226
-36.5282
-36.4269
-36.3251
-36.2313
-36.1545
-36.1035
-36.0858
-36.1065
-36.1676
-36.2677
-36.4017
-36.5611
-36.7344
-36.9087
-38.2614
-38.7488
-39.19
-39.5851
-39.9382
-40.2566
-40.5489
-40.8226
-41.0823
-41.329
-41.5593
-41.7665
-41.9418
-42.0765
-42.1642
-42.2021
-42.1924
-42.1426
-42.0637
-41.9693
-41.8732
-41.787
-41.719
-41.6729
-41.6471
-41.6355
-41.6287
-41.6152
-41.5839
-41.526
-41.4367
-41.3161
-41.1695
-41.006
-40.8372
-40.6749
-40.5294
-40.4076
-40.3122
-40.2412
-40.1882
-40.1435
-40.096
-40.0347
-39.951
-39.84
-39.7017
-39.5409
-39.3662
-39.1884
-39.0188
-38.867
-38.7395
-38.6387
-38.5625
-38.505
-38.4566
-38.4068
-38.3451
-38.263
-38.1559
-38.0238
-37.8711
-37.7062
-37.5393
-37.3812
-37.2409
-37.1248
-37.035
-36.9697
-36.9228
-36.8857
-36.8479
-36.7995
-36.7328
-36.6436
-36.5325
-36.405
-36.2706
-36.1415
-36.0312
-35.9528
-35.9173
-35.9326
-36.0027
-36.1264
-36.2975
-36.5046
-36.732
-36.961
-38.4681
-38.9808
-39.4307
-39.8187
-40.1532
-40.448
-40.7185
-40.9786
-41.2368
-41.4947
-41.7465
-41.9805
-42.1812
-42.3329
-42.4233
-42.4461
-42.4039
-42.3072
-42.1736
-42.0241
-41.8797
-41.7587
-41.6734
-41.6287
-41.6217
-41.642
-41.6738
-41.6982
-41.6967
-41.6544
-41.563
-41.4226
-41.2418
-41.0355
-40.8225
-40.6219
-40.4498
-40.3174
-40.2286
-40.18
-40.1613
-40.1568
-40.1484
-40.118
-40.0512
-39.9401
-39.7845
-39.5925
-39.3782
-39.1594
-38.9543
-38.7781
-38.6413
-38.5475
-38.4935
-38.4692
-38.4598
-38.4477
-38.4158
-38.3501
-38.2432
-38.0947
-37.9124
-37.7098
-37.5037
-37.3115
-37.1477
-37.0222
-36.9386
-36.8935
-36.8773
-36.8755
-36.8712
-36.8477
-36.7918
-36.696
-36.5604
-36.3931
-36.2083
-36.0246
-35.8621
-35.7401
-35.6754
-35.68
-35.7605
-35.9168
-36.1414
-36.419
-36.727
-37.0382
-38.7562
-39.3034
-39.7604
-40.1294
-40.4257
-40.6742
-40.9033
-41.1374
-41.3918
-41.6691
-41.9595
-42.2425
-42.4912
-42.6779
-42.7795
-42.784
-42.6937
-42.5253
-42.3067
-42.0714
-41.8528
-41.6791
-41.5692
-41.5303
-41.5569
-41.632
-41.7296
-41.8186
-41.8682
-41.8534
-41.7598
-41.5875
-41.3508
-41.0747
-40.7901
-40.5276
-40.3133
-40.1644
-40.0872
-40.0759
-40.1139
-40.1759
-40.2324
-40.2535
-40.2153
-40.1041
-39.9198
-39.676
-39.3967
-39.1109
-38.848
-38.6325
-38.481
-38.3992
-38.3816
-38.4121
-38.4668
-38.5172
-38.5349
-38.4969
-38.3901
-38.2145
-37.983
-37.7183
-37.4482
-37.2007
-36.9992
-36.8594
-36.7867
-36.7757
-36.8108
-36.8688
-36.9219
-36.9426
-36.9081
-36.8055
-36.6341
-36.4062
-36.1444
-35.877
-35.6344
-35.4452
-35.3336
-35.318
-35.409
-35.6089
-35.9091
-36.2894
-36.7172
-37.1513
-39.159
-39.7557
-40.217
-40.5448
-40.7668
-40.9286
-41.0809
-41.2672
-41.5137
-41.8248
-42.1831
-42.5538
-42.8908
-43.1452
-43.2757
-43.2586
-43.0959
-42.8156
-42.4637
-42.0947
-41.7613
-41.5076
-41.3628
-41.3375
-41.4224
-41.5898
-41.7976
-41.9957
-42.1327
-42.1658
-42.0699
-41.8451
-41.5164
-41.1264
-40.7258
-40.3641
-40.0825
-39.9082
-39.8507
-39.9008
-40.0317
-40.2032
-40.3671
-40.4746
-40.4845
-40.3732
-40.1407
-39.8109
-39.4244
-39.0295
-38.6733
-38.3949
-38.2203
-38.1584
-38.2002
-38.3203
-38.48
-38.6336
-38.7341
-38.7425
-38.6361
-38.4148
-38.1013
-37.7344
-37.3602
-37.0236
-36.7619
-36.5998
-36.5459
-36.5914
-36.7115
-36.869
-37.0194
-37.1168
-37.1227
-37.0139
-36.7889
-36.4683
-36.0884
-35.6938
-35.3298
-35.0382
-34.8537
-34.8022
-34.9009
-35.1562
-35.5616
-36.0913
-36.6985
-37.3184
-39.7269
-40.4032
-40.8657
-41.1127
-41.1949
-41.1965
-41.2097
-41.3103
-41.5428
-41.9126
-42.3891
-42.9137
-43.4092
-43.7913
-43.9845
-43.9427
-43.6678
-43.209
-42.6457
-42.0666
-41.5552
-41.1794
-40.9843
-40.9862
-41.1693
-41.4892
-41.8798
-42.2607
-42.547
-42.6639
-42.5657
-42.2525
-41.7702
-41.1933
-40.6055
-40.0854
-39.6973
-39.4836
-39.4595
-39.6095
-39.8912
-40.2413
-40.5832
-40.836
-40.9283
-40.8168
-40.5019
-40.0273
-39.4642
-38.8923
-38.3865
-38.008
-37.7971
-37.7681
-37.9063
-38.1711
-38.5022
-38.8262
-39.0661
-39.1536
-39.0474
-38.7477
-38.2964
-37.761
-37.2179
-36.7385
-36.3811
-36.1844
-36.162
-36.2996
-36.5582
-36.8796
-37.1929
-37.4228
-37.5024
-37.3895
-37.0816
-36.6156
-36.0537
-35.4662
-34.921
-34.4772
-34.1819
-34.0704
-34.1669
-34.4877
-35.0348
-35.7815
-36.6612
-37.5692
-40.5365
-41.3587
-41.8247
-41.918
-41.7388
-41.4481
-41.2124
-41.1634
-41.3742
-41.8468
-42.5258
-43.3154
-44.0911
-44.7096
-45.0316
-44.9627
-44.5043
-43.7531
-42.8502
-41.9412
-41.1538
-40.5909
-40.3223
-40.3741
-40.719
-41.2868
-41.9759
-42.662
-43.2053
-43.4719
-43.371
-42.9034
-42.1604
-41.2759
-40.3875
-39.6167
-39.0608
-38.7861
-38.8174
-39.1284
-39.652
-40.2913
-40.9278
-41.4284
-41.6656
-41.5534
-41.0928
-40.3713
-39.5165
-38.6598
-37.9165
-37.3796
-37.112
-37.1372
-37.43
-37.9266
-38.5343
-39.1402
-39.6172
-39.8436
-39.7373
-39.2991
-38.6123
-37.7988
-36.9838
-36.2776
-35.7689
-35.5181
-35.5476
-35.8334
-36.3144
-36.9018
-37.4865
-37.9453
-38.1592
-38.0458
-37.6016
-36.9013
-36.0555
-35.1776
-34.3663
-33.702
-33.2457
-33.0389
-33.11
-33.4932
-34.2204
-35.2803
-36.5831
-37.9539
-41.6974
-42.8273
-43.3205
-43.1154
-42.4431
-41.6207
-40.9464
-40.6423
-40.8289
-41.4836
-42.5032
-43.7373
-44.9994
-46.0548
-46.6415
-46.5438
-45.7627
-44.5155
-43.0639
-41.6407
-40.4293
-39.5787
-39.1988
-39.34
-39.9479
-40.9098
-42.0766
-43.2687
-44.2623
-44.8089
-44.7045
-43.9508
-42.7544
-41.3639
-40.0005
-38.8384
-38.0194
-37.6481
-37.7727
-38.3412
-39.2462
-40.3455
-41.4679
-42.4001
-42.9059
-42.7916
-42.0595
-40.9072
-39.5717
-38.2638
-37.1494
-36.3633
-36.0051
-36.1207
-36.6604
-37.5218
-38.5692
-39.6395
-40.5292
-41.0127
-40.9051
-40.2084
-39.1108
-37.8387
-36.593
-35.5322
-34.7854
-34.4479
-34.5639
-35.0862
-35.9174
-36.9279
-37.9611
-38.8206
-39.2871
-39.1784
-38.4904
-37.3963
-36.1038
-34.793
-33.5996
-32.6275
-31.9499
-31.6072
-31.6037
-32.003
-32.9271
-34.4293
-36.4072
-38.5609
-43.3367
-45.2136
-45.8219
-44.9851
-43.3628
-41.5803
-40.1474
-39.4144
-39.6097
-40.5951
-42.1717
-44.1189
-46.2056
-48.075
-49.2371
-49.1091
-47.6922
-45.5723
-43.2366
-41.0352
-39.1853
-37.8888
-37.3248
-37.634
-38.667
-40.2376
-42.1408
-44.1615
-45.963
-47.0834
-46.9731
-45.6356
-43.6278
-41.4131
-39.3236
-37.5662
-36.3332
-35.7959
-36.0887
-37.0695
-38.5606
-40.3664
-42.2818
-43.9859
-45.0392
-44.9194
-43.6313
-41.7067
-39.5872
-37.5893
-35.9094
-34.7308
-34.2161
-34.4936
-35.4277
-36.849
-38.5713
-40.3989
-42.026
-43.033
-42.9213
-41.6948
-39.8607
-37.8403
-35.9358
-34.3347
-33.2125
-32.7249
-32.9949
-33.8942
-35.262
-36.9213
-38.6857
-40.2617
-41.2433
-41.1451
-39.9638
-38.1771
-36.1781
-34.2394
-32.5143
-31.1286
-30.172
-29.6872
-29.5171
-29.7574
-30.801
-32.8931
-35.9781
-39.5565
-45.4458
-49.4303
-50.408
-47.9848
-44.5106
-41.0359
-38.3406
-36.85
-37.253
-38.8551
-41.3067
-44.2997
-47.7246
-51.1139
-53.6903
-53.5307
-50.6343
-46.9398
-43.216
-39.9238
-37.1443
-35.1442
-34.1937
-34.8855
-36.6121
-39.0867
-42.0361
-45.3696
-48.6446
-51.1302
-51.0089
-48.2855
-44.7995
-41.2817
-38.1687
-35.5386
-33.6454
-32.7484
-33.414
-35.0629
-37.4217
-40.2297
-43.3998
-46.5089
-48.8616
-48.7296
-46.1196
-42.7868
-39.4277
-36.4568
-33.9478
-32.142
-31.2863
-31.9209
-33.4932
-35.7429
-38.4216
-41.4468
-44.4157
-46.6643
-46.5426
-44.056
-40.8787
-37.6752
-34.8414
-32.4478
-30.7255
-29.9107
-30.5199
-32.0275
-34.1868
-36.7634
-39.6817
-42.5585
-44.7544
-44.6716
-42.3088
-39.2636
-36.1657
-33.378
-30.9403
-29.012
-27.7144
-27.3139
-26.8396
-26.3547
-27.1653
-29.9272
-34.8383
-41.2753
-46.9729
-57.9851
-59.9133
-52.5063
-45.6524
-39.3657
-34.7979
-31.5588
-33.1694
-35.892
-39.6619
-43.8587
-49.295
-55.3235
-62.0837
-61.8931
-54.7255
-48.3498
-42.574
-38.0743
-33.9808
-30.8884
-28.6977
-30.6469
-33.4803
-37.2519
-41.3782
-46.6622
-52.4629
-58.931
-58.792
-52.0333
-46.017
-40.5675
-36.3186
-32.4497
-29.5232
-27.4507
-29.3234
-32.0339
-35.6362
-39.5715
-44.6056
-50.1213
-56.2617
-56.1084
-49.6486
-43.905
-38.7089
-34.6592
-30.9734
-28.185
-26.2106
-27.9977
-30.5832
-34.0189
-37.7728
-42.576
-47.8423
-53.709
-53.5693
-47.4115
-41.9345
-36.9778
-33.1132
-29.594
-26.9316
-25.0459
-26.7512
-29.2223
-32.5104
-36.1136
-40.7373
-45.8357
-51.5466
-51.4811
-45.6367
-40.4257
-35.7065
-32.0126
-28.6327
-25.987
-23.9651
-25.047
-24.1774
-21.0864
-20.7197
-23.8664
-31.5011
-44.4384
-40.735
-79.5984
-82.9381
-56.3101
-45.9882
-35.2191
-29.3417
-19.2838
-27.4845
-31.4208
-37.4024
-41.6331
-50.0125
-58.4794
-80.4865
-80.3025
-57.6767
-48.8959
-40.0946
-35.6399
-29.376
-25.3339
-17.2403
-25.135
-28.9974
-34.9064
-39.0531
-47.211
-55.32
-76.2459
-76.1074
-54.7123
-46.4183
-38.1243
-33.9213
-28.0038
-24.1713
-16.472
-24.0263
-27.7209
-33.371
-37.331
-45.118
-52.8342
-72.7246
-72.5684
-52.1464
-44.2347
-36.3392
-32.3378
-26.7064
-23.0561
-15.7182
-22.9249
-26.449
-31.8368
-35.613
-43.038
-50.4046
-69.4027
-69.2621
-49.7868
-42.2409
-34.7075
-30.8875
-25.5065
-22.0193
-15.0102
-21.8794
-25.2406
-30.3802
-33.9941
-41.1092
-48.2311
-66.6566
-66.6124
-48.0522
-40.8796
-33.7707
-30.1949
-25.2678
-22.0639
-15.7461
-25.5902
-24.7138
-11.8951
-9.21468
-11.3428
-20.5279
-50.6038
-36.9522
-37.0523
-37.1236
-37.1607
-37.1618
-37.1288
-37.0665
-36.9819
-36.8831
-36.779
-36.6777
-36.587
-36.5132
-36.4611
-36.4343
-36.9723
-37.0811
-37.1578
-37.1966
-37.1959
-37.1581
-37.0888
-36.9959
-36.8885
-36.776
-36.6672
-36.5701
-36.4913
-36.4359
-36.4073
-37.0146
-37.142
-37.23
-37.272
-37.267
-37.2187
-37.1346
-37.0244
-36.8991
-36.7692
-36.6449
-36.5348
-36.446
-36.3838
-36.3518
-37.0846
-37.2421
-37.348
-37.3944
-37.3814
-37.3151
-37.2064
-37.0681
-36.914
-36.7569
-36.6084
-36.4782
-36.374
-36.3014
-36.2642
-37.1911
-37.394
-37.5253
-37.5762
-37.5488
-37.454
-37.3077
-37.1277
-36.9318
-36.7359
-36.5536
-36.3956
-36.2704
-36.1837
-36.1394
-37.3487
-37.6173
-37.783
-37.8362
-37.7838
-37.6444
-37.4425
-37.2031
-36.9495
-36.7014
-36.4743
-36.2803
-36.128
-36.0235
-35.9703
-37.5809
-37.9436
-38.1533
-38.2016
-38.1055
-37.8975
-37.6147
-37.2927
-36.9618
-36.6456
-36.3619
-36.1232
-35.938
-35.8118
-35.748
-37.9261
-38.4227
-38.685
-38.7113
-38.5393
-38.2251
-37.8259
-37.3912
-36.9592
-36.5575
-36.2045
-35.9125
-35.6888
-35.5377
-35.4617
-38.4488
-39.1361
-39.4527
-39.4192
-39.1154
-38.6377
-38.0727
-37.487
-36.9264
-36.4204
-35.9862
-35.6335
-35.3669
-35.1886
-35.0994
-39.262
-40.22
-40.5706
-40.3974
-39.8651
-39.1374
-38.3402
-37.5575
-36.8391
-36.2113
-35.6864
-35.2682
-34.9567
-34.7505
-34.6478
-40.5767
-41.9111
-42.2124
-41.7345
-40.8104
-39.7065
-38.5932
-37.5637
-36.6609
-35.8995
-35.2798
-34.7961
-34.4413
-34.2086
-34.0936
-42.8175
-44.6353
-44.6332
-43.5179
-41.9354
-40.2849
-38.7624
-37.4431
-36.3414
-35.4459
-34.7371
-34.1952
-33.8035
-33.5492
-33.4242
-46.9319
-49.1791
-48.1673
-45.7684
-43.1284
-40.7351
-38.7284
-37.1049
-35.8156
-34.8056
-34.0275
-33.4441
-33.0281
-32.7606
-32.6297
-55.3195
-56.9819
-53.0886
-48.2598
-44.0747
-40.7987
-38.3112
-36.4324
-35.0104
-33.9334
-33.1231
-32.5256
-32.1043
-31.8354
-31.7043
-75.0674
-70.3405
-58.9453
-50.1073
-44.1118
-40.0736
-37.2853
-35.3031
-33.8601
-32.7945
-32.006
-31.4308
-31.0281
-30.7722
-30.6478
-22.4916
-22.5252
-22.5937
-22.7002
-22.8498
-23.0513
-23.319
-23.6774
-24.1707
-24.8836
-25.9912
-27.8848
-31.4837
-38.8208
-52.0594
-21.5333
-21.5533
-21.5936
-21.6552
-21.7398
-21.8505
-21.9925
-22.1756
-22.4198
-22.7692
-23.3328
-24.4271
-27.1642
-36.3917
-77.9038
-20.5612
-20.5672
-20.5786
-20.5942
-20.6118
-20.6281
-20.6375
-20.6315
-20.5961
-20.5061
-20.3054
-19.8203
-18.2876
-11.5369
25.3338
-19.585
-19.5774
-19.5608
-19.5319
-19.4849
-19.4104
-19.2932
-19.1079
-18.8106
-18.3202
-17.4761
-15.9382
-12.9891
-7.59298
-3.84995
-18.614
-18.594
-18.5517
-18.4822
-18.3771
-18.2225
-17.9963
-17.6623
-17.1593
-16.3803
-15.1302
-13.0402
-9.38251
-2.49567
13.5125
-17.6569
-17.626
-17.5614
-17.4573
-17.3036
-17.0843
-16.7744
-16.334
-15.6997
-14.7675
-13.3677
-11.2334
-8.01892
-3.73049
-1.95993
-16.7213
-16.6814
-16.5986
-16.4669
-16.2757
-16.0092
-15.643
-15.1406
-14.4469
-13.4794
-12.1153
-10.1774
-7.40151
-3.21617
5.04773
-15.8136
-15.7666
-15.67
-15.5177
-15.3003
-15.0034
-14.6063
-14.08
-13.3845
-12.4667
-11.2614
-9.70337
-7.76304
-5.53396
-3.45498
-14.9384
-14.8864
-14.7799
-14.6138
-14.3801
-14.0671
-13.6594
-13.1371
-12.4766
-11.6536
-10.6526
-9.49492
-8.32515
-7.74738
-10.5135
-14.0994
-14.044
-13.9313
-13.757
-13.515
-13.1967
-12.792
-12.2901
-11.6816
-10.9641
-10.1525
-9.29491
-8.47621
-7.63854
-4.91319
-13.2988
-13.2416
-13.1255
-12.9474
-12.7028
-12.3863
-11.9923
-11.5172
-10.9622
-10.3401
-9.68456
-9.06789
-8.64049
-8.84048
-11.9991
-12.5381
-12.48
-12.3627
-12.1839
-11.9406
-11.6297
-11.249
-10.7998
-10.2897
-9.7392
-9.18965
-8.70948
-8.36911
-7.98775
-5.27934
-11.8177
-11.7597
-11.6427
-11.4652
-11.2254
-10.9215
-10.5535
-10.1246
-9.64516
-9.13776
-8.64659
-8.25401
-8.12625
-8.7509
-12.6769
-11.1377
-11.0803
-10.9647
-10.79
-10.5547
-10.258
-9.90018
-9.48463
-9.0201
-8.52509
-8.03512
-7.61469
-7.3609
-7.22134
-5.00816
-10.4976
-10.4413
-10.3279
-10.1568
-9.92678
-9.6369
-9.28705
-8.87872
-8.41627
-7.90897
-7.3754
-6.85969
-6.51625
-7.13169
-13.5943
-9.8968
-9.8418
-9.73136
-9.56462
-9.34043
-9.05751
-8.71458
-8.31043
-7.84363
-7.31113
-6.70332
-5.9851
-5.00578
-2.98142
4.85195
-9.33419
-9.28092
-9.17393
-9.01236
-8.79493
-8.51985
-8.18467
-7.7857
-7.31668
-6.76565
-6.10798
-5.29188
-4.22109
-2.86507
-2.78108
-8.80864
-8.75738
-8.65444
-8.49895
-8.28951
-8.02398
-7.69912
-7.30968
-6.84673
-6.29427
-5.62273
-4.77558
-3.63454
-1.86524
2.16724
-8.31874
-8.2698
-8.17152
-8.02308
-7.82309
-7.56937
-7.25847
-6.88477
-6.43899
-5.90564
-5.25951
-4.46343
-3.48437
-2.43694
-2.60586
-7.86289
-7.81653
-7.72348
-7.58305
-7.39404
-7.15454
-6.86148
-6.50997
-6.09213
-5.59541
-5.00047
-4.27842
-3.38175
-2.16383
0.330178
-7.43929
-7.39574
-7.30841
-7.17682
-7.00012
-6.77695
-6.50515
-6.18131
-5.8001
-5.35345
-4.82977
-4.21476
-3.50229
-2.77674
-2.82689
-7.046
-7.00541
-6.92414
-6.80198
-6.63853
-6.4332
-6.18503
-5.89255
-5.55359
-5.16505
-4.72257
-4.21885
-3.63199
-2.85084
-1.19634
-6.68094
-6.6434
-6.56834
-6.45586
-6.30609
-6.11926
-5.89574
-5.63614
-5.34158
-5.01417
-4.65798
-4.28075
-3.8967
-3.53129
-3.23784
-6.34203
-6.30749
-6.23859
-6.1357
-5.99945
-5.83087
-5.63157
-5.40407
-5.15245
-4.88335
-4.60807
-4.34747
-4.14854
-4.16161
-5.07482
-6.02716
-5.99551
-5.93251
-5.83876
-5.71533
-5.56389
-5.38704
-5.18883
-4.97553
-4.75689
-4.54804
-4.37144
-4.25325
-4.16669
-3.56281
-5.73433
-5.70538
-5.64783
-5.5625
-5.45072
-5.31461
-5.15742
-4.98414
-4.80237
-4.62371
-4.46569
-4.35493
-4.33605
-4.53088
-5.6131
-5.46168
-5.43516
-5.38253
-5.30467
-5.20307
-5.08003
-4.93905
-4.78542
-4.62714
-4.47625
-4.35061
-4.2747
-4.27053
-4.27867
-3.58654
-5.2075
-5.18313
-5.1348
-5.0634
-4.97038
-4.85797
-4.72953
-4.59
-4.44684
-4.31134
-4.20106
-4.14471
-4.19653
-4.51261
-5.90623
-4.97031
-4.9478
-4.90317
-4.8372
-4.75121
-4.64712
-4.52776
-4.39718
-4.2613
-4.12897
-4.01415
-3.93969
-3.9391
-3.99808
-3.39772
-4.74881
-4.7279
-4.68641
-4.62498
-4.54467
-4.44695
-4.33386
-4.20812
-4.07335
-3.93453
-3.79929
-3.68344
-3.64039
-3.94128
-6.26678
-4.5419
-4.52237
-4.48355
-4.42594
-4.35028
-4.25752
-4.14882
-4.02539
-3.88828
-3.73766
-3.57104
-3.37672
-3.1029
-2.47835
0.152669
-4.34861
-4.33029
-4.29381
-4.23951
-4.16783
-4.07923
-3.97406
-3.85225
-3.71267
-3.55199
-3.3621
-3.1253
-2.80904
-2.40865
-2.50274
-4.16811
-4.15087
-4.11652
-4.06522
-3.99718
-3.9125
-3.81093
-3.6915
-3.55179
-3.38665
-3.18583
-2.92912
-2.57368
-1.99541
-0.575993
-3.99963
-3.98342
-3.95104
-3.90261
-3.83817
-3.75757
-3.66028
-3.54491
-3.40864
-3.24618
-3.04843
-2.80159
-2.49315
-2.16613
-2.30957
-3.84248
-3.82724
-3.79679
-3.75119
-3.69043
-3.61431
-3.52224
-3.41289
-3.28374
-3.13029
-2.94519
-2.7169
-2.42558
-2.01001
-1.08554
-3.69598
-3.68168
-3.65312
-3.61036
-3.55342
-3.48219
-3.39625
-3.2947
-3.17578
-3.03645
-2.87202
-2.67607
-2.44437
-2.20714
-2.27529
-3.55948
-3.54609
-3.51937
-3.47944
-3.4264
-3.36034
-3.28118
-3.18865
-3.08204
-2.96013
-2.8208
-2.66013
-2.46708
-2.19204
-1.54939
-3.43232
-3.41981
-3.39486
-3.35767
-3.30849
-3.24763
-3.17547
-3.09243
-2.99901
-2.89596
-2.78448
-2.66674
-2.5468
-2.43208
-2.33878
-3.31392
-3.30221
-3.27892
-3.2443
-3.19875
-3.14285
-3.07738
-3.00347
-2.92274
-2.83772
-2.75256
-2.67497
-2.62297
-2.65709
-3.0627
-3.20372
-3.19272
-3.1709
-3.13857
-3.09626
-3.04476
-2.98522
-2.9193
-2.84951
-2.77964
-2.71545
-2.66549
-2.63941
-2.624
-2.38413
-3.1012
-3.09081
-3.07023
-3.03982
-3.00021
-2.95232
-2.89754
-2.83789
-2.77641
-2.71767
-2.66854
-2.63949
-2.64851
-2.74663
-3.2218
-3.00594
-2.99604
-2.97644
-2.94753
-2.90996
-2.86473
-2.81329
-2.75781
-2.70148
-2.64909
-2.60774
-2.58714
-2.5958
-2.60727
-2.31467
-2.91761
-2.90807
-2.88916
-2.86129
-2.82509
-2.7815
-2.73192
-2.67837
-2.62386
-2.57291
-2.53259
-2.51454
-2.54122
-2.67894
-3.27785
-2.83597
-2.82665
-2.80817
-2.7809
-2.7454
-2.70249
-2.65336
-2.59967
-2.54382
-2.4894
-2.44203
-2.41094
-2.40959
-2.43021
-2.16184
-2.76084
-2.75163
-2.73334
-2.70628
-2.6709
-2.62785
-2.57801
-2.52251
-2.46285
-2.40106
-2.34023
-2.28676
-2.26277
-2.38203
-3.35338
-2.69217
-2.68296
-2.66465
-2.63748
-2.60178
-2.55799
-2.50664
-2.44829
-2.38341
-2.31212
-2.23336
-2.14216
-2.01653
-1.742
-0.621387
-2.62994
-2.62065
-2.60217
-2.57465
-2.53832
-2.49342
-2.44018
-2.37865
-2.30848
-2.22841
-2.13519
-2.02152
-1.87375
-1.68941
-1.70819
-2.5742
-2.56478
-2.54601
-2.51799
-2.48085
-2.4347
-2.37953
-2.31506
-2.24048
-2.15387
-2.05127
-1.9246
-1.7564
-1.49565
-0.889085
-2.52504
-2.51545
-2.49631
-2.4677
-2.42968
-2.38228
-2.32537
-2.25855
-2.18087
-2.09049
-1.98409
-1.85658
-1.70338
-1.54192
-1.56675
-2.48259
-2.4728
-2.45324
-2.42399
-2.38508
-2.3365
-2.27814
-2.20961
-2.13014
-2.03827
-1.93162
-1.80643
-1.65611
-1.45872
-1.06888
-2.44697
-2.43696
-2.41695
-2.38702
-2.34722
-2.29757
-2.23801
-2.16832
-2.08804
-1.99636
-1.89207
-1.77377
-1.64157
-1.50907
-1.49222
-2.41835
-2.40809
-2.38759
-2.35695
-2.31624
-2.26555
-2.20495
-2.13442
-2.0539
-1.96324
-1.86228
-1.75081
-1.62727
-1.47902
-1.21652
-2.3969
-2.38636
-2.36533
-2.3339
-2.29222
-2.24046
-2.17882
-2.10751
-2.02684
-1.9373
-1.83982
-1.73626
-1.63017
-1.52821
-1.44508
-2.38281
-2.37195
-2.35031
-2.318
-2.27524
-2.22227
-2.15943
-2.08713
-2.00597
-1.91691
-1.82163
-1.7235
-1.63022
-1.56426
-1.61555
-2.37629
-2.36507
-2.34272
-2.30941
-2.26538
-2.21098
-2.14664
-2.07293
-1.99063
-1.90086
-1.80545
-1.70742
-1.61134
-1.51879
-1.38178
-2.37759
-2.36595
-2.34278
-2.30828
-2.26276
-2.20661
-2.14038
-2.06473
-1.98049
-1.88877
-1.79113
-1.69
-1.59004
-1.50411
-1.49205
-2.387
-2.37487
-2.35074
-2.31485
-2.26753
-2.20928
-2.1407
-2.06252
-1.97558
-1.88083
-1.77925
-1.6718
-1.55903
-1.43806
-1.27763
-2.40485
-2.39216
-2.36691
-2.32936
-2.27993
-2.21915
-2.14772
-2.06643
-1.97613
-1.87765
-1.77147
-1.65734
-1.53375
-1.39935
-1.26749
-2.43155
-2.4182
-2.39163
-2.35216
-2.30023
-2.23646
-2.16161
-2.0766
-1.9824
-1.87984
-1.76925
-1.64947
-1.516
-1.3588
-1.17759
-2.46755
-2.45343
-2.42535
-2.38363
-2.32878
-2.26147
-2.18258
-2.09319
-1.99448
-1.88764
-1.77343
-1.65113
-1.51475
-1.33487
-0.949508
-2.51337
-2.49838
-2.46856
-2.42426
-2.366
-2.29454
-2.21087
-2.11626
-2.01223
-1.90058
-1.78325
-1.66258
-1.54372
-1.45359
-1.57443
-2.56963
-2.55365
-2.52185
-2.47459
-2.41241
-2.33611
-2.24679
-2.14589
-2.03531
-1.91747
-1.79541
-1.6728
-1.55277
-1.42574
-1.16221
-2.63701
-2.61992
-2.5859
-2.53529
-2.46864
-2.38675
-2.29076
-2.18226
-2.06344
-1.93731
-1.80798
-1.68124
-1.56667
-1.49265
-1.62095
-2.71628
-2.69797
-2.66149
-2.60716
-2.53548
-2.4472
-2.34344
-2.22582
-2.09666
-1.95937
-1.81877
-1.68123
-1.55244
-1.419
-1.11448
-2.80828
-2.78865
-2.7495
-2.69109
-2.61385
-2.51842
-2.40577
-2.27739
-2.13555
-1.98376
-1.82745
-1.67514
-1.54144
-1.46411
-1.63435
-2.91393
-2.89289
-2.8509
-2.78812
-2.70487
-2.6016
-2.47903
-2.33833
-2.18136
-2.01128
-1.83336
-1.65614
-1.49129
-1.33728
-1.03435
-3.03421
-3.01171
-2.96674
-2.89939
-2.8098
-2.6982
-2.56491
-2.41056
-2.23629
-2.04427
-1.83879
-1.62856
-1.43362
-1.31382
-1.51909
-3.17014
-3.14613
-3.09813
-3.02611
-2.93005
-2.80986
-2.66543
-2.49665
-2.30355
-2.08662
-1.84753
-1.59036
-1.32376
-1.06459
-0.851059
-3.32274
-3.29724
-3.24621
-3.16955
-3.06705
-2.93836
-2.78287
-2.59964
-2.38736
-2.14437
-1.86882
-1.55873
-1.20876
-0.783632
-0.0346388
-3.49306
-3.4661
-3.41211
-3.33093
-3.22226
-3.08548
-2.91957
-2.72281
-2.49252
-2.22473
-1.91411
-1.55479
-1.14596
-0.727558
-0.636026
-3.68211
-3.65373
-3.59689
-3.51143
-3.39699
-3.25285
-3.07771
-2.86928
-2.62372
-2.33484
-1.99322
-1.58524
-1.08981
-0.444471
0.764277
-3.89088
-3.86112
-3.80156
-3.71207
-3.59234
-3.44175
-3.25897
-3.04155
-2.78502
-2.48159
-2.11842
-1.67642
-1.13776
-0.552622
-0.512143
-4.12033
-4.08923
-4.02702
-3.9337
-3.80915
-3.653
-3.46429
-3.24098
-2.97888
-2.66985
-2.29836
-1.83472
-1.21801
-0.282518
1.75583
-4.37139
-4.33893
-4.27409
-4.17703
-4.04792
-3.88686
-3.69366
-3.46735
-3.20533
-2.90147
-2.54231
-2.09934
-1.51964
-0.778271
-0.626354
-4.645
-4.61113
-4.54355
-4.44262
-4.30888
-4.14306
-3.94602
-3.71854
-3.46085
-3.17151
-2.84446
-2.45891
-1.93353
-0.864672
3.16277
-4.94215
-4.90674
-4.83617
-4.73099
-4.59211
-4.42094
-4.21953
-3.9907
-3.73834
-3.46775
-3.18723
-2.9156
-2.72484
-3.00563
-6.23488
-5.26388
-5.22677
-5.15284
-5.04277
-4.89778
-4.71984
-4.51206
-4.27922
-4.0285
-3.77089
-3.52383
-3.31614
-3.18869
-3.09903
-1.89137
-5.61139
-5.57236
-5.4946
-5.37882
-5.22633
-5.03945
-4.82202
-4.58015
-4.32344
-4.0667
-3.8331
-3.66095
-3.62629
-3.96881
-6.01239
-5.98601
-5.94486
-5.86278
-5.74035
-5.57876
-5.38029
-5.14894
-4.8914
-4.61841
-4.34644
-4.09971
-3.91029
-3.80194
-3.6573
-2.24933
-6.38921
-6.34578
-6.25898
-6.12907
-5.95681
-5.74396
-5.49404
-5.21339
-4.91267
-4.60866
-4.32651
-4.10334
-4.0028
-4.2231
-5.95643
-6.82257
-6.77682
-6.68512
-6.54721
-6.36306
-6.13338
-5.86047
-5.54932
-5.20922
-4.85569
-4.51235
-4.21122
-3.98086
-3.73817
-2.41929
-7.28769
-7.23977
-7.14336
-6.99746
-6.80091
-6.55283
-6.25346
-5.90534
-5.5151
-5.09565
-4.66888
-4.26994
-3.96749
-4.00059
-5.66027
-7.7861
-7.73639
-7.63596
-7.48289
-7.27454
-7.0079
-6.6803
-6.29063
-5.84125
-5.34068
-4.80608
-4.26167
-3.7211
-3.13345
-2.3598
-8.31904
-8.26822
-8.16511
-8.00671
-7.78865
-7.50529
-7.15024
-6.71738
-6.20296
-5.60934
-4.95011
-4.25071
-3.50741
-2.39548
1.47793
-8.88726
-8.83638
-8.73264
-8.57197
-8.34811
-8.05248
-7.67422
-7.20077
-6.61968
-5.92358
-5.12202
-4.27025
-3.54971
-3.5752
-7.01047
-9.49081
-9.44125
-9.33971
-9.1811
-8.9574
-8.65703
-8.26431
-7.75889
-7.11625
-6.31104
-5.32879
-4.19867
-3.07392
-2.38703
-2.86851
-10.1288
-10.0822
-9.98639
-9.83544
-9.61992
-9.32573
-8.93265
-8.41232
-7.72572
-6.82145
-5.63825
-4.12336
-2.29407
-0.387501
0.939063
-10.799
-10.7574
-10.6714
-10.5346
-10.3371
-10.0631
-9.68937
-9.18119
-8.48636
-7.52555
-6.17804
-4.26637
-1.56788
2.0148
5.66783
-11.4982
-11.4635
-11.3915
-11.276
-11.1073
-10.8697
-10.5394
-10.0797
-9.4317
-8.49818
-7.10963
-4.95578
-1.45573
4.36825
12.9334
-12.2214
-12.1956
-12.1417
-12.0545
-11.9253
-11.7406
-11.4795
-11.1089
-10.5753
-9.7868
-8.57266
-6.58006
-2.9574
4.81808
26.1469
-147.675
-88.6984
-61.9698
-49.1953
-42.3516
-38.2631
-35.606
-33.7736
-32.4597
-31.4966
-30.7863
-30.269
-29.907
-29.677
-29.5652
-183.802
-82.9932
-55.0289
-44.2476
-38.8379
-35.6231
-33.5067
-32.023
-30.9429
-30.141
-29.5435
-29.1049
-28.7962
-28.5993
-28.5033
47.5778
-26.702
-36.1554
-35.5695
-33.7999
-32.2205
-30.9679
-29.9922
-29.2329
-28.6434
-28.1903
-27.8505
-27.6078
-27.4514
-27.3749
-6.97229
-15.4293
-24.2535
-27.7133
-28.63
-28.5908
-28.2366
-27.8111
-27.4051
-27.051
-26.7585
-26.5286
-26.3593
-26.2482
-26.1932
26.3575
-3.90168
-16.0769
-21.6232
-24.1238
-25.1797
-25.555
-25.6164
-25.5411
-25.4157
-25.2831
-25.1646
-25.0705
-25.006
-24.9733
-1.30663
-4.9324
-12.5038
-17.6482
-20.6209
-22.2412
-23.0914
-23.5167
-23.7119
-23.7855
-23.7981
-23.7835
-23.7611
-23.7416
-23.7306
11.7593
-3.22316
-10.6161
-15.1812
-18.057
-19.8376
-20.9227
-21.5767
-21.9672
-22.1977
-22.3317
-22.4079
-22.4498
-22.4713
-22.4803
-2.98282
-6.78443
-10.6923
-13.8872
-16.2538
-17.9169
-19.0535
-19.8198
-20.3334
-20.6769
-20.9055
-21.0562
-21.1526
-21.2097
-21.2362
-15.085
-10.272
-11.2635
-13.1685
-14.9391
-16.3619
-17.4414
-18.2382