# vtk DataFile Version 2.0
generated by CFD-lab course output (written by Tobias Neckel) 
ASCII

DATASET STRUCTURED_GRID
DIMENSIONS  49 19 1 
POINTS 931 float

0.000000 0.000000 0
0.200000 0.000000 0
0.400000 0.000000 0
0.600000 0.000000 0
0.800000 0.000000 0
1.000000 0.000000 0
1.200000 0.000000 0
1.400000 0.000000 0
1.600000 0.000000 0
1.800000 0.000000 0
2.000000 0.000000 0
2.200000 0.000000 0
2.400000 0.000000 0
2.600000 0.000000 0
2.800000 0.000000 0
3.000000 0.000000 0
3.200000 0.000000 0
3.400000 0.000000 0
3.600000 0.000000 0
3.800000 0.000000 0
4.000000 0.000000 0
4.200000 0.000000 0
4.400000 0.000000 0
4.600000 0.000000 0
4.800000 0.000000 0
5.000000 0.000000 0
5.200000 0.000000 0
5.400000 0.000000 0
5.600000 0.000000 0
5.800000 0.000000 0
6.000000 0.000000 0
6.200000 0.000000 0
6.400000 0.000000 0
6.600000 0.000000 0
6.800000 0.000000 0
7.000000 0.000000 0
7.200000 0.000000 0
7.400000 0.000000 0
7.600000 0.000000 0
7.800000 0.000000 0
8.000000 0.000000 0
8.200000 0.000000 0
8.400000 0.000000 0
8.600000 0.000000 0
8.800000 0.000000 0
9.000000 0.000000 0
9.200000 0.000000 0
9.400000 0.000000 0
9.600000 0.000000 0
0.000000 0.200000 0
0.200000 0.200000 0
0.400000 0.200000 0
0.600000 0.200000 0
0.800000 0.200000 0
1.000000 0.200000 0
1.200000 0.200000 0
1.400000 0.200000 0
1.600000 0.200000 0
1.800000 0.200000 0
2.000000 0.200000 0
2.200000 0.200000 0
2.400000 0.200000 0
2.600000 0.200000 0
2.800000 0.200000 0
3.000000 0.200000 0
3.200000 0.200000 0
3.400000 0.200000 0
3.600000 0.200000 0
3.800000 0.200000 0
4.000000 0.200000 0
4.200000 0.200000 0
4.400000 0.200000 0
4.600000 0.200000 0
4.800000 0.200000 0
5.000000 0.200000 0
5.200000 0.200000 0
5.400000 0.200000 0
5.600000 0.200000 0
5.800000 0.200000 0
6.000000 0.200000 0
6.200000 0.200000 0
6.400000 0.200000 0
6.600000 0.200000 0
6.800000 0.200000 0
7.000000 0.200000 0
7.200000 0.200000 0
7.400000 0.200000 0
7.600000 0.200000 0
7.800000 0.200000 0
8.000000 0.200000 0
8.200000 0.200000 0
8.400000 0.200000 0
8.600000 0.200000 0
8.800000 0.200000 0
9.000000 0.200000 0
9.200000 0.200000 0
9.400000 0.200000 0
9.600000 0.200000 0
0.000000 0.400000 0
0.200000 0.400000 0
0.400000 0.400000 0
0.600000 0.400000 0
0.800000 0.400000 0
1.000000 0.400000 0
1.200000 0.400000 0
1.400000 0.400000 0
1.600000 0.400000 0
1.800000 0.400000 0
2.000000 0.400000 0
2.200000 0.400000 0
2.400000 0.400000 0
2.600000 0.400000 0
2.800000 0.400000 0
3.000000 0.400000 0
3.200000 0.400000 0
3.400000 0.400000 0
3.600000 0.400000 0
3.800000 0.400000 0
4.000000 0.400000 0
4.200000 0.400000 0
4.400000 0.400000 0
4.600000 0.400000 0
4.800000 0.400000 0
5.000000 0.400000 0
5.200000 0.400000 0
5.400000 0.400000 0
5.600000 0.400000 0
5.800000 0.400000 0
6.000000 0.400000 0
6.200000 0.400000 0
6.400000 0.400000 0
6.600000 0.400000 0
6.800000 0.400000 0
7.000000 0.400000 0
7.200000 0.400000 0
7.400000 0.400000 0
7.600000 0.400000 0
7.800000 0.400000 0
8.000000 0.400000 0
8.200000 0.400000 0
8.400000 0.400000 0
8.600000 0.400000 0
8.800000 0.400000 0
9.000000 0.400000 0
9.200000 0.400000 0
9.400000 0.400000 0
9.600000 0.400000 0
0.000000 0.600000 0
0.200000 0.600000 0
0.400000 0.600000 0
0.600000 0.600000 0
0.800000 0.600000 0
1.000000 0.600000 0
1.200000 0.600000 0
1.400000 0.600000 0
1.600000 0.600000 0
1.800000 0.600000 0
2.000000 0.600000 0
2.200000 0.600000 0
2.400000 0.600000 0
2.600000 0.600000 0
2.800000 0.600000 0
3.000000 0.600000 0
3.200000 0.600000 0
3.400000 0.600000 0
3.600000 0.600000 0
3.800000 0.600000 0
4.000000 0.600000 0
4.200000 0.600000 0
4.400000 0.600000 0
4.600000 0.600000 0
4.800000 0.600000 0
5.000000 0.600000 0
5.200000 0.600000 0
5.400000 0.600000 0
5.600000 0.600000 0
5.800000 0.600000 0
6.000000 0.600000 0
6.200000 0.600000 0
6.400000 0.600000 0
6.600000 0.600000 0
6.800000 0.600000 0
7.000000 0.600000 0
7.200000 0.600000 0
7.400000 0.600000 0
7.600000 0.600000 0
7.800000 0.600000 0
8.000000 0.600000 0
8.200000 0.600000 0
8.400000 0.600000 0
8.600000 0.600000 0
8.800000 0.600000 0
9.000000 0.600000 0
9.200000 0.600000 0
9.400000 0.600000 0
9.600000 0.600000 0
0.000000 0.800000 0
0.200000 0.800000 0
0.400000 0.800000 0
0.600000 0.800000 0
0.800000 0.800000 0
1.000000 0.800000 0
1.200000 0.800000 0
1.400000 0.800000 0
1.600000 0.800000 0
1.800000 0.800000 0
2.000000 0.800000 0
2.200000 0.800000 0
2.400000 0.800000 0
2.600000 0.800000 0
2.800000 0.800000 0
3.000000 0.800000 0
3.200000 0.800000 0
3.400000 0.800000 0
3.600000 0.800000 0
3.800000 0.800000 0
4.000000 0.800000 0
4.200000 0.800000 0
4.400000 0.800000 0
4.600000 0.800000 0
4.800000 0.800000 0
5.000000 0.800000 0
5.200000 0.800000 0
5.400000 0.800000 0
5.600000 0.800000 0
5.800000 0.800000 0
6.000000 0.800000 0
6.200000 0.800000 0
6.400000 0.800000 0
6.600000 0.800000 0
6.800000 0.800000 0
7.000000 0.800000 0
7.200000 0.800000 0
7.400000 0.800000 0
7.600000 0.800000 0
7.800000 0.800000 0
8.000000 0.800000 0
8.200000 0.800000 0
8.400000 0.800000 0
8.600000 0.800000 0
8.800000 0.800000 0
9.000000 0.800000 0
9.200000 0.800000 0
9.400000 0.800000 0
9.600000 0.800000 0
0.000000 1.000000 0
0.200000 1.000000 0
0.400000 1.000000 0
0.600000 1.000000 0
0.800000 1.000000 0
1.000000 1.000000 0
1.200000 1.000000 0
1.400000 1.000000 0
1.600000 1.000000 0
1.800000 1.000000 0
2.000000 1.000000 0
2.200000 1.000000 0
2.400000 1.000000 0
2.600000 1.000000 0
2.800000 1.000000 0
3.000000 1.000000 0
3.200000 1.000000 0
3.400000 1.000000 0
3.600000 1.000000 0
3.800000 1.000000 0
4.000000 1.000000 0
4.200000 1.000000 0
4.400000 1.000000 0
4.600000 1.000000 0
4.800000 1.000000 0
5.000000 1.000000 0
5.200000 1.000000 0
5.400000 1.000000 0
5.600000 1.000000 0
5.800000 1.000000 0
6.000000 1.000000 0
6.200000 1.000000 0
6.400000 1.000000 0
6.600000 1.000000 0
6.800000 1.000000 0
7.000000 1.000000 0
7.200000 1.000000 0
7.400000 1.000000 0
7.600000 1.000000 0
7.800000 1.000000 0
8.000000 1.000000 0
8.200000 1.000000 0
8.400000 1.000000 0
8.600000 1.000000 0
8.800000 1.000000 0
9.000000 1.000000 0
9.200000 1.000000 0
9.400000 1.000000 0
9.600000 1.000000 0
0.000000 1.200000 0
0.200000 1.200000 0
0.400000 1.200000 0
0.600000 1.200000 0
0.800000 1.200000 0
1.000000 1.200000 0
1.200000 1.200000 0
1.400000 1.200000 0
1.600000 1.200000 0
1.800000 1.200000 0
2.000000 1.200000 0
2.200000 1.200000 0
2.400000 1.200000 0
2.600000 1.200000 0
2.800000 1.200000 0
3.000000 1.200000 0
3.200000 1.200000 0
3.400000 1.200000 0
3.600000 1.200000 0
3.800000 1.200000 0
4.000000 1.200000 0
4.200000 1.200000 0
4.400000 1.200000 0
4.600000 1.200000 0
4.800000 1.200000 0
5.000000 1.200000 0
5.200000 1.200000 0
5.400000 1.200000 0
5.600000 1.200000 0
5.800000 1.200000 0
6.000000 1.200000 0
6.200000 1.200000 0
6.400000 1.200000 0
6.600000 1.200000 0
6.800000 1.200000 0
7.000000 1.200000 0
7.200000 1.200000 0
7.400000 1.200000 0
7.600000 1.200000 0
7.800000 1.200000 0
8.000000 1.200000 0
8.200000 1.200000 0
8.400000 1.200000 0
8.600000 1.200000 0
8.800000 1.200000 0
9.000000 1.200000 0
9.200000 1.200000 0
9.400000 1.200000 0
9.600000 1.200000 0
0.000000 1.400000 0
0.200000 1.400000 0
0.400000 1.400000 0
0.600000 1.400000 0
0.800000 1.400000 0
1.000000 1.400000 0
1.200000 1.400000 0
1.400000 1.400000 0
1.600000 1.400000 0
1.800000 1.400000 0
2.000000 1.400000 0
2.200000 1.400000 0
2.400000 1.400000 0
2.600000 1.400000 0
2.800000 1.400000 0
3.000000 1.400000 0
3.200000 1.400000 0
3.400000 1.400000 0
3.600000 1.400000 0
3.800000 1.400000 0
4.000000 1.400000 0
4.200000 1.400000 0
4.400000 1.400000 0
4.600000 1.400000 0
4.800000 1.400000 0
5.000000 1.400000 0
5.200000 1.400000 0
5.400000 1.400000 0
5.600000 1.400000 0
5.800000 1.400000 0
6.000000 1.400000 0
6.200000 1.400000 0
6.400000 1.400000 0
6.600000 1.400000 0
6.800000 1.400000 0
7.000000 1.400000 0
7.200000 1.400000 0
7.400000 1.400000 0
7.600000 1.400000 0
7.800000 1.400000 0
8.000000 1.400000 0
8.200000 1.400000 0
8.400000 1.400000 0
8.600000 1.400000 0
8.800000 1.400000 0
9.000000 1.400000 0
9.200000 1.400000 0
9.400000 1.400000 0
9.600000 1.400000 0
0.000000 1.600000 0
0.200000 1.600000 0
0.400000 1.600000 0
0.600000 1.600000 0
0.800000 1.600000 0
1.000000 1.600000 0
1.200000 1.600000 0
1.400000 1.600000 0
1.600000 1.600000 0
1.800000 1.600000 0
2.000000 1.600000 0
2.200000 1.600000 0
2.400000 1.600000 0
2.600000 1.600000 0
2.800000 1.600000 0
3.000000 1.600000 0
3.200000 1.600000 0
3.400000 1.600000 0
3.600000 1.600000 0
3.800000 1.600000 0
4.000000 1.600000 0
4.200000 1.600000 0
4.400000 1.600000 0
4.600000 1.600000 0
4.800000 1.600000 0
5.000000 1.600000 0
5.200000 1.600000 0
5.400000 1.600000 0
5.600000 1.600000 0
5.800000 1.600000 0
6.000000 1.600000 0
6.200000 1.600000 0
6.400000 1.600000 0
6.600000 1.600000 0
6.800000 1.600000 0
7.000000 1.600000 0
7.200000 1.600000 0
7.400000 1.600000 0
7.600000 1.600000 0
7.800000 1.600000 0
8.000000 1.600000 0
8.200000 1.600000 0
8.400000 1.600000 0
8.600000 1.600000 0
8.800000 1.600000 0
9.000000 1.600000 0
9.200000 1.600000 0
9.400000 1.600000 0
9.600000 1.600000 0
0.000000 1.800000 0
0.200000 1.800000 0
0.400000 1.800000 0
0.600000 1.800000 0
0.800000 1.800000 0
1.000000 1.800000 0
1.200000 1.800000 0
1.400000 1.800000 0
1.600000 1.800000 0
1.800000 1.800000 0
2.000000 1.800000 0
2.200000 1.800000 0
2.400000 1.800000 0
2.600000 1.800000 0
2.800000 1.800000 0
3.000000 1.800000 0
3.200000 1.800000 0
3.400000 1.800000 0
3.600000 1.800000 0
3.800000 1.800000 0
4.000000 1.800000 0
4.200000 1.800000 0
4.400000 1.800000 0
4.600000 1.800000 0
4.800000 1.800000 0
5.000000 1.800000 0
5.200000 1.800000 0
5.400000 1.800000 0
5.600000 1.800000 0
5.800000 1.800000 0
6.000000 1.800000 0
6.200000 1.800000 0
6.400000 1.800000 0
6.600000 1.800000 0
6.800000 1.800000 0
7.000000 1.800000 0
7.200000 1.800000 0
7.400000 1.800000 0
7.600000 1.800000 0
7.800000 1.800000 0
8.000000 1.800000 0
8.200000 1.800000 0
8.400000 1.800000 0
8.600000 1.800000 0
8.800000 1.800000 0
9.000000 1.800000 0
9.200000 1.800000 0
9.400000 1.800000 0
9.600000 1.800000 0
0.000000 2.000000 0
0.200000 2.000000 0
0.400000 2.000000 0
0.600000 2.000000 0
0.800000 2.000000 0
1.000000 2.000000 0
1.200000 2.000000 0
1.400000 2.000000 0
1.600000 2.000000 0
1.800000 2.000000 0
2.000000 2.000000 0
2.200000 2.000000 0
2.400000 2.000000 0
2.600000 2.000000 0
2.800000 2.000000 0
3.000000 2.000000 0
3.200000 2.000000 0
3.400000 2.000000 0
3.600000 2.000000 0
3.800000 2.000000 0
4.000000 2.000000 0
4.200000 2.000000 0
4.400000 2.000000 0
4.600000 2.000000 0
4.800000 2.000000 0
5.000000 2.000000 0
5.200000 2.000000 0
5.400000 2.000000 0
5.600000 2.000000 0
5.800000 2.000000 0
6.000000 2.000000 0
6.200000 2.000000 0
6.400000 2.000000 0
6.600000 2.000000 0
6.800000 2.000000 0
7.000000 2.000000 0
7.200000 2.000000 0
7.400000 2.000000 0
7.600000 2.000000 0
7.800000 2.000000 0
8.000000 2.000000 0
8.200000 2.000000 0
8.400000 2.000000 0
8.600000 2.000000 0
8.800000 2.000000 0
9.000000 2.000000 0
9.200000 2.000000 0
9.400000 2.000000 0
9.600000 2.000000 0
0.000000 2.200000 0
0.200000 2.200000 0
0.400000 2.200000 0
0.600000 2.200000 0
0.800000 2.200000 0
1.000000 2.200000 0
1.200000 2.200000 0
1.400000 2.200000 0
1.600000 2.200000 0
1.800000 2.200000 0
2.000000 2.200000 0
2.200000 2.200000 0
2.400000 2.200000 0
2.600000 2.200000 0
2.800000 2.200000 0
3.000000 2.200000 0
3.200000 2.200000 0
3.400000 2.200000 0
3.600000 2.200000 0
3.800000 2.200000 0
4.000000 2.200000 0
4.200000 2.200000 0
4.400000 2.200000 0
4.600000 2.200000 0
4.800000 2.200000 0
5.000000 2.200000 0
5.200000 2.200000 0
5.400000 2.200000 0
5.600000 2.200000 0
5.800000 2.200000 0
6.000000 2.200000 0
6.200000 2.200000 0
6.400000 2.200000 0
6.600000 2.200000 0
6.800000 2.200000 0
7.000000 2.200000 0
7.200000 2.200000 0
7.400000 2.200000 0
7.600000 2.200000 0
7.800000 2.200000 0
8.000000 2.200000 0
8.200000 2.200000 0
8.400000 2.200000 0
8.600000 2.200000 0
8.800000 2.200000 0
9.000000 2.200000 0
9.200000 2.200000 0
9.400000 2.200000 0
9.600000 2.200000 0
0.000000 2.400000 0
0.200000 2.400000 0
0.400000 2.400000 0
0.600000 2.400000 0
0.800000 2.400000 0
1.000000 2.400000 0
1.200000 2.400000 0
1.400000 2.400000 0
1.600000 2.400000 0
1.800000 2.400000 0
2.000000 2.400000 0
2.200000 2.400000 0
2.400000 2.400000 0
2.600000 2.400000 0
2.800000 2.400000 0
3.000000 2.400000 0
3.200000 2.400000 0
3.400000 2.400000 0
3.600000 2.400000 0
3.800000 2.400000 0
4.000000 2.400000 0
4.200000 2.400000 0
4.400000 2.400000 0
4.600000 2.400000 0
4.800000 2.400000 0
5.000000 2.400000 0
5.200000 2.400000 0
5.400000 2.400000 0
5.600000 2.400000 0
5.800000 2.400000 0
6.000000 2.400000 0
6.200000 2.400000 0
6.400000 2.400000 0
6.600000 2.400000 0
6.800000 2.400000 0
7.000000 2.400000 0
7.200000 2.400000 0
7.400000 2.400000 0
7.600000 2.400000 0
7.800000 2.400000 0
8.000000 2.400000 0
8.200000 2.400000 0
8.400000 2.400000 0
8.600000 2.400000 0
8.800000 2.400000 0
9.000000 2.400000 0
9.200000 2.400000 0
9.400000 2.400000 0
9.600000 2.400000 0
0.000000 2.600000 0
0.200000 2.600000 0
0.400000 2.600000 0
0.600000 2.600000 0
0.800000 2.600000 0
1.000000 2.600000 0
1.200000 2.600000 0
1.400000 2.600000 0
1.600000 2.600000 0
1.800000 2.600000 0
2.000000 2.600000 0
2.200000 2.600000 0
2.400000 2.600000 0
2.600000 2.600000 0
2.800000 2.600000 0
3.000000 2.600000 0
3.200000 2.600000 0
3.400000 2.600000 0
3.600000 2.600000 0
3.800000 2.600000 0
4.000000 2.600000 0
4.200000 2.600000 0
4.400000 2.600000 0
4.600000 2.600000 0
4.800000 2.600000 0
5.000000 2.600000 0
5.200000 2.600000 0
5.400000 2.600000 0
5.600000 2.600000 0
5.800000 2.600000 0
6.000000 2.600000 0
6.200000 2.600000 0
6.400000 2.600000 0
6.600000 2.600000 0
6.800000 2.600000 0
7.000000 2.600000 0
7.200000 2.600000 0
7.400000 2.600000 0
7.600000 2.600000 0
7.800000 2.600000 0
8.000000 2.600000 0
8.200000 2.600000 0
8.400000 2.600000 0
8.600000 2.600000 0
8.800000 2.600000 0
9.000000 2.600000 0
9.200000 2.600000 0
9.400000 2.600000 0
9.600000 2.600000 0
0.000000 2.800000 0
0.200000 2.800000 0
0.400000 2.800000 0
0.600000 2.800000 0
0.800000 2.800000 0
1.000000 2.800000 0
1.200000 2.800000 0
1.400000 2.800000 0
1.600000 2.800000 0
1.800000 2.800000 0
2.000000 2.800000 0
2.200000 2.800000 0
2.400000 2.800000 0
2.600000 2.800000 0
2.800000 2.800000 0
3.000000 2.800000 0
3.200000 2.800000 0
3.400000 2.800000 0
3.600000 2.800000 0
3.800000 2.800000 0
4.000000 2.800000 0
4.200000 2.800000 0
4.400000 2.800000 0
4.600000 2.800000 0
4.800000 2.800000 0
5.000000 2.800000 0
5.200000 2.800000 0
5.400000 2.800000 0
5.600000 2.800000 0
5.800000 2.800000 0
6.000000 2.800000 0
6.200000 2.800000 0
6.400000 2.800000 0
6.600000 2.800000 0
6.800000 2.800000 0
7.000000 2.800000 0
7.200000 2.800000 0
7.400000 2.800000 0
7.600000 2.800000 0
7.800000 2.800000 0
8.000000 2.800000 0
8.200000 2.800000 0
8.400000 2.800000 0
8.600000 2.800000 0
8.800000 2.800000 0
9.000000 2.800000 0
9.200000 2.800000 0
9.400000 2.800000 0
9.600000 2.800000 0
0.000000 3.000000 0
0.200000 3.000000 0
0.400000 3.000000 0
0.600000 3.000000 0
0.800000 3.000000 0
1.000000 3.000000 0
1.200000 3.000000 0
1.400000 3.000000 0
1.600000 3.000000 0
1.800000 3.000000 0
2.000000 3.000000 0
2.200000 3.000000 0
2.400000 3.000000 0
2.600000 3.000000 0
2.800000 3.000000 0
3.000000 3.000000 0
3.200000 3.000000 0
3.400000 3.000000 0
3.600000 3.000000 0
3.800000 3.000000 0
4.000000 3.000000 0
4.200000 3.000000 0
4.400000 3.000000 0
4.600000 3.000000 0
4.800000 3.000000 0
5.000000 3.000000 0
5.200000 3.000000 0
5.400000 3.000000 0
5.600000 3.000000 0
5.800000 3.000000 0
6.000000 3.000000 0
6.200000 3.000000 0
6.400000 3.000000 0
6.600000 3.000000 0
6.800000 3.000000 0
7.000000 3.000000 0
7.200000 3.000000 0
7.400000 3.000000 0
7.600000 3.000000 0
7.800000 3.000000 0
8.000000 3.000000 0
8.200000 3.000000 0
8.400000 3.000000 0
8.600000 3.000000 0
8.800000 3.000000 0
9.000000 3.000000 0
9.200000 3.000000 0
9.400000 3.000000 0
9.600000 3.000000 0
0.000000 3.200000 0
0.200000 3.200000 0
0.400000 3.200000 0
0.600000 3.200000 0
0.800000 3.200000 0
1.000000 3.200000 0
1.200000 3.200000 0
1.400000 3.200000 0
1.600000 3.200000 0
1.800000 3.200000 0
2.000000 3.200000 0
2.200000 3.200000 0
2.400000 3.200000 0
2.600000 3.200000 0
2.800000 3.200000 0
3.000000 3.200000 0
3.200000 3.200000 0
3.400000 3.200000 0
3.600000 3.200000 0
3.800000 3.200000 0
4.000000 3.200000 0
4.200000 3.200000 0
4.400000 3.200000 0
4.600000 3.200000 0
4.800000 3.200000 0
5.000000 3.200000 0
5.200000 3.200000 0
5.400000 3.200000 0
5.600000 3.200000 0
5.800000 3.200000 0
6.000000 3.200000 0
6.200000 3.200000 0
6.400000 3.200000 0
6.600000 3.200000 0
6.800000 3.200000 0
7.000000 3.200000 0
7.200000 3.200000 0
7.400000 3.200000 0
7.600000 3.200000 0
7.800000 3.200000 0
8.000000 3.200000 0
8.200000 3.200000 0
8.400000 3.200000 0
8.600000 3.200000 0
8.800000 3.200000 0
9.000000 3.200000 0
9.200000 3.200000 0
9.400000 3.200000 0
9.600000 3.200000 0
0.000000 3.400000 0
0.200000 3.400000 0
0.400000 3.400000 0
0.600000 3.400000 0
0.800000 3.400000 0
1.000000 3.400000 0
1.200000 3.400000 0
1.400000 3.400000 0
1.600000 3.400000 0
1.800000 3.400000 0
2.000000 3.400000 0
2.200000 3.400000 0
2.400000 3.400000 0
2.600000 3.400000 0
2.800000 3.400000 0
3.000000 3.400000 0
3.200000 3.400000 0
3.400000 3.400000 0
3.600000 3.400000 0
3.800000 3.400000 0
4.000000 3.400000 0
4.200000 3.400000 0
4.400000 3.400000 0
4.600000 3.400000 0
4.800000 3.400000 0
5.000000 3.400000 0
5.200000 3.400000 0
5.400000 3.400000 0
5.600000 3.400000 0
5.800000 3.400000 0
6.000000 3.400000 0
6.200000 3.400000 0
6.400000 3.400000 0
6.600000 3.400000 0
6.800000 3.400000 0
7.000000 3.400000 0
7.200000 3.400000 0
7.400000 3.400000 0
7.600000 3.400000 0
7.800000 3.400000 0
8.000000 3.400000 0
8.200000 3.400000 0
8.400000 3.400000 0
8.600000 3.400000 0
8.800000 3.400000 0
9.000000 3.400000 0
9.200000 3.400000 0
9.400000 3.400000 0
9.600000 3.400000 0
0.000000 3.600000 0
0.200000 3.600000 0
0.400000 3.600000 0
0.600000 3.600000 0
0.800000 3.600000 0
1.000000 3.600000 0
1.200000 3.600000 0
1.400000 3.600000 0
1.600000 3.600000 0
1.800000 3.600000 0
2.000000 3.600000 0
2.200000 3.600000 0
2.400000 3.600000 0
2.600000 3.600000 0
2.800000 3.600000 0
3.000000 3.600000 0
3.200000 3.600000 0
3.400000 3.600000 0
3.600000 3.600000 0
3.800000 3.600000 0
4.000000 3.600000 0
4.200000 3.600000 0
4.400000 3.600000 0
4.600000 3.600000 0
4.800000 3.600000 0
5.000000 3.600000 0
5.200000 3.600000 0
5.400000 3.600000 0
5.600000 3.600000 0
5.800000 3.600000 0
6.000000 3.600000 0
6.200000 3.600000 0
6.400000 3.600000 0
6.600000 3.600000 0
6.800000 3.600000 0
7.000000 3.600000 0
7.200000 3.600000 0
7.400000 3.600000 0
7.600000 3.600000 0
7.800000 3.600000 0
8.000000 3.600000 0
8.200000 3.600000 0
8.400000 3.600000 0
8.600000 3.600000 0
8.800000 3.600000 0
9.000000 3.600000 0
9.200000 3.600000 0
9.400000 3.600000 0
9.600000 3.600000 0
POINT_DATA 931 

VECTORS velocity float
0.000000 0.000000 0
0.000000 0.000000 0
0.000000 0.000000 0
0.000000 0.000000 0
0.000000 0.000000 0
0.000000 0.000000 0
0.000000 0.000000 0
0.000000 0.000000 0
0.000000 0.000000 0
0.000000 0.000000 0
0.000000 0.000000 0
0.000000 0.000000 0
0.000000 0.000000 0
0.000000 0.000000 0
0.000000 0.000000 0
0.000000 0.000000 0
0.000000 0.000000 0
0.000000 0.000000 0
0.000000 0.000000 0
0.000000 0.000000 0
0.000000 0.000000 0
0.000000 0.000000 0
0.000000 0.000000 0
0.000000 0.000000 0
0.000000 0.000000 0
0.000000 0.000000 0
0.000000 0.000000 0
0.000000 0.000000 0
0.000000 0.000000 0
0.000000 0.000000 0
0.000000 0.000000 0
0.000000 0.000000 0
0.000000 0.000000 0
0.000000 0.000000 0
0.000000 0.000000 0
0.000000 0.000000 0
0.000000 0.000000 0
0.000000 0.000000 0
-0.033749 0.000000 0
0.000000 0.000000 0
0.000000 0.000000 0
0.000000 0.000000 0
0.000000 0.000000 0
0.000000 0.000000 0
0.000000 0.000000 0
0.000000 0.000000 0
0.000000 0.000000 0
0.000000 0.000000 0
0.000000 0.000000 0
0.000000 0.000000 0
0.003935 -0.004794 0
0.020990 -0.013374 0
0.050212 -0.020943 0
0.088953 -0.026323 0
0.133755 -0.029207 0
0.181064 -0.029771 0
0.227916 -0.028584 0
0.272379 -0.026402 0
0.313625 -0.023884 0
0.351564 -0.021336 0
0.386181 -0.018650 0
0.416990 -0.015551 0
0.443064 -0.011964 0
0.463581 -0.008159 0
0.478425 -0.004526 0
0.487922 -0.001377 0
0.492725 0.000986 0
0.494135 0.002354 0
0.493762 0.002667 0
0.493161 0.002002 0
0.493662 0.000642 0
0.496033 -0.000847 0
0.500104 -0.001840 0
0.504898 -0.002220 0
0.509779 -0.002540 0
0.515184 -0.003621 0
0.522945 -0.005815 0
0.534761 -0.008651 0
0.550977 -0.011458 0
0.570805 -0.014300 0
0.595088 -0.017128 0
0.623460 -0.019548 0
0.654175 -0.024479 0
0.692621 -0.036254 0
0.746351 -0.055580 0
0.809097 -0.079519 0
0.883888 -0.137705 0
1.011031 -0.398207 0
0.000000 -0.306540 0
0.000000 0.000000 0
0.000000 0.000000 0
0.000000 0.000000 0
0.000000 0.000000 0
0.000000 0.000000 0
0.000000 0.000000 0
0.000000 0.000000 0
0.000000 0.000000 0
0.000000 0.000000 0
0.000000 0.000000 0
0.011053 -0.021371 0
0.042884 -0.046479 0
0.092435 -0.068145 0
0.155476 -0.083706 0
0.226819 -0.092256 0
0.301206 -0.094288 0
0.374419 -0.091425 0
0.443914 -0.085804 0
0.508923 -0.079267 0
0.569812 -0.072625 0
0.626883 -0.065483 0
0.679486 -0.056931 0
0.725946 -0.046630 0
0.764512 -0.035393 0
0.795056 -0.024367 0
0.817776 -0.014320 0
0.832903 -0.006229 0
0.842324 -0.001050 0
0.848507 0.000965 0
0.853666 0.000092 0
0.859692 -0.002878 0
0.867913 -0.006447 0
0.878364 -0.008869 0
0.889359 -0.009678 0
0.899822 -0.010288 0
0.909745 -0.013167 0
0.922387 -0.019578 0
0.940945 -0.028033 0
0.965975 -0.036045 0
0.994367 -0.044111 0
1.028997 -0.052655 0
1.070273 -0.059087 0
1.112383 -0.069162 0
1.154141 -0.092176 0
1.199171 -0.116475 0
1.230000 -0.137537 0
1.215482 -0.193587 0
1.250958 -0.254298 0
0.000000 -0.135502 0
0.000000 0.000000 0
0.000000 0.000000 0
0.000000 0.000000 0
0.000000 0.000000 0
0.000000 0.000000 0
0.000000 0.000000 0
0.000000 0.000000 0
0.000000 0.000000 0
0.000000 0.000000 0
0.000000 0.000000 0
0.016833 -0.047877 0
0.060726 -0.094802 0
0.125697 -0.133574 0
0.205638 -0.160739 0
0.293652 -0.174963 0
0.382942 -0.177394 0
0.468518 -0.171310 0
0.547933 -0.160921 0
0.621455 -0.149793 0
0.690967 -0.139304 0
0.757740 -0.128329 0
0.821420 -0.114618 0
0.879523 -0.096993 0
0.928639 -0.077270 0
0.969770 -0.057790 0
1.003152 -0.039225 0
1.026871 -0.023562 0
1.043687 -0.013249 0
1.057056 -0.008674 0
1.069452 -0.009183 0
1.082784 -0.013605 0
1.098768 -0.019518 0
1.117699 -0.023286 0
1.136325 -0.023678 0
1.153268 -0.022925 0
1.166196 -0.026186 0
1.180775 -0.037016 0
1.202210 -0.052239 0
1.231736 -0.064879 0
1.258246 -0.077321 0
1.290974 -0.093034 0
1.335343 -0.102935 0
1.374001 -0.108347 0
1.380750 -0.123041 0
1.375931 -0.131439 0
1.377494 -0.199799 0
1.250970 -0.254286 0
1.267665 -0.237592 0
0.000000 -0.118796 0
0.000000 0.000000 0
0.000000 0.000000 0
0.000000 0.000000 0
0.000000 0.000000 0
0.000000 0.000000 0
0.000000 0.000000 0
0.000000 0.000000 0
0.000000 0.000000 0
0.000000 0.000000 0
0.000000 0.000000 0
0.021371 -0.082272 0
0.075249 -0.155379 0
0.152919 -0.213088 0
0.246218 -0.251687 0
0.345952 -0.269581 0
0.443096 -0.269169 0
0.531918 -0.256428 0
0.610409 -0.238750 0
0.680831 -0.222307 0
0.747925 -0.208914 0
0.814003 -0.195938 0
0.879544 -0.178715 0
0.941049 -0.153849 0
0.991409 -0.125639 0
1.035867 -0.098878 0
1.076116 -0.071419 0
1.103461 -0.046763 0
1.123523 -0.031233 0
1.141405 -0.024799 0
1.159614 -0.025635 0
1.179636 -0.032193 0
1.203261 -0.041360 0
1.231399 -0.046425 0
1.258783 -0.045247 0
1.283843 -0.040159 0
1.298328 -0.040673 0
1.313365 -0.055591 0
1.335812 -0.078994 0
1.370106 -0.092080 0
1.382284 -0.103350 0
1.400942 -0.129752 0
1.433382 -0.142113 0
1.450319 -0.114569 0
1.439604 -0.212204 0
1.298081 -0.231317 0
1.400781 -0.128617 0
0.617138 -0.064309 0
0.633832 0.000000 0
0.000000 0.000000 0
0.000000 0.000000 0
0.000000 0.000000 0
0.000000 0.000000 0
0.000000 0.000000 0
0.000000 0.000000 0
0.000000 0.000000 0
0.000000 0.000000 0
0.000000 0.000000 0
0.000000 0.000000 0
0.000000 0.000000 0
0.025170 -0.123278 0
0.087283 -0.226377 0
0.175602 -0.304566 0
0.280244 -0.353790 0
0.388859 -0.371855 0
0.489146 -0.363369 0
0.574886 -0.338630 0
0.644460 -0.309837 0
0.703129 -0.287309 0
0.760975 -0.272475 0
0.819387 -0.259947 0
0.880617 -0.241662 0
0.940358 -0.208855 0
0.983736 -0.172084 0
1.025661 -0.142493 0
1.072686 -0.106814 0
1.099904 -0.070965 0
1.121558 -0.051190 0
1.142931 -0.044762 0
1.165562 -0.047412 0
1.190252 -0.057250 0
1.218871 -0.071280 0
1.253494 -0.078806 0
1.290307 -0.076121 0
1.331453 -0.062470 0
1.342723 -0.055707 0
1.359157 -0.074499 0
1.376574 -0.108979 0
1.395220 -0.111352 0
1.395846 -0.108157 0
1.439261 -0.144132 0
1.449460 -0.079780 0
1.490342 -0.042036 0
1.441986 -0.090392 0
0.597691 -0.045196 0
0.700391 0.000000 0
0.000000 0.000000 0
0.000000 0.000000 0
0.000000 0.000000 0
0.000000 0.000000 0
0.000000 0.000000 0
0.000000 0.000000 0
0.000000 0.000000 0
0.000000 0.000000 0
0.000000 0.000000 0
0.000000 0.000000 0
0.000000 0.000000 0
0.000000 0.000000 0
0.000000 0.000000 0
0.028029 -0.169684 0
0.095675 -0.305831 0
0.191484 -0.406064 0
0.304876 -0.464955 0
0.418845 -0.478488 0
0.517482 -0.455198 0
0.595418 -0.411741 0
0.649703 -0.366989 0
0.690088 -0.338817 0
0.738153 -0.325167 0
0.786220 -0.315575 0
0.840612 -0.299679 0
0.898680 -0.256961 0
0.931629 -0.210936 0
0.969853 -0.187822 0
1.026965 -0.145655 0
1.061659 -0.095629 0
1.091370 -0.074256 0
1.118982 -0.068800 0
1.144798 -0.072954 0
1.172911 -0.085500 0
1.201519 -0.104600 0
1.232601 -0.117859 0
1.264284 -0.118450 0
1.348578 -0.087820 0
1.352381 -0.068377 0
1.378466 -0.138486 0
1.343141 -0.111831 0
1.413312 -0.059083 0
1.378466 -0.129903 0
1.456933 -0.165878 0
1.456933 -0.165878 0
0.769348 -0.082939 0
0.720993 0.000000 0
0.000000 0.000000 0
0.000000 0.000000 0
0.000000 0.000000 0
0.000000 0.000000 0
0.000000 0.000000 0
0.000000 0.000000 0
0.000000 0.000000 0
0.000000 0.000000 0
0.000000 0.000000 0
0.000000 0.000000 0
0.000000 0.000000 0
0.000000 0.000000 0
0.000000 0.000000 0
0.000000 0.000000 0
0.000000 0.000000 0
0.028807 -0.219058 0
0.096792 -0.389845 0
0.194004 -0.513774 0
0.310771 -0.581154 0
0.421528 -0.584460 0
0.510959 -0.539936 0
0.577235 -0.470842 0
0.610680 -0.404497 0
0.630852 -0.375750 0
0.680825 -0.368598 0
0.721920 -0.362398 0
0.770505 -0.354112 0
0.831600 -0.299862 0
0.863250 -0.243248 0
0.896063 -0.237820 0
0.927627 -0.198615 0
1.077059 -0.135367 0
1.108888 -0.108510 0
1.135837 -0.098189 0
1.165659 -0.101339 0
1.192776 -0.113970 0
1.218399 -0.130970 0
1.240200 -0.141571 0
1.243931 -0.100737 0
1.356183 -0.059206 0
1.356183 -0.059206 0
0.695310 -0.029603 0
0.653908 0.000000 0
0.724079 0.000000 0
0.689233 0.000000 0
0.728467 0.000000 0
0.728467 0.000000 0
0.000000 0.000000 0
0.000000 0.000000 0
0.000000 0.000000 0
0.000000 0.000000 0
0.000000 0.000000 0
0.000000 0.000000 0
0.000000 0.000000 0
0.000000 0.000000 0
0.000000 0.000000 0
0.000000 0.000000 0
0.000000 0.000000 0
0.000000 0.000000 0
0.000000 0.000000 0
0.000000 0.000000 0
0.000000 0.000000 0
0.000000 0.000000 0
0.000000 0.000000 0
0.025829 -0.266558 0
0.085865 -0.471034 0
0.174630 -0.620044 0
0.284977 -0.692474 0
0.374389 -0.678667 0
0.438625 -0.610893 0
0.475086 -0.511447 0
0.483978 -0.420589 0
0.517177 -0.408947 0
0.595771 -0.416222 0
0.647179 -0.405134 0
0.685744 -0.409240 0
0.717811 -0.349697 0
0.857671 -0.258262 0
0.865552 -0.235063 0
0.857671 -0.242944 0
0.987618 -0.205723 0
1.131143 -0.168501 0
1.142178 -0.168501 0
1.168955 -0.190440 0
0.609946 -0.106190 0
0.622011 0.000000 0
0.631001 0.000000 0
0.623831 0.000000 0
0.678092 0.000000 0
0.678092 0.000000 0
0.000000 0.000000 0
0.000000 0.000000 0
0.000000 0.000000 0
0.000000 0.000000 0
0.000000 0.000000 0
0.000000 0.000000 0
0.000000 0.000000 0
0.000000 0.000000 0
0.000000 0.000000 0
0.000000 0.000000 0
0.000000 0.000000 0
0.000000 0.000000 0
0.000000 0.000000 0
0.000000 0.000000 0
0.000000 0.000000 0
0.000000 0.000000 0
0.000000 0.000000 0
0.000000 0.000000 0
0.000000 0.000000 0
0.000000 0.000000 0
0.000000 0.000000 0
0.000000 0.000000 0
0.000000 0.000000 0
0.018253 -0.304985 0
0.060867 -0.538645 0
0.129945 -0.712880 0
0.230677 -0.780902 0
0.285290 -0.738091 0
0.298689 -0.640612 0
0.151318 -0.516172 0
0.149359 -0.446571 0
0.436720 -0.487532 0
0.487361 -0.498591 0
0.642244 -0.437676 0
0.642244 -0.410051 0
0.642244 -0.410051 0
0.852607 -0.371303 0
0.846114 -0.332554 0
0.902992 -0.362423 0
0.430749 -0.196146 0
0.560785 0.000000 0
0.560785 0.000000 0
0.571215 0.000000 0
0.000000 0.000000 0
0.000000 0.000000 0
0.000000 0.000000 0
0.000000 0.000000 0
0.000000 0.000000 0
0.000000 0.000000 0
0.000000 0.000000 0
0.000000 0.000000 0
0.000000 0.000000 0
0.000000 0.000000 0
0.000000 0.000000 0
0.000000 0.000000 0
0.000000 0.000000 0
0.000000 0.000000 0
0.000000 0.000000 0
0.000000 0.000000 0
0.000000 0.000000 0
0.000000 0.000000 0
0.000000 0.000000 0
0.000000 0.000000 0
0.000000 0.000000 0
0.000000 0.000000 0
0.000000 0.000000 0
0.000000 0.000000 0
0.000000 0.000000 0
0.000000 0.000000 0
0.000000 0.000000 0
0.000000 0.000000 0
0.000000 0.000000 0
0.008312 -0.327470 0
0.028824 -0.582720 0
0.077747 -0.789842 0
0.184357 -0.847801 0
0.227059 -0.746657 0
0.217423 -0.547021 0
-0.725217 -0.432224 0
-0.704936 -0.490919 0
0.426720 -0.531880 0
0.426720 -0.531880 0
0.556264 -0.484667 0
0.461584 -1.012362 0
0.486584 -1.337270 0
0.409397 -0.543635 0
0.409397 0.000000 0
0.474156 0.000000 0
0.000000 0.000000 0
0.000000 0.000000 0
0.000000 0.000000 0
0.000000 0.000000 0
0.000000 0.000000 0
0.000000 0.000000 0
0.000000 0.000000 0
0.000000 0.000000 0
0.000000 0.000000 0
0.000000 0.000000 0
0.000000 0.000000 0
0.000000 0.000000 0
0.000000 0.000000 0
0.000000 0.000000 0
0.000000 0.000000 0
0.000000 0.000000 0
0.000000 0.000000 0
0.000000 0.000000 0
0.000000 0.000000 0
0.000000 0.000000 0
0.000000 0.000000 0
0.000000 0.000000 0
0.000000 0.000000 0
0.000000 0.000000 0
0.000000 0.000000 0
0.000000 0.000000 0
0.000000 0.000000 0
0.000000 0.000000 0
0.000000 0.000000 0
0.000000 0.000000 0
0.000000 0.000000 0
0.000000 0.000000 0
0.000000 0.000000 0
0.002682 -0.333839 0
0.009863 -0.608070 0
0.051076 -0.868398 0