# vtk DataFile Version 2.0
generated by CFD-lab course output (written by Tobias Neckel) 
ASCII

DATASET STRUCTURED_GRID
DIMENSIONS  49 19 1 
POINTS 931 float

0.000000 0.000000 0
0.200000 0.000000 0
0.400000 0.000000 0
0.600000 0.000000 0
0.800000 0.000000 0
1.000000 0.000000 0
1.200000 0.000000 0
1.400000 0.000000 0
1.600000 0.000000 0
1.800000 0.000000 0
2.000000 0.000000 0
2.200000 0.000000 0
2.400000 0.000000 0
2.600000 0.000000 0
2.800000 0.000000 0
3.000000 0.000000 0
3.200000 0.000000 0
3.400000 0.000000 0
3.600000 0.000000 0
3.800000 0.000000 0
4.000000 0.000000 0
4.200000 0.000000 0
4.400000 0.000000 0
4.600000 0.000000 0
4.800000 0.000000 0
5.000000 0.000000 0
5.200000 0.000000 0
5.400000 0.000000 0
5.600000 0.000000 0
5.800000 0.000000 0
6.000000 0.000000 0
6.200000 0.000000 0
6.400000 0.000000 0
6.600000 0.000000 0
6.800000 0.000000 0
7.000000 0.000000 0
7.200000 0.000000 0
7.400000 0.000000 0
7.600000 0.000000 0
7.800000 0.000000 0
8.000000 0.000000 0
8.200000 0.000000 0
8.400000 0.000000 0
8.600000 0.000000 0
8.800000 0.000000 0
9.000000 0.000000 0
9.200000 0.000000 0
9.400000 0.000000 0
9.600000 0.000000 0
0.000000 0.200000 0
0.200000 0.200000 0
0.400000 0.200000 0
0.600000 0.200000 0
0.800000 0.200000 0
1.000000 0.200000 0
1.200000 0.200000 0
1.400000 0.200000 0
1.600000 0.200000 0
1.800000 0.200000 0
2.000000 0.200000 0
2.200000 0.200000 0
2.400000 0.200000 0
2.600000 0.200000 0
2.800000 0.200000 0
3.000000 0.200000 0
3.200000 0.200000 0
3.400000 0.200000 0
3.600000 0.200000 0
3.800000 0.200000 0
4.000000 0.200000 0
4.200000 0.200000 0
4.400000 0.200000 0
4.600000 0.200000 0
4.800000 0.200000 0
5.000000 0.200000 0
5.200000 0.200000 0
5.400000 0.200000 0
5.600000 0.200000 0
5.800000 0.200000 0
6.000000 0.200000 0
6.200000 0.200000 0
6.400000 0.200000 0
6.600000 0.200000 0
6.800000 0.200000 0
7.000000 0.200000 0
7.200000 0.200000 0
7.400000 0.200000 0
7.600000 0.200000 0
7.800000 0.200000 0
8.000000 0.200000 0
8.200000 0.200000 0
8.400000 0.200000 0
8.600000 0.200000 0
8.800000 0.200000 0
9.000000 0.200000 0
9.200000 0.200000 0
9.400000 0.200000 0
9.600000 0.200000 0
0.000000 0.400000 0
0.200000 0.400000 0
0.400000 0.400000 0
0.600000 0.400000 0
0.800000 0.400000 0
1.000000 0.400000 0
1.200000 0.400000 0
1.400000 0.400000 0
1.600000 0.400000 0
1.800000 0.400000 0
2.000000 0.400000 0
2.200000 0.400000 0
2.400000 0.400000 0
2.600000 0.400000 0
2.800000 0.400000 0
3.000000 0.400000 0
3.200000 0.400000 0
3.400000 0.400000 0
3.600000 0.400000 0
3.800000 0.400000 0
4.000000 0.400000 0
4.200000 0.400000 0
4.400000 0.400000 0
4.600000 0.400000 0
4.800000 0.400000 0
5.000000 0.400000 0
5.200000 0.400000 0
5.400000 0.400000 0
5.600000 0.400000 0
5.800000 0.400000 0
6.000000 0.400000 0
6.200000 0.400000 0
6.400000 0.400000 0
6.600000 0.400000 0
6.800000 0.400000 0
7.000000 0.400000 0
7.200000 0.400000 0
7.400000 0.400000 0
7.600000 0.400000 0
7.800000 0.400000 0
8.000000 0.400000 0
8.200000 0.400000 0
8.400000 0.400000 0
8.600000 0.400000 0
8.800000 0.400000 0
9.000000 0.400000 0
9.200000 0.400000 0
9.400000 0.400000 0
9.600000 0.400000 0
0.000000 0.600000 0
0.200000 0.600000 0
0.400000 0.600000 0
0.600000 0.600000 0
0.800000 0.600000 0
1.000000 0.600000 0
1.200000 0.600000 0
1.400000 0.600000 0
1.600000 0.600000 0
1.800000 0.600000 0
2.000000 0.600000 0
2.200000 0.600000 0
2.400000 0.600000 0
2.600000 0.600000 0
2.800000 0.600000 0
3.000000 0.600000 0
3.200000 0.600000 0
3.400000 0.600000 0
3.600000 0.600000 0
3.800000 0.600000 0
4.000000 0.600000 0
4.200000 0.600000 0
4.400000 0.600000 0
4.600000 0.600000 0
4.800000 0.600000 0
5.000000 0.600000 0
5.200000 0.600000 0
5.400000 0.600000 0
5.600000 0.600000 0
5.800000 0.600000 0
6.000000 0.600000 0
6.200000 0.600000 0
6.400000 0.600000 0
6.600000 0.600000 0
6.800000 0.600000 0
7.000000 0.600000 0
7.200000 0.600000 0
7.400000 0.600000 0
7.600000 0.600000 0
7.800000 0.600000 0
8.000000 0.600000 0
8.200000 0.600000 0
8.400000 0.600000 0
8.600000 0.600000 0
8.800000 0.600000 0
9.000000 0.600000 0
9.200000 0.600000 0
9.400000 0.600000 0
9.600000 0.600000 0
0.000000 0.800000 0
0.200000 0.800000 0
0.400000 0.800000 0
0.600000 0.800000 0
0.800000 0.800000 0
1.000000 0.800000 0
1.200000 0.800000 0
1.400000 0.800000 0
1.600000 0.800000 0
1.800000 0.800000 0
2.000000 0.800000 0
2.200000 0.800000 0
2.400000 0.800000 0
2.600000 0.800000 0
2.800000 0.800000 0
3.000000 0.800000 0
3.200000 0.800000 0
3.400000 0.800000 0
3.600000 0.800000 0
3.800000 0.800000 0
4.000000 0.800000 0
4.200000 0.800000 0
4.400000 0.800000 0
4.600000 0.800000 0
4.800000 0.800000 0
5.000000 0.800000 0
5.200000 0.800000 0
5.400000 0.800000 0
5.600000 0.800000 0
5.800000 0.800000 0
6.000000 0.800000 0
6.200000 0.800000 0
6.400000 0.800000 0
6.600000 0.800000 0
6.800000 0.800000 0
7.000000 0.800000 0
7.200000 0.800000 0
7.400000 0.800000 0
7.600000 0.800000 0
7.800000 0.800000 0
8.000000 0.800000 0
8.200000 0.800000 0
8.400000 0.800000 0
8.600000 0.800000 0
8.800000 0.800000 0
9.000000 0.800000 0
9.200000 0.800000 0
9.400000 0.800000 0
9.600000 0.800000 0
0.000000 1.000000 0
0.200000 1.000000 0
0.400000 1.000000 0
0.600000 1.000000 0
0.800000 1.000000 0
1.000000 1.000000 0
1.200000 1.000000 0
1.400000 1.000000 0
1.600000 1.000000 0
1.800000 1.000000 0
2.000000 1.000000 0
2.200000 1.000000 0
2.400000 1.000000 0
2.600000 1.000000 0
2.800000 1.000000 0
3.000000 1.000000 0
3.200000 1.000000 0
3.400000 1.000000 0
3.600000 1.000000 0
3.800000 1.000000 0
4.000000 1.000000 0
4.200000 1.000000 0
4.400000 1.000000 0
4.600000 1.000000 0
4.800000 1.000000 0
5.000000 1.000000 0
5.200000 1.000000 0
5.400000 1.000000 0
5.600000 1.000000 0
5.800000 1.000000 0
6.000000 1.000000 0
6.200000 1.000000 0
6.400000 1.000000 0
6.600000 1.000000 0
6.800000 1.000000 0
7.000000 1.000000 0
7.200000 1.000000 0
7.400000 1.000000 0
7.600000 1.000000 0
7.800000 1.000000 0
8.000000 1.000000 0
8.200000 1.000000 0
8.400000 1.000000 0
8.600000 1.000000 0
8.800000 1.000000 0
9.000000 1.000000 0
9.200000 1.000000 0
9.400000 1.000000 0
9.600000 1.000000 0
0.000000 1.200000 0
0.200000 1.200000 0
0.400000 1.200000 0
0.600000 1.200000 0
0.800000 1.200000 0
1.000000 1.200000 0
1.200000 1.200000 0
1.400000 1.200000 0
1.600000 1.200000 0
1.800000 1.200000 0
2.000000 1.200000 0
2.200000 1.200000 0
2.400000 1.200000 0
2.600000 1.200000 0
2.800000 1.200000 0
3.000000 1.200000 0
3.200000 1.200000 0
3.400000 1.200000 0
3.600000 1.200000 0
3.800000 1.200000 0
4.000000 1.200000 0
4.200000 1.200000 0
4.400000 1.200000 0
4.600000 1.200000 0
4.800000 1.200000 0
5.000000 1.200000 0
5.200000 1.200000 0
5.400000 1.200000 0
5.600000 1.200000 0
5.800000 1.200000 0
6.000000 1.200000 0
6.200000 1.200000 0
6.400000 1.200000 0
6.600000 1.200000 0
6.800000 1.200000 0
7.000000 1.200000 0
7.200000 1.200000 0
7.400000 1.200000 0
7.600000 1.200000 0
7.800000 1.200000 0
8.000000 1.200000 0
8.200000 1.200000 0
8.400000 1.200000 0
8.600000 1.200000 0
8.800000 1.200000 0
9.000000 1.200000 0
9.200000 1.200000 0
9.400000 1.200000 0
9.600000 1.200000 0
0.000000 1.400000 0
0.200000 1.400000 0
0.400000 1.400000 0
0.600000 1.400000 0
0.800000 1.400000 0
1.000000 1.400000 0
1.200000 1.400000 0
1.400000 1.400000 0
1.600000 1.400000 0
1.800000 1.400000 0
2.000000 1.400000 0
2.200000 1.400000 0
2.400000 1.400000 0
2.600000 1.400000 0
2.800000 1.400000 0
3.000000 1.400000 0
3.200000 1.400000 0
3.400000 1.400000 0
3.600000 1.400000 0
3.800000 1.400000 0
4.000000 1.400000 0
4.200000 1.400000 0
4.400000 1.400000 0
4.600000 1.400000 0
4.800000 1.400000 0
5.000000 1.400000 0
5.200000 1.400000 0
5.400000 1.400000 0
5.600000 1.400000 0
5.800000 1.400000 0
6.000000 1.400000 0
6.200000 1.400000 0
6.400000 1.400000 0
6.600000 1.400000 0
6.800000 1.400000 0
7.000000 1.400000 0
7.200000 1.400000 0
7.400000 1.400000 0
7.600000 1.400000 0
7.800000 1.400000 0
8.000000 1.400000 0
8.200000 1.400000 0
8.400000 1.400000 0
8.600000 1.400000 0
8.800000 1.400000 0
9.000000 1.400000 0
9.200000 1.400000 0
9.400000 1.400000 0
9.600000 1.400000 0
0.000000 1.600000 0
0.200000 1.600000 0
0.400000 1.600000 0
0.600000 1.600000 0
0.800000 1.600000 0
1.000000 1.600000 0
1.200000 1.600000 0
1.400000 1.600000 0
1.600000 1.600000 0
1.800000 1.600000 0
2.000000 1.600000 0
2.200000 1.600000 0
2.400000 1.600000 0
2.600000 1.600000 0
2.800000 1.600000 0
3.000000 1.600000 0
3.200000 1.600000 0
3.400000 1.600000 0
3.600000 1.600000 0
3.800000 1.600000 0
4.000000 1.600000 0
4.200000 1.600000 0
4.400000 1.600000 0
4.600000 1.600000 0
4.800000 1.600000 0
5.000000 1.600000 0
5.200000 1.600000 0
5.400000 1.600000 0
5.600000 1.600000 0
5.800000 1.600000 0
6.000000 1.600000 0
6.200000 1.600000 0
6.400000 1.600000 0
6.600000 1.600000 0
6.800000 1.600000 0
7.000000 1.600000 0
7.200000 1.600000 0
7.400000 1.600000 0
7.600000 1.600000 0
7.800000 1.600000 0
8.000000 1.600000 0
8.200000 1.600000 0
8.400000 1.600000 0
8.600000 1.600000 0
8.800000 1.600000 0
9.000000 1.600000 0
9.200000 1.600000 0
9.400000 1.600000 0
9.600000 1.600000 0
0.000000 1.800000 0
0.200000 1.800000 0
0.400000 1.800000 0
0.600000 1.800000 0
0.800000 1.800000 0
1.000000 1.800000 0
1.200000 1.800000 0
1.400000 1.800000 0
1.600000 1.800000 0
1.800000 1.800000 0
2.000000 1.800000 0
2.200000 1.800000 0
2.400000 1.800000 0
2.600000 1.800000 0
2.800000 1.800000 0
3.000000 1.800000 0
3.200000 1.800000 0
3.400000 1.800000 0
3.600000 1.800000 0
3.800000 1.800000 0
4.000000 1.800000 0
4.200000 1.800000 0
4.400000 1.800000 0
4.600000 1.800000 0
4.800000 1.800000 0
5.000000 1.800000 0
5.200000 1.800000 0
5.400000 1.800000 0
5.600000 1.800000 0
5.800000 1.800000 0
6.000000 1.800000 0
6.200000 1.800000 0
6.400000 1.800000 0
6.600000 1.800000 0
6.800000 1.800000 0
7.000000 1.800000 0
7.200000 1.800000 0
7.400000 1.800000 0
7.600000 1.800000 0
7.800000 1.800000 0
8.000000 1.800000 0
8.200000 1.800000 0
8.400000 1.800000 0
8.600000 1.800000 0
8.800000 1.800000 0
9.000000 1.800000 0
9.200000 1.800000 0
9.400000 1.800000 0
9.600000 1.800000 0
0.000000 2.000000 0
0.200000 2.000000 0
0.400000 2.000000 0
0.600000 2.000000 0
0.800000 2.000000 0
1.000000 2.000000 0
1.200000 2.000000 0
1.400000 2.000000 0
1.600000 2.000000 0
1.800000 2.000000 0
2.000000 2.000000 0
2.200000 2.000000 0
2.400000 2.000000 0
2.600000 2.000000 0
2.800000 2.000000 0
3.000000 2.000000 0
3.200000 2.000000 0
3.400000 2.000000 0
3.600000 2.000000 0
3.800000 2.000000 0
4.000000 2.000000 0
4.200000 2.000000 0
4.400000 2.000000 0
4.600000 2.000000 0
4.800000 2.000000 0
5.000000 2.000000 0
5.200000 2.000000 0
5.400000 2.000000 0
5.600000 2.000000 0
5.800000 2.000000 0
6.000000 2.000000 0
6.200000 2.000000 0
6.400000 2.000000 0
6.600000 2.000000 0
6.800000 2.000000 0
7.000000 2.000000 0
7.200000 2.000000 0
7.400000 2.000000 0
7.600000 2.000000 0
7.800000 2.000000 0
8.000000 2.000000 0
8.200000 2.000000 0
8.400000 2.000000 0
8.600000 2.000000 0
8.800000 2.000000 0
9.000000 2.000000 0
9.200000 2.000000 0
9.400000 2.000000 0
9.600000 2.000000 0
0.000000 2.200000 0
0.200000 2.200000 0
0.400000 2.200000 0
0.600000 2.200000 0
0.800000 2.200000 0
1.000000 2.200000 0
1.200000 2.200000 0
1.400000 2.200000 0
1.600000 2.200000 0
1.800000 2.200000 0
2.000000 2.200000 0
2.200000 2.200000 0
2.400000 2.200000 0
2.600000 2.200000 0
2.800000 2.200000 0
3.000000 2.200000 0
3.200000 2.200000 0
3.400000 2.200000 0
3.600000 2.200000 0
3.800000 2.200000 0
4.000000 2.200000 0
4.200000 2.200000 0
4.400000 2.200000 0
4.600000 2.200000 0
4.800000 2.200000 0
5.000000 2.200000 0
5.200000 2.200000 0
5.400000 2.200000 0
5.600000 2.200000 0
5.800000 2.200000 0
6.000000 2.200000 0
6.200000 2.200000 0
6.400000 2.200000 0
6.600000 2.200000 0
6.800000 2.200000 0
7.000000 2.200000 0
7.200000 2.200000 0
7.400000 2.200000 0
7.600000 2.200000 0
7.800000 2.200000 0
8.000000 2.200000 0
8.200000 2.200000 0
8.400000 2.200000 0
8.600000 2.200000 0
8.800000 2.200000 0
9.000000 2.200000 0
9.200000 2.200000 0
9.400000 2.200000 0
9.600000 2.200000 0
0.000000 2.400000 0
0.200000 2.400000 0
0.400000 2.400000 0
0.600000 2.400000 0
0.800000 2.400000 0
1.000000 2.400000 0
1.200000 2.400000 0
1.400000 2.400000 0
1.600000 2.400000 0
1.800000 2.400000 0
2.000000 2.400000 0
2.200000 2.400000 0
2.400000 2.400000 0
2.600000 2.400000 0
2.800000 2.400000 0
3.000000 2.400000 0
3.200000 2.400000 0
3.400000 2.400000 0
3.600000 2.400000 0
3.800000 2.400000 0
4.000000 2.400000 0
4.200000 2.400000 0
4.400000 2.400000 0
4.600000 2.400000 0
4.800000 2.400000 0
5.000000 2.400000 0
5.200000 2.400000 0
5.400000 2.400000 0
5.600000 2.400000 0
5.800000 2.400000 0
6.000000 2.400000 0
6.200000 2.400000 0
6.400000 2.400000 0
6.600000 2.400000 0
6.800000 2.400000 0
7.000000 2.400000 0
7.200000 2.400000 0
7.400000 2.400000 0
7.600000 2.400000 0
7.800000 2.400000 0
8.000000 2.400000 0
8.200000 2.400000 0
8.400000 2.400000 0
8.600000 2.400000 0
8.800000 2.400000 0
9.000000 2.400000 0
9.200000 2.400000 0
9.400000 2.400000 0
9.600000 2.400000 0
0.000000 2.600000 0
0.200000 2.600000 0
0.400000 2.600000 0
0.600000 2.600000 0
0.800000 2.600000 0
1.000000 2.600000 0
1.200000 2.600000 0
1.400000 2.600000 0
1.600000 2.600000 0
1.800000 2.600000 0
2.000000 2.600000 0
2.200000 2.600000 0
2.400000 2.600000 0
2.600000 2.600000 0
2.800000 2.600000 0
3.000000 2.600000 0
3.200000 2.600000 0
3.400000 2.600000 0
3.600000 2.600000 0
3.800000 2.600000 0
4.000000 2.600000 0
4.200000 2.600000 0
4.400000 2.600000 0
4.600000 2.600000 0
4.800000 2.600000 0
5.000000 2.600000 0
5.200000 2.600000 0
5.400000 2.600000 0
5.600000 2.600000 0
5.800000 2.600000 0
6.000000 2.600000 0
6.200000 2.600000 0
6.400000 2.600000 0
6.600000 2.600000 0
6.800000 2.600000 0
7.000000 2.600000 0
7.200000 2.600000 0
7.400000 2.600000 0
7.600000 2.600000 0
7.800000 2.600000 0
8.000000 2.600000 0
8.200000 2.600000 0
8.400000 2.600000 0
8.600000 2.600000 0
8.800000 2.600000 0
9.000000 2.600000 0
9.200000 2.600000 0
9.400000 2.600000 0
9.600000 2.600000 0
0.000000 2.800000 0
0.200000 2.800000 0
0.400000 2.800000 0
0.600000 2.800000 0
0.800000 2.800000 0
1.000000 2.800000 0
1.200000 2.800000 0
1.400000 2.800000 0
1.600000 2.800000 0
1.800000 2.800000 0
2.000000 2.800000 0
2.200000 2.800000 0
2.400000 2.800000 0
2.600000 2.800000 0
2.800000 2.800000 0
3.000000 2.800000 0
3.200000 2.800000 0
3.400000 2.800000 0
3.600000 2.800000 0
3.800000 2.800000 0
4.000000 2.800000 0
4.200000 2.800000 0
4.400000 2.800000 0
4.600000 2.800000 0
4.800000 2.800000 0
5.000000 2.800000 0
5.200000 2.800000 0
5.400000 2.800000 0
5.600000 2.800000 0
5.800000 2.800000 0
6.000000 2.800000 0
6.200000 2.800000 0
6.400000 2.800000 0
6.600000 2.800000 0
6.800000 2.800000 0
7.000000 2.800000 0
7.200000 2.800000 0
7.400000 2.800000 0
7.600000 2.800000 0
7.800000 2.800000 0
8.000000 2.800000 0
8.200000 2.800000 0
8.400000 2.800000 0
8.600000 2.800000 0
8.800000 2.800000 0
9.000000 2.800000 0
9.200000 2.800000 0
9.400000 2.800000 0
9.600000 2.800000 0
0.000000 3.000000 0
0.200000 3.000000 0
0.400000 3.000000 0
0.600000 3.000000 0
0.800000 3.000000 0
1.000000 3.000000 0
1.200000 3.000000 0
1.400000 3.000000 0
1.600000 3.000000 0
1.800000 3.000000 0
2.000000 3.000000 0
2.200000 3.000000 0
2.400000 3.000000 0
2.600000 3.000000 0
2.800000 3.000000 0
3.000000 3.000000 0
3.200000 3.000000 0
3.400000 3.000000 0
3.600000 3.000000 0
3.800000 3.000000 0
4.000000 3.000000 0
4.200000 3.000000 0
4.400000 3.000000 0
4.600000 3.000000 0
4.800000 3.000000 0
5.000000 3.000000 0
5.200000 3.000000 0
5.400000 3.000000 0
5.600000 3.000000 0
5.800000 3.000000 0
6.000000 3.000000 0
6.200000 3.000000 0
6.400000 3.000000 0
6.600000 3.000000 0
6.800000 3.000000 0
7.000000 3.000000 0
7.200000 3.000000 0
7.400000 3.000000 0
7.600000 3.000000 0
7.800000 3.000000 0
8.000000 3.000000 0
8.200000 3.000000 0
8.400000 3.000000 0
8.600000 3.000000 0
8.800000 3.000000 0
9.000000 3.000000 0
9.200000 3.000000 0
9.400000 3.000000 0
9.600000 3.000000 0
0.000000 3.200000 0
0.200000 3.200000 0
0.400000 3.200000 0
0.600000 3.200000 0
0.800000 3.200000 0
1.000000 3.200000 0
1.200000 3.200000 0
1.400000 3.200000 0
1.600000 3.200000 0
1.800000 3.200000 0
2.000000 3.200000 0
2.200000 3.200000 0
2.400000 3.200000 0
2.600000 3.200000 0
2.800000 3.200000 0
3.000000 3.200000 0
3.200000 3.200000 0
3.400000 3.200000 0
3.600000 3.200000 0
3.800000 3.200000 0
4.000000 3.200000 0
4.200000 3.200000 0
4.400000 3.200000 0
4.600000 3.200000 0
4.800000 3.200000 0
5.000000 3.200000 0
5.200000 3.200000 0
5.400000 3.200000 0
5.600000 3.200000 0
5.800000 3.200000 0
6.000000 3.200000 0
6.200000 3.200000 0
6.400000 3.200000 0
6.600000 3.200000 0
6.800000 3.200000 0
7.000000 3.200000 0
7.200000 3.200000 0
7.400000 3.200000 0
7.600000 3.200000 0
7.800000 3.200000 0
8.000000 3.200000 0
8.200000 3.200000 0
8.400000 3.200000 0
8.600000 3.200000 0
8.800000 3.200000 0
9.000000 3.200000 0
9.200000 3.200000 0
9.400000 3.200000 0
9.600000 3.200000 0
0.000000 3.400000 0
0.200000 3.400000 0
0.400000 3.400000 0
0.600000 3.400000 0
0.800000 3.400000 0
1.000000 3.400000 0
1.200000 3.400000 0
1.400000 3.400000 0
1.600000 3.400000 0
1.800000 3.400000 0
2.000000 3.400000 0
2.200000 3.400000 0
2.400000 3.400000 0
2.600000 3.400000 0
2.800000 3.400000 0
3.000000 3.400000 0
3.200000 3.400000 0
3.400000 3.400000 0
3.600000 3.400000 0
3.800000 3.400000 0
4.000000 3.400000 0
4.200000 3.400000 0
4.400000 3.400000 0
4.600000 3.400000 0
4.800000 3.400000 0
5.000000 3.400000 0
5.200000 3.400000 0
5.400000 3.400000 0
5.600000 3.400000 0
5.800000 3.400000 0
6.000000 3.400000 0
6.200000 3.400000 0
6.400000 3.400000 0
6.600000 3.400000 0
6.800000 3.400000 0
7.000000 3.400000 0
7.200000 3.400000 0
7.400000 3.400000 0
7.600000 3.400000 0
7.800000 3.400000 0
8.000000 3.400000 0
8.200000 3.400000 0
8.400000 3.400000 0
8.600000 3.400000 0
8.800000 3.400000 0
9.000000 3.400000 0
9.200000 3.400000 0
9.400000 3.400000 0
9.600000 3.400000 0
0.000000 3.600000 0
0.200000 3.600000 0
0.400000 3.600000 0
0.600000 3.600000 0
0.800000 3.600000 0
1.000000 3.600000 0
1.200000 3.600000 0
1.400000 3.600000 0
1.600000 3.600000 0
1.800000 3.600000 0
2.000000 3.600000 0
2.200000 3.600000 0
2.400000 3.600000 0
2.600000 3.600000 0
2.800000 3.600000 0
3.000000 3.600000 0
3.200000 3.600000 0
3.400000 3.600000 0
3.600000 3.600000 0
3.800000 3.600000 0
4.000000 3.600000 0
4.200000 3.600000 0
4.400000 3.600000 0
4.600000 3.600000 0
4.800000 3.600000 0
5.000000 3.600000 0
5.200000 3.600000 0
5.400000 3.600000 0
5.600000 3.600000 0
5.800000 3.600000 0
6.000000 3.600000 0
6.200000 3.600000 0
6.400000 3.600000 0
6.600000 3.600000 0
6.800000 3.600000 0
7.000000 3.600000 0
7.200000 3.600000 0
7.400000 3.600000 0
7.600000 3.600000 0
7.800000 3.600000 0
8.000000 3.600000 0
8.200000 3.600000 0
8.400000 3.600000 0
8.600000 3.600000 0
8.800000 3.600000 0
9.000000 3.600000 0
9.200000 3.600000 0
9.400000 3.600000 0
9.600000 3.600000 0
POINT_DATA 931 

VECTORS velocity float
0.000000 0.000000 0
0.000000 0.000000 0
0.000000 0.000000 0
0.000000 0.000000 0
0.000000 0.000000 0
0.000000 0.000000 0
0.000000 0.000000 0
0.000000 0.000000 0
0.000000 0.000000 0
0.000000 0.000000 0
0.000000 0.000000 0
0.000000 0.000000 0
0.000000 0.000000 0
0.000000 0.000000 0
0.000000 0.000000 0
-0.079846 0.000000 0
0.635336 0.000000 0
0.000000 0.000000 0
0.000000 0.000000 0
0.000000 0.000000 0
0.000000 0.000000 0
0.000000 0.000000 0
0.000000 0.000000 0
0.000000 0.000000 0
0.000000 0.000000 0
0.000000 0.000000 0
0.000000 0.000000 0
0.000000 0.000000 0
0.000000 0.000000 0
0.000000 0.000000 0
0.000000 0.000000 0
0.000000 0.000000 0
0.000000 0.000000 0
0.000000 0.000000 0
0.000000 0.000000 0
0.000000 0.000000 0
0.000000 0.000000 0
0.000000 0.000000 0
0.000000 0.000000 0
0.000000 0.000000 0
0.000000 0.000000 0
0.000000 0.000000 0
0.000000 0.000000 0
0.000000 0.000000 0
0.000000 0.000000 0
0.000000 0.000000 0
0.000000 0.000000 0
0.000000 0.000000 0
0.000000 0.000000 0
0.000000 0.000000 0
0.007107 -0.007702 0
0.026539 -0.015250 0
0.054038 -0.020184 0
0.087021 -0.023744 0
0.124811 -0.027269 0
0.168089 -0.031662 0
0.218405 -0.037550 0
0.277925 -0.045478 0
0.349293 -0.055980 0
0.435417 -0.069541 0
0.538960 -0.086859 0
0.661567 -0.110680 0
0.804142 -0.149786 0
0.971705 -0.216874 0
1.174736 -0.479896 0
1.270672 -0.700832 0
0.000000 -0.350416 0
0.000000 0.000000 0
0.000000 0.000000 0
0.000000 0.000000 0
0.000000 0.000000 0
0.000000 0.000000 0
0.000000 0.000000 0
0.000000 0.000000 0
0.000000 0.000000 0
0.000000 0.000000 0
0.000000 0.000000 0
0.000000 0.000000 0
0.000000 0.000000 0
0.000000 0.000000 0
0.000000 0.000000 0
0.000000 0.000000 0
0.000000 0.000000 0
0.000000 0.000000 0
0.000000 0.000000 0
0.000000 0.000000 0
0.000000 0.000000 0
0.000000 0.000000 0
0.000000 0.000000 0
0.000000 0.000000 0
0.000000 0.000000 0
0.000000 0.000000 0
0.000000 0.000000 0
0.000000 0.000000 0
0.000000 0.000000 0
0.000000 0.000000 0
0.000000 0.000000 0
0.000000 0.000000 0
0.000000 0.000000 0
0.013221 -0.026738 0
0.043139 -0.047043 0
0.083547 -0.060585 0
0.131318 -0.070865 0
0.185706 -0.081150 0
0.247552 -0.093666 0
0.318647 -0.109896 0
0.401330 -0.130936 0
0.498156 -0.157530 0
0.611366 -0.189695 0
0.741808 -0.226168 0
0.886526 -0.265191 0
1.034125 -0.310139 0
1.157621 -0.370593 0
1.237923 -0.528447 0
1.270672 -0.650832 0
0.000000 -0.325416 0
0.000000 0.000000 0
0.000000 0.000000 0
0.000000 0.000000 0
0.000000 0.000000 0
0.000000 0.000000 0
0.000000 0.000000 0
0.000000 0.000000 0
0.000000 0.000000 0
0.000000 0.000000 0
0.000000 0.000000 0
0.000000 0.000000 0
0.000000 0.000000 0
0.000000 0.000000 0
0.000000 0.000000 0
0.000000 0.000000 0
0.000000 0.000000 0
0.000000 0.000000 0
0.000000 0.000000 0
0.000000 0.000000 0
0.000000 0.000000 0
0.000000 0.000000 0
0.000000 0.000000 0
0.000000 0.000000 0
0.000000 0.000000 0
0.000000 0.000000 0
0.000000 0.000000 0
0.000000 0.000000 0
0.000000 0.000000 0
0.000000 0.000000 0
0.000000 0.000000 0
0.000000 0.000000 0
0.000000 0.000000 0
0.015552 -0.050956 0
0.049053 -0.085611 0
0.093135 -0.108394 0
0.144538 -0.125930 0
0.202563 -0.143525 0
0.267988 -0.164620 0
0.342340 -0.191341 0
0.427428 -0.224996 0
0.524924 -0.266020 0
0.635747 -0.313194 0
0.758984 -0.362017 0
0.889882 -0.402992 0
1.015537 -0.420873 0
1.111967 -0.413917 0
1.118718 -0.369606 0
0.635336 -0.166575 0
0.000000 0.000000 0
0.000000 0.000000 0
0.000000 0.000000 0
0.000000 0.000000 0
0.000000 0.000000 0
0.000000 0.000000 0
0.000000 0.000000 0
0.000000 0.000000 0
0.000000 0.000000 0
0.000000 0.000000 0
0.000000 0.000000 0
0.000000 0.000000 0
0.000000 0.000000 0
0.000000 0.000000 0
0.000000 0.000000 0
0.000000 0.000000 0
0.000000 0.000000 0
0.000000 0.000000 0
0.000000 0.000000 0
0.000000 0.000000 0
0.000000 0.000000 0
0.000000 0.000000 0
0.000000 0.000000 0
0.000000 0.000000 0
0.000000 0.000000 0
0.000000 0.000000 0
0.000000 0.000000 0
0.000000 0.000000 0
0.000000 0.000000 0
0.000000 0.000000 0
0.000000 0.000000 0
0.000000 0.000000 0
0.000000 0.000000 0
0.015387 -0.075902 0
0.048002 -0.124659 0
0.090303 -0.156099 0
0.139141 -0.180318 0
0.193898 -0.204621 0
0.255249 -0.233459 0
0.324393 -0.269348 0
0.402577 -0.313527 0
0.490664 -0.365854 0
0.588528 -0.423755 0
0.694191 -0.480299 0
0.802480 -0.521736 0
0.902950 -0.532216 0
1.014002 -0.467020 0
1.082261 -0.406062 0
0.000000 -0.203031 0
0.000000 0.000000 0
0.000000 0.000000 0
0.000000 0.000000 0
0.000000 0.000000 0
0.000000 0.000000 0
0.000000 0.000000 0
0.000000 0.000000 0
0.000000 0.000000 0
0.000000 0.000000 0
0.000000 0.000000 0
0.000000 0.000000 0
0.000000 0.000000 0
0.000000 0.000000 0
0.000000 0.000000 0
0.000000 0.000000 0
0.000000 0.000000 0
0.000000 0.000000 0
0.000000 0.000000 0
0.000000 0.000000 0
0.000000 0.000000 0
0.000000 0.000000 0
0.000000 0.000000 0
0.000000 0.000000 0
0.000000 0.000000 0
0.000000 0.000000 0
0.000000 0.000000 0
0.000000 0.000000 0
0.000000 0.000000 0
0.000000 0.000000 0
0.000000 0.000000 0
0.000000 0.000000 0
0.000000 0.000000 0
0.000000 0.000000 0
0.013922 -0.099063 0
0.043051 -0.160559 0
0.080451 -0.199560 0
0.123359 -0.229548 0
0.171317 -0.259652 0
0.224943 -0.295129 0
0.285187 -0.338680 0
0.352871 -0.391274 0
0.428237 -0.451974 0
0.510330 -0.516720 0
0.596279 -0.575964 0
0.680618 -0.611742 0
0.744999 -0.596599 0
0.802948 -0.429500 0
0.541131 -0.143353 0
0.000000 0.000000 0
0.000000 0.000000 0
0.000000 0.000000 0
0.000000 0.000000 0
0.000000 0.000000 0
0.000000 0.000000 0
0.000000 0.000000 0
0.000000 0.000000 0
0.000000 0.000000 0
0.000000 0.000000 0
0.000000 0.000000 0
0.000000 0.000000 0
0.000000 0.000000 0
0.000000 0.000000 0
0.000000 0.000000 0
0.000000 0.000000 0
0.000000 0.000000 0
0.000000 0.000000 0
0.000000 0.000000 0
0.000000 0.000000 0
0.000000 0.000000 0
0.000000 0.000000 0
0.000000 0.000000 0
0.000000 0.000000 0
0.000000 0.000000 0
0.000000 0.000000 0
0.000000 0.000000 0
0.000000 0.000000 0
0.000000 0.000000 0
0.000000 0.000000 0
0.000000 0.000000 0
0.000000 0.000000 0
0.000000 0.000000 0
0.000000 0.000000 0
0.011733 -0.119054 0
0.035811 -0.191218 0
0.066421 -0.236432 0
0.101430 -0.271205 0
0.140646 -0.306223 0
0.184705 -0.347343 0
0.234417 -0.397285 0
0.290323 -0.456583 0
0.352194 -0.523314 0
0.418265 -0.591794 0
0.484602 -0.650581 0
0.546849 -0.670448 0
0.604787 -0.618750 0
0.660154 -0.572294 0
0.000000 -0.286147 0
0.000000 0.000000 0
0.000000 0.000000 0
0.000000 0.000000 0
0.000000 0.000000 0
0.000000 0.000000 0
0.000000 0.000000 0
0.000000 0.000000 0
0.000000 0.000000 0
0.000000 0.000000 0
0.000000 0.000000 0
0.000000 0.000000 0
0.000000 0.000000 0
0.000000 0.000000 0
0.000000 0.000000 0
0.000000 0.000000 0
0.000000 0.000000 0
0.000000 0.000000 0
0.000000 0.000000 0
0.000000 0.000000 0
0.000000 0.000000 0
0.000000 0.000000 0
0.000000 0.000000 0
0.000000 0.000000 0
0.000000 0.000000 0
0.000000 0.000000 0
0.000000 0.000000 0
0.000000 0.000000 0
0.000000 0.000000 0
0.000000 0.000000 0
0.000000 0.000000 0
0.000000 0.000000 0
0.000000 0.000000 0
0.000000 0.000000 0
0.000000 0.000000 0
0.009011 -0.134970 0
0.026946 -0.215275 0
0.049463 -0.265204 0
0.075244 -0.303793 0
0.104449 -0.342943 0
0.137818 -0.388913 0
0.176132 -0.444306 0
0.219799 -0.509055 0
0.268235 -0.579916 0
0.318677 -0.649123 0
0.364966 -0.704540 0
0.398765 -0.731920 0
0.435986 -0.616344 0
0.330077 -0.247956 0
0.000000 0.000000 0
0.000000 0.000000 0
0.000000 0.000000 0
0.000000 0.000000 0
0.000000 0.000000 0
0.000000 0.000000 0
0.000000 0.000000 0
0.000000 0.000000 0
0.000000 0.000000 0
0.000000 0.000000 0
0.000000 0.000000 0
0.000000 0.000000 0
0.000000 0.000000 0
0.000000 0.000000 0
0.000000 0.000000 0
0.000000 0.000000 0
0.000000 0.000000 0
0.000000 0.000000 0
0.000000 0.000000 0
0.000000 0.000000 0
0.000000 0.000000 0
0.000000 0.000000 0
0.000000 0.000000 0
0.000000 0.000000 0
0.000000 0.000000 0
0.000000 0.000000 0
0.000000 0.000000 0
0.000000 0.000000 0
0.000000 0.000000 0
0.000000 0.000000 0
0.000000 0.000000 0
0.000000 0.000000 0
0.000000 0.000000 0
0.000000 0.000000 0
0.000000 0.000000 0
0.005811 -0.146091 0
0.016722 -0.231697 0
0.030131 -0.284752 0
0.045649 -0.326211 0
0.063850 -0.368812 0
0.085638 -0.419036 0
0.111873 -0.479273 0
0.142993 -0.548688 0
0.178275 -0.622190 0
0.214529 -0.688520 0
0.243897 -0.730660 0
0.257098 -0.734467 0
0.258535 -0.661641 0
0.000000 -0.298812 0
0.000000 0.000000 0
0.000000 0.000000 0
0.000000 0.000000 0
0.000000 0.000000 0
0.000000 0.000000 0
0.000000 0.000000 0
0.000000 0.000000 0
0.000000 0.000000 0
0.000000 0.000000 0
0.000000 0.000000 0
0.000000 0.000000 0
0.000000 0.000000 0
0.000000 0.000000 0
0.000000 0.000000 0
0.000000 0.000000 0
0.000000 0.000000 0
0.000000 0.000000 0
0.000000 0.000000 0
0.000000 0.000000 0
0.000000 0.000000 0
0.000000 0.000000 0
0.000000 0.000000 0
0.000000 0.000000 0
0.000000 0.000000 0
0.000000 0.000000 0
0.000000 0.000000 0
0.000000 0.000000 0
0.000000 0.000000 0
0.000000 0.000000 0
0.000000 0.000000 0
0.000000 0.000000 0
0.000000 0.000000 0
0.000000 0.000000 0
0.000000 0.000000 0
0.000000 0.000000 0
0.002160 -0.151780 0
0.005309 -0.239622 0
0.008781 -0.294153 0
0.013167 -0.337530 0
0.019463 -0.382945 0
0.028762 -0.436945 0
0.042075 -0.501668 0
0.059952 -0.575459 0
0.081719 -0.651449 0
0.104454 -0.714738 0
0.122367 -0.747100 0
0.112045 -0.739557 0
0.194518 -0.725657 0
0.000000 -0.362828 0
0.000000 0.000000 0
0.000000 0.000000 0
0.000000 0.000000 0
0.000000 0.000000 0
0.000000 0.000000 0
0.000000 0.000000 0
0.000000 0.000000 0
0.000000 0.000000 0
0.000000 0.000000 0
0.000000 0.000000 0
0.000000 0.000000 0
0.000000 0.000000 0
0.000000 0.000000 0
0.000000 0.000000 0
0.000000 0.000000 0
0.000000 0.000000 0
0.000000 0.000000 0
0.000000 0.000000 0
0.000000 0.000000 0
0.000000 0.000000 0
0.000000 0.000000 0
0.000000 0.000000 0
0.000000 0.000000 0
0.000000 0.000000 0
0.000000 0.000000 0
0.000000 0.000000 0
0.000000 0.000000 0
0.000000 0.000000 0
0.000000 0.000000 0
0.000000 0.000000 0
0.000000 0.000000 0
0.000000 0.000000 0
0.000000 0.000000 0
0.000000 0.000000 0
0.000000 0.000000 0
-0.001890 -0.151483 0
-0.007091 -0.238341 0
-0.014192 -0.292631 0
-0.021658 -0.336910 0
-0.028143 -0.384420 0
-0.032391 -0.441656 0
-0.033242 -0.510467 0
-0.030083 -0.588332 0
-0.023794 -0.666689 0
-0.017764 -0.729161 0
-0.016878 -0.738243 0
-0.021884 -0.671172 0
0.097259 -0.309858 0
0.000000 0.000000 0
0.000000 0.000000 0
0.000000 0.000000 0
0.000000 0.000000 0
0.000000 0.000000 0
0.000000 0.000000 0
0.000000 0.000000 0
0.000000 0.000000 0
0.000000 0.000000 0
0.000000 0.000000 0
0.000000 0.000000 0
0.000000 0.000000 0
0.000000 0.000000 0
0.000000 0.000000 0
0.000000 0.000000 0
0.000000 0.000000 0
0.000000 0.000000 0
0.000000 0.000000 0
0.000000 0.000000 0
0.000000 0.000000 0
0.000000 0.000000 0
0.000000 0.000000 0
0.000000 0.000000 0
0.000000 0.000000 0
0.000000 0.000000 0
0.000000 0.000000 0
0.000000 0.000000 0
0.000000 0.000000 0
0.000000 0.000000 0
0.000000 0.000000 0
0.000000 0.000000 0
0.000000 0.000000 0
0.000000 0.000000 0
0.000000 0.000000 0
0.000000 0.000000 0
0.000000 0.000000 0
-0.006241 -0.144768 0
-0.020130 -0.227343 0
-0.038153 -0.279605 0
-0.057984 -0.323594 0
-0.078075 -0.372223 0
-0.097097 -0.431852 0
-0.113747 -0.503979 0
-0.127242 -0.584907 0
-0.139012 -0.663764 0