# vtk DataFile Version 2.0
generated by CFD-lab course output (written by Tobias Neckel) 
ASCII

DATASET STRUCTURED_GRID
DIMENSIONS  49 19 1 
POINTS 931 float

0.000000 0.000000 0
0.200000 0.000000 0
0.400000 0.000000 0
0.600000 0.000000 0
0.800000 0.000000 0
1.000000 0.000000 0
1.200000 0.000000 0
1.400000 0.000000 0
1.600000 0.000000 0
1.800000 0.000000 0
2.000000 0.000000 0
2.200000 0.000000 0
2.400000 0.000000 0
2.600000 0.000000 0
2.800000 0.000000 0
3.000000 0.000000 0
3.200000 0.000000 0
3.400000 0.000000 0
3.600000 0.000000 0
3.800000 0.000000 0
4.000000 0.000000 0
4.200000 0.000000 0
4.400000 0.000000 0
4.600000 0.000000 0
4.800000 0.000000 0
5.000000 0.000000 0
5.200000 0.000000 0
5.400000 0.000000 0
5.600000 0.000000 0
5.800000 0.000000 0
6.000000 0.000000 0
6.200000 0.000000 0
6.400000 0.000000 0
6.600000 0.000000 0
6.800000 0.000000 0
7.000000 0.000000 0
7.200000 0.000000 0
7.400000 0.000000 0
7.600000 0.000000 0
7.800000 0.000000 0
8.000000 0.000000 0
8.200000 0.000000 0
8.400000 0.000000 0
8.600000 0.000000 0
8.800000 0.000000 0
9.000000 0.000000 0
9.200000 0.000000 0
9.400000 0.000000 0
9.600000 0.000000 0
0.000000 0.200000 0
0.200000 0.200000 0
0.400000 0.200000 0
0.600000 0.200000 0
0.800000 0.200000 0
1.000000 0.200000 0
1.200000 0.200000 0
1.400000 0.200000 0
1.600000 0.200000 0
1.800000 0.200000 0
2.000000 0.200000 0
2.200000 0.200000 0
2.400000 0.200000 0
2.600000 0.200000 0
2.800000 0.200000 0
3.000000 0.200000 0
3.200000 0.200000 0
3.400000 0.200000 0
3.600000 0.200000 0
3.800000 0.200000 0
4.000000 0.200000 0
4.200000 0.200000 0
4.400000 0.200000 0
4.600000 0.200000 0
4.800000 0.200000 0
5.000000 0.200000 0
5.200000 0.200000 0
5.400000 0.200000 0
5.600000 0.200000 0
5.800000 0.200000 0
6.000000 0.200000 0
6.200000 0.200000 0
6.400000 0.200000 0
6.600000 0.200000 0
6.800000 0.200000 0
7.000000 0.200000 0
7.200000 0.200000 0
7.400000 0.200000 0
7.600000 0.200000 0
7.800000 0.200000 0
8.000000 0.200000 0
8.200000 0.200000 0
8.400000 0.200000 0
8.600000 0.200000 0
8.800000 0.200000 0
9.000000 0.200000 0
9.200000 0.200000 0
9.400000 0.200000 0
9.600000 0.200000 0
0.000000 0.400000 0
0.200000 0.400000 0
0.400000 0.400000 0
0.600000 0.400000 0
0.800000 0.400000 0
1.000000 0.400000 0
1.200000 0.400000 0
1.400000 0.400000 0
1.600000 0.400000 0
1.800000 0.400000 0
2.000000 0.400000 0
2.200000 0.400000 0
2.400000 0.400000 0
2.600000 0.400000 0
2.800000 0.400000 0
3.000000 0.400000 0
3.200000 0.400000 0
3.400000 0.400000 0
3.600000 0.400000 0
3.800000 0.400000 0
4.000000 0.400000 0
4.200000 0.400000 0
4.400000 0.400000 0
4.600000 0.400000 0
4.800000 0.400000 0
5.000000 0.400000 0
5.200000 0.400000 0
5.400000 0.400000 0
5.600000 0.400000 0
5.800000 0.400000 0
6.000000 0.400000 0
6.200000 0.400000 0
6.400000 0.400000 0
6.600000 0.400000 0
6.800000 0.400000 0
7.000000 0.400000 0
7.200000 0.400000 0
7.400000 0.400000 0
7.600000 0.400000 0
7.800000 0.400000 0
8.000000 0.400000 0
8.200000 0.400000 0
8.400000 0.400000 0
8.600000 0.400000 0
8.800000 0.400000 0
9.000000 0.400000 0
9.200000 0.400000 0
9.400000 0.400000 0
9.600000 0.400000 0
0.000000 0.600000 0
0.200000 0.600000 0
0.400000 0.600000 0
0.600000 0.600000 0
0.800000 0.600000 0
1.000000 0.600000 0
1.200000 0.600000 0
1.400000 0.600000 0
1.600000 0.600000 0
1.800000 0.600000 0
2.000000 0.600000 0
2.200000 0.600000 0
2.400000 0.600000 0
2.600000 0.600000 0
2.800000 0.600000 0
3.000000 0.600000 0
3.200000 0.600000 0
3.400000 0.600000 0
3.600000 0.600000 0
3.800000 0.600000 0
4.000000 0.600000 0
4.200000 0.600000 0
4.400000 0.600000 0
4.600000 0.600000 0
4.800000 0.600000 0
5.000000 0.600000 0
5.200000 0.600000 0
5.400000 0.600000 0
5.600000 0.600000 0
5.800000 0.600000 0
6.000000 0.600000 0
6.200000 0.600000 0
6.400000 0.600000 0
6.600000 0.600000 0
6.800000 0.600000 0
7.000000 0.600000 0
7.200000 0.600000 0
7.400000 0.600000 0
7.600000 0.600000 0
7.800000 0.600000 0
8.000000 0.600000 0
8.200000 0.600000 0
8.400000 0.600000 0
8.600000 0.600000 0
8.800000 0.600000 0
9.000000 0.600000 0
9.200000 0.600000 0
9.400000 0.600000 0
9.600000 0.600000 0
0.000000 0.800000 0
0.200000 0.800000 0
0.400000 0.800000 0
0.600000 0.800000 0
0.800000 0.800000 0
1.000000 0.800000 0
1.200000 0.800000 0
1.400000 0.800000 0
1.600000 0.800000 0
1.800000 0.800000 0
2.000000 0.800000 0
2.200000 0.800000 0
2.400000 0.800000 0
2.600000 0.800000 0
2.800000 0.800000 0
3.000000 0.800000 0
3.200000 0.800000 0
3.400000 0.800000 0
3.600000 0.800000 0
3.800000 0.800000 0
4.000000 0.800000 0
4.200000 0.800000 0
4.400000 0.800000 0
4.600000 0.800000 0
4.800000 0.800000 0
5.000000 0.800000 0
5.200000 0.800000 0
5.400000 0.800000 0
5.600000 0.800000 0
5.800000 0.800000 0
6.000000 0.800000 0
6.200000 0.800000 0
6.400000 0.800000 0
6.600000 0.800000 0
6.800000 0.800000 0
7.000000 0.800000 0
7.200000 0.800000 0
7.400000 0.800000 0
7.600000 0.800000 0
7.800000 0.800000 0
8.000000 0.800000 0
8.200000 0.800000 0
8.400000 0.800000 0
8.600000 0.800000 0
8.800000 0.800000 0
9.000000 0.800000 0
9.200000 0.800000 0
9.400000 0.800000 0
9.600000 0.800000 0
0.000000 1.000000 0
0.200000 1.000000 0
0.400000 1.000000 0
0.600000 1.000000 0
0.800000 1.000000 0
1.000000 1.000000 0
1.200000 1.000000 0
1.400000 1.000000 0
1.600000 1.000000 0
1.800000 1.000000 0
2.000000 1.000000 0
2.200000 1.000000 0
2.400000 1.000000 0
2.600000 1.000000 0
2.800000 1.000000 0
3.000000 1.000000 0
3.200000 1.000000 0
3.400000 1.000000 0
3.600000 1.000000 0
3.800000 1.000000 0
4.000000 1.000000 0
4.200000 1.000000 0
4.400000 1.000000 0
4.600000 1.000000 0
4.800000 1.000000 0
5.000000 1.000000 0
5.200000 1.000000 0
5.400000 1.000000 0
5.600000 1.000000 0
5.800000 1.000000 0
6.000000 1.000000 0
6.200000 1.000000 0
6.400000 1.000000 0
6.600000 1.000000 0
6.800000 1.000000 0
7.000000 1.000000 0
7.200000 1.000000 0
7.400000 1.000000 0
7.600000 1.000000 0
7.800000 1.000000 0
8.000000 1.000000 0
8.200000 1.000000 0
8.400000 1.000000 0
8.600000 1.000000 0
8.800000 1.000000 0
9.000000 1.000000 0
9.200000 1.000000 0
9.400000 1.000000 0
9.600000 1.000000 0
0.000000 1.200000 0
0.200000 1.200000 0
0.400000 1.200000 0
0.600000 1.200000 0
0.800000 1.200000 0
1.000000 1.200000 0
1.200000 1.200000 0
1.400000 1.200000 0
1.600000 1.200000 0
1.800000 1.200000 0
2.000000 1.200000 0
2.200000 1.200000 0
2.400000 1.200000 0
2.600000 1.200000 0
2.800000 1.200000 0
3.000000 1.200000 0
3.200000 1.200000 0
3.400000 1.200000 0
3.600000 1.200000 0
3.800000 1.200000 0
4.000000 1.200000 0
4.200000 1.200000 0
4.400000 1.200000 0
4.600000 1.200000 0
4.800000 1.200000 0
5.000000 1.200000 0
5.200000 1.200000 0
5.400000 1.200000 0
5.600000 1.200000 0
5.800000 1.200000 0
6.000000 1.200000 0
6.200000 1.200000 0
6.400000 1.200000 0
6.600000 1.200000 0
6.800000 1.200000 0
7.000000 1.200000 0
7.200000 1.200000 0
7.400000 1.200000 0
7.600000 1.200000 0
7.800000 1.200000 0
8.000000 1.200000 0
8.200000 1.200000 0
8.400000 1.200000 0
8.600000 1.200000 0
8.800000 1.200000 0
9.000000 1.200000 0
9.200000 1.200000 0
9.400000 1.200000 0
9.600000 1.200000 0
0.000000 1.400000 0
0.200000 1.400000 0
0.400000 1.400000 0
0.600000 1.400000 0
0.800000 1.400000 0
1.000000 1.400000 0
1.200000 1.400000 0
1.400000 1.400000 0
1.600000 1.400000 0
1.800000 1.400000 0
2.000000 1.400000 0
2.200000 1.400000 0
2.400000 1.400000 0
2.600000 1.400000 0
2.800000 1.400000 0
3.000000 1.400000 0
3.200000 1.400000 0
3.400000 1.400000 0
3.600000 1.400000 0
3.800000 1.400000 0
4.000000 1.400000 0
4.200000 1.400000 0
4.400000 1.400000 0
4.600000 1.400000 0
4.800000 1.400000 0
5.000000 1.400000 0
5.200000 1.400000 0
5.400000 1.400000 0
5.600000 1.400000 0
5.800000 1.400000 0
6.000000 1.400000 0
6.200000 1.400000 0
6.400000 1.400000 0
6.600000 1.400000 0
6.800000 1.400000 0
7.000000 1.400000 0
7.200000 1.400000 0
7.400000 1.400000 0
7.600000 1.400000 0
7.800000 1.400000 0
8.000000 1.400000 0
8.200000 1.400000 0
8.400000 1.400000 0
8.600000 1.400000 0
8.800000 1.400000 0
9.000000 1.400000 0
9.200000 1.400000 0
9.400000 1.400000 0
9.600000 1.400000 0
0.000000 1.600000 0
0.200000 1.600000 0
0.400000 1.600000 0
0.600000 1.600000 0
0.800000 1.600000 0
1.000000 1.600000 0
1.200000 1.600000 0
1.400000 1.600000 0
1.600000 1.600000 0
1.800000 1.600000 0
2.000000 1.600000 0
2.200000 1.600000 0
2.400000 1.600000 0
2.600000 1.600000 0
2.800000 1.600000 0
3.000000 1.600000 0
3.200000 1.600000 0
3.400000 1.600000 0
3.600000 1.600000 0
3.800000 1.600000 0
4.000000 1.600000 0
4.200000 1.600000 0
4.400000 1.600000 0
4.600000 1.600000 0
4.800000 1.600000 0
5.000000 1.600000 0
5.200000 1.600000 0
5.400000 1.600000 0
5.600000 1.600000 0
5.800000 1.600000 0
6.000000 1.600000 0
6.200000 1.600000 0
6.400000 1.600000 0
6.600000 1.600000 0
6.800000 1.600000 0
7.000000 1.600000 0
7.200000 1.600000 0
7.400000 1.600000 0
7.600000 1.600000 0
7.800000 1.600000 0
8.000000 1.600000 0
8.200000 1.600000 0
8.400000 1.600000 0
8.600000 1.600000 0
8.800000 1.600000 0
9.000000 1.600000 0
9.200000 1.600000 0
9.400000 1.600000 0
9.600000 1.600000 0
0.000000 1.800000 0
0.200000 1.800000 0
0.400000 1.800000 0
0.600000 1.800000 0
0.800000 1.800000 0
1.000000 1.800000 0
1.200000 1.800000 0
1.400000 1.800000 0
1.600000 1.800000 0
1.800000 1.800000 0
2.000000 1.800000 0
2.200000 1.800000 0
2.400000 1.800000 0
2.600000 1.800000 0
2.800000 1.800000 0
3.000000 1.800000 0
3.200000 1.800000 0
3.400000 1.800000 0
3.600000 1.800000 0
3.800000 1.800000 0
4.000000 1.800000 0
4.200000 1.800000 0
4.400000 1.800000 0
4.600000 1.800000 0
4.800000 1.800000 0
5.000000 1.800000 0
5.200000 1.800000 0
5.400000 1.800000 0
5.600000 1.800000 0
5.800000 1.800000 0
6.000000 1.800000 0
6.200000 1.800000 0
6.400000 1.800000 0
6.600000 1.800000 0
6.800000 1.800000 0
7.000000 1.800000 0
7.200000 1.800000 0
7.400000 1.800000 0
7.600000 1.800000 0
7.800000 1.800000 0
8.000000 1.800000 0
8.200000 1.800000 0
8.400000 1.800000 0
8.600000 1.800000 0
8.800000 1.800000 0
9.000000 1.800000 0
9.200000 1.800000 0
9.400000 1.800000 0
9.600000 1.800000 0
0.000000 2.000000 0
0.200000 2.000000 0
0.400000 2.000000 0
0.600000 2.000000 0
0.800000 2.000000 0
1.000000 2.000000 0
1.200000 2.000000 0
1.400000 2.000000 0
1.600000 2.000000 0
1.800000 2.000000 0
2.000000 2.000000 0
2.200000 2.000000 0
2.400000 2.000000 0
2.600000 2.000000 0
2.800000 2.000000 0
3.000000 2.000000 0
3.200000 2.000000 0
3.400000 2.000000 0
3.600000 2.000000 0
3.800000 2.000000 0
4.000000 2.000000 0
4.200000 2.000000 0
4.400000 2.000000 0
4.600000 2.000000 0
4.800000 2.000000 0
5.000000 2.000000 0
5.200000 2.000000 0
5.400000 2.000000 0
5.600000 2.000000 0
5.800000 2.000000 0
6.000000 2.000000 0
6.200000 2.000000 0
6.400000 2.000000 0
6.600000 2.000000 0
6.800000 2.000000 0
7.000000 2.000000 0
7.200000 2.000000 0
7.400000 2.000000 0
7.600000 2.000000 0
7.800000 2.000000 0
8.000000 2.000000 0
8.200000 2.000000 0
8.400000 2.000000 0
8.600000 2.000000 0
8.800000 2.000000 0
9.000000 2.000000 0
9.200000 2.000000 0
9.400000 2.000000 0
9.600000 2.000000 0
0.000000 2.200000 0
0.200000 2.200000 0
0.400000 2.200000 0
0.600000 2.200000 0
0.800000 2.200000 0
1.000000 2.200000 0
1.200000 2.200000 0
1.400000 2.200000 0
1.600000 2.200000 0
1.800000 2.200000 0
2.000000 2.200000 0
2.200000 2.200000 0
2.400000 2.200000 0
2.600000 2.200000 0
2.800000 2.200000 0
3.000000 2.200000 0
3.200000 2.200000 0
3.400000 2.200000 0
3.600000 2.200000 0
3.800000 2.200000 0
4.000000 2.200000 0
4.200000 2.200000 0
4.400000 2.200000 0
4.600000 2.200000 0
4.800000 2.200000 0
5.000000 2.200000 0
5.200000 2.200000 0
5.400000 2.200000 0
5.600000 2.200000 0
5.800000 2.200000 0
6.000000 2.200000 0
6.200000 2.200000 0
6.400000 2.200000 0
6.600000 2.200000 0
6.800000 2.200000 0
7.000000 2.200000 0
7.200000 2.200000 0
7.400000 2.200000 0
7.600000 2.200000 0
7.800000 2.200000 0
8.000000 2.200000 0
8.200000 2.200000 0
8.400000 2.200000 0
8.600000 2.200000 0
8.800000 2.200000 0
9.000000 2.200000 0
9.200000 2.200000 0
9.400000 2.200000 0
9.600000 2.200000 0
0.000000 2.400000 0
0.200000 2.400000 0
0.400000 2.400000 0
0.600000 2.400000 0
0.800000 2.400000 0
1.000000 2.400000 0
1.200000 2.400000 0
1.400000 2.400000 0
1.600000 2.400000 0
1.800000 2.400000 0
2.000000 2.400000 0
2.200000 2.400000 0
2.400000 2.400000 0
2.600000 2.400000 0
2.800000 2.400000 0
3.000000 2.400000 0
3.200000 2.400000 0
3.400000 2.400000 0
3.600000 2.400000 0
3.800000 2.400000 0
4.000000 2.400000 0
4.200000 2.400000 0
4.400000 2.400000 0
4.600000 2.400000 0
4.800000 2.400000 0
5.000000 2.400000 0
5.200000 2.400000 0
5.400000 2.400000 0
5.600000 2.400000 0
5.800000 2.400000 0
6.000000 2.400000 0
6.200000 2.400000 0
6.400000 2.400000 0
6.600000 2.400000 0
6.800000 2.400000 0
7.000000 2.400000 0
7.200000 2.400000 0
7.400000 2.400000 0
7.600000 2.400000 0
7.800000 2.400000 0
8.000000 2.400000 0
8.200000 2.400000 0
8.400000 2.400000 0
8.600000 2.400000 0
8.800000 2.400000 0
9.000000 2.400000 0
9.200000 2.400000 0
9.400000 2.400000 0
9.600000 2.400000 0
0.000000 2.600000 0
0.200000 2.600000 0
0.400000 2.600000 0
0.600000 2.600000 0
0.800000 2.600000 0
1.000000 2.600000 0
1.200000 2.600000 0
1.400000 2.600000 0
1.600000 2.600000 0
1.800000 2.600000 0
2.000000 2.600000 0
2.200000 2.600000 0
2.400000 2.600000 0
2.600000 2.600000 0
2.800000 2.600000 0
3.000000 2.600000 0
3.200000 2.600000 0
3.400000 2.600000 0
3.600000 2.600000 0
3.800000 2.600000 0
4.000000 2.600000 0
4.200000 2.600000 0
4.400000 2.600000 0
4.600000 2.600000 0
4.800000 2.600000 0
5.000000 2.600000 0
5.200000 2.600000 0
5.400000 2.600000 0
5.600000 2.600000 0
5.800000 2.600000 0
6.000000 2.600000 0
6.200000 2.600000 0
6.400000 2.600000 0
6.600000 2.600000 0
6.800000 2.600000 0
7.000000 2.600000 0
7.200000 2.600000 0
7.400000 2.600000 0
7.600000 2.600000 0
7.800000 2.600000 0
8.000000 2.600000 0
8.200000 2.600000 0
8.400000 2.600000 0
8.600000 2.600000 0
8.800000 2.600000 0
9.000000 2.600000 0
9.200000 2.600000 0
9.400000 2.600000 0
9.600000 2.600000 0
0.000000 2.800000 0
0.200000 2.800000 0
0.400000 2.800000 0
0.600000 2.800000 0
0.800000 2.800000 0
1.000000 2.800000 0
1.200000 2.800000 0
1.400000 2.800000 0
1.600000 2.800000 0
1.800000 2.800000 0
2.000000 2.800000 0
2.200000 2.800000 0
2.400000 2.800000 0
2.600000 2.800000 0
2.800000 2.800000 0
3.000000 2.800000 0
3.200000 2.800000 0
3.400000 2.800000 0
3.600000 2.800000 0
3.800000 2.800000 0
4.000000 2.800000 0
4.200000 2.800000 0
4.400000 2.800000 0
4.600000 2.800000 0
4.800000 2.800000 0
5.000000 2.800000 0
5.200000 2.800000 0
5.400000 2.800000 0
5.600000 2.800000 0
5.800000 2.800000 0
6.000000 2.800000 0
6.200000 2.800000 0
6.400000 2.800000 0
6.600000 2.800000 0
6.800000 2.800000 0
7.000000 2.800000 0
7.200000 2.800000 0
7.400000 2.800000 0
7.600000 2.800000 0
7.800000 2.800000 0
8.000000 2.800000 0
8.200000 2.800000 0
8.400000 2.800000 0
8.600000 2.800000 0
8.800000 2.800000 0
9.000000 2.800000 0
9.200000 2.800000 0
9.400000 2.800000 0
9.600000 2.800000 0
0.000000 3.000000 0
0.200000 3.000000 0
0.400000 3.000000 0
0.600000 3.000000 0
0.800000 3.000000 0
1.000000 3.000000 0
1.200000 3.000000 0
1.400000 3.000000 0
1.600000 3.000000 0
1.800000 3.000000 0
2.000000 3.000000 0
2.200000 3.000000 0
2.400000 3.000000 0
2.600000 3.000000 0
2.800000 3.000000 0
3.000000 3.000000 0
3.200000 3.000000 0
3.400000 3.000000 0
3.600000 3.000000 0
3.800000 3.000000 0
4.000000 3.000000 0
4.200000 3.000000 0
4.400000 3.000000 0
4.600000 3.000000 0
4.800000 3.000000 0
5.000000 3.000000 0
5.200000 3.000000 0
5.400000 3.000000 0
5.600000 3.000000 0
5.800000 3.000000 0
6.000000 3.000000 0
6.200000 3.000000 0
6.400000 3.000000 0
6.600000 3.000000 0
6.800000 3.000000 0
7.000000 3.000000 0
7.200000 3.000000 0
7.400000 3.000000 0
7.600000 3.000000 0
7.800000 3.000000 0
8.000000 3.000000 0
8.200000 3.000000 0
8.400000 3.000000 0
8.600000 3.000000 0
8.800000 3.000000 0
9.000000 3.000000 0
9.200000 3.000000 0
9.400000 3.000000 0
9.600000 3.000000 0
0.000000 3.200000 0
0.200000 3.200000 0
0.400000 3.200000 0
0.600000 3.200000 0
0.800000 3.200000 0
1.000000 3.200000 0
1.200000 3.200000 0
1.400000 3.200000 0
1.600000 3.200000 0
1.800000 3.200000 0
2.000000 3.200000 0
2.200000 3.200000 0
2.400000 3.200000 0
2.600000 3.200000 0
2.800000 3.200000 0
3.000000 3.200000 0
3.200000 3.200000 0
3.400000 3.200000 0
3.600000 3.200000 0
3.800000 3.200000 0
4.000000 3.200000 0
4.200000 3.200000 0
4.400000 3.200000 0
4.600000 3.200000 0
4.800000 3.200000 0
5.000000 3.200000 0
5.200000 3.200000 0
5.400000 3.200000 0
5.600000 3.200000 0
5.800000 3.200000 0
6.000000 3.200000 0
6.200000 3.200000 0
6.400000 3.200000 0
6.600000 3.200000 0
6.800000 3.200000 0
7.000000 3.200000 0
7.200000 3.200000 0
7.400000 3.200000 0
7.600000 3.200000 0
7.800000 3.200000 0
8.000000 3.200000 0
8.200000 3.200000 0
8.400000 3.200000 0
8.600000 3.200000 0
8.800000 3.200000 0
9.000000 3.200000 0
9.200000 3.200000 0
9.400000 3.200000 0
9.600000 3.200000 0
0.000000 3.400000 0
0.200000 3.400000 0
0.400000 3.400000 0
0.600000 3.400000 0
0.800000 3.400000 0
1.000000 3.400000 0
1.200000 3.400000 0
1.400000 3.400000 0
1.600000 3.400000 0
1.800000 3.400000 0
2.000000 3.400000 0
2.200000 3.400000 0
2.400000 3.400000 0
2.600000 3.400000 0
2.800000 3.400000 0
3.000000 3.400000 0
3.200000 3.400000 0
3.400000 3.400000 0
3.600000 3.400000 0
3.800000 3.400000 0
4.000000 3.400000 0
4.200000 3.400000 0
4.400000 3.400000 0
4.600000 3.400000 0
4.800000 3.400000 0
5.000000 3.400000 0
5.200000 3.400000 0
5.400000 3.400000 0
5.600000 3.400000 0
5.800000 3.400000 0
6.000000 3.400000 0
6.200000 3.400000 0
6.400000 3.400000 0
6.600000 3.400000 0
6.800000 3.400000 0
7.000000 3.400000 0
7.200000 3.400000 0
7.400000 3.400000 0
7.600000 3.400000 0
7.800000 3.400000 0
8.000000 3.400000 0
8.200000 3.400000 0
8.400000 3.400000 0
8.600000 3.400000 0
8.800000 3.400000 0
9.000000 3.400000 0
9.200000 3.400000 0
9.400000 3.400000 0
9.600000 3.400000 0
0.000000 3.600000 0
0.200000 3.600000 0
0.400000 3.600000 0
0.600000 3.600000 0
0.800000 3.600000 0
1.000000 3.600000 0
1.200000 3.600000 0
1.400000 3.600000 0
1.600000 3.600000 0
1.800000 3.600000 0
2.000000 3.600000 0
2.200000 3.600000 0
2.400000 3.600000 0
2.600000 3.600000 0
2.800000 3.600000 0
3.000000 3.600000 0
3.200000 3.600000 0
3.400000 3.600000 0
3.600000 3.600000 0
3.800000 3.600000 0
4.000000 3.600000 0
4.200000 3.600000 0
4.400000 3.600000 0
4.600000 3.600000 0
4.800000 3.600000 0
5.000000 3.600000 0
5.200000 3.600000 0
5.400000 3.600000 0
5.600000 3.600000 0
5.800000 3.600000 0
6.000000 3.600000 0
6.200000 3.600000 0
6.400000 3.600000 0
6.600000 3.600000 0
6.800000 3.600000 0
7.000000 3.600000 0
7.200000 3.600000 0
7.400000 3.600000 0
7.600000 3.600000 0
7.800000 3.600000 0
8.000000 3.600000 0
8.200000 3.600000 0
8.400000 3.600000 0
8.600000 3.600000 0
8.800000 3.600000 0
9.000000 3.600000 0
9.200000 3.600000 0
9.400000 3.600000 0
9.600000 3.600000 0
POINT_DATA 931 

VECTORS velocity float
0.000000 0.000000 0
0.000000 0.000000 0
0.000000 0.000000 0
0.000000 0.000000 0
0.000000 0.000000 0
0.000000 0.000000 0
0.000000 0.000000 0
0.000000 0.000000 0
0.000000 0.000000 0
0.000000 0.000000 0
0.000000 0.000000 0
0.000000 0.000000 0
0.000000 0.000000 0
0.000000 0.000000 0
0.000000 0.000000 0
0.000000 0.000000 0
0.000000 0.000000 0
0.000000 0.000000 0
0.000000 0.000000 0
0.000000 0.000000 0
0.000000 0.000000 0
0.000000 0.000000 0
0.000000 0.000000 0
0.000000 0.000000 0
0.000000 0.000000 0
0.000000 0.000000 0
0.000000 0.000000 0
0.000000 0.000000 0
0.000000 0.000000 0
0.000000 0.000000 0
0.000000 0.000000 0
0.000000 0.000000 0
0.000000 0.000000 0
-0.086777 0.000000 0
0.000000 0.000000 0
0.000000 0.000000 0
0.000000 0.000000 0
0.000000 0.000000 0
0.000000 0.000000 0
0.000000 0.000000 0
0.000000 0.000000 0
0.000000 0.000000 0
0.000000 0.000000 0
0.000000 0.000000 0
0.000000 0.000000 0
0.000000 0.000000 0
0.000000 0.000000 0
0.000000 0.000000 0
0.000000 0.000000 0
0.000000 0.000000 0
0.002337 -0.002186 0
0.014233 -0.009024 0
0.036847 -0.016119 0
0.069174 -0.022240 0
0.109530 -0.027083 0
0.156057 -0.030587 0
0.206868 -0.032742 0
0.260067 -0.033544 0
0.313770 -0.033024 0
0.366175 -0.031254 0
0.415626 -0.028326 0
0.460546 -0.024374 0
0.499513 -0.019671 0
0.531527 -0.014726 0
0.556396 -0.010269 0
0.575111 -0.007013 0
0.589772 -0.005164 0
0.602295 -0.004192 0
0.613354 -0.003263 0
0.622247 -0.002074 0
0.628523 -0.001232 0
0.633513 -0.001583 0
0.639948 -0.003231 0
0.649756 -0.005837 0
0.663791 -0.010135 0
0.684824 -0.017736 0
0.718125 -0.028580 0
0.764972 -0.042400 0
0.826780 -0.059245 0
0.903961 -0.080783 0
0.989047 -0.128610 0
1.107817 -0.213071 0
1.227085 -0.443276 0
0.000000 -0.312181 0
0.000000 0.000000 0
0.000000 0.000000 0
0.000000 0.000000 0
0.000000 0.000000 0
0.000000 0.000000 0
0.000000 0.000000 0
0.000000 0.000000 0
0.000000 0.000000 0
0.000000 0.000000 0
0.000000 0.000000 0
0.000000 0.000000 0
0.000000 0.000000 0
0.000000 0.000000 0
0.000000 0.000000 0
0.000000 0.000000 0
0.007915 -0.013820 0
0.031515 -0.034286 0
0.070517 -0.054735 0
0.123146 -0.072498 0
0.187029 -0.086717 0
0.259641 -0.097190 0
0.338447 -0.103880 0
0.420867 -0.106790 0
0.504315 -0.106012 0
0.586390 -0.101774 0
0.665034 -0.094302 0
0.738145 -0.083829 0
0.803571 -0.070934 0
0.859457 -0.056845 0
0.904814 -0.043554 0
0.940425 -0.033351 0
0.969940 -0.027164 0
0.996857 -0.023566 0
1.022491 -0.019939 0
1.044671 -0.015161 0
1.061293 -0.011259 0
1.073917 -0.011420 0
1.088405 -0.016239 0
1.108585 -0.023840 0
1.134209 -0.035067 0
1.165256 -0.054333 0
1.208762 -0.080148 0
1.264995 -0.108654 0
1.325774 -0.138989 0
1.392366 -0.162267 0
1.427006 -0.203856 0
1.463800 -0.249865 0
1.476125 -0.317819 0
0.000000 -0.186724 0
0.000000 0.000000 0
0.000000 0.000000 0
0.000000 0.000000 0
0.000000 0.000000 0
0.000000 0.000000 0
0.000000 0.000000 0
0.000000 0.000000 0
0.000000 0.000000 0
0.000000 0.000000 0
0.000000 0.000000 0
0.000000 0.000000 0
0.000000 0.000000 0
0.000000 0.000000 0
0.000000 0.000000 0
0.000000 0.000000 0
0.012503 -0.033481 0
0.045101 -0.071571 0
0.095058 -0.107703 0
0.159533 -0.138711 0
0.235767 -0.163543 0
0.321139 -0.181977 0
0.413033 -0.193944 0
0.508659 -0.199393 0
0.605099 -0.198533 0
0.699913 -0.191963 0
0.791544 -0.180073 0
0.878019 -0.162905 0
0.956874 -0.140980 0
1.025404 -0.115968 0
1.081261 -0.091237 0
1.123501 -0.072139 0
1.158982 -0.061596 0
1.194265 -0.056743 0
1.232588 -0.051079 0
1.268087 -0.040877 0
1.294699 -0.030478 0
1.312162 -0.028696 0
1.331424 -0.037900 0
1.359997 -0.051641 0
1.394866 -0.066808 0
1.425674 -0.092290 0
1.462642 -0.128320 0
1.507475 -0.159412 0
1.516549 -0.186616 0
1.540109 -0.182015 0
1.536297 -0.237019 0
1.507104 -0.286840 0
1.531754 -0.262190 0
0.000000 -0.131095 0
0.000000 0.000000 0
0.000000 0.000000 0
0.000000 0.000000 0
0.000000 0.000000 0
0.000000 0.000000 0
0.000000 0.000000 0
0.000000 0.000000 0
0.000000 0.000000 0
0.000000 0.000000 0
0.000000 0.000000 0
0.000000 0.000000 0
0.000000 0.000000 0
0.000000 0.000000 0
0.000000 0.000000 0
0.000000 0.000000 0
0.015626 -0.058723 0
0.054273 -0.116794 0
0.110882 -0.169128 0
0.181570 -0.213174 0
0.263372 -0.248295 0
0.353787 -0.274434 0
0.450204 -0.291383 0
0.549582 -0.298843 0
0.648388 -0.297256 0
0.744370 -0.288213 0
0.837491 -0.272404 0
0.926190 -0.249158 0
1.008227 -0.218320 0
1.080154 -0.181234 0
1.138465 -0.141653 0
1.175084 -0.111076 0
1.204923 -0.097931 0
1.238423 -0.097174 0
1.285500 -0.093764 0
1.332040 -0.077274 0
1.367953 -0.055336 0
1.385331 -0.048147 0
1.405669 -0.064076 0
1.437767 -0.087283 0
1.478007 -0.100744 0
1.517503 -0.122110 0
1.520738 -0.161950 0
1.538883 -0.162563 0
1.523889 -0.113224 0
1.579772 -0.123616 0
1.540840 -0.162549 0
0.741227 -0.081274 0
0.765877 0.000000 0
0.000000 0.000000 0
0.000000 0.000000 0
0.000000 0.000000 0
0.000000 0.000000 0
0.000000 0.000000 0
0.000000 0.000000 0
0.000000 0.000000 0
0.000000 0.000000 0
0.000000 0.000000 0
0.000000 0.000000 0
0.000000 0.000000 0
0.000000 0.000000 0
0.000000 0.000000 0
0.000000 0.000000 0
0.000000 0.000000 0
0.000000 0.000000 0
0.017781 -0.087581 0
0.060222 -0.166790 0
0.120386 -0.234969 0
0.193683 -0.291174 0
0.277160 -0.335739 0
0.368379 -0.368795 0
0.464409 -0.389729 0
0.561865 -0.397570 0
0.655701 -0.393317 0
0.744186 -0.381066 0
0.830668 -0.361894 0
0.913373 -0.333644 0
0.991343 -0.294949 0
1.059371 -0.246211 0
1.118405 -0.186172 0
1.143047 -0.138603 0
1.159804 -0.124939 0
1.182698 -0.137324 0
1.233238 -0.144699 0
1.285182 -0.123333 0
1.330022 -0.083772 0
1.366256 -0.066415 0
1.375749 -0.090338 0
1.411657 -0.123981 0
1.429342 -0.119011 0
1.506937 -0.174834 0
1.473254 -0.154646 0
1.548537 -0.100164 0
1.506937 -0.141763 0
0.809352 -0.070882 0
0.770420 0.000000 0
0.000000 0.000000 0
0.000000 0.000000 0
0.000000 0.000000 0
0.000000 0.000000 0
0.000000 0.000000 0
0.000000 0.000000 0
0.000000 0.000000 0
0.000000 0.000000 0
0.000000 0.000000 0
0.000000 0.000000 0
0.000000 0.000000 0
0.000000 0.000000 0
0.000000 0.000000 0
0.000000 0.000000 0
0.000000 0.000000 0
0.000000 0.000000 0
0.000000 0.000000 0
0.000000 0.000000 0
0.019416 -0.118796 0
0.064065 -0.219371 0
0.125621 -0.302567 0
0.199287 -0.369930 0
0.282285 -0.422979 0
0.371681 -0.461675 0
0.463440 -0.484866 0
0.555051 -0.490135 0
0.637918 -0.479581 0
0.710779 -0.463185 0
0.784766 -0.441596 0
0.856614 -0.409840 0
0.923853 -0.364327 0
0.982023 -0.308305 0
1.047883 -0.225339 0
1.043831 -0.152484 0
1.087276 -0.137588 0
1.087634 -0.170612 0
1.145206 -0.196252 0
1.181318 -0.174062 0
1.205789 -0.136412 0
1.343778 -0.093875 0
1.383476 -0.109478 0
1.377571 -0.140877 0
1.415416 -0.116059 0
1.430004 -0.098940 0
0.719786 -0.049470 0
0.795068 0.000000 0
0.753469 0.000000 0
0.000000 0.000000 0
0.000000 0.000000 0
0.000000 0.000000 0
0.000000 0.000000 0
0.000000 0.000000 0
0.000000 0.000000 0
0.000000 0.000000 0
0.000000 0.000000 0
0.000000 0.000000 0
0.000000 0.000000 0
0.000000 0.000000 0
0.000000 0.000000 0
0.000000 0.000000 0
0.000000 0.000000 0
0.000000 0.000000 0
0.000000 0.000000 0
0.000000 0.000000 0
0.000000 0.000000 0
0.000000 0.000000 0
0.000000 0.000000 0
0.020670 -0.151520 0
0.066217 -0.272975 0
0.127490 -0.370176 0
0.200081 -0.447829 0
0.281327 -0.508130 0
0.366326 -0.549951 0
0.448639 -0.573103 0
0.532668 -0.572055 0
0.600275 -0.549055 0
0.648231 -0.527925 0
0.705292 -0.507739 0
0.764185 -0.472742 0
0.820540 -0.420371 0
0.873104 -0.370255 0
0.940180 -0.247989 0
0.926906 -0.178001 0
1.038452 -0.168745 0
1.050898 -0.191714 0
1.122718 -0.234843 0
1.132574 -0.183917 0
1.122718 -0.155455 0
0.671181 -0.077728 0
0.711586 0.000000 0
0.685834 0.000000 0
0.726631 0.000000 0
0.688786 0.000000 0
0.000000 0.000000 0
0.000000 0.000000 0
0.000000 0.000000 0
0.000000 0.000000 0
0.000000 0.000000 0
0.000000 0.000000 0
0.000000 0.000000 0
0.000000 0.000000 0
0.000000 0.000000 0
0.000000 0.000000 0
0.000000 0.000000 0
0.000000 0.000000 0
0.000000 0.000000 0
0.000000 0.000000 0
0.000000 0.000000 0
0.000000 0.000000 0
0.000000 0.000000 0
0.000000 0.000000 0
0.000000 0.000000 0
0.000000 0.000000 0
0.000000 0.000000 0
0.000000 0.000000 0
0.000000 0.000000 0
0.021349 -0.184911 0
0.066212 -0.326178 0
0.125375 -0.436423 0
0.195527 -0.523765 0
0.273882 -0.589226 0
0.351486 -0.628994 0
0.415734 -0.651220 0
0.493112 -0.641787 0
0.550096 -0.595161 0
0.558105 -0.568218 0
0.595986 -0.557562 0
0.645087 -0.525101 0
0.671426 -0.473257 0
0.882869 -0.427953 0
0.914025 -0.279144 0
0.877674 -0.144632 0
0.943408 -0.200970 0
1.063344 -0.234843 0
1.142429 -0.212380 0
1.142429 -0.212380 0
0.561359 -0.106190 0
0.000000 0.000000 0
0.000000 0.000000 0
0.000000 0.000000 0
0.000000 0.000000 0
0.000000 0.000000 0
0.000000 0.000000 0
0.000000 0.000000 0
0.000000 0.000000 0
0.000000 0.000000 0
0.000000 0.000000 0
0.000000 0.000000 0
0.000000 0.000000 0
0.000000 0.000000 0
0.000000 0.000000 0
0.000000 0.000000 0
0.000000 0.000000 0
0.000000 0.000000 0
0.000000 0.000000 0
0.000000 0.000000 0
0.000000 0.000000 0
0.000000 0.000000 0
0.000000 0.000000 0
0.000000 0.000000 0
0.000000 0.000000 0
0.000000 0.000000 0
0.000000 0.000000 0
0.000000 0.000000 0
0.000000 0.000000 0
0.020904 -0.217652 0
0.062533 -0.376995 0
0.116630 -0.499490 0
0.181791 -0.596341 0
0.255004 -0.664097 0
0.323700 -0.691817 0
0.354148 -0.714748 0
0.422097 -0.706441 0
0.449467 -0.614066 0
0.500991 -0.573825 0
0.515068 -0.594732 0
0.538156 -0.548191 0
0.580573 -0.458961 0
0.950375 -0.413656 0
0.950375 -0.413656 0
0.438837 -0.206828 0
0.431817 0.000000 0
0.531672 0.000000 0
0.571215 0.000000 0
0.571215 0.000000 0
0.000000 0.000000 0
0.000000 0.000000 0
0.000000 0.000000 0
0.000000 0.000000 0
0.000000 0.000000 0
0.000000 0.000000 0
0.000000 0.000000 0
0.000000 0.000000 0
0.000000 0.000000 0
0.000000 0.000000 0
0.000000 0.000000 0
0.000000 0.000000 0
0.000000 0.000000 0
0.000000 0.000000 0
0.000000 0.000000 0
0.000000 0.000000 0
0.000000 0.000000 0
0.000000 0.000000 0
0.000000 0.000000 0
0.000000 0.000000 0
0.000000 0.000000 0
0.000000 0.000000 0
0.000000 0.000000 0
0.000000 0.000000 0
0.000000 0.000000 0
0.000000 0.000000 0
0.000000 0.000000 0
0.000000 0.000000 0
0.000000 0.000000 0
0.018444 -0.247382 0
0.052622 -0.421905 0
0.096354 -0.555686 0
0.150429 -0.662150 0
0.210820 -0.731152 0
0.274282 -0.728159 0
0.255932 -0.749641 0
0.301919 -0.737124 0
0.375746 -0.677829 0
0.495739 -0.629742 0
0.500969 -0.586886 0
0.495739 -0.592116 0
0.424690 -0.745448 0
0.475187 -0.449390 0
0.475187 0.000000 0
0.000000 0.000000 0
0.000000 0.000000 0
0.000000 0.000000 0
0.000000 0.000000 0
0.000000 0.000000 0
0.000000 0.000000 0
0.000000 0.000000 0
0.000000 0.000000 0
0.000000 0.000000 0
0.000000 0.000000 0
0.000000 0.000000 0
0.000000 0.000000 0
0.000000 0.000000 0
0.000000 0.000000 0
0.000000 0.000000 0
0.000000 0.000000 0
0.000000 0.000000 0
0.000000 0.000000 0
0.000000 0.000000 0
0.000000 0.000000 0
0.000000 0.000000 0
0.000000 0.000000 0
0.000000 0.000000 0
0.000000 0.000000 0
0.000000 0.000000 0
0.000000 0.000000 0
0.000000 0.000000 0
0.000000 0.000000 0
0.000000 0.000000 0
0.000000 0.000000 0
0.000000 0.000000 0
0.000000 0.000000 0
0.000000 0.000000 0
0.000000 0.000000 0
0.012955 -0.270230 0
0.033667 -0.454910 0
0.059241 -0.597307 0
0.088497 -0.710824 0
0.115810 -0.787973 0