# vtk DataFile Version 2.0
generated by CFD-lab course output (written by Tobias Neckel) 
ASCII

DATASET STRUCTURED_GRID
DIMENSIONS  49 19 1 
POINTS 931 float

0.000000 0.000000 0
0.200000 0.000000 0
0.400000 0.000000 0
0.600000 0.000000 0
0.800000 0.000000 0
1.000000 0.000000 0
1.200000 0.000000 0
1.400000 0.000000 0
1.600000 0.000000 0
1.800000 0.000000 0
2.000000 0.000000 0
2.200000 0.000000 0
2.400000 0.000000 0
2.600000 0.000000 0
2.800000 0.000000 0
3.000000 0.000000 0
3.200000 0.000000 0
3.400000 0.000000 0
3.600000 0.000000 0
3.800000 0.000000 0
4.000000 0.000000 0
4.200000 0.000000 0
4.400000 0.000000 0
4.600000 0.000000 0
4.800000 0.000000 0
5.000000 0.000000 0
5.200000 0.000000 0
5.400000 0.000000 0
5.600000 0.000000 0
5.800000 0.000000 0
6.000000 0.000000 0
6.200000 0.000000 0
6.400000 0.000000 0
6.600000 0.000000 0
6.800000 0.000000 0
7.000000 0.000000 0
7.200000 0.000000 0
7.400000 0.000000 0
7.600000 0.000000 0
7.800000 0.000000 0
8.000000 0.000000 0
8.200000 0.000000 0
8.400000 0.000000 0
8.600000 0.000000 0
8.800000 0.000000 0
9.000000 0.000000 0
9.200000 0.000000 0
9.400000 0.000000 0
9.600000 0.000000 0
0.000000 0.200000 0
0.200000 0.200000 0
0.400000 0.200000 0
0.600000 0.200000 0
0.800000 0.200000 0
1.000000 0.200000 0
1.200000 0.200000 0
1.400000 0.200000 0
1.600000 0.200000 0
1.800000 0.200000 0
2.000000 0.200000 0
2.200000 0.200000 0
2.400000 0.200000 0
2.600000 0.200000 0
2.800000 0.200000 0
3.000000 0.200000 0
3.200000 0.200000 0
3.400000 0.200000 0
3.600000 0.200000 0
3.800000 0.200000 0
4.000000 0.200000 0
4.200000 0.200000 0
4.400000 0.200000 0
4.600000 0.200000 0
4.800000 0.200000 0
5.000000 0.200000 0
5.200000 0.200000 0
5.400000 0.200000 0
5.600000 0.200000 0
5.800000 0.200000 0
6.000000 0.200000 0
6.200000 0.200000 0
6.400000 0.200000 0
6.600000 0.200000 0
6.800000 0.200000 0
7.000000 0.200000 0
7.200000 0.200000 0
7.400000 0.200000 0
7.600000 0.200000 0
7.800000 0.200000 0
8.000000 0.200000 0
8.200000 0.200000 0
8.400000 0.200000 0
8.600000 0.200000 0
8.800000 0.200000 0
9.000000 0.200000 0
9.200000 0.200000 0
9.400000 0.200000 0
9.600000 0.200000 0
0.000000 0.400000 0
0.200000 0.400000 0
0.400000 0.400000 0
0.600000 0.400000 0
0.800000 0.400000 0
1.000000 0.400000 0
1.200000 0.400000 0
1.400000 0.400000 0
1.600000 0.400000 0
1.800000 0.400000 0
2.000000 0.400000 0
2.200000 0.400000 0
2.400000 0.400000 0
2.600000 0.400000 0
2.800000 0.400000 0
3.000000 0.400000 0
3.200000 0.400000 0
3.400000 0.400000 0
3.600000 0.400000 0
3.800000 0.400000 0
4.000000 0.400000 0
4.200000 0.400000 0
4.400000 0.400000 0
4.600000 0.400000 0
4.800000 0.400000 0
5.000000 0.400000 0
5.200000 0.400000 0
5.400000 0.400000 0
5.600000 0.400000 0
5.800000 0.400000 0
6.000000 0.400000 0
6.200000 0.400000 0
6.400000 0.400000 0
6.600000 0.400000 0
6.800000 0.400000 0
7.000000 0.400000 0
7.200000 0.400000 0
7.400000 0.400000 0
7.600000 0.400000 0
7.800000 0.400000 0
8.000000 0.400000 0
8.200000 0.400000 0
8.400000 0.400000 0
8.600000 0.400000 0
8.800000 0.400000 0
9.000000 0.400000 0
9.200000 0.400000 0
9.400000 0.400000 0
9.600000 0.400000 0
0.000000 0.600000 0
0.200000 0.600000 0
0.400000 0.600000 0
0.600000 0.600000 0
0.800000 0.600000 0
1.000000 0.600000 0
1.200000 0.600000 0
1.400000 0.600000 0
1.600000 0.600000 0
1.800000 0.600000 0
2.000000 0.600000 0
2.200000 0.600000 0
2.400000 0.600000 0
2.600000 0.600000 0
2.800000 0.600000 0
3.000000 0.600000 0
3.200000 0.600000 0
3.400000 0.600000 0
3.600000 0.600000 0
3.800000 0.600000 0
4.000000 0.600000 0
4.200000 0.600000 0
4.400000 0.600000 0
4.600000 0.600000 0
4.800000 0.600000 0
5.000000 0.600000 0
5.200000 0.600000 0
5.400000 0.600000 0
5.600000 0.600000 0
5.800000 0.600000 0
6.000000 0.600000 0
6.200000 0.600000 0
6.400000 0.600000 0
6.600000 0.600000 0
6.800000 0.600000 0
7.000000 0.600000 0
7.200000 0.600000 0
7.400000 0.600000 0
7.600000 0.600000 0
7.800000 0.600000 0
8.000000 0.600000 0
8.200000 0.600000 0
8.400000 0.600000 0
8.600000 0.600000 0
8.800000 0.600000 0
9.000000 0.600000 0
9.200000 0.600000 0
9.400000 0.600000 0
9.600000 0.600000 0
0.000000 0.800000 0
0.200000 0.800000 0
0.400000 0.800000 0
0.600000 0.800000 0
0.800000 0.800000 0
1.000000 0.800000 0
1.200000 0.800000 0
1.400000 0.800000 0
1.600000 0.800000 0
1.800000 0.800000 0
2.000000 0.800000 0
2.200000 0.800000 0
2.400000 0.800000 0
2.600000 0.800000 0
2.800000 0.800000 0
3.000000 0.800000 0
3.200000 0.800000 0
3.400000 0.800000 0
3.600000 0.800000 0
3.800000 0.800000 0
4.000000 0.800000 0
4.200000 0.800000 0
4.400000 0.800000 0
4.600000 0.800000 0
4.800000 0.800000 0
5.000000 0.800000 0
5.200000 0.800000 0
5.400000 0.800000 0
5.600000 0.800000 0
5.800000 0.800000 0
6.000000 0.800000 0
6.200000 0.800000 0
6.400000 0.800000 0
6.600000 0.800000 0
6.800000 0.800000 0
7.000000 0.800000 0
7.200000 0.800000 0
7.400000 0.800000 0
7.600000 0.800000 0
7.800000 0.800000 0
8.000000 0.800000 0
8.200000 0.800000 0
8.400000 0.800000 0
8.600000 0.800000 0
8.800000 0.800000 0
9.000000 0.800000 0
9.200000 0.800000 0
9.400000 0.800000 0
9.600000 0.800000 0
0.000000 1.000000 0
0.200000 1.000000 0
0.400000 1.000000 0
0.600000 1.000000 0
0.800000 1.000000 0
1.000000 1.000000 0
1.200000 1.000000 0
1.400000 1.000000 0
1.600000 1.000000 0
1.800000 1.000000 0
2.000000 1.000000 0
2.200000 1.000000 0
2.400000 1.000000 0
2.600000 1.000000 0
2.800000 1.000000 0
3.000000 1.000000 0
3.200000 1.000000 0
3.400000 1.000000 0
3.600000 1.000000 0
3.800000 1.000000 0
4.000000 1.000000 0
4.200000 1.000000 0
4.400000 1.000000 0
4.600000 1.000000 0
4.800000 1.000000 0
5.000000 1.000000 0
5.200000 1.000000 0
5.400000 1.000000 0
5.600000 1.000000 0
5.800000 1.000000 0
6.000000 1.000000 0
6.200000 1.000000 0
6.400000 1.000000 0
6.600000 1.000000 0
6.800000 1.000000 0
7.000000 1.000000 0
7.200000 1.000000 0
7.400000 1.000000 0
7.600000 1.000000 0
7.800000 1.000000 0
8.000000 1.000000 0
8.200000 1.000000 0
8.400000 1.000000 0
8.600000 1.000000 0
8.800000 1.000000 0
9.000000 1.000000 0
9.200000 1.000000 0
9.400000 1.000000 0
9.600000 1.000000 0
0.000000 1.200000 0
0.200000 1.200000 0
0.400000 1.200000 0
0.600000 1.200000 0
0.800000 1.200000 0
1.000000 1.200000 0
1.200000 1.200000 0
1.400000 1.200000 0
1.600000 1.200000 0
1.800000 1.200000 0
2.000000 1.200000 0
2.200000 1.200000 0
2.400000 1.200000 0
2.600000 1.200000 0
2.800000 1.200000 0
3.000000 1.200000 0
3.200000 1.200000 0
3.400000 1.200000 0
3.600000 1.200000 0
3.800000 1.200000 0
4.000000 1.200000 0
4.200000 1.200000 0
4.400000 1.200000 0
4.600000 1.200000 0
4.800000 1.200000 0
5.000000 1.200000 0
5.200000 1.200000 0
5.400000 1.200000 0
5.600000 1.200000 0
5.800000 1.200000 0
6.000000 1.200000 0
6.200000 1.200000 0
6.400000 1.200000 0
6.600000 1.200000 0
6.800000 1.200000 0
7.000000 1.200000 0
7.200000 1.200000 0
7.400000 1.200000 0
7.600000 1.200000 0
7.800000 1.200000 0
8.000000 1.200000 0
8.200000 1.200000 0
8.400000 1.200000 0
8.600000 1.200000 0
8.800000 1.200000 0
9.000000 1.200000 0
9.200000 1.200000 0
9.400000 1.200000 0
9.600000 1.200000 0
0.000000 1.400000 0
0.200000 1.400000 0
0.400000 1.400000 0
0.600000 1.400000 0
0.800000 1.400000 0
1.000000 1.400000 0
1.200000 1.400000 0
1.400000 1.400000 0
1.600000 1.400000 0
1.800000 1.400000 0
2.000000 1.400000 0
2.200000 1.400000 0
2.400000 1.400000 0
2.600000 1.400000 0
2.800000 1.400000 0
3.000000 1.400000 0
3.200000 1.400000 0
3.400000 1.400000 0
3.600000 1.400000 0
3.800000 1.400000 0
4.000000 1.400000 0
4.200000 1.400000 0
4.400000 1.400000 0
4.600000 1.400000 0
4.800000 1.400000 0
5.000000 1.400000 0
5.200000 1.400000 0
5.400000 1.400000 0
5.600000 1.400000 0
5.800000 1.400000 0
6.000000 1.400000 0
6.200000 1.400000 0
6.400000 1.400000 0
6.600000 1.400000 0
6.800000 1.400000 0
7.000000 1.400000 0
7.200000 1.400000 0
7.400000 1.400000 0
7.600000 1.400000 0
7.800000 1.400000 0
8.000000 1.400000 0
8.200000 1.400000 0
8.400000 1.400000 0
8.600000 1.400000 0
8.800000 1.400000 0
9.000000 1.400000 0
9.200000 1.400000 0
9.400000 1.400000 0
9.600000 1.400000 0
0.000000 1.600000 0
0.200000 1.600000 0
0.400000 1.600000 0
0.600000 1.600000 0
0.800000 1.600000 0
1.000000 1.600000 0
1.200000 1.600000 0
1.400000 1.600000 0
1.600000 1.600000 0
1.800000 1.600000 0
2.000000 1.600000 0
2.200000 1.600000 0
2.400000 1.600000 0
2.600000 1.600000 0
2.800000 1.600000 0
3.000000 1.600000 0
3.200000 1.600000 0
3.400000 1.600000 0
3.600000 1.600000 0
3.800000 1.600000 0
4.000000 1.600000 0
4.200000 1.600000 0
4.400000 1.600000 0
4.600000 1.600000 0
4.800000 1.600000 0
5.000000 1.600000 0
5.200000 1.600000 0
5.400000 1.600000 0
5.600000 1.600000 0
5.800000 1.600000 0
6.000000 1.600000 0
6.200000 1.600000 0
6.400000 1.600000 0
6.600000 1.600000 0
6.800000 1.600000 0
7.000000 1.600000 0
7.200000 1.600000 0
7.400000 1.600000 0
7.600000 1.600000 0
7.800000 1.600000 0
8.000000 1.600000 0
8.200000 1.600000 0
8.400000 1.600000 0
8.600000 1.600000 0
8.800000 1.600000 0
9.000000 1.600000 0
9.200000 1.600000 0
9.400000 1.600000 0
9.600000 1.600000 0
0.000000 1.800000 0
0.200000 1.800000 0
0.400000 1.800000 0
0.600000 1.800000 0
0.800000 1.800000 0
1.000000 1.800000 0
1.200000 1.800000 0
1.400000 1.800000 0
1.600000 1.800000 0
1.800000 1.800000 0
2.000000 1.800000 0
2.200000 1.800000 0
2.400000 1.800000 0
2.600000 1.800000 0
2.800000 1.800000 0
3.000000 1.800000 0
3.200000 1.800000 0
3.400000 1.800000 0
3.600000 1.800000 0
3.800000 1.800000 0
4.000000 1.800000 0
4.200000 1.800000 0
4.400000 1.800000 0
4.600000 1.800000 0
4.800000 1.800000 0
5.000000 1.800000 0
5.200000 1.800000 0
5.400000 1.800000 0
5.600000 1.800000 0
5.800000 1.800000 0
6.000000 1.800000 0
6.200000 1.800000 0
6.400000 1.800000 0
6.600000 1.800000 0
6.800000 1.800000 0
7.000000 1.800000 0
7.200000 1.800000 0
7.400000 1.800000 0
7.600000 1.800000 0
7.800000 1.800000 0
8.000000 1.800000 0
8.200000 1.800000 0
8.400000 1.800000 0
8.600000 1.800000 0
8.800000 1.800000 0
9.000000 1.800000 0
9.200000 1.800000 0
9.400000 1.800000 0
9.600000 1.800000 0
0.000000 2.000000 0
0.200000 2.000000 0
0.400000 2.000000 0
0.600000 2.000000 0
0.800000 2.000000 0
1.000000 2.000000 0
1.200000 2.000000 0
1.400000 2.000000 0
1.600000 2.000000 0
1.800000 2.000000 0
2.000000 2.000000 0
2.200000 2.000000 0
2.400000 2.000000 0
2.600000 2.000000 0
2.800000 2.000000 0
3.000000 2.000000 0
3.200000 2.000000 0
3.400000 2.000000 0
3.600000 2.000000 0
3.800000 2.000000 0
4.000000 2.000000 0
4.200000 2.000000 0
4.400000 2.000000 0
4.600000 2.000000 0
4.800000 2.000000 0
5.000000 2.000000 0
5.200000 2.000000 0
5.400000 2.000000 0
5.600000 2.000000 0
5.800000 2.000000 0
6.000000 2.000000 0
6.200000 2.000000 0
6.400000 2.000000 0
6.600000 2.000000 0
6.800000 2.000000 0
7.000000 2.000000 0
7.200000 2.000000 0
7.400000 2.000000 0
7.600000 2.000000 0
7.800000 2.000000 0
8.000000 2.000000 0
8.200000 2.000000 0
8.400000 2.000000 0
8.600000 2.000000 0
8.800000 2.000000 0
9.000000 2.000000 0
9.200000 2.000000 0
9.400000 2.000000 0
9.600000 2.000000 0
0.000000 2.200000 0
0.200000 2.200000 0
0.400000 2.200000 0
0.600000 2.200000 0
0.800000 2.200000 0
1.000000 2.200000 0
1.200000 2.200000 0
1.400000 2.200000 0
1.600000 2.200000 0
1.800000 2.200000 0
2.000000 2.200000 0
2.200000 2.200000 0
2.400000 2.200000 0
2.600000 2.200000 0
2.800000 2.200000 0
3.000000 2.200000 0
3.200000 2.200000 0
3.400000 2.200000 0
3.600000 2.200000 0
3.800000 2.200000 0
4.000000 2.200000 0
4.200000 2.200000 0
4.400000 2.200000 0
4.600000 2.200000 0
4.800000 2.200000 0
5.000000 2.200000 0
5.200000 2.200000 0
5.400000 2.200000 0
5.600000 2.200000 0
5.800000 2.200000 0
6.000000 2.200000 0
6.200000 2.200000 0
6.400000 2.200000 0
6.600000 2.200000 0
6.800000 2.200000 0
7.000000 2.200000 0
7.200000 2.200000 0
7.400000 2.200000 0
7.600000 2.200000 0
7.800000 2.200000 0
8.000000 2.200000 0
8.200000 2.200000 0
8.400000 2.200000 0
8.600000 2.200000 0
8.800000 2.200000 0
9.000000 2.200000 0
9.200000 2.200000 0
9.400000 2.200000 0
9.600000 2.200000 0
0.000000 2.400000 0
0.200000 2.400000 0
0.400000 2.400000 0
0.600000 2.400000 0
0.800000 2.400000 0
1.000000 2.400000 0
1.200000 2.400000 0
1.400000 2.400000 0
1.600000 2.400000 0
1.800000 2.400000 0
2.000000 2.400000 0
2.200000 2.400000 0
2.400000 2.400000 0
2.600000 2.400000 0
2.800000 2.400000 0
3.000000 2.400000 0
3.200000 2.400000 0
3.400000 2.400000 0
3.600000 2.400000 0
3.800000 2.400000 0
4.000000 2.400000 0
4.200000 2.400000 0
4.400000 2.400000 0
4.600000 2.400000 0
4.800000 2.400000 0
5.000000 2.400000 0
5.200000 2.400000 0
5.400000 2.400000 0
5.600000 2.400000 0
5.800000 2.400000 0
6.000000 2.400000 0
6.200000 2.400000 0
6.400000 2.400000 0
6.600000 2.400000 0
6.800000 2.400000 0
7.000000 2.400000 0
7.200000 2.400000 0
7.400000 2.400000 0
7.600000 2.400000 0
7.800000 2.400000 0
8.000000 2.400000 0
8.200000 2.400000 0
8.400000 2.400000 0
8.600000 2.400000 0
8.800000 2.400000 0
9.000000 2.400000 0
9.200000 2.400000 0
9.400000 2.400000 0
9.600000 2.400000 0
0.000000 2.600000 0
0.200000 2.600000 0
0.400000 2.600000 0
0.600000 2.600000 0
0.800000 2.600000 0
1.000000 2.600000 0
1.200000 2.600000 0
1.400000 2.600000 0
1.600000 2.600000 0
1.800000 2.600000 0
2.000000 2.600000 0
2.200000 2.600000 0
2.400000 2.600000 0
2.600000 2.600000 0
2.800000 2.600000 0
3.000000 2.600000 0
3.200000 2.600000 0
3.400000 2.600000 0
3.600000 2.600000 0
3.800000 2.600000 0
4.000000 2.600000 0
4.200000 2.600000 0
4.400000 2.600000 0
4.600000 2.600000 0
4.800000 2.600000 0
5.000000 2.600000 0
5.200000 2.600000 0
5.400000 2.600000 0
5.600000 2.600000 0
5.800000 2.600000 0
6.000000 2.600000 0
6.200000 2.600000 0
6.400000 2.600000 0
6.600000 2.600000 0
6.800000 2.600000 0
7.000000 2.600000 0
7.200000 2.600000 0
7.400000 2.600000 0
7.600000 2.600000 0
7.800000 2.600000 0
8.000000 2.600000 0
8.200000 2.600000 0
8.400000 2.600000 0
8.600000 2.600000 0
8.800000 2.600000 0
9.000000 2.600000 0
9.200000 2.600000 0
9.400000 2.600000 0
9.600000 2.600000 0
0.000000 2.800000 0
0.200000 2.800000 0
0.400000 2.800000 0
0.600000 2.800000 0
0.800000 2.800000 0
1.000000 2.800000 0
1.200000 2.800000 0
1.400000 2.800000 0
1.600000 2.800000 0
1.800000 2.800000 0
2.000000 2.800000 0
2.200000 2.800000 0
2.400000 2.800000 0
2.600000 2.800000 0
2.800000 2.800000 0
3.000000 2.800000 0
3.200000 2.800000 0
3.400000 2.800000 0
3.600000 2.800000 0
3.800000 2.800000 0
4.000000 2.800000 0
4.200000 2.800000 0
4.400000 2.800000 0
4.600000 2.800000 0
4.800000 2.800000 0
5.000000 2.800000 0
5.200000 2.800000 0
5.400000 2.800000 0
5.600000 2.800000 0
5.800000 2.800000 0
6.000000 2.800000 0
6.200000 2.800000 0
6.400000 2.800000 0
6.600000 2.800000 0
6.800000 2.800000 0
7.000000 2.800000 0
7.200000 2.800000 0
7.400000 2.800000 0
7.600000 2.800000 0
7.800000 2.800000 0
8.000000 2.800000 0
8.200000 2.800000 0
8.400000 2.800000 0
8.600000 2.800000 0
8.800000 2.800000 0
9.000000 2.800000 0
9.200000 2.800000 0
9.400000 2.800000 0
9.600000 2.800000 0
0.000000 3.000000 0
0.200000 3.000000 0
0.400000 3.000000 0
0.600000 3.000000 0
0.800000 3.000000 0
1.000000 3.000000 0
1.200000 3.000000 0
1.400000 3.000000 0
1.600000 3.000000 0
1.800000 3.000000 0
2.000000 3.000000 0
2.200000 3.000000 0
2.400000 3.000000 0
2.600000 3.000000 0
2.800000 3.000000 0
3.000000 3.000000 0
3.200000 3.000000 0
3.400000 3.000000 0
3.600000 3.000000 0
3.800000 3.000000 0
4.000000 3.000000 0
4.200000 3.000000 0
4.400000 3.000000 0
4.600000 3.000000 0
4.800000 3.000000 0
5.000000 3.000000 0
5.200000 3.000000 0
5.400000 3.000000 0
5.600000 3.000000 0
5.800000 3.000000 0
6.000000 3.000000 0
6.200000 3.000000 0
6.400000 3.000000 0
6.600000 3.000000 0
6.800000 3.000000 0
7.000000 3.000000 0
7.200000 3.000000 0
7.400000 3.000000 0
7.600000 3.000000 0
7.800000 3.000000 0
8.000000 3.000000 0
8.200000 3.000000 0
8.400000 3.000000 0
8.600000 3.000000 0
8.800000 3.000000 0
9.000000 3.000000 0
9.200000 3.000000 0
9.400000 3.000000 0
9.600000 3.000000 0
0.000000 3.200000 0
0.200000 3.200000 0
0.400000 3.200000 0
0.600000 3.200000 0
0.800000 3.200000 0
1.000000 3.200000 0
1.200000 3.200000 0
1.400000 3.200000 0
1.600000 3.200000 0
1.800000 3.200000 0
2.000000 3.200000 0
2.200000 3.200000 0
2.400000 3.200000 0
2.600000 3.200000 0
2.800000 3.200000 0
3.000000 3.200000 0
3.200000 3.200000 0
3.400000 3.200000 0
3.600000 3.200000 0
3.800000 3.200000 0
4.000000 3.200000 0
4.200000 3.200000 0
4.400000 3.200000 0
4.600000 3.200000 0
4.800000 3.200000 0
5.000000 3.200000 0
5.200000 3.200000 0
5.400000 3.200000 0
5.600000 3.200000 0
5.800000 3.200000 0
6.000000 3.200000 0
6.200000 3.200000 0
6.400000 3.200000 0
6.600000 3.200000 0
6.800000 3.200000 0
7.000000 3.200000 0
7.200000 3.200000 0
7.400000 3.200000 0
7.600000 3.200000 0
7.800000 3.200000 0
8.000000 3.200000 0
8.200000 3.200000 0
8.400000 3.200000 0
8.600000 3.200000 0
8.800000 3.200000 0
9.000000 3.200000 0
9.200000 3.200000 0
9.400000 3.200000 0
9.600000 3.200000 0
0.000000 3.400000 0
0.200000 3.400000 0
0.400000 3.400000 0
0.600000 3.400000 0
0.800000 3.400000 0
1.000000 3.400000 0
1.200000 3.400000 0
1.400000 3.400000 0
1.600000 3.400000 0
1.800000 3.400000 0
2.000000 3.400000 0
2.200000 3.400000 0
2.400000 3.400000 0
2.600000 3.400000 0
2.800000 3.400000 0
3.000000 3.400000 0
3.200000 3.400000 0
3.400000 3.400000 0
3.600000 3.400000 0
3.800000 3.400000 0
4.000000 3.400000 0
4.200000 3.400000 0
4.400000 3.400000 0
4.600000 3.400000 0
4.800000 3.400000 0
5.000000 3.400000 0
5.200000 3.400000 0
5.400000 3.400000 0
5.600000 3.400000 0
5.800000 3.400000 0
6.000000 3.400000 0
6.200000 3.400000 0
6.400000 3.400000 0
6.600000 3.400000 0
6.800000 3.400000 0
7.000000 3.400000 0
7.200000 3.400000 0
7.400000 3.400000 0
7.600000 3.400000 0
7.800000 3.400000 0
8.000000 3.400000 0
8.200000 3.400000 0
8.400000 3.400000 0
8.600000 3.400000 0
8.800000 3.400000 0
9.000000 3.400000 0
9.200000 3.400000 0
9.400000 3.400000 0
9.600000 3.400000 0
0.000000 3.600000 0
0.200000 3.600000 0
0.400000 3.600000 0
0.600000 3.600000 0
0.800000 3.600000 0
1.000000 3.600000 0
1.200000 3.600000 0
1.400000 3.600000 0
1.600000 3.600000 0
1.800000 3.600000 0
2.000000 3.600000 0
2.200000 3.600000 0
2.400000 3.600000 0
2.600000 3.600000 0
2.800000 3.600000 0
3.000000 3.600000 0
3.200000 3.600000 0
3.400000 3.600000 0
3.600000 3.600000 0
3.800000 3.600000 0
4.000000 3.600000 0
4.200000 3.600000 0
4.400000 3.600000 0
4.600000 3.600000 0
4.800000 3.600000 0
5.000000 3.600000 0
5.200000 3.600000 0
5.400000 3.600000 0
5.600000 3.600000 0
5.800000 3.600000 0
6.000000 3.600000 0
6.200000 3.600000 0
6.400000 3.600000 0
6.600000 3.600000 0
6.800000 3.600000 0
7.000000 3.600000 0
7.200000 3.600000 0
7.400000 3.600000 0
7.600000 3.600000 0
7.800000 3.600000 0
8.000000 3.600000 0
8.200000 3.600000 0
8.400000 3.600000 0
8.600000 3.600000 0
8.800000 3.600000 0
9.000000 3.600000 0
9.200000 3.600000 0
9.400000 3.600000 0
9.600000 3.600000 0
POINT_DATA 931 

VECTORS velocity float
0.000000 0.000000 0
0.000000 0.000000 0
0.000000 0.000000 0
0.000000 0.000000 0
0.000000 0.000000 0
0.000000 0.000000 0
0.000000 0.000000 0
0.000000 0.000000 0
0.000000 0.000000 0
0.000000 0.000000 0
0.000000 0.000000 0
0.000000 0.000000 0
0.000000 0.000000 0
0.000000 0.000000 0
0.000000 0.000000 0
0.000000 0.000000 0
0.000000 0.000000 0
0.000000 0.000000 0
0.228623 0.000000 0
0.618969 0.000000 0
0.000000 0.000000 0
0.000000 0.000000 0
0.000000 0.000000 0
0.000000 0.000000 0
0.000000 0.000000 0
0.000000 0.000000 0
0.000000 0.000000 0
0.000000 0.000000 0
0.000000 0.000000 0
0.000000 0.000000 0
0.000000 0.000000 0
0.000000 0.000000 0
0.000000 0.000000 0
0.000000 0.000000 0
0.000000 0.000000 0
0.000000 0.000000 0
0.000000 0.000000 0
0.000000 0.000000 0
0.000000 0.000000 0
0.000000 0.000000 0
0.000000 0.000000 0
0.000000 0.000000 0
0.000000 0.000000 0
0.000000 0.000000 0
0.000000 0.000000 0
0.000000 0.000000 0
0.000000 0.000000 0
0.000000 0.000000 0
0.000000 0.000000 0
0.000000 0.000000 0
0.004763 -0.005298 0
0.021860 -0.013298 0
0.049112 -0.019656 0
0.083996 -0.024410 0
0.125030 -0.028455 0
0.171931 -0.032598 0
0.225218 -0.037343 0
0.285854 -0.042919 0
0.354907 -0.049319 0
0.433205 -0.056282 0
0.521031 -0.063323 0
0.617812 -0.069840 0
0.721926 -0.075524 0
0.830802 -0.081525 0
0.941540 -0.094203 0
1.051978 -0.138720 0
1.179950 -0.280615 0
1.497583 -0.331179 0
1.245833 -0.500193 0
0.000000 -0.362664 0
0.000000 0.000000 0
0.000000 0.000000 0
0.000000 0.000000 0
0.000000 0.000000 0
0.000000 0.000000 0
0.000000 0.000000 0
0.000000 0.000000 0
0.000000 0.000000 0
0.000000 0.000000 0
0.000000 0.000000 0
0.000000 0.000000 0
0.000000 0.000000 0
0.000000 0.000000 0
0.000000 0.000000 0
0.000000 0.000000 0
0.000000 0.000000 0
0.000000 0.000000 0
0.000000 0.000000 0
0.000000 0.000000 0
0.000000 0.000000 0
0.000000 0.000000 0
0.000000 0.000000 0
0.000000 0.000000 0
0.000000 0.000000 0
0.000000 0.000000 0
0.000000 0.000000 0
0.000000 0.000000 0
0.000000 0.000000 0
0.000000 0.000000 0
0.011163 -0.021973 0
0.040204 -0.044422 0
0.082889 -0.062193 0
0.135979 -0.075972 0
0.197693 -0.087988 0
0.267682 -0.100226 0
0.346593 -0.113962 0
0.435511 -0.129723 0
0.535553 -0.147377 0
0.647420 -0.166147 0
0.770966 -0.184624 0
0.904784 -0.200908 0
1.045685 -0.212999 0
1.188140 -0.219619 0
1.323657 -0.221179 0
1.449493 -0.238411 0
1.592715 -0.445605 0
2.111420 -0.455160 0
1.894179 -0.915508 0
0.000000 -0.777980 0
0.000000 0.000000 0
0.000000 0.000000 0
0.000000 0.000000 0
0.000000 0.000000 0
0.000000 0.000000 0
0.000000 0.000000 0
0.000000 0.000000 0
0.000000 0.000000 0
0.000000 0.000000 0
0.000000 0.000000 0
0.000000 0.000000 0
0.000000 0.000000 0
0.000000 0.000000 0
0.000000 0.000000 0
0.000000 0.000000 0
0.000000 0.000000 0
0.000000 0.000000 0
0.000000 0.000000 0
0.000000 0.000000 0
0.000000 0.000000 0
0.000000 0.000000 0
0.000000 0.000000 0
0.000000 0.000000 0
0.000000 0.000000 0
0.000000 0.000000 0
0.000000 0.000000 0
0.000000 0.000000 0
0.000000 0.000000 0
0.000000 0.000000 0
0.014648 -0.045557 0
0.049600 -0.085045 0
0.098811 -0.115462 0
0.158597 -0.139222 0
0.227286 -0.160178 0
0.304615 -0.181511 0
0.391252 -0.205176 0
0.488179 -0.231891 0
0.596211 -0.261234 0
0.715553 -0.291697 0
0.845345 -0.320690 0
0.983185 -0.344559 0
1.124383 -0.358878 0
1.261153 -0.359495 0
1.381864 -0.355554 0
1.483327 -0.407776 0
1.614694 0.066768 0
2.969113 0.159425 0
2.534631 -0.275057 0
0.000000 -0.137528 0
0.000000 0.000000 0
0.000000 0.000000 0
0.000000 0.000000 0
0.000000 0.000000 0
0.000000 0.000000 0
0.000000 0.000000 0
0.000000 0.000000 0
0.000000 0.000000 0
0.000000 0.000000 0
0.000000 0.000000 0
0.000000 0.000000 0
0.000000 0.000000 0
0.000000 0.000000 0
0.000000 0.000000 0
0.000000 0.000000 0
0.000000 0.000000 0
0.000000 0.000000 0
0.000000 0.000000 0
0.000000 0.000000 0
0.000000 0.000000 0
0.000000 0.000000 0
0.000000 0.000000 0
0.000000 0.000000 0
0.000000 0.000000 0
0.000000 0.000000 0
0.000000 0.000000 0
0.000000 0.000000 0
0.000000 0.000000 0
0.000000 0.000000 0
0.015591 -0.071636 0
0.051629 -0.128590 0
0.101181 -0.171216 0
0.160433 -0.204462 0
0.227950 -0.234014 0
0.303717 -0.264212 0
0.388461 -0.297532 0
0.483065 -0.334687 0
0.587994 -0.374758 0
0.702838 -0.415282 0
0.825895 -0.452256 0
0.953723 -0.479946 0
1.080616 -0.490965 0
1.198132 -0.477097 0
1.288081 -0.443349 0
1.322390 -0.471237 0
1.581603 -0.455692 0
2.443898 -0.392707 0
1.267315 -0.196354 0
0.000000 0.000000 0
0.000000 0.000000 0
0.000000 0.000000 0
0.000000 0.000000 0
0.000000 0.000000 0
0.000000 0.000000 0
0.000000 0.000000 0
0.000000 0.000000 0
0.000000 0.000000 0
0.000000 0.000000 0
0.000000 0.000000 0
0.000000 0.000000 0
0.000000 0.000000 0
0.000000 0.000000 0
0.000000 0.000000 0
0.000000 0.000000 0
0.000000 0.000000 0
0.000000 0.000000 0
0.000000 0.000000 0
0.000000 0.000000 0
0.000000 0.000000 0
0.000000 0.000000 0
0.000000 0.000000 0
0.000000 0.000000 0
0.000000 0.000000 0
0.000000 0.000000 0
0.000000 0.000000 0
0.000000 0.000000 0
0.000000 0.000000 0
0.000000 0.000000 0
0.015004 -0.097260 0
0.048907 -0.170648 0
0.094742 -0.224275 0
0.149022 -0.266014 0
0.210690 -0.303467 0
0.280085 -0.342034 0
0.358066 -0.384536 0
0.445404 -0.431427 0
0.542161 -0.481011 0
0.647173 -0.529600 0
0.757682 -0.571573 0
0.869070 -0.599278 0
0.974857 -0.603284 0
1.070894 -0.566956 0
1.182801 -0.479809 0
1.218885 -0.423798 0
0.839502 -0.211899 0
0.742101 0.000000 0
0.000000 0.000000 0
0.000000 0.000000 0
0.000000 0.000000 0
0.000000 0.000000 0
0.000000 0.000000 0
0.000000 0.000000 0
0.000000 0.000000 0
0.000000 0.000000 0
0.000000 0.000000 0
0.000000 0.000000 0
0.000000 0.000000 0
0.000000 0.000000 0
0.000000 0.000000 0
0.000000 0.000000 0
0.000000 0.000000 0
0.000000 0.000000 0
0.000000 0.000000 0
0.000000 0.000000 0
0.000000 0.000000 0
0.000000 0.000000 0
0.000000 0.000000 0
0.000000 0.000000 0
0.000000 0.000000 0
0.000000 0.000000 0
0.000000 0.000000 0
0.000000 0.000000 0
0.000000 0.000000 0
0.000000 0.000000 0
0.000000 0.000000 0
0.000000 0.000000 0
0.000000 0.000000 0
0.013481 -0.120613 0
0.043092 -0.208357 0
0.082458 -0.271336 0
0.128832 -0.320428 0
0.181723 -0.365089 0
0.241868 -0.411591 0
0.310283 -0.462862 0
0.387554 -0.518786 0
0.473211 -0.576527 0
0.565170 -0.630806 0
0.659347 -0.674152 0
0.748928 -0.697117 0
0.822065 -0.692786 0
0.879273 -0.647625 0
0.954718 -0.419886 0
0.609442 -0.113943 0
0.000000 0.000000 0
0.000000 0.000000 0
0.000000 0.000000 0
0.000000 0.000000 0
0.000000 0.000000 0
0.000000 0.000000 0
0.000000 0.000000 0
0.000000 0.000000 0
0.000000 0.000000 0
0.000000 0.000000 0
0.000000 0.000000 0
0.000000 0.000000 0
0.000000 0.000000 0
0.000000 0.000000 0
0.000000 0.000000 0
0.000000 0.000000 0
0.000000 0.000000 0
0.000000 0.000000 0
0.000000 0.000000 0
0.000000 0.000000 0
0.000000 0.000000 0
0.000000 0.000000 0
0.000000 0.000000 0
0.000000 0.000000 0
0.000000 0.000000 0
0.000000 0.000000 0
0.000000 0.000000 0
0.000000 0.000000 0
0.000000 0.000000 0
0.000000 0.000000 0
0.000000 0.000000 0
0.000000 0.000000 0
0.000000 0.000000 0
0.011213 -0.140407 0
0.034840 -0.239655 0
0.065632 -0.310029 0
0.101865 -0.365289 0
0.143785 -0.416519 0
0.192532 -0.470595 0
0.249224 -0.530226 0
0.314160 -0.594361 0
0.386198 -0.658627 0
0.462310 -0.715734 0
0.537454 -0.755329 0
0.603607 -0.761992 0
0.648859 -0.733624 0
0.663429 -0.662194 0
0.762719 -0.611885 0
0.000000 -0.305942 0
0.000000 0.000000 0
0.000000 0.000000 0
0.000000 0.000000 0
0.000000 0.000000 0
0.000000 0.000000 0
0.000000 0.000000 0
0.000000 0.000000 0
0.000000 0.000000 0
0.000000 0.000000 0
0.000000 0.000000 0
0.000000 0.000000 0
0.000000 0.000000 0
0.000000 0.000000 0
0.000000 0.000000 0
0.000000 0.000000 0
0.000000 0.000000 0
0.000000 0.000000 0
0.000000 0.000000 0
0.000000 0.000000 0
0.000000 0.000000 0
0.000000 0.000000 0
0.000000 0.000000 0
0.000000 0.000000 0
0.000000 0.000000 0
0.000000 0.000000 0
0.000000 0.000000 0
0.000000 0.000000 0
0.000000 0.000000 0
0.000000 0.000000 0
0.000000 0.000000 0
0.000000 0.000000 0
0.000000 0.000000 0
0.000000 0.000000 0
0.008187 -0.155501 0
0.024284 -0.262793 0
0.044664 -0.338382 0
0.068827 -0.398587 0
0.097846 -0.455768 0
0.133249 -0.517037 0
0.176156 -0.584490 0
0.226438 -0.655763 0
0.282174 -0.724677 0
0.339647 -0.782057 0
0.393518 -0.815445 0
0.436533 -0.808517 0
0.453564 -0.752604 0
0.564139 -0.712503 0
0.381360 -0.356252 0
0.000000 0.000000 0
0.000000 0.000000 0
0.000000 0.000000 0
0.000000 0.000000 0
0.000000 0.000000 0
0.000000 0.000000 0
0.000000 0.000000 0
0.000000 0.000000 0
0.000000 0.000000 0
0.000000 0.000000 0
0.000000 0.000000 0
0.000000 0.000000 0
0.000000 0.000000 0
0.000000 0.000000 0
0.000000 0.000000 0
0.000000 0.000000 0
0.000000 0.000000 0
0.000000 0.000000 0
0.000000 0.000000 0
0.000000 0.000000 0
0.000000 0.000000 0
0.000000 0.000000 0
0.000000 0.000000 0
0.000000 0.000000 0
0.000000 0.000000 0
0.000000 0.000000 0
0.000000 0.000000 0
0.000000 0.000000 0
0.000000 0.000000 0
0.000000 0.000000 0
0.000000 0.000000 0
0.000000 0.000000 0
0.000000 0.000000 0
0.000000 0.000000 0
0.004339 -0.164741 0
0.011426 -0.276139 0
0.019708 -0.354591 0
0.030049 -0.418478 0
0.044353 -0.480947 0
0.064516 -0.548915 0
0.091540 -0.623415 0
0.124709 -0.700378 0
0.161352 -0.771835 0
0.197601 -0.827074 0
0.228281 -0.852208 0
0.251943 -0.823982 0
0.249993 -0.699709 0
0.282070 -0.303357 0
0.000000 0.000000 0
0.000000 0.000000 0
0.000000 0.000000 0
0.000000 0.000000 0
0.000000 0.000000 0
0.000000 0.000000 0
0.000000 0.000000 0
0.000000 0.000000 0
0.000000 0.000000 0
0.000000 0.000000 0
0.000000 0.000000 0
0.000000 0.000000 0
0.000000 0.000000 0
0.000000 0.000000 0
0.000000 0.000000 0
0.000000 0.000000 0
0.000000 0.000000 0
0.000000 0.000000 0
0.000000 0.000000 0
0.000000 0.000000 0
0.000000 0.000000 0
0.000000 0.000000 0
0.000000 0.000000 0
0.000000 0.000000 0
0.000000 0.000000 0
0.000000 0.000000 0
0.000000 0.000000 0
0.000000 0.000000 0
0.000000 0.000000 0
0.000000 0.000000 0
0.000000 0.000000 0
0.000000 0.000000 0
0.000000 0.000000 0
0.000000 0.000000 0
0.000000 0.000000 0
-0.000338 -0.166980 0
-0.003597 -0.278169 0
-0.008880 -0.357015 0
-0.013897 -0.423243 0
-0.015983 -0.490237 0
-0.012920 -0.564230 0
-0.003907 -0.644686 0
0.009592 -0.725572 0
0.024478 -0.797566 0
0.037964 -0.848981 0
0.044129 -0.869780 0
0.052324 -0.832177 0
0.156998 -0.792704 0
0.000000 -0.396352 0
0.000000 0.000000 0
0.000000 0.000000 0
0.000000 0.000000 0
0.000000 0.000000 0
0.000000 0.000000 0
0.000000 0.000000 0
0.000000 0.000000 0
0.000000 0.000000 0
0.000000 0.000000 0
0.000000 0.000000 0
0.000000 0.000000 0
0.000000 0.000000 0
0.000000 0.000000 0
0.000000 0.000000 0
0.000000 0.000000 0
0.000000 0.000000 0
0.000000 0.000000 0
0.000000 0.000000 0
0.000000 0.000000 0
0.000000 0.000000 0
0.000000 0.000000 0
0.000000 0.000000 0
0.000000 0.000000 0
0.000000 0.000000 0
0.000000 0.000000 0
0.000000 0.000000 0
0.000000 0.000000 0
0.000000 0.000000 0
0.000000 0.000000 0
0.000000 0.000000 0
0.000000 0.000000 0
0.000000 0.000000 0
0.000000 0.000000 0
0.000000 0.000000 0
0.000000 0.000000 0
-0.005726 -0.161197 0
-0.020291 -0.267609 0
-0.040129 -0.344297 0
-0.061644 -0.411385 0
-0.081572 -0.481927 0
-0.097459 -0.560993 0
-0.108780 -0.645928 0
-0.117593 -0.728760 0
-0.125592 -0.800202 0