# vtk DataFile Version 2.0
generated by CFD-lab course output (written by Tobias Neckel) 
ASCII

DATASET STRUCTURED_GRID
DIMENSIONS  49 19 1 
POINTS 931 float

0.000000 0.000000 0
0.200000 0.000000 0
0.400000 0.000000 0
0.600000 0.000000 0
0.800000 0.000000 0
1.000000 0.000000 0
1.200000 0.000000 0
1.400000 0.000000 0
1.600000 0.000000 0
1.800000 0.000000 0
2.000000 0.000000 0
2.200000 0.000000 0
2.400000 0.000000 0
2.600000 0.000000 0
2.800000 0.000000 0
3.000000 0.000000 0
3.200000 0.000000 0
3.400000 0.000000 0
3.600000 0.000000 0
3.800000 0.000000 0
4.000000 0.000000 0
4.200000 0.000000 0
4.400000 0.000000 0
4.600000 0.000000 0
4.800000 0.000000 0
5.000000 0.000000 0
5.200000 0.000000 0
5.400000 0.000000 0
5.600000 0.000000 0
5.800000 0.000000 0
6.000000 0.000000 0
6.200000 0.000000 0
6.400000 0.000000 0
6.600000 0.000000 0
6.800000 0.000000 0
7.000000 0.000000 0
7.200000 0.000000 0
7.400000 0.000000 0
7.600000 0.000000 0
7.800000 0.000000 0
8.000000 0.000000 0
8.200000 0.000000 0
8.400000 0.000000 0
8.600000 0.000000 0
8.800000 0.000000 0
9.000000 0.000000 0
9.200000 0.000000 0
9.400000 0.000000 0
9.600000 0.000000 0
0.000000 0.200000 0
0.200000 0.200000 0
0.400000 0.200000 0
0.600000 0.200000 0
0.800000 0.200000 0
1.000000 0.200000 0
1.200000 0.200000 0
1.400000 0.200000 0
1.600000 0.200000 0
1.800000 0.200000 0
2.000000 0.200000 0
2.200000 0.200000 0
2.400000 0.200000 0
2.600000 0.200000 0
2.800000 0.200000 0
3.000000 0.200000 0
3.200000 0.200000 0
3.400000 0.200000 0
3.600000 0.200000 0
3.800000 0.200000 0
4.000000 0.200000 0
4.200000 0.200000 0
4.400000 0.200000 0
4.600000 0.200000 0
4.800000 0.200000 0
5.000000 0.200000 0
5.200000 0.200000 0
5.400000 0.200000 0
5.600000 0.200000 0
5.800000 0.200000 0
6.000000 0.200000 0
6.200000 0.200000 0
6.400000 0.200000 0
6.600000 0.200000 0
6.800000 0.200000 0
7.000000 0.200000 0
7.200000 0.200000 0
7.400000 0.200000 0
7.600000 0.200000 0
7.800000 0.200000 0
8.000000 0.200000 0
8.200000 0.200000 0
8.400000 0.200000 0
8.600000 0.200000 0
8.800000 0.200000 0
9.000000 0.200000 0
9.200000 0.200000 0
9.400000 0.200000 0
9.600000 0.200000 0
0.000000 0.400000 0
0.200000 0.400000 0
0.400000 0.400000 0
0.600000 0.400000 0
0.800000 0.400000 0
1.000000 0.400000 0
1.200000 0.400000 0
1.400000 0.400000 0
1.600000 0.400000 0
1.800000 0.400000 0
2.000000 0.400000 0
2.200000 0.400000 0
2.400000 0.400000 0
2.600000 0.400000 0
2.800000 0.400000 0
3.000000 0.400000 0
3.200000 0.400000 0
3.400000 0.400000 0
3.600000 0.400000 0
3.800000 0.400000 0
4.000000 0.400000 0
4.200000 0.400000 0
4.400000 0.400000 0
4.600000 0.400000 0
4.800000 0.400000 0
5.000000 0.400000 0
5.200000 0.400000 0
5.400000 0.400000 0
5.600000 0.400000 0
5.800000 0.400000 0
6.000000 0.400000 0
6.200000 0.400000 0
6.400000 0.400000 0
6.600000 0.400000 0
6.800000 0.400000 0
7.000000 0.400000 0
7.200000 0.400000 0
7.400000 0.400000 0
7.600000 0.400000 0
7.800000 0.400000 0
8.000000 0.400000 0
8.200000 0.400000 0
8.400000 0.400000 0
8.600000 0.400000 0
8.800000 0.400000 0
9.000000 0.400000 0
9.200000 0.400000 0
9.400000 0.400000 0
9.600000 0.400000 0
0.000000 0.600000 0
0.200000 0.600000 0
0.400000 0.600000 0
0.600000 0.600000 0
0.800000 0.600000 0
1.000000 0.600000 0
1.200000 0.600000 0
1.400000 0.600000 0
1.600000 0.600000 0
1.800000 0.600000 0
2.000000 0.600000 0
2.200000 0.600000 0
2.400000 0.600000 0
2.600000 0.600000 0
2.800000 0.600000 0
3.000000 0.600000 0
3.200000 0.600000 0
3.400000 0.600000 0
3.600000 0.600000 0
3.800000 0.600000 0
4.000000 0.600000 0
4.200000 0.600000 0
4.400000 0.600000 0
4.600000 0.600000 0
4.800000 0.600000 0
5.000000 0.600000 0
5.200000 0.600000 0
5.400000 0.600000 0
5.600000 0.600000 0
5.800000 0.600000 0
6.000000 0.600000 0
6.200000 0.600000 0
6.400000 0.600000 0
6.600000 0.600000 0
6.800000 0.600000 0
7.000000 0.600000 0
7.200000 0.600000 0
7.400000 0.600000 0
7.600000 0.600000 0
7.800000 0.600000 0
8.000000 0.600000 0
8.200000 0.600000 0
8.400000 0.600000 0
8.600000 0.600000 0
8.800000 0.600000 0
9.000000 0.600000 0
9.200000 0.600000 0
9.400000 0.600000 0
9.600000 0.600000 0
0.000000 0.800000 0
0.200000 0.800000 0
0.400000 0.800000 0
0.600000 0.800000 0
0.800000 0.800000 0
1.000000 0.800000 0
1.200000 0.800000 0
1.400000 0.800000 0
1.600000 0.800000 0
1.800000 0.800000 0
2.000000 0.800000 0
2.200000 0.800000 0
2.400000 0.800000 0
2.600000 0.800000 0
2.800000 0.800000 0
3.000000 0.800000 0
3.200000 0.800000 0
3.400000 0.800000 0
3.600000 0.800000 0
3.800000 0.800000 0
4.000000 0.800000 0
4.200000 0.800000 0
4.400000 0.800000 0
4.600000 0.800000 0
4.800000 0.800000 0
5.000000 0.800000 0
5.200000 0.800000 0
5.400000 0.800000 0
5.600000 0.800000 0
5.800000 0.800000 0
6.000000 0.800000 0
6.200000 0.800000 0
6.400000 0.800000 0
6.600000 0.800000 0
6.800000 0.800000 0
7.000000 0.800000 0
7.200000 0.800000 0
7.400000 0.800000 0
7.600000 0.800000 0
7.800000 0.800000 0
8.000000 0.800000 0
8.200000 0.800000 0
8.400000 0.800000 0
8.600000 0.800000 0
8.800000 0.800000 0
9.000000 0.800000 0
9.200000 0.800000 0
9.400000 0.800000 0
9.600000 0.800000 0
0.000000 1.000000 0
0.200000 1.000000 0
0.400000 1.000000 0
0.600000 1.000000 0
0.800000 1.000000 0
1.000000 1.000000 0
1.200000 1.000000 0
1.400000 1.000000 0
1.600000 1.000000 0
1.800000 1.000000 0
2.000000 1.000000 0
2.200000 1.000000 0
2.400000 1.000000 0
2.600000 1.000000 0
2.800000 1.000000 0
3.000000 1.000000 0
3.200000 1.000000 0
3.400000 1.000000 0
3.600000 1.000000 0
3.800000 1.000000 0
4.000000 1.000000 0
4.200000 1.000000 0
4.400000 1.000000 0
4.600000 1.000000 0
4.800000 1.000000 0
5.000000 1.000000 0
5.200000 1.000000 0
5.400000 1.000000 0
5.600000 1.000000 0
5.800000 1.000000 0
6.000000 1.000000 0
6.200000 1.000000 0
6.400000 1.000000 0
6.600000 1.000000 0
6.800000 1.000000 0
7.000000 1.000000 0
7.200000 1.000000 0
7.400000 1.000000 0
7.600000 1.000000 0
7.800000 1.000000 0
8.000000 1.000000 0
8.200000 1.000000 0
8.400000 1.000000 0
8.600000 1.000000 0
8.800000 1.000000 0
9.000000 1.000000 0
9.200000 1.000000 0
9.400000 1.000000 0
9.600000 1.000000 0
0.000000 1.200000 0
0.200000 1.200000 0
0.400000 1.200000 0
0.600000 1.200000 0
0.800000 1.200000 0
1.000000 1.200000 0
1.200000 1.200000 0
1.400000 1.200000 0
1.600000 1.200000 0
1.800000 1.200000 0
2.000000 1.200000 0
2.200000 1.200000 0
2.400000 1.200000 0
2.600000 1.200000 0
2.800000 1.200000 0
3.000000 1.200000 0
3.200000 1.200000 0
3.400000 1.200000 0
3.600000 1.200000 0
3.800000 1.200000 0
4.000000 1.200000 0
4.200000 1.200000 0
4.400000 1.200000 0
4.600000 1.200000 0
4.800000 1.200000 0
5.000000 1.200000 0
5.200000 1.200000 0
5.400000 1.200000 0
5.600000 1.200000 0
5.800000 1.200000 0
6.000000 1.200000 0
6.200000 1.200000 0
6.400000 1.200000 0
6.600000 1.200000 0
6.800000 1.200000 0
7.000000 1.200000 0
7.200000 1.200000 0
7.400000 1.200000 0
7.600000 1.200000 0
7.800000 1.200000 0
8.000000 1.200000 0
8.200000 1.200000 0
8.400000 1.200000 0
8.600000 1.200000 0
8.800000 1.200000 0
9.000000 1.200000 0
9.200000 1.200000 0
9.400000 1.200000 0
9.600000 1.200000 0
0.000000 1.400000 0
0.200000 1.400000 0
0.400000 1.400000 0
0.600000 1.400000 0
0.800000 1.400000 0
1.000000 1.400000 0
1.200000 1.400000 0
1.400000 1.400000 0
1.600000 1.400000 0
1.800000 1.400000 0
2.000000 1.400000 0
2.200000 1.400000 0
2.400000 1.400000 0
2.600000 1.400000 0
2.800000 1.400000 0
3.000000 1.400000 0
3.200000 1.400000 0
3.400000 1.400000 0
3.600000 1.400000 0
3.800000 1.400000 0
4.000000 1.400000 0
4.200000 1.400000 0
4.400000 1.400000 0
4.600000 1.400000 0
4.800000 1.400000 0
5.000000 1.400000 0
5.200000 1.400000 0
5.400000 1.400000 0
5.600000 1.400000 0
5.800000 1.400000 0
6.000000 1.400000 0
6.200000 1.400000 0
6.400000 1.400000 0
6.600000 1.400000 0
6.800000 1.400000 0
7.000000 1.400000 0
7.200000 1.400000 0
7.400000 1.400000 0
7.600000 1.400000 0
7.800000 1.400000 0
8.000000 1.400000 0
8.200000 1.400000 0
8.400000 1.400000 0
8.600000 1.400000 0
8.800000 1.400000 0
9.000000 1.400000 0
9.200000 1.400000 0
9.400000 1.400000 0
9.600000 1.400000 0
0.000000 1.600000 0
0.200000 1.600000 0
0.400000 1.600000 0
0.600000 1.600000 0
0.800000 1.600000 0
1.000000 1.600000 0
1.200000 1.600000 0
1.400000 1.600000 0
1.600000 1.600000 0
1.800000 1.600000 0
2.000000 1.600000 0
2.200000 1.600000 0
2.400000 1.600000 0
2.600000 1.600000 0
2.800000 1.600000 0
3.000000 1.600000 0
3.200000 1.600000 0
3.400000 1.600000 0
3.600000 1.600000 0
3.800000 1.600000 0
4.000000 1.600000 0
4.200000 1.600000 0
4.400000 1.600000 0
4.600000 1.600000 0
4.800000 1.600000 0
5.000000 1.600000 0
5.200000 1.600000 0
5.400000 1.600000 0
5.600000 1.600000 0
5.800000 1.600000 0
6.000000 1.600000 0
6.200000 1.600000 0
6.400000 1.600000 0
6.600000 1.600000 0
6.800000 1.600000 0
7.000000 1.600000 0
7.200000 1.600000 0
7.400000 1.600000 0
7.600000 1.600000 0
7.800000 1.600000 0
8.000000 1.600000 0
8.200000 1.600000 0
8.400000 1.600000 0
8.600000 1.600000 0
8.800000 1.600000 0
9.000000 1.600000 0
9.200000 1.600000 0
9.400000 1.600000 0
9.600000 1.600000 0
0.000000 1.800000 0
0.200000 1.800000 0
0.400000 1.800000 0
0.600000 1.800000 0
0.800000 1.800000 0
1.000000 1.800000 0
1.200000 1.800000 0
1.400000 1.800000 0
1.600000 1.800000 0
1.800000 1.800000 0
2.000000 1.800000 0
2.200000 1.800000 0
2.400000 1.800000 0
2.600000 1.800000 0
2.800000 1.800000 0
3.000000 1.800000 0
3.200000 1.800000 0
3.400000 1.800000 0
3.600000 1.800000 0
3.800000 1.800000 0
4.000000 1.800000 0
4.200000 1.800000 0
4.400000 1.800000 0
4.600000 1.800000 0
4.800000 1.800000 0
5.000000 1.800000 0
5.200000 1.800000 0
5.400000 1.800000 0
5.600000 1.800000 0
5.800000 1.800000 0
6.000000 1.800000 0
6.200000 1.800000 0
6.400000 1.800000 0
6.600000 1.800000 0
6.800000 1.800000 0
7.000000 1.800000 0
7.200000 1.800000 0
7.400000 1.800000 0
7.600000 1.800000 0
7.800000 1.800000 0
8.000000 1.800000 0
8.200000 1.800000 0
8.400000 1.800000 0
8.600000 1.800000 0
8.800000 1.800000 0
9.000000 1.800000 0
9.200000 1.800000 0
9.400000 1.800000 0
9.600000 1.800000 0
0.000000 2.000000 0
0.200000 2.000000 0
0.400000 2.000000 0
0.600000 2.000000 0
0.800000 2.000000 0
1.000000 2.000000 0
1.200000 2.000000 0
1.400000 2.000000 0
1.600000 2.000000 0
1.800000 2.000000 0
2.000000 2.000000 0
2.200000 2.000000 0
2.400000 2.000000 0
2.600000 2.000000 0
2.800000 2.000000 0
3.000000 2.000000 0
3.200000 2.000000 0
3.400000 2.000000 0
3.600000 2.000000 0
3.800000 2.000000 0
4.000000 2.000000 0
4.200000 2.000000 0
4.400000 2.000000 0
4.600000 2.000000 0
4.800000 2.000000 0
5.000000 2.000000 0
5.200000 2.000000 0
5.400000 2.000000 0
5.600000 2.000000 0
5.800000 2.000000 0
6.000000 2.000000 0
6.200000 2.000000 0
6.400000 2.000000 0
6.600000 2.000000 0
6.800000 2.000000 0
7.000000 2.000000 0
7.200000 2.000000 0
7.400000 2.000000 0
7.600000 2.000000 0
7.800000 2.000000 0
8.000000 2.000000 0
8.200000 2.000000 0
8.400000 2.000000 0
8.600000 2.000000 0
8.800000 2.000000 0
9.000000 2.000000 0
9.200000 2.000000 0
9.400000 2.000000 0
9.600000 2.000000 0
0.000000 2.200000 0
0.200000 2.200000 0
0.400000 2.200000 0
0.600000 2.200000 0
0.800000 2.200000 0
1.000000 2.200000 0
1.200000 2.200000 0
1.400000 2.200000 0
1.600000 2.200000 0
1.800000 2.200000 0
2.000000 2.200000 0
2.200000 2.200000 0
2.400000 2.200000 0
2.600000 2.200000 0
2.800000 2.200000 0
3.000000 2.200000 0
3.200000 2.200000 0
3.400000 2.200000 0
3.600000 2.200000 0
3.800000 2.200000 0
4.000000 2.200000 0
4.200000 2.200000 0
4.400000 2.200000 0
4.600000 2.200000 0
4.800000 2.200000 0
5.000000 2.200000 0
5.200000 2.200000 0
5.400000 2.200000 0
5.600000 2.200000 0
5.800000 2.200000 0
6.000000 2.200000 0
6.200000 2.200000 0
6.400000 2.200000 0
6.600000 2.200000 0
6.800000 2.200000 0
7.000000 2.200000 0
7.200000 2.200000 0
7.400000 2.200000 0
7.600000 2.200000 0
7.800000 2.200000 0
8.000000 2.200000 0
8.200000 2.200000 0
8.400000 2.200000 0
8.600000 2.200000 0
8.800000 2.200000 0
9.000000 2.200000 0
9.200000 2.200000 0
9.400000 2.200000 0
9.600000 2.200000 0
0.000000 2.400000 0
0.200000 2.400000 0
0.400000 2.400000 0
0.600000 2.400000 0
0.800000 2.400000 0
1.000000 2.400000 0
1.200000 2.400000 0
1.400000 2.400000 0
1.600000 2.400000 0
1.800000 2.400000 0
2.000000 2.400000 0
2.200000 2.400000 0
2.400000 2.400000 0
2.600000 2.400000 0
2.800000 2.400000 0
3.000000 2.400000 0
3.200000 2.400000 0
3.400000 2.400000 0
3.600000 2.400000 0
3.800000 2.400000 0
4.000000 2.400000 0
4.200000 2.400000 0
4.400000 2.400000 0
4.600000 2.400000 0
4.800000 2.400000 0
5.000000 2.400000 0
5.200000 2.400000 0
5.400000 2.400000 0
5.600000 2.400000 0
5.800000 2.400000 0
6.000000 2.400000 0
6.200000 2.400000 0
6.400000 2.400000 0
6.600000 2.400000 0
6.800000 2.400000 0
7.000000 2.400000 0
7.200000 2.400000 0
7.400000 2.400000 0
7.600000 2.400000 0
7.800000 2.400000 0
8.000000 2.400000 0
8.200000 2.400000 0
8.400000 2.400000 0
8.600000 2.400000 0
8.800000 2.400000 0
9.000000 2.400000 0
9.200000 2.400000 0
9.400000 2.400000 0
9.600000 2.400000 0
0.000000 2.600000 0
0.200000 2.600000 0
0.400000 2.600000 0
0.600000 2.600000 0
0.800000 2.600000 0
1.000000 2.600000 0
1.200000 2.600000 0
1.400000 2.600000 0
1.600000 2.600000 0
1.800000 2.600000 0
2.000000 2.600000 0
2.200000 2.600000 0
2.400000 2.600000 0
2.600000 2.600000 0
2.800000 2.600000 0
3.000000 2.600000 0
3.200000 2.600000 0
3.400000 2.600000 0
3.600000 2.600000 0
3.800000 2.600000 0
4.000000 2.600000 0
4.200000 2.600000 0
4.400000 2.600000 0
4.600000 2.600000 0
4.800000 2.600000 0
5.000000 2.600000 0
5.200000 2.600000 0
5.400000 2.600000 0
5.600000 2.600000 0
5.800000 2.600000 0
6.000000 2.600000 0
6.200000 2.600000 0
6.400000 2.600000 0
6.600000 2.600000 0
6.800000 2.600000 0
7.000000 2.600000 0
7.200000 2.600000 0
7.400000 2.600000 0
7.600000 2.600000 0
7.800000 2.600000 0
8.000000 2.600000 0
8.200000 2.600000 0
8.400000 2.600000 0
8.600000 2.600000 0
8.800000 2.600000 0
9.000000 2.600000 0
9.200000 2.600000 0
9.400000 2.600000 0
9.600000 2.600000 0
0.000000 2.800000 0
0.200000 2.800000 0
0.400000 2.800000 0
0.600000 2.800000 0
0.800000 2.800000 0
1.000000 2.800000 0
1.200000 2.800000 0
1.400000 2.800000 0
1.600000 2.800000 0
1.800000 2.800000 0
2.000000 2.800000 0
2.200000 2.800000 0
2.400000 2.800000 0
2.600000 2.800000 0
2.800000 2.800000 0
3.000000 2.800000 0
3.200000 2.800000 0
3.400000 2.800000 0
3.600000 2.800000 0
3.800000 2.800000 0
4.000000 2.800000 0
4.200000 2.800000 0
4.400000 2.800000 0
4.600000 2.800000 0
4.800000 2.800000 0
5.000000 2.800000 0
5.200000 2.800000 0
5.400000 2.800000 0
5.600000 2.800000 0
5.800000 2.800000 0
6.000000 2.800000 0
6.200000 2.800000 0
6.400000 2.800000 0
6.600000 2.800000 0
6.800000 2.800000 0
7.000000 2.800000 0
7.200000 2.800000 0
7.400000 2.800000 0
7.600000 2.800000 0
7.800000 2.800000 0
8.000000 2.800000 0
8.200000 2.800000 0
8.400000 2.800000 0
8.600000 2.800000 0
8.800000 2.800000 0
9.000000 2.800000 0
9.200000 2.800000 0
9.400000 2.800000 0
9.600000 2.800000 0
0.000000 3.000000 0
0.200000 3.000000 0
0.400000 3.000000 0
0.600000 3.000000 0
0.800000 3.000000 0
1.000000 3.000000 0
1.200000 3.000000 0
1.400000 3.000000 0
1.600000 3.000000 0
1.800000 3.000000 0
2.000000 3.000000 0
2.200000 3.000000 0
2.400000 3.000000 0
2.600000 3.000000 0
2.800000 3.000000 0
3.000000 3.000000 0
3.200000 3.000000 0
3.400000 3.000000 0
3.600000 3.000000 0
3.800000 3.000000 0
4.000000 3.000000 0
4.200000 3.000000 0
4.400000 3.000000 0
4.600000 3.000000 0
4.800000 3.000000 0
5.000000 3.000000 0
5.200000 3.000000 0
5.400000 3.000000 0
5.600000 3.000000 0
5.800000 3.000000 0
6.000000 3.000000 0
6.200000 3.000000 0
6.400000 3.000000 0
6.600000 3.000000 0
6.800000 3.000000 0
7.000000 3.000000 0
7.200000 3.000000 0
7.400000 3.000000 0
7.600000 3.000000 0
7.800000 3.000000 0
8.000000 3.000000 0
8.200000 3.000000 0
8.400000 3.000000 0
8.600000 3.000000 0
8.800000 3.000000 0
9.000000 3.000000 0
9.200000 3.000000 0
9.400000 3.000000 0
9.600000 3.000000 0
0.000000 3.200000 0
0.200000 3.200000 0
0.400000 3.200000 0
0.600000 3.200000 0
0.800000 3.200000 0
1.000000 3.200000 0
1.200000 3.200000 0
1.400000 3.200000 0
1.600000 3.200000 0
1.800000 3.200000 0
2.000000 3.200000 0
2.200000 3.200000 0
2.400000 3.200000 0
2.600000 3.200000 0
2.800000 3.200000 0
3.000000 3.200000 0
3.200000 3.200000 0
3.400000 3.200000 0
3.600000 3.200000 0
3.800000 3.200000 0
4.000000 3.200000 0
4.200000 3.200000 0
4.400000 3.200000 0
4.600000 3.200000 0
4.800000 3.200000 0
5.000000 3.200000 0
5.200000 3.200000 0
5.400000 3.200000 0
5.600000 3.200000 0
5.800000 3.200000 0
6.000000 3.200000 0
6.200000 3.200000 0
6.400000 3.200000 0
6.600000 3.200000 0
6.800000 3.200000 0
7.000000 3.200000 0
7.200000 3.200000 0
7.400000 3.200000 0
7.600000 3.200000 0
7.800000 3.200000 0
8.000000 3.200000 0
8.200000 3.200000 0
8.400000 3.200000 0
8.600000 3.200000 0
8.800000 3.200000 0
9.000000 3.200000 0
9.200000 3.200000 0
9.400000 3.200000 0
9.600000 3.200000 0
0.000000 3.400000 0
0.200000 3.400000 0
0.400000 3.400000 0
0.600000 3.400000 0
0.800000 3.400000 0
1.000000 3.400000 0
1.200000 3.400000 0
1.400000 3.400000 0
1.600000 3.400000 0
1.800000 3.400000 0
2.000000 3.400000 0
2.200000 3.400000 0
2.400000 3.400000 0
2.600000 3.400000 0
2.800000 3.400000 0
3.000000 3.400000 0
3.200000 3.400000 0
3.400000 3.400000 0
3.600000 3.400000 0
3.800000 3.400000 0
4.000000 3.400000 0
4.200000 3.400000 0
4.400000 3.400000 0
4.600000 3.400000 0
4.800000 3.400000 0
5.000000 3.400000 0
5.200000 3.400000 0
5.400000 3.400000 0
5.600000 3.400000 0
5.800000 3.400000 0
6.000000 3.400000 0
6.200000 3.400000 0
6.400000 3.400000 0
6.600000 3.400000 0
6.800000 3.400000 0
7.000000 3.400000 0
7.200000 3.400000 0
7.400000 3.400000 0
7.600000 3.400000 0
7.800000 3.400000 0
8.000000 3.400000 0
8.200000 3.400000 0
8.400000 3.400000 0
8.600000 3.400000 0
8.800000 3.400000 0
9.000000 3.400000 0
9.200000 3.400000 0
9.400000 3.400000 0
9.600000 3.400000 0
0.000000 3.600000 0
0.200000 3.600000 0
0.400000 3.600000 0
0.600000 3.600000 0
0.800000 3.600000 0
1.000000 3.600000 0
1.200000 3.600000 0
1.400000 3.600000 0
1.600000 3.600000 0
1.800000 3.600000 0
2.000000 3.600000 0
2.200000 3.600000 0
2.400000 3.600000 0
2.600000 3.600000 0
2.800000 3.600000 0
3.000000 3.600000 0
3.200000 3.600000 0
3.400000 3.600000 0
3.600000 3.600000 0
3.800000 3.600000 0
4.000000 3.600000 0
4.200000 3.600000 0
4.400000 3.600000 0
4.600000 3.600000 0
4.800000 3.600000 0
5.000000 3.600000 0
5.200000 3.600000 0
5.400000 3.600000 0
5.600000 3.600000 0
5.800000 3.600000 0
6.000000 3.600000 0
6.200000 3.600000 0
6.400000 3.600000 0
6.600000 3.600000 0
6.800000 3.600000 0
7.000000 3.600000 0
7.200000 3.600000 0
7.400000 3.600000 0
7.600000 3.600000 0
7.800000 3.600000 0
8.000000 3.600000 0
8.200000 3.600000 0
8.400000 3.600000 0
8.600000 3.600000 0
8.800000 3.600000 0
9.000000 3.600000 0
9.200000 3.600000 0
9.400000 3.600000 0
9.600000 3.600000 0
POINT_DATA 931 

VECTORS velocity float
0.000000 0.000000 0
0.000000 0.000000 0
0.000000 0.000000 0
0.000000 0.000000 0
0.000000 0.000000 0
0.000000 0.000000 0
0.000000 0.000000 0
0.000000 0.000000 0
0.000000 0.000000 0
0.000000 0.000000 0
0.000000 0.000000 0
0.000000 0.000000 0
0.000000 0.000000 0
0.000000 0.000000 0
0.000000 0.000000 0
0.000000 0.000000 0
0.000000 0.000000 0
0.000000 0.000000 0
0.000000 0.000000 0
0.000000 0.000000 0
0.000000 0.000000 0
0.000000 0.000000 0
0.000000 0.000000 0
0.000000 0.000000 0
0.000000 0.000000 0
0.000000 0.000000 0
0.000000 0.000000 0
0.000000 0.000000 0
0.000000 0.000000 0
0.000000 0.000000 0
0.000000 0.000000 0
0.000000 0.000000 0
0.000000 0.000000 0
0.000000 0.000000 0
0.000000 0.000000 0
0.200481 0.000000 0
0.472723 0.000000 0
0.000000 0.000000 0
0.000000 0.000000 0
0.000000 0.000000 0
0.000000 0.000000 0
0.000000 0.000000 0
0.000000 0.000000 0
0.000000 0.000000 0
0.000000 0.000000 0
0.000000 0.000000 0
0.000000 0.000000 0
0.000000 0.000000 0
0.000000 0.000000 0
0.000000 0.000000 0
0.002503 -0.003027 0
0.015458 -0.010120 0
0.039294 -0.017143 0
0.072596 -0.022880 0
0.113175 -0.026995 0
0.158655 -0.029486 0
0.206811 -0.030522 0
0.255749 -0.030344 0
0.303967 -0.029175 0
0.350221 -0.027144 0
0.393349 -0.024284 0
0.432038 -0.020708 0
0.465331 -0.016698 0
0.492734 -0.012567 0
0.514144 -0.008559 0
0.529677 -0.004880 0
0.539685 -0.001897 0
0.545316 -0.000111 0
0.548671 0.000316 0
0.551881 -0.000118 0
0.555860 -0.000510 0
0.559872 -0.000411 0
0.563074 -0.000442 0
0.566447 -0.001588 0
0.572355 -0.003993 0
0.582429 -0.006912 0
0.596675 -0.009863 0
0.614574 -0.013663 0
0.638108 -0.019237 0
0.670334 -0.025888 0
0.709842 -0.033841 0
0.756500 -0.048367 0
0.812125 -0.092372 0
0.874482 -0.246639 0
1.215535 -0.327409 0
0.990487 -0.530070 0
0.000000 -0.386094 0
0.000000 0.000000 0
0.000000 0.000000 0
0.000000 0.000000 0
0.000000 0.000000 0
0.000000 0.000000 0
0.000000 0.000000 0
0.000000 0.000000 0
0.000000 0.000000 0
0.000000 0.000000 0
0.000000 0.000000 0
0.000000 0.000000 0
0.000000 0.000000 0
0.008444 -0.015711 0
0.033885 -0.036943 0
0.075172 -0.057286 0
0.129856 -0.074026 0
0.194694 -0.086200 0
0.266257 -0.093769 0
0.341391 -0.097221 0
0.417552 -0.097277 0
0.492914 -0.094583 0
0.566089 -0.089486 0
0.635728 -0.081913 0
0.699534 -0.072068 0
0.756016 -0.060775 0
0.804515 -0.048882 0
0.844932 -0.037004 0
0.877184 -0.025595 0
0.900944 -0.015684 0
0.917026 -0.009025 0
0.928528 -0.006598 0
0.939294 -0.007216 0
0.951582 -0.008013 0
0.963871 -0.007232 0
0.973689 -0.006588 0
0.982450 -0.009292 0
0.994513 -0.015991 0
1.012648 -0.024326 0
1.036391 -0.032148 0
1.062619 -0.041436 0
1.093010 -0.055762 0
1.132968 -0.071735 0
1.178911 -0.086167 0
1.223525 -0.102283 0
1.280062 -0.117982 0
1.396315 -0.403410 0
1.553935 -0.485029 0
1.356858 -0.609283 0
0.000000 -0.465307 0
0.000000 0.000000 0
0.000000 0.000000 0
0.000000 0.000000 0
0.000000 0.000000 0
0.000000 0.000000 0
0.000000 0.000000 0
0.000000 0.000000 0
0.000000 0.000000 0
0.000000 0.000000 0
0.000000 0.000000 0
0.000000 0.000000 0
0.000000 0.000000 0
0.013529 -0.037053 0
0.049217 -0.076895 0
0.103290 -0.113157 0
0.171886 -0.142442 0
0.250843 -0.163433 0
0.335991 -0.176216 0
0.423640 -0.181848 0
0.511170 -0.181891 0
0.597371 -0.177733 0
0.681881 -0.169976 0
0.764285 -0.157744 0
0.840154 -0.141008 0
0.907975 -0.121688 0
0.967483 -0.101491 0
1.019324 -0.081231 0
1.063798 -0.060895 0
1.098910 -0.041741 0
1.123816 -0.027695 0
1.141682 -0.021950 0
1.159095 -0.023170 0
1.180333 -0.025084 0
1.202441 -0.022516 0
1.218836 -0.019020 0
1.230701 -0.022409 0
1.247411 -0.034189 0
1.271328 -0.048789 0
1.301543 -0.059832 0
1.330196 -0.070280 0
1.353376 -0.089585 0
1.385555 -0.111789 0
1.413037 -0.124396 0
1.440312 -0.149517 0
1.470390 -0.265161 0
1.587492 0.070719 0
2.072343 0.106202 0
1.678189 -0.287952 0
0.000000 -0.143976 0
0.000000 0.000000 0
0.000000 0.000000 0
0.000000 0.000000 0
0.000000 0.000000 0
0.000000 0.000000 0
0.000000 0.000000 0
0.000000 0.000000 0
0.000000 0.000000 0
0.000000 0.000000 0
0.000000 0.000000 0
0.000000 0.000000 0
0.000000 0.000000 0
0.017418 -0.065054 0
0.061150 -0.126742 0
0.124819 -0.179991 0
0.202991 -0.221611 0
0.290416 -0.250332 0
0.381894 -0.266590 0
0.472904 -0.272423 0
0.560783 -0.271024 0
0.645916 -0.265308 0
0.730646 -0.256410 0
0.818281 -0.240193 0
0.895531 -0.215764 0
0.964179 -0.188105 0
1.024728 -0.160234 0
1.078793 -0.133320 0
1.129033 -0.105179 0
1.170960 -0.075701 0
1.200671 -0.051793 0
1.221377 -0.041874 0
1.239216 -0.045864 0
1.269213 -0.051356 0
1.301371 -0.045731 0
1.322256 -0.034845 0
1.334215 -0.037864 0
1.353159 -0.056614 0
1.379373 -0.078455 0
1.413889 -0.091015 0
1.442995 -0.093267 0
1.453702 -0.111119 0
1.444567 -0.131395 0
1.450976 -0.140923 0
1.461095 -0.440904 0
1.309282 -0.546430 0
1.496795 -0.358918 0
1.233249 -0.179459 0
0.839094 0.000000 0
0.000000 0.000000 0
0.000000 0.000000 0
0.000000 0.000000 0
0.000000 0.000000 0
0.000000 0.000000 0
0.000000 0.000000 0
0.000000 0.000000 0
0.000000 0.000000 0
0.000000 0.000000 0
0.000000 0.000000 0
0.000000 0.000000 0
0.000000 0.000000 0
0.000000 0.000000 0
0.020641 -0.098314 0
0.070910 -0.184326 0
0.142161 -0.255026 0
0.227540 -0.308063 0
0.320531 -0.342356 0
0.414237 -0.358722 0
0.502449 -0.360749 0
0.581960 -0.354913 0
0.656327 -0.347602 0
0.732587 -0.342344 0
0.826610 -0.322629 0
0.896775 -0.286905 0
0.955116 -0.250884 0
1.011005 -0.216100 0
1.059987 -0.185534 0
1.112151 -0.153057 0
1.153956 -0.113373 0
1.190608 -0.078107 0
1.207634 -0.060489 0
1.224804 -0.071000 0
1.257891 -0.087235 0
1.292297 -0.075554 0
1.324052 -0.051859 0
1.333470 -0.053307 0
1.373354 -0.079344 0
1.387097 -0.109516 0
1.411243 -0.123961 0
1.470059 -0.110600 0
1.472429 -0.315148 0
1.226322 -0.353881 0
1.411509 -0.161751 0
1.425394 -0.147866 0
0.560885 -0.073933 0
0.748397 0.000000 0
0.000000 0.000000 0
0.000000 0.000000 0
0.000000 0.000000 0
0.000000 0.000000 0
0.000000 0.000000 0
0.000000 0.000000 0
0.000000 0.000000 0
0.000000 0.000000 0
0.000000 0.000000 0
0.000000 0.000000 0
0.000000 0.000000 0
0.000000 0.000000 0
0.000000 0.000000 0
0.000000 0.000000 0
0.000000 0.000000 0
0.023507 -0.136060 0
0.079087 -0.248284 0
0.156249 -0.336641 0
0.247222 -0.399997 0
0.344286 -0.437042 0
0.437772 -0.448518 0
0.518746 -0.440150 0
0.582612 -0.424904 0
0.638295 -0.415933 0
0.691820 -0.426688 0
0.803577 -0.404375 0
0.837336 -0.344263 0
0.891554 -0.302329 0
0.937990 -0.265096 0
0.980387 -0.234459 0
1.034389 -0.199140 0
1.071914 -0.154149 0
1.102953 -0.105463 0
1.205919 -0.076061 0
1.096454 -0.096115 0
1.199821 -0.118843 0
1.180474 -0.111886 0
1.201005 -0.076013 0
1.372424 -0.087164 0
1.373751 -0.110239 0
1.386076 -0.116342 0
1.342473 -0.117693 0
1.474799 -0.098169 0
1.474799 -0.098169 0
0.513625 -0.049085 0
0.698812 0.000000 0
0.712697 0.000000 0
0.000000 0.000000 0
0.000000 0.000000 0
0.000000 0.000000 0
0.000000 0.000000 0
0.000000 0.000000 0
0.000000 0.000000 0
0.000000 0.000000 0
0.000000 0.000000 0
0.000000 0.000000 0
0.000000 0.000000 0
0.000000 0.000000 0
0.000000 0.000000 0
0.000000 0.000000 0
0.000000 0.000000 0
0.000000 0.000000 0
0.000000 0.000000 0
0.000000 0.000000 0
0.025743 -0.177481 0
0.084675 -0.317084 0
0.165131 -0.423173 0
0.259579 -0.496107 0
0.359795 -0.532911 0
0.451077 -0.533184 0
0.523308 -0.505585 0
0.566695 -0.474456 0
0.606057 -0.456801 0
0.637998 -0.507613 0
0.726522 -0.468131 0
0.694555 -0.374869 0
0.733120 -0.351527 0
0.795214 -0.314378 0
0.884153 -0.291376 0
0.911753 -0.244574 0
0.939122 -0.181927 0
0.949067 -0.212104 0
0.992482 -0.053985 0
1.167601 -0.064899 0
1.097300 -0.255604 0
1.038921 -0.161088 0
1.097300 -0.102708 0
0.716444 -0.051354 0
0.687539 0.000000 0
0.699201 0.000000 0
0.649435 0.000000 0
0.737399 0.000000 0
0.737399 0.000000 0
0.000000 0.000000 0
0.000000 0.000000 0
0.000000 0.000000 0
0.000000 0.000000 0
0.000000 0.000000 0
0.000000 0.000000 0
0.000000 0.000000 0
0.000000 0.000000 0
0.000000 0.000000 0
0.000000 0.000000 0
0.000000 0.000000 0
0.000000 0.000000 0
0.000000 0.000000 0
0.000000 0.000000 0
0.000000 0.000000 0
0.000000 0.000000 0
0.000000 0.000000 0
0.000000 0.000000 0
0.000000 0.000000 0
0.000000 0.000000 0
0.026442 -0.220798 0
0.084859 -0.387683 0
0.163522 -0.511551 0
0.257303 -0.594663 0
0.359377 -0.628539 0
0.444721 -0.612025 0
0.507293 -0.555758 0
0.532305 -0.507640 0
0.590545 -0.487219 0
0.597630 -0.547134 0
0.623762 -0.460916 0
0.629057 -0.350852 0
0.517467 -0.403164 0
0.559598 -0.265516 0
0.842437 -0.200202 0
0.861499 -0.145016 0
0.933423 -0.082370 0
0.861499 -0.154295 0
0.948680 -0.183337 0
1.242574 -0.212380 0
0.513500 -0.106190 0
0.490271 0.000000 0
0.548650 0.000000 0
0.000000 0.000000 0
0.000000 0.000000 0
0.000000 0.000000 0
0.000000 0.000000 0
0.000000 0.000000 0
0.000000 0.000000 0
0.000000 0.000000 0
0.000000 0.000000 0
0.000000 0.000000 0
0.000000 0.000000 0
0.000000 0.000000 0
0.000000 0.000000 0
0.000000 0.000000 0
0.000000 0.000000 0
0.000000 0.000000 0
0.000000 0.000000 0
0.000000 0.000000 0
0.000000 0.000000 0
0.000000 0.000000 0
0.000000 0.000000 0
0.000000 0.000000 0
0.000000 0.000000 0
0.000000 0.000000 0
0.000000 0.000000 0
0.000000 0.000000 0
0.000000 0.000000 0
0.024346 -0.262389 0
0.075717 -0.454168 0
0.143395 -0.595618 0
0.226659 -0.691959 0
0.324620 -0.720322 0
0.388030 -0.681087 0
0.435693 -0.593153 0
0.472984 -0.557690 0
0.514196 -0.522111 0
0.507881 -0.540819 0
0.579457 -0.616240 0
0.414898 -0.504314 0
0.423812 -0.401302 0
0.414898 -0.410216 0
0.895375 -0.401254 0
0.914437 -0.392291 0
0.502674 -0.196146 0
0.430749 0.000000 0
0.571215 0.000000 0
0.571215 0.000000 0
0.000000 0.000000 0
0.000000 0.000000 0
0.000000 0.000000 0
0.000000 0.000000 0
0.000000 0.000000 0
0.000000 0.000000 0
0.000000 0.000000 0
0.000000 0.000000 0
0.000000 0.000000 0
0.000000 0.000000 0
0.000000 0.000000 0
0.000000 0.000000 0
0.000000 0.000000 0
0.000000 0.000000 0
0.000000 0.000000 0
0.000000 0.000000 0
0.000000 0.000000 0
0.000000 0.000000 0
0.000000 0.000000 0
0.000000 0.000000 0
0.000000 0.000000 0
0.000000 0.000000 0
0.000000 0.000000 0
0.000000 0.000000 0
0.000000 0.000000 0
0.000000 0.000000 0
0.000000 0.000000 0
0.000000 0.000000 0
0.000000 0.000000 0
0.018644 -0.296551 0
0.054512 -0.506730 0
0.097854 -0.662488 0
0.154144 -0.775879 0
0.209147 -0.789897 0
0.216703 -0.723081 0
0.235811 -0.539872 0
0.529823 -0.315169 0
0.549731 -0.351973 0
0.436306 -0.465398 0
0.505190 -1.076334 0
0.226996 -1.637270 0
0.381825 -1.337270 0
0.207449 -0.543635 0
0.474156 0.000000 0
0.474156 0.000000 0
0.000000 0.000000 0
0.000000 0.000000 0
0.000000 0.000000 0
0.000000 0.000000 0
0.000000 0.000000 0
0.000000 0.000000 0
0.000000 0.000000 0
0.000000 0.000000 0
0.000000 0.000000 0
0.000000 0.000000 0
0.000000 0.000000 0
0.000000 0.000000 0
0.000000 0.000000 0
0.000000 0.000000 0
0.000000 0.000000 0
0.000000 0.000000 0
0.000000 0.000000 0
0.000000 0.000000 0
0.000000 0.000000 0
0.000000 0.000000 0
0.000000 0.000000 0
0.000000 0.000000 0
0.000000 0.000000 0
0.000000 0.000000 0
0.000000 0.000000 0
0.000000 0.000000 0
0.000000 0.000000 0
0.000000 0.000000 0
0.000000 0.000000 0
0.000000 0.000000 0
0.000000 0.000000 0
0.000000 0.000000 0
0.000000 0.000000 0
0.010214 -0.316924 0
0.024626 -0.533373 0
0.040579 -0.695241 0
0.083411 -0.803238 0