/*--------------------------------*- C++ -*----------------------------------*\
| =========                 |                                                 |
| \\      /  F ield         | OpenFOAM: The Open Source CFD Toolbox           |
|  \\    /   O peration     | Version:  5.x                                   |
|   \\  /    A nd           | Web:      www.OpenFOAM.org                      |
|    \\/     M anipulation  |                                                 |
\*---------------------------------------------------------------------------*/
FoamFile
{
    version     2.0;
    format      ascii;
    class       volScalarField;
    location    "5.8";
    object      gradTy;
}
// * * * * * * * * * * * * * * * * * * * * * * * * * * * * * * * * * * * * * //

dimensions      [0 -1 0 1 0 0 0];

internalField   nonuniform List<scalar> 
2048
(
-26.4235
-26.3959
-26.3415
-26.2619
-26.1591
-26.0357
-25.8944
-25.7381
-25.5696
-25.3914
-25.2059
-25.0153
-24.8214
-24.6261
-24.4308
-24.2367
-24.0451
-23.8568
-23.6727
-23.4932
-23.3188
-23.1498
-22.9867
-22.8294
-22.6784
-22.5338
-22.3959
-22.2651
-22.1418
-22.0263
-21.9193
-21.8214
-21.7334
-21.656
-21.5903
-21.5373
-21.498
-21.4736
-21.4654
-21.4745
-21.5023
-21.5501
-21.6189
-21.7101
-21.8245
-21.9629
-22.1257
-22.3129
-22.5237
-22.7567
-23.0097
-23.2793
-23.5613
-23.8505
-24.1406
-24.4253
-24.6977
-24.9511
-25.1796
-25.3778
-25.5413
-25.6667
-25.7516
-25.7944
-26.4458
-26.4175
-26.3619
-26.2806
-26.1757
-26.0501
-25.9065
-25.748
-25.5774
-25.3973
-25.21
-25.0179
-24.8227
-24.6261
-24.4297
-24.2348
-24.0424
-23.8535
-23.6689
-23.489
-23.3143
-23.1452
-22.9818
-22.8244
-22.6732
-22.5284
-22.3902
-22.2591
-22.1354
-22.0194
-21.9119
-21.8135
-21.7247
-21.6466
-21.5801
-21.5261
-21.4859
-21.4605
-21.4513
-21.4594
-21.4862
-21.533
-21.6009
-21.6913
-21.8051
-21.9432
-22.106
-22.2937
-22.5057
-22.7406
-22.9962
-23.2693
-23.5556
-23.8496
-24.1451
-24.4352
-24.713
-24.9714
-25.2041
-25.4058
-25.5721
-25.6994
-25.7856
-25.829
-26.4885
-26.459
-26.401
-26.3163
-26.2074
-26.0775
-25.9295
-25.7667
-25.5921
-25.4083
-25.2178
-25.0226
-24.8248
-24.626
-24.4276
-24.231
-24.0372
-23.8472
-23.6616
-23.4811
-23.3059
-23.1364
-22.9727
-22.815
-22.6634
-22.5181
-22.3795
-22.2477
-22.1233
-22.0065
-21.8981
-21.7984
-21.7084
-21.6289
-21.5608
-21.5051
-21.4631
-21.4359
-21.4247
-21.4308
-21.4557
-21.5005
-21.5667
-21.6556
-21.7682
-21.9056
-22.0684
-22.2571
-22.4711
-22.7095
-22.9701
-23.2499
-23.5442
-23.8477
-24.1534
-24.4542
-24.7422
-25.0101
-25.2511
-25.4595
-25.6309
-25.762
-25.8505
-25.895
-26.5497
-26.5183
-26.4567
-26.3671
-26.2524
-26.1161
-25.9617
-25.7928
-25.6124
-25.4235
-25.2283
-25.0291
-24.8276
-24.6256
-24.4244
-24.2254
-24.0296
-23.838
-23.6513
-23.4698
-23.294
-23.124
-22.9598
-22.8016
-22.6495
-22.5037
-22.3644
-22.2318
-22.1064
-21.9885
-21.8786
-21.7774
-21.6856
-21.604
-21.5337
-21.4756
-21.431
-21.4011
-21.3872
-21.3906
-21.4126
-21.4548
-21.5184
-21.6049
-21.7157
-21.852
-22.0147
-22.2044
-22.4212
-22.6644
-22.932
-23.2211
-23.5272
-23.8442
-24.1649
-24.4811
-24.7841
-25.0657
-25.3185
-25.5365
-25.7151
-25.8512
-25.9429
-25.9889
-26.6282
-26.5942
-26.5278
-26.4315
-26.309
-26.1644
-26.0018
-25.825
-25.6374
-25.4419
-25.241
-25.0367
-24.8307
-24.6246
-24.4199
-24.2179
-24.0197
-23.8262
-23.638
-23.4555
-23.2789
-23.1083
-22.9437
-22.785
-22.6324
-22.4859
-22.3457
-22.2121
-22.0855
-21.9661
-21.8546
-21.7514
-21.6572
-21.5731
-21.4999
-21.4388
-21.3911
-21.3578
-21.3404
-21.3403
-21.3588
-21.3974
-21.4576
-21.5411
-21.6494
-21.784
-21.9462
-22.137
-22.3569
-22.6057
-22.882
-23.1829
-23.5039
-23.8386
-24.1788
-24.5151
-24.8377
-25.137
-25.405
-25.635
-25.8225
-25.9647
-26.0601
-26.1079
-26.7228
-26.6855
-26.6129
-26.5083
-26.376
-26.2211
-26.0483
-25.862
-25.6658
-25.4627
-25.2551
-25.0449
-24.8337
-24.6229
-24.4141
-24.2086
-24.0075
-23.8118
-23.6219
-23.4384
-23.2611
-23.09
-22.9249
-22.7657
-22.6124
-22.4651
-22.324
-22.1893
-22.0612
-21.9403
-21.8267
-21.7212
-21.6244
-21.5372
-21.4607
-21.396
-21.3444
-21.3072
-21.2857
-21.2814
-21.2956
-21.33
-21.3861
-21.4658
-21.5708
-21.703
-21.8641
-22.0556
-22.2788
-22.5338
-22.82
-23.1348
-23.4738
-23.83
-24.1942
-24.5556
-24.9023
-25.2235
-25.5096
-25.7537
-25.9514
-26.1003
-26.1997
-26.2493
-26.8329
-26.7916
-26.7113
-26.5963
-26.4521
-26.2848
-26.0999
-25.9026
-25.6966
-25.4851
-25.2701
-25.0533
-24.8363
-24.6203
-24.4069
-24.1974
-23.9931
-23.7948
-23.6033
-23.4186
-23.2407
-23.0692
-22.9037
-22.7441
-22.5901
-22.442
-22.2998
-22.1638
-22.0343
-21.9116
-21.7958
-21.6877
-21.5878
-21.4972
-21.4169
-21.3481
-21.2922
-21.2505
-21.2244
-21.2152
-21.2246
-21.254
-21.3053
-21.3803
-21.4813
-21.6102
-21.7695
-21.9612
-22.1871
-22.4486
-22.7455
-23.0761
-23.4359
-23.8176
-24.2106
-24.602
-24.9777
-25.3246
-25.6317
-25.8917
-26.1003
-26.2562
-26.3595
-26.4109
-26.9582
-26.9118
-26.8221
-26.6945
-26.5361
-26.3541
-26.1554
-25.9456
-25.7288
-25.5081
-25.2852
-25.0615
-24.8382
-24.6166
-24.3981
-24.1842
-23.9763
-23.7754
-23.5822
-23.3965
-23.2182
-23.0464
-22.8807
-22.7206
-22.566
-22.4169
-22.2737
-22.1364
-22.0054
-21.8807
-21.7627
-21.6517
-21.5484
-21.4539
-21.3694
-21.296
-21.2354
-21.1887
-21.1575
-21.143
-21.1469
-21.1707
-21.2164
-21.2861
-21.3821
-21.5069
-21.6634
-21.8543
-22.0824
-22.35
-22.6581
-23.0058
-23.3892
-23.8003
-24.227
-24.6539
-25.0638
-25.4405
-25.7714
-26.0485
-26.2683
-26.4308
-26.5374
-26.5901
-27.0984
-27.0459
-26.9448
-26.8022
-26.6268
-26.4278
-26.2134
-25.9898
-25.7615
-25.5311
-25.3001
-25.0692
-24.8393
-24.6116
-24.3876
-24.1689
-23.9571
-23.7535
-23.5586
-23.3722
-23.1936
-23.0219
-22.8562
-22.6958
-22.5405
-22.3905
-22.246
-22.1074
-21.9748
-21.8482
-21.7278
-21.6138
-21.5069
-21.4082
-21.3189
-21.2407
-21.1748
-21.1228
-21.086
-21.0659
-21.0638
-21.0814
-21.1209
-21.1843
-21.2745
-21.3941
-21.5467
-21.7356
-21.9648
-22.2377
-22.557
-22.923
-23.3324
-23.7769
-24.2427
-24.7111
-25.1607
-25.5715
-25.9287
-26.2237
-26.4543
-26.6223
-26.7314
-26.7849
-27.2538
-27.1938
-27.0789
-26.9183
-26.7231
-26.5046
-26.2725
-26.034
-25.7935
-25.5534
-25.3142
-25.0761
-24.8396
-24.6054
-24.3754
-24.1514
-23.9355
-23.7291
-23.5326
-23.3458
-23.1674
-22.9961
-22.8306
-22.6699
-22.514
-22.3629
-22.2172
-22.0773
-21.9432
-21.8147
-21.6918
-21.5746
-21.4639
-21.3606
-21.2663
-21.1827
-21.1113
-21.0536
-21.011
-20.9848
-20.9763
-20.9872
-21.0198
-21.0763
-21.1596
-21.273
-21.4203
-21.6059
-21.8347
-22.1117
-22.4415
-22.8262
-23.2638
-23.7459
-24.2567
-24.7733
-25.269
-25.7185
-26.1041
-26.4172
-26.6574
-26.8294
-26.9394
-26.9929
-27.4244
-27.3554
-27.2241
-27.0422
-26.8238
-26.5831
-26.3315
-26.077
-25.8241
-25.5743
-25.3273
-25.0822
-24.8389
-24.598
-24.3615
-24.1318
-23.9114
-23.702
-23.5042
-23.3173
-23.1397
-22.9693
-22.8043
-22.6435
-22.4868
-22.3345
-22.1875
-22.0463
-21.9108
-21.7806
-21.6553
-21.5349
-21.4199
-21.3117
-21.212
-21.1227
-21.0455
-20.9819
-20.9332
-20.9006
-20.8854
-20.8892
-20.9142
-20.963
-21.0386
-21.1446
-21.2853
-21.4659
-21.6924
-21.9718
-22.3108
-22.7142
-23.1819
-23.7058
-24.268
-24.8406
-25.3895
-25.8827
-26.2986
-26.6291
-26.8768
-27.0503
-27.1592
-27.2115
-27.6109
-27.5311
-27.3801
-27.1729
-26.9278
-26.6619
-26.3889
-26.1176
-25.8523
-25.5934
-25.3392
-25.0875
-24.8374
-24.5895
-24.3459
-24.1098
-23.8846
-23.6722
-23.4734
-23.287
-23.1108
-22.9419
-22.7776
-22.6168
-22.4592
-22.3056
-22.1572
-22.0147
-21.878
-21.7464
-21.6187
-21.4949
-21.3756
-21.2621
-21.1566
-21.0612
-20.9779
-20.9083
-20.8534
-20.8143
-20.792
-20.7883
-20.8052
-20.8455
-20.9126
-21.0101
-21.1428
-21.3164
-21.5385
-21.8178
-22.1641
-22.5854
-23.0846
-23.6545
-24.2753
-24.9129
-25.5235
-26.0657
-26.5135
-26.8598
-27.1118
-27.2833
-27.3886
-27.4383
-27.8139
-27.721
-27.5465
-27.3097
-27.0336
-26.7395
-26.4433
-26.1546
-25.8773
-25.6103
-25.3498
-25.092
-24.8353
-24.58
-24.3286
-24.0855
-23.855
-23.6396
-23.44
-23.2549
-23.0809
-22.9141
-22.7511
-22.5903
-22.4317
-22.2764
-22.1263
-21.9827
-21.8452
-21.7123
-21.5826
-21.4554
-21.3314
-21.2122
-21.1004
-20.9987
-20.9091
-20.8333
-20.7722
-20.7265
-20.697
-20.6853
-20.6937
-20.725
-20.7827
-20.8706
-20.9938
-21.1586
-21.3736
-21.6498
-22.0006
-22.4383
-22.9697
-23.5898
-24.2771
-24.9903
-25.6727
-26.2699
-26.7502
-27.1094
-27.3613
-27.5267
-27.6251
-27.6706
-28.0342
-27.9257
-27.7233
-27.4516
-27.1398
-26.8144
-26.4933
-26.1868
-25.8983
-25.6246
-25.3592
-25.0961
-24.8328
-24.5697
-24.3098
-24.0587
-23.8224
-23.6039
-23.4041
-23.221
-23.0504
-22.8865
-22.7251
-22.5643
-22.4044
-22.247
-22.0949
-21.9503
-21.8124
-21.6789
-21.5472
-21.4167
-21.2878
-21.1624
-21.0439
-20.9354
-20.8395
-20.7574
-20.6901
-20.6379
-20.6012
-20.5812
-20.5805
-20.6022
-20.6498
-20.7273
-20.8395
-20.9934
-21.1986
-21.4682
-21.8197
-22.2712
-22.8349
-23.5091
-24.2716
-25.0731
-25.8394
-26.498
-27.0108
-27.3784
-27.6244
-27.7784
-27.8662
-27.9057
-28.2728
-28.1456
-27.9102
-27.5976
-27.245
-26.8849
-26.5373
-26.213
-25.9146
-25.6362
-25.3675
-25.1
-24.8304
-24.5592
-24.2895
-24.0293
-23.7867
-23.565
-23.3653
-23.1854
-23.0193
-22.8595
-22.7001
-22.5393
-22.3777
-22.2174
-22.063
-21.9176
-21.78
-21.6464
-21.5132
-21.3792
-21.2451
-21.113
-20.9871
-20.8717
-20.7693
-20.6811
-20.6078
-20.5492
-20.5052
-20.4767
-20.4665
-20.4781
-20.5151
-20.5812
-20.6812
-20.8222
-21.0145
-21.2734
-21.621
-22.0824
-22.6774
-23.4092
-24.2563
-25.1614
-26.0266
-26.7537
-27.2974
-27.667
-27.8997
-28.0362
-28.1094
-28.1408
-28.5311
-28.3814
-28.1072
-27.7467
-27.3474
-26.9495
-26.5739
-26.2319
-25.9256
-25.6449
-25.3752
-25.1042
-24.8285
-24.5487
-24.2679
-23.9971
-23.7475
-23.5227
-23.3236
-23.1482
-22.9882
-22.8335
-22.6765
-22.5155
-22.3518
-22.1878
-22.0304
-21.8845
-21.7481
-21.6153
-21.4808
-21.3433
-21.2039
-21.0644
-20.9304
-20.8078
-20.6987
-20.6045
-20.5255
-20.4609
-20.4096
-20.3725
-20.3524
-20.3534
-20.3794
-20.4335
-20.52
-20.6464
-20.8228
-21.0661
-21.404
-21.8704
-22.4947
-23.2865
-24.228
-25.2552
-26.2381
-27.0414
-27.6124
-27.9754
-28.1857
-28.2977
-28.3518
-28.373
-28.8103
-28.6338
-28.3143
-27.8978
-27.4451
-27.0064
-26.6018
-26.2423
-25.9305
-25.6509
-25.3828
-25.1093
-24.8276
-24.5388
-24.245
-23.9617
-23.7048
-23.4766
-23.2786
-23.1092
-22.9572
-22.8092
-22.6548
-22.4933
-22.327
-22.1581
-21.9967
-21.8508
-21.7167
-21.5859
-21.4504
-21.3095
-21.1644
-21.0166
-20.8737
-20.7437
-20.6281
-20.528
-20.4438
-20.3735
-20.3152
-20.2691
-20.2386
-20.2287
-20.2435
-20.2852
-20.3573
-20.4674
-20.625
-20.8474
-21.1689
-21.6336
-22.2838
-23.1369
-24.1826
-25.3545
-26.479
-27.3665
-27.9586
-28.3032
-28.4805
-28.5604
-28.5909
-28.5998
-29.1121
-28.9033
-28.5315
-28.0494
-27.5358
-27.0542
-26.6196
-26.2429
-25.9289
-25.6543
-25.3912
-25.1158
-24.8281
-24.5304
-24.2211
-23.9227
-23.6582
-23.4267
-23.2299
-23.0685
-22.9268
-22.7872
-22.6354
-22.4731
-22.3038
-22.1283
-21.9614
-21.8163
-21.6861
-21.5587
-21.4224
-21.2779
-21.1273
-20.9699
-20.817
-20.6795
-20.5575
-20.4516
-20.3629
-20.2876
-20.2225
-20.1671
-20.1257
-20.1046
-20.1082
-20.1374
-20.1941
-20.2868
-20.4231
-20.6186
-20.9157
-21.3706
-22.0422
-22.956
-24.1143
-25.4588
-26.7559
-27.7355
-28.3385
-28.6498
-28.7817
-28.8214
-28.8237
-28.8184
-29.4383
-29.1906
-28.759
-28.2
-27.6169
-27.0914
-26.6261
-26.2323
-25.9203
-25.6556
-25.4014
-25.1242
-24.8304
-24.5244
-24.1962
-23.8793
-23.6076
-23.3727
-23.1769
-23.026
-22.8974
-22.7683
-22.6187
-22.455
-22.2828
-22.0981
-21.9238
-21.7805
-21.6564
-21.5342
-21.397
-21.2489
-21.0929
-20.9245
-20.7599
-20.6153
-20.4871
-20.3755
-20.2832
-20.2036
-20.1322
-20.067
-20.0141
-19.9815
-19.9742
-19.9911
-20.0315
-20.1062
-20.2192
-20.3815
-20.6451
-21.0801
-21.7674
-22.739
-24.0157
-25.5671
-27.0778
-28.1562
-28.7543
-29.0136
-29.0864
-29.0779
-29.0478
-29.0266
-29.7912
-29.4956
-28.9976
-28.3482
-27.685
-27.117
-26.6206
-26.2086
-25.9043
-25.655
-25.4149
-25.135
-24.8346
-24.5223
-24.1705
-23.8304
-23.5533
-23.3145
-23.1189
-22.9816
-22.8693
-22.7537
-22.605
-22.439
-22.2647
-22.0676
-21.8827
-21.7432
-21.6276
-21.5133
-21.3747
-21.2224
-21.062
-20.8804
-20.7021
-20.5513
-20.4169
-20.2996
-20.2047
-20.1218
-20.0447
-19.9693
-19.9041
-19.8595
-19.842
-19.8473
-19.8704
-19.9271
-20.016
-20.1379
-20.358
-20.7606
-21.4578
-22.4812
-23.8763
-25.6774
-27.4567
-28.6376
-29.2079
-29.3923
-29.3914
-29.3267
-29.2608
-29.2223
-30.1731
-29.8178
-29.2487
-28.4919
-27.7358
-27.1308
-26.6026
-26.1698
-25.8807
-25.653
-25.4338
-25.1485
-24.8405
-24.5262
-24.1442
-23.7742
-23.4955
-23.2524
-23.0547
-22.9355
-22.8429
-22.7446
-22.5946
-22.4251
-22.2509
-22.0366
-21.8367
-21.7038
-21.5999
-21.4969
-21.3553
-21.1983
-21.0357
-20.8378
-20.6427
-20.4876
-20.3473
-20.2236
-20.128
-20.0428
-19.9608
-19.8742
-19.7957
-19.7388
-19.7122
-19.707
-19.7112
-19.7509
-19.8166
-19.8901
-20.0558
-20.4106
-21.1125
-22.1786
-23.6821
-25.7864
-27.909
-29.1899
-29.6998
-29.7825
-29.6927
-29.565
-29.4603
-29.4036
-30.5874
-30.1555
-29.5145
-28.6294
-27.7638
-27.1333
-26.5723
-26.1128
-25.8496
-25.65
-25.461
-25.1644
-24.847
-24.5392
-24.1174
-23.7079
-23.4352
-23.1867
-22.9825
-22.8876
-22.8184
-22.743
-22.5873
-22.4124
-22.2431
-22.0049
-21.7834
-21.6623
-21.5732
-21.4865
-21.3389
-21.176
-21.0154
-20.7966
-20.5804
-20.4246
-20.2784
-20.1471
-20.0531
-19.9668
-19.8811
-19.7822
-19.6891
-19.6192
-19.585
-19.5715
-19.5541
-19.5788
-19.6248
-19.6404
-19.7407
-20.0281
-20.7319
-21.8289
-23.4139
-25.8882
-28.457
-29.8242
-30.2292
-30.1796
-29.9862
-29.7897
-29.6445
-29.5692
-31.0379
-30.5049
-29.7995
-28.7584
-27.761
-27.1269
-26.5305
-26.0337
-25.8119
-25.6457
-25.5003
-25.1824
-24.852
-24.5659
-24.0903
-23.6273
-23.3745
-23.1183
-22.8997
-22.8387
-22.7958
-22.7516
-22.5828
-22.3995
-22.2443
-21.9725
-21.7199
-21.6184
-21.5475
-21.4842
-21.3252
-21.1544
-21.0032
-20.7569
-20.5132
-20.3631
-20.2106
-20.0692
-19.9805
-19.894
-19.8066
-19.6935
-19.5842
-19.5003
-19.4609
-19.4425
-19.3985
-19.4116
-19.4452
-19.3908
-19.4157
-19.6098
-20.3183
-21.4329
-23.0459
-25.9738
-29.132
-30.552
-30.793
-30.5776
-30.2674
-29.9982
-29.8118
-29.7181
-31.5301
-30.8592
-30.1106
-28.8768
-27.7168
-27.1162
-26.4789
-25.9265
-25.7693
-25.6393
-25.5578
-25.201
-24.8518
-24.6132
-24.0629
-23.5261
-23.3168
-23.0485
-22.8025
-22.7897
-22.7744
-22.7741
-22.5802
-22.3841
-22.2588
-21.9392
-21.6419
-21.573
-21.522
-21.493
-21.3134
-21.1316
-21.0025
-20.7187
-20.4382
-20.3046
-20.1445
-19.9887
-19.9108
-19.8245
-19.7382
-19.6083
-19.481
-19.3816
-19.3397
-19.3219
-19.2432
-19.2492
-19.2833
-19.143
-19.0853
-19.1506
-19.8759
-20.9964
-22.5431
-26.0295
-29.9769
-31.3838
-31.385
-30.9694
-30.5317
-30.188
-29.9612
-29.8497
-32.0715
-31.2065
-30.459
-28.9823
-27.6158
-27.1097
-26.4205
-25.7825
-25.7255
-25.6281
-25.6415
-25.2181
-24.8401
-24.691
-24.0352
-23.395
-23.2677
-22.9793
-22.685
-22.743
-22.7524
-22.8158
-22.578
-22.362
-22.2929
-21.9051
-21.5433
-21.5275
-21.4953
-21.5172
-21.3024
-21.1043
-21.018
-20.6818
-20.3511
-20.2513
-20.0808
-19.9035
-19.845
-19.758
-19.6774
-19.5265
-19.3793
-19.2619
-19.2212
-19.213
-19.0859
-19.0911
-19.1468
-18.8973
-18.7561
-18.642
-19.4108
-20.5337
-21.8588
-26.0346
-31.0516
-32.3274
-31.9954
-31.3465
-30.7745
-30.3572
-30.0919
-29.9638
-32.6723
-31.5279
-30.862
-29.0726
-27.4368
-27.1208
-26.3597
-25.589
-25.6874
-25.6068
-25.7634
-25.2301
-24.8071
-24.8139
-24.0073
-23.2205
-23.236
-22.9136
-22.5389
-22.703
-22.7262
-22.8846
-22.5739
-22.3268
-22.3561
-21.87
-21.4159
-21.4856
-21.4647
-21.563
-21.2904
-21.0676
-21.0567
-20.646
-20.2457
-20.2071
-20.0205
-19.8107
-19.7847
-19.6938
-19.626
-19.4479
-19.2792
-19.1402
-19.1048
-19.1202
-18.9227
-18.935
-19.0454
-18.652
-18.4385
-18.0708
-18.9318
-20.0709
-20.9308
-25.9591
-32.4381
-33.385
-32.61
-31.7
-30.992
-30.5045
-30.2036
-30.0605
-33.3476
-31.7937
-31.3459
-29.1455
-27.1499
-27.1701
-26.3021
-25.3278
-25.6664
-25.5658
-25.9403
-25.232
-24.738
-25.0027
-23.9789
-22.9834
-23.2352
-22.8553
-22.352
-22.6769
-22.6894
-22.9916
-22.5644
-22.269
-22.4617
-21.8335
-21.2481
-21.4533
-21.425
-21.6393
-21.2745
-21.0139
-21.1288
-20.6109
-20.1131
-20.1778
-19.9649
-19.7059
-19.7328
-19.6305
-19.5866
-19.3719
-19.1809
-19.0146
-18.9891
-19.05
-18.7483
-18.7773
-18.9926
-18.4016
-18.1479
-17.4166
-18.4489
-19.6518
-19.6776
-25.7601
-34.2495
-34.5486
-33.2102
-32.0204
-31.1805
-30.6288
-30.2965
-30.1404
-34.1182
-31.9599
-31.9491
-29.1987
-26.7138
-27.2882
-26.2555
-24.9727
-25.6813
-25.4887
-26.1963
-25.2167
-24.6113
-25.2865
-23.9494
-22.6566
-23.2848
-22.8094
-22.1068
-22.6769
-22.6311
-23.1523
-22.5448
-22.1747
-22.6284
-21.7953
-21.0242
-21.4409
-21.3677
-21.7587
-21.251
-20.9326
-21.2484
-20.5756
-19.9413
-20.1719
-19.9153
-19.5827
-19.6934
-19.5652
-19.5625
-19.2973
-19.0848
-18.8832
-18.8716
-19.0119
-18.555
-18.6115
-19.0067
-18.1353
-17.908
-16.6495
-17.9731
-19.3442
-17.993
-25.377
-36.6387
-35.7943
-33.7727
-32.2987
-31.3376
-30.73
-30.3712
-30.2041
-35.0136
-31.9619
-32.7267
-29.23
-26.0726
-27.5186
-26.2292
-24.4871
-25.7614
-25.3492
-26.5648
-25.1747
-24.3963
-25.7053
-23.9179
-22.2034
-23.413
-22.7821
-21.7791
-22.7218
-22.534
-23.3887
-22.5087
-22.0242
-22.8822
-21.7541
-20.723
-21.4648
-21.2791
-21.9387
-21.2147
-20.8084
-21.4352
-20.5391
-19.7136
-20.2018
-19.8735
-19.4325
-19.6732
-19.4937
-19.5588
-19.2222
-18.9921
-18.7436
-18.748
-19.0193
-18.3325
-18.4283
-19.113
-17.8336
-17.7537
-15.7266
-17.5143
-19.2483
-15.7409
-24.7267
-39.8116
-37.0737
-34.2709
-32.5272
-31.4618
-30.8084
-30.4284
-30.2527
-36.0747
-31.7087
-33.7559
-29.2372
-25.1505
-27.9219
-26.2343
-23.8205
-25.9506
-25.1072
-27.0919
-25.0937
-24.051
-26.3133
-23.883
-21.5739
-23.6589
-22.781
-21.3353
-22.8402
-22.3714
-23.731
-22.4477
-21.7905
-23.258
-21.7083
-20.316
-21.5496
-21.1378
-22.2036
-21.1587
-20.6205
-21.716
-20.4996
-19.4078
-20.2851
-19.8411
-19.243
-19.682
-19.4091
-19.5821
-19.1432
-18.9047
-18.5931
-18.6121
-19.0904
-18.0673
-18.2137
-19.3462
-17.4651
-17.7362
-14.588
-17.0791
-19.5066
-12.7483
-23.696
-44.0417
-38.3039
-34.6764
-32.7001
-31.5527
-30.8649
-30.4692
-30.2874
-37.3575
-31.0741
-35.1425
-29.2173
-23.848
-28.5806
-26.2837
-22.9045
-26.3136
-24.7031
-27.8404
-24.9578
-23.5183
-27.1825
-23.8422
-20.7024
-24.0756
-22.8148
-20.73
-23.0742
-22.1042
-24.2205
-22.351
-21.4368
-23.8024
-21.6549
-19.7658
-21.7313
-20.9123
-22.5864
-21.0741
-20.3408
-22.1263
-20.4541
-18.9945
-20.4456
-19.8196
-18.9983
-19.734
-19.3009
-19.642
-19.0555
-18.8255
-18.4288
-18.4539
-19.2505
-17.7418
-17.948
-19.754
-16.981
-17.9286
-13.1532
-16.667
-20.3154
-8.79924
-22.1343
-49.6874
-39.3536
-34.9629
-32.8143
-31.6112
-30.9009
-30.4951
-30.3092
-38.9374
-29.8886
-37.0301
-29.1695
-22.0371
-29.6058
-26.3894
-21.639
-26.9328
-24.0422
-28.8848
-24.7441
-22.7232
-28.4073
-23.7912
-19.5004
-24.7306
-22.8912
-19.9028
-23.4836
-21.676
-24.9121
-22.2039
-20.913
-24.5745
-21.588
-19.0231
-22.0607
-20.5572
-23.1311
-20.9484
-19.9304
-22.711
-20.399
-18.438
-20.7175
-19.8107
-18.6754
-19.8476
-19.1526
-19.7497
-18.9513
-18.7593
-18.2481
-18.2606
-19.5343
-17.3359
-17.6057
-20.4016
-16.3109
-18.4337
-11.3169
-16.2673
-21.9401
-3.62909
-19.8446
-57.2126
-40.0271
-35.1105
-32.87
-31.6393
-30.9179
-30.5073
-30.3195
)
;

boundaryField
{
    left
    {
        type            calculated;
        value           nonuniform List<scalar> 
32
(
-26.4235
-26.4458
-26.4885
-26.5497
-26.6282
-26.7228
-26.8329
-26.9582
-27.0984
-27.2538
-27.4244
-27.6109
-27.8139
-28.0342
-28.2728
-28.5311
-28.8103
-29.1121
-29.4383
-29.7912
-30.1731
-30.5874
-31.0379
-31.5301
-32.0715
-32.6723
-33.3476
-34.1182
-35.0136
-36.0747
-37.3575
-38.9374
)
;
    }
    right
    {
        type            calculated;
        value           nonuniform List<scalar> 
32
(
-25.7944
-25.829
-25.895
-25.9889
-26.1079
-26.2493
-26.4109
-26.5901
-26.7849
-26.9929
-27.2115
-27.4383
-27.6706
-27.9057
-28.1408
-28.373
-28.5998
-28.8184
-29.0266
-29.2223
-29.4036
-29.5692
-29.7181
-29.8497
-29.9638
-30.0605
-30.1404
-30.2041
-30.2527
-30.2874
-30.3092
-30.3195
)
;
    }
    interface
    {
        type            calculated;
        value           nonuniform List<scalar> 
64
(
-39.8125
-29.1341
-38.1198
-29.1386
-20.9867
-30.2261
-26.4577
-20.9036
-27.3176
-23.6327
-29.4907
-24.6142
-22.2496
-29.1218
-23.7625
-18.804
-25.1269
-22.9408
-19.4251
-23.7408
-21.4134
-25.3164
-22.1156
-20.6013
-25.0256
-21.5502
-18.5966
-22.2696
-20.3405
-23.4502
-20.8735
-19.6869
-23.0531
-20.3686
-18.1191
-20.8864
-19.8097
-18.491
-19.9223
-19.0658
-19.817
-18.8939
-18.7302
-18.1534
-18.1532
-19.7122
-17.1101
-17.4118
-20.7948
-15.919
-18.7795
-10.2835
-16.0686
-22.9944
-0.702585
-18.4901
-61.5102
-40.2407
-35.1478
-32.8834
-31.6459
-30.9219
-30.5101
-30.3218
)
;
    }
    bottom
    {
        type            calculated;
        value           nonuniform List<scalar> 
64
(
-26.4177
-26.3902
-26.3362
-26.257
-26.1547
-26.0319
-25.8912
-25.7355
-25.5675
-25.3898
-25.2048
-25.0146
-24.8211
-24.6261
-24.431
-24.2372
-24.0458
-23.8577
-23.6736
-23.4942
-23.3199
-23.1511
-22.9879
-22.8307
-22.6798
-22.5352
-22.3974
-22.2667
-22.1434
-22.0281
-21.9212
-21.8235
-21.7357
-21.6585
-21.593
-21.5402
-21.5011
-21.477
-21.469
-21.4785
-21.5065
-21.5545
-21.6236
-21.715
-21.8296
-21.9681
-22.1308
-22.3178
-22.5283
-22.7609
-23.0132
-23.2819
-23.5628
-23.8507
-24.1395
-24.4227
-24.6937
-24.9459
-25.1732
-25.3705
-25.5333
-25.6581
-25.7427
-25.7854
)
;
    }
    defaultFaces
    {
        type            empty;
    }
}


// ************************************************************************* //
