/*--------------------------------*- C++ -*----------------------------------*\
| =========                 |                                                 |
| \\      /  F ield         | OpenFOAM: The Open Source CFD Toolbox           |
|  \\    /   O peration     | Version:  5.x                                   |
|   \\  /    A nd           | Web:      www.OpenFOAM.org                      |
|    \\/     M anipulation  |                                                 |
\*---------------------------------------------------------------------------*/
FoamFile
{
    version     2.0;
    format      ascii;
    class       volScalarField;
    location    "5.8";
    object      gradTx;
}
// * * * * * * * * * * * * * * * * * * * * * * * * * * * * * * * * * * * * * //

dimensions      [0 -1 0 1 0 0 0];

internalField   nonuniform List<scalar> 
2048
(
0.00630488
0.0187341
0.0306382
0.0417193
0.0517486
0.0605767
0.0681331
0.0744158
0.0794744
0.0833918
0.0862678
0.0882068
0.0893107
0.0896765
0.0893965
0.08856
0.0872538
0.0855614
0.0835605
0.0813197
0.0788947
0.0763262
0.073639
0.0708432
0.0679365
0.064907
0.0617349
0.0583947
0.0548555
0.0510816
0.0470325
0.0426646
0.0379328
0.0327925
0.0272018
0.0211231
0.0145243
0.00737908
-0.000332055
-0.00862079
-0.0174886
-0.0269233
-0.0368934
-0.0473415
-0.0581761
-0.0692624
-0.0804133
-0.0913816
-0.101856
-0.111464
-0.119782
-0.126359
-0.130753
-0.132569
-0.131511
-0.127415
-0.120277
-0.110247
-0.097615
-0.0827646
-0.0661293
-0.04815
-0.0292468
-0.00980736
0.0187883
0.0558173
0.0912553
0.124204
0.153976
0.180133
0.202473
0.221006
0.235891
0.24739
0.255806
0.261453
0.264637
0.265642
0.26474
0.262196
0.258265
0.253197
0.247226
0.240555
0.233353
0.225739
0.217786
0.209523
0.20094
0.192
0.182644
0.172795
0.162362
0.151238
0.139304
0.126429
0.112477
0.0973158
0.0808193
0.0628758
0.0433896
0.0222826
-0.000503911
-0.0250063
-0.0512322
-0.0791496
-0.108671
-0.139634
-0.171776
-0.204705
-0.237874
-0.270557
-0.301831
-0.330584
-0.355547
-0.375359
-0.388672
-0.394288
-0.391295
-0.379191
-0.35796
-0.328072
-0.290411
-0.246151
-0.196607
-0.143109
-0.0869048
-0.0291382
0.0311398
0.0924821
0.151105
0.205482
0.254468
0.297346
0.333819
0.363942
0.38803
0.406547
0.420023
0.428988
0.433943
0.435353
0.433659
0.429286
0.422657
0.414186
0.404261
0.393229
0.381366
0.368873
0.355864
0.342379
0.328397
0.31385
0.298637
0.282633
0.265689
0.247628
0.228252
0.207344
0.184677
0.160027
0.133186
0.103969
0.0722184
0.0378046
0.000629566
-0.0393717
-0.0822207
-0.127878
-0.17622
-0.227
-0.279812
-0.334042
-0.388817
-0.442961
-0.494966
-0.542989
-0.584897
-0.618383
-0.641134
-0.651073
-0.646608
-0.626859
-0.591798
-0.54225
-0.479766
-0.406387
-0.324371
-0.23596
-0.143223
-0.0480091
0.0435995
0.129425
0.211272
0.286936
0.35479
0.413864
0.463811
0.504803
0.537368
0.562231
0.580178
0.591969
0.598297
0.599791
0.597042
0.590629
0.581134
0.569138
0.555196
0.539799
0.523343
0.506104
0.488232
0.46977
0.45067
0.43083
0.410104
0.388319
0.365268
0.340711
0.31437
0.285937
0.255089
0.221511
0.184907
0.145018
0.101628
0.0545577
0.00366818
-0.0511393
-0.109911
-0.17262
-0.239128
-0.309139
-0.382143
-0.457345
-0.533594
-0.609305
-0.68241
-0.750333
-0.810044
-0.858203
-0.891417
-0.906591
-0.901326
-0.874287
-0.825429
-0.756009
-0.668377
-0.565589
-0.450971
-0.327743
-0.198792
-0.0666106
0.0563829
0.167268
0.272719
0.369767
0.456279
0.531058
0.593784
0.644834
0.685046
0.71548
0.737223
0.751278
0.75852
0.759721
0.755598
0.746865
0.734262
0.718546
0.70045
0.68063
0.659606
0.637732
0.615185
0.591991
0.568065
0.543254
0.517367
0.490182
0.461445
0.430852
0.398044
0.362619
0.32415
0.282219
0.236442
0.186487
0.132079
0.0729936
0.00905184
-0.0598846
-0.133901
-0.213002
-0.297068
-0.385793
-0.478608
-0.574594
-0.672379
-0.770024
-0.864934
-0.953803
-1.03265
-1.09699
-1.14216
-1.16386
-1.15868
-1.1247
-1.06185
-0.971938
-0.858324
-0.725311
-0.577479
-0.419132
-0.253974
-0.0850559
0.0696951
0.206598
0.33634
0.455069
0.560114
0.650097
0.724824
0.785009
0.831923
0.867053
0.891847
0.90756
0.915231
0.915737
0.909886
0.898508
0.882495
0.862796
0.840349
0.815997
0.790402
0.763994
0.73696
0.70929
0.680837
0.651384
0.620688
0.588489
0.554489
0.51833
0.479573
0.437707
0.392193
0.342497
0.28814
0.228717
0.163902
0.0934321
0.0170888
-0.0653096
-0.153901
-0.248747
-0.34978
-0.456728
-0.56902
-0.685676
-0.805175
-0.925295
-1.04297
-1.15417
-1.25391
-1.33641
-1.39553
-1.42543
-1.42143
-1.38085
-1.30358
-1.19213
-1.05119
-0.886618
-0.704537
-0.510463
-0.308916
-0.103385
0.0837401
0.247997
0.403002
0.543878
0.667375
0.772
0.857826
0.926073
0.978607
1.01747
1.04451
1.06126
1.06888
1.06829
1.06035
1.04597
1.02619
1.00219
0.975137
0.946101
0.915909
0.885063
0.853745
0.821872
0.789205
0.755443
0.720286
0.683447
0.644606
0.603358
0.559179
0.511442
0.459471
0.402603
0.340255
0.271952
0.197325
0.116083
0.0279765
-0.0672219
-0.169718
-0.279656
-0.397059
-0.521734
-0.653169
-0.790397
-0.931834
-1.07507
-1.21664
-1.35184
-1.47461
-1.57773
-1.65326
-1.69348
-1.69203
-1.64521
-1.55281
-1.41831
-1.2481
-1.05013
-0.83238
-0.601752
-0.363562
-0.121567
0.0987294
0.292059
0.473581
0.637208
0.779071
0.897663
0.993512
1.06857
1.12549
1.16701
1.19548
1.21266
1.21977
1.21773
1.20735
1.18959
1.16566
1.13696
1.10499
1.07108
1.03624
1.00107
0.96569
0.929915
0.893364
0.855624
0.816342
0.775221
0.731946
0.686083
0.637023
0.584
0.526174
0.462731
0.392972
0.316355
0.232486
0.141062
0.041818
-0.0655216
-0.181243
-0.305604
-0.438753
-0.580629
-0.730836
-0.888503
-1.05208
-1.2191
-1.3858
-1.54687
-1.69517
-1.82184
-1.91681
-1.96996
-1.97275
-1.92005
-1.8115
-1.65185
-1.44984
-1.21607
-0.960859
-0.692707
-0.417659
-0.139505
0.114889
0.339416
0.548989
0.736081
0.896175
1.02789
1.13246
1.21285
1.27276
1.3158
1.34484
1.36188
1.36812
1.36433
1.35119
1.32966
1.30112
1.26729
1.23002
1.19099
1.15146
1.11209
1.07292
1.03358
0.993492
0.952106
0.909009
0.863933
0.81661
0.766605
0.713216
0.655509
0.592444
0.523022
0.446415
0.362023
0.269449
0.168408
0.0586342
-0.0601888
-0.188443
-0.326529
-0.474764
-0.633262
-0.801807
-0.979702
-1.16556
-1.35696
-1.55005
-1.73902
-1.91566
-2.06929
-2.18732
-2.25662
-2.26574
-2.20756
-2.08148
-1.89393
-1.6568
-1.38423
-1.08944
-0.782733
-0.470763
-0.157036
0.132465
0.390749
0.63019
0.841549
1.01963
1.1634
1.27511
1.3591
1.42042
1.46373
1.49252
1.50895
1.51405
1.50829
1.49213
1.46645
1.43281
1.39332
1.35029
1.30587
1.26158
1.21817
1.17552
1.13301
1.08977
1.04506
0.998424
0.949673
0.898657
0.844974
0.787822
0.726057
0.658387
0.583583
0.500669
0.409003
0.30822
0.19809
0.0783746
-0.051275
-0.191353
-0.342435
-0.505049
-0.67953
-0.865892
-1.06369
-1.27182
-1.48811
-1.70879
-1.92774
-2.1358
-2.32032
-2.46572
-2.55508
-2.57312
-2.50997
-2.3645
-2.14547
-1.86904
-1.55401
-1.21723
-0.870949
-0.522255
-0.17394
0.151729
0.446806
0.718225
0.954708
1.15039
1.30483
1.42177
1.50734
1.56828
1.61056
1.63832
1.65377
1.6576
1.6498
1.63042
1.60019
1.5609
1.51514
1.46583
1.41566
1.36657
1.31932
1.27359
1.22835
1.18237
1.13466
1.08471
1.0325
0.9781
0.921197
0.86087
0.795704
0.724083
0.644494
0.555787
0.4573
0.348752
0.230018
0.100925
-0.0388945
-0.190065
-0.35338
-0.529621
-0.719381
-0.922943
-1.14019
-1.37042
-1.61191
-1.86123
-2.11225
-2.35501
-2.57485
-2.75266
-2.86686
-2.8971
-2.8296
-2.66236
-2.40724
-2.08628
-1.72442
-1.34294
-0.956198
-0.571355
-0.189944
0.172984
0.50841
0.814225
1.07672
1.28937
1.45275
1.57264
1.65742
1.71599
1.75587
1.78192
1.7962
1.79882
1.78905
1.76633
1.73116
1.68558
1.63283
1.57659
1.5203
1.46634
1.41554
1.36721
1.31978
1.27152
1.2211
1.16799
1.11245
1.05492
0.995245
0.93236
0.864488
0.789601
0.705824
0.611801
0.506887
0.390956
0.264052
0.126118
-0.0232168
-0.184727
-0.359474
-0.548547
-0.752821
-0.972869
-1.20896
-1.4609
-1.72764
-2.00641
-2.29148
-2.57239
-2.83245
-3.04858
-3.19339
-3.23996
-3.16897
-2.97691
-2.67982
-2.30784
-1.894
-1.46494
-1.03708
-0.617147
-0.204732
0.19657
0.576476
0.919424
1.2088
1.4375
1.60766
1.72775
1.80904
1.86303
1.89911
1.92287
1.936
1.93768
1.92621
1.90016
1.85962
1.80703
1.74645
1.68254
1.61964
1.56077
1.50678
1.45645
1.40746
1.35743
1.30459
1.24837
1.18951
1.12903
1.06705
1.00227
0.932432
0.855003
0.76764
0.668733
0.557712
0.434707
0.300008
0.153734
-0.00445965
-0.175528
-0.360871
-0.561943
-0.77992
-1.01565
-1.26981
-1.54285
-1.8346
-2.1433
-2.46416
-2.78671
-3.09238
-3.3536
-3.53603
-3.60419
-3.53095
-3.31018
-2.96364
-2.53267
-2.06088
-1.58122
-1.11197
-0.658611
-0.21796
0.222866
0.652015
1.03517
1.35227
1.5957
1.76996
1.88706
1.96174
2.00869
2.03957
2.06066
2.07292
2.0742
2.06151
2.03222
1.98588
1.92542
1.85604
1.78356
1.7135
1.64969
1.593
1.54142
1.49161
1.44038
1.38538
1.32599
1.26366
1.20034
1.1365
1.07054
0.999553
0.920354
0.830016
0.7266
0.609704
0.479851
0.337665
0.183513
0.0171181
-0.162695
-0.357759
-0.569973
-0.800812
-1.05135
-1.32265
-1.61593
-1.93207
-2.27077
-2.6288
-2.99644
-3.35351
-3.66756
-3.896
-3.99248
-3.91881
-3.66444
-3.25893
-2.75921
-2.22268
-1.68949
-1.17908
-0.69467
-0.229271
0.252299
0.736145
1.16293
1.50852
1.76487
1.93994
2.05037
2.11494
2.15215
2.17642
2.1947
2.2067
2.20837
2.19517
2.16293
2.11026
2.04094
1.96165
1.87954
1.80163
1.73289
1.67412
1.62221
1.57244
1.52068
1.46378
1.40098
1.33482
1.26865
1.20346
1.13714
1.06586
0.985726
0.893047
0.785422
0.662772
0.52621
0.376769
0.215155
0.041222
-0.146478
-0.350347
-0.572834
-0.815696
-1.08012
-1.3675
-1.6799
-2.01946
-2.38767
-2.78376
-3.19972
-3.61435
-3.98993
-4.27435
-4.40778
-4.33645
-4.04229
-3.56567
-2.98536
-2.37654
-1.78712
-1.23655
-0.724234
-0.238315
0.285351
0.830087
1.3043
1.67904
1.94586
2.11776
2.21737
2.26791
2.29238
2.30869
2.32438
2.33708
2.34018
2.3275
2.29275
2.23315
2.15377
2.06331
1.97033
1.88375
1.81009
1.75007
1.69895
1.65022
1.59867
1.54014
1.47348
1.40288
1.33375
1.26777
1.20199
1.13136
1.05121
0.956855
0.845225
0.716809
0.573588
0.417041
0.248326
0.0675275
-0.127148
-0.338857
-0.570752
-0.824828
-1.1022
-1.40447
-1.73464
-2.09624
-2.49286
-2.92723
-3.39443
-3.87302
-4.31975
-4.67187
-4.85335
-4.78851
-4.44677
-3.88351
-3.20836
-2.51908
-1.8713
-1.28245
-0.746264
-0.244767
0.322571
0.935168
1.461
1.86543
2.13945
2.30344
2.38769
2.41982
2.42825
2.43532
2.44902
2.46383
2.46965
2.45881
2.42227
2.35495
2.26406
2.16108
2.05576
1.95948
1.88096
1.82078
1.77183
1.72519
1.67477
1.61491
1.54366
1.46764
1.39531
1.32922
1.26505
1.19606
1.11689
1.02161
0.906042
0.771684
0.621774
0.458182
0.28266
0.095683
-0.104979
-0.323503
-0.563963
-0.828523
-1.11793
-1.43379
-1.7802
-2.16209
-2.58529
-3.05734
-3.57816
-4.12726
-4.65561
-5.0889
-5.3327
-5.28067
-4.88146
-4.21165
-3.42467
-2.64642
-1.93905
-1.31495
-0.75983
-0.24835
0.364598
1.05281
1.63485
2.06946
2.34634
2.49676
2.56085
2.56977
2.55844
2.5551
2.568
2.58681
2.59676
2.58947
2.55222
2.47608
2.37193
2.25503
2.13568
2.0284
1.94511
1.88618
1.84106
1.79764
1.74941
1.68867
1.61171
1.52884
1.45296
1.3876
1.3263
1.25994
1.18289
1.08754
0.967915
0.827233
0.670559
0.499883
0.317756
0.125313
-0.0802467
-0.304483
-0.552704
-0.827142
-1.12774
-1.45579
-1.81675
-2.21688
-2.66402
-3.1721
-3.74827
-4.37449
-4.99558
-5.52516
-5.84957
-5.81997
-5.35065
-4.54861
-3.62979
-2.75418
-1.98738
-1.3324
-0.764173
-0.248854
0.412197
1.1845
1.82776
2.29308
2.56704
2.69723
2.73642
2.71683
2.68148
2.66671
2.68071
2.70603
2.72142
2.71983
2.68352
2.59698
2.47739
2.34531
2.20992
2.08995
2.00206
1.94621
1.90697
1.86778
1.82305
1.76214
1.67786
1.5861
1.50617
1.4427
1.38579
1.32297
1.24931
1.15498
1.03089
0.883245
0.719742
0.541831
0.353183
0.156019
-0.0532192
-0.281957
-0.537196
-0.82109
-1.13215
-1.47087
-1.84461
-2.26079
-2.72829
-3.26954
-3.90188
-4.61183
-5.33722
-5.97945
-6.40786
-6.4152
-5.85949
-4.89195
-3.81813
-2.83754
-2.01337
-1.33339
-0.75876
-0.246151
0.466326
1.33177
2.04165
2.53857
2.80186
2.90397
2.91403
2.86005
2.79575
2.76867
2.78662
2.82167
2.84345
2.85023
2.81739
2.71806
2.5803
2.43219
2.27836
2.14352
2.05121
2.00088
1.96997
1.93578
1.89614
1.83626
1.74234
1.6389
1.55434
1.4943
1.44365
1.38503
1.31625
1.22439
1.095
0.93943
0.769157
0.58372
0.388468
0.187379
-0.0241494
-0.256033
-0.517628
-0.810808
-1.1318
-1.4795
-1.86424
-2.29428
-2.77755
-3.34765
-4.03594
-4.83624
-5.67768
-6.44922
-7.01136
-7.07749
-6.41418
-5.23785
-3.98281
-2.8914
-2.01439
-1.31692
-0.743329
-0.24021
0.528249
1.49612
2.27838
2.80864
3.05077
3.1156
3.09356
2.99857
2.89938
2.85937
2.8853
2.93426
2.9624
2.98093
2.95547
2.83966
2.68029
2.51615
2.34093
2.18832
2.09187
2.05022
2.03072
2.00163
1.96909
1.91229
1.80545
1.68654
1.59669
1.54223
1.50018
1.44591
1.38375
1.29644
1.16027
0.995381
0.818703
0.625262
0.423094
0.218945
0.00672658
-0.226749
-0.494138
-0.79677
-1.12742
-1.48215
-1.87616
-2.31825
-2.81153
-3.40447
-4.14721
-5.04461
-6.01383
-6.9301
-7.66348
-7.82112
-7.02218
-5.58052
-4.11555
-2.91049
-1.98821
-1.28243
-0.717919
-0.231096
0.599717
1.67894
2.5396
3.10673
3.31332
3.32997
3.27531
3.13162
2.99031
2.93698
2.97649
3.0448
3.07749
3.112
3.1
2.96197
2.77656
2.59796
2.39765
2.22338
2.12318
2.09433
2.09015
2.06507
2.0422
1.99191
1.86746
1.72808
1.6323
1.58635
1.55594
1.50521
1.45177
1.37209
1.22665
1.05051
0.868401
0.666194
0.456478
0.250247
0.0391911
-0.194057
-0.466802
-0.779471
-1.11991
-1.47926
-1.88091
-2.3341
-2.83024
-3.4381
-4.23222
-5.23394
-6.34259
-7.41525
-8.36667
-8.66449
-7.69246
-5.91143
-4.20655
-2.88963
-1.93324
-1.22992
-0.682879
-0.218975
0.683257
1.8814
2.8265
3.43738
3.58839
3.54398
3.46038
3.25854
3.06613
2.99945
3.06005
3.15502
3.18731
3.24322
3.25416
3.08492
2.86777
2.67894
2.44859
2.24756
2.1441
2.13341
2.14961
2.12547
2.11559
2.07743
1.92865
1.76228
1.66006
1.62657
1.61182
1.56227
1.52014
1.45274
1.29402
1.10399
0.918468
0.706286
0.487963
0.28079
0.0730409
-0.1578
-0.435614
-0.759416
-1.11033
-1.47114
-1.87893
-2.34383
-2.834
-3.4467
-4.28727
-5.40147
-6.66152
-7.89451
-9.12176
-9.63154
-8.43571
-6.21824
-4.24451
-2.82411
-1.84868
-1.15995
-0.638859
-0.204104
0.782608
2.10427
3.1395
3.80673
3.87403
3.75316
3.65102
3.37883
3.1241
3.04448
3.13597
3.26765
3.28961
3.3739
3.42242
3.20805
2.95171
2.76118
2.49392
2.25939
2.15337
2.16766
2.21114
2.18157
2.18904
2.17199
1.9892
1.78757
1.67865
1.66287
1.66929
1.61598
1.58844
1.54042
1.36205
1.15461
0.969429
0.745337
0.516784
0.310064
0.108079
-0.117697
-0.400471
-0.737104
-1.10002
-1.45794
-1.87043
-2.35021
-2.82343
-3.42858
-4.30827
-5.54481
-6.96963
-8.35348
-9.92678
-10.7535
-9.26459
-6.48345
-4.21684
-2.71
-1.73467
-1.07366
-0.586782
-0.186815
0.903365
2.34766
3.47771
4.22336
4.16706
3.95122
3.85131
3.49201
3.16103
3.06944
3.20432
3.38696
3.38083
3.50265
3.61112
3.33024
3.02503
2.84794
2.5338
2.25711
2.14952
2.19733
2.27771
2.2313
2.26187
2.27994
2.04909
1.80195
1.68658
1.69523
1.73055
1.66461
1.65592
1.63805
1.43018
1.20066
1.02228
0.783154
0.542037
0.337557
0.144099
-0.073323
-0.361172
-0.712989
-1.09069
-1.43956
-1.85519
-2.357
-2.79937
-3.38222
-4.29062
-5.66198
-7.26861
-8.77234
-10.7755
-12.0712
-10.1938
-6.68267
-4.11004
-2.54469
-1.59241
-0.972722
-0.527795
-0.167498
1.05388
2.6108
3.8383
4.69929
4.46271
4.1294
4.06793
3.5975
3.1732
3.07142
3.26505
3.5193
3.45569
3.62706
3.82921
3.44944
3.08277
2.94415
2.56832
2.23859
2.13082
2.22256
2.35363
2.27142
2.33272
2.40723
2.10793
1.80296
1.68217
1.7236
1.79893
1.70558
1.72133
1.74978
1.49742
1.23975
1.07869
0.819513
0.562647
0.362784
0.180859
-0.0240811
-0.317407
-0.687427
-1.08455
-1.41551
-1.83228
-2.36924
-2.76278
-3.30642
-4.22898
-5.75127
-7.56445
-9.1246
-11.6556
-13.6381
-11.2404
-6.78242
-3.91053
-2.32733
-1.42422
-0.859306
-0.463206
-0.14658
1.24651
2.89154
4.21551
5.25145
4.75397
4.27576
4.31124
3.69431
3.15633
3.04719
3.31775
3.67395
3.5065
3.7433
4.08922
3.56228
3.11782
3.05713
2.59725
2.20124
2.09529
2.24322
2.44508
2.29709
2.3993
2.56201
2.1647
1.78764
1.66361
1.74774
1.87924
1.73511
1.78275
1.88145
1.56218
1.26858
1.14131
0.85408
0.577318
0.385323
0.218044
0.0308205
-0.268776
-0.660588
-1.08454
-1.38494
-1.79975
-2.39363
-2.71452
-3.20043
-4.11701
-5.81094
-7.86973
-9.37561
-12.5456
-15.5238
-12.4234
-6.73758
-3.60581
-2.05935
-1.23348
-0.735925
-0.394416
-0.124503
1.49927
3.18597
4.59952
5.90344
5.03094
4.37419
4.59667
3.7805
3.10553
2.99333
3.36122
3.86417
3.5224
3.84563
4.40844
3.66352
3.12032
3.19745
2.61975
2.14208
2.04078
2.25861
2.56083
2.30142
2.45809
2.7553
2.21736
1.75253
1.62904
1.76699
1.97832
1.74784
1.83736
2.04115
1.62204
1.28271
1.21412
0.886292
0.584498
0.404882
0.255214
0.0924047
-0.214817
-0.632328
-1.09451
-1.34645
-1.75416
-2.43902
-2.65503
-3.06425
-3.94709
-5.83851
-8.20637
-9.48111
-13.4122
-17.8184
-13.7636
-6.4882
-3.18624
-1.74483
-1.02454
-0.605323
-0.322847
-0.101702
1.83797
3.4877
4.97483
6.68782
5.27984
4.40331
4.94641
3.85249
3.01535
2.90635
3.39279
4.10852
3.48844
3.92576
4.81038
3.74542
3.07685
3.38005
2.63387
2.05768
1.96507
2.26709
2.71303
2.27479
2.50391
3.00187
2.2623
1.69372
1.57664
1.77997
2.10572
1.73636
1.88113
2.23992
1.67338
1.27619
1.30292
0.915171
0.582333
0.421374
0.291728
0.161971
-0.155064
-0.602002
-1.11959
-1.29812
-1.69008
-2.51708
-2.58385
-2.89902
-3.71004
-5.82964
-8.60909
-9.3856
-14.2058
-20.6382
-15.2833
-5.95597
-2.64746
-1.39075
-0.802482
-0.470324
-0.249875
-0.0785878
2.29883
3.78724
5.31845
7.64889
5.48193
4.33518
5.39153
3.90396
2.87988
2.78292
3.40747
4.4325
3.38448
3.97215
5.32655
3.79693
2.96959
3.62561
2.63589
1.94427
1.86598
2.26547
2.91835
2.20421
2.52956
3.32133
2.29372
1.60696
1.50488
1.78411
2.27455
1.69062
1.90852
2.49256
1.71103
1.2413
1.41585
0.939071
0.568642
0.435033
0.326652
0.241157
-0.0891409
-0.568229
-1.1665
-1.23748
-1.59939
-2.64313
-2.499
-2.70749
-3.39488
-5.77656
-9.12962
-9.02089
-14.8557
-24.1316
-17.0052
-5.0401
-1.99352
-1.00696
-0.572819
-0.333677
-0.176771
-0.0555306
2.93175
4.07103
5.59764
8.84597
5.61211
4.13382
5.97444
3.9245
2.693
2.6203
3.39676
4.87048
3.18398
3.9691
5.99843
3.80277
2.77531
3.96219
2.61939
1.79792
1.74168
2.24826
3.1992
2.07245
2.52525
3.7393
2.30269
1.48785
1.41268
1.77502
2.50241
1.5973
1.91208
2.81858
1.72776
1.16811
1.56411
0.955342
0.540905
0.446539
0.358635
0.332017
-0.0168979
-0.528564
-1.24395
-1.16149
-1.47051
-2.83711
-2.39605
-2.49473
-2.98876
-5.66574
-9.84139
-8.30467
-15.2645
-28.4863
-18.9508
-3.61292
-1.24083
-0.605812
-0.341144
-0.197921
-0.104659
-0.0328529
3.80408
4.32052
5.76728
10.3572
5.63736
3.75362
6.75177
3.89782
2.44875
2.4168
3.34712
5.46801
2.85256
3.89585
6.87976
3.74229
2.46434
4.42707
2.57417
1.61472
1.591
2.20668
3.58523
1.85715
2.47809
4.28884
2.27613
1.33214
1.29977
1.74568
2.81258
1.4391
1.88203
3.24327
1.71376
1.04409
1.76267
0.959896
0.496275
0.457181
0.385759
0.437129
0.0613959
-0.479113
-1.36311
-1.0667
-1.28748
-3.12479
-2.2671
-2.26892
-2.47699
-5.47504
-10.845
-7.13943
-15.3013
-33.9371
-21.1394
-1.51516
-0.422855
-0.201267
-0.112736
-0.065279
-0.034489
-0.0108224
)
;

boundaryField
{
    left
    {
        type            calculated;
        value           uniform 0;
    }
    right
    {
        type            calculated;
        value           uniform 0;
    }
    interface
    {
        type            calculated;
        value           nonuniform List<scalar> 
64
(
3.80408
4.32052
5.76728
10.3572
5.63736
3.75362
6.75177
3.89782
2.44875
2.4168
3.34712
5.46801
2.85256
3.89585
6.87976
3.74229
2.46434
4.42707
2.57417
1.61472
1.591
2.20668
3.58523
1.85715
2.47809
4.28884
2.27613
1.33214
1.29977
1.74568
2.81258
1.4391
1.88203
3.24327
1.71376
1.04409
1.76267
0.959896
0.496275
0.457181
0.385759
0.437129
0.0613959
-0.479113
-1.36311
-1.0667
-1.28748
-3.12479
-2.2671
-2.26892
-2.47699
-5.47504
-10.845
-7.13943
-15.3013
-33.9371
-21.1394
-1.51516
-0.422855
-0.201267
-0.112736
-0.065279
-0.034489
-0.0108224
)
;
    }
    bottom
    {
        type            calculated;
        value           nonuniform List<scalar> 
64
(
0.00630488
0.0187341
0.0306382
0.0417193
0.0517486
0.0605767
0.0681331
0.0744158
0.0794744
0.0833918
0.0862678
0.0882068
0.0893107
0.0896765
0.0893965
0.08856
0.0872538
0.0855614
0.0835605
0.0813197
0.0788947
0.0763262
0.073639
0.0708432
0.0679365
0.064907
0.0617349
0.0583947
0.0548555
0.0510816
0.0470325
0.0426646
0.0379328
0.0327925
0.0272018
0.0211231
0.0145243
0.00737908
-0.000332055
-0.00862079
-0.0174886
-0.0269233
-0.0368934
-0.0473415
-0.0581761
-0.0692624
-0.0804133
-0.0913816
-0.101856
-0.111464
-0.119782
-0.126359
-0.130753
-0.132569
-0.131511
-0.127415
-0.120277
-0.110247
-0.097615
-0.0827646
-0.0661293
-0.04815
-0.0292468
-0.00980736
)
;
    }
    defaultFaces
    {
        type            empty;
    }
}


// ************************************************************************* //
