/*--------------------------------*- C++ -*----------------------------------*\
| =========                 |                                                 |
| \\      /  F ield         | OpenFOAM: The Open Source CFD Toolbox           |
|  \\    /   O peration     | Version:  5.x                                   |
|   \\  /    A nd           | Web:      www.OpenFOAM.org                      |
|    \\/     M anipulation  |                                                 |
\*---------------------------------------------------------------------------*/
FoamFile
{
    version     2.0;
    format      ascii;
    class       volScalarField;
    location    "17.4";
    object      gradTx;
}
// * * * * * * * * * * * * * * * * * * * * * * * * * * * * * * * * * * * * * //

dimensions      [0 -1 0 1 0 0 0];

internalField   nonuniform List<scalar> 
6300
(
-31.9525
-32.0232
-32.164
-32.3734
-32.6491
-32.9881
-33.386
-33.8375
-34.3357
-34.8727
-35.4392
-36.0245
-36.6178
-37.2078
-37.7838
-31.8818
-31.9532
-32.0954
-32.307
-32.5859
-32.9291
-33.3324
-33.7907
-34.297
-34.8433
-35.4202
-36.0166
-36.6212
-37.2218
-37.8071
-31.7397
-31.8124
-31.9573
-32.1733
-32.4584
-32.8099
-33.2241
-33.6957
-34.2182
-34.7835
-35.3815
-36.0007
-36.6284
-37.251
-37.8558
-31.5248
-31.5994
-31.7482
-31.9704
-32.2645
-32.6282
-33.0582
-33.5498
-34.0968
-34.6909
-35.3216
-35.9763
-36.6405
-37.2983
-37.9339
-31.2353
-31.3122
-31.4658
-31.6957
-32.001
-32.3801
-32.8306
-33.3485
-33.9282
-34.5616
-35.2377
-35.9425
-36.659
-37.3678
-38.0484
-30.8688
-30.9482
-31.1071
-31.3456
-31.6636
-32.0607
-32.5355
-33.0855
-33.7059
-34.3895
-35.1249
-35.8969
-36.6853
-37.4653
-38.2098
-30.423
-30.5048
-30.6688
-30.9159
-31.2471
-31.6634
-32.1653
-32.7519
-33.4206
-34.1653
-34.9756
-35.835
-36.7197
-37.5985
-38.4335
-29.8953
-29.9791
-30.1474
-30.4021
-30.7456
-31.1806
-31.7102
-32.3362
-33.059
-33.8754
-34.7771
-35.7475
-36.76
-37.7752
-38.7406
-29.2839
-29.3687
-29.5396
-29.7995
-30.1523
-30.6033
-31.1584
-31.8236
-32.6036
-33.5002
-34.5095
-35.6177
-36.7973
-38.0015
-39.1591
-28.5878
-28.6722
-28.8429
-29.1038
-29.4609
-29.9218
-30.4965
-31.1959
-32.0313
-33.0121
-34.1425
-35.4163
-36.8099
-38.274
-39.7204
-27.8072
-27.8893
-28.0559
-28.3121
-28.6653
-29.1265
-29.7097
-30.4319
-31.3132
-32.374
-33.6319
-35.0947
-36.752
-38.5641
-40.4449
-26.9445
-27.0219
-27.1795
-27.423
-27.7618
-28.2091
-28.7834
-29.5086
-30.4151
-31.5385
-32.9162
-34.579
-36.5399
-38.7868
-41.2896
-26.0044
-26.0743
-26.217
-26.4387
-26.7495
-27.1646
-27.7057
-28.4035
-29.2996
-30.4486
-31.9157
-33.767
-36.0458
-38.7593
-41.9911
-24.9944
-25.0538
-25.1754
-25.3651
-25.6327
-25.9937
-26.4711
-27.0996
-27.9309
-29.0405
-30.5331
-32.5332
-35.1292
-38.2343
-41.6628
-23.9249
-23.9711
-24.0656
-24.2134
-24.4225
-24.706
-25.0847
-25.5922
-26.2834
-27.2504
-28.6473
-30.7165
-33.7355
-37.4535
-38.2015
-38.2925
-38.7321
-39.1475
-39.5369
-39.8992
-40.2345
-40.5431
-40.8255
-41.082
-41.3123
-41.516
-41.692
-41.8392
-41.9569
-42.0451
-42.1045
-42.1371
-42.1459
-42.1346
-42.1074
-42.0687
-42.0223
-41.971
-41.9167
-41.8598
-41.7998
-41.7352
-41.6641
-41.5845
-41.495
-41.395
-41.2848
-41.1658
-41.0404
-40.9113
-40.7815
-40.6536
-40.5293
-40.4097
-40.2944
-40.1823
-40.0714
-39.9595
-39.8443
-39.7241
-39.5979
-39.4659
-39.329
-39.1894
-39.0493
-38.9115
-38.7781
-38.6507
-38.5301
-38.4158
-38.3066
-38.2006
-38.0955
-37.989
-37.8794
-37.7658
-37.6482
-37.5276
-37.4057
-37.285
-37.1677
-37.0561
-36.9517
-36.8551
-36.7662
-36.684
-36.6068
-36.5327
-36.4601
-36.388
-36.3163
-36.246
-36.1793
-36.1193
-36.0699
-36.035
-36.0184
-36.0229
-36.0505
-36.101
-36.173
-36.263
-36.3661
-36.4761
-36.5861
-38.3228
-38.7669
-39.1851
-39.5757
-39.9382
-40.2729
-40.5808
-40.8628
-41.1196
-41.3508
-41.5559
-41.7333
-41.8816
-41.9995
-42.0865
-42.1432
-42.1715
-42.1748
-42.1573
-42.1241
-42.0799
-42.0293
-41.9754
-41.9203
-41.8643
-41.8065
-41.7446
-41.6763
-41.5988
-41.5102
-41.4096
-41.2974
-41.1751
-41.0456
-40.9124
-40.7789
-40.6482
-40.5227
-40.4034
-40.2898
-40.1805
-40.0729
-39.9642
-39.8516
-39.7327
-39.6064
-39.4727
-39.3331
-39.1899
-39.0462
-38.9051
-38.7694
-38.641
-38.5209
-38.4084
-38.3021
-38.1994
-38.0974
-37.9934
-37.8852
-37.7716
-37.6526
-37.5294
-37.4042
-37.2799
-37.1596
-37.0457
-36.9403
-36.8441
-36.7567
-36.6768
-36.6022
-36.5305
-36.4594
-36.3875
-36.3143
-36.2409
-36.1696
-36.1042
-36.0489
-36.0087
-35.9878
-35.9899
-36.0173
-36.0702
-36.147
-36.2442
-36.3562
-36.476
-36.5961
-38.3857
-38.8388
-39.2625
-39.6551
-40.0171
-40.35
-40.6558
-40.9367
-41.1938
-41.4271
-41.6355
-41.8167
-41.9679
-42.0867
-42.1716
-42.2226
-42.242
-42.2335
-42.2029
-42.1563
-42.1004
-42.0408
-41.9817
-41.9253
-41.8716
-41.8188
-41.7635
-41.7016
-41.6291
-41.5428
-41.4411
-41.3244
-41.1948
-41.0564
-40.9138
-40.772
-40.6355
-40.5073
-40.3887
-40.2791
-40.1761
-40.0761
-39.9747
-39.8677
-39.7519
-39.6254
-39.4882
-39.3424
-39.1913
-39.0392
-38.8909
-38.7501
-38.6196
-38.5006
-38.3923
-38.2923
-38.197
-38.1023
-38.0039
-37.8988
-37.7852
-37.663
-37.5339
-37.4014
-37.2693
-37.142
-37.0233
-36.9157
-36.8203
-36.7364
-36.6619
-36.5935
-36.5274
-36.4599
-36.3887
-36.3126
-36.2326
-36.1516
-36.0743
-36.0064
-35.9544
-35.9242
-35.9207
-35.9472
-36.0048
-36.0918
-36.204
-36.3348
-36.4757
-36.6171
-38.4863
-38.9533
-39.3844
-39.7787
-40.138
-40.4659
-40.7668
-41.0447
-41.3022
-41.5394
-41.7543
-41.9431
-42.1008
-42.2226
-42.3053
-42.3478
-42.3524
-42.3243
-42.2712
-42.2021
-42.1263
-42.0517
-41.9841
-41.9262
-41.8775
-41.8346
-41.7918
-41.7422
-41.6792
-41.5974
-41.4942
-41.3697
-41.2274
-41.073
-40.9139
-40.7577
-40.6108
-40.478
-40.3611
-40.2588
-40.1675
-40.0813
-39.9932
-39.8967
-39.7865
-39.6596
-39.5162
-39.3592
-39.1939
-39.0271
-38.8657
-38.7159
-38.5817
-38.4649
-38.3641
-38.2757
-38.1939
-38.1122
-38.0242
-37.9247
-37.8111
-37.6831
-37.5437
-37.3978
-37.2517
-37.1121
-36.9848
-36.8735
-36.7799
-36.7027
-36.6384
-36.5816
-36.5261
-36.466
-36.3969
-36.3165
-36.2257
-36.1283
-36.0307
-35.9412
-35.8687
-35.8219
-35.8082
-35.8326
-35.8971
-36.0002
-36.137
-36.299
-36.4748
-36.6516
-38.6335
-39.1196
-39.5594
-39.9528
-40.3042
-40.6207
-40.9109
-41.1823
-41.4397
-41.6837
-41.9109
-42.1144
-42.2854
-42.4151
-42.4967
-42.5276
-42.51
-42.4512
-42.3625
-42.2577
-42.1504
-42.0525
-41.9725
-41.9138
-41.8752
-41.8504
-41.8299
-41.8022
-41.7562
-41.683
-41.5779
-41.4409
-41.2774
-41.0965
-40.91
-40.7297
-40.566
-40.4259
-40.3122
-40.2229
-40.1517
-40.0891
-40.0239
-39.9454
-39.845
-39.7178
-39.5638
-39.388
-39.1988
-39.007
-38.8239
-38.6591
-38.519
-38.406
-38.3182
-38.2495
-38.1908
-38.1314
-38.0609
-37.9711
-37.8575
-37.7198
-37.5628
-37.3944
-37.2248
-37.0647
-36.923
-36.806
-36.7158
-36.6504
-36.604
-36.5677
-36.5314
-36.4852
-36.4212
-36.3354
-36.2284
-36.1053
-35.9756
-35.8514
-35.746
-35.6721
-35.6409
-35.6601
-35.7336
-35.8602
-36.0339
-36.2432
-36.4727
-36.7038
-38.8409
-39.3526
-39.8012
-40.1877
-40.5205
-40.8134
-41.0821
-41.3402
-41.5964
-41.8522
-42.1015
-42.3325
-42.5295
-42.6766
-42.7612
-42.7772
-42.7268
-42.621
-42.4772
-42.3167
-42.1608
-42.0277
-41.9301
-41.8728
-41.8529
-41.86
-41.8782
-41.8885
-41.8723
-41.8147
-41.7073
-41.5503
-41.3522
-41.1282
-40.897
-40.6778
-40.4871
-40.3359
-40.2282
-40.1608
-40.1234
-40.1005
-40.0739
-40.0258
-39.942
-39.8144
-39.6431
-39.4359
-39.2072
-38.9745
-38.7559
-38.5667
-38.4171
-38.3109
-38.2448
-38.209
-38.1886
-38.1664
-38.1254
-38.0519
-37.9383
-37.7846
-37.5982
-37.3926
-37.1844
-36.9906
-36.8259
-36.6998
-36.6159
-36.5708
-36.5549
-36.5539
-36.5511
-36.5298
-36.4769
-36.385
-36.254
-36.0919
-35.9127
-35.7346
-35.5777
-35.461
-35.4009
-35.4096
-35.4935
-35.6525
-35.8793
-36.1585
-36.468
-36.7807
-39.1302
-39.6765
-40.1324
-40.5
-40.7945
-41.0412
-41.2685
-41.501
-41.7539
-42.0298
-42.3186
-42.5996
-42.8455
-43.0282
-43.1246
-43.1223
-43.0236
-42.8455
-42.6161
-42.3691
-42.1383
-41.952
-41.8295
-41.7778
-41.7916
-41.8537
-41.9379
-42.013
-42.0482
-42.018
-41.9082
-41.7189
-41.4645
-41.1701
-40.8667
-40.5851
-40.3514
-40.183
-40.0863
-40.0555
-40.0742
-40.1171
-40.1548
-40.1577
-40.1019
-39.974
-39.7738
-39.515
-39.2213
-38.9219
-38.6456
-38.4171
-38.2527
-38.1581
-38.1278
-38.1461
-38.1891
-38.2286
-38.2366
-38.1904
-38.077
-37.8964
-37.6614
-37.3944
-37.1231
-36.8748
-36.673
-36.533
-36.4601
-36.449
-36.4843
-36.5429
-36.5972
-36.6201
-36.5889
-36.4906
-36.3247
-36.1031
-35.848
-35.5874
-35.3514
-35.1683
-35.062
-35.0508
-35.1452
-35.3474
-35.6491
-36.0303
-36.4586
-36.8933
-39.5343
-40.1307
-40.5911
-40.9175
-41.1376
-41.2973
-41.4477
-41.6326
-41.8783
-42.189
-42.5471
-42.9171
-43.2526
-43.5042
-43.63
-43.6061
-43.4348
-43.1439
-42.7801
-42.3982
-42.0516
-41.7846
-41.6267
-41.5886
-41.6608
-41.8156
-42.0106
-42.1952
-42.3181
-42.3359
-42.2236
-41.9813
-41.6342
-41.2251
-40.8049
-40.4233
-40.1216
-39.927
-39.8494
-39.8792
-39.9899
-40.1414
-40.2857
-40.3741
-40.3659
-40.2375
-39.989
-39.6443
-39.2439
-38.8357
-38.4665
-38.1753
-37.9877
-37.9125
-37.941
-38.0477
-38.1946
-38.3361
-38.426
-38.4256
-38.3125
-38.0866
-37.7706
-37.4026
-37.0284
-36.6923
-36.4312
-36.2694
-36.2154
-36.2606
-36.3803
-36.5378
-36.6888
-36.7882
-36.7975
-36.6937
-36.4754
-36.1625
-35.791
-35.4049
-35.0491
-34.7648
-34.5864
-34.5397
-34.6416
-34.8988
-35.3047
-35.834
-36.4402
-37.0593
-40.104
-40.7809
-41.243
-41.4883
-41.5681
-41.567
-41.5778
-41.677
-41.9094
-42.2802
-42.7583
-43.2844
-43.7805
-44.1614
-44.3509
-44.3025
-44.018
-43.5472
-42.9702
-42.3766
-41.8504
-41.4602
-41.2514
-41.2405
-41.4113
-41.7194
-42.0981
-42.4665
-42.7392
-42.841
-42.7261
-42.3948
-41.8932
-41.296
-40.6875
-40.1466
-39.7375
-39.5028
-39.4576
-39.5864
-39.847
-40.176
-40.4971
-40.7297
-40.8029
-40.6738
-40.3429
-39.8539
-39.2775
-38.6932
-38.1753
-37.7844
-37.5606
-37.5179
-37.6416
-37.8915
-38.2078
-38.5179
-38.7454
-38.8232
-38.7102
-38.4068
-37.9544
-37.4199
-36.8788
-36.4017
-36.0463
-35.8506
-35.8281
-35.9647
-36.2218
-36.5419
-36.8548
-37.0859
-37.1689
-37.0619
-36.7622
-36.3063
-35.7552
-35.1787
-34.6438
-34.209
-33.921
-33.8147
-33.9144
-34.2363
-34.7825
-35.5269
-36.4034
-37.3082
-40.9158
-41.7405
-42.207
-42.2981
-42.1151
-41.8204
-41.5811
-41.5302
-41.7417
-42.2171
-42.9005
-43.6949
-44.4744
-45.0944
-45.4142
-45.3388
-44.8694
-44.1037
-43.1843
-42.2579
-41.4534
-40.8744
-40.5913
-40.6305
-40.9642
-41.5216
-42.2005
-42.8755
-43.4064
-43.6583
-43.5404
-43.0535
-42.2896
-41.3834
-40.4729
-39.68
-39.1021
-38.8056
-38.8151
-39.104
-39.6053
-40.2221
-40.836
-41.3147
-41.5314
-41.4008
-40.9243
-40.1892
-39.3227
-38.4551
-37.7012
-37.1529
-36.8727
-36.8835
-37.1604
-37.6397
-38.2298
-38.8186
-39.2806
-39.4954
-39.3821
-38.9415
-38.2563
-37.4469
-36.6371
-35.936
-35.4313
-35.1823
-35.2115
-35.4952
-35.9728
-36.5565
-37.1385
-37.597
-37.8139
-37.7075
-37.274
-36.5872
-35.7561
-34.8926
-34.0945
-33.4416
-32.9939
-32.7931
-32.8673
-33.2506
-33.9751
-35.0297
-36.3256
-37.6894
-42.0788
-43.2155
-43.7117
-43.5031
-42.8235
-41.994
-41.3136
-41.0066
-41.1947
-41.855
-42.883
-44.1269
-45.3981
-46.4595
-47.0469
-46.9425
-46.1474
-44.8814
-43.4085
-41.9635
-40.7315
-39.8626
-39.4673
-39.5964
-40.1949
-41.149
-42.3084
-43.4922
-44.4753
-45.008
-44.8859
-44.111
-42.8912
-41.4766
-40.0892
-38.9036
-38.0617
-37.6679
-37.7701
-38.3159
-39.1974
-40.2723
-41.3696
-42.2771
-42.7598
-42.6258
-41.8782
-40.714
-39.3692
-38.0534
-36.9309
-36.1355
-35.7655
-35.8661
-36.3877
-37.2284
-38.2537
-39.3018
-40.1716
-40.6403
-40.5251
-39.8286
-38.737
-37.4743
-36.239
-35.1877
-34.4478
-34.1136
-34.2286
-34.7465
-35.5708
-36.5736
-37.6001
-38.456
-38.9243
-38.824
-38.1509
-37.0757
-35.8035
-34.5123
-33.3363
-32.3784
-31.7115
-31.3756
-31.3751
-31.7735
-32.6922
-34.1849
-36.1502
-38.2906
-43.7173
-45.6091
-46.2299
-45.3879
-43.7489
-41.9524
-40.5087
-39.7705
-39.9686
-40.9638
-42.5552
-44.5197
-46.6239
-48.5075
-49.6756
-49.5406
-48.1038
-45.957
-43.5923
-41.3627
-39.4869
-38.1686
-37.588
-37.8865
-38.9135
-40.4807
-42.3811
-44.3979
-46.1926
-47.3009
-47.1716
-45.8089
-43.7735
-41.5308
-39.4148
-37.6323
-36.3759
-35.816
-36.0865
-37.0443
-38.5109
-40.2902
-42.1767
-43.8511
-44.8762
-44.7345
-43.4319
-41.4986
-39.3743
-37.3731
-35.6898
-34.5054
-33.9808
-34.2425
-35.1555
-36.5512
-38.2446
-40.0419
-41.6404
-42.6257
-42.5055
-41.2844
-39.4644
-37.4621
-35.5758
-33.9909
-32.8803
-32.398
-32.6657
-33.5564
-34.9116
-36.5566
-38.3073
-39.8734
-40.8532
-40.7656
-39.6065
-37.848
-35.8781
-33.9662
-32.264
-30.8963
-29.9524
-29.4751
-29.3083
-29.5472
-30.583
-32.6596
-35.7223
-39.276
-45.8158
-49.8189
-50.8386
-48.4206
-44.9086
-41.4031
-38.6871
-37.1861
-37.5955
-39.2146
-41.6904
-44.7118
-48.1677
-51.5857
-54.1811
-54.0133
-51.0825
-47.3466
-43.5816
-40.2522
-37.4396
-35.4125
-34.4426
-35.1276
-36.8542
-39.3325
-42.2864
-45.6236
-48.8982
-51.3759
-51.2332
-48.4756
-44.954
-41.4027
-38.2601
-35.6036
-33.687
-32.7683
-33.4131
-35.0401
-37.3742
-40.1535
-43.2895
-46.3598
-48.673
-48.5148
-45.8936
-42.5584
-39.2019
-36.2352
-33.7302
-31.9251
-31.0639
-31.6812
-33.2281
-35.4453
-38.086
-41.0681
-43.9924
-46.2031
-46.071
-43.6026
-40.4543
-37.2828
-34.4786
-32.111
-30.4079
-29.6025
-30.2055
-31.6976
-33.8352
-36.3875
-39.2803
-42.1351
-44.3192
-44.2501
-41.9255
-38.9244
-35.8693
-33.1181
-30.7101
-28.804
-27.5212
-27.1276
-26.6573
-26.1732
-26.9749
-29.7142
-34.5876
-40.977
-47.3377
-58.2921
-60.3124
-52.9901
-46.0783
-39.7273
-35.1184
-31.8517
-33.4813
-36.2325
-40.0404
-44.2783
-49.7663
-55.8485
-62.6654
-62.4649
-55.2205
-48.7782
-42.9436
-38.3975
-34.2611
-31.1338
-28.9145
-30.8685
-33.7127
-37.4993
-41.6396
-46.9394
-52.7511
-59.2246
-59.06
-52.2426
-46.1775
-40.6859
-36.4053
-32.5095
-29.5613
-27.4691
-29.3252
-32.0176
-35.5966
-39.503
-44.4969
-49.9588
-56.0286
-55.8419
-49.3836
-43.6491
-38.468
-34.4325
-30.7625
-27.9859
-26.0178
-27.7813
-30.3353
-33.7295
-37.4361
-42.1773
-47.3718
-53.154
-53.0009
-46.8998
-41.4776
-36.5745
-32.7529
-29.2743
-26.6427
-24.779
-26.4651
-28.909
-32.1616
-35.7283
-40.3079
-45.3625
-51.0299
-50.9823
-45.2189
-40.0786
-35.423
-31.7756
-28.4336
-25.814
-23.8097
-24.8906
-24.0261
-20.9479
-20.5767
-23.6955
-31.27
-44.108
-41.38
-79.7081
-82.945
-56.669
-46.393
-35.5439
-29.6174
-19.4667
-27.7527
-31.7295
-37.7716
-42.045
-50.5095
-59.0537
-81.2546
-81.0599
-58.2035
-49.3346
-40.4503
-35.9529
-29.6294
-25.5479
-17.3767
-25.3276
-29.2139
-35.157
-39.3233
-47.5179
-55.6512
-76.6321
-76.467
-54.9264
-46.5749
-38.2255
-33.9965
-28.0506
-24.2029
-16.4845
-24.0332
-27.7183
-33.3474
-37.2867
-45.0302
-52.6826
-72.3934
-72.2003
-51.8311
-43.9429
-36.0844
-32.1034
-26.5084
-22.8822
-15.5984
-22.7431
-26.2328
-31.5636
-35.2964
-42.6338
-49.9051
-68.6518
-68.496
-49.2195
-41.7534
-34.3086
-30.5336
-25.2177
-21.7717
-14.844
-21.6335
-24.9559
-30.0356
-33.6105
-40.6513
-47.7077
-65.9702
-65.9455
-47.6147
-40.5347
-33.5249
-29.9936
-25.1166
-21.9382
-15.6557
-25.4546
-24.5829
-11.8244
-9.15292
-11.2607
-20.3729
-50.2134
-36.6984
-36.8022
-36.8774
-36.9184
-36.9236
-36.8947
-36.8365
-36.7559
-36.661
-36.5603
-36.4621
-36.374
-36.3021
-36.2514
-36.2252
-36.7184
-36.8309
-36.9115
-36.9542
-36.9576
-36.924
-36.859
-36.7702
-36.6668
-36.5578
-36.4521
-36.3577
-36.2809
-36.2269
-36.199
-36.7607
-36.8916
-36.9833
-37.0294
-37.0287
-36.9848
-36.9051
-36.7993
-36.678
-36.552
-36.431
-36.3236
-36.237
-36.1762
-36.145
-36.8304
-36.9913
-37.1009
-37.1515
-37.1429
-37.0813
-36.9773
-36.8438
-36.6941
-36.5411
-36.3962
-36.269
-36.1671
-36.0961
-36.0597
-36.9364
-37.1425
-37.2775
-37.3327
-37.3101
-37.2203
-37.0792
-36.9044
-36.7134
-36.5221
-36.3437
-36.189
-36.0663
-35.9813
-35.9379
-37.0932
-37.3647
-37.534
-37.5916
-37.5444
-37.4108
-37.2147
-36.9812
-36.7331
-36.4901
-36.2675
-36.0771
-35.9277
-35.825
-35.7728
-37.324
-37.689
-37.9023
-37.9554
-37.8652
-37.6636
-37.3876
-37.0724
-36.7479
-36.4376
-36.1589
-35.9244
-35.7423
-35.6183
-35.5555
-37.6669
-38.165
-38.4308
-38.4624
-38.2973
-37.9908
-37.5998
-37.173
-36.7485
-36.3535
-36.0064
-35.7191
-35.4989
-35.3503
-35.2755
-38.1856
-38.8732
-39.1934
-39.1662
-38.8708
-38.4026
-37.8476
-37.2714
-36.7197
-36.2215
-35.7939
-35.4466
-35.1841
-35.0085
-34.9206
-38.9923
-39.9488
-40.3033
-40.1383
-39.617
-38.9014
-38.1165
-37.3454
-36.6374
-36.0187
-35.5013
-35.0892
-34.7823
-34.579
-34.4779
-40.2957
-41.6264
-41.9328
-41.4666
-40.5575
-39.4695
-38.3716
-37.3562
-36.4657
-35.7147
-35.1035
-34.6266
-34.2767
-34.0474
-33.934
-42.5169
-44.3281
-44.3351
-43.2378
-41.6768
-40.0475
-38.5444
-37.242
-36.1545
-35.2708
-34.5715
-34.037
-33.6507
-33.4
-33.2767
-46.5951
-48.834
-47.8415
-45.4729
-42.8643
-40.4992
-38.5165
-36.9128
-35.6396
-34.6426
-33.8747
-33.2992
-32.8889
-32.6251
-32.496
-54.9099
-56.5714
-52.7241
-47.9479
-43.8083
-40.5686
-38.1096
-36.2531
-34.8485
-33.7852
-32.9856
-32.3961
-31.9807
-31.7155
-31.5863
-74.4902
-69.8176
-58.5355
-49.7862
-43.8524
-39.8574
-37.1003
-35.1413
-33.7161
-32.6643
-31.8863
-31.3191
-30.9222
-30.67
-30.5474
-22.9022
-22.9342
-22.9996
-23.1013
-23.2446
-23.4379
-23.6955
-24.0416
-24.5203
-25.2168
-26.3093
-28.2037
-31.8851
-39.6371
-54.0826
-21.9501
-21.9684
-22.0052
-22.0615
-22.1389
-22.2402
-22.3705
-22.5392
-22.766
-23.0947
-23.6355
-24.7117
-27.4956
-37.2133
-80.0212
-20.9855
-20.9896
-20.9971
-21.0068
-21.0164
-21.0221
-21.0182
-20.9958
-20.9403
-20.8259
-20.5956
-20.0703
-18.4832
-11.82
25.5003
-20.018
-20.0084
-19.9876
-19.9522
-19.8964
-19.8103
-19.6784
-19.4748
-19.1548
-18.6371
-17.7611
-16.1826
-13.1688
-7.73535
-3.8006
-19.0571
-19.0349
-18.9881
-18.9118
-18.7971
-18.6301
-18.388
-18.0339
-17.506
-16.6967
-15.4112
-13.2798
-9.56562
-2.62813
13.415
-18.1117
-18.0785
-18.0092
-17.8979
-17.7342
-17.5018
-17.1749
-16.7133
-16.0523
-15.0873
-13.6487
-11.4695
-8.20024
-3.85077
-1.98342
-17.1893
-17.147
-17.0595
-16.9203
-16.7189
-16.4388
-16.0551
-15.5305
-14.809
-13.8069
-12.4012
-10.4148
-7.58422
-3.35141
4.89367
-16.2963
-16.247
-16.1456
-15.986
-15.7583
-15.4476
-15.0329
-14.484
-13.76
-12.8064
-11.5572
-9.9459
-7.94181
-5.63908
-3.48511
-15.4375
-15.3832
-15.2721
-15.0989
-14.8551
-14.5288
-14.1036
-13.559
-12.87
-12.0109
-10.9645
-9.74972
-8.50668
-7.82393
-10.3693
-14.6163
-14.5589
-14.4418
-14.2608
-14.0093
-13.6784
-13.2572
-12.734
-12.098
-11.3452
-10.4884
-9.57309
-8.68238
-7.76738
-5.05784
-13.835
-13.7759
-13.6559
-13.4718
-13.2187
-12.8907
-12.4818
-11.9871
-11.4068
-10.7516
-10.0529
-9.37926
-8.87483
-8.95724
-11.8295
-13.0948
-13.0352
-12.9145
-12.7306
-12.48
-12.1593
-11.7658
-11.2997
-10.7676
-10.1882
-9.59993
-9.06782
-8.65968
-8.20982
-5.58686
-12.3961
-12.3368
-12.2172
-12.0356
-11.79
-11.4784
-11.1002
-10.6581
-10.1612
-9.63071
-9.10791
-8.67025
-8.47345
-8.97157
-12.5323
-11.7386
-11.6802
-11.5628
-11.3851
-11.1458
-10.8437
-10.4789
-10.0544
-9.57827
-9.06788
-8.55673
-8.10539
-7.80459
-7.60652
-5.49284
-11.1216
-11.0646
-10.9503
-10.7775
-10.5453
-10.2525
-9.8992
-9.48662
-9.01908
-8.50557
-7.964
-7.43598
-7.06439
-7.57178
-13.4434
-10.5441
-10.489
-10.3783
-10.2112
-9.98668
-9.70351
-9.36059
-8.957
-8.49179
-7.96274
-7.36186
-6.65792
-5.71378
-3.81188
3.4088
-10.0049
-9.95187
-9.84544
-9.68481
-9.46883
-9.19596
-8.86411
-8.47017
-8.00884
-7.4698
-6.83128
-6.04667
-5.02827
-3.7456
-3.60495
-9.50251
-9.45187
-9.35024
-9.19684
-8.99049
-8.72937
-8.41074
-8.03014
-7.57987
-7.04594
-6.40214
-5.59778
-4.52628
-2.88624
0.793323
-9.0353
-8.9873
-8.89098
-8.74565
-8.55017
-8.30272
-8.00041
-7.63849
-7.20898
-6.69839
-6.0845
-5.33442
-4.4191
-3.44323
-3.56747
-8.60142
-8.55628
-8.46576
-8.3293
-8.14595
-7.91418
-7.63148
-7.29379
-6.89441
-6.42257
-5.86145
-5.1858
-4.35399
-3.23625
-0.97865
-8.19888
-8.15679
-8.07244
-7.9455
-7.77535
-7.56099
-7.30075
-6.99192
-6.63016
-6.20875
-5.71793
-5.14563
-4.48744
-3.82085
-3.85789
-7.82558
-7.78663
-7.70871
-7.59171
-7.43547
-7.23967
-7.00376
-6.72681
-6.40734
-6.04314
-5.63099
-5.16511
-4.62672
-3.9168
-2.42522
-7.47932
-7.44355
-7.37211
-7.26518
-7.12306
-6.94621
-6.73527
-6.49122
-6.21558
-5.91084
-5.58138
-5.23495
-4.88514
-4.55556
-4.29429
-7.15791
-7.12525
-7.06016
-6.96308
-6.83477
-6.67641
-6.48978
-6.27759
-6.04402
-5.79571
-5.54356
-5.30713
-5.12951
-5.14689
-5.98189
-6.85917
-6.82948
-6.77043
-6.68267
-6.56736
-6.42626
-6.26204
-6.0788
-5.88271
-5.68325
-5.49482
-5.33847
-5.23847
-5.17042
-4.63413
-6.58105
-6.55411
-6.50062
-6.42141
-6.31786
-6.19215
-6.04753
-5.88893
-5.72375
-5.56315
-5.4238
-5.3307
-5.32524
-5.51911
-6.52908
-6.32165
-6.29719
-6.24868
-6.17704
-6.08376
-5.97117
-5.84273
-5.70363
-5.56162
-5.42828
-5.32067
-5.26207
-5.27359
-5.30105
-4.68669
-6.07924
-6.05696
-6.01281
-5.9477
-5.86309
-5.7612
-5.64533
-5.52035
-5.39346
-5.27555
-5.1835
-5.14474
-5.21088
-5.52868
-6.85631
-5.8523
-5.83191
-5.79151
-5.73191
-5.65441
-5.56094
-5.45428
-5.3384
-5.21907
-5.10488
-5.00933
-4.95457
-4.97342
-5.05504
-4.52795
-5.63953
-5.62076
-5.58355
-5.52855
-5.45682
-5.36984
-5.26963
-5.15886
-5.04111
-4.92126
-4.80683
-4.71329
-4.69237
-5.0041
-7.2534
-5.4398
-5.42243
-5.38794
-5.33682
-5.26983
-5.18793
-5.0923
-4.98418
-4.86461
-4.73389
-4.58983
-4.42159
-4.18032
-3.60761
-1.11929
-5.25214
-5.23599
-5.20387
-5.15611
-5.09318
-5.01557
-4.92367
-4.81743
-4.69586
-4.5558
-4.38962
-4.18062
-3.89843
-3.54141
-3.67867
-5.0757
-5.06065
-5.03067
-4.98595
-4.92674
-4.85314
-4.76498
-4.66135
-4.53995
-4.39584
-4.21915
-3.99048
-3.66849
-3.13196
-1.7703
-4.90971
-4.89568
-4.86769
-4.82587
-4.77028
-4.70084
-4.61705
-4.51762
-4.39982
-4.2585
-4.08478
-3.86516
-3.58756
-3.2955
-3.47932
-4.75347
-4.74041
-4.71434
-4.67534
-4.62344
-4.55849
-4.47998
-4.38664
-4.27602
-4.14369
-3.98228
-3.7801
-3.51667
-3.12858
-2.22131
-4.60631
-4.59418
-4.56997
-4.53377
-4.48566
-4.42558
-4.3532
-4.26767
-4.1673
-4.04906
-3.9081
-3.73757
-3.53236
-3.32217
-3.42784
-4.46758
-4.45633
-4.43392
-4.40049
-4.35621
-4.30122
-4.23556
-4.15902
-4.07098
-3.97022
-3.85446
-3.71915
-3.5515
-3.29642
-2.64671
-4.33666
-4.32624
-4.30553
-4.27474
-4.23419
-4.18427
-4.12547
-4.05834
-3.98352
-3.90181
-3.8144
-3.72318
-3.63137
-3.54469
-3.47534
-4.21297
-4.20331
-4.18415
-4.15578
-4.11867
-4.0735
-4.02118
-3.96301
-3.90083
-3.83736
-3.77699
-3.72761
-3.70769
-3.78093
-4.25577
-4.09599
-4.08699
-4.06916
-4.04288
-4.00876
-3.96769
-3.92096
-3.87048
-3.81903
-3.77077
-3.73196
-3.71159
-3.71932
-3.73826
-3.50281
-3.98527
-3.9768
-3.96005
-3.93544
-3.90368
-3.8658
-3.82336
-3.77863
-3.73501
-3.69763
-3.67412
-3.67606
-3.72318
-3.87223
-4.4494
-3.88044
-3.87236
-3.85639
-3.83298
-3.80285
-3.7671
-3.72734
-3.686
-3.64668
-3.61485
-3.59861
-3.60916
-3.65627
-3.70888
-3.40895
-3.78123
-3.77339
-3.7579
-3.73518
-3.70593
-3.67117
-3.63243
-3.59196
-3.55316
-3.52124
-3.50449
-3.51686
-3.58555
-3.79034
-4.54799
-3.68747
-3.67973
-3.66443
-3.64194
-3.61284
-3.57801
-3.53872
-3.49678
-3.45487
-3.4171
-3.39017
-3.38547
-3.42031
-3.48788
-3.21462
-3.59909
-3.59133
-3.57596
-3.55328
-3.52372
-3.48796
-3.44685
-3.40158
-3.35369
-3.30543
-3.2604
-3.22662
-3.23235
-3.42208
-4.68997
-3.5161
-3.50823
-3.49258
-3.46938
-3.43893
-3.40162
-3.35789
-3.30818
-3.25279
-3.19153
-3.12283
-3.04034
-2.91662
-2.60756
-1.22858
-3.43858
-3.43051
-3.41446
-3.39053
-3.35891
-3.31974
-3.27308
-3.21874
-3.15596
-3.0828
-2.99483
-2.88269
-2.72962
-2.53602
-2.62671
-3.36666
-3.35836
-3.34179
-3.31703
-3.28412
-3.24305
-3.19361
-3.13517
-3.06635
-2.98434
-2.88363
-2.75346
-2.57076
-2.26706
-1.49485
-3.30051
-3.29194
-3.27482
-3.24918
-3.21501
-3.17219
-3.12038
-3.0588
-2.98591
-2.89888
-2.7929
-2.6607
-2.49593
-2.32344
-2.41962
-3.24032
-3.23147
-3.21378
-3.18727
-3.15191
-3.10758
-3.05395
-2.9903
-2.91529
-2.82659
-2.72036
-2.59058
-2.42647
-2.19325
-1.67048
-3.18628
-3.17713
-3.15886
-3.13149
-3.09504
-3.04943
-2.99447
-2.92968
-2.85418
-2.76646
-2.6642
-2.54429
-2.40499
-2.26413
-2.29894
-3.13859
-3.12914
-3.11026
-3.08203
-3.04452
-2.99779
-2.94182
-2.87651
-2.80155
-2.71643
-2.6203
-2.51147
-2.38461
-2.21302
-1.83746
-3.09748
-3.08769
-3.06816
-3.03902
-3.00042
-2.95256
-2.89567
-2.83003
-2.75598
-2.67406
-2.58521
-2.49119
-2.39528
-2.30355
-2.22922
-3.06316
-3.053
-3.03275
-3.00258
-2.96275
-2.9136
-2.8556
-2.78939
-2.71588
-2.63651
-2.55372
-2.47221
-2.40306
-2.38198
-2.56933
-3.03591
-3.02531
-3.00422
-2.97285
-2.93155
-2.88079
-2.82124
-2.75382
-2.67985
-2.60133
-2.52133
-2.44466
-2.37747
-2.31567
-2.14251
-3.01602
-3.00491
-2.98283
-2.95003
-2.90692
-2.85409
-2.79234
-2.72279
-2.647
-2.56718
-2.48665
-2.41052
-2.34813
-2.32668
-2.49241
-3.00384
-2.99214
-2.96889
-2.93437
-2.88905
-2.83358
-2.76887
-2.69611
-2.61693
-2.53354
-2.4489
-2.36684
-2.29037
-2.20771
-1.98693
-2.99979
-2.9874
-2.96277
-2.92621
-2.87822
-2.8195
-2.75098
-2.67388
-2.5898
-2.50075
-2.40938
-2.31928
-2.23691
-2.18465
-2.29856
-3.00435
-2.99116
-2.96493
-2.92599
-2.87486
-2.81223
-2.73905
-2.65652
-2.56611
-2.46959
-2.36897
-2.26635
-2.16255
-2.04617
-1.80492
-3.01807
-3.00397
-2.97592
-2.93425
-2.87947
-2.81228
-2.73362
-2.64462
-2.54667
-2.44127
-2.32996
-2.21424
-2.09692
-1.99443
-2.02805
-3.04159
-3.02647
-2.99637
-2.95161
-2.8927
-2.82031
-2.73536
-2.63896
-2.5324
-2.41705
-2.29401
-2.16325
-2.02099
-1.84815
-1.54433
-3.07562
-3.05937
-3.02699
-2.97881
-2.91528
-2.83708
-2.74506
-2.64034
-2.52424
-2.39818
-2.26342
-2.12025
-1.9663
-1.79282
-1.57978
-3.12095
-3.10345
-3.0686
-3.01667
-2.94807
-2.86343
-2.76358
-2.64963
-2.52299
-2.38536
-2.23867
-2.08473
-1.92517
-1.76496
-1.64692
-3.17842
-3.1596
-3.12208
-3.06609
-2.992
-2.90034
-2.7919
-2.66774
-2.52937
-2.37884
-2.21895
-2.05313
-1.88449
-1.70781
-1.45243
-3.24895
-3.22874
-3.18839
-3.12809
-3.04812
-2.94892
-2.83113
-2.69572
-2.54418
-2.37884
-2.20333
-2.02349
-1.84938
-1.70532
-1.70212
-3.33353
-3.31186
-3.26856
-3.20375
-3.1176
-3.0104
-2.88259
-2.7349
-2.56859
-2.38589
-2.19074
-1.98988
-1.79342
-1.60499
-1.32802
-3.43316
-3.40999
-3.36367
-3.29423
-3.20171
-3.08621
-2.94786
-2.78701
-2.60438
-2.4016
-2.1821
-1.95322
-1.73187
-1.56615
-1.6438
-3.54889
-3.52421
-3.47484
-3.40073
-3.30179
-3.17787
-3.02877
-2.85424
-2.65418
-2.42892
-2.17997
-1.91133
-1.63169
-1.3583
-1.13125
-3.68175
-3.65558
-3.60319
-3.52447
-3.41921
-3.28703
-3.12733
-2.93921
-2.72147
-2.47268
-2.19151
-1.87709
-1.52718
-1.11826
-0.46101
-3.83278
-3.80515
-3.74982
-3.66665
-3.55532
-3.41529
-3.24562
-3.04476
-2.81033
-2.53894
-2.22615
-1.86751
-1.46363
-1.05068
-0.913502
-4.00301
-3.97396
-3.9158
-3.82838
-3.71137
-3.56415
-3.38557
-3.17361
-2.92487
-2.63394
-2.29264
-1.88933
-1.40639
-0.791597
0.30846
-4.19341
-4.16299
-4.1021
-4.01065
-3.8884
-3.7348
-3.54871
-3.32799
-3.0687
-2.76392
-2.40218
-1.96644
-1.44072
-0.869496
-0.777169
-4.40495
-4.37316
-4.30962
-4.21432
-4.08721
-3.92799
-3.7359
-3.50917
-3.24412
-2.93345
-2.56313
-2.10606
-1.50664
-0.614828
1.27287
-4.63856
-4.6054
-4.53919
-4.44008
-4.3083
-4.14402
-3.94715
-3.71696
-3.45121
-3.14442
-2.78431
-2.34452
-1.7756
-1.05174
-0.852289
-4.89519
-4.8606
-4.7916
-4.68854
-4.55198
-4.38268
-4.18155
-3.94946
-3.6868
-3.39243
-3.06082
-2.67267
-2.15217
-1.12449
2.64718
-5.17585
-5.1397
-5.06766
-4.96025
-4.81838
-4.64344
-4.43744
-4.20317
-3.94442
-3.66629
-3.3766
-3.09273
-2.88094
-3.10278
-6.05806
-5.48161
-5.44373
-5.36828
-5.2559
-5.10776
-4.92578
-4.71296
-4.4739
-4.21549
-3.94817
-3.68834
-3.46273
-3.30859
-3.18283
-1.99164
-5.81366
-5.77386
-5.69455
-5.57639
-5.42064
-5.22952
-5.00671
-4.75807
-4.49275
-4.22486
-3.97631
-3.7831
-3.71654
-4.00276
-5.89802
-6.17336
-6.13144
-6.0478
-5.92297
-5.75808
-5.55529
-5.31839
-5.05381
-4.7718
-4.48812
-4.22586
-4.01552
-3.8795
-3.7053
-2.32051
-6.56217
-6.51798
-6.42965
-6.29738
-6.12186
-5.90472
-5.6493
-5.36166
-5.05202
-4.7365
-4.43934
-4.19634
-4.06898
-4.24852
-5.88287
-6.98167
-6.93519
-6.84201
-6.70182
-6.51453
-6.28075
-6.00259
-5.6848
-5.33631
-4.97213
-4.61522
-4.29686
-4.04533
-3.78145
-2.47866
-7.43344
-7.38482
-7.28701
-7.13898
-6.93949
-6.6876
-6.3834
-6.02925
-5.63149
-5.2027
-4.76432
-4.35098
-4.03025
-4.03583
-5.62353
-7.91898
-7.86862
-7.76689
-7.61186
-7.40084
-7.13077
-6.7989
-6.40399
-5.94824
-5.43994
-4.89605
-4.34078
-3.78858
-3.19151
-2.41716
-8.43949
-8.38809
-8.28379
-8.12363
-7.9032
-7.61685
-7.25817
-6.82098
-6.30147
-5.70188
-5.03568
-4.32844
-3.57806
-2.47031
1.32696
-8.9957
-8.94429
-8.83949
-8.67726
-8.45133
-8.15318
-7.77196
-7.29514
-6.71032
-6.01009
-5.20381
-4.34606
-3.61572
-3.61684
-6.9567
-9.5876
-9.53757
-9.43508
-9.2751
-9.04963
-8.74718
-8.35214
-7.84431
-7.19931
-6.39193
-5.40769
-4.27519
-3.14542
-2.44478
-2.89492
-10.2142
-10.1673
-10.0706
-9.91843
-9.70139
-9.40548
-9.01065
-8.48874
-7.80106
-6.89659
-5.71454
-4.20243
-2.37712
-0.473575
0.854267
-10.8735
-10.8315
-10.7447
-10.6068
-10.4079
-10.1325
-9.75741
-9.24829
-8.55337
-7.59402
-6.2506
-4.34717
-1.66314
1.89743
5.52558
-11.5619
-11.5269
-11.4541
-11.3376
-11.1676
-10.9287
-10.5973
-10.1369
-9.4893
-8.55817
-7.17555
-5.03399
-1.55787
4.22149
12.7164
-12.2747
-12.2485
-12.1939
-12.1056
-11.9751
-11.7891
-11.5267
-11.1554
-10.6221
-9.83586
-8.62754
-6.6476
-3.05206
4.65972
25.8066
-146.467
-88.0186
-61.5411
-48.8905
-42.1157
-38.0706
-35.4435
-33.633
-32.3358
-31.3856
-30.6854
-30.1757
-29.8192
-29.5928
-29.4827
-182.17
-82.3632
-54.6713
-43.9957
-38.6413
-35.4616
-33.3701
-31.9053
-30.8399
-30.0497
-29.4614
-29.0298
-28.7262
-28.5327
-28.4384
46.8992
-26.6279
-35.9848
-35.4057
-33.6567
-32.097
-30.8615
-29.9003
-29.1531
-28.5735
-28.1285
-27.795
-27.5569
-27.4036
-27.3286
-7.05402
-15.4553
-24.1983
-27.6281
-28.5405
-28.5072
-28.1623
-27.7466
-27.3498
-27.0039
-26.7182
-26.4938
-26.3287
-26.2203
-26.1666
25.8937
-4.04524
-16.1016
-21.5986
-24.0812
-25.1338
-25.5124
-25.5798
-25.5112
-25.3923
-25.2654
-25.1516
-25.0611
-24.9989
-24.9674
-1.43446
-5.05367
-12.56
-17.6624
-20.6149
-22.2284
-23.0787
-23.5075
-23.7076
-23.7863
-23.8036
-23.793
-23.7738
-23.7563
-23.7464
11.4448
-3.36272
-10.6878
-15.2191
-18.0786
-19.8529
-20.9376
-21.594
-21.9883
-22.223
-22.361
-22.4406
-22.4852
-22.5085
-22.5184
-3.08705
-6.86788
-10.7557
-13.9368
-16.2959
-17.9565
-19.0938
-19.8627
-20.3798
-20.7268
-20.959
-21.1126
-21.2113
-21.27
-21.2973
-14.9933
-10.2987
-11.3145
-13.2252
-14.9983
-16.4234
-17.5059
-18.3061