/*--------------------------------*- C++ -*----------------------------------*\
| =========                 |                                                 |
| \\      /  F ield         | OpenFOAM: The Open Source CFD Toolbox           |
|  \\    /   O peration     | Version:  5.x                                   |
|   \\  /    A nd           | Web:      www.OpenFOAM.org                      |
|    \\/     M anipulation  |                                                 |
\*---------------------------------------------------------------------------*/
FoamFile
{
    version     2.0;
    format      ascii;
    class       volScalarField;
    location    "4.3";
    object      T;
}
// * * * * * * * * * * * * * * * * * * * * * * * * * * * * * * * * * * * * * //

dimensions      [0 0 0 1 0 0 0];

internalField   nonuniform List<scalar> 
3200
(
2.08489
2.43608
2.45611
2.60096
2.61014
2.68245
2.68726
2.72911
2.73198
2.75848
2.76024
2.77555
2.7769
2.79361
2.79497
2.81091
2.81219
2.82686
2.82802
2.84128
2.84233
2.85416
2.85509
2.86554
2.86636
2.87557
2.8763
2.88458
2.88531
2.8941
2.9018
2.90235
2.90733
2.9077
2.91151
2.91179
2.91484
2.91507
2.91755
2.91774
2.91976
2.91991
2.92156
2.92168
2.92301
2.92311
2.92417
2.92424
2.92503
2.92508
2.92556
2.9256
2.92607
2.9261
2.92647
2.92649
2.92669
2.9267
2.92667
2.92665
2.92629
2.92623
2.92534
2.92523
2.92342
2.9232
2.91961
2.91911
2.91121
2.90982
2.88735
2.84813
2.84376
2.78001
2.7725
2.65326
2.64831
2.64768
2.64755
2.64753
2.26037
2.52907
2.57092
2.6868
2.70637
2.7642
2.77447
2.80782
2.81393
2.83499
2.83874
2.85101
2.85388
2.8671
2.86998
2.88261
2.88532
2.89694
2.89941
2.90992
2.91214
2.92152
2.92349
2.93177
2.93351
2.94081
2.94237
2.94896
2.95053
2.9578
2.96427
2.96546
2.96944
2.97022
2.97325
2.97385
2.97627
2.97676
2.97872
2.97912
2.98073
2.98105
2.98236
2.98262
2.98368
2.98389
2.98472
2.98489
2.98551
2.98562
2.986
2.98608
2.98646
2.98653
2.98682
2.98687
2.98703
2.98704
2.98702
2.98698
2.98669
2.98658
2.98586
2.98562
2.98418
2.98369
2.98081
2.97975
2.97331
2.97025
2.95062
2.91852
2.90916
2.85835
2.84254
2.7499
2.73945
2.73772
2.73736
2.73728
2.4251
2.63113
2.68277
2.7765
2.80108
2.84786
2.86075
2.88763
2.89528
2.9122
2.91689
2.92685
2.93044
2.94101
2.94461
2.95471
2.95809
2.96739
2.97048
2.97889
2.98166
2.98917
2.99163
2.99827
3.00044
3.00629
3.00823
3.01353
3.01551
3.02153
3.02695
3.02846
3.03167
3.03266
3.03508
3.03584
3.03778
3.03839
3.03996
3.04046
3.04175
3.04215
3.0432
3.04353
3.04437
3.04464
3.04531
3.04551
3.04601
3.04615
3.04645
3.04656
3.04686
3.04695
3.04718
3.04724
3.04737
3.04739
3.04736
3.04732
3.04708
3.04694
3.04636
3.04606
3.0449
3.04428
3.04194
3.04059
3.03528
3.03135
3.01438
2.98799
2.97622
2.93528
2.91564
2.84325
2.83024
2.82771
2.82716
2.82703
2.58159
2.73936
2.79293
2.86896
2.89491
2.93287
2.94647
2.9682
2.97626
2.98989
2.99484
3.00295
3.00673
3.0152
3.01898
3.02708
3.03063
3.03809
3.04134
3.04808
3.051
3.05702
3.05961
3.06494
3.06722
3.07192
3.07396
3.07824
3.08033
3.08529
3.08979
3.09139
3.09399
3.09503
3.09698
3.09778
3.09934
3.09998
3.10125
3.10177
3.1028
3.10323
3.10407
3.10441
3.10509
3.10537
3.10591
3.10612
3.10652
3.10667
3.10692
3.10703
3.10727
3.10736
3.10755
3.10761
3.10771
3.10773
3.10771
3.10766
3.10747
3.10732
3.10686
3.10654
3.10559
3.10494
3.10304
3.1016
3.09719
3.09296
3.07852
3.05688
3.04444
3.01136
2.99086
2.93424
2.92062
2.91762
2.91693
2.91678
2.73177
2.85176
2.9022
2.96342
2.98825
3.01886
3.03187
3.04932
3.05702
3.06793
3.07266
3.07922
3.08283
3.08957
3.09317
3.09963
3.10301
3.10896
3.11205
3.11743
3.12021
3.12501
3.12748
3.13173
3.13391
3.13765
3.1396
3.14303
3.14504
3.14906
3.15274
3.15429
3.15638
3.15737
3.15893
3.15969
3.16094
3.16155
3.16256
3.16306
3.16388
3.16429
3.16496
3.16529
3.16583
3.16609
3.16652
3.16672
3.16704
3.16718
3.16738
3.16749
3.16768
3.16777
3.16792
3.16798
3.16806
3.16808
3.16806
3.16802
3.16786
3.16772
3.16734
3.16704
3.16628
3.16565
3.16411
3.16272
3.15909
3.15499
3.14295
3.12539
3.11349
3.08694
3.06752
3.0235
3.01057
3.00743
3.00669
3.00652
2.87715
2.96694
3.01103
3.05934
3.08136
3.10555
3.11708
3.13084
3.13765
3.14622
3.15041
3.1556
3.1588
3.16407
3.16725
3.1723
3.17529
3.17994
3.18267
3.18688
3.18934
3.1931
3.19528
3.1986
3.20053
3.20346
3.20519
3.20788
3.20966
3.21285
3.21578
3.21716
3.21881
3.21968
3.22091
3.22158
3.22256
3.2231
3.22389
3.22433
3.22497
3.22533
3.22586
3.22615
3.22658
3.22681
3.22714
3.22732
3.22757
3.2277
3.22786
3.22795
3.2281
3.22818
3.22829
3.22835
3.22841
3.22843
3.22841
3.22837
3.22825
3.22812
3.22783
3.22755
3.22695
3.2264
3.22517
3.22394
3.22101
3.21733
3.2076
3.19369
3.18313
3.16224
3.14516
3.11151
3.10013
3.09715
3.09642
3.09626
3.01894
3.08395
3.1197
3.15631
3.17438
3.19275
3.20221
3.21263
3.21821
3.22468
3.22812
3.23207
3.23469
3.23865
3.24125
3.24505
3.2475
3.251
3.25324
3.25641
3.25841
3.26125
3.26303
3.26553
3.26711
3.26932
3.27073
3.27277
3.27423
3.27665
3.27889
3.28002
3.28127
3.28199
3.28291
3.28346
3.2842
3.28464
3.28524
3.2856
3.28608
3.28638
3.28677
3.28701
3.28733
3.28752
3.28777
3.28792
3.28811
3.28821
3.28833
3.28841
3.28852
3.28858
3.28867
3.28872
3.28876
3.28877
3.28876
3.28873
3.28864
3.28853
3.28831
3.28809
3.28763
3.28718
3.28624
3.28522
3.28296
3.27991
3.27242
3.26185
3.25318
3.23738
3.22347
3.19864
3.18935
3.18678
3.18613
3.18599
3.15813
3.20213
3.22833
3.25402
3.26739
3.2803
3.2873
3.29461
3.29874
3.30327
3.30581
3.30859
3.31052
3.31329
3.31521
3.31786
3.31967
3.32211
3.32376
3.32598
3.32746
3.32944
3.33075
3.3325
3.33366
3.33521
3.33625
3.33768
3.33876
3.34046
3.34203
3.34287
3.34375
3.34428
3.34493
3.34533
3.34585
3.34617
3.34659
3.34686
3.3472
3.34741
3.34769
3.34787
3.34809
3.34823
3.34841
3.34852
3.34865
3.34872
3.34881
3.34886
3.34894
3.34899
3.34905
3.34908
3.34911
3.34912
3.34912
3.34909
3.34903
3.34895
3.34879
3.34863
3.34831
3.34797
3.34731
3.34655
3.34495
3.34267
3.33736
3.32993
3.32352
3.31244
3.30221
3.28515
3.2783
3.27633
3.27583
3.27571
3.29555
3.32103
3.33698
3.35222
3.36042
3.36809
3.37238
3.37672
3.37925
3.38193
3.38349
3.38514
3.38633
3.38796
3.38914
3.39071
3.39181
3.39326
3.39427
3.39558
3.39648
3.39765
3.39846
3.39949
3.4002
3.40112
3.40176
3.4026
3.40326
3.40428
3.40521
3.40572
3.40624
3.40657
3.40695
3.4072
3.40751
3.40771
3.40795
3.40812
3.40832
3.40845
3.40861
3.40872
3.40885
3.40894
3.40904
3.40911
3.40919
3.40923
3.40928
3.40932
3.40936
3.40939
3.40943
3.40945
3.40947
3.40947
3.40947
3.40945
3.40942
3.40937
3.40928
3.40917
3.40898
3.40878
3.40838
3.40792
3.40696
3.40556
3.40238
3.39797
3.39404
3.38747
3.38123
3.37124
3.36706
3.36582
3.3655
3.36543
3.43196
3.4403
3.44565
3.45071
3.45347
3.45602
3.45746
3.4589
3.45975
3.46064
3.46116
3.46171
3.46211
3.46265
3.46305
3.46357
3.46394
3.46442
3.46476
3.46519
3.46549
3.46588
3.46615
3.4665
3.46674
3.46704
3.46725
3.46753
3.46776
3.46809
3.4684
3.46857
3.46875
3.46886
3.46898
3.46907
3.46917
3.46924
3.46932
3.46937
3.46944
3.46948
3.46954
3.46957
3.46962
3.46965
3.46968
3.4697
3.46973
3.46974
3.46976
3.46977
3.46979
3.4698
3.46981
3.46982
3.46982
3.46982
3.46982
3.46982
3.46981
3.46979
3.46976
3.46972
3.46966
3.46959
3.46946
3.4693
3.46898
3.46851
3.46746
3.46599
3.46467
3.46249
3.46039
3.45711
3.4557
3.45528
3.45517
3.45514
3.4314
3.44031
3.44649
3.45315
3.45723
3.46167
3.4645
3.46775
3.46984
3.47223
3.47371
3.47533
3.47653
3.47816
3.47935
3.48089
3.48199
3.48339
3.48436
3.48559
3.48645
3.48753
3.48827
3.48921
3.48987
3.49069
3.49127
3.49204
3.49265
3.49358
3.49445
3.49495
3.49545
3.49578
3.49617
3.49643
3.49675
3.49696
3.49723
3.49742
3.49764
3.4978
3.49799
3.49812
3.49829
3.4984
3.49853
3.49862
3.49872
3.49879
3.49886
3.49892
3.49899
3.49905
3.49912
3.49917
3.49923
3.49928
3.49934
3.49938
3.49943
3.49946
3.4995
3.49953
3.49956
3.49958
3.49959
3.49957
3.49949
3.49932
3.49887
3.49814
3.49735
3.49592
3.4944
3.49187
3.49079
3.49046
3.49038
3.49036
3.29385
3.32104
3.33944
3.35956
3.37168
3.38508
3.39349
3.40328
3.40949
3.41673
3.42112
3.42601
3.42956
3.4345
3.43802
3.4427
3.44595
3.45017
3.45308
3.4568
3.45934
3.4626
3.46482
3.46765
3.46959
3.47207
3.47381
3.47612
3.47794
3.48075
3.48337
3.48484
3.48637
3.48734
3.48851
3.48928
3.49025
3.49089
3.4917
3.49225
3.49294
3.4934
3.49398
3.49437
3.49486
3.49519
3.49559
3.49586
3.49618
3.49637
3.49659
3.49675
3.49698
3.49714
3.49736
3.49751
3.4977
3.49784
3.49801
3.49813
3.49828
3.49838
3.49851
3.49859
3.49868
3.49873
3.49876
3.4987
3.49849
3.49797
3.49661
3.49441
3.49209
3.48777
3.48324
3.47556
3.47233
3.47138
3.47113
3.47107
3.15522
3.20213
3.23233
3.26628
3.28609
3.30869
3.32242
3.33896
3.34911
3.36135
3.36852
3.37674
3.38255
3.39089
3.39665
3.40456
3.40988
3.41701
3.42176
3.42805
3.43221
3.43771
3.44133
3.44612
3.44929
3.45349
3.45633
3.46022
3.46319
3.46792
3.47234
3.47474
3.47731
3.4789
3.48087
3.48213
3.48376
3.48481
3.48618
3.48707
3.48823
3.48899
3.48997
3.49061
3.49144
3.49198
3.49266
3.49309
3.49363
3.49395
3.49432
3.49458
3.49497
3.49523
3.4956
3.49584
3.49617
3.49639
3.49669
3.49688
3.49713
3.4973
3.49751
3.49764
3.49781
3.49789
3.49793
3.49785
3.49749
3.49666
3.49439
3.49069
3.4869
3.47963
3.4722
3.45907
3.45379
3.45227
3.45188
3.45179
3.0147
3.08388
3.12506
3.17358
3.20037
3.23265
3.25124
3.2749
3.28864
3.30617
3.31587
3.32757
3.33543
3.34739
3.35519
3.36653
3.37374
3.38395
3.39038
3.39938
3.40502
3.41289
3.41781
3.42466
3.42895
3.43496
3.4388
3.44435
3.44837
3.45511
3.46139
3.46462
3.46829
3.47043
3.47325
3.47496
3.47729
3.47872
3.48068
3.48189
3.48355
3.48458
3.48598
3.48685
3.48804
3.48876
3.48974
3.49033
3.49109
3.49153
3.49205
3.49241
3.49296
3.49332
3.49384
3.49418
3.49465
3.49495
3.49537
3.49563
3.49599
3.49621
3.49652
3.4967
3.49693
3.49704
3.49711
3.497
3.49651
3.49541
3.49223
3.48697
3.48186
3.4715
3.46139
3.44227
3.43509
3.43311
3.43261
3.4325
2.87142
2.96675
3.01751
3.08174
3.11444
3.15717
3.17986
3.21123
3.22802
3.2513
3.26314
3.27856
3.28814
3.30405
3.31359
3.32866
3.33747
3.35104
3.35889
3.37085
3.37774
3.38819
3.3942
3.4033
3.40854
3.41652
3.42121
3.42855
3.43345
3.44231
3.45056
3.45449
3.45933
3.46195
3.46568
3.46777
3.47086
3.47261
3.47521
3.47669
3.47889
3.48014
3.48201
3.48307
3.48465
3.48553
3.48683
3.48755
3.48857
3.4891
3.48979
3.49023
3.49096
3.4914
3.49209
3.4925
3.49313
3.4935
3.49405
3.49437
3.49485
3.49513
3.49553
3.49575
3.49607
3.4962
3.4963
3.49617
3.49556
3.49423
3.49015
3.48324
3.47702
3.46336
3.45094
3.42499
3.41619
3.41389
3.41333
3.4132
2.72433
2.85141
2.90941
2.99116
3.02811
3.08248
3.10813
3.14815
3.16715
3.19689
3.21027
3.22978
3.2406
3.26097
3.27177
3.29104
3.30101
3.31835
3.32724
3.34253
3.35032
3.36367
3.37047
3.38209
3.38803
3.39821
3.40351
3.41284
3.41836
3.42954
3.43991
3.44432
3.45045
3.45341
3.45817
3.46054
3.46448
3.46646
3.46978
3.47146
3.47427
3.47569
3.47808
3.47927
3.48128
3.48229
3.48395
3.48476
3.48607
3.48666
3.48755
3.48804
3.48897
3.48947
3.49036
3.49082
3.49162
3.49204
3.49275
3.49311
3.49372
3.49403
3.49455
3.49481
3.4952
3.49536
3.4955
3.49536
3.49464
3.49317
3.48819
3.47949
3.47248
3.45517
3.44103
3.40703
3.39703
3.3946
3.39403
3.3939
2.57215
2.73882
2.80036
2.90237
2.94108
3.00894
3.03583
3.08591
3.10584
3.14313
3.15715
3.18134
3.19268
3.21827
3.22962
3.25379
3.26426
3.28601
3.29534
3.3145
3.32268
3.33941
3.34655
3.36111
3.36734
3.38009
3.38565
3.39729
3.40304
3.4168
3.42949
3.43408
3.44171
3.44481
3.45076
3.45325
3.45818
3.46026
3.46442
3.46618
3.46971
3.47119
3.47418
3.47544
3.47796
3.47902
3.4811
3.48195
3.4836
3.48422
3.48531
3.48583
3.487
3.48752
3.48864
3.48912
3.49013
3.49057
3.49146
3.49183
3.49261
3.49293
3.49359
3.49385
3.49435
3.49451
3.49471
3.49457
3.49374
3.49225
3.48637
3.47567
3.46835
3.44685
3.43191
3.3881
3.37756
3.37524
3.37471
3.3746
2.41331
2.63044
2.6897
2.81612
2.85288
2.93704
2.96259
3.02487
3.04383
3.09031
3.10362
3.13342
3.14419
3.17613
3.18695
3.21709
3.22706
3.25416
3.26304
3.28691
3.2947
3.31553
3.32233
3.34046
3.34639
3.36226
3.36755
3.38197
3.38741
3.4041
3.41939
3.42372
3.43314
3.43608
3.44349
3.44585
3.452
3.45397
3.45916
3.46083
3.46522
3.46664
3.47036
3.47156
3.4747
3.4757
3.4783
3.47911
3.48116
3.48175
3.4831
3.48359
3.48506
3.48555
3.48695
3.48741
3.48866
3.48908
3.49018
3.49055
3.49151
3.49182
3.49263
3.49288
3.49352
3.49367
3.49393
3.49381
3.49287
3.4915
3.48474
3.47172
3.46479
3.43827
3.42395
3.36785
3.35777
3.35581
3.35538
3.35529
2.24577
2.52838
2.57634
2.73345
2.76279
2.86748
2.88789
2.96556
2.98073
3.03881
3.04944
3.08625
3.09486
3.13484
3.1435
3.18119
3.18917
3.22303
3.23014
3.25996
3.26619
3.29222
3.29765
3.3203
3.32504
3.34485
3.34907
3.36701
3.37133
3.39146
3.40974
3.41315
3.42484
3.42719
3.43642
3.43831
3.44598
3.44756
3.45403
3.45537
3.46086
3.46199
3.46664
3.4676
3.47152
3.47232
3.47558
3.47623
3.47879
3.47926
3.48092
3.48132
3.48315
3.48355
3.48529
3.48566
3.48723
3.48756
3.48894
3.48923
3.49043
3.49068
3.4917
3.4919
3.4927
3.49282
3.49317
3.49308
3.49202
3.49097
3.48337
3.46752
3.46202
3.4292
3.41767
3.34575
3.33765
3.33631
3.33603
3.33597
2.06694
2.4357
2.45862
2.65589
2.66969
2.80129
2.8109
2.90876
2.9159
2.98921
2.99421
3.04022
3.04427
3.09481
3.09889
3.14648
3.15025
3.19298
3.19633
3.23395
3.23689
3.26973
3.27229
3.30086
3.30309
3.32807
3.33005
3.3526
3.35461
3.37889
3.40068
3.40226
3.41691
3.41801
3.42964
3.43053
3.44021
3.44095
3.44912
3.44974
3.45667
3.4572
3.46307
3.46352
3.46847
3.46885
3.47295
3.47326
3.47649
3.47672
3.4788
3.47898
3.4813
3.48149
3.48369
3.48386
3.48584
3.486
3.48775
3.48788
3.4894
3.48952
3.4908
3.4909
3.49191
3.49197
3.49243
3.49239
3.49117
3.49071
3.48233
3.4629
3.46033
3.41927
3.41379
3.3211
3.31726
3.31678
3.31668
3.31666
2.06694
2.4357
2.45862
2.65589
2.66968
2.80129
2.81089
2.90876
2.9159
2.9892
2.99421
3.04022
3.04426
3.09481
3.09889
3.14648
3.15025
3.19298
3.19633
3.23395
3.23689
3.26973
3.27229
3.30086
3.30309
3.32807
3.33005
3.3526
3.35461
3.37889
3.40067
3.40226
3.41691
3.41801
3.42964
3.43053
3.44021
3.44095
3.44911
3.44974
3.45667
3.4572
3.46307
3.46352
3.46847
3.46885
3.47295
3.47326
3.47649
3.47672
3.4788
3.47898
3.4813
3.48149
3.48369
3.48386
3.48584
3.486
3.48775
3.48788
3.4894
3.48952
3.4908
3.4909
3.49191
3.49197
3.49243
3.49239
3.49117
3.49071
3.48233
3.4629
3.46033
3.41927
3.41379
3.3211
3.31726
3.31677
3.31667
3.31665
2.24577
2.52838
2.57634
2.73345
2.76279
2.86748
2.88789
2.96556
2.98073
3.03881
3.04944
3.08625
3.09486
3.13484
3.1435
3.18119
3.18917
3.22303
3.23014
3.25996
3.26619
3.29222
3.29765
3.3203
3.32504
3.34485
3.34907
3.36701
3.37133
3.39146
3.40974
3.41315
3.42484
3.42718
3.43642
3.43831
3.44598
3.44756
3.45403
3.45537
3.46086
3.46199
3.46664
3.4676
3.47152
3.47232
3.47558
3.47623
3.47879
3.47926
3.48092
3.48132
3.48315
3.48355
3.48529
3.48566
3.48723
3.48756
3.48894
3.48923
3.49043
3.49068
3.4917
3.4919
3.4927
3.49282
3.49317
3.49308
3.49202
3.49097
3.48337
3.46752
3.46201
3.42919
3.41766
3.34575
3.33765
3.33631
3.33603
3.33597
2.4133
2.63044
2.6897
2.81612
2.85288
2.93703
2.96259
3.02487
3.04383
3.09031
3.10362
3.13342
3.14419
3.17613
3.18694
3.21709
3.22706
3.25416
3.26304
3.28691
3.2947
3.31553
3.32233
3.34046
3.34639
3.36226
3.36754
3.38197
3.38741
3.4041
3.41939
3.42372
3.43314
3.43608
3.44349
3.44585
3.452
3.45397
3.45916
3.46083
3.46522
3.46664
3.47036
3.47156
3.4747
3.4757
3.4783
3.47911
3.48116
3.48175
3.4831
3.48359
3.48506
3.48555
3.48695
3.48741
3.48866
3.48908
3.49018
3.49055
3.49151
3.49182
3.49263
3.49288
3.49352
3.49367
3.49393
3.49381
3.49287
3.4915
3.48474
3.47172
3.46479
3.43826
3.42395
3.36784
3.35777
3.3558
3.35538
3.35528
2.57215
2.73882
2.80036
2.90237
2.94108
3.00894
3.03582
3.08591
3.10584
3.14313
3.15715
3.18134
3.19268
3.21826
3.22962
3.25379
3.26426
3.28601
3.29534
3.3145
3.32268
3.33941
3.34655
3.36111
3.36734
3.38009
3.38565
3.39729
3.40304
3.4168
3.42949
3.43408
3.44171
3.44481
3.45076
3.45325
3.45818
3.46026
3.46442
3.46618
3.46971
3.47119
3.47418
3.47544
3.47796
3.47902
3.4811
3.48195
3.4836
3.48422
3.48531
3.48583
3.487
3.48752
3.48864
3.48912
3.49013
3.49057
3.49146
3.49183
3.49261
3.49293
3.49359
3.49385
3.49435
3.49451
3.49471
3.49457
3.49374
3.49225
3.48637
3.47567
3.46835
3.44685
3.43191
3.3881
3.37756
3.37524
3.37471
3.37459
2.72433
2.8514
2.90941
2.99116
3.02811
3.08248
3.10813
3.14815
3.16715
3.19689
3.21027
3.22977
3.2406
3.26097
3.27177
3.29104
3.30101
3.31835
3.32724
3.34252
3.35032
3.36367
3.37047
3.38209
3.38802
3.39821
3.40351
3.41284
3.41836
3.42954
3.43991
3.44432
3.45045
3.45341
3.45817
3.46054
3.46448
3.46646
3.46978
3.47146
3.47427
3.47569
3.47808
3.47927
3.48128
3.48229
3.48395
3.48476
3.48607
3.48666
3.48755
3.48804
3.48897
3.48947
3.49036
3.49082
3.49162
3.49204
3.49275
3.49311
3.49372
3.49403
3.49455
3.49481
3.4952
3.49536
3.4955
3.49536
3.49464
3.49317
3.48819
3.47949
3.47248
3.45517
3.44103
3.40703
3.39703
3.3946
3.39403
3.3939
2.87142
2.96675
3.01751
3.08174
3.11444
3.15716
3.17986
3.21123
3.22802
3.2513
3.26314
3.27856
3.28814
3.30405
3.31359
3.32866
3.33747
3.35104
3.35889
3.37085
3.37774
3.38819
3.3942
3.4033
3.40854
3.41652
3.42121
3.42855
3.43345
3.44231
3.45056
3.45449
3.45933
3.46195
3.46568
3.46777
3.47086
3.47261
3.47521
3.47669
3.47889
3.48014
3.48201
3.48307
3.48465
3.48553
3.48683
3.48755
3.48857
3.4891
3.48979
3.49023
3.49096
3.4914
3.49209
3.4925
3.49313
3.4935
3.49405
3.49437
3.49485
3.49513
3.49553
3.49575
3.49607
3.4962
3.4963
3.49617
3.49556
3.49423
3.49015
3.48324
3.47702
3.46336
3.45094
3.42499
3.41619
3.41389
3.41333
3.4132
3.0147
3.08388
3.12506
3.17358
3.20037
3.23265
3.25124
3.2749
3.28864
3.30617
3.31587
3.32757
3.33543
3.34739
3.35519
3.36653
3.37374
3.38395
3.39038
3.39938
3.40502
3.41289
3.41781
3.42466
3.42895
3.43496
3.4388
3.44435
3.44837
3.45511
3.46139
3.46462
3.46829
3.47043
3.47325
3.47496
3.47729
3.47872
3.48068
3.48189
3.48355
3.48458
3.48598
3.48685
3.48803
3.48876
3.48974
3.49033
3.49109
3.49153
3.49205
3.49241
3.49296
3.49332
3.49384
3.49418
3.49465
3.49495
3.49537
3.49563
3.49599
3.49621
3.49652
3.4967
3.49693
3.49704
3.49711
3.497
3.49651
3.49541
3.49223
3.48697
3.48186
3.4715
3.46139
3.44227
3.43509
3.43311
3.43261
3.4325
3.15522
3.20213
3.23233
3.26628
3.28608
3.30869
3.32242
3.33896
3.34911
3.36135
3.36852
3.37674
3.38255
3.39089
3.39665
3.40456
3.40988
3.41701
3.42176
3.42805
3.43221
3.4377
3.44133
3.44612
3.44929
3.45349
3.45633
3.46022
3.46319
3.46792
3.47234
3.47473
3.47731
3.4789
3.48087
3.48213
3.48376
3.48481
3.48618
3.48707
3.48823
3.48899
3.48997
3.49061
3.49144
3.49198
3.49266
3.49309
3.49363
3.49395
3.49432
3.49458
3.49497
3.49523
3.4956
3.49584
3.49617
3.49639
3.49669
3.49688
3.49713
3.4973
3.49751
3.49764
3.49781
3.49788
3.49793
3.49785
3.49749
3.49666
3.49439
3.49069
3.4869
3.47963
3.4722
3.45907
3.45379
3.45226
3.45188
3.45179
3.29385
3.32104
3.33944
3.35956
3.37168
3.38508
3.39349
3.40328
3.40949
3.41673
3.42112
3.42601
3.42956
3.4345
3.43802
3.4427
3.44595
3.45017
3.45308
3.4568
3.45934
3.4626
3.46482
3.46765
3.46959
3.47207
3.47381
3.47612
3.47794
3.48075
3.48337
3.48484
3.48637
3.48734
3.48851
3.48928
3.49025
3.49089
3.4917
3.49225
3.49294
3.4934
3.49398
3.49437
3.49486
3.49519
3.49559
3.49586
3.49618
3.49637
3.49659
3.49675
3.49698
3.49714
3.49736
3.49751
3.4977
3.49784
3.49801
3.49813
3.49828
3.49838
3.49851
3.49859
3.49868
3.49873
3.49876
3.4987
3.49849
3.49797
3.49661
3.49441
3.49209
3.48777
3.48324
3.47556
3.47233
3.47138
3.47113
3.47107
3.4314
3.44031
3.44649
3.45315
3.45723
3.46167
3.4645
3.46775
3.46984
3.47223
3.47371
3.47533
3.47653
3.47816
3.47934
3.48089
3.48199
3.48339
3.48436
3.48559
3.48645
3.48753
3.48827
3.48921
3.48987
3.49069
3.49127
3.49204
3.49265
3.49358
3.49445
3.49495
3.49545
3.49578
3.49617
3.49643
3.49675
3.49696
3.49723
3.49742
3.49764
3.4978
3.49799
3.49812
3.49829
3.4984
3.49853
3.49862
3.49872
3.49879
3.49886
3.49892
3.49899
3.49905
3.49912
3.49917
3.49923
3.49928
3.49934
3.49938
3.49943
3.49946
3.4995
3.49953
3.49956
3.49958
3.49959
3.49957
3.49949
3.49932
3.49887
3.49814
3.49735
3.49592
3.4944
3.49187
3.49079
3.49046
3.49038
3.49036
3.43195
3.44028
3.44562
3.45066
3.4534
3.4559
3.4573
3.45865
3.45941
3.46015
3.46067
3.46134
3.46182
3.46244
3.46288
3.46344
3.46383
3.46433
3.46469
3.46513
3.46544
3.46584
3.46612
3.46646
3.46671
3.46701
3.46723
3.46751
3.46774
3.46808
3.46839
3.46856
3.46874
3.46885
3.46898
3.46906
3.46916
3.46923
3.46931
3.46937
3.46943
3.46948
3.46953
3.46957
3.46961
3.46964
3.46968
3.4697
3.46973
3.46974
3.46976
3.46977
3.46979
3.4698
3.46981
3.46982
3.46982
3.46982
3.46982
3.46982
3.4698
3.46979
3.46976
3.46972
3.46966
3.46959
3.46946
3.4693
3.46898
3.46851
3.46745
3.46599
3.46467
3.46249
3.46039
3.45711
3.4557
3.45528
3.45517
3.45514
3.2955
3.32095
3.33687
3.35207
3.3602
3.36775
3.37191
3.37598
3.37823
3.38046
3.382
3.38404
3.38547
3.38734
3.38864
3.39033
3.3915
3.39301
3.39405
3.3954
3.39633
3.39752
3.39834
3.39939
3.40012
3.40104
3.40169
3.40254
3.40321
3.40423
3.40517
3.40569
3.40622
3.40655
3.40693
3.40718
3.40749
3.40769
3.40794
3.4081
3.4083
3.40844
3.4086
3.40871
3.40885
3.40893
3.40904
3.4091
3.40918
3.40923
3.40928
3.40931
3.40936
3.40939
3.40943
3.40945
3.40947
3.40947
3.40947
3.40945
3.40941
3.40937
3.40927
3.40917
3.40898
3.40878
3.40838
3.40792
3.40696
3.40556
3.40238
3.39797
3.39404
3.38747
3.38123
3.37124
3.36706
3.36582
3.3655
3.36543
3.15804
3.20201
3.22816
3.25376
3.26703
3.27974
3.28652
3.29338
3.29705
3.3008
3.30331
3.30676
3.3091
3.31226
3.31439
3.31724
3.31915
3.3217
3.32341
3.32569
3.3272
3.32922
3.33056
3.33234
3.33352
3.33508
3.33614
3.33758
3.33867
3.34039
3.34197
3.34282
3.3437
3.34424
3.34489
3.3453
3.34582
3.34615
3.34657
3.34684
3.34718
3.3474
3.34767
3.34785
3.34808
3.34822
3.3484
3.34851
3.34864
3.34871
3.3488
3.34886
3.34893
3.34898
3.34904
3.34908
3.34911
3.34912
3.34911
3.34909
3.34902
3.34895
3.34879
3.34862
3.3483
3.34797
3.34731
3.34655
3.34494
3.34267
3.33736
3.32993
3.32352
3.31244
3.30221
3.28514
3.2783
3.27633
3.27583
3.27571
3.01882
3.08378
3.11946
3.15594
3.17388
3.19196
3.20112
3.21091
3.21587
3.22119
3.22458
3.22952
3.23269
3.23722
3.2401
3.24418
3.24677
3.25043
3.25274
3.256
3.25806
3.26095
3.26276
3.2653
3.2669
3.26914
3.27057
3.27263
3.2741
3.27655
3.2788
3.27994
3.28121
3.28193
3.28286
3.28342
3.28416
3.2846
3.2852
3.28557
3.28606
3.28635
3.28675
3.28699
3.28731
3.28751
3.28776
3.28791
3.2881
3.2882
3.28832
3.2884
3.28851
3.28858
3.28866
3.28871
3.28876
3.28877
3.28876
3.28873
3.28863
3.28853
3.28831
3.28808
3.28763
3.28717
3.28624
3.28522
3.28296
3.27991
3.27242
3.26184
3.25318
3.23738
3.22347
3.19864
3.18935
3.18678
3.18613
3.18599
2.877
2.96672
3.01073
3.05887
3.08072
3.10454
3.1157
3.12863
3.13468
3.14166
3.14579
3.15235
3.15623
3.16225
3.16577
3.17119
3.17435
3.17921
3.18204
3.18637
3.18888
3.19271
3.19493
3.19831
3.20026
3.20323
3.20498
3.2077
3.2095
3.21272
3.21568
3.21706
3.21873
3.21961
3.22085
3.22153
3.22251
3.22305
3.22385
3.22429
3.22494
3.2253
3.22583
3.22613
3.22655
3.22679
3.22713
3.22731
3.22756
3.22768
3.22784
3.22794
3.22809
3.22817
3.22828
3.22834
3.2284
3.22842
3.22841
3.22837
3.22824
3.22812
3.22782
3.22755
3.22695
3.2264
3.22517
3.22394
3.22101
3.21733
3.2076
3.19369
3.18313
3.16223
3.14516
3.11151
3.10013
3.09715
3.09642
3.09626
2.7316
2.85149
2.90184
2.96284
2.98748
3.01762
3.03022
3.04663
3.05344
3.06224
3.0669
3.0753
3.07968
3.08738
3.09136
3.09829
3.10187
3.10807
3.11127
3.1168
3.11965
3.12455
3.12706
3.13137
3.13358
3.13738
3.13935
3.14281
3.14484
3.1489
3.15262
3.15417
3.15628
3.15728
3.15885
3.15962
3.16087
3.16149
3.16251
3.16301
3.16384
3.16425
3.16492
3.16526
3.1658
3.16607
3.1665
3.1667
3.16703
3.16717
3.16737
3.16748
3.16767
3.16776
3.16791
3.16797
3.16805
3.16807
3.16805
3.16801
3.16786
3.16771
3.16734
3.16703
3.16627
3.16565
3.1641
3.16272
3.15909
3.15499
3.14295
3.12539
3.11349
3.08694
3.06752
3.0235
3.01057
3.00743
3.00669
3.00652
2.58139
2.73904
2.79252
2.86827
2.89403
2.93141
2.94457
2.96501
2.97213
2.98299
2.98787
2.9984
3.003
3.01265
3.01683
3.02552
3.02927
3.03705
3.04041
3.04735
3.05033
3.05648
3.05911
3.06452
3.06684
3.07159
3.07366
3.07798
3.08009
3.0851
3.08964
3.09126
3.09388
3.09492
3.09689
3.0977
3.09927
3.09991
3.10119
3.10171
3.10275
3.10318
3.10403
3.10438
3.10506
3.10534
3.10588
3.1061
3.1065
3.10665
3.1069
3.10701
3.10725
3.10735
3.10753
3.1076
3.1077
3.10772
3.1077
3.10766
3.10747
3.10732
3.10685
3.10653
3.10559
3.10494
3.10303
3.1016
3.09718
3.09296
3.07852
3.05687
3.04444
3.01136
2.99086
2.93423
2.92062
2.91761
2.91693
2.91678
2.42488
2.63075
2.68231
2.7757
2.80011
2.84616
2.85864
2.88392
2.89067
2.90398
2.9086
2.92174
2.92612
2.93815
2.94213
2.95295
2.95652
2.96621
2.96941
2.97805
2.98089
2.98855
2.99105
2.99779
2.99999
3.00591
3.00788
3.01324
3.01523
3.02131
3.02678
3.02831
3.03154
3.03253
3.03498
3.03574
3.03769
3.03831
3.0399
3.0404
3.04169
3.0421
3.04315
3.04349
3.04434
3.0446
3.04528
3.04548
3.04598
3.04612
3.04643
3.04654
3.04684
3.04693
3.04717
3.04723
3.04736
3.04737
3.04735
3.04731
3.04707
3.04693
3.04636
3.04605
3.04489
3.04428
3.04194
3.04059
3.03527
3.03135
3.01438
2.98799
2.97622
2.93528
2.91564
2.84325
2.83024
2.82771
2.82715
2.82703
2.26014
2.52864
2.57043
2.6859
2.70532
2.76226
2.7722
2.80357
2.80895
2.82531
2.829
2.84542
2.84893
2.86396
2.86715
2.88066
2.88352
2.89563
2.89819
2.90899
2.91126
2.92082
2.92283
2.93124
2.933
2.94039
2.94196
2.94863
2.95021
2.95755
2.96408
2.96528
2.96929
2.97008
2.97313
2.97374
2.97618
2.97667
2.97865
2.97905
2.98066
2.98099
2.98231
2.98257
2.98364
2.98385
2.98469
2.98485
2.98548
2.98559
2.98598
2.98606
2.98644
2.98651
2.9868
2.98685
2.98701
2.98703
2.98701
2.98697
2.98668
2.98657
2.98585
2.98561
2.98417
2.98369
2.98081
2.97974
2.97331
2.97025
2.95061
2.91851
2.90916
2.85835
2.84253
2.7499
2.73945
2.73772
2.73736
2.73728
2.08466
2.4356
2.4556
2.59993
2.60903
2.68023
2.6849
2.72426
2.72678
2.74715
2.74889
2.76963
2.77128
2.79025
2.79175
2.80881
2.81016
2.82543
2.82664
2.84026
2.84133
2.8534
2.85434
2.86496
2.86579
2.8751
2.87584
2.88422
2.88496
2.89382
2.90159
2.90215
2.90717
2.90754
2.91138
2.91167
2.91474
2.91497
2.91746
2.91765
2.91969
2.91984
2.9215
2.92163
2.92297
2.92307
2.92413
2.92421
2.925
2.92505
2.92553
2.92557
2.92605
2.92608
2.92645
2.92648
2.92668
2.92669
2.92666
2.92664
2.92628
2.92622
2.92533
2.92522
2.92342
2.92319
2.9196
2.91911
2.91121
2.90982
2.88735
2.84813
2.84376
2.78001
2.7725
2.65325
2.6483
2.64768
2.64755
2.64752
)
;

boundaryField
{
    F1_1
    {
        type            fixedValue;
        value           nonuniform List<scalar> 
80
(
1.99013
2.39621
2.39621
2.56075
2.56075
2.64292
2.64292
2.69053
2.69053
2.72072
2.72072
2.7381
2.7381
2.75717
2.75717
2.77536
2.77536
2.79209
2.79209
2.80721
2.80721
2.8207
2.8207
2.83262
2.83262
2.84311
2.84311
2.85255
2.85255
2.86227
2.87071
2.87071
2.87637
2.87637
2.88071
2.88071
2.88418
2.88418
2.88701
2.88701
2.88931
2.88931
2.89119
2.89119
2.89271
2.89271
2.89391
2.89391
2.89481
2.89481
2.89534
2.89534
2.89588
2.89588
2.8963
2.8963
2.89653
2.89653
2.8965
2.8965
2.89608
2.89608
2.89506
2.89506
2.89302
2.89302
2.88895
2.88895
2.88003
2.88003
2.85606
2.81225
2.81225
2.73972
2.73972
2.60265
2.60265
2.60265
2.60265
2.60265
)
;
    }
    F1_2
    {
        type            fixedValue;
        value           nonuniform List<scalar> 
80
(
1.97014
2.39627
2.39627
2.62077
2.62077
2.77063
2.77063
2.88216
2.88216
2.96576
2.96576
3.01803
3.01803
3.07572
3.07572
3.13
3.13
3.17874
3.17874
3.22164
3.22164
3.25908
3.25908
3.29166
3.29166
3.32013
3.32013
3.3458
3.3458
3.37265
3.39654
3.39654
3.41321
3.41321
3.42647
3.42647
3.43749
3.43749
3.4468
3.4468
3.4547
3.4547
3.46139
3.46139
3.46703
3.46703
3.47172
3.47172
3.4754
3.4754
3.47777
3.47777
3.48042
3.48042
3.48293
3.48293
3.48519
3.48519
3.48718
3.48718
3.48891
3.48891
3.49038
3.49038
3.49153
3.49153
3.49206
3.49206
3.49073
3.49073
3.48202
3.46026
3.46026
3.4136
3.4136
3.307
3.307
3.307
3.307
3.307
)
;
    }
    F1_3
    {
        type            fixedValue;
        value           nonuniform List<scalar> 
80
(
1.97014
2.39627
2.39627
2.62077
2.62077
2.77063
2.77063
2.88216
2.88216
2.96576
2.96576
3.01803
3.01803
3.07571
3.07571
3.13
3.13
3.17874
3.17874
3.22164
3.22164
3.25908
3.25908
3.29166
3.29166
3.32013
3.32013
3.3458
3.3458
3.37265
3.39654
3.39654
3.41321
3.41321
3.42647
3.42647
3.43749
3.43749
3.4468
3.4468
3.4547
3.4547
3.46139
3.46139
3.46703
3.46703
3.47172
3.47172
3.4754
3.4754
3.47777
3.47777
3.48042
3.48042
3.48293
3.48293
3.48519
3.48519
3.48718
3.48718
3.48891
3.48891
3.49038
3.49038
3.49153
3.49153
3.49206
3.49206
3.49073
3.49073
3.48202
3.46026
3.46026
3.4136
3.4136
3.307
3.307
3.307
3.307
3.307
)
;
    }
    F1_4
    {
        type            fixedValue;
        value           nonuniform List<scalar> 
80
(
1.98989
2.3957
2.3957
2.55965
2.55965
2.64055
2.64055
2.68534
2.68534
2.70845
2.70845
2.73211
2.73211
2.75374
2.75374
2.77319
2.77319
2.79062
2.79062
2.80615
2.80615
2.81991
2.81991
2.83201
2.83201
2.84263
2.84263
2.85217
2.85217
2.86198
2.87049
2.87049
2.8762
2.8762
2.88057
2.88057
2.88407
2.88407
2.88692
2.88692
2.88924
2.88924
2.89113
2.89113
2.89266
2.89266
2.89387
2.89387
2.89478
2.89478
2.89532
2.89532
2.89586
2.89586
2.89628
2.89628
2.89652
2.89652
2.89648
2.89648
2.89607
2.89607
2.89505
2.89505
2.89301
2.89301
2.88894
2.88894
2.88003
2.88003
2.85605
2.81224
2.81224
2.73972
2.73972
2.60265
2.60265
2.60265
2.60265
2.60265
)
;
    }
    F2_1
    {
        type            fixedValue;
        value           uniform 3.5;
    }
    F2_2
    {
        type            fixedValue;
        value           uniform 3.5;
    }
    F2_3
    {
        type            fixedValue;
        value           uniform 3.5;
    }
    F2_4
    {
        type            fixedValue;
        value           uniform 3.5;
    }
    defaultFaces
    {
        type            empty;
    }
}


// ************************************************************************* //
