/*--------------------------------*- C++ -*----------------------------------*\
| =========                 |                                                 |
| \\      /  F ield         | OpenFOAM: The Open Source CFD Toolbox           |
|  \\    /   O peration     | Version:  5.x                                   |
|   \\  /    A nd           | Web:      www.OpenFOAM.org                      |
|    \\/     M anipulation  |                                                 |
\*---------------------------------------------------------------------------*/
FoamFile
{
    version     2.0;
    format      ascii;
    class       volScalarField;
    location    "4";
    object      gradTx;
}
// * * * * * * * * * * * * * * * * * * * * * * * * * * * * * * * * * * * * * //

dimensions      [0 -1 0 1 0 0 0];

internalField   nonuniform List<scalar> 
3200
(
45.2131
3.71187
1.64857
1.54002
0.814727
0.771135
0.466458
0.447001
0.293562
0.282459
0.17064
0.166498
0.180466
0.180614
0.172928
0.172087
0.159329
0.158214
0.144119
0.142939
0.128684
0.127517
0.113743
0.112651
0.10014
0.0992551
0.0901103
0.0901071
0.0950776
0.164796
0.0825442
0.0553323
0.0535062
0.0417796
0.0409539
0.0333708
0.0328129
0.0271036
0.0266744
0.0221171
0.0217704
0.0180266
0.0177384
0.0145813
0.0143332
0.0115521
0.0113238
0.0086444
0.00840395
0.00525619
0.00512462
0.00513015
0.00508271
0.00401602
0.00390273
0.00224828
0.00208247
-0.000228937
-0.00046679
-0.00383023
-0.00419309
-0.00946575
-0.0100713
-0.0191485
-0.0202964
-0.0381491
-0.0408195
-0.0839712
-0.0928844
-0.238544
-0.616783
-0.435849
-0.681041
-0.712382
-1.26727
-1.24167
-0.0557539
-0.0075238
-0.0015243
-52.9524
47.8974
3.10521
1.57716
1.35436
0.773865
0.680799
0.436081
0.394477
0.271551
0.247964
0.160153
0.15131
0.160782
0.160988
0.155013
0.153242
0.143178
0.140818
0.129664
0.127162
0.115873
0.113399
0.102495
0.100181
0.0902989
0.0884407
0.0813931
0.0815502
0.0883683
0.137404
0.0766411
0.0516823
0.0476155
0.0381005
0.0363298
0.0302844
0.0290978
0.0245634
0.0236521
0.0200361
0.0193003
0.0163305
0.015719
0.0132143
0.0126878
0.0104804
0.00999562
0.00786741
0.00735993
0.00490336
0.00462382
0.0045831
0.00447942
0.00363745
0.00339736
0.00208537
0.00173329
-0.000103388
-0.000608979
-0.00328532
-0.00405751
-0.00826063
-0.00955183
-0.0168131
-0.0192714
-0.0336677
-0.0394525
-0.0750009
-0.0949011
-0.226902
-0.517287
-0.414499
-0.601545
-0.666072
-1.08422
-1.03062
-0.121754
-0.0208822
-0.00438314
-54.7478
50.5649
2.57642
1.45355
1.18301
0.713505
0.59653
0.397579
0.345205
0.245565
0.216037
0.146507
0.13539
0.14147
0.141609
0.13693
0.134728
0.126718
0.123774
0.114862
0.111737
0.10271
0.0996194
0.0909023
0.0880139
0.0801373
0.077834
0.0723877
0.0727268
0.0799704
0.114403
0.0693059
0.0471966
0.0419428
0.0341116
0.0318767
0.0270037
0.0255166
0.0218782
0.0207379
0.0178398
0.0169195
0.0145401
0.0137753
0.0117683
0.0111096
0.0093398
0.00873322
0.00702559
0.00639386
0.00446346
0.00411346
0.00403857
0.00390566
0.00323481
0.00293486
0.00188405
0.0014435
-3.10867e-05
-0.000664343
-0.00281658
-0.00378468
-0.00717199
-0.00879353
-0.0146698
-0.0177689
-0.0295308
-0.0368949
-0.0666565
-0.0924337
-0.208925
-0.433518
-0.381556
-0.526949
-0.605617
-0.92004
-0.853781
-0.155435
-0.0308656
-0.00672621
-56.5431
53.2118
2.11319
1.29583
1.01961
0.639045
0.51554
0.353215
0.297825
0.216776
0.185711
0.130525
0.118782
0.122395
0.122423
0.118749
0.116447
0.110056
0.106968
0.0998282
0.0965479
0.0893099
0.0860645
0.079077
0.0760465
0.0697528
0.067353
0.0631509
0.0636273
0.0704849
0.0945832
0.0610511
0.0420367
0.0363731
0.0298988
0.0275291
0.0235875
0.0220215
0.0190931
0.0178941
0.0155645
0.0145972
0.0126851
0.0118812
0.0102682
0.00957585
0.00815268
0.00751486
0.00614074
0.00547975
0.00396034
0.00359211
0.00349635
0.00335342
0.00281733
0.0025024
0.00165832
0.00119506
7.55706e-06
-0.000658952
-0.00239521
-0.0034151
-0.00615399
-0.00786505
-0.0126375
-0.0159198
-0.0255699
-0.0334415
-0.0584714
-0.0863378
-0.186623
-0.360811
-0.340719
-0.455022
-0.535732
-0.771087
-0.702224
-0.166164
-0.0368319
-0.00832449
-58.3382
55.8372
1.70409
1.11648
0.860391
0.554302
0.436103
0.304573
0.251471
0.185987
0.156349
0.112805
0.10156
0.103464
0.103385
0.100512
0.0983292
0.0932623
0.0903249
0.0846404
0.0815171
0.0757498
0.0726593
0.0670934
0.0642096
0.0592126
0.0569441
0.053727
0.0542726
0.0603098
0.0770688
0.0522157
0.0363428
0.0308359
0.0255218
0.0232443
0.0200762
0.0185808
0.0162387
0.0150954
0.0132347
0.0123126
0.0107858
0.0100195
0.00873142
0.00807134
0.00693415
0.00632595
0.00522736
0.00459997
0.00341117
0.00305985
0.00295602
0.0028169
0.002391
0.0020911
0.00141736
0.000975594
2.53571e-05
-0.000610776
-0.00200251
-0.00297676
-0.00517711
-0.00681411
-0.0106649
-0.0138161
-0.0216801
-0.0293017
-0.0501729
-0.0773451
-0.161366
-0.295875
-0.294506
-0.384438
-0.459661
-0.634302
-0.569355
-0.160625
-0.0387652
-0.00905513
-60.1331
58.4425
1.33867
0.923858
0.70317
0.462044
0.357199
0.252794
0.205612
0.153765
0.127544
0.0937933
0.0838113
0.0846118
0.0844588
0.0822477
0.080327
0.0763832
0.0737915
0.0693503
0.0665921
0.0620827
0.0593533
0.0550026
0.0524573
0.0485632
0.0465732
0.0441526
0.0446982
0.0497059
0.061219
0.043021
0.0302343
0.0252909
0.0210234
0.0189952
0.0164981
0.015174
0.0133365
0.0123254
0.0108673
0.0100521
0.00885605
0.00817868
0.00716947
0.00658592
0.00569446
0.00515666
0.00429513
0.00374265
0.0028285
0.00251769
0.00241711
0.00229185
0.00195963
0.00169475
0.00116711
0.000776461
3.05897e-05
-0.000532379
-0.0016265
-0.00248938
-0.00422276
-0.00567462
-0.00872029
-0.0115238
-0.0177999
-0.0246319
-0.0416224
-0.0660785
-0.134088
-0.236374
-0.244641
-0.314444
-0.379613
-0.507102
-0.450237
-0.14361
-0.0370125
-0.00889322
-61.9276
61.0301
1.00747
0.723475
0.546768
0.364334
0.278277
0.198726
0.15994
0.120517
0.09904
0.0738308
0.0656317
0.0657979
0.0656151
0.0639718
0.0624056
0.0594499
0.0573321
0.0539928
0.0517371
0.0483444
0.0461121
0.0428395
0.040759
0.0378377
0.0362195
0.0344595
0.0349453
0.0388417
0.0465575
0.0336099
0.023812
0.019719
0.0164354
0.0147648
0.012873
0.0117877
0.0104011
0.00957333
0.00847416
0.00780695
0.00690555
0.00635113
0.00559049
0.00511281
0.00444063
0.00400032
0.00335055
0.00289979
0.0022217
0.00196713
0.00187918
0.00177508
0.00152556
0.00130891
0.000911385
0.000591534
2.85035e-05
-0.000432738
-0.00125975
-0.00196718
-0.00327967
-0.00447138
-0.00678535
-0.00909267
-0.0138976
-0.0195557
-0.0327733
-0.0530698
-0.10544
-0.180634
-0.192315
-0.244634
-0.297073
-0.387276
-0.341109
-0.118595
-0.0321207
-0.00789647
-63.7218
63.6035
0.701924
0.5188
0.390594
0.26277
0.199095
0.143027
0.114293
0.0865517
0.0706853
0.0531879
0.0471175
0.0469981
0.0468297
0.045693
0.0445399
0.0424833
0.0409215
0.0385921
0.0369277
0.0345597
0.0329125
0.0306289
0.0290943
0.0270601
0.0258715
0.0246767
0.0250561
0.0278248
0.0327226
0.0240728
0.0171614
0.0141146
0.0117828
0.0105433
0.00921565
0.0084134
0.00744342
0.00683209
0.00606376
0.00557112
0.00494116
0.00453181
0.0040002
0.00364748
0.00317752
0.00285235
0.002398
0.00206603
0.00159796
0.0014099
0.00134189
0.00126413
0.00109018
0.000930306
0.000652549
0.000416332
2.23437e-05
-0.000318469
-0.000897781
-0.00142078
-0.00234142
-0.00322326
-0.00485067
-0.00656162
-0.00996105
-0.0141772
-0.023641
-0.0387781
-0.0758789
-0.127435
-0.138363
-0.17482
-0.213022
-0.272904
-0.239036
-0.0881375
-0.0247389
-0.00618767
-65.5158
66.1663
0.414182
0.311929
0.234405
0.158639
0.119609
0.0862354
0.0686067
0.0521114
0.0423959
0.032088
0.0283654
0.0282002
0.0280832
0.0274148
0.0267104
0.0254968
0.0245417
0.0231648
0.0221465
0.0207462
0.0197384
0.0183882
0.0174496
0.0162487
0.0155238
0.0148309
0.0150712
0.0167227
0.0194296
0.0144662
0.0103564
0.00848161
0.00708656
0.00632531
0.00553727
0.00504585
0.00447138
0.00409713
0.00364233
0.00334079
0.00296794
0.00271739
0.00240274
0.00218683
0.00190861
0.00170956
0.00144055
0.00123772
0.000963021
0.000847868
0.000805002
0.000757018
0.000654237
0.000556415
0.00039205
0.00024744
1.40554e-05
-0.000194662
-0.000538068
-0.000858472
-0.00140472
-0.00194531
-0.00291266
-0.00396302
-0.00599188
-0.00858884
-0.0142818
-0.0236078
-0.0457395
-0.0758608
-0.0833898
-0.104936
-0.128104
-0.162283
-0.141644
-0.0541804
-0.0155632
-0.00393783
-67.3096
68.7228
0.136909
0.104069
0.0781459
0.0530392
0.0398973
0.0288137
0.0228751
0.0173999
0.0141301
0.0107247
0.0094709
0.00940046
0.00935867
0.00913804
0.00890128
0.0085
0.00817877
0.00772309
0.00738055
0.00691707
0.00657803
0.00613116
0.00581546
0.00541829
0.00517482
0.00494775
0.00502996
0.00557847
0.00644343
0.00482547
0.00346187
0.00282944
0.00236496
0.00210837
0.00184704
0.00168162
0.00149132
0.00136538
0.00121476
0.0011133
0.000989837
0.000905532
0.000801334
0.000728685
0.000636539
0.000569557
0.000480463
0.000412274
0.000321698
0.000282944
0.000268313
0.000252102
0.000218094
0.000185185
0.00013076
8.2098e-05
4.77954e-06
-6.5468e-05
-0.000179277
-0.000287134
-0.000468253
-0.000650289
-0.000971325
-0.00132528
-0.00199999
-0.0028766
-0.00477723
-0.00792537
-0.0152806
-0.0251904
-0.0278561
-0.034987
-0.0427461
-0.0538537
-0.046925
-0.0182694
-0.00530778
-0.00135077
-69.1032
68.7182
0.150808
0.128382
0.107442
0.0851982
0.0726865
0.0607257
0.0533206
0.0448599
0.038738
0.0309792
0.0281649
0.0282717
0.0281657
0.0273267
0.0264254
0.0249059
0.0237168
0.0220703
0.0208752
0.0193174
0.018221
0.0168335
0.0158872
0.0147416
0.0140637
0.0134707
0.0137618
0.0154229
0.0179867
0.0136326
0.00999399
0.00832265
0.00711638
0.00645258
0.00577636
0.0053448
0.00484243
0.00450549
0.00409605
0.00381603
0.00346938
0.00322875
0.00292574
0.00271005
0.00242986
0.00221933
0.00192911
0.00169658
0.00137901
0.00126743
0.00128352
0.00128429
0.00125094
0.00121225
0.00114469
0.00109087
0.00101512
0.00095893
0.000883688
0.000827347
0.000749834
0.000684652
0.000581731
0.000467405
0.000240374
-0.000105161
-0.000927856
-0.00247688
-0.0062881
-0.0118882
-0.0151683
-0.0221582
-0.0295988
-0.0405491
-0.0361424
-0.0141243
-0.00410821
-0.00104584
-69.8072
66.1522
0.455791
0.385086
0.32238
0.255205
0.218038
0.181995
0.160004
0.134486
0.116279
0.0927398
0.0843777
0.0848238
0.0845263
0.0819827
0.079301
0.0747044
0.0711688
0.0661927
0.0626402
0.0579337
0.0546748
0.0504827
0.0476697
0.0442061
0.0421878
0.0403769
0.0412307
0.0462326
0.0542368
0.0408693
0.0299033
0.0249494
0.0213274
0.0193582
0.0173193
0.0160373
0.0145207
0.0135194
0.012283
0.0114508
0.0104039
0.00968875
0.00877374
0.00813274
0.00728681
0.0066612
0.00578502
0.00509314
0.00412879
0.0037972
0.00385117
0.00385425
0.00375303
0.00363791
0.00343353
0.00327349
0.00304457
0.00287756
0.00265031
0.00248289
0.00224902
0.00205547
0.00174565
0.00140673
0.000725868
-0.000296391
-0.00275451
-0.00734013
-0.0187927
-0.0357575
-0.0453564
-0.0664565
-0.0886561
-0.122262
-0.109132
-0.0418929
-0.0120465
-0.00304894
-69.4217
63.5788
0.770961
0.64147
0.537496
0.424012
0.363344
0.302702
0.266829
0.22382
0.194034
0.153893
0.140238
0.141406
0.140977
0.136644
0.132253
0.124461
0.118678
0.110258
0.104451
0.0964922
0.0911659
0.0840769
0.0794782
0.0736127
0.0703036
0.0671764
0.0685337
0.0769223
0.0913419
0.0680099
0.0495721
0.0415228
0.0354724
0.0322667
0.028832
0.0267391
0.0241784
0.0225427
0.0204538
0.0190941
0.0173252
0.0161568
0.0146108
0.0135636
0.012135
0.0111131
0.00963358
0.00850063
0.00685328
0.00631156
0.00642087
0.00642839
0.0062557
0.00606715
0.00572062
0.00545889
0.00507157
0.00479861
0.00441456
0.00414112
0.0037466
0.00343095
0.00291076
0.00235974
0.00122503
-0.00043017
-0.00449604
-0.0119287
-0.0310768
-0.0599214
-0.0750844
-0.110711
-0.147257
-0.205844
-0.184285
-0.0681657
-0.0191508
-0.00479111
-69.036
60.9934
1.10339
0.896833
0.752992
0.590706
0.508649
0.422418
0.373939
0.312625
0.272203
0.213987
0.195506
0.198051
0.197583
0.191308
0.185342
0.174136
0.166294
0.154219
0.146349
0.134945
0.127728
0.117571
0.111337
0.102917
0.0984122
0.0937967
0.0955555
0.107371
0.129957
0.0949548
0.0688255
0.0580164
0.0495037
0.0451844
0.0402911
0.0374597
0.0337991
0.0315842
0.0285955
0.0267539
0.0242225
0.0226399
0.020428
0.0190098
0.0169669
0.0155833
0.0134683
0.0119287
0.00953357
0.00879991
0.00899467
0.00900977
0.00875903
0.00850275
0.00800434
0.00764934
0.00709402
0.00672414
0.00617441
0.00580421
0.00524105
0.00481465
0.00407712
0.00333613
0.00174505
-0.000467493
-0.00610287
-0.0160486
-0.042973
-0.0846324
-0.103994
-0.154928
-0.204976
-0.292631
-0.263221
-0.0917543
-0.0248688
-0.00611457
-68.6502
58.3914
1.46055
1.14969
0.969226
0.754192
0.654121
0.540624
0.481562
0.400594
0.351084
0.272492
0.249933
0.254817
0.254422
0.24596
0.238639
0.223678
0.214078
0.198012
0.188387
0.173231
0.164407
0.150909
0.143284
0.132065
0.126525
0.120162
0.122175
0.137389
0.170876
0.121545
0.0874662
0.0744181
0.0633673
0.0581251
0.0516677
0.0482136
0.043362
0.0406567
0.0366913
0.0344413
0.0310819
0.0291483
0.0262134
0.0244811
0.0217725
0.0200829
0.0172801
0.0153911
0.0121474
0.0112511
0.0115757
0.0116018
0.0112626
0.0109481
0.0102824
0.00984784
0.00910909
0.0086569
0.00792712
0.00747506
0.00673008
0.00621082
0.00524366
0.00434657
0.00228996
-0.000367859
-0.00753723
-0.0194892
-0.0542797
-0.110235
-0.13164
-0.199181
-0.261191
-0.384101
-0.347838
-0.11116
-0.0286616
-0.00688687
-68.2642
55.7692
1.85044
1.39733
1.18684
0.913078
0.80013
0.656653
0.590062
0.487306
0.431128
0.328756
0.303262
0.311795
0.311584
0.300566
0.292243
0.273005
0.262121
0.241548
0.230647
0.211264
0.201273
0.184012
0.175375
0.160986
0.154671
0.146192
0.148267
0.166675
0.215108
0.147525
0.105266
0.0907401
0.0769986
0.0711145
0.0629243
0.0590234
0.0528392
0.0497797
0.0447186
0.0421732
0.0378843
0.0356968
0.0319508
0.0299915
0.0265374
0.0246271
0.0210553
0.0189077
0.0146675
0.0136536
0.0141687
0.0142085
0.0137653
0.0134075
0.0125512
0.0120586
0.0111128
0.0106008
0.00966878
0.00915767
0.00821012
0.00762497
0.00640745
0.00540343
0.00285897
-8.77079e-05
-0.00878023
-0.0220163
-0.0647396
-0.13722
-0.157441
-0.243654
-0.314969
-0.481938
-0.440473
-0.124398
-0.0300254
-0.00701279
-67.878
53.1237
2.28165
1.63526
1.40699
1.06553
0.94736
0.769607
0.700009
0.572153
0.51302
0.381944
0.355229
0.369122
0.369178
0.355064
0.346283
0.321997
0.310552
0.284696
0.273247
0.248921
0.23843
0.21677
0.207696
0.189584
0.182904
0.171801
0.173705
0.194762
0.26398
0.172493
0.121956
0.107031
0.0903158
0.0841963
0.0740095
0.0699247
0.0621915
0.0589828
0.0526454
0.0499749
0.0446028
0.0423078
0.0376169
0.0355617
0.0312406
0.0292378
0.0247737
0.022508
0.0170585
0.015995
0.0167808
0.0168346
0.0162646
0.0158869
0.0148056
0.0142875
0.0130991
0.0125616
0.0113937
0.0108578
0.00967574
0.00906447
0.00756276
0.00652197
0.00344413
0.000422345
-0.0098414
-0.0233637
-0.0740092
-0.166295
-0.180601
-0.288724
-0.364921
-0.588111
-0.544091
-0.128767
-0.0285348
-0.00644745
-67.4916
50.4537
2.76333
1.85647
1.63167
1.20906
1.09697
0.878235
0.812285
0.654253
0.59779
0.430958
0.405573
0.427003
0.427339
0.409349
0.400944
0.370477
0.35956
0.327269
0.316362
0.286025
0.276034
0.249025
0.240378
0.217725
0.211314
0.196889
0.198378
0.220921
0.319281
0.195822
0.137222
0.123393
0.103209
0.0974408
0.0848507
0.080972
0.0713629
0.0683112
0.0604256
0.0578848
0.0511983
0.0490147
0.0431776
0.0412227
0.0358512
0.033947
0.0284043
0.0262358
0.0192742
0.0182624
0.0194222
0.0194858
0.0187563
0.0183946
0.0170375
0.0165433
0.0150596
0.0145477
0.0130933
0.0125839
0.0111186
0.0105397
0.0086997
0.00772207
0.00402713
0.00122216
-0.0107721
-0.0232262
-0.0816129
-0.198488
-0.200009
-0.33507
-0.408993
-0.704973
-0.662561
-0.120533
-0.0239184
-0.00520992
-67.1049
47.7599
3.30499
2.0504
1.86426
1.34016
1.25085
0.980751
0.928246
0.732289
0.686975
0.474314
0.454044
0.485728
0.486234
0.463251
0.456487
0.418174
0.409422
0.368986
0.360253
0.322315
0.314319
0.280545
0.273621
0.245216
0.240045
0.221341
0.222208
0.244049
0.383455
0.216558
0.150697
0.14001
0.115526
0.110958
0.0953436
0.0922487
0.0802722
0.0778331
0.0679922
0.0659606
0.0576139
0.0558679
0.0485832
0.0470205
0.0403232
0.0388019
0.0318999
0.0301554
0.0212519
0.0204431
0.0221076
0.0221687
0.0212334
0.0209421
0.0192349
0.0188388
0.0169812
0.0165715
0.0147553
0.0143483
0.0125261
0.0120654
0.00980223
0.00903094
0.00457461
0.00238963
-0.0116844
-0.0212511
-0.0868769
-0.235296
-0.214075
-0.383861
-0.444183
-0.83537
-0.801015
-0.0944823
-0.0161857
-0.00339523
-66.7181
45.0469
3.916
2.20159
2.11036
1.45387
1.41196
1.07456
1.04994
0.8043
0.782853
0.509975
0.500437
0.545699
0.546068
0.516504
0.513293
0.464689
0.460553
0.409435
0.405314
0.357407
0.353635
0.310992
0.307723
0.271778
0.269317
0.24501
0.2452
0.262474
0.459882
0.233252
0.161966
0.157179
0.127047
0.124918
0.105336
0.103881
0.0888001
0.0876513
0.0752466
0.0742892
0.0637655
0.0629427
0.05376
0.0530238
0.0445884
0.0438721
0.0351894
0.0343615
0.022906
0.0225249
0.0248571
0.0248916
0.0236848
0.0235464
0.0213801
0.0211928
0.018845
0.0186518
0.016361
0.0161693
0.0138792
0.0136633
0.0108452
0.0104873
0.00503134
0.00403277
-0.0127768
-0.0170336
-0.0888289
-0.278889
-0.2205
-0.43703
-0.466137
-0.982788
-0.966356
-0.0433019
-0.00583281
-0.00118076
-66.3311
45.0469
3.916
2.20159
2.11036
1.45387
1.41196
1.07456
1.04994
0.804301
0.782854
0.509975
0.500438
0.5457
0.546068
0.516504
0.513293
0.46469
0.460553
0.409436
0.405314
0.357408
0.353636
0.310992
0.307724
0.271779
0.269317
0.24501
0.245201
0.262474
0.459883
0.233253
0.161966
0.157179
0.127047
0.124918
0.105336
0.103881
0.0888004
0.0876516
0.0752469
0.0742895
0.0637658
0.062943
0.0537602
0.0530241
0.0445886
0.0438723
0.0351896
0.0343616
0.022906
0.0225249
0.0248573
0.0248917
0.0236849
0.0235466
0.0213802
0.021193
0.0188452
0.0186519
0.0163612
0.0161695
0.0138794
0.0136635
0.0108454
0.0104875
0.00503163
0.00403306
-0.0127763
-0.0170331
-0.0888278
-0.278887
-0.220499
-0.437032
-0.466139
-0.982798
-0.966366
-0.0433023
-0.00583286
-0.00118082
-66.3311
47.7599
3.30498
2.0504
1.86426
1.34016
1.25085
0.980751
0.928246
0.73229
0.686975
0.474315
0.454045
0.485728
0.486234
0.463251
0.456488
0.418175
0.409423
0.368986
0.360254
0.322315
0.31432
0.280546
0.273621
0.245217
0.240045
0.221341
0.222209
0.244049
0.383456
0.216558
0.150698
0.140011
0.115527
0.110959
0.0953439
0.092249
0.0802725
0.0778334
0.0679925
0.0659609
0.0576141
0.0558681
0.0485834
0.0470208
0.0403234
0.0388021
0.0319001
0.0301556
0.021252
0.0204431
0.0221077
0.0221688
0.0212335
0.0209423
0.0192351
0.0188389
0.0169814
0.0165717
0.0147555
0.0143484
0.0125262
0.0120655
0.00980243
0.00903115
0.00457488
0.00238992
-0.0116839
-0.0212506
-0.0868759
-0.235294
-0.214074
-0.383862
-0.444185
-0.835379
-0.801023
-0.0944832
-0.0161859
-0.0033953
-66.718
50.4536
2.76333
1.85647
1.63167
1.20906
1.09697
0.878235
0.812286
0.654253
0.597791
0.430958
0.405574
0.427003
0.42734
0.40935
0.400945
0.370477
0.35956
0.327269
0.316362
0.286025
0.276035
0.249025
0.240379
0.217725
0.211314
0.196889
0.198378
0.220922
0.319282
0.195823
0.137223
0.123394
0.10321
0.0974412
0.084851
0.0809723
0.0713632
0.0683115
0.0604259
0.057885
0.0511986
0.0490149
0.0431778
0.0412229
0.0358514
0.0339472
0.0284044
0.0262359
0.0192743
0.0182625
0.0194223
0.0194859
0.0187564
0.0183947
0.0170376
0.0165434
0.0150597
0.0145478
0.0130935
0.012584
0.0111187
0.0105398
0.00869988
0.00772226
0.00402737
0.00122243
-0.0107717
-0.0232257
-0.0816121
-0.198487
-0.200009
-0.335071
-0.408996
-0.70498
-0.662568
-0.120534
-0.0239186
-0.00520993
-67.1049
53.1237
2.28165
1.63526
1.40699
1.06553
0.94736
0.769608
0.700009
0.572154
0.513021
0.381944
0.35523
0.369123
0.369179
0.355065
0.346284
0.321998
0.310553
0.284697
0.273247
0.248921
0.238431
0.216771
0.207696
0.189584
0.182905
0.171801
0.173706
0.194762
0.263981
0.172493
0.121956
0.107031
0.0903161
0.0841966
0.0740098
0.0699249
0.0621917
0.058983
0.0526456
0.0499751
0.044603
0.042308
0.0376171
0.0355619
0.0312408
0.0292379
0.0247739
0.0225081
0.0170586
0.015995
0.0167809
0.0168347
0.0162647
0.015887
0.0148057
0.0142876
0.0130993
0.0125617
0.0113938
0.0108579
0.00967587
0.00906461
0.00756291
0.00652214
0.00344434
0.000422584
-0.00984105
-0.0233633
-0.0740085
-0.166294
-0.180601
-0.288725
-0.364924
-0.588117
-0.544096
-0.128768
-0.0285351
-0.00644741
-67.4915
55.7692
1.85043
1.39733
1.18684
0.913079
0.80013
0.656654
0.590063
0.487306
0.431129
0.328756
0.303262
0.311795
0.311585
0.300566
0.292243
0.273005
0.262122
0.241548
0.230648
0.211264
0.201273
0.184012
0.175375
0.160986
0.154672
0.146193
0.148267
0.166676
0.215108
0.147526
0.105266
0.0907404
0.0769989
0.0711147
0.0629246
0.0590236
0.0528394
0.0497799
0.0447188
0.0421734
0.0378845
0.035697
0.031951
0.0299916
0.0265375
0.0246272
0.0210555
0.0189078
0.0146675
0.0136537
0.0141688
0.0142086
0.0137654
0.0134076
0.0125513
0.0120587
0.0111129
0.0106009
0.00966889
0.00915779
0.00821024
0.00762509
0.00640758
0.00540357
0.00285914
-8.75041e-05
-0.00877993
-0.0220159
-0.0647391
-0.137219
-0.15744
-0.243655
-0.314971
-0.481942
-0.440477
-0.124399
-0.0300256
-0.0070127
-67.878
58.3914
1.46054
1.14969
0.969226
0.754192
0.654121
0.540625
0.481563
0.400595
0.351084
0.272492
0.249933
0.254818
0.254423
0.24596
0.23864
0.223678
0.214078
0.198013
0.188388
0.173232
0.164407
0.150909
0.143285
0.132065
0.126526
0.120162
0.122175
0.137389
0.170876
0.121545
0.0874665
0.0744184
0.0633675
0.0581253
0.0516679
0.0482138
0.0433622
0.0406568
0.0366915
0.0344414
0.031082
0.0291485
0.0262135
0.0244812
0.0217726
0.020083
0.0172802
0.0153911
0.0121475
0.0112512
0.0115757
0.0116019
0.0112627
0.0109481
0.0102825
0.00984793
0.00910918
0.00865699
0.00792721
0.00747515
0.00673017
0.00621092
0.00524377
0.00434668
0.0022901
-0.000367693
-0.007537
-0.0194889
-0.0542793
-0.110235
-0.13164
-0.199181
-0.261193
-0.384105
-0.347842
-0.111161
-0.0286618
-0.00688676
-68.2642
60.9933
1.10338
0.896832
0.752992
0.590706
0.508649
0.422418
0.373939
0.312625
0.272204
0.213988
0.195506
0.198051
0.197584
0.191308
0.185342
0.174137
0.166294
0.15422
0.146349
0.134946
0.127728
0.117572
0.111338
0.102917
0.0984124
0.0937969
0.0955557
0.107371
0.129957
0.0949552
0.0688258
0.0580165
0.0495039
0.0451845
0.0402912
0.0374599
0.0337992
0.0315843
0.0285956
0.026754
0.0242226
0.02264
0.0204281
0.0190099
0.016967
0.0155834
0.0134684
0.0119288
0.00953362
0.00879994
0.00899471
0.00900982
0.00875909
0.00850281
0.0080044
0.0076494
0.00709409
0.00672421
0.00617448
0.00580428
0.00524112
0.00481472
0.0040772
0.00333622
0.00174515
-0.000467366
-0.00610269
-0.0160483
-0.0429727
-0.084632
-0.103994
-0.154929
-0.204978
-0.292634
-0.263223
-0.0917551
-0.024869
-0.00611444
-68.6502
63.5788
0.770958
0.641469
0.537495
0.424012
0.363344
0.302702
0.266829
0.22382
0.194034
0.153893
0.140238
0.141406
0.140977
0.136644
0.132253
0.124461
0.118679
0.110258
0.104452
0.0964924
0.091166
0.084077
0.0794784
0.0736129
0.0703038
0.0671766
0.0685338
0.0769224
0.0913421
0.0680101
0.0495723
0.0415229
0.0354726
0.0322668
0.0288321
0.0267392
0.0241784
0.0225428
0.0204539
0.0190942
0.0173253
0.0161568
0.0146109
0.0135637
0.012135
0.0111132
0.00963363
0.00850067
0.00685332
0.00631159
0.0064209
0.00642842
0.00625574
0.00606719
0.00572066
0.00545894
0.00507162
0.00479866
0.00441461
0.00414116
0.00374665
0.003431
0.00291081
0.0023598
0.00122511
-0.000430082
-0.00449592
-0.0119285
-0.0310766
-0.0599211
-0.0750843
-0.110711
-0.147258
-0.205846
-0.184287
-0.0681663
-0.0191509
-0.00479098
-69.036
66.1522
0.45579
0.385085
0.32238
0.255205
0.218038
0.181995
0.160004
0.134486
0.11628
0.0927399
0.0843778
0.0848239
0.0845264
0.0819828
0.0793011
0.0747045
0.0711689
0.0661928
0.0626403
0.0579338
0.0546749
0.0504828
0.0476698
0.0442061
0.0421879
0.0403769
0.0412308
0.0462327
0.054237
0.0408694
0.0299034
0.0249494
0.0213275
0.0193583
0.0173194
0.0160373
0.0145207
0.0135194
0.012283
0.0114508
0.0104039
0.00968879
0.00877378
0.00813277
0.00728684
0.00666123
0.00578505
0.00509317
0.00412881
0.00379722
0.00385118
0.00385427
0.00375306
0.00363793
0.00343356
0.00327352
0.0030446
0.00287759
0.00265034
0.00248292
0.00224904
0.0020555
0.00174569
0.00140676
0.000725911
-0.00029634
-0.00275444
-0.00734004
-0.0187926
-0.0357574
-0.0453563
-0.0664567
-0.0886567
-0.122263
-0.109133
-0.0418932
-0.0120465
-0.00304885
-69.4217
68.7182
0.150808
0.128382
0.107442
0.0851982
0.0726866
0.0607257
0.0533207
0.04486
0.038738
0.0309792
0.0281649
0.0282718
0.0281657
0.0273268
0.0264255
0.0249059
0.0237169
0.0220703
0.0208753
0.0193174
0.0182211
0.0168335
0.0158873
0.0147416
0.0140638
0.0134708
0.0137619
0.0154229
0.0179867
0.0136327
0.00999402
0.00832267
0.0071164
0.0064526
0.00577638
0.00534482
0.00484245
0.0045055
0.00409607
0.00381605
0.00346939
0.00322876
0.00292576
0.00271006
0.00242987
0.00221934
0.00192912
0.00169659
0.00137902
0.00126744
0.00128352
0.0012843
0.00125095
0.00121226
0.0011447
0.00109088
0.00101513
0.000958939
0.000883696
0.000827356
0.000749843
0.000684661
0.000581741
0.000467416
0.000240388
-0.000105145
-0.000927834
-0.00247685
-0.00628806
-0.0118882
-0.0151683
-0.0221583
-0.029599
-0.0405495
-0.0361427
-0.0141244
-0.00410823
-0.0010458
-69.8072
68.7224
0.136742
0.103791
0.0777534
0.052433
0.0390428
0.027491
0.0210774
0.0149912
0.0125736
0.0119104
0.0115597
0.0110063
0.0105682
0.00995486
0.00950943
0.00892797
0.00851067
0.00796846
0.00757825
0.0070697
0.00670505
0.00623292
0.00590252
0.00549042
0.00523837
0.00500307
0.00508246
0.0056323
0.00650278
0.00486838
0.00349124
0.00285261
0.00238367
0.0021247
0.00186104
0.00169419
0.0015023
0.00137533
0.00122352
0.00112127
0.000996871
0.000911936
0.000806976
0.000733805
0.00064101
0.000573564
0.000483861
0.00041521
0.00032403
0.000285046
0.000270396
0.000254155
0.000220051
0.00018705
0.000132481
8.37078e-05
6.23973e-06
-6.41148e-05
-0.000178061
-0.000286014
-0.000467253
-0.000649372
-0.00097051
-0.00132454
-0.00199932
-0.00287599
-0.00477666
-0.00792481
-0.01528
-0.0251896
-0.0278556
-0.0349865
-0.0427457
-0.0538532
-0.0469246
-0.0182692
-0.00530773
-0.00135073
-69.1032
66.1651
0.413682
0.311097
0.233231
0.156822
0.117055
0.0822674
0.0632191
0.0448269
0.0376506
0.0357187
0.0346873
0.0330142
0.0317117
0.0298579
0.0285337
0.0267773
0.025537
0.0238993
0.0227395
0.0212033
0.0201195
0.0186931
0.0177108
0.0164649
0.0157144
0.0149966
0.0152286
0.0168841
0.0196085
0.0145948
0.0104442
0.00855103
0.00714263
0.00637429
0.00557923
0.00508356
0.00450429
0.00412699
0.00366859
0.00336471
0.00298903
0.00273661
0.00241966
0.0022022
0.00192202
0.00172158
0.00145074
0.00124653
0.000970001
0.000854164
0.000811251
0.000763179
0.000660108
0.000562013
0.00039721
0.000252271
1.84344e-05
-0.000190601
-0.000534422
-0.00085511
-0.00140173
-0.00194255
-0.00291021
-0.00396078
-0.00598989
-0.008587
-0.0142801
-0.0236062
-0.0457377
-0.0758587
-0.0833881
-0.104934
-0.128103
-0.162281
-0.141643
-0.0541799
-0.015563
-0.00393773
-67.3096
63.6014
0.701093
0.517414
0.388651
0.259745
0.194868
0.136414
0.105334
0.074214
0.0625179
0.059491
0.0578406
0.0550073
0.0528773
0.0497397
0.0475753
0.0446061
0.0425793
0.039811
0.0379158
0.0353189
0.0335476
0.0311355
0.0295297
0.0274195
0.0261892
0.0249522
0.0253177
0.0280931
0.0330238
0.0242868
0.0173068
0.0142301
0.011876
0.010625
0.00928545
0.00847627
0.0074982
0.00688189
0.00610747
0.00561101
0.00497626
0.00456386
0.00402836
0.0036731
0.00319983
0.00287241
0.00241496
0.00208075
0.00160954
0.00142037
0.00135231
0.0012744
0.00109997
0.000939644
0.000661143
0.00042439
2.96363e-05
-0.000311696
-0.00089171
-0.00141517
-0.00233643
-0.00321866
-0.0048466
-0.00655788
-0.00995774
-0.0141742
-0.0236382
-0.0387753
-0.0758759
-0.127431
-0.13836
-0.174818
-0.21302
-0.272902
-0.239034
-0.0881367
-0.0247386
-0.00618752
-65.5158
61.0272
1.00631
0.721534
0.544077
0.360107
0.272423
0.189466
0.147452
0.102824
0.0870384
0.0832082
0.0810412
0.0769723
0.0740832
0.0695826
0.0666492
0.0623971
0.0596512
0.0556879
0.0531202
0.0494015
0.0470013
0.0435457
0.0413687
0.038339
0.0366643
0.0348437
0.0353105
0.0392159
0.0469858
0.0339084
0.0240134
0.0198802
0.0165652
0.0148791
0.0129705
0.0118757
0.0104776
0.00964311
0.00853524
0.00786284
0.0069546
0.00639604
0.00562985
0.00514873
0.00447181
0.00402845
0.00337424
0.00292044
0.00223781
0.00198172
0.00189377
0.00178949
0.00153926
0.001322
0.000923407
0.000602827
3.87e-05
-0.000423246
-0.00125126
-0.00195932
-0.0032727
-0.00446495
-0.00677966
-0.00908744
-0.0138929
-0.0195515
-0.0327694
-0.0530659
-0.105436
-0.180629
-0.192311
-0.244631
-0.29707
-0.387272
-0.341107
-0.118594
-0.0321204
-0.0078963
-63.7218
58.4388
1.33719
0.921362
0.699763
0.456618
0.34979
0.24088
0.189673
0.130281
0.111081
0.106859
0.104318
0.0988902
0.0953536
0.0893629
0.0857758
0.080128
0.0767718
0.0715089
0.0683707
0.0634313
0.0604974
0.0559048
0.0532419
0.0492042
0.0471452
0.0446436
0.0451657
0.0501842
0.0617817
0.0434028
0.0304894
0.0254976
0.0211892
0.0191422
0.0166229
0.0152873
0.0134345
0.0124153
0.0109456
0.0101241
0.00891894
0.00823652
0.00721993
0.00663218
0.00573445
0.00519292
0.00432551
0.00376929
0.00284901
0.00253635
0.00243588
0.00231041
0.00197723
0.00171161
0.00118255
0.000791005
4.36745e-05
-0.000520155
-0.00161561
-0.00247926
-0.00421381
-0.00566633
-0.00871299
-0.0115171
-0.017794
-0.0246264
-0.0416174
-0.0660736
-0.134083
-0.236367
-0.244636
-0.314439
-0.379609
-0.507098
-0.450233
-0.143609
-0.0370121
-0.00889304
-61.9276
55.8328
1.7023
1.11342
0.856311
0.547676
0.427241
0.289987
0.232222
0.156129
0.134524
0.130443
0.12771
0.120732
0.116722
0.109047
0.104985
0.0977672
0.0939688
0.087245
0.0836932
0.077381
0.0740598
0.0681867
0.0651701
0.0599904
0.0576439
0.0543227
0.0548411
0.0608893
0.0777767
0.0526785
0.0366486
0.0310876
0.0257228
0.0234242
0.020228
0.0187196
0.0163581
0.0152054
0.01333
0.0124007
0.0108624
0.0100904
0.00879286
0.00812804
0.00698284
0.00637042
0.00526434
0.0046327
0.0034359
0.0030825
0.00297898
0.00283964
0.0024125
0.00211176
0.00143619
0.000993412
4.13065e-05
-0.000595802
-0.00198924
-0.00296436
-0.0051662
-0.00680396
-0.010656
-0.0138078
-0.0216728
-0.0292949
-0.0501669
-0.0773391
-0.161359
-0.295866
-0.2945
-0.384433
-0.459656
-0.634297
-0.56935
-0.160623
-0.0387648
-0.00905496
-60.133
53.2066
2.11111
1.29221
1.01492
0.631206
0.505364
0.335913
0.275505
0.179799
0.157266
0.153972
0.151272
0.142456
0.138237
0.128587
0.12432
0.11527
0.111283
0.102854