/*--------------------------------*- C++ -*----------------------------------*\
| =========                 |                                                 |
| \\      /  F ield         | OpenFOAM: The Open Source CFD Toolbox           |
|  \\    /   O peration     | Version:  5.x                                   |
|   \\  /    A nd           | Web:      www.OpenFOAM.org                      |
|    \\/     M anipulation  |                                                 |
\*---------------------------------------------------------------------------*/
FoamFile
{
    version     2.0;
    format      ascii;
    class       volScalarField;
    location    "4";
    object      gradTy;
}
// * * * * * * * * * * * * * * * * * * * * * * * * * * * * * * * * * * * * * //

dimensions      [0 -1 0 1 0 0 0];

internalField   nonuniform List<scalar> 
3200
(
18.248
8.63477
11.7287
8.31162
9.74879
8.03933
8.79322
7.79261
8.24118
7.60096
7.87608
7.51762
7.72782
7.31803
7.52999
7.14025
7.33916
6.98106
7.1626
6.83909
7.00221
6.7136
6.85852
6.60365
6.73154
6.50757
6.62174
6.42222
6.53717
6.36808
6.23285
6.32006
6.20142
6.25917
6.16681
6.21158
6.13735
6.1734
6.11301
6.14235
6.09304
6.11697
6.07677
6.0962
6.06368
6.07924
6.05348
6.06547
6.04619
6.05444
6.04327
6.04946
6.03779
6.04323
6.03419
6.03786
6.03286
6.03394
6.03453
6.0319
6.04058
6.03227
6.05357
6.03577
6.07851
6.04268
6.12636
6.04825
6.22291
6.00074
6.29281
7.10754
6.42108
7.94527
6.77948
9.89187
9.12206
9.00433
8.98003
8.9748
17.0084
9.75066
11.3311
8.77552
9.54604
8.26941
8.67301
7.92501
8.16404
7.68503
7.83193
7.56437
7.67639
7.36939
7.48136
7.1894
7.29457
7.02634
7.12236
6.88006
6.96635
6.75019
6.82687
6.63598
6.70368
6.53597
6.59658
6.44736
6.50968
6.37182
6.25771
6.30563
6.21703
6.24781
6.17869
6.20243
6.14685
6.16595
6.12073
6.13626
6.09934
6.11201
6.08191
6.09219
6.06784
6.07607
6.05678
6.06312
6.04869
6.05307
6.04472
6.04802
6.03927
6.04213
6.03536
6.03729
6.03354
6.0341
6.03453
6.03311
6.0396
6.03515
6.05106
6.04154
6.07346
6.05418
6.11655
6.0738
6.20312
6.07605
6.35122
6.99238
6.62269
7.76285
7.15651
9.499
9.09597
9.00059
8.97926
8.97459
16.059
10.513
11.0989
9.10637
9.42517
8.43227
8.59888
8.01794
8.11562
7.74406
7.80435
7.59592
7.64171
7.40399
7.44888
7.22266
7.26491
7.05706
7.09566
6.90788
6.94259
6.77506
6.80591
6.65797
6.68524
6.55524
6.5798
6.46403
6.49019
6.37461
6.27609
6.29666
6.22786
6.24045
6.18685
6.19645
6.15337
6.16107
6.12601
6.13228
6.10366
6.10876
6.08543
6.08957
6.0707
6.07401
6.05906
6.06161
6.05043
6.05221
6.04571
6.04705
6.04028
6.04142
6.03618
6.03694
6.03404
6.03425
6.0346
6.034
6.03905
6.03722
6.04958
6.04565
6.07046
6.06241
6.11095
6.09246
6.19359
6.13528
6.39499
6.91766
6.76389
7.65028
7.41559
9.21594
9.05758
8.99389
8.97783
8.97419
15.3315
11.0301
10.9699
9.34476
9.35678
8.54875
8.55464
8.08371
8.08597
7.78582
7.78753
7.61731
7.61837
7.42728
7.42725
7.24519
7.24526
7.07791
7.07801
6.9268
6.92691
6.792
6.79211
6.67296
6.67309
6.56833
6.56864
6.47503
6.47637
6.37673
6.2897
6.29127
6.23543
6.23574
6.19248
6.19258
6.15785
6.1579
6.12965
6.12969
6.10662
6.10665
6.08785
6.08787
6.07267
6.07268
6.06064
6.06065
6.05165
6.05168
6.04639
6.04641
6.04097
6.04096
6.03675
6.03675
6.03442
6.03441
6.0347
6.03467
6.03877
6.03871
6.04875
6.04861
6.06877
6.06837
6.10803
6.10634
6.19044
6.18178
6.42824
6.87
6.86349
7.58255
7.59327
9.01123
9.0154
8.98529
8.9759
8.97364
14.776
11.3776
10.9034
9.51768
9.32118
8.63267
8.52947
8.13057
8.06841
7.81551
7.77758
7.63185
7.60272
7.44293
7.4129
7.26043
7.2323
7.09206
7.06642
6.93967
6.91664
6.80354
6.78308
6.68317
6.66514
6.57722
6.56124
6.48223
6.46659
6.37833
6.29977
6.28818
6.24076
6.23277
6.19638
6.1901
6.16094
6.15586
6.13215
6.12802
6.10867
6.1053
6.08952
6.08678
6.07403
6.07183
6.06174
6.06004
6.05251
6.05136
6.04685
6.04598
6.04145
6.04068
6.03716
6.03664
6.03471
6.03455
6.03482
6.03518
6.03867
6.03981
6.04832
6.05076
6.06791
6.07274
6.10676
6.11679
6.191
6.21808
6.45368
6.84027
6.93407
7.54316
7.71466
8.86308
8.97459
8.97585
8.97369
8.97301
14.3565
11.608
10.8734
9.64302
9.30527
8.69318
8.51614
8.16395
8.05849
7.8366
7.77194
7.64173
7.5923
7.4534
7.40345
7.2707
7.22383
7.10164
7.05887
6.9484
6.90997
6.81137
6.77723
6.6901
6.65998
6.58323
6.55636
6.48689
6.45972
6.37955
6.30716
6.28652
6.24451
6.23094
6.19908
6.18854
6.16306
6.15457
6.13387
6.12696
6.11007
6.10443
6.09067
6.08609
6.07496
6.0713
6.0625
6.05967
6.05311
6.05117
6.04716
6.04571
6.04178
6.0405
6.03745
6.03659
6.03492
6.03467
6.03494
6.03556
6.03865
6.04061
6.04814
6.05232
6.06754
6.07594
6.10645
6.12467
6.19345
6.24604
6.47308
6.82225
6.98403
7.52127
7.79697
8.7564
8.9382
8.96655
8.97142
8.97234
14.0469
11.758
10.8632
9.73267
9.30033
8.7363
8.50981
8.18746
8.05322
7.8514
7.76893
7.64837
7.58546
7.4603
7.39731
7.27753
7.21838
7.10803
7.05403
6.95424
6.9057
6.81663
6.7735
6.69476
6.65669
6.58724
6.55318
6.48986
6.45497
6.38046
6.31249
6.28572
6.24712
6.22983
6.20092
6.18757
6.16451
6.15377
6.13504
6.1263
6.11102
6.1039
6.09145
6.08567
6.0756
6.07097
6.06302
6.05945
6.05353
6.05107
6.04738
6.04553
6.042
6.04039
6.03766
6.03657
6.03508
6.03477
6.03504
6.03584
6.03869
6.04118
6.04809
6.05344
6.06744
6.07825
6.10663
6.13052
6.19654
6.26702
6.48759
6.81172
7.01898
7.50984
7.85194
8.68083
8.90794
8.95819
8.96931
8.97172
13.8289
11.8521
10.8625
9.79438
9.30066
8.76591
8.50732
8.20345
8.05066
7.86143
7.76744
7.65271
7.5811
7.46472
7.39344
7.28194
7.21497
7.11217
7.05102
6.95803
6.90306
6.82004
6.77119
6.69779
6.65465
6.58984
6.55117
6.4917
6.4518
6.3811
6.31616
6.28538
6.24888
6.2292
6.20214
6.187
6.16546
6.15329
6.13581
6.12591
6.11165
6.10358
6.09196
6.08541
6.07602
6.07078
6.06336
6.05933
6.05381
6.05102
6.04752
6.04542
6.04215
6.04033
6.03779
6.03657
6.0352
6.03485
6.03512
6.03604
6.03873
6.04158
6.04811
6.05421
6.06747
6.07986
6.107
6.13469
6.19946
6.282
6.49796
6.80587
7.04258
7.50436
7.88743
8.62933
8.88475
8.9514
8.96754
8.97119
13.6899
11.9068
10.8649
9.83312
9.30263
8.78447
8.50664
8.2134
8.04955
7.86764
7.76677
7.65533
7.57854
7.46734
7.39119
7.28457
7.21299
7.11465
7.04928
6.9603
6.90154
6.82209
6.76987
6.6996
6.65348
6.59139
6.54999
6.49275
6.44986
6.38152
6.31847
6.28528
6.24997
6.22885
6.20288
6.18668
6.16604
6.15302
6.13628
6.12569
6.11203
6.1034
6.09227
6.08527
6.07628
6.07067
6.06358
6.05926
6.05399
6.05099
6.04761
6.04536
6.04224
6.0403
6.03788
6.03657
6.03527
6.0349
6.03518
6.03616
6.03877
6.04183
6.04814
6.0547
6.06754
6.08088
6.10734
6.13738
6.20166
6.29164
6.50465
6.80287
7.05719
7.50203
7.90857
8.59728
8.86912
8.94662
8.96628
8.97081
13.6223
11.9318
10.8669
9.85182
9.30411
8.79342
8.50658
8.21818
8.04917
7.87062
7.76654
7.65656
7.57736
7.46856
7.39015
7.28579
7.21209
7.11581
7.04849
6.96137
6.90085
6.82305
6.76927
6.70045
6.65294
6.59212
6.54945
6.49323
6.44895
6.38172
6.31958
6.28526
6.25049
6.22871
6.20323
6.18654
6.16631
6.1529
6.1365
6.12559
6.11221
6.10332
6.09242
6.0852
6.0764
6.07063
6.06368
6.05923
6.05407
6.05098
6.04765
6.04533
6.04228
6.04028
6.03792
6.03657
6.0353
6.03492
6.03521
6.03623
6.0388
6.04195
6.04816
6.05493
6.06758
6.08137
6.10754
6.1387
6.20284
6.29637
6.50794
6.80162
7.06417
7.50124
7.91842
8.58192
8.86126
8.94417
8.96562
8.97061
-13.7262
-11.9217
-10.6932
-9.35435
-8.54409
-7.65233
-7.09047
-6.43873
-6.02384
-5.542
-5.24875
-4.92341
-4.68604
-4.35793
-4.12258
-3.81138
-3.59395
-3.31333
-3.11952
-2.87202
-2.70194
-2.48576
-2.33747
-2.14918
-2.01968
-1.85444
-1.73842
-1.5852
-1.46346
-1.27692
-1.10234
-1.00442
-0.902856
-0.838055
-0.760637
-0.709001
-0.645159
-0.602091
-0.548343
-0.511966
-0.466448
-0.435632
-0.397081
-0.371045
-0.338584
-0.316831
-0.290001
-0.272428
-0.25143
-0.23848
-0.223891
-0.213157
-0.198218
-0.187464
-0.173198
-0.163213
-0.150307
-0.141391
-0.130008
-0.122209
-0.112338
-0.105658
-0.0973439
-0.091957
-0.085707
-0.0825864
-0.0808757
-0.0845941
-0.0992876
-0.133679
-0.224692
-0.371908
-0.527315
-0.814981
-1.11859
-1.62904
-1.84496
-1.90912
-1.92573
-1.9296
-13.7984
-11.8987
-10.6976
-9.33321
-8.54735
-7.63914
-7.09407
-6.42926
-6.02653
-5.53446
-5.25004
-4.91989
-4.68968
-4.35422
-4.12562
-3.80764
-3.59648
-3.30986
-3.12167
-2.86892
-2.70379
-2.48305
-2.33907
-2.14683
-2.02111
-1.85248
-1.73991
-1.58395
-1.46606
-1.27645
-1.09928
-1.00456
-0.901389
-0.838563
-0.759609
-0.709492
-0.644331
-0.602521
-0.547651
-0.512335
-0.465862
-0.435944
-0.396583
-0.371304
-0.338158
-0.317036
-0.289632
-0.272568
-0.25111
-0.238547
-0.223739
-0.213327
-0.198052
-0.187606
-0.173028
-0.163332
-0.150149
-0.141492
-0.129866
-0.122293
-0.112212
-0.105724
-0.0972281
-0.0919928
-0.0855829
-0.0825311
-0.0806596
-0.0841561
-0.0985006
-0.131415
-0.222444
-0.371581
-0.522025
-0.814344
-1.11032
-1.64082
-1.85103
-1.91102
-1.92624
-1.92975
-13.9466
-11.8477
-10.7086
-9.28894
-8.55552
-7.61144
-7.10246
-6.40932
-6.03279
-5.51862
-5.25317
-4.91239
-4.69753
-4.34625
-4.13224
-3.79962
-3.60204
-3.30246
-3.12641
-2.86233
-2.70787
-2.47727
-2.34261
-2.14183
-2.02427
-1.84827
-1.74315
-1.58117
-1.47152
-1.27548
-1.09292
-1.00505
-0.898312
-0.839719
-0.75743
-0.710589
-0.642572
-0.603476
-0.54618
-0.513152
-0.464617
-0.436637
-0.395524
-0.371881
-0.337253
-0.317495
-0.288853
-0.272885
-0.250437
-0.238707
-0.223413
-0.213693
-0.197695
-0.187916
-0.172665
-0.163591
-0.149811
-0.141712
-0.129564
-0.122479
-0.111943
-0.105873
-0.0969832
-0.0920768
-0.0853258
-0.0824297
-0.0802299
-0.0832853
-0.0969717
-0.126827
-0.217873
-0.371202
-0.51106
-0.81356
-1.09266
-1.66541
-1.86311
-1.91471
-1.92722
-1.93004
-14.1787
-11.7583
-10.7308
-9.21723
-8.57211
-7.56633
-7.11823
-6.37672
-6.04456
-5.49284
-5.25931
-4.89985
-4.71084
-4.33279
-4.14361
-3.78621
-3.61168
-3.29013
-3.13468
-2.85136
-2.715
-2.46766
-2.3488
-2.1335
-2.02977
-1.84124
-1.74866
-1.57631
-1.48045
-1.27398
-1.08278
-1.0063
-0.893312
-0.841827
-0.753838
-0.712535
-0.639659
-0.605163
-0.543741
-0.514593
-0.462553
-0.437857
-0.39377
-0.372899
-0.335756
-0.318312
-0.287569
-0.273463
-0.249336
-0.239011
-0.222866
-0.214313
-0.197092
-0.188446
-0.172057
-0.164041
-0.149248
-0.142096
-0.129061
-0.122805
-0.111498
-0.106135
-0.0965803
-0.0922359
-0.0849158
-0.0823018
-0.0795912
-0.0819903
-0.0947972
-0.119793
-0.210811
-0.371362
-0.49359
-0.813712
-1.06326
-1.705
-1.88103
-1.91997
-1.92858
-1.93045
-14.5077
-11.6133
-10.7724
-9.11078
-8.60314
-7.49892
-7.14574
-6.32774
-6.06512
-5.45434
-5.2705
-4.8805
-4.73172
-4.31178
-4.16172
-3.76549
-3.62721
-3.27115
-3.14807
-2.83451
-2.72658
-2.45292
-2.35885
-2.12071
-2.03866
-1.83037
-1.75737
-1.56839
-1.49381
-1.27187
-1.06806
-1.00902
-0.885855
-0.845399
-0.748381
-0.715748
-0.635214
-0.60793
-0.540014
-0.516952
-0.459398
-0.439856
-0.391089
-0.374571
-0.333474
-0.319663
-0.285622
-0.274445
-0.247687
-0.23955
-0.222017
-0.215281
-0.196147
-0.189288
-0.171116
-0.164764
-0.148381
-0.142718
-0.128288
-0.123334
-0.110816
-0.106567
-0.0959705
-0.0925155
-0.0843189
-0.082179
-0.0787492
-0.0802801
-0.092136
-0.110119
-0.200969
-0.373056
-0.468204
-0.816688
-1.01817
-1.76322
-1.90443
-1.92644
-1.93021
-1.93093
-14.9524
-11.386
-10.8469
-8.95818
-8.65804
-7.40148
-7.19185
-6.25656
-6.09962
-5.39877
-5.28994
-4.85151
-4.76345
-4.27998
-4.18967
-3.73446
-3.65145
-3.24286
-3.16908
-2.80944
-2.74478
-2.431
-2.37467
-2.10169
-2.05261
-1.8141
-1.77072
-1.5559
-1.51306
-1.26904
-1.04754
-1.0143
-0.875094
-0.851237
-0.740352
-0.720881
-0.628643
-0.612325
-0.534496
-0.520694
-0.454725
-0.443027
-0.38712
-0.377229
-0.330103
-0.321826
-0.282762
-0.276052
-0.245294
-0.240467
-0.220739
-0.216748
-0.194713
-0.190584
-0.169703
-0.16589
-0.147088
-0.143691
-0.127137
-0.124168
-0.109805
-0.107254
-0.0950764
-0.092986
-0.0834809
-0.082109
-0.07771
-0.078158
-0.0892309
-0.0975305
-0.187878
-0.377828
-0.432685
-0.825543
-0.951338
-1.84559
-1.9326
-1.93363
-1.93197
-1.93144
-15.5398
-11.0378
-10.9753
-8.74204
-8.75121
-7.26216
-7.26699
-6.15425
-6.15587
-5.31952
-5.32256
-4.80851
-4.81101
-4.23247
-4.23223
-3.68855
-3.68872
-3.20119
-3.20153
-2.77258
-2.77296
-2.39878
-2.39916
-2.07372
-2.07414
-1.79002
-1.79093
-1.53654
-1.54037
-1.26531
-1.0195
-1.02382
-0.859723
-0.860559
-0.72867
-0.728927
-0.619038
-0.619184
-0.526419
-0.526526
-0.447884
-0.447968
-0.381314
-0.381379
-0.32518
-0.325223
-0.278611
-0.278623
-0.241866
-0.241982
-0.218833
-0.218938
-0.192565
-0.192552
-0.16761
-0.167617
-0.145179
-0.145193
-0.125445
-0.125459
-0.108322
-0.108328
-0.0937802
-0.0937545
-0.0823189
-0.0821613
-0.0764781
-0.0756119
-0.0864377
-0.0816613
-0.170804
-0.388004
-0.383646
-0.845081
-0.853767
-1.96026
-1.96421
-1.94094
-1.93367
-1.93192
-16.3073
-10.5119
-11.1906
-8.43622
-8.9043
-7.0631
-7.38684
-6.00738
-6.24565
-5.2067
-5.37588
-4.74485
-4.88181
-4.16182
-4.29653
-3.62089
-3.74551
-3.14
-3.25116
-2.71856
-2.81613
-2.35159
-2.43668
-2.03271
-2.10706
-1.75455
-1.82135
-1.50685
-1.57884
-1.26042
-0.981464
-1.04009
-0.837757
-0.875193
-0.711705
-0.741383
-0.605035
-0.629762
-0.514631
-0.535511
-0.437897
-0.455582
-0.372842
-0.387782
-0.31801
-0.330488
-0.272597
-0.282667
-0.236966
-0.24443
-0.215999
-0.22219
-0.189365
-0.195519
-0.164521
-0.170243
-0.142375
-0.147487
-0.122964
-0.127437
-0.106156
-0.109985
-0.0919044
-0.0949806
-0.080707
-0.0824358
-0.0750546
-0.0725994
-0.0842695
-0.0620363
-0.148608
-0.407043
-0.315976
-0.882729
-0.712283
-2.11902
-1.9969
-1.9476
-1.93516
-1.93234
-17.3066
-9.72709
-11.5433
-8.0015
-9.14978
-6.77744
-7.57482
-5.7958
-6.38653
-5.04556
-5.46121
-4.65048
-4.98689
-4.05699
-4.39325
-3.52122
-3.83151
-3.05016
-3.32654
-2.63933
-2.88178
-2.28241
-2.49378
-1.97258
-2.15705
-1.70231
-1.86704
-1.46171
-1.63293
-1.25395
-0.929925
-1.0668
-0.806205
-0.897869
-0.687017
-0.760482
-0.584592
-0.645938
-0.497406
-0.549238
-0.423301
-0.467216
-0.360465
-0.397576
-0.307553
-0.33857
-0.263867
-0.288945
-0.229941
-0.248316
-0.211782
-0.227004
-0.184608
-0.199975
-0.159965
-0.174216
-0.138252
-0.150968
-0.119325
-0.130448
-0.102987
-0.11252
-0.0891837
-0.0969021
-0.0784563
-0.0830759
-0.0734352
-0.0690228
-0.0834585
-0.0380601
-0.119538
-0.440062
-0.221994
-0.949864
-0.507713
-2.33894
-2.02669
-1.95278
-1.93626
-1.93264
-18.6091
-8.56642
-12.1102
-7.37915
-9.53606
-6.36497
-7.86584
-5.4894
-6.60465
-4.81413
-5.59558
-4.5102
-5.14261
-3.9015
-4.53828
-3.37424
-3.96115
-2.91798
-3.44045
-2.52289
-2.98109
-2.18079
-2.58016
-1.8842
-2.2326
-1.62528
-1.93551
-1.39349
-1.70901
-1.24526
-0.859935
-1.10939
-0.760549
-0.932631
-0.650944
-0.789544
-0.554647
-0.670498
-0.472154
-0.570065
-0.4019
-0.484866
-0.342324
-0.412445
-0.292245
-0.350873
-0.251137
-0.298577
-0.219813
-0.254391
-0.205488
-0.234115
-0.177532
-0.206638
-0.153232
-0.18019
-0.132177
-0.156217
-0.113969
-0.134995
-0.0983321
-0.116365
-0.0852158
-0.0998652
-0.0752783
-0.0842819
-0.0716025
-0.0646883
-0.0850372
-0.00900522
-0.080904
-0.494623
-0.0901727
-1.0638
-0.212207
-2.6446
-2.04694
-1.95568
-1.93685
-1.9328
18.6091
8.56643
12.1102
7.37916
9.53606
6.36497
7.86585
5.48941
6.60466
4.81414
5.59558
4.5102
5.14261
3.9015
4.53829
3.37424
3.96115
2.91798
3.44045
2.52289
2.98109
2.18079
2.58016
1.8842
2.2326
1.62528
1.93551
1.39349
1.70901
1.24526
0.859934
1.10939
0.760548
0.932631
0.650943
0.789544
0.554646
0.670497
0.472153
0.570065
0.401899
0.484865
0.342323
0.412445
0.292244
0.350872
0.251136
0.298576
0.219813
0.25439
0.205487
0.234115
0.177532
0.206638
0.153231
0.180189
0.132176
0.156217
0.113969
0.134995
0.0983315
0.116364
0.0852151
0.0998649
0.0752776
0.0842816
0.0716016
0.064688
0.0850359
0.00900514
0.0809021
0.494619
0.0901693
1.0638
0.2122
2.64462
2.04695
1.95569
1.93686
1.93281
17.3066
9.7271
11.5433
8.00151
9.14979
6.77745
7.57483
5.79581
6.38654
5.04557
5.46122
4.65048
4.9869
4.057
4.39326
3.52123
3.83151
3.05016
3.32655
2.63933
2.88179
2.28242
2.49378
1.97258
2.15706
1.70232
1.86704
1.46171
1.63293
1.25395
0.929927
1.0668
0.806207
0.897871
0.687019
0.760485
0.584593
0.64594
0.497407
0.54924
0.423302
0.467218
0.360466
0.397577
0.307554
0.338572
0.263868
0.288946
0.229942
0.248318
0.211784
0.227005
0.184609
0.199976
0.159966
0.174217
0.138253
0.150969
0.119326
0.130448
0.102987
0.112521
0.0891843
0.0969029
0.0784567
0.0830765
0.0734354
0.0690234
0.0834583
0.0380603
0.119537
0.440059
0.221991
0.949864
0.507709
2.33896
2.0267
1.9528
1.93627
1.93265
16.3073
10.5119
11.1906
8.43623
8.90432
7.06311
7.38685
6.00739
6.24567
5.20671
5.37589
4.74486
4.88182
4.16183
4.29654
3.6209
3.74552
3.14001
3.25117
2.71857
2.81614
2.3516
2.43669
2.03272
2.10706
1.75456
1.82136
1.50686
1.57885
1.26042
0.981469
1.0401
0.837762
0.875198
0.71171
0.741387
0.605039
0.629767
0.514635
0.535515
0.437901
0.455586
0.372845
0.387785
0.318013
0.330491
0.2726
0.28267
0.236969
0.244433
0.216002
0.222193
0.189368
0.195522
0.164524
0.170246
0.142377
0.147489
0.122966
0.127439
0.106158
0.109987
0.091906
0.0949823
0.0807084
0.0824372
0.0750557
0.0726005
0.0842701
0.062037
0.148607
0.40704
0.315974
0.882728
0.712282
2.11904
1.99692
1.94761
1.93517
1.93235
15.5398
11.0378
10.9753
8.74206
8.75122
7.26218
7.267
6.15427
6.15589
5.31953
5.32258
4.80852
4.81102
4.23248
4.23224
3.68856
3.68874
3.2012
3.20154
2.77259
2.77297
2.39879
2.39917
2.07373
2.07415
1.79003
1.79094
1.53655
1.54038
1.26532
1.01951
1.02383
0.859729
0.860564
0.728675
0.728932
0.619043
0.619189
0.526424
0.526531
0.447888
0.447972
0.381318
0.381383
0.325184
0.325226
0.278615
0.278626
0.24187
0.241986
0.218836
0.218941
0.192568
0.192555
0.167613
0.16762
0.145182
0.145196
0.125448
0.125461
0.108325
0.10833
0.0937821
0.0937564
0.0823207
0.082163
0.0764795
0.0756133
0.0864385
0.081662
0.170803
0.388002
0.383645
0.845081
0.853767
1.96027
1.96422
1.94095
1.93369
1.93193
14.9524
11.3861
10.8469
8.9582
8.65806
7.40149
7.19186
6.25658
6.09963
5.39878
5.28995
4.85152
4.76347
4.28
4.18968
3.73448
3.65146
3.24288
3.16909
2.80946
2.74479
2.43101
2.37468
2.1017
2.05262
1.81411
1.77072
1.55591
1.51307
1.26905
1.04755
1.01431
0.8751
0.851243
0.740357
0.720886
0.628648
0.61233
0.5345
0.520699
0.45473
0.443031
0.387125
0.377233
0.330107
0.32183
0.282766
0.276055
0.245298
0.24047
0.220742
0.216751
0.194717
0.190587
0.169706
0.165893
0.14709
0.143694
0.12714
0.12417
0.109807
0.107257
0.0950785
0.0929881
0.0834828
0.0821108
0.0777116
0.0781594
0.0892318
0.0975312
0.187878
0.377827
0.432684
0.825543
0.951339
1.84561
1.93261
1.93364
1.93198
1.93145
14.5077
11.6133
10.7724
9.1108
8.60316
7.49894
7.14575
6.32776
6.06514
5.45436
5.27051
4.88051
4.73173
4.31179
4.16173
3.76551
3.62722
3.27116
3.14808
2.83452
2.72659
2.45293
2.35886
2.12072
2.03867
1.83038
1.75737
1.5684
1.49382
1.27188
1.06806
1.00902
0.885862
0.845405
0.748386
0.715754
0.63522
0.607935
0.540019
0.516957
0.459403
0.43986
0.391093
0.374576
0.333478
0.319667
0.285625
0.274448
0.24769
0.239553
0.22202
0.215285
0.19615
0.189291
0.171119
0.164767
0.148384
0.142721
0.12829
0.123337
0.110818
0.106569
0.0959727
0.0925176
0.0843208
0.0821808
0.0787509
0.0802815
0.0921371
0.110119
0.200969
0.373055
0.468203
0.816688
1.01817
1.76323
1.90444
1.92645
1.93022
1.93094
14.1787
11.7583
10.7308
9.21724
8.57213
7.56634
7.11824
6.37673
6.04458
5.49286
5.25933
4.89986
4.71085
4.3328
4.14362
3.78622
3.61169
3.29014
3.13469
2.85137
2.71501
2.46767
2.34881
2.13351
2.02978
1.84125
1.74867
1.57632
1.48046
1.27399
1.08279
1.00631
0.893318
0.841833
0.753843
0.712541
0.639664
0.605168
0.543746
0.514598
0.462558
0.437862
0.393774
0.372903
0.33576
0.318316
0.287573
0.273467
0.24934
0.239014
0.222869
0.214316
0.197095
0.188449
0.17206
0.164044
0.149251
0.142099
0.129063
0.122808
0.1115
0.106138
0.0965825
0.092238
0.0849178
0.0823037
0.0795928
0.0819917
0.0947982
0.119794
0.210811
0.371361
0.493589
0.813713
1.06326
1.70501
1.88104
1.91998
1.92859
1.93046
13.9466
11.8477
10.7086
9.28896
8.55553
7.61145
7.10248
6.40933
6.0328
5.51864
5.25318
4.9124
4.69754
4.34626
4.13225
3.79963
3.60205
3.30247
3.12643
2.86234
2.70788
2.47728
2.34262
2.14184
2.02428
1.84828
1.74316
1.58118
1.47153
1.27549
1.09293
1.00506
0.898318
0.839725
0.757436
0.710594
0.642577
0.603481
0.546184
0.513157
0.464622
0.436641
0.395529
0.371885
0.337257
0.317499
0.288857
0.272888
0.25044
0.23871
0.223416
0.213696
0.197698
0.187919
0.172668
0.163594
0.149814
0.141715
0.129566
0.122482
0.111946
0.105875
0.0969853
0.0920788
0.0853277
0.0824315
0.0802315
0.0832867
0.0969728
0.126828
0.217873
0.371201
0.51106
0.813561
1.09266
1.66542
1.86312
1.91473
1.92723
1.93005
13.7984
11.8987
10.6976
9.33323
8.54737
7.63916
7.09408
6.42928
6.02654
5.53448
5.25006
4.91991
4.68969
4.35424
4.12563
3.80765
3.59649
3.30987
3.12168
2.86893
2.7038
2.48306
2.33908
2.14684
2.02112
1.85248
1.73992
1.58395
1.46606
1.27646
1.09929
1.00457
0.901395
0.838569
0.759614
0.709497
0.644336
0.602526
0.547656
0.512339
0.465867
0.435949
0.396587
0.371308
0.338162
0.31704
0.289636
0.272571
0.251113
0.23855
0.223742
0.21333
0.198055
0.187609
0.173031
0.163334
0.150151
0.141494
0.129869
0.122295
0.112214
0.105726
0.0972301
0.0919947
0.0855847
0.0825328
0.0806611
0.0841575
0.0985016
0.131416
0.222444
0.37158
0.522025
0.814345
1.11032
1.64082
1.85104
1.91103
1.92625
1.92976
13.7262
11.9217
10.6932
9.35437
8.5441
7.65235
7.09048
6.43875
6.02386
5.54201
5.24877
4.92342
4.68605
4.35794
4.12259
3.81139
3.59396
3.31334
3.11953
2.87202
2.70195
2.48577
2.33747
2.14919
2.01969
1.85445
1.73843
1.58521
1.46347
1.27693
1.10235
1.00442
0.902862
0.83806
0.760642
0.709006
0.645163
0.602095
0.548347
0.511971
0.466452
0.435636
0.397085
0.371049
0.338587
0.316834
0.290004
0.272431
0.251433
0.238483
0.223894
0.213159
0.19822
0.187467
0.1732
0.163216
0.150309
0.141394
0.13001
0.122211
0.11234
0.10566
0.0973458
0.0919588
0.0857086
0.0825879
0.0808771
0.0845954
0.0992885
0.13368
0.224692
0.371908
0.527315
0.814983
1.11859
1.62904
1.84497
1.90913
1.92574
1.92961
-13.6258
-11.9368
-10.8737
-9.86234
-9.31879
-8.81606
-8.5383
-8.26727
-8.11682
-7.96818
-7.8657
-7.73004
-7.63446
-7.50993
-7.42306
-7.31087
-7.23285
-7.13234
-7.06261
-6.973
-6.91102
-6.83164
-6.7769
-6.70701
-6.65883
-6.59723
-6.55406
-6.49723
-6.45251
-6.38465
-6.32195
-6.28734
-6.25228
-6.23032
-6.20464
-6.18782
-6.16744
-6.15393
-6.13741
-6.12642
-6.11295
-6.10399
-6.09302
-6.08575
-6.07689
-6.07107
-6.06407
-6.05959
-6.0544
-6.05129
-6.04793
-6.04559
-6.04252
-6.0405
-6.03812
-6.03676
-6.03547
-6.03508
-6.03535
-6.03635
-6.03891
-6.04206
-6.04825
-6.05502
-6.06766
-6.08144
-6.1076
-6.13876
-6.20289
-6.29641
-6.50798
-6.80166
-7.0642
-7.50126
-7.91844
-8.58193
-8.86128
-8.94418
-8.96563
-8.97062
-13.6934
-11.9117
-10.8716
-9.84363
-9.31715
-8.80707
-8.53803
-8.26245
-8.11675
-7.96634
-7.86702
-7.72843
-7.63562
-7.50843
-7.42407
-7.3095
-7.23374
-7.13111
-7.0634
-6.9719
-6.91171
-6.83065
-6.7775
-6.70614
-6.65937
-6.5965
-6.55461
-6.49675
-6.45343
-6.38445
-6.32083
-6.28735
-6.25175
-6.23047
-6.20429
-6.18797
-6.16717
-6.15406
-6.13719
-6.12652
-6.11277
-6.10407
-6.09287
-6.08581
-6.07676
-6.07112
-6.06397
-6.05962
-6.05432
-6.0513
-6.04789
-6.04562
-6.04248
-6.04052
-6.03808
-6.03676
-6.03544
-6.03505
-6.03532
-6.03629
-6.03889
-6.04194
-6.04823
-6.05478
-6.06761
-6.08095
-6.1074
-6.13744
-6.20171
-6.29169
-6.50469
-6.8029
-7.05721
-7.50206
-7.90859
-8.5973
-8.86913
-8.94664
-8.96629
-8.97082
-13.8322
-11.857
-10.8691
-9.80485
-9.31487
-8.78843
-8.53802
-8.25243
-8.11686
-7.96245
-7.86992
-7.725
-7.63815
-7.50521
-7.4263
-7.30659
-7.23572
-7.12849
-7.06515
-6.96954
-6.91324
-6.82855
-6.77884
-6.70429
-6.66055
-6.59492
-6.5558
-6.49568
-6.45539
-6.38403
-6.3185
-6.28746
-6.25065
-6.23081
-6.20354
-6.18829
-6.16659
-6.15433
-6.13672
-6.12675
-6.11239
-6.10426
-6.09256
-6.08596
-6.07651
-6.07123
-6.06376
-6.05969
-6.05414
-6.05132
-6.0478
-6.04568
-6.04239
-6.04055
-6.03799
-6.03675
-6.03536
-6.035
-6.03526
-6.03616
-6.03884
-6.04168
-6.0482
-6.0543
-6.06755
-6.07993
-6.10706
-6.13475
-6.19951
-6.28205
-6.498
-6.8059
-7.04261
-7.50438
-7.88745
-8.62934
-8.88477
-8.95141
-8.96755
-8.9712
-14.0501
-11.7629
-10.8696
-9.74311
-9.31404
-8.75875
-8.53943
-8.23642
-8.11773
-7.95608
-7.87492
-7.71925
-7.64253
-7.49983
-7.43015
-7.30171
-7.23915
-7.12411
-7.06819
-6.96562
-6.91591
-6.82505
-6.78116
-6.70121
-6.6626
-6.59228
-6.55782
-6.49383
-6.45858
-6.38337
-6.31479
-6.28779
-6.24888
-6.23145
-6.20231
-6.18887
-6.16563
-6.15481
-6.13594
-6.12714
-6.11175
-6.10458
-6.09204
-6.08622
-6.07608
-6.07142
-6.06341
-6.05982
-6.05386
-6.05138
-6.04766
-6.0458
-6.04224
-6.04062
-6.03786
-6.03676
-6.03525
-6.03492
-6.03518
-6.03596
-6.0388
-6.04129
-6.04818
-6.05352
-6.06752
-6.07832
-6.1067
-6.13058
-6.19659
-6.26707
-6.48763
-6.81175
-7.01901
-7.50986
-7.85195
-8.68084
-8.90795
-8.9582
-8.96932
-8.97173
-14.3594
-11.6129
-10.8794
-9.65348
-9.31826
-8.71563
-8.54418
-8.21303
-8.12032
-7.9465
-7.8829
-7.71033
-7.64955
-7.49153
-7.43636
-7.29421
-7.24468
-7.11736
-7.07309
-6.95957
-6.92023
-6.81968
-6.78493
-6.69647
-6.66593
-6.58821
-6.56103
-6.49082
-6.46338
-6.38245
-6.30942
-6.2886
-6.24624
-6.23256
-6.20046
-6.18984
-6.16417
-6.15562
-6.13477
-6.12781
-6.11079
-6.10512
-6.09125
-6.08665
-6.07544
-6.07175
-6.06288
-6.06004
-6.05343
-6.05148
-6.04744
-6.04597
-6.04202
-6.04072
-6.03765
-6.03678
-6.03509
-6.03482
-6.03507
-6.03569
-6.03876
-6.04071
-6.04823
-6.05241
-6.06761
-6.07601
-6.10651
-6.12472
-6.1935
-6.24609
-6.47312
-6.82228
-6.98406
-7.52129
-7.79699
-8.75641
-8.93821
-8.96656
-8.97143
-8.97235
-14.7786
-11.3824
-10.909
-9.52821
-9.33318
-8.65527
-8.55532
-8.1801
-8.12616
-7.93251
-7.89523
-7.69695
-7.66046
-7.47912
-7.44604
-7.283
-7.25332
-7.10729
-7.08076
-6.95056
-6.92699
-6.81166
-6.79085
-6.68942
-6.67114
-6.58212
-6.56596
-6.4861
-6.47031
-6.38122
-6.30196
-6.29027
-6.24246
-6.23441
-6.19774
-6.19141
-6.16203
-6.15692
-6.13303
-6.12887
-6.10938
-6.10598
-6.0901
-6.08734
-6.0745
-6.07229
-6.06212
-6.06041
-6.05282
-6.05167
-6.04712
-6.04625
-6.04169
-6.0409
-6.03736
-6.03683
-6.03487
-6.0347
-6.03496
-6.03531
-6.03878
-6.03991
-6.04841
-6.05085
-6.06798
-6.07281
-6.10682
-6.11685
-6.19105
-6.21813
-6.45372
-6.8403
-6.9341
-7.54318
-7.71468
-8.86309
-8.9746
-8.97586
-8.9737
-8.97302
-15.3336
-11.0351
-10.9748
-9.35552
-9.36742
-8.57179
-8.57747
-8.13433
-8.13759
-7.91227
-7.91401
-7.67709
-7.67717
-7.46078
-7.46093
-7.26646
-7.26662
-7.09244
-7.09259
-6.93729
-6.93742
-6.79987
-6.8
-6.67904
-6.67918
-6.57312
-6.57343
-6.47882
-6.48017
-6.37959
-6.2918
-6.29339
-6.23709
-6.2374
-6.19381
-6.19391
-6.15891
-6.15897
-6.13051
-6.13055
-6.10732
-6.10735
-6.08842
-6.08844
-6.07313
-6.07314
-6.06101
-6.06102
-6.05196
-6.05199
-6.04666
-6.04668
-6.0412
-6.04119
-6.03695
-6.03694
-6.03458
-6.03456
-6.03483
-6.0348
-6.03888
-6.03882
-6.04884
-6.0487
-6.06884
-6.06845
-6.10809
-6.1064
-6.19049
-6.18183
-6.42828
-6.87003
-6.86352
-7.58257
-7.59329
-9.01125
-9.01541
-8.9853
-8.97591
-8.97365
-16.0606
-10.5182
-11.103
-9.11757
-9.43396
-8.45626
-8.61757
-8.0707
-8.15815
-7.88295
-7.94233
-7.64776
-7.70253
-7.43377
-7.4836
-7.24213
-7.28689
-7.07062
-7.11063
-6.9178
-6.95336
-6.78258
-6.81399
-6.66381
-6.69147
-6.55986
-6.5847
-6.4677
-6.49412
-6.37745
-6.27806
-6.29882
-6.22946
-6.24215
-6.18813
-6.19781
-6.1544
-6.16216
-6.12685
-6.13316
-6.10433
-6.10947
-6.08598
-6.09015
-6.07114
-6.07448
-6.05942
-6.06199
-6.05073
-6.05252
-6.04598
-6.04733
-6.0405
-6.04165
-6.03636
-6.03714
-6.0342
-6.03442
-6.03472
-6.03414
-6.03915
-6.03733
-6.04967
-6.04574
-6.07053
-6.06248
-6.11101
-6.09252
-6.19364
-6.13533
-6.39503
-6.91769
-6.76392
-7.6503
-7.41562
-9.21595
-9.05759
-8.9939
-8.97784
-8.9742
-17.0093
-9.75619
-11.334
-8.78756
-9.55226
-8.29516
-8.68601
-7.9817
-8.19323
-7.84024
-7.98482
-7.60445
-7.74083
-7.39403
-7.51792
-7.20635
-7.3176
-7.03855
-7.13798
-6.88917
-6.97755
-6.75719
-6.83524
-6.64148
-6.71013
-6.54034
-6.60165
-6.45084
-6.51378
-6.37461
-6.25952
-6.30786
-6.21854
-6.24957
-6.17991
-6.20383
-6.14784
-6.16707
-6.12152
-6.13717
-6.09999
-6.11274
-6.08243
-6.09279
-6.06827
-6.07656
-6.05713
-6.06351
-6.04898
-6.05339
-6.04498
-6.0483
-6.03948
-6.04237
-6.03554
-6.03749
-6.03369
-6.03426
-6.03465
-6.03325
-6.0397
-6.03526
-6.05115
-6.04163
-6.07353
-6.05425
-6.11661
-6.07386
-6.20317
-6.07611
-6.35126
-6.99241
-6.62272
-7.76286
-7.15654
-9.49901
-9.09598
-9.00061
-8.97928
-8.9746
-18.2481
-8.64096
-11.7299
-8.3251
-9.75144
-8.06815
-8.79824
-7.85606
-8.25088
-7.77762
-8.0483
-7.54047
-7.79846
-7.33545
-7.56966
-7.15366
-7.36392
-6.99134
-7.17926
-6.84706
-7.01409
-6.71987
-6.86736
-6.60864
-6.73833
-6.51157
-6.62708
-6.42543
-6.54153
-6.37082
-6.23444
-6.3224
-6.2028
-6.26101
-6.16794
-6.21305
-6.13827
-6.17458
-6.11375
-6.1433
-6.09364
-6.11774
-6.07726
-6.09682
-6.06408
-6.07974
-6.0538
-6.06587
-6.04647
-6.05478
-6.04352
-6.04976
-6.03799
-6.04348
-6.03436
-6.03808
-6.033
-6.03412
-6.03465
-6.03204
-6.04068
-6.03239
-6.05364
-6.03587
-6.07857
-6.04276
-6.12641
-6.04832
-6.22295
-6.0008
-6.29285
-7.10756
-6.42112
-7.94529
-6.77951
-9.89188
-9.12207
-9.00434
-8.98004
-8.97481
)
;

boundaryField
{
    F1_1
    {
        type            calculated;
        value           nonuniform List<scalar> 
80
(
18.9503
7.97251
11.9783
8.04031
9.87504
7.90436
8.86725
7.71468
8.28841
7.5515
7.90317
7.4897
7.75854
7.28734
7.55914
7.11093
7.36592
6.95407
7.18677
6.81468
7.02377
6.69181
6.87755
6.5844
6.74829
6.49064
6.63684
6.40712
6.55326
6.36593
6.21855
6.32892
6.1922
6.26605
6.15977
6.2171
6.13172
6.17789
6.10843
6.14602
6.0893
6.11996
6.07372
6.09862
6.06122
6.08115
6.05152
6.06689
6.04473
6.05528
6.0424
6.05033
6.03691
6.04389
6.03351
6.03822
6.03247
6.03387
6.03456
6.0312
6.04121
6.03059
6.05513
6.0324
6.08165
6.03596
6.13254
6.03344
6.23594
5.95858
6.25933
7.17721
6.30237
8.05772
6.55606
10.1204
9.1307
9.00534
8.98023
8.97485
)
;
    }
    F1_2
    {
        type            calculated;
        value           nonuniform List<scalar> 
80
(
-19.3464
-7.8749
-12.4588
-7.01227
-9.77164
-6.121
-8.04233
-5.30799
-6.73693
-4.67756
-5.67758
-4.4263
-5.23556
-3.80862
-4.62525
-3.28663
-4.03904
-2.83927
-3.50895
-2.45357
-3.04083
-2.1203
-2.63212
-1.83159
-2.27803
-1.57936
-1.97657
-1.35247
-1.75348
-1.24027
-0.819602
-1.13547
-0.733516
-0.953638
-0.629512
-0.80706
-0.53684
-0.685289
-0.457134
-0.582605
-0.389169
-0.495493
-0.331533
-0.4214