/*--------------------------------*- C++ -*----------------------------------*\
| =========                 |                                                 |
| \\      /  F ield         | OpenFOAM: The Open Source CFD Toolbox           |
|  \\    /   O peration     | Version:  5.x                                   |
|   \\  /    A nd           | Web:      www.OpenFOAM.org                      |
|    \\/     M anipulation  |                                                 |
\*---------------------------------------------------------------------------*/
FoamFile
{
    version     2.0;
    format      ascii;
    class       volScalarField;
    location    "4";
    object      T;
}
// * * * * * * * * * * * * * * * * * * * * * * * * * * * * * * * * * * * * * //

dimensions      [0 0 0 1 0 0 0];

internalField   nonuniform List<scalar> 
3200
(
2.08508
2.43623
2.45626
2.60109
2.61027
2.68256
2.68738
2.72921
2.73208
2.75857
2.76033
2.77563
2.77697
2.79368
2.79504
2.81097
2.81225
2.8269
2.82807
2.84132
2.84236
2.85418
2.85511
2.86556
2.86638
2.87557
2.8763
2.88458
2.88531
2.89409
2.90179
2.90234
2.90733
2.9077
2.9115
2.91179
2.91484
2.91507
2.91755
2.91774
2.91976
2.91992
2.92157
2.92169
2.92302
2.92312
2.92418
2.92426
2.92504
2.9251
2.92557
2.92561
2.92608
2.92612
2.92648
2.92651
2.92671
2.92672
2.92669
2.92667
2.9263
2.92625
2.92536
2.92524
2.92344
2.92321
2.91963
2.91913
2.91123
2.90984
2.88738
2.84816
2.84379
2.78006
2.77255
2.65333
2.64838
2.64776
2.64763
2.64761
2.26053
2.5292
2.57106
2.68692
2.70649
2.76431
2.77457
2.80792
2.81402
2.83507
2.83881
2.85109
2.85395
2.86716
2.87004
2.88267
2.88537
2.89698
2.89945
2.90995
2.91217
2.92154
2.92351
2.93179
2.93353
2.94082
2.94237
2.94896
2.95052
2.95779
2.96426
2.96546
2.96943
2.97022
2.97324
2.97385
2.97627
2.97676
2.97873
2.97913
2.98073
2.98106
2.98236
2.98263
2.98369
2.9839
2.98473
2.9849
2.98552
2.98563
2.98601
2.9861
2.98647
2.98654
2.98683
2.98688
2.98704
2.98706
2.98703
2.987
2.9867
2.98659
2.98588
2.98563
2.9842
2.98371
2.98083
2.97976
2.97333
2.97027
2.95064
2.91854
2.90919
2.85839
2.84258
2.74997
2.73952
2.73779
2.73743
2.73735
2.42524
2.63125
2.68289
2.7766
2.80119
2.84795
2.86084
2.88771
2.89536
2.91227
2.91696
2.92692
2.9305
2.94107
2.94466
2.95476
2.95814
2.96743
2.97051
2.97892
2.98169
2.98919
2.99165
2.99828
3.00045
3.00629
3.00823
3.01353
3.01551
3.02153
3.02695
3.02846
3.03167
3.03265
3.03508
3.03584
3.03778
3.03839
3.03997
3.04046
3.04175
3.04216
3.0432
3.04353
3.04438
3.04465
3.04532
3.04552
3.04602
3.04616
3.04646
3.04657
3.04687
3.04696
3.04719
3.04725
3.04738
3.0474
3.04738
3.04733
3.04709
3.04695
3.04638
3.04607
3.04491
3.0443
3.04196
3.04061
3.03529
3.03136
3.0144
2.98801
2.97624
2.93532
2.91568
2.84331
2.8303
2.82777
2.82722
2.8271
2.58171
2.73947
2.79303
2.86905
2.89499
2.93295
2.94655
2.96827
2.97633
2.98995
2.9949
3.003
3.00678
3.01524
3.01902
3.02712
3.03067
3.03812
3.04136
3.04811
3.05102
3.05704
3.05963
3.06495
3.06723
3.07192
3.07397
3.07824
3.08033
3.08529
3.08979
3.09139
3.09399
3.09503
3.09698
3.09778
3.09934
3.09998
3.10125
3.10177
3.1028
3.10323
3.10407
3.10442
3.1051
3.10538
3.10591
3.10613
3.10653
3.10668
3.10693
3.10704
3.10727
3.10737
3.10756
3.10762
3.10772
3.10774
3.10772
3.10768
3.10748
3.10733
3.10687
3.10655
3.1056
3.10496
3.10305
3.10161
3.0972
3.09298
3.07854
3.0569
3.04447
3.01139
2.99089
2.93429
2.92067
2.91767
2.91699
2.91684
2.73187
2.85185
2.90228
2.9635
2.98832
3.01893
3.03193
3.04939
3.05708
3.06798
3.07271
3.07926
3.08287
3.08961
3.09321
3.09966
3.10304
3.10899
3.11207
3.11745
3.12023
3.12503
3.12749
3.13174
3.13391
3.13766
3.13961
3.14303
3.14503
3.14906
3.15274
3.15428
3.15638
3.15737
3.15893
3.15969
3.16094
3.16155
3.16256
3.16306
3.16388
3.16429
3.16496
3.16529
3.16583
3.1661
3.16653
3.16673
3.16705
3.16719
3.16739
3.1675
3.16769
3.16778
3.16793
3.16799
3.16807
3.16809
3.16807
3.16802
3.16787
3.16773
3.16735
3.16705
3.16629
3.16566
3.16412
3.16273
3.1591
3.155
3.14296
3.12541
3.11351
3.08697
3.06755
3.02354
3.01061
3.00748
3.00674
3.00657
2.87723
2.96702
3.0111
3.0594
3.08142
3.10561
3.11714
3.13089
3.1377
3.14626
3.15045
3.15564
3.15883
3.1641
3.16728
3.17233
3.17531
3.17997
3.18269
3.1869
3.18935
3.19311
3.19529
3.19861
3.20053
3.20347
3.20519
3.20788
3.20966
3.21285
3.21578
3.21715
3.21881
3.21968
3.22091
3.22158
3.22256
3.2231
3.22389
3.22433
3.22498
3.22534
3.22586
3.22616
3.22658
3.22681
3.22715
3.22733
3.22758
3.2277
3.22786
3.22796
3.2281
3.22818
3.2283
3.22835
3.22842
3.22843
3.22842
3.22838
3.22826
3.22813
3.22783
3.22756
3.22696
3.22641
3.22518
3.22395
3.22102
3.21734
3.20761
3.1937
3.18315
3.16226
3.14519
3.11155
3.10016
3.09719
3.09646
3.0963
3.019
3.08401
3.11975
3.15636
3.17443
3.19279
3.20226
3.21266
3.21825
3.22472
3.22815
3.2321
3.23472
3.23868
3.24128
3.24508
3.24752
3.25102
3.25325
3.25642
3.25843
3.26125
3.26304
3.26554
3.26711
3.26932
3.27073
3.27277
3.27423
3.27665
3.27888
3.28001
3.28127
3.28199
3.28291
3.28346
3.2842
3.28464
3.28524
3.2856
3.28608
3.28638
3.28677
3.28701
3.28733
3.28752
3.28778
3.28792
3.28811
3.28821
3.28833
3.28841
3.28852
3.28859
3.28868
3.28872
3.28877
3.28878
3.28877
3.28874
3.28864
3.28854
3.28832
3.28809
3.28764
3.28718
3.28625
3.28523
3.28297
3.27992
3.27243
3.26186
3.25319
3.23739
3.22349
3.19867
3.18938
3.18681
3.18616
3.18602
3.15817
3.20218
3.22837
3.25406
3.26742
3.28033
3.28733
3.29464
3.29876
3.30329
3.30583
3.30861
3.31054
3.31331
3.31523
3.31788
3.31968
3.32213
3.32377
3.32599
3.32747
3.32944
3.33076
3.3325
3.33367
3.33521
3.33625
3.33768
3.33876
3.34046
3.34203
3.34287
3.34375
3.34428
3.34493
3.34533
3.34585
3.34618
3.34659
3.34686
3.3472
3.34742
3.34769
3.34787
3.34809
3.34823
3.34841
3.34852
3.34865
3.34873
3.34881
3.34887
3.34894
3.34899
3.34905
3.34909
3.34912
3.34913
3.34912
3.3491
3.34903
3.34895
3.3488
3.34863
3.34831
3.34797
3.34732
3.34656
3.34495
3.34268
3.33736
3.32994
3.32353
3.31245
3.30222
3.28516
3.27832
3.27635
3.27585
3.27573
3.29558
3.32105
3.337
3.35225
3.36044
3.36811
3.3724
3.37673
3.37926
3.38194
3.3835
3.38515
3.38634
3.38797
3.38915
3.39071
3.39182
3.39326
3.39427
3.39558
3.39649
3.39766
3.39846
3.39949
3.40021
3.40112
3.40176
3.4026
3.40326
3.40427
3.40521
3.40572
3.40624
3.40657
3.40695
3.4072
3.40751
3.40771
3.40795
3.40812
3.40832
3.40845
3.40861
3.40872
3.40885
3.40894
3.40904
3.40911
3.40919
3.40924
3.40929
3.40932
3.40937
3.4094
3.40943
3.40945
3.40947
3.40948
3.40947
3.40946
3.40942
3.40937
3.40928
3.40918
3.40899
3.40878
3.40839
3.40792
3.40696
3.40556
3.40239
3.39797
3.39405
3.38748
3.38124
3.37125
3.36707
3.36583
3.36551
3.36544
3.43197
3.44031
3.44566
3.45072
3.45348
3.45602
3.45747
3.4589
3.45975
3.46064
3.46117
3.46172
3.46211
3.46266
3.46305
3.46357
3.46394
3.46442
3.46476
3.46519
3.4655
3.46588
3.46615
3.4665
3.46674
3.46704
3.46725
3.46753
3.46776
3.46809
3.4684
3.46857
3.46875
3.46886
3.46898
3.46907
3.46917
3.46924
3.46932
3.46937
3.46944
3.46948
3.46954
3.46957
3.46962
3.46965
3.46968
3.4697
3.46973
3.46975
3.46976
3.46977
3.46979
3.4698
3.46981
3.46982
3.46982
3.46983
3.46982
3.46982
3.46981
3.46979
3.46976
3.46973
3.46966
3.46959
3.46946
3.4693
3.46898
3.46851
3.46746
3.46599
3.46467
3.46249
3.4604
3.45711
3.4557
3.45528
3.45517
3.45515
3.43146
3.44036
3.44654
3.4532
3.45728
3.46172
3.46455
3.46779
3.46988
3.47228
3.47376
3.47538
3.47657
3.47821
3.47939
3.48094
3.48203
3.48343
3.4844
3.48564
3.48649
3.48757
3.48831
3.48925
3.4899
3.49073
3.49131
3.49207
3.49269
3.49361
3.49448
3.49498
3.49548
3.49581
3.4962
3.49646
3.49677
3.49699
3.49726
3.49744
3.49767
3.49782
3.49801
3.49815
3.49831
3.49842
3.49855
3.49864
3.49874
3.49881
3.49888
3.49893
3.49901
3.49906
3.49913
3.49918
3.49925
3.49929
3.49935
3.49939
3.49944
3.49947
3.49951
3.49954
3.49957
3.49959
3.4996
3.49958
3.4995
3.49933
3.49887
3.49814
3.49736
3.49592
3.4944
3.49187
3.49078
3.49046
3.49037
3.49035
3.29402
3.3212
3.3396
3.35971
3.37184
3.38523
3.39364
3.40343
3.40964
3.41688
3.42127
3.42615
3.42971
3.43464
3.43816
3.44283
3.44609
3.4503
3.4532
3.45692
3.45947
3.46272
3.46494
3.46777
3.4697
3.47219
3.47392
3.47622
3.47804
3.48085
3.48347
3.48493
3.48646
3.48743
3.48859
3.48936
3.49032
3.49097
3.49178
3.49232
3.493
3.49347
3.49404
3.49443
3.49492
3.49525
3.49565
3.49591
3.49623
3.49642
3.49664
3.4968
3.49703
3.49719
3.4974
3.49755
3.49775
3.49788
3.49805
3.49817
3.49832
3.49842
3.49854
3.49862
3.49871
3.49876
3.49879
3.49873
3.49851
3.498
3.49663
3.49442
3.4921
3.48778
3.48323
3.47555
3.47232
3.47136
3.47111
3.47106
3.15549
3.20239
3.23259
3.26654
3.28634
3.30894
3.32267
3.33921
3.34935
3.36159
3.36876
3.37698
3.38278
3.39112
3.39688
3.40479
3.4101
3.41723
3.42197
3.42826
3.43242
3.43791
3.44153
3.44631
3.44948
3.45368
3.45651
3.46039
3.46336
3.46809
3.4725
3.47489
3.47746
3.47904
3.481
3.48227
3.48389
3.48494
3.4863
3.48719
3.48835
3.4891
3.49008
3.49072
3.49154
3.49208
3.49276
3.49319
3.49372
3.49404
3.49441
3.49467
3.49505
3.49531
3.49567
3.49592
3.49625
3.49646
3.49675
3.49694
3.49719
3.49736
3.49757
3.4977
3.49786
3.49794
3.49798
3.49789
3.49753
3.4967
3.49442
3.49071
3.48692
3.47964
3.47219
3.45905
3.45376
3.45224
3.45185
3.45176
3.01509
3.08425
3.12543
3.17393
3.20072
3.233
3.25159
3.27524
3.28898
3.30651
3.3162
3.32791
3.33575
3.34771
3.35551
3.36684
3.37405
3.38425
3.39068
3.39968
3.40531
3.41317
3.41808
3.42493
3.42922
3.43522
3.43906
3.4446
3.44861
3.45534
3.46161
3.46483
3.46849
3.47063
3.47344
3.47515
3.47747
3.4789
3.48085
3.48206
3.48371
3.48473
3.48613
3.487
3.48818
3.4889
3.48987
3.49046
3.49122
3.49165
3.49217
3.49253
3.49307
3.49343
3.49395
3.49428
3.49475
3.49504
3.49546
3.49572
3.49608
3.4963
3.4966
3.49678
3.49701
3.49711
3.49718
3.49707
3.49657
3.49546
3.49227
3.487
3.48188
3.47151
3.46138
3.44224
3.43506
3.43307
3.43257
3.43246
2.87192
2.96722
3.01797
3.08219
3.11489
3.15761
3.18031
3.21168
3.22846
3.25173
3.26357
3.27898
3.28856
3.30447
3.31401
3.32906
3.33787
3.35143
3.35928
3.37123
3.37812
3.38855
3.39456
3.40364
3.40889
3.41685
3.42154
3.42887
3.43376
3.44261
3.45084
3.45476
3.45959
3.4622
3.46593
3.46802
3.47109
3.47284
3.47543
3.4769
3.4791
3.48035
3.48221
3.48326
3.48483
3.48571
3.48701
3.48772
3.48873
3.48926
3.48995
3.49038
3.49111
3.49154
3.49223
3.49264
3.49326
3.49362
3.49417
3.49449
3.49496
3.49523
3.49564
3.49586
3.49616
3.49629
3.49639
3.49625
3.49564
3.4943
3.49021
3.48328
3.47704
3.46336
3.45093
3.42495
3.41614
3.41384
3.41328
3.41315
2.72493
2.85198
2.90998
2.99172
3.02866
3.08302
3.10867
3.14869
3.16768
3.19742
3.21079
3.2303
3.24112
3.26147
3.27228
3.29153
3.3015
3.31883
3.32771
3.34299
3.35078
3.36411
3.37091
3.38251
3.38844
3.39861
3.40391
3.41323
3.41874
3.4299
3.44025
3.44465
3.45078
3.45373
3.45848
3.46084
3.46477
3.46674
3.47005
3.47172
3.47452
3.47594
3.47831
3.4795
3.48151
3.4825
3.48416
3.48497
3.48627
3.48686
3.48773
3.48822
3.48915
3.48964
3.49053
3.49098
3.49178
3.49219
3.49289
3.49325
3.49386
3.49417
3.49468
3.49493
3.49532
3.49547
3.49561
3.49546
3.49473
3.49326
3.48826
3.47954
3.47251
3.45517
3.44101
3.40698
3.39697
3.39454
3.39396
3.39384
2.57287
2.7395
2.80103
2.90303
2.94173
3.00958
3.03647
3.08654
3.10647
3.14376
3.15777
3.18195
3.19329
3.21887
3.23021
3.25437
3.26484
3.28657
3.2959
3.31504
3.32322
3.33993
3.34706
3.36161
3.36783
3.38057
3.38612
3.39775
3.40349
3.41723
3.42989
3.43447
3.44209
3.44518
3.45112
3.4536
3.45852
3.46059
3.46474
3.46649
3.47
3.47149
3.47446
3.47572
3.47823
3.47927
3.48135
3.4822
3.48383
3.48445
3.48553
3.48605
3.48721
3.48773
3.48884
3.48932
3.49032
3.49075
3.49163
3.492
3.49277
3.49309
3.49374
3.494
3.49449
3.49465
3.49484
3.49469
3.49385
3.49235
3.48645
3.47572
3.46839
3.44685
3.4319
3.38804
3.37749
3.37516
3.37464
3.37452
2.41414
2.63123
2.69047
2.81688
2.85364
2.93778
2.96334
3.0256
3.04456
3.09103
3.10434
3.13413
3.1449
3.17683
3.18763
3.21776
3.22773
3.25481
3.26368
3.28754
3.29532
3.31614
3.32292
3.34104
3.34696
3.36281
3.36809
3.3825
3.38793
3.40459
3.41986
3.42418
3.43358
3.43652
3.4439
3.44626
3.45239
3.45436
3.45952
3.46119
3.46557
3.46698
3.47069
3.47188
3.475
3.476
3.47859
3.47939
3.48143
3.48202
3.48336
3.48384
3.4853
3.48579
3.48717
3.48763
3.48888
3.48929
3.49038
3.49074
3.49169
3.492
3.49281
3.49305
3.49368
3.49383
3.49408
3.49395
3.493
3.49163
3.48484
3.47178
3.46484
3.43827
3.42394
3.36777
3.35768
3.35572
3.35529
3.3552
2.24672
2.52927
2.57722
2.73431
2.76365
2.86832
2.88873
2.9664
2.98156
3.03963
3.05025
3.08706
3.09566
3.13563
3.14428
3.18195
3.18993
3.22377
3.23087
3.26067
3.2669
3.2929
3.29833
3.32096
3.32569
3.34548
3.3497
3.36761
3.37192
3.39202
3.41026
3.41367
3.42533
3.42767
3.43689
3.43877
3.44642
3.44799
3.45445
3.45578
3.46125
3.46237
3.46701
3.46796
3.47187
3.47266
3.4759
3.47654
3.47909
3.47956
3.48121
3.4816
3.48342
3.48382
3.48555
3.48591
3.48747
3.4878
3.48917
3.48945
3.49064
3.49089
3.4919
3.4921
3.49288
3.493
3.49334
3.49324
3.49217
3.49111
3.48348
3.46758
3.46207
3.4292
3.41765
3.34566
3.33755
3.33621
3.33593
3.33587
2.06801
2.43669
2.45961
2.65685
2.67064
2.80223
2.81184
2.90969
2.91683
2.99012
2.99512
3.04112
3.04516
3.09569
3.09977
3.14734
3.1511
3.1938
3.19715
3.23475
3.23768
3.27049
3.27305
3.30159
3.30382
3.32877
3.33075
3.35327
3.35527
3.37951
3.40126
3.40284
3.41746
3.41856
3.43016
3.43105
3.4407
3.44144
3.44958
3.4502
3.4571
3.45763
3.46348
3.46393
3.46885
3.46923
3.47331
3.47362
3.47683
3.47705
3.47912
3.4793
3.48161
3.48179
3.48398
3.48415
3.48611
3.48627
3.488
3.48813
3.48963
3.48975
3.49102
3.49112
3.49211
3.49216
3.49261
3.49257
3.49133
3.49086
3.48245
3.46298
3.4604
3.41927
3.41378
3.32099
3.31715
3.31666
3.31657
3.31655
2.068
2.43668
2.4596
2.65684
2.67064
2.80223
2.81184
2.90969
2.91683
2.99012
2.99512
3.04111
3.04516
3.09568
3.09977
3.14734
3.1511
3.1938
3.19715
3.23475
3.23768
3.27049
3.27305
3.30159
3.30382
3.32877
3.33075
3.35327
3.35527
3.37951
3.40126
3.40284
3.41746
3.41856
3.43016
3.43105
3.44069
3.44144
3.44957
3.4502
3.4571
3.45763
3.46348
3.46393
3.46885
3.46923
3.47331
3.47362
3.47683
3.47705
3.47912
3.4793
3.48161
3.48179
3.48397
3.48415
3.48611
3.48627
3.488
3.48813
3.48963
3.48975
3.49102
3.49112
3.49211
3.49216
3.49261
3.49257
3.49133
3.49086
3.48245
3.46298
3.4604
3.41927
3.41378
3.32099
3.31715
3.31666
3.31656
3.31654
2.24672
2.52926
2.57722
2.7343
2.76365
2.86832
2.88873
2.9664
2.98156
3.03962
3.05025
3.08706
3.09566
3.13563
3.14428
3.18195
3.18993
3.22377
3.23087
3.26067
3.2669
3.2929
3.29833
3.32096
3.32569
3.34548
3.3497
3.36761
3.37192
3.39202
3.41026
3.41367
3.42533
3.42767
3.43689
3.43877
3.44642
3.44799
3.45445
3.45578
3.46125
3.46237
3.46701
3.46796
3.47187
3.47266
3.4759
3.47654
3.47909
3.47956
3.48121
3.4816
3.48342
3.48382
3.48555
3.48591
3.48747
3.4878
3.48917
3.48945
3.49064
3.49089
3.4919
3.4921
3.49288
3.493
3.49333
3.49324
3.49217
3.49111
3.48348
3.46758
3.46207
3.4292
3.41765
3.34566
3.33755
3.33621
3.33593
3.33587
2.41414
2.63123
2.69047
2.81687
2.85364
2.93778
2.96333
3.0256
3.04456
3.09103
3.10434
3.13412
3.1449
3.17682
3.18763
3.21776
3.22773
3.25481
3.26368
3.28753
3.29532
3.31614
3.32292
3.34104
3.34696
3.36281
3.36809
3.3825
3.38793
3.40459
3.41986
3.42418
3.43358
3.43651
3.4439
3.44626
3.45239
3.45436
3.45952
3.46119
3.46557
3.46698
3.47069
3.47188
3.475
3.476
3.47859
3.47939
3.48143
3.48202
3.48336
3.48384
3.4853
3.48579
3.48717
3.48763
3.48888
3.48929
3.49038
3.49074
3.49169
3.492
3.49281
3.49305
3.49368
3.49383
3.49408
3.49395
3.493
3.49163
3.48484
3.47178
3.46484
3.43827
3.42394
3.36777
3.35768
3.35572
3.35529
3.3552
2.57287
2.7395
2.80103
2.90303
2.94173
3.00958
3.03647
3.08654
3.10647
3.14376
3.15777
3.18195
3.19329
3.21887
3.23021
3.25437
3.26484
3.28657
3.2959
3.31504
3.32322
3.33993
3.34706
3.36161
3.36783
3.38057
3.38612
3.39775
3.40349
3.41722
3.42989
3.43447
3.44209
3.44518
3.45112
3.4536
3.45852
3.46059
3.46474
3.46649
3.47
3.47149
3.47446
3.47572
3.47823
3.47927
3.48135
3.4822
3.48383
3.48445
3.48553
3.48605
3.48721
3.48773
3.48884
3.48932
3.49032
3.49075
3.49163
3.492
3.49277
3.49309
3.49374
3.494
3.49449
3.49465
3.49484
3.49469
3.49385
3.49235
3.48645
3.47572
3.46839
3.44685
3.4319
3.38804
3.37749
3.37516
3.37464
3.37452
2.72493
2.85198
2.90998
2.99172
3.02866
3.08302
3.10867
3.14869
3.16768
3.19742
3.21079
3.23029
3.24112
3.26147
3.27228
3.29153
3.3015
3.31883
3.32771
3.34299
3.35078
3.36411
3.37091
3.38251
3.38844
3.39861
3.40391
3.41323
3.41874
3.4299
3.44025
3.44465
3.45078
3.45373
3.45848
3.46084
3.46477
3.46674
3.47005
3.47172
3.47452
3.47594
3.47831
3.4795
3.48151
3.4825
3.48416
3.48497
3.48627
3.48686
3.48773
3.48822
3.48915
3.48964
3.49053
3.49098
3.49178
3.49219
3.49289
3.49325
3.49386
3.49417
3.49468
3.49493
3.49532
3.49547
3.49561
3.49546
3.49473
3.49326
3.48826
3.47954
3.47251
3.45517
3.44101
3.40698
3.39697
3.39454
3.39396
3.39384
2.87192
2.96722
3.01797
3.08219
3.11489
3.15761
3.18031
3.21167
3.22846
3.25173
3.26357
3.27898
3.28856
3.30447
3.31401
3.32906
3.33787
3.35143
3.35928
3.37123
3.37812
3.38855
3.39456
3.40364
3.40889
3.41685
3.42154
3.42887
3.43376
3.44261
3.45084
3.45476
3.45959
3.4622
3.46593
3.46801
3.47109
3.47284
3.47543
3.4769
3.4791
3.48035
3.48221
3.48326
3.48483
3.48571
3.48701
3.48772
3.48873
3.48926
3.48995
3.49038
3.49111
3.49154
3.49223
3.49264
3.49326
3.49362
3.49417
3.49449
3.49496
3.49523
3.49564
3.49586
3.49616
3.49629
3.49639
3.49625
3.49564
3.4943
3.49021
3.48328
3.47704
3.46336
3.45093
3.42495
3.41614
3.41384
3.41328
3.41315
3.01509
3.08425
3.12543
3.17393
3.20072
3.233
3.25159
3.27524
3.28898
3.30651
3.3162
3.3279
3.33575
3.34771
3.35551
3.36684
3.37405
3.38425
3.39068
3.39968
3.40531
3.41317
3.41808
3.42493
3.42922
3.43522
3.43906
3.4446
3.44861
3.45534
3.46161
3.46483
3.46849
3.47063
3.47344
3.47515
3.47747
3.4789
3.48085
3.48206
3.48371
3.48473
3.48613
3.487
3.48818
3.4889
3.48987
3.49046
3.49122
3.49165
3.49217
3.49253
3.49307
3.49343
3.49395
3.49428
3.49475
3.49504
3.49546
3.49572
3.49608
3.4963
3.4966
3.49678
3.49701
3.49711
3.49718
3.49707
3.49657
3.49546
3.49227
3.487
3.48188
3.4715
3.46138
3.44224
3.43506
3.43307
3.43257
3.43245
3.15549
3.20239
3.23259
3.26654
3.28634
3.30894
3.32267
3.33921
3.34935
3.36159
3.36876
3.37698
3.38278
3.39112
3.39688
3.40479
3.4101
3.41723
3.42197
3.42826
3.43242
3.43791
3.44153
3.44631
3.44948
3.45368
3.45651
3.46039
3.46336
3.46809
3.4725
3.47489
3.47746
3.47904
3.481
3.48227
3.48389
3.48494
3.4863
3.48719
3.48835
3.4891
3.49008
3.49072
3.49154
3.49208
3.49276
3.49319
3.49372
3.49404
3.49441
3.49467
3.49505
3.49531
3.49567
3.49592
3.49625
3.49646
3.49675
3.49694
3.49719
3.49736
3.49757
3.4977
3.49786
3.49794
3.49798
3.49789
3.49753
3.4967
3.49442
3.49071
3.48692
3.47964
3.47219
3.45905
3.45376
3.45224
3.45185
3.45176
3.29402
3.3212
3.3396
3.35971
3.37183
3.38523
3.39364
3.40343
3.40964
3.41688
3.42127
3.42615
3.4297
3.43464
3.43816
3.44283
3.44609
3.4503
3.4532
3.45692
3.45947
3.46272
3.46494
3.46777
3.4697
3.47219
3.47392
3.47622
3.47804
3.48085
3.48347
3.48493
3.48646
3.48743
3.48859
3.48936
3.49032
3.49097
3.49178
3.49232
3.493
3.49347
3.49404
3.49443
3.49492
3.49525
3.49565
3.49591
3.49623
3.49642
3.49664
3.4968
3.49703
3.49719
3.4974
3.49755
3.49775
3.49788
3.49805
3.49817
3.49832
3.49842
3.49854
3.49862
3.49871
3.49876
3.49879
3.49873
3.49851
3.498
3.49663
3.49442
3.4921
3.48778
3.48323
3.47555
3.47232
3.47136
3.47111
3.47106
3.43146
3.44036
3.44654
3.4532
3.45728
3.46172
3.46455
3.46779
3.46988
3.47228
3.47376
3.47538
3.47657
3.47821
3.47939
3.48094
3.48203
3.48343
3.4844
3.48564
3.48649
3.48757
3.48831
3.48925
3.4899
3.49073
3.49131
3.49207
3.49269
3.49361
3.49448
3.49498
3.49548
3.49581
3.4962
3.49646
3.49677
3.49699
3.49726
3.49744
3.49767
3.49782
3.49801
3.49815
3.49831
3.49842
3.49855
3.49864
3.49874
3.49881
3.49888
3.49893
3.49901
3.49906
3.49913
3.49918
3.49925
3.49929
3.49935
3.49939
3.49944
3.49947
3.49951
3.49954
3.49957
3.49959
3.4996
3.49958
3.4995
3.49933
3.49887
3.49814
3.49736
3.49592
3.4944
3.49187
3.49078
3.49046
3.49037
3.49035
3.43195
3.44029
3.44563
3.45067
3.4534
3.45591
3.45731
3.45866
3.45942
3.46016
3.46067
3.46135
3.46183
3.46245
3.46289
3.46344
3.46384
3.46434
3.46469
3.46513
3.46545
3.46584
3.46612
3.46646
3.46671
3.46701
3.46723
3.46751
3.46774
3.46808
3.46839
3.46856
3.46874
3.46885
3.46898
3.46906
3.46916
3.46923
3.46931
3.46937
3.46944
3.46948
3.46953
3.46957
3.46962
3.46964
3.46968
3.4697
3.46973
3.46974
3.46976
3.46977
3.46979
3.4698
3.46981
3.46982
3.46982
3.46982
3.46982
3.46982
3.46981
3.46979
3.46976
3.46972
3.46966
3.46959
3.46946
3.4693
3.46898
3.46851
3.46746
3.46599
3.46467
3.46249
3.4604
3.45711
3.4557
3.45528
3.45517
3.45515
3.29553
3.32098
3.3369
3.35209
3.36022
3.36777
3.37193
3.376
3.37825
3.38048
3.38201
3.38405
3.38548
3.38735
3.38865
3.39034
3.39151
3.39302
3.39406
3.39541
3.39633
3.39753
3.39835
3.3994
3.40012
3.40104
3.40169
3.40254
3.40321
3.40423
3.40517
3.40569
3.40622
3.40655
3.40693
3.40718
3.40749
3.40769
3.40794
3.4081
3.40831
3.40844
3.4086
3.40871
3.40885
3.40893
3.40904
3.40911
3.40918
3.40923
3.40928
3.40932
3.40936
3.40939
3.40943
3.40945
3.40947
3.40947
3.40947
3.40945
3.40942
3.40937
3.40928
3.40918
3.40899
3.40878
3.40839
3.40792
3.40696
3.40556
3.40238
3.39797
3.39405
3.38748
3.38124
3.37125
3.36707
3.36583
3.36551
3.36544
3.15809
3.20205
3.2282
3.25379
3.26706
3.27977
3.28655
3.29341
3.29708
3.30083
3.30333
3.30678
3.30912
3.31228
3.3144
3.31725
3.31916
3.32171
3.32342
3.3257
3.32721
3.32923
3.33057
3.33234
3.33352
3.33508
3.33614
3.33758
3.33867
3.34039
3.34197
3.34282
3.3437
3.34424
3.34489
3.3453
3.34582
3.34615
3.34657
3.34684
3.34718
3.3474
3.34768
3.34786
3.34808
3.34822
3.3484
3.34851
3.34864
3.34872
3.3488
3.34886
3.34894
3.34899
3.34905
3.34908
3.34911
3.34912
3.34912
3.34909
3.34903
3.34895
3.34879
3.34863
3.34831
3.34797
3.34731
3.34656
3.34495
3.34268
3.33736
3.32994
3.32353
3.31245
3.30222
3.28516
3.27832
3.27635
3.27585
3.27573
3.01888
3.08384
3.11952
3.15599
3.17392
3.192
3.20117
3.21095
3.21591
3.22123
3.22461
3.22955
3.23272
3.23725
3.24013
3.24421
3.24679
3.25045
3.25276
3.25602
3.25807
3.26096
3.26277
3.26531
3.26691
3.26914
3.27057
3.27263
3.2741
3.27655
3.2788
3.27994
3.2812
3.28193
3.28286
3.28342
3.28416
3.2846
3.2852
3.28557
3.28606
3.28635
3.28675
3.28699
3.28732
3.28751
3.28776
3.28791
3.2881
3.2882
3.28833
3.2884
3.28851
3.28858
3.28867
3.28871
3.28876
3.28877
3.28876
3.28873
3.28864
3.28854
3.28831
3.28809
3.28763
3.28718
3.28624
3.28523
3.28297
3.27992
3.27242
3.26186
3.25319
3.23739
3.22349
3.19867
3.18938
3.18681
3.18616
3.18602
2.87708
2.96679
3.0108
3.05893
3.08078
3.10459
3.11576
3.12868
3.13473
3.14171
3.14583
3.15239
3.15627
3.16228
3.1658
3.17122
3.17438
3.17923
3.18206
3.18638
3.18889
3.19273
3.19494
3.19832
3.20027
3.20324
3.20498
3.2077
3.2095
3.21272
3.21568
3.21706
3.21873
3.21961
3.22084
3.22152
3.22251
3.22305
3.22385
3.22429
3.22494
3.22531
3.22584
3.22613
3.22656
3.22679
3.22713
3.22731
3.22756
3.22769
3.22785
3.22794
3.22809
3.22817
3.22829
3.22835
3.22841
3.22843
3.22841
3.22837
3.22825
3.22813
3.22783
3.22756
3.22696
3.22641
3.22518
3.22394
3.22102
3.21734
3.20761
3.1937
3.18315
3.16226
3.14519
3.11155
3.10016
3.09719
3.09646
3.0963
2.7317
2.85158
2.90193
2.96292
2.98756
3.01769
3.03028
3.04669
3.0535
3.0623
3.06696
3.07534
3.07973
3.08742
3.0914
3.09832
3.1019
3.1081
3.1113
3.11682
3.11966
3.12456
3.12707
3.13138
3.13359
3.13738
3.13935
3.14281
3.14484
3.1489
3.15261
3.15417
3.15628
3.15728
3.15885
3.15962
3.16087
3.16149
3.16251
3.16301
3.16384
3.16425
3.16493
3.16526
3.16581
3.16607
3.16651
3.16671
3.16703
3.16717
3.16738
3.16748
3.16767
3.16777
3.16792
3.16798
3.16806
3.16808
3.16806
3.16802
3.16786
3.16772
3.16735
3.16704
3.16628
3.16566
3.16411
3.16273
3.1591
3.155
3.14296
3.12541
3.11351
3.08697
3.06755
3.02354
3.01061
3.00747
3.00674
3.00657
2.58151
2.73915
2.79262
2.86837
2.89412
2.93149
2.94465
2.96508
2.9722
2.98306
2.98793
2.99846
3.00306
3.0127
3.01688
3.02556
3.02931
3.03709
3.04044
3.04737
3.05035
3.05649
3.05913
3.06453
3.06684
3.07159
3.07366
3.07798
3.08009
3.0851
3.08964
3.09125
3.09388
3.09492
3.09689
3.0977
3.09927
3.09991
3.10119
3.10172
3.10276
3.10319
3.10403
3.10438
3.10507
3.10535
3.10589
3.1061
3.10651
3.10666
3.10691
3.10702
3.10726
3.10736
3.10754
3.10761
3.10771
3.10773
3.10771
3.10767
3.10748
3.10733
3.10686
3.10654
3.1056
3.10495
3.10304
3.10161
3.0972
3.09297
3.07854
3.05689
3.04446
3.01139
2.99089
2.93428
2.92067
2.91767
2.91699
2.91684
2.42502
2.63088
2.68243
2.77581
2.80021
2.84625
2.85873
2.884
2.89075
2.90406
2.90868
2.9218
2.92618
2.9382
2.94218
2.95299
2.95657
2.96625
2.96944
2.97808
2.98092
2.98856
2.99107
2.9978
3
3.00592
3.00788
3.01324
3.01523
3.02131
3.02678
3.0283
3.03154
3.03253
3.03497
3.03574
3.0377
3.03831
3.0399
3.0404
3.0417
3.04211
3.04316
3.04349
3.04435
3.04461
3.04529
3.04549
3.04599
3.04613
3.04644
3.04655
3.04685
3.04694
3.04718
3.04724
3.04737
3.04739
3.04737
3.04732
3.04709
3.04695
3.04637
3.04607
3.04491
3.04429
3.04195
3.0406
3.03529
3.03136
3.0144
2.98801
2.97624
2.93532
2.91568
2.84331
2.8303
2.82777
2.82722
2.8271
2.2603
2.52878
2.57056
2.68601
2.70544
2.76236
2.7723
2.80366
2.80904
2.8254
2.82908
2.8455
2.84901
2.86403
2.86721
2.88072
2.88357
2.89567
2.89823
2.90902
2.91129
2.92084
2.92285
2.93125
2.93302
2.9404
2.94197
2.94863
2.95021
2.95755
2.96408
2.96528
2.96929
2.97008
2.97313
2.97374
2.97618
2.97667
2.97865
2.97905
2.98067
2.981
2.98231
2.98258
2.98365
2.98386
2.9847
2.98487
2.98549
2.98561
2.98599
2.98607
2.98645
2.98652
2.98682
2.98687
2.98703
2.98704
2.98702
2.98698
2.98669
2.98658
2.98587
2.98563
2.98419
2.9837
2.98082
2.97976
2.97332
2.97027
2.95063
2.91854
2.90919
2.85839
2.84258
2.74997
2.73952
2.73779
2.73743
2.73735
2.08484
2.43575
2.45575
2.60006
2.60916
2.68035
2.68501
2.72437
2.72689
2.74725
2.74898
2.76971
2.77137
2.79032
2.79182
2.80887
2.81021
2.82548
2.82668
2.84029
2.84137
2.85342
2.85437
2.86497
2.8658
2.87511
2.87585
2.88422
2.88496
2.89382
2.90159
2.90214
2.90717
2.90754
2.91138
2.91167
2.91474
2.91497
2.91747
2.91766
2.9197
2.91985
2.92151
2.92164
2.92298
2.92308
2.92414
2.92422
2.92501
2.92507
2.92554
2.92558
2.92606
2.9261
2.92647
2.92649
2.92669
2.9267
2.92667
2.92666
2.92629
2.92624
2.92535
2.92523
2.92343
2.92321
2.91962
2.91913
2.91122
2.90984
2.88737
2.84816
2.84379
2.78006
2.77255
2.65333
2.64838
2.64776
2.64763
2.6476
)
;

boundaryField
{
    F1_1
    {
        type            fixedValue;
        value           nonuniform List<scalar> 
80
(
1.99032
2.39637
2.39637
2.56089
2.56089
2.64304
2.64304
2.69064
2.69064
2.72081
2.72081
2.73818
2.73818
2.75724
2.75724
2.77542
2.77542
2.79213
2.79213
2.80724
2.80724
2.82072
2.82072
2.83264
2.83264
2.84312
2.84312
2.85255
2.85255
2.86226
2.8707
2.8707
2.87637
2.87637
2.88071
2.88071
2.88418
2.88418
2.88701
2.88701
2.88932
2.88932
2.8912
2.8912
2.89272
2.89272
2.89392
2.89392
2.89482
2.89482
2.89536
2.89536
2.8959
2.8959
2.89632
2.89632
2.89655
2.89655
2.89651
2.89651
2.8961
2.8961
2.89508
2.89508
2.89303
2.89303
2.88896
2.88896
2.88005
2.88005
2.85608
2.81228
2.81228
2.73977
2.73977
2.60273
2.60273
2.60273
2.60273
2.60273
)
;
    }
    F1_2
    {
        type            fixedValue;
        value           nonuniform List<scalar> 
80
(
1.97127
2.39731
2.39731
2.62178
2.62178
2.77162
2.77162
2.88314
2.88314
2.96673
2.96673
3.01898
3.01898
3.07664
3.07664
3.1309
3.1309
3.17961
3.17961
3.22248
3.22248
3.25988
3.25988
3.29243
3.29243
3.32087
3.32087
3.3465
3.3465
3.37331
3.39716
3.39716
3.41379
3.41379
3.42701
3.42701
3.43801
3.43801
3.44729
3.44729
3.45515
3.45515
3.46182
3.46182
3.46744
3.46744
3.47209
3.47209
3.47576
3.47576
3.47811
3.47811
3.48074
3.48074
3.48323
3.48323
3.48547
3.48547
3.48744
3.48744
3.48915
3.48915
3.49061
3.49061
3.49174
3.49174
3.49226
3.49226
3.4909
3.4909
3.48215
3.46033
3.46033
3.4136
3.4136
3.30688
3.30688
3.30688
3.30688
3.30688
)
;
    }
    F1_3
    {
        type            fixedValue;
        value           nonuniform List<scalar> 
80
(
1.97127
2.39731
2.39731
2.62178
2.62178
2.77162
2.77162
2.88314
2.88314
2.96673
2.96673
3.01898
3.01898
3.07664
3.07664
3.1309
3.1309
3.1796
3.1796
3.22248
3.22248
3.25988
3.25988
3.29243
3.29243
3.32087
3.32087
3.3465
3.3465
3.37331
3.39716
3.39716
3.41379
3.41379
3.42701
3.42701
3.43801
3.43801
3.44729
3.44729
3.45515
3.45515
3.46182
3.46182
3.46743
3.46743
3.47209
3.47209
3.47576
3.47576
3.47811
3.47811
3.48074
3.48074
3.48323
3.48323
3.48547
3.48547
3.48744
3.48744
3.48915
3.48915
3.49061
3.49061
3.49174
3.49174
3.49226
3.49226
3.4909
3.4909
3.48215
3.46033
3.46033
3.4136
3.4136
3.30688
3.30688
3.30688
3.30688
3.30688
)
;
    }
    F1_4
    {
        type            fixedValue;
        value           nonuniform List<scalar> 
80
(
1.99009
2.39586
2.39586
2.55979
2.55979
2.64067
2.64067
2.68545
2.68545
2.70855
2.70855
2.7322
2.7322
2.75382
2.75382
2.77325
2.77325
2.79066
2.79066
2.80618
2.80618
2.81993
2.81993
2.83202
2.83202
2.84264
2.84264
2.85217
2.85217
2.86197
2.87049
2.87049
2.8762
2.8762
2.88057
2.88057
2.88408
2.88408
2.88692
2.88692
2.88925
2.88925
2.89114
2.89114
2.89267
2.89267
2.89388
2.89388
2.89479
2.89479
2.89533
2.89533
2.89587
2.89587
2.8963
2.8963
2.89653
2.89653
2.8965
2.8965
2.89609
2.89609
2.89507
2.89507
2.89303
2.89303
2.88896
2.88896
2.88004
2.88004
2.85607
2.81228
2.81228
2.73977
2.73977
2.60273
2.60273
2.60273
2.60273
2.60273
)
;
    }
    F2_1
    {
        type            fixedValue;
        value           uniform 3.5;
    }
    F2_2
    {
        type            fixedValue;
        value           uniform 3.5;
    }
    F2_3
    {
        type            fixedValue;
        value           uniform 3.5;
    }
    F2_4
    {
        type            fixedValue;
        value           uniform 3.5;
    }
    defaultFaces
    {
        type            empty;
    }
}


// ************************************************************************* //
