/*--------------------------------*- C++ -*----------------------------------*\
| =========                 |                                                 |
| \\      /  F ield         | OpenFOAM: The Open Source CFD Toolbox           |
|  \\    /   O peration     | Version:  5.x                                   |
|   \\  /    A nd           | Web:      www.OpenFOAM.org                      |
|    \\/     M anipulation  |                                                 |
\*---------------------------------------------------------------------------*/
FoamFile
{
    version     2.0;
    format      ascii;
    class       volScalarField;
    location    "0.8";
    object      T;
}
// * * * * * * * * * * * * * * * * * * * * * * * * * * * * * * * * * * * * * //

dimensions      [0 0 0 1 0 0 0];

internalField   nonuniform List<scalar> 
3200
(
2.21305
2.5198
2.53715
2.66012
2.66778
2.72581
2.7296
2.76118
2.76333
2.78287
2.78419
2.79588
2.79695
2.81062
2.81176
2.82561
2.82673
2.83982
2.84085
2.85248
2.85337
2.86309
2.86381
2.87146
2.87202
2.87774
2.87815
2.88229
2.88261
2.88586
2.88807
2.88821
2.8892
2.88926
2.88977
2.8898
2.89008
2.89009
2.89024
2.89025
2.89032
2.89033
2.89036
2.89037
2.89038
2.89038
2.89037
2.89037
2.89036
2.89035
2.89033
2.89033
2.89027
2.89026
2.89016
2.89015
2.88996
2.88994
2.88963
2.88959
2.88904
2.88897
2.888
2.88788
2.8861
2.88588
2.8824
2.88191
2.87415
2.87277
2.85026
2.8106
2.80616
2.74133
2.7337
2.61268
2.60766
2.60702
2.60689
2.60687
2.37169
2.60635
2.64258
2.74101
2.75735
2.80381
2.81189
2.8371
2.84168
2.85722
2.86002
2.86941
2.87167
2.88249
2.88491
2.89587
2.89825
2.90862
2.9108
2.92001
2.9219
2.9296
2.93113
2.93719
2.93837
2.94291
2.94378
2.94707
2.94774
2.9504
2.9523
2.95261
2.9534
2.95354
2.95394
2.95401
2.95423
2.95427
2.95438
2.9544
2.95446
2.95447
2.9545
2.95451
2.95452
2.95452
2.95451
2.95451
2.9545
2.95449
2.95447
2.95447
2.95442
2.95441
2.95432
2.9543
2.95415
2.95411
2.95386
2.95378
2.95334
2.9532
2.95243
2.95218
2.95075
2.95028
2.94748
2.94644
2.94011
2.93706
2.91737
2.88492
2.87542
2.82375
2.80769
2.71368
2.70307
2.70132
2.70095
2.70087
2.52094
2.70082
2.74553
2.82518
2.84571
2.88334
2.8935
2.91385
2.91959
2.93208
2.9356
2.94321
2.94605
2.95469
2.95773
2.96649
2.96946
2.97775
2.98047
2.98784
2.99019
2.99635
2.99827
3.00312
3.00459
3.00823
3.00932
3.01196
3.0128
3.01499
3.0166
3.017
3.01764
3.01781
3.01814
3.01823
3.0184
3.01845
3.01854
3.01857
3.01862
3.01863
3.01865
3.01866
3.01867
3.01867
3.01866
3.01866
3.01865
3.01865
3.01863
3.01862
3.01858
3.01857
3.0185
3.01847
3.01835
3.01829
3.01809
3.01799
3.01764
3.01747
3.01684
3.01653
3.01538
3.01478
3.01251
3.01118
3.00595
3.00203
2.985
2.95832
2.94638
2.90476
2.88481
2.81135
2.79814
2.79557
2.79501
2.79489
2.66299
2.8007
2.84707
2.91171
2.93338
2.96397
2.97469
2.99117
2.99723
3.0073
3.01101
3.01721
3.0202
3.02713
3.03031
3.03733
3.04045
3.0471
3.04996
3.05586
3.05834
3.06328
3.06529
3.06918
3.07073
3.07365
3.0748
3.07693
3.07781
3.07961
3.08096
3.08138
3.08191
3.08209
3.08236
3.08245
3.08259
3.08264
3.08272
3.08274
3.08278
3.08279
3.08281
3.08282
3.08282
3.08283
3.08282
3.08282
3.08281
3.08281
3.08279
3.08278
3.08275
3.08274
3.08268
3.08265
3.08255
3.0825
3.08233
3.08223
3.08194
3.08176
3.08126
3.08093
3.07999
3.07936
3.0775
3.0761
3.07175
3.06753
3.05303
3.03115
3.01854
2.98491
2.96408
2.90662
2.89279
2.88975
2.88905
2.8889
2.79952
2.90423
2.94788
2.99996
3.0207
3.0454
3.05566
3.06892
3.0747
3.08278
3.08633
3.09134
3.0942
3.09971
3.10274
3.10833
3.1113
3.1166
3.11932
3.12403
3.12639
3.13032
3.13224
3.13534
3.13682
3.13915
3.14024
3.14195
3.1428
3.14425
3.14536
3.14577
3.1462
3.14637
3.14659
3.14668
3.14679
3.14684
3.1469
3.14692
3.14695
3.14697
3.14698
3.14699
3.14699
3.14699
3.14699
3.14699
3.14698
3.14698
3.14697
3.14696
3.14693
3.14692
3.14687
3.14684
3.14676
3.14671
3.14658
3.14648
3.14625
3.14608
3.14567
3.14536
3.1446
3.144
3.14249
3.14113
3.13755
3.13345
3.12136
3.10362
3.09154
3.06455
3.04482
3.00015
2.98702
2.98384
2.98309
2.98292
2.93186
3.0102
3.04835
3.08946
3.10786
3.1274
3.1365
3.14697
3.15209
3.15844
3.16158
3.16555
3.16808
3.17239
3.17507
3.17944
3.18206
3.1862
3.18861
3.19229
3.19437
3.19745
3.19914
3.20157
3.20288
3.2047
3.20567
3.20701
3.20776
3.20891
3.2098
3.21017
3.21051
3.21066
3.21083
3.21091
3.211
3.21104
3.21109
3.21111
3.21113
3.21115
3.21116
3.21116
3.21117
3.21117
3.21117
3.21116
3.21116
3.21115
3.21114
3.21114
3.21112
3.2111
3.21107
3.21104
3.21098
3.21093
3.21083
3.21074
3.21056
3.21041
3.21009
3.20981
3.20921
3.20867
3.20748
3.20626
3.20338
3.19969
3.18992
3.17586
3.16515
3.14391
3.12657
3.09242
3.08086
3.07784
3.0771
3.07694
3.06107
3.11777
3.1487
3.17986
3.19497
3.20982
3.21729
3.22523
3.22943
3.23423
3.23681
3.23983
3.2419
3.24514
3.24733
3.25062
3.25276
3.25588
3.25785
3.26062
3.26232
3.26463
3.26602
3.26785
3.26892
3.27029
3.27108
3.27209
3.27271
3.27358
3.27427
3.27457
3.27483
3.27495
3.27508
3.27515
3.27521
3.27525
3.27528
3.2753
3.27532
3.27533
3.27534
3.27534
3.27535
3.27535
3.27535
3.27534
3.27534
3.27534
3.27533
3.27532
3.27531
3.2753
3.27527
3.27525
3.2752
3.27516
3.27508
3.27501
3.27487
3.27475
3.27451
3.27428
3.27383
3.27338
3.27247
3.27147
3.26924
3.26619
3.25865
3.24797
3.23918
3.22312
3.209
3.1838
3.17436
3.17176
3.1711
3.17095
3.188
3.22637
3.24903
3.27091
3.28209
3.29254
3.29807
3.30364
3.30674
3.31011
3.31201
3.31414
3.31567
3.31793
3.31955
3.32184
3.32343
3.3256
3.32705
3.32898
3.33024
3.33186
3.33288
3.33416
3.33495
3.33591
3.33649
3.3372
3.33765
3.33826
3.33875
3.33897
3.33916
3.33925
3.33934
3.33939
3.33943
3.33946
3.33949
3.3395
3.33951
3.33952
3.33952
3.33953
3.33953
3.33953
3.33953
3.33953
3.33952
3.33952
3.33952
3.33951
3.3395
3.33949
3.33948
3.33946
3.33943
3.3394
3.33934
3.33929
3.33919
3.3391
3.33893
3.33876
3.33844
3.33812
3.33747
3.33673
3.33514
3.33287
3.32752
3.32002
3.31351
3.30226
3.29187
3.27455
3.2676
3.2656
3.26509
3.26497
3.31339
3.3356
3.3494
3.36238
3.36923
3.37545
3.37884
3.38214
3.38405
3.38604
3.38721
3.38847
3.38941
3.39075
3.39174
3.3931
3.39406
3.39535
3.39624
3.39738
3.39815
3.39911
3.39973
3.40049
3.40097
3.40154
3.4019
3.40231
3.40259
3.40296
3.40324
3.40338
3.40349
3.40355
3.4036
3.40363
3.40366
3.40367
3.40369
3.4037
3.40371
3.40371
3.40371
3.40372
3.40372
3.40372
3.40372
3.40372
3.40371
3.40371
3.40371
3.40371
3.4037
3.40369
3.40368
3.40367
3.40365
3.40364
3.4036
3.40357
3.40351
3.40346
3.40336
3.40325
3.40306
3.40286
3.40248
3.40202
3.40107
3.39967
3.39648
3.39202
3.38804
3.38136
3.37502
3.36488
3.36064
3.35938
3.35906
3.35898
3.43789
3.44517
3.44979
3.4541
3.45641
3.45847
3.45961
3.46071
3.46135
3.46201
3.4624
3.46282
3.46314
3.46358
3.46391
3.46436
3.46469
3.46511
3.46541
3.46579
3.46605
3.46637
3.46658
3.46683
3.46699
3.46718
3.4673
3.46744
3.46753
3.46765
3.46775
3.46779
3.46783
3.46785
3.46787
3.46788
3.46789
3.46789
3.4679
3.4679
3.4679
3.4679
3.4679
3.4679
3.46791
3.46791
3.46791
3.4679
3.4679
3.4679
3.4679
3.4679
3.4679
3.4679
3.46789
3.46789
3.46788
3.46788
3.46787
3.46786
3.46784
3.46782
3.46779
3.46775
3.46769
3.46762
3.46749
3.46734
3.46702
3.46655
3.46549
3.46401
3.46267
3.46045
3.45832
3.45499
3.45356
3.45313
3.45302
3.45299
3.44607
3.45343
3.45847
3.46381
3.46702
3.47044
3.47259
3.47499
3.47651
3.47823
3.47927
3.48038
3.48118
3.48225
3.483
3.48396
3.48462
3.48543
3.48597
3.48662
3.48706
3.48758
3.48792
3.48831
3.48857
3.48887
3.48907
3.4893
3.48946
3.48966
3.48984
3.48992
3.48999
3.49003
3.49007
3.49009
3.49012
3.49013
3.49014
3.49015
3.49016
3.49016
3.49016
3.49017
3.49017
3.49017
3.49017
3.49017
3.49017
3.49017
3.49017
3.49017
3.49017
3.49017
3.49017
3.49017
3.49017
3.49017
3.49017
3.49017
3.49017
3.49017
3.49017
3.49016
3.49016
3.49014
3.49011
3.49005
3.48992
3.48966
3.48903
3.48805
3.48705
3.48524
3.48336
3.48027
3.47894
3.47854
3.47844
3.47841
3.33792
3.36039
3.37541
3.39151
3.40106
3.41138
3.41775
3.42501
3.42954
3.43471
3.4378
3.44115
3.44353
3.44676
3.449
3.4519
3.45385
3.45629
3.4579
3.45988
3.46118
3.46274
3.46375
3.46495
3.46572
3.46663
3.46721
3.46789
3.46837
3.469
3.46951
3.46977
3.46998
3.4701
3.47022
3.47028
3.47035
3.47039
3.47043
3.47045
3.47047
3.47048
3.47049
3.4705
3.47051
3.47051
3.47052
3.47052
3.47052
3.47052
3.47052
3.47052
3.47052
3.47052
3.47052
3.47052
3.47052
3.47052
3.47052
3.47052
3.47052
3.47052
3.47051
3.4705
3.47047
3.47043
3.47033
3.47016
3.46976
3.469
3.4671
3.46416
3.46117
3.45574
3.45013
3.44073
3.43678
3.43562
3.43531
3.43524
3.22888
3.26765
3.2923
3.31947
3.33506
3.35247
3.36287
3.37514
3.38253
3.39128
3.39632
3.40197
3.40585
3.41131
3.41498
3.41988
3.42306
3.42719
3.42983
3.43317
3.43529
3.43793
3.43958
3.44161
3.44287
3.4444
3.44535
3.44651
3.44728
3.44834
3.44921
3.44962
3.44999
3.45018
3.45037
3.45048
3.45059
3.45065
3.45072
3.45075
3.45079
3.45081
3.45083
3.45084
3.45086
3.45086
3.45087
3.45087
3.45087
3.45088
3.45088
3.45088
3.45088
3.45088
3.45088
3.45088
3.45088
3.45088
3.45088
3.45088
3.45087
3.45087
3.45085
3.45084
3.45079
3.45072
3.45056
3.45029
3.44962
3.44839
3.44523
3.44028
3.43541
3.42625
3.41705
3.40099
3.39453
3.39266
3.39219
3.39208
3.11827
3.17546
3.20909
3.2479
3.26899
3.29385
3.30792
3.32546
3.33548
3.348
3.35482
3.36286
3.36812
3.37594
3.38091
3.38793
3.39225
3.39816
3.40173
3.40652
3.40938
3.41317
3.4154
3.41831
3.42001
3.42221
3.42349
3.42515
3.42619
3.4277
3.42894
3.42949
3.43001
3.43026
3.43054
3.43069
3.43085
3.43093
3.43102
3.43107
3.43113
3.43115
3.43118
3.4312
3.43122
3.43122
3.43123
3.43124
3.43124
3.43124
3.43124
3.43125
3.43125
3.43125
3.43125
3.43125
3.43125
3.43125
3.43125
3.43124
3.43124
3.43123
3.43121
3.43119
3.43113
3.43104
3.43081
3.43045
3.42951
3.42787
3.42343
3.4164
3.40982
3.39677
3.38427
3.36088
3.3521
3.34967
3.34906
3.34892
3.00538
3.08422
3.12567
3.17704
3.20278
3.23566
3.25284
3.27609
3.28833
3.30495
3.31327
3.32386
3.33028
3.34069
3.34677
3.35609
3.36138
3.36922
3.37359
3.37996
3.38345
3.38848
3.3912
3.39507
3.39715
3.40006
3.40163
3.40382
3.40509
3.40709
3.4087
3.40938
3.41005
3.41037
3.41073
3.41091
3.41112
3.41123
3.41135
3.41141
3.41148
3.41151
3.41155
3.41157
3.41159
3.4116
3.41161
3.41162
3.41162
3.41163
3.41163
3.41163
3.41163
3.41163
3.41163
3.41163
3.41163
3.41163
3.41163
3.41163
3.41162
3.41161
3.41159
3.41156
3.41148
3.41137
3.41108
3.41065
3.40945
3.40748
3.40176
3.39253
3.38452
3.36729
3.35193
3.3202
3.30943
3.30662
3.30593
3.30578
2.88933
2.99448
3.04185
3.1072
3.13627
3.1781
3.19752
3.22716
3.24101
3.26224
3.27164
3.28504
3.29229
3.30562
3.3125
3.32443
3.33041
3.34044
3.34538
3.35352
3.35748
3.36389
3.36698
3.37192
3.37427
3.37799
3.37976
3.38256
3.38399
3.38651
3.38853
3.38929
3.39013
3.39049
3.39095
3.39115
3.39142
3.39154
3.3917
3.39176
3.39185
3.39189
3.39194
3.39196
3.39199
3.392
3.39202
3.39202
3.39203
3.39203
3.39204
3.39204
3.39204
3.39204
3.39204
3.39204
3.39204
3.39204
3.39204
3.39204
3.39203
3.39202
3.39199
3.39196
3.39186
3.39173
3.39137
3.3909
3.38944
3.38726
3.38025
3.36863
3.3596
3.33775
3.32028
3.2787
3.26647
3.26351
3.26281
3.26265
2.76907
2.90704
2.95731
3.03881
3.06926
3.12144
3.14179
3.17887
3.19339
3.22001
3.22986
3.24647
3.25407
3.27081
3.27805
3.29301
3.29929
3.31187
3.31706
3.32726
3.33142
3.33946
3.3427
3.34888
3.35135
3.35601
3.35787
3.36136
3.36286
3.36598
3.36843
3.36921
3.37026
3.37063
3.37121
3.37142
3.37176
3.37188
3.37208
3.37215
3.37226
3.3723
3.37236
3.37238
3.37242
3.37243
3.37245
3.37245
3.37246
3.37247
3.37247
3.37247
3.37247
3.37247
3.37248
3.37248
3.37248
3.37248
3.37247
3.37247
3.37246
3.37245
3.37241
3.37238
3.37226
3.37213
3.3717
3.37121
3.36949
3.36726
3.35895
3.34465
3.33523
3.30807
3.28961
3.23606
3.22317
3.22034
3.21969
3.21955
2.64329
2.82311
2.87152
2.97246
3.00138
3.06605
3.08539
3.13148
3.1453
3.17846
3.18782
3.20827
3.21549
3.2364
3.24329
3.26196
3.26794
3.28362
3.28856
3.30126
3.30522
3.31523
3.31832
3.32602
3.32837
3.33417
3.33594
3.34028
3.3417
3.3455
3.34842
3.34916
3.35045
3.3508
3.35151
3.35171
3.35213
3.35225
3.35249
3.35256
3.3527
3.35274
3.35281
3.35283
3.35288
3.35289
3.35291
3.35292
3.35293
3.35293
3.35294
3.35294
3.35294
3.35294
3.35294
3.35294
3.35294
3.35294
3.35294
3.35294
3.35292
3.35291
3.35287
3.35284
3.3527
3.35258
3.35206
3.35161
3.3496
3.34753
3.33793
3.32051
3.31159
3.27807
3.26039
3.19183
3.17951
3.17711
3.17659
3.17647
2.51031
2.74443
2.78362
2.909
2.93207
3.01249
3.02793
3.0854
3.09644
3.13787
3.14534
3.17061
3.17637
3.20256
3.20808
3.23143
3.23621
3.25581
3.25976
3.27563
3.2788
3.29131
3.29378
3.3034
3.30528
3.31252
3.31393
3.31934
3.32047
3.32509
3.32854
3.32912
3.3307
3.33098
3.33187
3.33203
3.33255
3.33264
3.33295
3.333
3.33318
3.33321
3.3333
3.33332
3.33337
3.33338
3.33341
3.33342
3.33343
3.33343
3.33344
3.33344
3.33344
3.33344
3.33344
3.33344
3.33344
3.33344
3.33344
3.33344
3.33342
3.33342
3.33337
3.33334
3.33317
3.33307
3.33246
3.3321
3.32974
3.32815
3.31725
3.29606
3.28898
3.24748
3.23324
3.14538
3.13548
3.13385
3.13351
3.13343
2.36795
2.67354
2.69228
2.84962
2.86047
2.96152
2.96879
3.04117
3.04638
3.09864
3.10216
3.13374
3.13645
3.16957
3.17217
3.20166
3.20391
3.22865
3.23051
3.25054
3.25203
3.26782
3.26898
3.28112
3.28201
3.29114
3.2918
3.29861
3.29913
3.30476
3.30881
3.30907
3.31105
3.31118
3.3123
3.31238
3.31303
3.31308
3.31346
3.31348
3.3137
3.31372
3.31384
3.31385
3.31391
3.31392
3.31395
3.31395
3.31397
3.31397
3.31398
3.31398
3.31399
3.31399
3.31399
3.31399
3.31399
3.31399
3.31398
3.31398
3.31396
3.31396
3.3139
3.31389
3.31368
3.31363
3.31288
3.31272
3.30989
3.30918
3.29702
3.2711
3.26778
3.21584
3.20907
3.09586
3.09117
3.09058
3.09046
3.09043
2.36792
2.6735
2.69224
2.84957
2.86042
2.96146
2.96872
3.0411
3.04631
3.09857
3.10208
3.13367
3.13638
3.1695
3.1721
3.2016
3.20386
3.2286
3.23046
3.2505
3.25199
3.26779
3.26895
3.2811
3.28198
3.29112
3.29178
3.29859
3.29912
3.30475
3.3088
3.30907
3.31105
3.31118
3.3123
3.31237
3.31303
3.31307
3.31346
3.31348
3.3137
3.31372
3.31384
3.31385
3.31391
3.31392
3.31395
3.31395
3.31397
3.31397
3.31398
3.31398
3.31399
3.31399
3.31399
3.31399
3.31399
3.31399
3.31398
3.31398
3.31396
3.31396
3.3139
3.31389
3.31368
3.31363
3.31288
3.31272
3.30989
3.30918
3.29704
3.27113
3.26782
3.2159
3.20913
3.09595
3.09126
3.09067
3.09055
3.09052
2.51028
2.74439
2.78358
2.90895
2.93202
3.01243
3.02787
3.08533
3.09638
3.1378
3.14527
3.17054
3.17631
3.2025
3.20802
3.23138
3.23616
3.25577
3.25972
3.2756
3.27877
3.29128
3.29375
3.30338
3.30526
3.31251
3.31392
3.31933
3.32046
3.32508
3.32853
3.32911
3.3307
3.33098
3.33187
3.33203
3.33255
3.33264
3.33295
3.333
3.33318
3.33321
3.3333
3.33332
3.33337
3.33338
3.33341
3.33342
3.33343
3.33343
3.33344
3.33344
3.33344
3.33344
3.33344
3.33344
3.33344
3.33344
3.33344
3.33344
3.33342
3.33342
3.33337
3.33334
3.33317
3.33308
3.33246
3.33211
3.32974
3.32815
3.31726
3.29609
3.28901
3.24753
3.23329
3.14546
3.13556
3.13393
3.13358
3.13351
2.64326
2.82308
2.87148
2.97242
3.00134
3.06601
3.08534
3.13143
3.14525
3.1784
3.18776
3.20821
3.21543
3.23635
3.24324
3.26191
3.2679
3.28358
3.28852
3.30123
3.30519
3.31521
3.3183
3.326
3.32836
3.33416
3.33592
3.34027
3.34169
3.3455
3.34842
3.34916
3.35044
3.35079
3.35151
3.35171
3.35213
3.35225
3.35249
3.35256
3.3527
3.35274
3.35281
3.35283
3.35288
3.35289
3.35291
3.35292
3.35293
3.35293
3.35294
3.35294
3.35294
3.35294
3.35294
3.35294
3.35294
3.35294
3.35294
3.35294
3.35292
3.35291
3.35287
3.35284
3.3527
3.35258
3.35206
3.35161
3.3496
3.34754
3.33794
3.32053
3.31162
3.27812
3.26044
3.19189
3.17958
3.17718
3.17666
3.17654
2.76905
2.90701
2.95728
3.03877
3.06922
3.1214
3.14174
3.17882
3.19334
3.21996
3.22981
3.24642
3.25402
3.27077
3.278
3.29297
3.29926
3.31184
3.31703
3.32723
3.33139
3.33944
3.34268
3.34887
3.35134
3.356
3.35786
3.36136
3.36285
3.36597
3.36842
3.36921
3.37026
3.37063
3.37121
3.37142
3.37176
3.37188
3.37208
3.37215
3.37226
3.3723
3.37236
3.37238
3.37242
3.37243
3.37245
3.37245
3.37246
3.37247
3.37247
3.37247
3.37247
3.37247
3.37248
3.37248
3.37248
3.37248
3.37247
3.37247
3.37246
3.37245
3.37242
3.37238
3.37226
3.37214
3.3717
3.37121
3.3695
3.36727
3.35896
3.34467
3.33525
3.30811
3.28966
3.23612
3.22323
3.2204
3.21975
3.21961
2.88931
2.99446
3.04182
3.10717
3.13624
3.17807
3.19748
3.22712
3.24096
3.2622
3.2716
3.285
3.29225
3.30558
3.31247
3.32439
3.33038
3.34041
3.34536
3.35349
3.35746
3.36387
3.36696
3.3719
3.37426
3.37798
3.37975
3.38255
3.38398
3.38651
3.38852
3.38928
3.39013
3.39049
3.39095
3.39115
3.39142
3.39154
3.3917
3.39176
3.39185
3.39189
3.39194
3.39196
3.39199
3.392
3.39202
3.39202
3.39203
3.39203
3.39204
3.39204
3.39204
3.39204
3.39204
3.39204
3.39204
3.39204
3.39204
3.39204
3.39203
3.39202
3.39199
3.39196
3.39186
3.39173
3.39137
3.3909
3.38945
3.38726
3.38026
3.36864
3.35962
3.33778
3.32031
3.27875
3.26653
3.26356
3.26286
3.2627
3.00537
3.08421
3.12564
3.17701
3.20275
3.23563
3.25281
3.27606
3.28829
3.30492
3.31324
3.32383
3.33025
3.34066
3.34674
3.35606
3.36135
3.3692
3.37357
3.37994
3.38344
3.38846
3.39119
3.39506
3.39714
3.40005
3.40162
3.40382
3.40509
3.40709
3.4087
3.40938
3.41005
3.41037
3.41073
3.41091
3.41112
3.41122
3.41135
3.41141
3.41148
3.41151
3.41155
3.41157
3.41159
3.4116
3.41161
3.41162
3.41162
3.41163
3.41163
3.41163
3.41163
3.41163
3.41163
3.41163
3.41163
3.41163
3.41163
3.41163
3.41162
3.41161
3.41159
3.41156
3.41148
3.41137
3.41108
3.41065
3.40945
3.40748
3.40177
3.39254
3.38454
3.36731
3.35196
3.32023
3.30947
3.30666
3.30597
3.30582
3.11826
3.17545
3.20907
3.24788
3.26897
3.29383
3.3079
3.32543
3.33545
3.34797
3.35479
3.36283
3.36809
3.37592
3.38089
3.3879
3.39223
3.39814
3.40171
3.40651
3.40937
3.41315
3.41539
3.4183
3.42
3.4222
3.42348
3.42514
3.42618
3.4277
3.42893
3.42949
3.43001
3.43026
3.43054
3.43069
3.43085
3.43093
3.43102
3.43107
3.43113
3.43115
3.43118
3.4312
3.43122
3.43122
3.43123
3.43124
3.43124
3.43124
3.43124
3.43125
3.43125
3.43125
3.43125
3.43125
3.43125
3.43125
3.43125
3.43124
3.43124
3.43123
3.43121
3.43119
3.43113
3.43104
3.43081
3.43045
3.42951
3.42787
3.42344
3.41641
3.40984
3.39679
3.38429
3.36091
3.35213
3.3497
3.34909
3.34895
3.22887
3.26764
3.29229
3.31946
3.33505
3.35246
3.36285
3.37512
3.38251
3.39126
3.3963
3.40195
3.40584
3.41129
3.41496
3.41986
3.42305
3.42718
3.42982
3.43316
3.43528
3.43792
3.43957
3.4416
3.44286
3.4444
3.44534
3.4465
3.44728
3.44834
3.44921
3.44962
3.44999
3.45018
3.45037
3.45048
3.45059
3.45065
3.45072
3.45075
3.45079
3.45081
3.45083
3.45084
3.45086
3.45086
3.45087
3.45087
3.45087
3.45088
3.45088
3.45088
3.45088
3.45088
3.45088
3.45088
3.45088
3.45088
3.45088
3.45088
3.45087
3.45087
3.45085
3.45084
3.45079
3.45072
3.45056
3.45029
3.44962
3.44839
3.44523
3.44028
3.43542
3.42626
3.41707
3.40101
3.39455
3.39269
3.39221
3.3921
3.33792
3.36038
3.3754
3.3915
3.40105
3.41137
3.41774
3.425
3.42953
3.4347
3.43779
3.44114
3.44352
3.44675
3.44899
3.45189
3.45384
3.45628
3.4579
3.45988
3.46117
3.46273
3.46374
3.46495
3.46572
3.46663
3.4672
3.46789
3.46837
3.469
3.46951
3.46977
3.46998
3.4701
3.47022
3.47028
3.47035
3.47039
3.47043
3.47045
3.47047
3.47048
3.47049
3.4705
3.47051
3.47051
3.47052
3.47052
3.47052
3.47052
3.47052
3.47052
3.47052
3.47052
3.47052
3.47052
3.47052
3.47052
3.47052
3.47052
3.47052
3.47052
3.47051
3.4705
3.47047
3.47043
3.47033
3.47016
3.46976
3.469
3.46711
3.46416
3.46118
3.45575
3.45014
3.44075
3.4368
3.43563
3.43533
3.43526
3.44607
3.45343
3.45847
3.46381
3.46702
3.47044
3.47258
3.47499
3.47651
3.47822
3.47926
3.48038
3.48118
3.48225
3.483
3.48396
3.48462
3.48542
3.48597
3.48662
3.48706
3.48758
3.48791
3.48831
3.48857
3.48887
3.48907
3.4893
3.48946
3.48966
3.48984
3.48992
3.48999
3.49003
3.49007
3.49009
3.49012
3.49013
3.49014
3.49015
3.49016
3.49016
3.49016
3.49017
3.49017
3.49017
3.49017
3.49017
3.49017
3.49017
3.49017
3.49017
3.49017
3.49017
3.49017
3.49017
3.49017
3.49017
3.49017
3.49017
3.49017
3.49017
3.49017
3.49016
3.49016
3.49014
3.49011
3.49005
3.48992
3.48966
3.48903
3.48805
3.48705
3.48525
3.48336
3.48027
3.47894
3.47855
3.47844
3.47842
3.43789
3.44515
3.44978
3.45407
3.45637
3.4584
3.45951
3.46054
3.46111
3.46166
3.46205
3.46256
3.46294
3.46344
3.4638
3.46428
3.46462
3.46506
3.46537
3.46576
3.46602
3.46635
3.46656
3.46681
3.46698
3.46717
3.46729
3.46743
3.46753
3.46765
3.46775
3.46779
3.46783
3.46785
3.46787
3.46788
3.46789
3.46789
3.4679
3.4679
3.4679
3.4679
3.46791
3.46791
3.46791
3.46791
3.46791
3.46791
3.46791
3.4679
3.4679
3.4679
3.4679
3.4679
3.46789
3.46789
3.46789
3.46788
3.46787
3.46786
3.46784
3.46782
3.46779
3.46775
3.46769
3.46762
3.46749
3.46734
3.46702
3.46655
3.46548
3.464
3.46266
3.46045
3.45832
3.45498
3.45355
3.45312
3.45301
3.45299
3.31337
3.33557
3.34935
3.3623
3.36911
3.37524
3.37853
3.38165
3.38334
3.385
3.38615
3.3877
3.38882
3.39033
3.39141
3.39285
3.39387
3.3952
3.39611
3.39728
3.39807
3.39904
3.39968
3.40045
3.40093
3.40151
3.40187
3.4023
3.40258
3.40295
3.40324
3.40338
3.40349
3.40355
3.4036
3.40363
3.40366
3.40368
3.40369
3.4037
3.40371
3.40371
3.40372
3.40372
3.40372
3.40372
3.40372
3.40372
3.40372
3.40371
3.40371
3.40371
3.4037
3.4037
3.40369
3.40367
3.40366
3.40364
3.4036
3.40357
3.40352
3.40346
3.40336
3.40325
3.40306
3.40286
3.40248
3.40202
3.40107
3.39967
3.39647
3.39201
3.38802
3.38134
3.375
3.36486
3.36061
3.35935
3.35903
3.35896
3.18796
3.22632
3.24895
3.27077
3.28188
3.29218
3.29756
3.30281
3.30557
3.30836
3.31023
3.31285
3.31468
3.31723
3.319
3.32144
3.3231
3.32535
3.32684
3.32882
3.3301
3.33175
3.33279
3.33409
3.33489
3.33586
3.33645
3.33717
3.33763
3.33825
3.33874
3.33897
3.33916
3.33925
3.33934
3.33939
3.33944
3.33946
3.33949
3.3395
3.33952
3.33952
3.33953
3.33953
3.33953
3.33953
3.33953
3.33953
3.33953
3.33953
3.33952
3.33952
3.33951
3.3395
3.33948
3.33946
3.33943
3.3394
3.33934
3.33929
3.33919
3.3391
3.33893
3.33876
3.33844
3.33811
3.33747
3.33672
3.33513
3.33286
3.32751
3.32
3.31349
3.30223
3.29183
3.2745
3.26755
3.26555
3.26504
3.26492
3.06102
3.1177
3.14858
3.17966
3.19468
3.20933
3.21659
3.22406
3.22781
3.23175
3.23428
3.23803
3.24051
3.24417
3.24656
3.25006
3.2523
3.25553
3.25756
3.26039
3.26213
3.26449
3.2659
3.26775
3.26884
3.27023
3.27103
3.27206
3.27268
3.27356
3.27426
3.27456
3.27483
3.27496
3.27509
3.27515
3.27522
3.27525
3.27529
3.27531
3.27533
3.27534
3.27535
3.27535
3.27535
3.27535
3.27535
3.27535
3.27534
3.27534
3.27533
3.27533
3.27531
3.2753
3.27527
3.27525
3.2752
3.27516
3.27508
3.27501
3.27488
3.27475
3.27451
3.27428
3.27383
3.27338
3.27247
3.27146
3.26923
3.26618
3.25864
3.24795
3.23915
3.22308
3.20895
3.18374
3.1743
3.17169
3.17104
3.17089
2.93181
3.0101
3.0482
3.0892
3.10749
3.12677
3.13561
3.14547
3.15003
3.1552
3.15829
3.16327
3.1663
3.17116
3.17408
3.17872
3.18147
3.18576
3.18824
3.192
3.19413
3.19726
3.19898
3.20145
3.20277
3.20462
3.2056
3.20696
3.20772
3.20889
3.20979
3.21016
3.21051
3.21067
3.21084
3.21092
3.21101
3.21105
3.2111
3.21112
3.21114
3.21115
3.21117
3.21117
3.21117
3.21117
3.21117
3.21117
3.21116
3.21116
3.21115
3.21114
3.21112
3.21111
3.21107
3.21104
3.21098
3.21093
3.21083
3.21074
3.21056
3.21041
3.21009
3.20981
3.20921
3.20867
3.20747
3.20626
3.20337
3.19968
3.1899
3.17583
3.16511
3.14386
3.12651
3.09234
3.08078
3.07776
3.07702
3.07686
2.79946
2.90411
2.94771
2.99965
3.02026
3.04463
3.0546
3.06709
3.07223
3.07873
3.08222
3.08858
3.09201
3.09822
3.10153
3.10747
3.11058
3.11606
3.11886
3.12368
3.12608
3.13009
3.13204
3.13519
3.13669
3.13905
3.14016
3.14189
3.14275
3.14422
3.14536
3.14577
3.1462
3.14638
3.1466
3.14669
3.1468
3.14685
3.14691
3.14693
3.14697
3.14698
3.14699
3.147
3.147
3.147
3.147
3.147
3.14699
3.14698
3.14697
3.14696
3.14694
3.14692
3.14688
3.14685
3.14677
3.14671
3.14658
3.14648
3.14625
3.14608
3.14567
3.14535
3.1446
3.14399
3.14249
3.14113
3.13754
3.13343
3.12133
3.10358
3.0915
3.06449
3.04475
3.00005
2.98693
2.98374
2.98299
2.98282
2.66292
2.80056
2.84688
2.91134
2.93288
2.96307
2.97348
2.98901
2.99437
3.00239
3.00603
3.01401
3.01761
3.0254
3.02888
3.03633
3.03959
3.04647
3.04941
3.05546
3.05798
3.06301
3.06505
3.06901
3.07058
3.07354
3.0747
3.07686
3.07776
3.07958
3.08095
3.08138
3.08192
3.0821
3.08237
3.08246
3.0826
3.08265
3.08273
3.08276
3.0828
3.08281
3.08283
3.08283
3.08284
3.08284
3.08283
3.08283
3.08282
3.08282
3.0828
3.08279
3.08276
3.08274
3.08269
3.08265
3.08256
3.0825
3.08234
3.08223
3.08195
3.08176
3.08126
3.08093
3.07999
3.07936
3.0775
3.07609
3.07174
3.06751
3.053
3.0311
3.01848
2.98483
2.964
2.9065
2.89268
2.88963
2.88894
2.88878
2.52086
2.70066
2.74532
2.82475
2.84516
2.88229
2.89215
2.91134
2.91641
2.92622
2.92967
2.93962
2.94305
2.95276
2.95607
2.96535
2.96846
2.97703
2.97984
2.98737
2.98978
2.99604
2.99799
3.00292
3.00442
3.0081
3.00921
3.01188
3.01274
3.01496
3.01659
3.01699
3.01765
3.01782
3.01815
3.01824
3.01842
3.01847
3.01856
3.01859
3.01863
3.01865
3.01867
3.01867
3.01868
3.01868
3.01868
3.01867
3.01866
3.01866
3.01864
3.01863
3.01859
3.01857
3.01851
3.01847
3.01836
3.0183
3.0181
3.018
3.01764
3.01747
3.01684
3.01653
3.01538
3.01478
3.0125
3.01117
3.00594
3.00201
2.98497
2.95827
2.94632
2.90467
2.88471
2.81122
2.79801
2.79543
2.79487
2.79475
2.37161
2.60616
2.64236
2.74052
2.75676
2.80261
2.81046
2.83422
2.83826
2.8503
2.85305
2.86549
2.86823
2.88037
2.88302
2.89462
2.89711
2.90783
2.91008
2.9195
2.92142
2.92926
2.93082
2.93697
2.93817
2.94277
2.94365
2.94699
2.94767
2.95037
2.95229
2.9526
2.95341
2.95354
2.95396
2.95403
2.95425
2.95429
2.9544
2.95442
2.95448
2.95449
2.95452
2.95452
2.95453
2.95453
2.95453
2.95453
2.95451
2.95451
2.95449
2.95448
2.95443
2.95442
2.95433
2.95431
2.95416
2.95412
2.95386
2.95378
2.95334
2.95321
2.95243
2.95218
2.95075
2.95027
2.94747
2.94643
2.94009
2.93704
2.91733
2.88485
2.87535
2.82365
2.80758
2.71353
2.70292
2.70116
2.7008
2.70072
2.21297
2.51959
2.53692
2.65957
2.66717
2.72444
2.72812
2.7579
2.75979
2.77476
2.77605
2.79175
2.79304
2.80836
2.80961
2.82426
2.82544
2.83897
2.84003
2.85192
2.85283
2.86272
2.86346
2.87122
2.87179
2.87759
2.87801
2.8822
2.88252
2.88582
2.88806
2.8882
2.8892
2.88927
2.88978
2.88982
2.89009
2.89011
2.89026
2.89027
2.89034
2.89035
2.89038
2.89038
2.8904
2.8904
2.89039
2.89039
2.89037
2.89037
2.89034
2.89034
2.89028
2.89027
2.89017
2.89016
2.88997
2.88995
2.88963
2.88959
2.88904
2.88898
2.888
2.88788
2.8861
2.88587
2.88239
2.8819
2.87413
2.87274
2.85022
2.81053
2.80608
2.74121
2.73358
2.61251
2.60749
2.60685
2.60672
2.60669
)
;

boundaryField
{
    F1_1
    {
        type            fixedValue;
        value           nonuniform List<scalar> 
80
(
2.12747
2.48226
2.48226
2.62196
2.62196
2.6879
2.6879
2.72382
2.72382
2.74608
2.74608
2.75935
2.75935
2.77494
2.77494
2.79073
2.79073
2.80567
2.80567
2.81895
2.81895
2.83005
2.83005
2.83879
2.83879
2.84533
2.84533
2.85007
2.85007
2.8537
2.85611
2.85611
2.85723
2.85723
2.85781
2.85781
2.85813
2.85813
2.85829
2.85829
2.85838
2.85838
2.85842
2.85842
2.85844
2.85844
2.85843
2.85843
2.85841
2.85841
2.85838
2.85838
2.85832
2.85832
2.8582
2.8582
2.85799
2.85799
2.85763
2.85763
2.857
2.857
2.85589
2.85589
2.85387
2.85387
2.84992
2.84992
2.84116
2.84116
2.81717
2.77286
2.77286
2.69909
2.69909
2.55999
2.55999
2.55999
2.55999
2.55999
)
;
    }
    F1_2
    {
        type            fixedValue;
        value           nonuniform List<scalar> 
80
(
2.29055
2.64379
2.64379
2.82288
2.82288
2.93796
2.93796
3.0205
3.0205
3.08013
3.08013
3.11603
3.11603
3.15386
3.15386
3.18753
3.18753
3.21578
3.21578
3.23865
3.23865
3.25669
3.25669
3.27056
3.27056
3.281
3.281
3.28878
3.28878
3.29508
3.29949
3.29949
3.30174
3.30174
3.30303
3.30303
3.30378
3.30378
3.30422
3.30422
3.30447
3.30447
3.30461
3.30461
3.30469
3.30469
3.30473
3.30473
3.30475
3.30475
3.30476
3.30476
3.30476
3.30476
3.30477
3.30477
3.30477
3.30477
3.30476
3.30476
3.30474
3.30474
3.30467
3.30467
3.30443
3.30443
3.30359
3.30359
3.30042
3.30042
3.2877
3.25867
3.25867
3.19964
3.19964
3.06949
3.06949
3.06949
3.06949
3.06949
)
;
    }
    F1_3
    {
        type            fixedValue;
        value           nonuniform List<scalar> 
80
(
2.29052
2.64375
2.64375
2.82282
2.82282
2.9379
2.9379
3.02042
3.02042
3.08005
3.08005
3.11596
3.11596
3.15379
3.15379
3.18747
3.18747
3.21573
3.21573
3.23861
3.23861
3.25666
3.25666
3.27054
3.27054
3.28099
3.28099
3.28877
3.28877
3.29507
3.29948
3.29948
3.30174
3.30174
3.30302
3.30302
3.30378
3.30378
3.30422
3.30422
3.30447
3.30447
3.30461
3.30461
3.30469
3.30469
3.30473
3.30473
3.30475
3.30475
3.30476
3.30476
3.30476
3.30476
3.30477
3.30477
3.30477
3.30477
3.30476
3.30476
3.30474
3.30474
3.30467
3.30467
3.30444
3.30444
3.30359
3.30359
3.30043
3.30043
3.28771
3.25871
3.25871
3.19971
3.19971
3.06958
3.06958
3.06958
3.06958
3.06958
)
;
    }
    F1_4
    {
        type            fixedValue;
        value           nonuniform List<scalar> 
80
(
2.1274
2.48203
2.48203
2.62136
2.62136
2.68643
2.68643
2.72031
2.72031
2.73727
2.73727
2.75518
2.75518
2.77265
2.77265
2.78936
2.78936
2.8048
2.8048
2.81838
2.81838
2.82967
2.82967
2.83855
2.83855
2.84518
2.84518
2.84997
2.84997
2.85366
2.8561
2.8561
2.85724
2.85724
2.85783
2.85783
2.85815
2.85815
2.85831
2.85831
2.8584
2.8584
2.85844
2.85844
2.85845
2.85845
2.85845
2.85845
2.85843
2.85843
2.8584
2.8584
2.85833
2.85833
2.85821
2.85821
2.858
2.858
2.85764
2.85764
2.85701
2.85701
2.85589
2.85589
2.85386
2.85386
2.84991
2.84991
2.84114
2.84114
2.81713
2.77278
2.77278
2.69897
2.69897
2.55981
2.55981
2.55981
2.55981
2.55981
)
;
    }
    F2_1
    {
        type            fixedValue;
        value           uniform 3.5;
    }
    F2_2
    {
        type            fixedValue;
        value           uniform 3.5;
    }
    F2_3
    {
        type            fixedValue;
        value           uniform 3.5;
    }
    F2_4
    {
        type            fixedValue;
        value           uniform 3.5;
    }
    defaultFaces
    {
        type            empty;
    }
}


// ************************************************************************* //
