/*--------------------------------*- C++ -*----------------------------------*\
| =========                 |                                                 |
| \\      /  F ield         | OpenFOAM: The Open Source CFD Toolbox           |
|  \\    /   O peration     | Version:  5.x                                   |
|   \\  /    A nd           | Web:      www.OpenFOAM.org                      |
|    \\/     M anipulation  |                                                 |
\*---------------------------------------------------------------------------*/
FoamFile
{
    version     2.0;
    format      ascii;
    class       volScalarField;
    location    "7.1001";
    object      gradTy;
}
// * * * * * * * * * * * * * * * * * * * * * * * * * * * * * * * * * * * * * //

dimensions      [0 -1 0 1 0 0 0];

internalField   nonuniform List<scalar> 
6300
(
32284.2
32252.5
32220.7
32188.8
32156.6
32124.1
32091.2
32057.9
32024.1
31989.7
31954.9
31919.4
31883.3
31846.7
31809.4
0.053442
0.159823
0.264668
0.36684
0.465048
0.557797
0.643375
0.719869
0.785228
0.837394
0.874481
0.89503
0.898294
0.884511
0.855101
0.089619
0.268061
0.444055
0.615773
0.781105
0.937582
1.08233
1.21208
1.32329
1.41231
1.47572
1.51079
1.51595
1.49139
1.43947
0.126594
0.37875
0.627724
0.871099
1.10603
1.32911
1.53629
1.72285
1.88356
2.01285
2.10534
2.15647
2.16334
2.12566
2.04661
0.164599
0.492621
0.816993
1.13487
1.4428
1.73654
2.01085
2.25949
2.47523
2.65018
2.77632
2.84642
2.85528
2.80131
2.6881
0.20378
0.610143
1.01276
1.40858
1.79377
2.16339
2.5111
2.82902
3.1077
3.33633
3.50334
3.59759
3.61004
3.53621
3.37897
0.244157
0.731414
1.21531
1.69292
2.16032
2.61214
3.04112
3.43779
3.79022
4.08408
4.30313
4.43055
4.45108
4.35451
4.14039
0.285589
0.856051
1.42414
1.98747
2.54246
3.08372
3.60345
4.0908
4.53132
4.90661
5.19456
5.37041
5.40922
5.29035
5.00447
0.327736
0.983065
1.63771
2.29036
2.93833
3.57683
4.19816
4.79065
5.33764
5.8165
6.19809
6.44728
6.52506
6.3932
6.02295
0.370027
1.11076
1.85328
2.59794
3.34365
4.08712
4.8217
5.53599
6.2121
6.82364
7.33402
7.69558
7.85056
7.73448
7.28233
0.411638
1.23666
2.06672
2.90446
3.75123
4.60629
5.46551
6.31952
7.15112
7.93196
8.61879
9.15048
9.4472
9.41196
8.92717
0.4515
1.35752
2.27249
3.20193
4.15051
5.12131
6.11454
7.12545
8.14091
9.13428
10.0587
10.8404
11.376
11.5395
11.1794
0.48834
1.46944
2.4638
3.48027
4.52757
5.61388
6.74589
7.92685
9.15277
10.4055
11.6415
12.7767
13.6777
14.1922
14.2661
0.520763
1.56809
2.63299
3.72778
4.86563
6.06076
7.32829
8.68329
10.1378
11.6935
13.3252
14.9477
16.3672
17.2901
17.8355
0.547388
1.64916
2.77228
3.93222
5.1464
6.43522
7.82321
9.3402
11.0216
12.9056
15.0182
17.3223
19.5563
20.7759
18.3582
31774.7
31742.8
31710.6
31678
31645
31611.8
31578.4
31544.6
31510.7
31476.5
31442.2
31407.7
31373
31338.3
31303.4
31268.5
31233.6
31198.6
31163.7
31128.7
31093.8
31058.9
31024
30989.2
30954.4
30919.7
30885
30850.3
30815.7
30781.2
30746.7
30712.3
30678
30643.8
30609.7
30575.7
30541.8
30508
30474.2
30440.6
30407
30373.6
30340.2
30306.8
30273.6
30240.5
30207.5
30174.5
30141.7
30109
30076.4
30043.9
30011.5
29979.2
29947
29914.9
29882.9
29850.9
29819
29787.2
29755.5
29723.9
29692.4
29661
29629.7
29598.5
29567.4
29536.4
29505.5
29474.6
29443.9
29413.1
29382.5
29351.9
29321.4
29290.9
29260.5
29230.2
29199.9
29169.7
29139.5
29109.3
29079.2
29049
29018.8
28988.6
28958.3
28927.9
28897.4
28866.9
0.81621
0.774073
0.727435
0.678509
0.629149
0.580596
0.533354
0.487203
0.441378
0.394861
0.346717
0.296425
0.244113
0.190653
0.1376
0.0869737
0.0409249
0.00135993
-0.0304062
-0.0538965
-0.0695738
-0.0787835
-0.0835501
-0.0862635
-0.0893077
-0.0946908
-0.103736
-0.116886
-0.133648
-0.152708
-0.172177
-0.18995
-0.204091
-0.21319
-0.216611
-0.214603
-0.208256
-0.199309
-0.189858
-0.182003
-0.177501
-0.17747
-0.182202
-0.191117
-0.202864
-0.215561
-0.227131
-0.235671
-0.239786
-0.238829
-0.233
-0.223304
-0.211367
-0.19916
-0.188659
-0.181513
-0.178766
-0.180675
-0.186668
-0.195439
-0.205176
-0.21388
-0.219717
-0.221336
-0.218091
-0.210142
-0.198406
-0.184382
-0.169879
-0.156693
-0.146278
-0.139474
-0.136329
-0.13605
-0.137091
-0.137374
-0.134602
-0.126623
-0.111774
-0.0891507
-0.0587882
-0.0217103
0.0201284
0.064007
0.106688
0.144731
0.174858
0.194319
0.201228
0.194816
1.37103
1.29717
1.21591
1.13141
1.04716
0.965427
0.88702
0.811298
0.736526
0.66046
0.581032
0.496997
0.408411
0.316832
0.225198
0.137399
0.0576189
-0.010415
-0.0641203
-0.10254
-0.126535
-0.138673
-0.142825
-0.143565
-0.145452
-0.152324
-0.166701
-0.189399
-0.219427
-0.254192
-0.289987
-0.322682
-0.348494
-0.364669
-0.369975
-0.364903
-0.351564
-0.333326
-0.314238
-0.298359
-0.28908
-0.288563
-0.29737
-0.314372
-0.336937
-0.361395
-0.383698
-0.400144
-0.40803
-0.406115
-0.394803
-0.376056
-0.353032
-0.329545
-0.30942
-0.29585
-0.290857
-0.294943
-0.307001
-0.324491
-0.343888
-0.361302
-0.373172
-0.376888
-0.371222
-0.356514
-0.334568
-0.308317
-0.281292
-0.257001
-0.238303
-0.226882
-0.222898
-0.224885
-0.229917
-0.234028
-0.23282
-0.22216
-0.198835
-0.161065
-0.10882
-0.0439017
0.0301713
0.108466
0.185082
0.253716
0.308311
0.343748
0.356495
0.345094
1.94266
1.83096
1.70907
1.584
1.46157
1.34551
1.23686
1.13407
1.03358
0.930947
0.822026
0.70417
0.57707
0.443141
0.307324
0.176329
0.0574539
-0.0427673
-0.119789
-0.171894
-0.200513
-0.210002
-0.206953
-0.19915
-0.194353
-0.199087
-0.217619
-0.25129
-0.298317
-0.354125
-0.41219
-0.465259
-0.506701
-0.531728
-0.538215
-0.527035
-0.501856
-0.468494
-0.433925
-0.405137
-0.387971
-0.386154
-0.400666
-0.429545
-0.468211
-0.510261
-0.548629
-0.576872
-0.590319
-0.586859
-0.567244
-0.534897
-0.495294
-0.45502
-0.420675
-0.39777
-0.389805
-0.397668
-0.419447
-0.450735
-0.485392
-0.516644
-0.538308
-0.545888
-0.537317
-0.513249
-0.476873
-0.43331
-0.388713
-0.349201
-0.319799
-0.30353
-0.300819
-0.309287
-0.324023
-0.338295
-0.344605
-0.335892
-0.306653
-0.253784
-0.177061
-0.0792382
0.0341707
0.155377
0.275005
0.382947
0.469379
0.525882
0.546561
0.528943
2.53904
2.37941
2.20684
2.03277
1.86682
1.71492
1.57827
1.4535
1.33373
1.21048
1.07589
0.92465
0.755559
0.572167
0.382506
0.197804
0.0304255
-0.108529
-0.21134
-0.275071
-0.302038
-0.299389
-0.277929
-0.250408
-0.229532
-0.225982
-0.246738
-0.293951
-0.364565
-0.45081
-0.541592
-0.624578
-0.688552
-0.725485
-0.731899
-0.709328
-0.663936
-0.6054
-0.545292
-0.495183
-0.464761
-0.460237
-0.483275
-0.530629
-0.594616
-0.664433
-0.728142
-0.774907
-0.796957
-0.79087
-0.75802
-0.704191
-0.638522
-0.571962
-0.51546
-0.478176
-0.465966
-0.480356
-0.5182
-0.572129
-0.631801
-0.685793
-0.723728
-0.738146
-0.725727
-0.687709
-0.629527
-0.559792
-0.48881
-0.426844
-0.382381
-0.360656
-0.362639
-0.38466
-0.418796
-0.454026
-0.478019
-0.479179
-0.448495
-0.380851
-0.275682
-0.137016
0.0269441
0.204565
0.381757
0.543155
0.673547
0.759606
0.791776
0.765923
3.17016
2.94649
2.70675
2.46985
2.25184
2.06233
1.90259
1.76574
1.63886
1.50636
1.35371
1.17083
0.954637
0.710217
0.450539
0.194328
-0.0375404
-0.226342
-0.359173
-0.431194
-0.446218
-0.415872
-0.357638
-0.292103
-0.239769
-0.217886
-0.237766
-0.302921
-0.40831
-0.54097
-0.68223
-0.811283
-0.909348
-0.963201
-0.967328
-0.924494
-0.844952
-0.74458
-0.64227
-0.556889
-0.504267
-0.494639
-0.530877
-0.607771
-0.712634
-0.827409
-0.932064
-1.00854
-1.04412
-1.03343
-0.979014
-0.890541
-0.783045
-0.674428
-0.582577
-0.522485
-0.50383
-0.529276
-0.5938
-0.685259
-0.786396
-0.87807
-0.943018
-0.969054
-0.951003
-0.891211
-0.798821
-0.688074
-0.575928
-0.479284
-0.412222
-0.383644
-0.395605
-0.442591
-0.511994
-0.585939
-0.644313
-0.668322
-0.643557
-0.561955
-0.422539
-0.231216
4.72495e-05
0.25437
0.511254
0.748011
0.941554
1.07093
1.12054
1.08329
3.85001
3.5367
3.20256
2.87973
2.59581
2.36689
2.19394
2.0636
1.95209
1.83126
1.67504
1.465
1.19435
0.870232
0.51357
0.155793
-0.167531
-0.424761
-0.59458
-0.669401
-0.65574
-0.572524
-0.447869
-0.314797
-0.206167
-0.149658
-0.163607
-0.253965
-0.412796
-0.618755
-0.840454
-1.04262
-1.19382
-1.27253
-1.27039
-1.19253
-1.05597
-0.886561
-0.71488
-0.571436
-0.481871
-0.463006
-0.519946
-0.644648
-0.81639
-1.00497
-1.17657
-1.30109
-1.35791
-1.33897
-1.24906
-1.1043
-0.92919
-0.752764
-0.603972
-0.507137
-0.478196
-0.521933
-0.630622
-0.784463
-0.954627
-1.10884
-1.21835
-1.26345
-1.23639
-1.14166
-0.994555
-0.818376
-0.640728
-0.489131
-0.38665
-0.34826
-0.378135
-0.468245
-0.598651
-0.740274
-0.860093
-0.9277
-0.920464
-0.826308
-0.64414
-0.38293
-0.0600539
0.300488
0.669735
1.0151
1.30196
1.49712
1.57439
1.52091
4.60088
4.15689
3.6821
3.23355
2.8606
2.59081
2.42393
2.33436
2.27874
2.20709
2.07389
1.84642
1.51105
1.0771
0.578199
0.0676384
-0.392707
-0.74906
-0.966792
-1.03503
-0.965431
-0.788857
-0.550231
-0.302304
-0.0975229
0.0200178
0.0205712
-0.10642
-0.349426
-0.673889
-1.02681
-1.34737
-1.58269
-1.6983
-1.68251
-1.54511
-1.31432
-1.03182
-0.746844
-0.508411
-0.357679
-0.32223
-0.411452
-0.613802
-0.895913
-1.20699
-1.48889
-1.69113
-1.78082
-1.74672
-1.59811
-1.36176
-1.07724
-0.791322
-0.550558
-0.394035
-0.347918
-0.421072
-0.602435
-0.860171
-1.14584
-1.40398
-1.58644
-1.66178
-1.61923
-1.46753
-1.23216
-0.950799
-0.668022
-0.428253
-0.26879
-0.214579
-0.27393
-0.435874
-0.669158
-0.926004
-1.15106
-1.29485
-1.32254
-1.2174
-0.979559
-0.623442
-0.174393
0.334074
0.862613
1.36642
1.79441
2.09308
2.21653
2.13973
5.46274
4.82143
4.12383
3.47852
2.97683
2.66656
2.54257
2.55621
2.62848
2.67153
2.6085
2.38319
1.9697
1.3775
0.659607
-0.0928357
-0.767644
-1.27299
-1.55428
-1.59918
-1.42917
-1.09456
-0.666
-0.22769
0.136735
0.358143
0.388401
0.208176
-0.168773
-0.688049
-1.2598
-1.77488
-2.14393
-2.31333
-2.26974
-2.03217
-1.64714
-1.18068
-0.711799
-0.31911
-0.0674983
-0.00194061
-0.14007
-0.468114
-0.933741
-1.45105
-1.91593
-2.24327
-2.38199
-2.31939
-2.07352
-1.68859
-1.22734
-0.764865
-0.375854
-0.121961
-0.0459056
-0.164403
-0.464284
-0.895671
-1.37669
-1.80813
-2.10878
-2.22989
-2.15923
-1.91391
-1.53599
-1.08527
-0.63339
-0.251739
0.000626331
0.0826274
-0.0219941
-0.300777
-0.705737
-1.15751
-1.55905
-1.82918
-1.91587
-1.79957
-1.4853
-0.997772
-0.37429
0.338755
1.09111
1.82692
2.47308
2.94137
3.14701
3.03731
6.51472
5.56698
4.4902
3.51667
2.81744
2.47408
2.463
2.69363
3.02028
3.28871
3.37679
3.19093
2.68568
1.85889
0.790758
-0.365114
-1.38662
-2.11955
-2.48219
-2.4728
-2.12997
-1.53555
-0.795827
-0.0466978
0.576925
0.971512
1.05931
0.80604
0.216816
-0.626661
-1.57441
-2.41267
-2.99271
-3.23506
-3.13633
-2.7316
-2.09725
-1.33302
-0.567058
0.0733238
0.490582
0.61164
0.40477
-0.124324
-0.897169
-1.7706
-2.54106
-3.06705
-3.27306
-3.15598
-2.7492
-2.12534
-1.37923
-0.632634
-0.00659632
0.406184
0.536247
0.353444
-0.13678
-0.85971
-1.67897
-2.4006
-2.88969
-3.07414
-2.95076
-2.55125
-1.94467
-1.2214
-0.497637
0.110938
0.515362
0.648565
0.48073
0.0160133
-0.674901
-1.46136
-2.15627
-2.62766
-2.80152
-2.6668
-2.24053
-1.56787
-0.703154
0.286832
1.34343
2.41652
3.40787
4.16787
4.5316
4.37912
7.92676
6.49826
4.70762
3.1596
2.14568
1.80321
2.03539
2.69276
3.49589
4.16562
4.53955
4.45856
3.86469
2.6878
1.04824
-0.830887
-2.42117
-3.49935
-3.94584
-3.82658
-3.19306
-2.18579
-0.93922
0.31501
1.34691
2.02664
2.22135
1.88766
0.968515
-0.41514
-2.04671
-3.4223
-4.3278
-4.64798
-4.44356
-3.76173
-2.73437
-1.4879
-0.241496
0.787035
1.47517
1.69742
1.41359
0.570449
-0.715773
-2.23847
-3.51823
-4.3516
-4.62943
-4.40973
-3.73751
-2.73817
-1.53182
-0.32682
0.669732
1.34142
1.56891
1.31396
0.525802
-0.685046
-2.12185
-3.32793
-4.1093
-4.36165
-4.13994
-3.48676
-2.5214
-1.35826
-0.196014
0.767582
1.42065
1.64799
1.41096
0.658524
-0.506475
-1.89705
-3.07537
-3.85456
-4.13154
-3.95384
-3.35056
-2.41454
-1.2124
0.138998
1.57199
3.12384
4.67579
5.965
6.65952
6.46808
10.0876
7.95172
4.57508
2.03211
0.506824
0.304962
0.995609
2.48205
4.16359
5.46847
6.35737
6.46476
5.88322
4.18294
1.65071
-1.71261
-4.19317
-5.7888
-6.22421
-5.9209
-4.79438
-3.18062
-1.09367
0.996856
2.624
3.78019
4.14427
3.81231
2.38909
0.153357
-2.88762
-5.10888
-6.50577
-6.81635
-6.43827
-5.28943
-3.68705
-1.64272
0.397789
1.99089
3.13063
3.5119
3.22782
1.90323
-0.193875
-3.05619
-5.13821
-6.43616
-6.70226
-6.31513
-5.19689
-3.64911
-1.68247
0.279129
1.81384
2.9163
3.29625
3.04227
1.79704
-0.185015
-2.897
-4.86687
-6.09071
-6.33182
-5.95046
-4.87182
-3.38295
-1.49385
0.391662
1.87138
2.93897
3.31611
3.08336
1.89512
-0.0132236
-2.63837
-4.56921
-5.80466
-6.11627
-5.85371
-4.93973
-3.64441
-1.93657
-0.126326
1.62939
3.83101
6.32207
8.61847
10.0632
9.92269
13.9017
11.1995
3.24491
-0.564747
-3.03993
-2.47907
-1.19024
1.99037
5.37368
7.37031
9.30058
9.46303
9.51274
6.87609
3.44993
-3.8655
-7.23951
-9.74897
-9.56635
-9.20066
-7.09737
-4.85687
-1.25327
2.34595
4.57925
6.67435
7.06948
7.30837
4.97967
1.88138
-4.90894
-7.98258
-10.248
-9.97644
-9.54289
-7.47025
-5.27617
-1.79206
1.68132
3.84756
5.87824
6.28449
6.54035
4.34841
1.42989
-4.99754
-7.88729
-10.0066
-9.71576
-9.27334
-7.27483
-5.16323
-1.8259
1.49978
3.58037
5.53155
5.93641
6.19799
4.12927
1.3661
-4.74084
-7.48007
-9.48727
-9.19834
-8.76506
-6.84761
-4.82083
-1.62429
1.56367
3.56863
5.45153
5.86246
6.13164
4.16868
1.51222
-4.37951
-7.0644
-9.08507
-8.9278
-8.69161
-7.07803
-5.46829
-2.80818
-0.313122
1.04467
4.1214
8.24866
12.4983
15.7498
16.2193
21.1577
22.0577
-4.01174
-5.07614
-10.9591
-6.3117
-6.10037
1.20674
8.58058
9.36771
14.7894
12.6236
17.0106
10.7061
10.8497
-11.694
-11.5308
-17.5858
-13.1721
-14.9826
-9.59796
-8.49603
-1.40657
5.66193
6.73351
12.0164
10.2197
14.5017
8.67842
8.92594
-12.2823
-12.0201
-17.6437
-13.3697
-15.0079
-9.82595
-8.72298
-1.92596
4.8471
5.89941
10.965
9.27359
13.3777
7.83983
8.10647
-12.0332
-11.7458
-17.0478
-12.9475
-14.4723
-9.51565
-8.44242
-1.95259
4.51332
5.53322
10.3735
8.78285
12.7093
7.4615
7.73223
-11.4342
-11.1474
-16.1903
-12.2727
-13.7169
-8.98083
-7.94317
-1.7424
4.4392
5.44163
10.0837
8.61291
12.3942
7.44086
7.69647
-10.7385
-10.516
-15.5017
-11.8529
-13.513
-9.21075
-8.80472
-3.4421
1.13775
-2.01534
2.89906
9.99902
17.8154
25.4423
29.7076
31.5275
71.7563
-47.2702
-2.64368
-34.0401
-3.75571
-21.2281
0.327295
21.2726
4.69154
31.2046
6.34842
39.9045
5.25132
50.9193
-52.2202
-6.86775
-40.4969
-7.81502
-31.125
-5.93118
-20.7569
-1.52934
17.6139
2.82378
27.5537
4.61667
36.2473
3.63552
46.8672
-50.5728
-7.58157
-39.2916
-8.24919
-30.2932
-6.30758
-20.3688
-2.02497
16.2512
2.17256
25.7823
3.91757
34.0999
2.97319
44.1685
-48.4833
-7.55522
-37.6277
-8.07886
-29.0043
-6.16386
-19.5211
-2.04443
15.3695
1.98516
24.4763
3.68512
32.4319
2.84744
42.0882
-46.1397
-7.13978
-35.7958
-7.62598
-27.5678
-5.78803
-18.5001
-1.8326
14.7731
2.07387
23.5187
3.80066
31.2349
3.21242
40.7955
-43.9641
-6.46765
-34.3517
-7.13314
-26.9197
-5.73276
-19.2784
-2.94865
13.7243
-16.6924
-1.47033
10.7178
23.4056
39.9758
66.6391
28833.1
28796.2
28759.2
28722.1
28685
28648
28611
28574
28537.2
28500.4
28463.8
28427.3
28390.9
28354.5
28318.2
0.173613
0.134533
0.0842345
0.0284981
-0.0267945
-0.0764619
-0.116537
-0.144477
-0.159122
-0.160502
-0.149574
-0.127961
-0.0977234
-0.0611867
-0.0208234
0.306928
0.236578
0.146363
0.0469679
-0.0509186
-0.138091
-0.207704
-0.255559
-0.279936
-0.281175
-0.261163
-0.222852
-0.16987
-0.106226
-0.0361284
0.468977
0.358511
0.217688
0.0639467
-0.0857414
-0.217264
-0.320615
-0.390107
-0.42388
-0.423092
-0.391042
-0.332411
-0.252675
-0.157718
-0.0535924
0.676079
0.510801
0.301935
0.076874
-0.138728
-0.324606
-0.467385
-0.560371
-0.602383
-0.596269
-0.547503
-0.463072
-0.3507
-0.218377
-0.0741159
0.950448
0.706679
0.402379
0.0803425
-0.221436
-0.475047
-0.663948
-0.781606
-0.829011
-0.812098
-0.739627
-0.621672
-0.468677
-0.290974
-0.0986099
1.32367
0.963089
0.52056
0.063554
-0.35231
-0.690196
-0.93175
-1.07309
-1.11995
-1.08348
-0.977235
-0.81531
-0.611362
-0.37823
-0.127959
1.8423
1.30145
0.65322
0.00562431
-0.561159
-1.00167
-1.29976
-1.45906
-1.49423
-1.42464
-1.27052
-1.05097
-0.783229
-0.482625
-0.162956
2.57731
1.74718
0.785252
-0.133116
-0.896275
-1.45557
-1.80656
-1.96915
-1.97326
-1.85033
-1.62923
-1.33482
-0.987956
-0.606084
-0.204197
3.64064
2.32471
0.873725
-0.427065
-1.43525
-2.11779
-2.50175
-2.63772
-2.57932
-2.37417
-2.06123
-1.67114
-1.22769
-0.749555
-0.251944
5.21428
3.03728
0.812009
-1.01362
-2.29985
-3.07857
-3.44493
-3.50066
-3.33214
-3.00581
-2.57039
-2.06081
-1.5021
-0.912504
-0.305966
7.59713
3.79814
0.350649
-2.13956
-3.67197
-4.4517
-4.69874
-4.58784
-4.24275
-3.74654
-3.15369
-2.49961
-1.80738
-1.0924
-0.365383
11.242
4.20749
-1.06799
-4.22331
-5.79675
-6.3575
-6.31048
-5.90922
-5.30445
-4.58391
-3.79824
-2.97654
-2.13543
-1.28431
-0.428552
16.4916
2.85782
-4.60677
-7.88894
-8.93422
-8.87106
-8.27645
-7.43411
-6.48192
-5.48639
-4.4788
-3.47288
-2.47348
-1.48088
-0.493059
20.9576
-4.66106
-12.328
-13.7914
-13.1801
-11.916
-10.4901
-9.06882
-7.70274
-6.40091
-5.15767
-3.96271
-2.80473
-1.67265
-0.555866
0.565953
1.70566
2.86927
4.07443
5.34167
6.69612
8.17007
9.80676
11.666
13.8317
16.4199
19.5672
23.3053
26.8022
24.1203
0.576888
1.73882
2.9258
4.15648
5.45286
6.84251
8.36197
10.0626
12.0207
14.3578
17.2826
21.1945
26.9834
37.0785
59.8357
0.582157
1.7546
2.95198
4.1929
5.4993
6.89875
8.42807
10.1395
12.1124
14.4758
17.4593
21.5166
27.6674
38.572
62.3532
0.581783
1.75305
2.94793
4.18384
5.48111
6.86481
8.36769
10.035
11.9329
14.1632
16.8903
20.3833
25.0405
31.0886
35.9213
0.576057
1.73512
2.91537
4.13218
5.4029
6.74809
8.19311
9.77037
11.5225
13.5056
15.7897
18.442
21.4438
24.4141
26.0859
0.565508
1.70246
2.85744
4.04307
5.27298
6.56206
7.92669
9.38432
10.9517
12.639
14.4338
16.2591
17.872
18.6364
16.9976
0.550833
1.6573
2.7782
3.92322
5.10197
6.32358
7.59567
8.92204
10.2976
11.6978
13.0566
14.2238
14.8912
14.5281
12.7199
0.532823
1.60211
2.68223
3.77995
4.90119
6.05003
7.22697
8.42561
9.62639
10.7852
11.8124
12.5355
12.6265
11.4233
7.19383
0.512283
1.53941
2.57402
3.62035
4.68123
5.75696
6.84321
7.92769
8.98435
9.96394
10.7795
11.286
11.2604
10.4202
8.722
0.489963
1.47151
2.45767
3.45063
4.45098
5.45657
6.46067
7.4491
8.39581
9.25662
9.96118
10.4061
10.4601
10.013
9.13312
0.466517
1.40041
2.3366
3.27578
4.21708
5.15722
6.08902
6.99946
7.86693
8.65781
9.32313
9.7976
10.0079
9.90634
9.56645
0.442478
1.3277
2.21347
3.09944
3.984
4.86366
5.73221
6.57967
7.39122
8.14619
8.81762
9.37256
9.77208
9.96518
9.85628
0.418259
1.25459
2.09021
2.92408
3.7543
4.57781
5.39003
6.18481
6.95479
7.69257
8.39299
9.05544
9.67962
10.2337
10.5656
0.394167
1.18199
1.96816
2.75124
3.52928
4.2998
5.05995
5.80716
6.54071
7.26488
7.99473
8.76487
9.63581
10.6566
11.5347
0.37043
1.11053
1.84827
2.5819
3.30947
4.02898
4.73885
5.439
6.13314
6.83324
7.56848
8.4043
9.48795
11.1784
14.489
0.347224
1.0407
1.73123
2.41677
3.09526
3.76485
4.42449
5.07501
5.72143
6.37718
7.07236
7.87159
8.91866
10.5751
13.953
0.324692
0.972916
1.61765
2.25652
2.88721
3.50764
4.11645
4.71385
5.30324
5.89372
6.50397
7.16677
7.92616
8.77642
9.22872
0.302964
0.907558
1.50813
2.10196
2.6863
3.25851
3.81631
4.35825
4.88428
5.39651
5.89909
6.39483
6.87053
7.25405
7.35996
0.282162
0.844991
1.4033
1.95398
2.49379
3.01936
3.5272
4.01368
4.4749
4.90598
5.29894
5.63681
5.87887
5.92444
5.51066
0.262399
0.785561
1.30377
1.81355
2.31117
2.79253
3.25291
3.68664
4.08643
4.44192
4.73703
4.9453
5.02366
4.9138
4.60843
0.243771
0.729571
1.21008
1.68155
2.13985
2.58026
2.99711
3.38318
3.72872
4.01977
4.23543
4.344
4.29913
4.03892
3.47544
0.226352
0.677253
1.12267
1.55869
1.98095
2.38436
2.76268
3.10785
3.40884
3.64997
3.80817
3.84925
3.72413
3.37464
2.8215
0.210184
0.628741
1.04179
1.44538
1.83512
2.20587
2.55128
2.86319
3.13053
3.33774
3.46222
3.46991
3.30491
2.85178
1.74557
0.195273
0.584054
0.967469
1.34169
1.70249
2.04496
2.36314
2.64947
2.89397
3.08296
3.19738
3.21048
3.08579
2.78242
2.32583
0.181587
0.543092
0.899529
1.24733
1.58259
1.90091
2.1971
2.46481
2.69594
2.87995
3.00288
3.04674
2.99072
2.81947
2.54552
0.169062
0.505648
0.837587
1.16166
1.47444
1.77223
2.05085
2.30553
2.53063
2.71934
2.86329
2.95236
2.97568
2.92783
2.83659
0.157603
0.471429
0.781107
1.08383
1.37672
1.65685
1.92121
2.16679
2.39059
2.58981
2.76179
2.90363
3.01004
3.0663
3.02546
0.147101
0.440092
0.729457
1.01281
1.28785
1.55241
1.80462
2.04315
2.26762
2.47918
2.68122
2.8795
3.07923
3.27218
3.40944
0.137441
0.411272
0.681979
0.947577
1.20626
1.45654
1.69752
1.92928
2.15362
2.37516
2.60325
2.85435
3.15311
3.51673
3.83116
0.128509
0.38462
0.638048
0.887143
1.1305
1.36713
1.59682
1.82057
2.04154
2.2666
2.50929
2.79611
3.18194
3.79542
4.9994
0.120207
0.35983
0.597126
0.830693
1.0594
1.28255
1.50023
1.71378
1.92663
2.14579
2.38466
2.66911
3.05268
3.66404
4.88624
0.112453
0.336656
0.558792
0.777622
0.992146
1.20176
1.40652
1.60748
1.80733
2.01127
2.22839
2.47326
2.76523
3.10845
3.34718
0.105186
0.314916
0.522753
0.72754
0.928302
1.12435
1.31544
1.50195
1.68519
1.86761
2.05285
2.24469
2.44219
2.6254
2.73637
0.0983649
0.294492
0.488831
0.680253
0.867731
1.05038
1.22753
1.3987
1.56361
1.72197
1.87273
2.01218
2.12908
2.19252
2.11669
0.0919622
0.27531
0.456934
0.635705
0.81051
0.980245
1.14377
1.29978
1.44659
1.58162
1.70046
1.79533
1.8531
1.85636
1.80775
0.0859598
0.257325
0.42702
0.593911
0.75681
0.91442
1.06522
1.20725
1.33775
1.45251
1.54484
1.60424
1.61496
1.55621
1.39937
0.0803426
0.240499
0.399054
0.554889
0.706783
0.853326
0.992764
1.12274
1.23985
1.33896
1.41211
1.44694
1.42508
1.32417
1.15391
0.075093
0.224785
0.372978
0.518605
0.660473
0.797168
0.926883
1.04716
1.15445
1.24345
1.30598
1.32903
1.29009
1.14031
0.721161
0.0701863
0.210113
0.348686
0.484932
0.617759
0.745858
0.86756
0.980599
1.08176
1.16632
1.22726
1.25417
1.23209
1.1435
0.998949
0.0655891
0.196383
0.32601
0.453635
0.578329
0.698994
0.814255
0.922294
1.0206
1.10559
1.17219
1.21333
1.22028
1.18557
1.11103
0.061259
0.183465
0.304725
0.424376
0.541701
0.655887
0.765971
0.870755
0.96868
1.05765
1.1348
1.19626
1.23739
1.25531
1.2617
0.0571462
0.171204
0.284559
0.396735
0.507256
0.615633
0.721373
0.823985
0.922989
1.01793
1.10831
1.19331
1.27064
1.33308
1.35735
0.0531964
0.159434
0.265212
0.370248
0.474303
0.577214
0.678954
0.779728
0.88013
0.981378
1.08557
1.1957
1.31424
1.43737
1.54327
0.0493549
0.147984
0.246383
0.344446
0.442149
0.539614
0.637213
0.735736
0.836692
0.942791
1.05873
1.19227
1.35465
1.55364
1.73763
0.0455701
0.136695
0.22779
0.318897
0.410165
0.501928
0.594835
0.690064
0.789694
0.897382
1.01968
1.16881
1.36967
1.68035
2.26461
0.0417967
0.125428
0.209192
0.293241
0.377842
0.463454
0.550854
0.641345
0.73711
0.841845
0.961998
1.10945
1.30845
1.61709
2.20921
0.0379975
0.114071
0.190398
0.267206
0.344823
0.423745
0.504735
0.588974
0.678307
0.775614
0.885374
1.01433
1.1711
1.35701
1.49993
0.0341442
0.102541
0.171274
0.240613
0.310904
0.382608
0.456367
0.533076
0.61398
0.70075
0.795437
0.899902
1.01354
1.1268
1.21356
0.0302167
0.0907782
0.151732
0.213365
0.276009
0.340052
0.40596
0.474277
0.545591
0.620401
0.698728
0.779126
0.856266
0.915027
0.91331
0.0262009
0.0787455
0.131721
0.185421
0.240149
0.296209
0.35389
0.413407
0.474788
0.537625
0.600597
0.660631
0.711775
0.745275
0.760779
0.0220868
0.0664161
0.11121
0.156768
0.20337
0.25125
0.300554
0.351254
0.402987
0.45477
0.504522
0.548328
0.579556
0.58804
0.556073
0.0178652
0.0537662
0.090172
0.127396
0.16571
0.20531
0.24626
0.288396
0.331164
0.373342
0.412592
0.444778
0.463151
0.458916
0.435155
0.0135261
0.0407681
0.0685697
0.0972727
0.127164
0.158441
0.191151
0.225111
0.259765
0.293961
0.325585
0.350837
0.362463
0.343369
0.235781
0.00905616
0.0273836
0.0463455
0.0663296
0.0876645
0.110585
0.135186
0.161358
0.188696
0.216383
0.243019
0.266378
0.283127
0.289295
0.289176
0.00443772
0.0135608
0.0234157
0.0344543
0.0470708
0.0615717
0.0781418
0.0968066
0.1174
0.139552
0.162745
0.186527
0.211158
0.239604
0.283695
-0.00035176
-0.000767803
-0.000332018
0.00148928
0.00517611
0.0111306
0.0196537
0.0309293
0.0450351
0.062014
0.0820814
0.106104
0.136562
0.179068
0.242426
-0.00533994
-0.0156855
-0.0250376
-0.0327653
-0.0382855
-0.0410845
-0.0407345
-0.0368999
-0.0293093
-0.0176517
-0.00130985
0.0212333
0.0536205
0.104075
0.191269
-0.0105594
-0.0312904
-0.050867
-0.0685466
-0.0836291
-0.0954766
-0.103531
-0.107324
-0.106462
-0.100552
-0.0889875
-0.0704512
-0.0418425
0.00359485
0.0757282
-0.016047
-0.0476946
-0.0780095
-0.106125
-0.131211
-0.152493
-0.169275
-0.180966
-0.187105
-0.187361
-0.181486
-0.169107
-0.148965
-0.115394
-0.0385133
-0.0218438
-0.0650217
-0.106675
-0.145802
-0.181427
-0.212624
-0.238541
-0.25845
-0.271817
-0.27841
-0.278478
-0.273127
-0.265385
-0.264424
-0.306824
-0.0279937
-0.0834051
-0.13709
-0.187903
-0.234711
-0.276412
-0.311968
-0.340463
-0.361218
-0.37397
-0.37921
-0.378783
-0.377064
-0.383305
-0.414321
-0.0345426
-0.102985
-0.169496
-0.232779
-0.291534
-0.344459
-0.390285
-0.427838
-0.456158
-0.474728
-0.483857
-0.485308
-0.483185
-0.48494
-0.502404
-0.0415371
-0.123903
-0.204138
-0.280795
-0.352397
-0.417425
-0.474337
-0.521611
-0.557854
-0.582022
-0.593814
-0.594291
-0.586581
-0.575629
-0.561833
-0.0490224
-0.146299
-0.24126
-0.332317
-0.417817
-0.496017
-0.56507
-0.623031
-0.667921
-0.697893
-0.711608
-0.708937
-0.692202
-0.668261
-0.653446
-0.0570401
-0.170301
-0.281089
-0.387691
-0.488298
-0.580952
-0.663495
-0.733516
-0.788332
-0.825038
-0.840761
-0.833327
-0.802804
-0.754532
-0.702273
-0.0656254
-0.196019
-0.32382
-0.447223
-0.564295
-0.672901
-0.770605
-0.854549
-0.921304
-0.966738
-0.985979
-0.973733
-0.92571
-0.84355
-0.750131
-0.0748051
-0.223535
-0.369602
-0.511147
-0.646164
-0.772411
-0.887261
-0.987507
-1.06907
-1.12661
-1.15305
-1.13897
-1.0723
-0.94037
-0.752219
-0.084595
-0.252899
-0.418522
-0.579597
-0.734118
-0.879826
-1.01405
-1.13343
-1.2335
-1.30808
-1.34823
-1.3407
-1.26421
-1.07621
-0.645654
-0.0949995
-0.284121
-0.470595
-0.652596
-0.828184
-0.99521
-1.15114
-1.29274
-1.41564
-1.51343
-1.57652
-1.59032
-1.53354
-1.38049
-1.13682
-0.106013
-0.317181
-0.525771
-0.730041
-0.928191
-1.11829
-1.29816
-1.46504
-1.61518
-1.74287
-1.83902
-1.88893
-1.86969
-1.74769
-1.46688
-0.11762
-0.352028
-0.583944
-0.811732
-1.03378
-1.24848
-1.45418
-1.64897
-1.83031
-1.99421
-2.13361
-2.23556
-2.27721
-2.22517
-2.06844
-0.129806
-0.388603
-0.644981
-0.897405
-1.14446
-1.38492
-1.61777
-1.84222
-2.05754
-2.26255
-2.45421
-2.62404
-2.74976
-2.77533
-2.55514
-0.142556
-0.426857
-0.708761
-0.9868
-1.25972
-1.52664
-1.78719
-2.0418
-2.29191
-2.54016
-2.78995
-3.04315
-3.29186
-3.49613
-3.5589
-0.155869
-0.466773
-0.775222
-1.07974
-1.37915
-1.67276
-1.96072
-2.24449
-2.52757
-2.81669
-3.12331
-3.46534
-3.86482
-4.31519
-4.55513
-0.16976
-0.508392
-0.844408
-1.17623
-1.5026
-1.82281
-2.13717
-2.44764
-2.75904
-3.08105
-3.43207
-3.84764
-4.40241
-5.28037
-7.05053
-0.184266
-0.551825
-0.916503
-1.27651
-1.63031
-1.97692
-2.3163
-2.65013
-2.98312
-3.32525
-3.69598
-4.13327
-4.71553
-5.62595
-7.37183
-0.199447
-0.597259
-0.991839
-1.38108
-1.76303
-2.13605
-2.49927
-2.8532
-3.20086
-3.54957
-3.91367
-4.31821
-4.80076
-5.39131
-5.94843
-0.215377
-0.644936
-1.07088
-1.49072
-1.90192
-2.30198
-2.68869
-3.06062
-3.41786
-3.76318
-4.10326
-4.44897
-4.81097
-5.17989
-5.47713
-0.232138
-0.695122
-1.15415
-1.60636
-2.04855
-2.47718
-2.88838
-3.27822
-3.64312
-3.98043
-4.28893
-4.56841
-4.81637
-5.01821
-5.12289
-0.249796
-0.74805
-1.24216
-1.72895
-2.2046
-2.66447
-3.10288
-3.51314
-3.88754
-4.21769
-4.49475
-4.70971
-4.85379
-4.924
-4.95287
-0.268383
-0.803854
-1.33526
-1.85927
-2.37161
-2.86664
-3.33694
-3.77295
-4.16269
-4.49178
-4.7437
-4.90021
-4.94251
-4.85849
-4.67829
-0.287867
-0.862478
-1.43349
-1.99769
-2.55064
-3.08598
-3.59481
-4.06487
-4.47994
-4.81947
-5.0589
-5.17001
-5.11894
-4.85976
-4.39704
-0.308131
-0.923604
-1.53644
-2.14393
-2.74188
-3.32374
-3.8796
-4.39498
-4.84963
-5.21667
-5.4632
-5.55242
-5.43987
-5.00237
-3.52233
-0.328944
-0.986562
-1.64309
-2.29679
-2.94429
-3.57954
-4.19248
-4.76727
-5.28015
-5.69756
-5.97673
-6.07494
-5.98647
-5.86896
-6.51192
-0.349942
-1.05028
-1.7517
-2.45396
-3.15521
-3.85082
-4.53185
-5.18255
-5.77696
-6.27445
-6.61591
-6.7271
-6.55321
-6.20744
-6.53938
-0.370627
-1.11324
-1.85971
-2.61184
-3.37003
-4.13224
-4.89227
-5.63691
-6.34106
-6.95968
-7.41499
-7.57723
-7.23932
-6.07526
-3.42688
-0.390368
-1.17352
-1.9638
-2.76551
-3.58205
-4.41515
-5.26338
-6.11939
-6.96453
-7.75833
-8.41757
-8.77466
-8.49915
-6.97385
-3.23476
-0.408428
-1.22885
-2.05996
-2.90887
-3.78256
-4.68755
-5.62909
-6.60942
-7.62365
-8.65043
-9.62996
-10.4114
-10.6269
-9.40979
-4.93876
-0.424014
-1.27675
-2.14375
-3.03503
-3.96135
-4.93455
-5.96785
-7.0759
-8.27405
-9.57532
-10.9799
-12.4411
-13.7494
-14.1054
-10.3973
-0.43633
-1.31474
-2.21068
-3.13685
-4.10756
-5.13981
-6.25471
-7.47979
-8.85283
-10.4284
-12.2905
-14.5771
-17.5332
-21.6233
-27.7213
-11.4204
-25.9916
-24.562
-20.9801
-17.6535
-14.8644
-12.5282
-10.5285
-8.77253
-7.19296
-5.7413
-4.38185
-3.08736
-1.836
-0.609324
-111.821
-58.3288
-37.6606
-27.4505
-21.3624
-17.2222
-14.1355
-11.6755
-9.61383
-7.81741
-6.20276
-4.71411
-3.31186
-1.96594
-0.651874
-124.317
-67.8719
-43.4965
-31.0583
-23.7186
-18.8484
-15.3076
-12.5457
-10.2709
-8.31563
-6.5767
-4.98638
-3.49723
-2.07374
-0.687259
-68.318
-55.1441
-41.0427
-31.1254
-24.36
-19.5513
-15.9388
-13.0778
-10.7061
-8.66359
-6.84742
-5.18837
-3.63702
-2.15584
-0.714334
-48.2419
-43.0604
-35.6831
-29.0037
-23.6425
-19.4234
-16.048
-13.27
-10.9128
-8.85431
-7.00903
-5.31558
-3.72806
-2.21039
-0.732491
-30.6549
-32.5014
-29.8389
-25.9666
-22.1319
-18.7096
-15.7425
-13.1699
-10.9121
-8.89696
-7.06518
-5.36921
-3.77058
-2.23732
-0.741678
-22.6251
-25.0735
-24.8349
-22.9035
-20.3348
-17.6796
-15.163
-12.8511
-10.7428
-8.81226
-7.02702
-5.35523
-3.76771
-2.23811
-0.742333
-12.5816
-19.5116
-21.0064
-20.2828
-18.5977
-16.5534
-14.4412
-12.3909
-10.4502
-8.62664
-6.91005
-5.28273
-3.72462
-2.21542
-0.735268
-15.2001
-17.7242
-18.7184
-18.3299
-17.11
-15.4744
-13.6765
-11.8547
-10.076
-8.36674
-6.73109
-5.16215
-3.64755
-2.17256
-0.72152
-15.8795
-16.9991
-17.3906
-16.9542
-15.9111
-14.5079
-12.9284
-11.2886
-9.65374
-8.05567
-6.50581
-5.00383
-3.54298
-2.11307
-0.702214
-16.5386