/*--------------------------------*- C++ -*----------------------------------*\
| =========                 |                                                 |
| \\      /  F ield         | OpenFOAM: The Open Source CFD Toolbox           |
|  \\    /   O peration     | Version:  5.x                                   |
|   \\  /    A nd           | Web:      www.OpenFOAM.org                      |
|    \\/     M anipulation  |                                                 |
\*---------------------------------------------------------------------------*/
FoamFile
{
    version     2.0;
    format      ascii;
    class       volScalarField;
    location    "9.7";
    object      gradTx;
}
// * * * * * * * * * * * * * * * * * * * * * * * * * * * * * * * * * * * * * //

dimensions      [0 -1 0 1 0 0 0];

internalField   nonuniform List<scalar> 
3200
(
45.2118
3.7117
1.64865
1.54011
0.814931
0.771346
0.466723
0.447268
0.293827
0.282721
0.170835
0.166692
0.180696
0.180846
0.173154
0.172312
0.15953
0.158413
0.144287
0.143105
0.128817
0.127647
0.113842
0.112747
0.100205
0.0993175
0.090141
0.0901345
0.0950624
0.164726
0.0824841
0.0552444
0.0534163
0.0416689
0.0408418
0.0332448
0.032686
0.0269698
0.0265403
0.0219827
0.0216362
0.0178979
0.0176104
0.0144633
0.0142162
0.0114488
0.0112218
0.00856023
0.00832159
0.00520016
0.00506941
0.00506838
0.00502077
0.00395609
0.00384306
0.00219304
0.00202763
-0.000278337
-0.0005157
-0.00387278
-0.0042351
-0.00950088
-0.010106
-0.0191785
-0.0203265
-0.0381863
-0.0408592
-0.084059
-0.0929838
-0.238843
-0.617586
-0.436427
-0.681945
-0.71332
-1.26874
-1.24311
-0.0558184
-0.00753251
-0.0015261
-52.9454
47.8962
3.10508
1.57722
1.35445
0.774041
0.68099
0.436315
0.394715
0.271787
0.248194
0.160332
0.151487
0.160987
0.161195
0.155215
0.153442
0.143359
0.140994
0.129816
0.127309
0.115994
0.113515
0.102585
0.100266
0.0903589
0.0884951
0.0814221
0.0815722
0.0883543
0.137346
0.0765857
0.0516052
0.0475342
0.0380027
0.036229
0.0301726
0.0289841
0.0244442
0.0235322
0.019916
0.0191806
0.0162152
0.015605
0.0131083
0.0125839
0.0103874
0.00990546
0.00779134
0.00728766
0.00485152
0.00457372
0.00452823
0.00442424
0.00358381
0.00334426
0.00203575
0.00168454
-0.000147838
-0.000652393
-0.0033237
-0.00409473
-0.00829245
-0.00958267
-0.0168403
-0.019299
-0.0337014
-0.0394916
-0.0750799
-0.0950061
-0.227187
-0.51796
-0.415047
-0.60234
-0.666936
-1.08548
-1.03181
-0.121895
-0.0209064
-0.00438831
-54.7416
50.5638
2.57632
1.45359
1.18309
0.713657
0.5967
0.397783
0.345415
0.245773
0.216238
0.146669
0.135548
0.141649
0.141791
0.137109
0.134904
0.126879
0.123928
0.114997
0.111865
0.102818
0.0997203
0.0909831
0.0880877
0.0801914
0.0778811
0.0724143
0.0727445
0.0799578
0.114355
0.069256
0.0471297
0.0418705
0.0340261
0.0317874
0.0269056
0.0254162
0.0217734
0.0206323
0.017734
0.0168143
0.0144383
0.0136751
0.0116745
0.0110185
0.00925744
0.00865435
0.00695803
0.00633101
0.00441653
0.00406872
0.00399041
0.00385715
0.00318748
0.00288821
0.00184017
0.00140069
-7.04608e-05
-0.000702423
-0.00285065
-0.00381731
-0.00720032
-0.00882064
-0.0146941
-0.0177937
-0.0295609
-0.036932
-0.0667272
-0.0925382
-0.209187
-0.434081
-0.382059
-0.527643
-0.606395
-0.921117
-0.85477
-0.155615
-0.0309014
-0.00673413
-56.5377
53.2108
2.11311
1.29587
1.01968
0.639173
0.515688
0.35339
0.298006
0.216956
0.185883
0.130667
0.118921
0.12255
0.12258
0.118903
0.116598
0.110196
0.107102
0.0999462
0.0966587
0.0894043
0.0861515
0.0791478
0.07611
0.0698005
0.0673932
0.0631745
0.0636415
0.0704739
0.0945436
0.0610074
0.0419794
0.0363102
0.0298253
0.0274516
0.0235029
0.0219344
0.0190025
0.0178026
0.0154729
0.0145061
0.0125969
0.0117947
0.0101869
0.00949726
0.00808111
0.00744696
0.00608193
0.00542585
0.00391887
0.00355293
0.00345479
0.0033115
0.00277632
0.0024621
0.00162023
0.00115809
-2.66586e-05
-0.000691811
-0.00242486
-0.00344323
-0.00617871
-0.0078885
-0.0126589
-0.0159417
-0.0255963
-0.0334754
-0.058534
-0.0864369
-0.186858
-0.361279
-0.341167
-0.455619
-0.536415
-0.771992
-0.703038
-0.166357
-0.0368746
-0.0083343
-58.3335
55.8364
1.70403
1.1165
0.860452
0.554409
0.436228
0.30472
0.251623
0.186139
0.156494
0.112927
0.101678
0.103594
0.103518
0.100643
0.0984571
0.0933809
0.0904376
0.0847408
0.0816105
0.0758302
0.0727327
0.0671538
0.0642631
0.0592534
0.0569778
0.0537473
0.0542839
0.0603005
0.0770367
0.0521784
0.0362947
0.0307825
0.02546
0.0231787
0.0200049
0.0185071
0.0161623
0.0150181
0.0131572
0.0122357
0.0107111
0.00994654
0.00866252
0.00800508
0.00687349
0.00626878
0.00517746
0.00455472
0.00337556
0.00302642
0.00292096
0.00278152
0.00235632
0.00205709
0.00138509
0.000944398
-3.64741e-06
-0.000638489
-0.00202766
-0.00300048
-0.00519812
-0.00683394
-0.0106832
-0.0138349
-0.0217027
-0.0293317
-0.050227
-0.0774348
-0.161569
-0.296259
-0.294893
-0.384942
-0.460244
-0.63505
-0.570015
-0.160811
-0.0388101
-0.00906579
-60.129
58.4418
1.33862
0.923877
0.703221
0.46213
0.357301
0.252913
0.205737
0.153888
0.127662
0.093894
0.0839092
0.0847179
0.0845674
0.0823548
0.0804313
0.0764803
0.0738834
0.0694327
0.0666684
0.0621488
0.0594131
0.0550523
0.0525009
0.0485969
0.0466006
0.0441694
0.044707
0.0496982
0.0611935
0.0429904
0.0301952
0.0252472
0.020973
0.0189414
0.0164399
0.0151137
0.013274
0.0122622
0.010804
0.00998934
0.00879496
0.0081191
0.00711307
0.00653184
0.00564477
0.00511006
0.00425423
0.00370583
0.00279904
0.00249016
0.00238847
0.00226297
0.00193127
0.00166698
0.0011407
0.000750988
6.82955e-06
-0.000554999
-0.00164712
-0.00250873
-0.00424002
-0.00569084
-0.00873532
-0.0115394
-0.0178187
-0.0246573
-0.0416676
-0.0661557
-0.134257
-0.236681
-0.244962
-0.314854
-0.380093
-0.5077
-0.45076
-0.143777
-0.0370554
-0.00890369
-61.9243
61.0296
1.00744
0.723489
0.546807
0.364401
0.278357
0.198818
0.160036
0.120613
0.0991313
0.0739097
0.0657083
0.0658804
0.0656994
0.0640551
0.0624867
0.0595256
0.0574035
0.0540571
0.0517964
0.048396
0.0461586
0.0428784
0.0407928
0.0378641
0.0362407
0.0344728
0.0349519
0.0388358
0.0465382
0.0335861
0.0237817
0.0196849
0.0163963
0.014723
0.0128278
0.0117408
0.0103526
0.00952423
0.00842497
0.00775816
0.00685804
0.00630485
0.00554661
0.00507083
0.00440195
0.00396417
0.00331869
0.00287127
0.0021986
0.0019456
0.00185694
0.00175265
0.00150352
0.00128734
0.000890831
0.000571751
1.00084e-05
-0.000450301
-0.00127581
-0.0019822
-0.00329313
-0.004484
-0.00679711
-0.00910488
-0.0139123
-0.019576
-0.032809
-0.0531321
-0.105573
-0.180869
-0.192567
-0.244953
-0.297447
-0.387733
-0.341506
-0.118732
-0.0321579
-0.00790576
-63.7193
63.6031
0.701903
0.51881
0.390622
0.262817
0.199152
0.143093
0.114362
0.0866203
0.0707504
0.0532446
0.0471725
0.0470569
0.0468899
0.0457525
0.0445978
0.0425374
0.0409725
0.0386381
0.03697
0.0345967
0.0329457
0.0306567
0.0291184
0.027079
0.0258866
0.0246862
0.0250606
0.0278206
0.0327091
0.0240558
0.0171399
0.0140902
0.011755
0.0105134
0.00918343
0.00837995
0.00740881
0.00679704
0.00602864
0.0055363
0.00490723
0.0044988
0.00396885
0.00361754
0.00314988
0.00282659
0.00237523
0.00204571
0.00158136
0.00139446
0.00132602
0.00124812
0.00107444
0.000914918
0.000637864
0.000402216
9.12603e-06
-0.000330999
-0.000909264
-0.0014315
-0.00235105
-0.00323227
-0.00485911
-0.0065704
-0.0099717
-0.014192
-0.0236669
-0.0388238
-0.0759746
-0.1276
-0.138544
-0.175047
-0.21329
-0.273227
-0.239314
-0.0882397
-0.0247675
-0.00619495
-65.514
66.1661
0.41417
0.311935
0.234422
0.158667
0.119644
0.0862749
0.0686481
0.0521525
0.0424348
0.0321221
0.0283984
0.0282355
0.0281192
0.0274505
0.0267451
0.0255293
0.0245723
0.0231924
0.0221719
0.0207684
0.0197583
0.018405
0.0174641
0.0162601
0.0155329
0.0148366
0.0150739
0.0167202
0.0194216
0.014456
0.0103435
0.00846699
0.00706988
0.00630738
0.00551796
0.00502578
0.00445062
0.0040761
0.00362127
0.00331991
0.00294759
0.0026976
0.00238393
0.00216889
0.00189203
0.00169412
0.00142689
0.00122554
0.000953023
0.00083858
0.000795485
0.000747424
0.000644796
0.000547188
0.000383238
0.000238976
6.12237e-06
-0.000202174
-0.000544962
-0.000864899
-0.00141051
-0.00195072
-0.00291774
-0.00396831
-0.0059983
-0.00859781
-0.0142974
-0.0236357
-0.0457972
-0.0759591
-0.083499
-0.105072
-0.128265
-0.162475
-0.141809
-0.0542432
-0.0155812
-0.00394247
-67.3085
68.7228
0.136905
0.10407
0.0781516
0.0530487
0.0399087
0.0288269
0.0228889
0.0174136
0.0141431
0.0107361
0.00948194
0.0094122
0.00937069
0.00914994
0.00891284
0.00851083
0.00818896
0.0077323
0.007389
0.00692448
0.00658466
0.00613675
0.00582028
0.00542208
0.00517783
0.00494966
0.00503085
0.00557762
0.00644077
0.00482205
0.00345758
0.00282457
0.0023594
0.0021024
0.0018406
0.00167493
0.0014844
0.00135837
0.00120775
0.00110634
0.000983053
0.000898936
0.000795064
0.000722705
0.00063101
0.000564413
0.000475907
0.000408219
0.000318359
0.000279845
0.000265141
0.000248905
0.000214947
0.00018211
0.000127823
7.92776e-05
2.13482e-06
-6.79713e-05
-0.000181575
-0.000289276
-0.000470183
-0.000652092
-0.00097302
-0.00132705
-0.00200213
-0.00287961
-0.00478247
-0.00793474
-0.0152999
-0.025223
-0.0278926
-0.0350324
-0.0427998
-0.0539175
-0.0469796
-0.0182906
-0.00531393
-0.00135236
-69.1028
68.7146
0.150884
0.128426
0.107467
0.0852098
0.0726949
0.0607369
0.0533353
0.0448802
0.0387611
0.0310047
0.0281936
0.028307
0.0282056
0.0273723
0.0264746
0.0249592
0.0237728
0.0221291
0.0209358
0.0193798
0.0182846
0.0168981
0.0159525
0.0148078
0.0141313
0.0135416
0.0138401
0.0155199
0.0181076
0.0137302
0.0100727
0.00839321
0.00718193
0.00651556
0.0058369
0.00540376
0.00489948
0.00456118
0.00414996
0.00386861
0.00352015
0.00327812
0.00297313
0.0027558
0.00247316
0.00226042
0.00196662
0.00173074
0.00140814
0.00129536
0.00131323
0.00131507
0.00128237
0.00124381
0.001176
0.00112184
0.00104547
0.000988788
0.000912838
0.000855998
0.00077787
0.000712358
0.000609215
0.000495125
0.000269115
-7.42692e-05
-0.000891412
-0.00243002
-0.00621621
-0.0117839
-0.0150681
-0.0220539
-0.0294888
-0.040433
-0.0360468
-0.0140874
-0.00409752
-0.00104314
-69.8075
66.1412
0.456022
0.385217
0.322452
0.25524
0.218062
0.182028
0.160048
0.134547
0.116349
0.0928162
0.0844638
0.0849297
0.084646
0.0821195
0.0794486
0.0748646
0.0713367
0.0663693
0.062822
0.0581211
0.0548653
0.0506765
0.0478656
0.0444048
0.0423905
0.0405894
0.0414651
0.0465235
0.0546014
0.0411618
0.0301389
0.0251609
0.021524
0.0195472
0.0175009
0.0162141
0.0146918
0.0136865
0.0124447
0.0116085
0.0105562
0.00983689
0.00891589
0.00827003
0.00741668
0.00678449
0.00589754
0.00519569
0.00421604
0.00388086
0.00394035
0.0039466
0.00384735
0.00373259
0.00352745
0.00336641
0.00313563
0.00296714
0.00273775
0.00256885
0.00233311
0.00213858
0.00182809
0.00148985
0.000812043
-0.000203854
-0.00264537
-0.00720016
-0.0185773
-0.0354431
-0.0450563
-0.0661437
-0.088326
-0.121912
-0.108843
-0.0417835
-0.0120151
-0.00304109
-69.4223
63.5605
0.771352
0.641687
0.537616
0.424068
0.363384
0.302758
0.266902
0.223922
0.19415
0.15402
0.140381
0.141582
0.141176
0.136872
0.132499
0.124728
0.118958
0.110553
0.104754
0.0968046
0.0914834
0.0843999
0.0798047
0.0739439
0.0706411
0.0675302
0.0689229
0.0774063
0.0919559
0.0684968
0.0499633
0.041875
0.0357997
0.0325816
0.0291345
0.027034
0.0244635
0.0228212
0.0207232
0.0193571
0.017579
0.0164037
0.0148477
0.0137926
0.0123514
0.0113188
0.00982108
0.00867177
0.00699817
0.00645058
0.00656961
0.00658236
0.00641296
0.00622501
0.00587715
0.00561378
0.00522332
0.00494794
0.00456026
0.00428439
0.00388671
0.00356946
0.00304808
0.00249818
0.00136851
-0.000276402
-0.00431479
-0.0116974
-0.0307189
-0.0593924
-0.0745855
-0.11019
-0.146707
-0.205258
-0.183799
-0.067988
-0.019101
-0.00477877
-69.0371
60.9677
1.10395
0.897133
0.753158
0.590782
0.508704
0.422496
0.37404
0.312768
0.272366
0.214165
0.195705
0.198299
0.197862
0.191628
0.185685
0.174511
0.166685
0.154632
0.146773
0.135383
0.128172
0.118024
0.111795
0.103381
0.0988842
0.0942908
0.096097
0.108047
0.130831
0.0956349
0.06937
0.0585086
0.0499611
0.0456253
0.0407143
0.0378726
0.0341981
0.0319743
0.0289725
0.0271222
0.0245776
0.0229859
0.0207594
0.0193306
0.0172698
0.0158717
0.0137307
0.0121688
0.00973528
0.00899366
0.00920314
0.00922543
0.00897934
0.00872384
0.00822349
0.00786626
0.00730642
0.00693325
0.00637831
0.00600481
0.00543711
0.00500851
0.00426923
0.00352971
0.0019456
-0.000253192
-0.00585042
-0.015729
-0.0424744
-0.0838808
-0.103298
-0.154199
-0.204207
-0.291804
-0.262529
-0.0915154
-0.0248042
-0.00609884
-68.6517
58.3584
1.4613
1.15007
0.969437
0.754284
0.654188
0.540725
0.481691
0.40078
0.351293
0.27272
0.250187
0.255138
0.25478
0.246372
0.239081
0.22416
0.214581
0.198543
0.188933
0.173794
0.164978
0.151491
0.143872
0.132661
0.127131
0.120796
0.122866
0.138253
0.172025
0.122416
0.0881607
0.0750498
0.0639542
0.058692
0.0522115
0.0487447
0.0438747
0.0411585
0.0371759
0.0349152
0.0315383
0.0295934
0.0266394
0.0248939
0.0221617
0.0204544
0.0176172
0.0157008
0.0124047
0.0114987
0.0118442
0.0118793
0.0115461
0.0112325
0.0105641
0.0101269
0.00938208
0.00892586
0.00818914
0.00773304
0.00698197
0.00646002
0.00549042
0.00459505
0.0025473
-9.40155e-05
-0.00721475
-0.0190859
-0.0536433
-0.109249
-0.130751
-0.198244
-0.260203
-0.383024
-0.346929
-0.110871
-0.0285872
-0.00686918
-68.2662
55.7288
1.85141
1.39777
1.1871
0.913183
0.800207
0.656776
0.590218
0.487535
0.431384
0.329034
0.303569
0.312188
0.31202
0.301072
0.292782
0.273595
0.262736
0.242198
0.231314
0.211953
0.201971
0.184724
0.176093
0.161714
0.15541
0.146964
0.149101
0.167725
0.216555
0.148583
0.106106
0.0915104
0.0777141
0.0718076
0.0635881
0.0596729
0.0534653
0.0503934
0.0453104
0.0427529
0.0384417
0.0362415
0.032471
0.0304968
0.0270127
0.0250823
0.0214669
0.0192881
0.0149787
0.0139538
0.0144977
0.0145479
0.0141122
0.0137554
0.0128956
0.0123998
0.0114462
0.0109297
0.00998878
0.00947309
0.00851771
0.00792947
0.00670867
0.00570652
0.00317278
0.000244374
-0.00838903
-0.0215354
-0.0639702
-0.135981
-0.156365
-0.242511
-0.313764
-0.480601
-0.439327
-0.124075
-0.0299475
-0.00699481
-67.8804
53.076
2.28287
1.63576
1.40729
1.06565
0.947445
0.769752
0.700189
0.572428
0.513323
0.382272
0.355588
0.36959
0.369692
0.355665
0.346919
0.322698
0.311278
0.285466
0.274034
0.249736
0.239255
0.217612
0.208544
0.190444
0.183776
0.17271
0.174678
0.195989
0.265757
0.17373
0.122936
0.107939
0.0911584
0.0850157
0.0747927
0.070693
0.0629305
0.0597089
0.053344
0.0506608
0.0452607
0.0429524
0.0382309
0.0361602
0.0318016
0.0297777
0.0252593
0.0229605
0.0174212
0.0163461
0.017171
0.017236
0.0166751
0.0162985
0.0152125
0.0146912
0.013493
0.0129506
0.0117714
0.0112308
0.0100388
0.00942426
0.00791821
0.00687929
0.00381409
0.000811008
-0.00938274
-0.0228132
-0.0731141
-0.164777
-0.179348
-0.287372
-0.363502
-0.586502
-0.542684
-0.128434
-0.0284609
-0.00643095
-67.4943
50.3986
2.76484
1.85701
1.632
1.20917
1.09706
0.878403
0.812488
0.654576
0.598139
0.431335
0.40598
0.427549
0.427928
0.410047
0.401675
0.371289
0.360395
0.32816
0.317269
0.286967
0.276986
0.249997
0.241356
0.218717
0.212317
0.197934
0.199481
0.222315
0.321431
0.197228
0.138334
0.12444
0.104177
0.0983873
0.0857525
0.0818597
0.0722143
0.0691503
0.0612304
0.0586775
0.0519562
0.0497599
0.0438848
0.0419152
0.0364972
0.034573
0.0289629
0.0267627
0.0196853
0.0186625
0.0198748
0.0199492
0.0192307
0.01887
0.0175069
0.0170096
0.0155135
0.014997
0.0135286
0.0130146
0.0115368
0.0109548
0.00910911
0.00813316
0.00445296
0.00166532
-0.0102469
-0.0226161
-0.0806033
-0.196658
-0.198592
-0.33351
-0.407364
-0.703076
-0.660858
-0.120222
-0.0238565
-0.00519662
-67.1081
47.6975
3.30683
2.05094
1.86463
1.34026
1.25094
0.980944
0.928467
0.732664
0.68737
0.474741
0.454495
0.486355
0.486895
0.464049
0.457312
0.4191
0.410367
0.37
0.36128
0.323385
0.315397
0.281648
0.274729
0.246341
0.241178
0.222521
0.223433
0.245589
0.386038
0.218114
0.151932
0.141195
0.116618
0.112033
0.0963628
0.0932567
0.0812349
0.078786
0.0689023
0.066861
0.0584709
0.0567147
0.0493827
0.0478082
0.0410531
0.0395159
0.0325302
0.0307601
0.0217072
0.0208895
0.0226241
0.0226941
0.0217721
0.0214816
0.0197668
0.0193681
0.0174949
0.0170816
0.0152477
0.014837
0.0129991
0.0125359
0.0102653
0.00949525
0.00505618
0.00288468
-0.0110927
-0.0205942
-0.0857696
-0.233103
-0.212517
-0.38209
-0.442353
-0.833167
-0.798969
-0.0942392
-0.0161439
-0.00338659
-66.7217
44.9771
3.91824
2.20209
2.11078
1.45396
1.41205
1.07478
1.05018
0.804732
0.783295
0.510451
0.500925
0.546413
0.546798
0.517407
0.514208
0.465731
0.461604
0.410574
0.406459
0.358607
0.354839
0.312227
0.30896
0.273036
0.270578
0.246326
0.246535
0.264132
0.462981
0.234931
0.163313
0.158504
0.128258
0.126122
0.106471
0.10501
0.0898728
0.0887193
0.0762606
0.0752987
0.0647203
0.0638927
0.0546503
0.0539086
0.0454005
0.0446767
0.035889
0.0350489
0.0233999
0.0230146
0.0254401
0.0254789
0.0242884
0.0241503
0.0219741
0.0217856
0.019418
0.0192231
0.0169099
0.0167165
0.0144065
0.0141893
0.0113615
0.0110042
0.00556877
0.00457634
-0.0121175
-0.0163453
-0.0876495
-0.276264
-0.218836
-0.435042
-0.464118
-0.980258
-0.963901
-0.0431909
-0.00581774
-0.00117777
-66.3352
44.9771
3.91824
2.20209
2.11078
1.45396
1.41205
1.07478
1.05018
0.804732
0.783295
0.510451
0.500925
0.546413
0.546798
0.517407
0.514208
0.465732
0.461604
0.410574
0.406459
0.358607
0.354839
0.312227
0.30896
0.273036
0.270578
0.246326
0.246536
0.264133
0.462982
0.234932
0.163313
0.158504
0.128259
0.126122
0.106471
0.105011
0.089873
0.0887195
0.0762609
0.0752989
0.0647205
0.0638929
0.0546505
0.0539088
0.0454006
0.0446769
0.0358891
0.035049
0.0233999
0.0230146
0.0254402
0.025479
0.0242885
0.0241504
0.0219742
0.0217857
0.0194182
0.0192232
0.01691
0.0167166
0.0144066
0.0141894
0.0113616
0.0110043
0.00556887
0.00457644
-0.0121174
-0.0163452
-0.0876493
-0.276264
-0.218835
-0.435041
-0.464118
-0.980257
-0.9639
-0.0431908
-0.00581773
-0.0011778
-66.3352
47.6975
3.30683
2.05094
1.86463
1.34026
1.25094
0.980944
0.928467
0.732664
0.68737
0.474741
0.454495
0.486355
0.486895
0.464049
0.457312
0.4191
0.410367
0.37
0.36128
0.323385
0.315397
0.281649
0.274729
0.246341
0.241178
0.222521
0.223433
0.24559
0.386039
0.218115
0.151933
0.141195
0.116618
0.112033
0.0963631
0.093257
0.0812351
0.0787862
0.0689025
0.0668613
0.0584711
0.0567149
0.0493829
0.0478084
0.0410533
0.039516
0.0325303
0.0307602
0.0217073
0.0208896
0.0226242
0.0226942
0.0217723
0.0214817
0.0197669
0.0193682
0.017495
0.0170817
0.0152478
0.0148371
0.0129992
0.012536
0.0102654
0.00949536
0.00505628
0.00288478
-0.0110926
-0.0205941
-0.0857694
-0.233102
-0.212517
-0.382089
-0.442352
-0.833166
-0.798968
-0.094239
-0.0161439
-0.0033866
-66.7217
50.3986
2.76484
1.85701
1.632
1.20917
1.09706
0.878403
0.812488
0.654576
0.598139
0.431335
0.40598
0.427549
0.427928
0.410047
0.401676
0.371289
0.360396
0.32816
0.317269
0.286967
0.276986
0.249997
0.241356
0.218718
0.212317
0.197934
0.199481
0.222315
0.321432
0.197229
0.138334
0.12444
0.104178
0.0983876
0.0857528
0.08186
0.0722145
0.0691505
0.0612306
0.0586777
0.0519564
0.0497601
0.043885
0.0419154
0.0364973
0.0345732
0.028963
0.0267628
0.0196854
0.0186626
0.0198748
0.0199492
0.0192308
0.0188701
0.017507
0.0170097
0.0155136
0.0149971
0.0135287
0.0130147
0.0115369
0.0109549
0.00910921
0.00813325
0.00445305
0.00166541
-0.0102468
-0.022616
-0.0806031
-0.196657
-0.198592
-0.333509
-0.407364
-0.703075
-0.660858
-0.120222
-0.0238565
-0.00519659
-67.1081
53.076
2.28287
1.63576
1.40729
1.06564
0.947445
0.769752
0.700189
0.572428
0.513323
0.382272
0.355588
0.36959
0.369692
0.355665
0.346919
0.322698
0.311278
0.285467
0.274034
0.249736
0.239256
0.217612
0.208544
0.190445
0.183776
0.17271
0.174678
0.195989
0.265758
0.173731
0.122936
0.10794
0.0911587
0.085016
0.074793
0.0706932
0.0629307
0.0597091
0.0533441
0.050661
0.0452609
0.0429525
0.038231
0.0361604
0.0318017
0.0297779
0.0252594
0.0229606
0.0174213
0.0163462
0.0171711
0.017236
0.0166752
0.0162985
0.0152126
0.0146912
0.0134931
0.0129507
0.0117715
0.0112309
0.0100389
0.00942435
0.00791829
0.00687937
0.00381416
0.000811085
-0.00938266
-0.0228131
-0.073114
-0.164777
-0.179347
-0.287372
-0.363501
-0.586502
-0.542683
-0.128434
-0.0284608
-0.00643088
-67.4943
55.7288
1.85141
1.39777
1.1871
0.913183
0.800207
0.656776
0.590218
0.487535
0.431384
0.329034
0.303569
0.312188
0.31202
0.301072
0.292782
0.273596
0.262736
0.242198
0.231314
0.211953
0.201972
0.184724
0.176093
0.161714
0.155411
0.146964
0.149102
0.167726
0.216555
0.148583
0.106106
0.0915107
0.0777143
0.0718078
0.0635883
0.0596731
0.0534655
0.0503936
0.0453105
0.042753
0.0384418
0.0362416
0.0324711
0.030497
0.0270128
0.0250824
0.021467
0.0192881
0.0149787
0.0139538
0.0144977
0.0145479
0.0141122
0.0137555
0.0128957
0.0123999
0.0114463
0.0109298
0.00998885
0.00947317
0.00851778
0.00792954
0.00670873
0.00570658
0.00317284
0.000244436
-0.00838897
-0.0215353
-0.0639702
-0.13598
-0.156365
-0.24251
-0.313763
-0.480601
-0.439327
-0.124075
-0.0299475
-0.00699471
-67.8804
58.3584
1.4613
1.15007
0.969437
0.754284
0.654188
0.540725
0.481691
0.40078
0.351293
0.27272
0.250187
0.255138
0.25478
0.246372
0.239081
0.22416
0.214581
0.198544
0.188933
0.173794
0.164978
0.151491
0.143872
0.132661
0.127131
0.120796
0.122866
0.138254
0.172026
0.122416
0.088161
0.07505
0.0639544
0.0586922
0.0522116
0.0487448
0.0438749
0.0411586
0.037176
0.0349153
0.0315384
0.0295936
0.0266395
0.024894
0.0221618
0.0204545
0.0176173
0.0157009
0.0124048
0.0114988
0.0118442
0.0118793
0.0115462
0.0112326
0.0105642
0.0101269
0.00938214
0.00892592
0.0081892
0.0077331
0.00698203
0.00646008
0.00549047
0.0045951
0.00254735
-9.39673e-05
-0.00721471
-0.0190859
-0.0536433
-0.109249
-0.130751
-0.198244
-0.260202
-0.383024
-0.346929
-0.11087
-0.0285871
-0.00686907
-68.2662
60.9677
1.10395
0.897133
0.753158
0.590782
0.508703
0.422496
0.37404
0.312768
0.272366
0.214165
0.195705
0.198299
0.197862
0.191628
0.185686
0.174511
0.166685
0.154632
0.146773
0.135383
0.128172
0.118024
0.111795
0.103381
0.0988843
0.0942909
0.0960972
0.108047
0.130831
0.0956352
0.0693703
0.0585088
0.0499613
0.0456254
0.0407145
0.0378727
0.0341982
0.0319744
0.0289726
0.0271223
0.0245777
0.022986
0.0207595
0.0193307
0.0172698
0.0158718
0.0137308
0.0121689
0.00973532
0.00899369
0.00920317
0.00922547
0.00897938
0.00872389
0.00822353
0.00786631
0.00730646
0.00693329
0.00637836
0.00600486
0.00543715
0.00500856
0.00426927
0.00352975
0.00194563
-0.000253157
-0.00585039
-0.015729
-0.0424744
-0.0838807
-0.103298
-0.154199
-0.204206
-0.291803
-0.262529
-0.0915152
-0.0248041
-0.00609873
-68.6517
63.5605
0.771351
0.641687
0.537616
0.424068
0.363384
0.302758
0.266902
0.223922
0.19415
0.15402
0.140381
0.141582
0.141176
0.136872
0.132499
0.124728
0.118958
0.110553
0.104754
0.0968046
0.0914835
0.0844
0.0798048
0.073944
0.0706412
0.0675302
0.0689229
0.0774064
0.0919561
0.068497
0.0499635
0.0418751
0.0357998
0.0325817
0.0291346
0.027034
0.0244636
0.0228213
0.0207233
0.0193572
0.017579
0.0164038
0.0148477
0.0137926
0.0123514
0.0113188
0.00982112
0.00867181
0.0069982
0.0064506
0.00656963
0.00658239
0.00641299
0.00622504
0.00587718
0.00561382
0.00522335
0.00494797
0.00456029
0.00428442
0.00388674
0.00356949
0.00304811
0.0024982
0.00136853
-0.000276379
-0.00431477
-0.0116974
-0.0307189
-0.0593923
-0.0745854
-0.11019
-0.146707
-0.205258
-0.183799
-0.0679878
-0.0191009
-0.00477867
-69.0371
66.1412
0.456021
0.385217
0.322452
0.25524
0.218062
0.182028
0.160048
0.134547
0.116349
0.0928162
0.0844638
0.0849297
0.084646
0.0821195
0.0794486
0.0748646
0.0713367
0.0663694
0.0628221
0.0581211
0.0548654
0.0506766
0.0478657
0.0444048
0.0423905
0.0405895
0.0414652
0.0465235
0.0546015
0.0411619
0.030139
0.025161
0.0215241
0.0195472
0.0175009
0.0162142
0.0146919
0.0136865
0.0124447
0.0116086
0.0105562
0.00983692
0.00891592
0.00827006
0.00741671
0.00678452
0.00589757
0.00519571
0.00421605
0.00388087
0.00394036
0.00394661
0.00384737
0.00373261
0.00352747
0.00336643
0.00313565
0.00296716
0.00273777
0.00256887
0.00233313
0.0021386
0.0018281
0.00148987
0.000812058
-0.000203841
-0.00264536
-0.00720016
-0.0185774
-0.0354431
-0.0450563
-0.0661437
-0.0883259
-0.121912
-0.108843
-0.0417834
-0.0120151
-0.00304101
-69.4223
68.7146
0.150884
0.128426
0.107467
0.0852097
0.0726949
0.0607369
0.0533353
0.0448802
0.0387611
0.0310047
0.0281936
0.028307
0.0282056
0.0273723
0.0264746
0.0249592
0.0237728
0.0221291
0.0209358
0.0193798
0.0182846
0.0168981
0.0159526
0.0148078
0.0141313
0.0135417
0.0138401
0.0155199
0.0181076
0.0137302
0.0100727
0.00839323
0.00718195
0.00651558
0.00583691
0.00540377
0.00489949
0.00456119
0.00414997
0.00386863
0.00352016
0.00327813
0.00297314
0.00275581
0.00247316
0.00226042
0.00196663
0.00173075
0.00140815
0.00129536
0.00131324
0.00131508
0.00128238
0.00124381
0.001176
0.00112185
0.00104548
0.000988794
0.000912844
0.000856004
0.000777875
0.000712363
0.000609221
0.000495129
0.000269119
-7.42657e-05
-0.00089141
-0.00243002
-0.00621621
-0.0117839
-0.0150681
-0.0220539
-0.0294888
-0.040433
-0.0360467
-0.0140874
-0.0040975
-0.00104311
-69.8075
68.7223
0.136738
0.103792
0.0777582
0.0524414
0.0390529
0.0275024
0.021089
0.0150022
0.0125848
0.011923
0.011573
0.0110198
0.0105817
0.00996778
0.0095218
0.0089394
0.00852135
0.00797806
0.00758703
0.00707737
0.00671191
0.00623869
0.00590749
0.00549435
0.00524149
0.00500506
0.00508342
0.00563152
0.00650018
0.00486499
0.00348696
0.00284773
0.0023781
0.0021187
0.00185457
0.00168746
0.00149534
0.00136829
0.00121646
0.00111427
0.000990043
0.000905297
0.000800665
0.000727785
0.000635445
0.000568386
0.000479277
0.000411131
0.000320672
0.00028193
0.000267211
0.000250948
0.000216898
0.000183973
0.000129547
8.08949e-05
3.60832e-06
-6.66004e-05
-0.000180336
-0.000288128
-0.00046915
-0.000651138
-0.000972163
-0.00132626
-0.00200142
-0.00287894
-0.00478186
-0.00793414
-0.0152992
-0.0252223
-0.0278921
-0.0350321
-0.0427995
-0.0539173
-0.0469795
-0.0182905
-0.00531391
-0.00135232
-69.1028
66.1649
0.413667
0.3111
0.233246
0.156847
0.117085
0.0823017
0.0632539
0.0448599
0.0376843
0.0357565
0.0347271
0.0330549
0.0317521
0.0298966
0.0285708
0.0268116
0.0255691
0.0239281
0.0227658
0.0212263
0.02014
0.0187104
0.0177258
0.0164766
0.0157238
0.0150026
0.0152315
0.0168817
0.0196007
0.0145847
0.0104313
0.00853639
0.00712589
0.00635628
0.00555983
0.00506338
0.00448341
0.00410585
0.0036474
0.0033437
0.00296855
0.00271668
0.00240072
0.00218413
0.00190532
0.00170604
0.00143699
0.00123428
0.000959947
0.000844829
0.000801694
0.000753553
0.000650649
0.00055278
0.000388408
0.000243829
1.05413e-05
-0.000198061
-0.000541246
-0.000861455
-0.00140741
-0.00194785
-0.00291517
-0.00396594
-0.00599617
-0.00859582
-0.0142956
-0.0236339
-0.0457953
-0.0759569
-0.0834974
-0.105071
-0.128264
-0.162474
-0.141809
-0.054243
-0.0155811
-0.00394235
-67.3085
63.601
0.701068
0.51742
0.388675
0.259787
0.194918
0.136472
0.105393
0.0742688
0.0625739
0.0595541
0.057907
0.0550751
0.0529446
0.0498043
0.0476372
0.0446632
0.0426327
0.0398589
0.0379597
0.0353572
0.0335819
0.0311643
0.0295546
0.027439
0.0262049
0.0249621
0.0253227
0.0280892
0.0330106
0.0242699
0.0172853
0.0142057
0.011848
0.0105949
0.00925308
0.00844264
0.00746339
0.00684664
0.00607214
0.00557597
0.00494212
0.00453063
0.0039968
0.00364297
0.00317201
0.00284648
0.00239205
0.0020603
0.00159285
0.00140485
0.00133638
0.00125835
0.0010842
0.000924244
0.000646476
0.000410311
1.64853e-05
-0.000324139
-0.000903076
-0.00142575
-0.0023459
-0.00322749
-0.00485483
-0.00656644
-0.00996814
-0.0141887
-0.0236638
-0.0388208
-0.0759714
-0.127596
-0.138541
-0.175046
-0.213289
-0.273226
-0.239314
-0.0882394
-0.0247674
-0.00619479
-65.514
61.0267
1.00627
0.721543
0.54411
0.360167
0.272494
0.189547
0.147533
0.1029
0.0871164
0.0832967
0.0811342
0.0770673
0.0741775
0.069673
0.0667359
0.062477
0.0597261
0.0557548
0.0531818
0.0494549
0.0470494
0.0435859
0.0414037
0.0383662
0.0366863
0.0348575
0.0353176
0.0392104
0.0469669
0.0338848
0.0239832
0.0198461
0.016526
0.0148371
0.0129251
0.0118286
0.0104289
0.00959373
0.00848574
0.00781375
0.00690678
0.00634946
0.00558568
0.00510648
0.00443288
0.00399207
0.00334219
0.00289174
0.00221457
0.00196008
0.00187144
0.00176698
0.00151717
0.00130042
0.000902876
0.000583095
2.02985e-05
-0.000440687
-0.00126716
-0.00197416
-0.00328592
-0.00447731
-0.00679113
-0.00909933
-0.0139074
-0.0195714
-0.0328048
-0.0531279
-0.105569
-0.180863
-0.192563
-0.24495
-0.297446
-0.387732
-0.341505
-0.118732
-0.0321578
-0.00790558
-63.7192
58.4381
1.33713
0.921374
0.699806
0.456695
0.349882
0.240984
0.189779
0.130378
0.11118
0.106973
0.104438
0.0990124
0.095475
0.0894791
0.0858874
0.0802305
0.0768683
0.0715948
0.0684499
0.0634998
0.0605593
0.0559562
0.0532869
0.049239
0.0471736
0.0446613
0.0451752
0.0501771
0.0617568
0.0433725
0.0304504
0.0254538
0.0211387
0.0190882
0.0165644
0.0152268
0.0133717
0.0123517
0.0108819
0.0100609
0.00885745
0.00817655
0.00716316
0.00657775
0.00568443
0.00514602
0.00428435
0.00373224
0.00281938
0.00250867
0.00240712
0.00228143
0.00194882
0.00168382
0.00115616
0.000765596
2.00354e-05
-0.000542619
-0.00163602
-0.00249837
-0.00423077
-0.00568222
-0.00872765
-0.0115322
-0.0178123
-0.0246513
-0.0416621
-0.0661503
-0.134252
-0.236674
-0.244957
-0.314851
-0.380091
-0.507699
-0.450759
-0.143776
-0.0370552
-0.00890351
-61.9243
55.832
1.70223
1.11344
0.856363
0.547772
0.427352
0.290114
0.232352
0.156248
0.134645
0.130583
0.127857
0.120882
0.116871
0.109189
0.105122
0.0978922
0.0940869
0.0873496
0.0837903
0.0774642
0.0741356
0.0682491
0.0652253
0.0600326
0.0576788
0.054344
0.0548533
0.0608806
0.0777452
0.0526416
0.0366005
0.0310342
0.0256608
0.0233583
0.0201563
0.0186456
0.0162812
0.0151277
0.0132521
0.0123234
0.0107872
0.0100169
0.0087235
0.00806133
0.00692177
0.00631288
0.00521412
0.00458717
0.0034001
0.00304889
0.00294377
0.00280414
0.00237776
0.00207772
0.00140396
0.000962291
1.24509e-05
-0.000623326
-0.00201413
-0.00298778
-0.00518686
-0.00682338
-0.0106738
-0.0138261
-0.021695
-0.0293243
-0.0502204
-0.0774282
-0.161562
-0.29625
-0.294887
-0.384938
-0.460241
-0.635048
-0.570014
-0.16081
-0.0388099
-0.00906563
-60.129
53.2057
2.11102
1.29223
1.01498
0.631321
0.505495
0.336066
0.275658
0.179938
0.157407
0.154139
0.151445
0.142633
0.138413
0.128754
0.124482
0.115417
0.111423
0.102977
0.0992414
0.0913088
0.0878142
0.0804276