/*--------------------------------*- C++ -*----------------------------------*\
| =========                 |                                                 |
| \\      /  F ield         | OpenFOAM: The Open Source CFD Toolbox           |
|  \\    /   O peration     | Version:  5.x                                   |
|   \\  /    A nd           | Web:      www.OpenFOAM.org                      |
|    \\/     M anipulation  |                                                 |
\*---------------------------------------------------------------------------*/
FoamFile
{
    version     2.0;
    format      ascii;
    class       volScalarField;
    location    "6";
    object      gradTx;
}
// * * * * * * * * * * * * * * * * * * * * * * * * * * * * * * * * * * * * * //

dimensions      [0 -1 0 1 0 0 0];

internalField   nonuniform List<scalar> 
3200
(
45.21
3.71197
1.64877
1.54022
0.814976
0.771387
0.466737
0.44728
0.293828
0.282722
0.170833
0.16669
0.180695
0.180844
0.173155
0.172314
0.159536
0.158419
0.144299
0.143117
0.128834
0.127665
0.113864
0.112769
0.100231
0.0993439
0.0901714
0.0901656
0.0951036
0.164805
0.0825272
0.0552797
0.053451
0.0417008
0.0408735
0.0332744
0.0327154
0.0269972
0.0265675
0.0220078
0.0216611
0.0179207
0.017633
0.0144837
0.0142364
0.0114668
0.0112396
0.00857509
0.00833616
0.00521028
0.00507941
0.00507979
0.00503223
0.00396729
0.00385422
0.00220332
0.00203783
-0.000269316
-0.000506781
-0.00386517
-0.0042276
-0.00949458
-0.0100998
-0.0191727
-0.0203206
-0.0381781
-0.0408505
-0.0840396
-0.092962
-0.23878
-0.61742
-0.436309
-0.681764
-0.713132
-1.26844
-1.24282
-0.0558055
-0.00753076
-0.00152575
-52.9466
47.8946
3.1053
1.57733
1.35454
0.774085
0.681026
0.436329
0.394726
0.271789
0.248195
0.160331
0.151486
0.160985
0.161194
0.155217
0.153443
0.143364
0.141001
0.129826
0.12732
0.116009
0.113531
0.102604
0.100286
0.090382
0.0885189
0.0814492
0.0816008
0.0883924
0.137411
0.0766256
0.0516375
0.0475653
0.0380314
0.0362572
0.0301991
0.0290103
0.0244687
0.0235564
0.0199385
0.0192028
0.0162357
0.0156252
0.0131267
0.0126019
0.0104036
0.00992115
0.00780476
0.00730045
0.00486087
0.0045828
0.00453836
0.00443445
0.00359383
0.00335419
0.00204499
0.0016936
-0.000139702
-0.000644473
-0.00331682
-0.00408807
-0.00828672
-0.00957707
-0.016835
-0.0192935
-0.033694
-0.0394829
-0.0750624
-0.0949833
-0.227127
-0.51782
-0.414935
-0.60218
-0.666763
-1.08523
-1.03157
-0.121867
-0.0209015
-0.0043873
-54.7427
50.5624
2.5765
1.45369
1.18317
0.713698
0.596731
0.397797
0.345424
0.245775
0.216238
0.146668
0.135547
0.141648
0.14179
0.13711
0.134905
0.126883
0.123934
0.115006
0.111875
0.102831
0.0997344
0.091
0.0881055
0.0802116
0.0779022
0.0724381
0.0727704
0.0799922
0.114409
0.069292
0.0471586
0.0418979
0.0340515
0.0318123
0.026929
0.0254392
0.0217951
0.0206536
0.017754
0.0168338
0.0144564
0.0136928
0.0116908
0.0110343
0.00927174
0.00866808
0.00696994
0.00634214
0.00442498
0.00407684
0.0039993
0.00386613
0.00319632
0.00289693
0.00184834
0.00140865
-6.32399e-05
-0.000695472
-0.00284452
-0.00381145
-0.00719521
-0.00881569
-0.0146894
-0.0177887
-0.0295544
-0.0369238
-0.0667117
-0.0925156
-0.209132
-0.433965
-0.381956
-0.527503
-0.606239
-0.9209
-0.854571
-0.155579
-0.0308942
-0.00673258
-56.5386
53.2096
2.11327
1.29596
1.01975
0.639211
0.515715
0.353402
0.298014
0.216958
0.185884
0.130666
0.11892
0.122548
0.12258
0.118904
0.1166
0.1102
0.107107
0.0999537
0.0966673
0.0894155
0.0861638
0.0791623
0.0761255
0.0698179
0.0674116
0.0631952
0.0636644
0.0705042
0.0945884
0.061039
0.0420049
0.036334
0.0298474
0.027473
0.0235232
0.0219543
0.0190213
0.017821
0.0154902
0.014523
0.0126126
0.01181
0.010201
0.00951089
0.00809354
0.00745878
0.00609229
0.0054354
0.00392633
0.00356004
0.00346245
0.00331927
0.00278398
0.00246964
0.00162733
0.00116497
-2.03739e-05
-0.000685808
-0.00241951
-0.00343817
-0.00617423
-0.00788419
-0.0126547
-0.0159373
-0.0255906
-0.0334679
-0.0585203
-0.0864155
-0.186809
-0.361182
-0.341076
-0.455499
-0.536278
-0.77181
-0.702874
-0.166318
-0.036866
-0.00833238
-58.3343
55.8354
1.70415
1.11658
0.860509
0.554442
0.436251
0.304731
0.25163
0.186141
0.156494
0.112926
0.101677
0.103593
0.103517
0.100643
0.0984584
0.093384
0.0904418
0.0847471
0.0816179
0.0758396
0.0727431
0.067166
0.0642762
0.059268
0.0569934
0.0537648
0.0543035
0.0603263
0.0770731
0.0522054
0.0363165
0.0308026
0.0254787
0.0231968
0.0200222
0.0185239
0.0161782
0.0150336
0.0131719
0.0122499
0.0107245
0.00995941
0.00867451
0.00801657
0.00688402
0.00627874
0.00518624
0.00456274
0.00338196
0.00303249
0.00292742
0.00278808
0.0023628
0.00206345
0.00139111
0.000950198
1.68675e-06
-0.000633422
-0.00202312
-0.0029962
-0.00519431
-0.00683028
-0.0106796
-0.0138311
-0.0216978
-0.029325
-0.0502152
-0.0774155
-0.161526
-0.296179
-0.294814
-0.38484
-0.460127
-0.634899
-0.569882
-0.160773
-0.0388011
-0.0090637
-60.1297
58.441
1.33872
0.923941
0.703268
0.462157
0.35732
0.252923
0.205742
0.15389
0.127662
0.0938934
0.0839084
0.0847172
0.0845669
0.0823552
0.0804325
0.0764828
0.0738869
0.0694377
0.0666744
0.0621564
0.0594217
0.0550623
0.0525116
0.0486088
0.0466134
0.0441838
0.0447232
0.0497195
0.0612224
0.0430126
0.0302132
0.0252637
0.0209884
0.0189563
0.016454
0.0151274
0.0132871
0.0122749
0.010816
0.0100009
0.00880588
0.00812961
0.00712289
0.00654122
0.0056534
0.00511818
0.00426143
0.00371236
0.00280434
0.00249516
0.00239375
0.00226832
0.00193657
0.00167217
0.00114563
0.000755725
1.12036e-05
-0.000550861
-0.00164339
-0.00250524
-0.00423688
-0.00568784
-0.00873239
-0.0115362
-0.0178146
-0.0246517
-0.0416577
-0.0661391
-0.134222
-0.236617
-0.244896
-0.314771
-0.379997
-0.50758
-0.450655
-0.143743
-0.0370468
-0.00890164
-61.9248
61.029
1.00751
0.723539
0.546843
0.364422
0.278371
0.198826
0.160041
0.120615
0.0991316
0.0739093
0.0657077
0.0658798
0.065699
0.0640554
0.0624876
0.0595276
0.0574062
0.054061
0.0518011
0.0484019
0.0461652
0.0428861
0.0408012
0.0378734
0.0362507
0.0344839
0.0349646
0.0388524
0.0465602
0.0336034
0.0237958
0.0196977
0.0164083
0.0147345
0.0128388
0.0117515
0.0103628
0.00953407
0.00843431
0.00776716
0.00686654
0.00631301
0.00555425
0.00507811
0.00440867
0.00397047
0.0033243
0.00287633
0.00220275
0.00194951
0.00186104
0.00175681
0.00150763
0.00129138
0.000894668
0.000575431
1.34158e-05
-0.000447087
-0.0012729
-0.00197949
-0.00329068
-0.00448166
-0.00679481
-0.00910239
-0.0139091
-0.0195716
-0.0328012
-0.0531187
-0.105545
-0.18082
-0.192515
-0.244889
-0.297372
-0.387641
-0.341426
-0.118704
-0.0321504
-0.00790394
-63.7197
63.6027
0.701953
0.518846
0.390648
0.262833
0.199163
0.143099
0.114365
0.0866213
0.0707506
0.0532443
0.0471721
0.0470565
0.0468896
0.0457527
0.0445984
0.0425387
0.0409744
0.0386408
0.0369734
0.0346009
0.0329504
0.0306622
0.0291244
0.0270856
0.0258938
0.0246942
0.0250698
0.0278325
0.0327245
0.0240682
0.01715
0.0140994
0.0117635
0.0105217
0.00919129
0.00838756
0.00741607
0.00680406
0.00603531
0.00554273
0.00491331
0.00450462
0.00397431
0.00362273
0.00315468
0.00283108
0.00237924
0.00204931
0.00158434
0.00139727
0.00132895
0.00125109
0.00107738
0.000917796
0.000640606
0.000404842
1.15626e-05
-0.000328705
-0.000907181
-0.00142956
-0.0023493
-0.00323059
-0.00485746
-0.0065686
-0.00996938
-0.0141888
-0.0236612
-0.038814
-0.0759546
-0.127566
-0.138507
-0.175001
-0.213236
-0.273162
-0.239258
-0.0882192
-0.0247618
-0.00619352
-65.5143
66.1658
0.4142
0.311956
0.234438
0.158677
0.11965
0.0862782
0.06865
0.0521531
0.042435
0.0321219
0.0283982
0.0282352
0.0281191
0.0274506
0.0267455
0.0255301
0.0245734
0.023194
0.0221739
0.020771
0.0197612
0.0184083
0.0174677
0.0162641
0.0155371
0.0148414
0.0150794
0.0167274
0.0194307
0.0144634
0.0103496
0.0084725
0.00707502
0.00631231
0.00552268
0.00503034
0.00445498
0.00408031
0.00362527
0.00332376
0.00295124
0.00270109
0.00238721
0.002172
0.00189491
0.00169681
0.00142929
0.0012277
0.000954819
0.000840268
0.000797238
0.000749204
0.000646559
0.000548914
0.000384884
0.000240551
7.58529e-06
-0.000200798
-0.000543711
-0.000863735
-0.00140945
-0.00194971
-0.00291674
-0.00396723
-0.00599691
-0.00859583
-0.014294
-0.0236298
-0.0457851
-0.0759388
-0.0834767
-0.105045
-0.128233
-0.162436
-0.141776
-0.0542306
-0.0155776
-0.00394156
-67.3086
68.7227
0.136915
0.104078
0.0781567
0.0530518
0.0399107
0.028828
0.0228895
0.0174138
0.0141432
0.010736
0.00948185
0.00941212
0.00937064
0.00914998
0.00891297
0.0085111
0.00818935
0.00773285
0.00738968
0.00692531
0.00658561
0.00613784
0.00582147
0.00542341
0.00517926
0.00495126
0.00503269
0.00558
0.00644381
0.00482454
0.00345961
0.00282641
0.00236112
0.00210404
0.00184218
0.00167645
0.00148585
0.00135978
0.00120908
0.00110763
0.000984269
0.000900099
0.000796157
0.000723742
0.00063197
0.00056531
0.000476709
0.000408938
0.000318959
0.000280408
0.000265726
0.000249498
0.000215535
0.000182686
0.000128372
7.98024e-05
2.62263e-06
-6.75126e-05
-0.000181158
-0.000288887
-0.000469831
-0.000651756
-0.000972689
-0.00132669
-0.00200167
-0.00287894
-0.00478133
-0.00793274
-0.0152958
-0.0252162
-0.0278851
-0.0350233
-0.042789
-0.0539047
-0.0469686
-0.0182863
-0.0053127
-0.00135205
-69.1029
68.715
0.150879
0.128425
0.107468
0.0852121
0.0726972
0.0607382
0.0533358
0.0448793
0.0387595
0.0310022
0.0281905
0.028303
0.0282008
0.0273666
0.0264683
0.0249522
0.0237653
0.0221211
0.0209275
0.0193711
0.0182756
0.0168889
0.0159432
0.0147983
0.0141216
0.0135314
0.0138288
0.0155059
0.0180901
0.0137161
0.0100613
0.00838299
0.00717244
0.00650646
0.00582817
0.00539528
0.0048913
0.00455321
0.00414229
0.00386115
0.00351298
0.00327118
0.0029665
0.00274943
0.00246715
0.00225474
0.00196147
0.00172606
0.00140418
0.00129158
0.00130925
0.00131097
0.00127823
0.00123968
0.00117194
0.00111786
0.00104161
0.000985023
0.000909205
0.000852458
0.000774444
0.000708998
0.000605911
0.000491804
0.000265673
-7.79927e-05
-0.000895876
-0.00243588
-0.0062254
-0.0117974
-0.0150812
-0.0220676
-0.0295032
-0.040448
-0.0360591
-0.0140922
-0.00409889
-0.00104349
-69.8074
66.1426
0.456006
0.385214
0.322456
0.255247
0.218069
0.182032
0.160049
0.134544
0.116344
0.0928089
0.0844546
0.0849175
0.0846316
0.0821023
0.0794296
0.0748434
0.0713142
0.0663452
0.0627969
0.0580949
0.0548385
0.050649
0.0478377
0.0443763
0.0423613
0.0405588
0.0414313
0.0464815
0.0545487
0.0411195
0.0301048
0.0251303
0.0214956
0.0195199
0.0174747
0.0161887
0.0146673
0.0136626
0.0124217
0.0115861
0.0105347
0.00981605
0.008896
0.00825089
0.00739868
0.00676747
0.00588209
0.00518166
0.00420417
0.00386955
0.0039284
0.00393431
0.00383491
0.0037202
0.00351528
0.00335446
0.00312406
0.00295584
0.00272685
0.00255823
0.00232283
0.0021285
0.00181818
0.0014799
0.000801724
-0.000215006
-0.00265874
-0.00721764
-0.0186049
-0.0354839
-0.0450956
-0.066185
-0.0883693
-0.121957
-0.10888
-0.0417976
-0.0120192
-0.0030421
-69.4222
63.5628
0.771325
0.641683
0.537622
0.42408
0.363396
0.302764
0.266904
0.223917
0.194142
0.154008
0.140366
0.141562
0.141152
0.136844
0.132467
0.124692
0.118921
0.110513
0.104713
0.0967609
0.0914387
0.084354
0.0797581
0.0738964
0.0705926
0.0674791
0.0688667
0.0773364
0.0918671
0.0684264
0.0499067
0.041824
0.0357523
0.0325361
0.0290909
0.0269915
0.0244226
0.0227814
0.0206849
0.0193198
0.0175431
0.016369
0.0148145
0.0137607
0.0123214
0.0112904
0.00979533
0.00864835
0.00697846
0.00643178
0.00654968
0.00656187
0.00639223
0.00620434
0.00585687
0.00559387
0.00520402
0.00492911
0.0045421
0.00426668
0.00386959
0.00355266
0.00303157
0.0024816
0.00135133
-0.000294927
-0.00433698
-0.0117263
-0.0307647
-0.0594609
-0.0746508
-0.110258
-0.146779
-0.205333
-0.183862
-0.0680108
-0.0191074
-0.00478036
-69.0369
60.9709
1.10391
0.897128
0.753168
0.590799
0.50872
0.422506
0.374044
0.312762
0.272354
0.214148
0.195684
0.198271
0.197829
0.191588
0.185641
0.174461
0.166633
0.154576
0.146714
0.135322
0.128109
0.11796
0.111729
0.103314
0.0988163
0.0942195
0.0960188
0.107949
0.130705
0.0955365
0.0692912
0.0584374
0.049895
0.0455616
0.0406533
0.0378132
0.0341409
0.0319185
0.0289189
0.02707
0.0245275
0.0229372
0.0207131
0.0192859
0.0172278
0.0158319
0.0136947
0.012136
0.00970784
0.00896746
0.00917521
0.00919672
0.0089503
0.00869489
0.0081951
0.00783837
0.00727942
0.00690687
0.00635291
0.00598002
0.00541316
0.004985
0.00424614
0.00350652
0.00192159
-0.000278995
-0.00588131
-0.0157689
-0.0425381
-0.0839782
-0.103389
-0.154295
-0.204308
-0.29191
-0.262618
-0.0915461
-0.0248125
-0.00610087
-68.6514
58.3625
1.46125
1.15006
0.96945
0.754306
0.65421
0.540737
0.481696
0.400772
0.351278
0.272698
0.25016
0.255101
0.254737
0.246321
0.239025
0.224096
0.214514
0.198471
0.188857
0.173715
0.164898
0.151408
0.143788
0.132575
0.127044
0.120704
0.122766
0.138129
0.171859
0.12229
0.0880602
0.0749583
0.0638693
0.0586101
0.0521331
0.0486682
0.0438012
0.0410867
0.0371069
0.0348479
0.0314738
0.0295308
0.0265798
0.0248364
0.0221077
0.0204031
0.0175709
0.0156584
0.0123697
0.0114652
0.0118082
0.0118423
0.0115088
0.0111952
0.0105276
0.010091
0.00934738
0.00889193
0.0081565
0.00770114
0.00695121
0.0064298
0.00546077
0.00456529
0.00251651
-0.000126965
-0.0072542
-0.0191362
-0.0537246
-0.109377
-0.130868
-0.198368
-0.260332
-0.383163
-0.347046
-0.110908
-0.0285968
-0.00687146
-68.2658
55.7338
1.85134
1.39777
1.18711
0.913212
0.800235
0.65679
0.590224
0.487524
0.431366
0.329007
0.303536
0.312143
0.311968
0.301008
0.292713
0.273517
0.262654
0.242109
0.231222
0.211856
0.201873
0.184622
0.17599
0.16161
0.155304
0.146853
0.148981
0.167574
0.216346
0.14843
0.105984
0.0913989
0.0776105
0.0717074
0.0634924
0.0595795
0.0533755
0.0503056
0.0452261
0.0426706
0.038363
0.0361648
0.0323983
0.0304264
0.0269468
0.0250195
0.0214104
0.019236
0.0149363
0.0139132
0.0144536
0.0145027
0.0140665
0.0137098
0.012851
0.0123559
0.0114039
0.0108882
0.00994893
0.00943409
0.00848016
0.00789253
0.00667249
0.00567023
0.00313525
0.000204453
-0.00843685
-0.0215952
-0.0640685
-0.136141
-0.156506
-0.242662
-0.313922
-0.480773
-0.439474
-0.124116
-0.0299576
-0.00699712
-67.8799
53.0819
2.28278
1.63576
1.40731
1.06568
0.947479
0.769769
0.700197
0.572415
0.513302
0.38224
0.35555
0.369536
0.36963
0.355589
0.346838
0.322605
0.311181
0.285361
0.273925
0.249622
0.239139
0.217492
0.208423
0.190321
0.18365
0.172578
0.174538
0.195812
0.2655
0.173551
0.122794
0.107808
0.0910365
0.0848973
0.0746798
0.0705824
0.0628246
0.059605
0.0532445
0.0505634
0.0451679
0.0428617
0.038145
0.0360768
0.0317239
0.0297032
0.0251926
0.0228986
0.0173719
0.0162986
0.0171187
0.0171825
0.016621
0.0162445
0.0151598
0.0146392
0.0134429
0.0129015
0.0117244
0.0111846
0.00999449
0.00938061
0.00787554
0.00683651
0.00376986
0.000764338
-0.00943876
-0.0228815
-0.0732283
-0.164974
-0.179512
-0.287551
-0.363689
-0.586709
-0.542864
-0.128477
-0.0284704
-0.00643307
-67.4938
50.4054
2.76473
1.85701
1.63203
1.20921
1.0971
0.878422
0.812498
0.654559
0.598115
0.431298
0.405937
0.427485
0.427858
0.409959
0.401582
0.371181
0.360283
0.328038
0.317143
0.286835
0.276852
0.249859
0.241217
0.218575
0.212173
0.197783
0.199322
0.222113
0.32112
0.197025
0.138173
0.124288
0.104037
0.0982504
0.0856225
0.0817319
0.0720922
0.0690302
0.0611159
0.0585649
0.0518493
0.049655
0.043786
0.0418186
0.0364077
0.0344866
0.0288862
0.0266906
0.0196294
0.0186083
0.0198142
0.0198874
0.0191683
0.0188076
0.0174462
0.0169496
0.0154559
0.0149403
0.0134745
0.0129613
0.0114858
0.0109044
0.00906
0.00808396
0.00440208
0.00161218
-0.010311
-0.0226915
-0.0807321
-0.196895
-0.198778
-0.333716
-0.407579
-0.70332
-0.661076
-0.120262
-0.0238645
-0.00519833
-67.1074
47.7051
3.30668
2.05095
1.86466
1.34031
1.25099
0.980964
0.92848
0.732643
0.687344
0.474698
0.454447
0.486281
0.486817
0.463948
0.457207
0.418976
0.41024
0.36986
0.361138
0.323235
0.315245
0.281491
0.274571
0.246179
0.241014
0.222351
0.223256
0.245367
0.385665
0.217889
0.151753
0.141023
0.11646
0.111877
0.0962159
0.0931115
0.0810969
0.0786496
0.0687728
0.0667331
0.05835
0.0565955
0.049271
0.0476984
0.0409521
0.0394172
0.0324438
0.0306773
0.0216454
0.020829
0.022555
0.022624
0.0217012
0.0214108
0.019698
0.0192999
0.0174298
0.0170171
0.0151865
0.0147764
0.0129415
0.0124787
0.0102098
0.00943969
0.00499868
0.00282542
-0.0111649
-0.0206751
-0.0859108
-0.233387
-0.212721
-0.382324
-0.442594
-0.83345
-0.799231
-0.0942704
-0.0161493
-0.0033877
-66.7209
44.9857
3.91806
2.20211
2.11081
1.45402
1.4121
1.07481
1.0502
0.804706
0.783266
0.510402
0.500874
0.54633
0.546712
0.517292
0.514091
0.465592
0.461463
0.410417
0.406301
0.358439
0.354669
0.312051
0.308784
0.272855
0.270397
0.246136
0.246342
0.263893
0.462533
0.234688
0.163118
0.158312
0.128083
0.125948
0.106307
0.104848
0.0897191
0.0885663
0.0761164
0.0751552
0.0645857
0.0637589
0.054526
0.0537852
0.0452881
0.0445655
0.0357931
0.0349547
0.0233328
0.0229482
0.0253622
0.0254005
0.024209
0.024071
0.0218973
0.0217091
0.0193454
0.0191508
0.0168418
0.0166487
0.0143423
0.0141254
0.0112997
0.0109423
0.00550464
0.00451141
-0.012198
-0.0164296
-0.0877997
-0.276604
-0.219054
-0.435305
-0.464386
-0.980582
-0.964214
-0.0432051
-0.00581968
-0.00117816
-66.3343
44.9857
3.91806
2.20211
2.11081
1.45402
1.4121
1.07481
1.0502
0.804706
0.783266
0.510403
0.500874
0.54633
0.546712
0.517292
0.514092
0.465593
0.461464
0.410417
0.406301
0.358439
0.35467
0.312051
0.308784
0.272856
0.270397
0.246136
0.246343
0.263893
0.462534
0.234689
0.163118
0.158312
0.128083
0.125948
0.106307
0.104848
0.0897193
0.0885666
0.0761167
0.0751555
0.0645859
0.0637591
0.0545262
0.0537854
0.0452883
0.0445657
0.0357932
0.0349548
0.0233328
0.0229482
0.0253622
0.0254005
0.0242091
0.0240711
0.0218974
0.0217093
0.0193456
0.0191509
0.0168419
0.0166488
0.0143424
0.0141255
0.0112998
0.0109424
0.00550483
0.00451161
-0.0121975
-0.016429
-0.0877979
-0.276599
-0.21905
-0.435298
-0.464379
-0.980569
-0.964201
-0.0432045
-0.00581959
-0.00117817
-66.3344
47.7051
3.30668
2.05095
1.86466
1.34031
1.25099
0.980965
0.92848
0.732643
0.687344
0.474698
0.454447
0.486282
0.486817
0.463948
0.457207
0.418977
0.410241
0.369861
0.361139
0.323235
0.315246
0.281491
0.274571
0.24618
0.241015
0.222351
0.223256
0.245367
0.385666
0.21789
0.151754
0.141024
0.11646
0.111878
0.0962162
0.0931118
0.0810972
0.0786499
0.068773
0.0667334
0.0583502
0.0565957
0.0492712
0.0476986
0.0409523
0.0394174
0.0324439
0.0306774
0.0216454
0.0208291
0.0225551
0.0226241
0.0217013
0.0214109
0.0196981
0.0193
0.0174299
0.0170172
0.0151866
0.0147766
0.0129416
0.0124788
0.0102099
0.00943982
0.00499886
0.00282563
-0.0111645
-0.0206745
-0.085909
-0.233382
-0.212717
-0.382318
-0.442587
-0.833438
-0.79922
-0.094269
-0.016149
-0.00338767
-66.721
50.4054
2.76472
1.85701
1.63203
1.20921
1.0971
0.878422
0.812498
0.654559
0.598115
0.431298
0.405937
0.427485
0.427858
0.409959
0.401582
0.371181
0.360284
0.328038
0.317144
0.286835
0.276852
0.249859
0.241217
0.218575
0.212173
0.197783
0.199322
0.222114
0.321121
0.197025
0.138173
0.124288
0.104038
0.0982507
0.0856228
0.0817322
0.0720925
0.0690304
0.0611161
0.0585651
0.0518495
0.0496552
0.0437862
0.0418188
0.0364079
0.0344867
0.0288864
0.0266907
0.0196295
0.0186084
0.0198143
0.0198875
0.0191684
0.0188077
0.0174463
0.0169497
0.015456
0.0149404
0.0134746
0.0129614
0.0114859
0.0109045
0.0090601
0.00808407
0.00440224
0.00161238
-0.0103106
-0.0226909
-0.0807304
-0.196891
-0.198774
-0.333711
-0.407573
-0.70331
-0.661067
-0.12026
-0.0238641
-0.00519823
-67.1075
53.0819
2.28278
1.63576
1.40731
1.06568
0.947479
0.769769
0.700197
0.572415
0.513302
0.38224
0.35555
0.369536
0.369631
0.35559
0.346838
0.322605
0.311181
0.285361
0.273925
0.249622
0.239139
0.217492
0.208423
0.190321
0.18365
0.172579
0.174538
0.195812
0.265501
0.173552
0.122794
0.107808
0.0910368
0.0848975
0.07468
0.0705826
0.0628248
0.0596052
0.0532447
0.0505636
0.0451681
0.0428618
0.0381452
0.0360769
0.031724
0.0297033
0.0251927
0.0228987
0.017372
0.0162986
0.0171188
0.0171826
0.0166211
0.0162446
0.0151599
0.0146393
0.013443
0.0129016
0.0117245
0.0111847
0.00999458
0.0093807
0.00787563
0.00683662
0.00377
0.000764522
-0.00943841
-0.0228809
-0.0732269
-0.164971
-0.179509
-0.287546
-0.363683
-0.586701
-0.542857
-0.128475
-0.02847
-0.00643292
-67.4938
55.7338
1.85134
1.39777
1.18711
0.913211
0.800235
0.65679
0.590224
0.487524
0.431366
0.329007
0.303537
0.312143
0.311968
0.301008
0.292713
0.273517
0.262654
0.242109
0.231222
0.211856
0.201873
0.184623
0.17599
0.16161
0.155304
0.146853
0.148981
0.167574
0.216346
0.14843
0.105984
0.0913991
0.0776108
0.0717076
0.0634926
0.0595796
0.0533757
0.0503058
0.0452263
0.0426707
0.0383631
0.036165
0.0323984
0.0304265
0.0269469
0.0250196
0.0214105
0.0192361
0.0149364
0.0139132
0.0144537
0.0145027
0.0140665
0.0137099
0.0128511
0.012356
0.0114039
0.0108883
0.009949
0.00943416
0.00848023
0.00789261
0.00667257
0.00567032
0.00313536
0.000204613
-0.00843655
-0.0215946
-0.0640673
-0.136139
-0.156503
-0.242658
-0.313918
-0.480767
-0.439468
-0.124114
-0.0299571
-0.00699693
-67.8799
58.3625
1.46125
1.15006
0.969449
0.754306
0.65421
0.540737
0.481696
0.400772
0.351278
0.272698
0.25016
0.255101
0.254737
0.246321
0.239025
0.224096
0.214514
0.198471
0.188857
0.173716
0.164898
0.151409
0.143788
0.132576
0.127044
0.120704
0.122766
0.138129
0.171859
0.12229
0.0880604
0.0749585
0.0638695
0.0586102
0.0521332
0.0486684
0.0438013
0.0410868
0.037107
0.034848
0.0314739
0.0295309
0.0265799
0.0248365
0.0221078
0.0204032
0.017571
0.0156585
0.0123698
0.0114653
0.0118083
0.0118424
0.0115088
0.0111953
0.0105277
0.010091
0.00934745
0.00889199
0.00815656
0.0077012
0.00695127
0.00642986
0.00546083
0.00456536
0.0025166
-0.000126832
-0.00725395
-0.0191357
-0.0537236
-0.109374
-0.130865
-0.198365
-0.260329
-0.383158
-0.347041
-0.110906
-0.0285963
-0.00687125
-68.2658
60.9709
1.10391
0.897127
0.753168
0.590799
0.50872
0.422506
0.374044
0.312762
0.272354
0.214148
0.195684
0.198271
0.197829
0.191588
0.185641
0.174461
0.166633
0.154576
0.146714
0.135322
0.12811
0.11796
0.111729
0.103314
0.0988164
0.0942197
0.096019
0.107949
0.130705
0.0955368
0.0692914
0.0584375
0.0498951
0.0455617
0.0406534
0.0378133
0.034141
0.0319186
0.028919
0.0270701
0.0245276
0.0229373
0.0207131
0.019286
0.0172279
0.015832
0.0136947
0.012136
0.00970788
0.00896749
0.00917524
0.00919676
0.00895034
0.00869493
0.00819514
0.00783841
0.00727946
0.00690692
0.00635295
0.00598006
0.00541321
0.00498505
0.00424619
0.00350658
0.00192166
-0.000278891
-0.00588112
-0.0157685
-0.0425373
-0.0839766
-0.103387
-0.154293
-0.204305
-0.291906
-0.262614
-0.0915447
-0.0248121
-0.00610067
-68.6514
63.5628
0.771324
0.641682
0.537622
0.42408
0.363396
0.302764
0.266904
0.223918
0.194142
0.154008
0.140366
0.141562
0.141152
0.136844
0.132468
0.124692
0.118921
0.110513
0.104713
0.0967609
0.0914388
0.0843541
0.0797582
0.0738965
0.0705927
0.0674792
0.0688668
0.0773365
0.0918673
0.0684266
0.0499069
0.0418241
0.0357524
0.0325362
0.029091
0.0269916
0.0244227
0.0227815
0.0206849
0.0193199
0.0175432
0.0163691
0.0148146
0.0137607
0.0123214
0.0112904
0.00979537
0.00864839
0.00697849
0.0064318
0.0065497
0.00656189
0.00639226
0.00620437
0.0058569
0.0055939
0.00520406
0.00492914
0.00454213
0.00426671
0.00386962
0.00355269
0.00303161
0.00248163
0.00135138
-0.000294853
-0.00433685
-0.011726
-0.0307641
-0.0594598
-0.0746495
-0.110257
-0.146777
-0.205331
-0.183859
-0.0680098
-0.0191071
-0.00478019
-69.0369
66.1426
0.456005
0.385214
0.322456
0.255247
0.218069
0.182032
0.160049
0.134545
0.116344
0.0928089
0.0844546
0.0849175
0.0846317
0.0821024
0.0794296
0.0748435
0.0713142
0.0663452
0.062797
0.0580949
0.0548385
0.050649
0.0478377
0.0443763
0.0423614
0.0405588
0.0414313
0.0464815
0.0545488
0.0411196
0.0301049
0.0251303
0.0214956
0.0195199
0.0174748
0.0161887
0.0146673
0.0136626
0.0124217
0.0115862
0.0105347
0.00981608
0.00889603
0.00825092
0.00739871
0.0067675
0.00588211
0.00518168
0.00420419
0.00386956
0.00392841
0.00393432
0.00383493
0.00372021
0.0035153
0.00335448
0.00312407
0.00295586
0.00272687
0.00255825
0.00232285
0.00212852
0.0018182
0.00147992
0.000801754
-0.000214962
-0.00265866
-0.00721749
-0.0186045
-0.0354832
-0.0450948
-0.0661839
-0.088368
-0.121956
-0.108879
-0.041797
-0.012019
-0.00304198
-69.4222
68.715
0.150879
0.128425
0.107468
0.0852121
0.0726972
0.0607382
0.0533358
0.0448793
0.0387595
0.0310023
0.0281905
0.028303
0.0282008
0.0273666
0.0264683
0.0249522
0.0237653
0.0221211
0.0209275
0.0193711
0.0182756
0.0168889
0.0159432
0.0147983
0.0141216
0.0135314
0.0138288
0.0155059
0.0180901
0.0137161
0.0100613
0.00838301
0.00717246
0.00650648
0.00582819
0.00539529
0.00489131
0.00455323
0.0041423
0.00386116
0.00351299
0.00327119
0.00296651
0.00274944
0.00246716
0.00225475
0.00196147
0.00172607
0.00140418
0.00129159
0.00130926
0.00131098
0.00127823
0.00123968
0.00117195
0.00111786
0.00104162
0.000985029
0.00090921
0.000852463
0.00077445
0.000709004
0.000605917
0.000491811
0.000265683
-7.79787e-05
-0.00089585
-0.00243583
-0.00622529
-0.0117972
-0.015081
-0.0220673
-0.0295028
-0.0404475
-0.0360586
-0.014092
-0.00409883
-0.00104344
-69.8074
68.7222
0.136747
0.103799
0.0777634
0.0524446
0.039055
0.0275035
0.0210896
0.0150025
0.0125849
0.0119229
0.0115729
0.0110197
0.0105816
0.00996779
0.00952189
0.00893965
0.00852172
0.0079786
0.0075877
0.0070782
0.00671286
0.00623979
0.00590869
0.00549568
0.00524293
0.00500668
0.00508528
0.00563393
0.00650325
0.0048675
0.00348901
0.00284959
0.00237983
0.00212036
0.00185616
0.001689
0.00149681
0.0013697
0.00121781
0.00111557
0.000991271
0.000906472
0.000801768
0.000728833
0.000636414
0.000569292
0.000480086
0.000411857
0.000321278
0.0002825
0.000267801
0.000251547
0.000217492
0.000184555
0.000130101
8.14256e-05
4.10186e-06
-6.61362e-05
-0.000179913
-0.000287734
-0.000468792
-0.000650797
-0.000971825
-0.00132589
-0.00200094
-0.00287827
-0.0047807
-0.00793211
-0.0152951
-0.0252155
-0.0278845
-0.0350229
-0.0427886
-0.0539044
-0.0469684
-0.0182862
-0.00531266
-0.001352
-69.1029
66.1646
0.413697
0.311122
0.233262
0.156857
0.117091
0.0823051
0.0632558
0.0448606
0.0376845
0.0357563
0.0347267
0.0330545
0.0317518
0.0298966
0.0285711
0.0268124
0.0255702
0.0239297
0.0227678
0.0212288
0.0201429
0.0187137
0.0177294
0.0164806
0.0157281
0.0150074
0.015237
0.0168889
0.0196099
0.0145922
0.0104375
0.00854197
0.00713109
0.00636127
0.00556459
0.00506799
0.00448782
0.0041101
0.00365144
0.00334759
0.00297223
0.00272021
0.00240403
0.00218728
0.00190823
0.00170876
0.00143942
0.00123646
0.000961761
0.000846535
0.000803466
0.000755352
0.000652431
0.000554525
0.000390072
0.000245422
1.20215e-05
-0.000196668
-0.000539978
-0.000860274
-0.00140634
-0.00194683
-0.00291416
-0.00396483
-0.00599474
-0.00859381
-0.0142921
-0.0236279
-0.0457831
-0.0759364
-0.0834749
-0.105043
-0.128232
-0.162435
-0.141775
-0.0542303
-0.0155775
-0.00394143
-67.3086
63.6005
0.701118
0.517456
0.388701
0.259803
0.194929
0.136477
0.105396
0.0742699
0.0625741
0.0595537
0.0579063
0.0550745
0.0529441
0.0498043
0.0476377
0.0446645
0.0426345
0.0398617
0.0379631
0.0353613
0.0335866
0.0311698
0.0295606
0.0274457
0.0262121
0.0249702
0.0253319
0.0281012
0.0330262
0.0242824
0.0172956
0.014215
0.0118567
0.0106033
0.00926102
0.00845033
0.00747073
0.00685373
0.00607888
0.00558246
0.00494825
0.00453651
0.00400232
0.00364821
0.00317686
0.00285102
0.00239609
0.00206394
0.00159586
0.00140768
0.00133933
0.00126135
0.00108717
0.000927155
0.000649248
0.000412967
1.89507e-05
-0.000321816
-0.000900965
-0.00142379
-0.00234411
-0.00322579
-0.00485315
-0.0065646
-0.00996578
-0.0141854
-0.0236581
-0.0388109
-0.0759511
-0.127562
-0.138504
-0.174999
-0.213235
-0.273161
-0.239257
-0.0882187
-0.0247616
-0.00619335
-65.5143
61.0261
1.00634
0.721593
0.544147
0.360188
0.272509
0.189554
0.147538
0.102902
0.0871168
0.0832962
0.0811333
0.0770664
0.0741768
0.0696731
0.0667366
0.0624788
0.0597287
0.0557586
0.0531864
0.0494608
0.0470561
0.0435936
0.0414121
0.0383756
0.0366963
0.0348688
0.0353305
0.0392272
0.0469891
0.0339023
0.0239974
0.019859
0.0165381
0.0148488
0.0129362
0.0118394
0.0104391
0.00960366
0.00849518
0.00782285
0.00691537
0.00635771
0.00559339
0.00511383
0.00443967
0.00399843
0.00334785
0.00289685
0.00221877
0.00196403
0.00187558
0.00177119
0.00152133
0.0013045
0.000906756
0.000586817
2.37466e-05
-0.000437433
-0.00126421
-0.0019714
-0.00328343
-0.00447493
-0.00678879
-0.00909679
-0.0139041
-0.0195668
-0.0327968
-0.0531144
-0.10554
-0.180814
-0.192511
-0.244886
-0.29737
-0.387639
-0.341425
-0.118704
-0.0321502
-0.00790374
-63.7197
58.4373
1.33723
0.921439
0.699853
0.456723
0.349901
0.240994
0.189784
0.13038
0.111181
0.106972
0.104436
0.0990113
0.0954741
0.0894791
0.0858883
0.0802328
0.0768715
0.0715997
0.0684559
0.0635074
0.0605678
0.0559662
0.0532977
0.0492511
0.0471865
0.0446758
0.0451916
0.0501986
0.061786
0.0433949
0.0304686
0.0254704
0.0211542
0.0191032
0.0165787
0.0152406
0.0133849
0.0123645
0.010894
0.0100726
0.00886849
0.00818716
0.00717307
0.00658723
0.00569315
0.00515422
0.00429162
0.00373884
0.00282473
0.00251373
0.00241246
0.00228684
0.00195417
0.00168907
0.00116115
0.000770388
2.44618e-05
-0.00053843
-0.00163224
-0.00249482
-0.00422758
-0.00567917
-0.00872467
-0.011529
-0.0178082
-0.0246456
-0.0416521
-0.0661335
-0.134216
-0.23661
-0.244891
-0.314768
-0.379994
-0.507578
-0.450653
-0.143742
-0.0370465
-0.00890144
-61.9248
55.8309
1.70236
1.11352
0.856421
0.547805
0.427375
0.290126
0.232359
0.15625
0.134645
0.130582
0.127855
0.120881
0.11687
0.109189
0.105123
0.0978951
0.0940909
0.0873557
0.0837976
0.0774736
0.074146
0.0682614
0.0652385
0.0600474
0.0576945
0.0543617
0.0548731
0.0609068
0.077782
0.0526689
0.0366226
0.0310545
0.0256797
0.0233766
0.0201737
0.0186625
0.0162973
0.0151433
0.0132669
0.0123377
0.0108007
0.0100299
0.00873561
0.00807294
0.00693242
0.00632294
0.00522299
0.00459527
0.00340657
0.00305503
0.0029503
0.00281077
0.0023843
0.00208415
0.00141004
0.000968159
1.78493e-05
-0.000618197
-0.00200953
-0.00298345
-0.00518298
-0.00681967
-0.0106702
-0.0138222
-0.0216899
-0.0293176
-0.0502083
-0.0774087
-0.161519
-0.29617
-0.294807
-0.384836
-0.460123
-0.634896
-0.56988
-0.160773
-0.0388008
-0.00906352
-60.1297
53.2044
2.11117
1.29232
1.01505
0.631359
0.505523
0.336079
0.275667
0.17994
0.157408
0.154137
0.151444
0.142631
0.138412
0.128754
0.124483
0.11542
0.111427
0.102985
0.0992499
0.0913199
0.0878265
0.0804421