/*--------------------------------*- C++ -*----------------------------------*\
| =========                 |                                                 |
| \\      /  F ield         | OpenFOAM: The Open Source CFD Toolbox           |
|  \\    /   O peration     | Version:  5.x                                   |
|   \\  /    A nd           | Web:      www.OpenFOAM.org                      |
|    \\/     M anipulation  |                                                 |
\*---------------------------------------------------------------------------*/
FoamFile
{
    version     2.0;
    format      ascii;
    class       volScalarField;
    location    "6";
    object      gradTy;
}
// * * * * * * * * * * * * * * * * * * * * * * * * * * * * * * * * * * * * * //

dimensions      [0 -1 0 1 0 0 0];

internalField   nonuniform List<scalar> 
3200
(
18.2498
8.63628
11.7304
8.31287
9.7503
8.04028
8.79448
7.79324
8.24214
7.60132
7.87671
7.51784
7.72829
7.31797
7.53022
7.13996
7.33913
6.98057
7.16234
6.83842
7.00175
6.7128
6.85788
6.60274
6.73076
6.50658
6.62085
6.4212
6.53619
6.36704
6.23186
6.31903
6.20052
6.25818
6.16601
6.21067
6.13667
6.17258
6.11244
6.14165
6.09259
6.11639
6.07643
6.09574
6.06344
6.07889
6.05332
6.06521
6.0461
6.05428
6.0432
6.04934
6.03778
6.04316
6.03424
6.03785
6.03295
6.03398
6.03466
6.03198
6.04074
6.03239
6.05375
6.03593
6.07871
6.04286
6.12659
6.04843
6.22322
6.00084
6.29318
7.10878
6.42161
7.94743
6.78051
9.89577
9.12524
9.00741
8.98308
8.97784
17.0101
9.75221
11.3327
8.77683
9.54749
8.27043
8.67421
7.92573
8.16493
7.68547
7.83251
7.56464
7.6768
7.3694
7.48152
7.18918
7.29448
7.02591
7.12206
6.87945
6.96585
6.74943
6.8262
6.63511
6.70288
6.53502
6.59567
6.44635
6.5087
6.37079
6.25672
6.30462
6.21611
6.24685
6.17787
6.20155
6.14614
6.16517
6.12013
6.1356
6.09886
6.11146
6.08154
6.09176
6.06757
6.07575
6.0566
6.06289
6.04857
6.05292
6.04465
6.04791
6.03924
6.04208
6.03539
6.03729
6.03361
6.03414
6.03464
6.0332
6.03975
6.03528
6.05124
6.0417
6.07366
6.05436
6.11678
6.074
6.20342
6.07623
6.35166
6.9935
6.62342
7.76481
7.15789
9.50253
9.09913
9.00366
8.98231
8.97763
16.0607
10.5146
11.1005
9.10772
9.42659
8.43335
8.60003
8.01872
8.11647
7.74456
7.80491
7.59624
7.64208
7.40406
7.44901
7.22249
7.2648
7.05667
7.09533
6.90731
6.94206
6.77434
6.80523
6.65713
6.68443
6.55431
6.57889
6.46304
6.48921
6.3736
6.2751
6.29567
6.22693
6.23951
6.18601
6.19559
6.15264
6.16031
6.1254
6.13163
6.10316
6.10823
6.08504
6.08916
6.07041
6.0737
6.05886
6.06139
6.0503
6.05207
6.04563
6.04695
6.04025
6.04138
6.0362
6.03695
6.03411
6.03431
6.03471
6.0341
6.03919
6.03735
6.04976
6.04582
6.07066
6.0626
6.11117
6.09267
6.19389
6.13551
6.39548
6.9187
6.76477
7.65211
7.4172
9.21921
9.0607
8.99695
8.98088
8.97723
15.3332
11.0317
10.9714
9.34615
9.35816
8.54987
8.55576
8.08454
8.08679
7.78637
7.78807
7.61766
7.61872
7.42739
7.42736
7.24506
7.24513
7.07756
7.07766
6.92627
6.92638
6.79131
6.79142
6.67214
6.67227
6.56742
6.56773
6.47405
6.47539
6.37572
6.28872
6.29029
6.23451
6.23481
6.19164
6.19174
6.15711
6.15716
6.12902
6.12906
6.10611
6.10614
6.08745
6.08747
6.07237
6.07239
6.06043
6.06044
6.05151
6.05154
6.0463
6.04632
6.04094
6.04093
6.03677
6.03676
6.03449
6.03447
6.03481
6.03478
6.03892
6.03886
6.04892
6.04878
6.06897
6.06857
6.10825
6.10657
6.19074
6.18207
6.42877
6.87099
6.86448
7.58431
7.59504
9.01431
9.01848
8.98834
8.97895
8.97668
14.7777
11.3792
10.905
9.51909
9.32256
8.63382
8.53058
8.13143
8.06922
7.81609
7.77812
7.63222
7.60306
7.44307
7.413
7.26032
7.23216
7.09174
7.06606
6.93916
6.9161
6.80286
6.78239
6.68236
6.66432
6.57632
6.56033
6.48126
6.46562
6.37734
6.29879
6.28721
6.23983
6.23185
6.19554
6.18927
6.16019
6.15514
6.13152
6.12741
6.10815
6.1048
6.08911
6.08639
6.07372
6.07155
6.06152
6.05984
6.05237
6.05123
6.04676
6.0459
6.04142
6.04065
6.03718
6.03666
6.03477
6.03461
6.03493
6.03529
6.03881
6.03995
6.04849
6.05094
6.06811
6.07294
6.10699
6.11702
6.1913
6.2184
6.45423
6.84123
6.93513
7.54487
7.71654
8.86602
8.97763
8.97889
8.97673
8.97604
14.3582
11.6097
10.875
9.64445
9.30663
8.69436
8.51724
8.16483
8.05929
7.8372
7.77248
7.64212
7.59263
7.45355
7.40354
7.27061
7.22368
7.10133
7.05851
6.9479
6.90942
6.81071
6.77653
6.68931
6.65916
6.58234
6.55544
6.48593
6.45875
6.37856
6.30619
6.28555
6.24358
6.23003
6.19823
6.18772
6.16231
6.15385
6.13324
6.12636
6.10955
6.10394
6.09026
6.08571
6.07466
6.07102
6.06228
6.05948
6.05297
6.05105
6.04707
6.04563
6.04174
6.04047
6.03747
6.03661
6.03498
6.03474
6.03504
6.03567
6.03879
6.04075
6.04831
6.0525
6.06774
6.07614
6.10668
6.12491
6.19375
6.24639
6.47365
6.82319
6.98515
7.52295
7.79892
8.75924
8.9412
8.96958
8.97446
8.97538
14.0486
11.7596
10.8648
9.73411
9.30169
8.73748
8.51091
8.18836
8.05402
7.85202
7.76946
7.64877
7.58578
7.46047
7.3974
7.27746
7.21822
7.10774
7.05366
6.95375
6.90516
6.81597
6.7728
6.69397
6.65587
6.58636
6.55227
6.48891
6.454
6.37947
6.31151
6.28475
6.24619
6.22893
6.20007
6.18676
6.16376
6.15306
6.1344
6.1257
6.1105
6.10341
6.09104
6.08529
6.07529
6.0707
6.0628
6.05926
6.05339
6.05095
6.04729
6.04546
6.04196
6.04037
6.03767
6.0366
6.03514
6.03484
6.03515
6.03595
6.03883
6.04133
6.04826
6.05362
6.06764
6.07846
6.10686
6.13077
6.19685
6.2674
6.48818
6.81265
7.02013
7.5115
7.85393
8.68359
8.91091
8.96121
8.97234
8.97475
13.8306
11.8537
10.864
9.79583
9.30202
8.7671
8.50841
8.20436
8.05146
7.86206
7.76797
7.65312
7.58143
7.4649
7.39353
7.28187
7.21482
7.11189
7.05065
6.95755
6.90252
6.8194
6.7705
6.69701
6.65383
6.58896
6.55026
6.49075
6.45083
6.38012
6.31519
6.28442
6.24796
6.2283
6.20129
6.18619
6.16471
6.15258
6.13517
6.12531
6.11112
6.10309
6.09155
6.08504
6.07571
6.0705
6.06314
6.05914
6.05367
6.05089
6.04743
6.04535
6.04211
6.04031
6.0378
6.0366
6.03526
6.03492
6.03523
6.03615
6.03887
6.04173
6.04828
6.05439
6.06767
6.08007
6.10723
6.13495
6.19977
6.28239
6.49857
6.8068
7.04376
7.50602
7.88946
8.63204
8.88771
8.95441
8.97057
8.97422
13.6916
11.9084
10.8664
9.83458
9.30399
8.78567
8.50773
8.21432
8.05035
7.86828
7.76731
7.65574
7.57886
7.46752
7.39127
7.28451
7.21284
7.11437
7.04891
6.95983
6.901
6.82145
6.76917
6.69883
6.65266
6.59052
6.54908
6.4918
6.4489
6.38054
6.3175
6.28432
6.24904
6.22796
6.20203
6.18587
6.16529
6.15231
6.13564
6.12509
6.1115
6.10292
6.09186
6.08489
6.07597
6.0704
6.06335
6.05907
6.05384
6.05087
6.04751
6.04528
6.0422
6.04028
6.03789
6.0366
6.03533
6.03498
6.03528
6.03628
6.03891
6.04199
6.04831
6.05488
6.06773
6.08109
6.10757
6.13764
6.20197
6.29204
6.50527
6.80379
7.05838
7.50368
7.91061
8.59997
8.87206
8.94964
8.96931
8.97384
13.624
11.9334
10.8684
9.85327
9.30547
8.79463
8.50767
8.2191
8.04997
7.87126
7.76708
7.65697
7.57768
7.46874
7.39023
7.28574
7.21194
7.11553
7.04812
6.96089
6.9003
6.82241
6.76857
6.69968
6.65213
6.59125
6.54854
6.49228
6.44798
6.38075
6.31861
6.28431
6.24956
6.22781
6.20238
6.18573
6.16556
6.1522
6.13585
6.12499
6.11168
6.10284
6.09201
6.08483
6.07609
6.07035
6.06345
6.05904
6.05392
6.05086
6.04756
6.04526
6.04224
6.04026
6.03793
6.0366
6.03536
6.035
6.03531
6.03634
6.03894
6.04211
6.04833
6.05511
6.06778
6.08158
6.10777
6.13896
6.20315
6.29677
6.50855
6.80255
7.06536
7.50289
7.92047
8.58459
8.8642
8.94717
8.96865
8.97364
-13.7588
-11.9533
-10.7243
-9.38515
-8.57473
-7.68286
-7.12089
-6.469
-6.05397
-5.57189
-5.27845
-4.95283
-4.71522
-4.38673
-4.15106
-3.83938
-3.62157
-3.3404
-3.14618
-2.89807
-2.72755
-2.51074
-2.36198
-2.17305
-2.04308
-1.87718
-1.76066
-1.60673
-1.48436
-1.29679
-1.12117
-1.02262
-0.92034
-0.855049
-0.777
-0.724917
-0.660485
-0.616997
-0.562693
-0.525918
-0.479873
-0.448682
-0.409634
-0.383246
-0.350322
-0.328244
-0.300993
-0.283133
-0.261775
-0.248594
-0.233733
-0.222789
-0.207545
-0.196562
-0.181979
-0.171763
-0.158543
-0.149401
-0.137715
-0.129697
-0.119535
-0.112644
-0.104048
-0.0984561
-0.0919277
-0.0885976
-0.0865907
-0.0900626
-0.104364
-0.13833
-0.228515
-0.374737
-0.529399
-0.816
-1.11876
-1.62803
-1.84346
-1.90748
-1.92405
-1.9279
-13.831
-11.9303
-10.7288
-9.364
-8.57799
-7.66967
-7.1245
-6.45953
-6.05665
-5.56434
-5.27974
-4.94931
-4.71886
-4.38302
-4.15411
-3.83563
-3.62411
-3.33693
-3.14833
-2.89497
-2.72941
-2.50803
-2.36359
-2.1707
-2.04452
-1.87521
-1.76216
-1.60547
-1.48698
-1.29632
-1.11809
-1.02277
-0.918863
-0.855562
-0.775964
-0.725413
-0.65965
-0.617432
-0.561994
-0.526291
-0.479281
-0.448998
-0.40913
-0.383509
-0.34989
-0.328453
-0.300619
-0.283275
-0.261449
-0.248663
-0.233578
-0.222962
-0.207376
-0.196708
-0.181806
-0.171884
-0.158381
-0.149504
-0.137569
-0.129784
-0.119405
-0.112713
-0.103929
-0.0984945
-0.0918006
-0.0885455
-0.0863724
-0.0896302
-0.103578
-0.136082
-0.226274
-0.374399
-0.524122
-0.815353
-1.1105
-1.63978
-1.84952
-1.90937
-1.92456
-1.92806
-13.9792
-11.8793
-10.7397
-9.31971
-8.58615
-7.64195
-7.13289
-6.43959
-6.06292
-5.5485
-5.28287
-4.9418
-4.72673
-4.37504
-4.16074
-3.82761
-3.62968
-3.32952
-3.15309
-2.88837
-2.7335
-2.50223
-2.36715
-2.16568
-2.04769
-1.87099
-1.76541
-1.60269
-1.49248
-1.29535
-1.1117
-1.02326
-0.915765
-0.856729
-0.773768
-0.726521
-0.657875
-0.618398
-0.560507
-0.527119
-0.478022
-0.4497
-0.408058
-0.384094
-0.348972
-0.328919
-0.299827
-0.283597
-0.260764
-0.248825
-0.233245
-0.223336
-0.207011
-0.197024
-0.181434
-0.17215
-0.158035
-0.149731
-0.137259
-0.129976
-0.119128
-0.112867
-0.103677
-0.0985841
-0.0915369
-0.088451
-0.0859375
-0.0887709
-0.10205
-0.131527
-0.221716
-0.373999
-0.513185
-0.81455
-1.09288
-1.66432
-1.86157
-1.91306
-1.92553
-1.92835
-14.2115
-11.7899
-10.7619
-9.24797
-8.60274
-7.59684
-7.14867
-6.40698
-6.07471
-5.52271
-5.28903
-4.92926
-4.74006
-4.36157
-4.17213
-3.81418
-3.63935
-3.31716
-3.16138
-2.87737
-2.74066
-2.4926
-2.37336
-2.15733
-2.05321
-1.86393
-1.77096
-1.59781
-1.50146
-1.29385
-1.1015
-1.02453
-0.910732
-0.858857
-0.770148
-0.728487
-0.654937
-0.620104
-0.558044
-0.528577
-0.475934
-0.450937
-0.40628
-0.385127
-0.347454
-0.329749
-0.298522
-0.284185
-0.259644
-0.249135
-0.232688
-0.223967
-0.206395
-0.197565
-0.180812
-0.172611
-0.157458
-0.150125
-0.136742
-0.130311
-0.11867
-0.113139
-0.103262
-0.0987529
-0.0911156
-0.0883344
-0.0852897
-0.0874946
-0.0998758
-0.124544
-0.214676
-0.374122
-0.49576
-0.814669
-1.06353
-1.70382
-1.87945
-1.9183
-1.92689
-1.92876
-14.5406
-11.6447
-10.8035
-9.14149
-8.63376
-7.52942
-7.17619
-6.358
-6.09529
-5.48419
-5.30023
-4.9099
-4.76097
-4.34054
-4.19027
-3.79344
-3.65491
-3.29816
-3.17481
-2.86049
-2.75227
-2.47782
-2.38345
-2.1445
-2.06215
-1.85302
-1.77971
-1.58986
-1.5149
-1.29173
-1.08669
-1.02727
-0.903225
-0.862461
-0.764647
-0.731732
-0.650452
-0.622901
-0.554279
-0.530965
-0.472742
-0.452962
-0.403565
-0.386824
-0.345139
-0.331121
-0.296544
-0.285183
-0.257965
-0.249683
-0.231822
-0.224955
-0.20543
-0.198425
-0.179849
-0.17335
-0.15657
-0.150763
-0.135948
-0.130856
-0.117968
-0.113585
-0.102633
-0.0990478
-0.090501
-0.0882293
-0.0844327
-0.085812
-0.0972104
-0.114944
-0.204863
-0.375758
-0.470445
-0.81759
-1.01852
-1.7619
-1.9028
-1.92476
-1.92852
-1.92924
-14.9856
-11.4173
-10.8779
-8.98884
-8.68865
-7.43197
-7.22231
-6.28681
-6.12981
-5.42859
-5.31969
-4.88088
-4.79274
-4.30871
-4.21827
-3.76236
-3.67921
-3.26982
-3.19587
-2.83537
-2.77053
-2.45583
-2.39933
-2.12542
-2.07615
-1.83669
-1.79312
-1.57732
-1.53426
-1.2889
-1.06606
-1.0326
-0.89239
-0.86835
-0.756554
-0.736914
-0.643821
-0.627343
-0.548704
-0.534751
-0.468015
-0.456174
-0.399545
-0.38952
-0.341719
-0.333318
-0.293638
-0.286817
-0.25553
-0.250617
-0.230519
-0.22645
-0.203966
-0.199749
-0.178405
-0.174503
-0.155244
-0.151762
-0.134766
-0.131714
-0.116927
-0.114296
-0.10171
-0.0995422
-0.0896363
-0.088186
-0.0833695
-0.0837295
-0.0942924
-0.102456
-0.191811
-0.380443
-0.435032
-0.826359
-0.951813
-1.84409
-1.93091
-1.93194
-1.93027
-1.92974
-15.5733
-11.0688
-11.0064
-8.77264
-8.78181
-7.29264
-7.29747
-6.18448
-6.1861
-5.34931
-5.35235
-4.83785
-4.84035
-4.26114
-4.2609
-3.71638
-3.71656
-3.22807
-3.22841
-2.79842
-2.7988
-2.42353
-2.42391
-2.09735
-2.09777
-1.81252
-1.81343
-1.55787
-1.56173
-1.28517
-1.03786
-1.0422
-0.876912
-0.877752
-0.744778
-0.745037
-0.634127
-0.634274
-0.540544
-0.540651
-0.461095
-0.46118
-0.393663
-0.393729
-0.336725
-0.336768
-0.28942
-0.289432
-0.252041
-0.252159
-0.228576
-0.228683
-0.201773
-0.20176
-0.176264
-0.176271
-0.153288
-0.153302
-0.133028
-0.133042
-0.1154
-0.115406
-0.100372
-0.100347
-0.0884343
-0.0882783
-0.0821001
-0.0812397
-0.0914711
-0.0867216
-0.174789
-0.39049
-0.386149
-0.845763
-0.854433
-1.9585
-1.96244
-1.93922
-1.93198
-1.93023
-16.3412
-10.5427
-11.2217
-8.46672
-8.93491
-7.09355
-7.41735
-6.03757
-6.27593
-5.23643
-5.40572
-4.77414
-4.91124
-4.19042
-4.32531
-3.64862
-3.77346
-3.16677
-3.27816
-2.74427
-2.8421
-2.3762
-2.46157
-2.05621
-2.13083
-1.77691
-1.844
-1.52805
-1.60041
-1.28028
-0.999589
-1.05859
-0.854791
-0.892509
-0.727675
-0.757609
-0.619994
-0.644963
-0.528633
-0.54974
-0.450991
-0.468892
-0.385081
-0.400223
-0.329451
-0.342115
-0.28331
-0.293544
-0.247054
-0.254651
-0.225687
-0.231999
-0.198506
-0.204791
-0.173104
-0.178959
-0.150414
-0.155656
-0.130479
-0.135078
-0.113169
-0.117119
-0.0984342
-0.101628
-0.086763
-0.0886124
-0.0806189
-0.078307
-0.0892497
-0.0672752
-0.152662
-0.409339
-0.318709
-0.883205
-0.713238
-2.11691
-1.99507
-1.94587
-1.93346
-1.93065
-17.341
-9.75741
-11.5743
-8.03189
-9.18039
-6.80786
-7.60538
-5.82595
-6.41689
-5.07521
-5.49113
-4.67969
-5.01645
-4.08547
-4.42218
-3.5488
-3.85963
-3.07675
-3.35373
-2.66485
-2.90795
-2.30683
-2.51886
-1.99587
-2.18102
-1.72447
-1.8899
-1.48271
-1.6548
-1.27381
-0.947738
-1.08549
-0.823013
-0.915372
-0.702784
-0.776886
-0.59936
-0.661307
-0.511226
-0.563626
-0.436223
-0.480674
-0.372542
-0.410155
-0.318841
-0.350322
-0.274439
-0.299927
-0.239905
-0.258607
-0.221388
-0.236908
-0.193648
-0.209342
-0.168445
-0.183025
-0.146189
-0.159228
-0.126741
-0.138175
-0.109905
-0.119738
-0.0956223
-0.103633
-0.0844239
-0.089341
-0.0789111
-0.0748449
-0.0883458
-0.043535
-0.123684
-0.44208
-0.225064
-0.950026
-0.509098
-2.33633
-2.02479
-1.95105
-1.93456
-1.93095
-18.6442
-8.5961
-12.1413
-7.4094
-9.56669
-6.39536
-7.89647
-5.51949
-6.63513
-4.84367
-5.62562
-4.53929
-5.17235
-3.9298
-4.56744
-3.4016
-3.98953
-2.94431
-3.46792
-2.54813
-3.00755
-2.20492
-2.60554
-1.90719
-2.25687
-1.64713
-1.95869
-1.41417
-1.7313
-1.26513
-0.877322
-1.12839
-0.77703
-0.950421
-0.666415
-0.806217
-0.569138
-0.686122
-0.485712
-0.584695
-0.414574
-0.498552
-0.354165
-0.425237
-0.303313
-0.362818
-0.261508
-0.309725
-0.229601
-0.264794
-0.214974
-0.244162
-0.186427
-0.216152
-0.161561
-0.189143
-0.139964
-0.164616
-0.121242
-0.142856
-0.105112
-0.123711
-0.0915218
-0.106723
-0.0811165
-0.0906803
-0.0769458
-0.0706771
-0.0897716
-0.0147939
-0.085174
-0.496237
-0.0937386
-1.06348
-0.21423
-2.64132
-2.045
-1.95394
-1.93515
-1.93111
18.6442
8.5961
12.1413
7.4094
9.56669
6.39536
7.89647
5.51948
6.63513
4.84367
5.62562
4.53929
5.17235
3.9298
4.56744
3.4016
3.98953
2.94431
3.46792
2.54813
3.00755
2.20491
2.60553
1.90719
2.25687
1.64713
1.95869
1.41417
1.7313
1.26513
0.87732
1.12839
0.777029
0.950421
0.666414
0.806217
0.569137
0.686121
0.485711
0.584694
0.414573
0.498552
0.354164
0.425236
0.303312
0.362817
0.261507
0.309724
0.2296
0.264793
0.214974
0.244162
0.186427
0.216152
0.16156
0.189143
0.139964
0.164615
0.121241
0.142856
0.105112
0.123711
0.0915215
0.106723
0.0811163
0.0906803
0.0769455
0.0706773
0.089771
0.014795
0.0851734
0.496229
0.0937377
1.06347
0.214227
2.64128
2.04497
1.95391
1.93513
1.93108
17.341
9.75741
11.5743
8.0319
9.18039
6.80787
7.60539
5.82595
6.41689
5.07522
5.49114
4.6797
5.01645
4.08547
4.42218
3.54881
3.85964
3.07675
3.35374
2.66485
2.90795
2.30683
2.51886
1.99587
2.18103
1.72447
1.88991
1.48271
1.6548
1.27381
0.947739
1.08549
0.823014
0.915374
0.702785
0.776887
0.599362
0.661308
0.511227
0.563627
0.436225
0.480675
0.372543
0.410156
0.318842
0.350323
0.27444
0.299928
0.239906
0.258608
0.221389
0.236909
0.193649
0.209343
0.168445
0.183026
0.14619
0.159228
0.126742
0.138176
0.109905
0.119739
0.095623
0.103634
0.0844245
0.0893417
0.0789116
0.0748456
0.0883458
0.043536
0.123683
0.442074
0.225061
0.950011
0.509089
2.3363
2.02476
1.95102
1.93454
1.93092
16.3412
10.5427
11.2217
8.46673
8.93492
7.09356
7.41736
6.03758
6.27594
5.23644
5.40573
4.77415
4.91125
4.19042
4.32531
3.64863
3.77347
3.16677
3.27817
2.74427
2.8421
2.37621
2.46157
2.05621
2.13083
1.77692
1.84401
1.52806
1.60042
1.28028
0.999593
1.05859
0.854795
0.892513
0.727678
0.757612
0.619998
0.644966
0.528636
0.549743
0.450994
0.468894
0.385083
0.400225
0.329453
0.342117
0.283312
0.293547
0.247056
0.254653
0.225689
0.232001
0.198507
0.204793
0.173106
0.178961
0.150415
0.155658
0.130481
0.13508
0.113171
0.11712
0.0984356
0.10163
0.0867642
0.0886137
0.0806199
0.0783081
0.0892503
0.0672762
0.152661
0.409333
0.318705
0.883192
0.713227
2.11688
1.99504
1.94585
1.93344
1.93062
15.5733
11.0689
11.0064
8.77265
8.78182
7.29265
7.29748
6.18449
6.18611
5.34932
5.35236
4.83786
4.84036
4.26115
4.26091
3.71639
3.71657
3.22807
3.22842
2.79843
2.79881
2.42354
2.42391
2.09736
2.09778
1.81253
1.81344
1.55788
1.56173
1.28518
1.03786
1.0422
0.876916
0.877756
0.744782
0.745041
0.634131
0.634278
0.540547
0.540655
0.461098
0.461183
0.393667
0.393732
0.336728
0.33677
0.289423
0.289435
0.252044
0.252161
0.228578
0.228686
0.201775
0.201762
0.176266
0.176273
0.15329
0.153304
0.13303
0.133044
0.115402
0.115408
0.100374
0.100349
0.0884358
0.0882798
0.0821014
0.081241
0.0914719
0.0867224
0.174788
0.390485
0.386144
0.845751
0.85442
1.95847
1.96242
1.9392
1.93195
1.9302
14.9856
11.4174
10.8779
8.98885
8.68866
7.43198
7.22232
6.28682
6.12982
5.4286
5.3197
4.88089
4.79275
4.30872
4.21828
3.76237
3.67922
3.26983
3.19588
2.83537
2.77054
2.45584
2.39934
2.12542
2.07616
1.8367
1.79313
1.57732
1.53427
1.28891
1.06606
1.0326
0.892395
0.868355
0.756559
0.736918
0.643825
0.627347
0.548708
0.534755
0.468019
0.456177
0.399548
0.389523
0.341722
0.333321
0.293641
0.28682
0.255532
0.250619
0.230522
0.226452
0.203969
0.199752
0.178407
0.174505
0.155246
0.151764
0.134768
0.131716
0.116928
0.114298
0.101712
0.0995439
0.0896379
0.0881876
0.0833709
0.0837308
0.0942933
0.102457
0.19181
0.380438
0.435026
0.826347
0.951798
1.84407
1.93088
1.93191
1.93025
1.92972
14.5406
11.6447
10.8035
9.1415
8.63377
7.52943
7.1762
6.35801
6.0953
5.4842
5.30024
4.90991
4.76097
4.34055
4.19028
3.79344
3.65492
3.29816
3.17481
2.8605
2.75228
2.47782
2.38346
2.14451
2.06215
1.85303
1.77971
1.58987
1.5149
1.29174
1.0867
1.02727
0.90323
0.862466
0.764652
0.731736
0.650456
0.622905
0.554283
0.530969
0.472746
0.452965
0.403568
0.386827
0.345142
0.331124
0.296547
0.285186
0.257968
0.249686
0.231825
0.224957
0.205433
0.198427
0.179852
0.173353
0.156572
0.150765
0.13595
0.130858
0.11797
0.113587
0.102635
0.0990496
0.0905026
0.0882309
0.0844341
0.0858133
0.0972113
0.114944
0.204861
0.375754
0.470439
0.817578
1.0185
1.76188
1.90277
1.92473
1.9285
1.92921
14.2115
11.7899
10.7619
9.24798
8.60275
7.59685
7.14868
6.40699
6.07472
5.52272
5.28904
4.92927
4.74007
4.36157
4.17214
3.81419
3.63936
3.31717
3.16139
2.87738
2.74066
2.49261
2.37337
2.15733
2.05322
1.86394
1.77096
1.59781
1.50147
1.29385
1.10151
1.02453
0.910737
0.858862
0.770152
0.728492
0.654941
0.620108
0.558048
0.528581
0.475937
0.45094
0.406284
0.385131
0.347457
0.329752
0.298525
0.284188
0.259647
0.249137
0.23269
0.22397
0.206397
0.197568
0.180815
0.172613
0.157461
0.150127
0.136744
0.130313
0.118672
0.11314
0.103263
0.0987546
0.0911172
0.088336
0.0852911
0.0874959
0.0998766
0.124545
0.214674
0.374118
0.495754
0.814657
1.06351
1.70379
1.87942
1.91827
1.92687
1.92873
13.9792
11.8793
10.7397
9.31972
8.58616
7.64196
7.1329
6.4396
6.06293
5.54851
5.28288
4.94181
4.72674
4.37505
4.16075
3.82762
3.62969
3.32953
3.1531
2.88838
2.73351
2.50224
2.36716
2.16569
2.0477
1.871
1.76542
1.60269
1.49248
1.29536
1.1117
1.02327
0.91577
0.856734
0.773773
0.726525
0.65788
0.618402
0.560511
0.527123
0.478025
0.449703
0.408061
0.384097
0.348975
0.328922
0.29983
0.2836
0.260766
0.248828
0.233248
0.223338
0.207014
0.197026
0.181437
0.172152
0.158038
0.149733
0.137261
0.129978
0.11913
0.112868
0.103678
0.0985858
0.0915385
0.0884525
0.0859389
0.0887721
0.102051
0.131527
0.221715
0.373994
0.513178
0.814539
1.09286
1.66429
1.86154
1.91303
1.92551
1.92832
13.831
11.9303
10.7288
9.36401
8.578
7.66967
7.1245
6.45954
6.05666
5.56435
5.27975
4.94932
4.71887
4.38303
4.15412
3.83564
3.62412
3.33694
3.14834
2.89498
2.72942
2.50803
2.3636
2.17071
2.04453
1.87522
1.76217
1.60548
1.48698
1.29632
1.1181
1.02277
0.918868
0.855566
0.775968
0.725418
0.659654
0.617436
0.561997
0.526295
0.479284
0.449001
0.409133
0.383512
0.349893
0.328456
0.300621
0.283277
0.261452
0.248666
0.23358
0.222965
0.207378
0.19671
0.181808
0.171886
0.158383
0.149506
0.137571
0.129786
0.119406
0.112715
0.103931
0.0984961
0.0918022
0.088547
0.0863737
0.0896314
0.103579
0.136082
0.226273
0.374395
0.524115
0.815342
1.11049
1.63976
1.84949
1.90935
1.92453
1.92803
13.7588
11.9534
10.7244
9.38516
8.57474
7.68287
7.1209
6.46901
6.05398
5.57189
5.27846
4.95284
4.71523
4.38673
4.15107
3.83939
3.62158
3.34041
3.14618
2.89808
2.72756
2.51075
2.36199
2.17306
2.04309
1.87719
1.76067
1.60674
1.48437
1.2968
1.12118
1.02262
0.920344
0.855053
0.777004
0.724921
0.660489
0.617001
0.562696
0.525922
0.479876
0.448685
0.409637
0.383249
0.350325
0.328247
0.300995
0.283135
0.261777
0.248597
0.233735
0.222791
0.207547
0.196564
0.181981
0.171765
0.158545
0.149403
0.137717
0.129699
0.119536
0.112645
0.10405
0.0984577
0.0919292
0.088599
0.086592
0.0900637
0.104365
0.13833
0.228514
0.374733
0.529393
0.815989
1.11875
1.628
1.84343
1.90745
1.92402
1.92788
-13.6275
-11.9384
-10.8753
-9.86381
-9.32016
-8.8173
-8.53943
-8.26826
-8.1177
-7.96894
-7.86636
-7.73055
-7.63486
-7.51018
-7.42319
-7.31085
-7.23273
-7.13209
-7.06227
-6.97255
-6.91049
-6.83102
-6.77621
-6.70625
-6.65802
-6.59637
-6.55316
-6.4963
-6.45155
-6.38368
-6.32099
-6.28638
-6.25135
-6.22943
-6.2038
-6.18702
-6.1667
-6.15323
-6.13677
-6.12583
-6.11243
-6.10352
-6.09261
-6.08539
-6.07658
-6.07081
-6.06386
-6.05941
-6.05426
-6.05117
-6.04784
-6.04553
-6.04249
-6.04049
-6.03814
-6.0368
-6.03554
-6.03516
-6.03546
-6.03648
-6.03906
-6.04222
-6.04843
-6.05521
-6.06786
-6.08166
-6.10784
-6.13902
-6.2032
-6.29682
-6.5086
-6.80258
-7.06539
-7.50291
-7.9205
-8.58461
-8.86421
-8.94719
-8.96866
-8.97366
-13.6951
-11.9134
-10.8732
-9.84509
-9.31853
-8.8083
-8.53916
-8.26343
-8.11763
-7.9671
-7.86769
-7.72894
-7.63602
-7.50867
-7.42421
-7.30949
-7.23363
-7.13086
-7.06306
-6.97145
-6.91119
-6.83003
-6.77682
-6.70538
-6.65856
-6.59563
-6.55371
-6.49581
-6.45248
-6.38348
-6.31986
-6.2864
-6.25083
-6.22957
-6.20345
-6.18716
-6.16642
-6.15335
-6.13655
-6.12593
-6.11225
-6.1036
-6.09246
-6.08545
-6.07646
-6.07085
-6.06376
-6.05944
-6.05418
-6.05118
-6.0478
-6.04556
-6.04245
-6.04051
-6.0381
-6.03679
-6.0355
-6.03514
-6.03543
-6.03642
-6.03903
-6.0421
-6.04841
-6.05497
-6.06782
-6.08116
-6.10764
-6.1377
-6.20203
-6.29209
-6.50531
-6.80383
-7.05841
-7.50371
-7.91064
-8.59999
-8.87208
-8.94965
-8.96932
-8.97386
-13.8339
-11.8587
-10.8707
-9.80632
-9.31625
-8.78966
-8.53916
-8.25341
-8.11775
-7.9632
-7.87059
-7.7255
-7.63855
-7.50544
-7.42643
-7.30656
-7.2356
-7.12823
-7.06481
-6.96908
-6.91272
-6.82792
-6.77815
-6.70353
-6.65974
-6.59405
-6.5549
-6.49474
-6.45443
-6.38305
-6.31753
-6.2865
-6.24973
-6.22992
-6.2027
-6.18748
-6.16584
-6.15362
-6.13608
-6.12615
-6.11186
-6.10378
-6.09215
-6.08559
-6.0762
-6.07096
-6.06355
-6.05951
-6.054
-6.05121
-6.04772
-6.04562
-6.04236
-6.04054
-6.03801
-6.03679
-6.03543
-6.03508
-6.03537
-6.03629
-6.03899
-6.04184
-6.04838
-6.05448
-6.06775
-6.08014
-6.1073
-6.13501
-6.19982
-6.28244
-6.49861
-6.80683
-7.04379
-7.50604
-7.88948
-8.63206
-8.88773
-8.95443
-8.97059
-8.97424
-14.0517
-11.7645
-10.8712
-9.74457
-9.31542
-8.75997
-8.54056
-8.23738
-8.11862
-7.95683
-7.87559
-7.71974
-7.64294
-7.50005
-7.43029
-7.30168
-7.23903
-7.12384
-7.06785
-6.96515
-6.91538
-6.82442
-6.78048
-6.70044
-6.66179
-6.59141
-6.55692
-6.49288
-6.45762
-6.38239
-6.31382
-6.28683
-6.24796
-6.23055
-6.20147
-6.18805
-6.16488
-6.1541
-6.13531
-6.12655
-6.11123
-6.1041
-6.09163
-6.08585
-6.07578
-6.07115
-6.0632
-6.05963
-6.05372
-6.05126
-6.04758
-6.04573
-6.04221
-6.0406
-6.03788
-6.03679
-6.03532
-6.03501
-6.03529
-6.03609
-6.03894
-6.04144
-6.04836
-6.05371
-6.06772
-6.07853
-6.10693
-6.13083
-6.1969
-6.26745
-6.48822
-6.81269
-7.02016
-7.51153
-7.85395
-8.68361
-8.91093
-8.96123
-8.97236
-8.97477
-14.3611
-11.6145
-10.881
-9.65492
-9.31965
-8.71684
-8.54532
-8.21398
-8.12121
-7.94724
-7.88357
-7.71081
-7.64996
-7.49174
-7.43649
-7.29416
-7.24456
-7.11708
-7.07275
-6.95909
-6.9197
-6.81903
-6.78425
-6.69569
-6.66512
-6.58733
-6.56013
-6.48987
-6.46241
-6.38147
-6.30845
-6.28764
-6.24532
-6.23166
-6.19961
-6.18902
-6.16343
-6.1549
-6.13413
-6.12721
-6.11028
-6.10463
-6.09085
-6.08627
-6.07514
-6.07148
-6.06268
-6.05985
-6.0533
-6.05136
-6.04736
-6.04591
-6.04199
-6.04071
-6.03767
-6.03681
-6.03516
-6.0349
-6.03518
-6.03581
-6.03891
-6.04087
-6.04841
-6.05259
-6.06782
-6.07622
-6.10675
-6.12497
-6.1938
-6.24644
-6.47369
-6.82322
-6.98518
-7.52297
-7.79894
-8.75926
-8.94122
-8.9696
-8.97447
-8.9754
-14.7803
-11.3841
-10.9106
-9.52963
-9.33457
-8.65645
-8.55646
-8.18103
-8.12705
-7.93323
-7.89591
-7.69741
-7.66088
-7.47931
-7.44619
-7.28293
-7.25321
-7.10699
-7.08043
-6.95007
-6.92646
-6.81101
-6.79017
-6.68863
-6.67033
-6.58123
-6.56505
-6.48514
-6.46934
-6.38023
-6.30098
-6.2893
-6.24154
-6.2335
-6.1969
-6.19059
-6.16129
-6.1562
-6.13241
-6.12826
-6.10887
-6.10549
-6.0897
-6.08696
-6.0742
-6.07201
-6.06191
-6.06022
-6.05269
-6.05154
-6.04704
-6.04618
-6.04166
-6.04088
-6.03738
-6.03686
-6.03494
-6.03478
-6.03507
-6.03543
-6.03892
-6.04007
-6.04859
-6.05103
-6.06819
-6.07302
-6.10705
-6.11709
-6.19135
-6.21846
-6.45427
-6.84126
-6.93516
-7.54489
-7.71656
-8.86603
-8.97765
-8.97891
-8.97675
-8.97606
-15.3353
-11.0367
-10.9764
-9.35692
-9.36882
-8.57294
-8.57862
-8.13523
-8.13848
-7.91297
-7.91471
-7.67752
-7.6776
-7.46093
-7.46108
-7.26636
-7.26652
-7.09212
-7.09226
-6.93677
-6.9369
-6.7992
-6.79932
-6.67823
-6.67837
-6.57221
-6.57253
-6.47785
-6.4792
-6.37859
-6.29082
-6.29241
-6.23617
-6.23648
-6.19297
-6.19307
-6.15818
-6.15823
-6.12989
-6.12993
-6.10682
-6.10685
-6.08802
-6.08805
-6.07284
-6.07285
-6.06081
-6.06082
-6.05183
-6.05186
-6.04658
-6.0466
-6.04118
-6.04117
-6.03697
-6.03696
-6.03465
-6.03464
-6.03495
-6.03492
-6.03903
-6.03897
-6.04902
-6.04888
-6.06905
-6.06865
-6.10832
-6.10663
-6.19079
-6.18212
-6.42881
-6.87102
-6.86451
-7.58433
-7.59506
-9.01433
-9.0185
-8.98835
-8.97896
-8.9767
-16.0623
-10.5198
-11.1046
-9.11894
-9.43538
-8.45737
-8.61875
-8.07155
-8.15906
-7.88361
-7.94306
-7.64815
-7.70298
-7.43389
-7.48378
-7.24199
-7.28681
-7.07026
-7.11032
-6.91725
-6.95285
-6.78187
-6.81331
-6.66298
-6.69067
-6.55893
-6.5838
-6.46671
-6.49314
-6.37644
-6.27708
-6.29783
-6.22854
-6.24121
-6.1873
-6.19695
-6.15367
-6.16141
-6.12624
-6.13252
-6.10384
-6.10895
-6.0856
-6.08974
-6.07086
-6.07418
-6.05923
-6.06178
-6.05061
-6.05239
-6.0459
-6.04724
-6.04048
-6.04162
-6.03639
-6.03716
-6.03427
-6.03448
-6.03484
-6.03425
-6.0393
-6.03747
-6.04985
-6.04591
-6.07073
-6.06268
-6.11124
-6.09274
-6.19394
-6.13557
-6.39552
-6.91873
-6.7648
-7.65213
-7.41722
-9.21923
-9.06072
-8.99697
-8.9809
-8.97725
-17.011
-9.75774
-11.3356
-8.78889
-9.55372
-8.29623
-8.68722
-7.98249
-8.19416
-7.84086
-7.98558
-7.60479
-7.74133
-7.39408
-7.51813
-7.20616
-7.31755
-7.03814
-7.1377
-6.88858
-6.97707
-6.75645
-6.83458
-6.64062
-6.70934
-6.53939
-6.60076
-6.44984
-6.51281
-6.37359
-6.25853
-6.30685
-6.21762
-6.24861
-6.17909
-6.20295
-6.14713
-6.1663
-6.12093
-6.13651
-6.09951
-6.1122
-6.08207
-6.09236
-6.06801
-6.07624
-6.05695
-6.06329
-6.04887
-6.05325
-6.04491
-6.0482
-6.03947
-6.04233
-6.03558
-6.0375
-6.03377
-6.03432
-6.03477
-6.03335
-6.03985
-6.0354
-6.05133
-6.0418
-6.07373
-6.05444
-6.11684
-6.07406
-6.20347
-6.07628
-6.3517
-6.99353
-6.62345
-7.76483
-7.15791
-9.50254
-9.09915
-9.00368
-8.98233
-8.97765
-18.2498
-8.64248
-11.7316
-8.32637
-9.75295
-8.06914
-8.79952
-7.85678
-8.25187
-7.77818
-8.04912
-7.54073
-7.79903
-7.33543
-7.56994
-7.15339
-7.36393
-6.99086
-7.17903
-6.84641
-7.01365
-6.71908
-6.86674
-6.60774
-6.73756
-6.5106
-6.6262
-6.42441
-6.54056
-6.36978
-6.23345
-6.32137
-6.2019
-6.26003
-6.16714
-6.21214
-6.13758
-6.17377
-6.11319
-6.14261
-6.0932
-6.11716
-6.07692
-6.09636
-6.06384
-6.0794
-6.05365
-6.06563
-6.04638
-6.05462
-6.04346
-6.04964
-6.03799
-6.04342
-6.03441
-6.03807
-6.0331
-6.03416
-6.03478
-6.03213
-6.04084
-6.03252
-6.05384
-6.03603
-6.07878
-6.04294
-6.12665
-6.0485
-6.22326
-6.0009
-6.29322
-7.1088
-6.42164
-7.94745
-6.78053
-9.89578
-9.12526
-9.00743
-8.9831
-8.97786
)
;

boundaryField
{
    F1_1
    {
        type            calculated;
        value           nonuniform List<scalar> 
80
(
18.9521
7.97401
11.9801
8.04153
9.8766
7.90527
8.86857
7.71527
8.28942
7.55181
7.90384
7.48988
7.75905
7.28725
7.55941
7.1106
7.36593
6.95355
7.18654
6.81399
7.02333
6.69098
6.87694
6.58347
6.74752
6.48964
6.63596
6.40609
6.55229
6.36488
6.21756
6.32788
6.1913
6.26505
6.15898
6.21618
6.13104
6.17706
6.10787
6.1453
6.08887
6.11936
6.0734
6.09814
6.06099
6.08078
6.05137
6.06662
6.04464
6.05511
6.04234
6.0502
6.03691
6.04381
6.03356
6.0382
6.03257
6.0339
6.03469
6.03127
6.04137
6.03071
6.05532
6.03255
6.08186
6.03613
6.13278
6.0336
6.23626
5.95863
6.25966
7.17852
6.30277
8.06
6.55688
10.1245
9.13389
9.00841
8.98328
8.97789
)
;
    }
    F1_2
    {
        type            calculated;
        value           nonuniform List<scalar> 
80
(
-19.3819
-7.9042
-12.49
-7.04244
-9.8023
-6.15137
-8.073
-5.33803
-6.76748
-4.70703
-5.70769
-4.45532
-5.26541
-3.83681
-4.65454
-3.31386
-4.06758
-2.86544
-3.53658
-2.47865
-3.06746
-2.14425
-2.65768
-1.8544
-2.30248
-1.60103
-1.99994
-1.37296
-1.77601
-1.26014
-0.836743
-1.15466
-0.749804
-0.971602
-0.644807
-0.823897
-0.551167
-0.701067
-0.470536
-0.597381
-0.401695
-0.509317
-0.343235
-0.43432
-0.294081
-0.37035
-0.253831