/*--------------------------------*- C++ -*----------------------------------*\
| =========                 |                                                 |
| \\      /  F ield         | OpenFOAM: The Open Source CFD Toolbox           |
|  \\    /   O peration     | Version:  5.x                                   |
|   \\  /    A nd           | Web:      www.OpenFOAM.org                      |
|    \\/     M anipulation  |                                                 |
\*---------------------------------------------------------------------------*/
FoamFile
{
    version     2.0;
    format      ascii;
    class       volScalarField;
    location    "6";
    object      T;
}
// * * * * * * * * * * * * * * * * * * * * * * * * * * * * * * * * * * * * * //

dimensions      [0 0 0 1 0 0 0];

internalField   nonuniform List<scalar> 
3200
(
2.08492
2.43608
2.45611
2.60096
2.61013
2.68246
2.68727
2.72913
2.732
2.75851
2.76027
2.7756
2.77694
2.79367
2.79503
2.81098
2.81226
2.82693
2.8281
2.84136
2.84241
2.85425
2.85518
2.86563
2.86645
2.87566
2.87639
2.88467
2.88541
2.89418
2.90189
2.90244
2.90741
2.90778
2.91158
2.91187
2.91491
2.91514
2.91761
2.9178
2.91981
2.91996
2.9216
2.92173
2.92305
2.92315
2.9242
2.92428
2.92506
2.92511
2.92558
2.92562
2.92609
2.92612
2.92648
2.92651
2.9267
2.92671
2.92668
2.92666
2.92629
2.92624
2.92534
2.92523
2.92342
2.92319
2.9196
2.91911
2.9112
2.90981
2.88732
2.84807
2.84369
2.77989
2.77238
2.65305
2.6481
2.64747
2.64734
2.64732
2.26039
2.52907
2.57092
2.6868
2.70637
2.76421
2.77448
2.80784
2.81395
2.83502
2.83877
2.85105
2.85392
2.86715
2.87004
2.88267
2.88538
2.89701
2.89948
2.90999
2.91221
2.92159
2.92357
2.93185
2.93359
2.94089
2.94245
2.94904
2.95061
2.95788
2.96435
2.96554
2.96951
2.9703
2.97331
2.97392
2.97633
2.97682
2.97878
2.97918
2.98078
2.9811
2.9824
2.98266
2.98371
2.98392
2.98475
2.98491
2.98553
2.98564
2.98602
2.9861
2.98647
2.98655
2.98683
2.98688
2.98704
2.98705
2.98702
2.98699
2.98669
2.98658
2.98586
2.98562
2.98418
2.98369
2.98081
2.97974
2.9733
2.97024
2.95059
2.91846
2.9091
2.85824
2.84242
2.74972
2.73926
2.73753
2.73717
2.73709
2.42512
2.63113
2.68277
2.7765
2.80108
2.84786
2.86076
2.88764
2.8953
2.91222
2.91692
2.92689
2.93048
2.94105
2.94466
2.95476
2.95815
2.96745
2.97054
2.97895
2.98173
2.98924
2.9917
2.99834
3.00051
3.00636
3.0083
3.0136
3.01558
3.0216
3.02702
3.02853
3.03174
3.03272
3.03514
3.0359
3.03783
3.03845
3.04001
3.04051
3.04179
3.04219
3.04323
3.04356
3.0444
3.04467
3.04533
3.04553
3.04603
3.04617
3.04647
3.04658
3.04687
3.04696
3.04719
3.04725
3.04738
3.04739
3.04737
3.04732
3.04708
3.04694
3.04636
3.04606
3.0449
3.04428
3.04194
3.04059
3.03527
3.03134
3.01436
2.98794
2.97616
2.93519
2.91554
2.8431
2.83008
2.82754
2.82699
2.82687
2.5816
2.73936
2.79293
2.86896
2.89491
2.93288
2.94648
2.96822
2.97628
2.98991
2.99487
3.00298
3.00676
3.01523
3.01902
3.02712
3.03068
3.03814
3.04139
3.04814
3.05105
3.05708
3.05967
3.065
3.06728
3.07198
3.07402
3.0783
3.08039
3.08535
3.08985
3.09145
3.09405
3.09509
3.09703
3.09783
3.09939
3.10003
3.10129
3.10181
3.10284
3.10326
3.1041
3.10444
3.10512
3.1054
3.10593
3.10614
3.10654
3.10668
3.10693
3.10704
3.10728
3.10737
3.10756
3.10762
3.10772
3.10774
3.10772
3.10767
3.10747
3.10732
3.10686
3.10654
3.10559
3.10494
3.10303
3.10159
3.09718
3.09295
3.0785
3.05684
3.04439
3.01129
2.99076
2.9341
2.92048
2.91747
2.91679
2.91664
2.73178
2.85176
2.9022
2.96342
2.98825
3.01886
3.03187
3.04934
3.05704
3.06795
3.07268
3.07924
3.08285
3.0896
3.0932
3.09967
3.10305
3.109
3.11209
3.11748
3.12026
3.12506
3.12753
3.13178
3.13396
3.13771
3.13966
3.14308
3.14509
3.14912
3.15279
3.15434
3.15643
3.15742
3.15897
3.15974
3.16098
3.16159
3.16259
3.16309
3.16391
3.16432
3.16498
3.16531
3.16585
3.16611
3.16654
3.16674
3.16706
3.1672
3.1674
3.1675
3.16769
3.16778
3.16793
3.16799
3.16806
3.16808
3.16806
3.16802
3.16786
3.16772
3.16734
3.16704
3.16628
3.16565
3.16411
3.16272
3.15908
3.15498
3.14293
3.12536
3.11345
3.08688
3.06744
3.02339
3.01045
3.00731
3.00657
3.0064
2.87716
2.96694
3.01103
3.05934
3.08136
3.10555
3.11709
3.13084
3.13766
3.14623
3.15043
3.15562
3.15882
3.1641
3.16728
3.17233
3.17532
3.17998
3.18271
3.18692
3.18938
3.19314
3.19532
3.19864
3.20057
3.20351
3.20523
3.20792
3.2097
3.2129
3.21583
3.2172
3.21885
3.21972
3.22095
3.22162
3.22259
3.22313
3.22392
3.22436
3.225
3.22536
3.22588
3.22617
3.22659
3.22683
3.22716
3.22734
3.22759
3.22771
3.22787
3.22796
3.22811
3.22819
3.2283
3.22835
3.22841
3.22843
3.22841
3.22837
3.22825
3.22812
3.22783
3.22755
3.22695
3.2264
3.22517
3.22394
3.22101
3.21732
3.20758
3.19366
3.18309
3.16218
3.14509
3.11142
3.10003
3.09705
3.09632
3.09616
3.01894
3.08395
3.1197
3.15631
3.17438
3.19275
3.20222
3.21263
3.21822
3.22469
3.22813
3.23208
3.2347
3.23867
3.24127
3.24508
3.24752
3.25103
3.25326
3.25644
3.25844
3.26128
3.26306
3.26557
3.26714
3.26935
3.27077
3.2728
3.27426
3.27669
3.27892
3.28005
3.2813
3.28202
3.28294
3.28349
3.28422
3.28467
3.28526
3.28562
3.2861
3.2864
3.28679
3.28703
3.28734
3.28753
3.28779
3.28793
3.28812
3.28822
3.28834
3.28841
3.28852
3.28859
3.28868
3.28872
3.28876
3.28878
3.28877
3.28873
3.28864
3.28853
3.28831
3.28809
3.28763
3.28718
3.28624
3.28522
3.28296
3.27991
3.2724
3.26182
3.25315
3.23734
3.22342
3.19857
3.18927
3.1867
3.18606
3.18591
3.15813
3.20213
3.22833
3.25402
3.26739
3.2803
3.28731
3.29461
3.29874
3.30327
3.30582
3.3086
3.31054
3.3133
3.31522
3.31788
3.31968
3.32213
3.32378
3.326
3.32748
3.32946
3.33077
3.33252
3.33369
3.33523
3.33628
3.3377
3.33878
3.34049
3.34206
3.34289
3.34377
3.3443
3.34495
3.34535
3.34587
3.34619
3.34661
3.34687
3.34721
3.34743
3.3477
3.34788
3.3481
3.34824
3.34842
3.34852
3.34865
3.34873
3.34881
3.34887
3.34894
3.34899
3.34905
3.34908
3.34912
3.34913
3.34912
3.34909
3.34903
3.34895
3.34879
3.34863
3.34831
3.34797
3.34731
3.34655
3.34494
3.34267
3.33735
3.32991
3.3235
3.31241
3.30217
3.2851
3.27825
3.27627
3.27577
3.27566
3.29556
3.32103
3.33698
3.35222
3.36042
3.36809
3.37239
3.37672
3.37925
3.38193
3.38349
3.38515
3.38633
3.38797
3.38915
3.39072
3.39182
3.39327
3.39428
3.39559
3.39649
3.39766
3.39847
3.39951
3.40022
3.40113
3.40177
3.40262
3.40328
3.40429
3.40522
3.40574
3.40626
3.40658
3.40696
3.40721
3.40752
3.40772
3.40796
3.40812
3.40832
3.40846
3.40862
3.40873
3.40886
3.40894
3.40905
3.40911
3.40919
3.40924
3.40929
3.40932
3.40937
3.4094
3.40943
3.40945
3.40947
3.40947
3.40947
3.40945
3.40942
3.40937
3.40928
3.40917
3.40898
3.40878
3.40838
3.40792
3.40695
3.40555
3.40238
3.39796
3.39403
3.38746
3.3812
3.37121
3.36703
3.36579
3.36547
3.3654
3.43196
3.4403
3.44565
3.45071
3.45347
3.45602
3.45746
3.4589
3.45975
3.46064
3.46116
3.46171
3.46211
3.46265
3.46305
3.46357
3.46394
3.46442
3.46476
3.46519
3.4655
3.46589
3.46616
3.4665
3.46674
3.46704
3.46726
3.46754
3.46776
3.4681
3.46841
3.46858
3.46875
3.46886
3.46899
3.46907
3.46917
3.46924
3.46932
3.46938
3.46944
3.46949
3.46954
3.46958
3.46962
3.46965
3.46968
3.4697
3.46973
3.46975
3.46976
3.46977
3.46979
3.4698
3.46981
3.46982
3.46982
3.46982
3.46982
3.46982
3.46981
3.46979
3.46976
3.46972
3.46966
3.46959
3.46946
3.4693
3.46898
3.46851
3.46745
3.46599
3.46466
3.46249
3.46039
3.4571
3.45569
3.45527
3.45516
3.45513
3.4313
3.44021
3.44638
3.45305
3.45713
3.46157
3.4644
3.46764
3.46973
3.47213
3.47361
3.47523
3.47643
3.47806
3.47925
3.4808
3.4819
3.48329
3.48427
3.48551
3.48636
3.48744
3.48819
3.48913
3.48979
3.49061
3.4912
3.49196
3.49258
3.49352
3.49439
3.49489
3.4954
3.49573
3.49611
3.49638
3.4967
3.49692
3.49719
3.49737
3.4976
3.49776
3.49795
3.49808
3.49825
3.49836
3.49849
3.49858
3.49869
3.49876
3.49883
3.49889
3.49896
3.49902
3.49909
3.49914
3.49921
3.49925
3.49931
3.49935
3.4994
3.49944
3.49948
3.49951
3.49954
3.49956
3.49957
3.49955
3.49948
3.49931
3.49885
3.49813
3.49735
3.49592
3.4944
3.49187
3.49079
3.49047
3.49038
3.49036
3.29353
3.32073
3.33913
3.35925
3.37138
3.38477
3.39318
3.40298
3.40919
3.41643
3.42082
3.42571
3.42927
3.4342
3.43773
3.44241
3.44567
3.4499
3.4528
3.45653
3.45908
3.46234
3.46457
3.46741
3.46935
3.47184
3.47359
3.4759
3.47773
3.48055
3.48319
3.48466
3.4862
3.48717
3.48835
3.48913
3.49009
3.49074
3.49156
3.49211
3.4928
3.49327
3.49386
3.49425
3.49475
3.49508
3.49549
3.49575
3.49607
3.49627
3.49649
3.49666
3.49689
3.49705
3.49727
3.49742
3.49762
3.49776
3.49793
3.49805
3.49821
3.49831
3.49844
3.49852
3.49862
3.49867
3.4987
3.49865
3.49844
3.49793
3.49658
3.49438
3.49207
3.48776
3.48323
3.47557
3.47234
3.47139
3.47114
3.47108
3.15468
3.2016
3.23181
3.26577
3.28557
3.30818
3.32191
3.33845
3.3486
3.36084
3.36801
3.37625
3.38205
3.3904
3.39617
3.40409
3.40941
3.41656
3.4213
3.42761
3.43178
3.43728
3.44092
3.44572
3.4489
3.45311
3.45596
3.45986
3.46284
3.46759
3.47203
3.47443
3.47702
3.47861
3.48059
3.48187
3.4835
3.48457
3.48595
3.48685
3.48801
3.48878
3.48977
3.49041
3.49125
3.49179
3.49248
3.49292
3.49346
3.49378
3.49416
3.49443
3.49481
3.49508
3.49545
3.4957
3.49604
3.49626
3.49656
3.49676
3.49701
3.49718
3.4974
3.49754
3.4977
3.49779
3.49784
3.49776
3.49741
3.49658
3.49433
3.49064
3.48686
3.47961
3.47219
3.45908
3.4538
3.45228
3.45189
3.4518
3.01394
3.08314
3.12434
3.17285
3.19965
3.23193
3.25052
3.27418
3.28793
3.30546
3.31516
3.32688
3.33473
3.3467
3.35452
3.36586
3.37308
3.38331
3.38974
3.39877
3.40441
3.4123
3.41723
3.42409
3.4284
3.43442
3.43828
3.44385
3.44788
3.45464
3.46095
3.4642
3.46788
3.47004
3.47287
3.4746
3.47694
3.47838
3.48035
3.48157
3.48324
3.48428
3.48569
3.48657
3.48777
3.4885
3.48949
3.49008
3.49086
3.49129
3.49183
3.49219
3.49275
3.49311
3.49364
3.49398
3.49446
3.49476
3.49519
3.49545
3.49582
3.49605
3.49637
3.49655
3.49679
3.4969
3.49698
3.49687
3.49639
3.4953
3.49214
3.4869
3.4818
3.47147
3.46137
3.44228
3.43511
3.43312
3.43263
3.43251
2.87045
2.9658
3.01657
3.08081
3.11352
3.15624
3.17894
3.21031
3.22711
3.25039
3.26223
3.27766
3.28725
3.30317
3.31272
3.3278
3.33663
3.35021
3.35808
3.37006
3.37696
3.38743
3.39345
3.40257
3.40783
3.41583
3.42054
3.4279
3.43281
3.44171
3.45
3.45394
3.4588
3.46144
3.46519
3.4673
3.4704
3.47216
3.47478
3.47627
3.4785
3.47976
3.48164
3.48271
3.4843
3.48519
3.48651
3.48724
3.48827
3.4888
3.48951
3.48995
3.49069
3.49113
3.49184
3.49225
3.49289
3.49326
3.49383
3.49415
3.49464
3.49492
3.49534
3.49556
3.49588
3.49602
3.49613
3.49601
3.49541
3.49409
3.49004
3.48316
3.47695
3.46332
3.45092
3.425
3.41621
3.41391
3.41335
3.41322
2.72313
2.85025
2.90827
2.99002
3.02698
3.08135
3.107
3.14702
3.16602
3.19578
3.20916
3.22868
3.23951
3.25989
3.27071
3.28999
3.29998
3.31734
3.32625
3.34156
3.34937
3.36274
3.36956
3.3812
3.38716
3.39736
3.40269
3.41205
3.41758
3.42881
3.43922
3.44365
3.44982
3.45279
3.45758
3.45996
3.46393
3.46592
3.46926
3.47095
3.47379
3.47522
3.47762
3.47883
3.48086
3.48188
3.48356
3.48438
3.4857
3.4863
3.48719
3.48769
3.48864
3.48914
3.49004
3.49051
3.49133
3.49175
3.49247
3.49284
3.49347
3.49378
3.49431
3.49457
3.49498
3.49514
3.49529
3.49516
3.49445
3.493
3.48804
3.47938
3.47239
3.45512
3.441
3.40704
3.39705
3.39463
3.39406
3.39393
2.57073
2.73746
2.79901
2.90103
2.93974
3.0076
3.03449
3.08458
3.10451
3.14182
3.15584
3.18004
3.1914
3.217
3.22836
3.25256
3.26304
3.28482
3.29416
3.31335
3.32155
3.33831
3.34547
3.36006
3.36631
3.3791
3.38467
3.39635
3.40213
3.41593
3.42868
3.43329
3.44096
3.44407
3.45006
3.45256
3.45753
3.45962
3.46381
3.46558
3.46914
3.47063
3.47365
3.47492
3.47747
3.47853
3.48064
3.4815
3.48316
3.48379
3.4849
3.48542
3.48661
3.48714
3.48827
3.48876
3.48979
3.49023
3.49113
3.49152
3.4923
3.49263
3.4933
3.49357
3.49409
3.49426
3.49447
3.49433
3.49352
3.49204
3.4862
3.47555
3.46825
3.44679
3.43188
3.38812
3.37759
3.37527
3.37475
3.37463
2.41167
2.62887
2.68814
2.81457
2.85134
2.93549
2.96105
3.02334
3.0423
3.08879
3.10211
3.13192
3.14271
3.17467
3.18549
3.21567
3.22565
3.25278
3.26168
3.28559
3.29339
3.31427
3.32108
3.33926
3.3452
3.36111
3.36642
3.38089
3.38635
3.4031
3.41846
3.42281
3.43228
3.43523
3.44268
3.44506
3.45124
3.45323
3.45845
3.46014
3.46457
3.46599
3.46975
3.47096
3.47413
3.47514
3.47777
3.47859
3.48066
3.48126
3.48262
3.48312
3.4846
3.48511
3.48652
3.48699
3.48826
3.48868
3.48981
3.49018
3.49116
3.49147
3.49231
3.49256
3.49321
3.49337
3.49365
3.49353
3.49262
3.49126
3.48455
3.47157
3.46467
3.4382
3.42391
3.36787
3.3578
3.35584
3.35542
3.35532
2.24391
2.5266
2.57458
2.7317
2.76104
2.86573
2.88614
2.96383
2.97899
3.03709
3.04773
3.08456
3.09317
3.13319
3.14185
3.17958
3.18757
3.22148
3.2286
3.25847
3.26471
3.29079
3.29624
3.31894
3.32369
3.34356
3.34779
3.36579
3.37012
3.39033
3.40869
3.41212
3.42386
3.42622
3.43551
3.43741
3.44513
3.44672
3.45324
3.45458
3.46012
3.46126
3.46595
3.46692
3.47088
3.47169
3.47497
3.47563
3.47822
3.4787
3.48038
3.48078
3.48264
3.48304
3.48481
3.48518
3.48678
3.48711
3.48852
3.48881
3.49004
3.49029
3.49133
3.49154
3.49235
3.49248
3.49285
3.49277
3.49174
3.4907
3.48315
3.46736
3.46187
3.42913
3.41761
3.34578
3.33769
3.33636
3.33608
3.33602
2.06485
2.43372
2.45665
2.65393
2.66773
2.79934
2.80894
2.90682
2.91396
2.98729
2.99229
3.03833
3.04238
3.09296
3.09705
3.14469
3.14846
3.19125
3.1946
3.23229
3.23523
3.26813
3.2707
3.29934
3.30158
3.32662
3.32862
3.35124
3.35325
3.37763
3.39951
3.4011
3.41582
3.41693
3.42863
3.42952
3.43926
3.44001
3.44823
3.44886
3.45584
3.45638
3.4623
3.46275
3.46775
3.46813
3.47228
3.47259
3.47586
3.47609
3.47819
3.47838
3.48073
3.48092
3.48315
3.48333
3.48534
3.4855
3.48727
3.48741
3.48896
3.48908
3.49039
3.49049
3.49152
3.49159
3.49207
3.49204
3.49085
3.49039
3.48207
3.46273
3.46017
3.4192
3.41373
3.32114
3.31731
3.31682
3.31673
3.31671
2.06485
2.43372
2.45665
2.65393
2.66773
2.79933
2.80894
2.90682
2.91396
2.98729
2.99229
3.03833
3.04238
3.09296
3.09705
3.14469
3.14846
3.19125
3.1946
3.23229
3.23523
3.26813
3.2707
3.29934
3.30158
3.32662
3.32862
3.35124
3.35325
3.37763
3.39951
3.4011
3.41582
3.41693
3.42863
3.42952
3.43926
3.44001
3.44823
3.44886
3.45584
3.45638
3.4623
3.46275
3.46775
3.46813
3.47228
3.47259
3.47586
3.47609
3.47819
3.47838
3.48073
3.48092
3.48315
3.48333
3.48534
3.4855
3.48727
3.48741
3.48896
3.48908
3.49039
3.49049
3.49152
3.49158
3.49207
3.49204
3.49085
3.49039
3.48207
3.46273
3.46017
3.4192
3.41373
3.32115
3.31731
3.31683
3.31673
3.31671
2.24391
2.5266
2.57458
2.7317
2.76104
2.86573
2.88614
2.96382
2.97899
3.03709
3.04772
3.08456
3.09317
3.13319
3.14185
3.17958
3.18757
3.22148
3.2286
3.25847
3.26471
3.29079
3.29623
3.31894
3.32369
3.34356
3.34779
3.36579
3.37012
3.39033
3.40869
3.41212
3.42386
3.42622
3.43551
3.43741
3.44513
3.44672
3.45324
3.45458
3.46012
3.46126
3.46595
3.46692
3.47088
3.47169
3.47497
3.47563
3.47822
3.4787
3.48038
3.48078
3.48264
3.48304
3.48481
3.48518
3.48678
3.48711
3.48852
3.48881
3.49004
3.49029
3.49133
3.49154
3.49235
3.49248
3.49285
3.49277
3.49174
3.4907
3.48315
3.46736
3.46187
3.42913
3.41762
3.34578
3.33769
3.33636
3.33608
3.33602
2.41167
2.62887
2.68814
2.81457
2.85134
2.93549
2.96105
3.02333
3.0423
3.08879
3.10211
3.13192
3.14271
3.17467
3.18549
3.21566
3.22565
3.25278
3.26168
3.28559
3.29339
3.31427
3.32108
3.33926
3.3452
3.36111
3.36642
3.38089
3.38635
3.4031
3.41846
3.42281
3.43228
3.43523
3.44268
3.44506
3.45124
3.45323
3.45845
3.46014
3.46457
3.46599
3.46975
3.47096
3.47413
3.47514
3.47777
3.47859
3.48066
3.48126
3.48262
3.48312
3.4846
3.48511
3.48652
3.48699
3.48826
3.48868
3.48981
3.49018
3.49116
3.49147
3.49231
3.49256
3.49321
3.49337
3.49365
3.49353
3.49262
3.49126
3.48455
3.47157
3.46467
3.4382
3.42391
3.36787
3.35781
3.35585
3.35542
3.35533
2.57073
2.73746
2.79901
2.90103
2.93974
3.0076
3.03449
3.08458
3.10451
3.14182
3.15584
3.18004
3.19139
3.217
3.22836
3.25255
3.26304
3.28482
3.29416
3.31335
3.32155
3.33831
3.34547
3.36006
3.36631
3.37909
3.38467
3.39635
3.40213
3.41593
3.42868
3.43329
3.44096
3.44407
3.45006
3.45256
3.45753
3.45962
3.46381
3.46558
3.46914
3.47063
3.47365
3.47492
3.47747
3.47853
3.48064
3.4815
3.48316
3.48379
3.4849
3.48542
3.48661
3.48714
3.48827
3.48876
3.48979
3.49023
3.49113
3.49152
3.4923
3.49263
3.4933
3.49357
3.49409
3.49426
3.49447
3.49433
3.49352
3.49204
3.4862
3.47555
3.46825
3.44679
3.43188
3.38812
3.37759
3.37527
3.37475
3.37463
2.72313
2.85025
2.90827
2.99002
3.02698
3.08135
3.107
3.14702
3.16602
3.19578
3.20916
3.22868
3.23951
3.25989
3.27071
3.28999
3.29998
3.31734
3.32625
3.34156
3.34937
3.36274
3.36956
3.3812
3.38716
3.39736
3.40269
3.41205
3.41758
3.42881
3.43922
3.44365
3.44982
3.45279
3.45758
3.45996
3.46393
3.46592
3.46926
3.47095
3.47379
3.47522
3.47762
3.47883
3.48086
3.48188
3.48356
3.48438
3.4857
3.4863
3.48719
3.48769
3.48864
3.48914
3.49004
3.49051
3.49133
3.49175
3.49247
3.49284
3.49347
3.49378
3.49431
3.49457
3.49498
3.49514
3.49529
3.49516
3.49445
3.493
3.48804
3.47938
3.47239
3.45512
3.441
3.40704
3.39705
3.39463
3.39406
3.39393
2.87045
2.9658
3.01657
3.08081
3.11351
3.15624
3.17894
3.21031
3.22711
3.25039
3.26223
3.27766
3.28725
3.30317
3.31272
3.3278
3.33663
3.35021
3.35808
3.37006
3.37696
3.38743
3.39345
3.40257
3.40783
3.41583
3.42054
3.4279
3.43281
3.44171
3.45
3.45394
3.4588
3.46144
3.46519
3.4673
3.4704
3.47216
3.47478
3.47627
3.4785
3.47976
3.48164
3.48271
3.4843
3.48519
3.48651
3.48724
3.48827
3.4888
3.48951
3.48995
3.49069
3.49113
3.49184
3.49225
3.49289
3.49326
3.49382
3.49415
3.49464
3.49492
3.49534
3.49556
3.49588
3.49602
3.49613
3.49601
3.49541
3.49409
3.49004
3.48316
3.47695
3.46332
3.45092
3.425
3.41621
3.41391
3.41335
3.41323
3.01394
3.08314
3.12434
3.17285
3.19965
3.23193
3.25052
3.27418
3.28793
3.30546
3.31516
3.32688
3.33473
3.3467
3.35452
3.36586
3.37308
3.38331
3.38974
3.39877
3.40441
3.4123
3.41723
3.42409
3.4284
3.43442
3.43828
3.44385
3.44788
3.45464
3.46095
3.4642
3.46788
3.47004
3.47287
3.4746
3.47694
3.47838
3.48035
3.48157
3.48324
3.48428
3.48569
3.48657
3.48777
3.4885
3.48949
3.49008
3.49086
3.49129
3.49183
3.49219
3.49275
3.49311
3.49364
3.49398
3.49446
3.49476
3.49519
3.49545
3.49582
3.49605
3.49637
3.49655
3.49679
3.4969
3.49698
3.49687
3.49639
3.4953
3.49214
3.4869
3.4818
3.47147
3.46137
3.44228
3.43511
3.43313
3.43263
3.43252
3.15468
3.2016
3.23181
3.26577
3.28557
3.30818
3.32191
3.33845
3.3486
3.36084
3.36801
3.37625
3.38205
3.3904
3.39617
3.40409
3.40941
3.41655
3.4213
3.42761
3.43178
3.43728
3.44092
3.44572
3.4489
3.45311
3.45596
3.45986
3.46284
3.46759
3.47203
3.47443
3.47702
3.47861
3.48059
3.48187
3.4835
3.48457
3.48595
3.48684
3.48801
3.48878
3.48977
3.49041
3.49125
3.49179
3.49248
3.49292
3.49346
3.49378
3.49416
3.49443
3.49481
3.49508
3.49545
3.4957
3.49604
3.49626
3.49656
3.49676
3.49701
3.49718
3.4974
3.49754
3.4977
3.49779
3.49784
3.49776
3.49741
3.49658
3.49433
3.49064
3.48686
3.47961
3.47219
3.45908
3.4538
3.45228
3.45189
3.4518
3.29353
3.32073
3.33913
3.35925
3.37138
3.38477
3.39318
3.40298
3.40919
3.41643
3.42082
3.42571
3.42927
3.4342
3.43773
3.44241
3.44567
3.4499
3.4528
3.45653
3.45908
3.46234
3.46457
3.46741
3.46935
3.47184
3.47359
3.4759
3.47773
3.48055
3.48319
3.48466
3.4862
3.48717
3.48835
3.48913
3.49009
3.49074
3.49156
3.49211
3.4928
3.49327
3.49386
3.49425
3.49475
3.49508
3.49549
3.49575
3.49607
3.49627
3.49649
3.49666
3.49689
3.49705
3.49727
3.49742
3.49762
3.49776
3.49793
3.49805
3.49821
3.49831
3.49844
3.49852
3.49862
3.49867
3.4987
3.49865
3.49844
3.49793
3.49658
3.49438
3.49207
3.48776
3.48323
3.47557
3.47234
3.47139
3.47114
3.47108
3.4313
3.44021
3.44638
3.45305
3.45713
3.46157
3.4644
3.46764
3.46973
3.47213
3.47361
3.47523
3.47643
3.47806
3.47925
3.4808
3.4819
3.48329
3.48427
3.48551
3.48636
3.48744
3.48819
3.48913
3.48979
3.49061
3.4912
3.49196
3.49258
3.49352
3.49439
3.49489
3.4954
3.49573
3.49611
3.49638
3.4967
3.49692
3.49719
3.49737
3.4976
3.49776
3.49795
3.49808
3.49825
3.49836
3.49849
3.49858
3.49869
3.49876
3.49883
3.49889
3.49896
3.49902
3.49909
3.49914
3.49921
3.49925
3.49931
3.49935
3.4994
3.49944
3.49948
3.49951
3.49954
3.49956
3.49957
3.49955
3.49948
3.49931
3.49885
3.49813
3.49735
3.49592
3.4944
3.49187
3.49079
3.49047
3.49038
3.49036
3.43195
3.44028
3.44562
3.45066
3.4534
3.4559
3.4573
3.45865
3.45941
3.46015
3.46067
3.46135
3.46183
3.46245
3.46289
3.46344
3.46384
3.46434
3.46469
3.46514
3.46545
3.46584
3.46612
3.46647
3.46671
3.46702
3.46723
3.46752
3.46774
3.46808
3.46839
3.46857
3.46874
3.46885
3.46898
3.46907
3.46917
3.46923
3.46932
3.46937
3.46944
3.46948
3.46954
3.46957
3.46962
3.46965
3.46968
3.4697
3.46973
3.46974
3.46976
3.46977
3.46979
3.4698
3.46981
3.46982
3.46982
3.46982
3.46982
3.46982
3.4698
3.46979
3.46976
3.46972
3.46966
3.46959
3.46946
3.4693
3.46898
3.46851
3.46745
3.46599
3.46466
3.46249
3.46039
3.4571
3.45569
3.45527
3.45516
3.45513
3.2955
3.32095
3.33687
3.35207
3.3602
3.36775
3.37191
3.37598
3.37823
3.38047
3.382
3.38404
3.38548
3.38735
3.38865
3.39034
3.39151
3.39302
3.39407
3.39541
3.39634
3.39754
3.39836
3.39941
3.40013
3.40106
3.4017
3.40256
3.40323
3.40425
3.40519
3.4057
3.40623
3.40656
3.40694
3.40719
3.4075
3.4077
3.40795
3.40811
3.40831
3.40845
3.40861
3.40872
3.40885
3.40894
3.40904
3.40911
3.40919
3.40923
3.40928
3.40932
3.40936
3.40939
3.40943
3.40945
3.40947
3.40947
3.40947
3.40945
3.40941
3.40937
3.40927
3.40917
3.40898
3.40878
3.40838
3.40792
3.40695
3.40555
3.40238
3.39796
3.39403
3.38746
3.3812
3.37121
3.36703
3.36579
3.36547
3.36539
3.15804
3.20201
3.22816
3.25376
3.26703
3.27974
3.28652
3.29338
3.29706
3.30081
3.30332
3.30677
3.30911
3.31227
3.3144
3.31725
3.31916
3.32172
3.32343
3.32571
3.32722
3.32924
3.33058
3.33236
3.33354
3.3351
3.33616
3.3376
3.33869
3.34041
3.342
3.34284
3.34373
3.34426
3.34491
3.34532
3.34584
3.34617
3.34658
3.34685
3.34719
3.34741
3.34769
3.34786
3.34809
3.34823
3.34841
3.34851
3.34865
3.34872
3.3488
3.34886
3.34894
3.34899
3.34905
3.34908
3.34911
3.34912
3.34911
3.34909
3.34902
3.34895
3.34879
3.34862
3.3483
3.34797
3.34731
3.34655
3.34494
3.34267
3.33735
3.32991
3.3235
3.31241
3.30217
3.2851
3.27825
3.27627
3.27577
3.27565
3.01883
3.08378
3.11946
3.15594
3.17387
3.19196
3.20113
3.21091
3.21588
3.2212
3.22459
3.22953
3.2327
3.23724
3.24012
3.24421
3.2468
3.25046
3.25277
3.25603
3.25809
3.26098
3.26279
3.26534
3.26693
3.26917
3.2706
3.27266
3.27414
3.27658
3.27884
3.27997
3.28124
3.28196
3.28289
3.28344
3.28418
3.28463
3.28523
3.28559
3.28608
3.28637
3.28677
3.28701
3.28733
3.28752
3.28777
3.28792
3.28811
3.28821
3.28833
3.2884
3.28852
3.28858
3.28867
3.28871
3.28876
3.28877
3.28876
3.28873
3.28863
3.28853
3.28831
3.28808
3.28763
3.28717
3.28624
3.28522
3.28296
3.2799
3.2724
3.26182
3.25315
3.23733
3.22341
3.19857
3.18927
3.1867
3.18606
3.18591
2.87701
2.96672
3.01073
3.05886
3.08072
3.10454
3.11571
3.12864
3.13469
3.14167
3.1458
3.15237
3.15625
3.16227
3.1658
3.17122
3.17438
3.17924
3.18207
3.1864
3.18892
3.19275
3.19497
3.19835
3.2003
3.20328
3.20502
3.20774
3.20954
3.21276
3.21572
3.2171
3.21877
3.21965
3.22088
3.22156
3.22254
3.22308
3.22388
3.22432
3.22497
3.22533
3.22585
3.22615
3.22657
3.22681
3.22714
3.22732
3.22757
3.2277
3.22785
3.22795
3.22809
3.22818
3.22829
3.22834
3.22841
3.22842
3.22841
3.22837
3.22825
3.22812
3.22782
3.22755
3.22695
3.2264
3.22517
3.22393
3.221
3.21732
3.20758
3.19366
3.18309
3.16218
3.14509
3.11142
3.10003
3.09705
3.09632
3.09616
2.7316
2.85149
2.90184
2.96284
2.98748
3.01762
3.03022
3.04663
3.05346
3.06226
3.06692
3.07532
3.07971
3.08741
3.09139
3.09832
3.1019
3.10811
3.11131
3.11685
3.11969
3.1246
3.12711
3.13142
3.13363
3.13743
3.1394
3.14286
3.14489
3.14895
3.15267
3.15422
3.15633
3.15733
3.1589
3.15966
3.16091
3.16153
3.16254
3.16305
3.16387
3.16428
3.16495
3.16528
3.16582
3.16609
3.16652
3.16672
3.16704
3.16718
3.16738
3.16749
3.16768
3.16777
3.16791
3.16798
3.16806
3.16807
3.16806
3.16801
3.16786
3.16771
3.16734
3.16703
3.16627
3.16565
3.1641
3.16272
3.15908
3.15498
3.14293
3.12536
3.11345
3.08688
3.06744
3.02339
3.01045
3.00731
3.00657
3.0064
2.5814
2.73904
2.79252
2.86827
2.89403
2.93141
2.94458
2.96502
2.97215
2.98301
2.98789
2.99842
3.00303
3.01269
3.01687
3.02556
3.02932
3.0371
3.04046
3.0474
3.05039
3.05653
3.05917
3.06458
3.0669
3.07165
3.07372
3.07804
3.08015
3.08516
3.0897
3.09132
3.09394
3.09498
3.09694
3.09775
3.09931
3.09996
3.10123
3.10176
3.10279
3.10322
3.10406
3.10441
3.10509
3.10537
3.1059
3.10612
3.10652
3.10666
3.10691
3.10702
3.10726
3.10736
3.10754
3.10761
3.10771
3.10773
3.10771
3.10766
3.10747
3.10732
3.10685
3.10653
3.10559
3.10494
3.10303
3.10159
3.09718
3.09295
3.0785
3.05683
3.04439
3.01128
2.99076
2.9341
2.92048
2.91747
2.91679
2.91664
2.4249
2.63076
2.68231
2.7757
2.80011
2.84616
2.85865
2.88393
2.89069
2.904
2.90863
2.92177
2.92615
2.93819
2.94217
2.953
2.95657
2.96627
2.96947
2.97811
2.98096
2.98861
2.99112
2.99786
3.00006
3.00598
3.00795
3.01331
3.0153
3.02138
3.02685
3.02837
3.03161
3.0326
3.03504
3.0358
3.03775
3.03837
3.03995
3.04045
3.04173
3.04214
3.04319
3.04352
3.04437
3.04463
3.0453
3.04551
3.046
3.04614
3.04645
3.04655
3.04685
3.04694
3.04717
3.04724
3.04736
3.04738
3.04736
3.04731
3.04708
3.04693
3.04636
3.04605
3.04489
3.04428
3.04194
3.04058
3.03527
3.03133
3.01435
2.98794
2.97616
2.93519
2.91553
2.8431
2.83008
2.82754
2.82699
2.82687
2.26016
2.52864
2.57043
2.68589
2.70532
2.76226
2.7722
2.80358
2.80896
2.82534
2.82903
2.84546
2.84897
2.86401
2.8672
2.88072
2.88358
2.8957
2.89826
2.90906
2.91133
2.9209
2.9229
2.93132
2.93308
2.94047
2.94205
2.94871
2.95029
2.95763
2.96416
2.96536
2.96937
2.97016
2.9732
2.97381
2.97624
2.97673
2.97871
2.97911
2.98071
2.98104
2.98235
2.98261
2.98367
2.98388
2.98472
2.98488
2.9855
2.98562
2.98599
2.98608
2.98645
2.98653
2.98681
2.98686
2.98702
2.98704
2.98701
2.98697
2.98668
2.98657
2.98585
2.98561
2.98417
2.98368
2.9808
2.97974
2.9733
2.97024
2.95059
2.91846
2.90909
2.85824
2.84242
2.74972
2.73926
2.73753
2.73717
2.73709
2.08468
2.4356
2.4556
2.59993
2.60903
2.68024
2.6849
2.72428
2.7268
2.74718
2.74891
2.76967
2.77133
2.79031
2.79181
2.80887
2.81022
2.82551
2.82671
2.84034
2.84141
2.85348
2.85443
2.86505
2.86588
2.8752
2.87594
2.88431
2.88505
2.89391
2.90168
2.90224
2.90725
2.90763
2.91146
2.91174
2.91481
2.91504
2.91753
2.91772
2.91974
2.9199
2.92155
2.92167
2.92301
2.92311
2.92416
2.92424
2.92503
2.92508
2.92555
2.92559
2.92606
2.9261
2.92646
2.92649
2.92669
2.92669
2.92666
2.92665
2.92628
2.92623
2.92533
2.92522
2.92342
2.92319
2.9196
2.9191
2.9112
2.90981
2.88732
2.84807
2.84369
2.77989
2.77238
2.65305
2.6481
2.64747
2.64734
2.64732
)
;

boundaryField
{
    F1_1
    {
        type            fixedValue;
        value           nonuniform List<scalar> 
80
(
1.99016
2.39621
2.39621
2.56075
2.56075
2.64293
2.64293
2.69055
2.69055
2.72075
2.72075
2.73815
2.73815
2.75723
2.75723
2.77543
2.77543
2.79217
2.79217
2.80729
2.80729
2.82079
2.82079
2.83272
2.83272
2.84321
2.84321
2.85264
2.85264
2.86236
2.8708
2.8708
2.87646
2.87646
2.88079
2.88079
2.88426
2.88426
2.88707
2.88707
2.88937
2.88937
2.89124
2.89124
2.89275
2.89275
2.89394
2.89394
2.89483
2.89483
2.89537
2.89537
2.8959
2.8959
2.89631
2.89631
2.89654
2.89654
2.8965
2.8965
2.89608
2.89608
2.89506
2.89506
2.89301
2.89301
2.88894
2.88894
2.88002
2.88002
2.85602
2.81218
2.81218
2.73959
2.73959
2.60243
2.60243
2.60243
2.60243
2.60243
)
;
    }
    F1_2
    {
        type            fixedValue;
        value           nonuniform List<scalar> 
80
(
1.96793
2.3942
2.3942
2.61872
2.61872
2.76858
2.76858
2.88012
2.88012
2.96375
2.96375
3.01605
3.01605
3.07377
3.07377
3.12812
3.12812
3.17692
3.17692
3.2199
3.2199
3.25741
3.25741
3.29007
3.29007
3.31862
3.31862
3.34437
3.34437
3.37133
3.39532
3.39532
3.41207
3.41207
3.4254
3.4254
3.4365
3.4365
3.44588
3.44588
3.45383
3.45383
3.46058
3.46058
3.46628
3.46628
3.47101
3.47101
3.47474
3.47474
3.47714
3.47714
3.47982
3.47982
3.48236
3.48236
3.48466
3.48466
3.48668
3.48668
3.48845
3.48845
3.48995
3.48995
3.49113
3.49113
3.49169
3.49169
3.4904
3.4904
3.48176
3.46008
3.46008
3.41353
3.41353
3.30705
3.30705
3.30705
3.30705
3.30705
)
;
    }
    F1_3
    {
        type            fixedValue;
        value           nonuniform List<scalar> 
80
(
1.96793
2.3942
2.3942
2.61872
2.61872
2.76858
2.76858
2.88012
2.88012
2.96375
2.96375
3.01605
3.01605
3.07377
3.07377
3.12812
3.12812
3.17692
3.17692
3.21989
3.21989
3.25741
3.25741
3.29007
3.29007
3.31862
3.31862
3.34437
3.34437
3.37133
3.39532
3.39532
3.41207
3.41207
3.4254
3.4254
3.4365
3.4365
3.44588
3.44588
3.45383
3.45383
3.46058
3.46058
3.46628
3.46628
3.47101
3.47101
3.47474
3.47474
3.47714
3.47714
3.47982
3.47982
3.48236
3.48236
3.48466
3.48466
3.48668
3.48668
3.48845
3.48845
3.48995
3.48995
3.49113
3.49113
3.49169
3.49169
3.4904
3.4904
3.48176
3.46008
3.46008
3.41353
3.41353
3.30705
3.30705
3.30705
3.30705
3.30705
)
;
    }
    F1_4
    {
        type            fixedValue;
        value           nonuniform List<scalar> 
80
(
1.98992
2.3957
2.3957
2.55965
2.55965
2.64056
2.64056
2.68536
2.68536
2.70848
2.70848
2.73216
2.73216
2.7538
2.7538
2.77326
2.77326
2.7907
2.7907
2.80624
2.80624
2.82
2.82
2.83211
2.83211
2.84273
2.84273
2.85226
2.85226
2.86207
2.87058
2.87058
2.87629
2.87629
2.88066
2.88066
2.88415
2.88415
2.88699
2.88699
2.8893
2.8893
2.89118
2.89118
2.8927
2.8927
2.8939
2.8939
2.8948
2.8948
2.89534
2.89534
2.89588
2.89588
2.89629
2.89629
2.89652
2.89652
2.89649
2.89649
2.89607
2.89607
2.89505
2.89505
2.89301
2.89301
2.88893
2.88893
2.88001
2.88001
2.85602
2.81218
2.81218
2.73959
2.73959
2.60243
2.60243
2.60243
2.60243
2.60243
)
;
    }
    F2_1
    {
        type            fixedValue;
        value           uniform 3.5;
    }
    F2_2
    {
        type            fixedValue;
        value           uniform 3.5;
    }
    F2_3
    {
        type            fixedValue;
        value           uniform 3.5;
    }
    F2_4
    {
        type            fixedValue;
        value           uniform 3.5;
    }
    defaultFaces
    {
        type            empty;
    }
}


// ************************************************************************* //
