/*--------------------------------*- C++ -*----------------------------------*\
| =========                 |                                                 |
| \\      /  F ield         | OpenFOAM: The Open Source CFD Toolbox           |
|  \\    /   O peration     | Version:  5.x                                   |
|   \\  /    A nd           | Web:      www.OpenFOAM.org                      |
|    \\/     M anipulation  |                                                 |
\*---------------------------------------------------------------------------*/
FoamFile
{
    version     2.0;
    format      ascii;
    class       volScalarField;
    location    "8.4";
    object      gradTx;
}
// * * * * * * * * * * * * * * * * * * * * * * * * * * * * * * * * * * * * * //

dimensions      [0 -1 0 1 0 0 0];

internalField   nonuniform List<scalar> 
2048
(
0.00630506
0.0187347
0.0306392
0.0417209
0.0517507
0.0605795
0.0681367
0.0744202
0.0794797
0.083398
0.0862748
0.0882146
0.0893192
0.0896854
0.0894058
0.0885694
0.087263
0.0855703
0.083569
0.0813275
0.0789018
0.0763324
0.0736443
0.0708476
0.0679399
0.0649094
0.0617364
0.0583953
0.0548553
0.0510806
0.0470308
0.0426623
0.0379301
0.0327894
0.0271985
0.0211198
0.0145209
0.0073758
-0.000335186
-0.00862371
-0.0174913
-0.0269257
-0.0368955
-0.0473434
-0.0581778
-0.0692639
-0.0804145
-0.0913827
-0.101857
-0.111465
-0.119783
-0.12636
-0.130754
-0.13257
-0.131512
-0.127416
-0.120277
-0.110248
-0.0976156
-0.0827651
-0.0661297
-0.0481503
-0.0292469
-0.00980741
0.0187888
0.0558189
0.0912582
0.124208
0.153982
0.180141
0.202484
0.221019
0.235907
0.247408
0.255826
0.261477
0.264662
0.265668
0.264768
0.262223
0.258292
0.253224
0.247251
0.240578
0.233374
0.225757
0.217802
0.209536
0.20095
0.192007
0.182648
0.172797
0.162361
0.151235
0.139299
0.126422
0.112469
0.0973068
0.0808096
0.0628659
0.0433796
0.0222729
-0.000513197
-0.025015
-0.0512402
-0.0791568
-0.108678
-0.13964
-0.171781
-0.204709
-0.237878
-0.27056
-0.301834
-0.330587
-0.35555
-0.375361
-0.388675
-0.394291
-0.391297
-0.379194
-0.357963
-0.328074
-0.290413
-0.246152
-0.196609
-0.143109
-0.0869052
-0.0291383
0.0311406
0.0924847
0.151109
0.205489
0.254478
0.297359
0.333836
0.363964
0.388055
0.406577
0.420057
0.429026
0.433984
0.435397
0.433704
0.429332
0.422702
0.41423
0.404303
0.393267
0.381401
0.368903
0.35589
0.342401
0.328414
0.313862
0.298644
0.282636
0.265687
0.247623
0.228244
0.207333
0.184663
0.160012
0.13317
0.103953
0.0722019
0.0377886
0.00061431
-0.0393859
-0.0822337
-0.12789
-0.17623
-0.227009
-0.27982
-0.334049
-0.388823
-0.442966
-0.494971
-0.542993
-0.584902
-0.618387
-0.641139
-0.651077
-0.646612
-0.626863
-0.591802
-0.542254
-0.479769
-0.40639
-0.324373
-0.235962
-0.143224
-0.0480092
0.0436004
0.129428
0.211278
0.286945
0.354803
0.413881
0.463834
0.504832
0.537403
0.562272
0.580225
0.592021
0.598354
0.599852
0.597105
0.590693
0.581197
0.569199
0.555254
0.539853
0.523391
0.506146
0.488268
0.469799
0.450694
0.430847
0.410115
0.388323
0.365266
0.340704
0.314358
0.285921
0.255071
0.22149
0.184884
0.144995
0.101605
0.0545355
0.00364709
-0.0511588
-0.109929
-0.172636
-0.239142
-0.309151
-0.382153
-0.457354
-0.533602
-0.609313
-0.682417
-0.750339
-0.81005
-0.858209
-0.891423
-0.906597
-0.901332
-0.874293
-0.825434
-0.756014
-0.668381
-0.565593
-0.450974
-0.327745
-0.198793
-0.0666108
0.056384
0.167271
0.272726
0.369778
0.456294
0.531079
0.593812
0.644869
0.68509
0.715531
0.737282
0.751344
0.758593
0.759798
0.755678
0.746947
0.734343
0.718624
0.700524
0.680698
0.659668
0.637786
0.615231
0.592029
0.568094
0.543276
0.51738
0.490188
0.461443
0.430843
0.398029
0.362599
0.324126
0.282192
0.236413
0.186457
0.132049
0.0729652
0.00902501
-0.0599095
-0.133924
-0.213022
-0.297086
-0.385808
-0.478621
-0.574606
-0.672389
-0.770032
-0.864942
-0.953811
-1.03266
-1.097
-1.14217
-1.16387
-1.15868
-1.1247
-1.06185
-0.971944
-0.85833
-0.725316
-0.577483
-0.419134
-0.253975
-0.0850562
0.0696961
0.206602
0.336347
0.455081
0.560132
0.650122
0.724857
0.785051
0.831974
0.867115
0.891918
0.90764
0.915319
0.915831
0.909984
0.898607
0.882593
0.862891
0.840438
0.81608
0.790477
0.764059
0.737016
0.709336
0.680873
0.65141
0.620704
0.588495
0.554487
0.518319
0.479554
0.437683
0.392163
0.342464
0.288105
0.228681
0.163867
0.0933976
0.0170563
-0.0653396
-0.153928
-0.248771
-0.349801
-0.456746
-0.569035
-0.68569
-0.805186
-0.925305
-1.04298
-1.15418
-1.25392
-1.33642
-1.39554
-1.42543
-1.42144
-1.38086
-1.30358
-1.19214
-1.05119
-0.886624
-0.704541
-0.510466
-0.308918
-0.103385
0.0837409
0.248
0.403009
0.543891
0.667394
0.772027
0.857862
0.92612
0.978666
1.01754
1.04459
1.06135
1.06898
1.0684
1.06047
1.04609
1.02631
1.0023
0.975243
0.946199
0.915997
0.885141
0.853811
0.821927
0.789248
0.755473
0.720305
0.683455
0.644603
0.603344
0.559156
0.511413
0.459435
0.402564
0.340214
0.27191
0.197283
0.116042
0.0279384
-0.067257
-0.169749
-0.279684
-0.397083
-0.521755
-0.653187
-0.790413
-0.931847
-1.07508
-1.21665
-1.35185
-1.47462
-1.57774
-1.65327
-1.69349
-1.69204
-1.64522
-1.55282
-1.41832
-1.24811
-1.05014
-0.832386
-0.601756
-0.363564
-0.121568
0.09873
0.292062
0.473589
0.637221
0.779091
0.897692
0.993552
1.06862
1.12556
1.16709
1.19557
1.21276
1.21989
1.21786
1.20748
1.18973
1.16579
1.13709
1.10511
1.07119
1.03634
1.00116
0.965766
0.929978
0.893413
0.855659
0.816364
0.775229
0.731942
0.686068
0.636997
0.583966
0.526133
0.462685
0.392923
0.316306
0.232437
0.141016
0.0417743
-0.0655617
-0.181279
-0.305635
-0.438781
-0.580652
-0.730856
-0.88852
-1.0521
-1.21911
-1.38581
-1.54688
-1.69518
-1.82185
-1.91682
-1.96997
-1.97276
-1.92006
-1.81151
-1.65187
-1.44985
-1.21608
-0.960866
-0.692711
-0.417661
-0.139505
0.114889
0.339418
0.548996
0.736094
0.896196
1.02792
1.1325
1.21291
1.27283
1.31588
1.34494
1.362
1.36826
1.36447
1.35134
1.32982
1.30128
1.26744
1.23016
1.19112
1.15158
1.11219
1.073
1.03365
0.993548
0.952146
0.909034
0.863943
0.816606
0.766587
0.713186
0.655469
0.592396
0.522969
0.446359
0.361967
0.269394
0.168355
0.0585849
-0.0602339
-0.188484
-0.326565
-0.474795
-0.633288
-0.801829
-0.979721
-1.16557
-1.35698
-1.55007
-1.73903
-1.91567
-2.06931
-2.18734
-2.25663
-2.26575
-2.20758
-2.08149
-1.89394
-1.65681
-1.38424
-1.08945
-0.782738
-0.470766
-0.157037
0.132465
0.390751
0.630196
0.841561
1.01965
1.16343
1.27516
1.35916
1.4205
1.46382
1.49264
1.50908
1.51419
1.50845
1.49229
1.46662
1.43298
1.39348
1.35045
1.30601
1.26171
1.21828
1.17562
1.13308
1.08983
1.04511
0.998453
0.949685
0.898652
0.844953
0.787787
0.726011
0.658332
0.583522
0.500605
0.408939
0.308158
0.198031
0.0783197
-0.051325
-0.191397
-0.342474
-0.505083
-0.679559
-0.865916
-1.06371
-1.27184
-1.48813
-1.70881
-1.92776
-2.13581
-2.32034
-2.46573
-2.55509
-2.57314
-2.50999
-2.36452
-2.14548
-1.86905
-1.55402
-1.21724
-0.870954
-0.522258
-0.173941
0.151728
0.446806
0.71823
0.95472
1.15041
1.30486
1.42182
1.5074
1.56837
1.61066
1.63845
1.65391
1.65776
1.64998
1.6306
1.60038
1.56109
1.51532
1.46599
1.41582
1.36671
1.31944
1.2737
1.22844
1.18244
1.13471
1.08474
1.03251
0.978095
0.921174
0.860831
0.795652
0.724021
0.644425
0.555715
0.457229
0.348683
0.229952
0.100865
-0.0389494
-0.190114
-0.353423
-0.529659
-0.719413
-0.922969
-1.14021
-1.37044
-1.61193
-1.86124
-2.11226
-2.35503
-2.57486
-2.75268
-2.86687
-2.89712
-2.82961
-2.66237
-2.40725
-2.08629
-1.72443
-1.34295
-0.956205
-0.571359
-0.189945
0.172983
0.508409
0.814229
1.07673
1.28939
1.45279
1.57269
1.65749
1.71608
1.75598
1.78204
1.79635
1.79899
1.78924
1.76653
1.73137
1.68578
1.63302
1.57678
1.52047
1.46649
1.41567
1.36732
1.31988
1.27159
1.22116
1.16802
1.11246
1.05491
0.995219
0.932316
0.864429
0.789531
0.705746
0.611721
0.506808
0.39088
0.26398
0.126052
-0.0232766
-0.18478
-0.359521
-0.548588
-0.752855
-0.972898
-1.20898
-1.46092
-1.72766
-2.00643
-2.2915
-2.57241
-2.83247
-3.04859
-3.19341
-3.23998
-3.16899
-2.97692
-2.67983
-2.30786
-1.89401
-1.46495
-1.03708
-0.617151
-0.204733
0.196568
0.576474
0.919426
1.20881
1.43752
1.6077
1.72781
1.80911
1.86312
1.89922
1.923
1.93615
1.93787
1.92642
1.90037
1.85985
1.80725
1.74666
1.68274
1.61982
1.56094
1.50692
1.45658
1.40757
1.35751
1.30465
1.24841
1.18953
1.12903
1.06702
1.00222
0.932366
0.854924
0.767553
0.668644
0.557625
0.434624
0.299931
0.153663
-0.00452415
-0.175586
-0.360923
-0.561988
-0.779958
-1.01568
-1.26983
-1.54287
-1.83462
-2.14332
-2.46417
-2.78673
-3.0924
-3.35362
-3.53605
-3.60421
-3.53096
-3.31019
-2.96366
-2.53269
-2.06089
-1.58123
-1.11197
-0.658616
-0.217961
0.222863
0.652012
1.03517
1.35229
1.59573
1.77
1.88712
1.96182
2.00879
2.03968
2.06079
2.07309
2.07439
2.06172
2.03246
1.98612
1.92566
1.85627
1.78377
1.71369
1.64987
1.59315
1.54155
1.49172
1.44047
1.38545
1.32604
1.26368
1.20033
1.13647
1.07049
0.999479
0.920266
0.82992
0.726502
0.609609
0.479762
0.337582
0.183437
0.017049
-0.162757
-0.357815
-0.570022
-0.800854
-1.05139
-1.32268
-1.61595
-1.93209
-2.27079
-2.62882
-2.99645
-3.35353
-3.66758
-3.89602
-3.9925
-3.91883
-3.66446
-3.25895
-2.75922
-2.22269
-1.6895
-1.17909
-0.694675
-0.229273
0.252295
0.73614
1.16293
1.50853
1.7649
1.93998
2.05044
2.11503
2.15225
2.17654
2.19484
2.20687
2.20857
2.1954
2.16318
2.11052
2.0412
1.9619
1.87977
1.80184
1.73308
1.67428
1.62235
1.57256
1.52077
1.46385
1.40103
1.33485
1.26865
1.20343
1.13708
1.06578
0.985629
0.892941
0.785315
0.662669
0.526115
0.376682
0.215075
0.0411484
-0.146546
-0.350408
-0.572888
-0.815742
-1.08016
-1.36753
-1.67992
-2.01948
-2.38769
-2.78377
-3.19974
-3.61437
-3.98995
-4.27437
-4.4078
-4.33646
-4.04231
-3.56569
-2.98538
-2.37655
-1.78713
-1.23656
-0.724239
-0.238317
0.285346
0.83008
1.3043
1.67905
1.94589
2.11782
2.21745
2.268
2.29249
2.30881
2.32452
2.33724
2.34038
2.32773
2.29301
2.23343
2.15404
2.06357
1.97057
1.88397
1.81028
1.75025
1.69911
1.65034
1.59878
1.54022
1.47353
1.4029
1.33374
1.26773
1.20192
1.13127
1.0511
0.956738
0.845107
0.716698
0.573487
0.416949
0.248242
0.0674496
-0.12722
-0.338923
-0.570811
-0.824879
-1.10224
-1.40451
-1.73467
-2.09626
-2.49288
-2.92725
-3.39445
-3.87304
-4.31977
-4.67189
-4.85337
-4.78852
-4.44679
-3.88353
-3.20838
-2.5191
-1.87131
-1.28246
-0.746269
-0.244769
0.322566
0.93516
1.461
1.86545
2.13949
2.30351
2.38778
2.41993
2.42836
2.43544
2.44916
2.46399
2.46985
2.45905
2.42254
2.35523
2.26435
2.16134
2.05601
1.95971
1.88117
1.82096
1.77199
1.72533
1.67488
1.615
1.54372
1.46767
1.39531
1.32918
1.26497
1.19596
1.11677
1.02148
0.905914
0.771565
0.621669
0.458088
0.282573
0.0956011
-0.105056
-0.323575
-0.564028
-0.82858
-1.11798
-1.43383
-1.78023
-2.16211
-2.58531
-3.05735
-3.57818
-4.12728
-4.65563
-5.08892
-5.33271
-5.28069
-4.88148
-4.21167
-3.42468
-2.64644
-1.93907
-1.31496
-0.759835
-0.248351
0.364592
1.0528
1.63485
2.06948
2.34639
2.49684
2.56096
2.5699
2.55856
2.55522
2.56813
2.58697
2.59695
2.58971
2.5525
2.47638
2.37223
2.2553
2.13593
2.02863
1.94532
1.88637
1.84123
1.79778
1.74953
1.68877
1.61178
1.52888
1.45295
1.38756
1.32622
1.25983
1.18276
1.0874
0.967777
0.827109
0.670451
0.499787
0.317667
0.125228
-0.0803303
-0.304562
-0.552776
-0.827206
-1.12779
-1.45583
-1.81678
-2.21691
-2.66404
-3.17212
-3.74829
-4.37451
-4.9956
-5.52518
-5.84959
-5.81998
-5.35067
-4.54862
-3.6298
-2.75419
-1.98739
-1.3324
-0.764177
-0.248855
0.41219
1.18449
1.82776
2.29311
2.5671
2.69733
2.73656
2.71697
2.68162
2.66683
2.68083
2.70617
2.72161
2.72008
2.68382
2.59729
2.47769
2.34559
2.21017
2.09019
2.00227
1.94641
1.90714
1.86793
1.82316
1.76224
1.67793
1.58614
1.50617
1.44266
1.3857
1.32285
1.24917
1.15483
1.03074
0.883115
0.719632
0.541734
0.353092
0.15593
-0.0533092
-0.282043
-0.537276
-0.821161
-1.13221
-1.47092
-1.84465
-2.26081
-2.72831
-3.26956
-3.9019
-4.61186
-5.33725
-5.97946
-6.40787
-6.4152
-5.8595
-4.89196
-3.81814
-2.83756
-2.01338
-1.3334
-0.758763
-0.246151
0.466317
1.33176
2.04165
2.5386
2.80193
2.9041
2.91419
2.86022
2.79589
2.76879
2.78672
2.82179
2.84362
2.85048
2.81769
2.71838
2.58062
2.43248
2.27861
2.14376
2.05144
2.00109
1.97016
1.93593
1.89625
1.83635
1.74242
1.63895
1.55435
1.49426
1.44356
1.38489
1.31609
1.22422
1.09484
0.939297
0.769048
0.583625
0.388377
0.187286
-0.0242468
-0.256128
-0.517716
-0.810888
-1.13187
-1.47956
-1.86428
-2.29431
-2.77757
-3.34767
-4.03597
-4.83627
-5.67771
-6.44923
-7.01137
-7.07749
-6.41418
-5.23785
-3.98282
-2.89141
-2.0144
-1.31692
-0.743331
-0.240208
0.528239
1.4961
2.27838
2.80868
3.05087
3.11574
3.09375
2.99877
2.89955
2.85948
2.88539
2.93436
2.96257
2.98117
2.95578
2.83999
2.68061
2.51642
2.34118
2.18855
2.0921
2.05045
2.03093
2.00178
1.9692
1.91237
1.80553
1.6866
1.59671
1.5422
1.50009
1.44576
1.38357
1.29625
1.1601
0.995246
0.8186
0.625171
0.423002
0.218849
0.00662058
-0.226856
-0.494236
-0.796858
-1.1275
-1.48222
-1.87621
-2.31829
-2.81155
-3.40449
-4.14723
-5.04464
-6.01385
-6.93012
-7.66348
-7.82111
-7.02217
-5.58052
-4.11556
-2.91049
-1.98822
-1.28244
-0.717918
-0.231093
0.599705
1.67893
2.5396
3.10679
3.31343
3.33015
3.27554
3.13184
2.99048
2.93709
2.97655
3.04487
3.07763
3.11223
3.10032
2.96231
2.77688
2.59823
2.39789
2.22362
2.12341
2.09459
2.09038
2.06523
2.0423
1.99198
1.86754
1.72815
1.63233
1.58632
1.55585
1.50505
1.45158
1.37188
1.22648
1.05038
0.868309
0.66611
0.456388
0.250148
0.0390744
-0.194176
-0.466909
-0.779565
-1.11999
-1.47933
-1.88096
-2.33414
-2.83026
-3.43812
-4.23225
-5.23398
-6.34262
-7.41527
-8.36667
-8.66448
-7.69244
-5.91143
-4.20655
-2.88964
-1.93325
-1.22993
-0.682874
-0.21897
0.683242
1.88139
2.82651
3.43744
3.58852
3.54419
3.46065
3.2588
3.06632
2.99956
3.06007
3.15505
3.18743
3.24344
3.25448
3.08528
2.86808
2.67919
2.44882
2.24778
2.14434
2.13369
2.14988
2.12563
2.11565
2.07746
1.92873
1.76238
1.66011
1.62657
1.61174
1.56209
1.51992
1.45252
1.29383
1.10387
0.918394
0.706214
0.487874
0.280687
0.0729108
-0.157934
-0.43573
-0.759516
-1.11041
-1.47122
-1.87899
-2.34387
-2.83402
-3.44672
-4.2873
-5.40151
-6.66156
-7.89453
-9.12175
-9.63151
-8.43569
-6.21823
-4.24451
-2.82411
-1.84869
-1.15995
-0.638849
-0.204095
0.782591
2.10425
3.13952
3.80681
3.87418
3.7534
3.65134
3.37912
3.12431
3.04458
3.13596
3.26765
3.28969
3.3741
3.42273
3.20841
2.95202
2.7614
2.49412
2.25961
2.15362
2.16799
2.21146
2.18174
2.18906
2.17196
1.98926
1.7877
1.67873
1.6629
1.66922
1.61578
1.58819
1.54018
1.36186
1.1545
0.969383
0.745282
0.516696
0.309956
0.107932
-0.117852
-0.400597
-0.737207
-1.10011
-1.45803
-1.87051
-2.35026
-2.82345
-3.4286
-4.3083
-5.54486
-6.96968
-8.35349
-9.92675
-10.7535
-9.26456
-6.48344
-4.21683
-2.71001
-1.73468
-1.07366
-0.586767
-0.186801
0.903344
2.34764
3.47774
4.22346
4.16724
3.95149
3.85168
3.49233
3.16125
3.06954
3.20427
3.38691
3.38089
3.50283
3.61143
3.33059
3.02533
2.84812
2.53396
2.25732
2.14977
2.19773
2.2781
2.23148
2.26181
2.27981
2.04912
1.80212
1.68671
1.69532
1.73052
1.66439
1.65563
1.63778
1.42999
1.20057
1.02227
0.783125
0.54195
0.337444
0.143928
-0.0735036
-0.361306
-0.713089
-1.09077
-1.43965
-1.85528
-2.35706
-2.7994
-3.38224
-4.29065
-5.66203
-7.26866
-8.77235
-10.7755
-12.0712
-10.1938
-6.68265
-4.11004
-2.54469
-1.59242
-0.972723
-0.527773
-0.167478
1.05385
2.61077
3.83834
4.69943
4.46291
4.1297
4.06834
3.59786
3.17343
3.07151
3.26496
3.51919
3.45571
3.62722
3.82952
3.44979
3.08304
2.94426
2.56842
2.23878
2.13107
2.22305
2.35414
2.27161
2.33257
2.40696
2.10791
1.80319
1.68237
1.72377
1.79895
1.70534
1.72099
1.74947
1.49723
1.2397
1.07875
0.81952
0.562559
0.362663
0.180657
-0.0242963
-0.317548
-0.687518
-1.08463
-1.41561
-1.83239
-2.36932
-2.76281
-3.30643
-4.22901
-5.75134
-7.56452
-9.12461
-11.6555
-13.638
-11.2404
-6.7824
-3.91052
-2.32733
-1.42422
-0.859305
-0.463177
-0.146554
1.24648
2.89152
4.21558
5.25162
4.7542
4.27608
4.3117
3.6947
3.15656
3.04729
3.31761
3.67378
3.50649
3.74344
4.08952
3.56262
3.11806
3.05715
2.59727
2.20142
2.09554
2.24383
2.44576
2.29732
2.39901
2.56151
2.16458
1.78794
1.6639
1.74803
1.87934
1.73484
1.78236
1.88109
1.562
1.26859
1.14146
0.854139
0.577228
0.385194
0.217801
0.0305581
-0.268924
-0.660659
-1.08458
-1.38502
-1.79987
-2.39372
-2.71456
-3.20043
-4.11703
-5.81103
-7.86982
-9.37562
-12.5455
-15.5237
-12.4233
-6.73755
-3.60579
-2.05935
-1.23349
-0.735923
-0.394379
-0.12447
1.49924
3.18594
4.59961
5.90366
5.03119
4.37452
4.59718
3.78092
3.10576
2.99343
3.36103
3.86392
3.52236
3.84575
4.40873
3.66384
3.12051
3.19733
2.61965
2.14223
2.04104
2.25941
2.56175
2.30171
2.45761
2.75447
2.21708
1.75293
1.62944
1.76746
1.97855
1.74755
1.8369
2.04072
1.62187
1.28278
1.21441
0.886424
0.584401
0.404741
0.254915
0.0920778
-0.214971
-0.632365
-1.09451
-1.34652
-1.7543
-2.43914
-2.65507
-3.06425
-3.94711
-5.83861
-8.20648
-9.48112
-13.4121
-17.8182
-13.7635
-6.48818
-3.18622
-1.74483
-1.02455
-0.605321
-0.322804
-0.101663
1.83792
3.48767
4.97496
6.6881
5.28012
4.40365
4.94697
3.85293
3.01556
2.90644
3.39253
4.10818
3.48836
3.92586
4.81065
3.74573
3.07698
3.37974
2.63361
2.0578
1.96531
2.26813
2.7143
2.27517
2.50318
3.00059
2.2618
1.69426
1.5772
1.78068
2.10615
1.73604
1.88058
2.2394
1.67323
1.27637
1.30339
0.915407
0.582227
0.421221
0.291355
0.161555
-0.155225
-0.60199
-1.11952
-1.29816
-1.69025
-2.51724
-2.5839
-2.89901
-3.71004
-5.82977
-8.60924
-9.38562
-14.2056
-20.638
-15.2832
-5.95595
-2.64744
-1.39075
-0.802484
-0.470321
-0.249827
-0.0785442
2.29878
3.7872
5.31862
7.64925
5.48223
4.33551
5.39215
3.90444
2.88007
2.78302
3.40714
4.43203
3.38436
3.97222
5.32681
3.79722
2.96964
3.62504
2.63539
1.94435
1.86619
2.26683
2.9201
2.20473
2.5285
3.31941
2.29289
1.60767
1.50564
1.78515
2.27524
1.69028
1.90785
2.49191
1.71089
1.2416
1.41657
0.939454
0.568522
0.434866
0.326181
0.240618
-0.08931
-0.568146
-1.16633
-1.23747
-1.59958
-2.64334
-2.49906
-2.70746
-3.39487
-5.77672
-9.12982
-9.02092
-14.8555
-24.1313
-17.005
-5.04008
-1.99351
-1.00696
-0.572821
-0.333674
-0.176724
-0.0554874
2.93169
4.07098
5.59786
8.84644
5.61244
4.13412
5.97515
3.92504
2.69318
2.62042
3.39633
4.86985
3.18378
3.96914
5.99868
3.80305
2.77529
3.96128
2.61858
1.79795
1.74183
2.25004
3.20161
2.07317
2.52377
3.73653
2.30141
1.48879
1.41369
1.77648
2.50348
1.59693
1.91126
2.81775
1.72765
1.16856
1.56517
0.955931
0.540768
0.446357
0.358036
0.331309
-0.0170804
-0.528388
-1.24365
-1.16143
-1.47074
-2.83739
-2.39614
-2.49468
-2.98872
-5.66595
-9.84166
-8.30473
-15.2641
-28.4858
-18.9507
-3.61291
-1.24083
-0.605811
-0.341146
-0.19792
-0.104621
-0.0328173
3.80399
4.32044
5.76757
10.3578
5.6377
3.75388
6.75263
3.89846
2.44893
2.41694
3.34655
5.46713
2.85224
3.89585
6.88001
3.74256
2.46424
4.42571
2.57292
1.61469
1.59105
2.209
3.5885
1.85816
2.47609
4.28494
2.27422
1.33338
1.30109
1.7477
2.81417
1.43869
1.88102
3.2422
1.71365
1.04473
1.76417
0.960771
0.496116
0.456985
0.384993
0.436193
0.0611904
-0.478818
-1.36264
-1.06654
-1.28775
-3.12516
-2.2672
-2.26884
-2.47691
-5.47531
-10.8453
-7.13953
-15.3008
-33.9364
-21.1392
-1.51515
-0.422853
-0.201267
-0.112737
-0.0652786
-0.0344711
-0.0108052
)
;

boundaryField
{
    left
    {
        type            calculated;
        value           uniform 0;
    }
    right
    {
        type            calculated;
        value           uniform 0;
    }
    interface
    {
        type            calculated;
        value           nonuniform List<scalar> 
64
(
3.80399
4.32044
5.76757
10.3578
5.6377
3.75388
6.75263
3.89846
2.44893
2.41694
3.34655
5.46713
2.85224
3.89585
6.88001
3.74256
2.46424
4.42571
2.57292
1.61469
1.59105
2.209
3.5885
1.85816
2.47609
4.28494
2.27422
1.33338
1.30109
1.7477
2.81417
1.43869
1.88102
3.2422
1.71365
1.04473
1.76417
0.960771
0.496116
0.456985
0.384993
0.436193
0.0611904
-0.478818
-1.36264
-1.06654
-1.28775
-3.12516
-2.2672
-2.26884
-2.47691
-5.47531
-10.8453
-7.13953
-15.3008
-33.9364
-21.1392
-1.51515
-0.422853
-0.201267
-0.112737
-0.0652786
-0.0344711
-0.0108052
)
;
    }
    bottom
    {
        type            calculated;
        value           nonuniform List<scalar> 
64
(
0.00630506
0.0187347
0.0306392
0.0417209
0.0517507
0.0605795
0.0681367
0.0744202
0.0794797
0.083398
0.0862748
0.0882146
0.0893192
0.0896854
0.0894058
0.0885694
0.087263
0.0855703
0.083569
0.0813275
0.0789018
0.0763324
0.0736443
0.0708476
0.0679399
0.0649094
0.0617364
0.0583953
0.0548553
0.0510806
0.0470308
0.0426623
0.0379301
0.0327894
0.0271985
0.0211198
0.0145209
0.0073758
-0.000335186
-0.00862371
-0.0174913
-0.0269257
-0.0368955
-0.0473434
-0.0581778
-0.0692639
-0.0804145
-0.0913827
-0.101857
-0.111465
-0.119783
-0.12636
-0.130754
-0.13257
-0.131512
-0.127416
-0.120277
-0.110248
-0.0976156
-0.0827651
-0.0661297
-0.0481503
-0.0292469
-0.00980741
)
;
    }
    defaultFaces
    {
        type            empty;
    }
}


// ************************************************************************* //
