/*--------------------------------*- C++ -*----------------------------------*\
| =========                 |                                                 |
| \\      /  F ield         | OpenFOAM: The Open Source CFD Toolbox           |
|  \\    /   O peration     | Version:  5.x                                   |
|   \\  /    A nd           | Web:      www.OpenFOAM.org                      |
|    \\/     M anipulation  |                                                 |
\*---------------------------------------------------------------------------*/
FoamFile
{
    version     2.0;
    format      ascii;
    class       volScalarField;
    location    "6.1";
    object      gradTx;
}
// * * * * * * * * * * * * * * * * * * * * * * * * * * * * * * * * * * * * * //

dimensions      [0 -1 0 1 0 0 0];

internalField   nonuniform List<scalar> 
3200
(
45.2101
3.71195
1.64876
1.54021
0.814973
0.771384
0.466737
0.44728
0.293829
0.282722
0.170834
0.166691
0.180696
0.180845
0.173156
0.172314
0.159537
0.15842
0.144299
0.143117
0.128833
0.127664
0.113863
0.112768
0.100229
0.0993421
0.0901691
0.0901633
0.0951004
0.164799
0.0825238
0.0552769
0.0534483
0.0416983
0.040871
0.033272
0.0327131
0.0269951
0.0265654
0.0220058
0.0216592
0.017919
0.0176313
0.0144822
0.0142349
0.0114654
0.0112382
0.00857393
0.00833502
0.00520946
0.0050786
0.00507882
0.00503125
0.00396627
0.00385319
0.0022023
0.00203681
-0.000270289
-0.00050775
-0.00386608
-0.0042285
-0.00949541
-0.0101006
-0.0191735
-0.0203214
-0.0381792
-0.0408515
-0.0840415
-0.0929642
-0.238786
-0.617434
-0.436319
-0.68178
-0.713148
-1.26847
-1.24284
-0.0558066
-0.00753091
-0.00152578
-52.9465
47.8947
3.10529
1.57732
1.35453
0.774082
0.681024
0.436328
0.394725
0.271789
0.248195
0.160331
0.151486
0.160986
0.161194
0.155217
0.153444
0.143365
0.141001
0.129826
0.12732
0.116009
0.11353
0.102603
0.100284
0.0903805
0.0885173
0.0814472
0.0815987
0.0883895
0.137406
0.0766224
0.0516349
0.0475628
0.0380291
0.036255
0.030197
0.0290082
0.0244668
0.0235546
0.0199368
0.0192011
0.0162342
0.0156236
0.0131253
0.0126005
0.0104023
0.00991995
0.00780372
0.00729945
0.00486012
0.00458206
0.0045375
0.00443357
0.00359292
0.00335327
0.00204408
0.0016927
-0.000140577
-0.000645339
-0.00331764
-0.00408887
-0.00828747
-0.00957781
-0.0168358
-0.0192943
-0.0336949
-0.039484
-0.0750642
-0.0949855
-0.227133
-0.517833
-0.414945
-0.602194
-0.666778
-1.08525
-1.03159
-0.121869
-0.0209019
-0.00438739
-54.7426
50.5625
2.57649
1.45368
1.18316
0.713695
0.596729
0.397796
0.345424
0.245776
0.216239
0.146668
0.135548
0.141649
0.141791
0.13711
0.134906
0.126884
0.123934
0.115006
0.111875
0.102831
0.0997338
0.0909991
0.0881045
0.0802103
0.0779007
0.0724364
0.0727685
0.0799896
0.114405
0.0692891
0.0471563
0.0418957
0.0340495
0.0318103
0.0269272
0.0254374
0.0217934
0.0206519
0.0177524
0.0168323
0.0144551
0.0136915
0.0116896
0.0110331
0.00927065
0.00866703
0.00696901
0.00634127
0.00442431
0.00407617
0.00399854
0.00386536
0.00319552
0.00289613
0.00184754
0.00140785
-6.40144e-05
-0.000696235
-0.00284524
-0.00381216
-0.00719587
-0.00881635
-0.0146901
-0.0177894
-0.0295552
-0.0369247
-0.0667132
-0.0925178
-0.209137
-0.433975
-0.381965
-0.527515
-0.606252
-0.920919
-0.854588
-0.155582
-0.0308948
-0.00673272
-56.5385
53.2097
2.11326
1.29595
1.01975
0.639208
0.515713
0.353402
0.298014
0.216958
0.185884
0.130667
0.11892
0.122549
0.12258
0.118905
0.1166
0.1102
0.107107
0.0999537
0.0966672
0.0894151
0.0861632
0.0791615
0.0761245
0.0698167
0.0674103
0.0631937
0.0636627
0.0705019
0.0945849
0.0610365
0.0420028
0.0363321
0.0298456
0.0274713
0.0235216
0.0219527
0.0190199
0.0178196
0.0154889
0.0145217
0.0126114
0.0118088
0.0102
0.00950985
0.00809259
0.00745788
0.00609148
0.00543465
0.00392573
0.00355946
0.0034618
0.00331859
0.00278328
0.00246894
0.00162663
0.00116428
-2.1047e-05
-0.00068647
-0.00242014
-0.00343878
-0.00617481
-0.00788477
-0.0126553
-0.0159379
-0.0255913
-0.0334688
-0.0585217
-0.0864176
-0.186813
-0.361191
-0.341084
-0.455509
-0.53629
-0.771826
-0.702888
-0.166321
-0.0368667
-0.00833255
-58.3342
55.8355
1.70414
1.11657
0.860505
0.554439
0.436249
0.304731
0.25163
0.186141
0.156495
0.112927
0.101678
0.103594
0.103518
0.100644
0.0984588
0.0933843
0.0904419
0.084747
0.0816178
0.0758392
0.0727427
0.0671654
0.0642754
0.0592671
0.0569923
0.0537636
0.054302
0.0603243
0.0770703
0.0522033
0.0363148
0.030801
0.0254772
0.0231954
0.0200208
0.0185226
0.016177
0.0150324
0.0131708
0.0122488
0.0107235
0.00995843
0.0086736
0.0080157
0.00688322
0.00627798
0.00518556
0.00456211
0.00338145
0.00303199
0.00292687
0.00278751
0.00236221
0.00206286
0.00139052
0.000949613
1.11591e-06
-0.000633982
-0.00202365
-0.00299672
-0.0051948
-0.00683076
-0.0106801
-0.0138316
-0.0216984
-0.0293258
-0.0502164
-0.0774174
-0.16153
-0.296187
-0.294821
-0.384849
-0.460137
-0.634912
-0.569894
-0.160776
-0.0388018
-0.00906388
-60.1297
58.4411
1.33871
0.923936
0.703264
0.462156
0.357319
0.252922
0.205742
0.15389
0.127663
0.0938938
0.0839088
0.0847176
0.0845673
0.0823556
0.0804328
0.0764831
0.073887
0.0694377
0.0666743
0.0621561
0.0594213
0.0550617
0.052511
0.0486081
0.0466125
0.0441827
0.044722
0.0497179
0.0612201
0.0430109
0.0302117
0.0252624
0.0209872
0.0189551
0.0164529
0.0151264
0.0132861
0.0122739
0.0108151
0.01
0.00880506
0.00812881
0.00712214
0.00654051
0.00565274
0.00511756
0.00426087
0.00371184
0.00280391
0.00249475
0.0023933
0.00226785
0.00193608
0.00167169
0.00114514
0.000755246
1.07357e-05
-0.000551319
-0.00164383
-0.00250566
-0.00423728
-0.00568824
-0.00873279
-0.0115366
-0.0178151
-0.0246523
-0.0416587
-0.0661407
-0.134225
-0.236623
-0.244902
-0.314779
-0.380005
-0.50759
-0.450664
-0.143746
-0.0370475
-0.00890182
-61.9248
61.029
1.0075
0.723535
0.546841
0.364421
0.278371
0.198826
0.160041
0.120615
0.0991318
0.0739096
0.065708
0.0658801
0.0656994
0.0640557
0.0624879
0.0595277
0.0574063
0.054061
0.051801
0.0484017
0.0461649
0.0428857
0.0408007
0.0378727
0.03625
0.0344831
0.0349637
0.0388511
0.0465585
0.033602
0.0237947
0.0196967
0.0164073
0.0147336
0.012838
0.0117506
0.010362
0.00953331
0.00843359
0.00776648
0.0068659
0.0063124
0.00555368
0.00507756
0.00440815
0.00396999
0.00332386
0.00287593
0.00220242
0.00194919
0.00186069
0.00175645
0.00150726
0.001291
0.000894292
0.000575058
1.30514e-05
-0.000447443
-0.00127324
-0.00197982
-0.003291
-0.00448197
-0.00679512
-0.00910271
-0.0139095
-0.019572
-0.032802
-0.05312
-0.105548
-0.180824
-0.19252
-0.244894
-0.297379
-0.387649
-0.341433
-0.118707
-0.0321511
-0.00790409
-63.7196
63.6027
0.70195
0.518843
0.390646
0.262831
0.199162
0.143098
0.114365
0.0866215
0.0707508
0.0532445
0.0471723
0.0470567
0.0468899
0.0457529
0.0445986
0.0425389
0.0409745
0.0386408
0.0369733
0.0346007
0.0329502
0.0306619
0.0291241
0.0270852
0.0258933
0.0246936
0.0250691
0.0278316
0.0327233
0.0240672
0.0171492
0.0140987
0.0117629
0.010521
0.00919067
0.00838696
0.0074155
0.00680352
0.0060348
0.00554224
0.00491285
0.00450418
0.00397389
0.00362234
0.00315431
0.00283073
0.00237892
0.00204903
0.0015841
0.00139703
0.0013287
0.00125083
0.00107711
0.000917527
0.000640337
0.000404576
1.13021e-05
-0.00032896
-0.000907426
-0.00142979
-0.00234952
-0.00323081
-0.00485768
-0.00656883
-0.00996966
-0.0141891
-0.0236618
-0.0388149
-0.0759564
-0.127569
-0.13851
-0.175005
-0.213241
-0.273168
-0.239263
-0.0882209
-0.0247623
-0.00619364
-65.5142
66.1659
0.414198
0.311955
0.234436
0.158676
0.119649
0.0862781
0.0686499
0.0521532
0.0424351
0.0321221
0.0283983
0.0282354
0.0281192
0.0274507
0.0267456
0.0255302
0.0245735
0.023194
0.0221738
0.0207709
0.019761
0.0184081
0.0174675
0.0162638
0.0155368
0.014841
0.015079
0.0167268
0.01943
0.0144628
0.0103491
0.00847207
0.00707462
0.00631192
0.00552231
0.00502999
0.00445464
0.00407999
0.00362496
0.00332347
0.00295096
0.00270082
0.00238696
0.00217176
0.00189469
0.0016966
0.0014291
0.00122753
0.000954674
0.000840129
0.000797088
0.000749048
0.000646399
0.000548752
0.000384723
0.000240391
7.42889e-06
-0.000200951
-0.000543858
-0.000863877
-0.00140959
-0.00194984
-0.00291688
-0.00396737
-0.00599707
-0.00859605
-0.0142944
-0.0236303
-0.0457862
-0.0759406
-0.0834786
-0.105047
-0.128236
-0.162439
-0.141779
-0.0542317
-0.0155779
-0.00394164
-67.3086
68.7227
0.136914
0.104077
0.0781564
0.0530516
0.0399106
0.0288279
0.0228895
0.0174138
0.0141432
0.0107361
0.00948189
0.00941217
0.00937069
0.00915002
0.00891301
0.00851112
0.00818936
0.00773285
0.00738967
0.00692528
0.00658557
0.00613778
0.0058214
0.00542332
0.00517916
0.00495114
0.00503255
0.00557982
0.00644357
0.00482434
0.00345945
0.00282626
0.00236098
0.00210391
0.00184205
0.00167633
0.00148574
0.00135967
0.00120898
0.00110753
0.000984177
0.000900011
0.000796074
0.000723663
0.000631897
0.000565241
0.000476646
0.000408881
0.000318911
0.000280361
0.000265676
0.000249446
0.000215481
0.000182632
0.000128318
7.97491e-05
2.57048e-06
-6.75636e-05
-0.000181207
-0.000288935
-0.000469876
-0.000651801
-0.000972733
-0.00132674
-0.00200172
-0.00287902
-0.00478144
-0.00793293
-0.0152962
-0.0252168
-0.0278858
-0.0350241
-0.0427899
-0.0539058
-0.0469696
-0.0182867
-0.0053128
-0.00135208
-69.1029
68.715
0.150879
0.128425
0.107468
0.0852119
0.072697
0.0607381
0.0533357
0.0448794
0.0387596
0.0310024
0.0281908
0.0283033
0.0282012
0.027367
0.0264688
0.0249528
0.0237659
0.0221217
0.0209282
0.0193718
0.0182763
0.0168896
0.015944
0.0147991
0.0141224
0.0135323
0.0138298
0.0155071
0.0180916
0.0137173
0.0100623
0.00838388
0.00717327
0.00650726
0.00582894
0.00539602
0.00489202
0.00455392
0.00414296
0.00386181
0.00351362
0.00327179
0.00296709
0.00274999
0.00246769
0.00225525
0.00196192
0.00172648
0.00140453
0.00129192
0.00130961
0.00131134
0.0012786
0.00124004
0.0011723
0.00111821
0.00104196
0.000985361
0.00090953
0.000852775
0.00077475
0.000709298
0.000606206
0.000492099
0.000265977
-7.76657e-05
-0.000895488
-0.00243537
-0.0062246
-0.0117963
-0.0150801
-0.0220664
-0.0295019
-0.0404465
-0.0360578
-0.0140917
-0.00409875
-0.00104345
-69.8074
66.1424
0.456007
0.385215
0.322456
0.255246
0.218069
0.182032
0.160049
0.134545
0.116344
0.0928095
0.0844553
0.0849185
0.0846328
0.0821037
0.0794311
0.0748452
0.071316
0.0663472
0.062799
0.0580971
0.0548407
0.0506513
0.04784
0.0443787
0.0423638
0.0405614
0.0414342
0.0464851
0.0545532
0.0411232
0.0301077
0.0251329
0.021498
0.0195223
0.017477
0.0161909
0.0146694
0.0136647
0.0124237
0.0115881
0.0105366
0.0098179
0.00889777
0.00825259
0.00740028
0.00676899
0.00588346
0.00518291
0.00420523
0.00387056
0.00392947
0.00393541
0.00383603
0.00372131
0.00351637
0.00335553
0.00312509
0.00295686
0.00272783
0.00255918
0.00232375
0.0021294
0.00181906
0.00148078
0.000802636
-0.000214026
-0.00265758
-0.00721613
-0.0186025
-0.0354803
-0.0450921
-0.0661812
-0.0883652
-0.121953
-0.108876
-0.0417961
-0.0120187
-0.00304198
-69.4222
63.5626
0.771328
0.641683
0.537622
0.424079
0.363395
0.302764
0.266904
0.223918
0.194143
0.154009
0.140367
0.141564
0.141154
0.136846
0.13247
0.124695
0.118924
0.110516
0.104716
0.0967645
0.0914424
0.0843579
0.079762
0.0739004
0.0705967
0.0674835
0.0688715
0.0773424
0.0918748
0.0684325
0.0499116
0.0418285
0.0357565
0.0325401
0.0290947
0.0269953
0.0244262
0.0227849
0.0206883
0.0193231
0.0175463
0.0163721
0.0148175
0.0137635
0.012324
0.0112929
0.00979762
0.00865044
0.00698022
0.00643346
0.00655146
0.0065637
0.00639408
0.00620619
0.00585868
0.00559565
0.00520575
0.00493079
0.00454373
0.00426826
0.00387112
0.00355416
0.00303304
0.00248307
0.00135285
-0.000293299
-0.00433505
-0.0117238
-0.0307607
-0.059455
-0.074645
-0.110252
-0.146772
-0.205326
-0.183855
-0.0680084
-0.0191067
-0.00478018
-69.0369
60.9706
1.10392
0.897128
0.753167
0.590797
0.508719
0.422505
0.374043
0.312762
0.272355
0.21415
0.195686
0.198273
0.197832
0.191591
0.185645
0.174465
0.166637
0.15458
0.146719
0.135327
0.128115
0.117965
0.111735
0.10332
0.098822
0.0942256
0.0960255
0.107957
0.130715
0.0955451
0.0692981
0.0584436
0.0499008
0.0455671
0.0406587
0.0378184
0.0341459
0.0319234
0.0289236
0.0270746
0.0245319
0.0229415
0.0207172
0.0192899
0.0172315
0.0158354
0.0136979
0.0121389
0.00971029
0.0089698
0.00917771
0.00919929
0.00895289
0.00869748
0.00819764
0.00784087
0.00728184
0.00690924
0.00635518
0.00598224
0.0054153
0.0049871
0.0042482
0.00350859
0.00192371
-0.000276728
-0.00587862
-0.0157654
-0.0425326
-0.0839697
-0.103381
-0.154286
-0.204298
-0.291899
-0.262609
-0.0915429
-0.0248116
-0.00610063
-68.6515
58.3621
1.46126
1.15006
0.969449
0.754304
0.654208
0.540736
0.481696
0.400772
0.351279
0.2727
0.250162
0.255104
0.254741
0.246325
0.239029
0.224101
0.214519
0.198477
0.188864
0.173722
0.164904
0.151415
0.143795
0.132583
0.127051
0.120712
0.122774
0.138139
0.171873
0.122301
0.0880689
0.0749663
0.0638767
0.0586172
0.0521399
0.048675
0.0438077
0.041093
0.037113
0.0348539
0.0314795
0.0295364
0.0265851
0.0248415
0.0221125
0.0204077
0.017575
0.0156622
0.0123729
0.0114682
0.0118114
0.0118456
0.0115121
0.0111986
0.0105309
0.0100942
0.00935049
0.00889497
0.00815942
0.007704
0.00695396
0.0064325
0.00546341
0.00456794
0.00251923
-0.000124068
-0.00725076
-0.0191318
-0.0537176
-0.109365
-0.130857
-0.198356
-0.26032
-0.383149
-0.347033
-0.110904
-0.0285958
-0.00687119
-68.2658
55.7334
1.85135
1.39777
1.18711
0.913209
0.800233
0.656789
0.590223
0.487525
0.431367
0.329009
0.303539
0.312146
0.311972
0.301013
0.292719
0.273524
0.26266
0.242116
0.231229
0.211864
0.201881
0.184631
0.175999
0.161618
0.155313
0.146862
0.148991
0.167587
0.216364
0.148443
0.105995
0.0914086
0.0776196
0.0717161
0.0635008
0.0595877
0.0533834
0.0503134
0.0452336
0.0426778
0.03837
0.0361716
0.0324047
0.0304327
0.0269527
0.0250251
0.0214155
0.0192406
0.0149401
0.0139168
0.0144576
0.0145067
0.0140705
0.0137139
0.012855
0.0123599
0.0114077
0.0108919
0.0099525
0.00943758
0.00848352
0.00789584
0.00667572
0.00567346
0.00313857
0.000207965
-0.00843269
-0.02159
-0.06406
-0.136127
-0.156493
-0.242648
-0.313907
-0.480756
-0.439458
-0.124112
-0.0299565
-0.00699684
-67.8799
53.0814
2.28279
1.63576
1.4073
1.06568
0.947476
0.769767
0.700196
0.572416
0.513303
0.382242
0.355553
0.36954
0.369635
0.355596
0.346844
0.322613
0.311188
0.28537
0.273934
0.249631
0.239149
0.217502
0.208433
0.190331
0.183661
0.17259
0.17455
0.195827
0.265522
0.173567
0.122806
0.107819
0.0910472
0.0849076
0.0746897
0.0705921
0.0628339
0.0596142
0.0532533
0.050572
0.0451761
0.0428697
0.0381527
0.0360842
0.0317308
0.0297098
0.0251986
0.0229041
0.0173763
0.0163028
0.0171234
0.0171873
0.0166259
0.0162493
0.0151646
0.0146439
0.0134474
0.0129059
0.0117286
0.0111888
0.00999846
0.00938451
0.00787934
0.00684032
0.00377377
0.000768447
-0.00943389
-0.0228756
-0.0732185
-0.164957
-0.179497
-0.287535
-0.363671
-0.586688
-0.542845
-0.128472
-0.0284694
-0.00643281
-67.4938
50.4048
2.76474
1.85701
1.63202
1.20921
1.0971
0.87842
0.812497
0.65456
0.598117
0.431301
0.40594
0.42749
0.427864
0.409966
0.401589
0.37119
0.360293
0.328048
0.317154
0.286846
0.276863
0.24987
0.241228
0.218587
0.212185
0.197796
0.199335
0.222131
0.321147
0.197043
0.138187
0.124301
0.10405
0.0982624
0.0856339
0.0817431
0.072103
0.0690408
0.061126
0.0585749
0.0518588
0.0496643
0.0437948
0.0418272
0.0364157
0.0344943
0.0288931
0.026697
0.0196344
0.0186132
0.0198196
0.0198929
0.0191739
0.0188132
0.0174516
0.0169549
0.015461
0.0149454
0.0134793
0.012966
0.0114904
0.0109089
0.00906438
0.00808834
0.00440658
0.00161686
-0.0103055
-0.022685
-0.080721
-0.196874
-0.198761
-0.333697
-0.407559
-0.703294
-0.661053
-0.120258
-0.0238636
-0.00519812
-67.1075
47.7045
3.3067
2.05095
1.86466
1.34031
1.25099
0.980963
0.928479
0.732645
0.687346
0.474701
0.454451
0.486287
0.486823
0.463956
0.457215
0.418986
0.410251
0.369872
0.36115
0.323247
0.315258
0.281504
0.274584
0.246193
0.241028
0.222365
0.223271
0.245386
0.385697
0.217909
0.151769
0.141038
0.116474
0.111891
0.0962288
0.0931243
0.0811091
0.0786616
0.0687843
0.0667444
0.0583607
0.056606
0.0492809
0.0477081
0.0409611
0.039426
0.0324515
0.0306847
0.0216509
0.0208344
0.0225612
0.0226303
0.0217076
0.0214172
0.0197042
0.019306
0.0174356
0.0170229
0.015192
0.0147819
0.0129466
0.0124838
0.0102147
0.00944464
0.00500377
0.00283065
-0.0111586
-0.0206681
-0.0858986
-0.233362
-0.212703
-0.382303
-0.442572
-0.83342
-0.799203
-0.0942671
-0.0161487
-0.00338756
-66.721
44.9849
3.91808
2.20211
2.11081
1.45401
1.4121
1.0748
1.05019
0.804708
0.783268
0.510406
0.500878
0.546336
0.546719
0.517301
0.514101
0.465604
0.461475
0.41043
0.406314
0.358453
0.354684
0.312065
0.308798
0.27287
0.270412
0.246152
0.246359
0.263913
0.462571
0.234709
0.163135
0.158329
0.128098
0.125963
0.106322
0.104862
0.0897326
0.0885798
0.0761292
0.0751679
0.0645976
0.0637707
0.054537
0.0537961
0.0452981
0.0445754
0.0358016
0.0349631
0.0233388
0.0229541
0.0253691
0.0254075
0.0242161
0.0240781
0.0219042
0.021716
0.0193519
0.0191573
0.0168479
0.0166548
0.014348
0.0141311
0.0113052
0.0109478
0.00551032
0.00451715
-0.012191
-0.0164223
-0.0877868
-0.276574
-0.219035
-0.435281
-0.464361
-0.980547
-0.964181
-0.0432036
-0.00581947
-0.00117811
-66.3344
44.9849
3.91808
2.20211
2.11081
1.45401
1.4121
1.0748
1.05019
0.804708
0.783269
0.510406
0.500878
0.546336
0.546719
0.517302
0.514101
0.465604
0.461475
0.41043
0.406314
0.358453
0.354684
0.312066
0.308799
0.272871
0.270412
0.246152
0.246359
0.263914
0.462572
0.23471
0.163135
0.158329
0.128099
0.125963
0.106322
0.104862
0.0897329
0.0885801
0.0761294
0.0751681
0.0645978
0.0637709
0.0545372
0.0537963
0.0452983
0.0445756
0.0358018
0.0349632
0.0233388
0.0229541
0.0253692
0.0254075
0.0242162
0.0240782
0.0219043
0.0217161
0.0193521
0.0191574
0.016848
0.0166549
0.0143481
0.0141312
0.0113053
0.010948
0.0055105
0.00451735
-0.0121905
-0.0164217
-0.0877849
-0.276569
-0.219031
-0.435274
-0.464354
-0.980535
-0.964169
-0.0432031
-0.00581939
-0.00117813
-66.3345
47.7044
3.30669
2.05095
1.86466
1.34031
1.25099
0.980963
0.928479
0.732645
0.687346
0.474702
0.454451
0.486287
0.486823
0.463957
0.457216
0.418987
0.410251
0.369872
0.36115
0.323248
0.315258
0.281505
0.274584
0.246193
0.241029
0.222365
0.223272
0.245386
0.385698
0.217909
0.151769
0.141039
0.116474
0.111891
0.0962291
0.0931245
0.0811093
0.0786619
0.0687845
0.0667447
0.0583609
0.0566063
0.0492811
0.0477083
0.0409612
0.0394261
0.0324516
0.0306848
0.021651
0.0208345
0.0225613
0.0226304
0.0217077
0.0214173
0.0197043
0.0193061
0.0174357
0.017023
0.0151921
0.014782
0.0129467
0.012484
0.0102149
0.00944477
0.00500395
0.00283086
-0.0111582
-0.0206675
-0.0858968
-0.233358
-0.2127
-0.382297
-0.442565
-0.833409
-0.799193
-0.0942658
-0.0161485
-0.00338754
-66.721
50.4048
2.76473
1.85701
1.63202
1.20921
1.0971
0.87842
0.812497
0.65456
0.598117
0.431301
0.40594
0.42749
0.427864
0.409967
0.40159
0.37119
0.360293
0.328048
0.317154
0.286846
0.276863
0.24987
0.241229
0.218587
0.212185
0.197796
0.199336
0.222131
0.321148
0.197043
0.138187
0.124302
0.10405
0.0982627
0.0856342
0.0817434
0.0721032
0.069041
0.0611262
0.0585751
0.051859
0.0496645
0.0437949
0.0418274
0.0364158
0.0344944
0.0288932
0.0266971
0.0196345
0.0186132
0.0198197
0.019893
0.019174
0.0188133
0.0174517
0.016955
0.0154612
0.0149455
0.0134794
0.0129661
0.0114905
0.010909
0.00906449
0.00808846
0.00440675
0.00161707
-0.010305
-0.0226844
-0.0807193
-0.19687
-0.198758
-0.333692
-0.407553
-0.703286
-0.661045
-0.120256
-0.0238633
-0.00519803
-67.1075
53.0814
2.28279
1.63576
1.4073
1.06568
0.947476
0.769767
0.700196
0.572416
0.513303
0.382243
0.355553
0.369541
0.369635
0.355596
0.346845
0.322613
0.311189
0.28537
0.273934
0.249632
0.239149
0.217502
0.208433
0.190331
0.183661
0.17259
0.17455
0.195827
0.265523
0.173567
0.122806
0.107819
0.0910474
0.0849079
0.07469
0.0705923
0.0628341
0.0596144
0.0532535
0.0505722
0.0451763
0.0428699
0.0381528
0.0360843
0.0317309
0.0297099
0.0251987
0.0229042
0.0173764
0.0163029
0.0171235
0.0171874
0.016626
0.0162494
0.0151646
0.0146439
0.0134475
0.012906
0.0117287
0.0111889
0.00999855
0.0093846
0.00787944
0.00684043
0.00377391
0.000768633
-0.00943353
-0.022875
-0.073217
-0.164954
-0.179494
-0.28753
-0.363666
-0.586681
-0.542839
-0.128471
-0.028469
-0.00643267
-67.4938
55.7334
1.85135
1.39777
1.18711
0.913209
0.800233
0.656789
0.590223
0.487525
0.431367
0.329009
0.303539
0.312146
0.311972
0.301014
0.292719
0.273524
0.26266
0.242116
0.231229
0.211864
0.201881
0.184631
0.175999
0.161619
0.155313
0.146863
0.148991
0.167587
0.216364
0.148443
0.105995
0.0914089
0.0776198
0.0717164
0.063501
0.0595879
0.0533836
0.0503135
0.0452337
0.042678
0.0383701
0.0361718
0.0324049
0.0304328
0.0269528
0.0250252
0.0214156
0.0192407
0.0149402
0.0139168
0.0144576
0.0145068
0.0140706
0.013714
0.0128551
0.0123599
0.0114077
0.010892
0.00995257
0.00943766
0.00848359
0.00789591
0.0066758
0.00567355
0.00313869
0.000208128
-0.00843238
-0.0215895
-0.0640588
-0.136125
-0.156491
-0.242644
-0.313903
-0.480749
-0.439453
-0.12411
-0.0299561
-0.00699666
-67.8799
58.3621
1.46125
1.15006
0.969448
0.754304
0.654208
0.540736
0.481696
0.400772
0.351279
0.2727
0.250162
0.255104
0.254741
0.246325
0.239029
0.224101
0.21452
0.198477
0.188864
0.173722
0.164905
0.151415
0.143795
0.132583
0.127052
0.120712
0.122775
0.13814
0.171874
0.122301
0.0880692
0.0749665
0.0638769
0.0586174
0.0521401
0.0486751
0.0438078
0.0410932
0.0371131
0.034854
0.0314797
0.0295365
0.0265852
0.0248416
0.0221126
0.0204077
0.0175751
0.0156623
0.0123729
0.0114683
0.0118115
0.0118457
0.0115122
0.0111986
0.010531
0.0100943
0.00935055
0.00889503
0.00815948
0.00770406
0.00695402
0.00643256
0.00546348
0.00456801
0.00251933
-0.000123933
-0.00725051
-0.0191314
-0.0537166
-0.109363
-0.130855
-0.198353
-0.260316
-0.383144
-0.347029
-0.110902
-0.0285953
-0.00687099
-68.2658
60.9706
1.10392
0.897128
0.753167
0.590797
0.508719
0.422505
0.374043
0.312763
0.272355
0.21415
0.195686
0.198273
0.197832
0.191591
0.185645
0.174465
0.166637
0.15458
0.146719
0.135327
0.128115
0.117965
0.111735
0.10332
0.0988221
0.0942257
0.0960257
0.107958
0.130716
0.0955453
0.0692983
0.0584437
0.0499009
0.0455673
0.0406588
0.0378185
0.034146
0.0319235
0.0289237
0.0270747
0.024532
0.0229416
0.0207173
0.0192899
0.0172316
0.0158355
0.0136979
0.012139
0.00971033
0.00896983
0.00917774
0.00919932
0.00895294
0.00869753
0.00819769
0.00784091
0.00728188
0.00690928
0.00635523
0.00598228
0.00541535
0.00498715
0.00424825
0.00350864
0.00192379
-0.000276622
-0.00587843
-0.0157651
-0.0425318
-0.0839682
-0.103379
-0.154284
-0.204295
-0.291896
-0.262605
-0.0915416
-0.0248113
-0.00610043
-68.6515
63.5626
0.771326
0.641683
0.537622
0.424079
0.363395
0.302764
0.266904
0.223918
0.194143
0.154009
0.140367
0.141564
0.141154
0.136846
0.13247
0.124695
0.118924
0.110516
0.104716
0.0967646
0.0914425
0.0843579
0.0797621
0.0739005
0.0705968
0.0674836
0.0688716
0.0773425
0.091875
0.0684327
0.0499118
0.0418286
0.0357566
0.0325402
0.0290948
0.0269953
0.0244263
0.022785
0.0206883
0.0193232
0.0175464
0.0163721
0.0148175
0.0137636
0.0123241
0.011293
0.00979766
0.00865048
0.00698024
0.00643348
0.00655148
0.00656372
0.00639411
0.00620622
0.00585871
0.00559568
0.00520578
0.00493083
0.00454376
0.0042683
0.00387115
0.00355419
0.00303308
0.00248311
0.0013529
-0.000293224
-0.00433491
-0.0117235
-0.0307602
-0.0594539
-0.0746437
-0.11025
-0.14677
-0.205323
-0.183853
-0.0680075
-0.0191064
-0.00478001
-69.0369
66.1424
0.456006
0.385214
0.322456
0.255246
0.218069
0.182032
0.160049
0.134545
0.116344
0.0928095
0.0844553
0.0849185
0.0846328
0.0821037
0.0794312
0.0748452
0.0713161
0.0663472
0.062799
0.0580971
0.0548408
0.0506513
0.0478401
0.0443787
0.0423638
0.0405614
0.0414342
0.0464851
0.0545533
0.0411233
0.0301078
0.025133
0.0214981
0.0195223
0.0174771
0.016191
0.0146695
0.0136647
0.0124237
0.0115882
0.0105366
0.00981793
0.0088978
0.00825263
0.00740031
0.00676901
0.00588349
0.00518293
0.00420524
0.00387057
0.00392948
0.00393542
0.00383604
0.00372132
0.00351639
0.00335555
0.00312511
0.00295687
0.00272785
0.0025592
0.00232377
0.00212942
0.00181908
0.0014808
0.000802667
-0.000213982
-0.00265749
-0.00721598
-0.0186022
-0.0354797
-0.0450913
-0.0661802
-0.088364
-0.121951
-0.108875
-0.0417955
-0.0120186
-0.00304186
-69.4222
68.715
0.150879
0.128425
0.107468
0.0852119
0.072697
0.0607381
0.0533357
0.0448794
0.0387596
0.0310024
0.0281908
0.0283033
0.0282012
0.0273671
0.0264688
0.0249528
0.0237659
0.0221217
0.0209282
0.0193718
0.0182764
0.0168897
0.015944
0.0147991
0.0141224
0.0135323
0.0138298
0.0155071
0.0180917
0.0137174
0.0100623
0.00838391
0.00717329
0.00650727
0.00582895
0.00539604
0.00489203
0.00455393
0.00414298
0.00386182
0.00351363
0.0032718
0.0029671
0.00275
0.0024677
0.00225526
0.00196193
0.00172649
0.00140454
0.00129192
0.00130961
0.00131135
0.0012786
0.00124005
0.00117231
0.00111822
0.00104196
0.000985367
0.000909536
0.00085278
0.000774756
0.000709304
0.000606212
0.000492107
0.000265987
-7.76514e-05
-0.000895461
-0.00243532
-0.00622449
-0.0117961
-0.0150798
-0.0220661
-0.0295014
-0.040446
-0.0360573
-0.0140915
-0.00409869
-0.00104341
-69.8074
68.7222
0.136747
0.103799
0.077763
0.0524444
0.0390549
0.0275035
0.0210896
0.0150025
0.0125849
0.011923
0.0115729
0.0110197
0.0105816
0.00996784
0.00952194
0.00893968
0.00852174
0.00797859
0.00758768
0.00707817
0.00671281
0.00623973
0.00590862
0.00549559
0.00524283
0.00500656
0.00508514
0.00563374
0.00650301
0.0048673
0.00348885
0.00284944
0.0023797
0.00212023
0.00185603
0.00168888
0.00149669
0.00136959
0.00121771
0.00111547
0.000991178
0.000906383
0.000801685
0.000728754
0.00063634
0.000569222
0.000480023
0.0004118
0.000321229
0.000282453
0.000267751
0.000251495
0.000217438
0.0001845
0.000130047
8.13717e-05
4.04921e-06
-6.61876e-05
-0.000179962
-0.000287782
-0.000468838
-0.000650841
-0.00097187
-0.00132594
-0.002001
-0.00287834
-0.00478081
-0.0079323
-0.0152955
-0.0252161
-0.0278852
-0.0350237
-0.0427896
-0.0539055
-0.0469694
-0.0182866
-0.00531277
-0.00135203
-69.1029
66.1646
0.413695
0.31112
0.23326
0.156856
0.117091
0.0823049
0.0632558
0.0448606
0.0376845
0.0357564
0.0347269
0.0330546
0.031752
0.0298968
0.0285713
0.0268125
0.0255702
0.0239297
0.0227678
0.0212287
0.0201427
0.0187135
0.0177291
0.0164804
0.0157278
0.0150071
0.0152366
0.0168884
0.0196092
0.0145916
0.010437
0.00854152
0.00713068
0.00636088
0.00556422
0.00506763
0.00448748
0.00410977
0.00365114
0.00334729
0.00297195
0.00271994
0.00240378
0.00218704
0.00190801
0.00170855
0.00143923
0.00123629
0.000961615
0.000846395
0.000803315
0.000755195
0.000652269
0.000554361
0.000389909
0.00024526
1.18636e-05
-0.000196822
-0.000540126
-0.000860418
-0.00140648
-0.00194696
-0.00291429
-0.00396497
-0.00599491
-0.00859403
-0.0142925
-0.0236284
-0.0457842
-0.0759382
-0.0834768
-0.105046
-0.128235
-0.162439
-0.141778
-0.0542314
-0.0155778
-0.00394151
-67.3086
63.6006
0.701115
0.517453
0.3887
0.259802
0.194928
0.136477
0.105396
0.07427
0.0625743
0.0595539
0.0579066
0.0550748
0.0529444
0.0498046
0.0476379
0.0446646
0.0426346
0.0398616
0.037963
0.0353612
0.0335864
0.0311695
0.0295602
0.0274453
0.0262116
0.0249696
0.0253312
0.0281003
0.0330249
0.0242814
0.0172948
0.0142142
0.011856
0.0106026
0.00926039
0.00844973
0.00747016
0.00685318
0.00607837
0.00558197
0.00494779
0.00453607
0.0040019
0.00364781
0.00317649
0.00285067
0.00239578
0.00206365
0.00159562
0.00140745
0.00133908
0.00126109
0.0010869
0.000926882
0.000648976
0.000412697
1.86877e-05
-0.000322073
-0.000901212
-0.00142402
-0.00234434
-0.00322601
-0.00485338
-0.00656484
-0.00996606
-0.0141857
-0.0236587
-0.0388118
-0.075953
-0.127565
-0.138507
-0.175003
-0.213239
-0.273166
-0.239262
-0.0882205
-0.0247621
-0.00619347
-65.5142
61.0261
1.00634
0.72159
0.544144
0.360187
0.272508
0.189554
0.147538
0.102902
0.087117
0.0832965
0.0811337
0.0770668
0.0741772
0.0696734
0.0667368
0.062479
0.0597288
0.0557586
0.0531863
0.0494605
0.0470557
0.0435932
0.0414115
0.0383749
0.0366956
0.0348679
0.0353295
0.0392259
0.0469874
0.0339009
0.0239963
0.019858
0.0165371
0.0148479
0.0129353
0.0118386
0.0104383
0.0096029
0.00849446
0.00782215
0.00691472
0.00635708
0.00559281
0.00511327
0.00443915
0.00399794
0.00334741
0.00289645
0.00221843
0.00196371
0.00187522
0.00177082
0.00152095
0.00130411
0.000906376
0.00058644
2.33785e-05
-0.000437792
-0.00126455
-0.00197173
-0.00328375
-0.00447524
-0.0067891
-0.00909712
-0.0139045
-0.0195673
-0.0327976
-0.0531156
-0.105543
-0.180819
-0.192516
-0.244891
-0.297376
-0.387647
-0.341432
-0.118706
-0.0321509
-0.0079039
-63.7196
58.4374
1.33722
0.921434
0.69985
0.456721
0.349899
0.240994
0.189784
0.13038
0.111181
0.106973
0.104437
0.0990118
0.0954746
0.0894796
0.0858886
0.0802331
0.0768717
0.0715997
0.0684558
0.0635071
0.0605674
0.0559656
0.0532971
0.0492503
0.0471856
0.0446747
0.0451904
0.0501969
0.0617837
0.0433931
0.0304671
0.0254691
0.021153
0.019102
0.0165776
0.0152395
0.0133839
0.0123635
0.0108931
0.0100717
0.00886765
0.00818636
0.00717232
0.00658651
0.00569248
0.00515359
0.00429106
0.00373832
0.0028243
0.00251331
0.002412
0.00228637
0.00195369
0.00168858
0.00116066
0.000769903
2.39892e-05
-0.000538893
-0.00163268
-0.00249525
-0.00422799
-0.00567957
-0.00872507
-0.0115294
-0.0178087
-0.0246462
-0.0416531
-0.0661351
-0.134219
-0.236616
-0.244897
-0.314775
-0.380002
-0.507588
-0.450662
-0.143745
-0.0370473
-0.00890162
-61.9248
55.831
1.70235
1.11351
0.856417
0.547802
0.427374
0.290125
0.232358
0.15625
0.134646
0.130582
0.127856
0.120881
0.11687
0.10919
0.105123
0.0978954
0.0940911
0.0873556
0.0837974
0.0774732
0.0741455
0.0682607
0.0652377
0.0600464
0.0576934
0.0543604
0.0548716
0.0609047
0.0777792
0.0526667
0.0366208
0.0310529
0.0256782
0.0233751
0.0201724
0.0186612
0.016296
0.0151421
0.0132657
0.0123366
0.0107997
0.0100289
0.0087347
0.00807206
0.0069316
0.00632217
0.0052223
0.00459463
0.00340605
0.00305453
0.00294975
0.0028102
0.00238371
0.00208355
0.00140945
0.000967566
1.72725e-05
-0.000618762
-0.00201007
-0.00298397
-0.00518348
-0.00682016
-0.0106707
-0.0138228
-0.0216905
-0.0293184
-0.0502096
-0.0774106
-0.161523
-0.296177
-0.294814
-0.384845
-0.460133
-0.634909
-0.569892
-0.160776
-0.0388016
-0.00906371
-60.1296
53.2045
2.11116
1.29232
1.01504
0.631356
0.505521
0.336078
0.275666
0.17994
0.157408
0.154138
0.151444
0.142632
0.138413
0.128755
0.124484
0.115421
0.111428
0.102985
0.0992497
0.0913195
0.0878259
0.0804413
0.077265