/*--------------------------------*- C++ -*----------------------------------*\
| =========                 |                                                 |
| \\      /  F ield         | OpenFOAM: The Open Source CFD Toolbox           |
|  \\    /   O peration     | Version:  5.x                                   |
|   \\  /    A nd           | Web:      www.OpenFOAM.org                      |
|    \\/     M anipulation  |                                                 |
\*---------------------------------------------------------------------------*/
FoamFile
{
    version     2.0;
    format      ascii;
    class       volScalarField;
    location    "6.1";
    object      gradTy;
}
// * * * * * * * * * * * * * * * * * * * * * * * * * * * * * * * * * * * * * //

dimensions      [0 -1 0 1 0 0 0];

internalField   nonuniform List<scalar> 
3200
(
18.2496
8.63622
11.7304
8.31281
9.75024
8.04023
8.79442
7.79318
8.24208
7.60125
7.87665
7.51778
7.72823
7.31791
7.53015
7.13989
7.33906
6.9805
7.16227
6.83836
7.00168
6.71273
6.85782
6.60268
6.7307
6.50653
6.62079
6.42114
6.53613
6.36699
6.23181
6.31898
6.20048
6.25814
6.16597
6.21063
6.13663
6.17255
6.11241
6.14161
6.09256
6.11635
6.0764
6.09571
6.06342
6.07886
6.05329
6.06519
6.04608
6.05426
6.04318
6.04932
6.03776
6.04314
6.03422
6.03783
6.03293
6.03396
6.03464
6.03196
6.04073
6.03238
6.05374
6.03591
6.0787
6.04284
6.12658
6.04842
6.22321
6.00082
6.29318
7.1088
6.42161
7.94748
6.78053
9.89586
9.12532
9.00748
8.98316
8.97792
17.01
9.75216
11.3327
8.77678
9.54744
8.27039
8.67416
7.92569
8.16489
7.68542
7.83247
7.56459
7.67675
7.36936
7.48148
7.18913
7.29444
7.02587
7.12201
6.8794
6.9658
6.74939
6.82615
6.63507
6.70283
6.53497
6.59563
6.44631
6.50865
6.37076
6.25668
6.30458
6.21608
6.24682
6.17784
6.20152
6.14611
6.16514
6.1201
6.13557
6.09884
6.11144
6.08152
6.09174
6.06756
6.07573
6.05658
6.06287
6.04856
6.0529
6.04463
6.04789
6.03923
6.04206
6.03538
6.03728
6.0336
6.03413
6.03463
6.03319
6.03974
6.03527
6.05124
6.04169
6.07365
6.05435
6.11677
6.07399
6.20341
6.07622
6.35166
6.99352
6.62342
7.76484
7.1579
9.50259
9.09919
9.00372
8.98237
8.97768
16.0606
10.5145
11.1005
9.10768
9.42654
8.43331
8.59998
8.01867
8.11642
7.74452
7.80487
7.5962
7.64204
7.40401
7.44897
7.22245
7.26475
7.05662
7.09528
6.90726
6.94202
6.7743
6.80518
6.65709
6.68438
6.55427
6.57885
6.463
6.48917
6.37356
6.27506
6.29563
6.2269
6.23948
6.18599
6.19556
6.15261
6.16028
6.12537
6.13161
6.10313
6.10821
6.08502
6.08914
6.07039
6.07369
6.05885
6.06137
6.05028
6.05205
6.04561
6.04694
6.04023
6.04136
6.03619
6.03694
6.0341
6.0343
6.0347
6.03409
6.03918
6.03734
6.04975
6.04581
6.07065
6.06259
6.11117
6.09267
6.19388
6.13551
6.39548
6.91872
6.76478
7.65214
7.41722
9.21927
9.06076
8.99701
8.98093
8.97728
15.3331
11.0317
10.9714
9.34611
9.35812
8.54983
8.55572
8.0845
8.08675
7.78632
7.78803
7.61762
7.61868
7.42734
7.42731
7.24501
7.24508
7.07751
7.07762
6.92622
6.92633
6.79126
6.79137
6.67209
6.67223
6.56738
6.56769
6.47401
6.47535
6.37569
6.28868
6.29026
6.23447
6.23478
6.19161
6.19171
6.15708
6.15713
6.129
6.12904
6.10609
6.10612
6.08743
6.08745
6.07235
6.07237
6.06041
6.06042
6.0515
6.05153
6.04628
6.0463
6.04092
6.04092
6.03676
6.03675
6.03447
6.03446
6.0348
6.03477
6.03891
6.03885
6.04891
6.04877
6.06896
6.06856
6.10825
6.10656
6.19073
6.18206
6.42877
6.871
6.86449
7.58433
7.59507
9.01437
9.01854
8.98839
8.979
8.97674
14.7776
11.3791
10.9049
9.51904
9.32251
8.63378
8.53054
8.13138
8.06918
7.81604
7.77807
7.63218
7.60302
7.44302
7.41295
7.26028
7.23211
7.09169
7.06601
6.93911
6.91605
6.80282
6.78234
6.68232
6.66427
6.57627
6.56028
6.48122
6.46558
6.3773
6.29876
6.28717
6.2398
6.23182
6.19551
6.18924
6.16016
6.15511
6.13149
6.12738
6.10813
6.10477
6.08909
6.08637
6.0737
6.07153
6.06151
6.05983
6.05235
6.05121
6.04674
6.04589
6.0414
6.04063
6.03716
6.03665
6.03476
6.0346
6.03492
6.03528
6.0388
6.03994
6.04849
6.05093
6.0681
6.07293
6.10698
6.11702
6.19129
6.2184
6.45423
6.84124
6.93514
7.54489
7.71657
8.86607
8.97769
8.97895
8.97679
8.9761
14.3581
11.6096
10.8749
9.64441
9.30659
8.69431
8.51719
8.16479
8.05925
7.83716
7.77243
7.64207
7.59258
7.4535
7.40349
7.27056
7.22364
7.10128
7.05846
6.94785
6.90938
6.81066
6.77649
6.68926
6.65911
6.58229
6.5554
6.48589
6.45871
6.37852
6.30615
6.28552
6.24355
6.23
6.1982
6.18769
6.16229
6.15383
6.13321
6.12633
6.10953
6.10392
6.09024
6.08569
6.07464
6.071
6.06226
6.05946
6.05295
6.05103
6.04706
6.04562
6.04173
6.04046
6.03745
6.0366
6.03497
6.03473
6.03503
6.03566
6.03878
6.04075
6.0483
6.05249
6.06773
6.07613
6.10667
6.1249
6.19374
6.24639
6.47366
6.8232
6.98516
7.52297
7.79895
8.75929
8.94126
8.96964
8.97451
8.97544
14.0485
11.7595
10.8647
9.73406
9.30164
8.73744
8.51086
8.18832
8.05398
7.85197
7.76942
7.64873
7.58574
7.46042
7.39735
7.27741
7.21818
7.10769
7.05362
6.9537
6.90511
6.81593
6.77276
6.69393
6.65582
6.58631
6.55222
6.48887
6.45396
6.37944
6.31148
6.28472
6.24616
6.2289
6.20004
6.18673
6.16373
6.15303
6.13438
6.12568
6.11048
6.10339
6.09102
6.08527
6.07527
6.07068
6.06278
6.05924
6.05337
6.05093
6.04727
6.04544
6.04195
6.04036
6.03766
6.03658
6.03513
6.03483
6.03513
6.03594
6.03882
6.04132
6.04825
6.05361
6.06763
6.07845
6.10686
6.13076
6.19684
6.26739
6.48819
6.81266
7.02015
7.51153
7.85397
8.68364
8.91097
8.96127
8.97239
8.97481
13.8305
11.8537
10.864
9.79578
9.30197
8.76706
8.50837
8.20432
8.05141
7.86201
7.76793
7.65308
7.58138
7.46485
7.39348
7.28183
7.21477
7.11184
7.0506
6.9575
6.90247
6.81935
6.77045
6.69696
6.65378
6.58892
6.55022
6.49071
6.45079
6.38009
6.31515
6.28439
6.24792
6.22827
6.20126
6.18616
6.16468
6.15255
6.13515
6.12529
6.1111
6.10307
6.09153
6.08502
6.07569
6.07049
6.06313
6.05912
6.05365
6.05088
6.04741
6.04533
6.0421
6.0403
6.03779
6.03658
6.03524
6.03491
6.03522
6.03614
6.03886
6.04172
6.04827
6.05438
6.06766
6.08006
6.10722
6.13494
6.19976
6.28239
6.49857
6.80681
7.04377
7.50604
7.88949
8.63209
8.88776
8.95447
8.97063
8.97428
13.6916
11.9084
10.8664
9.83453
9.30394
8.78563
8.50769
8.21428
8.05031
7.86824
7.76727
7.6557
7.57882
7.46747
7.39122
7.28446
7.21279
7.11432
7.04887
6.95978
6.90095
6.8214
6.76913
6.69878
6.65261
6.59047
6.54904
6.49176
6.44886
6.3805
6.31746
6.28429
6.24901
6.22793
6.202
6.18584
6.16526
6.15229
6.13561
6.12507
6.11148
6.1029
6.09184
6.08487
6.07595
6.07038
6.06334
6.05905
6.05383
6.05085
6.0475
6.04527
6.04218
6.04026
6.03788
6.03659
6.03532
6.03496
6.03527
6.03627
6.0389
6.04198
6.0483
6.05487
6.06773
6.08108
6.10757
6.13763
6.20197
6.29204
6.50527
6.8038
7.05839
7.50371
7.91065
8.60002
8.87211
8.94969
8.96936
8.9739
13.6239
11.9334
10.8684
9.85322
9.30542
8.79459
8.50762
8.21906
8.04992
7.87122
7.76703
7.65693
7.57763
7.46869
7.39018
7.28569
7.21189
7.11548
7.04808
6.96085
6.90026
6.82237
6.76852
6.69964
6.65208
6.5912
6.5485
6.49224
6.44794
6.38071
6.31857
6.28427
6.24953
6.22778
6.20235
6.1857
6.16553
6.15217
6.13583
6.12497
6.11166
6.10282
6.09198
6.08481
6.07607
6.07034
6.06344
6.05903
6.05391
6.05084
6.04754
6.04524
6.04223
6.04025
6.03792
6.03659
6.03535
6.03499
6.0353
6.03633
6.03893
6.0421
6.04832
6.05511
6.06777
6.08158
6.10777
6.13895
6.20315
6.29677
6.50856
6.80256
7.06538
7.50291
7.92051
8.58464
8.86425
8.94723
8.9687
8.9737
-13.7592
-11.9537
-10.7247
-9.38554
-8.57512
-7.68325
-7.12129
-6.4694
-6.05436
-5.57228
-5.27884
-4.95322
-4.71561
-4.38711
-4.15144
-3.83976
-3.62194
-3.34077
-3.14653
-2.89842
-2.7279
-2.51108
-2.36231
-2.17337
-2.04339
-1.87748
-1.76096
-1.60702
-1.48464
-1.29705
-1.12142
-1.02285
-0.920567
-0.855268
-0.77721
-0.725121
-0.66068
-0.617186
-0.562873
-0.526093
-0.48004
-0.448843
-0.409789
-0.383395
-0.350464
-0.328382
-0.301125
-0.283261
-0.261898
-0.248714
-0.233849
-0.222901
-0.207653
-0.196668
-0.18208
-0.171861
-0.158637
-0.149492
-0.137802
-0.129781
-0.119615
-0.112721
-0.104122
-0.0985278
-0.091996
-0.0886634
-0.0866529
-0.0901219
-0.104418
-0.138379
-0.228554
-0.374762
-0.529415
-0.816
-1.11875
-1.628
-1.84342
-1.90744
-1.92401
-1.92786
-13.8314
-11.9307
-10.7291
-9.36439
-8.57838
-7.67006
-7.12489
-6.45993
-6.05705
-5.56474
-5.28013
-4.9497
-4.71925
-4.3834
-4.15449
-3.83601
-3.62448
-3.33729
-3.14869
-2.89532
-2.72975
-2.50836
-2.36392
-2.17102
-2.04483
-1.87551
-1.76246
-1.60576
-1.48725
-1.29658
-1.11834
-1.023
-0.91909
-0.855781
-0.776174
-0.725617
-0.659845
-0.617621
-0.562174
-0.526466
-0.479447
-0.44916
-0.409284
-0.383658
-0.350032
-0.328591
-0.30075
-0.283402
-0.261572
-0.248782
-0.233693
-0.223075
-0.207484
-0.196813
-0.181907
-0.171982
-0.158475
-0.149595
-0.137656
-0.129868
-0.119485
-0.11279
-0.104003
-0.0985662
-0.0918689
-0.0886113
-0.0864345
-0.0896895
-0.103632
-0.136131
-0.226313
-0.374425
-0.524138
-0.815354
-1.11049
-1.63975
-1.84948
-1.90933
-1.92452
-1.92802
-13.9796
-11.8797
-10.7401
-9.3201
-8.58654
-7.64235
-7.13329
-6.43998
-6.06332
-5.54889
-5.28326
-4.94219
-4.72711
-4.37542
-4.16112
-3.82798
-3.63005
-3.32988
-3.15345
-2.88872
-2.73385
-2.50257
-2.36748
-2.166
-2.048
-1.87129
-1.76571
-1.60297
-1.49275
-1.29561
-1.11194
-1.0235
-0.915992
-0.856949
-0.773978
-0.726725
-0.65807
-0.618587
-0.560688
-0.527294
-0.478188
-0.449861
-0.408211
-0.384243
-0.349114
-0.329057
-0.299958
-0.283725
-0.260886
-0.248945
-0.233361
-0.223448
-0.20712
-0.197129
-0.181535
-0.172248
-0.158129
-0.149822
-0.137345
-0.13006
-0.119208
-0.112944
-0.103751
-0.0986558
-0.091605
-0.0885168
-0.0859996
-0.0888303
-0.102105
-0.131577
-0.221755
-0.374024
-0.5132
-0.81455
-1.09286
-1.66428
-1.86153
-1.91302
-1.92549
-1.92831
-14.2119
-11.7902
-10.7623
-9.24836
-8.60313
-7.59723
-7.14906
-6.40737
-6.0751
-5.5231
-5.28942
-4.92965
-4.74044
-4.36195
-4.17251
-3.81456
-3.63972
-3.31753
-3.16174
-2.87772
-2.741
-2.49293
-2.37369
-2.15765
-2.05353
-1.86423
-1.77125
-1.59809
-1.50174
-1.29411
-1.10174
-1.02477
-0.910958
-0.859077
-0.770357
-0.728691
-0.655131
-0.620293
-0.558223
-0.528752
-0.4761
-0.451098
-0.406434
-0.385277
-0.347596
-0.329887
-0.298653
-0.284313
-0.259766
-0.249254
-0.232803
-0.22408
-0.206503
-0.197671
-0.180913
-0.172709
-0.157552
-0.150216
-0.136828
-0.130395
-0.11875
-0.113216
-0.103335
-0.0988247
-0.0911836
-0.0884004
-0.0853516
-0.0875542
-0.0999302
-0.124595
-0.214715
-0.374147
-0.495777
-0.814668
-1.06352
-1.70378
-1.87941
-1.91826
-1.92685
-1.92872
-14.541
-11.6451
-10.8039
-9.14188
-8.63415
-7.52982
-7.17658
-6.3584
-6.09568
-5.48458
-5.30062
-4.91029
-4.76135
-4.34092
-4.19065
-3.79381
-3.65528
-3.29852
-3.17516
-2.86084
-2.75261
-2.47815
-2.38378
-2.14482
-2.06246
-1.85333
-1.78
-1.59014
-1.51518
-1.292
-1.08693
-1.02751
-0.90345
-0.862681
-0.764856
-0.731936
-0.650645
-0.62309
-0.554458
-0.53114
-0.472908
-0.453124
-0.403718
-0.386973
-0.34528
-0.33126
-0.296674
-0.285311
-0.258086
-0.249803
-0.231937
-0.225068
-0.205538
-0.198531
-0.17995
-0.173449
-0.156663
-0.150854
-0.136034
-0.13094
-0.118047
-0.113663
-0.102706
-0.0991198
-0.0905687
-0.0882954
-0.0844945
-0.085872
-0.0972648
-0.114995
-0.204902
-0.375782
-0.470463
-0.817588
-1.01851
-1.76187
-1.90276
-1.92471
-1.92848
-1.9292
-14.986
-11.4177
-10.8783
-8.98923
-8.68904
-7.43236
-7.2227
-6.2872
-6.1302
-5.42899
-5.32008
-4.88127
-4.79313
-4.30909
-4.21865
-3.76273
-3.67958
-3.27018
-3.19623
-2.83571
-2.77088
-2.45617
-2.39966
-2.12573
-2.07647
-1.83699
-1.79342
-1.5776
-1.53454
-1.28916
-1.0663
-1.03284
-0.892614
-0.868571
-0.756762
-0.737119
-0.644013
-0.627533
-0.548882
-0.534927
-0.46818
-0.456337
-0.399697
-0.38967
-0.341859
-0.333457
-0.293768
-0.286946
-0.255651
-0.250736
-0.230633
-0.226563
-0.204074
-0.199855
-0.178505
-0.174601
-0.155337
-0.151853
-0.134852
-0.131798
-0.117006
-0.114374
-0.101783
-0.0996144
-0.0897037
-0.0882525
-0.083431
-0.0837899
-0.0943466
-0.102509
-0.191851
-0.380466
-0.435051
-0.826356
-0.951805
-1.84405
-1.93086
-1.93189
-1.93023
-1.9297
-15.5737
-11.0692
-11.0068
-8.77302
-8.7822
-7.29303
-7.29787
-6.18488
-6.18649
-5.3497
-5.35275
-4.83824
-4.84074
-4.26152
-4.26128
-3.71675
-3.71693
-3.22843
-3.22877
-2.79877
-2.79915
-2.42386
-2.42424
-2.09766
-2.09809
-1.81282
-1.81373
-1.55815
-1.56201
-1.28543
-1.03809
-1.04244
-0.877134
-0.877974
-0.744984
-0.745243
-0.634318
-0.634465
-0.540721
-0.540828
-0.461259
-0.461343
-0.393814
-0.39388
-0.336864
-0.336907
-0.289549
-0.289561
-0.252161
-0.252279
-0.22869
-0.228797
-0.20188
-0.201866
-0.176363
-0.17637
-0.15338
-0.153394
-0.133113
-0.133127
-0.115479
-0.115485
-0.100444
-0.10042
-0.0885011
-0.0883452
-0.0821611
-0.0813007
-0.0915249
-0.0867758
-0.17483
-0.390511
-0.386171
-0.845758
-0.854428
-1.95845
-1.9624
-1.93918
-1.93194
-1.93019
-16.3416
-10.5431
-11.2221
-8.46711
-8.93529
-7.09395
-7.41774
-6.03797
-6.27633
-5.23682
-5.40612
-4.77453
-4.91163
-4.1908
-4.32569
-3.64899
-3.77383
-3.16712
-3.27852
-2.74461
-2.84244
-2.37653
-2.4619
-2.05652
-2.13114
-1.77721
-1.84431
-1.52833
-1.6007
-1.28054
-0.999824
-1.05883
-0.855011
-0.892733
-0.727879
-0.757817
-0.620183
-0.645156
-0.528808
-0.549919
-0.451153
-0.469057
-0.38523
-0.400375
-0.329589
-0.342255
-0.283437
-0.293674
-0.247173
-0.254771
-0.2258
-0.232113
-0.198611
-0.204898
-0.173203
-0.179059
-0.150504
-0.155749
-0.130564
-0.135164
-0.113247
-0.117198
-0.0985059
-0.101701
-0.086829
-0.0886799
-0.080679
-0.0783689
-0.0893028
-0.0673316
-0.152704
-0.409357
-0.318733
-0.883197
-0.713237
-2.11686
-1.99502
-1.94583
-1.93342
-1.9306
-17.3414
-9.75778
-11.5747
-8.03228
-9.18077
-6.80826
-7.60577
-5.82634
-6.41729
-5.0756
-5.49153
-4.68008
-5.01684
-4.08585
-4.42256
-3.54917
-3.86001
-3.0771
-3.3541
-2.66519
-2.9083
-2.30716
-2.51919
-1.99618
-2.18134
-1.72476
-1.89021
-1.48298
-1.65509
-1.27407
-0.947969
-1.08574
-0.823229
-0.915598
-0.702985
-0.777096
-0.599547
-0.661502
-0.511398
-0.563806
-0.436383
-0.480841
-0.372688
-0.410309
-0.318977
-0.350464
-0.274565
-0.300059
-0.240022
-0.258728
-0.2215
-0.237024
-0.193752
-0.209451
-0.168541
-0.183126
-0.146278
-0.159321
-0.126824
-0.138262
-0.109981
-0.119818
-0.0956929
-0.103707
-0.0844888
-0.0894095
-0.0789701
-0.0749081
-0.0883977
-0.0435943
-0.123727
-0.442095
-0.225093
-0.950013
-0.509103
-2.33628
-2.02474
-1.95101
-1.93452
-1.93091
-18.6447
-8.59661
-12.1419
-7.40993
-9.56722
-6.3959
-7.89701
-5.52003
-6.63567
-4.8442
-5.62616
-4.53982
-5.17288
-3.93031
-4.56797
-3.4021
-3.99005
-2.9448
-3.46842
-2.5486
-3.00803
-2.20536
-2.606
-1.90761
-2.25731
-1.64753
-1.95911
-1.41455
-1.7317
-1.26549
-0.877635
-1.12873
-0.777323
-0.950734
-0.666687
-0.806508
-0.569391
-0.686391
-0.485945
-0.584944
-0.414789
-0.498783
-0.354364
-0.42545
-0.303497
-0.363014
-0.261678
-0.309906
-0.22976
-0.264961
-0.215127
-0.244322
-0.186569
-0.216302
-0.161692
-0.189283
-0.140086
-0.164745
-0.121354
-0.142976
-0.105216
-0.123822
-0.0916175
-0.106825
-0.0812045
-0.090775
-0.0770257
-0.0707647
-0.0898414
-0.0148768
-0.0852333
-0.496253
-0.0937817
-1.06346
-0.214243
-2.64123
-2.04493
-1.95388
-1.93509
-1.93105
18.6447
8.59661
12.1419
7.40993
9.56722
6.3959
7.89701
5.52003
6.63567
4.8442
5.62616
4.53982
5.17288
3.93031
4.56797
3.4021
3.99005
2.9448
3.46842
2.5486
3.00803
2.20536
2.606
1.90761
2.25731
1.64753
1.95911
1.41455
1.7317
1.26549
0.877633
1.12873
0.777322
0.950733
0.666686
0.806507
0.56939
0.68639
0.485944
0.584944
0.414788
0.498782
0.354363
0.425449
0.303496
0.363014
0.261677
0.309905
0.229759
0.264961
0.215126
0.244322
0.186569
0.216302
0.161691
0.189283
0.140085
0.164745
0.121353
0.142976
0.105215
0.123822
0.0916172
0.106825
0.0812042
0.090775
0.0770253
0.0707649
0.0898407
0.0148779
0.0852326
0.496246
0.0937808
1.06344
0.21424
2.6412
2.04491
1.95386
1.93507
1.93103
17.3414
9.75779
11.5747
8.03228
9.18078
6.80826
7.60578
5.82635
6.41729
5.07561
5.49153
4.68008
5.01684
4.08585
4.42257
3.54918
3.86001
3.0771
3.3541
2.66519
2.9083
2.30716
2.5192
1.99618
2.18135
1.72476
1.89021
1.48299
1.65509
1.27407
0.94797
1.08574
0.82323
0.9156
0.702986
0.777097
0.599548
0.661503
0.5114
0.563808
0.436384
0.480842
0.372689
0.41031
0.318978
0.350466
0.274566
0.30006
0.240023
0.258729
0.221501
0.237025
0.193753
0.209452
0.168542
0.183127
0.146279
0.159322
0.126824
0.138263
0.109982
0.119819
0.0956935
0.103708
0.0844894
0.0894102
0.0789706
0.0749088
0.0883977
0.0435953
0.123726
0.442088
0.22509
0.949999
0.509095
2.33625
2.02472
1.95098
1.9345
1.93088
16.3416
10.5431
11.2221
8.46712
8.9353
7.09395
7.41775
6.03798
6.27634
5.23683
5.40612
4.77454
4.91164
4.1908
4.3257
3.649
3.77384
3.16713
3.27853
2.74462
2.84245
2.37654
2.4619
2.05653
2.13115
1.77722
1.84431
1.52834
1.6007
1.28054
0.999828
1.05883
0.855015
0.892737
0.727882
0.75782
0.620187
0.645159
0.528811
0.549922
0.451156
0.469059
0.385232
0.400377
0.329591
0.342258
0.283439
0.293676
0.247175
0.254774
0.225802
0.232115
0.198613
0.2049
0.173204
0.179061
0.150506
0.15575
0.130565
0.135165
0.113248
0.1172
0.0985073
0.101703
0.0868302
0.0886811
0.0806801
0.07837
0.0893034
0.0673325
0.152702
0.409351
0.318729
0.883185
0.713227
2.11683
1.995
1.94581
1.9334
1.93058
15.5737
11.0692
11.0068
8.77303
8.78221
7.29304
7.29787
6.18488
6.1865
5.34971
5.35276
4.83825
4.84075
4.26153
4.26129
3.71676
3.71694
3.22843
3.22878
2.79878
2.79915
2.42387
2.42424
2.09767
2.0981
1.81283
1.81374
1.55816
1.56202
1.28544
1.0381
1.04244
0.877138
0.877979
0.744988
0.745247
0.634322
0.634469
0.540724
0.540832
0.461262
0.461347
0.393818
0.393883
0.336867
0.33691
0.289552
0.289564
0.252164
0.252281
0.228692
0.2288
0.201882
0.201868
0.176365
0.176372
0.153382
0.153396
0.133115
0.133129
0.115481
0.115487
0.100446
0.100421
0.0885026
0.0883466
0.0821623
0.0813019
0.0915257
0.0867765
0.174828
0.390506
0.386165
0.845746
0.854416
1.95843
1.96238
1.93916
1.93191
1.93016
14.986
11.4177
10.8783
8.98924
8.68905
7.43237
7.22271
6.28721
6.13021
5.42899
5.32009
4.88128
4.79314
4.3091
4.21866
3.76274
3.67959
3.27019
3.19624
2.83572
2.77089
2.45617
2.39967
2.12574
2.07648
1.837
1.79343
1.57761
1.53455
1.28917
1.06631
1.03284
0.892619
0.868576
0.756767
0.737123
0.644017
0.627537
0.548886
0.534931
0.468184
0.45634
0.399701
0.389673
0.341862
0.33346
0.293771
0.286949
0.255653
0.250739
0.230636
0.226566
0.204076
0.199858
0.178507
0.174604
0.155339
0.151855
0.134854
0.1318
0.117008
0.114376
0.101785
0.0996161
0.0897053
0.088254
0.0834323
0.0837912
0.0943474
0.102509
0.19185
0.380461
0.435045
0.826344
0.951791
1.84403
1.93084
1.93187
1.93021
1.92968
14.541
11.6451
10.8039
9.14189
8.63416
7.52983
7.17659
6.35841
6.09569
5.48459
5.30063
4.9103
4.76136
4.34093
4.19066
3.79382
3.65529
3.29853
3.17517
2.86085
2.75262
2.47816
2.38379
2.14483
2.06247
1.85333
1.78001
1.59015
1.51518
1.292
1.08694
1.02751
0.903455
0.862686
0.764861
0.731941
0.65065
0.623094
0.554462
0.531144
0.472912
0.453128
0.403721
0.386977
0.345283
0.331263
0.296677
0.285314
0.258089
0.249805
0.23194
0.22507
0.205541
0.198533
0.179952
0.173451
0.156665
0.150856
0.136036
0.130942
0.118049
0.113665
0.102708
0.0991215
0.0905703
0.088297
0.0844959
0.0858732
0.0972656
0.114995
0.204901
0.375777
0.470456
0.817577
1.01849
1.76185
1.90273
1.92469
1.92846
1.92917
14.2119
11.7903
10.7623
9.24837
8.60314
7.59724
7.14907
6.40738
6.07511
5.52311
5.28943
4.92966
4.74045
4.36196
4.17252
3.81456
3.63972
3.31753
3.16175
2.87773
2.74101
2.49294
2.3737
2.15765
2.05353
1.86424
1.77126
1.5981
1.50174
1.29411
1.10175
1.02477
0.910963
0.859082
0.770362
0.728696
0.655135
0.620297
0.558227
0.528756
0.476104
0.451102
0.406437
0.38528
0.347599
0.32989
0.298656
0.284316
0.259769
0.249257
0.232805
0.224083
0.206505
0.197673
0.180915
0.172711
0.157554
0.150218
0.13683
0.130397
0.118752
0.113218
0.103337
0.0988264
0.0911852
0.0884019
0.085353
0.0875555
0.099931
0.124595
0.214713
0.374142
0.49577
0.814657
1.0635
1.70376
1.87938
1.91824
1.92683
1.92869
13.9796
11.8797
10.7401
9.32011
8.58655
7.64236
7.1333
6.43999
6.06333
5.5489
5.28327
4.9422
4.72712
4.37543
4.16113
3.82799
3.63006
3.32989
3.15345
2.88872
2.73385
2.50258
2.36748
2.16601
2.04801
1.8713
1.76572
1.60298
1.49276
1.29562
1.11195
1.02351
0.915997
0.856954
0.773983
0.726729
0.658074
0.618591
0.560691
0.527297
0.478192
0.449865
0.408215
0.384246
0.349117
0.32906
0.299961
0.283727
0.260889
0.248947
0.233363
0.223451
0.207122
0.197131
0.181538
0.17225
0.158131
0.149824
0.137347
0.130062
0.11921
0.112946
0.103752
0.0986575
0.0916066
0.0885183
0.086001
0.0888315
0.102106
0.131577
0.221754
0.374019
0.513194
0.814539
1.09285
1.66426
1.8615
1.91299
1.92547
1.92828
13.8314
11.9307
10.7292
9.3644
8.57839
7.67007
7.1249
6.45994
6.05706
5.56475
5.28014
4.94971
4.71926
4.38341
4.1545
3.83601
3.62449
3.3373
3.1487
2.89533
2.72976
2.50837
2.36393
2.17103
2.04484
1.87552
1.76247
1.60576
1.48726
1.29659
1.11834
1.02301
0.919095
0.855786
0.776178
0.725621
0.659849
0.617625
0.562178
0.52647
0.479451
0.449163
0.409287
0.383661
0.350035
0.328593
0.300753
0.283405
0.261574
0.248785
0.233696
0.223077
0.207487
0.196815
0.181909
0.171984
0.158477
0.149597
0.137658
0.12987
0.119487
0.112792
0.104005
0.0985678
0.0918704
0.0886127
0.0864358
0.0896906
0.103633
0.136132
0.226311
0.374421
0.524131
0.815343
1.11048
1.63973
1.84945
1.90931
1.92449
1.92799
13.7592
11.9537
10.7247
9.38555
8.57512
7.68326
7.1213
6.46941
6.05437
5.57229
5.27885
4.95323
4.71562
4.38712
4.15145
3.83976
3.62195
3.34077
3.14654
2.89843
2.7279
2.51108
2.36232
2.17338
2.0434
1.87749
1.76097
1.60702
1.48465
1.29706
1.12142
1.02286
0.920571
0.855272
0.777214
0.725124
0.660684
0.617189
0.562876
0.526096
0.480043
0.448846
0.409792
0.383398
0.350467
0.328385
0.301127
0.283263
0.2619
0.248716
0.233851
0.222904
0.207656
0.19667
0.182082
0.171863
0.158639
0.149494
0.137803
0.129783
0.119617
0.112723
0.104124
0.0985293
0.0919974
0.0886647
0.0866542
0.0901229
0.104419
0.138379
0.228552
0.374758
0.529408
0.815989
1.11874
1.62798
1.8434
1.90741
1.92398
1.92784
-13.6274
-11.9384
-10.8752
-9.86376
-9.32012
-8.81726
-8.53939
-8.26821
-8.11766
-7.9689
-7.86631
-7.7305
-7.63481
-7.51013
-7.42315
-7.31081
-7.23268
-7.13205
-7.06222
-6.9725
-6.91044
-6.83097
-6.77616
-6.7062
-6.65798
-6.59632
-6.55312
-6.49626
-6.45151
-6.38365
-6.32095
-6.28635
-6.25132
-6.2294
-6.20377
-6.18699
-6.16667
-6.15321
-6.13675
-6.12581
-6.1124
-6.1035
-6.09259
-6.08537
-6.07656
-6.07079
-6.06384
-6.0594
-6.05424
-6.05116
-6.04783
-6.04551
-6.04247
-6.04048
-6.03813
-6.03679
-6.03553
-6.03515
-6.03545
-6.03647
-6.03905
-6.04221
-6.04842
-6.0552
-6.06785
-6.08165
-6.10783
-6.13901
-6.2032
-6.29682
-6.5086
-6.80259
-7.06541
-7.50294
-7.92053
-8.58466
-8.86427
-8.94725
-8.96872
-8.97371
-13.695
-11.9133
-10.8732
-9.84504
-9.31848
-8.80826
-8.53912
-8.26339
-8.11759
-7.96705
-7.86764
-7.7289
-7.63597
-7.50862
-7.42416
-7.30944
-7.23358
-7.13081
-7.06301
-6.9714
-6.91114
-6.82998
-6.77677
-6.70533
-6.65851
-6.59559
-6.55367
-6.49577
-6.45244
-6.38344
-6.31983
-6.28637
-6.2508
-6.22954
-6.20342
-6.18713
-6.1664
-6.15333
-6.13653
-6.12591
-6.11222
-6.10358
-6.09244
-6.08543
-6.07644
-6.07083
-6.06374
-6.05943
-6.05416
-6.05117
-6.04779
-6.04554
-6.04243
-6.04049
-6.03808
-6.03678
-6.03549
-6.03513
-6.03542
-6.0364
-6.03902
-6.04209
-6.0484
-6.05496
-6.06781
-6.08116
-6.10763
-6.13769
-6.20202
-6.29209
-6.50531
-6.80384
-7.05842
-7.50373
-7.91067
-8.60004
-8.87213
-8.94971
-8.96938
-8.97392
-13.8338
-11.8586
-10.8706
-9.80627
-9.3162
-8.78961
-8.53911
-8.25337
-8.1177
-7.96316
-7.87054
-7.72546
-7.63851
-7.5054
-7.42638
-7.30651
-7.23555
-7.12818
-7.06476
-6.96904
-6.91267
-6.82788
-6.7781
-6.70348
-6.65969
-6.59401
-6.55485
-6.4947
-6.45439
-6.38301
-6.3175
-6.28647
-6.2497
-6.22989
-6.20267
-6.18745
-6.16581
-6.1536
-6.13606
-6.12613
-6.11184
-6.10376
-6.09213
-6.08557
-6.07618
-6.07094
-6.06353
-6.05949
-6.05399
-6.05119
-6.0477
-6.0456
-6.04234
-6.04053
-6.038
-6.03678
-6.03542
-6.03507
-6.03536
-6.03628
-6.03898
-6.04183
-6.04837
-6.05447
-6.06774
-6.08014
-6.10729
-6.135
-6.19982
-6.28244
-6.49861
-6.80684
-7.0438
-7.50607
-7.88951
-8.63211
-8.88778
-8.95449
-8.97065
-8.9743
-14.0517
-11.7644
-10.8711
-9.74452
-9.31537
-8.75992
-8.54052
-8.23734
-8.11858
-7.95679
-7.87554
-7.71969
-7.64289
-7.50001
-7.43024
-7.30163
-7.23899
-7.12379
-7.0678
-6.9651
-6.91534
-6.82437
-6.78043
-6.70039
-6.66175
-6.59137
-6.55688
-6.49284
-6.45758
-6.38236
-6.31379
-6.2868
-6.24792
-6.23052
-6.20144
-6.18803
-6.16485
-6.15408
-6.13529
-6.12653
-6.11121
-6.10408
-6.09161
-6.08583
-6.07576
-6.07113
-6.06318
-6.05962
-6.0537
-6.05124
-6.04756
-6.04571
-6.0422
-6.04059
-6.03786
-6.03678
-6.0353
-6.03499
-6.03528
-6.03608
-6.03893
-6.04143
-6.04835
-6.0537
-6.06771
-6.07852
-6.10692
-6.13083
-6.1969
-6.26744
-6.48823
-6.8127
-7.02017
-7.51155
-7.85399
-8.68366
-8.91099
-8.96129
-8.97241
-8.97483
-14.361
-11.6145
-10.881
-9.65487
-9.3196
-8.71679
-8.54527
-8.21394
-8.12117
-7.94719
-7.88352
-7.71077
-7.64991
-7.49169
-7.43645
-7.29411
-7.24452
-7.11703
-7.07271
-6.95905
-6.91965
-6.81898
-6.7842
-6.69564
-6.66507
-6.58729
-6.56008
-6.48983
-6.46237
-6.38143
-6.30841
-6.2876
-6.24529
-6.23163
-6.19958
-6.18899
-6.1634
-6.15488
-6.13411
-6.12718
-6.11025
-6.10461
-6.09083
-6.08625
-6.07512
-6.07146
-6.06266
-6.05984
-6.05328
-6.05134
-6.04735
-6.04589
-6.04197
-6.04069
-6.03766
-6.0368
-6.03514
-6.03489
-6.03517
-6.0358
-6.0389
-6.04086
-6.0484
-6.05258
-6.06781
-6.07621
-6.10674
-6.12496
-6.1938
-6.24644
-6.4737
-6.82323
-6.98519
-7.523
-7.79897
-8.75931
-8.94127
-8.96965
-8.97453
-8.97545
-14.7802
-11.384
-10.9105
-9.52959
-9.33453
-8.65641
-8.55642
-8.18099
-8.12701
-7.93319
-7.89587
-7.69736
-7.66083
-7.47926
-7.44614
-7.28288
-7.25316
-7.10694
-7.08038
-6.95002
-6.92642
-6.81096
-6.79012
-6.68858
-6.67028
-6.58119
-6.56501
-6.4851
-6.4693
-6.38019
-6.30095
-6.28927
-6.24151
-6.23347
-6.19687
-6.19056
-6.16126
-6.15617
-6.13238
-6.12824
-6.10884
-6.10547
-6.08968
-6.08694
-6.07418
-6.07199
-6.0619
-6.0602
-6.05268
-6.05153
-6.04703
-6.04616
-6.04164
-6.04087
-6.03737
-6.03684
-6.03493
-6.03477
-6.03506
-6.03541
-6.03891
-6.04006
-6.04858
-6.05102
-6.06818
-6.07301
-6.10704
-6.11708
-6.19135
-6.21845
-6.45427
-6.84127
-6.93517
-7.54492
-7.71659
-8.86609
-8.97771
-8.97896
-8.9768
-8.97612
-15.3352
-11.0366
-10.9763
-9.35687
-9.36877
-8.5729
-8.57858
-8.13518
-8.13844
-7.91292
-7.91466
-7.67748
-7.67755
-7.46089
-7.46104
-7.26631
-7.26647
-7.09207
-7.09222
-6.93672
-6.93685
-6.79915
-6.79927
-6.67818
-6.67833
-6.57217
-6.57248
-6.47781
-6.47916
-6.37855
-6.29078
-6.29237
-6.23614
-6.23645
-6.19294
-6.19304
-6.15815
-6.15821
-6.12987
-6.1299
-6.10679
-6.10682
-6.088
-6.08803
-6.07282
-6.07283
-6.0608
-6.0608
-6.05182
-6.05184
-6.04656
-6.04659
-6.04116
-6.04115
-6.03696
-6.03695
-6.03464
-6.03462
-6.03494
-6.03491
-6.03902
-6.03896
-6.04901
-6.04887
-6.06904
-6.06864
-6.10831
-6.10662
-6.19078
-6.18211
-6.42881
-6.87103
-6.86452
-7.58436
-7.59509
-9.01438
-9.01855
-8.98841
-8.97902
-8.97675
-16.0622
-10.5197
-11.1045
-9.1189
-9.43533
-8.45733
-8.61871
-8.07151
-8.15902
-7.88356
-7.94301
-7.6481
-7.70294
-7.43384
-7.48373
-7.24194
-7.28676
-7.07021
-7.11027
-6.9172
-6.9528
-6.78182
-6.81327
-6.66294
-6.69062
-6.55889
-6.58376
-6.46667
-6.4931
-6.3764
-6.27704
-6.29779
-6.2285
-6.24118
-6.18727
-6.19692
-6.15365
-6.16138
-6.12622
-6.1325
-6.10382
-6.10893
-6.08558
-6.08972
-6.07085
-6.07416
-6.05922
-6.06176
-6.05059
-6.05237
-6.04589
-6.04722
-6.04047
-6.04161
-6.03638
-6.03714
-6.03426
-6.03447
-6.03483
-6.03423
-6.03929
-6.03746
-6.04984
-6.04591
-6.07073
-6.06267
-6.11123
-6.09273
-6.19393
-6.13556
-6.39552
-6.91874
-6.76481
-7.65216
-7.41725
-9.21929
-9.06078
-8.99703
-8.98095
-8.9773
-17.0109
-9.75769
-11.3356
-8.78884
-9.55367
-8.29618
-8.68717
-7.98245
-8.19412
-7.84081
-7.98553
-7.60474
-7.74128
-7.39404
-7.51809
-7.20611
-7.3175
-7.03809
-7.13765
-6.88853
-6.97702
-6.7564
-6.83453
-6.64057
-6.70929
-6.53935
-6.60071
-6.4498
-6.51277
-6.37355
-6.2585
-6.30681
-6.21759
-6.24858
-6.17906
-6.20292
-6.1471
-6.16627
-6.12091
-6.13649
-6.09949
-6.11218
-6.08205
-6.09234
-6.06799
-6.07622
-6.05694
-6.06327
-6.04885
-6.05323
-6.0449
-6.04819
-6.03946
-6.04231
-6.03556
-6.03749
-6.03376
-6.03431
-6.03476
-6.03333
-6.03984
-6.03539
-6.05132
-6.04179
-6.07373
-6.05443
-6.11683
-6.07405
-6.20346
-6.07628
-6.3517
-6.99354
-6.62346
-7.76486
-7.15793
-9.50261
-9.09921
-9.00374
-8.98239
-8.9777
-18.2497
-8.64242
-11.7315
-8.32631
-9.75288
-8.06908
-8.79946
-7.85672
-8.25181
-7.77812
-8.04906
-7.54067
-7.79896
-7.33536
-7.56987
-7.15332
-7.36386
-6.9908
-7.17896
-6.84634
-7.01358
-6.71902
-6.86667
-6.60768
-6.73749
-6.51054
-6.62614
-6.42435
-6.5405
-6.36973
-6.23341
-6.32132
-6.20186
-6.25999
-6.1671
-6.2121
-6.13755
-6.17373
-6.11315
-6.14257
-6.09317
-6.11713
-6.0769
-6.09634
-6.06382
-6.07937
-6.05363
-6.06561
-6.04636
-6.0546
-6.04344
-6.04962
-6.03797
-6.0434
-6.0344
-6.03805
-6.03308
-6.03414
-6.03477
-6.03211
-6.04083
-6.0325
-6.05382
-6.03602
-6.07877
-6.04293
-6.12664
-6.04849
-6.22326
-6.00088
-6.29322
-7.10882
-6.42164
-7.9475
-6.78055
-9.89588
-9.12534
-9.0075
-8.98318
-8.97794
)
;

boundaryField
{
    F1_1
    {
        type            calculated;
        value           nonuniform List<scalar> 
80
(
18.9519
7.97393
11.98
8.04145
9.87651
7.9052
8.86849
7.71519
8.28934
7.55173
7.90376
7.4898
7.75897
7.28717
7.55933
7.11052
7.36585
6.95346
7.18645
6.8139
7.02325
6.6909
6.87685
6.58339
6.74744
6.48957
6.63588
6.40602
6.55222
6.36482
6.2175
6.32781
6.19125
6.26499
6.15893
6.21613
6.131
6.17702
6.10783
6.14526
6.08883
6.11932
6.07336
6.0981
6.06096
6.08075
6.05135
6.06659
6.04461
6.05508
6.04232
6.05017
6.03689
6.04379
6.03354
6.03817
6.03255
6.03388
6.03467
6.03125
6.04136
6.03069
6.0553
6.03253
6.08185
6.03612
6.13277
6.03359
6.23625
5.95862
6.25965
7.17855
6.30277
8.06006
6.55691
10.1246
9.13399
9.00851
8.98337
8.97799
)
;
    }
    F1_2
    {
        type            calculated;
        value           nonuniform List<scalar> 
80
(
-19.3826
-7.90486
-12.4907
-7.04311
-9.80297
-6.15206
-8.07368
-5.33872
-6.76817
-4.70771
-5.70837
-4.45599
-5.26609
-3.83747
-4.65521
-3.3145
-4.06823
-2.86606
-3.53722
-2.47924
-3.06807
-2.14482
-2.65826
-1.85493
-2.30304
-1.60154
-2.00047
-1.37344
-1.77652
-1.26059
-0.837141
-1.15509
-0.750176
-0.971999
-0.645153
-0.824266
-0.551487
-0.701409
-0.470832
-0.597698
-0.401969
-0.50961
-0.343488
-0.434591
-0.294315
-0.370599
-0.254047
-0.315877
-0.223712
-0.268772