/*--------------------------------*- C++ -*----------------------------------*\
| =========                 |                                                 |
| \\      /  F ield         | OpenFOAM: The Open Source CFD Toolbox           |
|  \\    /   O peration     | Version:  5.x                                   |
|   \\  /    A nd           | Web:      www.OpenFOAM.org                      |
|    \\/     M anipulation  |                                                 |
\*---------------------------------------------------------------------------*/
FoamFile
{
    version     2.0;
    format      ascii;
    class       volScalarField;
    location    "6.1";
    object      T;
}
// * * * * * * * * * * * * * * * * * * * * * * * * * * * * * * * * * * * * * //

dimensions      [0 0 0 1 0 0 0];

internalField   nonuniform List<scalar> 
3200
(
2.08492
2.43609
2.45612
2.60096
2.61014
2.68246
2.68728
2.72913
2.732
2.75852
2.76028
2.7756
2.77695
2.79367
2.79503
2.81099
2.81226
2.82694
2.8281
2.84137
2.84242
2.85425
2.85518
2.86564
2.86646
2.87566
2.87639
2.88468
2.88541
2.89419
2.90189
2.90244
2.90742
2.90779
2.91159
2.91187
2.91491
2.91514
2.91761
2.9178
2.91981
2.91997
2.92161
2.92173
2.92305
2.92315
2.9242
2.92428
2.92506
2.92511
2.92558
2.92562
2.92609
2.92612
2.92648
2.92651
2.9267
2.92671
2.92668
2.92666
2.92629
2.92624
2.92534
2.92523
2.92342
2.92319
2.91961
2.91911
2.9112
2.90981
2.88732
2.84807
2.84369
2.77989
2.77238
2.65304
2.64809
2.64746
2.64734
2.64731
2.2604
2.52907
2.57092
2.6868
2.70638
2.76421
2.77448
2.80785
2.81395
2.83502
2.83877
2.85106
2.85392
2.86716
2.87004
2.88268
2.88538
2.89701
2.89949
2.91
2.91222
2.9216
2.92357
2.93186
2.9336
2.9409
2.94245
2.94904
2.95061
2.95788
2.96435
2.96554
2.96951
2.9703
2.97332
2.97392
2.97634
2.97682
2.97878
2.97918
2.98078
2.9811
2.9824
2.98266
2.98371
2.98392
2.98475
2.98491
2.98553
2.98564
2.98602
2.9861
2.98647
2.98655
2.98683
2.98688
2.98704
2.98705
2.98702
2.98699
2.98669
2.98658
2.98586
2.98562
2.98418
2.98369
2.98081
2.97974
2.9733
2.97024
2.95059
2.91846
2.9091
2.85824
2.84242
2.74972
2.73926
2.73753
2.73717
2.73709
2.42512
2.63113
2.68277
2.7765
2.80109
2.84787
2.86076
2.88765
2.8953
2.91223
2.91693
2.92689
2.93048
2.94106
2.94466
2.95477
2.95815
2.96746
2.97054
2.97896
2.98173
2.98924
2.99171
2.99834
3.00052
3.00636
3.00831
3.0136
3.01558
3.0216
3.02702
3.02853
3.03174
3.03272
3.03514
3.0359
3.03784
3.03845
3.04002
3.04051
3.04179
3.0422
3.04324
3.04356
3.04441
3.04467
3.04533
3.04553
3.04603
3.04617
3.04647
3.04658
3.04687
3.04696
3.04719
3.04725
3.04738
3.04739
3.04737
3.04732
3.04709
3.04694
3.04637
3.04606
3.0449
3.04428
3.04194
3.04059
3.03527
3.03134
3.01436
2.98794
2.97616
2.93519
2.91553
2.8431
2.83008
2.82754
2.82699
2.82687
2.58161
2.73936
2.79293
2.86896
2.89491
2.93288
2.94648
2.96822
2.97628
2.98992
2.99487
3.00298
3.00676
3.01524
3.01902
3.02713
3.03068
3.03815
3.04139
3.04814
3.05106
3.05708
3.05967
3.065
3.06729
3.07198
3.07403
3.0783
3.08039
3.08535
3.08985
3.09146
3.09405
3.09509
3.09704
3.09784
3.09939
3.10003
3.10129
3.10181
3.10284
3.10326
3.1041
3.10445
3.10512
3.1054
3.10593
3.10614
3.10654
3.10669
3.10693
3.10704
3.10728
3.10737
3.10756
3.10762
3.10772
3.10774
3.10772
3.10767
3.10747
3.10732
3.10686
3.10654
3.10559
3.10494
3.10303
3.1016
3.09718
3.09295
3.0785
3.05683
3.04439
3.01128
2.99076
2.9341
2.92047
2.91747
2.91679
2.91664
2.73178
2.85176
2.9022
2.96342
2.98825
3.01886
3.03187
3.04934
3.05704
3.06795
3.07269
3.07924
3.08285
3.0896
3.09321
3.09967
3.10305
3.10901
3.1121
3.11748
3.12026
3.12507
3.12753
3.13178
3.13396
3.13771
3.13966
3.14308
3.14509
3.14912
3.1528
3.15434
3.15643
3.15742
3.15898
3.15974
3.16098
3.16159
3.1626
3.16309
3.16391
3.16432
3.16499
3.16531
3.16585
3.16612
3.16654
3.16674
3.16706
3.1672
3.1674
3.1675
3.16769
3.16778
3.16793
3.16799
3.16807
3.16808
3.16807
3.16802
3.16786
3.16772
3.16734
3.16704
3.16628
3.16565
3.16411
3.16272
3.15908
3.15498
3.14293
3.12536
3.11345
3.08688
3.06744
3.02338
3.01045
3.00731
3.00657
3.0064
2.87716
2.96695
3.01103
3.05934
3.08136
3.10555
3.11709
3.13085
3.13767
3.14624
3.15043
3.15563
3.15882
3.1641
3.16728
3.17233
3.17532
3.17998
3.18271
3.18692
3.18938
3.19314
3.19532
3.19865
3.20057
3.20351
3.20523
3.20793
3.20971
3.2129
3.21583
3.2172
3.21885
3.21972
3.22095
3.22162
3.22259
3.22313
3.22392
3.22436
3.225
3.22536
3.22588
3.22617
3.2266
3.22683
3.22716
3.22734
3.22759
3.22771
3.22787
3.22796
3.22811
3.22819
3.2283
3.22835
3.22841
3.22843
3.22842
3.22837
3.22825
3.22812
3.22783
3.22755
3.22695
3.2264
3.22517
3.22394
3.22101
3.21732
3.20758
3.19366
3.18309
3.16218
3.14509
3.11142
3.10003
3.09705
3.09632
3.09616
3.01895
3.08396
3.1197
3.15631
3.17438
3.19275
3.20222
3.21263
3.21822
3.2247
3.22814
3.23209
3.23471
3.23867
3.24128
3.24508
3.24753
3.25103
3.25327
3.25644
3.25845
3.26128
3.26306
3.26557
3.26714
3.26935
3.27077
3.2728
3.27426
3.27669
3.27892
3.28005
3.2813
3.28202
3.28294
3.28349
3.28422
3.28467
3.28526
3.28562
3.2861
3.2864
3.28679
3.28703
3.28735
3.28754
3.28779
3.28793
3.28812
3.28822
3.28834
3.28841
3.28852
3.28859
3.28868
3.28872
3.28876
3.28878
3.28877
3.28873
3.28864
3.28853
3.28831
3.28809
3.28763
3.28718
3.28624
3.28522
3.28296
3.27991
3.2724
3.26182
3.25315
3.23733
3.22341
3.19857
3.18927
3.1867
3.18606
3.18591
3.15813
3.20214
3.22833
3.25402
3.26739
3.2803
3.28731
3.29461
3.29874
3.30328
3.30582
3.3086
3.31054
3.31331
3.31523
3.31788
3.31969
3.32213
3.32378
3.326
3.32748
3.32946
3.33078
3.33253
3.33369
3.33523
3.33628
3.3377
3.33878
3.34049
3.34206
3.34289
3.34377
3.3443
3.34495
3.34535
3.34587
3.34619
3.34661
3.34687
3.34721
3.34743
3.3477
3.34788
3.3481
3.34824
3.34842
3.34852
3.34865
3.34873
3.34881
3.34887
3.34895
3.34899
3.34905
3.34909
3.34912
3.34913
3.34912
3.34909
3.34903
3.34895
3.34879
3.34863
3.34831
3.34797
3.34731
3.34655
3.34494
3.34267
3.33735
3.32991
3.3235
3.31241
3.30217
3.2851
3.27825
3.27627
3.27577
3.27565
3.29556
3.32103
3.33698
3.35222
3.36042
3.36809
3.37239
3.37672
3.37925
3.38194
3.38349
3.38515
3.38633
3.38797
3.38915
3.39072
3.39182
3.39327
3.39428
3.39559
3.3965
3.39767
3.39847
3.39951
3.40022
3.40113
3.40177
3.40262
3.40328
3.40429
3.40522
3.40574
3.40626
3.40658
3.40697
3.40721
3.40752
3.40772
3.40796
3.40813
3.40833
3.40846
3.40862
3.40873
3.40886
3.40894
3.40905
3.40911
3.40919
3.40924
3.40929
3.40932
3.40937
3.4094
3.40943
3.40945
3.40947
3.40948
3.40947
3.40946
3.40942
3.40937
3.40928
3.40917
3.40898
3.40878
3.40838
3.40792
3.40695
3.40555
3.40238
3.39796
3.39403
3.38746
3.3812
3.37121
3.36703
3.36579
3.36547
3.36539
3.43196
3.4403
3.44566
3.45071
3.45347
3.45602
3.45746
3.4589
3.45975
3.46064
3.46117
3.46171
3.46211
3.46266
3.46305
3.46357
3.46394
3.46442
3.46476
3.46519
3.4655
3.46589
3.46616
3.4665
3.46674
3.46704
3.46726
3.46754
3.46776
3.4681
3.46841
3.46858
3.46875
3.46886
3.46899
3.46907
3.46917
3.46924
3.46932
3.46938
3.46944
3.46949
3.46954
3.46958
3.46962
3.46965
3.46968
3.4697
3.46973
3.46975
3.46976
3.46977
3.46979
3.4698
3.46981
3.46982
3.46982
3.46983
3.46982
3.46982
3.46981
3.46979
3.46976
3.46972
3.46966
3.46959
3.46946
3.4693
3.46898
3.46851
3.46745
3.46599
3.46466
3.46249
3.46039
3.4571
3.45569
3.45527
3.45516
3.45513
3.43129
3.4402
3.44638
3.45305
3.45713
3.46157
3.4644
3.46764
3.46973
3.47213
3.47361
3.47523
3.47643
3.47806
3.47925
3.4808
3.48189
3.48329
3.48427
3.4855
3.48636
3.48744
3.48819
3.48913
3.48978
3.49061
3.4912
3.49196
3.49258
3.49351
3.49439
3.49489
3.4954
3.49572
3.49611
3.49637
3.4967
3.49691
3.49718
3.49737
3.4976
3.49776
3.49795
3.49808
3.49825
3.49836
3.49849
3.49858
3.49869
3.49876
3.49883
3.49889
3.49896
3.49902
3.49909
3.49914
3.49921
3.49925
3.49931
3.49935
3.4994
3.49944
3.49948
3.49951
3.49954
3.49956
3.49957
3.49955
3.49948
3.49931
3.49885
3.49813
3.49735
3.49592
3.4944
3.49187
3.49079
3.49047
3.49038
3.49036
3.29352
3.32072
3.33912
3.35924
3.37137
3.38477
3.39318
3.40297
3.40918
3.41643
3.42082
3.42571
3.42926
3.4342
3.43772
3.44241
3.44567
3.44989
3.4528
3.45653
3.45908
3.46234
3.46456
3.4674
3.46935
3.47184
3.47358
3.4759
3.47773
3.48054
3.48318
3.48466
3.48619
3.48717
3.48834
3.48912
3.49009
3.49074
3.49156
3.49211
3.4928
3.49327
3.49385
3.49425
3.49474
3.49507
3.49548
3.49575
3.49607
3.49627
3.49649
3.49666
3.49689
3.49705
3.49727
3.49742
3.49762
3.49776
3.49793
3.49805
3.49821
3.49831
3.49844
3.49852
3.49862
3.49867
3.4987
3.49865
3.49843
3.49793
3.49657
3.49438
3.49207
3.48776
3.48323
3.47557
3.47234
3.47139
3.47114
3.47108
3.15467
3.20159
3.2318
3.26576
3.28556
3.30817
3.3219
3.33844
3.34859
3.36083
3.368
3.37624
3.38204
3.39039
3.39616
3.40408
3.4094
3.41655
3.4213
3.4276
3.43177
3.43727
3.44091
3.44571
3.44889
3.4531
3.45595
3.45985
3.46283
3.46758
3.47202
3.47443
3.47701
3.47861
3.48059
3.48186
3.4835
3.48456
3.48594
3.48684
3.48801
3.48877
3.48976
3.49041
3.49125
3.49179
3.49248
3.49292
3.49346
3.49378
3.49416
3.49442
3.49481
3.49508
3.49545
3.4957
3.49604
3.49626
3.49656
3.49675
3.49701
3.49718
3.4974
3.49754
3.4977
3.49778
3.49784
3.49776
3.4974
3.49658
3.49433
3.49064
3.48686
3.47961
3.47219
3.45908
3.4538
3.45228
3.45189
3.4518
3.01393
3.08313
3.12432
3.17284
3.19964
3.23192
3.25051
3.27417
3.28792
3.30545
3.31515
3.32686
3.33472
3.34669
3.3545
3.36585
3.37307
3.3833
3.38973
3.39875
3.4044
3.41229
3.41721
3.42408
3.42839
3.43441
3.43827
3.44384
3.44787
3.45463
3.46094
3.46419
3.46787
3.47003
3.47286
3.47459
3.47693
3.47837
3.48034
3.48156
3.48324
3.48427
3.48569
3.48656
3.48776
3.48849
3.48948
3.49008
3.49085
3.49129
3.49183
3.49219
3.49274
3.49311
3.49364
3.49398
3.49446
3.49476
3.49519
3.49545
3.49582
3.49605
3.49636
3.49655
3.49679
3.4969
3.49698
3.49687
3.49639
3.4953
3.49214
3.4869
3.4818
3.47147
3.46137
3.44228
3.43511
3.43313
3.43263
3.43252
2.87043
2.96579
3.01655
3.08079
3.1135
3.15622
3.17892
3.2103
3.22709
3.25037
3.26222
3.27764
3.28723
3.30315
3.31271
3.32779
3.33661
3.3502
3.35806
3.37004
3.37695
3.38742
3.39344
3.40256
3.40782
3.41582
3.42052
3.42789
3.4328
3.4417
3.44999
3.45393
3.45879
3.46143
3.46518
3.46729
3.4704
3.47216
3.47478
3.47627
3.47849
3.47975
3.48164
3.4827
3.48429
3.48519
3.48651
3.48723
3.48826
3.4888
3.4895
3.48994
3.49068
3.49113
3.49183
3.49225
3.49289
3.49326
3.49382
3.49415
3.49464
3.49492
3.49533
3.49556
3.49588
3.49602
3.49613
3.496
3.49541
3.49409
3.49003
3.48315
3.47695
3.46332
3.45092
3.425
3.41621
3.41391
3.41335
3.41323
2.72311
2.85023
2.90824
2.99
3.02696
3.08132
3.10698
3.147
3.166
3.19576
3.20914
3.22866
3.23949
3.25987
3.27069
3.28997
3.29996
3.31732
3.32623
3.34154
3.34935
3.36272
3.36954
3.38119
3.38714
3.39735
3.40267
3.41203
3.41757
3.42879
3.4392
3.44364
3.4498
3.45278
3.45757
3.45995
3.46392
3.46591
3.46925
3.47094
3.47378
3.47521
3.47762
3.47882
3.48086
3.48187
3.48355
3.48437
3.48569
3.48629
3.48719
3.48769
3.48863
3.48914
3.49004
3.49051
3.49132
3.49174
3.49247
3.49283
3.49346
3.49378
3.49431
3.49457
3.49498
3.49513
3.49529
3.49515
3.49445
3.493
3.48804
3.47938
3.47239
3.45512
3.441
3.40704
3.39706
3.39463
3.39406
3.39393
2.57071
2.73743
2.79899
2.90101
2.93972
3.00757
3.03446
3.08455
3.10448
3.14179
3.15581
3.18002
3.19137
3.21697
3.22833
3.25253
3.26302
3.28479
3.29414
3.31333
3.32153
3.33829
3.34544
3.36004
3.36629
3.37908
3.38465
3.39633
3.40211
3.41592
3.42866
3.43327
3.44094
3.44406
3.45005
3.45255
3.45752
3.45961
3.4638
3.46557
3.46912
3.47062
3.47364
3.47491
3.47746
3.47852
3.48063
3.48149
3.48315
3.48378
3.48489
3.48541
3.4866
3.48713
3.48826
3.48875
3.48978
3.49022
3.49112
3.49151
3.4923
3.49263
3.4933
3.49357
3.49408
3.49425
3.49446
3.49433
3.49352
3.49204
3.4862
3.47554
3.46825
3.44679
3.43188
3.38812
3.3776
3.37528
3.37475
3.37463
2.41164
2.62884
2.68811
2.81454
2.85131
2.93546
2.96102
3.02331
3.04227
3.08876
3.10208
3.13189
3.14268
3.17464
3.18546
3.21564
3.22562
3.25276
3.26165
3.28556
3.29337
3.31425
3.32105
3.33923
3.34518
3.36109
3.36639
3.38087
3.38633
3.40308
3.41844
3.42279
3.43226
3.43522
3.44267
3.44504
3.45123
3.45322
3.45844
3.46012
3.46455
3.46598
3.46974
3.47095
3.47412
3.47513
3.47776
3.47858
3.48065
3.48125
3.48261
3.48311
3.48459
3.4851
3.48651
3.48698
3.48826
3.48868
3.4898
3.49017
3.49115
3.49147
3.4923
3.49256
3.49321
3.49337
3.49365
3.49353
3.49262
3.49126
3.48454
3.47157
3.46467
3.4382
3.42391
3.36787
3.35781
3.35585
3.35542
3.35533
2.24388
2.52657
2.57455
2.73166
2.76101
2.8657
2.88611
2.96379
2.97896
3.03706
3.04769
3.08453
3.09314
3.13316
3.14182
3.17955
3.18754
3.22145
3.22857
3.25844
3.26468
3.29076
3.29621
3.31891
3.32367
3.34353
3.34777
3.36577
3.3701
3.39031
3.40867
3.4121
3.42384
3.4262
3.43549
3.43739
3.44511
3.4467
3.45322
3.45457
3.4601
3.46124
3.46594
3.4669
3.47087
3.47167
3.47496
3.47562
3.47821
3.47869
3.48037
3.48077
3.48263
3.48303
3.4848
3.48517
3.48677
3.4871
3.48851
3.48881
3.49003
3.49028
3.49133
3.49153
3.49235
3.49248
3.49285
3.49276
3.49173
3.49069
3.48314
3.46736
3.46187
3.42913
3.41762
3.34579
3.3377
3.33636
3.33608
3.33602
2.06481
2.43369
2.45662
2.6539
2.6677
2.7993
2.80891
2.90678
2.91393
2.98725
2.99225
3.03829
3.04234
3.09292
3.09701
3.14465
3.14842
3.19121
3.19457
3.23226
3.2352
3.2681
3.27067
3.29931
3.30155
3.3266
3.32859
3.35121
3.35323
3.3776
3.39948
3.40107
3.4158
3.41691
3.42861
3.4295
3.43924
3.43999
3.44821
3.44885
3.45583
3.45636
3.46229
3.46274
3.46774
3.46812
3.47227
3.47258
3.47585
3.47607
3.47818
3.47837
3.48072
3.48091
3.48314
3.48332
3.48533
3.48549
3.48727
3.48741
3.48895
3.48907
3.49039
3.49048
3.49152
3.49158
3.49207
3.49203
3.49085
3.49039
3.48207
3.46273
3.46017
3.4192
3.41373
3.32115
3.31731
3.31683
3.31673
3.31671
2.06481
2.43369
2.45661
2.6539
2.6677
2.7993
2.80891
2.90678
2.91393
2.98725
2.99225
3.03829
3.04234
3.09292
3.09701
3.14465
3.14842
3.19121
3.19457
3.23226
3.2352
3.2681
3.27067
3.29931
3.30155
3.3266
3.32859
3.35121
3.35323
3.3776
3.39948
3.40107
3.4158
3.41691
3.42861
3.4295
3.43924
3.43999
3.44821
3.44885
3.45583
3.45636
3.46228
3.46274
3.46774
3.46812
3.47227
3.47258
3.47585
3.47607
3.47818
3.47837
3.48072
3.48091
3.48314
3.48332
3.48533
3.48549
3.48727
3.48741
3.48895
3.48907
3.49039
3.49048
3.49152
3.49158
3.49207
3.49203
3.49085
3.49039
3.48207
3.46273
3.46017
3.4192
3.41373
3.32115
3.31731
3.31683
3.31673
3.31671
2.24388
2.52657
2.57454
2.73166
2.76101
2.86569
2.88611
2.96379
2.97896
3.03706
3.04769
3.08453
3.09314
3.13315
3.14182
3.17955
3.18754
3.22145
3.22857
3.25844
3.26468
3.29076
3.29621
3.31891
3.32366
3.34353
3.34777
3.36577
3.37009
3.39031
3.40866
3.4121
3.42384
3.4262
3.43549
3.43739
3.44511
3.4467
3.45322
3.45457
3.4601
3.46124
3.46594
3.4669
3.47087
3.47167
3.47496
3.47562
3.47821
3.47869
3.48037
3.48077
3.48263
3.48303
3.4848
3.48517
3.48677
3.4871
3.48851
3.48881
3.49003
3.49028
3.49133
3.49153
3.49235
3.49248
3.49285
3.49276
3.49173
3.49069
3.48314
3.46736
3.46187
3.42913
3.41762
3.34579
3.3377
3.33636
3.33608
3.33602
2.41164
2.62884
2.68811
2.81454
2.85131
2.93546
2.96102
3.0233
3.04227
3.08876
3.10208
3.13189
3.14268
3.17464
3.18546
3.21564
3.22562
3.25276
3.26165
3.28556
3.29337
3.31425
3.32105
3.33923
3.34518
3.36109
3.36639
3.38087
3.38633
3.40308
3.41844
3.42279
3.43226
3.43522
3.44267
3.44504
3.45123
3.45322
3.45844
3.46012
3.46455
3.46598
3.46974
3.47095
3.47412
3.47513
3.47776
3.47858
3.48065
3.48125
3.48261
3.48311
3.48459
3.4851
3.48651
3.48698
3.48826
3.48868
3.4898
3.49017
3.49115
3.49147
3.4923
3.49256
3.49321
3.49337
3.49365
3.49353
3.49262
3.49126
3.48454
3.47157
3.46467
3.4382
3.42391
3.36788
3.35781
3.35585
3.35542
3.35533
2.57071
2.73743
2.79899
2.90101
2.93972
3.00757
3.03446
3.08455
3.10448
3.14179
3.15581
3.18002
3.19137
3.21697
3.22833
3.25253
3.26302
3.28479
3.29414
3.31333
3.32153
3.33829
3.34544
3.36004
3.36629
3.37907
3.38465
3.39633
3.40211
3.41592
3.42866
3.43327
3.44094
3.44406
3.45005
3.45255
3.45752
3.45961
3.4638
3.46557
3.46912
3.47062
3.47364
3.47491
3.47746
3.47852
3.48063
3.48149
3.48315
3.48378
3.48489
3.48541
3.4866
3.48713
3.48826
3.48875
3.48978
3.49022
3.49112
3.49151
3.4923
3.49263
3.4933
3.49357
3.49408
3.49425
3.49446
3.49433
3.49352
3.49204
3.4862
3.47555
3.46825
3.44679
3.43188
3.38812
3.3776
3.37528
3.37475
3.37463
2.72311
2.85023
2.90824
2.99
3.02696
3.08132
3.10698
3.147
3.166
3.19575
3.20914
3.22866
3.23949
3.25987
3.27069
3.28997
3.29996
3.31732
3.32623
3.34154
3.34935
3.36272
3.36954
3.38119
3.38714
3.39735
3.40267
3.41203
3.41757
3.42879
3.4392
3.44364
3.4498
3.45278
3.45757
3.45995
3.46392
3.46591
3.46925
3.47094
3.47378
3.47521
3.47762
3.47882
3.48086
3.48187
3.48355
3.48437
3.48569
3.48629
3.48719
3.48769
3.48863
3.48914
3.49004
3.49051
3.49132
3.49174
3.49247
3.49283
3.49346
3.49378
3.49431
3.49457
3.49498
3.49513
3.49529
3.49515
3.49445
3.493
3.48804
3.47938
3.47239
3.45512
3.441
3.40704
3.39706
3.39463
3.39406
3.39393
2.87043
2.96579
3.01655
3.08079
3.1135
3.15622
3.17892
3.21029
3.22709
3.25037
3.26222
3.27764
3.28723
3.30315
3.31271
3.32779
3.33661
3.3502
3.35806
3.37004
3.37695
3.38742
3.39344
3.40256
3.40782
3.41581
3.42052
3.42789
3.4328
3.4417
3.44999
3.45393
3.45879
3.46143
3.46518
3.46729
3.4704
3.47216
3.47478
3.47627
3.47849
3.47975
3.48164
3.4827
3.48429
3.48519
3.48651
3.48723
3.48826
3.4888
3.4895
3.48994
3.49068
3.49113
3.49183
3.49225
3.49289
3.49326
3.49382
3.49415
3.49464
3.49492
3.49533
3.49556
3.49588
3.49602
3.49613
3.496
3.49541
3.49409
3.49003
3.48315
3.47695
3.46332
3.45092
3.425
3.41621
3.41391
3.41335
3.41323
3.01393
3.08313
3.12432
3.17284
3.19964
3.23192
3.25051
3.27417
3.28791
3.30545
3.31515
3.32686
3.33472
3.34669
3.3545
3.36585
3.37307
3.38329
3.38973
3.39875
3.4044
3.41229
3.41721
3.42408
3.42839
3.43441
3.43827
3.44384
3.44787
3.45463
3.46094
3.46419
3.46787
3.47003
3.47286
3.47459
3.47693
3.47837
3.48034
3.48156
3.48324
3.48427
3.48569
3.48656
3.48776
3.48849
3.48948
3.49008
3.49085
3.49129
3.49183
3.49219
3.49274
3.49311
3.49364
3.49398
3.49446
3.49476
3.49519
3.49545
3.49582
3.49605
3.49636
3.49655
3.49679
3.4969
3.49698
3.49687
3.49639
3.4953
3.49214
3.4869
3.4818
3.47147
3.46137
3.44228
3.43511
3.43313
3.43263
3.43252
3.15467
3.20159
3.2318
3.26576
3.28556
3.30817
3.3219
3.33844
3.34859
3.36083
3.368
3.37624
3.38204
3.39039
3.39616
3.40408
3.4094
3.41655
3.4213
3.4276
3.43177
3.43727
3.44091
3.44571
3.44889
3.4531
3.45595
3.45985
3.46283
3.46758
3.47202
3.47443
3.47701
3.47861
3.48059
3.48186
3.4835
3.48456
3.48594
3.48684
3.48801
3.48877
3.48976
3.49041
3.49125
3.49179
3.49248
3.49292
3.49346
3.49378
3.49416
3.49442
3.49481
3.49508
3.49545
3.4957
3.49604
3.49626
3.49656
3.49675
3.49701
3.49718
3.4974
3.49754
3.4977
3.49778
3.49784
3.49776
3.4974
3.49658
3.49433
3.49064
3.48686
3.47961
3.47219
3.45908
3.4538
3.45228
3.45189
3.4518
3.29352
3.32072
3.33912
3.35924
3.37137
3.38477
3.39318
3.40297
3.40918
3.41642
3.42082
3.42571
3.42926
3.4342
3.43772
3.44241
3.44567
3.44989
3.4528
3.45653
3.45908
3.46234
3.46456
3.4674
3.46935
3.47184
3.47358
3.4759
3.47773
3.48054
3.48318
3.48466
3.48619
3.48717
3.48834
3.48912
3.49009
3.49074
3.49156
3.49211
3.4928
3.49327
3.49385
3.49425
3.49474
3.49507
3.49548
3.49575
3.49607
3.49627
3.49649
3.49666
3.49689
3.49705
3.49727
3.49742
3.49762
3.49776
3.49793
3.49805
3.49821
3.49831
3.49844
3.49852
3.49862
3.49867
3.4987
3.49865
3.49843
3.49793
3.49657
3.49438
3.49207
3.48776
3.48323
3.47557
3.47234
3.47139
3.47114
3.47108
3.43129
3.4402
3.44638
3.45305
3.45713
3.46157
3.4644
3.46764
3.46973
3.47213
3.47361
3.47523
3.47643
3.47806
3.47925
3.4808
3.48189
3.48329
3.48427
3.4855
3.48636
3.48744
3.48819
3.48913
3.48978
3.49061
3.4912
3.49196
3.49258
3.49351
3.49439
3.49489
3.4954
3.49572
3.49611
3.49637
3.4967
3.49691
3.49718
3.49737
3.4976
3.49776
3.49795
3.49808
3.49825
3.49836
3.49849
3.49858
3.49869
3.49876
3.49883
3.49889
3.49896
3.49902
3.49909
3.49914
3.49921
3.49925
3.49931
3.49935
3.4994
3.49944
3.49948
3.49951
3.49954
3.49956
3.49957
3.49955
3.49948
3.49931
3.49885
3.49813
3.49735
3.49592
3.4944
3.49187
3.49079
3.49047
3.49038
3.49036
3.43195
3.44028
3.44562
3.45066
3.4534
3.4559
3.4573
3.45865
3.45941
3.46015
3.46067
3.46135
3.46183
3.46245
3.46289
3.46344
3.46384
3.46434
3.46469
3.46514
3.46545
3.46584
3.46612
3.46647
3.46671
3.46702
3.46724
3.46752
3.46774
3.46808
3.46839
3.46857
3.46874
3.46885
3.46898
3.46907
3.46917
3.46923
3.46932
3.46937
3.46944
3.46948
3.46954
3.46957
3.46962
3.46965
3.46968
3.4697
3.46973
3.46974
3.46976
3.46977
3.46979
3.4698
3.46981
3.46982
3.46982
3.46982
3.46982
3.46982
3.4698
3.46979
3.46976
3.46972
3.46966
3.46959
3.46946
3.4693
3.46898
3.46851
3.46745
3.46599
3.46466
3.46249
3.46039
3.4571
3.45569
3.45527
3.45516
3.45513
3.29551
3.32095
3.33687
3.35207
3.3602
3.36775
3.37191
3.37598
3.37824
3.38047
3.382
3.38404
3.38548
3.38735
3.38865
3.39034
3.39151
3.39302
3.39407
3.39541
3.39634
3.39754
3.39836
3.39941
3.40013
3.40106
3.4017
3.40256
3.40323
3.40425
3.40519
3.4057
3.40623
3.40656
3.40694
3.40719
3.4075
3.4077
3.40795
3.40811
3.40831
3.40845
3.40861
3.40872
3.40885
3.40894
3.40904
3.40911
3.40919
3.40923
3.40928
3.40932
3.40936
3.40939
3.40943
3.40945
3.40947
3.40947
3.40947
3.40945
3.40941
3.40937
3.40927
3.40917
3.40898
3.40878
3.40838
3.40792
3.40695
3.40555
3.40238
3.39796
3.39403
3.38746
3.3812
3.37121
3.36703
3.36579
3.36547
3.36539
3.15805
3.20201
3.22816
3.25376
3.26703
3.27974
3.28652
3.29339
3.29706
3.30081
3.30332
3.30677
3.30911
3.31228
3.3144
3.31726
3.31917
3.32172
3.32343
3.32571
3.32723
3.32924
3.33058
3.33236
3.33354
3.33511
3.33616
3.3376
3.33869
3.34041
3.342
3.34284
3.34373
3.34426
3.34491
3.34532
3.34584
3.34617
3.34659
3.34685
3.34719
3.34741
3.34769
3.34786
3.34809
3.34823
3.34841
3.34851
3.34865
3.34872
3.34881
3.34886
3.34894
3.34899
3.34905
3.34908
3.34911
3.34912
3.34911
3.34909
3.34902
3.34895
3.34879
3.34862
3.3483
3.34797
3.34731
3.34655
3.34494
3.34267
3.33735
3.32991
3.3235
3.31241
3.30217
3.28509
3.27825
3.27627
3.27577
3.27565
3.01883
3.08378
3.11946
3.15594
3.17388
3.19196
3.20113
3.21092
3.21588
3.22121
3.22459
3.22954
3.23271
3.23724
3.24012
3.24421
3.2468
3.25046
3.25277
3.25603
3.25809
3.26098
3.26279
3.26534
3.26694
3.26918
3.27061
3.27266
3.27414
3.27659
3.27884
3.27998
3.28124
3.28196
3.28289
3.28345
3.28418
3.28463
3.28523
3.28559
3.28608
3.28637
3.28677
3.28701
3.28733
3.28752
3.28777
3.28792
3.28811
3.28821
3.28833
3.28841
3.28852
3.28858
3.28867
3.28871
3.28876
3.28877
3.28876
3.28873
3.28863
3.28853
3.28831
3.28808
3.28763
3.28717
3.28624
3.28522
3.28296
3.2799
3.2724
3.26182
3.25315
3.23733
3.22341
3.19857
3.18927
3.1867
3.18606
3.18591
2.87701
2.96672
3.01073
3.05887
3.08072
3.10454
3.11571
3.12864
3.13469
3.14168
3.14581
3.15237
3.15625
3.16227
3.1658
3.17122
3.17439
3.17925
3.18207
3.18641
3.18892
3.19276
3.19498
3.19835
3.20031
3.20328
3.20502
3.20775
3.20954
3.21277
3.21572
3.2171
3.21877
3.21965
3.22088
3.22156
3.22254
3.22309
3.22388
3.22432
3.22497
3.22533
3.22586
3.22615
3.22657
3.22681
3.22714
3.22732
3.22757
3.2277
3.22785
3.22795
3.2281
3.22818
3.22829
3.22834
3.22841
3.22842
3.22841
3.22837
3.22825
3.22812
3.22782
3.22755
3.22695
3.2264
3.22517
3.22393
3.221
3.21732
3.20758
3.19366
3.18309
3.16218
3.14509
3.11142
3.10003
3.09705
3.09632
3.09616
2.73161
2.85149
2.90184
2.96284
2.98748
3.01762
3.03022
3.04664
3.05346
3.06226
3.06692
3.07532
3.07971
3.08741
3.0914
3.09833
3.10191
3.10812
3.11132
3.11685
3.1197
3.1246
3.12711
3.13143
3.13363
3.13743
3.1394
3.14287
3.14489
3.14896
3.15267
3.15422
3.15633
3.15733
3.1589
3.15967
3.16092
3.16153
3.16255
3.16305
3.16387
3.16428
3.16495
3.16528
3.16583
3.16609
3.16652
3.16672
3.16704
3.16718
3.16738
3.16749
3.16768
3.16777
3.16791
3.16798
3.16806
3.16807
3.16806
3.16801
3.16786
3.16771
3.16734
3.16703
3.16627
3.16565
3.1641
3.16272
3.15908
3.15498
3.14293
3.12536
3.11345
3.08687
3.06743
3.02338
3.01045
3.00731
3.00656
3.0064
2.58141
2.73904
2.79252
2.86828
2.89403
2.93141
2.94458
2.96502
2.97215
2.98301
2.98789
2.99843
3.00303
3.01269
3.01687
3.02557
3.02932
3.03711
3.04047
3.04741
3.05039
3.05654
3.05917
3.06458
3.0669
3.07165
3.07372
3.07804
3.08016
3.08516
3.0897
3.09132
3.09394
3.09498
3.09695
3.09775
3.09932
3.09996
3.10123
3.10176
3.10279
3.10322
3.10406
3.10441
3.10509
3.10537
3.1059
3.10612
3.10652
3.10667
3.10691
3.10702
3.10726
3.10736
3.10754
3.10761
3.10771
3.10773
3.10771
3.10766
3.10747
3.10732
3.10685
3.10653
3.10559
3.10494
3.10303
3.10159
3.09718
3.09295
3.0785
3.05683
3.04439
3.01128
2.99076
2.9341
2.92047
2.91747
2.91679
2.91663
2.4249
2.63076
2.68232
2.77571
2.80011
2.84617
2.85865
2.88393
2.89069
2.904
2.90863
2.92177
2.92616
2.93819
2.94217
2.953
2.95658
2.96628
2.96947
2.97812
2.98096
2.98862
2.99113
2.99786
3.00007
3.00599
3.00795
3.01331
3.01531
3.02139
3.02685
3.02838
3.03161
3.0326
3.03504
3.03581
3.03775
3.03837
3.03995
3.04045
3.04174
3.04214
3.04319
3.04352
3.04437
3.04463
3.0453
3.04551
3.046
3.04615
3.04645
3.04656
3.04685
3.04695
3.04718
3.04724
3.04736
3.04738
3.04736
3.04731
3.04708
3.04693
3.04636
3.04605
3.04489
3.04428
3.04194
3.04058
3.03527
3.03133
3.01435
2.98794
2.97616
2.93519
2.91553
2.8431
2.83007
2.82754
2.82698
2.82686
2.26016
2.52865
2.57043
2.6859
2.70532
2.76226
2.77221
2.80359
2.80897
2.82534
2.82903
2.84546
2.84897
2.86401
2.8672
2.88073
2.88359
2.8957
2.89826
2.90906
2.91133
2.9209
2.92291
2.93132
2.93309
2.94048
2.94205
2.94871
2.9503
2.95763
2.96416
2.96536
2.96937
2.97016
2.9732
2.97381
2.97624
2.97674
2.97871
2.97911
2.98072
2.98104
2.98235
2.98261
2.98367
2.98388
2.98472
2.98488
2.98551
2.98562
2.986
2.98608
2.98645
2.98653
2.98682
2.98687
2.98702
2.98704
2.98701
2.98697
2.98668
2.98657
2.98585
2.98561
2.98417
2.98368
2.9808
2.97974
2.9733
2.97024
2.95059
2.91846
2.90909
2.85824
2.84242
2.74971
2.73926
2.73753
2.73717
2.73709
2.08469
2.43561
2.45561
2.59993
2.60904
2.68024
2.68491
2.72428
2.72681
2.74719
2.74892
2.76968
2.77133
2.79031
2.79181
2.80888
2.81023
2.82551
2.82672
2.84035
2.84142
2.85349
2.85443
2.86505
2.86588
2.8752
2.87594
2.88431
2.88505
2.89391
2.90168
2.90224
2.90726
2.90763
2.91146
2.91175
2.91481
2.91504
2.91753
2.91772
2.91975
2.9199
2.92155
2.92168
2.92301
2.92311
2.92416
2.92424
2.92503
2.92508
2.92555
2.92559
2.92606
2.9261
2.92646
2.92649
2.92669
2.92669
2.92666
2.92665
2.92628
2.92623
2.92533
2.92522
2.92342
2.92319
2.9196
2.9191
2.9112
2.90981
2.88732
2.84807
2.84369
2.77989
2.77237
2.65304
2.64809
2.64746
2.64734
2.64731
)
;

boundaryField
{
    F1_1
    {
        type            fixedValue;
        value           nonuniform List<scalar> 
80
(
1.99016
2.39622
2.39622
2.56076
2.56076
2.64293
2.64293
2.69056
2.69056
2.72076
2.72076
2.73815
2.73815
2.75723
2.75723
2.77543
2.77543
2.79217
2.79217
2.8073
2.8073
2.8208
2.8208
2.83272
2.83272
2.84321
2.84321
2.85265
2.85265
2.86236
2.8708
2.8708
2.87646
2.87646
2.88079
2.88079
2.88426
2.88426
2.88707
2.88707
2.88937
2.88937
2.89124
2.89124
2.89275
2.89275
2.89394
2.89394
2.89484
2.89484
2.89537
2.89537
2.8959
2.8959
2.89632
2.89632
2.89654
2.89654
2.8965
2.8965
2.89608
2.89608
2.89506
2.89506
2.89301
2.89301
2.88894
2.88894
2.88002
2.88002
2.85602
2.81218
2.81218
2.73959
2.73959
2.60242
2.60242
2.60242
2.60242
2.60242
)
;
    }
    F1_2
    {
        type            fixedValue;
        value           nonuniform List<scalar> 
80
(
1.96789
2.39416
2.39416
2.61868
2.61868
2.76854
2.76854
2.88008
2.88008
2.96371
2.96371
3.01601
3.01601
3.07374
3.07374
3.12808
3.12808
3.17688
3.17688
3.21986
3.21986
3.25738
3.25738
3.29003
3.29003
3.31859
3.31859
3.34434
3.34434
3.3713
3.3953
3.3953
3.41205
3.41205
3.42538
3.42538
3.43648
3.43648
3.44586
3.44586
3.45382
3.45382
3.46057
3.46057
3.46627
3.46627
3.471
3.471
3.47473
3.47473
3.47713
3.47713
3.47981
3.47981
3.48235
3.48235
3.48465
3.48465
3.48668
3.48668
3.48844
3.48844
3.48994
3.48994
3.49112
3.49112
3.49169
3.49169
3.49039
3.49039
3.48175
3.46008
3.46008
3.41353
3.41353
3.30705
3.30705
3.30705
3.30705
3.30705
)
;
    }
    F1_3
    {
        type            fixedValue;
        value           nonuniform List<scalar> 
80
(
1.96789
2.39416
2.39416
2.61868
2.61868
2.76854
2.76854
2.88008
2.88008
2.96371
2.96371
3.01601
3.01601
3.07373
3.07373
3.12808
3.12808
3.17688
3.17688
3.21986
3.21986
3.25738
3.25738
3.29003
3.29003
3.31859
3.31859
3.34434
3.34434
3.3713
3.3953
3.3953
3.41205
3.41205
3.42538
3.42538
3.43648
3.43648
3.44586
3.44586
3.45381
3.45381
3.46057
3.46057
3.46627
3.46627
3.471
3.471
3.47473
3.47473
3.47713
3.47713
3.47981
3.47981
3.48235
3.48235
3.48465
3.48465
3.48668
3.48668
3.48844
3.48844
3.48994
3.48994
3.49112
3.49112
3.49169
3.49169
3.49039
3.49039
3.48175
3.46008
3.46008
3.41353
3.41353
3.30706
3.30706
3.30706
3.30706
3.30706
)
;
    }
    F1_4
    {
        type            fixedValue;
        value           nonuniform List<scalar> 
80
(
1.98993
2.3957
2.3957
2.55965
2.55965
2.64056
2.64056
2.68537
2.68537
2.70848
2.70848
2.73216
2.73216
2.75381
2.75381
2.77327
2.77327
2.7907
2.7907
2.80624
2.80624
2.82
2.82
2.83211
2.83211
2.84273
2.84273
2.85227
2.85227
2.86208
2.87059
2.87059
2.87629
2.87629
2.88066
2.88066
2.88415
2.88415
2.88699
2.88699
2.8893
2.8893
2.89118
2.89118
2.8927
2.8927
2.89391
2.89391
2.8948
2.8948
2.89534
2.89534
2.89588
2.89588
2.8963
2.8963
2.89652
2.89652
2.89649
2.89649
2.89607
2.89607
2.89505
2.89505
2.89301
2.89301
2.88894
2.88894
2.88001
2.88001
2.85602
2.81217
2.81217
2.73959
2.73959
2.60242
2.60242
2.60242
2.60242
2.60242
)
;
    }
    F2_1
    {
        type            fixedValue;
        value           uniform 3.5;
    }
    F2_2
    {
        type            fixedValue;
        value           uniform 3.5;
    }
    F2_3
    {
        type            fixedValue;
        value           uniform 3.5;
    }
    F2_4
    {
        type            fixedValue;
        value           uniform 3.5;
    }
    defaultFaces
    {
        type            empty;
    }
}


// ************************************************************************* //
