/*--------------------------------*- C++ -*----------------------------------*\
| =========                 |                                                 |
| \\      /  F ield         | OpenFOAM: The Open Source CFD Toolbox           |
|  \\    /   O peration     | Version:  5.x                                   |
|   \\  /    A nd           | Web:      www.OpenFOAM.org                      |
|    \\/     M anipulation  |                                                 |
\*---------------------------------------------------------------------------*/
FoamFile
{
    version     2.0;
    format      ascii;
    class       volScalarField;
    location    "6.3";
    object      gradTy;
}
// * * * * * * * * * * * * * * * * * * * * * * * * * * * * * * * * * * * * * //

dimensions      [0 -1 0 1 0 0 0];

internalField   nonuniform List<scalar> 
2048
(
-26.4234
-26.3958
-26.3415
-26.2618
-26.159
-26.0356
-25.8944
-25.7381
-25.5695
-25.3913
-25.2058
-25.0152
-24.8214
-24.626
-24.4307
-24.2367
-24.045
-23.8568
-23.6726
-23.4931
-23.3187
-23.1498
-22.9866
-22.8294
-22.6783
-22.5337
-22.3959
-22.2651
-22.1417
-22.0262
-21.9193
-21.8214
-21.7333
-21.656
-21.5903
-21.5372
-21.4979
-21.4736
-21.4653
-21.4745
-21.5023
-21.55
-21.6189
-21.7101
-21.8245
-21.9629
-22.1257
-22.3128
-22.5236
-22.7567
-23.0097
-23.2793
-23.5613
-23.8504
-24.1406
-24.4253
-24.6977
-24.9511
-25.1796
-25.3778
-25.5412
-25.6667
-25.7515
-25.7944
-26.4458
-26.4175
-26.3619
-26.2805
-26.1757
-26.0501
-25.9065
-25.748
-25.5773
-25.3972
-25.21
-25.0178
-24.8226
-24.626
-24.4296
-24.2347
-24.0423
-23.8535
-23.6688
-23.4889
-23.3143
-23.1451
-22.9818
-22.8244
-22.6731
-22.5283
-22.3902
-22.259
-22.1353
-22.0194
-21.9119
-21.8134
-21.7247
-21.6466
-21.5801
-21.5261
-21.4859
-21.4605
-21.4513
-21.4594
-21.4862
-21.5329
-21.6009
-21.6913
-21.8051
-21.9432
-22.106
-22.2937
-22.5057
-22.7406
-22.9962
-23.2693
-23.5556
-23.8496
-24.1451
-24.4352
-24.7129
-24.9713
-25.2041
-25.4058
-25.5721
-25.6994
-25.7856
-25.829
-26.4885
-26.459
-26.4009
-26.3162
-26.2074
-26.0774
-25.9295
-25.7667
-25.592
-25.4082
-25.2177
-25.0226
-24.8248
-24.6259
-24.4275
-24.2309
-24.0371
-23.8471
-23.6616
-23.481
-23.3059
-23.1363
-22.9726
-22.8149
-22.6633
-22.518
-22.3794
-22.2477
-22.1232
-22.0065
-21.898
-21.7984
-21.7084
-21.6288
-21.5607
-21.5051
-21.463
-21.4358
-21.4246
-21.4308
-21.4556
-21.5005
-21.5667
-21.6555
-21.7681
-21.9055
-22.0684
-22.257
-22.4711
-22.7095
-22.9701
-23.2498
-23.5442
-23.8476
-24.1534
-24.4541
-24.7422
-25.0101
-25.2511
-25.4595
-25.6309
-25.762
-25.8504
-25.895
-26.5497
-26.5183
-26.4567
-26.367
-26.2523
-26.116
-25.9617
-25.7927
-25.6124
-25.4234
-25.2283
-25.029
-24.8276
-24.6255
-24.4243
-24.2253
-24.0295
-23.8379
-23.6512
-23.4697
-23.2939
-23.1239
-22.9597
-22.8016
-22.6495
-22.5037
-22.3643
-22.2318
-22.1063
-21.9884
-21.8786
-21.7774
-21.6855
-21.604
-21.5336
-21.4756
-21.431
-21.4011
-21.3872
-21.3906
-21.4126
-21.4547
-21.5183
-21.6049
-21.7157
-21.8519
-22.0146
-22.2044
-22.4212
-22.6643
-22.932
-23.2211
-23.5271
-23.8442
-24.1649
-24.481
-24.7841
-25.0657
-25.3185
-25.5365
-25.7151
-25.8512
-25.9429
-25.9889
-26.6281
-26.5942
-26.5277
-26.4315
-26.309
-26.1644
-26.0017
-25.8249
-25.6373
-25.4419
-25.241
-25.0366
-24.8306
-24.6246
-24.4199
-24.2178
-24.0196
-23.8261
-23.6379
-23.4554
-23.2789
-23.1083
-22.9436
-22.785
-22.6323
-22.4858
-22.3456
-22.2121
-22.0854
-21.9661
-21.8545
-21.7513
-21.6572
-21.573
-21.4999
-21.4388
-21.391
-21.3578
-21.3404
-21.3402
-21.3587
-21.3973
-21.4576
-21.5411
-21.6494
-21.7839
-21.9461
-22.1369
-22.3569
-22.6057
-22.882
-23.1829
-23.5039
-23.8385
-24.1787
-24.5151
-24.8377
-25.137
-25.4049
-25.6349
-25.8225
-25.9647
-26.0601
-26.1079
-26.7227
-26.6855
-26.6129
-26.5082
-26.376
-26.2211
-26.0482
-25.8619
-25.6657
-25.4627
-25.2551
-25.0449
-24.8336
-24.6229
-24.4141
-24.2085
-24.0074
-23.8117
-23.6218
-23.4383
-23.261
-23.0899
-22.9248
-22.7656
-22.6123
-22.465
-22.3239
-22.1892
-22.0612
-21.9402
-21.8267
-21.7211
-21.6243
-21.5371
-21.4606
-21.3959
-21.3444
-21.3072
-21.2857
-21.2813
-21.2956
-21.3299
-21.3861
-21.4657
-21.5708
-21.7029
-21.864
-22.0556
-22.2787
-22.5338
-22.8199
-23.1348
-23.4738
-23.83
-24.1942
-24.5555
-24.9023
-25.2234
-25.5095
-25.7536
-25.9513
-26.1003
-26.1997
-26.2493
-26.8329
-26.7916
-26.7112
-26.5962
-26.4521
-26.2847
-26.0999
-25.9025
-25.6966
-25.485
-25.27
-25.0533
-24.8362
-24.6202
-24.4068
-24.1973
-23.993
-23.7948
-23.6032
-23.4186
-23.2406
-23.0691
-22.9036
-22.744
-22.59
-22.4419
-22.2997
-22.1638
-22.0343
-21.9115
-21.7958
-21.6876
-21.5878
-21.4971
-21.4168
-21.348
-21.2921
-21.2504
-21.2243
-21.2152
-21.2245
-21.2539
-21.3052
-21.3803
-21.4812
-21.6102
-21.7695
-21.9611
-22.1871
-22.4485
-22.7455
-23.0761
-23.4359
-23.8176
-24.2106
-24.6019
-24.9777
-25.3246
-25.6317
-25.8917
-26.1003
-26.2562
-26.3595
-26.4108
-26.9581
-26.9118
-26.8221
-26.6945
-26.536
-26.3541
-26.1553
-25.9455
-25.7288
-25.508
-25.2851
-25.0615
-24.8381
-24.6165
-24.398
-24.1841
-23.9762
-23.7753
-23.5821
-23.3965
-23.2181
-23.0463
-22.8806
-22.7205
-22.5659
-22.4169
-22.2736
-22.1363
-22.0053
-21.8806
-21.7626
-21.6516
-21.5484
-21.4539
-21.3693
-21.296
-21.2353
-21.1887
-21.1574
-21.143
-21.1468
-21.1707
-21.2164
-21.286
-21.382
-21.5069
-21.6633
-21.8542
-22.0823
-22.3499
-22.658
-23.0058
-23.3892
-23.8003
-24.227
-24.6539
-25.0637
-25.4405
-25.7713
-26.0484
-26.2683
-26.4307
-26.5374
-26.5901
-27.0984
-27.0459
-26.9448
-26.8021
-26.6268
-26.4278
-26.2133
-25.9897
-25.7614
-25.531
-25.3
-25.0691
-24.8393
-24.6116
-24.3875
-24.1688
-23.957
-23.7534
-23.5585
-23.3721
-23.1935
-23.0218
-22.8561
-22.6957
-22.5404
-22.3904
-22.2459
-22.1073
-21.9747
-21.8482
-21.7277
-21.6137
-21.5068
-21.4081
-21.3189
-21.2406
-21.1748
-21.1228
-21.086
-21.0658
-21.0637
-21.0814
-21.1208
-21.1843
-21.2744
-21.3941
-21.5466
-21.7356
-21.9647
-22.2377
-22.5569
-22.9229
-23.3323
-23.7768
-24.2427
-24.711
-25.1606
-25.5715
-25.9286
-26.2236
-26.4542
-26.6223
-26.7314
-26.7849
-27.2537
-27.1938
-27.0789
-26.9183
-26.7231
-26.5046
-26.2725
-26.0339
-25.7934
-25.5533
-25.3141
-25.0761
-24.8395
-24.6054
-24.3753
-24.1513
-23.9354
-23.729
-23.5325
-23.3457
-23.1673
-22.996
-22.8305
-22.6698
-22.5139
-22.3628
-22.2171
-22.0772
-21.9431
-21.8146
-21.6918
-21.5746
-21.4638
-21.3605
-21.2662
-21.1826
-21.1112
-21.0536
-21.011
-20.9847
-20.9762
-20.9872
-21.0197
-21.0762
-21.1595
-21.2729
-21.4202
-21.6058
-21.8346
-22.1117
-22.4414
-22.8261
-23.2637
-23.7459
-24.2567
-24.7733
-25.2689
-25.7185
-26.1041
-26.4171
-26.6573
-26.8293
-26.9393
-26.9928
-27.4244
-27.3554
-27.2241
-27.0421
-26.8238
-26.5831
-26.3314
-26.0769
-25.824
-25.5742
-25.3272
-25.0821
-24.8388
-24.5979
-24.3614
-24.1317
-23.9113
-23.7019
-23.5041
-23.3172
-23.1396
-22.9692
-22.8041
-22.6434
-22.4867
-22.3344
-22.1874
-22.0462
-21.9107
-21.7805
-21.6552
-21.5348
-21.4198
-21.3116
-21.2119
-21.1226
-21.0454
-20.9818
-20.9332
-20.9005
-20.8853
-20.8891
-20.9141
-20.9629
-21.0385
-21.1445
-21.2853
-21.4658
-21.6923
-21.9717
-22.3107
-22.7141
-23.1818
-23.7057
-24.2679
-24.8405
-25.3894
-25.8827
-26.2986
-26.6291
-26.8768
-27.0502
-27.1591
-27.2115
-27.6109
-27.5311
-27.38
-27.1729
-26.9277
-26.6619
-26.3888
-26.1175
-25.8522
-25.5933
-25.3391
-25.0874
-24.8373
-24.5894
-24.3458
-24.1097
-23.8845
-23.6721
-23.4733
-23.2869
-23.1107
-22.9417
-22.7775
-22.6167
-22.4591
-22.3055
-22.157
-22.0146
-21.8779
-21.7463
-21.6187
-21.4949
-21.3755
-21.262
-21.1565
-21.0611
-20.9779
-20.9082
-20.8533
-20.8142
-20.7919
-20.7882
-20.8051
-20.8454
-20.9125
-21.01
-21.1427
-21.3164
-21.5384
-21.8177
-22.164
-22.5853
-23.0845
-23.6544
-24.2752
-24.9128
-25.5234
-26.0657
-26.5134
-26.8597
-27.1117
-27.2833
-27.3885
-27.4383
-27.8139
-27.721
-27.5465
-27.3096
-27.0335
-26.7394
-26.4432
-26.1545
-25.8772
-25.6102
-25.3497
-25.0919
-24.8351
-24.5798
-24.3285
-24.0854
-23.8549
-23.6395
-23.4399
-23.2548
-23.0808
-22.914
-22.751
-22.5902
-22.4316
-22.2763
-22.1262
-21.9825
-21.8451
-21.7122
-21.5825
-21.4553
-21.3313
-21.2121
-21.1003
-20.9986
-20.9091
-20.8332
-20.7721
-20.7264
-20.6969
-20.6852
-20.6936
-20.7249
-20.7826
-20.8705
-20.9937
-21.1585
-21.3735
-21.6497
-22.0005
-22.4382
-22.9696
-23.5898
-24.277
-24.9903
-25.6727
-26.2698
-26.7502
-27.1093
-27.3612
-27.5266
-27.625
-27.6706
-28.0342
-27.9257
-27.7233
-27.4515
-27.1398
-26.8143
-26.4931
-26.1866
-25.8981
-25.6244
-25.359
-25.0959
-24.8327
-24.5696
-24.3097
-24.0586
-23.8223
-23.6038
-23.4039
-23.2209
-23.0502
-22.8864
-22.725
-22.5642
-22.4043
-22.2468
-22.0948
-21.9502
-21.8123
-21.6788
-21.5471
-21.4166
-21.2877
-21.1623
-21.0438
-20.9354
-20.8394
-20.7573
-20.69
-20.6378
-20.6011
-20.5811
-20.5804
-20.6021
-20.6497
-20.7272
-20.8394
-20.9933
-21.1985
-21.4681
-21.8196
-22.2711
-22.8348
-23.509
-24.2715
-25.0731
-25.8394
-26.4979
-27.0107
-27.3783
-27.6243
-27.7783
-27.8662
-27.9056
-28.2729
-28.1456
-27.9102
-27.5976
-27.2449
-26.8848
-26.5371
-26.2128
-25.9144
-25.6359
-25.3673
-25.0998
-24.8303
-24.559
-24.2894
-24.0292
-23.7865
-23.5649
-23.3651
-23.1853
-23.0191
-22.8593
-22.6999
-22.5391
-22.3775
-22.2173
-22.0629
-21.9175
-21.7799
-21.6463
-21.5131
-21.3791
-21.245
-21.1129
-20.987
-20.8716
-20.7692
-20.6809
-20.6076
-20.549
-20.505
-20.4766
-20.4664
-20.478
-20.515
-20.5811
-20.6811
-20.8221
-21.0144
-21.2733
-21.6209
-22.0823
-22.6773
-23.4091
-24.2562
-25.1613
-26.0265
-26.7536
-27.2973
-27.667
-27.8996
-28.0361
-28.1093
-28.1407
-28.5311
-28.3814
-28.1073
-27.7467
-27.3473
-26.9493
-26.5738
-26.2317
-25.9253
-25.6446
-25.375
-25.104
-24.8283
-24.5485
-24.2677
-23.9969
-23.7473
-23.5225
-23.3234
-23.1479
-22.988
-22.8333
-22.6763
-22.5153
-22.3516
-22.1877
-22.0302
-21.8844
-21.7479
-21.6152
-21.4806
-21.3432
-21.2038
-21.0642
-20.9303
-20.8077
-20.6986
-20.6044
-20.5254
-20.4607
-20.4095
-20.3723
-20.3522
-20.3533
-20.3793
-20.4334
-20.5199
-20.6463
-20.8227
-21.066
-21.4039
-21.8703
-22.4946
-23.2864
-24.2279
-25.2551
-26.238
-27.0413
-27.6124
-27.9753
-28.1856
-28.2977
-28.3517
-28.373
-28.8103
-28.6338
-28.3143
-27.8977
-27.445
-27.0062
-26.6016
-26.242
-25.9302
-25.6506
-25.3825
-25.1091
-24.8274
-24.5386
-24.2448
-23.9615
-23.7045
-23.4764
-23.2783
-23.1089
-22.957
-22.809
-22.6545
-22.4931
-22.3268
-22.1579
-21.9965
-21.8507
-21.7166
-21.5857
-21.4502
-21.3094
-21.1643
-21.0165
-20.8736
-20.7436
-20.628
-20.5278
-20.4437
-20.3733
-20.3151
-20.2689
-20.2385
-20.2286
-20.2434
-20.2851
-20.3571
-20.4673
-20.6249
-20.8472
-21.1687
-21.6335
-22.2837
-23.1368
-24.1825
-25.3544
-26.4789
-27.3664
-27.9585
-28.3031
-28.4804
-28.5603
-28.5908
-28.5997
-29.1121
-28.9034
-28.5315
-28.0493
-27.5357
-27.054
-26.6193
-26.2426
-25.9285
-25.6539
-25.3909
-25.1155
-24.8279
-24.5302
-24.2208
-23.9225
-23.6579
-23.4264
-23.2296
-23.0682
-22.9265
-22.7869
-22.6351
-22.4728
-22.3036
-22.128
-21.9612
-21.8161
-21.686
-21.5585
-21.4222
-21.2778
-21.1271
-20.9698
-20.8169
-20.6794
-20.5574
-20.4515
-20.3627
-20.2874
-20.2224
-20.1669
-20.1256
-20.1045
-20.1081
-20.1373
-20.194
-20.2867
-20.4229
-20.6185
-20.9156
-21.3705
-22.0421
-22.9559
-24.1143
-25.4587
-26.7558
-27.7354
-28.3384
-28.6497
-28.7816
-28.8213
-28.8236
-28.8184
-29.4384
-29.1906
-28.759
-28.2
-27.6168
-27.0911
-26.6258
-26.2319
-25.9198
-25.6551
-25.401
-25.1239
-24.8301
-24.5241
-24.1959
-23.8791
-23.6074
-23.3724
-23.1766
-23.0257
-22.8971
-22.768
-22.6184
-22.4547
-22.2825
-22.0979
-21.9236
-21.7803
-21.6562
-21.534
-21.3969
-21.2487
-21.0927
-20.9244
-20.7598
-20.6152
-20.4869
-20.3754
-20.2829
-20.2033
-20.1319
-20.0668
-20.014
-19.9813
-19.9741
-19.991
-20.0314
-20.106
-20.219
-20.3813
-20.6449
-21.0799
-21.7673
-22.7389
-24.0156
-25.567
-27.0778
-28.1562
-28.7542
-29.0135
-29.0863
-29.0778
-29.0477
-29.0266
-29.7913
-29.4956
-28.9977
-28.3481
-27.6848
-27.1168
-26.6202
-26.2081
-25.9037
-25.6544
-25.4144
-25.1346
-24.8343
-24.522
-24.1703
-23.8301
-23.553
-23.3142
-23.1186
-22.9813
-22.8689
-22.7534
-22.6047
-22.4387
-22.2644
-22.0673
-21.8825
-21.743
-21.6274
-21.5131
-21.3745
-21.2222
-21.0619
-20.8803
-20.702
-20.5512
-20.4168
-20.2994
-20.2045
-20.1216
-20.0445
-19.969
-19.9039
-19.8594
-19.8419
-19.8472
-19.8703
-19.9269
-20.0159
-20.1377
-20.3578
-20.7604
-21.4577
-22.4811
-23.8762
-25.6774
-27.4567
-28.6376
-29.2078
-29.3922
-29.3913
-29.3266
-29.2607
-29.2222
-30.1732
-29.8179
-29.2487
-28.4919
-27.7357
-27.1305
-26.6022
-26.1692
-25.88
-25.6524
-25.4332
-25.148
-24.8401
-24.5259
-24.1439
-23.7738
-23.4951
-23.252
-23.0544
-22.9351
-22.8425
-22.7443
-22.5942
-22.4247
-22.2505
-22.0363
-21.8364
-21.7036
-21.5997
-21.4967
-21.3551
-21.1981
-21.0355
-20.8376
-20.6425
-20.4874
-20.3471
-20.2234
-20.1277
-20.0425
-19.9605
-19.874
-19.7955
-19.7387
-19.712
-19.7069
-19.7111
-19.7508
-19.8165
-19.89
-20.0557
-20.4105
-21.1124
-22.1785
-23.682
-25.7863
-27.9089
-29.1898
-29.6997
-29.7824
-29.6926
-29.5649
-29.4602
-29.4035
-30.5875
-30.1556
-29.5146
-28.6294
-27.7636
-27.133
-26.5718
-26.1122
-25.8489
-25.6492
-25.4603
-25.1639
-24.8465
-24.5389
-24.1171
-23.7075
-23.4349
-23.1863
-22.9821
-22.8873
-22.8181
-22.7427
-22.587
-22.412
-22.2427
-22.0046
-21.7832
-21.6621
-21.5731
-21.4863
-21.3387
-21.1758
-21.0152
-20.7965
-20.5802
-20.4244
-20.2782
-20.1469
-20.0528
-19.9665
-19.8808
-19.782
-19.6889
-19.6191
-19.5849
-19.5714
-19.554
-19.5787
-19.6247
-19.6402
-19.7406
-20.0279
-20.7318
-21.8289
-23.4139
-25.8881
-28.457
-29.8241
-30.2292
-30.1795
-29.9861
-29.7896
-29.6444
-29.5691
-31.0381
-30.5051
-29.7996
-28.7584
-27.7609
-27.1265
-26.5299
-26.033
-25.8111
-25.6449
-25.4996
-25.1818
-24.8515
-24.5656
-24.0899
-23.6269
-23.3741
-23.1179
-22.8993
-22.8383
-22.7954
-22.7512
-22.5824
-22.3991
-22.2439
-21.9721
-21.7197
-21.6182
-21.5473
-21.484
-21.325
-21.1542
-21.003
-20.7568
-20.513
-20.363
-20.2104
-20.069
-19.9802
-19.8937
-19.8063
-19.6933
-19.584
-19.5002
-19.4607
-19.4424
-19.3984
-19.4114
-19.445
-19.3907
-19.4156
-19.6097
-20.3183
-21.4328
-23.0459
-25.9738
-29.1319
-30.5519
-30.7929
-30.5775
-30.2673
-29.9981
-29.8117
-29.7181
-31.5303
-30.8594
-30.1107
-28.8768
-27.7166
-27.1159
-26.4783
-25.9257
-25.7684
-25.6384
-25.557
-25.2004
-24.8513
-24.6128
-24.0625
-23.5257
-23.3164
-23.0481
-22.8021
-22.7893
-22.774
-22.7737
-22.5798
-22.3837
-22.2584
-21.9389
-21.6416
-21.5728
-21.5218
-21.4928
-21.3132
-21.1314
-21.0023
-20.7186
-20.4381
-20.3044
-20.1443
-19.9885
-19.9105
-19.8242
-19.7379
-19.608
-19.4808
-19.3814
-19.3395
-19.3218
-19.2431
-19.2491
-19.2832
-19.1429
-19.0852
-19.1505
-19.8758
-20.9964
-22.5431
-26.0295
-29.9769
-31.3837
-31.385
-30.9693
-30.5316
-30.1879
-29.9611
-29.8497
-32.0716
-31.2067
-30.4591
-28.9823
-27.6156
-27.1094
-26.4199
-25.7817
-25.7247
-25.6272
-25.6406
-25.2174
-24.8396
-24.6906
-24.0349
-23.3946
-23.2673
-22.9789
-22.6847
-22.7427
-22.752
-22.8155
-22.5776
-22.3616
-22.2926
-21.9048
-21.5431
-21.5273
-21.4951
-21.517
-21.3022
-21.1041
-21.0178
-20.6817
-20.351
-20.2512
-20.0806
-19.9033
-19.8447
-19.7577
-19.6771
-19.5262
-19.3791
-19.2618
-19.2211
-19.2129
-19.0858
-19.091
-19.1467
-18.8972
-18.756
-18.6419
-19.4108
-20.5337
-21.8588
-26.0346
-31.0515
-32.3274
-31.9953
-31.3465
-30.7745
-30.3572
-30.0918
-29.9638
-32.6725
-31.528
-30.8621
-29.0726
-27.4366
-27.1205
-26.3591
-25.5882
-25.6865
-25.6059
-25.7625
-25.2295
-24.8067
-24.8135
-24.0069
-23.2201
-23.2356
-22.9132
-22.5386
-22.7027
-22.7258
-22.8843
-22.5735
-22.3264
-22.3558
-21.8697
-21.4157
-21.4854
-21.4645
-21.5628
-21.2902
-21.0674
-21.0565
-20.6459
-20.2456
-20.207
-20.0203
-19.8105
-19.7845
-19.6936
-19.6258
-19.4476
-19.279
-19.14
-19.1047
-19.1201
-18.9226
-18.935
-19.0453
-18.6519
-18.4384
-18.0707
-18.9317
-20.0709
-20.9308
-25.9591
-32.4381
-33.385
-32.61
-31.7
-30.9919
-30.5044
-30.2036
-30.0605
-33.3477
-31.7939
-31.3461
-29.1455
-27.1496
-27.1699
-26.3016
-25.3269
-25.6656
-25.5649
-25.9395
-25.2314
-24.7376
-25.0023
-23.9785
-22.983
-23.2348
-22.855
-22.3517
-22.6767
-22.6891
-22.9913
-22.5641
-22.2687
-22.4614
-21.8333
-21.2479
-21.4531
-21.4248
-21.6391
-21.2743
-21.0137
-21.1286
-20.6107
-20.1131
-20.1777
-19.9647
-19.7057
-19.7325
-19.6302
-19.5863
-19.3717
-19.1807
-19.0145
-18.989
-19.05
-18.7482
-18.7772
-18.9925
-18.4015
-18.1479
-17.4166
-18.4489
-19.6518
-19.6776
-25.7601
-34.2495
-34.5486
-33.2102
-32.0204
-31.1805
-30.6288
-30.2965
-30.1404
-34.1183
-31.96
-31.9493
-29.1987
-26.7136
-27.288
-26.2551
-24.9718
-25.6806
-25.4879
-26.1955
-25.2162
-24.6109
-25.2861
-23.949
-22.6563
-23.2845
-22.8091
-22.1066
-22.6767
-22.6309
-23.1521
-22.5446
-22.1745
-22.6282
-21.795
-21.024
-21.4407
-21.3676
-21.7585
-21.2508
-20.9324
-21.2482
-20.5756
-19.9413
-20.1718
-19.9152
-19.5825
-19.6932
-19.5651
-19.5623
-19.2971
-19.0847
-18.8831
-18.8715
-19.0119
-18.555
-18.6115
-19.0067
-18.1353
-17.908
-16.6495
-17.9731
-19.3443
-17.9931
-25.377
-36.6387
-35.7943
-33.7728
-32.2988
-31.3376
-30.73
-30.3712
-30.2042
-35.0137
-31.962
-32.7269
-29.2301
-26.0723
-27.5186
-26.2288
-24.4862
-25.7606
-25.3485
-26.564
-25.1743
-24.396
-25.7049
-23.9176
-22.203
-23.4128
-22.7819
-21.779
-22.7217
-22.5338
-23.3886
-22.5086
-22.0241
-22.882
-21.754
-20.7229
-21.4647
-21.2789
-21.9386
-21.2145
-20.8083
-21.4351
-20.5391
-19.7137
-20.2018
-19.8735
-19.4323
-19.6731
-19.4936
-19.5586
-19.2221
-18.9921
-18.7435
-18.748
-19.0193
-18.3325
-18.4283
-19.113
-17.8337
-17.7538
-15.7266
-17.5144
-19.2484
-15.7409
-24.7267
-39.8117
-37.0738
-34.271
-32.5273
-31.4618
-30.8085
-30.4285
-30.2528
-36.0748
-31.7088
-33.756
-29.2373
-25.1503
-27.9221
-26.2341
-23.8196
-25.9499
-25.1065
-27.0911
-25.0933
-24.0508
-26.313
-23.8827
-21.5735
-23.6587
-22.7809
-21.3353
-22.8403
-22.3714
-23.7311
-22.4477
-21.7905
-23.2579
-21.7082
-20.316
-21.5494
-21.1377
-22.2035
-21.1586
-20.6204
-21.7159
-20.4996
-19.4079
-20.2852
-19.8411
-19.2429
-19.682
-19.409
-19.582
-19.1432
-18.9047
-18.593
-18.6121
-19.0905
-18.0674
-18.2138
-19.3464
-17.4653
-17.7364
-14.5881
-17.0793
-19.5068
-12.7484
-23.6962
-44.0418
-38.304
-34.6766
-32.7002
-31.5528
-30.865
-30.4694
-30.2875
-37.3576
-31.0741
-35.1427
-29.2176
-23.8479
-28.5812
-26.2837
-22.9034
-26.3129
-24.7023
-27.8393
-24.9573
-23.5182
-27.1823
-23.842
-20.7021
-24.0754
-22.8148
-20.7302
-23.0744
-22.1044
-24.2207
-22.3512
-21.437
-23.8025
-21.6549
-19.7659
-21.7311
-20.9122
-22.5863
-21.074
-20.3407
-22.1262
-20.4542
-18.9947
-20.4458
-19.8197
-18.9982
-19.7341
-19.3009
-19.642
-19.0556
-18.8257
-18.4288
-18.4541
-19.2507
-17.742
-17.9483
-19.7544
-16.9815
-17.929
-13.1535
-16.6673
-20.3158
-8.79946
-22.1345
-49.6876
-39.3538
-34.9631
-32.8145
-31.6115
-30.9011
-30.4954
-30.3094
-38.9368
-29.8878
-37.0297
-29.1676
-22.0351
-29.6049
-26.3915
-21.6456
-26.94
-24.0491
-28.8914
-24.7465
-22.7234
-28.407
-23.7918
-19.5025
-24.7327
-22.8927
-19.9027
-23.4835
-21.676
-24.9122
-22.2045
-20.9138
-24.5751
-21.5888
-19.0237
-22.0609
-20.5572
-23.1311
-20.9489
-19.9312
-22.7117
-20.3986
-18.4365
-20.7161
-19.8101
-18.6761
-19.8486
-19.1536
-19.7506
-18.9514
-18.759
-18.2475
-18.2596
-19.533
-17.3347
-17.6045
-20.4004
-16.3098
-18.4326
-11.3156
-16.2659
-21.9385
-3.62735
-19.8436
-57.2124
-40.027
-35.1105
-32.8699
-31.6392
-30.9178
-30.5072
-30.3193
)
;

boundaryField
{
    left
    {
        type            calculated;
        value           nonuniform List<scalar> 
32
(
-26.4234
-26.4458
-26.4885
-26.5497
-26.6281
-26.7227
-26.8329
-26.9581
-27.0984
-27.2537
-27.4244
-27.6109
-27.8139
-28.0342
-28.2729
-28.5311
-28.8103
-29.1121
-29.4384
-29.7913
-30.1732
-30.5875
-31.0381
-31.5303
-32.0716
-32.6725
-33.3477
-34.1183
-35.0137
-36.0748
-37.3576
-38.9368
)
;
    }
    right
    {
        type            calculated;
        value           nonuniform List<scalar> 
32
(
-25.7944
-25.829
-25.895
-25.9889
-26.1079
-26.2493
-26.4108
-26.5901
-26.7849
-26.9928
-27.2115
-27.4383
-27.6706
-27.9056
-28.1407
-28.373
-28.5997
-28.8184
-29.0266
-29.2222
-29.4035
-29.5691
-29.7181
-29.8497
-29.9638
-30.0605
-30.1404
-30.2042
-30.2528
-30.2875
-30.3094
-30.3193
)
;
    }
    interface
    {
        type            calculated;
        value           nonuniform List<scalar> 
64
(
-39.8113
-29.1325
-38.1188
-29.1345
-20.9827
-30.2234
-26.4617
-20.9181
-27.3327
-23.6474
-29.505
-24.6195
-22.2498
-29.1216
-23.7638
-18.8084
-25.1314
-22.9439
-19.4247
-23.7404
-21.4132
-25.3162
-22.1165
-20.6025
-25.0266
-21.5517
-18.5978
-22.2704
-20.3408
-23.4504
-20.8746
-19.6884
-23.0545
-20.3675
-18.1159
-20.8832
-19.8083
-18.4925
-19.9241
-19.0677
-19.8188
-18.894
-18.7293
-18.1522
-18.1512
-19.7095
-17.1074
-17.409
-20.7919
-15.9162
-18.7767
-10.2805
-16.0653
-22.9908
-0.698809
-18.4877
-61.5098
-40.2402
-35.1473
-32.883
-31.6455
-30.9215
-30.5097
-30.3213
)
;
    }
    bottom
    {
        type            calculated;
        value           nonuniform List<scalar> 
64
(
-26.4176
-26.3902
-26.3362
-26.2569
-26.1547
-26.0318
-25.8912
-25.7355
-25.5675
-25.3898
-25.2047
-25.0145
-24.821
-24.626
-24.431
-24.2372
-24.0457
-23.8576
-23.6736
-23.4942
-23.3198
-23.151
-22.9878
-22.8307
-22.6797
-22.5352
-22.3974
-22.2666
-22.1434
-22.028
-21.9212
-21.8235
-21.7356
-21.6585
-21.593
-21.5402
-21.5011
-21.477
-21.469
-21.4784
-21.5065
-21.5545
-21.6236
-21.715
-21.8295
-21.968
-22.1308
-22.3178
-22.5283
-22.7609
-23.0132
-23.2819
-23.5628
-23.8506
-24.1394
-24.4227
-24.6937
-24.9459
-25.1732
-25.3705
-25.5332
-25.6581
-25.7427
-25.7853
)
;
    }
    defaultFaces
    {
        type            empty;
    }
}


// ************************************************************************* //
