/*--------------------------------*- C++ -*----------------------------------*\
| =========                 |                                                 |
| \\      /  F ield         | OpenFOAM: The Open Source CFD Toolbox           |
|  \\    /   O peration     | Version:  5.x                                   |
|   \\  /    A nd           | Web:      www.OpenFOAM.org                      |
|    \\/     M anipulation  |                                                 |
\*---------------------------------------------------------------------------*/
FoamFile
{
    version     2.0;
    format      ascii;
    class       volScalarField;
    location    "1.9";
    object      gradTy;
}
// * * * * * * * * * * * * * * * * * * * * * * * * * * * * * * * * * * * * * //

dimensions      [0 -1 0 1 0 0 0];

internalField   nonuniform List<scalar> 
2048
(
-26.4283
-26.4008
-26.3465
-26.267
-26.1644
-26.0412
-25.9002
-25.7443
-25.5761
-25.3983
-25.2133
-25.0231
-24.8299
-24.6351
-24.4404
-24.2471
-24.0562
-23.8687
-23.6854
-23.5067
-23.3333
-23.1654
-23.0032
-22.8471
-22.6972
-22.5538
-22.4172
-22.2877
-22.1657
-22.0516
-21.946
-21.8495
-21.7629
-21.687
-21.6227
-21.5711
-21.5331
-21.51
-21.503
-21.5134
-21.5422
-21.5909
-21.6606
-21.7525
-21.8674
-22.0062
-22.1692
-22.3563
-22.567
-22.7997
-23.0522
-23.3212
-23.6025
-23.8908
-24.1801
-24.4638
-24.7352
-24.9878
-25.2155
-25.4129
-25.5758
-25.7007
-25.7853
-25.8279
-26.4506
-26.4224
-26.3669
-26.2857
-26.181
-26.0556
-25.9123
-25.7542
-25.5839
-25.4042
-25.2174
-25.0257
-24.831
-24.6351
-24.4393
-24.2451
-24.0535
-23.8654
-23.6815
-23.5025
-23.3288
-23.1607
-22.9983
-22.842
-22.692
-22.5483
-22.4115
-22.2816
-22.1592
-22.0447
-21.9386
-21.8415
-21.7543
-21.6776
-21.6125
-21.5599
-21.5211
-21.497
-21.489
-21.4983
-21.5262
-21.5739
-21.6427
-21.7337
-21.8481
-21.9865
-22.1496
-22.3373
-22.5491
-22.7837
-23.0388
-23.3113
-23.5968
-23.8899
-24.1845
-24.4737
-24.7505
-25.0079
-25.2399
-25.4408
-25.6065
-25.7333
-25.8192
-25.8624
-26.4932
-26.4638
-26.4058
-26.3213
-26.2126
-26.0829
-25.9352
-25.7727
-25.5985
-25.4151
-25.225
-25.0304
-24.8331
-24.6349
-24.4371
-24.2412
-24.0481
-23.8589
-23.6742
-23.4945
-23.3203
-23.1518
-22.9891
-22.8325
-22.682
-22.538
-22.4006
-22.2702
-22.1471
-22.0317
-21.9246
-21.8264
-21.7379
-21.6598
-21.5931
-21.5389
-21.4983
-21.4724
-21.4625
-21.4698
-21.4958
-21.5416
-21.6086
-21.6982
-21.8113
-21.9491
-22.1122
-22.3008
-22.5147
-22.7528
-23.0129
-23.2919
-23.5855
-23.888
-24.1928
-24.4925
-24.7796
-25.0465
-25.2866
-25.4943
-25.665
-25.7956
-25.8837
-25.9281
-26.5544
-26.523
-26.4615
-26.372
-26.2575
-26.1214
-25.9673
-25.7987
-25.6187
-25.4302
-25.2355
-25.0367
-24.8358
-24.6344
-24.4338
-24.2354
-24.0404
-23.8496
-23.6637
-23.4831
-23.3082
-23.1392
-22.9761
-22.819
-22.6681
-22.5234
-22.3854
-22.2541
-22.13
-22.0135
-21.9051
-21.8053
-21.715
-21.6349
-21.566
-21.5094
-21.4662
-21.4377
-21.4251
-21.4297
-21.4529
-21.496
-21.5605
-21.6477
-21.7591
-21.8958
-22.0587
-22.2485
-22.4651
-22.7079
-22.975
-23.2634
-23.5685
-23.8846
-24.2043
-24.5193
-24.8213
-25.1018
-25.3537
-25.5709
-25.7488
-25.8845
-25.9757
-26.0216
-26.6326
-26.5987
-26.5324
-26.4363
-26.314
-26.1696
-26.0072
-25.8307
-25.6435
-25.4485
-25.248
-25.0442
-24.8387
-24.6333
-24.4292
-24.2279
-24.0304
-23.8376
-23.6502
-23.4686
-23.293
-23.1234
-22.9598
-22.8022
-22.6507
-22.5054
-22.3665
-22.2342
-22.1089
-21.991
-21.8809
-21.7792
-21.6866
-21.6039
-21.5322
-21.4727
-21.4263
-21.3945
-21.3784
-21.3795
-21.3992
-21.4388
-21.5
-21.5843
-21.6931
-21.8281
-21.9906
-22.1814
-22.4012
-22.6496
-22.9253
-23.2254
-23.5454
-23.879
-24.2181
-24.5532
-24.8746
-25.1729
-25.4398
-25.6689
-25.8557
-25.9974
-26.0924
-26.14
-26.7271
-26.6899
-26.6174
-26.5129
-26.3808
-26.2261
-26.0536
-25.8676
-25.6718
-25.4691
-25.262
-25.0522
-24.8415
-24.6314
-24.4232
-24.2184
-24.018
-23.823
-23.634
-23.4513
-23.2749
-23.1048
-22.9407
-22.7826
-22.6305
-22.4844
-22.3445
-22.2111
-22.0845
-21.9649
-21.8529
-21.7489
-21.6536
-21.5679
-21.493
-21.4298
-21.3797
-21.3439
-21.3239
-21.3208
-21.3362
-21.3717
-21.4288
-21.5093
-21.6149
-21.7476
-21.9089
-22.1005
-22.3234
-22.5781
-22.8636
-23.1776
-23.5155
-23.8705
-24.2335
-24.5935
-24.939
-25.2589
-25.5439
-25.7871
-25.984
-26.1324
-26.2314
-26.2808
-26.837
-26.7958
-26.7156
-26.6007
-26.4567
-26.2896
-26.1051
-25.908
-25.7024
-25.4913
-25.2767
-25.0605
-24.8439
-24.6286
-24.4158
-24.2069
-24.0033
-23.8059
-23.6151
-23.4313
-23.2543
-23.0838
-22.9193
-22.7607
-22.6079
-22.461
-22.3201
-22.1855
-22.0574
-21.936
-21.8218
-21.7152
-21.6169
-21.5278
-21.4491
-21.3819
-21.3275
-21.2873
-21.2626
-21.2548
-21.2654
-21.2959
-21.3482
-21.4242
-21.5258
-21.6553
-21.8148
-22.0065
-22.2323
-22.4933
-22.7895
-23.1192
-23.4779
-23.8582
-24.2498
-24.6397
-25.0141
-25.3596
-25.6655
-25.9245
-26.1323
-26.2876
-26.3904
-26.4416
-26.9621
-26.9158
-26.8262
-26.6988
-26.5405
-26.3588
-26.1603
-25.9508
-25.7345
-25.5141
-25.2917
-25.0684
-24.8457
-24.6246
-24.4067
-24.1935
-23.9863
-23.7862
-23.5938
-23.409
-23.2315
-23.0607
-22.896
-22.737
-22.5835
-22.4357
-22.2937
-22.1578
-22.0281
-21.9049
-21.7884
-21.679
-21.5773
-21.4845
-21.4015
-21.3298
-21.2707
-21.2256
-21.1958
-21.1828
-21.188
-21.213
-21.2598
-21.3304
-21.4271
-21.5525
-21.7093
-21.9002
-22.1281
-22.3952
-22.7026
-23.0493
-23.4314
-23.841
-24.2662
-24.6914
-25.0997
-25.4749
-25.8045
-26.0805
-26.2995
-26.4613
-26.5675
-26.62
-27.1021
-27.0497
-26.9487
-26.8062
-26.631
-26.4323
-26.2181
-25.9948
-25.7669
-25.5369
-25.3063
-25.0759
-24.8466
-24.6194
-24.396
-24.1779
-23.9669
-23.7641
-23.5699
-23.3843
-23.2067
-23.0359
-22.8712
-22.7118
-22.5577
-22.4089
-22.2657
-22.1285
-21.9973
-21.8722
-21.7533
-21.6408
-21.5356
-21.4386
-21.351
-21.2744
-21.2102
-21.1598
-21.1246
-21.1058
-21.1051
-21.124
-21.1646
-21.229
-21.32
-21.4403
-21.5931
-21.7822
-22.0112
-22.2836
-22.602
-22.9669
-23.3748
-23.8177
-24.2818
-24.7483
-25.1961
-25.6054
-25.9611
-26.2549
-26.4846
-26.6519
-26.7606
-26.8139
-27.2572
-27.1973
-27.0826
-26.9221
-26.7271
-26.5088
-26.277
-26.0388
-25.7987
-25.5589
-25.3202
-25.0826
-24.8465
-24.613
-24.3836
-24.1602
-23.9451
-23.7393
-23.5436
-23.3576
-23.1801
-23.0098
-22.8452
-22.6856
-22.5308
-22.381
-22.2365
-22.098
-21.9653
-21.8383
-21.717
-21.6015
-21.4924
-21.3908
-21.2983
-21.2164
-21.1467
-21.0907
-21.0497
-21.0249
-21.0178
-21.0301
-21.0639
-21.1214
-21.2056
-21.3197
-21.4675
-21.6532
-21.8817
-22.1583
-22.4871
-22.8706
-23.3066
-23.7869
-24.2957
-24.8103
-25.3039
-25.7517
-26.1357
-26.4475
-26.6867
-26.858
-26.9676
-27.0208
-27.4277
-27.3587
-27.2275
-27.0457
-26.8276
-26.5871
-26.3358
-26.0815
-25.829
-25.5796
-25.333
-25.0884
-24.8456
-24.6053
-24.3694
-24.1403
-23.9206
-23.712
-23.515
-23.3289
-23.1521
-22.9826
-22.8186
-22.6588
-22.5033
-22.3522
-22.2065
-22.0666
-21.9326
-21.8039
-21.6802
-21.5614
-21.4482
-21.3418
-21.2439
-21.1564
-21.081
-21.0191
-20.972
-20.941
-20.9272
-20.9324
-20.9587
-21.0086
-21.0852
-21.192
-21.3332
-21.5139
-21.7402
-22.0191
-22.3571
-22.7592
-23.2251
-23.747
-24.3069
-24.8772
-25.4239
-25.9151
-26.3293
-26.6585
-26.9052
-27.0779
-27.1864
-27.2384
-27.6139
-27.5341
-27.3832
-27.1762
-26.9313
-26.6657
-26.3929
-26.1219
-25.857
-25.5984
-25.3447
-25.0934
-24.8438
-24.5965
-24.3535
-24.1181
-23.8936
-23.6819
-23.4838
-23.2982
-23.1229
-22.9548
-22.7916
-22.6318
-22.4754
-22.323
-22.1758
-22.0346
-21.8994
-21.7693
-21.6433
-21.5212
-21.4037
-21.292
-21.1884
-21.0949
-21.0134
-20.9455
-20.8923
-20.8548
-20.8341
-20.8318
-20.8501
-20.8917
-20.9598
-21.0582
-21.1914
-21.3653
-21.5872
-21.8659
-22.2112
-22.631
-23.1282
-23.6959
-24.3141
-24.9491
-25.5572
-26.0972
-26.5432
-26.888
-27.139
-27.3098
-27.4146
-27.4642
-27.8166
-27.7237
-27.5494
-27.3127
-27.0369
-26.743
-26.4471
-26.1586
-25.8817
-25.615
-25.355
-25.0977
-24.8414
-24.5867
-24.336
-24.0935
-23.8637
-23.649
-23.4502
-23.2658
-23.0927
-22.9267
-22.7647
-22.6049
-22.4474
-22.2933
-22.1445
-22.0022
-21.8662
-21.7349
-21.6067
-21.4813
-21.3592
-21.242
-21.1321
-21.0323
-20.9447
-20.8707
-20.8113
-20.7672
-20.7394
-20.7292
-20.739
-20.7717
-20.8305
-20.9195
-21.0433
-21.2084
-21.4232
-21.6989
-22.0486
-22.4847
-23.0139
-23.6315
-24.3159
-25.0262
-25.7057
-26.3004
-26.7788
-27.1365
-27.3874
-27.552
-27.6501
-27.6954
-28.0366
-27.9281
-27.726
-27.4543
-27.1429
-26.8176
-26.4968
-26.1906
-25.9025
-25.6291
-25.364
-25.1014
-24.8387
-24.5762
-24.3169
-24.0665
-23.8308
-23.6131
-23.4139
-23.2316
-23.0617
-22.8987
-22.7383
-22.5785
-22.4197
-22.2635
-22.1128
-21.9695
-21.833
-21.701
-21.571
-21.4422
-21.3153
-21.192
-21.0754
-20.9691
-20.8751
-20.7949
-20.7294
-20.6788
-20.6438
-20.6254
-20.6263
-20.6494
-20.6984
-20.7769
-20.8899
-21.0442
-21.2492
-21.5183
-21.8687
-22.3184
-22.8797
-23.5511
-24.3104
-25.1085
-25.8716
-26.5275
-27.0382
-27.4042
-27.6492
-27.8026
-27.8901
-27.9293
-28.275
-28.1477
-27.9127
-27.6001
-27.2478
-26.8879
-26.5406
-26.2165
-25.9185
-25.6403
-25.3721
-25.105
-24.836
-24.5653
-24.2963
-24.0368
-23.7948
-23.5739
-23.3749
-23.1957
-23.0303
-22.8713
-22.7128
-22.553
-22.3926
-22.2336
-22.0805
-21.9364
-21.8002
-21.6681
-21.5365
-21.4044
-21.2723
-21.1424
-21.0186
-20.9054
-20.8049
-20.7186
-20.6472
-20.5903
-20.548
-20.5212
-20.5127
-20.5259
-20.5643
-20.6316
-20.7325
-20.874
-21.0663
-21.3246
-21.671
-22.1306
-22.7231
-23.4516
-24.2951
-25.1963
-26.0579
-26.782
-27.3234
-27.6916
-27.9233
-28.0592
-28.1321
-28.1633
-28.533
-28.3832
-28.1094
-27.7489
-27.35
-26.9522
-26.577
-26.2352
-25.9292
-25.6488
-25.3795
-25.109
-24.8338
-24.5545
-24.2744
-24.0043
-23.7554
-23.5313
-23.3328
-23.1581
-22.9988
-22.8449
-22.6888
-22.5288
-22.3662
-22.2036
-22.0474
-21.9029
-21.7678
-21.6365
-21.5037
-21.3681
-21.2308
-21.0935
-20.9618
-20.8414
-20.7345
-20.6422
-20.5651
-20.5022
-20.4527
-20.4173
-20.3989
-20.4017
-20.4293
-20.4848
-20.5723
-20.6992
-20.8757
-21.1185
-21.4552
-21.9197
-22.5412
-23.3295
-24.2668
-25.2896
-26.2684
-27.0683
-27.6371
-27.9985
-28.208
-28.3195
-28.3734
-28.3945
-28.812
-28.6353
-28.3162
-27.8997
-27.4475
-27.0089
-26.6046
-26.2453
-25.9338
-25.6544
-25.3868
-25.1137
-24.8325
-24.5443
-24.2512
-23.9686
-23.7124
-23.4849
-23.2875
-23.1188
-22.9675
-22.8202
-22.6666
-22.5062
-22.3411
-22.1735
-22.0134
-21.8688
-21.736
-21.6066
-21.4728
-21.3339
-21.191
-21.0455
-20.905
-20.7773
-20.6639
-20.5658
-20.4835
-20.415
-20.3585
-20.3142
-20.2856
-20.2776
-20.2941
-20.3374
-20.4106
-20.5214
-20.6792
-20.901
-21.2214
-21.6841
-22.3313
-23.1805
-24.2215
-25.3884
-26.5081
-27.392
-27.9817
-28.3249
-28.5015
-28.581
-28.6114
-28.6202
-29.1135
-28.9045
-28.5331
-28.051
-27.538
-27.0564
-26.6222
-26.2457
-25.932
-25.6576
-25.3948
-25.1198
-24.8327
-24.5356
-24.227
-23.9294
-23.6655
-23.4347
-23.2386
-23.0777
-22.9367
-22.7978
-22.6468
-22.4855
-22.3175
-22.1432
-21.9777
-21.8338
-21.705
-21.5789
-21.4443
-21.3019
-21.1534
-20.9986
-20.8483
-20.7132
-20.5935
-20.4897
-20.4028
-20.3292
-20.2659
-20.2124
-20.1731
-20.154
-20.1596
-20.1905
-20.2485
-20.342
-20.4785
-20.6737
-20.9696
-21.4224
-22.0908
-23.0004
-24.1535
-25.4921
-26.7838
-27.7594
-28.3599
-28.6698
-28.8013
-28.8408
-28.8432
-28.8378
-29.4395
-29.1914
-28.7604
-28.2014
-27.6188
-27.0934
-26.6285
-26.2347
-25.9231
-25.6585
-25.4047
-25.1279
-24.8347
-24.5293
-24.2018
-23.8857
-23.6148
-23.3805
-23.1854
-23.0349
-22.9069
-22.7785
-22.6297
-22.467
-22.296
-22.1127
-21.9398
-21.7977
-21.6748
-21.554
-21.4185
-21.2724
-21.1187
-20.953
-20.7912
-20.6491
-20.5232
-20.4138
-20.3232
-20.2453
-20.1757
-20.1126
-20.0619
-20.0314
-20.0263
-20.0452
-20.0871
-20.1626
-20.276
-20.438
-20.7005
-21.1333
-21.8173
-22.7842
-24.0551
-25.5998
-27.1043
-28.1782
-28.7739
-29.032
-29.1047
-29.0961
-29.0663
-29.045
-29.792
-29.4961
-28.9988
-28.3493
-27.6867
-27.1188
-26.6228
-26.2108
-25.9068
-25.6576
-25.4178
-25.1384
-24.8385
-24.5269
-24.1759
-23.8366
-23.5602
-23.3221
-23.1272
-22.9903
-22.8784
-22.7634
-22.6156
-22.4506
-22.2775
-22.0818
-21.8984
-21.76
-21.6456
-21.5325
-21.3956
-21.2454
-21.0874
-20.9087
-20.7334
-20.5852
-20.4533
-20.3381
-20.245
-20.1637
-20.0883
-20.0151
-19.9522
-19.91
-19.8949
-19.9024
-19.9271
-19.9849
-20.0743
-20.196
-20.415
-20.8155
-21.5091
-22.5274
-23.9162
-25.7095
-27.4815
-28.6575
-29.2255
-29.4091
-29.4083
-29.3438
-29.2782
-29.2398
-30.1737
-29.818
-29.2495
-28.4929
-27.7373
-27.1324
-26.6046
-26.1717
-25.8829
-25.6553
-25.4363
-25.1514
-24.844
-24.5304
-24.1493
-23.7802
-23.5022
-23.2598
-23.0628
-22.9439
-22.8517
-22.7538
-22.6047
-22.4361
-22.2631
-22.0504
-21.8521
-21.7204
-21.6174
-21.5155
-21.3757
-21.2207
-21.0606
-20.8659
-20.674
-20.5216
-20.3839
-20.2625
-20.1685
-20.0848
-20.0045
-19.9202
-19.8442
-19.7898
-19.7659
-19.7632
-19.7692
-19.8101
-19.8764
-19.9498
-20.1146
-20.4673
-21.1654
-22.2261
-23.7226
-25.8177
-27.9317
-29.2075
-29.7153
-29.7977
-29.7083
-29.581
-29.4768
-29.4203
-30.5876
-30.1555
-29.5151
-28.6301
-27.765
-27.1347
-26.574
-26.1146
-25.8515
-25.6519
-25.4631
-25.167
-24.8502
-24.543
-24.1223
-23.7137
-23.4418
-23.194
-22.9904
-22.8958
-22.8268
-22.7518
-22.5969
-22.423
-22.2549
-22.0184
-21.7988
-21.6785
-21.5903
-21.5045
-21.3587
-21.1979
-21.0397
-20.8245
-20.6119
-20.4588
-20.3152
-20.1863
-20.0938
-20.0089
-19.9248
-19.8284
-19.7379
-19.6706
-19.6395
-19.6289
-19.6133
-19.6394
-19.6861
-19.7018
-19.8014
-20.0868
-20.7866
-21.8778
-23.4553
-25.9188
-28.4773
-29.8391
-30.2426
-30.1931
-30.0005
-29.8047
-29.6601
-29.5852
-31.0378
-30.5047
-29.7997
-28.7589
-27.7621
-27.1281
-26.5319
-26.0353
-25.8135
-25.6473
-25.5021
-25.1846
-24.8549
-24.5694
-24.0949
-23.633
-23.3809
-23.1254
-22.9076
-22.8466
-22.8039
-22.7598
-22.592
-22.4097
-22.2555
-21.9857
-21.7352
-21.6344
-21.5641
-21.5015
-21.3444
-21.1759
-21.0269
-20.7846
-20.545
-20.3975
-20.2477
-20.109
-20.0215
-19.9362
-19.8501
-19.7398
-19.6334
-19.5521
-19.5161
-19.501
-19.4591
-19.4735
-19.5079
-19.4539
-19.4783
-19.6707
-20.3749
-21.4833
-23.0886
-26.0038
-29.1494
-30.5638
-30.804
-30.5894
-30.2805
-30.0122
-29.8267
-29.7334
-31.5296
-30.8587
-30.1104
-28.8772
-27.7176
-27.1173
-26.4802
-25.928
-25.7706
-25.6406
-25.559
-25.2029
-24.8543
-24.6162
-24.0672
-23.5318
-23.323
-23.0555
-22.8103
-22.7974
-22.7821
-22.7817
-22.5889
-22.3938
-22.2693
-21.9522
-21.6573
-21.5888
-21.5382
-21.5095
-21.332
-21.1525
-21.0253
-20.7462
-20.4704
-20.339
-20.1819
-20.0291
-19.952
-19.8667
-19.7815
-19.6546
-19.5305
-19.4335
-19.3957
-19.3818
-19.3051
-19.3126
-19.3476
-19.2078
-19.1498
-19.2138
-19.9345
-21.0485
-22.5876
-26.0588
-29.9907
-31.3922
-31.3935
-30.9795
-30.5436
-30.2012
-29.9754
-29.8644
-32.0706
-31.2058
-30.4584
-28.9825
-27.6165
-27.1106
-26.4216
-25.7839
-25.7267
-25.6291
-25.6423
-25.2197
-24.8423
-24.6935
-24.0393
-23.4007
-23.2736
-22.9862
-22.693
-22.7506
-22.7597
-22.8228
-22.5862
-22.3713
-22.3027
-21.9179
-21.559
-21.5432
-21.5111
-21.5327
-21.3204
-21.1248
-21.0397
-20.7091
-20.384
-20.2858
-20.1185
-19.9448
-19.8864
-19.8004
-19.7202
-19.5729
-19.4293
-19.3139
-19.2781
-19.2744
-19.149
-19.1559
-19.2126
-18.9639
-18.8227
-18.7078
-19.4716
-20.5875
-21.9058
-26.0633
-31.0608
-32.3319
-32.0014
-31.3551
-30.7854
-30.3698
-30.1055
-29.978
-32.671
-31.527
-30.861
-29.0727
-27.4374
-27.1216
-26.3606
-25.5904
-25.6883
-25.6076
-25.7637
-25.2314
-24.8091
-24.8158
-24.0111
-23.2264
-23.2417
-22.9204
-22.5471
-22.7103
-22.7332
-22.8908
-22.5816
-22.3359
-22.3649
-21.8825
-21.4322
-21.501
-21.4801
-21.5773
-21.3078
-21.0878
-21.077
-20.6731
-20.2797
-20.2415
-20.0585
-19.8531
-19.8264
-19.7363
-19.6681
-19.4944
-19.3298
-19.1919
-19.1625
-19.1832
-18.987
-19.0012
-19.1127
-18.7203
-18.507
-18.1395
-18.9947
-20.1264
-20.9813
-25.9874
-32.4417
-33.3853
-32.6135
-31.7071
-31.0019
-30.5164
-30.2166
-30.0743
-33.3458
-31.7927
-31.3444
-29.1454
-27.1504
-27.1707
-26.3029
-25.3292
-25.6671
-25.5664
-25.9401
-25.2331
-24.7399
-25.0038
-23.9824
-22.9897
-23.2405
-22.862
-22.3606
-22.684
-22.6962
-22.9967
-22.5718
-22.278
-22.4692
-21.8459
-21.2654
-21.4684
-21.4403
-21.6521
-21.2914
-21.0341
-21.1471
-20.6377
-20.1488
-20.2118
-20.0031
-19.7498
-19.7745
-19.6732
-19.6275
-19.4186
-19.2323
-19.0657
-19.0476
-19.1151
-18.8138
-18.8449
-19.0614
-18.4717
-18.2184
-17.4888
-18.5141
-19.7087
-19.7329
-25.7881
-34.2457
-34.5443
-33.2113
-32.0262
-31.1896
-30.6402
-30.3091
-30.1538
-34.1159
-31.9587
-31.9471
-29.1985
-26.7145
-27.2886
-26.2561
-24.9743
-25.6818
-25.4892
-26.1954
-25.2176
-24.6131
-25.2866
-23.9527
-22.6636
-23.2897
-22.8159
-22.1162
-22.6837
-22.6379
-23.1562
-22.5519
-22.1839
-22.6342
-21.8075
-21.043
-21.4557
-21.3831
-21.7695
-21.2676
-20.9532
-21.2641
-20.6023
-19.9795
-20.2051
-19.9537
-19.6288
-19.7349
-19.6085
-19.6018
-19.3444
-19.1376
-18.9331
-18.931
-19.0795
-18.6216
-18.6807
-19.0769
-18.2072
-17.9802
-16.7256
-18.0407
-19.4019
-18.0552
-25.4052
-36.6255
-35.785
-33.7715
-32.3035
-31.346
-30.741
-30.3834
-30.2173
-35.0108
-31.9607
-32.7241
-29.2297
-26.0735
-27.5186
-26.2296
-24.489
-25.7614
-25.3497
-26.5629
-25.1754
-24.3984
-25.7041
-23.921
-22.2113
-23.4171
-22.7884
-21.7895
-22.7281
-22.5409
-23.391
-22.5156
-22.034
-22.8856
-21.7662
-20.7441
-21.4789
-21.2948
-21.9469
-21.2311
-20.83
-21.4472
-20.5656
-19.7553
-20.2336
-19.9119
-19.4815
-19.7142
-19.538
-19.5956
-19.2698
-19.0467
-18.7916
-18.8085
-19.0899
-18.3999
-18.499
-19.1845
-17.9075
-17.8274
-15.8074
-17.5844
-19.3059
-15.8123
-24.7556
-39.7861
-37.0596
-34.2677
-32.5311
-31.4697
-30.8191
-30.4404
-30.2658
-36.0714
-31.7076
-33.7525
-29.2367
-25.1519
-27.9215
-26.2345
-23.8228
-25.9501
-25.1077
-27.0887
-25.0942
-24.0536
-26.3105
-23.8859
-21.5833
-23.6618
-22.7869
-21.3472
-22.8458
-22.3789
-23.7312
-22.4545
-21.8013
-23.2582
-21.7202
-20.3403
-21.5625
-21.1546
-22.2082
-21.1751
-20.6441
-21.7228
-20.5258
-19.4546
-20.3144
-19.8793
-19.2963
-19.7216
-19.4549
-19.6154
-19.1916
-18.962
-18.6379
-18.6737
-19.1649
-18.135
-18.2861
-19.419
-17.5409
-17.8108
-14.6746
-17.1517
-19.5623
-12.8326
-23.7266
-43.9999
-38.2851
-34.6717
-32.7033
-31.5603
-30.8754
-30.4811
-30.3003
-37.3536
-31.0731
-35.1383
-29.2167
-23.8503
-28.5797
-26.2837
-22.9073
-26.3122
-24.7036
-27.8353
-24.9581
-23.5218
-27.1774
-23.8447
-20.7141
-24.0767
-22.8201
-20.7441
-23.0785
-22.1128
-24.2177
-22.3579
-21.4496
-23.7981
-21.6664
-19.7946
-21.742
-20.9311
-22.586
-21.0907
-20.3676
-22.1259
-20.48
-19.0485
-20.4708
-19.857
-19.0571
-19.771
-19.3493
-19.67
-19.1049
-18.8865
-18.4686
-18.5168
-19.3297
-17.8091
-18.0223
-19.8277
-17.0589
-18.0031
-13.2468
-16.7419
-20.3664
-8.90062
-22.1673
-49.6242
-39.3307
-34.957
-32.817
-31.6185
-30.9112
-30.5068
-30.3219
-38.9323
-29.8867
-37.0236
-29.1663
-22.0391
-29.6027
-26.3913
-21.6514
-26.9389
-24.0519
-28.8863
-24.747
-22.7279
-28.3983
-23.7941
-19.5185
-24.7323
-22.8977
-19.92
-23.4857
-21.6864
-24.9052
-22.2121
-20.9305
-24.5656
-21.6004
-19.0583
-22.068
-20.5794
-23.1239
-20.9667
-19.9641
-22.7022
-20.424
-18.5
-20.7345
-19.8462
-18.7435
-19.8816
-19.2067
-19.7718
-19.0024
-18.8254
-18.2804
-18.3238
-19.618
-17.4
-17.6806
-20.4749
-16.3903
-18.5059
-11.4183
-16.343
-21.9801
-3.75131
-19.8804
-57.1214
-40.0016
-35.1041
-32.8725
-31.6464
-30.9283
-30.5189
-30.3321
)
;

boundaryField
{
    left
    {
        type            calculated;
        value           nonuniform List<scalar> 
32
(
-26.4283
-26.4506
-26.4932
-26.5544
-26.6326
-26.7271
-26.837
-26.9621
-27.1021
-27.2572
-27.4277
-27.6139
-27.8166
-28.0366
-28.275
-28.533
-28.812
-29.1135
-29.4395
-29.792
-30.1737
-30.5876
-31.0378
-31.5296
-32.0706
-32.671
-33.3458
-34.1159
-35.0108
-36.0714
-37.3536
-38.9323
)
;
    }
    right
    {
        type            calculated;
        value           nonuniform List<scalar> 
32
(
-25.8279
-25.8624
-25.9281
-26.0216
-26.14
-26.2808
-26.4416
-26.62
-26.8139
-27.0208
-27.2384
-27.4642
-27.6954
-27.9293
-28.1633
-28.3945
-28.6202
-28.8378
-29.045
-29.2398
-29.4203
-29.5852
-29.7334
-29.8644
-29.978
-30.0743
-30.1538
-30.2173
-30.2658
-30.3003
-30.3219
-30.3321
)
;
    }
    interface
    {
        type            calculated;
        value           nonuniform List<scalar> 
64
(
-39.8065
-29.1311
-38.1113
-29.133
-20.9879
-30.221
-26.4617
-20.9255
-27.3319
-23.6516
-29.4997
-24.62
-22.2547
-29.1105
-23.7659
-18.8272
-25.1303
-22.949
-19.4441
-23.7416
-21.4249
-25.307
-22.125
-20.6224
-25.0148
-21.5637
-18.6358
-22.2749
-20.3648
-23.4391
-20.8932
-19.7254
-23.0401
-20.393
-18.1849
-20.8976
-19.8437
-18.5651
-19.9552
-19.124
-19.8363
-18.9463
-18.7992
-18.1812
-18.2163
-19.7979
-17.1716
-17.4866
-20.8674
-15.9987
-18.8498
-10.3889
-16.144
-23.0268
-0.835822
-18.5271
-61.4032
-40.2145
-35.1412
-32.8859
-31.6531
-30.9323
-30.5218
-30.3345
)
;
    }
    bottom
    {
        type            calculated;
        value           nonuniform List<scalar> 
64
(
-26.4225
-26.3952
-26.3412
-26.2621
-26.16
-26.0374
-25.8971
-25.7417
-25.5741
-25.3968
-25.2122
-25.0225
-24.8296
-24.6351
-24.4407
-24.2476
-24.0569
-23.8696
-23.6864
-23.5078
-23.3345
-23.1666
-23.0045
-22.8484
-22.6986
-22.5553
-22.4187
-22.2893
-22.1673
-22.0534
-21.9479
-21.8516
-21.7652
-21.6895
-21.6254
-21.574
-21.5363
-21.5135
-21.5067
-21.5173
-21.5464
-21.5954
-21.6653
-21.7573
-21.8724
-22.0113
-22.1743
-22.3613
-22.5716
-22.8039
-23.0557
-23.3238
-23.604
-23.891
-24.1789
-24.4612
-24.7313
-24.9826
-25.2091
-25.4057
-25.5678
-25.6922
-25.7765
-25.819
)
;
    }
    defaultFaces
    {
        type            empty;
    }
}


// ************************************************************************* //
