/*--------------------------------*- C++ -*----------------------------------*\
| =========                 |                                                 |
| \\      /  F ield         | OpenFOAM: The Open Source CFD Toolbox           |
|  \\    /   O peration     | Version:  5.x                                   |
|   \\  /    A nd           | Web:      www.OpenFOAM.org                      |
|    \\/     M anipulation  |                                                 |
\*---------------------------------------------------------------------------*/
FoamFile
{
    version     2.0;
    format      ascii;
    class       volScalarField;
    location    "0.8";
    object      T;
}
// * * * * * * * * * * * * * * * * * * * * * * * * * * * * * * * * * * * * * //

dimensions      [0 0 0 1 0 0 0];

internalField   nonuniform List<scalar> 
6300
(
322.853
322.558
322.262
321.964
321.665
321.362
321.056
320.745
320.43
320.111
319.786
319.455
319.119
318.777
318.43
322.853
322.559
322.264
321.967
321.668
321.365
321.06
320.75
320.435
320.116
319.791
319.461
319.125
318.783
318.435
322.854
322.561
322.267
321.971
321.673
321.372
321.068
320.759
320.445
320.127
319.802
319.472
319.136
318.794
318.446
322.855
322.564
322.272
321.978
321.682
321.383
321.08
320.773
320.46
320.143
319.819
319.49
319.154
318.811
318.463
322.856
322.568
322.279
321.988
321.694
321.398
321.097
320.792
320.481
320.165
319.842
319.513
319.177
318.835
318.485
322.858
322.573
322.288
322
321.71
321.416
321.118
320.816
320.507
320.193
319.872
319.544
319.208
318.865
318.514
322.86
322.58
322.298
322.015
321.728
321.439
321.144
320.845
320.54
320.228
319.909
319.582
319.246
318.902
318.55
322.863
322.587
322.311
322.032
321.751
321.465
321.176
320.881
320.579
320.27
319.954
319.628
319.292
318.948
318.593
322.865
322.596
322.325
322.052
321.776
321.497
321.213
320.923
320.626
320.321
320.007
319.683
319.349
319.003
318.645
322.869
322.606
322.342
322.075
321.806
321.533
321.255
320.971
320.68
320.381
320.071
319.75
319.416
319.069
318.708
322.872
322.617
322.36
322.101
321.84
321.574
321.304
321.027
320.743
320.45
320.146
319.829
319.498
319.149
318.784
322.876
322.629
322.381
322.13
321.877
321.62
321.359
321.091
320.816
320.531
320.234
319.923
319.595
319.247
318.877
322.881
322.643
322.403
322.162
321.918
321.671
321.42
321.162
320.897
320.623
320.336
320.034
319.713
319.368
318.995
322.886
322.657
322.427
322.196
321.963
321.727
321.486
321.241
320.989
320.728
320.454
320.165
319.854
319.516
319.147
322.891
322.672
322.453
322.232
322.01
321.786
321.558
321.326
321.089
320.844
320.588
320.317
320.022
319.694
319.332
318.106
317.809
317.508
317.204
316.896
316.586
316.273
315.958
315.641
315.321
315
314.677
314.353
314.027
313.7
313.373
313.044
312.716
312.387
312.058
311.729
311.4
311.07
310.741
310.412
310.083
309.753
309.424
309.095
308.766
308.437
308.108
307.779
307.451
307.123
306.795
306.468
306.141
305.814
305.487
305.16
304.833
304.506
304.179
303.852
303.525
303.199
302.872
302.546
302.22
301.893
301.568
301.242
300.916
300.59
300.264
299.938
299.611
299.285
298.959
298.632
298.306
297.979
297.653
297.327
297.001
296.675
296.349
296.023
295.697
295.372
295.046
294.72
294.394
294.069
293.743
293.417
293.092
292.767
292.441
292.116
291.791
291.466
291.14
290.813
290.486
290.158
289.829
289.498
289.167
318.112
317.814
317.512
317.208
316.9
316.59
316.277
315.961
315.644
315.324
315.002
314.679
314.354
314.028
313.701
313.374
313.045
312.716
312.387
312.058
311.729
311.4
311.07
310.741
310.412
310.083
309.753
309.424
309.095
308.765
308.436
308.107
307.779
307.451
307.123
306.795
306.468
306.14
305.813
305.487
305.16
304.833
304.506
304.179
303.852
303.525
303.199
302.872
302.546
302.219
301.893
301.567
301.242
300.916
300.59
300.264
299.938
299.612
299.285
298.959
298.632
298.305
297.979
297.653
297.326
297
296.675
296.349
296.023
295.697
295.372
295.046
294.72
294.394
294.068
293.743
293.417
293.092
292.766
292.441
292.116
291.791
291.466
291.141
290.814
290.487
290.159
289.83
289.5
289.168
318.122
317.824
317.522
317.217
316.908
316.598
316.284
315.968
315.65
315.329
315.007
314.683
314.358
314.031
313.704
313.375
313.046
312.717
312.388
312.058
311.729
311.4
311.07
310.741
310.412
310.083
309.753
309.424
309.095
308.765
308.436
308.107
307.778
307.45
307.122
306.794
306.467
306.14
305.813
305.486
305.16
304.833
304.506
304.179
303.852
303.525
303.198
302.871
302.545
302.219
301.893
301.567
301.242
300.916
300.59
300.264
299.938
299.612
299.285
298.959
298.632
298.305
297.979
297.652
297.326
297
296.674
296.349
296.023
295.697
295.372
295.046
294.72
294.394
294.068
293.742
293.417
293.091
292.766
292.441
292.117
291.792
291.467
291.142
290.817
290.49
290.163
289.834
289.503
289.172
318.138
317.839
317.536
317.23
316.921
316.609
316.294
315.978
315.659
315.338
315.015
314.69
314.363
314.036
313.707
313.378
313.048
312.718
312.388
312.059
311.729
311.4
311.071
310.741
310.412
310.083
309.754
309.424
309.094
308.765
308.435
308.106
307.777
307.448
307.12
306.793
306.466
306.139
305.813
305.486
305.16
304.833
304.506
304.179
303.852
303.524
303.197
302.871
302.544
302.218
301.892
301.567
301.241
300.916
300.591
300.265
299.939
299.612
299.286
298.959
298.632
298.305
297.978
297.651
297.325
296.999
296.674
296.348
296.023
295.698
295.372
295.046
294.72
294.394
294.068
293.741
293.416
293.09
292.765
292.441
292.117
291.793
291.469
291.145
290.82
290.494
290.167
289.839
289.509
289.177
318.159
317.859
317.555
317.247
316.937
316.624
316.308
315.991
315.671
315.348
315.024
314.698
314.371
314.042
313.712
313.381
313.05
312.719
312.389
312.058
311.729
311.399
311.07
310.742
310.413
310.084
309.754
309.424
309.094
308.764
308.434
308.104
307.775
307.446
307.118
306.791
306.464
306.138
305.812
305.486
305.16
304.834
304.506
304.179
303.851
303.524
303.196
302.869
302.543
302.217
301.891
301.566
301.241
300.917
300.592
300.266
299.94
299.613
299.286
298.959
298.631
298.304
297.977
297.65
297.324
296.998
296.673
296.348
296.023
295.698
295.372
295.047
294.72
294.394
294.067
293.74
293.414
293.088
292.764
292.439
292.116
291.793
291.471
291.148
290.825
290.501
290.175
289.847
289.517
289.185
318.187
317.884
317.579
317.269
316.957
316.643
316.326
316.007
315.685
315.362
315.037
314.709
314.38
314.049
313.717
313.385
313.052
312.72
312.388
312.058
311.728
311.399
311.07
310.742
310.414
310.085
309.755
309.425
309.094
308.763
308.432
308.101
307.771
307.443
307.115
306.788
306.462
306.137
305.812
305.487
305.161
304.835
304.507
304.179
303.851
303.523
303.195
302.867
302.54
302.214
301.89
301.565
301.241
300.917
300.593
300.268
299.942
299.615
299.288
298.959
298.631
298.303
297.975
297.648
297.322
296.996
296.672
296.347
296.023
295.699
295.374
295.048
294.721
294.394
294.066
293.739
293.412
293.086
292.761
292.437
292.115
291.794
291.473
291.152
290.831
290.509
290.185
289.858
289.528
289.195
318.22
317.916
317.607
317.295
316.981
316.664
316.346
316.026
315.704
315.379
315.052
314.723
314.392
314.059
313.724
313.389
313.054
312.719
312.387
312.055
311.726
311.397
311.07
310.743
310.415
310.087
309.757
309.426
309.095
308.762
308.43
308.098
307.767
307.438
307.11
306.784
306.46
306.136
305.812
305.488
305.163
304.837
304.509
304.181
303.851
303.521
303.192
302.864
302.537
302.211
301.887
301.564
301.241
300.919
300.595
300.271
299.945
299.618
299.29
298.96
298.63
298.301
297.972
297.644
297.318
296.994
296.67
296.347
296.024
295.7
295.376
295.05
294.722
294.394
294.065
293.736
293.408
293.081
292.756
292.433
292.112
291.793
291.475
291.158
290.839
290.52
290.198
289.873
289.544
289.21
318.26
317.952
317.64
317.325
317.008
316.689
316.369
316.048
315.725
315.399
315.071
314.74
314.406
314.07
313.731
313.392
313.054
312.717
312.383
312.051
311.722
311.395
311.069
310.744
310.418
310.09
309.761
309.429
309.096
308.761
308.427
308.093
307.76
307.43
307.103
306.778
306.456
306.134
305.813
305.49
305.167
304.841
304.513
304.183
303.851
303.519
303.188
302.858
302.531
302.206
301.883
301.561
301.241
300.921
300.599
300.276
299.951
299.623
299.293
298.961
298.629
298.297
297.967
297.639
297.313
296.989
296.667
296.346
296.025
295.703
295.38
295.054
294.725
294.395
294.064
293.733
293.402
293.074
292.748
292.426
292.107
291.791
291.477
291.163
290.85
290.534
290.216
289.893
289.565
289.231
318.308
317.995
317.678
317.358
317.037
316.715
316.394
316.072
315.749
315.424
315.095
314.762
314.424
314.083
313.74
313.395
313.052
312.712
312.375
312.043
311.715
311.39
311.068
310.746
310.422
310.097
309.768
309.435
309.099
308.761
308.422
308.085
307.75
307.419
307.093
306.77
306.45
306.132
305.814
305.495
305.173
304.848
304.519
304.187
303.852
303.517
303.182
302.85
302.522
302.197
301.876
301.558
301.241
300.924
300.606
300.285
299.96
299.631
299.298
298.963
298.627
298.292
297.959
297.63
297.305
296.983
296.663
296.346
296.028
295.709
295.387
295.061
294.731
294.398
294.063
293.728
293.393
293.062
292.736
292.414
292.098
291.786
291.477
291.17
290.862
290.553
290.24
289.921
289.595
289.26
318.365
318.045
317.72
317.393
317.066
316.742
316.42
316.099
315.777
315.453
315.124
314.789
314.448
314.1
313.749
313.396
313.046
312.7
312.361
312.029
311.704
311.383
311.066
310.749
310.431
310.108
309.78
309.445
309.105
308.762
308.416
308.073
307.735
307.402
307.076
306.757
306.442
306.13
305.818
305.504
305.185
304.861
304.531
304.194
303.854
303.513
303.173
302.837
302.507
302.183
301.865
301.552
301.241
300.93
300.617
300.299
299.974
299.644
299.307
298.967
298.624
298.283
297.947
297.616
297.291
296.972
296.657
296.345
296.033
295.718
295.399
295.074
294.742
294.404
294.063
293.72
293.38
293.045
292.716
292.395
292.082
291.776
291.474
291.176
290.878
290.578
290.273
289.961
289.637
289.3
318.432
318.102
317.765
317.427
317.092
316.765
316.443
316.126
315.809
315.489
315.162
314.826
314.479
314.123
313.76
313.395
313.033
312.679
312.337
312.005
311.685
311.372
311.063
310.756
310.445
310.127
309.8
309.464
309.117
308.764
308.408
308.055
307.71
307.375
307.051
306.737
306.43
306.127
305.825
305.518
305.205
304.883
304.55
304.208
303.858
303.506
303.157
302.815
302.483
302.161
301.848
301.543
301.241
300.94
300.634
300.321
299.998
299.666
299.323
298.972
298.619
298.269
297.925
297.592
297.269
296.955
296.648
296.345
296.041
295.734
295.42
295.095
294.761
294.416
294.065
293.71
293.359
293.017
292.685
292.365
292.057
291.758
291.467
291.181
290.896
290.61
290.318
290.016
289.697
289.358
318.515
318.169
317.811
317.455
317.109
316.779
316.461
316.153
315.847
315.535
315.214
314.877
314.525
314.156
313.775
313.388
313.008
312.643
312.296
311.967
311.654
311.353
311.06
310.767
310.469
310.16
309.836
309.496
309.139
308.77
308.395
308.026
307.671
307.333
307.012
306.706
306.412
306.124
305.837
305.543
305.238
304.919
304.584
304.231
303.866
303.495
303.131
302.779
302.444
302.125
301.821
301.528
301.241
300.955
300.661
300.357
300.037
299.701
299.348
298.982
298.61
298.244
297.89
297.554
297.233
296.927
296.633
296.344
296.056
295.761
295.454
295.132
294.794
294.438
294.07
293.695
293.327
292.973
292.637
292.318
292.017
291.73
291.454
291.184
290.917
290.65
290.379
290.094
289.785
289.444
318.624
318.253
317.853
317.468
317.105
316.774
316.466
316.176
315.891
315.596
315.286
314.952
314.595
314.208
313.798
313.37
312.963
312.58
312.23
311.905
311.606
311.324
311.056
310.788
310.508
310.213
309.894
309.552
309.179
308.784
308.372
307.978
307.607
307.267
306.951
306.659
306.384
306.121
305.858
305.583
305.293
304.978
304.641
304.273
303.884
303.476
303.086
302.719
302.381
302.068
301.778
301.503
301.242
300.98
300.705
300.415
300.1
299.762
299.393
299.002
298.592
298.2
297.831
297.492
297.176
296.884
296.608
296.344
296.08
295.803
295.51
295.193
294.851
294.479
294.084
293.67
293.275
292.904
292.563
292.247
291.957
291.686
291.431
291.183
290.936
290.697
290.459
290.206
289.919
289.577
318.778
318.381
317.874
317.447
317.056
316.736
316.443
316.194
315.951
315.677
315.392
315.06
314.709
314.291
313.847
313.324
312.882
312.471
312.128
311.806
311.533
311.275
311.05
310.826
310.57
310.301
309.985
309.651
309.252
308.825
308.322
307.896
307.499
307.167
306.855
306.589
306.337
306.117
305.897
305.646
305.382
305.071
304.742
304.348
303.926
303.43
303.008
302.615
302.286
301.976
301.712
301.461
301.242
301.023
300.772
300.507
300.196
299.866
299.471
299.047
298.548
298.124
297.728
297.397
297.084
296.818
296.566
296.345
296.123
295.87
295.602
295.288
294.953
294.553
294.124
293.619
293.19
292.789
292.454
292.139
291.871
291.617
291.398
291.182
290.943
290.743
290.561
290.368
290.13
289.8
319.022
318.668
317.781
317.376
316.904
316.66
316.356
316.203
316.056
315.776
315.567
315.193
314.919
314.415
314.008
313.161
312.757
312.262
311.995
311.637
311.439
311.179
311.044
310.909
310.651
310.455
310.104
309.844
309.364
308.975
308.162
307.774
307.297
307.038
306.691
306.499
306.245
306.113
305.981
305.728
305.537
305.192
304.935
304.462
304.078
303.275
302.891
302.419
302.162
301.818
301.627
301.374
301.243
301.111
300.858
300.667
300.321
300.063
299.588
299.202
298.395
298.008
297.532
297.274
296.926
296.733
296.478
296.345
296.212
295.956
295.762
295.411
295.15
294.668
294.276
293.456
293.064
292.579
292.317
291.961
291.764
291.499
291.36
291.212
290.895
290.762
290.679
290.596
290.474
290.225
288.801
288.4
287.998
287.596
287.193
286.79
286.387
285.985
285.584
285.184
284.785
284.387
283.99
283.594
283.198
288.802
288.401
287.999
287.596
287.193
286.789
286.386
285.984
285.583
285.183
284.784
284.387
283.99
283.594
283.198
288.805
288.404
288.001
287.597
287.193
286.788
286.385
285.982
285.581
285.181
284.782
284.385
283.988
283.593
283.198
288.81
288.407
288.003
287.598
287.192
286.787
286.383
285.979
285.578
285.178
284.779
284.382
283.986
283.591
283.197
288.817
288.413
288.007
287.599
287.192
286.785
286.379
285.975
285.573
285.172
284.774
284.378
283.983
283.589
283.196
288.826
288.42
288.011
287.601
287.191
286.781
286.374
285.968
285.565
285.165
284.768
284.372
283.979
283.587
283.196
288.839
288.43
288.017
287.603
287.189
286.776
286.366
285.959
285.556
285.156
284.759
284.365
283.973
283.583
283.194
288.857
288.443
288.025
287.604
287.185
286.768
286.355
285.946
285.542
285.143
284.748
284.355
283.966
283.579
283.193
288.882
288.461
288.034
287.605
287.179
286.756
286.34
285.929
285.525
285.126
284.733
284.343
283.957
283.573
283.191
288.916
288.484
288.045
287.604
287.168
286.739
286.318
285.906
285.501
285.104
284.713
284.327
283.945
283.566
283.189
288.965
288.515
288.056
287.599
287.15
286.713
286.288
285.874
285.471
285.076
284.689
284.308
283.931
283.557
283.186
289.033
288.554
288.066
287.586
287.121
286.675
286.246
285.832
285.431
285.041
284.659
284.284
283.914
283.547
283.182
289.133
288.601
288.068
287.556
287.074
286.62
286.189
285.777
285.381
284.997
284.622
284.255
283.893
283.534
283.178
289.281
288.649
288.047
287.498
287
286.541
286.112
285.707
285.319
284.944
284.578
284.221
283.868
283.52
283.173
289.495
288.668
287.973
287.39
286.885
286.432
286.013
285.619
285.243
284.88
284.527
284.181
283.84
283.503
283.167
322.896
322.687
322.477
322.267
322.056
321.843
321.628
321.41
321.188
320.961
320.725
320.477
320.206
319.89
319.479
322.9
322.7
322.5
322.3
322.099
321.897
321.693
321.489
321.282
321.073
320.859
320.639
320.405
320.133
319.724
322.905
322.714
322.524
322.333
322.142
321.951
321.76
321.569
321.378
321.187
320.998
320.811
320.63
320.472
320.418
322.909
322.728
322.547
322.366
322.185
322.005
321.826
321.648
321.473
321.301
321.134
320.978
320.84
320.739
320.702
322.914
322.742
322.57
322.399
322.228
322.059
321.892
321.727
321.566
321.41
321.264
321.132
321.025
320.962
320.984
322.918
322.755
322.593
322.431
322.271
322.112
321.956
321.803
321.655
321.514
321.383
321.269
321.179
321.125
321.115
322.923
322.769
322.615
322.463
322.312
322.163
322.017
321.875
321.739
321.61
321.492
321.389
321.308
321.257
321.255
322.927
322.782
322.637
322.493
322.351
322.212
322.076
321.944
321.817
321.699
321.59
321.494
321.415
321.356
321.318
322.931
322.794
322.658
322.522
322.389
322.258
322.131
322.008
321.891
321.781
321.679
321.588
321.508
321.439
321.37
322.935
322.806
322.677
322.55
322.425
322.303
322.184
322.069
321.96
321.857
321.761
321.674
321.594
321.523
321.459
322.939
322.817
322.696
322.577
322.459
322.345
322.233
322.126
322.024
321.927
321.837
321.754
321.675
321.6
321.518
322.943
322.828
322.714
322.602
322.492
322.384
322.28
322.18
322.084
321.994
321.909
321.83
321.754
321.682
321.615
322.946
322.838
322.731
322.626
322.522
322.421
322.324
322.23
322.141
322.057
321.977
321.903
321.832
321.76
321.678
322.949
322.848
322.747
322.648
322.551
322.456
322.365
322.277
322.194
322.116
322.042
321.974
321.909
321.846
321.785
322.952
322.857
322.762
322.669
322.578
322.489
322.403
322.322
322.244
322.171
322.104
322.042
321.985
321.931
321.863
322.955
322.865
322.776
322.688
322.603
322.519
322.439
322.363
322.291
322.223
322.162
322.107
322.06
322.024
322.016
322.958
322.873
322.789
322.707
322.626
322.548
322.473
322.401
322.334
322.272
322.215
322.166
322.126
322.098
322.085
322.96
322.88
322.801
322.723
322.647
322.574
322.503
322.436
322.373
322.316
322.264
322.219
322.184
322.162
322.162
322.962
322.887
322.812
322.739
322.667
322.598
322.532
322.469
322.41
322.356
322.307
322.266
322.234
322.212
322.2
322.964
322.893
322.823
322.753
322.686
322.62
322.558
322.498
322.442
322.391
322.346
322.307
322.275
322.254
322.246
322.966
322.899
322.832
322.767
322.703
322.641
322.581
322.525
322.472
322.424
322.38
322.342
322.31
322.287
322.27
322.968
322.904
322.841
322.779
322.718
322.659
322.603
322.549
322.499
322.452
322.41
322.372
322.34
322.314
322.298
322.97
322.909
322.849
322.79
322.732
322.676
322.623
322.571
322.523
322.478
322.437
322.399
322.366
322.336
322.311
322.971
322.914
322.856
322.8
322.745
322.692
322.641
322.592
322.545
322.501
322.461
322.423
322.388
322.356
322.322
322.972
322.918
322.863
322.81
322.757
322.706
322.657
322.61
322.565
322.522
322.482
322.445
322.409
322.375
322.343
322.974
322.921
322.869
322.818
322.768
322.719
322.672
322.627
322.583
322.542
322.503
322.465
322.429
322.394
322.357
322.975
322.925
322.875
322.826
322.778
322.731
322.686
322.642
322.6
322.56
322.522
322.485
322.449
322.414
322.38
322.976
322.928
322.88
322.833
322.787
322.742
322.699
322.656
322.616
322.577
322.539
322.504
322.468
322.433
322.395
322.977
322.931
322.885
322.84
322.796
322.752
322.71
322.67
322.63
322.593
322.556
322.522
322.488
322.455
322.422
322.978
322.933
322.889
322.846
322.803
322.762
322.721
322.682
322.644
322.607
322.572
322.539
322.507
322.476
322.441
322.979
322.936
322.893
322.852
322.81
322.77
322.731
322.693
322.656
322.621
322.587
322.556
322.526
322.499
322.479
322.979
322.938
322.897
322.857
322.817
322.778
322.74
322.703
322.667
322.633
322.601
322.571
322.543
322.518
322.496
322.98
322.94
322.9
322.861
322.823
322.785
322.748
322.712
322.678
322.645
322.613
322.584
322.557
322.534
322.515
322.981
322.942
322.904
322.865
322.828
322.791
322.756
322.721
322.687
322.655
322.624
322.596
322.57
322.546
322.525
322.981
322.944
322.906
322.869
322.833
322.797
322.762
322.728
322.696
322.664
322.634
322.606
322.58
322.556
322.536
322.982
322.945
322.909
322.873
322.837
322.802
322.768
322.735
322.703
322.672
322.643
322.615
322.589
322.565
322.542
322.982
322.946
322.911
322.876
322.841
322.807
322.774
322.741
322.71
322.679
322.65
322.622
322.596
322.572
322.549
322.983
322.948
322.913
322.879
322.845
322.811
322.779
322.747
322.716
322.686
322.657
322.629
322.602
322.577
322.553
322.983
322.949
322.915
322.881
322.848
322.815
322.783
322.752
322.721
322.691
322.662
322.635
322.608
322.581
322.555
322.983
322.95
322.916
322.883
322.851
322.818
322.787
322.756
322.726
322.696
322.668
322.64
322.613
322.586
322.56
322.984
322.951
322.918
322.885
322.853
322.821
322.79
322.76
322.73
322.701
322.672
322.644
322.617
322.59
322.563
322.984
322.951
322.919
322.887
322.855
322.824
322.793
322.763
322.733
322.704
322.676
322.648
322.621
322.595
322.568
322.984
322.952
322.92
322.889
322.857
322.826
322.796
322.766
322.737
322.708
322.68
322.652
322.625
322.599
322.572
322.984
322.953
322.921
322.89
322.859
322.828
322.798
322.769
322.739
322.711
322.683
322.656
322.629
322.603
322.577
322.984
322.953
322.922
322.891
322.86
322.83
322.8
322.771
322.742
322.714
322.686
322.659
322.633
322.607
322.58
322.984
322.953
322.923
322.892
322.861
322.831
322.802
322.773
322.744
322.716
322.689
322.662
322.636
322.611
322.587
322.985
322.954
322.923
322.893
322.862
322.832
322.803
322.774
322.746
322.718
322.691
322.664
322.638
322.614
322.59
322.985
322.954
322.923
322.893
322.863
322.833
322.804
322.775
322.747
322.719
322.692
322.666
322.64
322.616
322.592
322.985
322.954
322.924
322.893
322.863
322.834
322.805
322.776
322.748
322.72
322.693
322.667
322.642
322.617
322.594
322.985
322.954
322.924
322.894
322.864
322.834
322.805
322.776
322.748
322.721
322.694
322.668
322.643
322.618
322.594
322.985
322.954
322.924
322.894
322.864
322.834
322.805
322.776
322.748
322.721
322.694
322.668
322.643
322.618
322.595
322.985
322.954
322.924
322.893
322.863
322.834
322.805
322.776
322.748
322.721
322.694
322.668
322.643
322.618
322.594
322.985
322.954
322.923
322.893
322.863
322.833
322.804
322.775
322.747
322.72
322.693
322.667
322.642
322.618
322.594
322.985
322.954
322.923
322.892
322.862
322.832
322.803
322.774
322.746
322.718
322.692
322.666
322.641
322.617
322.594
322.984
322.953
322.922
322.891
322.861
322.831
322.801
322.772
322.744
322.717
322.69
322.664
322.639
322.615
322.592
322.984
322.953
322.921
322.89
322.86
322.829
322.8
322.77
322.742
322.714
322.687
322.661
322.636
322.613
322.59
322.984
322.952
322.921
322.889
322.858
322.827
322.797
322.768
322.739
322.711
322.684
322.658
322.633
322.61
322.587
322.984
322.952
322.919
322.888
322.856
322.825
322.795
322.765
322.736
322.708
322.68
322.654
322.629
322.605
322.584
322.984
322.951
322.918
322.886
322.854
322.822
322.792
322.761
322.732
322.703
322.676
322.649
322.624
322.6
322.578
322.983
322.95
322.917
322.884
322.851
322.819
322.788
322.757
322.728
322.699
322.671
322.644
322.618
322.593
322.571
322.983
322.949
322.915
322.882
322.848
322.816
322.784
322.753
322.723
322.693
322.665
322.637
322.61
322.584
322.557
322.983
322.948
322.913
322.879
322.845
322.812
322.78
322.748
322.717
322.687
322.658
322.63
322.603
322.576
322.55
322.982
322.947
322.911
322.876
322.841
322.808
322.774
322.742
322.711
322.681
322.651
322.623
322.595
322.568
322.54
322.982
322.945
322.909
322.873
322.837
322.803
322.769
322.736
322.704
322.673
322.644
322.615
322.587
322.56
322.533
322.981
322.943
322.906
322.869
322.833
322.797
322.763
322.729
322.696
322.665
322.635
322.606
322.578
322.551
322.524
322.981
322.942
322.903
322.865
322.828
322.791
322.755
322.721
322.688
322.656
322.626
322.597
322.57
322.543
322.518
322.98
322.94
322.9
322.861
322.822
322.784
322.748
322.712
322.679
322.646
322.616
322.587
322.56
322.534
322.509
322.979
322.938
322.896
322.856
322.816
322.777
322.739
322.703
322.668
322.635
322.604
322.576
322.549
322.525
322.503
322.978
322.935
322.892
322.85
322.809
322.768
322.729
322.692
322.656
322.623
322.592
322.563
322.537
322.515
322.497
322.977
322.932
322.888
322.844
322.801
322.759
322.719
322.68
322.643
322.609
322.577
322.548
322.523
322.502
322.484
322.976
322.93
322.883
322.837
322.792
322.749
322.707
322.666
322.628
322.593
322.56
322.531
322.506
322.486
322.473
322.975
322.926
322.878
322.83
322.783
322.737
322.693
322.651
322.612
322.575
322.541
322.511
322.485
322.465
322.451
322.974
322.923
322.872
322.822
322.773
322.725
322.679
322.635
322.593
322.555
322.519
322.488
322.461
322.441
322.432
322.973
322.919
322.865
322.813
322.761
322.711
322.663
322.617
322.573
322.532
322.495
322.461
322.432
322.409
322.394
322.972
322.915
322.858
322.803
322.749
322.696
322.646
322.597
322.551
322.508
322.468
322.431
322.398
322.372
322.36
322.97
322.91
322.851
322.793
322.736
322.68
322.627
322.575
322.527
322.481
322.438
322.398
322.361
322.325
322.283
322.968
322.905
322.843
322.781
322.721
322.663
322.606
322.552
322.501
322.452
322.406
322.363
322.322
322.282
322.243
322.967
322.9
322.834
322.769
322.705
322.644
322.584
322.527
322.473
322.422
322.373
322.327
322.283
322.238
322.189
322.965
322.894
322.824
322.755
322.688
322.623
322.56
322.5
322.443
322.389
322.338
322.29
322.244
322.199
322.156
322.963
322.888
322.814
322.741
322.67
322.601
322.534
322.471
322.411
322.354
322.301
322.251
322.203
322.157
322.106
322.96
322.881
322.803
322.725
322.65
322.577
322.507
322.44
322.376
322.317
322.262
322.211
322.163
322.118
322.076
322.958
322.874
322.791
322.709
322.629
322.551
322.477
322.406
322.339
322.277
322.22
322.168
322.12
322.076
322.029
322.955
322.866
322.778
322.69
322.605
322.523
322.444
322.369
322.299
322.234
322.175
322.122
322.076
322.036
322.003
322.952
322.858
322.764
322.671
322.58
322.493
322.409
322.329
322.254
322.186
322.125
322.072
322.027
321.99
321.969
322.949
322.849
322.749
322.65
322.554
322.46
322.37
322.285
322.206
322.134
322.07
322.016
321.971
321.934
321.891
322.946
322.839
322.733
322.628
322.525
322.425
322.328
322.237
322.152
322.075
322.008
321.953
321.911
321.882
321.856
322.943
322.829
322.716
322.604
322.494
322.387
322.283
322.185
322.093
322.01
321.938
321.881
321.843
321.826
321.83
322.939
322.818
322.698
322.578
322.461
322.346
322.235
322.128
322.028
321.937
321.858
321.797
321.76
321.757
321.798
322.936
322.807
322.679
322.552
322.426
322.303
322.183
322.067
321.957
321.855
321.766
321.695
321.652
321.657
321.741
322.932
322.795
322.659
322.524
322.39
322.258
322.128
322.002
321.88
321.765
321.661
321.573
321.512
321.503
321.61
289.72
288.564
287.802
287.221
286.733
286.299
285.899
285.523
285.162
284.813
284.473
284.14
283.811
283.486
283.162
289.315
288.196
287.52
287.002
286.557
286.155
285.78
285.423
285.08
284.746
284.42
284.1
283.783
283.469
283.156
287.713
287.519
287.129
286.731
286.352
285.993
285.648
285.315
284.991
284.674
284.363
284.056
283.752
283.451
283.15
287.084
286.98
286.742
286.447
286.134
285.819
285.507
285.2
284.897
284.599
284.303
284.011
283.721
283.432
283.144
286.492
286.533
286.395
286.175
285.918
285.644
285.364
285.082
284.801
284.52
284.241
283.964
283.688
283.412
283.137
286.224
286.211
286.105
285.93
285.713
285.473
285.222
284.964
284.703
284.441
284.179
283.916
283.654
283.392
283.131
285.947
285.954
285.863
285.712
285.523
285.311
285.084
284.847
284.606
284.362
284.116
283.868
283.621
283.372
283.124
285.823
285.765
285.663
285.522
285.351
285.158
284.952
284.735
284.512
284.284
284.053
283.821
283.587
283.353
283.118
285.724
285.608
285.49
285.352
285.192
285.016
284.826
284.627
284.42
284.208
283.993
283.774
283.554
283.333
283.111
285.555
285.451
285.331
285.196
285.046
284.883
284.708
284.524
284.332
284.135
283.933
283.729
283.522
283.314
283.105
285.444
285.307
285.182
285.051
284.91
284.758
284.596
284.426
284.248
284.065
283.877
283.685
283.491
283.295
283.099
285.264
285.155
285.036
284.912
284.78
284.64
284.491
284.333
284.168
283.997
283.822
283.643
283.461
283.277
283.093
285.146
285.01
284.894
284.779
284.657
284.528
284.39
284.245
284.092
283.934
283.77
283.603
283.433
283.26
283.087
284.946
284.851
284.752
284.649
284.54
284.422
284.296
284.162
284.02
283.873
283.721
283.565
283.405
283.244
283.081
284.801
284.695
284.612
284.525
284.428
284.322
284.207
284.083
283.953
283.816
283.674
283.528
283.38
283.229
283.076
284.518
284.522
284.475
284.406
284.323
284.228
284.123
284.01
283.889
283.762
283.631
283.494
283.355
283.214
283.072
284.391
284.386
284.353
284.298
284.226
284.141
284.046
283.942
283.83
283.712
283.59
283.463
283.333
283.2
283.067
284.251
284.268
284.246
284.201
284.138
284.062
283.975
283.879
283.775
283.666
283.551
283.433
283.311
283.188
283.063
284.18
284.178
284.157
284.116
284.059
283.99
283.91
283.821
283.725
283.623
283.516
283.405
283.292
283.176
283.059
284.096
284.101
284.08
284.042
283.989
283.925
283.851
283.768
283.679
283.583
283.483
283.38
283.273
283.165
283.055
284.052
284.041
284.016
283.978
283.928
283.867
283.797
283.72
283.636
283.547
283.453
283.356
283.256
283.155
283.052
284.001
283.99
283.962
283.923
283.873
283.815
283.749
283.676
283.597
283.514
283.426
283.335
283.241
283.145
283.049
283.977
283.95
283.916
283.874
283.825
283.769
283.706
283.636
283.562
283.483
283.401
283.315
283.227
283.137
283.046
283.956
283.915
283.875
283.831
283.782
283.727
283.666
283.6
283.53
283.455
283.377
283.296
283.213
283.129
283.043
283.919
283.88
283.837
283.792
283.743
283.689
283.63
283.568
283.501
283.43
283.356
283.28
283.201
283.121
283.041
283.894
283.846
283.801
283.755
283.706
283.654
283.598
283.538
283.474
283.407
283.337
283.265
283.19
283.115
283.038
283.852
283.81
283.766
283.72
283.673
283.622
283.568
283.51
283.449
283.386
283.319
283.251
283.18
283.109
283.036
283.825
283.776
283.732
283.687
283.641
283.592
283.54
283.485
283.427
283.366
283.303
283.238
283.171
283.103
283.034
283.778
283.738
283.697
283.655
283.611
283.564
283.514
283.462
283.406
283.348
283.288
283.226
283.163
283.098
283.033
283.744
283.701
283.664
283.625
283.583
283.538
283.491
283.441
283.388
283.332
283.275
283.216
283.155
283.093
283.031
283.678
283.66
283.631
283.596
283.557
283.515
283.469
283.421
283.371
283.318
283.263
283.206
283.148
283.089
283.03
283.648
283.628
283.602
283.57
283.533
283.493
283.45
283.404
283.355
283.304
283.252
283.197
283.142
283.085
283.029
283.615
283.601
283.577
283.547
283.512
283.473
283.432
283.388
283.341
283.292
283.241
283.189
283.136
283.082
283.027
283.599
283.58
283.556
283.527
283.493
283.456
283.416
283.373
283.328
283.281
283.232
283.182
283.131
283.079
283.026
283.58
283.562
283.538
283.509
283.477
283.441
283.402
283.361
283.317
283.272
283.224
283.176
283.126
283.076
283.025
283.57
283.549
283.524
283.495
283.463
283.428
283.39
283.35
283.307
283.263
283.217
283.17
283.122
283.074
283.025
283.56
283.538
283.512