/*--------------------------------*- C++ -*----------------------------------*\
| =========                 |                                                 |
| \\      /  F ield         | OpenFOAM: The Open Source CFD Toolbox           |
|  \\    /   O peration     | Version:  5.x                                   |
|   \\  /    A nd           | Web:      www.OpenFOAM.org                      |
|    \\/     M anipulation  |                                                 |
\*---------------------------------------------------------------------------*/
FoamFile
{
    version     2.0;
    format      ascii;
    class       volScalarField;
    location    "2.4";
    object      gradTx;
}
// * * * * * * * * * * * * * * * * * * * * * * * * * * * * * * * * * * * * * //

dimensions      [0 -1 0 1 0 0 0];

internalField   nonuniform List<scalar> 
3200
(
45.4533
3.67494
1.62761
1.51989
0.800551
0.757347
0.455915
0.436703
0.285826
0.274945
0.165921
0.161885
0.175575
0.175733
0.168511
0.167713
0.155527
0.154456
0.140845
0.139699
0.125787
0.124643
0.111088
0.11001
0.097625
0.0967467
0.0876365
0.0876165
0.0922695
0.159902
0.0800893
0.0538059
0.0520457
0.0408292
0.0400412
0.0328371
0.0323063
0.0268664
0.0264547
0.0220468
0.0217076
0.0179944
0.0177048
0.014484
0.0142285
0.0113309
0.0110929
0.00829544
0.00804888
0.00487678
0.00473414
0.00449916
0.00443492
0.00320048
0.00307585
0.00131714
0.00114507
-0.00121205
-0.00145166
-0.00481139
-0.0051723
-0.0104017
-0.0110021
-0.0200003
-0.0211395
-0.0388651
-0.0415207
-0.0844494
-0.0933319
-0.23852
-0.616123
-0.435152
-0.679765
-0.711082
-1.26595
-1.2404
-0.0556965
-0.00751597
-0.00152267
-52.9606
48.1115
3.07402
1.55764
1.33656
0.760819
0.668582
0.426461
0.385379
0.264494
0.241376
0.155747
0.147129
0.156421
0.156651
0.151039
0.149358
0.139744
0.137477
0.126705
0.124277
0.11326
0.110836
0.100104
0.0978211
0.088039
0.0861937
0.0791683
0.0792851
0.085767
0.133325
0.0743696
0.0502462
0.046325
0.0372203
0.03553
0.0297857
0.0286565
0.0243355
0.0234612
0.0199636
0.0192438
0.0162983
0.015684
0.0131293
0.012587
0.0102878
0.0097826
0.00756171
0.0070411
0.00456203
0.004259
0.00403066
0.00389157
0.00291668
0.00265254
0.0012579
0.000892552
-0.000980412
-0.00148973
-0.00416319
-0.00493121
-0.00910003
-0.0103803
-0.0175787
-0.0200186
-0.0343136
-0.0400666
-0.0754357
-0.0952692
-0.22687
-0.516734
-0.413848
-0.60044
-0.664918
-1.08306
-1.02956
-0.121628
-0.0208604
-0.00437844
-54.7552
50.7532
2.55032
1.43587
1.16741
0.701749
0.585814
0.388967
0.337249
0.239252
0.210308
0.142493
0.131657
0.137631
0.137804
0.13341
0.13132
0.123668
0.120839
0.112232
0.109199
0.10039
0.0973616
0.0887834
0.085933
0.0781361
0.0758485
0.0704149
0.0706997
0.0776219
0.111009
0.067257
0.0458787
0.0408116
0.0333149
0.031181
0.0265495
0.0251344
0.0216667
0.0205726
0.0177693
0.0168689
0.0145092
0.0137408
0.0116941
0.0110158
0.00917311
0.00854111
0.00676018
0.00611185
0.00416041
0.00378105
0.00355881
0.00338188
0.00260468
0.00227467
0.00115768
0.000700537
-0.000803145
-0.00144107
-0.00359106
-0.00455396
-0.0079138
-0.00952172
-0.0153475
-0.0184234
-0.0301036
-0.0374278
-0.0670434
-0.0927357
-0.208888
-0.433055
-0.380965
-0.526001
-0.604608
-0.919031
-0.852897
-0.155274
-0.0308335
-0.00671897
-56.5496
53.3745
2.09162
1.28027
1.00615
0.628692
0.506285
0.345668
0.290971
0.211249
0.180796
0.12696
0.115512
0.119073
0.119139
0.11569
0.113505
0.1074
0.104433
0.0975372
0.0943525
0.0872897
0.0841097
0.0772339
0.0742433
0.0680134
0.0656296
0.0614334
0.0618492
0.0684187
0.0917792
0.0592497
0.0408588
0.0353956
0.029195
0.026932
0.0231847
0.0216943
0.0189029
0.0177524
0.0154989
0.0145525
0.0126564
0.0118488
0.0102043
0.00949141
0.00801016
0.00734576
0.00591351
0.0052349
0.00369605
0.00329696
0.00308533
0.00289639
0.00227497
0.00192847
0.00103125
0.00055056
-0.000660352
-0.00133177
-0.00306628
-0.00408071
-0.00679755
-0.00849428
-0.0132261
-0.016484
-0.0260678
-0.0338972
-0.0588079
-0.0865838
-0.186586
-0.360426
-0.340197
-0.454218
-0.534865
-0.770226
-0.701492
-0.165991
-0.0367935
-0.00831553
-58.3438
55.9745
1.68659
1.10317
0.849026
0.545435
0.428286
0.298135
0.245695
0.181277
0.15222
0.109731
0.0987684
0.100655
0.100616
0.0979189
0.095847
0.0910064
0.088184
0.082694
0.0796617
0.0740342
0.0710061
0.0655294
0.0626837
0.0577374
0.0554837
0.0522678
0.0527531
0.0585443
0.0747855
0.0506773
0.0353219
0.0300092
0.0249176
0.0227423
0.0197296
0.0183062
0.0160734
0.0149763
0.0131762
0.012274
0.0107601
0.00999037
0.0086774
0.00799784
0.00681469
0.00618126
0.00503686
0.00439252
0.00318625
0.00280551
0.00261111
0.00242836
0.00193445
0.00160447
0.000888326
0.000429947
-0.000539001
-0.00117982
-0.0025702
-0.00353925
-0.00572201
-0.00734534
-0.0111636
-0.0142914
-0.0221022
-0.0296833
-0.0504578
-0.0775427
-0.161331
-0.29556
-0.294059
-0.38377
-0.458934
-0.633584
-0.568757
-0.160457
-0.0387247
-0.00904536
-60.1378
58.5545
1.32484
0.912909
0.693885
0.454723
0.350808
0.247494
0.200899
0.14989
0.124182
0.0912428
0.0815107
0.0823152
0.0821987
0.0801236
0.0783003
0.0745325
0.0720423
0.0677529
0.0650752
0.0606752
0.0580009
0.0537202
0.0512086
0.047354
0.0453767
0.0429545
0.043445
0.0482523
0.0594064
0.0417549
0.0293835
0.024614
0.0205236
0.0185861
0.0162109
0.0149505
0.0131984
0.0122283
0.0108175
0.01002
0.00883407
0.00815371
0.00712522
0.0065245
0.00559734
0.00503733
0.00414034
0.00357275
0.00264355
0.00230673
0.00213656
0.00197292
0.00158751
0.00129606
0.000735225
0.00032989
-0.000430657
-0.000997767
-0.00209087
-0.00294915
-0.00466877
-0.00610854
-0.00912862
-0.0119115
-0.0181456
-0.0249416
-0.0418552
-0.0662334
-0.134058
-0.236123
-0.244273
-0.313905
-0.379023
-0.506521
-0.449762
-0.14346
-0.0369738
-0.00888362
-61.9314
61.1171
0.997019
0.714932
0.539551
0.358601
0.273308
0.194585
0.156281
0.117492
0.0964333
0.0718263
0.0638319
0.0640122
0.0638605
0.0623185
0.0608317
0.0580078
0.0559728
0.0527477
0.0505578
0.0472475
0.0450602
0.0418405
0.0397875
0.0368959
0.0352879
0.0335251
0.0339647
0.0377068
0.0451798
0.0326217
0.0231411
0.0191917
0.0160434
0.0144474
0.0126476
0.0116144
0.0102922
0.00949784
0.00843435
0.00778156
0.00688787
0.00633102
0.005556
0.0050643
0.00436541
0.00390698
0.00323075
0.00276755
0.00207725
0.00180139
0.00166186
0.00152648
0.00123694
0.00099855
0.000576018
0.00024415
-0.00032995
-0.000794584
-0.00162085
-0.00232452
-0.00362665
-0.00480846
-0.0071031
-0.00939351
-0.0141666
-0.0197952
-0.032954
-0.0531863
-0.105415
-0.180443
-0.192027
-0.244219
-0.296616
-0.386828
-0.340748
-0.118471
-0.032087
-0.00788794
-63.7248
63.6655
0.694621
0.512689
0.385441
0.258655
0.195546
0.14006
0.111682
0.0843853
0.0688272
0.0517455
0.0458264
0.0457227
0.0455781
0.0445114
0.0434168
0.0414518
0.0399512
0.0377013
0.0360855
0.0337751
0.0321611
0.0299144
0.0284002
0.0263867
0.0252055
0.0240078
0.0243525
0.0270122
0.0317547
0.0233654
0.0166776
0.0137375
0.0115013
0.0103169
0.00905366
0.00828993
0.00736483
0.00677817
0.00603476
0.00555277
0.00492823
0.0045171
0.0039755
0.00361246
0.00312393
0.00278543
0.00231272
0.00197152
0.00149445
0.00129068
0.00118709
0.0010863
0.000884422
0.0007085
0.000413274
0.000168187
-0.000233545
-0.000576864
-0.00115567
-0.00167589
-0.0025893
-0.00346382
-0.00507771
-0.00677614
-0.0101532
-0.0143475
-0.0237698
-0.0388593
-0.0758605
-0.1273
-0.138157
-0.174526
-0.212698
-0.272586
-0.238782
-0.0880451
-0.0247129
-0.00618098
-65.5179
66.2035
0.409864
0.30826
0.231314
0.156163
0.117479
0.0844515
0.0670414
0.0508094
0.0412824
0.0312185
0.0275885
0.027435
0.0273328
0.0267056
0.026037
0.0248774
0.0239597
0.0226298
0.0216412
0.020275
0.0192876
0.0179593
0.0170331
0.0158444
0.0151239
0.0144289
0.0146479
0.0162346
0.0188551
0.0140413
0.0100642
0.00825509
0.00691701
0.0061896
0.0054397
0.00497185
0.00442392
0.00406476
0.00362471
0.00332968
0.00296006
0.00270843
0.00238789
0.00216568
0.00187651
0.00166931
0.0013895
0.00118099
0.000900783
0.00077601
0.000712273
0.000650231
0.000530931
0.00042329
0.000248589
9.855e-05
-0.00013942
-0.000349672
-0.000692781
-0.00101149
-0.00155346
-0.00208957
-0.0030489
-0.0040916
-0.0061072
-0.00869073
-0.014359
-0.0236558
-0.0457282
-0.0757804
-0.0832659
-0.10476
-0.12791
-0.162093
-0.141493
-0.0541235
-0.0155468
-0.00393357
-67.3108
68.7352
0.13548
0.102845
0.0771155
0.0522127
0.0391872
0.0282185
0.0223535
0.0169655
0.0137592
0.0104342
0.00921156
0.00914538
0.00910866
0.00890163
0.00867687
0.00829346
0.00798479
0.00754468
0.00721213
0.00675993
0.00642774
0.00598811
0.00567659
0.00528346
0.00504149
0.00481367
0.00488863
0.00541565
0.00625292
0.00468375
0.0033642
0.00275389
0.00230834
0.00206315
0.00181445
0.00165696
0.00147545
0.00135459
0.00120886
0.00110959
0.000987189
0.00090252
0.00079638
0.000721611
0.000625848
0.000556127
0.000463464
0.000393361
0.000300929
0.000258939
0.000237428
0.000216492
0.000177016
0.000140804
8.29568e-05
3.24678e-05
-4.63694e-05
-0.000117133
-0.000230845
-0.000338131
-0.000517834
-0.000698362
-0.00101674
-0.00136812
-0.00203842
-0.00291051
-0.00480294
-0.00794122
-0.0152768
-0.0251637
-0.0278148
-0.0349287
-0.0426815
-0.0537906
-0.0468749
-0.0182502
-0.00530221
-0.0013493
-69.1036
68.7546
0.14937
0.127233
0.106516
0.0844662
0.0720442
0.0601412
0.0527665
0.0443371
0.0382471
0.0305385
0.0277228
0.0277755
0.0276323
0.0267542
0.0258299
0.0242868
0.0230839
0.021423
0.0202197
0.0186534
0.0175521
0.0161591
0.0152083
0.0140544
0.0133621
0.0127315
0.0129419
0.014401
0.0167115
0.0126042
0.00916798
0.00758416
0.00643253
0.00579694
0.00514805
0.00473441
0.00425392
0.00393278
0.00354422
0.00327986
0.00295458
0.00273047
0.00245072
0.00225386
0.00200148
0.00181522
0.00156316
0.00136532
0.00109894
0.00100075
0.00100159
0.000993732
0.000956343
0.000918175
0.000855427
0.000806611
0.000739167
0.000689602
0.000623704
0.000574225
0.000505704
0.000446556
0.000350639
0.000239493
1.31559e-05
-0.000339165
-0.00118518
-0.00278631
-0.00672918
-0.0125052
-0.0157483
-0.0227586
-0.0302464
-0.0412681
-0.0367451
-0.0143575
-0.00417577
-0.00106303
-69.8022
66.2612
0.451443
0.381643
0.319603
0.253014
0.216112
0.180243
0.158342
0.132918
0.114806
0.09142
0.0830538
0.0833344
0.0829265
0.0802647
0.0775145
0.0728469
0.0692701
0.064251
0.0606738
0.0559419
0.0526681
0.0484599
0.0456332
0.0421448
0.0400839
0.038161
0.038776
0.043169
0.0503915
0.037786
0.02743
0.0227353
0.0192771
0.0173915
0.0154348
0.014206
0.0127555
0.0118011
0.0106278
0.0098421
0.00885979
0.00819372
0.00734892
0.00676386
0.00600187
0.00544834
0.00468735
0.00409877
0.00329014
0.00299834
0.00300517
0.00298242
0.0028691
0.00275555
0.00256576
0.00242062
0.00221683
0.0020695
0.00187049
0.00172347
0.00151677
0.00134117
0.00105256
0.00072312
4.45393e-05
-0.000997713
-0.00352529
-0.00826521
-0.0201141
-0.0376169
-0.0470942
-0.0682565
-0.0905977
-0.124426
-0.11095
-0.0425841
-0.0122446
-0.00309907
-69.4067
63.7606
0.763599
0.635743
0.532872
0.420374
0.360139
0.299786
0.264058
0.221206
0.191577
0.151701
0.138039
0.138921
0.138311
0.133779
0.129276
0.121364
0.115514
0.107022
0.101174
0.0931724
0.0878219
0.0807058
0.076085
0.0701786
0.0668006
0.0634895
0.0644595
0.0718245
0.0848653
0.0628784
0.0454661
0.0378375
0.0320591
0.0289892
0.0256929
0.0236868
0.0212375
0.0196785
0.0176961
0.0164125
0.0147526
0.0136644
0.012237
0.0112812
0.00999412
0.00908996
0.00780482
0.00684117
0.0054608
0.0049841
0.00501006
0.00497486
0.00478201
0.00459611
0.00427444
0.0040371
0.00369235
0.00345158
0.00311532
0.00287522
0.0025267
0.00224041
0.00175621
0.00122081
9.05668e-05
-0.00159675
-0.0057768
-0.0134596
-0.0332728
-0.0630494
-0.0779723
-0.113707
-0.150489
-0.209476
-0.18735
-0.0692896
-0.0194655
-0.00486986
-69.0111
61.2479
1.09284
0.888844
0.746528
0.585645
0.504172
0.418345
0.370061
0.308967
0.268758
0.210934
0.192444
0.194568
0.193853
0.187293
0.181175
0.169799
0.161865
0.149687
0.141762
0.130298
0.123047
0.112853
0.106589
0.0981119
0.0935154
0.0886475
0.089888
0.100254
0.120742
0.0877887
0.0631116
0.0528664
0.0447334
0.0405966
0.0358999
0.0331859
0.0296844
0.0275734
0.024737
0.0229984
0.020623
0.019149
0.0171065
0.0158121
0.0139714
0.0127471
0.0109097
0.00960049
0.00759552
0.00694996
0.00701761
0.00697383
0.00669485
0.00644231
0.00597996
0.00565809
0.00516391
0.00483768
0.00435648
0.00403148
0.00353432
0.00314774
0.00246207
0.00174246
0.00015904
-0.00209591
-0.00788801
-0.0181686
-0.0460325
-0.0890755
-0.108018
-0.159115
-0.209492
-0.297769
-0.267587
-0.0932655
-0.0252774
-0.00621506
-68.6153
58.7189
1.44655
1.13948
0.960929
0.747741
0.64838
0.535403
0.476577
0.395893
0.346644
0.268594
0.246024
0.25033
0.24963
0.24079
0.233285
0.218098
0.208387
0.192184
0.182492
0.167255
0.158391
0.144843
0.137183
0.125891
0.120242
0.113562
0.114953
0.12828
0.158757
0.112369
0.080181
0.0678117
0.0572488
0.0522272
0.0460283
0.0427172
0.0380765
0.0354979
0.0317346
0.0296103
0.0264579
0.0246569
0.0219467
0.0203654
0.0179245
0.0164293
0.0139939
0.012388
0.00967617
0.00888757
0.00902992
0.0089825
0.00860694
0.00829721
0.00768016
0.00728626
0.00662903
0.00623025
0.00559166
0.00519489
0.00453776
0.00406728
0.00316953
0.00229889
0.000254602
-0.00245334
-0.00981943
-0.0221739
-0.0581847
-0.116065
-0.136776
-0.204551
-0.266978
-0.390801
-0.353589
-0.112988
-0.0291321
-0.00700005
-68.2193
56.1697
1.83267
1.38497
1.17672
0.905286
0.793134
0.650297
0.583968
0.481563
0.425684
0.324037
0.298531
0.306293
0.305734
0.294235
0.285704
0.266178
0.25517
0.234421
0.223446
0.20396
0.193924
0.1766
0.167923
0.153446
0.147012
0.138156
0.139541
0.155622
0.19985
0.136384
0.0964591
0.0826861
0.0695436
0.0639061
0.0560423
0.0523027
0.046387
0.0434707
0.0386675
0.0362643
0.0322395
0.0302019
0.0267424
0.0249537
0.0218403
0.0201496
0.0170454
0.0152202
0.0116803
0.0107883
0.0110502
0.0110047
0.0105168
0.0101648
0.00937182
0.00892534
0.00808418
0.00763277
0.00681751
0.00636905
0.00553404
0.00500421
0.00387619
0.00290255
0.000377
-0.00262416
-0.011551
-0.0252326
-0.0694615
-0.14454
-0.163651
-0.250201
-0.322008
-0.490273
-0.447725
-0.12644
-0.0305179
-0.00712807
-67.8231
53.5975
2.25967
1.62089
1.39504
1.05646
0.939118
0.762133
0.692804
0.565373
0.506556
0.376435
0.349708
0.36259
0.362277
0.347563
0.338564
0.31392
0.302344
0.27627
0.264741
0.240288
0.22975
0.208012
0.198896
0.180681
0.173879
0.162341
0.163544
0.18184
0.245254
0.159459
0.111693
0.0975367
0.0815397
0.0756752
0.0658925
0.0619764
0.0545786
0.0515201
0.0455054
0.042984
0.0379425
0.0358047
0.0314721
0.0295958
0.0257
0.0239272
0.0200463
0.0181216
0.0135789
0.0126433
0.0130832
0.0130451
0.0124217
0.0120505
0.0110501
0.0105807
0.00952417
0.00905026
0.00802908
0.00755906
0.0065185
0.00596543
0.00457704
0.00356865
0.000518773
-0.00255758
-0.0130919
-0.0270689
-0.0795036
-0.175253
-0.187828
-0.296439
-0.373178
-0.598176
-0.55301
-0.130878
-0.0290025
-0.0065535
-67.4266
51.0008
2.73662
1.84029
1.61786
1.19879
1.08749
0.869664
0.803967
0.64644
0.590282
0.424698
0.399302
0.419417
0.419398
0.400664
0.392052
0.361141
0.350099
0.317538
0.306556
0.276061
0.266026
0.238921
0.230236
0.207461
0.200939
0.186019
0.186865
0.206256
0.296629
0.181015
0.125584
0.112463
0.093132
0.0876027
0.0755095
0.0717907
0.0625979
0.059689
0.0522048
0.0498057
0.0435305
0.0414964
0.0361046
0.0343196
0.0294757
0.0277899
0.0229697
0.0211284
0.0153337
0.0144438
0.0151359
0.0151094
0.014317
0.0139619
0.0127076
0.01226
0.0109414
0.0104901
0.00921909
0.00877235
0.0074839
0.00696051
0.0052631
0.00431681
0.000662011
-0.00219228
-0.0144947
-0.0273664
-0.0878123
-0.209292
-0.208162
-0.343951
-0.418417
-0.716884
-0.673373
-0.122505
-0.0243101
-0.00529571
-67.03
48.3805
3.2729
2.03274
1.84856
1.32881
1.24012
0.971112
0.918804
0.723455
0.678386
0.467356
0.447077
0.47705
0.477269
0.453363
0.446434
0.407569
0.398718
0.357945
0.349153
0.311018
0.302987
0.269096
0.262142
0.233593
0.228336
0.209068
0.209447
0.227836
0.356249
0.200167
0.137785
0.127639
0.104174
0.0997944
0.0847931
0.0818256
0.0703673
0.0680423
0.058702
0.0567838
0.04895
0.0473235
0.0405938
0.0391668
0.0331259
0.0317788
0.0257748
0.024294
0.0168929
0.0161816
0.017218
0.0172049
0.0161955
0.0159099
0.0143335
0.0139747
0.0123244
0.0119634
0.0103766
0.0100198
0.00841919
0.00800303
0.00591958
0.00517378
0.000773685
-0.00144858
-0.0158742
-0.0257603
-0.0936788
-0.248234
-0.223019
-0.393914
-0.454694
-0.84927
-0.814028
-0.0960245
-0.0164505
-0.00345127
-66.6332
45.7411
3.87781
2.18295
2.09269
1.44159
1.39998
1.06389
1.03937
0.794461
0.773131
0.502385
0.492843
0.535876
0.536107
0.505384
0.502095
0.452799
0.448616
0.397076
0.392926
0.344773
0.340984
0.298196
0.294913
0.258796
0.256296
0.231334
0.23131
0.245017
0.427253
0.215573
0.147899
0.143351
0.114454
0.112413
0.093597
0.0922018
0.0777729
0.0766778
0.0649038
0.0639998
0.0541225
0.053356
0.044872
0.0441997
0.0365894
0.0359551
0.0283997
0.0276973
0.0181851
0.0178501
0.0193427
0.019341
0.0180457
0.0179102
0.0159113
0.0157418
0.0136565
0.0134863
0.0114856
0.0113176
0.00930763
0.00911278
0.00652305
0.00617742
0.000798739
-0.000216245
-0.0174348
-0.0218324
-0.096079
-0.294364
-0.23003
-0.448281
-0.477619
-0.998847
-0.981993
-0.0440069
-0.00592815
-0.00120036
-66.2364
45.7411
3.8778
2.18296
2.09269
1.44159
1.39998
1.0639
1.03937
0.794463
0.773134
0.502386
0.492845
0.535877
0.536108
0.505385
0.502096
0.4528
0.448616
0.397076
0.392927
0.344773
0.340984
0.298196
0.294913
0.258795
0.256295
0.231333
0.23131
0.245016
0.427251
0.215572
0.147899
0.14335
0.114454
0.112413
0.0935972
0.092202
0.0777734
0.0766782
0.0649044
0.0640004
0.0541232
0.0533566
0.0448727
0.0442004
0.0365901
0.0359558
0.0284003
0.0276979
0.0181856
0.0178505
0.0193431
0.0193414
0.0180461
0.0179106
0.0159117
0.0157421
0.0136568
0.0134865
0.0114858
0.0113179
0.00930788
0.00911303
0.0065234
0.00617779
0.000799479
-0.000215428
-0.0174326
-0.0218299
-0.0960709
-0.294341
-0.230012
-0.448249
-0.477584
-0.998779
-0.981926
-0.044004
-0.00592784
-0.00120042
-66.2366
48.3805
3.2729
2.03274
1.84857
1.32881
1.24013
0.971114
0.918807
0.723457
0.678388
0.467357
0.447078
0.477051
0.47727
0.453363
0.446434
0.407569
0.398718
0.357945
0.349153
0.311018
0.302986
0.269096
0.262141
0.233593
0.228335
0.209067
0.209446
0.227835
0.356247
0.200166
0.137785
0.127639
0.104174
0.0997944
0.0847933
0.0818258
0.0703677
0.0680427
0.0587025
0.0567843
0.0489506
0.0473241
0.0405944
0.0391674
0.0331265
0.0317794
0.0257753
0.0242946
0.0168933
0.016182
0.0172184
0.0172053
0.0161959
0.0159102
0.0143338
0.013975
0.0123247
0.0119636
0.0103769
0.0100201
0.00841941
0.00800326
0.00591988
0.00517414
0.000774343
-0.00144775
-0.0158723
-0.0257576
-0.093671
-0.248214
-0.223002
-0.393886
-0.454662
-0.849212
-0.813973
-0.096018
-0.0164495
-0.00345169
-66.6335
51.0008
2.73662
1.84029
1.61787
1.19879
1.08749
0.869666
0.803969
0.646442
0.590283
0.424699
0.399303
0.419417
0.419399
0.400665
0.392053
0.361141
0.3501
0.317538
0.306556
0.276061
0.266026
0.238921
0.230236
0.207461
0.200938
0.186018
0.186865
0.206255
0.296628
0.181014
0.125584
0.112463
0.093132
0.0876028
0.0755097
0.071791
0.0625982
0.0596894
0.0522052
0.0498062
0.043531
0.0414969
0.0361051
0.0343202
0.0294762
0.0277904
0.0229702
0.0211289
0.0153341
0.0144442
0.0151363
0.0151097
0.0143173
0.0139622
0.0127079
0.0122602
0.0109416
0.0104904
0.00921929
0.00877255
0.0074841
0.00696073
0.00526338
0.00431715
0.000662604
-0.00219146
-0.014493
-0.0273637
-0.087805
-0.209276
-0.208147
-0.343926
-0.418387
-0.716835
-0.673327
-0.122496
-0.0243084
-0.00529629
-67.0302
53.5975
2.25967
1.62089
1.39504
1.05646
0.93912
0.762135
0.692806
0.565375
0.506557
0.376436
0.349709
0.362591
0.362278
0.347564
0.338565
0.31392
0.302344
0.27627
0.264742
0.240288
0.22975
0.208012
0.198896
0.180681
0.173879
0.162341
0.163544
0.18184
0.245253
0.159458
0.111693
0.0975367
0.0815397
0.0756753
0.0658927
0.0619766
0.0545789
0.0515205
0.0455059
0.0429845
0.037943
0.0358052
0.0314726
0.0295963
0.0257005
0.0239277
0.0200468
0.018122
0.0135792
0.0126437
0.0130835
0.0130454
0.012422
0.0120508
0.0110503
0.0105809
0.00952438
0.00905046
0.00802927
0.00755924
0.00651869
0.00596564
0.00457729
0.00356896
0.000519297
-0.00255682
-0.0130904
-0.0270663
-0.079497
-0.17524
-0.187814
-0.296418
-0.373152
-0.598135
-0.552973
-0.130869
-0.0290003
-0.00655399
-67.4268
56.1697
1.83267
1.38497
1.17672
0.905287
0.793136
0.650299
0.58397
0.481564
0.425685
0.324038
0.298531
0.306294
0.305735
0.294236
0.285704
0.266179
0.25517
0.234422
0.223446
0.20396
0.193924
0.1766
0.167923
0.153446
0.147011
0.138155
0.139541
0.155622
0.199849
0.136383
0.0964591
0.0826861
0.0695437
0.0639062
0.0560425
0.0523029
0.0463872
0.043471
0.0386679
0.0362646
0.0322399
0.0302024
0.0267429
0.0249541
0.0218408
0.02015
0.0170458
0.0152206
0.0116806
0.0107886
0.0110505
0.0110049
0.010517
0.010165
0.00937203
0.00892553
0.00808436
0.00763294
0.00681767
0.00636921
0.00553421
0.00500438
0.00387641
0.00290283
0.000377451
-0.00262348
-0.0115496
-0.0252302
-0.0694557
-0.144529
-0.163639
-0.250183
-0.321985
-0.490239
-0.447695
-0.126432
-0.0305154
-0.00712835
-67.8232
58.7189
1.44655
1.13947
0.96093
0.747743
0.648382
0.535405
0.476578
0.395894
0.346645
0.268595
0.246025
0.25033
0.249631
0.240791
0.233286
0.218098
0.208387
0.192184
0.182493
0.167255
0.158391
0.144843
0.137183
0.125891
0.120242
0.113562
0.114952
0.12828
0.158757
0.112369
0.080181
0.0678117
0.0572489
0.0522273
0.0460285
0.0427174
0.0380767
0.0354982
0.0317349
0.0296107
0.0264582
0.0246573
0.0219471
0.0203657
0.0179248
0.0164296
0.0139942
0.0123883
0.00967641
0.00888782
0.00903014
0.00898271
0.00860714
0.0082974
0.00768034
0.00728642
0.00662918
0.00623039
0.0055918
0.00519503
0.00453789
0.00406742
0.00316971
0.00229912
0.000254975
-0.00245277
-0.0098183
-0.0221719
-0.0581798
-0.116056
-0.136766
-0.204537
-0.26696
-0.390774
-0.353565
-0.11298
-0.0291295
-0.00700012
-68.2194
61.2479
1.09284
0.88884
0.746529
0.585646
0.504173
0.418346
0.370062
0.308968
0.268758
0.210935
0.192444
0.194569
0.193854
0.187293
0.181175
0.169799
0.161865
0.149687
0.141762
0.130298
0.123047
0.112853
0.106589
0.0981118
0.0935153
0.0886473
0.0898877
0.100254
0.120741
0.0877883
0.0631116
0.0528664
0.0447335
0.0405967
0.0359
0.033186
0.0296846
0.0275736
0.0247373
0.0229986
0.0206232
0.0191493
0.0171068
0.0158124
0.0139717
0.0127474
0.01091
0.00960073
0.00759572
0.00695015
0.00701779
0.00697399
0.006695
0.00644246
0.0059801
0.00565821
0.00516402
0.00483779
0.00435659
0.00403159
0.00353442
0.00314786
0.00246221
0.00174264
0.000159332
-0.00209545
-0.00788713
-0.0181669
-0.0460287
-0.0890686
-0.10801
-0.159104
-0.209477
-0.297749
-0.267569
-0.0932591
-0.025275
-0.00621495
-68.6154
63.7606
0.763598
0.63574
0.532873
0.420375
0.36014
0.299787
0.264059
0.221207
0.191577
0.151701
0.13804
0.138921
0.138311
0.133779
0.129276
0.121364
0.115515
0.107022
0.101174
0.0931724
0.0878219
0.0807057
0.076085
0.0701785
0.0668005
0.0634893
0.0644592
0.0718244
0.084865
0.062878
0.0454661
0.0378375
0.0320591
0.0289893
0.025693
0.0236869
0.0212376
0.0196787
0.0176963
0.0164127
0.0147528
0.0136646
0.0122372
0.0112814
0.00999432
0.00909015
0.00780501
0.00684134
0.00546094
0.00498424
0.00501019
0.00497497
0.00478211
0.00459621
0.00427454
0.00403719
0.00369243
0.00345166
0.00311539
0.00287529
0.00252678
0.0022405
0.00175631
0.00122094
9.07751e-05
-0.00159641
-0.00577616
-0.0134584
-0.03327
-0.0630445
-0.0779666
-0.113699
-0.150479
-0.209461
-0.187337
-0.0692849
-0.0194636
-0.00486965
-69.0111
66.2612
0.451443
0.381641
0.319603
0.253014
0.216113
0.180243
0.158342
0.132918
0.114807
0.0914202
0.0830541
0.0833346
0.0829266
0.0802648
0.0775146
0.072847
0.0692701
0.064251
0.0606738
0.0559419
0.0526681
0.0484598
0.0456332
0.0421447
0.0400838
0.0381609
0.0387758
0.0431689
0.0503913
0.0377858
0.02743
0.0227354
0.0192771
0.0173915
0.0154349
0.0142061
0.0127556
0.0118012
0.0106279
0.00984221
0.0088599
0.00819383
0.00734904
0.00676398
0.00600199
0.00544846
0.00468747
0.00409887
0.00329023
0.00299842
0.00300525
0.00298249
0.00286917
0.00275561
0.00256582
0.00242067
0.00221687
0.00206955
0.00187054
0.00172352
0.00151682
0.00134122
0.00105262
0.000723199
4.46637e-05
-0.000997512
-0.00352491
-0.00826448
-0.0201125
-0.037614
-0.0470907
-0.0682515
-0.0905913
-0.124417
-0.110942
-0.0425812
-0.0122433
-0.00309887
-69.4067
68.7546
0.14937
0.127233
0.106517
0.0844664
0.0720444
0.0601414
0.0527666
0.0443372
0.0382472
0.0305386
0.0277229
0.0277755
0.0276324
0.0267543
0.0258299
0.0242868
0.0230839
0.021423
0.0202197
0.0186534
0.0175521
0.0161591
0.0152083
0.0140543
0.013362
0.0127315
0.0129419
0.0144009
0.0167114
0.0126041
0.00916798
0.00758417
0.00643254
0.00579695
0.00514806
0.00473443
0.00425394
0.0039328
0.00354426
0.00327989
0.00295462
0.00273051
0.00245076
0.0022539
0.00200152
0.00181525
0.00156319
0.00136536
0.00109897
0.00100078
0.00100162
0.000993754
0.000956364
0.000918194
0.000855445
0.000806628
0.000739182
0.000689617
0.000623719
0.000574239
0.000505719
0.000446572
0.000350658
0.000239519
1.31969e-05
-0.000339098
-0.00118505
-0.00278607
-0.00672863
-0.0125043
-0.0157471
-0.0227569
-0.0302443
-0.0412653
-0.0367426
-0.0143565
-0.00417532
-0.00106294
-69.8023
68.7348
0.135321
0.102579
0.0767373
0.0516268
0.0383598
0.0269357
0.0206082
0.014625
0.0122465
0.0115874
0.0112426
0.0107063
0.0102842
0.00969526
0.00926769
0.00870926
0.00830732
0.00778323
0.00740445
0.00690854
0.00655152
0.0060874
0.00576161
0.00535397
0.00510363
0.00486775
0.0049399
0.00546805
0.00631052
0.00472523
0.00339236
0.00277592
0.00232593
0.00207835
0.0018273
0.00166838
0.00148528
0.00136341
0.00121651
0.00111648
0.0009932
0.00090795
0.000801121
0.000725889
0.000629561
0.000559443
0.000466267
0.00039578
0.000302847
0.000260663
0.00023913
0.000218164
0.000178598
0.000142301
8.43202e-05
3.37282e-05
-4.52501e-05
-0.000116116
-0.000229961
-0.000337342
-0.000517167
-0.000697782
-0.00101628
-0.00136773
-0.00203815
-0.00291032
-0.00480287
-0.00794128
-0.015277
-0.0251642
-0.0278153
-0.0349293
-0.0426822
-0.0537914
-0.0468755
-0.0182505
-0.0053023
-0.00134932
-69.1036
66.2022
0.409387
0.307462
0.230183
0.154407
0.115006
0.0806033
0.061811
0.0437307
0.0366707
0.0347497
0.0337356
0.0321144
0.0308592
0.0290794
0.0278083
0.0261216
0.0249269
0.0233439
0.0222181
0.0207201
0.0196589
0.0182567
0.0172881
0.0160557
0.0153104
0.014591
0.0148015
0.0163916
0.0190287
0.0141656
0.0101484
0.00832111
0.0069697
0.00623519
0.00547822
0.0050061
0.00445339
0.00409122
0.00364764
0.00335037
0.00297808
0.00272472
0.00240211
0.00217852
0.00188765
0.00167926
0.00139791
0.00118825
0.000906522
0.000781174
0.000717381
0.000655249
0.000535678
0.000427785
0.000252678
0.000102332
-0.000136064
-0.00034662
-0.000690132
-0.00100912
-0.00155146
-0.00208782
-0.0030475
-0.00409044
-0.00610637
-0.00869015
-0.0143588
-0.0236559
-0.045729
-0.075782
-0.0832675
-0.104762
-0.127912
-0.162095
-0.141495
-0.0541243
-0.0155471
-0.00393362
-67.3108
63.6634
0.693829
0.511359
0.383569
0.255732
0.191453
0.133647
0.102986
0.0723959
0.0608895
0.0578759
0.056253
0.053508
0.0514553
0.0484433
0.0463657
0.0435143
0.0415621
0.0388864
0.0370467
0.0345143
0.03278
0.0304088
0.0288254
0.026738
0.0255162
0.0242771
0.024608
0.0272734
0.032047
0.0235723
0.016817
0.0138473
0.0115888
0.0103929
0.00911774
0.00834704
0.00741386
0.00682228
0.00607293
0.00558727
0.00495822
0.00454427
0.00399915
0.00363387
0.00314246
0.00280204
0.00232672
0.00198364
0.00150398
0.00129926
0.0011956
0.00109467
0.000892331
0.000715998
0.000420084
0.000174495
-0.000227957
-0.000571773
-0.00115126
-0.00167194
-0.00258597
-0.00346091
-0.00507538
-0.0067742
-0.0101519
-0.0143466
-0.0237695
-0.0388596
-0.0758619
-0.127302
-0.138159
-0.174529
-0.212701
-0.272591
-0.238785
-0.0880464
-0.0247133
-0.00618106
-65.5179
61.1142
0.995915
0.713071
0.536958
0.354516
0.267641
0.185605
0.144158
0.100298
0.0847688
0.0809467
0.0788155
0.0748742
0.07209
0.0677699
0.0649543
0.0608712
0.0582264
0.0543957
0.0519032
0.0482768
0.0459268
0.0425295
0.0403829
0.0373859
0.0357229
0.0339006
0.0343213
0.038071
0.0455955
0.0329102
0.0233342
0.0193451
0.0161654
0.0145538
0.0127371
0.0116945
0.0103607
0.00955964
0.00848767
0.0078299
0.00692977
0.0063691
0.00558905
0.00509431
0.0043913
0.00393027
0.0032503
0.00278456
0.00209049
0.00181336
0.00167378
0.00153822
0.00124801
0.00100906
0.000585542
0.000252995
-0.000322139
-0.000787446
-0.00161468
-0.00231898
-0.00362201
-0.00480438
-0.00709985
-0.00939079
-0.0141646
-0.0197938
-0.0329536
-0.0531867
-0.105417
-0.180446
-0.192031
-0.244224
-0.296621
-0.386833
-0.340753
-0.118472
-0.0320875
-0.00788803
-63.7248
58.5508
1.32343
0.910514
0.690602
0.449479
0.343637
0.23594
0.185427
0.127067
0.10818
0.10395
0.101451
0.0961943
0.0927864
0.0870367
0.0835938
0.0781709
0.0749384
0.0698517
0.0668053
0.0619884
0.0591158
0.0546006
0.0519748
0.0479807
0.0459362
0.0434347
0.0439017
0.048718
0.0599526
0.042124
0.029628
0.0248105
0.0206793
0.018723
0.0163254
0.0150535
0.0132862
0.0123078
0.0108858
0.0100822
0.00888777
0.00820274
0.00716758
0.00656315
0.00563053
0.00506734
0.0041654
0.00359469
0.0026604
0.00232204
0.00215189
0.00198804
0.00160174
0.0013096
0.000747451
0.000341285
-0.000420636
-0.000988569
-0.00208297
-0.00294201
-0.00466281
-0.00610328
-0.00912445
-0.011908
-0.0181432
-0.0249398
-0.0418546
-0.0662338
-0.13406
-0.236128
-0.244277
-0.31391
-0.379029
-0.506528
-0.449768
-0.143462
-0.0369744
-0.00888371
-61.9314
55.9701
1.68488
1.10024
0.845097
0.539032
0.419708
0.283989
0.227011
0.152258
0.131006
0.126885
0.124197
0.117441
0.113577
0.106212
0.102313
0.0953833
0.0917249
0.0852264
0.0817786
0.0756227
0.0723708
0.0665963
0.0636217
0.0584978
0.0561681
0.0528503
0.0533085
0.0591085
0.0754726
0.0511247
0.0356148
0.0302486
0.0251063
0.0229098
0.0198688
0.0184324
0.0161801
0.0150738
0.0132593
0.0123502
0.0108254
0.0100504
0.00872896
0.00804519
0.00685509
0.00621806
0.00506736
0.00441947
0.00320658
0.00282409
0.00262987
0.00244689
0.00195183
0.00162107
0.000903237
0.000443916
-0.000526791
-0.00116854
-0.00256058
-0.00353049
-0.00571477
-0.00733889
-0.0111585
-0.0142871
-0.0220992
-0.0296811
-0.0504571
-0.0775431
-0.161334
-0.295566
-0.294065
-0.383777
-0.458941
-0.633593
-0.568766
-0.160459
-0.0387253
-0.00904544
-60.1377
53.3693
2.08964
1.27679
1.00163
0.621116
0.496436
0.32889
0.269306
0.17531
0.153147
0.149763