/*--------------------------------*- C++ -*----------------------------------*\
| =========                 |                                                 |
| \\      /  F ield         | OpenFOAM: The Open Source CFD Toolbox           |
|  \\    /   O peration     | Version:  5.x                                   |
|   \\  /    A nd           | Web:      www.OpenFOAM.org                      |
|    \\/     M anipulation  |                                                 |
\*---------------------------------------------------------------------------*/
FoamFile
{
    version     2.0;
    format      ascii;
    class       volScalarField;
    location    "0.9999";
    object      T;
}
// * * * * * * * * * * * * * * * * * * * * * * * * * * * * * * * * * * * * * //

dimensions      [0 0 0 1 0 0 0];

internalField   nonuniform List<scalar> 
6300
(
322.853
322.559
322.264
321.968
321.669
321.367
321.062
320.752
320.438
320.12
319.795
319.466
319.13
318.789
318.443
322.854
322.56
322.266
321.97
321.672
321.371
321.066
320.757
320.443
320.125
319.801
319.471
319.136
318.795
318.448
322.854
322.562
322.269
321.975
321.678
321.378
321.074
320.766
320.453
320.135
319.812
319.483
319.147
318.806
318.459
322.855
322.565
322.275
321.982
321.687
321.388
321.086
320.78
320.469
320.152
319.829
319.5
319.165
318.823
318.476
322.857
322.57
322.281
321.991
321.699
321.403
321.103
320.799
320.489
320.174
319.852
319.524
319.189
318.847
318.498
322.858
322.575
322.29
322.003
321.714
321.421
321.125
320.823
320.516
320.202
319.882
319.555
319.22
318.877
318.527
322.861
322.581
322.301
322.018
321.733
321.444
321.151
320.853
320.548
320.237
319.919
319.593
319.258
318.915
318.563
322.863
322.589
322.313
322.036
321.755
321.471
321.182
320.888
320.588
320.28
319.964
319.639
319.305
318.96
318.607
322.866
322.597
322.328
322.056
321.781
321.503
321.219
320.93
320.634
320.331
320.018
319.695
319.361
319.016
318.659
322.869
322.607
322.344
322.079
321.811
321.539
321.262
320.979
320.689
320.39
320.082
319.762
319.429
319.082
318.722
322.873
322.618
322.363
322.105
321.845
321.58
321.311
321.035
320.752
320.46
320.157
319.841
319.51
319.163
318.798
322.877
322.631
322.383
322.134
321.882
321.626
321.366
321.099
320.825
320.541
320.245
319.935
319.608
319.261
318.892
322.882
322.644
322.406
322.166
321.923
321.677
321.427
321.171
320.907
320.633
320.348
320.047
319.726
319.382
319.011
322.886
322.659
322.43
322.2
321.968
321.733
321.494
321.249
320.998
320.738
320.466
320.177
319.867
319.53
319.162
322.891
322.674
322.456
322.237
322.016
321.792
321.566
321.335
321.099
320.855
320.6
320.33
320.036
319.709
319.348
318.12
317.823
317.522
317.218
316.911
316.602
316.289
315.974
315.657
315.338
315.017
314.694
314.369
314.044
313.717
313.389
313.061
312.732
312.403
312.073
311.744
311.414
311.084
310.754
310.424
310.094
309.764
309.434
309.104
308.774
308.444
308.114
307.784
307.454
307.125
306.796
306.468
306.139
305.811
305.483
305.154
304.826
304.498
304.17
303.842
303.513
303.185
302.858
302.53
302.202
301.875
301.548
301.221
300.894
300.567
300.24
299.913
299.585
299.258
298.931
298.604
298.276
297.949
297.623
297.296
296.969
296.643
296.317
295.991
295.665
295.339
295.014
294.688
294.362
294.037
293.711
293.386
293.061
292.736
292.412
292.087
291.763
291.438
291.113
290.787
290.461
290.133
289.805
289.475
289.145
318.125
317.828
317.527
317.223
316.916
316.606
316.293
315.978
315.66
315.341
315.019
314.696
314.371
314.045
313.718
313.39
313.061
312.732
312.403
312.073
311.744
311.414
311.084
310.754
310.424
310.094
309.764
309.434
309.104
308.773
308.443
308.113
307.784
307.454
307.125
306.796
306.467
306.139
305.811
305.483
305.154
304.826
304.498
304.17
303.841
303.513
303.185
302.857
302.53
302.202
301.875
301.548
301.221
300.894
300.567
300.24
299.913
299.586
299.258
298.931
298.604
298.276
297.949
297.622
297.296
296.969
296.643
296.317
295.991
295.665
295.339
295.014
294.688
294.362
294.037
293.711
293.386
293.061
292.736
292.412
292.087
291.763
291.438
291.114
290.788
290.462
290.135
289.806
289.477
289.146
318.136
317.838
317.536
317.232
316.924
316.613
316.3
315.984
315.666
315.346
315.024
314.7
314.375
314.048
313.721
313.392
313.063
312.733
312.404
312.074
311.744
311.414
311.084
310.755
310.425
310.095
309.764
309.434
309.104
308.773
308.443
308.113
307.783
307.453
307.124
306.795
306.467
306.139
305.811
305.482
305.154
304.826
304.498
304.17
303.841
303.513
303.185
302.857
302.529
302.202
301.874
301.547
301.221
300.894
300.567
300.24
299.913
299.586
299.258
298.931
298.603
298.276
297.949
297.622
297.295
296.969
296.642
296.317
295.991
295.665
295.339
295.013
294.688
294.362
294.036
293.711
293.385
293.06
292.736
292.411
292.087
291.763
291.439
291.115
290.79
290.464
290.138
289.81
289.48
289.15
318.151
317.853
317.551
317.245
316.936
316.625
316.311
315.994
315.675
315.354
315.032
314.707
314.381
314.053
313.724
313.395
313.065
312.735
312.404
312.074
311.744
311.414
311.085
310.755
310.425
310.095
309.765
309.434
309.104
308.773
308.442
308.112
307.782
307.452
307.123
306.794
306.466
306.138
305.81
305.482
305.155
304.826
304.498
304.17
303.841
303.512
303.184
302.856
302.528
302.201
301.874
301.547
301.22
300.894
300.567
300.241
299.913
299.586
299.258
298.931
298.603
298.275
297.948
297.62
297.294
296.967
296.642
296.316
295.99
295.665
295.339
295.013
294.687
294.361
294.035
293.71
293.384
293.059
292.735
292.411
292.087
291.764
291.441
291.117
290.793
290.469
290.143
289.815
289.486
289.155
318.173
317.873
317.57
317.263
316.953
316.64
316.325
316.007
315.687
315.366
315.042
314.716
314.388
314.059
313.729
313.398
313.067
312.736
312.405
312.074
311.744
311.414
311.085
310.755
310.426
310.096
309.765
309.435
309.104
308.772
308.441
308.11
307.78
307.45
307.121
306.792
306.465
306.137
305.81
305.483
305.155
304.827
304.498
304.17
303.841
303.512
303.183
302.854
302.526
302.199
301.872
301.546
301.22
300.894
300.568
300.241
299.914
299.587
299.259
298.93
298.602
298.274
297.946
297.619
297.292
296.966
296.64
296.315
295.99
295.665
295.339
295.013
294.687
294.361
294.034
293.708
293.382
293.057
292.733
292.409
292.086
291.764
291.443
291.121
290.798
290.475
290.149
289.823
289.493
289.162
318.2
317.899
317.593
317.285
316.973
316.659
316.342
316.024
315.703
315.38
315.054
314.727
314.398
314.067
313.735
313.402
313.07
312.737
312.405
312.074
311.744
311.414
311.085
310.756
310.427
310.097
309.767
309.436
309.104
308.772
308.44
308.108
307.777
307.447
307.118
306.79
306.463
306.136
305.81
305.483
305.156
304.828
304.499
304.17
303.84
303.51
303.181
302.852
302.524
302.197
301.87
301.545
301.22
300.894
300.569
300.243
299.916
299.588
299.26
298.93
298.601
298.272
297.944
297.616
297.289
296.964
296.639
296.314
295.99
295.665
295.34
295.014
294.687
294.36
294.033
293.706
293.379
293.054
292.729
292.407
292.085
291.764
291.444
291.125
290.804
290.483
290.159
289.833
289.504
289.173
318.234
317.93
317.622
317.311
316.997
316.681
316.363
316.043
315.721
315.397
315.07
314.741
314.41
314.077
313.742
313.407
313.071
312.737
312.404
312.072
311.742
311.413
311.085
310.757
310.429
310.1
309.769
309.437
309.105
308.771
308.438
308.105
307.773
307.442
307.113
306.786
306.46
306.135
305.81
305.484
305.158
304.83
304.501
304.171
303.84
303.509
303.178
302.848
302.52
302.193
301.867
301.543
301.219
300.895
300.571
300.246
299.919
299.591
299.261
298.931
298.6
298.269
297.94
297.612
297.285
296.96
296.636
296.313
295.99
295.666
295.341
295.015
294.688
294.36
294.031
293.703
293.375
293.049
292.724
292.402
292.082
291.763
291.446
291.129
290.812
290.493
290.172
289.848
289.52
289.187
318.275
317.967
317.656
317.341
317.024
316.706
316.386
316.065
315.743
315.418
315.09
314.759
314.425
314.088
313.75
313.411
313.072
312.735
312.401
312.068
311.739
311.411
311.085
310.759
310.432
310.104
309.773
309.441
309.106
308.771
308.435
308.1
307.766
307.435
307.106
306.78
306.456
306.133
305.81
305.487
305.162
304.834
304.505
304.173
303.84
303.507
303.174
302.843
302.514
302.187
301.863
301.54
301.219
300.897
300.574
300.25
299.924
299.595
299.264
298.931
298.598
298.266
297.935
297.606
297.279
296.955
296.633
296.311
295.99
295.668
295.344
295.019
294.691
294.361
294.03
293.699
293.369
293.041
292.716
292.394
292.076
291.761
291.447
291.135
290.822
290.507
290.19
289.868
289.541
289.208
318.323
318.011
317.694
317.374
317.054
316.733
316.412
316.09
315.768
315.442
315.114
314.781
314.443
314.102
313.759
313.414
313.071
312.73
312.393
312.061
311.733
311.408
311.084
310.761
310.437
310.111
309.781
309.447
309.11
308.771
308.431
308.092
307.756
307.424
307.096
306.772
306.451
306.131
305.812
305.492
305.168
304.842
304.511
304.177
303.841
303.504
303.168
302.834
302.504
302.178
301.856
301.536
301.218
300.9
300.58
300.258
299.932
299.602
299.268
298.932
298.595
298.259
297.926
297.596
297.27
296.947
296.628
296.31
295.992
295.673
295.35
295.025
294.696
294.363
294.028
293.693
293.359
293.029
292.703
292.382
292.066
291.755
291.447
291.14
290.834
290.526
290.214
289.896
289.57
289.236
318.379
318.06
317.736
317.409
317.083
316.76
316.438
316.117
315.796
315.472
315.144
314.809
314.467
314.12
313.769
313.416
313.066
312.72
312.38
312.048
311.722
311.401
311.083
310.766
310.446
310.123
309.793
309.458
309.117
308.772
308.426
308.081
307.741
307.407
307.08
306.759
306.443
306.129
305.816
305.5
305.18
304.854
304.522
304.185
303.843
303.499
303.158
302.82
302.489
302.164
301.844
301.53
301.218
300.905
300.591
300.271
299.946
299.614
299.277
298.935
298.592
298.25
297.912
297.58
297.255
296.936
296.621
296.308
295.996
295.681
295.362
295.037
294.705
294.368
294.027
293.685
293.345
293.01
292.683
292.362
292.05
291.744
291.444
291.146
290.849
290.55
290.246
289.934
289.611
289.276
318.447
318.118
317.781
317.444
317.11
316.783
316.462
316.145
315.829
315.509
315.182
314.846
314.5
314.144
313.781
313.415
313.053
312.7
312.357
312.025
311.704
311.39
311.081
310.773
310.461
310.143
309.815
309.477
309.129
308.775
308.417
308.063
307.717
307.381
307.055
306.739
306.431
306.127
305.823
305.515
305.2
304.876
304.542
304.198
303.847
303.493
303.142
302.798
302.464
302.141
301.827
301.52
301.217
300.914
300.607
300.293
299.969
299.635
299.291
298.94
298.585
298.234
297.89
297.555
297.232
296.917
296.61
296.306
296.003
295.696
295.381
295.057
294.723
294.379
294.028
293.674
293.324
292.982
292.651
292.332
292.024
291.726
291.436
291.151
290.867
290.582
290.291
289.989
289.671
289.333
318.531
318.185
317.828
317.472
317.128
316.798
316.481
316.173
315.867
315.556
315.234
314.898
314.547
314.178
313.796
313.409
313.03
312.664
312.317
311.987
311.674
311.373
311.079
310.786
310.486
310.176
309.851
309.51
309.152
308.781
308.405
308.035
307.678
307.339
307.016
306.709
306.413
306.124
305.835
305.54
305.234
304.913
304.576
304.222
303.855
303.482
303.115
302.761
302.425
302.104
301.799
301.504
301.216
300.929
300.634
300.328
300.007
299.67
299.316
298.949
298.575
298.208
297.853
297.516
297.195
296.888
296.593
296.305
296.016
295.721
295.414
295.093
294.755
294.4
294.032
293.658
293.291
292.937
292.602
292.284
291.984
291.698
291.422
291.153
290.887
290.621
290.351
290.066
289.758
289.419
318.64
318.27
317.871
317.486
317.124
316.793
316.486
316.197
315.912
315.617
315.307
314.974
314.617
314.23
313.82
313.393
312.985
312.602
312.252
311.927
311.627
311.345
311.076
310.807
310.527
310.231
309.91
309.567
309.193
308.797
308.382
307.987
307.614
307.273
306.955
306.662
306.385
306.121
305.857
305.581
305.289
304.973
304.633
304.264
303.872
303.461
303.07
302.7
302.361
302.046
301.755
301.479
301.216
300.953
300.677
300.385
300.069
299.73
299.36
298.967
298.556
298.163
297.792
297.452
297.136
296.844
296.567
296.303
296.039
295.762
295.469
295.152
294.811
294.439
294.045
293.632
293.238
292.867
292.528
292.213
291.923
291.653
291.399
291.152
290.906
290.668
290.43
290.178
289.891
289.551
318.795
318.399
317.893
317.466
317.076
316.756
316.464
316.215
315.973
315.7
315.415
315.082
314.732
314.315
313.87
313.347
312.905
312.494
312.151
311.829
311.555
311.297
311.071
310.846
310.59
310.32
310.003
309.668
309.267
308.838
308.333
307.905
307.506
307.173
306.859
306.592
306.339
306.118
305.897
305.644
305.378
305.066
304.735
304.338
303.915
303.415
302.991
302.596
302.265
301.953
301.688
301.436
301.215
300.995
300.743
300.477
300.165
299.833
299.436
299.011
298.51
298.085
297.688
297.355
297.042
296.776
296.523
296.301
296.08
295.826
295.559
295.245
294.911
294.511
294.084
293.579
293.151
292.752
292.418
292.103
291.837
291.584
291.365
291.15
290.912
290.713
290.532
290.339
290.102
289.773
319.038
318.685
317.8
317.395
316.925
316.681
316.378
316.225
316.078
315.798
315.59
315.217
314.943
314.439
314.032
313.185
312.782
312.287
312.019
311.661
311.463
311.202
311.066
310.931
310.672
310.476
310.124
309.862
309.38
308.989
308.173
307.783
307.303
307.044
306.695
306.502
306.247
306.114
305.982
305.727
305.534
305.187
304.929
304.453
304.067
303.259
302.873
302.398
302.14
301.793
301.601
301.347
301.215
301.083
300.829
300.636
300.288
300.03
299.553
299.165
298.355
297.967
297.49
297.231
296.882
296.689
296.433
296.3
296.167
295.911
295.717
295.366
295.106
294.624
294.233
293.415
293.024
292.541
292.28
291.926
291.729
291.465
291.327
291.18
290.864
290.732
290.649
290.566
290.444
290.197
288.78
288.38
287.98
287.579
287.177
286.776
286.374
285.974
285.574
285.176
284.779
284.382
283.987
283.592
283.197
288.781
288.382
287.981
287.579
287.177
286.775
286.374
285.973
285.573
285.175
284.778
284.381
283.986
283.591
283.197
288.784
288.384
287.982
287.58
287.177
286.774
286.372
285.971
285.571
285.173
284.775
284.379
283.985
283.59
283.197
288.789
288.387
287.985
287.581
287.176
286.773
286.37
285.968
285.568
285.169
284.772
284.377
283.982
283.589
283.196
288.795
288.393
287.988
287.582
287.176
286.77
286.366
285.963
285.563
285.164
284.767
284.373
283.979
283.587
283.196
288.805
288.4
287.992
287.583
287.175
286.767
286.36
285.957
285.555
285.157
284.761
284.367
283.975
283.584
283.195
288.818
288.41
287.998
287.585
287.172
286.761
286.353
285.947
285.545
285.147
284.752
284.36
283.969
283.581
283.194
288.835
288.422
288.005
287.586
287.168
286.753
286.341
285.934
285.532
285.134
284.74
284.35
283.962
283.577
283.192
288.86
288.44
288.014
287.587
287.162
286.741
286.326
285.917
285.514
285.117
284.725
284.337
283.953
283.571
283.19
288.894
288.463
288.024
287.586
287.151
286.723
286.304
285.893
285.491
285.095
284.706
284.322
283.941
283.564
283.188
288.941
288.493
288.035
287.58
287.133
286.697
286.274
285.861
285.46
285.067
284.682
284.302
283.927
283.555
283.185
289.009
288.531
288.045
287.566
287.104
286.659
286.232
285.819
285.42
285.032
284.651
284.278
283.909
283.544
283.181
289.108
288.578
288.046
287.537
287.056
286.603
286.174
285.764
285.37
284.987
284.615
284.249
283.888
283.532
283.177
289.255
288.625
288.025
287.478
286.981
286.524
286.098
285.694
285.307
284.934
284.571
284.215
283.864
283.517
283.172
289.469
288.643
287.95
287.37
286.867
286.415
285.998
285.606
285.232
284.871
284.519
284.175
283.836
283.5
283.166
322.896
322.689
322.48
322.272
322.061
321.85
321.636
321.419
321.198
320.972
320.738
320.49
320.22
319.905
319.496
322.901
322.702
322.503
322.304
322.104
321.903
321.701
321.498
321.292
321.084
320.872
320.653
320.42
320.149
319.74
322.905
322.716
322.527
322.337
322.148
321.958
321.768
321.578
321.388
321.199
321.01
320.824
320.645
320.488
320.435
322.91
322.73
322.55
322.371
322.191
322.012
321.835
321.658
321.483
321.312
321.147
320.992
320.855
320.755
320.719
322.915
322.744
322.573
322.403
322.234
322.066
321.9
321.737
321.577
321.422
321.277
321.146
321.04
320.978
321.001
322.919
322.757
322.596
322.436
322.277
322.119
321.964
321.813
321.666
321.526
321.397
321.284
321.194
321.141
321.133
322.924
322.771
322.619
322.468
322.318
322.17
322.026
321.885
321.75
321.623
321.506
321.404
321.324
321.274
321.273
322.928
322.784
322.64
322.498
322.358
322.219
322.085
321.954
321.829
321.712
321.604
321.51
321.431
321.373
321.337
322.932
322.796
322.661
322.527
322.396
322.266
322.14
322.019
321.903
321.794
321.694
321.604
321.525
321.457
321.389
322.936
322.808
322.681
322.556
322.432
322.311
322.193
322.08
321.972
321.87
321.776
321.69
321.612
321.541
321.479
322.94
322.82
322.7
322.582
322.466
322.353
322.243
322.137
322.037
321.942
321.853
321.77
321.693
321.619
321.538
322.943
322.83
322.718
322.607
322.499
322.393
322.29
322.191
322.097
322.009
321.925
321.847
321.773
321.702
321.636
322.947
322.841
322.735
322.631
322.529
322.43
322.334
322.242
322.154
322.072
321.994
321.921
321.851
321.781
321.7
322.95
322.85
322.751
322.654
322.558
322.465
322.376
322.29
322.208
322.131
322.06
321.993
321.929
321.868
321.808
322.953
322.859
322.766
322.675
322.585
322.498
322.414
322.334
322.259
322.188
322.122
322.062
322.006
321.953
321.887
322.956
322.868
322.78
322.694
322.61
322.529
322.451
322.376
322.306
322.24
322.18
322.127
322.082
322.048
322.042
322.958
322.876
322.794
322.713
322.634
322.558
322.484
322.415
322.349
322.289
322.234
322.187
322.149
322.123
322.112
322.961
322.883
322.806
322.73
322.656
322.584
322.515
322.45
322.389
322.333
322.284
322.241
322.208
322.188
322.19
322.963
322.89
322.817
322.746
322.676
322.609
322.544
322.483
322.426
322.374
322.327
322.288
322.258
322.238
322.229
322.965
322.896
322.828
322.76
322.695
322.631
322.57
322.513
322.459
322.41
322.366
322.329
322.3
322.281
322.276
322.967
322.902
322.837
322.774
322.712
322.652
322.594
322.54
322.489
322.443
322.401
322.365
322.336
322.314
322.3
322.969
322.907
322.846
322.786
322.727
322.671
322.616
322.565
322.516
322.472
322.431
322.396
322.366
322.343
322.328
322.971
322.912
322.854
322.797
322.742
322.688
322.636
322.587
322.541
322.498
322.458
322.423
322.392
322.365
322.342
322.972
322.917
322.862
322.808
322.755
322.704
322.654
322.607
322.563
322.521
322.483
322.447
322.415
322.384
322.353
322.974
322.921
322.869
322.817
322.767
322.718
322.671
322.626
322.583
322.543
322.505
322.47
322.436
322.405
322.374
322.975
322.925
322.875
322.826
322.778
322.731
322.686
322.643
322.602
322.563
322.526
322.49
322.457
322.424
322.388
322.976
322.928
322.881
322.834
322.788
322.743
322.7
322.659
322.619
322.581
322.545
322.51
322.477
322.444
322.412
322.977
322.931
322.886
322.841
322.797
322.755
322.713
322.673
322.635
322.598
322.563
322.529
322.497
322.464
322.428
322.978
322.934
322.891
322.848
322.806
322.765
322.725
322.686
322.65
322.614
322.58
322.548
322.516
322.485
322.455
322.979
322.937
322.895
322.854
322.814
322.774
322.736
322.699
322.663
322.629
322.597
322.565
322.536
322.507
322.474
322.98
322.939
322.899
322.86
322.821
322.783
322.746
322.71
322.676
322.643
322.612
322.582
322.555
322.531
322.513
322.98
322.942
322.903
322.865
322.827
322.791
322.755
322.721
322.687
322.656
322.626
322.598
322.572
322.55
322.531
322.981
322.944
322.906
322.87
322.833
322.798
322.763
322.73
322.698
322.667
322.638
322.611
322.587
322.566
322.55
322.982
322.945
322.909
322.874
322.839
322.804
322.771
322.739
322.707
322.678
322.65
322.623
322.6
322.579
322.56
322.982
322.947
322.912
322.878
322.844
322.81
322.778
322.746
322.716
322.687
322.66
322.634
322.61
322.589
322.572
322.983
322.949
322.915
322.881
322.848
322.816
322.784
322.753
322.724
322.695
322.668
322.643
322.619
322.598
322.578
322.983
322.95
322.917
322.884
322.852
322.821
322.79
322.76
322.731
322.703
322.676
322.651
322.627
322.605
322.585
322.984
322.951
322.919
322.887
322.856
322.825
322.795
322.765
322.737
322.709
322.683
322.657
322.633
322.61
322.588
322.984
322.952
322.921
322.89
322.859
322.829
322.799
322.77
322.742
322.715
322.688
322.663
322.639
322.615
322.591
322.984
322.953
322.923
322.892
322.862
322.832
322.803
322.774
322.747
322.72
322.694
322.668
322.644
322.62
322.596
322.985
322.954
322.924
322.894
322.864
322.835
322.806
322.778
322.751
322.724
322.698
322.673
322.648
322.624
322.599
322.985
322.955
322.925
322.896
322.867
322.838
322.81
322.782
322.755
322.728
322.702
322.677
322.653
322.628
322.605
322.985
322.956
322.926
322.897
322.869
322.84
322.812
322.785
322.758
322.732
322.706
322.681
322.657
322.633
322.608
322.985
322.956
322.927
322.899
322.87
322.842
322.815
322.787
322.761
322.735
322.71
322.685
322.661
322.637
322.614
322.986
322.957
322.928
322.9
322.872
322.844
322.817
322.79
322.763
322.738
322.713
322.688
322.664
322.641
322.617
322.986
322.957
322.929
322.901
322.873
322.845
322.818
322.792
322.766
322.74
322.715
322.691
322.668
322.645
322.624
322.986
322.958
322.929
322.901
322.874
322.846
322.82
322.793
322.767
322.742
322.717
322.693
322.67
322.648
322.627
322.986
322.958
322.93
322.902
322.874
322.847
322.821
322.794
322.769
322.743
322.719
322.695
322.672
322.65
322.63
322.986
322.958
322.93
322.902
322.875
322.848
322.821
322.795
322.769
322.744
322.72
322.697
322.674
322.652
322.631
322.986
322.958
322.93
322.902
322.875
322.848
322.822
322.795
322.77
322.745
322.721
322.697
322.675
322.653
322.632
322.986
322.958
322.93
322.902
322.875
322.848
322.821
322.795
322.77
322.745
322.721
322.698
322.675
322.653
322.632
322.986
322.958
322.93
322.902
322.875
322.848
322.821
322.795
322.77
322.745
322.721
322.697
322.675
322.653
322.632
322.986
322.958
322.93
322.902
322.874
322.847
322.82
322.794
322.769
322.744
322.72
322.697
322.674
322.653
322.632
322.986
322.957
322.929
322.901
322.873
322.846
322.819
322.793
322.767
322.743
322.718
322.695
322.673
322.651
322.631
322.986
322.957
322.929
322.9
322.872
322.845
322.818
322.791
322.766
322.741
322.717
322.693
322.671
322.65
322.63
322.985
322.957
322.928
322.899
322.871
322.843
322.816
322.789
322.763
322.738
322.714
322.691
322.668
322.647
322.628
322.985
322.956
322.927
322.898
322.869
322.841
322.814
322.787
322.761
322.735
322.711
322.687
322.665
322.644
322.624
322.985
322.955
322.926
322.896
322.867
322.839
322.811
322.784
322.757
322.731
322.707
322.683
322.661
322.64
322.621
322.985
322.954
322.924
322.895
322.865
322.836
322.808
322.78
322.753
322.727
322.702
322.678
322.655
322.634
322.615
322.985
322.954
322.923
322.892
322.862
322.833
322.804
322.776
322.749
322.722
322.697
322.672
322.649
322.627
322.608
322.984
322.953
322.921
322.89
322.859
322.829
322.8
322.771
322.743
322.717
322.691
322.666
322.641
322.618
322.594
322.984
322.951
322.919
322.887
322.856
322.825
322.795
322.766
322.738
322.71
322.684
322.658
322.634
322.609
322.586
322.983
322.95
322.917
322.884
322.852
322.821
322.79
322.76
322.731
322.703
322.677
322.651
322.625
322.601
322.575
322.983
322.949
322.915
322.881
322.848
322.816
322.784
322.754
322.724
322.696
322.669
322.642
322.617
322.592
322.568
322.982
322.947
322.912
322.877
322.843
322.81
322.778
322.746
322.716
322.687
322.66
322.634
322.608
322.583
322.558
322.982
322.945
322.909
322.873
322.838
322.804
322.77
322.738
322.708
322.678
322.65
322.624
322.599
322.575
322.552
322.981
322.943
322.906
322.868
322.832
322.797
322.762
322.729
322.698
322.668
322.64
322.614
322.589
322.566
322.543
322.98
322.941
322.902
322.863
322.826
322.789
322.753
322.719
322.687
322.657
322.628
322.602
322.578
322.557
322.537
322.979
322.938
322.898
322.858
322.818
322.78
322.744
322.708
322.675
322.644
322.615
322.589
322.566
322.546
322.531
322.979
322.936
322.893
322.851
322.81
322.771
322.733
322.696
322.661
322.629
322.6
322.573
322.551
322.532
322.517
322.978
322.933
322.888
322.844
322.802
322.76
322.72
322.682
322.646
322.613
322.583
322.556
322.533
322.516
322.505
322.976
322.929
322.883
322.837
322.792
322.749
322.707
322.667
322.629
322.594
322.563
322.535
322.512
322.494
322.482
322.975
322.926
322.877
322.829
322.782
322.736
322.692
322.65
322.611
322.574
322.54
322.511
322.487
322.469
322.463
322.974
322.922
322.87
322.82
322.77
322.722
322.676
322.632
322.59
322.551
322.515
322.484
322.457
322.436
322.424
322.972
322.918
322.863
322.81
322.758
322.707
322.658
322.611
322.567
322.526
322.488
322.453
322.422
322.398
322.388
322.971
322.913
322.856
322.799
322.744
322.69
322.639
322.589
322.543
322.498
322.457
322.419
322.384
322.349
322.309
322.969
322.908
322.847
322.788
322.729
322.673
322.618
322.566
322.516
322.469
322.425
322.383
322.344
322.305
322.268
322.967
322.903
322.838
322.775
322.713
322.653
322.595
322.54
322.488
322.438
322.391
322.347
322.304
322.26
322.212
322.965
322.897
322.829
322.762
322.696
322.633
322.571
322.513
322.457
322.405
322.355
322.308
322.263
322.22
322.178
322.963
322.89
322.818
322.747
322.677
322.61
322.545
322.483
322.425
322.37
322.318
322.269
322.223
322.177
322.127
322.961
322.884
322.807
322.731
322.657
322.586
322.517
322.452
322.39
322.332
322.278
322.228
322.181
322.137
322.096
322.959
322.876
322.795
322.714
322.636
322.56
322.487
322.418
322.352
322.292
322.236
322.185
322.138
322.095
322.049
322.956
322.868
322.782
322.696
322.613
322.532
322.454
322.381
322.312
322.248
322.19
322.139
322.093
322.054
322.022
322.953
322.86
322.767
322.676
322.588
322.501
322.419
322.34
322.267
322.2
322.14
322.088
322.044
322.008
321.988
322.95
322.851
322.752
322.655
322.561
322.468
322.38
322.296
322.218
322.147
322.085
322.032
321.988
321.952
321.909
322.947
322.841
322.736
322.633
322.532
322.433
322.338
322.248
322.165
322.089
322.023
321.969
321.928
321.899
321.874
322.944
322.831
322.719
322.609
322.501
322.395
322.293
322.196
322.106
322.024
321.953
321.897
321.86
321.844
321.848
322.94
322.82
322.701
322.584
322.468
322.354
322.245
322.139
322.041
321.951
321.873
321.812
321.776
321.775
321.816
322.936
322.809
322.683
322.557
322.433
322.311
322.193
322.078
321.969
321.869
321.781
321.711
321.669
321.675
321.76
322.932
322.798
322.663
322.53
322.397
322.266
322.138
322.013
321.893
321.779
321.676
321.589
321.529
321.521
321.629
289.692
288.539
287.779
287.2
286.714
286.282
285.884
285.509
285.15
284.804
284.465
284.134
283.807
283.483
283.161
289.287
288.171
287.497
286.981
286.538
286.138
285.765
285.41
285.068
284.736
284.412
284.093
283.778
283.466
283.155
287.687
287.495
287.106
286.71
286.333
285.975
285.632
285.301
284.979
284.664
284.355
284.05
283.748
283.448
283.149
287.058
286.955
286.719
286.426
286.115
285.802
285.492
285.186
284.885
284.588
284.295
284.004
283.716
283.429
283.143
286.466
286.509
286.372
286.154
285.898
285.626
285.348
285.068
284.788
284.51
284.233
283.957
283.683
283.409
283.136
286.198
286.187
286.082
285.908
285.693
285.455
285.206
284.95
284.691
284.431
284.17
283.91
283.649
283.39
283.13
285.921
285.93
285.84
285.691
285.504
285.293
285.067
284.833
284.594
284.351
284.107
283.862
283.616
283.37
283.123
285.796
285.741
285.64
285.5
285.331
285.14
284.935
284.72
284.499
284.273
284.045
283.814
283.582
283.35
283.117
285.698
285.583
285.466
285.33
285.172
284.998
284.81
284.612
284.407
284.197
283.984
283.767
283.549
283.33
283.11
285.528
285.426
285.307
285.174
285.026
284.864
284.691
284.509
284.319
284.124
283.925
283.722
283.517
283.311
283.104
285.417
285.281
285.157
285.028
284.889
284.739
284.579
284.411
284.235
284.054
283.867
283.678
283.486
283.292
283.098
285.235
285.128
285.011
284.889
284.759
284.621
284.473
284.318
284.155
283.986
283.813
283.636
283.456
283.274
283.092
285.117
284.983
284.869
284.755
284.636
284.509
284.373
284.229
284.079
283.922
283.761
283.596
283.427
283.257
283.086
284.916
284.823
284.726
284.625
284.518
284.402
284.278
284.146
284.007
283.862
283.711
283.557
283.4
283.241
283.08
284.771
284.666
284.585
284.5
284.406
284.302
284.189
284.067
283.939
283.804
283.665
283.521
283.374
283.225
283.075
284.486
284.493
284.448
284.381
284.3
284.208
284.105
283.994
283.875
283.751
283.621
283.487
283.35
283.211
283.07
284.358
284.356
284.325
284.272
284.203
284.12
284.027
283.925
283.816
283.7
283.58
283.455
283.327
283.197
283.066
284.217
284.237
284.218
284.175
284.115
284.041
283.956
283.862
283.761
283.654
283.541
283.425
283.306
283.184
283.062
284.146
284.147
284.128
284.09
284.035
283.968
283.89
283.804
283.71
283.611
283.506
283.397
283.286
283.172
283.058
284.061
284.069
284.051
284.016
283.965
283.903
283.831
283.751
283.664
283.571
283.473
283.372
283.268
283.161
283.054
284.018
284.009
283.987
283.951
283.903
283.845
283.777
283.703
283.621
283.534
283.443
283.348
283.251
283.151
283.051
283.967
283.958
283.933
283.896
283.849
283.793
283.729
283.659
283.582
283.501
283.415
283.326
283.235
283.142
283.047
283.942
283.918
283.886
283.847
283.8
283.746
283.685
283.619
283.547
283.47
283.39
283.307
283.221
283.133
283.044
283.921
283.883
283.845
283.804
283.757
283.704
283.646
283.583
283.515
283.442
283.367
283.288
283.207
283.125
283.042
283.884
283.847
283.807
283.764
283.717
283.666
283.61
283.55
283.485
283.417
283.346
283.271
283.195
283.118
283.039
283.859
283.813
283.771
283.727
283.681
283.631
283.577
283.52
283.458
283.394
283.326
283.256
283.184
283.111
283.037
283.817
283.777
283.735
283.692
283.647
283.599
283.547
283.492
283.434
283.372
283.308
283.242
283.174
283.105
283.035
283.789
283.743
283.701
283.659
283.615
283.569
283.519
283.467
283.411
283.353
283.292
283.229
283.165
283.099
283.033
283.742
283.705
283.666
283.627
283.585
283.541
283.494
283.444
283.391
283.335
283.277
283.218
283.157
283.094
283.032
283.708
283.668
283.633
283.596
283.557
283.515
283.47
283.422
283.372
283.319
283.264
283.207
283.149
283.09
283.03
283.641
283.627
283.6
283.567
283.531
283.491
283.448
283.403
283.355
283.304
283.252
283.197
283.142
283.086
283.029
283.612
283.595
283.571
283.541
283.507
283.469
283.429
283.385
283.339
283.291
283.24
283.189
283.136
283.082
283.027
283.579
283.567
283.545
283.518
283.486
283.45
283.411
283.369
283.325
283.279
283.23
283.181
283.13
283.078
283.026
283.563
283.546
283.525
283.498
283.467
283.433
283.395
283.355
283.312
283.268
283.221
283.174
283.125
283.075
283.025
283.544
283.528
283.507
283.481
283.451
283.417
283.381
283.342
283.301
283.258
283.213
283.167
283.12
283.072
283.024
283.534
283.515
283.493
283.467
283.437
283.404
283.369
283.331
283.291
283.249
283.206
283.162
283.116
283.07
283.023
283.523
283.504
283.481
283.455
283.425
283.393