/*--------------------------------*- C++ -*----------------------------------*\
| =========                 |                                                 |
| \\      /  F ield         | OpenFOAM: The Open Source CFD Toolbox           |
|  \\    /   O peration     | Version:  5.x                                   |
|   \\  /    A nd           | Web:      www.OpenFOAM.org                      |
|    \\/     M anipulation  |                                                 |
\*---------------------------------------------------------------------------*/
FoamFile
{
    version     2.0;
    format      ascii;
    class       volScalarField;
    location    "10.5";
    object      gradTx;
}
// * * * * * * * * * * * * * * * * * * * * * * * * * * * * * * * * * * * * * //

dimensions      [0 -1 0 1 0 0 0];

internalField   nonuniform List<scalar> 
3200
(
45.2118
3.71169
1.64865
1.54011
0.81493
0.771345
0.466723
0.447268
0.293827
0.282721
0.170835
0.166692
0.180696
0.180846
0.173154
0.172312
0.15953
0.158413
0.144287
0.143104
0.128817
0.127647
0.113841
0.112746
0.100204
0.099317
0.0901404
0.0901339
0.0950616
0.164725
0.0824833
0.0552437
0.0534156
0.0416683
0.0408412
0.0332443
0.0326855
0.0269694
0.0265398
0.0219822
0.0216357
0.0178975
0.0176099
0.0144629
0.0142158
0.0114485
0.0112215
0.00855996
0.00832132
0.00519997
0.00506923
0.00506817
0.00502057
0.0039559
0.00384287
0.00219286
0.00202746
-0.000278479
-0.000515839
-0.00387289
-0.00423521
-0.00950096
-0.0101061
-0.0191786
-0.0203266
-0.0381864
-0.0408593
-0.0840592
-0.0929841
-0.238844
-0.617588
-0.436429
-0.681948
-0.713323
-1.26874
-1.24311
-0.0558186
-0.00753254
-0.0015261
-52.9454
47.8962
3.10508
1.57722
1.35445
0.77404
0.68099
0.436314
0.394715
0.271787
0.248194
0.160332
0.151487
0.160987
0.161195
0.155215
0.153442
0.143359
0.140994
0.129815
0.127309
0.115994
0.113514
0.102584
0.100265
0.0903585
0.0884946
0.0814216
0.0815716
0.0883536
0.137344
0.076585
0.0516046
0.0475336
0.0380022
0.0362285
0.0301721
0.0289836
0.0244437
0.0235318
0.0199156
0.0191802
0.0162148
0.0156047
0.013108
0.0125836
0.0103871
0.00990518
0.0077911
0.00728743
0.00485135
0.00457355
0.00452805
0.00442405
0.00358363
0.00334409
0.0020356
0.00168439
-0.000147967
-0.000652516
-0.0033238
-0.00409483
-0.00829252
-0.00958274
-0.0168404
-0.0192991
-0.0337015
-0.0394917
-0.0750801
-0.0950065
-0.227188
-0.517962
-0.415049
-0.602343
-0.666939
-1.08549
-1.03182
-0.121896
-0.0209064
-0.00438833
-54.7416
50.5639
2.57631
1.45359
1.18308
0.713656
0.596699
0.397783
0.345415
0.245773
0.216238
0.146669
0.135548
0.141649
0.141791
0.137109
0.134904
0.126879
0.123928
0.114997
0.111865
0.102818
0.09972
0.0909828
0.0880874
0.080191
0.0778806
0.0724138
0.072744
0.0799571
0.114354
0.0692553
0.0471291
0.04187
0.0340257
0.031787
0.0269051
0.0254158
0.021773
0.0206319
0.0177337
0.0168139
0.014438
0.0136748
0.0116742
0.0110182
0.00925718
0.0086541
0.00695781
0.00633081
0.00441638
0.00406857
0.00399026
0.00385699
0.00318733
0.00288806
0.00184003
0.00140056
-7.05747e-05
-0.000702531
-0.00285074
-0.00381739
-0.00720039
-0.00882071
-0.0146942
-0.0177938
-0.029561
-0.0369321
-0.0667275
-0.0925386
-0.209188
-0.434083
-0.382061
-0.527645
-0.606398
-0.92112
-0.854773
-0.155615
-0.0309015
-0.00673416
-56.5377
53.2109
2.11311
1.29587
1.01968
0.639173
0.515687
0.35339
0.298006
0.216956
0.185883
0.130667
0.118921
0.122549
0.12258
0.118903
0.116598
0.110196
0.107102
0.0999461
0.0966585
0.0894041
0.0861512
0.0791475
0.0761097
0.0698001
0.0673928
0.0631741
0.0636411
0.0704733
0.0945428
0.0610068
0.0419789
0.0363098
0.0298249
0.0274512
0.0235025
0.021934
0.0190021
0.0178023
0.0154726
0.0145058
0.0125966
0.0117945
0.0101866
0.00949701
0.00808089
0.00744674
0.00608174
0.00542568
0.00391874
0.0035528
0.00345465
0.00331136
0.00277619
0.00246197
0.00162011
0.00115798
-2.67577e-05
-0.000691903
-0.00242494
-0.0034433
-0.00617876
-0.00788855
-0.0126589
-0.0159418
-0.0255964
-0.0334755
-0.0585342
-0.0864372
-0.186859
-0.361281
-0.341169
-0.455621
-0.536417
-0.771995
-0.703041
-0.166357
-0.0368747
-0.00833433
-58.3335
55.8365
1.70403
1.1165
0.860451
0.554408
0.436228
0.30472
0.251623
0.186139
0.156494
0.112927
0.101678
0.103594
0.103518
0.100643
0.098457
0.0933808
0.0904374
0.0847406
0.0816103
0.07583
0.0727325
0.0671536
0.0642628
0.0592531
0.0569775
0.053747
0.0542835
0.0603
0.077036
0.0521779
0.0362943
0.0307821
0.0254596
0.0231783
0.0200046
0.0185068
0.016162
0.0150178
0.013157
0.0122354
0.0107109
0.0099463
0.0086623
0.00800487
0.00687329
0.0062686
0.0051773
0.00455457
0.00337545
0.00302631
0.00292084
0.00278141
0.00235621
0.00205698
0.00138499
0.000944302
-3.73156e-06
-0.000638566
-0.00202773
-0.00300054
-0.00519817
-0.00683398
-0.0106832
-0.0138349
-0.0217028
-0.0293317
-0.0502272
-0.0774351
-0.161569
-0.29626
-0.294894
-0.384943
-0.460246
-0.635052
-0.570018
-0.160811
-0.0388102
-0.00906582
-60.129
58.4419
1.33862
0.923876
0.70322
0.46213
0.357301
0.252913
0.205736
0.153888
0.127662
0.093894
0.0839092
0.0847179
0.0845673
0.0823547
0.0804313
0.0764802
0.0738833
0.0694325
0.0666682
0.0621486
0.0594129
0.0550521
0.0525007
0.0485966
0.0466003
0.0441691
0.0447067
0.0496978
0.061193
0.04299
0.0301948
0.0252469
0.0209727
0.0189412
0.0164396
0.0151135
0.0132738
0.012262
0.0108038
0.00998913
0.00879476
0.00811891
0.00711289
0.00653167
0.00564462
0.00510991
0.0042541
0.00370571
0.00279895
0.00249007
0.00238838
0.00226287
0.00193118
0.00166689
0.00114061
0.00075091
6.76057e-06
-0.000555062
-0.00164718
-0.00250878
-0.00424006
-0.00569088
-0.00873536
-0.0115394
-0.0178188
-0.0246573
-0.0416677
-0.066156
-0.134258
-0.236682
-0.244963
-0.314855
-0.380095
-0.507702
-0.450762
-0.143777
-0.0370555
-0.00890372
-61.9243
61.0296
1.00743
0.723488
0.546806
0.3644
0.278357
0.198818
0.160036
0.120613
0.0991313
0.0739097
0.0657083
0.0658803
0.0656994
0.0640551
0.0624867
0.0595256
0.0574034
0.054057
0.0517963
0.0483959
0.0461584
0.0428783
0.0407926
0.0378639
0.0362405
0.0344725
0.0349517
0.0388355
0.0465378
0.0335857
0.0237815
0.0196846
0.0163961
0.0147228
0.0128276
0.0117406
0.0103524
0.00952406
0.0084248
0.007758
0.00685789
0.0063047
0.00554647
0.0050707
0.00440183
0.00396406
0.00331859
0.00287118
0.00219852
0.00194553
0.00185687
0.00175258
0.00150345
0.00128728
0.000890767
0.000571691
9.95464e-06
-0.00045035
-0.00127585
-0.00198224
-0.00329317
-0.00448403
-0.00679714
-0.00910491
-0.0139124
-0.0195761
-0.0328091
-0.0531323
-0.105573
-0.180869
-0.192568
-0.244954
-0.297449
-0.387735
-0.341507
-0.118733
-0.032158
-0.00790579
-63.7193
63.6031
0.701902
0.518809
0.390622
0.262817
0.199152
0.143093
0.114362
0.0866202
0.0707503
0.0532446
0.0471725
0.0470569
0.0468899
0.0457524
0.0445978
0.0425373
0.0409724
0.038638
0.0369699
0.0345966
0.0329456
0.0306566
0.0291183
0.0270789
0.0258865
0.024686
0.0250605
0.0278203
0.0327088
0.0240555
0.0171397
0.0140901
0.0117548
0.0105133
0.00918329
0.00837981
0.00740867
0.00679691
0.00602852
0.00553619
0.00490712
0.00449869
0.00396875
0.00361744
0.00314979
0.0028265
0.00237516
0.00204565
0.00158131
0.00139441
0.00132597
0.00124807
0.00107439
0.000914868
0.000637819
0.000402173
9.08762e-06
-0.000331034
-0.000909295
-0.00143152
-0.00235108
-0.00323229
-0.00485913
-0.00657042
-0.00997172
-0.014192
-0.023667
-0.0388239
-0.0759749
-0.127601
-0.138545
-0.175048
-0.213291
-0.273228
-0.239315
-0.0882401
-0.0247676
-0.00619497
-65.514
66.1661
0.41417
0.311934
0.234422
0.158667
0.119644
0.0862748
0.0686481
0.0521525
0.0424348
0.0321221
0.0283984
0.0282355
0.0281192
0.0274504
0.0267451
0.0255292
0.0245722
0.0231923
0.0221718
0.0207684
0.0197582
0.0184049
0.017464
0.01626
0.0155328
0.0148365
0.0150738
0.0167201
0.0194214
0.0144558
0.0103434
0.00846689
0.00706979
0.00630729
0.00551788
0.0050257
0.00445054
0.00407603
0.00362119
0.00331984
0.00294753
0.00269753
0.00238387
0.00216883
0.00189197
0.00169407
0.00142684
0.0012255
0.00095299
0.00083855
0.000795454
0.000747393
0.000644766
0.000547159
0.000383211
0.00023895
6.09932e-06
-0.000202195
-0.00054498
-0.000864916
-0.00141052
-0.00195073
-0.00291775
-0.00396832
-0.00599832
-0.00859783
-0.0142975
-0.0236358
-0.0457974
-0.0759594
-0.0834993
-0.105073
-0.128266
-0.162475
-0.141809
-0.0542434
-0.0155813
-0.00394248
-67.3085
68.7228
0.136905
0.10407
0.0781515
0.0530486
0.0399086
0.0288269
0.0228889
0.0174135
0.0141431
0.0107361
0.00948194
0.0094122
0.00937069
0.00914993
0.00891283
0.00851082
0.00818895
0.00773229
0.00738899
0.00692446
0.00658464
0.00613672
0.00582025
0.00542206
0.0051778
0.00494962
0.00503081
0.00557758
0.00644072
0.00482201
0.00345754
0.00282453
0.00235937
0.00210237
0.00184058
0.0016749
0.00148437
0.00135835
0.00120772
0.00110632
0.000983031
0.000898914
0.000795044
0.000722686
0.000630993
0.000564397
0.000475893
0.000408206
0.000318348
0.000279834
0.000265131
0.000248895
0.000214937
0.0001821
0.000127814
7.9269e-05
2.12713e-06
-6.79783e-05
-0.000181581
-0.000289281
-0.000470188
-0.000652096
-0.000973024
-0.00132706
-0.00200214
-0.00287962
-0.00478249
-0.00793477
-0.0152999
-0.0252231
-0.0278927
-0.0350326
-0.0427999
-0.0539177
-0.0469798
-0.0182906
-0.00531395
-0.00135237
-69.1028
68.7146
0.150884
0.128426
0.107467
0.0852097
0.0726948
0.0607368
0.0533353
0.0448802
0.0387612
0.0310047
0.0281936
0.0283071
0.0282057
0.0273724
0.0264747
0.0249594
0.0237729
0.0221292
0.020936
0.01938
0.0182847
0.0168982
0.0159527
0.014808
0.0141315
0.0135418
0.0138403
0.0155202
0.0181079
0.0137304
0.0100728
0.00839337
0.00718208
0.00651571
0.00583704
0.0054039
0.00489961
0.00456131
0.00415008
0.00386873
0.00352027
0.00327823
0.00297324
0.0027559
0.00247325
0.00226051
0.0019667
0.00173081
0.0014082
0.00129542
0.0013133
0.00131514
0.00128244
0.00124387
0.00117606
0.0011219
0.00104553
0.000988847
0.000912894
0.000856053
0.000777923
0.00071241
0.000609266
0.000495176
0.000269168
-7.42124e-05
-0.000891345
-0.00242994
-0.00621607
-0.0117837
-0.0150679
-0.0220537
-0.0294886
-0.0404328
-0.0360466
-0.0140874
-0.0040975
-0.00104314
-69.8075
66.1412
0.456022
0.385217
0.322452
0.255239
0.218062
0.182028
0.160048
0.134547
0.116349
0.0928163
0.0844639
0.0849299
0.0846462
0.0821197
0.0794489
0.0748649
0.0713371
0.0663697
0.0628224
0.0581215
0.0548658
0.050677
0.0478661
0.0444052
0.0423909
0.0405899
0.0414657
0.0465242
0.0546022
0.0411625
0.0301394
0.0251614
0.0215245
0.0195476
0.0175013
0.0162145
0.0146922
0.0136868
0.0124451
0.0116089
0.0105565
0.00983722
0.00891621
0.00827033
0.00741696
0.00678476
0.00589779
0.00519591
0.00421623
0.00388104
0.00394054
0.00394679
0.00384755
0.00373279
0.00352764
0.0033666
0.00313581
0.00296731
0.00273792
0.00256901
0.00233327
0.00213874
0.00182824
0.00149001
0.000812201
-0.000203684
-0.00264517
-0.0071999
-0.0185769
-0.0354425
-0.0450557
-0.0661432
-0.0883254
-0.121912
-0.108843
-0.0417833
-0.0120151
-0.00304107
-69.4223
63.5605
0.771353
0.641687
0.537616
0.424068
0.363384
0.302758
0.266902
0.223922
0.19415
0.154021
0.140381
0.141583
0.141177
0.136873
0.1325
0.124728
0.118959
0.110553
0.104755
0.0968053
0.0914842
0.0844007
0.0798055
0.0739447
0.0706419
0.067531
0.0689238
0.0774074
0.0919573
0.068498
0.0499643
0.0418758
0.0358005
0.0325824
0.0291352
0.0270346
0.0244641
0.0228219
0.0207239
0.0193577
0.0175795
0.0164043
0.0148482
0.0137931
0.0123518
0.0113192
0.00982149
0.00867214
0.00699848
0.00645088
0.00656992
0.00658268
0.00641329
0.00622533
0.00587746
0.00561409
0.00522362
0.00494823
0.00456054
0.00428466
0.00388697
0.00356972
0.00304833
0.00249843
0.00136877
-0.00027612
-0.00431446
-0.011697
-0.0307182
-0.0593914
-0.0745845
-0.110189
-0.146706
-0.205257
-0.183798
-0.0679876
-0.0191009
-0.00477875
-69.0371
60.9677
1.10395
0.897133
0.753158
0.590781
0.508703
0.422496
0.37404
0.312768
0.272366
0.214165
0.195705
0.1983
0.197863
0.191629
0.185686
0.174512
0.166686
0.154633
0.146774
0.135384
0.128173
0.118025
0.111796
0.103382
0.0988853
0.094292
0.0960983
0.108048
0.130833
0.0956365
0.0693713
0.0585098
0.0499622
0.0456263
0.0407153
0.0378736
0.034199
0.0319751
0.0289734
0.0271231
0.0245784
0.0229867
0.0207602
0.0193313
0.0172704
0.0158723
0.0137313
0.0121694
0.00973571
0.00899407
0.00920358
0.00922588
0.0089798
0.0087243
0.00822393
0.0078667
0.00730684
0.00693366
0.00637871
0.0060052
0.00543748
0.00500888
0.00426959
0.00353006
0.00194596
-0.000252798
-0.00584995
-0.0157284
-0.0424734
-0.0838794
-0.103297
-0.154198
-0.204205
-0.291802
-0.262528
-0.091515
-0.0248041
-0.00609881
-68.6517
58.3584
1.4613
1.15007
0.969437
0.754283
0.654188
0.540724
0.481691
0.40078
0.351293
0.272721
0.250187
0.255138
0.254781
0.246373
0.239082
0.224161
0.214582
0.198545
0.188934
0.173796
0.16498
0.151492
0.143873
0.132662
0.127133
0.120797
0.122867
0.138256
0.172028
0.122418
0.0881624
0.0750513
0.0639556
0.0586933
0.0522127
0.0487459
0.0438759
0.0411596
0.037177
0.0349163
0.0315393
0.0295944
0.0266403
0.0248949
0.0221625
0.0204552
0.0176179
0.0157015
0.0124053
0.0114993
0.0118448
0.0118799
0.0115467
0.0112331
0.0105647
0.0101274
0.00938262
0.00892639
0.00818965
0.00773353
0.00698245
0.00646049
0.00549087
0.00459551
0.00254777
-9.35126e-05
-0.00721416
-0.0190852
-0.0536421
-0.109247
-0.13075
-0.198242
-0.260201
-0.383022
-0.346927
-0.11087
-0.0285871
-0.00686915
-68.2662
55.7288
1.85141
1.39777
1.1871
0.913183
0.800207
0.656776
0.590218
0.487535
0.431384
0.329034
0.30357
0.312189
0.312021
0.301073
0.292783
0.273597
0.262737
0.242199
0.231315
0.211954
0.201973
0.184725
0.176094
0.161716
0.155412
0.146966
0.149103
0.167728
0.216558
0.148585
0.106108
0.0915122
0.0777157
0.0718092
0.0635897
0.0596744
0.0534667
0.0503948
0.0453117
0.0427542
0.0384429
0.0362427
0.0324722
0.030498
0.0270137
0.0250833
0.0214678
0.0192889
0.0149793
0.0139544
0.0144984
0.0145486
0.0141129
0.0137561
0.0128963
0.0124005
0.0114469
0.0109304
0.0099894
0.0094737
0.00851829
0.00793004
0.00670922
0.00570707
0.00317335
0.000244984
-0.00838831
-0.0215345
-0.0639688
-0.135978
-0.156363
-0.242508
-0.313762
-0.480599
-0.439325
-0.124074
-0.0299474
-0.00699477
-67.8804
53.076
2.28287
1.63576
1.40729
1.06564
0.947444
0.769752
0.700189
0.572429
0.513323
0.382272
0.355589
0.369591
0.369693
0.355666
0.346921
0.322699
0.311279
0.285468
0.274035
0.249738
0.239257
0.217614
0.208546
0.190446
0.183778
0.172712
0.17468
0.195992
0.265761
0.173733
0.122938
0.107941
0.0911604
0.0850177
0.0747946
0.0706948
0.0629322
0.0597106
0.0533455
0.0506623
0.0452622
0.0429538
0.0382323
0.0361615
0.0318028
0.0297789
0.0252603
0.0229615
0.017422
0.0163469
0.0171718
0.0172368
0.016676
0.0162993
0.0152133
0.014692
0.0134937
0.0129514
0.0117722
0.0112315
0.0100395
0.00942494
0.00791887
0.00687995
0.00381476
0.000811721
-0.00938189
-0.0228122
-0.0731124
-0.164775
-0.179345
-0.28737
-0.363499
-0.586499
-0.542682
-0.128433
-0.0284608
-0.00643092
-67.4943
50.3985
2.76484
1.85701
1.632
1.20917
1.09706
0.878403
0.812488
0.654576
0.59814
0.431336
0.405981
0.42755
0.427929
0.410049
0.401677
0.37129
0.360397
0.328162
0.317271
0.286969
0.276988
0.249999
0.241358
0.21872
0.212319
0.197936
0.199484
0.222318
0.321436
0.197232
0.138336
0.124442
0.10418
0.0983895
0.0857546
0.0818618
0.0722162
0.0691522
0.0612322
0.0586793
0.051958
0.0497616
0.0438864
0.0419167
0.0364986
0.0345744
0.0289641
0.0267639
0.0196862
0.0186634
0.0198757
0.0199501
0.0192317
0.0188709
0.0175079
0.0170105
0.0155144
0.0149979
0.0135295
0.0130154
0.0115376
0.0109555
0.00910987
0.00813392
0.00445374
0.00166613
-0.0102459
-0.022615
-0.0806014
-0.196654
-0.19859
-0.333507
-0.407361
-0.703073
-0.660855
-0.120222
-0.0238564
-0.00519659
-67.1081
47.6974
3.30683
2.05094
1.86463
1.34026
1.25094
0.980944
0.928467
0.732664
0.687371
0.474742
0.454495
0.486356
0.486897
0.464051
0.457314
0.419102
0.410369
0.370002
0.361282
0.323388
0.3154
0.281651
0.274731
0.246344
0.24118
0.222524
0.223436
0.245593
0.386044
0.218118
0.151935
0.141198
0.11662
0.112035
0.0963652
0.093259
0.0812371
0.0787882
0.0689044
0.0668631
0.0584728
0.0567166
0.0493844
0.04781
0.0410547
0.0395174
0.0325316
0.0307614
0.0217082
0.0208905
0.0226252
0.0226952
0.0217733
0.0214827
0.0197679
0.0193691
0.0174959
0.0170826
0.0152487
0.0148379
0.013
0.0125368
0.0102661
0.00949611
0.00505706
0.00288559
-0.0110917
-0.020593
-0.0857675
-0.233098
-0.212514
-0.382086
-0.442349
-0.833163
-0.798965
-0.0942388
-0.0161438
-0.00338658
-66.7217
44.977
3.91824
2.20209
2.11078
1.45396
1.41205
1.07478
1.05018
0.804732
0.783296
0.510452
0.500926
0.546415
0.546799
0.517409
0.51421
0.465734
0.461606
0.410576
0.406461
0.35861
0.354842
0.31223
0.308963
0.273039
0.270581
0.246329
0.246538
0.264136
0.462988
0.234935
0.163316
0.158507
0.128261
0.126125
0.106473
0.105013
0.0898752
0.0887217
0.0762629
0.075301
0.0647224
0.0638948
0.0546523
0.0539106
0.0454022
0.0446785
0.0358905
0.0350504
0.0234009
0.0230156
0.0254413
0.0254801
0.0242896
0.0241516
0.0219753
0.0217868
0.0194192
0.0192242
0.016911
0.0167176
0.0144074
0.0141903
0.0113625
0.0110051
0.00556975
0.00457734
-0.0121163
-0.016344
-0.0876473
-0.276259
-0.218833
-0.435038
-0.464115
-0.980254
-0.963896
-0.0431907
-0.00581771
-0.00117777
-66.3352
44.977
3.91824
2.20209
2.11078
1.45396
1.41205
1.07478
1.05018
0.804732
0.783296
0.510452
0.500926
0.546415
0.546799
0.517409
0.51421
0.465734
0.461606
0.410577
0.406461
0.35861
0.354842
0.31223
0.308963
0.273039
0.270581
0.246329
0.246539
0.264137
0.462989
0.234936
0.163317
0.158507
0.128262
0.126125
0.106474
0.105013
0.0898755
0.088722
0.0762632
0.0753012
0.0647227
0.063895
0.0546525
0.0539108
0.0454024
0.0446786
0.0358906
0.0350505
0.023401
0.0230157
0.0254414
0.0254802
0.0242897
0.0241517
0.0219754
0.0217869
0.0194193
0.0192243
0.0169111
0.0167177
0.0144076
0.0141904
0.0113626
0.0110052
0.00556986
0.00457744
-0.0121162
-0.0163439
-0.0876471
-0.276258
-0.218832
-0.435037
-0.464114
-0.980253
-0.963896
-0.0431907
-0.0058177
-0.00117779
-66.3352
47.6973
3.30683
2.05094
1.86463
1.34026
1.25094
0.980944
0.928467
0.732664
0.687371
0.474742
0.454495
0.486356
0.486897
0.464051
0.457314
0.419102
0.410369
0.370002
0.361283
0.323388
0.3154
0.281651
0.274732
0.246344
0.241181
0.222524
0.223436
0.245593
0.386045
0.218119
0.151935
0.141198
0.116621
0.112036
0.0963655
0.0932593
0.0812374
0.0787884
0.0689046
0.0668633
0.058473
0.0567168
0.0493846
0.0478102
0.0410549
0.0395176
0.0325317
0.0307615
0.0217083
0.0208906
0.0226253
0.0226953
0.0217734
0.0214828
0.019768
0.0193693
0.0174961
0.0170827
0.0152488
0.014838
0.0130001
0.0125369
0.0102662
0.00949621
0.00505717
0.00288569
-0.0110915
-0.0205929
-0.0857673
-0.233098
-0.212514
-0.382086
-0.442349
-0.833163
-0.798965
-0.0942387
-0.0161438
-0.00338659
-66.7217
50.3985
2.76484
1.85701
1.632
1.20917
1.09706
0.878403
0.812488
0.654576
0.59814
0.431336
0.405981
0.42755
0.427929
0.410049
0.401677
0.37129
0.360397
0.328162
0.317271
0.286969
0.276988
0.249999
0.241359
0.21872
0.21232
0.197937
0.199484
0.222318
0.321437
0.197232
0.138337
0.124442
0.10418
0.0983898
0.0857549
0.081862
0.0722165
0.0691524
0.0612324
0.0586795
0.0519581
0.0497618
0.0438866
0.0419169
0.0364987
0.0345745
0.0289642
0.026764
0.0196862
0.0186634
0.0198758
0.0199502
0.0192318
0.018871
0.017508
0.0170106
0.0155145
0.014998
0.0135296
0.0130155
0.0115377
0.0109556
0.00910996
0.00813401
0.00445383
0.00166623
-0.0102458
-0.0226149
-0.0806012
-0.196654
-0.198589
-0.333506
-0.407361
-0.703072
-0.660855
-0.120221
-0.0238564
-0.00519657
-67.1081
53.0759
2.28287
1.63576
1.40728
1.06564
0.947444
0.769752
0.700189
0.572429
0.513323
0.382272
0.355589
0.369591
0.369693
0.355667
0.346921
0.3227
0.31128
0.285468
0.274036
0.249738
0.239258
0.217614
0.208546
0.190447
0.183778
0.172712
0.174681
0.195992
0.265762
0.173733
0.122938
0.107942
0.0911607
0.0850179
0.0747948
0.070695
0.0629324
0.0597108
0.0533457
0.0506625
0.0452624
0.042954
0.0382324
0.0361617
0.0318029
0.0297791
0.0252604
0.0229616
0.0174221
0.0163469
0.0171719
0.0172369
0.016676
0.0162994
0.0152134
0.0146921
0.0134938
0.0129515
0.0117723
0.0112316
0.0100396
0.00942502
0.00791895
0.00688003
0.00381484
0.0008118
-0.00938181
-0.0228121
-0.0731123
-0.164774
-0.179345
-0.287369
-0.363499
-0.586499
-0.542681
-0.128433
-0.0284607
-0.00643086
-67.4943
55.7288
1.85141
1.39777
1.1871
0.913182
0.800207
0.656775
0.590217
0.487535
0.431384
0.329034
0.30357
0.312189
0.312021
0.301073
0.292783
0.273597
0.262737
0.2422
0.231315
0.211954
0.201973
0.184726
0.176095
0.161716
0.155412
0.146966
0.149104
0.167728
0.216559
0.148586
0.106108
0.0915125
0.077716
0.0718094
0.0635899
0.0596746
0.0534669
0.050395
0.0453119
0.0427543
0.0384431
0.0362428
0.0324723
0.0304981
0.0270138
0.0250834
0.0214679
0.019289
0.0149794
0.0139545
0.0144984
0.0145487
0.014113
0.0137562
0.0128964
0.0124006
0.011447
0.0109304
0.00998947
0.00947377
0.00851836
0.00793011
0.00670929
0.00570714
0.00317342
0.000245047
-0.00838824
-0.0215344
-0.0639687
-0.135978
-0.156363
-0.242508
-0.313761
-0.480598
-0.439325
-0.124074
-0.0299473
-0.00699469
-67.8804
58.3584
1.4613
1.15007
0.969437
0.754283
0.654188
0.540724
0.481691
0.40078
0.351293
0.272721
0.250187
0.255138
0.254781
0.246373
0.239082
0.224161
0.214583
0.198545
0.188934
0.173796
0.16498
0.151493
0.143873
0.132663
0.127133
0.120797
0.122867
0.138256
0.172028
0.122418
0.0881626
0.0750515
0.0639558
0.0586935
0.0522129
0.0487461
0.043876
0.0411598
0.0371771
0.0349164
0.0315394
0.0295946
0.0266404
0.024895
0.0221626
0.0204553
0.017618
0.0157016
0.0124054
0.0114993
0.0118448
0.0118799
0.0115468
0.0112331
0.0105648
0.0101275
0.00938268
0.00892645
0.00818971
0.00773359
0.00698251
0.00646055
0.00549093
0.00459556
0.00254782
-9.34633e-05
-0.00721411
-0.0190852
-0.0536421
-0.109247
-0.130749
-0.198242
-0.2602
-0.383022
-0.346927
-0.11087
-0.028587
-0.00686905
-68.2662
60.9677
1.10395
0.897133
0.753158
0.590781
0.508703
0.422496
0.37404
0.312768
0.272366
0.214165
0.195705
0.1983
0.197863
0.191629
0.185686
0.174512
0.166686
0.154633
0.146774
0.135384
0.128173
0.118025
0.111796
0.103382
0.0988854
0.0942921
0.0960984
0.108048
0.130833
0.0956368
0.0693715
0.05851
0.0499624
0.0456264
0.0407154
0.0378737
0.0341991
0.0319753
0.0289735
0.0271232
0.0245785
0.0229867
0.0207603
0.0193314
0.0172705
0.0158724
0.0137313
0.0121694
0.00973575
0.0089941
0.00920361
0.00922592
0.00897984
0.00872434
0.00822398
0.00786675
0.00730688
0.0069337
0.00637875
0.00600524
0.00543752
0.00500892
0.00426963
0.0035301
0.001946
-0.000252762
-0.00584992
-0.0157284
-0.0424734
-0.0838793
-0.103297
-0.154198
-0.204205
-0.291802
-0.262528
-0.0915148
-0.024804
-0.00609871
-68.6517
63.5605
0.771351
0.641687
0.537616
0.424068
0.363384
0.302758
0.266902
0.223922
0.19415
0.154021
0.140381
0.141583
0.141177
0.136873
0.1325
0.124728
0.118959
0.110553
0.104755
0.0968053
0.0914842
0.0844007
0.0798056
0.0739447
0.070642
0.0675311
0.0689239
0.0774075
0.0919575
0.0684982
0.0499644
0.0418759
0.0358006
0.0325825
0.0291353
0.0270347
0.0244642
0.0228219
0.0207239
0.0193578
0.0175796
0.0164044
0.0148483
0.0137931
0.0123519
0.0113193
0.00982153
0.00867218
0.00699851
0.0064509
0.00656994
0.00658271
0.00641332
0.00622536
0.0058775
0.00561413
0.00522365
0.00494826
0.00456057
0.00428469
0.003887
0.00356974
0.00304836
0.00249846
0.00136879
-0.000276096
-0.00431444
-0.0116969
-0.0307182
-0.0593913
-0.0745844
-0.110189
-0.146706
-0.205257
-0.183798
-0.0679875
-0.0191008
-0.00477866
-69.0371
66.1412
0.456021
0.385217
0.322452
0.255239
0.218062
0.182028
0.160048
0.134547
0.116349
0.0928163
0.0844639
0.0849299
0.0846462
0.0821197
0.0794489
0.0748649
0.0713371
0.0663698
0.0628225
0.0581216
0.0548658
0.050677
0.0478661
0.0444053
0.042391
0.04059
0.0414657
0.0465242
0.0546023
0.0411626
0.0301395
0.0251615
0.0215245
0.0195477
0.0175014
0.0162146
0.0146922
0.0136869
0.0124451
0.0116089
0.0105566
0.00983726
0.00891624
0.00827036
0.00741699
0.00678479
0.00589781
0.00519594
0.00421624
0.00388105
0.00394055
0.00394681
0.00384756
0.0037328
0.00352766
0.00336662
0.00313583
0.00296733
0.00273794
0.00256903
0.00233328
0.00213876
0.00182826
0.00149002
0.000812216
-0.000203671
-0.00264516
-0.0071999
-0.0185769
-0.0354425
-0.0450557
-0.0661431
-0.0883253
-0.121912
-0.108843
-0.0417833
-0.012015
-0.003041
-69.4223
68.7146
0.150884
0.128426
0.107467
0.0852097
0.0726948
0.0607368
0.0533353
0.0448802
0.0387612
0.0310047
0.0281936
0.0283071
0.0282057
0.0273724
0.0264747
0.0249594
0.0237729
0.0221293
0.020936
0.01938
0.0182847
0.0168982
0.0159527
0.014808
0.0141315
0.0135418
0.0138403
0.0155202
0.0181079
0.0137305
0.0100729
0.0083934
0.0071821
0.00651573
0.00583706
0.00540391
0.00489963
0.00456132
0.0041501
0.00386875
0.00352028
0.00327824
0.00297325
0.00275591
0.00247326
0.00226051
0.00196671
0.00173082
0.00140821
0.00129542
0.0013133
0.00131514
0.00128244
0.00124388
0.00117607
0.00112191
0.00104554
0.000988853
0.0009129
0.000856059
0.000777928
0.000712415
0.000609272
0.000495181
0.000269172
-7.42088e-05
-0.000891342
-0.00242994
-0.00621607
-0.0117837
-0.0150679
-0.0220537
-0.0294886
-0.0404328
-0.0360466
-0.0140873
-0.00409749
-0.00104311
-69.8075
68.7223
0.136737
0.103792
0.0777581
0.0524413
0.0390528
0.0275024
0.021089
0.0150022
0.0125848
0.011923
0.011573
0.0110198
0.0105817
0.00996778
0.00952179
0.0089394
0.00852134
0.00797804
0.00758702
0.00707735
0.00671189
0.00623867
0.00590747
0.00549432
0.00524146
0.00500503
0.00508338
0.00563147
0.00650012
0.00486495
0.00348692
0.00284769
0.00237807
0.00211867
0.00185454
0.00168743
0.00149531
0.00136826
0.00121644
0.00111425
0.000990021
0.000905275
0.000800645
0.000727766
0.000635427
0.00056837
0.000479262
0.000411118
0.000320661
0.00028192
0.000267201
0.000250937
0.000216888
0.000183964
0.000129537
8.08862e-05
3.60055e-06
-6.66075e-05
-0.000180342
-0.000288133
-0.000469155
-0.000651142
-0.000972167
-0.00132626
-0.00200143
-0.00287895
-0.00478188
-0.00793417
-0.0152993
-0.0252224
-0.0278922
-0.0350322
-0.0427997
-0.0539175
-0.0469797
-0.0182906
-0.00531393
-0.00135232
-69.1028
66.1649
0.413667
0.3111
0.233246
0.156847
0.117085
0.0823016
0.0632539
0.0448598
0.0376843
0.0357565
0.0347271
0.0330548
0.0317521
0.0298966
0.0285708
0.0268116
0.025569
0.023928
0.0227658
0.0212263
0.02014
0.0187103
0.0177257
0.0164765
0.0157237
0.0150025
0.0152314
0.0168816
0.0196005
0.0145845
0.0104312
0.00853629
0.0071258
0.00635619
0.00555974
0.0050633
0.00448333
0.00410577
0.00364733
0.00334363
0.00296848
0.00271662
0.00240066
0.00218408
0.00190527
0.00170599
0.00143695
0.00123425
0.000959914
0.000844799
0.000801663
0.000753522
0.000650618
0.00055275
0.00038838
0.000243803
1.0518e-05
-0.000198082
-0.000541264
-0.000861472
-0.00140743
-0.00194787
-0.00291518
-0.00396595
-0.00599618
-0.00859584
-0.0142957
-0.023634
-0.0457955
-0.0759573
-0.0834977
-0.105072
-0.128265
-0.162475
-0.141809
-0.0542432
-0.0155812
-0.00394237
-67.3085
63.601
0.701067
0.517419
0.388675
0.259787
0.194918
0.136471
0.105393
0.0742687
0.0625739
0.0595541
0.057907
0.0550751
0.0529446
0.0498043
0.0476372
0.0446632
0.0426327
0.0398589
0.0379597
0.0353571
0.0335818
0.0311642
0.0295545
0.0274389
0.0262047
0.0249619
0.0253225
0.0280889
0.0330103
0.0242696
0.0172852
0.0142055
0.0118479
0.0105948
0.00925293
0.0084425
0.00746326
0.00684651
0.00607202
0.00557586
0.00494201
0.00453052
0.0039967
0.00364287
0.00317193
0.0028464
0.00239197
0.00206024
0.0015928
0.0014048
0.00133632
0.0012583
0.00108415
0.000924195
0.00064643
0.000410267
1.64465e-05
-0.000324174
-0.000903106
-0.00142578
-0.00234592
-0.00322751
-0.00485485
-0.00656646
-0.00996816
-0.0141887
-0.0236639
-0.0388209
-0.0759717
-0.127597
-0.138542
-0.175046
-0.21329
-0.273227
-0.239314
-0.0882398
-0.0247675
-0.00619481
-65.5139
61.0267
1.00627
0.721542
0.54411
0.360166
0.272494
0.189547
0.147533
0.1029
0.0871164
0.0832967
0.0811342
0.0770673
0.0741775
0.069673
0.0667359
0.062477
0.059726
0.0557547
0.0531817
0.0494548
0.0470493
0.0435857
0.0414035
0.038366
0.0366861
0.0348573
0.0353173
0.0392101
0.0469665
0.0338845
0.0239829
0.0198458
0.0165258
0.0148369
0.0129249
0.0118284
0.0104287
0.00959355
0.00848557
0.00781358
0.00690663
0.00634932
0.00558554
0.00510634
0.00443276
0.00399196
0.00334209
0.00289165
0.0022145
0.00196001
0.00187136
0.00176691
0.0015171
0.00130035
0.000902812
0.000583034
2.02442e-05
-0.000440737
-0.0012672
-0.00197419
-0.00328596
-0.00447734
-0.00679115
-0.00909936
-0.0139074
-0.0195714
-0.0328049
-0.0531281
-0.105569
-0.180864
-0.192564
-0.244951
-0.297447
-0.387734
-0.341506
-0.118732
-0.0321579
-0.00790561
-63.7192
58.4382
1.33713
0.921373
0.699805
0.456694
0.349881
0.240984
0.189778
0.130378
0.11118
0.106973
0.104438
0.0990124
0.0954749
0.089479
0.0858874
0.0802305
0.0768682
0.0715946
0.0684498
0.0634996
0.0605591
0.055956
0.0532867
0.0492388
0.0471733
0.044661
0.0451749
0.0501767
0.0617563
0.043372
0.03045
0.0254535
0.0211384
0.019088
0.0165641
0.0152265
0.0133715
0.0123515
0.0108817
0.0100607
0.00885725
0.00817635
0.00716298
0.00657758
0.00568427
0.00514587
0.00428422
0.00373212
0.00281928
0.00250858
0.00240703
0.00228133
0.00194873
0.00168373
0.00115608
0.000765518
1.99656e-05
-0.000542684
-0.00163608
-0.00249842
-0.00423081
-0.00568226
-0.00872768
-0.0115323
-0.0178124
-0.0246514
-0.0416623
-0.0661506
-0.134252
-0.236675
-0.244958
-0.314852
-0.380092
-0.507701
-0.45076
-0.143777
-0.0370554
-0.00890354
-61.9243
55.832
1.70223
1.11344
0.856362
0.547771
0.427352
0.290114
0.232351
0.156248
0.134645
0.130583
0.127857
0.120882
0.116871
0.109189
0.105122
0.0978921
0.0940868
0.0873494
0.0837901
0.077464
0.0741354
0.0682489
0.065225
0.0600323
0.0576785
0.0543437
0.0548529
0.0608801
0.0777445
0.0526411
0.0366001
0.0310338
0.0256604
0.0233579
0.020156
0.0186453
0.0162809
0.0151274
0.0132518
0.0123231
0.010787
0.0100167
0.00872328
0.00806112
0.00692158
0.0063127
0.00521396
0.00458702
0.00339998
0.00304878
0.00294365
0.00280403
0.00237765
0.00207761
0.00140386
0.000962195
1.23658e-05
-0.000623405
-0.0020142
-0.00298784
-0.0051869
-0.00682343
-0.0106739
-0.0138262
-0.021695
-0.0293244
-0.0502206
-0.0774285
-0.161562
-0.296251
-0.294888
-0.384939
-0.460243
-0.63505
-0.570016
-0.160811
-0.0388101
-0.00906566
-60.129
53.2057
2.11102
1.29223
1.01498
0.63132
0.505495
0.336065
0.275658
0.179938
0.157407
0.154139
0.151445
0.142633
0.138413
0.128754
0.124482
0.115417
0.111423
0.102977
0.0992411
0.0913085
0.087814
0.0804273
0.0772501