/*--------------------------------*- C++ -*----------------------------------*\
| =========                 |                                                 |
| \\      /  F ield         | OpenFOAM: The Open Source CFD Toolbox           |
|  \\    /   O peration     | Version:  5.x                                   |
|   \\  /    A nd           | Web:      www.OpenFOAM.org                      |
|    \\/     M anipulation  |                                                 |
\*---------------------------------------------------------------------------*/
FoamFile
{
    version     2.0;
    format      ascii;
    class       volScalarField;
    location    "10.5";
    object      gradTy;
}
// * * * * * * * * * * * * * * * * * * * * * * * * * * * * * * * * * * * * * //

dimensions      [0 -1 0 1 0 0 0];

internalField   nonuniform List<scalar> 
3200
(
18.2483
8.63556
11.7295
8.31217
9.74952
8.03959
8.79376
7.79254
8.24143
7.60061
7.87601
7.51713
7.72759
7.31726
7.52951
7.13925
7.33842
6.97988
7.16163
6.83775
7.00106
6.71215
6.85721
6.60212
6.73011
6.506
6.62023
6.42065
6.5356
6.36652
6.23142
6.31854
6.20011
6.25774
6.16564
6.21026
6.13633
6.17221
6.11213
6.14131
6.09231
6.11608
6.07618
6.09545
6.06321
6.07863
6.0531
6.06498
6.0459
6.05407
6.04302
6.04914
6.03761
6.04297
6.03407
6.03768
6.0328
6.03382
6.03452
6.03183
6.04061
6.03225
6.05363
6.03579
6.07859
6.04273
6.12648
6.0483
6.22313
6.00069
6.29312
7.10895
6.42159
7.94785
6.78063
9.89665
9.12594
9.00808
8.98375
8.97851
17.0088
9.75148
11.3319
8.77616
9.54678
8.26979
8.67355
7.92509
8.16428
7.68482
7.83187
7.56399
7.67615
7.36875
7.48088
7.18853
7.29383
7.02528
7.12141
6.87882
6.96522
6.74883
6.82558
6.63454
6.70229
6.53447
6.59511
6.44584
6.50816
6.37032
6.2563
6.30418
6.21573
6.24645
6.17751
6.20118
6.14582
6.16483
6.11984
6.13529
6.09859
6.11118
6.0813
6.0915
6.06735
6.07552
6.0564
6.06268
6.04839
6.05273
6.04447
6.04772
6.03908
6.04191
6.03524
6.03713
6.03347
6.034
6.03451
6.03306
6.03962
6.03515
6.05113
6.04158
6.07355
6.05424
6.11667
6.07388
6.20333
6.07611
6.35161
6.99363
6.62345
7.76515
7.15808
9.50327
9.09978
9.00429
8.98293
8.97825
16.0595
10.5138
11.0997
9.10704
9.42588
8.4327
8.59937
8.01808
8.11582
7.74392
7.80427
7.5956
7.64144
7.40341
7.44837
7.22185
7.26415
7.05603
7.09469
6.90669
6.94144
6.77374
6.80462
6.65655
6.68384
6.55376
6.57833
6.46252
6.48868
6.37312
6.27467
6.29523
6.22655
6.23911
6.18566
6.19523
6.15231
6.15998
6.1251
6.13133
6.10289
6.10796
6.0848
6.08891
6.07019
6.07348
6.05866
6.06118
6.05011
6.05187
6.04545
6.04677
6.04008
6.04121
6.03604
6.0368
6.03397
6.03416
6.03457
6.03397
6.03907
6.03723
6.04964
6.0457
6.07054
6.06248
6.11107
6.09256
6.1938
6.13541
6.39544
6.91882
6.76484
7.65242
7.41745
9.21989
9.06134
8.99758
8.9815
8.97785
15.3321
11.0309
10.9706
9.34545
9.35747
8.54922
8.55511
8.0839
8.08615
7.78573
7.78743
7.61702
7.61808
7.42674
7.42671
7.24441
7.24448
7.07692
7.07703
6.92564
6.92575
6.7907
6.79082
6.67156
6.67169
6.56687
6.56718
6.47353
6.47487
6.37525
6.28829
6.28986
6.23411
6.23442
6.19128
6.19138
6.15678
6.15683
6.12872
6.12876
6.10584
6.10587
6.0872
6.08723
6.07214
6.07216
6.06023
6.06023
6.05132
6.05135
6.04612
6.04614
6.04077
6.04076
6.03662
6.03661
6.03434
6.03432
6.03467
6.03464
6.03879
6.03873
6.0488
6.04866
6.06886
6.06846
6.10815
6.10646
6.19065
6.18198
6.42874
6.87109
6.86458
7.5846
7.59533
9.01494
9.01911
8.98896
8.97957
8.9773
14.7766
11.3783
10.9042
9.51838
9.32186
8.63317
8.52993
8.13078
8.06858
7.81545
7.77748
7.63158
7.60242
7.44242
7.41235
7.25968
7.23152
7.0911
7.06543
6.93854
6.91548
6.80226
6.78178
6.68178
6.66374
6.57576
6.55978
6.48074
6.4651
6.37686
6.29836
6.28678
6.23943
6.23146
6.19517
6.18891
6.15986
6.15481
6.13122
6.12711
6.10787
6.10453
6.08886
6.08615
6.0735
6.07132
6.06131
6.05964
6.05218
6.05104
6.04658
6.04572
6.04125
6.04048
6.03702
6.03651
6.03462
6.03447
6.03479
6.03515
6.03868
6.03983
6.04837
6.05082
6.06799
6.07283
6.10688
6.11692
6.19121
6.21832
6.45422
6.84132
6.93525
7.54515
7.71686
8.86661
8.97825
8.97951
8.97735
8.97666
14.3571
11.6088
10.8742
9.64374
9.30594
8.6937
8.51659
8.16419
8.05865
7.83656
7.77184
7.64148
7.59199
7.45291
7.4029
7.26997
7.22304
7.10069
7.05787
6.94728
6.9088
6.8101
6.77593
6.68873
6.65858
6.58178
6.5549
6.48541
6.45824
6.37809
6.30575
6.28513
6.24318
6.22964
6.19787
6.18736
6.16198
6.15353
6.13293
6.12606
6.10927
6.10367
6.09001
6.08547
6.07443
6.0708
6.06207
6.05927
6.05278
6.05086
6.04689
6.04545
6.04157
6.04031
6.03731
6.03646
6.03484
6.0346
6.03491
6.03554
6.03867
6.04063
6.04819
6.05238
6.06762
6.07603
6.10657
6.12481
6.19366
6.24632
6.47364
6.82327
6.98528
7.52322
7.79926
8.75981
8.94181
8.9702
8.97508
8.976
14.0476
11.7587
10.864
9.73339
9.301
8.73682
8.51025
8.18772
8.05338
7.85138
7.76882
7.64813
7.58514
7.45983
7.39675
7.27682
7.21759
7.1071
7.05303
6.95313
6.90454
6.81537
6.7722
6.69339
6.65529
6.5858
6.55172
6.48839
6.45349
6.379
6.31107
6.28433
6.2458
6.22854
6.19971
6.1864
6.16342
6.15274
6.1341
6.12541
6.11022
6.10315
6.09078
6.08504
6.07506
6.07047
6.06259
6.05906
6.05319
6.05076
6.04711
6.04528
6.04179
6.0402
6.03751
6.03644
6.035
6.0347
6.03501
6.03582
6.0387
6.04121
6.04814
6.0535
6.06752
6.07834
6.10676
6.13067
6.19676
6.26733
6.48818
6.81274
7.02027
7.51177
7.85429
8.68414
8.91152
8.96183
8.97296
8.97537
13.8296
11.8529
10.8632
9.79511
9.30133
8.76644
8.50776
8.20372
8.05082
7.86142
7.76734
7.65248
7.58079
7.46426
7.39289
7.28123
7.21418
7.11125
7.05002
6.95693
6.9019
6.81879
6.7699
6.69643
6.65326
6.58841
6.54972
6.49023
6.45033
6.37965
6.31475
6.284
6.24756
6.22791
6.20092
6.18583
6.16437
6.15226
6.13487
6.12502
6.11085
6.10283
6.0913
6.08479
6.07548
6.07028
6.06293
6.05893
6.05347
6.0507
6.04725
6.04517
6.04194
6.04014
6.03765
6.03644
6.03511
6.03478
6.03509
6.03602
6.03874
6.04161
6.04816
6.05427
6.06755
6.07996
6.10712
6.13485
6.19968
6.28233
6.49856
6.80688
7.0439
7.50628
7.88982
8.63258
8.88831
8.95503
8.97119
8.97484
13.6906
11.9075
10.8656
9.83385
9.3033
8.78501
8.50708
8.21368
8.04971
7.86765
7.76668
7.6551
7.57822
7.46688
7.39063
7.28387
7.2122
7.11374
7.04829
6.95921
6.90038
6.82085
6.76858
6.69825
6.65209
6.58996
6.54854
6.49128
6.44839
6.38007
6.31705
6.2839
6.24864
6.22757
6.20167
6.18552
6.16495
6.15199
6.13533
6.1248
6.11123
6.10265
6.09161
6.08465
6.07574
6.07018
6.06314
6.05887
6.05365
6.05068
6.04733
6.04511
6.04203
6.04011
6.03773
6.03645
6.03518
6.03483
6.03515
6.03615
6.03878
6.04186
6.04819
6.05476
6.06762
6.08098
6.10747
6.13754
6.20189
6.29198
6.50527
6.80387
7.05852
7.50395
7.91098
8.6005
8.87266
8.95025
8.96993
8.97446
13.623
11.9326
10.8676
9.85255
9.30478
8.79397
8.50701
8.21846
8.04933
7.87063
7.76644
7.65634
7.57704
7.4681
7.38959
7.2851
7.2113
7.1149
7.04749
6.96027
6.89969
6.82181
6.76798
6.6991
6.65155
6.59069
6.548
6.49176
6.44748
6.38027
6.31817
6.28388
6.24916
6.22743
6.20202
6.18538
6.16522
6.15187
6.13555
6.1247
6.11141
6.10257
6.09175
6.08459
6.07586
6.07013
6.06324
6.05884
6.05373
6.05067
6.04737
6.04508
6.04207
6.0401
6.03777
6.03645
6.03522
6.03486
6.03518
6.03621
6.03881
6.04198
6.04821
6.055
6.06767
6.08147
6.10767
6.13886
6.20307
6.29671
6.50855
6.80263
7.06551
7.50315
7.92084
8.58512
8.86479
8.94779
8.96927
8.97426
-13.7634
-11.9579
-10.7288
-9.38966
-8.57925
-7.68741
-7.12547
-6.47359
-6.05855
-5.57645
-5.283
-4.95735
-4.71971
-4.39116
-4.15545
-3.8437
-3.62583
-3.34458
-3.15028
-2.90208
-2.73149
-2.51458
-2.36574
-2.1767
-2.04665
-1.88063
-1.76403
-1.60998
-1.4875
-1.29975
-1.12395
-1.02529
-0.922891
-0.857516
-0.779359
-0.727199
-0.662667
-0.619107
-0.564708
-0.527866
-0.481732
-0.450478
-0.411348
-0.384901
-0.351901
-0.32977
-0.30245
-0.284544
-0.263127
-0.24991
-0.235005
-0.224028
-0.208736
-0.197718
-0.183086
-0.172835
-0.159568
-0.150392
-0.138661
-0.130611
-0.120407
-0.113486
-0.104851
-0.0992303
-0.0926634
-0.0893044
-0.0872565
-0.0906939
-0.104939
-0.138843
-0.228904
-0.374974
-0.529523
-0.815959
-1.11859
-1.62768
-1.84304
-1.90703
-1.9236
-1.92746
-13.8356
-11.9348
-10.7333
-9.36851
-8.58251
-7.67422
-7.12907
-6.46412
-6.06124
-5.56891
-5.28429
-4.95383
-4.72335
-4.38745
-4.1585
-3.83995
-3.62837
-3.34111
-3.15244
-2.89898
-2.73335
-2.51186
-2.36735
-2.17435
-2.04809
-1.87866
-1.76553
-1.60872
-1.49012
-1.29928
-1.12087
-1.02544
-0.921413
-0.85803
-0.778321
-0.727697
-0.66183
-0.619543
-0.564008
-0.52824
-0.481139
-0.450795
-0.410843
-0.385165
-0.351468
-0.329979
-0.302075
-0.284685
-0.262801
-0.249979
-0.234849
-0.224201
-0.208566
-0.197864
-0.182912
-0.172956
-0.159405
-0.150495
-0.138515
-0.130698
-0.120276
-0.113555
-0.104731
-0.0992689
-0.0925358
-0.0892526
-0.0870378
-0.0902621
-0.104153
-0.136597
-0.226664
-0.374636
-0.524247
-0.815311
-1.11033
-1.63943
-1.84909
-1.90893
-1.92411
-1.92761
-13.9839
-11.8838
-10.7442
-9.32422
-8.59067
-7.64651
-7.13747
-6.44417
-6.06751
-5.55307
-5.28742
-4.94632
-4.73121
-4.37947
-4.16513
-3.83192
-3.63395
-3.33369
-3.1572
-2.89238
-2.73744
-2.50606
-2.37091
-2.16932
-2.05126
-1.87444
-1.76879
-1.60593
-1.49562
-1.29831
-1.11447
-1.02594
-0.918312
-0.859199
-0.776123
-0.728806
-0.660053
-0.620511
-0.562519
-0.529069
-0.479877
-0.451498
-0.409768
-0.385751
-0.350548
-0.330446
-0.301281
-0.285008
-0.262113
-0.250141
-0.234516
-0.224576
-0.2082
-0.19818
-0.182539
-0.173223
-0.159058
-0.150722
-0.138203
-0.130891
-0.119999
-0.11371
-0.104478
-0.0993591
-0.0922709
-0.0891588
-0.0866021
-0.0894044
-0.102626
-0.132047
-0.222108
-0.374231
-0.513314
-0.814504
-1.09271
-1.66396
-1.86114
-1.91261
-1.92509
-1.9279
-14.2161
-11.7944
-10.7664
-9.25248
-8.60726
-7.6014
-7.15324
-6.41157
-6.07929
-5.52727
-5.29358
-4.93377
-4.74455
-4.366
-4.17653
-3.8185
-3.64361
-3.32133
-3.1655
-2.88138
-2.7446
-2.49642
-2.37712
-2.16097
-2.05679
-1.86738
-1.77433
-1.60105
-1.50462
-1.29681
-1.10426
-1.02721
-0.913273
-0.86133
-0.772497
-0.730775
-0.657109
-0.622219
-0.560051
-0.53053
-0.477785
-0.452737
-0.407986
-0.386787
-0.349026
-0.331278
-0.299972
-0.285598
-0.26099
-0.250451
-0.233956
-0.225209
-0.207582
-0.198723
-0.181915
-0.173685
-0.158478
-0.151118
-0.137683
-0.131227
-0.119538
-0.113983
-0.10406
-0.0995289
-0.0918478
-0.0890435
-0.0859528
-0.0881305
-0.100451
-0.125072
-0.215071
-0.374349
-0.495896
-0.814617
-1.06337
-1.70344
-1.87901
-1.91786
-1.92645
-1.92831
-14.5453
-11.6492
-10.808
-9.14599
-8.63828
-7.53399
-7.18076
-6.36259
-6.09987
-5.48876
-5.30478
-4.91441
-4.76546
-4.34497
-4.19467
-3.79775
-3.65918
-3.30232
-3.17893
-2.86449
-2.75622
-2.48164
-2.38722
-2.14813
-2.06573
-1.85646
-1.78309
-1.59309
-1.51807
-1.2947
-1.08944
-1.02995
-0.905757
-0.864939
-0.766989
-0.734025
-0.652617
-0.625021
-0.556279
-0.532922
-0.474587
-0.454767
-0.405265
-0.388487
-0.346705
-0.332653
-0.297988
-0.286598
-0.259306
-0.251001
-0.233088
-0.226199
-0.206613
-0.199586
-0.180948
-0.174426
-0.157586
-0.151757
-0.136886
-0.131774
-0.118833
-0.114431
-0.103429
-0.0998255
-0.0912303
-0.0889404
-0.0850934
-0.0864515
-0.0977852
-0.115482
-0.205262
-0.375976
-0.470592
-0.817529
-1.01837
-1.76151
-1.90236
-1.92431
-1.92807
-1.92879
-14.9903
-11.4218
-10.8824
-8.99334
-8.69317
-7.43654
-7.22688
-6.2914
-6.1344
-5.43316
-5.32425
-4.8854
-4.79724
-4.31313
-4.22268
-3.76667
-3.68349
-3.27397
-3.2
-2.83936
-2.7745
-2.45964
-2.40311
-2.12904
-2.07974
-1.84012
-1.79652
-1.58054
-1.53745
-1.29186
-1.06879
-1.03529
-0.894908
-0.870836
-0.758884
-0.739215
-0.645975
-0.62947
-0.550694
-0.536716
-0.469851
-0.457985
-0.401236
-0.391188
-0.343276
-0.334855
-0.295075
-0.288236
-0.256863
-0.251936
-0.23178
-0.227698
-0.205144
-0.200913
-0.179498
-0.175582
-0.156255
-0.15276
-0.135699
-0.132635
-0.117787
-0.115145
-0.102501
-0.100323
-0.0903614
-0.0889004
-0.0840265
-0.0843742
-0.0948651
-0.103009
-0.192216
-0.380647
-0.435195
-0.826284
-0.951686
-1.84367
-1.93046
-1.93149
-1.92983
-1.9293
-15.578
-11.0733
-11.0108
-8.77714
-8.78632
-7.29721
-7.30205
-6.18907
-6.19069
-5.35387
-5.35692
-4.84236
-4.84486
-4.26556
-4.26532
-3.72068
-3.72085
-3.23221
-3.23255
-2.8024
-2.80278
-2.42732
-2.4277
-2.10095
-2.10138
-1.81593
-1.81684
-1.56108
-1.56494
-1.28813
-1.04055
-1.0449
-0.879411
-0.880252
-0.747091
-0.74735
-0.636266
-0.636413
-0.542519
-0.542627
-0.462916
-0.463001
-0.395341
-0.395407
-0.33827
-0.338313
-0.290846
-0.290857
-0.253364
-0.253482
-0.22983
-0.229938
-0.202943
-0.20293
-0.177349
-0.177356
-0.154291
-0.154306
-0.133954
-0.133968
-0.116253
-0.116259
-0.101157
-0.101132
-0.0891533
-0.0889976
-0.0827514
-0.0818918
-0.0920396
-0.0872943
-0.175202
-0.390674
-0.386336
-0.845667
-0.854335
-1.95804
-1.96199
-1.93877
-1.93153
-1.92978
-16.3459
-10.5471
-11.2261
-8.47123
-8.9394
-7.09813
-7.42192
-6.04217
-6.28053
-5.24099
-5.41029
-4.77865
-4.91576
-4.19482
-4.32974
-3.6529
-3.77777
-3.17089
-3.28233
-2.74822
-2.84609
-2.37997
-2.46538
-2.05979
-2.13445
-1.7803
-1.84744
-1.53124
-1.60366
-1.28324
-1.00225
-1.06131
-0.857263
-0.89503
-0.729964
-0.759942
-0.62211
-0.64712
-0.530586
-0.551732
-0.452792
-0.470729
-0.386739
-0.401915
-0.330978
-0.343672
-0.284719
-0.29498
-0.248362
-0.25598
-0.226931
-0.233262
-0.199664
-0.20597
-0.174178
-0.180053
-0.151405
-0.156667
-0.131394
-0.136011
-0.114012
-0.117979
-0.0992094
-0.10242
-0.087473
-0.0893391
-0.0812615
-0.0789698
-0.0898103
-0.0678739
-0.153086
-0.409494
-0.318931
-0.883076
-0.713181
-2.11639
-1.9946
-1.94542
-1.93302
-1.9302
-17.3458
-9.7618
-11.5788
-8.0364
-9.18487
-6.81246
-7.60995
-5.83055
-6.4215
-5.07977
-5.49571
-4.68419
-5.02099
-4.08986
-4.42664
-3.55306
-3.86397
-3.08085
-3.35793
-2.66877
-2.91197
-2.31057
-2.52271
-1.99942
-2.18469
-1.72782
-1.89338
-1.48586
-1.6581
-1.27677
-0.950343
-1.08825
-0.825445
-0.917924
-0.705037
-0.779248
-0.601443
-0.663491
-0.513148
-0.565644
-0.437995
-0.482535
-0.374172
-0.411869
-0.320343
-0.3519
-0.275824
-0.301379
-0.241192
-0.259947
-0.222619
-0.238185
-0.194791
-0.210536
-0.169501
-0.184132
-0.147164
-0.160251
-0.127641
-0.13912
-0.110733
-0.120609
-0.0963839
-0.104435
-0.085121
-0.0900791
-0.0795409
-0.0755231
-0.0888928
-0.0441682
-0.124122
-0.442192
-0.225337
-0.949846
-0.509104
-2.33575
-2.02431
-1.9506
-1.93412
-1.9305
-18.6494
-8.60078
-12.1461
-7.41427
-9.57151
-6.40032
-7.90139
-5.52445
-6.6401
-4.84857
-5.63057
-4.54413
-5.17726
-3.93451
-4.57227
-3.40616
-3.99425
-2.94869
-3.47248
-2.55232
-3.01193
-2.2089
-2.60973
-1.91097
-2.26086
-1.65069
-1.96248
-1.41752
-1.73492
-1.26831
-0.88006
-1.13141
-0.779595
-0.953212
-0.668792
-0.8088
-0.571334
-0.688511
-0.487737
-0.586901
-0.416438
-0.500587
-0.355881
-0.42711
-0.304892
-0.364541
-0.262964
-0.311308
-0.230957
-0.266248
-0.216277
-0.245554
-0.187632
-0.217453
-0.162672
-0.19035
-0.140989
-0.165732
-0.122186
-0.143886
-0.105981
-0.124661
-0.09232
-0.107598
-0.081846
-0.091487
-0.0776025
-0.0714241
-0.090336
-0.0155124
-0.0856605
-0.496298
-0.0941004
-1.06322
-0.214323
-2.6406
-2.04448
-1.95345
-1.93467
-1.93063
18.6494
8.60078
12.1461
7.41427
9.57151
6.40032
7.90139
5.52445
6.6401
4.84857
5.63057
4.54412
5.17726
3.93451
4.57227
3.40616
3.99424
2.94869
3.47248
2.55232
3.01193
2.2089
2.60973
1.91096
2.26086
1.65069
1.96248
1.41752
1.73492
1.26831
0.880058
1.13141
0.779594
0.953211
0.668791
0.8088
0.571333
0.68851
0.487736
0.586901
0.416438
0.500586
0.35588
0.42711
0.304892
0.36454
0.262964
0.311307
0.230956
0.266248
0.216277
0.245554
0.187632
0.217453
0.162672
0.19035
0.140989
0.165732
0.122186
0.143886
0.105981
0.124661
0.0923198
0.107598
0.0818458
0.091487
0.0776024
0.0714241
0.0903358
0.0155126
0.0856604
0.496298
0.0941005
1.06322
0.214323
2.6406
2.04448
1.95345
1.93467
1.93063
17.3458
9.7618
11.5788
8.0364
9.18488
6.81246
7.60995
5.83055
6.4215
5.07977
5.49572
4.68419
5.02099
4.08987
4.42664
3.55307
3.86398
3.08085
3.35793
2.66878
2.91198
2.31057
2.52271
1.99942
2.18469
1.72782
1.89338
1.48586
1.65811
1.27677
0.950345
1.08825
0.825446
0.917925
0.705038
0.779249
0.601444
0.663493
0.513149
0.565645
0.437996
0.482536
0.374173
0.41187
0.320344
0.351901
0.275825
0.30138
0.241193
0.259948
0.22262
0.238186
0.194792
0.210537
0.169502
0.184133
0.147165
0.160252
0.127641
0.139121
0.110734
0.12061
0.0963845
0.104436
0.0851215
0.0900797
0.0795414
0.0755237
0.0888932
0.0441687
0.124123
0.442192
0.225337
0.949846
0.509104
2.33575
2.02431
1.9506
1.93412
1.9305
16.3459
10.5471
11.2261
8.47124
8.93941
7.09814
7.42193
6.04218
6.28054
5.241
5.4103
4.77865
4.91577
4.19483
4.32975
3.65291
3.77778
3.1709
3.28233
2.74823
2.8461
2.37998
2.46539
2.05979
2.13446
1.78031
1.84745
1.53125
1.60367
1.28324
1.00225
1.06131
0.857266
0.895033
0.729967
0.759945
0.622113
0.647123
0.530589
0.551735
0.452795
0.470731
0.386741
0.401917
0.33098
0.343675
0.284721
0.294982
0.248364
0.255982
0.226933
0.233264
0.199666
0.205972
0.17418
0.180055
0.151407
0.156669
0.131396
0.136013
0.114013
0.11798
0.0992106
0.102421
0.0874742
0.0893402
0.0812625
0.0789708
0.0898112
0.0678748
0.153087
0.409494
0.318931
0.883075
0.713181
2.11639
1.9946
1.94542
1.93301
1.9302
15.578
11.0733
11.0108
8.77715
8.78632
7.29722
7.30205
6.18908
6.1907
5.35388
5.35692
4.84237
4.84487
4.26557
4.26533
3.72069
3.72086
3.23222
3.23256
2.80241
2.80278
2.42733
2.42771
2.10096
2.10139
1.81594
1.81685
1.56109
1.56495
1.28814
1.04056
1.04491
0.879415
0.880256
0.747095
0.747354
0.63627
0.636417
0.542522
0.54263
0.462919
0.463004
0.395344
0.395409
0.338273
0.338315
0.290848
0.29086
0.253367
0.253485
0.229832
0.22994
0.202945
0.202932
0.177351
0.177358
0.154293
0.154307
0.133955
0.13397
0.116255
0.116261
0.101158
0.101133
0.0891546
0.0889989
0.0827526
0.081893
0.0920406
0.0872952
0.175203
0.390674
0.386336
0.845667
0.854334
1.95804
1.96198
1.93877
1.93153
1.92978
14.9903
11.4218
10.8824
8.99335
8.69317
7.43654
7.22689
6.29141
6.13441
5.43317
5.32426
4.88541
4.79725
4.31314
4.22269
3.76667
3.6835
3.27398
3.20001
2.83936
2.7745
2.45965
2.40311
2.12904
2.07975
1.84012
1.79653
1.58055
1.53746
1.29187
1.06879
1.03529
0.894913
0.870841
0.758889
0.739219
0.645979
0.629474
0.550697
0.536719
0.469854
0.457988
0.401239
0.391191
0.343279
0.334858
0.295078
0.288239
0.256866
0.251939
0.231782
0.227701
0.205146
0.200916
0.1795
0.175584
0.156257
0.152762
0.135701
0.132636
0.117788
0.115146
0.102503
0.100324
0.0903629
0.0889018
0.0840278
0.0843755
0.0948663
0.10301
0.192217
0.380648
0.435195
0.826284
0.951686
1.84367
1.93046
1.93149
1.92982
1.9293
14.5453
11.6492
10.808
9.146
8.63829
7.534
7.18077
6.3626
6.09988
5.48876
5.30479
4.91442
4.76547
4.34497
4.19468
3.79775
3.65919
3.30233
3.17893
2.8645
2.75623
2.48164
2.38723
2.14814
2.06573
1.85647
1.7831
1.5931
1.51807
1.2947
1.08944
1.02996
0.905761
0.864944
0.766994
0.734029
0.652621
0.625025
0.556282
0.532926
0.474591
0.45477
0.405268
0.38849
0.346708
0.332656
0.297991
0.286601
0.259308
0.251003
0.23309
0.226201
0.206616
0.199588
0.18095
0.174429
0.157588
0.151759
0.136888
0.131776
0.118834
0.114433
0.10343
0.099827
0.0912318
0.0889419
0.0850947
0.0864528
0.0977863
0.115483
0.205263
0.375977
0.470592
0.817529
1.01837
1.76151
1.90236
1.92431
1.92807
1.92879
14.2161
11.7944
10.7664
9.25249
8.60727
7.60141
7.15325
6.41157
6.0793
5.52728
5.29359
4.93378
4.74456
4.36601
4.17654
3.8185
3.64362
3.32134
3.1655
2.88138
2.74461
2.49643
2.37713
2.16097
2.05679
1.86738
1.77434
1.60105
1.50462
1.29681
1.10427
1.02721
0.913277
0.861335
0.772501
0.73078
0.657113
0.622223
0.560054
0.530534
0.477789
0.452741
0.407989
0.38679
0.349029
0.331281
0.299975
0.2856
0.260992
0.250454
0.233958
0.225212
0.207584
0.198726
0.181917
0.173687
0.15848
0.15112
0.137685
0.131229
0.11954
0.113984
0.104062
0.0995304
0.0918492
0.0890449
0.0859541
0.0881318
0.100452
0.125073
0.215072
0.37435
0.495897
0.814617
1.06337
1.70344
1.87901
1.91786
1.92644
1.92831
13.9839
11.8838
10.7442
9.32423
8.59068
7.64652
7.13747
6.44418
6.06751
5.55307
5.28743
4.94633
4.73122
4.37948
4.16514
3.83193
3.63395
3.3337
3.15721
2.89238
2.73745
2.50607
2.37091
2.16933
2.05127
1.87445
1.76879
1.60594
1.49563
1.29832
1.11448
1.02595
0.918317
0.859204
0.776127
0.72881
0.660057
0.620515
0.562523
0.529073
0.479881
0.451501
0.409771
0.385754
0.350551
0.330449
0.301283
0.285011
0.262116
0.250143
0.234518
0.224578
0.208203
0.198183
0.182541
0.173225
0.15906
0.150724
0.138204
0.130892
0.12
0.113711
0.104479
0.0993606
0.0922723
0.0891602
0.0866034
0.0894056
0.102627
0.132048
0.22211
0.374232
0.513314
0.814505
1.09271
1.66396
1.86114
1.91261
1.92508
1.9279
13.8356
11.9348
10.7333
9.36852
8.58252
7.67423
7.12908
6.46413
6.06124
5.56892
5.2843
4.95384
4.72336
4.38746
4.15851
3.83996
3.62838
3.34111
3.15245
2.89899
2.73336
2.51186
2.36736
2.17435
2.04809
1.87867
1.76554
1.60872
1.49012
1.29929
1.12088
1.02545
0.921418
0.858034
0.778325
0.727701
0.661834
0.619547
0.564011
0.528243
0.481142
0.450798
0.410845
0.385168
0.35147
0.329982
0.302077
0.284688
0.262803
0.249981
0.234852
0.224204
0.208568
0.197866
0.182914
0.172958
0.159407
0.150497
0.138516
0.1307
0.120278
0.113557
0.104733
0.0992703
0.0925372
0.0892539
0.087039
0.0902634
0.104155
0.136598
0.226665
0.374636
0.524248
0.815311
1.11033
1.63943
1.84909
1.90893
1.92411
1.92761
13.7634
11.9579
10.7289
9.38967
8.57926
7.68742
7.12547
6.47359
6.05856
5.57646
5.28301
4.95735
4.71972
4.39117
4.15546
3.84371
3.62584
3.34459
3.15029
2.90209
2.7315
2.51458
2.36575
2.17671
2.04665
1.88064
1.76404
1.60998
1.48751
1.29976
1.12396
1.02529
0.922896
0.85752
0.779363
0.727203
0.662671
0.619111
0.564711
0.52787
0.481735
0.450481
0.411351
0.384904
0.351903
0.329772
0.302452
0.284546
0.26313
0.249912
0.235007
0.22403
0.208738
0.19772
0.183088
0.172837
0.159569
0.150394
0.138663
0.130613
0.120408
0.113488
0.104852
0.0992317
0.0926647
0.0893056
0.0872578
0.090695
0.10494
0.138844
0.228905
0.374975
0.529523
0.815959
1.11859
1.62768
1.84304
1.90703
1.9236
1.92745
-13.6265
-11.9375
-10.8745
-9.86307
-9.31947
-8.81663
-8.53878
-8.26761
-8.11706
-7.9683
-7.86572
-7.72991
-7.63422
-7.50953
-7.42255
-7.31021
-7.23208
-7.13146
-7.06163
-6.97193
-6.90987
-6.83041
-6.77561
-6.70566
-6.65744
-6.59581
-6.55262
-6.49577
-6.45104
-6.38321
-6.32054
-6.28596
-6.25095
-6.22904
-6.20343
-6.18666
-6.16636
-6.15291
-6.13647
-6.12554
-6.11215
-6.10325
-6.09236
-6.08514
-6.07635
-6.07058
-6.06364
-6.05921
-6.05406
-6.05098
-6.04766
-6.04535
-6.04232
-6.04033
-6.03798
-6.03664
-6.03539
-6.03502
-6.03532
-6.03634
-6.03893
-6.04209
-6.04831
-6.05509
-6.06775
-6.08155
-6.10773
-6.13892
-6.20312
-6.29676
-6.5086
-6.80266
-7.06555
-7.50318
-7.92087
-8.58514
-8.86481
-8.94781
-8.96929
-8.97428
-13.6941
-11.9125
-10.8724
-9.84436
-9.31783
-8.80763
-8.53851
-8.26279
-8.11699
-7.96646
-7.86705
-7.7283
-7.63538
-7.50802
-7.42356
-7.30884
-7.23298
-7.13022
-7.06243
-6.97082
-6.91056
-6.82942
-6.77621
-6.70479
-6.65798
-6.59507
-6.55316
-6.49529
-6.45197
-6.383
-6.31942
-6.28597
-6.25043
-6.22919
-6.20308
-6.1868
-6.16609
-6.15303
-6.13625
-6.12564
-6.11197
-6.10333
-6.09221
-6.0852
-6.07623
-6.07063
-6.06354
-6.05924
-6.05398
-6.05099
-6.04762
-6.04538
-6.04227
-6.04034
-6.03794
-6.03664
-6.03535
-6.03499
-6.03529
-6.03628
-6.0389
-6.04197
-6.04829
-6.05485
-6.0677
-6.08105
-6.10753
-6.1376
-6.20194
-6.29203
-6.50531
-6.80391
-7.05856
-7.50398
-7.91101
-8.60053
-8.87268
-8.95027
-8.96995
-8.97448
-13.8329
-11.8578
-10.8699
-9.80559
-9.31555
-8.78899
-8.5385
-8.25277
-8.11711
-7.96256
-7.86995
-7.72486
-7.63791
-7.5048
-7.42578
-7.30592
-7.23496
-7.12759
-7.06417
-6.96846
-6.91209
-6.82731
-6.77755
-6.70294
-6.65916
-6.59349
-6.55435
-6.49422
-6.45392
-6.38257
-6.31709
-6.28607
-6.24933
-6.22953
-6.20233
-6.18712
-6.1655
-6.1533
-6.13578
-6.12586
-6.11159
-6.10351
-6.09189
-6.08535
-6.07597
-6.07073
-6.06333
-6.0593
-6.05381
-6.05102
-6.04753
-6.04544
-6.04219
-6.04037
-6.03785
-6.03664
-6.03528
-6.03494
-6.03523
-6.03615
-6.03886
-6.04172
-6.04826
-6.05436
-6.06764
-6.08003
-6.10719
-6.13491
-6.19974
-6.28238
-6.4986
-6.80691
-7.04394
-7.50631
-7.88984
-8.63261
-8.88833
-8.95505
-8.97121
-8.97487
-14.0507
-11.7636
-10.8704
-9.74384
-9.31472
-8.7593
-8.53991
-8.23674
-8.11798
-7.95619
-7.87494
-7.7191
-7.64229
-7.49941
-7.42964
-7.30104
-7.23839
-7.1232
-7.06721
-6.96452
-6.91476
-6.82381
-6.77987
-6.69985
-6.66121
-6.59085
-6.55637
-6.49235
-6.45711
-6.38192
-6.31338
-6.2864
-6.24755
-6.23016
-6.2011
-6.1877
-6.16455
-6.15378
-6.135
-6.12625
-6.11096
-6.10383
-6.09138
-6.0856
-6.07555
-6.07093
-6.06299
-6.05943
-6.05353
-6.05107
-6.04739
-6.04555
-6.04204
-6.04043
-6.03772
-6.03664
-6.03517
-6.03486
-6.03515
-6.03595
-6.03882
-6.04132
-6.04824
-6.05359
-6.0676
-6.07842
-6.10683
-6.13073
-6.19682
-6.26738
-6.48822
-6.81277
-7.0203
-7.5118
-7.85431
-8.68417
-8.91154
-8.96185
-8.97298
-8.9754
-14.36
-11.6137
-10.8802
-9.6542
-9.31895
-8.71617
-8.54466
-8.21333
-8.12057
-7.9466
-7.88293
-7.71017
-7.64931
-7.49109
-7.43585
-7.29351
-7.24392
-7.11644
-7.07212
-6.95847
-6.91907
-6.81842
-6.78364
-6.6951
-6.66454
-6.58677
-6.55957
-6.48934
-6.4619
-6.38099
-6.30801
-6.28721
-6.24492
-6.23127
-6.19925
-6.18866
-6.16309
-6.15458
-6.13383
-6.12691
-6.11
-6.10436
-6.0906
-6.08602
-6.07491
-6.07125
-6.06246
-6.05965
-6.0531
-6.05117
-6.04718
-6.04573
-6.04182
-6.04054
-6.03751
-6.03665
-6.03501
-6.03476
-6.03505
-6.03567
-6.03878
-6.04074
-6.04829
-6.05247
-6.0677
-6.0761
-6.10664
-6.12487
-6.19372
-6.24637
-6.47368
-6.82331
-6.98531
-7.52325
-7.79929
-8.75983
-8.94184
-8.97022
-8.9751
-8.97602
-14.7792
-11.3832
-10.9097
-9.52892
-9.33387
-8.65579
-8.55581
-8.18039
-8.12641
-7.93259
-7.89527
-7.69676
-7.66023
-7.47866
-7.44554
-7.28228
-7.25257
-7.10635
-7.07979
-6.94944
-6.92584
-6.81039
-6.78956
-6.68804
-6.66975
-6.58067
-6.5645
-6.48461
-6.46882
-6.37975
-6.30055
-6.28887
-6.24114
-6.2331
-6.19653
-6.19022
-6.16095
-6.15587
-6.1321
-6.12796
-6.10859
-6.10522
-6.08945
-6.08671
-6.07397
-6.07178
-6.0617
-6.06001
-6.0525
-6.05135
-6.04686
-6.046
-6.04149
-6.04072
-6.03722
-6.0367
-6.03479
-6.03463
-6.03493
-6.03529
-6.0388
-6.03994
-6.04847
-6.05091
-6.06807
-6.0729
-6.10694
-6.11698
-6.19127
-6.21838
-6.45426
-6.84135
-6.93528
-7.54517
-7.71688
-8.86663
-8.97828
-8.97953
-8.97737
-8.97669
-15.3342
-11.0358
-10.9756
-9.35621
-9.36812
-8.57229
-8.57797
-8.13458
-8.13784
-7.91232
-7.91406
-7.67688
-7.67695
-7.46028
-7.46044
-7.26571
-7.26587
-7.09148
-7.09162
-6.93614
-6.93627
-6.79859
-6.79871
-6.67764
-6.67779
-6.57165
-6.57197
-6.47732
-6.47868
-6.37811
-6.29038
-6.29197
-6.23577
-6.23608
-6.19261
-6.19271
-6.15785
-6.1579
-6.12959
-6.12963
-6.10654
-6.10657
-6.08777
-6.0878
-6.07261
-6.07262
-6.06061
-6.06061
-6.05164
-6.05167
-6.0464
-6.04642
-6.04101
-6.041
-6.03681
-6.03681
-6.03451
-6.03449
-6.03481
-6.03478
-6.0389
-6.03884
-6.04889
-6.04876
-6.06893
-6.06853
-6.10821
-6.10652
-6.1907
-6.18203
-6.42878
-6.87112
-6.86461
-7.58462
-7.59536
-9.01496
-9.01913
-8.98898
-8.97959
-8.97732
-16.0611
-10.519
-11.1038
-9.11826
-9.43467
-8.45672
-8.61809
-8.07091
-8.15842
-7.88296
-7.94241
-7.6475
-7.70234
-7.43324
-7.48313
-7.24134
-7.28616
-7.06962
-7.10967
-6.91662
-6.95222
-6.78126
-6.8127
-6.6624
-6.69008
-6.55838
-6.58324
-6.46619
-6.49261
-6.37596
-6.27665
-6.29739
-6.22814
-6.24081
-6.18694
-6.19659
-6.15335
-6.16107
-6.12594
-6.13222
-6.10357
-6.10868
-6.08535
-6.08949
-6.07064
-6.07395
-6.05903
-6.06157
-6.05042
-6.0522
-6.04572
-6.04706
-6.04031
-6.04145
-6.03624
-6.037
-6.03413
-6.03433
-6.03471
-6.03411
-6.03918
-6.03734
-6.04973
-6.04579
-6.07062
-6.06256
-6.11113
-6.09263
-6.19385
-6.13546
-6.39548
-6.91884
-6.76488
-7.65245
-7.41748
-9.21991
-9.06136
-8.9976
-8.98152
-8.97787
-17.0097
-9.75701
-11.3348
-8.78822
-9.553
-8.29558
-8.68655
-7.98185
-8.19352
-7.84021
-7.98493
-7.60413
-7.74068
-7.39343
-7.51748
-7.2055
-7.3169
-7.0375
-7.13705
-6.88795
-6.97643
-6.75584
-6.83396
-6.64004
-6.70874
-6.53884
-6.60018
-6.44932
-6.51227
-6.37311
-6.25811
-6.3064
-6.21724
-6.2482
-6.17874
-6.20258
-6.14681
-6.16596
-6.12064
-6.1362
-6.09924
-6.11192
-6.08183
-6.0921
-6.06778
-6.076
-6.05675
-6.06308
-6.04868
-6.05305
-6.04474
-6.04802
-6.0393
-6.04215
-6.03542
-6.03734
-6.03363
-6.03417
-6.03464
-6.03321
-6.03973
-6.03527
-6.05121
-6.04168
-6.07362
-6.05432
-6.11673
-6.07395
-6.20338
-6.07616
-6.35165
-6.99366
-6.62348
-7.76517
-7.1581
-9.5033
-9.0998
-9.00431
-8.98296
-8.97827
-18.2483
-8.64176
-11.7307
-8.32567
-9.75216
-8.06845
-8.79879
-7.85608
-8.25116
-7.77748
-8.04842
-7.54002
-7.79832
-7.33471
-7.56922
-7.15268
-7.36321
-6.99016
-7.17832
-6.84573
-7.01295
-6.71842
-6.86605
-6.60712
-6.7369
-6.51001
-6.62557
-6.42386
-6.53996
-6.36926
-6.23301
-6.32088
-6.20149
-6.25958
-6.16677
-6.21173
-6.13724
-6.17339
-6.11287
-6.14226
-6.09291
-6.11685
-6.07667
-6.09608
-6.06361
-6.07914
-6.05344
-6.0654
-6.04618
-6.0544
-6.04327
-6.04944
-6.03782
-6.04323
-6.03425
-6.03789
-6.03294
-6.034
-6.03464
-6.03198
-6.04071
-6.03238
-6.05371
-6.03589
-6.07866
-6.04281
-6.12654
-6.04837
-6.22317
-6.00075
-6.29316
-7.10897
-6.42162
-7.94787
-6.78066
-9.89668
-9.12597
-9.00811
-8.98377
-8.97853
)
;

boundaryField
{
    F1_1
    {
        type            calculated;
        value           nonuniform List<scalar> 
80
(
18.9505
7.97326
11.979
8.04078
9.87574
7.90453
8.86778
7.71451
8.28866
7.55105
7.90308
7.48912
7.75829
7.28648
7.55864
7.10984
7.36516
6.9528
7.18577
6.81326
7.02258
6.69028
6.8762
6.5828
6.74682
6.48901
6.63529
6.4055
6.55164
6.36432
6.21709
6.32735
6.19087
6.26456
6.15858
6.21573
6.13068
6.17666
6.10755
6.14493
6.08857
6.11903
6.07313
6.09783
6.06074
6.08051
6.05115
6.06637
6.04443
6.05488
6.04214
6.04998
6.03673
6.04361
6.03339
6.03801
6.03241
6.03373
6.03454
6.03111
6.04123
6.03056
6.05518
6.0324
6.08173
6.03599
6.13266
6.03346
6.23616
5.95847
6.25958
7.17872
6.30273
8.06047
6.55698
10.1255
9.13465
9.00913
8.98399
8.97861
)
;
    }
    F1_2
    {
        type            calculated;
        value           nonuniform List<scalar> 
80
(
-19.3875
-7.9092
-12.4952
-7.04766
-9.80745
-6.1567
-8.07827
-5.34336
-6.77282
-4.71228
-5.713
-4.46049
-5.27069
-3.84185
-4.65974
-3.31873
-4.07265
-2.87012
-3.54149
-2.48312
-3.07218
-2.1485
-2.66219
-1.85842
-2.30678
-1.60482
-2.00403
-1.37652
-1.77992
-1.26355
-0.839644
-1.15791
-0.752525
-0.974612
-0.647329
-0.826683
-0.553496
-0.703644
-0.472682
-0.59976
-0.403671
-0.51151
-0.345053
-0.43634
-0.295754
-0.372206
-0.255374
-0.317351