/*--------------------------------*- C++ -*----------------------------------*\
| =========                 |                                                 |
| \\      /  F ield         | OpenFOAM: The Open Source CFD Toolbox           |
|  \\    /   O peration     | Version:  5.x                                   |
|   \\  /    A nd           | Web:      www.OpenFOAM.org                      |
|    \\/     M anipulation  |                                                 |
\*---------------------------------------------------------------------------*/
FoamFile
{
    version     2.0;
    format      ascii;
    class       volScalarField;
    location    "7.2";
    object      gradTy;
}
// * * * * * * * * * * * * * * * * * * * * * * * * * * * * * * * * * * * * * //

dimensions      [0 -1 0 1 0 0 0];

internalField   nonuniform List<scalar> 
3200
(
18.2488
8.63582
11.7298
8.31242
9.7498
8.03985
8.79402
7.7928
8.24169
7.60087
7.87627
7.51739
7.72785
7.31752
7.52977
7.13951
7.33867
6.98012
7.16189
6.83799
7.0013
6.71238
6.85745
6.60234
6.73034
6.5062
6.62045
6.42084
6.5358
6.3667
6.23157
6.3187
6.20025
6.25789
6.16576
6.2104
6.13644
6.17234
6.11223
6.14142
6.0924
6.11618
6.07626
6.09555
6.06328
6.07871
6.05317
6.06506
6.04597
6.05414
6.04308
6.0492
6.03766
6.04303
6.03413
6.03773
6.03285
6.03387
6.03456
6.03188
6.04065
6.0323
6.05367
6.03583
6.07863
6.04277
6.12652
6.04834
6.22316
6.00074
6.29314
7.10889
6.4216
7.94771
6.7806
9.89637
9.12572
9.00787
8.98354
8.9783
17.0093
9.75176
11.3322
8.77642
9.54705
8.27004
8.67381
7.92534
8.16454
7.68507
7.83212
7.56424
7.6764
7.36901
7.48113
7.18878
7.29408
7.02552
7.12166
6.87906
6.96546
6.74906
6.82581
6.63475
6.70251
6.53467
6.59532
6.44603
6.50836
6.37049
6.25645
6.30434
6.21587
6.24659
6.17764
6.20131
6.14593
6.16495
6.11994
6.1354
6.09869
6.11128
6.08138
6.09159
6.06743
6.0756
6.05647
6.06275
6.04845
6.05279
6.04453
6.04779
6.03914
6.04196
6.03529
6.03719
6.03352
6.03405
6.03456
6.03311
6.03967
6.0352
6.05117
6.04162
6.07359
6.05428
6.11671
6.07392
6.20337
6.07615
6.35163
6.99359
6.62344
7.76503
7.15801
9.50302
9.09956
9.00408
8.98272
8.97804
16.06
10.5141
11.1
9.10731
9.42616
8.43296
8.59963
8.01833
8.11608
7.74417
7.80452
7.59585
7.64169
7.40366
7.44862
7.2221
7.2644
7.05628
7.09493
6.90692
6.94167
6.77396
6.80485
6.65677
6.68406
6.55397
6.57854
6.46271
6.48888
6.3733
6.27483
6.29539
6.22669
6.23926
6.18579
6.19536
6.15243
6.1601
6.12521
6.13144
6.10298
6.10806
6.08488
6.089
6.07027
6.07356
6.05873
6.06126
6.05018
6.05194
6.04551
6.04683
6.04014
6.04127
6.0361
6.03685
6.03402
6.03421
6.03462
6.03401
6.03911
6.03727
6.04968
6.04574
6.07058
6.06252
6.11111
6.0926
6.19383
6.13545
6.39546
6.91878
6.76482
7.65232
7.41737
9.21966
9.06112
8.99737
8.98129
8.97764
15.3325
11.0312
10.971
9.34573
9.35774
8.54947
8.55536
8.08415
8.0864
7.78598
7.78768
7.61727
7.61833
7.42699
7.42696
7.24466
7.24473
7.07717
7.07727
6.92588
6.92599
6.79093
6.79104
6.67177
6.67191
6.56707
6.56738
6.47372
6.47506
6.37542
6.28844
6.29001
6.23425
6.23456
6.19141
6.19151
6.1569
6.15695
6.12883
6.12887
6.10594
6.10597
6.08729
6.08731
6.07222
6.07224
6.0603
6.0603
6.05139
6.05142
6.04618
6.0462
6.04083
6.04082
6.03667
6.03666
6.03439
6.03437
6.03472
6.03469
6.03883
6.03877
6.04884
6.0487
6.0689
6.0685
6.10819
6.1065
6.19068
6.18201
6.42875
6.87106
6.86455
7.5845
7.59523
9.01473
9.0189
8.98875
8.97936
8.97709
14.777
11.3787
10.9045
9.51866
9.32213
8.63342
8.53019
8.13104
8.06883
7.8157
7.77773
7.63183
7.60267
7.44267
7.4126
7.25993
7.23177
7.09135
7.06567
6.93877
6.91571
6.80249
6.78201
6.682
6.66395
6.57597
6.55998
6.48093
6.46529
6.37703
6.29851
6.28693
6.23958
6.2316
6.1953
6.18904
6.15998
6.15493
6.13133
6.12721
6.10797
6.10462
6.08895
6.08623
6.07358
6.0714
6.06139
6.05971
6.05224
6.0511
6.04664
6.04579
6.0413
6.04054
6.03707
6.03656
6.03467
6.03452
6.03484
6.0352
6.03872
6.03987
6.04842
6.05086
6.06803
6.07287
6.10692
6.11696
6.19124
6.21835
6.45423
6.84129
6.93521
7.54505
7.71675
8.86641
8.97804
8.9793
8.97714
8.97645
14.3575
11.6091
10.8745
9.64402
9.30621
8.69396
8.51684
8.16444
8.0589
7.83681
7.77209
7.64173
7.59224
7.45316
7.40314
7.27022
7.22329
7.10094
7.05812
6.94751
6.90904
6.81033
6.77616
6.68894
6.6588
6.58199
6.5551
6.4856
6.45843
6.37826
6.30591
6.28528
6.24333
6.22978
6.198
6.18749
6.1621
6.15365
6.13304
6.12617
6.10937
6.10377
6.0901
6.08555
6.07451
6.07087
6.06214
6.05934
6.05284
6.05092
6.04696
6.04551
6.04163
6.04036
6.03736
6.03651
6.03489
6.03465
6.03495
6.03558
6.03871
6.04067
6.04823
6.05242
6.06766
6.07607
6.10661
6.12484
6.1937
6.24635
6.47365
6.82325
6.98523
7.52313
7.79915
8.75961
8.94161
8.96999
8.97487
8.97579
14.048
11.7591
10.8643
9.73367
9.30127
8.73708
8.51051
8.18797
8.05363
7.85163
7.76907
7.64838
7.58539
7.46008
7.397
7.27706
7.21783
7.10734
7.05327
6.95337
6.90477
6.8156
6.77243
6.69361
6.6555
6.58601
6.55192
6.48858
6.45368
6.37917
6.31123
6.28448
6.24594
6.22868
6.19984
6.18653
6.16354
6.15285
6.13421
6.12551
6.11032
6.10324
6.09087
6.08513
6.07514
6.07055
6.06266
6.05913
6.05326
6.05082
6.04717
6.04534
6.04185
6.04026
6.03756
6.0365
6.03505
6.03475
6.03506
6.03587
6.03874
6.04125
6.04818
6.05354
6.06756
6.07838
6.1068
6.13071
6.19679
6.26736
6.48818
6.81271
7.02023
7.51168
7.85417
8.68396
8.91132
8.96162
8.97275
8.97516
13.83
11.8532
10.8636
9.79539
9.3016
8.7667
8.50802
8.20398
8.05107
7.86167
7.76759
7.65273
7.58104
7.46451
7.39313
7.28148
7.21442
7.1115
7.05026
6.95717
6.90213
6.81902
6.77012
6.69664
6.65347
6.58861
6.54992
6.49042
6.45051
6.37982
6.31491
6.28415
6.2477
6.22805
6.20105
6.18596
6.16449
6.15237
6.13497
6.12512
6.11095
6.10292
6.09138
6.08488
6.07556
6.07036
6.06301
6.059
6.05354
6.05077
6.04731
6.04523
6.042
6.0402
6.0377
6.0365
6.03516
6.03483
6.03514
6.03607
6.03879
6.04165
6.0482
6.05432
6.0676
6.08
6.10716
6.13488
6.19971
6.28235
6.49857
6.80685
7.04386
7.5062
7.8897
8.6324
8.88811
8.95482
8.97098
8.97464
13.691
11.9079
10.866
9.83414
9.30357
8.78527
8.50733
8.21393
8.04996
7.8679
7.76693
7.65535
7.57847
7.46713
7.39088
7.28411
7.21245
7.11398
7.04853
6.95944
6.90061
6.82107
6.7688
6.69846
6.6523
6.59017
6.54874
6.49147
6.44858
6.38024
6.31721
6.28405
6.24879
6.22771
6.2018
6.18564
6.16507
6.15211
6.13544
6.1249
6.11133
6.10274
6.0917
6.08474
6.07582
6.07026
6.06322
6.05894
6.05371
6.05075
6.0474
6.04517
6.04209
6.04017
6.03779
6.0365
6.03523
6.03488
6.03519
6.03619
6.03883
6.0419
6.04823
6.0548
6.06766
6.08102
6.10751
6.13758
6.20192
6.29201
6.50527
6.80385
7.05848
7.50386
7.91086
8.60032
8.87246
8.95004
8.96972
8.97425
13.6234
11.9329
10.868
9.85283
9.30505
8.79423
8.50727
8.21871
8.04958
7.87088
7.76669
7.65659
7.57729
7.46835
7.38984
7.28534
7.21154
7.11514
7.04773
6.96051
6.89992
6.82204
6.7682
6.69932
6.65177
6.5909
6.5482
6.49195
6.44766
6.38044
6.31833
6.28404
6.24931
6.22756
6.20215
6.1855
6.16534
6.15199
6.13566
6.12481
6.1115
6.10267
6.09184
6.08467
6.07594
6.07021
6.06332
6.05891
6.0538
6.05074
6.04744
6.04514
6.04213
6.04015
6.03783
6.0365
6.03527
6.03491
6.03522
6.03626
6.03885
6.04203
6.04825
6.05504
6.06771
6.08151
6.10771
6.1389
6.2031
6.29674
6.50856
6.8026
7.06547
7.50306
7.92072
8.58494
8.86459
8.94758
8.96906
8.97405
-13.7618
-11.9563
-10.7273
-9.38811
-8.5777
-7.68585
-7.12389
-6.47201
-6.05697
-5.57488
-5.28143
-4.95579
-4.71817
-4.38963
-4.15394
-3.84222
-3.62437
-3.34315
-3.14887
-2.90071
-2.73014
-2.51326
-2.36445
-2.17546
-2.04543
-1.87946
-1.76289
-1.60887
-1.48644
-1.29875
-1.12301
-1.02439
-0.922032
-0.856686
-0.778567
-0.726434
-0.661936
-0.618401
-0.564035
-0.527217
-0.481113
-0.449881
-0.410779
-0.384352
-0.351378
-0.329265
-0.301969
-0.284078
-0.262682
-0.249477
-0.234587
-0.223621
-0.208346
-0.197339
-0.182724
-0.172485
-0.159234
-0.150069
-0.138353
-0.130314
-0.120124
-0.113213
-0.104591
-0.0989804
-0.0924264
-0.0890771
-0.087043
-0.0904919
-0.104756
-0.13868
-0.228781
-0.3749
-0.529483
-0.815967
-1.11864
-1.62777
-1.84315
-1.90715
-1.92372
-1.92757
-13.834
-11.9333
-10.7317
-9.36697
-8.58096
-7.67266
-7.12749
-6.46254
-6.05966
-5.56734
-5.28272
-4.95227
-4.72181
-4.38593
-4.15699
-3.83846
-3.62691
-3.33967
-3.15103
-2.89761
-2.732
-2.51055
-2.36607
-2.1731
-2.04687
-1.87749
-1.76439
-1.60761
-1.48905
-1.29828
-1.11993
-1.02454
-0.920554
-0.8572
-0.77753
-0.726931
-0.6611
-0.618837
-0.563335
-0.52759
-0.48052
-0.450197
-0.410274
-0.384616
-0.350945
-0.329474
-0.301594
-0.28422
-0.262356
-0.249546
-0.234432
-0.223794
-0.208176
-0.197485
-0.18255
-0.172606
-0.159071
-0.150172
-0.138207
-0.130401
-0.119994
-0.113282
-0.104472
-0.0990189
-0.0922989
-0.0890252
-0.0868243
-0.0900599
-0.10397
-0.136434
-0.226541
-0.374561
-0.524207
-0.815319
-1.11038
-1.63952
-1.8492
-1.90904
-1.92422
-1.92772
-13.9823
-11.8823
-10.7427
-9.32267
-8.58912
-7.64494
-7.13589
-6.44259
-6.06593
-5.55149
-5.28586
-4.94476
-4.72967
-4.37794
-4.16362
-3.83044
-3.63248
-3.33226
-3.15579
-2.891
-2.73609
-2.50475
-2.36962
-2.16808
-2.05004
-1.87327
-1.76764
-1.60483
-1.49456
-1.29731
-1.11353
-1.02504
-0.917454
-0.858368
-0.775332
-0.728039
-0.659324
-0.619804
-0.561847
-0.528419
-0.479259
-0.4509
-0.4092
-0.385201
-0.350026
-0.329941
-0.3008
-0.284543
-0.261669
-0.249708
-0.234098
-0.224169
-0.207811
-0.197802
-0.182178
-0.172872
-0.158724
-0.150399
-0.137896
-0.130593
-0.119716
-0.113437
-0.104219
-0.0991089
-0.0920344
-0.0889311
-0.086389
-0.0892017
-0.102443
-0.131882
-0.221985
-0.374158
-0.513272
-0.814514
-1.09275
-1.66405
-1.86125
-1.91273
-1.9252
-1.92802
-14.2145
-11.7928
-10.7648
-9.25093
-8.60571
-7.59983
-7.15167
-6.40999
-6.07771
-5.5257
-5.29201
-4.93222
-4.743
-4.36447
-4.17501
-3.81701
-3.64215
-3.3199
-3.16408
-2.88
-2.74325
-2.49512
-2.37584
-2.15972
-2.05557
-1.8662
-1.77318
-1.59995
-1.50354
-1.2958
-1.10333
-1.0263
-0.912417
-0.860498
-0.771708
-0.730008
-0.656382
-0.621511
-0.55938
-0.529878
-0.477169
-0.452138
-0.40742
-0.386236
-0.348505
-0.330772
-0.299493
-0.285132
-0.260547
-0.250018
-0.233539
-0.224801
-0.207193
-0.198344
-0.181554
-0.173334
-0.158146
-0.150794
-0.137377
-0.130929
-0.119256
-0.113709
-0.103802
-0.0992783
-0.0916119
-0.0888154
-0.0857401
-0.087927
-0.100268
-0.124904
-0.214946
-0.374278
-0.495853
-0.814629
-1.06341
-1.70354
-1.87913
-1.91797
-1.92656
-1.92842
-14.5437
-11.6477
-10.8064
-9.14445
-8.63673
-7.53242
-7.17919
-6.36101
-6.09829
-5.48718
-5.30321
-4.91286
-4.76391
-4.34344
-4.19315
-3.79626
-3.65771
-3.30089
-3.17751
-2.86312
-2.75487
-2.48033
-2.38593
-2.14689
-2.0645
-1.85529
-1.78194
-1.59199
-1.51699
-1.29369
-1.08851
-1.02905
-0.904904
-0.864105
-0.766203
-0.733255
-0.651892
-0.624311
-0.555611
-0.532269
-0.473973
-0.454166
-0.4047
-0.387935
-0.346186
-0.332146
-0.297511
-0.286131
-0.258864
-0.250567
-0.232672
-0.22579
-0.206226
-0.199205
-0.180589
-0.174075
-0.157255
-0.151433
-0.136581
-0.131476
-0.118552
-0.114157
-0.103171
-0.0995744
-0.0909955
-0.0887117
-0.0848816
-0.0862468
-0.0976021
-0.115311
-0.205136
-0.375908
-0.470545
-0.817543
-1.01841
-1.76161
-1.90247
-1.92442
-1.92819
-1.9289
-14.9887
-11.4203
-10.8809
-8.9918
-8.69162
-7.43496
-7.22531
-6.28982
-6.13282
-5.43158
-5.32268
-4.88384
-4.79569
-4.31161
-4.22116
-3.76519
-3.68202
-3.27255
-3.19859
-2.83799
-2.77314
-2.45834
-2.40181
-2.1278
-2.07852
-1.83895
-1.79536
-1.57945
-1.53637
-1.29086
-1.06786
-1.03438
-0.89406
-0.869999
-0.758102
-0.738442
-0.645254
-0.628758
-0.550029
-0.53606
-0.469239
-0.457382
-0.400675
-0.390635
-0.342761
-0.334346
-0.294601
-0.287768
-0.256424
-0.251502
-0.231365
-0.227288
-0.204758
-0.200532
-0.179141
-0.175229
-0.155925
-0.152434
-0.135396
-0.132335
-0.117508
-0.11487
-0.102246
-0.100071
-0.090128
-0.0886706
-0.0838159
-0.0841678
-0.0946828
-0.102833
-0.192089
-0.380584
-0.435144
-0.826303
-0.951719
-1.84378
-1.93057
-1.9316
-1.92994
-1.92941
-15.5764
-11.0718
-11.0093
-8.77559
-8.78477
-7.29564
-7.30047
-6.18749
-6.18911
-5.3523
-5.35534
-4.84081
-4.84331
-4.26404
-4.2638
-3.7192
-3.71938
-3.23079
-3.23113
-2.80103
-2.80141
-2.42602
-2.4264
-2.09972
-2.10015
-1.81477
-1.81568
-1.55999
-1.56385
-1.28713
-1.03964
-1.04399
-0.878569
-0.87941
-0.746314
-0.746573
-0.63555
-0.635697
-0.541859
-0.541967
-0.46231
-0.462395
-0.394784
-0.394849
-0.337758
-0.337801
-0.290375
-0.290387
-0.252929
-0.253047
-0.229418
-0.229525
-0.20256
-0.202546
-0.176994
-0.177001
-0.153964
-0.153979
-0.133653
-0.133667
-0.115977
-0.115983
-0.100903
-0.100878
-0.0889219
-0.0887661
-0.0825428
-0.0816829
-0.0918587
-0.0871121
-0.175072
-0.390617
-0.386278
-0.845692
-0.854361
-1.95816
-1.9621
-1.93889
-1.93165
-1.9299
-16.3443
-10.5456
-11.2246
-8.46968
-8.93786
-7.09656
-7.42035
-6.04059
-6.27895
-5.23942
-5.40872
-4.7771
-4.9142
-4.19331
-4.32821
-3.65143
-3.77629
-3.16947
-3.2809
-2.74687
-2.84472
-2.37868
-2.46407
-2.05857
-2.13321
-1.77915
-1.84627
-1.53016
-1.60256
-1.28223
-1.00135
-1.06039
-0.85643
-0.89418
-0.729195
-0.759158
-0.621402
-0.646398
-0.529934
-0.551067
-0.452192
-0.470117
-0.386188
-0.401353
-0.330473
-0.343156
-0.284254
-0.294506
-0.247932
-0.255543
-0.226522
-0.232847
-0.199285
-0.205583
-0.173827
-0.179695
-0.151082
-0.156337
-0.131097
-0.135708
-0.113739
-0.1177
-0.0989592
-0.102164
-0.0872447
-0.0891051
-0.0810558
-0.0787573
-0.0896321
-0.0676833
-0.152953
-0.409446
-0.318863
-0.883111
-0.713197
-2.11653
-1.99472
-1.94554
-1.93313
-1.93031
-17.3442
-9.76029
-11.5772
-8.03485
-9.18334
-6.81088
-7.60838
-5.82896
-6.41991
-5.0782
-5.49414
-4.68264
-5.01942
-4.08835
-4.4251
-3.5516
-3.86248
-3.07944
-3.35649
-2.66743
-2.91059
-2.30929
-2.52139
-1.99821
-2.18343
-1.72668
-1.89219
-1.48479
-1.65698
-1.27576
-0.949464
-1.08732
-0.824626
-0.917063
-0.70428
-0.778453
-0.600746
-0.662759
-0.512507
-0.564969
-0.437405
-0.481915
-0.373631
-0.411299
-0.319846
-0.351377
-0.275367
-0.300899
-0.240769
-0.259505
-0.222215
-0.237765
-0.194417
-0.210144
-0.169156
-0.18377
-0.146847
-0.159917
-0.127348
-0.138813
-0.110465
-0.120327
-0.0961382
-0.104176
-0.084897
-0.0898413
-0.0793395
-0.0753055
-0.0887192
-0.0439663
-0.123985
-0.442158
-0.225254
-0.949897
-0.509104
-2.3359
-2.02443
-1.95071
-1.93423
-1.93062
-18.6477
-8.59929
-12.1446
-7.41272
-9.56998
-6.39873
-7.89982
-5.52286
-6.63851
-4.847
-5.62898
-4.54258
-5.17569
-3.933
-4.57072
-3.4047
-3.99273
-2.9473
-3.47102
-2.55099
-3.01053
-2.20763
-2.60839
-1.90977
-2.25959
-1.64956
-1.96127
-1.41646
-1.73376
-1.26731
-0.879205
-1.13046
-0.778795
-0.952333
-0.668052
-0.807989
-0.570654
-0.687763
-0.487111
-0.586213
-0.415864
-0.499954
-0.355355
-0.42653
-0.304409
-0.364009
-0.262521
-0.310821
-0.230545
-0.265803
-0.215882
-0.245128
-0.187268
-0.217056
-0.162338
-0.189983
-0.140682
-0.165394
-0.121904
-0.143575
-0.105723
-0.124375
-0.0920835
-0.107335
-0.0816309
-0.0912459
-0.0774101
-0.0712014
-0.0901722
-0.0152978
-0.0855191
-0.496285
-0.0939954
-1.06329
-0.2143
-2.64078
-2.04461
-1.95358
-1.93479
-1.93075
18.6477
8.59929
12.1446
7.41271
9.56998
6.39873
7.89982
5.52286
6.63851
4.847
5.62898
4.54258
5.17569
3.933
4.57072
3.4047
3.99273
2.9473
3.47102
2.55099
3.01053
2.20763
2.60839
1.90977
2.25959
1.64956
1.96127
1.41646
1.73376
1.26731
0.879203
1.13046
0.778794
0.952333
0.668051
0.807989
0.570653
0.687763
0.48711
0.586213
0.415864
0.499954
0.355354
0.426529
0.304409
0.364008
0.26252
0.31082
0.230544
0.265803
0.215881
0.245128
0.187268
0.217056
0.162337
0.189983
0.140682
0.165394
0.121904
0.143575
0.105722
0.124375
0.0920833
0.107335
0.0816307
0.091246
0.0774099
0.0712015
0.0901719
0.0152982
0.085519
0.496285
0.0939958
1.0633
0.214301
2.64079
2.04462
1.95359
1.9348
1.93076
17.3442
9.7603
11.5773
8.03486
9.18334
6.81088
7.60838
5.82897
6.41991
5.0782
5.49414
4.68264
5.01943
4.08835
4.42511
3.5516
3.86248
3.07944
3.35649
2.66743
2.9106
2.30929
2.52139
1.99821
2.18344
1.72668
1.89219
1.48479
1.65698
1.27577
0.949465
1.08732
0.824628
0.917065
0.704282
0.778455
0.600747
0.66276
0.512508
0.56497
0.437406
0.481916
0.373632
0.4113
0.319847
0.351378
0.275368
0.300901
0.24077
0.259506
0.222216
0.237766
0.194417
0.210145
0.169157
0.183771
0.146847
0.159918
0.127349
0.138813
0.110466
0.120327
0.0961389
0.104177
0.0848976
0.089842
0.07934
0.0753061
0.0887195
0.0439668
0.123985
0.442158
0.225254
0.949899
0.509104
2.33591
2.02444
1.95072
1.93424
1.93063
16.3443
10.5456
11.2246
8.46969
8.93787
7.09656
7.42036
6.0406
6.27896
5.23943
5.40873
4.7771
4.91421
4.19331
4.32822
3.65144
3.7763
3.16948
3.2809
2.74687
2.84473
2.37869
2.46408
2.05857
2.13322
1.77915
1.84628
1.53016
1.60256
1.28224
1.00135
1.06039
0.856434
0.894184
0.729198
0.759161
0.621405
0.646401
0.529937
0.55107
0.452195
0.470119
0.386191
0.401355
0.330475
0.343159
0.284256
0.294508
0.247934
0.255545
0.226524
0.232849
0.199287
0.205585
0.173829
0.179697
0.151084
0.156339
0.131099
0.135709
0.11374
0.117702
0.0989605
0.102165
0.0872458
0.0891063
0.0810568
0.0787584
0.0896329
0.0676841
0.152953
0.409446
0.318863
0.883113
0.713198
2.11653
1.99473
1.94554
1.93314
1.93032
15.5764
11.0718
11.0093
8.7756
8.78478
7.29565
7.30048
6.1875
6.18912
5.35231
5.35535
4.84082
4.84332
4.26404
4.26381
3.71921
3.71938
3.23079
3.23114
2.80104
2.80142
2.42603
2.42641
2.09973
2.10015
1.81478
1.81569
1.56
1.56386
1.28713
1.03965
1.04399
0.878574
0.879414
0.746318
0.746577
0.635554
0.635701
0.541863
0.54197
0.462313
0.462398
0.394787
0.394852
0.337761
0.337804
0.290378
0.290389
0.252931
0.253049
0.22942
0.229528
0.202562
0.202548
0.176997
0.177003
0.153966
0.153981
0.133655
0.133669
0.115979
0.115985
0.100905
0.10088
0.0889233
0.0887675
0.082544
0.0816841
0.0918597
0.087113
0.175073
0.390617
0.386278
0.845693
0.854362
1.95816
1.96211
1.9389
1.93165
1.9299
14.9887
11.4203
10.8809
8.9918
8.69163
7.43497
7.22532
6.28983
6.13283
5.43159
5.32269
4.88385
4.7957
4.31162
4.22117
3.76519
3.68202
3.27255
3.19859
2.838
2.77315
2.45835
2.40182
2.12781
2.07853
1.83896
1.79537
1.57945
1.53638
1.29087
1.06787
1.03438
0.894065
0.870004
0.758106
0.738447
0.645258
0.628762
0.550033
0.536063
0.469243
0.457386
0.400678
0.390638
0.342764
0.334349
0.294603
0.287771
0.256427
0.251504
0.231368
0.227291
0.20476
0.200534
0.179143
0.175232
0.155927
0.152436
0.135398
0.132337
0.11751
0.114872
0.102247
0.100072
0.0901295
0.088672
0.0838173
0.0841691
0.0946838
0.102834
0.192089
0.380584
0.435144
0.826304
0.95172
1.84378
1.93058
1.93161
1.92995
1.92942
14.5437
11.6477
10.8064
9.14445
8.63674
7.53243
7.1792
6.36102
6.0983
5.48719
5.30322
4.91287
4.76392
4.34345
4.19316
3.79627
3.65772
3.3009
3.17752
2.86312
2.75487
2.48034
2.38594
2.1469
2.06451
1.8553
1.78195
1.592
1.517
1.2937
1.08852
1.02905
0.904909
0.86411
0.766207
0.73326
0.651896
0.624315
0.555615
0.532273
0.473976
0.454169
0.404703
0.387938
0.346189
0.332149
0.297514
0.286134
0.258867
0.25057
0.232674
0.225793
0.206228
0.199208
0.180591
0.174077
0.157257
0.151435
0.136583
0.131477
0.118554
0.114159
0.103173
0.099576
0.090997
0.0887132
0.0848829
0.0862481
0.0976032
0.115312
0.205137
0.375908
0.470546
0.817544
1.01841
1.76162
1.90248
1.92443
1.9282
1.92891
14.2145
11.7928
10.7648
9.25094
8.60572
7.59984
7.15168
6.41
6.07772
5.52571
5.29202
4.93223
4.74301
4.36448
4.17502
3.81702
3.64216
3.31991
3.16409
2.88001
2.74326
2.49512
2.37584
2.15973
2.05557
1.86621
1.77319
1.59995
1.50355
1.29581
1.10333
1.02631
0.912422
0.860503
0.771712
0.730012
0.656386
0.621515
0.559384
0.529882
0.477172
0.452142
0.407423
0.386239
0.348508
0.330775
0.299496
0.285135
0.260549
0.25002
0.233542
0.224804
0.207195
0.198346
0.181556
0.173336
0.158148
0.150796
0.137379
0.130931
0.119258
0.113711
0.103804
0.09928
0.0916135
0.0888169
0.0857415
0.0879283
0.100269
0.124905
0.214947
0.374278
0.495853
0.81463
1.06341
1.70354
1.87913
1.91798
1.92657
1.92843
13.9823
11.8823
10.7427
9.32268
8.58913
7.64495
7.1359
6.4426
6.06594
5.5515
5.28586
4.94477
4.72968
4.37795
4.16363
3.83045
3.63249
3.33227
3.1558
2.89101
2.7361
2.50476
2.36963
2.16809
2.05005
1.87327
1.76765
1.60483
1.49456
1.29731
1.11354
1.02504
0.917459
0.858373
0.775337
0.728044
0.659328
0.619808
0.561851
0.528422
0.479263
0.450903
0.409203
0.385204
0.350029
0.329944
0.300803
0.284545
0.261671
0.249711
0.234101
0.224171
0.207813
0.197804
0.18218
0.172875
0.158726
0.150401
0.137898
0.130595
0.119718
0.113438
0.10422
0.0991105
0.092036
0.0889326
0.0863903
0.0892029
0.102444
0.131883
0.221986
0.374159
0.513273
0.814515
1.09276
1.66405
1.86125
1.91273
1.9252
1.92802
13.834
11.9333
10.7317
9.36697
8.58097
7.67266
7.1275
6.46255
6.05967
5.56735
5.28273
4.95228
4.72182
4.38593
4.15699
3.83847
3.62692
3.33968
3.15104
2.89762
2.73201
2.51055
2.36607
2.17311
2.04688
1.87749
1.76439
1.60762
1.48906
1.29828
1.11994
1.02454
0.920559
0.857204
0.777534
0.726935
0.661104
0.618841
0.563339
0.527593
0.480523
0.450201
0.410277
0.384618
0.350948
0.329477
0.301596
0.284222
0.262358
0.249548
0.234434
0.223797
0.208178
0.197487
0.182552
0.172608
0.159073
0.150174
0.138209
0.130403
0.119995
0.113284
0.104473
0.0990204
0.0923004
0.0890266
0.0868257
0.0900612
0.103971
0.136435
0.226542
0.374562
0.524207
0.815321
1.11038
1.63952
1.84921
1.90905
1.92423
1.92773
13.7618
11.9563
10.7273
9.38812
8.5777
7.68585
7.1239
6.47202
6.05698
5.57489
5.28144
4.9558
4.71817
4.38964
4.15395
3.84222
3.62438
3.34315
3.14888
2.90072
2.73015
2.51327
2.36446
2.17546
2.04543
1.87946
1.76289
1.60888
1.48644
1.29876
1.12302
1.02439
0.922036
0.85669
0.77857
0.726438
0.66194
0.618405
0.564038
0.52722
0.481116
0.449884
0.410782
0.384355
0.351381
0.329268
0.301971
0.284081
0.262684
0.249479
0.234589
0.223623
0.208348
0.197342
0.182726
0.172487
0.159235
0.150071
0.138355
0.130316
0.120126
0.113215
0.104593
0.0989818
0.0924277
0.0890784
0.0870442
0.0904931
0.104757
0.138681
0.228782
0.3749
0.529483
0.815968
1.11864
1.62777
1.84315
1.90715
1.92372
1.92758
-13.6269
-11.9379
-10.8748
-9.86336
-9.31974
-8.8169
-8.53903
-8.26787
-8.11731
-7.96855
-7.86597
-7.73016
-7.63447
-7.50978
-7.4228
-7.31046
-7.23233
-7.1317
-7.06187
-6.97216
-6.9101
-6.83064
-6.77583
-6.70588
-6.65766
-6.59601
-6.55282
-6.49596
-6.45123
-6.38338
-6.3207
-6.28611
-6.2511
-6.22918
-6.20356
-6.18679
-6.16648
-6.15303
-6.13658
-6.12564
-6.11225
-6.10335
-6.09245
-6.08523
-6.07643
-6.07066
-6.06372
-6.05928
-6.05413
-6.05105
-6.04772
-6.04541
-6.04238
-6.04038
-6.03803
-6.0367
-6.03544
-6.03507
-6.03537
-6.03639
-6.03897
-6.04214
-6.04835
-6.05513
-6.06779
-6.08159
-6.10777
-6.13896
-6.20315
-6.29679
-6.5086
-6.80264
-7.0655
-7.50309
-7.92075
-8.58496
-8.86461
-8.9476
-8.96908
-8.97407
-13.6945
-11.9128
-10.8727
-9.84465
-9.31811
-8.8079
-8.53876
-8.26304
-8.11724
-7.96671
-7.8673
-7.72855
-7.63563
-7.50827
-7.42381
-7.30909
-7.23323
-7.13047
-7.06267
-6.97106
-6.9108
-6.82965
-6.77644
-6.70501
-6.65819
-6.59528
-6.55336
-6.49548
-6.45215
-6.38317
-6.31958
-6.28613
-6.25057
-6.22933
-6.20321
-6.18693
-6.16621
-6.15315
-6.13635
-6.12574
-6.11207
-6.10343
-6.0923
-6.08529
-6.07631
-6.07071
-6.06362
-6.05931
-6.05405
-6.05106
-6.04768
-6.04544
-6.04233
-6.0404
-6.03799
-6.03669
-6.03541
-6.03504
-6.03534
-6.03633
-6.03895
-6.04201
-6.04833
-6.05489
-6.06774
-6.08109
-6.10757
-6.13764
-6.20198
-6.29206
-6.50531
-6.80388
-7.05851
-7.50389
-7.91088
-8.60035
-8.87248
-8.95006
-8.96974
-8.97427
-13.8333
-11.8581
-10.8702
-9.80587
-9.31582
-8.78925
-8.53876
-8.25302
-8.11736
-7.96281
-7.8702
-7.72511
-7.63816
-7.50505
-7.42603
-7.30616
-7.2352
-7.12783
-7.06442
-6.96869
-6.91233
-6.82754
-6.77777
-6.70316
-6.65937
-6.5937
-6.55455
-6.49441
-6.4541
-6.38275
-6.31725
-6.28623
-6.24947
-6.22967
-6.20246
-6.18725
-6.16562
-6.15341
-6.13589
-6.12596
-6.11168
-6.1036
-6.09198
-6.08543
-6.07605
-6.07081
-6.06341
-6.05938
-6.05388
-6.05108
-6.0476
-6.0455
-6.04225
-6.04043
-6.03791
-6.03669
-6.03533
-6.03499
-6.03528
-6.0362
-6.03891
-6.04176
-6.0483
-6.05441
-6.06768
-6.08007
-6.10723
-6.13495
-6.19977
-6.2824
-6.49861
-6.80689
-7.04389
-7.50622
-7.88972
-8.63242
-8.88813
-8.95484
-8.971
-8.97466
-14.0511
-11.7639
-10.8707
-9.74412
-9.315
-8.75956
-8.54016
-8.23699
-8.11823
-7.95644
-7.87519
-7.71935
-7.64254
-7.49966
-7.42989
-7.30128
-7.23864
-7.12344
-7.06745
-6.96476
-6.915
-6.82404
-6.7801
-6.70007
-6.66143
-6.59106
-6.55657
-6.49255
-6.4573
-6.38209
-6.31354
-6.28656
-6.2477
-6.2303
-6.20123
-6.18783
-6.16467
-6.15389
-6.13511
-6.12636
-6.11105
-6.10392
-6.09147
-6.08569
-6.07563
-6.071
-6.06306
-6.0595
-6.05359
-6.05114
-6.04746
-6.04561
-6.0421
-6.04049
-6.03777
-6.03669
-6.03522
-6.03491
-6.0352
-6.036
-6.03886
-6.04136
-6.04828
-6.05363
-6.06765
-6.07846
-6.10686
-6.13077
-6.19685
-6.26741
-6.48822
-6.81275
-7.02026
-7.51171
-7.85419
-8.68398
-8.91134
-8.96164
-8.97277
-8.97519
-14.3604
-11.614
-10.8805
-9.65448
-9.31922
-8.71643
-8.54492
-8.21359
-8.12082
-7.94685
-7.88318
-7.71042
-7.64957
-7.49134
-7.4361
-7.29376
-7.24417
-7.11668
-7.07236
-6.9587
-6.91931
-6.81865
-6.78387
-6.69532
-6.66475
-6.58698
-6.55978
-6.48953
-6.46208
-6.38116
-6.30817
-6.28736
-6.24506
-6.23141
-6.19938
-6.18879
-6.16321
-6.15469
-6.13394
-6.12701
-6.1101
-6.10446
-6.09069
-6.08611
-6.07499
-6.07133
-6.06254
-6.05972
-6.05317
-6.05124
-6.04724
-6.04579
-6.04187
-6.0406
-6.03757
-6.03671
-6.03506
-6.03481
-6.03509
-6.03572
-6.03883
-6.04078
-6.04833
-6.05251
-6.06774
-6.07615
-6.10668
-6.12491
-6.19375
-6.2464
-6.47369
-6.82328
-6.98527
-7.52316
-7.79917
-8.75964
-8.94163
-8.97001
-8.97489
-8.97581
-14.7796
-11.3835
-10.9101
-9.5292
-9.33415
-8.65605
-8.55606
-8.18064
-8.12666
-7.93284
-7.89552
-7.69701
-7.66048
-7.47891
-7.44579
-7.28253
-7.25281
-7.1066
-7.08004
-6.94968
-6.92607
-6.81062
-6.78979
-6.68826
-6.66996
-6.58088
-6.5647
-6.48481
-6.46901
-6.37992
-6.3007
-6.28902
-6.24128
-6.23325
-6.19666
-6.19035
-6.16107
-6.15598
-6.13221
-6.12807
-6.10869
-6.10531
-6.08954
-6.0868
-6.07405
-6.07186
-6.06178
-6.06009
-6.05257
-6.05142
-6.04692
-6.04606
-6.04155
-6.04077
-6.03728
-6.03676
-6.03484
-6.03468
-6.03498
-6.03534
-6.03884
-6.03998
-6.04851
-6.05095
-6.06811
-6.07294
-6.10698
-6.11702
-6.1913
-6.21841
-6.45427
-6.84132
-6.93524
-7.54508
-7.71678
-8.86643
-8.97807
-8.97932
-8.97716
-8.97648
-15.3346
-11.0362
-10.9759
-9.35649
-9.36839
-8.57254
-8.57822
-8.13483
-8.13809
-7.91257
-7.91431
-7.67713
-7.6772
-7.46054
-7.46069
-7.26596
-7.26612
-7.09172
-7.09187
-6.93638
-6.93651
-6.79881
-6.79894
-6.67786
-6.678
-6.57186
-6.57218
-6.47752
-6.47887
-6.37828
-6.29054
-6.29213
-6.23591
-6.23623
-6.19274
-6.19284
-6.15797
-6.15802
-6.1297
-6.12973
-6.10664
-6.10667
-6.08786
-6.08788
-6.07269
-6.0727
-6.06068
-6.06069
-6.05171
-6.05174
-6.04646
-6.04648
-6.04107
-6.04106
-6.03687
-6.03686
-6.03456
-6.03454
-6.03486
-6.03483
-6.03895
-6.03889
-6.04894
-6.0488
-6.06897
-6.06858
-6.10825
-6.10656
-6.19073
-6.18206
-6.42879
-6.87109
-6.86458
-7.58453
-7.59526
-9.01475
-9.01892
-8.98877
-8.97938
-8.97711
-16.0615
-10.5193
-11.1041
-9.11852
-9.43495
-8.45697
-8.61835
-8.07116
-8.15867
-7.88322
-7.94266
-7.64775
-7.70259
-7.43349
-7.48338
-7.24159
-7.28641
-7.06986
-7.10992
-6.91686
-6.95246
-6.78149
-6.81293
-6.66262
-6.69029
-6.55858
-6.58345
-6.46638
-6.49281
-6.37613
-6.2768
-6.29755
-6.22828
-6.24096
-6.18707
-6.19672
-6.15346
-6.16119
-6.12605
-6.13232
-6.10366
-6.10877
-6.08544
-6.08958
-6.07072
-6.07403
-6.0591
-6.06164
-6.05049
-6.05226
-6.04579
-6.04712
-6.04037
-6.04151
-6.03629
-6.03705
-6.03418
-6.03438
-6.03475
-6.03415
-6.03922
-6.03739
-6.04977
-6.04583
-6.07066
-6.0626
-6.11117
-6.09267
-6.19388
-6.1355
-6.3955
-6.91881
-6.76486
-7.65234
-7.4174
-9.21968
-9.06115
-8.99739
-8.98131
-8.97766
-17.0102
-9.75729
-11.3351
-8.78848
-9.55328
-8.29583
-8.68681
-7.9821
-8.19377
-7.84046
-7.98518
-7.60439
-7.74093
-7.39368
-7.51773
-7.20575
-7.31715
-7.03774
-7.1373
-6.88819
-6.97667
-6.75607
-6.83419
-6.64025
-6.70896
-6.53904
-6.6004
-6.44951
-6.51246
-6.37328
-6.25826
-6.30656
-6.21737
-6.24835
-6.17886
-6.20271
-6.14692
-6.16608
-6.12074
-6.13631
-6.09934
-6.11202
-6.08191
-6.09219
-6.06786
-6.07609
-6.05682
-6.06315
-6.04875
-6.05312
-6.0448
-6.04808
-6.03936
-6.04221
-6.03548
-6.03739
-6.03368
-6.03422
-6.03469
-6.03325
-6.03977
-6.03532
-6.05125
-6.04172
-6.07366
-6.05437
-6.11677
-6.07399
-6.20341
-6.07621
-6.35167
-6.99362
-6.62348
-7.76506
-7.15804
-9.50304
-9.09958
-9.0041
-8.98275
-8.97806
-18.2488
-8.64202
-11.731
-8.32592
-9.75244
-8.0687
-8.79905
-7.85633
-8.25142
-7.77773
-8.04867
-7.54027
-7.79858
-7.33497
-7.56948
-7.15293
-7.36347
-6.99041
-7.17857
-6.84597
-7.0132
-6.71865
-6.8663
-6.60734
-6.73713
-6.51021
-6.62579
-6.42405
-6.54017
-6.36943
-6.23316
-6.32105
-6.20163
-6.25973
-6.16689
-6.21187
-6.13736
-6.17352
-6.11298
-6.14238
-6.09301
-6.11695
-6.07675
-6.09618
-6.06369
-6.07922
-6.0535
-6.06547
-6.04624
-6.05447
-6.04333
-6.04951
-6.03787
-6.04329
-6.0343
-6.03795
-6.03299
-6.03405
-6.03468
-6.03203
-6.04075
-6.03242
-6.05375
-6.03594
-6.0787
-6.04285
-6.12657
-6.04841
-6.22321
-6.0008
-6.29318
-7.10892
-6.42163
-7.94774
-6.78063
-9.89639
-9.12574
-9.00789
-8.98356
-8.97832
)
;

boundaryField
{
    F1_1
    {
        type            calculated;
        value           nonuniform List<scalar> 
80
(
18.951
7.97351
11.9794
8.04103
9.87603
7.90478
8.86805
7.71477
8.28892
7.55131
7.90334
7.48938
7.75855
7.28674
7.5589
7.1101
7.36542
6.95305
7.18603
6.8135
7.02283
6.69052
6.87645
6.58302
6.74706
6.48922
6.63551
6.40569
6.55186
6.3645
6.21724
6.32752
6.19101
6.26472
6.15871
6.21588
6.13079
6.17679
6.10765
6.14505
6.08866
6.11913
6.07321
6.09793
6.06082
6.08059
6.05122
6.06645
6.04449
6.05495
6.0422
6.05005
6.03678
6.04367
6.03344
6.03807
6.03246
6.03378
6.03459
6.03116
6.04127
6.0306
6.05522
6.03245
6.08177
6.03604
6.1327
6.0335
6.23619
5.95852
6.25961
7.17866
6.30275
8.06032
6.55696
10.1252
9.13442
9.00892
8.98378
8.9784
)
;
    }
    F1_2
    {
        type            calculated;
        value           nonuniform List<scalar> 
80
(
-19.3858
-7.90772
-12.4936
-7.0461
-9.80592
-6.1551
-8.0767
-5.34177
-6.77122
-4.71071
-5.71141
-4.45895
-5.26911
-3.84034
-4.65818
-3.31728
-4.07112
-2.86873
-3.54002
-2.48179
-3.07076
-2.14724
-2.66084
-1.85723
-2.3055
-1.6037
-2.0028
-1.37548
-1.77875
-1.26254
-0.838803
-1.15695
-0.751736
-0.973722
-0.6466
-0.825862
-0.552825
-0.702887
-0.472067
-0.599064
-0.403107
-0.510871
-0.344535
-0.435753
-0.29528
-0.371669
-0.254938
-0.316861
-0.224543
-0.269675
-0.212126