/*--------------------------------*- C++ -*----------------------------------*\
| =========                 |                                                 |
| \\      /  F ield         | OpenFOAM: The Open Source CFD Toolbox           |
|  \\    /   O peration     | Version:  5.x                                   |
|   \\  /    A nd           | Web:      www.OpenFOAM.org                      |
|    \\/     M anipulation  |                                                 |
\*---------------------------------------------------------------------------*/
FoamFile
{
    version     2.0;
    format      ascii;
    class       volScalarField;
    location    "2.8";
    object      T;
}
// * * * * * * * * * * * * * * * * * * * * * * * * * * * * * * * * * * * * * //

dimensions      [0 0 0 1 0 0 0];

internalField   nonuniform List<scalar> 
2048
(
9.8102
9.8104
9.81079
9.81136
9.81209
9.81297
9.81398
9.8151
9.81631
9.81759
9.81891
9.82028
9.82167
9.82307
9.82447
9.82586
9.82724
9.82859
9.82991
9.8312
9.83245
9.83366
9.83483
9.83596
9.83705
9.83808
9.83907
9.84001
9.8409
9.84172
9.84249
9.84319
9.84382
9.84438
9.84484
9.84522
9.8455
9.84568
9.84573
9.84566
9.84546
9.84512
9.84462
9.84396
9.84314
9.84214
9.84097
9.83963
9.83812
9.83645
9.83464
9.83271
9.83069
9.82862
9.82655
9.82451
9.82257
9.82076
9.81912
9.81771
9.81654
9.81564
9.81503
9.81473
9.43875
9.43933
9.44049
9.44218
9.44437
9.44699
9.45
9.45332
9.4569
9.46069
9.46463
9.46868
9.4728
9.47695
9.4811
9.48522
9.48929
9.49329
9.4972
9.50101
9.50471
9.5083
9.51176
9.5151
9.51831
9.52137
9.5243
9.52708
9.52969
9.53214
9.53441
9.53649
9.53836
9.54
9.54139
9.54252
9.54335
9.54387
9.54405
9.54385
9.54326
9.54225
9.54078
9.53885
9.53642
9.53348
9.53002
9.52605
9.52157
9.51662
9.51124
9.50551
9.49951
9.49337
9.4872
9.48114
9.47535
9.46996
9.4651
9.46089
9.45742
9.45475
9.45295
9.45204
9.08309
9.08406
9.08598
9.08878
9.0924
9.09673
9.10169
9.10716
9.11306
9.11929
9.12576
9.13241
9.13916
9.14597
9.15277
9.15951
9.16618
9.17272
9.17911
9.18535
9.1914
9.19726
9.20292
9.20837
9.21361
9.21862
9.22341
9.22795
9.23223
9.23624
9.23996
9.24336
9.24643
9.24912
9.25142
9.25328
9.25466
9.25553
9.25583
9.25554
9.2546
9.25296
9.25059
9.24745
9.2435
9.23871
9.23306
9.22656
9.21922
9.21109
9.20226
9.19282
9.18294
9.17279
9.1626
9.15259
9.14302
9.13411
9.12608
9.11912
9.11339
9.10899
9.10602
9.10452
8.74232
8.74368
8.74636
8.75028
8.75532
8.76136
8.76826
8.77586
8.78403
8.79264
8.80159
8.81077
8.82009
8.82946
8.83883
8.84811
8.85728
8.86627
8.87505
8.88361
8.89191
8.89996
8.90772
8.9152
8.92239
8.92927
8.93584
8.94208
8.94796
8.95348
8.9586
8.96329
8.96752
8.97125
8.97443
8.97701
8.97895
8.98018
8.98064
8.98028
8.97903
8.97684
8.97363
8.96936
8.96397
8.95742
8.94968
8.94074
8.93064
8.91942
8.9072
8.89412
8.88039
8.86627
8.85207
8.83812
8.82476
8.81233
8.80114
8.79145
8.78348
8.77737
8.77324
8.77116
8.41558
8.41734
8.42081
8.42587
8.43236
8.44012
8.44895
8.45867
8.4691
8.48008
8.49146
8.50311
8.51493
8.52681
8.53866
8.55041
8.56199
8.57335
8.58444
8.59523
8.6057
8.61583
8.62562
8.63504
8.6441
8.65278
8.66106
8.66893
8.67637
8.68334
8.68981
8.69576
8.70113
8.70587
8.70993
8.71324
8.71574
8.71736
8.71801
8.71763
8.71613
8.71343
8.70946
8.70414
8.6974
8.68918
8.67944
8.66817
8.65538
8.64115
8.62559
8.60889
8.59132
8.57321
8.55496
8.53701
8.51983
8.50385
8.48947
8.47703
8.46681
8.459
8.45372
8.45106
8.10212
8.1043
8.10858
8.11481
8.12279
8.13231
8.14311
8.15495
8.16763
8.18095
8.19472
8.20881
8.22308
8.2374
8.25169
8.26583
8.27975
8.2934
8.30671
8.31965
8.33219
8.34433
8.35605
8.36735
8.3782
8.38861
8.39854
8.40799
8.41691
8.42529
8.43309
8.44026
8.44675
8.4525
8.45743
8.46148
8.46456
8.46658
8.46746
8.4671
8.46541
8.46228
8.45762
8.45134
8.44335
8.43356
8.42192
8.4084
8.39301
8.37581
8.35695
8.33664
8.3152
8.29305
8.27067
8.24864
8.22754
8.20792
8.1903
8.17509
8.16261
8.15308
8.14666
8.14343
7.80122
7.80383
7.80897
7.81642
7.82596
7.83728
7.85008
7.86408
7.87901
7.89465
7.9108
7.92729
7.94396
7.96068
7.97733
7.99381
8.01001
8.02586
8.04132
8.05632
8.07087
8.08493
8.09851
8.11159
8.12417
8.13624
8.14776
8.15872
8.1691
8.17885
8.18793
8.1963
8.20389
8.21063
8.21645
8.22124
8.22492
8.22739
8.22853
8.22824
8.22641
8.22292
8.21766
8.21051
8.20135
8.19009
8.17665
8.16097
8.14306
8.12296
8.10083
8.0769
8.05154
8.02525
7.99864
7.9724
7.94725
7.92389
7.90294
7.8849
7.87014
7.8589
7.85135
7.84755
7.51221
7.51529
7.52133
7.53009
7.54124
7.55443
7.56929
7.58547
7.60267
7.62064
7.63914
7.65799
7.67702
7.6961
7.71507
7.73381
7.75223
7.77023
7.78775
7.80474
7.8212
7.83711
7.85247
7.86727
7.88151
7.89516
7.90822
7.92065
7.93242
7.9435
7.95384
7.96338
7.97206
7.97979
7.98649
7.99205
7.99635
7.99929
8.00074
8.00058
7.99867
7.9949
7.98911
7.98117
7.97096
7.95833
7.94319
7.92546
7.9051
7.88216
7.85677
7.8292
7.79986
7.76933
7.73832
7.7077
7.67835
7.65112
7.62675
7.60583
7.58876
7.57581
7.56713
7.56277
7.23447
7.23806
7.24508
7.25521
7.26808
7.28322
7.30019
7.3186
7.33809
7.35836
7.3792
7.40038
7.42175
7.44313
7.46437
7.48534
7.50591
7.52598
7.5455
7.56441
7.5827
7.60037
7.61743
7.63388
7.64971
7.6649
7.67943
7.69328
7.70641
7.71877
7.73033
7.74103
7.75079
7.75951
7.7671
7.77343
7.77839
7.78183
7.78362
7.78364
7.78172
7.77773
7.7715
7.76288
7.7517
7.73782
7.72109
7.7014
7.67869
7.65297
7.62436
7.59313
7.55972
7.5248
7.48923
7.45402
7.42027
7.389
7.36111
7.33725
7.31787
7.30322
7.29342
7.28852
6.96743
6.97157
6.97964
6.99126
7.00594
7.02312
7.04229
7.06296
7.08475
7.10734
7.13048
7.15397
7.17763
7.20127
7.22475
7.24789
7.27056
7.29265
7.31409
7.33483
7.35488
7.37423
7.39292
7.41095
7.4283
7.44497
7.46093
7.47615
7.49058
7.5042
7.51695
7.52879
7.53961
7.54933
7.55782
7.56494
7.57057
7.57454
7.57673
7.57697
7.5751
7.57097
7.56438
7.55517
7.54314
7.52811
7.5099
7.48836
7.4634
7.43498
7.40318
7.36826
7.33069
7.29123
7.25088
7.21085
7.17247
7.13699
7.10545
7.07861
7.05691
7.04059
7.02971
7.02428
6.71054
6.71528
6.7245
6.73772
6.75433
6.77367
6.7951
6.81809
6.8422
6.86709
6.89252
6.91828
6.94419
6.97006
6.99573
7.021
7.04572
7.06976
7.09305
7.11555
7.13727
7.15824
7.17848
7.19801
7.21684
7.23493
7.25226
7.2688
7.2845
7.29933
7.31325
7.3262
7.33808
7.34879
7.35819
7.36612
7.37244
7.37699
7.3796
7.38011
7.37836
7.37415
7.3673
7.35759
7.34481
7.32874
7.30917
7.28592
7.25881
7.22777
7.19282
7.1542
7.11239
7.06821
7.02283
6.97771
6.93444
6.89455
6.85925
6.82938
6.80538
6.78743
6.77552
6.76958
6.46328
6.46869
6.47917
6.49413
6.51281
6.53441
6.5582
6.58355
6.60999
6.63717
6.66485
6.69284
6.72097
6.74904
6.77686
6.80422
6.83094
6.85688
6.88195
6.90613
6.92944
6.95193
6.97365
6.99463
7.01486
7.03433
7.05299
7.0708
7.08772
7.10373
7.11879
7.13283
7.14576
7.15747
7.16778
7.17655
7.18359
7.18873
7.1918
7.19264
7.19105
7.18684
7.1798
7.16968
7.15626
7.13927
7.11848
7.09362
7.0645
7.03094
6.99291
6.95058
6.90443
6.85535
6.80467
6.75414
6.70568
6.66115
6.62197
6.58906
6.56281
6.5433
6.53042
6.52402
6.22516
6.2313
6.24318
6.26003
6.28095
6.30495
6.33118
6.35893
6.3877
6.41714
6.44704
6.47722
6.50752
6.53776
6.5677
6.59712
6.6258
6.65357
6.68036
6.70613
6.73095
6.75488
6.77801
6.80037
6.82196
6.84276
6.8627
6.88174
6.89984
6.91698
6.93314
6.94826
6.96224
6.97494
6.98619
6.9958
7.00358
7.00934
7.01292
7.01411
7.01275
7.0086
7.00145
6.99102
6.97706
6.95928
6.93738
6.91107
6.88006
6.8441
6.80308
6.75705
6.70647
6.65229
6.59602
6.5397
6.48572
6.4363
6.39314
6.35719
6.32877
6.3078
6.29403
6.28723
5.99572
6.00269
6.0161
6.03503
6.05835
6.08489
6.11365
6.14385
6.17495
6.20661
6.23867
6.271
6.30344
6.3358
6.36784
6.39929
6.42989
6.45944
6.48787
6.51516
6.54139
6.56668
6.59114
6.61483
6.63773
6.6598
6.68099
6.70121
6.72044
6.73868
6.75591
6.77209
6.7871
6.80081
6.813
6.82347
6.83201
6.83842
6.84252
6.84412
6.84303
6.83901
6.83182
6.82118
6.80678
6.78832
6.76545
6.73782
6.70508
6.66688
6.62296
6.57327
6.5182
6.4587
6.39649
6.33399
6.27408
6.21952
6.17228
6.13333
6.10285
6.08056
6.06602
6.05886
5.77452
5.7824
5.79752
5.81874
5.84465
5.87388
5.90527
5.93795
5.97135
6.00519
6.03935
6.07376
6.1083
6.14276
6.17688
6.21033
6.24281
6.27409
6.30409
6.33281
6.36037
6.38693
6.41265
6.4376
6.46176
6.48508
6.50747
6.52883
6.54914
6.56843
6.58671
6.60392
6.61997
6.63468
6.64783
6.65918
6.6685
6.67558
6.68023
6.68227
6.68149
6.67766
6.67051
6.65974
6.64501
6.62597
6.60227
6.57348
6.53917
6.49888
6.4522
6.39893
6.3393
6.27429
6.20578
6.1366
6.07032
6.01033
5.95893
5.91707
5.8847
5.86125
5.84607
5.83863
5.56112
5.57003
5.58706
5.61079
5.63952
5.67159
5.70569
5.74087
5.77655
5.8125
5.84869
5.88512
5.92171
5.95824
5.99442
6.02987
6.06419
6.09715
6.12865
6.1587
6.18749
6.21524
6.24215
6.2683
6.29369
6.31823
6.34178
6.36423
6.38558
6.40587
6.42515
6.44339
6.46046
6.47619
6.49031
6.50255
6.51267
6.52043
6.52566
6.52816
6.52773
6.52415
6.51712
6.50629
6.49132
6.47184
6.44743
6.41763
6.38193
6.33975
6.29048
6.23371
6.1695
6.09877
6.02356
5.94716
5.87398
5.80826
5.75266
5.70803
5.67398
5.64958
5.63392
5.62627
5.35513
5.36521
5.38435
5.41086
5.44264
5.47771
5.51461
5.55231
5.59022
5.62819
5.66631
5.7047
5.74329
5.78186
5.82011
5.85754
5.89368
5.92827
5.96119
5.99249
6.0224
6.05124
6.07927
6.10658
6.13315
6.15888
6.18358
6.20708
6.2294
6.25064
6.27089
6.29012
6.30822
6.32498
6.34009
6.35324
6.36416
6.37262
6.37843
6.38142
6.38139
6.3781
6.37125
6.36045
6.34534
6.32551
6.30053
6.26988
6.23297
6.18911
6.13746
6.07733
6.00853
5.9319
5.84957
5.76532
5.68461
5.61283
5.55305
5.50585
5.47038
5.44528
5.42931
5.42155
5.15615
5.16754
5.18905
5.21863
5.25371
5.29194
5.33173
5.37196
5.41202
5.4519
5.49186
5.53214
5.57268
5.61327
5.65358
5.693
5.73094
5.76711
5.80139
5.83382
5.86475
5.89458
5.92366
5.95208
5.9798
6.00671
6.03253
6.05704
6.08026
6.10239
6.12358
6.14379
6.1629
6.1807
6.19683
6.2109
6.22263
6.2318
6.23821
6.24169
6.24209
6.23915
6.23254
6.22185
6.20667
6.1866
6.16117
6.12982
6.0919
6.04659
5.99281
5.9295
5.85616
5.77345
5.68356
5.59072
5.50176
5.42358
5.35967
5.31019
5.27364
5.24811
5.23202
5.22425
4.96382
4.9767
5.00083
5.03381
5.07248
5.11402
5.15676
5.19953
5.24165
5.28331
5.32497
5.36707
5.40952
5.45209
5.4945
5.53593
5.57563
5.61333
5.6489
5.68237
5.71418
5.7449
5.77497
5.80446
5.8333
5.86139
5.88833
5.91378
5.93785
5.9608
5.98289
6.00406
6.02417
6.04304
6.06021
6.0752
6.08776
6.09765
6.10465
6.10864
6.10948
6.10694
6.10064
6.09012
6.07496
6.05473
6.02898
5.99709
5.95834
5.91185
5.8562
5.78996
5.71214
5.62323
5.52535
5.42307
5.32496
5.24003
5.17214
5.12076
5.0835
5.05787
5.04185
5.03417
4.77776
4.79234
4.81938
4.85613
4.8987
4.94368
4.98944
5.03474
5.07881
5.12209
5.16532
5.20916
5.25348
5.298
5.34253
5.38602
5.42745
5.46663
5.50343
5.53781
5.57039
5.60188
5.63288
5.66341
5.69334
5.72262
5.75068
5.77703
5.80185
5.82555
5.8485
5.87061
5.89172
5.91169
5.92993
5.94585
5.95923
5.96983
5.97742
5.98193
5.98324
5.98113
5.9752
5.96493
5.94984
5.92954
5.9036
5.87129
5.83191
5.78451
5.72733
5.65843
5.57625
5.48107
5.3748
5.26205
5.15371
5.06169
4.99009
4.93727
4.89977
4.87435
4.85863
4.85113
4.59765
4.61415
4.6444
4.68535
4.73216
4.78068
4.82951
4.87734
4.92321
4.96794
5.01255
5.05809
5.10423
5.15064
5.19736
5.24298
5.28608
5.32671
5.36469
5.39984
5.43304
5.46519
5.49708
5.52861
5.5596
5.5901
5.61931
5.64648
5.67197
5.69633
5.72011
5.74315
5.76524
5.78634
5.80569
5.82253
5.83674
5.84807
5.85623
5.86124
5.86303
5.86141
5.85591
5.84594
5.83098
5.81069
5.78465
5.75206
5.71222
5.66422
5.60586
5.53467
5.44828
5.34681
5.2318
5.10742
4.98748
4.88805
4.81316
4.75949
4.72224
4.69739
4.68218
4.67496
4.42312
4.44186
4.47559
4.52122
4.57266
4.62475
4.67672
4.7271
4.77458
4.82054
4.86634
4.91353
4.96147
5.00968
5.0587
5.10654
5.15124
5.19328
5.2324
5.26818
5.30185
5.3345
5.36727
5.39979
5.43177
5.46356
5.49397
5.52188
5.54792
5.57284
5.59745
5.6214
5.64442
5.66671
5.68724
5.70498
5.72001
5.73206
5.74078
5.74628
5.74855
5.74746
5.74245
5.73284
5.71806
5.69782
5.67182
5.63904
5.59889
5.55062
5.49149
5.41841
5.32799
5.22029
5.09635
4.95893
4.82569
4.71863
4.64103
4.58722
4.55076
4.52683
4.51234
4.5055
4.25386
4.27521
4.31265
4.36354
4.42006
4.47566
4.53081
4.5838
4.63263
4.6796
4.72635
4.77521
4.82492
4.87479
4.92625
4.97646
5.02263
5.06606
5.10632
5.14255
5.17653
5.20952
5.24317
5.27666
5.30955
5.34273
5.37442
5.40296
5.42945
5.45478
5.48023
5.5051
5.52899
5.55254
5.57432
5.59291
5.60876
5.62156
5.63078
5.63676
5.63951
5.639
5.63454
5.62535
5.61077
5.59063
5.56479
5.53191
5.49155
5.44337
5.38388
5.30944
5.21515
5.10135
4.96854
4.8164
4.66767
4.55288
4.47342
4.42029
4.3852
4.36255
4.34897
4.34259
4.08953
4.11399
4.15529
4.21209
4.27424
4.33315
4.39153
4.44724
4.49711
4.54486
4.59223
4.64284
4.69432
4.74562
4.79974
4.85254
4.89996
4.94476
4.98622
5.02267
5.0568
5.08993
5.12451
5.159
5.19265
5.22736
5.26047
5.28947
5.31629
5.34188
5.3682
5.39399
5.41864
5.44356
5.4667
5.48606
5.50272
5.5163
5.52596
5.5324
5.53561
5.53573
5.53189
5.52318
5.50882
5.48878
5.46324
5.43032
5.38981
5.34211
5.2827
5.20753
5.1095
4.98982
4.84855
4.67972
4.51263
4.39031
4.31009
4.25858
4.22544
4.20439
4.1919
4.18607
3.92981
3.95804
4.00317
4.06671
4.13514
4.19692
4.25861
4.31728
4.36774
4.41605
4.46364
4.51616
4.56946
4.62179
4.67889
4.73461
4.78294
4.82912
4.87191
4.90828
4.94242
4.97542
5.01105
5.04656
5.08074
5.1172
5.15194
5.18119
5.20821
5.23384
5.26113
5.28787
5.31308
5.33954
5.3642
5.38417
5.40166
5.41605
5.42608
5.43295
5.43658
5.4374
5.43425
5.42608
5.41193
5.39196
5.36693
5.33399
5.29328
5.24653
5.18762
5.1125
5.01075
4.88544
4.73673
4.54884
4.35964
4.23039
4.15088
4.102
4.07139
4.05226
4.041
4.03577
3.77434
3.80727
3.85593
3.92722
4.00277
4.06667
4.13181
4.19379
4.24423
4.29295
4.3402
4.39495
4.45015
4.50292
4.56347
4.62256
4.67124
4.71887
4.76322
4.7991
4.83315
4.86566
4.90257
4.93918
4.97351
5.01203
5.04869
5.07785
5.10498
5.13037
5.15879
5.18653
5.21203
5.24025
5.26663
5.28697
5.30531
5.32062
5.33087
5.33816
5.34216
5.34376
5.34136
5.3338
5.31984
5.29988
5.27559
5.24261
5.20156
5.1563
5.09826
5.02419
4.91861
4.7879
4.63358
4.4238
4.20754
4.07266
3.99566
3.9505
3.92296
3.90601
3.89612
3.89154
3.62276
3.66171
3.71312
3.79344
3.87722
3.94199
4.01083
4.07672
4.12628
4.17535
4.22149
4.27901
4.33627
4.38856
4.45322
4.51632
4.56452
4.61373
4.66003
4.69486
4.72879
4.76031
4.79886
4.83669
4.8706
4.91162
4.95061
4.97922
5.00643
5.03116
5.061
5.08982
5.11515
5.14546
5.17387
5.1942
5.21345
5.22981
5.24008
5.2478
5.25208
5.25457
5.25299
5.24613
5.23231
5.2122
5.18901
5.15595
5.11422
5.07114
5.01424
4.94254
4.83272
4.69671
4.53985
4.30481
4.0549
3.91671
3.84442
3.80407
3.78009
3.76554
3.75711
3.75322
3.47465
3.52151
3.57422
3.66524
3.75869
3.82245
3.89538
3.9661
4.01353
4.06314
4.10705
4.16815
4.22777
4.2782
4.34793
4.41594
4.46239
4.51342
4.56227
4.59526
4.62919
4.65901
4.69974
4.739
4.77162
4.81577
4.85767
4.88501
4.91239
4.93587
4.96756
4.99763
5.02211
5.05497
5.08581
5.10558
5.12583
5.14346
5.15347
5.16168
5.16608
5.16961
5.16892
5.16285
5.14911
5.12861
5.10702
5.07378
5.0308
4.99083
4.93508
4.86753
4.7527
4.61119
4.45654
4.19222
3.89991
3.76225
3.69722
3.66272
3.64271
3.63071
3.6238
3.62063
3.32956
3.387
3.43856
3.54247
3.64754
3.70745
3.78514
3.86203
3.90554
3.95626
3.99635
4.06225
4.1247
4.17124
4.24736
4.32154
4.36438
4.41766
4.46997
4.49994
4.53425
4.56132
4.60507
4.64607
4.67612
4.72427
4.76987
4.79491
4.82275
4.84414
4.87832
4.90988
4.93252
4.96859
5.00242
5.0208
5.04224
5.06145
5.07079
5.07961
5.08392
5.08867
5.08892
5.08378
5.07006
5.04875
5.02947
4.99593
4.95082
4.9152
4.86026
4.79931
4.67816
4.53039
4.38498
4.08663
3.74025
3.60918
3.55419
3.52648
3.51075
3.50141
3.49606
3.4936
3.18693
3.25878
3.30529
3.42499
3.54431
3.59628
3.67978
3.76477
3.80179
3.85477
3.88875
3.96122
4.02722
4.06695
4.15133
4.23338
4.26996
4.32615
4.38322
4.4085
4.44395
4.46679
4.51472
4.55794
4.58357
4.63695
4.68729
4.70857
4.73747
4.75556
4.79317
4.82657
4.84595
4.88614
4.92373
4.93953
4.96246
4.9837
4.99175
5.00143
5.00531
5.01159
5.01278
5.00876
4.99498
4.97225
4.95628
4.92226
4.87369
4.84419
4.78911
4.73814
4.60867
4.45297
4.32689
3.9889
3.57303
3.45766
3.41558
3.39538
3.38412
3.37749
3.3737
3.37197
3.0461
3.13773
3.17333
3.31267
3.44976
3.48802
3.57893
3.67473
3.70159
3.75889
3.78347
3.86501
3.93562
3.96447
4.05963
4.1519
4.17845
4.2386
4.30222
4.32042
4.35839
4.37483
4.42862
4.47476
4.49335
4.55363
4.61013
4.62554
4.65659
4.66965
4.71201
4.74777
4.76187
4.80745
4.84983
4.86136
4.88628
4.91016
4.91608
4.92703
4.92999
4.93818
4.9403
4.93761
4.92373
4.89868
4.88741
4.85272
4.79876
4.77786
4.72083
4.6845
4.54385
4.37709
4.28444
3.90026
3.39454
3.30823
3.28168
3.26947
3.26275
3.25881
3.25657
3.25554
2.90624
3.02514
3.04128
3.2054
3.36493
3.38152
3.48221
3.59253
3.60405
3.66906
3.67958
3.77362
3.85038
3.86272
3.97212
4.07769
4.08904
4.15467
4.22734
4.23508
4.27778
4.28479
4.34671
4.39678
4.40472
4.47417
4.53866
4.54525
4.58026
4.58584
4.63476
4.67365
4.67969
4.73239
4.7809
4.78586
4.81348
4.84086
4.84343
4.85634
4.85768
4.86834
4.87126
4.87022
4.85624
4.82755
4.82287
4.78731
4.72523
4.71648
4.65436
4.6391
4.48334
4.30035
4.26033
3.82237
3.20015
3.16196
3.15282
3.14875
3.14653
3.14523
3.14449
3.14416
)
;

boundaryField
{
    left
    {
        type            zeroGradient;
    }
    right
    {
        type            zeroGradient;
    }
    interface
    {
        type            fixedValue;
        value           nonuniform List<scalar> 
64
(
2.83476
2.97281
2.97281
3.15305
3.32725
3.32725
3.4347
3.55495
3.55495
3.62658
3.62658
3.72941
3.81043
3.81043
3.92942
4.0439
4.0439
4.11347
4.19245
4.19245
4.23932
4.23932
4.30699
4.35977
4.35977
4.43547
4.50526
4.50526
4.54373
4.54373
4.59727
4.63829
4.63829
4.69581
4.74836
4.74836
4.77791
4.80765
4.80765
4.82209
4.82209
4.83441
4.83762
4.83762
4.82365
4.79216
4.79216
4.75605
4.68789
4.68789
4.62064
4.62064
4.45449
4.25907
4.25907
3.78917
3.0897
3.0897
3.0897
3.0897
3.0897
3.0897
3.0897
3.0897
)
;
    }
    bottom
    {
        type            fixedValue;
        value           uniform 10;
    }
    defaultFaces
    {
        type            empty;
    }
}


// ************************************************************************* //
