/*--------------------------------*- C++ -*----------------------------------*\
| =========                 |                                                 |
| \\      /  F ield         | OpenFOAM: The Open Source CFD Toolbox           |
|  \\    /   O peration     | Version:  5.x                                   |
|   \\  /    A nd           | Web:      www.OpenFOAM.org                      |
|    \\/     M anipulation  |                                                 |
\*---------------------------------------------------------------------------*/
FoamFile
{
    version     2.0;
    format      ascii;
    class       volScalarField;
    location    "2.6";
    object      T;
}
// * * * * * * * * * * * * * * * * * * * * * * * * * * * * * * * * * * * * * //

dimensions      [0 0 0 1 0 0 0];

internalField   nonuniform List<scalar> 
6300
(
322.851
322.554
322.255
321.955
321.653
321.347
321.038
320.724
320.406
320.083
319.755
319.421
319.081
318.735
318.384
322.852
322.555
322.257
321.957
321.655
321.35
321.042
320.729
320.411
320.089
319.76
319.426
319.087
318.741
318.389
322.852
322.557
322.26
321.962
321.662
321.358
321.05
320.738
320.422
320.1
319.772
319.438
319.098
318.752
318.4
322.853
322.56
322.266
321.969
321.671
321.369
321.063
320.752
320.437
320.116
319.789
319.456
319.116
318.77
318.417
322.855
322.564
322.273
321.979
321.683
321.383
321.08
320.772
320.458
320.139
319.813
319.48
319.141
318.794
318.441
322.857
322.57
322.282
321.991
321.699
321.402
321.102
320.796
320.485
320.168
319.843
319.511
319.172
318.825
318.47
322.859
322.576
322.292
322.006
321.718
321.425
321.129
320.827
320.518
320.203
319.881
319.55
319.211
318.863
318.507
322.861
322.584
322.305
322.024
321.74
321.453
321.161
320.863
320.559
320.247
319.927
319.598
319.259
318.91
318.551
322.864
322.593
322.32
322.045
321.767
321.485
321.198
320.906
320.606
320.299
319.982
319.654
319.316
318.966
318.605
322.868
322.603
322.337
322.069
321.797
321.522
321.242
320.956
320.662
320.36
320.047
319.723
319.385
319.034
318.669
322.872
322.614
322.356
322.095
321.832
321.564
321.292
321.013
320.727
320.431
320.124
319.804
319.468
319.116
318.747
322.876
322.627
322.377
322.125
321.87
321.611
321.348
321.078
320.8
320.513
320.214
319.9
319.568
319.217
318.842
322.88
322.641
322.4
322.157
321.912
321.663
321.41
321.151
320.884
320.607
320.318
320.013
319.688
319.34
318.963
322.885
322.655
322.424
322.192
321.958
321.72
321.478
321.231
320.977
320.714
320.438
320.146
319.832
319.491
319.118
322.89
322.671
322.451
322.229
322.006
321.781
321.552
321.319
321.08
320.833
320.575
320.301
320.004
319.673
319.306
318.056
317.755
317.45
317.142
316.83
316.516
316.199
315.879
315.557
315.233
314.907
314.579
314.249
313.918
313.586
313.253
312.92
312.585
312.251
311.916
311.58
311.245
310.91
310.574
310.239
309.903
309.567
309.231
308.895
308.559
308.224
307.888
307.553
307.218
306.884
306.549
306.215
305.882
305.548
305.215
304.882
304.55
304.217
303.885
303.552
303.221
302.889
302.558
302.227
301.897
301.567
301.237
300.908
300.58
300.251
299.923
299.595
299.268
298.94
298.613
298.287
297.961
297.635
297.31
296.985
296.661
296.338
296.015
295.692
295.37
295.048
294.727
294.406
294.086
293.765
293.446
293.126
292.807
292.489
292.171
291.853
291.535
291.218
290.9
290.581
290.263
289.943
289.623
289.301
288.979
318.062
317.76
317.455
317.146
316.835
316.52
316.203
315.883
315.56
315.236
314.909
314.581
314.251
313.92
313.588
313.254
312.92
312.586
312.251
311.916
311.581
311.245
310.91
310.574
310.239
309.903
309.567
309.231
308.895
308.559
308.223
307.888
307.553
307.218
306.883
306.549
306.215
305.881
305.548
305.215
304.882
304.549
304.217
303.884
303.552
303.22
302.888
302.557
302.226
301.896
301.566
301.237
300.908
300.579
300.251
299.923
299.595
299.267
298.94
298.613
298.286
297.96
297.634
297.309
296.984
296.66
296.337
296.014
295.692
295.37
295.048
294.727
294.406
294.085
293.765
293.445
293.126
292.807
292.488
292.17
291.853
291.535
291.218
290.9
290.582
290.264
289.944
289.624
289.303
288.98
318.072
317.77
317.465
317.155
316.843
316.528
316.21
315.889
315.567
315.242
314.915
314.586
314.255
313.923
313.59
313.256
312.922
312.587
312.252
311.916
311.581
311.245
310.91
310.574
310.239
309.903
309.567
309.231
308.895
308.559
308.223
307.887
307.552
307.216
306.882
306.548
306.214
305.881
305.547
305.214
304.882
304.549
304.216
303.884
303.551
303.219
302.887
302.556
302.225
301.895
301.565
301.235
300.907
300.578
300.25
299.922
299.594
299.266
298.939
298.612
298.285
297.958
297.632
297.307
296.983
296.659
296.335
296.013
295.69
295.368
295.047
294.725
294.404
294.084
293.763
293.444
293.124
292.805
292.487
292.169
291.852
291.535
291.218
290.901
290.584
290.266
289.947
289.627
289.306
288.983
318.089
317.786
317.479
317.169
316.856
316.54
316.221
315.9
315.576
315.25
314.922
314.592
314.261
313.928
313.594
313.259
312.924
312.588
312.252
311.917
311.581
311.246
310.91
310.575
310.239
309.903
309.567
309.231
308.895
308.558
308.222
307.886
307.55
307.215
306.88
306.546
306.212
305.879
305.546
305.214
304.881
304.548
304.215
303.883
303.55
303.217
302.885
302.554
302.223
301.892
301.563
301.234
300.905
300.577
300.249
299.921
299.593
299.265
298.937
298.61
298.283
297.956
297.63
297.304
296.98
296.656
296.333
296.01
295.688
295.367
295.045
294.724
294.403
294.082
293.762
293.441
293.122
292.803
292.485
292.168
291.851
291.535
291.219
290.903
290.586
290.269
289.951
289.631
289.31
288.988
318.111
317.806
317.499
317.187
316.873
316.555
316.235
315.913
315.588
315.262
314.933
314.602
314.269
313.935
313.599
313.263
312.926
312.59
312.253
311.917
311.581
311.246
310.911
310.575
310.24
309.904
309.568
309.231
308.894
308.557
308.22
307.884
307.547
307.212
306.877
306.543
306.21
305.878
305.545
305.213
304.88
304.548
304.215
303.881
303.548
303.215
302.882
302.55
302.219
301.889
301.56
301.231
300.903
300.575
300.247
299.92
299.592
299.264
298.936
298.608
298.28
297.953
297.626
297.301
296.976
296.652
296.33
296.007
295.686
295.365
295.043
294.722
294.401
294.08
293.759
293.438
293.119
292.8
292.482
292.165
291.849
291.534
291.22
290.905
290.59
290.274
289.957
289.638
289.317
288.994
318.139
317.833
317.523
317.21
316.894
316.575
316.253
315.93
315.604
315.276
314.946
314.613
314.279
313.943
313.605
313.267
312.929
312.591
312.253
311.917
311.581
311.246
310.911
310.576
310.241
309.905
309.569
309.232
308.894
308.556
308.218
307.881
307.544
307.208
306.873
306.54
306.207
305.875
305.544
305.212
304.88
304.547
304.214
303.88
303.546
303.212
302.879
302.546
302.215
301.884
301.555
301.227
300.9
300.573
300.246
299.919
299.591
299.263
298.934
298.605
298.276
297.948
297.621
297.295
296.971
296.647
296.325
296.004
295.683
295.362
295.041
294.72
294.399
294.077
293.756
293.434
293.114
292.795
292.477
292.161
291.846
291.533
291.22
290.908
290.595
290.281
289.966
289.648
289.327
289.004
318.173
317.865
317.552
317.237
316.918
316.597
316.275
315.95
315.623
315.294
314.962
314.628
314.291
313.953
313.613
313.272
312.931
312.591
312.252
311.915
311.579
311.245
310.911
310.577
310.243
309.908
309.571
309.234
308.895
308.555
308.216
307.877
307.539
307.202
306.868
306.535
306.203
305.873
305.542
305.212
304.88
304.548
304.214
303.879
303.544
303.208
302.874
302.54
302.208
301.878
301.55
301.223
300.897
300.571
300.245
299.918
299.591
299.262
298.932
298.602
298.272
297.942
297.614
297.288
296.963
296.641
296.319
295.999
295.68
295.36
295.04
294.719
294.397
294.074
293.752
293.429
293.108
292.788
292.47
292.155
291.842
291.53
291.221
290.911
290.601
290.29
289.977
289.661
289.341
289.017
318.214
317.903
317.587
317.267
316.946
316.623
316.299
315.973
315.645
315.315
314.982
314.646
314.307
313.965
313.621
313.276
312.932
312.589
312.249
311.911
311.576
311.243
310.911
310.579
310.246
309.912
309.575
309.237
308.896
308.554
308.212
307.871
307.531
307.194
306.86
306.528
306.198
305.87
305.542
305.213
304.882
304.55
304.216
303.879
303.542
303.204
302.867
302.532
302.199
301.869
301.542
301.217
300.893
300.569
300.245
299.919
299.592
299.262
298.931
298.599
298.266
297.935
297.605
297.278
296.953
296.632
296.312
295.994
295.677
295.359
295.039
294.719
294.396
294.072
293.747
293.422
293.099
292.778
292.46
292.145
291.834
291.526
291.22
290.915
290.61
290.303
289.993
289.679
289.361
289.036
318.263
317.947
317.626
317.302
316.976
316.65
316.325
315.998
315.671
315.341
315.007
314.668
314.326
313.979
313.63
313.28
312.931
312.585
312.242
311.904
311.57
311.239
310.91
310.581
310.251
309.919
309.583
309.243
308.899
308.554
308.208
307.863
307.52
307.182
306.848
306.518
306.191
305.866
305.542
305.216
304.887
304.555
304.22
303.881
303.54
303.198
302.857
302.52
302.186
301.856
301.531
301.209
300.888
300.568
300.247
299.923
299.596
299.265
298.932
298.596
298.259
297.924
297.592
297.264
296.94
296.62
296.303
295.988
295.674
295.359
295.041
294.721
294.397
294.07
293.742
293.414
293.087
292.763
292.445
292.131
291.823
291.518
291.218
290.919
290.62
290.32
290.015
289.705
289.388
289.062
318.321
317.998
317.669
317.337
317.007
316.678
316.351
316.026
315.7
315.371
315.037
314.697
314.351
313.998
313.641
313.282
312.926
312.574
312.229
311.891
311.559
311.233
310.909
310.586
310.261
309.931
309.595
309.253
308.906
308.554
308.201
307.85
307.504
307.164
306.83
306.503
306.181
305.862
305.543
305.222
304.897
304.566
304.229
303.886
303.539
303.19
302.844
302.502
302.167
301.838
301.515
301.198
300.883
300.569
300.252
299.932
299.605
299.273
298.935
298.593
298.251
297.91
297.573
297.243
296.92
296.603
296.291
295.982
295.673
295.362
295.048
294.728
294.402
294.072
293.737
293.402
293.07
292.742
292.422
292.109
291.804
291.506
291.213
290.923
290.633
290.342
290.046
289.742
289.427
289.1
318.391
318.057
317.715
317.373
317.034
316.702
316.376
316.055
315.734
315.409
315.077
314.736
314.384
314.022
313.653
313.282
312.914
312.554
312.205
311.868
311.541
311.222
310.908
310.594
310.276
309.951
309.617
309.273
308.918
308.556
308.192
307.831
307.478
307.135
306.803
306.482
306.167
305.858
305.548
305.235
304.915
304.585
304.245
303.896
303.539
303.18
302.824
302.475
302.137
301.81
301.493
301.183
300.878
300.573
300.264
299.948
299.623
299.289
298.944
298.593
298.239
297.888
297.545
297.213
296.891
296.579
296.274
295.974
295.674
295.371
295.062
294.743
294.415
294.078
293.734
293.388
293.045
292.711
292.388
292.077
291.777
291.486
291.204
290.925
290.649
290.371
290.087
289.793
289.483
289.155
318.476
318.125
317.763
317.402
317.052
316.717
316.396
316.083
315.773
315.457
315.13
314.789
314.432
314.057
313.669
313.276
312.89
312.518
312.165
311.83
311.511
311.204
310.905
310.607
310.301
309.985
309.654
309.306
308.941
308.563
308.178
307.801
307.437
307.091
306.762
306.449
306.147
305.853
305.559
305.258
304.946
304.619
304.276
303.916
303.544
303.165
302.793
302.434
302.093
301.768
301.459
301.162
300.872
300.582
300.285
299.978
299.656
299.318
298.963
298.596
298.222
297.856
297.503
297.167
296.848
296.544
296.251
295.966
295.681
295.39
295.088
294.772
294.441
294.093
293.733
293.367
293.009
292.664
292.337
292.027
291.735
291.456
291.188
290.926
290.666
290.408
290.144
289.867
289.567
289.236
318.587
318.212
317.807
317.416
317.049
316.714
316.401
316.108
315.819
315.519
315.205
314.866
314.504
314.11
313.694
313.26
312.845
312.456
312.1
311.769
311.464
311.176
310.902
310.629
310.343
310.041
309.714
309.364
308.982
308.577
308.154
307.751
307.371
307.022
306.698
306.399
306.116
305.847
305.578
305.297
304.999
304.677
304.332
303.956
303.557
303.14
302.742
302.367
302.023
301.704
301.409
301.13
300.865
300.6
300.322
300.029
299.711
299.371
299
298.607
298.196
297.804
297.435
297.097
296.782
296.492
296.218
295.957
295.696
295.424
295.135
294.824
294.49
294.126
293.74
293.337
292.953
292.591
292.261
291.954
291.673
291.41
291.163
290.922
290.683
290.451
290.22
289.975
289.696
289.364
318.745
318.343
317.829
317.397
317
316.676
316.379
316.127
315.881
315.604
315.314
314.977
314.621
314.197
313.745
313.214
312.765
312.346
311.997
311.67
311.392
311.128
310.899
310.669
310.407
310.132
309.809
309.466
309.056
308.619
308.103
307.666
307.259
306.918
306.598
306.325
306.067
305.841
305.616
305.358
305.087
304.769
304.431
304.027
303.596
303.088
302.657
302.255
301.92
301.604
301.335
301.08
300.858
300.635
300.381
300.114
299.8
299.467
299.069
298.644
298.143
297.719
297.323
296.993
296.682
296.417
296.166
295.948
295.729
295.479
295.216
294.908
294.581
294.19
293.772
293.28
292.863
292.475
292.15
291.844
291.585
291.34
291.128
290.918
290.688
290.494
290.318
290.131
289.899
289.578
318.993
318.634
317.735
317.325
316.847
316.6
316.292
316.138
315.989
315.705
315.493
315.114
314.836
314.324
313.911
313.05
312.639
312.136
311.864
311.5
311.298
311.032
310.894
310.756
310.492
310.292
309.932
309.664
309.171
308.772
307.938
307.54
307.05
306.785
306.428
306.231
305.97
305.835
305.7
305.439
305.243
304.888
304.625
304.139
303.746
302.924
302.531
302.048
301.787
301.436
301.241
300.984
300.85
300.717
300.46
300.266
299.916
299.657
299.178
298.79
297.98
297.593
297.117
296.86
296.514
296.322
296.069
295.938
295.806
295.554
295.363
295.019
294.764
294.293
293.912
293.115
292.734
292.265
292.011
291.668
291.477
291.222
291.088
290.945
290.639
290.512
290.431
290.35
290.232
289.99
288.623
288.234
287.844
287.453
287.062
286.671
286.281
285.891
285.503
285.115
284.729
284.343
283.959
283.575
283.192
288.624
288.235
287.844
287.453
287.062
286.671
286.28
285.89
285.502
285.114
284.728
284.343
283.958
283.575
283.191
288.627
288.237
287.846
287.454
287.061
286.67
286.278
285.888
285.499
285.112
284.726
284.341
283.957
283.574
283.191
288.631
288.24
287.847
287.454
287.061
286.668
286.276
285.885
285.496
285.108
284.722
284.338
283.955
283.572
283.191
288.637
288.244
287.85
287.455
287.06
286.665
286.272
285.88
285.49
285.103
284.717
284.334
283.951
283.57
283.19
288.645
288.251
287.854
287.456
287.058
286.661
286.266
285.873
285.483
285.096
284.711
284.328
283.947
283.568
283.189
288.657
288.259
287.859
287.457
287.055
286.655
286.258
285.863
285.473
285.086
284.702
284.321
283.942
283.564
283.188
288.673
288.271
287.865
287.457
287.05
286.646
286.246
285.85
285.459
285.073
284.69
284.311
283.934
283.56
283.186
288.696
288.287
287.872
287.457
287.043
286.634
286.23
285.833
285.441
285.056
284.675
284.298
283.925
283.554
283.185
288.728
288.308
287.881
287.454
287.031
286.615
286.208
285.809
285.418
285.034
284.656
284.283
283.913
283.547
283.182
288.773
288.336
287.891
287.448
287.013
286.589
286.177
285.777
285.387
285.005
284.631
284.263
283.899
283.538
283.179
288.837
288.372
287.898
287.433
286.983
286.55
286.135
285.735
285.347
284.97
284.601
284.239
283.882
283.528
283.176
288.933
288.416
287.898
287.402
286.935
286.495
286.078
285.68
285.297
284.926
284.565
284.21
283.861
283.515
283.171
289.074
288.46
287.876
287.343
286.86
286.416
286.002
285.61
285.235
284.873
284.521
284.176
283.837
283.501
283.167
289.28
288.476
287.801
287.236
286.746
286.308
285.903
285.523
285.16
284.81
284.47
284.137
283.809
283.484
283.161
322.895
322.686
322.476
322.265
322.053
321.839
321.623
321.404
321.181
320.952
320.715
320.465
320.192
319.872
319.457
322.9
322.7
322.499
322.298
322.097
321.894
321.69
321.485
321.277
321.067
320.852
320.631
320.395
320.12
319.706
322.905
322.714
322.523
322.332
322.141
321.95
321.758
321.566
321.375
321.184
320.993
320.806
320.624
320.466
320.412
322.909
322.728
322.547
322.366
322.186
322.006
321.826
321.648
321.472
321.3
321.133
320.976
320.839
320.738
320.702
322.914
322.742
322.571
322.4
322.23
322.061
321.894
321.729
321.568
321.412
321.266
321.134
321.027
320.965
320.989
322.919
322.756
322.594
322.433
322.273
322.115
321.959
321.807
321.659
321.518
321.388
321.274
321.185
321.132
321.123
322.923
322.77
322.617
322.466
322.315
322.167
322.022
321.881
321.745
321.617
321.5
321.397
321.317
321.267
321.267
322.928
322.783
322.64
322.497
322.356
322.218
322.083
321.952
321.826
321.709
321.601
321.506
321.427
321.369
321.332
322.932
322.796
322.661
322.527
322.395
322.266
322.14
322.018
321.902
321.793
321.693
321.602
321.523
321.455
321.386
322.936
322.808
322.682
322.556
322.433
322.312
322.194
322.081
321.973
321.872
321.777
321.691
321.613
321.542
321.479
322.94
322.82
322.701
322.584
322.468
322.355
322.246
322.14
322.04
321.945
321.857
321.774
321.697
321.622
321.54
322.944
322.831
322.72
322.61
322.502
322.396
322.294
322.196
322.103
322.014
321.932
321.854
321.78
321.708
321.641
322.947
322.842
322.737
322.634
322.533
322.435
322.34
322.249
322.162
322.08
322.003
321.93
321.861
321.791
321.708
322.951
322.852
322.754
322.658
322.563
322.471
322.383
322.298
322.218
322.142
322.071
322.005
321.943
321.882
321.822
322.954
322.861
322.77
322.68
322.591
322.506
322.423
322.345
322.27
322.201
322.136
322.077
322.023
321.971
321.905
322.957
322.87
322.784
322.7
322.618
322.538
322.461
322.388
322.319
322.256
322.198
322.146
322.103
322.071
322.069
322.959
322.878
322.798
322.719
322.642
322.568
322.496
322.428
322.365
322.307
322.254
322.209
322.174
322.151
322.143
322.962
322.886
322.811
322.737
322.665
322.595
322.529
322.466
322.407
322.353
322.306
322.266
322.236
322.219
322.225
322.964
322.893
322.823
322.754
322.686
322.621
322.559
322.5
322.446
322.396
322.352
322.316
322.289
322.273
322.267
322.967
322.9
322.834
322.769
322.706
322.645
322.587
322.532
322.481
322.434
322.394
322.36
322.334
322.318
322.318
322.969
322.906
322.844
322.783
322.724
322.667
322.612
322.56
322.512
322.469
322.43
322.398
322.372
322.354
322.343
322.97
322.912
322.853
322.796
322.74
322.687
322.635
322.587
322.541
322.5
322.463
322.431
322.404
322.385
322.374
322.972
322.917
322.862
322.808
322.756
322.705
322.656
322.611
322.568
322.528
322.492
322.46
322.432
322.409
322.389
322.974
322.922
322.87
322.819
322.77
322.722
322.676
322.632
322.591
322.553
322.518
322.486
322.457
322.43
322.402
322.975
322.926
322.877
322.829
322.783
322.737
322.694
322.652
322.613
322.577
322.542
322.51
322.481
322.452
322.425
322.977
322.93
322.884
322.839
322.795
322.752
322.71
322.671
322.633
322.598
322.565
322.533
322.503
322.473
322.441
322.978
322.934
322.89
322.847
322.805
322.765
322.726
322.688
322.652
322.618
322.586
322.555
322.525
322.496
322.468
322.979
322.937
322.896
322.855
322.816
322.777
322.74
322.704
322.67
322.637
322.606
322.576
322.548
322.518
322.485
322.98
322.941
322.901
322.863
322.825
322.788
322.753
322.719
322.686
322.655
322.625
322.597
322.57
322.543
322.516
322.981
322.944
322.906
322.869
322.834
322.799
322.765
322.732
322.701
322.672
322.644
322.617
322.592
322.568
322.539
322.982
322.946
322.911
322.876
322.841
322.808
322.776
322.745
322.715
322.687
322.661
322.636
322.614
322.595
322.584
322.983
322.949
322.915
322.881
322.849
322.817
322.786
322.757
322.728
322.702
322.677
322.654
322.634
322.617
322.604
322.984
322.951
322.919
322.887
322.855
322.825
322.796
322.767
322.74
322.715
322.691
322.67
322.651
322.636
322.627
322.984
322.953
322.922
322.892
322.862
322.832
322.804
322.777
322.751
322.727
322.704
322.684
322.666
322.651
322.639
322.985
322.955
322.925
322.896
322.867
322.839
322.812
322.786
322.761
322.738
322.716
322.696
322.678
322.664
322.653
322.986
322.957
322.928
322.9
322.872
322.845
322.819
322.794
322.77
322.747
322.726
322.706
322.689
322.674
322.66
322.986
322.958
322.931
322.904
322.877
322.851
322.826
322.801
322.778
322.756
322.735
322.716
322.698
322.682
322.669
322.987
322.96
322.933
322.907
322.881
322.856
322.831
322.808
322.785
322.763
322.743
322.723
322.705
322.689
322.673
322.987
322.961
322.935
322.91
322.885
322.86
322.837
322.814
322.791
322.77
322.75
322.731
322.712
322.695
322.677
322.987
322.962
322.937
322.913
322.888
322.865
322.841
322.819
322.797
322.776
322.756
322.737
322.718
322.701
322.683
322.988
322.963
322.939
322.915
322.891
322.868
322.846
322.824
322.802
322.782
322.762
322.743
322.724
322.706
322.687
322.988
322.964
322.941
322.917
322.894
322.872
322.849
322.828
322.807
322.787
322.767
322.749
322.73
322.712
322.694
322.988
322.965
322.942
322.919
322.897
322.874
322.853
322.832
322.811
322.792
322.772
322.754
322.736
322.718
322.699
322.989
322.966
322.943
322.921
322.899
322.877
322.856
322.835
322.815
322.796
322.777
322.759
322.741
322.724
322.707
322.989
322.966
322.944
322.922
322.901
322.879
322.858
322.838
322.818
322.799
322.781
322.763
322.746
322.729
322.712
322.989
322.967
322.945
322.923
322.902
322.881
322.861
322.841
322.821
322.803
322.785
322.767
322.751
322.736
322.722
322.989
322.967
322.946
322.924
322.903
322.883
322.863
322.843
322.824
322.805
322.788
322.771
322.755
322.74
322.727
322.989
322.968
322.946
322.925
322.904
322.884
322.864
322.845
322.826
322.808
322.79
322.774
322.758
322.744
322.731
322.989
322.968
322.947
322.926
322.905
322.885
322.865
322.846
322.827
322.809
322.792
322.776
322.761
322.747
322.733
322.989
322.968
322.947
322.926
322.906
322.886
322.866
322.847
322.828
322.811
322.794
322.778
322.763
322.748
322.735
322.989
322.968
322.947
322.926
322.906
322.886
322.866
322.847
322.829
322.811
322.795
322.779
322.764
322.749
322.736
322.989
322.968
322.947
322.926
322.906
322.886
322.866
322.847
322.829
322.811
322.795
322.779
322.764
322.75
322.737
322.989
322.968
322.947
322.926
322.906
322.885
322.866
322.847
322.829
322.811
322.794
322.779
322.764
322.75
322.737
322.989
322.968
322.947
322.926
322.905
322.885
322.865
322.846
322.828
322.81
322.793
322.778
322.763
322.749
322.736
322.989
322.968
322.946
322.925
322.904
322.883
322.864
322.844
322.826
322.808
322.792
322.776
322.761
322.748
322.735
322.989
322.967
322.945
322.924
322.903
322.882
322.862
322.842
322.824
322.806
322.789
322.773
322.759
322.746
322.734
322.989
322.967
322.944
322.923
322.901
322.88
322.86
322.84
322.821
322.803
322.786
322.77
322.756
322.742
322.731
322.989
322.966
322.943
322.921
322.899
322.878
322.857
322.837
322.818
322.799
322.782
322.766
322.751
322.738
322.728
322.988
322.965
322.942
322.919
322.897
322.875
322.854
322.833
322.814
322.795
322.777
322.761
322.746
322.732
322.721
322.988
322.964
322.94
322.917
322.894
322.872
322.85
322.829
322.809
322.79
322.772
322.755
322.739
322.725
322.714
322.988
322.963
322.939
322.915
322.891
322.868
322.846
322.824
322.804
322.784
322.766
322.748
322.732
322.716
322.699
322.987
322.962
322.937
322.912
322.888
322.864
322.841
322.819
322.798
322.778
322.759
322.741
322.724
322.707
322.691
322.987
322.96
322.934
322.909
322.884
322.859
322.836
322.813
322.791
322.771
322.751
322.733
322.715
322.698
322.68
322.986
322.959
322.932
322.905
322.879
322.854
322.829
322.806
322.784
322.763
322.743
322.724
322.706
322.689
322.673
322.986
322.957
322.929
322.901
322.874
322.848
322.823
322.798
322.776
322.754
322.734
322.715
322.697
322.679
322.662
322.985
322.955
322.926
322.897
322.869
322.841
322.815
322.79
322.766
322.744
322.724
322.704
322.687
322.67
322.655
322.984
322.953
322.922
322.892
322.863
322.834
322.807
322.781
322.756
322.733
322.712
322.693
322.676
322.66
322.645
322.984
322.951
322.919
322.887
322.856
322.826
322.797
322.77
322.745
322.721
322.7
322.681
322.665
322.65
322.639
322.983
322.948
322.914
322.881
322.848
322.817
322.787
322.759
322.732
322.708
322.686
322.667
322.651
322.639
322.632
322.982
322.946
322.91
322.874
322.84
322.807
322.775
322.746
322.718
322.693
322.67
322.651
322.635
322.624
322.617
322.981
322.942
322.905
322.867
322.831
322.796
322.763
322.731
322.702
322.675
322.652
322.632
322.616
322.606
322.604
322.98
322.939
322.899
322.859
322.821
322.784
322.749
322.715
322.684
322.656
322.631
322.61
322.594
322.584
322.579
322.978
322.935
322.893
322.851
322.81
322.771
322.733
322.698
322.665
322.634
322.607
322.585
322.567
322.557
322.558
322.977
322.931
322.886
322.842
322.798
322.756
322.716
322.678
322.643
322.61
322.581
322.556
322.535
322.521
322.516
322.976
322.927
322.879
322.831
322.785
322.741
322.698
322.658
322.619
322.584
322.552
322.523
322.499
322.48
322.478
322.974
322.922
322.871
322.821
322.771
322.724
322.678
322.635
322.594
322.556
322.52
322.488
322.458
322.429
322.393
322.972
322.917
322.862
322.809
322.756
322.706
322.657
322.611
322.567
322.525
322.487
322.45
322.416
322.382
322.349
322.97
322.912
322.853
322.796
322.74
322.686
322.634
322.584
322.537
322.493
322.451
322.412
322.374
322.335
322.29
322.968
322.906
322.843
322.782
322.723
322.665
322.609
322.557
322.506
322.459
322.415
322.372
322.332
322.292
322.255
322.966
322.899
322.833
322.768
322.704
322.642
322.583
322.527
322.473
322.423
322.376
322.332
322.29
322.248
322.201
322.964
322.892
322.822
322.752
322.684
322.618
322.555
322.495
322.438
322.385
322.336
322.29
322.247
322.206
322.169
322.962
322.885
322.809
322.735
322.662
322.592
322.524
322.46
322.4
322.344
322.293
322.246
322.203
322.163
322.12
322.959
322.877
322.796
322.717
322.639
322.564
322.492
322.423
322.359
322.3
322.247
322.2
322.158
322.122
322.092
322.956
322.869
322.782
322.697
322.614
322.533
322.456
322.383
322.315
322.253
322.197
322.149
322.108
322.075
322.058
322.953
322.86
322.767
322.676
322.587
322.501
322.418
322.34
322.267
322.2
322.142
322.093
322.053
322.019
321.978
322.95
322.85
322.752
322.654
322.559
322.466
322.377
322.292
322.214
322.143
322.081
322.031
321.993
321.967
321.943
322.947
322.84
322.735
322.63
322.528
322.428
322.332
322.241
322.155
322.078
322.012
321.96
321.926
321.912
321.918
322.943
322.83
322.717
322.606
322.496
322.388
322.284
322.185
322.091
322.006
321.933
321.877
321.844
321.844
321.887
322.94
322.819
322.699
322.579
322.462
322.346
322.233
322.125
322.021
321.926
321.843
321.777
321.739
321.747
321.831
322.936
322.807
322.679
322.552
322.426
322.302
322.179
322.06
321.946
321.838
321.74
321.658
321.602
321.596
321.704
289.496
288.371
287.631
287.068
286.596
286.176
285.791
285.427
285.08
284.744
284.417
284.096
283.78
283.467
283.155
289.099
288.009
287.353
286.851
286.422
286.034
285.673
285.329
284.999
284.678
284.364
284.056
283.752
283.45
283.15
287.529
287.345
286.968
286.585
286.22
285.874
285.542
285.222
284.911
284.607
284.308
284.013
283.722
283.432
283.144
286.912
286.815
286.588
286.305
286.005
285.703
285.403
285.108
284.818
284.531
284.248
283.968
283.69
283.414
283.138
286.329
286.376
286.247
286.037
285.792
285.53
285.261
284.992
284.722
284.454
284.187
283.922
283.658
283.394
283.131
286.065
286.059
285.961
285.795
285.589
285.361
285.121
284.875
284.626
284.376
284.125
283.875
283.624
283.375
283.125
285.791
285.805
285.722
285.581
285.402
285.2
284.984
284.76
284.53
284.297
284.063
283.827
283.591
283.355
283.118
285.669
285.619
285.525
285.393
285.232
285.05
284.854
284.648
284.436
284.22
284.001
283.78
283.558
283.335
283.112
285.571
285.463
285.353
285.224
285.075
284.909
284.73
284.541
284.346
284.145
283.941
283.734
283.525
283.316
283.105
285.402
285.307
285.196
285.07
284.93
284.777
284.613
284.439
284.259
284.073
283.882
283.689
283.494
283.297
283.099
285.292
285.164
285.047
284.926
284.795
284.653
284.502
284.342
284.176
284.003
283.826
283.646
283.463
283.278
283.093
285.112
285.012
284.903
284.788
284.666
284.536
284.397
284.25
284.096
283.936
283.772
283.604
283.433
283.261
283.087
284.994
284.867
284.761
284.655
284.544
284.425
284.298
284.163
284.021
283.873
283.72
283.564
283.405
283.244
283.081
284.794
284.709
284.619
284.527
284.427
284.32
284.204
284.08
283.95
283.813
283.672
283.526
283.378
283.228
283.076
284.649
284.553
284.48
284.402
284.316
284.22
284.115
284.002
283.882
283.756
283.625
283.49
283.352
283.212
283.071
284.366
284.38
284.343
284.284
284.211
284.127
284.032
283.93
283.819
283.703
283.582
283.457
283.328
283.198
283.066
284.239
284.244
284.221
284.176
284.115
284.04
283.955
283.862
283.761
283.654
283.541
283.425
283.306
283.184
283.062
284.098
284.126
284.115
284.08
284.027
283.961
283.885
283.799
283.706
283.607
283.503
283.396
283.285
283.172
283.057
284.028
284.036
284.025
283.995
283.949
283.889
283.82
283.742
283.656
283.565
283.468
283.368
283.265
283.16
283.053
283.943
283.959
283.949
283.921
283.879
283.825
283.761
283.689
283.61
283.525
283.436
283.343
283.247
283.149
283.05
283.9
283.899
283.885
283.858
283.818
283.767
283.708
283.641
283.568
283.489
283.406
283.319
283.23
283.139
283.046
283.85
283.849
283.831
283.803
283.764
283.716
283.66
283.598
283.529
283.456
283.379
283.298
283.215
283.13
283.043
283.825
283.809
283.786
283.755
283.716
283.67
283.617
283.558
283.494
283.426
283.354
283.278
283.2
283.121
283.04
283.804
283.774
283.745
283.712
283.673
283.628
283.578
283.523
283.463
283.398
283.331
283.26
283.188
283.113
283.038
283.768
283.739
283.708
283.673
283.634
283.591
283.543
283.49
283.434
283.373
283.31
283.244
283.176
283.106
283.035
283.743
283.706
283.672
283.637
283.598
283.556
283.511
283.461
283.407
283.351
283.291
283.229
283.165
283.099
283.033
283.702
283.671
283.638
283.603
283.565
283.525
283.481
283.434
283.383
283.33
283.273
283.215
283.155
283.093
283.031
283.676
283.638
283.604
283.57
283.534
283.496
283.454
283.409
283.361
283.311
283.258
283.203
283.146
283.088
283.029
283.63
283.601
283.571
283.539
283.505
283.468
283.429
283.386
283.341
283.293
283.243
283.191
283.138
283.083
283.028
283.597
283.565
283.538
283.509
283.478
283.443
283.406
283.366
283.323
283.278
283.23
283.181
283.13
283.079
283.026
283.533
283.526
283.506
283.481
283.453
283.42
283.385
283.347
283.306
283.263
283.218
283.171
283.123
283.074
283.025
283.505
283.495
283.479
283.456
283.43
283.4
283.366
283.33
283.291
283.25
283.207
283.163
283.117
283.071
283.024
283.474
283.469
283.455
283.434
283.409
283.381
283.349
283.315
283.278
283.239
283.198
283.155
283.112
283.067
283.023
283.459
283.449
283.435
283.415
283.392
283.365
283.334
283.301
283.266
283.228
283.189
283.149
283.107
283.065
283.022
283.441
283.433
283.418
283.399
283.376
283.35
283.321
283.289
283.255
283.219
283.182
283.143
283.103
283.062
283.021
283.433
283.421
283.405
283.386
283.364
283.338
283.31
283.279
283.246
283.211
283.175
283.137
283.099
283.06
283.02
283.423
283.411
283.395
283.375