/*--------------------------------*- C++ -*----------------------------------*\
| =========                 |                                                 |
| \\      /  F ield         | OpenFOAM: The Open Source CFD Toolbox           |
|  \\    /   O peration     | Version:  5.x                                   |
|   \\  /    A nd           | Web:      www.OpenFOAM.org                      |
|    \\/     M anipulation  |                                                 |
\*---------------------------------------------------------------------------*/
FoamFile
{
    version     2.0;
    format      ascii;
    class       volScalarField;
    location    "18.0999";
    object      gradTx;
}
// * * * * * * * * * * * * * * * * * * * * * * * * * * * * * * * * * * * * * //

dimensions      [0 -1 0 1 0 0 0];

internalField   nonuniform List<scalar> 
6300
(
-31.9526
-32.0234
-32.1641
-32.3735
-32.6493
-32.9882
-33.3862
-33.8377
-34.336
-34.8731
-35.4396
-36.025
-36.6184
-37.2085
-37.7846
-31.8819
-31.9533
-32.0955
-32.3071
-32.586
-32.9293
-33.3326
-33.7909
-34.2973
-34.8437
-35.4206
-36.0171
-36.6217
-37.2225
-37.8079
-31.7398
-31.8125
-31.9574
-32.1734
-32.4585
-32.8101
-33.2242
-33.6959
-34.2185
-34.7838
-35.3819
-36.0012
-36.6289
-37.2517
-37.8565
-31.5249
-31.5995
-31.7483
-31.9705
-32.2646
-32.6283
-33.0583
-33.55
-34.097
-34.6912
-35.322
-35.9768
-36.6411
-37.2989
-37.9346
-31.2353
-31.3123
-31.4659
-31.6958
-32.0011
-32.3802
-32.8307
-33.3487
-33.9285
-34.5619
-35.2381
-35.943
-36.6596
-37.3684
-38.049
-30.8689
-30.9483
-31.1072
-31.3457
-31.6637
-32.0608
-32.5357
-33.0857
-33.7063
-34.3899
-35.1254
-35.8975
-36.6859
-37.466
-38.2104
-30.423
-30.5048
-30.6689
-30.916
-31.2472
-31.6636
-32.1655
-32.7522
-33.421
-34.1659
-34.9763
-35.8358
-36.7205
-37.5992
-38.434
-29.8954
-29.9791
-30.1475
-30.4022
-30.7457
-31.1808
-31.7104
-32.3366
-33.0596
-33.8763
-34.7782
-35.7487
-36.7612
-37.7762
-38.7412
-29.284
-29.3688
-29.5397
-29.7996
-30.1525
-30.6036
-31.1589
-31.8243
-32.6046
-33.5017
-34.5113
-35.6198
-36.7994
-38.0032
-39.16
-28.5879
-28.6723
-28.843
-29.104
-29.4611
-29.9223
-30.4972
-31.197
-32.0329
-33.0144
-34.1455
-35.4198
-36.8135
-38.2771
-39.7224
-27.8073
-27.8895
-28.0561
-28.3123
-28.6657
-29.1271
-29.7107
-30.4336
-31.3157
-32.3776
-33.6366
-35.1002
-36.7576
-38.5695
-40.4494
-26.9447
-27.0221
-27.1797
-27.4233
-27.7623
-28.21
-28.7848
-29.5109
-30.4187
-31.5438
-32.9229
-34.5865
-36.547
-38.7932
-41.2982
-26.0047
-26.0746
-26.2173
-26.4391
-26.7502
-27.1657
-27.7076
-28.4066
-29.3045
-30.4557
-31.9245
-33.7752
-36.0492
-38.756
-41.9962
-24.9948
-25.0542
-25.1759
-25.3657
-25.6336
-25.995
-26.4734
-27.1035
-27.9371
-29.0495
-30.5435
-32.5384
-35.113
-38.1752
-41.5884
-23.9255
-23.9717
-24.0663
-24.2141
-24.4235
-24.7075
-25.0874
-25.5967
-26.2909
-27.2614
-28.6596
-30.7162
-33.6734
-37.2068
-37.6482
-38.2934
-38.7331
-39.1486
-39.538
-39.9005
-40.2358
-40.5445
-40.8269
-41.0834
-41.3138
-41.5175
-41.6935
-41.8407
-41.9584
-42.0465
-42.1059
-42.1384
-42.1471
-42.1357
-42.1085
-42.0697
-42.0231
-41.9718
-41.9173
-41.8603
-41.8002
-41.7355
-41.6643
-41.5846
-41.495
-41.3948
-41.2844
-41.1654
-41.0398
-40.9106
-40.7807
-40.6526
-40.5283
-40.4085
-40.2931
-40.1809
-40.07
-39.958
-39.8427
-39.7224
-39.5962
-39.4641
-39.3272
-39.1875
-39.0475
-38.9096
-38.7762
-38.6488
-38.5282
-38.4139
-38.3048
-38.1988
-38.0937
-37.9872
-37.8777
-37.7642
-37.6466
-37.5261
-37.4043
-37.2836
-37.1664
-37.0549
-36.9505
-36.8541
-36.7653
-36.6832
-36.606
-36.532
-36.4595
-36.3875
-36.3159
-36.2457
-36.1791
-36.1192
-36.0699
-36.035
-36.0185
-36.0231
-36.0507
-36.1014
-36.1734
-36.2635
-36.3666
-36.4767
-36.5868
-38.3237
-38.7679
-39.1862
-39.5769
-39.9394
-40.2742
-40.5822
-40.8643
-41.121
-41.3524
-41.5574
-41.7348
-41.8831
-42.001
-42.0879
-42.1446
-42.1728
-42.176
-42.1585
-42.1251
-42.0809
-42.0301
-41.9762
-41.921
-41.8649
-41.8069
-41.7449
-41.6764
-41.5989
-41.5102
-41.4094
-41.297
-41.1747
-41.0451
-40.9117
-40.778
-40.6473
-40.5217
-40.4022
-40.2885
-40.1791
-40.0715
-39.9627
-39.85
-39.731
-39.6046
-39.4709
-39.3313
-39.1881
-39.0443
-38.9032
-38.7675
-38.6391
-38.519
-38.4065
-38.3002
-38.1975
-38.0956
-37.9917
-37.8835
-37.77
-37.651
-37.5278
-37.4028
-37.2786
-37.1583
-37.0445
-36.9392
-36.843
-36.7558
-36.676
-36.6015
-36.5298
-36.4588
-36.387
-36.3139
-36.2406
-36.1694
-36.1041
-36.0489
-36.0087
-35.9879
-35.9902
-36.0175
-36.0705
-36.1474
-36.2447
-36.3567
-36.4767
-36.5968
-38.3866
-38.8398
-39.2635
-39.6563
-40.0184
-40.3513
-40.6572
-40.9381
-41.1953
-41.4287
-41.6371
-41.8182
-41.9694
-42.0882
-42.173
-42.224
-42.2433
-42.2348
-42.204
-42.1574
-42.1014
-42.0417
-41.9825
-41.9259
-41.8721
-41.8192
-41.7638
-41.7018
-41.6291
-41.5427
-41.4409
-41.324
-41.1944
-41.0558
-40.9131
-40.7712
-40.6346
-40.5062
-40.3875
-40.2778
-40.1748
-40.0747
-39.9732
-39.8661
-39.7502
-39.6236
-39.4864
-39.3405
-39.1894
-39.0373
-38.8889
-38.7481
-38.6177
-38.4987
-38.3904
-38.2904
-38.1952
-38.1004
-38.0022
-37.8971
-37.7835
-37.6614
-37.5324
-37.3999
-37.2679
-37.1407
-37.0221
-36.9146
-36.8193
-36.7355
-36.6611
-36.5928
-36.5267
-36.4594
-36.3882
-36.3122
-36.2323
-36.1514
-36.0742
-36.0064
-35.9544
-35.9243
-35.9209
-35.9475
-36.0052
-36.0922
-36.2045
-36.3354
-36.4764
-36.6178
-38.4871
-38.9543
-39.3855
-39.7799
-40.1393
-40.4672
-40.7682
-41.0462
-41.3037
-41.5409
-41.7559
-41.9447
-42.1024
-42.2242
-42.3068
-42.3492
-42.3538
-42.3256
-42.2724
-42.2032
-42.1273
-42.0526
-41.9849
-41.9269
-41.8781
-41.8351
-41.7921
-41.7424
-41.6792
-41.5974
-41.494
-41.3694
-41.227
-41.0725
-40.9132
-40.7568
-40.6099
-40.477
-40.3599
-40.2576
-40.1661
-40.0798
-39.9917
-39.8951
-39.7847
-39.6578
-39.5144
-39.3573
-39.192
-39.0251
-38.8638
-38.7139
-38.5798
-38.4629
-38.3622
-38.2738
-38.1921
-38.1104
-38.0224
-37.923
-37.8094
-37.6815
-37.5421
-37.3963
-37.2503
-37.1108
-36.9835
-36.8724
-36.7788
-36.7017
-36.6375
-36.5808
-36.5254
-36.4655
-36.3964
-36.3161
-36.2254
-36.1281
-36.0306
-35.9412
-35.8688
-35.8221
-35.8084
-35.8329
-35.8974
-36.0007
-36.1376
-36.2996
-36.4755
-36.6523
-38.6342
-39.1204
-39.5603
-39.9539
-40.3054
-40.622
-40.9123
-41.1838
-41.4412
-41.6853
-41.9125
-42.1161
-42.287
-42.4167
-42.4983
-42.5291
-42.5114
-42.4525
-42.3638
-42.2588
-42.1514
-42.0535
-41.9733
-41.9146
-41.8758
-41.8509
-41.8302
-41.8024
-41.7563
-41.683
-41.5777
-41.4406
-41.2769
-41.0959
-40.9093
-40.7289
-40.565
-40.4248
-40.311
-40.2216
-40.1502
-40.0875
-40.0223
-39.9437
-39.8432
-39.7159
-39.5619
-39.386
-39.1968
-39.005
-38.8219
-38.6571
-38.517
-38.404
-38.3163
-38.2476
-38.1889
-38.1295
-38.0591
-37.9693
-37.8557
-37.7182
-37.5612
-37.3928
-37.2234
-37.0633
-36.9218
-36.8048
-36.7147
-36.6494
-36.6031
-36.567
-36.5308
-36.4846
-36.4207
-36.3351
-36.2281
-36.1052
-35.9756
-35.8514
-35.746
-35.6723
-35.6411
-35.6604
-35.734
-35.8607
-36.0344
-36.2438
-36.4733
-36.7045
-38.8415
-39.3533
-39.802
-40.1886
-40.5216
-40.8147
-41.0835
-41.3417
-41.598
-41.8538
-42.1032
-42.3342
-42.5312
-42.6783
-42.7629
-42.7788
-42.7284
-42.6224
-42.4786
-42.3179
-42.1619
-42.0287
-41.9309
-41.8735
-41.8535
-41.8605
-41.8786
-41.8888
-41.8724
-41.8147
-41.7071
-41.55
-41.3518
-41.1276
-40.8963
-40.677
-40.4861
-40.3348
-40.227
-40.1595
-40.1219
-40.0989
-40.0722
-40.0241
-39.9401
-39.8125
-39.6411
-39.4339
-39.2052
-38.9725
-38.7539
-38.5646
-38.415
-38.3089
-38.2428
-38.207
-38.1867
-38.1645
-38.1235
-38.0501
-37.9366
-37.7829
-37.5966
-37.391
-37.1829
-36.9893
-36.8246
-36.6987
-36.6148
-36.5698
-36.554
-36.5532
-36.5504
-36.5293
-36.4765
-36.3846
-36.2538
-36.0917
-35.9126
-35.7346
-35.5778
-35.4612
-35.4012
-35.4099
-35.4939
-35.653
-35.8798
-36.1591
-36.4686
-36.7814
-39.1306
-39.6769
-40.1329
-40.5005
-40.7953
-41.0423
-41.2698
-41.5025
-41.7555
-42.0315
-42.3204
-42.6014
-42.8473
-43.03
-43.1263
-43.124
-43.0252
-42.847
-42.6175
-42.3704
-42.1395
-41.9531
-41.8304
-41.7786
-41.7923
-41.8543
-41.9383
-42.0133
-42.0483
-42.018
-41.9081
-41.7186
-41.464
-41.1695
-40.866
-40.5842
-40.3504
-40.1819
-40.0851
-40.0542
-40.0727
-40.1155
-40.1531
-40.1559
-40.1
-39.972
-39.7718
-39.5129
-39.2192
-38.9197
-38.6435
-38.415
-38.2506
-38.156
-38.1258
-38.1441
-38.1871
-38.2266
-38.2347
-38.1885
-38.0752
-37.8947
-37.6597
-37.3928
-37.1216
-36.8735
-36.6717
-36.5318
-36.4591
-36.4481
-36.4835
-36.5421
-36.5966
-36.6196
-36.5885
-36.4903
-36.3244
-36.1029
-35.8479
-35.5875
-35.3516
-35.1685
-35.0623
-35.0511
-35.1456
-35.3479
-35.6497
-36.0309
-36.4593
-36.894
-39.5345
-40.1307
-40.591
-40.9174
-41.1378
-41.2978
-41.4487
-41.6339
-41.8799
-42.1907
-42.5489
-42.919
-43.2545
-43.5061
-43.6318
-43.6079
-43.4365
-43.1455
-42.7816
-42.3996
-42.0529
-41.7858
-41.6277
-41.5895
-41.6616
-41.8162
-42.011
-42.1956
-42.3182
-42.3359
-42.2235
-41.9811
-41.6338
-41.2245
-40.8042
-40.4225
-40.1206
-39.9259
-39.8481
-39.8778
-39.9884
-40.1397
-40.2839
-40.3722
-40.3639
-40.2354
-39.9869
-39.6421
-39.2417
-38.8335
-38.4644
-38.1732
-37.9855
-37.9104
-37.9389
-38.0456
-38.1925
-38.334
-38.424
-38.4236
-38.3106
-38.0848
-37.7688
-37.401
-37.0269
-36.6909
-36.4299
-36.2682
-36.2144
-36.2596
-36.3794
-36.537
-36.6882
-36.7876
-36.7971
-36.6934
-36.4752
-36.1624
-35.791
-35.405
-35.0493
-34.7651
-34.5867
-34.5401
-34.6421
-34.8993
-35.3053
-35.8346
-36.4409
-37.0601
-40.104
-40.7802
-41.2418
-41.4871
-41.5671
-41.5666
-41.578
-41.6779
-41.9108
-42.2818
-42.7601
-43.2863
-43.7825
-44.1634
-44.3529
-44.3044
-44.0198
-43.549
-42.9719
-42.3781
-41.8518
-41.4614
-41.2525
-41.2414
-41.4121
-41.7201
-42.0986
-42.4669
-42.7394
-42.8411
-42.7261
-42.3946
-41.8928
-41.2955
-40.6868
-40.1457
-39.7365
-39.5016
-39.4563
-39.585
-39.8454
-40.1743
-40.4952
-40.7277
-40.8008
-40.6716
-40.3406
-39.8516
-39.2752
-38.6909
-38.1731
-37.7822
-37.5584
-37.5157
-37.6394
-37.8893
-38.2056
-38.5157
-38.7433
-38.8211
-38.7082
-38.4049
-37.9525
-37.4182
-36.8773
-36.4003
-36.0449
-35.8494
-35.827
-35.9637
-36.221
-36.5412
-36.8542
-37.0854
-37.1685
-37.0616
-36.762
-36.3062
-35.7553
-35.1788
-34.644
-34.2092
-33.9213
-33.8151
-33.9149
-34.2368
-34.7831
-35.5276
-36.4041
-37.309
-40.9159
-41.7386
-42.2039
-42.2949
-42.1123
-41.8182
-41.58
-41.5303
-41.7426
-42.2185
-42.9022
-43.6968
-44.4765
-45.0965
-45.4164
-45.3409
-44.8714
-44.1055
-43.186
-42.2594
-41.4548
-40.8757
-40.5925
-40.6315
-40.9651
-41.5224
-42.2011
-42.876
-43.4067
-43.6584
-43.5403
-43.0533
-42.2893
-41.3828
-40.4722
-39.6791
-39.1011
-38.8045
-38.8138
-39.1026
-39.6037
-40.2203
-40.834
-41.3125
-41.529
-41.3984
-40.9219
-40.1868
-39.3202
-38.4527
-37.6989
-37.1506
-36.8704
-36.8813
-37.1582
-37.6375
-38.2276
-38.8163
-39.2784
-39.4932
-39.3799
-38.9395
-38.2544
-37.4451
-36.6355
-35.9345
-35.4299
-35.1811
-35.2105
-35.4942
-35.9719
-36.5558
-37.1379
-37.5965
-37.8135
-37.7072
-37.2739
-36.5871
-35.7561
-34.8928
-34.0948
-33.4419
-32.9943
-32.7936
-32.8678
-33.2511
-33.9757
-35.0303
-36.3263
-37.6902
-42.0803
-43.2122
-43.7046
-43.496
-42.8181
-41.9895
-41.3106
-41.0053
-41.1948
-41.856
-42.8846
-44.1289
-45.4003
-46.4618
-47.0492
-46.9448
-46.1496
-44.8834
-43.4103
-41.9652
-40.733
-39.8639
-39.4685
-39.5975
-40.1958
-41.1498
-42.3091
-43.4927
-44.4756
-45.0082
-44.8859
-44.1108
-42.8908
-41.4761
-40.0885
-38.9027
-38.0607
-37.6668
-37.7688
-38.3144
-39.1957
-40.2704
-41.3675
-42.2747
-42.7572
-42.6231
-41.8755
-40.7113
-39.3666
-38.0509
-36.9285
-36.1332
-35.7633
-35.8639
-36.3855
-37.2261
-38.2514
-39.2995
-40.1693
-40.6379
-40.5228
-39.8264
-38.735
-37.4724
-36.2372
-35.1862
-34.4465
-34.1124
-34.2276
-34.7455
-35.5699
-36.5729
-37.5995
-38.4555
-38.9239
-38.8238
-38.1507
-37.0757
-35.8036
-34.5126
-33.3366
-32.3788
-31.7119
-31.3761
-31.3756
-31.774
-32.6928
-34.1855
-36.1509
-38.2914
-43.7257
-45.6084
-46.2153
-45.3715
-43.7395
-41.9454
-40.5037
-39.7677
-39.9678
-40.9643
-42.5566
-44.5217
-46.6262
-48.51
-49.6782
-49.5432
-48.1062
-45.9593
-43.5943
-41.3644
-39.4885
-38.17
-37.5892
-37.8876
-38.9145
-40.4816
-42.382
-44.3986
-46.1931
-47.3011
-47.1716
-45.8087
-43.773
-41.5302
-39.4141
-37.6315
-36.3749
-35.8149
-36.0852
-37.0428
-38.5092
-40.2882
-42.1745
-43.8485
-44.8734
-44.7315
-43.4288
-41.4957
-39.3714
-37.3705
-35.6873
-34.503
-33.9786
-34.2403
-35.1532
-36.5489
-38.2422
-40.0394
-41.6379
-42.6231
-42.5029
-41.2819
-39.4622
-37.4601
-35.574
-33.9893
-32.8789
-32.3968
-32.6646
-33.5555
-34.9108
-36.5559
-38.3067
-39.8729
-40.8528
-40.7654
-39.6065
-37.848
-35.8783
-33.9665
-32.2645
-30.8968
-29.9529
-29.4757
-29.3089
-29.5477
-30.5835
-32.6602
-35.723
-39.2768
-45.8445
-49.8505
-50.8232
-48.3798
-44.8882
-41.393
-38.6808
-37.1825
-37.5941
-39.2148
-41.6916
-44.7137
-48.1701
-51.5885
-54.184
-54.0163
-51.0852
-47.349
-43.5837
-40.254
-37.4412
-35.4139
-34.4439
-35.1287
-36.8554
-39.3336
-42.2874
-45.6244
-48.8988
-51.3763
-51.2332
-48.4754
-44.9536
-41.402
-38.2593
-35.6027
-33.6861
-32.7672
-33.4119
-35.0387
-37.3725
-40.1515
-43.2871
-46.357
-48.6697
-48.5113
-45.8901
-42.5551
-39.1988
-36.2324
-33.7276
-31.9228
-31.0617
-31.6791
-33.2259
-35.443
-38.0836
-41.0655
-43.9896
-46.2001
-46.0681
-43.5999
-40.4519
-37.2807
-34.4768
-32.1095
-30.4066
-29.6014
-30.2045
-31.6967
-33.8344
-36.3868
-39.2796
-42.1345
-44.3188
-44.2499
-41.9255
-38.9246
-35.8697
-33.1186
-30.7107
-28.8046
-27.5218
-27.1283
-26.6579
-26.1738
-26.9755
-29.7147
-34.5883
-40.9778
-47.3705
-58.4794
-60.3991
-52.9175
-46.0269
-39.7051
-35.1077
-31.8466
-33.4793
-36.2323
-40.0414
-44.2801
-49.7688
-55.8516
-62.669
-62.4686
-55.2235
-48.7807
-42.9458
-38.3993
-34.2626
-31.1352
-28.9157
-30.8697
-33.7139
-37.5006
-41.6409
-46.9406
-52.7521
-59.2251
-59.0601
-52.2423
-46.1769
-40.6852
-36.4045
-32.5086
-29.5604
-27.4682
-29.3242
-32.0163
-35.595
-39.5011
-44.4945
-49.9557
-56.0245
-55.8375
-49.3794
-43.6453
-38.4647
-34.4296
-30.76
-27.9837
-26.016
-27.7794
-30.3333
-33.7273
-37.4337
-42.1746
-47.3687
-53.1504
-52.9973
-46.8967
-41.4749
-36.5723
-32.7512
-29.2728
-26.6415
-24.7781
-26.4643
-28.9082
-32.1608
-35.7275
-40.3072
-45.3619
-51.0294
-50.9821
-45.2189
-40.0789
-35.4236
-31.7763
-28.4343
-25.8147
-23.8104
-24.8913
-24.0269
-20.9484
-20.5772
-23.696
-31.2705
-44.1087
-40.9835
-80.2897
-83.6879
-56.7823
-46.3716
-35.5312
-29.6097
-19.4637
-27.7511
-31.729
-37.7725
-42.0466
-50.512
-59.057
-81.2597
-81.065
-58.2066
-49.3371
-40.4523
-35.9546
-29.6309
-25.5491
-17.3775
-25.3288
-29.2152
-35.1585
-39.325
-47.5196
-55.6527
-76.6326
-76.4671
-54.9257
-46.574
-38.2244
-33.9955
-28.0497
-24.202
-16.484
-24.0324
-27.7173
-33.3461
-37.2851
-45.0281
-52.6795
-72.3875
-72.1941
-51.8261
-43.9386
-36.081
-32.1004
-26.5061
-22.8803
-15.5972
-22.7416
-26.231
-31.5616
-35.2942
-42.6311
-49.9019
-68.6468
-68.491
-49.216
-41.7505
-34.3065
-30.5319
-25.2164
-21.7707
-14.8434
-21.6328
-24.9552
-30.0348
-33.6097
-40.6505
-47.7069
-65.9695
-65.9449
-47.615
-40.5353
-33.5258
-29.9945
-25.1175
-21.939
-15.6563
-25.4557
-24.5839
-11.8248
-9.15315
-11.2609
-20.3732
-50.214
-36.6992
-36.8031
-36.8782
-36.9193
-36.9246
-36.8958
-36.8376
-36.7571
-36.6622
-36.5615
-36.4634
-36.3752
-36.3034
-36.2527
-36.2265
-36.7191
-36.8317
-36.9123
-36.9552
-36.9586
-36.9251
-36.8601
-36.7714
-36.668
-36.559
-36.4534
-36.3589
-36.2822
-36.2282
-36.2003
-36.7614
-36.8924
-36.9842
-37.0304
-37.0297
-36.9859
-36.9062
-36.8004
-36.6792
-36.5532
-36.4323
-36.3249
-36.2383
-36.1775
-36.1463
-36.8311
-36.9922
-37.1018
-37.1525
-37.1439
-37.0824
-36.9785
-36.845
-36.6953
-36.5423
-36.3975
-36.2703
-36.1684
-36.0974
-36.061
-36.9372
-37.1433
-37.2784
-37.3337
-37.3111
-37.2214
-37.0803
-36.9056
-36.7147
-36.5233
-36.345
-36.1904
-36.0676
-35.9827
-35.9393
-37.094
-37.3655
-37.535
-37.5926
-37.5455
-37.4119
-37.2159
-36.9824
-36.7344
-36.4914
-36.2688
-36.0785
-35.9291
-35.8265
-35.7743
-37.3248
-37.6899
-37.9032
-37.9564
-37.8663
-37.6647
-37.3888
-37.0737
-36.7492
-36.439
-36.1603
-35.9258
-35.7438
-35.6198
-35.557
-37.6677
-38.1659
-38.4317
-38.4635
-38.2984
-37.992
-37.601
-37.1743
-36.7499
-36.3549
-36.0078
-35.7205
-35.5004
-35.3518
-35.277
-38.1865
-38.8741
-39.1944
-39.1673
-38.8719
-38.4039
-37.8489
-37.2728
-36.7211
-36.2229
-35.7954
-35.4481
-35.1856
-35.01
-34.9222
-38.9931
-39.9497
-40.3043
-40.1394
-39.6182
-38.9027
-38.1178
-37.3468
-36.6388
-36.0202
-35.5029
-35.0908
-34.7838
-34.5806
-34.4795
-40.2966
-41.6273
-41.9339
-41.4678
-40.5587
-39.4708
-38.373
-37.3576
-36.4672
-35.7163
-35.1051
-34.6282
-34.2784
-34.0491
-33.9357
-42.5178
-44.3291
-44.3362
-43.239
-41.6781
-40.0489
-38.5459
-37.2435
-36.1561
-35.2725
-34.5732
-34.0387
-33.6524
-33.4017
-33.2784
-46.596
-48.835
-47.8427
-45.4741
-42.8657
-40.5007
-38.518
-36.9144
-35.6413
-34.6443
-33.8765
-33.301
-32.8907
-32.6269
-32.4979
-54.9108
-56.5725
-52.7253
-47.9492
-43.8098
-40.5702
-38.1112
-36.2547
-34.8502
-33.787
-32.9874
-32.398
-31.9826
-31.7174
-31.5883
-74.4911
-69.8187
-58.5368
-49.7877
-43.854
-39.859
-37.102
-35.1431
-33.7179
-32.6661
-31.8882
-31.3211
-30.9242
-30.672
-30.5494
-22.9029
-22.935
-23.0004
-23.1022
-23.2457
-23.4395
-23.6981
-24.0462
-24.5283
-25.2297
-26.3263
-28.2094
-31.7892
-39.0504
-52.0635
-21.9511
-21.9693
-22.0061
-22.0625
-22.1401
-22.2419
-22.3731
-22.5437
-22.7737
-23.1076
-23.6557
-24.7352
-27.4512
-36.5814
-77.9743
-20.9867
-20.9908
-20.9983
-21.0081
-21.0177
-21.0238
-21.0208
-21
-20.9472
-20.8371
-20.6142
-20.1058
-18.5451
-11.6937
25.317
-20.0194
-20.0098
-19.989
-19.9537
-19.8979
-19.8121
-19.6808
-19.4784
-19.1606
-18.6457
-17.7724
-16.2
-13.21
-7.7376
-3.90471
-19.0589
-19.0366
-18.9899
-18.9135
-18.7989
-18.632
-18.3903
-18.0371
-17.5108
-16.7036
-15.4193
-13.2879
-9.58154
-2.63119
13.4378
-18.1138
-18.0805
-18.0113
-17.8999
-17.7362
-17.5038
-17.1772
-16.7161
-16.0561
-15.0927
-13.655
-11.4749
-8.20702
-3.85275
-1.97668
-17.1917
-17.1495
-17.0619
-16.9227
-16.7212
-16.4411
-16.0574
-15.5331
-14.8122
-13.811
-12.4058
-10.4187
-7.58771
-3.35227
4.89805
-16.2991
-16.2498
-16.1484
-15.9887
-15.7609
-15.4502
-15.0354
-14.4867
-13.7628
-12.8097
-11.5607
-9.94887
-7.94394
-5.63963
-3.48332
-15.4407
-15.3864
-15.2753
-15.102
-14.8582
-14.5317
-14.1065
-13.5618
-12.8729
-12.0138
-10.9673
-9.75209
-8.50817
-7.82413
-10.3671
-14.62
-14.5625
-14.4454
-14.2644
-14.0128
-13.6818
-13.2605
-12.7371
-12.101
-11.3482
-10.4911
-9.57525
-8.68365
-7.76759
-5.05744
-13.8391
-13.78
-13.66
-13.4758
-13.2226
-12.8946
-12.4855
-11.9907
-11.4103
-10.7549
-10.0558
-9.38156
-8.87614
-8.95693
-11.8249
-13.0994
-13.0397
-12.9191
-12.735
-12.4844
-12.1636
-11.77
-11.3038
-10.7716
-10.1919
-9.60333
-9.07062
-8.66156
-8.21067
-5.58861
-12.4011
-12.3418
-12.2222
-12.0406
-11.7949
-11.4833
-11.105
-10.6628
-10.1659
-9.63515
-9.11203
-8.67382
-8.47603
-8.97216
-12.5267
-11.7441
-11.6857
-11.5683
-11.3906
-11.1513
-10.8492
-10.4844
-10.0598
-9.5836
-9.07311
-8.56177
-8.11008
-7.80863
-7.60969
-5.49768
-11.1275
-11.0706
-10.9562
-10.7835
-10.5513
-10.2586
-9.90523
-9.49268
-9.02516
-8.51167
-7.9701
-7.442
-7.07006
-7.57574
-13.4375
-10.5505
-10.4954
-10.3847
-10.2177
-9.9932
-9.71008
-9.36722
-8.96373
-8.49864
-7.96974
-7.36908
-6.66548
-5.72203
-3.82228
3.38805
-10.0118
-9.95877
-9.85237
-9.69178
-9.47586
-9.20308
-8.87134
-8.47755
-8.01643
-7.47766
-6.83954
-6.05555
-5.0381
-3.75673
-3.61522
-9.50985
-9.45923
-9.35763
-9.20429
-8.99802
-8.73702
-8.41854
-8.03814
-7.58814
-7.05458
-6.41131
-5.60773
-4.53745
-2.89962
0.774052
-9.04307
-8.9951
-8.89882
-8.75357
-8.55818
-8.31087
-8.00874
-7.64706
-7.21787
-6.70771
-6.09441
-5.34514
-4.43093
-3.45627
-3.57976
-8.60961
-8.5645
-8.47403
-8.33765
-8.15441
-7.92279
-7.6403
-7.30287
-6.90384
-6.43245
-5.87193
-5.19709
-4.36638
-3.25033
-0.996674
-8.20747
-8.1654
-8.08111
-7.95426
-7.78424
-7.57004
-7.31002
-7.00146
-6.64005
-6.21909
-5.72884
-5.15728
-4.5
-3.83439
-3.87119
-7.83453
-7.79562
-7.71776
-7.60085
-7.44475
-7.24912
-7.01343
-6.73675
-6.41763
-6.05386
-5.64223
-5.17699
-4.63941
-3.93068
-2.44183
-7.48862
-7.45289
-7.38151
-7.27468
-7.13269
-6.95602
-6.7453
-6.50153
-6.22621
-5.92186
-5.59285
-5.24694
-4.89769
-4.5687
-4.30794
-7.16753
-7.13491
-7.06988
-6.97291
-6.84474
-6.68655
-6.50014
-6.28821
-6.05495
-5.80699
-5.55522
-5.31919
-5.14191
-5.15934
-5.99296
-6.86909
-6.83944
-6.78045
-6.6928
-6.57762
-6.43669
-6.2727
-6.0897
-5.89391
-5.69477
-5.50667
-5.35065
-5.25093
-5.18316
-4.648
-6.59124
-6.56434
-6.51091
-6.4318
-6.32839
-6.20285
-6.05845
-5.90009
-5.73519
-5.57488
-5.43583
-5.34301
-5.33775
-5.53157
-6.54025
-6.33208
-6.30765
-6.25922
-6.18768
-6.09454
-5.98212
-5.85388
-5.71502
-5.57328
-5.44023
-5.3329
-5.27457
-5.28634
-5.31409
-4.70106
-6.08989
-6.06764
-6.02357
-5.95856
-5.87408
-5.77236
-5.6567
-5.53196
-5.40533
-5.28771
-5.19595
-5.15746
-5.22382
-5.5416
-6.86802
-5.86315
-5.84279
-5.80246
-5.74296
-5.66559
-5.57229
-5.46584
-5.3502
-5.23113
-5.11724
-5.02199
-4.96755
-4.9867
-5.06867
-4.54283
-5.65054
-5.63181
-5.59466
-5.53977
-5.46817
-5.38136
-5.28135
-5.17083
-5.05335
-4.93381
-4.81971
-4.72653
-4.70596
-5.01783
-7.2657
-5.45095
-5.43362
-5.39919
-5.34817
-5.28132
-5.1996
-5.10418
-4.99629
-4.87701
-4.74661
-4.60291
-4.4351
-4.19436
-3.62254
-1.13676
-5.26341
-5.24729
-5.21524
-5.16758
-5.10479
-5.02735
-4.93565
-4.82967
-4.70838
-4.56864
-4.40285
-4.19431
-3.91268
-3.55639
-3.69435
-5.08706
-5.07204
-5.04212
-4.99751
-4.93843
-4.86501
-4.77706
-4.67368
-4.55256
-4.40878
-4.23248
-4.00427
-3.68284
-3.14702
-1.78639
-4.92113
-4.90714
-4.87922
-4.83749
-4.78203
-4.71276
-4.62918
-4.53
-4.41249
-4.27151
-4.09816
-3.87898
-3.60189
-3.31041
-3.49486
-4.76494
-4.75191
-4.7259
-4.687
-4.63523
-4.57046
-4.49215
-4.39906
-4.28872
-4.15671
-3.99568
-3.79391
-3.53093
-3.14329
-2.23635
-4.61779
-4.60569
-4.58154
-4.54545
-4.49747
-4.43756
-4.36538
-4.28009
-4.18
-4.06208
-3.92148
-3.75135
-3.54655
-3.33678
-3.44302
-4.47905
-4.46783
-4.44549
-4.41215
-4.368
-4.31317
-4.24771
-4.17141
-4.08365
-3.98321
-3.8678
-3.73287
-3.56561
-3.31083
-2.66104
-4.3481
-4.33772
-4.31707
-4.28637
-4.24594
-4.19618
-4.13758
-4.07068
-3.99612
-3.91473
-3.82767
-3.73684
-3.64545
-3.55918
-3.49019
-4.22436
-4.21473
-4.19563
-4.16734
-4.13036
-4.08534
-4.03321
-3.97527
-3.91335
-3.85019
-3.79018
-3.7412
-3.72174
-3.79554
-4.27138
-4.10731
-4.09833
-4.08056
-4.05437
-4.02036
-3.97943
-3.93289
-3.88262
-3.83143
-3.78348
-3.74502
-3.72507
-3.73327
-3.75268
-3.51729
-3.99649
-3.98804
-3.97135
-3.94682
-3.91517
-3.87743
-3.83515
-3.79063
-3.74726
-3.71017
-3.68701
-3.68938
-3.73703
-3.88678
-4.46539
-3.89155
-3.88349
-3.86757
-3.84423
-3.81421
-3.77858
-3.73898
-3.69783
-3.65875
-3.62719
-3.61128
-3.62225
-3.66988
-3.72303
-3.42294
-3.79221
-3.78439
-3.76894
-3.7463
-3.71713
-3.68249
-3.64389
-3.6036
-3.565
-3.53333
-3.5169
-3.52967
-3.59891
-3.80459
-4.5644
-3.6983
-3.69058
-3.67532
-3.65289
-3.62387
-3.58915
-3.54998
-3.50819
-3.46646
-3.4289
-3.40223
-3.39788
-3.43318
-3.50134
-3.22795
-3.60976
-3.60202
-3.58669
-3.56405
-3.53457
-3.4989
-3.4579
-3.41275
-3.36501
-3.31692
-3.27208
-3.23854
-3.24464
-3.43528
-4.70713
-3.52659
-3.51873
-3.50312
-3.47997
-3.44958
-3.41234
-3.36871
-3.3191
-3.26382
-3.20267
-3.13408
-3.05168
-2.92795
-2.61837
-1.23586
-3.44888
-3.44083
-3.4248
-3.40092
-3.36935
-3.33024
-3.28366
-3.2294
-3.1667
-3.0936
-3.00568
-2.89352
-2.74033
-2.54656
-2.63812
-3.37677
-3.36847
-3.35193
-3.3272
-3.29434
-3.25333
-3.20394
-3.14556
-3.0768
-2.99483
-2.89411
-2.76384
-2.58091
-2.27658
-1.50212
-3.31041
-3.30185
-3.28475
-3.25914
-3.22501
-3.18224
-3.13048
-3.06894
-2.99609
-2.90907
-2.80305
-2.67075
-2.50578
-2.33308
-2.4301
-3.25
-3.24116
-3.22349
-3.197
-3.16168
-3.11739
-3.0638
-3.00019
-2.92521
-2.83651
-2.73025
-2.60036
-2.43602
-2.20228
-1.67775
-3.19574
-3.1866
-3.16834
-3.141
-3.10457
-3.05901
-3.00408
-2.93933
-2.86385
-2.77615
-2.67387
-2.55389
-2.41444
-2.27341
-2.30879
-3.14782
-3.13837
-3.11951
-3.0913
-3.05382
-3.00712
-2.95119
-2.88591
-2.81099
-2.72591
-2.62979
-2.52094
-2.39397
-2.22203
-1.84502
-3.10647
-3.09669
-3.07718
-3.04805
-3.00948
-2.96165
-2.9048
-2.8392
-2.7652
-2.68334
-2.59454
-2.50058
-2.40474
-2.31306
-2.23877
-3.07191
-3.06175
-3.04152
-3.01137
-2.97156
-2.92244
-2.86448
-2.79832
-2.72487
-2.64558
-2.56289
-2.48153
-2.41261
-2.392
-2.5809
-3.04442
-3.03382
-3.01274
-2.98139
-2.94011
-2.88938
-2.82986
-2.76249
-2.6886
-2.61018
-2.53032
-2.45384
-2.38694
-2.32544
-2.15179
-3.02428
-3.01318
-2.9911
-2.95832
-2.91523
-2.86242
-2.80071
-2.7312
-2.65548
-2.57577
-2.4954
-2.41952
-2.35751
-2.33675
-2.50447
-3.01185
-3.00016
-2.97691
-2.9424
-2.89709
-2.84164
-2.77696
-2.70424
-2.62513
-2.54184
-2.45736
-2.37555
-2.29945
-2.21717
-1.99565
-3.00755
-2.99516
-2.97053
-2.93398
-2.886
-2.82729
-2.75879
-2.68172
-2.59768
-2.50872
-2.41748
-2.32762
-2.24568
-2.19429
-2.31091
-3.01186
-2.99866
-2.97243
-2.9335
-2.88236
-2.81973
-2.74656
-2.66404
-2.57366
-2.47718
-2.37665
-2.27419
-2.17069
-2.05473
-1.81275
-3.02533
-3.01122
-2.98316
-2.94149
-2.8867
-2.81951
-2.74083
-2.65183
-2.55386
-2.44846
-2.33716
-2.22149
-2.10435
-2.00269
-2.04091
-3.04859
-3.03346
-3.00335
-2.95859
-2.89966
-2.82726
-2.74228
-2.64584
-2.53924
-2.42384
-2.30071
-2.16982
-2.02728
-1.85349
-1.54496
-3.08237
-3.06611
-3.03373
-2.98553
-2.92198
-2.84374
-2.75168
-2.64691
-2.53073
-2.40457
-2.26965
-2.12624
-1.97189
-1.79788
-1.58536
-3.12745
-3.10995
-3.07509
-3.02313
-2.9545
-2.86982
-2.76992
-2.6559
-2.52916
-2.39139
-2.24449
-2.09024
-1.93017
-1.769
-1.64825
-3.18467
-3.16585
-3.12832
-3.0723
-2.99817
-2.90647
-2.79797
-2.67373
-2.53524
-2.38456
-2.22444
-2.0583
-1.88921
-1.71204
-1.45717
-3.25497
-3.23475
-3.19438
-3.13406
-3.05405
-2.9548
-2.83694
-2.70145
-2.5498
-2.38429
-2.20857
-2.02841
-1.85385
-1.70904
-1.70395
-3.33932
-3.31763
-3.27432
-3.20948
-3.1233
-3.01605
-2.88817
-2.74039
-2.57397
-2.39112
-2.19577
-1.99464
-1.79783
-1.60902
-1.33232
-3.43872
-3.41554
-3.3692
-3.29973
-3.20717
-3.09162
-2.95321
-2.79228
-2.60955
-2.40664
-2.18698
-1.95789
-1.73624
-1.57002
-1.64627
-3.55422
-3.52953
-3.48014
-3.40601
-3.30703
-3.18306
-3.0339
-2.8593
-2.65915
-2.43379
-2.18473
-1.91596
-1.63617
-1.36262
-1.13542
-3.68687
-3.66069
-3.60828
-3.52953
-3.42423
-3.29201
-3.13225
-2.94407
-2.72627
-2.4774
-2.19617
-1.88169
-1.53178
-1.12304
-0.466782
-3.83769
-3.81005
-3.75471
-3.6715
-3.56014
-3.42007
-3.25034
-3.04942
-2.81494
-2.5435
-2.23068
-1.87204
-1.46822
-1.05534
-0.917666
-4.00772
-3.97866
-3.92048
-3.83303
-3.71599
-3.56873
-3.3901
-3.17808
-2.92929
-2.63833
-2.29703
-1.89377
-1.41097
-0.796522
0.302343
-4.19793
-4.16749
-4.10658
-4.0151
-3.89282
-3.73917
-3.55304
-3.33227
-3.07293
-2.76812
-2.4064
-1.97072
-1.44514
-0.874103
-0.781285
-4.40927
-4.37748
-4.31391
-4.21858
-4.09143
-3.93217
-3.74003
-3.51324
-3.24814
-2.93745
-2.56712
-2.11011
-1.51088
-0.619583
1.26631
-4.6427
-4.60953
-4.54329
-4.44416
-4.31234
-4.14801
-3.95108
-3.72083
-3.45502
-3.14818
-2.78804
-2.34827
-1.77945
-1.05575
-0.855647
-4.89916
-4.86456
-4.79553
-4.69243
-4.55583
-4.38648
-4.18528
-3.95312
-3.69038
-3.39593
-3.06425
-2.67605
-2.15557
-1.12831
2.64058
-5.17964
-5.14349
-5.07142
-4.96398
-4.82206
-4.64706
-4.44098
-4.20663
-3.94778
-3.66954
-3.37972
-3.09568
-2.88363
-3.10477
-6.05699
-5.48524
-5.44736
-5.37188
-5.25946
-5.11127
-4.92922
-4.71632
-4.47717
-4.21864
-3.95118
-3.69117
-3.46533
-3.31085
-3.18465
-1.99362
-5.81715
-5.77734
-5.698
-5.57979
-5.42399
-5.23281
-5.0099
-4.76115
-4.49571
-4.22765
-3.9789
-3.78541
-3.71844
-4.00399
-5.89755
-6.1767
-6.13477
-6.0511
-5.92623
-5.76129
-5.55842
-5.32143
-5.05674
-4.77459
-4.49073
-4.22824
-4.01763
-3.88124
-3.70665
-2.32203
-6.56538
-6.52118
-6.43282
-6.30051
-6.12493
-5.90772
-5.6522
-5.36444
-5.05465
-4.73895
-4.44158
-4.1983
-4.07057
-4.24959
-5.8828
-6.98476
-6.93826
-6.84505
-6.70483
-6.51748
-6.28362
-6.00536
-5.68745
-5.33882
-4.97446
-4.61734
-4.29873
-4.04689
-3.78268
-2.47991
-7.43642
-7.38779
-7.28995
-7.14187
-6.94232
-6.69035
-6.38606
-6.0318
-5.6339
-5.20494
-4.76636
-4.35278
-4.03178
-4.03701
-5.62399
-7.92185
-7.87148
-7.76973
-7.61465
-7.40357
-7.13343
-6.80146
-6.40644
-5.95056
-5.4421
-4.89803
-4.34255
-3.79014
-3.19288
-2.41845
-8.44227
-8.39086
-8.28654
-8.12633
-7.90584
-7.61943
-7.26066
-6.82336
-6.30372
-5.70399
-5.03761
-4.33019
-3.57963
-2.4718
1.32491
-8.99839
-8.94697
-8.84215
-8.67988
-8.4539
-8.15568
-7.77438
-7.29746
-6.71252
-6.01215
-5.20571
-4.34778
-3.61722
-3.61801
-6.95701
-9.59022
-9.54018
-9.43767
-9.27765
-9.05213
-8.74962
-8.3545
-7.84658
-7.20147
-6.39396
-5.40958
-4.27691
-3.14693
-2.44601
-2.89578
-10.2168
-10.1698
-10.0731
-9.92092
-9.70383
-9.40787
-9.01297
-8.49097
-7.8032
-6.89861
-5.71643
-4.20417
-2.37867
-0.474927
0.853108
-10.876
-10.834
-10.7471
-10.6093
-10.4103
-10.1348
-9.75969
-9.25049
-8.55548
-7.59604
-6.2525
-4.34894
-1.66477
1.89596
5.52425
-11.5644
-11.5293
-11.4565
-11.34
-11.1699
-10.931
-10.5995
-10.139
-9.49141
-8.5602
-7.17748
-5.03582
-1.55957
4.21993
12.715
-12.2771
-12.2509
-12.1962
-12.1079
-11.9774
-11.7913
-11.5289
-11.1576
-10.6243
-9.8379
-8.62951
-6.64949
-3.05386
4.65806
25.8052
-146.468
-88.0198
-61.5425
-48.892
-42.1174
-38.0724
-35.4453
-33.6349
-32.3377
-31.3876
-30.6874
-30.1777
-29.8213
-29.5949
-29.4848
-182.17
-82.3644
-54.6729
-43.9974
-38.6431
-35.4635
-33.372
-31.9073
-30.842
-30.0518
-29.4635
-29.0319
-28.7284
-28.5349
-28.4406
46.8957
-26.63
-35.9867
-35.4075
-33.6586
-32.0989
-30.8635
-29.9024
-29.1552
-28.5757
-28.1307
-27.7972
-27.5592
-27.406
-27.3309
-7.05605
-15.4574
-24.2003
-27.63
-28.5425
-28.5093
-28.1645
-27.7488
-27.3521
-27.0061
-26.7206
-26.4962
-26.3311
-26.2227
-26.1691
25.8908
-4.04751
-16.1037
-21.6006
-24.0833
-25.1359
-25.5147
-25.5821
-25.5136
-25.3947
-25.2679
-25.154
-25.0636
-25.0015
-24.97
-1.43625
-5.05578
-12.5621
-17.6645
-20.6171
-22.2306
-23.081
-23.5099
-23.7101
-23.7888
-23.8061
-23.7956
-23.7764
-23.759
-23.749
11.442
-3.3649
-10.6899
-15.2213
-18.0809
-19.8553
-20.94
-21.5965
-21.9909
-22.2256
-22.3637
-22.4433
-22.4879
-22.5113
-22.5212
-3.08883
-6.86978
-10.7578
-13.939
-16.2982
-17.9589
-19.0963
-19.8653
-20.3825
-20.7296
-20.9618
-21.1154
-21.2142
-21.2729
-21.3002
-14.994
-10.3003
-11.3165
-13.2274
-15.0006
-16.4259
-17.5085
-18.3089
-18.8922