/*--------------------------------*- C++ -*----------------------------------*\
| =========                 |                                                 |
| \\      /  F ield         | OpenFOAM: The Open Source CFD Toolbox           |
|  \\    /   O peration     | Version:  5.x                                   |
|   \\  /    A nd           | Web:      www.OpenFOAM.org                      |
|    \\/     M anipulation  |                                                 |
\*---------------------------------------------------------------------------*/
FoamFile
{
    version     2.0;
    format      ascii;
    class       volScalarField;
    location    "19.4";
    object      T;
}
// * * * * * * * * * * * * * * * * * * * * * * * * * * * * * * * * * * * * * //

dimensions      [0 0 0 1 0 0 0];

internalField   nonuniform List<scalar> 
2048
(
9.81021
9.8104
9.81079
9.81136
9.8121
9.81298
9.81399
9.81511
9.81631
9.81759
9.81892
9.82029
9.82168
9.82308
9.82448
9.82587
9.82725
9.8286
9.82992
9.83121
9.83246
9.83368
9.83485
9.83598
9.83706
9.8381
9.83909
9.84003
9.84092
9.84174
9.84251
9.84321
9.84385
9.8444
9.84487
9.84525
9.84553
9.8457
9.84576
9.84569
9.84549
9.84515
9.84465
9.84399
9.84317
9.84218
9.84101
9.83966
9.83815
9.83648
9.83467
9.83274
9.83072
9.82865
9.82658
9.82454
9.82259
9.82078
9.81915
9.81773
9.81656
9.81567
9.81506
9.81475
9.43876
9.43935
9.4405
9.4422
9.44438
9.44701
9.45001
9.45334
9.45692
9.46071
9.46465
9.4687
9.47282
9.47697
9.48112
9.48525
9.48932
9.49332
9.49723
9.50104
9.50475
9.50834
9.5118
9.51514
9.51835
9.52142
9.52435
9.52713
9.52975
9.53221
9.53448
9.53656
9.53843
9.54007
9.54147
9.5426
9.54344
9.54396
9.54413
9.54394
9.54335
9.54234
9.54088
9.53894
9.53651
9.53357
9.53012
9.52614
9.52166
9.51671
9.51133
9.5056
9.4996
9.49345
9.48728
9.48122
9.47543
9.47004
9.46518
9.46096
9.45749
9.45482
9.45301
9.4521
9.08311
9.08408
9.086
9.08881
9.09242
9.09676
9.10171
9.10719
9.11309
9.11932
9.12579
9.13244
9.1392
9.14601
9.15281
9.15956
9.16622
9.17277
9.17917
9.1854
9.19146
9.19732
9.20298
9.20844
9.21368
9.2187
9.22349
9.22804
9.23232
9.23634
9.24006
9.24347
9.24654
9.24924
9.25154
9.25341
9.25479
9.25566
9.25597
9.25568
9.25474
9.25311
9.25075
9.24761
9.24365
9.23886
9.23322
9.22671
9.21937
9.21124
9.2024
9.19297
9.18308
9.17293
9.16273
9.15272
9.14314
9.13423
9.1262
9.11924
9.1135
9.1091
9.10613
9.10462
8.74234
8.74371
8.74639
8.75031
8.75536
8.7614
8.76829
8.77589
8.78406
8.79268
8.80164
8.81082
8.82014
8.82951
8.83888
8.84817
8.85734
8.86633
8.87513
8.88369
8.892
8.90004
8.90781
8.9153
8.92249
8.92938
8.93596
8.9422
8.94809
8.95361
8.95874
8.96344
8.96768
8.97141
8.9746
8.97719
8.97913
8.98036
8.98084
8.98048
8.97924
8.97705
8.97384
8.96957
8.96418
8.95763
8.94989
8.94096
8.93085
8.91963
8.9074
8.89432
8.88058
8.86646
8.85225
8.83829
8.82493
8.8125
8.8013
8.79161
8.78363
8.77752
8.77339
8.77131
8.41562
8.41738
8.42085
8.4259
8.4324
8.44016
8.449
8.45872
8.46915
8.48013
8.49151
8.50317
8.51499
8.52687
8.53873
8.55049
8.56207
8.57343
8.58453
8.59532
8.6058
8.61594
8.62573
8.63516
8.64423
8.65292
8.66121
8.66908
8.67653
8.6835
8.68999
8.69594
8.70132
8.70607
8.71014
8.71346
8.71597
8.71759
8.71825
8.71787
8.71638
8.71369
8.70972
8.70441
8.69767
8.68945
8.67971
8.66844
8.65565
8.64141
8.62584
8.60914
8.59156
8.57345
8.55519
8.53724
8.52004
8.50405
8.48967
8.47723
8.467
8.45918
8.45391
8.45125
8.10216
8.10434
8.10862
8.11485
8.12284
8.13236
8.14316
8.15501
8.16769
8.18101
8.19479
8.20888
8.22315
8.23748
8.25177
8.26592
8.27985
8.2935
8.30681
8.31976
8.33231
8.34446
8.35619
8.36749
8.37836
8.38877
8.39871
8.40817
8.4171
8.42549
8.4333
8.44048
8.44698
8.45274
8.45768
8.46174
8.46483
8.46686
8.46775
8.4674
8.46571
8.46259
8.45794
8.45166
8.44366
8.43388
8.42224
8.40872
8.39332
8.37612
8.35725
8.33694
8.31549
8.29333
8.27095
8.24891
8.22779
8.20817
8.19054
8.17532
8.16283
8.1533
8.14688
8.14365
7.80126
7.80388
7.80901
7.81648
7.82601
7.83733
7.85014
7.86414
7.87908
7.89472
7.91087
7.92736
7.94404
7.96077
7.97743
7.99391
8.01011
8.02598
8.04144
8.05645
8.071
8.08508
8.09866
8.11176
8.12435
8.13642
8.14796
8.15893
8.16931
8.17907
8.18817
8.19655
8.20415
8.21091
8.21673
8.22154
8.22523
8.22771
8.22886
8.22858
8.22676
8.22328
8.21802
8.21087
8.20172
8.19046
8.17702
8.16134
8.14342
8.12332
8.10118
8.07724
8.05187
8.02558
7.99895
7.9727
7.94754
7.92417
7.90322
7.88517
7.8704
7.85916
7.8516
7.8478
7.51226
7.51534
7.52139
7.53014
7.5413
7.55449
7.56935
7.58554
7.60274
7.62071
7.63922
7.65807
7.67711
7.69619
7.71517
7.73392
7.75235
7.77035
7.78788
7.80489
7.82135
7.83727
7.85264
7.86745
7.8817
7.89537
7.90844
7.92088
7.93266
7.94375
7.95411
7.96366
7.97236
7.98011
7.98682
7.99239
7.9967
7.99965
8.00111
8.00096
7.99907
7.9953
7.98952
7.98159
7.97137
7.95875
7.94361
7.92587
7.90551
7.88256
7.85717
7.82959
7.80024
7.76969
7.73868
7.70804
7.67867
7.65143
7.62705
7.60612
7.58905
7.5761
7.5674
7.56304
7.23453
7.23812
7.24514
7.25528
7.26814
7.28328
7.30026
7.31867
7.33816
7.35845
7.37928
7.40047
7.42184
7.44323
7.46448
7.48546
7.50604
7.52612
7.54564
7.56456
7.58286
7.60055
7.61762
7.63408
7.64992
7.66512
7.67967
7.69353
7.70667
7.71905
7.73063
7.74134
7.75111
7.75986
7.76746
7.77381
7.77877
7.78223
7.78404
7.78406
7.78216
7.77817
7.77195
7.76334
7.75216
7.73828
7.72155
7.70186
7.67914
7.65342
7.6248
7.59355
7.56013
7.5252
7.48961
7.45439
7.42063
7.38935
7.36144
7.33757
7.31818
7.30353
7.29372
7.28882
6.96749
6.97163
6.9797
6.99133
7.006
7.02319
7.04236
7.06304
7.08483
7.10743
7.13057
7.15407
7.17773
7.20139
7.22487
7.24802
7.2707
7.2928
7.31424
7.335
7.35505
7.37442
7.39312
7.41116
7.42853
7.44522
7.46119
7.47642
7.49087
7.5045
7.51727
7.52912
7.53996
7.5497
7.5582
7.56535
7.57099
7.57498
7.57718
7.57743
7.57557
7.57145
7.56487
7.55567
7.54364
7.52861
7.5104
7.48886
7.4639
7.43546
7.40365
7.36872
7.33114
7.29167
7.2513
7.21126
7.17286
7.13736
7.10581
7.07896
7.05725
7.04092
7.03003
7.0246
6.71061
6.71535
6.72457
6.73779
6.7544
6.77374
6.79518
6.81817
6.84228
6.86718
6.89261
6.91838
6.9443
6.97018
6.99586
7.02114
7.04587
7.06992
7.09322
7.11573
7.13746
7.15844
7.17869
7.19824
7.21708
7.23519
7.25254
7.26909
7.2848
7.29965
7.31359
7.32656
7.33846
7.34919
7.3586
7.36656
7.37289
7.37746
7.38008
7.38061
7.37887
7.37467
7.36783
7.35812
7.34535
7.32928
7.30971
7.28645
7.25934
7.22829
7.19333
7.1547
7.11287
7.06868
7.02328
6.97814
6.93486
6.89494
6.85963
6.82975
6.80574
6.78778
6.77586
6.76992
6.46335
6.46875
6.47924
6.4942
6.51288
6.53449
6.55828
6.58364
6.61008
6.63726
6.66495
6.69295
6.72108
6.74916
6.77699
6.80437
6.8311
6.85704
6.88213
6.90632
6.92964
6.95214
6.97388
6.99487
7.01512
7.03461
7.05328
7.07111
7.08805
7.10407
7.11915
7.13321
7.14617
7.15789
7.16822
7.17701
7.18407
7.18923
7.19232
7.19317
7.19159
7.1874
7.18036
7.17025
7.15684
7.13985
7.11906
7.0942
7.06507
7.0315
6.99346
6.95111
6.90494
6.85584
6.80515
6.75459
6.70612
6.66157
6.62237
6.58945
6.56319
6.54367
6.53078
6.52438
6.22523
6.23138
6.24325
6.26011
6.28102
6.30503
6.33126
6.35902
6.3878
6.41724
6.44714
6.47733
6.50765
6.53789
6.56784
6.59727
6.62596
6.65375
6.68054
6.70633
6.73116
6.75511
6.77825
6.80062
6.82223
6.84304
6.863
6.88206
6.90018
6.91734
6.93352
6.94866
6.96266
6.97538
6.98665
6.99628
7.00408
7.00987
7.01346
7.01467
7.01332
7.00919
7.00204
6.99163
6.97767
6.95989
6.93799
6.91168
6.88066
6.8447
6.80366
6.75761
6.70702
6.65281
6.59652
6.54018
6.48617
6.43674
6.39356
6.35759
6.32916
6.30818
6.29441
6.2876
5.99579
6.00276
6.01617
6.03511
6.05843
6.08497
6.11374
6.14394
6.17504
6.20672
6.23878
6.27111
6.30356
6.33594
6.36799
6.39945
6.43005
6.45962
6.48806
6.51536
6.54161
6.56692
6.59139
6.61509
6.638
6.6601
6.6813
6.70154
6.72079
6.73905
6.75631
6.77251
6.78754
6.80127
6.81348
6.82398
6.83254
6.83897
6.84309
6.84471
6.84363
6.83963
6.83245
6.82182
6.80743
6.78896
6.76609
6.73847
6.70572
6.6675
6.62357
6.57387
6.51877
6.45925
6.39702
6.33449
6.27456
6.21997
6.17271
6.13375
6.10325
6.08095
6.06641
6.05924
5.77459
5.78247
5.79759
5.81881
5.84473
5.87397
5.90536
5.93804
5.97145
6.0053
6.03946
6.07388
6.10843
6.1429
6.17703
6.21049
6.24298
6.27428
6.30428
6.33301
6.36059
6.38717
6.41291
6.43787
6.46205
6.48539
6.50779
6.52917
6.54951
6.56882
6.58712
6.60436
6.62043
6.63516
6.64834
6.65971
6.66905
6.67615
6.68083
6.68288
6.68211
6.6783
6.67117
6.6604
6.64568
6.62665
6.60294
6.57415
6.53984
6.49954
6.45284
6.39955
6.3399
6.27486
6.20632
6.13712
6.07081
6.0108
5.95938
5.9175
5.88511
5.86165
5.84647
5.83902
5.56119
5.57011
5.58713
5.61087
5.6396
5.67168
5.70578
5.74097
5.77666
5.81261
5.8488
5.88525
5.92184
5.95838
5.99458
6.03003
6.06437
6.09734
6.12885
6.15892
6.18772
6.21549
6.24241
6.26858
6.29398
6.31854
6.34211
6.36459
6.38596
6.40627
6.42558
6.44383
6.46093
6.47669
6.49084
6.5031
6.51324
6.52103
6.52627
6.52879
6.52839
6.52482
6.5178
6.50698
6.49202
6.47254
6.44813
6.41833
6.38263
6.34043
6.29115
6.23436
6.17012
6.09936
6.02412
5.9477
5.87448
5.80873
5.75312
5.70847
5.6744
5.64999
5.63432
5.62667
5.3552
5.36528
5.38443
5.41094
5.44272
5.4778
5.5147
5.55241
5.59032
5.6283
5.66643
5.70483
5.74342
5.78201
5.82027
5.85771
5.89386
5.92846
5.9614
5.99271
6.02264
6.05149
6.07954
6.10687
6.13345
6.1592
6.18392
6.20744
6.22979
6.25105
6.27133
6.29058
6.3087
6.32549
6.34063
6.35381
6.36475
6.37324
6.37907
6.38207
6.38206
6.37879
6.37195
6.36117
6.34606
6.32624
6.30126
6.27061
6.23369
6.18982
6.13815
6.078
6.00917
5.93251
5.85015
5.76586
5.68512
5.61332
5.55351
5.5063
5.47081
5.4457
5.42972
5.42195
5.15623
5.16762
5.18913
5.21871
5.2538
5.29203
5.33182
5.37206
5.41213
5.45201
5.49198
5.53226
5.57282
5.61341
5.65374
5.69317
5.73112
5.7673
5.80159
5.83404
5.86498
5.89483
5.92393
5.95237
5.98011
6.00704
6.03288
6.05741
6.08066
6.10281
6.12402
6.14426
6.1634
6.18123
6.19739
6.21148
6.22324
6.23244
6.23886
6.24237
6.24278
6.23986
6.23327
6.22259
6.20742
6.18735
6.16193
6.13058
6.09265
6.04733
5.99352
5.93019
5.85682
5.77408
5.68416
5.59128
5.50228
5.42407
5.36014
5.31064
5.27407
5.24854
5.23243
5.22466
4.96389
4.97677
5.00091
5.03389
5.07257
5.11411
5.15686
5.19963
5.24176
5.28342
5.32509
5.3672
5.40966
5.45224
5.49466
5.53611
5.57581
5.61353
5.64911
5.68259
5.71442
5.74516
5.77525
5.80475
5.83362
5.86173
5.88868
5.91416
5.93825
5.96123
5.98334
6.00454
6.02468
6.04358
6.06078
6.0758
6.08838
6.09829
6.10532
6.10933
6.1102
6.10767
6.10139
6.09089
6.07573
6.05551
6.02976
5.99786
5.95911
5.9126
5.85694
5.79067
5.71282
5.62388
5.52596
5.42364
5.32549
5.24053
5.17261
5.12121
5.08394
5.05829
5.04227
5.03458
4.77784
4.79241
4.81946
4.85621
4.89879
4.94377
4.98954
5.03484
5.07892
5.12221
5.16544
5.20929
5.25362
5.29815
5.34269
5.38619
5.42763
5.46683
5.50364
5.53803
5.57063
5.60214
5.63316
5.6637
5.69366
5.72296
5.75104
5.77741
5.80226
5.82598
5.84896
5.8711
5.89224
5.91223
5.9305
5.94646
5.95987
5.9705
5.97811
5.98264
5.98397
5.98188
5.97597
5.96571
5.95063
5.93034
5.9044
5.87208
5.8327
5.78529
5.72809
5.65916
5.57695
5.48174
5.37542
5.26263
5.15424
5.06219
4.99056
4.93772
4.9002
4.87477
4.85905
4.85154
4.59772
4.61423
4.64447
4.68543
4.73224
4.78077
4.82961
4.87744
4.92332
4.96805
5.01267
5.05822
5.10437
5.15079
5.19752
5.24315
5.28627
5.32691
5.3649
5.40007
5.43329
5.46545
5.49736
5.52891
5.55991
5.59044
5.61967
5.64686
5.67238
5.69676
5.72058
5.74365
5.76576
5.78689
5.80628
5.82315
5.83739
5.84874
5.85693
5.86197
5.86378
5.86218
5.85669
5.84674
5.83179
5.81151
5.78548
5.75288
5.71303
5.66502
5.60664
5.53542
5.449
5.34748
5.23243
5.108
4.98802
4.88856
4.81363
4.75995
4.72268
4.69781
4.6826
4.67538
4.4232
4.44194
4.47566
4.5213
4.57275
4.62484
4.67681
4.7272
4.77468
4.82065
4.86646
4.91366
4.96161
5.00984
5.05886
5.10671
5.15143
5.19348
5.23261
5.26841
5.3021
5.33477
5.36755
5.40009
5.43209
5.46391
5.49433
5.52226
5.54834
5.57328
5.59791
5.6219
5.64495
5.66727
5.68783
5.70561
5.72067
5.73275
5.74149
5.74702
5.74931
5.74824
5.74325
5.73366
5.71889
5.69866
5.67266
5.63988
5.59972
5.55144
5.49228
5.41918
5.32872
5.22098
5.097
4.95952
4.82623
4.71913
4.6415
4.58767
4.5512
4.52726
4.51276
4.50592
4.25394
4.27529
4.31273
4.36361
4.42015
4.47575
4.5309
4.5839
4.63274
4.67972
4.72647
4.77534
4.82506
4.87494
4.92641
4.97664
5.02282
5.06626
5.10654
5.14278
5.17678
5.20978
5.24345
5.27696
5.30987
5.34308
5.37479
5.40335
5.42986
5.45523
5.4807
5.5056
5.52952
5.55311
5.57492
5.59355
5.60943
5.62225
5.6315
5.63751
5.64028
5.63979
5.63535
5.62618
5.61162
5.59148
5.56564
5.53276
5.4924
5.4442
5.38469
5.31023
5.21589
5.10205
4.96919
4.817
4.6682
4.55338
4.47389
4.42074
4.38563
4.36297
4.34938
4.343
4.08961
4.11406
4.15537
4.21217
4.27433
4.33324
4.39162
4.44734
4.49721
4.54497
4.59235
4.64297
4.69446
4.74577
4.7999
4.85272
4.90015
4.94496
4.98644
5.0229
5.05705
5.09019
5.12479
5.1593
5.19297
5.2277
5.26084
5.28987
5.3167
5.34233
5.36867
5.3945
5.41918
5.44414
5.46732
5.4867
5.5034
5.517
5.5267
5.53316
5.53639
5.53654
5.53271
5.52402
5.50968
5.48965
5.46412
5.4312
5.39067
5.34296
5.28353
5.20833
5.11026
4.99053
4.84921
4.68032
4.51316
4.3908
4.31056
4.25902
4.22587
4.20481
4.19232
4.18648
3.92988
3.95811
4.00324
4.06679
4.13523
4.19701
4.25871
4.31738
4.36784
4.41616
4.46376
4.51629
4.5696
4.62194
4.67905
4.73479
4.78313
4.82932
4.87213
4.9085
4.94266
4.97568
5.01133
5.04686
5.08107
5.11755
5.15231
5.18158
5.20862
5.23429
5.2616
5.28837
5.31363
5.34012
5.36482
5.38482
5.40234
5.41677
5.42682
5.43371
5.43737
5.43822
5.43508
5.42693
5.4128
5.39285
5.36781
5.33487
5.29416
5.24739
5.18846
5.11331
5.01153
4.88617
4.73739
4.54943
4.36017
4.23087
4.15133
4.10244
4.07181
4.05267
4.04141
4.03618
3.77441
3.80734
3.856
3.92729
4.00285
4.06675
4.1319
4.19389
4.24434
4.29306
4.34032
4.39508
4.45029
4.50307
4.56363
4.62273
4.67143
4.71907
4.76343
4.79933
4.83339
4.86592
4.90285
4.93948
4.97384
5.01237
5.04906
5.07824
5.1054
5.13081
5.15927
5.18704
5.21257
5.24083
5.26725
5.28763
5.306
5.32134
5.33162
5.33893
5.34296
5.34458
5.3422
5.33466
5.32072
5.30077
5.27649
5.24351
5.20245
5.15718
5.09912
5.02502
4.9194
4.78863
4.63425
4.4244
4.20806
4.07313
3.99611
3.95093
3.92338
3.90642
3.89653
3.89195
3.62283
3.66178
3.71319
3.79352
3.8773
3.94208
4.01093
4.07682
4.12638
4.17546
4.22161
4.27913
4.33641
4.38871
4.45338
4.51649
4.56471
4.61393
4.66024
4.69509
4.72903
4.76057
4.79914
4.83699
4.87093
4.91196
4.95098
4.97961
5.00685
5.0316
5.06147
5.09033
5.1157
5.14604
5.17449
5.19486
5.21414
5.23054
5.24084
5.24859
5.25288
5.2554
5.25385
5.247
5.2332
5.21311
5.18992
5.15687
5.11512
5.07204
5.01511
4.94338
4.83352
4.69745
4.54053
4.3054
4.05541
3.91717
3.84486
3.80449
3.78051
3.76595
3.75751
3.75362
3.47473
3.52158
3.57429
3.66531
3.75877
3.82253
3.89548
3.9662
4.01363
4.06325
4.10717
4.16828
4.22791
4.27835
4.34808
4.41611
4.46257
4.51362
4.56249
4.59548
4.62943
4.65926
4.70002
4.7393
4.77194
4.81611
4.85804
4.88539
4.9128
4.9363
4.96803
4.99814
5.02266
5.05556
5.08644
5.10625
5.12653
5.1442
5.15424
5.16247
5.16689
5.17044
5.16978
5.16373
5.15002
5.12953
5.10794
5.07471
5.03172
4.99174
4.93597
4.86839
4.75351
4.61194
4.45723
4.19281
3.9004
3.7627
3.69765
3.66313
3.64312
3.63112
3.6242
3.62103
3.32964
3.38707
3.43863
3.54253
3.64762
3.70754
3.78524
3.86213
3.90564
3.95636
3.99646
4.06238
4.12484
4.17138
4.24752
4.32171
4.36456
4.41786
4.47018
4.50016
4.53449
4.56157
4.60534
4.64637
4.67643
4.72461
4.77023
4.7953
4.82316
4.84457
4.8788
4.91039
4.93306
4.96917
5.00306
5.02147
5.04295
5.0622
5.07156
5.0804
5.08473
5.08952
5.08979
5.08467
5.07097
5.04968
5.03041
4.99687
4.95175
4.91612
4.86115
4.80018
4.67898
4.53115
4.38568
4.08722
3.74073
3.60962
3.55461
3.52688
3.51115
3.50181
3.49645
3.494
3.18701
3.25885
3.30536
3.42505
3.54439
3.59636
3.67988
3.76487
3.80189
3.85487
3.88886
3.96134
4.02735
4.0671
4.15148
4.23355
4.27013
4.32635
4.38343
4.40872
4.44419
4.46703
4.515
4.55824
4.58388
4.63729
4.68766
4.70896
4.73788
4.75599
4.79364
4.82708
4.84648
4.88672
4.92437
4.94019
4.96317
4.98445
4.99253
5.00223
5.00612
5.01243
5.01366
5.00965
4.9959
4.97319
4.95723
4.92321
4.87463
4.84512
4.79002
4.73903
4.6095
4.45373
4.3276
3.98949
3.57349
3.45808
3.41599
3.39578
3.38452
3.37788
3.37409
3.37236
3.04618
3.13779
3.1734
3.31272
3.44984
3.4881
3.57903
3.67483
3.70169
3.75899
3.78357
3.86513
3.93575
3.96462
4.05978
4.15206
4.17862
4.23879
4.30243
4.32064
4.35862
4.37507
4.42889
4.47506
4.49366
4.55397
4.61049
4.62592
4.65699
4.67007
4.71247
4.74828
4.76239
4.80803
4.85047
4.86203
4.88698
4.91092
4.91685
4.92783
4.93081
4.93903
4.94118
4.93851
4.92466
4.89963
4.88837
4.85368
4.79971
4.7788
4.72175
4.6854
4.54469
4.37786
4.28517
3.90085
3.39498
3.30864
3.28207
3.26986
3.26314
3.2592
3.25696
3.25593
2.90633
3.0252
3.04134
3.20543
3.36501
3.3816
3.48232
3.59263
3.60415
3.66915
3.67967
3.77373
3.85052
3.86287
3.97226
4.07786
4.08921
4.15486
4.22755
4.2353
4.27801
4.28502
4.34698
4.39708
4.40502
4.47451
4.53902
4.54562
4.58066
4.58624
4.63523
4.67416
4.6802
4.73297
4.78155
4.78652
4.81419
4.84163
4.8442
4.85714
4.85849
4.86919
4.87214
4.87111
4.85717
4.82851
4.82384
4.78828
4.72619
4.71743
4.65528
4.64002
4.48419
4.30112
4.26108
3.82295
3.20055
3.16235
3.1532
3.14914
3.14691
3.14561
3.14487
3.14453
)
;

boundaryField
{
    left
    {
        type            zeroGradient;
    }
    right
    {
        type            zeroGradient;
    }
    interface
    {
        type            fixedValue;
        value           nonuniform List<scalar> 
64
(
2.83482
2.97288
2.97288
3.1531
3.32732
3.32732
3.4348
3.55506
3.55506
3.62668
3.62668
3.72952
3.81056
3.81056
3.92959
4.04408
4.04408
4.11366
4.19267
4.19267
4.23956
4.23956
4.30726
4.36007
4.36007
4.43581
4.50565
4.50565
4.54415
4.54415
4.59774
4.6388
4.6388
4.69639
4.74902
4.74902
4.77862
4.80841
4.80841
4.82289
4.82289
4.83526
4.83851
4.83851
4.82457
4.79311
4.79311
4.75701
4.68884
4.68884
4.62156
4.62156
4.45533
4.25983
4.25983
3.78975
3.09007
3.09007
3.09007
3.09007
3.09007
3.09007
3.09007
3.09007
)
;
    }
    bottom
    {
        type            fixedValue;
        value           uniform 10;
    }
    defaultFaces
    {
        type            empty;
    }
}


// ************************************************************************* //
