/*--------------------------------*- C++ -*----------------------------------*\
| =========                 |                                                 |
| \\      /  F ield         | OpenFOAM: The Open Source CFD Toolbox           |
|  \\    /   O peration     | Version:  5.x                                   |
|   \\  /    A nd           | Web:      www.OpenFOAM.org                      |
|    \\/     M anipulation  |                                                 |
\*---------------------------------------------------------------------------*/
FoamFile
{
    version     2.0;
    format      ascii;
    class       volScalarField;
    location    "7.4";
    object      gradTy;
}
// * * * * * * * * * * * * * * * * * * * * * * * * * * * * * * * * * * * * * //

dimensions      [0 -1 0 1 0 0 0];

internalField   nonuniform List<scalar> 
3200
(
18.2488
8.63578
11.7298
8.31238
9.74976
8.03981
8.79398
7.79276
8.24165
7.60083
7.87622
7.51735
7.72781
7.31748
7.52973
7.13947
7.33863
6.98008
7.16185
6.83795
7.00127
6.71234
6.85741
6.6023
6.7303
6.50617
6.62041
6.42081
6.53577
6.36667
6.23154
6.31868
6.20023
6.25787
6.16574
6.21038
6.13642
6.17232
6.11222
6.1414
6.09239
6.11616
6.07625
6.09553
6.06327
6.0787
6.05316
6.06505
6.04596
6.05413
6.04307
6.04919
6.03765
6.04302
6.03412
6.03772
6.03284
6.03386
6.03456
6.03187
6.04064
6.03229
6.05366
6.03583
6.07863
6.04276
6.12651
6.04833
6.22315
6.00073
6.29314
7.1089
6.4216
7.94774
6.7806
9.89641
9.12575
9.0079
8.98357
8.97833
17.0092
9.75171
11.3322
8.77638
9.54701
8.27
8.67376
7.9253
8.16449
7.68503
7.83208
7.5642
7.67636
7.36896
7.48108
7.18874
7.29404
7.02548
7.12162
6.87902
6.96541
6.74902
6.82577
6.63471
6.70247
6.53464
6.59528
6.44599
6.50832
6.37046
6.25642
6.30431
6.21584
6.24657
6.17762
6.20129
6.14591
6.16493
6.11992
6.13538
6.09867
6.11126
6.08137
6.09158
6.06742
6.07558
6.05645
6.06274
6.04844
6.05278
6.04452
6.04778
6.03913
6.04195
6.03528
6.03718
6.03351
6.03404
6.03455
6.0331
6.03966
6.03519
6.05116
6.04161
6.07358
6.05428
6.11671
6.07391
6.20336
6.07614
6.35163
6.9936
6.62344
7.76505
7.15803
9.50307
9.0996
9.00412
8.98276
8.97808
16.0599
10.5141
11.1
9.10726
9.42611
8.43291
8.59958
8.01828
8.11603
7.74413
7.80448
7.5958
7.64164
7.40362
7.44857
7.22205
7.26435
7.05624
7.09489
6.90688
6.94163
6.77393
6.80481
6.65673
6.68402
6.55393
6.5785
6.46268
6.48884
6.37327
6.2748
6.29536
6.22666
6.23923
6.18576
6.19533
6.15241
6.16008
6.12519
6.13142
6.10297
6.10804
6.08487
6.08898
6.07025
6.07354
6.05872
6.06124
6.05016
6.05193
6.0455
6.04682
6.04013
6.04126
6.03609
6.03684
6.03401
6.03421
6.03461
6.03401
6.0391
6.03726
6.04967
6.04573
6.07058
6.06252
6.1111
6.0926
6.19382
6.13544
6.39546
6.91879
6.76483
7.65234
7.41738
9.2197
9.06116
8.9974
8.98133
8.97768
15.3324
11.0312
10.9709
9.34568
9.35769
8.54943
8.55532
8.08411
8.08636
7.78593
7.78764
7.61723
7.61829
7.42695
7.42692
7.24462
7.24469
7.07712
7.07723
6.92584
6.92595
6.79089
6.791
6.67173
6.67187
6.56703
6.56735
6.47369
6.47503
6.37539
6.28841
6.28999
6.23423
6.23454
6.19139
6.19148
6.15687
6.15693
6.12881
6.12885
6.10592
6.10595
6.08728
6.0873
6.07221
6.07222
6.06028
6.06029
6.05138
6.0514
6.04617
6.04619
6.04082
6.04081
6.03666
6.03665
6.03438
6.03437
6.03471
6.03468
6.03883
6.03876
6.04884
6.0487
6.06889
6.06849
6.10818
6.10649
6.19067
6.182
6.42875
6.87106
6.86455
7.58452
7.59525
9.01476
9.01894
8.98879
8.97939
8.97713
14.777
11.3786
10.9044
9.51861
9.32208
8.63338
8.53014
8.13099
8.06879
7.81565
7.77768
7.63179
7.60262
7.44263
7.41256
7.25989
7.23172
7.0913
7.06563
6.93873
6.91567
6.80245
6.78197
6.68196
6.66392
6.57593
6.55994
6.4809
6.46526
6.377
6.29848
6.2869
6.23955
6.23158
6.19528
6.18902
6.15996
6.15491
6.13131
6.1272
6.10795
6.1046
6.08894
6.08622
6.07356
6.07139
6.06137
6.0597
6.05223
6.05109
6.04663
6.04577
6.04129
6.04053
6.03707
6.03655
6.03466
6.03451
6.03483
6.03519
6.03872
6.03986
6.04841
6.05085
6.06802
6.07286
6.10691
6.11695
6.19124
6.21835
6.45422
6.8413
6.93522
7.54507
7.71677
8.86645
8.97808
8.97934
8.97718
8.97649
14.3575
11.6091
10.8744
9.64397
9.30616
8.69391
8.5168
8.1644
8.05886
7.83677
7.77204
7.64168
7.59219
7.45311
7.4031
7.27017
7.22325
7.10089
7.05807
6.94747
6.909
6.81029
6.77612
6.68891
6.65876
6.58195
6.55506
6.48557
6.45839
6.37823
6.30588
6.28525
6.2433
6.22975
6.19797
6.18747
6.16208
6.15363
6.13302
6.12615
6.10935
6.10375
6.09008
6.08554
6.07449
6.07086
6.06213
6.05933
6.05283
6.05091
6.04694
6.0455
6.04162
6.04035
6.03735
6.0365
6.03488
6.03464
6.03494
6.03557
6.0387
6.04066
6.04823
6.05241
6.06765
6.07606
6.1066
6.12484
6.19369
6.24634
6.47365
6.82325
6.98524
7.52315
7.79917
8.75965
8.94164
8.97003
8.9749
8.97583
14.0479
11.759
10.8642
9.73362
9.30122
8.73704
8.51046
8.18793
8.05359
7.85159
7.76903
7.64834
7.58535
7.46003
7.39696
7.27702
7.21779
7.1073
7.05323
6.95332
6.90473
6.81556
6.77239
6.69357
6.65547
6.58597
6.55189
6.48855
6.45364
6.37914
6.3112
6.28445
6.24591
6.22866
6.19981
6.18651
6.16352
6.15283
6.13419
6.1255
6.1103
6.10322
6.09086
6.08511
6.07513
6.07054
6.06265
6.05911
6.05325
6.05081
6.04716
6.04533
6.04184
6.04025
6.03755
6.03649
6.03504
6.03474
6.03505
6.03586
6.03873
6.04124
6.04818
6.05353
6.06756
6.07838
6.10679
6.1307
6.19679
6.26735
6.48818
6.81272
7.02023
7.5117
7.85419
8.68399
8.91135
8.96166
8.97279
8.9752
13.8299
11.8532
10.8635
9.79534
9.30155
8.76666
8.50797
8.20393
8.05102
7.86163
7.76754
7.65269
7.58099
7.46446
7.39309
7.28144
7.21438
7.11145
7.05022
6.95712
6.90209
6.81898
6.77008
6.6966
6.65343
6.58858
6.54988
6.49038
6.45048
6.37979
6.31488
6.28413
6.24767
6.22803
6.20103
6.18594
6.16447
6.15235
6.13495
6.1251
6.11093
6.10291
6.09137
6.08486
6.07555
6.07035
6.06299
6.05899
6.05353
6.05076
6.0473
6.04522
6.04199
6.04019
6.03769
6.03649
6.03515
6.03482
6.03513
6.03606
6.03878
6.04164
6.04819
6.05431
6.06759
6.07999
6.10716
6.13488
6.19971
6.28235
6.49857
6.80686
7.04387
7.50621
7.88972
8.63243
8.88814
8.95486
8.97102
8.97467
13.691
11.9078
10.8659
9.83409
9.30352
8.78523
8.50729
8.21389
8.04992
7.86785
7.76688
7.65531
7.57843
7.46709
7.39083
7.28407
7.21241
7.11394
7.04848
6.9594
6.90057
6.82103
6.76876
6.69843
6.65226
6.59013
6.54871
6.49144
6.44855
6.38021
6.31719
6.28403
6.24876
6.22769
6.20177
6.18562
6.16505
6.15209
6.13542
6.12489
6.11131
6.10273
6.09168
6.08472
6.0758
6.07024
6.0632
6.05893
6.0537
6.05073
6.04738
6.04516
6.04208
6.04016
6.03778
6.03649
6.03522
6.03487
6.03518
6.03619
6.03882
6.0419
6.04822
6.05479
6.06765
6.08101
6.1075
6.13757
6.20192
6.292
6.50527
6.80385
7.05849
7.50388
7.91088
8.60036
8.87249
8.95008
8.96975
8.97429
13.6233
11.9328
10.8679
9.85278
9.305
8.79418
8.50723
8.21867
8.04954
7.87083
7.76665
7.65654
7.57724
7.4683
7.38979
7.2853
7.2115
7.1151
7.04769
6.96047
6.89988
6.822
6.76816
6.69928
6.65173
6.59086
6.54817
6.49192
6.44763
6.38041
6.3183
6.28401
6.24928
6.22754
6.20212
6.18548
6.16532
6.15197
6.13564
6.12479
6.11149
6.10265
6.09183
6.08466
6.07592
6.0702
6.0633
6.0589
6.05378
6.05072
6.04742
6.04513
6.04212
6.04014
6.03782
6.03649
6.03526
6.0349
6.03521
6.03625
6.03884
6.04202
6.04825
6.05503
6.0677
6.08151
6.1077
6.13889
6.20309
6.29673
6.50856
6.80261
7.06547
7.50308
7.92074
8.58497
8.86462
8.94762
8.96909
8.97409
-13.7621
-11.9566
-10.7276
-9.38839
-8.57798
-7.68613
-7.12418
-6.4723
-6.05726
-5.57517
-5.28172
-4.95607
-4.71845
-4.38991
-4.15422
-3.84249
-3.62464
-3.34341
-3.14913
-2.90096
-2.73039
-2.5135
-2.36469
-2.17568
-2.04565
-1.87967
-1.76309
-1.60907
-1.48663
-1.29893
-1.12318
-1.02455
-0.922189
-0.856838
-0.778711
-0.726574
-0.66207
-0.618531
-0.564158
-0.527336
-0.481227
-0.44999
-0.410884
-0.384453
-0.351474
-0.329358
-0.302057
-0.284164
-0.262764
-0.249557
-0.234664
-0.223696
-0.208418
-0.19741
-0.182791
-0.17255
-0.159296
-0.150129
-0.13841
-0.13037
-0.120177
-0.113264
-0.10464
-0.099027
-0.0924707
-0.0891196
-0.087083
-0.0905297
-0.10479
-0.138711
-0.228804
-0.374913
-0.529489
-0.815964
-1.11863
-1.62775
-1.84313
-1.90713
-1.92369
-1.92755
-13.8343
-11.9336
-10.732
-9.36725
-8.58124
-7.67294
-7.12778
-6.46283
-6.05995
-5.56762
-5.28301
-4.95256
-4.72209
-4.3862
-4.15726
-3.83874
-3.62717
-3.33993
-3.15129
-2.89786
-2.73224
-2.51078
-2.3663
-2.17333
-2.04709
-1.8777
-1.7646
-1.60781
-1.48924
-1.29846
-1.1201
-1.0247
-0.920711
-0.857351
-0.777674
-0.727071
-0.661234
-0.618966
-0.563458
-0.527709
-0.480634
-0.450307
-0.410378
-0.384717
-0.351041
-0.329567
-0.301683
-0.284306
-0.262438
-0.249626
-0.234509
-0.22387
-0.208248
-0.197555
-0.182617
-0.172671
-0.159133
-0.150232
-0.138264
-0.130457
-0.120046
-0.113333
-0.10452
-0.0990656
-0.0923432
-0.0890677
-0.0868643
-0.0900978
-0.104004
-0.136464
-0.226564
-0.374575
-0.524214
-0.815317
-1.11037
-1.6395
-1.84918
-1.90902
-1.9242
-1.9277
-13.9826
-11.8825
-10.7429
-9.32296
-8.5894
-7.64523
-7.13618
-6.44288
-6.06622
-5.55178
-5.28614
-4.94505
-4.72995
-4.37822
-4.1639
-3.83071
-3.63275
-3.33252
-3.15605
-2.89125
-2.73634
-2.50499
-2.36985
-2.16831
-2.05026
-1.87348
-1.76785
-1.60503
-1.49475
-1.29749
-1.1137
-1.0252
-0.917611
-0.85852
-0.775477
-0.728179
-0.659457
-0.619933
-0.56197
-0.528538
-0.479373
-0.45101
-0.409304
-0.385302
-0.350122
-0.330034
-0.300889
-0.284629
-0.261751
-0.249788
-0.234175
-0.224244
-0.207883
-0.197872
-0.182245
-0.172937
-0.158786
-0.150459
-0.137953
-0.130649
-0.119769
-0.113488
-0.104267
-0.0991556
-0.0920786
-0.0889737
-0.0864289
-0.0892396
-0.102477
-0.131913
-0.222008
-0.374171
-0.513279
-0.814511
-1.09275
-1.66403
-1.86123
-1.91271
-1.92518
-1.928
-14.2148
-11.7931
-10.7651
-9.25121
-8.60599
-7.60012
-7.15195
-6.41028
-6.078
-5.52599
-5.2923
-4.9325
-4.74328
-4.36475
-4.17529
-3.81728
-3.64241
-3.32016
-3.16434
-2.88025
-2.7435
-2.49535
-2.37607
-2.15995
-2.05579
-1.86642
-1.77339
-1.60015
-1.50374
-1.29599
-1.1035
-1.02647
-0.912573
-0.86065
-0.771852
-0.730148
-0.656515
-0.621641
-0.559503
-0.529998
-0.477282
-0.452248
-0.407524
-0.386337
-0.348601
-0.330865
-0.299582
-0.285218
-0.260629
-0.250098
-0.233616
-0.224877
-0.207265
-0.198414
-0.181621
-0.173399
-0.158208
-0.150854
-0.137434
-0.130985
-0.119309
-0.11376
-0.10385
-0.0993251
-0.091656
-0.0888581
-0.0857799
-0.0879651
-0.100302
-0.124935
-0.214969
-0.374291
-0.49586
-0.814626
-1.0634
-1.70352
-1.8791
-1.91795
-1.92654
-1.9284
-14.544
-11.6479
-10.8067
-9.14473
-8.63701
-7.5327
-7.17947
-6.3613
-6.09858
-5.48747
-5.3035
-4.91314
-4.76419
-4.34372
-4.19343
-3.79653
-3.65798
-3.30115
-3.17777
-2.86337
-2.75511
-2.48057
-2.38616
-2.14712
-2.06473
-1.8555
-1.78215
-1.59219
-1.51718
-1.29387
-1.08868
-1.02921
-0.90506
-0.864257
-0.766346
-0.733396
-0.652025
-0.624441
-0.555733
-0.532389
-0.474085
-0.454276
-0.404804
-0.388036
-0.346282
-0.33224
-0.297599
-0.286217
-0.258946
-0.250647
-0.232749
-0.225866
-0.206297
-0.199276
-0.180655
-0.17414
-0.157316
-0.151493
-0.136638
-0.131531
-0.118604
-0.114208
-0.103219
-0.0996213
-0.0910394
-0.0887545
-0.0849212
-0.0862852
-0.0976364
-0.115343
-0.20516
-0.37592
-0.470554
-0.81754
-1.0184
-1.76159
-1.90245
-1.9244
-1.92817
-1.92888
-14.989
-11.4206
-10.8812
-8.99208
-8.6919
-7.43525
-7.2256
-6.29011
-6.1331
-5.43187
-5.32296
-4.88413
-4.79597
-4.31189
-4.22144
-3.76546
-3.68228
-3.27281
-3.19884
-2.83824
-2.77338
-2.45858
-2.40205
-2.12803
-2.07874
-1.83916
-1.79557
-1.57965
-1.53657
-1.29104
-1.06803
-1.03454
-0.894215
-0.870152
-0.758245
-0.738583
-0.645386
-0.628888
-0.550151
-0.53618
-0.469352
-0.457493
-0.400778
-0.390736
-0.342855
-0.33444
-0.294688
-0.287854
-0.256505
-0.251582
-0.231442
-0.227364
-0.20483
-0.200602
-0.179207
-0.175295
-0.155986
-0.152495
-0.135452
-0.132391
-0.11756
-0.114921
-0.102293
-0.100118
-0.0901716
-0.0887135
-0.0838554
-0.0842064
-0.094717
-0.102866
-0.192113
-0.380595
-0.435153
-0.826299
-0.951712
-1.84376
-1.93055
-1.93158
-1.92992
-1.92939
-15.5767
-11.0721
-11.0096
-8.77588
-8.78505
-7.29593
-7.30076
-6.18778
-6.1894
-5.35258
-5.35563
-4.84109
-4.84359
-4.26431
-4.26408
-3.71947
-3.71964
-3.23105
-3.23139
-2.80128
-2.80166
-2.42626
-2.42664
-2.09995
-2.10037
-1.81498
-1.81589
-1.56019
-1.56405
-1.28731
-1.03981
-1.04415
-0.878723
-0.879563
-0.746456
-0.746715
-0.635681
-0.635828
-0.54198
-0.542088
-0.462421
-0.462506
-0.394886
-0.394952
-0.337852
-0.337895
-0.290462
-0.290473
-0.253009
-0.253127
-0.229494
-0.229602
-0.202631
-0.202617
-0.17706
-0.177067
-0.154025
-0.154039
-0.133709
-0.133723
-0.116028
-0.116034
-0.10095
-0.100926
-0.0889652
-0.0888094
-0.0825818
-0.081722
-0.0918926
-0.0871462
-0.175097
-0.390627
-0.386289
-0.845687
-0.854355
-1.95813
-1.96208
-1.93887
-1.93163
-1.92988
-16.3446
-10.5459
-11.2249
-8.46997
-8.93814
-7.09685
-7.42064
-6.04088
-6.27924
-5.23971
-5.40901
-4.77738
-4.91449
-4.19358
-4.32849
-3.6517
-3.77656
-3.16973
-3.28116
-2.74711
-2.84497
-2.37892
-2.46431
-2.05879
-2.13344
-1.77936
-1.84648
-1.53035
-1.60276
-1.28242
-1.00151
-1.06056
-0.856582
-0.894335
-0.729335
-0.759301
-0.621531
-0.64653
-0.530053
-0.551189
-0.452302
-0.470229
-0.38629
-0.401456
-0.330566
-0.343251
-0.284339
-0.294593
-0.248011
-0.255623
-0.226598
-0.232924
-0.199355
-0.205655
-0.173892
-0.179762
-0.151142
-0.156399
-0.131152
-0.135764
-0.11379
-0.117752
-0.0990059
-0.102212
-0.0872873
-0.0891489
-0.0810943
-0.0787971
-0.0896655
-0.067719
-0.152978
-0.409454
-0.318875
-0.883104
-0.713194
-2.1165
-1.9947
-1.94552
-1.93311
-1.93029
-17.3444
-9.76057
-11.5775
-8.03514
-9.18362
-6.81117
-7.60867
-5.82925
-6.4202
-5.07849
-5.49443
-4.68292
-5.01971
-4.08863
-4.42538
-3.55186
-3.86275
-3.07969
-3.35675
-2.66767
-2.91084
-2.30952
-2.52163
-1.99843
-2.18366
-1.72689
-1.89241
-1.48498
-1.65718
-1.27595
-0.949624
-1.08749
-0.824775
-0.91722
-0.704419
-0.778598
-0.600874
-0.662893
-0.512624
-0.565093
-0.437513
-0.482028
-0.37373
-0.411404
-0.319937
-0.351473
-0.275452
-0.300988
-0.240847
-0.259587
-0.222289
-0.237843
-0.194486
-0.210217
-0.16922
-0.183837
-0.146906
-0.159979
-0.127403
-0.13887
-0.110515
-0.120379
-0.0961841
-0.104224
-0.0849389
-0.0898857
-0.0793772
-0.0753462
-0.0887517
-0.0440042
-0.124011
-0.442164
-0.225269
-0.949887
-0.509103
-2.33588
-2.02441
-1.95069
-1.93421
-1.9306
-18.648
-8.59953
-12.1448
-7.41296
-9.57022
-6.39899
-7.90007
-5.52312
-6.63877
-4.84725
-5.62924
-4.54283
-5.17594
-3.93324
-4.57097
-3.40493
-3.99298
-2.94752
-3.47125
-2.5512
-3.01075
-2.20783
-2.6086
-1.90996
-2.25979
-1.64974
-1.96147
-1.41663
-1.73395
-1.26747
-0.879339
-1.13061
-0.778921
-0.952473
-0.668169
-0.808119
-0.570761
-0.687883
-0.48721
-0.586323
-0.415955
-0.500055
-0.355438
-0.426623
-0.304486
-0.364094
-0.262591
-0.310899
-0.230611
-0.265875
-0.215945
-0.245197
-0.187326
-0.217121
-0.162391
-0.190043
-0.140732
-0.165449
-0.121949
-0.143626
-0.105764
-0.124422
-0.0921218
-0.107378
-0.0816658
-0.0912856
-0.0774413
-0.0712382
-0.0901987
-0.015334
-0.0855426
-0.496285
-0.0940137
-1.06328
-0.214305
-2.64076
-2.04459
-1.95356
-1.93478
-1.93074
18.648
8.59953
12.1448
7.41296
9.57022
6.39899
7.90007
5.52311
6.63876
4.84725
5.62924
4.54282
5.17594
3.93324
4.57097
3.40493
3.99298
2.94752
3.47125
2.5512
3.01075
2.20783
2.6086
1.90996
2.25979
1.64974
1.96147
1.41663
1.73395
1.26747
0.879338
1.13061
0.77892
0.952473
0.668168
0.808119
0.57076
0.687882
0.487209
0.586323
0.415954
0.500055
0.355437
0.426623
0.304485
0.364094
0.262591
0.310899
0.23061
0.265874
0.215945
0.245197
0.187326
0.217121
0.162391
0.190043
0.140731
0.165449
0.121949
0.143626
0.105764
0.124422
0.0921216
0.107378
0.0816656
0.0912856
0.0774412
0.0712383
0.0901986
0.0153342
0.0855425
0.496287
0.0940141
1.06328
0.214306
2.64077
2.0446
1.95357
1.93479
1.93075
17.3445
9.76057
11.5775
8.03514
9.18362
6.81117
7.60867
5.82926
6.4202
5.07849
5.49443
4.68292
5.01971
4.08863
4.42539
3.55187
3.86275
3.0797
3.35675
2.66768
2.91085
2.30953
2.52163
1.99843
2.18366
1.72689
1.89241
1.48498
1.65719
1.27595
0.949626
1.08749
0.824777
0.917222
0.70442
0.7786
0.600875
0.662894
0.512625
0.565094
0.437514
0.48203
0.373731
0.411405
0.319938
0.351474
0.275453
0.300989
0.240848
0.259588
0.22229
0.237844
0.194487
0.210218
0.169221
0.183838
0.146906
0.15998
0.127404
0.138871
0.110516
0.12038
0.0961847
0.104225
0.0849394
0.0898864
0.0793777
0.0753468
0.0887521
0.0440047
0.124011
0.442164
0.22527
0.94989
0.509104
2.33588
2.02442
1.9507
1.93422
1.93061
16.3446
10.5459
11.2249
8.46997
8.93815
7.09685
7.42065
6.04089
6.27925
5.23972
5.40901
4.77739
4.91449
4.19359
4.3285
3.65171
3.77657
3.16974
3.28116
2.74712
2.84498
2.37892
2.46432
2.05879
2.13345
1.77936
1.84649
1.53036
1.60276
1.28242
1.00152
1.06056
0.856586
0.894339
0.729339
0.759304
0.621534
0.646533
0.530056
0.551192
0.452305
0.470231
0.386292
0.401458
0.330568
0.343254
0.284341
0.294595
0.248013
0.255625
0.2266
0.232926
0.199357
0.205657
0.173894
0.179763
0.151144
0.1564
0.131154
0.135766
0.113791
0.117754
0.0990071
0.102213
0.0872885
0.0891501
0.0810954
0.0787981
0.0896664
0.0677198
0.152978
0.409455
0.318876
0.883107
0.713195
2.11651
1.99471
1.94552
1.93312
1.9303
15.5767
11.0721
11.0096
8.77589
8.78506
7.29593
7.30077
6.18779
6.18941
5.35259
5.35564
4.8411
4.8436
4.26432
4.26409
3.71948
3.71965
3.23105
3.2314
2.80129
2.80167
2.42627
2.42664
2.09995
2.10038
1.81499
1.8159
1.5602
1.56405
1.28732
1.03981
1.04416
0.878727
0.879568
0.74646
0.746719
0.635685
0.635832
0.541983
0.542091
0.462424
0.462509
0.394889
0.394955
0.337855
0.337898
0.290464
0.290476
0.253011
0.253129
0.229496
0.229604
0.202633
0.202619
0.177062
0.177069
0.154027
0.154041
0.133711
0.133725
0.11603
0.116036
0.100952
0.100927
0.0889666
0.0888108
0.0825831
0.0817232
0.0918936
0.0871472
0.175097
0.390628
0.386289
0.845689
0.854358
1.95814
1.96209
1.93888
1.93163
1.92989
14.989
11.4206
10.8812
8.99209
8.69191
7.43526
7.22561
6.29012
6.13311
5.43188
5.32297
4.88414
4.79598
4.3119
4.22145
3.76546
3.68229
3.27281
3.19885
2.83824
2.77339
2.45858
2.40206
2.12803
2.07875
1.83917
1.79558
1.57965
1.53657
1.29105
1.06804
1.03455
0.89422
0.870157
0.758249
0.738588
0.64539
0.628892
0.550154
0.536184
0.469355
0.457496
0.400781
0.390739
0.342858
0.334443
0.294691
0.287857
0.256508
0.251585
0.231444
0.227366
0.204832
0.200605
0.179209
0.175297
0.155988
0.152497
0.135454
0.132393
0.117562
0.114923
0.102295
0.100119
0.0901731
0.088715
0.0838567
0.0842077
0.0947181
0.102867
0.192113
0.380596
0.435154
0.826301
0.951715
1.84377
1.93056
1.93159
1.92993
1.9294
14.544
11.6479
10.8067
9.14474
8.63702
7.53271
7.17948
6.36131
6.09859
5.48748
5.30351
4.91315
4.7642
4.34373
4.19344
3.79654
3.65799
3.30116
3.17778
2.86337
2.75512
2.48057
2.38617
2.14713
2.06473
1.85551
1.78215
1.5922
1.51719
1.29388
1.08868
1.02922
0.905065
0.864262
0.766351
0.7334
0.652029
0.624445
0.555737
0.532392
0.474089
0.45428
0.404807
0.388039
0.346285
0.332243
0.297602
0.28622
0.258948
0.25065
0.232751
0.225868
0.2063
0.199278
0.180658
0.174142
0.157319
0.151495
0.13664
0.131533
0.118606
0.11421
0.103221
0.0996229
0.0910409
0.0887559
0.0849226
0.0862865
0.0976376
0.115344
0.205161
0.375921
0.470555
0.817542
1.01841
1.7616
1.90246
1.92441
1.92818
1.92889
14.2148
11.7931
10.7651
9.25122
8.606
7.60013
7.15196
6.41028
6.07801
5.526
5.2923
4.93251
4.74329
4.36476
4.1753
3.81729
3.64242
3.32017
3.16435
2.88026
2.7435
2.49536
2.37608
2.15996
2.0558
1.86642
1.7734
1.60015
1.50375
1.29599
1.1035
1.02647
0.912578
0.860655
0.771856
0.730152
0.656519
0.621645
0.559507
0.530002
0.477285
0.452252
0.407527
0.38634
0.348604
0.330868
0.299584
0.28522
0.260631
0.2501
0.233619
0.224879
0.207267
0.198417
0.181623
0.173401
0.15821
0.150857
0.137436
0.130987
0.119311
0.113762
0.103852
0.0993267
0.0916575
0.0888596
0.0857813
0.0879664
0.100303
0.124937
0.21497
0.374292
0.495862
0.814628
1.06341
1.70353
1.87911
1.91796
1.92655
1.92841
13.9826
11.8825
10.743
9.32297
8.58941
7.64524
7.13619
6.44289
6.06622
5.55179
5.28615
4.94506
4.72996
4.37823
4.1639
3.83072
3.63275
3.33253
3.15605
2.89126
2.73635
2.505
2.36986
2.16831
2.05027
1.87349
1.76785
1.60504
1.49476
1.2975
1.11371
1.02521
0.917615
0.858525
0.775481
0.728184
0.659461
0.619937
0.561974
0.528541
0.479376
0.451013
0.409307
0.385305
0.350125
0.330037
0.300892
0.284631
0.261753
0.249791
0.234178
0.224246
0.207885
0.197874
0.182247
0.17294
0.158788
0.150461
0.137955
0.130651
0.119771
0.113489
0.104269
0.0991572
0.0920801
0.0889752
0.0864302
0.0892409
0.102478
0.131914
0.222009
0.374173
0.513281
0.814514
1.09275
1.66404
1.86124
1.91271
1.92519
1.928
13.8343
11.9336
10.732
9.36726
8.58125
7.67295
7.12779
6.46284
6.05995
5.56763
5.28302
4.95257
4.7221
4.38621
4.15727
3.83874
3.62718
3.33994
3.1513
2.89787
2.73225
2.51079
2.36631
2.17333
2.0471
1.87771
1.7646
1.60782
1.48925
1.29846
1.12011
1.02471
0.920716
0.857356
0.777678
0.727075
0.661238
0.61897
0.563462
0.527713
0.480637
0.45031
0.410381
0.384719
0.351044
0.32957
0.301685
0.284308
0.26244
0.249628
0.234511
0.223872
0.20825
0.197557
0.182619
0.172673
0.159135
0.150234
0.138266
0.130458
0.120048
0.113335
0.104522
0.0990671
0.0923447
0.0890691
0.0868656
0.0900991
0.104005
0.136465
0.226565
0.374576
0.524215
0.815319
1.11037
1.63951
1.84919
1.90903
1.92421
1.92771
13.7621
11.9566
10.7276
9.3884
8.57799
7.68614
7.12419
6.47231
6.05727
5.57517
5.28172
4.95608
4.71845
4.38992
4.15422
3.84249
3.62464
3.34341
3.14914
2.90097
2.73039
2.51351
2.36469
2.17569
2.04566
1.87968
1.7631
1.60908
1.48664
1.29894
1.12319
1.02456
0.922193
0.856842
0.778715
0.726577
0.662074
0.618534
0.564162
0.527339
0.48123
0.449993
0.410886
0.384456
0.351477
0.329361
0.30206
0.284166
0.262766
0.249559
0.234667
0.223698
0.20842
0.197412
0.182793
0.172551
0.159297
0.150131
0.138412
0.130371
0.120178
0.113266
0.104641
0.0990285
0.092472
0.0891209
0.0870842
0.0905309
0.104791
0.138712
0.228805
0.374914
0.529491
0.815967
1.11863
1.62776
1.84313
1.90713
1.9237
1.92756
-13.6268
-11.9378
-10.8747
-9.86331
-9.31969
-8.81685
-8.53899
-8.26782
-8.11727
-7.96851
-7.86592
-7.73011
-7.63442
-7.50974
-7.42275
-7.31041
-7.23229
-7.13166
-7.06183
-6.97212
-6.91006
-6.8306
-6.77579
-6.70584
-6.65762
-6.59598
-6.55278
-6.49593
-6.4512
-6.38335
-6.32067
-6.28608
-6.25107
-6.22915
-6.20354
-6.18677
-6.16646
-6.153
-6.13656
-6.12563
-6.11223
-6.10333
-6.09243
-6.08521
-6.07642
-6.07065
-6.06371
-6.05927
-6.05412
-6.05104
-6.04771
-6.0454
-6.04237
-6.04037
-6.03802
-6.03669
-6.03543
-6.03506
-6.03536
-6.03638
-6.03896
-6.04213
-6.04835
-6.05512
-6.06778
-6.08158
-6.10777
-6.13895
-6.20315
-6.29678
-6.5086
-6.80264
-7.06551
-7.50311
-7.92077
-8.585
-8.86465
-8.94764
-8.96912
-8.97411
-13.6944
-11.9128
-10.8727
-9.8446
-9.31806
-8.80785
-8.53872
-8.263
-8.1172
-7.96666
-7.86725
-7.72851
-7.63558
-7.50823
-7.42377
-7.30905
-7.23319
-7.13042
-7.06263
-6.97101
-6.91076
-6.82961
-6.7764
-6.70497
-6.65816
-6.59524
-6.55333
-6.49544
-6.45212
-6.38314
-6.31955
-6.2861
-6.25055
-6.2293
-6.20319
-6.18691
-6.16618
-6.15312
-6.13634
-6.12572
-6.11205
-6.10341
-6.09228
-6.08527
-6.07629
-6.07069
-6.06361
-6.0593
-6.05404
-6.05105
-6.04767
-6.04543
-6.04232
-6.04039
-6.03798
-6.03668
-6.0354
-6.03503
-6.03533
-6.03632
-6.03894
-6.04201
-6.04832
-6.05489
-6.06773
-6.08109
-6.10757
-6.13763
-6.20197
-6.29205
-6.50531
-6.80389
-7.05852
-7.50391
-7.91091
-8.60038
-8.87251
-8.9501
-8.96978
-8.97431
-13.8332
-11.8581
-10.8701
-9.80582
-9.31577
-8.78921
-8.53871
-8.25297
-8.11731
-7.96277
-7.87015
-7.72507
-7.63812
-7.505
-7.42599
-7.30612
-7.23516
-7.12779
-7.06437
-6.96865
-6.91229
-6.8275
-6.77773
-6.70312
-6.65934
-6.59366
-6.55451
-6.49438
-6.45407
-6.38272
-6.31722
-6.2862
-6.24945
-6.22964
-6.20244
-6.18723
-6.1656
-6.15339
-6.13587
-6.12594
-6.11167
-6.10359
-6.09197
-6.08542
-6.07604
-6.0708
-6.06339
-6.05936
-6.05386
-6.05107
-6.04759
-6.04549
-6.04223
-6.04042
-6.0379
-6.03668
-6.03532
-6.03498
-6.03527
-6.03619
-6.0389
-6.04175
-6.04829
-6.0544
-6.06767
-6.08006
-6.10722
-6.13494
-6.19976
-6.2824
-6.49861
-6.80689
-7.0439
-7.50624
-7.88974
-8.63246
-8.88816
-8.95488
-8.97104
-8.9747
-14.051
-11.7639
-10.8706
-9.74407
-9.31495
-8.75952
-8.54012
-8.23695
-8.11818
-7.9564
-7.87515
-7.7193
-7.6425
-7.49962
-7.42985
-7.30124
-7.23859
-7.1234
-7.06741
-6.96472
-6.91495
-6.824
-6.78006
-6.70003
-6.66139
-6.59102
-6.55654
-6.49251
-6.45726
-6.38206
-6.31351
-6.28653
-6.24767
-6.23028
-6.20121
-6.1878
-6.16464
-6.15387
-6.13509
-6.12634
-6.11104
-6.10391
-6.09145
-6.08567
-6.07561
-6.07099
-6.06305
-6.05949
-6.05358
-6.05112
-6.04744
-6.0456
-6.04209
-6.04048
-6.03776
-6.03668
-6.03521
-6.0349
-6.03519
-6.03599
-6.03885
-6.04135
-6.04827
-6.05363
-6.06764
-6.07845
-6.10686
-6.13076
-6.19684
-6.2674
-6.48822
-6.81275
-7.02026
-7.51173
-7.85422
-8.68402
-8.91137
-8.96168
-8.97281
-8.97522
-14.3603
-11.6139
-10.8805
-9.65443
-9.31917
-8.71639
-8.54487
-8.21354
-8.12078
-7.9468
-7.88313
-7.71037
-7.64952
-7.4913
-7.43605
-7.29372
-7.24412
-7.11664
-7.07232
-6.95866
-6.91927
-6.81861
-6.78383
-6.69528
-6.66471
-6.58694
-6.55974
-6.4895
-6.46205
-6.38113
-6.30814
-6.28733
-6.24504
-6.23138
-6.19935
-6.18877
-6.16319
-6.15467
-6.13392
-6.127
-6.11008
-6.10444
-6.09067
-6.0861
-6.07497
-6.07131
-6.06252
-6.05971
-6.05316
-6.05122
-6.04723
-6.04578
-6.04186
-6.04059
-6.03756
-6.0367
-6.03505
-6.0348
-6.03509
-6.03571
-6.03882
-6.04078
-6.04832
-6.0525
-6.06773
-6.07614
-6.10667
-6.1249
-6.19374
-6.24639
-6.47369
-6.82329
-6.98527
-7.52317
-7.79919
-8.75967
-8.94167
-8.97005
-8.97493
-8.97585
-14.7795
-11.3835
-10.91
-9.52915
-9.3341
-8.65601
-8.55602
-8.18059
-8.12661
-7.9328
-7.89548
-7.69697
-7.66044
-7.47887
-7.44575
-7.28249
-7.25277
-7.10655
-7.07999
-6.94964
-6.92603
-6.81058
-6.78975
-6.68822
-6.66992
-6.58084
-6.56467
-6.48477
-6.46898
-6.37989
-6.30068
-6.289
-6.24126
-6.23322
-6.19664
-6.19033
-6.16105
-6.15596
-6.13219
-6.12805
-6.10867
-6.1053
-6.08952
-6.08678
-6.07404
-6.07184
-6.06176
-6.06007
-6.05256
-6.05141
-6.04691
-6.04605
-6.04154
-6.04076
-6.03727
-6.03675
-6.03483
-6.03467
-6.03497
-6.03533
-6.03883
-6.03997
-6.0485
-6.05094
-6.0681
-6.07294
-6.10698
-6.11701
-6.19129
-6.2184
-6.45427
-6.84133
-6.93525
-7.5451
-7.7168
-8.86647
-8.9781
-8.97936
-8.9772
-8.97651
-15.3345
-11.0361
-10.9758
-9.35644
-9.36834
-8.5725
-8.57818
-8.13479
-8.13804
-7.91253
-7.91427
-7.67708
-7.67716
-7.46049
-7.46064
-7.26591
-7.26608
-7.09168
-7.09182
-6.93634
-6.93647
-6.79877
-6.7989
-6.67782
-6.67796
-6.57182
-6.57214
-6.47748
-6.47884
-6.37825
-6.29051
-6.2921
-6.23589
-6.2362
-6.19272
-6.19281
-6.15795
-6.158
-6.12968
-6.12972
-6.10662
-6.10665
-6.08785
-6.08787
-6.07267
-6.07269
-6.06067
-6.06067
-6.05169
-6.05172
-6.04645
-6.04647
-6.04106
-6.04105
-6.03686
-6.03685
-6.03455
-6.03453
-6.03485
-6.03482
-6.03894
-6.03888
-6.04893
-6.04879
-6.06897
-6.06857
-6.10824
-6.10655
-6.19073
-6.18206
-6.42879
-6.8711
-6.86458
-7.58454
-7.59528
-9.01479
-9.01896
-8.98881
-8.97942
-8.97715
-16.0615
-10.5192
-11.104
-9.11848
-9.4349
-8.45693
-8.6183
-8.07112
-8.15863
-7.88317
-7.94262
-7.64771
-7.70254
-7.43344
-7.48333
-7.24154
-7.28636
-7.06982
-7.10988
-6.91682
-6.95242
-6.78145
-6.81289
-6.66258
-6.69026
-6.55855
-6.58341
-6.46635
-6.49277
-6.3761
-6.27678
-6.29752
-6.22826
-6.24093
-6.18705
-6.19669
-6.15344
-6.16117
-6.12603
-6.13231
-6.10365
-6.10876
-6.08542
-6.08956
-6.0707
-6.07402
-6.05909
-6.06163
-6.05047
-6.05225
-6.04577
-6.04711
-6.04036
-6.0415
-6.03628
-6.03704
-6.03417
-6.03437
-6.03474
-6.03415
-6.03921
-6.03738
-6.04976
-6.04583
-6.07065
-6.0626
-6.11116
-6.09266
-6.19388
-6.1355
-6.3955
-6.91882
-6.76486
-7.65236
-7.41741
-9.21972
-9.06118
-8.99743
-8.98135
-8.9777
-17.0101
-9.75724
-11.335
-8.78843
-9.55323
-8.29579
-8.68677
-7.98205
-8.19372
-7.84042
-7.98514
-7.60434
-7.74089
-7.39364
-7.51769
-7.20571
-7.3171
-7.0377
-7.13725
-6.88815
-6.97663
-6.75603
-6.83415
-6.64021
-6.70892
-6.53901
-6.60036
-6.44948
-6.51243
-6.37325
-6.25824
-6.30653
-6.21735
-6.24832
-6.17884
-6.20269
-6.1469
-6.16606
-6.12072
-6.13629
-6.09932
-6.112
-6.0819
-6.09218
-6.06785
-6.07607
-6.05681
-6.06314
-6.04874
-6.05311
-6.04479
-6.04807
-6.03935
-6.0422
-6.03547
-6.03738
-6.03367
-6.03421
-6.03468
-6.03325
-6.03976
-6.03531
-6.05125
-6.04171
-6.07365
-6.05436
-6.11677
-6.07398
-6.20341
-6.0762
-6.35167
-6.99363
-6.62348
-7.76508
-7.15805
-9.50309
-9.09962
-9.00414
-8.98279
-8.9781
-18.2488
-8.64198
-11.731
-8.32588
-9.7524
-8.06866
-8.79901
-7.85629
-8.25138
-7.77769
-8.04863
-7.54023
-7.79854
-7.33493
-7.56944
-7.15289
-7.36343
-6.99037
-7.17853
-6.84593
-7.01316
-6.71862
-6.86626
-6.6073
-6.7371
-6.51018
-6.62576
-6.42402
-6.54014
-6.36941
-6.23313
-6.32102
-6.20161
-6.25971
-6.16687
-6.21185
-6.13734
-6.1735
-6.11296
-6.14236
-6.09299
-6.11694
-6.07674
-6.09616
-6.06367
-6.07921
-6.05349
-6.06546
-6.04623
-6.05446
-6.04332
-6.0495
-6.03787
-6.04328
-6.03429
-6.03794
-6.03298
-6.03404
-6.03468
-6.03202
-6.04074
-6.03241
-6.05374
-6.03593
-6.07869
-6.04285
-6.12657
-6.0484
-6.2232
-6.00079
-6.29318
-7.10893
-6.42163
-7.94776
-6.78063
-9.89643
-9.12578
-9.00792
-8.98359
-8.97835
)
;

boundaryField
{
    F1_1
    {
        type            calculated;
        value           nonuniform List<scalar> 
80
(
18.951
7.97348
11.9793
8.041
9.87599
7.90475
8.86801
7.71474
8.28888
7.55127
7.9033
7.48934
7.75851
7.28671
7.55887
7.11006
7.36539
6.95301
7.186
6.81347
7.0228
6.69048
6.87642
6.58299
6.74702
6.48919
6.63548
6.40566
6.55183
6.36448
6.21722
6.32749
6.19099
6.2647
6.15869
6.21586
6.13078
6.17677
6.10763
6.14503
6.08865
6.11912
6.0732
6.09792
6.06081
6.08058
6.05121
6.06644
6.04449
6.05494
6.0422
6.05004
6.03677
6.04366
6.03343
6.03806
6.03245
6.03377
6.03458
6.03115
6.04127
6.03059
6.05522
6.03244
6.08177
6.03603
6.13269
6.0335
6.23619
5.95851
6.2596
7.17867
6.30274
8.06034
6.55696
10.1252
9.13445
9.00894
8.98381
8.97842
)
;
    }
    F1_2
    {
        type            calculated;
        value           nonuniform List<scalar> 
80
(
-19.3861
-7.90792
-12.4939
-7.04631
-9.80613
-6.15532
-8.07691
-5.34199
-6.77144
-4.71092
-5.71163
-4.45916
-5.26933
-3.84055
-4.65839
-3.31747
-4.07133
-2.86892
-3.54022
-2.48197
-3.07096
-2.14741
-2.66103
-1.85739
-2.30567
-1.60385
-2.00297
-1.37562
-1.77892
-1.26268
-0.838914
-1.15708
-0.75184
-0.973845
-0.646696
-0.825975
-0.552914
-0.702991
-0.472148
-0.59916
-0.403181
-0.510959
-0.344604
-0.435834
-0.295343
-0.371743
-0.254996
-0.316928
-0.224597
-0.269737