/*--------------------------------*- C++ -*----------------------------------*\
| =========                 |                                                 |
| \\      /  F ield         | OpenFOAM: The Open Source CFD Toolbox           |
|  \\    /   O peration     | Version:  5.x                                   |
|   \\  /    A nd           | Web:      www.OpenFOAM.org                      |
|    \\/     M anipulation  |                                                 |
\*---------------------------------------------------------------------------*/
FoamFile
{
    version     2.0;
    format      ascii;
    class       volScalarField;
    location    "14.9001";
    object      gradTx;
}
// * * * * * * * * * * * * * * * * * * * * * * * * * * * * * * * * * * * * * //

dimensions      [0 -1 0 1 0 0 0];

internalField   nonuniform List<scalar> 
6300
(
-31.9419
-32.0126
-32.1535
-32.3629
-32.6388
-32.9779
-33.376
-33.8276
-34.326
-34.8632
-35.4298
-36.0154
-36.6088
-37.199
-37.7751
-31.8711
-31.9426
-32.0848
-32.2965
-32.5756
-32.9189
-33.3224
-33.7808
-34.2873
-34.8338
-35.4108
-36.0075
-36.6122
-37.2129
-37.7984
-31.729
-31.8017
-31.9467
-32.1628
-32.448
-32.7997
-33.214
-33.6858
-34.2086
-34.774
-35.3722
-35.9916
-36.6194
-37.2422
-37.8471
-31.514
-31.5887
-31.7376
-31.9599
-32.2541
-32.6179
-33.0481
-33.5399
-34.0871
-34.6814
-35.3123
-35.9672
-36.6316
-37.2895
-37.9252
-31.2244
-31.3014
-31.4551
-31.6851
-31.9905
-32.3698
-32.8205
-33.3387
-33.9186
-34.5522
-35.2285
-35.9335
-36.6502
-37.359
-38.0397
-30.8579
-30.9373
-31.0963
-31.3349
-31.6531
-32.0503
-32.5254
-33.0756
-33.6964
-34.3802
-35.1159
-35.8881
-36.6766
-37.4567
-38.2012
-30.4119
-30.4937
-30.6578
-30.9051
-31.2365
-31.6531
-32.1552
-32.7421
-33.4111
-34.1562
-34.9668
-35.8265
-36.7113
-37.5901
-38.425
-29.884
-29.9678
-30.1363
-30.3912
-30.7348
-31.1702
-31.7001
-32.3265
-33.0498
-33.8667
-34.7688
-35.7395
-36.7522
-37.7673
-38.7324
-29.2724
-29.3573
-29.5283
-29.7884
-30.1415
-30.5928
-31.1484
-31.8141
-32.5947
-33.4921
-34.502
-35.6107
-36.7906
-37.9945
-39.1514
-28.576
-28.6605
-28.8313
-29.0925
-29.4499
-29.9113
-30.4865
-31.1867
-32.023
-33.0048
-34.1363
-35.4108
-36.8049
-38.2687
-39.7141
-27.7951
-27.8773
-28.0441
-28.3004
-28.6541
-29.1159
-29.6998
-30.4231
-31.3057
-32.368
-33.6274
-35.0914
-36.7492
-38.5613
-40.4415
-26.9319
-27.0094
-27.1672
-27.4111
-27.7503
-28.1984
-28.7736
-29.5002
-30.4085
-31.534
-32.9137
-34.5779
-36.5388
-38.7855
-41.2908
-25.9913
-26.0613
-26.2042
-26.4263
-26.7377
-27.1536
-27.696
-28.3956
-29.2941
-30.4458
-31.9153
-33.7667
-36.0413
-38.7488
-41.9895
-24.9807
-25.0402
-25.1621
-25.3522
-25.6205
-25.9824
-26.4612
-27.092
-27.9263
-29.0394
-30.5341
-32.53
-35.1057
-38.1692
-41.5833
-23.9105
-23.9568
-24.0517
-24.1998
-24.4096
-24.6942
-25.0746
-25.5847
-26.2795
-27.2509
-28.65
-30.7078
-33.6668
-37.2033
-37.6489
-38.284
-38.7236
-39.1392
-39.5286
-39.891
-40.2264
-40.5351
-40.8177
-41.0743
-41.3048
-41.5086
-41.6847
-41.8321
-41.9501
-42.0385
-42.0982
-42.1311
-42.1401
-42.1291
-42.1023
-42.064
-42.018
-41.9672
-41.9133
-41.8569
-41.7974
-41.7334
-41.6628
-41.5838
-41.4948
-41.3954
-41.2858
-41.1675
-41.0427
-40.9142
-40.7851
-40.6578
-40.5342
-40.4151
-40.3005
-40.189
-40.0787
-39.9674
-39.8527
-39.733
-39.6073
-39.4756
-39.3392
-39.1999
-39.0601
-38.9225
-38.7894
-38.6622
-38.5417
-38.4275
-38.3184
-38.2124
-38.1072
-38.0006
-37.8909
-37.7772
-37.6594
-37.5385
-37.4163
-37.2952
-37.1776
-37.0656
-36.9607
-36.8638
-36.7744
-36.6917
-36.614
-36.5394
-36.4664
-36.3938
-36.3216
-36.2508
-36.1836
-36.1231
-36.0732
-36.0379
-36.0208
-36.0249
-36.052
-36.1022
-36.1738
-36.2634
-36.3661
-36.4758
-36.5855
-38.3142
-38.7584
-39.1767
-39.5675
-39.93
-40.2648
-40.5729
-40.855
-41.1118
-41.3432
-41.5484
-41.726
-41.8745
-41.9926
-42.0799
-42.1368
-42.1654
-42.169
-42.1518
-42.1189
-42.0752
-42.0249
-41.9716
-41.9169
-41.8614
-41.804
-41.7427
-41.6749
-41.598
-41.51
-41.41
-41.2984
-41.1767
-41.0479
-40.9153
-40.7824
-40.6524
-40.5276
-40.4089
-40.2959
-40.1872
-40.0803
-39.9721
-39.86
-39.7416
-39.6158
-39.4826
-39.3433
-39.2005
-39.057
-38.9162
-38.7807
-38.6526
-38.5325
-38.4202
-38.3139
-38.2112
-38.1092
-38.0051
-37.8968
-37.783
-37.6638
-37.5403
-37.4148
-37.2902
-37.1695
-37.0553
-36.9494
-36.8527
-36.7649
-36.6845
-36.6095
-36.5372
-36.4657
-36.3932
-36.3195
-36.2456
-36.1739
-36.108
-36.0523
-36.0115
-35.9902
-35.9919
-36.0188
-36.0713
-36.1478
-36.2446
-36.3562
-36.4757
-36.5954
-38.3771
-38.8304
-39.2541
-39.6469
-40.0089
-40.3419
-40.6478
-40.9288
-41.186
-41.4195
-41.628
-41.8093
-41.9607
-42.0797
-42.1648
-42.2161
-42.2358
-42.2276
-42.1973
-42.1511
-42.0956
-42.0364
-41.9777
-41.9217
-41.8685
-41.8162
-41.7615
-41.7001
-41.6282
-41.5425
-41.4414
-41.3253
-41.1964
-41.0586
-40.9167
-40.7756
-40.6397
-40.5122
-40.3942
-40.2853
-40.1829
-40.0835
-39.9827
-39.8763
-39.7609
-39.6349
-39.4982
-39.3527
-39.2019
-39.0502
-38.9021
-38.7615
-38.6313
-38.5124
-38.4042
-38.3042
-38.209
-38.1142
-38.0158
-37.9105
-37.7967
-37.6743
-37.545
-37.4121
-37.2797
-37.152
-37.0329
-36.9249
-36.829
-36.7447
-36.6697
-36.6008
-36.5341
-36.4662
-36.3944
-36.3178
-36.2373
-36.1559
-36.078
-36.0097
-35.9572
-35.9265
-35.9226
-35.9488
-36.0059
-36.0925
-36.2044
-36.3348
-36.4754
-36.6164
-38.4778
-38.9449
-39.3761
-39.7705
-40.1298
-40.4578
-40.7588
-41.0368
-41.2943
-41.5317
-41.7468
-41.9357
-42.0935
-42.2155
-42.2984
-42.3412
-42.3461
-42.3183
-42.2655
-42.1968
-42.1214
-42.0472
-41.98
-41.9226
-41.8744
-41.832
-41.7897
-41.7407
-41.6782
-41.5971
-41.4945
-41.3706
-41.229
-41.0752
-40.9168
-40.7612
-40.6151
-40.4829
-40.3666
-40.2651
-40.1744
-40.0888
-40.0013
-39.9054
-39.7957
-39.6693
-39.5264
-39.3697
-39.2048
-39.0382
-38.8771
-38.7275
-38.5936
-38.4768
-38.3762
-38.2878
-38.2061
-38.1244
-38.0362
-37.9366
-37.8228
-37.6946
-37.5549
-37.4087
-37.2623
-37.1223
-36.9945
-36.8828
-36.7887
-36.711
-36.6462
-36.5889
-36.5329
-36.4723
-36.4026
-36.3217
-36.2304
-36.1325
-36.0345
-35.9444
-35.8715
-35.8242
-35.8101
-35.834
-35.8981
-36.0009
-36.1373
-36.2989
-36.4744
-36.6508
-38.6249
-39.1111
-39.551
-39.9445
-40.296
-40.6126
-40.9029
-41.1744
-41.4318
-41.6759
-41.9032
-42.1068
-42.278
-42.4078
-42.4896
-42.5208
-42.5034
-42.445
-42.3567
-42.2522
-42.1452
-42.0478
-41.9682
-41.9101
-41.8719
-41.8476
-41.8276
-41.8005
-41.7551
-41.6826
-41.578
-41.4417
-41.2788
-41.0987
-40.9128
-40.7332
-40.5702
-40.4309
-40.3178
-40.2292
-40.1587
-40.0967
-40.0322
-39.9543
-39.8544
-39.7277
-39.5742
-39.3987
-39.2099
-39.0184
-38.8356
-38.6709
-38.531
-38.4182
-38.3305
-38.2619
-38.2032
-38.1437
-38.0732
-37.9833
-37.8695
-37.7316
-37.5743
-37.4055
-37.2356
-37.075
-36.9329
-36.8154
-36.7246
-36.6588
-36.6118
-36.575
-36.5382
-36.4914
-36.4269
-36.3406
-36.233
-36.1095
-35.9793
-35.8546
-35.7486
-35.6744
-35.6427
-35.6615
-35.7345
-35.8608
-36.0341
-36.2431
-36.4722
-36.703
-38.8323
-39.3441
-39.7927
-40.1793
-40.5122
-40.8052
-41.074
-41.3322
-41.5885
-41.8443
-42.0937
-42.3248
-42.5219
-42.6692
-42.7539
-42.7701
-42.7201
-42.6146
-42.4711
-42.311
-42.1555
-42.0229
-41.9256
-41.8688
-41.8494
-41.8571
-41.8758
-41.8867
-41.8711
-41.8141
-41.7074
-41.551
-41.3536
-41.1303
-40.8998
-40.6814
-40.4914
-40.3409
-40.2339
-40.1672
-40.1305
-40.1083
-40.0824
-40.035
-39.9517
-39.8246
-39.6537
-39.447
-39.2186
-38.9862
-38.7679
-38.5788
-38.4294
-38.3234
-38.2574
-38.2216
-38.2013
-38.1791
-38.1381
-38.0644
-37.9507
-37.7967
-37.61
-37.404
-37.1953
-37.0012
-36.8359
-36.7093
-36.6249
-36.5792
-36.5628
-36.5613
-36.5579
-36.5361
-36.4827
-36.3901
-36.2587
-36.096
-35.9162
-35.7377
-35.5803
-35.4631
-35.4026
-35.4109
-35.4944
-35.653
-35.8794
-36.1583
-36.4674
-36.7798
-39.1216
-39.6679
-40.1238
-40.4913
-40.786
-41.0329
-41.2603
-41.4929
-41.7458
-42.0218
-42.3106
-42.5916
-42.8377
-43.0205
-43.117
-43.1149
-43.0165
-42.8387
-42.6097
-42.3631
-42.1327
-41.9469
-41.8248
-41.7736
-41.7879
-41.8505
-41.9353
-42.011
-42.0468
-42.0172
-41.9081
-41.7195
-41.4658
-41.1721
-40.8694
-40.5886
-40.3557
-40.1881
-40.0921
-40.0621
-40.0815
-40.1252
-40.1636
-40.1672
-40.112
-39.9846
-39.7849
-39.5265
-39.2331
-38.9339
-38.6579
-38.4296
-38.2653
-38.1708
-38.1408
-38.1591
-38.2022
-38.2417
-38.2497
-38.2034
-38.0898
-37.909
-37.6736
-37.4062
-37.1343
-36.8856
-36.6832
-36.5427
-36.4693
-36.4576
-36.4923
-36.5503
-36.6041
-36.6264
-36.5946
-36.4958
-36.3292
-36.1071
-35.8514
-35.5904
-35.3539
-35.1702
-35.0636
-35.0519
-35.1459
-35.3478
-35.6492
-36.03
-36.458
-36.8923
-39.5257
-40.1218
-40.582
-40.9084
-41.1286
-41.2885
-41.4392
-41.6243
-41.8701
-42.1808
-42.5389
-42.9089
-43.2445
-43.4962
-43.6221
-43.5984
-43.4273
-43.1368
-42.7734
-42.3919
-42.0458
-41.7792
-41.6218
-41.5841
-41.6569
-41.8121
-42.0077
-42.193
-42.3164
-42.3349
-42.2233
-41.9818
-41.6354
-41.227
-40.8076
-40.4268
-40.1259
-39.9321
-39.8552
-39.8859
-39.9975
-40.1498
-40.2949
-40.384
-40.3765
-40.2486
-40.0006
-39.6563
-39.2561
-38.8482
-38.4792
-38.1881
-38.0006
-37.9257
-37.9543
-38.0611
-38.2081
-38.3497
-38.4397
-38.4392
-38.3258
-38.0997
-37.7832
-37.4148
-37.04
-36.7033
-36.4416
-36.2792
-36.2247
-36.2692
-36.3883
-36.5453
-36.6957
-36.7945
-36.8032
-36.6988
-36.4799
-36.1664
-35.7943
-35.4077
-35.0514
-34.7666
-34.5877
-34.5407
-34.6422
-34.8991
-35.3046
-35.8336
-36.4395
-37.0583
-40.0955
-40.7716
-41.2331
-41.4783
-41.5581
-41.5574
-41.5686
-41.6682
-41.9009
-42.2717
-42.7498
-43.2759
-43.772
-44.1529
-44.3425
-44.2943
-44.0101
-43.5397
-42.9631
-42.3699
-41.8442
-41.4545
-41.2462
-41.2357
-41.4071
-41.7157
-42.0949
-42.4639
-42.7373
-42.8398
-42.7256
-42.3951
-41.8942
-41.2979
-40.6902
-40.15
-39.7417
-39.5078
-39.4635
-39.5933
-39.8547
-40.1847
-40.5067
-40.7401
-40.8141
-40.6856
-40.3551
-39.8665
-39.2904
-38.7062
-38.1884
-37.7976
-37.5739
-37.5313
-37.6552
-37.9053
-38.2218
-38.5321
-38.7598
-38.8375
-38.7243
-38.4205
-37.9677
-37.4326
-36.8909
-36.4131
-36.0569
-35.8606
-35.8374
-35.9734
-36.23
-36.5495
-36.8618
-37.0923
-37.1746
-37.067
-36.7666
-36.3101
-35.7584
-35.1813
-34.6458
-34.2105
-33.9221
-33.8154
-33.9148
-34.2363
-34.7823
-35.5264
-36.4026
-37.3071
-40.9077
-41.7304
-42.1955
-42.2863
-42.1035
-41.8092
-41.5707
-41.5207
-41.7327
-42.2083
-42.8917
-43.686
-44.4654
-45.0854
-45.4053
-45.33
-44.8609
-44.0956
-43.1767
-42.2508
-41.4468
-40.8684
-40.5858
-40.6255
-40.9596
-41.5175
-42.1969
-42.8726
-43.4041
-43.6567
-43.5396
-43.0535
-42.2905
-41.3851
-40.4755
-39.6833
-39.1063
-38.8107
-38.821
-39.111
-39.6133
-40.2311
-40.8461
-41.3258
-41.5433
-41.4134
-40.9374
-40.2026
-39.3362
-38.4686
-37.7147
-37.1664
-36.8862
-36.8972
-37.1744
-37.654
-38.2444
-38.8335
-39.2958
-39.5107
-39.3971
-38.9562
-38.2703
-37.4602
-36.6496
-35.9477
-35.4421
-35.1924
-35.221
-35.504
-35.981
-36.5641
-37.1456
-37.6034
-37.8196
-37.7125
-37.2784
-36.5907
-35.7589
-34.8948
-34.0962
-33.4427
-32.9947
-32.7935
-32.8674
-33.2504
-33.9747
-35.0291
-36.3248
-37.6884
-42.0726
-43.2044
-43.6967
-43.4879
-42.8097
-41.9808
-41.3016
-40.9958
-41.1849
-41.8457
-42.8738
-44.1175
-45.3885
-46.4498
-47.0371
-46.9329
-46.1383
-44.8728
-43.4004
-41.9561
-40.7247
-39.8563
-39.4615
-39.5911
-40.1899
-41.1445
-42.3043
-43.4887
-44.4725
-45.0061
-44.8848
-44.1108
-42.892
-41.4783
-40.0917
-38.9069
-38.0658
-37.6729
-37.776
-38.3228
-39.2055
-40.2816
-41.3803
-42.289
-42.7728
-42.6396
-41.8924
-40.7284
-39.3836
-38.0675
-36.9448
-36.1492
-35.7792
-35.88
-36.4019
-37.2431
-38.2689
-39.3176
-40.1879
-40.6568
-40.5415
-39.8444
-38.7521
-37.4883
-36.2519
-35.1996
-34.4588
-34.1237
-34.238
-34.7553
-35.579
-36.5813
-37.6073
-38.4626
-38.9301
-38.8291
-38.1551
-37.079
-35.806
-34.5141
-33.3375
-32.3792
-31.7118
-31.3756
-31.3749
-31.7731
-32.6917
-34.1842
-36.1493
-38.2896
-43.7185
-45.6013
-46.2081
-45.364
-43.7316
-41.9371
-40.495
-39.7586
-39.9581
-40.954
-42.5455
-44.5098
-46.6137
-48.4968
-49.6648
-49.5299
-48.0937
-45.9477
-43.5838
-41.3549
-39.4798
-38.1621
-37.582
-37.8809
-38.9081
-40.4756
-42.3765
-44.3938
-46.1891
-47.2984
-47.1701
-45.8085
-43.7741
-41.5324
-39.4172
-37.6355
-36.3798
-35.8207
-36.0922
-37.0511
-38.519
-40.2997
-42.188
-43.864
-44.8907
-44.75
-43.4477
-41.5143
-39.3896
-37.3878
-35.704
-34.5191
-33.9944
-34.2563
-35.1697
-36.5662
-38.2605
-40.0587
-41.6581
-42.644
-42.5237
-41.3018
-39.4806
-37.4769
-35.5892
-34.0029
-32.8912
-32.408
-32.6749
-33.5651
-34.9199
-36.5645
-38.3147
-39.8802
-40.8593
-40.7708
-39.6106
-37.851
-35.8801
-33.9674
-32.2646
-30.8965
-29.9522
-29.4747
-29.3077
-29.5465
-30.5823
-32.6589
-35.7216
-39.2751
-45.8378
-49.8439
-50.8169
-48.3732
-44.8809
-41.3852
-38.6726
-37.1739
-37.5848
-39.2046
-41.6803
-44.7013
-48.1566
-51.5738
-54.1685
-54.001
-51.0712
-47.3365
-43.5726
-40.2441
-37.4324
-35.406
-34.4366
-35.1217
-36.8485
-39.3268
-42.2809
-45.6185
-48.8938
-51.3727
-51.2313
-48.4751
-44.9547
-41.4043
-38.2625
-35.6067
-33.6907
-32.7726
-33.4183
-35.0465
-37.382
-40.1631
-43.3013
-46.3741
-48.6898
-48.533
-45.9118
-42.5759
-39.2183
-36.2505
-33.7444
-31.9386
-31.0769
-31.6944
-33.242
-35.4603
-38.1024
-41.086
-44.012
-46.2241
-46.092
-43.6222
-40.472
-37.2985
-34.4924
-32.123
-30.4184
-29.612
-30.2143
-31.706
-33.8434
-36.3955
-39.288
-42.1424
-44.3259
-44.2556
-41.9296
-38.927
-35.8706
-33.1185
-30.7099
-28.8034
-27.5204
-27.1265
-26.6562
-26.1723
-26.9742
-29.7136
-34.5871
-40.9764
-47.3649
-58.4726
-60.3931
-52.9119
-46.0203
-39.6979
-35.1004
-31.8392
-33.4707
-36.2224
-40.0302
-44.2675
-49.7544
-55.8351
-62.65
-62.4498
-55.2078
-48.7674
-42.9344
-38.3894
-34.254
-31.1276
-28.9089
-30.8627
-33.7065
-37.4928
-41.633
-46.9328
-52.7454
-59.2204
-59.0576
-52.2422
-46.1785
-40.688
-36.408
-32.5125
-29.5646
-27.4728
-29.3297
-32.0231
-35.6036
-39.512
-44.5087
-49.9745
-56.0493
-55.8646
-49.405
-43.6689
-38.4857
-34.4484
-30.7765
-27.9984
-26.0292
-27.7933
-30.3484
-33.7441
-37.4526
-42.1963
-47.3938
-53.1797
-53.0268
-46.9224
-41.4971
-36.5908
-32.7668
-29.2858
-26.6524
-24.7872
-26.4731
-28.917
-32.1698
-35.7365
-40.3161
-45.3707
-51.0379
-50.9889
-45.2227
-40.0803
-35.4231
-31.7748
-28.4322
-25.8125
-23.8081
-24.8885
-24.0242
-20.9467
-20.576
-23.6951
-31.2698
-44.108
-40.9841
-80.2815
-83.6775
-56.7748
-46.3645
-35.5242
-29.6031
-19.4589
-27.7434
-31.7198
-37.7614
-42.0342
-50.4972
-59.0392
-81.2331
-81.0387
-58.19
-49.3238
-40.4414
-35.9449
-29.6226
-25.542
-17.373
-25.322
-29.2074
-35.1493
-39.3152
-47.5088
-55.6429
-76.6266
-76.4635
-54.927
-46.5769
-38.2284
-33.9998
-28.0537
-24.2058
-16.4867
-24.0365
-27.7224
-33.3531
-37.2939
-45.0405
-52.6977
-72.4227
-72.232
-51.8566
-43.9656
-36.1031
-32.1199
-26.5216
-22.8933
-15.6055
-22.7532
-26.2443
-31.5775
-35.3121
-42.653
-49.9286
-68.687
-68.5316
-49.2449
-41.7746
-34.3248
-30.5473
-25.2279
-21.78
-14.8491
-21.6404
-24.9634
-30.0439
-33.6191
-40.6601
-47.717
-65.9811
-65.9548
-47.6175
-40.5349
-33.5229
-29.9908
-25.1137
-21.9354
-15.6538
-25.4509
-24.5792
-11.8232
-9.15246
-11.2605
-20.373
-50.2143
-36.6974
-36.8008
-36.8756
-36.9162
-36.9211
-36.8919
-36.8335
-36.7526
-36.6574
-36.5565
-36.4582
-36.3698
-36.2978
-36.2471
-36.2209
-36.7173
-36.8295
-36.9097
-36.9521
-36.9551
-36.9212
-36.8559
-36.7669
-36.6631
-36.554
-36.4481
-36.3535
-36.2766
-36.2225
-36.1946
-36.7596
-36.8901
-36.9815
-37.0272
-37.0261
-36.9819
-36.9019
-36.7958
-36.6743
-36.5481
-36.4269
-36.3194
-36.2326
-36.1718
-36.1405
-36.8292
-36.9898
-37.099
-37.1492
-37.1403
-37.0784
-36.9741
-36.8403
-36.6903
-36.5371
-36.392
-36.2646
-36.1626
-36.0916
-36.0551
-36.9352
-37.1409
-37.2756
-37.3304
-37.3074
-37.2173
-37.0759
-36.9008
-36.7095
-36.5179
-36.3394
-36.1845
-36.0617
-35.9767
-35.9332
-37.0919
-37.363
-37.532
-37.5892
-37.5416
-37.4076
-37.2112
-36.9774
-36.7291
-36.4858
-36.263
-36.0725
-35.9229
-35.8202
-35.768
-37.3227
-37.6873
-37.9002
-37.9529
-37.8623
-37.6603
-37.384
-37.0685
-36.7437
-36.4331
-36.1543
-35.9195
-35.7373
-35.6132
-35.5504
-37.6655
-38.1632
-38.4286
-38.4598
-38.2943
-37.9874
-37.596
-37.1689
-36.7441
-36.3488
-36.0014
-35.7139
-35.4937
-35.345
-35.2701
-38.1842
-38.8714
-39.1911
-39.1635
-38.8676
-38.399
-37.8436
-37.267
-36.715
-36.2165
-35.7887
-35.4411
-35.1785
-35.0028
-34.9149
-38.9909
-39.9469
-40.301
-40.1354
-39.6136
-38.8976
-38.1122
-37.3407
-36.6323
-36.0134
-35.4958
-35.0834
-34.7763
-34.573
-34.4718
-40.2943
-41.6245
-41.9305
-41.4636
-40.5539
-39.4654
-38.3671
-37.3512
-36.4603
-35.709
-35.0976
-34.6204
-34.2704
-34.041
-33.9275
-42.5157
-44.3264
-44.3327
-43.2348
-41.673
-40.0431
-38.5395
-37.2366
-36.1487
-35.2647
-34.5651
-34.0304
-33.6438
-33.393
-33.2697
-46.5942
-48.8325
-47.8392
-45.4697
-42.8603
-40.4945
-38.5112
-36.9069
-35.6333
-34.636
-33.8678
-33.292
-32.8816
-32.6177
-32.4885
-54.9096
-56.5703
-52.7218
-47.9445
-43.8039
-40.5635
-38.1038
-36.2467
-34.8417
-33.778
-32.9781
-32.3884
-31.9728
-31.7075
-31.5783
-74.4913
-69.8173
-58.5334
-49.7825
-43.8475
-39.8516
-37.0938
-35.1343
-33.7086
-32.6564
-31.8782
-31.3107
-30.9136
-30.6613
-30.5387
-22.887
-22.9192
-22.9849
-23.0871
-23.231
-23.4254
-23.6847
-24.0335
-24.5164
-25.2187
-26.3164
-28.2008
-31.783
-39.0511
-52.0814
-21.9343
-21.9526
-21.9897
-22.0464
-22.1245
-22.2269
-22.3589
-22.5303
-22.7612
-23.0962
-23.6453
-24.726
-27.4443
-36.5835
-78.0004
-20.9688
-20.973
-20.9808
-20.991
-21.0012
-21.0079
-21.0056
-20.9857
-20.9339
-20.825
-20.6032
-20.0959
-18.5362
-11.6877
25.3302
-20.0003
-19.9909
-19.9704
-19.9354
-19.8802
-19.7951
-19.6647
-19.4632
-19.1465
-18.6328
-17.7608
-16.1897
-13.2009
-7.73089
-3.90398
-19.0385
-19.0164
-18.9699
-18.894
-18.7799
-18.6137
-18.3729
-18.0208
-17.4958
-16.6899
-15.407
-13.2771
-9.57181
-2.62172
13.4528
-18.0919
-18.0588
-17.9899
-17.879
-17.7158
-17.4842
-17.1585
-16.6985
-16.0399
-15.0779
-13.6419
-11.4635
-8.19722
-3.84471
-1.97479
-17.1684
-17.1262
-17.039
-16.9002
-16.6993
-16.42
-16.0373
-15.5141
-14.7946
-13.7951
-12.3919
-10.4068
-7.57767
-3.34272
4.91422
-16.2741
-16.2249
-16.1238
-15.9645
-15.7374
-15.4275
-15.0137
-14.4661
-13.7438
-12.7925
-11.5457
-9.93652
-7.93462
-5.63361
-3.48046
-15.4139
-15.3598
-15.2489
-15.0761
-14.8328
-14.5071
-14.0829
-13.5394
-12.8521
-11.995
-10.951
-9.73902
-8.49936
-7.82179
-10.38
-14.5913
-14.534
-14.4171
-14.2365
-13.9855
-13.6552
-13.2349
-12.7127
-12.0781
-11.3273
-10.473
-9.56072
-8.67379
-7.76293
-5.05155
-13.8085
-13.7495
-13.6297
-13.4458
-13.1932
-12.8658
-12.4576
-11.9639
-11.3849
-10.7315
-10.0352
-9.36478
-8.86482
-8.95445
-11.8448
-13.0668
-13.0072
-12.8867
-12.703
-12.4527
-12.1325
-11.7396
-11.2744
-10.7434
-10.1656
-9.57951
-9.05044
-8.64642
-8.20101
-5.57305
-12.3664
-12.3071
-12.1876
-12.0063
-11.7609
-11.4497
-11.0719
-10.6305
-10.1345
-9.60523
-9.08421
-8.64924
-8.45677
-8.96324
-12.5486
-11.7072
-11.6489
-11.5316
-11.354
-11.1149
-10.813
-10.4485
-10.0244
-9.54877
-9.03916
-8.52916
-8.07962
-7.78172
-7.58734
-5.46669
-11.0886
-11.0316
-10.9173
-10.7446
-10.5124
-10.2198
-9.86649
-9.45403
-8.98664
-8.47334
-7.9321
-7.4047
-7.03479
-7.54912
-13.4594
-10.5094
-10.4543
-10.3436
-10.1765
-9.95189
-9.66863
-9.3256
-8.92184
-8.45638
-7.92694
-7.32544
-6.62041
-5.6738
-3.76368
3.49752
-9.96856
-9.91551
-9.80901
-9.64827
-9.43213
-9.15904
-8.82687
-8.43249
-7.97054
-7.43059
-6.79068
-6.00388
-4.98191
-3.69427
-3.55706
-9.46456
-9.41387
-9.31212
-9.15855
-8.95194
-8.69047
-8.37135
-7.99008
-7.53888
-7.00364
-6.35792
-5.55066
-4.47451
-2.82594
0.876712
-8.99577
-8.9477
-8.85123
-8.70567
-8.50985
-8.26193
-7.959
-7.59624
-7.16559
-6.65342
-6.03735
-5.28418
-4.36464
-3.38404
-3.51119
-8.56037
-8.51515
-8.42444
-8.28769
-8.10394
-7.87162
-7.58819
-7.24954
-6.8489
-6.37537
-5.81198
-5.13325
-4.29716
-3.17286
-0.899812
-8.15638
-8.11419
-8.02963
-7.90237
-7.73176
-7.51679
-7.25575
-6.9459
-6.58283
-6.15973
-5.66672
-5.0916
-4.42985
-3.75941
-3.79737
-7.78171
-7.74265
-7.6645
-7.54714
-7.39041
-7.19396
-6.95722
-6.67922
-6.35845
-5.99264
-5.57849
-5.11012
-4.56857
-3.85399
-2.35171
-7.43416
-7.39827
-7.32658
-7.21928
-7.07664
-6.89912
-6.68734
-6.44226
-6.16536
-5.85913
-5.52791
-5.17947
-4.82745
-4.49557
-4.23224
-7.11155
-7.07877
-7.01342
-6.91595
-6.78711
-6.62807
-6.4406
-6.22739
-5.99264
-5.74297
-5.48931
-5.25132
-5.07235
-5.08952
-5.92984
-6.8117
-6.78188
-6.72256
-6.63441
-6.51856
-6.37677
-6.21173
-6.0275
-5.83029
-5.62958
-5.43983
-5.28219
-5.18104
-5.11184
-4.5711
-6.53257
-6.50549
-6.45173
-6.37212
-6.26803
-6.14163
-5.99619
-5.83663
-5.67037
-5.50859
-5.36805
-5.27383
-5.26755
-5.46159
-6.4766
-6.27224
-6.24764
-6.19887
-6.12682
-6.033
-5.91972
-5.79046
-5.65041
-5.50734
-5.37287
-5.2641
-5.20441
-5.21497
-5.24122
-4.62168
-6.02901
-6.00659
-5.96217
-5.89665
-5.81149
-5.70891
-5.59223
-5.4663
-5.33835
-5.21931
-5.12609
-5.08621
-5.15148
-5.4693
-6.80167
-5.80135
-5.78082
-5.74014
-5.68013
-5.60207
-5.50791
-5.40043
-5.2836
-5.16319
-5.04782
-4.95103
-4.89501
-4.91262
-4.99281
-4.4608
-5.58795
-5.56904
-5.53155
-5.47613
-5.40385
-5.31617
-5.21512
-5.10338
-4.98452
-4.86344
-4.74766
-4.65267
-4.63032
-4.94145
-7.19646
-5.38769
-5.37018
-5.33541
-5.28387
-5.21631
-5.13372
-5.03724
-4.92812
-4.80741
-4.6754
-4.52985
-4.35989
-4.11644
-3.54017
-1.04173
-5.1996
-5.18331
-5.15091
-5.10273
-5.03923
-4.96091
-4.86815
-4.76091
-4.63816
-4.49675
-4.32901
-4.11816
-3.83368
-3.47373
-3.60819
-5.02283
-5.00764
-4.97737
-4.93224
-4.87245
-4.79815
-4.70912
-4.60447
-4.48188
-4.33639
-4.15811
-3.92758
-3.60333
-3.06392
-1.69807
-4.85661
-4.84244
-4.81417
-4.77192
-4.71576
-4.64561
-4.56095
-4.46049
-4.3415
-4.19881
-4.0235
-3.80208
-3.52242
-3.22801
-3.40928
-4.70024
-4.68703
-4.66068
-4.62126
-4.5688
-4.50314
-4.42376
-4.32939
-4.21758
-4.08388
-3.92093
-3.71703
-3.45174
-3.06176
-2.1531
-4.55304
-4.54077
-4.51628
-4.47967
-4.431
-4.37021
-4.29697
-4.21042
-4.10886
-3.98927
-3.8468
-3.67462
-3.46767
-3.2557
-3.35904
-4.41437
-4.40299
-4.3803
-4.34646
-4.30163
-4.24594
-4.17943
-4.10188
-4.01267
-3.91057
-3.7933
-3.65637
-3.48708
-3.23065
-2.58114
-4.2836
-4.27306
-4.25208
-4.22089
-4.1798
-4.1292
-4.06956
-4.00143
-3.92544
-3.8424
-3.75348
-3.66059
-3.56701
-3.47855
-3.40769
-4.16017
-4.15038
-4.13096
-4.1022
-4.06457
-4.01873
-3.9656
-3.90645
-3.84312
-3.77832
-3.71641
-3.66529
-3.64339
-3.71423
-4.18496
-4.04353
-4.0344
-4.01633
-3.98968
-3.95505
-3.91333
-3.86582
-3.81439
-3.76181
-3.71223
-3.67187
-3.64969
-3.65537
-3.6722
-3.43639
-3.93324
-3.92464
-3.90766
-3.8827
-3.85046
-3.81197
-3.76877
-3.72313
-3.67843
-3.63975
-3.61469
-3.61477
-3.65961
-3.80561
-4.37667
-3.82892
-3.82072
-3.80453
-3.78079
-3.75021
-3.71388
-3.67341
-3.63122
-3.59088
-3.55781
-3.54007
-3.54877
-3.59362
-3.64382
-3.34441
-3.73029
-3.72235
-3.70665
-3.68363
-3.65395
-3.61866
-3.57927
-3.53802
-3.49828
-3.46523
-3.44709
-3.45767
-3.5239
-3.7248
-4.47323
-3.63719
-3.62936
-3.61387
-3.59109
-3.56161
-3.5263
-3.48642
-3.44378
-3.40105
-3.3623
-3.33417
-3.32793
-3.36068
-3.42554
-3.15265
-3.54954
-3.5417
-3.52616
-3.50321
-3.47331
-3.43712
-3.3955
-3.34962
-3.30105
-3.252
-3.20605
-3.17113
-3.17515
-3.36082
-4.61159
-3.46734
-3.45939
-3.44359
-3.42016
-3.3894
-3.35171
-3.30754
-3.25733
-3.20139
-3.13955
-3.07027
-2.98729
-2.86348
-2.55644
-1.19242
-3.39066
-3.38253
-3.36633
-3.3422
-3.3103
-3.2708
-3.22377
-3.16902
-3.10583
-3.03227
-2.94402
-2.83181
-2.67907
-2.48604
-2.57262
-3.31964
-3.31127
-3.29458
-3.26963
-3.23649
-3.19513
-3.14537
-3.08659
-3.01746
-2.93521
-2.83441
-2.70447
-2.52265
-2.22147
-1.45886
-3.25443
-3.24581
-3.22857
-3.20277
-3.16838
-3.12531
-3.07322
-3.01136
-2.93821
-2.85102
-2.74505
-2.61317
-2.44911
-2.27732
-2.3695
-3.19522
-3.18632
-3.16852
-3.14186
-3.10631
-3.06176
-3.00787
-2.94396
-2.86873
-2.77988
-2.67368
-2.54421
-2.38095
-2.14985
-1.63473
-3.1422
-3.13301
-3.11464
-3.08713
-3.0505
-3.00468
-2.94948
-2.88444
-2.8087
-2.7208
-2.61848
-2.49872
-2.3599
-2.2196
-2.25157
-3.09557
-3.08607
-3.06711
-3.03875
-3.00107
-2.95413
-2.89793
-2.83235
-2.75711
-2.67173
-2.57539
-2.46648
-2.33989
-2.1697
-1.80058
-3.05553
-3.0457
-3.0261
-2.99684
-2.95808
-2.91002
-2.85289
-2.78696
-2.71258
-2.63029
-2.54102
-2.44654
-2.35015
-2.25794
-2.18321
-3.02233
-3.01213
-2.99181
-2.96153
-2.92155
-2.87221
-2.81397
-2.74745
-2.67355
-2.59369
-2.51027
-2.42792
-2.35751
-2.33403
-2.5139
-2.99621
-2.98558
-2.96443
-2.93297
-2.89153
-2.84059
-2.78079
-2.71306
-2.63867
-2.55958
-2.47879
-2.401
-2.3323
-2.26889
-2.09783
-2.97748
-2.96635
-2.94422
-2.91133
-2.86811
-2.81511
-2.75314
-2.68329
-2.60706
-2.52664
-2.44522
-2.36778
-2.30341
-2.27851
-2.43456
-2.96649
-2.95477
-2.93147
-2.89689
-2.85147
-2.79587
-2.73097
-2.65794
-2.57837
-2.4944
-2.40889
-2.3255
-2.24712
-2.16245
-1.94509
-2.96363
-2.95123
-2.92657
-2.88997
-2.84192
-2.7831
-2.71444
-2.63714
-2.55275
-2.46323
-2.37109
-2.27974
-2.19519
-2.13854
-2.23916
-2.9694
-2.9562
-2.92996
-2.891
-2.83984
-2.77716
-2.70392
-2.62127
-2.53069
-2.43387
-2.33276
-2.22925
-2.1239
-2.00539
-1.7675
-2.98433
-2.97023
-2.94218
-2.90052
-2.84575
-2.77857
-2.69992
-2.61093
-2.51296
-2.40751
-2.29608
-2.18005
-2.06175
-1.95514
-1.96619
-3.00906
-2.99395
-2.96387
-2.91915
-2.86028
-2.78796
-2.7031
-2.60681
-2.50042
-2.3853
-2.2626
-2.13243
-1.99148
-1.82317
-1.54236
-3.0443
-3.02805
-2.99572
-2.9476
-2.88416
-2.80607
-2.71422
-2.60973
-2.49395
-2.36836
-2.23432
-2.0923
-1.94022
-1.76931
-1.55365
-3.09081
-3.07334
-3.03854
-2.98669
-2.91821
-2.83373
-2.73411
-2.62048
-2.49428
-2.35731
-2.21158
-2.05915
-1.90205
-1.74653
-1.6418
-3.14945
-3.13067
-3.09321
-3.03732
-2.96337
-2.87192
-2.76374
-2.63996
-2.50211
-2.35233
-2.1935
-2.02924
-1.86278
-1.68848
-1.43054
-3.22115
-3.20097
-3.16069
-3.1005
-3.0207
-2.92171
-2.80422
-2.66921
-2.51822
-2.35363
-2.17919
-2.00086
-1.82895
-1.6885
-1.69462
-3.30685
-3.28522
-3.242
-3.17731
-3.09134
-2.98437
-2.85686
-2.70956
-2.54378
-2.36179
-2.16758
-1.96802
-1.77328
-1.58674
-1.30843
-3.40759
-3.38446
-3.33822
-3.2689
-3.17656
-3.06128
-2.92323
-2.76275
-2.5806
-2.37842
-2.15969
-1.93184
-1.71193
-1.54869
-1.63316
-3.52439
-3.49976
-3.45047
-3.37648
-3.27772
-3.15402
-3.00519
-2.831
-2.63133
-2.40654
-2.15815
-1.89014
-1.61122
-1.33861
-1.11231
-3.6583
-3.63217
-3.57987
-3.50128
-3.39618
-3.26421
-3.10476
-2.91694
-2.69952
-2.45106
-2.17021
-1.85604
-1.50613
-1.09636
-0.434282
-3.81036
-3.78277
-3.72753
-3.64448
-3.53332
-3.39349
-3.22405
-3.02343
-2.78926
-2.51808
-2.20543
-1.84675
-1.4426
-1.02934
-0.894546
-3.98158
-3.95257
-3.8945
-3.8072
-3.69036
-3.54334
-3.36497
-3.15323
-2.90469
-2.6139
-2.2726
-1.86904
-1.3854
-0.768921
0.336904
-4.17295
-4.14257
-4.08176
-3.99045
-3.86836
-3.71495
-3.52908
-3.30858
-3.04948
-2.74481
-2.38302
-1.94694
-1.42046
-0.848323
-0.758307
-4.38542
-4.35368
-4.29022
-4.19506
-4.06812
-3.90911
-3.71725
-3.49075
-3.2259
-2.91537
-2.54502
-2.08762
-1.48724
-0.592912
1.30363
-4.61993
-4.58683
-4.5207
-4.42174
-4.29014
-4.12608
-3.92946
-3.69954
-3.43405
-3.12749
-2.76748
-2.32758
-1.75814
-1.03348
-0.837211
-4.87744
-4.8429
-4.77399
-4.67108
-4.53472
-4.36566
-4.16481
-3.93304
-3.67073
-3.37671
-3.04543
-2.65751
-2.13685
-1.1071
2.6781
-5.15893
-5.12284
-5.0509
-4.94365
-4.802
-4.62732
-4.42164
-4.18775
-3.92943
-3.65181
-3.36272
-3.07962
-2.86909
-3.09422
-6.06437
-5.46549
-5.42767
-5.35233
-5.24012
-5.09221
-4.91051
-4.69805
-4.45943
-4.20154
-3.93486
-3.67585
-3.45134
-3.29878
-3.17508
-1.98302
-5.79831
-5.75857
-5.67937
-5.56138
-5.40588
-5.21507
-4.99264
-4.74448
-4.47975
-4.2126
-3.96501
-3.7731
-3.70843
-3.99787
-5.90134
-6.15873
-6.11686
-6.03334
-5.9087
-5.74407
-5.54159
-5.3051
-5.04103
-4.75965
-4.47676
-4.21551
-4.0065
-3.87217
-3.69979
-2.314
-6.54822
-6.50409
-6.41588
-6.2838
-6.10853
-5.89173
-5.63673
-5.34961
-5.0406
-4.72589
-4.42974
-4.18803
-4.06234
-4.24434
-5.88431
-6.96835
-6.92194
-6.82888
-6.68888
-6.50184
-6.2684
-5.99065
-5.67338
-5.32552
-4.96212
-4.60617
-4.28898
-4.03885
-3.77642
-2.47345
-7.42073
-7.37217
-7.27448
-7.12663
-6.92739
-6.67582
-6.37203
-6.01838
-5.62124
-5.19318
-4.75568
-4.34337
-4.02388
-4.03111
-5.62237
-7.90682
-7.85652
-7.75491
-7.60006
-7.38928
-7.11952
-6.78804
-6.3936
-5.93842
-5.43079
-4.88769
-4.3333
-3.78203
-3.18576
-2.4117
-8.42785
-8.37651
-8.27232
-8.11233
-7.89213
-7.60608
-7.24776
-6.81101
-6.29202
-5.69304
-5.02754
-4.32107
-3.57144
-2.46388
1.33653
-8.98454
-8.93319
-8.82849
-8.66642
-8.44071
-8.14283
-7.76194
-7.28553
-6.70117
-6.00149
-5.19584
-4.33882
-3.6094
-3.61203
-6.95639
-9.57689
-9.52691
-9.42452
-9.26469
-9.03941
-8.73721
-8.34248
-7.83501
-7.19042
-6.38352
-5.39983
-4.26796
-3.139
-2.43953
-2.89144
-10.2039
-10.157
-10.0604
-9.9084
-9.69154
-9.39586
-9.0013
-8.4797
-7.79238
-6.88832
-5.70671
-4.19509
-2.37034
-0.467464
0.859695
-10.8636
-10.8216
-10.7349
-10.5971
-10.3984
-10.1232
-9.74834
-9.23949
-8.54487
-7.58585
-6.24276
-4.33966
-1.65593
1.90441
5.53248
-11.5524
-11.5174
-11.4446
-11.3283
-11.1584
-10.9196
-10.5884
-10.1283
-9.48097
-8.5501
-7.16772
-5.02635
-1.55029
4.22925
12.7248
-12.2654
-12.2393
-12.1847
-12.0965
-11.9662
-11.7803
-11.5181
-11.147
-10.614
-9.8279
-8.61975
-6.6399
-3.04428
4.66801
25.8167
-146.474
-88.0196
-61.5386
-48.886
-42.1101
-38.0641
-35.4363
-33.6253
-32.3277
-31.3771
-30.6766
-30.1667
-29.8101
-29.5835
-29.4734
-182.188
-82.3636
-54.6674
-43.9901
-38.6347
-35.4543
-33.3622
-31.897
-30.8312
-30.0406
-29.452
-29.0202
-28.7165
-28.5228
-28.4284
46.9226
-26.6187
-35.9776
-35.3984
-33.6489
-32.0888
-30.8528
-29.8912
-29.1436
-28.5637
-28.1184
-27.7847
-27.5465
-27.3931
-27.318
-7.04364
-15.4449
-24.1892
-27.6193
-28.5317
-28.4981
-28.1529
-27.7368
-27.3396
-26.9934
-26.7075
-26.4828
-26.3175
-26.209
-26.1553
25.9124
-4.0328
-16.0911
-21.5888
-24.0715
-25.1238
-25.5022
-25.5692
-25.5003
-25.3811
-25.2539
-25.1398
-25.0492
-24.987
-24.9554
-1.4244
-5.04215
-12.5491
-17.6519
-20.6044
-22.2177
-23.0676
-23.4961
-23.6959
-23.7743
-23.7913
-23.7806
-23.7611
-23.7436
-23.7336
11.4613
-3.35063
-10.6767
-15.2082
-18.0675
-19.8415
-20.9258
-21.5819
-21.9758
-22.2102
-22.3479
-22.4273
-22.4717
-22.4949
-22.5048
-3.07704
-6.85761
-10.7451
-13.9257
-16.2843
-17.9444
-19.0813
-19.8497
-20.3664
-20.7132
-20.945
-21.0984
-21.197
-21.2556
-21.2828
-14.99
-10.2903
-11.3043
-13.214
-14.9862
-16.4107
-17.4926
-18.2923