/*--------------------------------*- C++ -*----------------------------------*\
| =========                 |                                                 |
| \\      /  F ield         | OpenFOAM: The Open Source CFD Toolbox           |
|  \\    /   O peration     | Version:  5.x                                   |
|   \\  /    A nd           | Web:      www.OpenFOAM.org                      |
|    \\/     M anipulation  |                                                 |
\*---------------------------------------------------------------------------*/
FoamFile
{
    version     2.0;
    format      ascii;
    class       volScalarField;
    location    "13.7001";
    object      gradTy;
}
// * * * * * * * * * * * * * * * * * * * * * * * * * * * * * * * * * * * * * //

dimensions      [0 -1 0 1 0 0 0];

internalField   nonuniform List<scalar> 
6300
(
32284.1
32252.1
32220.1
32187.9
32155.5
32122.7
32089.6
32056.1
32022
31987.5
31952.4
31916.7
31880.4
31843.5
31806
0.0533792
0.159642
0.264382
0.366468
0.464612
0.557322
0.642886
0.719389
0.784778
0.836987
0.874122
0.894715
0.898008
0.88423
0.854792
0.089523
0.26778
0.443608
0.61519
0.780423
0.936843
1.08158
1.21136
1.32263
1.41174
1.47525
1.5104
1.51563
1.4911
1.43915
0.126455
0.378344
0.627079
0.870256
1.10504
1.32804
1.53521
1.72183
1.88263
2.01206
2.10471
2.15599
2.16297
2.12535
2.04627
0.164409
0.492065
0.816106
1.13371
1.44145
1.73508
2.00938
2.2581
2.47399
2.64915
2.77553
2.84585
2.85489
2.80102
2.68779
0.203526
0.6094
1.01157
1.40703
1.79197
2.16144
2.50913
2.82717
3.10607
3.335
3.50236
3.59694
3.60966
3.53599
3.37875
0.243824
0.730437
1.21375
1.69088
2.15794
2.60957
3.03853
3.43536
3.78809
4.08237
4.30192
4.42983
4.45077
4.35444
4.14036
0.285155
0.854776
1.4221
1.9848
2.53934
3.08035
3.60005
4.08761
4.52854
4.90442
5.19307
5.36962
5.40905
5.29058
5.00477
0.327174
0.981413
1.63507
2.28689
2.93425
3.57241
4.19369
4.78644
5.33399
5.81366
6.19623
6.44646
6.52518
6.39396
6.02385
0.369303
1.10863
1.84987
2.59344
3.33835
4.08134
4.81583
5.53045
6.20728
6.81993
7.33169
7.69477
7.85123
7.73627
7.28443
0.410711
1.23393
2.06234
2.89866
3.74435
4.59876
5.45781
6.31219
7.14472
7.92702
8.61579
9.14976
9.44893
9.41592
8.93222
0.45032
1.35404
2.26688
3.19448
4.14163
5.1115
6.10443
7.11573
8.13233
9.12763
10.0548
10.8399
11.3797
11.5483
11.1931
0.486849
1.46503
2.45667
3.47076
4.51615
5.60117
6.73264
7.91395
9.14122
10.3964
11.636
12.7761
13.6843
14.2113
14.3057
0.518894
1.56255
2.62401
3.71573
4.85105
6.04437
7.31099
8.66618
10.1222
11.6808
13.317
14.946
16.3766
17.3254
17.9406
0.545068
1.64228
2.76108
3.9171
5.12795
6.41424
7.80075
9.31756
11.0004
12.8877
15.0056
17.317
19.5624
20.8167
18.5555
31771.1
31739
31706.5
31673.7
31640.6
31607.2
31573.6
31539.7
31505.5
31471.2
31436.7
31402
31367.2
31332.3
31297.2
31262.2
31227.1
31191.9
31156.8
31121.7
31086.6
31051.6
31016.6
30981.7
30946.8
30911.9
30877.1
30842.4
30807.7
30773.1
30738.5
30704
30669.7
30635.4
30601.3
30567.2
30533.3
30499.5
30465.8
30432.1
30398.6
30365.1
30331.8
30298.5
30265.3
30232.3
30199.3
30166.5
30133.7
30101.1
30068.6
30036.2
30004
29971.8
29939.7
29907.7
29875.8
29844
29812.3
29780.7
29749.1
29717.7
29686.3
29655.1
29624
29592.9
29562
29531.1
29500.4
29469.7
29439.1
29408.5
29378.1
29347.6
29317.3
29287
29256.7
29226.5
29196.4
29166.3
29136.3
29106.3
29076.3
29046.3
29016.2
28986.1
28955.9
28925.7
28895.3
28864.9
0.81584
0.773623
0.726876
0.677812
0.628279
0.579516
0.532016
0.485554
0.439355
0.392394
0.343733
0.29285
0.239877
0.185698
0.131882
0.0804659
0.0336202
-0.00673231
-0.039263
-0.0634861
-0.0798611
-0.089735
-0.0951378
-0.0984668
-0.102114
-0.108094
-0.117735
-0.131476
-0.148825
-0.168456
-0.188472
-0.206756
-0.22136
-0.230861
-0.234615
-0.232864
-0.22669
-0.217829
-0.208373
-0.200423
-0.195734
-0.195428
-0.199802
-0.208283
-0.21953
-0.231672
-0.242644
-0.250553
-0.254013
-0.252382
-0.245863
-0.235455
-0.222781
-0.209802
-0.198487
-0.190478
-0.186817
-0.187765
-0.19276
-0.200508
-0.209217
-0.216908
-0.221765
-0.222453
-0.218338
-0.209584
-0.197107
-0.182401
-0.167267
-0.153491
-0.14252
-0.135191
-0.131554
-0.13082
-0.131454
-0.131388
-0.12834
-0.120168
-0.105212
-0.0825719
-0.0522746
-0.015333
0.0263154
0.06997
0.112415
0.150233
0.180164
0.199472
0.206282
0.199826
1.37063
1.29665
1.21522
1.1305
1.04598
0.963909
0.885092
0.80887
0.733492
0.656698
0.576411
0.491386
0.401686
0.308887
0.215955
0.126814
0.0456821
-0.0236831
-0.0786735
-0.118316
-0.143469
-0.156702
-0.161899
-0.163648
-0.166526
-0.174385
-0.18975
-0.213438
-0.244451
-0.280182
-0.316904
-0.350467
-0.377064
-0.393924
-0.399797
-0.39516
-0.382115
-0.364022
-0.344927
-0.328886
-0.319292
-0.318308
-0.326508
-0.342772
-0.364486
-0.388002
-0.409291
-0.424672
-0.43146
-0.428422
-0.415965
-0.396045
-0.371807
-0.347049
-0.325579
-0.310577
-0.30406
-0.306535
-0.316909
-0.33267
-0.350326
-0.366025
-0.376241
-0.378394
-0.371276
-0.355233
-0.332067
-0.304698
-0.27664
-0.251383
-0.231771
-0.21948
-0.214671
-0.215891
-0.22023
-0.223748
-0.22207
-0.211083
-0.187587
-0.149804
-0.0976925
-0.0330346
0.0406824
0.118563
0.194745
0.262966
0.317204
0.352368
0.364938
0.353462
1.94221
1.83036
1.70825
1.58288
1.4601
1.3436
1.23441
1.13095
1.02965
0.926025
0.81591
0.696653
0.56796
0.432273
0.294576
0.161636
0.040806
-0.0613269
-0.140178
-0.194006
-0.224236
-0.235236
-0.233618
-0.227197
-0.223762
-0.229861
-0.249775
-0.284846
-0.333278
-0.390475
-0.44988
-0.504204
-0.546786
-0.572803
-0.580109
-0.569557
-0.544803
-0.511653
-0.477078
-0.448062
-0.430445
-0.42796
-0.441596
-0.469409
-0.506845
-0.547532
-0.584441
-0.611162
-0.623053
-0.618018
-0.596812
-0.562848
-0.521577
-0.479557
-0.443355
-0.418456
-0.40835
-0.413926
-0.433298
-0.462101
-0.49425
-0.523033
-0.542327
-0.547683
-0.537064
-0.511135
-0.473076
-0.427983
-0.381977
-0.341143
-0.310478
-0.292991
-0.289106
-0.296465
-0.31019
-0.323587
-0.329202
-0.320012
-0.290533
-0.237668
-0.161176
-0.0637798
0.0490557
0.169601
0.288542
0.395835
0.481713
0.537798
0.558222
0.540515
2.53861
2.37878
2.20593
2.03151
1.86514
1.71273
1.57546
1.44992
1.32916
1.20469
1.06857
0.915513
0.744309
0.558557
0.366357
0.179024
0.00901378
-0.132491
-0.237709
-0.303672
-0.332691
-0.331936
-0.312253
-0.286445
-0.267268
-0.265443
-0.287973
-0.337012
-0.409486
-0.497587
-0.590172
-0.674852
-0.74036
-0.778626
-0.786137
-0.764407
-0.719583
-0.661334
-0.601226
-0.550823
-0.51981
-0.5144
-0.536268
-0.58219
-0.64452
-0.712504
-0.774261
-0.819008
-0.83902
-0.830902
-0.796031
-0.740173
-0.672427
-0.603689
-0.544853
-0.505033
-0.490057
-0.501452
-0.536106
-0.586713
-0.643021
-0.693706
-0.728485
-0.739974
-0.724898
-0.684507
-0.624213
-0.552584
-0.479866
-0.416261
-0.370208
-0.346914
-0.347349
-0.367875
-0.400619
-0.434632
-0.457655
-0.458154
-0.427155
-0.359554
-0.254761
-0.116757
0.0463279
0.222948
0.399111
0.559544
0.689121
0.774584
0.806413
0.780484
3.1698
2.94589
2.70581
2.46851
2.25003
2.06
1.89962
1.76195
1.63401
1.5001
1.34563
1.1605
0.941614
0.694135
0.431135
0.171477
-0.0638192
-0.255898
-0.391764
-0.466531
-0.484016
-0.455889
-0.399706
-0.336142
-0.285786
-0.265953
-0.287997
-0.355433
-0.46319
-0.598245
-0.741847
-0.873107
-0.973165
-1.02874
-1.03427
-0.992511
-0.913695
-0.813696
-0.711399
-0.625663
-0.572307
-0.561561
-0.596302
-0.671346
-0.774055
-0.886446
-0.988575
-1.06247
-1.09549
-1.08231
-1.02547
-0.934616
-0.824707
-0.713562
-0.618968
-0.555836
-0.53379
-0.555485
-0.615942
-0.703117
-0.79989
-0.887282
-0.948182
-0.970519
-0.949185
-0.886537
-0.791673
-0.678754
-0.564631
-0.466103
-0.397164
-0.366666
-0.376663
-0.421688
-0.48922
-0.561502
-0.618544
-0.641653
-0.616484
-0.534993
-0.396171
-0.205851
0.0241094
0.276956
0.532331
0.767684
0.960056
1.0886
1.13778
1.1005
3.8498
3.53618
3.20162
2.87831
2.59391
2.3645
2.19101
2.05996
1.94742
1.82511
1.66684
1.45409
1.18009
0.85207
0.491108
0.128857
-0.198877
-0.460245
-0.633792
-0.711872
-0.701017
-0.62024
-0.497784
-0.36682
-0.260349
-0.20616
-0.222655
-0.315793
-0.477586
-0.686594
-0.911297
-1.11629
-1.27003
-1.35091
-1.35052
-1.27398
-1.13831
-0.969367
-0.797726
-0.653879
-0.563445
-0.543222
-0.598302
-0.720664
-0.889649
-1.07516
-1.24354
-1.36481
-1.41849
-1.39659
-1.3039
-1.15649
-0.978769
-0.799601
-0.647777
-0.547478
-0.514535
-0.553702
-0.657306
-0.805697
-0.970269
-1.11901
-1.22341
-1.26395
-1.23297
-1.13496
-0.985134
-0.806654
-0.626941
-0.473337
-0.368762
-0.328107
-0.355536
-0.443091
-0.57098
-0.710319
-0.828295
-0.894669
-0.886919
-0.792989
-0.611739
-0.352025
-0.0310653
0.327325
0.694382
1.03772
1.32291
1.51691
1.59363
1.54024
4.60093
4.15651
3.68114
3.232
2.85855
2.58841
2.42124
2.33126
2.27489
2.20188
2.0665
1.83587
1.49638
1.05744
0.552942
0.0365415
-0.429492
-0.791047
-1.01329
-1.08527
-1.0187
-0.844605
-0.608113
-0.362225
-0.159624
-0.0445814
-0.0469477
-0.177289
-0.423995
-0.752343
-1.10913
-1.4333
-1.67181
-1.7901
-1.77642
-1.64058
-1.41085
-1.12892
-0.84403
-0.605181
-0.453481
-0.416447
-0.503419
-0.702847
-0.98144
-1.28857
-1.56633
-1.76448
-1.85034
-1.81279
-1.66113
-1.42203
-1.13491
-0.846264
-0.602393
-0.442126
-0.391444
-0.459129
-0.634179
-0.884978
-1.16345
-1.41457
-1.5906
-1.66038
-1.61326
-1.45799
-1.21986
-0.93633
-0.651656
-0.409966
-0.248317
-0.191508
-0.247826
-0.406412
-0.636251
-0.889897
-1.11235
-1.25443
-1.28145
-1.17673
-0.940293
-0.586392
-0.140139
0.365213
0.890595
1.39148
1.81706
2.11409
2.23684
2.16036
5.46321
4.82122
4.12276
3.47664
2.97436
2.66398
2.54022
2.55413
2.62629
2.66842
2.60328
2.37442
1.95586
1.35722
0.631922
-0.128296
-0.810548
-1.32246
-1.60914
-1.65819
-1.49123
-1.15881
-0.73197
-0.295297
0.0671875
0.286065
0.313044
0.128779
-0.252839
-0.777144
-1.35392
-1.87365
-2.24671
-2.41933
-2.37821
-2.14241
-1.75856
-1.29275
-0.824034
-0.430989
-0.1784
-0.111106
-0.2466
-0.571033
-1.03214
-1.54427
-2.00375
-2.32587
-2.45989
-2.39333
-2.14425
-1.75674
-1.29324
-0.828454
-0.43662
-0.178973
-0.0979044
-0.20995
-0.501973
-0.924414
-1.396
-1.81829
-2.11078
-2.22513
-2.1493
-1.90032
-1.51998
-1.06765
-0.614472
-0.231336
0.0230986
0.107995
0.00714993
-0.267128
-0.66724
-1.11439
-1.51216
-1.77985
-1.8657
-1.75012
-1.438
-0.953744
-0.334316
0.374257
1.12208
1.85368
2.49634
2.96224
3.16696
3.05794
6.51596
5.5669
4.48866
3.514
2.81395
2.4708
2.46086
2.69304
3.02089
3.28941
3.37583
3.18611
2.67466
1.83941
0.761186
-0.405399
-1.43689
-2.17819
-2.54718
-2.54216
-2.202
-1.60899
-0.869983
-0.121537
0.500793
0.893048
0.977224
0.719037
0.123782
-0.726384
-1.68087
-2.5252
-3.11024
-3.35637
-3.26034
-2.85745
-2.22427
-1.46075
-0.695081
-0.0545402
0.363503
0.486248
0.28229
-0.24241
-1.00936
-1.8758
-2.63896
-3.1581
-3.35829
-3.23668
-2.82673
-2.20085
-1.45343
-0.705594
-0.0776168
0.338451
0.473719
0.298395
-0.181967
-0.893076
-1.69955
-2.40893
-2.88747
-3.06373
-2.93468
-2.53183
-1.92376
-1.20018
-0.476433
0.132627
0.538649
0.674968
0.51187
0.0533555
-0.630495
-1.40999
-2.09926
-2.56715
-2.73998
-2.60655
-2.18358
-1.51574
-0.656858
0.326774
1.37695
2.44397
3.43013
4.18651
4.54885
4.39763
7.93006
6.49823
4.70414
3.15492
2.13987
1.79809
2.03289
2.69412
3.50089
4.17259
4.54598
4.46109
3.85972
2.67147
1.0177
-0.87703
-2.48111
-3.57005
-4.02377
-3.90874
-3.27686
-2.26942
-1.02159
0.233832
1.2657
1.94366
2.13441
1.79467
0.867476
-0.5254
-2.16646
-3.55014
-4.46178
-4.78613
-4.58434
-3.90409
-2.8777
-1.63186
-0.385938
0.642302
1.33063
1.55405
1.27304
0.435056
-0.843335
-2.35604
-3.62558
-4.44964
-4.7201
-4.49521
-3.82017
-2.81999
-1.61424
-0.41013
0.586534
1.26023
1.49259
1.246
0.470313
-0.724421
-2.14289
-3.33199
-4.09944
-4.34199
-4.11434
-3.45884
-2.49387
-1.33295
-0.173243
0.788964
1.44257
1.6731
1.44199
0.698325
-0.456028
-1.8355
-3.00517
-3.77933
-4.05526
-3.87993
-3.28178
-2.35284
-1.15904
0.183475
1.60755
3.15068
4.6948
5.97819
6.67027
6.4809
10.0997
7.95414
4.56453
2.02119
0.495336
0.295608
0.991205
2.48575
4.17543
5.48531
6.37602
6.47982
5.88986
4.17389
1.62118
-1.76719
-4.26713
-5.87661
-6.31937
-6.01959
-4.89252
-3.27602
-1.18411
0.911104
2.54025
3.69586
4.05549
3.71623
2.28175
0.0329617
-3.02266
-5.25482
-6.65905
-6.9735
-6.59735
-5.44917
-3.84711
-1.80311
0.236672
1.82861
2.96723
3.34824
3.06585
1.7467
-0.339893
-3.18646
-5.25367
-6.53834
-6.79523
-6.40195
-5.28182
-3.73513
-1.77268
0.184052
1.71577
2.8175
3.20117
2.95548
1.72603
-0.23359
-2.91651
-4.86224
-6.06727
-6.29734
-5.91011
-4.83146
-3.34616
-1.46399
0.414352
1.88969
2.95572
3.33601
3.11019
1.93468
0.0426065
-2.56311
-4.4806
-5.70896
-6.02035
-5.76215
-4.85634
-3.57133
-1.87535
-0.077271
1.66669
3.85599
6.33494
8.62136
10.061
9.92327
13.9565
11.2331
3.21841
-0.593666
-3.06774
-2.49851
-1.20149
1.9963
5.39683
7.40162
9.33922
9.49757
9.54144
6.88119
3.42803
-3.9367
-7.3354
-9.86327
-9.6842
-9.32177
-7.21295
-4.9672
-1.35139
2.25951
4.49669
6.59428
6.98297
7.21491
4.86864
1.75316
-5.06465
-8.15173
-10.4256
-10.1554
-9.72208
-7.64785
-5.45292
-1.96831
1.50419
3.66768
5.69481
6.0977
6.35157
4.16346
1.25792
-5.13917
-8.00862
-10.1071
-9.8066
-9.35536
-7.35773
-5.24898
-1.92288
1.39026
3.46416
5.4088
5.81604
6.08156
4.03318
1.29879
-4.75168
-7.45909
-9.43905
-9.14157
-8.70154
-6.78967
-4.76992
-1.58951
1.58227
3.57981
5.45634
5.8717
6.14594
4.20291
1.56888
-4.28176
-6.9484
-8.95903
-8.80567
-8.57693
-6.97692
-5.38163
-2.73869
-0.260082
1.08454
4.14419
8.25234
12.4839
15.723
16.194
21.3942
22.325
-4.00451
-5.10573
-11.0153
-6.34201
-6.1317
1.2147
8.62803
9.41467
14.8645
12.6801
17.087
10.7303
10.8676
-11.8173
-11.6577
-17.7479
-13.3131
-15.1387
-9.73058
-8.63128
-1.5116
5.58607
6.65414
11.9535
10.1362
14.4262
8.56318
8.8047
-12.4789
-12.2197
-17.8555
-13.5721
-15.2098
-10.0204
-8.91585
-2.11605
4.65666
5.7031
10.7613
9.06177
13.1537
7.61334
7.88354
-12.1717
-11.8738
-17.1302
-13.0351
-14.5356
-9.59367
-8.51582
-2.0544
4.38096
5.39868
10.2139
8.63501
12.5396
7.32818
7.60635
-11.4009
-11.1035
-16.0904
-12.1911
-13.6124
-8.9032
-7.86506
-1.70258
4.4411
5.44419
10.061
8.61061
12.3746
7.46616
7.72707
-10.5853
-10.3609
-15.3252
-11.6995
-13.3663
-9.0907
-8.70055
-3.36538
1.19004
-1.96724
2.92256
9.99201
17.7756
25.3712
29.6217
32.2688
72.6958
-47.5351
-2.6738
-34.1946
-3.75697
-21.3374
0.336867
21.4017
4.71272
31.383
6.37143
40.1319
5.2281
51.1709
-52.5941
-6.98006
-40.7887
-7.92693
-31.3723
-6.04348
-20.9647
-1.64011
17.5953
2.71855
27.5607
4.49488
36.2579
3.46718
46.8524
-50.9147
-7.79878
-39.5693
-8.46224
-30.5284
-6.51062
-20.58
-2.22477
16.055
1.96163
25.5588
3.68614
33.8265
2.69598
43.7778
-48.5126
-7.74087
-37.6194
-8.20598
-28.9927
-6.26535
-19.535
-2.14836
15.1731
1.86477
24.2267
3.55766
32.1249
2.71811
41.6849
-45.8488
-7.13836
-35.5377
-7.57884
-27.3514
-5.73036
-18.3392
-1.78857
14.7024
2.10474
23.4026
3.84083
31.0914
3.28561
40.6309
-43.5821
-6.30134
-34.0611
-6.97224
-26.7128
-5.60942
-19.1403
-2.86921
13.7465
-16.6068
-1.43778
10.7033
23.3382
39.8361
66.3791
28831.3
28794.5
28757.6
28720.7
28683.8
28646.8
28609.9
28573.1
28536.4
28499.8
28463.3
28426.9
28390.6
28354.3
28318.1
0.178627
0.1396
0.0893713
0.03369
-0.0215949
-0.0713294
-0.111566
-0.139772
-0.154789
-0.156643
-0.146282
-0.125315
-0.0957858
-0.0600043
-0.0204256
0.315311
0.245073
0.155004
0.0557313
-0.0421184
-0.129387
-0.199263
-0.247564
-0.272573
-0.274619
-0.255572
-0.218361
-0.166584
-0.104223
-0.0354556
0.480616
0.370376
0.229842
0.0763497
-0.0732227
-0.204837
-0.308534
-0.378648
-0.41332
-0.413689
-0.383026
-0.325973
-0.247967
-0.154849
-0.052629
0.690816
0.525973
0.317639
0.0930483
-0.122285
-0.308202
-0.451389
-0.545174
-0.58837
-0.583792
-0.536869
-0.454536
-0.344462
-0.214578
-0.07284
0.96804
0.725061
0.421694
0.10049
-0.200764
-0.454299
-0.643646
-0.762289
-0.811192
-0.796239
-0.726122
-0.610841
-0.460767
-0.286159
-0.0969935
1.34374
0.984538
0.543588
0.0879798
-0.326961
-0.664582
-0.906605
-1.04914
-1.09787
-1.06385
-0.960539
-0.801938
-0.601608
-0.372298
-0.125969
1.86427
1.32576
0.680139
0.0348032
-0.530478
-0.970463
-1.26905
-1.42981
-1.4673
-1.40075
-1.25024
-1.03477
-0.771427
-0.475455
-0.160552
2.6003
1.77411
0.816401
-0.098428
-0.859289
-1.41775
-1.76931
-1.93375
-1.94077
-1.8216
-1.60493
-1.31545
-0.973879
-0.597543
-0.201335
3.66327
2.35399
0.90978
-0.385627
-1.3905
-2.07192
-2.45671
-2.59511
-2.54042
-2.33995
-2.03241
-1.64824
-1.21109
-0.739505
-0.248578
5.23439
3.06881
0.854353
-0.963355
-2.24518
-3.02271
-3.39048
-3.44958
-3.28586
-2.96537
-2.53652
-2.03402
-1.48274
-0.900805
-0.302053
7.61127
3.8325
0.402178
-2.07696
-3.60416
-4.38326
-4.63292
-4.52685
-4.18806
-3.69915
-3.11426
-2.46858
-1.78504
-1.07892
-0.360881
11.2448
4.24775
-1.00118
-4.14251
-5.71125
-6.27325
-6.23109
-5.83685
-5.24038
-4.52892
-3.75281
-2.94098
-2.10992
-1.26897
-0.42343
16.4761
2.91492
-4.51213
-7.78065
-8.82506
-8.76738
-8.18135
-7.34908
-6.4077
-5.42333
-4.42708
-3.43261
-2.4447
-1.4636
-0.487299
20.928
-4.55207
-12.1816
-13.6429
-13.041
-11.7899
-10.3778
-8.9704
-7.618
-6.32961
-5.09959
-3.91769
-2.77265
-1.65343
-0.549465
0.563158
1.69735
2.85569
4.05601
5.31901
6.67007
8.14178
9.77771
11.6381
13.8074
16.4018
19.5574
23.3034
26.8153
24.2805
0.573603
1.72904
2.90976
4.13459
5.42574
6.81101
8.32727
10.0262
11.9849
14.3253
17.2572
21.1802
26.9788
37.0589
59.7666
0.578329
1.74318
2.93319
4.16712
5.46711
6.86098
8.38587
10.0945
12.0666
14.4324
17.4227
21.4937
27.6654
38.5752
62.224
0.577363
1.73985
2.92613
4.15378
5.4433
6.81999
8.31692
9.97976
11.8752
14.1058
16.8374
20.3415
25.0214
31.1018
35.8875
0.571006
1.72001
2.89035
4.09749
5.35896
6.6955
8.13276
9.70355
11.451
13.4318
15.717
18.3746
21.3888
24.3816
26.0521
0.559794
1.68535
2.829
4.00348
5.22249
6.5011
7.8559
9.30469
10.8647
12.5467
14.3389
16.1651
17.7834
18.559
16.9189
0.54444
1.63812
2.74626
3.87854
5.04465
6.2538
7.51378
8.82864
10.1937
11.5849
12.9371
14.101
14.7698
14.4164
12.623
0.525748
1.58087
2.64674
3.73013
4.83692
5.97121
7.13359
8.31779
9.50452
10.6501
11.6658
12.3802
12.4679
11.2743
7.09083
0.504542
1.51614
2.53507
3.56546
4.61009
5.66914
6.73828
7.80521
8.84398
9.80565
10.6038
11.0945
11.0562
10.2086
8.50187
0.481592
1.44632
2.41542
3.39092
4.37325
5.36008
6.34451
7.3122
8.23702
9.07477
9.75535
10.176
10.2067
9.73957
8.84899
0.457571
1.37346
2.29134
3.21164
4.13328
5.05269
5.96238
6.849
7.69055
8.4531
9.08743
9.52835
9.70306
9.56462
9.18105
0.433029
1.29922
2.16557
3.03143
3.89487
4.75205
5.59629
6.41709
7.19897
7.92049
8.55387
9.06556
9.4169
9.55995
9.4106
0.408396
1.22485
2.04014
2.85288
3.66081
4.46039
5.24648
6.01222
6.74931
7.44909
8.10485
8.71416
9.27541
9.75836
10.0191
0.383994
1.15131
1.91647
2.67767
3.43254
4.17808
4.9108
5.62726
6.32555
7.00828
7.6881
8.39613
9.18831
10.1111
10.8949
0.360059
1.07924
1.79555
2.50685
3.21074
3.90468
4.5864
5.25491
5.91259
6.56949
7.25177
8.01968
9.01051
10.5604
13.6178
0.336771
1.00917
1.67811
2.34116
2.99583
3.63975
4.27117
4.89006
5.50017
6.11307
6.75595
7.48842
8.44445
9.96282
13.0889
0.314274
0.941501
1.56474
2.18128
2.78838
3.38349
3.96464
4.53129
5.0858
5.6358
6.19792
6.80188
7.48788
8.24875
8.62117
0.292692
0.876595
1.45603
2.02795
2.58925
3.13691
3.66815
4.18094
4.67453
5.15012
5.61081
6.05835
6.47929
6.80441
6.8568
0.272138
0.814789
1.35253
1.88197
2.39959
2.9017
3.38447
3.84392
4.27575
4.67476
5.03281
5.33328
5.53724
5.54943
5.12303
0.252712
0.75639
1.25478
1.7442
2.22069
2.67992
3.11698
3.52605
3.89975
4.22785
4.49477
4.6752
4.72833
4.59901
4.2794
0.234497
0.701659
1.16327
1.6154
2.05377
2.47353
2.86892
3.23273
3.55539
3.82339
4.01677
4.10553
4.0461
3.78073
3.2284
0.217551
0.650782
1.07833
1.49614
1.89976
2.28405
2.64277
2.96798
3.24899
3.47075
3.6114
3.63875
3.50687
3.1617
2.62258
0.201906
0.603853
1.00014
1.38673
1.75918
2.11232
2.43989
2.73391
2.98371
3.17443
3.2847
3.28252
3.11575
2.67734
1.62971
0.187553
0.560854
0.92868
1.28715
1.63199
1.95833
2.2603
2.53054
2.75944
2.93397
3.03608
3.04058
2.91327
2.61604
2.17279
0.174452
0.521657
0.863716
1.19702
1.51766
1.82126
2.10273
2.35587
2.57292
2.74379
2.85523
2.89016
2.82878
2.65614
2.38231
0.16253
0.486032
0.80483
1.11568
1.41516
1.69957
1.96482
2.20627
2.41847
2.59488
2.7275
2.80661
2.82155
2.76649
2.66691
0.151689
0.453672
0.751463
1.04223
1.32311
1.59117
1.84344
2.07697
2.28886
2.47637
2.63693
2.76761
2.86293
2.90776
2.85466
0.141816
0.424223
0.702971
0.975658
1.23996
1.49372
1.73508
1.96269
2.17617
2.37658
2.56711
2.75317
2.93936
3.11705
3.23862
0.132792
0.397315
0.658686
0.914901
1.16414
1.40489
1.63625
1.85823
2.07255
2.28363
2.50041
2.73862
3.02168
3.3653
3.65671
0.124504
0.372596
0.617981
0.85899
1.09419
1.3226
1.54392
1.7591
1.97117
2.18672
2.4188
2.69294
3.06194
3.64979
4.80755
0.116851
0.349757
0.580315
0.807107
1.02898
1.24521
1.45585
1.66213
1.86737
2.07833
2.308
2.58137
2.95021
3.53853
4.71382
0.109752
0.328548
0.545262
0.758642
0.96767
1.17172
1.37079
1.56589
1.7596
1.95696
2.16683
2.40349
2.68607
3.01963
3.2575
0.103143
0.308784
0.512524
0.713199
0.909821
1.10168
1.2885
1.47062
1.64928
1.82689
2.00707
2.19372
2.38652
2.56719
2.68091
0.0969808
0.290341
0.481914
0.67057
0.855277
1.03514
1.20946
1.37774
1.5397
1.69503
1.84281
1.97969
2.09538
2.16124
2.09701
0.0912366
0.273138
0.453329
0.630684
0.804096
0.972456
1.13461
1.28926
1.43471
1.56842
1.68611
1.78036
1.83885
1.84564
1.80484
0.0858896
0.257123
0.426712
0.593537
0.756422
0.914076
1.06498
1.20717
1.33788
1.45292
1.54569
1.60587
1.61823
1.56308
1.41486
0.0809217
0.242249
0.402016
0.559125
0.712379
0.860384
1.00139
1.13305
1.25193
1.35289
1.42791
1.4646
1.44448
1.34514
1.1768
0.0763118
0.22846
0.379164
0.527391
0.671982
0.81155
0.944306
1.06779
1.17844
1.27087
1.33675
1.36277
1.32575
1.17511
0.746051
0.0720318
0.215674
0.358032
0.498181
0.635075
0.767445
0.893654
1.01145
1.1176
1.20728
1.27327
1.30471
1.28592
1.19844
1.05352
0.0680448
0.203779
0.338433
0.471233
0.601308
0.727619
0.848844
0.963204
1.06819
1.16015
1.23377
1.28153
1.29379
1.26166
1.18412
0.0643044
0.192635
0.320123
0.446177
0.570155
0.691323
0.808802
0.921469
1.02782
1.12575
1.21224
1.28301
1.3325
1.3564
1.36603
0.0607571
0.182076
0.302808
0.422563
0.540952
0.657591
0.772102
0.88412
0.993299
1.09929
1.20164
1.29926
1.38898
1.46106
1.48539
0.0573458
0.171924
0.286171
0.399897
0.512966
0.625337
0.737133
0.848742
0.960989
1.07537
1.19431
1.32101
1.45771
1.59886
1.71819
0.0540132
0.162003
0.269897
0.377687
0.485463
0.593484
0.702295
0.812922
0.927197
1.04829
1.18159
1.33581
1.52335
1.75183
1.95779
0.0507064
0.152148
0.253695
0.355488
0.457791
0.561082
0.666195
0.774569
0.888667
1.01275
1.15434
1.32746
1.56057
1.92043
2.59714
0.0473796
0.14222
0.237322
0.332935
0.429434
0.527415
0.627832
0.732242
0.843207
0.965034
1.1052
1.27745
1.50978
1.86899
2.55313
0.043997
0.132109
0.220594
0.309766
0.40005
0.492056
0.586697
0.685363
0.790206
0.90459
1.03377
1.18572
1.37087
1.59192
1.76976
0.0405323
0.12174
0.20339
0.285826
0.369469
0.454868
0.542767
0.634194
0.730581
0.833874
0.946529
1.07095
1.20703
1.34485
1.45542
0.0369683
0.111063
0.185641
0.261048
0.337669
0.415945
0.496387
0.579583
0.666161
0.756656
0.851119
0.948081
1.04198
1.11672
1.12678
0.0332944
0.100052
0.167317
0.235427
0.30472
0.375517
0.448096
0.522624
0.599021
0.676685
0.753976
0.827344
0.890223
0.933502
0.958729
0.0295033
0.0886888
0.148405
0.208986
0.270728
0.333853
0.398452
0.464368
0.531003
0.596973
0.659559
0.713891
0.752085
0.762824
0.728377
0.0255882
0.0769571
0.128893
0.181739
0.235774
0.291167
0.347895
0.405615
0.463447
0.519615
0.570874
0.611648
0.633014
0.623527
0.587896
0.0215396
0.0648316
0.10875
0.153667
0.199879
0.247554
0.296649
0.346785
0.397048
0.445666
0.489472
0.522883
0.535372
0.502388
0.341352
0.0173432
0.0522717
0.087913
0.124696
0.162969
0.202957
0.244682
0.287868
0.331792
0.37506
0.41529
0.448649
0.469308
0.470176
0.45708
0.0129788
0.039217
0.0662841
0.0946893
0.12487
0.157153
0.1917
0.228441
0.266994
0.306565
0.345882
0.383237
0.416991
0.447662
0.483956
0.0084197
0.0255868
0.0437265
0.0634504
0.0853121
0.109778
0.137195
0.167758
0.201489
0.238248
0.27784
0.320327
0.366818
0.421244
0.493607
0.00363307
0.0112816
0.0200691
0.0307275
0.0439463
0.0603548
0.0805069
0.104877
0.133882
0.167965
0.207788
0.254638
0.311136
0.382374
0.477771
-0.00141901
-0.00381435
-0.00488701
-0.00377276
0.000366266
0.00833271
0.0208908
0.0387783
0.0627516
0.0936969
0.13286
0.182251
0.245222
0.326728
0.430449
-0.00677839
-0.0198286
-0.0313614
-0.0403729
-0.0458709
-0.046877
-0.042425
-0.0315451
-0.013219
0.0137247
0.05083
0.100437
0.16644
0.255659
0.38147
-0.0124895
-0.0368963
-0.0595861
-0.0794124
-0.0952264
-0.105876
-0.110203
-0.107038
-0.0951722
-0.0733023
-0.0398787
0.00723849
0.0715376
0.159183
0.278149
-0.0185978
-0.0551561
-0.0897989
-0.121238
-0.148168
-0.169264
-0.183184
-0.188571
-0.184071
-0.16835
-0.140094
-0.0978885
-0.0395736
0.0409602
0.171338
-0.0251486
-0.0747458
-0.122236
-0.166193
-0.205159
-0.237635
-0.262089
-0.276968
-0.28076
-0.272102
-0.249995
-0.214199
-0.166111
-0.111872
-0.0793851
-0.0321854
-0.0957982
-0.157127
-0.214615
-0.266655
-0.311577
-0.347641
-0.373064
-0.386093
-0.38519
-0.369399
-0.339044
-0.296916
-0.249594
-0.203352
-0.0397484
-0.118436
-0.194684
-0.266819
-0.333094
-0.391668
-0.440581
-0.477764
-0.5011
-0.508616
-0.498914
-0.472062
-0.431326
-0.386561
-0.363185
-0.0478729
-0.142769
-0.235098
-0.32309
-0.404881
-0.478468
-0.541667
-0.592078
-0.627091
-0.643997
-0.640336
-0.61472
-0.568529
-0.508673
-0.447486
-0.0565875
-0.168884
-0.278524
-0.383668
-0.482363
-0.57248
-0.651633
-0.717084
-0.765654
-0.793658
-0.797004
-0.771662
-0.71522
-0.631708
-0.547081
-0.0659122
-0.196843
-0.325071
-0.448723
-0.565802
-0.674105
-0.771111
-0.853813
-0.918496
-0.960442
-0.973592
-0.950199
-0.880709
-0.755513
-0.581914
-0.0758575
-0.226678
-0.374795
-0.518342
-0.655333
-0.783574
-0.900522
-1.00306
-1.08713
-1.14722
-1.17556
-1.16075
-1.08488
-0.912931
-0.538578
-0.0864242
-0.25839
-0.427693
-0.592514
-0.750941
-0.900886
-1.03994
-1.16512
-1.2724
-1.35605
-1.40748
-1.41369
-1.35577
-1.21091
-0.983299
-0.097604
-0.291949
-0.483704
-0.671126
-0.852437
-1.02576
-1.189
-1.3396
-1.47409
-1.58727
-1.6708
-1.71117
-1.68704
-1.56634
-1.29341
-0.109383
-0.327308
-0.542723
-0.753982
-0.959479
-1.15763
-1.34683
-1.52527
-1.69058
-1.83906
-1.96409
-2.05346
-2.08535
-2.0275
-1.86813
-0.121745
-0.364411
-0.604627
-0.840839
-1.07162
-1.29572
-1.51213
-1.72005
-1.91877
-2.10713
-2.28216
-2.43564
-2.54599
-2.55914
-2.33528
-0.13468
-0.403214
-0.66931
-0.931467
-1.1884
-1.43916
-1.68333
-1.92123
-2.15414
-2.38445
-2.61519
-2.84778
-3.07413
-3.25538
-3.29886
-0.148187
-0.443711
-0.736728
-1.02572
-1.30946
-1.58717
-1.85888
-2.12586
-2.39132
-2.66146
-2.94692
-3.26426
-3.63359
-4.04729
-4.25456
-0.162284
-0.485948
-0.806939
-1.12363
-1.4347
-1.73935
-2.03772
-2.33155
-2.62526
-2.92784
-3.25652
-3.64462
-4.16223
-4.98255
-6.64345
-0.17701
-0.53004
-0.880133
-1.22545
-1.5644
-1.89589
-2.21971
-2.53733
-2.85302
-3.17609
-3.52485
-3.93505
-4.48065
-5.33406
-6.97046
-0.192422
-0.576172
-0.956642
-1.33169
-1.69929
-2.05774
-2.40602
-2.74443
-3.07566
-3.40651
-3.75051
-4.13146
-4.58532
-5.14184
-5.67276
-0.208595
-0.62458
-1.03692
-1.4431
-1.84053
-2.22666
-2.59918
-2.95652
-3.29856
-3.6278
-3.95051
-4.27722
-4.6187
-4.96738
-5.25017
-0.225606
-0.675522
-1.12147
-1.56057
-1.98962
-2.40502
-2.80288
-3.17922
-3.53037
-3.85361
-4.14772
-4.41273
-4.64707
-4.83867
-4.94344
-0.243517
-0.729216
-1.21078
-1.68504
-2.14818
-2.59556
-3.02154
-3.41941
-3.78155
-4.09965
-4.36515
-4.56955
-4.70511
-4.77026
-4.79746
-0.262355
-0.78578
-1.30517
-1.81722
-2.31768
-2.80096
-3.2597
-3.68442
-4.06331
-4.38221
-4.62501
-4.77417
-4.81203
-4.72822
-4.55562
-0.282084
-0.845146
-1.40465
-1.95745
-2.49912
-3.02341
-3.52149
-3.98127
-4.38671
-4.71763
-4.94991
-5.05608
-5.00345
-4.74782
-4.29393
-0.302583
-0.906979
-1.5088
-2.1054
-2.69263
-3.26406
-3.80989
-4.31583
-4.76188
-5.12154
-5.36237
-5.44826
-5.33585
-4.90511
-3.4536
-0.323616
-0.970603
-1.61657
-2.25985
-2.89713
-3.52247
-4.12597
-4.69199
-5.19705
-5.60797
-5.88243
-5.97815
-5.88931
-5.77127
-6.40193
-0.34482
-1.03493
-1.72621
-2.41846
-3.10991
-3.79606
-4.46809
-5.11049
-5.69758
-6.18916
-6.52661
-6.63621
-6.46304
-6.1175
-6.43505
-0.365693
-1.09846
-1.83516
-2.57764
-3.32638
-4.07944
-4.83079
-5.56739
-6.26444
-6.87738
-7.32904
-7.49062
-7.15648
-6.00325
-3.38154
-0.385607
-1.15926
-1.9401
-2.73247
-3.53984
-4.36403
-5.20372
-6.05175
-6.88972
-7.67761
-8.33289
-8.68929
-8.41874
-6.90877
-3.20398
-0.403828
-1.21506
-2.03703
-2.87688
-3.74162
-4.63784
-5.57087
-6.54308
-7.54977
-8.56991
-9.54432
-10.3233
-10.5417
-9.33849
-4.90361
-0.419565
-1.26341
-2.12155
-3.004
-3.92155
-4.88607
-5.91082
-7.01048
-8.20049
-9.49398
-10.8914
-12.3467
-13.6518
-14.0124
-10.334
-0.432028
-1.30183
-2.18918
-3.10674
-4.06886
-5.09249
-6.19875
-7.41513
-8.77933
-10.3459
-12.1984
-14.4744
-17.4179
-21.4912
-27.5629
-11.2671
-25.7537
-24.339
-20.7847
-17.4836
-14.7167
-12.4001
-10.418
-8.67833
-7.11425
-5.6775
-4.33257
-3.05232
-1.81504
-0.602347
-111.055
-57.8941
-37.3565
-27.2132
-21.167
-17.0569
-13.9943
-11.5548
-9.51167
-7.73241
-6.13406
-4.66115
-3.27426
-1.94346
-0.644397
-123.477
-67.3793
-43.1556
-30.7966
-23.5057
-18.6697
-15.1558
-12.4165
-10.1617
-8.22494
-6.5035
-4.93
-3.45724
-2.04985
-0.679311
-67.8242
-54.7298
-40.7153
-30.8605
-24.1396
-19.3645
-15.7792
-12.9417
-10.591
-8.56793
-6.7702
-5.1289
-3.59483
-2.13064
-0.705951
-47.8718
-42.7194
-35.3861
-28.7482
-23.4223
-19.233
-15.8835
-13.1287
-10.7928
-8.7544
-6.92827
-5.25333
-3.68389
-2.184
-0.723712
-30.3924
-32.2234
-29.5741
-25.7249
-21.9156
-18.5182
-15.5748
-13.0246
-10.7882
-8.79343
-6.98134
-5.30451
-3.72464
-2.20986
-0.732541
-22.4153
-24.8388
-24.5952
-22.6739
-20.1228
-17.4882
-14.9931
-12.7028
-10.6156
-8.70562
-6.94047
-5.28836
-3.72019
-2.20969
-0.732875
-12.4498
-19.3063
-20.7815
-20.0602
-18.3879
-16.3614
-14.2693
-12.2398
-10.32
-8.51724
-6.82111
-5.21392
-3.67568
-2.18614
-0.725522
-15.0141
-17.5109
-18.4931
-18.107
-16.899
-15.2802
-13.5018
-11.7007
-9.94309
-8.2548
-6.63998
-5.09161
-3.59735
-2.14251
-0.711517
-15.6653
-16.7672
-17.1548
-16.7247
-15.6952
-14.3098
-12.7502
-11.1314
-9.51802
-7.94135
-6.4127
-4.93171
-3.49164
-2.08233
-0.691981
-16.2766
-16.5197
-16.3842
-15.7587
-14.7386