/*--------------------------------*- C++ -*----------------------------------*\
| =========                 |                                                 |
| \\      /  F ield         | OpenFOAM: The Open Source CFD Toolbox           |
|  \\    /   O peration     | Version:  5.x                                   |
|   \\  /    A nd           | Web:      www.OpenFOAM.org                      |
|    \\/     M anipulation  |                                                 |
\*---------------------------------------------------------------------------*/
FoamFile
{
    version     2.0;
    format      ascii;
    class       volScalarField;
    location    "13.7001";
    object      T;
}
// * * * * * * * * * * * * * * * * * * * * * * * * * * * * * * * * * * * * * //

dimensions      [0 0 0 1 0 0 0];

internalField   nonuniform List<scalar> 
6300
(
322.84
322.521
322.2
321.878
321.553
321.226
320.894
320.558
320.218
319.872
319.521
319.164
318.801
318.432
318.057
322.841
322.522
322.202
321.881
321.557
321.229
320.898
320.563
320.223
319.878
319.527
319.17
318.807
318.438
318.063
322.842
322.524
322.206
321.885
321.563
321.237
320.907
320.573
320.233
319.889
319.538
319.182
318.819
318.449
318.074
322.843
322.527
322.211
321.893
321.572
321.248
320.92
320.587
320.249
319.906
319.556
319.2
318.837
318.467
318.091
322.844
322.532
322.218
321.903
321.585
321.263
320.938
320.607
320.271
319.929
319.58
319.225
318.862
318.492
318.115
322.846
322.537
322.227
321.916
321.601
321.283
320.96
320.633
320.299
319.959
319.612
319.257
318.894
318.523
318.145
322.848
322.544
322.238
321.931
321.621
321.307
320.988
320.664
320.333
319.996
319.65
319.297
318.934
318.563
318.183
322.851
322.552
322.252
321.949
321.644
321.335
321.021
320.701
320.375
320.04
319.698
319.345
318.983
318.611
318.228
322.854
322.561
322.267
321.971
321.671
321.368
321.06
320.745
320.424
320.094
319.754
319.404
319.042
318.668
318.283
322.857
322.571
322.284
321.995
321.703
321.406
321.105
320.797
320.481
320.157
319.822
319.474
319.114
318.738
318.348
322.861
322.583
322.304
322.023
321.738
321.45
321.156
320.856
320.548
320.23
319.901
319.558
319.199
318.823
318.428
322.866
322.596
322.326
322.053
321.778
321.498
321.214
320.923
320.624
320.315
319.994
319.657
319.303
318.927
318.527
322.87
322.61
322.349
322.086
321.821
321.552
321.278
320.998
320.711
320.413
320.102
319.775
319.427
319.054
318.652
322.875
322.625
322.375
322.123
321.868
321.61
321.349
321.081
320.807
320.523
320.227
319.913
319.576
319.211
318.813
322.881
322.642
322.402
322.161
321.918
321.673
321.424
321.172
320.913
320.646
320.368
320.074
319.754
319.401
319.011
317.708
317.387
317.063
316.735
316.404
316.071
315.734
315.395
315.054
314.711
314.366
314.019
313.671
313.322
312.972
312.621
312.271
311.919
311.568
311.217
310.867
310.516
310.167
309.817
309.468
309.12
308.772
308.424
308.077
307.731
307.386
307.041
306.698
306.355
306.014
305.673
305.334
304.996
304.658
304.322
303.986
303.652
303.318
302.986
302.654
302.323
301.994
301.665
301.338
301.012
300.687
300.363
300.04
299.719
299.398
299.078
298.759
298.441
298.124
297.807
297.492
297.178
296.864
296.552
296.24
295.93
295.621
295.312
295.004
294.698
294.391
294.086
293.781
293.477
293.173
292.87
292.568
292.266
291.964
291.664
291.363
291.063
290.763
290.462
290.162
289.86
289.559
289.256
288.952
288.648
317.714
317.392
317.068
316.74
316.409
316.074
315.738
315.398
315.057
314.713
314.368
314.021
313.673
313.323
312.973
312.622
312.271
311.919
311.568
311.217
310.866
310.516
310.166
309.816
309.467
309.119
308.771
308.423
308.076
307.73
307.384
307.04
306.696
306.354
306.012
305.672
305.332
304.994
304.657
304.321
303.985
303.651
303.317
302.984
302.653
302.322
301.992
301.664
301.336
301.01
300.685
300.362
300.039
299.717
299.396
299.077
298.758
298.44
298.122
297.806
297.491
297.176
296.863
296.55
296.239
295.929
295.619
295.311
295.003
294.696
294.39
294.085
293.78
293.476
293.172
292.869
292.567
292.265
291.964
291.663
291.363
291.063
290.763
290.463
290.162
289.861
289.56
289.257
288.954
288.649
317.724
317.403
317.077
316.749
316.417
316.082
315.745
315.405
315.063
314.719
314.373
314.025
313.676
313.326
312.975
312.623
312.271
311.919
311.568
311.216
310.865
310.515
310.165
309.815
309.466
309.117
308.769
308.421
308.074
307.728
307.382
307.037
306.693
306.35
306.009
305.669
305.329
304.991
304.654
304.318
303.983
303.648
303.314
302.982
302.65
302.319
301.989
301.66
301.333
301.007
300.682
300.358
300.036
299.714
299.394
299.074
298.755
298.437
298.12
297.803
297.488
297.173
296.86
296.547
296.236
295.926
295.617
295.308
295.001
294.694
294.388
294.083
293.778
293.474
293.17
292.867
292.565
292.263
291.962
291.662
291.362
291.062
290.763
290.464
290.164
289.864
289.562
289.26
288.957
288.652
317.741
317.418
317.092
316.762
316.429
316.094
315.755
315.415
315.071
314.726
314.379
314.031
313.681
313.329
312.977
312.625
312.272
311.919
311.567
311.215
310.863
310.513
310.163
309.813
309.464
309.115
308.767
308.419
308.071
307.724
307.378
307.033
306.689
306.346
306.004
305.664
305.325
304.987
304.65
304.314
303.979
303.644
303.311
302.978
302.645
302.314
301.984
301.655
301.328
301.002
300.677
300.354
300.031
299.71
299.39
299.07
298.752
298.433
298.116
297.799
297.484
297.169
296.855
296.543
296.232
295.922
295.613
295.305
294.998
294.691
294.386
294.081
293.776
293.472
293.168
292.865
292.562
292.261
291.96
291.66
291.361
291.062
290.764
290.465
290.166
289.867
289.566
289.264
288.961
288.656
317.763
317.439
317.112
316.78
316.446
316.109
315.769
315.427
315.083
314.737
314.389
314.039
313.687
313.334
312.981
312.626
312.272
311.918
311.565
311.212
310.861
310.51
310.16
309.811
309.462
309.113
308.764
308.416
308.068
307.72
307.373
307.027
306.682
306.339
305.997
305.657
305.318
304.981
304.644
304.309
303.974
303.64
303.306
302.972
302.64
302.308
301.977
301.648
301.321
300.995
300.67
300.347
300.025
299.705
299.385
299.066
298.747
298.429
298.111
297.794
297.478
297.163
296.849
296.536
296.225
295.916
295.607
295.3
294.993
294.688
294.382
294.077
293.773
293.468
293.164
292.861
292.558
292.257
291.956
291.657
291.359
291.061
290.764
290.467
290.17
289.871
289.572
289.271
288.968
288.663
317.792
317.466
317.136
316.803
316.467
316.128
315.787
315.444
315.098
314.751
314.401
314.049
313.696
313.341
312.985
312.628
312.272
311.916
311.562
311.209
310.857
310.506
310.156
309.807
309.459
309.11
308.761
308.412
308.063
307.714
307.366
307.019
306.674
306.33
305.988
305.648
305.31
304.974
304.638
304.303
303.968
303.634
303.3
302.966
302.632
302.3
301.969
301.639
301.311
300.985
300.661
300.339
300.018
299.698
299.379
299.06
298.742
298.423
298.105
297.788
297.471
297.155
296.841
296.528
296.217
295.908
295.6
295.294
294.988
294.683
294.378
294.074
293.769
293.464
293.16
292.856
292.553
292.252
291.951
291.653
291.356
291.06
290.765
290.47
290.174
289.878
289.58
289.28
288.977
288.672
317.827
317.498
317.166
316.83
316.491
316.15
315.807
315.463
315.116
314.767
314.416
314.062
313.706
313.348
312.989
312.63
312.271
311.913
311.557
311.203
310.851
310.501
310.152
309.804
309.456
309.107
308.758
308.409
308.058
307.708
307.358
307.009
306.663
306.318
305.977
305.637
305.3
304.965
304.63
304.296
303.963
303.628
303.294
302.959
302.624
302.29
301.958
301.627
301.299
300.973
300.65
300.328
300.009
299.69
299.373
299.055
298.736
298.418
298.099
297.78
297.462
297.145
296.83
296.517
296.206
295.898
295.591
295.286
294.982
294.678
294.374
294.07
293.765
293.46
293.154
292.85
292.546
292.244
291.944
291.646
291.351
291.057
290.765
290.473
290.18
289.887
289.591
289.293
288.991
288.685
317.869
317.537
317.2
316.861
316.519
316.175
315.831
315.485
315.137
314.787
314.434
314.078
313.719
313.358
312.994
312.631
312.268
311.907
311.549
311.194
310.843
310.494
310.146
309.8
309.454
309.106
308.757
308.406
308.054
307.701
307.348
306.997
306.648
306.303
305.961
305.623
305.288
304.954
304.622
304.29
303.957
303.623
303.288
302.951
302.615
302.278
301.944
301.612
301.283
300.957
300.635
300.316
299.998
299.682
299.366
299.049
298.732
298.412
298.092
297.772
297.451
297.133
296.816
296.503
296.192
295.885
295.58
295.278
294.976
294.674
294.371
294.067
293.762
293.455
293.148
292.842
292.537
292.234
291.934
291.637
291.343
291.053
290.764
290.476
290.188
289.899
289.606
289.31
289.009
288.703
317.919
317.581
317.239
316.894
316.548
316.202
315.856
315.509
315.161
314.811
314.457
314.099
313.736
313.369
313
312.63
312.262
311.897
311.537
311.181
310.831
310.484
310.14
309.797
309.453
309.107
308.757
308.405
308.05
307.693
307.336
306.981
306.629
306.283
305.941
305.604
305.272
304.942
304.613
304.284
303.953
303.62
303.284
302.945
302.604
302.264
301.926
301.592
301.262
300.937
300.616
300.3
299.986
299.674
299.361
299.046
298.729
298.409
298.086
297.762
297.439
297.117
296.798
296.484
296.174
295.869
295.567
295.268
294.969
294.67
294.369
294.066
293.76
293.452
293.142
292.832
292.524
292.219
291.919
291.623
291.332
291.045
290.762
290.48
290.198
289.915
289.627
289.335
289.035
288.728
317.978
317.633
317.283
316.93
316.578
316.228
315.881
315.536
315.19
314.84
314.486
314.126
313.758
313.385
313.007
312.628
312.252
311.881
311.517
311.161
310.813
310.471
310.132
309.794
309.455
309.112
308.763
308.408
308.049
307.685
307.321
306.96
306.603
306.255
305.914
305.58
305.252
304.928
304.605
304.281
303.954
303.621
303.283
302.94
302.594
302.248
301.904
301.565
301.233
300.909
300.592
300.281
299.972
299.666
299.357
299.046
298.73
298.408
298.082
297.753
297.423
297.096
296.774
296.458
296.149
295.847
295.55
295.256
294.963
294.669
294.371
294.069
293.762
293.45
293.135
292.819
292.506
292.198
291.896
291.602
291.315
291.034
290.757
290.484
290.211
289.936
289.656
289.369
289.072
288.764
318.049
317.693
317.329
316.965
316.605
316.251
315.905
315.563
315.222
314.877
314.525
314.162
313.789
313.406
313.015
312.622
312.233
311.854
311.486
311.13
310.787
310.452
310.122
309.794
309.463
309.124
308.777
308.419
308.052
307.678
307.302
306.93
306.567
306.215
305.876
305.547
305.227
304.913
304.599
304.283
303.961
303.63
303.289
302.94
302.584
302.227
301.873
301.528
301.194
300.872
300.56
300.256
299.957
299.659
299.359
299.053
298.738
298.415
298.083
297.744
297.405
297.069
296.74
296.422
296.115
295.818
295.528
295.244
294.96
294.673
294.38
294.08
293.77
293.453
293.129
292.804
292.482
292.168
291.864
291.571
291.288
291.015
290.749
290.486
290.226
289.963
289.696
289.419
289.126
288.816
318.137
317.763
317.377
316.993
316.621
316.264
315.922
315.59
315.26
314.924
314.577
314.215
313.835
313.438
313.027
312.611
312.202
311.809
311.436
311.083
310.747
310.425
310.111
309.799
309.48
309.151
308.806
308.444
308.066
307.675
307.278
306.889
306.514
306.159
305.822
305.502
305.195
304.896
304.598
304.294
303.98
303.652
303.308
302.949
302.577
302.2
301.831
301.476
301.139
300.819
300.516
300.224
299.94
299.657
299.369
299.071
298.759
298.433
298.092
297.739
297.381
297.03
296.692
296.371
296.067
295.778
295.5
295.23
294.96
294.685
294.4
294.103
293.791
293.464
293.126
292.783
292.446
292.122
291.815
291.524
291.249
290.987
290.734
290.487
290.243
289.999
289.75
289.489
289.206
288.894
318.251
317.852
317.42
317.005
316.614
316.257
315.925
315.613
315.305
314.987
314.652
314.292
313.907
313.49
313.048
312.587
312.148
311.736
311.359
311.01
310.689
310.386
310.099
309.812
309.513
309.198
308.858
308.494
308.098
307.679
307.242
306.825
306.434
306.076
305.744
305.438
305.15
304.877
304.604
304.32
304.02
303.697
303.351
302.975
302.577
302.163
301.768
301.398
301.059
300.744
300.454
300.181
299.922
299.663
299.393
299.109
298.802
298.474
298.117
297.74
297.346
296.971
296.619
296.297
295.997
295.721
295.462
295.214
294.968
294.711
294.439
294.146
293.832
293.491
293.13
292.752
292.392
292.053
291.743
291.456
291.191
290.944
290.711
290.485
290.259
290.041
289.823
289.591
289.327
289.014
318.416
317.988
317.441
316.981
316.56
316.214
315.898
315.63
315.368
315.072
314.764
314.405
314.026
313.576
313.096
312.532
312.055
311.612
311.243
310.897
310.603
310.326
310.084
309.844
309.57
309.282
308.945
308.589
308.163
307.71
307.176
306.725
306.306
305.956
305.628
305.349
305.086
304.856
304.628
304.367
304.094
303.774
303.435
303.032
302.602
302.098
301.671
301.274
300.943
300.632
300.369
300.119
299.902
299.685
299.438
299.179
298.876
298.555
298.172
297.765
297.286
296.88
296.503
296.188
295.893
295.642
295.405
295.198
294.992
294.756
294.509
294.22
293.914
293.548
293.157
292.697
292.307
291.943
291.639
291.353
291.11
290.879
290.679
290.482
290.264
290.082
289.915
289.739
289.52
289.217
318.679
318.298
317.34
316.903
316.394
316.13
315.802
315.637
315.478
315.175
314.949
314.546
314.249
313.704
313.265
312.351
311.915
311.381
311.093
310.707
310.494
310.214
310.068
309.924
309.647
309.437
309.061
308.782
308.269
307.855
306.992
306.581
306.077
305.805
305.44
305.238
304.972
304.834
304.697
304.434
304.235
303.878
303.614
303.127
302.735
301.92
301.531
301.055
300.798
300.453
300.262
300.011
299.881
299.751
299.501
299.313
298.975
298.724
298.264
297.892
297.118
296.749
296.297
296.053
295.725
295.543
295.304
295.18
295.057
294.819
294.64
294.319
294.08
293.641
293.284
292.541
292.185
291.747
291.509
291.188
291.009
290.77
290.644
290.509
290.22
290.099
290.023
289.946
289.835
289.607
288.312
287.945
287.576
287.207
286.838
286.468
286.1
285.732
285.365
284.999
284.633
284.269
283.906
283.543
283.181
288.313
287.945
287.577
287.207
286.838
286.468
286.099
285.731
285.364
284.998
284.633
284.269
283.905
283.543
283.181
288.316
287.947
287.578
287.208
286.837
286.467
286.098
285.729
285.362
284.995
284.631
284.267
283.904
283.542
283.181
288.32
287.95
287.58
287.208
286.837
286.465
286.095
285.726
285.358
284.992
284.627
284.264
283.902
283.541
283.18
288.325
287.955
287.582
287.209
286.836
286.463
286.091
285.721
285.353
284.987
284.623
284.26
283.899
283.539
283.18
288.333
287.961
287.586
287.21
286.834
286.459
286.086
285.715
285.346
284.98
284.617
284.255
283.895
283.537
283.179
288.345
287.969
287.591
287.211
286.832
286.454
286.078
285.706
285.337
284.971
284.608
284.248
283.89
283.533
283.178
288.36
287.981
287.597
287.212
286.828
286.446
286.068
285.694
285.324
284.959
284.597
284.239
283.883
283.529
283.176
288.382
287.996
287.604
287.212
286.821
286.434
286.053
285.678
285.308
284.943
284.583
284.227
283.875
283.524
283.174
288.412
288.016
287.613
287.21
286.811
286.418
286.033
285.655
285.286
284.923
284.565
284.213
283.864
283.517
283.172
288.455
288.043
287.623
287.204
286.793
286.393
286.004
285.626
285.257
284.896
284.543
284.194
283.85
283.509
283.169
288.517
288.077
287.63
287.191
286.766
286.357
285.965
285.586
285.22
284.863
284.515
284.172
283.834
283.499
283.166
288.607
288.119
287.631
287.163
286.721
286.305
285.911
285.535
285.173
284.822
284.48
284.145
283.815
283.487
283.162
288.742
288.162
287.61
287.108
286.651
286.232
285.84
285.47
285.115
284.773
284.44
284.113
283.792
283.474
283.158
288.937
288.178
287.54
287.007
286.545
286.13
285.748
285.388
285.045
284.714
284.392
284.076
283.766
283.458
283.153
322.886
322.657
322.428
322.198
321.966
321.733
321.498
321.26
321.018
320.77
320.513
320.244
319.95
319.608
319.17
322.89
322.671
322.452
322.232
322.011
321.79
321.567
321.343
321.117
320.888
320.655
320.415
320.161
319.866
319.43
322.895
322.686
322.476
322.266
322.057
321.847
321.637
321.427
321.217
321.009
320.801
320.597
320.399
320.226
320.166
322.9
322.7
322.501
322.301
322.102
321.904
321.707
321.511
321.318
321.128
320.945
320.773
320.622
320.509
320.467
322.905
322.715
322.525
322.336
322.147
321.96
321.775
321.593
321.415
321.244
321.082
320.936
320.816
320.744
320.764
322.91
322.729
322.549
322.369
322.192
322.015
321.842
321.673
321.509
321.352
321.207
321.08
320.978
320.916
320.901
322.914
322.743
322.572
322.402
322.234
322.069
321.906
321.748
321.596
321.453
321.321
321.205
321.113
321.054
321.046
322.919
322.756
322.595
322.434
322.276
322.12
321.967
321.82
321.678
321.545
321.423
321.315
321.224
321.156
321.112
322.923
322.769
322.616
322.465
322.315
322.168
322.025
321.887
321.755
321.63
321.515
321.411
321.321
321.242
321.164
322.927
322.781
322.637
322.494
322.352
322.214
322.08
321.95
321.826
321.709
321.6
321.499
321.409
321.326
321.253
322.931
322.793
322.656
322.521
322.388
322.258
322.131
322.009
321.892
321.781
321.678
321.581
321.491
321.404
321.312
322.935
322.804
322.675
322.547
322.421
322.298
322.179
322.064
321.954
321.85
321.751
321.658
321.57
321.486
321.406
322.938
322.815
322.692
322.572
322.453
322.337
322.224
322.116
322.012
321.913
321.82
321.732
321.648
321.563
321.469
322.942
322.825
322.709
322.595
322.482
322.373
322.267
322.164
322.066
321.974
321.886
321.804
321.725
321.648
321.573
322.945
322.834
322.724
322.616
322.51
322.406
322.306
322.21
322.117
322.03
321.948
321.872
321.801
321.732
321.65
322.948
322.843
322.739
322.636
322.536
322.438
322.343
322.252
322.165
322.083
322.007
321.937
321.875
321.824
321.8
322.95
322.851
322.752
322.655
322.56
322.467
322.377
322.291
322.209
322.132
322.061
321.997
321.942
321.898
321.868
322.953
322.858
322.765
322.673
322.582
322.494
322.409
322.327
322.25
322.177
322.11
322.051
322
321.962
321.944
322.955
322.866
322.777
322.689
322.603
322.519
322.438
322.361
322.287
322.218
322.155
322.098
322.05
322.011
321.983
322.957
322.872
322.788
322.704
322.622
322.543
322.465
322.391
322.321
322.255
322.194
322.139
322.092
322.054
322.029
322.959
322.878
322.798
322.718
322.64
322.564
322.49
322.42
322.352
322.288
322.229
322.176
322.128
322.088
322.054
322.961
322.884
322.807
322.731
322.657
322.584
322.513
322.445
322.38
322.319
322.261
322.208
322.16
322.117
322.083
322.963
322.889
322.816
322.743
322.672
322.602
322.534
322.469
322.406
322.346
322.29
322.236
322.187
322.141
322.098
322.965
322.894
322.824
322.754
322.686
322.619
322.554
322.491
322.43
322.372
322.316
322.263
322.212
322.162
322.11
322.966
322.898
322.831
322.764
322.699
322.635
322.572
322.511
322.452
322.395
322.34
322.287
322.235
322.184
322.134
322.967
322.903
322.838
322.774
322.711
322.649
322.589
322.53
322.473
322.417
322.363
322.311
322.259
322.206
322.15
322.969
322.906
322.844
322.783
322.723
322.663
322.605
322.548
322.492
322.438
322.386
322.334
322.282
322.23
322.178
322.97
322.91
322.85
322.791
322.733
322.676
322.62
322.565
322.511
322.459
322.407
322.357
322.306
322.255
322.198
322.971
322.913
322.856
322.799
322.743
322.688
322.634
322.581
322.529
322.478
322.429
322.38
322.331
322.282
322.232
322.972
322.917
322.861
322.807
322.753
322.699
322.647
322.596
322.546
322.497
322.449
322.402
322.357
322.311
322.259
322.973
322.92
322.866
322.814
322.761
322.71
322.659
322.61
322.562
322.515
322.469
322.425
322.382
322.343
322.312
322.974
322.923
322.871
322.82
322.77
322.72
322.671
322.623
322.577
322.531
322.488
322.446
322.406
322.37
322.337
322.975
322.925
322.876
322.826
322.778
322.73
322.682
322.636
322.591
322.547
322.505
322.465
322.427
322.393
322.367
322.976
322.928
322.88
322.832
322.785
322.738
322.693
322.648
322.604
322.562
322.521
322.482
322.446
322.412
322.382
322.977
322.93
322.884
322.837
322.792
322.747
322.702
322.659
322.617
322.575
322.536
322.498
322.462
322.429
322.402
322.977
322.932
322.887
322.843
322.798
322.755
322.712
322.669
322.628
322.588
322.549
322.512
322.476
322.443
322.412
322.978
322.934
322.891
322.847
322.804
322.762
322.72
322.679
322.639
322.6
322.561
322.524
322.489
322.456
322.425
322.979
322.936
322.894
322.852
322.81
322.769
322.728
322.688
322.649
322.61
322.573
322.536
322.5
322.466
322.432
322.979
322.938
322.897
322.856
322.816
322.776
322.736
322.697
322.659
322.621
322.584
322.547
322.511
322.475
322.438
322.98
322.94
322.9
322.86
322.821
322.782
322.743
322.705
322.668
322.631
322.594
322.558
322.522
322.486
322.449
322.98
322.942
322.903
322.864
322.826
322.788
322.75
322.713
322.676
322.64
322.604
322.569
322.533
322.496
322.457
322.981
322.943
322.905
322.868
322.83
322.793
322.757
322.72
322.685
322.649
322.614
322.579
322.544
322.508
322.472
322.981
322.945
322.908
322.871
322.835
322.799
322.763
322.728
322.693
322.658
322.624
322.59
322.556
322.52
322.482
322.982
322.946
322.91
322.874
322.839
322.804
322.769
322.735
322.701
322.667
322.634
322.601
322.568
322.535
322.501
322.982
322.947
322.912
322.877
322.843
322.809
322.775
322.741
322.708
322.676
322.644
322.612
322.581
322.55
322.515
322.983
322.948
322.914
322.88
322.846
322.813
322.78
322.748
322.716
322.684
322.653
322.623
322.594
322.567
322.544
322.983
322.95
322.916
322.883
322.85
322.817
322.785
322.753
322.722
322.692
322.662
322.634
322.606
322.581
322.557
322.984
322.951
322.918
322.885
322.853
322.821
322.79
322.759
322.729
322.699
322.671
322.643
322.617
322.593
322.573
322.984
322.952
322.92
322.888
322.856
322.825
322.794
322.764
322.735
322.706
322.678
322.652
322.627
322.603
322.582
322.984
322.953
322.921
322.89
322.859
322.828
322.798
322.769
322.74
322.712
322.685
322.659
322.635
322.612
322.592
322.984
322.953
322.922
322.892
322.861
322.831
322.802
322.773
322.745
322.717
322.691
322.665
322.641
322.619
322.598
322.985
322.954
322.923
322.893
322.863
322.834
322.805
322.776
322.749
322.722
322.696
322.671
322.647
322.625
322.604
322.985
322.955
322.924
322.895
322.865
322.836
322.807
322.78
322.752
322.726
322.7
322.676
322.652
322.629
322.607
322.985
322.955
322.925
322.896
322.867
322.838
322.81
322.782
322.755
322.729
322.704
322.68
322.656
322.633
322.61
322.985
322.955
322.926
322.897
322.868
322.839
322.812
322.784
322.758
322.732
322.707
322.683
322.66
322.637
322.615
322.985
322.956
322.926
322.897
322.869
322.841
322.813
322.786
322.76
322.734
322.71
322.686
322.663
322.641
322.618
322.985
322.956
322.927
322.898
322.869
322.841
322.814
322.787
322.761
322.736
322.712
322.688
322.666
322.644
322.623
322.985
322.956
322.927
322.898
322.869
322.842
322.814
322.788
322.762
322.737
322.713
322.69
322.668
322.647
322.626
322.985
322.956
322.927
322.898
322.869
322.841
322.814
322.788
322.762
322.738
322.714
322.691
322.67
322.649
322.63
322.985
322.956
322.926
322.897
322.869
322.841
322.814
322.787
322.762
322.737
322.714
322.692
322.671
322.651
322.632
322.985
322.955
322.926
322.896
322.868
322.84
322.812
322.786
322.761
322.736
322.713
322.692
322.671
322.652
322.635
322.985
322.955
322.925
322.895
322.866
322.838
322.81
322.784
322.759
322.735
322.712
322.69
322.67
322.652
322.635
322.985
322.954
322.924
322.894
322.864
322.836
322.808
322.781
322.756
322.732
322.709
322.688
322.668
322.65
322.634
322.984
322.953
322.922
322.892
322.862
322.833
322.805
322.778
322.752
322.728
322.706
322.685
322.665
322.648
322.632
322.984
322.952
322.92
322.889
322.859
322.829
322.801
322.773
322.748
322.723
322.701
322.68
322.661
322.644
322.628
322.984
322.951
322.918
322.886
322.855
322.825
322.796
322.768
322.742
322.717
322.695
322.674
322.656
322.639
322.624
322.983
322.949
322.916
322.883
322.851
322.82
322.79
322.761
322.735
322.71
322.688
322.667
322.649
322.633
322.619
322.982
322.947
322.913
322.879
322.846
322.814
322.783
322.754
322.727
322.701
322.679
322.659
322.641
322.627
322.615
322.982
322.945
322.909
322.874
322.84
322.807
322.775
322.745
322.717
322.691
322.668
322.648
322.631
322.618
322.61
322.981
322.943
322.906
322.869
322.833
322.798
322.765
322.734
322.705
322.679
322.655
322.635
322.619
322.606
322.598
322.98
322.941
322.901
322.863
322.826
322.789
322.755
322.722
322.692
322.665
322.64
322.619
322.603
322.592
322.588
322.979
322.938
322.897
322.856
322.817
322.779
322.743
322.709
322.677
322.648
322.622
322.601
322.584
322.573
322.567
322.978
322.934
322.891
322.849
322.808
322.768
322.73
322.694
322.66
322.629
322.602
322.579
322.561
322.549
322.549
322.977
322.931
322.885
322.841
322.797
322.755
322.715
322.677
322.641
322.608
322.579
322.553
322.533
322.518
322.512
322.976
322.927
322.879
322.832
322.786
322.741
322.699
322.658
322.62
322.585
322.553
322.524
322.5
322.482
322.478
322.974
322.923
322.872
322.822
322.773
322.726
322.681
322.638
322.597
322.56
322.525
322.493
322.463
322.435
322.401
322.973
322.918
322.864
322.811
322.76
322.71
322.662
322.616
322.573
322.532
322.494
322.459
322.425
322.393
322.362
322.971
322.913
322.856
322.8
322.745
322.692
322.641
322.592
322.546
322.503
322.462
322.424
322.387
322.35
322.307
322.969
322.908
322.847
322.787
322.729
322.673
322.618
322.567
322.518
322.472
322.428
322.388
322.348
322.31
322.274
322.967
322.902
322.837
322.774
322.712
322.652
322.594
322.539
322.487
322.439
322.393
322.35
322.309
322.269
322.225
322.965
322.896
322.827
322.759
322.693
322.629
322.568
322.51
322.455
322.403
322.356
322.311
322.27
322.231
322.195
322.963
322.889
322.816
322.744
322.673
322.605
322.54
322.478
322.42
322.366
322.316
322.271
322.229
322.19
322.149
322.96
322.882
322.803
322.727
322.652
322.579
322.509
322.443
322.382
322.325
322.273
322.227
322.187
322.152
322.123
322.958
322.874
322.79
322.708
322.628
322.551
322.476
322.406
322.34
322.28
322.227
322.18
322.14
322.108
322.091
322.955
322.865
322.777
322.689
322.603
322.52
322.441
322.365
322.295
322.231
322.175
322.127
322.088
322.055
322.016
322.952
322.857
322.762
322.668
322.577
322.487
322.402
322.321
322.245
322.177
322.118
322.069
322.032
322.006
321.984
322.949
322.847
322.746
322.646
322.548
322.452
322.36
322.272
322.191
322.117
322.053
322.003
321.969
321.955
321.96
322.946
322.837
322.729
322.623
322.518
322.415
322.315
322.22
322.13
322.049
321.979
321.924
321.892
321.891
321.93
322.942
322.827
322.712
322.598
322.486
322.375
322.267
322.163
322.065
321.974
321.894
321.831
321.793
321.8
321.878
322.939
322.816
322.694
322.573
322.452
322.333
322.217
322.103
321.994
321.891
321.797
321.719
321.665
321.658
321.758
289.142
288.08
287.381
286.849
286.403
286.007
285.642
285.298
284.97
284.652
284.342
284.038
283.739
283.442
283.147
288.768
287.74
287.12
286.646
286.24
285.874
285.531
285.206
284.894
284.59
284.293
284.001
283.712
283.426
283.142
287.291
287.115
286.759
286.396
286.051
285.723
285.409
285.106
284.811
284.523
284.24
283.961
283.684
283.41
283.136
286.71
286.617
286.401
286.133
285.849
285.562
285.279
284.999
284.724
284.453
284.184
283.919
283.655
283.392
283.131
286.16
286.203
286.08
285.881
285.648
285.4
285.146
284.89
284.635
284.38
284.127
283.875
283.624
283.374
283.125
285.912
285.905
285.811
285.654
285.458
285.242
285.014
284.781
284.544
284.307
284.069
283.831
283.593
283.356
283.119
285.654
285.666
285.587
285.453
285.283
285.091
284.886
284.673
284.455
284.234
284.011
283.787
283.562
283.337
283.113
285.538
285.491
285.401
285.276
285.123
284.95
284.764
284.569
284.367
284.162
283.953
283.743
283.531
283.319
283.106
285.446
285.344
285.241
285.118
284.977
284.819
284.648
284.469
284.283
284.092
283.897
283.7
283.501
283.301
283.1
285.288
285.199
285.093
284.974
284.841
284.696
284.539
284.374
284.202
284.024
283.843
283.658
283.471
283.283
283.095
285.185
285.065
284.955
284.84
284.715
284.58
284.436
284.283
284.124
283.959
283.79
283.618
283.443
283.266
283.089
285.017
284.924
284.82
284.712
284.596
284.471
284.339
284.198
284.051
283.898
283.74
283.579
283.415
283.25
283.083
284.908
284.789
284.689
284.588
284.482
284.368
284.246
284.117
283.981
283.839
283.692
283.542
283.389
283.234
283.078
284.723
284.643
284.558
284.469
284.374
284.271
284.16
284.041
283.915
283.783
283.647
283.507
283.364
283.219
283.073
284.589
284.499
284.429
284.355
284.272
284.179
284.078
283.969
283.853
283.731
283.605
283.474
283.341
283.205
283.069
284.33
284.341
284.304
284.247
284.176
284.094
284.002
283.902
283.795
283.683
283.565
283.443
283.319
283.192
283.064
284.214
284.216
284.193
284.148
284.088
284.015
283.932
283.84
283.742
283.637
283.528
283.414
283.298
283.18
283.06
284.087
284.11
284.096
284.06
284.008
283.943
283.867
283.783
283.692
283.595
283.493
283.388
283.279
283.168
283.056
284.024
284.029
284.016
283.984
283.937
283.878
283.809
283.731
283.647
283.557
283.462
283.363
283.261
283.158
283.053
283.949
283.96
283.948
283.918
283.875
283.82
283.756
283.684
283.605
283.521
283.432
283.34
283.245
283.148
283.049
283.912
283.908
283.891
283.862
283.82
283.769
283.709
283.642
283.568
283.489
283.406
283.319
283.23
283.139
283.046
283.868
283.864
283.844
283.813
283.773
283.724
283.667
283.603
283.534
283.46
283.382
283.3
283.216
283.13
283.044
283.848
283.83
283.805
283.772
283.732
283.684
283.629
283.569
283.504
283.434
283.36
283.283
283.204
283.123
283.041
283.831
283.801
283.771
283.736
283.695
283.648
283.596
283.539
283.476
283.41
283.34
283.267
283.193
283.116
283.039
283.802
283.773
283.74
283.704
283.663
283.617
283.566
283.511
283.452
283.389
283.322
283.253
283.182
283.11
283.037
283.783
283.747
283.712
283.675
283.634
283.589
283.54
283.487
283.43
283.37
283.306
283.241
283.173
283.105
283.035
283.753
283.721
283.686
283.649
283.608
283.564
283.516
283.465
283.41
283.352
283.292
283.23
283.165
283.1
283.033
283.734
283.697
283.661
283.624
283.584
283.541
283.495
283.445
283.393
283.337
283.279
283.219
283.158
283.095
283.032
283.703
283.672
283.638
283.602
283.563
283.521
283.476
283.428
283.377
283.324
283.268
283.21
283.151
283.091
283.03
283.682
283.648
283.616
283.581
283.544
283.503
283.459
283.413
283.363
283.312
283.258
283.202
283.146
283.088
283.029
283.644
283.624
283.596
283.563
283.526
283.487
283.444
283.399
283.351
283.301
283.249
283.195
283.141
283.085
283.028
283.627
283.605
283.578
283.547
283.511
283.473
283.431
283.387
283.341
283.292
283.241
283.189
283.136
283.082
283.027
283.611
283.591
283.564
283.533
283.499
283.461
283.42
283.377
283.331
283.284
283.235
283.184
283.132
283.08
283.027
283.604
283.58
283.553
283.522
283.488
283.451
283.411
283.368
283.324
283.277
283.229
283.18
283.129
283.078
283.026
283.597
283.573
283.545
283.514
283.48
283.443
283.403
283.361
283.317
283.272
283.224
283.176
283.126
283.076
283.025
283.594
283.568
283.539
283.507
283.473
283.436
283.397
283.356
283.312
283.267
283.221
283.173
283.124
283.075
283.025
283.591
283.564
283.535