/*--------------------------------*- C++ -*----------------------------------*\
| =========                 |                                                 |
| \\      /  F ield         | OpenFOAM: The Open Source CFD Toolbox           |
|  \\    /   O peration     | Version:  5.x                                   |
|   \\  /    A nd           | Web:      www.OpenFOAM.org                      |
|    \\/     M anipulation  |                                                 |
\*---------------------------------------------------------------------------*/
FoamFile
{
    version     2.0;
    format      ascii;
    class       volScalarField;
    location    "12.6";
    object      gradTy;
}
// * * * * * * * * * * * * * * * * * * * * * * * * * * * * * * * * * * * * * //

dimensions      [0 -1 0 1 0 0 0];

internalField   nonuniform List<scalar> 
2048
(
-26.4237
-26.3961
-26.3417
-26.2621
-26.1593
-26.0359
-25.8946
-25.7383
-25.5698
-25.3916
-25.2061
-25.0155
-24.8216
-24.6263
-24.4309
-24.2369
-24.0453
-23.857
-23.6728
-23.4933
-23.3189
-23.15
-22.9868
-22.8295
-22.6785
-22.5339
-22.396
-22.2652
-22.1418
-22.0264
-21.9194
-21.8215
-21.7335
-21.6561
-21.5904
-21.5373
-21.498
-21.4737
-21.4654
-21.4746
-21.5024
-21.5501
-21.619
-21.7101
-21.8245
-21.9629
-22.1257
-22.3129
-22.5237
-22.7567
-23.0097
-23.2793
-23.5613
-23.8505
-24.1406
-24.4253
-24.6977
-24.9511
-25.1796
-25.3778
-25.5412
-25.6667
-25.7515
-25.7944
-26.446
-26.4178
-26.3622
-26.2808
-26.176
-26.0503
-25.9068
-25.7483
-25.5776
-25.3975
-25.2102
-25.0181
-24.8228
-24.6263
-24.4299
-24.2349
-24.0426
-23.8537
-23.669
-23.4891
-23.3145
-23.1453
-22.9819
-22.8245
-22.6733
-22.5285
-22.3903
-22.2592
-22.1354
-22.0195
-21.912
-21.8135
-21.7248
-21.6467
-21.5802
-21.5262
-21.486
-21.4606
-21.4513
-21.4595
-21.4863
-21.533
-21.601
-21.6913
-21.8051
-21.9432
-22.1061
-22.2937
-22.5057
-22.7406
-22.9962
-23.2693
-23.5556
-23.8496
-24.1451
-24.4352
-24.7129
-24.9713
-25.2041
-25.4058
-25.5721
-25.6994
-25.7856
-25.829
-26.4887
-26.4592
-26.4012
-26.3165
-26.2077
-26.0777
-25.9297
-25.7669
-25.5923
-25.4085
-25.218
-25.0228
-24.825
-24.6262
-24.4278
-24.2311
-24.0373
-23.8473
-23.6618
-23.4812
-23.3061
-23.1365
-22.9728
-22.815
-22.6634
-22.5182
-22.3795
-22.2478
-22.1234
-22.0066
-21.8981
-21.7985
-21.7085
-21.629
-21.5608
-21.5052
-21.4631
-21.4359
-21.4247
-21.4309
-21.4557
-21.5006
-21.5668
-21.6556
-21.7682
-21.9056
-22.0685
-22.2571
-22.4711
-22.7095
-22.9701
-23.2499
-23.5442
-23.8477
-24.1534
-24.4542
-24.7422
-25.0101
-25.2511
-25.4595
-25.6309
-25.762
-25.8504
-25.895
-26.55
-26.5186
-26.4569
-26.3673
-26.2526
-26.1163
-25.9619
-25.793
-25.6127
-25.4237
-25.2285
-25.0293
-24.8278
-24.6258
-24.4246
-24.2255
-24.0297
-23.8381
-23.6514
-23.4699
-23.2941
-23.1241
-22.9599
-22.8017
-22.6496
-22.5038
-22.3645
-22.2319
-22.1065
-21.9886
-21.8787
-21.7775
-21.6856
-21.6041
-21.5337
-21.4757
-21.4311
-21.4012
-21.3873
-21.3906
-21.4127
-21.4548
-21.5184
-21.6049
-21.7157
-21.852
-22.0147
-22.2044
-22.4212
-22.6644
-22.932
-23.2211
-23.5271
-23.8442
-24.1649
-24.481
-24.7841
-25.0657
-25.3185
-25.5365
-25.7151
-25.8512
-25.9429
-25.9889
-26.6284
-26.5944
-26.528
-26.4317
-26.3093
-26.1646
-26.002
-25.8252
-25.6376
-25.4421
-25.2412
-25.0369
-24.8309
-24.6248
-24.4201
-24.2181
-24.0198
-23.8263
-23.6381
-23.4556
-23.279
-23.1084
-22.9438
-22.7851
-22.6325
-22.4859
-22.3457
-22.2122
-22.0855
-21.9662
-21.8546
-21.7514
-21.6573
-21.5731
-21.5
-21.4389
-21.3911
-21.3579
-21.3405
-21.3403
-21.3588
-21.3974
-21.4577
-21.5411
-21.6494
-21.784
-21.9462
-22.137
-22.3569
-22.6057
-22.882
-23.1829
-23.5039
-23.8385
-24.1787
-24.5151
-24.8377
-25.137
-25.4049
-25.6349
-25.8225
-25.9647
-26.0601
-26.1079
-26.723
-26.6858
-26.6131
-26.5085
-26.3763
-26.2213
-26.0485
-25.8622
-25.666
-25.463
-25.2554
-25.0451
-24.8339
-24.6231
-24.4143
-24.2088
-24.0077
-23.8119
-23.622
-23.4385
-23.2612
-23.0901
-22.925
-22.7658
-22.6125
-22.4652
-22.324
-22.1893
-22.0613
-21.9403
-21.8268
-21.7212
-21.6244
-21.5372
-21.4607
-21.396
-21.3445
-21.3073
-21.2858
-21.2814
-21.2956
-21.33
-21.3861
-21.4658
-21.5708
-21.703
-21.8641
-22.0556
-22.2787
-22.5338
-22.82
-23.1348
-23.4738
-23.83
-24.1942
-24.5555
-24.9023
-25.2234
-25.5095
-25.7536
-25.9513
-26.1003
-26.1997
-26.2493
-26.8331
-26.7918
-26.7115
-26.5965
-26.4523
-26.285
-26.1001
-25.9028
-25.6968
-25.4853
-25.2703
-25.0535
-24.8365
-24.6205
-24.4071
-24.1975
-23.9932
-23.795
-23.6034
-23.4187
-23.2408
-23.0693
-22.9038
-22.7441
-22.5902
-22.442
-22.2998
-22.1639
-22.0344
-21.9116
-21.7959
-21.6877
-21.5879
-21.4972
-21.4169
-21.3481
-21.2922
-21.2505
-21.2244
-21.2153
-21.2246
-21.254
-21.3053
-21.3803
-21.4813
-21.6102
-21.7695
-21.9612
-22.1871
-22.4486
-22.7455
-23.0761
-23.4359
-23.8176
-24.2106
-24.6019
-24.9777
-25.3246
-25.6317
-25.8917
-26.1003
-26.2562
-26.3595
-26.4108
-26.9584
-26.912
-26.8223
-26.6948
-26.5363
-26.3543
-26.1556
-25.9458
-25.7291
-25.5083
-25.2854
-25.0617
-24.8384
-24.6168
-24.3982
-24.1843
-23.9764
-23.7756
-23.5823
-23.3966
-23.2182
-23.0465
-22.8808
-22.7207
-22.5661
-22.417
-22.2737
-22.1364
-22.0054
-21.8807
-21.7627
-21.6517
-21.5485
-21.454
-21.3694
-21.2961
-21.2354
-21.1887
-21.1575
-21.1431
-21.1469
-21.1707
-21.2164
-21.2861
-21.3821
-21.5069
-21.6634
-21.8543
-22.0824
-22.3499
-22.6581
-23.0058
-23.3892
-23.8003
-24.227
-24.6539
-25.0637
-25.4405
-25.7713
-26.0484
-26.2683
-26.4307
-26.5374
-26.5901
-27.0986
-27.0461
-26.945
-26.8024
-26.627
-26.428
-26.2136
-25.99
-25.7617
-25.5313
-25.3003
-25.0694
-24.8395
-24.6118
-24.3877
-24.169
-23.9573
-23.7536
-23.5587
-23.3723
-23.1937
-23.022
-22.8562
-22.6958
-22.5405
-22.3905
-22.246
-22.1074
-21.9748
-21.8482
-21.7278
-21.6138
-21.5069
-21.4082
-21.319
-21.2407
-21.1748
-21.1228
-21.0861
-21.0659
-21.0638
-21.0815
-21.1209
-21.1843
-21.2745
-21.3941
-21.5466
-21.7356
-21.9648
-22.2377
-22.557
-22.9229
-23.3323
-23.7769
-24.2427
-24.711
-25.1606
-25.5715
-25.9286
-26.2236
-26.4542
-26.6223
-26.7314
-26.7849
-27.254
-27.194
-27.0791
-26.9185
-26.7233
-26.5048
-26.2727
-26.0342
-25.7937
-25.5536
-25.3144
-25.0763
-24.8397
-24.6056
-24.3755
-24.1516
-23.9356
-23.7292
-23.5327
-23.3458
-23.1675
-22.9962
-22.8306
-22.67
-22.514
-22.3629
-22.2172
-22.0773
-21.9431
-21.8147
-21.6918
-21.5746
-21.4639
-21.3606
-21.2663
-21.1827
-21.1113
-21.0537
-21.011
-20.9848
-20.9763
-20.9873
-21.0198
-21.0763
-21.1596
-21.273
-21.4203
-21.6059
-21.8346
-22.1117
-22.4415
-22.8262
-23.2638
-23.7459
-24.2567
-24.7733
-25.2689
-25.7185
-26.1041
-26.4171
-26.6573
-26.8293
-26.9393
-26.9928
-27.4246
-27.3556
-27.2243
-27.0424
-26.824
-26.5833
-26.3317
-26.0772
-25.8243
-25.5745
-25.3275
-25.0824
-24.839
-24.5982
-24.3616
-24.1319
-23.9115
-23.7021
-23.5043
-23.3174
-23.1398
-22.9693
-22.8043
-22.6435
-22.4868
-22.3345
-22.1875
-22.0462
-21.9108
-21.7806
-21.6553
-21.5348
-21.4199
-21.3117
-21.212
-21.1227
-21.0455
-20.9819
-20.9332
-20.9006
-20.8854
-20.8892
-20.9142
-20.963
-21.0386
-21.1446
-21.2853
-21.4658
-21.6924
-21.9717
-22.3107
-22.7141
-23.1818
-23.7057
-24.2679
-24.8405
-25.3894
-25.8827
-26.2986
-26.6291
-26.8768
-27.0502
-27.1592
-27.2115
-27.6111
-27.5313
-27.3802
-27.1731
-26.9279
-26.6621
-26.3891
-26.1178
-25.8525
-25.5936
-25.3394
-25.0876
-24.8375
-24.5896
-24.346
-24.1099
-23.8847
-23.6723
-23.4734
-23.2871
-23.1109
-22.9419
-22.7776
-22.6168
-22.4592
-22.3056
-22.1571
-22.0146
-21.878
-21.7463
-21.6187
-21.4949
-21.3756
-21.2621
-21.1566
-21.0612
-20.9779
-20.9083
-20.8534
-20.8143
-20.792
-20.7883
-20.8052
-20.8455
-20.9126
-21.0101
-21.1428
-21.3164
-21.5384
-21.8177
-22.164
-22.5854
-23.0845
-23.6545
-24.2752
-24.9128
-25.5235
-26.0657
-26.5134
-26.8597
-27.1117
-27.2833
-27.3885
-27.4383
-27.814
-27.7212
-27.5467
-27.3098
-27.0337
-26.7397
-26.4435
-26.1547
-25.8774
-25.6104
-25.3499
-25.0922
-24.8354
-24.5801
-24.3287
-24.0856
-23.8551
-23.6397
-23.4401
-23.2549
-23.081
-22.9141
-22.7511
-22.5903
-22.4317
-22.2763
-22.1262
-21.9826
-21.8451
-21.7122
-21.5825
-21.4553
-21.3314
-21.2122
-21.1004
-20.9987
-20.9091
-20.8333
-20.7722
-20.7265
-20.697
-20.6853
-20.6937
-20.725
-20.7826
-20.8706
-20.9937
-21.1585
-21.3735
-21.6498
-22.0005
-22.4382
-22.9696
-23.5898
-24.2771
-24.9903
-25.6727
-26.2698
-26.7502
-27.1094
-27.3612
-27.5266
-27.625
-27.6706
-28.0343
-27.9258
-27.7234
-27.4517
-27.14
-26.8145
-26.4934
-26.1869
-25.8984
-25.6247
-25.3593
-25.0962
-24.8329
-24.5698
-24.3099
-24.0588
-23.8225
-23.604
-23.4041
-23.221
-23.0503
-22.8865
-22.7251
-22.5643
-22.4043
-22.2469
-22.0948
-21.9502
-21.8123
-21.6788
-21.5472
-21.4166
-21.2877
-21.1624
-21.0438
-20.9354
-20.8395
-20.7574
-20.6901
-20.6379
-20.6012
-20.5812
-20.5805
-20.6022
-20.6498
-20.7273
-20.8395
-20.9934
-21.1985
-21.4682
-21.8197
-22.2711
-22.8348
-23.509
-24.2715
-25.0731
-25.8394
-26.498
-27.0107
-27.3784
-27.6243
-27.7783
-27.8662
-27.9057
-28.273
-28.1457
-27.9104
-27.5977
-27.2451
-26.885
-26.5374
-26.2131
-25.9147
-25.6362
-25.3676
-25.1001
-24.8305
-24.5592
-24.2896
-24.0294
-23.7867
-23.565
-23.3653
-23.1854
-23.0193
-22.8594
-22.7
-22.5392
-22.3776
-22.2173
-22.0629
-21.9175
-21.7799
-21.6463
-21.5131
-21.3791
-21.2451
-21.113
-20.9871
-20.8717
-20.7692
-20.681
-20.6078
-20.5492
-20.5051
-20.4767
-20.4665
-20.4781
-20.5151
-20.5812
-20.6811
-20.8222
-21.0145
-21.2733
-21.6209
-22.0824
-22.6774
-23.4091
-24.2562
-25.1613
-26.0266
-26.7536
-27.2973
-27.667
-27.8996
-28.0361
-28.1093
-28.1407
-28.5312
-28.3815
-28.1074
-27.7469
-27.3475
-26.9496
-26.574
-26.2319
-25.9256
-25.6449
-25.3752
-25.1043
-24.8286
-24.5487
-24.2679
-23.9971
-23.7475
-23.5227
-23.3235
-23.1481
-22.9881
-22.8335
-22.6764
-22.5154
-22.3516
-22.1877
-22.0302
-21.8843
-21.7479
-21.6151
-21.4806
-21.3432
-21.2038
-21.0643
-20.9303
-20.8077
-20.6987
-20.6045
-20.5255
-20.4609
-20.4096
-20.3725
-20.3523
-20.3534
-20.3794
-20.4335
-20.52
-20.6464
-20.8228
-21.066
-21.404
-21.8704
-22.4947
-23.2864
-24.228
-25.2552
-26.238
-27.0413
-27.6124
-27.9753
-28.1857
-28.2977
-28.3518
-28.373
-28.8104
-28.6339
-28.3144
-27.8979
-27.4452
-27.0065
-26.6018
-26.2423
-25.9305
-25.6508
-25.3828
-25.1093
-24.8276
-24.5388
-24.245
-23.9617
-23.7047
-23.4766
-23.2785
-23.1091
-22.9571
-22.8091
-22.6547
-22.4932
-22.3269
-22.158
-21.9965
-21.8506
-21.7165
-21.5857
-21.4502
-21.3093
-21.1643
-21.0165
-20.8736
-20.7436
-20.628
-20.5279
-20.4438
-20.3735
-20.3152
-20.2691
-20.2386
-20.2287
-20.2435
-20.2852
-20.3572
-20.4674
-20.625
-20.8473
-21.1688
-21.6336
-22.2838
-23.1369
-24.1825
-25.3544
-26.4789
-27.3665
-27.9586
-28.3032
-28.4805
-28.5604
-28.5908
-28.5998
-29.1122
-28.9034
-28.5315
-28.0494
-27.5359
-27.0542
-26.6195
-26.2429
-25.9288
-25.6542
-25.3911
-25.1158
-24.8281
-24.5304
-24.221
-23.9226
-23.6581
-23.4266
-23.2297
-23.0683
-22.9267
-22.7871
-22.6352
-22.4729
-22.3037
-22.1281
-21.9612
-21.816
-21.6859
-21.5584
-21.4221
-21.2777
-21.1271
-20.9698
-20.8169
-20.6794
-20.5574
-20.4516
-20.3629
-20.2876
-20.2225
-20.1671
-20.1257
-20.1046
-20.1082
-20.1374
-20.1941
-20.2868
-20.423
-20.6186
-20.9157
-21.3706
-22.0422
-22.956
-24.1143
-25.4588
-26.7559
-27.7355
-28.3384
-28.6497
-28.7817
-28.8214
-28.8237
-28.8184
-29.4384
-29.1906
-28.7591
-28.2001
-27.6169
-27.0913
-26.626
-26.2321
-25.9201
-25.6554
-25.4012
-25.1241
-24.8303
-24.5243
-24.1961
-23.8792
-23.6075
-23.3725
-23.1768
-23.0258
-22.8972
-22.7682
-22.6185
-22.4548
-22.2826
-22.0979
-21.9235
-21.7802
-21.656
-21.5339
-21.3968
-21.2486
-21.0927
-20.9244
-20.7598
-20.6153
-20.487
-20.3755
-20.2831
-20.2035
-20.1321
-20.067
-20.0141
-19.9815
-19.9742
-19.9911
-20.0315
-20.1061
-20.2192
-20.3814
-20.6451
-21.08
-21.7674
-22.739
-24.0157
-25.5671
-27.0778
-28.1562
-28.7543
-29.0135
-29.0864
-29.0779
-29.0478
-29.0266
-29.7912
-29.4956
-28.9977
-28.3482
-27.685
-27.117
-26.6205
-26.2084
-25.904
-25.6547
-25.4147
-25.1348
-24.8345
-24.5222
-24.1704
-23.8302
-23.5531
-23.3143
-23.1187
-22.9814
-22.8691
-22.7535
-22.6048
-22.4388
-22.2645
-22.0673
-21.8824
-21.7428
-21.6272
-21.5129
-21.3743
-21.2221
-21.0618
-20.8803
-20.702
-20.5512
-20.4168
-20.2995
-20.2047
-20.1218
-20.0446
-19.9692
-19.904
-19.8595
-19.842
-19.8473
-19.8704
-19.9271
-20.016
-20.1379
-20.358
-20.7606
-21.4578
-22.4812
-23.8763
-25.6774
-27.4567
-28.6376
-29.2078
-29.3923
-29.3914
-29.3267
-29.2607
-29.2223
-30.1732
-29.8178
-29.2487
-28.4919
-27.7358
-27.1307
-26.6024
-26.1694
-25.8803
-25.6527
-25.4335
-25.1482
-24.8403
-24.526
-24.1441
-23.774
-23.4952
-23.2521
-23.0544
-22.9352
-22.8426
-22.7444
-22.5944
-22.4248
-22.2506
-22.0362
-21.8363
-21.7034
-21.5994
-21.4965
-21.3549
-21.198
-21.0355
-20.8376
-20.6425
-20.4875
-20.3472
-20.2235
-20.1279
-20.0427
-19.9607
-19.8742
-19.7957
-19.7388
-19.7122
-19.707
-19.7112
-19.7509
-19.8166
-19.8901
-20.0558
-20.4106
-21.1125
-22.1786
-23.6821
-25.7864
-27.909
-29.1899
-29.6998
-29.7825
-29.6927
-29.565
-29.4603
-29.4036
-30.5874
-30.1555
-29.5145
-28.6294
-27.7637
-27.1332
-26.572
-26.1124
-25.8492
-25.6495
-25.4605
-25.1641
-24.8467
-24.539
-24.1172
-23.7076
-23.435
-23.1864
-22.9822
-22.8874
-22.8182
-22.7428
-22.5871
-22.4121
-22.2428
-22.0045
-21.783
-21.6618
-21.5728
-21.4861
-21.3385
-21.1757
-21.0151
-20.7964
-20.5802
-20.4245
-20.2783
-20.147
-20.053
-19.9667
-19.881
-19.7822
-19.6891
-19.6192
-19.585
-19.5716
-19.5541
-19.5788
-19.6249
-19.6404
-19.7407
-20.0281
-20.732
-21.829
-23.414
-25.8882
-28.457
-29.8242
-30.2292
-30.1796
-29.9862
-29.7897
-29.6445
-29.5692
-31.0379
-30.5049
-29.7995
-28.7584
-27.7609
-27.1267
-26.5301
-26.0333
-25.8113
-25.6452
-25.4998
-25.182
-24.8517
-24.5657
-24.09
-23.627
-23.3742
-23.118
-22.8994
-22.8383
-22.7955
-22.7513
-22.5826
-22.3993
-22.244
-21.9721
-21.7195
-21.6179
-21.547
-21.4838
-21.3247
-21.1541
-21.0029
-20.7567
-20.513
-20.363
-20.2105
-20.0691
-19.9804
-19.8939
-19.8065
-19.6935
-19.5842
-19.5003
-19.4609
-19.4425
-19.3986
-19.4116
-19.4452
-19.3908
-19.4158
-19.6098
-20.3184
-21.4329
-23.046
-25.9738
-29.132
-30.552
-30.793
-30.5776
-30.2674
-29.9981
-29.8118
-29.7181
-31.5301
-30.8592
-30.1106
-28.8767
-27.7166
-27.116
-26.4785
-25.926
-25.7687
-25.6387
-25.5572
-25.2006
-24.8515
-24.6129
-24.0626
-23.5258
-23.3165
-23.0481
-22.8021
-22.7894
-22.7741
-22.7738
-22.58
-22.3838
-22.2584
-21.9389
-21.6415
-21.5725
-21.5215
-21.4925
-21.313
-21.1313
-21.0022
-20.7185
-20.438
-20.3045
-20.1444
-19.9886
-19.9107
-19.8244
-19.7381
-19.6082
-19.481
-19.3816
-19.3397
-19.322
-19.2433
-19.2493
-19.2834
-19.143
-19.0853
-19.1506
-19.8759
-20.9965
-22.5432
-26.0295
-29.977
-31.3838
-31.385
-30.9694
-30.5317
-30.188
-29.9612
-29.8497
-32.0714
-31.2065
-30.4589
-28.9822
-27.6156
-27.1095
-26.4201
-25.7819
-25.7249
-25.6274
-25.6408
-25.2176
-24.8398
-24.6907
-24.0349
-23.3947
-23.2673
-22.9789
-22.6847
-22.7427
-22.7521
-22.8156
-22.5778
-22.3617
-22.2926
-21.9047
-21.5429
-21.527
-21.4948
-21.5167
-21.302
-21.104
-21.0177
-20.6816
-20.3509
-20.2512
-20.0807
-19.9034
-19.8449
-19.7579
-19.6773
-19.5264
-19.3793
-19.2619
-19.2212
-19.213
-19.0859
-19.0912
-19.1468
-18.8973
-18.7562
-18.642
-19.4109
-20.5338
-21.8589
-26.0347
-31.0516
-32.3274
-31.9954
-31.3465
-30.7746
-30.3573
-30.0919
-29.9638
-32.6723
-31.5278
-30.862
-29.0725
-27.4366
-27.1205
-26.3592
-25.5883
-25.6867
-25.6061
-25.7627
-25.2296
-24.8068
-24.8136
-24.007
-23.2202
-23.2356
-22.9133
-22.5386
-22.7027
-22.7259
-22.8844
-22.5736
-22.3265
-22.3558
-21.8696
-21.4155
-21.4851
-21.4642
-21.5626
-21.2899
-21.0672
-21.0564
-20.6458
-20.2456
-20.207
-20.0204
-19.8106
-19.7846
-19.6937
-19.626
-19.4478
-19.2792
-19.1402
-19.1049
-19.1202
-18.9228
-18.9351
-19.0455
-18.652
-18.4386
-18.0708
-18.9319
-20.071
-20.9309
-25.9592
-32.4382
-33.385
-32.6101
-31.7
-30.992
-30.5045
-30.2036
-30.0605
-33.3475
-31.7937
-31.3459
-29.1454
-27.1496
-27.1699
-26.3017
-25.327
-25.6657
-25.5651
-25.9396
-25.2315
-24.7377
-25.0024
-23.9785
-22.983
-23.2348
-22.855
-22.3518
-22.6767
-22.6892
-22.9914
-22.5641
-22.2687
-22.4614
-21.8333
-21.2478
-21.4529
-21.4246
-21.639
-21.2741
-21.0136
-21.1285
-20.6107
-20.1131
-20.1777
-19.9648
-19.7058
-19.7327
-19.6304
-19.5865
-19.3718
-19.1809
-19.0146
-18.9892
-19.0501
-18.7484
-18.7774
-18.9927
-18.4017
-18.148
-17.4167
-18.449
-19.6519
-19.6777
-25.7602
-34.2495
-34.5487
-33.2103
-32.0204
-31.1805
-30.6288
-30.2966
-30.1404
-34.118
-31.9598
-31.949
-29.1986
-26.7136
-27.288
-26.2551
-24.9718
-25.6806
-25.4879
-26.1956
-25.2163
-24.611
-25.2862
-23.9491
-22.6562
-23.2845
-22.8091
-22.1067
-22.6768
-22.631
-23.1522
-22.5446
-22.1744
-22.6282
-21.7951
-21.024
-21.4407
-21.3675
-21.7585
-21.2506
-20.9323
-21.2481
-20.5756
-19.9414
-20.1719
-19.9153
-19.5826
-19.6933
-19.5652
-19.5624
-19.2973
-19.0849
-18.8833
-18.8716
-19.012
-18.5551
-18.6117
-19.0068
-18.1354
-17.9081
-16.6497
-17.9732
-19.3444
-17.9932
-25.3771
-36.6387
-35.7943
-33.7728
-32.2988
-31.3377
-30.73
-30.3712
-30.2042
-35.0134
-31.9619
-32.7266
-29.23
-26.0723
-27.5184
-26.2287
-24.4861
-25.7605
-25.3485
-26.564
-25.1743
-24.3961
-25.705
-23.9177
-22.203
-23.4128
-22.7819
-21.7791
-22.7218
-22.534
-23.3887
-22.5086
-22.024
-22.882
-21.754
-20.723
-21.4649
-21.2791
-21.9387
-21.2144
-20.8082
-21.4349
-20.5392
-19.7139
-20.202
-19.8736
-19.4323
-19.673
-19.4936
-19.5586
-19.2222
-18.9922
-18.7437
-18.7481
-19.0194
-18.3326
-18.4284
-19.1131
-17.8338
-17.7539
-15.7267
-17.5145
-19.2485
-15.7411
-24.7268
-39.8117
-37.0738
-34.271
-32.5273
-31.4618
-30.8085
-30.4284
-30.2528
-36.0745
-31.7087
-33.7558
-29.2372
-25.1503
-27.9218
-26.2339
-23.8194
-25.9497
-25.1063
-27.0909
-25.0933
-24.0509
-26.3132
-23.8828
-21.5734
-23.6587
-22.7809
-21.3354
-22.8405
-22.3717
-23.7313
-22.4476
-21.7902
-23.2579
-21.7083
-20.3163
-21.5501
-21.1381
-22.2039
-21.1586
-20.6203
-21.7157
-20.4997
-19.4082
-20.2854
-19.8412
-19.2428
-19.6818
-19.4089
-19.5819
-19.1433
-18.9049
-18.5932
-18.6122
-19.0906
-18.0674
-18.2139
-19.3464
-17.4653
-17.7364
-14.5882
-17.0794
-19.5069
-12.7486
-23.6962
-44.0417
-38.304
-34.6765
-32.7002
-31.5528
-30.865
-30.4693
-30.2875
-37.3573
-31.074
-35.1425
-29.2175
-23.8479
-28.5807
-26.2833
-22.9031
-26.3124
-24.7019
-27.839
-24.9572
-23.5182
-27.1825
-23.8421
-20.7019
-24.0754
-22.8148
-20.7303
-23.0748
-22.1047
-24.221
-22.3511
-21.4364
-23.8023
-21.655
-19.7665
-21.7323
-20.9131
-22.5871
-21.0742
-20.3406
-22.1259
-20.4544
-18.9953
-20.4462
-19.8199
-18.9981
-19.7337
-19.3006
-19.6417
-19.0555
-18.8258
-18.429
-18.4542
-19.2507
-17.7421
-17.9483
-19.7543
-16.9814
-17.9289
-13.1535
-16.6674
-20.3159
-8.79972
-22.1346
-49.6875
-39.3537
-34.963
-32.8144
-31.6114
-30.901
-30.4953
-30.3093
-38.9366
-29.8873
-37.0288
-29.1673
-22.0355
-29.6047
-26.3914
-21.6459
-26.9401
-24.0494
-28.8918
-24.7462
-22.7228
-28.4068
-23.7919
-19.503
-24.7335
-22.8933
-19.9031
-23.4841
-21.6765
-24.9126
-22.2051
-20.9143
-24.5762
-21.5895
-19.0239
-22.0619
-20.5581
-23.1318
-20.9497
-19.9319
-22.7121
-20.399
-18.4369
-20.7162
-19.8103
-18.6767
-19.8488
-19.1538
-19.751
-18.9517
-18.7594
-18.2481
-18.2598
-19.5331
-17.3347
-17.6048
-20.4011
-16.3105
-18.4332
-11.3164
-16.2661
-21.9385
-3.62755
-19.8438
-57.2128
-40.0274
-35.1108
-32.8703
-31.6395
-30.9182
-30.5076
-30.3197
)
;

boundaryField
{
    left
    {
        type            calculated;
        value           nonuniform List<scalar> 
32
(
-26.4237
-26.446
-26.4887
-26.55
-26.6284
-26.723
-26.8331
-26.9584
-27.0986
-27.254
-27.4246
-27.6111
-27.814
-28.0343
-28.273
-28.5312
-28.8104
-29.1122
-29.4384
-29.7912
-30.1732
-30.5874
-31.0379
-31.5301
-32.0714
-32.6723
-33.3475
-34.118
-35.0134
-36.0745
-37.3573
-38.9366
)
;
    }
    right
    {
        type            calculated;
        value           nonuniform List<scalar> 
32
(
-25.7944
-25.829
-25.895
-25.9889
-26.1079
-26.2493
-26.4108
-26.5901
-26.7849
-26.9928
-27.2115
-27.4383
-27.6706
-27.9057
-28.1407
-28.373
-28.5998
-28.8184
-29.0266
-29.2223
-29.4036
-29.5692
-29.7181
-29.8497
-29.9638
-30.0605
-30.1404
-30.2042
-30.2528
-30.2875
-30.3093
-30.3197
)
;
    }
    interface
    {
        type            calculated;
        value           nonuniform List<scalar> 
64
(
-39.8111
-29.1315
-38.1173
-29.1342
-20.9836
-30.2236
-26.4619
-20.9191
-27.3335
-23.6485
-29.5064
-24.6191
-22.2486
-29.1208
-23.7639
-18.8096
-25.1328
-22.945
-19.4252
-23.7411
-21.4137
-25.3167
-22.1178
-20.6042
-25.0291
-21.5529
-18.5975
-22.2709
-20.3412
-23.4507
-20.8757
-19.69
-23.0557
-20.3682
-18.1161
-20.883
-19.8086
-18.4938
-19.9251
-19.0686
-19.8198
-18.8947
-18.73
-18.1532
-18.1515
-19.7095
-17.1075
-17.4097
-20.7934
-15.9177
-18.7781
-10.2822
-16.0658
-22.9908
-0.698906
-18.4881
-61.5106
-40.2411
-35.1482
-32.8838
-31.6463
-30.9223
-30.5105
-30.3222
)
;
    }
    bottom
    {
        type            calculated;
        value           nonuniform List<scalar> 
64
(
-26.4179
-26.3905
-26.3364
-26.2572
-26.1549
-26.0321
-25.8914
-25.7357
-25.5677
-25.39
-25.205
-25.0148
-24.8213
-24.6263
-24.4312
-24.2374
-24.046
-23.8578
-23.6738
-23.4944
-23.32
-23.1512
-22.988
-22.8308
-22.6799
-22.5353
-22.3975
-22.2668
-22.1435
-22.0282
-21.9213
-21.8236
-21.7357
-21.6586
-21.5931
-21.5403
-21.5012
-21.4771
-21.4691
-21.4785
-21.5066
-21.5546
-21.6237
-21.715
-21.8296
-21.9681
-22.1309
-22.3178
-22.5283
-22.7609
-23.0132
-23.2819
-23.5628
-23.8507
-24.1395
-24.4227
-24.6937
-24.9459
-25.1732
-25.3705
-25.5332
-25.6581
-25.7427
-25.7853
)
;
    }
    defaultFaces
    {
        type            empty;
    }
}


// ************************************************************************* //
