/*--------------------------------*- C++ -*----------------------------------*\
| =========                 |                                                 |
| \\      /  F ield         | OpenFOAM: The Open Source CFD Toolbox           |
|  \\    /   O peration     | Version:  5.x                                   |
|   \\  /    A nd           | Web:      www.OpenFOAM.org                      |
|    \\/     M anipulation  |                                                 |
\*---------------------------------------------------------------------------*/
FoamFile
{
    version     2.0;
    format      ascii;
    class       volScalarField;
    location    "14.0001";
    object      gradTx;
}
// * * * * * * * * * * * * * * * * * * * * * * * * * * * * * * * * * * * * * //

dimensions      [0 -1 0 1 0 0 0];

internalField   nonuniform List<scalar> 
6300
(
-31.9333
-32.0041
-32.1449
-32.3544
-32.6304
-32.9695
-33.3677
-33.8194
-34.3179
-34.8552
-35.4218
-36.0075
-36.601
-37.1912
-37.7674
-31.8626
-31.934
-32.0763
-32.288
-32.5671
-32.9105
-33.3141
-33.7726
-34.2792
-34.8258
-35.4029
-35.9996
-36.6043
-37.2052
-37.7908
-31.7204
-31.7932
-31.9382
-32.1543
-32.4396
-32.7914
-33.2057
-33.6776
-34.2004
-34.7659
-35.3642
-35.9837
-36.6116
-37.2345
-37.8394
-31.5054
-31.5801
-31.7291
-31.9514
-32.2457
-32.6096
-33.0398
-33.5317
-34.079
-34.6734
-35.3044
-35.9594
-36.6238
-37.2818
-37.9175
-31.2158
-31.2928
-31.4465
-31.6766
-31.9821
-32.3615
-32.8122
-33.3305
-33.9105
-34.5441
-35.2205
-35.9256
-36.6424
-37.3513
-38.0321
-30.8492
-30.9287
-31.0877
-31.3264
-31.6446
-32.042
-32.5171
-33.0675
-33.6883
-34.3722
-35.108
-35.8803
-36.6688
-37.449
-38.1936
-30.4032
-30.485
-30.6492
-30.8966
-31.2281
-31.6447
-32.1469
-32.734
-33.4031
-34.1483
-34.959
-35.8187
-36.7036
-37.5824
-38.4173
-29.8753
-29.9591
-30.1276
-30.3826
-30.7264
-31.1618
-31.6918
-32.3184
-33.0418
-33.8588
-34.7609
-35.7318
-36.7445
-37.7596
-38.7247
-29.2636
-29.3485
-29.5196
-29.7797
-30.133
-30.5845
-31.1401
-31.806
-32.5867
-33.4842
-34.4942
-35.603
-36.7829
-37.9868
-39.1438
-28.5671
-28.6516
-28.8226
-29.0838
-29.4413
-29.9029
-30.4783
-31.1786
-32.015
-32.997
-34.1285
-35.4031
-36.7972
-38.2611
-39.7065
-27.7861
-27.8683
-28.0352
-28.2917
-28.6455
-29.1074
-29.6915
-30.415
-31.2977
-32.3602
-33.6197
-35.0837
-36.7416
-38.5537
-40.434
-26.9228
-27.0004
-27.1582
-27.4022
-27.7416
-28.1899
-28.7653
-29.4921
-30.4006
-31.5262
-32.906
-34.5702
-36.5312
-38.7778
-41.2834
-25.982
-26.0521
-26.1951
-26.4173
-26.7289
-27.145
-27.6876
-28.3874
-29.2861
-30.438
-31.9076
-33.7589
-36.0333
-38.7405
-41.9819
-24.9712
-25.0308
-25.1528
-25.343
-25.6115
-25.9737
-26.4528
-27.0837
-27.9183
-29.0316
-30.5264
-32.522
-35.0965
-38.1578
-41.5714
-23.9008
-23.9472
-24.0421
-24.1905
-24.4005
-24.6853
-25.066
-25.5764
-26.2715
-27.2432
-28.6424
-30.6995
-33.6551
-37.1815
-37.6107
-38.2764
-38.7161
-39.1317
-39.5212
-39.8838
-40.2193
-40.5281
-40.8107
-41.0674
-41.2981
-41.502
-41.6783
-41.8259
-41.944
-42.0326
-42.0925
-42.1256
-42.1349
-42.1241
-42.0976
-42.0596
-42.0138
-41.9633
-41.9097
-41.8537
-41.7945
-41.7308
-41.6606
-41.582
-41.4934
-41.3944
-41.2852
-41.1673
-41.0429
-40.9149
-40.7862
-40.6594
-40.5362
-40.4176
-40.3034
-40.1923
-40.0824
-39.9715
-39.8572
-39.7378
-39.6124
-39.4811
-39.3449
-39.2059
-39.0664
-38.929
-38.796
-38.669
-38.5487
-38.4346
-38.3256
-38.2197
-38.1146
-38.008
-37.8983
-37.7846
-37.6667
-37.5457
-37.4235
-37.3023
-37.1845
-37.0724
-36.9674
-36.8702
-36.7807
-36.6978
-36.6199
-36.5451
-36.4718
-36.399
-36.3266
-36.2556
-36.1882
-36.1276
-36.0774
-36.0419
-36.0246
-36.0286
-36.0555
-36.1054
-36.1769
-36.2663
-36.3689
-36.4784
-36.5879
-38.3066
-38.7509
-39.1693
-39.5601
-39.9227
-40.2577
-40.5658
-40.848
-41.105
-41.3365
-41.5419
-41.7196
-41.8683
-41.9865
-42.0739
-42.1311
-42.1599
-42.1637
-42.1468
-42.1142
-42.0707
-42.0207
-41.9676
-41.9133
-41.8581
-41.8011
-41.7402
-41.6727
-41.5962
-41.5086
-41.409
-41.2978
-41.1766
-41.0482
-40.916
-40.7836
-40.654
-40.5296
-40.4113
-40.2988
-40.1905
-40.084
-39.9763
-39.8645
-39.7464
-39.6209
-39.4881
-39.3491
-39.2065
-39.0633
-38.9227
-38.7874
-38.6594
-38.5396
-38.4273
-38.3211
-38.2185
-38.1166
-38.0126
-37.9042
-37.7904
-37.6711
-37.5476
-37.422
-37.2973
-37.1765
-37.0621
-36.9561
-36.8592
-36.7712
-36.6906
-36.6154
-36.5429
-36.4711
-36.3985
-36.3246
-36.2505
-36.1785
-36.1124
-36.0565
-36.0155
-35.994
-35.9955
-36.0222
-36.0746
-36.1509
-36.2475
-36.3589
-36.4783
-36.5979
-38.3695
-38.8228
-39.2466
-39.6395
-40.0016
-40.3347
-40.6407
-40.9218
-41.1791
-41.4127
-41.6214
-41.8028
-41.9544
-42.0735
-42.1588
-42.2104
-42.2302
-42.2223
-42.1922
-42.1463
-42.0911
-42.0322
-41.9738
-41.9181
-41.8652
-41.8133
-41.7589
-41.6979
-41.6264
-41.541
-41.4404
-41.3247
-41.1962
-41.0589
-40.9174
-40.7767
-40.6413
-40.5142
-40.3967
-40.2882
-40.1863
-40.0873
-39.9869
-39.8808
-39.7658
-39.6401
-39.5037
-39.3586
-39.2081
-39.0566
-38.9087
-38.7683
-38.6382
-38.5195
-38.4114
-38.3115
-38.2164
-38.1216
-38.0233
-37.918
-37.8042
-37.6817
-37.5524
-37.4194
-37.2868
-37.159
-37.0397
-36.9315
-36.8355
-36.751
-36.6758
-36.6067
-36.5398
-36.4717
-36.3997
-36.3229
-36.2422
-36.1605
-36.0824
-36.0139
-35.9612
-35.9303
-35.9262
-35.9522
-36.0091
-36.0956
-36.2073
-36.3376
-36.478
-36.6188
-38.4702
-38.9373
-39.3686
-39.7631
-40.1225
-40.4506
-40.7516
-41.0298
-41.2874
-41.5248
-41.7401
-41.9291
-42.0871
-42.2093
-42.2923
-42.3353
-42.3404
-42.3129
-42.2604
-42.1919
-42.1167
-42.0429
-41.976
-41.9189
-41.871
-41.829
-41.7871
-41.7384
-41.6763
-41.5956
-41.4934
-41.37
-41.2288
-41.0755
-40.9175
-40.7623
-40.6167
-40.485
-40.3691
-40.268
-40.1778
-40.0926
-40.0056
-39.91
-39.8007
-39.6747
-39.532
-39.3757
-39.211
-39.0447
-38.8838
-38.7344
-38.6006
-38.484
-38.3835
-38.2952
-38.2136
-38.1319
-38.0438
-37.9443
-37.8304
-37.7022
-37.5624
-37.416
-37.2695
-37.1293
-37.0014
-36.8895
-36.7952
-36.7173
-36.6523
-36.5948
-36.5386
-36.4778
-36.4079
-36.3268
-36.2353
-36.1371
-36.0388
-35.9486
-35.8754
-35.828
-35.8136
-35.8374
-35.9013
-36.0039
-36.1402
-36.3017
-36.477
-36.6533
-38.6173
-39.1035
-39.5435
-39.9371
-40.2886
-40.6053
-40.8956
-41.1672
-41.4248
-41.669
-41.8964
-42.1002
-42.2715
-42.4015
-42.4835
-42.5148
-42.4977
-42.4395
-42.3514
-42.2472
-42.1406
-42.0435
-41.9642
-41.9063
-41.8685
-41.8445
-41.8249
-41.7982
-41.7532
-41.681
-41.5769
-41.441
-41.2786
-41.0989
-40.9135
-40.7344
-40.5718
-40.4329
-40.3204
-40.2322
-40.1621
-40.1006
-40.0366
-39.9591
-39.8595
-39.7332
-39.58
-39.4048
-39.2162
-39.025
-38.8424
-38.6779
-38.5382
-38.4255
-38.338
-38.2694
-38.2108
-38.1515
-38.081
-37.9911
-37.8772
-37.7393
-37.5818
-37.4129
-37.2429
-37.0821
-36.9399
-36.8222
-36.7312
-36.6651
-36.618
-36.581
-36.544
-36.497
-36.4322
-36.3457
-36.2379
-36.1141
-35.9836
-35.8587
-35.7525
-35.6781
-35.6462
-35.6648
-35.7377
-35.8638
-36.0369
-36.2458
-36.4747
-36.7054
-38.8247
-39.3365
-39.7852
-40.1718
-40.5048
-40.7979
-41.0667
-41.325
-41.5814
-41.8372
-42.0868
-42.318
-42.5153
-42.6627
-42.7477
-42.7641
-42.7142
-42.6089
-42.4658
-42.3059
-42.1507
-42.0184
-41.9214
-41.865
-41.8459
-41.8539
-41.873
-41.8843
-41.8691
-41.8125
-41.7062
-41.5503
-41.3533
-41.1305
-40.9005
-40.6825
-40.493
-40.343
-40.2365
-40.1703
-40.1341
-40.1123
-40.0869
-40.0398
-39.957
-39.8303
-39.6597
-39.4533
-39.2252
-38.993
-38.7748
-38.5859
-38.4367
-38.3308
-38.265
-38.2294
-38.2092
-38.187
-38.146
-38.0724
-37.9586
-37.8046
-37.6177
-37.4116
-37.2028
-37.0084
-36.843
-36.7162
-36.6315
-36.5857
-36.569
-36.5673
-36.5637
-36.5417
-36.488
-36.3952
-36.2635
-36.1005
-35.9205
-35.7417
-35.5841
-35.4667
-35.406
-35.4141
-35.4974
-35.656
-35.8822
-36.161
-36.47
-36.7822
-39.1139
-39.6602
-40.1162
-40.4838
-40.7785
-41.0254
-41.2529
-41.4856
-41.7386
-42.0147
-42.3036
-42.5847
-42.8309
-43.0139
-43.1106
-43.1087
-43.0105
-42.833
-42.6042
-42.3579
-42.1278
-41.9423
-41.8205
-41.7697
-41.7843
-41.8473
-41.9324
-42.0085
-42.0446
-42.0155
-41.9068
-41.7187
-41.4654
-41.1723
-40.8701
-40.5897
-40.3573
-40.1902
-40.0947
-40.0653
-40.0852
-40.1294
-40.1682
-40.1723
-40.1175
-39.9905
-39.7911
-39.533
-39.2399
-38.9409
-38.665
-38.4369
-38.2728
-38.1785
-38.1485
-38.1671
-38.2102
-38.2498
-38.2579
-38.2116
-38.098
-37.917
-37.6815
-37.414
-37.1419
-36.893
-36.6904
-36.5496
-36.476
-36.4641
-36.4986
-36.5563
-36.6099
-36.632
-36.5999
-36.5008
-36.334
-36.1116
-35.8557
-35.5943
-35.3576
-35.1738
-35.0669
-35.055
-35.1489
-35.3506
-35.6519
-36.0326
-36.4605
-36.8947
-39.518
-40.1142
-40.5744
-40.9008
-41.121
-41.281
-41.4317
-41.6169
-41.8628
-42.1736
-42.5317
-42.9018
-43.2375
-43.4893
-43.6154
-43.5919
-43.4211
-43.1308
-42.7677
-42.3866
-42.0407
-41.7745
-41.6174
-41.5801
-41.6532
-41.8088
-42.0047
-42.1903
-42.3142
-42.333
-42.2219
-41.9809
-41.635
-41.2271
-40.8082
-40.4279
-40.1275
-39.9343
-39.8579
-39.8892
-40.0012
-40.1541
-40.2997
-40.3893
-40.3822
-40.2548
-40.0071
-39.6631
-39.2631
-38.8553
-38.4866
-38.1957
-38.0083
-37.9335
-37.9623
-38.0693
-38.2164
-38.3581
-38.4481
-38.4477
-38.3343
-38.1081
-37.7914
-37.4228
-37.0478
-36.7109
-36.4489
-36.2863
-36.2315
-36.2758
-36.3947
-36.5513
-36.7016
-36.8001
-36.8086
-36.7039
-36.4847
-36.1709
-35.7985
-35.4116
-35.055
-34.77
-34.5909
-34.5437
-34.645
-34.9018
-35.3072
-35.8361
-36.442
-37.0607
-40.0878
-40.7639
-41.2254
-41.4706
-41.5505
-41.5498
-41.5611
-41.6608
-41.8935
-42.2644
-42.7425
-43.2686
-43.7648
-44.1458
-44.3355
-44.2875
-44.0036
-43.5335
-42.9572
-42.3644
-41.839
-41.4496
-41.2417
-41.2315
-41.4032
-41.7122
-42.0917
-42.4611
-42.7348
-42.8378
-42.7241
-42.394
-41.8937
-41.2979
-40.6907
-40.1511
-39.7433
-39.51
-39.4663
-39.5966
-39.8586
-40.1892
-40.5118
-40.7458
-40.8202
-40.6921
-40.362
-39.8736
-39.2977
-38.7137
-38.196
-37.8053
-37.5817
-37.5393
-37.6634
-37.9137
-38.2304
-38.5408
-38.7686
-38.8464
-38.7331
-38.4293
-37.9762
-37.4409
-36.8989
-36.4208
-36.0643
-35.8676
-35.8442
-35.98
-36.2363
-36.5556
-36.8677
-37.098
-37.18
-37.0721
-36.7714
-36.3145
-35.7624
-35.185
-34.6493
-34.2137
-33.9251
-33.8183
-33.9175
-34.2389
-34.7848
-35.5289
-36.405
-37.3095
-40.9
-41.7226
-42.1877
-42.2786
-42.0959
-41.8016
-41.5632
-41.5132
-41.7252
-42.2008
-42.8842
-43.6785
-44.4579
-45.0779
-45.3979
-45.3229
-44.8541
-44.0891
-43.1706
-42.2451
-41.4415
-40.8634
-40.5812
-40.6212
-40.9556
-41.5138
-42.1936
-42.8695
-43.4015
-43.6545
-43.5379
-43.0524
-42.2899
-41.385
-40.476
-39.6844
-39.1079
-38.8129
-38.8238
-39.1144
-39.6173
-40.2358
-40.8515
-41.3318
-41.5499
-41.4205
-40.9448
-40.2102
-39.3439
-38.4764
-37.7225
-37.1743
-36.8942
-36.9054
-37.1827
-37.6626
-38.2533
-38.8427
-39.3051
-39.5201
-39.4065
-38.9654
-38.2793
-37.4688
-36.6578
-35.9555
-35.4496
-35.1996
-35.2278
-35.5106
-35.9874
-36.5704
-37.1516
-37.6092
-37.8251
-37.7177
-37.2831
-36.5951
-35.7629
-34.8984
-34.0995
-33.4457
-32.9975
-32.7962
-32.8699
-33.2529
-33.9771
-35.0315
-36.3272
-37.6907
-42.0649
-43.1966
-43.6888
-43.4801
-42.802
-41.9732
-41.2941
-40.9884
-41.1775
-41.8381
-42.8662
-44.1098
-45.3807
-46.4419
-47.0293
-46.9253
-46.131
-44.8659
-43.394
-41.9502
-40.7192
-39.8512
-39.4568
-39.5867
-40.1858
-41.1406
-42.3007
-43.4854
-44.4696
-45.0036
-44.8829
-44.1095
-42.8913
-41.4781
-40.0921
-38.9079
-38.0673
-37.675
-37.7788
-38.3263
-39.2096
-40.2866
-41.386
-42.2955
-42.78
-42.6473
-41.9005
-40.7365
-39.3917
-38.0756
-36.9529
-36.1572
-35.7873
-35.8882
-36.4104
-37.2519
-38.2781
-39.3272
-40.1978
-40.6669
-40.5516
-39.8542
-38.7615
-37.4972
-36.2603
-35.2075
-34.4662
-34.1308
-34.2448
-34.7618
-35.5854
-36.5876
-37.6134
-38.4686
-38.9358
-38.8344
-38.1599
-37.0833
-35.8098
-34.5175
-33.3405
-32.3818
-31.7143
-31.3779
-31.3771
-31.7753
-32.6939
-34.1865
-36.1517
-38.292
-43.7113
-45.5936
-46.1998
-45.3558
-43.7239
-41.9297
-40.4876
-39.7513
-39.9508
-40.9465
-42.5378
-44.5019
-46.6054
-48.4884
-49.6563
-49.5216
-48.0859
-45.9404
-43.5771
-41.3488
-39.4743
-38.1571
-37.5773
-37.8764
-38.9039
-40.4715
-42.3726
-44.3901
-46.1859
-47.2956
-47.1679
-45.807
-43.7733
-41.5322
-39.4176
-37.6365
-36.3813
-35.8228
-36.0949
-37.0545
-38.5232
-40.3049
-42.1941
-43.8712
-44.8988
-44.7587
-43.4567
-41.5232
-39.3983
-37.3963
-35.7121
-34.5272
-34.0024
-34.2645
-35.1782
-36.5751
-38.27
-40.0689
-41.6689
-42.6551
-42.5348
-41.3125
-39.4907
-37.4862
-35.5978
-34.0108
-32.8985
-32.4149
-32.6815
-33.5716
-34.9263
-36.5709
-38.3211
-39.8865
-40.8653
-40.7764
-39.6156
-37.8552
-35.8837
-33.9705
-32.2672
-30.8987
-29.9542
-29.4766
-29.3096
-29.5484
-30.5843
-32.661
-35.7239
-39.2777
-45.8318
-49.838
-50.8085
-48.3637
-44.8728
-41.378
-38.6656
-37.1671
-37.5778
-39.1972
-41.6726
-44.6931
-48.1479
-51.5646
-54.1589
-53.9916
-51.0626
-47.3288
-43.5657
-40.238
-37.4269
-35.401
-34.4321
-35.1173
-36.8441
-39.3224
-42.2766
-45.6143
-48.89
-51.3694
-51.2287
-48.4734
-44.9539
-41.4042
-38.263
-35.6076
-33.6921
-32.7746
-33.4208
-35.0497
-37.3862
-40.1682
-43.3077
-46.382
-48.6992
-48.5432
-45.922
-42.5859
-39.2277
-36.2593
-33.7526
-31.9464
-31.0845
-31.7023
-33.2503
-35.4693
-38.1123
-41.0968
-44.0238
-46.2367
-46.1047
-43.6341
-40.4829
-37.3082
-34.5011
-32.1308
-30.4254
-29.6184
-30.2206
-31.7123
-33.8498
-36.4021
-39.2947
-42.1492
-44.3325
-44.2617
-41.9346
-38.931
-35.8738
-33.121
-30.7119
-28.8051
-27.5219
-27.1279
-26.6576
-26.1738
-26.9758
-29.7155
-34.5894
-40.9792
-47.3595
-58.4754
-60.3901
-52.9005
-46.0106
-39.6903
-35.0937
-31.8331
-33.4642
-36.2155
-40.0225
-44.2592
-49.7452
-55.8248
-62.6385
-62.4385
-55.1982
-48.7592
-42.9274
-38.3833
-34.2487
-31.1229
-28.9048
-30.8585
-33.7021
-37.4882
-41.6281
-46.9279
-52.7407
-59.2163
-59.0545
-52.2405
-46.1778
-40.688
-36.4086
-32.5135
-29.5659
-27.4744
-29.3319
-32.026
-35.6074
-39.5169
-44.5152
-49.9832
-56.061
-55.8773
-49.4171
-43.6801
-38.4958
-34.4575
-30.7846
-28.0056
-26.0358
-27.8004
-30.3562
-33.7529
-37.4625
-42.2077
-47.407
-53.195
-53.0422
-46.936
-41.5088
-36.6008
-32.7754
-29.2931
-26.6587
-24.7928
-26.4788
-28.9229
-32.176
-35.7431
-40.3231
-45.3782
-51.0458
-50.9961
-45.2279
-40.084
-35.4256
-31.7765
-28.4335
-25.8134
-23.809
-24.8892
-24.025
-20.9476
-20.5771
-23.6966
-31.272
-44.1113
-40.9557
-80.3053
-83.71
-56.7735
-46.3564
-35.5176
-29.5974
-19.4551
-27.7377
-31.7133
-37.754
-42.0261
-50.4878
-59.0282
-81.2177
-81.0235
-58.1798
-49.3155
-40.4347
-35.939
-29.6177
-25.5378
-17.3703
-25.3181
-29.2031
-35.1442
-39.3097
-47.5027
-55.6368
-76.6213
-76.4593
-54.9256
-46.5767
-38.229
-34.0008
-28.0548
-24.2069
-16.4876
-24.0381
-27.7246
-33.3562
-37.2978
-45.0463
-52.7063
-72.4391
-72.2497
-51.8709
-43.9784
-36.1137
-32.1294
-26.5292
-22.8998
-15.6097
-22.7593
-26.2513
-31.5859
-35.3216
-42.6646
-49.9427
-68.7078
-68.5526
-49.26
-41.7872
-34.3345
-30.5557
-25.2344
-21.7854
-14.8525
-21.6451
-24.9687
-30.0501
-33.6257
-40.6675
-47.7252
-65.992
-65.965
-47.6224
-40.5378
-33.5239
-29.9912
-25.1138
-21.9355
-15.6539
-25.4508
-24.5792
-11.8234
-9.15291
-11.2613
-20.3746
-50.2185
-36.6997
-36.803
-36.8776
-36.9181
-36.9228
-36.8935
-36.8349
-36.7538
-36.6586
-36.5576
-36.4591
-36.3707
-36.2987
-36.2479
-36.2216
-36.7197
-36.8316
-36.9116
-36.9539
-36.9568
-36.9227
-36.8573
-36.7681
-36.6643
-36.555
-36.4491
-36.3544
-36.2774
-36.2233
-36.1954
-36.7619
-36.8922
-36.9835
-37.0291
-37.0278
-36.9834
-36.9033
-36.7971
-36.6755
-36.5491
-36.4278
-36.3203
-36.2334
-36.1725
-36.1412
-36.8315
-36.9919
-37.101
-37.151
-37.1419
-37.0799
-36.9755
-36.8415
-36.6914
-36.538
-36.3929
-36.2654
-36.1633
-36.0922
-36.0558
-36.9375
-37.143
-37.2775
-37.3321
-37.309
-37.2188
-37.0771
-36.9019
-36.7105
-36.5188
-36.3402
-36.1853
-36.0623
-35.9773
-35.9338
-37.0942
-37.3651
-37.5339
-37.591
-37.5432
-37.409
-37.2125
-36.9785
-36.73
-36.4866
-36.2637
-36.0731
-35.9235
-35.8207
-35.7684
-37.325
-37.6894
-37.9021
-37.9546
-37.8638
-37.6617
-37.3852
-37.0695
-36.7445
-36.4338
-36.1548
-35.92
-35.7377
-35.6136
-35.5508
-37.6678
-38.1653
-38.4305
-38.4615
-38.2958
-37.9887
-37.5971
-37.1698
-36.7448
-36.3493
-36.0019
-35.7143
-35.4939
-35.3452
-35.2703
-38.1865
-38.8735
-39.193
-39.1652
-38.8691
-38.4003
-37.8446
-37.2678
-36.7156
-36.2169
-35.789
-35.4413
-35.1786
-35.0029
-34.9149
-38.9931
-39.9491
-40.303
-40.1372
-39.6151
-38.8988
-38.1131
-37.3414
-36.6328
-36.0136
-35.4959
-35.0834
-34.7762
-34.5728
-34.4716
-40.2968
-41.6268
-41.9325
-41.4654
-40.5554
-39.4665
-38.3679
-37.3517
-36.4606
-35.709
-35.0974
-34.6202
-34.27
-34.0405
-33.927
-42.5184
-44.3289
-44.3349
-43.2366
-41.6744
-40.0441
-38.5401
-37.2369
-36.1487
-35.2645
-34.5647
-34.0298
-33.6432
-33.3923
-33.2689
-46.5973
-48.8355
-47.8417
-45.4716
-42.8617
-40.4954
-38.5116
-36.907
-35.6331
-34.6355
-33.8671
-33.2912
-32.8806
-32.6166
-32.4875
-54.9137
-56.5742
-52.7248
-47.9465
-43.8052
-40.5641
-38.1039
-36.2464
-34.8411
-33.7772
-32.977
-32.3872
-31.9715
-31.7061
-31.5768
-74.4975
-69.8226
-58.5368
-49.7845
-43.8485
-39.8519
-37.0936
-35.1336
-33.7076
-32.6552
-31.8767
-31.3091
-30.9119
-30.6595
-30.5369
-22.8771
-22.9093
-22.9751
-23.0775
-23.2217
-23.4164
-23.6759
-24.0251
-24.5084
-25.211
-26.309
-28.1928
-31.7696
-39.0103
-51.9584
-21.9241
-21.9425
-21.9797
-22.0366
-22.115
-22.2177
-22.35
-22.5218
-22.7531
-23.0885
-23.6382
-24.7194
-27.4344
-36.5409
-77.8761
-20.9583
-20.9626
-20.9705
-20.9809
-20.9913
-20.9984
-20.9965
-20.977
-20.9257
-20.8172
-20.5962
-20.0903
-18.5331
-11.6754
25.3221
-19.9895
-19.9801
-19.9597
-19.925
-19.87
-19.7853
-19.6553
-19.4543
-19.138
-18.6249
-17.7535
-16.1834
-13.1971
-7.72655
-3.90866
-19.0272
-19.0052
-18.9589
-18.8832
-18.7694
-18.6036
-18.3632
-18.0116
-17.4871
-16.6818
-15.3996
-13.2705
-9.56666
-2.617
13.4589
-18.0803
-18.0473
-17.9784
-17.8677
-17.7049
-17.4737
-17.1484
-16.6889
-16.0309
-15.0696
-13.6343
-11.4568
-8.19169
-3.84029
-1.9727
-17.1563
-17.1142
-17.0271
-16.8885
-16.688
-16.409
-16.0267
-15.5041
-14.7852
-13.7864
-12.3841
-10.4
-7.57194
-3.33763
4.92117
-16.2615
-16.2124
-16.1114
-15.9524
-15.7255
-15.4159
-15.0026
-14.4556
-13.7339
-12.7834
-11.5376
-9.92955
-7.92901
-5.62954
-3.47787
-15.4007
-15.3467
-15.236
-15.0633
-14.8203
-14.495
-14.0712
-13.5283
-12.8416
-11.9853
-10.9424
-9.73173
-8.49379
-7.81878
-10.3828
-14.5776
-14.5203
-14.4036
-14.2232
-13.9724
-13.6424
-13.2225
-12.7008
-12.0669
-11.317
-10.4637
-9.55281
-8.66765
-7.75872
-5.04675
-13.7942
-13.7352
-13.6155
-13.4319
-13.1794
-12.8523
-12.4445
-11.9513
-11.3729
-10.7203
-10.025
-9.356
-8.85802
-8.95079
-11.8491
-13.0519
-12.9923
-12.8719
-12.6883
-12.4383
-12.1183
-11.7257
-11.2608
-10.7304
-10.1532
-9.56813
-9.04037
-8.63814
-8.19459
-5.56436
-12.3509
-12.2916
-12.1722
-11.9909
-11.7457
-11.4346
-11.0571
-10.6159
-10.1204
-9.59165
-9.0714
-8.63757
-8.44693
-8.95693
-12.5528
-11.691
-11.6327
-11.5154
-11.3379
-11.0989
-10.7971
-10.4328
-10.0088
-9.53345
-9.02417
-8.51466
-8.06588
-7.76917
-7.57628
-5.45248
-11.0717
-11.0148
-10.9005
-10.7278
-10.4956
-10.203
-9.84979
-9.43739
-8.97006
-8.45685
-7.91574
-7.38857
-7.01932
-7.53652
-13.4632
-10.4919
-10.4367
-10.326
-10.1589
-9.93432
-9.65103
-9.30794
-8.90411
-8.43853
-7.90892
-7.30713
-6.60159
-5.65387
-3.74018
3.53832
-9.95039
-9.89732
-9.79079
-9.63
-9.41379
-9.1406
-8.80829
-8.41371
-7.95147
-7.4111
-6.77057
-5.98279
-4.95924
-3.66939
-3.53343
-9.44575
-9.39504
-9.29324
-9.13958
-8.93285
-8.67122
-8.35188
-7.9703
-7.51868
-6.98285
-6.33627
-5.52773
-4.44954
-2.79728
0.915138
-8.97634
-8.92824
-8.8317
-8.68603
-8.49005
-8.24192
-7.9387
-7.57555
-7.14438
-6.63151
-6.01446
-5.25993
-4.33851
-3.35581
-3.48396
-8.54035
-8.49509
-8.4043
-8.26741
-8.08347
-7.85089
-7.56714
-7.22804
-6.82682
-6.35253
-5.78812
-5.10802
-4.27004
-3.1429
-0.863406
-8.1358
-8.09356
-8.00891
-7.88149
-7.71067
-7.49542
-7.23401
-6.92369
-6.56001
-6.13613
-5.64213
-5.06574
-4.40239
-3.73022
-3.76835
-7.7606
-7.72149
-7.64323
-7.52571
-7.36875
-7.172
-6.93487
-6.65638
-6.33501
-5.96844
-5.55337
-5.08386
-4.54087
-3.82425
-2.3176
-7.41256
-7.37662
-7.30482
-7.19733
-7.05446
-6.87662
-6.66445
-6.41888
-6.14139
-5.83445
-5.50241
-5.15301
-4.79992
-4.46691
-4.20259
-7.08949
-7.05666
-6.99119
-6.89354
-6.76446
-6.6051
-6.41723
-6.20355
-5.96823
-5.7179
-5.46351
-5.22473
-5.04502
-5.06187
-5.90394
-6.78924
-6.75936
-6.69992
-6.61158
-6.49548
-6.35338
-6.18795
-6.00325
-5.8055
-5.60418
-5.41376
-5.25544
-5.15363
-5.08374
-4.54112
-6.50973
-6.4826
-6.42872
-6.34892
-6.24458
-6.11787
-5.97204
-5.81203
-5.64525
-5.4829
-5.34174
-5.2469
-5.24007
-5.43387
-6.4503
-6.24908
-6.22442
-6.17552
-6.10329
-6.00922
-5.89563
-5.766
-5.62551
-5.48194
-5.34692
-5.23756
-5.17726
-5.1872
-5.21273
-4.59111
-6.00556
-5.98308
-5.93854
-5.87283
-5.78743
-5.68455
-5.5675
-5.44114
-5.3127
-5.19311
-5.09931
-5.05883
-5.12352
-5.44097
-6.77433
-5.77765
-5.75706
-5.71626
-5.65607
-5.57777
-5.48331
-5.37546
-5.25821
-5.13732
-5.02142
-4.92403
-4.86738
-4.88432
-4.96369
-4.42976
-5.56405
-5.54508
-5.50747
-5.45187
-5.37935
-5.29137
-5.18997
-5.07781
-4.95848
-4.83686
-4.72048
-4.62483
-4.60178
-4.91231
-7.16801
-5.36362
-5.34605
-5.31116
-5.25945
-5.19166
-5.10877
-5.01194
-4.90241
-4.78123
-4.64868
-4.50253
-4.33187
-4.08757
-3.51011
-1.00905
-5.1754
-5.15906
-5.12654
-5.07819
-5.01446
-4.93586
-4.84275
-4.7351
-4.61189
-4.46995
-4.30161
-4.09006
-3.80474
-3.44372
-3.57677
-4.99854
-4.9833
-4.95292
-4.90762
-4.84761
-4.77302
-4.68366
-4.57861
-4.45556
-4.30956
-4.13069
-3.8995
-3.57449
-3.03422
-1.66762
-4.83228
-4.81805
-4.78968
-4.74726
-4.69088
-4.62045
-4.53546
-4.43462
-4.31518
-4.17199
-3.99612
-3.77408
-3.49374
-3.19854
-3.37858
-4.6759
-4.66264
-4.63618
-4.5966
-4.54392
-4.478
-4.39829
-4.30355
-4.1913
-4.05711
-3.89363
-3.68916
-3.42329
-3.03283
-2.12431
-4.52873
-4.5164
-4.49181
-4.45505
-4.40617
-4.34512
-4.27156
-4.18464
-4.08266
-3.9626
-3.8196
-3.64688
-3.43939
-3.22687
-3.32924
-4.39012
-4.37869
-4.35591
-4.32191
-4.27688
-4.22093
-4.15411
-4.0762
-3.98658
-3.88401
-3.76623
-3.62876
-3.45897
-3.20223
-2.55332
-4.25946
-4.24886
-4.22779
-4.19645
-4.15516
-4.10431
-4.04438
-3.97589
-3.89949
-3.81598
-3.72655
-3.63309
-3.53893
-3.44991
-3.37857
-4.13615
-4.12632
-4.10681
-4.07791
-4.04009
-3.99401
-3.94058
-3.88109
-3.81735
-3.75209
-3.68965
-3.63793
-3.61534
-3.68529
-4.15423
-4.01968
-4.01051
-3.99235
-3.96556
-3.93075
-3.88881
-3.84101
-3.78925
-3.73627
-3.68623
-3.64533
-3.62253
-3.62749
-3.6436
-3.40789
-3.90959
-3.90095
-3.88388
-3.8588
-3.82638
-3.78767
-3.74421
-3.69825
-3.65317
-3.61403
-3.58844
-3.58786
-3.63189
-3.77676
-4.34537
-3.8055
-3.79726
-3.78099
-3.75713
-3.72639
-3.68985
-3.64914
-3.60664
-3.56594
-3.53244
-3.51418
-3.52223
-3.56628
-3.61566
-3.3167
-3.70713
-3.69915
-3.68338
-3.66024
-3.63042
-3.59494
-3.55532
-3.51379
-3.47372
-3.44027
-3.42165
-3.4316
-3.49696
-3.69644
-4.44131
-3.61432
-3.60645
-3.59089
-3.568
-3.53838
-3.50291
-3.46282
-3.41993
-3.37691
-3.33782
-3.30927
-3.3025
-3.33452
-3.39845
-3.12591
-3.52697
-3.5191
-3.50349
-3.48045
-3.45043
-3.41408
-3.37227
-3.32618
-3.27737
-3.22805
-3.18179
-3.14648
-3.14992
-3.33412
-4.5784
-3.4451
-3.43712
-3.42126
-3.39774
-3.36687
-3.32904
-3.28471
-3.23433
-3.17819
-3.11616
-3.04669
-2.96357
-2.83979
-2.5336
-1.17546
-3.36877
-3.36061
-3.34436
-3.32015
-3.28815
-3.24853
-3.20136
-3.14646
-3.08312
-3.00943
-2.92109
-2.80889
-2.65633
-2.4636
-2.54876
-3.29812
-3.28973
-3.27299
-3.24797
-3.21473
-3.17327
-3.12338
-3.06448
-2.99523
-2.91289
-2.81207
-2.68224
-2.50078
-2.2006
-1.44166
-3.23331
-3.22466
-3.20738
-3.1815
-3.14703
-3.10386
-3.05166
-2.98968
-2.91644
-2.82918
-2.72321
-2.59145
-2.42768
-2.25618
-2.34693
-3.1745
-3.16557
-3.14774
-3.12101
-3.08538
-3.04073
-2.98674
-2.92272
-2.84739
-2.75847
-2.65226
-2.5229
-2.35995
-2.12963
-1.61736
-3.1219
-3.11268
-3.09428
-3.06671
-3.03
-2.98409
-2.92878
-2.86362
-2.78777
-2.69977
-2.5974
-2.47768
-2.339
-2.19888
-2.22978
-3.0757
-3.06618
-3.04718
-3.01877
-2.98102
-2.93398
-2.87766
-2.81196
-2.73659
-2.65107
-2.5546
-2.44562
-2.31907
-2.14935
-1.78261
-3.03612
-3.02627
-3.00663
-2.97732
-2.93848
-2.89032
-2.83307
-2.767
-2.69246
-2.60998
-2.52049
-2.42576
-2.32912
-2.23664
-2.16169
-3.00338
-2.99316
-2.97281
-2.94248
-2.90242
-2.85298
-2.79462
-2.72794
-2.65385
-2.57375
-2.49002
-2.40725
-2.33627
-2.31176
-2.48866
-2.97775
-2.9671
-2.94591
-2.9144
-2.87289
-2.82185
-2.76193
-2.69403
-2.61943
-2.54005
-2.45888
-2.38057
-2.31116
-2.247
-2.07662
-2.95951
-2.94836
-2.9262
-2.89327
-2.84997
-2.79689
-2.7348
-2.66478
-2.58833
-2.50761
-2.42575
-2.3477
-2.28241
-2.25599
-2.40802
-2.94901
-2.93728
-2.91396
-2.87933
-2.83386
-2.77818
-2.71317
-2.63999
-2.56022
-2.47594
-2.39
-2.30597
-2.22668
-2.14104
-1.92486
-2.94667
-2.93425
-2.90957
-2.87294
-2.82484
-2.76596
-2.69722
-2.6198
-2.53523
-2.44545
-2.35292
-2.26095
-2.17537
-2.11672
-2.2116
-2.95295
-2.93975
-2.91349
-2.87451
-2.82332
-2.7606
-2.68729
-2.60457
-2.51386
-2.41686
-2.31546
-2.2115
-2.10537
-1.98578
-1.74906
-2.96841
-2.95431
-2.92625
-2.88458
-2.82979
-2.7626
-2.68391
-2.59488
-2.49686
-2.39134
-2.27979
-2.16355
-2.04471
-1.93617
-1.93721
-2.99367
-2.97855
-2.94847
-2.90375
-2.84489
-2.77258
-2.68772
-2.59145
-2.48508
-2.37001
-2.24739
-2.1174
-1.97692
-1.81045
-1.53953
-3.02943
-3.01319
-2.98087
-2.93276
-2.86933
-2.79127
-2.69946
-2.59503
-2.47935
-2.35392
-2.22013
-2.07853
-1.92718
-1.75726
-1.54017
-3.07647
-3.05901
-3.02423
-2.97239
-2.90394
-2.81951
-2.71996
-2.60643
-2.48039
-2.34364
-2.19828
-2.04644
-1.89034
-1.73681
-1.63795
-3.13564
-3.11687
-3.07943
-3.02357
-2.94966
-2.85826
-2.75018
-2.62652
-2.48886
-2.33935
-2.18094
-2.0173
-1.85173
-1.67839
-1.4191
-3.20786
-3.18769
-3.14743
-3.08728
-3.00752
-2.90861
-2.79121
-2.65635
-2.50555
-2.34125
-2.16722
-1.98951
-1.81852
-1.67965
-1.69002
-3.29408
-3.27245
-3.22926
-3.16461
-3.07869
-2.97179
-2.84439
-2.69723
-2.53164
-2.34991
-2.15607
-1.95704
-1.76302
-1.57726
-1.29823
-3.39532
-3.3722
-3.32599
-3.25671
-3.16442
-3.04922
-2.91127
-2.75092
-2.56894
-2.36697
-2.14854
-1.92109
-1.70178
-1.53964
-1.6273
-3.51262
-3.488
-3.43873
-3.36479
-3.26608
-3.14246
-2.99372
-2.81964
-2.62011
-2.39548
-2.14727
-1.8795
-1.60084
-1.32854
-1.10256
-3.64702
-3.6209
-3.56863
-3.49007
-3.38504
-3.25313
-3.09377
-2.90603
-2.68871
-2.44035
-2.15959
-1.84546
-1.49548
-1.08526
-0.420856
-3.79956
-3.77198
-3.71676
-3.63376
-3.52265
-3.38289
-3.21352
-3.01298
-2.77887
-2.50774
-2.19509
-1.83632
-1.43197
-1.01849
-0.884803
-3.97125
-3.94225
-3.88421
-3.79695
-3.68017
-3.53321
-3.35491
-3.14324
-2.89475
-2.60397
-2.2626
-1.85885
-1.3748
-0.757427
0.351189
-4.16308
-4.13271
-4.07194
-3.98066
-3.85863
-3.70529
-3.51949
-3.29906
-3.03999
-2.73532
-2.37345
-1.93713
-1.41021
-0.837497
-0.748389
-4.376
-4.34428
-4.28085
-4.18573
-4.05885
-3.89991
-3.70813
-3.48171
-3.21692
-2.90641
-2.53599
-2.07835
-1.47742
-0.581727
1.31941
-4.61095
-4.57786
-4.51177
-4.41286
-4.28133
-4.11735
-3.92083
-3.691
-3.4256
-3.11909
-2.75909
-2.31908
-1.74932
-1.02418
-0.829472
-4.86888
-4.83436
-4.7655
-4.66264
-4.52635
-4.35739
-4.15665
-3.925
-3.66282
-3.36893
-3.03777
-2.64991
-2.12912
-1.09827
2.69382
-5.15079
-5.11472
-5.04283
-4.93564
-4.79407
-4.6195
-4.41394
-4.18021
-3.92207
-3.64465
-3.35582
-3.07307
-2.86312
-3.0899
-6.06756
-5.45775
-5.41996
-5.34466
-5.23252
-5.0847
-4.90312
-4.69081
-4.45236
-4.1947
-3.9283
-3.66966
-3.44566
-3.29386
-3.17117
-1.97865
-5.79096
-5.75124
-5.67209
-5.55418
-5.39877
-5.20809
-4.98583
-4.73787
-4.4734
-4.20658
-3.95943
-3.76812
-3.70437
-3.99539
-5.90298
-6.15175
-6.10991
-6.02644
-5.90187
-5.73734
-5.535
-5.29869
-5.03483
-4.75373
-4.47119
-4.21041
-4.00202
-3.8685
-3.69699
-2.31061
-6.54159
-6.49749
-6.40933
-6.27732
-6.10217
-5.8855
-5.63068
-5.34378
-5.03506
-4.72071
-4.42502
-4.18391
-4.05903
-4.24224
-5.88505
-6.96207
-6.91567
-6.82267
-6.68275
-6.49582
-6.26251
-5.98494
-5.66789
-5.32031
-4.95725
-4.60173
-4.28508
-4.0356
-3.77387
-2.47073
-7.41476
-7.36623
-7.26859
-7.12081
-6.92168
-6.67025
-6.36663
-6.01319
-5.61631
-5.18857
-4.75145
-4.33961
-4.02069
-4.02868
-5.62173
-7.90116
-7.85088
-7.74932
-7.59454
-7.38386
-7.11423
-6.78291
-6.38867
-5.93373
-5.42639
-4.88362
-4.32962
-3.77874
-3.18277
-2.40871
-8.42248
-8.37115
-8.26702
-8.10709
-7.88699
-7.60105
-7.24288
-6.80631
-6.28754
-5.68881
-5.0236
-4.31746
-3.56812
-2.46053
1.34186
-8.97943
-8.9281
-8.82345
-8.66144
-8.43582
-8.13805
-7.7573
-7.28104
-6.69687
-5.9974
-5.19201
-4.33529
-3.60628
-3.60968
-6.95664
-9.57204
-9.52208
-9.41973
-9.25996
-9.03476
-8.73266
-8.33804
-7.83071
-7.18628
-6.37955
-5.39606
-4.26444
-3.13581
-2.4369
-2.88978
-10.1993
-10.1524
-10.0559
-9.90391
-9.68712
-9.39152
-8.99706
-8.47559
-7.78839
-6.88446
-5.70299
-4.19151
-2.36693
-0.464278
0.862603
-10.8592
-10.8173
-10.7305
-10.5929
-10.3942
-10.119
-9.7443
-9.23554
-8.54102
-7.58209
-6.23908
-4.33602
-1.65227
1.90819
5.53644
-11.5482
-11.5132
-11.4405
-11.3242
-11.1544
-10.9157
-10.5846
-10.1245
-9.47727
-8.54646
-7.1641
-5.02268
-1.54642
4.23358
12.7299
-12.2615
-12.2354
-12.1808
-12.0927
-11.9624
-11.7766
-11.5145
-11.1434
-10.6104
-9.8244
-8.61625
-6.63631
-3.0404
4.67264
25.8236
-146.489
-88.0269
-61.542
-48.8876
-42.1106
-38.0639
-35.4356
-33.6242
-32.3262
-31.3755
-30.6748
-30.1647
-29.8079
-29.5813
-29.4712
-182.211
-82.3702
-54.6697
-43.9907
-38.6345
-35.4535
-33.361
-31.8954
-30.8293
-30.0385
-29.4497
-29.0178
-28.7139
-28.5202
-28.4258
46.9377
-26.6162
-35.9768
-35.3975
-33.6478
-32.0873
-30.851
-29.8891
-29.1413
-28.5612
-28.1157
-27.7818
-27.5435
-27.3901
-27.3149
-7.03899
-15.4409
-24.1865
-27.6172
-28.5296
-28.4959
-28.1505
-27.7342
-27.3368
-26.9904
-26.7043
-26.4796
-26.3142
-26.2056
-26.1519
25.9235
-4.02703
-16.0873
-21.5856
-24.0686
-25.1209
-25.4992
-25.5661
-25.497
-25.3776
-25.2503
-25.1361
-25.0454
-24.9831
-24.9515
-1.4196
-5.03691
-12.5448
-17.6481
-20.6009
-22.2142
-23.0641
-23.4924
-23.692
-23.7703
-23.7872
-23.7763
-23.7568
-23.7392
-23.7292
11.4703
-3.345
-10.6722
-15.2041
-18.0635
-19.8375
-20.9217
-21.5776
-21.9714
-22.2057
-22.3433
-22.4226
-22.4669
-22.4901
-22.4999
-3.07241
-6.85314
-10.7407
-13.9214
-16.2799
-17.9399
-19.0766
-19.8449
-20.3615
-20.7081
-20.9399
-21.0932
-21.1917
-21.2502
-21.2775
-14.9895
-10.2871
-11.3002
-13.2095
-14.9815
-16.4057
-17.4875