/*--------------------------------*- C++ -*----------------------------------*\
| =========                 |                                                 |
| \\      /  F ield         | OpenFOAM: The Open Source CFD Toolbox           |
|  \\    /   O peration     | Version:  5.x                                   |
|   \\  /    A nd           | Web:      www.OpenFOAM.org                      |
|    \\/     M anipulation  |                                                 |
\*---------------------------------------------------------------------------*/
FoamFile
{
    version     2.0;
    format      ascii;
    class       volScalarField;
    location    "6.5";
    object      gradTx;
}
// * * * * * * * * * * * * * * * * * * * * * * * * * * * * * * * * * * * * * //

dimensions      [0 -1 0 1 0 0 0];

internalField   nonuniform List<scalar> 
3200
(
45.2105
3.71188
1.64873
1.54018
0.814962
0.771374
0.466734
0.447277
0.293829
0.282723
0.170835
0.166692
0.180698
0.180847
0.173157
0.172316
0.159537
0.15842
0.144298
0.143115
0.128831
0.127661
0.113858
0.112763
0.100223
0.0993363
0.090162
0.090156
0.0950901
0.164779
0.0825128
0.0552677
0.0534392
0.0416899
0.0408627
0.0332643
0.0327054
0.0269879
0.0265583
0.0219993
0.0216527
0.0179131
0.0176254
0.0144769
0.0142297
0.0114608
0.0112337
0.00857013
0.00833129
0.00520686
0.00507602
0.00507582
0.00502824
0.00396324
0.00385016
0.00219939
0.00203391
-0.000272996
-0.000510439
-0.00386853
-0.00423093
-0.00949761
-0.0101028
-0.0191756
-0.0203236
-0.038182
-0.0408545
-0.0840474
-0.0929708
-0.238804
-0.617481
-0.436352
-0.68183
-0.7132
-1.26855
-1.24293
-0.0558102
-0.0075314
-0.00152587
-52.9462
47.8951
3.10523
1.5773
1.35451
0.774071
0.681015
0.436325
0.394723
0.271789
0.248196
0.160333
0.151487
0.160988
0.161196
0.155218
0.153445
0.143365
0.141001
0.129825
0.127318
0.116006
0.113527
0.102599
0.10028
0.0903754
0.088512
0.0814408
0.0815919
0.08838
0.137389
0.0766122
0.0516265
0.0475547
0.0380216
0.0362476
0.03019
0.0290013
0.0244604
0.0235482
0.0199309
0.0191953
0.0162289
0.0156184
0.0131206
0.0125959
0.0103982
0.00991593
0.00780028
0.00729617
0.00485771
0.00457972
0.00453484
0.00443088
0.0035902
0.00335057
0.00204147
0.00169011
-0.000143013
-0.000647738
-0.00331985
-0.00409104
-0.00828947
-0.00957979
-0.0168377
-0.0192963
-0.0336975
-0.0394869
-0.0750695
-0.0949923
-0.22715
-0.517872
-0.414976
-0.602238
-0.666826
-1.08532
-1.03166
-0.121877
-0.0209033
-0.00438767
-54.7423
50.5629
2.57644
1.45366
1.18314
0.713685
0.596721
0.397793
0.345422
0.245776
0.216239
0.146669
0.135549
0.14165
0.141792
0.137112
0.134907
0.126884
0.123934
0.115005
0.111874
0.102829
0.0997314
0.0909958
0.0881009
0.0802059
0.077896
0.0724308
0.0727623
0.079981
0.114391
0.06928
0.0471488
0.0418886
0.0340429
0.0318038
0.026921
0.0254314
0.0217877
0.0206463
0.0177472
0.0168272
0.0144504
0.0136869
0.0116854
0.011029
0.00926699
0.00866352
0.00696596
0.00633842
0.00442213
0.00407408
0.00399621
0.00386298
0.00319312
0.00289374
0.00184523
0.00140557
-6.61743e-05
-0.000698349
-0.00284721
-0.00381407
-0.00719765
-0.0088181
-0.0146918
-0.0177912
-0.0295574
-0.0369274
-0.066718
-0.0925245
-0.209153
-0.434008
-0.381994
-0.527554
-0.606296
-0.920979
-0.854644
-0.155592
-0.0308968
-0.00673315
-56.5383
53.21
2.11322
1.29593
1.01973
0.639199
0.515706
0.353399
0.298012
0.216958
0.185884
0.130668
0.118921
0.12255
0.122581
0.118906
0.116601
0.1102
0.107107
0.099953
0.0966661
0.0894133
0.0861611
0.0791587
0.0761214
0.0698129
0.0674062
0.0631889
0.0636572
0.0704943
0.0945736
0.0610284
0.0419962
0.0363259
0.0298398
0.0274657
0.0235163
0.0219475
0.0190149
0.0178148
0.0154844
0.0145173
0.0126074
0.0118049
0.0101963
0.00950636
0.00808941
0.00745485
0.00608883
0.0054322
0.00392381
0.00355762
0.00345979
0.00331654
0.00278121
0.00246687
0.00162462
0.0011623
-2.29258e-05
-0.0006883
-0.00242185
-0.00344044
-0.00617636
-0.00788629
-0.0126568
-0.0159395
-0.0255932
-0.0334712
-0.0585258
-0.0864238
-0.186827
-0.361218
-0.341109
-0.455543
-0.536328
-0.771877
-0.702934
-0.166332
-0.0368691
-0.00833308
-58.334
55.8357
1.70411
1.11655
0.860491
0.554431
0.436244
0.304728
0.251629
0.186141
0.156495
0.112927
0.101679
0.103594
0.103519
0.100645
0.0984595
0.0933845
0.0904419
0.0847464
0.0816168
0.0758377
0.0727408
0.067163
0.0642727
0.0592639
0.0569888
0.0537595
0.0542973
0.0603179
0.0770611
0.0521964
0.0363092
0.0307958
0.0254723
0.0231906
0.0200163
0.0185182
0.0161728
0.0150284
0.013167
0.0122451
0.01072
0.00995511
0.00867052
0.00801275
0.00688052
0.00627543
0.00518331
0.00456005
0.0033798
0.00303042
0.00292517
0.00278577
0.00236045
0.00206111
0.00138882
0.000947942
-4.78318e-07
-0.00063553
-0.0020251
-0.00299812
-0.00519612
-0.00683206
-0.0106814
-0.0138329
-0.0217001
-0.029328
-0.05022
-0.077423
-0.161542
-0.296209
-0.294843
-0.384877
-0.46017
-0.634954
-0.569931
-0.160787
-0.0388044
-0.00906446
-60.1295
58.4413
1.33869
0.92392
0.703253
0.462149
0.357314
0.25292
0.205741
0.15389
0.127663
0.0938944
0.0839094
0.0847184
0.0845681
0.0823562
0.0804333
0.0764833
0.073887
0.0694372
0.0666735
0.0621549
0.0594198
0.0550598
0.0525088
0.0486055
0.0466096
0.0441794
0.0447181
0.0497126
0.0612128
0.0430052
0.0302071
0.0252581
0.0209831
0.0189512
0.0164492
0.0151227
0.0132826
0.0122706
0.0108119
0.00999703
0.00880223
0.0081261
0.00711962
0.00653811
0.00565053
0.00511548
0.00425902
0.00371017
0.00280255
0.00249345
0.00239192
0.00226643
0.00193465
0.00167026
0.00114375
0.000753879
9.42854e-06
-0.000552585
-0.00164502
-0.00250681
-0.00423837
-0.0056893
-0.00873386
-0.0115378
-0.0178165
-0.0246541
-0.0416617
-0.0661456
-0.134235
-0.236641
-0.24492
-0.314802
-0.380032
-0.507624
-0.450693
-0.143755
-0.0370499
-0.00890238
-61.9246
61.0292
1.00748
0.723523
0.546832
0.364416
0.278367
0.198824
0.16004
0.120615
0.0991321
0.07391
0.0657085
0.0658807
0.0657
0.0640563
0.0624883
0.0595279
0.0574063
0.0540606
0.0518004
0.0484007
0.0461637
0.0428842
0.040799
0.0378707
0.0362478
0.0344805
0.0349606
0.038847
0.0465529
0.0335976
0.023791
0.0196933
0.0164042
0.0147306
0.0128351
0.0117478
0.0103593
0.00953074
0.00843116
0.00776414
0.0068637
0.00631029
0.00555171
0.00507569
0.00440644
0.00396838
0.00332243
0.00287463
0.00220135
0.00194817
0.00185961
0.00175534
0.00150614
0.00128989
0.000893206
0.000573995
1.20331e-05
-0.000448428
-0.00127417
-0.00198071
-0.00329184
-0.0044828
-0.00679596
-0.00910361
-0.0139106
-0.0195735
-0.0328044
-0.0531239
-0.105556
-0.180838
-0.192534
-0.244912
-0.2974
-0.387675
-0.341456
-0.118715
-0.0321532
-0.0079046
-63.7195
63.6028
0.701937
0.518834
0.39064
0.262828
0.19916
0.143097
0.114364
0.0866214
0.0707509
0.0532448
0.0471727
0.0470572
0.0468903
0.0457533
0.0445989
0.042539
0.0409745
0.0386406
0.0369729
0.0346
0.0329494
0.0306608
0.0291228
0.0270838
0.0258917
0.0246917
0.0250669
0.0278286
0.0327194
0.024064
0.0171466
0.0140963
0.0117606
0.0105188
0.0091886
0.00838496
0.0074136
0.00680168
0.00603306
0.00554057
0.00491127
0.00450268
0.00397249
0.003621
0.00315308
0.00282958
0.0023779
0.00204811
0.00158333
0.00139631
0.00132793
0.00125004
0.00107632
0.000916734
0.000639561
0.000403817
1.05738e-05
-0.000329663
-0.000908091
-0.00143043
-0.00235013
-0.00323141
-0.00485828
-0.00656948
-0.00997045
-0.0141902
-0.0236635
-0.0388178
-0.0759621
-0.127579
-0.138521
-0.175018
-0.213256
-0.273186
-0.239279
-0.0882267
-0.0247639
-0.00619404
-65.5142
66.1659
0.41419
0.311949
0.234433
0.158674
0.119648
0.0862773
0.0686495
0.0521531
0.0424352
0.0321222
0.0283985
0.0282356
0.0281195
0.0274509
0.0267458
0.0255302
0.0245735
0.0231939
0.0221736
0.0207705
0.0197605
0.0184075
0.0174667
0.0162629
0.0155359
0.0148399
0.0150777
0.016725
0.0194277
0.0144609
0.0103475
0.00847063
0.00707327
0.00631063
0.00552107
0.00502879
0.0044535
0.00407889
0.00362392
0.00332247
0.00295002
0.00269992
0.00238612
0.00217096
0.00189395
0.00169591
0.00142849
0.00122698
0.000954211
0.000839691
0.000796628
0.000748575
0.000645921
0.000548277
0.000384257
0.000239935
6.99161e-06
-0.000201374
-0.000544257
-0.000864261
-0.00140995
-0.0019502
-0.00291724
-0.00396776
-0.00599755
-0.00859669
-0.0142954
-0.0236321
-0.0457897
-0.0759463
-0.0834848
-0.105055
-0.128245
-0.16245
-0.141788
-0.0542352
-0.0155789
-0.00394189
-67.3086
68.7227
0.136912
0.104075
0.0781551
0.0530508
0.0399101
0.0288277
0.0228893
0.0174138
0.0141432
0.0107361
0.00948197
0.00941226
0.00937078
0.0091501
0.00891306
0.00851115
0.00818936
0.0077328
0.00738958
0.00692515
0.0065854
0.00613757
0.00582116
0.00542303
0.00517884
0.00495076
0.00503211
0.00557923
0.0064428
0.00482371
0.00345892
0.00282578
0.00236053
0.00210348
0.00184164
0.00167593
0.00148536
0.0013593
0.00120863
0.0011072
0.000983862
0.000899711
0.000795793
0.000723397
0.000631651
0.000565012
0.000476441
0.000408697
0.000318756
0.000280215
0.000265522
0.000249289
0.000215322
0.000182473
0.000128162
7.95972e-05
2.42466e-06
-6.77044e-05
-0.00018134
-0.000289063
-0.000469998
-0.00065192
-0.000972853
-0.00132687
-0.00200188
-0.00287923
-0.00478179
-0.00793351
-0.0152973
-0.0252187
-0.0278879
-0.0350266
-0.0427929
-0.0539094
-0.0469727
-0.0182879
-0.00531315
-0.00135216
-69.1029
68.7148
0.150881
0.128425
0.107468
0.0852113
0.0726964
0.0607377
0.0533356
0.0448796
0.0387601
0.0310031
0.0281916
0.0283044
0.0282024
0.0273686
0.0264705
0.0249546
0.0237679
0.0221239
0.0209304
0.0193742
0.0182787
0.0168921
0.0159465
0.0148017
0.014125
0.0135351
0.0138329
0.0155109
0.0180964
0.0137212
0.0100654
0.00838669
0.00717589
0.00650977
0.00583135
0.00539837
0.00489429
0.00455613
0.0041451
0.00386389
0.00351562
0.00327373
0.00296894
0.00275178
0.00246937
0.00225684
0.00196337
0.00172779
0.00140565
0.00129298
0.00131073
0.0013125
0.00127977
0.00124121
0.00117345
0.00111934
0.00104305
0.000986427
0.00091056
0.000853778
0.000775721
0.00071025
0.000607141
0.000493038
0.000266949
-7.6616e-05
-0.000894229
-0.00243371
-0.00622198
-0.0117924
-0.0150762
-0.0220622
-0.0294973
-0.0404415
-0.0360536
-0.0140901
-0.00409828
-0.00104332
-69.8074
66.1421
0.456012
0.385216
0.322455
0.255244
0.218067
0.182031
0.160049
0.134545
0.116346
0.0928114
0.0844578
0.0849217
0.0846366
0.0821083
0.0794362
0.0748508
0.071322
0.0663536
0.0628057
0.0581041
0.0548479
0.0506587
0.0478475
0.0443863
0.0423716
0.0405697
0.0414434
0.0464965
0.0545676
0.0411348
0.0301171
0.0251414
0.0215059
0.0195298
0.0174842
0.016198
0.0146762
0.0136713
0.0124301
0.0115944
0.0105426
0.00982372
0.00890333
0.00825795
0.00740532
0.00677376
0.0058878
0.00518685
0.00420856
0.00387374
0.00393284
0.00393887
0.00383954
0.00372481
0.00351981
0.00335891
0.00312837
0.00296005
0.00273092
0.00256219
0.00232666
0.00213226
0.00182187
0.0014836
0.000805549
-0.000210882
-0.00265381
-0.00721118
-0.0185946
-0.0354685
-0.0450805
-0.0661685
-0.0883514
-0.121938
-0.108864
-0.0417913
-0.0120174
-0.00304162
-69.4223
63.5619
0.771336
0.641685
0.537621
0.424076
0.363392
0.302762
0.266903
0.223919
0.194145
0.154013
0.140371
0.141569
0.141161
0.136854
0.132478
0.124705
0.118934
0.110527
0.104727
0.0967762
0.0914544
0.0843702
0.0797745
0.0739132
0.0706098
0.0674973
0.0688867
0.0773614
0.091899
0.0684518
0.0499272
0.0418425
0.0357695
0.0325527
0.0291068
0.027007
0.0244375
0.022796
0.0206989
0.0193335
0.0175563
0.0163818
0.0148267
0.0137724
0.0123325
0.0113009
0.00980485
0.00865702
0.00698576
0.00643875
0.00655707
0.00656948
0.00639993
0.00621203
0.00586441
0.00560128
0.00521121
0.00493613
0.00454887
0.00427328
0.00387597
0.00355892
0.00303772
0.00248776
0.0013577
-0.000288077
-0.0043288
-0.0117156
-0.0307477
-0.0594352
-0.0746257
-0.110231
-0.146749
-0.2053
-0.183834
-0.0680006
-0.0191045
-0.0047796
-69.037
60.9697
1.10393
0.897131
0.753165
0.590793
0.508715
0.422502
0.374042
0.312764
0.272358
0.214154
0.195691
0.198281
0.19784
0.191602
0.185657
0.174478
0.166651
0.154595
0.146735
0.135343
0.128131
0.117982
0.111752
0.103338
0.0988403
0.0942449
0.0960467
0.107984
0.13075
0.095572
0.0693197
0.0584632
0.049919
0.0455847
0.0406755
0.0378349
0.0341618
0.0319389
0.0289385
0.0270891
0.0245459
0.0229551
0.0207302
0.0193024
0.0172433
0.0158466
0.013708
0.0121481
0.009718
0.00897717
0.00918557
0.00920738
0.00896109
0.00870566
0.00820567
0.00784875
0.00728948
0.00691671
0.00636238
0.00598927
0.00542209
0.00499377
0.00425474
0.00351514
0.00193049
-0.000269453
-0.00586992
-0.0157541
-0.0425144
-0.0839416
-0.103354
-0.154257
-0.204266
-0.291863
-0.262578
-0.0915323
-0.0248088
-0.0060999
-68.6516
58.361
1.46127
1.15006
0.969446
0.754299
0.654203
0.540732
0.481694
0.400775
0.351283
0.272706
0.250169
0.255113
0.254752
0.246338
0.239044
0.224118
0.214537
0.198496
0.188884
0.173743
0.164926
0.151437
0.143817
0.132606
0.127075
0.120737
0.122801
0.138173
0.171919
0.122335
0.0880965
0.0749914
0.0639001
0.0586398
0.0521616
0.0486961
0.0438281
0.041113
0.0371322
0.0348726
0.0314975
0.0295539
0.0266017
0.0248576
0.0221277
0.020422
0.017588
0.0156741
0.0123827
0.0114776
0.0118216
0.011856
0.0115226
0.0112091
0.0105412
0.0101044
0.00936031
0.00890458
0.00816867
0.00771304
0.00696268
0.00644107
0.00547181
0.00457636
0.00252792
-0.000114778
-0.00723965
-0.0191176
-0.0536944
-0.109328
-0.130823
-0.198318
-0.260279
-0.383102
-0.346993
-0.110891
-0.0285925
-0.00687036
-68.2659
55.732
1.85137
1.39777
1.18711
0.913202
0.800226
0.656785
0.590222
0.487528
0.431372
0.329016
0.303548
0.312158
0.311986
0.30103
0.292737
0.273544
0.262682
0.24214
0.231254
0.21189
0.201908
0.184658
0.176026
0.161646
0.155342
0.146892
0.149024
0.167628
0.216421
0.148485
0.106028
0.0914392
0.0776481
0.0717438
0.0635273
0.0596135
0.0534083
0.0503377
0.045257
0.0427008
0.0383919
0.036193
0.0324251
0.0304524
0.0269711
0.0250427
0.0214313
0.0192552
0.014952
0.0139282
0.01447
0.0145195
0.0140834
0.0137268
0.0128676
0.0123723
0.0114197
0.0109037
0.00996379
0.00944864
0.00849416
0.00790631
0.00668596
0.00568372
0.00314916
0.000219222
-0.00841921
-0.0215731
-0.064032
-0.136081
-0.156452
-0.242601
-0.313857
-0.480697
-0.439408
-0.124098
-0.0299531
-0.006996
-67.8801
53.0798
2.28282
1.63576
1.4073
1.06567
0.947467
0.769763
0.700194
0.572419
0.513309
0.382251
0.355563
0.369555
0.369652
0.355616
0.346866
0.322637
0.311214
0.285398
0.273963
0.249662
0.23918
0.217534
0.208465
0.190364
0.183695
0.172625
0.174588
0.195875
0.265592
0.173616
0.122845
0.107855
0.0910807
0.0849403
0.0747209
0.0706227
0.0628633
0.059643
0.053281
0.0505991
0.045202
0.042895
0.0381767
0.0361075
0.0317525
0.0297307
0.0252173
0.0229215
0.0173902
0.0163162
0.0171381
0.0172023
0.0166411
0.0162646
0.0151794
0.0146585
0.0134616
0.0129198
0.011742
0.0112019
0.010011
0.00939689
0.00789143
0.00685243
0.00378626
0.00078161
-0.00941811
-0.0228563
-0.0731859
-0.1649
-0.179449
-0.28748
-0.363612
-0.586618
-0.542783
-0.128458
-0.0284661
-0.00643203
-67.494
50.4029
2.76477
1.85701
1.63202
1.2092
1.09709
0.878415
0.812495
0.654565
0.598123
0.431311
0.405952
0.427507
0.427882
0.40999
0.401614
0.371218
0.360322
0.32808
0.317187
0.286881
0.276899
0.249907
0.241266
0.218625
0.212224
0.197837
0.199379
0.222185
0.321232
0.197098
0.138231
0.124343
0.104088
0.0983001
0.0856699
0.0817785
0.0721368
0.0690741
0.0611578
0.0586062
0.0518886
0.0496936
0.0438224
0.0418542
0.0364407
0.0345185
0.0289146
0.0267173
0.0196501
0.0186284
0.0198367
0.0199103
0.0191915
0.0188308
0.0174688
0.0169719
0.0154774
0.0149614
0.0134947
0.0129812
0.0115049
0.0109232
0.00907829
0.00810227
0.00442095
0.00163186
-0.0102874
-0.0226637
-0.0806843
-0.196806
-0.198707
-0.333634
-0.407491
-0.703211
-0.660978
-0.120244
-0.0238609
-0.00519748
-67.1077
47.7023
3.30674
2.05095
1.86465
1.3403
1.25097
0.980957
0.928476
0.73265
0.687353
0.474713
0.454463
0.486307
0.486844
0.463983
0.457243
0.419019
0.410284
0.369909
0.361188
0.323287
0.315299
0.281546
0.274626
0.246237
0.241072
0.222411
0.223319
0.245446
0.385799
0.21797
0.151818
0.141085
0.116517
0.111934
0.0962694
0.0931644
0.0811473
0.0786995
0.0688203
0.06678
0.0583944
0.0566393
0.0493121
0.0477389
0.0409894
0.0394536
0.0324757
0.0307079
0.0216683
0.0208514
0.0225806
0.0226501
0.0217276
0.0214371
0.0197236
0.0193253
0.0174541
0.0170412
0.0152093
0.014799
0.012963
0.0125
0.0102305
0.00946037
0.00502001
0.00284737
-0.0111383
-0.0206453
-0.0858584
-0.23328
-0.212644
-0.38223
-0.442496
-0.833323
-0.799112
-0.0942563
-0.0161468
-0.00338715
-66.7213
44.9826
3.91813
2.20211
2.1108
1.454
1.41208
1.0748
1.05019
0.804715
0.783276
0.510419
0.500892
0.546358
0.546741
0.517332
0.514132
0.465641
0.461512
0.410472
0.406356
0.358498
0.354729
0.312113
0.308846
0.272919
0.270461
0.246203
0.246411
0.263979
0.462694
0.234776
0.163188
0.158381
0.128147
0.126011
0.106367
0.104907
0.0897752
0.0886222
0.0761693
0.0752078
0.0646352
0.0638081
0.0545718
0.0538307
0.0453296
0.0446066
0.0358286
0.0349895
0.0233576
0.0229727
0.0253911
0.0254295
0.0242385
0.0241005
0.0219259
0.0217376
0.0193725
0.0191777
0.0168672
0.016674
0.0143662
0.0141492
0.0113227
0.0109654
0.00552842
0.00453548
-0.0121683
-0.0163985
-0.0877441
-0.276476
-0.218971
-0.435199
-0.464278
-0.980435
-0.964072
-0.0431987
-0.0058188
-0.00117796
-66.3347
44.9825
3.91813
2.20211
2.1108
1.454
1.41208
1.0748
1.05019
0.804715
0.783276
0.510419
0.500892
0.546359
0.546742
0.517332
0.514132
0.465641
0.461512
0.410472
0.406356
0.358498
0.354729
0.312113
0.308846
0.272919
0.270461
0.246203
0.246411
0.263979
0.462695
0.234776
0.163189
0.158382
0.128147
0.126011
0.106367
0.104907
0.0897755
0.0886225
0.0761695
0.075208
0.0646354
0.0638083
0.054572
0.0538308
0.0453298
0.0446067
0.0358287
0.0349896
0.0233577
0.0229728
0.0253912
0.0254296
0.0242386
0.0241006
0.021926
0.0217377
0.0193726
0.0191778
0.0168673
0.0166741
0.0143663
0.0141494
0.0113228
0.0109655
0.00552861
0.00453568
-0.0121679
-0.016398
-0.0877427
-0.276473
-0.218968
-0.435196
-0.464274
-0.980431
-0.964068
-0.0431985
-0.00581877
-0.001178
-66.3347
47.7023
3.30674
2.05095
1.86465
1.3403
1.25097
0.980957
0.928476
0.73265
0.687353
0.474713
0.454464
0.486307
0.486844
0.463983
0.457244
0.419019
0.410285
0.369909
0.361188
0.323288
0.315299
0.281547
0.274627
0.246237
0.241072
0.222411
0.223319
0.245447
0.3858
0.217971
0.151818
0.141086
0.116517
0.111934
0.0962697
0.0931647
0.0811476
0.0786997
0.0688205
0.0667803
0.0583946
0.0566395
0.0493123
0.047739
0.0409895
0.0394538
0.0324758
0.030708
0.0216683
0.0208515
0.0225807
0.0226501
0.0217277
0.0214372
0.0197237
0.0193254
0.0174542
0.0170413
0.0152094
0.0147991
0.0129631
0.0125002
0.0102306
0.0094605
0.00502018
0.00284757
-0.0111379
-0.0206448
-0.0858571
-0.233277
-0.212641
-0.382227
-0.442492
-0.833319
-0.799108
-0.0942558
-0.0161467
-0.00338717
-66.7213
50.4029
2.76477
1.85701
1.63202
1.2092
1.09709
0.878415
0.812495
0.654565
0.598123
0.431311
0.405952
0.427507
0.427882
0.40999
0.401614
0.371218
0.360323
0.328081
0.317187
0.286881
0.276899
0.249907
0.241266
0.218625
0.212224
0.197837
0.199379
0.222186
0.321233
0.197099
0.138231
0.124343
0.104088
0.0983004
0.0856701
0.0817787
0.0721371
0.0690743
0.0611581
0.0586064
0.0518888
0.0496938
0.0438226
0.0418544
0.0364409
0.0345186
0.0289147
0.0267174
0.0196502
0.0186284
0.0198367
0.0199104
0.0191916
0.0188309
0.0174689
0.016972
0.0154775
0.0149615
0.0134948
0.0129813
0.011505
0.0109233
0.0090784
0.00810238
0.0044211
0.00163205
-0.010287
-0.0226632
-0.080683
-0.196803
-0.198705
-0.333631
-0.407488
-0.703208
-0.660975
-0.120243
-0.0238607
-0.00519746
-67.1077
53.0797
2.28281
1.63576
1.4073
1.06567
0.947467
0.769763
0.700194
0.572419
0.513309
0.382251
0.355563
0.369555
0.369652
0.355616
0.346866
0.322638
0.311215
0.285398
0.273963
0.249662
0.23918
0.217534
0.208466
0.190365
0.183695
0.172625
0.174588
0.195876
0.265593
0.173616
0.122845
0.107856
0.091081
0.0849405
0.0747212
0.0706229
0.0628635
0.0596432
0.0532812
0.0505993
0.0452022
0.0428952
0.0381768
0.0361077
0.0317527
0.0297308
0.0252174
0.0229216
0.0173902
0.0163162
0.0171382
0.0172024
0.0166412
0.0162647
0.0151795
0.0146586
0.0134617
0.0129199
0.0117421
0.0112019
0.0100111
0.00939698
0.00789152
0.00685253
0.0037864
0.000781784
-0.00941779
-0.0228558
-0.0731848
-0.164898
-0.179447
-0.287477
-0.363609
-0.586614
-0.54278
-0.128457
-0.0284659
-0.00643196
-67.494
55.732
1.85137
1.39777
1.18711
0.913202
0.800226
0.656785
0.590222
0.487528
0.431372
0.329016
0.303548
0.312158
0.311986
0.30103
0.292737
0.273545
0.262682
0.24214
0.231254
0.21189
0.201908
0.184658
0.176027
0.161647
0.155342
0.146893
0.149024
0.167628
0.216421
0.148485
0.106028
0.0914395
0.0776483
0.071744
0.0635275
0.0596137
0.0534085
0.0503379
0.0452572
0.0427009
0.0383921
0.0361932
0.0324252
0.0304525
0.0269712
0.0250428
0.0214314
0.0192553
0.0149521
0.0139282
0.01447
0.0145195
0.0140835
0.0137268
0.0128677
0.0123724
0.0114197
0.0109038
0.00996386
0.00944871
0.00849424
0.00790638
0.00668604
0.00568381
0.00314928
0.000219373
-0.00841895
-0.0215727
-0.0640311
-0.136079
-0.15645
-0.242599
-0.313855
-0.480695
-0.439406
-0.124097
-0.0299528
-0.00699589
-67.8801
58.361
1.46127
1.15006
0.969446
0.754299
0.654203
0.540732
0.481694
0.400775
0.351283
0.272706
0.250169
0.255113
0.254752
0.246339
0.239044
0.224118
0.214537
0.198496
0.188884
0.173743
0.164926
0.151438
0.143818
0.132606
0.127075
0.120737
0.122802
0.138174
0.171919
0.122336
0.0880968
0.0749916
0.0639003
0.05864
0.0521618
0.0486963
0.0438282
0.0411131
0.0371323
0.0348727
0.0314976
0.029554
0.0266018
0.0248577
0.0221277
0.0204221
0.0175881
0.0156742
0.0123828
0.0114777
0.0118216
0.0118561
0.0115227
0.0112092
0.0105413
0.0101044
0.00936038
0.00890464
0.00816873
0.0077131
0.00696274
0.00644113
0.00547187
0.00457643
0.00252802
-0.000114653
-0.00723943
-0.0191173
-0.0536936
-0.109327
-0.130822
-0.198317
-0.260277
-0.3831
-0.346991
-0.11089
-0.0285922
-0.00687023
-68.2659
60.9697
1.10393
0.89713
0.753165
0.590793
0.508715
0.422502
0.374042
0.312764
0.272358
0.214154
0.195691
0.198281
0.19784
0.191602
0.185657
0.174479
0.166651
0.154595
0.146735
0.135343
0.128132
0.117982
0.111752
0.103338
0.0988404
0.094245
0.0960469
0.107984
0.13075
0.0955722
0.0693199
0.0584633
0.0499191
0.0455848
0.0406757
0.037835
0.0341619
0.031939
0.0289386
0.0270892
0.024546
0.0229552
0.0207302
0.0193025
0.0172434
0.0158467
0.0137081
0.0121482
0.00971804
0.0089772
0.0091856
0.00920742
0.00896113
0.0087057
0.00820571
0.0078488
0.00728953
0.00691675
0.00636243
0.00598931
0.00542214
0.00499381
0.00425479
0.0035152
0.00193056
-0.000269356
-0.00586975
-0.0157539
-0.0425138
-0.0839405
-0.103353
-0.154256
-0.204264
-0.291862
-0.262577
-0.0915317
-0.0248086
-0.00609976
-68.6516
63.5619
0.771334
0.641684
0.53762
0.424076
0.363392
0.302762
0.266903
0.223919
0.194145
0.154013
0.140371
0.141569
0.141161
0.136854
0.132478
0.124705
0.118934
0.110527
0.104727
0.0967762
0.0914545
0.0843702
0.0797746
0.0739132
0.0706099
0.0674974
0.0688868
0.0773616
0.0918992
0.068452
0.0499273
0.0418426
0.0357696
0.0325527
0.0291069
0.0270071
0.0244376
0.022796
0.020699
0.0193336
0.0175564
0.0163818
0.0148268
0.0137725
0.0123325
0.0113009
0.00980489
0.00865705
0.00698578
0.00643877
0.0065571
0.0065695
0.00639996
0.00621206
0.00586445
0.00560132
0.00521125
0.00493616
0.00454891
0.00427332
0.00387601
0.00355895
0.00303775
0.0024878
0.00135775
-0.000288008
-0.00432868
-0.0117154
-0.0307472
-0.0594344
-0.0746249
-0.11023
-0.146748
-0.205299
-0.183833
-0.0680001
-0.0191043
-0.00477948
-69.037
66.1421
0.456011
0.385215
0.322455
0.255244
0.218067
0.182031
0.160049
0.134545
0.116346
0.0928114
0.0844578
0.0849217
0.0846366
0.0821083
0.0794362
0.0748508
0.071322
0.0663536
0.0628057
0.0581041
0.0548479
0.0506587
0.0478476
0.0443864
0.0423717
0.0405697
0.0414434
0.0464966
0.0545677
0.0411349
0.0301172
0.0251414
0.0215059
0.0195299
0.0174843
0.016198
0.0146763
0.0136713
0.0124302
0.0115944
0.0105426
0.00982375
0.00890336
0.00825798
0.00740535
0.00677379
0.00588783
0.00518687
0.00420858
0.00387375
0.00393285
0.00393889
0.00383955
0.00372482
0.00351983
0.00335893
0.00312839
0.00296007
0.00273094
0.00256221
0.00232668
0.00213228
0.00182189
0.00148362
0.000805578
-0.000210842
-0.00265374
-0.00721106
-0.0185944
-0.0354681
-0.04508
-0.0661679
-0.0883508
-0.121937
-0.108863
-0.041791
-0.0120173
-0.00304153
-69.4223
68.7148
0.150881
0.128425
0.107468
0.0852113
0.0726964
0.0607377
0.0533356
0.0448796
0.0387601
0.0310031
0.0281916
0.0283044
0.0282024
0.0273686
0.0264705
0.0249547
0.0237679
0.0221239
0.0209304
0.0193742
0.0182788
0.0168921
0.0159465
0.0148017
0.014125
0.0135351
0.0138329
0.015511
0.0180964
0.0137212
0.0100654
0.00838671
0.0071759
0.00650978
0.00583136
0.00539839
0.0048943
0.00455614
0.00414511
0.0038639
0.00351563
0.00327374
0.00296895
0.00275179
0.00246938
0.00225685
0.00196338
0.0017278
0.00140565
0.00129299
0.00131073
0.0013125
0.00127977
0.00124122
0.00117346
0.00111935
0.00104306
0.000986433
0.000910565
0.000853784
0.000775727
0.000710256
0.000607148
0.000493046
0.000266958
-7.66031e-05
-0.000894207
-0.00243367
-0.0062219
-0.0117922
-0.015076
-0.022062
-0.0294971
-0.0404412
-0.0360534
-0.01409
-0.00409824
-0.00104329
-69.8074
68.7223
0.136744
0.103797
0.0777617
0.0524436
0.0390543
0.0275032
0.0210895
0.0150024
0.0125849
0.011923
0.011573
0.0110199
0.0105818
0.00996792
0.009522
0.00893971
0.00852173
0.00797854
0.0075876
0.00707803
0.00671264
0.00623951
0.00590837
0.0054953
0.0052425
0.00500617
0.00508469
0.00563314
0.00650223
0.00486666
0.00348832
0.00284895
0.00237924
0.00211979
0.00185562
0.00168847
0.00149631
0.00136922
0.00121736
0.00111513
0.00099086
0.00090608
0.000801402
0.000728485
0.000636092
0.000568991
0.000479816
0.000411614
0.000321073
0.000282305
0.000267596
0.000251335
0.000217277
0.00018434
0.00012989
8.12182e-05
3.90168e-06
-6.63302e-05
-0.000180098
-0.000287912
-0.000468962
-0.000650962
-0.000971993
-0.00132607
-0.00200116
-0.00287856
-0.00478117
-0.0079329
-0.0152967
-0.025218
-0.0278873
-0.0350262
-0.0427926
-0.0539091
-0.0469725
-0.0182878
-0.00531312
-0.00135212
-69.1029
66.1647
0.413688
0.311115
0.233256
0.156854
0.117089
0.0823041
0.0632553
0.0448605
0.0376846
0.0357566
0.0347272
0.033055
0.0317523
0.029897
0.0285715
0.0268125
0.0255702
0.0239295
0.0227675
0.0212283
0.0201422
0.0187129
0.0177284
0.0164795
0.0157269
0.0150059
0.0152353
0.0168866
0.0196069
0.0145897
0.0104354
0.00854007
0.00712931
0.00635957
0.00556296
0.00506642
0.00448632
0.00410866
0.00365008
0.00334628
0.002971
0.00271904
0.00240293
0.00218623
0.00190726
0.00170785
0.00143861
0.00123573
0.000961148
0.000845952
0.000802849
0.000754717
0.000651786
0.00055388
0.000389438
0.0002448
1.14211e-05
-0.00019725
-0.000540532
-0.000860807
-0.00140685
-0.00194733
-0.00291466
-0.00396537
-0.0059954
-0.00859468
-0.0142935
-0.0236302
-0.0457877
-0.075944
-0.0834831
-0.105054
-0.128244
-0.16245
-0.141787
-0.054235
-0.0155788
-0.00394177
-67.3086
63.6007
0.701102
0.517444
0.388693
0.259798
0.194925
0.136475
0.105395
0.0742698
0.0625744
0.0595542
0.0579071
0.0550753
0.0529449
0.049805
0.0476382
0.0446647
0.0426346
0.0398614
0.0379626
0.0353605
0.0335855
0.0311684
0.029559
0.0274438
0.0262099
0.0249677
0.025329
0.0280973
0.033021
0.0242782
0.0172921
0.0142118
0.0118537
0.0106004
0.00925831
0.00844771
0.00746823
0.00685133
0.00607661
0.00558029
0.0049462
0.00453455
0.00400049
0.00364647
0.00317525
0.00284951
0.00239474
0.00206272
0.00159484
0.00140671
0.0013383
0.00126029
0.00108609
0.00092608
0.000648192
0.00041193
1.79507e-05
-0.000322786
-0.000901887
-0.00142467
-0.00234496
-0.00322662
-0.00485399
-0.0065655
-0.00996687
-0.0141868
-0.0236604
-0.0388147
-0.0759587
-0.127575
-0.138518
-0.175016
-0.213254
-0.273185
-0.239278
-0.0882263
-0.0247637
-0.00619387
-65.5141
61.0263
1.00632
0.721577
0.544135
0.360181
0.272505
0.189552
0.147537
0.102902
0.0871171
0.083297
0.0811343
0.0770676
0.0741779
0.069674
0.0667373
0.0624792
0.0597287
0.0557583
0.0531857
0.0494596
0.0470545
0.0435916
0.0414098
0.0383729
0.0366933
0.0348653
0.0353264
0.0392217
0.0469818
0.0338964
0.0239926
0.0198546
0.016534
0.0148448
0.0129324
0.0118357
0.0104356
0.0096003
0.008492
0.00781979
0.0069125
0.00635496
0.00559083
0.00511139
0.00443741
0.00399632
0.00334596
0.00289514
0.00221735
0.00196268
0.00187414
0.0017697
0.00151983
0.00130299
0.000905278
0.000585365
2.2348e-05
-0.00043879
-0.0012655
-0.00197264
-0.00328461
-0.00447608
-0.00678995
-0.00909804
-0.0139056
-0.0195688
-0.0328
-0.0531196
-0.105551
-0.180832
-0.19253
-0.244909
-0.297397
-0.387673
-0.341454
-0.118714
-0.032153
-0.00790441
-63.7195
58.4376
1.3372
0.921418
0.699838
0.456714
0.349895
0.240991
0.189783
0.13038
0.111181
0.106973
0.104438
0.0990127
0.0954755
0.0894803
0.0858892
0.0802333
0.0768717
0.0715992
0.068455
0.0635058
0.0605659
0.0559636
0.0532948
0.0492476
0.0471827
0.0446713
0.0451864
0.0501915
0.0617763
0.0433874
0.0304624
0.0254647
0.0211489
0.0190981
0.0165738
0.0152359
0.0133804
0.0123602
0.0108899
0.0100687
0.0088648
0.00818362
0.00716978
0.00658408
0.00569025
0.00515149
0.0042892
0.00373663
0.00282292
0.002512
0.0024106
0.00228493
0.00195224
0.00168714
0.00115925
0.000768521
2.26662e-05
-0.000540175
-0.00163389
-0.00249642
-0.00422909
-0.00568065
-0.00872615
-0.0115306
-0.0178101
-0.0246481
-0.0416561
-0.06614
-0.134229
-0.236634
-0.244915
-0.314798
-0.380029
-0.507622
-0.450692
-0.143755
-0.0370497
-0.00890219
-61.9246
55.8313
1.70232
1.11349
0.856402
0.547794
0.427368
0.290123
0.232357
0.15625
0.134646
0.130583
0.127857
0.120882
0.116871
0.10919
0.105124
0.0978957
0.094091
0.087355
0.0837965
0.0774717
0.0741436
0.0682583
0.0652349
0.0600431
0.0576899
0.0543562
0.0548668
0.0608982
0.0777698
0.0526597
0.0366151
0.0310476
0.0256733
0.0233703
0.0201678
0.0186567
0.0162918
0.015138
0.0132619
0.0123329
0.0107962
0.0100256
0.00873159
0.00806909
0.00692888
0.0063196
0.00522003
0.00459256
0.00340438
0.00305294
0.00294803
0.00280844
0.00238194
0.00208178
0.00140773
0.000965877
1.56589e-05
-0.00062033
-0.00201154
-0.0029854
-0.00518482
-0.00682147
-0.010672
-0.0138242
-0.0216923
-0.0293206
-0.0502132
-0.0774163
-0.161535
-0.2962
-0.294837
-0.384873
-0.460166
-0.634952
-0.569929
-0.160786
-0.0388042
-0.00906429
-60.1294
53.2048
2.11112
1.29229
1.01503
0.631347
0.505514
0.336075
0.275664
0.17994
0.157409
0.154139
0.151446
0.142634
0.138414
0.128756
0.124485
0.115421
0.111428
0.102984
0.0992486
0.0913176
0.0878237
0.0804384
0.0772618
0.070725