/*--------------------------------*- C++ -*----------------------------------*\
| =========                 |                                                 |
| \\      /  F ield         | OpenFOAM: The Open Source CFD Toolbox           |
|  \\    /   O peration     | Version:  5.x                                   |
|   \\  /    A nd           | Web:      www.OpenFOAM.org                      |
|    \\/     M anipulation  |                                                 |
\*---------------------------------------------------------------------------*/
FoamFile
{
    version     2.0;
    format      ascii;
    class       volScalarField;
    location    "6.5";
    object      gradTy;
}
// * * * * * * * * * * * * * * * * * * * * * * * * * * * * * * * * * * * * * //

dimensions      [0 -1 0 1 0 0 0];

internalField   nonuniform List<scalar> 
3200
(
18.2493
8.63603
11.7301
8.31263
9.75004
8.04005
8.79424
7.793
8.2419
7.60107
7.87647
7.5176
7.72805
7.31773
7.52997
7.13971
7.33888
6.98032
7.16209
6.83818
7.0015
6.71256
6.85764
6.60251
6.73052
6.50637
6.62062
6.42099
6.53597
6.36684
6.23169
6.31884
6.20037
6.25802
6.16587
6.21051
6.13654
6.17244
6.11232
6.14152
6.09248
6.11627
6.07633
6.09563
6.06335
6.07879
6.05323
6.06512
6.04602
6.0542
6.04313
6.04926
6.03771
6.04308
6.03417
6.03778
6.03289
6.03392
6.0346
6.03192
6.04069
6.03234
6.0537
6.03587
6.07867
6.04281
6.12655
6.04838
6.22319
6.00078
6.29316
7.10885
6.42161
7.9476
6.78057
9.89612
9.12552
9.00768
8.98335
8.97811
17.0097
9.75198
11.3325
8.77662
9.54727
8.27024
8.67401
7.92554
8.16473
7.68527
7.83231
7.56444
7.6766
7.3692
7.48132
7.18897
7.29428
7.02571
7.12185
6.87924
6.96564
6.74923
6.826
6.63492
6.70268
6.53483
6.59548
6.44618
6.50851
6.37063
6.25657
6.30447
6.21598
6.24671
6.17774
6.20142
6.14603
6.16505
6.12003
6.13549
6.09877
6.11136
6.08145
6.09167
6.0675
6.07567
6.05653
6.06282
6.04851
6.05285
6.04458
6.04784
6.03918
6.04202
6.03533
6.03723
6.03356
6.03409
6.0346
6.03315
6.0397
6.03524
6.0512
6.04166
6.07362
6.05432
6.11675
6.07396
6.20339
6.07619
6.35165
6.99356
6.62344
7.76493
7.15796
9.5028
9.09937
9.00389
8.98254
8.97786
16.0603
10.5144
11.1003
9.10751
9.42637
8.43315
8.59983
8.01852
8.11627
7.74437
7.80471
7.59604
7.64188
7.40385
7.44881
7.22229
7.26459
7.05647
7.09512
6.90711
6.94186
6.77414
6.80503
6.65694
6.68423
6.55413
6.5787
6.46287
6.48903
6.37344
6.27495
6.29552
6.2268
6.23938
6.18589
6.19547
6.15252
6.1602
6.1253
6.13153
6.10306
6.10814
6.08496
6.08907
6.07033
6.07362
6.05879
6.06132
6.05023
6.052
6.04556
6.04689
6.04019
6.04132
6.03614
6.0369
6.03406
6.03426
6.03466
6.03406
6.03915
6.03731
6.04972
6.04578
6.07062
6.06256
6.11114
6.09264
6.19386
6.13548
6.39547
6.91875
6.76481
7.65223
7.4173
9.21946
9.06094
8.99718
8.98111
8.97746
15.3328
11.0315
10.9712
9.34594
9.35795
8.54967
8.55556
8.08435
8.0866
7.78617
7.78787
7.61746
7.61852
7.42719
7.42716
7.24485
7.24492
7.07735
7.07746
6.92606
6.92617
6.79111
6.79122
6.67194
6.67208
6.56723
6.56754
6.47388
6.47522
6.37556
6.28857
6.29014
6.23437
6.23468
6.19152
6.19161
6.15699
6.15705
6.12892
6.12896
6.10602
6.10605
6.08737
6.08739
6.07229
6.07231
6.06036
6.06037
6.05145
6.05147
6.04623
6.04626
6.04088
6.04087
6.03672
6.03671
6.03443
6.03442
6.03476
6.03473
6.03887
6.03881
6.04888
6.04874
6.06893
6.06853
6.10822
6.10653
6.19071
6.18204
6.42876
6.87103
6.86452
7.58442
7.59515
9.01454
9.01871
8.98857
8.97918
8.97691
14.7774
11.3789
10.9047
9.51887
9.32234
8.63362
8.53038
8.13123
8.06903
7.81589
7.77792
7.63203
7.60286
7.44287
7.41279
7.26012
7.23196
7.09153
7.06586
6.93896
6.91589
6.80266
6.78219
6.68217
6.66412
6.57613
6.56014
6.48108
6.46545
6.37718
6.29864
6.28706
6.2397
6.23172
6.19541
6.18915
6.16008
6.15502
6.13142
6.1273
6.10805
6.1047
6.08903
6.08631
6.07364
6.07147
6.06145
6.05977
6.0523
6.05116
6.04669
6.04584
6.04135
6.04059
6.03712
6.03661
6.03472
6.03456
6.03488
6.03524
6.03876
6.03991
6.04845
6.05089
6.06807
6.0729
6.10695
6.11699
6.19127
6.21838
6.45423
6.84127
6.93518
7.54497
7.71666
8.86624
8.97786
8.97912
8.97696
8.97627
14.3579
11.6094
10.8747
9.64423
9.30642
8.69416
8.51704
8.16464
8.0591
7.837
7.77228
7.64192
7.59243
7.45335
7.40334
7.27041
7.22348
7.10112
7.0583
6.94769
6.90922
6.81051
6.77633
6.68912
6.65897
6.58215
6.55526
6.48576
6.45858
6.3784
6.30604
6.28541
6.24345
6.22989
6.1981
6.18759
6.1622
6.15374
6.13313
6.12625
6.10945
6.10385
6.09017
6.08563
6.07458
6.07094
6.06221
6.05941
6.0529
6.05098
6.04701
6.04557
6.04168
6.04041
6.03741
6.03656
6.03493
6.03469
6.03499
6.03562
6.03875
6.04071
6.04827
6.05246
6.0677
6.0761
6.10665
6.12488
6.19372
6.24637
6.47366
6.82323
6.9852
7.52305
7.79905
8.75945
8.94143
8.96981
8.97468
8.97561
14.0483
11.7593
10.8645
9.73389
9.30148
8.73728
8.51071
8.18817
8.05383
7.85182
7.76927
7.64857
7.58558
7.46027
7.39719
7.27725
7.21802
7.10753
7.05346
6.95355
6.90496
6.81577
6.7726
6.69378
6.65567
6.58617
6.55208
6.48873
6.45383
6.37931
6.31136
6.28461
6.24606
6.2288
6.19995
6.18664
6.16364
6.15295
6.1343
6.1256
6.1104
6.10332
6.09095
6.0852
6.07521
6.07062
6.06273
6.05919
6.05332
6.05088
6.04722
6.04539
6.0419
6.04031
6.03761
6.03654
6.03509
6.03479
6.0351
6.03591
6.03878
6.04129
6.04822
6.05358
6.0676
6.07842
6.10683
6.13074
6.19682
6.26738
6.48819
6.81269
7.02019
7.51161
7.85407
8.6838
8.91114
8.96144
8.97257
8.97498
13.8303
11.8535
10.8638
9.79561
9.30181
8.7669
8.50821
8.20417
8.05126
7.86186
7.76778
7.65292
7.58123
7.4647
7.39332
7.28167
7.21461
7.11168
7.05045
6.95735
6.90231
6.8192
6.7703
6.69681
6.65364
6.58877
6.55008
6.49057
6.45066
6.37996
6.31504
6.28428
6.24782
6.22817
6.20116
6.18607
6.16459
6.15247
6.13506
6.12521
6.11103
6.103
6.09146
6.08495
6.07563
6.07043
6.06307
6.05906
6.0536
6.05083
6.04736
6.04528
6.04205
6.04025
6.03775
6.03654
6.0352
6.03487
6.03518
6.03611
6.03883
6.04169
6.04824
6.05435
6.06763
6.08003
6.1072
6.13492
6.19974
6.28237
6.49857
6.80683
7.04382
7.50612
7.88959
8.63224
8.88793
8.95464
8.9708
8.97445
13.6913
11.9082
10.8662
9.83436
9.30378
8.78547
8.50753
8.21413
8.05016
7.86809
7.76712
7.65554
7.57866
7.46732
7.39107
7.2843
7.21264
7.11416
7.04871
6.95963
6.90079
6.82125
6.76897
6.69863
6.65247
6.59033
6.5489
6.49163
6.44873
6.38038
6.31734
6.28418
6.24891
6.22783
6.20191
6.18575
6.16517
6.1522
6.13553
6.12499
6.11141
6.10282
6.09177
6.08481
6.07589
6.07032
6.06328
6.059
6.05377
6.0508
6.04745
6.04522
6.04214
6.04022
6.03783
6.03655
6.03528
6.03493
6.03524
6.03624
6.03887
6.04194
6.04827
6.05484
6.0677
6.08105
6.10754
6.13761
6.20195
6.29203
6.50527
6.80383
7.05844
7.50379
7.91075
8.60017
8.87228
8.94986
8.96954
8.97407
13.6237
11.9332
10.8682
9.85305
9.30526
8.79443
8.50747
8.2189
8.04977
7.87107
7.76688
7.65678
7.57748
7.46854
7.39003
7.28553
7.21173
7.11533
7.04792
6.96069
6.9001
6.82221
6.76837
6.69949
6.65193
6.59106
6.54836
6.49211
6.44781
6.38058
6.31846
6.28416
6.24943
6.22768
6.20226
6.18561
6.16544
6.15208
6.13575
6.12489
6.11159
6.10275
6.09192
6.08475
6.07601
6.07028
6.06338
6.05897
6.05386
6.05079
6.04749
6.04519
6.04218
6.0402
6.03787
6.03655
6.03531
6.03495
6.03526
6.0363
6.03889
6.04206
6.04829
6.05507
6.06774
6.08155
6.10774
6.13893
6.20313
6.29676
6.50856
6.80258
7.06542
7.50299
7.92061
8.58479
8.86442
8.9474
8.96888
8.97387
-13.7604
-11.955
-10.726
-9.38677
-8.57635
-7.68449
-7.12253
-6.47065
-6.05561
-5.57352
-5.28008
-4.95445
-4.71684
-4.38832
-4.15264
-3.84094
-3.62311
-3.34191
-3.14766
-2.89952
-2.72898
-2.51213
-2.36335
-2.17438
-2.04438
-1.87844
-1.76189
-1.60791
-1.48551
-1.29788
-1.12219
-1.0236
-0.921278
-0.855957
-0.777869
-0.725759
-0.661291
-0.617777
-0.563439
-0.52664
-0.480563
-0.449349
-0.410272
-0.383862
-0.35091
-0.328813
-0.301537
-0.28366
-0.262281
-0.249087
-0.23421
-0.223253
-0.207992
-0.196996
-0.182396
-0.172166
-0.158929
-0.149775
-0.138072
-0.130043
-0.119865
-0.112963
-0.104353
-0.0987503
-0.0922078
-0.0888671
-0.0868453
-0.0903046
-0.104585
-0.138529
-0.228669
-0.374834
-0.529452
-0.815987
-1.1187
-1.62788
-1.84328
-1.90729
-1.92386
-1.92771
-13.8327
-11.9319
-10.7304
-9.36562
-8.57961
-7.6713
-7.12614
-6.46118
-6.0583
-5.56598
-5.28138
-4.95094
-4.72048
-4.38461
-4.15569
-3.83719
-3.62565
-3.33844
-3.14982
-2.89642
-2.73083
-2.50941
-2.36496
-2.17202
-2.04582
-1.87647
-1.76339
-1.60665
-1.48812
-1.2974
-1.11911
-1.02375
-0.919801
-0.85647
-0.776833
-0.726256
-0.660456
-0.618213
-0.562739
-0.527013
-0.47997
-0.449665
-0.409767
-0.384125
-0.350478
-0.329022
-0.301162
-0.283802
-0.261955
-0.249156
-0.234054
-0.223427
-0.207823
-0.197142
-0.182222
-0.172288
-0.158767
-0.149878
-0.137926
-0.13013
-0.119735
-0.113032
-0.104233
-0.0987887
-0.0920805
-0.0888151
-0.0866267
-0.0898724
-0.1038
-0.136282
-0.226428
-0.374496
-0.524176
-0.81534
-1.11044
-1.63963
-1.84934
-1.90919
-1.92437
-1.92787
-13.9809
-11.8809
-10.7413
-9.32133
-8.58777
-7.64359
-7.13453
-6.44123
-6.06457
-5.55014
-5.28451
-4.94343
-4.72834
-4.37663
-4.16232
-3.82916
-3.63122
-3.33102
-3.15457
-2.88982
-2.73493
-2.50362
-2.36851
-2.167
-2.04899
-1.87225
-1.76664
-1.60387
-1.49363
-1.29643
-1.11271
-1.02425
-0.916702
-0.857638
-0.774636
-0.727364
-0.65868
-0.619179
-0.561252
-0.527842
-0.47871
-0.450368
-0.408693
-0.384711
-0.349559
-0.329489
-0.30037
-0.284124
-0.261269
-0.249318
-0.233721
-0.223801
-0.207458
-0.197458
-0.18185
-0.172554
-0.158421
-0.150105
-0.137615
-0.130321
-0.119458
-0.113186
-0.103981
-0.0988786
-0.0918163
-0.0887208
-0.0861916
-0.0890137
-0.102272
-0.131729
-0.221871
-0.374094
-0.51324
-0.814536
-1.09281
-1.66416
-1.86139
-1.91287
-1.92534
-1.92816
-14.2132
-11.7915
-10.7635
-9.24959
-8.60436
-7.59848
-7.15031
-6.40863
-6.07635
-5.52435
-5.29066
-4.93088
-4.74167
-4.36316
-4.17371
-3.81573
-3.64088
-3.31867
-3.16287
-2.87882
-2.74208
-2.49398
-2.37473
-2.15865
-2.05451
-1.86519
-1.77219
-1.59899
-1.50261
-1.29493
-1.10251
-1.02551
-0.911666
-0.859767
-0.771014
-0.729331
-0.655739
-0.620886
-0.558787
-0.529301
-0.476621
-0.451605
-0.406915
-0.385745
-0.34804
-0.330319
-0.299064
-0.284713
-0.260148
-0.249628
-0.233163
-0.224433
-0.20684
-0.198
-0.181227
-0.173015
-0.157843
-0.150499
-0.137097
-0.130657
-0.118998
-0.113458
-0.103565
-0.0990477
-0.0913944
-0.0886048
-0.0855432
-0.0877383
-0.100098
-0.124748
-0.214831
-0.374215
-0.495818
-0.814652
-1.06347
-1.70366
-1.87926
-1.91811
-1.9267
-1.92857
-14.5423
-11.6463
-10.8051
-9.14311
-8.63538
-7.53106
-7.17783
-6.35965
-6.09693
-5.48583
-5.30186
-4.91152
-4.76258
-4.34213
-4.19185
-3.79499
-3.65645
-3.29966
-3.17629
-2.86193
-2.7537
-2.4792
-2.38482
-2.14582
-2.06345
-1.85428
-1.78094
-1.59104
-1.51605
-1.29282
-1.0877
-1.02825
-0.904156
-0.863373
-0.765511
-0.732578
-0.651252
-0.623684
-0.555019
-0.53169
-0.473427
-0.453632
-0.404197
-0.387442
-0.345722
-0.331692
-0.297083
-0.285712
-0.258467
-0.250177
-0.232297
-0.225421
-0.205875
-0.198861
-0.180263
-0.173755
-0.156953
-0.151138
-0.136302
-0.131203
-0.118295
-0.113906
-0.102935
-0.0993433
-0.0907787
-0.0885004
-0.0846854
-0.086057
-0.0974319
-0.115152
-0.20502
-0.375848
-0.470507
-0.81757
-1.01846
-1.76174
-1.90261
-1.92457
-1.92833
-1.92905
-14.9873
-11.419
-10.8795
-8.99046
-8.69027
-7.43361
-7.22395
-6.28845
-6.13145
-5.43023
-5.32133
-4.8825
-4.79435
-4.3103
-4.21986
-3.76391
-3.68075
-3.27132
-3.19736
-2.83681
-2.77197
-2.45721
-2.4007
-2.12673
-2.07746
-1.83794
-1.79436
-1.57849
-1.53543
-1.28999
-1.06706
-1.03358
-0.893316
-0.869265
-0.757413
-0.737762
-0.644617
-0.628129
-0.549441
-0.535479
-0.468697
-0.456846
-0.400174
-0.390141
-0.342299
-0.333891
-0.294175
-0.287348
-0.256029
-0.251111
-0.230991
-0.226918
-0.204409
-0.200186
-0.178816
-0.174909
-0.155625
-0.152138
-0.135119
-0.132062
-0.117252
-0.114618
-0.102011
-0.0998387
-0.0899126
-0.0884583
-0.0836209
-0.0839764
-0.0945131
-0.10267
-0.191971
-0.380528
-0.435101
-0.826333
-0.951765
-1.84391
-1.93071
-1.93174
-1.93008
-1.92955
-15.575
-11.0705
-11.008
-8.77425
-8.78343
-7.29428
-7.29911
-6.18613
-6.18775
-5.35094
-5.35399
-4.83947
-4.84197
-4.26273
-4.26249
-3.71793
-3.7181
-3.22956
-3.2299
-2.79986
-2.80024
-2.4249
-2.42528
-2.09866
-2.09908
-1.81376
-1.81467
-1.55904
-1.5629
-1.28626
-1.03885
-1.04319
-0.877831
-0.878671
-0.745631
-0.745889
-0.634918
-0.635065
-0.541275
-0.541383
-0.461771
-0.461856
-0.394288
-0.394353
-0.337301
-0.337344
-0.289953
-0.289965
-0.252536
-0.252654
-0.229046
-0.229153
-0.202213
-0.202199
-0.176672
-0.176679
-0.153666
-0.153681
-0.133378
-0.133392
-0.115723
-0.115729
-0.10067
-0.100645
-0.0887083
-0.0885524
-0.0823494
-0.0814893
-0.0916903
-0.0869424
-0.174952
-0.390567
-0.386228
-0.845729
-0.854398
-1.9583
-1.96225
-1.93903
-1.93179
-1.93004
-16.3429
-10.5443
-11.2233
-8.46834
-8.93652
-7.09519
-7.41899
-6.03922
-6.27758
-5.23807
-5.40736
-4.77576
-4.91286
-4.192
-4.3269
-3.65016
-3.77501
-3.16825
-3.27966
-2.7457
-2.84354
-2.37757
-2.46295
-2.05751
-2.13214
-1.77815
-1.84525
-1.52922
-1.6016
-1.28136
-1.00056
-1.05959
-0.8557
-0.893436
-0.728519
-0.758468
-0.620776
-0.64576
-0.529356
-0.550478
-0.45166
-0.469573
-0.385698
-0.400852
-0.33002
-0.342695
-0.283836
-0.294081
-0.247544
-0.255149
-0.226153
-0.232472
-0.198941
-0.205234
-0.173509
-0.179371
-0.150788
-0.156037
-0.130825
-0.135431
-0.113489
-0.117445
-0.0987289
-0.101929
-0.0870338
-0.0888893
-0.080865
-0.0785605
-0.0894661
-0.0675055
-0.152829
-0.409405
-0.318801
-0.883158
-0.713222
-2.11668
-1.99487
-1.94568
-1.93327
-1.93045
-17.3427
-9.75898
-11.5759
-8.03351
-9.182
-6.80951
-7.60702
-5.8276
-6.41854
-5.07685
-5.49278
-4.6813
-5.01808
-4.08705
-4.42378
-3.55034
-3.86119
-3.07822
-3.35524
-2.66627
-2.9094
-2.30818
-2.52025
-1.99716
-2.18235
-1.72569
-1.89116
-1.48386
-1.656
-1.27489
-0.948694
-1.0865
-0.823908
-0.916309
-0.703615
-0.777756
-0.60013
-0.662113
-0.511938
-0.564373
-0.436881
-0.481365
-0.373149
-0.410792
-0.319401
-0.35091
-0.274957
-0.30047
-0.240387
-0.259108
-0.22185
-0.237387
-0.194078
-0.20979
-0.168843
-0.183442
-0.146557
-0.159614
-0.127081
-0.138532
-0.110219
-0.120068
-0.095912
-0.103938
-0.08469
-0.0896221
-0.0791526
-0.075104
-0.0885572
-0.0437779
-0.123856
-0.44213
-0.225176
-0.949959
-0.509109
-2.33608
-2.02458
-1.95085
-1.93437
-1.93076
-18.6462
-8.59796
-12.1432
-7.41133
-9.5686
-6.39732
-7.89842
-5.52145
-6.6371
-4.84561
-5.62758
-4.54121
-5.17429
-3.93167
-4.56935
-3.40341
-3.9914
-2.94606
-3.46973
-2.54981
-3.00929
-2.20651
-2.6072
-1.90871
-2.25846
-1.64856
-1.9602
-1.41552
-1.73274
-1.26641
-0.878437
-1.12961
-0.778076
-0.951548
-0.667386
-0.807263
-0.570038
-0.687091
-0.486544
-0.585592
-0.415342
-0.499382
-0.354874
-0.426003
-0.303967
-0.363524
-0.262112
-0.310375
-0.230165
-0.265394
-0.215516
-0.244737
-0.18693
-0.21669
-0.162026
-0.189643
-0.140395
-0.165079
-0.121639
-0.143285
-0.105479
-0.124107
-0.0918596
-0.107089
-0.0814264
-0.0910185
-0.0772263
-0.0709904
-0.090015
-0.0150934
-0.0853829
-0.496276
-0.0938933
-1.06338
-0.214274
-2.64098
-2.04475
-1.9537
-1.93492
-1.93088
18.6462
8.59796
12.1432
7.41133
9.5686
6.39732
7.89841
5.52145
6.63709
4.84561
5.62758
4.54121
5.17429
3.93167
4.56935
3.40341
3.9914
2.94606
3.46973
2.54981
3.00929
2.20651
2.6072
1.90871
2.25846
1.64856
1.9602
1.41552
1.73274
1.26641
0.878436
1.12961
0.778075
0.951547
0.667385
0.807262
0.570037
0.68709
0.486543
0.585592
0.415341
0.499381
0.354873
0.426002
0.303966
0.363523
0.262112
0.310375
0.230164
0.265393
0.215516
0.244736
0.18693
0.21669
0.162025
0.189643
0.140394
0.165079
0.121639
0.143285
0.105479
0.124107
0.0918594
0.107089
0.0814262
0.0910185
0.077226
0.0709906
0.0900144
0.0150943
0.0853824
0.496271
0.0938929
1.06337
0.214273
2.64097
2.04474
1.9537
1.93491
1.93087
17.3427
9.75899
11.5759
8.03351
9.182
6.80952
7.60702
5.8276
6.41855
5.07685
5.49278
4.68131
5.01808
4.08705
4.42378
3.55034
3.8612
3.07823
3.35525
2.66627
2.9094
2.30819
2.52025
1.99716
2.18235
1.72569
1.89117
1.48386
1.65601
1.27489
0.948696
1.0865
0.823909
0.916311
0.703616
0.777757
0.600132
0.662115
0.51194
0.564374
0.436882
0.481366
0.37315
0.410793
0.319402
0.350911
0.274958
0.300471
0.240388
0.259109
0.221851
0.237388
0.194079
0.209791
0.168843
0.183443
0.146558
0.159614
0.127082
0.138533
0.11022
0.120069
0.0959127
0.103938
0.0846905
0.0896228
0.079153
0.0751046
0.0885573
0.0437787
0.123856
0.442126
0.225174
0.949951
0.509104
2.33607
2.02457
1.95084
1.93436
1.93075
16.3429
10.5443
11.2233
8.46835
8.93653
7.0952
7.419
6.03923
6.27759
5.23808
5.40737
4.77577
4.91287
4.19201
4.32691
3.65017
3.77502
3.16826
3.27967
2.7457
2.84355
2.37757
2.46295
2.05751
2.13215
1.77815
1.84526
1.52922
1.6016
1.28136
1.00057
1.05959
0.855704
0.89344
0.728522
0.758472
0.62078
0.645763
0.529359
0.550481
0.451662
0.469576
0.3857
0.400854
0.330023
0.342698
0.283838
0.294083
0.247546
0.255151
0.226155
0.232474
0.198943
0.205236
0.17351
0.179373
0.15079
0.156039
0.130827
0.135432
0.11349
0.117446
0.0987302
0.10193
0.087035
0.0888905
0.080866
0.0785615
0.0894667
0.0675064
0.152828
0.409401
0.318798
0.88315
0.713215
2.11667
1.99485
1.94567
1.93326
1.93044
15.575
11.0705
11.008
8.77426
8.78344
7.29429
7.29912
6.18614
6.18776
5.35095
5.354
4.83948
4.84198
4.26273
4.2625
3.71794
3.71811
3.22957
3.22991
2.79987
2.80024
2.42491
2.42529
2.09866
2.09909
1.81377
1.81468
1.55905
1.56291
1.28626
1.03885
1.04319
0.877835
0.878676
0.745635
0.745894
0.634922
0.635069
0.541279
0.541386
0.461774
0.461859
0.394291
0.394356
0.337304
0.337346
0.289955
0.289967
0.252539
0.252657
0.229048
0.229156
0.202215
0.202201
0.176675
0.176681
0.153668
0.153683
0.13338
0.133394
0.115725
0.115731
0.100672
0.100647
0.0887098
0.0885539
0.0823506
0.0814905
0.0916911
0.0869431
0.174951
0.390564
0.386224
0.845722
0.854391
1.95829
1.96224
1.93902
1.93177
1.93003
14.9873
11.419
10.8796
8.99046
8.69028
7.43362
7.22396
6.28846
6.13146
5.43024
5.32133
4.88251
4.79436
4.31031
4.21987
3.76392
3.68076
3.27132
3.19737
2.83682
2.77197
2.45722
2.4007
2.12674
2.07746
1.83794
1.79437
1.5785
1.53543
1.28999
1.06706
1.03359
0.893321
0.869269
0.757418
0.737767
0.644621
0.628133
0.549444
0.535483
0.4687
0.45685
0.400177
0.390144
0.342302
0.333894
0.294178
0.28735
0.256031
0.251113
0.230994
0.22692
0.204411
0.200189
0.178818
0.174911
0.155627
0.15214
0.135121
0.132064
0.117254
0.11462
0.102012
0.0998403
0.0899141
0.0884598
0.0836222
0.0839776
0.094514
0.10267
0.19197
0.380524
0.435097
0.826326
0.951757
1.8439
1.9307
1.93173
1.93007
1.92954
14.5423
11.6463
10.8051
9.14312
8.63539
7.53107
7.17784
6.35966
6.09694
5.48584
5.30187
4.91153
4.76259
4.34214
4.19186
3.795
3.65646
3.29967
3.1763
2.86194
2.75371
2.47921
2.38482
2.14583
2.06345
1.85428
1.78095
1.59104
1.51606
1.29282
1.0877
1.02826
0.904161
0.863378
0.765515
0.732582
0.651256
0.623688
0.555023
0.531694
0.47343
0.453635
0.4042
0.387446
0.345725
0.331695
0.297086
0.285715
0.258469
0.250179
0.232299
0.225424
0.205877
0.198863
0.180265
0.173758
0.156955
0.15114
0.136304
0.131205
0.118297
0.113908
0.102937
0.099345
0.0907803
0.0885019
0.0846867
0.0860583
0.0974327
0.115152
0.205019
0.375845
0.470503
0.817562
1.01845
1.76173
1.9026
1.92455
1.92832
1.92903
14.2132
11.7915
10.7635
9.2496
8.60437
7.59849
7.15032
6.40863
6.07636
5.52436
5.29067
4.93089
4.74168
4.36317
4.17372
3.81574
3.64089
3.31868
3.16287
2.87883
2.74209
2.49399
2.37473
2.15866
2.05452
1.86519
1.77219
1.599
1.50262
1.29494
1.10252
1.02552
0.911671
0.859772
0.771018
0.729336
0.655744
0.62089
0.558791
0.529305
0.476624
0.451609
0.406918
0.385748
0.348043
0.330322
0.299066
0.284716
0.26015
0.24963
0.233165
0.224436
0.206843
0.198003
0.181229
0.173017
0.157845
0.150502
0.137099
0.130659
0.119
0.11346
0.103567
0.0990494
0.0913959
0.0886062
0.0855446
0.0877395
0.100098
0.124749
0.21483
0.374212
0.495814
0.814645
1.06346
1.70365
1.87925
1.9181
1.92669
1.92855
13.9809
11.8809
10.7413
9.32134
8.58778
7.6436
7.13454
6.44124
6.06458
5.55015
5.28452
4.94343
4.72835
4.37664
4.16233
3.82917
3.63123
3.33103
3.15458
2.88982
2.73494
2.50363
2.36852
2.16701
2.04899
1.87225
1.76665
1.60388
1.49363
1.29644
1.11272
1.02425
0.916707
0.857643
0.774641
0.727368
0.658684
0.619183
0.561256
0.527845
0.478714
0.450371
0.408697
0.384714
0.349562
0.329491
0.300372
0.284127
0.261271
0.24932
0.233724
0.223803
0.20746
0.197461
0.181852
0.172556
0.158423
0.150107
0.137617
0.130323
0.11946
0.113188
0.103982
0.0988802
0.0918178
0.0887223
0.0861929
0.0890149
0.102273
0.131729
0.22187
0.374091
0.513236
0.814529
1.0928
1.66415
1.86137
1.91286
1.92533
1.92815
13.8327
11.9319
10.7304
9.36563
8.57962
7.67131
7.12615
6.46119
6.05831
5.56599
5.28138
4.95094
4.72049
4.38462
4.1557
3.83719
3.62566
3.33844
3.14983
2.89643
2.73084
2.50942
2.36496
2.17203
2.04582
1.87647
1.7634
1.60666
1.48813
1.29741
1.11912
1.02375
0.919806
0.856475
0.776837
0.72626
0.660459
0.618216
0.562743
0.527017
0.479973
0.449669
0.40977
0.384128
0.350481
0.329025
0.301165
0.283804
0.261957
0.249158
0.234057
0.223429
0.207825
0.197144
0.182224
0.17229
0.158769
0.14988
0.137928
0.130131
0.119736
0.113034
0.104235
0.0987903
0.0920819
0.0888165
0.086628
0.0898735
0.1038
0.136282
0.226427
0.374493
0.524171
0.815333
1.11043
1.63962
1.84932
1.90917
1.92435
1.92785
13.7604
11.955
10.726
9.38678
8.57636
7.6845
7.12254
6.47066
6.05562
5.57353
5.28009
4.95446
4.71684
4.38833
4.15265
3.84094
3.62312
3.34192
3.14767
2.89953
2.72899
2.51214
2.36335
2.17438
2.04438
1.87844
1.7619
1.60792
1.48552
1.29788
1.1222
1.0236
0.921283
0.855961
0.777873
0.725763
0.661295
0.617781
0.563442
0.526643
0.480566
0.449352
0.410274
0.383865
0.350913
0.328816
0.301539
0.283662
0.262283
0.249089
0.234212
0.223255
0.207994
0.196999
0.182398
0.172168
0.158931
0.149777
0.138074
0.130044
0.119866
0.112964
0.104354
0.0987517
0.0922091
0.0888684
0.0868465
0.0903056
0.104586
0.138529
0.228668
0.374831
0.529448
0.815981
1.11869
1.62787
1.84327
1.90728
1.92385
1.9277
-13.6272
-11.9381
-10.875
-9.86358
-9.31995
-8.8171
-8.53923
-8.26806
-8.11751
-7.96875
-7.86616
-7.73035
-7.63466
-7.50997
-7.42299
-7.31065
-7.23252
-7.13189
-7.06206
-6.97235
-6.91029
-6.83082
-6.77601
-6.70605
-6.65783
-6.59618
-6.55298
-6.49612
-6.45138
-6.38352
-6.32084
-6.28624
-6.25122
-6.22929
-6.20367
-6.1869
-6.16658
-6.15312
-6.13667
-6.12573
-6.11233
-6.10343
-6.09252
-6.0853
-6.0765
-6.07073
-6.06378
-6.05934
-6.05419
-6.05111
-6.04778
-6.04546
-6.04243
-6.04043
-6.03808
-6.03674
-6.03549
-6.03511
-6.03541
-6.03643
-6.03901
-6.04217
-6.04839
-6.05517
-6.06782
-6.08162
-6.10781
-6.13899
-6.20318
-6.29681
-6.5086
-6.80261
-7.06545
-7.50301
-7.92064
-8.58481
-8.86444
-8.94742
-8.96889
-8.97389
-13.6948
-11.9131
-10.873
-9.84487
-9.31832
-8.8081
-8.53896
-8.26324
-8.11743
-7.9669
-7.86749
-7.72874
-7.63582
-7.50847
-7.424
-7.30928
-7.23342
-7.13065
-7.06286
-6.97124
-6.91098
-6.82983
-6.77662
-6.70518
-6.65836
-6.59544
-6.55353
-6.49563
-6.4523
-6.38331
-6.31971
-6.28626
-6.25069
-6.22944
-6.20332
-6.18704
-6.16631
-6.15324
-6.13645
-6.12583
-6.11215
-6.10351
-6.09237
-6.08536
-6.07638
-6.07077
-6.06368
-6.05937
-6.05411
-6.05112
-6.04774
-6.04549
-6.04239
-6.04045
-6.03804
-6.03674
-6.03545
-6.03509
-6.03538
-6.03637
-6.03899
-6.04205
-6.04837
-6.05493
-6.06778
-6.08113
-6.10761
-6.13767
-6.202
-6.29208
-6.50531
-6.80386
-7.05847
-7.50381
-7.91077
-8.60019
-8.8723
-8.94988
-8.96955
-8.97409
-13.8336
-11.8584
-10.8704
-9.80609
-9.31603
-8.78945
-8.53896
-8.25321
-8.11755
-7.96301
-7.87039
-7.7253
-7.63835
-7.50524
-7.42622
-7.30636
-7.2354
-7.12802
-7.0646
-6.96888
-6.91251
-6.82772
-6.77795
-6.70333
-6.65954
-6.59386
-6.55471
-6.49457
-6.45426
-6.38289
-6.31738
-6.28636
-6.24959
-6.22978
-6.20257
-6.18736
-6.16572
-6.15351
-6.13598
-6.12605
-6.11177
-6.10368
-6.09206
-6.08551
-6.07612
-6.07088
-6.06347
-6.05944
-6.05393
-6.05114
-6.04765
-6.04556
-6.0423
-6.04048
-6.03796
-6.03674
-6.03538
-6.03503
-6.03532
-6.03624
-6.03895
-6.0418
-6.04834
-6.05444
-6.06771
-6.08011
-6.10726
-6.13498
-6.1998
-6.28242
-6.49861
-6.80687
-7.04385
-7.50615
-7.88962
-8.63226
-8.88795
-8.95466
-8.97082
-8.97447
-14.0514
-11.7642
-10.8709
-9.74434
-9.31521
-8.75976
-8.54036
-8.23719
-8.11842
-7.95663
-7.87539
-7.71954
-7.64273
-7.49985
-7.43008
-7.30147
-7.23883
-7.12363
-7.06764
-6.96494
-6.91518
-6.82422
-6.78028
-6.70024
-6.6616
-6.59122
-6.55673
-6.4927
-6.45745
-6.38223
-6.31367
-6.28669
-6.24782
-6.23042
-6.20134
-6.18793
-6.16477
-6.15399
-6.1352
-6.12645
-6.11114
-6.104
-6.09155
-6.08576
-6.0757
-6.07107
-6.06312
-6.05956
-6.05365
-6.05119
-6.04751
-6.04567
-6.04215
-6.04054
-6.03782
-6.03674
-6.03526
-6.03495
-6.03524
-6.03604
-6.0389
-6.0414
-6.04832
-6.05367
-6.06768
-6.0785
-6.1069
-6.1308
-6.19688
-6.26743
-6.48823
-6.81272
-7.02022
-7.51163
-7.85409
-8.68382
-8.91116
-8.96146
-8.97259
-8.975
-14.3607
-11.6143
-10.8808
-9.6547
-9.31943
-8.71663
-8.54511
-8.21378
-8.12101
-7.94704
-7.88337
-7.71061
-7.64976
-7.49154
-7.43629
-7.29395
-7.24436
-7.11687
-7.07255
-6.95889
-6.91949
-6.81883
-6.78405
-6.69549
-6.66492
-6.58714
-6.55994
-6.48969
-6.46224
-6.38131
-6.3083
-6.28749
-6.24518
-6.23152
-6.19949
-6.1889
-6.16331
-6.15479
-6.13403
-6.1271
-6.11018
-6.10454
-6.09076
-6.08618
-6.07506
-6.0714
-6.0626
-6.05978
-6.05323
-6.05129
-6.0473
-6.04584
-6.04193
-6.04065
-6.03762
-6.03675
-6.0351
-6.03485
-6.03514
-6.03576
-6.03887
-6.04082
-6.04837
-6.05255
-6.06778
-6.07618
-6.10671
-6.12494
-6.19378
-6.24642
-6.4737
-6.82326
-6.98523
-7.52308
-7.79907
-8.75947
-8.94145
-8.96983
-8.9747
-8.97563
-14.7799
-11.3838
-10.9103
-9.52942
-9.33436
-8.65625
-8.55626
-8.18083
-8.12685
-7.93303
-7.89572
-7.69721
-7.66068
-7.4791
-7.44598
-7.28272
-7.25301
-7.10678
-7.08023
-6.94986
-6.92626
-6.8108
-6.78997
-6.68843
-6.67013
-6.58104
-6.56487
-6.48496
-6.46917
-6.38006
-6.30083
-6.28915
-6.2414
-6.23336
-6.19677
-6.19046
-6.16117
-6.15608
-6.1323
-6.12816
-6.10877
-6.1054
-6.08961
-6.08687
-6.07412
-6.07193
-6.06184
-6.06015
-6.05263
-6.05148
-6.04698
-6.04612
-6.0416
-6.04082
-6.03732
-6.0368
-6.03489
-6.03473
-6.03502
-6.03538
-6.03888
-6.04002
-6.04855
-6.05099
-6.06815
-6.07298
-6.10702
-6.11705
-6.19133
-6.21843
-6.45427
-6.8413
-6.93521
-7.545
-7.71668
-8.86626
-8.97788
-8.97914
-8.97698
-8.97629
-15.3349
-11.0364
-10.9761
-9.3567
-9.36861
-8.57274
-8.57842
-8.13503
-8.13828
-7.91277
-7.91451
-7.67732
-7.67739
-7.46073
-7.46088
-7.26615
-7.26631
-7.09191
-7.09206
-6.93657
-6.93669
-6.79899
-6.79912
-6.67803
-6.67818
-6.57202
-6.57234
-6.47767
-6.47903
-6.37843
-6.29067
-6.29226
-6.23603
-6.23634
-6.19285
-6.19294
-6.15807
-6.15812
-6.12979
-6.12982
-6.10672
-6.10675
-6.08794
-6.08796
-6.07276
-6.07277
-6.06074
-6.06075
-6.05176
-6.05179
-6.04651
-6.04654
-6.04112
-6.04111
-6.03692
-6.03691
-6.0346
-6.03458
-6.0349
-6.03487
-6.03899
-6.03893
-6.04897
-6.04884
-6.06901
-6.06861
-6.10828
-6.1066
-6.19076
-6.18209
-6.4288
-6.87106
-6.86455
-7.58444
-7.59517
-9.01456
-9.01873
-8.98859
-8.9792
-8.97693
-16.0619
-10.5195
-11.1043
-9.11873
-9.43516
-8.45717
-8.61855
-8.07135
-8.15887
-7.88341
-7.94286
-7.64795
-7.70278
-7.43368
-7.48357
-7.24178
-7.2866
-7.07005
-7.11011
-6.91704
-6.95265
-6.78167
-6.81311
-6.66279
-6.69047
-6.55875
-6.58361
-6.46654
-6.49296
-6.37627
-6.27693
-6.29768
-6.2284
-6.24108
-6.18718
-6.19683
-6.15356
-6.16129
-6.12614
-6.13242
-6.10375
-6.10886
-6.08551
-6.08966
-6.07079
-6.0741
-6.05916
-6.06171
-6.05054
-6.05232
-6.04584
-6.04717
-6.04042
-6.04156
-6.03634
-6.0371
-6.03422
-6.03443
-6.03479
-6.0342
-6.03926
-6.03743
-6.04981
-6.04587
-6.0707
-6.06264
-6.1112
-6.0927
-6.19391
-6.13554
-6.39551
-6.91878
-6.76484
-7.65225
-7.41732
-9.21948
-9.06096
-8.9972
-8.98113
-8.97748
-17.0106
-9.75751
-11.3354
-8.78868
-9.5535
-8.29603
-8.68701
-7.98229
-8.19397
-7.84066
-7.98538
-7.60458
-7.74113
-7.39388
-7.51793
-7.20595
-7.31734
-7.03793
-7.13749
-6.88837
-6.97686
-6.75625
-6.83438
-6.64042
-6.70914
-6.5392
-6.60056
-6.44966
-6.51262
-6.37343
-6.25839
-6.3067
-6.21749
-6.24847
-6.17897
-6.20282
-6.14702
-6.16618
-6.12083
-6.1364
-6.09942
-6.1121
-6.08198
-6.09227
-6.06793
-6.07616
-6.05688
-6.06321
-6.0488
-6.05318
-6.04485
-6.04813
-6.03941
-6.04226
-6.03552
-6.03744
-6.03372
-6.03427
-6.03473
-6.0333
-6.03981
-6.03536
-6.05129
-6.04176
-6.0737
-6.0544
-6.11681
-6.07402
-6.20344
-6.07625
-6.35169
-6.99358
-6.62347
-7.76496
-7.15799
-9.50282
-9.09939
-9.00392
-8.98256
-8.97788
-18.2493
-8.64223
-11.7313
-8.32613
-9.75268
-8.0689
-8.79927
-7.85654
-8.25163
-7.77794
-8.04888
-7.54048
-7.79878
-7.33518
-7.56969
-7.15314
-7.36368
-6.99061
-7.17878
-6.84616
-7.0134
-6.71884
-6.86649
-6.60751
-6.73732
-6.51038
-6.62597
-6.4242
-6.54034
-6.36958
-6.23328
-6.32119
-6.20175
-6.25986
-6.167
-6.21199
-6.13745
-6.17363
-6.11307
-6.14248
-6.09309
-6.11704
-6.07682
-6.09626
-6.06375
-6.0793
-6.05356
-6.06554
-6.0463
-6.05454
-6.04339
-6.04956
-6.03792
-6.04334
-6.03435
-6.038
-6.03304
-6.0341
-6.03472
-6.03207
-6.04079
-6.03246
-6.05379
-6.03598
-6.07874
-6.04289
-6.12661
-6.04845
-6.22323
-6.00084
-6.2932
-7.10887
-6.42164
-7.94762
-6.7806
-9.89613
-9.12555
-9.0077
-8.98337
-8.97813
)
;

boundaryField
{
    F1_1
    {
        type            calculated;
        value           nonuniform List<scalar> 
80
(
18.9515
7.97372
11.9797
8.04125
9.87629
7.905
8.86828
7.71499
8.28914
7.55153
7.90356
7.4896
7.75877
7.28696
7.55912
7.11031
7.36564
6.95326
7.18625
6.8137
7.02304
6.69071
6.87665
6.5832
6.74725
6.48939
6.63569
6.40585
6.55203
6.36465
6.21737
6.32766
6.19113
6.26485
6.15882
6.216
6.13089
6.1769
6.10774
6.14515
6.08874
6.11922
6.07328
6.09801
6.06088
6.08067
6.05128
6.06652
6.04455
6.05502
6.04226
6.05011
6.03683
6.04373
6.03348
6.03812
6.0325
6.03382
6.03463
6.0312
6.04131
6.03064
6.05526
6.03249
6.08181
6.03608
6.13273
6.03355
6.23622
5.95857
6.25964
7.17861
6.30277
8.06019
6.55694
10.1249
9.13422
9.00873
8.98359
8.97821
)
;
    }
    F1_2
    {
        type            calculated;
        value           nonuniform List<scalar> 
80
(
-19.3843
-7.90636
-12.4922
-7.04467
-9.80451
-6.15365
-8.07525
-5.34031
-6.76976
-4.70928
-5.70996
-4.45754
-5.26766
-3.83897
-4.65676
-3.31595
-4.06974
-2.86746
-3.53868
-2.48058
-3.06948
-2.14609
-2.65961
-1.85615
-2.30433
-1.60268
-2.0017
-1.37452
-1.7777
-1.26163
-0.838028
-1.15607
-0.751009
-0.97291
-0.645927
-0.825111
-0.552204
-0.702193
-0.471494
-0.598423
-0.40258
-0.51028
-0.344051
-0.43521
-0.294834
-0.37117
-0.254527
-0.316402