/*--------------------------------*- C++ -*----------------------------------*\
| =========                 |                                                 |
| \\      /  F ield         | OpenFOAM: The Open Source CFD Toolbox           |
|  \\    /   O peration     | Version:  5.x                                   |
|   \\  /    A nd           | Web:      www.OpenFOAM.org                      |
|    \\/     M anipulation  |                                                 |
\*---------------------------------------------------------------------------*/
FoamFile
{
    version     2.0;
    format      ascii;
    class       volScalarField;
    location    "0.6";
    object      gradTx;
}
// * * * * * * * * * * * * * * * * * * * * * * * * * * * * * * * * * * * * * //

dimensions      [0 -1 0 1 0 0 0];

internalField   nonuniform List<scalar> 
3200
(
47.6369
3.13301
1.32693
1.232
0.602945
0.566254
0.328953
0.314558
0.214619
0.207378
0.135066
0.132677
0.14899
0.149185
0.13973
0.138483
0.117767
0.115887
0.0912846
0.0892842
0.0657408
0.0639511
0.0444533
0.0430364
0.0284858
0.027467
0.0175307
0.0168975
0.0113475
0.0162433
0.00636587
0.00253667
0.00229896
0.00103742
0.000960649
0.000444899
0.000413364
0.000184459
0.000170306
6.31546e-05
5.61574e-05
-3.15926e-06
-7.58632e-06
-5.38627e-05
-5.78853e-05
-0.000107965
-0.000112439
-0.000170134
-0.000174306
-0.00021285
-0.000224372
-0.000459082
-0.000484215
-0.000850915
-0.000892828
-0.00152417
-0.00159763
-0.00271479
-0.00284658
-0.00486281
-0.00510584
-0.00885566
-0.00932643
-0.0166967
-0.0176979
-0.0337373
-0.0362669
-0.0778278
-0.0866723
-0.232175
-0.610221
-0.435565
-0.691794
-0.724025
-1.28955
-1.26355
-0.0567342
-0.00765603
-0.00155067
-51.5492
50.0537
2.61677
1.27711
1.08213
0.578742
0.500388
0.309295
0.278447
0.197934
0.182521
0.125778
0.120659
0.132334
0.132661
0.125263
0.12263
0.106289
0.10231
0.0828687
0.0786334
0.060014
0.0562231
0.0407897
0.0377871
0.0262613
0.0241024
0.0162383
0.0149071
0.0107174
0.0135816
0.00602487
0.00256747
0.00203876
0.00100856
0.000843123
0.000428781
0.000361406
0.000178337
0.000148173
6.25707e-05
4.76697e-05
3.50515e-07
-9.06533e-06
-4.58802e-05
-5.44182e-05
-9.41083e-05
-0.000103579
-0.000149081
-0.000158084
-0.000190968
-0.000215527
-0.000400917
-0.000454277
-0.000746346
-0.000835523
-0.00133844
-0.00149479
-0.00238505
-0.00266565
-0.00427368
-0.00479159
-0.00778719
-0.0087924
-0.014701
-0.0168484
-0.0298107
-0.0352978
-0.0695991
-0.0893577
-0.221273
-0.511924
-0.414563
-0.610539
-0.676939
-1.1032
-1.04876
-0.123893
-0.0212492
-0.00445896
-53.4914
52.4564
2.16809
1.18154
0.944643
0.537567
0.439057
0.283237
0.24433
0.178645
0.159317
0.114425
0.107969
0.116137
0.116454
0.11062
0.10734
0.0943371
0.0893741
0.0738685
0.0685819
0.053717
0.0489833
0.0366482
0.0328973
0.023677
0.0209802
0.0146953
0.0130413
0.00981338
0.0113478
0.00552517
0.0024836
0.00180065
0.000946213
0.000736502
0.000399312
0.000314529
0.000166348
0.00012847
5.92712e-05
4.05735e-05
2.38857e-06
-9.41297e-06
-3.90203e-05
-4.97016e-05
-8.14744e-05
-9.32952e-05
-0.000129517
-0.000140939
-0.000169456
-0.00020029
-0.000348109
-0.000414875
-0.000650023
-0.000761812
-0.00116679
-0.00136282
-0.00208004
-0.00243199
-0.00372869
-0.00437882
-0.00679919
-0.00806316
-0.0128571
-0.0155678
-0.0261851
-0.0331784
-0.0619552
-0.0875603
-0.204027
-0.429156
-0.381833
-0.53447
-0.615461
-0.936087
-0.868788
-0.158164
-0.0314082
-0.00684285
-55.4337
54.8419
1.77608
1.05602
0.813996
0.484074
0.38004
0.252513
0.21129
0.157502
0.137135
0.101534
0.0946955
0.100259
0.100499
0.0958864
0.0924532
0.0820821
0.076879
0.0644805
0.0589347
0.047035
0.0420671
0.0321806
0.0282426
0.0208451
0.0180138
0.0129768
0.0112474
0.00872651
0.00941758
0.00491902
0.00230773
0.00157119
0.00085911
0.000635806
0.000360233
0.000270583
0.000150176
0.000110205
5.40557e-05
3.43389e-05
3.41289e-06
-9.01804e-06
-3.29088e-05
-4.41391e-05
-6.96497e-05
-8.20507e-05
-0.00011097
-0.000123137
-0.000147885
-0.000180413
-0.000298609
-0.000368813
-0.000558746
-0.000676503
-0.00100369
-0.00121022
-0.00178993
-0.00216087
-0.00321005
-0.00389578
-0.00585818
-0.00719355
-0.0110977
-0.0139722
-0.0227063
-0.0301897
-0.054441
-0.0821316
-0.18244
-0.357294
-0.341109
-0.46127
-0.5444
-0.784487
-0.714552
-0.169079
-0.0374793
-0.00846923
-57.3762
57.2095
1.43071
0.911424
0.686896
0.42157
0.321981
0.218346
0.178759
0.135024
0.115562
0.0874917
0.0809261
0.0845984
0.0847442
0.0811162
0.0778563
0.0696359
0.0646884
0.0548364
0.0495598
0.0400932
0.0353646
0.02749
0.0237402
0.0178423
0.0151462
0.0111345
0.00949286
0.00751789
0.00770261
0.00424164
0.00205904
0.00134231
0.000753381
0.000537913
0.000314152
0.000228205
0.000130993
9.27461e-05
4.74763e-05
2.86229e-05
3.73506e-06
-8.13888e-06
-2.72953e-05
-3.80036e-05
-5.83585e-05
-7.0159e-05
-9.31143e-05
-0.000104856
-0.000126032
-0.000157145
-0.000251083
-0.00031803
-0.000470454
-0.000582932
-0.000845567
-0.00104287
-0.00150843
-0.00186293
-0.00270634
-0.00336215
-0.0049429
-0.00622193
-0.00938048
-0.0121433
-0.019279
-0.0265319
-0.0467915
-0.073801
-0.157875
-0.29308
-0.294936
-0.389554
-0.467063
-0.64529
-0.579338
-0.163441
-0.0394465
-0.00921286
-59.3186
59.5602
1.1229
0.755063
0.561454
0.352455
0.2641
0.181625
0.146399
0.111575
0.094333
0.0725892
0.0667479
0.069082
0.0691455
0.0663401
0.0634683
0.057072
0.0527082
0.0450244
0.0403678
0.0329768
0.0288022
0.0226471
0.0193355
0.0147212
0.0123402
0.00920471
0.00775821
0.00622867
0.00613974
0.00351678
0.00175362
0.00110964
0.000633521
0.000440952
0.000262937
0.000186564
0.000109629
7.57015e-05
3.99214e-05
2.32074e-05
3.56958e-06
-6.94683e-06
-2.20121e-05
-3.14811e-05
-4.7417e-05
-5.78327e-05
-7.57252e-05
-8.6219e-05
-0.000103806
-0.000131394
-0.000204684
-0.000263887
-0.000383842
-0.000483453
-0.000690195
-0.000864956
-0.00123159
-0.00154569
-0.00221049
-0.00279192
-0.00404022
-0.00517576
-0.0076799
-0.0101405
-0.0158483
-0.0223555
-0.0388741
-0.0631903
-0.131268
-0.234205
-0.245057
-0.318525
-0.385699
-0.515862
-0.458123
-0.146127
-0.0376628
-0.00904833
-61.2609
61.8963
0.84447
0.591756
0.436648
0.278531
0.205996
0.14302
0.114026
0.0874231
0.0732839
0.0570506
0.0522433
0.0536591
0.0536659
0.0515736
0.0492299
0.0444374
0.0408724
0.0351038
0.0312977
0.0257438
0.0223306
0.0177008
0.0149924
0.011519
0.00957162
0.00721331
0.00603222
0.0048866
0.00468321
0.00276055
0.00140506
0.000871351
0.000502995
0.000343901
0.000207971
0.000145178
8.66941e-05
5.88402e-05
3.16717e-05
1.79571e-05
3.06682e-06
-5.55524e-06
-1.69463e-05
-2.46989e-05
-3.67022e-05
-4.5217e-05
-5.86466e-05
-6.7315e-05
-8.12004e-05
-0.00010384
-0.000158887
-0.000207361
-0.00029811
-0.00037977
-0.000536211
-0.000679499
-0.000957032
-0.00121463
-0.00171825
-0.00219535
-0.00314249
-0.00407537
-0.00598174
-0.0080086
-0.0123867
-0.0177798
-0.0306464
-0.0508312
-0.10327
-0.179017
-0.192675
-0.247749
-0.301817
-0.39395
-0.347078
-0.120672
-0.0326849
-0.00803434
-63.2031
64.2204
0.588038
0.424563
0.311979
0.201196
0.147519
0.103062
0.0815613
0.0627737
0.0523185
0.0410549
0.0374903
0.0382948
0.0382736
0.0368227
0.0350961
0.0317621
0.0291339
0.0251144
0.0223073
0.0184346
0.0159166
0.0126859
0.0106874
0.00826206
0.00682513
0.00517952
0.00430898
0.00351059
0.00329926
0.00198401
0.00102493
0.000627301
0.000364632
0.000246306
0.000150329
0.000103801
6.26512e-05
4.20363e-05
2.29373e-05
1.27912e-05
2.33515e-06
-4.03928e-06
-1.20206e-05
-1.77461e-05
-2.61314e-05
-3.24123e-05
-4.17697e-05
-4.82157e-05
-5.82603e-05
-7.50106e-05
-0.000113383
-0.000149183
-0.000212793
-0.00027316
-0.000382839
-0.000488776
-0.000683405
-0.000873892
-0.00122728
-0.00158025
-0.00224567
-0.00293645
-0.0042793
-0.0057833
-0.00888525
-0.0129062
-0.0221273
-0.0371835
-0.0743416
-0.126317
-0.138639
-0.177016
-0.216414
-0.277599
-0.243216
-0.0896804
-0.0251733
-0.00629583
-65.1452
66.5358
0.346854
0.255347
0.187249
0.121586
0.0886811
0.0621896
0.0489898
0.0377915
0.0313853
0.0247513
0.0225631
0.022965
0.0229411
0.0220867
0.0210315
0.0190644
0.0174574
0.0150833
0.0133664
0.0110779
0.00953762
0.00762747
0.00640471
0.00497017
0.00409101
0.00311808
0.00258583
0.00211378
0.00196214
0.00119491
0.000623276
0.000378467
0.000220883
0.000148092
9.0888e-05
6.23386e-05
3.78714e-05
2.52324e-05
1.38833e-05
7.66455e-06
1.45598e-06
-2.44932e-06
-7.18138e-06
-1.06865e-05
-1.56479e-05
-1.949e-05
-2.50172e-05
-2.8982e-05
-3.50634e-05
-4.53305e-05
-6.80019e-05
-8.9919e-05
-0.000127643
-0.000164624
-0.000229678
-0.00029458
-0.000410042
-0.000526761
-0.000736493
-0.000952831
-0.00134808
-0.00177174
-0.00257079
-0.00349454
-0.00534766
-0.00782533
-0.0133757
-0.0226529
-0.0448224
-0.0752041
-0.0835632
-0.106242
-0.130139
-0.165071
-0.144119
-0.0551285
-0.0158364
-0.00400676
-67.0872
68.8459
0.114633
0.0852037
0.0624292
0.0406703
0.0295903
0.0207877
0.0163395
0.012618
0.0104613
0.00826982
0.00753243
0.00765316
0.00764323
0.00736099
0.00700623
0.00635588
0.00581542
0.00503008
0.00445262
0.00369537
0.00317726
0.00254505
0.0021337
0.00165881
0.00136305
0.00104104
0.000862047
0.000705769
0.000651233
0.000399022
0.000209125
0.000126515
7.39746e-05
4.94197e-05
3.04092e-05
2.07908e-05
1.26696e-05
8.4133e-06
4.64747e-06
2.55353e-06
4.94191e-07
-8.20469e-07
-2.38887e-06
-3.56837e-06
-5.21108e-06
-6.50343e-06
-8.33199e-06
-9.66933e-06
-1.1706e-05
-1.51631e-05
-2.26642e-05
-3.00395e-05
-4.25443e-05
-5.49932e-05
-7.65589e-05
-9.84074e-05
-0.000136688
-0.000175982
-0.000245531
-0.000318375
-0.000449497
-0.000592195
-0.000857518
-0.00116889
-0.00178545
-0.00262196
-0.00447553
-0.00760739
-0.0149758
-0.0249738
-0.0279151
-0.0354206
-0.0434244
-0.0547784
-0.0477448
-0.018589
-0.00540097
-0.00137445
-69.0291
68.9957
0.118832
0.0983345
0.0801386
0.0611353
0.0505211
0.0404846
0.0344335
0.0277931
0.0232575
0.0177786
0.0154602
0.0146218
0.0139217
0.0126233
0.0115557
0.010024
0.00892189
0.00750761
0.00654506
0.0053733
0.0046017
0.0036947
0.00311271
0.00244894
0.00203575
0.00158542
0.00133725
0.00112685
0.00106507
0.00066672
0.000362209
0.000227896
0.000139465
9.69695e-05
6.24408e-05
4.45045e-05
2.8772e-05
2.04407e-05
1.30244e-05
9.1025e-06
5.6338e-06
3.81606e-06
2.2334e-06
1.41613e-06
7.22277e-07
3.7339e-07
9.1914e-08
-3.99234e-08
-1.34723e-07
-2.01879e-07
-2.99287e-07
-3.85832e-07
-5.32075e-07
-7.22307e-07
-1.12768e-06
-1.73846e-06
-3.11272e-06
-5.23559e-06
-1.00549e-05
-1.7558e-05
-3.46852e-05
-6.1729e-05
-0.000124196
-0.000226056
-0.000467683
-0.000889638
-0.0019443
-0.00399027
-0.00905783
-0.0164621
-0.0203541
-0.0289176
-0.0380309
-0.0513672
-0.0456162
-0.0178161
-0.00518124
-0.00131842
-69.4357
66.9851
0.359241
0.294915
0.240452
0.183074
0.151544
0.121298
0.103327
0.0832981
0.0698133
0.0532119
0.0463238
0.0438625
0.0417918
0.0378637
0.0346885
0.0300576
0.0267809
0.0225074
0.0196461
0.0161062
0.0138126
0.011073
0.0093431
0.00733828
0.00611005
0.00474927
0.00401125
0.00337555
0.00320963
0.00199703
0.00108018
0.000682103
0.000416723
0.00029071
0.000186742
0.000133487
8.6063e-05
6.13172e-05
3.89553e-05
2.73053e-05
1.68461e-05
1.14466e-05
6.67476e-06
4.24715e-06
2.15547e-06
1.11919e-06
2.70877e-07
-1.20474e-07
-4.04787e-07
-6.04082e-07
-8.98031e-07
-1.15489e-06
-1.59431e-06
-2.15821e-06
-3.37478e-06
-5.18488e-06
-9.3084e-06
-1.55993e-05
-3.00582e-05
-5.22902e-05
-0.000103661
-0.000183773
-0.000371018
-0.000672584
-0.00139585
-0.00264362
-0.00579328
-0.01185
-0.02708
-0.0495266
-0.0608753
-0.0867305
-0.113923
-0.154864
-0.13773
-0.0528416
-0.0151928
-0.00384363
-68.3073
64.9689
0.607963
0.49111
0.400891
0.303989
0.252525
0.20163
0.172314
0.138551
0.116502
0.0882642
0.0770178
0.0730957
0.0697448
0.0630828
0.0578883
0.0500457
0.0446883
0.0374587
0.0327818
0.0267961
0.0230478
0.0184165
0.0155896
0.012201
0.0101936
0.00789157
0.00668418
0.00560827
0.0053989
0.0033174
0.00177848
0.00113175
0.0006889
0.00048393
0.000309265
0.000222423
0.000142576
0.000102194
6.4523e-05
4.55083e-05
2.78883e-05
1.90752e-05
1.10379e-05
7.07582e-06
3.55373e-06
1.86264e-06
4.34911e-07
-2.02978e-07
-6.76798e-07
-1.00147e-06
-1.49747e-06
-1.91602e-06
-2.6511e-06
-3.56767e-06
-5.59803e-06
-8.53888e-06
-1.54179e-05
-2.56374e-05
-4.97528e-05
-8.58604e-05
-0.000171494
-0.000301542
-0.000613283
-0.00110227
-0.00230307
-0.00432157
-0.00952602
-0.0193428
-0.0448135
-0.083035
-0.100816
-0.144489
-0.189265
-0.260683
-0.232552
-0.0859768
-0.0241522
-0.00604
-67.1789
62.9433
0.87078
0.686256
0.561615
0.423104
0.353501
0.281116
0.241495
0.193351
0.163454
0.12265
0.107431
0.10232
0.0978444
0.0882577
0.0812088
0.0699488
0.0626846
0.0523211
0.0459824
0.0374081
0.0323289
0.0256973
0.0218671
0.0170158
0.0142954
0.0109956
0.00935688
0.00781099
0.00766783
0.0046192
0.00244289
0.00157448
0.000952381
0.000676539
0.000428689
0.000311389
0.000197723
0.000143121
8.94525e-05
6.37352e-05
3.86316e-05
2.67117e-05
1.52636e-05
9.90533e-06
4.89081e-06
2.60412e-06
5.72898e-07
-2.88167e-07
-9.52372e-07
-1.39029e-06
-2.0987e-06
-2.66342e-06
-3.69985e-06
-4.93204e-06
-7.78466e-06
-1.17355e-05
-2.13948e-05
-3.51214e-05
-6.89714e-05
-0.000117456
-0.00023756
-0.000412058
-0.000848483
-0.00150351
-0.00317763
-0.00587215
-0.0130744
-0.0262095
-0.062037
-0.117361
-0.13972
-0.202202
-0.263538
-0.37048
-0.33211
-0.115721
-0.0313629
-0.00770875
-66.0508
60.9049
1.15383
0.87903
0.722918
0.539486
0.454613
0.359316
0.31104
0.247443
0.210862
0.156029
0.137457
0.131537
0.126168
0.113352
0.104718
0.0897123
0.0808245
0.067041
0.05929
0.0478962
0.041687
0.0328792
0.0281974
0.0217556
0.0184296
0.014041
0.0120329
0.00996412
0.0100598
0.00589048
0.00305743
0.00200908
0.00120314
0.000868867
0.000543465
0.000400644
0.000250804
0.000184233
0.000113414
8.20488e-05
4.89216e-05
3.43836e-05
1.92813e-05
1.27469e-05
6.13548e-06
3.34739e-06
6.71759e-07
-3.75812e-07
-1.23368e-06
-1.76591e-06
-2.70385e-06
-3.39045e-06
-4.73969e-06
-6.23083e-06
-9.92709e-06
-1.47041e-05
-2.72103e-05
-4.38031e-05
-8.76097e-05
-0.000146194
-0.000301465
-0.00051212
-0.00107498
-0.00186405
-0.00401146
-0.00724253
-0.0163855
-0.0321686
-0.0784806
-0.153005
-0.177019
-0.259959
-0.335985
-0.486085
-0.438783
-0.140183
-0.036145
-0.00868296
-64.923
58.8507
1.46372
1.06709
0.885344
0.651957
0.556172
0.435666
0.381228
0.300483
0.259026
0.187981
0.166999
0.160757
0.154816
0.138305
0.128509
0.109257
0.0991854
0.0815434
0.072766
0.0581976
0.0511682
0.039913
0.0346135
0.0263839
0.0226181
0.0170011
0.0147203
0.012039
0.0126312
0.00711388
0.00360367
0.00243618
0.00143647
0.00106192
0.000651668
0.000490735
0.00030093
0.000225801
0.000135988
0.000100576
5.85618e-05
4.21479e-05
2.30014e-05
1.56246e-05
7.24837e-06
4.10157e-06
7.15219e-07
-4.64082e-07
-1.52384e-06
-2.12227e-06
-3.31673e-06
-4.08906e-06
-5.77248e-06
-7.4404e-06
-1.20259e-05
-1.73638e-05
-3.28639e-05
-5.13994e-05
-0.000105664
-0.000171076
-0.000363174
-0.00059812
-0.00129247
-0.00217031
-0.00480204
-0.00837655
-0.0194312
-0.0369068
-0.0937958
-0.190668
-0.211959
-0.317991
-0.405464
-0.609581
-0.555504
-0.156862
-0.0378636
-0.00884254
-63.7956
56.7785
1.80759
1.24658
1.04987
0.758962
0.658759
0.50941
0.452505
0.351985
0.308407
0.217957
0.195978
0.189995
0.183917
0.163021
0.152711
0.128466
0.11788
0.0957203
0.0865013
0.0682225
0.0608419
0.046729
0.0411657
0.0308496
0.026895
0.0198397
0.0174347
0.013993
0.0154582
0.00826372
0.00405987
0.00285922
0.0016465
0.00125771
0.000750773
0.000582664
0.000346921
0.000268306
0.000156614
0.000119543
6.72907e-05
5.01068e-05
2.63047e-05
1.85829e-05
8.17742e-06
4.88417e-06
6.82031e-07
-5.48615e-07
-1.82749e-06
-2.4511e-06
-3.94368e-06
-4.74885e-06
-6.8042e-06
-8.53202e-06
-1.40943e-05
-1.96173e-05
-3.83981e-05
-5.75702e-05
-0.000123279
-0.000190902
-0.000423192
-0.000665777
-0.00150267
-0.0024065
-0.00555503
-0.00921153
-0.0222203
-0.0400685
-0.107512
-0.231355
-0.243509
-0.376762
-0.470274
-0.743397
-0.686
-0.162353
-0.0359826
-0.00813072
-62.6689
54.6873
2.19312
1.41155
1.21821
0.858383
0.763356
0.579502
0.52557
0.401251
0.359701
0.245225
0.224349
0.219272
0.213648
0.187353
0.177508
0.147166
0.137074
0.109414
0.100632
0.0778411
0.0708128
0.0532272
0.0479303
0.0350797
0.0313132
0.0225064
0.0202036
0.0157624
0.0186453
0.00930179
0.00440009
0.00328587
0.00182555
0.00145979
0.000837336
0.000678107
0.000387148
0.000312549
0.000174519
0.000139325
7.47467e-05
5.84318e-05
2.9027e-05
2.16966e-05
8.85113e-06
5.72551e-06
5.43364e-07
-6.21096e-07
-2.15168e-06
-2.74086e-06
-4.59484e-06
-5.35582e-06
-7.84706e-06
-9.46874e-06
-1.61637e-05
-2.13407e-05
-4.3919e-05
-6.18837e-05
-0.000140828
-0.000204155
-0.000482824
-0.000709699
-0.00171027
-0.00255298
-0.00628786
-0.00967259
-0.0248161
-0.0412467
-0.118971
-0.276509
-0.270213
-0.437119
-0.527895
-0.890425
-0.835138
-0.151953
-0.0301603
-0.00657116
-61.5429
52.5776
2.62846
1.55304
1.39326
0.947264
0.871558
0.644447
0.601502
0.447253
0.413956
0.268786
0.252122
0.248612
0.244249
0.21107
0.203169
0.165099
0.157014
0.122391
0.115361
0.086863
0.0812383
0.0592615
0.055023
0.0389678
0.0359528
0.0249289
0.023073
0.0172521
0.022338
0.010171
0.00459338
0.00372995
0.00196302
0.00167395
0.000906506
0.000779762
0.000419308
0.000359815
0.000188607
0.000160525
8.04175e-05
6.73988e-05
3.09359e-05
2.50871e-05
9.1686e-06
6.6752e-06
2.58914e-07
-6.67109e-07
-2.50729e-06
-2.97504e-06
-5.286e-06
-5.89028e-06
-8.92247e-06
-1.02007e-05
-1.82932e-05
-2.23683e-05
-4.96271e-05
-6.37623e-05
-0.000159012
-0.000208809
-0.00054456
-0.000722714
-0.00192426
-0.00258388
-0.00703486
-0.0096635
-0.0273607
-0.0399735
-0.127239
-0.328215
-0.289988
-0.500517
-0.574639
-1.05415
-1.00938
-0.119095
-0.0204091
-0.00428316
-60.418
50.453
3.12184
1.65796
1.57982
1.02139
0.985874
0.702084
0.681943
0.48847
0.472738
0.287246
0.279408
0.278033
0.27605
0.233827
0.230087
0.181882
0.178063
0.13431
0.130992
0.0950084
0.0923548
0.0646176
0.0626183
0.0423585
0.0409357
0.0270028
0.0261181
0.0183202
0.0267408
0.0107865
0.004603
0.00421429
0.00204377
0.00190933
0.000951294
0.000891857
0.000440071
0.00041211
0.000197294
0.000184087
8.35637e-05
7.74405e-05
3.1696e-05
2.89454e-05
8.98447e-06
7.81204e-06
-2.28928e-07
-6.62835e-07
-2.91112e-06
-3.12984e-06
-6.04124e-06
-6.32379e-06
-1.00655e-05
-1.0658e-05
-2.05828e-05
-2.24684e-05
-5.58633e-05
-6.24008e-05
-0.000179027
-0.000202042
-0.000612635
-0.000694837
-0.00216002
-0.00246323
-0.00785495
-0.00905189
-0.030109
-0.0357144
-0.130958
-0.389488
-0.299811
-0.569366
-0.605163
-1.23884
-1.21743
-0.0545736
-0.00735467
-0.00148985
-59.2943
50.4511
3.12161
1.65775
1.57961
1.02129
0.985781
0.702134
0.682003
0.488625
0.472897
0.287419
0.279584
0.278242
0.27626
0.234022
0.23028
0.182042
0.17822
0.134432
0.131111
0.0950989
0.0924432
0.0646842
0.0626833
0.0424075
0.0409835
0.0270392
0.0261539
0.0183512
0.0267903
0.0108091
0.00461546
0.00422609
0.00205146
0.00191676
0.000956694
0.000897124
0.000444279
0.000416249
0.000200876
0.000187633
8.68191e-05
8.06748e-05
3.47296e-05
3.19597e-05
1.17463e-05
1.05482e-05
2.15083e-06
1.67579e-06
-1.22299e-06
-1.4509e-06
-3.93291e-06
-4.1894e-06
-7.71493e-06
-8.29039e-06
-1.80292e-05
-1.98973e-05
-5.30633e-05
-5.95748e-05
-0.000175824
-0.000198774
-0.000608253
-0.000690257
-0.00215197
-0.00245457
-0.00783561
-0.00903063
-0.0300547
-0.0356533
-0.130784
-0.389042
-0.299499
-0.568932
-0.604717
-1.23824
-1.21685
-0.0545479
-0.00735148
-0.00148731
-59.2975
52.5758
2.62826
1.55285
1.39308
0.947167
0.871482
0.644484
0.60156
0.447386
0.414099
0.26894
0.252281
0.248797
0.244435
0.211245
0.20334
0.165244
0.157152
0.122503
0.115466
0.0869456
0.0813163
0.0593224
0.0550804
0.0390125
0.0359951
0.0249622
0.023105
0.0172811
0.0223793
0.0101922
0.00460529
0.00374042
0.00197017
0.00168052
0.000911464
0.000784435
0.00042314
0.000363499
0.00019185
0.00016369
8.33511e-05
7.0287e-05
3.3664e-05
2.77739e-05
1.16547e-05
9.10656e-06
2.40621e-06
1.3938e-06
-9.47717e-07
-1.43493e-06
-3.4189e-06
-3.96876e-06
-6.82789e-06
-8.06988e-06
-1.60139e-05
-2.00515e-05
-4.71272e-05
-6.12065e-05
-0.00015615
-0.000205808
-0.000540653
-0.000718381
-0.00191712
-0.00257541
-0.00701771
-0.00964218
-0.0273121
-0.0399098
-0.127074
-0.327841
-0.289695
-0.500133
-0.574234
-1.05363
-1.00889
-0.119039
-0.0204011
-0.00427665
-60.4209
54.6857
2.19295
1.41138
1.21806
0.858295
0.763294
0.57953
0.525624
0.401364
0.359826
0.245361
0.22449
0.219434
0.213812
0.187508
0.177657
0.147295
0.137196
0.109513
0.100724
0.0779149
0.070881
0.0532816
0.0479804
0.0351197
0.0313501
0.0225362
0.0202319
0.0157887
0.0186797
0.00932103
0.00441112
0.00329507
0.00183205
0.00146554
0.000841795
0.000682207
0.000390574
0.000315789
0.000177405
0.000142113
7.73492e-05
6.09772e-05
3.14432e-05
2.4061e-05
1.10544e-05
7.86007e-06
2.44914e-06
1.17764e-06
-7.4076e-07
-1.35421e-06
-2.95905e-06
-3.65291e-06
-6.00413e-06
-7.58025e-06
-1.41553e-05
-1.92854e-05
-4.17154e-05
-5.96094e-05
-0.000138301
-0.000201452
-0.000479376
-0.00070571
-0.00170397
-0.002545
-0.00627272
-0.00965213
-0.0247729
-0.0411839
-0.11882
-0.276196
-0.269946
-0.436783
-0.527532
-0.889978
-0.834733
-0.15188
-0.0301498
-0.00656371
-61.5455
56.7772
1.80744
1.24644
1.04974
0.758884
0.658709
0.509432
0.452553
0.352081
0.308516
0.218075
0.196102
0.190134
0.184059
0.163156
0.15284
0.128578
0.117984
0.0958071
0.0865806
0.0682872
0.0609007
0.0467767
0.0412089
0.0308847
0.0269269
0.0198659
0.0174593
0.0140162
0.0154866
0.00828075
0.00406979
0.00286721
0.00165226
0.00126268
0.000754695
0.000586206
0.00034992
0.000271108
0.000159132
0.000121958
6.95559e-05
5.23116e-05
2.84049e-05
2.06283e-05
1.00931e-05
6.72739e-06
2.34047e-06
9.9832e-07
-5.80482e-07
-1.22955e-06
-2.53275e-06
-3.26833e-06
-5.21008e-06
-6.88981e-06
-1.2355e-05
-1.78284e-05
-3.64888e-05
-5.55859e-05
-0.000121086
-0.00018852
-0.000420195
-0.000662205
-0.00149719
-0.00239923
-0.00554183
-0.00919264
-0.0221823
-0.0400094
-0.107377
-0.231095
-0.243272
-0.376472
-0.469958
-0.743019
-0.685666
-0.162274
-0.0359712
-0.00812437
-62.6711
58.8496
1.4636
1.06697
0.885235
0.65189
0.556132
0.435682
0.38127
0.300562
0.259118
0.18808
0.167104
0.160874
0.154935
0.138418
0.128618
0.109352
0.0992733
0.0816173
0.0728328
0.0582528
0.0512178
0.0399537
0.0346499
0.0264138
0.0226449
0.0170234
0.0147412
0.0120589
0.0126544
0.0071285
0.00361231
0.00244297
0.00144144
0.00106612
0.000655026
0.000493729
0.000303489
0.000228171
0.000138131
0.00010262
6.04852e-05
4.40132e-05
2.47826e-05
1.73533e-05
8.8732e-06
5.65713e-06
2.12255e-06
8.37855e-07
-4.52373e-07
-1.07502e-06
-2.12659e-06
-2.83344e-06
-4.42537e-06
-6.04729e-06
-1.05547e-05
-1.58451e-05
-3.12481e-05
-4.97113e-05
-0.000103804
-0.000169035
-0.000360628
-0.000595019
-0.0012878
-0.00216392
-0.00479077
-0.00835978
-0.0193986
-0.0368535
-0.0936793
-0.190456
-0.211755
-0.317747
-0.405195
-0.609268
-0.555232
-0.156784
-0.0378522
-0.00883803
-63.7975
60.9039
1.15374
0.878932
0.72283
0.539431
0.454581
0.359328
0.311075
0.247507
0.210937
0.156111
0.137544
0.131633
0.126266
0.113445
0.104807
0.0897906
0.0808961
0.0671018
0.0593445
0.0479417
0.0417274
0.0329127
0.0282272
0.0217802
0.0184515
0.0140595
0.01205
0.00998055
0.0100782
0.00590257
0.00306466
0.00201468
0.00120727
0.000872309
0.00054624
0.000403093
0.000252912
0.000186172
0.000115175
8.37214e-05
5.04996e-05
3.591e-05
2.07413e-05
1.41602e-05
7.46723e-06
4.61775e-06
1.82554e-06
6.85508e-07
-3.46563e-07
-9.00159e-07
-1.73203e-06
-2.36143e-06
-3.63848e-06
-5.0888e-06
-8.72345e-06
-1.34583e-05
-2.58877e-05
-4.24161e-05
-8.60847e-05
-0.000144507
-0.000299373
-0.000509532
-0.00107113
-0.00185866
-0.00400215
-0.00722828
-0.0163584
-0.032123
-0.078384
-0.152835
-0.17685
-0.25976
-0.335764
-0.485833
-0.438567
-0.140112
-0.0361343
-0.00868028
-64.9245
62.9425
0.870708
0.686181
0.561548
0.42306
0.353477
0.281125
0.241522
0.1934
0.163512
0.122713
0.107498
0.102394
0.0979198
0.0883301
0.0812775
0.0700098
0.0627402
0.0523685
0.0460247
0.0374435
0.0323603
0.0257235
0.0218902
0.017035
0.0143125
0.0110101
0.00937028
0.00782385
0.00768187
0.00462868
0.0024486
0.00157886
0.000955633
0.000679221
0.000430863
0.000313296
0.000199371
0.00014463
9.0827e-05
6.50369e-05
3.98617e-05
2.78993e-05
1.64007e-05
1.10041e-05
5.92795e-06
3.59091e-06
1.47154e-06
5.35286e-07
-2.56191e-07
-7.11569e-07
-1.34375e-06
-1.86212e-06
-2.84383e-06
-4.04253e-06
-6.84844e-06
-1.07647e-05
-2.03656e-05
-3.40391e-05
-6.77829e-05
-0.000116133
-0.000235926
-0.000410015
-0.000845473
-0.00149923
-0.00317033
-0.00586076
-0.0130529
-0.0261727
-0.0619612
-0.117231
-0.139588
-0.202047
-0.263366
-0.370287
-0.331945
-0.115661
-0.0313535
-0.00770756
-66.052
64.9684
0.607912
0.491056
0.400844
0.303958
0.252508
0.201636
0.172333
0.138586
0.116544
0.0883096
0.0770659
0.0731485
0.0697986
0.0631344
0.0579373
0.0500893
0.044728
0.0374926
0.032812
0.0268215
0.0230702
0.0184353
0.0156061
0.0122148
0.0102057
0.00790192
0.00669379
0.00561749
0.00540878
0.00332421
0.00178261
0.0011349
0.000691246
0.00048585
0.000310827
0.000223786
0.000143757
0.000103273
6.55072e-05
4.64387e-05
2.87684e-05
1.99238e-05
1.18509e-05
7.86046e-06
4.29521e-06
2.56688e-06
1.0774e-06
3.84282e-07
-1.76326e-07
-5.13871e-07
-9.58596e-07
-1.34319e-06
-2.03987e-06
-2.93167e-06
-4.92923e-06
-7.84444e-06
-1.46825e-05
-2.48624e-05
-4.89025e-05
-8.49107e-05
-0.000170323
-0.000300067
-0.000611121
-0.00109916
-0.00229781
-0.00431326
-0.00951054
-0.0193159
-0.044759
-0.0829439
-0.100721
-0.144379
-0.189142
-0.260546
-0.232437
-0.0859311
-0.024145
-0.00603986
-67.1798
66.9848
0.359211
0.294882
0.240423
0.183055
0.151534
0.121301
0.103339
0.0833189
0.0698381
0.0532391
0.0463527
0.0438941
0.041824
0.0378947
0.0347178
0.0300838
0.0268047
0.0225278
0.0196642
0.0161215
0.0138261
0.0110843
0.00935299
0.00734658
0.00611734
0.0047555
0.00401703
0.0033811
0.0032155
0.00200113
0.00108268
0.000684002
0.000418139
0.000291864
0.000187683
0.000134306
8.67736e-05
6.19649e-05
3.95469e-05
2.78638e-05
1.73747e-05
1.19558e-05
7.16289e-06
4.71788e-06
2.60061e-06
1.54152e-06
6.56596e-07
2.31557e-07
-1.03257e-07
-3.10426e-07
-5.74826e-07
-8.11024e-07
-1.22765e-06
-1.77635e-06
-2.97346e-06
-4.76784e-06
-8.86698e-06
-1.51336e-05
-2.95474e-05
-5.17182e-05
-0.000102957
-0.000182882
-0.000369716
-0.0006707
-0.00139268
-0.00263857
-0.00578391
-0.0118336
-0.0270472
-0.0494725
-0.0608182
-0.0866642
-0.11385
-0.154783
-0.137661
-0.0528128
-0.0151882
-0.00384404
-68.3078
68.9956
0.118822
0.0983238
0.0801292
0.0611291
0.0505178
0.0404857
0.0344374
0.0278
0.0232658
0.0177877
0.0154698
0.0146323
0.0139324
0.0126337
0.0115654
0.0100327
0.00892981
0.00751441
0.0065511
0.00537839
0.00460618
0.00369846
0.003116
0.00245171
0.00203818
0.00158749
0.00133918
0.0011287
0.00106702
0.000668087
0.000363044
0.000228531
0.000139939
9.73543e-05
6.27549e-05
4.47774e-05
2.90092e-05
2.06566e-05
1.32218e-05
9.28871e-06
5.81009e-06
3.98583e-06
2.39616e-06
1.57303e-06
8.70699e-07
5.1413e-07
2.20522e-07
7.73703e-08
-3.40083e-08
-1.03813e-07
-1.91569e-07
-2.7118e-07
-4.09865e-07
-5.94982e-07
-9.93898e-07
-1.59938e-06
-2.96555e-06
-5.08024e-06
-9.88457e-06
-1.7367e-05
-3.44502e-05
-6.14309e-05
-0.000123761
-0.000225425
-0.000466624
-0.000887944
-0.00194117
-0.00398477
-0.00904686
-0.0164441
-0.020335
-0.0288955
-0.0380063
-0.0513401
-0.0455934
-0.0178062
-0.00517967
-0.00131875
-69.4359
68.8458
0.114552
0.08505
0.0621913
0.0402687
0.0289959
0.019828
0.0150088
0.0108047
0.00927343
0.00912786
0.00906747
0.00883476
0.00853335
0.00796188
0.00745313
0.00666925
0.00605701
0.00520608
0.00459189
0.00379907
0.00326036
0.00260736
0.00218375
0.00169622
0.00139299
0.0010633
0.000880034
0.000719955
0.000663813
0.000406322
0.000212473
0.000128102
7.44267e-05
4.93432e-05
2.99211e-05
2.01008e-05
1.18138e-05
7.45551e-06
3.57005e-06
1.40751e-06
-7.17637e-07
-2.06311e-06
-3.64999e-06
-4.82808e-06
-6.44876e-06
-7.7069e-06
-9.46397e-06
-1.07228e-05
-1.26341e-05
-1.60814e-05
-2.36825e-05
-3.11274e-05
-4.37063e-05
-5.6205e-05
-7.7833e-05
-9.9734e-05
-0.000138096
-0.00017747
-0.000247155
-0.00032014
-0.000451511
-0.000594476
-0.000860285
-0.00117219
-0.00178978
-0.00262754
-0.00448369
-0.00761936
-0.0149962
-0.0250046
-0.0279451
-0.0354521
-0.0434579
-0.0548143
-0.0477745
-0.0186007
-0.00540407
-0.00137506
-69.0288
66.5357
0.346612
0.254887
0.186539
0.120382
0.086905
0.0593107
0.0450022
0.0323072
0.0277649
0.0273802
0.0272094
0.0265073
0.0256113
0.0238839
0.0223714
0.0200021
0.0181819
0.0156101
0.0137842
0.0113884
0.00978696
0.00781407
0.00655489
0.00508222
0.00418085
0.00318473
0.00263978
0.00215626
0.00200003
0.00121677
0.000633233
0.000383207
0.000222217
0.00014786
8.94167e-05
6.02678e-05
3.5302e-05
2.23602e-05
1.06494e-05
4.22666e-06
-2.18066e-06
-6.17752e-06
-1.09653e-05
-1.44663e-05
-1.93612e-05
-2.31017e-05
-2.84133e-05
-3.21443e-05
-3.78432e-05
-4.8081e-05
-7.1058e-05
-9.31821e-05
-0.000131129
-0.000168259
-0.0002335
-0.000298559
-0.000414267
-0.000531222
-0.000741364
-0.000958121
-0.00135412
-0.00177857
-0.00257909
-0.00350445
-0.00536065
-0.00784203
-0.0134001
-0.0226887
-0.0448837
-0.0752968
-0.083653
-0.106337
-0.13024
-0.165179
-0.144209
-0.0551632
-0.0158455
-0.00400866
-67.0864
64.2202
0.587639
0.423797
0.310805
0.199193
0.144583
0.0982643
0.0749323
0.0534839
0.04609
0.045624
0.0453729
0.0441886
0.0427241
0.0397997
0.0373268
0.0333165
0.0303407
0.0259885
0.0230035
0.01895
0.0163323
0.0129958
0.0109378
0.00844813
0.00697495
0.00529017
0.00439889
0.00358111
0.00336295
0.00202028
0.00104123
0.000635134
0.000366785
0.000245909
0.000147853
0.000100348
5.83623e-05
3.72535e-05
1.75417e-05
7.06206e-06
-3.72984e-06
-1.02539e-05
-1.83293e-05
-2.4048e-05
-3.23214e-05
-3.84365e-05
-4.74303e-05
-5.34923e-05
-6.28773e-05
-7.95795e-05
-0.00011848
-0.00015462
-0.000218607
-0.000279215
-0.000389211
-0.000495402
-0.000690446
-0.000881318
-0.0012354
-0.00158905
-0.00225573
-0.0029478
-0.00429312
-0.00579974
-0.00890686
-0.0129339
-0.0221678
-0.0372424
-0.0744434
-0.126473
-0.138789
-0.177173
-0.216581
-0.27778
-0.243367
-0.0897366
-0.0251877
-0.006299
-65.1439
61.8961
0.843919
0.590685
0.435028
0.275734
0.201936
0.136302
0.104789
0.074099
0.064138
0.0638592
0.0635741
0.0618826
0.0598978
0.0557013
0.0523486
0.0465955
0.0425612
0.0363192
0.0322726
0.0264611
0.0229129
0.0181322
0.0153433
0.011778
0.0097816
0.00736727
0.0061581
0.0049847
0.00477357
0.00281099
0.00142726
0.000882186