/*--------------------------------*- C++ -*----------------------------------*\
| =========                 |                                                 |
| \\      /  F ield         | OpenFOAM: The Open Source CFD Toolbox           |
|  \\    /   O peration     | Version:  5.x                                   |
|   \\  /    A nd           | Web:      www.OpenFOAM.org                      |
|    \\/     M anipulation  |                                                 |
\*---------------------------------------------------------------------------*/
FoamFile
{
    version     2.0;
    format      ascii;
    class       volScalarField;
    location    "0.6";
    object      T;
}
// * * * * * * * * * * * * * * * * * * * * * * * * * * * * * * * * * * * * * //

dimensions      [0 0 0 1 0 0 0];

internalField   nonuniform List<scalar> 
3200
(
2.23352
2.53017
2.54682
2.66286
2.67002
2.72316
2.72665
2.75605
2.7581
2.77751
2.77884
2.79102
2.79211
2.80592
2.80703
2.81989
2.82088
2.83167
2.83246
2.8408
2.84139
2.84737
2.84779
2.85182
2.85209
2.85466
2.85484
2.85642
2.85653
2.85755
2.85815
2.85819
2.85841
2.85842
2.85851
2.85851
2.85855
2.85856
2.85857
2.85857
2.85858
2.85858
2.85858
2.85858
2.85857
2.85857
2.85856
2.85856
2.85855
2.85854
2.85852
2.85852
2.85848
2.85847
2.85839
2.85838
2.85824
2.85822
2.85797
2.85794
2.85748
2.85743
2.8566
2.8565
2.85493
2.85473
2.85155
2.8511
2.84377
2.84243
2.82055
2.78141
2.777
2.71223
2.70459
2.58328
2.57824
2.5776
2.57747
2.57745
2.38924
2.61613
2.65092
2.74384
2.75913
2.80171
2.80917
2.83264
2.83701
2.85244
2.85526
2.86502
2.86733
2.87825
2.8806
2.89077
2.89286
2.9014
2.90309
2.90969
2.91095
2.91569
2.91658
2.91977
2.92036
2.9224
2.92277
2.92402
2.92426
2.92509
2.92561
2.9257
2.92587
2.9259
2.92597
2.92598
2.92601
2.92602
2.92603
2.92603
2.92604
2.92604
2.92604
2.92604
2.92603
2.92603
2.92602
2.92602
2.92601
2.92601
2.92599
2.92599
2.92595
2.92594
2.92588
2.92586
2.92574
2.92571
2.9255
2.92544
2.92508
2.92496
2.9243
2.92408
2.92283
2.9224
2.91985
2.91887
2.91289
2.90993
2.89076
2.85874
2.8493
2.79769
2.78161
2.68736
2.67673
2.67498
2.67461
2.67453
2.53587
2.70977
2.75268
2.82793
2.84715
2.88168
2.89105
2.91001
2.91548
2.92787
2.93142
2.93931
2.94221
2.95093
2.95386
2.96199
2.96459
2.97142
2.97353
2.97881
2.98039
2.98418
2.98529
2.98785
2.98858
2.99021
2.99067
2.99168
2.99198
2.99266
2.99311
2.99322
2.99336
2.9934
2.99346
2.99347
2.9935
2.9935
2.99351
2.99351
2.99352
2.99352
2.99352
2.99352
2.99351
2.99351
2.99351
2.9935
2.99349
2.99349
2.99348
2.99347
2.99344
2.99343
2.99338
2.99335
2.99326
2.99322
2.99305
2.99297
2.99268
2.99253
2.992
2.99173
2.99071
2.99017
2.98809
2.98685
2.9819
2.9781
2.9615
2.93518
2.92331
2.88173
2.86177
2.78813
2.77489
2.77231
2.77175
2.77163
2.67554
2.80865
2.85315
2.91425
2.93455
2.96266
2.97255
2.98791
2.99368
3.00366
3.0074
3.01381
3.01687
3.02384
3.02692
3.03343
3.03616
3.04164
3.04385
3.04808
3.04974
3.05279
3.05395
3.05601
3.05677
3.05809
3.05857
3.05939
3.0597
3.06026
3.06064
3.06075
3.06087
3.06091
3.06096
3.06097
3.06099
3.061
3.06101
3.06101
3.06101
3.06102
3.06101
3.06101
3.06101
3.06101
3.061
3.061
3.06099
3.06099
3.06098
3.06097
3.06095
3.06093
3.06089
3.06087
3.06079
3.06075
3.06061
3.06053
3.06029
3.06014
3.05971
3.05942
3.0586
3.05802
3.05633
3.055
3.05088
3.04679
3.03264
3.01106
2.99853
2.96493
2.94409
2.88649
2.87263
2.86958
2.86888
2.86873
2.80988
2.91107
2.95295
3.00221
3.02164
3.04437
3.05384
3.0662
3.07172
3.0797
3.08327
3.08845
3.09137
3.09691
3.09984
3.10502
3.10763
3.11199
3.11409
3.11747
3.11905
3.12148
3.12259
3.12423
3.12496
3.12601
3.12648
3.12713
3.12743
3.12788
3.1282
3.1283
3.1284
3.12844
3.12848
3.12849
3.12851
3.12851
3.12852
3.12852
3.12853
3.12853
3.12853
3.12853
3.12852
3.12852
3.12852
3.12851
3.12851
3.1285
3.1285
3.12849
3.12847
3.12846
3.12842
3.1284
3.12834
3.12829
3.12819
3.12811
3.12792
3.12777
3.12742
3.12715
3.12649
3.12594
3.12456
3.12328
3.11988
3.1159
3.10409
3.08659
3.0746
3.04764
3.02789
2.98311
2.96996
2.96677
2.96601
2.96584
2.94017
3.01585
3.05246
3.09136
3.10861
3.12661
3.13501
3.14477
3.14965
3.15593
3.15909
3.16319
3.16576
3.17009
3.17268
3.17673
3.17902
3.18243
3.1843
3.18694
3.18833
3.19023
3.19121
3.1925
3.19315
3.19397
3.19438
3.19489
3.19516
3.19551
3.19577
3.19587
3.19594
3.19598
3.19601
3.19602
3.19603
3.19604
3.19605
3.19605
3.19605
3.19605
3.19605
3.19605
3.19605
3.19605
3.19604
3.19604
3.19604
3.19603
3.19602
3.19602
3.196
3.19599
3.19597
3.19594
3.1959
3.19586
3.19577
3.1957
3.19555
3.19542
3.19515
3.19491
3.19438
3.19389
3.1928
3.19166
3.18891
3.18534
3.17578
3.16192
3.15128
3.13006
3.11271
3.07848
3.06689
3.06387
3.06313
3.06296
3.06743
3.1222
3.15187
3.18138
3.19554
3.20923
3.21614
3.22353
3.22754
3.23228
3.23487
3.23798
3.24009
3.24335
3.24546
3.2485
3.25038
3.25295
3.25447
3.25646
3.2576
3.25903
3.25983
3.2608
3.26133
3.26195
3.26229
3.26268
3.26289
3.26316
3.26336
3.26344
3.2635
3.26353
3.26355
3.26356
3.26357
3.26358
3.26358
3.26358
3.26358
3.26358
3.26358
3.26358
3.26358
3.26358
3.26358
3.26358
3.26357
3.26357
3.26356
3.26356
3.26355
3.26354
3.26352
3.2635
3.26347
3.26343
3.26337
3.26331
3.2632
3.26309
3.26288
3.26268
3.26229
3.26188
3.26105
3.26011
3.25798
3.25502
3.24765
3.23712
3.22839
3.21235
3.19821
3.17295
3.1635
3.16088
3.16023
3.16008
3.19249
3.22955
3.25129
3.27201
3.28249
3.29213
3.29724
3.30243
3.3054
3.30871
3.31063
3.31282
3.31438
3.31665
3.31821
3.32033
3.32171
3.32351
3.32463
3.32602
3.32686
3.32786
3.32845
3.32913
3.32952
3.32995
3.3302
3.33047
3.33063
3.33082
3.33096
3.33102
3.33107
3.33109
3.3311
3.33111
3.33112
3.33112
3.33112
3.33112
3.33113
3.33113
3.33113
3.33113
3.33112
3.33112
3.33112
3.33112
3.33112
3.33112
3.33111
3.33111
3.3311
3.33109
3.33108
3.33107
3.33104
3.33102
3.33097
3.33093
3.33085
3.33077
3.33063
3.33048
3.3302
3.3299
3.32931
3.32861
3.3271
3.32489
3.31966
3.31226
3.3058
3.29456
3.28416
3.2668
3.25984
3.25783
3.25732
3.2572
3.31606
3.33751
3.35075
3.36305
3.36947
3.37521
3.37834
3.38143
3.38324
3.38521
3.38638
3.38768
3.38864
3.38998
3.39093
3.39219
3.39303
3.39409
3.39478
3.3956
3.39612
3.39671
3.39707
3.39747
3.39771
3.39797
3.39812
3.39828
3.39838
3.39849
3.39857
3.39861
3.39864
3.39865
3.39866
3.39866
3.39867
3.39867
3.39867
3.39867
3.39867
3.39867
3.39867
3.39867
3.39867
3.39867
3.39867
3.39867
3.39867
3.39867
3.39866
3.39866
3.39866
3.39865
3.39865
3.39864
3.39862
3.39861
3.39858
3.39855
3.39851
3.39846
3.39837
3.39828
3.39812
3.39793
3.39758
3.39715
3.39624
3.39489
3.39176
3.38736
3.3834
3.37674
3.37039
3.36023
3.35598
3.35472
3.3544
3.35432
3.43878
3.4458
3.45025
3.45432
3.45649
3.45839
3.45945
3.46047
3.46108
3.46173
3.46213
3.46256
3.46288
3.46332
3.46364
3.46406
3.46435
3.4647
3.46493
3.4652
3.46537
3.46557
3.46569
3.46582
3.4659
3.46599
3.46604
3.46609
3.46613
3.46616
3.46619
3.4662
3.46621
3.46622
3.46622
3.46622
3.46622
3.46622
3.46622
3.46622
3.46622
3.46622
3.46622
3.46622
3.46622
3.46622
3.46622
3.46622
3.46622
3.46622
3.46622
3.46622
3.46622
3.46622
3.46621
3.46621
3.46621
3.4662
3.46619
3.46618
3.46617
3.46615
3.46612
3.46609
3.46604
3.46598
3.46586
3.46571
3.46541
3.46495
3.46391
3.46246
3.46112
3.45891
3.45678
3.45344
3.45201
3.45158
3.45147
3.45144
3.44625
3.45332
3.45813
3.46316
3.46614
3.46927
3.4712
3.47332
3.47464
3.4761
3.47697
3.47787
3.47851
3.47934
3.4799
3.4806
3.48106
3.4816
3.48195
3.48235
3.48261
3.48289
3.48307
3.48326
3.48338
3.4835
3.48358
3.48366
3.48371
3.48378
3.48382
3.48384
3.48386
3.48386
3.48387
3.48387
3.48388
3.48388
3.48388
3.48388
3.48388
3.48388
3.48388
3.48388
3.48388
3.48388
3.48388
3.48388
3.48388
3.48388
3.48388
3.48388
3.48388
3.48388
3.48388
3.48388
3.48388
3.48388
3.48388
3.48388
3.48388
3.48388
3.48388
3.48387
3.48386
3.48385
3.48382
3.48376
3.48362
3.48336
3.48272
3.48172
3.48068
3.47882
3.47688
3.47369
3.47232
3.47191
3.4718
3.47177
3.33846
3.36006
3.37438
3.38955
3.39843
3.40786
3.41358
3.41999
3.42391
3.42832
3.4309
3.43364
3.43553
3.43802
3.43971
3.44181
3.44318
3.44482
3.44585
3.44707
3.44782
3.44868
3.4492
3.44978
3.45013
3.45052
3.45075
3.45099
3.45115
3.45133
3.45147
3.45153
3.45158
3.4516
3.45162
3.45163
3.45164
3.45164
3.45164
3.45165
3.45165
3.45165
3.45165
3.45165
3.45165
3.45165
3.45165
3.45165
3.45165
3.45165
3.45165
3.45165
3.45165
3.45165
3.45165
3.45165
3.45165
3.45165
3.45165
3.45165
3.45165
3.45164
3.45164
3.45162
3.4516
3.45156
3.45146
3.45129
3.45088
3.45011
3.44817
3.44516
3.44208
3.43648
3.43069
3.421
3.41692
3.41571
3.4154
3.41533
3.22981
3.26708
3.2906
3.3162
3.33069
3.34659
3.35594
3.36676
3.37318
3.38061
3.38483
3.38944
3.39253
3.39675
3.3995
3.40306
3.40529
3.40806
3.40976
3.41181
3.41304
3.41449
3.41534
3.41633
3.4169
3.41755
3.41792
3.41834
3.41859
3.4189
3.41913
3.41923
3.41931
3.41934
3.41938
3.41939
3.41941
3.41941
3.41942
3.41942
3.41943
3.41943
3.41943
3.41943
3.41943
3.41943
3.41943
3.41943
3.41943
3.41943
3.41943
3.41943
3.41943
3.41943
3.41943
3.41943
3.41943
3.41943
3.41943
3.41943
3.41942
3.41942
3.41941
3.41939
3.41935
3.41928
3.41912
3.41885
3.41816
3.41691
3.41368
3.40861
3.4036
3.39416
3.38467
3.36809
3.36142
3.35949
3.359
3.35889
3.11966
3.17466
3.20674
3.24329
3.2629
3.2856
3.29825
3.31371
3.3224
3.33305
3.33875
3.34531
3.34949
3.35554
3.35928
3.36437
3.3674
3.37136
3.37367
3.3766
3.37826
3.38034
3.3815
3.38291
3.38368
3.38461
3.38511
3.38571
3.38605
3.38649
3.38681
3.38695
3.38706
3.38711
3.38715
3.38718
3.3872
3.38721
3.38722
3.38722
3.38723
3.38723
3.38723
3.38723
3.38723
3.38723
3.38723
3.38723
3.38723
3.38723
3.38723
3.38723
3.38723
3.38723
3.38723
3.38723
3.38723
3.38723
3.38723
3.38723
3.38722
3.38721
3.3872
3.38717
3.38711
3.38702
3.3868
3.38644
3.38549
3.38381
3.37928
3.37208
3.36531
3.35186
3.33896
3.31481
3.30575
3.30324
3.30261
3.30247
3.00732
3.08316
3.12271
3.17107
3.195
3.22502
3.24046
3.26095
3.27156
3.28569
3.29265
3.30129
3.3064
3.31445
3.31901
3.32578
3.32948
3.33475
3.33757
3.34146
3.3435
3.34625
3.34766
3.34954
3.35048
3.35171
3.35233
3.35312
3.35353
3.35411
3.35454
3.3547
3.35484
3.3549
3.35496
3.35499
3.35502
3.35503
3.35504
3.35505
3.35505
3.35506
3.35506
3.35506
3.35506
3.35506
3.35506
3.35506
3.35506
3.35506
3.35506
3.35506
3.35506
3.35506
3.35506
3.35506
3.35506
3.35506
3.35506
3.35505
3.35505
3.35504
3.35502
3.35499
3.35491
3.3548
3.35451
3.35408
3.35287
3.35086
3.34502
3.33556
3.32732
3.30956
3.29372
3.26096
3.24984
3.24694
3.24623
3.24607
2.89195
2.99312
3.03832
3.09983
3.12686
3.16502
3.18248
3.20859
3.2206
3.23864
3.2465
3.25744
3.2632
3.27351
3.27868
3.28734
3.29153
3.29827
3.30145
3.30642
3.30873
3.31224
3.31384
3.31623
3.31731
3.31887
3.31957
3.32057
3.32104
3.32178
3.3223
3.32249
3.32266
3.32273
3.32281
3.32284
3.32287
3.32289
3.3229
3.32291
3.32292
3.32292
3.32292
3.32292
3.32292
3.32292
3.32292
3.32293
3.32293
3.32293
3.32292
3.32292
3.32292
3.32292
3.32292
3.32292
3.32292
3.32292
3.32292
3.32292
3.32291
3.3229
3.32287
3.32284
3.32274
3.32262
3.32226
3.32179
3.32032
3.31809
3.31094
3.29903
3.28974
3.26723
3.2492
3.20627
3.19365
3.19058
3.18986
3.1897
2.77254
2.90532
2.95329
3.02998
3.05828
3.10587
3.12416
3.15681
3.16941
3.19201
3.20025
3.21381
3.21985
3.23281
3.23824
3.24911
3.25351
3.26196
3.2653
3.27153
3.27395
3.27835
3.28003
3.28302
3.28415
3.28611
3.28684
3.28809
3.28858
3.28949
3.29013
3.29032
3.29053
3.2906
3.2907
3.29073
3.29077
3.29079
3.29081
3.29081
3.29082
3.29083
3.29083
3.29083
3.29083
3.29083
3.29083
3.29083
3.29083
3.29083
3.29083
3.29083
3.29083
3.29083
3.29083
3.29083
3.29083
3.29083
3.29083
3.29082
3.29081
3.2908
3.29077
3.29074
3.29062
3.2905
3.29007
3.28958
3.28784
3.28557
3.27709
3.26243
3.25274
3.22476
3.20571
3.15042
3.13711
3.13418
3.13352
3.13337
2.64781
2.82091
2.86712
2.96207
2.98895
3.04791
3.06528
3.10586
3.11784
3.14598
3.15381
3.17051
3.17624
3.19243
3.19761
3.21117
3.21536
3.22588
3.22907
3.23683
3.23913
3.24461
3.24621
3.24993
3.251
3.25344
3.25413
3.25569
3.25616
3.25727
3.25802
3.2582
3.25846
3.25853
3.25864
3.25867
3.25873
3.25874
3.25876
3.25877
3.25878
3.25878
3.25879
3.25879
3.25879
3.25879
3.25879
3.25879
3.25879
3.25879
3.25879
3.25879
3.25879
3.25879
3.25879
3.25879
3.25879
3.25879
3.25879
3.25878
3.25877
3.25876
3.25872
3.25869
3.25855
3.25844
3.25792
3.25747
3.25544
3.25334
3.24355
3.22569
3.21652
3.18198
3.16373
3.09294
3.08022
3.07774
3.0772
3.07709
2.51617
2.74159
2.77901
2.8969
2.91834
2.99162
3.00549
3.05607
3.06564
3.10079
3.10704
3.12767
3.13225
3.15253
3.15668
3.17364
3.17699
3.19015
3.1927
3.20239
3.20423
3.21107
3.21236
3.217
3.21786
3.2209
3.22145
3.22339
3.22376
3.22512
3.22599
3.22613
3.22645
3.22651
3.22665
3.22667
3.22674
3.22675
3.22678
3.22679
3.2268
3.2268
3.22681
3.22681
3.22681
3.22681
3.22681
3.22681
3.22681
3.22681
3.22681
3.22681
3.22681
3.22681
3.22681
3.22681
3.22681
3.22681
3.2268
3.2268
3.22679
3.22678
3.22673
3.22671
3.22654
3.22645
3.22584
3.22548
3.2231
3.22149
3.21038
3.18867
3.18138
3.13861
3.12392
3.0332
3.02298
3.02129
3.02094
3.02086
2.37551
2.6698
2.68769
2.83559
2.84567
2.93773
2.94426
3.00794
3.01245
3.05679
3.05973
3.08551
3.08767
3.11332
3.11527
3.1367
3.13828
3.15489
3.15609
3.16832
3.16919
3.17782
3.17842
3.18428
3.18469
3.18852
3.18878
3.19122
3.19139
3.19305
3.19406
3.19413
3.19453
3.19455
3.19473
3.19474
3.19482
3.19483
3.19487
3.19487
3.19489
3.19489
3.1949
3.1949
3.1949
3.1949
3.1949
3.1949
3.1949
3.1949
3.1949
3.1949
3.1949
3.1949
3.1949
3.1949
3.1949
3.1949
3.19489
3.19489
3.19487
3.19487
3.19481
3.1948
3.1946
3.19455
3.19381
3.19365
3.1908
3.19008
3.1777
3.15113
3.14772
3.09419
3.08721
2.97031
2.96546
2.96485
2.96473
2.9647
2.37542
2.66969
2.68758
2.83547
2.84554
2.93759
2.94412
3.00781
3.01232
3.05667
3.05961
3.08541
3.08757
3.11324
3.11519
3.13664
3.13822
3.15484
3.15604
3.16829
3.16916
3.1778
3.1784
3.18426
3.18467
3.1885
3.18877
3.19121
3.19138
3.19304
3.19406
3.19412
3.19452
3.19455
3.19473
3.19474
3.19482
3.19483
3.19487
3.19487
3.19489
3.19489
3.1949
3.1949
3.1949
3.1949
3.1949
3.1949
3.1949
3.1949
3.1949
3.1949
3.1949
3.1949
3.1949
3.1949
3.1949
3.1949
3.19489
3.19489
3.19488
3.19487
3.19481
3.1948
3.1946
3.19456
3.19382
3.19365
3.19081
3.19009
3.17773
3.15119
3.14778
3.09429
3.08731
2.97047
2.96563
2.96501
2.96489
2.96486
2.51609
2.7415
2.77891
2.89678
2.91822
2.9915
3.00537
3.05595
3.06553
3.10069
3.10694
3.12758
3.13216
3.15246
3.15661
3.17358
3.17694
3.19011
3.19266
3.20236
3.2042
3.21105
3.21233
3.21698
3.21784
3.22089
3.22144
3.22338
3.22375
3.22511
3.22599
3.22613
3.22645
3.2265
3.22665
3.22667
3.22674
3.22675
3.22678
3.22679
3.2268
3.2268
3.22681
3.22681
3.22681
3.22681
3.22681
3.22681
3.22681
3.22681
3.22681
3.22681
3.22681
3.22681
3.22681
3.22681
3.22681
3.22681
3.22681
3.2268
3.22679
3.22678
3.22674
3.22671
3.22654
3.22645
3.22584
3.22549
3.22311
3.2215
3.2104
3.18872
3.18144
3.1387
3.12401
3.03334
3.02312
3.02143
3.02108
3.02101
2.64774
2.82083
2.86704
2.96197
2.98884
3.0478
3.06517
3.10575
3.11773
3.14589
3.15372
3.17042
3.17617
3.19237
3.19755
3.21112
3.21531
3.22585
3.22903
3.2368
3.2391
3.24459
3.24619
3.24992
3.25099
3.25343
3.25413
3.25568
3.25615
3.25726
3.25802
3.25819
3.25846
3.25852
3.25864
3.25867
3.25872
3.25874
3.25876
3.25877
3.25878
3.25878
3.25879
3.25879
3.25879
3.25879
3.25879
3.25879
3.25879
3.25879
3.25879
3.25879
3.25879
3.25879
3.25879
3.25879
3.25879
3.25879
3.25879
3.25878
3.25877
3.25876
3.25873
3.25869
3.25856
3.25844
3.25793
3.25747
3.25545
3.25336
3.24357
3.22574
3.21657
3.18206
3.16382
3.09306
3.08035
3.07787
3.07733
3.07722
2.77247
2.90525
2.95322
3.02989
3.05819
3.10578
3.12406
3.15672
3.16932
3.19193
3.20017
3.21374
3.21978
3.23275
3.23819
3.24907
3.25347
3.26192
3.26527
3.2715
3.27393
3.27833
3.28002
3.28301
3.28414
3.2861
3.28683
3.28809
3.28858
3.28949
3.29012
3.29031
3.29053
3.2906
3.2907
3.29073
3.29077
3.29079
3.29081
3.29081
3.29082
3.29083
3.29083
3.29083
3.29083
3.29083
3.29083
3.29083
3.29083
3.29083
3.29083
3.29083
3.29083
3.29083
3.29083
3.29083
3.29083
3.29083
3.29083
3.29083
3.29082
3.29081
3.29077
3.29074
3.29062
3.2905
3.29007
3.28958
3.28785
3.28558
3.27711
3.26247
3.25279
3.22482
3.20579
3.15052
3.13722
3.13429
3.13363
3.13348
2.8919
2.99306
3.03826
3.09975
3.12678
3.16494
3.18239
3.20851
3.22052
3.23857
3.24643
3.25738
3.26314
3.27346
3.27864
3.28731
3.2915
3.29824
3.30143
3.3064
3.30871
3.31223
3.31383
3.31622
3.3173
3.31886
3.31956
3.32057
3.32104
3.32177
3.3223
3.32249
3.32266
3.32273
3.32281
3.32284
3.32287
3.32289
3.3229
3.32291
3.32292
3.32292
3.32292
3.32292
3.32292
3.32292
3.32293
3.32293
3.32293
3.32293
3.32293
3.32293
3.32293
3.32293
3.32292
3.32292
3.32292
3.32292
3.32292
3.32292
3.32291
3.3229
3.32287
3.32284
3.32275
3.32263
3.32227
3.32179
3.32033
3.3181
3.31096
3.29906
3.28978
3.26728
3.24926
3.20636
3.19374
3.19068
3.18995
3.18979
3.00728
3.08311
3.12265
3.17101
3.19494
3.22495
3.24039
3.26088
3.2715
3.28563
3.2926
3.30124
3.30635
3.31441
3.31898
3.32575
3.32946
3.33473
3.33755
3.34144
3.34348
3.34624
3.34765
3.34953
3.35048
3.35171
3.35232
3.35311
3.35353
3.35411
3.35453
3.3547
3.35484
3.3549
3.35496
3.35499
3.35502
3.35503
3.35504
3.35505
3.35505
3.35506
3.35506
3.35506
3.35506
3.35506
3.35506
3.35506
3.35506
3.35506
3.35506
3.35506
3.35506
3.35506
3.35506
3.35506
3.35506
3.35506
3.35506
3.35505
3.35505
3.35504
3.35502
3.35499
3.35491
3.3548
3.35451
3.35408
3.35288
3.35087
3.34504
3.33558
3.32735
3.30961
3.29378
3.26103
3.24992
3.24701
3.24631
3.24615
3.11963
3.17463
3.2067
3.24324
3.26285
3.28555
3.2982
3.31366
3.32235
3.333
3.33871
3.34527
3.34946
3.35551
3.35925
3.36435
3.36738
3.37135
3.37365
3.37658
3.37825
3.38033
3.38149
3.3829
3.38368
3.3846
3.38511
3.3857
3.38605
3.38649
3.38681
3.38695
3.38706
3.38711
3.38715
3.38718
3.3872
3.38721
3.38722
3.38722
3.38723
3.38723
3.38723
3.38723
3.38723
3.38723
3.38723
3.38723
3.38723
3.38723
3.38723
3.38723
3.38723
3.38723
3.38723
3.38723
3.38723
3.38723
3.38723
3.38723
3.38722
3.38722
3.3872
3.38717
3.38711
3.38702
3.3868
3.38644
3.38549
3.38382
3.3793
3.3721
3.36534
3.35189
3.339
3.31486
3.30581
3.3033
3.30267
3.30253
3.22978
3.26706
3.29057
3.31616
3.33066
3.34656
3.35591
3.36672
3.37314
3.38058
3.38479
3.38941
3.3925
3.39673
3.39948
3.40304
3.40528
3.40805
3.40975
3.4118
3.41303
3.41448
3.41534
3.41632
3.4169
3.41754
3.41792
3.41833
3.41859
3.4189
3.41913
3.41923
3.41931
3.41934
3.41937
3.41939
3.41941
3.41941
3.41942
3.41942
3.41943
3.41943
3.41943
3.41943
3.41943
3.41943
3.41943
3.41943
3.41943
3.41943
3.41943
3.41943
3.41943
3.41943
3.41943
3.41943
3.41943
3.41943
3.41943
3.41943
3.41942
3.41942
3.41941
3.41939
3.41935
3.41928
3.41912
3.41885
3.41817
3.41692
3.41369
3.40862
3.40362
3.39418
3.3847
3.36813
3.36146
3.35954
3.35905
3.35893
3.33844
3.36004
3.37436
3.38953
3.39841
3.40783
3.41356
3.41996
3.42389
3.4283
3.43088
3.43362
3.43551
3.43801
3.4397
3.4418
3.44317
3.44481
3.44585
3.44706
3.44781
3.44867
3.4492
3.44978
3.45013
3.45052
3.45074
3.45099
3.45115
3.45133
3.45147
3.45153
3.45157
3.4516
3.45162
3.45163
3.45164
3.45164
3.45164
3.45165
3.45165
3.45165
3.45165
3.45165
3.45165
3.45165
3.45165
3.45165
3.45165
3.45165
3.45165
3.45165
3.45165
3.45165
3.45165
3.45165
3.45165
3.45165
3.45165
3.45165
3.45165
3.45164
3.45164
3.45163
3.4516
3.45156
3.45146
3.45129
3.45088
3.45011
3.44818
3.44516
3.4421
3.4365
3.43071
3.42102
3.41694
3.41574
3.41543
3.41535
3.44624
3.45332
3.45812
3.46315
3.46614
3.46926
3.47119
3.47331
3.47463
3.47609
3.47696
3.47787
3.47851
3.47933
3.4799
3.4806
3.48106
3.4816
3.48195
3.48235
3.4826
3.48289
3.48306
3.48326
3.48338
3.4835
3.48358
3.48366
3.48371
3.48377
3.48382
3.48384
3.48386
3.48386
3.48387
3.48387
3.48388
3.48388
3.48388
3.48388
3.48388
3.48388
3.48388
3.48388
3.48388
3.48388
3.48388
3.48388
3.48388
3.48388
3.48388
3.48388
3.48388
3.48388
3.48388
3.48388
3.48388
3.48388
3.48388
3.48388
3.48388
3.48388
3.48388
3.48387
3.48387
3.48385
3.48382
3.48376
3.48362
3.48336
3.48272
3.48172
3.48069
3.47883
3.47689
3.4737
3.47233
3.47192
3.47181
3.47178
3.43878
3.4458
3.45024
3.45431
3.45646
3.45833
3.45936
3.46032
3.46086
3.4614
3.46178
3.46231
3.46269
3.46319
3.46354
3.46399
3.46429
3.46465
3.46489
3.46518
3.46535
3.46556
3.46568
3.46582
3.4659
3.46599
3.46604
3.46609
3.46613
3.46616
3.46619
3.4662
3.46621
3.46622
3.46622
3.46622
3.46622
3.46622
3.46622
3.46623
3.46623
3.46623
3.46623
3.46623
3.46622
3.46622
3.46622
3.46622
3.46622
3.46622
3.46622
3.46622
3.46622
3.46622
3.46622
3.46621
3.46621
3.4662
3.46619
3.46618
3.46617
3.46615
3.46612
3.46609
3.46604
3.46598
3.46586
3.46571
3.46541
3.46495
3.46391
3.46245
3.46112
3.45891
3.45677
3.45342
3.45199
3.45156
3.45145
3.45143
3.31606
3.3375
3.35072
3.36299
3.36938
3.37503
3.37807
3.38096
3.38257
3.38419
3.38535
3.38693
3.38807
3.38958
3.39063
3.39197
3.39287
3.39397
3.39468
3.39553
3.39606
3.39667
3.39704
3.39745
3.3977
3.39796
3.39811
3.39828
3.39838
3.39849
3.39858
3.39862
3.39864
3.39865
3.39866
3.39867
3.39867
3.39867
3.39868
3.39868
3.39868
3.39868
3.39868
3.39868
3.39868
3.39868
3.39867
3.39867
3.39867
3.39867
3.39867
3.39866
3.39866
3.39866
3.39865
3.39864
3.39862
3.39861
3.39858
3.39856
3.39851
3.39846
3.39837
3.39828
3.39811
3.39793
3.39758
3.39715
3.39624
3.39488
3.39175
3.38735
3.38339
3.37672
3.37036
3.3602
3.35594
3.35468
3.35436
3.35428
3.19249
3.22954
3.25125
3.27192
3.28233
3.29183
3.29679
3.30166
3.30428
3.30701
3.30889
3.31157
3.31343
3.31599
3.3177
3.31997
3.32143
3.3233
3.32447
3.3259
3.32677
3.3278
3.3284
3.3291
3.3295
3.32994
3.33019
3.33047
3.33063
3.33083
3.33097
3.33103
3.33107
3.33109
3.33111
3.33112
3.33112
3.33113
3.33113
3.33113
3.33113
3.33113
3.33113
3.33113
3.33113
3.33113
3.33113
3.33113
3.33112
3.33112
3.33112
3.33111
3.3311
3.3311
3.33108
3.33107
3.33104
3.33102
3.33097
3.33093
3.33085
3.33077
3.33063
3.33048
3.3302
3.3299
3.32931
3.3286
3.32709
3.32488
3.31964
3.31223
3.30577
3.29452
3.28411
3.26674
3.25977
3.25776
3.25725
3.25713
3.06743
3.12218
3.15182
3.18125
3.19532
3.20882
3.21551
3.22245
3.22599
3.22986
3.23241
3.23625
3.23876
3.24244
3.24475
3.24801
3.24999
3.25267
3.25424
3.2563
3.25747
3.25894
3.25976
3.26076
3.2613
3.26193
3.26228
3.26267
3.26289
3.26317
3.26337
3.26345
3.26351
3.26354
3.26356
3.26357
3.26358
3.26359
3.26359
3.26359
3.26359
3.26359
3.26359
3.26359
3.26359
3.26359
3.26359
3.26358
3.26358
3.26358
3.26357
3.26356
3.26355
3.26354
3.26352
3.2635
3.26347
3.26344
3.26337
3.26331
3.2632
3.26309
3.26288
3.26268
3.26228
3.26188
3.26104
3.2601
3.25797
3.25501
3.24763
3.23708
3.22834
3.21229
3.19814
3.17287
3.16341
3.16079
3.16014
3.15999
2.94017
3.01583
3.05239
3.09119
3.10833
3.12608
3.13423
3.14338
3.14769
3.15277
3.15587
3.16098
3.16405
3.16894
3.17177
3.17609
3.17852
3.18208
3.18401
3.18673
3.18817
3.19012
3.19112
3.19244
3.1931
3.19395
3.19436
3.19489
3.19516
3.19552
3.19578
3.19588
3.19596
3.19599
3.19602
3.19604
3.19605
3.19605
3.19606
3.19606
3.19606
3.19606
3.19606
3.19606
3.19606
3.19606
3.19605
3.19605
3.19604
3.19604
3.19603
3.19603
3.19601
3.196
3.19597
3.19595
3.1959
3.19586
3.19578
3.19571
3.19555
3.19542
3.19515
3.19491
3.19438
3.19389
3.19279
3.19165
3.1889
3.18532
3.17575
3.16187
3.15122
3.12999
3.11262
3.07837
3.06678
3.06375
3.06301
3.06284
2.80989
2.91103
2.95287
3.00201
3.02132
3.04373
3.05291
3.0645
3.06936
3.07576
3.07926
3.08579
3.08928
3.09552
3.09873
3.10426
3.10701
3.11155
3.11374
3.11722
3.11885
3.12134
3.12248
3.12416
3.12491
3.12598
3.12646
3.12712
3.12742
3.12789
3.12821
3.12832
3.12842
3.12846
3.12849
3.12851
3.12853
3.12853
3.12854
3.12854
3.12854
3.12854
3.12854
3.12854
3.12854
3.12853
3.12853
3.12853
3.12852
3.12851
3.1285
3.1285
3.12848
3.12846
3.12843
3.1284
3.12834
3.1283
3.12819
3.12811
3.12792
3.12777
3.12742
3.12715
3.12648
3.12593
3.12455
3.12327
3.11986
3.11588
3.10405
3.08653
3.07453
3.04754
3.02778
2.98297
2.96981
2.96662
2.96587
2.9657
2.67555
2.80861
2.85306
2.91401
2.93419
2.9619
2.97149
2.9859
2.99097
2.99886
3.00253
3.01073
3.01439
3.02223
3.0256
3.03254
3.03543
3.04113
3.04343
3.0478
3.0495
3.05263
3.05382
3.05593
3.05671
3.05806
3.05855
3.05938
3.0597
3.06027
3.06066
3.06077
3.06089
3.06093
3.06098
3.061
3.06102
3.06102
3.06103
3.06103
3.06103
3.06103
3.06103
3.06103
3.06103
3.06102
3.06102
3.06101
3.06101
3.061
3.06099
3.06098
3.06096
3.06094
3.0609
3.06087
3.0608
3.06075
3.06062
3.06053
3.0603
3.06014
3.05971
3.05942
3.05859
3.05802
3.05632
3.05499
3.05086
3.04677
3.03259
3.01099
2.99844
2.96482
2.94396
2.88633
2.87246
2.86941
2.86871
2.86856
2.53589
2.70973
2.75259
2.82765
2.84675
2.88081
2.88989
2.90767
2.91248
2.92214
2.92562
2.93585
2.93934
2.94912
2.95233
2.96099
2.96374
2.97085
2.97304
2.97849
2.98011
2.984
2.98514
2.98776
2.9885
2.99018
2.99065
2.99168
2.99198
2.99268
2.99313
2.99324
2.99339
2.99342
2.99348
2.9935
2.99352
2.99353
2.99354
2.99354
2.99354
2.99354
2.99354
2.99354
2.99353
2.99353
2.99352
2.99352
2.99351
2.9935
2.99349
2.99348
2.99345
2.99344
2.99339
2.99336
2.99327
2.99322
2.99306
2.99298
2.99268
2.99254
2.992
2.99173
2.99071
2.99017
2.98808
2.98684
2.98188
2.97807
2.96145
2.9351
2.92322
2.88161
2.86162
2.78794
2.77469
2.77211
2.77155
2.77143
2.38926
2.61608
2.65083
2.74352
2.75872
2.80071
2.80793
2.82996
2.83379
2.84567
2.84844
2.86125
2.86404
2.87628
2.87885
2.88968
2.89188
2.90078
2.90253
2.90934
2.91064
2.9155
2.9164
2.91967
2.92027
2.92236
2.92273
2.92401
2.92425
2.92511
2.92564
2.92572
2.9259
2.92593
2.926
2.92601
2.92604
2.92605
2.92606
2.92606
2.92606
2.92606
2.92606
2.92606
2.92605
2.92605
2.92604
2.92604
2.92603
2.92602
2.92601
2.926
2.92596
2.92595
2.92589
2.92587
2.92575
2.92571
2.92551
2.92545
2.92508
2.92496
2.9243
2.92408
2.92282
2.92239
2.91983
2.91885
2.91286
2.9099
2.8907
2.85864
2.8492
2.79754
2.78145
2.68715
2.67651
2.67475
2.67438
2.6743
2.23356
2.53011
2.54675
2.6625
2.66962
2.72201
2.72539
2.75299
2.75478
2.76956
2.77087
2.78705
2.78836
2.80383
2.80504
2.81873
2.81976
2.831
2.83183
2.84042
2.84103
2.84716
2.84759
2.85171
2.85199
2.85462
2.8548
2.85641
2.85652
2.85757
2.85818
2.85822
2.85844
2.85845
2.85854
2.85855
2.85858
2.85859
2.8586
2.8586
2.85861
2.85861
2.8586
2.8586
2.85859
2.85859
2.85858
2.85858
2.85856
2.85856
2.85854
2.85854
2.85849
2.85849
2.8584
2.85839
2.85825
2.85823
2.85798
2.85795
2.85749
2.85743
2.8566
2.85649
2.85492
2.85472
2.85154
2.85108
2.84374
2.8424
2.82049
2.7813
2.77688
2.71206
2.70442
2.58303
2.57799
2.57735
2.57722
2.5772
)
;

boundaryField
{
    F1_1
    {
        type            fixedValue;
        value           nonuniform List<scalar> 
80
(
2.14961
2.49274
2.49274
2.62456
2.62456
2.68491
2.68491
2.71835
2.71835
2.74046
2.74046
2.75429
2.75429
2.77007
2.77007
2.78476
2.78476
2.7971
2.7971
2.80664
2.80664
2.81348
2.81348
2.8181
2.8181
2.82105
2.82105
2.82286
2.82286
2.82402
2.82466
2.82466
2.82491
2.82491
2.82501
2.82501
2.82506
2.82506
2.82508
2.82508
2.82508
2.82508
2.82508
2.82508
2.82508
2.82508
2.82507
2.82507
2.82505
2.82505
2.82503
2.82503
2.82498
2.82498
2.82488
2.82488
2.82472
2.82472
2.82443
2.82443
2.82391
2.82391
2.82296
2.82296
2.82118
2.82118
2.81758
2.81758
2.80932
2.80932
2.78601
2.74226
2.74226
2.66857
2.66857
2.52911
2.52911
2.52911
2.52911
2.52911
)
;
    }
    F1_2
    {
        type            fixedValue;
        value           nonuniform List<scalar> 
80
(
2.29932
2.63953
2.63953
2.80787
2.80787
2.91274
2.91274
2.98537
2.98537
3.03599
3.03599
3.06533
3.06533
3.09466
3.09466
3.11917
3.11917
3.13817
3.13817
3.15217
3.15217
3.16206
3.16206
3.16877
3.16877
3.17317
3.17317
3.17597
3.17597
3.17784
3.17894
3.17894
3.17939
3.17939
3.1796
3.1796
3.1797
3.1797
3.17974
3.17974
3.17976
3.17976
3.17977
3.17977
3.17977
3.17977
3.17978
3.17978
3.17978
3.17978
3.17978
3.17978
3.17977
3.17977
3.17977
3.17977
3.17977
3.17977
3.17977
3.17977
3.17975
3.17975
3.17968
3.17968
3.17945
3.17945
3.17862
3.17862
3.17544
3.17544
3.16248
3.13273
3.13273
3.07189
3.07189
2.93748
2.93748
2.93748
2.93748
2.93748
)
;
    }
    F1_3
    {
        type            fixedValue;
        value           nonuniform List<scalar> 
80
(
2.29923
2.63941
2.63941
2.80773
2.80773
2.91259
2.91259
2.98523
2.98523
3.03587
3.03587
3.06522
3.06522
3.09458
3.09458
3.11911
3.11911
3.13812
3.13812
3.15213
3.15213
3.16203
3.16203
3.16875
3.16875
3.17316
3.17316
3.17596
3.17596
3.17783
3.17894
3.17894
3.17939
3.17939
3.1796
3.1796
3.1797
3.1797
3.17974
3.17974
3.17976
3.17976
3.17977
3.17977
3.17977
3.17977
3.17978
3.17978
3.17978
3.17978
3.17978
3.17978
3.17978
3.17978
3.17977
3.17977
3.17977
3.17977
3.17977
3.17977
3.17975
3.17975
3.17968
3.17968
3.17945
3.17945
3.17862
3.17862
3.17545
3.17545
3.16251
3.13279
3.13279
3.07199
3.07199
2.93765
2.93765
2.93765
2.93765
2.93765
)
;
    }
    F1_4
    {
        type            fixedValue;
        value           nonuniform List<scalar> 
80
(
2.14965
2.49268
2.49268
2.62417
2.62417
2.68368
2.68368
2.71507
2.71507
2.73183
2.73183
2.75029
2.75029
2.76795
2.76795
2.78357
2.78357
2.79642
2.79642
2.80625
2.80625
2.81327
2.81327
2.81799
2.81799
2.82101
2.82101
2.82286
2.82286
2.82403
2.82469
2.82469
2.82494
2.82494
2.82505
2.82505
2.82509
2.82509
2.82511
2.82511
2.82511
2.82511
2.82511
2.82511
2.8251
2.8251
2.82509
2.82509
2.82507
2.82507
2.82504
2.82504
2.82499
2.82499
2.8249
2.8249
2.82473
2.82473
2.82444
2.82444
2.82391
2.82391
2.82296
2.82296
2.82117
2.82117
2.81757
2.81757
2.80929
2.80929
2.78595
2.74215
2.74215
2.66839
2.66839
2.52885
2.52885
2.52885
2.52885
2.52885
)
;
    }
    F2_1
    {
        type            fixedValue;
        value           uniform 3.5;
    }
    F2_2
    {
        type            fixedValue;
        value           uniform 3.5;
    }
    F2_3
    {
        type            fixedValue;
        value           uniform 3.5;
    }
    F2_4
    {
        type            fixedValue;
        value           uniform 3.5;
    }
    defaultFaces
    {
        type            empty;
    }
}


// ************************************************************************* //
