/*--------------------------------*- C++ -*----------------------------------*\
| =========                 |                                                 |
| \\      /  F ield         | OpenFOAM: The Open Source CFD Toolbox           |
|  \\    /   O peration     | Version:  5.x                                   |
|   \\  /    A nd           | Web:      www.OpenFOAM.org                      |
|    \\/     M anipulation  |                                                 |
\*---------------------------------------------------------------------------*/
FoamFile
{
    version     2.0;
    format      ascii;
    class       volScalarField;
    location    "19.5";
    object      T;
}
// * * * * * * * * * * * * * * * * * * * * * * * * * * * * * * * * * * * * * //

dimensions      [0 0 0 1 0 0 0];

internalField   nonuniform List<scalar> 
2048
(
9.81021
9.8104
9.81079
9.81136
9.8121
9.81298
9.81399
9.81511
9.81631
9.81759
9.81892
9.82029
9.82168
9.82308
9.82448
9.82587
9.82725
9.8286
9.82992
9.83121
9.83246
9.83368
9.83485
9.83598
9.83706
9.8381
9.83909
9.84003
9.84092
9.84174
9.84251
9.84321
9.84385
9.8444
9.84487
9.84525
9.84553
9.8457
9.84576
9.84569
9.84549
9.84515
9.84465
9.84399
9.84317
9.84218
9.84101
9.83966
9.83815
9.83648
9.83467
9.83274
9.83072
9.82865
9.82658
9.82454
9.82259
9.82078
9.81915
9.81773
9.81656
9.81567
9.81506
9.81475
9.43876
9.43935
9.4405
9.4422
9.44438
9.44701
9.45001
9.45334
9.45692
9.46071
9.46465
9.4687
9.47282
9.47697
9.48112
9.48525
9.48932
9.49332
9.49723
9.50104
9.50475
9.50834
9.5118
9.51514
9.51835
9.52142
9.52435
9.52713
9.52975
9.5322
9.53448
9.53656
9.53843
9.54007
9.54147
9.5426
9.54344
9.54395
9.54413
9.54394
9.54335
9.54234
9.54088
9.53894
9.53651
9.53357
9.53012
9.52614
9.52166
9.51671
9.51133
9.5056
9.4996
9.49345
9.48728
9.48122
9.47543
9.47004
9.46518
9.46096
9.45749
9.45482
9.45301
9.4521
9.08311
9.08408
9.086
9.08881
9.09242
9.09676
9.10171
9.10719
9.11309
9.11932
9.12579
9.13244
9.1392
9.146
9.15281
9.15956
9.16622
9.17277
9.17917
9.1854
9.19145
9.19732
9.20298
9.20844
9.21368
9.2187
9.22349
9.22803
9.23232
9.23634
9.24006
9.24347
9.24654
9.24924
9.25154
9.2534
9.25479
9.25566
9.25597
9.25568
9.25474
9.25311
9.25075
9.24761
9.24365
9.23886
9.23321
9.22671
9.21937
9.21124
9.2024
9.19297
9.18308
9.17293
9.16273
9.15272
9.14314
9.13423
9.1262
9.11924
9.1135
9.1091
9.10613
9.10462
8.74234
8.74371
8.74639
8.75031
8.75536
8.7614
8.76829
8.77589
8.78406
8.79268
8.80163
8.81081
8.82013
8.82951
8.83888
8.84817
8.85734
8.86633
8.87512
8.88368
8.89199
8.90004
8.90781
8.9153
8.92249
8.92938
8.93595
8.9422
8.94809
8.95361
8.95874
8.96344
8.96767
8.97141
8.9746
8.97719
8.97913
8.98036
8.98083
8.98048
8.97924
8.97704
8.97384
8.96957
8.96418
8.95763
8.94989
8.94096
8.93085
8.91963
8.9074
8.89432
8.88058
8.86646
8.85225
8.83829
8.82493
8.8125
8.8013
8.79161
8.78363
8.77752
8.77339
8.77131
8.41562
8.41738
8.42085
8.4259
8.4324
8.44016
8.449
8.45872
8.46915
8.48013
8.49151
8.50317
8.51499
8.52687
8.53873
8.55048
8.56207
8.57343
8.58453
8.59532
8.6058
8.61593
8.62573
8.63516
8.64423
8.65291
8.6612
8.66908
8.67652
8.6835
8.68999
8.69594
8.70132
8.70607
8.71014
8.71346
8.71597
8.71759
8.71825
8.71787
8.71638
8.71369
8.70972
8.70441
8.69767
8.68945
8.67971
8.66844
8.65565
8.64141
8.62584
8.60914
8.59156
8.57345
8.55519
8.53724
8.52004
8.50405
8.48967
8.47723
8.467
8.45918
8.45391
8.45125
8.10216
8.10434
8.10862
8.11485
8.12284
8.13235
8.14316
8.15501
8.16769
8.181
8.19478
8.20888
8.22315
8.23748
8.25176
8.26591
8.27984
8.29349
8.30681
8.31976
8.33231
8.34446
8.35619
8.36749
8.37835
8.38876
8.39871
8.40816
8.4171
8.42549
8.4333
8.44048
8.44698
8.45273
8.45768
8.46174
8.46483
8.46686
8.46775
8.4674
8.46571
8.46259
8.45794
8.45166
8.44366
8.43388
8.42224
8.40871
8.39332
8.37612
8.35725
8.33694
8.31549
8.29333
8.27095
8.24891
8.22779
8.20817
8.19054
8.17532
8.16283
8.1533
8.14688
8.14365
7.80126
7.80388
7.80901
7.81647
7.82601
7.83733
7.85013
7.86414
7.87908
7.89472
7.91087
7.92736
7.94404
7.96077
7.97742
7.9939
8.01011
8.02597
8.04143
8.05645
8.071
8.08507
8.09866
8.11175
8.12434
8.13642
8.14795
8.15893
8.16931
8.17907
8.18817
8.19655
8.20415
8.21091
8.21673
8.22154
8.22523
8.22771
8.22886
8.22858
8.22676
8.22328
8.21802
8.21087
8.20172
8.19046
8.17702
8.16134
8.14342
8.12332
8.10118
8.07724
8.05187
8.02557
7.99895
7.9727
7.94754
7.92417
7.90322
7.88517
7.8704
7.85916
7.85159
7.8478
7.51226
7.51534
7.52139
7.53014
7.5413
7.55449
7.56935
7.58554
7.60274
7.62071
7.63921
7.65807
7.67711
7.69619
7.71517
7.73392
7.75234
7.77035
7.78788
7.80488
7.82135
7.83727
7.85263
7.86745
7.88169
7.89536
7.90843
7.92088
7.93266
7.94375
7.9541
7.96366
7.97235
7.9801
7.98681
7.99238
7.9967
7.99965
8.00111
8.00096
7.99906
7.99529
7.98951
7.98158
7.97137
7.95875
7.9436
7.92587
7.90551
7.88256
7.85717
7.82959
7.80024
7.76969
7.73867
7.70804
7.67867
7.65143
7.62705
7.60612
7.58905
7.5761
7.5674
7.56304
7.23453
7.23812
7.24513
7.25527
7.26814
7.28328
7.30026
7.31867
7.33816
7.35844
7.37928
7.40047
7.42184
7.44323
7.46448
7.48545
7.50603
7.52612
7.54564
7.56456
7.58286
7.60054
7.61761
7.63407
7.64991
7.66512
7.67967
7.69353
7.70667
7.71905
7.73062
7.74134
7.75111
7.75985
7.76746
7.7738
7.77877
7.78222
7.78403
7.78406
7.78215
7.77817
7.77195
7.76333
7.75216
7.73828
7.72155
7.70186
7.67914
7.65342
7.6248
7.59355
7.56013
7.5252
7.48961
7.45439
7.42063
7.38935
7.36144
7.33757
7.31818
7.30353
7.29372
7.28882
6.96749
6.97163
6.9797
6.99132
7.006
7.02319
7.04236
7.06304
7.08483
7.10742
7.13057
7.15407
7.17773
7.20138
7.22486
7.24801
7.27069
7.29279
7.31424
7.33499
7.35505
7.37442
7.39312
7.41116
7.42853
7.44521
7.46118
7.47641
7.49086
7.5045
7.51727
7.52912
7.53996
7.54969
7.5582
7.56534
7.57098
7.57497
7.57717
7.57742
7.57557
7.57145
7.56487
7.55566
7.54364
7.52861
7.5104
7.48886
7.46389
7.43546
7.40365
7.36872
7.33114
7.29167
7.2513
7.21126
7.17286
7.13736
7.10581
7.07896
7.05725
7.04092
7.03003
7.0246
6.7106
6.71535
6.72457
6.73779
6.7544
6.77374
6.79518
6.81817
6.84228
6.86718
6.89261
6.91838
6.94429
6.97018
6.99585
7.02113
7.04586
7.06991
7.09321
7.11572
7.13745
7.15843
7.17869
7.19823
7.21707
7.23518
7.25253
7.26908
7.2848
7.29965
7.31359
7.32655
7.33845
7.34918
7.3586
7.36655
7.37289
7.37745
7.38008
7.38061
7.37886
7.37467
7.36782
7.35812
7.34534
7.32928
7.30971
7.28645
7.25934
7.22829
7.19333
7.1547
7.11287
7.06868
7.02328
6.97814
6.93485
6.89494
6.85963
6.82975
6.80574
6.78778
6.77586
6.76992
6.46335
6.46875
6.47923
6.4942
6.51288
6.53449
6.55828
6.58363
6.61007
6.63726
6.66495
6.69295
6.72108
6.74916
6.77699
6.80436
6.83109
6.85704
6.88212
6.90631
6.92963
6.95214
6.97387
6.99486
7.01511
7.0346
7.05327
7.0711
7.08804
7.10407
7.11914
7.1332
7.14616
7.15788
7.16822
7.177
7.18406
7.18922
7.19231
7.19316
7.19159
7.18739
7.18036
7.17025
7.15683
7.13985
7.11905
7.0942
7.06507
7.0315
6.99346
6.95111
6.90494
6.85584
6.80515
6.75459
6.70612
6.66157
6.62237
6.58944
6.56319
6.54367
6.53078
6.52438
6.22523
6.23137
6.24325
6.26011
6.28102
6.30503
6.33126
6.35902
6.38779
6.41724
6.44714
6.47733
6.50764
6.53789
6.56784
6.59727
6.62596
6.65374
6.68053
6.70632
6.73115
6.7551
6.77824
6.80062
6.82222
6.84304
6.86299
6.88205
6.90017
6.91733
6.93351
6.94865
6.96266
6.97538
6.98665
6.99628
7.00408
7.00986
7.01345
7.01467
7.01332
7.00919
7.00204
6.99163
6.97767
6.95989
6.93799
6.91167
6.88066
6.8447
6.80365
6.75761
6.70702
6.65281
6.59652
6.54018
6.48617
6.43674
6.39356
6.35759
6.32916
6.30818
6.29441
6.2876
5.99579
6.00276
6.01617
6.03511
6.05843
6.08497
6.11374
6.14394
6.17504
6.20671
6.23878
6.27111
6.30356
6.33593
6.36798
6.39944
6.43005
6.45961
6.48805
6.51535
6.5416
6.56691
6.59138
6.61508
6.638
6.66009
6.68129
6.70153
6.72078
6.73904
6.7563
6.7725
6.78754
6.80126
6.81348
6.82397
6.83253
6.83897
6.84309
6.84471
6.84363
6.83962
6.83245
6.82181
6.80742
6.78896
6.76609
6.73846
6.70571
6.6675
6.62357
6.57386
6.51877
6.45925
6.39702
6.33449
6.27455
6.21997
6.17271
6.13375
6.10325
6.08095
6.06641
6.05924
5.77459
5.78247
5.79759
5.81881
5.84473
5.87396
5.90535
5.93804
5.97145
6.00529
6.03946
6.07388
6.10842
6.14289
6.17702
6.21049
6.24297
6.27427
6.30428
6.33301
6.36058
6.38716
6.4129
6.43786
6.46204
6.48538
6.50778
6.52916
6.5495
6.56881
6.58711
6.60435
6.62042
6.63515
6.64833
6.6597
6.66904
6.67615
6.68082
6.68287
6.68211
6.6783
6.67116
6.6604
6.64567
6.62665
6.60294
6.57415
6.53983
6.49954
6.45284
6.39955
6.33989
6.27486
6.20632
6.13712
6.07081
6.0108
5.95938
5.9175
5.88511
5.86165
5.84647
5.83902
5.56119
5.57011
5.58713
5.61087
5.6396
5.67167
5.70578
5.74097
5.77665
5.81261
5.8488
5.88524
5.92184
5.95838
5.99457
6.03003
6.06436
6.09733
6.12884
6.15891
6.18771
6.21548
6.2424
6.26857
6.29397
6.31853
6.3421
6.36458
6.38595
6.40626
6.42557
6.44382
6.46092
6.47668
6.49083
6.5031
6.51323
6.52102
6.52627
6.52879
6.52838
6.52481
6.51779
6.50698
6.49202
6.47254
6.44813
6.41833
6.38262
6.34043
6.29115
6.23435
6.17012
6.09936
6.02412
5.94769
5.87448
5.80873
5.75312
5.70847
5.6744
5.64999
5.63432
5.62667
5.3552
5.36528
5.38442
5.41094
5.44272
5.47779
5.5147
5.55241
5.59032
5.62829
5.66643
5.70483
5.74342
5.782
5.82026
5.8577
5.89385
5.92846
5.96139
5.9927
6.02263
6.05148
6.07953
6.10686
6.13344
6.15919
6.18391
6.20743
6.22977
6.25104
6.27131
6.29057
6.3087
6.32548
6.34062
6.3538
6.36474
6.37323
6.37906
6.38207
6.38206
6.37879
6.37195
6.36117
6.34606
6.32623
6.30126
6.2706
6.23369
6.18981
6.13815
6.078
6.00917
5.93251
5.85014
5.76586
5.68512
5.61332
5.55351
5.50629
5.47081
5.4457
5.42972
5.42195
5.15622
5.16762
5.18912
5.21871
5.25379
5.29203
5.33182
5.37206
5.41213
5.45201
5.49197
5.53226
5.57281
5.61341
5.65373
5.69317
5.73111
5.76729
5.80158
5.83403
5.86497
5.89482
5.92392
5.95236
5.9801
6.00703
6.03287
6.05739
6.08065
6.1028
6.12401
6.14425
6.16339
6.18122
6.19738
6.21147
6.22323
6.23243
6.23886
6.24236
6.24278
6.23986
6.23326
6.22259
6.20742
6.18735
6.16192
6.13058
6.09265
6.04733
5.99352
5.93019
5.85682
5.77408
5.68416
5.59128
5.50228
5.42407
5.36014
5.31064
5.27407
5.24854
5.23243
5.22466
4.96389
4.97677
5.00091
5.03389
5.07256
5.11411
5.15685
5.19962
5.24176
5.28342
5.32509
5.36719
5.40965
5.45224
5.49465
5.5361
5.57581
5.61352
5.6491
5.68258
5.71441
5.74515
5.77523
5.80474
5.8336
5.86171
5.88867
5.91415
5.93824
5.96122
5.98333
6.00453
6.02467
6.04357
6.06077
6.07579
6.08838
6.09829
6.10531
6.10933
6.11019
6.10767
6.10138
6.09088
6.07572
6.0555
6.02976
5.99786
5.95911
5.9126
5.85694
5.79067
5.71282
5.62388
5.52596
5.42363
5.32549
5.24053
5.17261
5.12121
5.08394
5.05829
5.04227
5.03458
4.77784
4.79241
4.81945
4.85621
4.89878
4.94377
4.98954
5.03484
5.07891
5.1222
5.16544
5.20928
5.25361
5.29814
5.34268
5.38619
5.42762
5.46682
5.50363
5.53802
5.57062
5.60213
5.63315
5.66369
5.69364
5.72294
5.75103
5.77739
5.80224
5.82597
5.84894
5.87109
5.89223
5.91222
5.93049
5.94645
5.95986
5.97049
5.9781
5.98263
5.98396
5.98188
5.97596
5.96571
5.95063
5.93034
5.90439
5.87208
5.8327
5.78528
5.72808
5.65916
5.57695
5.48173
5.37541
5.26263
5.15424
5.06219
4.99056
4.93772
4.9002
4.87477
4.85905
4.85154
4.59772
4.61423
4.64447
4.68542
4.73224
4.78076
4.82961
4.87744
4.92332
4.96805
5.01267
5.05821
5.10436
5.15078
5.19752
5.24314
5.28626
5.3269
5.36489
5.40006
5.43328
5.46543
5.49735
5.5289
5.5599
5.59043
5.61966
5.64685
5.67236
5.69675
5.72056
5.74363
5.76575
5.78688
5.80627
5.82314
5.83738
5.84873
5.85692
5.86196
5.86377
5.86217
5.85669
5.84673
5.83179
5.8115
5.78547
5.75287
5.71303
5.66501
5.60664
5.53541
5.44899
5.34748
5.23243
5.108
4.98802
4.88856
4.81363
4.75994
4.72268
4.69781
4.6826
4.67538
4.42319
4.44194
4.47566
4.5213
4.57275
4.62484
4.67681
4.7272
4.77468
4.82065
4.86646
4.91366
4.9616
5.00983
5.05885
5.1067
5.15142
5.19347
5.2326
5.2684
5.30209
5.33475
5.36754
5.40007
5.43207
5.46389
5.49432
5.52225
5.54832
5.57326
5.5979
5.62189
5.64494
5.66726
5.68782
5.7056
5.72066
5.73274
5.74148
5.74701
5.74931
5.74824
5.74324
5.73365
5.71889
5.69866
5.67266
5.63988
5.59972
5.55144
5.49228
5.41918
5.32872
5.22097
5.09699
4.95951
4.82623
4.71913
4.6415
4.58767
4.5512
4.52726
4.51276
4.50592
4.25393
4.27528
4.31273
4.36361
4.42014
4.47575
4.5309
4.58389
4.63273
4.67971
4.72647
4.77534
4.82505
4.87494
4.9264
4.97663
5.02281
5.06625
5.10653
5.14277
5.17676
5.20977
5.24344
5.27695
5.30986
5.34306
5.37478
5.40333
5.42985
5.45521
5.48068
5.50558
5.52951
5.55309
5.57491
5.59354
5.60942
5.62225
5.63149
5.6375
5.64027
5.63978
5.63534
5.62617
5.61161
5.59148
5.56564
5.53276
5.4924
5.4442
5.38469
5.31022
5.21589
5.10205
4.96919
4.817
4.6682
4.55338
4.47388
4.42074
4.38563
4.36297
4.34938
4.343
4.08961
4.11406
4.15536
4.21217
4.27432
4.33324
4.39162
4.44734
4.49721
4.54497
4.59235
4.64296
4.69446
4.74576
4.79989
4.85271
4.90014
4.94495
4.98643
5.02289
5.05704
5.09018
5.12478
5.15928
5.19295
5.22769
5.26083
5.28985
5.31669
5.34231
5.36866
5.39448
5.41916
5.44412
5.4673
5.48669
5.50339
5.517
5.52669
5.53315
5.53638
5.53653
5.53271
5.52402
5.50967
5.48964
5.46411
5.43119
5.39067
5.34296
5.28353
5.20833
5.11025
4.99053
4.84921
4.68032
4.51316
4.3908
4.31055
4.25902
4.22587
4.20481
4.19231
4.18648
3.92988
3.95811
4.00324
4.06679
4.13522
4.19701
4.25871
4.31737
4.36784
4.41616
4.46376
4.51629
4.56959
4.62193
4.67905
4.73478
4.78312
4.82931
4.87211
4.90849
4.94265
4.97567
5.01132
5.04685
5.08105
5.11753
5.15229
5.18156
5.20861
5.23427
5.26159
5.28836
5.31361
5.34011
5.3648
5.38481
5.40233
5.41676
5.42681
5.43371
5.43737
5.43821
5.43508
5.42693
5.4128
5.39284
5.36781
5.33487
5.29416
5.24739
5.18846
5.11331
5.01152
4.88616
4.73739
4.54943
4.36016
4.23087
4.15133
4.10244
4.07181
4.05267
4.04141
4.03618
3.77441
3.80734
3.85599
3.92729
4.00285
4.06675
4.1319
4.19389
4.24433
4.29305
4.34031
4.39508
4.45028
4.50306
4.56362
4.62272
4.67142
4.71906
4.76342
4.79932
4.83338
4.86591
4.90284
4.93946
4.97382
5.01236
5.04904
5.07823
5.10538
5.1308
5.15925
5.18702
5.21256
5.24082
5.26724
5.28762
5.30599
5.32134
5.33161
5.33892
5.34295
5.34458
5.3422
5.33466
5.32072
5.30077
5.27648
5.24351
5.20245
5.15717
5.09912
5.02502
4.91939
4.78863
4.63425
4.42439
4.20806
4.07313
3.99611
3.95093
3.92338
3.90642
3.89653
3.89195
3.62283
3.66178
3.71319
3.79351
3.87729
3.94208
4.01092
4.07682
4.12638
4.17546
4.2216
4.27913
4.3364
4.3887
4.45337
4.51648
4.5647
4.61392
4.66023
4.69508
4.72902
4.76056
4.79912
4.83697
4.87091
4.91195
4.95096
4.97959
5.00683
5.03158
5.06145
5.09032
5.11568
5.14603
5.17448
5.19485
5.21413
5.23053
5.24083
5.24858
5.25288
5.25539
5.25384
5.24699
5.2332
5.2131
5.18992
5.15686
5.11512
5.07203
5.01511
4.94338
4.83351
4.69745
4.54053
4.3054
4.05541
3.91717
3.84486
3.80449
3.78051
3.76594
3.75751
3.75362
3.47472
3.52157
3.57428
3.66531
3.75877
3.82253
3.89547
3.96619
4.01362
4.06324
4.10716
4.16827
4.22791
4.27834
4.34808
4.4161
4.46256
4.51361
4.56247
4.59547
4.62941
4.65925
4.7
4.73928
4.77193
4.81609
4.85801
4.88537
4.91278
4.93629
4.96801
4.99812
5.02264
5.05554
5.08643
5.10623
5.12652
5.14419
5.15423
5.16246
5.16689
5.17044
5.16977
5.16372
5.15001
5.12952
5.10794
5.07471
5.03172
4.99174
4.93596
4.86839
4.75351
4.61194
4.45722
4.19281
3.9004
3.7627
3.69765
3.66313
3.64312
3.63111
3.6242
3.62102
3.32963
3.38707
3.43862
3.54253
3.64762
3.70753
3.78523
3.86212
3.90564
3.95636
3.99646
4.06237
4.12483
4.17138
4.24751
4.32169
4.36455
4.41784
4.47017
4.50015
4.53447
4.56156
4.60533
4.64636
4.67642
4.72459
4.77021
4.79528
4.82314
4.84455
4.87878
4.91037
4.93305
4.96916
5.00304
5.02146
5.04294
5.06219
5.07155
5.08039
5.08472
5.08951
5.08978
5.08466
5.07097
5.04968
5.0304
4.99686
4.95174
4.91612
4.86115
4.80018
4.67897
4.53115
4.38567
4.08722
3.74073
3.60961
3.55461
3.52688
3.51115
3.5018
3.49645
3.49399
3.18701
3.25884
3.30536
3.42504
3.54439
3.59636
3.67987
3.76487
3.80188
3.85486
3.88885
3.96134
4.02735
4.06709
4.15147
4.23354
4.27012
4.32633
4.38341
4.4087
4.44417
4.46701
4.51498
4.55823
4.58387
4.63726
4.68763
4.70892
4.73785
4.75596
4.79362
4.82707
4.84647
4.8867
4.92435
4.94018
4.96316
4.98445
4.99252
5.00222
5.00612
5.01242
5.01365
5.00964
4.99589
4.97319
4.95722
4.92321
4.87462
4.84511
4.79002
4.73902
4.6095
4.45372
4.3276
3.98948
3.57349
3.45808
3.41598
3.39578
3.38452
3.37788
3.37409
3.37235
3.04618
3.13779
3.17339
3.31271
3.44983
3.4881
3.57903
3.67483
3.70168
3.75898
3.78356
3.86512
3.93575
3.96461
4.05977
4.15205
4.17861
4.23877
4.30241
4.32062
4.35859
4.37504
4.42887
4.47505
4.49365
4.55394
4.61045
4.62588
4.65695
4.67003
4.71245
4.74827
4.76238
4.80801
4.85045
4.86201
4.88697
4.91092
4.91684
4.92782
4.9308
4.93902
4.94117
4.93849
4.92465
4.89963
4.88836
4.85367
4.7997
4.7788
4.72174
4.6854
4.54469
4.37786
4.28517
3.90084
3.39497
3.30863
3.28207
3.26986
3.26314
3.2592
3.25695
3.25593
2.90633
3.0252
3.04134
3.20542
3.365
3.3816
3.48232
3.59262
3.60414
3.66914
3.67966
3.77373
3.85052
3.86286
3.97225
4.07784
4.08919
4.15484
4.22752
4.23527
4.27797
4.28499
4.34696
4.39707
4.40502
4.47448
4.53898
4.54557
4.58061
4.5862
4.6352
4.67414
4.68019
4.73294
4.78153
4.7865
4.81417
4.84162
4.84419
4.85713
4.85848
4.86918
4.87213
4.87109
4.85716
4.82851
4.82383
4.78827
4.72618
4.71742
4.65528
4.64002
4.48418
4.30111
4.26108
3.82295
3.20055
3.16235
3.1532
3.14913
3.14691
3.14561
3.14487
3.14453
)
;

boundaryField
{
    left
    {
        type            zeroGradient;
    }
    right
    {
        type            zeroGradient;
    }
    interface
    {
        type            fixedValue;
        value           nonuniform List<scalar> 
64
(
2.83482
2.97288
2.97288
3.1531
3.32732
3.32732
3.43479
3.55506
3.55506
3.62668
3.62668
3.72951
3.81056
3.81056
3.92958
4.04407
4.04407
4.11365
4.19266
4.19266
4.23955
4.23955
4.30724
4.36005
4.36005
4.43579
4.50564
4.50564
4.54413
4.54413
4.59772
4.63878
4.63878
4.69638
4.74902
4.74902
4.77861
4.8084
4.8084
4.82288
4.82288
4.83525
4.8385
4.8385
4.82457
4.79311
4.79311
4.75701
4.68884
4.68884
4.62156
4.62156
4.45533
4.25982
4.25982
3.78975
3.09007
3.09007
3.09007
3.09007
3.09007
3.09007
3.09007
3.09007
)
;
    }
    bottom
    {
        type            fixedValue;
        value           uniform 10;
    }
    defaultFaces
    {
        type            empty;
    }
}


// ************************************************************************* //
