/*--------------------------------*- C++ -*----------------------------------*\
| =========                 |                                                 |
| \\      /  F ield         | OpenFOAM: The Open Source CFD Toolbox           |
|  \\    /   O peration     | Version:  5.x                                   |
|   \\  /    A nd           | Web:      www.OpenFOAM.org                      |
|    \\/     M anipulation  |                                                 |
\*---------------------------------------------------------------------------*/
FoamFile
{
    version     2.0;
    format      ascii;
    class       volScalarField;
    location    "0.9";
    object      gradTx;
}
// * * * * * * * * * * * * * * * * * * * * * * * * * * * * * * * * * * * * * //

dimensions      [0 -1 0 1 0 0 0];

internalField   nonuniform List<scalar> 
3200
(
47.1701
3.28577
1.43095
1.33315
0.677669
0.63846
0.367337
0.350383
0.222502
0.213624
0.129857
0.127014
0.143935
0.14463
0.146594
0.146495
0.142083
0.141482
0.131471
0.130438
0.115661
0.114306
0.0965408
0.0950399
0.076716
0.0752915
0.0592205
0.0582718
0.0498653
0.0785336
0.0350583
0.0180094
0.0168986
0.00990734
0.00944899
0.00571515
0.00546727
0.00330576
0.00316161
0.0018815
0.0017959
0.00103018
0.000978321
0.000503956
0.000471006
0.000156816
0.000134327
-9.06638e-05
-0.000106097
-0.000245876
-0.000266868
-0.000625724
-0.000662726
-0.00118903
-0.00124675
-0.00209614
-0.00219178
-0.0036202
-0.00378382
-0.00624889
-0.00653744
-0.0109258
-0.0114602
-0.0197119
-0.0207987
-0.0380012
-0.0406408
-0.0836564
-0.0926497
-0.24003
-0.622969
-0.441212
-0.691169
-0.722917
-1.28328
-1.2573
-0.056458
-0.00761926
-0.00154348
-52.3361
49.6397
2.74687
1.37223
1.17142
0.646909
0.563211
0.345437
0.309178
0.206637
0.18776
0.121903
0.115821
0.127977
0.129361
0.130961
0.130754
0.127265
0.12599
0.118061
0.115871
0.104175
0.101304
0.0872482
0.084069
0.0695807
0.0665692
0.0539263
0.0519833
0.0465296
0.0655196
0.0327362
0.0174145
0.0149545
0.00929062
0.00830775
0.0053265
0.00479875
0.00307859
0.00277221
0.00175438
0.00157253
0.000963781
0.000853623
0.00047662
0.000406654
0.000157148
0.000109438
-6.8858e-05
-0.000101811
-0.000215797
-0.000260511
-0.000544467
-0.00062303
-0.00104187
-0.00116464
-0.00184083
-0.00204427
-0.00318185
-0.00353007
-0.00549466
-0.00610927
-0.00961195
-0.0107522
-0.0173605
-0.0196896
-0.0335752
-0.0392967
-0.0747585
-0.0948422
-0.228422
-0.5225
-0.41962
-0.610376
-0.675747
-1.09802
-1.04362
-0.123294
-0.0211472
-0.00443828
-54.196
52.0945
2.27771
1.26659
1.02267
0.598535
0.493342
0.316288
0.270636
0.187431
0.16378
0.11156
0.103899
0.112447
0.114082
0.115396
0.115141
0.112356
0.110764
0.104423
0.101687
0.0923406
0.0887547
0.0775293
0.0735597
0.0619971
0.058243
0.0482153
0.0458467
0.0422292
0.0545964
0.0297266
0.0163119
0.0131446
0.00849098
0.00725041
0.00484255
0.00418055
0.00279674
0.00241298
0.00159502
0.00136734
0.000878188
0.000740284
0.000437463
0.0003499
0.000149677
9.00113e-05
-5.27255e-05
-9.41624e-05
-0.000188436
-0.000244545
-0.00047142
-0.000569727
-0.000906608
-0.00106044
-0.00160453
-0.00185952
-0.00277528
-0.00321188
-0.00479471
-0.00556588
-0.00839298
-0.009826
-0.0151809
-0.018119
-0.0294766
-0.0367636
-0.0664767
-0.0924956
-0.210394
-0.43791
-0.386282
-0.534597
-0.614299
-0.931815
-0.864568
-0.157402
-0.0312577
-0.00681096
-56.0558
54.531
1.86719
1.13028
0.881145
0.537418
0.426361
0.281895
0.233605
0.16585
0.140948
0.099436
0.0913289
0.0971929
0.0988131
0.0998916
0.0996265
0.097398
0.0957263
0.090642
0.087769
0.0802808
0.0765168
0.0675277
0.0633622
0.0541103
0.0501773
0.0422079
0.0397704
0.037301
0.0451792
0.0262686
0.0148057
0.0113995
0.0075587
0.00624323
0.00429133
0.0035935
0.00247656
0.00207261
0.00141312
0.00117355
0.000779223
0.000634137
0.00039011
0.000298014
0.000136826
7.41146e-05
-4.05168e-05
-8.42961e-05
-0.000162551
-0.000221713
-0.00040351
-0.000506887
-0.000778706
-0.00094069
-0.0013799
-0.00164846
-0.00238803
-0.00284803
-0.00412749
-0.00494053
-0.00723013
-0.00874328
-0.0130984
-0.016212
-0.0255414
-0.0333343
-0.0583433
-0.0864746
-0.187983
-0.364486
-0.344947
-0.461562
-0.543337
-0.781003
-0.711114
-0.168269
-0.0372999
-0.00842958
-57.9156
56.9485
1.50502
0.974473
0.74342
0.467009
0.360728
0.243664
0.197361
0.142559
0.118783
0.0859767
0.0782001
0.0821067
0.083564
0.0844384
0.0841881
0.0824163
0.0808245
0.0767736
0.0740377
0.068076
0.0644927
0.0573396
0.0533753
0.0460189
0.0422814
0.0359878
0.0337042
0.0319691
0.0368473
0.0225214
0.0129828
0.00967649
0.00652884
0.00526448
0.0036922
0.00302519
0.00212933
0.00174375
0.00121537
0.000986769
0.000670886
0.00053246
0.000337047
0.000249202
0.000120251
6.04718e-05
-3.10281e-05
-7.29621e-05
-0.000137385
-0.000193946
-0.000338732
-0.000437317
-0.000655232
-0.0008099
-0.00116217
-0.00141866
-0.0020121
-0.00245155
-0.00347913
-0.00425636
-0.00609864
-0.00754722
-0.0110661
-0.014057
-0.0216682
-0.0292168
-0.0500857
-0.0775191
-0.162572
-0.298904
-0.298165
-0.389919
-0.466139
-0.642491
-0.576576
-0.162661
-0.039258
-0.0091696
-59.7753
59.3482
1.18182
0.806706
0.607523
0.389805
0.295537
0.202611
0.161465
0.118032
0.0969833
0.0715173
0.0646041
0.0671174
0.0683367
0.0690282
0.0688087
0.0674262
0.0660204
0.0628534
0.0604372
0.0557794
0.0526154
0.0470294
0.04353
0.0377894
0.0344948
0.0296147
0.0276238
0.0263815
0.0292946
0.0185902
0.0109154
0.007951
0.0054266
0.00430055
0.00305878
0.00246768
0.00176296
0.00142167
0.00100644
0.000804168
0.000555964
0.000433492
0.000279996
0.000202294
0.000101094
4.82467e-05
-2.34237e-05
-6.06542e-05
-0.000112494
-0.000162626
-0.000275796
-0.000362979
-0.000534317
-0.00067125
-0.000948341
-0.00117546
-0.00164245
-0.0020317
-0.00284097
-0.0035298
-0.00498317
-0.00626864
-0.00905516
-0.0117174
-0.017798
-0.024567
-0.041566
-0.0662594
-0.13511
-0.238805
-0.247683
-0.318896
-0.384933
-0.513668
-0.455957
-0.145432
-0.0374832
-0.00900577
-61.6347
61.7323
0.889148
0.631916
0.472379
0.307673
0.230301
0.159494
0.125665
0.0926136
0.0753626
0.0563168
0.0506311
0.0521791
0.0531293
0.0536529
0.0534744
0.052436
0.0512864
0.0489039
0.0469277
0.0434256
0.0408385
0.0366401
0.0337794
0.0294675
0.0267773
0.023132
0.0215197
0.0206349
0.0222954
0.0145438
0.00866368
0.00621112
0.00427086
0.00334331
0.00240093
0.00191606
0.00138309
0.00110343
0.000789671
0.000623966
0.000436436
0.000336115
0.000220174
0.000156538
8.01554e-05
3.68956e-05
-1.71152e-05
-4.77016e-05
-8.76381e-05
-0.000128764
-0.000213895
-0.000285282
-0.000414802
-0.000527028
-0.00073657
-0.000922739
-0.00127601
-0.00159515
-0.00220777
-0.00277282
-0.00387462
-0.00493026
-0.00704952
-0.00924151
-0.0139006
-0.0195084
-0.032739
-0.0532338
-0.106255
-0.182498
-0.194707
-0.248081
-0.301219
-0.392302
-0.345449
-0.1201
-0.0325292
-0.00799648
-63.4939
64.1038
0.619341
0.453227
0.33745
0.222056
0.164809
0.114903
0.0898384
0.0665658
0.0538157
0.0405826
0.0363689
0.0372639
0.0379379
0.0383045
0.0381733
0.0374495
0.0366013
0.0349385
0.0334804
0.0310373
0.0291287
0.0262008
0.0240906
0.0210851
0.0191026
0.0165727
0.0153914
0.0147922
0.0156794
0.0104274
0.00627804
0.00445325
0.00307653
0.00238825
0.00172603
0.00136741
0.000993902
0.000787239
0.000567503
0.000445073
0.000313752
0.000239636
0.000158464
0.000111458
5.80118e-05
2.60686e-05
-1.16795e-05
-3.43283e-05
-6.2708e-05
-9.31271e-05
-0.000152541
-0.000205263
-0.000295996
-0.000378942
-0.000525776
-0.000663391
-0.00091101
-0.00114696
-0.0015766
-0.00199451
-0.00276809
-0.00354953
-0.00504119
-0.00666715
-0.00996559
-0.0141452
-0.0236217
-0.0389075
-0.0764711
-0.128754
-0.140084
-0.177273
-0.215987
-0.276452
-0.242081
-0.0892569
-0.0250536
-0.0062661
-65.353
66.466
0.365394
0.272533
0.202513
0.134117
0.0990286
0.0693215
0.0539433
0.0400992
0.0322895
0.0244881
0.0219024
0.0223572
0.0227581
0.0229751
0.022895
0.0224675
0.0219485
0.0209654
0.0200732
0.0186291
0.0174615
0.0157311
0.0144404
0.0126648
0.0114529
0.00996277
0.00924332
0.00889405
0.00931372
0.00627029
0.00380172
0.00267925
0.00185603
0.0014333
0.00103988
0.000820112
0.00059863
0.000472056
0.00034182
0.000266846
0.000189018
0.000143633
9.5533e-05
6.67521e-05
3.50943e-05
1.55409e-05
-6.80162e-06
-2.06923e-05
-3.76772e-05
-5.63192e-05
-9.14509e-05
-0.000123728
-0.000177515
-0.000228321
-0.000315383
-0.000399682
-0.00054653
-0.000691084
-0.000945968
-0.00120207
-0.00166135
-0.00214052
-0.00302766
-0.00402607
-0.00599551
-0.00857037
-0.0142723
-0.0236903
-0.0460988
-0.0766474
-0.0844276
-0.106405
-0.129884
-0.164394
-0.143449
-0.0548686
-0.0157612
-0.0039878
-67.2119
68.8226
0.120772
0.0909295
0.0675138
0.0448501
0.0330352
0.0231694
0.0179887
0.0133925
0.0107637
0.00818544
0.00731424
0.00745236
0.00758527
0.00765712
0.0076302
0.00748875
0.00731417
0.00698877
0.00668865
0.00621075
0.00581797
0.00524539
0.00481124
0.0042238
0.00381629
0.00332404
0.00308256
0.00296757
0.00308934
0.00209224
0.00127296
0.000894358
0.000620337
0.000477849
0.00034732
0.000273329
0.000199915
0.000157312
0.000114154
8.89206e-05
6.31304e-05
4.7856e-05
3.19179e-05
2.22322e-05
1.17444e-05
5.16491e-06
-2.23404e-06
-6.91269e-06
-1.25686e-05
-1.88451e-05
-3.04736e-05
-4.13354e-05
-5.91613e-05
-7.62625e-05
-0.000105119
-0.000133495
-0.000182173
-0.000230835
-0.00031534
-0.000401566
-0.000553897
-0.000715272
-0.00100977
-0.00134626
-0.00200135
-0.00287057
-0.00477443
-0.00795367
-0.015401
-0.0254518
-0.0282028
-0.0354762
-0.0433394
-0.0545549
-0.0475233
-0.0185015
-0.00537532
-0.00136793
-69.0706
68.9859
0.126587
0.106228
0.087761
0.0683654
0.0575118
0.0472133
0.0409211
0.0338675
0.0288921
0.0227147
0.0203199
0.0199786
0.019597
0.0185834
0.0176424
0.0161744
0.0150588
0.0135496
0.0124681
0.0110751
0.0101017
0.00887742
0.00803819
0.00700651
0.00633147
0.00556776
0.00523712
0.00518578
0.00553019
0.00384274
0.00244754
0.0017973
0.00131547
0.0010571
0.000808316
0.000661539
0.000507743
0.000414977
0.000316145
0.000256541
0.000193258
0.000155357
0.000115509
9.1839e-05
6.72065e-05
5.26233e-05
3.74641e-05
2.83601e-05
1.88423e-05
1.42875e-05
1.12786e-05
9.39825e-06
7.02703e-06
5.39866e-06
3.34595e-06
1.70524e-06
-8.18341e-07
-3.69615e-06
-9.42555e-06
-1.75923e-05
-3.55921e-05
-6.31696e-05
-0.000126019
-0.000226839
-0.000464117
-0.000873999
-0.00189335
-0.00385834
-0.00871408
-0.0157868
-0.0194545
-0.0275538
-0.0361919
-0.0488432
-0.0433659
-0.0169372
-0.00492576
-0.00125374
-69.6159
66.9557
0.382639
0.318611
0.263322
0.204757
0.172515
0.141481
0.122795
0.101521
0.0867256
0.0679938
0.0608787
0.0599387
0.0588173
0.0557486
0.0529496
0.0485104
0.0451936
0.0406329
0.0374183
0.0332098
0.0303166
0.0266182
0.0241236
0.0210066
0.0189992
0.0166872
0.0157015
0.015543
0.0166736
0.0115178
0.00731373
0.00538592
0.00393807
0.00317143
0.00242129
0.00198526
0.00152109
0.00124543
0.000947074
0.000769949
0.000578902
0.000466268
0.000345974
0.000275632
0.000201277
0.000157941
0.000112186
8.51249e-05
5.63479e-05
4.2816e-05
3.38034e-05
2.82254e-05
2.10602e-05
1.62203e-05
1.0027e-05
5.15556e-06
-2.43747e-06
-1.09717e-05
-2.81772e-05
-5.23818e-05
-0.000106392
-0.000188096
-0.000376537
-0.000675054
-0.00138544
-0.0025976
-0.00564218
-0.0114593
-0.0260534
-0.0474964
-0.0581857
-0.0826392
-0.108415
-0.147254
-0.130935
-0.0502347
-0.0144436
-0.00365505
-68.8478
64.9192
0.6474
0.530652
0.439021
0.340101
0.287475
0.23526
0.204778
0.168919
0.14472
0.112811
0.101193
0.0999094
0.0981192
0.0929067
0.0883264
0.0808056
0.0753822
0.0676666
0.0624123
0.055296
0.0505678
0.0443149
0.0402379
0.0349662
0.0316831
0.0277575
0.0261368
0.0258531
0.0280737
0.0191587
0.0120916
0.00895754
0.0065352
0.00528662
0.00402297
0.0033112
0.00252779
0.00207756
0.00157378
0.00128444
0.000961834
0.000777842
0.00057472
0.000459818
0.000334286
0.0002635
0.000186268
0.000142043
9.33024e-05
7.12096e-05
5.62292e-05
4.71493e-05
3.5027e-05
2.71181e-05
1.66721e-05
8.72833e-06
-4.00884e-06
-1.78924e-05
-4.66428e-05
-8.59742e-05
-0.000176079
-0.000308749
-0.000622644
-0.00110678
-0.00228666
-0.00424786
-0.00928
-0.018709
-0.0431182
-0.0796351
-0.0963653
-0.13767
-0.180113
-0.247868
-0.221077
-0.0817349
-0.0229611
-0.00574357
-68.0797
62.8727
0.926922
0.741701
0.615023
0.473603
0.402428
0.328178
0.286983
0.235857
0.20303
0.156823
0.1411
0.139906
0.137564
0.130046
0.123827
0.113024
0.105669
0.0946086
0.0874876
0.0772936
0.0708868
0.0619313
0.0564067
0.0488527
0.044399
0.0387419
0.0365252
0.0360706
0.039928
0.0267323
0.0167167
0.0125044
0.00908834
0.00740495
0.00560467
0.00464183
0.00352267
0.00291312
0.00219296
0.00180116
0.00133993
0.00109077
0.000800404
0.000644813
0.000465401
0.000369558
0.00025921
0.000199281
0.000129288
9.9395e-05
7.84829e-05
6.62502e-05
4.88693e-05
3.81542e-05
2.32451e-05
1.25155e-05
-5.51755e-06
-2.42051e-05
-6.46753e-05
-0.000117527
-0.000244056
-0.000422144
-0.000861929
-0.00151066
-0.0031566
-0.00577521
-0.0127418
-0.0253591
-0.059698
-0.112564
-0.13356
-0.192653
-0.250795
-0.352259
-0.315716
-0.110011
-0.029816
-0.00733024
-67.3116
60.8123
1.22762
0.950426
0.79163
0.604309
0.517516
0.419785
0.369595
0.302073
0.261883
0.199622
0.180433
0.179957
0.177224
0.167142
0.159521
0.145113
0.136114
0.121403
0.112695
0.0991492
0.0913172
0.0794199
0.0726659
0.0626244
0.057172
0.0495976
0.0468522
0.046126
0.0524769
0.0341877
0.0211159
0.0160245
0.0115763
0.00953152
0.0071558
0.00598125
0.00449924
0.00375491
0.00280045
0.00232189
0.00171053
0.00140619
0.00102135
0.000831302
0.000593586
0.000476533
0.000330385
0.000257119
0.000163804
0.000127327
0.000100479
8.56346e-05
6.25067e-05
4.94095e-05
2.969e-05
1.66265e-05
-6.97669e-06
-2.96277e-05
-8.21986e-05
-0.000146122
-0.000309961
-0.00052506
-0.00109284
-0.00187463
-0.00398757
-0.00712853
-0.0159773
-0.0311399
-0.0755354
-0.146765
-0.169228
-0.24767
-0.319739
-0.462164
-0.417117
-0.133265
-0.034362
-0.00825631
-66.5436
58.7349
1.55637
1.15444
0.969397
0.731012
0.633059
0.509505
0.452915
0.367208
0.32163
0.240708
0.219026
0.220108
0.217189
0.204151
0.195497
0.176998
0.166799
0.147969
0.138109
0.120789
0.111923
0.0967149
0.0890686
0.0762241
0.0700415
0.0602715
0.0571103
0.0559117
0.0660279
0.0414461
0.0252038
0.0195255
0.0139734
0.0116759
0.00866264
0.00733626
0.00544898
0.00460742
0.00339076
0.00284953
0.0020701
0.00172589
0.00123532
0.00102039
0.000717471
0.000585107
0.000398963
0.000316012
0.000196217
0.000155011
0.000122108
0.000105451
7.58215e-05
6.09962e-05
3.59186e-05
2.11999e-05
-8.44413e-06
-3.38295e-05
-9.92502e-05
-0.000170705
-0.000373803
-0.000613855
-0.00131517
-0.00218531
-0.00477734
-0.00825342
-0.01896
-0.0357507
-0.0902981
-0.182914
-0.202654
-0.302937
-0.385863
-0.579559
-0.528061
-0.149118
-0.0359954
-0.00840762
-65.7757
56.6379
1.92059
1.3498
1.14932
0.852119
0.749644
0.596565
0.537415
0.430753
0.382804
0.279436
0.25672
0.260431
0.257572
0.240999
0.231882
0.208565
0.197845
0.174191
0.163836
0.142105
0.132797
0.113722
0.105694
0.0895717
0.0830686
0.0706949
0.067304
0.065261
0.0809875
0.0483849
0.0288787
0.0230295
0.0162466
0.0138545
0.0101065
0.00871771
0.00636012
0.00547778
0.00395631
0.00338866
0.0024138
0.00205276
0.00143928
0.00121385
0.000835172
0.000696364
0.000463798
0.00037669
0.00022569
0.000182527
0.000143226
0.000125908
8.86398e-05
7.30745e-05
4.17931e-05
2.64204e-05
-1.0046e-05
-3.64005e-05
-0.000116039
-0.000190004
-0.000436152
-0.000684182
-0.00153072
-0.00242708
-0.00553168
-0.00908893
-0.0216989
-0.0388506
-0.103536
-0.221975
-0.232854
-0.358893
-0.447548
-0.70675
-0.652094
-0.154336
-0.0342068
-0.0077303
-65.0079
54.5203
2.32824
1.53039
1.33315
0.965461
0.868278
0.679887
0.623836
0.491967
0.446212
0.314951
0.29337
0.301032
0.298519
0.277565
0.268851
0.239647
0.229425
0.199899
0.190037
0.162942
0.154079
0.130305
0.12266
0.102551
0.096347
0.0807753
0.0774604
0.0739184
0.0979056
0.0548165
0.0320183
0.0265802
0.0183517
0.016094
0.0114614
0.0101427
0.00721604
0.00637707
0.00448635
0.0039464
0.00273472
0.00239128
0.00162888
0.00141446
0.00094402
0.000812005
0.000523262
0.000440294
0.000251085
0.000210082
0.000163627
0.000147311
0.000100702
8.58786e-05
4.71017e-05
3.25443e-05
-1.20104e-05
-3.6805e-05
-0.000133031
-0.000202395
-0.000498407
-0.00073055
-0.00174425
-0.00258048
-0.00626781
-0.00956217
-0.0242558
-0.0400484
-0.114622
-0.265333
-0.258443
-0.416337
-0.502403
-0.846483
-0.793838
-0.144447
-0.0286714
-0.00624705
-64.2405
52.3827
2.78763
1.68699
1.52382
1.06801
0.990586
0.757941
0.713313
0.549756
0.513059
0.346094
0.328865
0.342058
0.340222
0.31366
0.30666
0.269988
0.261798
0.224841
0.216946
0.18307
0.175978
0.146263
0.140145
0.114994
0.110019
0.090384
0.087645
0.0814962
0.117537
0.0604551
0.034476
0.0302535
0.0202264
0.0184361
0.0126898
0.0116375
0.00799277
0.00732235
0.00496535
0.00453371
0.00302294
0.00274837
0.0017979
0.00162648
0.00104018
0.000934653
0.000575004
0.000508582
0.000270813
0.000238079
0.000183009
0.000170095
0.00011162
9.97541e-05
5.15213e-05
3.99377e-05
-1.4718e-05
-3.43114e-05
-0.000151069
-0.000205695
-0.000563196
-0.000745634
-0.00196485
-0.00261979
-0.00701956
-0.00957927
-0.0267683
-0.0388943
-0.122661
-0.314991
-0.277435
-0.476646
-0.546927
-1.00207
-0.959436
-0.11321
-0.0194013
-0.00407155
-63.4735
50.2289
3.30713
1.80613
1.72624
1.15546
1.11913
0.8285
0.807573
0.602494
0.585139
0.371263
0.363159
0.383704
0.382934
0.348994
0.345678
0.299214
0.295345
0.248644
0.244919
0.202151
0.198806
0.1613
0.158414
0.126652
0.1243
0.0993381
0.0979872
0.0874103
0.140931
0.0648704
0.036077
0.0341714
0.021781
0.0209454
0.0137372
0.0132424
0.00865536
0.00833962
0.00537069
0.00516731
0.00326398
0.0031346
0.00193723
0.00185646
0.00111804
0.00106832
0.000615579
0.000584225
0.000282625
0.000267224
0.000200915
0.0001949
0.000120816
0.000115216
5.45637e-05
4.91344e-05
-1.87756e-05
-2.78842e-05
-0.000171561
-0.000196853
-0.000634966
-0.000719224
-0.00220798
-0.00250925
-0.00784478
-0.00901103
-0.0294828
-0.0348737
-0.126354
-0.373838
-0.286951
-0.542102
-0.576047
-1.17755
-1.15716
-0.0518757
-0.00699137
-0.00141613
-62.7071
50.2285
3.30703
1.80605
1.72617
1.15538
1.11906
0.828431
0.807505
0.602449
0.585095
0.37125
0.363147
0.383714
0.382945
0.349032
0.345717
0.299273
0.295405
0.248715
0.24499
0.202221
0.198875
0.161361
0.158475
0.126703
0.12435
0.0993801
0.0980289
0.0874507
0.141
0.0649039
0.0360983
0.0341918
0.0217955
0.0209594
0.0137473
0.0132522
0.00866243
0.00834648
0.00537559
0.00517207
0.00326735
0.00313786
0.00193953
0.00185869
0.00111964
0.00106988
0.000616695
0.000585306
0.000283289
0.000267872
0.000201613
0.0001956
0.000121513
0.000115913
5.52824e-05
4.98574e-05
-1.79709e-05
-2.7067e-05
-0.000170533
-0.000195787
-0.000633247
-0.000717392
-0.00220419
-0.00250513
-0.00783494
-0.0090002
-0.0294553
-0.034843
-0.12627
-0.373631
-0.286811
-0.541931
-0.575874
-1.17738
-1.157
-0.0518686
-0.00699057
-0.001415
-62.7083
52.3823
2.78755
1.68692
1.52375
1.06794
0.990518
0.757878
0.713253
0.549715
0.513022
0.34608
0.328855
0.342065
0.340234
0.313692
0.306696
0.27004
0.261852
0.224904
0.21701
0.183133
0.17604
0.146318
0.140199
0.11504
0.110064
0.0904222
0.0876825
0.0815339
0.117594
0.0604863
0.0344959
0.0302716
0.0202397
0.0184485
0.0126991
0.0116462
0.00799926
0.0073284
0.00496985
0.0045379
0.00302603
0.00275124
0.00180001
0.00162845
0.00104165
0.000936026
0.000576028
0.000509528
0.000271435
0.000238667
0.000183632
0.000170721
0.000112244
0.00010038
5.21649e-05
4.05904e-05
-1.39992e-05
-3.35658e-05
-0.000150152
-0.000204698
-0.000561669
-0.000743865
-0.00196149
-0.00261572
-0.00701085
-0.00956844
-0.0267438
-0.0388626
-0.122582
-0.314818
-0.277305
-0.476494
-0.546774
-1.00192
-0.9593
-0.113195
-0.0193995
-0.00406874
-63.4746
54.52
2.32817
1.53033
1.33309
0.9654
0.868217
0.679832
0.623785
0.49193
0.446181
0.314938
0.293362
0.301038
0.298531
0.277592
0.268884
0.239691
0.229474
0.199954
0.190092
0.162997
0.154133
0.130354
0.122707
0.102592
0.0963861
0.0808093
0.0774938
0.0739525
0.097953
0.0548448
0.0320365
0.0265961
0.0183637
0.0161048
0.0114697
0.0101503
0.00722186
0.00638235
0.00449038
0.00395005
0.0027375
0.00239378
0.00163078
0.00141617
0.000945342
0.000813202
0.000524181
0.000441116
0.000251653
0.000210607
0.000164176
0.000147862
0.000101253
8.64319e-05
4.76701e-05
3.31243e-05
-1.13765e-05
-3.6137e-05
-0.000132221
-0.000201484
-0.000497061
-0.000728898
-0.0017413
-0.00257662
-0.00626014
-0.00955181
-0.0242341
-0.0400175
-0.11455
-0.265189
-0.258325
-0.416204
-0.502268
-0.846352
-0.793724
-0.144426
-0.0286695
-0.00624404
-64.2415
56.6376
1.92054
1.34975
1.14927
0.852066
0.749592
0.596517
0.537371
0.43072
0.382778
0.279424
0.256714
0.260436
0.257583
0.241022
0.231911
0.208604
0.197887
0.174238
0.163885
0.142153
0.132843
0.113765
0.105735
0.0896075
0.0831023
0.0707247
0.0673331
0.0652911
0.0810267
0.0484099
0.0288949
0.0230433
0.0162572
0.0138638
0.0101139
0.00872422
0.00636523
0.00548232
0.00395986
0.0033918
0.00241624
0.00205491
0.00144095
0.00121533
0.000836333
0.000697394
0.000464604
0.000377394
0.000226196
0.000182987
0.000143702
0.000126386
8.91182e-05
7.35551e-05
4.22864e-05
2.69259e-05
-9.49614e-06
-3.58145e-05
-0.000115336
-0.000189194
-0.000434982
-0.000682688
-0.00152816
-0.00242356
-0.00552501
-0.00907939
-0.0216799
-0.0388216
-0.103472
-0.221855
-0.23275
-0.358778
-0.447431
-0.706638
-0.651999
-0.154314
-0.034205
-0.00772802
-65.0088
58.7346
1.55632
1.15439
0.969351
0.730967
0.633015
0.509465
0.452878
0.36718
0.321608
0.240698
0.219021
0.220111
0.217198
0.204171
0.195522
0.17703
0.166835
0.148009
0.13815
0.120829
0.111962
0.0967511
0.089103
0.0762546
0.07007
0.0602969
0.0571351
0.0559375
0.0660599
0.0414675
0.0252178
0.0195372
0.0139825
0.0116838
0.0086689
0.00734175
0.00545335
0.00461125
0.0033938
0.00285218
0.00207219
0.0017277
0.00123675
0.00102164
0.000718464
0.000585975
0.000399652
0.000316604
0.000196654
0.000155404
0.000122511
0.000105855
7.62268e-05
6.14036e-05
3.63365e-05
2.16296e-05
-7.9783e-06
-3.33289e-05
-9.86537e-05
-0.000170005
-0.000372809
-0.000612548
-0.00131299
-0.0021822
-0.00477166
-0.00824496
-0.0189436
-0.0357247
-0.0902431
-0.182817
-0.202565
-0.30284
-0.385764
-0.579465
-0.527984
-0.149096
-0.0359938
-0.00840634
-65.7764
60.8121
1.22758
0.95039
0.791592
0.604273
0.517481
0.419752
0.369565
0.30205
0.261865
0.199613
0.180429
0.17996
0.177232
0.167158
0.159541
0.145139
0.136143
0.121435
0.112729
0.0991822
0.0913493
0.0794496
0.0726939
0.0626494
0.0571953
0.0496185
0.0468728
0.0461473
0.0525024
0.0342054
0.0211275
0.0160341
0.0115838
0.00953795
0.00716097
0.00598573
0.00450285
0.00375803
0.00280295
0.00232405
0.00171225
0.00140767
0.00102253
0.00083232
0.000594405
0.000477242
0.000330953
0.000257601
0.000164168
0.000127652
0.000100809
8.5966e-05
6.28386e-05
4.97434e-05
3.00325e-05
1.69794e-05
-6.59498e-06
-2.9215e-05
-8.17089e-05
-0.00014554
-0.000309144
-0.000523964
-0.00109104
-0.001872
-0.00398288
-0.00712136
-0.0159638
-0.0311176
-0.0754899
-0.146687
-0.169155
-0.247591
-0.319659
-0.462088
-0.417055
-0.133244
-0.0343605
-0.00825592
-66.5441
62.8725
0.926894
0.741674
0.614993
0.473574
0.4024
0.328153
0.286959
0.235839
0.203016
0.156816
0.141097
0.139908
0.13757
0.130058
0.123843
0.113044
0.105692
0.0946337
0.0875134
0.0773192
0.0709117
0.0619544
0.0564284
0.0488722
0.0444171
0.0387582
0.0365412
0.0360872
0.0399474
0.0267461
0.0167258
0.0125119
0.00909424
0.00740995
0.00560871
0.00464531
0.00352549
0.00291555
0.00219492
0.00180284
0.00134128
0.00109193
0.000801329
0.000645605
0.000466042
0.000370109
0.000259655
0.000199656
0.000129575
9.96492e-05
7.874e-05
6.65081e-05
4.91277e-05
3.84142e-05
2.35118e-05
1.27908e-05
-5.22021e-06
-2.38822e-05
-6.42931e-05
-0.000117069
-0.000243418
-0.000421275
-0.000860522
-0.00150858
-0.00315292
-0.00576948
-0.0127311
-0.0253412
-0.0596623
-0.112505
-0.133502
-0.192592
-0.250732
-0.3522
-0.315669
-0.109993
-0.0298147
-0.00733048
-67.3121
64.9191
0.64738
0.530632
0.439
0.34008
0.287455
0.235242
0.204761
0.168906
0.14471
0.112806
0.101191
0.099911
0.0981236
0.0929153
0.0883377
0.08082
0.0753984
0.0676845
0.0624307
0.0553143
0.0505855
0.0443314
0.0402534
0.0349801
0.031696
0.0277692
0.0261483
0.025865
0.0280873
0.0191687
0.0120982
0.00896294
0.00653944
0.00529019
0.00402587
0.00331369
0.00252982
0.0020793
0.00157519
0.00128564
0.000962802
0.000778665
0.000575385
0.000460383
0.000334746
0.000263894
0.000186587
0.00014231
9.35091e-05
7.13922e-05
5.64132e-05
4.73337e-05
3.52117e-05
2.73041e-05
1.68628e-05
8.92543e-06
-3.79619e-06
-1.76608e-05
-4.63692e-05
-8.56438e-05
-0.000175621
-0.00030812
-0.000621633
-0.00110527
-0.00228402
-0.0042437
-0.00927232
-0.0186959
-0.0430926
-0.0795935
-0.0963241
-0.137626
-0.180068
-0.247826
-0.221043
-0.0817211
-0.0229601
-0.00574415
-68.08
66.9556
0.382628
0.318599
0.263309
0.204744
0.172503
0.14147
0.122785
0.101513
0.0867197
0.0679908
0.0608774
0.0599397
0.05882
0.0557537
0.0529564
0.0485191
0.0452033
0.0406437
0.0374293
0.0332208
0.0303273
0.0266281
0.0241329
0.0210149
0.019007
0.0166943
0.0157085
0.0155501
0.0166817
0.0115238
0.0073177
0.00538916
0.00394063
0.00317357
0.00242304
0.00198675
0.00152231
0.00124647
0.000947921
0.000770668
0.000579484
0.000466762
0.000346374
0.000275972
0.000201555
0.000158177
0.000112378
8.52852e-05
5.64727e-05
4.2926e-05
3.39139e-05
2.83361e-05
2.11711e-05
1.6332e-05
1.01415e-05
5.274e-06
-2.30977e-06
-1.08323e-05
-2.80127e-05
-5.21825e-05
-0.000106116
-0.000187716
-0.000375928
-0.000674136
-0.00138385
-0.00259507
-0.00563754
-0.0114514
-0.026038
-0.0474717
-0.058161
-0.082613
-0.108388
-0.147229
-0.130915
-0.0502259
-0.014443
-0.00365566
-68.848
68.9859
0.126583
0.106224
0.0877567
0.0683614
0.0575078
0.0472097
0.0409178
0.0338649
0.0288901
0.0227137
0.0203195
0.019979
0.0195978
0.0185851
0.0176447
0.0161773
0.0150621
0.0135531
0.0124718
0.0110787
0.0101053
0.00888073
0.00804129
0.0070093
0.00633405
0.0055701
0.00523944
0.00518816
0.00553288
0.00384473
0.00244886
0.00179839
0.00131632
0.00105782
0.0008089
0.000662037
0.00050815
0.000415324
0.000316427
0.000256781
0.000193453
0.000155522
0.000115643
9.19522e-05
6.72991e-05
5.27021e-05
3.75281e-05
2.84135e-05
1.8884e-05
1.43242e-05
1.13154e-05
9.43516e-06
7.06399e-06
5.4359e-06
3.38412e-06
1.74475e-06
-7.75755e-07
-3.64963e-06
-9.37067e-06
-1.75256e-05
-3.55e-05
-6.30422e-05
-0.000125816
-0.000226531
-0.000463585
-0.000873151
-0.00189179
-0.00385567
-0.00870894
-0.0157786
-0.0194462
-0.027545
-0.0361831
-0.0488349
-0.0433593
-0.0169341
-0.00492553
-0.00125405
-69.616
68.8224
0.120667
0.0907465
0.0672468
0.0444235
0.0324205
0.0221972
0.0166515
0.011581
0.00958738
0.00907137
0.00887869
0.00865111
0.00848486
0.0082608
0.00807713
0.00780104
0.0075551
0.00716607
0.00683118
0.00632078
0.0059096
0.00531894
0.00487414
0.00427569
0.00386162
0.00336264
0.00311808
0.00300203
0.00312554
0.00211701
0.00128834
0.000905314
0.00062805
0.000483841
0.000351673
0.000276726
0.000202322
0.000159115
0.000115296
8.96631e-05
6.3444e-05
4.7917e-05
3.17196e-05
2.18883e-05
1.12624e-05
4.61646e-06
-2.82588e-06
-7.50438e-06
-1.31286e-05
-1.94261e-05
-3.11457e-05
-4.20686e-05
-5.99601e-05
-7.71036e-05
-0.00010601
-0.000134424
-0.000183156
-0.000231867
-0.000316453
-0.000402759
-0.000555229
-0.00071675
-0.00101151
-0.0013483
-0.00200394
-0.00287386
-0.00477915
-0.00796053
-0.0154126
-0.0254693
-0.0282199
-0.0354942
-0.0433586
-0.0545755
-0.0475404
-0.0185082
-0.00537713
-0.00136831
-69.0705
66.4654
0.365077
0.271984
0.201714
0.132839
0.0971912
0.0664052
0.049936
0.0346203
0.0287033
0.0272013
0.0266375
0.0259508
0.0254568
0.0247806
0.0242349
0.0234018
0.022671
0.0214961
0.0205007
0.0189587
0.0177364
0.0159515
0.0146291
0.0128203
0.0115889
0.0100784
0.00934982
0.00899731
0.00942282
0.00634454
0.00384766
0.00271208
0.00187911
0.00145127
0.00105291
0.000830309
0.000605838
0.000477469
0.000345239
0.000269076
0.000189953
0.000143817
9.49344e-05
6.57208e-05
3.36457e-05
1.3895e-05
-8.57858e-06
-2.24684e-05
-3.93548e-05
-5.80591e-05
-9.34683e-05
-0.000125928
-0.000179913
-0.000230844
-0.000318056
-0.000402468
-0.00054948
-0.00069418
-0.000949305
-0.00120565
-0.00166535
-0.00214495
-0.00303289
-0.00403217
-0.0060033
-0.0085802
-0.0142864
-0.0237108
-0.0461336
-0.0767002
-0.0844788
-0.106459
-0.129942
-0.164456
-0.143501
-0.0548885
-0.0157665
-0.00398896
-67.2114
64.1027
0.618815
0.452313
0.33613
0.219928
0.16177
0.110043
0.0831761
0.0572849
0.0476434
0.0452941
0.0444014
0.0432427
0.0424356
0.0412947
0.0404037
0.0389982
0.0378045
0.0358192
0.0341926
0.0315846
0.0295868
0.026567
0.0244052
0.0213437
0.0193292
0.0167649
0.0155687
0.0149639
0.0158631
0.0105509
0.00635392
0.00450783
0.0031148
0.00241822
0.00174767
0.00138442
0.00100587
0.000796274
0.000573171
0.000448797
0.000315289
0.000239947
0.000157453
0.00010974
5.55894e-05
2.33239e-05
-1.46458e-05
-3.72918e-05
-6.54961e-05
-9.60167e-05
-0.000155907
-0.000208927
-0.000299995
-0.000383145
-0.000530233
-0.000668031
-0.000915927
-0.00115211
-0.00158216
-0.00200046
-0.00277474
-0.00355689
-0.0050499
-0.00667729
-0.00997855
-0.0141615
-0.0236451
-0.0389413
-0.0765291
-0.128843
-0.14017
-0.177363
-0.216083
-0.276556
-0.242168
-0.0892891
-0.025062
-0.00626802
-65.3522
61.7308
0.888418
0.630637
0.470553
0.304701
0.226097
0.15269
0.11638
0.0793014
0.0662932
0.0633294
0.0621762
0.0605201
0.0594272
0.0577981
0.0565924
0.0545855
0.0529694
0.0501283
0.0479246
0.0441876
0.0414799
0.0371506
0.03422
0.0298282
0.0270948
0.0234001
0.0217674
0.0208744
0.0225565
0.0147161
0.00876846
0.00628728
0.00432403
0.00338527
0.00243104
0.0019399
0.00139974
0.00111611
0.000797538
0.0006292
0.000438542
0.000336561
0.00021873
0.000154137
7.67464e-05
3.30499e-05
-2.12782e-05
-5.18583e-05
-9.15246e-05
-0.000132788
-0.000218616
-0.000290408
-0.000420406
-0.000532909
-0.000742811
-0.00092923
-0.0012829
-0.00160236
-0.00221556
-0.00278113
-0.00388394
-0.00494054
-0.0070617
-0.00925562
-0.0139187
-0.019531
-0.0327716
-0.0532803
-0.106336
-0.182625
-0.194826
-0.248207
-0.301354
-0.392449
-0.345573
-0.120143
-0.0325402
-0.00799904
-63.4929
59.3462
1.18089
0.805063
0.605214
0.385991
0.290221
0.193858
0.149619
0.100358
0.084543
0.0812932
0.0799714
0.0777746
0.0764394
0.0742834
0.072812
0.0701565
0.068183
0.0644123
0.0617189
0.0567515
0.0534406
0.0476816
0.0440972
0.0382506
0.0349033
0.0299574
0.0279415
0.0266875
0.0296376
0.0188104