/*--------------------------------*- C++ -*----------------------------------*\
| =========                 |                                                 |
| \\      /  F ield         | OpenFOAM: The Open Source CFD Toolbox           |
|  \\    /   O peration     | Version:  5.x                                   |
|   \\  /    A nd           | Web:      www.OpenFOAM.org                      |
|    \\/     M anipulation  |                                                 |
\*---------------------------------------------------------------------------*/
FoamFile
{
    version     2.0;
    format      ascii;
    class       volScalarField;
    location    "0.9";
    object      T;
}
// * * * * * * * * * * * * * * * * * * * * * * * * * * * * * * * * * * * * * //

dimensions      [0 0 0 1 0 0 0];

internalField   nonuniform List<scalar> 
3200
(
2.20303
2.51399
2.5316
2.65708
2.66492
2.72485
2.72876
2.76158
2.7638
2.78383
2.78517
2.79682
2.79787
2.81121
2.81233
2.82587
2.82698
2.84008
2.84113
2.85323
2.85417
2.86479
2.8656
2.87445
2.87511
2.88212
2.88264
2.88804
2.88846
2.89303
2.89632
2.89653
2.89812
2.89822
2.89911
2.89917
2.89968
2.89971
2.90001
2.90003
2.9002
2.90021
2.9003
2.90031
2.90035
2.90035
2.90037
2.90037
2.90036
2.90036
2.90033
2.90033
2.90027
2.90026
2.90015
2.90014
2.89994
2.89992
2.89958
2.89954
2.89896
2.89889
2.89786
2.89774
2.89589
2.89566
2.89209
2.8916
2.88373
2.88233
2.85972
2.82004
2.8156
2.75092
2.74331
2.62259
2.61758
2.61694
2.61682
2.61679
2.36305
2.60093
2.63773
2.73815
2.75488
2.80284
2.8112
2.83738
2.84212
2.85805
2.86089
2.87024
2.87247
2.88304
2.88541
2.89613
2.89849
2.90886
2.91108
2.92067
2.92267
2.93108
2.9328
2.93981
2.94121
2.94677
2.94787
2.95216
2.95306
2.95681
2.95962
2.96008
2.96136
2.96158
2.96229
2.96241
2.96282
2.96289
2.96313
2.96317
2.9633
2.96333
2.9634
2.96341
2.96345
2.96345
2.96346
2.96346
2.96345
2.96345
2.96343
2.96343
2.96338
2.96336
2.96327
2.96325
2.96309
2.96304
2.96277
2.96269
2.96222
2.96208
2.96126
2.961
2.95953
2.95903
2.95617
2.95511
2.94869
2.94562
2.92585
2.89337
2.88389
2.83233
2.81631
2.72253
2.71195
2.7102
2.70984
2.70976
2.51354
2.69591
2.74131
2.82256
2.84358
2.88242
2.89292
2.91405
2.91998
2.93279
2.93636
2.94395
2.94675
2.95519
2.95816
2.96673
2.96967
2.97797
2.98075
2.98841
2.99091
2.99764
2.99979
3.0054
3.00715
3.01159
3.01297
3.01642
3.01756
3.02064
3.02301
3.02361
3.02465
3.02493
3.0255
3.02565
3.02598
3.02607
3.02626
3.02631
3.02642
3.02645
3.02651
3.02652
3.02655
3.02656
3.02657
3.02657
3.02656
3.02656
3.02654
3.02653
3.02649
3.02647
3.0264
3.02637
3.02624
3.02618
3.02597
3.02586
3.02549
3.0253
3.02465
3.02432
3.02313
3.02251
3.02018
3.01883
3.01353
3.00958
2.99249
2.96579
2.95387
2.91233
2.89244
2.81915
2.80598
2.80341
2.80285
2.80273
2.65674
2.79636
2.84346
2.90939
2.93157
2.96313
2.97421
2.99132
2.99757
3.0079
3.01166
3.01785
3.0208
3.02756
3.03068
3.03755
3.04064
3.04729
3.05021
3.05636
3.05899
3.06439
3.06664
3.07114
3.07298
3.07655
3.078
3.08077
3.08197
3.0845
3.08649
3.08713
3.08797
3.08827
3.08873
3.08889
3.08916
3.08925
3.0894
3.08946
3.08954
3.08958
3.08962
3.08964
3.08966
3.08967
3.08968
3.08968
3.08967
3.08967
3.08966
3.08965
3.08961
3.08959
3.08954
3.0895
3.0894
3.08934
3.08916
3.08905
3.08875
3.08856
3.08802
3.08768
3.08671
3.08606
3.08416
3.08273
3.07833
3.07408
3.05953
3.03763
3.02503
2.99148
2.9707
2.91338
2.89959
2.89655
2.89586
2.89571
2.79434
2.90051
2.94484
2.99795
3.01919
3.04465
3.05526
3.06902
3.07499
3.08328
3.08687
3.09187
3.09469
3.10008
3.10305
3.10853
3.11147
3.11677
3.11955
3.12445
3.12695
3.13125
3.1334
3.13699
3.13874
3.14159
3.14297
3.14519
3.14634
3.14839
3.15002
3.15064
3.15132
3.15161
3.15198
3.15213
3.15234
3.15244
3.15256
3.15261
3.15268
3.15271
3.15275
3.15276
3.15278
3.15279
3.15279
3.15279
3.15279
3.15279
3.15278
3.15277
3.15274
3.15272
3.15268
3.15264
3.15256
3.1525
3.15236
3.15225
3.15201
3.15183
3.1514
3.15107
3.15029
3.14967
3.14813
3.14675
3.14312
3.13899
3.12686
3.1091
3.09704
3.07011
3.05043
3.00586
2.99277
2.9896
2.98885
2.98868
2.92769
3.00712
3.04588
3.08779
3.10663
3.12677
3.13618
3.14704
3.15233
3.15884
3.16203
3.16599
3.16849
3.1727
3.17532
3.1796
3.1822
3.18635
3.1888
3.19263
3.19485
3.19821
3.20011
3.20291
3.20446
3.20669
3.20791
3.20965
3.21067
3.21229
3.2136
3.21415
3.21469
3.21495
3.21524
3.21538
3.21554
3.21562
3.21572
3.21577
3.21582
3.21585
3.21588
3.21589
3.2159
3.21591
3.21591
3.21591
3.21591
3.21591
3.2159
3.21589
3.21587
3.21586
3.21582
3.21579
3.21572
3.21567
3.21556
3.21547
3.21528
3.21511
3.21478
3.21449
3.21387
3.21332
3.21209
3.21086
3.20794
3.20423
3.19442
3.18035
3.16966
3.14846
3.13116
3.0971
3.08557
3.08255
3.08182
3.08165
3.05786
3.11536
3.14678
3.17856
3.19402
3.20932
3.21705
3.22527
3.22961
3.23453
3.23715
3.24017
3.24221
3.24538
3.24753
3.25075
3.25287
3.25599
3.258
3.26088
3.26269
3.26523
3.26678
3.26889
3.27016
3.27184
3.27283
3.27415
3.27499
3.27621
3.27722
3.27767
3.27808
3.27829
3.27851
3.27862
3.27875
3.27881
3.27889
3.27892
3.27897
3.27899
3.27901
3.27902
3.27903
3.27904
3.27904
3.27904
3.27904
3.27904
3.27903
3.27902
3.27901
3.27899
3.27897
3.27894
3.27889
3.27885
3.27876
3.27869
3.27854
3.27841
3.27816
3.27792
3.27745
3.27699
3.27606
3.27504
3.27279
3.26972
3.26216
3.25147
3.24269
3.22666
3.21257
3.18743
3.17802
3.17542
3.17477
3.17462
3.18573
3.22465
3.24766
3.26997
3.28141
3.29217
3.29789
3.30367
3.30687
3.31032
3.31226
3.31438
3.31589
3.31811
3.31969
3.32194
3.3235
3.32568
3.32716
3.32918
3.33051
3.33228
3.33343
3.3349
3.33583
3.33701
3.33774
3.33867
3.33928
3.34014
3.34085
3.34119
3.34148
3.34163
3.34179
3.34187
3.34196
3.34201
3.34206
3.34209
3.34212
3.34213
3.34215
3.34216
3.34216
3.34217
3.34217
3.34217
3.34217
3.34217
3.34216
3.34216
3.34215
3.34214
3.34212
3.3421
3.34206
3.34203
3.34197
3.34192
3.34182
3.34172
3.34154
3.34136
3.34103
3.3407
3.34004
3.33928
3.33768
3.33539
3.33003
3.32252
3.31602
3.30479
3.29442
3.27714
3.27021
3.26822
3.26771
3.26759
3.31204
3.33456
3.34858
3.36182
3.36883
3.37523
3.37873
3.38216
3.38413
3.38617
3.38736
3.38862
3.38955
3.39085
3.39182
3.39315
3.39411
3.3954
3.39631
3.3975
3.39831
3.39936
3.40006
3.40093
3.4015
3.4022
3.40265
3.40319
3.40357
3.40408
3.4045
3.40471
3.40488
3.40498
3.40507
3.40512
3.40517
3.4052
3.40523
3.40525
3.40527
3.40528
3.40529
3.40529
3.4053
3.4053
3.4053
3.4053
3.4053
3.4053
3.4053
3.40529
3.40529
3.40528
3.40527
3.40526
3.40524
3.40522
3.40518
3.40515
3.40509
3.40503
3.40492
3.40481
3.40462
3.40441
3.40402
3.40355
3.40259
3.40119
3.39798
3.39352
3.38954
3.38288
3.37655
3.36644
3.36221
3.36095
3.36063
3.36056
3.43744
3.44482
3.44952
3.45391
3.45627
3.4584
3.45958
3.46071
3.46138
3.46205
3.46245
3.46287
3.46318
3.46362
3.46394
3.46438
3.46471
3.46513
3.46544
3.46583
3.46611
3.46645
3.46669
3.46698
3.46717
3.4674
3.46755
3.46773
3.46786
3.46803
3.46817
3.46824
3.46829
3.46833
3.46836
3.46837
3.46839
3.4684
3.46841
3.46842
3.46842
3.46843
3.46843
3.46843
3.46843
3.46843
3.46843
3.46843
3.46843
3.46843
3.46843
3.46843
3.46843
3.46843
3.46842
3.46842
3.46841
3.46841
3.46839
3.46838
3.46836
3.46834
3.46831
3.46827
3.46821
3.46814
3.46801
3.46785
3.46753
3.46705
3.46599
3.46451
3.46317
3.46096
3.45883
3.45551
3.45408
3.45366
3.45354
3.45352
3.44554
3.45305
3.4582
3.46367
3.46698
3.47051
3.47273
3.47523
3.47682
3.47862
3.47971
3.48089
3.48174
3.48289
3.4837
3.48474
3.48547
3.48636
3.48697
3.48772
3.48822
3.48882
3.48923
3.48971
3.49003
3.49041
3.49067
3.49097
3.49119
3.49149
3.49174
3.49187
3.49199
3.49205
3.49212
3.49216
3.4922
3.49222
3.49225
3.49227
3.49228
3.49229
3.4923
3.49231
3.49231
3.49232
3.49232
3.49232
3.49232
3.49232
3.49232
3.49233
3.49233
3.49233
3.49233
3.49233
3.49233
3.49233
3.49233
3.49233
3.49233
3.49232
3.49232
3.49232
3.49231
3.4923
3.49226
3.49221
3.49207
3.49182
3.4912
3.49024
3.48926
3.48749
3.48564
3.4826
3.4813
3.48091
3.48081
3.48079
3.33633
3.35924
3.37459
3.3911
3.40092
3.41158
3.41817
3.42573
3.43045
3.43588
3.43913
3.44268
3.44521
3.44867
3.45109
3.45425
3.45639
3.4591
3.46091
3.46316
3.46465
3.46648
3.46768
3.46914
3.47009
3.47124
3.47199
3.47291
3.47356
3.47447
3.47523
3.47562
3.47596
3.47616
3.47636
3.47647
3.4766
3.47667
3.47675
3.4768
3.47685
3.47687
3.4769
3.47692
3.47694
3.47695
3.47696
3.47696
3.47697
3.47697
3.47698
3.47698
3.47698
3.47698
3.47698
3.47698
3.47698
3.47698
3.47698
3.47698
3.47698
3.47698
3.47697
3.47696
3.47693
3.47689
3.47679
3.47663
3.47623
3.47548
3.47362
3.47073
3.4678
3.46247
3.45696
3.44775
3.44387
3.44272
3.44243
3.44236
3.22619
3.26573
3.29093
3.3188
3.33483
3.35281
3.36358
3.37634
3.38406
3.39323
3.39853
3.40451
3.40865
3.4145
3.41846
3.42379
3.42729
3.43187
3.43483
3.43864
3.44107
3.44417
3.44613
3.4486
3.45015
3.4521
3.45332
3.45487
3.45594
3.45746
3.45874
3.45937
3.45995
3.46027
3.46061
3.4608
3.46101
3.46113
3.46126
3.46134
3.46142
3.46146
3.46151
3.46154
3.46157
3.46159
3.4616
3.46161
3.46162
3.46163
3.46163
3.46164
3.46164
3.46164
3.46164
3.46164
3.46164
3.46164
3.46164
3.46164
3.46164
3.46163
3.46162
3.4616
3.46156
3.46149
3.46133
3.46107
3.4604
3.4592
3.45609
3.45123
3.44645
3.43747
3.42844
3.41268
3.40633
3.40451
3.40404
3.40393
3.11447
3.1728
3.20716
3.24697
3.26866
3.29433
3.30891
3.32715
3.33761
3.35073
3.35791
3.36642
3.37202
3.38041
3.38577
3.39341
3.39816
3.40471
3.40872
3.41417
3.41747
3.4219
3.42456
3.4281
3.4302
3.43298
3.43464
3.43686
3.43829
3.44046
3.44229
3.44314
3.44396
3.44439
3.44487
3.44513
3.44543
3.44559
3.44578
3.44588
3.446
3.44606
3.44613
3.44617
3.44621
3.44624
3.44626
3.44627
3.44629
3.44629
3.4463
3.4463
3.44631
3.44631
3.44631
3.44631
3.44631
3.44631
3.44631
3.44631
3.44631
3.4463
3.44628
3.44626
3.4462
3.44611
3.44588
3.44553
3.44461
3.44299
3.43864
3.43174
3.42528
3.41247
3.4002
3.37725
3.36863
3.36625
3.36565
3.36551
3.00041
3.08082
3.12317
3.17586
3.20234
3.23629
3.25409
3.27827
3.29105
3.30848
3.31724
3.32844
3.33528
3.34644
3.353
3.36315
3.36895
3.37766
3.38256
3.3898
3.39383
3.39972
3.40297
3.40766
3.41023
3.41392
3.41595
3.41888
3.42063
3.42349
3.42588
3.42691
3.42799
3.42851
3.42915
3.42947
3.42987
3.43007
3.43032
3.43044
3.4306
3.43067
3.43077
3.43081
3.43087
3.4309
3.43093
3.43095
3.43096
3.43097
3.43098
3.43098
3.43099
3.43099
3.431
3.431
3.431
3.431
3.431
3.431
3.43099
3.43098
3.43096
3.43093
3.43085
3.43074
3.43045
3.43003
3.42885
3.42691
3.4213
3.41224
3.40438
3.38747
3.3724
3.34125
3.33069
3.32793
3.32725
3.3271
2.88313
2.99036
3.03877
3.1058
3.13571
3.1789
3.19901
3.22985
3.2443
3.26657
3.27647
3.29064
3.29837
3.31265
3.32009
3.33307
3.33964
3.35077
3.35632
3.36557
3.37013
3.37764
3.38132
3.38732
3.39023
3.39494
3.39723
3.40097
3.40294
3.40656
3.40955
3.4107
3.41207
3.41265
3.41346
3.41382
3.41433
3.41456
3.41488
3.41502
3.41521
3.4153
3.41542
3.41547
3.41555
3.41558
3.41562
3.41563
3.41566
3.41567
3.41568
3.41568
3.41569
3.41569
3.4157
3.4157
3.4157
3.4157
3.4157
3.4157
3.41569
3.41568
3.41565
3.41562
3.41552
3.4154
3.41504
3.41457
3.41315
3.411
3.40412
3.39271
3.38385
3.36241
3.34527
3.30446
3.29246
3.28955
3.28886
3.28871
2.76155
2.90224
2.95361
3.03722
3.06855
3.12243
3.14351
3.18209
3.19725
3.22516
3.23553
3.25311
3.2612
3.27915
3.28696
3.30325
3.31015
3.32411
3.32993
3.34153
3.34632
3.35574
3.3596
3.36711
3.37017
3.37607
3.37847
3.38314
3.3852
3.38966
3.3933
3.3945
3.39619
3.3968
3.39781
3.39819
3.39883
3.39906
3.39946
3.39961
3.39986
3.39995
3.4001
3.40015
3.40024
3.40027
3.40033
3.40034
3.40037
3.40038
3.40039
3.4004
3.40041
3.40041
3.40042
3.40042
3.40042
3.40042
3.40042
3.40042
3.40041
3.4004
3.40037
3.40033
3.40021
3.40009
3.39966
3.39918
3.39749
3.39529
3.38714
3.3731
3.36385
3.33721
3.3191
3.26653
3.25389
3.2511
3.25047
3.25033
2.63434
2.81769
2.86716
2.97073
3.00048
3.06728
3.08731
3.13527
3.14969
3.18446
3.19431
3.21596
3.22365
3.24606
3.2535
3.27382
3.28039
3.29778
3.30333
3.31777
3.32233
3.33407
3.33774
3.3471
3.35001
3.35735
3.35964
3.36543
3.36739
3.37282
3.37718
3.3783
3.38038
3.38096
3.38221
3.38257
3.38336
3.38358
3.38408
3.38422
3.38453
3.38462
3.3848
3.38486
3.38497
3.385
3.38506
3.38508
3.38511
3.38512
3.38514
3.38514
3.38515
3.38516
3.38516
3.38517
3.38517
3.38517
3.38517
3.38517
3.38515
3.38515
3.3851
3.38507
3.38493
3.38481
3.3843
3.38386
3.38188
3.37985
3.37042
3.35332
3.34457
3.31169
3.29433
3.22704
3.21495
3.21259
3.21208
3.21197
2.49978
2.73849
2.77854
2.90719
2.93093
3.01399
3.02999
3.08978
3.10132
3.14476
3.15262
3.17937
3.18551
3.21357
3.21953
3.24494
3.2502
3.27194
3.27638
3.29442
3.29807
3.31273
3.31567
3.32736
3.32968
3.33886
3.34069
3.34789
3.34945
3.35604
3.3612
3.36209
3.36465
3.36512
3.36667
3.36696
3.36794
3.36812
3.36874
3.36885
3.36924
3.36931
3.36954
3.36958
3.36972
3.36975
3.36983
3.36984
3.36988
3.36989
3.36991
3.36991
3.36993
3.36993
3.36994
3.36994
3.36994
3.36994
3.36994
3.36994
3.36993
3.36992
3.36987
3.36985
3.36968
3.36958
3.36897
3.36863
3.3663
3.36474
3.35403
3.33324
3.32629
3.28557
3.27159
3.18537
3.17565
3.17405
3.17371
3.17364
2.35566
2.66723
2.68637
2.84784
2.859
2.96339
2.97091
3.04624
3.05167
3.10648
3.11018
3.14361
3.1465
3.18198
3.18479
3.21688
3.21936
3.2468
3.2489
3.27167
3.27339
3.29188
3.29327
3.30801
3.30911
3.32068
3.32154
3.33061
3.33134
3.33935
3.34543
3.34584
3.34904
3.34926
3.35122
3.35135
3.35259
3.35267
3.35346
3.35351
3.35399
3.35403
3.35432
3.35434
3.35451
3.35452
3.35463
3.35463
3.35469
3.35469
3.35471
3.35472
3.35474
3.35474
3.35475
3.35475
3.35475
3.35475
3.35475
3.35475
3.35473
3.35473
3.35467
3.35466
3.35445
3.35441
3.35366
3.35351
3.35072
3.35002
3.33808
3.31264
3.30939
3.25842
3.25178
3.14067
3.13607
3.13548
3.13537
3.13534
2.35565
2.6672
2.68635
2.84781
2.85897
2.96334
2.97087
3.04619
3.05162
3.10643
3.11013
3.14356
3.14645
3.18193
3.18474
3.21683
3.21931
3.24676
3.24885
3.27163
3.27335
3.29185
3.29324
3.30799
3.30909
3.32066
3.32152
3.3306
3.33132
3.33934
3.34542
3.34583
3.34903
3.34925
3.35121
3.35135
3.35259
3.35267
3.35345
3.35351
3.35399
3.35402
3.35432
3.35434
3.35451
3.35452
3.35462
3.35463
3.35469
3.35469
3.35471
3.35472
3.35474
3.35474
3.35475
3.35475
3.35475
3.35475
3.35475
3.35475
3.35473
3.35473
3.35467
3.35466
3.35445
3.35441
3.35367
3.35351
3.35072
3.35002
3.33809
3.31266
3.30941
3.25847
3.25183
3.14073
3.13613
3.13554
3.13543
3.1354
2.49977
2.73847
2.77852
2.90716
2.9309
3.01395
3.02995
3.08974
3.10127
3.14471
3.15258
3.17932
3.18546
3.21353
3.21948
3.2449
3.25015
3.2719
3.27634
3.29439
3.29804
3.3127
3.31564
3.32734
3.32966
3.33884
3.34067
3.34788
3.34944
3.35604
3.3612
3.36208
3.36465
3.36511
3.36667
3.36696
3.36794
3.36812
3.36874
3.36885
3.36924
3.36931
3.36954
3.36958
3.36972
3.36975
3.36983
3.36984
3.36988
3.36989
3.36991
3.36991
3.36993
3.36993
3.36994
3.36994
3.36994
3.36995
3.36994
3.36994
3.36993
3.36992
3.36987
3.36985
3.36968
3.36959
3.36898
3.36863
3.3663
3.36474
3.35404
3.33326
3.32631
3.28561
3.27163
3.18542
3.1757
3.1741
3.17376
3.17369
2.63433
2.81767
2.86714
2.9707
3.00045
3.06724
3.08727
3.13523
3.14965
3.18442
3.19427
3.21591
3.22361
3.24602
3.25346
3.27378
3.28035
3.29775
3.30329
3.31774
3.3223
3.33404
3.33772
3.34708
3.34999
3.35734
3.35963
3.36542
3.36738
3.37281
3.37717
3.3783
3.38037
3.38096
3.38221
3.38257
3.38336
3.38358
3.38408
3.38422
3.38453
3.38462
3.3848
3.38485
3.38497
3.385
3.38506
3.38508
3.38511
3.38512
3.38514
3.38514
3.38515
3.38516
3.38516
3.38517
3.38517
3.38517
3.38517
3.38517
3.38516
3.38515
3.38511
3.38507
3.38493
3.38482
3.38431
3.38386
3.38188
3.37986
3.37043
3.35334
3.34459
3.31172
3.29437
3.22708
3.215
3.21264
3.21213
3.21202
2.76154
2.90222
2.95359
3.0372
3.06852
3.12241
3.14348
3.18206
3.19722
3.22513
3.2355
3.25307
3.26117
3.27912
3.28693
3.30322
3.31012
3.32408
3.3299
3.3415
3.34629
3.35572
3.35958
3.36709
3.37015
3.37605
3.37846
3.38313
3.38519
3.38966
3.3933
3.3945
3.39619
3.3968
3.39781
3.39819
3.39882
3.39906
3.39946
3.39961
3.39986
3.39995
3.4001
3.40015
3.40024
3.40027
3.40033
3.40034
3.40037
3.40038
3.40039
3.4004
3.40041
3.40041
3.40042
3.40042
3.40042
3.40042
3.40042
3.40042
3.40041
3.4004
3.40037
3.40033
3.40021
3.40009
3.39966
3.39918
3.39749
3.3953
3.38715
3.37311
3.36387
3.33724
3.31913
3.26657
3.25393
3.25114
3.25051
3.25037
2.88312
2.99034
3.03875
3.10578
3.13569
3.17888
3.19899
3.22982
3.24428
3.26654
3.27644
3.29061
3.29834
3.31262
3.32006
3.33304
3.33961
3.35074
3.35629
3.36554
3.37011
3.37763
3.38131
3.3873
3.39022
3.39493
3.39722
3.40096
3.40294
3.40655
3.40954
3.4107
3.41206
3.41265
3.41346
3.41382
3.41433
3.41455
3.41487
3.41502
3.41521
3.4153
3.41542
3.41547
3.41555
3.41558
3.41562
3.41563
3.41566
3.41567
3.41568
3.41568
3.41569
3.41569
3.4157
3.4157
3.4157
3.4157
3.4157
3.4157
3.41569
3.41568
3.41565
3.41562
3.41552
3.4154
3.41504
3.41458
3.41315
3.411
3.40413
3.39272
3.38387
3.36244
3.34529
3.30449
3.29249
3.28958
3.28889
3.28874
3.0004
3.08081
3.12316
3.17585
3.20232
3.23627
3.25407
3.27825
3.29102
3.30845
3.31721
3.32842
3.33525
3.34641
3.35298
3.36313
3.36893
3.37764
3.38254
3.38978
3.39382
3.3997
3.40295
3.40765
3.41022
3.41391
3.41594
3.41887
3.42063
3.42349
3.42588
3.42691
3.42799
3.42851
3.42915
3.42947
3.42987
3.43007
3.43032
3.43044
3.4306
3.43067
3.43077
3.43081
3.43087
3.4309
3.43093
3.43095
3.43096
3.43097
3.43098
3.43098
3.43099
3.43099
3.431
3.431
3.431
3.431
3.431
3.431
3.43099
3.43098
3.43096
3.43093
3.43085
3.43074
3.43045
3.43003
3.42886
3.42692
3.42131
3.41225
3.40439
3.38749
3.37242
3.34128
3.33072
3.32796
3.32728
3.32713
3.11446
3.17279
3.20715
3.24696
3.26865
3.29431
3.30889
3.32713
3.33759
3.35071
3.35789
3.3664
3.372
3.38039
3.38576
3.39339
3.39814
3.4047
3.40871
3.41416
3.41746
3.42189
3.42455
3.42809
3.43019
3.43297
3.43464
3.43685
3.43829
3.44046
3.44228
3.44313
3.44396
3.44438
3.44487
3.44513
3.44543
3.44559
3.44578
3.44588
3.446
3.44606
3.44613
3.44617
3.44621
3.44624
3.44626
3.44627
3.44629
3.44629
3.4463
3.4463
3.44631
3.44631
3.44631
3.44631
3.44631
3.44631
3.44631
3.44631
3.44631
3.4463
3.44628
3.44626
3.4462
3.44611
3.44588
3.44553
3.44461
3.443
3.43864
3.43175
3.42529
3.41249
3.40022
3.37727
3.36865
3.36627
3.36567
3.36553
3.22618
3.26573
3.29092
3.31879
3.33482
3.3528
3.36357
3.37632
3.38404
3.39321
3.39852
3.40449
3.40863
3.41449
3.41845
3.42378
3.42728
3.43186
3.43482
3.43863
3.44106
3.44416
3.44612
3.44859
3.45015
3.45209
3.45332
3.45487
3.45593
3.45745
3.45874
3.45937
3.45995
3.46027
3.4606
3.4608
3.46101
3.46113
3.46126
3.46134
3.46142
3.46146
3.46151
3.46154
3.46157
3.46159
3.4616
3.46161
3.46162
3.46163
3.46163
3.46164
3.46164
3.46164
3.46164
3.46164
3.46164
3.46164
3.46164
3.46164
3.46164
3.46163
3.46162
3.4616
3.46156
3.46149
3.46133
3.46107
3.4604
3.4592
3.45609
3.45124
3.44646
3.43748
3.42845
3.41269
3.40635
3.40452
3.40405
3.40395
3.33632
3.35924
3.37458
3.3911
3.40092
3.41157
3.41817
3.42572
3.43044
3.43587
3.43912
3.44267
3.4452
3.44866
3.45109
3.45424
3.45638
3.45909
3.4609
3.46315
3.46465
3.46648
3.46768
3.46914
3.47009
3.47124
3.47199
3.47291
3.47356
3.47447
3.47523
3.47562
3.47596
3.47616
3.47636
3.47647
3.4766
3.47667
3.47675
3.4768
3.47685
3.47687
3.4769
3.47692
3.47694
3.47695
3.47696
3.47696
3.47697
3.47697
3.47698
3.47698
3.47698
3.47698
3.47698
3.47698
3.47698
3.47698
3.47698
3.47698
3.47698
3.47698
3.47697
3.47696
3.47693
3.47689
3.47679
3.47663
3.47623
3.47549
3.47363
3.47074
3.46781
3.46248
3.45697
3.44775
3.44388
3.44273
3.44243
3.44237
3.44554
3.45305
3.4582
3.46367
3.46698
3.47051
3.47273
3.47523
3.47682
3.47861
3.47971
3.48089
3.48174
3.48288
3.4837
3.48474
3.48546
3.48636
3.48697
3.48771
3.48822
3.48882
3.48923
3.48971
3.49003
3.49041
3.49066
3.49097
3.49119
3.49149
3.49174
3.49187
3.49199
3.49205
3.49212
3.49216
3.4922
3.49222
3.49225
3.49227
3.49228
3.49229
3.4923
3.49231
3.49231
3.49232
3.49232
3.49232
3.49232
3.49232
3.49232
3.49233
3.49233
3.49233
3.49233
3.49233
3.49233
3.49233
3.49233
3.49233
3.49233
3.49232
3.49232
3.49232
3.49231
3.4923
3.49226
3.49221
3.49207
3.49182
3.4912
3.49025
3.48926
3.48749
3.48564
3.48261
3.4813
3.48091
3.48081
3.48079
3.43744
3.44481
3.4495
3.45388
3.45623
3.45832
3.45947
3.46054
3.46113
3.4617
3.46209
3.46261
3.46298
3.46347
3.46383
3.4643
3.46464
3.46508
3.46539
3.4658
3.46608
3.46643
3.46667
3.46696
3.46715
3.46739
3.46754
3.46772
3.46785
3.46802
3.46816
3.46824
3.46829
3.46833
3.46836
3.46837
3.46839
3.4684
3.46841
3.46842
3.46842
3.46843
3.46843
3.46843
3.46843
3.46843
3.46843
3.46843
3.46843
3.46843
3.46843
3.46843
3.46843
3.46843
3.46842
3.46842
3.46841
3.46841
3.46839
3.46838
3.46836
3.46834
3.46831
3.46827
3.46821
3.46814
3.46801
3.46785
3.46753
3.46705
3.46599
3.46451
3.46316
3.46096
3.45883
3.4555
3.45407
3.45365
3.45354
3.45351
3.31201
3.33452
3.34852
3.36172
3.36869
3.37501
3.37841
3.38165
3.3834
3.38511
3.38627
3.38783
3.38894
3.39042
3.39148
3.3929
3.39391
3.39524
3.39617
3.39739
3.39822
3.39929
3.4
3.40088
3.40146
3.40216
3.40262
3.40317
3.40356
3.40407
3.4045
3.40471
3.40488
3.40498
3.40507
3.40512
3.40518
3.40521
3.40524
3.40525
3.40527
3.40528
3.40529
3.40529
3.4053
3.4053
3.4053
3.4053
3.4053
3.4053
3.4053
3.40529
3.40529
3.40528
3.40527
3.40526
3.40524
3.40522
3.40518
3.40515
3.40509
3.40503
3.40492
3.40481
3.40462
3.40441
3.40402
3.40355
3.40259
3.40118
3.39798
3.39351
3.38953
3.38287
3.37653
3.36642
3.36218
3.36093
3.36061
3.36053
3.18569
3.22458
3.24757
3.26981
3.28118
3.2918
3.29736
3.30281
3.30568
3.30854
3.31044
3.31307
3.31488
3.31739
3.31912
3.32152
3.32317
3.32542
3.32695
3.329
3.33036
3.33216
3.33332
3.33482
3.33576
3.33695
3.3377
3.33863
3.33925
3.34012
3.34084
3.34118
3.34148
3.34163
3.34179
3.34187
3.34196
3.34201
3.34206
3.34209
3.34212
3.34214
3.34215
3.34216
3.34217
3.34217
3.34217
3.34217
3.34217
3.34217
3.34216
3.34216
3.34215
3.34214
3.34212
3.3421
3.34207
3.34203
3.34197
3.34192
3.34182
3.34172
3.34154
3.34136
3.34103
3.34069
3.34004
3.33928
3.33767
3.33538
3.33002
3.3225
3.316
3.30476
3.29439
3.27711
3.27018
3.26818
3.26767
3.26755
3.0578
3.11527
3.14665
3.17834
3.1937
3.20881
3.21631
3.22407
3.22795
3.232
3.23458
3.23834
3.2408
3.24439
3.24674
3.25017
3.2524
3.25563
3.25769
3.26064
3.26249
3.26506
3.26664
3.26877
3.27006
3.27176
3.27277
3.2741
3.27494
3.27619
3.2772
3.27766
3.27808
3.27829
3.27851
3.27862
3.27875
3.27882
3.27889
3.27893
3.27897
3.27899
3.27902
3.27903
3.27904
3.27904
3.27904
3.27904
3.27904
3.27904
3.27903
3.27903
3.27901
3.279
3.27897
3.27894
3.2789
3.27885
3.27877
3.27869
3.27855
3.27841
3.27816
3.27792
3.27745
3.27699
3.27606
3.27504
3.27278
3.26971
3.26215
3.25145
3.24267
3.22663
3.21253
3.18738
3.17797
3.17537
3.17472
3.17457
2.92762
3.007
3.04571
3.08751
3.10623
3.12611
3.13525
3.1455
3.15021
3.15553
3.15867
3.16366
3.16667
3.17144
3.17431
3.17887
3.18159
3.18588
3.18841
3.19232
3.19458
3.198
3.19993
3.20277
3.20433
3.20659
3.20783
3.20959
3.21062
3.21226
3.21358
3.21414
3.21469
3.21494
3.21524
3.21538
3.21555
3.21563
3.21573
3.21577
3.21583
3.21585
3.21588
3.2159
3.21591
3.21592
3.21592
3.21592
3.21592
3.21591
3.21591
3.2159
3.21588
3.21586
3.21582
3.21579
3.21573
3.21567
3.21556
3.21547
3.21528
3.21512
3.21478
3.21449
3.21387
3.21331
3.21209
3.21085
3.20793
3.20422
3.19441
3.18033
3.16962
3.14842
3.13111
3.09703
3.0855
3.08249
3.08175
3.08158
2.79425
2.90036
2.94464
2.99761
3.01871
3.04384
3.05415
3.06714
3.07246
3.07915
3.08268
3.08906
3.09246
3.09856
3.10181
3.10764
3.11072
3.11621
3.11907
3.12407
3.12663
3.131
3.13318
3.13681
3.13859
3.14147
3.14286
3.14511
3.14627
3.14834
3.15
3.15062
3.15131
3.1516
3.15198
3.15213
3.15235
3.15244
3.15257
3.15262
3.15269
3.15272
3.15276
3.15277
3.15279
3.15279
3.1528
3.1528
3.1528
3.15279
3.15278
3.15277
3.15275
3.15273
3.15268
3.15265
3.15256
3.1525
3.15236
3.15226
3.15201
3.15183
3.1514
3.15107
3.15029
3.14967
3.14812
3.14674
3.14311
3.13898
3.12684
3.10907
3.097
3.07006
3.05037
3.00579
2.99269
2.98951
2.98876
2.9886
2.65664
2.79619
2.84323
2.90898
2.93103
2.96217
2.97294
2.98909
2.99464
3.00289
3.00659
3.01459
3.01816
3.0258
3.02921
3.03652
3.03975
3.04664
3.04964
3.05592
3.0586
3.06409
3.06637
3.07093
3.07279
3.07641
3.07787
3.08068
3.08189
3.08445
3.08646
3.08711
3.08796
3.08826
3.08873
3.08889
3.08916
3.08926
3.08941
3.08947
3.08956
3.08959
3.08963
3.08965
3.08967
3.08968
3.08969
3.08969
3.08968
3.08968
3.08966
3.08965
3.08962
3.0896
3.08954
3.08951
3.0894
3.08934
3.08916
3.08905
3.08875
3.08856
3.08802
3.08768
3.08671
3.08606
3.08416
3.08272
3.07832
3.07407
3.0595
3.03759
3.02499
2.99141
2.97063
2.91328
2.89949
2.89645
2.89576
2.89561
2.51344
2.69571
2.74106
2.82209
2.84298
2.88131
2.89151
2.91146
2.91672
2.92681
2.93032
2.94029
2.94369
2.95321
2.95646
2.96556
2.96864
2.97722
2.98008
2.98791
2.99047
2.9973
2.99948
3.00516
3.00693
3.01143
3.01282
3.01631
3.01746
3.02058
3.02299
3.02359
3.02464
3.02492
3.0255
3.02565
3.02599
3.02608
3.02627
3.02632
3.02643
3.02646
3.02652
3.02653
3.02656
3.02657
3.02658
3.02658
3.02657
3.02657
3.02655
3.02654
3.0265
3.02648
3.02641
3.02638
3.02625
3.02619
3.02597
3.02587
3.02549
3.02531
3.02465
3.02432
3.02313
3.02251
3.02017
3.01883
3.01352
3.00957
2.99246
2.96575
2.95381
2.91226
2.89235
2.81904
2.80587
2.8033
2.80274
2.80262
2.36294
2.6007
2.63747
2.73761
2.75423
2.80157
2.80969
2.83442
2.8386
2.851
2.85379
2.86625
2.86897
2.88087
2.88347
2.89485
2.89731
2.90804
2.91032
2.92011
2.92216
2.9307
2.93245
2.93954
2.94096
2.94659
2.9477
2.95204
2.95296
2.95675
2.95958
2.96006
2.96135
2.96157
2.96229
2.96241
2.96283
2.9629
2.96314
2.96318
2.96332
2.96334
2.96341
2.96342
2.96346
2.96346
2.96347
2.96347
2.96347
2.96346
2.96344
2.96344
2.96339
2.96337
2.96328
2.96325
2.9631
2.96305
2.96278
2.96269
2.96223
2.96208
2.96126
2.961
2.95952
2.95903
2.95616
2.9551
2.94868
2.9456
2.92582
2.89332
2.88383
2.83225
2.81622
2.72241
2.71182
2.71007
2.70971
2.70963
2.20292
2.51373
2.53133
2.65646
2.66425
2.7234
2.72721
2.7582
2.76016
2.77557
2.77688
2.7926
2.79389
2.80891
2.81013
2.82449
2.82565
2.83919
2.84027
2.85263
2.85359
2.86438
2.8652
2.87416
2.87483
2.88192
2.88244
2.88791
2.88834
2.89295
2.89628
2.8965
2.89811
2.89821
2.89911
2.89917
2.89969
2.89972
2.90002
2.90004
2.90021
2.90022
2.90032
2.90032
2.90037
2.90037
2.90038
2.90038
2.90037
2.90037
2.90034
2.90034
2.90028
2.90027
2.90016
2.90015
2.89995
2.89993
2.89959
2.89955
2.89896
2.89889
2.89786
2.89774
2.89589
2.89566
2.89208
2.89159
2.88371
2.88231
2.85969
2.81997
2.81554
2.75082
2.74321
2.62245
2.61744
2.6168
2.61667
2.61665
)
;

boundaryField
{
    F1_1
    {
        type            fixedValue;
        value           nonuniform List<scalar> 
80
(
2.11669
2.47632
2.47632
2.61886
2.61886
2.68696
2.68696
2.72429
2.72429
2.7471
2.7471
2.76033
2.76033
2.77555
2.77555
2.79099
2.79099
2.80593
2.80593
2.81973
2.81973
2.83185
2.83185
2.84195
2.84195
2.84995
2.84995
2.85612
2.85612
2.86122
2.8648
2.8648
2.86661
2.86661
2.86762
2.86762
2.86821
2.86821
2.86855
2.86855
2.86874
2.86874
2.86885
2.86885
2.8689
2.8689
2.86891
2.86891
2.8689
2.8689
2.86888
2.86888
2.86881
2.86881
2.86868
2.86868
2.86846
2.86846
2.86807
2.86807
2.8674
2.8674
2.86624
2.86624
2.86413
2.86413
2.86008
2.86008
2.8512
2.8512
2.82709
2.78275
2.78275
2.70916
2.70916
2.5704
2.5704
2.5704
2.5704
2.5704
)
;
    }
    F1_2
    {
        type            fixedValue;
        value           nonuniform List<scalar> 
80
(
2.27721
2.63735
2.63735
2.82113
2.82113
2.94002
2.94002
3.02589
3.02589
3.08843
3.08843
3.12642
3.12642
3.16694
3.16694
3.20357
3.20357
3.2349
3.2349
3.26089
3.26089
3.28201
3.28201
3.29885
3.29885
3.31207
3.31207
3.32243
3.32243
3.33136
3.338
3.338
3.34165
3.34165
3.3439
3.3439
3.34532
3.34532
3.34621
3.34621
3.34677
3.34677
3.34711
3.34711
3.34731
3.34731
3.34742
3.34742
3.34748
3.34748
3.34751
3.34751
3.34753
3.34753
3.34755
3.34755
3.34755
3.34755
3.34755
3.34755
3.34753
3.34753
3.34746
3.34746
3.34723
3.34723
3.34639
3.34639
3.34328
3.34328
3.33078
3.30229
3.30229
3.24438
3.24438
3.11663
3.11663
3.11663
3.11663
3.11663
)
;
    }
    F1_3
    {
        type            fixedValue;
        value           nonuniform List<scalar> 
80
(
2.27719
2.63732
2.63732
2.82109
2.82109
2.93997
2.93997
3.02584
3.02584
3.08837
3.08837
3.12636
3.12636
3.16688
3.16688
3.20352
3.20352
3.23485
3.23485
3.26086
3.26086
3.28198
3.28198
3.29883
3.29883
3.31205
3.31205
3.32241
3.32241
3.33135
3.33799
3.33799
3.34165
3.34165
3.34389
3.34389
3.34531
3.34531
3.34621
3.34621
3.34677
3.34677
3.3471
3.3471
3.34731
3.34731
3.34742
3.34742
3.34748
3.34748
3.34751
3.34751
3.34753
3.34753
3.34755
3.34755
3.34755
3.34755
3.34755
3.34755
3.34753
3.34753
3.34746
3.34746
3.34723
3.34723
3.3464
3.3464
3.34329
3.34329
3.33079
3.30232
3.30232
3.24443
3.24443
3.1167
3.1167
3.1167
3.1167
3.1167
)
;
    }
    F1_4
    {
        type            fixedValue;
        value           nonuniform List<scalar> 
80
(
2.11658
2.47605
2.47605
2.6182
2.6182
2.68541
2.68541
2.72067
2.72067
2.73814
2.73814
2.75608
2.75608
2.7732
2.7732
2.78957
2.78957
2.80501
2.80501
2.81911
2.81911
2.83142
2.83142
2.84165
2.84165
2.84975
2.84975
2.85599
2.85599
2.86114
2.86477
2.86477
2.8666
2.8666
2.86762
2.86762
2.86822
2.86822
2.86856
2.86856
2.86876
2.86876
2.86886
2.86886
2.86891
2.86891
2.86893
2.86893
2.86892
2.86892
2.86889
2.86889
2.86882
2.86882
2.86869
2.86869
2.86847
2.86847
2.86808
2.86808
2.86741
2.86741
2.86624
2.86624
2.86413
2.86413
2.86007
2.86007
2.85119
2.85119
2.82705
2.78269
2.78269
2.70906
2.70906
2.57025
2.57025
2.57025
2.57025
2.57025
)
;
    }
    F2_1
    {
        type            fixedValue;
        value           uniform 3.5;
    }
    F2_2
    {
        type            fixedValue;
        value           uniform 3.5;
    }
    F2_3
    {
        type            fixedValue;
        value           uniform 3.5;
    }
    F2_4
    {
        type            fixedValue;
        value           uniform 3.5;
    }
    defaultFaces
    {
        type            empty;
    }
}


// ************************************************************************* //
