/*--------------------------------*- C++ -*----------------------------------*\
| =========                 |                                                 |
| \\      /  F ield         | OpenFOAM: The Open Source CFD Toolbox           |
|  \\    /   O peration     | Version:  5.x                                   |
|   \\  /    A nd           | Web:      www.OpenFOAM.org                      |
|    \\/     M anipulation  |                                                 |
\*---------------------------------------------------------------------------*/
FoamFile
{
    version     2.0;
    format      ascii;
    class       volScalarField;
    location    "13";
    object      gradTx;
}
// * * * * * * * * * * * * * * * * * * * * * * * * * * * * * * * * * * * * * //

dimensions      [0 -1 0 1 0 0 0];

internalField   nonuniform List<scalar> 
2048
(
0.00630487
0.0187342
0.0306386
0.04172
0.0517496
0.0605782
0.0681351
0.0744184
0.0794776
0.0833957
0.0862723
0.0882119
0.0893164
0.0896826
0.0894029
0.0885665
0.0872602
0.0855676
0.0835664
0.0813252
0.0788998
0.0763307
0.0736429
0.0708465
0.0679392
0.064909
0.0617363
0.0583956
0.0548559
0.0510814
0.0470319
0.0426637
0.0379317
0.0327913
0.0272006
0.0211221
0.0145235
0.00737859
-0.000332224
-0.00862062
-0.0174881
-0.0269225
-0.0368924
-0.0473403
-0.0581748
-0.0692611
-0.080412
-0.0913804
-0.101855
-0.111463
-0.119781
-0.126359
-0.130753
-0.132569
-0.131511
-0.127416
-0.120277
-0.110247
-0.0976153
-0.0827648
-0.0661295
-0.0481501
-0.0292468
-0.00980736
0.0187882
0.0558176
0.0912564
0.124205
0.153979
0.180137
0.202479
0.221013
0.235901
0.247401
0.255819
0.261469
0.264654
0.26566
0.264759
0.262215
0.258284
0.253216
0.247243
0.240571
0.233368
0.225752
0.217798
0.209533
0.200948
0.192006
0.182648
0.172797
0.162363
0.151238
0.139302
0.126426
0.112474
0.0973122
0.0808158
0.0628727
0.0433872
0.022281
-0.000504488
-0.0250059
-0.0512308
-0.0791473
-0.108668
-0.139631
-0.171772
-0.204701
-0.23787
-0.270553
-0.301828
-0.330582
-0.355545
-0.375357
-0.388672
-0.394288
-0.391295
-0.379192
-0.357961
-0.328073
-0.290412
-0.246151
-0.196608
-0.143109
-0.0869048
-0.0291381
0.0311397
0.0924826
0.151106
0.205485
0.254473
0.297353
0.333828
0.363955
0.388046
0.406566
0.420045
0.429013
0.433971
0.435383
0.43369
0.429318
0.422689
0.414216
0.404291
0.393256
0.381391
0.368895
0.355883
0.342396
0.32841
0.31386
0.298644
0.282638
0.26569
0.247627
0.228249
0.207339
0.184671
0.160021
0.13318
0.103964
0.072214
0.0378018
0.000628405
-0.0393711
-0.0822184
-0.127875
-0.176215
-0.226994
-0.279805
-0.334035
-0.38881
-0.442955
-0.494961
-0.542984
-0.584894
-0.618381
-0.641133
-0.651073
-0.646608
-0.62686
-0.591799
-0.542252
-0.479768
-0.406388
-0.324372
-0.235961
-0.143223
-0.048009
0.0435993
0.129425
0.211274
0.28694
0.354796
0.413873
0.463824
0.50482
0.537389
0.562257
0.580209
0.592004
0.598336
0.599833
0.597086
0.590674
0.581179
0.569182
0.555237
0.539837
0.523378
0.506135
0.488259
0.469793
0.450689
0.430845
0.410114
0.388325
0.36527
0.340709
0.314365
0.285929
0.25508
0.221501
0.184897
0.14501
0.101621
0.0545532
0.00366615
-0.0511387
-0.109908
-0.172615
-0.23912
-0.30913
-0.382133
-0.457336
-0.533584
-0.609297
-0.682403
-0.750327
-0.810039
-0.8582
-0.891416
-0.90659
-0.901327
-0.874289
-0.825431
-0.756011
-0.668379
-0.565591
-0.450972
-0.327744
-0.198792
-0.0666104
0.0563826
0.167268
0.272721
0.369771
0.456286
0.531069
0.593799
0.644855
0.685073
0.715513
0.737262
0.751323
0.75857
0.759775
0.755655
0.746923
0.73432
0.718602
0.700503
0.680679
0.659651
0.637772
0.61522
0.592021
0.568089
0.543273
0.51738
0.49019
0.461447
0.430848
0.398036
0.362608
0.324137
0.282205
0.236428
0.186475
0.132069
0.0729869
0.00904857
-0.0598844
-0.133897
-0.212996
-0.297059
-0.385782
-0.478596
-0.574582
-0.672366
-0.770012
-0.864924
-0.953795
-1.03264
-1.09698
-1.14216
-1.16386
-1.15868
-1.1247
-1.06185
-0.971941
-0.858328
-0.725314
-0.577481
-0.419133
-0.253974
-0.0850556
0.0696945
0.206598
0.336342
0.455074
0.560122
0.65011
0.724843
0.785034
0.831955
0.867093
0.891894
0.907615
0.915292
0.915803
0.909956
0.898579
0.882566
0.862864
0.840414
0.816058
0.790458
0.764043
0.737003
0.709326
0.680867
0.651407
0.620704
0.588497
0.554491
0.518325
0.479562
0.437693
0.392175
0.342478
0.288121
0.228701
0.163889
0.0934227
0.0170838
-0.0653099
-0.153897
-0.248739
-0.349769
-0.456714
-0.569005
-0.685661
-0.805159
-0.925281
-1.04296
-1.15416
-1.2539
-1.33641
-1.39553
-1.42543
-1.42143
-1.38085
-1.30358
-1.19214
-1.05119
-0.886622
-0.704539
-0.510464
-0.308916
-0.103385
0.0837392
0.247996
0.403004
0.543883
0.667384
0.772014
0.857846
0.926101
0.978644
1.01751
1.04457
1.06133
1.06895
1.06837
1.06043
1.04605
1.02628
1.00227
0.975215
0.946174
0.915975
0.885122
0.853797
0.821917
0.789241
0.755471
0.720305
0.683457
0.644607
0.60335
0.559164
0.511422
0.459447
0.402578
0.340231
0.271931
0.197307
0.11607
0.0279694
-0.0672232
-0.169713
-0.279647
-0.397046
-0.521718
-0.653151
-0.790378
-0.931815
-1.07505
-1.21663
-1.35183
-1.47461
-1.57773
-1.65326
-1.69348
-1.69203
-1.64521
-1.55281
-1.41831
-1.24811
-1.05014
-0.832384
-0.601754
-0.363563
-0.121567
0.0987282
0.292058
0.473583
0.637213
0.779081
0.897678
0.993535
1.0686
1.12553
1.16707
1.19554
1.21273
1.21986
1.21782
1.20745
1.18969
1.16576
1.13706
1.10508
1.07116
1.03632
1.00114
0.965751
0.929967
0.893406
0.855657
0.816364
0.775232
0.731946
0.686073
0.637004
0.583974
0.526144
0.462699
0.39294
0.316327
0.232462
0.141045
0.0418081
-0.0655242
-0.181239
-0.305593
-0.438737
-0.580609
-0.730814
-0.888481
-1.05206
-1.21908
-1.38578
-1.54686
-1.69516
-1.82184
-1.91681
-1.96996
-1.97275
-1.92005
-1.81151
-1.65186
-1.44985
-1.21607
-0.960863
-0.692709
-0.417659
-0.139505
0.114887
0.339414
0.54899
0.736086
0.896185
1.02791
1.13248
1.21288
1.27281
1.31585
1.34491
1.36197
1.36822
1.36443
1.3513
1.32978
1.30124
1.2674
1.23012
1.19109
1.15155
1.11216
1.07299
1.03364
0.993542
0.952144
0.909035
0.863945
0.816609
0.766591
0.713191
0.655476
0.592405
0.522981
0.446375
0.361987
0.26942
0.168386
0.0586211
-0.0601931
-0.188439
-0.326517
-0.474746
-0.63324
-0.801782
-0.979676
-1.16553
-1.35694
-1.55003
-1.739
-1.91564
-2.06929
-2.18732
-2.25662
-2.26574
-2.20757
-2.08148
-1.89394
-1.65681
-1.38423
-1.08945
-0.782736
-0.470764
-0.157036
0.132463
0.390747
0.630191
0.841553
1.01964
1.16341
1.27514
1.35914
1.42047
1.46379
1.4926
1.50904
1.51415
1.50841
1.49225
1.46658
1.43294
1.39344
1.35041
1.30598
1.26168
1.21826
1.1756
1.13307
1.08982
1.0451
0.998454
0.949687
0.898654
0.844955
0.78779
0.726015
0.658338
0.583531
0.500619
0.408958
0.308183
0.198062
0.0783576
-0.0512813
-0.191349
-0.342422
-0.50503
-0.679505
-0.865863
-1.06366
-1.27179
-1.48809
-1.70877
-1.92773
-2.13579
-2.32032
-2.46572
-2.55508
-2.57313
-2.50998
-2.36451
-2.14548
-1.86905
-1.55402
-1.21724
-0.870952
-0.522256
-0.17394
0.151726
0.446802
0.718225
0.954713
1.1504
1.30485
1.4218
1.50738
1.56834
1.61063
1.63841
1.65388
1.65772
1.64994
1.63056
1.60034
1.56105
1.51528
1.46596
1.41579
1.36668
1.31942
1.27368
1.22843
1.18244
1.13471
1.08475
1.03252
0.978096
0.921174
0.86083
0.795651
0.724022
0.64443
0.555725
0.457245
0.348706
0.229984
0.100904
-0.0389032
-0.190062
-0.353366
-0.5296
-0.719353
-0.922911
-1.14016
-1.37039
-1.61188
-1.8612
-2.11223
-2.355
-2.57484
-2.75266
-2.86686
-2.89711
-2.82961
-2.66237
-2.40725
-2.08629
-1.72442
-1.34295
-0.956203
-0.571356
-0.189944
0.172981
0.508406
0.814225
1.07672
1.28938
1.45278
1.57267
1.65746
1.71605
1.75595
1.78201
1.79631
1.79895
1.7892
1.76649
1.73133
1.68574
1.63298
1.57674
1.52043
1.46646
1.41565
1.36731
1.31987
1.27159
1.22116
1.16803
1.11246
1.05491
0.995216
0.932311
0.864423
0.789527
0.705746
0.611726
0.506821
0.390901
0.264011
0.126091
-0.0232284
-0.184725
-0.35946
-0.548523
-0.75279
-0.972833
-1.20892
-1.46087
-1.72761
-2.00639
-2.29146
-2.57238
-2.83245
-3.04858
-3.1934
-3.23997
-3.16898
-2.97692
-2.67983
-2.30786
-1.89401
-1.46494
-1.03708
-0.617148
-0.204732
0.196567
0.576471
0.919424
1.20881
1.43751
1.60769
1.72779
1.80909
1.86309
1.89919
1.92296
1.93611
1.93782
1.92637
1.90033
1.8598
1.80721
1.74662
1.6827
1.61979
1.5609
1.5069
1.45656
1.40756
1.35752
1.30466
1.24842
1.18953
1.12903
1.06701
1.00221
0.932353
0.854913
0.767546
0.668644
0.557633
0.434642
0.299959
0.153702
-0.00447434
-0.175527
-0.360857
-0.561918
-0.779887
-1.01561
-1.26976
-1.54281
-1.83456
-2.14327
-2.46413
-2.7867
-3.09238
-3.3536
-3.53604
-3.6042
-3.53096
-3.31019
-2.96366
-2.53268
-2.06089
-1.58123
-1.11197
-0.658614
-0.21796
0.222862
0.652011
1.03517
1.35228
1.59572
1.76999
1.88711
1.9618
2.00876
2.03965
2.06076
2.07305
2.07435
2.06168
2.03241
1.98608
1.92562
1.85623
1.78373
1.71365
1.64984
1.59312
1.54153
1.49172
1.44048
1.38546
1.32605
1.26369
1.20033
1.13646
1.07047
0.999457
0.920246
0.829905
0.726494
0.609611
0.479775
0.337608
0.183475
0.0171
-0.162695
-0.357744
-0.569946
-0.800777
-1.05131
-1.32261
-1.61589
-1.93203
-2.27074
-2.62877
-2.99642
-3.35351
-3.66756
-3.89601
-3.99249
-3.91883
-3.66445
-3.25895
-2.75922
-2.22269
-1.6895
-1.17909
-0.694673
-0.229272
0.252295
0.73614
1.16293
1.50854
1.7649
1.93998
2.05042
2.11501
2.15222
2.1765
2.19481
2.20683
2.20852
2.19535
2.16313
2.11048
2.04116
1.96186
1.87972
1.8018
1.73304
1.67426
1.62233
1.57256
1.52079
1.46387
1.40104
1.33485
1.26864
1.20341
1.13705
1.06575
0.985598
0.892916
0.785299
0.662664
0.526122
0.376703
0.215112
0.0412003
-0.146481
-0.350333
-0.572807
-0.815659
-1.08008
-1.36745
-1.67985
-2.01941
-2.38763
-2.78373
-3.1997
-3.61435
-3.98993
-4.27437
-4.4078
-4.33646
-4.04231
-3.56569
-2.98538
-2.37655
-1.78713
-1.23655
-0.724238
-0.238316
0.285347
0.830082
1.30431
1.67906
1.94589
2.11781
2.21744
2.26798
2.29246
2.30878
2.32448
2.3372
2.34034
2.32769
2.29297
2.23339
2.154
2.06353
1.97052
1.88393
1.81025
1.75022
1.69909
1.65035
1.5988
1.54024
1.47355
1.40291
1.33373
1.26771
1.20188
1.13123
1.05106
0.956701
0.845081
0.716684
0.573487
0.416966
0.248277
0.0675019
-0.127152
-0.338843
-0.570724
-0.82479
-1.10216
-1.40442
-1.73459
-2.09619
-2.49282
-2.9272
-3.39441
-3.87301
-4.31976
-4.67188
-4.85337
-4.78852
-4.44679
-3.88353
-3.20838
-2.5191
-1.87131
-1.28246
-0.746268
-0.244768
0.322567
0.935164
1.46101
1.86546
2.1395
2.3035
2.38777
2.41991
2.42834
2.43541
2.44912
2.46395
2.46981
2.45902
2.42251
2.3552
2.26431
2.16131
2.05597
1.95967
1.88113
1.82093
1.77198
1.72533
1.67491
1.61504
1.54375
1.46768
1.3953
1.32915
1.26492
1.1959
1.11672
1.02143
0.905876
0.771541
0.621661
0.458099
0.282604
0.0956537
-0.104985
-0.32349
-0.563935
-0.828485
-1.11788
-1.43374
-1.78015
-2.16204
-2.58525
-3.0573
-3.57814
-4.12726
-4.65562
-5.08891
-5.33271
-5.28069
-4.88148
-4.21167
-3.42469
-2.64644
-1.93907
-1.31496
-0.759835
-0.248351
0.364594
1.05281
1.63486
2.06949
2.3464
2.49684
2.56096
2.56988
2.55854
2.55519
2.56809
2.58693
2.59692
2.58968
2.55247
2.47635
2.3722
2.25527
2.13589
2.02858
1.94528
1.88633
1.84122
1.79779
1.74956
1.68881
1.61182
1.52889
1.45294
1.38752
1.32616
1.25976
1.18269
1.08733
0.967725
0.827073
0.670433
0.499791
0.317695
0.12528
-0.0802561
-0.304472
-0.552678
-0.827105
-1.12769
-1.45574
-1.81669
-2.21683
-2.66398
-3.17207
-3.74825
-4.37449
-4.99559
-5.52518
-5.84959
-5.81999
-5.35067
-4.54863
-3.62981
-2.75419
-1.98739
-1.3324
-0.764179
-0.248856
0.412192
1.1845
1.82777
2.29313
2.56712
2.69734
2.73655
2.71696
2.68159
2.6668
2.68079
2.70613
2.72158
2.72005
2.68379
2.59727
2.47767
2.34556
2.21014
2.09014
2.00223
1.94637
1.90712
1.86795
1.82322
1.7623
1.67798
1.58616
1.50616
1.4426
1.38562
1.32276
1.24908
1.15474
1.03067
0.883066
0.719603
0.541731
0.353117
0.155983
-0.0532317
-0.281948
-0.537172
-0.821055
-1.13211
-1.47082
-1.84456
-2.26073
-2.72824
-3.2695
-3.90186
-4.61183
-5.33724
-5.97946
-6.40788
-6.41521
-5.85951
-4.89197
-3.81814
-2.83756
-2.01338
-1.3334
-0.758766
-0.246154
0.466321
1.33177
2.04167
2.53862
2.80195
2.90411
2.91419
2.86021
2.79587
2.76876
2.78668
2.82176
2.84359
2.85046
2.81768
2.71837
2.5806
2.43246
2.27858
2.14371
2.05138
2.00104
1.97014
1.93596
1.89633
1.83644
1.74248
1.63897
1.55432
1.4942
1.44346
1.38479
1.31598
1.22412
1.09476
0.939231
0.769005
0.583612
0.388398
0.187339
-0.0241656
-0.256027
-0.517607
-0.810777
-1.13176
-1.47945
-1.86418
-2.29422
-2.7775
-3.34761
-4.03593
-4.83624
-5.6777
-6.44924
-7.01138
-7.07751
-6.41419
-5.23786
-3.98282
-2.89141
-2.0144
-1.31692
-0.743336
-0.240212
0.528243
1.49612
2.2784
2.80871
3.05089
3.11576
3.09375
2.99876
2.89952
2.85945
2.88535
2.93433
2.96254
2.98116
2.95577
2.83999
2.6806
2.51642
2.34116
2.1885
2.09204
2.05038
2.03089
2.00182
1.9693
1.91249
1.80561
1.68662
1.59668
1.54211
1.49997
1.44564
1.38344
1.29613
1.16
0.995162
0.818541
0.625147
0.423019
0.218903
0.00670626
-0.226748
-0.494122
-0.796744
-1.12739
-1.48211
-1.8761
-2.31819
-2.81147
-3.40443
-4.14719
-5.04462
-6.01385
-6.93013
-7.66349
-7.82113
-7.02219
-5.58053
-4.11556
-2.9105
-1.98822
-1.28244
-0.717927
-0.231099
0.599711
1.67894
2.53963
3.10682
3.31346
3.33017
3.27555
3.13183
2.99046
2.93706
2.97652
3.04484
3.07761
3.11222
3.10032
2.96232
2.77689
2.59824
2.39788
2.22357
2.12334
2.0945
2.09032
2.06527
2.04243
1.99214
1.86765
1.72817
1.63228
1.58622
1.55571
1.50491
1.45143
1.37174
1.22635
1.05028
0.868229
0.666074
0.456402
0.250202
0.039166
-0.19406
-0.466791
-0.77945
-1.11987
-1.47921
-1.88085
-2.33404
-2.83018
-3.43806
-4.23221
-5.23395
-6.34261
-7.41528
-8.36669
-8.6645
-7.69246
-5.91144
-4.20656
-2.88965
-1.93325
-1.22993
-0.682887
-0.218979
0.683249
1.8814
2.82654
3.43748
3.58856
3.54423
3.46067
3.2588
3.0663
2.99953
3.06005
3.15503
3.18741
3.24344
3.25449
3.0853
2.86811
2.67923
2.44882
2.24773
2.14425
2.13357
2.14979
2.12568
2.11584
2.07768
1.92886
1.76239
1.66004
1.62643
1.61157
1.56194
1.51976
1.45235
1.29368
1.10374
0.918287
0.706162
0.487885
0.280744
0.0730106
-0.15781
-0.435608
-0.759403
-1.1103
-1.4711
-1.87887
-2.34376
-2.83394
-3.44666
-4.28725
-5.40148
-6.66155
-7.89454
-9.12178
-9.63155
-8.43571
-6.21825
-4.24452
-2.82412
-1.84869
-1.15996
-0.638867
-0.204109
0.782599
2.10427
3.13954
3.80685
3.87423
3.75345
3.65137
3.37912
3.12429
3.04455
3.13594
3.26763
3.28968
3.37412
3.42276
3.20844
2.95207
2.76147
2.49414
2.25956
2.15352
2.16782
2.21133
2.18179
2.18931
2.17227
1.98943
1.78769
1.67863
1.66272
1.66901
1.61561
1.58802
1.53999
1.36168
1.15434
0.969241
0.745211
0.516704
0.310017
0.108043
-0.117715
-0.400473
-0.7371
-1.1
-1.45791
-1.87038
-2.35014
-2.82336
-3.42854
-4.30826
-5.54483
-6.96967
-8.35351
-9.9268
-10.7535
-9.26458
-6.48345
-4.21684
-2.71001
-1.73468
-1.07366
-0.586791
-0.18682
0.903353
2.34766
3.47776
4.22349
4.1673
3.95155
3.85172
3.49234
3.16123
3.06951
3.20425
3.3869
3.38088
3.50286
3.61148
3.33064
3.0254
2.84823
2.53402
2.25728
2.14966
2.1975
2.2779
2.23153
2.26215
2.28024
2.04935
1.80208
1.68656
1.69508
1.73027
1.66422
1.65546
1.63758
1.42978
1.20037
1.02209
0.783026
0.541957
0.337511
0.144056
-0.0733498
-0.36118
-0.712995
-1.09068
-1.43952
-1.85514
-2.35693
-2.7993
-3.38218
-4.29061
-5.662
-7.26864
-8.77238
-10.7755
-12.0712
-10.1938
-6.68266
-4.11005
-2.5447
-1.59242
-0.97273
-0.527805
-0.167503
1.05386
2.6108
3.83836
4.69945
4.46297
4.12978
4.0684
3.59787
3.17341
3.07148
3.26494
3.51919
3.45572
3.62726
3.82959
3.44986
3.08313
2.94444
2.56853
2.23874
2.13094
2.22273
2.35383
2.27165
2.33302
2.40756
2.10821
1.8031
1.68215
1.72345
1.79863
1.70517
1.72084
1.74926
1.49699
1.23945
1.0785
0.819386
0.562565
0.362739
0.180808
-0.0241193
-0.317423
-0.687443
-1.08455
-1.41549
-1.83223
-2.36917
-2.76271
-3.30638
-4.22897
-5.7513
-7.5645
-9.12463
-11.6556
-13.6381
-11.2404
-6.78241
-3.91053
-2.32734
-1.42423
-0.859313
-0.463216
-0.146586
1.24649
2.89154
4.21558
5.25163
4.75426
4.27618
4.31178
3.69472
3.15654
3.04726
3.31761
3.67379
3.5065
3.74351
4.08962
3.5627
3.11818
3.05741
2.59745
2.20139
2.0954
2.24339
2.4453
2.29733
2.39961
2.56235
2.165
1.78779
1.66359
1.74759
1.87894
1.73469
1.78223
1.88088
1.56173
1.26829
1.14112
0.853956
0.577235
0.385279
0.217984
0.0307679
-0.268799
-0.660614
-1.08455
-1.38492
-1.7997
-2.39355
-2.71445
-3.20039
-4.117
-5.81097
-7.86978
-9.37565
-12.5456
-15.5238
-12.4233
-6.73757
-3.6058
-2.05935
-1.23349
-0.735931
-0.394426
-0.124509
1.49925
3.18596
4.59958
5.90364
5.03125
4.37464
4.59729
3.78095
3.10573
2.99339
3.36103
3.86395
3.52238
3.84584
4.40886
3.66395
3.12066
3.19771
2.61994
2.14222
2.04089
2.25879
2.56106
2.30166
2.4584
2.75565
2.21765
1.75269
1.62902
1.76685
1.97802
1.74742
1.83681
2.04052
1.62157
1.28242
1.21395
0.886175
0.584412
0.404838
0.255143
0.0923337
-0.214847
-0.632361
-1.09453
-1.34643
-1.75412
-2.43894
-2.65496
-3.06421
-3.94709
-5.83855
-8.20642
-9.48115
-13.4122
-17.8184
-13.7636
-6.4882
-3.18623
-1.74483
-1.02455
-0.605329
-0.322856
-0.101708
1.83793
3.48769
4.97489
6.68805
5.28017
4.40379
4.94712
3.85298
3.01552
2.90641
3.39256
4.10823
3.4884
3.92598
4.81083
3.74585
3.07716
3.38028
2.63404
2.05781
1.96516
2.26728
2.7133
2.27503
2.50422
3.00222
2.26259
1.69388
1.57663
1.77985
2.10545
1.73595
1.88055
2.23921
1.67289
1.27593
1.30277
0.915069
0.582245
0.421331
0.291643
0.161876
-0.155102
-0.602043
-1.11962
-1.29811
-1.69004
-2.517
-2.58378
-2.89898
-3.71003
-5.82969
-8.60915
-9.38564
-14.2058
-20.6382
-15.2833
-5.95597
-2.64745
-1.39075
-0.802486
-0.470329
-0.249883
-0.0785929
2.29878
3.78721
5.31851
7.64914
5.48227
4.33568
5.39235
3.9045
2.88003
2.78298
3.40719
4.43212
3.38441
3.97237
5.32704
3.79736
2.96986
3.62581
2.63602
1.9444
1.86607
2.26569
2.91867
2.20445
2.52984
3.32166
2.29398
1.60711
1.50487
1.78403
2.27431
1.69025
1.90792
2.49176
1.71052
1.24108
1.41574
0.938996
0.568554
0.434988
0.326548
0.241027
-0.0891896
-0.568276
-1.16654
-1.23747
-1.59935
-2.64305
-2.49893
-2.70745
-3.39487
-5.77661
-9.12969
-9.02092
-14.8557
-24.1316
-17.0051
-5.0401
-1.99352
-1.00697
-0.572822
-0.33368
-0.176777
-0.0555349
2.9317
4.07099
5.59769
8.84625
5.61246
4.13434
5.97543
3.92512
2.69312
2.62036
3.3964
4.86999
3.18385
3.96933
5.99898
3.80321
2.77553
3.96234
2.61948
1.79804
1.74176
2.24851
3.19961
2.0727
2.5255
3.73958
2.30289
1.48798
1.41269
1.77498
2.50224
1.59701
1.91146
2.81766
1.72723
1.16794
1.56405
0.955316
0.540822
0.446491
0.358505
0.331836
-0.0169632
-0.528619
-1.244
-1.16149
-1.47047
-2.83702
-2.39599
-2.4947
-2.98875
-5.6658
-9.84148
-8.30471
-15.2644
-28.4862
-18.9508
-3.61292
-1.24083
-0.605813
-0.341146
-0.197924
-0.104664
-0.0328559
3.804
4.32045
5.7673
10.3575
5.63769
3.75415
6.75299
3.89857
2.44885
2.41686
3.34666
5.46733
2.85234
3.89608
6.8804
3.74274
2.46449
4.42716
2.57417
1.61481
1.59108
2.20698
3.58575
1.85742
2.47829
4.28905
2.27621
1.33222
1.2998
1.74572
2.81251
1.43893
1.88141
3.24218
1.71319
1.04399
1.76269
0.959956
0.496212
0.457129
0.385591
0.436875
0.0613012
-0.479179
-1.36318
-1.0667
-1.28745
-3.12471
-2.26704
-2.2689
-2.47698
-5.47511
-10.8451
-7.13948
-15.3012
-33.937
-21.1394
-1.51516
-0.422854
-0.201267
-0.112737
-0.0652797
-0.0344906
-0.0108236
)
;

boundaryField
{
    left
    {
        type            calculated;
        value           uniform 0;
    }
    right
    {
        type            calculated;
        value           uniform 0;
    }
    interface
    {
        type            calculated;
        value           nonuniform List<scalar> 
64
(
3.804
4.32045
5.7673
10.3575
5.63769
3.75415
6.75299
3.89857
2.44885
2.41686
3.34666
5.46733
2.85234
3.89608
6.8804
3.74274
2.46449
4.42716
2.57417
1.61481
1.59108
2.20698
3.58575
1.85742
2.47829
4.28905
2.27621
1.33222
1.2998
1.74572
2.81251
1.43893
1.88141
3.24218
1.71319
1.04399
1.76269
0.959956
0.496212
0.457129
0.385591
0.436875
0.0613012
-0.479179
-1.36318
-1.0667
-1.28745
-3.12471
-2.26704
-2.2689
-2.47698
-5.47511
-10.8451
-7.13948
-15.3012
-33.937
-21.1394
-1.51516
-0.422854
-0.201267
-0.112737
-0.0652797
-0.0344906
-0.0108236
)
;
    }
    bottom
    {
        type            calculated;
        value           nonuniform List<scalar> 
64
(
0.00630487
0.0187342
0.0306386
0.04172
0.0517496
0.0605782
0.0681351
0.0744184
0.0794776
0.0833957
0.0862723
0.0882119
0.0893164
0.0896826
0.0894029
0.0885665
0.0872602
0.0855676
0.0835664
0.0813252
0.0788998
0.0763307
0.0736429
0.0708465
0.0679392
0.064909
0.0617363
0.0583956
0.0548559
0.0510814
0.0470319
0.0426637
0.0379317
0.0327913
0.0272006
0.0211221
0.0145235
0.00737859
-0.000332224
-0.00862062
-0.0174881
-0.0269225
-0.0368924
-0.0473403
-0.0581748
-0.0692611
-0.080412
-0.0913804
-0.101855
-0.111463
-0.119781
-0.126359
-0.130753
-0.132569
-0.131511
-0.127416
-0.120277
-0.110247
-0.0976153
-0.0827648
-0.0661295
-0.0481501
-0.0292468
-0.00980736
)
;
    }
    defaultFaces
    {
        type            empty;
    }
}


// ************************************************************************* //
