/*--------------------------------*- C++ -*----------------------------------*\
| =========                 |                                                 |
| \\      /  F ield         | OpenFOAM: The Open Source CFD Toolbox           |
|  \\    /   O peration     | Version:  5.x                                   |
|   \\  /    A nd           | Web:      www.OpenFOAM.org                      |
|    \\/     M anipulation  |                                                 |
\*---------------------------------------------------------------------------*/
FoamFile
{
    version     2.0;
    format      ascii;
    class       volScalarField;
    location    "13";
    object      gradTy;
}
// * * * * * * * * * * * * * * * * * * * * * * * * * * * * * * * * * * * * * //

dimensions      [0 -1 0 1 0 0 0];

internalField   nonuniform List<scalar> 
2048
(
-26.4237
-26.3961
-26.3417
-26.2621
-26.1593
-26.0358
-25.8946
-25.7383
-25.5698
-25.3915
-25.206
-25.0154
-24.8216
-24.6262
-24.4309
-24.2368
-24.0452
-23.8569
-23.6727
-23.4932
-23.3188
-23.1499
-22.9867
-22.8294
-22.6784
-22.5338
-22.3959
-22.2651
-22.1417
-22.0263
-21.9193
-21.8214
-21.7334
-21.656
-21.5903
-21.5373
-21.498
-21.4736
-21.4654
-21.4745
-21.5023
-21.5501
-21.6189
-21.7101
-21.8245
-21.9629
-22.1257
-22.3129
-22.5237
-22.7567
-23.0097
-23.2793
-23.5613
-23.8504
-24.1406
-24.4253
-24.6976
-24.9511
-25.1796
-25.3778
-25.5412
-25.6666
-25.7515
-25.7944
-26.446
-26.4178
-26.3621
-26.2808
-26.1759
-26.0503
-25.9067
-25.7482
-25.5776
-25.3974
-25.2102
-25.018
-24.8228
-24.6262
-24.4298
-24.2349
-24.0425
-23.8536
-23.6689
-23.4891
-23.3144
-23.1452
-22.9818
-22.8244
-22.6732
-22.5284
-22.3902
-22.2591
-22.1353
-22.0194
-21.9119
-21.8134
-21.7247
-21.6466
-21.5801
-21.5261
-21.4859
-21.4605
-21.4513
-21.4594
-21.4862
-21.533
-21.6009
-21.6913
-21.8051
-21.9432
-22.106
-22.2937
-22.5057
-22.7406
-22.9962
-23.2693
-23.5556
-23.8496
-24.1451
-24.4352
-24.7129
-24.9713
-25.2041
-25.4058
-25.572
-25.6994
-25.7856
-25.829
-26.4887
-26.4592
-26.4012
-26.3165
-26.2076
-26.0777
-25.9297
-25.7669
-25.5922
-25.4084
-25.2179
-25.0228
-24.825
-24.6261
-24.4277
-24.2311
-24.0373
-23.8472
-23.6617
-23.4811
-23.306
-23.1364
-22.9727
-22.815
-22.6633
-22.5181
-22.3795
-22.2477
-22.1233
-22.0065
-21.898
-21.7984
-21.7084
-21.6289
-21.5608
-21.5051
-21.4631
-21.4359
-21.4247
-21.4308
-21.4557
-21.5005
-21.5667
-21.6555
-21.7682
-21.9056
-22.0684
-22.2571
-22.4711
-22.7095
-22.9701
-23.2498
-23.5442
-23.8476
-24.1534
-24.4541
-24.7422
-25.01
-25.2511
-25.4595
-25.6309
-25.762
-25.8504
-25.895
-26.5499
-26.5185
-26.4569
-26.3673
-26.2526
-26.1163
-25.9619
-25.793
-25.6126
-25.4236
-25.2285
-25.0292
-24.8278
-24.6257
-24.4245
-24.2254
-24.0297
-23.8381
-23.6513
-23.4699
-23.294
-23.124
-22.9598
-22.8016
-22.6495
-22.5037
-22.3644
-22.2318
-22.1064
-21.9885
-21.8786
-21.7774
-21.6856
-21.604
-21.5336
-21.4756
-21.431
-21.4011
-21.3872
-21.3906
-21.4126
-21.4548
-21.5184
-21.6049
-21.7157
-21.8519
-22.0147
-22.2044
-22.4212
-22.6643
-22.932
-23.2211
-23.5271
-23.8442
-24.1649
-24.481
-24.7841
-25.0657
-25.3185
-25.5365
-25.7151
-25.8512
-25.9429
-25.9889
-26.6284
-26.5944
-26.528
-26.4317
-26.3092
-26.1646
-26.002
-25.8251
-25.6376
-25.4421
-25.2412
-25.0368
-24.8308
-24.6248
-24.42
-24.218
-24.0198
-23.8262
-23.638
-23.4555
-23.2789
-23.1083
-22.9437
-22.785
-22.6323
-22.4858
-22.3456
-22.2121
-22.0854
-21.9661
-21.8545
-21.7513
-21.6572
-21.5731
-21.4999
-21.4388
-21.391
-21.3578
-21.3404
-21.3403
-21.3588
-21.3974
-21.4576
-21.5411
-21.6494
-21.784
-21.9461
-22.137
-22.3569
-22.6057
-22.882
-23.1829
-23.5039
-23.8385
-24.1787
-24.5151
-24.8376
-25.137
-25.4049
-25.6349
-25.8225
-25.9647
-26.0601
-26.1079
-26.723
-26.6857
-26.6131
-26.5085
-26.3762
-26.2213
-26.0485
-25.8621
-25.666
-25.4629
-25.2553
-25.0451
-24.8338
-24.6231
-24.4143
-24.2087
-24.0076
-23.8118
-23.622
-23.4384
-23.2611
-23.09
-22.9249
-22.7657
-22.6124
-22.465
-22.3239
-22.1892
-22.0612
-21.9402
-21.8267
-21.7211
-21.6243
-21.5371
-21.4606
-21.396
-21.3444
-21.3072
-21.2857
-21.2814
-21.2956
-21.33
-21.3861
-21.4658
-21.5708
-21.703
-21.8641
-22.0556
-22.2787
-22.5338
-22.8199
-23.1348
-23.4738
-23.83
-24.1942
-24.5555
-24.9023
-25.2234
-25.5095
-25.7536
-25.9513
-26.1003
-26.1997
-26.2493
-26.8331
-26.7918
-26.7115
-26.5965
-26.4523
-26.2849
-26.1001
-25.9028
-25.6968
-25.4852
-25.2702
-25.0535
-24.8364
-24.6204
-24.407
-24.1975
-23.9931
-23.7949
-23.6033
-23.4186
-23.2407
-23.0692
-22.9037
-22.744
-22.5901
-22.4419
-22.2997
-22.1638
-22.0343
-21.9115
-21.7958
-21.6876
-21.5878
-21.4971
-21.4168
-21.3481
-21.2922
-21.2505
-21.2244
-21.2152
-21.2246
-21.254
-21.3052
-21.3803
-21.4812
-21.6102
-21.7695
-21.9611
-22.1871
-22.4485
-22.7455
-23.0761
-23.4359
-23.8176
-24.2106
-24.6019
-24.9777
-25.3246
-25.6317
-25.8917
-26.1003
-26.2562
-26.3595
-26.4108
-26.9584
-26.912
-26.8223
-26.6947
-26.5363
-26.3543
-26.1556
-25.9458
-25.729
-25.5083
-25.2854
-25.0617
-24.8383
-24.6167
-24.3981
-24.1842
-23.9763
-23.7755
-23.5822
-23.3965
-23.2181
-23.0464
-22.8806
-22.7205
-22.5659
-22.4169
-22.2736
-22.1363
-22.0053
-21.8806
-21.7626
-21.6516
-21.5484
-21.4539
-21.3693
-21.296
-21.2353
-21.1887
-21.1574
-21.143
-21.1469
-21.1707
-21.2164
-21.2861
-21.3821
-21.5069
-21.6633
-21.8542
-22.0823
-22.3499
-22.658
-23.0058
-23.3892
-23.8003
-24.227
-24.6539
-25.0637
-25.4405
-25.7713
-26.0484
-26.2683
-26.4307
-26.5374
-26.5901
-27.0986
-27.0461
-26.945
-26.8024
-26.627
-26.428
-26.2135
-25.9899
-25.7616
-25.5313
-25.3002
-25.0693
-24.8395
-24.6117
-24.3877
-24.1689
-23.9572
-23.7535
-23.5586
-23.3722
-23.1936
-23.0219
-22.8561
-22.6957
-22.5404
-22.3903
-22.2459
-22.1073
-21.9747
-21.8481
-21.7277
-21.6137
-21.5068
-21.4081
-21.3189
-21.2406
-21.1748
-21.1228
-21.086
-21.0658
-21.0637
-21.0814
-21.1208
-21.1843
-21.2744
-21.3941
-21.5466
-21.7356
-21.9647
-22.2377
-22.5569
-22.9229
-23.3323
-23.7768
-24.2427
-24.711
-25.1606
-25.5715
-25.9286
-26.2236
-26.4542
-26.6223
-26.7314
-26.7849
-27.2539
-27.194
-27.0791
-26.9185
-26.7233
-26.5048
-26.2727
-26.0341
-25.7937
-25.5535
-25.3143
-25.0763
-24.8397
-24.6055
-24.3755
-24.1515
-23.9355
-23.7291
-23.5326
-23.3457
-23.1673
-22.996
-22.8305
-22.6698
-22.5138
-22.3627
-22.217
-22.0771
-21.943
-21.8146
-21.6917
-21.5745
-21.4637
-21.3605
-21.2662
-21.1826
-21.1113
-21.0536
-21.011
-20.9847
-20.9762
-20.9872
-21.0197
-21.0762
-21.1595
-21.273
-21.4203
-21.6058
-21.8346
-22.1117
-22.4414
-22.8261
-23.2637
-23.7459
-24.2567
-24.7733
-25.2689
-25.7185
-26.1041
-26.4171
-26.6573
-26.8293
-26.9393
-26.9928
-27.4246
-27.3556
-27.2243
-27.0423
-26.824
-26.5833
-26.3316
-26.0771
-25.8242
-25.5744
-25.3274
-25.0823
-24.839
-24.5981
-24.3615
-24.1318
-23.9114
-23.702
-23.5042
-23.3173
-23.1396
-22.9692
-22.8041
-22.6433
-22.4866
-22.3343
-22.1873
-22.0461
-21.9106
-21.7804
-21.6551
-21.5347
-21.4198
-21.3116
-21.2119
-21.1226
-21.0454
-20.9819
-20.9332
-20.9006
-20.8854
-20.8892
-20.9142
-20.9629
-21.0385
-21.1446
-21.2853
-21.4658
-21.6923
-21.9717
-22.3107
-22.7141
-23.1818
-23.7057
-24.2679
-24.8405
-25.3894
-25.8826
-26.2986
-26.6291
-26.8768
-27.0502
-27.1591
-27.2115
-27.6111
-27.5312
-27.3802
-27.1731
-26.9279
-26.6621
-26.389
-26.1177
-25.8524
-25.5935
-25.3393
-25.0876
-24.8375
-24.5895
-24.3459
-24.1098
-23.8846
-23.6722
-23.4733
-23.2869
-23.1107
-22.9417
-22.7775
-22.6167
-22.4591
-22.3054
-22.1569
-22.0144
-21.8778
-21.7461
-21.6185
-21.4948
-21.3754
-21.262
-21.1565
-21.0611
-20.9779
-20.9082
-20.8534
-20.8142
-20.792
-20.7882
-20.8051
-20.8455
-20.9125
-21.0101
-21.1427
-21.3164
-21.5384
-21.8177
-22.164
-22.5853
-23.0845
-23.6544
-24.2752
-24.9128
-25.5234
-26.0657
-26.5134
-26.8597
-27.1117
-27.2833
-27.3885
-27.4383
-27.814
-27.7212
-27.5466
-27.3098
-27.0337
-26.7397
-26.4434
-26.1547
-25.8774
-25.6104
-25.3499
-25.0921
-24.8353
-24.58
-24.3286
-24.0855
-23.8549
-23.6395
-23.4399
-23.2548
-23.0808
-22.914
-22.7509
-22.5901
-22.4315
-22.2762
-22.126
-21.9824
-21.8449
-21.7121
-21.5823
-21.4552
-21.3312
-21.2121
-21.1003
-20.9986
-20.9091
-20.8332
-20.7721
-20.7264
-20.697
-20.6853
-20.6936
-20.7249
-20.7826
-20.8706
-20.9937
-21.1585
-21.3735
-21.6498
-22.0005
-22.4382
-22.9696
-23.5898
-24.277
-24.9903
-25.6727
-26.2698
-26.7502
-27.1093
-27.3612
-27.5266
-27.625
-27.6706
-28.0343
-27.9258
-27.7234
-27.4517
-27.1399
-26.8145
-26.4934
-26.1869
-25.8984
-25.6247
-25.3592
-25.0961
-24.8328
-24.5698
-24.3098
-24.0587
-23.8223
-23.6038
-23.4039
-23.2209
-23.0502
-22.8863
-22.7249
-22.5641
-22.4042
-22.2467
-22.0946
-21.95
-21.8121
-21.6786
-21.547
-21.4164
-21.2876
-21.1623
-21.0437
-20.9353
-20.8394
-20.7574
-20.6901
-20.6379
-20.6011
-20.5812
-20.5805
-20.6022
-20.6498
-20.7272
-20.8394
-20.9934
-21.1985
-21.4681
-21.8196
-22.2711
-22.8348
-23.509
-24.2715
-25.0731
-25.8394
-26.4979
-27.0107
-27.3783
-27.6243
-27.7783
-27.8662
-27.9057
-28.273
-28.1457
-27.9103
-27.5977
-27.2451
-26.885
-26.5374
-26.213
-25.9147
-25.6362
-25.3675
-25.1
-24.8304
-24.5592
-24.2895
-24.0293
-23.7866
-23.5649
-23.3651
-23.1852
-23.0191
-22.8593
-22.6999
-22.539
-22.3774
-22.2171
-22.0627
-21.9173
-21.7797
-21.6461
-21.5128
-21.3789
-21.2449
-21.1128
-20.987
-20.8716
-20.7692
-20.681
-20.6077
-20.5491
-20.5051
-20.4767
-20.4665
-20.4781
-20.5151
-20.5812
-20.6811
-20.8222
-21.0145
-21.2733
-21.6209
-22.0823
-22.6774
-23.4091
-24.2562
-25.1613
-26.0265
-26.7536
-27.2973
-27.667
-27.8996
-28.0361
-28.1093
-28.1407
-28.5312
-28.3815
-28.1074
-27.7468
-27.3475
-26.9495
-26.574
-26.2319
-25.9256
-25.6449
-25.3752
-25.1042
-24.8285
-24.5486
-24.2678
-23.997
-23.7474
-23.5225
-23.3234
-23.1479
-22.9879
-22.8333
-22.6762
-22.5152
-22.3514
-22.1875
-22.03
-21.8841
-21.7477
-21.6149
-21.4804
-21.343
-21.2036
-21.0641
-20.9302
-20.8076
-20.6986
-20.6044
-20.5255
-20.4608
-20.4096
-20.3724
-20.3523
-20.3533
-20.3793
-20.4334
-20.52
-20.6463
-20.8228
-21.066
-21.404
-21.8704
-22.4946
-23.2864
-24.2279
-25.2551
-26.238
-27.0413
-27.6124
-27.9753
-28.1857
-28.2977
-28.3518
-28.373
-28.8104
-28.6339
-28.3144
-27.8978
-27.4452
-27.0064
-26.6018
-26.2423
-25.9304
-25.6508
-25.3828
-25.1093
-24.8275
-24.5387
-24.2449
-23.9616
-23.7046
-23.4764
-23.2783
-23.1089
-22.9569
-22.8089
-22.6545
-22.493
-22.3267
-22.1578
-21.9963
-21.8504
-21.7163
-21.5854
-21.45
-21.3091
-21.1641
-21.0163
-20.8735
-20.7435
-20.628
-20.5279
-20.4438
-20.3735
-20.3152
-20.269
-20.2386
-20.2287
-20.2434
-20.2852
-20.3572
-20.4673
-20.625
-20.8473
-21.1688
-21.6336
-22.2838
-23.1369
-24.1825
-25.3544
-26.4789
-27.3664
-27.9586
-28.3032
-28.4805
-28.5604
-28.5908
-28.5997
-29.1122
-28.9034
-28.5315
-28.0494
-27.5358
-27.0542
-26.6195
-26.2428
-25.9288
-25.6542
-25.3911
-25.1157
-24.828
-24.5303
-24.2209
-23.9225
-23.6579
-23.4264
-23.2296
-23.0682
-22.9265
-22.7869
-22.635
-22.4727
-22.3035
-22.1278
-21.961
-21.8158
-21.6856
-21.5582
-21.4219
-21.2775
-21.1269
-20.9697
-20.8168
-20.6794
-20.5574
-20.4515
-20.3629
-20.2875
-20.2225
-20.167
-20.1257
-20.1046
-20.1082
-20.1374
-20.194
-20.2867
-20.423
-20.6185
-20.9156
-21.3706
-22.0421
-22.956
-24.1143
-25.4587
-26.7559
-27.7355
-28.3384
-28.6497
-28.7817
-28.8214
-28.8237
-28.8184
-29.4384
-29.1906
-28.7591
-28.2001
-27.6169
-27.0913
-26.626
-26.2321
-25.9201
-25.6553
-25.4012
-25.1241
-24.8303
-24.5242
-24.196
-23.8791
-23.6074
-23.3723
-23.1766
-23.0256
-22.897
-22.768
-22.6183
-22.4546
-22.2824
-22.0977
-21.9233
-21.78
-21.6558
-21.5337
-21.3965
-21.2484
-21.0925
-20.9242
-20.7597
-20.6152
-20.4869
-20.3754
-20.2831
-20.2035
-20.1321
-20.067
-20.0141
-19.9814
-19.9742
-19.9911
-20.0315
-20.1061
-20.2191
-20.3814
-20.645
-21.08
-21.7674
-22.739
-24.0157
-25.5671
-27.0778
-28.1562
-28.7543
-29.0135
-29.0864
-29.0778
-29.0478
-29.0266
-29.7912
-29.4956
-28.9977
-28.3482
-27.685
-27.1169
-26.6205
-26.2083
-25.904
-25.6547
-25.4146
-25.1348
-24.8344
-24.5221
-24.1703
-23.8301
-23.5529
-23.3142
-23.1186
-22.9813
-22.8689
-22.7533
-22.6047
-22.4386
-22.2643
-22.0671
-21.8822
-21.7426
-21.627
-21.5127
-21.3741
-21.2219
-21.0616
-20.8801
-20.7019
-20.5511
-20.4168
-20.2995
-20.2047
-20.1218
-20.0446
-19.9692
-19.904
-19.8595
-19.842
-19.8472
-19.8704
-19.927
-20.016
-20.1379
-20.3579
-20.7605
-21.4578
-22.4812
-23.8763
-25.6774
-27.4567
-28.6376
-29.2078
-29.3922
-29.3913
-29.3267
-29.2607
-29.2223
-30.1732
-29.8178
-29.2487
-28.4919
-27.7358
-27.1307
-26.6024
-26.1694
-25.8803
-25.6526
-25.4334
-25.1482
-24.8402
-24.526
-24.144
-23.7739
-23.4951
-23.252
-23.0543
-22.9351
-22.8425
-22.7442
-22.5942
-22.4247
-22.2504
-22.036
-21.8361
-21.7032
-21.5992
-21.4963
-21.3547
-21.1978
-21.0353
-20.8375
-20.6425
-20.4874
-20.3472
-20.2235
-20.1279
-20.0427
-19.9607
-19.8742
-19.7957
-19.7388
-19.7122
-19.707
-19.7112
-19.7509
-19.8166
-19.8901
-20.0558
-20.4106
-21.1125
-22.1786
-23.6821
-25.7864
-27.909
-29.1899
-29.6998
-29.7825
-29.6927
-29.5649
-29.4602
-29.4036
-30.5874
-30.1555
-29.5146
-28.6294
-27.7637
-27.1331
-26.572
-26.1124
-25.8492
-25.6495
-25.4605
-25.1641
-24.8467
-24.539
-24.1172
-23.7075
-23.4348
-23.1863
-22.9821
-22.8872
-22.818
-22.7426
-22.5869
-22.4119
-22.2426
-22.0043
-21.7828
-21.6616
-21.5726
-21.4859
-21.3383
-21.1755
-21.015
-20.7963
-20.5801
-20.4244
-20.2783
-20.147
-20.053
-19.9667
-19.881
-19.7822
-19.6891
-19.6192
-19.585
-19.5715
-19.5541
-19.5788
-19.6248
-19.6404
-19.7407
-20.0281
-20.7319
-21.8289
-23.4139
-25.8882
-28.457
-29.8242
-30.2292
-30.1796
-29.9862
-29.7897
-29.6444
-29.5692
-31.0379
-30.505
-29.7995
-28.7584
-27.7609
-27.1267
-26.5301
-26.0332
-25.8113
-25.6452
-25.4998
-25.182
-24.8517
-24.5656
-24.09
-23.6269
-23.3741
-23.1178
-22.8993
-22.8382
-22.7954
-22.7512
-22.5824
-22.3991
-22.2438
-21.9719
-21.7193
-21.6178
-21.5468
-21.4836
-21.3245
-21.1539
-21.0028
-20.7566
-20.513
-20.363
-20.2105
-20.0691
-19.9804
-19.8939
-19.8065
-19.6935
-19.5842
-19.5003
-19.4608
-19.4425
-19.3985
-19.4116
-19.4452
-19.3908
-19.4157
-19.6098
-20.3184
-21.4329
-23.0459
-25.9738
-29.132
-30.552
-30.793
-30.5776
-30.2674
-29.9981
-29.8118
-29.7181
-31.5301
-30.8592
-30.1106
-28.8768
-27.7166
-27.116
-26.4785
-25.9259
-25.7686
-25.6387
-25.5572
-25.2006
-24.8515
-24.6129
-24.0625
-23.5257
-23.3164
-23.048
-22.802
-22.7892
-22.774
-22.7737
-22.5798
-22.3837
-22.2583
-21.9387
-21.6413
-21.5723
-21.5213
-21.4924
-21.3128
-21.1311
-21.002
-20.7184
-20.438
-20.3044
-20.1444
-19.9886
-19.9107
-19.8244
-19.7381
-19.6082
-19.4809
-19.3815
-19.3397
-19.3219
-19.2433
-19.2493
-19.2833
-19.143
-19.0853
-19.1506
-19.8759
-20.9965
-22.5432
-26.0295
-29.977
-31.3838
-31.385
-30.9694
-30.5317
-30.188
-29.9612
-29.8497
-32.0714
-31.2065
-30.4589
-28.9822
-27.6156
-27.1095
-26.4201
-25.7819
-25.7249
-25.6274
-25.6408
-25.2176
-24.8398
-24.6907
-24.0349
-23.3946
-23.2672
-22.9788
-22.6846
-22.7426
-22.752
-22.8155
-22.5777
-22.3616
-22.2925
-21.9046
-21.5428
-21.5269
-21.4947
-21.5166
-21.3018
-21.1038
-21.0175
-20.6815
-20.3509
-20.2512
-20.0807
-19.9034
-19.8449
-19.7579
-19.6773
-19.5264
-19.3793
-19.2619
-19.2212
-19.213
-19.0859
-19.0911
-19.1468
-18.8973
-18.7562
-18.642
-19.4109
-20.5338
-21.8589
-26.0347
-31.0516
-32.3274
-31.9954
-31.3465
-30.7745
-30.3572
-30.0919
-29.9638
-32.6723
-31.5278
-30.862
-29.0725
-27.4366
-27.1205
-26.3592
-25.5883
-25.6867
-25.6061
-25.7627
-25.2296
-24.8068
-24.8136
-24.007
-23.2201
-23.2356
-22.9132
-22.5386
-22.7026
-22.7258
-22.8844
-22.5736
-22.3264
-22.3558
-21.8695
-21.4154
-21.485
-21.4641
-21.5625
-21.2898
-21.0671
-21.0563
-20.6457
-20.2455
-20.207
-20.0204
-19.8106
-19.7846
-19.6937
-19.6259
-19.4478
-19.2792
-19.1402
-19.1049
-19.1202
-18.9228
-18.9351
-19.0455
-18.652
-18.4386
-18.0708
-18.9319
-20.071
-20.9309
-25.9592
-32.4382
-33.385
-32.6101
-31.7
-30.992
-30.5045
-30.2036
-30.0605
-33.3475
-31.7937
-31.3459
-29.1454
-27.1496
-27.1699
-26.3017
-25.327
-25.6657
-25.5651
-25.9396
-25.2316
-24.7377
-25.0024
-23.9785
-22.983
-23.2348
-22.855
-22.3517
-22.6767
-22.6891
-22.9914
-22.5641
-22.2687
-22.4614
-21.8332
-21.2477
-21.4528
-21.4246
-21.6389
-21.274
-21.0135
-21.1283
-20.6106
-20.1131
-20.1777
-19.9648
-19.7058
-19.7326
-19.6303
-19.5864
-19.3718
-19.1809
-19.0146
-18.9892
-19.0501
-18.7484
-18.7774
-18.9927
-18.4017
-18.148
-17.4167
-18.449
-19.6519
-19.6777
-25.7602
-34.2495
-34.5487
-33.2103
-32.0204
-31.1805
-30.6288
-30.2966
-30.1404
-34.1181
-31.9598
-31.9491
-29.1986
-26.7136
-27.288
-26.2551
-24.9718
-25.6806
-25.4879
-26.1956
-25.2163
-24.611
-25.2862
-23.9491
-22.6562
-23.2845
-22.8091
-22.1066
-22.6767
-22.6309
-23.1522
-22.5446
-22.1744
-22.6282
-21.795
-21.0239
-21.4407
-21.3675
-21.7584
-21.2506
-20.9322
-21.248
-20.5754
-19.9414
-20.1718
-19.9153
-19.5826
-19.6932
-19.5651
-19.5624
-19.2972
-19.0848
-18.8832
-18.8716
-19.012
-18.5551
-18.6116
-19.0068
-18.1354
-17.9081
-16.6496
-17.9732
-19.3444
-17.9932
-25.3771
-36.6387
-35.7943
-33.7728
-32.2988
-31.3376
-30.73
-30.3712
-30.2042
-35.0134
-31.9619
-32.7266
-29.23
-26.0723
-27.5184
-26.2288
-24.4861
-25.7606
-25.3485
-26.564
-25.1744
-24.3961
-25.7051
-23.9177
-22.2029
-23.4128
-22.782
-21.7791
-22.7218
-22.534
-23.3888
-22.5086
-22.024
-22.882
-21.754
-20.7229
-21.4648
-21.279
-21.9387
-21.2144
-20.8081
-21.4348
-20.539
-19.7138
-20.2019
-19.8735
-19.4323
-19.673
-19.4936
-19.5586
-19.2221
-18.9922
-18.7436
-18.7481
-19.0194
-18.3326
-18.4284
-19.1131
-17.8338
-17.7538
-15.7267
-17.5145
-19.2485
-15.7411
-24.7268
-39.8117
-37.0738
-34.271
-32.5273
-31.4618
-30.8084
-30.4284
-30.2528
-36.0746
-31.7087
-33.7558
-29.2372
-25.1503
-27.9219
-26.2339
-23.8194
-25.9497
-25.1063
-27.091
-25.0933
-24.0509
-26.3133
-23.8828
-21.5734
-23.6587
-22.7809
-21.3354
-22.8405
-22.3716
-23.7313
-22.4477
-21.7903
-23.2579
-21.7083
-20.3162
-21.55
-21.1381
-22.2039
-21.1587
-20.6204
-21.7155
-20.4995
-19.4082
-20.2852
-19.8412
-19.2428
-19.6817
-19.4089
-19.5819
-19.1432
-18.9048
-18.5931
-18.6122
-19.0906
-18.0674
-18.2138
-19.3464
-17.4652
-17.7364
-14.5882
-17.0794
-19.5069
-12.7486
-23.6962
-44.0417
-38.304
-34.6765
-32.7002
-31.5528
-30.865
-30.4693
-30.2874
-37.3573
-31.074
-35.1425
-29.2175
-23.8478
-28.5808
-26.2834
-22.903
-26.3124
-24.7019
-27.8391
-24.9573
-23.5182
-27.1826
-23.8421
-20.7019
-24.0755
-22.8148
-20.7303
-23.0748
-22.1047
-24.2211
-22.3512
-21.4365
-23.8024
-21.655
-19.7663
-21.7322
-20.9131
-22.5871
-21.0744
-20.3408
-22.1258
-20.4542
-18.9952
-20.4459
-19.8197
-18.9981
-19.7336
-19.3006
-19.6416
-19.0554
-18.8257
-18.4289
-18.4541
-19.2507
-17.7421
-17.9483
-19.7543
-16.9813
-17.9289
-13.1535
-16.6673
-20.3159
-8.79964
-22.1346
-49.6875
-39.3537
-34.963
-32.8144
-31.6113
-30.901
-30.4952
-30.3093
-38.9366
-29.8873
-37.0289
-29.1673
-22.0354
-29.6048
-26.3914
-21.6459
-26.9401
-24.0493
-28.8919
-24.7462
-22.7228
-28.4069
-23.7919
-19.5029
-24.7336
-22.8933
-19.903
-23.4841
-21.6764
-24.9127
-22.2051
-20.9144
-24.5763
-21.5894
-19.0237
-22.0618
-20.558
-23.1317
-20.9497
-19.9321
-22.7119
-20.3988
-18.4369
-20.7158
-19.8102
-18.6767
-19.8488
-19.1538
-19.7508
-18.9516
-18.7592
-18.248
-18.2598
-19.5331
-17.3347
-17.6048
-20.401
-16.3104
-18.4332
-11.3163
-16.2661
-21.9385
-3.62745
-19.8438
-57.2128
-40.0273
-35.1108
-32.8702
-31.6395
-30.9181
-30.5075
-30.3197
)
;

boundaryField
{
    left
    {
        type            calculated;
        value           nonuniform List<scalar> 
32
(
-26.4237
-26.446
-26.4887
-26.5499
-26.6284
-26.723
-26.8331
-26.9584
-27.0986
-27.2539
-27.4246
-27.6111
-27.814
-28.0343
-28.273
-28.5312
-28.8104
-29.1122
-29.4384
-29.7912
-30.1732
-30.5874
-31.0379
-31.5301
-32.0714
-32.6723
-33.3475
-34.1181
-35.0134
-36.0746
-37.3573
-38.9366
)
;
    }
    right
    {
        type            calculated;
        value           nonuniform List<scalar> 
32
(
-25.7944
-25.829
-25.895
-25.9889
-26.1079
-26.2493
-26.4108
-26.5901
-26.7849
-26.9928
-27.2115
-27.4383
-27.6706
-27.9057
-28.1407
-28.373
-28.5997
-28.8184
-29.0266
-29.2223
-29.4036
-29.5692
-29.7181
-29.8497
-29.9638
-30.0605
-30.1404
-30.2042
-30.2528
-30.2874
-30.3093
-30.3197
)
;
    }
    interface
    {
        type            calculated;
        value           nonuniform List<scalar> 
64
(
-39.8112
-29.1315
-38.1173
-29.1342
-20.9835
-30.2236
-26.4619
-20.9191
-27.3335
-23.6485
-29.5064
-24.6191
-22.2486
-29.121
-23.7639
-18.8094
-25.1329
-22.945
-19.4251
-23.7411
-21.4136
-25.3167
-22.1178
-20.6043
-25.0292
-21.5528
-18.5972
-22.2707
-20.3411
-23.4506
-20.8756
-19.6901
-23.0554
-20.368
-18.1161
-20.8827
-19.8085
-18.4939
-19.925
-19.0686
-19.8197
-18.8946
-18.7299
-18.153
-18.1515
-19.7095
-17.1075
-17.4096
-20.7933
-15.9176
-18.7781
-10.2821
-16.0657
-22.9907
-0.698814
-18.4881
-61.5106
-40.2411
-35.1482
-32.8838
-31.6463
-30.9223
-30.5105
-30.3222
)
;
    }
    bottom
    {
        type            calculated;
        value           nonuniform List<scalar> 
64
(
-26.4179
-26.3904
-26.3364
-26.2572
-26.1549
-26.0321
-25.8914
-25.7357
-25.5677
-25.39
-25.205
-25.0147
-24.8212
-24.6262
-24.4312
-24.2373
-24.0459
-23.8578
-23.6737
-23.4943
-23.32
-23.1511
-22.9879
-22.8308
-22.6798
-22.5352
-22.3974
-22.2667
-22.1434
-22.0281
-21.9212
-21.8235
-21.7357
-21.6585
-21.593
-21.5402
-21.5011
-21.477
-21.469
-21.4785
-21.5065
-21.5545
-21.6236
-21.715
-21.8296
-21.9681
-22.1308
-22.3178
-22.5283
-22.7609
-23.0132
-23.2819
-23.5628
-23.8506
-24.1394
-24.4227
-24.6937
-24.9459
-25.1732
-25.3705
-25.5332
-25.6581
-25.7427
-25.7853
)
;
    }
    defaultFaces
    {
        type            empty;
    }
}


// ************************************************************************* //
