/*--------------------------------*- C++ -*----------------------------------*\
| =========                 |                                                 |
| \\      /  F ield         | OpenFOAM: The Open Source CFD Toolbox           |
|  \\    /   O peration     | Version:  5.x                                   |
|   \\  /    A nd           | Web:      www.OpenFOAM.org                      |
|    \\/     M anipulation  |                                                 |
\*---------------------------------------------------------------------------*/
FoamFile
{
    version     2.0;
    format      ascii;
    class       volScalarField;
    location    "19.8";
    object      gradTy;
}
// * * * * * * * * * * * * * * * * * * * * * * * * * * * * * * * * * * * * * //

dimensions      [0 -1 0 1 0 0 0];

internalField   nonuniform List<scalar> 
2048
(
-26.4237
-26.3961
-26.3417
-26.2621
-26.1593
-26.0359
-25.8946
-25.7383
-25.5698
-25.3916
-25.2061
-25.0155
-24.8216
-24.6263
-24.4309
-24.2369
-24.0453
-23.857
-23.6728
-23.4933
-23.3189
-23.15
-22.9868
-22.8295
-22.6785
-22.5339
-22.396
-22.2652
-22.1418
-22.0264
-21.9194
-21.8215
-21.7335
-21.6561
-21.5904
-21.5373
-21.498
-21.4736
-21.4654
-21.4745
-21.5023
-21.5501
-21.619
-21.7101
-21.8245
-21.9629
-22.1257
-22.3129
-22.5237
-22.7567
-23.0097
-23.2793
-23.5613
-23.8504
-24.1406
-24.4253
-24.6976
-24.9511
-25.1796
-25.3777
-25.5412
-25.6666
-25.7515
-25.7943
-26.446
-26.4178
-26.3622
-26.2808
-26.176
-26.0503
-25.9068
-25.7483
-25.5776
-25.3975
-25.2102
-25.0181
-24.8228
-24.6263
-24.4299
-24.235
-24.0426
-23.8537
-23.669
-23.4891
-23.3145
-23.1453
-22.9819
-22.8245
-22.6733
-22.5285
-22.3903
-22.2592
-22.1354
-22.0195
-21.912
-21.8135
-21.7248
-21.6467
-21.5802
-21.5262
-21.486
-21.4606
-21.4513
-21.4594
-21.4862
-21.533
-21.6009
-21.6913
-21.8051
-21.9432
-22.106
-22.2937
-22.5057
-22.7406
-22.9962
-23.2693
-23.5556
-23.8496
-24.1451
-24.4352
-24.7129
-24.9713
-25.2041
-25.4058
-25.572
-25.6994
-25.7856
-25.829
-26.4887
-26.4592
-26.4012
-26.3165
-26.2077
-26.0777
-25.9297
-25.7669
-25.5923
-25.4085
-25.218
-25.0228
-24.825
-24.6262
-24.4278
-24.2311
-24.0374
-23.8473
-23.6618
-23.4812
-23.3061
-23.1365
-22.9728
-22.8151
-22.6635
-22.5182
-22.3796
-22.2478
-22.1234
-22.0066
-21.8981
-21.7985
-21.7085
-21.629
-21.5608
-21.5052
-21.4631
-21.4359
-21.4247
-21.4309
-21.4557
-21.5006
-21.5667
-21.6556
-21.7682
-21.9056
-22.0684
-22.257
-22.4711
-22.7095
-22.9701
-23.2498
-23.5442
-23.8476
-24.1534
-24.4541
-24.7422
-25.01
-25.251
-25.4595
-25.6309
-25.7619
-25.8504
-25.895
-26.55
-26.5186
-26.4569
-26.3673
-26.2526
-26.1163
-25.9619
-25.793
-25.6127
-25.4237
-25.2285
-25.0293
-24.8278
-24.6258
-24.4246
-24.2255
-24.0298
-23.8382
-23.6514
-23.47
-23.2941
-23.1241
-22.9599
-22.8018
-22.6497
-22.5038
-22.3645
-22.2319
-22.1065
-21.9886
-21.8787
-21.7775
-21.6857
-21.6041
-21.5337
-21.4757
-21.4311
-21.4012
-21.3873
-21.3906
-21.4127
-21.4548
-21.5184
-21.6049
-21.7157
-21.852
-22.0147
-22.2044
-22.4212
-22.6643
-22.932
-23.2211
-23.5271
-23.8442
-24.1649
-24.481
-24.784
-25.0656
-25.3184
-25.5364
-25.7151
-25.8512
-25.9428
-25.9889
-26.6284
-26.5944
-26.528
-26.4317
-26.3093
-26.1646
-26.002
-25.8252
-25.6376
-25.4421
-25.2412
-25.0369
-24.8309
-24.6248
-24.4201
-24.2181
-24.0199
-23.8263
-23.6381
-23.4556
-23.2791
-23.1085
-22.9439
-22.7852
-22.6325
-22.486
-22.3458
-22.2122
-22.0856
-21.9662
-21.8547
-21.7515
-21.6573
-21.5732
-21.5
-21.4389
-21.3911
-21.3579
-21.3405
-21.3403
-21.3588
-21.3974
-21.4576
-21.5411
-21.6494
-21.784
-21.9461
-22.137
-22.3569
-22.6057
-22.882
-23.1829
-23.5039
-23.8385
-24.1787
-24.515
-24.8376
-25.137
-25.4049
-25.6349
-25.8224
-25.9647
-26.0601
-26.1079
-26.723
-26.6858
-26.6131
-26.5085
-26.3763
-26.2213
-26.0485
-25.8622
-25.666
-25.463
-25.2554
-25.0451
-24.8339
-24.6232
-24.4144
-24.2088
-24.0077
-23.8119
-23.6221
-23.4385
-23.2612
-23.0901
-22.925
-22.7658
-22.6125
-22.4652
-22.3241
-22.1894
-22.0614
-21.9404
-21.8268
-21.7213
-21.6245
-21.5373
-21.4607
-21.3961
-21.3445
-21.3073
-21.2858
-21.2814
-21.2956
-21.33
-21.3861
-21.4658
-21.5708
-21.703
-21.8641
-22.0556
-22.2787
-22.5338
-22.8199
-23.1348
-23.4738
-23.83
-24.1942
-24.5555
-24.9023
-25.2234
-25.5095
-25.7536
-25.9513
-26.1003
-26.1997
-26.2493
-26.8331
-26.7918
-26.7115
-26.5965
-26.4523
-26.285
-26.1002
-25.9028
-25.6969
-25.4853
-25.2703
-25.0536
-24.8365
-24.6205
-24.4071
-24.1976
-23.9933
-23.795
-23.6035
-23.4188
-23.2409
-23.0694
-22.9039
-22.7442
-22.5903
-22.4421
-22.2999
-22.164
-22.0345
-21.9117
-21.796
-21.6878
-21.5879
-21.4973
-21.4169
-21.3482
-21.2923
-21.2506
-21.2244
-21.2153
-21.2246
-21.254
-21.3053
-21.3803
-21.4813
-21.6102
-21.7695
-21.9612
-22.1871
-22.4485
-22.7455
-23.0761
-23.4359
-23.8176
-24.2106
-24.6019
-24.9777
-25.3246
-25.6317
-25.8917
-26.1003
-26.2562
-26.3595
-26.4108
-26.9584
-26.912
-26.8223
-26.6948
-26.5363
-26.3543
-26.1556
-25.9458
-25.7291
-25.5083
-25.2855
-25.0618
-24.8384
-24.6168
-24.3983
-24.1844
-23.9765
-23.7756
-23.5824
-23.3967
-23.2183
-23.0466
-22.8809
-22.7208
-22.5662
-22.4171
-22.2738
-22.1366
-22.0055
-21.8808
-21.7628
-21.6518
-21.5486
-21.454
-21.3695
-21.2961
-21.2354
-21.1888
-21.1575
-21.1431
-21.1469
-21.1708
-21.2164
-21.2861
-21.3821
-21.5069
-21.6634
-21.8543
-22.0824
-22.3499
-22.6581
-23.0058
-23.3892
-23.8003
-24.227
-24.6539
-25.0637
-25.4405
-25.7713
-26.0484
-26.2683
-26.4307
-26.5374
-26.5901
-27.0987
-27.0461
-26.945
-26.8024
-26.627
-26.4281
-26.2136
-25.99
-25.7617
-25.5313
-25.3003
-25.0694
-24.8396
-24.6119
-24.3878
-24.1691
-23.9573
-23.7537
-23.5588
-23.3724
-23.1938
-23.0221
-22.8564
-22.696
-22.5407
-22.3906
-22.2462
-22.1076
-21.975
-21.8484
-21.7279
-21.6139
-21.507
-21.4083
-21.3191
-21.2408
-21.1749
-21.1229
-21.0861
-21.0659
-21.0638
-21.0815
-21.1209
-21.1844
-21.2745
-21.3941
-21.5466
-21.7356
-21.9648
-22.2377
-22.557
-22.9229
-23.3323
-23.7769
-24.2427
-24.711
-25.1606
-25.5715
-25.9286
-26.2236
-26.4542
-26.6223
-26.7314
-26.7849
-27.254
-27.194
-27.0792
-26.9185
-26.7233
-26.5049
-26.2728
-26.0342
-25.7938
-25.5536
-25.3144
-25.0764
-24.8398
-24.6057
-24.3756
-24.1517
-23.9358
-23.7293
-23.5328
-23.346
-23.1676
-22.9963
-22.8308
-22.6701
-22.5142
-22.3631
-22.2174
-22.0775
-21.9434
-21.8149
-21.692
-21.5748
-21.464
-21.3607
-21.2664
-21.1828
-21.1114
-21.0537
-21.0111
-20.9848
-20.9763
-20.9873
-21.0198
-21.0763
-21.1596
-21.273
-21.4203
-21.6059
-21.8346
-22.1117
-22.4415
-22.8262
-23.2638
-23.7459
-24.2567
-24.7733
-25.2689
-25.7185
-26.1041
-26.4171
-26.6574
-26.8293
-26.9394
-26.9928
-27.4246
-27.3557
-27.2243
-27.0424
-26.8241
-26.5834
-26.3317
-26.0772
-25.8243
-25.5746
-25.3275
-25.0825
-24.8391
-24.5983
-24.3617
-24.132
-23.9116
-23.7023
-23.5045
-23.3176
-23.14
-22.9695
-22.8045
-22.6437
-22.487
-22.3347
-22.1877
-22.0465
-21.911
-21.7808
-21.6555
-21.535
-21.4201
-21.3119
-21.2121
-21.1228
-21.0456
-20.982
-20.9333
-20.9007
-20.8854
-20.8892
-20.9142
-20.963
-21.0386
-21.1446
-21.2853
-21.4659
-21.6924
-21.9717
-22.3108
-22.7142
-23.1818
-23.7058
-24.268
-24.8405
-25.3894
-25.8827
-26.2986
-26.6291
-26.8768
-27.0502
-27.1592
-27.2115
-27.6111
-27.5313
-27.3803
-27.1731
-26.928
-26.6621
-26.3891
-26.1178
-25.8525
-25.5937
-25.3394
-25.0877
-24.8376
-24.5897
-24.3461
-24.1101
-23.8849
-23.6725
-23.4736
-23.2873
-23.1111
-22.9421
-22.7779
-22.6171
-22.4595
-22.3059
-22.1574
-22.0149
-21.8783
-21.7466
-21.619
-21.4952
-21.3758
-21.2623
-21.1567
-21.0613
-20.9781
-20.9084
-20.8535
-20.8143
-20.7921
-20.7883
-20.8052
-20.8456
-20.9126
-21.0101
-21.1428
-21.3164
-21.5385
-21.8178
-22.164
-22.5854
-23.0845
-23.6545
-24.2753
-24.9129
-25.5235
-26.0657
-26.5135
-26.8597
-27.1117
-27.2833
-27.3885
-27.4383
-27.8141
-27.7212
-27.5467
-27.3099
-27.0338
-26.7397
-26.4435
-26.1548
-25.8775
-25.6105
-25.35
-25.0923
-24.8355
-24.5802
-24.3289
-24.0858
-23.8553
-23.6399
-23.4403
-23.2552
-23.0812
-22.9144
-22.7514
-22.5906
-22.432
-22.2767
-22.1266
-21.9829
-21.8455
-21.7126
-21.5828
-21.4556
-21.3316
-21.2124
-21.1006
-20.9988
-20.9093
-20.8334
-20.7723
-20.7265
-20.6971
-20.6854
-20.6937
-20.725
-20.7827
-20.8707
-20.9938
-21.1586
-21.3736
-21.6498
-22.0006
-22.4383
-22.9697
-23.5898
-24.2771
-24.9903
-25.6727
-26.2699
-26.7502
-27.1094
-27.3613
-27.5267
-27.6251
-27.6706
-28.0344
-27.9259
-27.7235
-27.4518
-27.14
-26.8146
-26.4935
-26.187
-25.8985
-25.6248
-25.3594
-25.0963
-24.8331
-24.57
-24.3101
-24.059
-23.8227
-23.6042
-23.4043
-23.2213
-23.0506
-22.8868
-22.7254
-22.5646
-22.4047
-22.2473
-22.0952
-21.9506
-21.8128
-21.6792
-21.5475
-21.4169
-21.288
-21.1626
-21.044
-20.9356
-20.8396
-20.7575
-20.6902
-20.638
-20.6012
-20.5813
-20.5806
-20.6023
-20.6499
-20.7273
-20.8395
-20.9934
-21.1986
-21.4682
-21.8197
-22.2712
-22.8349
-23.5091
-24.2716
-25.0731
-25.8394
-26.498
-27.0108
-27.3784
-27.6243
-27.7784
-27.8662
-27.9057
-28.273
-28.1458
-27.9104
-27.5978
-27.2452
-26.8851
-26.5375
-26.2131
-25.9148
-25.6363
-25.3677
-25.1002
-24.8307
-24.5594
-24.2898
-24.0296
-23.787
-23.5653
-23.3656
-23.1857
-23.0196
-22.8598
-22.7004
-22.5396
-22.378
-22.2178
-22.0634
-21.918
-21.7804
-21.6468
-21.5135
-21.3795
-21.2454
-21.1133
-20.9873
-20.8719
-20.7694
-20.6812
-20.6079
-20.5493
-20.5052
-20.4768
-20.4666
-20.4782
-20.5152
-20.5813
-20.6812
-20.8223
-21.0146
-21.2734
-21.621
-22.0824
-22.6775
-23.4092
-24.2563
-25.1614
-26.0266
-26.7537
-27.2974
-27.667
-27.8997
-28.0362
-28.1094
-28.1408
-28.5312
-28.3816
-28.1074
-27.7469
-27.3476
-26.9497
-26.5741
-26.2321
-25.9257
-25.645
-25.3754
-25.1044
-24.8287
-24.5489
-24.2681
-23.9974
-23.7478
-23.523
-23.3239
-23.1485
-22.9885
-22.8339
-22.6768
-22.5158
-22.3521
-22.1882
-22.0308
-21.8849
-21.7485
-21.6157
-21.4811
-21.3437
-21.2042
-21.0646
-20.9306
-20.808
-20.6989
-20.6046
-20.5257
-20.461
-20.4097
-20.3726
-20.3524
-20.3535
-20.3795
-20.4336
-20.5201
-20.6464
-20.8229
-21.0661
-21.4041
-21.8705
-22.4947
-23.2865
-24.228
-25.2552
-26.2381
-27.0414
-27.6125
-27.9754
-28.1857
-28.2977
-28.3518
-28.373
-28.8104
-28.6339
-28.3145
-27.8979
-27.4453
-27.0066
-26.6019
-26.2424
-25.9306
-25.651
-25.383
-25.1095
-24.8278
-24.5391
-24.2453
-23.962
-23.7051
-23.477
-23.2789
-23.1095
-22.9576
-22.8096
-22.6551
-22.4937
-22.3274
-22.1585
-21.9971
-21.8512
-21.7172
-21.5863
-21.4508
-21.3098
-21.1648
-21.0169
-20.874
-20.7439
-20.6283
-20.5281
-20.4439
-20.3736
-20.3153
-20.2692
-20.2387
-20.2288
-20.2436
-20.2853
-20.3573
-20.4675
-20.6251
-20.8474
-21.169
-21.6337
-22.2839
-23.137
-24.1826
-25.3545
-26.479
-27.3665
-27.9586
-28.3032
-28.4805
-28.5604
-28.5909
-28.5998
-29.1122
-28.9035
-28.5316
-28.0495
-27.536
-27.0543
-26.6197
-26.243
-25.929
-25.6544
-25.3913
-25.1159
-24.8283
-24.5306
-24.2213
-23.923
-23.6585
-23.427
-23.2302
-23.0688
-22.9272
-22.7876
-22.6357
-22.4734
-22.3042
-22.1287
-21.9619
-21.8167
-21.6866
-21.5591
-21.4228
-21.2783
-21.1276
-20.9702
-20.8173
-20.6797
-20.5577
-20.4518
-20.363
-20.2877
-20.2226
-20.1672
-20.1258
-20.1047
-20.1083
-20.1375
-20.1942
-20.2869
-20.4232
-20.6187
-20.9158
-21.3707
-22.0423
-22.9561
-24.1144
-25.4588
-26.756
-27.7356
-28.3385
-28.6498
-28.7817
-28.8215
-28.8237
-28.8185
-29.4385
-29.1907
-28.7592
-28.2002
-27.617
-27.0915
-26.6262
-26.2323
-25.9203
-25.6556
-25.4014
-25.1243
-24.8306
-24.5246
-24.1964
-23.8796
-23.6079
-23.373
-23.1773
-23.0264
-22.8978
-22.7687
-22.619
-22.4553
-22.2832
-22.0986
-21.9243
-21.781
-21.6569
-21.5347
-21.3975
-21.2493
-21.0932
-20.9248
-20.7602
-20.6156
-20.4873
-20.3757
-20.2833
-20.2037
-20.1323
-20.0671
-20.0143
-19.9816
-19.9743
-19.9912
-20.0316
-20.1063
-20.2193
-20.3816
-20.6452
-21.0802
-21.7675
-22.7391
-24.0158
-25.5672
-27.0779
-28.1563
-28.7543
-29.0136
-29.0865
-29.0779
-29.0479
-29.0267
-29.7913
-29.4957
-28.9978
-28.3483
-27.6851
-27.1171
-26.6206
-26.2086
-25.9042
-25.6549
-25.4149
-25.1351
-24.8347
-24.5225
-24.1708
-23.8307
-23.5536
-23.3149
-23.1193
-22.9821
-22.8697
-22.7541
-22.6054
-22.4394
-22.2651
-22.0681
-21.8833
-21.7438
-21.6282
-21.5138
-21.3751
-21.2228
-21.0624
-20.8808
-20.7024
-20.5516
-20.4171
-20.2998
-20.2049
-20.1219
-20.0448
-19.9694
-19.9042
-19.8597
-19.8422
-19.8474
-19.8705
-19.9272
-20.0162
-20.1381
-20.3581
-20.7607
-21.4579
-22.4813
-23.8764
-25.6776
-27.4568
-28.6377
-29.2079
-29.3923
-29.3914
-29.3268
-29.2608
-29.2223
-30.1732
-29.8179
-29.2488
-28.4921
-27.7359
-27.1308
-26.6026
-26.1696
-25.8805
-25.6529
-25.4337
-25.1484
-24.8405
-24.5264
-24.1444
-23.7744
-23.4958
-23.2528
-23.0551
-22.9359
-22.8433
-22.7451
-22.595
-22.4254
-22.2513
-22.0371
-21.8373
-21.7045
-21.6005
-21.4975
-21.3558
-21.1987
-21.0361
-20.8382
-20.643
-20.4879
-20.3475
-20.2238
-20.1281
-20.0429
-19.9609
-19.8744
-19.7959
-19.739
-19.7124
-19.7072
-19.7114
-19.7511
-19.8168
-19.8903
-20.056
-20.4108
-21.1126
-22.1788
-23.6822
-25.7865
-27.9091
-29.19
-29.6999
-29.7826
-29.6928
-29.565
-29.4603
-29.4037
-30.5874
-30.1556
-29.5146
-28.6295
-27.7639
-27.1333
-26.5722
-26.1127
-25.8494
-25.6497
-25.4608
-25.1644
-24.847
-24.5393
-24.1176
-23.7081
-23.4355
-23.1871
-22.983
-22.8881
-22.8189
-22.7435
-22.5877
-22.4127
-22.2435
-22.0054
-21.7841
-21.663
-21.574
-21.4872
-21.3394
-21.1764
-21.0158
-20.797
-20.5807
-20.4249
-20.2786
-20.1472
-20.0532
-19.9668
-19.8812
-19.7824
-19.6893
-19.6194
-19.5852
-19.5717
-19.5543
-19.579
-19.6251
-19.6406
-19.741
-20.0283
-20.7321
-21.8291
-23.4141
-25.8883
-28.4571
-29.8243
-30.2293
-30.1797
-29.9863
-29.7898
-29.6446
-29.5693
-31.038
-30.505
-29.7996
-28.7585
-27.7611
-27.1269
-26.5303
-26.0335
-25.8116
-25.6454
-25.5001
-25.1822
-24.852
-24.566
-24.0905
-23.6275
-23.3748
-23.1187
-22.9002
-22.8392
-22.7964
-22.7521
-22.5832
-22.3998
-22.2446
-21.9731
-21.7208
-21.6193
-21.5483
-21.485
-21.3257
-21.1549
-21.0036
-20.7574
-20.5136
-20.3635
-20.2109
-20.0693
-19.9806
-19.894
-19.8067
-19.6937
-19.5845
-19.5006
-19.4611
-19.4427
-19.3988
-19.4118
-19.4454
-19.3911
-19.416
-19.6101
-20.3186
-21.4331
-23.0461
-25.974
-29.1321
-30.5521
-30.7931
-30.5777
-30.2675
-29.9982
-29.8119
-29.7182
-31.5302
-30.8593
-30.1107
-28.8769
-27.7168
-27.1162
-26.4787
-25.9262
-25.7689
-25.6389
-25.5574
-25.2008
-24.8517
-24.6132
-24.063
-23.5263
-23.3171
-23.0489
-22.8031
-22.7903
-22.775
-22.7747
-22.5806
-22.3843
-22.2591
-21.9399
-21.6429
-21.574
-21.523
-21.4939
-21.314
-21.132
-21.0029
-20.7192
-20.4387
-20.305
-20.1448
-19.9888
-19.9108
-19.8245
-19.7383
-19.6085
-19.4813
-19.3819
-19.3399
-19.3221
-19.2435
-19.2495
-19.2836
-19.1433
-19.0856
-19.1509
-19.8762
-20.9967
-22.5434
-26.0297
-29.9771
-31.3839
-31.3851
-30.9695
-30.5318
-30.1881
-29.9613
-29.8498
-32.0715
-31.2066
-30.459
-28.9824
-27.6158
-27.1097
-26.4203
-25.7822
-25.7252
-25.6277
-25.6411
-25.2179
-24.84
-24.691
-24.0354
-23.3953
-23.268
-22.9798
-22.6857
-22.7438
-22.7531
-22.8165
-22.5784
-22.3621
-22.2932
-21.9058
-21.5445
-21.5288
-21.4965
-21.5183
-21.303
-21.1047
-21.0184
-20.6823
-20.3517
-20.2518
-20.0811
-19.9036
-19.845
-19.758
-19.6775
-19.5267
-19.3797
-19.2623
-19.2215
-19.2132
-19.0861
-19.0914
-19.1472
-18.8977
-18.7565
-18.6424
-19.4112
-20.534
-21.8591
-26.0349
-31.0517
-32.3276
-31.9955
-31.3467
-30.7747
-30.3574
-30.092
-29.964
-32.6723
-31.5279
-30.862
-29.0727
-27.4368
-27.1208
-26.3595
-25.5887
-25.687
-25.6064
-25.763
-25.2299
-24.807
-24.8139
-24.0075
-23.2209
-23.2364
-22.9142
-22.5398
-22.7039
-22.7271
-22.8855
-22.5742
-22.3268
-22.3562
-21.8708
-21.4174
-21.4871
-21.4662
-21.5644
-21.291
-21.0679
-21.0571
-20.6466
-20.2464
-20.2078
-20.0209
-19.8107
-19.7847
-19.6938
-19.6261
-19.4482
-19.2797
-19.1406
-19.1052
-19.1204
-18.923
-18.9354
-19.0459
-18.6524
-18.439
-18.0712
-18.9322
-20.0712
-20.9311
-25.9594
-32.4384
-33.3852
-32.6102
-31.7002
-30.9922
-30.5046
-30.2038
-30.0607
-33.3475
-31.7937
-31.3459
-29.1456
-27.1499
-27.1701
-26.302
-25.3274
-25.6661
-25.5654
-25.94
-25.2318
-24.7379
-25.0026
-23.979
-22.9838
-23.2356
-22.8561
-22.3532
-22.6781
-22.6906
-22.9927
-22.5647
-22.2688
-22.4616
-21.8345
-21.2501
-21.4553
-21.427
-21.6412
-21.2753
-21.0142
-21.1291
-20.6115
-20.114
-20.1786
-19.9653
-19.7058
-19.7327
-19.6304
-19.5866
-19.3723
-19.1815
-19.0152
-18.9895
-19.0503
-18.7485
-18.7777
-18.9931
-18.4022
-18.1485
-17.4172
-18.4493
-19.6522
-19.678
-25.7604
-34.2497
-34.5488
-33.2104
-32.0206
-31.1807
-30.629
-30.2968
-30.1406
-34.118
-31.9598
-31.9491
-29.1988
-26.7139
-27.2883
-26.2554
-24.9723
-25.681
-25.4884
-26.196
-25.2166
-24.6112
-25.2863
-23.9496
-22.6572
-23.2854
-22.8104
-22.1084
-22.6785
-22.6327
-23.1538
-22.5451
-22.1742
-22.628
-21.7963
-21.0269
-21.4437
-21.3703
-21.7613
-21.252
-20.9328
-21.2486
-20.5764
-19.9424
-20.173
-19.9159
-19.5825
-19.6933
-19.5652
-19.5625
-19.2978
-19.0857
-18.884
-18.8721
-19.0122
-18.5553
-18.612
-19.0074
-18.136
-17.9087
-16.6502
-17.9736
-19.3446
-17.9935
-25.3774
-36.6389
-35.7945
-33.773
-32.299
-31.3379
-30.7303
-30.3714
-30.2044
-35.0134
-31.9619
-32.7267
-29.2302
-26.0727
-27.5187
-26.2291
-24.4867
-25.7611
-25.349
-26.5645
-25.1746
-24.3963
-25.7051
-23.9182
-22.2041
-23.4137
-22.7834
-21.7812
-22.7239
-22.5361
-23.3908
-22.5091
-22.0235
-22.8814
-21.7554
-20.7267
-21.4685
-21.2826
-21.9423
-21.2159
-20.8085
-21.4354
-20.54
-19.7151
-20.2034
-19.8744
-19.4321
-19.673
-19.4936
-19.5586
-19.2228
-18.9933
-18.7447
-18.7487
-19.0195
-18.3328
-18.4288
-19.1138
-17.8345
-17.7546
-15.7274
-17.515
-19.2488
-15.7414
-24.7271
-39.8119
-37.0741
-34.2712
-32.5276
-31.4621
-30.8088
-30.4287
-30.2531
-36.0745
-31.7087
-33.7558
-29.2374
-25.1507
-27.9222
-26.2344
-23.8201
-25.9503
-25.107
-27.0915
-25.0936
-24.051
-26.3132
-23.8833
-21.5748
-23.6598
-22.7826
-21.3382
-22.8431
-22.3743
-23.7341
-22.4482
-21.7893
-23.2566
-21.7098
-20.3211
-21.5547
-21.1426
-22.2086
-21.1604
-20.6204
-21.716
-20.5006
-19.4097
-20.2873
-19.8423
-19.2425
-19.6816
-19.4088
-19.5818
-19.1441
-18.9062
-18.5946
-18.613
-19.0907
-18.0676
-18.2143
-19.3474
-17.4662
-17.7374
-14.5892
-17.08
-19.5073
-12.749
-23.6966
-44.0421
-38.3044
-34.6769
-32.7006
-31.5532
-30.8654
-30.4697
-30.2878
-37.3572
-31.0741
-35.1424
-29.2177
-23.8484
-28.5812
-26.2839
-22.9039
-26.3132
-24.7027
-27.8398
-24.9577
-23.5184
-27.1824
-23.8427
-20.7037
-24.0767
-22.8169
-20.7339
-23.0782
-22.1082
-24.2248
-22.3518
-21.435
-23.8002
-21.6566
-19.7727
-21.7383
-20.9189
-22.5934
-21.0765
-20.3405
-22.1262
-20.4554
-18.9971
-20.4487
-19.8213
-18.9976
-19.7335
-19.3004
-19.6415
-19.0566
-18.8276
-18.4309
-18.4552
-19.2508
-17.7422
-17.9488
-19.7556
-16.9826
-17.9301
-13.1548
-16.6681
-20.3163
-8.80018
-22.1351
-49.6879
-39.3542
-34.9635
-32.8149
-31.6119
-30.9015
-30.4957
-30.3098
-38.9366
-29.8874
-37.0287
-29.1676
-22.0361
-29.6052
-26.392
-21.6469
-26.9409
-24.0502
-28.8927
-24.7466
-22.7229
-28.4064
-23.7924
-19.505
-24.7347
-22.8954
-19.907
-23.4876
-21.6801
-24.9168
-22.2055
-20.9125
-24.5735
-21.5911
-19.0312
-22.0683
-20.5641
-23.1389
-20.9517
-19.9314
-22.7124
-20.4001
-18.4389
-20.7189
-19.8119
-18.6759
-19.8486
-19.1535
-19.7506
-18.9529
-18.7614
-18.2502
-18.2609
-19.5331
-17.3348
-17.6053
-20.4025
-16.3118
-18.4345
-11.3178
-16.2669
-21.9389
-3.62806
-19.8443
-57.2132
-40.0278
-35.1113
-32.8708
-31.6401
-30.9187
-30.5081
-30.3201
)
;

boundaryField
{
    left
    {
        type            calculated;
        value           nonuniform List<scalar> 
32
(
-26.4237
-26.446
-26.4887
-26.55
-26.6284
-26.723
-26.8331
-26.9584
-27.0987
-27.254
-27.4246
-27.6111
-27.8141
-28.0344
-28.273
-28.5312
-28.8104
-29.1122
-29.4385
-29.7913
-30.1732
-30.5874
-31.038
-31.5302
-32.0715
-32.6723
-33.3475
-34.118
-35.0134
-36.0745
-37.3572
-38.9366
)
;
    }
    right
    {
        type            calculated;
        value           nonuniform List<scalar> 
32
(
-25.7943
-25.829
-25.895
-25.9889
-26.1079
-26.2493
-26.4108
-26.5901
-26.7849
-26.9928
-27.2115
-27.4383
-27.6706
-27.9057
-28.1408
-28.373
-28.5998
-28.8185
-29.0267
-29.2223
-29.4037
-29.5693
-29.7182
-29.8498
-29.964
-30.0607
-30.1406
-30.2044
-30.2531
-30.2878
-30.3098
-30.3201
)
;
    }
    interface
    {
        type            calculated;
        value           nonuniform List<scalar> 
64
(
-39.8111
-29.1316
-38.1171
-29.1344
-20.9842
-30.224
-26.4625
-20.9201
-27.3343
-23.6493
-29.5071
-24.6195
-22.2488
-29.1204
-23.7644
-18.8116
-25.1339
-22.9469
-19.429
-23.7444
-21.4171
-25.3207
-22.118
-20.6024
-25.0263
-21.5546
-18.6048
-22.2768
-20.3468
-23.4575
-20.8772
-19.6892
-23.056
-20.3693
-18.1179
-20.8857
-19.81
-18.4928
-19.9249
-19.0683
-19.8194
-18.8959
-18.7319
-18.1552
-18.1524
-19.7095
-17.1075
-17.4101
-20.7947
-15.9189
-18.7793
-10.2835
-16.0664
-22.9911
-0.699409
-18.4886
-61.5109
-40.2415
-35.1486
-32.8843
-31.6468
-30.9228
-30.511
-30.3225
)
;
    }
    bottom
    {
        type            calculated;
        value           nonuniform List<scalar> 
64
(
-26.4179
-26.3905
-26.3364
-26.2572
-26.1549
-26.0321
-25.8914
-25.7357
-25.5677
-25.39
-25.205
-25.0148
-24.8213
-24.6263
-24.4312
-24.2374
-24.046
-23.8579
-23.6738
-23.4944
-23.32
-23.1512
-22.988
-22.8309
-22.6799
-22.5353
-22.3975
-22.2668
-22.1435
-22.0282
-21.9213
-21.8236
-21.7357
-21.6586
-21.5931
-21.5402
-21.5012
-21.4771
-21.4691
-21.4785
-21.5066
-21.5545
-21.6237
-21.715
-21.8296
-21.9681
-22.1308
-22.3178
-22.5283
-22.7609
-23.0132
-23.2819
-23.5628
-23.8506
-24.1394
-24.4227
-24.6937
-24.9459
-25.1732
-25.3705
-25.5332
-25.6581
-25.7427
-25.7853
)
;
    }
    defaultFaces
    {
        type            empty;
    }
}


// ************************************************************************* //
