# vtk DataFile Version 2.0
generated by CFD-lab course output (written by Tobias Neckel) 
ASCII

DATASET STRUCTURED_GRID
DIMENSIONS  41 41 1 
POINTS 1681 float

0.150000 0.150000 0
0.167857 0.150000 0
0.185714 0.150000 0
0.203571 0.150000 0
0.221429 0.150000 0
0.239286 0.150000 0
0.257143 0.150000 0
0.275000 0.150000 0
0.292857 0.150000 0
0.310714 0.150000 0
0.328571 0.150000 0
0.346429 0.150000 0
0.364286 0.150000 0
0.382143 0.150000 0
0.400000 0.150000 0
0.417857 0.150000 0
0.435714 0.150000 0
0.453571 0.150000 0
0.471429 0.150000 0
0.489286 0.150000 0
0.507143 0.150000 0
0.525000 0.150000 0
0.542857 0.150000 0
0.560714 0.150000 0
0.578571 0.150000 0
0.596429 0.150000 0
0.614286 0.150000 0
0.632143 0.150000 0
0.650000 0.150000 0
0.667857 0.150000 0
0.685714 0.150000 0
0.703571 0.150000 0
0.721429 0.150000 0
0.739286 0.150000 0
0.757143 0.150000 0
0.775000 0.150000 0
0.792857 0.150000 0
0.810714 0.150000 0
0.828571 0.150000 0
0.846429 0.150000 0
0.864286 0.150000 0
0.150000 0.167857 0
0.167857 0.167857 0
0.185714 0.167857 0
0.203571 0.167857 0
0.221429 0.167857 0
0.239286 0.167857 0
0.257143 0.167857 0
0.275000 0.167857 0
0.292857 0.167857 0
0.310714 0.167857 0
0.328571 0.167857 0
0.346429 0.167857 0
0.364286 0.167857 0
0.382143 0.167857 0
0.400000 0.167857 0
0.417857 0.167857 0
0.435714 0.167857 0
0.453571 0.167857 0
0.471429 0.167857 0
0.489286 0.167857 0
0.507143 0.167857 0
0.525000 0.167857 0
0.542857 0.167857 0
0.560714 0.167857 0
0.578571 0.167857 0
0.596429 0.167857 0
0.614286 0.167857 0
0.632143 0.167857 0
0.650000 0.167857 0
0.667857 0.167857 0
0.685714 0.167857 0
0.703571 0.167857 0
0.721429 0.167857 0
0.739286 0.167857 0
0.757143 0.167857 0
0.775000 0.167857 0
0.792857 0.167857 0
0.810714 0.167857 0
0.828571 0.167857 0
0.846429 0.167857 0
0.864286 0.167857 0
0.150000 0.185714 0
0.167857 0.185714 0
0.185714 0.185714 0
0.203571 0.185714 0
0.221429 0.185714 0
0.239286 0.185714 0
0.257143 0.185714 0
0.275000 0.185714 0
0.292857 0.185714 0
0.310714 0.185714 0
0.328571 0.185714 0
0.346429 0.185714 0
0.364286 0.185714 0
0.382143 0.185714 0
0.400000 0.185714 0
0.417857 0.185714 0
0.435714 0.185714 0
0.453571 0.185714 0
0.471429 0.185714 0
0.489286 0.185714 0
0.507143 0.185714 0
0.525000 0.185714 0
0.542857 0.185714 0
0.560714 0.185714 0
0.578571 0.185714 0
0.596429 0.185714 0
0.614286 0.185714 0
0.632143 0.185714 0
0.650000 0.185714 0
0.667857 0.185714 0
0.685714 0.185714 0
0.703571 0.185714 0
0.721429 0.185714 0
0.739286 0.185714 0
0.757143 0.185714 0
0.775000 0.185714 0
0.792857 0.185714 0
0.810714 0.185714 0
0.828571 0.185714 0
0.846429 0.185714 0
0.864286 0.185714 0
0.150000 0.203571 0
0.167857 0.203571 0
0.185714 0.203571 0
0.203571 0.203571 0
0.221429 0.203571 0
0.239286 0.203571 0
0.257143 0.203571 0
0.275000 0.203571 0
0.292857 0.203571 0
0.310714 0.203571 0
0.328571 0.203571 0
0.346429 0.203571 0
0.364286 0.203571 0
0.382143 0.203571 0
0.400000 0.203571 0
0.417857 0.203571 0
0.435714 0.203571 0
0.453571 0.203571 0
0.471429 0.203571 0
0.489286 0.203571 0
0.507143 0.203571 0
0.525000 0.203571 0
0.542857 0.203571 0
0.560714 0.203571 0
0.578571 0.203571 0
0.596429 0.203571 0
0.614286 0.203571 0
0.632143 0.203571 0
0.650000 0.203571 0
0.667857 0.203571 0
0.685714 0.203571 0
0.703571 0.203571 0
0.721429 0.203571 0
0.739286 0.203571 0
0.757143 0.203571 0
0.775000 0.203571 0
0.792857 0.203571 0
0.810714 0.203571 0
0.828571 0.203571 0
0.846429 0.203571 0
0.864286 0.203571 0
0.150000 0.221429 0
0.167857 0.221429 0
0.185714 0.221429 0
0.203571 0.221429 0
0.221429 0.221429 0
0.239286 0.221429 0
0.257143 0.221429 0
0.275000 0.221429 0
0.292857 0.221429 0
0.310714 0.221429 0
0.328571 0.221429 0
0.346429 0.221429 0
0.364286 0.221429 0
0.382143 0.221429 0
0.400000 0.221429 0
0.417857 0.221429 0
0.435714 0.221429 0
0.453571 0.221429 0
0.471429 0.221429 0
0.489286 0.221429 0
0.507143 0.221429 0
0.525000 0.221429 0
0.542857 0.221429 0
0.560714 0.221429 0
0.578571 0.221429 0
0.596429 0.221429 0
0.614286 0.221429 0
0.632143 0.221429 0
0.650000 0.221429 0
0.667857 0.221429 0
0.685714 0.221429 0
0.703571 0.221429 0
0.721429 0.221429 0
0.739286 0.221429 0
0.757143 0.221429 0
0.775000 0.221429 0
0.792857 0.221429 0
0.810714 0.221429 0
0.828571 0.221429 0
0.846429 0.221429 0
0.864286 0.221429 0
0.150000 0.239286 0
0.167857 0.239286 0
0.185714 0.239286 0
0.203571 0.239286 0
0.221429 0.239286 0
0.239286 0.239286 0
0.257143 0.239286 0
0.275000 0.239286 0
0.292857 0.239286 0
0.310714 0.239286 0
0.328571 0.239286 0
0.346429 0.239286 0
0.364286 0.239286 0
0.382143 0.239286 0
0.400000 0.239286 0
0.417857 0.239286 0
0.435714 0.239286 0
0.453571 0.239286 0
0.471429 0.239286 0
0.489286 0.239286 0
0.507143 0.239286 0
0.525000 0.239286 0
0.542857 0.239286 0
0.560714 0.239286 0
0.578571 0.239286 0
0.596429 0.239286 0
0.614286 0.239286 0
0.632143 0.239286 0
0.650000 0.239286 0
0.667857 0.239286 0
0.685714 0.239286 0
0.703571 0.239286 0
0.721429 0.239286 0
0.739286 0.239286 0
0.757143 0.239286 0
0.775000 0.239286 0
0.792857 0.239286 0
0.810714 0.239286 0
0.828571 0.239286 0
0.846429 0.239286 0
0.864286 0.239286 0
0.150000 0.257143 0
0.167857 0.257143 0
0.185714 0.257143 0
0.203571 0.257143 0
0.221429 0.257143 0
0.239286 0.257143 0
0.257143 0.257143 0
0.275000 0.257143 0
0.292857 0.257143 0
0.310714 0.257143 0
0.328571 0.257143 0
0.346429 0.257143 0
0.364286 0.257143 0
0.382143 0.257143 0
0.400000 0.257143 0
0.417857 0.257143 0
0.435714 0.257143 0
0.453571 0.257143 0
0.471429 0.257143 0
0.489286 0.257143 0
0.507143 0.257143 0
0.525000 0.257143 0
0.542857 0.257143 0
0.560714 0.257143 0
0.578571 0.257143 0
0.596429 0.257143 0
0.614286 0.257143 0
0.632143 0.257143 0
0.650000 0.257143 0
0.667857 0.257143 0
0.685714 0.257143 0
0.703571 0.257143 0
0.721429 0.257143 0
0.739286 0.257143 0
0.757143 0.257143 0
0.775000 0.257143 0
0.792857 0.257143 0
0.810714 0.257143 0
0.828571 0.257143 0
0.846429 0.257143 0
0.864286 0.257143 0
0.150000 0.275000 0
0.167857 0.275000 0
0.185714 0.275000 0
0.203571 0.275000 0
0.221429 0.275000 0
0.239286 0.275000 0
0.257143 0.275000 0
0.275000 0.275000 0
0.292857 0.275000 0
0.310714 0.275000 0
0.328571 0.275000 0
0.346429 0.275000 0
0.364286 0.275000 0
0.382143 0.275000 0
0.400000 0.275000 0
0.417857 0.275000 0
0.435714 0.275000 0
0.453571 0.275000 0
0.471429 0.275000 0
0.489286 0.275000 0
0.507143 0.275000 0
0.525000 0.275000 0
0.542857 0.275000 0
0.560714 0.275000 0
0.578571 0.275000 0
0.596429 0.275000 0
0.614286 0.275000 0
0.632143 0.275000 0
0.650000 0.275000 0
0.667857 0.275000 0
0.685714 0.275000 0
0.703571 0.275000 0
0.721429 0.275000 0
0.739286 0.275000 0
0.757143 0.275000 0
0.775000 0.275000 0
0.792857 0.275000 0
0.810714 0.275000 0
0.828571 0.275000 0
0.846429 0.275000 0
0.864286 0.275000 0
0.150000 0.292857 0
0.167857 0.292857 0
0.185714 0.292857 0
0.203571 0.292857 0
0.221429 0.292857 0
0.239286 0.292857 0
0.257143 0.292857 0
0.275000 0.292857 0
0.292857 0.292857 0
0.310714 0.292857 0
0.328571 0.292857 0
0.346429 0.292857 0
0.364286 0.292857 0
0.382143 0.292857 0
0.400000 0.292857 0
0.417857 0.292857 0
0.435714 0.292857 0
0.453571 0.292857 0
0.471429 0.292857 0
0.489286 0.292857 0
0.507143 0.292857 0
0.525000 0.292857 0
0.542857 0.292857 0
0.560714 0.292857 0
0.578571 0.292857 0
0.596429 0.292857 0
0.614286 0.292857 0
0.632143 0.292857 0
0.650000 0.292857 0
0.667857 0.292857 0
0.685714 0.292857 0
0.703571 0.292857 0
0.721429 0.292857 0
0.739286 0.292857 0
0.757143 0.292857 0
0.775000 0.292857 0
0.792857 0.292857 0
0.810714 0.292857 0
0.828571 0.292857 0
0.846429 0.292857 0
0.864286 0.292857 0
0.150000 0.310714 0
0.167857 0.310714 0
0.185714 0.310714 0
0.203571 0.310714 0
0.221429 0.310714 0
0.239286 0.310714 0
0.257143 0.310714 0
0.275000 0.310714 0
0.292857 0.310714 0
0.310714 0.310714 0
0.328571 0.310714 0
0.346429 0.310714 0
0.364286 0.310714 0
0.382143 0.310714 0
0.400000 0.310714 0
0.417857 0.310714 0
0.435714 0.310714 0
0.453571 0.310714 0
0.471429 0.310714 0
0.489286 0.310714 0
0.507143 0.310714 0
0.525000 0.310714 0
0.542857 0.310714 0
0.560714 0.310714 0
0.578571 0.310714 0
0.596429 0.310714 0
0.614286 0.310714 0
0.632143 0.310714 0
0.650000 0.310714 0
0.667857 0.310714 0
0.685714 0.310714 0
0.703571 0.310714 0
0.721429 0.310714 0
0.739286 0.310714 0
0.757143 0.310714 0
0.775000 0.310714 0
0.792857 0.310714 0
0.810714 0.310714 0
0.828571 0.310714 0
0.846429 0.310714 0
0.864286 0.310714 0
0.150000 0.328571 0
0.167857 0.328571 0
0.185714 0.328571 0
0.203571 0.328571 0
0.221429 0.328571 0
0.239286 0.328571 0
0.257143 0.328571 0
0.275000 0.328571 0
0.292857 0.328571 0
0.310714 0.328571 0
0.328571 0.328571 0
0.346429 0.328571 0
0.364286 0.328571 0
0.382143 0.328571 0
0.400000 0.328571 0
0.417857 0.328571 0
0.435714 0.328571 0
0.453571 0.328571 0
0.471429 0.328571 0
0.489286 0.328571 0
0.507143 0.328571 0
0.525000 0.328571 0
0.542857 0.328571 0
0.560714 0.328571 0
0.578571 0.328571 0
0.596429 0.328571 0
0.614286 0.328571 0
0.632143 0.328571 0
0.650000 0.328571 0
0.667857 0.328571 0
0.685714 0.328571 0
0.703571 0.328571 0
0.721429 0.328571 0
0.739286 0.328571 0
0.757143 0.328571 0
0.775000 0.328571 0
0.792857 0.328571 0
0.810714 0.328571 0
0.828571 0.328571 0
0.846429 0.328571 0
0.864286 0.328571 0
0.150000 0.346429 0
0.167857 0.346429 0
0.185714 0.346429 0
0.203571 0.346429 0
0.221429 0.346429 0
0.239286 0.346429 0
0.257143 0.346429 0
0.275000 0.346429 0
0.292857 0.346429 0
0.310714 0.346429 0
0.328571 0.346429 0
0.346429 0.346429 0
0.364286 0.346429 0
0.382143 0.346429 0
0.400000 0.346429 0
0.417857 0.346429 0
0.435714 0.346429 0
0.453571 0.346429 0
0.471429 0.346429 0
0.489286 0.346429 0
0.507143 0.346429 0
0.525000 0.346429 0
0.542857 0.346429 0
0.560714 0.346429 0
0.578571 0.346429 0
0.596429 0.346429 0
0.614286 0.346429 0
0.632143 0.346429 0
0.650000 0.346429 0
0.667857 0.346429 0
0.685714 0.346429 0
0.703571 0.346429 0
0.721429 0.346429 0
0.739286 0.346429 0
0.757143 0.346429 0
0.775000 0.346429 0
0.792857 0.346429 0
0.810714 0.346429 0
0.828571 0.346429 0
0.846429 0.346429 0
[...]
POINT_DATA 1681 

VECTORS velocity float
0.000000 0.000000 0
0.004820 0.000000 0
0.010959 0.000000 0
0.013661 0.000000 0
0.014325 0.000000 0
0.013538 0.000000 0
0.011779 0.000000 0
0.016720 0.000000 0
0.019646 0.000000 0
0.010203 0.000000 0
-0.005858 0.000000 0
-0.023987 0.000000 0
-0.042687 0.000000 0
-0.060937 0.000000 0
-0.078052 0.000000 0
-0.093617 0.000000 0
-0.107479 0.000000 0
-0.119491 0.000000 0
-0.129606 0.000000 0
-0.137813 0.000000 0
-0.144117 0.000000 0
-0.148533 0.000000 0
-0.151061 0.000000 0
-0.151724 0.000000 0
-0.150417 0.000000 0
-0.146981 0.000000 0
-0.141340 0.000000 0
-0.133398 0.000000 0
-0.123066 0.000000 0
-0.110271 0.000000 0
-0.095060 0.000000 0
-0.077474 0.000000 0
-0.057727 0.000000 0
-0.036258 0.000000 0
-0.013850 0.000000 0
0.008156 0.000000 0
0.023892 0.000000 0
0.028015 0.000000 0
0.021064 0.000000 0
0.009769 0.000000 0
0.000000 0.000000 0
0.000000 -0.004820 0
0.013552 -0.010959 0
0.026305 -0.008841 0
0.031601 -0.003367 0
0.032993 0.000123 0
0.031831 0.002546 0
0.021851 -0.003182 0
0.004223 -0.007867 0
-0.018280 0.006517 0
-0.047638 0.025504 0
-0.082531 0.034191 0
-0.119375 0.036829 0
-0.155908 0.036949 0
-0.190565 0.035365 0
-0.222341 0.032680 0
-0.250654 0.029427 0
-0.275241 0.025874 0
-0.295973 0.022127 0
-0.312835 0.018322 0
-0.325865 0.014511 0
-0.335121 0.010721 0
-0.340654 0.006943 0
-0.342491 0.003191 0
-0.340616 -0.000643 0
-0.334947 -0.004743 0
-0.325398 -0.009077 0
-0.311813 -0.013583 0
-0.294020 -0.018274 0
-0.271847 -0.023127 0
-0.245163 -0.028006 0
-0.213950 -0.032797 0
-0.178318 -0.037333 0
-0.138679 -0.041216 0
-0.095943 -0.043878 0
-0.051857 -0.044414 0
-0.009590 -0.037742 0
0.025242 -0.019859 0
0.043298 0.002829 0
0.033916 0.018246 0
0.015751 0.021064 0
0.000000 0.009769 0
0.000000 -0.013552 0
0.016561 -0.026305 0
0.026615 -0.018049 0
0.028595 -0.006689 0
0.016942 -0.000230 0
-0.002494 0.011143 0
-0.030246 0.027609 0
-0.073133 0.040130 0
-0.119739 0.051861 0
-0.158806 0.064251 0
-0.194354 0.071737 0
-0.228139 0.073377 0
-0.259436 0.071190 0
-0.287669 0.066433 0
-0.312508 0.060088 0
-0.333813 0.052900 0
-0.351501 0.045319 0
-0.365660 0.037594 0
-0.376384 0.029892 0
-0.383779 0.022285 0
-0.387935 0.014789 0
-0.388912 0.007370 0
-0.386735 -0.000038 0
-0.381336 -0.007544 0
-0.372746 -0.015218 0
-0.360964 -0.023134 0
-0.345851 -0.031378 0
-0.327252 -0.039966 0
-0.305005 -0.048856 0
-0.278984 -0.057897 0
-0.249063 -0.066845 0
-0.215344 -0.075270 0
-0.178162 -0.082375 0
-0.138318 -0.086822 0
-0.097384 -0.086353 0
-0.058135 -0.077099 0
-0.021424 -0.052888 0
0.008070 -0.008674 0
0.016336 0.027547 0
0.007379 0.033916 0
0.000000 0.015751 0
0.000000 -0.021380 0
0.009510 -0.037573 0
0.006223 -0.020876 0
-0.010495 0.006307 0
-0.037918 0.031212 0
-0.075087 0.049734 0
-0.113454 0.067457 0
-0.152018 0.081627 0
-0.190777 0.092190 0
-0.225648 0.100119 0
-0.255734 0.103523 0
-0.282227 0.101912 0
-0.305456 0.096480 0
-0.325604 0.088436 0
-0.342820 0.078824 0
-0.357235 0.068420 0
-0.368939 0.057721 0
-0.378052 0.047010 0
-0.384665 0.036440 0
-0.388847 0.026061 0
-0.390635 0.015854 0
-0.390039 0.005744 0
-0.387037 -0.004385 0
-0.381586 -0.014632 0
-0.373653 -0.025115 0
-0.363115 -0.035972 0
-0.349856 -0.047296 0
-0.333732 -0.059119 0
-0.314596 -0.071395 0
-0.292311 -0.083949 0
-0.266766 -0.096437 0
-0.237980 -0.108233 0
-0.206139 -0.118242 0
-0.171701 -0.124656 0
-0.135511 -0.124597 0
-0.098828 -0.113702 0
-0.063042 -0.086065 0
-0.028973 -0.034931 0
0.001164 0.018938 0
-0.000086 0.037400 0
0.000000 0.017147 0
0.000000 -0.023062 0
-0.008802 -0.032528 0
-0.032399 0.001956 0
-0.063509 0.037452 0
-0.095067 0.064362 0
-0.130350 0.086678 0
-0.166076 0.104540 0
-0.200055 0.117453 0
-0.231944 0.125490 0
-0.260058 0.129209 0
-0.283762 0.128316 0
-0.303762 0.123099 0
-0.320672 0.114568 0
-0.334978 0.103797 0
-0.347018 0.091719 0
-0.357007 0.079019 0
-0.365062 0.066137 0
-0.371260 0.053320 0
-0.375637 0.040686 0
-0.378203 0.028255 0
-0.378949 0.015981 0
-0.377849 0.003773 0
-0.374868 -0.008491 0
-0.369989 -0.020928 0
-0.363131 -0.033690 0
-0.354208 -0.046931 0
-0.343114 -0.060761 0
-0.329729 -0.075225 0
-0.313927 -0.090277 0
-0.295579 -0.105727 0
-0.274575 -0.121176 0
-0.250852 -0.135898 0
-0.224417 -0.148654 0
-0.195355 -0.157450 0
-0.163831 -0.159226 0
-0.130025 -0.149568 0
-0.093997 -0.122744 0
-0.055687 -0.072880 0
-0.015343 -0.001339 0
-0.003099 0.035080 0
0.000000 0.015665 0
0.000000 -0.012578 0
-0.029479 -0.005175 0
-0.064465 0.033831 0
-0.096929 0.068975 0
-0.130446 0.098053 0
-0.163825 0.120743 0
-0.195709 0.137162 0
-0.224818 0.147494 0
-0.250745 0.152193 0
-0.272888 0.151937 0
-0.291198 0.147227 0
-0.306264 0.138821 0
-0.318708 0.127696 0
-0.329040 0.114783 0
-0.337604 0.100854 0
-0.344602 0.086465 0
-0.350142 0.071974 0
-0.354277 0.057584 0
-0.357027 0.043383 0
-0.358398 0.029373 0
-0.358383 0.015500 0
-0.356965 0.001663 0
-0.354118 -0.012245 0
-0.349853 -0.026369 0
-0.344084 -0.040896 0
-0.336743 -0.055990 0
-0.327742 -0.071774 0
-0.316980 -0.088306 0
-0.304346 -0.105545 0
-0.289725 -0.123301 0
-0.272996 -0.141164 0
-0.254036 -0.158391 0
-0.232699 -0.173739 0
-0.208783 -0.185242 0
-0.181959 -0.189927 0
-0.151701 -0.183536 0
-0.117280 -0.160402 0
-0.078055 -0.113585 0
-0.034718 -0.033650 0
0.004378 0.022057 0
0.000000 0.014049 0
0.000000 0.006417 0
-0.039939 0.031937 0
-0.078446 0.069406 0
-0.114485 0.103433 0
-0.148404 0.131258 0
-0.179792 0.151942 0
-0.208125 0.165532 0
-0.232912 0.172489 0
-0.254060 0.173561 0
-0.271572 0.169662 0
-0.285759 0.161692 0
-0.297189 0.150610 0
-0.306413 0.137344 0
-0.313873 0.122692 0
-0.319871 0.107281 0
-0.324595 0.091558 0
-0.328158 0.075811 0
-0.330628 0.060205 0
-0.332048 0.044808 0
-0.332443 0.029611 0
-0.331830 0.014548 0
-0.330213 -0.000492 0
-0.327589 -0.015603 0
-0.323936 -0.030963 0
-0.319199 -0.046799 0
-0.313317 -0.063274 0
-0.306213 -0.080525 0
-0.297800 -0.098621 0
-0.287980 -0.117531 0
-0.276641 -0.137077 0
-0.263656 -0.156866 0
-0.248868 -0.176195 0
-0.232046 -0.193907 0
-0.212820 -0.208191 0
-0.190584 -0.216307 0
-0.164396 -0.214246 0
-0.132992 -0.196390 0
-0.095079 -0.155443 0
-0.049991 -0.083773 0
0.003439 0.000363 0
0.000000 0.020043 0
0.000000 0.027361 0
-0.042039 0.073272 0
-0.083349 0.108377 0
-0.120539 0.138932 0
-0.153800 0.163359 0
-0.183074 0.180464 0
-0.208313 0.190282 0
-0.229541 0.193430 0
-0.246997 0.190853 0
-0.261027 0.183636 0
-0.272115 0.172845 0
-0.280806 0.159475 0
-0.287579 0.144379 0
-0.292815 0.128241 0
-0.296787 0.111576 0
-0.299689 0.094752 0
-0.301653 0.078007 0
-0.302778 0.061474 0
-0.303135 0.045198 0
-0.302774 0.029156 0
-0.301729 0.013270 0
-0.300022 -0.002578 0
-0.297663 -0.018522 0
-0.294602 -0.034759 0
-0.290809 -0.051515 0
-0.286225 -0.068976 0
-0.280781 -0.087290 0
-0.274393 -0.106539 0
-0.266963 -0.126705 0
-0.258380 -0.147624 0
-0.248512 -0.168937 0
-0.237186 -0.190001 0
-0.224148 -0.209787 0
-0.208980 -0.226704 0
-0.190991 -0.238351 0
-0.169089 -0.241128 0
-0.141734 -0.229719 0
-0.107211 -0.196586 0
-0.064699 -0.132168 0
-0.017505 -0.027934 0
0.000000 0.017487 0
0.000000 0.048456 0
-0.041315 0.115286 0
-0.082525 0.147906 0
-0.119006 0.173884 0
-0.150733 0.193793 0
-0.177753 0.206455 0
-0.200263 0.212000 0
-0.218585 0.211174 0
-0.233174 0.205046 0
-0.244549 0.194779 0
-0.253258 0.181471 0
-0.259811 0.166073 0
-0.264643 0.149353 0
-0.268098 0.131901 0
-0.270443 0.114155 0
-0.271885 0.096423 0
-0.272583 0.078901 0
-0.272658 0.061687 0
-0.272205 0.044804 0
-0.271291 0.028205 0
-0.269962 0.011796 0
-0.268247 -0.004558 0
-0.266157 -0.021023 0
-0.263658 -0.037817 0
-0.260713 -0.055176 0
-0.257267 -0.073301 0
-0.253250 -0.092357 0
-0.248573 -0.112439 0
-0.243132 -0.133544 0
-0.236808 -0.155528 0
-0.229457 -0.178060 0
-0.220902 -0.200559 0
-0.210895 -0.222113 0
-0.199049 -0.241347 0
-0.184734 -0.256199 0
-0.166933 -0.263504 0
-0.144153 -0.258268 0
-0.114614 -0.232478 0
-0.077292 -0.173478 0
-0.034983 -0.064336 0
0.000000 0.002538 0
0.000000 0.068676 0
-0.038915 0.155797 0
-0.078209 0.186068 0
-0.112736 0.207140 0
-0.142293 0.222106 0
-0.166937 0.229994 0
-0.186969 0.231114 0
-0.202852 0.226341 0
-0.215144 0.216817 0
-0.224424 0.203719 0
-0.231243 0.188107 0
-0.236083 0.170860 0
-0.239346 0.152665 0
-0.241365 0.134041 0
-0.242410 0.115364 0
-0.242700 0.096892 0
-0.242413 0.078781 0
-0.241688 0.061096 0
-0.240634 0.043830 0
-0.239332 0.026913 0
-0.237837 0.010226 0
-0.236183 -0.006382 0
-0.234383 -0.023111 0
-0.232408 -0.040203 0
-0.230218 -0.057906 0
-0.227757 -0.076439 0
-0.224951 -0.095985 0
-0.221704 -0.116657 0
-0.217903 -0.138470 0
-0.213410 -0.161300 0
-0.208071 -0.184842 0
-0.201697 -0.208563 0
-0.194053 -0.231639 0
-0.184804 -0.252865 0
-0.173426 -0.270468 0
-0.159066 -0.281709 0
-0.140374 -0.282038 0
-0.115453 -0.263447 0
-0.082367 -0.211799 0
-0.041118 -0.105226 0
0.000000 -0.017496 0
0.000000 0.087371 0
-0.035485 0.193496 0
-0.071845 0.221727 0
-0.103674 0.237968 0
-0.130666 0.247993 0
-0.152859 0.251131 0
-0.170585 0.247916 0
-0.184345 0.239348 0
-0.194717 0.226618 0
-0.202278 0.210878 0
-0.207552 0.193130 0
-0.210993 0.174177 0
-0.212985 0.154635 0
-0.213853 0.134964 0
-0.213871 0.115490 0
-0.213268 0.096426 0
-0.212234 0.077889 0
-0.210918 0.059909 0
-0.209442 0.042447 0
-0.207892 0.025407 0
-0.206332 0.008647 0
-0.204796 -0.008011 0
-0.203297 -0.024798 0
-0.201803 -0.041982 0
-0.200274 -0.059826 0
-0.198650 -0.078568 0
-0.196853 -0.098410 0
-0.194782 -0.119488 0
-0.192311 -0.141838 0
-0.189292 -0.165360 0
-0.185552 -0.189773 0
-0.180894 -0.214576 0
-0.175083 -0.239007 0
-0.167826 -0.261975 0
-0.158698 -0.281936 0
-0.147019 -0.296555 0
-0.131621 -0.301882 0
-0.110583 -0.290486 0
-0.081274 -0.247813 0
-0.041973 -0.146702 0
0.000000 -0.038580 0
0.000000 0.104160 0
-0.031478 0.227642 0
-0.064373 0.254258 0
-0.093115 0.265960 0
-0.117337 0.271290 0
-0.137063 0.269914 0
-0.152611 0.262601 0
-0.164466 0.250473 0
-0.173176 0.234750 0
-0.179280 0.216553 0
-0.183267 0.196822 0
-0.185560 0.176293 0
-0.186526 0.155525 0
-0.186486 0.134927 0
-0.185712 0.114779 0
-0.184439 0.095255 0
-0.182862 0.076431 0
-0.181139 0.058304 0
-0.179394 0.040804 0
-0.177720 0.023803 0
-0.176181 0.007130 0
-0.174808 -0.009417 0
-0.173609 -0.026104 0
-0.172548 -0.043226 0
-0.171582 -0.061059 0
-0.170649 -0.079860 0
-0.169667 -0.099854 0
-0.168532 -0.121199 0
-0.167113 -0.143959 0
-0.165253 -0.168059 0
-0.162769 -0.193241 0
-0.159454 -0.219032 0
-0.155075 -0.244707 0
-0.149359 -0.269250 0
-0.141953 -0.291275 0
-0.132326 -0.308787 0
-0.119536 -0.318474 0
-0.101844 -0.313793 0
-0.076419 -0.280408 0
-0.040569 -0.186500 0
0.000000 -0.059470 0
0.000000 0.118849 0
-0.027203 0.257869 0
-0.056399 0.283364 0
-0.081895 0.290931 0
-0.103283 0.291941 0
-0.120577 0.286406 0
-0.134061 0.275318 0
-0.144174 0.259913 0
-0.151413 0.241432 0
-0.156264 0.220969 0
-0.159170 0.199409 0
-0.160525 0.177436 0
-0.160681 0.155561 0
-0.159945 0.134150 0
-0.158589 0.113444 0
-0.156846 0.093576 0
-0.154909 0.074588 0
-0.152940 0.056440 0
-0.151063 0.039029 0
-0.149370 0.022194 0
-0.147921 0.005735 0
-0.146742 -0.010583 0
-0.145829 -0.027058 0
-0.145144 -0.044009 0
-0.144641 -0.061725 0
-0.144254 -0.080483 0
-0.143901 -0.100527 0
-0.143477 -0.122042 0
-0.142852 -0.145117 0
-0.141868 -0.169704 0
-0.140341 -0.195572 0
-0.138063 -0.222271 0
-0.134805 -0.249102 0
-0.130308 -0.275097 0
-0.124265 -0.298969 0
-0.116260 -0.318972 0
-0.105578 -0.332363 0
-0.090794 -0.333603 0
-0.069221 -0.309088 0
-0.037574 -0.223121 0
0.000000 -0.079149 0
0.000000 0.131363 0
-0.022851 0.284042 0
-0.048298 0.308950 0
-0.070535 0.312844 0
-0.089120 0.309972 0
-0.104058 0.300692 0
-0.115592 0.286198 0
-0.124105 0.267825 0
-0.130031 0.246839 0
-0.133797 0.224310 0
-0.135802 0.201084 0
-0.136409 0.177805 0
-0.135947 0.154945 0
-0.134712 0.132835 0
-0.132966 0.111679 0
-0.130933 0.091574 0
-0.128805 0.072525 0
-0.126736 0.054458 0
-0.124845 0.037234 0
-0.123217 0.020660 0
-0.121907 0.004501 0
-0.120933 -0.011509 0
-0.120279 -0.027702 0
-0.119906 -0.044414 0
-0.119763 -0.061948 0
-0.119781 -0.080600 0
-0.119880 -0.100631 0
-0.119957 -0.122248 0
-0.119889 -0.145569 0
-0.119525 -0.170570 0
-0.118690 -0.197046 0
-0.117189 -0.224568 0
-0.114803 -0.252463 0
-0.111292 -0.279789 0
-0.106386 -0.305322 0
-0.099748 -0.327474 0
-0.090858 -0.343940 0
-0.078649 -0.350150 0
-0.060792 -0.333628 0
-0.033702 -0.255722 0
0.000000 -0.097044 0
0.000000 0.141701 0
-0.018534 0.306167 0
-0.040285 0.331047 0
-0.059337 0.331753 0
-0.075209 0.325464 0
-0.087896 0.312878 0
-0.097602 0.295366 0
-0.104648 0.274351 0
-0.109403 0.251124 0
-0.112239 0.226740 0
-0.113508 0.202021 0
-0.113540 0.177582 0
-0.112641 0.153864 0
-0.111087 0.131168 0
-0.109127 0.109665 0
-0.106974 0.089416 0
-0.104805 0.070391 0
-0.102762 0.052480 0
-0.100954 0.035510 0
-0.099456 0.019256 0
-0.098312 0.003450 0
-0.097536 -0.012211 0
-0.097102 -0.028085 0
-0.096969 -0.044526 0
-0.097079 -0.061850 0
-0.097367 -0.080366 0
-0.097751 -0.100351 0
-0.098139 -0.122033 0
-0.098414 -0.145549 0
-0.098443 -0.170902 0
-0.098071 -0.197908 0
-0.097122 -0.226158 0
-0.095405 -0.254999 0
-0.092706 -0.283514 0
-0.088789 -0.310514 0
-0.083381 -0.334499 0
-0.076112 -0.353462 0
-0.066238 -0.363670 0
-0.051885 -0.354035 0
-0.029417 -0.283913 0
0.000000 -0.112851 0
0.000000 0.149897 0
-0.014300 0.324327 0
-0.032464 0.349754 0
-0.048454 0.347768 0
-0.061734 0.338532 0
-0.072294 0.323085 0
-0.080297 0.302949 0
-0.086005 0.279626 0
-0.089726 0.254430 0
-0.091777 0.228414 0
-0.092464 0.202385 0
-0.092083 0.176938 0
-0.090912 0.152493 0
-0.089207 0.129322 0
-0.087193 0.107566 0
-0.085067 0.087252 0
-0.082987 0.068314 0
-0.081077 0.050607 0
-0.079428 0.033927 0
-0.078102 0.018018 0
-0.077136 0.002582 0
-0.076537 -0.012719 0
-0.076273 -0.028269 0
-0.076300 -0.044437 0
-0.076561 -0.061550 0
-0.076988 -0.079927 0
-0.077508 -0.099858 0
-0.078034 -0.121586 0
-0.078467 -0.145264 0
-0.078694 -0.170914 0
-0.078586 -0.198367 0
-0.078003 -0.227234 0
-0.076788 -0.256879 0
-0.074766 -0.286405 0
-0.071741 -0.314647 0
-0.067494 -0.340151 0
-0.061762 -0.361084 0
-0.054062 -0.374377 0
-0.042984 -0.370449 0
-0.025024 -0.307607 0
0.000000 -0.126460 0
0.000000 0.156000 0
-0.010162 0.338631 0
-0.024864 0.365202 0
-0.037932 0.361023 0
-0.048753 0.349305 0
-0.057316 0.331441 0
-0.063741 0.309077 0
-0.068239 0.283781 0
-0.071057 0.256895 0
-0.072459 0.229478 0
-0.072708 0.202328 0
-0.072062 0.176030 0
-0.070768 0.150988 0
-0.069056 0.127450 0
-0.067127 0.105526 0
-0.065151 0.085210 0
-0.063264 0.066400 0
-0.061567 0.048920 0
-0.060131 0.032536 0
-0.059005 0.016965 0
-0.058215 0.001885 0
-0.057763 -0.013074 0
-0.057615 -0.028321 0
-0.057725 -0.044238 0
-0.058036 -0.061162 0
-0.058485 -0.079419 0
-0.059004 -0.099305 0
-0.059520 -0.121074 0
-0.059952 -0.144890 0
-0.060213 -0.170783 0
-0.060210 -0.198598 0
-0.059842 -0.227956 0
-0.058998 -0.258236 0
-0.057550 -0.288561 0
-0.055348 -0.317785 0
-0.052228 -0.344477 0
-0.048003 -0.366894 0
-0.042375 -0.382448 0
-0.034355 -0.383072 0
-0.020702 -0.326897 0
0.000000 -0.137875 0
0.000000 0.160059 0
-0.006111 0.349190 0
-0.017465 0.377523 0
-0.027743 0.371657 0
-0.036238 0.357916 0
-0.042926 0.338073 0
-0.047896 0.313872 0
-0.051303 0.286942 0
-0.053340 0.258650 0
-0.054220 0.230065 0
-0.054160 0.201988 0
-0.053379 0.174998 0
-0.052092 0.149487 0
-0.050494 0.125681 0
-0.048759 0.103661 0
-0.047028 0.083389 0
-0.045410 0.064729 0
-0.043981 0.047475 0
-0.042793 0.031366 0
-0.041878 0.016102 0
-0.041253 0.001339 0
-0.040916 -0.013319 0
-0.040829 -0.028307 0
-0.040947 -0.044016 0
-0.041216 -0.060791 0
-0.041580 -0.078959 0
-0.041981 -0.098824 0
-0.042361 -0.120638 0
-0.042663 -0.144571 0
-0.042830 -0.170655 0
-0.042808 -0.198738 0
-0.042544 -0.228446 0
-0.041976 -0.259171 0
-0.041029 -0.290054 0
-0.039607 -0.319969 0
-0.037595 -0.347497 0
-0.034871 -0.370936 0
-0.031260 -0.388025 0
-0.026110 -0.392122 0
-0.016535 -0.341962 0
0.000000 -0.147163 0
0.000000 0.162112 0
-0.002156 0.356095 0
-0.010206 0.386833 0
-0.017808 0.379796 0
-0.024093 0.364488 0
-0.029021 0.343099 0
-0.032644 0.317453 0
-0.035069 0.289226 0
-0.036437 0.259813 0
-0.036906 0.230297 0
-0.036649 0.201487 0
-0.035844 0.173962 0
-0.034666 0.148103 0
-0.033277 0.124117 0
-0.031817 0.102060 0
-0.030396 0.081860 0
-0.029094 0.063353 0
-0.027965 0.046304 0
-0.027042 0.030433 0
-0.026341 0.015425 0
-0.025866 0.000922 0
-0.025608 -0.013498 0
-0.025526 -0.028290 0
-0.025580 -0.043851 0
-0.025723 -0.060530 0
-0.025910 -0.078654 0
-0.026096 -0.098524 0
-0.026240 -0.120392 0
-0.026312 -0.144421 0
-0.026291 -0.170638 0
-0.026166 -0.198884 0
-0.025932 -0.228789 0
-0.025582 -0.259751 0
-0.025093 -0.290931 0
-0.024426 -0.321219 0
-0.023520 -0.349213 0
-0.022304 -0.373229 0
-0.020683 -0.391210 0
-0.018258 -0.397797 0
-0.012546 -0.353007 0
0.000000 -0.154411 0
0.000000 0.162216 0
0.001662 0.359396 0
-0.002982 0.393175 0
-0.008004 0.385544 0
-0.012186 0.369128 0
-0.015445 0.346624 0
-0.017814 0.319921 0
-0.019352 0.290735 0
-0.020143 0.260487 0
-0.020296 0.230277 0
-0.019934 0.200926 0
-0.019191 0.173015 0
-0.018200 0.146920 0
-0.017086 0.122831 0
-0.015953 0.100780 0
-0.014881 0.080666 0
-0.013921 0.062299 0
-0.013104 0.045422 0
-0.012446 0.029742 0
-0.011952 0.014926 0
-0.011607 0.000606 0
-0.011382 -0.013660 0
-0.011245 -0.028335 0
-0.011167 -0.043818 0
-0.011112 -0.060460 0
-0.011046 -0.078587 0
-0.010940 -0.098493 0
-0.010777 -0.120421 0
-0.010553 -0.144520 0
-0.010287 -0.170802 0
-0.010013 -0.199096 0
-0.009777 -0.229030 0
-0.009621 -0.260010 0
-0.009579 -0.291210 0
-0.009665 -0.321542 0
-0.009872 -0.349619 0
-0.010178 -0.373774 0
-0.010543 -0.392071 0
-0.010742 -0.400259 0
-0.008713 -0.360220 0
0.000000 -0.159708 0
0.000000 0.160449 0
0.005391 0.359078 0
0.004268 0.396499 0
0.001803 0.389000 0
-0.000338 0.371929 0
-0.002003 0.348728 0
-0.003194 0.321359 0
-0.003918 0.291554 0
-0.004208 0.260757 0
-0.004118 0.230088 0
-0.003720 0.200383 0
-0.003102 0.172228 0
-0.002352 0.145998 0
-0.001554 0.121870 0
-0.000775 0.099854 0
-0.000064 0.079828 0
0.000554 0.061575 0
0.001067 0.044829 0
0.001479 0.029281 0
0.001801 0.014586 0
0.002048 0.000352 0
0.002286 -0.013861 0
0.002531 -0.028505 0
0.002798 -0.043984 0
0.003108 -0.060650 0
0.003483 -0.078825 0
0.003931 -0.098794 0
0.004445 -0.120779 0
0.004994 -0.144911 0
0.005522 -0.171178 0
0.005949 -0.199394 0
0.006183 -0.229181 0
0.006131 -0.259949 0
0.005710 -0.290887 0
0.004852 -0.320926 0
0.003512 -0.348699 0
0.001664 -0.372559 0
-0.000695 -0.390646 0
-0.003460 -0.399626 0
-0.004989 -0.363748 0
0.000000 -0.163124 0
0.000000 0.156825 0
0.009141 0.355128 0
0.011612 0.396762 0
0.011742 0.390150 0
0.011623 0.372934 0
0.011504 0.349481 0
0.011444 0.321836 0
0.011483 0.291749 0
0.011643 0.260686 0
0.011927 0.229789 0
0.012314 0.199910 0
0.012769 0.171647 0
0.013249 0.145372 0
0.013713 0.121255 0
0.014133 0.099290 0
0.014493 0.079337 0
0.014790 0.061167 0
0.015032 0.044497 0
0.015242 0.029008 0
0.015448 0.014357 0
0.015671 0.000121 0
0.015963 -0.014143 0
0.016348 -0.028846 0
0.016838 -0.044395 0
0.017440 -0.061146 0
0.018154 -0.079410 0
0.018967 -0.099456 0
0.019842 -0.121484 0
0.020715 -0.145597 0
0.021489 -0.171756 0
0.022042 -0.199758 0
0.022238 -0.229213 0
0.021936 -0.259537 0
0.021006 -0.289931 0
0.019329 -0.319343 0
0.016810 -0.346431 0
0.013378 -0.369567 0
0.008996 -0.386947 0
0.003711 -0.395965 0
-0.001293 -0.363680 0
0.000000 -0.164697 0
0.000000 0.151309 0
0.012991 0.347466 0
0.019176 0.393898 0
0.021958 0.388989 0
0.023842 0.372167 0
0.025250 0.348906 0
0.026300 0.321381 0
0.027079 0.291356 0
0.027668 0.260313 0
0.028126 0.229417 0
0.028488 0.199540 0
0.028771 0.171294 0
0.028983 0.145054 0
0.029126 0.120986 0
0.029211 0.099074 0
0.029252 0.079171 0
0.029269 0.061036 0
0.029291 0.044377 0
0.029352 0.028866 0
0.029492 0.014157 0
0.029753 -0.000163 0
0.030147 -0.014538 0
0.030707 -0.029380 0
0.031445 -0.045075 0
0.032355 -0.061966 0
0.033418 -0.080352 0
0.034595 -0.100482 0
0.035818 -0.122528 0
0.036987 -0.146558 0
0.037967 -0.172505 0
0.038594 -0.200143 0
0.038690 -0.229075 0
0.038072 -0.258717 0
0.036562 -0.288280 0
0.033995 -0.316730 0
0.030225 -0.342748 0