# vtk DataFile Version 2.0
generated by CFD-lab course output (written by Tobias Neckel) 
ASCII

DATASET STRUCTURED_GRID
DIMENSIONS  41 41 1 
POINTS 1681 float

0.150000 0.150000 0
0.167857 0.150000 0
0.185714 0.150000 0
0.203571 0.150000 0
0.221429 0.150000 0
0.239286 0.150000 0
0.257143 0.150000 0
0.275000 0.150000 0
0.292857 0.150000 0
0.310714 0.150000 0
0.328571 0.150000 0
0.346429 0.150000 0
0.364286 0.150000 0
0.382143 0.150000 0
0.400000 0.150000 0
0.417857 0.150000 0
0.435714 0.150000 0
0.453571 0.150000 0
0.471429 0.150000 0
0.489286 0.150000 0
0.507143 0.150000 0
0.525000 0.150000 0
0.542857 0.150000 0
0.560714 0.150000 0
0.578571 0.150000 0
0.596429 0.150000 0
0.614286 0.150000 0
0.632143 0.150000 0
0.650000 0.150000 0
0.667857 0.150000 0
0.685714 0.150000 0
0.703571 0.150000 0
0.721429 0.150000 0
0.739286 0.150000 0
0.757143 0.150000 0
0.775000 0.150000 0
0.792857 0.150000 0
0.810714 0.150000 0
0.828571 0.150000 0
0.846429 0.150000 0
0.864286 0.150000 0
0.150000 0.167857 0
0.167857 0.167857 0
0.185714 0.167857 0
0.203571 0.167857 0
0.221429 0.167857 0
0.239286 0.167857 0
0.257143 0.167857 0
0.275000 0.167857 0
0.292857 0.167857 0
0.310714 0.167857 0
0.328571 0.167857 0
0.346429 0.167857 0
0.364286 0.167857 0
0.382143 0.167857 0
0.400000 0.167857 0
0.417857 0.167857 0
0.435714 0.167857 0
0.453571 0.167857 0
0.471429 0.167857 0
0.489286 0.167857 0
0.507143 0.167857 0
0.525000 0.167857 0
0.542857 0.167857 0
0.560714 0.167857 0
0.578571 0.167857 0
0.596429 0.167857 0
0.614286 0.167857 0
0.632143 0.167857 0
0.650000 0.167857 0
0.667857 0.167857 0
0.685714 0.167857 0
0.703571 0.167857 0
0.721429 0.167857 0
0.739286 0.167857 0
0.757143 0.167857 0
0.775000 0.167857 0
0.792857 0.167857 0
0.810714 0.167857 0
0.828571 0.167857 0
0.846429 0.167857 0
0.864286 0.167857 0
0.150000 0.185714 0
0.167857 0.185714 0
0.185714 0.185714 0
0.203571 0.185714 0
0.221429 0.185714 0
0.239286 0.185714 0
0.257143 0.185714 0
0.275000 0.185714 0
0.292857 0.185714 0
0.310714 0.185714 0
0.328571 0.185714 0
0.346429 0.185714 0
0.364286 0.185714 0
0.382143 0.185714 0
0.400000 0.185714 0
0.417857 0.185714 0
0.435714 0.185714 0
0.453571 0.185714 0
0.471429 0.185714 0
0.489286 0.185714 0
0.507143 0.185714 0
0.525000 0.185714 0
0.542857 0.185714 0
0.560714 0.185714 0
0.578571 0.185714 0
0.596429 0.185714 0
0.614286 0.185714 0
0.632143 0.185714 0
0.650000 0.185714 0
0.667857 0.185714 0
0.685714 0.185714 0
0.703571 0.185714 0
0.721429 0.185714 0
0.739286 0.185714 0
0.757143 0.185714 0
0.775000 0.185714 0
0.792857 0.185714 0
0.810714 0.185714 0
0.828571 0.185714 0
0.846429 0.185714 0
0.864286 0.185714 0
0.150000 0.203571 0
0.167857 0.203571 0
0.185714 0.203571 0
0.203571 0.203571 0
0.221429 0.203571 0
0.239286 0.203571 0
0.257143 0.203571 0
0.275000 0.203571 0
0.292857 0.203571 0
0.310714 0.203571 0
0.328571 0.203571 0
0.346429 0.203571 0
0.364286 0.203571 0
0.382143 0.203571 0
0.400000 0.203571 0
0.417857 0.203571 0
0.435714 0.203571 0
0.453571 0.203571 0
0.471429 0.203571 0
0.489286 0.203571 0
0.507143 0.203571 0
0.525000 0.203571 0
0.542857 0.203571 0
0.560714 0.203571 0
0.578571 0.203571 0
0.596429 0.203571 0
0.614286 0.203571 0
0.632143 0.203571 0
0.650000 0.203571 0
0.667857 0.203571 0
0.685714 0.203571 0
0.703571 0.203571 0
0.721429 0.203571 0
0.739286 0.203571 0
0.757143 0.203571 0
0.775000 0.203571 0
0.792857 0.203571 0
0.810714 0.203571 0
0.828571 0.203571 0
0.846429 0.203571 0
0.864286 0.203571 0
0.150000 0.221429 0
0.167857 0.221429 0
0.185714 0.221429 0
0.203571 0.221429 0
0.221429 0.221429 0
0.239286 0.221429 0
0.257143 0.221429 0
0.275000 0.221429 0
0.292857 0.221429 0
0.310714 0.221429 0
0.328571 0.221429 0
0.346429 0.221429 0
0.364286 0.221429 0
0.382143 0.221429 0
0.400000 0.221429 0
0.417857 0.221429 0
0.435714 0.221429 0
0.453571 0.221429 0
0.471429 0.221429 0
0.489286 0.221429 0
0.507143 0.221429 0
0.525000 0.221429 0
0.542857 0.221429 0
0.560714 0.221429 0
0.578571 0.221429 0
0.596429 0.221429 0
0.614286 0.221429 0
0.632143 0.221429 0
0.650000 0.221429 0
0.667857 0.221429 0
0.685714 0.221429 0
0.703571 0.221429 0
0.721429 0.221429 0
0.739286 0.221429 0
0.757143 0.221429 0
0.775000 0.221429 0
0.792857 0.221429 0
0.810714 0.221429 0
0.828571 0.221429 0
0.846429 0.221429 0
0.864286 0.221429 0
0.150000 0.239286 0
0.167857 0.239286 0
0.185714 0.239286 0
0.203571 0.239286 0
0.221429 0.239286 0
0.239286 0.239286 0
0.257143 0.239286 0
0.275000 0.239286 0
0.292857 0.239286 0
0.310714 0.239286 0
0.328571 0.239286 0
0.346429 0.239286 0
0.364286 0.239286 0
0.382143 0.239286 0
0.400000 0.239286 0
0.417857 0.239286 0
0.435714 0.239286 0
0.453571 0.239286 0
0.471429 0.239286 0
0.489286 0.239286 0
0.507143 0.239286 0
0.525000 0.239286 0
0.542857 0.239286 0
0.560714 0.239286 0
0.578571 0.239286 0
0.596429 0.239286 0
0.614286 0.239286 0
0.632143 0.239286 0
0.650000 0.239286 0
0.667857 0.239286 0
0.685714 0.239286 0
0.703571 0.239286 0
0.721429 0.239286 0
0.739286 0.239286 0
0.757143 0.239286 0
0.775000 0.239286 0
0.792857 0.239286 0
0.810714 0.239286 0
0.828571 0.239286 0
0.846429 0.239286 0
0.864286 0.239286 0
0.150000 0.257143 0
0.167857 0.257143 0
0.185714 0.257143 0
0.203571 0.257143 0
0.221429 0.257143 0
0.239286 0.257143 0
0.257143 0.257143 0
0.275000 0.257143 0
0.292857 0.257143 0
0.310714 0.257143 0
0.328571 0.257143 0
0.346429 0.257143 0
0.364286 0.257143 0
0.382143 0.257143 0
0.400000 0.257143 0
0.417857 0.257143 0
0.435714 0.257143 0
0.453571 0.257143 0
0.471429 0.257143 0
0.489286 0.257143 0
0.507143 0.257143 0
0.525000 0.257143 0
0.542857 0.257143 0
0.560714 0.257143 0
0.578571 0.257143 0
0.596429 0.257143 0
0.614286 0.257143 0
0.632143 0.257143 0
0.650000 0.257143 0
0.667857 0.257143 0
0.685714 0.257143 0
0.703571 0.257143 0
0.721429 0.257143 0
0.739286 0.257143 0
0.757143 0.257143 0
0.775000 0.257143 0
0.792857 0.257143 0
0.810714 0.257143 0
0.828571 0.257143 0
0.846429 0.257143 0
0.864286 0.257143 0
0.150000 0.275000 0
0.167857 0.275000 0
0.185714 0.275000 0
0.203571 0.275000 0
0.221429 0.275000 0
0.239286 0.275000 0
0.257143 0.275000 0
0.275000 0.275000 0
0.292857 0.275000 0
0.310714 0.275000 0
0.328571 0.275000 0
0.346429 0.275000 0
0.364286 0.275000 0
0.382143 0.275000 0
0.400000 0.275000 0
0.417857 0.275000 0
0.435714 0.275000 0
0.453571 0.275000 0
0.471429 0.275000 0
0.489286 0.275000 0
0.507143 0.275000 0
0.525000 0.275000 0
0.542857 0.275000 0
0.560714 0.275000 0
0.578571 0.275000 0
0.596429 0.275000 0
0.614286 0.275000 0
0.632143 0.275000 0
0.650000 0.275000 0
0.667857 0.275000 0
0.685714 0.275000 0
0.703571 0.275000 0
0.721429 0.275000 0
0.739286 0.275000 0
0.757143 0.275000 0
0.775000 0.275000 0
0.792857 0.275000 0
0.810714 0.275000 0
0.828571 0.275000 0
0.846429 0.275000 0
0.864286 0.275000 0
0.150000 0.292857 0
0.167857 0.292857 0
0.185714 0.292857 0
0.203571 0.292857 0
0.221429 0.292857 0
0.239286 0.292857 0
0.257143 0.292857 0
0.275000 0.292857 0
0.292857 0.292857 0
0.310714 0.292857 0
0.328571 0.292857 0
0.346429 0.292857 0
0.364286 0.292857 0
0.382143 0.292857 0
0.400000 0.292857 0
0.417857 0.292857 0
0.435714 0.292857 0
0.453571 0.292857 0
0.471429 0.292857 0
0.489286 0.292857 0
0.507143 0.292857 0
0.525000 0.292857 0
0.542857 0.292857 0
0.560714 0.292857 0
0.578571 0.292857 0
0.596429 0.292857 0
0.614286 0.292857 0
0.632143 0.292857 0
0.650000 0.292857 0
0.667857 0.292857 0
0.685714 0.292857 0
0.703571 0.292857 0
0.721429 0.292857 0
0.739286 0.292857 0
0.757143 0.292857 0
0.775000 0.292857 0
0.792857 0.292857 0
0.810714 0.292857 0
0.828571 0.292857 0
0.846429 0.292857 0
0.864286 0.292857 0
0.150000 0.310714 0
0.167857 0.310714 0
0.185714 0.310714 0
0.203571 0.310714 0
0.221429 0.310714 0
0.239286 0.310714 0
0.257143 0.310714 0
0.275000 0.310714 0
0.292857 0.310714 0
0.310714 0.310714 0
0.328571 0.310714 0
0.346429 0.310714 0
0.364286 0.310714 0
0.382143 0.310714 0
0.400000 0.310714 0
0.417857 0.310714 0
0.435714 0.310714 0
0.453571 0.310714 0
0.471429 0.310714 0
0.489286 0.310714 0
0.507143 0.310714 0
0.525000 0.310714 0
0.542857 0.310714 0
0.560714 0.310714 0
0.578571 0.310714 0
0.596429 0.310714 0
0.614286 0.310714 0
0.632143 0.310714 0
0.650000 0.310714 0
0.667857 0.310714 0
0.685714 0.310714 0
0.703571 0.310714 0
0.721429 0.310714 0
0.739286 0.310714 0
0.757143 0.310714 0
0.775000 0.310714 0
0.792857 0.310714 0
0.810714 0.310714 0
0.828571 0.310714 0
0.846429 0.310714 0
0.864286 0.310714 0
0.150000 0.328571 0
0.167857 0.328571 0
0.185714 0.328571 0
0.203571 0.328571 0
0.221429 0.328571 0
0.239286 0.328571 0
0.257143 0.328571 0
0.275000 0.328571 0
0.292857 0.328571 0
0.310714 0.328571 0
0.328571 0.328571 0
0.346429 0.328571 0
0.364286 0.328571 0
0.382143 0.328571 0
0.400000 0.328571 0
0.417857 0.328571 0
0.435714 0.328571 0
0.453571 0.328571 0
0.471429 0.328571 0
0.489286 0.328571 0
0.507143 0.328571 0
0.525000 0.328571 0
0.542857 0.328571 0
0.560714 0.328571 0
0.578571 0.328571 0
0.596429 0.328571 0
0.614286 0.328571 0
0.632143 0.328571 0
0.650000 0.328571 0
0.667857 0.328571 0
0.685714 0.328571 0
0.703571 0.328571 0
0.721429 0.328571 0
0.739286 0.328571 0
0.757143 0.328571 0
0.775000 0.328571 0
0.792857 0.328571 0
0.810714 0.328571 0
0.828571 0.328571 0
0.846429 0.328571 0
0.864286 0.328571 0
0.150000 0.346429 0
0.167857 0.346429 0
0.185714 0.346429 0
0.203571 0.346429 0
0.221429 0.346429 0
0.239286 0.346429 0
0.257143 0.346429 0
0.275000 0.346429 0
0.292857 0.346429 0
0.310714 0.346429 0
0.328571 0.346429 0
0.346429 0.346429 0
0.364286 0.346429 0
0.382143 0.346429 0
0.400000 0.346429 0
0.417857 0.346429 0
0.435714 0.346429 0
0.453571 0.346429 0
0.471429 0.346429 0
0.489286 0.346429 0
0.507143 0.346429 0
0.525000 0.346429 0
0.542857 0.346429 0
0.560714 0.346429 0
0.578571 0.346429 0
0.596429 0.346429 0
0.614286 0.346429 0
0.632143 0.346429 0
0.650000 0.346429 0
0.667857 0.346429 0
0.685714 0.346429 0
0.703571 0.346429 0
0.721429 0.346429 0
0.739286 0.346429 0
0.757143 0.346429 0
0.775000 0.346429 0
0.792857 0.346429 0
0.810714 0.346429 0
0.828571 0.346429 0
0.846429 0.346429 0
[...]
POINT_DATA 1681 

VECTORS velocity float
0.000000 0.000000 0
0.000454 0.000000 0
0.001242 0.000000 0
0.000943 0.000000 0
-0.000538 0.000000 0
-0.002827 0.000000 0
-0.005601 0.000000 0
-0.008698 0.000000 0
-0.012080 0.000000 0
-0.016110 0.000000 0
-0.020854 0.000000 0
-0.026429 0.000000 0
-0.032875 0.000000 0
-0.040116 0.000000 0
-0.047955 0.000000 0
-0.056101 0.000000 0
-0.064347 0.000000 0
-0.072338 0.000000 0
-0.079812 0.000000 0
-0.086559 0.000000 0
-0.092435 0.000000 0
-0.097357 0.000000 0
-0.101274 0.000000 0
-0.104232 0.000000 0
-0.106157 0.000000 0
-0.106982 0.000000 0
-0.106594 0.000000 0
-0.104833 0.000000 0
-0.101572 0.000000 0
-0.096692 0.000000 0
-0.090157 0.000000 0
-0.081814 0.000000 0
-0.071566 0.000000 0
-0.059386 0.000000 0
-0.045430 0.000000 0
-0.030181 0.000000 0
-0.014651 0.000000 0
-0.001085 0.000000 0
0.006681 0.000000 0
0.004631 0.000000 0
0.000000 0.000000 0
0.000000 -0.000454 0
-0.003887 -0.001242 0
-0.008969 -0.000489 0
-0.015407 0.001780 0
-0.023319 0.003770 0
-0.032310 0.005063 0
-0.042040 0.005872 0
-0.052365 0.006479 0
-0.063336 0.007412 0
-0.075203 0.008773 0
-0.088076 0.010319 0
-0.101990 0.012021 0
-0.116846 0.013686 0
-0.132399 0.015081 0
-0.148270 0.015985 0
-0.164003 0.016392 0
-0.179163 0.016237 0
-0.193275 0.015465 0
-0.205954 0.014220 0
-0.216909 0.012623 0
-0.225952 0.010799 0
-0.232980 0.008838 0
-0.237946 0.006875 0
-0.240851 0.004883 0
-0.241621 0.002750 0
-0.240146 0.000437 0
-0.236341 -0.002148 0
-0.230067 -0.005022 0
-0.221137 -0.008141 0
-0.209341 -0.011414 0
-0.194478 -0.014878 0
-0.176294 -0.018592 0
-0.154591 -0.022427 0
-0.129318 -0.026135 0
-0.100758 -0.029205 0
-0.069810 -0.030780 0
-0.038439 -0.029096 0
-0.010411 -0.021332 0
0.008145 -0.005716 0
0.008551 0.006681 0
0.000000 0.004631 0
0.000000 0.003887 0
-0.013375 0.008969 0
-0.029460 0.011521 0
-0.045265 0.014350 0
-0.060931 0.016903 0
-0.076598 0.018721 0
-0.092367 0.020054 0
-0.108326 0.021296 0
-0.124570 0.022838 0
-0.140865 0.024741 0
-0.157175 0.026787 0
-0.173295 0.028769 0
-0.188954 0.030409 0
-0.203852 0.031424 0
-0.217707 0.031605 0
-0.230287 0.030893 0
-0.241296 0.029272 0
-0.250626 0.026791 0
-0.258177 0.023633 0
-0.263911 0.019998 0
-0.267827 0.016071 0
-0.269947 0.011994 0
-0.270304 0.007872 0
-0.268837 0.003675 0
-0.265549 -0.000705 0
-0.260464 -0.005280 0
-0.253544 -0.010079 0
-0.244735 -0.015204 0
-0.233900 -0.020726 0
-0.220839 -0.026659 0
-0.205245 -0.033047 0
-0.186902 -0.039887 0
-0.165597 -0.046976 0
-0.141243 -0.053833 0
-0.114005 -0.059509 0
-0.084533 -0.062319 0
-0.054348 -0.059399 0
-0.025970 -0.046585 0
-0.003374 -0.018962 0
0.006739 0.008145 0
0.000000 0.008551 0
0.000000 0.012921 0
-0.020495 0.028218 0
-0.043031 0.031401 0
-0.064047 0.033251 0
-0.083773 0.035102 0
-0.102547 0.036499 0
-0.120640 0.037600 0
-0.138191 0.038683 0
-0.155198 0.039951 0
-0.171449 0.041378 0
-0.186776 0.042749 0
-0.200963 0.043800 0
-0.213790 0.044243 0
-0.225078 0.043834 0
-0.234716 0.042421 0
-0.242663 0.039982 0
-0.248905 0.036576 0
-0.253542 0.032346 0
-0.256694 0.027504 0
-0.258490 0.022273 0
-0.259035 0.016835 0
-0.258405 0.011315 0
-0.256632 0.005764 0
-0.253688 0.000128 0
-0.249586 -0.005623 0
-0.244342 -0.011568 0
-0.237825 -0.017878 0
-0.229912 -0.024666 0
-0.220446 -0.032037 0
-0.209237 -0.040069 0
-0.196032 -0.048815 0
-0.180607 -0.058240 0
-0.162740 -0.068086 0
-0.142267 -0.077727 0
-0.119162 -0.085916 0
-0.093687 -0.090436 0
-0.066618 -0.087659 0
-0.039463 -0.072307 0
-0.014942 -0.038425 0
0.003117 0.003307 0
0.000000 0.011370 0
0.000000 0.024382 0
-0.023644 0.052000 0
-0.048931 0.055073 0
-0.072071 0.055092 0
-0.093256 0.055403 0
-0.112820 0.055588 0
-0.131046 0.055698 0
-0.148081 0.055854 0
-0.163919 0.056096 0
-0.178429 0.056319 0
-0.191467 0.056300 0
-0.202896 0.055782 0
-0.212613 0.054524 0
-0.220584 0.052351 0
-0.226852 0.049190 0
-0.231529 0.045081 0
-0.234771 0.040151 0
-0.236781 0.034581 0
-0.237751 0.028581 0
-0.237839 0.022339 0
-0.237149 0.015987 0
-0.235728 0.009592 0
-0.233573 0.003154 0
-0.230643 -0.003372 0
-0.226953 -0.010051 0
-0.222379 -0.017040 0
-0.216834 -0.024510 0
-0.210222 -0.032584 0
-0.202423 -0.041401 0
-0.193290 -0.051073 0
-0.182640 -0.061677 0
-0.170280 -0.073178 0
-0.155994 -0.085315 0
-0.139554 -0.097411 0
-0.120749 -0.108089 0
-0.099462 -0.114863 0
-0.075808 -0.113622 0
-0.050390 -0.098261 0
-0.024827 -0.061542 0
-0.002738 -0.006796 0
0.000000 0.011668 0
0.000000 0.036565 0
-0.024032 0.077148 0
-0.049698 0.079829 0
-0.072950 0.077576 0
-0.093898 0.075850 0
-0.112825 0.074289 0
-0.129983 0.072861 0
-0.145520 0.071556 0
-0.159470 0.070299 0
-0.171789 0.068926 0
-0.182422 0.067216 0
-0.191332 0.064945 0
-0.198534 0.061931 0
-0.204105 0.058073 0
-0.208188 0.053367 0
-0.210970 0.047901 0
-0.212659 0.041828 0
-0.213465 0.035325 0
-0.213559 0.028563 0
-0.213061 0.021671 0
-0.212034 0.014724 0
-0.210494 0.007739 0
-0.208422 0.000680 0
-0.205780 -0.006492 0
-0.202553 -0.013887 0
-0.198632 -0.021687 0
-0.193976 -0.030034 0
-0.188518 -0.039077 0
-0.182183 -0.048970 0
-0.174880 -0.059853 0
-0.166493 -0.071825 0
-0.156880 -0.084885 0
-0.145851 -0.098812 0
-0.133149 -0.112971 0
-0.118432 -0.126008 0
-0.101284 -0.135378 0
-0.081304 -0.136730 0
-0.058356 -0.123288 0
-0.033219 -0.086077 0
-0.009232 -0.021519 0
0.000000 0.008631 0
0.000000 0.048413 0
-0.022768 0.101698 0
-0.047379 0.103991 0
-0.069538 0.099292 0
-0.089258 0.095278 0
-0.106769 0.091673 0
-0.122291 0.088394 0
-0.135977 0.085341 0
-0.147908 0.082365 0
-0.158120 0.079270 0
-0.166646 0.075842 0
-0.173544 0.071895 0
-0.178910 0.067298 0
-0.182890 0.062005 0
-0.185665 0.056054 0
-0.187435 0.049553 0
-0.188394 0.042646 0
-0.188710 0.035481 0
-0.188507 0.028177 0
-0.187859 0.020814 0
-0.186801 0.013420 0
-0.185334 0.005979 0
-0.183442 -0.001561 0
-0.181119 -0.009241 0
-0.178307 -0.017199 0
-0.174961 -0.025617 0
-0.171051 -0.034624 0
-0.166544 -0.044377 0
-0.161405 -0.055039 0
-0.155593 -0.066763 0
-0.149049 -0.079677 0
-0.141689 -0.093820 0
-0.133371 -0.109046 0
-0.123849 -0.124830 0
-0.112726 -0.139954 0
-0.099403 -0.151991 0
-0.083115 -0.156550 0
-0.063146 -0.146345 0
-0.039518 -0.110666 0
-0.014772 -0.040016 0
0.000000 0.002436 0
0.000000 0.059333 0
-0.020603 0.124528 0
-0.043370 0.126599 0
-0.063794 0.119455 0
-0.081788 0.113082 0
-0.097541 0.107322 0
-0.111246 0.102069 0
-0.123063 0.097173 0
-0.133114 0.092442 0
-0.141496 0.087665 0
-0.148311 0.082640 0
-0.153679 0.077209 0
-0.157747 0.071277 0
-0.160689 0.064827 0
-0.162687 0.057912 0
-0.163922 0.050631 0
-0.164548 0.043103 0
-0.164687 0.035437 0
-0.164418 0.027712 0
-0.163788 0.019965 0
-0.162811 0.012198 0
-0.161489 0.004380 0
-0.159817 -0.003535 0
-0.157799 -0.011626 0
-0.155370 -0.020045 0
-0.152517 -0.028943 0
-0.149227 -0.038451 0
-0.145489 -0.048723 0
-0.141295 -0.059922 0
-0.136641 -0.072209 0
-0.131514 -0.085728 0
-0.125882 -0.100564 0
-0.119658 -0.116652 0
-0.112647 -0.133617 0
-0.104462 -0.150453 0
-0.094440 -0.164988 0
-0.081590 -0.172988 0
-0.064749 -0.166885 0
-0.043214 -0.134451 0
-0.018520 -0.061038 0
0.000000 -0.006140 0
0.000000 0.069016 0
-0.018007 0.145068 0
-0.038568 0.147182 0
-0.056991 0.137711 0
-0.073082 0.129024 0
-0.087002 0.121130 0
-0.098928 0.113916 0
-0.109025 0.107209 0
-0.117439 0.100798 0
-0.124308 0.094467 0
-0.129775 0.088025 0
-0.133997 0.081331 0
-0.137142 0.074308 0
-0.139386 0.066945 0
-0.140897 0.059287 0
-0.141823 0.051414 0
-0.142283 0.043411 0
-0.142362 0.035351 0
-0.142110 0.027278 0
-0.141553 0.019207 0
-0.140700 0.011121 0
-0.139552 0.002985 0
-0.138108 -0.005251 0
-0.136360 -0.013688 0
-0.134276 -0.022480 0
-0.131852 -0.031759 0
-0.129082 -0.041653 0
-0.125970 -0.052309 0
-0.122524 -0.063886 0
-0.118761 -0.076544 0
-0.114698 -0.090435 0
-0.110340 -0.105676 0
-0.105652 -0.122282 0
-0.100501 -0.140026 0
-0.094566 -0.158162 0
-0.087208 -0.174863 0
-0.077352 -0.186241 0
-0.063529 -0.184722 0
-0.044407 -0.156896 0
-0.020534 -0.083229 0
0.000000 -0.016083 0
0.000000 0.077339 0
-0.015282 0.163096 0
-0.033541 0.165583 0
-0.049920 0.153969 0
-0.064122 0.143093 0
-0.076288 0.133168 0
-0.086582 0.124092 0
-0.095169 0.115683 0
-0.102208 0.107725 0
-0.107855 0.100001 0
-0.112274 0.092330 0
-0.115633 0.084576 0
-0.118102 0.076666 0
-0.119847 0.068582 0
-0.121015 0.060349 0
-0.121728 0.052017 0
-0.122077 0.043642 0
-0.122122 0.035264 0
-0.121896 0.026903 0
-0.121414 0.018556 0
-0.120681 0.010197 0
-0.119694 0.001787 0
-0.118452 -0.006728 0
-0.116946 -0.015458 0
-0.115166 -0.024553 0
-0.113112 -0.034137 0
-0.110784 -0.044333 0
-0.108191 -0.055281 0
-0.105349 -0.067130 0
-0.102284 -0.080035 0
-0.099026 -0.094149 0
-0.095602 -0.109610 0
-0.092013 -0.126492 0
-0.088184 -0.144703 0
-0.083879 -0.163747 0
-0.078554 -0.182201 0
-0.071167 -0.196666 0
-0.060103 -0.199831 0
-0.043561 -0.177446 0
-0.021239 -0.105444 0
0.000000 -0.026675 0
0.000000 0.084299 0
-0.012620 0.178608 0
-0.028625 0.181820 0
-0.043045 0.168292 0
-0.055475 0.155392 0
-0.066037 0.143590 0
-0.074887 0.132798 0
-0.082184 0.122835 0
-0.088086 0.113484 0
-0.092755 0.104533 0
-0.096356 0.095803 0
-0.099053 0.087159 0
-0.101008 0.078522 0
-0.102371 0.069858 0
-0.103268 0.061169 0
-0.103802 0.052476 0
-0.104044 0.043804 0
-0.104041 0.035169 0
-0.103818 0.026571 0
-0.103384 0.017992 0
-0.102740 0.009401 0
-0.101883 0.000756 0
-0.100805 -0.007999 0
-0.099505 -0.016974 0
-0.097984 -0.026314 0
-0.096244 -0.036141 0
-0.094289 -0.046574 0
-0.092128 -0.057745 0
-0.089782 -0.069793 0
-0.087277 -0.082867 0
-0.084647 -0.097117 0
-0.081925 -0.112690 0
-0.079129 -0.129700 0
-0.076228 -0.148160 0
-0.073069 -0.167791 0
-0.069229 -0.187575 0
-0.063791 -0.204692 0
-0.055144 -0.212328 0
-0.041189 -0.195760 0
-0.020905 -0.126790 0
0.000000 -0.037322 0
0.000000 0.089959 0
-0.010120 0.191721 0
-0.024004 0.196008 0
-0.036612 0.180819 0
-0.047430 0.166085 0
-0.056565 0.152581 0
-0.064161 0.140238 0
-0.070367 0.128882 0
-0.075334 0.118296 0
-0.079216 0.108271 0
-0.082169 0.098627 0
-0.084347 0.089229 0
-0.085896 0.079984 0
-0.086947 0.070841 0
-0.087612 0.061780 0
-0.087976 0.052793 0
-0.088101 0.043882 0
-0.088026 0.035038 0
-0.087774 0.026246 0
-0.087351 0.017478 0
-0.086758 0.008696 0
-0.085989 -0.000148 0
-0.085037 -0.009105 0
-0.083902 -0.018279 0
-0.082591 -0.027814 0
-0.081110 -0.037832 0
-0.079464 -0.048448 0
-0.077663 -0.059787 0
-0.075726 -0.071981 0
-0.073679 -0.085170 0
-0.071552 -0.099502 0
-0.069377 -0.115129 0
-0.067177 -0.132188 0
-0.064946 -0.150762 0
-0.062592 -0.170745 0
-0.059816 -0.191479 0
-0.055872 -0.210752 0
-0.049274 -0.222433 0
-0.037794 -0.211685 0
-0.019828 -0.146633 0
0.000000 -0.047579 0
0.000000 0.094418 0
-0.007824 0.202612 0
-0.019755 0.208312 0
-0.030722 0.191718 0
-0.040101 0.175346 0
-0.047983 0.160322 0
-0.054498 0.146599 0
-0.059782 0.134008 0
-0.063975 0.122334 0
-0.067216 0.111369 0
-0.069647 0.100934 0
-0.071406 0.090886 0
-0.072621 0.081122 0
-0.073408 0.071574 0
-0.073864 0.062197 0
-0.074064 0.052965 0
-0.074062 0.043855 0
-0.073895 0.034842 0
-0.073585 0.025896 0
-0.073141 0.016977 0
-0.072562 0.008040 0
-0.071843 -0.000966 0
-0.070977 -0.010087 0
-0.069967 -0.019419 0
-0.068821 -0.029106 0
-0.067546 -0.039269 0
-0.066150 -0.050021 0
-0.064644 -0.061483 0
-0.063044 -0.073777 0
-0.061374 -0.087041 0
-0.059661 -0.101418 0
-0.057929 -0.117064 0
-0.056201 -0.134132 0
-0.054480 -0.152745 0
-0.052716 -0.172921 0
-0.050712 -0.194296 0
-0.047903 -0.215234 0
-0.043010 -0.230406 0
-0.033818 -0.225206 0
-0.018284 -0.164584 0
0.000000 -0.057150 0
0.000000 0.097783 0
-0.005740 0.211476 0
-0.015890 0.218907 0
-0.025388 0.201166 0
-0.033494 0.183345 0
-0.040280 0.166977 0
-0.045862 0.152037 0
-0.050363 0.138359 0
-0.053906 0.125730 0
-0.056615 0.113943 0
-0.058615 0.102817 0
-0.060025 0.092203 0
-0.060959 0.081987 0
-0.061516 0.072084 0
-0.061783 0.062435 0
-0.061825 0.052991 0
-0.061693 0.043713 0
-0.061423 0.034561 0
-0.061037 0.025492 0
-0.060546 0.016455 0
-0.059954 0.007398 0
-0.059253 -0.001733 0
-0.058440 -0.010981 0
-0.057517 -0.020436 0
-0.056493 -0.030235 0
-0.055379 -0.040503 0
-0.054181 -0.051351 0
-0.052913 -0.062894 0
-0.051590 -0.075251 0
-0.050233 -0.088553 0
-0.048864 -0.102946 0
-0.047504 -0.118588 0
-0.046168 -0.135638 0
-0.044864 -0.154247 0
-0.043566 -0.174514 0
-0.042151 -0.196293 0
-0.040219 -0.218454 0
-0.036733 -0.236517 0
-0.029608 -0.236411 0
-0.016493 -0.180452 0
0.000000 -0.065863 0
0.000000 0.100159 0
-0.003854 0.218502 0
-0.012384 0.227960 0
-0.020567 0.209322 0
-0.027549 0.190238 0
-0.033375 0.172689 0
-0.038149 0.156683 0
-0.041977 0.142052 0
-0.044966 0.128586 0
-0.047223 0.116077 0
-0.048856 0.104343 0
-0.049969 0.093230 0
-0.050659 0.082614 0
-0.051014 0.072398 0
-0.051109 0.062506 0
-0.051004 0.052875 0
-0.050746 0.043453 0
-0.050369 0.034186 0
-0.049899 0.025019 0
-0.049348 0.015894 0
-0.048723 0.006747 0
-0.048019 -0.002479 0
-0.047231 -0.011823 0
-0.046364 -0.021366 0
-0.045428 -0.031244 0
-0.044432 -0.041581 0
-0.043389 -0.052487 0
-0.042312 -0.064074 0
-0.041217 -0.076458 0
-0.040122 -0.089766 0
-0.039045 -0.104147 0
-0.038002 -0.119760 0
-0.037007 -0.136771 0
-0.036067 -0.155347 0
-0.035169 -0.175634 0
-0.034239 -0.197643 0
-0.033013 -0.220652 0
-0.030695 -0.241017 0
-0.025409 -0.245447 0
-0.014613 -0.194192 0
0.000000 -0.073643 0
0.000000 0.101637 0
-0.002134 0.223859 0
-0.009183 0.235620 0
-0.016187 0.216331 0
-0.022173 0.196154 0
-0.027153 0.177577 0
-0.031219 0.160639 0
-0.034460 0.145176 0
-0.036967 0.130976 0
-0.038832 0.117833 0
-0.040146 0.105563 0
-0.040999 0.094006 0
-0.041476 0.083032 0
-0.041651 0.072534 0
-0.041591 0.062424 0
-0.041350 0.052628 0
-0.040974 0.043078 0
-0.040496 0.033714 0
-0.039940 0.024471 0
-0.039324 0.015280 0
-0.038657 0.006069 0
-0.037934 -0.003226 0
-0.037151 -0.012637 0
-0.036319 -0.022238 0
-0.035441 -0.032167 0
-0.034532 -0.042542 0
-0.033608 -0.053471 0
-0.032686 -0.065066 0
-0.031782 -0.077441 0
-0.030909 -0.090725 0
-0.030084 -0.105066 0
-0.029319 -0.120626 0
-0.028629 -0.137573 0
-0.028021 -0.156085 0
-0.027490 -0.176341 0
-0.026992 -0.198449 0
-0.026369 -0.221998 0
-0.025038 -0.244122 0
-0.021377 -0.252493 0
-0.012755 -0.205860 0
0.000000 -0.080477 0
0.000000 0.102293 0
-0.000571 0.227685 0
-0.006220 0.242012 0
-0.012158 0.222312 0
-0.017254 0.201204 0
-0.021483 0.181735 0
-0.024919 0.163989 0
-0.027640 0.147800 0
-0.029720 0.132958 0
-0.031237 0.119257 0
-0.032269 0.106511 0
-0.032891 0.094559 0
-0.033175 0.083265 0
-0.033189 0.072513 0
-0.032990 0.062205 0
-0.032628 0.052259 0
-0.032145 0.042598 0
-0.031573 0.033152 0
-0.030938 0.023848 0
-0.030258 0.014610 0
-0.029544 0.005357 0
-0.028795 -0.003985 0
-0.028005 -0.013439 0
-0.027190 -0.023075 0
-0.026353 -0.033030 0
-0.025508 -0.043414 0
-0.024680 -0.054333 0
-0.023886 -0.065901 0
-0.023143 -0.078235 0
-0.022463 -0.091464 0
-0.021858 -0.105737 0
-0.021343 -0.121215 0
-0.020933 -0.138070 0
-0.020638 -0.156486 0
-0.020458 -0.176662 0
-0.020370 -0.198764 0
-0.020293 -0.222606 0
-0.019817 -0.246009 0
-0.017597 -0.257730 0
-0.010983 -0.215569 0
0.000000 -0.086397 0
0.000000 0.102208 0
0.000851 0.230079 0
-0.003425 0.247207 0
-0.008383 0.227365 0
-0.012676 0.205479 0
-0.016227 0.185242 0
-0.019098 0.166796 0
-0.021349 0.149977 0
-0.023044 0.134574 0
-0.024246 0.120382 0
-0.025021 0.107216 0
-0.025432 0.094912 0
-0.025543 0.083330 0
-0.025411 0.072349 0
-0.025087 0.061863 0
-0.024617 0.051782 0
-0.024039 0.042023 0
-0.023384 0.032507 0
-0.022679 0.023156 0
-0.021942 0.013887 0
-0.021183 0.004606 0
-0.020400 -0.004765 0
-0.019595 -0.014242 0
-0.018787 -0.023891 0
-0.017980 -0.033849 0
-0.017192 -0.044215 0
-0.016448 -0.055093 0
-0.015766 -0.066602 0
-0.015164 -0.078865 0
-0.014652 -0.092010 0
-0.014244 -0.106185 0
-0.013960 -0.121550 0
-0.013814 -0.138278 0
-0.013819 -0.156561 0
-0.013981 -0.176610 0
-0.014297 -0.198614 0
-0.014738 -0.222550 0
-0.015026 -0.246818 0
-0.014091 -0.261327 0
-0.009325 -0.223457 0
0.000000 -0.091460 0
0.000000 0.101442 0
0.002177 0.231110 0
-0.000716 0.251246 0
-0.004772 0.231564 0
-0.008323 0.209048 0
-0.011255 0.188157 0
-0.013606 0.169110 0
-0.015426 0.151746 0
-0.016766 0.135855 0
-0.017678 0.121234 0
-0.018215 0.107698 0
-0.018432 0.095082 0
-0.018383 0.083244 0
-0.018118 0.072057 0
-0.017681 0.061412 0
-0.017115 0.051211 0
-0.016454 0.041365 0
-0.015728 0.031791 0
-0.014964 0.022405 0
-0.014180 0.013114 0
-0.013379 0.003815 0
-0.012551 -0.005572 0
-0.011725 -0.015052 0
-0.010918 -0.024690 0
-0.010144 -0.034625 0
-0.009418 -0.044946 0
-0.008758 -0.055759 0
-0.008181 -0.067185 0
-0.007704 -0.079350 0
-0.007344 -0.092383 0
-0.007119 -0.106429 0
-0.007050 -0.121646 0
-0.007156 -0.138210 0
-0.007454 -0.156319 0
-0.007956 -0.176185 0
-0.008680 -0.198007 0
-0.009624 -0.221876 0
-0.010618 -0.246655 0
-0.010844 -0.263432 0
-0.007781 -0.229660 0
0.000000 -0.095722 0
0.000000 0.100031 0
0.003459 0.230795 0
0.001969 0.254156 0
-0.001203 0.234972 0
-0.004088 0.211961 0
-0.006435 0.190526 0
-0.008302 0.170968 0
-0.009721 0.153137 0
-0.010728 0.136825 0
-0.011366 0.121830 0
-0.011679 0.107971 0
-0.011713 0.095081 0
-0.011514 0.083016 0
-0.011125 0.071647 0
-0.010585 0.060861 0
-0.009933 0.050555 0
-0.009199 0.040636 0
-0.008413 0.031017 0
-0.007601 0.021608 0
-0.006783 0.012302 0
-0.005949 0.002977 0
-0.005064 -0.006419 0
-0.004217 -0.015874 0
-0.003417 -0.025473 0
-0.002683 -0.035349 0
-0.002027 -0.045600 0
-0.001453 -0.056330 0
-0.000976 -0.067656 0
-0.000618 -0.079702 0
-0.000401 -0.092595 0
-0.000350 -0.106479 0
-0.000489 -0.121513 0
-0.000840 -0.137874 0
-0.001428 -0.155761 0
-0.002277 -0.175384 0
-0.003415 -0.196946 0
-0.004853 -0.220612 0
-0.006520 -0.245598 0
-0.007812 -0.264165 0
-0.006336 -0.234301 0
0.000000 -0.099240 0
0.000000 0.097984 0
0.004738 0.229140 0
0.004667 0.255908 0
0.002425 0.237621 0
0.000178 0.214280 0
-0.001640 0.192371 0
-0.003058 0.172397 0
-0.004095 0.154172 0
-0.004783 0.137499 0
-0.005157 0.122184 0
-0.005254 0.108045 0
-0.005112 0.094917 0
-0.004768 0.082655 0
-0.004262 0.071128 0
-0.003627 0.060220 0
-0.002897 0.049825 0
-0.002099 0.039845 0
-0.001255 0.030193 0
-0.000383 0.020775 0
0.000494 0.011463 0
0.001362 0.002096 0
0.002246 -0.007304 0
0.003071 -0.016698 0
0.003834 -0.026224 0
0.004520 -0.036016 0
0.005118 -0.046177 0
0.005619 -0.056809 0
0.006003 -0.068020 0
0.006248 -0.079924 0
0.006325 -0.092651 0
0.006205 -0.106342 0
0.005860 -0.121156 0
0.005259 -0.137270 0
0.004370 -0.154882 0
0.003161 -0.174198 0
0.001606 -0.195431 0
-0.000315 -0.218771 0
-0.002646 -0.243696 0
-0.004938 -0.263616 0
-0.004966 -0.237473 0
0.000000 -0.102059 0
0.000000 0.095293 0
0.006051 0.226128 0
0.007437 0.256468 0
0.006176 0.239460 0
0.004590 0.216026 0
0.003261 0.193761 0
0.002269 0.173423 0
0.001597 0.154862 0
0.001216 0.137886 0
0.001097 0.122301 0
0.001212 0.107925 0
0.001529 0.094596 0
0.002015 0.082166 0
0.002639 0.070506 0
0.003369 0.059496 0
0.004178 0.049027 0
0.005041 0.038994 0
0.005941 0.029300 0
0.006868 0.019859 0
0.007798 0.010557 0
0.008695 0.001224 0
0.009527 -0.008128 0
0.010296 -0.017462 0
0.011006 -0.026922 0
0.011642 -0.036633 0
0.012187 -0.046698 0
0.012620 -0.057215 0
0.012916 -0.068286 0
0.013049 -0.080023 0
0.012987 -0.092553 0
0.012697 -0.106015 0
0.012141 -0.120566 0
0.011282 -0.136383 0
0.010080 -0.153664 0
0.008499 -0.172621 0
0.006503 -0.193470 0
0.004058 -0.216359 0
0.001093 -0.240974 0
-0.002147 -0.261845 0
-0.003635 -0.239239 0
0.000000 -0.104206 0
0.000000 0.091932 0
0.007433 0.221704 0
0.010352 0.255783 0
0.010134 0.240468 0
0.009213 0.217196 0
0.008384 0.194692 0
0.007810 0.174060 0
0.007490 0.155225 0
0.007404 0.138000 0
0.007536 0.122188 0
0.007862 0.107613 0
0.008357 0.094113 0
0.008990 0.081545 0
0.009735 0.069774 0
0.010567 0.058681 0
0.011460 0.048153 0
0.012392 0.038082 0
0.013342 0.028366 0
0.014291 0.018919 0
0.015222 0.009636 0
0.016117 0.000366 0
0.016913 -0.008906 0
0.017640 -0.018177 0
0.018304 -0.027571 0
0.018888 -0.037197 0
0.019370 -0.047154 0
0.019726 -0.057538 0
0.019929 -0.068449 0
0.019945 -0.079996 0
0.019741 -0.092299 0
0.019274 -0.105496 0
0.018502 -0.119741 0
0.017378 -0.135210 0
0.015854 -0.152099 0
0.013881 -0.170621 0
0.011409 -0.190990 0