# vtk DataFile Version 2.0
generated by CFD-lab course output (written by Tobias Neckel) 
ASCII

DATASET STRUCTURED_GRID
DIMENSIONS  41 41 1 
POINTS 1681 float

0.150000 0.150000 0
0.167857 0.150000 0
0.185714 0.150000 0
0.203571 0.150000 0
0.221429 0.150000 0
0.239286 0.150000 0
0.257143 0.150000 0
0.275000 0.150000 0
0.292857 0.150000 0
0.310714 0.150000 0
0.328571 0.150000 0
0.346429 0.150000 0
0.364286 0.150000 0
0.382143 0.150000 0
0.400000 0.150000 0
0.417857 0.150000 0
0.435714 0.150000 0
0.453571 0.150000 0
0.471429 0.150000 0
0.489286 0.150000 0
0.507143 0.150000 0
0.525000 0.150000 0
0.542857 0.150000 0
0.560714 0.150000 0
0.578571 0.150000 0
0.596429 0.150000 0
0.614286 0.150000 0
0.632143 0.150000 0
0.650000 0.150000 0
0.667857 0.150000 0
0.685714 0.150000 0
0.703571 0.150000 0
0.721429 0.150000 0
0.739286 0.150000 0
0.757143 0.150000 0
0.775000 0.150000 0
0.792857 0.150000 0
0.810714 0.150000 0
0.828571 0.150000 0
0.846429 0.150000 0
0.864286 0.150000 0
0.150000 0.167857 0
0.167857 0.167857 0
0.185714 0.167857 0
0.203571 0.167857 0
0.221429 0.167857 0
0.239286 0.167857 0
0.257143 0.167857 0
0.275000 0.167857 0
0.292857 0.167857 0
0.310714 0.167857 0
0.328571 0.167857 0
0.346429 0.167857 0
0.364286 0.167857 0
0.382143 0.167857 0
0.400000 0.167857 0
0.417857 0.167857 0
0.435714 0.167857 0
0.453571 0.167857 0
0.471429 0.167857 0
0.489286 0.167857 0
0.507143 0.167857 0
0.525000 0.167857 0
0.542857 0.167857 0
0.560714 0.167857 0
0.578571 0.167857 0
0.596429 0.167857 0
0.614286 0.167857 0
0.632143 0.167857 0
0.650000 0.167857 0
0.667857 0.167857 0
0.685714 0.167857 0
0.703571 0.167857 0
0.721429 0.167857 0
0.739286 0.167857 0
0.757143 0.167857 0
0.775000 0.167857 0
0.792857 0.167857 0
0.810714 0.167857 0
0.828571 0.167857 0
0.846429 0.167857 0
0.864286 0.167857 0
0.150000 0.185714 0
0.167857 0.185714 0
0.185714 0.185714 0
0.203571 0.185714 0
0.221429 0.185714 0
0.239286 0.185714 0
0.257143 0.185714 0
0.275000 0.185714 0
0.292857 0.185714 0
0.310714 0.185714 0
0.328571 0.185714 0
0.346429 0.185714 0
0.364286 0.185714 0
0.382143 0.185714 0
0.400000 0.185714 0
0.417857 0.185714 0
0.435714 0.185714 0
0.453571 0.185714 0
0.471429 0.185714 0
0.489286 0.185714 0
0.507143 0.185714 0
0.525000 0.185714 0
0.542857 0.185714 0
0.560714 0.185714 0
0.578571 0.185714 0
0.596429 0.185714 0
0.614286 0.185714 0
0.632143 0.185714 0
0.650000 0.185714 0
0.667857 0.185714 0
0.685714 0.185714 0
0.703571 0.185714 0
0.721429 0.185714 0
0.739286 0.185714 0
0.757143 0.185714 0
0.775000 0.185714 0
0.792857 0.185714 0
0.810714 0.185714 0
0.828571 0.185714 0
0.846429 0.185714 0
0.864286 0.185714 0
0.150000 0.203571 0
0.167857 0.203571 0
0.185714 0.203571 0
0.203571 0.203571 0
0.221429 0.203571 0
0.239286 0.203571 0
0.257143 0.203571 0
0.275000 0.203571 0
0.292857 0.203571 0
0.310714 0.203571 0
0.328571 0.203571 0
0.346429 0.203571 0
0.364286 0.203571 0
0.382143 0.203571 0
0.400000 0.203571 0
0.417857 0.203571 0
0.435714 0.203571 0
0.453571 0.203571 0
0.471429 0.203571 0
0.489286 0.203571 0
0.507143 0.203571 0
0.525000 0.203571 0
0.542857 0.203571 0
0.560714 0.203571 0
0.578571 0.203571 0
0.596429 0.203571 0
0.614286 0.203571 0
0.632143 0.203571 0
0.650000 0.203571 0
0.667857 0.203571 0
0.685714 0.203571 0
0.703571 0.203571 0
0.721429 0.203571 0
0.739286 0.203571 0
0.757143 0.203571 0
0.775000 0.203571 0
0.792857 0.203571 0
0.810714 0.203571 0
0.828571 0.203571 0
0.846429 0.203571 0
0.864286 0.203571 0
0.150000 0.221429 0
0.167857 0.221429 0
0.185714 0.221429 0
0.203571 0.221429 0
0.221429 0.221429 0
0.239286 0.221429 0
0.257143 0.221429 0
0.275000 0.221429 0
0.292857 0.221429 0
0.310714 0.221429 0
0.328571 0.221429 0
0.346429 0.221429 0
0.364286 0.221429 0
0.382143 0.221429 0
0.400000 0.221429 0
0.417857 0.221429 0
0.435714 0.221429 0
0.453571 0.221429 0
0.471429 0.221429 0
0.489286 0.221429 0
0.507143 0.221429 0
0.525000 0.221429 0
0.542857 0.221429 0
0.560714 0.221429 0
0.578571 0.221429 0
0.596429 0.221429 0
0.614286 0.221429 0
0.632143 0.221429 0
0.650000 0.221429 0
0.667857 0.221429 0
0.685714 0.221429 0
0.703571 0.221429 0
0.721429 0.221429 0
0.739286 0.221429 0
0.757143 0.221429 0
0.775000 0.221429 0
0.792857 0.221429 0
0.810714 0.221429 0
0.828571 0.221429 0
0.846429 0.221429 0
0.864286 0.221429 0
0.150000 0.239286 0
0.167857 0.239286 0
0.185714 0.239286 0
0.203571 0.239286 0
0.221429 0.239286 0
0.239286 0.239286 0
0.257143 0.239286 0
0.275000 0.239286 0
0.292857 0.239286 0
0.310714 0.239286 0
0.328571 0.239286 0
0.346429 0.239286 0
0.364286 0.239286 0
0.382143 0.239286 0
0.400000 0.239286 0
0.417857 0.239286 0
0.435714 0.239286 0
0.453571 0.239286 0
0.471429 0.239286 0
0.489286 0.239286 0
0.507143 0.239286 0
0.525000 0.239286 0
0.542857 0.239286 0
0.560714 0.239286 0
0.578571 0.239286 0
0.596429 0.239286 0
0.614286 0.239286 0
0.632143 0.239286 0
0.650000 0.239286 0
0.667857 0.239286 0
0.685714 0.239286 0
0.703571 0.239286 0
0.721429 0.239286 0
0.739286 0.239286 0
0.757143 0.239286 0
0.775000 0.239286 0
0.792857 0.239286 0
0.810714 0.239286 0
0.828571 0.239286 0
0.846429 0.239286 0
0.864286 0.239286 0
0.150000 0.257143 0
0.167857 0.257143 0
0.185714 0.257143 0
0.203571 0.257143 0
0.221429 0.257143 0
0.239286 0.257143 0
0.257143 0.257143 0
0.275000 0.257143 0
0.292857 0.257143 0
0.310714 0.257143 0
0.328571 0.257143 0
0.346429 0.257143 0
0.364286 0.257143 0
0.382143 0.257143 0
0.400000 0.257143 0
0.417857 0.257143 0
0.435714 0.257143 0
0.453571 0.257143 0
0.471429 0.257143 0
0.489286 0.257143 0
0.507143 0.257143 0
0.525000 0.257143 0
0.542857 0.257143 0
0.560714 0.257143 0
0.578571 0.257143 0
0.596429 0.257143 0
0.614286 0.257143 0
0.632143 0.257143 0
0.650000 0.257143 0
0.667857 0.257143 0
0.685714 0.257143 0
0.703571 0.257143 0
0.721429 0.257143 0
0.739286 0.257143 0
0.757143 0.257143 0
0.775000 0.257143 0
0.792857 0.257143 0
0.810714 0.257143 0
0.828571 0.257143 0
0.846429 0.257143 0
0.864286 0.257143 0
0.150000 0.275000 0
0.167857 0.275000 0
0.185714 0.275000 0
0.203571 0.275000 0
0.221429 0.275000 0
0.239286 0.275000 0
0.257143 0.275000 0
0.275000 0.275000 0
0.292857 0.275000 0
0.310714 0.275000 0
0.328571 0.275000 0
0.346429 0.275000 0
0.364286 0.275000 0
0.382143 0.275000 0
0.400000 0.275000 0
0.417857 0.275000 0
0.435714 0.275000 0
0.453571 0.275000 0
0.471429 0.275000 0
0.489286 0.275000 0
0.507143 0.275000 0
0.525000 0.275000 0
0.542857 0.275000 0
0.560714 0.275000 0
0.578571 0.275000 0
0.596429 0.275000 0
0.614286 0.275000 0
0.632143 0.275000 0
0.650000 0.275000 0
0.667857 0.275000 0
0.685714 0.275000 0
0.703571 0.275000 0
0.721429 0.275000 0
0.739286 0.275000 0
0.757143 0.275000 0
0.775000 0.275000 0
0.792857 0.275000 0
0.810714 0.275000 0
0.828571 0.275000 0
0.846429 0.275000 0
0.864286 0.275000 0
0.150000 0.292857 0
0.167857 0.292857 0
0.185714 0.292857 0
0.203571 0.292857 0
0.221429 0.292857 0
0.239286 0.292857 0
0.257143 0.292857 0
0.275000 0.292857 0
0.292857 0.292857 0
0.310714 0.292857 0
0.328571 0.292857 0
0.346429 0.292857 0
0.364286 0.292857 0
0.382143 0.292857 0
0.400000 0.292857 0
0.417857 0.292857 0
0.435714 0.292857 0
0.453571 0.292857 0
0.471429 0.292857 0
0.489286 0.292857 0
0.507143 0.292857 0
0.525000 0.292857 0
0.542857 0.292857 0
0.560714 0.292857 0
0.578571 0.292857 0
0.596429 0.292857 0
0.614286 0.292857 0
0.632143 0.292857 0
0.650000 0.292857 0
0.667857 0.292857 0
0.685714 0.292857 0
0.703571 0.292857 0
0.721429 0.292857 0
0.739286 0.292857 0
0.757143 0.292857 0
0.775000 0.292857 0
0.792857 0.292857 0
0.810714 0.292857 0
0.828571 0.292857 0
0.846429 0.292857 0
0.864286 0.292857 0
0.150000 0.310714 0
0.167857 0.310714 0
0.185714 0.310714 0
0.203571 0.310714 0
0.221429 0.310714 0
0.239286 0.310714 0
0.257143 0.310714 0
0.275000 0.310714 0
0.292857 0.310714 0
0.310714 0.310714 0
0.328571 0.310714 0
0.346429 0.310714 0
0.364286 0.310714 0
0.382143 0.310714 0
0.400000 0.310714 0
0.417857 0.310714 0
0.435714 0.310714 0
0.453571 0.310714 0
0.471429 0.310714 0
0.489286 0.310714 0
0.507143 0.310714 0
0.525000 0.310714 0
0.542857 0.310714 0
0.560714 0.310714 0
0.578571 0.310714 0
0.596429 0.310714 0
0.614286 0.310714 0
0.632143 0.310714 0
0.650000 0.310714 0
0.667857 0.310714 0
0.685714 0.310714 0
0.703571 0.310714 0
0.721429 0.310714 0
0.739286 0.310714 0
0.757143 0.310714 0
0.775000 0.310714 0
0.792857 0.310714 0
0.810714 0.310714 0
0.828571 0.310714 0
0.846429 0.310714 0
0.864286 0.310714 0
0.150000 0.328571 0
0.167857 0.328571 0
0.185714 0.328571 0
0.203571 0.328571 0
0.221429 0.328571 0
0.239286 0.328571 0
0.257143 0.328571 0
0.275000 0.328571 0
0.292857 0.328571 0
0.310714 0.328571 0
0.328571 0.328571 0
0.346429 0.328571 0
0.364286 0.328571 0
0.382143 0.328571 0
0.400000 0.328571 0
0.417857 0.328571 0
0.435714 0.328571 0
0.453571 0.328571 0
0.471429 0.328571 0
0.489286 0.328571 0
0.507143 0.328571 0
0.525000 0.328571 0
0.542857 0.328571 0
0.560714 0.328571 0
0.578571 0.328571 0
0.596429 0.328571 0
0.614286 0.328571 0
0.632143 0.328571 0
0.650000 0.328571 0
0.667857 0.328571 0
0.685714 0.328571 0
0.703571 0.328571 0
0.721429 0.328571 0
0.739286 0.328571 0
0.757143 0.328571 0
0.775000 0.328571 0
0.792857 0.328571 0
0.810714 0.328571 0
0.828571 0.328571 0
0.846429 0.328571 0
0.864286 0.328571 0
0.150000 0.346429 0
0.167857 0.346429 0
0.185714 0.346429 0
0.203571 0.346429 0
0.221429 0.346429 0
0.239286 0.346429 0
0.257143 0.346429 0
0.275000 0.346429 0
0.292857 0.346429 0
0.310714 0.346429 0
0.328571 0.346429 0
0.346429 0.346429 0
0.364286 0.346429 0
0.382143 0.346429 0
0.400000 0.346429 0
0.417857 0.346429 0
0.435714 0.346429 0
0.453571 0.346429 0
0.471429 0.346429 0
0.489286 0.346429 0
0.507143 0.346429 0
0.525000 0.346429 0
0.542857 0.346429 0
0.560714 0.346429 0
0.578571 0.346429 0
0.596429 0.346429 0
0.614286 0.346429 0
0.632143 0.346429 0
0.650000 0.346429 0
0.667857 0.346429 0
0.685714 0.346429 0
0.703571 0.346429 0
0.721429 0.346429 0
0.739286 0.346429 0
0.757143 0.346429 0
0.775000 0.346429 0
0.792857 0.346429 0
0.810714 0.346429 0
0.828571 0.346429 0
0.846429 0.346429 0
[...]
POINT_DATA 1681 

VECTORS velocity float
0.000000 0.000000 0
0.004894 0.000000 0
0.011008 0.000000 0
0.013688 0.000000 0
0.014296 0.000000 0
0.013628 0.000000 0
0.011743 0.000000 0
0.016624 0.000000 0
0.019962 0.000000 0
0.010545 0.000000 0
-0.005746 0.000000 0
-0.024189 0.000000 0
-0.043200 0.000000 0
-0.061736 0.000000 0
-0.079094 0.000000 0
-0.094848 0.000000 0
-0.108844 0.000000 0
-0.120937 0.000000 0
-0.131088 0.000000 0
-0.139290 0.000000 0
-0.145558 0.000000 0
-0.149913 0.000000 0
-0.152360 0.000000 0
-0.152927 0.000000 0
-0.151507 0.000000 0
-0.147951 0.000000 0
-0.142182 0.000000 0
-0.134107 0.000000 0
-0.123636 0.000000 0
-0.110695 0.000000 0
-0.095332 0.000000 0
-0.077588 0.000000 0
-0.057679 0.000000 0
-0.036043 0.000000 0
-0.013462 0.000000 0
0.008739 0.000000 0
0.024456 0.000000 0
0.028413 0.000000 0
0.021336 0.000000 0
0.009915 0.000000 0
0.000000 0.000000 0
0.000000 -0.004894 0
0.013744 -0.011008 0
0.026502 -0.008794 0
0.031847 -0.003288 0
0.033048 0.000060 0
0.032283 0.002553 0
0.022583 -0.002996 0
0.004860 -0.008219 0
-0.017828 0.006079 0
-0.047491 0.025709 0
-0.082883 0.034735 0
-0.120305 0.037453 0
-0.157408 0.037546 0
-0.192578 0.035894 0
-0.224781 0.033112 0
-0.253418 0.029751 0
-0.278227 0.026089 0
-0.299082 0.022244 0
-0.315981 0.018352 0
-0.328974 0.014470 0
-0.338135 0.010624 0
-0.343529 0.006802 0
-0.345192 0.003014 0
-0.343117 -0.000853 0
-0.337231 -0.004977 0
-0.327453 -0.009325 0
-0.313626 -0.013844 0
-0.295580 -0.018546 0
-0.273143 -0.023412 0
-0.246183 -0.028304 0
-0.214681 -0.033107 0
-0.178752 -0.037654 0
-0.138810 -0.041545 0
-0.095774 -0.044217 0
-0.051404 -0.044782 0
-0.008900 -0.037918 0
0.026044 -0.019674 0
0.043930 0.003119 0
0.034347 0.018498 0
0.015971 0.021336 0
0.000000 0.009915 0
0.000000 -0.013744 0
0.016844 -0.026502 0
0.027043 -0.018103 0
0.029435 -0.006547 0
0.018022 -0.000435 0
-0.001501 0.010465 0
-0.029180 0.027423 0
-0.072342 0.040412 0
-0.119876 0.052351 0
-0.159612 0.065055 0
-0.195697 0.072814 0
-0.229976 0.074525 0
-0.261733 0.072273 0
-0.290355 0.067373 0
-0.315502 0.060840 0
-0.337025 0.053446 0
-0.354843 0.045664 0
-0.369052 0.037754 0
-0.379754 0.029892 0
-0.387070 0.022154 0
-0.391101 0.014555 0
-0.391919 0.007057 0
-0.389561 -0.000412 0
-0.383967 -0.007960 0
-0.375179 -0.015664 0
-0.363191 -0.023605 0
-0.347863 -0.031872 0
-0.329041 -0.040483 0
-0.306562 -0.049398 0
-0.280298 -0.058462 0
-0.250126 -0.067431 0
-0.216154 -0.075871 0
-0.178722 -0.082977 0
-0.138643 -0.087406 0
-0.097516 -0.086874 0
-0.058170 -0.077449 0
-0.021283 -0.052830 0
0.008318 -0.008302 0
0.016346 0.027958 0
0.007374 0.034347 0
0.000000 0.015971 0
0.000000 -0.021738 0
0.009917 -0.038050 0
0.007166 -0.021385 0
-0.009376 0.005733 0
-0.036528 0.030996 0
-0.074258 0.049755 0
-0.113267 0.067844 0
-0.152351 0.082477 0
-0.191729 0.093349 0
-0.227229 0.101530 0
-0.257824 0.105099 0
-0.284740 0.103489 0
-0.308323 0.097926 0
-0.328748 0.089663 0
-0.346163 0.079782 0
-0.360697 0.069092 0
-0.372447 0.058116 0
-0.381540 0.047155 0
-0.388077 0.036370 0
-0.392139 0.025816 0
-0.393776 0.015473 0
-0.393009 0.005263 0
-0.389826 -0.004938 0
-0.384195 -0.015235 0
-0.376082 -0.025753 0
-0.365363 -0.036641 0
-0.351921 -0.047993 0
-0.335609 -0.059848 0
-0.316277 -0.072155 0
-0.293790 -0.084739 0
-0.268037 -0.097251 0
-0.239043 -0.109058 0
-0.207001 -0.119056 0
-0.172382 -0.125423 0
-0.136042 -0.125255 0
-0.099247 -0.114150 0
-0.063358 -0.086162 0
-0.029104 -0.034510 0
0.000999 0.019442 0
-0.000226 0.037683 0
0.000000 0.017288 0
0.000000 -0.023661 0
-0.008471 -0.033668 0
-0.031580 0.001190 0
-0.062873 0.037147 0
-0.094681 0.064446 0
-0.130363 0.087205 0
-0.166670 0.105515 0
-0.201199 0.118873 0
-0.233643 0.127230 0
-0.262294 0.131150 0
-0.286441 0.130325 0
-0.306793 0.125023 0
-0.323970 0.116281 0
-0.338460 0.105213 0
-0.350605 0.092789 0
-0.360622 0.079731 0
-0.368637 0.066506 0
-0.374737 0.053383 0
-0.378972 0.040491 0
-0.381367 0.027853 0
-0.381928 0.015425 0
-0.380640 0.003107 0
-0.377473 -0.009226 0
-0.372429 -0.021705 0
-0.365417 -0.034497 0
-0.356348 -0.047766 0
-0.345111 -0.061626 0
-0.331579 -0.076126 0
-0.315621 -0.091216 0
-0.297109 -0.106703 0
-0.275932 -0.122178 0
-0.252036 -0.136906 0
-0.225432 -0.149638 0
-0.196215 -0.158366 0
-0.164555 -0.160010 0
-0.130626 -0.150132 0
-0.094464 -0.122973 0
-0.055968 -0.072660 0
-0.015333 -0.000920 0
-0.003305 0.035346 0
0.000000 0.015746 0
0.000000 -0.013268 0
-0.029297 -0.006470 0
-0.064369 0.033017 0
-0.096948 0.068834 0
-0.130781 0.098486 0
-0.164575 0.121743 0
-0.196982 0.138681 0
-0.226614 0.149451 0
-0.253045 0.154444 0
-0.275646 0.154328 0
-0.294329 0.149597 0
-0.309676 0.141017 0
-0.322308 0.129593 0
-0.332737 0.116298 0
-0.341313 0.101944 0
-0.348246 0.087125 0
-0.353655 0.072232 0
-0.357611 0.057490 0
-0.360153 0.043000 0
-0.361306 0.028772 0
-0.361080 0.014746 0
-0.359472 0.000808 0
-0.356469 -0.013148 0
-0.352068 -0.027290 0
-0.346187 -0.041834 0
-0.338746 -0.056948 0
-0.329649 -0.072763 0
-0.318785 -0.089337 0
-0.306037 -0.106625 0
-0.291284 -0.124428 0
-0.274408 -0.142325 0
-0.255291 -0.159559 0
-0.233797 -0.174876 0
-0.209730 -0.186299 0
-0.182765 -0.190844 0
-0.152372 -0.184241 0
-0.117798 -0.160820 0
-0.078371 -0.113641 0
-0.034763 -0.033221 0
0.004283 0.022349 0
0.000000 0.013984 0
0.000000 0.005636 0
-0.039969 0.030701 0
-0.078733 0.068841 0
-0.115015 0.103559 0
-0.149292 0.132073 0
-0.181112 0.153406 0
-0.209934 0.167554 0
-0.235207 0.174937 0
-0.256810 0.176262 0
-0.274716 0.172434 0
-0.289212 0.164354 0
-0.300855 0.153003 0
-0.310193 0.139343 0
-0.317670 0.124217 0
-0.323596 0.108298 0
-0.328173 0.092073 0
-0.331530 0.075871 0
-0.333760 0.059881 0
-0.334926 0.044186 0
-0.335079 0.028780 0
-0.334250 0.013592 0
-0.332457 -0.001504 0
-0.329708 -0.016630 0
-0.325960 -0.031988 0
-0.321160 -0.047818 0
-0.315231 -0.064303 0
-0.308083 -0.081588 0
-0.299615 -0.099739 0
-0.289715 -0.118718 0
-0.278270 -0.138331 0
-0.265152 -0.158171 0
-0.250210 -0.177517 0
-0.233223 -0.195199 0
-0.213832 -0.209398 0
-0.191436 -0.217368 0
-0.165094 -0.215099 0
-0.133529 -0.196973 0
-0.095434 -0.155695 0
-0.050117 -0.083574 0
0.003689 0.000582 0
0.000000 0.020029 0
0.000000 0.026701 0
-0.042338 0.072263 0
-0.083914 0.108063 0
-0.121429 0.139392 0
-0.155085 0.164583 0
-0.184801 0.182385 0
-0.210506 0.192776 0
-0.232188 0.196327 0
-0.250055 0.193952 0
-0.264428 0.186730 0
-0.275772 0.175737 0
-0.284620 0.161998 0
-0.291448 0.146408 0
-0.296640 0.129701 0
-0.300480 0.112446 0
-0.303177 0.095059 0
-0.304889 0.077818 0
-0.305739 0.060885 0
-0.305821 0.044319 0
-0.305209 0.028095 0
-0.303956 0.012124 0
-0.302092 -0.003734 0
-0.299631 -0.019645 0
-0.296521 -0.035838 0
-0.292716 -0.052563 0
-0.288139 -0.070025 0
-0.282702 -0.088379 0
-0.276302 -0.107705 0
-0.268825 -0.127970 0
-0.260154 -0.148991 0
-0.250156 -0.170385 0
-0.238666 -0.191488 0
-0.225441 -0.211254 0
-0.210080 -0.228086 0
-0.191901 -0.239582 0
-0.169815 -0.242148 0
-0.142281 -0.230480 0
-0.107572 -0.197053 0
-0.064848 -0.132344 0
-0.017345 -0.027767 0
0.000000 0.017673 0
0.000000 0.047974 0
-0.041698 0.114614 0
-0.083263 0.147932 0
-0.120127 0.174730 0
-0.152274 0.195445 0
-0.179739 0.208827 0
-0.202699 0.214941 0
-0.221447 0.214485 0
-0.236415 0.208502 0
-0.248098 0.198151 0
-0.257025 0.184547 0
-0.263700 0.168678 0
-0.268550 0.151362 0
-0.271925 0.133249 0
-0.274105 0.114835 0
-0.275315 0.096483 0
-0.275736 0.078432 0
-0.275518 0.060812 0
-0.274779 0.043656 0
-0.273614 0.026915 0
-0.272087 0.010475 0
-0.270239 -0.005828 0
-0.268084 -0.022201 0
-0.265578 -0.038903 0
-0.262669 -0.056200 0
-0.259280 -0.074317 0
-0.255316 -0.093425 0
-0.250666 -0.113616 0
-0.245205 -0.134865 0
-0.238803 -0.157001 0
-0.231318 -0.179659 0
-0.222580 -0.202231 0
-0.212357 -0.223785 0
-0.200281 -0.242938 0
-0.185737 -0.257633 0
-0.167719 -0.264718 0
-0.144738 -0.259216 0
-0.115014 -0.233128 0
-0.077525 -0.173802 0
-0.035099 -0.064266 0
0.000000 0.002685 0
0.000000 0.068399 0
-0.039341 0.155526 0
-0.079040 0.186492 0
-0.113982 0.208404 0
-0.143972 0.224196 0
-0.169056 0.232810 0
-0.189524 0.234484 0
-0.205813 0.230043 0
-0.218461 0.220603 0
-0.228028 0.207340 0
-0.235048 0.191339 0
-0.239993 0.173522 0
-0.243263 0.154633 0
-0.245193 0.135256 0
-0.246065 0.115836 0
-0.246118 0.096690 0
-0.245552 0.078022 0
-0.244534 0.059929 0
-0.243199 0.042415 0
-0.241656 0.025403 0
-0.239981 0.008750 0
-0.238218 -0.007737 0
-0.236385 -0.024306 0
-0.234438 -0.041253 0
-0.232323 -0.058861 0
-0.229960 -0.077377 0
-0.227244 -0.096994 0
-0.224055 -0.117816 0
-0.220252 -0.139832 0
-0.215688 -0.162879 0
-0.210205 -0.186608 0
-0.203625 -0.210449 0
-0.195731 -0.233553 0
-0.186210 -0.254706 0
-0.174560 -0.272145 0
-0.159945 -0.283147 0
-0.141024 -0.283185 0
-0.115904 -0.264266 0
-0.082653 -0.212259 0
-0.041268 -0.105293 0
0.000000 -0.017426 0
0.000000 0.087315 0
-0.035928 0.193655 0
-0.072711 0.222573 0
-0.104963 0.239662 0
-0.132383 0.250519 0
-0.155007 0.254379 0
-0.173152 0.251698 0
-0.187301 0.243423 0
-0.198016 0.230717 0
-0.205855 0.214737 0
-0.211328 0.196512 0
-0.214878 0.176893 0
-0.216885 0.156563 0
-0.217677 0.136052 0
-0.217538 0.115761 0
-0.216715 0.095970 0
-0.215420 0.076848 0
-0.213830 0.058460 0
-0.212093 0.040779 0
-0.210324 0.023697 0
-0.208605 0.007037 0
-0.206985 -0.009424 0
-0.205476 -0.025981 0
-0.204035 -0.042965 0
-0.202607 -0.060679 0
-0.201108 -0.079396 0
-0.199427 -0.099330 0
-0.197433 -0.120608 0
-0.194974 -0.143231 0
-0.191883 -0.167048 0
-0.187987 -0.191723 0
-0.183097 -0.216705 0
-0.177002 -0.241200 0
-0.169433 -0.264110 0
-0.159991 -0.283898 0
-0.148015 -0.298254 0
-0.132353 -0.303257 0
-0.111090 -0.291499 0
-0.081592 -0.248438 0
-0.042128 -0.146919 0
0.000000 -0.038583 0
0.000000 0.104327 0
-0.031915 0.228237 0
-0.065226 0.255527 0
-0.094379 0.268076 0
-0.119012 0.274239 0
-0.139149 0.273578 0
-0.155096 0.266779 0
-0.167325 0.254908 0
-0.176369 0.239157 0
-0.182751 0.220652 0
-0.186944 0.200362 0
-0.189362 0.179079 0
-0.190366 0.157432 0
-0.190278 0.135910 0
-0.189380 0.114874 0
-0.187921 0.094571 0
-0.186118 0.075136 0
-0.184156 0.056602 0
-0.182185 0.038909 0
-0.180324 0.021916 0
-0.178654 0.005412 0
-0.177222 -0.010866 0
-0.176030 -0.027256 0
-0.175038 -0.044122 0
-0.174188 -0.061788 0
-0.173393 -0.080558 0
-0.172540 -0.100669 0
-0.171491 -0.122270 0
-0.170087 -0.145382 0
-0.168151 -0.169866 0
-0.165496 -0.195395 0
-0.161927 -0.221433 0
-0.157233 -0.247217 0
-0.151168 -0.271718 0
-0.143411 -0.293562 0
-0.133450 -0.310784 0
-0.120363 -0.320110 0
-0.102416 -0.315027 0
-0.076777 -0.281221 0
-0.040743 -0.186885 0
0.000000 -0.059554 0
0.000000 0.119230 0
-0.027614 0.258881 0
-0.057202 0.285036 0
-0.083079 0.293447 0
-0.104849 0.295290 0
-0.122524 0.290463 0
-0.136382 0.279874 0
-0.146851 0.264696 0
-0.154415 0.246143 0
-0.159543 0.225313 0
-0.162666 0.203123 0
-0.164167 0.180315 0
-0.164388 0.157479 0
-0.163639 0.135065 0
-0.162198 0.113404 0
-0.160312 0.092709 0
-0.158196 0.073083 0
-0.156035 0.054526 0
-0.153979 0.036947 0
-0.152141 0.020166 0
-0.150598 0.003935 0
-0.149386 -0.012048 0
-0.148500 -0.028165 0
-0.147897 -0.044807 0
-0.147516 -0.062324 0
-0.147270 -0.081044 0
-0.147047 -0.101232 0
-0.146708 -0.123061 0
-0.146095 -0.146571 0
-0.145027 -0.171639 0
-0.143316 -0.197947 0
-0.140766 -0.224969 0
-0.137170 -0.251959 0
-0.132297 -0.277932 0
-0.125873 -0.301616 0
-0.117505 -0.321302 0
-0.106496 -0.334291 0
-0.091431 -0.335085 0
-0.069622 -0.310111 0
-0.037770 -0.223695 0
0.000000 -0.079326 0
0.000000 0.131941 0
-0.023222 0.285438 0
-0.049020 0.310992 0
-0.071596 0.315724 0
-0.090522 0.313684 0
-0.105801 0.305111 0
-0.117675 0.291106 0
-0.126519 0.272940 0
-0.132753 0.251848 0
-0.136792 0.228903 0
-0.139020 0.204986 0
-0.139788 0.180801 0
-0.139416 0.156905 0
-0.138199 0.133720 0
-0.136405 0.111547 0
-0.134274 0.090570 0
-0.132016 0.070860 0
-0.129809 0.052384 0
-0.127793 0.035014 0
-0.126073 0.018535 0
-0.124715 0.002657 0
-0.123745 -0.012964 0
-0.123144 -0.028746 0
-0.122867 -0.045106 0
-0.122849 -0.062416 0
-0.123006 -0.081027 0
-0.123228 -0.101230 0
-0.123383 -0.123222 0
-0.123318 -0.147063 0
-0.122862 -0.172644 0
-0.121835 -0.199655 0
-0.120051 -0.227580 0
-0.117314 -0.255686 0
-0.113413 -0.283014 0
-0.108107 -0.308355 0
-0.101087 -0.330162 0
-0.091851 -0.346184 0
-0.079342 -0.351902 0
-0.061230 -0.334882 0
-0.033918 -0.256507 0
0.000000 -0.097324 0
0.000000 0.142452 0
-0.018850 0.307901 0
-0.040901 0.333411 0
-0.060241 0.334949 0
-0.076400 0.329494 0
-0.089380 0.317617 0
-0.099381 0.300591 0
-0.106721 0.279773 0
-0.111759 0.256417 0
-0.114852 0.231580 0
-0.116339 0.206118 0
-0.116537 0.180711 0
-0.115741 0.155890 0
-0.114228 0.132054 0
-0.112251 0.109479 0
-0.110038 0.088320 0
-0.107786 0.068617 0
-0.105659 0.050302 0
-0.103785 0.033211 0
-0.102254 0.017088 0
-0.101118 0.001608 0
-0.100393 -0.013619 0
-0.100045 -0.029043 0
-0.100027 -0.045102 0
-0.100271 -0.062185 0
-0.100694 -0.080665 0
-0.101194 -0.100855 0
-0.101647 -0.122971 0
-0.101916 -0.147093 0
-0.101846 -0.173122 0
-0.101277 -0.200757 0
-0.100045 -0.229490 0
-0.097978 -0.258596 0
-0.094889 -0.287139 0
-0.090570 -0.313943 0
-0.084774 -0.337558 0
-0.077151 -0.356036 0
-0.066966 -0.365706 0
-0.052350 -0.355535 0
-0.029647 -0.284925 0
0.000000 -0.113244 0
0.000000 0.150791 0
-0.014552 0.326339 0
-0.032956 0.352383 0
-0.049173 0.351223 0
-0.062678 0.342823 0
-0.073471 0.328092 0
-0.081715 0.308447 0
-0.087669 0.285318 0
-0.091634 0.259979 0
-0.093913 0.233484 0
-0.094800 0.206671 0
-0.094575 0.180203 0
-0.093508 0.154596 0
-0.091853 0.130230 0
-0.089844 0.107357 0
-0.087690 0.086104 0
-0.085569 0.066481 0
-0.083627 0.048383 0
-0.081971 0.031609 0
-0.080674 0.015869 0
-0.079776 0.000796 0
-0.079278 -0.014037 0
-0.079141 -0.029111 0
-0.079311 -0.044879 0
-0.079717 -0.061748 0
-0.080281 -0.080105 0
-0.080906 -0.100277 0
-0.081487 -0.122500 0
-0.081903 -0.146865 0
-0.082026 -0.173282 0
-0.081727 -0.201455 0
-0.080872 -0.230879 0
-0.079322 -0.260842 0
-0.076926 -0.290422 0
-0.073513 -0.318470 0
-0.068888 -0.343581 0
-0.062807 -0.363992 0
-0.054798 -0.376702 0
-0.043456 -0.372201 0
-0.025260 -0.308856 0
0.000000 -0.126971 0
0.000000 0.157004 0
-0.010344 0.340856 0
-0.025219 0.368032 0
-0.038445 0.364672 0
-0.049424 0.353793 0
-0.058151 0.336653 0
-0.064752 0.314789 0
-0.069437 0.289693 0
-0.072447 0.262661 0
-0.074034 0.234745 0
-0.074449 0.206780 0
-0.073937 0.179420 0
-0.072736 0.153168 0
-0.071075 0.128389 0
-0.069163 0.105315 0
-0.067187 0.084046 0
-0.065300 0.064555 0
-0.063622 0.046704 0
-0.062236 0.030258 0
-0.061196 0.014893 0
-0.060528 0.000212 0
-0.060227 -0.014255 0
-0.060247 -0.029011 0
-0.060528 -0.044525 0
-0.061001 -0.061215 0
-0.061588 -0.079476 0
-0.062206 -0.099649 0
-0.062766 -0.121975 0
-0.063172 -0.146553 0
-0.063331 -0.173298 0
-0.063149 -0.201912 0
-0.062533 -0.231894 0
-0.061385 -0.262542 0
-0.059596 -0.292948 0
-0.057038 -0.321981 0
-0.053564 -0.348263 0
-0.049009 -0.370125 0
-0.043088 -0.385057 0
-0.034813 -0.385074 0
-0.020932 -0.328382 0
0.000000 -0.138504 0
0.000000 0.161135 0
-0.006218 0.351558 0
-0.017676 0.380485 0
-0.028041 0.375429 0
-0.036620 0.362529 0
-0.043398 0.343420 0
-0.048469 0.319732 0
-0.051992 0.293012 0
-0.054158 0.264577 0
-0.055168 0.235486 0
-0.055229 0.206573 0
-0.054548 0.178490 0
-0.053333 0.151734 0
-0.051780 0.126656 0
-0.050072 0.103469 0
-0.048366 0.082241 0
-0.046788 0.062916 0
-0.045427 0.045319 0
-0.044342 0.029183 0
-0.043564 0.014161 0
-0.043106 -0.000172 0
-0.042964 -0.014318 0
-0.043079 -0.028811 0
-0.043393 -0.044125 0
-0.043837 -0.060689 0
-0.044341 -0.078899 0
-0.044835 -0.099099 0
-0.045250 -0.121534 0
-0.045521 -0.146299 0
-0.045593 -0.173305 0
-0.045413 -0.202254 0
-0.044936 -0.232643 0
-0.044109 -0.263779 0
-0.042869 -0.294770 0
-0.041136 -0.324502 0
-0.038812 -0.351609 0
-0.035792 -0.374468 0
-0.031913 -0.390899 0
-0.026531 -0.394357 0
-0.016747 -0.343669 0
0.000000 -0.147903 0
0.000000 0.163221 0
-0.002188 0.358532 0
-0.010272 0.389855 0
-0.017890 0.383616 0
-0.024182 0.369150 0
-0.029120 0.348502 0
-0.032764 0.323384 0
-0.035228 0.295382 0
-0.036650 0.265836 0
-0.037184 0.235816 0
-0.036993 0.206161 0
-0.036247 0.177524 0
-0.035116 0.150400 0
-0.033764 0.125129 0
-0.032339 0.101902 0
-0.030968 0.080761 0
-0.029744 0.061615 0
-0.028730 0.044258 0
-0.027958 0.028394 0
-0.027437 0.013658 0
-0.027166 -0.000389 0
-0.027132 -0.014282 0
-0.027276 -0.028582 0
-0.027542 -0.043767 0
-0.027867 -0.060267 0
-0.028191 -0.078478 0
-0.028461 -0.098740 0
-0.028632 -0.121288 0
-0.028673 -0.146210 0
-0.028570 -0.173405 0
-0.028317 -0.202569 0
-0.027916 -0.233199 0
-0.027362 -0.264609 0
-0.026642 -0.295921 0
-0.025724 -0.326038 0
-0.024560 -0.353607 0
-0.023094 -0.377025 0
-0.021243 -0.394318 0
-0.018619 -0.400239 0
-0.012728 -0.354912 0
0.000000 -0.155251 0
0.000000 0.163323 0
0.001700 0.361830 0
-0.002910 0.396187 0
-0.007876 0.389339 0
-0.011990 0.373759 0
-0.015180 0.352002 0
-0.017486 0.325841 0
-0.018977 0.296897 0
-0.019743 0.266533 0
-0.019887 0.235829 0
-0.019531 0.205636 0
-0.018801 0.176613 0
-0.017830 0.149250 0
-0.016747 0.123880 0
-0.015660 0.100673 0
-0.014655 0.079647 0
-0.013807 0.060679 0
-0.013148 0.043532 0
-0.012685 0.027889 0
-0.012407 0.013369 0
-0.012295 -0.000477 0
-0.012314 -0.014208 0
-0.012415 -0.028401 0
-0.012552 -0.043535 0
-0.012675 -0.060039 0
-0.012736 -0.078305 0
-0.012703 -0.098659 0
-0.012557 -0.121321 0
-0.012306 -0.146361 0
-0.011977 -0.173661 0
-0.011613 -0.202908 0
-0.011261 -0.233598 0
-0.010966 -0.265053 0
-0.010762 -0.296409 0
-0.010666 -0.326584 0
-0.010681 -0.354239 0
-0.010795 -0.377785 0
-0.010980 -0.395374 0
-0.011021 -0.402873 0
-0.008855 -0.362288 0
0.000000 -0.160630 0
0.000000 0.161521 0
0.005491 0.361443 0
0.004465 0.399432 0
0.002121 0.392696 0
0.000119 0.376453 0
-0.001397 0.353998 0
-0.002440 0.327182 0
-0.003031 0.297638 0
-0.003210 0.266746 0
-0.003035 0.235604 0
-0.002577 0.205074 0
-0.001923 0.175823 0
-0.001162 0.148346 0
-0.000385 0.122959 0
0.000335 0.099809 0
0.000948 0.078909 0
0.001416 0.060109 0
0.001733 0.043136 0
0.001914 0.027653 0
0.001987 0.013268 0
0.001988 -0.000482 0
0.001978 -0.014162 0
0.001989 -0.028344 0
0.002052 -0.043507 0
0.002201 -0.060082 0
0.002466 -0.078450 0
0.002858 -0.098919 0
0.003360 -0.121685 0
0.003929 -0.146790 0
0.004495 -0.174099 0
0.004971 -0.203285 0
0.005263 -0.233845 0
0.005283 -0.265108 0
0.004950 -0.296221 0
0.004199 -0.326119 0
0.002979 -0.353479 0
0.001258 -0.376726 0
-0.000983 -0.394092 0
-0.003640 -0.402364 0
-0.005081 -0.365933 0
0.000000 -0.164106 0
0.000000 0.157832 0
0.009296 0.357365 0
0.011918 0.399557 0
0.012223 0.393684 0
0.012308 0.377276 0
0.012414 0.354561 0
0.012583 0.327475 0
0.012840 0.297668 0
0.013196 0.266537 0
0.013643 0.235197 0
0.014158 0.204524 0
0.014699 0.175197 0
0.015220 0.147713 0
0.015677 0.122383 0
0.016028 0.099339 0
0.016254 0.078565 0
0.016365 0.059894 0
0.016379 0.043035 0
0.016330 0.027635 0
0.016265 0.013294 0
0.016232 -0.000468 0
0.016287 -0.014209 0
0.016458 -0.028475 0
0.016767 -0.043747 0
0.017231 -0.060453 0
0.017857 -0.078961 0
0.018628 -0.099552 0
0.019495 -0.122393 0
0.020377 -0.147496 0
0.021161 -0.174703 0
0.021719 -0.203676 0
0.021916 -0.233910 0
0.021619 -0.264740 0
0.020704 -0.295324 0
0.019059 -0.324612 0
0.016586 -0.351298 0
0.013209 -0.373823 0
0.008882 -0.390476 0
0.003645 -0.398775 0
-0.001328 -0.365928 0
0.000000 -0.165711 0
0.000000 0.152225 0
0.013191 0.349524 0
0.019572 0.396505 0
0.022574 0.392307 0
0.024716 0.376263 0
0.026412 0.353724 0
0.027762 0.326756 0
0.028839 0.297025 0
0.029704 0.265942 0
0.030402 0.234642 0
0.030955 0.204019 0
0.031373 0.174761 0
0.031654 0.147368 0
0.031799 0.122151 0
0.031810 0.099233 0
0.031701 0.078572 0
0.031512 0.059984 0
0.031287 0.043171 0
0.031075 0.027767 0
0.030937 0.013366 0
0.030931 -0.000504 0
0.031100 -0.014389 0
0.031468 -0.028823 0
0.032051 -0.044279 0
0.032851 -0.061173 0
0.033849 -0.079848 0
0.034997 -0.100558 0
0.036214 -0.123433 0
0.037377 -0.148456 0
0.038338 -0.175441 0
0.038928 -0.204040 0
0.038972 -0.233746 0
0.038297 -0.263896 0
0.036734 -0.293661 0
0.034126 -0.322001 0
0.030329 -0.347629 0