# vtk DataFile Version 2.0
generated by CFD-lab course output (written by Tobias Neckel) 
ASCII

DATASET STRUCTURED_GRID
DIMENSIONS  41 41 1 
POINTS 1681 float

0.150000 0.150000 0
0.167857 0.150000 0
0.185714 0.150000 0
0.203571 0.150000 0
0.221429 0.150000 0
0.239286 0.150000 0
0.257143 0.150000 0
0.275000 0.150000 0
0.292857 0.150000 0
0.310714 0.150000 0
0.328571 0.150000 0
0.346429 0.150000 0
0.364286 0.150000 0
0.382143 0.150000 0
0.400000 0.150000 0
0.417857 0.150000 0
0.435714 0.150000 0
0.453571 0.150000 0
0.471429 0.150000 0
0.489286 0.150000 0
0.507143 0.150000 0
0.525000 0.150000 0
0.542857 0.150000 0
0.560714 0.150000 0
0.578571 0.150000 0
0.596429 0.150000 0
0.614286 0.150000 0
0.632143 0.150000 0
0.650000 0.150000 0
0.667857 0.150000 0
0.685714 0.150000 0
0.703571 0.150000 0
0.721429 0.150000 0
0.739286 0.150000 0
0.757143 0.150000 0
0.775000 0.150000 0
0.792857 0.150000 0
0.810714 0.150000 0
0.828571 0.150000 0
0.846429 0.150000 0
0.864286 0.150000 0
0.150000 0.167857 0
0.167857 0.167857 0
0.185714 0.167857 0
0.203571 0.167857 0
0.221429 0.167857 0
0.239286 0.167857 0
0.257143 0.167857 0
0.275000 0.167857 0
0.292857 0.167857 0
0.310714 0.167857 0
0.328571 0.167857 0
0.346429 0.167857 0
0.364286 0.167857 0
0.382143 0.167857 0
0.400000 0.167857 0
0.417857 0.167857 0
0.435714 0.167857 0
0.453571 0.167857 0
0.471429 0.167857 0
0.489286 0.167857 0
0.507143 0.167857 0
0.525000 0.167857 0
0.542857 0.167857 0
0.560714 0.167857 0
0.578571 0.167857 0
0.596429 0.167857 0
0.614286 0.167857 0
0.632143 0.167857 0
0.650000 0.167857 0
0.667857 0.167857 0
0.685714 0.167857 0
0.703571 0.167857 0
0.721429 0.167857 0
0.739286 0.167857 0
0.757143 0.167857 0
0.775000 0.167857 0
0.792857 0.167857 0
0.810714 0.167857 0
0.828571 0.167857 0
0.846429 0.167857 0
0.864286 0.167857 0
0.150000 0.185714 0
0.167857 0.185714 0
0.185714 0.185714 0
0.203571 0.185714 0
0.221429 0.185714 0
0.239286 0.185714 0
0.257143 0.185714 0
0.275000 0.185714 0
0.292857 0.185714 0
0.310714 0.185714 0
0.328571 0.185714 0
0.346429 0.185714 0
0.364286 0.185714 0
0.382143 0.185714 0
0.400000 0.185714 0
0.417857 0.185714 0
0.435714 0.185714 0
0.453571 0.185714 0
0.471429 0.185714 0
0.489286 0.185714 0
0.507143 0.185714 0
0.525000 0.185714 0
0.542857 0.185714 0
0.560714 0.185714 0
0.578571 0.185714 0
0.596429 0.185714 0
0.614286 0.185714 0
0.632143 0.185714 0
0.650000 0.185714 0
0.667857 0.185714 0
0.685714 0.185714 0
0.703571 0.185714 0
0.721429 0.185714 0
0.739286 0.185714 0
0.757143 0.185714 0
0.775000 0.185714 0
0.792857 0.185714 0
0.810714 0.185714 0
0.828571 0.185714 0
0.846429 0.185714 0
0.864286 0.185714 0
0.150000 0.203571 0
0.167857 0.203571 0
0.185714 0.203571 0
0.203571 0.203571 0
0.221429 0.203571 0
0.239286 0.203571 0
0.257143 0.203571 0
0.275000 0.203571 0
0.292857 0.203571 0
0.310714 0.203571 0
0.328571 0.203571 0
0.346429 0.203571 0
0.364286 0.203571 0
0.382143 0.203571 0
0.400000 0.203571 0
0.417857 0.203571 0
0.435714 0.203571 0
0.453571 0.203571 0
0.471429 0.203571 0
0.489286 0.203571 0
0.507143 0.203571 0
0.525000 0.203571 0
0.542857 0.203571 0
0.560714 0.203571 0
0.578571 0.203571 0
0.596429 0.203571 0
0.614286 0.203571 0
0.632143 0.203571 0
0.650000 0.203571 0
0.667857 0.203571 0
0.685714 0.203571 0
0.703571 0.203571 0
0.721429 0.203571 0
0.739286 0.203571 0
0.757143 0.203571 0
0.775000 0.203571 0
0.792857 0.203571 0
0.810714 0.203571 0
0.828571 0.203571 0
0.846429 0.203571 0
0.864286 0.203571 0
0.150000 0.221429 0
0.167857 0.221429 0
0.185714 0.221429 0
0.203571 0.221429 0
0.221429 0.221429 0
0.239286 0.221429 0
0.257143 0.221429 0
0.275000 0.221429 0
0.292857 0.221429 0
0.310714 0.221429 0
0.328571 0.221429 0
0.346429 0.221429 0
0.364286 0.221429 0
0.382143 0.221429 0
0.400000 0.221429 0
0.417857 0.221429 0
0.435714 0.221429 0
0.453571 0.221429 0
0.471429 0.221429 0
0.489286 0.221429 0
0.507143 0.221429 0
0.525000 0.221429 0
0.542857 0.221429 0
0.560714 0.221429 0
0.578571 0.221429 0
0.596429 0.221429 0
0.614286 0.221429 0
0.632143 0.221429 0
0.650000 0.221429 0
0.667857 0.221429 0
0.685714 0.221429 0
0.703571 0.221429 0
0.721429 0.221429 0
0.739286 0.221429 0
0.757143 0.221429 0
0.775000 0.221429 0
0.792857 0.221429 0
0.810714 0.221429 0
0.828571 0.221429 0
0.846429 0.221429 0
0.864286 0.221429 0
0.150000 0.239286 0
0.167857 0.239286 0
0.185714 0.239286 0
0.203571 0.239286 0
0.221429 0.239286 0
0.239286 0.239286 0
0.257143 0.239286 0
0.275000 0.239286 0
0.292857 0.239286 0
0.310714 0.239286 0
0.328571 0.239286 0
0.346429 0.239286 0
0.364286 0.239286 0
0.382143 0.239286 0
0.400000 0.239286 0
0.417857 0.239286 0
0.435714 0.239286 0
0.453571 0.239286 0
0.471429 0.239286 0
0.489286 0.239286 0
0.507143 0.239286 0
0.525000 0.239286 0
0.542857 0.239286 0
0.560714 0.239286 0
0.578571 0.239286 0
0.596429 0.239286 0
0.614286 0.239286 0
0.632143 0.239286 0
0.650000 0.239286 0
0.667857 0.239286 0
0.685714 0.239286 0
0.703571 0.239286 0
0.721429 0.239286 0
0.739286 0.239286 0
0.757143 0.239286 0
0.775000 0.239286 0
0.792857 0.239286 0
0.810714 0.239286 0
0.828571 0.239286 0
0.846429 0.239286 0
0.864286 0.239286 0
0.150000 0.257143 0
0.167857 0.257143 0
0.185714 0.257143 0
0.203571 0.257143 0
0.221429 0.257143 0
0.239286 0.257143 0
0.257143 0.257143 0
0.275000 0.257143 0
0.292857 0.257143 0
0.310714 0.257143 0
0.328571 0.257143 0
0.346429 0.257143 0
0.364286 0.257143 0
0.382143 0.257143 0
0.400000 0.257143 0
0.417857 0.257143 0
0.435714 0.257143 0
0.453571 0.257143 0
0.471429 0.257143 0
0.489286 0.257143 0
0.507143 0.257143 0
0.525000 0.257143 0
0.542857 0.257143 0
0.560714 0.257143 0
0.578571 0.257143 0
0.596429 0.257143 0
0.614286 0.257143 0
0.632143 0.257143 0
0.650000 0.257143 0
0.667857 0.257143 0
0.685714 0.257143 0
0.703571 0.257143 0
0.721429 0.257143 0
0.739286 0.257143 0
0.757143 0.257143 0
0.775000 0.257143 0
0.792857 0.257143 0
0.810714 0.257143 0
0.828571 0.257143 0
0.846429 0.257143 0
0.864286 0.257143 0
0.150000 0.275000 0
0.167857 0.275000 0
0.185714 0.275000 0
0.203571 0.275000 0
0.221429 0.275000 0
0.239286 0.275000 0
0.257143 0.275000 0
0.275000 0.275000 0
0.292857 0.275000 0
0.310714 0.275000 0
0.328571 0.275000 0
0.346429 0.275000 0
0.364286 0.275000 0
0.382143 0.275000 0
0.400000 0.275000 0
0.417857 0.275000 0
0.435714 0.275000 0
0.453571 0.275000 0
0.471429 0.275000 0
0.489286 0.275000 0
0.507143 0.275000 0
0.525000 0.275000 0
0.542857 0.275000 0
0.560714 0.275000 0
0.578571 0.275000 0
0.596429 0.275000 0
0.614286 0.275000 0
0.632143 0.275000 0
0.650000 0.275000 0
0.667857 0.275000 0
0.685714 0.275000 0
0.703571 0.275000 0
0.721429 0.275000 0
0.739286 0.275000 0
0.757143 0.275000 0
0.775000 0.275000 0
0.792857 0.275000 0
0.810714 0.275000 0
0.828571 0.275000 0
0.846429 0.275000 0
0.864286 0.275000 0
0.150000 0.292857 0
0.167857 0.292857 0
0.185714 0.292857 0
0.203571 0.292857 0
0.221429 0.292857 0
0.239286 0.292857 0
0.257143 0.292857 0
0.275000 0.292857 0
0.292857 0.292857 0
0.310714 0.292857 0
0.328571 0.292857 0
0.346429 0.292857 0
0.364286 0.292857 0
0.382143 0.292857 0
0.400000 0.292857 0
0.417857 0.292857 0
0.435714 0.292857 0
0.453571 0.292857 0
0.471429 0.292857 0
0.489286 0.292857 0
0.507143 0.292857 0
0.525000 0.292857 0
0.542857 0.292857 0
0.560714 0.292857 0
0.578571 0.292857 0
0.596429 0.292857 0
0.614286 0.292857 0
0.632143 0.292857 0
0.650000 0.292857 0
0.667857 0.292857 0
0.685714 0.292857 0
0.703571 0.292857 0
0.721429 0.292857 0
0.739286 0.292857 0
0.757143 0.292857 0
0.775000 0.292857 0
0.792857 0.292857 0
0.810714 0.292857 0
0.828571 0.292857 0
0.846429 0.292857 0
0.864286 0.292857 0
0.150000 0.310714 0
0.167857 0.310714 0
0.185714 0.310714 0
0.203571 0.310714 0
0.221429 0.310714 0
0.239286 0.310714 0
0.257143 0.310714 0
0.275000 0.310714 0
0.292857 0.310714 0
0.310714 0.310714 0
0.328571 0.310714 0
0.346429 0.310714 0
0.364286 0.310714 0
0.382143 0.310714 0
0.400000 0.310714 0
0.417857 0.310714 0
0.435714 0.310714 0
0.453571 0.310714 0
0.471429 0.310714 0
0.489286 0.310714 0
0.507143 0.310714 0
0.525000 0.310714 0
0.542857 0.310714 0
0.560714 0.310714 0
0.578571 0.310714 0
0.596429 0.310714 0
0.614286 0.310714 0
0.632143 0.310714 0
0.650000 0.310714 0
0.667857 0.310714 0
0.685714 0.310714 0
0.703571 0.310714 0
0.721429 0.310714 0
0.739286 0.310714 0
0.757143 0.310714 0
0.775000 0.310714 0
0.792857 0.310714 0
0.810714 0.310714 0
0.828571 0.310714 0
0.846429 0.310714 0
0.864286 0.310714 0
0.150000 0.328571 0
0.167857 0.328571 0
0.185714 0.328571 0
0.203571 0.328571 0
0.221429 0.328571 0
0.239286 0.328571 0
0.257143 0.328571 0
0.275000 0.328571 0
0.292857 0.328571 0
0.310714 0.328571 0
0.328571 0.328571 0
0.346429 0.328571 0
0.364286 0.328571 0
0.382143 0.328571 0
0.400000 0.328571 0
0.417857 0.328571 0
0.435714 0.328571 0
0.453571 0.328571 0
0.471429 0.328571 0
0.489286 0.328571 0
0.507143 0.328571 0
0.525000 0.328571 0
0.542857 0.328571 0
0.560714 0.328571 0
0.578571 0.328571 0
0.596429 0.328571 0
0.614286 0.328571 0
0.632143 0.328571 0
0.650000 0.328571 0
0.667857 0.328571 0
0.685714 0.328571 0
0.703571 0.328571 0
0.721429 0.328571 0
0.739286 0.328571 0
0.757143 0.328571 0
0.775000 0.328571 0
0.792857 0.328571 0
0.810714 0.328571 0
0.828571 0.328571 0
0.846429 0.328571 0
0.864286 0.328571 0
0.150000 0.346429 0
0.167857 0.346429 0
0.185714 0.346429 0
0.203571 0.346429 0
0.221429 0.346429 0
0.239286 0.346429 0
0.257143 0.346429 0
0.275000 0.346429 0
0.292857 0.346429 0
0.310714 0.346429 0
0.328571 0.346429 0
0.346429 0.346429 0
0.364286 0.346429 0
0.382143 0.346429 0
0.400000 0.346429 0
0.417857 0.346429 0
0.435714 0.346429 0
0.453571 0.346429 0
0.471429 0.346429 0
0.489286 0.346429 0
0.507143 0.346429 0
0.525000 0.346429 0
0.542857 0.346429 0
0.560714 0.346429 0
0.578571 0.346429 0
0.596429 0.346429 0
0.614286 0.346429 0
0.632143 0.346429 0
0.650000 0.346429 0
0.667857 0.346429 0
0.685714 0.346429 0
0.703571 0.346429 0
0.721429 0.346429 0
0.739286 0.346429 0
0.757143 0.346429 0
0.775000 0.346429 0
0.792857 0.346429 0
0.810714 0.346429 0
0.828571 0.346429 0
0.846429 0.346429 0
[...]
POINT_DATA 1681 

VECTORS velocity float
0.000000 0.000000 0
0.000899 0.000000 0
0.002422 0.000000 0
0.002959 0.000000 0
0.002236 0.000000 0
0.000583 0.000000 0
-0.001723 0.000000 0
-0.004588 0.000000 0
-0.008073 0.000000 0
-0.012665 0.000000 0
-0.018474 0.000000 0
-0.025548 0.000000 0
-0.033724 0.000000 0
-0.042664 0.000000 0
-0.051949 0.000000 0
-0.061165 0.000000 0
-0.070081 0.000000 0
-0.078389 0.000000 0
-0.085900 0.000000 0
-0.092475 0.000000 0
-0.098036 0.000000 0
-0.102548 0.000000 0
-0.105994 0.000000 0
-0.108438 0.000000 0
-0.109819 0.000000 0
-0.110073 0.000000 0
-0.109079 0.000000 0
-0.106683 0.000000 0
-0.102781 0.000000 0
-0.097249 0.000000 0
-0.090051 0.000000 0
-0.081039 0.000000 0
-0.070131 0.000000 0
-0.057329 0.000000 0
-0.042833 0.000000 0
-0.027197 0.000000 0
-0.011530 0.000000 0
0.001768 0.000000 0
0.008191 0.000000 0
0.004984 0.000000 0
0.000000 0.000000 0
0.000000 -0.000899 0
-0.002355 -0.002422 0
-0.005766 -0.002060 0
-0.010740 0.000186 0
-0.017473 0.002376 0
-0.025692 0.003959 0
-0.035179 0.005170 0
-0.045910 0.006350 0
-0.058014 0.008077 0
-0.071744 0.010402 0
-0.087102 0.012883 0
-0.103894 0.015250 0
-0.121706 0.017116 0
-0.139959 0.018225 0
-0.158012 0.018500 0
-0.175271 0.018132 0
-0.191291 0.017225 0
-0.205679 0.015818 0
-0.218171 0.014085 0
-0.228602 0.012137 0
-0.236893 0.010074 0
-0.243023 0.007957 0
-0.247002 0.005890 0
-0.248862 0.003825 0
-0.248541 0.001634 0
-0.245972 -0.000740 0
-0.241065 -0.003390 0
-0.233672 -0.006299 0
-0.223599 -0.009434 0
-0.210629 -0.012730 0
-0.194563 -0.016210 0
-0.175157 -0.019920 0
-0.152238 -0.023710 0
-0.125807 -0.027298 0
-0.096231 -0.030132 0
-0.064546 -0.031303 0
-0.032920 -0.028966 0
-0.005404 -0.019721 0
0.011519 -0.003216 0
0.009055 0.008191 0
0.000000 0.004984 0
0.000000 0.002355 0
-0.011695 0.005766 0
-0.026447 0.008386 0
-0.041466 0.011707 0
-0.056830 0.014951 0
-0.072769 0.017706 0
-0.089459 0.020218 0
-0.106985 0.022834 0
-0.125323 0.025834 0
-0.143990 0.029088 0
-0.162674 0.032150 0
-0.180927 0.034604 0
-0.198324 0.036065 0
-0.214509 0.036306 0
-0.229200 0.035311 0
-0.242191 0.033279 0
-0.253242 0.030408 0
-0.262312 0.026880 0
-0.269380 0.022923 0
-0.274478 0.018723 0
-0.277664 0.014421 0
-0.278997 0.010109 0
-0.278530 0.005838 0
-0.276221 0.001538 0
-0.272099 -0.002889 0
-0.266182 -0.007475 0
-0.258424 -0.012300 0
-0.248770 -0.017467 0
-0.237045 -0.023043 0
-0.223053 -0.029036 0
-0.206486 -0.035472 0
-0.187137 -0.042324 0
-0.164813 -0.049350 0
-0.139465 -0.056007 0
-0.111326 -0.061261 0
-0.081159 -0.063312 0
-0.050660 -0.059142 0
-0.022548 -0.044439 0
-0.000513 -0.014459 0
0.007218 0.011519 0
0.000000 0.009055 0
0.000000 0.010797 0
-0.019908 0.024024 0
-0.042175 0.027710 0
-0.063362 0.030570 0
-0.083750 0.033679 0
-0.103670 0.036589 0
-0.123326 0.039387 0
-0.142721 0.042213 0
-0.161653 0.045082 0
-0.179685 0.047753 0
-0.196460 0.049820 0
-0.211648 0.050899 0
-0.225017 0.050699 0
-0.236458 0.049101 0
-0.245968 0.046182 0
-0.253612 0.042174 0
-0.259459 0.037346 0
-0.263660 0.031956 0
-0.266365 0.026251 0
-0.267710 0.020421 0
-0.267804 0.014592 0
-0.266712 0.008824 0
-0.264462 0.003114 0
-0.261009 -0.002606 0
-0.256413 -0.008404 0
-0.250609 -0.014414 0
-0.243488 -0.020801 0
-0.234924 -0.027678 0
-0.224767 -0.035152 0
-0.212824 -0.043289 0
-0.198845 -0.052125 0
-0.182609 -0.061593 0
-0.163905 -0.071383 0
-0.142591 -0.080785 0
-0.118684 -0.088438 0
-0.092518 -0.091970 0
-0.064970 -0.087577 0
-0.037652 -0.069868 0
-0.013312 -0.032981 0
0.004336 0.007678 0
0.000000 0.012202 0
0.000000 0.022262 0
-0.024125 0.047941 0
-0.050076 0.051839 0
-0.074208 0.053283 0
-0.096728 0.055260 0
-0.117897 0.057282 0
-0.137867 0.059269 0
-0.156610 0.061160 0
-0.173941 0.062798 0
-0.189575 0.063896 0
-0.203280 0.064113 0
-0.214910 0.063161 0
-0.224439 0.060875 0
-0.231962 0.057257 0
-0.237667 0.052466 0
-0.241782 0.046770 0
-0.244530 0.040456 0
-0.246135 0.033786 0
-0.246776 0.026974 0
-0.246580 0.020161 0
-0.245617 0.013423 0
-0.243908 0.006767 0
-0.241434 0.000135 0
-0.238165 -0.006510 0
-0.234085 -0.013289 0
-0.229069 -0.020400 0
-0.223052 -0.027985 0
-0.215933 -0.036188 0
-0.207599 -0.045143 0
-0.197903 -0.054957 0
-0.186661 -0.065687 0
-0.173678 -0.077264 0
-0.158738 -0.089368 0
-0.141616 -0.101228 0
-0.122114 -0.111335 0
-0.100140 -0.117026 0
-0.075849 -0.114008 0
-0.049877 -0.096096 0
-0.023832 -0.056447 0
-0.001092 -0.001794 0
0.000000 0.013391 0
0.000000 0.034922 0
-0.025284 0.074100 0
-0.052269 0.077793 0
-0.077026 0.077222 0
-0.099653 0.077369 0
-0.120327 0.077728 0
-0.139155 0.078100 0
-0.156130 0.078288 0
-0.171154 0.078047 0
-0.184102 0.077091 0
-0.194905 0.075155 0
-0.203584 0.072058 0
-0.210269 0.067751 0
-0.215179 0.062329 0
-0.218590 0.056002 0
-0.220780 0.049038 0
-0.221998 0.041699 0
-0.222446 0.034202 0
-0.222264 0.026696 0
-0.221531 0.019262 0
-0.220273 0.011919 0
-0.218486 0.004641 0
-0.216146 -0.002629 0
-0.213246 -0.009956 0
-0.209690 -0.017501 0
-0.205426 -0.025447 0
-0.200404 -0.033937 0
-0.194563 -0.043130 0
-0.187833 -0.053182 0
-0.180122 -0.064227 0
-0.171311 -0.076350 0
-0.161253 -0.089516 0
-0.149749 -0.103445 0
-0.136527 -0.117409 0
-0.121233 -0.129913 0
-0.103437 -0.138235 0
-0.082726 -0.137840 0
-0.058959 -0.121884 0
-0.032919 -0.081766 0
-0.008063 -0.016154 0
0.000000 0.011110 0
0.000000 0.047546 0
-0.024464 0.100210 0
-0.050756 0.103581 0
-0.074652 0.100667 0
-0.096138 0.098562 0
-0.115330 0.096784 0
-0.132323 0.095072 0
-0.147152 0.093159 0
-0.159822 0.090770 0
-0.170343 0.087647 0
-0.178782 0.083595 0
-0.185282 0.078525 0
-0.190059 0.072470 0
-0.193382 0.065577 0
-0.195534 0.058067 0
-0.196776 0.050178 0
-0.197317 0.042122 0
-0.197308 0.034053 0
-0.196842 0.026058 0
-0.195963 0.018171 0
-0.194684 0.010379 0
-0.192999 0.002639 0
-0.190889 -0.005105 0
-0.188339 -0.012966 0
-0.185267 -0.021109 0
-0.181653 -0.029686 0
-0.177466 -0.038847 0
-0.172677 -0.048759 0
-0.167254 -0.059585 0
-0.161156 -0.071479 0
-0.154324 -0.084555 0
-0.146666 -0.098827 0
-0.138024 -0.114094 0
-0.128132 -0.129744 0
-0.116559 -0.144425 0
-0.102668 -0.155533 0
-0.085654 -0.158486 0
-0.064781 -0.145903 0
-0.040119 -0.107342 0
-0.014436 -0.034713 0
0.000000 0.005328 0
0.000000 0.059387 0
-0.022471 0.124856 0
-0.047038 0.127980 0
-0.069218 0.122603 0
-0.088887 0.118047 0
-0.106133 0.113913 0
-0.121053 0.109921 0
-0.133735 0.105787 0
-0.144269 0.101238 0
-0.152767 0.096052 0
-0.159389 0.090094 0
-0.164346 0.083334 0
-0.167889 0.075851 0
-0.170284 0.067805 0
-0.171782 0.059396 0
-0.172596 0.050820 0
-0.172881 0.042231 0
-0.172743 0.033727 0
-0.172242 0.025351 0
-0.171406 0.017104 0
-0.170243 0.008955 0
-0.168749 0.000846 0
-0.166901 -0.007289 0
-0.164686 -0.015578 0
-0.162058 -0.024187 0
-0.159004 -0.033248 0
-0.155508 -0.042913 0
-0.151565 -0.053342 0
-0.147169 -0.064703 0
-0.142318 -0.077157 0
-0.136999 -0.090840 0
-0.131173 -0.105816 0
-0.124739 -0.121979 0
-0.117477 -0.138874 0
-0.108959 -0.155377 0
-0.098468 -0.169141 0
-0.084957 -0.175728 0
-0.067232 -0.167418 0
-0.044633 -0.132112 0
-0.018910 -0.056273 0
0.000000 -0.003325 0
0.000000 0.070017 0
-0.019843 0.147248 0
-0.042154 0.150328 0
-0.062206 0.142516 0
-0.079776 0.135477 0
-0.094941 0.128950 0
-0.107812 0.122674 0
-0.118522 0.116375 0
-0.127220 0.109802 0
-0.134088 0.102767 0
-0.139337 0.095174 0
-0.143205 0.087025 0
-0.145943 0.078408 0
-0.147790 0.069471 0
-0.148951 0.060378 0
-0.149589 0.051277 0
-0.149814 0.042270 0
-0.149698 0.033414 0
-0.149279 0.024721 0
-0.148573 0.016172 0
-0.147586 0.007721 0
-0.146312 -0.000703 0
-0.144745 -0.009168 0
-0.142861 -0.017809 0
-0.140641 -0.026791 0
-0.138077 -0.036236 0
-0.135164 -0.046286 0
-0.131907 -0.057099 0
-0.128320 -0.068832 0
-0.124421 -0.081650 0
-0.120228 -0.095700 0
-0.115742 -0.111086 0
-0.110916 -0.127790 0
-0.105595 -0.145524 0
-0.099416 -0.163434 0
-0.091683 -0.179535 0
-0.081250 -0.189722 0
-0.066597 -0.186227 0
-0.046395 -0.155665 0
-0.021334 -0.079345 0
0.000000 -0.013582 0
0.000000 0.079230 0
-0.016954 0.167010 0
-0.036799 0.170343 0
-0.054600 0.160226 0
-0.070033 0.150782 0
-0.083176 0.141948 0
-0.094156 0.133502 0
-0.103135 0.125195 0
-0.110303 0.116804 0
-0.115873 0.108168 0
-0.120080 0.099211 0
-0.123162 0.089941 0
-0.125351 0.080436 0
-0.126849 0.070813 0
-0.127822 0.061195 0
-0.128388 0.051684 0
-0.128627 0.042341 0
-0.128584 0.033191 0
-0.128284 0.024226 0
-0.127735 0.015412 0
-0.126938 0.006694 0
-0.125889 -0.001995 0
-0.124594 -0.010739 0
-0.123022 -0.019682 0
-0.121172 -0.028971 0
-0.119038 -0.038726 0
-0.116623 -0.049082 0
-0.113939 -0.060186 0
-0.111004 -0.072189 0
-0.107847 -0.085249 0
-0.104498 -0.099520 0
-0.100983 -0.115128 0
-0.097294 -0.132126 0
-0.093339 -0.150373 0
-0.088848 -0.169289 0
-0.083217 -0.187307 0
-0.075330 -0.200813 0
-0.063503 -0.202273 0
-0.045903 -0.177375 0
-0.022315 -0.102669 0
0.000000 -0.024659 0
0.000000 0.086971 0
-0.014049 0.184046 0
-0.031417 0.187974 0
-0.047013 0.175751 0
-0.060412 0.164053 0
-0.071693 0.153073 0
-0.080995 0.142633 0
-0.088499 0.132522 0
-0.094408 0.122540 0
-0.098949 0.112544 0
-0.102354 0.102463 0
-0.104847 0.092295 0
-0.106632 0.082095 0
-0.107880 0.071942 0
-0.108720 0.061917 0
-0.109242 0.052082 0
-0.109501 0.042466 0
-0.109529 0.033071 0
-0.109339 0.023872 0
-0.108935 0.014825 0
-0.108314 0.005874 0
-0.107474 -0.003047 0
-0.106415 -0.012035 0
-0.105122 -0.021231 0
-0.103596 -0.030775 0
-0.101838 -0.040784 0
-0.099851 -0.051386 0
-0.097649 -0.062718 0
-0.095252 -0.074924 0
-0.092689 -0.088155 0
-0.089995 -0.102564 0
-0.087202 -0.118291 0
-0.084322 -0.135434 0
-0.081313 -0.153970 0
-0.077992 -0.173556 0
-0.073887 -0.193053 0
-0.068008 -0.209436 0
-0.058665 -0.215654 0
-0.043702 -0.196852 0
-0.022134 -0.125249 0
0.000000 -0.035897 0
0.000000 0.093279 0
-0.011267 0.198427 0
-0.026267 0.203307 0
-0.039799 0.189221 0
-0.051334 0.175462 0
-0.060954 0.162532 0
-0.068804 0.150307 0
-0.075067 0.138608 0
-0.079950 0.127255 0
-0.083670 0.116114 0
-0.086446 0.105108 0
-0.088479 0.094219 0
-0.089945 0.083469 0
-0.090986 0.072901 0
-0.091706 0.062557 0
-0.092172 0.052464 0
-0.092429 0.042628 0
-0.092497 0.033030 0
-0.092385 0.023633 0
-0.092093 0.014387 0
-0.091617 0.005233 0
-0.090950 -0.003894 0
-0.090090 -0.013092 0
-0.089032 -0.022501 0
-0.087784 -0.032255 0
-0.086344 -0.042471 0
-0.084721 -0.053271 0
-0.082925 -0.064785 0
-0.080976 -0.077148 0
-0.078902 -0.090506 0
-0.076733 -0.105007 0
-0.074498 -0.120802 0
-0.072218 -0.138015 0
-0.069877 -0.156703 0
-0.067365 -0.176714 0
-0.064341 -0.197291 0
-0.059995 -0.216036 0
-0.052761 -0.226579 0
-0.040338 -0.213906 0
-0.021118 -0.146371 0
0.000000 -0.046793 0
0.000000 0.098239 0
-0.008680 0.210313 0
-0.021478 0.216505 0
-0.033130 0.200818 0
-0.042999 0.185209 0
-0.051165 0.170542 0
-0.057772 0.156746 0
-0.062998 0.143667 0
-0.067041 0.131143 0
-0.070100 0.119040 0
-0.072371 0.107271 0
-0.074031 0.095795 0
-0.075229 0.084603 0
-0.076083 0.073702 0
-0.076678 0.063103 0
-0.077070 0.052805 0
-0.077292 0.042791 0
-0.077363 0.033028 0
-0.077290 0.023468 0
-0.077070 0.014057 0
-0.076697 0.004731 0
-0.076162 -0.004574 0
-0.075461 -0.013952 0
-0.074596 -0.023538 0
-0.073575 -0.033463 0
-0.072400 -0.043847 0
-0.071079 -0.054805 0
-0.069622 -0.066462 0
-0.068048 -0.078947 0
-0.066380 -0.092399 0
-0.064642 -0.106968 0
-0.062859 -0.122806 0
-0.061049 -0.140055 0
-0.059211 -0.158822 0
-0.057279 -0.179093 0
-0.055027 -0.200423 0
-0.051839 -0.221016 0
-0.046359 -0.235311 0
-0.036296 -0.228495 0
-0.019571 -0.165587 0
0.000000 -0.057015 0
0.000000 0.101959 0
-0.006313 0.219905 0
-0.017097 0.227757 0
-0.027062 0.210742 0
-0.035461 0.193496 0
-0.042363 0.177304 0
-0.047911 0.162141 0
-0.052270 0.147877 0
-0.055619 0.134357 0
-0.058137 0.121444 0
-0.059993 0.109039 0
-0.061340 0.097077 0
-0.062303 0.085521 0
-0.062981 0.074350 0
-0.063445 0.063543 0
-0.063743 0.053079 0
-0.063905 0.042922 0
-0.063946 0.033027 0
-0.063874 0.023339 0
-0.063687 0.013794 0
-0.063378 0.004326 0
-0.062938 -0.005129 0
-0.062357 -0.014658 0
-0.061642 -0.024387 0
-0.060802 -0.034451 0
-0.059840 -0.044967 0
-0.058766 -0.056049 0
-0.057591 -0.067815 0
-0.056330 -0.080390 0
-0.055001 -0.093912 0
-0.053625 -0.108528 0
-0.052219 -0.124395 0
-0.050799 -0.141663 0
-0.049367 -0.160473 0
-0.047887 -0.180898 0
-0.046215 -0.202731 0
-0.043917 -0.224704 0
-0.039882 -0.242123 0
-0.031959 -0.240693 0
-0.017736 -0.182667 0
0.000000 -0.066365 0
0.000000 0.104551 0
-0.004162 0.227410 0
-0.013113 0.237254 0
-0.021575 0.219182 0
-0.028683 0.200510 0
-0.034492 0.182993 0
-0.039134 0.166653 0
-0.042761 0.151376 0
-0.045529 0.137010 0
-0.047594 0.123414 0
-0.049100 0.110474 0
-0.050176 0.098104 0
-0.050927 0.086244 0
-0.051437 0.074844 0
-0.051768 0.063866 0
-0.051961 0.053265 0
-0.052043 0.042994 0
-0.052031 0.032997 0
-0.051932 0.023209 0
-0.051747 0.013561 0
-0.051470 0.003982 0
-0.051089 -0.005596 0
-0.050594 -0.015248 0
-0.049993 -0.025093 0
-0.049292 -0.035265 0
-0.048498 -0.045882 0
-0.047624 -0.057055 0
-0.046680 -0.068899 0
-0.045680 -0.081536 0
-0.044638 -0.095103 0
-0.043570 -0.109750 0
-0.042488 -0.125631 0
-0.041407 -0.142907 0
-0.040328 -0.161734 0
-0.039232 -0.182245 0
-0.038034 -0.204393 0
-0.036448 -0.227348 0
-0.033614 -0.247269 0
-0.027599 -0.250642 0
-0.015789 -0.197546 0
0.000000 -0.074751 0
0.000000 0.106121 0
-0.002204 0.233018 0
-0.009484 0.245170 0
-0.016605 0.226312 0
-0.022580 0.206413 0
-0.027438 0.187755 0
-0.031300 0.170410 0
-0.034299 0.154272 0
-0.036572 0.139190 0
-0.038249 0.125015 0
-0.039451 0.111621 0
-0.040286 0.098904 0
-0.040844 0.086783 0
-0.041195 0.075191 0
-0.041394 0.064067 0
-0.041476 0.053354 0
-0.041469 0.042991 0
-0.041389 0.032916 0
-0.041245 0.023055 0
-0.041040 0.013332 0
-0.040770 0.003668 0
-0.040422 -0.006005 0
-0.039984 -0.015755 0
-0.039465 -0.025690 0
-0.038869 -0.035945 0
-0.038207 -0.046635 0
-0.037494 -0.057867 0
-0.036741 -0.069759 0
-0.035961 -0.082432 0
-0.035163 -0.096022 0
-0.034360 -0.110678 0
-0.033564 -0.126558 0
-0.032786 -0.143824 0
-0.032030 -0.162648 0
-0.031287 -0.183192 0
-0.030513 -0.205514 0
-0.029532 -0.229125 0
-0.027713 -0.250972 0
-0.023391 -0.258518 0
-0.013850 -0.210266 0
0.000000 -0.082153 0
0.000000 0.106755 0
-0.000437 0.236894 0
-0.006141 0.251655 0
-0.012062 0.232278 0
-0.017037 0.211343 0
-0.021061 0.191712 0
-0.024243 0.173514 0
-0.026696 0.156648 0
-0.028536 0.140959 0
-0.029871 0.126293 0
-0.030803 0.112511 0
-0.031421 0.099497 0
-0.031800 0.087153 0
-0.032001 0.075394 0
-0.032071 0.064147 0
-0.032044 0.053341 0
-0.031945 0.042907 0
-0.031791 0.032772 0
-0.031592 0.022860 0
-0.031353 0.013086 0
-0.031072 0.003364 0
-0.030736 -0.006382 0
-0.030333 -0.016205 0
-0.029871 -0.026208 0
-0.029355 -0.036523 0
-0.028799 -0.047257 0
-0.028219 -0.058521 0
-0.027628 -0.070432 0
-0.027034 -0.083114 0
-0.026446 -0.096705 0
-0.025876 -0.111349 0
-0.025336 -0.127206 0
-0.024836 -0.144440 0
-0.024386 -0.163233 0
-0.023984 -0.183762 0
-0.023615 -0.206149 0
-0.023178 -0.230149 0
-0.022245 -0.253409 0
-0.019427 -0.264505 0
-0.011991 -0.220937 0
0.000000 -0.088601 0
0.000000 0.106558 0
0.001156 0.239159 0
-0.003011 0.256795 0
-0.007841 0.237208 0
-0.011926 0.215413 0
-0.015212 0.194961 0
-0.017791 0.176045 0
-0.019759 0.158565 0
-0.021213 0.142365 0
-0.022241 0.127282 0
-0.022926 0.113170 0
-0.023343 0.099901 0
-0.023555 0.087363 0
-0.023615 0.075462 0
-0.023562 0.064110 0
-0.023430 0.053228 0
-0.023241 0.042738 0
-0.023012 0.032562 0
-0.022754 0.022617 0
-0.022475 0.012812 0
-0.022172 0.003052 0
-0.021831 -0.006745 0
-0.021443 -0.016620 0
-0.021020 -0.026668 0
-0.020569 -0.037017 0
-0.020105 -0.047771 0
-0.019642 -0.059039 0
-0.019190 -0.070944 0
-0.018758 -0.083613 0
-0.018355 -0.097180 0
-0.017992 -0.111789 0
-0.017686 -0.127597 0
-0.017449 -0.144773 0
-0.017294 -0.163500 0
-0.017231 -0.183963 0
-0.017263 -0.206321 0
-0.017340 -0.230495 0
-0.017205 -0.254722 0
-0.015734 -0.268771 0
-0.010243 -0.229693 0
0.000000 -0.094145 0
0.000000 0.105599 0
0.002629 0.239905 0
-0.000004 0.260652 0
-0.003847 0.241194 0
-0.007118 0.218715 0
-0.009740 0.197577 0
-0.011776 0.178061 0
-0.013306 0.160070 0
-0.014406 0.143441 0
-0.015151 0.128007 0
-0.015607 0.113614 0
-0.015836 0.100127 0
-0.015889 0.087424 0
-0.015814 0.075401 0
-0.015645 0.063962 0
-0.015412 0.053019 0
-0.015137 0.042488 0
-0.014836 0.032286 0
-0.014523 0.022324 0
-0.014203 0.012504 0
-0.013871 0.002719 0
-0.013506 -0.007111 0
-0.013119 -0.017016 0
-0.012724 -0.027082 0
-0.012333 -0.037437 0
-0.011958 -0.048184 0
-0.011603 -0.059436 0
-0.011275 -0.071316 0
-0.010987 -0.083950 0
-0.010749 -0.097470 0
-0.010577 -0.112018 0
-0.010490 -0.127749 0
-0.010504 -0.144833 0
-0.010640 -0.163451 0
-0.010919 -0.183793 0
-0.011356 -0.206039 0
-0.011936 -0.230207 0
-0.012543 -0.255015 0
-0.012295 -0.271467 0
-0.008604 -0.236671 0
0.000000 -0.098843 0
0.000000 0.103928 0
0.004034 0.239163 0
0.002936 0.263271 0
0.000066 0.244322 0
-0.002483 0.221306 0
-0.004507 0.199619 0
-0.006039 0.179610 0
-0.007161 0.161195 0
-0.007934 0.144210 0
-0.008412 0.128483 0
-0.008649 0.113855 0
-0.008697 0.100183 0
-0.008599 0.087342 0
-0.008393 0.075217 0
-0.008113 0.063708 0
-0.007784 0.052720 0
-0.007427 0.042162 0
-0.007060 0.031948 0
-0.006693 0.021984 0
-0.006336 0.012161 0
-0.005974 0.002354 0
-0.005571 -0.007497 0
-0.005183 -0.017402 0
-0.004818 -0.027453 0
-0.004488 -0.037783 0
-0.004196 -0.048502 0
-0.003939 -0.059721 0
-0.003725 -0.071560 0
-0.003567 -0.084140 0
-0.003483 -0.097589 0
-0.003491 -0.112048 0
-0.003614 -0.127670 0
-0.003877 -0.144623 0
-0.004305 -0.163086 0
-0.004929 -0.183247 0
-0.005778 -0.205303 0
-0.006866 -0.229308 0
-0.008182 -0.254364 0
-0.009065 -0.272710 0
-0.007061 -0.241988 0
0.000000 -0.102749 0
0.000000 0.101565 0
0.005420 0.236969 0
0.005845 0.264621 0
0.004000 0.246613 0
0.002119 0.223288 0
0.000653 0.201133 0
-0.000420 0.180716 0
-0.001165 0.161964 0
-0.001627 0.144691 0
-0.001849 0.128723 0
-0.001874 0.113899 0
-0.001744 0.100076 0
-0.001496 0.087120 0
-0.001164 0.074915 0
-0.000775 0.063353 0
-0.000353 0.052334 0
0.000083 0.041764 0
0.000521 0.031552 0
0.000953 0.021600 0
0.001369 0.011785 0
0.001767 0.001954 0
0.002168 -0.007902 0
0.002526 -0.017769 0
0.002843 -0.027776 0
0.003114 -0.038060 0
0.003337 -0.048734 0
0.003511 -0.059907 0
0.003622 -0.071687 0
0.003657 -0.084192 0
0.003594 -0.097546 0
0.003410 -0.111886 0
0.003078 -0.127364 0
0.002566 -0.144142 0
0.001840 -0.162399 0
0.000865 -0.182320 0
-0.000399 -0.204103 0
-0.002020 -0.227802 0
-0.004029 -0.252817 0
-0.005980 -0.272589 0
-0.005584 -0.245735 0
0.000000 -0.105904 0
0.000000 0.098508 0
0.006829 0.233318 0
0.008808 0.264691 0
0.008011 0.248049 0
0.006817 0.224653 0
0.005884 0.202158 0
0.005232 0.181429 0
0.004841 0.162402 0
0.004678 0.144894 0
0.004706 0.128730 0
0.004890 0.113750 0
0.005197 0.099805 0
0.005595 0.086761 0
0.006056 0.074496 0
0.006554 0.062898 0
0.007070 0.051862 0
0.007588 0.041288 0
0.008100 0.031078 0
0.008602 0.021136 0
0.009079 0.011346 0
0.009512 0.001556 0
0.009876 -0.008255 0
0.010185 -0.018077 0
0.010449 -0.028041 0
0.010666 -0.038278 0
0.010827 -0.048898 0
0.010922 -0.060006 0
0.010936 -0.071706 0
0.010851 -0.084112 0
0.010644 -0.097343 0
0.010287 -0.111532 0
0.009745 -0.126826 0
0.008979 -0.143385 0
0.007947 -0.161385 0
0.006599 -0.181008 0
0.004881 -0.202418 0
0.002704 -0.225678 0
0.000028 -0.250404 0
-0.002964 -0.271155 0
-0.004138 -0.247968 0
0.000000 -0.108333 0
0.000000 0.094736 0
0.008296 0.228161 0
0.011900 0.263438 0
0.012205 0.248604 0
0.011714 0.225414 0
0.011289 0.202718 0
0.011049 0.181759 0
0.011005 0.162518 0
0.011134 0.144826 0
0.011409 0.128510 0
0.011804 0.113408 0
0.012290 0.099371 0
0.012843 0.086262 0
0.013437 0.073956 0
0.014051 0.062338 0
0.014668 0.051300 0
0.015274 0.040734 0
0.015858 0.030539 0
0.016411 0.020621 0
0.016918 0.010874 0
0.017363 0.001158 0
0.017708 -0.008575 0
0.017985 -0.018342 0
0.018207 -0.028257 0
0.018372 -0.038438 0
0.018468 -0.048990 0
0.018482 -0.060016 0
0.018397 -0.071617 0
0.018193 -0.083900 0
0.017841 -0.096981 0
0.017309 -0.110987 0
0.016554 -0.126056 0
0.015528 -0.142344 0
0.014174 -0.160019 0
0.012426 -0.179255 0
0.010209 -0.200207 0