# vtk DataFile Version 2.0
generated by CFD-lab course output (written by Tobias Neckel) 
ASCII

DATASET STRUCTURED_GRID
DIMENSIONS  41 41 1 
POINTS 1681 float

0.150000 0.150000 0
0.167857 0.150000 0
0.185714 0.150000 0
0.203571 0.150000 0
0.221429 0.150000 0
0.239286 0.150000 0
0.257143 0.150000 0
0.275000 0.150000 0
0.292857 0.150000 0
0.310714 0.150000 0
0.328571 0.150000 0
0.346429 0.150000 0
0.364286 0.150000 0
0.382143 0.150000 0
0.400000 0.150000 0
0.417857 0.150000 0
0.435714 0.150000 0
0.453571 0.150000 0
0.471429 0.150000 0
0.489286 0.150000 0
0.507143 0.150000 0
0.525000 0.150000 0
0.542857 0.150000 0
0.560714 0.150000 0
0.578571 0.150000 0
0.596429 0.150000 0
0.614286 0.150000 0
0.632143 0.150000 0
0.650000 0.150000 0
0.667857 0.150000 0
0.685714 0.150000 0
0.703571 0.150000 0
0.721429 0.150000 0
0.739286 0.150000 0
0.757143 0.150000 0
0.775000 0.150000 0
0.792857 0.150000 0
0.810714 0.150000 0
0.828571 0.150000 0
0.846429 0.150000 0
0.864286 0.150000 0
0.150000 0.167857 0
0.167857 0.167857 0
0.185714 0.167857 0
0.203571 0.167857 0
0.221429 0.167857 0
0.239286 0.167857 0
0.257143 0.167857 0
0.275000 0.167857 0
0.292857 0.167857 0
0.310714 0.167857 0
0.328571 0.167857 0
0.346429 0.167857 0
0.364286 0.167857 0
0.382143 0.167857 0
0.400000 0.167857 0
0.417857 0.167857 0
0.435714 0.167857 0
0.453571 0.167857 0
0.471429 0.167857 0
0.489286 0.167857 0
0.507143 0.167857 0
0.525000 0.167857 0
0.542857 0.167857 0
0.560714 0.167857 0
0.578571 0.167857 0
0.596429 0.167857 0
0.614286 0.167857 0
0.632143 0.167857 0
0.650000 0.167857 0
0.667857 0.167857 0
0.685714 0.167857 0
0.703571 0.167857 0
0.721429 0.167857 0
0.739286 0.167857 0
0.757143 0.167857 0
0.775000 0.167857 0
0.792857 0.167857 0
0.810714 0.167857 0
0.828571 0.167857 0
0.846429 0.167857 0
0.864286 0.167857 0
0.150000 0.185714 0
0.167857 0.185714 0
0.185714 0.185714 0
0.203571 0.185714 0
0.221429 0.185714 0
0.239286 0.185714 0
0.257143 0.185714 0
0.275000 0.185714 0
0.292857 0.185714 0
0.310714 0.185714 0
0.328571 0.185714 0
0.346429 0.185714 0
0.364286 0.185714 0
0.382143 0.185714 0
0.400000 0.185714 0
0.417857 0.185714 0
0.435714 0.185714 0
0.453571 0.185714 0
0.471429 0.185714 0
0.489286 0.185714 0
0.507143 0.185714 0
0.525000 0.185714 0
0.542857 0.185714 0
0.560714 0.185714 0
0.578571 0.185714 0
0.596429 0.185714 0
0.614286 0.185714 0
0.632143 0.185714 0
0.650000 0.185714 0
0.667857 0.185714 0
0.685714 0.185714 0
0.703571 0.185714 0
0.721429 0.185714 0
0.739286 0.185714 0
0.757143 0.185714 0
0.775000 0.185714 0
0.792857 0.185714 0
0.810714 0.185714 0
0.828571 0.185714 0
0.846429 0.185714 0
0.864286 0.185714 0
0.150000 0.203571 0
0.167857 0.203571 0
0.185714 0.203571 0
0.203571 0.203571 0
0.221429 0.203571 0
0.239286 0.203571 0
0.257143 0.203571 0
0.275000 0.203571 0
0.292857 0.203571 0
0.310714 0.203571 0
0.328571 0.203571 0
0.346429 0.203571 0
0.364286 0.203571 0
0.382143 0.203571 0
0.400000 0.203571 0
0.417857 0.203571 0
0.435714 0.203571 0
0.453571 0.203571 0
0.471429 0.203571 0
0.489286 0.203571 0
0.507143 0.203571 0
0.525000 0.203571 0
0.542857 0.203571 0
0.560714 0.203571 0
0.578571 0.203571 0
0.596429 0.203571 0
0.614286 0.203571 0
0.632143 0.203571 0
0.650000 0.203571 0
0.667857 0.203571 0
0.685714 0.203571 0
0.703571 0.203571 0
0.721429 0.203571 0
0.739286 0.203571 0
0.757143 0.203571 0
0.775000 0.203571 0
0.792857 0.203571 0
0.810714 0.203571 0
0.828571 0.203571 0
0.846429 0.203571 0
0.864286 0.203571 0
0.150000 0.221429 0
0.167857 0.221429 0
0.185714 0.221429 0
0.203571 0.221429 0
0.221429 0.221429 0
0.239286 0.221429 0
0.257143 0.221429 0
0.275000 0.221429 0
0.292857 0.221429 0
0.310714 0.221429 0
0.328571 0.221429 0
0.346429 0.221429 0
0.364286 0.221429 0
0.382143 0.221429 0
0.400000 0.221429 0
0.417857 0.221429 0
0.435714 0.221429 0
0.453571 0.221429 0
0.471429 0.221429 0
0.489286 0.221429 0
0.507143 0.221429 0
0.525000 0.221429 0
0.542857 0.221429 0
0.560714 0.221429 0
0.578571 0.221429 0
0.596429 0.221429 0
0.614286 0.221429 0
0.632143 0.221429 0
0.650000 0.221429 0
0.667857 0.221429 0
0.685714 0.221429 0
0.703571 0.221429 0
0.721429 0.221429 0
0.739286 0.221429 0
0.757143 0.221429 0
0.775000 0.221429 0
0.792857 0.221429 0
0.810714 0.221429 0
0.828571 0.221429 0
0.846429 0.221429 0
0.864286 0.221429 0
0.150000 0.239286 0
0.167857 0.239286 0
0.185714 0.239286 0
0.203571 0.239286 0
0.221429 0.239286 0
0.239286 0.239286 0
0.257143 0.239286 0
0.275000 0.239286 0
0.292857 0.239286 0
0.310714 0.239286 0
0.328571 0.239286 0
0.346429 0.239286 0
0.364286 0.239286 0
0.382143 0.239286 0
0.400000 0.239286 0
0.417857 0.239286 0
0.435714 0.239286 0
0.453571 0.239286 0
0.471429 0.239286 0
0.489286 0.239286 0
0.507143 0.239286 0
0.525000 0.239286 0
0.542857 0.239286 0
0.560714 0.239286 0
0.578571 0.239286 0
0.596429 0.239286 0
0.614286 0.239286 0
0.632143 0.239286 0
0.650000 0.239286 0
0.667857 0.239286 0
0.685714 0.239286 0
0.703571 0.239286 0
0.721429 0.239286 0
0.739286 0.239286 0
0.757143 0.239286 0
0.775000 0.239286 0
0.792857 0.239286 0
0.810714 0.239286 0
0.828571 0.239286 0
0.846429 0.239286 0
0.864286 0.239286 0
0.150000 0.257143 0
0.167857 0.257143 0
0.185714 0.257143 0
0.203571 0.257143 0
0.221429 0.257143 0
0.239286 0.257143 0
0.257143 0.257143 0
0.275000 0.257143 0
0.292857 0.257143 0
0.310714 0.257143 0
0.328571 0.257143 0
0.346429 0.257143 0
0.364286 0.257143 0
0.382143 0.257143 0
0.400000 0.257143 0
0.417857 0.257143 0
0.435714 0.257143 0
0.453571 0.257143 0
0.471429 0.257143 0
0.489286 0.257143 0
0.507143 0.257143 0
0.525000 0.257143 0
0.542857 0.257143 0
0.560714 0.257143 0
0.578571 0.257143 0
0.596429 0.257143 0
0.614286 0.257143 0
0.632143 0.257143 0
0.650000 0.257143 0
0.667857 0.257143 0
0.685714 0.257143 0
0.703571 0.257143 0
0.721429 0.257143 0
0.739286 0.257143 0
0.757143 0.257143 0
0.775000 0.257143 0
0.792857 0.257143 0
0.810714 0.257143 0
0.828571 0.257143 0
0.846429 0.257143 0
0.864286 0.257143 0
0.150000 0.275000 0
0.167857 0.275000 0
0.185714 0.275000 0
0.203571 0.275000 0
0.221429 0.275000 0
0.239286 0.275000 0
0.257143 0.275000 0
0.275000 0.275000 0
0.292857 0.275000 0
0.310714 0.275000 0
0.328571 0.275000 0
0.346429 0.275000 0
0.364286 0.275000 0
0.382143 0.275000 0
0.400000 0.275000 0
0.417857 0.275000 0
0.435714 0.275000 0
0.453571 0.275000 0
0.471429 0.275000 0
0.489286 0.275000 0
0.507143 0.275000 0
0.525000 0.275000 0
0.542857 0.275000 0
0.560714 0.275000 0
0.578571 0.275000 0
0.596429 0.275000 0
0.614286 0.275000 0
0.632143 0.275000 0
0.650000 0.275000 0
0.667857 0.275000 0
0.685714 0.275000 0
0.703571 0.275000 0
0.721429 0.275000 0
0.739286 0.275000 0
0.757143 0.275000 0
0.775000 0.275000 0
0.792857 0.275000 0
0.810714 0.275000 0
0.828571 0.275000 0
0.846429 0.275000 0
0.864286 0.275000 0
0.150000 0.292857 0
0.167857 0.292857 0
0.185714 0.292857 0
0.203571 0.292857 0
0.221429 0.292857 0
0.239286 0.292857 0
0.257143 0.292857 0
0.275000 0.292857 0
0.292857 0.292857 0
0.310714 0.292857 0
0.328571 0.292857 0
0.346429 0.292857 0
0.364286 0.292857 0
0.382143 0.292857 0
0.400000 0.292857 0
0.417857 0.292857 0
0.435714 0.292857 0
0.453571 0.292857 0
0.471429 0.292857 0
0.489286 0.292857 0
0.507143 0.292857 0
0.525000 0.292857 0
0.542857 0.292857 0
0.560714 0.292857 0
0.578571 0.292857 0
0.596429 0.292857 0
0.614286 0.292857 0
0.632143 0.292857 0
0.650000 0.292857 0
0.667857 0.292857 0
0.685714 0.292857 0
0.703571 0.292857 0
0.721429 0.292857 0
0.739286 0.292857 0
0.757143 0.292857 0
0.775000 0.292857 0
0.792857 0.292857 0
0.810714 0.292857 0
0.828571 0.292857 0
0.846429 0.292857 0
0.864286 0.292857 0
0.150000 0.310714 0
0.167857 0.310714 0
0.185714 0.310714 0
0.203571 0.310714 0
0.221429 0.310714 0
0.239286 0.310714 0
0.257143 0.310714 0
0.275000 0.310714 0
0.292857 0.310714 0
0.310714 0.310714 0
0.328571 0.310714 0
0.346429 0.310714 0
0.364286 0.310714 0
0.382143 0.310714 0
0.400000 0.310714 0
0.417857 0.310714 0
0.435714 0.310714 0
0.453571 0.310714 0
0.471429 0.310714 0
0.489286 0.310714 0
0.507143 0.310714 0
0.525000 0.310714 0
0.542857 0.310714 0
0.560714 0.310714 0
0.578571 0.310714 0
0.596429 0.310714 0
0.614286 0.310714 0
0.632143 0.310714 0
0.650000 0.310714 0
0.667857 0.310714 0
0.685714 0.310714 0
0.703571 0.310714 0
0.721429 0.310714 0
0.739286 0.310714 0
0.757143 0.310714 0
0.775000 0.310714 0
0.792857 0.310714 0
0.810714 0.310714 0
0.828571 0.310714 0
0.846429 0.310714 0
0.864286 0.310714 0
0.150000 0.328571 0
0.167857 0.328571 0
0.185714 0.328571 0
0.203571 0.328571 0
0.221429 0.328571 0
0.239286 0.328571 0
0.257143 0.328571 0
0.275000 0.328571 0
0.292857 0.328571 0
0.310714 0.328571 0
0.328571 0.328571 0
0.346429 0.328571 0
0.364286 0.328571 0
0.382143 0.328571 0
0.400000 0.328571 0
0.417857 0.328571 0
0.435714 0.328571 0
0.453571 0.328571 0
0.471429 0.328571 0
0.489286 0.328571 0
0.507143 0.328571 0
0.525000 0.328571 0
0.542857 0.328571 0
0.560714 0.328571 0
0.578571 0.328571 0
0.596429 0.328571 0
0.614286 0.328571 0
0.632143 0.328571 0
0.650000 0.328571 0
0.667857 0.328571 0
0.685714 0.328571 0
0.703571 0.328571 0
0.721429 0.328571 0
0.739286 0.328571 0
0.757143 0.328571 0
0.775000 0.328571 0
0.792857 0.328571 0
0.810714 0.328571 0
0.828571 0.328571 0
0.846429 0.328571 0
0.864286 0.328571 0
0.150000 0.346429 0
0.167857 0.346429 0
0.185714 0.346429 0
0.203571 0.346429 0
0.221429 0.346429 0
0.239286 0.346429 0
0.257143 0.346429 0
0.275000 0.346429 0
0.292857 0.346429 0
0.310714 0.346429 0
0.328571 0.346429 0
0.346429 0.346429 0
0.364286 0.346429 0
0.382143 0.346429 0
0.400000 0.346429 0
0.417857 0.346429 0
0.435714 0.346429 0
0.453571 0.346429 0
0.471429 0.346429 0
0.489286 0.346429 0
0.507143 0.346429 0
0.525000 0.346429 0
0.542857 0.346429 0
0.560714 0.346429 0
0.578571 0.346429 0
0.596429 0.346429 0
0.614286 0.346429 0
0.632143 0.346429 0
0.650000 0.346429 0
0.667857 0.346429 0
0.685714 0.346429 0
0.703571 0.346429 0
0.721429 0.346429 0
0.739286 0.346429 0
0.757143 0.346429 0
0.775000 0.346429 0
0.792857 0.346429 0
0.810714 0.346429 0
0.828571 0.346429 0
0.846429 0.346429 0
[...]
POINT_DATA 1681 

VECTORS velocity float
0.000000 0.000000 0
-0.003512 0.000000 0
-0.007144 0.000000 0
-0.010956 0.000000 0
-0.014913 0.000000 0
-0.018735 0.000000 0
-0.022223 0.000000 0
-0.025289 0.000000 0
-0.027902 0.000000 0
-0.030331 0.000000 0
-0.032534 0.000000 0
-0.034525 0.000000 0
-0.036293 0.000000 0
-0.037829 0.000000 0
-0.039139 0.000000 0
-0.040240 0.000000 0
-0.041356 0.000000 0
-0.042468 0.000000 0
-0.043599 0.000000 0
-0.044742 0.000000 0
-0.045894 0.000000 0
-0.047074 0.000000 0
-0.048319 0.000000 0
-0.049844 0.000000 0
-0.051633 0.000000 0
-0.053680 0.000000 0
-0.055898 0.000000 0
-0.058138 0.000000 0
-0.060196 0.000000 0
-0.061810 0.000000 0
-0.062814 0.000000 0
-0.062805 0.000000 0
-0.061380 0.000000 0
-0.058130 0.000000 0
-0.052762 0.000000 0
-0.045096 0.000000 0
-0.035141 0.000000 0
-0.023553 0.000000 0
-0.011582 0.000000 0
-0.002107 0.000000 0
0.000000 0.000000 0
0.000000 0.003512 0
-0.011526 0.007144 0
-0.023415 0.007445 0
-0.034279 0.007769 0
-0.044354 0.007778 0
-0.053510 0.007310 0
-0.061647 0.006555 0
-0.068765 0.005679 0
-0.074956 0.005041 0
-0.080456 0.004632 0
-0.085353 0.004194 0
-0.089720 0.003759 0
-0.093608 0.003304 0
-0.097062 0.002846 0
-0.100137 0.002411 0
-0.102927 0.002217 0
-0.105615 0.002228 0
-0.108263 0.002242 0
-0.110918 0.002274 0
-0.113597 0.002296 0
-0.116315 0.002332 0
-0.119104 0.002425 0
-0.122031 0.002770 0
-0.125224 0.003314 0
-0.128667 0.003837 0
-0.132264 0.004265 0
-0.135807 0.004458 0
-0.138983 0.004297 0
-0.141388 0.003672 0
-0.142552 0.002618 0
-0.141989 0.000994 0
-0.139135 -0.001434 0
-0.133464 -0.004675 0
-0.124459 -0.008618 0
-0.111667 -0.013034 0
-0.094807 -0.017621 0
-0.073972 -0.021542 0
-0.050105 -0.023559 0
-0.025564 -0.021446 0
-0.005632 -0.011582 0
0.000000 -0.002107 0
0.000000 0.011526 0
-0.016995 0.023415 0
-0.034626 0.022753 0
-0.049498 0.020939 0
-0.062073 0.019231 0
-0.072793 0.017293 0
-0.081995 0.015254 0
-0.089950 0.013308 0
-0.096913 0.011692 0
-0.102877 0.010397 0
-0.108076 0.009263 0
-0.112658 0.008255 0
-0.116766 0.007342 0
-0.120518 0.006529 0
-0.124020 0.005866 0
-0.127385 0.005478 0
-0.130542 0.005335 0
-0.133613 0.005303 0
-0.136643 0.005334 0
-0.139675 0.005397 0
-0.142735 0.005507 0
-0.145829 0.005716 0
-0.148950 0.006120 0
-0.151907 0.006636 0
-0.154635 0.007041 0
-0.156952 0.007141 0
-0.158628 0.006719 0
-0.159385 0.005580 0
-0.158905 0.003570 0
-0.156859 0.000602 0
-0.152851 -0.003418 0
-0.146690 -0.008525 0
-0.138123 -0.014675 0
-0.126909 -0.021797 0
-0.112751 -0.029652 0
-0.095428 -0.037695 0
-0.074999 -0.044702 0
-0.051904 -0.048408 0
-0.028020 -0.044473 0
-0.007662 -0.025564 0
0.000000 -0.005632 0
0.000000 0.020506 0
-0.017466 0.041770 0
-0.035952 0.039948 0
-0.051391 0.035215 0
-0.064070 0.031074 0
-0.074569 0.027232 0
-0.083387 0.023712 0
-0.090902 0.020597 0
-0.097377 0.017968 0
-0.102912 0.015794 0
-0.107705 0.013975 0
-0.111925 0.012449 0
-0.115728 0.011164 0
-0.119242 0.010101 0
-0.122566 0.009278 0
-0.125760 0.008739 0
-0.128788 0.008456 0
-0.131703 0.008343 0
-0.134538 0.008336 0
-0.137323 0.008388 0
-0.140060 0.008486 0
-0.142718 0.008639 0
-0.145209 0.008848 0
-0.147345 0.009000 0
-0.148990 0.008881 0
-0.149981 0.008258 0
-0.150146 0.006891 0
-0.149309 0.004574 0
-0.147300 0.001146 0
-0.143970 -0.003436 0
-0.139219 -0.009175 0
-0.132911 -0.016162 0
-0.124822 -0.024455 0
-0.114706 -0.033990 0
-0.102290 -0.044516 0
-0.087325 -0.055373 0
-0.069695 -0.065066 0
-0.049600 -0.070538 0
-0.028282 -0.065688 0
-0.009101 -0.039602 0
0.000000 -0.009769 0
0.000000 0.028992 0
-0.015998 0.059367 0
-0.033499 0.056678 0
-0.048229 0.049057 0
-0.060286 0.042409 0
-0.070204 0.036610 0
-0.078467 0.031587 0
-0.085446 0.027299 0
-0.091400 0.023702 0
-0.096490 0.020725 0
-0.100891 0.018277 0
-0.104757 0.016279 0
-0.108226 0.014659 0
-0.111415 0.013367 0
-0.114409 0.012383 0
-0.117249 0.011700 0
-0.119933 0.011278 0
-0.122480 0.011053 0
-0.124906 0.010954 0
-0.127221 0.010919 0
-0.129411 0.010902 0
-0.131427 0.010864 0
-0.133170 0.010747 0
-0.134497 0.010418 0
-0.135280 0.009677 0
-0.135403 0.008296 0
-0.134764 0.006046 0
-0.133276 0.002735 0
-0.130865 -0.001770 0
-0.127514 -0.007479 0
-0.123122 -0.014476 0
-0.117518 -0.022922 0
-0.110538 -0.032881 0
-0.101974 -0.044329 0
-0.091585 -0.057033 0
-0.079105 -0.070290 0
-0.064310 -0.082428 0
-0.047183 -0.089822 0
-0.028423 -0.084972 0
-0.010479 -0.053846 0
0.000000 -0.014733 0
0.000000 0.036504 0
-0.013983 0.075270 0
-0.029954 0.072179 0
-0.043601 0.062002 0
-0.054866 0.053049 0
-0.064182 0.045413 0
-0.071950 0.038954 0
-0.078488 0.033530 0
-0.084036 0.029013 0
-0.088768 0.025285 0
-0.092842 0.022242 0
-0.096394 0.019784 0
-0.099543 0.017823 0
-0.102391 0.016283 0
-0.105013 0.015111 0
-0.107452 0.014263 0
-0.109718 0.013687 0
-0.111824 0.013316 0
-0.113773 0.013077 0
-0.115563 0.012893 0
-0.117175 0.012692 0
-0.118562 0.012399 0
-0.119643 0.011918 0
-0.120314 0.011110 0
-0.120482 0.009788 0
-0.120069 0.007742 0
-0.119019 0.004765 0
-0.117291 0.000675 0
-0.114856 -0.004616 0
-0.111725 -0.011179 0
-0.107763 -0.019172 0
-0.102867 -0.028747 0
-0.096917 -0.039999 0
-0.089753 -0.052943 0
-0.081173 -0.067385 0
-0.070919 -0.082648 0
-0.058697 -0.096988 0
-0.044286 -0.106425 0
-0.027920 -0.102392 0
-0.011254 -0.068025 0
0.000000 -0.020248 0
0.000000 0.042975 0
-0.011992 0.089320 0
-0.026376 0.086296 0
-0.038902 0.073970 0
-0.049373 0.062990 0
-0.058116 0.053693 0
-0.065439 0.045893 0
-0.071599 0.039385 0
-0.076804 0.033982 0
-0.081222 0.029531 0
-0.084995 0.025903 0
-0.088246 0.022980 0
-0.091078 0.020656 0
-0.093583 0.018837 0
-0.095828 0.017444 0
-0.097858 0.016405 0
-0.099695 0.015651 0
-0.101348 0.015107 0
-0.102820 0.014693 0
-0.104104 0.014322 0
-0.105180 0.013901 0
-0.106011 0.013332 0
-0.106539 0.012499 0
-0.106693 0.011257 0
-0.106411 0.009432 0
-0.105640 0.006833 0
-0.104347 0.003268 0
-0.102513 -0.001428 0
-0.100146 -0.007335 0
-0.097213 -0.014573 0
-0.093636 -0.023335 0
-0.089352 -0.033768 0
-0.084278 -0.045995 0
-0.078299 -0.060073 0
-0.071252 -0.075867 0
-0.062899 -0.092766 0
-0.052905 -0.109061 0
-0.040891 -0.120599 0
-0.026723 -0.118003 0
-0.011431 -0.081765 0
0.000000 -0.025987 0
0.000000 0.048496 0
-0.010212 0.101646 0
-0.023125 0.099089 0
-0.034598 0.084999 0
-0.044315 0.072263 0
-0.052506 0.061478 0
-0.059401 0.052437 0
-0.065201 0.044896 0
-0.070083 0.038636 0
-0.074197 0.033477 0
-0.077674 0.029265 0
-0.080623 0.025867 0
-0.083140 0.023160 0
-0.085306 0.021033 0
-0.087184 0.019387 0
-0.088820 0.018130 0
-0.090241 0.017177 0
-0.091461 0.016441 0
-0.092484 0.015832 0
-0.093304 0.015253 0
-0.093905 0.014599 0
-0.094261 0.013758 0
-0.094333 0.012601 0
-0.094076 0.010982 0
-0.093450 0.008734 0
-0.092422 0.005679 0
-0.090973 0.001638 0
-0.089089 -0.003526 0
-0.086803 -0.009915 0
-0.084062 -0.017689 0
-0.080831 -0.027033 0
-0.077074 -0.038106 0
-0.072737 -0.051052 0
-0.067743 -0.065968 0
-0.061965 -0.082785 0
-0.055192 -0.100995 0
-0.047078 -0.118995 0
-0.037143 -0.132607 0
-0.024979 -0.131852 0
-0.011138 -0.094747 0
0.000000 -0.031679 0
0.000000 0.053187 0
-0.008657 0.112445 0
-0.020260 0.110682 0
-0.030781 0.095161 0
-0.039792 0.080898 0
-0.047446 0.068779 0
-0.053914 0.058588 0
-0.059352 0.050066 0
-0.063910 0.042978 0
-0.067720 0.037122 0
-0.070899 0.032329 0
-0.073548 0.028447 0
-0.075755 0.025339 0
-0.077593 0.022881 0
-0.079122 0.020958 0
-0.080387 0.019462 0
-0.081420 0.018292 0
-0.082240 0.017351 0
-0.082853 0.016536 0
-0.083259 0.015743 0
-0.083448 0.014858 0
-0.083402 0.013759 0
-0.083099 0.012314 0
-0.082512 0.010373 0
-0.081619 0.007777 0
-0.080400 0.004356 0
-0.078847 -0.000065 0
-0.076960 -0.005598 0
-0.074759 -0.012362 0
-0.072209 -0.020544 0
-0.069296 -0.030322 0
-0.065999 -0.041861 0
-0.062289 -0.055326 0
-0.058114 -0.070845 0
-0.053380 -0.088418 0
-0.047908 -0.107653 0
-0.041369 -0.127110 0
-0.033230 -0.142698 0
-0.022894 -0.144009 0
-0.010538 -0.106744 0
0.000000 -0.037125 0
0.000000 0.057153 0
-0.007305 0.121906 0
-0.017751 0.121213 0
-0.027414 0.104531 0
-0.035764 0.088928 0
-0.042894 0.075600 0
-0.048932 0.064343 0
-0.054004 0.054892 0
-0.058233 0.047003 0
-0.061737 0.040466 0
-0.064620 0.035094 0
-0.066974 0.030723 0
-0.068880 0.027205 0
-0.070405 0.024399 0
-0.071607 0.022181 0
-0.072531 0.020429 0
-0.073210 0.019030 0
-0.073667 0.017875 0
-0.073914 0.016851 0
-0.073956 0.015847 0
-0.073789 0.014742 0
-0.073406 0.013409 0
-0.072796 0.011711 0
-0.071945 0.009501 0
-0.070843 0.006622 0
-0.069483 0.002908 0
-0.067860 -0.001803 0
-0.066000 -0.007615 0
-0.063896 -0.014667 0
-0.061536 -0.023152 0
-0.058917 -0.033242 0
-0.056030 -0.045112 0
-0.052859 -0.058938 0
-0.049373 -0.074878 0
-0.045506 -0.092990 0
-0.041114 -0.113005 0
-0.035898 -0.133674 0
-0.029318 -0.151083 0
-0.020657 -0.154544 0
-0.009788 -0.117641 0
0.000000 -0.042217 0
0.000000 0.060492 0
-0.006133 0.130196 0
-0.015545 0.130792 0
-0.024426 0.113173 0
-0.032153 0.096378 0
-0.038772 0.081948 0
-0.044381 0.069698 0
-0.049083 0.059368 0
-0.052983 0.050711 0
-0.056181 0.043509 0
-0.058772 0.037566 0
-0.060840 0.032707 0
-0.062458 0.028770 0
-0.063689 0.025609 0
-0.064589 0.023083 0
-0.065202 0.021064 0
-0.065562 0.019428 0
-0.065695 0.018055 0
-0.065619 0.016825 0
-0.065344 0.015617 0
-0.064874 0.014308 0
-0.064209 0.012766 0
-0.063348 0.010853 0
-0.062287 0.008421 0
-0.061025 0.005316 0
-0.059565 0.001373 0
-0.057904 -0.003548 0
-0.056082 -0.009562 0
-0.054085 -0.016825 0
-0.051912 -0.025523 0
-0.049566 -0.035828 0
-0.047047 -0.047919 0
-0.044347 -0.061983 0
-0.041451 -0.078199 0
-0.038314 -0.096677 0
-0.034828 -0.117260 0
-0.030736 -0.138905 0
-0.025518 -0.157939 0
-0.018391 -0.163538 0
-0.008970 -0.127402 0
0.000000 -0.046913 0
0.000000 0.063286 0
-0.005111 0.137452 0
-0.013587 0.139506 0
-0.021743 0.121138 0
-0.028880 0.103274 0
-0.035002 0.087829 0
-0.040186 0.074654 0
-0.044518 0.063493 0
-0.048088 0.054101 0
-0.050985 0.046255 0
-0.053292 0.039753 0
-0.055084 0.034409 0
-0.056429 0.030054 0
-0.057387 0.026531 0
-0.058010 0.023693 0
-0.058341 0.021401 0
-0.058417 0.019524 0
-0.058265 0.017932 0
-0.057908 0.016500 0
-0.057361 0.015102 0
-0.056634 0.013607 0
-0.055735 0.011882 0
-0.054669 0.009788 0
-0.053441 0.007179 0
-0.052058 0.003901 0
-0.050527 -0.000214 0
-0.048858 -0.005286 0
-0.047083 -0.011434 0
-0.045196 -0.018837 0
-0.043204 -0.027671 0
-0.041112 -0.038108 0
-0.038926 -0.050331 0
-0.036646 -0.064534 0
-0.034264 -0.080911 0
-0.031755 -0.099613 0
-0.029041 -0.120584 0
-0.025912 -0.142984 0
-0.021890 -0.163428 0
-0.016159 -0.171092 0
-0.008120 -0.136031 0
0.000000 -0.051187 0
0.000000 0.065602 0
-0.004206 0.143783 0
-0.011822 0.147425 0
-0.019301 0.128467 0
-0.025874 0.109636 0
-0.031511 0.093253 0
-0.036276 0.079214 0
-0.040242 0.067270 0
-0.043487 0.057178 0
-0.046088 0.048712 0
-0.048118 0.041664 0
-0.049647 0.035844 0
-0.050735 0.031074 0
-0.051440 0.027189 0
-0.051811 0.024037 0
-0.051890 0.021471 0
-0.051715 0.019353 0
-0.051315 0.017546 0
-0.050715 0.015920 0
-0.049936 0.014343 0
-0.048994 0.012682 0
-0.047901 0.010800 0
-0.046670 0.008559 0
-0.045312 0.005811 0
-0.043838 0.002402 0
-0.042255 -0.001828 0
-0.040600 -0.006992 0
-0.038883 -0.013224 0
-0.037110 -0.020705 0
-0.035291 -0.029607 0
-0.033437 -0.040106 0
-0.031555 -0.052386 0
-0.029651 -0.066646 0
-0.027725 -0.083090 0
-0.025766 -0.101901 0
-0.023721 -0.123104 0
-0.021429 -0.146056 0
-0.018463 -0.167692 0
-0.014001 -0.177309 0
-0.007267 -0.143560 0
0.000000 -0.055033 0
0.000000 0.067492 0
-0.003390 0.149273 0
-0.010204 0.154601 0
-0.017041 0.135191 0
-0.023072 0.115484 0
-0.028239 0.098231 0
-0.032593 0.083385 0
-0.036198 0.070704 0
-0.039122 0.059947 0
-0.041433 0.050886 0
-0.043197 0.043311 0
-0.044474 0.037026 0
-0.045322 0.031848 0
-0.045794 0.027607 0
-0.045936 0.024143 0
-0.045791 0.021305 0
-0.045394 0.018948 0
-0.044779 0.016933 0
-0.043972 0.015122 0
-0.042998 0.013380 0
-0.041877 0.011572 0
-0.040626 0.009558 0
-0.039264 0.007199 0
-0.037806 0.004347 0
-0.036268 0.000844 0
-0.034657 -0.003452 0
-0.033025 -0.008657 0
-0.031374 -0.014924 0
-0.029715 -0.022430 0
-0.028063 -0.031344 0
-0.026430 -0.041844 0
-0.024829 -0.054117 0
-0.023267 -0.068364 0
-0.021752 -0.084796 0
-0.020282 -0.103617 0
-0.018831 -0.124921 0
-0.017274 -0.148242 0
-0.015246 -0.170855 0
-0.011940 -0.182288 0
-0.006430 -0.150033 0
0.000000 -0.058454 0
0.000000 0.068993 0
-0.002639 0.153986 0
-0.008691 0.161075 0
-0.014914 0.141335 0
-0.020422 0.120834 0
-0.025131 0.102774 0
-0.029082 0.087174 0
-0.032333 0.073800 0
-0.034942 0.062413 0
-0.036970 0.052786 0
-0.038476 0.044705 0
-0.039514 0.037969 0
-0.040137 0.032394 0
-0.040394 0.027803 0
-0.040329 0.024034 0
-0.039984 0.020929 0
-0.039395 0.018341 0
-0.038594 0.016124 0
-0.037612 0.014140 0
-0.036475 0.012248 0
-0.035207 0.010310 0
-0.033831 0.008188 0
-0.032366 0.005739 0
-0.030833 0.002815 0
-0.029247 -0.000747 0
-0.027635 -0.005070 0
-0.026036 -0.010275 0
-0.024455 -0.016534 0
-0.022911 -0.024016 0
-0.021420 -0.032892 0
-0.019997 -0.043340 0
-0.018656 -0.055549 0
-0.017409 -0.069723 0
-0.016269 -0.086074 0
-0.015244 -0.104822 0
-0.014325 -0.126112 0
-0.013424 -0.149641 0
-0.012236 -0.173026 0
-0.009984 -0.186124 0
-0.005620 -0.155500 0
0.000000 -0.061463 0
0.000000 0.070130 0
-0.001925 0.157965 0
-0.007247 0.166876 0
-0.012876 0.146921 0
-0.017877 0.125701 0
-0.022140 0.106891 0
-0.025697 0.090587 0
-0.028599 0.076564 0
-0.030900 0.064584 0
-0.032652 0.054420 0
-0.033908 0.045855 0
-0.034717 0.038687 0
-0.035129 0.032728 0
-0.035188 0.027799 0
-0.034937 0.023733 0
-0.034414 0.020370 0
-0.033657 0.017558 0
-0.032699 0.015151 0
-0.031570 0.013003 0
-0.030300 0.010976 0
-0.028914 0.008927 0
-0.027439 0.006717 0
-0.025898 0.004202 0
-0.024313 0.001228 0
-0.022693 -0.002354 0
-0.021098 -0.006663 0
-0.019541 -0.011837 0
-0.018038 -0.018049 0
-0.016610 -0.025465 0
-0.015275 -0.034258 0
-0.014050 -0.044609 0
-0.012953 -0.056705 0
-0.012000 -0.070750 0
-0.011208 -0.086961 0
-0.010594 -0.105561 0
-0.010162 -0.126740 0
-0.009855 -0.150331 0
-0.009424 -0.174296 0
-0.008140 -0.188904 0
-0.004848 -0.160017 0
0.000000 -0.064074 0
0.000000 0.070917 0
-0.001233 0.161234 0
-0.005843 0.172027 0
-0.010892 0.151965 0
-0.015398 0.130098 0
-0.019223 0.110593 0
-0.022393 0.093633 0
-0.024953 0.079003 0
-0.026951 0.066466 0
-0.028433 0.055794 0
-0.029448 0.046770 0
-0.030039 0.039191 0
-0.030252 0.032865 0
-0.030128 0.027611 0
-0.029708 0.023260 0
-0.029028 0.019650 0
-0.028126 0.016625 0
-0.027034 0.014037 0
-0.025784 0.011740 0
-0.024406 0.009591 0
-0.022928 0.007449 0
-0.021378 0.005171 0
-0.019782 0.002613 0
-0.018158 -0.000389 0
-0.016536 -0.003962 0
-0.014966 -0.008223 0
-0.013461 -0.013335 0
-0.012041 -0.019465 0
-0.010730 -0.026779 0
-0.009548 -0.035451 0
-0.008513 -0.045662 0
-0.007648 -0.057600 0
-0.006975 -0.071467 0
-0.006513 -0.087481 0
-0.006283 -0.105869 0
-0.006300 -0.126851 0
-0.006536 -0.150378 0
-0.006796 -0.174741 0
-0.006407 -0.190701 0
-0.004122 -0.163640 0
0.000000 -0.066311 0
0.000000 0.071363 0
-0.000557 0.163808 0
-0.004458 0.176535 0
-0.008931 0.156477 0
-0.012950 0.134033 0
-0.016345 0.113886 0
-0.019133 0.096317 0
-0.021355 0.081122 0
-0.023054 0.068065 0
-0.024272 0.056916 0
-0.025052 0.047460 0
-0.025434 0.039491 0
-0.025458 0.032817 0
-0.025165 0.027255 0
-0.024591 0.022633 0
-0.023773 0.018789 0
-0.022746 0.015564 0
-0.021542 0.012809 0
-0.020193 0.010375 0
-0.018731 0.008120 0
-0.017184 0.005899 0
-0.015582 0.003571 0
-0.013949 0.000982 0
-0.012299 -0.002018 0
-0.010698 -0.005546 0
-0.009164 -0.009739 0
-0.007718 -0.014762 0
-0.006387 -0.020779 0
-0.005196 -0.027958 0
-0.004163 -0.036476 0
-0.003314 -0.046508 0
-0.002678 -0.058243 0
-0.002276 -0.071886 0
-0.002132 -0.087653 0
-0.002268 -0.105773 0
-0.002704 -0.126487 0
-0.003437 -0.149835 0
-0.004331 -0.174425 0
-0.004773 -0.191578 0
-0.003441 -0.166424 0
0.000000 -0.068196 0
0.000000 0.071475 0
0.000090 0.165692 0
-0.003069 0.180401 0
-0.006968 0.160458 0
-0.010501 0.137511 0
-0.013469 0.116776 0
-0.015878 0.098643 0
-0.017766 0.082924 0
-0.019169 0.069383 0
-0.020127 0.057792 0
-0.020677 0.047932 0
-0.020857 0.039598 0
-0.020703 0.032596 0
-0.020252 0.026744 0
-0.019538 0.021868 0
-0.018597 0.017804 0
-0.017463 0.014394 0
-0.016166 0.011485 0
-0.014740 0.008929 0
-0.013215 0.006582 0
-0.011620 0.004300 0
-0.009983 0.001936 0
-0.008318 -0.000670 0
-0.006678 -0.003640 0
-0.005108 -0.007097 0
-0.003619 -0.011203 0
-0.002239 -0.016113 0
-0.000998 -0.021988 0
0.000075 -0.029003 0
0.000954 -0.037333 0
0.001608 -0.047147 0
0.002013 -0.058638 0
0.002143 -0.072013 0
0.001975 -0.087489 0
0.001488 -0.105297 0
0.000663 -0.125683 0
-0.000522 -0.148751 0
-0.002000 -0.173404 0
-0.003220 -0.191591 0
-0.002795 -0.168414 0
0.000000 -0.069751 0
0.000000 0.071274 0
0.000714 0.166877 0
-0.001659 0.183592 0
-0.004973 0.163909 0
-0.008021 0.140534 0
-0.010562 0.119263 0
-0.012594 0.100614 0
-0.014147 0.084413 0
-0.015256 0.070426 0
-0.015956 0.058425 0
-0.016281 0.048190 0
-0.016265 0.039517 0
-0.015940 0.032212 0
-0.015340 0.026090 0
-0.014499 0.020979 0
-0.013450 0.016713 0
-0.012224 0.013133 0
-0.010853 0.010086 0
-0.009365 0.007424 0
-0.007796 0.005000 0
-0.006171 0.002668 0
-0.004503 0.000269 0
-0.002827 -0.002324 0
-0.001212 -0.005228 0
0.000323 -0.008605 0
0.001753 -0.012608 0
0.003052 -0.017383 0
0.004188 -0.023093 0
0.005133 -0.029910 0
0.005849 -0.038009 0
0.006308 -0.047567 0
0.006483 -0.058779 0
0.006347 -0.071848 0
0.005874 -0.086997 0
0.005041 -0.104461 0
0.003829 -0.124476 0
0.002211 -0.147172 0
0.000228 -0.171727 0
-0.001723 -0.190783 0
-0.002174 -0.169644 0
0.000000 -0.070991 0
0.000000 0.070761 0
0.001341 0.167351 0
-0.000205 0.186088 0
-0.002930 0.166820 0
-0.005480 0.143100 0
-0.007591 0.121348 0
-0.009242 0.102228 0
-0.010459 0.085587 0
-0.011274 0.071193 0
-0.011717 0.058817 0
-0.011819 0.048240 0
-0.011611 0.039256 0
-0.011122 0.031672 0
-0.010383 0.025303 0
-0.009424 0.019978 0
-0.008278 0.015529 0
-0.006976 0.011797 0
-0.005544 0.008626 0
-0.004007 0.005873 0
-0.002400 0.003388 0
-0.000742 0.001007 0
0.000939 -0.001408 0
0.002579 -0.003961 0
0.004154 -0.006790 0
0.005639 -0.010063 0
0.006997 -0.013932 0
0.008202 -0.018548 0
0.009223 -0.024069 0
0.010027 -0.030664 0
0.010579 -0.038507 0
0.010846 -0.047780 0
0.010796 -0.058677 0
0.010401 -0.071404 0
0.009630 -0.086184 0
0.008457 -0.103252 0
0.006854 -0.122853 0
0.004802 -0.145150 0
0.002336 -0.169469 0
-0.000260 -0.189189 0
-0.001568 -0.170137 0
0.000000 -0.071925 0
0.000000 0.069933 0
0.001978 0.167081 0
0.001305 0.187863 0
-0.000785 0.169184 0
-0.002855 0.145195 0
-0.004521 0.123025 0
-0.005784 0.103482 0
-0.006663 0.086445 0
-0.007181 0.071684 0
-0.007366 0.058970 0
-0.007246 0.048084 0
-0.006848 0.038820 0
-0.006201 0.030984 0
-0.005329 0.024392 0
-0.004258 0.018874 0
-0.003022 0.014265 0
-0.001650 0.010399 0
-0.000167 0.007117 0
0.001400 0.004279 0
0.003032 0.001734 0
0.004707 -0.000671 0
0.006357 -0.003052 0
0.007947 -0.005539 0
0.009463 -0.008288 0
0.010878 -0.011449 0
0.012156 -0.015171 0
0.013262 -0.019608 0
0.014163 -0.024918 0
0.014824 -0.031266 0
0.015209 -0.038827 0
0.015282 -0.047785 0
0.015009 -0.058334 0
0.014355 -0.070683 0
0.013290 -0.085053 0
0.011781 -0.101684 0
0.009797 -0.120821 0
0.007314 -0.142655 0
0.004346 -0.166665 0
0.001161 -0.186880 0
-0.000969 -0.169904 0
0.000000 -0.072559 0
0.000000 0.068782 0
0.002634 0.166045 0
0.002859 0.188852 0
0.001489 0.170980 0
-0.000076 0.146836 0
-0.001308 0.124277 0
-0.002183 0.104369 0
-0.002716 0.086983 0
-0.002931 0.071896 0
-0.002853 0.058882 0
-0.002507 0.047723 0
-0.001918 0.038212 0
-0.001112 0.030153 0
-0.000112 0.023360 0
0.001056 0.017671 0
0.002367 0.012921 0
0.003796 0.008942 0
0.005315 0.005577 0
0.006899 0.002674 0
0.008540 0.000081 0
0.010182 -0.002318 0
0.011782 -0.004647 0
0.013323 -0.007067 0
0.014778 -0.009722 0
0.016114 -0.012755 0
0.017298 -0.016315 0
0.018294 -0.020555 0
0.019066 -0.025631 0
0.019577 -0.031710 0
0.019790 -0.038965 0
0.019666 -0.047580 0
0.019167 -0.057750 0
0.018256 -0.069686 0
0.016897 -0.083609 0
0.015053 -0.099759 0
0.012691 -0.118385 0
0.009779 -0.139699 0
0.006322 -0.163317 0