# vtk DataFile Version 2.0
generated by CFD-lab course output (written by Tobias Neckel) 
ASCII

DATASET STRUCTURED_GRID
DIMENSIONS  41 41 1 
POINTS 1681 float

0.150000 0.150000 0
0.167857 0.150000 0
0.185714 0.150000 0
0.203571 0.150000 0
0.221429 0.150000 0
0.239286 0.150000 0
0.257143 0.150000 0
0.275000 0.150000 0
0.292857 0.150000 0
0.310714 0.150000 0
0.328571 0.150000 0
0.346429 0.150000 0
0.364286 0.150000 0
0.382143 0.150000 0
0.400000 0.150000 0
0.417857 0.150000 0
0.435714 0.150000 0
0.453571 0.150000 0
0.471429 0.150000 0
0.489286 0.150000 0
0.507143 0.150000 0
0.525000 0.150000 0
0.542857 0.150000 0
0.560714 0.150000 0
0.578571 0.150000 0
0.596429 0.150000 0
0.614286 0.150000 0
0.632143 0.150000 0
0.650000 0.150000 0
0.667857 0.150000 0
0.685714 0.150000 0
0.703571 0.150000 0
0.721429 0.150000 0
0.739286 0.150000 0
0.757143 0.150000 0
0.775000 0.150000 0
0.792857 0.150000 0
0.810714 0.150000 0
0.828571 0.150000 0
0.846429 0.150000 0
0.864286 0.150000 0
0.150000 0.167857 0
0.167857 0.167857 0
0.185714 0.167857 0
0.203571 0.167857 0
0.221429 0.167857 0
0.239286 0.167857 0
0.257143 0.167857 0
0.275000 0.167857 0
0.292857 0.167857 0
0.310714 0.167857 0
0.328571 0.167857 0
0.346429 0.167857 0
0.364286 0.167857 0
0.382143 0.167857 0
0.400000 0.167857 0
0.417857 0.167857 0
0.435714 0.167857 0
0.453571 0.167857 0
0.471429 0.167857 0
0.489286 0.167857 0
0.507143 0.167857 0
0.525000 0.167857 0
0.542857 0.167857 0
0.560714 0.167857 0
0.578571 0.167857 0
0.596429 0.167857 0
0.614286 0.167857 0
0.632143 0.167857 0
0.650000 0.167857 0
0.667857 0.167857 0
0.685714 0.167857 0
0.703571 0.167857 0
0.721429 0.167857 0
0.739286 0.167857 0
0.757143 0.167857 0
0.775000 0.167857 0
0.792857 0.167857 0
0.810714 0.167857 0
0.828571 0.167857 0
0.846429 0.167857 0
0.864286 0.167857 0
0.150000 0.185714 0
0.167857 0.185714 0
0.185714 0.185714 0
0.203571 0.185714 0
0.221429 0.185714 0
0.239286 0.185714 0
0.257143 0.185714 0
0.275000 0.185714 0
0.292857 0.185714 0
0.310714 0.185714 0
0.328571 0.185714 0
0.346429 0.185714 0
0.364286 0.185714 0
0.382143 0.185714 0
0.400000 0.185714 0
0.417857 0.185714 0
0.435714 0.185714 0
0.453571 0.185714 0
0.471429 0.185714 0
0.489286 0.185714 0
0.507143 0.185714 0
0.525000 0.185714 0
0.542857 0.185714 0
0.560714 0.185714 0
0.578571 0.185714 0
0.596429 0.185714 0
0.614286 0.185714 0
0.632143 0.185714 0
0.650000 0.185714 0
0.667857 0.185714 0
0.685714 0.185714 0
0.703571 0.185714 0
0.721429 0.185714 0
0.739286 0.185714 0
0.757143 0.185714 0
0.775000 0.185714 0
0.792857 0.185714 0
0.810714 0.185714 0
0.828571 0.185714 0
0.846429 0.185714 0
0.864286 0.185714 0
0.150000 0.203571 0
0.167857 0.203571 0
0.185714 0.203571 0
0.203571 0.203571 0
0.221429 0.203571 0
0.239286 0.203571 0
0.257143 0.203571 0
0.275000 0.203571 0
0.292857 0.203571 0
0.310714 0.203571 0
0.328571 0.203571 0
0.346429 0.203571 0
0.364286 0.203571 0
0.382143 0.203571 0
0.400000 0.203571 0
0.417857 0.203571 0
0.435714 0.203571 0
0.453571 0.203571 0
0.471429 0.203571 0
0.489286 0.203571 0
0.507143 0.203571 0
0.525000 0.203571 0
0.542857 0.203571 0
0.560714 0.203571 0
0.578571 0.203571 0
0.596429 0.203571 0
0.614286 0.203571 0
0.632143 0.203571 0
0.650000 0.203571 0
0.667857 0.203571 0
0.685714 0.203571 0
0.703571 0.203571 0
0.721429 0.203571 0
0.739286 0.203571 0
0.757143 0.203571 0
0.775000 0.203571 0
0.792857 0.203571 0
0.810714 0.203571 0
0.828571 0.203571 0
0.846429 0.203571 0
0.864286 0.203571 0
0.150000 0.221429 0
0.167857 0.221429 0
0.185714 0.221429 0
0.203571 0.221429 0
0.221429 0.221429 0
0.239286 0.221429 0
0.257143 0.221429 0
0.275000 0.221429 0
0.292857 0.221429 0
0.310714 0.221429 0
0.328571 0.221429 0
0.346429 0.221429 0
0.364286 0.221429 0
0.382143 0.221429 0
0.400000 0.221429 0
0.417857 0.221429 0
0.435714 0.221429 0
0.453571 0.221429 0
0.471429 0.221429 0
0.489286 0.221429 0
0.507143 0.221429 0
0.525000 0.221429 0
0.542857 0.221429 0
0.560714 0.221429 0
0.578571 0.221429 0
0.596429 0.221429 0
0.614286 0.221429 0
0.632143 0.221429 0
0.650000 0.221429 0
0.667857 0.221429 0
0.685714 0.221429 0
0.703571 0.221429 0
0.721429 0.221429 0
0.739286 0.221429 0
0.757143 0.221429 0
0.775000 0.221429 0
0.792857 0.221429 0
0.810714 0.221429 0
0.828571 0.221429 0
0.846429 0.221429 0
0.864286 0.221429 0
0.150000 0.239286 0
0.167857 0.239286 0
0.185714 0.239286 0
0.203571 0.239286 0
0.221429 0.239286 0
0.239286 0.239286 0
0.257143 0.239286 0
0.275000 0.239286 0
0.292857 0.239286 0
0.310714 0.239286 0
0.328571 0.239286 0
0.346429 0.239286 0
0.364286 0.239286 0
0.382143 0.239286 0
0.400000 0.239286 0
0.417857 0.239286 0
0.435714 0.239286 0
0.453571 0.239286 0
0.471429 0.239286 0
0.489286 0.239286 0
0.507143 0.239286 0
0.525000 0.239286 0
0.542857 0.239286 0
0.560714 0.239286 0
0.578571 0.239286 0
0.596429 0.239286 0
0.614286 0.239286 0
0.632143 0.239286 0
0.650000 0.239286 0
0.667857 0.239286 0
0.685714 0.239286 0
0.703571 0.239286 0
0.721429 0.239286 0
0.739286 0.239286 0
0.757143 0.239286 0
0.775000 0.239286 0
0.792857 0.239286 0
0.810714 0.239286 0
0.828571 0.239286 0
0.846429 0.239286 0
0.864286 0.239286 0
0.150000 0.257143 0
0.167857 0.257143 0
0.185714 0.257143 0
0.203571 0.257143 0
0.221429 0.257143 0
0.239286 0.257143 0
0.257143 0.257143 0
0.275000 0.257143 0
0.292857 0.257143 0
0.310714 0.257143 0
0.328571 0.257143 0
0.346429 0.257143 0
0.364286 0.257143 0
0.382143 0.257143 0
0.400000 0.257143 0
0.417857 0.257143 0
0.435714 0.257143 0
0.453571 0.257143 0
0.471429 0.257143 0
0.489286 0.257143 0
0.507143 0.257143 0
0.525000 0.257143 0
0.542857 0.257143 0
0.560714 0.257143 0
0.578571 0.257143 0
0.596429 0.257143 0
0.614286 0.257143 0
0.632143 0.257143 0
0.650000 0.257143 0
0.667857 0.257143 0
0.685714 0.257143 0
0.703571 0.257143 0
0.721429 0.257143 0
0.739286 0.257143 0
0.757143 0.257143 0
0.775000 0.257143 0
0.792857 0.257143 0
0.810714 0.257143 0
0.828571 0.257143 0
0.846429 0.257143 0
0.864286 0.257143 0
0.150000 0.275000 0
0.167857 0.275000 0
0.185714 0.275000 0
0.203571 0.275000 0
0.221429 0.275000 0
0.239286 0.275000 0
0.257143 0.275000 0
0.275000 0.275000 0
0.292857 0.275000 0
0.310714 0.275000 0
0.328571 0.275000 0
0.346429 0.275000 0
0.364286 0.275000 0
0.382143 0.275000 0
0.400000 0.275000 0
0.417857 0.275000 0
0.435714 0.275000 0
0.453571 0.275000 0
0.471429 0.275000 0
0.489286 0.275000 0
0.507143 0.275000 0
0.525000 0.275000 0
0.542857 0.275000 0
0.560714 0.275000 0
0.578571 0.275000 0
0.596429 0.275000 0
0.614286 0.275000 0
0.632143 0.275000 0
0.650000 0.275000 0
0.667857 0.275000 0
0.685714 0.275000 0
0.703571 0.275000 0
0.721429 0.275000 0
0.739286 0.275000 0
0.757143 0.275000 0
0.775000 0.275000 0
0.792857 0.275000 0
0.810714 0.275000 0
0.828571 0.275000 0
0.846429 0.275000 0
0.864286 0.275000 0
0.150000 0.292857 0
0.167857 0.292857 0
0.185714 0.292857 0
0.203571 0.292857 0
0.221429 0.292857 0
0.239286 0.292857 0
0.257143 0.292857 0
0.275000 0.292857 0
0.292857 0.292857 0
0.310714 0.292857 0
0.328571 0.292857 0
0.346429 0.292857 0
0.364286 0.292857 0
0.382143 0.292857 0
0.400000 0.292857 0
0.417857 0.292857 0
0.435714 0.292857 0
0.453571 0.292857 0
0.471429 0.292857 0
0.489286 0.292857 0
0.507143 0.292857 0
0.525000 0.292857 0
0.542857 0.292857 0
0.560714 0.292857 0
0.578571 0.292857 0
0.596429 0.292857 0
0.614286 0.292857 0
0.632143 0.292857 0
0.650000 0.292857 0
0.667857 0.292857 0
0.685714 0.292857 0
0.703571 0.292857 0
0.721429 0.292857 0
0.739286 0.292857 0
0.757143 0.292857 0
0.775000 0.292857 0
0.792857 0.292857 0
0.810714 0.292857 0
0.828571 0.292857 0
0.846429 0.292857 0
0.864286 0.292857 0
0.150000 0.310714 0
0.167857 0.310714 0
0.185714 0.310714 0
0.203571 0.310714 0
0.221429 0.310714 0
0.239286 0.310714 0
0.257143 0.310714 0
0.275000 0.310714 0
0.292857 0.310714 0
0.310714 0.310714 0
0.328571 0.310714 0
0.346429 0.310714 0
0.364286 0.310714 0
0.382143 0.310714 0
0.400000 0.310714 0
0.417857 0.310714 0
0.435714 0.310714 0
0.453571 0.310714 0
0.471429 0.310714 0
0.489286 0.310714 0
0.507143 0.310714 0
0.525000 0.310714 0
0.542857 0.310714 0
0.560714 0.310714 0
0.578571 0.310714 0
0.596429 0.310714 0
0.614286 0.310714 0
0.632143 0.310714 0
0.650000 0.310714 0
0.667857 0.310714 0
0.685714 0.310714 0
0.703571 0.310714 0
0.721429 0.310714 0
0.739286 0.310714 0
0.757143 0.310714 0
0.775000 0.310714 0
0.792857 0.310714 0
0.810714 0.310714 0
0.828571 0.310714 0
0.846429 0.310714 0
0.864286 0.310714 0
0.150000 0.328571 0
0.167857 0.328571 0
0.185714 0.328571 0
0.203571 0.328571 0
0.221429 0.328571 0
0.239286 0.328571 0
0.257143 0.328571 0
0.275000 0.328571 0
0.292857 0.328571 0
0.310714 0.328571 0
0.328571 0.328571 0
0.346429 0.328571 0
0.364286 0.328571 0
0.382143 0.328571 0
0.400000 0.328571 0
0.417857 0.328571 0
0.435714 0.328571 0
0.453571 0.328571 0
0.471429 0.328571 0
0.489286 0.328571 0
0.507143 0.328571 0
0.525000 0.328571 0
0.542857 0.328571 0
0.560714 0.328571 0
0.578571 0.328571 0
0.596429 0.328571 0
0.614286 0.328571 0
0.632143 0.328571 0
0.650000 0.328571 0
0.667857 0.328571 0
0.685714 0.328571 0
0.703571 0.328571 0
0.721429 0.328571 0
0.739286 0.328571 0
0.757143 0.328571 0
0.775000 0.328571 0
0.792857 0.328571 0
0.810714 0.328571 0
0.828571 0.328571 0
0.846429 0.328571 0
0.864286 0.328571 0
0.150000 0.346429 0
0.167857 0.346429 0
0.185714 0.346429 0
0.203571 0.346429 0
0.221429 0.346429 0
0.239286 0.346429 0
0.257143 0.346429 0
0.275000 0.346429 0
0.292857 0.346429 0
0.310714 0.346429 0
0.328571 0.346429 0
0.346429 0.346429 0
0.364286 0.346429 0
0.382143 0.346429 0
0.400000 0.346429 0
0.417857 0.346429 0
0.435714 0.346429 0
0.453571 0.346429 0
0.471429 0.346429 0
0.489286 0.346429 0
0.507143 0.346429 0
0.525000 0.346429 0
0.542857 0.346429 0
0.560714 0.346429 0
0.578571 0.346429 0
0.596429 0.346429 0
0.614286 0.346429 0
0.632143 0.346429 0
0.650000 0.346429 0
0.667857 0.346429 0
0.685714 0.346429 0
0.703571 0.346429 0
0.721429 0.346429 0
0.739286 0.346429 0
0.757143 0.346429 0
0.775000 0.346429 0
0.792857 0.346429 0
0.810714 0.346429 0
0.828571 0.346429 0
0.846429 0.346429 0
[...]
POINT_DATA 1681 

VECTORS velocity float
0.000000 0.000000 0
0.005834 0.000000 0
0.012056 0.000000 0
0.014526 0.000000 0
0.014520 0.000000 0
0.014179 0.000000 0
0.012089 0.000000 0
0.016547 0.000000 0
0.021658 0.000000 0
0.011904 0.000000 0
-0.005693 0.000000 0
-0.025537 0.000000 0
-0.045858 0.000000 0
-0.065586 0.000000 0
-0.083992 0.000000 0
-0.100646 0.000000 0
-0.115389 0.000000 0
-0.128081 0.000000 0
-0.138685 0.000000 0
-0.147194 0.000000 0
-0.153625 0.000000 0
-0.157994 0.000000 0
-0.160303 0.000000 0
-0.160570 0.000000 0
-0.158671 0.000000 0
-0.154483 0.000000 0
-0.147938 0.000000 0
-0.138955 0.000000 0
-0.127465 0.000000 0
-0.113419 0.000000 0
-0.096892 0.000000 0
-0.077964 0.000000 0
-0.056894 0.000000 0
-0.034166 0.000000 0
-0.010587 0.000000 0
0.012532 0.000000 0
0.027948 0.000000 0
0.030875 0.000000 0
0.023068 0.000000 0
0.010841 0.000000 0
0.000000 0.000000 0
0.000000 -0.005834 0
0.015648 -0.012056 0
0.028905 -0.008692 0
0.034379 -0.002464 0
0.034169 0.000347 0
0.034486 0.002431 0
0.026045 -0.002368 0
0.007620 -0.009569 0
-0.016398 0.004643 0
-0.047736 0.027351 0
-0.085487 0.037441 0
-0.125382 0.040166 0
-0.164845 0.040049 0
-0.202161 0.038134 0
-0.236251 0.035060 0
-0.266504 0.031397 0
-0.292652 0.027435 0
-0.314575 0.023295 0
-0.332271 0.019113 0
-0.345789 0.014940 0
-0.355199 0.010800 0
-0.360558 0.006678 0
-0.361892 0.002576 0
-0.359186 -0.001631 0
-0.352371 -0.006087 0
-0.341367 -0.010734 0
-0.326036 -0.015529 0
-0.306231 -0.020473 0
-0.281817 -0.025536 0
-0.252709 -0.030573 0
-0.218947 -0.035455 0
-0.180718 -0.039998 0
-0.138530 -0.043798 0
-0.093410 -0.046307 0
-0.047263 -0.046698 0
-0.003507 -0.038535 0
0.031788 -0.018343 0
0.048137 0.004880 0
0.037248 0.020034 0
0.017448 0.023068 0
0.000000 0.010841 0
0.000000 -0.015648 0
0.018766 -0.028905 0
0.030036 -0.018731 0
0.034135 -0.005265 0
0.023444 -0.000107 0
0.002896 0.008124 0
-0.025448 0.026865 0
-0.070178 0.042443 0
-0.122185 0.055357 0
-0.164581 0.069088 0
-0.202701 0.077646 0
-0.238935 0.079358 0
-0.272566 0.076779 0
-0.302902 0.071406 0
-0.329575 0.064343 0
-0.352425 0.056402 0
-0.371367 0.048071 0
-0.386489 0.039619 0
-0.397885 0.031214 0
-0.405665 0.022928 0
-0.409918 0.014769 0
-0.410702 0.006693 0
-0.408038 -0.001372 0
-0.401866 -0.009521 0
-0.392236 -0.017818 0
-0.379123 -0.026335 0
-0.362402 -0.035136 0
-0.341939 -0.044219 0
-0.317605 -0.053522 0
-0.289319 -0.062871 0
-0.257017 -0.071990 0
-0.220880 -0.080416 0
-0.181341 -0.087308 0
-0.139337 -0.091267 0
-0.096658 -0.089903 0
-0.056448 -0.079051 0
-0.018639 -0.051644 0
0.011035 -0.005459 0
0.016988 0.030690 0
0.007643 0.037248 0
0.000000 0.017448 0
0.000000 -0.024600 0
0.011925 -0.042092 0
0.011697 -0.024062 0
-0.004333 0.004129 0
-0.030675 0.031586 0
-0.071253 0.051322 0
-0.113944 0.070707 0
-0.155567 0.087167 0
-0.197415 0.099045 0
-0.235305 0.107867 0
-0.267750 0.111796 0
-0.296320 0.110030 0
-0.321443 0.104015 0
-0.343303 0.095142 0
-0.362041 0.084583 0
-0.377778 0.073189 0
-0.390596 0.061499 0
-0.400602 0.049814 0
-0.407877 0.038290 0
-0.412480 0.026973 0
-0.414438 0.015836 0
-0.413749 0.004798 0
-0.410386 -0.006260 0
-0.404303 -0.017434 0
-0.395449 -0.028829 0
-0.383709 -0.040568 0
-0.368973 -0.052713 0
-0.351119 -0.065270 0
-0.330031 -0.078157 0
-0.305621 -0.091161 0
-0.277837 -0.103894 0
-0.246775 -0.115675 0
-0.212713 -0.125342 0
-0.176222 -0.130989 0
-0.138272 -0.129587 0
-0.100240 -0.116554 0
-0.063506 -0.085825 0
-0.028253 -0.030747 0
0.000595 0.023425 0
-0.000754 0.040056 0
0.000000 0.018485 0
0.000000 -0.027573 0
-0.006989 -0.040602 0
-0.028300 -0.002472 0
-0.060885 0.037107 0
-0.094174 0.066812 0
-0.131847 0.091393 0
-0.170857 0.111180 0
-0.207692 0.125914 0
-0.242186 0.135095 0
-0.272793 0.139424 0
-0.298581 0.138661 0
-0.320410 0.133050 0
-0.338973 0.123761 0
-0.354789 0.112004 0
-0.368198 0.098819 0
-0.379404 0.084956 0
-0.388512 0.070895 0
-0.395579 0.056900 0
-0.400626 0.043092 0
-0.403649 0.029489 0
-0.404624 0.016038 0
-0.403511 0.002641 0
-0.400258 -0.010819 0
-0.394846 -0.024458 0
-0.387175 -0.038413 0
-0.377158 -0.052811 0
-0.364696 -0.067726 0
-0.349686 -0.083161 0
-0.332033 -0.099021 0
-0.311656 -0.115065 0
-0.288500 -0.130836 0
-0.262577 -0.145540 0
-0.233967 -0.157862 0
-0.202835 -0.165708 0
-0.169411 -0.165885 0
-0.133895 -0.153818 0
-0.096272 -0.123631 0
-0.056363 -0.069560 0
-0.014312 0.003191 0
-0.004576 0.037842 0
0.000000 0.016694 0
0.000000 -0.017610 0
-0.028720 -0.013793 0
-0.064967 0.029834 0
-0.098559 0.070004 0
-0.133941 0.102548 0
-0.169510 0.128005 0
-0.204009 0.146552 0
-0.235593 0.158497 0
-0.263805 0.164146 0
-0.288068 0.164262 0
-0.308234 0.159413 0
-0.324963 0.150423 0
-0.338922 0.138394 0
-0.350646 0.124367 0
-0.360481 0.109199 0
-0.368623 0.093503 0
-0.375164 0.077673 0
-0.380144 0.061928 0
-0.383572 0.046360 0
-0.385437 0.030972 0
-0.385716 0.015698 0
-0.384375 0.000432 0
-0.381376 -0.014925 0
-0.376687 -0.030517 0
-0.370221 -0.046517 0
-0.361898 -0.063047 0
-0.351632 -0.080185 0
-0.339337 -0.097932 0
-0.324932 -0.116187 0
-0.308344 -0.134694 0
-0.289509 -0.152973 0
-0.268367 -0.170209 0
-0.244840 -0.185083 0
-0.218780 -0.195544 0
-0.189891 -0.198528 0
-0.157634 -0.189693 0
-0.121197 -0.163357 0
-0.079799 -0.112708 0
-0.034168 -0.028363 0
0.003122 0.025744 0
0.000000 0.013909 0
0.000000 0.001147 0
-0.040910 0.024366 0
-0.081512 0.067368 0
-0.119119 0.106081 0
-0.154980 0.137763 0
-0.188478 0.161461 0
-0.219078 0.177262 0
-0.246047 0.185711 0
-0.269233 0.187570 0
-0.288625 0.183853 0
-0.304508 0.175555 0
-0.317484 0.163739 0
-0.328129 0.149444 0
-0.336898 0.133563 0
-0.344095 0.116795 0
-0.349906 0.099639 0
-0.354435 0.082416 0
-0.357743 0.065308 0
-0.359861 0.048385 0
-0.360801 0.031632 0
-0.360559 0.014976 0
-0.359115 -0.001698 0
-0.356447 -0.018507 0
-0.352489 -0.035613 0
-0.347174 -0.053202 0
-0.340424 -0.071401 0
-0.332160 -0.090287 0
-0.322302 -0.109860 0
-0.310776 -0.130014 0
-0.297514 -0.150488 0
-0.282441 -0.170812 0
-0.265460 -0.190208 0
-0.246401 -0.207449 0
-0.224941 -0.220657 0
-0.200495 -0.227031 0
-0.172114 -0.222512 0
-0.138490 -0.201467 0
-0.098290 -0.156589 0
-0.050821 -0.079730 0
0.005599 0.003674 0
0.000000 0.019816 0
0.000000 0.023300 0
-0.044658 0.067719 0
-0.087901 0.108042 0
-0.127067 0.143473 0
-0.162397 0.171907 0
-0.193764 0.192103 0
-0.221100 0.204120 0
-0.244329 0.208652 0
-0.263657 0.206724 0
-0.279418 0.199537 0
-0.292097 0.188273 0
-0.302251 0.174044 0
-0.310374 0.157808 0
-0.316853 0.140333 0
-0.321966 0.122207 0
-0.325905 0.103843 0
-0.328804 0.085510 0
-0.330757 0.067354 0
-0.331827 0.049419 0
-0.332050 0.031669 0
-0.331441 0.014012 0
-0.329991 -0.003680 0
-0.327678 -0.021552 0
-0.324433 -0.039790 0
-0.320188 -0.058581 0
-0.314863 -0.078061 0
-0.308373 -0.098307 0
-0.300636 -0.119316 0
-0.291574 -0.140976 0
-0.281114 -0.163029 0
-0.269174 -0.185026 0
-0.255642 -0.206248 0
-0.240320 -0.225602 0
-0.222837 -0.241450 0
-0.202527 -0.251355 0
-0.178289 -0.251698 0
-0.148546 -0.237181 0
-0.111515 -0.200377 0
-0.066228 -0.132252 0
-0.015243 -0.025077 0
0.000000 0.019509 0
0.000000 0.045804 0
-0.044204 0.112267 0
-0.087835 0.149777 0
-0.126593 0.180576 0
-0.160515 0.204460 0
-0.189643 0.220164 0
-0.214174 0.227827 0
-0.234397 0.228268 0
-0.250760 0.222660 0
-0.263780 0.212293 0
-0.274006 0.198388 0
-0.281960 0.182016 0
-0.288077 0.164046 0
-0.292707 0.145155 0
-0.296123 0.125847 0
-0.298535 0.106477 0
-0.300108 0.087269 0
-0.300967 0.068332 0
-0.301204 0.049678 0
-0.300878 0.031246 0
-0.300021 0.012917 0
-0.298634 -0.005461 0
-0.296693 -0.024065 0
-0.294131 -0.043103 0
-0.290872 -0.062772 0
-0.286827 -0.083216 0
-0.281899 -0.104514 0
-0.275993 -0.126659 0
-0.269018 -0.149536 0
-0.260886 -0.172888 0
-0.251504 -0.196284 0
-0.240753 -0.219063 0
-0.228443 -0.240254 0
-0.214239 -0.258450 0
-0.197542 -0.271579 0
-0.177346 -0.276493 0
-0.152139 -0.268241 0
-0.120118 -0.238907 0
-0.080299 -0.176002 0
-0.035927 -0.062554 0
0.000000 0.004573 0
0.000000 0.067504 0
-0.041888 0.155554 0
-0.083834 0.190432 0
-0.120800 0.216153 0
-0.152631 0.234957 0
-0.179396 0.245762 0
-0.201414 0.248874 0
-0.219145 0.245238 0
-0.233154 0.236106 0
-0.244023 0.222783 0
-0.252305 0.206454 0
-0.258483 0.188115 0
-0.262958 0.168555 0
-0.266066 0.148379 0
-0.268082 0.128034 0
-0.269237 0.107828 0
-0.269722 0.087942 0
-0.269690 0.068450 0
-0.269258 0.049330 0
-0.268510 0.030486 0
-0.267492 0.011768 0
-0.266213 -0.007008 0
-0.264649 -0.026055 0
-0.262732 -0.045610 0
-0.260376 -0.065886 0
-0.257476 -0.087034 0
-0.253922 -0.109141 0
-0.249599 -0.132196 0
-0.244397 -0.156082 0
-0.238207 -0.180543 0
-0.230918 -0.205160 0
-0.222401 -0.229310 0
-0.212479 -0.252116 0
-0.200875 -0.272350 0
-0.187107 -0.288248 0
-0.170352 -0.297101 0
-0.149272 -0.294409 0
-0.121981 -0.272218 0
-0.086590 -0.216443 0
-0.043213 -0.105375 0
0.000000 -0.016418 0
0.000000 0.087692 0
-0.038440 0.196101 0
-0.077502 0.228689 0
-0.111811 0.249373 0
-0.141090 0.263056 0
-0.165397 0.268948 0
-0.185079 0.267576 0
-0.200650 0.260008 0
-0.212699 0.247537 0
-0.221803 0.231444 0
-0.228486 0.212848 0
-0.233194 0.192670 0
-0.236305 0.171630 0
-0.238147 0.150279 0
-0.239001 0.129018 0
-0.239113 0.108117 0
-0.238697 0.087722 0
-0.237930 0.067868 0
-0.236955 0.048499 0
-0.235876 0.029479 0
-0.234756 0.010619 0
-0.233610 -0.008304 0
-0.232416 -0.027545 0
-0.231096 -0.047376 0
-0.229554 -0.068028 0
-0.227670 -0.089670 0
-0.225315 -0.112391 0
-0.222355 -0.136184 0
-0.218660 -0.160928 0
-0.214100 -0.186367 0
-0.208544 -0.212090 0
-0.201850 -0.237501 0
-0.193845 -0.261780 0
-0.184291 -0.283822 0
-0.172814 -0.302102 0
-0.158773 -0.314328 0
-0.141027 -0.316612 0
-0.117663 -0.301589 0
-0.086036 -0.254769 0
-0.044372 -0.149144 0
0.000000 -0.038640 0
0.000000 0.105944 0
-0.034334 0.233056 0
-0.069865 0.263803 0
-0.101033 0.279741 0
-0.127496 0.288543 0
-0.149292 0.289750 0
-0.166754 0.284128 0
-0.180379 0.272858 0
-0.190724 0.257260 0
-0.198323 0.238570 0
-0.203654 0.217844 0
-0.207127 0.195934 0
-0.209099 0.173508 0
-0.209887 0.151074 0
-0.209777 0.129001 0
-0.209025 0.107524 0
-0.207862 0.086759 0
-0.206488 0.066709 0
-0.205069 0.047277 0
-0.203731 0.028287 0
-0.202548 0.009502 0
-0.201546 -0.009348 0
-0.200695 -0.028570 0
-0.199913 -0.048472 0
-0.199089 -0.069312 0
-0.198086 -0.091274 0
-0.196757 -0.114456 0
-0.194954 -0.138851 0
-0.192526 -0.164337 0
-0.189330 -0.190659 0
-0.185217 -0.217410 0
-0.180033 -0.244009 0
-0.173604 -0.269675 0
-0.165711 -0.293380 0
-0.156055 -0.313765 0
-0.144144 -0.328889 0
-0.129070 -0.335519 0
-0.109105 -0.327208 0
-0.081384 -0.289734 0
-0.043116 -0.191412 0
0.000000 -0.060790 0
0.000000 0.122026 0
-0.029889 0.265966 0
-0.061578 0.295389 0
-0.089377 0.307004 0
-0.112906 0.311315 0
-0.132187 0.308205 0
-0.147518 0.298663 0
-0.159345 0.283978 0
-0.168164 0.265482 0
-0.174449 0.244374 0
-0.178622 0.221652 0
-0.181057 0.198115 0
-0.182085 0.174390 0
-0.182010 0.150956 0
-0.181115 0.128156 0
-0.179662 0.106202 0
-0.177894 0.085185 0
-0.176028 0.065076 0
-0.174253 0.045741 0
-0.172710 0.026958 0
-0.171491 0.008434 0
-0.170626 -0.010157 0
-0.170079 -0.029178 0
-0.169761 -0.048982 0
-0.169544 -0.069856 0
-0.169278 -0.092002 0
-0.168799 -0.115523 0
-0.167946 -0.140415 0
-0.166559 -0.166552 0
-0.164483 -0.193676 0
-0.161564 -0.221387 0
-0.157641 -0.249114 0
-0.152537 -0.276102 0
-0.146045 -0.301371 0
-0.137909 -0.323669 0
-0.127750 -0.341313 0
-0.114889 -0.351651 0
-0.097919 -0.349275 0
-0.074127 -0.320758 0
-0.040115 -0.230528 0
0.000000 -0.081757 0
0.000000 0.135833 0
-0.025313 0.294634 0
-0.053050 0.323290 0
-0.077411 0.331069 0
-0.097990 0.331354 0
-0.114796 0.324362 0
-0.128081 0.311285 0
-0.138228 0.293504 0
-0.145661 0.272363 0
-0.150786 0.249028 0
-0.153971 0.224452 0
-0.155546 0.199397 0
-0.155815 0.174461 0
-0.155063 0.150105 0
-0.153561 0.126653 0
-0.151571 0.104302 0
-0.149339 0.083125 0
-0.147098 0.063067 0
-0.145048 0.043959 0
-0.143351 0.025526 0
-0.142110 0.007418 0
-0.141360 -0.010760 0
-0.141062 -0.029434 0
-0.141115 -0.049007 0
-0.141380 -0.069795 0
-0.141692 -0.092019 0
-0.141877 -0.115787 0
-0.141765 -0.141092 0
-0.141195 -0.167800 0
-0.140011 -0.195654 0
-0.138059 -0.224252 0
-0.135181 -0.253037 0
-0.131207 -0.281271 0
-0.125941 -0.308008 0
-0.119155 -0.332060 0
-0.110551 -0.351909 0
-0.099641 -0.365350 0
-0.085383 -0.367970 0
-0.065442 -0.347538 0
-0.036126 -0.265539 0
0.000000 -0.100904 0
0.000000 0.147339 0
-0.020723 0.319016 0
-0.044518 0.347488 0
-0.065474 0.351945 0
-0.083150 0.348700 0
-0.097550 0.338295 0
-0.108879 0.322094 0
-0.117454 0.301558 0
-0.123626 0.278040 0
-0.127733 0.252684 0
-0.130088 0.226412 0
-0.130977 0.199958 0
-0.130671 0.173907 0
-0.129429 0.148702 0
-0.127507 0.124664 0
-0.125154 0.101981 0
-0.122614 0.080712 0
-0.120120 0.060784 0
-0.117884 0.041994 0
-0.116080 0.024020 0
-0.114823 0.006444 0
-0.114156 -0.011205 0
-0.114033 -0.029423 0
-0.114348 -0.048664 0
-0.114949 -0.069279 0
-0.115663 -0.091505 0
-0.116313 -0.115450 0
-0.116730 -0.141097 0
-0.116754 -0.168306 0
-0.116240 -0.196813 0
-0.115043 -0.226216 0
-0.113018 -0.255966 0
-0.110010 -0.285341 0
-0.105843 -0.313423 0
-0.100313 -0.339060 0
-0.093180 -0.360827 0
-0.084103 -0.376819 0
-0.072370 -0.383474 0
-0.056125 -0.370015 0
-0.031638 -0.295970 0
0.000000 -0.117882 0
0.000000 0.156556 0
-0.016178 0.339152 0
-0.036103 0.368040 0
-0.053738 0.369702 0
-0.068598 0.363430 0
-0.080682 0.350091 0
-0.090151 0.331189 0
-0.097259 0.308251 0
-0.102288 0.282642 0
-0.105512 0.255489 0
-0.107191 0.227695 0
-0.107566 0.199979 0
-0.106871 0.172914 0
-0.105336 0.146942 0
-0.103189 0.122377 0
-0.100660 0.099409 0
-0.097980 0.078091 0
-0.095372 0.058338 0
-0.093048 0.039918 0
-0.091189 0.022465 0
-0.089920 0.005493 0
-0.089292 -0.011550 0
-0.089260 -0.029243 0
-0.089709 -0.048091 0
-0.090483 -0.068479 0
-0.091408 -0.090654 0
-0.092313 -0.114721 0
-0.093036 -0.140651 0
-0.093435 -0.168290 0
-0.093377 -0.197365 0
-0.092738 -0.227473 0
-0.091392 -0.258069 0
-0.089208 -0.288446 0
-0.086036 -0.317705 0
-0.081704 -0.344723 0
-0.076018 -0.368119 0
-0.068742 -0.386160 0
-0.059423 -0.395948 0
-0.046691 -0.388271 0
-0.026977 -0.321664 0
0.000000 -0.132542 0
0.000000 0.163516 0
-0.011695 0.355118 0
-0.027846 0.385048 0
-0.042269 0.384440 0
-0.054415 0.375644 0
-0.064281 0.359848 0
-0.071988 0.338672 0
-0.077732 0.313695 0
-0.081731 0.286293 0
-0.084202 0.257587 0
-0.085352 0.228465 0
-0.085380 0.199639 0
-0.084480 0.171677 0
-0.082846 0.145021 0
-0.080675 0.119988 0
-0.078165 0.096771 0
-0.075523 0.075424 0
-0.072952 0.055853 0
-0.070652 0.037811 0
-0.068799 0.020891 0
-0.067527 0.004547 0
-0.066897 -0.011865 0
-0.066862 -0.029007 0
-0.067306 -0.047441 0
-0.068075 -0.067580 0
-0.069008 -0.089675 0
-0.069949 -0.113822 0
-0.070759 -0.139974 0
-0.071317 -0.167965 0
-0.071514 -0.197510 0
-0.071250 -0.228201 0
-0.070427 -0.259496 0
-0.068942 -0.290698 0
-0.066678 -0.320927 0
-0.063501 -0.349077 0
-0.059261 -0.373789 0
-0.053794 -0.393414 0
-0.046832 -0.405525 0
-0.037436 -0.402461 0
-0.022336 -0.342661 0
0.000000 -0.144859 0
0.000000 0.168251 0
-0.007270 0.366997 0
-0.019737 0.398615 0
-0.031056 0.396271 0
-0.040592 0.385442 0
-0.048335 0.367664 0
-0.054373 0.344640 0
-0.058848 0.317994 0
-0.061922 0.289113 0
-0.063759 0.259111 0
-0.064518 0.228873 0
-0.064352 0.199108 0
-0.063418 0.170381 0
-0.061868 0.143136 0
-0.059863 0.117696 0
-0.057563 0.094257 0
-0.055140 0.072878 0
-0.052765 0.053467 0
-0.050611 0.035765 0
-0.048839 0.019340 0
-0.047583 0.003592 0
-0.046914 -0.012216 0
-0.046783 -0.028834 0
-0.047078 -0.046878 0
-0.047660 -0.066777 0
-0.048394 -0.088781 0
-0.049158 -0.112970 0
-0.049845 -0.139282 0
-0.050363 -0.167535 0
-0.050632 -0.197432 0
-0.050581 -0.228561 0
-0.050144 -0.260378 0
-0.049251 -0.292195 0
-0.047824 -0.323145 0
-0.045768 -0.352140 0
-0.042976 -0.377826 0
-0.039339 -0.398589 0
-0.034711 -0.412307 0
-0.028496 -0.412767 0
-0.017814 -0.359100 0
0.000000 -0.154878 0
0.000000 0.170786 0
-0.002908 0.374855 0
-0.011729 0.408834 0
-0.020036 0.405295 0
-0.027052 0.392922 0
-0.032758 0.373629 0
-0.037209 0.349185 0
-0.040500 0.321244 0
-0.042740 0.291205 0
-0.044044 0.260182 0
-0.044526 0.229058 0
-0.044298 0.198539 0
-0.043473 0.169193 0
-0.042167 0.141466 0
-0.040494 0.115683 0
-0.038577 0.092048 0
-0.036541 0.070625 0
-0.034517 0.051324 0
-0.032639 0.033885 0
-0.031037 0.017863 0
-0.029826 0.002622 0
-0.029088 -0.012665 0
-0.028771 -0.028842 0
-0.028774 -0.046565 0
-0.028993 -0.066264 0
-0.029339 -0.088177 0
-0.029735 -0.112371 0
-0.030114 -0.138770 0
-0.030421 -0.167178 0
-0.030608 -0.197292 0
-0.030638 -0.228689 0
-0.030478 -0.260826 0
-0.030093 -0.293018 0
-0.029445 -0.324410 0
-0.028480 -0.353925 0
-0.027139 -0.380217 0
-0.025355 -0.401679 0
-0.023058 -0.416369 0
-0.019901 -0.419359 0
-0.013443 -0.371156 0
0.000000 -0.162673 0
0.000000 0.171158 0
0.001331 0.378726 0
-0.003730 0.415744 0
-0.009102 0.411594 0
-0.013683 0.398164 0
-0.017420 0.377821 0
-0.020350 0.352382 0
-0.022521 0.323525 0
-0.023997 0.292657 0
-0.024845 0.260897 0
-0.025136 0.229127 0
-0.024941 0.198055 0
-0.024335 0.168250 0
-0.023389 0.140157 0
-0.022178 0.114106 0
-0.020778 0.090303 0
-0.019267 0.068818 0
-0.017729 0.049565 0
-0.016252 0.032285 0
-0.014925 0.016527 0
-0.013801 0.001643 0
-0.012963 -0.013270 0
-0.012363 -0.029148 0
-0.011941 -0.046656 0
-0.011650 -0.066212 0
-0.011459 -0.088039 0
-0.011341 -0.112195 0
-0.011274 -0.138596 0
-0.011243 -0.167041 0
-0.011236 -0.197215 0
-0.011250 -0.228691 0
-0.011289 -0.260923 0
-0.011355 -0.293228 0
-0.011447 -0.324758 0
-0.011557 -0.354446 0
-0.011667 -0.380951 0
-0.011756 -0.402670 0
-0.011797 -0.417761 0
-0.011612 -0.422382 0
-0.009214 -0.379001 0
0.000000 -0.168321 0
0.000000 0.169455 0
0.005469 0.378585 0
0.004313 0.419266 0
0.001858 0.415249 0
-0.000333 0.401241 0
-0.002151 0.380295 0
-0.003605 0.354285 0
-0.004703 0.324892 0
-0.005459 0.293529 0
-0.005898 0.261321 0
-0.006048 0.229154 0
-0.005942 0.197738 0
-0.005613 0.167641 0
-0.005096 0.139310 0
-0.004422 0.113072 0
-0.003619 0.089136 0
-0.002721 0.067576 0
-0.001759 0.048310 0
-0.000768 0.031082 0
0.000222 0.015412 0
0.001190 0.000659 0
0.002170 -0.014102 0
0.003136 -0.029864 0
0.004072 -0.047278 0
0.004956 -0.066746 0
0.005765 -0.088487 0
0.006474 -0.112555 0
0.007060 -0.138868 0
0.007497 -0.167217 0
0.007759 -0.197284 0
0.007809 -0.228635 0
0.007609 -0.260721 0
0.007120 -0.292860 0
0.006303 -0.324208 0
0.005125 -0.353705 0
0.003559 -0.380019 0
0.001586 -0.401549 0
-0.000808 -0.416512 0
-0.003545 -0.421942 0
-0.005085 -0.382769 0
0.000000 -0.171887 0
0.000000 0.165689 0
0.009629 0.374414 0
0.012451 0.419355 0
0.012949 0.416240 0
0.013137 0.402174 0
0.013211 0.381093 0
0.013211 0.354933 0
0.013169 0.325379 0
0.013117 0.293853 0
0.013076 0.261485 0
0.013059 0.229170 0
0.013070 0.197621 0
0.013113 0.167404 0
0.013194 0.138965 0
0.013322 0.112629 0
0.013512 0.088602 0
0.013781 0.066958 0
0.014151 0.047613 0
0.014648 0.030305 0
0.015313 0.014569 0
0.016160 -0.000305 0
0.017278 -0.015217 0
0.018604 -0.031050 0
0.020044 -0.048477 0
0.021514 -0.067905 0
0.022935 -0.089557 0
0.024234 -0.113489 0
0.025341 -0.139620 0
0.026189 -0.167740 0
0.026708 -0.197526 0
0.026823 -0.228542 0
0.026460 -0.260235 0
0.025540 -0.291922 0
0.023985 -0.322763 0
0.021721 -0.351701 0
0.018677 -0.377412 0
0.014793 -0.398303 0
0.010029 -0.412631 0
0.004413 -0.418105 0
-0.000982 -0.382546 0
0.000000 -0.173406 0
0.000000 0.159826 0
0.013882 0.366134 0
0.020798 0.415946 0
0.024299 0.414562 0
0.026846 0.400979 0
0.028800 0.380222 0
0.030249 0.354328 0
0.031269 0.324986 0
0.031937 0.293622 0
0.032320 0.261379 0
0.032471 0.229160 0
0.032432 0.197684 0
0.032243 0.167517 0
0.031946 0.139100 0
0.031591 0.112754 0
0.031235 0.088677 0
0.030943 0.066937 0
0.030791 0.047443 0
0.030865 0.029920 0
0.031259 0.013900 0
0.032057 -0.001305 0
0.033282 -0.016545 0
0.034886 -0.032630 0
0.036739 -0.050188 0
0.038708 -0.069637 0
0.040663 -0.091207 0
0.042483 -0.114961 0
0.044050 -0.140823 0
0.045253 -0.168583 0
0.045978 -0.197918 0
0.046113 -0.228388 0
0.045541 -0.259438 0
0.044148 -0.290385 0
0.041813 -0.320389 0
0.038419 -0.348397 0
0.033851 -0.373090 0