# vtk DataFile Version 2.0
generated by CFD-lab course output (written by Tobias Neckel) 
ASCII

DATASET STRUCTURED_GRID
DIMENSIONS  41 41 1 
POINTS 1681 float

0.150000 0.150000 0
0.167857 0.150000 0
0.185714 0.150000 0
0.203571 0.150000 0
0.221429 0.150000 0
0.239286 0.150000 0
0.257143 0.150000 0
0.275000 0.150000 0
0.292857 0.150000 0
0.310714 0.150000 0
0.328571 0.150000 0
0.346429 0.150000 0
0.364286 0.150000 0
0.382143 0.150000 0
0.400000 0.150000 0
0.417857 0.150000 0
0.435714 0.150000 0
0.453571 0.150000 0
0.471429 0.150000 0
0.489286 0.150000 0
0.507143 0.150000 0
0.525000 0.150000 0
0.542857 0.150000 0
0.560714 0.150000 0
0.578571 0.150000 0
0.596429 0.150000 0
0.614286 0.150000 0
0.632143 0.150000 0
0.650000 0.150000 0
0.667857 0.150000 0
0.685714 0.150000 0
0.703571 0.150000 0
0.721429 0.150000 0
0.739286 0.150000 0
0.757143 0.150000 0
0.775000 0.150000 0
0.792857 0.150000 0
0.810714 0.150000 0
0.828571 0.150000 0
0.846429 0.150000 0
0.864286 0.150000 0
0.150000 0.167857 0
0.167857 0.167857 0
0.185714 0.167857 0
0.203571 0.167857 0
0.221429 0.167857 0
0.239286 0.167857 0
0.257143 0.167857 0
0.275000 0.167857 0
0.292857 0.167857 0
0.310714 0.167857 0
0.328571 0.167857 0
0.346429 0.167857 0
0.364286 0.167857 0
0.382143 0.167857 0
0.400000 0.167857 0
0.417857 0.167857 0
0.435714 0.167857 0
0.453571 0.167857 0
0.471429 0.167857 0
0.489286 0.167857 0
0.507143 0.167857 0
0.525000 0.167857 0
0.542857 0.167857 0
0.560714 0.167857 0
0.578571 0.167857 0
0.596429 0.167857 0
0.614286 0.167857 0
0.632143 0.167857 0
0.650000 0.167857 0
0.667857 0.167857 0
0.685714 0.167857 0
0.703571 0.167857 0
0.721429 0.167857 0
0.739286 0.167857 0
0.757143 0.167857 0
0.775000 0.167857 0
0.792857 0.167857 0
0.810714 0.167857 0
0.828571 0.167857 0
0.846429 0.167857 0
0.864286 0.167857 0
0.150000 0.185714 0
0.167857 0.185714 0
0.185714 0.185714 0
0.203571 0.185714 0
0.221429 0.185714 0
0.239286 0.185714 0
0.257143 0.185714 0
0.275000 0.185714 0
0.292857 0.185714 0
0.310714 0.185714 0
0.328571 0.185714 0
0.346429 0.185714 0
0.364286 0.185714 0
0.382143 0.185714 0
0.400000 0.185714 0
0.417857 0.185714 0
0.435714 0.185714 0
0.453571 0.185714 0
0.471429 0.185714 0
0.489286 0.185714 0
0.507143 0.185714 0
0.525000 0.185714 0
0.542857 0.185714 0
0.560714 0.185714 0
0.578571 0.185714 0
0.596429 0.185714 0
0.614286 0.185714 0
0.632143 0.185714 0
0.650000 0.185714 0
0.667857 0.185714 0
0.685714 0.185714 0
0.703571 0.185714 0
0.721429 0.185714 0
0.739286 0.185714 0
0.757143 0.185714 0
0.775000 0.185714 0
0.792857 0.185714 0
0.810714 0.185714 0
0.828571 0.185714 0
0.846429 0.185714 0
0.864286 0.185714 0
0.150000 0.203571 0
0.167857 0.203571 0
0.185714 0.203571 0
0.203571 0.203571 0
0.221429 0.203571 0
0.239286 0.203571 0
0.257143 0.203571 0
0.275000 0.203571 0
0.292857 0.203571 0
0.310714 0.203571 0
0.328571 0.203571 0
0.346429 0.203571 0
0.364286 0.203571 0
0.382143 0.203571 0
0.400000 0.203571 0
0.417857 0.203571 0
0.435714 0.203571 0
0.453571 0.203571 0
0.471429 0.203571 0
0.489286 0.203571 0
0.507143 0.203571 0
0.525000 0.203571 0
0.542857 0.203571 0
0.560714 0.203571 0
0.578571 0.203571 0
0.596429 0.203571 0
0.614286 0.203571 0
0.632143 0.203571 0
0.650000 0.203571 0
0.667857 0.203571 0
0.685714 0.203571 0
0.703571 0.203571 0
0.721429 0.203571 0
0.739286 0.203571 0
0.757143 0.203571 0
0.775000 0.203571 0
0.792857 0.203571 0
0.810714 0.203571 0
0.828571 0.203571 0
0.846429 0.203571 0
0.864286 0.203571 0
0.150000 0.221429 0
0.167857 0.221429 0
0.185714 0.221429 0
0.203571 0.221429 0
0.221429 0.221429 0
0.239286 0.221429 0
0.257143 0.221429 0
0.275000 0.221429 0
0.292857 0.221429 0
0.310714 0.221429 0
0.328571 0.221429 0
0.346429 0.221429 0
0.364286 0.221429 0
0.382143 0.221429 0
0.400000 0.221429 0
0.417857 0.221429 0
0.435714 0.221429 0
0.453571 0.221429 0
0.471429 0.221429 0
0.489286 0.221429 0
0.507143 0.221429 0
0.525000 0.221429 0
0.542857 0.221429 0
0.560714 0.221429 0
0.578571 0.221429 0
0.596429 0.221429 0
0.614286 0.221429 0
0.632143 0.221429 0
0.650000 0.221429 0
0.667857 0.221429 0
0.685714 0.221429 0
0.703571 0.221429 0
0.721429 0.221429 0
0.739286 0.221429 0
0.757143 0.221429 0
0.775000 0.221429 0
0.792857 0.221429 0
0.810714 0.221429 0
0.828571 0.221429 0
0.846429 0.221429 0
0.864286 0.221429 0
0.150000 0.239286 0
0.167857 0.239286 0
0.185714 0.239286 0
0.203571 0.239286 0
0.221429 0.239286 0
0.239286 0.239286 0
0.257143 0.239286 0
0.275000 0.239286 0
0.292857 0.239286 0
0.310714 0.239286 0
0.328571 0.239286 0
0.346429 0.239286 0
0.364286 0.239286 0
0.382143 0.239286 0
0.400000 0.239286 0
0.417857 0.239286 0
0.435714 0.239286 0
0.453571 0.239286 0
0.471429 0.239286 0
0.489286 0.239286 0
0.507143 0.239286 0
0.525000 0.239286 0
0.542857 0.239286 0
0.560714 0.239286 0
0.578571 0.239286 0
0.596429 0.239286 0
0.614286 0.239286 0
0.632143 0.239286 0
0.650000 0.239286 0
0.667857 0.239286 0
0.685714 0.239286 0
0.703571 0.239286 0
0.721429 0.239286 0
0.739286 0.239286 0
0.757143 0.239286 0
0.775000 0.239286 0
0.792857 0.239286 0
0.810714 0.239286 0
0.828571 0.239286 0
0.846429 0.239286 0
0.864286 0.239286 0
0.150000 0.257143 0
0.167857 0.257143 0
0.185714 0.257143 0
0.203571 0.257143 0
0.221429 0.257143 0
0.239286 0.257143 0
0.257143 0.257143 0
0.275000 0.257143 0
0.292857 0.257143 0
0.310714 0.257143 0
0.328571 0.257143 0
0.346429 0.257143 0
0.364286 0.257143 0
0.382143 0.257143 0
0.400000 0.257143 0
0.417857 0.257143 0
0.435714 0.257143 0
0.453571 0.257143 0
0.471429 0.257143 0
0.489286 0.257143 0
0.507143 0.257143 0
0.525000 0.257143 0
0.542857 0.257143 0
0.560714 0.257143 0
0.578571 0.257143 0
0.596429 0.257143 0
0.614286 0.257143 0
0.632143 0.257143 0
0.650000 0.257143 0
0.667857 0.257143 0
0.685714 0.257143 0
0.703571 0.257143 0
0.721429 0.257143 0
0.739286 0.257143 0
0.757143 0.257143 0
0.775000 0.257143 0
0.792857 0.257143 0
0.810714 0.257143 0
0.828571 0.257143 0
0.846429 0.257143 0
0.864286 0.257143 0
0.150000 0.275000 0
0.167857 0.275000 0
0.185714 0.275000 0
0.203571 0.275000 0
0.221429 0.275000 0
0.239286 0.275000 0
0.257143 0.275000 0
0.275000 0.275000 0
0.292857 0.275000 0
0.310714 0.275000 0
0.328571 0.275000 0
0.346429 0.275000 0
0.364286 0.275000 0
0.382143 0.275000 0
0.400000 0.275000 0
0.417857 0.275000 0
0.435714 0.275000 0
0.453571 0.275000 0
0.471429 0.275000 0
0.489286 0.275000 0
0.507143 0.275000 0
0.525000 0.275000 0
0.542857 0.275000 0
0.560714 0.275000 0
0.578571 0.275000 0
0.596429 0.275000 0
0.614286 0.275000 0
0.632143 0.275000 0
0.650000 0.275000 0
0.667857 0.275000 0
0.685714 0.275000 0
0.703571 0.275000 0
0.721429 0.275000 0
0.739286 0.275000 0
0.757143 0.275000 0
0.775000 0.275000 0
0.792857 0.275000 0
0.810714 0.275000 0
0.828571 0.275000 0
0.846429 0.275000 0
0.864286 0.275000 0
0.150000 0.292857 0
0.167857 0.292857 0
0.185714 0.292857 0
0.203571 0.292857 0
0.221429 0.292857 0
0.239286 0.292857 0
0.257143 0.292857 0
0.275000 0.292857 0
0.292857 0.292857 0
0.310714 0.292857 0
0.328571 0.292857 0
0.346429 0.292857 0
0.364286 0.292857 0
0.382143 0.292857 0
0.400000 0.292857 0
0.417857 0.292857 0
0.435714 0.292857 0
0.453571 0.292857 0
0.471429 0.292857 0
0.489286 0.292857 0
0.507143 0.292857 0
0.525000 0.292857 0
0.542857 0.292857 0
0.560714 0.292857 0
0.578571 0.292857 0
0.596429 0.292857 0
0.614286 0.292857 0
0.632143 0.292857 0
0.650000 0.292857 0
0.667857 0.292857 0
0.685714 0.292857 0
0.703571 0.292857 0
0.721429 0.292857 0
0.739286 0.292857 0
0.757143 0.292857 0
0.775000 0.292857 0
0.792857 0.292857 0
0.810714 0.292857 0
0.828571 0.292857 0
0.846429 0.292857 0
0.864286 0.292857 0
0.150000 0.310714 0
0.167857 0.310714 0
0.185714 0.310714 0
0.203571 0.310714 0
0.221429 0.310714 0
0.239286 0.310714 0
0.257143 0.310714 0
0.275000 0.310714 0
0.292857 0.310714 0
0.310714 0.310714 0
0.328571 0.310714 0
0.346429 0.310714 0
0.364286 0.310714 0
0.382143 0.310714 0
0.400000 0.310714 0
0.417857 0.310714 0
0.435714 0.310714 0
0.453571 0.310714 0
0.471429 0.310714 0
0.489286 0.310714 0
0.507143 0.310714 0
0.525000 0.310714 0
0.542857 0.310714 0
0.560714 0.310714 0
0.578571 0.310714 0
0.596429 0.310714 0
0.614286 0.310714 0
0.632143 0.310714 0
0.650000 0.310714 0
0.667857 0.310714 0
0.685714 0.310714 0
0.703571 0.310714 0
0.721429 0.310714 0
0.739286 0.310714 0
0.757143 0.310714 0
0.775000 0.310714 0
0.792857 0.310714 0
0.810714 0.310714 0
0.828571 0.310714 0
0.846429 0.310714 0
0.864286 0.310714 0
0.150000 0.328571 0
0.167857 0.328571 0
0.185714 0.328571 0
0.203571 0.328571 0
0.221429 0.328571 0
0.239286 0.328571 0
0.257143 0.328571 0
0.275000 0.328571 0
0.292857 0.328571 0
0.310714 0.328571 0
0.328571 0.328571 0
0.346429 0.328571 0
0.364286 0.328571 0
0.382143 0.328571 0
0.400000 0.328571 0
0.417857 0.328571 0
0.435714 0.328571 0
0.453571 0.328571 0
0.471429 0.328571 0
0.489286 0.328571 0
0.507143 0.328571 0
0.525000 0.328571 0
0.542857 0.328571 0
0.560714 0.328571 0
0.578571 0.328571 0
0.596429 0.328571 0
0.614286 0.328571 0
0.632143 0.328571 0
0.650000 0.328571 0
0.667857 0.328571 0
0.685714 0.328571 0
0.703571 0.328571 0
0.721429 0.328571 0
0.739286 0.328571 0
0.757143 0.328571 0
0.775000 0.328571 0
0.792857 0.328571 0
0.810714 0.328571 0
0.828571 0.328571 0
0.846429 0.328571 0
0.864286 0.328571 0
0.150000 0.346429 0
0.167857 0.346429 0
0.185714 0.346429 0
0.203571 0.346429 0
0.221429 0.346429 0
0.239286 0.346429 0
0.257143 0.346429 0
0.275000 0.346429 0
0.292857 0.346429 0
0.310714 0.346429 0
0.328571 0.346429 0
0.346429 0.346429 0
0.364286 0.346429 0
0.382143 0.346429 0
0.400000 0.346429 0
0.417857 0.346429 0
0.435714 0.346429 0
0.453571 0.346429 0
0.471429 0.346429 0
0.489286 0.346429 0
0.507143 0.346429 0
0.525000 0.346429 0
0.542857 0.346429 0
0.560714 0.346429 0
0.578571 0.346429 0
0.596429 0.346429 0
0.614286 0.346429 0
0.632143 0.346429 0
0.650000 0.346429 0
0.667857 0.346429 0
0.685714 0.346429 0
0.703571 0.346429 0
0.721429 0.346429 0
0.739286 0.346429 0
0.757143 0.346429 0
0.775000 0.346429 0
0.792857 0.346429 0
0.810714 0.346429 0
0.828571 0.346429 0
0.846429 0.346429 0
[...]
POINT_DATA 1681 

VECTORS velocity float
0.000000 0.000000 0
0.003841 0.000000 0
0.009526 0.000000 0
0.013519 0.000000 0
0.014288 0.000000 0
0.013710 0.000000 0
0.016341 0.000000 0
0.017687 0.000000 0
0.012080 0.000000 0
0.000928 0.000000 0
-0.012946 0.000000 0
-0.027778 0.000000 0
-0.042753 0.000000 0
-0.057206 0.000000 0
-0.070716 0.000000 0
-0.083032 0.000000 0
-0.094108 0.000000 0
-0.103838 0.000000 0
-0.112191 0.000000 0
-0.119139 0.000000 0
-0.124668 0.000000 0
-0.128763 0.000000 0
-0.131393 0.000000 0
-0.132570 0.000000 0
-0.132170 0.000000 0
-0.130017 0.000000 0
-0.125970 0.000000 0
-0.119900 0.000000 0
-0.111686 0.000000 0
-0.101219 0.000000 0
-0.088520 0.000000 0
-0.073587 0.000000 0
-0.056587 0.000000 0
-0.037908 0.000000 0
-0.018299 0.000000 0
0.000913 0.000000 0
0.016395 0.000000 0
0.022127 0.000000 0
0.016957 0.000000 0
0.007643 0.000000 0
0.000000 0.000000 0
0.000000 -0.003841 0
0.010607 -0.009526 0
0.021155 -0.009678 0
0.027751 -0.004762 0
0.028430 -0.000192 0
0.020706 -0.002053 0
0.007230 -0.003976 0
-0.010346 0.004261 0
-0.032967 0.016758 0
-0.060186 0.025025 0
-0.089823 0.028706 0
-0.119929 0.029807 0
-0.149167 0.029428 0
-0.176597 0.027964 0
-0.201632 0.025827 0
-0.223960 0.023391 0
-0.243475 0.020806 0
-0.260117 0.018083 0
-0.273881 0.015301 0
-0.284778 0.012478 0
-0.292820 0.009624 0
-0.298003 0.006725 0
-0.300297 0.003807 0
-0.299641 0.000777 0
-0.295887 -0.002553 0
-0.288883 -0.006200 0
-0.278420 -0.010116 0
-0.264266 -0.014284 0
-0.246191 -0.018682 0
-0.224001 -0.023166 0
-0.197609 -0.027632 0
-0.167036 -0.031933 0
-0.132580 -0.035679 0
-0.094992 -0.038289 0
-0.055770 -0.038821 0
-0.017612 -0.034694 0
0.014871 -0.021214 0
0.034115 -0.000562 0
0.028530 0.014483 0
0.013428 0.016957 0
0.000000 0.007643 0
0.000000 -0.010607 0
0.011404 -0.021155 0
0.016293 -0.017143 0
0.009451 -0.007275 0
-0.004788 0.007044 0
-0.026558 0.021200 0
-0.058843 0.031052 0
-0.094998 0.040196 0
-0.128352 0.049841 0
-0.159052 0.056856 0
-0.187968 0.059743 0
-0.215049 0.059344 0
-0.239740 0.056668 0
-0.261782 0.052465 0
-0.281051 0.047363 0
-0.297546 0.041843 0
-0.311246 0.036157 0
-0.322271 0.030406 0
-0.330706 0.024661 0
-0.336635 0.018939 0
-0.340108 0.013225 0
-0.341143 0.007477 0
-0.339719 0.001638 0
-0.335711 -0.004411 0
-0.329079 -0.010759 0
-0.319760 -0.017467 0
-0.307602 -0.024617 0
-0.292403 -0.032229 0
-0.273952 -0.040265 0
-0.252061 -0.048583 0
-0.226520 -0.056965 0
-0.197334 -0.065028 0
-0.164699 -0.072045 0
-0.129213 -0.076811 0
-0.092118 -0.077380 0
-0.055628 -0.070640 0
-0.022222 -0.051727 0
0.005371 -0.013660 0
0.016943 0.020687 0
0.008314 0.028530 0
0.000000 0.013428 0
0.000000 -0.015245 0
0.000182 -0.025820 0
-0.012402 -0.007725 0
-0.035221 0.016320 0
-0.063964 0.035817 0
-0.093874 0.052002 0
-0.125278 0.064464 0
-0.157370 0.073770 0
-0.187290 0.080812 0
-0.213678 0.084641 0
-0.236862 0.084703 0
-0.257205 0.081580 0
-0.274877 0.076162 0
-0.290073 0.069275 0
-0.302976 0.061590 0
-0.313747 0.053586 0
-0.322491 0.045531 0
-0.329331 0.037543 0
-0.334353 0.029665 0
-0.337609 0.021880 0
-0.339115 0.014132 0
-0.338850 0.006336 0
-0.336756 -0.001625 0
-0.332736 -0.009864 0
-0.326719 -0.018504 0
-0.318552 -0.027677 0
-0.308078 -0.037473 0
-0.295116 -0.047934 0
-0.279471 -0.059024 0
-0.260947 -0.070598 0
-0.239350 -0.082359 0
-0.214597 -0.093755 0
-0.186748 -0.103799 0
-0.156103 -0.110869 0
-0.123337 -0.112407 0
-0.089614 -0.104590 0
-0.056567 -0.082213 0
-0.025836 -0.039726 0
0.002218 0.011540 0
0.001607 0.033899 0
0.000000 0.015958 0
0.000000 -0.010789 0
-0.018910 -0.008753 0
-0.047218 0.018260 0
-0.075949 0.044288 0
-0.105792 0.065697 0
-0.135785 0.082513 0
-0.164709 0.094548 0
-0.192023 0.102209 0
-0.216451 0.106148 0
-0.237280 0.106427 0
-0.254777 0.103269 0
-0.269453 0.097360 0
-0.281784 0.089536 0
-0.292166 0.080563 0
-0.300893 0.071038 0
-0.308162 0.061358 0
-0.314082 0.051740 0
-0.318727 0.042267 0
-0.322126 0.032939 0
-0.324275 0.023702 0
-0.325143 0.014467 0
-0.324675 0.005118 0
-0.322798 -0.004477 0
-0.319440 -0.014448 0
-0.314497 -0.024942 0
-0.307854 -0.036108 0
-0.299381 -0.048053 0
-0.288930 -0.060836 0
-0.276339 -0.074434 0
-0.261428 -0.088704 0
-0.244017 -0.103314 0
-0.223956 -0.117630 0
-0.201141 -0.130539 0
-0.175556 -0.140222 0
-0.147299 -0.143868 0
-0.116616 -0.137410 0
-0.083886 -0.115505 0
-0.049682 -0.072444 0
-0.015558 -0.006756 0
-0.000991 0.030748 0
0.000000 0.015035 0
0.000000 0.003665 0
-0.032478 0.021398 0
-0.066288 0.049315 0
-0.098310 0.074894 0
-0.128859 0.095653 0
-0.157351 0.110919 0
-0.183161 0.120702 0
-0.206009 0.125512 0
-0.225498 0.126069 0
-0.241564 0.122967 0
-0.254621 0.116876 0
-0.265247 0.108587 0
-0.273979 0.098874 0
-0.281237 0.088384 0
-0.287305 0.077586 0
-0.292354 0.066776 0
-0.296469 0.056097 0
-0.299685 0.045587 0
-0.302005 0.035213 0
-0.303409 0.024897 0
-0.303857 0.014532 0
-0.303299 0.003991 0
-0.301679 -0.006860 0
-0.298943 -0.018165 0
-0.295009 -0.030090 0
-0.289792 -0.042793 0
-0.283195 -0.056397 0
-0.275108 -0.070976 0
-0.265401 -0.086525 0
-0.253926 -0.102919 0
-0.240509 -0.119832 0
-0.224953 -0.136631 0
-0.207025 -0.152199 0
-0.186441 -0.164711 0
-0.162844 -0.171347 0
-0.135796 -0.168003 0
-0.104839 -0.149146 0
-0.069789 -0.108054 0
-0.031680 -0.037151 0
0.004126 0.018341 0
0.000000 0.014967 0
0.000000 0.021688 0
-0.036945 0.057535 0
-0.074022 0.084093 0
-0.107571 0.106858 0
-0.137681 0.124737 0
-0.164184 0.136816 0
-0.186960 0.143206 0
-0.206086 0.144547 0
-0.221706 0.141703 0
-0.234165 0.135550 0
-0.244009 0.126952 0
-0.251818 0.116718 0
-0.258095 0.105526 0
-0.263212 0.093890 0
-0.267416 0.082155 0
-0.270851 0.070521 0
-0.273594 0.059071 0
-0.275679 0.047804 0
-0.277112 0.036663 0
-0.277881 0.025554 0
-0.277961 0.014357 0
-0.277317 0.002940 0
-0.275910 -0.008832 0
-0.273700 -0.021118 0
-0.270631 -0.034093 0
-0.266641 -0.047921 0
-0.261665 -0.062738 0
-0.255624 -0.078630 0
-0.248426 -0.095616 0
-0.239952 -0.113597 0
-0.230044 -0.132288 0
-0.218487 -0.151114 0
-0.204975 -0.169050 0
-0.189057 -0.184403 0
-0.170078 -0.194514 0
-0.147137 -0.195416 0
-0.119130 -0.181512 0
-0.085063 -0.145603 0
-0.044784 -0.080672 0
0.000668 -0.000932 0
0.000000 0.019162 0
0.000000 0.040609 0
-0.037382 0.095421 0
-0.074940 0.119941 0
-0.108123 0.138553 0
-0.136865 0.152267 0
-0.161168 0.160198 0
-0.181217 0.162604 0
-0.197365 0.160258 0
-0.210072 0.154148 0
-0.219894 0.145270 0
-0.227433 0.134530 0
-0.233237 0.122673 0
-0.237751 0.110268 0
-0.241297 0.097704 0
-0.244094 0.085225 0
-0.246277 0.072954 0
-0.247929 0.060925 0
-0.249094 0.049104 0
-0.249793 0.037415 0
-0.250029 0.025746 0
-0.249791 0.013967 0
-0.249061 0.001940 0
-0.247810 -0.010476 0
-0.246015 -0.023444 0
-0.243635 -0.037150 0
-0.240632 -0.051759 0
-0.236965 -0.067414 0
-0.232582 -0.084214 0
-0.227420 -0.102198 0
-0.221387 -0.121302 0
-0.214350 -0.141296 0
-0.206103 -0.161699 0
-0.196322 -0.181629 0
-0.184500 -0.199608 0
-0.169858 -0.213267 0
-0.151270 -0.218951 0
-0.127269 -0.211220 0
-0.096350 -0.182400 0
-0.058054 -0.122882 0
-0.016287 -0.026443 0
0.000000 0.015635 0
0.000000 0.059071 0
-0.035658 0.132475 0
-0.071761 0.154833 0
-0.103287 0.168783 0
-0.130030 0.177783 0
-0.152051 0.181168 0
-0.169686 0.179403 0
-0.183451 0.173402 0
-0.193955 0.164232 0
-0.201835 0.152911 0
-0.207690 0.140295 0
-0.212024 0.127036 0
-0.215230 0.113586 0
-0.217595 0.100233 0
-0.219320 0.087135 0
-0.220540 0.074356 0
-0.221345 0.061888 0
-0.221789 0.049668 0
-0.221905 0.037598 0
-0.221710 0.025552 0
-0.221205 0.013389 0
-0.220383 0.000959 0
-0.219226 -0.011878 0
-0.217729 -0.025293 0
-0.215865 -0.039475 0
-0.213611 -0.054591 0
-0.210945 -0.070788 0
-0.207834 -0.088175 0
-0.204236 -0.106811 0
-0.200081 -0.126666 0
-0.195258 -0.147572 0
-0.189583 -0.169142 0
-0.182755 -0.190654 0
-0.174290 -0.210867 0
-0.163425 -0.227744 0
-0.149024 -0.238005 0
-0.129538 -0.236432 0
-0.103242 -0.214817 0
-0.069248 -0.160735 0
-0.030324 -0.058986 0
0.000000 0.002874 0
0.000000 0.076267 0
-0.032689 0.167181 0
-0.066245 0.187570 0
-0.095367 0.196822 0
-0.119758 0.201031 0
-0.139500 0.199854 0
-0.154988 0.194004 0
-0.166804 0.184526 0
-0.175600 0.172532 0
-0.182017 0.159006 0
-0.186619 0.144719 0
-0.189861 0.130214 0
-0.192097 0.115839 0
-0.193586 0.101794 0
-0.194516 0.088170 0
-0.195020 0.074979 0
-0.195190 0.062173 0
-0.195087 0.049665 0
-0.194752 0.037335 0
-0.194209 0.025045 0
-0.193472 0.012641 0
-0.192546 -0.000039 0
-0.191433 -0.013130 0
-0.190130 -0.026805 0
-0.188624 -0.041268 0
-0.186907 -0.056679 0
-0.184969 -0.073191 0
-0.182792 -0.090923 0
-0.180344 -0.109951 0
-0.177573 -0.130279 0
-0.174381 -0.151794 0
-0.170609 -0.174201 0
-0.165989 -0.196923 0
-0.160093 -0.218939 0
-0.152244 -0.238533 0
-0.141404 -0.252838 0
-0.126059 -0.257002 0
-0.104261 -0.242690 0
-0.074233 -0.195800 0
-0.036426 -0.095691 0
0.000000 -0.014689 0
0.000000 0.091760 0
-0.029078 0.198720 0
-0.059535 0.217511 0
-0.085887 0.222295 0
-0.107783 0.221916 0
-0.125311 0.216398 0
-0.138876 0.206707 0
-0.149057 0.194014 0
-0.156491 0.179445 0
-0.161780 0.163929 0
-0.165437 0.148139 0
-0.167873 0.132514 0
-0.169402 0.117310 0
-0.170262 0.102652 0
-0.170625 0.088570 0
-0.170616 0.075031 0
-0.170326 0.061955 0
-0.169817 0.049230 0
-0.169134 0.036720 0
-0.168310 0.024272 0
-0.167370 0.011726 0
-0.166334 -0.001079 0
-0.165222 -0.014294 0
-0.164020 -0.028102 0
-0.162738 -0.042698 0
-0.161379 -0.058246 0
-0.159941 -0.074903 0
-0.158416 -0.092800 0
-0.156781 -0.112031 0
-0.154990 -0.132629 0
-0.152960 -0.154535 0
-0.150545 -0.177534 0
-0.147509 -0.201170 0
-0.143481 -0.224612 0
-0.137883 -0.246433 0
-0.129815 -0.264190 0
-0.117881 -0.273574 0
-0.100021 -0.266642 0
-0.073722 -0.228571 0
-0.037758 -0.133219 0
0.000000 -0.033551 0
0.000000 0.105345 0
-0.025206 0.226716 0
-0.052348 0.244379 0
-0.075816 0.245070 0
-0.095217 0.240455 0
-0.110640 0.230947 0
-0.122470 0.217749 0
-0.131252 0.202141 0
-0.137573 0.185255 0
-0.141975 0.167952 0
-0.144917 0.150811 0
-0.146761 0.134178 0
-0.147790 0.118227 0
-0.148213 0.103016 0
-0.148186 0.088525 0
-0.147825 0.074680 0
-0.147212 0.061374 0
-0.146410 0.048473 0
-0.145467 0.035828 0
-0.144424 0.023281 0
-0.143314 0.010665 0
-0.142168 -0.002187 0
-0.141008 -0.015444 0
-0.139836 -0.029289 0
-0.138671 -0.043909 0
-0.137525 -0.059477 0
-0.136404 -0.076154 0
-0.135306 -0.094083 0
-0.134214 -0.113377 0
-0.133089 -0.134100 0
-0.131855 -0.156239 0
-0.130380 -0.179652 0
-0.128452 -0.203987 0
-0.125742 -0.228566 0
-0.121758 -0.252199 0
-0.115748 -0.272839 0
-0.106501 -0.286797 0
-0.092050 -0.286850 0
-0.069576 -0.258063 0
-0.036812 -0.169413 0
0.000000 -0.052447 0
0.000000 0.116965 0
-0.021299 0.251068 0
-0.045114 0.268121 0
-0.065732 0.265164 0
-0.082727 0.256741 0
-0.096181 0.243652 0
-0.106446 0.227319 0
-0.114012 0.209116 0
-0.119403 0.190168 0
-0.123095 0.171273 0
-0.125491 0.152926 0
-0.126906 0.135388 0
-0.127586 0.118762 0
-0.127715 0.103048 0
-0.127430 0.088182 0
-0.126834 0.074056 0
-0.126003 0.060540 0
-0.124999 0.047486 0
-0.123871 0.034734 0
-0.122664 0.022119 0
-0.121415 0.009470 0
-0.120161 -0.003386 0
-0.118930 -0.016627 0
-0.117742 -0.030439 0
-0.116619 -0.045009 0
-0.115579 -0.060513 0
-0.114634 -0.077123 0
-0.113789 -0.094990 0
-0.113031 -0.114248 0
-0.112329 -0.134988 0
-0.111616 -0.157244 0
-0.110771 -0.180937 0
-0.109603 -0.205809 0
-0.107818 -0.231306 0
-0.104989 -0.256426 0
-0.100492 -0.279447 0
-0.093335 -0.297271 0
-0.081803 -0.303567 0
-0.063097 -0.283809 0
-0.034256 -0.202795 0
0.000000 -0.070363 0
0.000000 0.126644 0
-0.017482 0.271830 0
-0.038067 0.288813 0
-0.055956 0.282683 0
-0.070677 0.270904 0
-0.082309 0.254666 0
-0.091160 0.235580 0
-0.097660 0.215098 0
-0.102261 0.194339 0
-0.105376 0.174040 0
-0.107347 0.154622 0
-0.108448 0.136273 0
-0.108887 0.119036 0
-0.108822 0.102861 0
-0.108371 0.087644 0
-0.107624 0.073253 0
-0.106653 0.059539 0
-0.105515 0.046341 0
-0.104261 0.033493 0
-0.102936 0.020825 0
-0.101581 0.008162 0
-0.100235 -0.004672 0
-0.098934 -0.017863 0
-0.097706 -0.031600 0
-0.096577 -0.046072 0
-0.095571 -0.061461 0
-0.094704 -0.077944 0
-0.093985 -0.095686 0
-0.093410 -0.114837 0
-0.092951 -0.135516 0
-0.092555 -0.157797 0
-0.092116 -0.181664 0
-0.091464 -0.206940 0
-0.090335 -0.233180 0
-0.088358 -0.259525 0
-0.085013 -0.284494 0
-0.079515 -0.305485 0
-0.070478 -0.317087 0
-0.055359 -0.305610 0
-0.030787 -0.232510 0
0.000000 -0.086703 0
0.000000 0.134447 0
-0.013807 0.289135 0
-0.031309 0.306595 0
-0.046625 0.297775 0
-0.059228 0.283095 0
-0.069184 0.264135 0
-0.076757 0.242670 0
-0.082312 0.220217 0
-0.086233 0.197884 0
-0.088867 0.176360 0
-0.090504 0.155998 0
-0.091370 0.136927 0
-0.091640 0.119135 0
-0.091448 0.102532 0
-0.090892 0.086984 0
-0.090054 0.072339 0
-0.088998 0.058431 0
-0.087778 0.045094 0
-0.086444 0.032154 0
-0.085042 0.019438 0
-0.083613 0.006770 0
-0.082197 -0.006032 0
-0.080837 -0.019156 0
-0.079562 -0.032796 0
-0.078403 -0.047144 0
-0.077388 -0.062387 0
-0.076536 -0.078708 0
-0.075860 -0.096285 0
-0.075362 -0.115282 0
-0.075025 -0.135843 0
-0.074804 -0.158079 0
-0.074614 -0.182028 0
-0.074309 -0.207589 0
-0.073662 -0.234411 0
-0.072350 -0.261749 0
-0.069937 -0.288291 0
-0.065817 -0.311805 0
-0.058936 -0.327723 0
-0.047137 -0.323500 0
-0.026888 -0.258154 0
0.000000 -0.101150 0
0.000000 0.140451 0
-0.010277 0.303139 0
-0.024856 0.321631 0
-0.037765 0.310601 0
-0.048401 0.293463 0
-0.056819 0.272195 0
-0.063233 0.248708 0
-0.067946 0.224575 0
-0.071273 0.200894 0
-0.073501 0.178311 0
-0.074864 0.157124 0
-0.075550 0.137410 0
-0.075700 0.119114 0
-0.075423 0.102113 0
-0.074805 0.086251 0
-0.073915 0.071359 0
-0.072812 0.057263 0
-0.071549 0.043788 0
-0.070172 0.030757 0
-0.068727 0.017994 0
-0.067253 0.005317 0
-0.065788 -0.007449 0
-0.064381 -0.020498 0
-0.063063 -0.034034 0
-0.061867 -0.048247 0
-0.060820 -0.063329 0
-0.059948 -0.079471 0
-0.059267 -0.096860 0
-0.058784 -0.115672 0
-0.058491 -0.136074 0
-0.058357 -0.158208 0
-0.058316 -0.182159 0
-0.058251 -0.207892 0
-0.057974 -0.235140 0
-0.057214 -0.263250 0
-0.055613 -0.291026 0
-0.052704 -0.316486 0
-0.047722 -0.335768 0
-0.038948 -0.337659 0
-0.022883 -0.279647 0
0.000000 -0.113590 0
0.000000 0.144724 0
-0.006872 0.313991 0
-0.018667 0.334082 0
-0.029321 0.321320 0
-0.038132 0.302149 0
-0.045134 0.278967 0
-0.050494 0.253797 0
-0.054449 0.228257 0
-0.057252 0.203439 0
-0.059128 0.179951 0
-0.060263 0.158048 0
-0.060806 0.137763 0
-0.060868 0.119009 0
-0.060537 0.101637 0
-0.059884 0.085476 0
-0.058969 0.070345 0
-0.057847 0.056065 0
-0.056566 0.042454 0
-0.055173 0.029332 0
-0.053712 0.016519 0
-0.052217 0.003830 0
-0.050721 -0.008904 0
-0.049279 -0.021880 0
-0.047925 -0.035311 0
-0.046692 -0.049387 0
-0.045608 -0.064305 0
-0.044701 -0.080261 0
-0.043991 -0.097449 0
-0.043492 -0.116058 0
-0.043204 -0.136270 0
-0.043110 -0.158254 0
-0.043163 -0.182134 0
-0.043275 -0.207932 0
-0.043304 -0.235448 0
-0.043035 -0.264110 0
-0.042181 -0.292802 0
-0.040389 -0.319696 0
-0.037126 -0.341478 0
-0.031093 -0.348339 0
-0.018973 -0.297102 0
0.000000 -0.124034 0
0.000000 0.147324 0
-0.003550 0.321807 0
-0.012671 0.344079 0
-0.021191 0.330066 0
-0.028297 0.309276 0
-0.033988 0.284557 0
-0.038381 0.258023 0
-0.041650 0.231333 0
-0.043984 0.205573 0
-0.045552 0.181323 0
-0.046495 0.158803 0
-0.046922 0.138014 0
-0.046919 0.118845 0
-0.046554 0.101129 0
-0.045885 0.084683 0
-0.044965 0.069321 0
-0.043841 0.054859 0
-0.042561 0.041114 0
-0.041171 0.027903 0
-0.039714 0.015037 0
-0.038221 0.002326 0
-0.036700 -0.010387 0
-0.035235 -0.023293 0
-0.033855 -0.036620 0
-0.032591 -0.050564 0
-0.031472 -0.065320 0
-0.030528 -0.081089 0
-0.029784 -0.098068 0
-0.029260 -0.116459 0
-0.028966 -0.136456 0
-0.028895 -0.158249 0
-0.029020 -0.181993 0
-0.029284 -0.207751 0
-0.029589 -0.235380 0
-0.029779 -0.264373 0
-0.029642 -0.293672 0
-0.028919 -0.321541 0
-0.027250 -0.345064 0
-0.023707 -0.355812 0
-0.015256 -0.310739 0
0.000000 -0.132563 0
0.000000 0.148274 0
-0.000332 0.326662 0
-0.006754 0.351723 0
-0.013237 0.336945 0
-0.018731 0.314946 0
-0.023197 0.289051 0
-0.026697 0.261459 0
-0.029342 0.233860 0
-0.031255 0.207341 0
-0.032552 0.182462 0
-0.033330 0.159417 0
-0.033664 0.138187 0
-0.033614 0.118641 0
-0.033232 0.100604 0
-0.032561 0.083887 0
-0.031647 0.068301 0
-0.030533 0.053661 0
-0.029265 0.039784 0
-0.027886 0.026486 0
-0.026439 0.013569 0
-0.024953 0.000816 0
-0.023433 -0.011890 0
-0.021959 -0.024725 0
-0.020563 -0.037954 0
-0.019276 -0.051770 0
-0.018129 -0.066369 0
-0.017155 -0.081949 0
-0.016385 -0.098716 0
-0.015843 -0.116876 0
-0.015547 -0.136636 0
-0.015503 -0.158200 0
-0.015704 -0.181745 0
-0.016120 -0.207362 0
-0.016696 -0.234953 0
-0.017337 -0.264057 0
-0.017906 -0.293662 0
-0.018228 -0.322088 0
-0.018074 -0.346690 0
-0.016816 -0.360333 0
-0.011765 -0.320810 0
0.000000 -0.139290 0
0.000000 0.147655 0
0.002783 0.328561 0
-0.000782 0.356985 0
-0.005288 0.342043 0
-0.009260 0.319236 0
-0.012565 0.292523 0
-0.015227 0.264168 0
-0.017296 0.235890 0
-0.018829 0.208783 0
-0.019888 0.183398 0
-0.020526 0.159914 0
-0.020788 0.138299 0
-0.020708 0.118413 0
-0.020322 0.100075 0
-0.019662 0.083098 0
-0.018766 0.067294 0
-0.017673 0.052477 0
-0.016423 0.038467 0
-0.015059 0.025077 0
-0.013623 0.012105 0
-0.012127 -0.000680 0
-0.010638 -0.013381 0
-0.009171 -0.026162 0
-0.007769 -0.039304 0
-0.006467 -0.052998 0
-0.005303 -0.067441 0
-0.004313 -0.082833 0
-0.003531 -0.099381 0
-0.002987 -0.117296 0
-0.002707 -0.136796 0
-0.002709 -0.158093 0
-0.003003 -0.181377 0
-0.003588 -0.206758 0
-0.004450 -0.234162 0
-0.005552 -0.263162 0
-0.006829 -0.292781 0
-0.008187 -0.321374 0
-0.009498 -0.346477 0
-0.010368 -0.362121 0
-0.008485 -0.327555 0
0.000000 -0.144328 0
0.000000 0.145491 0
0.005898 0.327444 0
0.005313 0.359795 0
0.002819 0.345423 0
0.000344 0.322223 0
-0.001853 0.295018 0
-0.003731 0.266190 0
-0.005271 0.237462 0
-0.006465 0.209933 0
-0.007319 0.184159 0
-0.007844 0.160317 0
-0.008053 0.138369 0
-0.007960 0.118175 0
-0.007583 0.099557 0
-0.006945 0.082331 0
-0.006075 0.066311 0
-0.005007 0.051317 0
-0.003779 0.037171 0
-0.002427 0.023686 0
-0.000989 0.010637 0
0.000495 -0.002170 0
0.001951 -0.014846 0
0.003401 -0.027593 0
0.004798 -0.040659 0
0.006101 -0.054236 0
0.007267 -0.068522 0
0.008258 -0.083721 0
0.009035 -0.100042 0
0.009560 -0.117700 0
0.009801 -0.136914 0
0.009727 -0.157904 0
0.009309 -0.180866 0
0.008522 -0.205915 0
0.007343 -0.232989 0
0.005756 -0.261677 0
0.003759 -0.291027 0
0.001373 -0.319420 0
-0.001376 -0.344509 0
-0.004265 -0.361346 0
-0.005372 -0.331177 0
0.000000 -0.147775 0
0.000000 0.141757 0
0.009101 0.323248 0
0.011607 0.360064 0
0.011218 0.347012 0
0.010269 0.323908 0
0.009157 0.296598 0
0.008029 0.267586 0
0.006981 0.238624 0
0.006092 0.210831 0
0.005414 0.184776 0
0.004979 0.160648 0
0.004803 0.138415 0
0.004894 0.117943 0
0.005248 0.099061 0
0.005853 0.081591 0
0.006687 0.065356 0
0.007719 0.050181 0
0.008916 0.035887 0
0.010245 0.022287 0
0.011670 0.009182 0
0.013120 -0.003620 0
0.014563 -0.016287 0
0.016002 -0.029010 0
0.017391 -0.042003 0
0.018685 -0.055467 0
0.019843 -0.069598 0
0.020821 -0.084600 0
0.021576 -0.100683 0
0.022063 -0.118063 0
0.022240 -0.136962 0
0.022063 -0.157600 0
0.021487 -0.180172 0
0.020458 -0.204792 0
0.018919 -0.231396 0
0.016803 -0.259579 0
0.014046 -0.288398 0
0.010597 -0.316239 0
0.006422 -0.340839 0
0.001621 -0.358124 0
-0.002354 -0.331820 0
0.000000 -0.149701 0
0.000000 0.136390 0
0.012458 0.315837 0
0.018227 0.357677 0
0.020054 0.346762 0
0.020648 0.324284 0
0.020632 0.297258 0
0.020252 0.268366 0
0.019687 0.239398 0
0.019089 0.211500 0
0.018570 0.185272 0
0.018208 0.160928 0
0.018052 0.138454 0
0.018127 0.117730 0
0.018446 0.098599 0
0.019005 0.080893 0
0.019787 0.064445 0
0.020768 0.049088 0
0.021916 0.034645 0
0.023198 0.020932 0
0.024576 0.007762 0
0.026006 -0.005063 0
0.027448 -0.017729 0
0.028879 -0.030421 0
0.030256 -0.043342 0
0.031537 -0.056688 0
0.032676 -0.070658 0
0.033626 -0.085454 0
0.034339 -0.101284 0
0.034767 -0.118364 0
0.034856 -0.136914 0
0.034549 -0.157151 0
0.033782 -0.179261 0
0.032473 -0.203347 0
0.030528 -0.229333 0
0.027830 -0.256804 0
0.024254 -0.284821 0