# vtk DataFile Version 2.0
generated by CFD-lab course output (written by Tobias Neckel) 
ASCII

DATASET STRUCTURED_GRID
DIMENSIONS  41 41 1 
POINTS 1681 float

0.150000 0.150000 0
0.167857 0.150000 0
0.185714 0.150000 0
0.203571 0.150000 0
0.221429 0.150000 0
0.239286 0.150000 0
0.257143 0.150000 0
0.275000 0.150000 0
0.292857 0.150000 0
0.310714 0.150000 0
0.328571 0.150000 0
0.346429 0.150000 0
0.364286 0.150000 0
0.382143 0.150000 0
0.400000 0.150000 0
0.417857 0.150000 0
0.435714 0.150000 0
0.453571 0.150000 0
0.471429 0.150000 0
0.489286 0.150000 0
0.507143 0.150000 0
0.525000 0.150000 0
0.542857 0.150000 0
0.560714 0.150000 0
0.578571 0.150000 0
0.596429 0.150000 0
0.614286 0.150000 0
0.632143 0.150000 0
0.650000 0.150000 0
0.667857 0.150000 0
0.685714 0.150000 0
0.703571 0.150000 0
0.721429 0.150000 0
0.739286 0.150000 0
0.757143 0.150000 0
0.775000 0.150000 0
0.792857 0.150000 0
0.810714 0.150000 0
0.828571 0.150000 0
0.846429 0.150000 0
0.864286 0.150000 0
0.150000 0.167857 0
0.167857 0.167857 0
0.185714 0.167857 0
0.203571 0.167857 0
0.221429 0.167857 0
0.239286 0.167857 0
0.257143 0.167857 0
0.275000 0.167857 0
0.292857 0.167857 0
0.310714 0.167857 0
0.328571 0.167857 0
0.346429 0.167857 0
0.364286 0.167857 0
0.382143 0.167857 0
0.400000 0.167857 0
0.417857 0.167857 0
0.435714 0.167857 0
0.453571 0.167857 0
0.471429 0.167857 0
0.489286 0.167857 0
0.507143 0.167857 0
0.525000 0.167857 0
0.542857 0.167857 0
0.560714 0.167857 0
0.578571 0.167857 0
0.596429 0.167857 0
0.614286 0.167857 0
0.632143 0.167857 0
0.650000 0.167857 0
0.667857 0.167857 0
0.685714 0.167857 0
0.703571 0.167857 0
0.721429 0.167857 0
0.739286 0.167857 0
0.757143 0.167857 0
0.775000 0.167857 0
0.792857 0.167857 0
0.810714 0.167857 0
0.828571 0.167857 0
0.846429 0.167857 0
0.864286 0.167857 0
0.150000 0.185714 0
0.167857 0.185714 0
0.185714 0.185714 0
0.203571 0.185714 0
0.221429 0.185714 0
0.239286 0.185714 0
0.257143 0.185714 0
0.275000 0.185714 0
0.292857 0.185714 0
0.310714 0.185714 0
0.328571 0.185714 0
0.346429 0.185714 0
0.364286 0.185714 0
0.382143 0.185714 0
0.400000 0.185714 0
0.417857 0.185714 0
0.435714 0.185714 0
0.453571 0.185714 0
0.471429 0.185714 0
0.489286 0.185714 0
0.507143 0.185714 0
0.525000 0.185714 0
0.542857 0.185714 0
0.560714 0.185714 0
0.578571 0.185714 0
0.596429 0.185714 0
0.614286 0.185714 0
0.632143 0.185714 0
0.650000 0.185714 0
0.667857 0.185714 0
0.685714 0.185714 0
0.703571 0.185714 0
0.721429 0.185714 0
0.739286 0.185714 0
0.757143 0.185714 0
0.775000 0.185714 0
0.792857 0.185714 0
0.810714 0.185714 0
0.828571 0.185714 0
0.846429 0.185714 0
0.864286 0.185714 0
0.150000 0.203571 0
0.167857 0.203571 0
0.185714 0.203571 0
0.203571 0.203571 0
0.221429 0.203571 0
0.239286 0.203571 0
0.257143 0.203571 0
0.275000 0.203571 0
0.292857 0.203571 0
0.310714 0.203571 0
0.328571 0.203571 0
0.346429 0.203571 0
0.364286 0.203571 0
0.382143 0.203571 0
0.400000 0.203571 0
0.417857 0.203571 0
0.435714 0.203571 0
0.453571 0.203571 0
0.471429 0.203571 0
0.489286 0.203571 0
0.507143 0.203571 0
0.525000 0.203571 0
0.542857 0.203571 0
0.560714 0.203571 0
0.578571 0.203571 0
0.596429 0.203571 0
0.614286 0.203571 0
0.632143 0.203571 0
0.650000 0.203571 0
0.667857 0.203571 0
0.685714 0.203571 0
0.703571 0.203571 0
0.721429 0.203571 0
0.739286 0.203571 0
0.757143 0.203571 0
0.775000 0.203571 0
0.792857 0.203571 0
0.810714 0.203571 0
0.828571 0.203571 0
0.846429 0.203571 0
0.864286 0.203571 0
0.150000 0.221429 0
0.167857 0.221429 0
0.185714 0.221429 0
0.203571 0.221429 0
0.221429 0.221429 0
0.239286 0.221429 0
0.257143 0.221429 0
0.275000 0.221429 0
0.292857 0.221429 0
0.310714 0.221429 0
0.328571 0.221429 0
0.346429 0.221429 0
0.364286 0.221429 0
0.382143 0.221429 0
0.400000 0.221429 0
0.417857 0.221429 0
0.435714 0.221429 0
0.453571 0.221429 0
0.471429 0.221429 0
0.489286 0.221429 0
0.507143 0.221429 0
0.525000 0.221429 0
0.542857 0.221429 0
0.560714 0.221429 0
0.578571 0.221429 0
0.596429 0.221429 0
0.614286 0.221429 0
0.632143 0.221429 0
0.650000 0.221429 0
0.667857 0.221429 0
0.685714 0.221429 0
0.703571 0.221429 0
0.721429 0.221429 0
0.739286 0.221429 0
0.757143 0.221429 0
0.775000 0.221429 0
0.792857 0.221429 0
0.810714 0.221429 0
0.828571 0.221429 0
0.846429 0.221429 0
0.864286 0.221429 0
0.150000 0.239286 0
0.167857 0.239286 0
0.185714 0.239286 0
0.203571 0.239286 0
0.221429 0.239286 0
0.239286 0.239286 0
0.257143 0.239286 0
0.275000 0.239286 0
0.292857 0.239286 0
0.310714 0.239286 0
0.328571 0.239286 0
0.346429 0.239286 0
0.364286 0.239286 0
0.382143 0.239286 0
0.400000 0.239286 0
0.417857 0.239286 0
0.435714 0.239286 0
0.453571 0.239286 0
0.471429 0.239286 0
0.489286 0.239286 0
0.507143 0.239286 0
0.525000 0.239286 0
0.542857 0.239286 0
0.560714 0.239286 0
0.578571 0.239286 0
0.596429 0.239286 0
0.614286 0.239286 0
0.632143 0.239286 0
0.650000 0.239286 0
0.667857 0.239286 0
0.685714 0.239286 0
0.703571 0.239286 0
0.721429 0.239286 0
0.739286 0.239286 0
0.757143 0.239286 0
0.775000 0.239286 0
0.792857 0.239286 0
0.810714 0.239286 0
0.828571 0.239286 0
0.846429 0.239286 0
0.864286 0.239286 0
0.150000 0.257143 0
0.167857 0.257143 0
0.185714 0.257143 0
0.203571 0.257143 0
0.221429 0.257143 0
0.239286 0.257143 0
0.257143 0.257143 0
0.275000 0.257143 0
0.292857 0.257143 0
0.310714 0.257143 0
0.328571 0.257143 0
0.346429 0.257143 0
0.364286 0.257143 0
0.382143 0.257143 0
0.400000 0.257143 0
0.417857 0.257143 0
0.435714 0.257143 0
0.453571 0.257143 0
0.471429 0.257143 0
0.489286 0.257143 0
0.507143 0.257143 0
0.525000 0.257143 0
0.542857 0.257143 0
0.560714 0.257143 0
0.578571 0.257143 0
0.596429 0.257143 0
0.614286 0.257143 0
0.632143 0.257143 0
0.650000 0.257143 0
0.667857 0.257143 0
0.685714 0.257143 0
0.703571 0.257143 0
0.721429 0.257143 0
0.739286 0.257143 0
0.757143 0.257143 0
0.775000 0.257143 0
0.792857 0.257143 0
0.810714 0.257143 0
0.828571 0.257143 0
0.846429 0.257143 0
0.864286 0.257143 0
0.150000 0.275000 0
0.167857 0.275000 0
0.185714 0.275000 0
0.203571 0.275000 0
0.221429 0.275000 0
0.239286 0.275000 0
0.257143 0.275000 0
0.275000 0.275000 0
0.292857 0.275000 0
0.310714 0.275000 0
0.328571 0.275000 0
0.346429 0.275000 0
0.364286 0.275000 0
0.382143 0.275000 0
0.400000 0.275000 0
0.417857 0.275000 0
0.435714 0.275000 0
0.453571 0.275000 0
0.471429 0.275000 0
0.489286 0.275000 0
0.507143 0.275000 0
0.525000 0.275000 0
0.542857 0.275000 0
0.560714 0.275000 0
0.578571 0.275000 0
0.596429 0.275000 0
0.614286 0.275000 0
0.632143 0.275000 0
0.650000 0.275000 0
0.667857 0.275000 0
0.685714 0.275000 0
0.703571 0.275000 0
0.721429 0.275000 0
0.739286 0.275000 0
0.757143 0.275000 0
0.775000 0.275000 0
0.792857 0.275000 0
0.810714 0.275000 0
0.828571 0.275000 0
0.846429 0.275000 0
0.864286 0.275000 0
0.150000 0.292857 0
0.167857 0.292857 0
0.185714 0.292857 0
0.203571 0.292857 0
0.221429 0.292857 0
0.239286 0.292857 0
0.257143 0.292857 0
0.275000 0.292857 0
0.292857 0.292857 0
0.310714 0.292857 0
0.328571 0.292857 0
0.346429 0.292857 0
0.364286 0.292857 0
0.382143 0.292857 0
0.400000 0.292857 0
0.417857 0.292857 0
0.435714 0.292857 0
0.453571 0.292857 0
0.471429 0.292857 0
0.489286 0.292857 0
0.507143 0.292857 0
0.525000 0.292857 0
0.542857 0.292857 0
0.560714 0.292857 0
0.578571 0.292857 0
0.596429 0.292857 0
0.614286 0.292857 0
0.632143 0.292857 0
0.650000 0.292857 0
0.667857 0.292857 0
0.685714 0.292857 0
0.703571 0.292857 0
0.721429 0.292857 0
0.739286 0.292857 0
0.757143 0.292857 0
0.775000 0.292857 0
0.792857 0.292857 0
0.810714 0.292857 0
0.828571 0.292857 0
0.846429 0.292857 0
0.864286 0.292857 0
0.150000 0.310714 0
0.167857 0.310714 0
0.185714 0.310714 0
0.203571 0.310714 0
0.221429 0.310714 0
0.239286 0.310714 0
0.257143 0.310714 0
0.275000 0.310714 0
0.292857 0.310714 0
0.310714 0.310714 0
0.328571 0.310714 0
0.346429 0.310714 0
0.364286 0.310714 0
0.382143 0.310714 0
0.400000 0.310714 0
0.417857 0.310714 0
0.435714 0.310714 0
0.453571 0.310714 0
0.471429 0.310714 0
0.489286 0.310714 0
0.507143 0.310714 0
0.525000 0.310714 0
0.542857 0.310714 0
0.560714 0.310714 0
0.578571 0.310714 0
0.596429 0.310714 0
0.614286 0.310714 0
0.632143 0.310714 0
0.650000 0.310714 0
0.667857 0.310714 0
0.685714 0.310714 0
0.703571 0.310714 0
0.721429 0.310714 0
0.739286 0.310714 0
0.757143 0.310714 0
0.775000 0.310714 0
0.792857 0.310714 0
0.810714 0.310714 0
0.828571 0.310714 0
0.846429 0.310714 0
0.864286 0.310714 0
0.150000 0.328571 0
0.167857 0.328571 0
0.185714 0.328571 0
0.203571 0.328571 0
0.221429 0.328571 0
0.239286 0.328571 0
0.257143 0.328571 0
0.275000 0.328571 0
0.292857 0.328571 0
0.310714 0.328571 0
0.328571 0.328571 0
0.346429 0.328571 0
0.364286 0.328571 0
0.382143 0.328571 0
0.400000 0.328571 0
0.417857 0.328571 0
0.435714 0.328571 0
0.453571 0.328571 0
0.471429 0.328571 0
0.489286 0.328571 0
0.507143 0.328571 0
0.525000 0.328571 0
0.542857 0.328571 0
0.560714 0.328571 0
0.578571 0.328571 0
0.596429 0.328571 0
0.614286 0.328571 0
0.632143 0.328571 0
0.650000 0.328571 0
0.667857 0.328571 0
0.685714 0.328571 0
0.703571 0.328571 0
0.721429 0.328571 0
0.739286 0.328571 0
0.757143 0.328571 0
0.775000 0.328571 0
0.792857 0.328571 0
0.810714 0.328571 0
0.828571 0.328571 0
0.846429 0.328571 0
0.864286 0.328571 0
0.150000 0.346429 0
0.167857 0.346429 0
0.185714 0.346429 0
0.203571 0.346429 0
0.221429 0.346429 0
0.239286 0.346429 0
0.257143 0.346429 0
0.275000 0.346429 0
0.292857 0.346429 0
0.310714 0.346429 0
0.328571 0.346429 0
0.346429 0.346429 0
0.364286 0.346429 0
0.382143 0.346429 0
0.400000 0.346429 0
0.417857 0.346429 0
0.435714 0.346429 0
0.453571 0.346429 0
0.471429 0.346429 0
0.489286 0.346429 0
0.507143 0.346429 0
0.525000 0.346429 0
0.542857 0.346429 0
0.560714 0.346429 0
0.578571 0.346429 0
0.596429 0.346429 0
0.614286 0.346429 0
0.632143 0.346429 0
0.650000 0.346429 0
0.667857 0.346429 0
0.685714 0.346429 0
0.703571 0.346429 0
0.721429 0.346429 0
0.739286 0.346429 0
0.757143 0.346429 0
0.775000 0.346429 0
0.792857 0.346429 0
0.810714 0.346429 0
0.828571 0.346429 0
0.846429 0.346429 0
[...]
POINT_DATA 1681 

VECTORS velocity float
0.000000 0.000000 0
0.000413 0.000000 0
0.001137 0.000000 0
0.000770 0.000000 0
-0.000773 0.000000 0
-0.003113 0.000000 0
-0.005927 0.000000 0
-0.009047 0.000000 0
-0.012427 0.000000 0
-0.016422 0.000000 0
-0.021091 0.000000 0
-0.026553 0.000000 0
-0.032855 0.000000 0
-0.039943 0.000000 0
-0.047641 0.000000 0
-0.055671 0.000000 0
-0.063838 0.000000 0
-0.071785 0.000000 0
-0.079243 0.000000 0
-0.085997 0.000000 0
-0.091897 0.000000 0
-0.096854 0.000000 0
-0.100812 0.000000 0
-0.103818 0.000000 0
-0.105793 0.000000 0
-0.106672 0.000000 0
-0.106340 0.000000 0
-0.104640 0.000000 0
-0.101438 0.000000 0
-0.096620 0.000000 0
-0.090148 0.000000 0
-0.081867 0.000000 0
-0.071681 0.000000 0
-0.059561 0.000000 0
-0.045656 0.000000 0
-0.030445 0.000000 0
-0.014930 0.000000 0
-0.001342 0.000000 0
0.006536 0.000000 0
0.004599 0.000000 0
0.000000 0.000000 0
0.000000 -0.000413 0
-0.004013 -0.001137 0
-0.009231 -0.000357 0
-0.015786 0.001910 0
-0.023791 0.003883 0
-0.032846 0.005154 0
-0.042601 0.005934 0
-0.052904 0.006500 0
-0.063799 0.007375 0
-0.075531 0.008664 0
-0.088213 0.010131 0
-0.101891 0.011765 0
-0.116490 0.013390 0
-0.131792 0.014785 0
-0.147444 0.015728 0
-0.163010 0.016198 0
-0.178062 0.016113 0
-0.192125 0.015405 0
-0.204801 0.014212 0
-0.215792 0.012654 0
-0.224897 0.010857 0
-0.232004 0.008915 0
-0.237060 0.006964 0
-0.240063 0.004981 0
-0.240934 0.002854 0
-0.239563 0.000547 0
-0.235862 -0.002032 0
-0.229693 -0.004901 0
-0.220872 -0.008019 0
-0.209186 -0.011290 0
-0.194436 -0.014753 0
-0.176367 -0.018467 0
-0.154778 -0.022306 0
-0.129615 -0.026025 0
-0.101151 -0.029116 0
-0.070274 -0.030727 0
-0.038933 -0.029103 0
-0.010864 -0.021465 0
0.007834 -0.005941 0
0.008500 0.006536 0
0.000000 0.004599 0
0.000000 0.004013 0
-0.013503 0.009231 0
-0.029685 0.011773 0
-0.045547 0.014561 0
-0.061232 0.017060 0
-0.076876 0.018810 0
-0.092576 0.020058 0
-0.108417 0.021198 0
-0.124499 0.022626 0
-0.140601 0.024414 0
-0.156708 0.026360 0
-0.172634 0.028277 0
-0.188125 0.029901 0
-0.202892 0.030954 0
-0.216656 0.031218 0
-0.229185 0.030618 0
-0.240177 0.029115 0
-0.249521 0.026739 0
-0.257110 0.023667 0
-0.262898 0.020095 0
-0.266880 0.016212 0
-0.269073 0.012163 0
-0.269506 0.008059 0
-0.268117 0.003873 0
-0.264910 -0.000500 0
-0.259904 -0.005072 0
-0.253063 -0.009869 0
-0.244334 -0.014990 0
-0.233582 -0.020507 0
-0.220609 -0.026436 0
-0.205106 -0.032819 0
-0.186857 -0.039658 0
-0.165647 -0.046752 0
-0.141386 -0.053627 0
-0.114233 -0.059340 0
-0.084828 -0.062218 0
-0.054677 -0.059410 0
-0.026281 -0.046767 0
-0.003632 -0.019364 0
0.006678 0.007834 0
0.000000 0.008500 0
0.000000 0.013090 0
-0.020530 0.028548 0
-0.043075 0.031687 0
-0.064068 0.033457 0
-0.083733 0.035212 0
-0.102411 0.036499 0
-0.120374 0.037474 0
-0.137772 0.038423 0
-0.154614 0.039560 0
-0.170706 0.040873 0
-0.185895 0.042163 0
-0.199978 0.043181 0
-0.212742 0.043648 0
-0.224005 0.043316 0
-0.233648 0.042021 0
-0.241621 0.039719 0
-0.247899 0.036450 0
-0.252579 0.032337 0
-0.255776 0.027589 0
-0.257615 0.022424 0
-0.258205 0.017032 0
-0.257619 0.011541 0
-0.255892 0.006008 0
-0.252994 0.000385 0
-0.248938 -0.005360 0
-0.243745 -0.011300 0
-0.237285 -0.017602 0
-0.229432 -0.024383 0
-0.220031 -0.031744 0
-0.208890 -0.039767 0
-0.195758 -0.048505 0
-0.180408 -0.057925 0
-0.162619 -0.067777 0
-0.142224 -0.077439 0
-0.119194 -0.085675 0
-0.093784 -0.090283 0
-0.066762 -0.087650 0
-0.039626 -0.072510 0
-0.015092 -0.038900 0
0.002994 0.002903 0
0.000000 0.011277 0
0.000000 0.024543 0
-0.023592 0.052306 0
-0.048814 0.055311 0
-0.071864 0.055218 0
-0.092932 0.055403 0
-0.112358 0.055451 0
-0.130434 0.055419 0
-0.147317 0.055438 0
-0.163017 0.055560 0
-0.177415 0.055695 0
-0.190378 0.055633 0
-0.201772 0.055124 0
-0.211492 0.053927 0
-0.219496 0.051860 0
-0.225815 0.048834 0
-0.230548 0.044869 0
-0.233843 0.040073 0
-0.235897 0.034616 0
-0.236904 0.028703 0
-0.237022 0.022524 0
-0.236359 0.016216 0
-0.234965 0.009851 0
-0.232839 0.003434 0
-0.229943 -0.003080 0
-0.226286 -0.009749 0
-0.221754 -0.016725 0
-0.216253 -0.024183 0
-0.209689 -0.032245 0
-0.201939 -0.041049 0
-0.192859 -0.050709 0
-0.182264 -0.061301 0
-0.169962 -0.072796 0
-0.155736 -0.084936 0
-0.139359 -0.097052 0
-0.120618 -0.107781 0
-0.099394 -0.114651 0
-0.075798 -0.113568 0
-0.050433 -0.098436 0
-0.024914 -0.061985 0
-0.002882 -0.007259 0
0.000000 0.011495 0
0.000000 0.036682 0
-0.023919 0.077362 0
-0.049470 0.079960 0
-0.072591 0.077576 0
-0.093395 0.075707 0
-0.112171 0.074000 0
-0.129182 0.072433 0
-0.144587 0.071006 0
-0.158431 0.069657 0
-0.170678 0.068233 0
-0.181277 0.066520 0
-0.190192 0.064296 0
-0.197429 0.061373 0
-0.203055 0.057639 0
-0.207200 0.053073 0
-0.210042 0.047747 0
-0.211782 0.041798 0
-0.212628 0.035398 0
-0.212752 0.028714 0
-0.212279 0.021880 0
-0.211274 0.014975 0
-0.209756 0.008021 0
-0.207708 0.000986 0
-0.205091 -0.006168 0
-0.201895 -0.013549 0
-0.198007 -0.021334 0
-0.193385 -0.029667 0
-0.187963 -0.038696 0
-0.181666 -0.048574 0
-0.174401 -0.059442 0
-0.166054 -0.071402 0
-0.156482 -0.084453 0
-0.145497 -0.098380 0
-0.132841 -0.112557 0
-0.118175 -0.125640 0
-0.101085 -0.135103 0
-0.081169 -0.136611 0
-0.058294 -0.123395 0
-0.033237 -0.086451 0
-0.009326 -0.022010 0
0.000000 0.008395 0
0.000000 0.048462 0
-0.022622 0.101776 0
-0.047090 0.103983 0
-0.069102 0.099144 0
-0.088673 0.094983 0
-0.106040 0.091238 0
-0.121432 0.087835 0
-0.135010 0.084686 0
-0.146864 0.081651 0
-0.157034 0.078542 0
-0.165553 0.075147 0
-0.172472 0.071276 0
-0.177882 0.066791 0
-0.181917 0.061632 0
-0.184749 0.055821 0
-0.186570 0.049452 0
-0.187572 0.042659 0
-0.187921 0.035586 0
-0.187744 0.028354 0
-0.187119 0.021045 0
-0.186082 0.013693 0
-0.184636 0.006285 0
-0.182766 -0.001231 0
-0.180462 -0.008893 0
-0.177676 -0.016833 0
-0.174354 -0.025234 0
-0.170471 -0.034226 0
-0.165991 -0.043964 0
-0.160879 -0.054611 0
-0.155094 -0.066320 0
-0.148577 -0.079220 0
-0.141245 -0.093354 0
-0.132955 -0.108577 0
-0.123466 -0.124374 0
-0.112381 -0.139537 0
-0.099108 -0.151657 0
-0.082882 -0.156359 0
-0.062990 -0.146368 0
-0.039454 -0.110953 0
-0.014791 -0.040496 0
0.000000 0.002169 0
0.000000 0.059304 0
-0.020447 0.124452 0
-0.043063 0.126440 0
-0.063341 0.119158 0
-0.081195 0.112644 0
-0.096820 0.106759 0
-0.110418 0.101403 0
-0.122155 0.096439 0
-0.132154 0.091681 0
-0.140515 0.086922 0
-0.147335 0.081958 0
-0.152730 0.076625 0
-0.156838 0.070818 0
-0.159825 0.064506 0
-0.161868 0.057727 0
-0.163141 0.050571 0
-0.163799 0.043149 0
-0.163963 0.035570 0
-0.163716 0.027912 0
-0.163104 0.020218 0
-0.162145 0.012492 0
-0.160840 0.004705 0
-0.159184 -0.003188 0
-0.157182 -0.011259 0
-0.154772 -0.019657 0
-0.151938 -0.028538 0
-0.148668 -0.038030 0
-0.144949 -0.048287 0
-0.140775 -0.059471 0
-0.136140 -0.071744 0
-0.131031 -0.085250 0
-0.125417 -0.100075 0
-0.119212 -0.116159 0
-0.112221 -0.133131 0
-0.104064 -0.149999 0
-0.094080 -0.164602 0
-0.081285 -0.172728 0
-0.064520 -0.166823 0
-0.043078 -0.134650 0
-0.018477 -0.061464 0
0.000000 -0.006396 0
0.000000 0.068909 0
-0.017855 0.144838 0
-0.038273 0.146877 0
-0.056562 0.137276 0
-0.072530 0.128462 0
-0.086346 0.120461 0
-0.098190 0.113170 0
-0.108230 0.106422 0
-0.116614 0.100011 0
-0.123476 0.093723 0
-0.128956 0.087361 0
-0.133203 0.080779 0
-0.136380 0.073886 0
-0.138656 0.066661 0
-0.140196 0.059136 0
-0.141146 0.051382 0
-0.141625 0.043480 0
-0.141719 0.035503 0
-0.141481 0.027495 0
-0.140936 0.019475 0
-0.140094 0.011429 0
-0.138957 0.003324 0
-0.137523 -0.004889 0
-0.135787 -0.013305 0
-0.133715 -0.022076 0
-0.131304 -0.031338 0
-0.128549 -0.041215 0
-0.125450 -0.051857 0
-0.122018 -0.063420 0
-0.118268 -0.076064 0
-0.114217 -0.089943 0
-0.109871 -0.105173 0
-0.105194 -0.121773 0
-0.100057 -0.139521 0
-0.094141 -0.157679 0
-0.086813 -0.174435 0
-0.077004 -0.185919 0
-0.063252 -0.184576 0
-0.044223 -0.156996 0
-0.020458 -0.083573 0
0.000000 -0.016308 0
0.000000 0.077159 0
-0.015147 0.162725 0
-0.033275 0.165146 0
-0.049539 0.153416 0
-0.063641 0.142428 0
-0.075726 0.132418 0
-0.085962 0.123288 0
-0.094514 0.114863 0
-0.101538 0.106927 0
-0.107189 0.099264 0
-0.111623 0.091685 0
-0.115004 0.084049 0
-0.117496 0.076271 0
-0.119261 0.068322 0
-0.120445 0.060217 0
-0.121168 0.052000 0
-0.121524 0.043723 0
-0.121572 0.035425 0
-0.121349 0.027129 0
-0.120871 0.018832 0
-0.120141 0.010512 0
-0.119158 0.002133 0
-0.117919 -0.006358 0
-0.116419 -0.015066 0
-0.114646 -0.024140 0
-0.112599 -0.033705 0
-0.110279 -0.043885 0
-0.107694 -0.054818 0
-0.104861 -0.066653 0
-0.101805 -0.079545 0
-0.098555 -0.093648 0
-0.095140 -0.109098 0
-0.091558 -0.125973 0
-0.087739 -0.144184 0
-0.083449 -0.163243 0
-0.078147 -0.181739 0
-0.070801 -0.196289 0
-0.059800 -0.199605 0
-0.043348 -0.177444 0
-0.021139 -0.105687 0
0.000000 -0.026853 0
0.000000 0.084055 0
-0.012506 0.178114 0
-0.028401 0.181270 0
-0.042726 0.167642 0
-0.055077 0.154649 0
-0.065582 0.142782 0
-0.074394 0.131958 0
-0.081672 0.121998 0
-0.087573 0.112687 0
-0.092252 0.103808 0
-0.095869 0.095176 0
-0.098585 0.086652 0
-0.100555 0.078144 0
-0.101928 0.069610 0
-0.102829 0.061044 0
-0.103362 0.052461 0
-0.103599 0.043884 0
-0.103589 0.035328 0
-0.103359 0.026794 0
-0.102919 0.018266 0
-0.102269 0.009716 0
-0.101408 0.001102 0
-0.100327 -0.007627 0
-0.099026 -0.016579 0
-0.097505 -0.025897 0
-0.095766 -0.035705 0
-0.093813 -0.046120 0
-0.091657 -0.057275 0
-0.089315 -0.069310 0
-0.086816 -0.082370 0
-0.084191 -0.096608 0
-0.081475 -0.112171 0
-0.078686 -0.129174 0
-0.075794 -0.147630 0
-0.072647 -0.167270 0
-0.068827 -0.187084 0
-0.063424 -0.204266 0
-0.054833 -0.212028 0
-0.040965 -0.195657 0
-0.020794 -0.126922 0
0.000000 -0.037447 0
0.000000 0.089665 0
-0.010029 0.191126 0
-0.023824 0.195367 0
-0.036359 0.180092 0
-0.047120 0.165283 0
-0.056216 0.151735 0
-0.063791 0.139379 0
-0.069992 0.128042 0
-0.074966 0.117507 0
-0.078863 0.107560 0
-0.081833 0.098017 0
-0.084025 0.088735 0
-0.085583 0.079614 0
-0.086637 0.070596 0
-0.087297 0.061651 0
-0.087651 0.052770 0
-0.087762 0.043951 0
-0.087671 0.035185 0
-0.087402 0.026458 0
-0.086964 0.017742 0
-0.086358 0.009001 0
-0.085578 0.000191 0
-0.084615 -0.008739 0
-0.083472 -0.017888 0
-0.082155 -0.027400 0
-0.080669 -0.037397 0
-0.079020 -0.047994 0
-0.077219 -0.059316 0
-0.075282 -0.071494 0
-0.073237 -0.084669 0
-0.071114 -0.098989 0
-0.068944 -0.114604 0
-0.066751 -0.131654 0
-0.064528 -0.150223 0
-0.062186 -0.170209 0
-0.059429 -0.190962 0
-0.055516 -0.210283 0
-0.048970 -0.222063 0
-0.037570 -0.211484 0
-0.019713 -0.146652 0
0.000000 -0.047647 0
0.000000 0.094085 0
-0.007758 0.201938 0
-0.019620 0.207599 0
-0.030534 0.190937 0
-0.039875 0.174506 0
-0.047734 0.159454 0
-0.054241 0.145734 0
-0.059531 0.133174 0
-0.063736 0.121558 0
-0.066994 0.110674 0
-0.069441 0.100339 0
-0.071211 0.090402 0
-0.072431 0.080755 0
-0.073215 0.071323 0
-0.073660 0.062057 0
-0.073843 0.052926 0
-0.073820 0.043905 0
-0.073631 0.034969 0
-0.073297 0.026087 0
-0.072829 0.017222 0
-0.072230 0.008329 0
-0.071492 -0.000641 0
-0.070609 -0.009733 0
-0.069584 -0.019038 0
-0.068426 -0.028699 0
-0.067142 -0.038839 0
-0.065739 -0.049571 0
-0.064227 -0.061013 0
-0.062625 -0.073291 0
-0.060954 -0.086538 0
-0.059243 -0.100901 0
-0.057516 -0.116534 0
-0.055794 -0.133590 0
-0.054082 -0.152195 0
-0.052331 -0.172369 0
-0.050345 -0.193753 0
-0.047567 -0.214725 0
-0.042721 -0.229974 0
-0.033603 -0.224914 0
-0.018171 -0.164492 0
0.000000 -0.057160 0
0.000000 0.097422 0
-0.005697 0.210745 0
-0.015798 0.218143 0
-0.025259 0.200347 0
-0.033344 0.182484 0
-0.040121 0.166101 0
-0.045706 0.151176 0
-0.050219 0.137537 0
-0.053779 0.124970 0
-0.056505 0.113265 0
-0.058519 0.102234 0
-0.059938 0.091725 0
-0.060872 0.081618 0
-0.061423 0.071825 0
-0.061675 0.062279 0
-0.061696 0.052930 0
-0.061538 0.043738 0
-0.061240 0.034661 0
-0.060824 0.025657 0
-0.060305 0.016675 0
-0.059685 0.007664 0
-0.058960 -0.001430 0
-0.058124 -0.010647 0
-0.057181 -0.020071 0
-0.056140 -0.029842 0
-0.055011 -0.040084 0
-0.053802 -0.050909 0
-0.052525 -0.062430 0
-0.051196 -0.074767 0
-0.049836 -0.088051 0
-0.048467 -0.102427 0
-0.047110 -0.118053 0
-0.045781 -0.135088 0
-0.044487 -0.153686 0
-0.043203 -0.173945 0
-0.041808 -0.195726 0
-0.039906 -0.217907 0
-0.036464 -0.236027 0
-0.029405 -0.236034 0
-0.016385 -0.180254 0
0.000000 -0.065818 0
0.000000 0.099782 0
-0.003832 0.217736 0
-0.012330 0.227162 0
-0.020493 0.208483 0
-0.027466 0.189367 0
-0.033294 0.171816 0
-0.038079 0.155832 0
-0.041923 0.141246 0
-0.044931 0.127844 0
-0.047205 0.115415 0
-0.048851 0.103771 0
-0.049970 0.092756 0
-0.050659 0.082241 0
-0.051004 0.072125 0
-0.051082 0.062330 0
-0.050953 0.052790 0
-0.050666 0.043449 0
-0.050258 0.034255 0
-0.049754 0.025152 0
-0.049170 0.016083 0
-0.048513 0.006984 0
-0.047779 -0.002203 0
-0.046963 -0.011512 0
-0.046072 -0.021022 0
-0.045114 -0.030869 0
-0.044100 -0.041177 0
-0.043041 -0.052057 0
-0.041953 -0.063619 0
-0.040849 -0.075980 0
-0.039749 -0.089267 0
-0.038670 -0.103627 0
-0.037630 -0.119220 0
-0.036642 -0.136213 0
-0.035712 -0.154773 0
-0.034829 -0.175048 0
-0.033921 -0.197051 0
-0.032724 -0.220069 0
-0.030448 -0.240474 0
-0.025222 -0.244993 0
-0.014513 -0.193897 0
0.000000 -0.073545 0
0.000000 0.101255 0
-0.002132 0.223076 0
-0.009164 0.234803 0
-0.016160 0.215483 0
-0.022148 0.195285 0
-0.027139 0.176714 0
-0.031221 0.159805 0
-0.034481 0.144389 0
-0.037008 0.130252 0
-0.038890 0.117185 0
-0.040215 0.104999 0
-0.041073 0.093533 0
-0.041546 0.082653 0
-0.041709 0.072247 0
-0.041630 0.062227 0
-0.041365 0.052515 0
-0.040958 0.043043 0
-0.040446 0.033749 0
-0.039854 0.024569 0
-0.039202 0.015435 0
-0.038499 0.006273 0
-0.037743 -0.002980 0
-0.036928 -0.012354 0
-0.036067 -0.021920 0
-0.035165 -0.031814 0
-0.034234 -0.042157 0
-0.033291 -0.053056 0
-0.032354 -0.064623 0
-0.031439 -0.076971 0
-0.030559 -0.090230 0
-0.029731 -0.104546 0
-0.028969 -0.120082 0
-0.028285 -0.137007 0
-0.027688 -0.155498 0
-0.027174 -0.175736 0
-0.026699 -0.197831 0
-0.026104 -0.221380 0
-0.024813 -0.243530 0
-0.021207 -0.251969 0
-0.012662 -0.205476 0
0.000000 -0.080331 0
0.000000 0.101914 0
-0.000585 0.226900 0
-0.006232 0.241189 0
-0.012172 0.221467 0
-0.017279 0.200346 0
-0.021524 0.180889 0
-0.024982 0.163174 0
-0.027724 0.147033 0
-0.029824 0.132252 0
-0.031357 0.118622 0
-0.032398 0.105955 0
-0.033023 0.094086 0
-0.033302 0.082877 0
-0.033303 0.072210 0
-0.033085 0.061985 0
-0.032697 0.052118 0
-0.032182 0.042530 0
-0.031575 0.033151 0
-0.030903 0.023909 0
-0.030185 0.014728 0
-0.029434 0.005524 0
-0.028648 -0.003773 0
-0.027823 -0.013188 0
-0.026977 -0.022785 0
-0.026112 -0.032703 0
-0.025242 -0.043051 0
-0.024392 -0.053936 0
-0.023581 -0.065472 0
-0.022825 -0.077775 0
-0.022136 -0.090974 0
-0.021528 -0.105217 0
-0.021015 -0.120667 0
-0.020611 -0.137494 0
-0.020328 -0.155884 0
-0.020165 -0.176037 0
-0.020101 -0.198121 0
-0.020052 -0.221955 0
-0.019614 -0.245371 0
-0.017443 -0.257144 0
-0.010898 -0.215104 0
0.000000 -0.086207 0
0.000000 0.101839 0
0.000823 0.229307 0
-0.003462 0.246390 0
-0.008433 0.226530 0
-0.012743 0.204638 0
-0.016316 0.184417 0
-0.019210 0.166004 0
-0.021484 0.149231 0
-0.023198 0.133885 0
-0.024415 0.119759 0
-0.025199 0.106665 0
-0.025612 0.094437 0
-0.025717 0.082933 0
-0.025572 0.072029 0
-0.025228 0.061620 0
-0.024731 0.051612 0
-0.024122 0.041922 0
-0.023432 0.032470 0
-0.022689 0.023179 0
-0.021912 0.013965 0
-0.021114 0.004735 0
-0.020292 -0.004590 0
-0.019452 -0.014024 0
-0.018610 -0.023632 0
-0.017772 -0.033550 0
-0.016956 -0.043877 0
-0.016188 -0.054717 0
-0.015487 -0.066190 0
-0.014869 -0.078416 0
-0.014348 -0.091527 0
-0.013937 -0.105667 0
-0.013653 -0.120998 0
-0.013514 -0.137693 0
-0.013532 -0.155944 0
-0.013712 -0.175964 0
-0.014051 -0.197945 0
-0.014520 -0.221867 0
-0.014844 -0.246139 0
-0.013953 -0.260685 0
-0.009248 -0.222919 0
0.000000 -0.091229 0
0.000000 0.101091 0
0.002138 0.230362 0
-0.000777 0.250445 0
-0.004852 0.230747 0
-0.008426 0.208229 0
-0.011383 0.187356 0
-0.013759 0.168342 0
-0.015603 0.151022 0
-0.016962 0.135184 0
-0.017887 0.120623 0
-0.018432 0.107151 0
-0.018651 0.094605 0
-0.018595 0.082837 0
-0.018316 0.071720 0
-0.017860 0.061145 0
-0.017267 0.051011 0
-0.016575 0.041231 0
-0.015814 0.031718 0
-0.015012 0.022390 0
-0.014189 0.013153 0
-0.013348 0.003904 0
-0.012480 -0.005436 0
-0.011617 -0.014870 0
-0.010775 -0.024465 0
-0.009967 -0.034356 0
-0.009211 -0.044635 0
-0.008526 -0.055406 0
-0.007928 -0.066791 0
-0.007435 -0.078914 0
-0.007064 -0.091907 0
-0.006834 -0.105912 0
-0.006767 -0.121090 0
-0.006880 -0.137615 0
-0.007191 -0.155686 0
-0.007711 -0.175519 0
-0.008458 -0.197313 0
-0.009430 -0.221161 0
-0.010457 -0.245938 0
-0.010722 -0.262741 0
-0.007712 -0.229058 0
0.000000 -0.095455 0
0.000000 0.099701 0
0.003410 0.230085 0
0.001888 0.253380 0
-0.001311 0.234179 0
-0.004221 0.211169 0
-0.006596 0.189750 0
-0.008490 0.170224 0
-0.009932 0.152434 0
-0.010958 0.136170 0
-0.011609 0.121230 0
-0.011929 0.107428 0
-0.011963 0.094600 0
-0.011757 0.082599 0
-0.011355 0.071294 0
-0.010796 0.060571 0
-0.010118 0.050327 0
-0.009354 0.040469 0
-0.008533 0.030907 0
-0.007683 0.021554 0
-0.006827 0.012301 0
-0.005953 0.003026 0
-0.005027 -0.006321 0
-0.004141 -0.015729 0
-0.003304 -0.025282 0
-0.002536 -0.035113 0
-0.001849 -0.045318 0
-0.001248 -0.056001 0
-0.000750 -0.067281 0
-0.000375 -0.079280 0
-0.000147 -0.092127 0
-0.000091 -0.105964 0
-0.000231 -0.120952 0
-0.000590 -0.137268 0
-0.001191 -0.155113 0
-0.002058 -0.174698 0
-0.003218 -0.196227 0
-0.004684 -0.219867 0
-0.006381 -0.244846 0
-0.007707 -0.263431 0
-0.006275 -0.233641 0
0.000000 -0.098940 0
0.000000 0.097680 0
0.004681 0.228475 0
0.004568 0.255166 0
0.002293 0.236856 0
0.000018 0.213515 0
-0.001830 0.191624 0
-0.003275 0.171678 0
-0.004335 0.153490 0
-0.005041 0.136860 0
-0.005427 0.121593 0
-0.005531 0.107506 0
-0.005388 0.094433 0
-0.005039 0.082228 0
-0.004519 0.070759 0
-0.003866 0.059908 0
-0.003111 0.049570 0
-0.002284 0.039646 0
-0.001406 0.030047 0
-0.000497 0.020683 0
0.000418 0.011423 0
0.001327 0.002104 0
0.002252 -0.007248 0
0.003116 -0.016593 0
0.003917 -0.026070 0
0.004638 -0.035812 0
0.005267 -0.045923 0
0.005795 -0.056505 0
0.006202 -0.067664 0
0.006463 -0.079516 0
0.006551 -0.092190 0
0.006437 -0.105828 0
0.006090 -0.120590 0
0.005481 -0.136655 0
0.004580 -0.154219 0
0.003353 -0.173492 0
0.001775 -0.194687 0
-0.000172 -0.217999 0
-0.002528 -0.242915 0
-0.004850 -0.262846 0
-0.004913 -0.236765 0
0.000000 -0.101730 0
0.000000 0.095020 0
0.005987 0.225516 0
0.007323 0.255768 0
0.006024 0.238729 0
0.004404 0.215292 0
0.003044 0.193043 0
0.002026 0.172729 0
0.001332 0.154200 0
0.000933 0.137262 0
0.000802 0.121720 0
0.000911 0.107390 0
0.001229 0.094108 0
0.001722 0.081729 0
0.002358 0.070121 0
0.003107 0.059163 0
0.003939 0.048746 0
0.004830 0.038764 0
0.005763 0.029121 0
0.006724 0.019730 0
0.007692 0.010478 0
0.008629 0.001193 0
0.009501 -0.008111 0
0.010309 -0.017395 0
0.011057 -0.026804 0
0.011728 -0.036463 0
0.012305 -0.046474 0
0.012765 -0.056936 0
0.013085 -0.067949 0
0.013235 -0.079629 0
0.013184 -0.092100 0
0.012898 -0.105503 0
0.012341 -0.119996 0
0.011474 -0.135757 0
0.010259 -0.152985 0
0.008659 -0.171893 0
0.006641 -0.192702 0
0.004172 -0.215563 0
0.001185 -0.240169 0
-0.002076 -0.261046 0
-0.003592 -0.238491 0
0.000000 -0.103854 0
0.000000 0.091694 0
0.007361 0.221152 0
0.010223 0.255129 0
0.009963 0.239775 0
0.009005 0.216494 0
0.008145 0.194002 0
0.007546 0.173390 0
0.007203 0.154583 0
0.007100 0.137390 0
0.007220 0.121615 0
0.007541 0.107080 0
0.008036 0.093623 0
0.008675 0.081098 0
0.009432 0.069374 0
0.010281 0.058328 0
0.011197 0.047847 0
0.012156 0.037822 0
0.013136 0.028153 0
0.014119 0.018754 0
0.015085 0.009518 0
0.016019 0.000295 0
0.016853 -0.008928 0
0.017619 -0.018148 0
0.018321 -0.027489 0
0.018940 -0.037060 0
0.019454 -0.046960 0
0.019838 -0.057285 0
0.020063 -0.068133 0
0.020097 -0.079616 0
0.019903 -0.091854 0
0.019441 -0.104985 0
0.018667 -0.119166 0
0.017535 -0.134573 0
0.015996 -0.151404 0
0.014005 -0.169874 0
0.011513 -0.190200 0