# vtk DataFile Version 2.0
generated by CFD-lab course output (written by Tobias Neckel) 
ASCII

DATASET STRUCTURED_GRID
DIMENSIONS  41 41 1 
POINTS 1681 float

0.150000 0.150000 0
0.167857 0.150000 0
0.185714 0.150000 0
0.203571 0.150000 0
0.221429 0.150000 0
0.239286 0.150000 0
0.257143 0.150000 0
0.275000 0.150000 0
0.292857 0.150000 0
0.310714 0.150000 0
0.328571 0.150000 0
0.346429 0.150000 0
0.364286 0.150000 0
0.382143 0.150000 0
0.400000 0.150000 0
0.417857 0.150000 0
0.435714 0.150000 0
0.453571 0.150000 0
0.471429 0.150000 0
0.489286 0.150000 0
0.507143 0.150000 0
0.525000 0.150000 0
0.542857 0.150000 0
0.560714 0.150000 0
0.578571 0.150000 0
0.596429 0.150000 0
0.614286 0.150000 0
0.632143 0.150000 0
0.650000 0.150000 0
0.667857 0.150000 0
0.685714 0.150000 0
0.703571 0.150000 0
0.721429 0.150000 0
0.739286 0.150000 0
0.757143 0.150000 0
0.775000 0.150000 0
0.792857 0.150000 0
0.810714 0.150000 0
0.828571 0.150000 0
0.846429 0.150000 0
0.864286 0.150000 0
0.150000 0.167857 0
0.167857 0.167857 0
0.185714 0.167857 0
0.203571 0.167857 0
0.221429 0.167857 0
0.239286 0.167857 0
0.257143 0.167857 0
0.275000 0.167857 0
0.292857 0.167857 0
0.310714 0.167857 0
0.328571 0.167857 0
0.346429 0.167857 0
0.364286 0.167857 0
0.382143 0.167857 0
0.400000 0.167857 0
0.417857 0.167857 0
0.435714 0.167857 0
0.453571 0.167857 0
0.471429 0.167857 0
0.489286 0.167857 0
0.507143 0.167857 0
0.525000 0.167857 0
0.542857 0.167857 0
0.560714 0.167857 0
0.578571 0.167857 0
0.596429 0.167857 0
0.614286 0.167857 0
0.632143 0.167857 0
0.650000 0.167857 0
0.667857 0.167857 0
0.685714 0.167857 0
0.703571 0.167857 0
0.721429 0.167857 0
0.739286 0.167857 0
0.757143 0.167857 0
0.775000 0.167857 0
0.792857 0.167857 0
0.810714 0.167857 0
0.828571 0.167857 0
0.846429 0.167857 0
0.864286 0.167857 0
0.150000 0.185714 0
0.167857 0.185714 0
0.185714 0.185714 0
0.203571 0.185714 0
0.221429 0.185714 0
0.239286 0.185714 0
0.257143 0.185714 0
0.275000 0.185714 0
0.292857 0.185714 0
0.310714 0.185714 0
0.328571 0.185714 0
0.346429 0.185714 0
0.364286 0.185714 0
0.382143 0.185714 0
0.400000 0.185714 0
0.417857 0.185714 0
0.435714 0.185714 0
0.453571 0.185714 0
0.471429 0.185714 0
0.489286 0.185714 0
0.507143 0.185714 0
0.525000 0.185714 0
0.542857 0.185714 0
0.560714 0.185714 0
0.578571 0.185714 0
0.596429 0.185714 0
0.614286 0.185714 0
0.632143 0.185714 0
0.650000 0.185714 0
0.667857 0.185714 0
0.685714 0.185714 0
0.703571 0.185714 0
0.721429 0.185714 0
0.739286 0.185714 0
0.757143 0.185714 0
0.775000 0.185714 0
0.792857 0.185714 0
0.810714 0.185714 0
0.828571 0.185714 0
0.846429 0.185714 0
0.864286 0.185714 0
0.150000 0.203571 0
0.167857 0.203571 0
0.185714 0.203571 0
0.203571 0.203571 0
0.221429 0.203571 0
0.239286 0.203571 0
0.257143 0.203571 0
0.275000 0.203571 0
0.292857 0.203571 0
0.310714 0.203571 0
0.328571 0.203571 0
0.346429 0.203571 0
0.364286 0.203571 0
0.382143 0.203571 0
0.400000 0.203571 0
0.417857 0.203571 0
0.435714 0.203571 0
0.453571 0.203571 0
0.471429 0.203571 0
0.489286 0.203571 0
0.507143 0.203571 0
0.525000 0.203571 0
0.542857 0.203571 0
0.560714 0.203571 0
0.578571 0.203571 0
0.596429 0.203571 0
0.614286 0.203571 0
0.632143 0.203571 0
0.650000 0.203571 0
0.667857 0.203571 0
0.685714 0.203571 0
0.703571 0.203571 0
0.721429 0.203571 0
0.739286 0.203571 0
0.757143 0.203571 0
0.775000 0.203571 0
0.792857 0.203571 0
0.810714 0.203571 0
0.828571 0.203571 0
0.846429 0.203571 0
0.864286 0.203571 0
0.150000 0.221429 0
0.167857 0.221429 0
0.185714 0.221429 0
0.203571 0.221429 0
0.221429 0.221429 0
0.239286 0.221429 0
0.257143 0.221429 0
0.275000 0.221429 0
0.292857 0.221429 0
0.310714 0.221429 0
0.328571 0.221429 0
0.346429 0.221429 0
0.364286 0.221429 0
0.382143 0.221429 0
0.400000 0.221429 0
0.417857 0.221429 0
0.435714 0.221429 0
0.453571 0.221429 0
0.471429 0.221429 0
0.489286 0.221429 0
0.507143 0.221429 0
0.525000 0.221429 0
0.542857 0.221429 0
0.560714 0.221429 0
0.578571 0.221429 0
0.596429 0.221429 0
0.614286 0.221429 0
0.632143 0.221429 0
0.650000 0.221429 0
0.667857 0.221429 0
0.685714 0.221429 0
0.703571 0.221429 0
0.721429 0.221429 0
0.739286 0.221429 0
0.757143 0.221429 0
0.775000 0.221429 0
0.792857 0.221429 0
0.810714 0.221429 0
0.828571 0.221429 0
0.846429 0.221429 0
0.864286 0.221429 0
0.150000 0.239286 0
0.167857 0.239286 0
0.185714 0.239286 0
0.203571 0.239286 0
0.221429 0.239286 0
0.239286 0.239286 0
0.257143 0.239286 0
0.275000 0.239286 0
0.292857 0.239286 0
0.310714 0.239286 0
0.328571 0.239286 0
0.346429 0.239286 0
0.364286 0.239286 0
0.382143 0.239286 0
0.400000 0.239286 0
0.417857 0.239286 0
0.435714 0.239286 0
0.453571 0.239286 0
0.471429 0.239286 0
0.489286 0.239286 0
0.507143 0.239286 0
0.525000 0.239286 0
0.542857 0.239286 0
0.560714 0.239286 0
0.578571 0.239286 0
0.596429 0.239286 0
0.614286 0.239286 0
0.632143 0.239286 0
0.650000 0.239286 0
0.667857 0.239286 0
0.685714 0.239286 0
0.703571 0.239286 0
0.721429 0.239286 0
0.739286 0.239286 0
0.757143 0.239286 0
0.775000 0.239286 0
0.792857 0.239286 0
0.810714 0.239286 0
0.828571 0.239286 0
0.846429 0.239286 0
0.864286 0.239286 0
0.150000 0.257143 0
0.167857 0.257143 0
0.185714 0.257143 0
0.203571 0.257143 0
0.221429 0.257143 0
0.239286 0.257143 0
0.257143 0.257143 0
0.275000 0.257143 0
0.292857 0.257143 0
0.310714 0.257143 0
0.328571 0.257143 0
0.346429 0.257143 0
0.364286 0.257143 0
0.382143 0.257143 0
0.400000 0.257143 0
0.417857 0.257143 0
0.435714 0.257143 0
0.453571 0.257143 0
0.471429 0.257143 0
0.489286 0.257143 0
0.507143 0.257143 0
0.525000 0.257143 0
0.542857 0.257143 0
0.560714 0.257143 0
0.578571 0.257143 0
0.596429 0.257143 0
0.614286 0.257143 0
0.632143 0.257143 0
0.650000 0.257143 0
0.667857 0.257143 0
0.685714 0.257143 0
0.703571 0.257143 0
0.721429 0.257143 0
0.739286 0.257143 0
0.757143 0.257143 0
0.775000 0.257143 0
0.792857 0.257143 0
0.810714 0.257143 0
0.828571 0.257143 0
0.846429 0.257143 0
0.864286 0.257143 0
0.150000 0.275000 0
0.167857 0.275000 0
0.185714 0.275000 0
0.203571 0.275000 0
0.221429 0.275000 0
0.239286 0.275000 0
0.257143 0.275000 0
0.275000 0.275000 0
0.292857 0.275000 0
0.310714 0.275000 0
0.328571 0.275000 0
0.346429 0.275000 0
0.364286 0.275000 0
0.382143 0.275000 0
0.400000 0.275000 0
0.417857 0.275000 0
0.435714 0.275000 0
0.453571 0.275000 0
0.471429 0.275000 0
0.489286 0.275000 0
0.507143 0.275000 0
0.525000 0.275000 0
0.542857 0.275000 0
0.560714 0.275000 0
0.578571 0.275000 0
0.596429 0.275000 0
0.614286 0.275000 0
0.632143 0.275000 0
0.650000 0.275000 0
0.667857 0.275000 0
0.685714 0.275000 0
0.703571 0.275000 0
0.721429 0.275000 0
0.739286 0.275000 0
0.757143 0.275000 0
0.775000 0.275000 0
0.792857 0.275000 0
0.810714 0.275000 0
0.828571 0.275000 0
0.846429 0.275000 0
0.864286 0.275000 0
0.150000 0.292857 0
0.167857 0.292857 0
0.185714 0.292857 0
0.203571 0.292857 0
0.221429 0.292857 0
0.239286 0.292857 0
0.257143 0.292857 0
0.275000 0.292857 0
0.292857 0.292857 0
0.310714 0.292857 0
0.328571 0.292857 0
0.346429 0.292857 0
0.364286 0.292857 0
0.382143 0.292857 0
0.400000 0.292857 0
0.417857 0.292857 0
0.435714 0.292857 0
0.453571 0.292857 0
0.471429 0.292857 0
0.489286 0.292857 0
0.507143 0.292857 0
0.525000 0.292857 0
0.542857 0.292857 0
0.560714 0.292857 0
0.578571 0.292857 0
0.596429 0.292857 0
0.614286 0.292857 0
0.632143 0.292857 0
0.650000 0.292857 0
0.667857 0.292857 0
0.685714 0.292857 0
0.703571 0.292857 0
0.721429 0.292857 0
0.739286 0.292857 0
0.757143 0.292857 0
0.775000 0.292857 0
0.792857 0.292857 0
0.810714 0.292857 0
0.828571 0.292857 0
0.846429 0.292857 0
0.864286 0.292857 0
0.150000 0.310714 0
0.167857 0.310714 0
0.185714 0.310714 0
0.203571 0.310714 0
0.221429 0.310714 0
0.239286 0.310714 0
0.257143 0.310714 0
0.275000 0.310714 0
0.292857 0.310714 0
0.310714 0.310714 0
0.328571 0.310714 0
0.346429 0.310714 0
0.364286 0.310714 0
0.382143 0.310714 0
0.400000 0.310714 0
0.417857 0.310714 0
0.435714 0.310714 0
0.453571 0.310714 0
0.471429 0.310714 0
0.489286 0.310714 0
0.507143 0.310714 0
0.525000 0.310714 0
0.542857 0.310714 0
0.560714 0.310714 0
0.578571 0.310714 0
0.596429 0.310714 0
0.614286 0.310714 0
0.632143 0.310714 0
0.650000 0.310714 0
0.667857 0.310714 0
0.685714 0.310714 0
0.703571 0.310714 0
0.721429 0.310714 0
0.739286 0.310714 0
0.757143 0.310714 0
0.775000 0.310714 0
0.792857 0.310714 0
0.810714 0.310714 0
0.828571 0.310714 0
0.846429 0.310714 0
0.864286 0.310714 0
0.150000 0.328571 0
0.167857 0.328571 0
0.185714 0.328571 0
0.203571 0.328571 0
0.221429 0.328571 0
0.239286 0.328571 0
0.257143 0.328571 0
0.275000 0.328571 0
0.292857 0.328571 0
0.310714 0.328571 0
0.328571 0.328571 0
0.346429 0.328571 0
0.364286 0.328571 0
0.382143 0.328571 0
0.400000 0.328571 0
0.417857 0.328571 0
0.435714 0.328571 0
0.453571 0.328571 0
0.471429 0.328571 0
0.489286 0.328571 0
0.507143 0.328571 0
0.525000 0.328571 0
0.542857 0.328571 0
0.560714 0.328571 0
0.578571 0.328571 0
0.596429 0.328571 0
0.614286 0.328571 0
0.632143 0.328571 0
0.650000 0.328571 0
0.667857 0.328571 0
0.685714 0.328571 0
0.703571 0.328571 0
0.721429 0.328571 0
0.739286 0.328571 0
0.757143 0.328571 0
0.775000 0.328571 0
0.792857 0.328571 0
0.810714 0.328571 0
0.828571 0.328571 0
0.846429 0.328571 0
0.864286 0.328571 0
0.150000 0.346429 0
0.167857 0.346429 0
0.185714 0.346429 0
0.203571 0.346429 0
0.221429 0.346429 0
0.239286 0.346429 0
0.257143 0.346429 0
0.275000 0.346429 0
0.292857 0.346429 0
0.310714 0.346429 0
0.328571 0.346429 0
0.346429 0.346429 0
0.364286 0.346429 0
0.382143 0.346429 0
0.400000 0.346429 0
0.417857 0.346429 0
0.435714 0.346429 0
0.453571 0.346429 0
0.471429 0.346429 0
0.489286 0.346429 0
0.507143 0.346429 0
0.525000 0.346429 0
0.542857 0.346429 0
0.560714 0.346429 0
0.578571 0.346429 0
0.596429 0.346429 0
0.614286 0.346429 0
0.632143 0.346429 0
0.650000 0.346429 0
0.667857 0.346429 0
0.685714 0.346429 0
0.703571 0.346429 0
0.721429 0.346429 0
0.739286 0.346429 0
0.757143 0.346429 0
0.775000 0.346429 0
0.792857 0.346429 0
0.810714 0.346429 0
0.828571 0.346429 0
0.846429 0.346429 0
[...]
POINT_DATA 1681 

VECTORS velocity float
0.000000 0.000000 0
0.005537 0.000000 0
0.011649 0.000000 0
0.014162 0.000000 0
0.014345 0.000000 0
0.014024 0.000000 0
0.011956 0.000000 0
0.016581 0.000000 0
0.021264 0.000000 0
0.011552 0.000000 0
-0.005756 0.000000 0
-0.025283 0.000000 0
-0.045306 0.000000 0
-0.064758 0.000000 0
-0.082916 0.000000 0
-0.099349 0.000000 0
-0.113900 0.000000 0
-0.126430 0.000000 0
-0.136901 0.000000 0
-0.145311 0.000000 0
-0.151677 0.000000 0
-0.156020 0.000000 0
-0.158341 0.000000 0
-0.158665 0.000000 0
-0.156871 0.000000 0
-0.152831 0.000000 0
-0.146474 0.000000 0
-0.137716 0.000000 0
-0.126480 0.000000 0
-0.112710 0.000000 0
-0.096474 0.000000 0
-0.077839 0.000000 0
-0.057056 0.000000 0
-0.034595 0.000000 0
-0.011252 0.000000 0
0.011734 0.000000 0
0.027173 0.000000 0
0.030302 0.000000 0
0.022660 0.000000 0
0.010625 0.000000 0
0.000000 0.000000 0
0.000000 -0.005537 0
0.015094 -0.011649 0
0.028096 -0.008625 0
0.033528 -0.002696 0
0.033685 0.000138 0
0.033971 0.002389 0
0.025204 -0.002556 0
0.006916 -0.009308 0
-0.016792 0.005028 0
-0.047767 0.027020 0
-0.084990 0.036835 0
-0.124326 0.039550 0
-0.163249 0.039475 0
-0.200065 0.037610 0
-0.233702 0.034591 0
-0.263553 0.030985 0
-0.289350 0.027081 0
-0.310976 0.023001 0
-0.328431 0.018882 0
-0.341770 0.014776 0
-0.351067 0.010708 0
-0.356386 0.006664 0
-0.357759 0.002646 0
-0.355173 -0.001470 0
-0.348565 -0.005834 0
-0.337850 -0.010397 0
-0.322886 -0.015115 0
-0.303519 -0.019994 0
-0.279601 -0.025006 0
-0.251032 -0.030007 0
-0.217834 -0.034871 0
-0.180176 -0.039418 0
-0.138538 -0.043244 0
-0.093920 -0.045804 0
-0.048190 -0.046329 0
-0.004714 -0.038425 0
0.030486 -0.018569 0
0.047163 0.004513 0
0.036570 0.019678 0
0.017105 0.022660 0
0.000000 0.010625 0
0.000000 -0.015094 0
0.018314 -0.028096 0
0.029285 -0.018434 0
0.033049 -0.005589 0
0.022185 -0.000443 0
0.001810 0.008481 0
-0.026353 0.027055 0
-0.070804 0.041996 0
-0.121767 0.054683 0
-0.163533 0.068198 0
-0.201190 0.076559 0
-0.236979 0.078259 0
-0.270175 0.075738 0
-0.300103 0.070453 0
-0.326399 0.063488 0
-0.348907 0.055649 0
-0.367542 0.047424 0
-0.382396 0.039081 0
-0.393571 0.030794 0
-0.401181 0.022636 0
-0.405323 0.014616 0
-0.406063 0.006692 0
-0.403430 -0.001213 0
-0.397367 -0.009194 0
-0.387925 -0.017324 0
-0.375081 -0.025678 0
-0.358707 -0.034331 0
-0.338660 -0.043285 0
-0.314800 -0.052488 0
-0.287030 -0.061767 0
-0.255270 -0.070856 0
-0.219677 -0.079296 0
-0.180661 -0.086256 0
-0.139125 -0.090347 0
-0.096825 -0.089206 0
-0.056903 -0.078676 0
-0.019273 -0.051877 0
0.010402 -0.006084 0
0.016810 0.030058 0
0.007568 0.036570 0
0.000000 0.017105 0
0.000000 -0.023851 0
0.011555 -0.040934 0
0.010847 -0.023360 0
-0.005377 0.004404 0
-0.031944 0.031377 0
-0.072080 0.050926 0
-0.113882 0.070058 0
-0.154906 0.086106 0
-0.196201 0.097757 0
-0.233540 0.106444 0
-0.265562 0.110282 0
-0.293751 0.108535 0
-0.318511 0.102599 0
-0.340020 0.093834 0
-0.358419 0.083395 0
-0.373831 0.072127 0
-0.386341 0.060570 0
-0.396065 0.049030 0
-0.403093 0.037666 0
-0.407492 0.026528 0
-0.409302 0.015590 0
-0.408532 0.004771 0
-0.405161 -0.006050 0
-0.399154 -0.016975 0
-0.390463 -0.028120 0
-0.378973 -0.039615 0
-0.364569 -0.051537 0
-0.347119 -0.063901 0
-0.326496 -0.076635 0
-0.302595 -0.089536 0
-0.275347 -0.102224 0
-0.244827 -0.114028 0
-0.211289 -0.123796 0
-0.175279 -0.129640 0
-0.137745 -0.128551 0
-0.100040 -0.115976 0
-0.063509 -0.085874 0
-0.028473 -0.031571 0
0.000665 0.022511 0
-0.000655 0.039470 0
0.000000 0.018193 0
0.000000 -0.026650 0
-0.007311 -0.038943 0
-0.028947 -0.001502 0
-0.061315 0.037202 0
-0.094315 0.066261 0
-0.131563 0.090420 0
-0.169958 0.109881 0
-0.206263 0.124315 0
-0.240302 0.133317 0
-0.270466 0.137559 0
-0.295881 0.136771 0
-0.317367 0.131207 0
-0.335595 0.122007 0
-0.351072 0.110361 0
-0.364137 0.097299 0
-0.374998 0.083571 0
-0.383765 0.069658 0
-0.390508 0.055833 0
-0.395259 0.042221 0
-0.398029 0.028845 0
-0.398809 0.015655 0
-0.397571 0.002550 0
-0.394275 -0.010590 0
-0.388914 -0.023892 0
-0.381391 -0.037505 0
-0.371616 -0.051573 0
-0.359483 -0.066184 0
-0.344882 -0.081358 0
-0.327701 -0.097012 0
-0.307843 -0.112916 0
-0.285235 -0.128625 0
-0.259868 -0.143355 0
-0.231803 -0.155803 0
-0.201188 -0.163891 0
-0.168236 -0.164444 0
-0.133137 -0.152913 0
-0.095880 -0.123444 0
-0.056303 -0.070258 0
-0.014562 0.002240 0
-0.004321 0.037235 0
0.000000 0.016450 0
0.000000 -0.016539 0
-0.028909 -0.011988 0
-0.064886 0.030643 0
-0.098182 0.069773 0
-0.133222 0.101625 0
-0.168396 0.126569 0
-0.202432 0.144757 0
-0.233581 0.156450 0
-0.261403 0.161960 0
-0.285296 0.162023 0
-0.305123 0.157183 0
-0.321522 0.148249 0
-0.335143 0.136303 0
-0.346512 0.122376 0
-0.355973 0.107321 0
-0.363727 0.091755 0
-0.369877 0.076080 0
-0.374476 0.060524 0
-0.377549 0.045188 0
-0.379104 0.030078 0
-0.379137 0.015132 0
-0.377631 0.000237 0
-0.374560 -0.014707 0
-0.369903 -0.029860 0
-0.363576 -0.045418 0
-0.355496 -0.061522 0
-0.345569 -0.078270 0
-0.333697 -0.095684 0
-0.319783 -0.113675 0
-0.303735 -0.132002 0
-0.285472 -0.150199 0
-0.264914 -0.167459 0
-0.241967 -0.182475 0
-0.216467 -0.193207 0
-0.188109 -0.196602 0
-0.156353 -0.188332 0
-0.120394 -0.162708 0
-0.079477 -0.112890 0
-0.034325 -0.029471 0
0.003371 0.024908 0
0.000000 0.013872 0
0.000000 0.002260 0
-0.040682 0.025942 0
-0.080857 0.067771 0
-0.118157 0.105538 0
-0.153660 0.136475 0
-0.186786 0.159629 0
-0.216999 0.175065 0
-0.243599 0.183287 0
-0.266441 0.185032 0
-0.285501 0.181279 0
-0.301060 0.172997 0
-0.313701 0.161227 0
-0.323988 0.146997 0
-0.332370 0.131191 0
-0.339150 0.114514 0
-0.344522 0.097474 0
-0.348603 0.080407 0
-0.351469 0.063505 0
-0.353173 0.046849 0
-0.353749 0.030433 0
-0.353212 0.014181 0
-0.351567 -0.002027 0
-0.348805 -0.018317 0
-0.344866 -0.034876 0
-0.339690 -0.051912 0
-0.333191 -0.069580 0
-0.325282 -0.087983 0
-0.315868 -0.107144 0
-0.304858 -0.126973 0
-0.292162 -0.147227 0
-0.277689 -0.167446 0
-0.261323 -0.186860 0
-0.242878 -0.204251 0
-0.222020 -0.217749 0
-0.198158 -0.224559 0
-0.170338 -0.220627 0
-0.137260 -0.200319 0
-0.097590 -0.156327 0
-0.050634 -0.080608 0
0.005193 0.002910 0
0.000000 0.019821 0
0.000000 0.024143 0
-0.044092 0.068870 0
-0.086954 0.108118 0
-0.125741 0.142576 0
-0.160691 0.170255 0
-0.191695 0.189907 0
-0.218677 0.201570 0
-0.241573 0.205893 0
-0.260583 0.203862 0
-0.276028 0.196642 0
-0.288381 0.185383 0
-0.298186 0.171177 0
-0.305925 0.154972 0
-0.311982 0.137538 0
-0.316636 0.119473 0
-0.320089 0.101207 0
-0.322490 0.083027 0
-0.323951 0.065094 0
-0.324558 0.047467 0
-0.324372 0.030117 0
-0.323432 0.012951 0
-0.321752 -0.004170 0
-0.319327 -0.021408 0
-0.316095 -0.038976 0
-0.311992 -0.057093 0
-0.306929 -0.075930 0
-0.300811 -0.095594 0
-0.293538 -0.116108 0
-0.285013 -0.137381 0
-0.275142 -0.159171 0
-0.263823 -0.181038 0
-0.250929 -0.202270 0
-0.236247 -0.221778 0
-0.219399 -0.237927 0
-0.199710 -0.248284 0
-0.176080 -0.249230 0
-0.146936 -0.235457 0
-0.110506 -0.199515 0
-0.065853 -0.132253 0
-0.015695 -0.025726 0
0.000000 0.019065 0
0.000000 0.046352 0
-0.043607 0.112897 0
-0.086751 0.149419 0
-0.125071 0.179275 0
-0.158589 0.202429 0
-0.187350 0.217615 0
-0.211540 0.224944 0
-0.231444 0.225192 0
-0.247498 0.219487 0
-0.260204 0.209077 0
-0.270098 0.195155 0
-0.277687 0.178771 0
-0.283400 0.160793 0
-0.287583 0.141902 0
-0.290512 0.122622 0
-0.292409 0.103328 0
-0.293451 0.084268 0
-0.293786 0.065573 0
-0.293530 0.047271 0
-0.292768 0.029307 0
-0.291558 0.011562 0
-0.289925 -0.006132 0
-0.287863 -0.023974 0
-0.285312 -0.042211 0
-0.282198 -0.061079 0
-0.278423 -0.080761 0
-0.273878 -0.101374 0
-0.268448 -0.122941 0
-0.262020 -0.145370 0
-0.254485 -0.168417 0
-0.245730 -0.191659 0
-0.235621 -0.214436 0
-0.223960 -0.235781 0
-0.210403 -0.254286 0
-0.194345 -0.267878 0
-0.174778 -0.273401 0
-0.150191 -0.265893 0
-0.118786 -0.237410 0
-0.079572 -0.175419 0
-0.035705 -0.062943 0
0.000000 0.004126 0
0.000000 0.067749 0
-0.041284 0.155621 0
-0.082699 0.189582 0
-0.119193 0.214414 0
-0.150603 0.232534 0
-0.176995 0.242858 0
-0.198674 0.245664 0
-0.216088 0.241851 0
-0.229789 0.232622 0
-0.240342 0.219241 0
-0.248287 0.202866 0
-0.254095 0.184478 0
-0.258160 0.164867 0
-0.260816 0.144651 0
-0.262343 0.124299 0
-0.262980 0.104147 0
-0.262933 0.084405 0
-0.262375 0.065173 0
-0.261447 0.046449 0
-0.260259 0.028145 0
-0.258884 0.010107 0
-0.257355 -0.007866 0
-0.255669 -0.026021 0
-0.253762 -0.044640 0
-0.251549 -0.063982 0
-0.248920 -0.084249 0
-0.245747 -0.105568 0
-0.241896 -0.127965 0
-0.237232 -0.151345 0
-0.231625 -0.175462 0
-0.224945 -0.199901 0
-0.217052 -0.224039 0
-0.207763 -0.246996 0
-0.196793 -0.267542 0
-0.183658 -0.283909 0
-0.167529 -0.293384 0
-0.147064 -0.291449 0
-0.120373 -0.270134 0
-0.085559 -0.215333 0
-0.042710 -0.105298 0
0.000000 -0.016641 0
0.000000 0.087636 0
-0.037844 0.195596 0
-0.076366 0.227327 0
-0.110193 0.247180 0
-0.139045 0.260231 0
-0.162973 0.265685 0
-0.182315 0.264038 0
-0.197569 0.256308 0
-0.209310 0.243741 0
-0.218100 0.227575 0
-0.224449 0.208907 0
-0.228796 0.188645 0
-0.231513 0.167514 0
-0.232924 0.146085 0
-0.233317 0.124786 0
-0.232944 0.103918 0
-0.232030 0.083663 0
-0.230772 0.064087 0
-0.229333 0.045155 0
-0.227841 0.026744 0
-0.226384 0.008658 0
-0.225001 -0.009346 0
-0.223688 -0.027568 0
-0.222375 -0.046331 0
-0.220967 -0.065921 0
-0.219339 -0.086563 0
-0.217346 -0.108397 0
-0.214832 -0.131456 0
-0.211641 -0.155641 0
-0.207623 -0.180704 0
-0.202631 -0.206231 0
-0.196513 -0.231618 0
-0.189095 -0.256040 0
-0.180137 -0.278391 0
-0.169262 -0.297142 0
-0.155825 -0.309995 0
-0.138678 -0.313049 0
-0.115903 -0.298916 0
-0.084858 -0.253083 0
-0.043781 -0.148501 0
0.000000 -0.038584 0
0.000000 0.105594 0
-0.033758 0.231987 0
-0.068761 0.261931 0
-0.099454 0.277093 0
-0.125493 0.285314 0
-0.146911 0.286128 0
-0.164032 0.280261 0
-0.177340 0.268846 0
-0.187380 0.253153 0
-0.194673 0.234381 0
-0.199686 0.213562 0
-0.202823 0.191542 0
-0.204437 0.168996 0
-0.204845 0.146455 0
-0.204333 0.124319 0
-0.203166 0.102860 0
-0.201582 0.082233 0
-0.199793 0.062476 0
-0.197983 0.043518 0
-0.196293 0.025196 0
-0.194821 0.007267 0
-0.193613 -0.010561 0
-0.192655 -0.028648 0
-0.191874 -0.047361 0
-0.191164 -0.067018 0
-0.190385 -0.087871 0
-0.189377 -0.110075 0
-0.187967 -0.133669 0
-0.185983 -0.158553 0
-0.183258 -0.184473 0
-0.179633 -0.211011 0
-0.174948 -0.237575 0
-0.169030 -0.263373 0
-0.161665 -0.287375 0
-0.152554 -0.308221 0
-0.141204 -0.323968 0
-0.126698 -0.331371 0
-0.107301 -0.323954 0
-0.080152 -0.287456 0
-0.042485 -0.190156 0
0.000000 -0.060422 0
0.000000 0.121394 0
-0.029344 0.264357 0
-0.060530 0.293023 0
-0.087872 0.303912 0
-0.110988 0.307687 0
-0.129898 0.304224 0
-0.144891 0.294468 0
-0.156406 0.279656 0
-0.164927 0.261073 0
-0.170919 0.239881 0
-0.174800 0.217057 0
-0.176936 0.193395 0
-0.177660 0.169536 0
-0.177276 0.145981 0
-0.176068 0.123107 0
-0.174302 0.101166 0
-0.172226 0.080290 0
-0.170065 0.060488 0
-0.168011 0.041655 0
-0.166220 0.023583 0
-0.164793 0.005978 0
-0.163775 -0.011512 0
-0.163146 -0.029306 0
-0.162823 -0.047822 0
-0.162692 -0.067410 0
-0.162601 -0.088350 0
-0.162378 -0.110815 0
-0.161840 -0.134850 0
-0.160806 -0.160350 0
-0.159103 -0.187054 0
-0.156566 -0.214541 0
-0.153035 -0.242221 0
-0.148339 -0.269323 0
-0.142282 -0.294867 0
-0.134611 -0.317603 0
-0.124948 -0.335851 0
-0.112605 -0.346952 0
-0.096166 -0.345462 0
-0.072919 -0.317899 0
-0.039488 -0.228653 0
0.000000 -0.081069 0
0.000000 0.134938 0
-0.024806 0.292517 0
-0.052075 0.320459 0
-0.076007 0.327551 0
-0.096192 0.327340 0
-0.112637 0.320031 0
-0.125592 0.306768 0
-0.135434 0.288881 0
-0.142579 0.267666 0
-0.147429 0.244254 0
-0.150350 0.219579 0
-0.151671 0.194403 0
-0.151698 0.169336 0
-0.150718 0.144863 0
-0.149007 0.121345 0
-0.146829 0.099018 0
-0.144433 0.077996 0
-0.142049 0.058261 0
-0.139877 0.039674 0
-0.138074 0.021978 0
-0.136743 0.004823 0
-0.135923 -0.012209 0
-0.135583 -0.029600 0
-0.135635 -0.047815 0
-0.135952 -0.067241 0
-0.136377 -0.088185 0
-0.136734 -0.110836 0
-0.136837 -0.135241 0
-0.136505 -0.161290 0
-0.135567 -0.188713 0
-0.133867 -0.217079 0
-0.131252 -0.245802 0
-0.127563 -0.274125 0
-0.122617 -0.301103 0
-0.116195 -0.325555 0
-0.108001 -0.345974 0
-0.097542 -0.360152 0
-0.083761 -0.363641 0
-0.064316 -0.344135 0
-0.035537 -0.263075 0
0.000000 -0.099909 0
0.000000 0.146201 0
-0.020264 0.316432 0
-0.043631 0.344224 0
-0.064191 0.348028 0
-0.081498 0.344317 0
-0.095555 0.333625 0
-0.106565 0.317264 0
-0.114843 0.296643 0
-0.120737 0.273069 0
-0.124586 0.247652 0
-0.126703 0.221299 0
-0.127379 0.194744 0
-0.126890 0.168583 0
-0.125502 0.143291 0
-0.123477 0.119218 0
-0.121068 0.096592 0
-0.118521 0.075510 0
-0.116062 0.055931 0
-0.113889 0.037679 0
-0.112156 0.020448 0
-0.110962 0.003827 0
-0.110338 -0.012672 0
-0.110237 -0.029595 0
-0.110566 -0.047454 0
-0.111192 -0.066667 0
-0.111956 -0.087567 0
-0.112683 -0.110356 0
-0.113197 -0.135080 0
-0.113325 -0.161620 0
-0.112915 -0.189692 0
-0.111824 -0.218856 0
-0.109918 -0.248525 0
-0.107058 -0.277958 0
-0.103082 -0.306234 0
-0.097800 -0.332219 0
-0.090977 -0.354504 0
-0.082266 -0.371192 0
-0.070940 -0.378687 0
-0.055128 -0.366123 0
-0.031113 -0.292970 0
0.000000 -0.116606 0
0.000000 0.155201 0
-0.015771 0.336148 0
-0.035317 0.364387 0
-0.052597 0.365419 0
-0.067118 0.358703 0
-0.078879 0.345097 0
-0.088043 0.326056 0
-0.094863 0.303053 0
-0.099623 0.277409 0
-0.102601 0.250220 0
-0.104061 0.222373 0
-0.104253 0.194590 0
-0.103422 0.167459 0
-0.101808 0.141449 0
-0.099652 0.116910 0
-0.097193 0.094063 0
-0.094662 0.072990 0
-0.092273 0.053629 0
-0.090211 0.035768 0
-0.088620 0.019051 0
-0.087591 0.003004 0
-0.087145 -0.012934 0
-0.087221 -0.029371 0
-0.087719 -0.046861 0
-0.088505 -0.065851 0
-0.089423 -0.086693 0
-0.090313 -0.109595 0
-0.091013 -0.134599 0
-0.091376 -0.161572 0
-0.091273 -0.190215 0
-0.090588 -0.220076 0
-0.089213 -0.250568 0
-0.087036 -0.280962 0
-0.083924 -0.310360 0
-0.079718 -0.337661 0
-0.074233 -0.361508 0
-0.067226 -0.380188 0
-0.058232 -0.390778 0
-0.045857 -0.383962 0
-0.026534 -0.318203 0
0.000000 -0.131022 0
0.000000 0.161972 0
-0.011348 0.351748 0
-0.027173 0.381050 0
-0.041288 0.379830 0
-0.053131 0.370600 0
-0.062699 0.354550 0
-0.070117 0.333248 0
-0.075582 0.308223 0
-0.079319 0.280807 0
-0.081550 0.252091 0
-0.082490 0.222951 0
-0.082351 0.194104 0
-0.081343 0.166138 0
-0.079676 0.139520 0
-0.077568 0.114603 0
-0.075234 0.091602 0
-0.072881 0.070590 0
-0.070699 0.051481 0
-0.068852 0.034027 0
-0.067463 0.017829 0
-0.066611 0.002352 0
-0.066310 -0.013042 0
-0.066487 -0.029020 0
-0.067037 -0.046170 0
-0.067826 -0.064963 0
-0.068716 -0.085759 0
-0.069565 -0.108766 0
-0.070242 -0.134016 0
-0.070633 -0.161360 0
-0.070643 -0.190480 0
-0.070190 -0.220915 0
-0.069199 -0.252077 0
-0.067587 -0.283248 0
-0.065257 -0.313552 0
-0.062089 -0.341910 0
-0.057937 -0.366997 0
-0.052638 -0.387192 0
-0.045910 -0.400057 0
-0.036785 -0.397821 0
-0.021987 -0.338826 0
0.000000 -0.143140 0
0.000000 0.166549 0
-0.006989 0.363321 0
-0.019190 0.394326 0
-0.030253 0.391376 0
-0.039527 0.380115 0
-0.047003 0.362083 0
-0.052772 0.338939 0
-0.056980 0.312255 0
-0.059797 0.283377 0
-0.061394 0.253391 0
-0.061942 0.223174 0
-0.061611 0.193442 0
-0.060577 0.164784 0
-0.059019 0.137675 0
-0.057124 0.112467 0
-0.055074 0.089375 0
-0.053048 0.068456 0
-0.051200 0.049600 0
-0.049656 0.032531 0
-0.048515 0.016810 0
-0.047839 0.001851 0
-0.047636 -0.013057 0
-0.047827 -0.028645 0
-0.048301 -0.045522 0
-0.048939 -0.064172 0
-0.049622 -0.084955 0
-0.050244 -0.108069 0
-0.050712 -0.133530 0
-0.050954 -0.161171 0
-0.050917 -0.190657 0
-0.050557 -0.221520 0
-0.049834 -0.253171 0
-0.048701 -0.284903 0
-0.047097 -0.315858 0
-0.044940 -0.344981 0
-0.042132 -0.370959 0
-0.038563 -0.392216 0
-0.034073 -0.406631 0
-0.028040 -0.407885 0
-0.017564 -0.354988 0
0.000000 -0.153009 0
0.000000 0.168961 0
-0.002704 0.370938 0
-0.011320 0.404313 0
-0.019430 0.400167 0
-0.026233 0.387350 0
-0.031709 0.367794 0
-0.035917 0.343225 0
-0.038956 0.315248 0
-0.040944 0.285221 0
-0.042008 0.254236 0
-0.042272 0.223169 0
-0.041871 0.192740 0
-0.040941 0.163546 0
-0.039629 0.136067 0
-0.038084 0.110658 0
-0.036455 0.087527 0
-0.034877 0.066715 0
-0.033463 0.048089 0
-0.032296 0.031343 0
-0.031438 0.016011 0
-0.030925 0.001472 0
-0.030763 -0.013054 0
-0.030872 -0.028355 0
-0.031142 -0.045058 0
-0.031479 -0.063641 0
-0.031799 -0.084454 0
-0.032035 -0.107677 0
-0.032144 -0.133306 0
-0.032102 -0.161155 0
-0.031899 -0.190877 0
-0.031534 -0.221999 0
-0.031000 -0.253934 0
-0.030289 -0.285985 0
-0.029376 -0.317312 0
-0.028222 -0.346874 0
-0.026771 -0.373375 0
-0.024960 -0.395252 0
-0.022707 -0.410579 0
-0.019643 -0.414330 0
-0.013294 -0.366866 0
0.000000 -0.160704 0
0.000000 0.169253 0
0.001451 0.374640 0
-0.003470 0.411052 0
-0.008710 0.406290 0
-0.013136 0.392394 0
-0.016689 0.371767 0
-0.019408 0.346186 0
-0.021350 0.317283 0
-0.022586 0.286428 0
-0.023195 0.254719 0
-0.023264 0.223038 0
-0.022885 0.192111 0
-0.022159 0.162542 0
-0.021194 0.134818 0
-0.020102 0.109293 0
-0.018987 0.086168 0
-0.017941 0.065464 0
-0.017028 0.047020 0
-0.016283 0.030506 0
-0.015724 0.015439 0
-0.015359 0.001177 0
-0.015179 -0.013111 0
-0.015105 -0.028266 0
-0.015049 -0.044914 0
-0.014958 -0.063515 0
-0.014789 -0.084399 0
-0.014525 -0.107724 0
-0.014176 -0.133464 0
-0.013765 -0.161415 0
-0.013330 -0.191225 0
-0.012905 -0.222419 0
-0.012522 -0.254416 0
-0.012208 -0.286527 0
-0.011975 -0.317925 0
-0.011827 -0.347586 0
-0.011752 -0.374221 0
-0.011729 -0.396280 0
-0.011728 -0.411948 0
-0.011548 -0.417298 0
-0.009165 -0.374631 0
0.000000 -0.166303 0
0.000000 0.167511 0
0.005505 0.374408 0
0.004411 0.414474 0
0.002018 0.409833 0
-0.000084 0.395330 0
-0.001773 0.374066 0
-0.003060 0.347886 0
-0.003961 0.318426 0
-0.004499 0.287066 0
-0.004711 0.254914 0
-0.004641 0.222858 0
-0.004344 0.191635 0
-0.003883 0.161855 0
-0.003325 0.134009 0
-0.002741 0.108450 0
-0.002191 0.085366 0
-0.001716 0.064756 0
-0.001330 0.046431 0
-0.001022 0.030039 0
-0.000762 0.015087 0
-0.000513 0.000927 0
-0.000231 -0.013308 0
0.000135 -0.028485 0
0.000611 -0.045205 0
0.001216 -0.063902 0
0.001944 -0.084886 0
0.002758 -0.108290 0
0.003602 -0.134066 0
0.004404 -0.162001 0
0.005086 -0.191738 0
0.005577 -0.222806 0
0.005807 -0.254631 0
0.005718 -0.286532 0
0.005257 -0.317692 0
0.004381 -0.347098 0
0.003058 -0.373473 0
0.001266 -0.395276 0
-0.001007 -0.410761 0
-0.003665 -0.416893 0
-0.005131 -0.378414 0
0.000000 -0.169869 0
0.000000 0.163748 0
0.009576 0.370230 0
0.012378 0.414539 0
0.012862 0.410785 0
0.013067 0.396185 0
0.013205 0.374743 0
0.013315 0.348374 0
0.013424 0.318722 0
0.013554 0.287179 0
0.013713 0.254861 0
0.013897 0.222671 0
0.014090 0.191352 0
0.014269 0.161523 0
0.014405 0.133676 0
0.014475 0.108159 0
0.014468 0.085143 0
0.014393 0.064603 0
0.014285 0.046326 0
0.014202 0.029937 0
0.014217 0.014929 0
0.014411 0.000646 0
0.014862 -0.013758 0
0.015573 -0.029107 0
0.016509 -0.045995 0
0.017649 -0.064849 0
0.018937 -0.085942 0
0.020289 -0.109383 0
0.021604 -0.135109 0
0.022767 -0.162899 0
0.023664 -0.192399 0
0.024186 -0.223140 0
0.024230 -0.254557 0
0.023701 -0.285977 0
0.022509 -0.316588 0
0.020569 -0.345386 0
0.017806 -0.371106 0
0.014158 -0.392215 0
0.009583 -0.407017 0
0.004120 -0.413173 0
-0.001119 -0.378296 0
0.000000 -0.171435 0
0.000000 0.157934 0
0.013739 0.362030 0
0.020549 0.411188 0
0.023957 0.409144 0
0.026443 0.394986 0
0.028386 0.373818 0
0.029876 0.347667 0
0.030986 0.318187 0
0.031782 0.286777 0
0.032318 0.254571 0
0.032629 0.222481 0
0.032739 0.191264 0
0.032665 0.161540 0
0.032422 0.133802 0
0.032035 0.108387 0
0.031544 0.085449 0
0.031010 0.064938 0
0.030512 0.046622 0
0.030147 0.030107 0
0.030021 0.014879 0
0.030233 0.000282 0
0.030868 -0.014471 0
0.031902 -0.030132 0
0.033273 -0.047281 0
0.034904 -0.066330 0
0.036696 -0.087527 0
0.038520 -0.110957 0
0.040235 -0.136543 0
0.041688 -0.164061 0
0.042729 -0.193157 0
0.043215 -0.223372 0
0.043008 -0.254146 0
0.041975 -0.284810 0
0.039990 -0.314560 0
0.036926 -0.342396 0
0.032661 -0.367061 0