# vtk DataFile Version 2.0
generated by CFD-lab course output (written by Tobias Neckel) 
ASCII

DATASET STRUCTURED_GRID
DIMENSIONS  41 41 1 
POINTS 1681 float

0.150000 0.150000 0
0.167857 0.150000 0
0.185714 0.150000 0
0.203571 0.150000 0
0.221429 0.150000 0
0.239286 0.150000 0
0.257143 0.150000 0
0.275000 0.150000 0
0.292857 0.150000 0
0.310714 0.150000 0
0.328571 0.150000 0
0.346429 0.150000 0
0.364286 0.150000 0
0.382143 0.150000 0
0.400000 0.150000 0
0.417857 0.150000 0
0.435714 0.150000 0
0.453571 0.150000 0
0.471429 0.150000 0
0.489286 0.150000 0
0.507143 0.150000 0
0.525000 0.150000 0
0.542857 0.150000 0
0.560714 0.150000 0
0.578571 0.150000 0
0.596429 0.150000 0
0.614286 0.150000 0
0.632143 0.150000 0
0.650000 0.150000 0
0.667857 0.150000 0
0.685714 0.150000 0
0.703571 0.150000 0
0.721429 0.150000 0
0.739286 0.150000 0
0.757143 0.150000 0
0.775000 0.150000 0
0.792857 0.150000 0
0.810714 0.150000 0
0.828571 0.150000 0
0.846429 0.150000 0
0.864286 0.150000 0
0.150000 0.167857 0
0.167857 0.167857 0
0.185714 0.167857 0
0.203571 0.167857 0
0.221429 0.167857 0
0.239286 0.167857 0
0.257143 0.167857 0
0.275000 0.167857 0
0.292857 0.167857 0
0.310714 0.167857 0
0.328571 0.167857 0
0.346429 0.167857 0
0.364286 0.167857 0
0.382143 0.167857 0
0.400000 0.167857 0
0.417857 0.167857 0
0.435714 0.167857 0
0.453571 0.167857 0
0.471429 0.167857 0
0.489286 0.167857 0
0.507143 0.167857 0
0.525000 0.167857 0
0.542857 0.167857 0
0.560714 0.167857 0
0.578571 0.167857 0
0.596429 0.167857 0
0.614286 0.167857 0
0.632143 0.167857 0
0.650000 0.167857 0
0.667857 0.167857 0
0.685714 0.167857 0
0.703571 0.167857 0
0.721429 0.167857 0
0.739286 0.167857 0
0.757143 0.167857 0
0.775000 0.167857 0
0.792857 0.167857 0
0.810714 0.167857 0
0.828571 0.167857 0
0.846429 0.167857 0
0.864286 0.167857 0
0.150000 0.185714 0
0.167857 0.185714 0
0.185714 0.185714 0
0.203571 0.185714 0
0.221429 0.185714 0
0.239286 0.185714 0
0.257143 0.185714 0
0.275000 0.185714 0
0.292857 0.185714 0
0.310714 0.185714 0
0.328571 0.185714 0
0.346429 0.185714 0
0.364286 0.185714 0
0.382143 0.185714 0
0.400000 0.185714 0
0.417857 0.185714 0
0.435714 0.185714 0
0.453571 0.185714 0
0.471429 0.185714 0
0.489286 0.185714 0
0.507143 0.185714 0
0.525000 0.185714 0
0.542857 0.185714 0
0.560714 0.185714 0
0.578571 0.185714 0
0.596429 0.185714 0
0.614286 0.185714 0
0.632143 0.185714 0
0.650000 0.185714 0
0.667857 0.185714 0
0.685714 0.185714 0
0.703571 0.185714 0
0.721429 0.185714 0
0.739286 0.185714 0
0.757143 0.185714 0
0.775000 0.185714 0
0.792857 0.185714 0
0.810714 0.185714 0
0.828571 0.185714 0
0.846429 0.185714 0
0.864286 0.185714 0
0.150000 0.203571 0
0.167857 0.203571 0
0.185714 0.203571 0
0.203571 0.203571 0
0.221429 0.203571 0
0.239286 0.203571 0
0.257143 0.203571 0
0.275000 0.203571 0
0.292857 0.203571 0
0.310714 0.203571 0
0.328571 0.203571 0
0.346429 0.203571 0
0.364286 0.203571 0
0.382143 0.203571 0
0.400000 0.203571 0
0.417857 0.203571 0
0.435714 0.203571 0
0.453571 0.203571 0
0.471429 0.203571 0
0.489286 0.203571 0
0.507143 0.203571 0
0.525000 0.203571 0
0.542857 0.203571 0
0.560714 0.203571 0
0.578571 0.203571 0
0.596429 0.203571 0
0.614286 0.203571 0
0.632143 0.203571 0
0.650000 0.203571 0
0.667857 0.203571 0
0.685714 0.203571 0
0.703571 0.203571 0
0.721429 0.203571 0
0.739286 0.203571 0
0.757143 0.203571 0
0.775000 0.203571 0
0.792857 0.203571 0
0.810714 0.203571 0
0.828571 0.203571 0
0.846429 0.203571 0
0.864286 0.203571 0
0.150000 0.221429 0
0.167857 0.221429 0
0.185714 0.221429 0
0.203571 0.221429 0
0.221429 0.221429 0
0.239286 0.221429 0
0.257143 0.221429 0
0.275000 0.221429 0
0.292857 0.221429 0
0.310714 0.221429 0
0.328571 0.221429 0
0.346429 0.221429 0
0.364286 0.221429 0
0.382143 0.221429 0
0.400000 0.221429 0
0.417857 0.221429 0
0.435714 0.221429 0
0.453571 0.221429 0
0.471429 0.221429 0
0.489286 0.221429 0
0.507143 0.221429 0
0.525000 0.221429 0
0.542857 0.221429 0
0.560714 0.221429 0
0.578571 0.221429 0
0.596429 0.221429 0
0.614286 0.221429 0
0.632143 0.221429 0
0.650000 0.221429 0
0.667857 0.221429 0
0.685714 0.221429 0
0.703571 0.221429 0
0.721429 0.221429 0
0.739286 0.221429 0
0.757143 0.221429 0
0.775000 0.221429 0
0.792857 0.221429 0
0.810714 0.221429 0
0.828571 0.221429 0
0.846429 0.221429 0
0.864286 0.221429 0
0.150000 0.239286 0
0.167857 0.239286 0
0.185714 0.239286 0
0.203571 0.239286 0
0.221429 0.239286 0
0.239286 0.239286 0
0.257143 0.239286 0
0.275000 0.239286 0
0.292857 0.239286 0
0.310714 0.239286 0
0.328571 0.239286 0
0.346429 0.239286 0
0.364286 0.239286 0
0.382143 0.239286 0
0.400000 0.239286 0
0.417857 0.239286 0
0.435714 0.239286 0
0.453571 0.239286 0
0.471429 0.239286 0
0.489286 0.239286 0
0.507143 0.239286 0
0.525000 0.239286 0
0.542857 0.239286 0
0.560714 0.239286 0
0.578571 0.239286 0
0.596429 0.239286 0
0.614286 0.239286 0
0.632143 0.239286 0
0.650000 0.239286 0
0.667857 0.239286 0
0.685714 0.239286 0
0.703571 0.239286 0
0.721429 0.239286 0
0.739286 0.239286 0
0.757143 0.239286 0
0.775000 0.239286 0
0.792857 0.239286 0
0.810714 0.239286 0
0.828571 0.239286 0
0.846429 0.239286 0
0.864286 0.239286 0
0.150000 0.257143 0
0.167857 0.257143 0
0.185714 0.257143 0
0.203571 0.257143 0
0.221429 0.257143 0
0.239286 0.257143 0
0.257143 0.257143 0
0.275000 0.257143 0
0.292857 0.257143 0
0.310714 0.257143 0
0.328571 0.257143 0
0.346429 0.257143 0
0.364286 0.257143 0
0.382143 0.257143 0
0.400000 0.257143 0
0.417857 0.257143 0
0.435714 0.257143 0
0.453571 0.257143 0
0.471429 0.257143 0
0.489286 0.257143 0
0.507143 0.257143 0
0.525000 0.257143 0
0.542857 0.257143 0
0.560714 0.257143 0
0.578571 0.257143 0
0.596429 0.257143 0
0.614286 0.257143 0
0.632143 0.257143 0
0.650000 0.257143 0
0.667857 0.257143 0
0.685714 0.257143 0
0.703571 0.257143 0
0.721429 0.257143 0
0.739286 0.257143 0
0.757143 0.257143 0
0.775000 0.257143 0
0.792857 0.257143 0
0.810714 0.257143 0
0.828571 0.257143 0
0.846429 0.257143 0
0.864286 0.257143 0
0.150000 0.275000 0
0.167857 0.275000 0
0.185714 0.275000 0
0.203571 0.275000 0
0.221429 0.275000 0
0.239286 0.275000 0
0.257143 0.275000 0
0.275000 0.275000 0
0.292857 0.275000 0
0.310714 0.275000 0
0.328571 0.275000 0
0.346429 0.275000 0
0.364286 0.275000 0
0.382143 0.275000 0
0.400000 0.275000 0
0.417857 0.275000 0
0.435714 0.275000 0
0.453571 0.275000 0
0.471429 0.275000 0
0.489286 0.275000 0
0.507143 0.275000 0
0.525000 0.275000 0
0.542857 0.275000 0
0.560714 0.275000 0
0.578571 0.275000 0
0.596429 0.275000 0
0.614286 0.275000 0
0.632143 0.275000 0
0.650000 0.275000 0
0.667857 0.275000 0
0.685714 0.275000 0
0.703571 0.275000 0
0.721429 0.275000 0
0.739286 0.275000 0
0.757143 0.275000 0
0.775000 0.275000 0
0.792857 0.275000 0
0.810714 0.275000 0
0.828571 0.275000 0
0.846429 0.275000 0
0.864286 0.275000 0
0.150000 0.292857 0
0.167857 0.292857 0
0.185714 0.292857 0
0.203571 0.292857 0
0.221429 0.292857 0
0.239286 0.292857 0
0.257143 0.292857 0
0.275000 0.292857 0
0.292857 0.292857 0
0.310714 0.292857 0
0.328571 0.292857 0
0.346429 0.292857 0
0.364286 0.292857 0
0.382143 0.292857 0
0.400000 0.292857 0
0.417857 0.292857 0
0.435714 0.292857 0
0.453571 0.292857 0
0.471429 0.292857 0
0.489286 0.292857 0
0.507143 0.292857 0
0.525000 0.292857 0
0.542857 0.292857 0
0.560714 0.292857 0
0.578571 0.292857 0
0.596429 0.292857 0
0.614286 0.292857 0
0.632143 0.292857 0
0.650000 0.292857 0
0.667857 0.292857 0
0.685714 0.292857 0
0.703571 0.292857 0
0.721429 0.292857 0
0.739286 0.292857 0
0.757143 0.292857 0
0.775000 0.292857 0
0.792857 0.292857 0
0.810714 0.292857 0
0.828571 0.292857 0
0.846429 0.292857 0
0.864286 0.292857 0
0.150000 0.310714 0
0.167857 0.310714 0
0.185714 0.310714 0
0.203571 0.310714 0
0.221429 0.310714 0
0.239286 0.310714 0
0.257143 0.310714 0
0.275000 0.310714 0
0.292857 0.310714 0
0.310714 0.310714 0
0.328571 0.310714 0
0.346429 0.310714 0
0.364286 0.310714 0
0.382143 0.310714 0
0.400000 0.310714 0
0.417857 0.310714 0
0.435714 0.310714 0
0.453571 0.310714 0
0.471429 0.310714 0
0.489286 0.310714 0
0.507143 0.310714 0
0.525000 0.310714 0
0.542857 0.310714 0
0.560714 0.310714 0
0.578571 0.310714 0
0.596429 0.310714 0
0.614286 0.310714 0
0.632143 0.310714 0
0.650000 0.310714 0
0.667857 0.310714 0
0.685714 0.310714 0
0.703571 0.310714 0
0.721429 0.310714 0
0.739286 0.310714 0
0.757143 0.310714 0
0.775000 0.310714 0
0.792857 0.310714 0
0.810714 0.310714 0
0.828571 0.310714 0
0.846429 0.310714 0
0.864286 0.310714 0
0.150000 0.328571 0
0.167857 0.328571 0
0.185714 0.328571 0
0.203571 0.328571 0
0.221429 0.328571 0
0.239286 0.328571 0
0.257143 0.328571 0
0.275000 0.328571 0
0.292857 0.328571 0
0.310714 0.328571 0
0.328571 0.328571 0
0.346429 0.328571 0
0.364286 0.328571 0
0.382143 0.328571 0
0.400000 0.328571 0
0.417857 0.328571 0
0.435714 0.328571 0
0.453571 0.328571 0
0.471429 0.328571 0
0.489286 0.328571 0
0.507143 0.328571 0
0.525000 0.328571 0
0.542857 0.328571 0
0.560714 0.328571 0
0.578571 0.328571 0
0.596429 0.328571 0
0.614286 0.328571 0
0.632143 0.328571 0
0.650000 0.328571 0
0.667857 0.328571 0
0.685714 0.328571 0
0.703571 0.328571 0
0.721429 0.328571 0
0.739286 0.328571 0
0.757143 0.328571 0
0.775000 0.328571 0
0.792857 0.328571 0
0.810714 0.328571 0
0.828571 0.328571 0
0.846429 0.328571 0
0.864286 0.328571 0
0.150000 0.346429 0
0.167857 0.346429 0
0.185714 0.346429 0
0.203571 0.346429 0
0.221429 0.346429 0
0.239286 0.346429 0
0.257143 0.346429 0
0.275000 0.346429 0
0.292857 0.346429 0
0.310714 0.346429 0
0.328571 0.346429 0
0.346429 0.346429 0
0.364286 0.346429 0
0.382143 0.346429 0
0.400000 0.346429 0
0.417857 0.346429 0
0.435714 0.346429 0
0.453571 0.346429 0
0.471429 0.346429 0
0.489286 0.346429 0
0.507143 0.346429 0
0.525000 0.346429 0
0.542857 0.346429 0
0.560714 0.346429 0
0.578571 0.346429 0
0.596429 0.346429 0
0.614286 0.346429 0
0.632143 0.346429 0
0.650000 0.346429 0
0.667857 0.346429 0
0.685714 0.346429 0
0.703571 0.346429 0
0.721429 0.346429 0
0.739286 0.346429 0
0.757143 0.346429 0
0.775000 0.346429 0
0.792857 0.346429 0
0.810714 0.346429 0
0.828571 0.346429 0
0.846429 0.346429 0
[...]
POINT_DATA 1681 

VECTORS velocity float
0.000000 0.000000 0
0.005793 0.000000 0
0.011999 0.000000 0
0.014474 0.000000 0
0.014492 0.000000 0
0.014154 0.000000 0
0.012065 0.000000 0
0.016542 0.000000 0
0.021595 0.000000 0
0.011842 0.000000 0
-0.005723 0.000000 0
-0.025527 0.000000 0
-0.045806 0.000000 0
-0.065490 0.000000 0
-0.083853 0.000000 0
-0.100466 0.000000 0
-0.115171 0.000000 0
-0.127830 0.000000 0
-0.138406 0.000000 0
-0.146894 0.000000 0
-0.153310 0.000000 0
-0.157673 0.000000 0
-0.159983 0.000000 0
-0.160260 0.000000 0
-0.158380 0.000000 0
-0.154217 0.000000 0
-0.147703 0.000000 0
-0.138758 0.000000 0
-0.127310 0.000000 0
-0.113309 0.000000 0
-0.096830 0.000000 0
-0.077950 0.000000 0
-0.056926 0.000000 0
-0.034241 0.000000 0
-0.010699 0.000000 0
0.012402 0.000000 0
0.027827 0.000000 0
0.030789 0.000000 0
0.023006 0.000000 0
0.010808 0.000000 0
0.000000 0.000000 0
0.000000 -0.005793 0
0.015571 -0.011999 0
0.028792 -0.008681 0
0.034260 -0.002493 0
0.034097 0.000320 0
0.034409 0.002427 0
0.025920 -0.002388 0
0.007505 -0.009531 0
-0.016482 0.004700 0
-0.047781 0.027318 0
-0.085467 0.037369 0
-0.125287 0.040083 0
-0.164668 0.039963 0
-0.201901 0.038048 0
-0.235910 0.034976 0
-0.266085 0.031318 0
-0.292161 0.027364 0
-0.314021 0.023234 0
-0.331664 0.019064 0
-0.345143 0.014905 0
-0.354527 0.010780 0
-0.359875 0.006673 0
-0.361215 0.002587 0
-0.358528 -0.001604 0
-0.351750 -0.006043 0
-0.340795 -0.010676 0
-0.325526 -0.015459 0
-0.305794 -0.020393 0
-0.281462 -0.025449 0
-0.252442 -0.030480 0
-0.218772 -0.035359 0
-0.180636 -0.039904 0
-0.138538 -0.043709 0
-0.093501 -0.046227 0
-0.047421 -0.046644 0
-0.003709 -0.038526 0
0.031574 -0.018387 0
0.047984 0.004821 0
0.037140 0.019981 0
0.017393 0.023006 0
0.000000 0.010808 0
0.000000 -0.015571 0
0.018702 -0.028792 0
0.029934 -0.018689 0
0.033993 -0.005305 0
0.023279 -0.000149 0
0.002747 0.008177 0
-0.025584 0.026904 0
-0.070290 0.042402 0
-0.122171 0.055286 0
-0.164488 0.068985 0
-0.202542 0.077506 0
-0.238706 0.079202 0
-0.272262 0.076615 0
-0.302520 0.071241 0
-0.329117 0.064183 0
-0.351894 0.056252 0
-0.370769 0.047936 0
-0.385831 0.039503 0
-0.397177 0.031122 0
-0.404920 0.022863 0
-0.409148 0.014732 0
-0.409922 0.006688 0
-0.407264 -0.001347 0
-0.401112 -0.009465 0
-0.391516 -0.017733 0
-0.378451 -0.026224 0
-0.361789 -0.035001 0
-0.341395 -0.044064 0
-0.317139 -0.053353 0
-0.288937 -0.062690 0
-0.256723 -0.071805 0
-0.220674 -0.080233 0
-0.181221 -0.087136 0
-0.139296 -0.091117 0
-0.096683 -0.089791 0
-0.056525 -0.078996 0
-0.018751 -0.051693 0
0.010924 -0.005566 0
0.016956 0.030591 0
0.007630 0.037140 0
0.000000 0.017393 0
0.000000 -0.024495 0
0.011874 -0.041933 0
0.011585 -0.023972 0
-0.004466 0.004162 0
-0.030839 0.031566 0
-0.071371 0.051290 0
-0.113957 0.070648 0
-0.155512 0.087056 0
-0.197291 0.098898 0
-0.235105 0.107689 0
-0.267480 0.111587 0
-0.295979 0.109802 0
-0.321027 0.103778 0
-0.342811 0.094903 0
-0.361473 0.084350 0
-0.377135 0.072970 0
-0.389882 0.061300 0
-0.399826 0.049643 0
-0.407048 0.038153 0
-0.411611 0.026876 0
-0.413542 0.015782 0
-0.412842 0.004789 0
-0.409483 -0.006223 0
-0.403420 -0.017351 0
-0.394601 -0.028704 0
-0.382908 -0.040403 0
-0.368232 -0.052514 0
-0.350446 -0.065043 0
-0.329434 -0.077908 0
-0.305105 -0.090896 0
-0.277406 -0.103622 0
-0.246431 -0.115406 0
-0.212453 -0.125087 0
-0.176041 -0.130765 0
-0.138164 -0.129414 0
-0.100192 -0.116458 0
-0.063499 -0.085836 0
-0.028290 -0.030886 0
0.000609 0.023275 0
-0.000737 0.039962 0
0.000000 0.018437 0
0.000000 -0.027444 0
-0.007029 -0.040377 0
-0.028378 -0.002350 0
-0.060938 0.037118 0
-0.094199 0.066756 0
-0.131826 0.091296 0
-0.170764 0.111045 0
-0.207532 0.125736 0
-0.241962 0.134878 0
-0.272497 0.139174 0
-0.298213 0.138380 0
-0.319967 0.132749 0
-0.338452 0.123447 0
-0.354185 0.111686 0
-0.367510 0.098507 0
-0.378634 0.084661 0
-0.387665 0.070627 0
-0.394664 0.056669 0
-0.399654 0.042907 0
-0.402635 0.029356 0
-0.403584 0.015964 0
-0.402462 0.002629 0
-0.399217 -0.010768 0
-0.393829 -0.024347 0
-0.386198 -0.038245 0
-0.376233 -0.052593 0
-0.363833 -0.067463 0
-0.348893 -0.082862 0
-0.331316 -0.098694 0
-0.311018 -0.114718 0
-0.287945 -0.130480 0
-0.262105 -0.145186 0
-0.233578 -0.157525 0
-0.202527 -0.165406 0
-0.169181 -0.165641 0
-0.133737 -0.153661 0
-0.096183 -0.123595 0
-0.056338 -0.069674 0
-0.014342 0.003037 0
-0.004528 0.037749 0
0.000000 0.016656 0
0.000000 -0.017465 0
-0.028738 -0.013554 0
-0.064949 0.029937 0
-0.098511 0.069983 0
-0.133858 0.102454 0
-0.169384 0.127855 0
-0.203825 0.146355 0
-0.235348 0.158255 0
-0.263496 0.163862 0
-0.287687 0.163940 0
-0.307776 0.159058 0
-0.324423 0.150041 0
-0.338294 0.137995 0
-0.349926 0.123962 0
-0.359668 0.108800 0
-0.367719 0.093125 0
-0.374177 0.077329 0
-0.379085 0.061632 0
-0.382455 0.046124 0
-0.384279 0.030805 0
-0.384536 0.015608 0
-0.383194 0.000422 0
-0.380212 -0.014855 0
-0.375556 -0.030370 0
-0.369137 -0.046300 0
-0.360873 -0.062769 0
-0.350674 -0.079854 0
-0.338452 -0.097560 0
-0.324123 -0.115783 0
-0.307613 -0.134267 0
-0.288857 -0.152535 0
-0.267795 -0.169773 0
-0.244348 -0.184664 0
-0.218368 -0.195162 0
-0.189558 -0.198204 0
-0.157382 -0.189457 0
-0.121027 -0.163235 0
-0.079718 -0.112726 0
-0.034180 -0.028534 0
0.003172 0.025619 0
0.000000 0.013909 0
0.000000 0.001294 0
-0.040875 0.024572 0
-0.081423 0.067423 0
-0.118999 0.106028 0
-0.154822 0.137629 0
-0.188276 0.161262 0
-0.218822 0.177009 0
-0.245732 0.185406 0
-0.268852 0.187217 0
-0.288168 0.183455 0
-0.303968 0.175116 0
-0.316853 0.163267 0
-0.327399 0.148950 0
-0.336067 0.133060 0
-0.343162 0.116300 0
-0.348876 0.099170 0
-0.353318 0.081992 0
-0.356552 0.064947 0
-0.358615 0.048101 0
-0.359520 0.031438 0
-0.359265 0.014879 0
-0.357830 -0.001696 0
-0.355191 -0.018406 0
-0.351277 -0.035421 0
-0.346021 -0.052928 0
-0.339339 -0.071056 0
-0.331148 -0.089885 0
-0.321365 -0.109413 0
-0.309916 -0.129532 0
-0.296729 -0.149984 0
-0.281731 -0.170298 0
-0.264824 -0.189695 0
-0.245839 -0.206953 0
-0.224454 -0.220196 0
-0.200086 -0.226627 0
-0.171785 -0.222191 0
-0.138249 -0.201258 0
-0.098141 -0.156522 0
-0.050770 -0.079853 0
0.005540 0.003569 0
0.000000 0.019828 0
0.000000 0.023410 0
-0.044581 0.067869 0
-0.087779 0.108061 0
-0.126902 0.143381 0
-0.162188 0.171731 0
-0.193508 0.191856 0
-0.220790 0.203811 0
-0.243958 0.208284 0
-0.263216 0.206298 0
-0.278897 0.199056 0
-0.291485 0.187743 0
-0.301540 0.173473 0
-0.309557 0.157209 0
-0.315926 0.139724 0
-0.320931 0.121609 0
-0.324770 0.103280 0
-0.327581 0.085006 0
-0.329464 0.066930 0
-0.330485 0.049092 0
-0.330682 0.031455 0
-0.330071 0.013918 0
-0.328643 -0.003652 0
-0.326373 -0.021408 0
-0.323186 -0.039540 0
-0.319012 -0.058239 0
-0.313764 -0.077642 0
-0.307354 -0.097828 0
-0.299696 -0.118791 0
-0.290709 -0.140419 0
-0.280320 -0.162452 0
-0.268449 -0.184440 0
-0.254982 -0.205665 0
-0.239725 -0.225035 0
-0.222310 -0.240915 0
-0.202071 -0.250873 0
-0.177910 -0.251294 0
-0.148253 -0.236880 0
-0.111318 -0.200205 0
-0.066143 -0.132215 0
-0.015310 -0.025151 0
0.000000 0.019449 0
0.000000 0.045875 0
-0.044126 0.112351 0
-0.087697 0.149744 0
-0.126403 0.180437 0
-0.160275 0.204235 0
-0.189352 0.219865 0
-0.213827 0.227459 0
-0.233986 0.227832 0
-0.250276 0.222157 0
-0.263210 0.211724 0
-0.273341 0.197759 0
-0.281190 0.181338 0
-0.287195 0.163336 0
-0.291712 0.144435 0
-0.295018 0.125144 0
-0.297330 0.105820 0
-0.298818 0.086687 0
-0.299612 0.067850 0
-0.299809 0.049319 0
-0.299469 0.031024 0
-0.298624 0.012839 0
-0.297274 -0.005394 0
-0.295390 -0.023863 0
-0.292901 -0.042781 0
-0.289726 -0.062350 0
-0.285767 -0.082715 0
-0.280924 -0.103953 0
-0.275098 -0.126057 0
-0.268196 -0.148907 0
-0.260130 -0.172245 0
-0.250807 -0.195636 0
-0.240110 -0.218419 0
-0.227854 -0.239625 0
-0.213706 -0.257850 0
-0.197071 -0.271027 0
-0.176942 -0.276010 0
-0.151813 -0.267851 0
-0.119880 -0.238632 0
-0.080159 -0.175861 0
-0.035878 -0.062573 0
0.000000 0.004519 0
0.000000 0.067536 0
-0.041811 0.155566 0
-0.083690 0.190338 0
-0.120598 0.215960 0
-0.152375 0.234680 0
-0.179086 0.245407 0
-0.201046 0.248445 0
-0.218711 0.244732 0
-0.232644 0.235522 0
-0.243425 0.222122 0
-0.251610 0.205722 0
-0.257681 0.187327 0
-0.262045 0.167731 0
-0.265041 0.147547 0
-0.266950 0.127227 0
-0.268010 0.107080 0
-0.268416 0.087288 0
-0.268327 0.067920 0
-0.267866 0.048949 0
-0.267116 0.030270 0
-0.266123 0.011723 0
-0.264895 -0.006886 0
-0.263403 -0.025781 0
-0.261572 -0.045204 0
-0.259309 -0.065374 0
-0.256503 -0.086444 0
-0.253038 -0.108496 0
-0.248795 -0.131519 0
-0.243661 -0.155388 0
-0.237528 -0.179842 0
-0.230287 -0.204460 0
-0.221812 -0.228618 0
-0.211931 -0.251439 0
-0.200369 -0.271698 0
-0.186649 -0.287636 0
-0.169950 -0.296551 0
-0.148935 -0.293942 0
-0.121719 -0.271859 0
-0.086411 -0.216217 0
-0.043120 -0.105310 0
0.000000 -0.016429 0
0.000000 0.087686 0
-0.038364 0.196041 0
-0.077359 0.228532 0
-0.111607 0.249121 0
-0.140830 0.262723 0
-0.165081 0.268536 0
-0.184704 0.267083 0
-0.200209 0.259430 0
-0.212183 0.246871 0
-0.221202 0.230690 0
-0.227790 0.212015 0
-0.232396 0.191774 0
-0.235402 0.170696 0
-0.237138 0.149340 0
-0.237893 0.128113 0
-0.237919 0.107286 0
-0.237434 0.087004 0
-0.236621 0.067300 0
-0.235628 0.048107 0
-0.234559 0.029281 0
-0.233476 0.010619 0
-0.232393 -0.008114 0
-0.231280 -0.027186 0
-0.230055 -0.046875 0
-0.228612 -0.067419 0
-0.226826 -0.088986 0
-0.224560 -0.111662 0
-0.221677 -0.135434 0
-0.218044 -0.160174 0
-0.213531 -0.185619 0
-0.208010 -0.211352 0
-0.201344 -0.236774 0
-0.193365 -0.261068 0
-0.183839 -0.283132 0
-0.172396 -0.301446 0
-0.158397 -0.313724 0
-0.140703 -0.316082 0
-0.117403 -0.301156 0
-0.085851 -0.254460 0
-0.044273 -0.148984 0
0.000000 -0.038602 0
0.000000 0.105900 0
-0.034261 0.232925 0
-0.069725 0.263581 0
-0.100833 0.279431 0
-0.127241 0.288154 0
-0.148982 0.289282 0
-0.166386 0.283574 0
-0.179949 0.272211 0
-0.190224 0.256515 0
-0.197745 0.237728 0
-0.202990 0.216915 0
-0.206372 0.194938 0
-0.208250 0.172473 0
-0.208947 0.150039 0
-0.208752 0.128008 0
-0.207928 0.106621 0
-0.206710 0.085990 0
-0.205303 0.066114 0
-0.203876 0.046886 0
-0.202556 0.028118 0
-0.201419 0.009557 0
-0.200485 -0.009082 0
-0.199720 -0.028119 0
-0.199035 -0.047872 0
-0.198310 -0.068602 0
-0.197403 -0.090496 0
-0.196160 -0.113645 0
-0.194426 -0.138036 0
-0.192051 -0.163534 0
-0.188890 -0.189875 0
-0.184800 -0.216646 0
-0.179631 -0.243263 0
-0.173212 -0.268944 0
-0.165332 -0.292667 0
-0.155695 -0.313078 0
-0.143813 -0.328244 0
-0.128779 -0.334936 0
-0.108866 -0.326712 0
-0.081209 -0.289347 0
-0.043022 -0.191160 0
0.000000 -0.060702 0
0.000000 0.121947 0
-0.029821 0.265767 0
-0.061446 0.295104 0
-0.089187 0.306637 0
-0.112663 0.310871 0
-0.131893 0.307681 0
-0.147172 0.298051 0
-0.158943 0.283267 0
-0.167701 0.264667 0
-0.173920 0.243456 0
-0.178022 0.220641 0
-0.180382 0.197034 0
-0.181336 0.173271 0
-0.181191 0.149842 0
-0.180232 0.127094 0
-0.178726 0.105244 0
-0.176920 0.084379 0
-0.175035 0.064466 0
-0.173261 0.045361 0
-0.171744 0.026824 0
-0.170572 0.008547 0
-0.169774 -0.009813 0
-0.169308 -0.028636 0
-0.169080 -0.048285 0
-0.168956 -0.069050 0
-0.168777 -0.091136 0
-0.168374 -0.114639 0
-0.167580 -0.139543 0
-0.166233 -0.165710 0
-0.164181 -0.192870 0
-0.161271 -0.220611 0
-0.157349 -0.248362 0
-0.152242 -0.275366 0
-0.145750 -0.300649 0
-0.137619 -0.322965 0
-0.127476 -0.340639 0
-0.114643 -0.351029 0
-0.097713 -0.348726 0
-0.073975 -0.320303 0
-0.040031 -0.230193 0
0.000000 -0.081624 0
0.000000 0.135721 0
-0.025249 0.294371 0
-0.052928 0.322947 0
-0.077237 0.330648 0
-0.097767 0.330860 0
-0.114526 0.323790 0
-0.127766 0.310623 0
-0.137868 0.292741 0
-0.145253 0.271492 0
-0.150329 0.248049 0
-0.153462 0.223378 0
-0.154986 0.198252 0
-0.155206 0.173282 0
-0.154409 0.148935 0
-0.152869 0.125544 0
-0.150849 0.103309 0
-0.148600 0.082299 0
-0.146354 0.062455 0
-0.144316 0.043595 0
-0.142646 0.025429 0
-0.141449 0.007587 0
-0.140757 -0.010346 0
-0.140527 -0.028812 0
-0.140655 -0.048224 0
-0.140996 -0.068905 0
-0.141378 -0.091078 0
-0.141623 -0.114842 0
-0.141556 -0.140176 0
-0.141012 -0.166933 0
-0.139838 -0.194837 0
-0.137884 -0.223478 0
-0.134997 -0.252292 0
-0.131009 -0.280543 0
-0.125732 -0.307290 0
-0.118941 -0.331352 0
-0.110340 -0.351220 0
-0.099446 -0.364700 0
-0.085217 -0.367380 0
-0.065317 -0.347029 0
-0.036057 -0.265135 0
0.000000 -0.100733 0
0.000000 0.147196 0
-0.020666 0.318695 0
-0.044408 0.347092 0
-0.065316 0.351476 0
-0.082950 0.348161 0
-0.097311 0.337681 0
-0.108604 0.321392 0
-0.117146 0.300754 0
-0.123286 0.277128 0
-0.127362 0.251665 0
-0.129689 0.225299 0
-0.130553 0.198777 0
-0.130226 0.172694 0
-0.128968 0.147505 0
-0.127036 0.123535 0
-0.124678 0.100975 0
-0.122141 0.079884 0
-0.119658 0.060182 0
-0.117442 0.041652 0
-0.115665 0.023957 0
-0.114445 0.006658 0
-0.113820 -0.010735 0
-0.113746 -0.028738 0
-0.114111 -0.047816 0
-0.114765 -0.068327 0
-0.115527 -0.090508 0
-0.116217 -0.114461 0
-0.116659 -0.140154 0
-0.116695 -0.167428 0
-0.116179 -0.195998 0
-0.114971 -0.225453 0
-0.112929 -0.255237 0
-0.109901 -0.284631 0
-0.105714 -0.312718 0
-0.100170 -0.338358 0
-0.093032 -0.360134 0
-0.083960 -0.376152 0
-0.072245 -0.382855 0
-0.056030 -0.369463 0
-0.031584 -0.295511 0
0.000000 -0.117681 0
0.000000 0.156387 0
-0.016128 0.338779 0
-0.036006 0.367597 0
-0.053600 0.369190 0
-0.068424 0.362854 0
-0.080477 0.349444 0
-0.089920 0.330458 0
-0.097008 0.307422 0
-0.102021 0.281708 0
-0.105235 0.254452 0
-0.106909 0.226569 0
-0.107285 0.198789 0
-0.106596 0.171698 0
-0.105073 0.145745 0
-0.102941 0.121253 0
-0.100430 0.098414 0
-0.097770 0.077279 0
-0.095186 0.057756 0
-0.092889 0.039602 0
-0.091056 0.022431 0
-0.089815 0.005741 0
-0.089213 -0.011045 0
-0.089205 -0.028521 0
-0.089678 -0.047205 0
-0.090476 -0.067490 0
-0.091423 -0.089626 0
-0.092343 -0.113711 0
-0.093073 -0.139698 0
-0.093469 -0.167413 0
-0.093400 -0.196561 0
-0.092744 -0.226728 0
-0.091377 -0.257362 0
-0.089171 -0.287757 0
-0.085976 -0.317020 0
-0.081626 -0.344035 0
-0.075928 -0.367430 0
-0.068649 -0.385486 0
-0.059339 -0.395311 0
-0.046625 -0.387690 0
-0.026939 -0.321165 0
0.000000 -0.132318 0
0.000000 0.163323 0
-0.011652 0.354701 0
-0.027763 0.384564 0
-0.042151 0.383893 0
-0.054268 0.375038 0
-0.064110 0.359177 0
-0.071801 0.337923 0
-0.077537 0.312855 0
-0.081536 0.285356 0
-0.084015 0.256553 0
-0.085182 0.227348 0
-0.085233 0.198465 0
-0.084362 0.170482 0
-0.082761 0.143849 0
-0.080623 0.118892 0
-0.078147 0.095805 0
-0.075537 0.074641 0
-0.072998 0.055300 0
-0.070727 0.037522 0
-0.068900 0.020883 0
-0.067647 0.004815 0
-0.067027 -0.011345 0
-0.066994 -0.028274 0
-0.067435 -0.046546 0
-0.068201 -0.066582 0
-0.069129 -0.088641 0
-0.070063 -0.112811 0
-0.070864 -0.139028 0
-0.071408 -0.167100 0
-0.071589 -0.196723 0
-0.071306 -0.227476 0
-0.070463 -0.258811 0
-0.068958 -0.290031 0
-0.066673 -0.320263 0
-0.063478 -0.348406 0
-0.059222 -0.373111 0
-0.053745 -0.392741 0
-0.046784 -0.404879 0
-0.037396 -0.401863 0
-0.022312 -0.342136 0
0.000000 -0.144619 0
0.000000 0.168038 0
-0.007234 0.366542 0
-0.019668 0.398097 0
-0.030959 0.395695 0
-0.040471 0.384813 0
-0.048198 0.366978 0
-0.054228 0.343885 0
-0.058706 0.317157 0
-0.061793 0.288187 0
-0.063652 0.258098 0
-0.064443 0.227786 0
-0.064317 0.197970 0
-0.063427 0.169226 0
-0.061923 0.142006 0
-0.059961 0.116640 0
-0.057701 0.093328 0
-0.055313 0.072130 0
-0.052970 0.052946 0
-0.050843 0.035503 0
-0.049093 0.019351 0
-0.047847 0.003868 0
-0.047175 -0.011699 0
-0.047028 -0.028112 0
-0.047300 -0.045998 0
-0.047857 -0.065795 0
-0.048567 -0.087764 0
-0.049307 -0.111977 0
-0.049972 -0.138353 0
-0.050471 -0.166688 0
-0.050724 -0.196663 0
-0.050659 -0.227853 0
-0.050209 -0.259711 0
-0.049302 -0.291547 0
-0.047859 -0.322500 0
-0.045786 -0.351486 0
-0.042978 -0.377162 0
-0.039329 -0.397923 0
-0.034695 -0.411660 0
-0.028479 -0.412162 0
-0.017802 -0.358561 0
0.000000 -0.154630 0
0.000000 0.170557 0
-0.002880 0.374369 0
-0.011674 0.408289 0
-0.019959 0.404696 0
-0.026957 0.392277 0
-0.032653 0.372934 0
-0.037102 0.348431 0
-0.040403 0.320420 0
-0.042664 0.290303 0
-0.044001 0.259203 0
-0.044524 0.228013 0
-0.044345 0.197449 0
-0.043571 0.168088 0
-0.042314 0.140383 0
-0.040685 0.114670 0
-0.038805 0.091157 0
-0.036799 0.069909 0
-0.034799 0.050830 0
-0.032940 0.033645 0
-0.031350 0.017887 0
-0.030140 0.002897 0
-0.029388 -0.012164 0
-0.029044 -0.028148 0
-0.029012 -0.045717 0
-0.029194 -0.065315 0
-0.029504 -0.087192 0
-0.029867 -0.111406 0
-0.030221 -0.137864 0
-0.030510 -0.166349 0
-0.030688 -0.196535 0
-0.030714 -0.227991 0
-0.030550 -0.260168 0
-0.030162 -0.292381 0
-0.029506 -0.323779 0
-0.028530 -0.353287 0
-0.027174 -0.379568 0
-0.025377 -0.401024 0
-0.023068 -0.415728 0
-0.019904 -0.418756 0
-0.013442 -0.370615 0
0.000000 -0.162421 0
0.000000 0.170918 0
0.001350 0.378216 0
-0.003689 0.415176 0
-0.009044 0.410977 0
-0.013613 0.397507 0
-0.017343 0.377123 0
-0.020275 0.351635 0
-0.022461 0.322719 0
-0.023962 0.291785 0
-0.024847 0.259958 0
-0.025182 0.228130 0
-0.025038 0.197017 0
-0.024482 0.167195 0
-0.023582 0.139120 0
-0.022408 0.113131 0
-0.021034 0.089442 0
-0.019541 0.068125 0
-0.018014 0.049088 0
-0.016541 0.032054 0
-0.015210 0.016551 0
-0.014075 0.001906 0
-0.013214 -0.012795 0
-0.012584 -0.028488 0
-0.012125 -0.045847 0
-0.011795 -0.065304 0
-0.011565 -0.087091 0
-0.011416 -0.111259 0
-0.011329 -0.137710 0
-0.011289 -0.166221 0
-0.011284 -0.196460 0
-0.011308 -0.227991 0
-0.011357 -0.260263 0
-0.011430 -0.292592 0
-0.011524 -0.324132 0
-0.011629 -0.353818 0
-0.011728 -0.380316 0
-0.011803 -0.402029 0
-0.011830 -0.417132 0
-0.011633 -0.421788 0
-0.009222 -0.378466 0
0.000000 -0.168071 0
0.000000 0.169207 0
0.005481 0.378058 0
0.004339 0.418683 0
0.001896 0.414620 0
-0.000286 0.400576 0
-0.002101 0.379597 0
-0.003559 0.353548 0
-0.004672 0.324106 0
-0.005454 0.292688 0
-0.005929 0.260423 0
-0.006122 0.228205 0
-0.006062 0.196748 0
-0.005778 0.166631 0
-0.005297 0.138309 0
-0.004648 0.112123 0
-0.003859 0.088290 0
-0.002963 0.066889 0
-0.001997 0.047830 0
-0.000994 0.030841 0
0.000016 0.015421 0
0.001012 0.000902 0
0.002022 -0.013655 0
0.003019 -0.029237 0
0.003988 -0.046506 0
0.004907 -0.065875 0
0.005747 -0.087571 0
0.006477 -0.111642 0
0.007071 -0.137990 0
0.007502 -0.166393 0
0.007746 -0.196516 0
0.007773 -0.227918 0
0.007551 -0.260045 0
0.007043 -0.292214 0
0.006216 -0.323580 0
0.005036 -0.353083 0
0.003477 -0.379395 0
0.001518 -0.400923 0
-0.000860 -0.415898 0
-0.003580 -0.421364 0
-0.005101 -0.382248 0
0.000000 -0.171643 0
0.000000 0.165437 0
0.009632 0.373877 0
0.012462 0.418761 0
0.012966 0.415603 0
0.013159 0.401504 0
0.013235 0.380396 0
0.013230 0.354205 0
0.013175 0.324613 0
0.013100 0.293042 0
0.013028 0.260626 0
0.012973 0.228263 0
0.012945 0.196673 0
0.012953 0.166430 0
0.013007 0.137990 0
0.013122 0.111692 0
0.013311 0.087757 0
0.013591 0.066263 0
0.013979 0.047119 0
0.014502 0.030041 0
0.015199 0.014545 0
0.016084 -0.000100 0
0.017239 -0.014802 0
0.018598 -0.030455 0
0.020069 -0.047736 0
0.021565 -0.067063 0
0.023004 -0.088661 0
0.024310 -0.112583 0
0.025409 -0.138735 0
0.026236 -0.166896 0
0.026722 -0.196731 0
0.026803 -0.227795 0
0.026406 -0.259532 0
0.025459 -0.291257 0
0.023887 -0.322125 0
0.021617 -0.351079 0
0.018577 -0.376797 0
0.014706 -0.397692 0
0.009961 -0.412035 0
0.004366 -0.417547 0
-0.001005 -0.382045 0
0.000000 -0.173172 0
0.000000 0.159575 0
0.013877 0.365596 0
0.020792 0.415349 0
0.024294 0.413922 0
0.026841 0.400307 0
0.028796 0.379526 0
0.030241 0.353608 0
0.031250 0.324237 0
0.031901 0.292836 0
0.032259 0.260551 0
0.032380 0.228288 0
0.032310 0.196768 0
0.032095 0.166569 0
0.031780 0.138140 0
0.031419 0.111819 0
0.031069 0.087821 0
0.030795 0.066221 0
0.030673 0.046919 0
0.030785 0.029621 0
0.031222 0.013838 0
0.032061 -0.001139 0
0.033326 -0.016169 0
0.034963 -0.032067 0
0.036841 -0.049472 0
0.038827 -0.068811 0
0.040788 -0.090316 0
0.042600 -0.114047 0
0.044145 -0.139916 0
0.045313 -0.167706 0
0.045997 -0.197083 0
0.046088 -0.227602 0
0.045478 -0.258702 0
0.044053 -0.289696 0
0.041699 -0.319738 0
0.038297 -0.347773 0
0.033733 -0.372484 0