# vtk DataFile Version 2.0
generated by CFD-lab course output (written by Tobias Neckel) 
ASCII

DATASET STRUCTURED_GRID
DIMENSIONS  41 41 1 
POINTS 1681 float

0.150000 0.150000 0
0.167857 0.150000 0
0.185714 0.150000 0
0.203571 0.150000 0
0.221429 0.150000 0
0.239286 0.150000 0
0.257143 0.150000 0
0.275000 0.150000 0
0.292857 0.150000 0
0.310714 0.150000 0
0.328571 0.150000 0
0.346429 0.150000 0
0.364286 0.150000 0
0.382143 0.150000 0
0.400000 0.150000 0
0.417857 0.150000 0
0.435714 0.150000 0
0.453571 0.150000 0
0.471429 0.150000 0
0.489286 0.150000 0
0.507143 0.150000 0
0.525000 0.150000 0
0.542857 0.150000 0
0.560714 0.150000 0
0.578571 0.150000 0
0.596429 0.150000 0
0.614286 0.150000 0
0.632143 0.150000 0
0.650000 0.150000 0
0.667857 0.150000 0
0.685714 0.150000 0
0.703571 0.150000 0
0.721429 0.150000 0
0.739286 0.150000 0
0.757143 0.150000 0
0.775000 0.150000 0
0.792857 0.150000 0
0.810714 0.150000 0
0.828571 0.150000 0
0.846429 0.150000 0
0.864286 0.150000 0
0.150000 0.167857 0
0.167857 0.167857 0
0.185714 0.167857 0
0.203571 0.167857 0
0.221429 0.167857 0
0.239286 0.167857 0
0.257143 0.167857 0
0.275000 0.167857 0
0.292857 0.167857 0
0.310714 0.167857 0
0.328571 0.167857 0
0.346429 0.167857 0
0.364286 0.167857 0
0.382143 0.167857 0
0.400000 0.167857 0
0.417857 0.167857 0
0.435714 0.167857 0
0.453571 0.167857 0
0.471429 0.167857 0
0.489286 0.167857 0
0.507143 0.167857 0
0.525000 0.167857 0
0.542857 0.167857 0
0.560714 0.167857 0
0.578571 0.167857 0
0.596429 0.167857 0
0.614286 0.167857 0
0.632143 0.167857 0
0.650000 0.167857 0
0.667857 0.167857 0
0.685714 0.167857 0
0.703571 0.167857 0
0.721429 0.167857 0
0.739286 0.167857 0
0.757143 0.167857 0
0.775000 0.167857 0
0.792857 0.167857 0
0.810714 0.167857 0
0.828571 0.167857 0
0.846429 0.167857 0
0.864286 0.167857 0
0.150000 0.185714 0
0.167857 0.185714 0
0.185714 0.185714 0
0.203571 0.185714 0
0.221429 0.185714 0
0.239286 0.185714 0
0.257143 0.185714 0
0.275000 0.185714 0
0.292857 0.185714 0
0.310714 0.185714 0
0.328571 0.185714 0
0.346429 0.185714 0
0.364286 0.185714 0
0.382143 0.185714 0
0.400000 0.185714 0
0.417857 0.185714 0
0.435714 0.185714 0
0.453571 0.185714 0
0.471429 0.185714 0
0.489286 0.185714 0
0.507143 0.185714 0
0.525000 0.185714 0
0.542857 0.185714 0
0.560714 0.185714 0
0.578571 0.185714 0
0.596429 0.185714 0
0.614286 0.185714 0
0.632143 0.185714 0
0.650000 0.185714 0
0.667857 0.185714 0
0.685714 0.185714 0
0.703571 0.185714 0
0.721429 0.185714 0
0.739286 0.185714 0
0.757143 0.185714 0
0.775000 0.185714 0
0.792857 0.185714 0
0.810714 0.185714 0
0.828571 0.185714 0
0.846429 0.185714 0
0.864286 0.185714 0
0.150000 0.203571 0
0.167857 0.203571 0
0.185714 0.203571 0
0.203571 0.203571 0
0.221429 0.203571 0
0.239286 0.203571 0
0.257143 0.203571 0
0.275000 0.203571 0
0.292857 0.203571 0
0.310714 0.203571 0
0.328571 0.203571 0
0.346429 0.203571 0
0.364286 0.203571 0
0.382143 0.203571 0
0.400000 0.203571 0
0.417857 0.203571 0
0.435714 0.203571 0
0.453571 0.203571 0
0.471429 0.203571 0
0.489286 0.203571 0
0.507143 0.203571 0
0.525000 0.203571 0
0.542857 0.203571 0
0.560714 0.203571 0
0.578571 0.203571 0
0.596429 0.203571 0
0.614286 0.203571 0
0.632143 0.203571 0
0.650000 0.203571 0
0.667857 0.203571 0
0.685714 0.203571 0
0.703571 0.203571 0
0.721429 0.203571 0
0.739286 0.203571 0
0.757143 0.203571 0
0.775000 0.203571 0
0.792857 0.203571 0
0.810714 0.203571 0
0.828571 0.203571 0
0.846429 0.203571 0
0.864286 0.203571 0
0.150000 0.221429 0
0.167857 0.221429 0
0.185714 0.221429 0
0.203571 0.221429 0
0.221429 0.221429 0
0.239286 0.221429 0
0.257143 0.221429 0
0.275000 0.221429 0
0.292857 0.221429 0
0.310714 0.221429 0
0.328571 0.221429 0
0.346429 0.221429 0
0.364286 0.221429 0
0.382143 0.221429 0
0.400000 0.221429 0
0.417857 0.221429 0
0.435714 0.221429 0
0.453571 0.221429 0
0.471429 0.221429 0
0.489286 0.221429 0
0.507143 0.221429 0
0.525000 0.221429 0
0.542857 0.221429 0
0.560714 0.221429 0
0.578571 0.221429 0
0.596429 0.221429 0
0.614286 0.221429 0
0.632143 0.221429 0
0.650000 0.221429 0
0.667857 0.221429 0
0.685714 0.221429 0
0.703571 0.221429 0
0.721429 0.221429 0
0.739286 0.221429 0
0.757143 0.221429 0
0.775000 0.221429 0
0.792857 0.221429 0
0.810714 0.221429 0
0.828571 0.221429 0
0.846429 0.221429 0
0.864286 0.221429 0
0.150000 0.239286 0
0.167857 0.239286 0
0.185714 0.239286 0
0.203571 0.239286 0
0.221429 0.239286 0
0.239286 0.239286 0
0.257143 0.239286 0
0.275000 0.239286 0
0.292857 0.239286 0
0.310714 0.239286 0
0.328571 0.239286 0
0.346429 0.239286 0
0.364286 0.239286 0
0.382143 0.239286 0
0.400000 0.239286 0
0.417857 0.239286 0
0.435714 0.239286 0
0.453571 0.239286 0
0.471429 0.239286 0
0.489286 0.239286 0
0.507143 0.239286 0
0.525000 0.239286 0
0.542857 0.239286 0
0.560714 0.239286 0
0.578571 0.239286 0
0.596429 0.239286 0
0.614286 0.239286 0
0.632143 0.239286 0
0.650000 0.239286 0
0.667857 0.239286 0
0.685714 0.239286 0
0.703571 0.239286 0
0.721429 0.239286 0
0.739286 0.239286 0
0.757143 0.239286 0
0.775000 0.239286 0
0.792857 0.239286 0
0.810714 0.239286 0
0.828571 0.239286 0
0.846429 0.239286 0
0.864286 0.239286 0
0.150000 0.257143 0
0.167857 0.257143 0
0.185714 0.257143 0
0.203571 0.257143 0
0.221429 0.257143 0
0.239286 0.257143 0
0.257143 0.257143 0
0.275000 0.257143 0
0.292857 0.257143 0
0.310714 0.257143 0
0.328571 0.257143 0
0.346429 0.257143 0
0.364286 0.257143 0
0.382143 0.257143 0
0.400000 0.257143 0
0.417857 0.257143 0
0.435714 0.257143 0
0.453571 0.257143 0
0.471429 0.257143 0
0.489286 0.257143 0
0.507143 0.257143 0
0.525000 0.257143 0
0.542857 0.257143 0
0.560714 0.257143 0
0.578571 0.257143 0
0.596429 0.257143 0
0.614286 0.257143 0
0.632143 0.257143 0
0.650000 0.257143 0
0.667857 0.257143 0
0.685714 0.257143 0
0.703571 0.257143 0
0.721429 0.257143 0
0.739286 0.257143 0
0.757143 0.257143 0
0.775000 0.257143 0
0.792857 0.257143 0
0.810714 0.257143 0
0.828571 0.257143 0
0.846429 0.257143 0
0.864286 0.257143 0
0.150000 0.275000 0
0.167857 0.275000 0
0.185714 0.275000 0
0.203571 0.275000 0
0.221429 0.275000 0
0.239286 0.275000 0
0.257143 0.275000 0
0.275000 0.275000 0
0.292857 0.275000 0
0.310714 0.275000 0
0.328571 0.275000 0
0.346429 0.275000 0
0.364286 0.275000 0
0.382143 0.275000 0
0.400000 0.275000 0
0.417857 0.275000 0
0.435714 0.275000 0
0.453571 0.275000 0
0.471429 0.275000 0
0.489286 0.275000 0
0.507143 0.275000 0
0.525000 0.275000 0
0.542857 0.275000 0
0.560714 0.275000 0
0.578571 0.275000 0
0.596429 0.275000 0
0.614286 0.275000 0
0.632143 0.275000 0
0.650000 0.275000 0
0.667857 0.275000 0
0.685714 0.275000 0
0.703571 0.275000 0
0.721429 0.275000 0
0.739286 0.275000 0
0.757143 0.275000 0
0.775000 0.275000 0
0.792857 0.275000 0
0.810714 0.275000 0
0.828571 0.275000 0
0.846429 0.275000 0
0.864286 0.275000 0
0.150000 0.292857 0
0.167857 0.292857 0
0.185714 0.292857 0
0.203571 0.292857 0
0.221429 0.292857 0
0.239286 0.292857 0
0.257143 0.292857 0
0.275000 0.292857 0
0.292857 0.292857 0
0.310714 0.292857 0
0.328571 0.292857 0
0.346429 0.292857 0
0.364286 0.292857 0
0.382143 0.292857 0
0.400000 0.292857 0
0.417857 0.292857 0
0.435714 0.292857 0
0.453571 0.292857 0
0.471429 0.292857 0
0.489286 0.292857 0
0.507143 0.292857 0
0.525000 0.292857 0
0.542857 0.292857 0
0.560714 0.292857 0
0.578571 0.292857 0
0.596429 0.292857 0
0.614286 0.292857 0
0.632143 0.292857 0
0.650000 0.292857 0
0.667857 0.292857 0
0.685714 0.292857 0
0.703571 0.292857 0
0.721429 0.292857 0
0.739286 0.292857 0
0.757143 0.292857 0
0.775000 0.292857 0
0.792857 0.292857 0
0.810714 0.292857 0
0.828571 0.292857 0
0.846429 0.292857 0
0.864286 0.292857 0
0.150000 0.310714 0
0.167857 0.310714 0
0.185714 0.310714 0
0.203571 0.310714 0
0.221429 0.310714 0
0.239286 0.310714 0
0.257143 0.310714 0
0.275000 0.310714 0
0.292857 0.310714 0
0.310714 0.310714 0
0.328571 0.310714 0
0.346429 0.310714 0
0.364286 0.310714 0
0.382143 0.310714 0
0.400000 0.310714 0
0.417857 0.310714 0
0.435714 0.310714 0
0.453571 0.310714 0
0.471429 0.310714 0
0.489286 0.310714 0
0.507143 0.310714 0
0.525000 0.310714 0
0.542857 0.310714 0
0.560714 0.310714 0
0.578571 0.310714 0
0.596429 0.310714 0
0.614286 0.310714 0
0.632143 0.310714 0
0.650000 0.310714 0
0.667857 0.310714 0
0.685714 0.310714 0
0.703571 0.310714 0
0.721429 0.310714 0
0.739286 0.310714 0
0.757143 0.310714 0
0.775000 0.310714 0
0.792857 0.310714 0
0.810714 0.310714 0
0.828571 0.310714 0
0.846429 0.310714 0
0.864286 0.310714 0
0.150000 0.328571 0
0.167857 0.328571 0
0.185714 0.328571 0
0.203571 0.328571 0
0.221429 0.328571 0
0.239286 0.328571 0
0.257143 0.328571 0
0.275000 0.328571 0
0.292857 0.328571 0
0.310714 0.328571 0
0.328571 0.328571 0
0.346429 0.328571 0
0.364286 0.328571 0
0.382143 0.328571 0
0.400000 0.328571 0
0.417857 0.328571 0
0.435714 0.328571 0
0.453571 0.328571 0
0.471429 0.328571 0
0.489286 0.328571 0
0.507143 0.328571 0
0.525000 0.328571 0
0.542857 0.328571 0
0.560714 0.328571 0
0.578571 0.328571 0
0.596429 0.328571 0
0.614286 0.328571 0
0.632143 0.328571 0
0.650000 0.328571 0
0.667857 0.328571 0
0.685714 0.328571 0
0.703571 0.328571 0
0.721429 0.328571 0
0.739286 0.328571 0
0.757143 0.328571 0
0.775000 0.328571 0
0.792857 0.328571 0
0.810714 0.328571 0
0.828571 0.328571 0
0.846429 0.328571 0
0.864286 0.328571 0
0.150000 0.346429 0
0.167857 0.346429 0
0.185714 0.346429 0
0.203571 0.346429 0
0.221429 0.346429 0
0.239286 0.346429 0
0.257143 0.346429 0
0.275000 0.346429 0
0.292857 0.346429 0
0.310714 0.346429 0
0.328571 0.346429 0
0.346429 0.346429 0
0.364286 0.346429 0
0.382143 0.346429 0
0.400000 0.346429 0
0.417857 0.346429 0
0.435714 0.346429 0
0.453571 0.346429 0
0.471429 0.346429 0
0.489286 0.346429 0
0.507143 0.346429 0
0.525000 0.346429 0
0.542857 0.346429 0
0.560714 0.346429 0
0.578571 0.346429 0
0.596429 0.346429 0
0.614286 0.346429 0
0.632143 0.346429 0
0.650000 0.346429 0
0.667857 0.346429 0
0.685714 0.346429 0
0.703571 0.346429 0
0.721429 0.346429 0
0.739286 0.346429 0
0.757143 0.346429 0
0.775000 0.346429 0
0.792857 0.346429 0
0.810714 0.346429 0
0.828571 0.346429 0
0.846429 0.346429 0
[...]
POINT_DATA 1681 

VECTORS velocity float
0.000000 0.000000 0
0.004788 0.000000 0
0.011053 0.000000 0
0.014018 0.000000 0
0.015002 0.000000 0
0.013736 0.000000 0
0.012532 0.000000 0
0.017413 0.000000 0
0.018419 0.000000 0
0.008665 0.000000 0
-0.006961 0.000000 0
-0.024318 0.000000 0
-0.042151 0.000000 0
-0.059469 0.000000 0
-0.075649 0.000000 0
-0.090321 0.000000 0
-0.103371 0.000000 0
-0.114682 0.000000 0
-0.124228 0.000000 0
-0.132009 0.000000 0
-0.138040 0.000000 0
-0.142337 0.000000 0
-0.144899 0.000000 0
-0.145750 0.000000 0
-0.144787 0.000000 0
-0.141826 0.000000 0
-0.136775 0.000000 0
-0.129522 0.000000 0
-0.119960 0.000000 0
-0.107997 0.000000 0
-0.093665 0.000000 0
-0.076978 0.000000 0
-0.058123 0.000000 0
-0.037502 0.000000 0
-0.015874 0.000000 0
0.005401 0.000000 0
0.021373 0.000000 0
0.026152 0.000000 0
0.019655 0.000000 0
0.008966 0.000000 0
0.000000 0.000000 0
0.000000 -0.004788 0
0.013148 -0.011053 0
0.026003 -0.009230 0
0.031417 -0.003949 0
0.033705 0.000282 0
0.030858 0.002470 0
0.019709 -0.003678 0
0.002052 -0.005887 0
-0.020400 0.008749 0
-0.049346 0.025381 0
-0.083134 0.032982 0
-0.118468 0.035190 0
-0.153288 0.035151 0
-0.186147 0.033498 0
-0.216141 0.030852 0
-0.242770 0.027722 0
-0.265840 0.024361 0
-0.285273 0.020857 0
-0.301093 0.017327 0
-0.313362 0.013812 0
-0.322152 0.010328 0
-0.327520 0.006859 0
-0.329488 0.003413 0
-0.328031 -0.000112 0
-0.323047 -0.003924 0
-0.314428 -0.008012 0
-0.301988 -0.012304 0
-0.285526 -0.016816 0
-0.264841 -0.021525 0
-0.239768 -0.026295 0
-0.210252 -0.031019 0
-0.176361 -0.035542 0
-0.138450 -0.039476 0
-0.097351 -0.042248 0
-0.054704 -0.042903 0
-0.013510 -0.037247 0
0.020935 -0.020752 0
0.039959 0.001718 0
0.031530 0.017186 0
0.014498 0.019655 0
0.000000 0.008966 0
0.000000 -0.013148 0
0.015378 -0.026004 0
0.025049 -0.018269 0
0.025525 -0.007701 0
0.013219 0.000559 0
-0.005957 0.013996 0
-0.034475 0.028806 0
-0.076776 0.040109 0
-0.120519 0.051398 0
-0.157926 0.062733 0
-0.192009 0.069122 0
-0.224277 0.070155 0
-0.253927 0.067679 0
-0.280498 0.062853 0
-0.303724 0.056623 0
-0.323528 0.049699 0
-0.339875 0.042503 0
-0.352897 0.035253 0
-0.362719 0.028089 0
-0.369473 0.021059 0
-0.373261 0.014159 0
-0.374148 0.007336 0
-0.372156 0.000511 0
-0.367199 -0.006441 0
-0.359279 -0.013603 0
-0.348384 -0.021059 0
-0.334348 -0.028901 0
-0.316994 -0.037147 0
-0.296130 -0.045759 0
-0.271603 -0.054589 0
-0.243253 -0.063406 0
-0.211144 -0.071802 0
-0.175560 -0.079011 0
-0.137224 -0.083745 0
-0.097581 -0.083841 0
-0.059165 -0.075639 0
-0.023427 -0.053469 0
0.005855 -0.010595 0
0.015715 0.025461 0
0.007130 0.031530 0
0.000000 0.014498 0
0.000000 -0.020166 0
0.007381 -0.036102 0
0.002169 -0.019377 0
-0.014976 0.007881 0
-0.043351 0.031764 0
-0.078463 0.050164 0
-0.115010 0.067142 0
-0.152304 0.080157 0
-0.189361 0.089898 0
-0.222405 0.096871 0
-0.250864 0.099334 0
-0.275768 0.097108 0
-0.297396 0.091372 0
-0.315964 0.083295 0
-0.331664 0.073882 0
-0.344673 0.063873 0
-0.355124 0.053730 0
-0.363179 0.043701 0
-0.368962 0.033903 0
-0.372565 0.024354 0
-0.374041 0.015003 0
-0.373403 0.005753 0
-0.370623 -0.003536 0
-0.365640 -0.012988 0
-0.358396 -0.022739 0
-0.348740 -0.032942 0
-0.336529 -0.043694 0
-0.321590 -0.055034 0
-0.303749 -0.066915 0
-0.282845 -0.079172 0
-0.258737 -0.091478 0
-0.231413 -0.103235 0
-0.201020 -0.113396 0
-0.167966 -0.120226 0
-0.133025 -0.120962 0
-0.097390 -0.111401 0
-0.062458 -0.085771 0
-0.029359 -0.037425 0
0.001329 0.015911 0
0.000375 0.035370 0
0.000000 0.016096 0
0.000000 -0.020529 0
-0.010585 -0.028172 0
-0.035742 0.004088 0
-0.066091 0.037819 0
-0.097079 0.064046 0
-0.131300 0.085654 0
-0.165459 0.102647 0
-0.197992 0.114460 0
-0.228275 0.121499 0
-0.254642 0.124236 0
-0.276668 0.122484 0
-0.295023 0.116686 0
-0.310309 0.107875 0
-0.323031 0.097121 0
-0.333565 0.085331 0
-0.342173 0.073159 0
-0.349020 0.061010 0
-0.354226 0.049091 0
-0.357861 0.037474 0
-0.359959 0.026139 0
-0.360518 0.014996 0
-0.359510 0.003918 0
-0.356882 -0.007252 0
-0.352584 -0.018668 0
-0.346500 -0.030503 0
-0.338507 -0.042927 0
-0.328468 -0.056052 0
-0.316235 -0.069926 0
-0.301652 -0.084503 0
-0.284572 -0.099602 0
-0.264863 -0.114839 0
-0.242446 -0.129519 0
-0.217304 -0.142458 0
-0.189503 -0.151740 0
-0.159187 -0.154416 0
-0.126534 -0.146207 0
-0.091648 -0.121501 0
-0.054533 -0.074382 0
-0.015587 -0.004273 0
-0.001912 0.032859 0
0.000000 0.014874 0
0.000000 -0.009582 0
-0.029965 -0.000359 0
-0.064688 0.036129 0
-0.097201 0.069218 0
-0.130115 0.096974 0
-0.162560 0.118543 0
-0.193104 0.133834 0
-0.220768 0.142973 0
-0.245108 0.146548 0
-0.265555 0.145263 0
-0.282163 0.139715 0
-0.295534 0.130749 0
-0.306310 0.119380 0
-0.315034 0.106552 0
-0.322099 0.093024 0
-0.327763 0.079328 0
-0.332183 0.065783 0
-0.335457 0.052542 0
-0.337632 0.039636 0
-0.338727 0.027011 0
-0.338728 0.014554 0
-0.337600 0.002117 0
-0.335288 -0.010462 0
-0.331749 -0.023371 0
-0.326860 -0.036817 0
-0.320509 -0.050974 0
-0.312573 -0.065967 0
-0.302922 -0.081850 0
-0.291421 -0.098577 0
-0.277939 -0.115962 0
-0.262346 -0.133605 0
-0.244516 -0.150794 0
-0.224302 -0.166338 0
-0.201504 -0.178343 0
-0.175805 -0.183931 0
-0.146713 -0.178941 0
-0.113560 -0.157772 0
-0.075800 -0.113486 0
-0.034110 -0.036711 0
0.005185 0.019784 0
0.000000 0.014185 0
0.000000 0.009436 0
-0.039467 0.036516 0
-0.077472 0.071324 0
-0.113109 0.103245 0
-0.146341 0.129404 0
-0.176776 0.148644 0
-0.203860 0.160856 0
-0.227228 0.166464 0
-0.246807 0.166286 0
-0.262643 0.161291 0
-0.275114 0.152464 0
-0.284820 0.140834 0
-0.292361 0.127376 0
-0.298231 0.112910 0
-0.302796 0.098060 0
-0.306301 0.083243 0
-0.308911 0.068703 0
-0.310726 0.054539 0
-0.311806 0.040745 0
-0.312173 0.027234 0
-0.311821 0.013869 0
-0.310719 0.000478 0
-0.308812 -0.013102 0
-0.306032 -0.027096 0
-0.302272 -0.041743 0
-0.297426 -0.057213 0
-0.291381 -0.073640 0
-0.284020 -0.091079 0
-0.275224 -0.109486 0
-0.264875 -0.128676 0
-0.252849 -0.148262 0
-0.238998 -0.167563 0
-0.223107 -0.185470 0
-0.204831 -0.200237 0
-0.183591 -0.209207 0
-0.158492 -0.208452 0
-0.128328 -0.192413 0
-0.091881 -0.153832 0
-0.048579 -0.085259 0
0.002367 -0.001251 0
0.000000 0.020059 0
0.000000 0.029885 0
-0.040953 0.077113 0
-0.081588 0.109771 0
-0.118086 0.138087 0
-0.150523 0.160641 0
-0.178783 0.176062 0
-0.202791 0.184286 0
-0.222617 0.185919 0
-0.238524 0.181963 0
-0.250901 0.173570 0
-0.260288 0.161892 0
-0.267280 0.147996 0
-0.272426 0.132791 0
-0.276172 0.116986 0
-0.278860 0.101094 0
-0.280740 0.085443 0
-0.281986 0.070208 0
-0.282717 0.055437 0
-0.283003 0.041083 0
-0.282875 0.027027 0
-0.282333 0.013100 0
-0.281347 -0.000892 0
-0.279868 -0.015149 0
-0.277795 -0.029912 0
-0.275044 -0.045422 0
-0.271511 -0.061864 0
-0.267088 -0.079373 0
-0.261663 -0.098007 0
-0.255125 -0.117722 0
-0.247363 -0.138336 0
-0.238258 -0.159483 0
-0.227660 -0.180536 0
-0.215345 -0.200505 0
-0.200935 -0.217860 0
-0.183777 -0.230270 0
-0.162830 -0.234204 0
-0.136619 -0.224383 0
-0.103512 -0.193235 0
-0.062811 -0.130959 0
-0.018129 -0.028795 0
0.000000 0.016552 0
0.000000 0.050389 0
-0.040087 0.118104 0
-0.080329 0.148458 0
-0.115904 0.172180 0
-0.146679 0.190101 0
-0.172626 0.200912 0
-0.193906 0.204690 0
-0.210849 0.202198 0
-0.223931 0.194570 0
-0.233710 0.183054 0
-0.240790 0.168843 0
-0.245750 0.152972 0
-0.249098 0.136267 0
-0.251252 0.119345 0
-0.252544 0.102628 0
-0.253227 0.086370 0
-0.253486 0.070680 0
-0.253447 0.055556 0
-0.253188 0.040903 0
-0.252745 0.026564 0
-0.252119 0.012341 0
-0.251282 -0.001986 0
-0.250183 -0.016655 0
-0.248731 -0.031921 0
-0.246839 -0.048027 0
-0.244410 -0.065169 0
-0.241336 -0.083487 0
-0.237504 -0.103041 0
-0.232802 -0.123786 0
-0.227113 -0.145544 0
-0.220319 -0.167966 0
-0.212275 -0.190476 0
-0.202776 -0.212195 0
-0.191482 -0.231805 0
-0.177806 -0.247312 0
-0.160777 -0.255610 0
-0.138949 -0.251731 0
-0.110592 -0.227640 0
-0.074692 -0.170642 0
-0.033842 -0.064062 0
0.000000 0.001930 0
0.000000 0.069972 0
-0.037624 0.157442 0
-0.075801 0.185589 0
-0.109298 0.204437 0
-0.137824 0.217362 0
-0.161367 0.223288 0
-0.180190 0.222509 0
-0.194749 0.215945 0
-0.205617 0.204824 0
-0.213415 0.190429 0
-0.218755 0.173932 0
-0.222190 0.156304 0
-0.224200 0.138293 0
-0.225186 0.120433 0
-0.225469 0.103069 0
-0.225301 0.086384 0
-0.224868 0.070427 0
-0.224298 0.055139 0
-0.223670 0.040381 0
-0.223025 0.025958 0
-0.222366 0.011638 0
-0.221670 -0.002827 0
-0.220887 -0.017701 0
-0.219939 -0.033256 0
-0.218746 -0.049742 0
-0.217212 -0.067367 0
-0.215229 -0.086279 0
-0.212682 -0.106542 0
-0.209448 -0.128113 0
-0.205404 -0.150819 0
-0.200419 -0.174320 0
-0.194348 -0.198078 0
-0.187004 -0.221298 0
-0.178102 -0.242830 0
-0.167168 -0.260975 0
-0.153388 -0.273060 0
-0.135437 -0.274569 0
-0.111439 -0.257493 0
-0.079466 -0.207709 0
-0.039512 -0.103487 0
0.000000 -0.017290 0
0.000000 0.088013 0
-0.034186 0.193906 0
-0.069382 0.220132 0
-0.100137 0.234203 0
-0.126079 0.242170 0
-0.147192 0.243278 0
-0.163771 0.238071 0
-0.176308 0.227624 0
-0.185398 0.213236 0
-0.191659 0.196192 0
-0.195680 0.177618 0
-0.197983 0.158417 0
-0.199022 0.139262 0
-0.199179 0.120613 0
-0.198762 0.102743 0
-0.198013 0.085768 0
-0.197112 0.069677 0
-0.196182 0.054359 0
-0.195303 0.039630 0
-0.194518 0.025260 0
-0.193836 0.010987 0
-0.193240 -0.003466 0
-0.192688 -0.018386 0
-0.192117 -0.034061 0
-0.191454 -0.050754 0
-0.190609 -0.068686 0
-0.189476 -0.088017 0
-0.187936 -0.108822 0
-0.185859 -0.131064 0
-0.183109 -0.154574 0
-0.179542 -0.179021 0
-0.175002 -0.203891 0
-0.169308 -0.228440 0
-0.162218 -0.251641 0
-0.153357 -0.272026 0
-0.142082 -0.287340 0
-0.127248 -0.293680 0
-0.106944 -0.283611 0
-0.078568 -0.242569 0
-0.040472 -0.143528 0
0.000000 -0.037582 0
0.000000 0.104158 0
-0.030221 0.226824 0
-0.061973 0.251540 0
-0.089662 0.261134 0
-0.112874 0.264417 0
-0.131592 0.260980 0
-0.146106 0.251625 0
-0.156893 0.237571 0
-0.164522 0.220175 0
-0.169574 0.200711 0
-0.172597 0.180255 0
-0.174076 0.159647 0
-0.174437 0.139489 0
-0.174034 0.120173 0
-0.173158 0.101904 0
-0.172034 0.084734 0
-0.170828 0.068596 0
-0.169660 0.053331 0
-0.168606 0.038717 0
-0.167711 0.024490 0
-0.166992 0.010360 0
-0.166442 -0.003975 0
-0.166028 -0.018824 0
-0.165702 -0.034490 0
-0.165402 -0.051251 0
-0.165046 -0.069346 0
-0.164536 -0.088952 0
-0.163751 -0.110158 0
-0.162558 -0.132940 0
-0.160811 -0.157137 0
-0.158352 -0.182428 0
-0.155015 -0.208312 0
-0.150611 -0.234082 0
-0.144920 -0.258782 0
-0.137635 -0.281112 0
-0.128264 -0.299169 0
-0.115888 -0.309706 0
-0.098773 -0.306172 0
-0.074107 -0.274181 0
-0.039274 -0.182055 0
0.000000 -0.057761 0
0.000000 0.118234 0
-0.026027 0.255879 0
-0.054151 0.279573 0
-0.078666 0.285104 0
-0.099133 0.284100 0
-0.115538 0.276510 0
-0.128148 0.263372 0
-0.137398 0.246040 0
-0.143807 0.225918 0
-0.147902 0.204267 0
-0.150176 0.182120 0
-0.151074 0.160257 0
-0.150984 0.139220 0
-0.150230 0.119334 0
-0.149078 0.100743 0
-0.147731 0.083439 0
-0.146342 0.067304 0
-0.145021 0.052136 0
-0.143842 0.037681 0
-0.142853 0.023647 0
-0.142077 0.009718 0
-0.141516 -0.004430 0
-0.141151 -0.019126 0
-0.140946 -0.034688 0
-0.140854 -0.051410 0
-0.140805 -0.069553 0
-0.140708 -0.089313 0
-0.140451 -0.110799 0
-0.139899 -0.134004 0
-0.138904 -0.158780 0
-0.137301 -0.184818 0
-0.134913 -0.211631 0
-0.131547 -0.238536 0
-0.126984 -0.264617 0
-0.120961 -0.288682 0
-0.113097 -0.309087 0
-0.102706 -0.323171 0
-0.088362 -0.325393 0
-0.067384 -0.302068 0
-0.036537 -0.217635 0
0.000000 -0.076856 0
0.000000 0.130185 0
-0.021788 0.280975 0
-0.046267 0.304179 0
-0.067631 0.306116 0
-0.085420 0.301290 0
-0.099625 0.289995 0
-0.110480 0.273485 0
-0.118371 0.253231 0
-0.123750 0.230679 0
-0.127082 0.207079 0
-0.128802 0.183428 0
-0.129307 0.160455 0
-0.128941 0.138645 0
-0.127994 0.118267 0
-0.126700 0.099404 0
-0.125241 0.081998 0
-0.123755 0.065886 0
-0.122343 0.050831 0
-0.121076 0.036549 0
-0.120003 0.022725 0
-0.119151 0.009024 0
-0.118534 -0.004901 0
-0.118142 -0.019394 0
-0.117955 -0.034787 0
-0.117938 -0.051392 0
-0.118036 -0.069492 0
-0.118170 -0.089306 0
-0.118239 -0.110967 0
-0.118115 -0.134487 0
-0.117654 -0.159735 0
-0.116694 -0.186418 0
-0.115054 -0.214065 0
-0.112540 -0.242011 0
-0.108934 -0.269368 0
-0.103995 -0.294999 0
-0.097423 -0.317425 0
-0.088727 -0.334441 0
-0.076843 -0.341494 0
-0.059428 -0.326006 0
-0.032924 -0.249439 0
0.000000 -0.094299 0
0.000000 0.140022 0
-0.017602 0.302145 0
-0.038511 0.325416 0
-0.056822 0.324257 0
-0.072045 0.316095 0
-0.084178 0.301570 0
-0.093419 0.282117 0
-0.100099 0.259310 0
-0.104602 0.234629 0
-0.107325 0.209319 0
-0.108643 0.184345 0
-0.108897 0.160396 0
-0.108385 0.137907 0
-0.107358 0.117093 0
-0.106020 0.097990 0
-0.104530 0.080494 0
-0.103010 0.064406 0
-0.101553 0.049457 0
-0.100226 0.035341 0
-0.099078 0.021722 0
-0.098142 0.008250 0
-0.097436 -0.005439 0
-0.096963 -0.019705 0
-0.096714 -0.034892 0
-0.096667 -0.051330 0
-0.096782 -0.069321 0
-0.096995 -0.089110 0
-0.097219 -0.110854 0
-0.097342 -0.134589 0
-0.097230 -0.160201 0
-0.096732 -0.187417 0
-0.095675 -0.215785 0
-0.093869 -0.244656 0
-0.091104 -0.273162 0
-0.087157 -0.300193 0
-0.081782 -0.324355 0
-0.074637 -0.343751 0
-0.064991 -0.354692 0
-0.050950 -0.345987 0
-0.028874 -0.277063 0
0.000000 -0.109780 0
0.000000 0.147787 0
-0.013509 0.319486 0
-0.030967 0.343399 0
-0.046357 0.339650 0
-0.059145 0.328645 0
-0.069334 0.311369 0
-0.077090 0.289406 0
-0.082685 0.264414 0
-0.086436 0.237905 0
-0.088671 0.211120 0
-0.089700 0.184999 0
-0.089810 0.160197 0
-0.089247 0.137107 0
-0.088224 0.115902 0
-0.086912 0.096575 0
-0.085449 0.078988 0
-0.083943 0.062909 0
-0.082476 0.048047 0
-0.081113 0.034074 0
-0.079902 0.020641 0
-0.078880 0.007382 0
-0.078068 -0.006080 0
-0.077479 -0.020115 0
-0.077114 -0.035082 0
-0.076961 -0.051325 0
-0.076994 -0.069164 0
-0.077165 -0.088869 0
-0.077408 -0.110620 0
-0.077628 -0.134476 0
-0.077714 -0.160345 0
-0.077528 -0.187973 0
-0.076917 -0.216929 0
-0.075704 -0.246582 0
-0.073696 -0.276079 0
-0.070691 -0.304321 0
-0.066483 -0.329945 0
-0.060837 -0.351232 0
-0.053289 -0.365181 0
-0.042413 -0.362124 0
-0.024682 -0.300389 0
0.000000 -0.123172 0
0.000000 0.153531 0
-0.009514 0.333112 0
-0.023643 0.358263 0
-0.036251 0.352435 0
-0.046733 0.339072 0
-0.055100 0.319516 0
-0.061483 0.295468 0
-0.066098 0.268656 0
-0.069196 0.240615 0
-0.071036 0.212583 0
-0.071863 0.185484 0
-0.071905 0.159943 0
-0.071362 0.136321 0
-0.070402 0.114758 0
-0.069169 0.095215 0
-0.067778 0.077525 0
-0.066323 0.061433 0
-0.064879 0.046628 0
-0.063503 0.032767 0
-0.062244 0.019489 0
-0.061140 0.006415 0
-0.060218 -0.006840 0
-0.059496 -0.020659 0
-0.058981 -0.035410 0
-0.058670 -0.051450 0
-0.058551 -0.069116 0
-0.058593 -0.088696 0
-0.058749 -0.110391 0
-0.058951 -0.134283 0
-0.059111 -0.160301 0
-0.059119 -0.188214 0
-0.058842 -0.217610 0
-0.058129 -0.247877 0
-0.056811 -0.278175 0
-0.054714 -0.307406 0
-0.051671 -0.334209 0
-0.047519 -0.356945 0
-0.041989 -0.373117 0
-0.034082 -0.374594 0
-0.020525 -0.319476 0
0.000000 -0.134461 0
0.000000 0.157301 0
-0.005596 0.343129 0
-0.016506 0.370136 0
-0.026453 0.362740 0
-0.034748 0.347495 0
-0.041397 0.326119 0
-0.046500 0.300404 0
-0.050219 0.272127 0
-0.052740 0.242842 0
-0.054254 0.213787 0
-0.054942 0.185869 0
-0.054974 0.159695 0
-0.054499 0.135603 0
-0.053648 0.113709 0
-0.052535 0.093951 0
-0.051255 0.076143 0
-0.049886 0.060010 0
-0.048495 0.045227 0
-0.047132 0.031440 0
-0.045842 0.018278 0
-0.044668 0.005356 0
-0.043639 -0.007724 0
-0.042776 -0.021353 0
-0.042094 -0.035908 0
-0.041595 -0.051754 0
-0.041277 -0.069242 0
-0.041127 -0.088671 0
-0.041122 -0.110262 0
-0.041221 -0.134113 0
-0.041365 -0.160176 0
-0.041474 -0.188242 0
-0.041444 -0.217919 0
-0.041155 -0.248614 0
-0.040471 -0.279494 0
-0.039256 -0.309461 0
-0.037381 -0.337140 0
-0.034737 -0.360914 0
-0.031184 -0.378619 0
-0.026077 -0.383588 0
-0.016491 -0.334471 0
0.000000 -0.143697 0
0.000000 0.159127 0
-0.001770 0.349618 0
-0.009483 0.379120 0
-0.016869 0.370676 0
-0.023071 0.354015 0
-0.028085 0.331268 0
-0.031982 0.304291 0
-0.034868 0.274896 0
-0.036868 0.244649 0
-0.038106 0.214785 0
-0.038700 0.186204 0
-0.038762 0.159499 0
-0.038393 0.134995 0
-0.037686 0.112794 0
-0.036727 0.092821 0
-0.035590 0.074876 0
-0.034340 0.058673 0
-0.033032 0.043873 0
-0.031709 0.030115 0
-0.030415 0.017025 0
-0.029187 0.004212 0
-0.028060 -0.008731 0
-0.027058 -0.022204 0
-0.026199 -0.036592 0
-0.025494 -0.052267 0
-0.024949 -0.069583 0
-0.024571 -0.088851 0
-0.024357 -0.110298 0
-0.024297 -0.134039 0
-0.024362 -0.160048 0
-0.024505 -0.188135 0
-0.024657 -0.217929 0
-0.024732 -0.248850 0
-0.024638 -0.280073 0
-0.024280 -0.310496 0
-0.023573 -0.338728 0
-0.022454 -0.363142 0
-0.020863 -0.381777 0
-0.018422 -0.389286 0
-0.012611 -0.345553 0
0.000000 -0.150953 0
0.000000 0.159071 0
0.001930 0.352612 0
-0.002463 0.385235 0
-0.007364 0.376328 0
-0.011559 0.358710 0
-0.014997 0.335030 0
-0.017736 0.307188 0
-0.019832 0.277014 0
-0.021347 0.246080 0
-0.022341 0.215618 0
-0.022870 0.186525 0
-0.022990 0.159388 0
-0.022755 0.134528 0
-0.022221 0.112043 0
-0.021443 0.091855 0
-0.020478 0.073756 0
-0.019375 0.057452 0
-0.018178 0.042596 0
-0.016927 0.028823 0
-0.015656 0.015756 0
-0.014406 0.003001 0
-0.013192 -0.009853 0
-0.012053 -0.023214 0
-0.011015 -0.037472 0
-0.010094 -0.053004 0
-0.009311 -0.070165 0
-0.008686 -0.089264 0
-0.008241 -0.110536 0
-0.007994 -0.134107 0
-0.007945 -0.159968 0
-0.008079 -0.187948 0
-0.008366 -0.217693 0
-0.008764 -0.248632 0
-0.009225 -0.279945 0
-0.009703 -0.310526 0
-0.010160 -0.338966 0
-0.010578 -0.363625 0
-0.010947 -0.382651 0
-0.011076 -0.391840 0
-0.008873 -0.352892 0
0.000000 -0.156308 0
0.000000 0.157197 0
0.005561 0.352081 0
0.004608 0.388415 0
0.002188 0.379772 0
-0.000030 0.361647 0
-0.001933 0.337445 0
-0.003545 0.309127 0
-0.004876 0.278508 0
-0.005926 0.247158 0
-0.006695 0.216308 0
-0.007178 0.186854 0
-0.007375 0.159384 0
-0.007294 0.134225 0
-0.006952 0.111481 0
-0.006379 0.091078 0
-0.005609 0.072808 0
-0.004677 0.056373 0
-0.003618 0.041425 0
-0.002461 0.027593 0
-0.001238 0.014504 0
0.000022 0.001748 0
0.001308 -0.011084 0
0.002571 -0.024381 0
0.003783 -0.038550 0
0.004913 -0.053971 0
0.005930 -0.070992 0
0.006795 -0.089920 0
0.007467 -0.110990 0
0.007906 -0.134336 0
0.008082 -0.159963 0
0.007976 -0.187713 0
0.007577 -0.217244 0
0.006884 -0.247992 0
0.005892 -0.279134 0
0.004594 -0.309561 0
0.002977 -0.337852 0
0.001019 -0.362355 0
-0.001319 -0.381279 0
-0.003956 -0.391361 0
-0.005238 -0.356628 0
0.000000 -0.159826 0
0.000000 0.153511 0
0.009223 0.348004 0
0.011790 0.388607 0
0.011904 0.380967 0
0.011666 0.362831 0
0.011285 0.338544 0
0.010794 0.310130 0
0.010228 0.279395 0
0.009643 0.247899 0
0.009102 0.216870 0
0.008665 0.187205 0
0.008386 0.159504 0
0.008302 0.134105 0
0.008435 0.111129 0
0.008785 0.090512 0
0.009341 0.072054 0
0.010082 0.055460 0
0.010988 0.040380 0
0.012034 0.026443 0
0.013199 0.013273 0
0.014460 0.000456 0
0.015798 -0.012403 0
0.017168 -0.025688 0
0.018534 -0.039814 0
0.019855 -0.055152 0
0.021084 -0.072047 0
0.022168 -0.090800 0
0.023049 -0.111647 0
0.023668 -0.134722 0
0.023965 -0.160037 0
0.023887 -0.187443 0
0.023382 -0.216601 0
0.022397 -0.246946 0
0.020876 -0.277655 0
0.018757 -0.307611 0
0.015971 -0.335391 0
0.012454 -0.359329 0
0.008141 -0.377676 0
0.003047 -0.387921 0
-0.001636 -0.356849 0
0.000000 -0.161546 0
0.000000 0.147974 0
0.012987 0.340291 0
0.019198 0.385735 0
0.021911 0.379896 0
0.023645 0.362266 0
0.024790 0.338317 0
0.025432 0.310184 0
0.025654 0.279658 0
0.025563 0.248284 0
0.025277 0.217287 0
0.024912 0.187570 0
0.024569 0.159746 0
0.024331 0.134176 0
0.024256 0.110999 0
0.024377 0.090173 0
0.024710 0.071511 0
0.025252 0.054727 0
0.025994 0.039474 0
0.026923 0.025381 0
0.028021 0.012078 0
0.029271 -0.000851 0
0.030632 -0.013792 0
0.032081 -0.027118 0
0.033570 -0.041237 0
0.035048 -0.056520 0
0.036459 -0.073305 0
0.037735 -0.091885 0
0.038804 -0.112490 0
0.039582 -0.135252 0
0.039985 -0.160182 0
0.039921 -0.187130 0
0.039297 -0.215755 0
0.038007 -0.245486 0
0.035941 -0.275494 0
0.032977 -0.304655 0
0.028993 -0.331550 0