# vtk DataFile Version 2.0
generated by CFD-lab course output (written by Tobias Neckel) 
ASCII

DATASET STRUCTURED_GRID
DIMENSIONS  41 41 1 
POINTS 1681 float

0.150000 0.150000 0
0.167857 0.150000 0
0.185714 0.150000 0
0.203571 0.150000 0
0.221429 0.150000 0
0.239286 0.150000 0
0.257143 0.150000 0
0.275000 0.150000 0
0.292857 0.150000 0
0.310714 0.150000 0
0.328571 0.150000 0
0.346429 0.150000 0
0.364286 0.150000 0
0.382143 0.150000 0
0.400000 0.150000 0
0.417857 0.150000 0
0.435714 0.150000 0
0.453571 0.150000 0
0.471429 0.150000 0
0.489286 0.150000 0
0.507143 0.150000 0
0.525000 0.150000 0
0.542857 0.150000 0
0.560714 0.150000 0
0.578571 0.150000 0
0.596429 0.150000 0
0.614286 0.150000 0
0.632143 0.150000 0
0.650000 0.150000 0
0.667857 0.150000 0
0.685714 0.150000 0
0.703571 0.150000 0
0.721429 0.150000 0
0.739286 0.150000 0
0.757143 0.150000 0
0.775000 0.150000 0
0.792857 0.150000 0
0.810714 0.150000 0
0.828571 0.150000 0
0.846429 0.150000 0
0.864286 0.150000 0
0.150000 0.167857 0
0.167857 0.167857 0
0.185714 0.167857 0
0.203571 0.167857 0
0.221429 0.167857 0
0.239286 0.167857 0
0.257143 0.167857 0
0.275000 0.167857 0
0.292857 0.167857 0
0.310714 0.167857 0
0.328571 0.167857 0
0.346429 0.167857 0
0.364286 0.167857 0
0.382143 0.167857 0
0.400000 0.167857 0
0.417857 0.167857 0
0.435714 0.167857 0
0.453571 0.167857 0
0.471429 0.167857 0
0.489286 0.167857 0
0.507143 0.167857 0
0.525000 0.167857 0
0.542857 0.167857 0
0.560714 0.167857 0
0.578571 0.167857 0
0.596429 0.167857 0
0.614286 0.167857 0
0.632143 0.167857 0
0.650000 0.167857 0
0.667857 0.167857 0
0.685714 0.167857 0
0.703571 0.167857 0
0.721429 0.167857 0
0.739286 0.167857 0
0.757143 0.167857 0
0.775000 0.167857 0
0.792857 0.167857 0
0.810714 0.167857 0
0.828571 0.167857 0
0.846429 0.167857 0
0.864286 0.167857 0
0.150000 0.185714 0
0.167857 0.185714 0
0.185714 0.185714 0
0.203571 0.185714 0
0.221429 0.185714 0
0.239286 0.185714 0
0.257143 0.185714 0
0.275000 0.185714 0
0.292857 0.185714 0
0.310714 0.185714 0
0.328571 0.185714 0
0.346429 0.185714 0
0.364286 0.185714 0
0.382143 0.185714 0
0.400000 0.185714 0
0.417857 0.185714 0
0.435714 0.185714 0
0.453571 0.185714 0
0.471429 0.185714 0
0.489286 0.185714 0
0.507143 0.185714 0
0.525000 0.185714 0
0.542857 0.185714 0
0.560714 0.185714 0
0.578571 0.185714 0
0.596429 0.185714 0
0.614286 0.185714 0
0.632143 0.185714 0
0.650000 0.185714 0
0.667857 0.185714 0
0.685714 0.185714 0
0.703571 0.185714 0
0.721429 0.185714 0
0.739286 0.185714 0
0.757143 0.185714 0
0.775000 0.185714 0
0.792857 0.185714 0
0.810714 0.185714 0
0.828571 0.185714 0
0.846429 0.185714 0
0.864286 0.185714 0
0.150000 0.203571 0
0.167857 0.203571 0
0.185714 0.203571 0
0.203571 0.203571 0
0.221429 0.203571 0
0.239286 0.203571 0
0.257143 0.203571 0
0.275000 0.203571 0
0.292857 0.203571 0
0.310714 0.203571 0
0.328571 0.203571 0
0.346429 0.203571 0
0.364286 0.203571 0
0.382143 0.203571 0
0.400000 0.203571 0
0.417857 0.203571 0
0.435714 0.203571 0
0.453571 0.203571 0
0.471429 0.203571 0
0.489286 0.203571 0
0.507143 0.203571 0
0.525000 0.203571 0
0.542857 0.203571 0
0.560714 0.203571 0
0.578571 0.203571 0
0.596429 0.203571 0
0.614286 0.203571 0
0.632143 0.203571 0
0.650000 0.203571 0
0.667857 0.203571 0
0.685714 0.203571 0
0.703571 0.203571 0
0.721429 0.203571 0
0.739286 0.203571 0
0.757143 0.203571 0
0.775000 0.203571 0
0.792857 0.203571 0
0.810714 0.203571 0
0.828571 0.203571 0
0.846429 0.203571 0
0.864286 0.203571 0
0.150000 0.221429 0
0.167857 0.221429 0
0.185714 0.221429 0
0.203571 0.221429 0
0.221429 0.221429 0
0.239286 0.221429 0
0.257143 0.221429 0
0.275000 0.221429 0
0.292857 0.221429 0
0.310714 0.221429 0
0.328571 0.221429 0
0.346429 0.221429 0
0.364286 0.221429 0
0.382143 0.221429 0
0.400000 0.221429 0
0.417857 0.221429 0
0.435714 0.221429 0
0.453571 0.221429 0
0.471429 0.221429 0
0.489286 0.221429 0
0.507143 0.221429 0
0.525000 0.221429 0
0.542857 0.221429 0
0.560714 0.221429 0
0.578571 0.221429 0
0.596429 0.221429 0
0.614286 0.221429 0
0.632143 0.221429 0
0.650000 0.221429 0
0.667857 0.221429 0
0.685714 0.221429 0
0.703571 0.221429 0
0.721429 0.221429 0
0.739286 0.221429 0
0.757143 0.221429 0
0.775000 0.221429 0
0.792857 0.221429 0
0.810714 0.221429 0
0.828571 0.221429 0
0.846429 0.221429 0
0.864286 0.221429 0
0.150000 0.239286 0
0.167857 0.239286 0
0.185714 0.239286 0
0.203571 0.239286 0
0.221429 0.239286 0
0.239286 0.239286 0
0.257143 0.239286 0
0.275000 0.239286 0
0.292857 0.239286 0
0.310714 0.239286 0
0.328571 0.239286 0
0.346429 0.239286 0
0.364286 0.239286 0
0.382143 0.239286 0
0.400000 0.239286 0
0.417857 0.239286 0
0.435714 0.239286 0
0.453571 0.239286 0
0.471429 0.239286 0
0.489286 0.239286 0
0.507143 0.239286 0
0.525000 0.239286 0
0.542857 0.239286 0
0.560714 0.239286 0
0.578571 0.239286 0
0.596429 0.239286 0
0.614286 0.239286 0
0.632143 0.239286 0
0.650000 0.239286 0
0.667857 0.239286 0
0.685714 0.239286 0
0.703571 0.239286 0
0.721429 0.239286 0
0.739286 0.239286 0
0.757143 0.239286 0
0.775000 0.239286 0
0.792857 0.239286 0
0.810714 0.239286 0
0.828571 0.239286 0
0.846429 0.239286 0
0.864286 0.239286 0
0.150000 0.257143 0
0.167857 0.257143 0
0.185714 0.257143 0
0.203571 0.257143 0
0.221429 0.257143 0
0.239286 0.257143 0
0.257143 0.257143 0
0.275000 0.257143 0
0.292857 0.257143 0
0.310714 0.257143 0
0.328571 0.257143 0
0.346429 0.257143 0
0.364286 0.257143 0
0.382143 0.257143 0
0.400000 0.257143 0
0.417857 0.257143 0
0.435714 0.257143 0
0.453571 0.257143 0
0.471429 0.257143 0
0.489286 0.257143 0
0.507143 0.257143 0
0.525000 0.257143 0
0.542857 0.257143 0
0.560714 0.257143 0
0.578571 0.257143 0
0.596429 0.257143 0
0.614286 0.257143 0
0.632143 0.257143 0
0.650000 0.257143 0
0.667857 0.257143 0
0.685714 0.257143 0
0.703571 0.257143 0
0.721429 0.257143 0
0.739286 0.257143 0
0.757143 0.257143 0
0.775000 0.257143 0
0.792857 0.257143 0
0.810714 0.257143 0
0.828571 0.257143 0
0.846429 0.257143 0
0.864286 0.257143 0
0.150000 0.275000 0
0.167857 0.275000 0
0.185714 0.275000 0
0.203571 0.275000 0
0.221429 0.275000 0
0.239286 0.275000 0
0.257143 0.275000 0
0.275000 0.275000 0
0.292857 0.275000 0
0.310714 0.275000 0
0.328571 0.275000 0
0.346429 0.275000 0
0.364286 0.275000 0
0.382143 0.275000 0
0.400000 0.275000 0
0.417857 0.275000 0
0.435714 0.275000 0
0.453571 0.275000 0
0.471429 0.275000 0
0.489286 0.275000 0
0.507143 0.275000 0
0.525000 0.275000 0
0.542857 0.275000 0
0.560714 0.275000 0
0.578571 0.275000 0
0.596429 0.275000 0
0.614286 0.275000 0
0.632143 0.275000 0
0.650000 0.275000 0
0.667857 0.275000 0
0.685714 0.275000 0
0.703571 0.275000 0
0.721429 0.275000 0
0.739286 0.275000 0
0.757143 0.275000 0
0.775000 0.275000 0
0.792857 0.275000 0
0.810714 0.275000 0
0.828571 0.275000 0
0.846429 0.275000 0
0.864286 0.275000 0
0.150000 0.292857 0
0.167857 0.292857 0
0.185714 0.292857 0
0.203571 0.292857 0
0.221429 0.292857 0
0.239286 0.292857 0
0.257143 0.292857 0
0.275000 0.292857 0
0.292857 0.292857 0
0.310714 0.292857 0
0.328571 0.292857 0
0.346429 0.292857 0
0.364286 0.292857 0
0.382143 0.292857 0
0.400000 0.292857 0
0.417857 0.292857 0
0.435714 0.292857 0
0.453571 0.292857 0
0.471429 0.292857 0
0.489286 0.292857 0
0.507143 0.292857 0
0.525000 0.292857 0
0.542857 0.292857 0
0.560714 0.292857 0
0.578571 0.292857 0
0.596429 0.292857 0
0.614286 0.292857 0
0.632143 0.292857 0
0.650000 0.292857 0
0.667857 0.292857 0
0.685714 0.292857 0
0.703571 0.292857 0
0.721429 0.292857 0
0.739286 0.292857 0
0.757143 0.292857 0
0.775000 0.292857 0
0.792857 0.292857 0
0.810714 0.292857 0
0.828571 0.292857 0
0.846429 0.292857 0
0.864286 0.292857 0
0.150000 0.310714 0
0.167857 0.310714 0
0.185714 0.310714 0
0.203571 0.310714 0
0.221429 0.310714 0
0.239286 0.310714 0
0.257143 0.310714 0
0.275000 0.310714 0
0.292857 0.310714 0
0.310714 0.310714 0
0.328571 0.310714 0
0.346429 0.310714 0
0.364286 0.310714 0
0.382143 0.310714 0
0.400000 0.310714 0
0.417857 0.310714 0
0.435714 0.310714 0
0.453571 0.310714 0
0.471429 0.310714 0
0.489286 0.310714 0
0.507143 0.310714 0
0.525000 0.310714 0
0.542857 0.310714 0
0.560714 0.310714 0
0.578571 0.310714 0
0.596429 0.310714 0
0.614286 0.310714 0
0.632143 0.310714 0
0.650000 0.310714 0
0.667857 0.310714 0
0.685714 0.310714 0
0.703571 0.310714 0
0.721429 0.310714 0
0.739286 0.310714 0
0.757143 0.310714 0
0.775000 0.310714 0
0.792857 0.310714 0
0.810714 0.310714 0
0.828571 0.310714 0
0.846429 0.310714 0
0.864286 0.310714 0
0.150000 0.328571 0
0.167857 0.328571 0
0.185714 0.328571 0
0.203571 0.328571 0
0.221429 0.328571 0
0.239286 0.328571 0
0.257143 0.328571 0
0.275000 0.328571 0
0.292857 0.328571 0
0.310714 0.328571 0
0.328571 0.328571 0
0.346429 0.328571 0
0.364286 0.328571 0
0.382143 0.328571 0
0.400000 0.328571 0
0.417857 0.328571 0
0.435714 0.328571 0
0.453571 0.328571 0
0.471429 0.328571 0
0.489286 0.328571 0
0.507143 0.328571 0
0.525000 0.328571 0
0.542857 0.328571 0
0.560714 0.328571 0
0.578571 0.328571 0
0.596429 0.328571 0
0.614286 0.328571 0
0.632143 0.328571 0
0.650000 0.328571 0
0.667857 0.328571 0
0.685714 0.328571 0
0.703571 0.328571 0
0.721429 0.328571 0
0.739286 0.328571 0
0.757143 0.328571 0
0.775000 0.328571 0
0.792857 0.328571 0
0.810714 0.328571 0
0.828571 0.328571 0
0.846429 0.328571 0
0.864286 0.328571 0
0.150000 0.346429 0
0.167857 0.346429 0
0.185714 0.346429 0
0.203571 0.346429 0
0.221429 0.346429 0
0.239286 0.346429 0
0.257143 0.346429 0
0.275000 0.346429 0
0.292857 0.346429 0
0.310714 0.346429 0
0.328571 0.346429 0
0.346429 0.346429 0
0.364286 0.346429 0
0.382143 0.346429 0
0.400000 0.346429 0
0.417857 0.346429 0
0.435714 0.346429 0
0.453571 0.346429 0
0.471429 0.346429 0
0.489286 0.346429 0
0.507143 0.346429 0
0.525000 0.346429 0
0.542857 0.346429 0
0.560714 0.346429 0
0.578571 0.346429 0
0.596429 0.346429 0
0.614286 0.346429 0
0.632143 0.346429 0
0.650000 0.346429 0
0.667857 0.346429 0
0.685714 0.346429 0
0.703571 0.346429 0
0.721429 0.346429 0
0.739286 0.346429 0
0.757143 0.346429 0
0.775000 0.346429 0
0.792857 0.346429 0
0.810714 0.346429 0
0.828571 0.346429 0
0.846429 0.346429 0
[...]
POINT_DATA 1681 

VECTORS velocity float
0.000000 0.000000 0
0.006039 0.000000 0
0.012348 0.000000 0
0.014809 0.000000 0
0.014694 0.000000 0
0.014333 0.000000 0
0.012226 0.000000 0
0.016532 0.000000 0
0.021947 0.000000 0
0.012226 0.000000 0
-0.005541 0.000000 0
-0.025625 0.000000 0
-0.046194 0.000000 0
-0.066167 0.000000 0
-0.084803 0.000000 0
-0.101662 0.000000 0
-0.116577 0.000000 0
-0.129405 0.000000 0
-0.140107 0.000000 0
-0.148679 0.000000 0
-0.155135 0.000000 0
-0.159496 0.000000 0
-0.161764 0.000000 0
-0.161961 0.000000 0
-0.159961 0.000000 0
-0.155649 0.000000 0
-0.148960 0.000000 0
-0.139817 0.000000 0
-0.128153 0.000000 0
-0.113921 0.000000 0
-0.097199 0.000000 0
-0.078070 0.000000 0
-0.056798 0.000000 0
-0.033873 0.000000 0
-0.010113 0.000000 0
0.013112 0.000000 0
0.028508 0.000000 0
0.031267 0.000000 0
0.023336 0.000000 0
0.010983 0.000000 0
0.000000 0.000000 0
0.000000 -0.006039 0
0.016028 -0.012348 0
0.029474 -0.008771 0
0.035000 -0.002346 0
0.034581 0.000477 0
0.034906 0.002468 0
0.026722 -0.002199 0
0.008263 -0.009721 0
-0.015937 0.004306 0
-0.047501 0.027488 0
-0.085630 0.037850 0
-0.125980 0.040653 0
-0.165917 0.040543 0
-0.203698 0.038610 0
-0.238217 0.035494 0
-0.268850 0.031773 0
-0.295315 0.027743 0
-0.317485 0.023531 0
-0.335356 0.019274 0
-0.348978 0.015027 0
-0.358421 0.010817 0
-0.363748 0.006629 0
-0.364990 0.002465 0
-0.362134 -0.001803 0
-0.355122 -0.006311 0
-0.343878 -0.011001 0
-0.328270 -0.015832 0
-0.308156 -0.020807 0
-0.283407 -0.025896 0
-0.253941 -0.030954 0
-0.219805 -0.035851 0
-0.181194 -0.040401 0
-0.138625 -0.044198 0
-0.093142 -0.046685 0
-0.046676 -0.046984 0
-0.002690 -0.038621 0
0.032698 -0.018155 0
0.048802 0.005171 0
0.037701 0.020284 0
0.017676 0.023336 0
0.000000 0.010983 0
0.000000 -0.016028 0
0.019069 -0.029474 0
0.030540 -0.018971 0
0.034856 -0.005107 0
0.024314 0.000094 0
0.003735 0.007859 0
-0.024652 0.026643 0
-0.069463 0.042659 0
-0.122175 0.055764 0
-0.165092 0.069693 0
-0.203644 0.078479 0
-0.240301 0.080287 0
-0.274363 0.077718 0
-0.305108 0.072300 0
-0.332155 0.065152 0
-0.355330 0.057097 0
-0.374541 0.048635 0
-0.389869 0.040041 0
-0.401406 0.031493 0
-0.409262 0.023065 0
-0.413526 0.014771 0
-0.414260 0.006569 0
-0.411493 -0.001614 0
-0.405168 -0.009868 0
-0.395347 -0.018256 0
-0.382006 -0.026853 0
-0.365025 -0.035722 0
-0.344275 -0.044863 0
-0.319632 -0.054215 0
-0.291018 -0.063602 0
-0.258377 -0.072747 0
-0.221895 -0.081180 0
-0.182017 -0.088052 0
-0.139697 -0.091949 0
-0.096748 -0.090452 0
-0.056302 -0.079374 0
-0.018314 -0.051492 0
0.011421 -0.005003 0
0.017081 0.031126 0
0.007682 0.037701 0
0.000000 0.017676 0
0.000000 -0.025107 0
0.012152 -0.042888 0
0.012221 -0.024558 0
-0.003649 0.003880 0
-0.029774 0.031597 0
-0.070522 0.051434 0
-0.113757 0.070999 0
-0.155800 0.087803 0
-0.198078 0.099935 0
-0.236467 0.108957 0
-0.269351 0.113060 0
-0.298333 0.111372 0
-0.323852 0.105349 0
-0.346082 0.096401 0
-0.365154 0.085717 0
-0.381180 0.074160 0
-0.394233 0.062282 0
-0.404415 0.050396 0
-0.411805 0.038666 0
-0.416459 0.027147 0
-0.418407 0.015816 0
-0.417652 0.004596 0
-0.414171 -0.006628 0
-0.407930 -0.017949 0
-0.398880 -0.029473 0
-0.386915 -0.041323 0
-0.371931 -0.053563 0
-0.353808 -0.066200 0
-0.332436 -0.079153 0
-0.307728 -0.092209 0
-0.279641 -0.104974 0
-0.248273 -0.116761 0
-0.213911 -0.126396 0
-0.177133 -0.131955 0
-0.138922 -0.130379 0
-0.100659 -0.117054 0
-0.063746 -0.085879 0
-0.028249 -0.030224 0
0.000462 0.024024 0
-0.000857 0.040418 0
0.000000 0.018665 0
0.000000 -0.028181 0
-0.006805 -0.041695 0
-0.027892 -0.003171 0
-0.060546 0.036888 0
-0.093958 0.066967 0
-0.131872 0.091842 0
-0.171302 0.111921 0
-0.208565 0.126981 0
-0.243480 0.136430 0
-0.274542 0.140966 0
-0.300758 0.140345 0
-0.322992 0.134788 0
-0.341935 0.125466 0
-0.358100 0.113602 0
-0.371820 0.100250 0
-0.383287 0.086176 0
-0.392598 0.071871 0
-0.399806 0.057613 0
-0.404928 0.043536 0
-0.407962 0.029667 0
-0.408887 0.015964 0
-0.407671 0.002333 0
-0.404267 -0.011337 0
-0.398673 -0.025158 0
-0.390795 -0.039270 0
-0.380551 -0.053802 0
-0.367846 -0.068829 0
-0.352584 -0.084358 0
-0.334670 -0.100295 0
-0.314027 -0.116397 0
-0.290602 -0.132202 0
-0.264410 -0.146910 0
-0.235536 -0.159193 0
-0.204148 -0.166937 0
-0.170475 -0.166925 0
-0.134710 -0.154551 0
-0.096830 -0.123902 0
-0.056627 -0.069210 0
-0.014255 0.003734 0
-0.004784 0.038163 0
0.000000 0.016819 0
0.000000 -0.018303 0
-0.028601 -0.014996 0
-0.064978 0.029184 0
-0.098713 0.069945 0
-0.134293 0.102922 0
-0.170140 0.128778 0
-0.205012 0.147693 0
-0.237003 0.159981 0
-0.265634 0.165912 0
-0.290329 0.166235 0
-0.310914 0.161510 0
-0.328041 0.152548 0
-0.342371 0.140458 0
-0.354429 0.126286 0
-0.364550 0.110904 0
-0.372919 0.094939 0
-0.379621 0.078801 0
-0.384692 0.062726 0
-0.388141 0.046822 0
-0.389961 0.031106 0
-0.390138 0.015525 0
-0.388651 -0.000024 0
-0.385470 -0.015625 0
-0.380575 -0.031421 0
-0.373887 -0.047596 0
-0.365334 -0.064271 0
-0.354834 -0.081529 0
-0.342304 -0.099376 0
-0.327662 -0.117711 0
-0.310838 -0.136277 0
-0.291767 -0.154590 0
-0.270392 -0.171827 0
-0.246634 -0.186658 0
-0.220345 -0.197016 0
-0.191222 -0.199817 0
-0.158718 -0.190699 0
-0.121997 -0.163962 0
-0.080246 -0.112799 0
-0.034188 -0.027819 0
0.002946 0.026163 0
0.000000 0.013880 0
0.000000 0.000420 0
-0.041039 0.023283 0
-0.081879 0.066942 0
-0.119662 0.106204 0
-0.155768 0.138394 0
-0.189568 0.162560 0
-0.220531 0.178785 0
-0.247897 0.187603 0
-0.271498 0.189757 0
-0.291313 0.186246 0
-0.307610 0.178057 0
-0.320981 0.166245 0
-0.331987 0.151854 0
-0.341072 0.135781 0
-0.348527 0.118740 0
-0.354526 0.101247 0
-0.359168 0.083644 0
-0.362512 0.066133 0
-0.364593 0.048805 0
-0.365430 0.031665 0
-0.365033 0.014653 0
-0.363396 -0.002335 0
-0.360512 -0.019413 0
-0.356322 -0.036742 0
-0.350774 -0.054511 0
-0.343794 -0.072855 0
-0.335305 -0.091860 0
-0.325229 -0.111530 0
-0.313491 -0.131761 0
-0.300019 -0.152292 0
-0.284741 -0.172648 0
-0.267556 -0.192043 0
-0.248294 -0.209240 0
-0.226629 -0.222349 0
-0.201971 -0.228552 0
-0.173357 -0.223777 0
-0.139466 -0.202374 0
-0.098944 -0.157018 0
-0.051088 -0.079458 0
0.005844 0.003974 0
0.000000 0.019765 0
0.000000 0.022737 0
-0.045000 0.066883 0
-0.088467 0.107806 0
-0.127879 0.143834 0
-0.163495 0.172829 0
-0.195189 0.193541 0
-0.222892 0.206022 0
-0.246518 0.210948 0
-0.266261 0.209327 0
-0.282444 0.202347 0
-0.295536 0.191178 0
-0.306081 0.176925 0
-0.314556 0.160549 0
-0.321332 0.142826 0
-0.326674 0.124357 0
-0.330763 0.105580 0
-0.333729 0.086787 0
-0.335665 0.068150 0
-0.336641 0.049741 0
-0.336706 0.031546 0
-0.335888 0.013490 0
-0.334199 -0.004545 0
-0.331632 -0.022699 0
-0.328134 -0.041159 0
-0.323647 -0.060124 0
-0.318094 -0.079739 0
-0.311391 -0.100094 0
-0.303455 -0.121190 0
-0.294203 -0.142921 0
-0.283558 -0.165027 0
-0.271437 -0.187053 0
-0.257724 -0.208274 0
-0.242220 -0.227585 0
-0.224554 -0.243339 0
-0.204050 -0.253089 0
-0.179599 -0.253204 0
-0.149609 -0.238376 0
-0.112276 -0.201176 0
-0.066605 -0.132607 0
-0.015045 -0.024926 0
0.000000 0.019724 0
0.000000 0.045420 0
-0.044572 0.111749 0
-0.088511 0.149821 0
-0.127574 0.181232 0
-0.161818 0.205704 0
-0.191294 0.221958 0
-0.216202 0.230114 0
-0.236826 0.230972 0
-0.253608 0.225683 0
-0.267050 0.215521 0
-0.277691 0.201694 0
-0.286032 0.185265 0
-0.292492 0.167105 0
-0.297403 0.147899 0
-0.301022 0.128171 0
-0.303551 0.108302 0
-0.305148 0.088546 0
-0.305942 0.069045 0
-0.306033 0.049846 0
-0.305497 0.030912 0
-0.304383 0.012147 0
-0.302716 -0.006592 0
-0.300493 -0.025478 0
-0.297661 -0.044727 0
-0.294155 -0.064551 0
-0.289887 -0.085110 0
-0.284761 -0.106498 0
-0.278675 -0.128718 0
-0.271531 -0.151657 0
-0.263235 -0.175058 0
-0.253689 -0.198483 0
-0.242772 -0.221259 0
-0.230295 -0.242410 0
-0.215920 -0.260519 0
-0.199046 -0.273507 0
-0.178658 -0.278218 0
-0.153234 -0.269697 0
-0.120955 -0.240023 0
-0.080837 -0.176690 0
-0.036172 -0.062630 0
0.000000 0.004721 0
0.000000 0.067309 0
-0.042273 0.155394 0
-0.084569 0.190808 0
-0.121875 0.217141 0
-0.154051 0.236548 0
-0.181179 0.247925 0
-0.203582 0.251554 0
-0.221718 0.248354 0
-0.236148 0.239552 0
-0.247442 0.226430 0
-0.256138 0.210159 0
-0.262701 0.191726 0
-0.267513 0.171920 0
-0.270890 0.151356 0
-0.273091 0.130505 0
-0.274338 0.109706 0
-0.274815 0.089178 0
-0.274679 0.069035 0
-0.274059 0.049295 0
-0.273058 0.029896 0
-0.271743 0.010710 0
-0.270151 -0.008435 0
-0.268284 -0.027754 0
-0.266087 -0.047497 0
-0.263483 -0.067898 0
-0.260371 -0.089133 0
-0.256635 -0.111306 0
-0.252151 -0.134420 0
-0.246798 -0.158361 0
-0.240459 -0.182870 0
-0.233016 -0.207516 0
-0.224341 -0.231668 0
-0.214258 -0.254437 0
-0.202487 -0.274588 0
-0.188551 -0.290351 0
-0.171619 -0.299017 0
-0.150347 -0.296078 0
-0.122843 -0.273573 0
-0.087211 -0.217390 0
-0.043561 -0.105762 0
0.000000 -0.016447 0
0.000000 0.087693 0
-0.038831 0.196319 0
-0.078259 0.229423 0
-0.112921 0.250713 0
-0.142556 0.265008 0
-0.167229 0.271488 0
-0.187298 0.270653 0
-0.203274 0.263538 0
-0.215742 0.251406 0
-0.225270 0.235511 0
-0.232365 0.216953 0
-0.237456 0.196640 0
-0.240901 0.175294 0
-0.243005 0.153478 0
-0.244035 0.131619 0
-0.244224 0.110025 0
-0.243781 0.088887 0
-0.242886 0.068290 0
-0.241695 0.048225 0
-0.240333 0.028596 0
-0.238889 0.009241 0
-0.237410 -0.010050 0
-0.235900 -0.029542 0
-0.234298 -0.049528 0
-0.232515 -0.070267 0
-0.230433 -0.091959 0
-0.227914 -0.114718 0
-0.224812 -0.138555 0
-0.220981 -0.163350 0
-0.216280 -0.188840 0
-0.210574 -0.214600 0
-0.203719 -0.240018 0
-0.195548 -0.264264 0
-0.185825 -0.286226 0
-0.174179 -0.304375 0
-0.159966 -0.316421 0
-0.142041 -0.318473 0
-0.118484 -0.303159 0
-0.086637 -0.255971 0
-0.044702 -0.149841 0
0.000000 -0.038841 0
0.000000 0.106140 0
-0.034718 0.233653 0
-0.070613 0.264899 0
-0.102132 0.281438 0
-0.128946 0.290856 0
-0.151102 0.292667 0
-0.168941 0.287599 0
-0.182962 0.276799 0
-0.193718 0.261548 0
-0.201734 0.243053 0
-0.207471 0.222345 0
-0.211323 0.200261 0
-0.213625 0.177469 0
-0.214674 0.154491 0
-0.214737 0.131725 0
-0.214058 0.109451 0
-0.212861 0.087839 0
-0.211350 0.066949 0
-0.209704 0.046743 0
-0.208071 0.027091 0
-0.206556 0.007787 0
-0.205216 -0.011425 0
-0.204053 -0.030867 0
-0.202999 -0.050882 0
-0.201950 -0.071763 0
-0.200770 -0.093734 0
-0.199298 -0.116927 0
-0.197368 -0.141354 0
-0.194815 -0.166893 0
-0.191479 -0.193276 0
-0.187211 -0.220077 0
-0.181856 -0.246694 0
-0.175247 -0.272331 0
-0.167173 -0.295957 0
-0.157338 -0.316210 0
-0.145253 -0.331155 0
-0.130005 -0.337560 0
-0.109858 -0.328977 0
-0.081933 -0.291172 0
-0.043418 -0.192399 0
0.000000 -0.061150 0
0.000000 0.122411 0
-0.030255 0.266931 0
-0.062291 0.296836 0
-0.090424 0.309046 0
-0.114287 0.313978 0
-0.133910 0.311484 0
-0.149598 0.302514 0
-0.161802 0.288315 0
-0.171012 0.270178 0
-0.177696 0.249264 0
-0.182261 0.226542 0
-0.185063 0.202793 0
-0.186413 0.178645 0
-0.186595 0.154590 0
-0.185873 0.131004 0
-0.184495 0.108150 0
-0.182696 0.086179 0
-0.180699 0.065133 0
-0.178704 0.044945 0
-0.176877 0.025448 0
-0.175341 0.006386 0
-0.174159 -0.012553 0
-0.173326 -0.031760 0
-0.172765 -0.051631 0
-0.172355 -0.072496 0
-0.171939 -0.094611 0
-0.171341 -0.118120 0
-0.170377 -0.143038 0
-0.168868 -0.169238 0
-0.166648 -0.196444 0
-0.163559 -0.224223 0
-0.159445 -0.251982 0
-0.154140 -0.278947 0
-0.147448 -0.304134 0
-0.139119 -0.326295 0
-0.128777 -0.343755 0
-0.115740 -0.353869 0
-0.098594 -0.351231 0
-0.074615 -0.322411 0
-0.040380 -0.231775 0
0.000000 -0.082258 0
0.000000 0.136395 0
-0.025649 0.295944 0
-0.053705 0.325067 0
-0.078373 0.333434 0
-0.099256 0.334343 0
-0.116373 0.327979 0
-0.129983 0.315490 0
-0.140474 0.298213 0
-0.148266 0.277442 0
-0.153760 0.254302 0
-0.157308 0.229712 0
-0.159226 0.204413 0
-0.159799 0.179001 0
-0.159290 0.153951 0
-0.157954 0.129624 0
-0.156038 0.106274 0
-0.153785 0.084043 0
-0.151428 0.062956 0
-0.149185 0.042921 0
-0.147241 0.023728 0
-0.145729 0.005069 0
-0.144717 -0.013440 0
-0.144190 -0.032261 0
-0.144056 -0.051854 0
-0.144177 -0.072589 0
-0.144379 -0.094748 0
-0.144472 -0.118489 0
-0.144263 -0.143826 0
-0.143571 -0.170621 0
-0.142229 -0.198586 0
-0.140085 -0.227280 0
-0.136990 -0.256113 0
-0.132788 -0.284328 0
-0.127298 -0.310977 0
-0.120301 -0.334881 0
-0.111502 -0.354534 0
-0.100412 -0.367744 0
-0.085982 -0.370103 0
-0.065867 -0.349386 0
-0.036357 -0.267014 0
0.000000 -0.101530 0
0.000000 0.148060 0
-0.021021 0.320637 0
-0.045097 0.349560 0
-0.066321 0.354597 0
-0.084262 0.351978 0
-0.098931 0.342211 0
-0.110541 0.326615 0
-0.119413 0.306598 0
-0.125897 0.283464 0
-0.130325 0.258306 0
-0.132998 0.232009 0
-0.134188 0.205284 0
-0.134149 0.178708 0
-0.133123 0.152745 0
-0.131346 0.127752 0
-0.129059 0.103980 0
-0.126502 0.081569 0
-0.123918 0.060533 0
-0.121533 0.040758 0
-0.119545 0.021992 0
-0.118099 0.003862 0
-0.117262 -0.014093 0
-0.117005 -0.032421 0
-0.117220 -0.051643 0
-0.117749 -0.072173 0
-0.118407 -0.094316 0
-0.118996 -0.118236 0
-0.119325 -0.143939 0
-0.119221 -0.171272 0
-0.118530 -0.199930 0
-0.117113 -0.229462 0
-0.114842 -0.259279 0
-0.111577 -0.288638 0
-0.107160 -0.316621 0
-0.101400 -0.342092 0
-0.094061 -0.363644 0
-0.084800 -0.379389 0
-0.072899 -0.385776 0
-0.056493 -0.372036 0
-0.031837 -0.297642 0
0.000000 -0.118615 0
0.000000 0.157416 0
-0.016429 0.341041 0
-0.036591 0.370367 0
-0.054449 0.372598 0
-0.069525 0.366953 0
-0.081826 0.354258 0
-0.091520 0.335973 0
-0.098865 0.313568 0
-0.104143 0.288354 0
-0.107624 0.261403 0
-0.109557 0.233576 0
-0.110172 0.205565 0
-0.109688 0.177936 0
-0.108319 0.151147 0
-0.106282 0.125560 0
-0.103800 0.101431 0
-0.101106 0.078903 0
-0.098437 0.057987 0
-0.096023 0.038548 0
-0.094069 0.020295 0
-0.092726 0.002786 0
-0.092059 -0.014534 0
-0.092021 -0.032304 0
-0.092486 -0.051109 0
-0.093280 -0.071402 0
-0.094211 -0.093502 0
-0.095088 -0.117571 0
-0.095732 -0.143600 0
-0.095990 -0.171417 0
-0.095730 -0.200693 0
-0.094842 -0.230968 0
-0.093219 -0.261649 0
-0.090752 -0.292010 0
-0.087308 -0.321154 0
-0.082729 -0.347981 0
-0.076828 -0.371134 0
-0.069366 -0.388906 0
-0.059885 -0.398410 0
-0.047006 -0.390447 0
-0.027146 -0.323507 0
0.000000 -0.133367 0
0.000000 0.164489 0
-0.011894 0.357228 0
-0.028234 0.387580 0
-0.042828 0.387530 0
-0.055135 0.379355 0
-0.065158 0.364206 0
-0.073024 0.343654 0
-0.078933 0.319221 0
-0.083105 0.292222 0
-0.085753 0.263720 0
-0.087078 0.234557 0
-0.087267 0.205415 0
-0.086504 0.176856 0
-0.084973 0.149339 0
-0.082864 0.123233 0
-0.080378 0.098805 0
-0.077729 0.076206 0
-0.075135 0.055451 0
-0.072818 0.036390 0
-0.070977 0.018694 0
-0.069767 0.001852 0
-0.069251 -0.014798 0
-0.069361 -0.031994 0
-0.069952 -0.050384 0
-0.070842 -0.070448 0
-0.071845 -0.092509 0
-0.072788 -0.116715 0
-0.073520 -0.143037 0
-0.073920 -0.171274 0
-0.073889 -0.201078 0
-0.073348 -0.231973 0
-0.072223 -0.263369 0
-0.070434 -0.294550 0
-0.067884 -0.324643 0
-0.064452 -0.352571 0
-0.059993 -0.377007 0
-0.054343 -0.396332 0
-0.047227 -0.408136 0
-0.037699 -0.404775 0
-0.022477 -0.344648 0
0.000000 -0.145762 0
0.000000 0.169310 0
-0.007414 0.369275 0
-0.020019 0.401301 0
-0.031455 0.399499 0
-0.041093 0.389283 0
-0.048928 0.372147 0
-0.055053 0.349748 0
-0.059614 0.323650 0
-0.062776 0.295174 0
-0.064699 0.265376 0
-0.065538 0.235089 0
-0.065443 0.204991 0
-0.064562 0.175642 0
-0.063046 0.147508 0
-0.061057 0.120966 0
-0.058764 0.096296 0
-0.056352 0.073660 0
-0.054009 0.053076 0
-0.051928 0.034390 0
-0.050286 0.017244 0
-0.049233 0.001060 0
-0.048830 -0.014941 0
-0.048990 -0.031603 0
-0.049555 -0.049628 0
-0.050349 -0.069508 0
-0.051208 -0.091556 0
-0.051993 -0.115896 0
-0.052595 -0.142468 0
-0.052934 -0.171048 0
-0.052951 -0.201265 0
-0.052603 -0.232634 0
-0.051850 -0.264563 0
-0.050646 -0.296348 0
-0.048930 -0.327136 0
-0.046619 -0.355872 0
-0.043613 -0.381244 0
-0.039803 -0.401672 0
-0.035035 -0.415053 0
-0.028706 -0.415197 0
-0.017927 -0.361206 0
0.000000 -0.155844 0
0.000000 0.171903 0
-0.002996 0.377247 0
-0.011904 0.411620 0
-0.020274 0.408604 0
-0.027332 0.396829 0
-0.033064 0.378166 0
-0.037528 0.354340 0
-0.040822 0.326943 0
-0.043058 0.297307 0
-0.044353 0.266482 0
-0.044818 0.235301 0
-0.044565 0.204439 0
-0.043710 0.174459 0
-0.042371 0.145834 0
-0.040677 0.118951 0
-0.038764 0.094100 0
-0.036777 0.071452 0
-0.034862 0.051027 0
-0.033163 0.032666 0
-0.031813 0.015999 0
-0.030940 0.000396 0
-0.030596 -0.015041 0
-0.030683 -0.031269 0
-0.031045 -0.049025 0
-0.031536 -0.068795 0
-0.032036 -0.090865 0
-0.032456 -0.115328 0
-0.032735 -0.142096 0
-0.032842 -0.170918 0
-0.032762 -0.201409 0
-0.032487 -0.233074 0
-0.032013 -0.265326 0
-0.031326 -0.297470 0
-0.030402 -0.328669 0
-0.029199 -0.357887 0
-0.027659 -0.383823 0
-0.025719 -0.404911 0
-0.023301 -0.419233 0
-0.020053 -0.421883 0
-0.013525 -0.373354 0
0.000000 -0.163688 0
0.000000 0.172306 0
0.001297 0.381179 0
-0.003801 0.418578 0
-0.009183 0.414928 0
-0.013751 0.402074 0
-0.017450 0.382342 0
-0.020319 0.357505 0
-0.022412 0.329180 0
-0.023795 0.298705 0
-0.024538 0.267135 0
-0.024717 0.235302 0
-0.024408 0.203883 0
-0.023692 0.173448 0
-0.022659 0.144475 0
-0.021400 0.117359 0
-0.020017 0.092396 0
-0.018610 0.069758 0
-0.017275 0.049462 0
-0.016097 0.031340 0
-0.015127 0.015021 0
-0.014453 -0.000157 0
-0.014105 -0.015198 0
-0.013974 -0.031154 0
-0.013951 -0.048774 0
-0.013948 -0.068517 0
-0.013907 -0.090637 0
-0.013795 -0.115197 0
-0.013610 -0.142082 0
-0.013366 -0.171021 0
-0.013091 -0.201620 0
-0.012814 -0.233383 0
-0.012561 -0.265724 0
-0.012353 -0.297959 0
-0.012200 -0.329263 0
-0.012101 -0.358615 0
-0.012042 -0.384723 0
-0.012001 -0.406029 0
-0.011949 -0.420719 0
-0.011701 -0.424973 0
-0.009262 -0.381259 0
0.000000 -0.169369 0
0.000000 0.170607 0
0.005485 0.381048 0
0.004337 0.422100 0
0.001920 0.418554 0
-0.000206 0.405095 0
-0.001927 0.384734 0
-0.003254 0.359302 0
-0.004198 0.330419 0
-0.004779 0.299433 0
-0.005026 0.267404 0
-0.004975 0.235170 0
-0.004673 0.203414 0
-0.004168 0.172710 0
-0.003516 0.143542 0
-0.002779 0.116310 0
-0.002015 0.091310 0
-0.001278 0.068709 0
-0.000609 0.048514 0
-0.000027 0.030518 0
0.000485 0.014356 0
0.000942 -0.000625 0
0.001385 -0.015520 0
0.001872 -0.031423 0
0.002423 -0.049051 0
0.003049 -0.068839 0
0.003741 -0.091018 0
0.004471 -0.115625 0
0.005190 -0.142525 0
0.005835 -0.171437 0
0.006343 -0.201961 0
0.006650 -0.233605 0
0.006698 -0.265787 0
0.006434 -0.297831 0
0.005813 -0.328921 0
0.004799 -0.358045 0
0.003360 -0.383923 0
0.001480 -0.405004 0
-0.000855 -0.419534 0
-0.003561 -0.424570 0
-0.005096 -0.385055 0
0.000000 -0.172950 0
0.000000 0.166821 0
0.009689 0.376842 0
0.012562 0.422144 0
0.013138 0.419470 0
0.013436 0.405921 0
0.013657 0.385391 0
0.013840 0.359776 0
0.014017 0.330704 0
0.014212 0.299532 0
0.014438 0.267331 0
0.014695 0.234949 0
0.014970 0.203076 0
0.015245 0.172291 0
0.015494 0.143086 0
0.015694 0.115857 0
0.015828 0.090895 0
0.015893 0.068352 0
0.015912 0.048210 0
0.015934 0.030246 0
0.016027 0.014052 0
0.016320 -0.001057 0
0.016919 -0.016128 0
0.017803 -0.032192 0
0.018910 -0.049950 0
0.020175 -0.069835 0
0.021524 -0.092059 0
0.022869 -0.116645 0
0.024109 -0.143446 0
0.025140 -0.172175 0
0.025861 -0.202435 0
0.026177 -0.233738 0
0.025996 -0.265508 0
0.025235 -0.297075 0
0.023814 -0.327628 0
0.021654 -0.356162 0
0.018686 -0.381405 0
0.014849 -0.401814 0
0.010102 -0.415679 0
0.004478 -0.420733 0
-0.000951 -0.384820 0
0.000000 -0.174465 0
0.000000 0.160918 0
0.013982 0.368487 0
0.020986 0.418651 0
0.024600 0.417679 0
0.027293 0.404576 0
0.029433 0.384330 0
0.031110 0.358943 0
0.032399 0.330048 0
0.033369 0.299012 0
0.034077 0.266922 0
0.034557 0.234638 0
0.034830 0.202864 0
0.034910 0.172186 0
0.034805 0.143092 0
0.034530 0.115976 0
0.034113 0.091111 0
0.033606 0.068626 0
0.033091 0.048473 0
0.032683 0.030403 0
0.032512 0.013970 0
0.032745 -0.001517 0
0.033495 -0.017003 0
0.034718 -0.033414 0
0.036304 -0.051423 0
0.038126 -0.071454 0
0.040046 -0.093711 0
0.041920 -0.118209 0
0.043600 -0.144796 0
0.044940 -0.173190 0
0.045804 -0.202998 0
0.046063 -0.233740 0
0.045594 -0.264846 0
0.044280 -0.295648 0
0.042003 -0.325340 0
0.038647 -0.352918 0
0.034094 -0.377118 0