# vtk DataFile Version 2.0
generated by CFD-lab course output (written by Tobias Neckel) 
ASCII

DATASET STRUCTURED_GRID
DIMENSIONS  41 41 1 
POINTS 1681 float

0.150000 0.150000 0
0.167857 0.150000 0
0.185714 0.150000 0
0.203571 0.150000 0
0.221429 0.150000 0
0.239286 0.150000 0
0.257143 0.150000 0
0.275000 0.150000 0
0.292857 0.150000 0
0.310714 0.150000 0
0.328571 0.150000 0
0.346429 0.150000 0
0.364286 0.150000 0
0.382143 0.150000 0
0.400000 0.150000 0
0.417857 0.150000 0
0.435714 0.150000 0
0.453571 0.150000 0
0.471429 0.150000 0
0.489286 0.150000 0
0.507143 0.150000 0
0.525000 0.150000 0
0.542857 0.150000 0
0.560714 0.150000 0
0.578571 0.150000 0
0.596429 0.150000 0
0.614286 0.150000 0
0.632143 0.150000 0
0.650000 0.150000 0
0.667857 0.150000 0
0.685714 0.150000 0
0.703571 0.150000 0
0.721429 0.150000 0
0.739286 0.150000 0
0.757143 0.150000 0
0.775000 0.150000 0
0.792857 0.150000 0
0.810714 0.150000 0
0.828571 0.150000 0
0.846429 0.150000 0
0.864286 0.150000 0
0.150000 0.167857 0
0.167857 0.167857 0
0.185714 0.167857 0
0.203571 0.167857 0
0.221429 0.167857 0
0.239286 0.167857 0
0.257143 0.167857 0
0.275000 0.167857 0
0.292857 0.167857 0
0.310714 0.167857 0
0.328571 0.167857 0
0.346429 0.167857 0
0.364286 0.167857 0
0.382143 0.167857 0
0.400000 0.167857 0
0.417857 0.167857 0
0.435714 0.167857 0
0.453571 0.167857 0
0.471429 0.167857 0
0.489286 0.167857 0
0.507143 0.167857 0
0.525000 0.167857 0
0.542857 0.167857 0
0.560714 0.167857 0
0.578571 0.167857 0
0.596429 0.167857 0
0.614286 0.167857 0
0.632143 0.167857 0
0.650000 0.167857 0
0.667857 0.167857 0
0.685714 0.167857 0
0.703571 0.167857 0
0.721429 0.167857 0
0.739286 0.167857 0
0.757143 0.167857 0
0.775000 0.167857 0
0.792857 0.167857 0
0.810714 0.167857 0
0.828571 0.167857 0
0.846429 0.167857 0
0.864286 0.167857 0
0.150000 0.185714 0
0.167857 0.185714 0
0.185714 0.185714 0
0.203571 0.185714 0
0.221429 0.185714 0
0.239286 0.185714 0
0.257143 0.185714 0
0.275000 0.185714 0
0.292857 0.185714 0
0.310714 0.185714 0
0.328571 0.185714 0
0.346429 0.185714 0
0.364286 0.185714 0
0.382143 0.185714 0
0.400000 0.185714 0
0.417857 0.185714 0
0.435714 0.185714 0
0.453571 0.185714 0
0.471429 0.185714 0
0.489286 0.185714 0
0.507143 0.185714 0
0.525000 0.185714 0
0.542857 0.185714 0
0.560714 0.185714 0
0.578571 0.185714 0
0.596429 0.185714 0
0.614286 0.185714 0
0.632143 0.185714 0
0.650000 0.185714 0
0.667857 0.185714 0
0.685714 0.185714 0
0.703571 0.185714 0
0.721429 0.185714 0
0.739286 0.185714 0
0.757143 0.185714 0
0.775000 0.185714 0
0.792857 0.185714 0
0.810714 0.185714 0
0.828571 0.185714 0
0.846429 0.185714 0
0.864286 0.185714 0
0.150000 0.203571 0
0.167857 0.203571 0
0.185714 0.203571 0
0.203571 0.203571 0
0.221429 0.203571 0
0.239286 0.203571 0
0.257143 0.203571 0
0.275000 0.203571 0
0.292857 0.203571 0
0.310714 0.203571 0
0.328571 0.203571 0
0.346429 0.203571 0
0.364286 0.203571 0
0.382143 0.203571 0
0.400000 0.203571 0
0.417857 0.203571 0
0.435714 0.203571 0
0.453571 0.203571 0
0.471429 0.203571 0
0.489286 0.203571 0
0.507143 0.203571 0
0.525000 0.203571 0
0.542857 0.203571 0
0.560714 0.203571 0
0.578571 0.203571 0
0.596429 0.203571 0
0.614286 0.203571 0
0.632143 0.203571 0
0.650000 0.203571 0
0.667857 0.203571 0
0.685714 0.203571 0
0.703571 0.203571 0
0.721429 0.203571 0
0.739286 0.203571 0
0.757143 0.203571 0
0.775000 0.203571 0
0.792857 0.203571 0
0.810714 0.203571 0
0.828571 0.203571 0
0.846429 0.203571 0
0.864286 0.203571 0
0.150000 0.221429 0
0.167857 0.221429 0
0.185714 0.221429 0
0.203571 0.221429 0
0.221429 0.221429 0
0.239286 0.221429 0
0.257143 0.221429 0
0.275000 0.221429 0
0.292857 0.221429 0
0.310714 0.221429 0
0.328571 0.221429 0
0.346429 0.221429 0
0.364286 0.221429 0
0.382143 0.221429 0
0.400000 0.221429 0
0.417857 0.221429 0
0.435714 0.221429 0
0.453571 0.221429 0
0.471429 0.221429 0
0.489286 0.221429 0
0.507143 0.221429 0
0.525000 0.221429 0
0.542857 0.221429 0
0.560714 0.221429 0
0.578571 0.221429 0
0.596429 0.221429 0
0.614286 0.221429 0
0.632143 0.221429 0
0.650000 0.221429 0
0.667857 0.221429 0
0.685714 0.221429 0
0.703571 0.221429 0
0.721429 0.221429 0
0.739286 0.221429 0
0.757143 0.221429 0
0.775000 0.221429 0
0.792857 0.221429 0
0.810714 0.221429 0
0.828571 0.221429 0
0.846429 0.221429 0
0.864286 0.221429 0
0.150000 0.239286 0
0.167857 0.239286 0
0.185714 0.239286 0
0.203571 0.239286 0
0.221429 0.239286 0
0.239286 0.239286 0
0.257143 0.239286 0
0.275000 0.239286 0
0.292857 0.239286 0
0.310714 0.239286 0
0.328571 0.239286 0
0.346429 0.239286 0
0.364286 0.239286 0
0.382143 0.239286 0
0.400000 0.239286 0
0.417857 0.239286 0
0.435714 0.239286 0
0.453571 0.239286 0
0.471429 0.239286 0
0.489286 0.239286 0
0.507143 0.239286 0
0.525000 0.239286 0
0.542857 0.239286 0
0.560714 0.239286 0
0.578571 0.239286 0
0.596429 0.239286 0
0.614286 0.239286 0
0.632143 0.239286 0
0.650000 0.239286 0
0.667857 0.239286 0
0.685714 0.239286 0
0.703571 0.239286 0
0.721429 0.239286 0
0.739286 0.239286 0
0.757143 0.239286 0
0.775000 0.239286 0
0.792857 0.239286 0
0.810714 0.239286 0
0.828571 0.239286 0
0.846429 0.239286 0
0.864286 0.239286 0
0.150000 0.257143 0
0.167857 0.257143 0
0.185714 0.257143 0
0.203571 0.257143 0
0.221429 0.257143 0
0.239286 0.257143 0
0.257143 0.257143 0
0.275000 0.257143 0
0.292857 0.257143 0
0.310714 0.257143 0
0.328571 0.257143 0
0.346429 0.257143 0
0.364286 0.257143 0
0.382143 0.257143 0
0.400000 0.257143 0
0.417857 0.257143 0
0.435714 0.257143 0
0.453571 0.257143 0
0.471429 0.257143 0
0.489286 0.257143 0
0.507143 0.257143 0
0.525000 0.257143 0
0.542857 0.257143 0
0.560714 0.257143 0
0.578571 0.257143 0
0.596429 0.257143 0
0.614286 0.257143 0
0.632143 0.257143 0
0.650000 0.257143 0
0.667857 0.257143 0
0.685714 0.257143 0
0.703571 0.257143 0
0.721429 0.257143 0
0.739286 0.257143 0
0.757143 0.257143 0
0.775000 0.257143 0
0.792857 0.257143 0
0.810714 0.257143 0
0.828571 0.257143 0
0.846429 0.257143 0
0.864286 0.257143 0
0.150000 0.275000 0
0.167857 0.275000 0
0.185714 0.275000 0
0.203571 0.275000 0
0.221429 0.275000 0
0.239286 0.275000 0
0.257143 0.275000 0
0.275000 0.275000 0
0.292857 0.275000 0
0.310714 0.275000 0
0.328571 0.275000 0
0.346429 0.275000 0
0.364286 0.275000 0
0.382143 0.275000 0
0.400000 0.275000 0
0.417857 0.275000 0
0.435714 0.275000 0
0.453571 0.275000 0
0.471429 0.275000 0
0.489286 0.275000 0
0.507143 0.275000 0
0.525000 0.275000 0
0.542857 0.275000 0
0.560714 0.275000 0
0.578571 0.275000 0
0.596429 0.275000 0
0.614286 0.275000 0
0.632143 0.275000 0
0.650000 0.275000 0
0.667857 0.275000 0
0.685714 0.275000 0
0.703571 0.275000 0
0.721429 0.275000 0
0.739286 0.275000 0
0.757143 0.275000 0
0.775000 0.275000 0
0.792857 0.275000 0
0.810714 0.275000 0
0.828571 0.275000 0
0.846429 0.275000 0
0.864286 0.275000 0
0.150000 0.292857 0
0.167857 0.292857 0
0.185714 0.292857 0
0.203571 0.292857 0
0.221429 0.292857 0
0.239286 0.292857 0
0.257143 0.292857 0
0.275000 0.292857 0
0.292857 0.292857 0
0.310714 0.292857 0
0.328571 0.292857 0
0.346429 0.292857 0
0.364286 0.292857 0
0.382143 0.292857 0
0.400000 0.292857 0
0.417857 0.292857 0
0.435714 0.292857 0
0.453571 0.292857 0
0.471429 0.292857 0
0.489286 0.292857 0
0.507143 0.292857 0
0.525000 0.292857 0
0.542857 0.292857 0
0.560714 0.292857 0
0.578571 0.292857 0
0.596429 0.292857 0
0.614286 0.292857 0
0.632143 0.292857 0
0.650000 0.292857 0
0.667857 0.292857 0
0.685714 0.292857 0
0.703571 0.292857 0
0.721429 0.292857 0
0.739286 0.292857 0
0.757143 0.292857 0
0.775000 0.292857 0
0.792857 0.292857 0
0.810714 0.292857 0
0.828571 0.292857 0
0.846429 0.292857 0
0.864286 0.292857 0
0.150000 0.310714 0
0.167857 0.310714 0
0.185714 0.310714 0
0.203571 0.310714 0
0.221429 0.310714 0
0.239286 0.310714 0
0.257143 0.310714 0
0.275000 0.310714 0
0.292857 0.310714 0
0.310714 0.310714 0
0.328571 0.310714 0
0.346429 0.310714 0
0.364286 0.310714 0
0.382143 0.310714 0
0.400000 0.310714 0
0.417857 0.310714 0
0.435714 0.310714 0
0.453571 0.310714 0
0.471429 0.310714 0
0.489286 0.310714 0
0.507143 0.310714 0
0.525000 0.310714 0
0.542857 0.310714 0
0.560714 0.310714 0
0.578571 0.310714 0
0.596429 0.310714 0
0.614286 0.310714 0
0.632143 0.310714 0
0.650000 0.310714 0
0.667857 0.310714 0
0.685714 0.310714 0
0.703571 0.310714 0
0.721429 0.310714 0
0.739286 0.310714 0
0.757143 0.310714 0
0.775000 0.310714 0
0.792857 0.310714 0
0.810714 0.310714 0
0.828571 0.310714 0
0.846429 0.310714 0
0.864286 0.310714 0
0.150000 0.328571 0
0.167857 0.328571 0
0.185714 0.328571 0
0.203571 0.328571 0
0.221429 0.328571 0
0.239286 0.328571 0
0.257143 0.328571 0
0.275000 0.328571 0
0.292857 0.328571 0
0.310714 0.328571 0
0.328571 0.328571 0
0.346429 0.328571 0
0.364286 0.328571 0
0.382143 0.328571 0
0.400000 0.328571 0
0.417857 0.328571 0
0.435714 0.328571 0
0.453571 0.328571 0
0.471429 0.328571 0
0.489286 0.328571 0
0.507143 0.328571 0
0.525000 0.328571 0
0.542857 0.328571 0
0.560714 0.328571 0
0.578571 0.328571 0
0.596429 0.328571 0
0.614286 0.328571 0
0.632143 0.328571 0
0.650000 0.328571 0
0.667857 0.328571 0
0.685714 0.328571 0
0.703571 0.328571 0
0.721429 0.328571 0
0.739286 0.328571 0
0.757143 0.328571 0
0.775000 0.328571 0
0.792857 0.328571 0
0.810714 0.328571 0
0.828571 0.328571 0
0.846429 0.328571 0
0.864286 0.328571 0
0.150000 0.346429 0
0.167857 0.346429 0
0.185714 0.346429 0
0.203571 0.346429 0
0.221429 0.346429 0
0.239286 0.346429 0
0.257143 0.346429 0
0.275000 0.346429 0
0.292857 0.346429 0
0.310714 0.346429 0
0.328571 0.346429 0
0.346429 0.346429 0
0.364286 0.346429 0
0.382143 0.346429 0
0.400000 0.346429 0
0.417857 0.346429 0
0.435714 0.346429 0
0.453571 0.346429 0
0.471429 0.346429 0
0.489286 0.346429 0
0.507143 0.346429 0
0.525000 0.346429 0
0.542857 0.346429 0
0.560714 0.346429 0
0.578571 0.346429 0
0.596429 0.346429 0
0.614286 0.346429 0
0.632143 0.346429 0
0.650000 0.346429 0
0.667857 0.346429 0
0.685714 0.346429 0
0.703571 0.346429 0
0.721429 0.346429 0
0.739286 0.346429 0
0.757143 0.346429 0
0.775000 0.346429 0
0.792857 0.346429 0
0.810714 0.346429 0
0.828571 0.346429 0
0.846429 0.346429 0
[...]
POINT_DATA 1681 

VECTORS velocity float
0.000000 0.000000 0
0.004952 0.000000 0
0.011054 0.000000 0
0.013718 0.000000 0
0.014277 0.000000 0
0.013673 0.000000 0
0.011708 0.000000 0
0.016558 0.000000 0
0.020133 0.000000 0
0.010689 0.000000 0
-0.005779 0.000000 0
-0.024418 0.000000 0
-0.043603 0.000000 0
-0.062282 0.000000 0
-0.079749 0.000000 0
-0.095578 0.000000 0
-0.109620 0.000000 0
-0.121734 0.000000 0
-0.131887 0.000000 0
-0.140077 0.000000 0
-0.146324 0.000000 0
-0.150650 0.000000 0
-0.153061 0.000000 0
-0.153587 0.000000 0
-0.152115 0.000000 0
-0.148502 0.000000 0
-0.142670 0.000000 0
-0.134523 0.000000 0
-0.123974 0.000000 0
-0.110948 0.000000 0
-0.095495 0.000000 0
-0.077657 0.000000 0
-0.057653 0.000000 0
-0.035924 0.000000 0
-0.013249 0.000000 0
0.009059 0.000000 0
0.024772 0.000000 0
0.028652 0.000000 0
0.021506 0.000000 0
0.010005 0.000000 0
0.000000 0.000000 0
0.000000 -0.004952 0
0.013882 -0.011054 0
0.026654 -0.008767 0
0.032031 -0.003222 0
0.033085 0.000045 0
0.032534 0.002569 0
0.022981 -0.002885 0
0.005154 -0.008425 0
-0.017698 0.005869 0
-0.047590 0.025912 0
-0.083309 0.035107 0
-0.121067 0.037823 0
-0.158469 0.037864 0
-0.193882 0.036146 0
-0.226263 0.033296 0
-0.255019 0.029871 0
-0.279892 0.026156 0
-0.300769 0.022267 0
-0.317656 0.018343 0
-0.330614 0.014437 0
-0.339723 0.010573 0
-0.345052 0.006738 0
-0.346640 0.002937 0
-0.344478 -0.000946 0
-0.338497 -0.005085 0
-0.328610 -0.009446 0
-0.314661 -0.013979 0
-0.296478 -0.018696 0
-0.273890 -0.023575 0
-0.246766 -0.028479 0
-0.215090 -0.033291 0
-0.178982 -0.037842 0
-0.138862 -0.041733 0
-0.095654 -0.044404 0
-0.051128 -0.044983 0
-0.008498 -0.038021 0
0.026504 -0.019593 0
0.044304 0.003266 0
0.034609 0.018646 0
0.016107 0.021506 0
0.000000 0.010005 0
0.000000 -0.013882 0
0.017033 -0.026654 0
0.027333 -0.018149 0
0.029986 -0.006432 0
0.018700 -0.000503 0
-0.000933 0.010105 0
-0.028639 0.027380 0
-0.072048 0.040678 0
-0.120192 0.052744 0
-0.160321 0.065611 0
-0.196688 0.073476 0
-0.231208 0.075160 0
-0.263167 0.072815 0
-0.291943 0.067794 0
-0.317193 0.061137 0
-0.338774 0.053629 0
-0.356613 0.045750 0
-0.370812 0.037764 0
-0.381483 0.029845 0
-0.388753 0.022067 0
-0.392728 0.014438 0
-0.393483 0.006917 0
-0.391055 -0.000574 0
-0.385386 -0.008143 0
-0.376517 -0.015869 0
-0.364436 -0.023836 0
-0.349001 -0.032131 0
-0.330057 -0.040771 0
-0.307440 -0.049713 0
-0.281026 -0.058800 0
-0.250695 -0.067784 0
-0.216560 -0.076228 0
-0.178970 -0.083327 0
-0.138748 -0.087734 0
-0.097508 -0.087156 0
-0.058113 -0.077632 0
-0.021151 -0.052802 0
0.008480 -0.008105 0
0.016371 0.028197 0
0.007382 0.034609 0
0.000000 0.016107 0
0.000000 -0.021984 0
0.010183 -0.038388 0
0.007787 -0.021720 0
-0.008671 0.005411 0
-0.035692 0.030964 0
-0.073832 0.049908 0
-0.113306 0.068230 0
-0.152741 0.083128 0
-0.192492 0.094143 0
-0.228328 0.102408 0
-0.259154 0.105993 0
-0.286239 0.104302 0
-0.309941 0.098600 0
-0.330444 0.090172 0
-0.347899 0.080127 0
-0.362445 0.069291 0
-0.374182 0.058193 0
-0.383246 0.047137 0
-0.389744 0.036284 0
-0.393761 0.025681 0
-0.395353 0.015303 0
-0.394539 0.005065 0
-0.391309 -0.005160 0
-0.385628 -0.015484 0
-0.377456 -0.026035 0
-0.366667 -0.036962 0
-0.353139 -0.048358 0
-0.336723 -0.060257 0
-0.317271 -0.072606 0
-0.294647 -0.085224 0
-0.268747 -0.097756 0
-0.239602 -0.109567 0
-0.207415 -0.119546 0
-0.172666 -0.125867 0
-0.136222 -0.125617 0
-0.099358 -0.114378 0
-0.063425 -0.086186 0
-0.029107 -0.034256 0
0.000943 0.019745 0
-0.000288 0.037877 0
0.000000 0.017387 0
0.000000 -0.024065 0
-0.008250 -0.034441 0
-0.031062 0.000705 0
-0.062513 0.037048 0
-0.094528 0.064658 0
-0.130496 0.087719 0
-0.167183 0.106289 0
-0.202041 0.119864 0
-0.234778 0.128331 0
-0.263678 0.132273 0
-0.287995 0.131387 0
-0.308453 0.125947 0
-0.325689 0.117021 0
-0.340201 0.105752 0
-0.352338 0.093137 0
-0.362328 0.079911 0
-0.370303 0.066551 0
-0.376358 0.053326 0
-0.380548 0.040361 0
-0.382905 0.027676 0
-0.383434 0.015216 0
-0.382122 0.002872 0
-0.378936 -0.009485 0
-0.373873 -0.021996 0
-0.366834 -0.034830 0
-0.357724 -0.048153 0
-0.346425 -0.062075 0
-0.332810 -0.076639 0
-0.316746 -0.091789 0
-0.298106 -0.107324 0
-0.276787 -0.122828 0
-0.252741 -0.137560 0
-0.225989 -0.150264 0
-0.196637 -0.158927 0
-0.164860 -0.160464 0
-0.130837 -0.150429 0
-0.094593 -0.123053 0
-0.056015 -0.072473 0
-0.015269 -0.000622 0
-0.003405 0.035552 0
0.000000 0.015819 0
0.000000 -0.013735 0
-0.029179 -0.007326 0
-0.064349 0.032543 0
-0.097039 0.068877 0
-0.131102 0.098948 0
-0.165165 0.122563 0
-0.197881 0.139774 0
-0.227789 0.150723 0
-0.254453 0.155780 0
-0.277232 0.155625 0
-0.296026 0.150768 0
-0.311428 0.141996 0
-0.324069 0.130347 0
-0.334473 0.116821 0
-0.343000 0.102254 0
-0.349874 0.087256 0
-0.355221 0.072224 0
-0.359121 0.057383 0
-0.361622 0.042831 0
-0.362751 0.028567 0
-0.362520 0.014520 0
-0.360923 0.000567 0
-0.357942 -0.013409 0
-0.353561 -0.027586 0
-0.347690 -0.042184 0
-0.340243 -0.057371 0
-0.331112 -0.073272 0
-0.320185 -0.089937 0
-0.307342 -0.107310 0
-0.292467 -0.125182 0
-0.275446 -0.143122 0
-0.256170 -0.160364 0
-0.234514 -0.175650 0
-0.210292 -0.186996 0
-0.183185 -0.191417 0
-0.152666 -0.184645 0
-0.117978 -0.161008 0
-0.078438 -0.113580 0
-0.034714 -0.032864 0
0.004231 0.022608 0
0.000000 0.013982 0
0.000000 0.005114 0
-0.040007 0.029909 0
-0.078973 0.068565 0
-0.115438 0.103800 0
-0.149955 0.132784 0
-0.182033 0.154498 0
-0.211118 0.168913 0
-0.236620 0.176436 0
-0.258403 0.177774 0
-0.276433 0.173847 0
-0.290993 0.165582 0
-0.302648 0.153989 0
-0.311955 0.140066 0
-0.319371 0.124684 0
-0.325220 0.108538 0
-0.329715 0.092132 0
-0.333000 0.075798 0
-0.335175 0.059727 0
-0.336313 0.043991 0
-0.336465 0.028574 0
-0.335664 0.013388 0
-0.333921 -0.001705 0
-0.331236 -0.016847 0
-0.327551 -0.032247 0
-0.322803 -0.048148 0
-0.316902 -0.064731 0
-0.309750 -0.082133 0
-0.301239 -0.100409 0
-0.291256 -0.119508 0
-0.279689 -0.139220 0
-0.266418 -0.159125 0
-0.251301 -0.178491 0
-0.234130 -0.196142 0
-0.214556 -0.210257 0
-0.191987 -0.218090 0
-0.165486 -0.215635 0
-0.133779 -0.197281 0
-0.095554 -0.155737 0
-0.050116 -0.083291 0
0.003859 0.000837 0
0.000000 0.020050 0
0.000000 0.026273 0
-0.042559 0.071647 0
-0.084332 0.107974 0
-0.122073 0.139859 0
-0.155977 0.165543 0
-0.185942 0.183726 0
-0.211880 0.194361 0
-0.233755 0.198009 0
-0.251765 0.195594 0
-0.266224 0.188215 0
-0.277599 0.176983 0
-0.286429 0.162957 0
-0.293200 0.147070 0
-0.298310 0.130086 0
-0.302056 0.112599 0
-0.304664 0.095036 0
-0.306302 0.077683 0
-0.307104 0.060695 0
-0.307172 0.044120 0
-0.306584 0.027917 0
-0.305389 0.011976 0
-0.303611 -0.003861 0
-0.301250 -0.019779 0
-0.298245 -0.036019 0
-0.294531 -0.052833 0
-0.290020 -0.070423 0
-0.284609 -0.088935 0
-0.278186 -0.108431 0
-0.270637 -0.128860 0
-0.261843 -0.150021 0
-0.251682 -0.171510 0
-0.239999 -0.192652 0
-0.226566 -0.212395 0
-0.210991 -0.229139 0
-0.192605 -0.240487 0
-0.170327 -0.242853 0
-0.142618 -0.230941 0
-0.107749 -0.197243 0
-0.064875 -0.132277 0
-0.017185 -0.027508 0
0.000000 0.017840 0
0.000000 0.047673 0
-0.041970 0.114240 0
-0.083783 0.148080 0
-0.120902 0.175445 0
-0.153305 0.196653 0
-0.181011 0.210401 0
-0.204184 0.216726 0
-0.223103 0.216321 0
-0.238191 0.210243 0
-0.249940 0.199681 0
-0.258881 0.185787 0
-0.265523 0.169590 0
-0.270305 0.151947 0
-0.273591 0.133541 0
-0.275673 0.114892 0
-0.276790 0.096377 0
-0.277138 0.078238 0
-0.276878 0.060597 0
-0.276137 0.043471 0
-0.275011 0.026790 0
-0.273566 0.010414 0
-0.271832 -0.005844 0
-0.269812 -0.022213 0
-0.267445 -0.038966 0
-0.264664 -0.056373 0
-0.261374 -0.074653 0
-0.257465 -0.093966 0
-0.252813 -0.114381 0
-0.247292 -0.135850 0
-0.240770 -0.158175 0
-0.233115 -0.180969 0
-0.224168 -0.203608 0
-0.213712 -0.225151 0
-0.201395 -0.244217 0
-0.186613 -0.258754 0
-0.168372 -0.265623 0
-0.145188 -0.259859 0
-0.115284 -0.233479 0
-0.077644 -0.173855 0
-0.035122 -0.064038 0
0.000000 0.002865 0
0.000000 0.068243 0
-0.039636 0.155429 0
-0.079610 0.186905 0
-0.114821 0.209380 0
-0.145068 0.225652 0
-0.170389 0.234606 0
-0.191060 0.236454 0
-0.207510 0.232016 0
-0.220270 0.222430 0
-0.229898 0.208904 0
-0.236931 0.192566 0
-0.241846 0.174382 0
-0.245053 0.155138 0
-0.246899 0.135454 0
-0.247677 0.115798 0
-0.247641 0.096502 0
-0.247004 0.077771 0
-0.245945 0.059694 0
-0.244612 0.042254 0
-0.243116 0.025346 0
-0.241532 0.008798 0
-0.239899 -0.007615 0
-0.238219 -0.024166 0
-0.236435 -0.041167 0
-0.234475 -0.058904 0
-0.232238 -0.077622 0
-0.229603 -0.097496 0
-0.226434 -0.118604 0
-0.222584 -0.140903 0
-0.217907 -0.164198 0
-0.212250 -0.188112 0
-0.205451 -0.212055 0
-0.197307 -0.235168 0
-0.187522 -0.256238 0
-0.175609 -0.273510 0
-0.160746 -0.284278 0
-0.141598 -0.284029 0
-0.116280 -0.264787 0
-0.082865 -0.212439 0
-0.041359 -0.105152 0
0.000000 -0.017282 0
0.000000 0.087309 0
-0.036228 0.193851 0
-0.073294 0.223264 0
-0.105817 0.240903 0
-0.133493 0.252221 0
-0.156349 0.256393 0
-0.174694 0.253847 0
-0.189005 0.245531 0
-0.199837 0.232631 0
-0.207748 0.216341 0
-0.213248 0.197735 0
-0.216787 0.177713 0
-0.218750 0.156999 0
-0.219474 0.136164 0
-0.219255 0.115634 0
-0.218351 0.095704 0
-0.216988 0.076543 0
-0.215357 0.058206 0
-0.213615 0.040642 0
-0.211886 0.023710 0
-0.210252 0.007198 0
-0.208758 -0.009156 0
-0.207402 -0.025677 0
-0.206131 -0.042711 0
-0.204871 -0.060570 0
-0.203515 -0.079525 0
-0.201935 -0.099771 0
-0.199980 -0.121400 0
-0.197490 -0.144377 0
-0.194296 -0.168509 0
-0.190231 -0.193425 0
-0.185119 -0.218551 0
-0.178766 -0.243080 0
-0.170919 -0.265915 0
-0.161197 -0.285531 0
-0.148952 -0.299635 0
-0.133044 -0.304324 0
-0.111562 -0.292212 0
-0.081878 -0.248777 0
-0.042257 -0.146903 0
0.000000 -0.038493 0
0.000000 0.104471 0
-0.032210 0.228724 0
-0.065798 0.256494 0
-0.095214 0.269579 0
-0.120096 0.276183 0
-0.140461 0.275807 0
-0.156610 0.269110 0
-0.169008 0.257159 0
-0.178185 0.241173 0
-0.184662 0.222316 0
-0.188912 0.201605 0
-0.191349 0.179884 0
-0.192341 0.157825 0
-0.192213 0.135959 0
-0.191256 0.114675 0
-0.189730 0.094235 0
-0.187864 0.074777 0
-0.185854 0.056321 0
-0.183865 0.038783 0
-0.182022 0.021984 0
-0.180414 0.005670 0
-0.179082 -0.010465 0
-0.178024 -0.026793 0
-0.177189 -0.043698 0
-0.176502 -0.061521 0
-0.175854 -0.080558 0
-0.175112 -0.101030 0
-0.174118 -0.123049 0
-0.172700 -0.146587 0
-0.170675 -0.171457 0
-0.167864 -0.197289 0
-0.164080 -0.223519 0
-0.159130 -0.249368 0
-0.152785 -0.273807 0
-0.144739 -0.295477 0
-0.134499 -0.312431 0
-0.121151 -0.321419 0
-0.102969 -0.315953 0
-0.077124 -0.281744 0
-0.040908 -0.187029 0
0.000000 -0.059539 0
0.000000 0.119519 0
-0.027893 0.259649 0
-0.057742 0.286268 0
-0.083868 0.295201 0
-0.105876 0.297469 0
-0.123774 0.292907 0
-0.137837 0.282393 0
-0.148488 0.267106 0
-0.156207 0.248285 0
-0.161461 0.227068 0
-0.164679 0.204422 0
-0.166240 0.181142 0
-0.166489 0.157863 0
-0.165736 0.135079 0
-0.164264 0.113152 0
-0.162327 0.092312 0
-0.160153 0.072668 0
-0.157936 0.054207 0
-0.155840 0.036810 0
-0.153990 0.020259 0
-0.152469 0.004258 0
-0.151318 -0.011545 0
-0.150527 -0.027569 0
-0.150049 -0.044233 0
-0.149809 -0.061906 0
-0.149699 -0.080915 0
-0.149587 -0.101506 0
-0.149312 -0.123812 0
-0.148699 -0.147820 0
-0.147562 -0.173345 0
-0.145713 -0.200020 0
-0.142967 -0.227285 0
-0.139128 -0.254375 0
-0.133985 -0.280305 0
-0.127277 -0.303817 0
-0.118627 -0.323223 0
-0.107352 -0.335854 0
-0.092042 -0.336239 0
-0.070014 -0.310838 0
-0.037961 -0.224027 0
0.000000 -0.079401 0
0.000000 0.132364 0
-0.023475 0.286466 0
-0.049512 0.312469 0
-0.072317 0.317713 0
-0.091464 0.316090 0
-0.106960 0.307768 0
-0.119041 0.293823 0
-0.128080 0.275529 0
-0.134494 0.254146 0
-0.138694 0.230787 0
-0.141057 0.206384 0
-0.141930 0.181694 0
-0.141628 0.157321 0
-0.140445 0.133733 0
-0.138649 0.111266 0
-0.136485 0.090124 0
-0.134171 0.070386 0
-0.131896 0.052009 0
-0.129816 0.034837 0
-0.128048 0.018613 0
-0.126668 0.002998 0
-0.125708 -0.012406 0
-0.125154 -0.028061 0
-0.124957 -0.044417 0
-0.125043 -0.061871 0
-0.125312 -0.080780 0
-0.125633 -0.101417 0
-0.125854 -0.123937 0
-0.125801 -0.148338 0
-0.125296 -0.174442 0
-0.124157 -0.201884 0
-0.122204 -0.230104 0
-0.119252 -0.258349 0
-0.115103 -0.285659 0
-0.109529 -0.310835 0
-0.102237 -0.332356 0
-0.092739 -0.348004 0
-0.079985 -0.353291 0
-0.061649 -0.335825 0
-0.034125 -0.257044 0
0.000000 -0.097500 0
0.000000 0.142994 0
-0.019072 0.309161 0
-0.041333 0.335109 0
-0.060874 0.337154 0
-0.077235 0.332112 0
-0.090418 0.320484 0
-0.100626 0.303514 0
-0.108171 0.282559 0
-0.113411 0.258899 0
-0.116696 0.233630 0
-0.118356 0.207658 0
-0.118700 0.181713 0
-0.118014 0.156378 0
-0.116568 0.132100 0
-0.114614 0.109191 0
-0.112380 0.087834 0
-0.110073 0.068079 0
-0.107867 0.049852 0
-0.105904 0.032961 0
-0.104290 0.017110 0
-0.103089 0.001918 0
-0.102324 -0.013060 0
-0.101970 -0.028321 0
-0.101982 -0.044344 0
-0.102286 -0.061550 0
-0.102787 -0.080324 0
-0.103366 -0.100964 0
-0.103878 -0.123644 0
-0.104168 -0.148377 0
-0.104071 -0.174989 0
-0.103420 -0.203112 0
-0.102055 -0.232190 0
-0.099809 -0.261476 0
-0.096506 -0.290028 0
-0.091948 -0.316683 0
-0.085903 -0.340013 0
-0.078031 -0.358106 0
-0.067610 -0.367329 0
-0.052774 -0.356697 0
-0.029859 -0.285676 0
0.000000 -0.113526 0
0.000000 0.151436 0
-0.014736 0.327798 0
-0.033315 0.354271 0
-0.049701 0.353616 0
-0.063382 0.345634 0
-0.074361 0.331159 0
-0.082802 0.311577 0
-0.088966 0.288315 0
-0.093147 0.262670 0
-0.095641 0.235733 0
-0.096731 0.208388 0
-0.096684 0.181351 0
-0.095758 0.155190 0
-0.094196 0.130333 0
-0.092227 0.107078 0
-0.090060 0.085583 0
-0.087882 0.065872 0
-0.085849 0.047840 0
-0.084083 0.031260 0
-0.082673 0.015797 0
-0.081673 0.001031 0
-0.081091 -0.013525 0
-0.080901 -0.028402 0
-0.081052 -0.044101 0
-0.081473 -0.061065 0
-0.082077 -0.079701 0
-0.082755 -0.100326 0
-0.083383 -0.123134 0
-0.083826 -0.148145 0
-0.083942 -0.175190 0
-0.083595 -0.203900 0
-0.082648 -0.233716 0
-0.080966 -0.263898 0
-0.078400 -0.293519 0
-0.074788 -0.321438 0
-0.069945 -0.346274 0
-0.063641 -0.366296 0
-0.055413 -0.378548 0
-0.043864 -0.373576 0
-0.025466 -0.309817 0
0.000000 -0.127359 0
0.000000 0.157731 0
-0.010485 0.342475 0
-0.025495 0.370074 0
-0.038854 0.367221 0
-0.049976 0.356771 0
-0.058862 0.339904 0
-0.065645 0.318119 0
-0.070532 0.292905 0
-0.073761 0.265574 0
-0.075576 0.237214 0
-0.076211 0.208701 0
-0.075897 0.180741 0
-0.074857 0.153890 0
-0.073305 0.128569 0
-0.071444 0.105055 0
-0.069459 0.083489 0
-0.067511 0.063868 0
-0.065731 0.046053 0
-0.064218 0.029786 0
-0.063041 0.014700 0
-0.062241 0.000335 0
-0.061826 -0.013832 0
-0.061756 -0.028360 0
-0.061978 -0.043771 0
-0.062423 -0.060525 0
-0.063013 -0.079043 0
-0.063655 -0.099658 0
-0.064248 -0.122574 0
-0.064684 -0.147818 0
-0.064855 -0.175220 0
-0.064660 -0.204406 0
-0.063999 -0.234819 0
-0.062770 -0.265725 0
-0.060863 -0.296206 0
-0.058154 -0.325138 0
-0.054505 -0.351160 0
-0.049760 -0.372638 0
-0.043646 -0.387106 0
-0.035186 -0.386645 0
-0.021122 -0.329540 0
0.000000 -0.138992 0
0.000000 0.161921 0
-0.006311 0.353293 0
-0.017862 0.382640 0
-0.028317 0.378096 0
-0.036999 0.365642 0
-0.043903 0.346828 0
-0.049130 0.323246 0
-0.052838 0.296431 0
-0.055213 0.267714 0
-0.056448 0.238182 0
-0.056733 0.208710 0
-0.056258 0.179997 0
-0.055211 0.152597 0
-0.053776 0.126920 0
-0.052124 0.103232 0
-0.050412 0.081650 0
-0.048772 0.062145 0
-0.047306 0.044548 0
-0.046083 0.028570 0
-0.045152 0.013820 0
-0.044541 -0.000184 0
-0.044264 -0.014010 0
-0.044261 -0.028251 0
-0.044483 -0.043434 0
-0.044864 -0.060030 0
-0.045337 -0.078469 0
-0.045827 -0.099091 0
-0.046259 -0.122105 0
-0.046561 -0.147538 0
-0.046664 -0.175214 0
-0.046507 -0.204756 0
-0.046032 -0.235606 0
-0.045178 -0.267034 0
-0.043877 -0.298135 0
-0.042047 -0.327796 0
-0.039597 -0.354668 0
-0.036427 -0.377155 0
-0.032390 -0.393122 0
-0.026850 -0.396100 0
-0.016911 -0.345003 0
0.000000 -0.148481 0
0.000000 0.164042 0
-0.002231 0.360337 0
-0.010361 0.392080 0
-0.018024 0.386358 0
-0.024374 0.372357 0
-0.029397 0.352034 0
-0.033160 0.327054 0
-0.035778 0.298988 0
-0.037386 0.269184 0
-0.038128 0.238733 0
-0.038152 0.208512 0
-0.037606 0.179220 0
-0.036642 0.151408 0
-0.035408 0.125481 0
-0.034044 0.101692 0
-0.032672 0.080137 0
-0.031393 0.060761 0
-0.030278 0.043364 0
-0.029370 0.027633 0
-0.028692 0.013158 0
-0.028258 -0.000553 0
-0.028070 -0.014112 0
-0.028075 -0.028141 0
-0.028223 -0.043168 0
-0.028456 -0.059671 0
-0.028720 -0.078080 0
-0.028961 -0.098735 0
-0.029136 -0.121840 0
-0.029208 -0.147413 0
-0.029154 -0.175273 0
-0.028958 -0.205038 0
-0.028605 -0.236148 0
-0.028078 -0.267880 0
-0.027353 -0.299336 0
-0.026395 -0.329418 0
-0.025156 -0.356780 0
-0.023588 -0.379845 0
-0.021619 -0.396683 0
-0.018872 -0.402123 0
-0.012859 -0.356391 0
0.000000 -0.155904 0
0.000000 0.164152 0
0.001708 0.363655 0
-0.002901 0.398433 0
-0.007862 0.392108 0
-0.011984 0.377015 0
-0.015212 0.355614 0
-0.017591 0.329627 0
-0.019195 0.300658 0
-0.020110 0.270065 0
-0.020433 0.238948 0
-0.020268 0.208188 0
-0.019723 0.178488 0
-0.018910 0.150399 0
-0.017941 0.124321 0
-0.016919 0.100495 0
-0.015921 0.078999 0
-0.015029 0.059751 0
-0.014283 0.042525 0
-0.013698 0.026984 0
-0.013272 0.012708 0
-0.012996 -0.000805 0
-0.012851 -0.014193 0
-0.012798 -0.028099 0
-0.012797 -0.043053 0
-0.012805 -0.059533 0
-0.012781 -0.077964 0
-0.012699 -0.098676 0
-0.012546 -0.121859 0
-0.012329 -0.147519 0
-0.012067 -0.175464 0
-0.011790 -0.205306 0
-0.011529 -0.236486 0
-0.011311 -0.268286 0
-0.011156 -0.299818 0
-0.011075 -0.329994 0
-0.011067 -0.357475 0
-0.011128 -0.380693 0
-0.011239 -0.397839 0
-0.011197 -0.404860 0
-0.008947 -0.363874 0
0.000000 -0.161339 0
0.000000 0.162334 0
0.005548 0.363238 0
0.004572 0.401650 0
0.002281 0.395442 0
0.000324 0.379707 0
-0.001177 0.357641 0
-0.002238 0.331036 0
-0.002889 0.301507 0
-0.003171 0.270422 0
-0.003131 0.238891 0
-0.002830 0.207801 0
-0.002335 0.177862 0
-0.001718 0.149627 0
-0.001053 0.123490 0
-0.000400 0.099672 0
0.000195 0.078247 0
0.000686 0.059123 0
0.001065 0.042034 0
0.001342 0.026621 0
0.001544 0.012456 0
0.001701 -0.000975 0
0.001858 -0.014310 0
0.002033 -0.028195 0
0.002248 -0.043161 0
0.002530 -0.059687 0
0.002897 -0.078185 0
0.003349 -0.098970 0
0.003864 -0.122210 0
0.004395 -0.147893 0
0.004877 -0.175812 0
0.005239 -0.205576 0
0.005406 -0.236628 0
0.005307 -0.268253 0
0.004878 -0.299573 0
0.004062 -0.329506 0
0.002814 -0.356726 0
0.001097 -0.379674 0
-0.001117 -0.396615 0
-0.003732 -0.404415 0
-0.005130 -0.367587 0
0.000000 -0.164851 0
0.000000 0.158604 0
0.009400 0.359083 0
0.012117 0.401700 0
0.012521 0.396356 0
0.012701 0.380473 0
0.012881 0.358176 0
0.013091 0.331340 0
0.013348 0.301590 0
0.013661 0.270306 0
0.014026 0.238608 0
0.014429 0.207392 0
0.014845 0.177376 0
0.015244 0.149117 0
0.015594 0.123003 0
0.015872 0.099248 0
0.016060 0.077912 0
0.016166 0.058880 0
0.016211 0.041869 0
0.016229 0.026505 0
0.016266 0.012349 0
0.016368 -0.001119 0
0.016586 -0.014525 0
0.016924 -0.028489 0
0.017392 -0.043550 0
0.017997 -0.060182 0
0.018732 -0.078783 0
0.019569 -0.099643 0
0.020447 -0.122904 0
0.021283 -0.148532 0
0.021970 -0.176308 0
0.022395 -0.205834 0
0.022440 -0.236554 0
0.021992 -0.267758 0
0.020943 -0.298574 0
0.019191 -0.327929 0
0.016644 -0.354509 0
0.013225 -0.376763 0
0.008880 -0.393011 0
0.003642 -0.400846 0
-0.001333 -0.367606 0
0.000000 -0.166470 0
0.000000 0.152934 0
0.013337 0.351121 0
0.019854 0.398529 0
0.022998 0.394858 0
0.025282 0.379348 0
0.027109 0.357250 0
0.028563 0.330569 0
0.029704 0.300938 0
0.030591 0.269745 0
0.031267 0.238124 0
0.031764 0.206982 0
0.032098 0.177047 0
0.032285 0.148878 0
0.032334 0.122861 0
0.032263 0.099206 0
0.032092 0.077954 0
0.031869 0.058972 0
0.031643 0.041970 0
0.031467 0.026567 0
0.031402 0.012316 0
0.031504 -0.001295 0
0.031815 -0.014866 0
0.032339 -0.029001 0
0.033077 -0.044234 0
0.034014 -0.061027 0
0.035118 -0.079757 0
0.036328 -0.100685 0
0.037550 -0.123924 0
0.038660 -0.149416 0
0.039513 -0.176924 0
0.039956 -0.206046 0
0.039831 -0.236225 0
0.038981 -0.266756 0
0.037256 -0.296772 0
0.034509 -0.325208 0
0.030601 -0.350761 0