# vtk DataFile Version 2.0
generated by CFD-lab course output (written by Tobias Neckel) 
ASCII

DATASET STRUCTURED_GRID
DIMENSIONS  41 41 1 
POINTS 1681 float

0.150000 0.150000 0
0.167857 0.150000 0
0.185714 0.150000 0
0.203571 0.150000 0
0.221429 0.150000 0
0.239286 0.150000 0
0.257143 0.150000 0
0.275000 0.150000 0
0.292857 0.150000 0
0.310714 0.150000 0
0.328571 0.150000 0
0.346429 0.150000 0
0.364286 0.150000 0
0.382143 0.150000 0
0.400000 0.150000 0
0.417857 0.150000 0
0.435714 0.150000 0
0.453571 0.150000 0
0.471429 0.150000 0
0.489286 0.150000 0
0.507143 0.150000 0
0.525000 0.150000 0
0.542857 0.150000 0
0.560714 0.150000 0
0.578571 0.150000 0
0.596429 0.150000 0
0.614286 0.150000 0
0.632143 0.150000 0
0.650000 0.150000 0
0.667857 0.150000 0
0.685714 0.150000 0
0.703571 0.150000 0
0.721429 0.150000 0
0.739286 0.150000 0
0.757143 0.150000 0
0.775000 0.150000 0
0.792857 0.150000 0
0.810714 0.150000 0
0.828571 0.150000 0
0.846429 0.150000 0
0.864286 0.150000 0
0.150000 0.167857 0
0.167857 0.167857 0
0.185714 0.167857 0
0.203571 0.167857 0
0.221429 0.167857 0
0.239286 0.167857 0
0.257143 0.167857 0
0.275000 0.167857 0
0.292857 0.167857 0
0.310714 0.167857 0
0.328571 0.167857 0
0.346429 0.167857 0
0.364286 0.167857 0
0.382143 0.167857 0
0.400000 0.167857 0
0.417857 0.167857 0
0.435714 0.167857 0
0.453571 0.167857 0
0.471429 0.167857 0
0.489286 0.167857 0
0.507143 0.167857 0
0.525000 0.167857 0
0.542857 0.167857 0
0.560714 0.167857 0
0.578571 0.167857 0
0.596429 0.167857 0
0.614286 0.167857 0
0.632143 0.167857 0
0.650000 0.167857 0
0.667857 0.167857 0
0.685714 0.167857 0
0.703571 0.167857 0
0.721429 0.167857 0
0.739286 0.167857 0
0.757143 0.167857 0
0.775000 0.167857 0
0.792857 0.167857 0
0.810714 0.167857 0
0.828571 0.167857 0
0.846429 0.167857 0
0.864286 0.167857 0
0.150000 0.185714 0
0.167857 0.185714 0
0.185714 0.185714 0
0.203571 0.185714 0
0.221429 0.185714 0
0.239286 0.185714 0
0.257143 0.185714 0
0.275000 0.185714 0
0.292857 0.185714 0
0.310714 0.185714 0
0.328571 0.185714 0
0.346429 0.185714 0
0.364286 0.185714 0
0.382143 0.185714 0
0.400000 0.185714 0
0.417857 0.185714 0
0.435714 0.185714 0
0.453571 0.185714 0
0.471429 0.185714 0
0.489286 0.185714 0
0.507143 0.185714 0
0.525000 0.185714 0
0.542857 0.185714 0
0.560714 0.185714 0
0.578571 0.185714 0
0.596429 0.185714 0
0.614286 0.185714 0
0.632143 0.185714 0
0.650000 0.185714 0
0.667857 0.185714 0
0.685714 0.185714 0
0.703571 0.185714 0
0.721429 0.185714 0
0.739286 0.185714 0
0.757143 0.185714 0
0.775000 0.185714 0
0.792857 0.185714 0
0.810714 0.185714 0
0.828571 0.185714 0
0.846429 0.185714 0
0.864286 0.185714 0
0.150000 0.203571 0
0.167857 0.203571 0
0.185714 0.203571 0
0.203571 0.203571 0
0.221429 0.203571 0
0.239286 0.203571 0
0.257143 0.203571 0
0.275000 0.203571 0
0.292857 0.203571 0
0.310714 0.203571 0
0.328571 0.203571 0
0.346429 0.203571 0
0.364286 0.203571 0
0.382143 0.203571 0
0.400000 0.203571 0
0.417857 0.203571 0
0.435714 0.203571 0
0.453571 0.203571 0
0.471429 0.203571 0
0.489286 0.203571 0
0.507143 0.203571 0
0.525000 0.203571 0
0.542857 0.203571 0
0.560714 0.203571 0
0.578571 0.203571 0
0.596429 0.203571 0
0.614286 0.203571 0
0.632143 0.203571 0
0.650000 0.203571 0
0.667857 0.203571 0
0.685714 0.203571 0
0.703571 0.203571 0
0.721429 0.203571 0
0.739286 0.203571 0
0.757143 0.203571 0
0.775000 0.203571 0
0.792857 0.203571 0
0.810714 0.203571 0
0.828571 0.203571 0
0.846429 0.203571 0
0.864286 0.203571 0
0.150000 0.221429 0
0.167857 0.221429 0
0.185714 0.221429 0
0.203571 0.221429 0
0.221429 0.221429 0
0.239286 0.221429 0
0.257143 0.221429 0
0.275000 0.221429 0
0.292857 0.221429 0
0.310714 0.221429 0
0.328571 0.221429 0
0.346429 0.221429 0
0.364286 0.221429 0
0.382143 0.221429 0
0.400000 0.221429 0
0.417857 0.221429 0
0.435714 0.221429 0
0.453571 0.221429 0
0.471429 0.221429 0
0.489286 0.221429 0
0.507143 0.221429 0
0.525000 0.221429 0
0.542857 0.221429 0
0.560714 0.221429 0
0.578571 0.221429 0
0.596429 0.221429 0
0.614286 0.221429 0
0.632143 0.221429 0
0.650000 0.221429 0
0.667857 0.221429 0
0.685714 0.221429 0
0.703571 0.221429 0
0.721429 0.221429 0
0.739286 0.221429 0
0.757143 0.221429 0
0.775000 0.221429 0
0.792857 0.221429 0
0.810714 0.221429 0
0.828571 0.221429 0
0.846429 0.221429 0
0.864286 0.221429 0
0.150000 0.239286 0
0.167857 0.239286 0
0.185714 0.239286 0
0.203571 0.239286 0
0.221429 0.239286 0
0.239286 0.239286 0
0.257143 0.239286 0
0.275000 0.239286 0
0.292857 0.239286 0
0.310714 0.239286 0
0.328571 0.239286 0
0.346429 0.239286 0
0.364286 0.239286 0
0.382143 0.239286 0
0.400000 0.239286 0
0.417857 0.239286 0
0.435714 0.239286 0
0.453571 0.239286 0
0.471429 0.239286 0
0.489286 0.239286 0
0.507143 0.239286 0
0.525000 0.239286 0
0.542857 0.239286 0
0.560714 0.239286 0
0.578571 0.239286 0
0.596429 0.239286 0
0.614286 0.239286 0
0.632143 0.239286 0
0.650000 0.239286 0
0.667857 0.239286 0
0.685714 0.239286 0
0.703571 0.239286 0
0.721429 0.239286 0
0.739286 0.239286 0
0.757143 0.239286 0
0.775000 0.239286 0
0.792857 0.239286 0
0.810714 0.239286 0
0.828571 0.239286 0
0.846429 0.239286 0
0.864286 0.239286 0
0.150000 0.257143 0
0.167857 0.257143 0
0.185714 0.257143 0
0.203571 0.257143 0
0.221429 0.257143 0
0.239286 0.257143 0
0.257143 0.257143 0
0.275000 0.257143 0
0.292857 0.257143 0
0.310714 0.257143 0
0.328571 0.257143 0
0.346429 0.257143 0
0.364286 0.257143 0
0.382143 0.257143 0
0.400000 0.257143 0
0.417857 0.257143 0
0.435714 0.257143 0
0.453571 0.257143 0
0.471429 0.257143 0
0.489286 0.257143 0
0.507143 0.257143 0
0.525000 0.257143 0
0.542857 0.257143 0
0.560714 0.257143 0
0.578571 0.257143 0
0.596429 0.257143 0
0.614286 0.257143 0
0.632143 0.257143 0
0.650000 0.257143 0
0.667857 0.257143 0
0.685714 0.257143 0
0.703571 0.257143 0
0.721429 0.257143 0
0.739286 0.257143 0
0.757143 0.257143 0
0.775000 0.257143 0
0.792857 0.257143 0
0.810714 0.257143 0
0.828571 0.257143 0
0.846429 0.257143 0
0.864286 0.257143 0
0.150000 0.275000 0
0.167857 0.275000 0
0.185714 0.275000 0
0.203571 0.275000 0
0.221429 0.275000 0
0.239286 0.275000 0
0.257143 0.275000 0
0.275000 0.275000 0
0.292857 0.275000 0
0.310714 0.275000 0
0.328571 0.275000 0
0.346429 0.275000 0
0.364286 0.275000 0
0.382143 0.275000 0
0.400000 0.275000 0
0.417857 0.275000 0
0.435714 0.275000 0
0.453571 0.275000 0
0.471429 0.275000 0
0.489286 0.275000 0
0.507143 0.275000 0
0.525000 0.275000 0
0.542857 0.275000 0
0.560714 0.275000 0
0.578571 0.275000 0
0.596429 0.275000 0
0.614286 0.275000 0
0.632143 0.275000 0
0.650000 0.275000 0
0.667857 0.275000 0
0.685714 0.275000 0
0.703571 0.275000 0
0.721429 0.275000 0
0.739286 0.275000 0
0.757143 0.275000 0
0.775000 0.275000 0
0.792857 0.275000 0
0.810714 0.275000 0
0.828571 0.275000 0
0.846429 0.275000 0
0.864286 0.275000 0
0.150000 0.292857 0
0.167857 0.292857 0
0.185714 0.292857 0
0.203571 0.292857 0
0.221429 0.292857 0
0.239286 0.292857 0
0.257143 0.292857 0
0.275000 0.292857 0
0.292857 0.292857 0
0.310714 0.292857 0
0.328571 0.292857 0
0.346429 0.292857 0
0.364286 0.292857 0
0.382143 0.292857 0
0.400000 0.292857 0
0.417857 0.292857 0
0.435714 0.292857 0
0.453571 0.292857 0
0.471429 0.292857 0
0.489286 0.292857 0
0.507143 0.292857 0
0.525000 0.292857 0
0.542857 0.292857 0
0.560714 0.292857 0
0.578571 0.292857 0
0.596429 0.292857 0
0.614286 0.292857 0
0.632143 0.292857 0
0.650000 0.292857 0
0.667857 0.292857 0
0.685714 0.292857 0
0.703571 0.292857 0
0.721429 0.292857 0
0.739286 0.292857 0
0.757143 0.292857 0
0.775000 0.292857 0
0.792857 0.292857 0
0.810714 0.292857 0
0.828571 0.292857 0
0.846429 0.292857 0
0.864286 0.292857 0
0.150000 0.310714 0
0.167857 0.310714 0
0.185714 0.310714 0
0.203571 0.310714 0
0.221429 0.310714 0
0.239286 0.310714 0
0.257143 0.310714 0
0.275000 0.310714 0
0.292857 0.310714 0
0.310714 0.310714 0
0.328571 0.310714 0
0.346429 0.310714 0
0.364286 0.310714 0
0.382143 0.310714 0
0.400000 0.310714 0
0.417857 0.310714 0
0.435714 0.310714 0
0.453571 0.310714 0
0.471429 0.310714 0
0.489286 0.310714 0
0.507143 0.310714 0
0.525000 0.310714 0
0.542857 0.310714 0
0.560714 0.310714 0
0.578571 0.310714 0
0.596429 0.310714 0
0.614286 0.310714 0
0.632143 0.310714 0
0.650000 0.310714 0
0.667857 0.310714 0
0.685714 0.310714 0
0.703571 0.310714 0
0.721429 0.310714 0
0.739286 0.310714 0
0.757143 0.310714 0
0.775000 0.310714 0
0.792857 0.310714 0
0.810714 0.310714 0
0.828571 0.310714 0
0.846429 0.310714 0
0.864286 0.310714 0
0.150000 0.328571 0
0.167857 0.328571 0
0.185714 0.328571 0
0.203571 0.328571 0
0.221429 0.328571 0
0.239286 0.328571 0
0.257143 0.328571 0
0.275000 0.328571 0
0.292857 0.328571 0
0.310714 0.328571 0
0.328571 0.328571 0
0.346429 0.328571 0
0.364286 0.328571 0
0.382143 0.328571 0
0.400000 0.328571 0
0.417857 0.328571 0
0.435714 0.328571 0
0.453571 0.328571 0
0.471429 0.328571 0
0.489286 0.328571 0
0.507143 0.328571 0
0.525000 0.328571 0
0.542857 0.328571 0
0.560714 0.328571 0
0.578571 0.328571 0
0.596429 0.328571 0
0.614286 0.328571 0
0.632143 0.328571 0
0.650000 0.328571 0
0.667857 0.328571 0
0.685714 0.328571 0
0.703571 0.328571 0
0.721429 0.328571 0
0.739286 0.328571 0
0.757143 0.328571 0
0.775000 0.328571 0
0.792857 0.328571 0
0.810714 0.328571 0
0.828571 0.328571 0
0.846429 0.328571 0
0.864286 0.328571 0
0.150000 0.346429 0
0.167857 0.346429 0
0.185714 0.346429 0
0.203571 0.346429 0
0.221429 0.346429 0
0.239286 0.346429 0
0.257143 0.346429 0
0.275000 0.346429 0
0.292857 0.346429 0
0.310714 0.346429 0
0.328571 0.346429 0
0.346429 0.346429 0
0.364286 0.346429 0
0.382143 0.346429 0
0.400000 0.346429 0
0.417857 0.346429 0
0.435714 0.346429 0
0.453571 0.346429 0
0.471429 0.346429 0
0.489286 0.346429 0
0.507143 0.346429 0
0.525000 0.346429 0
0.542857 0.346429 0
0.560714 0.346429 0
0.578571 0.346429 0
0.596429 0.346429 0
0.614286 0.346429 0
0.632143 0.346429 0
0.650000 0.346429 0
0.667857 0.346429 0
0.685714 0.346429 0
0.703571 0.346429 0
0.721429 0.346429 0
0.739286 0.346429 0
0.757143 0.346429 0
0.775000 0.346429 0
0.792857 0.346429 0
0.810714 0.346429 0
0.828571 0.346429 0
0.846429 0.346429 0
[...]
POINT_DATA 1681 

VECTORS velocity float
0.000000 0.000000 0
0.006102 0.000000 0
0.012440 0.000000 0
0.014897 0.000000 0
0.014743 0.000000 0
0.014368 0.000000 0
0.012254 0.000000 0
0.016508 0.000000 0
0.022021 0.000000 0
0.012296 0.000000 0
-0.005542 0.000000 0
-0.025709 0.000000 0
-0.046354 0.000000 0
-0.066395 0.000000 0
-0.085087 0.000000 0
-0.101989 0.000000 0
-0.116937 0.000000 0
-0.129788 0.000000 0
-0.140505 0.000000 0
-0.149082 0.000000 0
-0.155539 0.000000 0
-0.159893 0.000000 0
-0.162150 0.000000 0
-0.162329 0.000000 0
-0.160305 0.000000 0
-0.155964 0.000000 0
-0.149239 0.000000 0
-0.140056 0.000000 0
-0.128348 0.000000 0
-0.114068 0.000000 0
-0.097295 0.000000 0
-0.078114 0.000000 0
-0.056789 0.000000 0
-0.033811 0.000000 0
-0.010001 0.000000 0
0.013258 0.000000 0
0.028661 0.000000 0
0.031385 0.000000 0
0.023420 0.000000 0
0.011027 0.000000 0
0.000000 0.000000 0
0.000000 -0.006102 0
0.016146 -0.012440 0
0.029654 -0.008795 0
0.035193 -0.002303 0
0.034692 0.000528 0
0.035007 0.002489 0
0.026902 -0.002139 0
0.008417 -0.009766 0
-0.015863 0.004211 0
-0.047521 0.027563 0
-0.085788 0.038005 0
-0.126284 0.040812 0
-0.166358 0.040687 0
-0.204257 0.038733 0
-0.238875 0.035594 0
-0.269583 0.031850 0
-0.296104 0.027799 0
-0.318311 0.023567 0
-0.336203 0.019294 0
-0.349833 0.015034 0
-0.359272 0.010811 0
-0.364583 0.006611 0
-0.365798 0.002435 0
-0.362905 -0.001845 0
-0.355846 -0.006365 0
-0.344544 -0.011066 0
-0.328868 -0.015907 0
-0.308678 -0.020891 0
-0.283842 -0.025989 0
-0.254284 -0.031053 0
-0.220050 -0.035954 0
-0.181339 -0.040507 0
-0.138671 -0.044303 0
-0.093093 -0.046787 0
-0.046542 -0.047069 0
-0.002490 -0.038662 0
0.032933 -0.018127 0
0.048991 0.005241 0
0.037833 0.020358 0
0.017743 0.023420 0
0.000000 0.011027 0
0.000000 -0.016146 0
0.019163 -0.029654 0
0.030702 -0.019047 0
0.035089 -0.005039 0
0.024590 0.000187 0
0.003985 0.007790 0
-0.024443 0.026590 0
-0.069311 0.042765 0
-0.122282 0.055938 0
-0.165375 0.069925 0
-0.204054 0.078762 0
-0.240826 0.080570 0
-0.274992 0.077974 0
-0.305825 0.072517 0
-0.332942 0.065326 0
-0.356172 0.057229 0
-0.375421 0.048728 0
-0.390773 0.040100 0
-0.402322 0.031521 0
-0.410179 0.023068 0
-0.414435 0.014750 0
-0.415152 0.006527 0
-0.412358 -0.001678 0
-0.405999 -0.009952 0
-0.396135 -0.018361 0
-0.382742 -0.026978 0
-0.365699 -0.035867 0
-0.344878 -0.045026 0
-0.320155 -0.054394 0
-0.291456 -0.063792 0
-0.258725 -0.072945 0
-0.222152 -0.081380 0
-0.182186 -0.088247 0
-0.139786 -0.092129 0
-0.096769 -0.090602 0
-0.056269 -0.079475 0
-0.018241 -0.051481 0
0.011511 -0.004901 0
0.017107 0.031247 0
0.007692 0.037833 0
0.000000 0.017743 0
0.000000 -0.025266 0
0.012229 -0.043142 0
0.012402 -0.024720 0
-0.003413 0.003808 0
-0.029475 0.031633 0
-0.070303 0.051521 0
-0.113755 0.071156 0
-0.155962 0.088073 0
-0.198390 0.100275 0
-0.236930 0.109335 0
-0.269928 0.113456 0
-0.299002 0.111750 0
-0.324597 0.105685 0
-0.346888 0.096683 0
-0.366010 0.085941 0
-0.382072 0.074329 0
-0.395150 0.062400 0
-0.405348 0.050469 0
-0.412746 0.038700 0
-0.417400 0.027146 0
-0.419342 0.015784 0
-0.418575 0.004535 0
-0.415074 -0.006718 0
-0.408807 -0.018068 0
-0.399722 -0.029622 0
-0.387712 -0.041502 0
-0.372672 -0.053771 0
-0.354485 -0.066435 0
-0.333039 -0.079411 0
-0.308251 -0.092483 0
-0.280080 -0.105257 0
-0.248628 -0.117045 0
-0.214184 -0.126670 0
-0.177332 -0.132204 0
-0.139058 -0.130585 0
-0.100745 -0.117190 0
-0.063797 -0.085907 0
-0.028253 -0.030107 0
0.000430 0.024177 0
-0.000882 0.040527 0
0.000000 0.018720 0
0.000000 -0.028376 0
-0.006728 -0.042055 0
-0.027737 -0.003405 0
-0.060426 0.036838 0
-0.093902 0.067077 0
-0.131921 0.092070 0
-0.171512 0.112250 0
-0.208924 0.127401 0
-0.243967 0.136906 0
-0.275148 0.141462 0
-0.301456 0.140834 0
-0.323761 0.135239 0
-0.342761 0.125860 0
-0.358969 0.113930 0
-0.372720 0.100509 0
-0.384210 0.086369 0
-0.393537 0.072005 0
-0.400754 0.057695 0
-0.405881 0.043573 0
-0.408916 0.029665 0
-0.409840 0.015925 0
-0.408618 0.002259 0
-0.405206 -0.011446 0
-0.399595 -0.025304 0
-0.391690 -0.039455 0
-0.381410 -0.054028 0
-0.368658 -0.069094 0
-0.353336 -0.084660 0
-0.335353 -0.100627 0
-0.314632 -0.116751 0
-0.291126 -0.132568 0
-0.264851 -0.147275 0
-0.235897 -0.159543 0
-0.204434 -0.167255 0
-0.170694 -0.167190 0
-0.134871 -0.154736 0
-0.096936 -0.123972 0
-0.056675 -0.069128 0
-0.014234 0.003876 0
-0.004831 0.038263 0
0.000000 0.016861 0
0.000000 -0.018538 0
-0.028543 -0.015405 0
-0.064969 0.028978 0
-0.098774 0.069973 0
-0.134441 0.103128 0
-0.170396 0.129131 0
-0.205398 0.148159 0
-0.237514 0.160528 0
-0.266253 0.166499 0
-0.291042 0.166824 0
-0.311699 0.162070 0
-0.328881 0.153054 0
-0.343250 0.140893 0
-0.355336 0.126643 0
-0.365475 0.111183 0
-0.373856 0.095145 0
-0.380566 0.078943 0
-0.385643 0.062813 0
-0.389098 0.046863 0
-0.390926 0.031105 0
-0.391111 0.015486 0
-0.389630 -0.000100 0
-0.386453 -0.015741 0
-0.381554 -0.031583 0
-0.374852 -0.047807 0
-0.366273 -0.064534 0
-0.355732 -0.081845 0
-0.343147 -0.099740 0
-0.328437 -0.118115 0
-0.311535 -0.136710 0
-0.292380 -0.155038 0
-0.270919 -0.172274 0
-0.247076 -0.187087 0
-0.220706 -0.197407 0
-0.191510 -0.200148 0
-0.158937 -0.190948 0
-0.122148 -0.164104 0
-0.080322 -0.112810 0
-0.034177 -0.027667 0
0.002913 0.026293 0
0.000000 0.013888 0
0.000000 0.000168 0
-0.041077 0.022913 0
-0.082006 0.066825 0
-0.119864 0.106311 0
-0.156066 0.138700 0
-0.189974 0.163027 0
-0.221049 0.179367 0
-0.248521 0.188255 0
-0.272213 0.190435 0
-0.292102 0.186909 0
-0.308456 0.178673 0
-0.321867 0.166790 0
-0.332899 0.152315 0
-0.341999 0.136154 0
-0.349463 0.119029 0
-0.355467 0.101460 0
-0.360114 0.083792 0
-0.363466 0.066228 0
-0.365559 0.048856 0
-0.366414 0.031678 0
-0.366037 0.014629 0
-0.364422 -0.002399 0
-0.361557 -0.019522 0
-0.357379 -0.036905 0
-0.351831 -0.054736 0
-0.344835 -0.073148 0
-0.336313 -0.092220 0
-0.326185 -0.111954 0
-0.314378 -0.132238 0
-0.300825 -0.152808 0
-0.285455 -0.173185 0
-0.268176 -0.192579 0
-0.248820 -0.209755 0
-0.227065 -0.222820 0
-0.202322 -0.228959 0
-0.173630 -0.224098 0
-0.139663 -0.202587 0
-0.099065 -0.157099 0
-0.051129 -0.079359 0
0.005913 0.004086 0
0.000000 0.019774 0
0.000000 0.022540 0
-0.045119 0.066601 0
-0.088669 0.107764 0
-0.128176 0.144034 0
-0.163895 0.173237 0
-0.195695 0.194114 0
-0.223500 0.206706 0
-0.247219 0.211692 0
-0.267040 0.210080 0
-0.283285 0.203068 0
-0.296421 0.191835 0
-0.306995 0.177497 0
-0.315487 0.161025 0
-0.322272 0.143207 0
-0.327616 0.124650 0
-0.331708 0.105797 0
-0.334679 0.086942 0
-0.336628 0.068258 0
-0.337624 0.049811 0
-0.337717 0.031583 0
-0.336936 0.013495 0
-0.335286 -0.004579 0
-0.332755 -0.022784 0
-0.329287 -0.041309 0
-0.324814 -0.060351 0
-0.319256 -0.080052 0
-0.312527 -0.100495 0
-0.304541 -0.121675 0
-0.295218 -0.143476 0
-0.284485 -0.165633 0
-0.272263 -0.187687 0
-0.258444 -0.208910 0
-0.242834 -0.228198 0
-0.225065 -0.243904 0
-0.204464 -0.253583 0
-0.179923 -0.253607 0
-0.149848 -0.238669 0
-0.112431 -0.201343 0
-0.066670 -0.132644 0
-0.014986 -0.024837 0
0.000000 0.019801 0
0.000000 0.045286 0
-0.044702 0.111582 0
-0.088753 0.149882 0
-0.127926 0.181537 0
-0.162279 0.206218 0
-0.191860 0.222632 0
-0.216865 0.230891 0
-0.237574 0.231795 0
-0.254426 0.226501 0
-0.267922 0.216290 0
-0.278601 0.202384 0
-0.286966 0.185856 0
-0.293438 0.167591 0
-0.298353 0.148283 0
-0.301974 0.128465 0
-0.304504 0.108523 0
-0.306109 0.088712 0
-0.306920 0.069173 0
-0.307039 0.049946 0
-0.306544 0.030989 0
-0.305481 0.012197 0
-0.303870 -0.006579 0
-0.301701 -0.025521 0
-0.298915 -0.044847 0
-0.295439 -0.064767 0
-0.291178 -0.085435 0
-0.286032 -0.106936 0
-0.279898 -0.129263 0
-0.272680 -0.152294 0
-0.264288 -0.175763 0
-0.254632 -0.199225 0
-0.243597 -0.222009 0
-0.230999 -0.243134 0
-0.216508 -0.261190 0
-0.199524 -0.274101 0
-0.179034 -0.278714 0
-0.153516 -0.270079 0
-0.121150 -0.240277 0
-0.080948 -0.176804 0
-0.036217 -0.062584 0
0.000000 0.004788 0
0.000000 0.067242 0
-0.042408 0.155354 0
-0.084830 0.190989 0
-0.122254 0.217560 0
-0.154543 0.237171 0
-0.181776 0.248699 0
-0.204273 0.252420 0
-0.222491 0.249252 0
-0.236987 0.240429 0
-0.248332 0.227243 0
-0.257065 0.210878 0
-0.263651 0.192334 0
-0.268475 0.172413 0
-0.271857 0.151743 0
-0.274060 0.130801 0
-0.275310 0.109932 0
-0.275797 0.089358 0
-0.275682 0.069188 0
-0.275097 0.049434 0
-0.274144 0.030025 0
-0.272891 0.010821 0
-0.271370 -0.008359 0
-0.269572 -0.027738 0
-0.267436 -0.047571 0
-0.264876 -0.068089 0
-0.261782 -0.089459 0
-0.258033 -0.111775 0
-0.253502 -0.135027 0
-0.248073 -0.159086 0
-0.241631 -0.183681 0
-0.234069 -0.208379 0
-0.225264 -0.232542 0
-0.215049 -0.255286 0
-0.203149 -0.275379 0
-0.189090 -0.291057 0
-0.172046 -0.299615 0
-0.150673 -0.296553 0
-0.123077 -0.273911 0
-0.087361 -0.217577 0
-0.043638 -0.105785 0
0.000000 -0.016416 0
0.000000 0.087695 0
-0.038968 0.196412 0
-0.078525 0.229728 0
-0.113308 0.251250 0
-0.143057 0.265740 0
-0.167834 0.272362 0
-0.187996 0.271606 0
-0.204054 0.264509 0
-0.216590 0.252342 0
-0.226172 0.236368 0
-0.233307 0.217702 0
-0.238425 0.197267 0
-0.241887 0.175797 0
-0.244001 0.153868 0
-0.245036 0.131919 0
-0.245232 0.110260 0
-0.244800 0.089083 0
-0.243927 0.068472 0
-0.242772 0.048408 0
-0.241462 0.028784 0
-0.240085 0.009423 0
-0.238684 -0.009898 0
-0.237254 -0.029454 0
-0.235724 -0.049543 0
-0.233996 -0.070421 0
-0.231942 -0.092278 0
-0.229415 -0.115216 0
-0.226268 -0.139223 0
-0.222358 -0.164166 0
-0.217551 -0.189766 0
-0.211718 -0.215592 0
-0.204725 -0.241029 0
-0.196412 -0.265250 0
-0.186550 -0.287149 0
-0.174772 -0.305204 0
-0.160437 -0.317132 0
-0.142402 -0.319049 0
-0.118747 -0.303588 0
-0.086809 -0.256243 0
-0.044788 -0.149945 0
0.000000 -0.038849 0
0.000000 0.106210 0
-0.034853 0.233879 0
-0.070874 0.265329 0
-0.102512 0.282092 0
-0.129439 0.291697 0
-0.151698 0.293639 0
-0.169632 0.288640 0
-0.183737 0.277846 0
-0.194565 0.262547 0
-0.202642 0.243960 0
-0.208428 0.223131 0
-0.212317 0.200914 0
-0.214646 0.177988 0
-0.215714 0.154892 0
-0.215791 0.132032 0
-0.215123 0.109696 0
-0.213939 0.088053 0
-0.212448 0.067160 0
-0.210834 0.046970 0
-0.209247 0.027338 0
-0.207796 0.008043 0
-0.206532 -0.011191 0
-0.205450 -0.030699 0
-0.204473 -0.050828 0
-0.203485 -0.071871 0
-0.202338 -0.094041 0
-0.200863 -0.117448 0
-0.198891 -0.142084 0
-0.196258 -0.167803 0
-0.192814 -0.194322 0
-0.188415 -0.221204 0
-0.182918 -0.247848 0
-0.176162 -0.273461 0
-0.167944 -0.297019 0
-0.157971 -0.317170 0
-0.145757 -0.331985 0
-0.130392 -0.338243 0
-0.110140 -0.329504 0
-0.082121 -0.291536 0
-0.043512 -0.192594 0
0.000000 -0.061204 0
0.000000 0.122547 0
-0.030383 0.267286 0
-0.062540 0.297388 0
-0.090787 0.309814 0
-0.114759 0.314926 0
-0.134484 0.312555 0
-0.150268 0.303645 0
-0.162560 0.289442 0
-0.171851 0.271247 0
-0.178606 0.250231 0
-0.183234 0.227377 0
-0.186089 0.203485 0
-0.187483 0.179194 0
-0.187700 0.155013 0
-0.187003 0.131327 0
-0.185643 0.108408 0
-0.183859 0.086409 0
-0.181877 0.065367 0
-0.179902 0.045207 0
-0.178109 0.025746 0
-0.176621 0.006708 0
-0.175503 -0.012244 0
-0.174741 -0.031514 0
-0.174252 -0.051507 0
-0.173901 -0.072556 0
-0.173519 -0.094901 0
-0.172919 -0.118663 0
-0.171914 -0.143828 0
-0.170327 -0.170243 0
-0.167999 -0.197610 0
-0.164781 -0.225488 0
-0.160527 -0.253282 0
-0.155076 -0.280224 0
-0.148240 -0.305340 0
-0.139771 -0.327391 0
-0.129299 -0.344710 0
-0.116142 -0.354665 0
-0.098888 -0.351860 0
-0.074810 -0.322871 0
-0.040480 -0.232066 0
0.000000 -0.082362 0
0.000000 0.136593 0
-0.025768 0.296419 0
-0.053936 0.325732 0
-0.078710 0.334310 0
-0.099696 0.335394 0
-0.116913 0.329149 0
-0.130621 0.316715 0
-0.141205 0.299429 0
-0.149088 0.278593 0
-0.154667 0.255343 0
-0.158296 0.230614 0
-0.160288 0.205162 0
-0.160925 0.179599 0
-0.160471 0.154412 0
-0.159177 0.129976 0
-0.157291 0.106552 0
-0.155054 0.084287 0
-0.152705 0.063204 0
-0.150468 0.043202 0
-0.148534 0.024058 0
-0.147046 0.005437 0
-0.146072 -0.013071 0
-0.145595 -0.031949 0
-0.145517 -0.051669 0
-0.145687 -0.072604 0
-0.145916 -0.095023 0
-0.146004 -0.119054 0
-0.145754 -0.144676 0
-0.144987 -0.171718 0
-0.143542 -0.199868 0
-0.141276 -0.228677 0
-0.138049 -0.257553 0
-0.133709 -0.285748 0
-0.128082 -0.312324 0
-0.120951 -0.336111 0
-0.112024 -0.355614 0
-0.100815 -0.368655 0
-0.086277 -0.370836 0
-0.066064 -0.349944 0
-0.036457 -0.267404 0
0.000000 -0.101684 0
0.000000 0.148315 0
-0.021128 0.321222 0
-0.045305 0.350330 0
-0.066625 0.355575 0
-0.084662 0.353129 0
-0.099427 0.343480 0
-0.111134 0.327936 0
-0.120105 0.307910 0
-0.126689 0.284709 0
-0.131218 0.259439 0
-0.133991 0.232998 0
-0.135278 0.206114 0
-0.135329 0.179377 0
-0.134380 0.153265 0
-0.132666 0.128147 0
-0.130420 0.104285 0
-0.127883 0.081823 0
-0.125298 0.060781 0
-0.122899 0.041036 0
-0.120895 0.022324 0
-0.119439 0.004245 0
-0.118606 -0.013694 0
-0.118369 -0.032068 0
-0.118613 -0.051416 0
-0.119171 -0.072157 0
-0.119842 -0.094583 0
-0.120419 -0.118825 0
-0.120706 -0.144846 0
-0.120531 -0.172455 0
-0.119746 -0.201320 0
-0.118221 -0.230981 0
-0.115832 -0.260849 0
-0.112444 -0.290191 0
-0.107904 -0.318099 0
-0.102021 -0.343449 0
-0.094562 -0.364845 0
-0.085189 -0.380412 0
-0.073184 -0.386611 0
-0.056683 -0.372691 0
-0.031934 -0.298130 0
0.000000 -0.118819 0
0.000000 0.157721 0
-0.016521 0.341725 0
-0.036771 0.371230 0
-0.054712 0.373667 0
-0.069874 0.368196 0
-0.082265 0.355622 0
-0.092055 0.337393 0
-0.099502 0.314983 0
-0.104888 0.289706 0
-0.108484 0.262646 0
-0.110536 0.234675 0
-0.111270 0.206500 0
-0.110900 0.178701 0
-0.109633 0.151749 0
-0.107677 0.126015 0
-0.105249 0.101770 0
-0.102576 0.079165 0
-0.099896 0.058220 0
-0.097447 0.038798 0
-0.095446 0.020597 0
-0.094058 0.003148 0
-0.093358 -0.014141 0
-0.093304 -0.031942 0
-0.093766 -0.050866 0
-0.094561 -0.071375 0
-0.095486 -0.093774 0
-0.096339 -0.118190 0
-0.096938 -0.144564 0
-0.097130 -0.172678 0
-0.096791 -0.202178 0
-0.095813 -0.232591 0
-0.094095 -0.263329 0
-0.091526 -0.293676 0
-0.087979 -0.322748 0
-0.083295 -0.349452 0
-0.077289 -0.372446 0
-0.069725 -0.390033 0
-0.060149 -0.399342 0
-0.047182 -0.391194 0
-0.027237 -0.324087 0
0.000000 -0.133618 0
0.000000 0.164836 0
-0.011969 0.357994 0
-0.028381 0.388521 0
-0.043044 0.388678 0
-0.055425 0.380682 0
-0.065528 0.365660 0
-0.073485 0.345173 0
-0.079496 0.320743 0
-0.083781 0.293691 0
-0.086554 0.265086 0
-0.088012 0.235785 0
-0.088338 0.206478 0
-0.087709 0.177740 0
-0.086299 0.150042 0
-0.084286 0.123762 0
-0.081861 0.099183 0
-0.079230 0.076471 0
-0.076614 0.055653 0
-0.074241 0.036586 0
-0.072326 0.018934 0
-0.071039 0.002157 0
-0.070455 -0.014448 0
-0.070514 -0.031660 0
-0.071068 -0.050158 0
-0.071929 -0.070436 0
-0.072902 -0.092806 0
-0.073807 -0.117373 0
-0.074492 -0.144054 0
-0.074835 -0.172602 0
-0.074743 -0.202637 0
-0.074137 -0.233678 0
-0.072943 -0.265136 0
-0.071081 -0.296307 0
-0.068453 -0.326330 0
-0.064939 -0.354138 0
-0.060394 -0.378415 0
-0.054657 -0.397552 0
-0.047459 -0.409155 0
-0.037854 -0.405603 0
-0.022557 -0.345312 0
0.000000 -0.146055 0
0.000000 0.169691 0
-0.007471 0.370105 0
-0.020129 0.402305 0
-0.031618 0.400711 0
-0.041314 0.390680 0
-0.049217 0.373681 0
-0.055423 0.351361 0
-0.060080 0.325279 0
-0.063354 0.296764 0
-0.065405 0.266876 0
-0.066386 0.236459 0
-0.066438 0.206198 0
-0.065703 0.176662 0
-0.064318 0.148325 0
-0.062431 0.121577 0
-0.060201 0.096713 0
-0.057802 0.073918 0
-0.055425 0.053231 0
-0.053270 0.034511 0
-0.051533 0.017395 0
-0.050380 0.001277 0
-0.049881 -0.014666 0
-0.049961 -0.031329 0
-0.050458 -0.049451 0
-0.051192 -0.069541 0
-0.051996 -0.091897 0
-0.052729 -0.116600 0
-0.053283 -0.143536 0
-0.053578 -0.172427 0
-0.053557 -0.202876 0
-0.053173 -0.234391 0
-0.052382 -0.266385 0
-0.051137 -0.298166 0
-0.049372 -0.328890 0
-0.047006 -0.357512 0
-0.043937 -0.382728 0
-0.040060 -0.402968 0
-0.035225 -0.416146 0
-0.028833 -0.416096 0
-0.017992 -0.361941 0
0.000000 -0.156175 0
0.000000 0.172307 0
-0.003031 0.378123 0
-0.011975 0.412668 0
-0.020378 0.409863 0
-0.027477 0.398281 0
-0.033260 0.379768 0
-0.037790 0.356036 0
-0.041169 0.328674 0
-0.043510 0.299016 0
-0.044927 0.268118 0
-0.045531 0.236817 0
-0.045426 0.205795 0
-0.044717 0.175620 0
-0.043510 0.146770 0
-0.041917 0.119645 0
-0.040063 0.094554 0
-0.038083 0.071695 0
-0.036125 0.051121 0
-0.034342 0.032695 0
-0.032884 0.016044 0
-0.031893 0.000504 0
-0.031436 -0.014868 0
-0.031420 -0.031083 0
-0.031688 -0.048927 0
-0.032092 -0.068898 0
-0.032515 -0.091269 0
-0.032871 -0.116086 0
-0.033106 -0.143205 0
-0.033187 -0.172328 0
-0.033094 -0.203043 0
-0.032815 -0.234852 0
-0.032337 -0.267172 0
-0.031642 -0.299317 0
-0.030700 -0.330461 0
-0.029470 -0.359573 0
-0.027893 -0.385360 0
-0.025908 -0.406264 0
-0.023442 -0.420382 0
-0.020147 -0.422836 0
-0.013574 -0.374144 0
0.000000 -0.164048 0
0.000000 0.172721 0
0.001284 0.382080 0
-0.003830 0.419652 0
-0.009225 0.416213 0
-0.013812 0.403562 0
-0.017542 0.383995 0
-0.020459 0.359269 0
-0.022619 0.330999 0
-0.024089 0.300522 0
-0.024942 0.268897 0
-0.025246 0.236958 0
-0.025073 0.205384 0
-0.024493 0.174745 0
-0.023581 0.145526 0
-0.022417 0.118131 0
-0.021086 0.092880 0
-0.019682 0.069980 0
-0.018303 0.049489 0
-0.017040 0.031269 0
-0.015964 0.014946 0
-0.015159 -0.000171 0
-0.014692 -0.015139 0
-0.014440 -0.031077 0
-0.014299 -0.048779 0
-0.014185 -0.068714 0
-0.014050 -0.091118 0
-0.013871 -0.116009 0
-0.013650 -0.143220 0
-0.013401 -0.172439 0
-0.013142 -0.203248 0
-0.012892 -0.235148 0
-0.012668 -0.267559 0
-0.012484 -0.299803 0
-0.012345 -0.331062 0
-0.012247 -0.360319 0
-0.012176 -0.386289 0
-0.012114 -0.407418 0
-0.012035 -0.421907 0
-0.011757 -0.425964 0
-0.009293 -0.382088 0
0.000000 -0.169749 0
0.000000 0.171023 0
0.005494 0.381953 0
0.004351 0.423177 0
0.001942 0.419845 0
-0.000180 0.406598 0
-0.001909 0.386415 0
-0.003260 0.361113 0
-0.004246 0.332305 0
-0.004891 0.301339 0
-0.005223 0.269274 0
-0.005276 0.236948 0
-0.005087 0.205043 0
-0.004696 0.174129 0
-0.004148 0.144694 0
-0.003489 0.117150 0
-0.002768 0.091819 0
-0.002035 0.068912 0
-0.001332 0.048478 0
-0.000682 0.030356 0
-0.000075 0.014163 0
0.000501 -0.000767 0
0.001075 -0.015586 0
0.001703 -0.031477 0
0.002393 -0.049182 0
0.003146 -0.069147 0
0.003939 -0.091583 0
0.004731 -0.116486 0
0.005469 -0.143675 0
0.006098 -0.172836 0
0.006563 -0.203552 0
0.006813 -0.235325 0
0.006802 -0.267579 0
0.006486 -0.299641 0
0.005824 -0.330698 0
0.004782 -0.359741 0
0.003330 -0.385492 0
0.001447 -0.406406 0
-0.000882 -0.420739 0
-0.003578 -0.425578 0
-0.005107 -0.385902 0
0.000000 -0.173340 0
0.000000 0.167228 0
0.009720 0.377729 0
0.012618 0.423203 0
0.013224 0.420745 0
0.013549 0.407414 0
0.013788 0.387074 0
0.013975 0.361606 0
0.014137 0.332630 0
0.014298 0.301499 0
0.014471 0.269281 0
0.014657 0.236821 0
0.014851 0.204805 0
0.015042 0.173807 0
0.015215 0.144318 0
0.015358 0.116751 0
0.015460 0.091426 0
0.015520 0.068544 0
0.015558 0.048136 0
0.015623 0.030013 0
0.015793 0.013763 0
0.016182 -0.001321 0
0.016917 -0.016340 0
0.017951 -0.032395 0
0.019207 -0.050222 0
0.020601 -0.070259 0
0.022045 -0.092703 0
0.023437 -0.117540 0
0.024678 -0.144587 0
0.025670 -0.173532 0
0.026325 -0.203963 0
0.026560 -0.235387 0
0.026297 -0.267232 0
0.025459 -0.298825 0
0.023973 -0.329358 0
0.021763 -0.357825 0
0.018759 -0.382954 0
0.014897 -0.403206 0
0.010135 -0.416882 0
0.004501 -0.421739 0
-0.000942 -0.385666 0
0.000000 -0.174856 0
0.000000 0.161304 0
0.014033 0.369334 0
0.021083 0.419673 0
0.024746 0.418914 0
0.027489 0.406034 0
0.029673 0.385989 0
0.031383 0.360763 0
0.032689 0.331982 0
0.033660 0.301006 0
0.034351 0.268916 0
0.034799 0.236568 0
0.035031 0.204658 0
0.035065 0.173764 0
0.034918 0.144377 0
0.034609 0.116905 0
0.034172 0.091657 0
0.033659 0.068814 0
0.033154 0.048375 0
0.032772 0.030121 0
0.032654 0.013604 0
0.032968 -0.001891 0
0.033837 -0.017355 0
0.035197 -0.033766 0
0.036920 -0.051832 0
0.038857 -0.071986 0
0.040853 -0.094419 0
0.042755 -0.119119 0
0.044414 -0.145908 0
0.045695 -0.174483 0
0.046473 -0.204441 0
0.046634 -0.235297 0
0.046065 -0.266479 0
0.044658 -0.297317 0
0.042299 -0.327002 0
0.038873 -0.354527 0
0.034265 -0.378626 0