# vtk DataFile Version 2.0
generated by CFD-lab course output (written by Tobias Neckel) 
ASCII

DATASET STRUCTURED_GRID
DIMENSIONS  41 41 1 
POINTS 1681 float

0.150000 0.150000 0
0.167857 0.150000 0
0.185714 0.150000 0
0.203571 0.150000 0
0.221429 0.150000 0
0.239286 0.150000 0
0.257143 0.150000 0
0.275000 0.150000 0
0.292857 0.150000 0
0.310714 0.150000 0
0.328571 0.150000 0
0.346429 0.150000 0
0.364286 0.150000 0
0.382143 0.150000 0
0.400000 0.150000 0
0.417857 0.150000 0
0.435714 0.150000 0
0.453571 0.150000 0
0.471429 0.150000 0
0.489286 0.150000 0
0.507143 0.150000 0
0.525000 0.150000 0
0.542857 0.150000 0
0.560714 0.150000 0
0.578571 0.150000 0
0.596429 0.150000 0
0.614286 0.150000 0
0.632143 0.150000 0
0.650000 0.150000 0
0.667857 0.150000 0
0.685714 0.150000 0
0.703571 0.150000 0
0.721429 0.150000 0
0.739286 0.150000 0
0.757143 0.150000 0
0.775000 0.150000 0
0.792857 0.150000 0
0.810714 0.150000 0
0.828571 0.150000 0
0.846429 0.150000 0
0.864286 0.150000 0
0.150000 0.167857 0
0.167857 0.167857 0
0.185714 0.167857 0
0.203571 0.167857 0
0.221429 0.167857 0
0.239286 0.167857 0
0.257143 0.167857 0
0.275000 0.167857 0
0.292857 0.167857 0
0.310714 0.167857 0
0.328571 0.167857 0
0.346429 0.167857 0
0.364286 0.167857 0
0.382143 0.167857 0
0.400000 0.167857 0
0.417857 0.167857 0
0.435714 0.167857 0
0.453571 0.167857 0
0.471429 0.167857 0
0.489286 0.167857 0
0.507143 0.167857 0
0.525000 0.167857 0
0.542857 0.167857 0
0.560714 0.167857 0
0.578571 0.167857 0
0.596429 0.167857 0
0.614286 0.167857 0
0.632143 0.167857 0
0.650000 0.167857 0
0.667857 0.167857 0
0.685714 0.167857 0
0.703571 0.167857 0
0.721429 0.167857 0
0.739286 0.167857 0
0.757143 0.167857 0
0.775000 0.167857 0
0.792857 0.167857 0
0.810714 0.167857 0
0.828571 0.167857 0
0.846429 0.167857 0
0.864286 0.167857 0
0.150000 0.185714 0
0.167857 0.185714 0
0.185714 0.185714 0
0.203571 0.185714 0
0.221429 0.185714 0
0.239286 0.185714 0
0.257143 0.185714 0
0.275000 0.185714 0
0.292857 0.185714 0
0.310714 0.185714 0
0.328571 0.185714 0
0.346429 0.185714 0
0.364286 0.185714 0
0.382143 0.185714 0
0.400000 0.185714 0
0.417857 0.185714 0
0.435714 0.185714 0
0.453571 0.185714 0
0.471429 0.185714 0
0.489286 0.185714 0
0.507143 0.185714 0
0.525000 0.185714 0
0.542857 0.185714 0
0.560714 0.185714 0
0.578571 0.185714 0
0.596429 0.185714 0
0.614286 0.185714 0
0.632143 0.185714 0
0.650000 0.185714 0
0.667857 0.185714 0
0.685714 0.185714 0
0.703571 0.185714 0
0.721429 0.185714 0
0.739286 0.185714 0
0.757143 0.185714 0
0.775000 0.185714 0
0.792857 0.185714 0
0.810714 0.185714 0
0.828571 0.185714 0
0.846429 0.185714 0
0.864286 0.185714 0
0.150000 0.203571 0
0.167857 0.203571 0
0.185714 0.203571 0
0.203571 0.203571 0
0.221429 0.203571 0
0.239286 0.203571 0
0.257143 0.203571 0
0.275000 0.203571 0
0.292857 0.203571 0
0.310714 0.203571 0
0.328571 0.203571 0
0.346429 0.203571 0
0.364286 0.203571 0
0.382143 0.203571 0
0.400000 0.203571 0
0.417857 0.203571 0
0.435714 0.203571 0
0.453571 0.203571 0
0.471429 0.203571 0
0.489286 0.203571 0
0.507143 0.203571 0
0.525000 0.203571 0
0.542857 0.203571 0
0.560714 0.203571 0
0.578571 0.203571 0
0.596429 0.203571 0
0.614286 0.203571 0
0.632143 0.203571 0
0.650000 0.203571 0
0.667857 0.203571 0
0.685714 0.203571 0
0.703571 0.203571 0
0.721429 0.203571 0
0.739286 0.203571 0
0.757143 0.203571 0
0.775000 0.203571 0
0.792857 0.203571 0
0.810714 0.203571 0
0.828571 0.203571 0
0.846429 0.203571 0
0.864286 0.203571 0
0.150000 0.221429 0
0.167857 0.221429 0
0.185714 0.221429 0
0.203571 0.221429 0
0.221429 0.221429 0
0.239286 0.221429 0
0.257143 0.221429 0
0.275000 0.221429 0
0.292857 0.221429 0
0.310714 0.221429 0
0.328571 0.221429 0
0.346429 0.221429 0
0.364286 0.221429 0
0.382143 0.221429 0
0.400000 0.221429 0
0.417857 0.221429 0
0.435714 0.221429 0
0.453571 0.221429 0
0.471429 0.221429 0
0.489286 0.221429 0
0.507143 0.221429 0
0.525000 0.221429 0
0.542857 0.221429 0
0.560714 0.221429 0
0.578571 0.221429 0
0.596429 0.221429 0
0.614286 0.221429 0
0.632143 0.221429 0
0.650000 0.221429 0
0.667857 0.221429 0
0.685714 0.221429 0
0.703571 0.221429 0
0.721429 0.221429 0
0.739286 0.221429 0
0.757143 0.221429 0
0.775000 0.221429 0
0.792857 0.221429 0
0.810714 0.221429 0
0.828571 0.221429 0
0.846429 0.221429 0
0.864286 0.221429 0
0.150000 0.239286 0
0.167857 0.239286 0
0.185714 0.239286 0
0.203571 0.239286 0
0.221429 0.239286 0
0.239286 0.239286 0
0.257143 0.239286 0
0.275000 0.239286 0
0.292857 0.239286 0
0.310714 0.239286 0
0.328571 0.239286 0
0.346429 0.239286 0
0.364286 0.239286 0
0.382143 0.239286 0
0.400000 0.239286 0
0.417857 0.239286 0
0.435714 0.239286 0
0.453571 0.239286 0
0.471429 0.239286 0
0.489286 0.239286 0
0.507143 0.239286 0
0.525000 0.239286 0
0.542857 0.239286 0
0.560714 0.239286 0
0.578571 0.239286 0
0.596429 0.239286 0
0.614286 0.239286 0
0.632143 0.239286 0
0.650000 0.239286 0
0.667857 0.239286 0
0.685714 0.239286 0
0.703571 0.239286 0
0.721429 0.239286 0
0.739286 0.239286 0
0.757143 0.239286 0
0.775000 0.239286 0
0.792857 0.239286 0
0.810714 0.239286 0
0.828571 0.239286 0
0.846429 0.239286 0
0.864286 0.239286 0
0.150000 0.257143 0
0.167857 0.257143 0
0.185714 0.257143 0
0.203571 0.257143 0
0.221429 0.257143 0
0.239286 0.257143 0
0.257143 0.257143 0
0.275000 0.257143 0
0.292857 0.257143 0
0.310714 0.257143 0
0.328571 0.257143 0
0.346429 0.257143 0
0.364286 0.257143 0
0.382143 0.257143 0
0.400000 0.257143 0
0.417857 0.257143 0
0.435714 0.257143 0
0.453571 0.257143 0
0.471429 0.257143 0
0.489286 0.257143 0
0.507143 0.257143 0
0.525000 0.257143 0
0.542857 0.257143 0
0.560714 0.257143 0
0.578571 0.257143 0
0.596429 0.257143 0
0.614286 0.257143 0
0.632143 0.257143 0
0.650000 0.257143 0
0.667857 0.257143 0
0.685714 0.257143 0
0.703571 0.257143 0
0.721429 0.257143 0
0.739286 0.257143 0
0.757143 0.257143 0
0.775000 0.257143 0
0.792857 0.257143 0
0.810714 0.257143 0
0.828571 0.257143 0
0.846429 0.257143 0
0.864286 0.257143 0
0.150000 0.275000 0
0.167857 0.275000 0
0.185714 0.275000 0
0.203571 0.275000 0
0.221429 0.275000 0
0.239286 0.275000 0
0.257143 0.275000 0
0.275000 0.275000 0
0.292857 0.275000 0
0.310714 0.275000 0
0.328571 0.275000 0
0.346429 0.275000 0
0.364286 0.275000 0
0.382143 0.275000 0
0.400000 0.275000 0
0.417857 0.275000 0
0.435714 0.275000 0
0.453571 0.275000 0
0.471429 0.275000 0
0.489286 0.275000 0
0.507143 0.275000 0
0.525000 0.275000 0
0.542857 0.275000 0
0.560714 0.275000 0
0.578571 0.275000 0
0.596429 0.275000 0
0.614286 0.275000 0
0.632143 0.275000 0
0.650000 0.275000 0
0.667857 0.275000 0
0.685714 0.275000 0
0.703571 0.275000 0
0.721429 0.275000 0
0.739286 0.275000 0
0.757143 0.275000 0
0.775000 0.275000 0
0.792857 0.275000 0
0.810714 0.275000 0
0.828571 0.275000 0
0.846429 0.275000 0
0.864286 0.275000 0
0.150000 0.292857 0
0.167857 0.292857 0
0.185714 0.292857 0
0.203571 0.292857 0
0.221429 0.292857 0
0.239286 0.292857 0
0.257143 0.292857 0
0.275000 0.292857 0
0.292857 0.292857 0
0.310714 0.292857 0
0.328571 0.292857 0
0.346429 0.292857 0
0.364286 0.292857 0
0.382143 0.292857 0
0.400000 0.292857 0
0.417857 0.292857 0
0.435714 0.292857 0
0.453571 0.292857 0
0.471429 0.292857 0
0.489286 0.292857 0
0.507143 0.292857 0
0.525000 0.292857 0
0.542857 0.292857 0
0.560714 0.292857 0
0.578571 0.292857 0
0.596429 0.292857 0
0.614286 0.292857 0
0.632143 0.292857 0
0.650000 0.292857 0
0.667857 0.292857 0
0.685714 0.292857 0
0.703571 0.292857 0
0.721429 0.292857 0
0.739286 0.292857 0
0.757143 0.292857 0
0.775000 0.292857 0
0.792857 0.292857 0
0.810714 0.292857 0
0.828571 0.292857 0
0.846429 0.292857 0
0.864286 0.292857 0
0.150000 0.310714 0
0.167857 0.310714 0
0.185714 0.310714 0
0.203571 0.310714 0
0.221429 0.310714 0
0.239286 0.310714 0
0.257143 0.310714 0
0.275000 0.310714 0
0.292857 0.310714 0
0.310714 0.310714 0
0.328571 0.310714 0
0.346429 0.310714 0
0.364286 0.310714 0
0.382143 0.310714 0
0.400000 0.310714 0
0.417857 0.310714 0
0.435714 0.310714 0
0.453571 0.310714 0
0.471429 0.310714 0
0.489286 0.310714 0
0.507143 0.310714 0
0.525000 0.310714 0
0.542857 0.310714 0
0.560714 0.310714 0
0.578571 0.310714 0
0.596429 0.310714 0
0.614286 0.310714 0
0.632143 0.310714 0
0.650000 0.310714 0
0.667857 0.310714 0
0.685714 0.310714 0
0.703571 0.310714 0
0.721429 0.310714 0
0.739286 0.310714 0
0.757143 0.310714 0
0.775000 0.310714 0
0.792857 0.310714 0
0.810714 0.310714 0
0.828571 0.310714 0
0.846429 0.310714 0
0.864286 0.310714 0
0.150000 0.328571 0
0.167857 0.328571 0
0.185714 0.328571 0
0.203571 0.328571 0
0.221429 0.328571 0
0.239286 0.328571 0
0.257143 0.328571 0
0.275000 0.328571 0
0.292857 0.328571 0
0.310714 0.328571 0
0.328571 0.328571 0
0.346429 0.328571 0
0.364286 0.328571 0
0.382143 0.328571 0
0.400000 0.328571 0
0.417857 0.328571 0
0.435714 0.328571 0
0.453571 0.328571 0
0.471429 0.328571 0
0.489286 0.328571 0
0.507143 0.328571 0
0.525000 0.328571 0
0.542857 0.328571 0
0.560714 0.328571 0
0.578571 0.328571 0
0.596429 0.328571 0
0.614286 0.328571 0
0.632143 0.328571 0
0.650000 0.328571 0
0.667857 0.328571 0
0.685714 0.328571 0
0.703571 0.328571 0
0.721429 0.328571 0
0.739286 0.328571 0
0.757143 0.328571 0
0.775000 0.328571 0
0.792857 0.328571 0
0.810714 0.328571 0
0.828571 0.328571 0
0.846429 0.328571 0
0.864286 0.328571 0
0.150000 0.346429 0
0.167857 0.346429 0
0.185714 0.346429 0
0.203571 0.346429 0
0.221429 0.346429 0
0.239286 0.346429 0
0.257143 0.346429 0
0.275000 0.346429 0
0.292857 0.346429 0
0.310714 0.346429 0
0.328571 0.346429 0
0.346429 0.346429 0
0.364286 0.346429 0
0.382143 0.346429 0
0.400000 0.346429 0
0.417857 0.346429 0
0.435714 0.346429 0
0.453571 0.346429 0
0.471429 0.346429 0
0.489286 0.346429 0
0.507143 0.346429 0
0.525000 0.346429 0
0.542857 0.346429 0
0.560714 0.346429 0
0.578571 0.346429 0
0.596429 0.346429 0
0.614286 0.346429 0
0.632143 0.346429 0
0.650000 0.346429 0
0.667857 0.346429 0
0.685714 0.346429 0
0.703571 0.346429 0
0.721429 0.346429 0
0.739286 0.346429 0
0.757143 0.346429 0
0.775000 0.346429 0
0.792857 0.346429 0
0.810714 0.346429 0
0.828571 0.346429 0
0.846429 0.346429 0
[...]
POINT_DATA 1681 

VECTORS velocity float
0.000000 0.000000 0
0.005412 0.000000 0
0.011488 0.000000 0
0.014015 0.000000 0
0.014260 0.000000 0
0.013927 0.000000 0
0.011873 0.000000 0
0.016591 0.000000 0
0.021095 0.000000 0
0.011379 0.000000 0
-0.005805 0.000000 0
-0.025170 0.000000 0
-0.045035 0.000000 0
-0.064341 0.000000 0
-0.082373 0.000000 0
-0.098704 0.000000 0
-0.113177 0.000000 0
-0.125653 0.000000 0
-0.136092 0.000000 0
-0.144488 0.000000 0
-0.150857 0.000000 0
-0.155217 0.000000 0
-0.157569 0.000000 0
-0.157935 0.000000 0
-0.156197 0.000000 0
-0.152221 0.000000 0
-0.145938 0.000000 0
-0.137261 0.000000 0
-0.126115 0.000000 0
-0.112441 0.000000 0
-0.096305 0.000000 0
-0.077775 0.000000 0
-0.057098 0.000000 0
-0.034744 0.000000 0
-0.011508 0.000000 0
0.011377 0.000000 0
0.026832 0.000000 0
0.030075 0.000000 0
0.022514 0.000000 0
0.010552 0.000000 0
0.000000 0.000000 0
0.000000 -0.005412 0
0.014860 -0.011488 0
0.027763 -0.008604 0
0.033172 -0.002772 0
0.033455 0.000089 0
0.033685 0.002387 0
0.024777 -0.002664 0
0.006539 -0.009222 0
-0.017027 0.005212 0
-0.047827 0.026899 0
-0.084787 0.036549 0
-0.123825 0.039231 0
-0.162456 0.039171 0
-0.199006 0.037338 0
-0.232418 0.034362 0
-0.262087 0.030804 0
-0.287750 0.026949 0
-0.309286 0.022914 0
-0.326691 0.018836 0
-0.340016 0.014766 0
-0.349329 0.010729 0
-0.354691 0.006711 0
-0.356131 0.002718 0
-0.353634 -0.001372 0
-0.347132 -0.005714 0
-0.336543 -0.010259 0
-0.321721 -0.014960 0
-0.302511 -0.019823 0
-0.278765 -0.024821 0
-0.250380 -0.029810 0
-0.217376 -0.034665 0
-0.179917 -0.039207 0
-0.138479 -0.043031 0
-0.094056 -0.045591 0
-0.048502 -0.046121 0
-0.005162 -0.038339 0
0.029984 -0.018699 0
0.046798 0.004318 0
0.036334 0.019523 0
0.016991 0.022514 0
0.000000 0.010552 0
0.000000 -0.014860 0
0.018125 -0.027763 0
0.028964 -0.018312 0
0.032564 -0.005692 0
0.021601 -0.000513 0
0.001280 0.008678 0
-0.026832 0.027146 0
-0.071187 0.041804 0
-0.121672 0.054366 0
-0.163087 0.067760 0
-0.200467 0.075998 0
-0.236000 0.077669 0
-0.268956 0.075181 0
-0.298673 0.069962 0
-0.324795 0.063081 0
-0.347168 0.055333 0
-0.365707 0.047199 0
-0.380503 0.038941 0
-0.391652 0.030730 0
-0.399265 0.022638 0
-0.403437 0.014676 0
-0.404227 0.006802 0
-0.401665 -0.001057 0
-0.395688 -0.008998 0
-0.386345 -0.017091 0
-0.373615 -0.025412 0
-0.357370 -0.034031 0
-0.337467 -0.042956 0
-0.313763 -0.052132 0
-0.286161 -0.061389 0
-0.254575 -0.070463 0
-0.219160 -0.078897 0
-0.180317 -0.085861 0
-0.138942 -0.089977 0
-0.096771 -0.088893 0
-0.056927 -0.078486 0
-0.019397 -0.051960 0
0.010226 -0.006351 0
0.016792 0.029807 0
0.007563 0.036334 0
0.000000 0.016991 0
0.000000 -0.023537 0
0.011417 -0.040452 0
0.010501 -0.023042 0
-0.005842 0.004590 0
-0.032539 0.031373 0
-0.072493 0.050821 0
-0.113930 0.069802 0
-0.154662 0.085618 0
-0.195662 0.097112 0
-0.232683 0.105695 0
-0.264444 0.109463 0
-0.292410 0.107719 0
-0.316976 0.101844 0
-0.338324 0.093177 0
-0.356595 0.082857 0
-0.371913 0.071716 0
-0.384362 0.060284 0
-0.394055 0.048859 0
-0.401077 0.037598 0
-0.405494 0.026550 0
-0.407341 0.015691 0
-0.406623 0.004940 0
-0.403319 -0.005822 0
-0.397388 -0.016693 0
-0.388787 -0.027786 0
-0.377398 -0.039233 0
-0.363109 -0.051108 0
-0.345787 -0.063430 0
-0.325305 -0.076126 0
-0.301554 -0.088997 0
-0.274461 -0.101666 0
-0.244097 -0.113466 0
-0.210709 -0.123249 0
-0.174837 -0.129137 0
-0.137420 -0.128135 0
-0.099809 -0.115713 0
-0.063355 -0.085853 0
-0.028447 -0.031871 0
0.000751 0.022186 0
-0.000592 0.039306 0
0.000000 0.018116 0
0.000000 -0.026277 0
-0.007415 -0.038263 0
-0.029208 -0.001053 0
-0.061517 0.037348 0
-0.094415 0.066138 0
-0.131478 0.090069 0
-0.169579 0.109315 0
-0.205596 0.123536 0
-0.239365 0.132387 0
-0.269260 0.136541 0
-0.294446 0.135725 0
-0.315741 0.130202 0
-0.333813 0.121095 0
-0.349168 0.109581 0
-0.362145 0.096670 0
-0.372950 0.083099 0
-0.381689 0.069340 0
-0.388430 0.055656 0
-0.393200 0.042170 0
-0.396005 0.028902 0
-0.396830 0.015804 0
-0.395647 0.002779 0
-0.392412 -0.010292 0
-0.387117 -0.023530 0
-0.379668 -0.037082 0
-0.369978 -0.051090 0
-0.357944 -0.065642 0
-0.343455 -0.080760 0
-0.326399 -0.096365 0
-0.306678 -0.112232 0
-0.284213 -0.127920 0
-0.258990 -0.142649 0
-0.231064 -0.155121 0
-0.200578 -0.163266 0
-0.167742 -0.163921 0
-0.132751 -0.152551 0
-0.095610 -0.123323 0
-0.056177 -0.070456 0
-0.014617 0.001953 0
-0.004215 0.037085 0
0.000000 0.016399 0
0.000000 -0.016122 0
-0.028972 -0.011244 0
-0.064869 0.031060 0
-0.098057 0.069797 0
-0.132941 0.101334 0
-0.167911 0.125985 0
-0.201689 0.143920 0
-0.232575 0.155404 0
-0.260148 0.160776 0
-0.283809 0.160775 0
-0.303440 0.155944 0
-0.319680 0.147087 0
-0.333180 0.135271 0
-0.344465 0.121510 0
-0.353876 0.106639 0
-0.361611 0.091261 0
-0.367767 0.075764 0
-0.372393 0.060369 0
-0.375505 0.045173 0
-0.377105 0.030180 0
-0.377185 0.015333 0
-0.375724 0.000522 0
-0.372697 -0.014351 0
-0.368086 -0.029437 0
-0.361811 -0.044925 0
-0.353795 -0.060957 0
-0.343947 -0.077632 0
-0.332171 -0.094974 0
-0.318372 -0.112903 0
-0.302454 -0.131184 0
-0.284329 -0.149354 0
-0.263915 -0.166615 0
-0.241107 -0.181661 0
-0.215738 -0.192459 0
-0.187504 -0.195961 0
-0.155869 -0.187845 0
-0.120043 -0.162427 0
-0.079293 -0.112864 0
-0.034350 -0.029776 0
0.003444 0.024689 0
0.000000 0.013901 0
0.000000 0.002696 0
-0.040602 0.026605 0
-0.080613 0.068031 0
-0.117775 0.105420 0
-0.153094 0.135992 0
-0.186004 0.158816 0
-0.215975 0.173979 0
-0.242333 0.181996 0
-0.264948 0.183621 0
-0.283805 0.179833 0
-0.299196 0.171596 0
-0.311708 0.159942 0
-0.321905 0.145880 0
-0.330235 0.130276 0
-0.336999 0.113817 0
-0.342382 0.096991 0
-0.346495 0.080122 0
-0.349406 0.063393 0
-0.351159 0.046882 0
-0.351780 0.030582 0
-0.351282 0.014423 0
-0.349665 -0.001709 0
-0.346922 -0.017930 0
-0.343003 -0.034416 0
-0.337851 -0.051374 0
-0.331391 -0.068954 0
-0.323540 -0.087266 0
-0.314208 -0.106335 0
-0.303305 -0.126083 0
-0.290739 -0.146275 0
-0.276411 -0.166459 0
-0.260198 -0.185872 0
-0.241905 -0.203298 0
-0.221193 -0.216869 0
-0.197468 -0.223791 0
-0.169782 -0.220012 0
-0.136840 -0.199898 0
-0.097322 -0.156149 0
-0.050542 -0.080785 0
0.005027 0.002735 0
0.000000 0.019843 0
0.000000 0.024480 0
-0.043878 0.069369 0
-0.086578 0.108233 0
-0.125183 0.142278 0
-0.159926 0.169563 0
-0.190705 0.188866 0
-0.217454 0.200249 0
-0.240122 0.204377 0
-0.258923 0.202248 0
-0.274187 0.195023 0
-0.286394 0.183847 0
-0.296092 0.169796 0
-0.303765 0.153798 0
-0.309794 0.136603 0
-0.314453 0.118786 0
-0.317937 0.100756 0
-0.320384 0.082788 0
-0.321898 0.065033 0
-0.322554 0.047547 0
-0.322406 0.030303 0
-0.321487 0.013218 0
-0.319813 -0.003839 0
-0.317382 -0.021013 0
-0.314138 -0.038508 0
-0.310029 -0.056537 0
-0.304977 -0.075268 0
-0.298896 -0.094814 0
-0.291693 -0.115209 0
-0.283273 -0.136373 0
-0.273537 -0.158078 0
-0.262378 -0.179895 0
-0.249656 -0.201120 0
-0.235150 -0.220666 0
-0.218471 -0.236896 0
-0.198941 -0.247373 0
-0.175460 -0.248473 0
-0.146464 -0.234888 0
-0.110189 -0.199161 0
-0.065716 -0.132124 0
-0.015828 -0.025853 0
0.000000 0.018927 0
0.000000 0.046574 0
-0.043367 0.113183 0
-0.086300 0.149336 0
-0.124405 0.178768 0
-0.157699 0.201514 0
-0.186229 0.216344 0
-0.210190 0.223396 0
-0.229876 0.223465 0
-0.245733 0.217685 0
-0.258271 0.207304 0
-0.268032 0.193502 0
-0.275529 0.177314 0
-0.281188 0.159582 0
-0.285356 0.140964 0
-0.288302 0.121959 0
-0.290238 0.102922 0
-0.291332 0.084083 0
-0.291721 0.065563 0
-0.291508 0.047390 0
-0.290773 0.029516 0
-0.289565 0.011831 0
-0.287911 -0.005815 0
-0.285811 -0.023605 0
-0.283216 -0.041768 0
-0.280063 -0.060535 0
-0.276270 -0.080087 0
-0.271741 -0.100549 0
-0.266370 -0.121958 0
-0.260047 -0.144239 0
-0.252658 -0.167169 0
-0.244082 -0.190339 0
-0.234174 -0.213099 0
-0.222718 -0.234483 0
-0.209361 -0.253078 0
-0.193489 -0.266802 0
-0.174091 -0.272489 0
-0.149663 -0.265169 0
-0.118409 -0.236897 0
-0.079346 -0.175146 0
-0.035602 -0.062981 0
0.000000 0.004015 0
0.000000 0.067847 0
-0.041031 0.155668 0
-0.082209 0.189271 0
-0.118471 0.213678 0
-0.149648 0.231388 0
-0.175806 0.241357 0
-0.197259 0.243895 0
-0.214461 0.239920 0
-0.227970 0.230642 0
-0.238361 0.217323 0
-0.246178 0.201105 0
-0.251896 0.182952 0
-0.255910 0.163626 0
-0.258552 0.143717 0
-0.260095 0.123667 0
-0.260771 0.103787 0
-0.260773 0.084271 0
-0.260263 0.065209 0
-0.259370 0.046598 0
-0.258195 0.028360 0
-0.256803 0.010356 0
-0.255229 -0.007592 0
-0.253476 -0.025709 0
-0.251493 -0.044256 0
-0.249210 -0.063482 0
-0.246536 -0.083589 0
-0.243359 -0.104714 0
-0.239556 -0.126903 0
-0.234998 -0.150085 0
-0.229550 -0.174043 0
-0.223072 -0.198379 0
-0.215409 -0.222485 0
-0.206359 -0.245479 0
-0.195622 -0.266126 0
-0.182705 -0.282642 0
-0.166771 -0.292300 0
-0.146478 -0.290570 0
-0.119942 -0.269479 0
-0.085269 -0.214931 0
-0.042554 -0.105199 0
0.000000 -0.016675 0
0.000000 0.087605 0
-0.037587 0.195393 0
-0.075865 0.226776 0
-0.109454 0.246207 0
-0.138071 0.258850 0
-0.161768 0.263955 0
-0.180886 0.262051 0
-0.195931 0.254176 0
-0.207481 0.241585 0
-0.216107 0.225511 0
-0.222324 0.207037 0
-0.226574 0.187046 0
-0.229230 0.166238 0
-0.230617 0.145149 0
-0.231016 0.124178 0
-0.230671 0.103600 0
-0.229798 0.083575 0
-0.228580 0.064160 0
-0.227167 0.045322 0
-0.225676 0.026948 0
-0.224186 0.008865 0
-0.222738 -0.009141 0
-0.221335 -0.027341 0
-0.219919 -0.046034 0
-0.218415 -0.065492 0
-0.216717 -0.085939 0
-0.214701 -0.107529 0
-0.212227 -0.130319 0
-0.209144 -0.154246 0
-0.205298 -0.179095 0
-0.200529 -0.204480 0
-0.194669 -0.229812 0
-0.187522 -0.254269 0
-0.178832 -0.276732 0
-0.168208 -0.295653 0
-0.154993 -0.308716 0
-0.138039 -0.311998 0
-0.115433 -0.298107 0
-0.084541 -0.252533 0
-0.043617 -0.148250 0
0.000000 -0.038540 0
0.000000 0.105434 0
-0.033506 0.231533 0
-0.068269 0.261138 0
-0.098729 0.275885 0
-0.124539 0.283701 0
-0.145731 0.284172 0
-0.162633 0.278058 0
-0.175734 0.266514 0
-0.185581 0.250818 0
-0.192703 0.232166 0
-0.197572 0.211572 0
-0.200597 0.189859 0
-0.202132 0.167670 0
-0.202496 0.145502 0
-0.201972 0.123721 0
-0.200817 0.102570 0
-0.199260 0.082180 0
-0.197502 0.062578 0
-0.195709 0.043694 0
-0.194012 0.025379 0
-0.192498 0.007419 0
-0.191212 -0.010444 0
-0.190148 -0.028528 0
-0.189246 -0.047176 0
-0.188419 -0.066684 0
-0.187551 -0.087303 0
-0.186506 -0.109204 0
-0.185128 -0.132460 0
-0.183252 -0.157015 0
-0.180709 -0.182658 0
-0.177325 -0.209008 0
-0.172921 -0.235491 0
-0.167302 -0.261316 0
-0.160235 -0.285440 0
-0.151403 -0.306481 0
-0.140302 -0.322468 0
-0.126012 -0.330130 0
-0.106799 -0.322977 0
-0.079815 -0.286747 0
-0.042311 -0.189740 0
0.000000 -0.060292 0
0.000000 0.121111 0
-0.029105 0.263661 0
-0.060064 0.291999 0
-0.087186 0.302477 0
-0.110086 0.305852 0
-0.128781 0.302050 0
-0.143562 0.292053 0
-0.154871 0.277123 0
-0.163195 0.258554 0
-0.169007 0.237503 0
-0.172729 0.214931 0
-0.174733 0.191607 0
-0.175356 0.168137 0
-0.174904 0.144989 0
-0.173662 0.122499 0
-0.171890 0.100888 0
-0.169828 0.080259 0
-0.167687 0.060609 0
-0.165646 0.041832 0
-0.163843 0.023738 0
-0.162370 0.006066 0
-0.161269 -0.011492 0
-0.160523 -0.029308 0
-0.160068 -0.047764 0
-0.159806 -0.067187 0
-0.159613 -0.087852 0
-0.159343 -0.109952 0
-0.158831 -0.133573 0
-0.157905 -0.158665 0
-0.156388 -0.185023 0
-0.154103 -0.212268 0
-0.150868 -0.239835 0
-0.146490 -0.266955 0
-0.140751 -0.292631 0
-0.133381 -0.315586 0
-0.123988 -0.334107 0
-0.111880 -0.345501 0
-0.095641 -0.344303 0
-0.072569 -0.317021 0
-0.039308 -0.228065 0
0.000000 -0.080851 0
0.000000 0.134539 0
-0.024589 0.291597 0
-0.051650 0.319219 0
-0.075383 0.325907 0
-0.095369 0.325296 0
-0.111615 0.317648 0
-0.124369 0.304147 0
-0.134010 0.286147 0
-0.140958 0.264955 0
-0.145620 0.241699 0
-0.148367 0.217298 0
-0.149537 0.192486 0
-0.149440 0.167841 0
-0.148372 0.143808 0
-0.146607 0.120707 0
-0.144409 0.098736 0
-0.142017 0.077977 0
-0.139648 0.058395 0
-0.137485 0.039849 0
-0.135667 0.022103 0
-0.134288 0.004845 0
-0.133381 -0.012290 0
-0.132920 -0.029729 0
-0.132831 -0.047893 0
-0.133010 -0.067139 0
-0.133327 -0.087766 0
-0.133629 -0.109987 0
-0.133753 -0.133898 0
-0.133525 -0.159457 0
-0.132774 -0.186459 0
-0.131328 -0.214528 0
-0.129012 -0.243104 0
-0.125646 -0.271433 0
-0.121027 -0.298550 0
-0.114916 -0.323244 0
-0.107005 -0.343968 0
-0.096792 -0.358477 0
-0.083222 -0.362288 0
-0.063960 -0.343080 0
-0.035354 -0.262308 0
0.000000 -0.099600 0
0.000000 0.145699 0
-0.020073 0.315311 0
-0.043259 0.342793 0
-0.063646 0.346196 0
-0.080779 0.342085 0
-0.094657 0.331050 0
-0.105483 0.314447 0
-0.113571 0.293712 0
-0.119272 0.270164 0
-0.122930 0.244912 0
-0.124865 0.218847 0
-0.125378 0.192680 0
-0.124752 0.166973 0
-0.123262 0.142156 0
-0.121174 0.118536 0
-0.118739 0.096298 0
-0.116195 0.075499 0
-0.113751 0.056076 0
-0.111586 0.037851 0
-0.109836 0.020541 0
-0.108588 0.003779 0
-0.107869 -0.012860 0
-0.107641 -0.029857 0
-0.107824 -0.047673 0
-0.108307 -0.066691 0
-0.108959 -0.087233 0
-0.109628 -0.109526 0
-0.110158 -0.133676 0
-0.110386 -0.159643 0
-0.110154 -0.187220 0
-0.109306 -0.216031 0
-0.107689 -0.245517 0
-0.105143 -0.274941 0
-0.101487 -0.303361 0
-0.096514 -0.329608 0
-0.089975 -0.352230 0
-0.081514 -0.369284 0
-0.070403 -0.377136 0
-0.054774 -0.364888 0
-0.030932 -0.292025 0
0.000000 -0.116205 0
0.000000 0.154612 0
-0.015613 0.334856 0
-0.035008 0.362792 0
-0.052145 0.363426 0
-0.066522 0.356307 0
-0.078132 0.342353 0
-0.087135 0.323061 0
-0.093784 0.299936 0
-0.098364 0.274314 0
-0.101158 0.247292 0
-0.102439 0.219746 0
-0.102467 0.192372 0
-0.101498 0.165725 0
-0.099783 0.140230 0
-0.097569 0.116184 0
-0.095091 0.093757 0
-0.092570 0.072989 0
-0.090201 0.053786 0
-0.088148 0.035934 0
-0.086535 0.019105 0
-0.085441 0.002878 0
-0.084889 -0.013237 0
-0.084827 -0.029774 0
-0.085171 -0.047227 0
-0.085811 -0.066004 0
-0.086615 -0.086446 0
-0.087445 -0.108788 0
-0.088157 -0.133140 0
-0.088609 -0.159461 0
-0.088667 -0.187540 0
-0.088203 -0.216993 0
-0.087091 -0.247267 0
-0.085203 -0.277635 0
-0.082388 -0.307179 0
-0.078475 -0.334757 0
-0.073262 -0.358968 0
-0.066498 -0.378049 0
-0.057714 -0.389028 0
-0.045517 -0.382551 0
-0.026360 -0.317083 0
0.000000 -0.130531 0
0.000000 0.161313 0
-0.011227 0.350319 0
-0.026936 0.379325 0
-0.040942 0.377710 0
-0.052675 0.368072 0
-0.062126 0.351664 0
-0.069414 0.330099 0
-0.074736 0.304940 0
-0.078315 0.277538 0
-0.080381 0.248987 0
-0.081158 0.220156 0
-0.080869 0.191739 0
-0.079738 0.164289 0
-0.077987 0.138226 0
-0.075839 0.113844 0
-0.073504 0.091299 0
-0.071175 0.070609 0
-0.069022 0.051654 0
-0.067182 0.034185 0
-0.065764 0.017835 0
-0.064833 0.002133 0
-0.064409 -0.013474 0
-0.064434 -0.029575 0
-0.064822 -0.046689 0
-0.065463 -0.065247 0
-0.066239 -0.085599 0
-0.067028 -0.107984 0
-0.067711 -0.132512 0
-0.068175 -0.159132 0
-0.068320 -0.187627 0
-0.068052 -0.217606 0
-0.067283 -0.248517 0
-0.065919 -0.279644 0
-0.063850 -0.310089 0
-0.060942 -0.338735 0
-0.057038 -0.364207 0
-0.051964 -0.384831 0
-0.045432 -0.398117 0
-0.036474 -0.396243 0
-0.021827 -0.337542 0
0.000000 -0.142565 0
0.000000 0.165839 0
-0.006908 0.361792 0
-0.019029 0.392507 0
-0.030021 0.389166 0
-0.039225 0.377492 0
-0.046623 0.359092 0
-0.052300 0.335671 0
-0.056401 0.308837 0
-0.059094 0.279960 0
-0.060558 0.250135 0
-0.060972 0.220234 0
-0.060520 0.190952 0
-0.059392 0.162843 0
-0.057778 0.136331 0
-0.055869 0.111700 0
-0.053841 0.089094 0
-0.051853 0.068507 0
-0.050036 0.049794 0
-0.048499 0.032676 0
-0.047320 0.016756 0
-0.046554 0.001524 0
-0.046211 -0.013636 0
-0.046238 -0.029361 0
-0.046546 -0.046198 0
-0.047037 -0.064588 0
-0.047611 -0.084881 0
-0.048175 -0.107316 0
-0.048640 -0.131993 0
-0.048934 -0.158852 0
-0.048995 -0.187663 0
-0.048773 -0.218030 0
-0.048218 -0.249400 0
-0.047279 -0.281068 0
-0.045884 -0.312156 0
-0.043943 -0.341568 0
-0.041346 -0.367946 0
-0.037973 -0.389655 0
-0.033656 -0.404519 0
-0.027770 -0.406156 0
-0.017425 -0.353556 0
0.000000 -0.152358 0
0.000000 0.168221 0
-0.002664 0.369348 0
-0.011238 0.402439 0
-0.019317 0.397906 0
-0.026091 0.384673 0
-0.031533 0.364739 0
-0.035693 0.339877 0
-0.038669 0.311734 0
-0.040579 0.281695 0
-0.041552 0.250864 0
-0.041725 0.220118 0
-0.041242 0.190159 0
-0.040257 0.161547 0
-0.038924 0.134704 0
-0.037394 0.109907 0
-0.035804 0.087283 0
-0.034271 0.066805 0
-0.032884 0.048300 0
-0.031712 0.031468 0
-0.030808 0.015890 0
-0.030205 0.001025 0
-0.029896 -0.013790 0
-0.029836 -0.029240 0
-0.029946 -0.045890 0
-0.030147 -0.064182 0
-0.030368 -0.084461 0
-0.030549 -0.106955 0
-0.030646 -0.131752 0
-0.030627 -0.158777 0
-0.030478 -0.187789 0
-0.030192 -0.218383 0
-0.029764 -0.250011 0
-0.029181 -0.281979 0
-0.028416 -0.313424 0
-0.027423 -0.343272 0
-0.026136 -0.370177 0
-0.024483 -0.392521 0
-0.022372 -0.408319 0
-0.019428 -0.412474 0
-0.013183 -0.365312 0
0.000000 -0.159990 0
0.000000 0.168503 0
0.001451 0.373029 0
-0.003465 0.409160 0
-0.008714 0.404019 0
-0.013154 0.389708 0
-0.016718 0.368694 0
-0.019440 0.342807 0
-0.021370 0.313723 0
-0.022580 0.282842 0
-0.023151 0.251281 0
-0.023178 0.219924 0
-0.022767 0.189484 0
-0.022028 0.160525 0
-0.021078 0.133468 0
-0.020025 0.108581 0
-0.018961 0.085971 0
-0.017956 0.065587 0
-0.017055 0.047235 0
-0.016285 0.030600 0
-0.015665 0.015249 0
-0.015211 0.000612 0
-0.014898 -0.014004 0
-0.014669 -0.029312 0
-0.014472 -0.045888 0
-0.014267 -0.064166 0
-0.014018 -0.084478 0
-0.013707 -0.107038 0
-0.013332 -0.131915 0
-0.012912 -0.159020 0
-0.012479 -0.188098 0
-0.012070 -0.218744 0
-0.011724 -0.250411 0
-0.011468 -0.282416 0
-0.011316 -0.313914 0
-0.011267 -0.343849 0
-0.011302 -0.370886 0
-0.011390 -0.393419 0
-0.011492 -0.409574 0
-0.011399 -0.415345 0
-0.009087 -0.372984 0
0.000000 -0.165541 0
0.000000 0.166770 0
0.005468 0.372814 0
0.004343 0.412603 0
0.001903 0.407595 0
-0.000254 0.392678 0
-0.002002 0.371024 0
-0.003343 0.344529 0
-0.004288 0.314874 0
-0.004857 0.283476 0
-0.005088 0.251463 0
-0.005033 0.219734 0
-0.004755 0.189009 0
-0.004324 0.159859 0
-0.003814 0.132700 0
-0.003287 0.107790 0
-0.002788 0.085214 0
-0.002340 0.064898 0
-0.001944 0.046629 0
-0.001585 0.030078 0
-0.001241 0.014816 0
-0.000889 0.000257 0
-0.000504 -0.014331 0
-0.000030 -0.029665 0
0.000545 -0.046292 0
0.001228 -0.064636 0
0.002012 -0.085022 0
0.002870 -0.107642 0
0.003756 -0.132547 0
0.004603 -0.159631 0
0.005335 -0.188630 0
0.005871 -0.219138 0
0.006135 -0.250614 0
0.006057 -0.282387 0
0.005584 -0.313625 0
0.004674 -0.343287 0
0.003299 -0.370054 0
0.001447 -0.392331 0
-0.000884 -0.408310 0
-0.003592 -0.414878 0
-0.005093 -0.376711 0
0.000000 -0.169077 0
0.000000 0.163035 0
0.009506 0.368687 0
0.012244 0.412725 0
0.012649 0.408616 0
0.012760 0.393613 0
0.012794 0.371783 0
0.012799 0.345093 0
0.012808 0.315237 0
0.012848 0.283643 0
0.012928 0.251457 0
0.013040 0.219591 0
0.013163 0.188776 0
0.013270 0.159584 0
0.013335 0.132430 0
0.013341 0.107555 0
0.013291 0.085024 0
0.013210 0.064743 0
0.013136 0.046480 0
0.013123 0.029896 0
0.013234 0.014553 0
0.013532 -0.000125 0
0.014059 -0.014863 0
0.014827 -0.030360 0
0.015812 -0.047147 0
0.016991 -0.065633 0
0.018313 -0.086120 0
0.019706 -0.108781 0
0.021080 -0.133648 0
0.022324 -0.160599 0
0.023318 -0.189366 0
0.023943 -0.219543 0
0.024082 -0.250597 0
0.023629 -0.281865 0
0.022489 -0.312531 0
0.020577 -0.341563 0
0.017821 -0.367659 0
0.014166 -0.389237 0
0.009580 -0.404535 0
0.004110 -0.411137 0
-0.001122 -0.376576 0
0.000000 -0.170634 0
0.000000 0.157264 0
0.013640 0.360569 0
0.020359 0.409461 0
0.023660 0.407079 0
0.026018 0.392533 0
0.027817 0.370985 0
0.029156 0.344515 0
0.030114 0.314825 0
0.030764 0.283356 0
0.031163 0.251271 0
0.031348 0.219498 0
0.031343 0.188779 0
0.031166 0.159687 0
0.030837 0.132630 0
0.030390 0.107833 0
0.029873 0.085345 0
0.029352 0.065053 0
0.028904 0.046715 0
0.028614 0.029981 0
0.028574 0.014407 0
0.028867 -0.000568 0
0.029551 -0.015626 0
0.030608 -0.031418 0
0.031988 -0.048457 0
0.033626 -0.067136 0
0.035433 -0.087736 0
0.037298 -0.110409 0
0.039088 -0.135165 0
0.040652 -0.161870 0
0.041830 -0.190250 0
0.042466 -0.219902 0
0.042405 -0.250300 0
0.041505 -0.280794 0
0.039628 -0.310573 0
0.036648 -0.338619 0
0.032445 -0.363643 0