# vtk DataFile Version 2.0
generated by CFD-lab course output (written by Tobias Neckel) 
ASCII

DATASET STRUCTURED_GRID
DIMENSIONS  41 41 1 
POINTS 1681 float

0.150000 0.150000 0
0.167857 0.150000 0
0.185714 0.150000 0
0.203571 0.150000 0
0.221429 0.150000 0
0.239286 0.150000 0
0.257143 0.150000 0
0.275000 0.150000 0
0.292857 0.150000 0
0.310714 0.150000 0
0.328571 0.150000 0
0.346429 0.150000 0
0.364286 0.150000 0
0.382143 0.150000 0
0.400000 0.150000 0
0.417857 0.150000 0
0.435714 0.150000 0
0.453571 0.150000 0
0.471429 0.150000 0
0.489286 0.150000 0
0.507143 0.150000 0
0.525000 0.150000 0
0.542857 0.150000 0
0.560714 0.150000 0
0.578571 0.150000 0
0.596429 0.150000 0
0.614286 0.150000 0
0.632143 0.150000 0
0.650000 0.150000 0
0.667857 0.150000 0
0.685714 0.150000 0
0.703571 0.150000 0
0.721429 0.150000 0
0.739286 0.150000 0
0.757143 0.150000 0
0.775000 0.150000 0
0.792857 0.150000 0
0.810714 0.150000 0
0.828571 0.150000 0
0.846429 0.150000 0
0.864286 0.150000 0
0.150000 0.167857 0
0.167857 0.167857 0
0.185714 0.167857 0
0.203571 0.167857 0
0.221429 0.167857 0
0.239286 0.167857 0
0.257143 0.167857 0
0.275000 0.167857 0
0.292857 0.167857 0
0.310714 0.167857 0
0.328571 0.167857 0
0.346429 0.167857 0
0.364286 0.167857 0
0.382143 0.167857 0
0.400000 0.167857 0
0.417857 0.167857 0
0.435714 0.167857 0
0.453571 0.167857 0
0.471429 0.167857 0
0.489286 0.167857 0
0.507143 0.167857 0
0.525000 0.167857 0
0.542857 0.167857 0
0.560714 0.167857 0
0.578571 0.167857 0
0.596429 0.167857 0
0.614286 0.167857 0
0.632143 0.167857 0
0.650000 0.167857 0
0.667857 0.167857 0
0.685714 0.167857 0
0.703571 0.167857 0
0.721429 0.167857 0
0.739286 0.167857 0
0.757143 0.167857 0
0.775000 0.167857 0
0.792857 0.167857 0
0.810714 0.167857 0
0.828571 0.167857 0
0.846429 0.167857 0
0.864286 0.167857 0
0.150000 0.185714 0
0.167857 0.185714 0
0.185714 0.185714 0
0.203571 0.185714 0
0.221429 0.185714 0
0.239286 0.185714 0
0.257143 0.185714 0
0.275000 0.185714 0
0.292857 0.185714 0
0.310714 0.185714 0
0.328571 0.185714 0
0.346429 0.185714 0
0.364286 0.185714 0
0.382143 0.185714 0
0.400000 0.185714 0
0.417857 0.185714 0
0.435714 0.185714 0
0.453571 0.185714 0
0.471429 0.185714 0
0.489286 0.185714 0
0.507143 0.185714 0
0.525000 0.185714 0
0.542857 0.185714 0
0.560714 0.185714 0
0.578571 0.185714 0
0.596429 0.185714 0
0.614286 0.185714 0
0.632143 0.185714 0
0.650000 0.185714 0
0.667857 0.185714 0
0.685714 0.185714 0
0.703571 0.185714 0
0.721429 0.185714 0
0.739286 0.185714 0
0.757143 0.185714 0
0.775000 0.185714 0
0.792857 0.185714 0
0.810714 0.185714 0
0.828571 0.185714 0
0.846429 0.185714 0
0.864286 0.185714 0
0.150000 0.203571 0
0.167857 0.203571 0
0.185714 0.203571 0
0.203571 0.203571 0
0.221429 0.203571 0
0.239286 0.203571 0
0.257143 0.203571 0
0.275000 0.203571 0
0.292857 0.203571 0
0.310714 0.203571 0
0.328571 0.203571 0
0.346429 0.203571 0
0.364286 0.203571 0
0.382143 0.203571 0
0.400000 0.203571 0
0.417857 0.203571 0
0.435714 0.203571 0
0.453571 0.203571 0
0.471429 0.203571 0
0.489286 0.203571 0
0.507143 0.203571 0
0.525000 0.203571 0
0.542857 0.203571 0
0.560714 0.203571 0
0.578571 0.203571 0
0.596429 0.203571 0
0.614286 0.203571 0
0.632143 0.203571 0
0.650000 0.203571 0
0.667857 0.203571 0
0.685714 0.203571 0
0.703571 0.203571 0
0.721429 0.203571 0
0.739286 0.203571 0
0.757143 0.203571 0
0.775000 0.203571 0
0.792857 0.203571 0
0.810714 0.203571 0
0.828571 0.203571 0
0.846429 0.203571 0
0.864286 0.203571 0
0.150000 0.221429 0
0.167857 0.221429 0
0.185714 0.221429 0
0.203571 0.221429 0
0.221429 0.221429 0
0.239286 0.221429 0
0.257143 0.221429 0
0.275000 0.221429 0
0.292857 0.221429 0
0.310714 0.221429 0
0.328571 0.221429 0
0.346429 0.221429 0
0.364286 0.221429 0
0.382143 0.221429 0
0.400000 0.221429 0
0.417857 0.221429 0
0.435714 0.221429 0
0.453571 0.221429 0
0.471429 0.221429 0
0.489286 0.221429 0
0.507143 0.221429 0
0.525000 0.221429 0
0.542857 0.221429 0
0.560714 0.221429 0
0.578571 0.221429 0
0.596429 0.221429 0
0.614286 0.221429 0
0.632143 0.221429 0
0.650000 0.221429 0
0.667857 0.221429 0
0.685714 0.221429 0
0.703571 0.221429 0
0.721429 0.221429 0
0.739286 0.221429 0
0.757143 0.221429 0
0.775000 0.221429 0
0.792857 0.221429 0
0.810714 0.221429 0
0.828571 0.221429 0
0.846429 0.221429 0
0.864286 0.221429 0
0.150000 0.239286 0
0.167857 0.239286 0
0.185714 0.239286 0
0.203571 0.239286 0
0.221429 0.239286 0
0.239286 0.239286 0
0.257143 0.239286 0
0.275000 0.239286 0
0.292857 0.239286 0
0.310714 0.239286 0
0.328571 0.239286 0
0.346429 0.239286 0
0.364286 0.239286 0
0.382143 0.239286 0
0.400000 0.239286 0
0.417857 0.239286 0
0.435714 0.239286 0
0.453571 0.239286 0
0.471429 0.239286 0
0.489286 0.239286 0
0.507143 0.239286 0
0.525000 0.239286 0
0.542857 0.239286 0
0.560714 0.239286 0
0.578571 0.239286 0
0.596429 0.239286 0
0.614286 0.239286 0
0.632143 0.239286 0
0.650000 0.239286 0
0.667857 0.239286 0
0.685714 0.239286 0
0.703571 0.239286 0
0.721429 0.239286 0
0.739286 0.239286 0
0.757143 0.239286 0
0.775000 0.239286 0
0.792857 0.239286 0
0.810714 0.239286 0
0.828571 0.239286 0
0.846429 0.239286 0
0.864286 0.239286 0
0.150000 0.257143 0
0.167857 0.257143 0
0.185714 0.257143 0
0.203571 0.257143 0
0.221429 0.257143 0
0.239286 0.257143 0
0.257143 0.257143 0
0.275000 0.257143 0
0.292857 0.257143 0
0.310714 0.257143 0
0.328571 0.257143 0
0.346429 0.257143 0
0.364286 0.257143 0
0.382143 0.257143 0
0.400000 0.257143 0
0.417857 0.257143 0
0.435714 0.257143 0
0.453571 0.257143 0
0.471429 0.257143 0
0.489286 0.257143 0
0.507143 0.257143 0
0.525000 0.257143 0
0.542857 0.257143 0
0.560714 0.257143 0
0.578571 0.257143 0
0.596429 0.257143 0
0.614286 0.257143 0
0.632143 0.257143 0
0.650000 0.257143 0
0.667857 0.257143 0
0.685714 0.257143 0
0.703571 0.257143 0
0.721429 0.257143 0
0.739286 0.257143 0
0.757143 0.257143 0
0.775000 0.257143 0
0.792857 0.257143 0
0.810714 0.257143 0
0.828571 0.257143 0
0.846429 0.257143 0
0.864286 0.257143 0
0.150000 0.275000 0
0.167857 0.275000 0
0.185714 0.275000 0
0.203571 0.275000 0
0.221429 0.275000 0
0.239286 0.275000 0
0.257143 0.275000 0
0.275000 0.275000 0
0.292857 0.275000 0
0.310714 0.275000 0
0.328571 0.275000 0
0.346429 0.275000 0
0.364286 0.275000 0
0.382143 0.275000 0
0.400000 0.275000 0
0.417857 0.275000 0
0.435714 0.275000 0
0.453571 0.275000 0
0.471429 0.275000 0
0.489286 0.275000 0
0.507143 0.275000 0
0.525000 0.275000 0
0.542857 0.275000 0
0.560714 0.275000 0
0.578571 0.275000 0
0.596429 0.275000 0
0.614286 0.275000 0
0.632143 0.275000 0
0.650000 0.275000 0
0.667857 0.275000 0
0.685714 0.275000 0
0.703571 0.275000 0
0.721429 0.275000 0
0.739286 0.275000 0
0.757143 0.275000 0
0.775000 0.275000 0
0.792857 0.275000 0
0.810714 0.275000 0
0.828571 0.275000 0
0.846429 0.275000 0
0.864286 0.275000 0
0.150000 0.292857 0
0.167857 0.292857 0
0.185714 0.292857 0
0.203571 0.292857 0
0.221429 0.292857 0
0.239286 0.292857 0
0.257143 0.292857 0
0.275000 0.292857 0
0.292857 0.292857 0
0.310714 0.292857 0
0.328571 0.292857 0
0.346429 0.292857 0
0.364286 0.292857 0
0.382143 0.292857 0
0.400000 0.292857 0
0.417857 0.292857 0
0.435714 0.292857 0
0.453571 0.292857 0
0.471429 0.292857 0
0.489286 0.292857 0
0.507143 0.292857 0
0.525000 0.292857 0
0.542857 0.292857 0
0.560714 0.292857 0
0.578571 0.292857 0
0.596429 0.292857 0
0.614286 0.292857 0
0.632143 0.292857 0
0.650000 0.292857 0
0.667857 0.292857 0
0.685714 0.292857 0
0.703571 0.292857 0
0.721429 0.292857 0
0.739286 0.292857 0
0.757143 0.292857 0
0.775000 0.292857 0
0.792857 0.292857 0
0.810714 0.292857 0
0.828571 0.292857 0
0.846429 0.292857 0
0.864286 0.292857 0
0.150000 0.310714 0
0.167857 0.310714 0
0.185714 0.310714 0
0.203571 0.310714 0
0.221429 0.310714 0
0.239286 0.310714 0
0.257143 0.310714 0
0.275000 0.310714 0
0.292857 0.310714 0
0.310714 0.310714 0
0.328571 0.310714 0
0.346429 0.310714 0
0.364286 0.310714 0
0.382143 0.310714 0
0.400000 0.310714 0
0.417857 0.310714 0
0.435714 0.310714 0
0.453571 0.310714 0
0.471429 0.310714 0
0.489286 0.310714 0
0.507143 0.310714 0
0.525000 0.310714 0
0.542857 0.310714 0
0.560714 0.310714 0
0.578571 0.310714 0
0.596429 0.310714 0
0.614286 0.310714 0
0.632143 0.310714 0
0.650000 0.310714 0
0.667857 0.310714 0
0.685714 0.310714 0
0.703571 0.310714 0
0.721429 0.310714 0
0.739286 0.310714 0
0.757143 0.310714 0
0.775000 0.310714 0
0.792857 0.310714 0
0.810714 0.310714 0
0.828571 0.310714 0
0.846429 0.310714 0
0.864286 0.310714 0
0.150000 0.328571 0
0.167857 0.328571 0
0.185714 0.328571 0
0.203571 0.328571 0
0.221429 0.328571 0
0.239286 0.328571 0
0.257143 0.328571 0
0.275000 0.328571 0
0.292857 0.328571 0
0.310714 0.328571 0
0.328571 0.328571 0
0.346429 0.328571 0
0.364286 0.328571 0
0.382143 0.328571 0
0.400000 0.328571 0
0.417857 0.328571 0
0.435714 0.328571 0
0.453571 0.328571 0
0.471429 0.328571 0
0.489286 0.328571 0
0.507143 0.328571 0
0.525000 0.328571 0
0.542857 0.328571 0
0.560714 0.328571 0
0.578571 0.328571 0
0.596429 0.328571 0
0.614286 0.328571 0
0.632143 0.328571 0
0.650000 0.328571 0
0.667857 0.328571 0
0.685714 0.328571 0
0.703571 0.328571 0
0.721429 0.328571 0
0.739286 0.328571 0
0.757143 0.328571 0
0.775000 0.328571 0
0.792857 0.328571 0
0.810714 0.328571 0
0.828571 0.328571 0
0.846429 0.328571 0
0.864286 0.328571 0
0.150000 0.346429 0
0.167857 0.346429 0
0.185714 0.346429 0
0.203571 0.346429 0
0.221429 0.346429 0
0.239286 0.346429 0
0.257143 0.346429 0
0.275000 0.346429 0
0.292857 0.346429 0
0.310714 0.346429 0
0.328571 0.346429 0
0.346429 0.346429 0
0.364286 0.346429 0
0.382143 0.346429 0
0.400000 0.346429 0
0.417857 0.346429 0
0.435714 0.346429 0
0.453571 0.346429 0
0.471429 0.346429 0
0.489286 0.346429 0
0.507143 0.346429 0
0.525000 0.346429 0
0.542857 0.346429 0
0.560714 0.346429 0
0.578571 0.346429 0
0.596429 0.346429 0
0.614286 0.346429 0
0.632143 0.346429 0
0.650000 0.346429 0
0.667857 0.346429 0
0.685714 0.346429 0
0.703571 0.346429 0
0.721429 0.346429 0
0.739286 0.346429 0
0.757143 0.346429 0
0.775000 0.346429 0
0.792857 0.346429 0
0.810714 0.346429 0
0.828571 0.346429 0
0.846429 0.346429 0
[...]
POINT_DATA 1681 

VECTORS velocity float
0.000000 0.000000 0
-0.004952 0.000000 0
-0.008488 0.000000 0
-0.010827 0.000000 0
-0.012518 0.000000 0
-0.013779 0.000000 0
-0.014649 0.000000 0
-0.015062 0.000000 0
-0.014857 0.000000 0
-0.014571 0.000000 0
-0.014316 0.000000 0
-0.014173 0.000000 0
-0.014145 0.000000 0
-0.014153 0.000000 0
-0.014048 0.000000 0
-0.013572 0.000000 0
-0.013183 0.000000 0
-0.012949 0.000000 0
-0.012922 0.000000 0
-0.013079 0.000000 0
-0.013326 0.000000 0
-0.013502 0.000000 0
-0.013332 0.000000 0
-0.013263 0.000000 0
-0.013360 0.000000 0
-0.013665 0.000000 0
-0.014146 0.000000 0
-0.014694 0.000000 0
-0.015133 0.000000 0
-0.015197 0.000000 0
-0.015316 0.000000 0
-0.015527 0.000000 0
-0.015833 0.000000 0
-0.016151 0.000000 0
-0.016305 0.000000 0
-0.016022 0.000000 0
-0.014895 0.000000 0
-0.013085 0.000000 0
-0.010185 0.000000 0
-0.005675 0.000000 0
0.000000 0.000000 0
0.000000 0.004952 0
-0.010045 0.008488 0
-0.018086 0.005875 0
-0.023422 0.004030 0
-0.027042 0.002952 0
-0.029495 0.002131 0
-0.031016 0.001282 0
-0.031679 0.000208 0
-0.031557 -0.000491 0
-0.031123 -0.000541 0
-0.030626 -0.000397 0
-0.030207 -0.000171 0
-0.029888 -0.000021 0
-0.029591 -0.000097 0
-0.029166 -0.000581 0
-0.028494 -0.000865 0
-0.027888 -0.000622 0
-0.027492 -0.000261 0
-0.027372 0.000129 0
-0.027499 0.000404 0
-0.027757 0.000423 0
-0.027967 0.000006 0
-0.027979 -0.000239 0
-0.028084 0.000028 0
-0.028418 0.000402 0
-0.029032 0.000786 0
-0.029881 0.001029 0
-0.030823 0.000987 0
-0.031653 0.000503 0
-0.032206 0.000184 0
-0.032738 0.000329 0
-0.033322 0.000516 0
-0.033925 0.000624 0
-0.034381 0.000472 0
-0.034383 -0.000129 0
-0.033493 -0.001409 0
-0.031210 -0.002937 0
-0.027238 -0.004711 0
-0.020841 -0.007410 0
-0.011217 -0.010185 0
0.000000 -0.005675 0
0.000000 0.010045 0
-0.009279 0.018086 0
-0.017945 0.013377 0
-0.023887 0.008957 0
-0.027707 0.006073 0
-0.030014 0.003974 0
-0.031247 0.002184 0
-0.031765 0.000541 0
-0.031997 -0.000556 0
-0.031807 -0.000931 0
-0.031380 -0.000916 0
-0.030813 -0.000738 0
-0.030169 -0.000616 0
-0.029497 -0.000722 0
-0.028873 -0.001097 0
-0.028532 -0.001278 0
-0.028191 -0.001003 0
-0.027911 -0.000516 0
-0.027706 0.000007 0
-0.027577 0.000386 0
-0.027526 0.000468 0
-0.027593 0.000221 0
-0.027992 0.000117 0
-0.028423 0.000439 0
-0.028931 0.000948 0
-0.029517 0.001463 0
-0.030167 0.001791 0
-0.030865 0.001772 0
-0.031628 0.001383 0
-0.032618 0.001085 0
-0.033491 0.001117 0
-0.034224 0.001187 0
-0.034716 0.001058 0
-0.034817 0.000457 0
-0.034315 -0.000888 0
-0.032959 -0.003173 0
-0.030531 -0.006255 0
-0.026187 -0.010369 0
-0.019342 -0.016021 0
-0.009709 -0.020841 0
0.000000 -0.011217 0
0.000000 0.014231 0
-0.007602 0.026433 0
-0.015387 0.020483 0
-0.021047 0.013792 0
-0.024756 0.009079 0
-0.026983 0.005671 0
-0.028185 0.003033 0
-0.028774 0.000957 0
-0.029085 -0.000448 0
-0.029042 -0.001157 0
-0.028711 -0.001392 0
-0.028162 -0.001382 0
-0.027483 -0.001336 0
-0.026785 -0.001394 0
-0.026213 -0.001546 0
-0.025912 -0.001547 0
-0.025674 -0.001243 0
-0.025451 -0.000745 0
-0.025230 -0.000205 0
-0.025031 0.000224 0
-0.024915 0.000439 0
-0.024993 0.000472 0
-0.025391 0.000591 0
-0.025887 0.000967 0
-0.026412 0.001496 0
-0.026938 0.002021 0
-0.027468 0.002377 0
-0.028048 0.002448 0
-0.028761 0.002257 0
-0.029683 0.002047 0
-0.030533 0.001935 0
-0.031171 0.001742 0
-0.031467 0.001217 0
-0.031287 0.000071 0
-0.030488 -0.001987 0
-0.028910 -0.005194 0
-0.026306 -0.009709 0
-0.022049 -0.015900 0
-0.015739 -0.023888 0
-0.007468 -0.029527 0
0.000000 -0.015384 0
0.000000 0.017648 0
-0.006265 0.033472 0
-0.013003 0.026821 0
-0.018154 0.018326 0
-0.021678 0.012010 0
-0.023892 0.007403 0
-0.025170 0.003975 0
-0.025858 0.001441 0
-0.026197 -0.000288 0
-0.026216 -0.001305 0
-0.025960 -0.001796 0
-0.025490 -0.001965 0
-0.024894 -0.001993 0
-0.024285 -0.001993 0
-0.023783 -0.001970 0
-0.023462 -0.001817 0
-0.023226 -0.001463 0
-0.023015 -0.000960 0
-0.022808 -0.000413 0
-0.022628 0.000071 0
-0.022539 0.000430 0
-0.022630 0.000698 0
-0.022952 0.001011 0
-0.023388 0.001460 0
-0.023860 0.001998 0
-0.024332 0.002519 0
-0.024809 0.002901 0
-0.025336 0.003065 0
-0.025972 0.003018 0
-0.026720 0.002857 0
-0.027403 0.002605 0
-0.027870 0.002121 0
-0.027986 0.001174 0
-0.027630 -0.000521 0
-0.026683 -0.003264 0
-0.025004 -0.007356 0
-0.022371 -0.013116 0
-0.018419 -0.020936 0
-0.012920 -0.030602 0
-0.006063 -0.036579 0
0.000000 -0.018685 0
0.000000 0.020496 0
-0.005270 0.039436 0
-0.011066 0.032371 0
-0.015652 0.022466 0
-0.018924 0.014818 0
-0.021088 0.009164 0
-0.022420 0.005000 0
-0.023180 0.001984 0
-0.023555 -0.000090 0
-0.023622 -0.001395 0
-0.023437 -0.002118 0
-0.023062 -0.002448 0
-0.022575 -0.002542 0
-0.022069 -0.002505 0
-0.021632 -0.002368 0
-0.021308 -0.002103 0
-0.021061 -0.001690 0
-0.020852 -0.001164 0
-0.020666 -0.000592 0
-0.020522 -0.000044 0
-0.020466 0.000442 0
-0.020553 0.000885 0
-0.020802 0.001349 0
-0.021156 0.001876 0
-0.021556 0.002440 0
-0.021972 0.002970 0
-0.022402 0.003381 0
-0.022873 0.003611 0
-0.023406 0.003640 0
-0.023978 0.003478 0
-0.024472 0.003085 0
-0.024760 0.002324 0
-0.024722 0.000977 0
-0.024249 -0.001232 0
-0.023235 -0.004613 0
-0.021556 -0.009505 0
-0.019053 -0.016294 0
-0.015521 -0.025351 0
-0.010841 -0.036243 0
-0.005142 -0.042447 0
0.000000 -0.021447 0
0.000000 0.022917 0
-0.004515 0.044539 0
-0.009502 0.037203 0
-0.013535 0.026183 0
-0.016514 0.017445 0
-0.018575 0.010899 0
-0.019913 0.006067 0
-0.020717 0.002577 0
-0.021133 0.000154 0
-0.021253 -0.001423 0
-0.021140 -0.002356 0
-0.020859 -0.002827 0
-0.020476 -0.002985 0
-0.020066 -0.002935 0
-0.019691 -0.002731 0
-0.019384 -0.002389 0
-0.019138 -0.001920 0
-0.018935 -0.001355 0
-0.018769 -0.000743 0
-0.018653 -0.000129 0
-0.018618 0.000462 0
-0.018691 0.001034 0
-0.018882 0.001613 0
-0.019159 0.002214 0
-0.019487 0.002815 0
-0.019841 0.003365 0
-0.020214 0.003802 0
-0.020613 0.004069 0
-0.021036 0.004123 0
-0.021450 0.003922 0
-0.021772 0.003387 0
-0.021902 0.002372 0
-0.021739 0.000663 0
-0.021187 -0.002009 0
-0.020156 -0.005957 0
-0.018548 -0.011537 0
-0.016253 -0.019151 0
-0.013163 -0.029148 0
-0.009204 -0.040981 0
-0.004432 -0.047420 0
0.000000 -0.023827 0
0.000000 0.025011 0
-0.003897 0.048938 0
-0.008190 0.041392 0
-0.011717 0.029478 0
-0.014397 0.019858 0
-0.016323 0.012563 0
-0.017628 0.007141 0
-0.018451 0.003205 0
-0.018906 0.000446 0
-0.019080 -0.001388 0
-0.019038 -0.002512 0
-0.018843 -0.003112 0
-0.018553 -0.003334 0
-0.018226 -0.003290 0
-0.017911 -0.003050 0
-0.017634 -0.002656 0
-0.017402 -0.002139 0
-0.017212 -0.001533 0
-0.017063 -0.000874 0
-0.016966 -0.000196 0
-0.016937 0.000480 0
-0.016993 0.001149 0
-0.017136 0.001817 0
-0.017350 0.002481 0
-0.017610 0.003122 0
-0.017899 0.003697 0
-0.018206 0.004153 0
-0.018524 0.004433 0
-0.018840 0.004477 0
-0.019119 0.004214 0
-0.019297 0.003538 0
-0.019297 0.002291 0
-0.019037 0.000262 0
-0.018436 -0.002815 0
-0.017420 -0.007253 0
-0.015913 -0.013408 0
-0.013844 -0.021679 0
-0.011147 -0.032400 0
-0.007780 -0.044974 0
-0.003760 -0.051651 0
0.000000 -0.025880 0
0.000000 0.026815 0
-0.003327 0.052729 0
-0.007028 0.045023 0
-0.010117 0.032390 0
-0.012519 0.022051 0
-0.014298 0.014131 0
-0.015548 0.008196 0
-0.016371 0.003855 0
-0.016855 0.000782 0
-0.017078 -0.001291 0
-0.017101 -0.002593 0
-0.016982 -0.003312 0
-0.016771 -0.003602 0
-0.016517 -0.003578 0
-0.016257 -0.003323 0
-0.016017 -0.002897 0
-0.015808 -0.002342 0
-0.015634 -0.001694 0
-0.015501 -0.000989 0
-0.015414 -0.000255 0
-0.015385 0.000490 0
-0.015422 0.001233 0
-0.015526 0.001969 0
-0.015685 0.002688 0
-0.015884 0.003364 0
-0.016109 0.003961 0
-0.016346 0.004427 0
-0.016583 0.004703 0
-0.016802 0.004718 0
-0.016967 0.004379 0
-0.017031 0.003566 0
-0.016930 0.002112 0
-0.016600 -0.000198 0
-0.015975 -0.003626 0
-0.014995 -0.008480 0
-0.013601 -0.015114 0
-0.011743 -0.023917 0
-0.009383 -0.035211 0
-0.006494 -0.048369 0
-0.003097 -0.055201 0
0.000000 -0.027587 0
0.000000 0.028337 0
-0.002795 0.055966 0
-0.005984 0.048182 0
-0.008693 0.034969 0
-0.010843 0.024039 0
-0.012475 0.015593 0
-0.013657 0.009214 0
-0.014462 0.004512 0
-0.014964 0.001153 0
-0.015226 -0.001142 0
-0.015305 -0.002608 0
-0.015250 -0.003441 0
-0.015106 -0.003799 0
-0.014914 -0.003805 0
-0.014705 -0.003551 0
-0.014502 -0.003106 0
-0.014319 -0.002522 0
-0.014164 -0.001840 0
-0.014043 -0.001094 0
-0.013963 -0.000311 0
-0.013930 0.000488 0
-0.013949 0.001289 0
-0.014018 0.002079 0
-0.014131 0.002840 0
-0.014275 0.003546 0
-0.014440 0.004158 0
-0.014611 0.004627 0
-0.014773 0.004889 0
-0.014907 0.004861 0
-0.014981 0.004443 0
-0.014955 0.003500 0
-0.014781 0.001861 0
-0.014406 -0.000693 0
-0.013779 -0.004421 0
-0.012850 -0.009627 0
-0.011577 -0.016659 0
-0.009924 -0.025897 0
-0.007866 -0.037650 0
-0.005393 -0.051260 0
-0.002538 -0.058145 0
0.000000 -0.028976 0
0.000000 0.029610 0
-0.002333 0.058713 0
-0.005067 0.050921 0
-0.007437 0.037249 0
-0.009353 0.025833 0
-0.010837 0.016944 0
-0.011939 0.010183 0
-0.012715 0.005162 0
-0.013220 0.001546 0
-0.013509 -0.000951 0
-0.013630 -0.002570 0
-0.013627 -0.003511 0
-0.013538 -0.003938 0
-0.013397 -0.003979 0
-0.013233 -0.003735 0
-0.013065 -0.003283 0
-0.012908 -0.002679 0
-0.012771 -0.001970 0
-0.012662 -0.001190 0
-0.012586 -0.000368 0
-0.012548 0.000475 0
-0.012549 0.001321 0
-0.012589 0.002151 0
-0.012662 0.002945 0
-0.012759 0.003673 0
-0.012870 0.004296 0
-0.012981 0.004761 0
-0.013078 0.004999 0
-0.013140 0.004925 0
-0.013142 0.004428 0
-0.013051 0.003366 0
-0.012827 0.001563 0
-0.012431 -0.001200 0
-0.011821 -0.005181 0
-0.010960 -0.010681 0
-0.009815 -0.018041 0
-0.008363 -0.027629 0
-0.006590 -0.039742 0
-0.004496 -0.053696 0
-0.002111 -0.060593 0
0.000000 -0.030125 0
0.000000 0.030670 0
-0.001947 0.061034 0
-0.004280 0.053286 0
-0.006340 0.039254 0
-0.008033 0.027439 0
-0.009369 0.018179 0
-0.010382 0.011091 0
-0.011114 0.005792 0
-0.011609 0.001947 0
-0.011912 -0.000732 0
-0.012062 -0.002491 0
-0.012098 -0.003534 0
-0.012052 -0.004028 0
-0.011954 -0.004110 0
-0.011827 -0.003883 0
-0.011690 -0.003431 0
-0.011556 -0.002815 0
-0.011437 -0.002086 0
-0.011337 -0.001279 0
-0.011264 -0.000426 0
-0.011219 0.000451 0
-0.011205 0.001331 0
-0.011220 0.002192 0
-0.011259 0.003010 0
-0.011315 0.003753 0
-0.011379 0.004380 0
-0.011440 0.004836 0
-0.011482 0.005048 0
-0.011488 0.004926 0
-0.011436 0.004354 0
-0.011299 0.003185 0
-0.011048 0.001240 0
-0.010649 -0.001700 0
-0.010073 -0.005892 0
-0.009291 -0.011632 0
-0.008280 -0.019256 0
-0.007025 -0.029122 0
-0.005521 -0.041517 0
-0.003766 -0.055739 0
-0.001778 -0.062640 0
0.000000 -0.031088 0
0.000000 0.031557 0
-0.001630 0.062993 0
-0.003612 0.055314 0
-0.005387 0.041002 0
-0.006867 0.028862 0
-0.008054 0.019293 0
-0.008970 0.011928 0
-0.009647 0.006389 0
-0.010119 0.002344 0
-0.010422 -0.000498 0
-0.010588 -0.002384 0
-0.010650 -0.003521 0
-0.010636 -0.004082 0
-0.010570 -0.004204 0
-0.010473 -0.003999 0
-0.010362 -0.003553 0
-0.010249 -0.002932 0
-0.010144 -0.002189 0
-0.010053 -0.001363 0
-0.009980 -0.000486 0
-0.009930 0.000417 0
-0.009903 0.001322 0
-0.009896 0.002205 0
-0.009907 0.003040 0
-0.009930 0.003793 0
-0.009955 0.004420 0
-0.009973 0.004863 0
-0.009972 0.005048 0
-0.009935 0.004880 0
-0.009846 0.004239 0
-0.009681 0.002978 0
-0.009419 0.000912 0
-0.009034 -0.002175 0
-0.008505 -0.006540 0
-0.007810 -0.012474 0
-0.006934 -0.020306 0
-0.005869 -0.030389 0
-0.004611 -0.043002 0
-0.003157 -0.057440 0
-0.001506 -0.064359 0
0.000000 -0.031903 0
0.000000 0.032301 0
-0.001370 0.064646 0
-0.003043 0.057042 0
-0.004556 0.042509 0
-0.005833 0.030107 0
-0.006871 0.020283 0
-0.007686 0.012684 0
-0.008298 0.006941 0
-0.008736 0.002722 0
-0.009026 -0.000263 0
-0.009197 -0.002262 0
-0.009273 -0.003486 0
-0.009280 -0.004109 0
-0.009237 -0.004272 0
-0.009163 -0.004091 0
-0.009072 -0.003655 0
-0.008975 -0.003034 0
-0.008881 -0.002282 0
-0.008797 -0.001442 0
-0.008726 -0.000548 0
-0.008671 0.000374 0
-0.008632 0.001297 0
-0.008608 0.002196 0
-0.008595 0.003043 0
-0.008590 0.003801 0
-0.008584 0.004424 0
-0.008569 0.004852 0
-0.008535 0.005010 0
-0.008469 0.004800 0
-0.008355 0.004100 0
-0.008178 0.002759 0
-0.007919 0.000593 0
-0.007561 -0.002614 0
-0.007087 -0.007116 0
-0.006483 -0.013203 0
-0.005740 -0.021197 0
-0.004850 -0.031446 0
-0.003814 -0.044229 0
-0.002625 -0.058844 0
-0.001266 -0.065798 0
0.000000 -0.032593 0
0.000000 0.032927 0
-0.001147 0.066036 0
-0.002546 0.058500 0
-0.003820 0.043792 0
-0.004907 0.031178 0
-0.005800 0.021146 0
-0.006509 0.013355 0
-0.007051 0.007440 0
-0.007445 0.003072 0
-0.007712 -0.000038 0
-0.007876 -0.002137 0
-0.007956 -0.003438 0
-0.007974 -0.004118 0
-0.007946 -0.004321 0
-0.007888 -0.004164 0
-0.007811 -0.003741 0
-0.007727 -0.003123 0
-0.007642 -0.002367 0
-0.007563 -0.001519 0
-0.007492 -0.000612 0
-0.007432 0.000323 0
-0.007383 0.001259 0
-0.007345 0.002169 0
-0.007315 0.003023 0
-0.007287 0.003782 0
-0.007258 0.004399 0
-0.007218 0.004814 0
-0.007161 0.004947 0
-0.007075 0.004700 0
-0.006950 0.003949 0
-0.006772 0.002542 0
-0.006528 0.000295 0
-0.006206 -0.003007 0
-0.005793 -0.007617 0
-0.005281 -0.013821 0
-0.004662 -0.021939 0
-0.003934 -0.032314 0
-0.003093 -0.045228 0
-0.002133 -0.059988 0
-0.001033 -0.066984 0
0.000000 -0.033168 0
0.000000 0.033448 0
-0.000940 0.067192 0
-0.002096 0.059715 0
-0.003155 0.044869 0
-0.004064 0.032086 0
-0.004819 0.021886 0
-0.005423 0.013936 0
-0.005889 0.007877 0
-0.006232 0.003383 0
-0.006468 0.000168 0
-0.006615 -0.002018 0
-0.006691 -0.003388 0
-0.006711 -0.004119 0
-0.006690 -0.004359 0
-0.006641 -0.004226 0
-0.006574 -0.003815 0
-0.006498 -0.003203 0
-0.006420 -0.002447 0
-0.006344 -0.001593 0
-0.006273 -0.000679 0
-0.006209 0.000265 0
-0.006153 0.001210 0
-0.006103 0.002127 0
-0.006058 0.002985 0
-0.006015 0.003744 0
-0.005967 0.004355 0
-0.005911 0.004756 0
-0.005839 0.004867 0
-0.005743 0.004589 0
-0.005616 0.003796 0
-0.005446 0.002337 0
-0.005226 0.000027 0
-0.004946 -0.003349 0
-0.004599 -0.008041 0
-0.004177 -0.014334 0
-0.003677 -0.022544 0
-0.003095 -0.033015 0
-0.002430 -0.046029 0
-0.001673 -0.060905 0
-0.000804 -0.067931 0
0.000000 -0.033626 0
0.000000 0.033866 0
-0.000741 0.068131 0
-0.001677 0.060715 0
-0.002541 0.045760 0
-0.003288 0.032842 0
-0.003910 0.022505 0
-0.004410 0.014426 0
-0.004798 0.008248 0
-0.005083 0.003650 0
-0.005281 0.000345 0
-0.005404 -0.001915 0
-0.005467 -0.003343 0
-0.005482 -0.004119 0
-0.005462 -0.004391 0
-0.005417 -0.004280 0
-0.005355 -0.003883 0
-0.005285 -0.003277 0
-0.005210 -0.002522 0
-0.005136 -0.001666 0
-0.005064 -0.000747 0
-0.004997 0.000203 0
-0.004935 0.001153 0
-0.004877 0.002075 0
-0.004822 0.002934 0
-0.004766 0.003691 0
-0.004706 0.004296 0
-0.004639 0.004686 0
-0.004560 0.004779 0
-0.004461 0.004476 0
-0.004339 0.003651 0
-0.004186 0.002152 0
-0.003996 -0.000205 0
-0.003764 -0.003635 0
-0.003483 -0.008386 0
-0.003152 -0.014743 0
-0.002765 -0.023021 0
-0.002322 -0.033561 0
-0.001821 -0.046650 0
-0.001253 -0.061614 0
-0.000601 -0.068657 0
0.000000 -0.033973 0
0.000000 0.034189 0
-0.000557 0.068869 0
-0.001288 0.061516 0
-0.001972 0.046480 0
-0.002565 0.033454 0
-0.003058 0.023008 0
-0.003455 0.014824 0
-0.003761 0.008550 0
-0.003986 0.003867 0
-0.004139 0.000488 0
-0.004232 -0.001833 0
-0.004276 -0.003310 0
-0.004280 -0.004124 0
-0.004256 -0.004424 0
-0.004210 -0.004332 0
-0.004150 -0.003948 0
-0.004082 -0.003348 0
-0.004009 -0.002595 0
-0.003936 -0.001738 0
-0.003864 -0.000817 0
-0.003794 0.000136 0
-0.003727 0.001090 0
-0.003663 0.002014 0
-0.003600 0.002874 0
-0.003536 0.003629 0
-0.003469 0.004228 0
-0.003396 0.004609 0
-0.003314 0.004689 0
-0.003219 0.004368 0
-0.003108 0.003521 0
-0.002977 0.001994 0
-0.002822 -0.000395 0
-0.002641 -0.003862 0
-0.002430 -0.008653 0
-0.002187 -0.015052 0
-0.001912 -0.023373 0
-0.001604 -0.033959 0
-0.001259 -0.047098 0
-0.000873 -0.062125 0
-0.000424 -0.069184 0
0.000000 -0.034226 0
0.000000 0.034423 0
-0.000388 0.069420 0
-0.000928 0.062130 0
-0.001439 0.047037 0
-0.001883 0.033928 0
-0.002251 0.023396 0
-0.002544 0.015129 0
-0.002767 0.008779 0
-0.002927 0.004028 0
-0.003031 0.000592 0
-0.003089 -0.001778 0
-0.003109 -0.003295 0
-0.003098 -0.004139 0
-0.003065 -0.004461 0
-0.003015 -0.004386 0
-0.002954 -0.004012 0
-0.002886 -0.003418 0
-0.002814 -0.002668 0
-0.002741 -0.001811 0
-0.002668 -0.000888 0
-0.002596 0.000066 0
-0.002526 0.001022 0
-0.002457 0.001947 0
-0.002389 0.002807 0
-0.002320 0.003560 0
-0.002249 0.004156 0
-0.002174 0.004531 0
-0.002094 0.004603 0
-0.002008 0.004271 0
-0.001912 0.003409 0
-0.001807 0.001866 0
-0.001690 -0.000541 0
-0.001562 -0.004027 0
-0.001421 -0.008840 0
-0.001268 -0.015260 0
-0.001103 -0.023605 0
-0.000925 -0.034214 0
-0.000733 -0.047380 0
-0.000522 -0.062449 0
-0.000265 -0.069530 0
0.000000 -0.034397 0
0.000000 0.034577 0
-0.000231 0.069797 0
-0.000588 0.062567 0
-0.000933 0.047435 0
-0.001230 0.034266 0
-0.001473 0.023669 0
-0.001662 0.015340 0
-0.001800 0.008933 0
-0.001892 0.004131 0
-0.001945 0.000651 0
-0.001965 -0.001755 0
-0.001957 -0.003301 0
-0.001928 -0.004168 0
-0.001883 -0.004507 0
-0.001827 -0.004443 0
-0.001763 -0.004077 0
-0.001693 -0.003488 0
-0.001621 -0.002740 0
-0.001548 -0.001884 0
-0.001475 -0.000961 0
-0.001402 -0.000006 0
-0.001330 0.000951 0
-0.001258 0.001876 0
-0.001186 0.002736 0
-0.001114 0.003489 0
-0.001042 0.004083 0
-0.000968 0.004455 0
-0.000893 0.004523 0
-0.000817 0.004186 0
-0.000740 0.003320 0
-0.000663 0.001772 0
-0.000587 -0.000640 0
-0.000513 -0.004131 0
-0.000443 -0.008947 0
-0.000378 -0.015370 0
-0.000321 -0.023717 0
-0.000271 -0.034329 0
-0.000228 -0.047501 0
-0.000186 -0.062593 0
-0.000115 -0.069706 0
0.000000 -0.034491 0
0.000000 0.034654 0
-0.000083 0.070008 0
-0.000261 0.062832 0
-0.000442 0.047679 0
-0.000594 0.034468 0
-0.000712 0.023827 0
-0.000795 0.015456 0
-0.000847 0.009010 0
-0.000870 0.004173 0
-0.000869 0.000664 0
-0.000848 -0.001766 0
-0.000811 -0.003331 0
-0.000762 -0.004213 0
-0.000704 -0.004563 0
-0.000640 -0.004507 0
-0.000572 -0.004145 0
-0.000501 -0.003559 0
-0.000429 -0.002813 0
-0.000356 -0.001958 0
-0.000283 -0.001035 0
-0.000209 -0.000079 0
-0.000136 0.000878 0
-0.000062 0.001803 0
0.000012 0.002663 0
0.000085 0.003416 0
0.000158 0.004010 0
0.000229 0.004382 0
0.000297 0.004452 0
0.000361 0.004118 0
0.000418 0.003255 0
0.000466 0.001713 0
0.000501 -0.000692 0
0.000520 -0.004171 0
0.000520 -0.008974 0
0.000497 -0.015382 0
0.000448 -0.023712 0
0.000371 -0.034306 0
0.000267 -0.047465 0
0.000144 -0.062562 0
0.000031 -0.069716 0
0.000000 -0.034512 0
0.000000 0.034660 0
0.000061 0.070058 0
0.000065 0.062926 0
0.000049 0.047768 0
0.000041 0.034536 0
0.000048 0.023870 0
0.000071 0.015475 0
0.000106 0.009008 0
0.000153 0.004153 0
0.000209 0.000629 0
0.000272 -0.001813 0
0.000338 -0.003387 0
0.000408 -0.004275 0
0.000479 -0.004629 0
0.000551 -0.004576 0
0.000622 -0.004216 0
0.000694 -0.003631 0
0.000766 -0.002886 0
0.000838 -0.002031 0
0.000911 -0.001108 0
0.000984 -0.000153 0
0.001058 0.000803 0
0.001133 0.001729 0
0.001208 0.002589 0
0.001282 0.003343 0
0.001354 0.003939 0
0.001422 0.004315 0
0.001483 0.004391 0
0.001535 0.004065 0
0.001572 0.003215 0
0.001591 0.001689 0
0.001586 -0.000695 0
0.001552 -0.004150 0
0.001482 -0.008923 0
0.001371 -0.015298 0
0.001216 -0.023591 0
0.001013 -0.034149 0
0.000763 -0.047274 0
0.000474 -0.062357 0
0.000179 -0.069562 0
0.000000 -0.034460 0
0.000000 0.034593 0
0.000211 0.069943 0
0.000399 0.062845 0
0.000549 0.047702 0
0.000688 0.034468 0
0.000822 0.023798 0
0.000951 0.015398 0
0.001075 0.008927 0
0.001192 0.004070 0
0.001303 0.000546 0
0.001406 -0.001895 0
0.001502 -0.003467 0
0.001591 -0.004353 0
0.001674 -0.004705 0
0.001752 -0.004650 0
0.001826 -0.004289 0
0.001897 -0.003703 0
0.001967 -0.002957 0
0.002037 -0.002102 0
0.002108 -0.001181 0
0.002180 -0.000226 0
0.002254 0.000729 0
0.002329 0.001654 0
0.002405 0.002514 0
0.002480 0.003270 0
0.002551 0.003870 0
0.002617 0.004253 0
0.002673 0.004339 0
0.002713 0.004029 0
0.002733 0.003199 0
0.002724 0.001699 0
0.002681 -0.000652 0
0.002594 -0.004067 0
0.002456 -0.008794 0