# vtk DataFile Version 2.0
generated by CFD-lab course output (written by Tobias Neckel) 
ASCII

DATASET STRUCTURED_GRID
DIMENSIONS  41 41 1 
POINTS 1681 float

0.150000 0.150000 0
0.167857 0.150000 0
0.185714 0.150000 0
0.203571 0.150000 0
0.221429 0.150000 0
0.239286 0.150000 0
0.257143 0.150000 0
0.275000 0.150000 0
0.292857 0.150000 0
0.310714 0.150000 0
0.328571 0.150000 0
0.346429 0.150000 0
0.364286 0.150000 0
0.382143 0.150000 0
0.400000 0.150000 0
0.417857 0.150000 0
0.435714 0.150000 0
0.453571 0.150000 0
0.471429 0.150000 0
0.489286 0.150000 0
0.507143 0.150000 0
0.525000 0.150000 0
0.542857 0.150000 0
0.560714 0.150000 0
0.578571 0.150000 0
0.596429 0.150000 0
0.614286 0.150000 0
0.632143 0.150000 0
0.650000 0.150000 0
0.667857 0.150000 0
0.685714 0.150000 0
0.703571 0.150000 0
0.721429 0.150000 0
0.739286 0.150000 0
0.757143 0.150000 0
0.775000 0.150000 0
0.792857 0.150000 0
0.810714 0.150000 0
0.828571 0.150000 0
0.846429 0.150000 0
0.864286 0.150000 0
0.150000 0.167857 0
0.167857 0.167857 0
0.185714 0.167857 0
0.203571 0.167857 0
0.221429 0.167857 0
0.239286 0.167857 0
0.257143 0.167857 0
0.275000 0.167857 0
0.292857 0.167857 0
0.310714 0.167857 0
0.328571 0.167857 0
0.346429 0.167857 0
0.364286 0.167857 0
0.382143 0.167857 0
0.400000 0.167857 0
0.417857 0.167857 0
0.435714 0.167857 0
0.453571 0.167857 0
0.471429 0.167857 0
0.489286 0.167857 0
0.507143 0.167857 0
0.525000 0.167857 0
0.542857 0.167857 0
0.560714 0.167857 0
0.578571 0.167857 0
0.596429 0.167857 0
0.614286 0.167857 0
0.632143 0.167857 0
0.650000 0.167857 0
0.667857 0.167857 0
0.685714 0.167857 0
0.703571 0.167857 0
0.721429 0.167857 0
0.739286 0.167857 0
0.757143 0.167857 0
0.775000 0.167857 0
0.792857 0.167857 0
0.810714 0.167857 0
0.828571 0.167857 0
0.846429 0.167857 0
0.864286 0.167857 0
0.150000 0.185714 0
0.167857 0.185714 0
0.185714 0.185714 0
0.203571 0.185714 0
0.221429 0.185714 0
0.239286 0.185714 0
0.257143 0.185714 0
0.275000 0.185714 0
0.292857 0.185714 0
0.310714 0.185714 0
0.328571 0.185714 0
0.346429 0.185714 0
0.364286 0.185714 0
0.382143 0.185714 0
0.400000 0.185714 0
0.417857 0.185714 0
0.435714 0.185714 0
0.453571 0.185714 0
0.471429 0.185714 0
0.489286 0.185714 0
0.507143 0.185714 0
0.525000 0.185714 0
0.542857 0.185714 0
0.560714 0.185714 0
0.578571 0.185714 0
0.596429 0.185714 0
0.614286 0.185714 0
0.632143 0.185714 0
0.650000 0.185714 0
0.667857 0.185714 0
0.685714 0.185714 0
0.703571 0.185714 0
0.721429 0.185714 0
0.739286 0.185714 0
0.757143 0.185714 0
0.775000 0.185714 0
0.792857 0.185714 0
0.810714 0.185714 0
0.828571 0.185714 0
0.846429 0.185714 0
0.864286 0.185714 0
0.150000 0.203571 0
0.167857 0.203571 0
0.185714 0.203571 0
0.203571 0.203571 0
0.221429 0.203571 0
0.239286 0.203571 0
0.257143 0.203571 0
0.275000 0.203571 0
0.292857 0.203571 0
0.310714 0.203571 0
0.328571 0.203571 0
0.346429 0.203571 0
0.364286 0.203571 0
0.382143 0.203571 0
0.400000 0.203571 0
0.417857 0.203571 0
0.435714 0.203571 0
0.453571 0.203571 0
0.471429 0.203571 0
0.489286 0.203571 0
0.507143 0.203571 0
0.525000 0.203571 0
0.542857 0.203571 0
0.560714 0.203571 0
0.578571 0.203571 0
0.596429 0.203571 0
0.614286 0.203571 0
0.632143 0.203571 0
0.650000 0.203571 0
0.667857 0.203571 0
0.685714 0.203571 0
0.703571 0.203571 0
0.721429 0.203571 0
0.739286 0.203571 0
0.757143 0.203571 0
0.775000 0.203571 0
0.792857 0.203571 0
0.810714 0.203571 0
0.828571 0.203571 0
0.846429 0.203571 0
0.864286 0.203571 0
0.150000 0.221429 0
0.167857 0.221429 0
0.185714 0.221429 0
0.203571 0.221429 0
0.221429 0.221429 0
0.239286 0.221429 0
0.257143 0.221429 0
0.275000 0.221429 0
0.292857 0.221429 0
0.310714 0.221429 0
0.328571 0.221429 0
0.346429 0.221429 0
0.364286 0.221429 0
0.382143 0.221429 0
0.400000 0.221429 0
0.417857 0.221429 0
0.435714 0.221429 0
0.453571 0.221429 0
0.471429 0.221429 0
0.489286 0.221429 0
0.507143 0.221429 0
0.525000 0.221429 0
0.542857 0.221429 0
0.560714 0.221429 0
0.578571 0.221429 0
0.596429 0.221429 0
0.614286 0.221429 0
0.632143 0.221429 0
0.650000 0.221429 0
0.667857 0.221429 0
0.685714 0.221429 0
0.703571 0.221429 0
0.721429 0.221429 0
0.739286 0.221429 0
0.757143 0.221429 0
0.775000 0.221429 0
0.792857 0.221429 0
0.810714 0.221429 0
0.828571 0.221429 0
0.846429 0.221429 0
0.864286 0.221429 0
0.150000 0.239286 0
0.167857 0.239286 0
0.185714 0.239286 0
0.203571 0.239286 0
0.221429 0.239286 0
0.239286 0.239286 0
0.257143 0.239286 0
0.275000 0.239286 0
0.292857 0.239286 0
0.310714 0.239286 0
0.328571 0.239286 0
0.346429 0.239286 0
0.364286 0.239286 0
0.382143 0.239286 0
0.400000 0.239286 0
0.417857 0.239286 0
0.435714 0.239286 0
0.453571 0.239286 0
0.471429 0.239286 0
0.489286 0.239286 0
0.507143 0.239286 0
0.525000 0.239286 0
0.542857 0.239286 0
0.560714 0.239286 0
0.578571 0.239286 0
0.596429 0.239286 0
0.614286 0.239286 0
0.632143 0.239286 0
0.650000 0.239286 0
0.667857 0.239286 0
0.685714 0.239286 0
0.703571 0.239286 0
0.721429 0.239286 0
0.739286 0.239286 0
0.757143 0.239286 0
0.775000 0.239286 0
0.792857 0.239286 0
0.810714 0.239286 0
0.828571 0.239286 0
0.846429 0.239286 0
0.864286 0.239286 0
0.150000 0.257143 0
0.167857 0.257143 0
0.185714 0.257143 0
0.203571 0.257143 0
0.221429 0.257143 0
0.239286 0.257143 0
0.257143 0.257143 0
0.275000 0.257143 0
0.292857 0.257143 0
0.310714 0.257143 0
0.328571 0.257143 0
0.346429 0.257143 0
0.364286 0.257143 0
0.382143 0.257143 0
0.400000 0.257143 0
0.417857 0.257143 0
0.435714 0.257143 0
0.453571 0.257143 0
0.471429 0.257143 0
0.489286 0.257143 0
0.507143 0.257143 0
0.525000 0.257143 0
0.542857 0.257143 0
0.560714 0.257143 0
0.578571 0.257143 0
0.596429 0.257143 0
0.614286 0.257143 0
0.632143 0.257143 0
0.650000 0.257143 0
0.667857 0.257143 0
0.685714 0.257143 0
0.703571 0.257143 0
0.721429 0.257143 0
0.739286 0.257143 0
0.757143 0.257143 0
0.775000 0.257143 0
0.792857 0.257143 0
0.810714 0.257143 0
0.828571 0.257143 0
0.846429 0.257143 0
0.864286 0.257143 0
0.150000 0.275000 0
0.167857 0.275000 0
0.185714 0.275000 0
0.203571 0.275000 0
0.221429 0.275000 0
0.239286 0.275000 0
0.257143 0.275000 0
0.275000 0.275000 0
0.292857 0.275000 0
0.310714 0.275000 0
0.328571 0.275000 0
0.346429 0.275000 0
0.364286 0.275000 0
0.382143 0.275000 0
0.400000 0.275000 0
0.417857 0.275000 0
0.435714 0.275000 0
0.453571 0.275000 0
0.471429 0.275000 0
0.489286 0.275000 0
0.507143 0.275000 0
0.525000 0.275000 0
0.542857 0.275000 0
0.560714 0.275000 0
0.578571 0.275000 0
0.596429 0.275000 0
0.614286 0.275000 0
0.632143 0.275000 0
0.650000 0.275000 0
0.667857 0.275000 0
0.685714 0.275000 0
0.703571 0.275000 0
0.721429 0.275000 0
0.739286 0.275000 0
0.757143 0.275000 0
0.775000 0.275000 0
0.792857 0.275000 0
0.810714 0.275000 0
0.828571 0.275000 0
0.846429 0.275000 0
0.864286 0.275000 0
0.150000 0.292857 0
0.167857 0.292857 0
0.185714 0.292857 0
0.203571 0.292857 0
0.221429 0.292857 0
0.239286 0.292857 0
0.257143 0.292857 0
0.275000 0.292857 0
0.292857 0.292857 0
0.310714 0.292857 0
0.328571 0.292857 0
0.346429 0.292857 0
0.364286 0.292857 0
0.382143 0.292857 0
0.400000 0.292857 0
0.417857 0.292857 0
0.435714 0.292857 0
0.453571 0.292857 0
0.471429 0.292857 0
0.489286 0.292857 0
0.507143 0.292857 0
0.525000 0.292857 0
0.542857 0.292857 0
0.560714 0.292857 0
0.578571 0.292857 0
0.596429 0.292857 0
0.614286 0.292857 0
0.632143 0.292857 0
0.650000 0.292857 0
0.667857 0.292857 0
0.685714 0.292857 0
0.703571 0.292857 0
0.721429 0.292857 0
0.739286 0.292857 0
0.757143 0.292857 0
0.775000 0.292857 0
0.792857 0.292857 0
0.810714 0.292857 0
0.828571 0.292857 0
0.846429 0.292857 0
0.864286 0.292857 0
0.150000 0.310714 0
0.167857 0.310714 0
0.185714 0.310714 0
0.203571 0.310714 0
0.221429 0.310714 0
0.239286 0.310714 0
0.257143 0.310714 0
0.275000 0.310714 0
0.292857 0.310714 0
0.310714 0.310714 0
0.328571 0.310714 0
0.346429 0.310714 0
0.364286 0.310714 0
0.382143 0.310714 0
0.400000 0.310714 0
0.417857 0.310714 0
0.435714 0.310714 0
0.453571 0.310714 0
0.471429 0.310714 0
0.489286 0.310714 0
0.507143 0.310714 0
0.525000 0.310714 0
0.542857 0.310714 0
0.560714 0.310714 0
0.578571 0.310714 0
0.596429 0.310714 0
0.614286 0.310714 0
0.632143 0.310714 0
0.650000 0.310714 0
0.667857 0.310714 0
0.685714 0.310714 0
0.703571 0.310714 0
0.721429 0.310714 0
0.739286 0.310714 0
0.757143 0.310714 0
0.775000 0.310714 0
0.792857 0.310714 0
0.810714 0.310714 0
0.828571 0.310714 0
0.846429 0.310714 0
0.864286 0.310714 0
0.150000 0.328571 0
0.167857 0.328571 0
0.185714 0.328571 0
0.203571 0.328571 0
0.221429 0.328571 0
0.239286 0.328571 0
0.257143 0.328571 0
0.275000 0.328571 0
0.292857 0.328571 0
0.310714 0.328571 0
0.328571 0.328571 0
0.346429 0.328571 0
0.364286 0.328571 0
0.382143 0.328571 0
0.400000 0.328571 0
0.417857 0.328571 0
0.435714 0.328571 0
0.453571 0.328571 0
0.471429 0.328571 0
0.489286 0.328571 0
0.507143 0.328571 0
0.525000 0.328571 0
0.542857 0.328571 0
0.560714 0.328571 0
0.578571 0.328571 0
0.596429 0.328571 0
0.614286 0.328571 0
0.632143 0.328571 0
0.650000 0.328571 0
0.667857 0.328571 0
0.685714 0.328571 0
0.703571 0.328571 0
0.721429 0.328571 0
0.739286 0.328571 0
0.757143 0.328571 0
0.775000 0.328571 0
0.792857 0.328571 0
0.810714 0.328571 0
0.828571 0.328571 0
0.846429 0.328571 0
0.864286 0.328571 0
0.150000 0.346429 0
0.167857 0.346429 0
0.185714 0.346429 0
0.203571 0.346429 0
0.221429 0.346429 0
0.239286 0.346429 0
0.257143 0.346429 0
0.275000 0.346429 0
0.292857 0.346429 0
0.310714 0.346429 0
0.328571 0.346429 0
0.346429 0.346429 0
0.364286 0.346429 0
0.382143 0.346429 0
0.400000 0.346429 0
0.417857 0.346429 0
0.435714 0.346429 0
0.453571 0.346429 0
0.471429 0.346429 0
0.489286 0.346429 0
0.507143 0.346429 0
0.525000 0.346429 0
0.542857 0.346429 0
0.560714 0.346429 0
0.578571 0.346429 0
0.596429 0.346429 0
0.614286 0.346429 0
0.632143 0.346429 0
0.650000 0.346429 0
0.667857 0.346429 0
0.685714 0.346429 0
0.703571 0.346429 0
0.721429 0.346429 0
0.739286 0.346429 0
0.757143 0.346429 0
0.775000 0.346429 0
0.792857 0.346429 0
0.810714 0.346429 0
0.828571 0.346429 0
0.846429 0.346429 0
[...]
POINT_DATA 1681 

VECTORS velocity float
0.000000 0.000000 0
0.003167 0.000000 0
0.008493 0.000000 0
0.012238 0.000000 0
0.013691 0.000000 0
0.014809 0.000000 0
0.016009 0.000000 0
0.014242 0.000000 0
0.007524 0.000000 0
-0.003738 0.000000 0
-0.017068 0.000000 0
-0.031158 0.000000 0
-0.045115 0.000000 0
-0.058331 0.000000 0
-0.070446 0.000000 0
-0.081274 0.000000 0
-0.090842 0.000000 0
-0.099110 0.000000 0
-0.106103 0.000000 0
-0.111848 0.000000 0
-0.116376 0.000000 0
-0.119708 0.000000 0
-0.121850 0.000000 0
-0.122844 0.000000 0
-0.122594 0.000000 0
-0.120958 0.000000 0
-0.117798 0.000000 0
-0.112981 0.000000 0
-0.106363 0.000000 0
-0.097806 0.000000 0
-0.087286 0.000000 0
-0.074725 0.000000 0
-0.060184 0.000000 0
-0.043904 0.000000 0
-0.026440 0.000000 0
-0.008809 0.000000 0
0.007396 0.000000 0
0.016142 0.000000 0
0.014142 0.000000 0
0.006738 0.000000 0
0.000000 0.000000 0
0.000000 -0.003167 0
0.007605 -0.008493 0
0.016474 -0.009071 0
0.022156 -0.005197 0
0.020874 -0.002571 0
0.012662 -0.002318 0
-0.000703 0.000567 0
-0.018700 0.008486 0
-0.041407 0.017980 0
-0.067920 0.024592 0
-0.096164 0.027420 0
-0.124388 0.028046 0
-0.151310 0.027173 0
-0.176079 0.025331 0
-0.198220 0.022944 0
-0.217538 0.020397 0
-0.234053 0.017835 0
-0.247820 0.015261 0
-0.258941 0.012739 0
-0.267521 0.010273 0
-0.273653 0.007860 0
-0.277403 0.005474 0
-0.278803 0.003136 0
-0.277842 0.000744 0
-0.274437 -0.001886 0
-0.268458 -0.004795 0
-0.259707 -0.007977 0
-0.247942 -0.011436 0
-0.232903 -0.015175 0
-0.214344 -0.019077 0
-0.192087 -0.023081 0
-0.166017 -0.027102 0
-0.136224 -0.030820 0
-0.103159 -0.033744 0
-0.067885 -0.035096 0
-0.032437 -0.033837 0
-0.000380 -0.024950 0
0.022229 -0.006745 0
0.024676 0.009403 0
0.012423 0.014142 0
0.000000 0.006738 0
0.000000 -0.007605 0
0.005584 -0.016474 0
0.005516 -0.014551 0
-0.002560 -0.004400 0
-0.017553 0.009494 0
-0.040677 0.021577 0
-0.070659 0.031362 0
-0.102805 0.040704 0
-0.133813 0.049220 0
-0.162489 0.054757 0
-0.189328 0.056468 0
-0.213903 0.055146 0
-0.235831 0.051691 0
-0.254924 0.046910 0
-0.271150 0.041459 0
-0.284603 0.035833 0
-0.295356 0.030282 0
-0.303615 0.024888 0
-0.309547 0.019701 0
-0.313304 0.014712 0
-0.315003 0.009882 0
-0.314716 0.005150 0
-0.312476 0.000439 0
-0.308207 -0.004366 0
-0.301904 -0.009384 0
-0.293504 -0.014731 0
-0.282866 -0.020517 0
-0.269785 -0.026803 0
-0.254028 -0.033598 0
-0.235362 -0.040816 0
-0.213497 -0.048327 0
-0.188320 -0.055863 0
-0.159847 -0.062858 0
-0.128413 -0.068338 0
-0.094866 -0.070723 0
-0.060900 -0.067505 0
-0.029592 -0.054666 0
-0.002249 -0.025056 0
0.014562 0.009806 0
0.007881 0.024676 0
0.000000 0.012423 0
0.000000 -0.008751 0
-0.006400 -0.014009 0
-0.022472 -0.000926 0
-0.045717 0.017871 0
-0.072313 0.035546 0
-0.100782 0.050788 0
-0.130731 0.062694 0
-0.160421 0.071639 0
-0.187719 0.077665 0
-0.211545 0.080107 0
-0.232085 0.078834 0
-0.249568 0.074549 0
-0.264232 0.068194 0
-0.276342 0.060650 0
-0.286164 0.052623 0
-0.293936 0.044602 0
-0.299830 0.036847 0
-0.304035 0.029451 0
-0.306693 0.022428 0
-0.307911 0.015729 0
-0.307754 0.009272 0
-0.306246 0.002947 0
-0.303369 -0.003374 0
-0.299090 -0.009828 0
-0.293321 -0.016589 0
-0.285931 -0.023833 0
-0.276765 -0.031697 0
-0.265638 -0.040274 0
-0.252332 -0.049598 0
-0.236611 -0.059607 0
-0.218211 -0.070123 0
-0.196958 -0.080753 0
-0.172777 -0.090727 0
-0.145801 -0.098725 0
-0.116493 -0.102608 0
-0.085821 -0.099110 0
-0.055382 -0.083601 0
-0.027133 -0.050900 0
-0.001484 -0.000727 0
0.002748 0.028704 0
0.000000 0.014619 0
0.000000 -0.001204 0
-0.021563 0.005998 0
-0.049729 0.024766 0
-0.078584 0.045442 0
-0.108076 0.064559 0
-0.136998 0.079994 0
-0.164525 0.091001 0
-0.189734 0.097693 0
-0.211605 0.100343 0
-0.229701 0.099122 0
-0.244326 0.094492 0
-0.256005 0.087293 0
-0.265274 0.078466 0
-0.272602 0.068843 0
-0.278351 0.059053 0
-0.282778 0.049499 0
-0.286045 0.040381 0
-0.288269 0.031751 0
-0.289524 0.023578 0
-0.289848 0.015773 0
-0.289248 0.008217 0
-0.287705 0.000765 0
-0.285175 -0.006717 0
-0.281609 -0.014413 0
-0.276897 -0.022543 0
-0.270933 -0.031286 0
-0.263585 -0.040810 0
-0.254697 -0.051236 0
-0.244083 -0.062625 0
-0.231530 -0.074938 0
-0.216803 -0.087980 0
-0.199690 -0.101297 0
-0.180017 -0.114015 0
-0.157688 -0.124623 0
-0.132751 -0.130702 0
-0.105468 -0.128616 0
-0.076394 -0.113354 0
-0.046477 -0.078954 0
-0.017743 -0.020075 0
0.003070 0.023192 0
0.000000 0.015171 0
0.000000 0.012811 0
-0.030714 0.035719 0
-0.064042 0.056095 0
-0.096137 0.076219 0
-0.126300 0.093960 0
-0.153815 0.107236 0
-0.178178 0.115430 0
-0.199009 0.118719 0
-0.216051 0.117632 0
-0.229423 0.112829 0
-0.239642 0.105138 0
-0.247365 0.095498 0
-0.253204 0.084791 0
-0.257647 0.073727 0
-0.261033 0.062799 0
-0.263574 0.052296 0
-0.265388 0.042338 0
-0.266541 0.032931 0
-0.267062 0.024007 0
-0.266958 0.015454 0
-0.266217 0.007130 0
-0.264811 -0.001126 0
-0.262706 -0.009470 0
-0.259823 -0.018106 0
-0.256096 -0.027265 0
-0.251439 -0.037145 0
-0.245753 -0.047932 0
-0.238915 -0.059776 0
-0.230779 -0.072765 0
-0.221166 -0.086887 0
-0.209871 -0.101963 0
-0.196662 -0.117539 0
-0.181286 -0.132729 0
-0.163457 -0.145990 0
-0.142869 -0.154828 0
-0.119207 -0.155468 0
-0.092233 -0.142592 0
-0.062021 -0.109551 0
-0.029544 -0.050274 0
0.002975 0.010961 0
0.000000 0.017689 0
0.000000 0.029510 0
-0.034106 0.070040 0
-0.069720 0.090188 0
-0.102457 0.107699 0
-0.131724 0.122237 0
-0.157069 0.131873 0
-0.178309 0.136195 0
-0.195476 0.135566 0
-0.208800 0.130757 0
-0.218757 0.122713 0
-0.226005 0.112433 0
-0.231222 0.100855 0
-0.234987 0.088748 0
-0.237726 0.076672 0
-0.239723 0.064980 0
-0.241143 0.053854 0
-0.242076 0.043347 0
-0.242567 0.033425 0
-0.242632 0.023995 0
-0.242271 0.014928 0
-0.241471 0.006070 0
-0.240210 -0.002746 0
-0.238458 -0.011706 0
-0.236150 -0.021024 0
-0.233238 -0.030927 0
-0.229665 -0.041630 0
-0.225358 -0.053333 0
-0.220232 -0.066210 0
-0.214177 -0.080374 0
-0.207054 -0.095846 0
-0.198690 -0.112484 0
-0.188859 -0.129882 0
-0.177270 -0.147220 0
-0.163522 -0.163040 0
-0.147073 -0.174952 0
-0.127208 -0.179252 0
-0.103091 -0.170540 0
-0.074046 -0.141643 0
-0.040365 -0.085072 0
-0.005384 -0.006352 0
0.000000 0.018146 0
0.000000 0.046918 0
-0.034269 0.105439 0
-0.069632 0.124445 0
-0.101301 0.138223 0
-0.128733 0.148573 0
-0.151645 0.153821 0
-0.170088 0.153837 0
-0.184370 0.149210 0
-0.195001 0.140913 0
-0.202637 0.130034 0
-0.207980 0.117603 0
-0.211665 0.104479 0
-0.214197 0.091295 0
-0.215934 0.078463 0
-0.217105 0.066216 0
-0.217850 0.054649 0
-0.218244 0.043762 0
-0.218328 0.033486 0
-0.218117 0.023711 0
-0.217613 0.014293 0
-0.216806 0.005068 0
-0.215679 -0.004139 0
-0.214209 -0.013530 0
-0.212351 -0.023326 0
-0.210075 -0.033750 0
-0.207341 -0.045025 0
-0.204106 -0.057365 0
-0.200311 -0.070958 0
-0.195881 -0.085943 0
-0.190713 -0.102374 0
-0.184667 -0.120158 0
-0.177545 -0.138959 0
-0.169059 -0.158066 0
-0.158778 -0.176186 0
-0.146061 -0.191143 0
-0.129993 -0.199450 0
-0.109405 -0.195753 0
-0.083165 -0.172277 0
-0.051162 -0.118936 0
-0.017079 -0.029404 0
0.000000 0.012305 0
0.000000 0.063779 0
-0.032426 0.139673 0
-0.065975 0.157220 0
-0.095557 0.166799 0
-0.120662 0.172582 0
-0.141129 0.173228 0
-0.157156 0.168919 0
-0.169210 0.160479 0
-0.177931 0.149024 0
-0.184027 0.135691 0
-0.188176 0.121461 0
-0.190944 0.107072 0
-0.192758 0.093016 0
-0.193916 0.079580 0
-0.194613 0.066896 0
-0.194970 0.054993 0
-0.195057 0.043825 0
-0.194913 0.033298 0
-0.194556 0.023280 0
-0.193990 0.013617 0
-0.193210 0.004137 0
-0.192207 -0.005343 0
-0.190963 -0.015034 0
-0.189453 -0.025158 0
-0.187660 -0.035937 0
-0.185560 -0.047599 0
-0.183129 -0.060364 0
-0.180328 -0.074435 0
-0.177108 -0.089972 0
-0.173393 -0.107060 0
-0.169075 -0.125652 0
-0.163986 -0.145490 0
-0.157873 -0.165987 0
-0.150335 -0.186038 0
-0.140745 -0.203737 0
-0.128149 -0.215907 0
-0.111233 -0.217367 0
-0.088522 -0.199887 0
-0.059236 -0.151158 0
-0.025641 -0.057514 0
0.000000 0.001067 0
0.000000 0.079343 0
-0.029436 0.171414 0
-0.060293 0.187576 0
-0.087253 0.192910 0
-0.109836 0.194145 0
-0.127965 0.190315 0
-0.141923 0.181918 0
-0.152244 0.169985 0
-0.159597 0.155730 0
-0.164668 0.140279 0
-0.168070 0.124520 0
-0.170293 0.109061 0
-0.171697 0.094267 0
-0.172534 0.080318 0
-0.172972 0.067269 0
-0.173120 0.055092 0
-0.173046 0.043705 0
-0.172790 0.032986 0
-0.172371 0.022788 0
-0.171796 0.012947 0
-0.171065 0.003285 0
-0.170176 -0.006387 0
-0.169120 -0.016283 0
-0.167887 -0.026628 0
-0.166467 -0.037643 0
-0.164848 -0.049557 0
-0.163018 -0.062597 0
-0.160954 -0.076978 0
-0.158618 -0.092878 0
-0.155955 -0.110408 0
-0.152876 -0.129565 0
-0.149243 -0.150160 0
-0.144842 -0.171717 0
-0.139333 -0.193315 0
-0.132165 -0.213329 0
-0.122454 -0.228962 0
-0.108861 -0.235381 0
-0.089635 -0.224274 0
-0.063197 -0.181817 0
-0.030159 -0.088640 0
0.000000 -0.013336 0
0.000000 0.093215 0
-0.025874 0.199965 0
-0.053611 0.215038 0
-0.077732 0.216343 0
-0.097773 0.213294 0
-0.113723 0.205315 0
-0.125898 0.193198 0
-0.134836 0.178153 0
-0.141175 0.161448 0
-0.145538 0.144164 0
-0.148459 0.127086 0
-0.150353 0.110699 0
-0.151523 0.095258 0
-0.152186 0.080854 0
-0.152488 0.067482 0
-0.152530 0.055067 0
-0.152377 0.043495 0
-0.152070 0.032622 0
-0.151633 0.022286 0
-0.151079 0.012312 0
-0.150411 0.002518 0
-0.149631 -0.007288 0
-0.148737 -0.017323 0
-0.147729 -0.027812 0
-0.146605 -0.038975 0
-0.145360 -0.051047 0
-0.143987 -0.064259 0
-0.142472 -0.078835 0
-0.140787 -0.094970 0
-0.138884 -0.112802 0
-0.136685 -0.132364 0
-0.134072 -0.153524 0
-0.130863 -0.175896 0
-0.126779 -0.198715 0
-0.121366 -0.220617 0
-0.113868 -0.239212 0
-0.103035 -0.250186 0
-0.086987 -0.245550 0
-0.063515 -0.210635 0
-0.031888 -0.120711 0
0.000000 -0.029092 0
0.000000 0.105217 0
-0.022093 0.225026 0
-0.046571 0.239434 0
-0.067827 0.237072 0
-0.085409 0.230136 0
-0.099349 0.218440 0
-0.109964 0.203031 0
-0.117759 0.185263 0
-0.123306 0.166432 0
-0.127146 0.147563 0
-0.129730 0.129334 0
-0.131408 0.112126 0
-0.132436 0.096101 0
-0.133000 0.081283 0
-0.133230 0.067614 0
-0.133218 0.054981 0
-0.133028 0.043245 0
-0.132703 0.032241 0
-0.132270 0.021796 0
-0.131748 0.011725 0
-0.131147 0.001837 0
-0.130471 -0.008061 0
-0.129719 -0.018185 0
-0.128900 -0.028761 0
-0.128014 -0.040013 0
-0.127062 -0.052174 0
-0.126043 -0.065485 0
-0.124944 -0.080178 0
-0.123743 -0.096466 0
-0.122397 -0.114510 0
-0.120833 -0.134377 0
-0.118940 -0.155982 0
-0.116559 -0.179010 0
-0.113453 -0.202812 0
-0.109261 -0.226240 0
-0.103377 -0.247292 0
-0.094724 -0.262261 0
-0.081479 -0.263794 0
-0.061092 -0.236917 0
-0.031834 -0.152155 0
0.000000 -0.045224 0
0.000000 0.115308 0
-0.018298 0.246536 0
-0.039541 0.260772 0
-0.058019 0.255181 0
-0.073273 0.244816 0
-0.085365 0.229871 0
-0.094593 0.211609 0
-0.101404 0.191494 0
-0.106289 0.170834 0
-0.109704 0.150589 0
-0.112023 0.131349 0
-0.113535 0.113406 0
-0.114459 0.096849 0
-0.114954 0.081648 0
-0.115138 0.067700 0
-0.115097 0.054866 0
-0.114892 0.042980 0
-0.114567 0.031864 0
-0.114152 0.021331 0
-0.113670 0.011189 0
-0.113135 0.001240 0
-0.112553 -0.008716 0
-0.111927 -0.018894 0
-0.111266 -0.029517 0
-0.110574 -0.040813 0
-0.109855 -0.053018 0
-0.109109 -0.066377 0
-0.108327 -0.081134 0
-0.107490 -0.097518 0
-0.106558 -0.115713 0
-0.105460 -0.135821 0
-0.104094 -0.157798 0
-0.102306 -0.181383 0
-0.099892 -0.206012 0
-0.096558 -0.230693 0
-0.091835 -0.253749 0
-0.084868 -0.272083 0
-0.074040 -0.279182 0
-0.056720 -0.260280 0
-0.030426 -0.181803 0
0.000000 -0.060925 0
0.000000 0.123516 0
-0.014596 0.264567 0
-0.032715 0.279155 0
-0.048555 0.270804 0
-0.061629 0.257483 0
-0.072018 0.239760 0
-0.079989 0.219069 0
-0.085919 0.196958 0
-0.090217 0.174732 0
-0.093252 0.153296 0
-0.095332 0.133166 0
-0.096694 0.114562 0
-0.097522 0.097519 0
-0.097956 0.081962 0
-0.098103 0.067756 0
-0.098043 0.054735 0
-0.097834 0.042715 0
-0.097522 0.031502 0
-0.097136 0.020899 0
-0.096699 0.010707 0
-0.096227 0.000721 0
-0.095732 -0.009268 0
-0.095216 -0.019473 0
-0.094686 -0.030115 0
-0.094152 -0.041423 0
-0.093616 -0.053639 0
-0.093081 -0.067012 0
-0.092540 -0.081797 0
-0.091976 -0.098236 0
-0.091353 -0.116540 0
-0.090608 -0.136841 0
-0.089640 -0.159136 0
-0.088308 -0.183211 0
-0.086422 -0.208561 0
-0.083735 -0.234297 0
-0.079888 -0.258982 0
-0.074244 -0.280057 0
-0.065485 -0.291942 0
-0.051116 -0.280531 0
-0.028133 -0.208876 0
0.000000 -0.075649 0
0.000000 0.129903 0
-0.011024 0.279251 0
-0.026168 0.294731 0
-0.039527 0.284095 0
-0.050567 0.268280 0
-0.059379 0.248231 0
-0.066190 0.225509 0
-0.071308 0.201722 0
-0.075057 0.178167 0
-0.077731 0.155704 0
-0.079574 0.134790 0
-0.080782 0.115596 0
-0.081510 0.098111 0
-0.081882 0.082229 0
-0.081994 0.067787 0
-0.081921 0.054598 0
-0.081719 0.042459 0
-0.081428 0.031165 0
-0.081078 0.020508 0
-0.080691 0.010281 0
-0.080282 0.000274 0
-0.079865 -0.009728 0
-0.079443 -0.019940 0
-0.079024 -0.030581 0
-0.078616 -0.041883 0
-0.078224 -0.054089 0
-0.077849 -0.067453 0
-0.077489 -0.082239 0
-0.077129 -0.098704 0
-0.076740 -0.117081 0
-0.076265 -0.137534 0
-0.075614 -0.160098 0
-0.074656 -0.184601 0
-0.073216 -0.210585 0
-0.071078 -0.237227 0
-0.067962 -0.263239 0
-0.063415 -0.286486 0
-0.056447 -0.302311 0
-0.044849 -0.297633 0
-0.025318 -0.232919 0
0.000000 -0.089058 0
0.000000 0.134540 0
-0.007585 0.290735 0
-0.019900 0.307658 0
-0.030935 0.295203 0
-0.040075 0.277335 0
-0.047414 0.255383 0
-0.053139 0.230998 0
-0.057488 0.205825 0
-0.060709 0.181155 0
-0.063024 0.157813 0
-0.064625 0.136216 0
-0.065670 0.116498 0
-0.066292 0.098620 0
-0.066598 0.082447 0
-0.066677 0.067796 0
-0.066596 0.054459 0
-0.066406 0.042221 0
-0.066145 0.030861 0
-0.065839 0.020163 0
-0.065506 0.009911 0
-0.065160 -0.000105 0
-0.064813 -0.010107 0
-0.064473 -0.020313 0
-0.064146 -0.030941 0
-0.063840 -0.042224 0
-0.063559 -0.054406 0
-0.063307 -0.067747 0
-0.063082 -0.082517 0
-0.062874 -0.098985 0
-0.062662 -0.117404 0
-0.062398 -0.137967 0
-0.062009 -0.160745 0
-0.061378 -0.185609 0
-0.060350 -0.212138 0
-0.058732 -0.239551 0
-0.056298 -0.266645 0
-0.052737 -0.291572 0
-0.047358 -0.310508 0
-0.038334 -0.311660 0
-0.022248 -0.253725 0
0.000000 -0.100967 0
0.000000 0.137489 0
-0.004256 0.299151 0
-0.013876 0.318081 0
-0.022724 0.304269 0
-0.030079 0.284758 0
-0.036030 0.261294 0
-0.040724 0.235583 0
-0.044335 0.209292 0
-0.047038 0.183703 0
-0.048994 0.159620 0
-0.050346 0.137436 0
-0.051221 0.117262 0
-0.051732 0.099039 0
-0.051971 0.082614 0
-0.052018 0.067784 0
-0.051933 0.054326 0
-0.051761 0.042008 0
-0.051536 0.030598 0
-0.051279 0.019869 0
-0.051006 0.009602 0
-0.050723 -0.000419 0
-0.050442 -0.010415 0
-0.050172 -0.020607 0
-0.049923 -0.031214 0
-0.049699 -0.042470 0
-0.049505 -0.054622 0
-0.049345 -0.067931 0
-0.049222 -0.082671 0
-0.049130 -0.099124 0
-0.049054 -0.117557 0
-0.048962 -0.138186 0
-0.048798 -0.161118 0
-0.048468 -0.186260 0
-0.047841 -0.213231 0
-0.046749 -0.241278 0
-0.045006 -0.269235 0
-0.042396 -0.295426 0
-0.038480 -0.316713 0
-0.031837 -0.322743 0
-0.019102 -0.271253 0
0.000000 -0.111306 0
0.000000 0.138796 0
-0.001062 0.304611 0
-0.008027 0.326125 0
-0.014804 0.311407 0
-0.020473 0.290641 0
-0.025106 0.266028 0
-0.028812 0.239302 0
-0.031705 0.212139 0
-0.033898 0.185814 0
-0.035494 0.161121 0
-0.036595 0.138444 0
-0.037299 0.117884 0
-0.037699 0.099369 0
-0.037875 0.082733 0
-0.037894 0.067757 0
-0.037809 0.054202 0
-0.037659 0.041824 0
-0.037472 0.030379 0
-0.037267 0.019633 0
-0.037055 0.009355 0
-0.036838 -0.000669 0
-0.036619 -0.010658 0
-0.036412 -0.020833 0
-0.036228 -0.031415 0
-0.036071 -0.042642 0
-0.035946 -0.054759 0
-0.035859 -0.068030 0
-0.035814 -0.082732 0
-0.035811 -0.099153 0
-0.035846 -0.117571 0
-0.035901 -0.138223 0
-0.035940 -0.161240 0
-0.035898 -0.186566 0
-0.035672 -0.213857 0
-0.035125 -0.242386 0
-0.034104 -0.270998 0
-0.032458 -0.298097 0
-0.029938 -0.321066 0
-0.025508 -0.331038 0
-0.015985 -0.285562 0
0.000000 -0.120070 0
0.000000 0.138550 0
0.001971 0.307179 0
-0.002255 0.331824 0
-0.007074 0.316715 0
-0.011144 0.295060 0
-0.014510 0.269633 0
-0.017259 0.242183 0
-0.019452 0.214378 0
-0.021141 0.187492 0
-0.022382 0.162317 0
-0.023236 0.139242 0
-0.023775 0.118366 0
-0.024072 0.099615 0
-0.024192 0.082809 0
-0.024191 0.067719 0
-0.024113 0.054091 0
-0.023987 0.041671 0
-0.023837 0.030206 0
-0.023680 0.019452 0
-0.023526 0.009173 0
-0.023374 -0.000855 0
-0.023213 -0.010841 0
-0.023062 -0.020998 0
-0.022934 -0.031555 0
-0.022833 -0.042752 0
-0.022765 -0.054834 0
-0.022737 -0.068063 0
-0.022756 -0.082719 0
-0.022829 -0.099092 0
-0.022961 -0.117467 0
-0.023149 -0.138092 0
-0.023382 -0.161121 0
-0.023623 -0.186529 0
-0.023802 -0.214005 0
-0.023820 -0.242846 0
-0.023558 -0.271901 0
-0.022912 -0.299592 0
-0.021759 -0.323664 0
-0.019407 -0.336696 0
-0.012945 -0.296761 0
0.000000 -0.127291 0
0.000000 0.136825 0
0.004892 0.306865 0
0.003477 0.335170 0
0.000586 0.320296 0
-0.001955 0.298077 0
-0.004102 0.272142 0
-0.005923 0.244244 0
-0.007433 0.216021 0
-0.008631 0.188744 0
-0.009526 0.163216 0
-0.010144 0.139837 0
-0.010530 0.118719 0
-0.010735 0.099786 0
-0.010811 0.082853 0
-0.010801 0.067678 0
-0.010735 0.053998 0
-0.010637 0.041549 0
-0.010523 0.030073 0
-0.010406 0.019321 0
-0.010297 0.009049 0
-0.010199 -0.000982 0
-0.010092 -0.010970 0
-0.009993 -0.021112 0
-0.009913 -0.031644 0
-0.009860 -0.042811 0
-0.009842 -0.054856 0
-0.009866 -0.068039 0
-0.009944 -0.082640 0
-0.010086 -0.098949 0
-0.010310 -0.117251 0
-0.010630 -0.137801 0
-0.011057 -0.160766 0
-0.011584 -0.186146 0
-0.012176 -0.213660 0
-0.012775 -0.242631 0
-0.013303 -0.271906 0
-0.013695 -0.299897 0
-0.013908 -0.324571 0
-0.013534 -0.339851 0
-0.009998 -0.304969 0
0.000000 -0.133015 0
0.000000 0.133658 0
0.007773 0.303702 0
0.009187 0.336129 0
0.008257 0.322147 0
0.007205 0.299748 0
0.006236 0.273601 0
0.005324 0.245513 0
0.004486 0.217086 0
0.003769 0.189585 0
0.003206 0.163831 0
0.002807 0.140246 0
0.002557 0.118957 0
0.002425 0.099896 0
0.002379 0.082875 0
0.002390 0.067642 0
0.002437 0.053928 0
0.002506 0.041459 0
0.002587 0.029975 0
0.002671 0.019227 0
0.002751 0.008966 0
0.002821 -0.001060 0
0.002879 -0.011048 0
0.002927 -0.021177 0
0.002962 -0.031687 0
0.002972 -0.042823 0
0.002944 -0.054828 0
0.002870 -0.067961 0
0.002736 -0.082499 0
0.002521 -0.098726 0
0.002200 -0.116924 0
0.001742 -0.137345 0
0.001115 -0.160167 0
0.000295 -0.185410 0
-0.000722 -0.212814 0
-0.001917 -0.241719 0
-0.003256 -0.270982 0
-0.004718 -0.298987 0
-0.006310 -0.323825 0
-0.007846 -0.340606 0
-0.007130 -0.310295 0
0.000000 -0.137289 0
0.000000 0.129052 0
0.010666 0.297678 0
0.014953 0.334687 0
0.015999 0.322278 0
0.016406 0.300098 0
0.016586 0.274023 0
0.016566 0.245994 0
0.016395 0.217577 0
0.016153 0.190025 0
0.015913 0.164178 0
0.015720 0.140486 0
0.015590 0.119101 0
0.015518 0.099964 0
0.015492 0.082888 0
0.015498 0.067620 0
0.015527 0.053882 0
0.015569 0.041399 0
0.015621 0.029908 0
0.015678 0.019157 0
0.015737 0.008900 0
0.015792 -0.001109 0
0.015817 -0.011077 0
0.015826 -0.021195 0
0.015821 -0.031688 0
0.015791 -0.042792 0
0.015722 -0.054754 0
0.015602 -0.067831 0
0.015409 -0.082291 0
0.015115 -0.098413 0
0.014683 -0.116472 0
0.014068 -0.136716 0
0.013222 -0.159319 0
0.012093 -0.184309 0
0.010637 -0.211449 0
0.008837 -0.240097 0
0.006673 -0.269105 0
0.004122 -0.296842 0
0.001139 -0.321442 0
-0.002267 -0.339031 0
-0.004305 -0.312816 0
0.000000 -0.140145 0
0.000000 0.122992 0
0.013598 0.288749 0
0.020831 0.330797 0
0.023897 0.320694 0
0.025731 0.299162 0
0.027014 0.273441 0
0.027859 0.245704 0
0.028341 0.217499 0
0.028569 0.190068 0
0.028649 0.164264 0
0.028658 0.140569 0
0.028645 0.119159 0
0.028633 0.099994 0
0.028629 0.082894 0
0.028636 0.067608 0
0.028652 0.053857 0
0.028676 0.041365 0
0.028707 0.029866 0
0.028744 0.019110 0
0.028784 0.008852 0
0.028822 -0.001140 0
0.028834 -0.011083 0
0.028825 -0.021181 0
0.028793 -0.031652 0
0.028732 -0.042725 0
0.028629 -0.054639 0
0.028464 -0.067648 0
0.028209 -0.082011 0
0.027828 -0.097999 0
0.027273 -0.115877 0
0.026486 -0.135884 0
0.025400 -0.158191 0
0.023940 -0.182826 0
0.022032 -0.209557 0
0.019609 -0.237755 0
0.016598 -0.266267 0