# vtk DataFile Version 2.0
generated by CFD-lab course output (written by Tobias Neckel) 
ASCII

DATASET STRUCTURED_GRID
DIMENSIONS  41 41 1 
POINTS 1681 float

0.150000 0.150000 0
0.167857 0.150000 0
0.185714 0.150000 0
0.203571 0.150000 0
0.221429 0.150000 0
0.239286 0.150000 0
0.257143 0.150000 0
0.275000 0.150000 0
0.292857 0.150000 0
0.310714 0.150000 0
0.328571 0.150000 0
0.346429 0.150000 0
0.364286 0.150000 0
0.382143 0.150000 0
0.400000 0.150000 0
0.417857 0.150000 0
0.435714 0.150000 0
0.453571 0.150000 0
0.471429 0.150000 0
0.489286 0.150000 0
0.507143 0.150000 0
0.525000 0.150000 0
0.542857 0.150000 0
0.560714 0.150000 0
0.578571 0.150000 0
0.596429 0.150000 0
0.614286 0.150000 0
0.632143 0.150000 0
0.650000 0.150000 0
0.667857 0.150000 0
0.685714 0.150000 0
0.703571 0.150000 0
0.721429 0.150000 0
0.739286 0.150000 0
0.757143 0.150000 0
0.775000 0.150000 0
0.792857 0.150000 0
0.810714 0.150000 0
0.828571 0.150000 0
0.846429 0.150000 0
0.864286 0.150000 0
0.150000 0.167857 0
0.167857 0.167857 0
0.185714 0.167857 0
0.203571 0.167857 0
0.221429 0.167857 0
0.239286 0.167857 0
0.257143 0.167857 0
0.275000 0.167857 0
0.292857 0.167857 0
0.310714 0.167857 0
0.328571 0.167857 0
0.346429 0.167857 0
0.364286 0.167857 0
0.382143 0.167857 0
0.400000 0.167857 0
0.417857 0.167857 0
0.435714 0.167857 0
0.453571 0.167857 0
0.471429 0.167857 0
0.489286 0.167857 0
0.507143 0.167857 0
0.525000 0.167857 0
0.542857 0.167857 0
0.560714 0.167857 0
0.578571 0.167857 0
0.596429 0.167857 0
0.614286 0.167857 0
0.632143 0.167857 0
0.650000 0.167857 0
0.667857 0.167857 0
0.685714 0.167857 0
0.703571 0.167857 0
0.721429 0.167857 0
0.739286 0.167857 0
0.757143 0.167857 0
0.775000 0.167857 0
0.792857 0.167857 0
0.810714 0.167857 0
0.828571 0.167857 0
0.846429 0.167857 0
0.864286 0.167857 0
0.150000 0.185714 0
0.167857 0.185714 0
0.185714 0.185714 0
0.203571 0.185714 0
0.221429 0.185714 0
0.239286 0.185714 0
0.257143 0.185714 0
0.275000 0.185714 0
0.292857 0.185714 0
0.310714 0.185714 0
0.328571 0.185714 0
0.346429 0.185714 0
0.364286 0.185714 0
0.382143 0.185714 0
0.400000 0.185714 0
0.417857 0.185714 0
0.435714 0.185714 0
0.453571 0.185714 0
0.471429 0.185714 0
0.489286 0.185714 0
0.507143 0.185714 0
0.525000 0.185714 0
0.542857 0.185714 0
0.560714 0.185714 0
0.578571 0.185714 0
0.596429 0.185714 0
0.614286 0.185714 0
0.632143 0.185714 0
0.650000 0.185714 0
0.667857 0.185714 0
0.685714 0.185714 0
0.703571 0.185714 0
0.721429 0.185714 0
0.739286 0.185714 0
0.757143 0.185714 0
0.775000 0.185714 0
0.792857 0.185714 0
0.810714 0.185714 0
0.828571 0.185714 0
0.846429 0.185714 0
0.864286 0.185714 0
0.150000 0.203571 0
0.167857 0.203571 0
0.185714 0.203571 0
0.203571 0.203571 0
0.221429 0.203571 0
0.239286 0.203571 0
0.257143 0.203571 0
0.275000 0.203571 0
0.292857 0.203571 0
0.310714 0.203571 0
0.328571 0.203571 0
0.346429 0.203571 0
0.364286 0.203571 0
0.382143 0.203571 0
0.400000 0.203571 0
0.417857 0.203571 0
0.435714 0.203571 0
0.453571 0.203571 0
0.471429 0.203571 0
0.489286 0.203571 0
0.507143 0.203571 0
0.525000 0.203571 0
0.542857 0.203571 0
0.560714 0.203571 0
0.578571 0.203571 0
0.596429 0.203571 0
0.614286 0.203571 0
0.632143 0.203571 0
0.650000 0.203571 0
0.667857 0.203571 0
0.685714 0.203571 0
0.703571 0.203571 0
0.721429 0.203571 0
0.739286 0.203571 0
0.757143 0.203571 0
0.775000 0.203571 0
0.792857 0.203571 0
0.810714 0.203571 0
0.828571 0.203571 0
0.846429 0.203571 0
0.864286 0.203571 0
0.150000 0.221429 0
0.167857 0.221429 0
0.185714 0.221429 0
0.203571 0.221429 0
0.221429 0.221429 0
0.239286 0.221429 0
0.257143 0.221429 0
0.275000 0.221429 0
0.292857 0.221429 0
0.310714 0.221429 0
0.328571 0.221429 0
0.346429 0.221429 0
0.364286 0.221429 0
0.382143 0.221429 0
0.400000 0.221429 0
0.417857 0.221429 0
0.435714 0.221429 0
0.453571 0.221429 0
0.471429 0.221429 0
0.489286 0.221429 0
0.507143 0.221429 0
0.525000 0.221429 0
0.542857 0.221429 0
0.560714 0.221429 0
0.578571 0.221429 0
0.596429 0.221429 0
0.614286 0.221429 0
0.632143 0.221429 0
0.650000 0.221429 0
0.667857 0.221429 0
0.685714 0.221429 0
0.703571 0.221429 0
0.721429 0.221429 0
0.739286 0.221429 0
0.757143 0.221429 0
0.775000 0.221429 0
0.792857 0.221429 0
0.810714 0.221429 0
0.828571 0.221429 0
0.846429 0.221429 0
0.864286 0.221429 0
0.150000 0.239286 0
0.167857 0.239286 0
0.185714 0.239286 0
0.203571 0.239286 0
0.221429 0.239286 0
0.239286 0.239286 0
0.257143 0.239286 0
0.275000 0.239286 0
0.292857 0.239286 0
0.310714 0.239286 0
0.328571 0.239286 0
0.346429 0.239286 0
0.364286 0.239286 0
0.382143 0.239286 0
0.400000 0.239286 0
0.417857 0.239286 0
0.435714 0.239286 0
0.453571 0.239286 0
0.471429 0.239286 0
0.489286 0.239286 0
0.507143 0.239286 0
0.525000 0.239286 0
0.542857 0.239286 0
0.560714 0.239286 0
0.578571 0.239286 0
0.596429 0.239286 0
0.614286 0.239286 0
0.632143 0.239286 0
0.650000 0.239286 0
0.667857 0.239286 0
0.685714 0.239286 0
0.703571 0.239286 0
0.721429 0.239286 0
0.739286 0.239286 0
0.757143 0.239286 0
0.775000 0.239286 0
0.792857 0.239286 0
0.810714 0.239286 0
0.828571 0.239286 0
0.846429 0.239286 0
0.864286 0.239286 0
0.150000 0.257143 0
0.167857 0.257143 0
0.185714 0.257143 0
0.203571 0.257143 0
0.221429 0.257143 0
0.239286 0.257143 0
0.257143 0.257143 0
0.275000 0.257143 0
0.292857 0.257143 0
0.310714 0.257143 0
0.328571 0.257143 0
0.346429 0.257143 0
0.364286 0.257143 0
0.382143 0.257143 0
0.400000 0.257143 0
0.417857 0.257143 0
0.435714 0.257143 0
0.453571 0.257143 0
0.471429 0.257143 0
0.489286 0.257143 0
0.507143 0.257143 0
0.525000 0.257143 0
0.542857 0.257143 0
0.560714 0.257143 0
0.578571 0.257143 0
0.596429 0.257143 0
0.614286 0.257143 0
0.632143 0.257143 0
0.650000 0.257143 0
0.667857 0.257143 0
0.685714 0.257143 0
0.703571 0.257143 0
0.721429 0.257143 0
0.739286 0.257143 0
0.757143 0.257143 0
0.775000 0.257143 0
0.792857 0.257143 0
0.810714 0.257143 0
0.828571 0.257143 0
0.846429 0.257143 0
0.864286 0.257143 0
0.150000 0.275000 0
0.167857 0.275000 0
0.185714 0.275000 0
0.203571 0.275000 0
0.221429 0.275000 0
0.239286 0.275000 0
0.257143 0.275000 0
0.275000 0.275000 0
0.292857 0.275000 0
0.310714 0.275000 0
0.328571 0.275000 0
0.346429 0.275000 0
0.364286 0.275000 0
0.382143 0.275000 0
0.400000 0.275000 0
0.417857 0.275000 0
0.435714 0.275000 0
0.453571 0.275000 0
0.471429 0.275000 0
0.489286 0.275000 0
0.507143 0.275000 0
0.525000 0.275000 0
0.542857 0.275000 0
0.560714 0.275000 0
0.578571 0.275000 0
0.596429 0.275000 0
0.614286 0.275000 0
0.632143 0.275000 0
0.650000 0.275000 0
0.667857 0.275000 0
0.685714 0.275000 0
0.703571 0.275000 0
0.721429 0.275000 0
0.739286 0.275000 0
0.757143 0.275000 0
0.775000 0.275000 0
0.792857 0.275000 0
0.810714 0.275000 0
0.828571 0.275000 0
0.846429 0.275000 0
0.864286 0.275000 0
0.150000 0.292857 0
0.167857 0.292857 0
0.185714 0.292857 0
0.203571 0.292857 0
0.221429 0.292857 0
0.239286 0.292857 0
0.257143 0.292857 0
0.275000 0.292857 0
0.292857 0.292857 0
0.310714 0.292857 0
0.328571 0.292857 0
0.346429 0.292857 0
0.364286 0.292857 0
0.382143 0.292857 0
0.400000 0.292857 0
0.417857 0.292857 0
0.435714 0.292857 0
0.453571 0.292857 0
0.471429 0.292857 0
0.489286 0.292857 0
0.507143 0.292857 0
0.525000 0.292857 0
0.542857 0.292857 0
0.560714 0.292857 0
0.578571 0.292857 0
0.596429 0.292857 0
0.614286 0.292857 0
0.632143 0.292857 0
0.650000 0.292857 0
0.667857 0.292857 0
0.685714 0.292857 0
0.703571 0.292857 0
0.721429 0.292857 0
0.739286 0.292857 0
0.757143 0.292857 0
0.775000 0.292857 0
0.792857 0.292857 0
0.810714 0.292857 0
0.828571 0.292857 0
0.846429 0.292857 0
0.864286 0.292857 0
0.150000 0.310714 0
0.167857 0.310714 0
0.185714 0.310714 0
0.203571 0.310714 0
0.221429 0.310714 0
0.239286 0.310714 0
0.257143 0.310714 0
0.275000 0.310714 0
0.292857 0.310714 0
0.310714 0.310714 0
0.328571 0.310714 0
0.346429 0.310714 0
0.364286 0.310714 0
0.382143 0.310714 0
0.400000 0.310714 0
0.417857 0.310714 0
0.435714 0.310714 0
0.453571 0.310714 0
0.471429 0.310714 0
0.489286 0.310714 0
0.507143 0.310714 0
0.525000 0.310714 0
0.542857 0.310714 0
0.560714 0.310714 0
0.578571 0.310714 0
0.596429 0.310714 0
0.614286 0.310714 0
0.632143 0.310714 0
0.650000 0.310714 0
0.667857 0.310714 0
0.685714 0.310714 0
0.703571 0.310714 0
0.721429 0.310714 0
0.739286 0.310714 0
0.757143 0.310714 0
0.775000 0.310714 0
0.792857 0.310714 0
0.810714 0.310714 0
0.828571 0.310714 0
0.846429 0.310714 0
0.864286 0.310714 0
0.150000 0.328571 0
0.167857 0.328571 0
0.185714 0.328571 0
0.203571 0.328571 0
0.221429 0.328571 0
0.239286 0.328571 0
0.257143 0.328571 0
0.275000 0.328571 0
0.292857 0.328571 0
0.310714 0.328571 0
0.328571 0.328571 0
0.346429 0.328571 0
0.364286 0.328571 0
0.382143 0.328571 0
0.400000 0.328571 0
0.417857 0.328571 0
0.435714 0.328571 0
0.453571 0.328571 0
0.471429 0.328571 0
0.489286 0.328571 0
0.507143 0.328571 0
0.525000 0.328571 0
0.542857 0.328571 0
0.560714 0.328571 0
0.578571 0.328571 0
0.596429 0.328571 0
0.614286 0.328571 0
0.632143 0.328571 0
0.650000 0.328571 0
0.667857 0.328571 0
0.685714 0.328571 0
0.703571 0.328571 0
0.721429 0.328571 0
0.739286 0.328571 0
0.757143 0.328571 0
0.775000 0.328571 0
0.792857 0.328571 0
0.810714 0.328571 0
0.828571 0.328571 0
0.846429 0.328571 0
0.864286 0.328571 0
0.150000 0.346429 0
0.167857 0.346429 0
0.185714 0.346429 0
0.203571 0.346429 0
0.221429 0.346429 0
0.239286 0.346429 0
0.257143 0.346429 0
0.275000 0.346429 0
0.292857 0.346429 0
0.310714 0.346429 0
0.328571 0.346429 0
0.346429 0.346429 0
0.364286 0.346429 0
0.382143 0.346429 0
0.400000 0.346429 0
0.417857 0.346429 0
0.435714 0.346429 0
0.453571 0.346429 0
0.471429 0.346429 0
0.489286 0.346429 0
0.507143 0.346429 0
0.525000 0.346429 0
0.542857 0.346429 0
0.560714 0.346429 0
0.578571 0.346429 0
0.596429 0.346429 0
0.614286 0.346429 0
0.632143 0.346429 0
0.650000 0.346429 0
0.667857 0.346429 0
0.685714 0.346429 0
0.703571 0.346429 0
0.721429 0.346429 0
0.739286 0.346429 0
0.757143 0.346429 0
0.775000 0.346429 0
0.792857 0.346429 0
0.810714 0.346429 0
0.828571 0.346429 0
0.846429 0.346429 0
[...]
POINT_DATA 1681 

VECTORS velocity float
0.000000 0.000000 0
0.004795 0.000000 0
0.010951 0.000000 0
0.013666 0.000000 0
0.014353 0.000000 0
0.013504 0.000000 0
0.011799 0.000000 0
0.016761 0.000000 0
0.019484 0.000000 0
0.010009 0.000000 0
-0.005970 0.000000 0
-0.023967 0.000000 0
-0.042525 0.000000 0
-0.060633 0.000000 0
-0.077618 0.000000 0
-0.093070 0.000000 0
-0.106842 0.000000 0
-0.118788 0.000000 0
-0.128863 0.000000 0
-0.137051 0.000000 0
-0.143358 0.000000 0
-0.147795 0.000000 0
-0.150357 0.000000 0
-0.151069 0.000000 0
-0.149823 0.000000 0
-0.146455 0.000000 0
-0.140886 0.000000 0
-0.133019 0.000000 0
-0.122766 0.000000 0
-0.110052 0.000000 0
-0.094925 0.000000 0
-0.077426 0.000000 0
-0.057768 0.000000 0
-0.036388 0.000000 0
-0.014070 0.000000 0
0.007838 0.000000 0
0.023596 0.000000 0
0.027814 0.000000 0
0.020926 0.000000 0
0.009694 0.000000 0
0.000000 0.000000 0
0.000000 -0.004795 0
0.013477 -0.010951 0
0.026240 -0.008870 0
0.031519 -0.003402 0
0.032992 0.000162 0
0.031629 0.002555 0
0.021502 -0.003257 0
0.003890 -0.007685 0
-0.018562 0.006751 0
-0.047816 0.025454 0
-0.082507 0.033976 0
-0.119096 0.036555 0
-0.155356 0.036666 0
-0.189748 0.035093 0
-0.221283 0.032437 0
-0.249391 0.029224 0
-0.273818 0.025718 0
-0.294438 0.022021 0
-0.311234 0.018263 0
-0.324243 0.014495 0
-0.333516 0.010744 0
-0.339101 0.006999 0
-0.341017 0.003275 0
-0.339244 -0.000534 0
-0.333692 -0.004615 0
-0.324273 -0.008938 0
-0.310825 -0.013436 0
-0.293176 -0.018120 0
-0.271152 -0.022967 0
-0.244623 -0.027841 0
-0.213568 -0.032626 0
-0.178099 -0.037158 0
-0.138626 -0.041038 0
-0.096054 -0.043697 0
-0.052121 -0.044226 0
-0.009980 -0.037666 0
0.024799 -0.019976 0
0.042962 0.002670 0
0.033689 0.018120 0
0.015634 0.020926 0
0.000000 0.009694 0
0.000000 -0.013477 0
0.016431 -0.026240 0
0.026431 -0.018042 0
0.028230 -0.006752 0
0.016463 -0.000110 0
-0.002956 0.011489 0
-0.030780 0.027739 0
-0.073584 0.040064 0
-0.119799 0.051706 0
-0.158578 0.063945 0
-0.193875 0.071280 0
-0.227416 0.072849 0
-0.258468 0.070652 0
-0.286474 0.065926 0
-0.311114 0.059643 0
-0.332257 0.052535 0
-0.349825 0.045047 0
-0.363906 0.037416 0
-0.374594 0.029805 0
-0.381992 0.022282 0
-0.386186 0.014858 0
-0.387229 0.007501 0
-0.385143 0.000143 0
-0.379850 -0.007325 0
-0.371374 -0.014971 0
-0.359713 -0.022867 0
-0.344726 -0.031097 0
-0.326256 -0.039672 0
-0.304142 -0.048553 0
-0.278256 -0.057584 0
-0.248471 -0.066523 0
-0.214890 -0.074942 0
-0.177845 -0.082046 0
-0.138130 -0.086505 0
-0.097307 -0.086074 0
-0.058123 -0.076920 0
-0.021520 -0.052942 0
0.007915 -0.008890 0
0.016323 0.027328 0
0.007378 0.033689 0
0.000000 0.015634 0
0.000000 -0.021226 0
0.009316 -0.037382 0
0.005795 -0.020670 0
-0.011002 0.006566 0
-0.038562 0.031349 0
-0.075499 0.049797 0
-0.113612 0.067371 0
-0.151972 0.081335 0
-0.190462 0.091746 0
-0.225041 0.099530 0
-0.254868 0.102814 0
-0.281124 0.101148 0
-0.304135 0.095724 0
-0.324092 0.087738 0
-0.341148 0.078220 0
-0.355440 0.067935 0
-0.367061 0.057367 0
-0.376131 0.046790 0
-0.382739 0.036349 0
-0.386952 0.026087 0
-0.388801 0.015981 0
-0.388290 0.005956 0
-0.385391 -0.004105 0
-0.380052 -0.014303 0
-0.372236 -0.024751 0
-0.361816 -0.035585 0
-0.348674 -0.046892 0
-0.332665 -0.058703 0
-0.313642 -0.070968 0
-0.291470 -0.083512 0
-0.266036 -0.095992 0
-0.237358 -0.107784 0
-0.205621 -0.117798 0
-0.171280 -0.124235 0
-0.135176 -0.124233 0
-0.098565 -0.113454 0
-0.062850 -0.086014 0
-0.028903 -0.035173 0
0.001253 0.018657 0
-0.000010 0.037249 0
0.000000 0.017072 0
0.000000 -0.022793 0
-0.008953 -0.032034 0
-0.032773 0.002276 0
-0.063815 0.037604 0
-0.095285 0.064387 0
-0.130411 0.086540 0
-0.165896 0.104211 0
-0.199635 0.116914 0
-0.231264 0.124775 0
-0.259106 0.128351 0
-0.282560 0.127363 0
-0.302337 0.122117 0
-0.319052 0.113620 0
-0.333195 0.102938 0
-0.345109 0.090991 0
-0.355013 0.078448 0
-0.363025 0.065738 0
-0.369222 0.053095 0
-0.373636 0.040626 0
-0.376272 0.028343 0
-0.377115 0.016197 0
-0.376129 0.004091 0
-0.373274 -0.008095 0
-0.368519 -0.020480 0
-0.361782 -0.033208 0
-0.352972 -0.046430 0
-0.341984 -0.060247 0
-0.328698 -0.074703 0
-0.312989 -0.089748 0
-0.294729 -0.105191 0
-0.273809 -0.120635 0
-0.250167 -0.135357 0
-0.223809 -0.148124 0
-0.194818 -0.156950 0
-0.163361 -0.158789 0
-0.129623 -0.149246 0
-0.093679 -0.122604 0
-0.055490 -0.072992 0
-0.015327 -0.001565 0
-0.002974 0.034941 0
0.000000 0.015624 0
0.000000 -0.012273 0
-0.029554 -0.004608 0
-0.064519 0.034192 0
-0.096957 0.069077 0
-0.130355 0.097944 0
-0.163564 0.120408 0
-0.195220 0.136595 0
-0.224084 0.146703 0
-0.249756 0.151217 0
-0.271644 0.150826 0
-0.289718 0.146045 0
-0.304578 0.137639 0
-0.316850 0.126581 0
-0.327048 0.113795 0
-0.335522 0.100038 0
-0.342478 0.085851 0
-0.348022 0.071576 0
-0.352204 0.057401 0
-0.355040 0.043399 0
-0.356526 0.029566 0
-0.356646 0.015838 0
-0.355371 0.002116 0
-0.352666 -0.011716 0
-0.348532 -0.025795 0
-0.342882 -0.040298 0
-0.335646 -0.055383 0
-0.326735 -0.071166 0
-0.316052 -0.087699 0
-0.303489 -0.104937 0
-0.288932 -0.122691 0
-0.272264 -0.140554 0
-0.253362 -0.157784 0
-0.232081 -0.173146 0
-0.208218 -0.184682 0
-0.181447 -0.189428 0
-0.151251 -0.183136 0
-0.116912 -0.160147 0
-0.077810 -0.113525 0
-0.034647 -0.033860 0
0.004447 0.021922 0
0.000000 0.014098 0
0.000000 0.006761 0
-0.039927 0.032485 0
-0.078338 0.069679 0
-0.114292 0.103440 0
-0.148069 0.130995 0
-0.179272 0.151405 0
-0.207381 0.164731 0
-0.231926 0.171450 0
-0.252827 0.172334 0
-0.270097 0.168313 0
-0.284066 0.160298 0
-0.295309 0.149248 0
-0.304386 0.136090 0
-0.311745 0.121611 0
-0.317694 0.106421 0
-0.322421 0.090948 0
-0.326036 0.075463 0
-0.328602 0.060113 0
-0.330153 0.044948 0
-0.330702 0.029949 0
-0.330252 0.015042 0
-0.328796 0.000112 0
-0.326318 -0.014934 0
-0.322798 -0.030264 0
-0.318173 -0.046093 0
-0.312382 -0.062576 0
-0.305351 -0.079841 0
-0.296997 -0.097950 0
-0.287224 -0.116868 0
-0.275928 -0.136416 0
-0.262986 -0.156206 0
-0.248239 -0.175540 0
-0.231460 -0.193267 0
-0.212278 -0.207584 0
-0.190087 -0.215756 0
-0.163952 -0.213781 0
-0.132619 -0.196045 0
-0.094807 -0.155257 0
-0.049866 -0.083822 0
0.003320 0.000294 0
0.000000 0.020071 0
0.000000 0.027654 0
-0.041915 0.073730 0
-0.083122 0.108557 0
-0.120186 0.138808 0
-0.153284 0.162924 0
-0.182362 0.179720 0
-0.207377 0.189249 0
-0.228369 0.192149 0
-0.245587 0.189388 0
-0.259389 0.182066 0
-0.270276 0.171257 0
-0.278801 0.157959 0
-0.285454 0.143017 0
-0.290622 0.127103 0
-0.294582 0.110714 0
-0.297525 0.094194 0
-0.299582 0.077758 0
-0.300840 0.061517 0
-0.301360 0.045498 0
-0.301177 0.029665 0
-0.300314 0.013932 0
-0.298777 -0.001818 0
-0.296569 -0.017713 0
-0.293637 -0.033940 0
-0.289945 -0.050714 0
-0.285437 -0.068205 0
-0.280046 -0.086552 0
-0.273695 -0.105826 0
-0.266293 -0.126006 0
-0.257737 -0.146930 0
-0.247897 -0.168243 0
-0.236604 -0.189310 0
-0.223603 -0.209108 0
-0.208476 -0.226055 0
-0.190532 -0.237753 0
-0.168680 -0.240604 0
-0.141388 -0.229293 0
-0.106950 -0.196278 0
-0.064559 -0.131986 0
-0.017561 -0.027944 0
0.000000 0.017418 0
0.000000 0.048675 0
-0.041155 0.115607 0
-0.082223 0.147951 0
-0.118548 0.173602 0
-0.150096 0.193171 0
-0.176912 0.205499 0
-0.199200 0.210737 0
-0.217292 0.209659 0
-0.231654 0.203355 0
-0.242816 0.193003 0
-0.251340 0.179709 0
-0.257748 0.164426 0
-0.262484 0.147911 0
-0.265897 0.130738 0
-0.268257 0.113324 0
-0.269769 0.095948 0
-0.270585 0.078779 0
-0.270816 0.061891 0
-0.270544 0.045286 0
-0.269822 0.028903 0
-0.268683 0.012641 0
-0.267144 -0.003633 0
-0.265204 -0.020074 0
-0.262823 -0.036888 0
-0.259966 -0.054294 0
-0.256578 -0.072475 0
-0.252595 -0.091583 0
-0.247936 -0.111702 0
-0.242508 -0.132826 0
-0.236197 -0.154813 0
-0.228867 -0.177339 0
-0.220343 -0.199834 0
-0.210375 -0.221395 0
-0.198576 -0.240655 0
-0.184310 -0.255553 0
-0.166562 -0.262925 0
-0.143839 -0.257775 0
-0.114366 -0.232086 0
-0.077121 -0.173210 0
-0.034885 -0.064265 0
0.000000 0.002510 0
0.000000 0.068809 0
-0.038737 0.155953 0
-0.077864 0.185950 0
-0.112218 0.206681 0
-0.141587 0.221289 0
-0.166026 0.228825 0
-0.185842 0.229629 0
-0.201503 0.224602 0
-0.213580 0.214912 0
-0.222662 0.201752 0
-0.229312 0.186189 0
-0.234026 0.169102 0
-0.237213 0.151166 0
-0.239210 0.132877 0
-0.240290 0.114586 0
-0.240667 0.096521 0
-0.240511 0.078805 0
-0.239952 0.061476 0
-0.239085 0.044504 0
-0.237976 0.027805 0
-0.236667 0.011254 0
-0.235180 -0.005297 0
-0.233516 -0.022033 0
-0.231644 -0.039178 0
-0.229524 -0.056959 0
-0.227104 -0.075577 0
-0.224314 -0.095194 0
-0.221071 -0.115913 0
-0.217269 -0.137745 0
-0.212784 -0.160571 0
-0.207465 -0.184096 0
-0.201126 -0.207802 0
-0.193531 -0.230875 0
-0.184338 -0.252121 0
-0.173021 -0.269767 0
-0.158722 -0.281075 0
-0.140089 -0.281488 0
-0.115226 -0.262995 0
-0.082199 -0.211468 0
-0.041017 -0.105065 0
0.000000 -0.017467 0
0.000000 0.087412 0
-0.035299 0.193472 0
-0.071483 0.221431 0
-0.103134 0.237324 0
-0.129937 0.246979 0
-0.151931 0.249754 0
-0.169450 0.246215 0
-0.183001 0.237397 0
-0.193172 0.224513 0
-0.200551 0.208736 0
-0.205674 0.191074 0
-0.209006 0.172326 0
-0.210939 0.153095 0
-0.211800 0.133815 0
-0.211863 0.114780 0
-0.211355 0.096170 0
-0.210453 0.078064 0
-0.209299 0.060465 0
-0.207999 0.043309 0
-0.206628 0.026485 0
-0.205235 0.009845 0
-0.203844 -0.006783 0
-0.202458 -0.023610 0
-0.201045 -0.040881 0
-0.199565 -0.058834 0
-0.197964 -0.077686 0
-0.196169 -0.097616 0
-0.194089 -0.118747 0
-0.191613 -0.141112 0
-0.188600 -0.164617 0
-0.184885 -0.188997 0
-0.180272 -0.213768 0
-0.174525 -0.238184 0
-0.167341 -0.261165 0
-0.158290 -0.281169 0
-0.146685 -0.295857 0
-0.131355 -0.301271 0
-0.110380 -0.289976 0
-0.081129 -0.247419 0
-0.041892 -0.146464 0
0.000000 -0.038507 0
0.000000 0.104108 0
-0.031295 0.227436 0
-0.064016 0.253784 0
-0.092583 0.265134 0
-0.116625 0.270086 0
-0.136164 0.268338 0
-0.151520 0.260699 0
-0.163183 0.248325 0
-0.171711 0.232462 0
-0.177653 0.214254 0
-0.181508 0.194645 0
-0.183709 0.174367 0
-0.184631 0.153959 0
-0.184594 0.133802 0
-0.183872 0.114141 0
-0.182691 0.095111 0
-0.181237 0.076750 0
-0.179658 0.059022 0
-0.178065 0.041833 0
-0.176539 0.025040 0
-0.175132 0.008470 0
-0.173869 -0.008074 0
-0.172750 -0.024832 0
-0.171741 -0.042071 0
-0.170800 -0.060041 0
-0.169871 -0.078973 0
-0.168877 -0.099068 0
-0.167727 -0.120469 0
-0.166301 -0.143234 0
-0.164452 -0.167298 0
-0.162003 -0.192424 0
-0.158749 -0.218162 0
-0.154451 -0.243807 0
-0.148828 -0.268355 0
-0.141519 -0.290423 0
-0.131983 -0.308010 0
-0.119275 -0.317793 0
-0.101654 -0.313222 0
-0.076290 -0.279955 0
-0.040500 -0.186194 0
0.000000 -0.059359 0
0.000000 0.118707 0
-0.027031 0.257488 0
-0.056064 0.282720 0
-0.081398 0.289933 0
-0.102622 0.290560 0
-0.119747 0.284649 0
-0.133060 0.273234 0
-0.143005 0.257588 0
-0.150085 0.238983 0
-0.154796 0.218533 0
-0.157593 0.197130 0
-0.158877 0.175449 0
-0.159002 0.153980 0
-0.158280 0.133056 0
-0.156977 0.112877 0
-0.155318 0.093535 0
-0.153487 0.075031 0
-0.151634 0.057293 0
-0.149872 0.040190 0
-0.148283 0.023552 0
-0.146919 0.007175 0
-0.145801 -0.009166 0
-0.144925 -0.025738 0
-0.144256 -0.042830 0
-0.143749 -0.060704 0
-0.143344 -0.079609 0
-0.142967 -0.099759 0
-0.142523 -0.121324 0
-0.141893 -0.144388 0
-0.140928 -0.168915 0
-0.139451 -0.194699 0
-0.137253 -0.221320 0
-0.134097 -0.248105 0
-0.129715 -0.274097 0
-0.123790 -0.298014 0
-0.115894 -0.318100 0
-0.105308 -0.331600 0
-0.090604 -0.332962 0
-0.069099 -0.308573 0
-0.037511 -0.222753 0
0.000000 -0.079007 0
0.000000 0.131139 0
-0.022698 0.283500 0
-0.047999 0.308152 0
-0.070094 0.311692 0
-0.088537 0.308435 0
-0.103331 0.298776 0
-0.114722 0.283956 0
-0.123094 0.265349 0
-0.128889 0.244254 0
-0.132544 0.221762 0
-0.134466 0.198725 0
-0.135023 0.175776 0
-0.134549 0.153363 0
-0.133337 0.131776 0
-0.131643 0.111179 0
-0.129685 0.091621 0
-0.127640 0.073066 0
-0.125652 0.055407 0
-0.123830 0.038482 0
-0.122253 0.022086 0
-0.120969 0.005987 0
-0.119999 -0.010068 0
-0.119331 -0.026377 0
-0.118929 -0.043247 0
-0.118747 -0.060952 0
-0.118724 -0.079755 0
-0.118785 -0.099889 0
-0.118839 -0.121543 0
-0.118770 -0.144829 0
-0.118437 -0.169739 0
-0.117670 -0.196099 0
-0.116268 -0.223516 0
-0.114006 -0.251345 0
-0.110631 -0.278663 0
-0.105861 -0.304245 0
-0.099349 -0.326492 0
-0.090570 -0.343082 0
-0.078452 -0.349430 0
-0.060668 -0.333048 0
-0.033640 -0.255293 0
0.000000 -0.096871 0
0.000000 0.141405 0
-0.018405 0.305487 0
-0.040033 0.330116 0
-0.058969 0.330472 0
-0.074726 0.323797 0
-0.087300 0.310833 0
-0.096893 0.292996 0
-0.103831 0.271755 0
-0.108489 0.248433 0
-0.111246 0.224110 0
-0.112462 0.199609 0
-0.112470 0.175533 0
-0.111577 0.152294 0
-0.110057 0.130150 0
-0.108149 0.109225 0
-0.106056 0.089532 0
-0.103944 0.070998 0
-0.101944 0.053482 0
-0.100155 0.036791 0
-0.098649 0.020692 0
-0.097471 0.004921 0
-0.096638 -0.010804 0
-0.096133 -0.026808 0
-0.095922 -0.043414 0
-0.095956 -0.060910 0
-0.096175 -0.079570 0
-0.096508 -0.099645 0
-0.096868 -0.121339 0
-0.097149 -0.144789 0
-0.097221 -0.170015 0
-0.096932 -0.196869 0
-0.096101 -0.224984 0
-0.094526 -0.253741 0
-0.091982 -0.282242 0
-0.088218 -0.309296 0
-0.082951 -0.333391 0
-0.075803 -0.352497 0
-0.066029 -0.362863 0
-0.051757 -0.353385 0
-0.029353 -0.283422 0
0.000000 -0.112647 0
0.000000 0.149544 0
-0.014199 0.323533 0
-0.032267 0.348716 0
-0.048170 0.346385 0
-0.061366 0.336766 0
-0.071846 0.320943 0
-0.079772 0.300487 0
-0.085410 0.276945 0
-0.089071 0.251669 0
-0.091079 0.225734 0
-0.091744 0.199949 0
-0.091366 0.174891 0
-0.090221 0.150950 0
-0.088558 0.128349 0
-0.086595 0.107178 0
-0.084513 0.087416 0
-0.082461 0.068954 0
-0.080552 0.051618 0
-0.078872 0.035187 0
-0.077483 0.019403 0
-0.076422 0.003976 0
-0.075706 -0.011406 0
-0.075316 -0.027093 0
-0.075218 -0.043424 0
-0.075364 -0.060699 0
-0.075697 -0.079202 0
-0.076150 -0.099196 0
-0.076645 -0.120902 0
-0.077089 -0.144475 0
-0.077370 -0.169956 0
-0.077360 -0.197220 0
-0.076910 -0.225922 0
-0.075851 -0.255464 0
-0.073997 -0.284972 0
-0.071136 -0.313276 0
-0.067040 -0.338907 0
-0.061438 -0.360004 0
-0.053843 -0.373477 0
-0.042850 -0.369725 0
-0.024957 -0.307050 0
0.000000 -0.126223 0
0.000000 0.155604 0
-0.010092 0.337754 0
-0.024726 0.364087 0
-0.037737 0.359570 0
-0.048508 0.347474 0
-0.057026 0.329239 0
-0.063413 0.306560 0
-0.067880 0.281054 0
-0.070678 0.254102 0
-0.072075 0.226783 0
-0.072335 0.199897 0
-0.071719 0.174009 0
-0.070470 0.149486 0
-0.068807 0.126524 0
-0.066922 0.105180 0
-0.064972 0.085398 0
-0.063082 0.067037 0
-0.061345 0.049894 0
-0.059831 0.033722 0
-0.058589 0.018242 0
-0.057651 0.003145 0
-0.057030 -0.011910 0
-0.056708 -0.027296 0
-0.056651 -0.043366 0
-0.056814 -0.060431 0
-0.057144 -0.078784 0
-0.057583 -0.098697 0
-0.058065 -0.120401 0
-0.058512 -0.144064 0
-0.058838 -0.169744 0
-0.058943 -0.197329 0
-0.058718 -0.226493 0
-0.058038 -0.256654 0
-0.056763 -0.286957 0
-0.054731 -0.316253 0
-0.051765 -0.343090 0
-0.047673 -0.365694 0
-0.042154 -0.381451 0
-0.034218 -0.382271 0
-0.020635 -0.326271 0
0.000000 -0.137604 0
0.000000 0.159636 0
-0.006072 0.348259 0
-0.017387 0.376361 0
-0.027639 0.370167 0
-0.036117 0.356055 0
-0.042798 0.335848 0
-0.047768 0.311341 0
-0.051185 0.284210 0
-0.053243 0.255864 0
-0.054154 0.227391 0
-0.054139 0.199593 0
-0.053413 0.173026 0
-0.052185 0.148037 0
-0.050641 0.124801 0
-0.048940 0.103343 0
-0.047214 0.083576 0
-0.045560 0.065326 0
-0.044053 0.048367 0
-0.042743 0.032431 0
-0.041668 0.017223 0
-0.040853 0.002418 0
-0.040306 -0.012348 0
-0.040008 -0.027472 0
-0.039926 -0.043319 0
-0.040021 -0.060206 0
-0.040248 -0.078433 0
-0.040560 -0.098276 0
-0.040905 -0.119974 0
-0.041227 -0.143702 0
-0.041465 -0.169525 0
-0.041558 -0.197339 0
-0.041440 -0.226826 0
-0.041037 -0.257419 0
-0.040261 -0.288279 0
-0.039005 -0.318275 0
-0.037144 -0.345965 0
-0.034550 -0.369615 0
-0.031045 -0.386931 0
-0.025978 -0.391244 0
-0.016470 -0.341268 0
0.000000 -0.146858 0
0.000000 0.161676 0
-0.002146 0.355141 0
-0.010186 0.385654 0
-0.017791 0.378301 0
-0.024092 0.362633 0
-0.029048 0.340890 0
-0.032711 0.314946 0
-0.035186 0.286529 0
-0.036612 0.257072 0
-0.037150 0.227679 0
-0.036968 0.199156 0
-0.036240 0.172056 0
-0.035133 0.146713 0
-0.033798 0.123279 0
-0.032360 0.101753 0
-0.030921 0.082018 0
-0.029554 0.063876 0
-0.028312 0.047076 0
-0.027231 0.031338 0
-0.026334 0.016352 0
-0.025637 0.001783 0
-0.025140 -0.012755 0
-0.024820 -0.027676 0
-0.024654 -0.043353 0
-0.024607 -0.060109 0
-0.024648 -0.078245 0
-0.024741 -0.098039 0
-0.024853 -0.119734 0
-0.024950 -0.143504 0
-0.025005 -0.169413 0
-0.024996 -0.197354 0
-0.024905 -0.227014 0
-0.024712 -0.257833 0
-0.024384 -0.288990 0
-0.023871 -0.319370 0
-0.023106 -0.347544 0
-0.022010 -0.371793 0
-0.020487 -0.390024 0
-0.018138 -0.396846 0
-0.012486 -0.352249 0
0.000000 -0.154074 0
0.000000 0.161782 0
0.001646 0.358445 0
-0.003014 0.392006 0
-0.008067 0.384073 0
-0.012294 0.367312 0
-0.015615 0.344467 0
-0.018060 0.317478 0
-0.019685 0.288112 0
-0.020572 0.257828 0
-0.020826 0.227747 0
-0.020567 0.198684 0
-0.019920 0.171191 0
-0.019010 0.145595 0
-0.017947 0.122028 0
-0.016824 0.100467 0
-0.015711 0.080769 0
-0.014658 0.062718 0
-0.013701 0.046044 0
-0.012858 0.030453 0
-0.012142 0.015629 0
-0.011552 0.001223 0
-0.011069 -0.013165 0
-0.010681 -0.027958 0
-0.010374 -0.043532 0
-0.010125 -0.060212 0
-0.009914 -0.078299 0
-0.009720 -0.098070 0
-0.009530 -0.119765 0
-0.009337 -0.143551 0
-0.009148 -0.169480 0
-0.008986 -0.197439 0
-0.008881 -0.227110 0
-0.008867 -0.257940 0
-0.008968 -0.289119 0
-0.009189 -0.319553 0
-0.009519 -0.347827 0
-0.009931 -0.372234 0
-0.010379 -0.390803 0
-0.010643 -0.399244 0
-0.008664 -0.359407 0
0.000000 -0.159344 0
0.000000 0.160030 0
0.005353 0.358155 0
0.004192 0.395367 0
0.001674 0.387580 0
-0.000539 0.370182 0
-0.002296 0.346656 0
-0.003595 0.319016 0
-0.004441 0.289040 0
-0.004860 0.258213 0
-0.004902 0.227674 0
-0.004631 0.198250 0
-0.004125 0.170499 0
-0.003461 0.144740 0
-0.002711 0.121094 0
-0.001931 0.099517 0
-0.001160 0.079852 0
-0.000427 0.061867 0
0.000254 0.045277 0
0.000875 0.029778 0
0.001435 0.015046 0
0.001935 0.000710 0
0.002436 -0.013626 0
0.002932 -0.028371 0
0.003423 -0.043910 0
0.003920 -0.060569 0
0.004429 -0.078650 0
0.004953 -0.098423 0
0.005484 -0.120118 0
0.005998 -0.143886 0
0.006450 -0.169764 0
0.006776 -0.197621 0
0.006895 -0.227132 0
0.006723 -0.257747 0
0.006185 -0.288668 0
0.005217 -0.318818 0
0.003778 -0.346803 0
0.001847 -0.370933 0
-0.000578 -0.389311 0
-0.003392 -0.398561 0
-0.004955 -0.362892 0
0.000000 -0.162739 0
0.000000 0.156429 0
0.009086 0.354253 0
0.011502 0.395685 0
0.011560 0.388804 0
0.011348 0.371281 0
0.011114 0.347524 0
0.010918 0.319623 0
0.010805 0.289377 0
0.010807 0.258289 0
0.010933 0.227517 0
0.011173 0.197907 0
0.011503 0.170021 0
0.011893 0.144182 0
0.012313 0.120498 0
0.012745 0.098916 0
0.013177 0.079265 0
0.013605 0.061303 0
0.014035 0.044742 0
0.014469 0.029272 0
0.014921 0.014569 0
0.015399 0.000223 0
0.015942 -0.014162 0
0.016565 -0.028946 0
0.017265 -0.044521 0
0.018034 -0.061217 0
0.018864 -0.079331 0
0.019737 -0.099125 0
0.020619 -0.120810 0
0.021453 -0.144517 0
0.022157 -0.170258 0
0.022622 -0.197884 0
0.022724 -0.227058 0
0.022329 -0.257230 0
0.021311 -0.287613 0
0.019555 -0.317145 0
0.016966 -0.344457 0
0.013477 -0.367879 0
0.009053 -0.385564 0
0.003740 -0.394867 0
-0.001278 -0.362798 0
0.000000 -0.164299 0
0.000000 0.150944 0
0.012924 0.346654 0
0.019041 0.392892 0
0.021739 0.387734 0
0.023514 0.370628 0
0.024789 0.347087 0
0.025681 0.319324 0
0.026287 0.289151 0
0.026695 0.258086 0
0.026976 0.227308 0
0.027176 0.197680 0
0.027326 0.169779 0
0.027446 0.143930 0
0.027551 0.120241 0
0.027655 0.098653 0
0.027776 0.078992 0
0.027930 0.061009 0
0.028139 0.044413 0
0.028422 0.028891 0
0.028806 0.014116 0
0.029319 -0.000311 0
0.029946 -0.014792 0
0.030723 -0.029694 0
0.031646 -0.045379 0
0.032699 -0.062169 0
0.033855 -0.080353 0
0.035073 -0.100177 0
0.036291 -0.121833 0
0.037419 -0.145424 0
0.038336 -0.170933 0
0.038893 -0.198188 0
0.038920 -0.226839 0
0.038238 -0.256334 0
0.036673 -0.285894 0
0.034060 -0.314473 0
0.030252 -0.340725 0