# vtk DataFile Version 2.0
generated by CFD-lab course output (written by Tobias Neckel) 
ASCII

DATASET STRUCTURED_GRID
DIMENSIONS  41 41 1 
POINTS 1681 float

0.150000 0.150000 0
0.167857 0.150000 0
0.185714 0.150000 0
0.203571 0.150000 0
0.221429 0.150000 0
0.239286 0.150000 0
0.257143 0.150000 0
0.275000 0.150000 0
0.292857 0.150000 0
0.310714 0.150000 0
0.328571 0.150000 0
0.346429 0.150000 0
0.364286 0.150000 0
0.382143 0.150000 0
0.400000 0.150000 0
0.417857 0.150000 0
0.435714 0.150000 0
0.453571 0.150000 0
0.471429 0.150000 0
0.489286 0.150000 0
0.507143 0.150000 0
0.525000 0.150000 0
0.542857 0.150000 0
0.560714 0.150000 0
0.578571 0.150000 0
0.596429 0.150000 0
0.614286 0.150000 0
0.632143 0.150000 0
0.650000 0.150000 0
0.667857 0.150000 0
0.685714 0.150000 0
0.703571 0.150000 0
0.721429 0.150000 0
0.739286 0.150000 0
0.757143 0.150000 0
0.775000 0.150000 0
0.792857 0.150000 0
0.810714 0.150000 0
0.828571 0.150000 0
0.846429 0.150000 0
0.864286 0.150000 0
0.150000 0.167857 0
0.167857 0.167857 0
0.185714 0.167857 0
0.203571 0.167857 0
0.221429 0.167857 0
0.239286 0.167857 0
0.257143 0.167857 0
0.275000 0.167857 0
0.292857 0.167857 0
0.310714 0.167857 0
0.328571 0.167857 0
0.346429 0.167857 0
0.364286 0.167857 0
0.382143 0.167857 0
0.400000 0.167857 0
0.417857 0.167857 0
0.435714 0.167857 0
0.453571 0.167857 0
0.471429 0.167857 0
0.489286 0.167857 0
0.507143 0.167857 0
0.525000 0.167857 0
0.542857 0.167857 0
0.560714 0.167857 0
0.578571 0.167857 0
0.596429 0.167857 0
0.614286 0.167857 0
0.632143 0.167857 0
0.650000 0.167857 0
0.667857 0.167857 0
0.685714 0.167857 0
0.703571 0.167857 0
0.721429 0.167857 0
0.739286 0.167857 0
0.757143 0.167857 0
0.775000 0.167857 0
0.792857 0.167857 0
0.810714 0.167857 0
0.828571 0.167857 0
0.846429 0.167857 0
0.864286 0.167857 0
0.150000 0.185714 0
0.167857 0.185714 0
0.185714 0.185714 0
0.203571 0.185714 0
0.221429 0.185714 0
0.239286 0.185714 0
0.257143 0.185714 0
0.275000 0.185714 0
0.292857 0.185714 0
0.310714 0.185714 0
0.328571 0.185714 0
0.346429 0.185714 0
0.364286 0.185714 0
0.382143 0.185714 0
0.400000 0.185714 0
0.417857 0.185714 0
0.435714 0.185714 0
0.453571 0.185714 0
0.471429 0.185714 0
0.489286 0.185714 0
0.507143 0.185714 0
0.525000 0.185714 0
0.542857 0.185714 0
0.560714 0.185714 0
0.578571 0.185714 0
0.596429 0.185714 0
0.614286 0.185714 0
0.632143 0.185714 0
0.650000 0.185714 0
0.667857 0.185714 0
0.685714 0.185714 0
0.703571 0.185714 0
0.721429 0.185714 0
0.739286 0.185714 0
0.757143 0.185714 0
0.775000 0.185714 0
0.792857 0.185714 0
0.810714 0.185714 0
0.828571 0.185714 0
0.846429 0.185714 0
0.864286 0.185714 0
0.150000 0.203571 0
0.167857 0.203571 0
0.185714 0.203571 0
0.203571 0.203571 0
0.221429 0.203571 0
0.239286 0.203571 0
0.257143 0.203571 0
0.275000 0.203571 0
0.292857 0.203571 0
0.310714 0.203571 0
0.328571 0.203571 0
0.346429 0.203571 0
0.364286 0.203571 0
0.382143 0.203571 0
0.400000 0.203571 0
0.417857 0.203571 0
0.435714 0.203571 0
0.453571 0.203571 0
0.471429 0.203571 0
0.489286 0.203571 0
0.507143 0.203571 0
0.525000 0.203571 0
0.542857 0.203571 0
0.560714 0.203571 0
0.578571 0.203571 0
0.596429 0.203571 0
0.614286 0.203571 0
0.632143 0.203571 0
0.650000 0.203571 0
0.667857 0.203571 0
0.685714 0.203571 0
0.703571 0.203571 0
0.721429 0.203571 0
0.739286 0.203571 0
0.757143 0.203571 0
0.775000 0.203571 0
0.792857 0.203571 0
0.810714 0.203571 0
0.828571 0.203571 0
0.846429 0.203571 0
0.864286 0.203571 0
0.150000 0.221429 0
0.167857 0.221429 0
0.185714 0.221429 0
0.203571 0.221429 0
0.221429 0.221429 0
0.239286 0.221429 0
0.257143 0.221429 0
0.275000 0.221429 0
0.292857 0.221429 0
0.310714 0.221429 0
0.328571 0.221429 0
0.346429 0.221429 0
0.364286 0.221429 0
0.382143 0.221429 0
0.400000 0.221429 0
0.417857 0.221429 0
0.435714 0.221429 0
0.453571 0.221429 0
0.471429 0.221429 0
0.489286 0.221429 0
0.507143 0.221429 0
0.525000 0.221429 0
0.542857 0.221429 0
0.560714 0.221429 0
0.578571 0.221429 0
0.596429 0.221429 0
0.614286 0.221429 0
0.632143 0.221429 0
0.650000 0.221429 0
0.667857 0.221429 0
0.685714 0.221429 0
0.703571 0.221429 0
0.721429 0.221429 0
0.739286 0.221429 0
0.757143 0.221429 0
0.775000 0.221429 0
0.792857 0.221429 0
0.810714 0.221429 0
0.828571 0.221429 0
0.846429 0.221429 0
0.864286 0.221429 0
0.150000 0.239286 0
0.167857 0.239286 0
0.185714 0.239286 0
0.203571 0.239286 0
0.221429 0.239286 0
0.239286 0.239286 0
0.257143 0.239286 0
0.275000 0.239286 0
0.292857 0.239286 0
0.310714 0.239286 0
0.328571 0.239286 0
0.346429 0.239286 0
0.364286 0.239286 0
0.382143 0.239286 0
0.400000 0.239286 0
0.417857 0.239286 0
0.435714 0.239286 0
0.453571 0.239286 0
0.471429 0.239286 0
0.489286 0.239286 0
0.507143 0.239286 0
0.525000 0.239286 0
0.542857 0.239286 0
0.560714 0.239286 0
0.578571 0.239286 0
0.596429 0.239286 0
0.614286 0.239286 0
0.632143 0.239286 0
0.650000 0.239286 0
0.667857 0.239286 0
0.685714 0.239286 0
0.703571 0.239286 0
0.721429 0.239286 0
0.739286 0.239286 0
0.757143 0.239286 0
0.775000 0.239286 0
0.792857 0.239286 0
0.810714 0.239286 0
0.828571 0.239286 0
0.846429 0.239286 0
0.864286 0.239286 0
0.150000 0.257143 0
0.167857 0.257143 0
0.185714 0.257143 0
0.203571 0.257143 0
0.221429 0.257143 0
0.239286 0.257143 0
0.257143 0.257143 0
0.275000 0.257143 0
0.292857 0.257143 0
0.310714 0.257143 0
0.328571 0.257143 0
0.346429 0.257143 0
0.364286 0.257143 0
0.382143 0.257143 0
0.400000 0.257143 0
0.417857 0.257143 0
0.435714 0.257143 0
0.453571 0.257143 0
0.471429 0.257143 0
0.489286 0.257143 0
0.507143 0.257143 0
0.525000 0.257143 0
0.542857 0.257143 0
0.560714 0.257143 0
0.578571 0.257143 0
0.596429 0.257143 0
0.614286 0.257143 0
0.632143 0.257143 0
0.650000 0.257143 0
0.667857 0.257143 0
0.685714 0.257143 0
0.703571 0.257143 0
0.721429 0.257143 0
0.739286 0.257143 0
0.757143 0.257143 0
0.775000 0.257143 0
0.792857 0.257143 0
0.810714 0.257143 0
0.828571 0.257143 0
0.846429 0.257143 0
0.864286 0.257143 0
0.150000 0.275000 0
0.167857 0.275000 0
0.185714 0.275000 0
0.203571 0.275000 0
0.221429 0.275000 0
0.239286 0.275000 0
0.257143 0.275000 0
0.275000 0.275000 0
0.292857 0.275000 0
0.310714 0.275000 0
0.328571 0.275000 0
0.346429 0.275000 0
0.364286 0.275000 0
0.382143 0.275000 0
0.400000 0.275000 0
0.417857 0.275000 0
0.435714 0.275000 0
0.453571 0.275000 0
0.471429 0.275000 0
0.489286 0.275000 0
0.507143 0.275000 0
0.525000 0.275000 0
0.542857 0.275000 0
0.560714 0.275000 0
0.578571 0.275000 0
0.596429 0.275000 0
0.614286 0.275000 0
0.632143 0.275000 0
0.650000 0.275000 0
0.667857 0.275000 0
0.685714 0.275000 0
0.703571 0.275000 0
0.721429 0.275000 0
0.739286 0.275000 0
0.757143 0.275000 0
0.775000 0.275000 0
0.792857 0.275000 0
0.810714 0.275000 0
0.828571 0.275000 0
0.846429 0.275000 0
0.864286 0.275000 0
0.150000 0.292857 0
0.167857 0.292857 0
0.185714 0.292857 0
0.203571 0.292857 0
0.221429 0.292857 0
0.239286 0.292857 0
0.257143 0.292857 0
0.275000 0.292857 0
0.292857 0.292857 0
0.310714 0.292857 0
0.328571 0.292857 0
0.346429 0.292857 0
0.364286 0.292857 0
0.382143 0.292857 0
0.400000 0.292857 0
0.417857 0.292857 0
0.435714 0.292857 0
0.453571 0.292857 0
0.471429 0.292857 0
0.489286 0.292857 0
0.507143 0.292857 0
0.525000 0.292857 0
0.542857 0.292857 0
0.560714 0.292857 0
0.578571 0.292857 0
0.596429 0.292857 0
0.614286 0.292857 0
0.632143 0.292857 0
0.650000 0.292857 0
0.667857 0.292857 0
0.685714 0.292857 0
0.703571 0.292857 0
0.721429 0.292857 0
0.739286 0.292857 0
0.757143 0.292857 0
0.775000 0.292857 0
0.792857 0.292857 0
0.810714 0.292857 0
0.828571 0.292857 0
0.846429 0.292857 0
0.864286 0.292857 0
0.150000 0.310714 0
0.167857 0.310714 0
0.185714 0.310714 0
0.203571 0.310714 0
0.221429 0.310714 0
0.239286 0.310714 0
0.257143 0.310714 0
0.275000 0.310714 0
0.292857 0.310714 0
0.310714 0.310714 0
0.328571 0.310714 0
0.346429 0.310714 0
0.364286 0.310714 0
0.382143 0.310714 0
0.400000 0.310714 0
0.417857 0.310714 0
0.435714 0.310714 0
0.453571 0.310714 0
0.471429 0.310714 0
0.489286 0.310714 0
0.507143 0.310714 0
0.525000 0.310714 0
0.542857 0.310714 0
0.560714 0.310714 0
0.578571 0.310714 0
0.596429 0.310714 0
0.614286 0.310714 0
0.632143 0.310714 0
0.650000 0.310714 0
0.667857 0.310714 0
0.685714 0.310714 0
0.703571 0.310714 0
0.721429 0.310714 0
0.739286 0.310714 0
0.757143 0.310714 0
0.775000 0.310714 0
0.792857 0.310714 0
0.810714 0.310714 0
0.828571 0.310714 0
0.846429 0.310714 0
0.864286 0.310714 0
0.150000 0.328571 0
0.167857 0.328571 0
0.185714 0.328571 0
0.203571 0.328571 0
0.221429 0.328571 0
0.239286 0.328571 0
0.257143 0.328571 0
0.275000 0.328571 0
0.292857 0.328571 0
0.310714 0.328571 0
0.328571 0.328571 0
0.346429 0.328571 0
0.364286 0.328571 0
0.382143 0.328571 0
0.400000 0.328571 0
0.417857 0.328571 0
0.435714 0.328571 0
0.453571 0.328571 0
0.471429 0.328571 0
0.489286 0.328571 0
0.507143 0.328571 0
0.525000 0.328571 0
0.542857 0.328571 0
0.560714 0.328571 0
0.578571 0.328571 0
0.596429 0.328571 0
0.614286 0.328571 0
0.632143 0.328571 0
0.650000 0.328571 0
0.667857 0.328571 0
0.685714 0.328571 0
0.703571 0.328571 0
0.721429 0.328571 0
0.739286 0.328571 0
0.757143 0.328571 0
0.775000 0.328571 0
0.792857 0.328571 0
0.810714 0.328571 0
0.828571 0.328571 0
0.846429 0.328571 0
0.864286 0.328571 0
0.150000 0.346429 0
0.167857 0.346429 0
0.185714 0.346429 0
0.203571 0.346429 0
0.221429 0.346429 0
0.239286 0.346429 0
0.257143 0.346429 0
0.275000 0.346429 0
0.292857 0.346429 0
0.310714 0.346429 0
0.328571 0.346429 0
0.346429 0.346429 0
0.364286 0.346429 0
0.382143 0.346429 0
0.400000 0.346429 0
0.417857 0.346429 0
0.435714 0.346429 0
0.453571 0.346429 0
0.471429 0.346429 0
0.489286 0.346429 0
0.507143 0.346429 0
0.525000 0.346429 0
0.542857 0.346429 0
0.560714 0.346429 0
0.578571 0.346429 0
0.596429 0.346429 0
0.614286 0.346429 0
0.632143 0.346429 0
0.650000 0.346429 0
0.667857 0.346429 0
0.685714 0.346429 0
0.703571 0.346429 0
0.721429 0.346429 0
0.739286 0.346429 0
0.757143 0.346429 0
0.775000 0.346429 0
0.792857 0.346429 0
0.810714 0.346429 0
0.828571 0.346429 0
0.846429 0.346429 0
[...]
POINT_DATA 1681 

VECTORS velocity float
0.000000 0.000000 0
0.005360 0.000000 0
0.011425 0.000000 0
0.013960 0.000000 0
0.014226 0.000000 0
0.013881 0.000000 0
0.011830 0.000000 0
0.016582 0.000000 0
0.021013 0.000000 0
0.011294 0.000000 0
-0.005843 0.000000 0
-0.025143 0.000000 0
-0.044939 0.000000 0
-0.064178 0.000000 0
-0.082147 0.000000 0
-0.098424 0.000000 0
-0.112854 0.000000 0
-0.125296 0.000000 0
-0.135714 0.000000 0
-0.144099 0.000000 0
-0.150466 0.000000 0
-0.154832 0.000000 0
-0.157199 0.000000 0
-0.157586 0.000000 0
-0.155877 0.000000 0
-0.151934 0.000000 0
-0.145688 0.000000 0
-0.137053 0.000000 0
-0.125950 0.000000 0
-0.112322 0.000000 0
-0.096235 0.000000 0
-0.077756 0.000000 0
-0.057129 0.000000 0
-0.034825 0.000000 0
-0.011637 0.000000 0
0.011192 0.000000 0
0.026666 0.000000 0
0.029971 0.000000 0
0.022449 0.000000 0
0.010520 0.000000 0
0.000000 0.000000 0
0.000000 -0.005360 0
0.014761 -0.011425 0
0.027630 -0.008599 0
0.033031 -0.002801 0
0.033360 0.000079 0
0.033552 0.002396 0
0.024584 -0.002701 0
0.006362 -0.009183 0
-0.017153 0.005288 0
-0.047887 0.026856 0
-0.084741 0.036437 0
-0.123653 0.039096 0
-0.162152 0.039035 0
-0.198576 0.037208 0
-0.231871 0.034246 0
-0.261442 0.030707 0
-0.287026 0.026872 0
-0.308504 0.022859 0
-0.325872 0.018802 0
-0.339179 0.014752 0
-0.348494 0.010734 0
-0.353874 0.006733 0
-0.355346 0.002754 0
-0.352895 -0.001322 0
-0.346449 -0.005652 0
-0.335923 -0.010188 0
-0.321173 -0.014882 0
-0.302042 -0.019738 0
-0.278379 -0.024730 0
-0.250083 -0.029715 0
-0.217171 -0.034567 0
-0.179808 -0.039107 0
-0.138466 -0.042931 0
-0.094136 -0.045492 0
-0.048668 -0.046017 0
-0.005393 -0.038303 0
0.029732 -0.018779 0
0.046624 0.004217 0
0.036223 0.019452 0
0.016937 0.022449 0
0.000000 0.010520 0
0.000000 -0.014761 0
0.018042 -0.027630 0
0.028829 -0.018270 0
0.032362 -0.005730 0
0.021359 -0.000521 0
0.001057 0.008776 0
-0.027043 0.027191 0
-0.071365 0.041737 0
-0.121666 0.054249 0
-0.162940 0.067587 0
-0.200198 0.075766 0
-0.235612 0.077412 0
-0.268449 0.074923 0
-0.298056 0.069719 0
-0.324080 0.062867 0
-0.346371 0.055155 0
-0.364847 0.047061 0
-0.379598 0.038845 0
-0.390721 0.030676 0
-0.398328 0.022623 0
-0.402508 0.014695 0
-0.403323 0.006852 0
-0.400796 -0.000979 0
-0.394866 -0.008898 0
-0.385576 -0.016972 0
-0.372907 -0.025276 0
-0.356728 -0.033881 0
-0.336895 -0.042794 0
-0.313267 -0.051959 0
-0.285745 -0.061208 0
-0.254242 -0.070275 0
-0.218910 -0.078705 0
-0.180151 -0.085672 0
-0.138855 -0.089799 0
-0.096750 -0.088743 0
-0.056939 -0.078400 0
-0.019465 -0.052018 0
0.010132 -0.006492 0
0.016782 0.029687 0
0.007561 0.036223 0
0.000000 0.016937 0
0.000000 -0.023403 0
0.011356 -0.040254 0
0.010352 -0.022918 0
-0.006033 0.004669 0
-0.032783 0.031383 0
-0.072660 0.050799 0
-0.113962 0.069721 0
-0.154584 0.085440 0
-0.195465 0.096863 0
-0.232349 0.105388 0
-0.263986 0.109109 0
-0.291838 0.107347 0
-0.316297 0.101478 0
-0.337548 0.092839 0
-0.355736 0.082562 0
-0.370987 0.071474 0
-0.383386 0.060099 0
-0.393048 0.048734 0
-0.400057 0.037532 0
-0.404477 0.026539 0
-0.406342 0.015729 0
-0.405655 0.005021 0
-0.402391 -0.005703 0
-0.396508 -0.016543 0
-0.387961 -0.027611 0
-0.376629 -0.039036 0
-0.362401 -0.050893 0
-0.345144 -0.063198 0
-0.324729 -0.075881 0
-0.301047 -0.088740 0
-0.274025 -0.101401 0
-0.243731 -0.113198 0
-0.210412 -0.122987 0
-0.174604 -0.128893 0
-0.137245 -0.127932 0
-0.099681 -0.115587 0
-0.063271 -0.085850 0
-0.028435 -0.032030 0
0.000797 0.022023 0
-0.000559 0.039231 0
0.000000 0.018080 0
0.000000 -0.026117 0
-0.007451 -0.037982 0
-0.029307 -0.000881 0
-0.061593 0.037405 0
-0.094455 0.066106 0
-0.131451 0.089955 0
-0.169438 0.109115 0
-0.205338 0.123241 0
-0.238989 0.132013 0
-0.268756 0.136109 0
-0.293823 0.135255 0
-0.315009 0.129722 0
-0.332982 0.120633 0
-0.348252 0.109159 0
-0.361159 0.096306 0
-0.371911 0.082805 0
-0.380618 0.069122 0
-0.387344 0.055516 0
-0.392117 0.042105 0
-0.394940 0.028908 0
-0.395797 0.015872 0
-0.394656 0.002901 0
-0.391470 -0.010126 0
-0.386227 -0.023328 0
-0.378832 -0.036851 0
-0.369198 -0.050835 0
-0.357220 -0.065366 0
-0.342788 -0.080467 0
-0.325790 -0.096057 0
-0.306127 -0.111911 0
-0.283721 -0.127591 0
-0.258556 -0.142318 0
-0.230687 -0.154799 0
-0.200255 -0.162966 0
-0.167471 -0.163666 0
-0.132533 -0.152373 0
-0.095453 -0.123264 0
-0.056099 -0.070560 0
-0.014637 0.001811 0
-0.004155 0.037020 0
0.000000 0.016378 0
0.000000 -0.015952 0
-0.028985 -0.010947 0
-0.064848 0.031224 0
-0.098003 0.069816 0
-0.132831 0.101241 0
-0.167724 0.125781 0
-0.201395 0.143608 0
-0.232167 0.154991 0
-0.259621 0.160281 0
-0.283161 0.160222 0
-0.302678 0.155362 0
-0.318815 0.146506 0
-0.332226 0.134722 0
-0.343437 0.121016 0
-0.352793 0.106221 0
-0.360494 0.090932 0
-0.366637 0.075531 0
-0.371268 0.060233 0
-0.374403 0.045128 0
-0.376040 0.030219 0
-0.376165 0.015444 0
-0.374756 0.000694 0
-0.371782 -0.014132 0
-0.367225 -0.029181 0
-0.361002 -0.044640 0
-0.353037 -0.060648 0
-0.343238 -0.077303 0
-0.331511 -0.094628 0
-0.317761 -0.112541 0
-0.301892 -0.130810 0
-0.283817 -0.148972 0
-0.263451 -0.166232 0
-0.240691 -0.181288 0
-0.215370 -0.192109 0
-0.187182 -0.195654 0
-0.155599 -0.187605 0
-0.119839 -0.162284 0
-0.079177 -0.112846 0
-0.034350 -0.029921 0
0.003491 0.024595 0
0.000000 0.013925 0
0.000000 0.002868 0
-0.040562 0.026866 0
-0.080508 0.068137 0
-0.117621 0.105388 0
-0.152870 0.135826 0
-0.185693 0.158519 0
-0.215559 0.173558 0
-0.241803 0.181467 0
-0.264301 0.183008 0
-0.283042 0.179166 0
-0.298325 0.170909 0
-0.310741 0.159269 0
-0.320858 0.145254 0
-0.329128 0.129726 0
-0.335853 0.113363 0
-0.341220 0.096649 0
-0.345338 0.079896 0
-0.348274 0.063282 0
-0.350067 0.046877 0
-0.350739 0.030670 0
-0.350298 0.014589 0
-0.348739 -0.001483 0
-0.346052 -0.017657 0
-0.342185 -0.034107 0
-0.337081 -0.051039 0
-0.330666 -0.068599 0
-0.322856 -0.086892 0
-0.313565 -0.105944 0
-0.302703 -0.125676 0
-0.290179 -0.145855 0
-0.275894 -0.166031 0
-0.259725 -0.185444 0
-0.241476 -0.202880 0
-0.220807 -0.216475 0
-0.197126 -0.223437 0
-0.169488 -0.219716 0
-0.136605 -0.199685 0
-0.097162 -0.156048 0
-0.050480 -0.080857 0
0.004948 0.002670 0
0.000000 0.019869 0
0.000000 0.024610 0
-0.043789 0.069562 0
-0.086424 0.108283 0
-0.124960 0.142178 0
-0.159621 0.169313 0
-0.190305 0.188470 0
-0.216947 0.199718 0
-0.239502 0.203733 0
-0.258187 0.201519 0
-0.273338 0.194246 0
-0.285442 0.183061 0
-0.295052 0.169040 0
-0.302655 0.153108 0
-0.308635 0.136011 0
-0.313269 0.118313 0
-0.316752 0.100417 0
-0.319220 0.082586 0
-0.320773 0.064962 0
-0.321482 0.047594 0
-0.321396 0.030451 0
-0.320542 0.013444 0
-0.318930 -0.003552 0
-0.316555 -0.020686 0
-0.313361 -0.038151 0
-0.309293 -0.056160 0
-0.304276 -0.074874 0
-0.298228 -0.094404 0
-0.291058 -0.114781 0
-0.282672 -0.135927 0
-0.272974 -0.157618 0
-0.261857 -0.179426 0
-0.249178 -0.200650 0
-0.234716 -0.220206 0
-0.218081 -0.236460 0
-0.198595 -0.246973 0
-0.175161 -0.248126 0
-0.146219 -0.234610 0
-0.110013 -0.198972 0
-0.065632 -0.132031 0
-0.015891 -0.025885 0
0.000000 0.018873 0
0.000000 0.046657 0
-0.043269 0.113290 0
-0.086118 0.149308 0
-0.124138 0.178585 0
-0.157341 0.201171 0
-0.185770 0.215845 0
-0.209623 0.222755 0
-0.229195 0.222707 0
-0.244938 0.216844 0
-0.257367 0.206421 0
-0.267030 0.192622 0
-0.274444 0.176482 0
-0.280041 0.158837 0
-0.284169 0.140341 0
-0.287100 0.121480 0
-0.289045 0.102599 0
-0.290172 0.083917 0
-0.290610 0.065544 0
-0.290460 0.047500 0
-0.289792 0.029730 0
-0.288652 0.012123 0
-0.287060 -0.005469 0
-0.285012 -0.023226 0
-0.282459 -0.041370 0
-0.279339 -0.060124 0
-0.275573 -0.079664 0
-0.271068 -0.100110 0
-0.265722 -0.121500 0
-0.259429 -0.143760 0
-0.252076 -0.166670 0
-0.243544 -0.189827 0
-0.233683 -0.212584 0
-0.222277 -0.233978 0
-0.208968 -0.252596 0
-0.193144 -0.266357 0
-0.173794 -0.272093 0
-0.149416 -0.264833 0
-0.118220 -0.236636 0
-0.079223 -0.174979 0
-0.035542 -0.062961 0
0.000000 0.003978 0
0.000000 0.067879 0
-0.040929 0.155679 0
-0.082012 0.189152 0
-0.118180 0.213401 0
-0.149260 0.230945 0
-0.175315 0.240752 0
-0.196659 0.243143 0
-0.213748 0.239049 0
-0.227146 0.229691 0
-0.237431 0.216338 0
-0.245153 0.200138 0
-0.250792 0.182050 0
-0.254749 0.162834 0
-0.257357 0.143070 0
-0.258891 0.123189 0
-0.259582 0.103490 0
-0.259621 0.084151 0
-0.259165 0.065250 0
-0.258338 0.046775 0
-0.257231 0.028643 0
-0.255905 0.010713 0
-0.254388 -0.007192 0
-0.252681 -0.025287 0
-0.250730 -0.043824 0
-0.248471 -0.063046 0
-0.245812 -0.083145 0
-0.242650 -0.104255 0
-0.238867 -0.126420 0
-0.234336 -0.149573 0
-0.228926 -0.173503 0
-0.222497 -0.197819 0
-0.214890 -0.221917 0
-0.205899 -0.244921 0
-0.195221 -0.265592 0
-0.182359 -0.282148 0
-0.166476 -0.291855 0
-0.146233 -0.290184 0
-0.119747 -0.269164 0
-0.085127 -0.214708 0
-0.042473 -0.105108 0
0.000000 -0.016669 0
0.000000 0.087586 0
-0.037483 0.195303 0
-0.075663 0.226560 0
-0.109156 0.245832 0
-0.137675 0.258306 0
-0.161268 0.263243 0
-0.180279 0.261188 0
-0.195214 0.253194 0
-0.206656 0.240527 0
-0.215179 0.224428 0
-0.221304 0.205984 0
-0.225477 0.186078 0
-0.228079 0.165401 0
-0.229433 0.144482 0
-0.229823 0.123705 0
-0.229495 0.103330 0
-0.228659 0.083500 0
-0.227493 0.064261 0
-0.226142 0.045566 0
-0.224715 0.027297 0
-0.223285 0.009281 0
-0.221886 -0.008693 0
-0.220517 -0.026885 0
-0.219123 -0.045580 0
-0.217630 -0.065042 0
-0.215938 -0.085484 0
-0.213929 -0.107056 0
-0.211469 -0.129814 0
-0.208414 -0.153700 0
-0.204610 -0.178509 0
-0.199898 -0.203863 0
-0.194105 -0.229182 0
-0.187031 -0.253646 0
-0.178412 -0.276137 0
-0.167854 -0.295102 0
-0.154699 -0.308219 0
-0.137798 -0.311563 0
-0.115242 -0.297741 0
-0.084403 -0.252253 0
-0.043541 -0.148089 0
0.000000 -0.038495 0
0.000000 0.105363 0
-0.033405 0.231342 0
-0.068071 0.260825 0
-0.098437 0.275413 0
-0.124151 0.283057 0
-0.145244 0.283356 0
-0.162043 0.277088 0
-0.175039 0.265425 0
-0.184781 0.249656 0
-0.191804 0.230987 0
-0.196585 0.210436 0
-0.199535 0.188825 0
-0.201016 0.166789 0
-0.201347 0.144815 0
-0.200813 0.123252 0
-0.199671 0.102325 0
-0.198146 0.082149 0
-0.196433 0.062733 0
-0.194694 0.043997 0
-0.193050 0.025785 0
-0.191584 0.007883 0
-0.190332 -0.009960 0
-0.189288 -0.028049 0
-0.188393 -0.046711 0
-0.187565 -0.066231 0
-0.186692 -0.086846 0
-0.185646 -0.108723 0
-0.184280 -0.131936 0
-0.182433 -0.156433 0
-0.179939 -0.182018 0
-0.176622 -0.208324 0
-0.172299 -0.234784 0
-0.166767 -0.260614 0
-0.159786 -0.284769 0
-0.151034 -0.305861 0
-0.140003 -0.321911 0
-0.125774 -0.329641 0
-0.106615 -0.322559 0
-0.079684 -0.286410 0
-0.042240 -0.189512 0
0.000000 -0.060210 0
0.000000 0.120990 0
-0.029010 0.263374 0
-0.059878 0.291592 0
-0.086912 0.301912 0
-0.109723 0.305113 0
-0.128326 0.301135 0
-0.143011 0.290982 0
-0.154222 0.275932 0
-0.162449 0.257293 0
-0.168168 0.236232 0
-0.171805 0.213714 0
-0.173738 0.190509 0
-0.174307 0.167213 0
-0.173822 0.144279 0
-0.172567 0.122029 0
-0.170803 0.100663 0
-0.168766 0.080263 0
-0.166661 0.060809 0
-0.164659 0.042183 0
-0.162892 0.024187 0
-0.161447 0.006562 0
-0.160360 -0.010989 0
-0.159615 -0.028823 0
-0.159149 -0.047304 0
-0.158870 -0.066743 0
-0.158661 -0.087402 0
-0.158382 -0.109468 0
-0.157880 -0.133028 0
-0.156986 -0.158041 0
-0.155527 -0.184320 0
-0.153321 -0.211503 0
-0.150181 -0.239037 0
-0.145906 -0.266159 0
-0.140269 -0.291870 0
-0.132992 -0.314885 0
-0.123681 -0.333479 0
-0.111642 -0.344952 0
-0.095462 -0.343831 0
-0.072444 -0.316627 0
-0.039241 -0.227773 0
0.000000 -0.080735 0
0.000000 0.134373 0
-0.024503 0.291221 0
-0.051482 0.318727 0
-0.075136 0.325257 0
-0.095043 0.324470 0
-0.111208 0.316645 0
-0.123877 0.302985 0
-0.133431 0.284863 0
-0.140292 0.263603 0
-0.144870 0.240342 0
-0.147540 0.216007 0
-0.148645 0.191327 0
-0.148499 0.166873 0
-0.147399 0.143075 0
-0.145622 0.120233 0
-0.143428 0.098524 0
-0.141053 0.078006 0
-0.138706 0.058626 0
-0.136564 0.040229 0
-0.134760 0.022573 0
-0.133381 0.005350 0
-0.132460 -0.011792 0
-0.131973 -0.029261 0
-0.131850 -0.047456 0
-0.131994 -0.066718 0
-0.132281 -0.087333 0
-0.132569 -0.109504 0
-0.132701 -0.133332 0
-0.132511 -0.158786 0
-0.131826 -0.185683 0
-0.130470 -0.213669 0
-0.128264 -0.242199 0
-0.125014 -0.270527 0
-0.120510 -0.297684 0
-0.114506 -0.322449 0
-0.106687 -0.343260 0
-0.096552 -0.357860 0
-0.083046 -0.361757 0
-0.063840 -0.342630 0
-0.035291 -0.261955 0
0.000000 -0.099452 0
0.000000 0.145493 0
-0.019999 0.314856 0
-0.043115 0.342226 0
-0.063435 0.345473 0
-0.080501 0.341184 0
-0.094312 0.329970 0
-0.105067 0.313205 0
-0.113083 0.292347 0
-0.118711 0.268732 0
-0.122298 0.243480 0
-0.124170 0.217490 0
-0.124628 0.191468 0
-0.123962 0.165967 0
-0.122449 0.141402 0
-0.120352 0.118058 0
-0.117921 0.096093 0
-0.115386 0.075542 0
-0.112950 0.056320 0
-0.110784 0.038236 0
-0.109018 0.021004 0
-0.107737 0.004263 0
-0.106970 -0.012397 0
-0.106682 -0.029433 0
-0.106802 -0.047283 0
-0.107229 -0.066311 0
-0.107837 -0.086827 0
-0.108485 -0.109048 0
-0.109023 -0.133086 0
-0.109293 -0.158917 0
-0.109136 -0.186361 0
-0.108390 -0.215065 0
-0.106893 -0.244493 0
-0.104475 -0.273912 0
-0.100945 -0.302378 0
-0.096088 -0.328708 0
-0.089650 -0.351433 0
-0.081273 -0.368593 0
-0.070230 -0.376543 0
-0.054659 -0.364383 0
-0.030871 -0.291613 0
0.000000 -0.116026 0
0.000000 0.154373 0
-0.015554 0.334336 0
-0.034891 0.362162 0
-0.051976 0.362643 0
-0.066301 0.355347 0
-0.077860 0.341211 0
-0.086811 0.321756 0
-0.093405 0.298507 0
-0.097930 0.272818 0
-0.100672 0.245801 0
-0.101906 0.218336 0
-0.101898 0.191119 0
-0.100904 0.164693 0
-0.099178 0.139464 0
-0.096964 0.115705 0
-0.094492 0.093558 0
-0.091975 0.073035 0
-0.089599 0.054024 0
-0.087519 0.036297 0
-0.085858 0.019526 0
-0.084693 0.003302 0
-0.084051 -0.012847 0
-0.083893 -0.029428 0
-0.084144 -0.046910 0
-0.084703 -0.065684 0
-0.085449 -0.086077 0
-0.086252 -0.108318 0
-0.086972 -0.132523 0
-0.087472 -0.158673 0
-0.087611 -0.186587 0
-0.087256 -0.215912 0
-0.086272 -0.246114 0
-0.084518 -0.276475 0
-0.081835 -0.306070 0
-0.078043 -0.333744 0
-0.072936 -0.358075 0
-0.066260 -0.377279 0
-0.057547 -0.388372 0
-0.045407 -0.381990 0
-0.026302 -0.316615 0
0.000000 -0.130323 0
0.000000 0.161047 0
-0.011183 0.349748 0
-0.026849 0.378648 0
-0.040818 0.376883 0
-0.052517 0.367069 0
-0.061935 0.350479 0
-0.069191 0.328750 0
-0.074479 0.303466 0
-0.078026 0.275999 0
-0.080063 0.247457 0
-0.080816 0.218715 0
-0.080512 0.190466 0
-0.079376 0.163248 0
-0.077631 0.137462 0
-0.075494 0.113372 0
-0.073167 0.091104 0
-0.070834 0.070648 0
-0.068656 0.051864 0
-0.066765 0.034495 0
-0.065264 0.018177 0
-0.064225 0.002456 0
-0.063672 -0.013197 0
-0.063566 -0.029340 0
-0.063830 -0.046473 0
-0.064369 -0.065006 0
-0.065074 -0.085278 0
-0.065830 -0.107525 0
-0.066523 -0.131866 0
-0.067038 -0.158278 0
-0.067269 -0.186576 0
-0.067114 -0.216404 0
-0.066474 -0.247231 0
-0.065245 -0.278349 0
-0.063307 -0.308852 0
-0.060520 -0.337607 0
-0.056722 -0.363216 0
-0.051736 -0.383982 0
-0.045274 -0.397396 0
-0.036371 -0.395627 0
-0.021773 -0.337020 0
0.000000 -0.142328 0
0.000000 0.165555 0
-0.006880 0.361185 0
-0.018973 0.391797 0
-0.029944 0.388311 0
-0.039131 0.376465 0
-0.046516 0.357885 0
-0.052183 0.334300 0
-0.056274 0.307342 0
-0.058961 0.278402 0
-0.060421 0.248591 0
-0.060837 0.218786 0
-0.060395 0.189680 0
-0.059284 0.161813 0
-0.057694 0.135582 0
-0.055805 0.111241 0
-0.053786 0.088899 0
-0.051784 0.068525 0
-0.049923 0.049954 0
-0.048305 0.032905 0
-0.047014 0.016986 0
-0.046108 0.001710 0
-0.045604 -0.013506 0
-0.045470 -0.029270 0
-0.045633 -0.046106 0
-0.046006 -0.064441 0
-0.046500 -0.084615 0
-0.047029 -0.106868 0
-0.047506 -0.131316 0
-0.047853 -0.157927 0
-0.048001 -0.186511 0
-0.047889 -0.216707 0
-0.047458 -0.247983 0
-0.046646 -0.279641 0
-0.045376 -0.310795 0
-0.043550 -0.340329 0
-0.041053 -0.366860 0
-0.037763 -0.388728 0
-0.033513 -0.403736 0
-0.027679 -0.405490 0
-0.017378 -0.352986 0
0.000000 -0.152096 0
0.000000 0.167927 0
-0.002651 0.368721 0
-0.011212 0.401712 0
-0.019285 0.397041 0
-0.026060 0.383641 0
-0.031509 0.363531 0
-0.035682 0.338508 0
-0.038673 0.310244 0
-0.040602 0.280145 0
-0.041599 0.249333 0
-0.041801 0.218689 0
-0.041354 0.188913 0
-0.040408 0.160547 0
-0.039113 0.133983 0
-0.037610 0.109464 0
-0.036026 0.087083 0
-0.034465 0.066785 0
-0.033011 0.048386 0
-0.031734 0.031587 0
-0.030692 0.015980 0
-0.029929 0.001046 0
-0.029436 -0.013834 0
-0.029198 -0.029312 0
-0.029150 -0.045937 0
-0.029227 -0.064138 0
-0.029367 -0.084254 0
-0.029517 -0.106519 0
-0.029627 -0.131042 0
-0.029661 -0.157783 0
-0.029595 -0.186540 0
-0.029411 -0.216947 0
-0.029094 -0.248474 0
-0.028625 -0.280431 0
-0.027971 -0.311949 0
-0.027079 -0.341930 0
-0.025882 -0.369003 0
-0.024303 -0.391522 0
-0.022251 -0.407480 0
-0.019352 -0.411762 0
-0.013144 -0.364699 0
0.000000 -0.159706 0
0.000000 0.168207 0
0.001449 0.372396 0
-0.003467 0.408431 0
-0.008725 0.403160 0
-0.013183 0.388689 0
-0.016773 0.367506 0
-0.019528 0.341464 0
-0.021499 0.312263 0
-0.022753 0.281327 0
-0.023374 0.249789 0
-0.023457 0.218541 0
-0.023103 0.188287 0
-0.022423 0.159572 0
-0.021523 0.132784 0
-0.020499 0.108154 0
-0.019433 0.085754 0
-0.018385 0.065510 0
-0.017396 0.047223 0
-0.016499 0.030586 0
-0.015721 0.015181 0
-0.015092 0.000454 0
-0.014594 -0.014238 0
-0.014182 -0.029556 0
-0.013831 -0.046077 0
-0.013508 -0.064223 0
-0.013185 -0.084326 0
-0.012848 -0.106609 0
-0.012489 -0.131171 0
-0.012119 -0.157959 0
-0.011759 -0.186762 0
-0.011437 -0.217207 0
-0.011183 -0.248769 0
-0.011020 -0.280765 0
-0.010959 -0.312341 0
-0.010993 -0.342418 0
-0.011101 -0.369636 0
-0.011252 -0.392358 0
-0.011401 -0.408687 0
-0.011344 -0.414597 0
-0.009059 -0.372338 0
0.000000 -0.165240 0
0.000000 0.166477 0
0.005455 0.372188 0
0.004317 0.411886 0
0.001856 0.406756 0
-0.000333 0.391690 0
-0.002124 0.369876 0
-0.003519 0.343233 0
-0.004526 0.313468 0
-0.005164 0.282021 0
-0.005470 0.250036 0
-0.005492 0.218418 0
-0.005292 0.187880 0
-0.004934 0.158966 0
-0.004480 0.132059 0
-0.003981 0.107375 0
-0.003470 0.084968 0
-0.002964 0.064748 0
-0.002464 0.046500 0
-0.001963 0.029912 0
-0.001448 0.014572 0
-0.000913 -0.000081 0
-0.000353 -0.014745 0
0.000284 -0.030076 0
0.000999 -0.046611 0
0.001784 -0.064783 0
0.002626 -0.084914 0
0.003500 -0.107215 0
0.004367 -0.131770 0
0.005171 -0.158513 0
0.005846 -0.187222 0
0.006317 -0.217522 0
0.006512 -0.248891 0
0.006367 -0.280656 0
0.005829 -0.311976 0
0.004858 -0.341787 0
0.003430 -0.368744 0
0.001534 -0.391222 0
-0.000831 -0.407388 0
-0.003562 -0.414105 0
-0.005077 -0.376043 0
0.000000 -0.168765 0
0.000000 0.162752 0
0.009483 0.368079 0
0.012199 0.412030 0
0.012572 0.407810 0
0.012640 0.392669 0
0.012617 0.370692 0
0.012552 0.343865 0
0.012480 0.313907 0
0.012431 0.282271 0
0.012416 0.250117 0
0.012432 0.218363 0
0.012464 0.187728 0
0.012490 0.158760 0
0.012497 0.131831 0
0.012480 0.107145 0
0.012452 0.084737 0
0.012439 0.064504 0
0.012477 0.046222 0
0.012611 0.029570 0
0.012888 0.014131 0
0.013360 -0.000641 0
0.014048 -0.015435 0
0.014950 -0.030908 0
0.016049 -0.047576 0
0.017305 -0.065851 0
0.018666 -0.086042 0
0.020066 -0.108350 0
0.021422 -0.132842 0
0.022634 -0.159438 0
0.023589 -0.187907 0
0.024173 -0.217874 0
0.024272 -0.248819 0
0.023781 -0.280082 0
0.022604 -0.310832 0
0.020657 -0.340019 0
0.017871 -0.366311 0
0.014192 -0.388098 0
0.009590 -0.403591 0
0.004111 -0.410351 0
-0.001120 -0.375900 0
0.000000 -0.170317 0
0.000000 0.156995 0
0.013608 0.359989 0
0.020298 0.408796 0
0.023561 0.406315 0
0.025867 0.391645 0
0.027599 0.369965 0
0.028856 0.343370 0
0.029720 0.313589 0
0.030266 0.282085 0
0.030556 0.250035 0
0.030634 0.218371 0
0.030530 0.187822 0
0.030271 0.158932 0
0.029889 0.132069 0
0.029426 0.107420 0
0.028936 0.085010 0
0.028486 0.064722 0
0.028147 0.046328 0
0.027993 0.029501 0
0.028102 0.013823 0
0.028544 -0.001241 0
0.029361 -0.016335 0
0.030527 -0.032077 0
0.031986 -0.048966 0
0.033673 -0.067400 0
0.035501 -0.087675 0
0.037365 -0.109972 0
0.039141 -0.134338 0
0.040685 -0.160680 0
0.041846 -0.188762 0
0.042466 -0.218205 0
0.042394 -0.248498 0
0.041484 -0.278987 0
0.039600 -0.308853 0
0.036613 -0.337055 0
0.032404 -0.362279 0