# vtk DataFile Version 2.0
generated by CFD-lab course output (written by Tobias Neckel) 
ASCII

DATASET STRUCTURED_GRID
DIMENSIONS  41 41 1 
POINTS 1681 float

0.150000 0.150000 0
0.167857 0.150000 0
0.185714 0.150000 0
0.203571 0.150000 0
0.221429 0.150000 0
0.239286 0.150000 0
0.257143 0.150000 0
0.275000 0.150000 0
0.292857 0.150000 0
0.310714 0.150000 0
0.328571 0.150000 0
0.346429 0.150000 0
0.364286 0.150000 0
0.382143 0.150000 0
0.400000 0.150000 0
0.417857 0.150000 0
0.435714 0.150000 0
0.453571 0.150000 0
0.471429 0.150000 0
0.489286 0.150000 0
0.507143 0.150000 0
0.525000 0.150000 0
0.542857 0.150000 0
0.560714 0.150000 0
0.578571 0.150000 0
0.596429 0.150000 0
0.614286 0.150000 0
0.632143 0.150000 0
0.650000 0.150000 0
0.667857 0.150000 0
0.685714 0.150000 0
0.703571 0.150000 0
0.721429 0.150000 0
0.739286 0.150000 0
0.757143 0.150000 0
0.775000 0.150000 0
0.792857 0.150000 0
0.810714 0.150000 0
0.828571 0.150000 0
0.846429 0.150000 0
0.864286 0.150000 0
0.150000 0.167857 0
0.167857 0.167857 0
0.185714 0.167857 0
0.203571 0.167857 0
0.221429 0.167857 0
0.239286 0.167857 0
0.257143 0.167857 0
0.275000 0.167857 0
0.292857 0.167857 0
0.310714 0.167857 0
0.328571 0.167857 0
0.346429 0.167857 0
0.364286 0.167857 0
0.382143 0.167857 0
0.400000 0.167857 0
0.417857 0.167857 0
0.435714 0.167857 0
0.453571 0.167857 0
0.471429 0.167857 0
0.489286 0.167857 0
0.507143 0.167857 0
0.525000 0.167857 0
0.542857 0.167857 0
0.560714 0.167857 0
0.578571 0.167857 0
0.596429 0.167857 0
0.614286 0.167857 0
0.632143 0.167857 0
0.650000 0.167857 0
0.667857 0.167857 0
0.685714 0.167857 0
0.703571 0.167857 0
0.721429 0.167857 0
0.739286 0.167857 0
0.757143 0.167857 0
0.775000 0.167857 0
0.792857 0.167857 0
0.810714 0.167857 0
0.828571 0.167857 0
0.846429 0.167857 0
0.864286 0.167857 0
0.150000 0.185714 0
0.167857 0.185714 0
0.185714 0.185714 0
0.203571 0.185714 0
0.221429 0.185714 0
0.239286 0.185714 0
0.257143 0.185714 0
0.275000 0.185714 0
0.292857 0.185714 0
0.310714 0.185714 0
0.328571 0.185714 0
0.346429 0.185714 0
0.364286 0.185714 0
0.382143 0.185714 0
0.400000 0.185714 0
0.417857 0.185714 0
0.435714 0.185714 0
0.453571 0.185714 0
0.471429 0.185714 0
0.489286 0.185714 0
0.507143 0.185714 0
0.525000 0.185714 0
0.542857 0.185714 0
0.560714 0.185714 0
0.578571 0.185714 0
0.596429 0.185714 0
0.614286 0.185714 0
0.632143 0.185714 0
0.650000 0.185714 0
0.667857 0.185714 0
0.685714 0.185714 0
0.703571 0.185714 0
0.721429 0.185714 0
0.739286 0.185714 0
0.757143 0.185714 0
0.775000 0.185714 0
0.792857 0.185714 0
0.810714 0.185714 0
0.828571 0.185714 0
0.846429 0.185714 0
0.864286 0.185714 0
0.150000 0.203571 0
0.167857 0.203571 0
0.185714 0.203571 0
0.203571 0.203571 0
0.221429 0.203571 0
0.239286 0.203571 0
0.257143 0.203571 0
0.275000 0.203571 0
0.292857 0.203571 0
0.310714 0.203571 0
0.328571 0.203571 0
0.346429 0.203571 0
0.364286 0.203571 0
0.382143 0.203571 0
0.400000 0.203571 0
0.417857 0.203571 0
0.435714 0.203571 0
0.453571 0.203571 0
0.471429 0.203571 0
0.489286 0.203571 0
0.507143 0.203571 0
0.525000 0.203571 0
0.542857 0.203571 0
0.560714 0.203571 0
0.578571 0.203571 0
0.596429 0.203571 0
0.614286 0.203571 0
0.632143 0.203571 0
0.650000 0.203571 0
0.667857 0.203571 0
0.685714 0.203571 0
0.703571 0.203571 0
0.721429 0.203571 0
0.739286 0.203571 0
0.757143 0.203571 0
0.775000 0.203571 0
0.792857 0.203571 0
0.810714 0.203571 0
0.828571 0.203571 0
0.846429 0.203571 0
0.864286 0.203571 0
0.150000 0.221429 0
0.167857 0.221429 0
0.185714 0.221429 0
0.203571 0.221429 0
0.221429 0.221429 0
0.239286 0.221429 0
0.257143 0.221429 0
0.275000 0.221429 0
0.292857 0.221429 0
0.310714 0.221429 0
0.328571 0.221429 0
0.346429 0.221429 0
0.364286 0.221429 0
0.382143 0.221429 0
0.400000 0.221429 0
0.417857 0.221429 0
0.435714 0.221429 0
0.453571 0.221429 0
0.471429 0.221429 0
0.489286 0.221429 0
0.507143 0.221429 0
0.525000 0.221429 0
0.542857 0.221429 0
0.560714 0.221429 0
0.578571 0.221429 0
0.596429 0.221429 0
0.614286 0.221429 0
0.632143 0.221429 0
0.650000 0.221429 0
0.667857 0.221429 0
0.685714 0.221429 0
0.703571 0.221429 0
0.721429 0.221429 0
0.739286 0.221429 0
0.757143 0.221429 0
0.775000 0.221429 0
0.792857 0.221429 0
0.810714 0.221429 0
0.828571 0.221429 0
0.846429 0.221429 0
0.864286 0.221429 0
0.150000 0.239286 0
0.167857 0.239286 0
0.185714 0.239286 0
0.203571 0.239286 0
0.221429 0.239286 0
0.239286 0.239286 0
0.257143 0.239286 0
0.275000 0.239286 0
0.292857 0.239286 0
0.310714 0.239286 0
0.328571 0.239286 0
0.346429 0.239286 0
0.364286 0.239286 0
0.382143 0.239286 0
0.400000 0.239286 0
0.417857 0.239286 0
0.435714 0.239286 0
0.453571 0.239286 0
0.471429 0.239286 0
0.489286 0.239286 0
0.507143 0.239286 0
0.525000 0.239286 0
0.542857 0.239286 0
0.560714 0.239286 0
0.578571 0.239286 0
0.596429 0.239286 0
0.614286 0.239286 0
0.632143 0.239286 0
0.650000 0.239286 0
0.667857 0.239286 0
0.685714 0.239286 0
0.703571 0.239286 0
0.721429 0.239286 0
0.739286 0.239286 0
0.757143 0.239286 0
0.775000 0.239286 0
0.792857 0.239286 0
0.810714 0.239286 0
0.828571 0.239286 0
0.846429 0.239286 0
0.864286 0.239286 0
0.150000 0.257143 0
0.167857 0.257143 0
0.185714 0.257143 0
0.203571 0.257143 0
0.221429 0.257143 0
0.239286 0.257143 0
0.257143 0.257143 0
0.275000 0.257143 0
0.292857 0.257143 0
0.310714 0.257143 0
0.328571 0.257143 0
0.346429 0.257143 0
0.364286 0.257143 0
0.382143 0.257143 0
0.400000 0.257143 0
0.417857 0.257143 0
0.435714 0.257143 0
0.453571 0.257143 0
0.471429 0.257143 0
0.489286 0.257143 0
0.507143 0.257143 0
0.525000 0.257143 0
0.542857 0.257143 0
0.560714 0.257143 0
0.578571 0.257143 0
0.596429 0.257143 0
0.614286 0.257143 0
0.632143 0.257143 0
0.650000 0.257143 0
0.667857 0.257143 0
0.685714 0.257143 0
0.703571 0.257143 0
0.721429 0.257143 0
0.739286 0.257143 0
0.757143 0.257143 0
0.775000 0.257143 0
0.792857 0.257143 0
0.810714 0.257143 0
0.828571 0.257143 0
0.846429 0.257143 0
0.864286 0.257143 0
0.150000 0.275000 0
0.167857 0.275000 0
0.185714 0.275000 0
0.203571 0.275000 0
0.221429 0.275000 0
0.239286 0.275000 0
0.257143 0.275000 0
0.275000 0.275000 0
0.292857 0.275000 0
0.310714 0.275000 0
0.328571 0.275000 0
0.346429 0.275000 0
0.364286 0.275000 0
0.382143 0.275000 0
0.400000 0.275000 0
0.417857 0.275000 0
0.435714 0.275000 0
0.453571 0.275000 0
0.471429 0.275000 0
0.489286 0.275000 0
0.507143 0.275000 0
0.525000 0.275000 0
0.542857 0.275000 0
0.560714 0.275000 0
0.578571 0.275000 0
0.596429 0.275000 0
0.614286 0.275000 0
0.632143 0.275000 0
0.650000 0.275000 0
0.667857 0.275000 0
0.685714 0.275000 0
0.703571 0.275000 0
0.721429 0.275000 0
0.739286 0.275000 0
0.757143 0.275000 0
0.775000 0.275000 0
0.792857 0.275000 0
0.810714 0.275000 0
0.828571 0.275000 0
0.846429 0.275000 0
0.864286 0.275000 0
0.150000 0.292857 0
0.167857 0.292857 0
0.185714 0.292857 0
0.203571 0.292857 0
0.221429 0.292857 0
0.239286 0.292857 0
0.257143 0.292857 0
0.275000 0.292857 0
0.292857 0.292857 0
0.310714 0.292857 0
0.328571 0.292857 0
0.346429 0.292857 0
0.364286 0.292857 0
0.382143 0.292857 0
0.400000 0.292857 0
0.417857 0.292857 0
0.435714 0.292857 0
0.453571 0.292857 0
0.471429 0.292857 0
0.489286 0.292857 0
0.507143 0.292857 0
0.525000 0.292857 0
0.542857 0.292857 0
0.560714 0.292857 0
0.578571 0.292857 0
0.596429 0.292857 0
0.614286 0.292857 0
0.632143 0.292857 0
0.650000 0.292857 0
0.667857 0.292857 0
0.685714 0.292857 0
0.703571 0.292857 0
0.721429 0.292857 0
0.739286 0.292857 0
0.757143 0.292857 0
0.775000 0.292857 0
0.792857 0.292857 0
0.810714 0.292857 0
0.828571 0.292857 0
0.846429 0.292857 0
0.864286 0.292857 0
0.150000 0.310714 0
0.167857 0.310714 0
0.185714 0.310714 0
0.203571 0.310714 0
0.221429 0.310714 0
0.239286 0.310714 0
0.257143 0.310714 0
0.275000 0.310714 0
0.292857 0.310714 0
0.310714 0.310714 0
0.328571 0.310714 0
0.346429 0.310714 0
0.364286 0.310714 0
0.382143 0.310714 0
0.400000 0.310714 0
0.417857 0.310714 0
0.435714 0.310714 0
0.453571 0.310714 0
0.471429 0.310714 0
0.489286 0.310714 0
0.507143 0.310714 0
0.525000 0.310714 0
0.542857 0.310714 0
0.560714 0.310714 0
0.578571 0.310714 0
0.596429 0.310714 0
0.614286 0.310714 0
0.632143 0.310714 0
0.650000 0.310714 0
0.667857 0.310714 0
0.685714 0.310714 0
0.703571 0.310714 0
0.721429 0.310714 0
0.739286 0.310714 0
0.757143 0.310714 0
0.775000 0.310714 0
0.792857 0.310714 0
0.810714 0.310714 0
0.828571 0.310714 0
0.846429 0.310714 0
0.864286 0.310714 0
0.150000 0.328571 0
0.167857 0.328571 0
0.185714 0.328571 0
0.203571 0.328571 0
0.221429 0.328571 0
0.239286 0.328571 0
0.257143 0.328571 0
0.275000 0.328571 0
0.292857 0.328571 0
0.310714 0.328571 0
0.328571 0.328571 0
0.346429 0.328571 0
0.364286 0.328571 0
0.382143 0.328571 0
0.400000 0.328571 0
0.417857 0.328571 0
0.435714 0.328571 0
0.453571 0.328571 0
0.471429 0.328571 0
0.489286 0.328571 0
0.507143 0.328571 0
0.525000 0.328571 0
0.542857 0.328571 0
0.560714 0.328571 0
0.578571 0.328571 0
0.596429 0.328571 0
0.614286 0.328571 0
0.632143 0.328571 0
0.650000 0.328571 0
0.667857 0.328571 0
0.685714 0.328571 0
0.703571 0.328571 0
0.721429 0.328571 0
0.739286 0.328571 0
0.757143 0.328571 0
0.775000 0.328571 0
0.792857 0.328571 0
0.810714 0.328571 0
0.828571 0.328571 0
0.846429 0.328571 0
0.864286 0.328571 0
0.150000 0.346429 0
0.167857 0.346429 0
0.185714 0.346429 0
0.203571 0.346429 0
0.221429 0.346429 0
0.239286 0.346429 0
0.257143 0.346429 0
0.275000 0.346429 0
0.292857 0.346429 0
0.310714 0.346429 0
0.328571 0.346429 0
0.346429 0.346429 0
0.364286 0.346429 0
0.382143 0.346429 0
0.400000 0.346429 0
0.417857 0.346429 0
0.435714 0.346429 0
0.453571 0.346429 0
0.471429 0.346429 0
0.489286 0.346429 0
0.507143 0.346429 0
0.525000 0.346429 0
0.542857 0.346429 0
0.560714 0.346429 0
0.578571 0.346429 0
0.596429 0.346429 0
0.614286 0.346429 0
0.632143 0.346429 0
0.650000 0.346429 0
0.667857 0.346429 0
0.685714 0.346429 0
0.703571 0.346429 0
0.721429 0.346429 0
0.739286 0.346429 0
0.757143 0.346429 0
0.775000 0.346429 0
0.792857 0.346429 0
0.810714 0.346429 0
0.828571 0.346429 0
0.846429 0.346429 0
[...]
POINT_DATA 1681 

VECTORS velocity float
0.000000 0.000000 0
0.001845 0.000000 0
0.004983 0.000000 0
0.007454 0.000000 0
0.008678 0.000000 0
0.008596 0.000000 0
0.007339 0.000000 0
0.004706 0.000000 0
0.000196 0.000000 0
-0.006870 0.000000 0
-0.016207 0.000000 0
-0.027125 0.000000 0
-0.038784 0.000000 0
-0.050467 0.000000 0
-0.061656 0.000000 0
-0.072003 0.000000 0
-0.081400 0.000000 0
-0.089694 0.000000 0
-0.096835 0.000000 0
-0.102800 0.000000 0
-0.107599 0.000000 0
-0.111254 0.000000 0
-0.113786 0.000000 0
-0.115272 0.000000 0
-0.115654 0.000000 0
-0.114858 0.000000 0
-0.112736 0.000000 0
-0.109190 0.000000 0
-0.104103 0.000000 0
-0.097343 0.000000 0
-0.088874 0.000000 0
-0.078559 0.000000 0
-0.066355 0.000000 0
-0.052330 0.000000 0
-0.036794 0.000000 0
-0.020461 0.000000 0
-0.004641 0.000000 0
0.007825 0.000000 0
0.010871 0.000000 0
0.005734 0.000000 0
0.000000 0.000000 0
0.000000 -0.001845 0
0.001761 -0.004983 0
0.003164 -0.005609 0
0.002299 -0.003694 0
-0.001486 -0.001142 0
-0.008327 0.001339 0
-0.018346 0.003891 0
-0.031616 0.007143 0
-0.048120 0.011576 0
-0.067691 0.016403 0
-0.089609 0.020254 0
-0.112805 0.022577 0
-0.136118 0.023342 0
-0.158542 0.022872 0
-0.179335 0.021535 0
-0.198030 0.019744 0
-0.214408 0.017692 0
-0.228340 0.015435 0
-0.239803 0.013106 0
-0.248829 0.010764 0
-0.255486 0.008454 0
-0.259848 0.006187 0
-0.261983 0.004018 0
-0.261940 0.001869 0
-0.259692 -0.000413 0
-0.255187 -0.002918 0
-0.248308 -0.005668 0
-0.238874 -0.008633 0
-0.226674 -0.011847 0
-0.211479 -0.015229 0
-0.193087 -0.018784 0
-0.171279 -0.022518 0
-0.145949 -0.026229 0
-0.117219 -0.029562 0
-0.085662 -0.031869 0
-0.052627 -0.032152 0
-0.020732 -0.028286 0
0.005308 -0.015512 0
0.017827 0.002091 0
0.010209 0.010871 0
0.000000 0.005734 0
0.000000 -0.001761 0
-0.006170 -0.003164 0
-0.016129 -0.000538 0
-0.028264 0.004650 0
-0.042977 0.010626 0
-0.060524 0.016860 0
-0.081018 0.023289 0
-0.103958 0.029775 0
-0.128292 0.036075 0
-0.152553 0.041489 0
-0.175931 0.045113 0
-0.197847 0.046509 0
-0.217904 0.045737 0
-0.235796 0.043217 0
-0.251323 0.039488 0
-0.264413 0.035072 0
-0.275001 0.030310 0
-0.283207 0.025395 0
-0.289150 0.020490 0
-0.292966 0.015683 0
-0.294782 0.011019 0
-0.294699 0.006497 0
-0.292789 0.002092 0
-0.289021 -0.002290 0
-0.283468 -0.006753 0
-0.276094 -0.011385 0
-0.266874 -0.016314 0
-0.255656 -0.021634 0
-0.242259 -0.027395 0
-0.226472 -0.033588 0
-0.207990 -0.040200 0
-0.186624 -0.047138 0
-0.162228 -0.054060 0
-0.134853 -0.060286 0
-0.104904 -0.064592 0
-0.073412 -0.064930 0
-0.042486 -0.057935 0
-0.015185 -0.038559 0
0.005604 -0.004901 0
0.007296 0.017827 0
0.000000 0.010209 0
0.000000 0.004325 0
-0.016872 0.011146 0
-0.037398 0.016486 0
-0.058474 0.023153 0
-0.080533 0.031117 0
-0.103726 0.039380 0
-0.127702 0.047325 0
-0.151752 0.054417 0
-0.174960 0.060171 0
-0.196351 0.064042 0
-0.215365 0.065549 0
-0.231782 0.064550 0
-0.245628 0.061291 0
-0.257042 0.056291 0
-0.266209 0.050153 0
-0.273326 0.043423 0
-0.278553 0.036486 0
-0.282090 0.029584 0
-0.284108 0.022865 0
-0.284745 0.016396 0
-0.284100 0.010186 0
-0.282232 0.004194 0
-0.279158 -0.001660 0
-0.274883 -0.007453 0
-0.269389 -0.013341 0
-0.262588 -0.019513 0
-0.254372 -0.026105 0
-0.244618 -0.033248 0
-0.233159 -0.041031 0
-0.219796 -0.049497 0
-0.204272 -0.058632 0
-0.186374 -0.068281 0
-0.165916 -0.078000 0
-0.142819 -0.086886 0
-0.117220 -0.093310 0
-0.089638 -0.094570 0
-0.061207 -0.086513 0
-0.033731 -0.063602 0
-0.009562 -0.020391 0
0.005280 0.016475 0
0.000000 0.013030 0
0.000000 0.015110 0
-0.024186 0.034234 0
-0.051015 0.041065 0
-0.077222 0.047785 0
-0.102886 0.055878 0
-0.127848 0.064029 0
-0.151696 0.071315 0
-0.173867 0.077032 0
-0.193769 0.080674 0
-0.210912 0.081893 0
-0.225111 0.080544 0
-0.236474 0.076772 0
-0.245311 0.070997 0
-0.252009 0.063799 0
-0.256940 0.055772 0
-0.260415 0.047415 0
-0.262663 0.039074 0
-0.263867 0.030950 0
-0.264152 0.023144 0
-0.263594 0.015675 0
-0.262226 0.008506 0
-0.260048 0.001555 0
-0.257039 -0.005257 0
-0.253206 -0.012059 0
-0.248435 -0.019048 0
-0.242672 -0.026402 0
-0.235832 -0.034284 0
-0.227817 -0.042847 0
-0.218502 -0.052216 0
-0.207729 -0.062474 0
-0.195302 -0.073622 0
-0.181014 -0.085495 0
-0.164649 -0.097615 0
-0.145997 -0.108982 0
-0.124910 -0.117773 0
-0.101382 -0.120944 0
-0.075685 -0.113842 0
-0.048558 -0.090204 0
-0.021607 -0.043912 0
0.002347 0.008265 0
0.000000 0.015489 0
0.000000 0.028511 0
-0.027747 0.062161 0
-0.057564 0.069522 0
-0.085775 0.075024 0
-0.112247 0.081742 0
-0.136701 0.088191 0
-0.158788 0.093344 0
-0.178155 0.096489 0
-0.194534 0.097216 0
-0.207816 0.095384 0
-0.218132 0.091110 0
-0.225819 0.084750 0
-0.231339 0.076826 0
-0.235164 0.067920 0
-0.237701 0.058559 0
-0.239254 0.049145 0
-0.240026 0.039939 0
-0.240145 0.031074 0
-0.239679 0.022592 0
-0.238656 0.014470 0
-0.237076 0.006641 0
-0.234930 -0.000993 0
-0.232203 -0.008502 0
-0.228836 -0.016057 0
-0.224767 -0.023875 0
-0.219952 -0.032116 0
-0.214336 -0.040961 0
-0.207858 -0.050578 0
-0.200438 -0.061119 0
-0.191971 -0.072697 0
-0.182319 -0.085347 0
-0.171310 -0.098934 0
-0.158717 -0.113017 0
-0.144241 -0.126625 0
-0.127507 -0.137926 0
-0.108080 -0.143795 0
-0.085561 -0.139336 0
-0.059826 -0.117680 0
-0.031665 -0.071296 0
-0.004441 -0.005132 0
0.000000 0.015377 0
0.000000 0.042858 0
-0.028471 0.091798 0
-0.058792 0.099092 0
-0.086853 0.102468 0
-0.112396 0.106805 0
-0.135134 0.110570 0
-0.154827 0.112769 0
-0.171327 0.112778 0
-0.184621 0.110335 0
-0.194868 0.105491 0
-0.202399 0.098547 0
-0.207672 0.089980 0
-0.211188 0.080342 0
-0.213403 0.070161 0
-0.214682 0.059862 0
-0.215274 0.049740 0
-0.215336 0.039965 0
-0.214951 0.030604 0
-0.214161 0.021655 0
-0.212976 0.013073 0
-0.211394 0.004780 0
-0.209404 -0.003318 0
-0.206994 -0.011351 0
-0.204072 -0.019495 0
-0.200622 -0.027932 0
-0.196609 -0.036832 0
-0.192006 -0.046378 0
-0.186782 -0.056745 0
-0.180900 -0.068104 0
-0.174306 -0.080593 0
-0.166920 -0.094282 0
-0.158618 -0.109097 0
-0.149197 -0.124684 0
-0.138330 -0.140192 0
-0.125516 -0.153934 0
-0.110048 -0.162889 0
-0.091068 -0.162097 0
-0.067841 -0.144100 0
-0.040563 -0.099297 0
-0.012541 -0.023399 0
0.000000 0.011048 0
0.000000 0.056982 0
-0.027263 0.120952 0
-0.056420 0.127904 0
-0.082986 0.128628 0
-0.106619 0.130023 0
-0.127082 0.130622 0
-0.144252 0.129537 0
-0.158147 0.126283 0
-0.168936 0.120757 0
-0.176934 0.113162 0
-0.182575 0.103915 0
-0.186346 0.093539 0
-0.188717 0.082558 0
-0.190088 0.071414 0
-0.190755 0.060429 0
-0.190915 0.049799 0
-0.190684 0.039616 0
-0.190127 0.029899 0
-0.189271 0.020616 0
-0.188125 0.011703 0
-0.186682 0.003069 0
-0.184924 -0.005393 0
-0.182822 -0.013834 0
-0.180326 -0.022429 0
-0.177418 -0.031338 0
-0.174077 -0.040732 0
-0.170294 -0.050788 0
-0.166059 -0.061684 0
-0.161367 -0.073595 0
-0.156204 -0.086677 0
-0.150540 -0.101035 0
-0.144304 -0.116657 0
-0.137342 -0.133305 0
-0.129359 -0.150305 0
-0.119828 -0.166208 0
-0.107922 -0.178243 0
-0.092508 -0.181543 0
-0.072389 -0.168186 0
-0.047105 -0.126596 0
-0.019027 -0.045695 0
0.000000 0.002836 0
0.000000 0.070121 0
-0.024841 0.148218 0
-0.051828 0.154815 0
-0.076141 0.152667 0
-0.097383 0.150901 0
-0.115388 0.148203 0
-0.130139 0.143834 0
-0.141776 0.137462 0
-0.150579 0.129123 0
-0.156943 0.119131 0
-0.161325 0.107958 0
-0.164185 0.096122 0
-0.165936 0.084085 0
-0.166907 0.072199 0
-0.167331 0.060688 0
-0.167361 0.049669 0
-0.167088 0.039177 0
-0.166560 0.029190 0
-0.165800 0.019653 0
-0.164811 0.010484 0
-0.163585 0.001579 0
-0.162099 -0.007178 0
-0.160328 -0.015948 0
-0.158241 -0.024900 0
-0.155823 -0.034181 0
-0.153061 -0.043956 0
-0.149955 -0.054395 0
-0.146509 -0.065672 0
-0.142735 -0.077959 0
-0.138643 -0.091420 0
-0.134238 -0.106183 0
-0.129494 -0.122295 0
-0.124316 -0.139629 0
-0.118472 -0.157706 0
-0.111492 -0.175371 0
-0.102548 -0.190210 0
-0.090380 -0.197629 0
-0.073435 -0.189503 0
-0.050541 -0.152659 0
-0.022871 -0.070504 0
0.000000 -0.007979 0
0.000000 0.081822 0
-0.021748 0.172780 0
-0.046030 0.179204 0
-0.067734 0.174183 0
-0.086419 0.169270 0
-0.101991 0.163377 0
-0.114519 0.155924 0
-0.124227 0.146724 0
-0.131453 0.135925 0
-0.136613 0.123907 0
-0.140144 0.111156 0
-0.142455 0.098151 0
-0.143890 0.085280 0
-0.144709 0.072809 0
-0.145096 0.060883 0
-0.145167 0.049555 0
-0.144992 0.038815 0
-0.144608 0.028611 0
-0.144032 0.018868 0
-0.143263 0.009488 0
-0.142293 0.000356 0
-0.141103 -0.008650 0
-0.139672 -0.017692 0
-0.137981 -0.026934 0
-0.136014 -0.036518 0
-0.133767 -0.046600 0
-0.131241 -0.057340 0
-0.128447 -0.068904 0
-0.125401 -0.081461 0
-0.122127 -0.095174 0
-0.118644 -0.110184 0
-0.114956 -0.126579 0
-0.111016 -0.144327 0
-0.106667 -0.163129 0
-0.101535 -0.182132 0
-0.094880 -0.199355 0
-0.085448 -0.210656 0
-0.071468 -0.208024 0
-0.051162 -0.177161 0
-0.024604 -0.096236 0
0.000000 -0.020034 0
0.000000 0.091869 0
-0.018371 0.194248 0
-0.039729 0.200801 0
-0.058730 0.193056 0
-0.074882 0.185157 0
-0.088153 0.176303 0
-0.098683 0.166070 0
-0.106741 0.154396 0
-0.112690 0.141510 0
-0.116934 0.127822 0
-0.119866 0.113800 0
-0.121833 0.099867 0
-0.123114 0.086339 0
-0.123912 0.073405 0
-0.124365 0.061146 0
-0.124561 0.049565 0
-0.124553 0.038618 0
-0.124367 0.028230 0
-0.124013 0.018308 0
-0.123489 0.008746 0
-0.122787 -0.000581 0
-0.121901 -0.009799 0
-0.120805 -0.019071 0
-0.119488 -0.028558 0
-0.117939 -0.038395 0
-0.116155 -0.048730 0
-0.114138 -0.059716 0
-0.111899 -0.071511 0
-0.109456 -0.084278 0
-0.106831 -0.098177 0
-0.104047 -0.113354 0
-0.101120 -0.129923 0
-0.098034 -0.147917 0
-0.094693 -0.167188 0
-0.090828 -0.187157 0
-0.085839 -0.206297 0
-0.078585 -0.221042 0
-0.067247 -0.223789 0
-0.049643 -0.199522 0
-0.024959 -0.121667 0
0.000000 -0.032584 0
0.000000 0.100193 0
-0.014956 0.212509 0
-0.033382 0.219564 0
-0.049750 0.209336 0
-0.063501 0.198693 0
-0.074662 0.187178 0
-0.083413 0.174512 0
-0.090054 0.160732 0
-0.094945 0.146118 0
-0.098458 0.131082 0
-0.100938 0.116056 0
-0.102670 0.101399 0
-0.103874 0.087358 0
-0.104704 0.074059 0
-0.105263 0.061533 0
-0.105614 0.049744 0
-0.105794 0.038621 0
-0.105820 0.028071 0
-0.105696 0.017990 0
-0.105420 0.008262 0
-0.104984 -0.001232 0
-0.104388 -0.010632 0
-0.103607 -0.020105 0
-0.102636 -0.029800 0
-0.101467 -0.039852 0
-0.100098 -0.050401 0
-0.098530 -0.061595 0
-0.096774 -0.073586 0
-0.094842 -0.086529 0
-0.092752 -0.100583 0
-0.090523 -0.115895 0
-0.088172 -0.132593 0
-0.085694 -0.150754 0
-0.083036 -0.170335 0
-0.080018 -0.190986 0
-0.076192 -0.211598 0
-0.070604 -0.229247 0
-0.061537 -0.236966 0
-0.046596 -0.219449 0
-0.024242 -0.145879 0
0.000000 -0.044994 0
0.000000 0.106825 0
-0.011652 0.227630 0
-0.027264 0.235595 0
-0.041161 0.223176 0
-0.052708 0.210069 0
-0.061968 0.196215 0
-0.069153 0.181462 0
-0.074570 0.165927 0
-0.078563 0.149914 0
-0.081469 0.133815 0
-0.083580 0.118012 0
-0.085128 0.102804 0
-0.086280 0.088373 0
-0.087152 0.074793 0
-0.087814 0.062055 0
-0.088312 0.050096 0
-0.088670 0.038824 0
-0.088896 0.028133 0
-0.088992 0.017908 0
-0.088950 0.008033 0
-0.088766 -0.001613 0
-0.088432 -0.011177 0
-0.087937 -0.020822 0
-0.087278 -0.030697 0
-0.086450 -0.040933 0
-0.085448 -0.051667 0
-0.084276 -0.063040 0
-0.082940 -0.075200 0
-0.081448 -0.088300 0
-0.079812 -0.102495 0
-0.078042 -0.117934 0
-0.076151 -0.134752 0
-0.074136 -0.153053 0
-0.071965 -0.172864 0
-0.069526 -0.194001 0
-0.066506 -0.215710 0
-0.062168 -0.235698 0
-0.055003 -0.247797 0
-0.042585 -0.236817 0
-0.022811 -0.168263 0
0.000000 -0.056825 0
0.000000 0.111845 0
-0.008540 0.239773 0
-0.021521 0.249073 0
-0.033159 0.234781 0
-0.042721 0.219500 0
-0.050296 0.203623 0
-0.056111 0.187113 0
-0.060468 0.170142 0
-0.063691 0.153017 0
-0.066074 0.136100 0
-0.067864 0.119715 0
-0.069245 0.104099 0
-0.070342 0.089382 0
-0.071237 0.075593 0
-0.071979 0.062693 0
-0.072596 0.050599 0
-0.073100 0.039205 0
-0.073498 0.028393 0
-0.073784 0.018044 0
-0.073951 0.008036 0
-0.073990 -0.001750 0
-0.073891 -0.011461 0
-0.073650 -0.021258 0
-0.073266 -0.031287 0
-0.072736 -0.041682 0
-0.072057 -0.052575 0
-0.071232 -0.064103 0
-0.070262 -0.076414 0
-0.069151 -0.089658 0
-0.067904 -0.103989 0
-0.066526 -0.119556 0
-0.065021 -0.136499 0
-0.063384 -0.154939 0
-0.061594 -0.174945 0
-0.059581 -0.196445 0
-0.057143 -0.218956 0
-0.053750 -0.240750 0
-0.048163 -0.256549 0
-0.038070 -0.251641 0
-0.020957 -0.188465 0
0.000000 -0.067804 0
0.000000 0.115365 0
-0.005654 0.249151 0
-0.016210 0.260213 0
-0.025814 0.244376 0
-0.033615 0.227206 0
-0.039712 0.209604 0
-0.044336 0.191635 0
-0.047778 0.173507 0
-0.050332 0.155519 0
-0.052256 0.137989 0
-0.053753 0.121183 0
-0.054968 0.105282 0
-0.055993 0.090365 0
-0.056882 0.076430 0
-0.057666 0.063413 0
-0.058361 0.051217 0
-0.058973 0.039726 0
-0.059501 0.028816 0
-0.059940 0.018362 0
-0.060281 0.008240 0
-0.060510 -0.001673 0
-0.060615 -0.011517 0
-0.060593 -0.021447 0
-0.060446 -0.031611 0
-0.060173 -0.042142 0
-0.059774 -0.053171 0
-0.059250 -0.064835 0
-0.058599 -0.077281 0
-0.057820 -0.090658 0
-0.056912 -0.105120 0
-0.055875 -0.120818 0
-0.054706 -0.137895 0
-0.053399 -0.156480 0
-0.051937 -0.176666 0
-0.050276 -0.198453 0
-0.048295 -0.221541 0
-0.045647 -0.244678 0
-0.041373 -0.263478 0
-0.033384 -0.264023 0
-0.018897 -0.206332 0
0.000000 -0.077782 0
0.000000 0.117499 0
-0.002993 0.255984 0
-0.011330 0.269233 0
-0.019116 0.252186 0
-0.025368 0.233398 0
-0.030177 0.214343 0
-0.033772 0.195180 0
-0.036423 0.176138 0
-0.038394 0.157495 0
-0.039907 0.139521 0
-0.041130 0.122427 0
-0.042173 0.106339 0
-0.043102 0.091296 0
-0.043952 0.077267 0
-0.044740 0.064173 0
-0.045470 0.051906 0
-0.046145 0.040344 0
-0.046760 0.029360 0
-0.047310 0.018824 0
-0.047783 0.008606 0
-0.048166 -0.001416 0
-0.048440 -0.011379 0
-0.048602 -0.021426 0
-0.048656 -0.031707 0
-0.048604 -0.042354 0
-0.048447 -0.053498 0
-0.048184 -0.065279 0
-0.047811 -0.077844 0
-0.047322 -0.091345 0
-0.046713 -0.105934 0
-0.045978 -0.121762 0
-0.045111 -0.138976 0
-0.044105 -0.157709 0
-0.042945 -0.178068 0
-0.041607 -0.200087 0
-0.040030 -0.223584 0
-0.038007 -0.247673 0
-0.034848 -0.268811 0
-0.028750 -0.274117 0
-0.016778 -0.221849 0
0.000000 -0.086701 0
0.000000 0.118358 0
-0.000581 0.260481 0
-0.006832 0.276336 0
-0.012998 0.258414 0
-0.017896 0.238268 0
-0.021588 0.218007 0
-0.024293 0.197880 0
-0.026259 0.178129 0
-0.027719 0.159004 0
-0.028862 0.140725 0
-0.029823 0.123449 0
-0.030685 0.107254 0
-0.031496 0.092144 0
-0.032274 0.078068 0
-0.033027 0.064932 0
-0.033754 0.052623 0
-0.034449 0.041016 0
-0.035109 0.029981 0
-0.035727 0.019385 0
-0.036292 0.009096 0
-0.036790 -0.001017 0
-0.037198 -0.011081 0
-0.037508 -0.021231 0
-0.037729 -0.031609 0
-0.037865 -0.042352 0
-0.037918 -0.053591 0
-0.037882 -0.065471 0
-0.037752 -0.078142 0
-0.037518 -0.091756 0
-0.037174 -0.106465 0
-0.036712 -0.122419 0
-0.036123 -0.139767 0
-0.035400 -0.158646 0
-0.034534 -0.179164 0
-0.033515 -0.201367 0
-0.032327 -0.225141 0
-0.030870 -0.249860 0
-0.028686 -0.272735 0
-0.024288 -0.282093 0
-0.014692 -0.235082 0
0.000000 -0.094560 0
0.000000 0.118081 0
0.001577 0.262816 0
-0.002639 0.281649 0
-0.007370 0.263250 0
-0.011076 0.241988 0
-0.013798 0.220740 0
-0.015733 0.199850 0
-0.017103 0.179564 0
-0.018111 0.160098 0
-0.018916 0.141625 0
-0.019624 0.124250 0
-0.020298 0.108012 0
-0.020970 0.092885 0
-0.021649 0.078799 0
-0.022334 0.065652 0
-0.023019 0.053328 0
-0.023699 0.041700 0
-0.024365 0.030638 0
-0.025013 0.020007 0
-0.025631 0.009670 0
-0.026205 -0.000511 0
-0.026710 -0.010661 0
-0.027135 -0.020895 0
-0.027493 -0.031349 0
-0.027790 -0.042165 0
-0.028025 -0.053481 0
-0.028188 -0.065444 0
-0.028270 -0.078208 0
-0.028262 -0.091923 0
-0.028156 -0.106740 0
-0.027943 -0.122813 0
-0.027615 -0.140287 0
-0.027165 -0.159299 0
-0.026591 -0.179953 0
-0.025901 -0.202293 0
-0.025110 -0.226230 0
-0.024198 -0.251314 0
-0.022900 -0.275394 0
-0.020044 -0.288112 0
-0.012678 -0.246137 0
0.000000 -0.101393 0
0.000000 0.116781 0
0.003543 0.263121 0
0.001319 0.285282 0
-0.002097 0.266851 0
-0.004772 0.244697 0
-0.006649 0.222664 0
-0.007906 0.201185 0
-0.008752 0.180508 0
-0.009356 0.160817 0
-0.009848 0.142237 0
-0.010310 0.124831 0
-0.010789 0.108600 0
-0.011305 0.093495 0
-0.011861 0.079432 0
-0.012450 0.066302 0
-0.013065 0.053988 0
-0.013697 0.042362 0
-0.014338 0.031295 0
-0.014982 0.020651 0
-0.015620 0.010289 0
-0.016235 0.000062 0
-0.016800 -0.010151 0
-0.017311 -0.020448 0
-0.017780 -0.030954 0
-0.018214 -0.041820 0
-0.018604 -0.053194 0
-0.018938 -0.065226 0
-0.019207 -0.078068 0
-0.019400 -0.091870 0
-0.019511 -0.106784 0
-0.019530 -0.122960 0
-0.019449 -0.140546 0
-0.019266 -0.159670 0
-0.018989 -0.180428 0
-0.018641 -0.202849 0
-0.018267 -0.226844 0
-0.017906 -0.252070 0
-0.017445 -0.276890 0
-0.016009 -0.292314 0
-0.010745 -0.255126 0
0.000000 -0.107239 0
0.000000 0.114538 0
0.005378 0.261497 0
0.005089 0.287289 0
0.002942 0.269341 0
0.001183 0.246540 0
0.000052 0.223874 0
-0.000616 0.201954 0
-0.000999 0.181015 0
-0.001237 0.161194 0
-0.001435 0.142578 0
-0.001657 0.125192 0
-0.001935 0.109007 0
-0.002281 0.093956 0
-0.002694 0.079943 0
-0.003165 0.066857 0
-0.003684 0.054575 0
-0.004242 0.042973 0
-0.004831 0.031923 0
-0.005444 0.021289 0
-0.006073 0.010923 0
-0.006699 0.000669 0
-0.007291 -0.009585 0
-0.007863 -0.019915 0
-0.008423 -0.030446 0
-0.008969 -0.041341 0
-0.009488 -0.052756 0
-0.009965 -0.064842 0
-0.010395 -0.077746 0
-0.010769 -0.091618 0
-0.011078 -0.106611 0
-0.011314 -0.122875 0
-0.011472 -0.140550 0
-0.011556 -0.159759 0
-0.011584 -0.180578 0
-0.011597 -0.203015 0
-0.011665 -0.226964 0
-0.011880 -0.252136 0
-0.012238 -0.277291 0
-0.012138 -0.294811 0
-0.008877 -0.262146 0
0.000000 -0.112138 0
0.000000 0.111402 0
0.007142 0.258032 0
0.008737 0.287718 0
0.007847 0.270756 0
0.006952 0.247587 0
0.006484 0.224463 0
0.006331 0.202236 0
0.006362 0.181129 0
0.006458 0.161254 0
0.006538 0.142657 0
0.006553 0.125331 0
0.006480 0.109225 0
0.006315 0.094254 0
0.006061 0.080315 0
0.005728 0.067293 0
0.005326 0.055065 0
0.004865 0.043509 0
0.004355 0.032496 0
0.003805 0.021893 0
0.003224 0.011544 0
0.002622 0.001280 0
0.002012 -0.008987 0
0.001387 -0.019315 0
0.000755 -0.029848 0
0.000126 -0.040756 0
-0.000491 -0.052197 0
-0.001089 -0.064318 0
-0.001659 -0.077264 0
-0.002194 -0.091187 0
-0.002686 -0.106238 0
-0.003129 -0.122566 0
-0.003521 -0.140304 0
-0.003874 -0.159559 0
-0.004219 -0.180388 0
-0.004616 -0.202767 0
-0.005162 -0.226561 0
-0.005985 -0.251497 0
-0.007177 -0.276631 0
-0.008364 -0.295675 0
-0.007047 -0.267264 0
0.000000 -0.116116 0
0.000000 0.107396 0
0.008883 0.252760 0
0.012361 0.286585 0
0.012735 0.271125 0
0.012665 0.247902 0
0.012797 0.224494 0
0.013114 0.202076 0
0.013521 0.180888 0
0.013927 0.161018 0
0.014273 0.142483 0
0.014522 0.125249 0
0.014661 0.109245 0
0.014687 0.094375 0
0.014607 0.080530 0
0.014430 0.067592 0
0.014165 0.055438 0
0.013823 0.043944 0
0.013415 0.032983 0
0.012957 0.022420 0
0.012455 0.012106 0
0.011903 0.001881 0
0.011288 -0.008350 0
0.010630 -0.018659 0
0.009952 -0.029185 0
0.009263 -0.040094 0
0.008569 -0.051541 0
0.007873 -0.063674 0
0.007183 -0.076641 0
0.006504 -0.090592 0
0.005844 -0.105677 0
0.005204 -0.122040 0
0.004580 -0.139805 0
0.003951 -0.159061 0
0.003272 -0.179836 0
0.002460 -0.202073 0
0.001395 -0.225596 0
-0.000079 -0.250120 0
-0.002146 -0.274912 0
-0.004601 -0.294942 0
-0.005213 -0.270510 0
0.000000 -0.119184 0
0.000000 0.102519 0
0.010643 0.245670 0
0.016046 0.283866 0
0.017722 0.270452 0
0.018459 0.247525 0
0.019149 0.224014 0
0.019897 0.201512 0
0.020653 0.180316 0
0.021355 0.160501 0
0.021959 0.142062 0
0.022444 0.124943 0
0.022801 0.109060 0
0.023031 0.094307 0
0.023140 0.080573 0
0.023136 0.067735 0
0.023028 0.055672 0
0.022827 0.044258 0
0.022546 0.033362 0
0.022196 0.022854 0
0.021781 0.012597 0
0.021290 0.002447 0
0.020706 -0.007713 0
0.020053 -0.017979 0
0.019358 -0.028481 0
0.018633 -0.039373 0
0.017883 -0.050807 0
0.017111 -0.062931 0
0.016322 -0.075895 0
0.015519 -0.089848 0
0.014705 -0.104939 0
0.013879 -0.121302 0
0.013025 -0.139051 0
0.012112 -0.158250 0
0.011075 -0.178896 0
0.009808 -0.200890 0