# vtk DataFile Version 2.0
generated by CFD-lab course output (written by Tobias Neckel) 
ASCII

DATASET STRUCTURED_GRID
DIMENSIONS  41 41 1 
POINTS 1681 float

0.150000 0.150000 0
0.167857 0.150000 0
0.185714 0.150000 0
0.203571 0.150000 0
0.221429 0.150000 0
0.239286 0.150000 0
0.257143 0.150000 0
0.275000 0.150000 0
0.292857 0.150000 0
0.310714 0.150000 0
0.328571 0.150000 0
0.346429 0.150000 0
0.364286 0.150000 0
0.382143 0.150000 0
0.400000 0.150000 0
0.417857 0.150000 0
0.435714 0.150000 0
0.453571 0.150000 0
0.471429 0.150000 0
0.489286 0.150000 0
0.507143 0.150000 0
0.525000 0.150000 0
0.542857 0.150000 0
0.560714 0.150000 0
0.578571 0.150000 0
0.596429 0.150000 0
0.614286 0.150000 0
0.632143 0.150000 0
0.650000 0.150000 0
0.667857 0.150000 0
0.685714 0.150000 0
0.703571 0.150000 0
0.721429 0.150000 0
0.739286 0.150000 0
0.757143 0.150000 0
0.775000 0.150000 0
0.792857 0.150000 0
0.810714 0.150000 0
0.828571 0.150000 0
0.846429 0.150000 0
0.864286 0.150000 0
0.150000 0.167857 0
0.167857 0.167857 0
0.185714 0.167857 0
0.203571 0.167857 0
0.221429 0.167857 0
0.239286 0.167857 0
0.257143 0.167857 0
0.275000 0.167857 0
0.292857 0.167857 0
0.310714 0.167857 0
0.328571 0.167857 0
0.346429 0.167857 0
0.364286 0.167857 0
0.382143 0.167857 0
0.400000 0.167857 0
0.417857 0.167857 0
0.435714 0.167857 0
0.453571 0.167857 0
0.471429 0.167857 0
0.489286 0.167857 0
0.507143 0.167857 0
0.525000 0.167857 0
0.542857 0.167857 0
0.560714 0.167857 0
0.578571 0.167857 0
0.596429 0.167857 0
0.614286 0.167857 0
0.632143 0.167857 0
0.650000 0.167857 0
0.667857 0.167857 0
0.685714 0.167857 0
0.703571 0.167857 0
0.721429 0.167857 0
0.739286 0.167857 0
0.757143 0.167857 0
0.775000 0.167857 0
0.792857 0.167857 0
0.810714 0.167857 0
0.828571 0.167857 0
0.846429 0.167857 0
0.864286 0.167857 0
0.150000 0.185714 0
0.167857 0.185714 0
0.185714 0.185714 0
0.203571 0.185714 0
0.221429 0.185714 0
0.239286 0.185714 0
0.257143 0.185714 0
0.275000 0.185714 0
0.292857 0.185714 0
0.310714 0.185714 0
0.328571 0.185714 0
0.346429 0.185714 0
0.364286 0.185714 0
0.382143 0.185714 0
0.400000 0.185714 0
0.417857 0.185714 0
0.435714 0.185714 0
0.453571 0.185714 0
0.471429 0.185714 0
0.489286 0.185714 0
0.507143 0.185714 0
0.525000 0.185714 0
0.542857 0.185714 0
0.560714 0.185714 0
0.578571 0.185714 0
0.596429 0.185714 0
0.614286 0.185714 0
0.632143 0.185714 0
0.650000 0.185714 0
0.667857 0.185714 0
0.685714 0.185714 0
0.703571 0.185714 0
0.721429 0.185714 0
0.739286 0.185714 0
0.757143 0.185714 0
0.775000 0.185714 0
0.792857 0.185714 0
0.810714 0.185714 0
0.828571 0.185714 0
0.846429 0.185714 0
0.864286 0.185714 0
0.150000 0.203571 0
0.167857 0.203571 0
0.185714 0.203571 0
0.203571 0.203571 0
0.221429 0.203571 0
0.239286 0.203571 0
0.257143 0.203571 0
0.275000 0.203571 0
0.292857 0.203571 0
0.310714 0.203571 0
0.328571 0.203571 0
0.346429 0.203571 0
0.364286 0.203571 0
0.382143 0.203571 0
0.400000 0.203571 0
0.417857 0.203571 0
0.435714 0.203571 0
0.453571 0.203571 0
0.471429 0.203571 0
0.489286 0.203571 0
0.507143 0.203571 0
0.525000 0.203571 0
0.542857 0.203571 0
0.560714 0.203571 0
0.578571 0.203571 0
0.596429 0.203571 0
0.614286 0.203571 0
0.632143 0.203571 0
0.650000 0.203571 0
0.667857 0.203571 0
0.685714 0.203571 0
0.703571 0.203571 0
0.721429 0.203571 0
0.739286 0.203571 0
0.757143 0.203571 0
0.775000 0.203571 0
0.792857 0.203571 0
0.810714 0.203571 0
0.828571 0.203571 0
0.846429 0.203571 0
0.864286 0.203571 0
0.150000 0.221429 0
0.167857 0.221429 0
0.185714 0.221429 0
0.203571 0.221429 0
0.221429 0.221429 0
0.239286 0.221429 0
0.257143 0.221429 0
0.275000 0.221429 0
0.292857 0.221429 0
0.310714 0.221429 0
0.328571 0.221429 0
0.346429 0.221429 0
0.364286 0.221429 0
0.382143 0.221429 0
0.400000 0.221429 0
0.417857 0.221429 0
0.435714 0.221429 0
0.453571 0.221429 0
0.471429 0.221429 0
0.489286 0.221429 0
0.507143 0.221429 0
0.525000 0.221429 0
0.542857 0.221429 0
0.560714 0.221429 0
0.578571 0.221429 0
0.596429 0.221429 0
0.614286 0.221429 0
0.632143 0.221429 0
0.650000 0.221429 0
0.667857 0.221429 0
0.685714 0.221429 0
0.703571 0.221429 0
0.721429 0.221429 0
0.739286 0.221429 0
0.757143 0.221429 0
0.775000 0.221429 0
0.792857 0.221429 0
0.810714 0.221429 0
0.828571 0.221429 0
0.846429 0.221429 0
0.864286 0.221429 0
0.150000 0.239286 0
0.167857 0.239286 0
0.185714 0.239286 0
0.203571 0.239286 0
0.221429 0.239286 0
0.239286 0.239286 0
0.257143 0.239286 0
0.275000 0.239286 0
0.292857 0.239286 0
0.310714 0.239286 0
0.328571 0.239286 0
0.346429 0.239286 0
0.364286 0.239286 0
0.382143 0.239286 0
0.400000 0.239286 0
0.417857 0.239286 0
0.435714 0.239286 0
0.453571 0.239286 0
0.471429 0.239286 0
0.489286 0.239286 0
0.507143 0.239286 0
0.525000 0.239286 0
0.542857 0.239286 0
0.560714 0.239286 0
0.578571 0.239286 0
0.596429 0.239286 0
0.614286 0.239286 0
0.632143 0.239286 0
0.650000 0.239286 0
0.667857 0.239286 0
0.685714 0.239286 0
0.703571 0.239286 0
0.721429 0.239286 0
0.739286 0.239286 0
0.757143 0.239286 0
0.775000 0.239286 0
0.792857 0.239286 0
0.810714 0.239286 0
0.828571 0.239286 0
0.846429 0.239286 0
0.864286 0.239286 0
0.150000 0.257143 0
0.167857 0.257143 0
0.185714 0.257143 0
0.203571 0.257143 0
0.221429 0.257143 0
0.239286 0.257143 0
0.257143 0.257143 0
0.275000 0.257143 0
0.292857 0.257143 0
0.310714 0.257143 0
0.328571 0.257143 0
0.346429 0.257143 0
0.364286 0.257143 0
0.382143 0.257143 0
0.400000 0.257143 0
0.417857 0.257143 0
0.435714 0.257143 0
0.453571 0.257143 0
0.471429 0.257143 0
0.489286 0.257143 0
0.507143 0.257143 0
0.525000 0.257143 0
0.542857 0.257143 0
0.560714 0.257143 0
0.578571 0.257143 0
0.596429 0.257143 0
0.614286 0.257143 0
0.632143 0.257143 0
0.650000 0.257143 0
0.667857 0.257143 0
0.685714 0.257143 0
0.703571 0.257143 0
0.721429 0.257143 0
0.739286 0.257143 0
0.757143 0.257143 0
0.775000 0.257143 0
0.792857 0.257143 0
0.810714 0.257143 0
0.828571 0.257143 0
0.846429 0.257143 0
0.864286 0.257143 0
0.150000 0.275000 0
0.167857 0.275000 0
0.185714 0.275000 0
0.203571 0.275000 0
0.221429 0.275000 0
0.239286 0.275000 0
0.257143 0.275000 0
0.275000 0.275000 0
0.292857 0.275000 0
0.310714 0.275000 0
0.328571 0.275000 0
0.346429 0.275000 0
0.364286 0.275000 0
0.382143 0.275000 0
0.400000 0.275000 0
0.417857 0.275000 0
0.435714 0.275000 0
0.453571 0.275000 0
0.471429 0.275000 0
0.489286 0.275000 0
0.507143 0.275000 0
0.525000 0.275000 0
0.542857 0.275000 0
0.560714 0.275000 0
0.578571 0.275000 0
0.596429 0.275000 0
0.614286 0.275000 0
0.632143 0.275000 0
0.650000 0.275000 0
0.667857 0.275000 0
0.685714 0.275000 0
0.703571 0.275000 0
0.721429 0.275000 0
0.739286 0.275000 0
0.757143 0.275000 0
0.775000 0.275000 0
0.792857 0.275000 0
0.810714 0.275000 0
0.828571 0.275000 0
0.846429 0.275000 0
0.864286 0.275000 0
0.150000 0.292857 0
0.167857 0.292857 0
0.185714 0.292857 0
0.203571 0.292857 0
0.221429 0.292857 0
0.239286 0.292857 0
0.257143 0.292857 0
0.275000 0.292857 0
0.292857 0.292857 0
0.310714 0.292857 0
0.328571 0.292857 0
0.346429 0.292857 0
0.364286 0.292857 0
0.382143 0.292857 0
0.400000 0.292857 0
0.417857 0.292857 0
0.435714 0.292857 0
0.453571 0.292857 0
0.471429 0.292857 0
0.489286 0.292857 0
0.507143 0.292857 0
0.525000 0.292857 0
0.542857 0.292857 0
0.560714 0.292857 0
0.578571 0.292857 0
0.596429 0.292857 0
0.614286 0.292857 0
0.632143 0.292857 0
0.650000 0.292857 0
0.667857 0.292857 0
0.685714 0.292857 0
0.703571 0.292857 0
0.721429 0.292857 0
0.739286 0.292857 0
0.757143 0.292857 0
0.775000 0.292857 0
0.792857 0.292857 0
0.810714 0.292857 0
0.828571 0.292857 0
0.846429 0.292857 0
0.864286 0.292857 0
0.150000 0.310714 0
0.167857 0.310714 0
0.185714 0.310714 0
0.203571 0.310714 0
0.221429 0.310714 0
0.239286 0.310714 0
0.257143 0.310714 0
0.275000 0.310714 0
0.292857 0.310714 0
0.310714 0.310714 0
0.328571 0.310714 0
0.346429 0.310714 0
0.364286 0.310714 0
0.382143 0.310714 0
0.400000 0.310714 0
0.417857 0.310714 0
0.435714 0.310714 0
0.453571 0.310714 0
0.471429 0.310714 0
0.489286 0.310714 0
0.507143 0.310714 0
0.525000 0.310714 0
0.542857 0.310714 0
0.560714 0.310714 0
0.578571 0.310714 0
0.596429 0.310714 0
0.614286 0.310714 0
0.632143 0.310714 0
0.650000 0.310714 0
0.667857 0.310714 0
0.685714 0.310714 0
0.703571 0.310714 0
0.721429 0.310714 0
0.739286 0.310714 0
0.757143 0.310714 0
0.775000 0.310714 0
0.792857 0.310714 0
0.810714 0.310714 0
0.828571 0.310714 0
0.846429 0.310714 0
0.864286 0.310714 0
0.150000 0.328571 0
0.167857 0.328571 0
0.185714 0.328571 0
0.203571 0.328571 0
0.221429 0.328571 0
0.239286 0.328571 0
0.257143 0.328571 0
0.275000 0.328571 0
0.292857 0.328571 0
0.310714 0.328571 0
0.328571 0.328571 0
0.346429 0.328571 0
0.364286 0.328571 0
0.382143 0.328571 0
0.400000 0.328571 0
0.417857 0.328571 0
0.435714 0.328571 0
0.453571 0.328571 0
0.471429 0.328571 0
0.489286 0.328571 0
0.507143 0.328571 0
0.525000 0.328571 0
0.542857 0.328571 0
0.560714 0.328571 0
0.578571 0.328571 0
0.596429 0.328571 0
0.614286 0.328571 0
0.632143 0.328571 0
0.650000 0.328571 0
0.667857 0.328571 0
0.685714 0.328571 0
0.703571 0.328571 0
0.721429 0.328571 0
0.739286 0.328571 0
0.757143 0.328571 0
0.775000 0.328571 0
0.792857 0.328571 0
0.810714 0.328571 0
0.828571 0.328571 0
0.846429 0.328571 0
0.864286 0.328571 0
0.150000 0.346429 0
0.167857 0.346429 0
0.185714 0.346429 0
0.203571 0.346429 0
0.221429 0.346429 0
0.239286 0.346429 0
0.257143 0.346429 0
0.275000 0.346429 0
0.292857 0.346429 0
0.310714 0.346429 0
0.328571 0.346429 0
0.346429 0.346429 0
0.364286 0.346429 0
0.382143 0.346429 0
0.400000 0.346429 0
0.417857 0.346429 0
0.435714 0.346429 0
0.453571 0.346429 0
0.471429 0.346429 0
0.489286 0.346429 0
0.507143 0.346429 0
0.525000 0.346429 0
0.542857 0.346429 0
0.560714 0.346429 0
0.578571 0.346429 0
0.596429 0.346429 0
0.614286 0.346429 0
0.632143 0.346429 0
0.650000 0.346429 0
0.667857 0.346429 0
0.685714 0.346429 0
0.703571 0.346429 0
0.721429 0.346429 0
0.739286 0.346429 0
0.757143 0.346429 0
0.775000 0.346429 0
0.792857 0.346429 0
0.810714 0.346429 0
0.828571 0.346429 0
0.846429 0.346429 0
[...]
POINT_DATA 1681 

VECTORS velocity float
0.000000 0.000000 0
0.006314 0.000000 0
0.012734 0.000000 0
0.015169 0.000000 0
0.014895 0.000000 0
0.014493 0.000000 0
0.012375 0.000000 0
0.016524 0.000000 0
0.022307 0.000000 0
0.012528 0.000000 0
-0.005529 0.000000 0
-0.025935 0.000000 0
-0.046812 0.000000 0
-0.067071 0.000000 0
-0.085962 0.000000 0
-0.103043 0.000000 0
-0.118145 0.000000 0
-0.131124 0.000000 0
-0.141940 0.000000 0
-0.150589 0.000000 0
-0.157085 0.000000 0
-0.161448 0.000000 0
-0.163681 0.000000 0
-0.163802 0.000000 0
-0.161685 0.000000 0
-0.157221 0.000000 0
-0.150346 0.000000 0
-0.140989 0.000000 0
-0.129088 0.000000 0
-0.114601 0.000000 0
-0.097613 0.000000 0
-0.078213 0.000000 0
-0.056674 0.000000 0
-0.033493 0.000000 0
-0.009504 0.000000 0
0.013858 0.000000 0
0.029249 0.000000 0
0.031832 0.000000 0
0.023749 0.000000 0
0.011207 0.000000 0
0.000000 0.000000 0
0.000000 -0.006314 0
0.016541 -0.012734 0
0.030227 -0.008856 0
0.035794 -0.002161 0
0.035029 0.000676 0
0.035338 0.002520 0
0.027473 -0.002031 0
0.008894 -0.009932 0
-0.015615 0.003996 0
-0.047555 0.027836 0
-0.086222 0.038464 0
-0.127148 0.041283 0
-0.167646 0.041136 0
-0.205946 0.039150 0
-0.240931 0.035972 0
-0.271966 0.032183 0
-0.298770 0.028081 0
-0.321212 0.023795 0
-0.339285 0.019465 0
-0.353040 0.015145 0
-0.362545 0.010859 0
-0.367861 0.006595 0
-0.369018 0.002354 0
-0.366003 -0.001995 0
-0.358762 -0.006581 0
-0.347219 -0.011339 0
-0.331251 -0.016231 0
-0.310723 -0.021258 0
-0.285513 -0.026388 0
-0.255553 -0.031475 0
-0.220901 -0.036388 0
-0.181767 -0.040939 0
-0.138688 -0.044720 0
-0.092731 -0.047170 0
-0.045860 -0.047352 0
-0.001585 -0.038752 0
0.033927 -0.017974 0
0.049751 0.005500 0
0.038380 0.020625 0
0.018029 0.023749 0
0.000000 0.011207 0
0.000000 -0.016541 0
0.019491 -0.030227 0
0.031225 -0.019252 0
0.035797 -0.004802 0
0.025390 0.000456 0
0.004671 0.007556 0
-0.023896 0.026444 0
-0.068973 0.043088 0
-0.122663 0.056448 0
-0.166206 0.070607 0
-0.205242 0.079593 0
-0.242370 0.081424 0
-0.276890 0.078798 0
-0.308061 0.073284 0
-0.335492 0.066020 0
-0.359005 0.057839 0
-0.378503 0.049245 0
-0.394064 0.040515 0
-0.405778 0.031829 0
-0.413748 0.023260 0
-0.418064 0.014821 0
-0.418783 0.006473 0
-0.415931 -0.001858 0
-0.409455 -0.010256 0
-0.399420 -0.018783 0
-0.385800 -0.027511 0
-0.368481 -0.036497 0
-0.347340 -0.045738 0
-0.322262 -0.055170 0
-0.293182 -0.064612 0
-0.260056 -0.073785 0
-0.223086 -0.082212 0
-0.182737 -0.089036 0
-0.139988 -0.092828 0
-0.096686 -0.091146 0
-0.055954 -0.079787 0
-0.017776 -0.051336 0
0.011984 -0.004453 0
0.017264 0.031722 0
0.007762 0.038380 0
0.000000 0.018029 0
0.000000 -0.025805 0
0.012501 -0.043958 0
0.012986 -0.025162 0
-0.002735 0.003674 0
-0.028659 0.031802 0
-0.069778 0.051805 0
-0.113870 0.071614 0
-0.156512 0.088835 0
-0.199345 0.101229 0
-0.238297 0.110416 0
-0.271633 0.114628 0
-0.301025 0.112931 0
-0.326932 0.106826 0
-0.349527 0.097752 0
-0.368938 0.086916 0
-0.385272 0.075194 0
-0.398596 0.063140 0
-0.409008 0.051070 0
-0.416579 0.039149 0
-0.421360 0.027431 0
-0.423375 0.015894 0
-0.422624 0.004463 0
-0.419079 -0.006974 0
-0.412708 -0.018507 0
-0.403460 -0.030237 0
-0.391232 -0.042278 0
-0.375925 -0.054691 0
-0.357428 -0.067476 0
-0.335639 -0.080546 0
-0.310485 -0.093682 0
-0.281934 -0.106484 0
-0.250100 -0.118258 0
-0.215287 -0.127818 0
-0.178092 -0.133221 0
-0.139517 -0.131385 0
-0.100959 -0.117662 0
-0.063856 -0.085913 0
-0.028136 -0.029540 0
0.000337 0.024848 0
-0.000972 0.041012 0
0.000000 0.018969 0
0.000000 -0.029042 0
-0.006502 -0.043213 0
-0.027314 -0.004017 0
-0.060154 0.036842 0
-0.093841 0.067499 0
-0.132166 0.092768 0
-0.172202 0.113179 0
-0.210011 0.128563 0
-0.245407 0.138233 0
-0.276940 0.142894 0
-0.303566 0.142321 0
-0.326175 0.136723 0
-0.345476 0.127299 0
-0.361985 0.115290 0
-0.376031 0.101766 0
-0.387804 0.087497 0
-0.397392 0.072982 0
-0.404840 0.058498 0
-0.410157 0.044180 0
-0.413332 0.030056 0
-0.414340 0.016085 0
-0.413142 0.002177 0
-0.409690 -0.011774 0
-0.403975 -0.025876 0
-0.395906 -0.040259 0
-0.385405 -0.055046 0
-0.372384 -0.070301 0
-0.356754 -0.086024 0
-0.338430 -0.102113 0
-0.317347 -0.118318 0
-0.293468 -0.134170 0
-0.266819 -0.148859 0
-0.237500 -0.161045 0
-0.205690 -0.168598 0
-0.171629 -0.168278 0
-0.135515 -0.155447 0
-0.097315 -0.124160 0
-0.056800 -0.068646 0
-0.014129 0.004559 0
-0.005048 0.038717 0
0.000000 0.017056 0
0.000000 -0.019302 0
-0.028431 -0.016644 0
-0.065064 0.028489 0
-0.099067 0.070201 0
-0.134972 0.103814 0
-0.171214 0.130166 0
-0.206561 0.149459 0
-0.239017 0.162040 0
-0.268077 0.168159 0
-0.293185 0.168575 0
-0.314149 0.163863 0
-0.331637 0.154841 0
-0.346317 0.142635 0
-0.358717 0.128307 0
-0.369170 0.112736 0
-0.377854 0.096555 0
-0.384846 0.080175 0
-0.390172 0.063834 0
-0.393832 0.047642 0
-0.395811 0.031614 0
-0.396087 0.015704 0
-0.394631 -0.000188 0
-0.391411 -0.016141 0
-0.386402 -0.032291 0
-0.379528 -0.048806 0
-0.370719 -0.065800 0
-0.359901 -0.083343 0
-0.347000 -0.101430 0
-0.331946 -0.119953 0
-0.314680 -0.138644 0
-0.295153 -0.157012 0
-0.273318 -0.174227 0
-0.249109 -0.188947 0
-0.222384 -0.199092 0
-0.192847 -0.201561 0
-0.159943 -0.191977 0
-0.122823 -0.164628 0
-0.080640 -0.112725 0
-0.034114 -0.026903 0
0.002703 0.026883 0
0.000000 0.013921 0
0.000000 -0.000611 0
-0.041272 0.021851 0
-0.082495 0.066619 0
-0.120562 0.106750 0
-0.157014 0.139646 0
-0.191196 0.164357 0
-0.222570 0.180981 0
-0.250345 0.190079 0
-0.274337 0.192402 0
-0.294532 0.188966 0
-0.311194 0.180773 0
-0.324922 0.168892 0
-0.336284 0.154380 0
-0.345721 0.138144 0
-0.353521 0.120902 0
-0.359850 0.103173 0
-0.364800 0.085299 0
-0.368418 0.067484 0
-0.370729 0.049819 0
-0.371744 0.032311 0
-0.371461 0.014905 0
-0.369869 -0.002498 0
-0.366953 -0.020002 0
-0.362655 -0.037759 0
-0.356920 -0.055942 0
-0.349681 -0.074672 0
-0.340868 -0.094020 0
-0.330412 -0.113979 0
-0.318252 -0.134433 0
-0.304328 -0.155111 0
-0.288582 -0.175533 0
-0.270926 -0.194903 0
-0.251199 -0.211978 0
-0.229082 -0.224859 0
-0.203985 -0.230719 0
-0.174940 -0.225472 0
-0.140614 -0.203463 0
-0.099641 -0.157355 0
-0.051314 -0.078785 0
0.006183 0.004602 0
0.000000 0.019759 0
0.000000 0.021969 0
-0.045541 0.065851 0
-0.089353 0.107779 0
-0.129124 0.144720 0
-0.165112 0.174448 0
-0.197185 0.195722 0
-0.225272 0.208608 0
-0.249277 0.213807 0
-0.269391 0.212345 0
-0.285939 0.205431 0
-0.299393 0.194254 0
-0.310302 0.179931 0
-0.319142 0.163434 0
-0.326284 0.145544 0
-0.331986 0.126865 0
-0.336423 0.107834 0
-0.339714 0.088743 0
-0.341943 0.069764 0
-0.343169 0.050968 0
-0.343428 0.032346 0
-0.342741 0.013829 0
-0.341109 -0.004696 0
-0.338519 -0.023356 0
-0.334916 -0.042324 0
-0.330242 -0.061780 0
-0.324424 -0.081852 0
-0.317387 -0.102611 0
-0.309059 -0.124047 0
-0.299371 -0.146037 0
-0.288260 -0.168313 0
-0.275657 -0.190414 0
-0.261458 -0.211609 0
-0.245474 -0.230791 0
-0.227337 -0.246306 0
-0.206374 -0.255703 0
-0.181469 -0.255348 0
-0.151017 -0.239926 0
-0.113199 -0.202025 0
-0.066986 -0.132728 0
-0.014679 -0.024431 0
0.000000 0.020103 0
0.000000 0.044930 0
-0.045131 0.111205 0
-0.089525 0.150202 0
-0.129008 0.182509 0
-0.163651 0.207707 0
-0.193512 0.224518 0
-0.218796 0.233074 0
-0.239788 0.234198 0
-0.256932 0.229064 0
-0.270737 0.218968 0
-0.281744 0.205135 0
-0.290456 0.188641 0
-0.297292 0.170363 0
-0.302581 0.150988 0
-0.306574 0.131041 0
-0.309463 0.110901 0
-0.311401 0.090820 0
-0.312502 0.070939 0
-0.312858 0.051304 0
-0.312532 0.031884 0
-0.311564 0.012586 0
-0.309966 -0.006720 0
-0.307728 -0.026196 0
-0.304796 -0.046037 0
-0.301103 -0.066435 0
-0.296566 -0.087526 0
-0.291097 -0.109385 0
-0.284607 -0.131995 0
-0.277014 -0.155231 0
-0.268237 -0.178826 0
-0.258195 -0.202335 0
-0.246779 -0.225086 0
-0.233807 -0.246099 0
-0.218949 -0.263959 0
-0.201603 -0.276587 0
-0.180749 -0.280829 0
-0.154859 -0.271732 0
-0.122102 -0.241386 0
-0.081492 -0.177304 0
-0.036400 -0.062383 0
0.000000 0.005080 0
0.000000 0.067100 0
-0.042836 0.155376 0
-0.085633 0.191656 0
-0.123392 0.218846 0
-0.155987 0.238953 0
-0.183507 0.250867 0
-0.206286 0.254884 0
-0.224787 0.251943 0
-0.239578 0.243295 0
-0.251237 0.230243 0
-0.260303 0.213972 0
-0.267242 0.195480 0
-0.272437 0.175559 0
-0.276197 0.154826 0
-0.278778 0.133748 0
-0.280391 0.112661 0
-0.281215 0.091782 0
-0.281395 0.071221 0
-0.281050 0.050998 0
-0.280270 0.031052 0
-0.279112 0.011262 0
-0.277602 -0.008531 0
-0.275731 -0.028525 0
-0.273441 -0.048949 0
-0.270654 -0.070010 0
-0.267272 -0.091858 0
-0.263188 -0.114570 0
-0.258293 -0.138130 0
-0.252480 -0.162407 0
-0.245651 -0.187132 0
-0.237703 -0.211873 0
-0.228520 -0.235997 0
-0.217934 -0.258620 0
-0.205673 -0.278511 0
-0.191258 -0.293903 0
-0.173860 -0.302091 0
-0.152131 -0.298574 0
-0.124171 -0.275391 0
-0.088089 -0.218429 0
-0.044008 -0.105924 0
0.000000 -0.016297 0
0.000000 0.087766 0
-0.039388 0.196838 0
-0.079325 0.230758 0
-0.114451 0.252862 0
-0.144511 0.267823 0
-0.169581 0.274816 0
-0.190025 0.274353 0
-0.206366 0.267490 0
-0.219196 0.255513 0
-0.229089 0.239692 0
-0.236555 0.221141 0
-0.242022 0.200775 0
-0.245846 0.179317 0
-0.248331 0.157329 0
-0.249734 0.135236 0
-0.250286 0.113338 0
-0.250184 0.091823 0
-0.249602 0.070774 0
-0.248687 0.050179 0
-0.247551 0.029945 0
-0.246273 0.009917 0
-0.244887 -0.010102 0
-0.243386 -0.030356 0
-0.241704 -0.051114 0
-0.239749 -0.072603 0
-0.237404 -0.094992 0
-0.234539 -0.118364 0
-0.231024 -0.142703 0
-0.226731 -0.167873 0
-0.221538 -0.193604 0
-0.215324 -0.219467 0
-0.207961 -0.244855 0
-0.199288 -0.268946 0
-0.189076 -0.290635 0
-0.176954 -0.308400 0
-0.162278 -0.319956 0
-0.143901 -0.321421 0
-0.119898 -0.305428 0
-0.087602 -0.257467 0
-0.045196 -0.150472 0
0.000000 -0.038929 0
0.000000 0.106488 0
-0.035256 0.234701 0
-0.071648 0.266719 0
-0.103624 0.284031 0
-0.130859 0.294082 0
-0.153407 0.296380 0
-0.171618 0.291669 0
-0.186002 0.281114 0
-0.197117 0.266018 0
-0.205493 0.247601 0
-0.211596 0.226905 0
-0.215815 0.204772 0
-0.218485 0.181868 0
-0.219898 0.158714 0
-0.220318 0.135703 0
-0.219982 0.113110 0
-0.219108 0.091098 0
-0.217894 0.069724 0
-0.216512 0.048947 0
-0.215101 0.028638 0
-0.213755 0.008597 0
-0.212518 -0.011418 0
-0.211381 -0.031708 0
-0.210267 -0.052586 0
-0.209064 -0.074311 0
-0.207636 -0.097067 0
-0.205831 -0.120949 0
-0.203497 -0.145938 0
-0.200489 -0.171893 0
-0.196668 -0.198539 0
-0.191901 -0.225449 0
-0.186048 -0.252033 0
-0.178948 -0.277506 0
-0.170396 -0.300845 0
-0.160096 -0.320701 0
-0.147558 -0.335144 0
-0.131868 -0.340953 0
-0.111285 -0.331690 0
-0.082919 -0.293131 0
-0.043929 -0.193525 0
0.000000 -0.061493 0
0.000000 0.123022 0
-0.030763 0.268486 0
-0.063271 0.299126 0
-0.091840 0.312072 0
-0.116109 0.317606 0
-0.136112 0.315576 0
-0.152164 0.306948 0
-0.164721 0.292988 0
-0.174282 0.275005 0
-0.181316 0.254171 0
-0.186233 0.231462 0
-0.189386 0.207664 0
-0.191082 0.183401 0
-0.191603 0.159162 0
-0.191207 0.135319 0
-0.190138 0.112128 0
-0.188628 0.089736 0
-0.186896 0.068179 0
-0.185139 0.047385 0
-0.183518 0.027188 0
-0.182146 0.007335 0
-0.181076 -0.012475 0
-0.180288 -0.032608 0
-0.179691 -0.053431 0
-0.179155 -0.075234 0
-0.178517 -0.098225 0
-0.177608 -0.122503 0
-0.176261 -0.148045 0
-0.174317 -0.174702 0
-0.171631 -0.202191 0
-0.168064 -0.230087 0
-0.163473 -0.257809 0
-0.157700 -0.284598 0
-0.150552 -0.309487 0
-0.141780 -0.331237 0
-0.131005 -0.348184 0
-0.117543 -0.357694 0
-0.099977 -0.354377 0
-0.075573 -0.324823 0
-0.040881 -0.233391 0
0.000000 -0.082858 0
0.000000 0.137251 0
-0.026117 0.297972 0
-0.054610 0.327796 0
-0.079684 0.336869 0
-0.100948 0.338354 0
-0.118426 0.332436 0
-0.132383 0.320278 0
-0.143213 0.303233 0
-0.151342 0.282614 0
-0.157169 0.259552 0
-0.161049 0.234974 0
-0.163293 0.209621 0
-0.164183 0.184085 0
-0.163977 0.158838 0
-0.162927 0.134238 0
-0.161274 0.110532 0
-0.159262 0.087857 0
-0.157123 0.066235 0
-0.155077 0.045568 0
-0.153307 0.025645 0
-0.151944 0.006155 0
-0.151046 -0.013277 0
-0.150582 -0.033093 0
-0.150443 -0.053719 0
-0.150472 -0.075485 0
-0.150487 -0.098614 0
-0.150302 -0.123206 0
-0.149742 -0.149230 0
-0.148646 -0.176523 0
-0.146871 -0.204792 0
-0.144282 -0.233607 0
-0.140745 -0.262398 0
-0.136110 -0.290427 0
-0.130198 -0.316766 0
-0.122790 -0.340248 0
-0.113588 -0.359380 0
-0.102101 -0.371981 0
-0.087276 -0.373661 0
-0.066764 -0.352228 0
-0.036827 -0.269098 0
0.000000 -0.102374 0
0.000000 0.149139 0
-0.021441 0.323097 0
-0.045911 0.352692 0
-0.067502 0.358410 0
-0.085792 0.356348 0
-0.100795 0.347011 0
-0.112729 0.331736 0
-0.121919 0.311947 0
-0.128718 0.288960 0
-0.133458 0.263878 0
-0.136437 0.237587 0
-0.137925 0.210798 0
-0.138170 0.184084 0
-0.137407 0.157906 0
-0.135870 0.132616 0
-0.133794 0.108464 0
-0.131421 0.085585 0
-0.128994 0.063993 0
-0.126748 0.043569 0
-0.124889 0.024056 0
-0.123564 0.005075 0
-0.122835 -0.013838 0
-0.122655 -0.033212 0
-0.122893 -0.053541 0
-0.123366 -0.075190 0
-0.123877 -0.098395 0
-0.124229 -0.123248 0
-0.124248 -0.149701 0
-0.123784 -0.177573 0
-0.122704 -0.206555 0
-0.120890 -0.236213 0
-0.118222 -0.265981 0
-0.114571 -0.295145 0
-0.109777 -0.322806 0
-0.103649 -0.347847 0
-0.095947 -0.368873 0
-0.086327 -0.384006 0
-0.074067 -0.389714 0
-0.057301 -0.375273 0
-0.032262 -0.300155 0
0.000000 -0.119684 0
0.000000 0.158692 0
-0.016794 0.343884 0
-0.037301 0.373857 0
-0.055480 0.376750 0
-0.070866 0.371647 0
-0.083467 0.359373 0
-0.093455 0.341402 0
-0.101092 0.319222 0
-0.106658 0.294152 0
-0.110425 0.267272 0
-0.112637 0.239442 0
-0.113519 0.211353 0
-0.113285 0.183567 0
-0.112143 0.156538 0
-0.110301 0.130625 0
-0.107979 0.106083 0
-0.105408 0.083057 0
-0.102831 0.061563 0
-0.100489 0.041464 0
-0.098604 0.022461 0
-0.097340 0.004101 0
-0.096762 -0.014186 0
-0.096807 -0.033035 0
-0.097315 -0.053008 0
-0.098084 -0.074501 0
-0.098905 -0.097751 0
-0.099587 -0.122834 0
-0.099969 -0.149675 0
-0.099918 -0.178067 0
-0.099326 -0.207686 0
-0.098097 -0.238089 0
-0.096136 -0.268717 0
-0.093338 -0.298872 0
-0.089573 -0.327687 0
-0.084680 -0.354078 0
-0.078467 -0.376703 0
-0.070693 -0.393861 0
-0.060898 -0.402687 0
-0.047705 -0.394033 0
-0.027515 -0.326399 0
0.000000 -0.134636 0
0.000000 0.165933 0
-0.012199 0.360397 0
-0.028826 0.391378 0
-0.043691 0.391975 0
-0.056263 0.384335 0
-0.066546 0.369601 0
-0.074671 0.349360 0
-0.080839 0.325150 0
-0.085270 0.298293 0
-0.088175 0.269856 0
-0.089749 0.240682 0
-0.090177 0.211447 0
-0.089635 0.182708 0
-0.088299 0.154921 0
-0.086350 0.128453 0
-0.083981 0.103571 0
-0.081402 0.080437 0
-0.078838 0.059074 0
-0.076524 0.039342 0
-0.074686 0.020906 0
-0.073502 0.003233 0
-0.073044 -0.014371 0
-0.073226 -0.032659 0
-0.073864 -0.052263 0
-0.074744 -0.073600 0
-0.075662 -0.096892 0
-0.076448 -0.122184 0
-0.076966 -0.149370 0
-0.077115 -0.178216 0
-0.076815 -0.208376 0
-0.075999 -0.239403 0
-0.074602 -0.270740 0
-0.072549 -0.301708 0
-0.069741 -0.331465 0
-0.066055 -0.358953 0
-0.061343 -0.382861 0
-0.055437 -0.401575 0
-0.048061 -0.412702 0
-0.038273 -0.408655 0
-0.022782 -0.347860 0
0.000000 -0.147200 0
0.000000 0.170890 0
-0.007652 0.372710 0
-0.020485 0.405350 0
-0.032135 0.404186 0
-0.041987 0.394502 0
-0.050037 0.377781 0
-0.056380 0.355695 0
-0.061163 0.329821 0
-0.064550 0.301487 0
-0.066698 0.271751 0
-0.067759 0.241445 0
-0.067877 0.211239 0
-0.067193 0.181688 0
-0.065849 0.153252 0
-0.063996 0.126307 0
-0.061793 0.101135 0
-0.059415 0.077914 0
-0.057054 0.056685 0
-0.054919 0.037312 0
-0.053219 0.019440 0
-0.052136 0.002460 0
-0.051749 -0.014462 0
-0.051949 -0.032215 0
-0.052539 -0.051489 0
-0.053311 -0.072703 0
-0.054090 -0.096048 0
-0.054744 -0.121530 0
-0.055176 -0.149007 0
-0.055322 -0.178219 0
-0.055138 -0.208801 0
-0.054587 -0.240301 0
-0.053635 -0.272167 0
-0.052238 -0.303734 0
-0.050333 -0.334181 0
-0.047836 -0.362476 0
-0.044642 -0.387321 0
-0.040639 -0.407143 0
-0.035672 -0.419851 0
-0.029143 -0.419312 0
-0.018161 -0.364672 0
0.000000 -0.157418 0
0.000000 0.173585 0
-0.003160 0.380882 0
-0.012235 0.415860 0
-0.020758 0.413477 0
-0.027975 0.402237 0
-0.033872 0.383994 0
-0.038508 0.360487 0
-0.041981 0.333319 0
-0.044405 0.303828 0
-0.045890 0.273066 0
-0.046547 0.241861 0
-0.046483 0.210881 0
-0.045805 0.180680 0
-0.044625 0.151724 0
-0.043056 0.124396 0
-0.041224 0.098990 0
-0.039259 0.075699 0
-0.037305 0.054578 0
-0.035519 0.035506 0
-0.034070 0.018123 0
-0.033118 0.001764 0
-0.032738 -0.014557 0
-0.032803 -0.031870 0
-0.033133 -0.050902 0
-0.033559 -0.072049 0
-0.033962 -0.095460 0
-0.034260 -0.121099 0
-0.034408 -0.148791 0
-0.034380 -0.178254 0
-0.034166 -0.209111 0
-0.033763 -0.240905 0
-0.033166 -0.273089 0
-0.032360 -0.305010 0
-0.031321 -0.335866 0
-0.030002 -0.364644 0
-0.028343 -0.390058 0
-0.026279 -0.410546 0
-0.023728 -0.424198 0
-0.020345 -0.426166 0
-0.013684 -0.377003 0
0.000000 -0.165360 0
0.000000 0.174051 0
0.001209 0.384945 0
-0.003991 0.422948 0
-0.009462 0.419926 0
-0.014127 0.407616 0
-0.017936 0.388314 0
-0.020927 0.363805 0
-0.023153 0.335718 0
-0.024680 0.305396 0
-0.025576 0.273893 0
-0.025914 0.242037 0
-0.025766 0.210497 0
-0.025209 0.179830 0
-0.024322 0.150503 0
-0.023188 0.122906 0
-0.021891 0.097337 0
-0.020516 0.073995 0
-0.019150 0.052945 0
-0.017881 0.034077 0
-0.016809 0.017039 0
-0.016040 0.001128 0
-0.015578 -0.014778 0
-0.015333 -0.031820 0
-0.015185 -0.050733 0
-0.015048 -0.071874 0
-0.014874 -0.095347 0
-0.014643 -0.121084 0
-0.014358 -0.148888 0
-0.014033 -0.178460 0
-0.013692 -0.209418 0
-0.013360 -0.241302 0
-0.013060 -0.273570 0
-0.012809 -0.305579 0
-0.012615 -0.336539 0
-0.012473 -0.365453 0
-0.012367 -0.391045 0
-0.012271 -0.411759 0
-0.012156 -0.425785 0
-0.011841 -0.429355 0
-0.009344 -0.385016 0
0.000000 -0.171102 0
0.000000 0.172376 0
0.005473 0.384873 0
0.004293 0.426531 0
0.001854 0.423613 0
-0.000305 0.410711 0
-0.002077 0.390794 0
-0.003470 0.365704 0
-0.004496 0.337072 0
-0.005172 0.306251 0
-0.005528 0.274300 0
-0.005597 0.242050 0
-0.005422 0.210176 0
-0.005051 0.179237 0
-0.004531 0.149704 0
-0.003914 0.121965 0
-0.003246 0.096318 0
-0.002565 0.072957 0
-0.001898 0.051943 0
-0.001261 0.033165 0
-0.000656 0.016282 0
-0.000072 0.000533 0
0.000555 -0.015264 0
0.001256 -0.032263 0
0.002032 -0.051186 0
0.002865 -0.072360 0
0.003727 -0.095865 0
0.004575 -0.121615 0
0.005363 -0.149402 0
0.006039 -0.178920 0
0.006548 -0.209784 0
0.006838 -0.241537 0
0.006858 -0.273640 0
0.006562 -0.305455 0
0.005909 -0.336202 0
0.004865 -0.364893 0
0.003403 -0.390260 0
0.001506 -0.410757 0
-0.000838 -0.424628 0
-0.003547 -0.428978 0
-0.005099 -0.388843 0
0.000000 -0.174704 0
0.000000 0.168577 0
0.009754 0.380652 0
0.012667 0.426567 0
0.013289 0.424524 0
0.013620 0.411546 0
0.013854 0.391479 0
0.014031 0.366224 0
0.014183 0.337420 0
0.014336 0.306428 0
0.014505 0.274318 0
0.014690 0.241932 0
0.014881 0.209951 0
0.015060 0.178939 0
0.015207 0.149367 0
0.015306 0.121620 0
0.015349 0.095988 0
0.015344 0.072648 0
0.015325 0.051641 0
0.015353 0.032835 0
0.015528 0.015850 0
0.015989 -0.000084 0
0.016821 -0.016106 0
0.017996 -0.033296 0
0.019404 -0.052343 0
0.020927 -0.073568 0
0.022463 -0.097056 0
0.023914 -0.122720 0
0.025189 -0.150352 0
0.026198 -0.179645 0
0.026858 -0.210217 0
0.027087 -0.241612 0
0.026807 -0.273294 0
0.025941 -0.304630 0
0.024416 -0.334842 0
0.022157 -0.362947 0
0.019095 -0.387685 0
0.015171 -0.407518 0
0.010345 -0.420732 0
0.004646 -0.425095 0
-0.000875 -0.388563 0
0.000000 -0.176201 0
0.000000 0.162622 0
0.014125 0.372206 0
0.021241 0.422997 0
0.024967 0.422660 0
0.027760 0.410145 0
0.029979 0.390383 0
0.031713 0.365376 0
0.033039 0.336767 0
0.034028 0.305929 0
0.034737 0.273946 0
0.035204 0.241674 0
0.035449 0.209806 0
0.035488 0.178910 0
0.035332 0.149457 0
0.034998 0.121823 0
0.034522 0.096280 0
0.033961 0.072981 0
0.033409 0.051934 0
0.032996 0.032962 0
0.032898 0.015646 0
0.033305 -0.000759 0
0.034320 -0.017272 0
0.035869 -0.034845 0
0.037776 -0.054117 0
0.039860 -0.075419 0
0.041951 -0.098852 0
0.043899 -0.124341 0
0.045566 -0.151685 0
0.046827 -0.180589 0
0.047565 -0.210673 0
0.047670 -0.241486 0
0.047033 -0.272494 0
0.045545 -0.303064 0
0.043096 -0.332418 0
0.039573 -0.359572 0
0.034860 -0.383274 0