# vtk DataFile Version 2.0
generated by CFD-lab course output (written by Tobias Neckel) 
ASCII

DATASET STRUCTURED_GRID
DIMENSIONS  41 41 1 
POINTS 1681 float

0.150000 0.150000 0
0.167857 0.150000 0
0.185714 0.150000 0
0.203571 0.150000 0
0.221429 0.150000 0
0.239286 0.150000 0
0.257143 0.150000 0
0.275000 0.150000 0
0.292857 0.150000 0
0.310714 0.150000 0
0.328571 0.150000 0
0.346429 0.150000 0
0.364286 0.150000 0
0.382143 0.150000 0
0.400000 0.150000 0
0.417857 0.150000 0
0.435714 0.150000 0
0.453571 0.150000 0
0.471429 0.150000 0
0.489286 0.150000 0
0.507143 0.150000 0
0.525000 0.150000 0
0.542857 0.150000 0
0.560714 0.150000 0
0.578571 0.150000 0
0.596429 0.150000 0
0.614286 0.150000 0
0.632143 0.150000 0
0.650000 0.150000 0
0.667857 0.150000 0
0.685714 0.150000 0
0.703571 0.150000 0
0.721429 0.150000 0
0.739286 0.150000 0
0.757143 0.150000 0
0.775000 0.150000 0
0.792857 0.150000 0
0.810714 0.150000 0
0.828571 0.150000 0
0.846429 0.150000 0
0.864286 0.150000 0
0.150000 0.167857 0
0.167857 0.167857 0
0.185714 0.167857 0
0.203571 0.167857 0
0.221429 0.167857 0
0.239286 0.167857 0
0.257143 0.167857 0
0.275000 0.167857 0
0.292857 0.167857 0
0.310714 0.167857 0
0.328571 0.167857 0
0.346429 0.167857 0
0.364286 0.167857 0
0.382143 0.167857 0
0.400000 0.167857 0
0.417857 0.167857 0
0.435714 0.167857 0
0.453571 0.167857 0
0.471429 0.167857 0
0.489286 0.167857 0
0.507143 0.167857 0
0.525000 0.167857 0
0.542857 0.167857 0
0.560714 0.167857 0
0.578571 0.167857 0
0.596429 0.167857 0
0.614286 0.167857 0
0.632143 0.167857 0
0.650000 0.167857 0
0.667857 0.167857 0
0.685714 0.167857 0
0.703571 0.167857 0
0.721429 0.167857 0
0.739286 0.167857 0
0.757143 0.167857 0
0.775000 0.167857 0
0.792857 0.167857 0
0.810714 0.167857 0
0.828571 0.167857 0
0.846429 0.167857 0
0.864286 0.167857 0
0.150000 0.185714 0
0.167857 0.185714 0
0.185714 0.185714 0
0.203571 0.185714 0
0.221429 0.185714 0
0.239286 0.185714 0
0.257143 0.185714 0
0.275000 0.185714 0
0.292857 0.185714 0
0.310714 0.185714 0
0.328571 0.185714 0
0.346429 0.185714 0
0.364286 0.185714 0
0.382143 0.185714 0
0.400000 0.185714 0
0.417857 0.185714 0
0.435714 0.185714 0
0.453571 0.185714 0
0.471429 0.185714 0
0.489286 0.185714 0
0.507143 0.185714 0
0.525000 0.185714 0
0.542857 0.185714 0
0.560714 0.185714 0
0.578571 0.185714 0
0.596429 0.185714 0
0.614286 0.185714 0
0.632143 0.185714 0
0.650000 0.185714 0
0.667857 0.185714 0
0.685714 0.185714 0
0.703571 0.185714 0
0.721429 0.185714 0
0.739286 0.185714 0
0.757143 0.185714 0
0.775000 0.185714 0
0.792857 0.185714 0
0.810714 0.185714 0
0.828571 0.185714 0
0.846429 0.185714 0
0.864286 0.185714 0
0.150000 0.203571 0
0.167857 0.203571 0
0.185714 0.203571 0
0.203571 0.203571 0
0.221429 0.203571 0
0.239286 0.203571 0
0.257143 0.203571 0
0.275000 0.203571 0
0.292857 0.203571 0
0.310714 0.203571 0
0.328571 0.203571 0
0.346429 0.203571 0
0.364286 0.203571 0
0.382143 0.203571 0
0.400000 0.203571 0
0.417857 0.203571 0
0.435714 0.203571 0
0.453571 0.203571 0
0.471429 0.203571 0
0.489286 0.203571 0
0.507143 0.203571 0
0.525000 0.203571 0
0.542857 0.203571 0
0.560714 0.203571 0
0.578571 0.203571 0
0.596429 0.203571 0
0.614286 0.203571 0
0.632143 0.203571 0
0.650000 0.203571 0
0.667857 0.203571 0
0.685714 0.203571 0
0.703571 0.203571 0
0.721429 0.203571 0
0.739286 0.203571 0
0.757143 0.203571 0
0.775000 0.203571 0
0.792857 0.203571 0
0.810714 0.203571 0
0.828571 0.203571 0
0.846429 0.203571 0
0.864286 0.203571 0
0.150000 0.221429 0
0.167857 0.221429 0
0.185714 0.221429 0
0.203571 0.221429 0
0.221429 0.221429 0
0.239286 0.221429 0
0.257143 0.221429 0
0.275000 0.221429 0
0.292857 0.221429 0
0.310714 0.221429 0
0.328571 0.221429 0
0.346429 0.221429 0
0.364286 0.221429 0
0.382143 0.221429 0
0.400000 0.221429 0
0.417857 0.221429 0
0.435714 0.221429 0
0.453571 0.221429 0
0.471429 0.221429 0
0.489286 0.221429 0
0.507143 0.221429 0
0.525000 0.221429 0
0.542857 0.221429 0
0.560714 0.221429 0
0.578571 0.221429 0
0.596429 0.221429 0
0.614286 0.221429 0
0.632143 0.221429 0
0.650000 0.221429 0
0.667857 0.221429 0
0.685714 0.221429 0
0.703571 0.221429 0
0.721429 0.221429 0
0.739286 0.221429 0
0.757143 0.221429 0
0.775000 0.221429 0
0.792857 0.221429 0
0.810714 0.221429 0
0.828571 0.221429 0
0.846429 0.221429 0
0.864286 0.221429 0
0.150000 0.239286 0
0.167857 0.239286 0
0.185714 0.239286 0
0.203571 0.239286 0
0.221429 0.239286 0
0.239286 0.239286 0
0.257143 0.239286 0
0.275000 0.239286 0
0.292857 0.239286 0
0.310714 0.239286 0
0.328571 0.239286 0
0.346429 0.239286 0
0.364286 0.239286 0
0.382143 0.239286 0
0.400000 0.239286 0
0.417857 0.239286 0
0.435714 0.239286 0
0.453571 0.239286 0
0.471429 0.239286 0
0.489286 0.239286 0
0.507143 0.239286 0
0.525000 0.239286 0
0.542857 0.239286 0
0.560714 0.239286 0
0.578571 0.239286 0
0.596429 0.239286 0
0.614286 0.239286 0
0.632143 0.239286 0
0.650000 0.239286 0
0.667857 0.239286 0
0.685714 0.239286 0
0.703571 0.239286 0
0.721429 0.239286 0
0.739286 0.239286 0
0.757143 0.239286 0
0.775000 0.239286 0
0.792857 0.239286 0
0.810714 0.239286 0
0.828571 0.239286 0
0.846429 0.239286 0
0.864286 0.239286 0
0.150000 0.257143 0
0.167857 0.257143 0
0.185714 0.257143 0
0.203571 0.257143 0
0.221429 0.257143 0
0.239286 0.257143 0
0.257143 0.257143 0
0.275000 0.257143 0
0.292857 0.257143 0
0.310714 0.257143 0
0.328571 0.257143 0
0.346429 0.257143 0
0.364286 0.257143 0
0.382143 0.257143 0
0.400000 0.257143 0
0.417857 0.257143 0
0.435714 0.257143 0
0.453571 0.257143 0
0.471429 0.257143 0
0.489286 0.257143 0
0.507143 0.257143 0
0.525000 0.257143 0
0.542857 0.257143 0
0.560714 0.257143 0
0.578571 0.257143 0
0.596429 0.257143 0
0.614286 0.257143 0
0.632143 0.257143 0
0.650000 0.257143 0
0.667857 0.257143 0
0.685714 0.257143 0
0.703571 0.257143 0
0.721429 0.257143 0
0.739286 0.257143 0
0.757143 0.257143 0
0.775000 0.257143 0
0.792857 0.257143 0
0.810714 0.257143 0
0.828571 0.257143 0
0.846429 0.257143 0
0.864286 0.257143 0
0.150000 0.275000 0
0.167857 0.275000 0
0.185714 0.275000 0
0.203571 0.275000 0
0.221429 0.275000 0
0.239286 0.275000 0
0.257143 0.275000 0
0.275000 0.275000 0
0.292857 0.275000 0
0.310714 0.275000 0
0.328571 0.275000 0
0.346429 0.275000 0
0.364286 0.275000 0
0.382143 0.275000 0
0.400000 0.275000 0
0.417857 0.275000 0
0.435714 0.275000 0
0.453571 0.275000 0
0.471429 0.275000 0
0.489286 0.275000 0
0.507143 0.275000 0
0.525000 0.275000 0
0.542857 0.275000 0
0.560714 0.275000 0
0.578571 0.275000 0
0.596429 0.275000 0
0.614286 0.275000 0
0.632143 0.275000 0
0.650000 0.275000 0
0.667857 0.275000 0
0.685714 0.275000 0
0.703571 0.275000 0
0.721429 0.275000 0
0.739286 0.275000 0
0.757143 0.275000 0
0.775000 0.275000 0
0.792857 0.275000 0
0.810714 0.275000 0
0.828571 0.275000 0
0.846429 0.275000 0
0.864286 0.275000 0
0.150000 0.292857 0
0.167857 0.292857 0
0.185714 0.292857 0
0.203571 0.292857 0
0.221429 0.292857 0
0.239286 0.292857 0
0.257143 0.292857 0
0.275000 0.292857 0
0.292857 0.292857 0
0.310714 0.292857 0
0.328571 0.292857 0
0.346429 0.292857 0
0.364286 0.292857 0
0.382143 0.292857 0
0.400000 0.292857 0
0.417857 0.292857 0
0.435714 0.292857 0
0.453571 0.292857 0
0.471429 0.292857 0
0.489286 0.292857 0
0.507143 0.292857 0
0.525000 0.292857 0
0.542857 0.292857 0
0.560714 0.292857 0
0.578571 0.292857 0
0.596429 0.292857 0
0.614286 0.292857 0
0.632143 0.292857 0
0.650000 0.292857 0
0.667857 0.292857 0
0.685714 0.292857 0
0.703571 0.292857 0
0.721429 0.292857 0
0.739286 0.292857 0
0.757143 0.292857 0
0.775000 0.292857 0
0.792857 0.292857 0
0.810714 0.292857 0
0.828571 0.292857 0
0.846429 0.292857 0
0.864286 0.292857 0
0.150000 0.310714 0
0.167857 0.310714 0
0.185714 0.310714 0
0.203571 0.310714 0
0.221429 0.310714 0
0.239286 0.310714 0
0.257143 0.310714 0
0.275000 0.310714 0
0.292857 0.310714 0
0.310714 0.310714 0
0.328571 0.310714 0
0.346429 0.310714 0
0.364286 0.310714 0
0.382143 0.310714 0
0.400000 0.310714 0
0.417857 0.310714 0
0.435714 0.310714 0
0.453571 0.310714 0
0.471429 0.310714 0
0.489286 0.310714 0
0.507143 0.310714 0
0.525000 0.310714 0
0.542857 0.310714 0
0.560714 0.310714 0
0.578571 0.310714 0
0.596429 0.310714 0
0.614286 0.310714 0
0.632143 0.310714 0
0.650000 0.310714 0
0.667857 0.310714 0
0.685714 0.310714 0
0.703571 0.310714 0
0.721429 0.310714 0
0.739286 0.310714 0
0.757143 0.310714 0
0.775000 0.310714 0
0.792857 0.310714 0
0.810714 0.310714 0
0.828571 0.310714 0
0.846429 0.310714 0
0.864286 0.310714 0
0.150000 0.328571 0
0.167857 0.328571 0
0.185714 0.328571 0
0.203571 0.328571 0
0.221429 0.328571 0
0.239286 0.328571 0
0.257143 0.328571 0
0.275000 0.328571 0
0.292857 0.328571 0
0.310714 0.328571 0
0.328571 0.328571 0
0.346429 0.328571 0
0.364286 0.328571 0
0.382143 0.328571 0
0.400000 0.328571 0
0.417857 0.328571 0
0.435714 0.328571 0
0.453571 0.328571 0
0.471429 0.328571 0
0.489286 0.328571 0
0.507143 0.328571 0
0.525000 0.328571 0
0.542857 0.328571 0
0.560714 0.328571 0
0.578571 0.328571 0
0.596429 0.328571 0
0.614286 0.328571 0
0.632143 0.328571 0
0.650000 0.328571 0
0.667857 0.328571 0
0.685714 0.328571 0
0.703571 0.328571 0
0.721429 0.328571 0
0.739286 0.328571 0
0.757143 0.328571 0
0.775000 0.328571 0
0.792857 0.328571 0
0.810714 0.328571 0
0.828571 0.328571 0
0.846429 0.328571 0
0.864286 0.328571 0
0.150000 0.346429 0
0.167857 0.346429 0
0.185714 0.346429 0
0.203571 0.346429 0
0.221429 0.346429 0
0.239286 0.346429 0
0.257143 0.346429 0
0.275000 0.346429 0
0.292857 0.346429 0
0.310714 0.346429 0
0.328571 0.346429 0
0.346429 0.346429 0
0.364286 0.346429 0
0.382143 0.346429 0
0.400000 0.346429 0
0.417857 0.346429 0
0.435714 0.346429 0
0.453571 0.346429 0
0.471429 0.346429 0
0.489286 0.346429 0
0.507143 0.346429 0
0.525000 0.346429 0
0.542857 0.346429 0
0.560714 0.346429 0
0.578571 0.346429 0
0.596429 0.346429 0
0.614286 0.346429 0
0.632143 0.346429 0
0.650000 0.346429 0
0.667857 0.346429 0
0.685714 0.346429 0
0.703571 0.346429 0
0.721429 0.346429 0
0.739286 0.346429 0
0.757143 0.346429 0
0.775000 0.346429 0
0.792857 0.346429 0
0.810714 0.346429 0
0.828571 0.346429 0
0.846429 0.346429 0
[...]
POINT_DATA 1681 

VECTORS velocity float
0.000000 0.000000 0
0.004784 0.000000 0
0.011049 0.000000 0
0.013976 0.000000 0
0.014923 0.000000 0
0.013685 0.000000 0
0.012403 0.000000 0
0.017304 0.000000 0
0.018508 0.000000 0
0.008777 0.000000 0
-0.006882 0.000000 0
-0.024289 0.000000 0
-0.042174 0.000000 0
-0.059548 0.000000 0
-0.075788 0.000000 0
-0.090518 0.000000 0
-0.103627 0.000000 0
-0.114993 0.000000 0
-0.124589 0.000000 0
-0.132413 0.000000 0
-0.138480 0.000000 0
-0.142802 0.000000 0
-0.145378 0.000000 0
-0.146232 0.000000 0
-0.145257 0.000000 0
-0.142270 0.000000 0
-0.137181 0.000000 0
-0.129876 0.000000 0
-0.120252 0.000000 0
-0.108220 0.000000 0
-0.093812 0.000000 0
-0.077047 0.000000 0
-0.058116 0.000000 0
-0.037426 0.000000 0
-0.015738 0.000000 0
0.005589 0.000000 0
0.021554 0.000000 0
0.026311 0.000000 0
0.019787 0.000000 0
0.009043 0.000000 0
0.000000 0.000000 0
0.000000 -0.004784 0
0.013174 -0.011049 0
0.026043 -0.009192 0
0.031425 -0.003874 0
0.033616 0.000291 0
0.030912 0.002520 0
0.019844 -0.003618 0
0.002180 -0.006106 0
-0.020266 0.008527 0
-0.049233 0.025391 0
-0.083091 0.033066 0
-0.118517 0.035292 0
-0.153439 0.035260 0
-0.186407 0.033613 0
-0.216513 0.030970 0
-0.243254 0.027839 0
-0.266434 0.024474 0
-0.285971 0.020962 0
-0.301885 0.017420 0
-0.314236 0.013891 0
-0.323092 0.010389 0
-0.328506 0.006899 0
-0.330498 0.003430 0
-0.329041 -0.000121 0
-0.324031 -0.003962 0
-0.315361 -0.008076 0
-0.302844 -0.012394 0
-0.286281 -0.016929 0
-0.265474 -0.021656 0
-0.240263 -0.026441 0
-0.210598 -0.031173 0
-0.176554 -0.035696 0
-0.138491 -0.039621 0
-0.097253 -0.042378 0
-0.054489 -0.043015 0
-0.013210 -0.037292 0
0.021270 -0.020723 0
0.040244 0.001768 0
0.031745 0.017268 0
0.014614 0.019787 0
0.000000 0.009043 0
0.000000 -0.013174 0
0.015495 -0.026043 0
0.025215 -0.018251 0
0.025850 -0.007573 0
0.013575 0.000513 0
-0.005644 0.013772 0
-0.034094 0.028732 0
-0.076473 0.040111 0
-0.120483 0.051413 0
-0.157997 0.062824 0
-0.192160 0.069284 0
-0.224513 0.070348 0
-0.254259 0.067890 0
-0.280930 0.063074 0
-0.304259 0.056847 0
-0.324166 0.049921 0
-0.340614 0.042717 0
-0.353733 0.035451 0
-0.363644 0.028265 0
-0.370475 0.021206 0
-0.374325 0.014270 0
-0.375256 0.007406 0
-0.373287 0.000535 0
-0.368331 -0.006466 0
-0.360388 -0.013681 0
-0.349444 -0.021188 0
-0.335335 -0.029079 0
-0.317884 -0.037369 0
-0.296904 -0.046018 0
-0.272243 -0.054876 0
-0.243747 -0.063709 0
-0.211486 -0.072107 0
-0.175751 -0.079301 0
-0.137274 -0.084002 0
-0.097512 -0.084043 0
-0.059016 -0.075759 0
-0.023211 -0.053454 0
0.006064 -0.010475 0
0.015800 0.025630 0
0.007166 0.031745 0
0.000000 0.014614 0
0.000000 -0.020279 0
0.007626 -0.036264 0
0.002593 -0.019547 0
-0.014514 0.007767 0
-0.042828 0.031785 0
-0.078156 0.050189 0
-0.114867 0.067211 0
-0.152263 0.080283 0
-0.189447 0.090050 0
-0.222608 0.097068 0
-0.251156 0.099582 0
-0.276147 0.097391 0
-0.297866 0.091676 0
-0.316531 0.083613 0
-0.332332 0.074206 0
-0.345444 0.064195 0
-0.356000 0.054041 0
-0.364156 0.043991 0
-0.370033 0.034162 0
-0.373721 0.024572 0
-0.375267 0.015171 0
-0.374682 0.005861 0
-0.371934 -0.003495 0
-0.366959 -0.013021 0
-0.359698 -0.022849 0
-0.349999 -0.033128 0
-0.337719 -0.043954 0
-0.322688 -0.055360 0
-0.304733 -0.067298 0
-0.283697 -0.079598 0
-0.259444 -0.091930 0
-0.231967 -0.103692 0
-0.201420 -0.113833 0
-0.168219 -0.120617 0
-0.133147 -0.121272 0
-0.097407 -0.111594 0
-0.062404 -0.085803 0
-0.029258 -0.037243 0
0.001371 0.016167 0
0.000360 0.035586 0
0.000000 0.016209 0
0.000000 -0.020800 0
-0.010344 -0.028636 0
-0.035403 0.003889 0
-0.065851 0.037848 0
-0.096893 0.064156 0
-0.131206 0.085811 0
-0.165483 0.102839 0
-0.198109 0.114691 0
-0.228489 0.121758 0
-0.254955 0.124533 0
-0.277070 0.122822 0
-0.295515 0.117058 0
-0.310896 0.108274 0
-0.323721 0.097540 0
-0.334366 0.085761 0
-0.343089 0.073589 0
-0.350053 0.061429 0
-0.355373 0.049485 0
-0.359116 0.037830 0
-0.361311 0.026440 0
-0.361952 0.015231 0
-0.361005 0.004073 0
-0.358417 -0.007188 0
-0.354132 -0.018702 0
-0.348033 -0.030641 0
-0.340000 -0.043167 0
-0.329894 -0.056391 0
-0.317569 -0.070355 0
-0.302873 -0.085009 0
-0.285661 -0.100166 0
-0.265806 -0.115440 0
-0.243234 -0.130131 0
-0.217935 -0.143049 0
-0.189979 -0.152275 0
-0.159517 -0.154854 0
-0.126735 -0.146502 0
-0.091741 -0.121603 0
-0.054544 -0.074250 0
-0.015526 -0.003987 0
-0.001990 0.033116 0
0.000000 0.014973 0
0.000000 -0.009935 0
-0.029929 -0.000862 0
-0.064686 0.035959 0
-0.097192 0.069257 0
-0.130145 0.097140 0
-0.162647 0.118779 0
-0.193270 0.134114 0
-0.221008 0.143289 0
-0.245429 0.146896 0
-0.265963 0.145650 0
-0.282659 0.140142 0
-0.296125 0.131216 0
-0.307006 0.119883 0
-0.315846 0.107083 0
-0.323035 0.093573 0
-0.328829 0.079882 0
-0.333382 0.066326 0
-0.336783 0.053055 0
-0.339077 0.040100 0
-0.340277 0.027407 0
-0.340365 0.014865 0
-0.339303 0.002326 0
-0.337035 -0.010369 0
-0.333510 -0.023404 0
-0.328607 -0.036981 0
-0.322217 -0.051268 0
-0.314214 -0.066385 0
-0.304471 -0.082381 0
-0.292858 -0.099205 0
-0.279246 -0.116664 0
-0.263509 -0.134357 0
-0.245524 -0.151564 0
-0.225151 -0.167089 0
-0.202192 -0.179035 0
-0.176337 -0.184516 0
-0.147096 -0.179369 0
-0.113806 -0.157994 0
-0.075922 -0.113458 0
-0.034127 -0.036387 0
0.005134 0.020060 0
0.000000 0.014220 0
0.000000 0.009128 0
-0.039565 0.036050 0
-0.077585 0.071152 0
-0.113248 0.103307 0
-0.146516 0.129611 0
-0.176994 0.148935 0
-0.204135 0.161200 0
-0.227564 0.166850 0
-0.247213 0.166713 0
-0.263130 0.161763 0
-0.275690 0.152985 0
-0.285498 0.141405 0
-0.293154 0.127995 0
-0.299151 0.113569 0
-0.303852 0.098744 0
-0.307499 0.083936 0
-0.310248 0.069382 0
-0.312198 0.055180 0
-0.313402 0.041324 0
-0.313877 0.027728 0
-0.313614 0.014258 0
-0.312576 0.000743 0
-0.310707 -0.012981 0
-0.307939 -0.027130 0
-0.304164 -0.041934 0
-0.299279 -0.057561 0
-0.293168 -0.074136 0
-0.285719 -0.091711 0
-0.276814 -0.110234 0
-0.266341 -0.129515 0
-0.254177 -0.149162 0
-0.240177 -0.168489 0
-0.224133 -0.186381 0
-0.205697 -0.201089 0
-0.184297 -0.209951 0
-0.159038 -0.209032 0
-0.128717 -0.192777 0
-0.092119 -0.153929 0
-0.048669 -0.085044 0
0.002455 -0.001011 0
0.000000 0.020108 0
0.000000 0.029630 0
-0.041059 0.076724 0
-0.081761 0.109643 0
-0.118308 0.138187 0
-0.150786 0.160887 0
-0.179087 0.176398 0
-0.203142 0.184683 0
-0.223022 0.186367 0
-0.238993 0.182462 0
-0.251446 0.174126 0
-0.260923 0.162511 0
-0.268021 0.148680 0
-0.273285 0.133536 0
-0.277162 0.117781 0
-0.279989 0.101921 0
-0.282010 0.086279 0
-0.283395 0.071026 0
-0.284257 0.056209 0
-0.284662 0.041779 0
-0.284637 0.027620 0
-0.284177 0.013564 0
-0.283250 -0.000581 0
-0.281802 -0.015007 0
-0.279739 -0.029947 0
-0.276973 -0.045641 0
-0.273401 -0.062264 0
-0.268917 -0.079945 0
-0.263411 -0.098735 0
-0.256774 -0.118583 0
-0.248899 -0.139302 0
-0.239669 -0.160520 0
-0.228937 -0.181608 0
-0.216482 -0.201569 0
-0.201923 -0.218870 0
-0.184610 -0.231176 0
-0.163503 -0.234949 0
-0.137126 -0.224913 0
-0.103846 -0.193506 0
-0.062962 -0.130961 0
-0.018066 -0.028609 0
0.000000 0.016674 0
0.000000 0.050188 0
-0.040197 0.117811 0
-0.080527 0.148400 0
-0.116167 0.172332 0
-0.146991 0.190391 0
-0.172980 0.201291 0
-0.194303 0.205134 0
-0.211295 0.202701 0
-0.224436 0.195137 0
-0.234288 0.183693 0
-0.241455 0.169560 0
-0.246517 0.153768 0
-0.249979 0.137136 0
-0.252258 0.120273 0
-0.253679 0.103592 0
-0.254491 0.087342 0
-0.254874 0.071629 0
-0.254951 0.056447 0
-0.254796 0.041704 0
-0.254440 0.027244 0
-0.253884 0.012870 0
-0.253096 -0.001632 0
-0.252027 -0.016492 0
-0.250581 -0.031959 0
-0.248677 -0.048272 0
-0.246213 -0.065617 0
-0.243085 -0.084127 0
-0.239183 -0.103853 0
-0.234396 -0.124746 0
-0.228612 -0.146620 0
-0.221715 -0.169123 0
-0.213561 -0.191676 0
-0.203943 -0.213396 0
-0.192521 -0.232961 0
-0.178707 -0.248371 0
-0.161530 -0.256517 0
-0.139543 -0.252433 0
-0.111015 -0.228093 0
-0.074938 -0.170824 0
-0.033925 -0.063974 0
0.000000 0.002041 0
0.000000 0.069827 0
-0.037736 0.157251 0
-0.076008 0.185612 0
-0.109576 0.204651 0
-0.138157 0.217700 0
-0.161744 0.223710 0
-0.180609 0.222998 0
-0.195212 0.216500 0
-0.206133 0.205454 0
-0.213996 0.191145 0
-0.219414 0.174740 0
-0.222939 0.157205 0
-0.225050 0.139277 0
-0.226142 0.121481 0
-0.226535 0.104154 0
-0.226474 0.087474 0
-0.226142 0.071486 0
-0.225664 0.056130 0
-0.225117 0.041268 0
-0.224540 0.026708 0
-0.223934 0.012220 0
-0.223276 -0.002438 0
-0.222514 -0.017522 0
-0.221571 -0.033297 0
-0.220366 -0.050009 0
-0.218803 -0.067856 0
-0.216777 -0.086975 0
-0.214174 -0.107424 0
-0.210876 -0.129153 0
-0.206760 -0.151983 0
-0.201699 -0.175572 0
-0.195548 -0.199380 0
-0.188116 -0.222608 0
-0.179117 -0.244106 0
-0.168072 -0.262167 0
-0.154165 -0.274114 0
-0.136073 -0.275428 0
-0.111921 -0.258110 0
-0.079786 -0.208051 0
-0.039670 -0.103547 0
0.000000 -0.017250 0
0.000000 0.087924 0
-0.034297 0.193819 0
-0.069588 0.220240 0
-0.100417 0.234481 0
-0.126416 0.242558 0
-0.147573 0.243743 0
-0.164191 0.238602 0
-0.176767 0.228226 0
-0.185901 0.213921 0
-0.192216 0.196973 0
-0.196298 0.178503 0
-0.198673 0.159405 0
-0.199791 0.140339 0
-0.200028 0.121757 0
-0.199692 0.103923 0
-0.199021 0.086949 0
-0.198190 0.070819 0
-0.197323 0.055423 0
-0.196498 0.040580 0
-0.195756 0.026060 0
-0.195108 0.011607 0
-0.194535 -0.003052 0
-0.193996 -0.018197 0
-0.193426 -0.034107 0
-0.192752 -0.051039 0
-0.191886 -0.069205 0
-0.190722 -0.088756 0
-0.189144 -0.109755 0
-0.187024 -0.132160 0
-0.184230 -0.155797 0
-0.180618 -0.180335 0
-0.176032 -0.205259 0
-0.170288 -0.229826 0
-0.163137 -0.253005 0
-0.154199 -0.273322 0
-0.142827 -0.288516 0
-0.127876 -0.294677 0
-0.107438 -0.284380 0
-0.078912 -0.243075 0
-0.040649 -0.143760 0
0.000000 -0.037629 0
0.000000 0.104123 0
-0.030327 0.226839 0
-0.062172 0.251733 0
-0.089935 0.261479 0
-0.113203 0.264856 0
-0.131964 0.261485 0
-0.146512 0.252192 0
-0.157330 0.238211 0
-0.164993 0.220903 0
-0.170083 0.201542 0
-0.173148 0.181197 0
-0.174676 0.160697 0
-0.175086 0.140632 0
-0.174735 0.121382 0
-0.173907 0.103146 0
-0.172827 0.085972 0
-0.171659 0.069788 0
-0.170522 0.054438 0
-0.169492 0.039702 0
-0.168615 0.025317 0
-0.167908 0.010999 0
-0.167365 -0.003550 0
-0.166952 -0.018631 0
-0.166621 -0.034541 0
-0.166311 -0.051549 0
-0.165941 -0.069886 0
-0.165411 -0.089717 0
-0.164606 -0.111121 0
-0.163392 -0.134067 0
-0.161628 -0.158390 0
-0.159157 -0.183769 0
-0.155810 -0.209709 0
-0.151396 -0.235504 0
-0.145683 -0.260195 0
-0.138360 -0.282477 0
-0.128927 -0.300437 0
-0.116463 -0.310817 0
-0.099237 -0.307074 0
-0.074439 -0.274840 0
-0.039451 -0.182460 0
0.000000 -0.057899 0
0.000000 0.118252 0
-0.026128 0.255991 0
-0.054341 0.279848 0
-0.078927 0.285512 0
-0.099449 0.284588 0
-0.115894 0.277052 0
-0.128532 0.263968 0
-0.137805 0.246706 0
-0.144235 0.226674 0
-0.148349 0.205129 0
-0.150645 0.183096 0
-0.151566 0.161343 0
-0.151498 0.140399 0
-0.150765 0.120578 0
-0.149630 0.102015 0
-0.148294 0.084701 0
-0.146912 0.068514 0
-0.145591 0.053256 0
-0.144408 0.038673 0
-0.143410 0.024476 0
-0.142623 0.010356 0
-0.142050 -0.004009 0
-0.141672 -0.018940 0
-0.141455 -0.034748 0
-0.141351 -0.051720 0
-0.141290 -0.070105 0
-0.141184 -0.090091 0
-0.140920 -0.111774 0
-0.140369 -0.135138 0
-0.139382 -0.160033 0
-0.137797 -0.186153 0
-0.135434 -0.213020 0
-0.132095 -0.239953 0
-0.127551 -0.266040 0
-0.121528 -0.290079 0
-0.113639 -0.310412 0
-0.103192 -0.324367 0
-0.088765 -0.326404 0
-0.067678 -0.302861 0
-0.036697 -0.218199 0
0.000000 -0.077080 0
0.000000 0.130252 0
-0.021884 0.281180 0
-0.046446 0.304532 0
-0.067878 0.306587 0
-0.085720 0.301823 0
-0.099962 0.290569 0
-0.110841 0.274103 0
-0.118745 0.253913 0
-0.124132 0.231447 0
-0.127467 0.207952 0
-0.129189 0.184414 0
-0.129694 0.161550 0
-0.129325 0.139831 0
-0.128372 0.119514 0
-0.127067 0.100675 0
-0.125593 0.083254 0
-0.124086 0.067085 0
-0.122647 0.051934 0
-0.121349 0.037521 0
-0.120242 0.023532 0
-0.119357 0.009639 0
-0.118707 -0.004501 0
-0.118286 -0.019226 0
-0.118076 -0.034862 0
-0.118041 -0.051714 0
-0.118126 -0.070053 0
-0.118256 -0.090087 0
-0.118329 -0.111937 0
-0.118222 -0.135606 0
-0.117791 -0.160962 0
-0.116874 -0.187717 0
-0.115290 -0.215411 0
-0.112835 -0.243388 0
-0.109283 -0.270762 0
-0.104381 -0.296389 0
-0.097820 -0.318773 0
-0.089101 -0.335691 0
-0.077162 -0.342587 0
-0.059667 -0.326908 0
-0.033056 -0.250138 0
0.000000 -0.094596 0
0.000000 0.140135 0
-0.017694 0.302437 0
-0.038681 0.325842 0
-0.057057 0.324786 0
-0.072330 0.316671 0
-0.084497 0.302172 0
-0.093759 0.282751 0
-0.100445 0.259998 0
-0.104945 0.235396 0
-0.107659 0.210186 0
-0.108962 0.185322 0
-0.109197 0.161479 0
-0.108663 0.139076 0
-0.107610 0.118320 0
-0.106241 0.099236 0
-0.104714 0.081719 0
-0.103151 0.065568 0
-0.101644 0.050519 0
-0.100263 0.036267 0
-0.099059 0.022484 0
-0.098067 0.008821 0
-0.097309 -0.005079 0
-0.096790 -0.019571 0
-0.096504 -0.034994 0
-0.096429 -0.051669 0
-0.096527 -0.069890 0
-0.096736 -0.089888 0
-0.096970 -0.111808 0
-0.097119 -0.135676 0
-0.097053 -0.161380 0
-0.096618 -0.188654 0
-0.095639 -0.217059 0
-0.093918 -0.245960 0
-0.091236 -0.274494 0
-0.087358 -0.301542 0
-0.082025 -0.325692 0
-0.074889 -0.345024 0
-0.065218 -0.355839 0
-0.051124 -0.346968 0
-0.028973 -0.277866 0
0.000000 -0.110136 0
0.000000 0.147945 0
-0.013596 0.319860 0
-0.031127 0.343895 0
-0.046580 0.340236 0
-0.059417 0.329263 0
-0.069640 0.311997 0
-0.077414 0.290051 0
-0.083012 0.265100 0
-0.086754 0.238661 0
-0.088971 0.211968 0
-0.089975 0.185952 0
-0.090054 0.161251 0
-0.089456 0.138244 0
-0.088393 0.117092 0
-0.087036 0.097779 0
-0.085520 0.080164 0
-0.083954 0.064015 0
-0.082421 0.049047 0
-0.080987 0.034936 0
-0.079702 0.021336 0
-0.078605 0.007889 0
-0.077723 -0.005778 0
-0.077072 -0.020032 0
-0.076654 -0.035223 0
-0.076461 -0.051691 0
-0.076468 -0.069746 0
-0.076632 -0.089644 0
-0.076885 -0.111553 0
-0.077137 -0.135522 0
-0.077276 -0.161463 0
-0.077166 -0.189130 0
-0.076647 -0.218111 0
-0.075536 -0.247790 0
-0.073631 -0.277323 0
-0.070716 -0.305601 0
-0.066576 -0.331242 0
-0.060967 -0.352498 0
-0.053421 -0.366351 0
-0.042521 -0.363153 0
-0.024746 -0.301262 0
0.000000 -0.123569 0
0.000000 0.153731 0
-0.009596 0.333565 0
-0.023796 0.358827 0
-0.036464 0.353076 0
-0.046997 0.339731 0
-0.055398 0.320169 0
-0.061801 0.296123 0
-0.066419 0.269338 0
-0.069507 0.241354 0
-0.071325 0.213407 0
-0.072123 0.186406 0
-0.072130 0.160960 0
-0.071545 0.137416 0
-0.070538 0.115899 0
-0.069251 0.096363 0
-0.067797 0.078638 0
-0.066271 0.062469 0
-0.064748 0.047551 0
-0.063288 0.033548 0
-0.061941 0.020102 0
-0.060749 0.006843 0
-0.059742 -0.006612 0
-0.058943 -0.020640 0
-0.058362 -0.035604 0
-0.057999 -0.051855 0
-0.057845 -0.069719 0
-0.057871 -0.089472 0
-0.058033 -0.111303 0
-0.058267 -0.135285 0
-0.058484 -0.161351 0
-0.058571 -0.189283 0
-0.058392 -0.218689 0
-0.057787 -0.248977 0
-0.056580 -0.279314 0
-0.054588 -0.308596 0
-0.051630 -0.335442 0
-0.047536 -0.358179 0
-0.042033 -0.374284 0
-0.034127 -0.375643 0
-0.020556 -0.320387 0
0.000000 -0.134882 0
0.000000 0.157541 0
-0.005675 0.343657 0
-0.016652 0.370763 0
-0.026658 0.363437 0
-0.035004 0.348197 0
-0.041691 0.326801 0
-0.046818 0.301071 0
-0.050545 0.272806 0
-0.053060 0.243567 0
-0.054555 0.214585 0
-0.055217 0.186757 0
-0.055214 0.160673 0
-0.054698 0.136653 0
-0.053798 0.114797 0
-0.052627 0.095038 0
-0.051278 0.077185 0
-0.049831 0.060966 0
-0.048352 0.046063 0
-0.046896 0.032129 0
-0.045511 0.018798 0
-0.044239 0.005690 0
-0.043115 -0.007584 0
-0.042166 -0.021412 0
-0.041405 -0.036167 0
-0.040843 -0.052208 0
-0.040480 -0.069875 0
-0.040306 -0.089455 0
-0.040301 -0.111157 0
-0.040427 -0.135072 0
-0.040624 -0.161159 0
-0.040809 -0.189223 0
-0.040873 -0.218895 0
-0.040689 -0.249602 0
-0.040117 -0.280522 0
-0.039009 -0.310551 0
-0.037228 -0.338293 0
-0.034657 -0.362095 0
-0.031150 -0.379761 0
-0.026066 -0.384630 0
-0.016493 -0.335389 0
0.000000 -0.144125 0
0.000000 0.159406 0
-0.001842 0.350216 0
-0.009619 0.379810 0
-0.017064 0.371428 0
-0.023318 0.354764 0
-0.028377 0.331983 0
-0.032304 0.304977 0
-0.035207 0.275580 0
-0.037210 0.245365 0
-0.038438 0.215564 0
-0.039013 0.187064 0
-0.039047 0.160441 0
-0.038642 0.136000 0
-0.037889 0.113828 0
-0.036871 0.093843 0
-0.035664 0.075843 0
-0.034333 0.059543 0
-0.032933 0.044616 0
-0.031513 0.030706 0
-0.030118 0.017445 0
-0.028790 0.004447 0
-0.027562 -0.008686 0
-0.026466 -0.022350 0
-0.025522 -0.036927 0
-0.024744 -0.052780 0
-0.024145 -0.070256 0
-0.023734 -0.089650 0
-0.023513 -0.111182 0
-0.023473 -0.134962 0
-0.023583 -0.160969 0
-0.023792 -0.189034 0
-0.024026 -0.218809 0
-0.024196 -0.249733 0
-0.024203 -0.280994 0
-0.023947 -0.311485 0
-0.023334 -0.339793 0
-0.022296 -0.364256 0
-0.020765 -0.382875 0
-0.018364 -0.390299 0
-0.012588 -0.346453 0
0.000000 -0.151375 0
0.000000 0.159383 0
0.001868 0.353276 0
-0.002588 0.385985 0
-0.007546 0.377136 0
-0.011795 0.359510 0
-0.015283 0.335787 0
-0.018063 0.307902 0
-0.020188 0.277712 0
-0.021719 0.246797 0
-0.022716 0.216388 0
-0.023238 0.187367 0
-0.023341 0.160302 0
-0.023078 0.135494 0
-0.022503 0.113027 0
-0.021671 0.092814 0
-0.020637 0.074646 0
-0.019453 0.058235 0
-0.018166 0.043244 0
-0.016816 0.029313 0
-0.015445 0.016074 0
-0.014096 0.003135 0
-0.012776 -0.009908 0
-0.011539 -0.023453 0
-0.010411 -0.037889 0
-0.009412 -0.053585 0
-0.008568 -0.070885 0
-0.007904 -0.090087 0
-0.007446 -0.111418 0
-0.007209 -0.135002 0
-0.007192 -0.160840 0
-0.007378 -0.188780 0
-0.007730 -0.218491 0
-0.008204 -0.249425 0
-0.008749 -0.280771 0
-0.009316 -0.311420 0
-0.009862 -0.339944 0
-0.010361 -0.364665 0
-0.010799 -0.383693 0
-0.010981 -0.392807 0
-0.008829 -0.353754 0
0.000000 -0.156713 0
0.000000 0.157538 0
0.005508 0.352805 0
0.004499 0.389224 0
0.002027 0.380635 0
-0.000249 0.362501 0
-0.002206 0.338251 0
-0.003870 0.309882 0
-0.005243 0.279235 0
-0.006326 0.247893 0
-0.007114 0.217084 0
-0.007605 0.187690 0
-0.007798 0.160281 0
-0.007700 0.135162 0
-0.007326 0.112421 0
-0.006705 0.091978 0
-0.005871 0.073625 0
-0.004862 0.057072 0
-0.003714 0.041979 0
-0.002461 0.027985 0
-0.001138 0.014725 0
0.000218 0.001779 0
0.001607 -0.011243 0
0.002970 -0.024716 0
0.004273 -0.039053 0
0.005483 -0.054623 0
0.006563 -0.071764 0
0.007470 -0.090772 0
0.008163 -0.111878 0
0.008601 -0.135216 0
0.008759 -0.160800 0
0.008620 -0.188496 0
0.008177 -0.217982 0
0.007429 -0.248714 0
0.006373 -0.279883 0
0.005004 -0.310373 0
0.003311 -0.338748 0
0.001276 -0.363320 0
-0.001132 -0.382255 0
-0.003832 -0.392269 0
-0.005179 -0.357434 0
0.000000 -0.160205 0
0.000000 0.153875 0
0.009183 0.348777 0
0.011704 0.389466 0
0.011772 0.381883 0
0.011479 0.363743 0
0.011038 0.339408 0
0.010485 0.310939 0
0.009862 0.280168 0
0.009229 0.248668 0
0.008650 0.217667 0
0.008188 0.188051 0
0.007898 0.160396 0
0.007820 0.135023 0
0.007975 0.112033 0
0.008365 0.091359 0
0.008978 0.072803 0
0.009791 0.056078 0
0.010779 0.040844 0
0.011916 0.026738 0
0.013179 0.013395 0
0.014540 0.000389 0
0.015971 -0.012659 0
0.017436 -0.026118 0
0.018891 -0.040402 0
0.020289 -0.055875 0
0.021581 -0.072872 0
0.022710 -0.091687 0
0.023619 -0.112549 0
0.024248 -0.135599 0
0.024542 -0.160858 0
0.024449 -0.188197 0
0.023921 -0.217300 0
0.022904 -0.247621 0
0.021341 -0.278346 0
0.019169 -0.308357 0
0.016322 -0.336216 0
0.012736 -0.360222 0
0.008353 -0.378584 0
0.003192 -0.388760 0
-0.001564 -0.357586 0
0.000000 -0.161891 0
0.000000 0.148355 0
0.012964 0.341101 0
0.019141 0.386635 0
0.021819 0.380860 0
0.023504 0.363236 0
0.024587 0.339245 0
0.025160 0.311058 0
0.025312 0.280491 0
0.025158 0.249104 0
0.024819 0.218124 0
0.024413 0.188441 0
0.024045 0.160649 0
0.023799 0.135085 0
0.023736 0.111876 0
0.023887 0.090975 0
0.024267 0.072199 0
0.024872 0.055271 0
0.025688 0.039853 0
0.026700 0.025585 0
0.027890 0.012101 0
0.029237 -0.001013 0
0.030687 -0.014139 0
0.032223 -0.027636 0
0.033796 -0.041906 0
0.035348 -0.057313 0
0.036819 -0.074185 0
0.038143 -0.092810 0
0.039244 -0.113415 0
0.040042 -0.136139 0
0.040455 -0.161002 0
0.040395 -0.187875 0
0.039767 -0.216437 0
0.038466 -0.246135 0
0.036378 -0.276148 0
0.033379 -0.305353 0
0.029347 -0.332315 0