# vtk DataFile Version 2.0
generated by CFD-lab course output (written by Tobias Neckel) 
ASCII

DATASET STRUCTURED_GRID
DIMENSIONS  41 41 1 
POINTS 1681 float

0.150000 0.150000 0
0.167857 0.150000 0
0.185714 0.150000 0
0.203571 0.150000 0
0.221429 0.150000 0
0.239286 0.150000 0
0.257143 0.150000 0
0.275000 0.150000 0
0.292857 0.150000 0
0.310714 0.150000 0
0.328571 0.150000 0
0.346429 0.150000 0
0.364286 0.150000 0
0.382143 0.150000 0
0.400000 0.150000 0
0.417857 0.150000 0
0.435714 0.150000 0
0.453571 0.150000 0
0.471429 0.150000 0
0.489286 0.150000 0
0.507143 0.150000 0
0.525000 0.150000 0
0.542857 0.150000 0
0.560714 0.150000 0
0.578571 0.150000 0
0.596429 0.150000 0
0.614286 0.150000 0
0.632143 0.150000 0
0.650000 0.150000 0
0.667857 0.150000 0
0.685714 0.150000 0
0.703571 0.150000 0
0.721429 0.150000 0
0.739286 0.150000 0
0.757143 0.150000 0
0.775000 0.150000 0
0.792857 0.150000 0
0.810714 0.150000 0
0.828571 0.150000 0
0.846429 0.150000 0
0.864286 0.150000 0
0.150000 0.167857 0
0.167857 0.167857 0
0.185714 0.167857 0
0.203571 0.167857 0
0.221429 0.167857 0
0.239286 0.167857 0
0.257143 0.167857 0
0.275000 0.167857 0
0.292857 0.167857 0
0.310714 0.167857 0
0.328571 0.167857 0
0.346429 0.167857 0
0.364286 0.167857 0
0.382143 0.167857 0
0.400000 0.167857 0
0.417857 0.167857 0
0.435714 0.167857 0
0.453571 0.167857 0
0.471429 0.167857 0
0.489286 0.167857 0
0.507143 0.167857 0
0.525000 0.167857 0
0.542857 0.167857 0
0.560714 0.167857 0
0.578571 0.167857 0
0.596429 0.167857 0
0.614286 0.167857 0
0.632143 0.167857 0
0.650000 0.167857 0
0.667857 0.167857 0
0.685714 0.167857 0
0.703571 0.167857 0
0.721429 0.167857 0
0.739286 0.167857 0
0.757143 0.167857 0
0.775000 0.167857 0
0.792857 0.167857 0
0.810714 0.167857 0
0.828571 0.167857 0
0.846429 0.167857 0
0.864286 0.167857 0
0.150000 0.185714 0
0.167857 0.185714 0
0.185714 0.185714 0
0.203571 0.185714 0
0.221429 0.185714 0
0.239286 0.185714 0
0.257143 0.185714 0
0.275000 0.185714 0
0.292857 0.185714 0
0.310714 0.185714 0
0.328571 0.185714 0
0.346429 0.185714 0
0.364286 0.185714 0
0.382143 0.185714 0
0.400000 0.185714 0
0.417857 0.185714 0
0.435714 0.185714 0
0.453571 0.185714 0
0.471429 0.185714 0
0.489286 0.185714 0
0.507143 0.185714 0
0.525000 0.185714 0
0.542857 0.185714 0
0.560714 0.185714 0
0.578571 0.185714 0
0.596429 0.185714 0
0.614286 0.185714 0
0.632143 0.185714 0
0.650000 0.185714 0
0.667857 0.185714 0
0.685714 0.185714 0
0.703571 0.185714 0
0.721429 0.185714 0
0.739286 0.185714 0
0.757143 0.185714 0
0.775000 0.185714 0
0.792857 0.185714 0
0.810714 0.185714 0
0.828571 0.185714 0
0.846429 0.185714 0
0.864286 0.185714 0
0.150000 0.203571 0
0.167857 0.203571 0
0.185714 0.203571 0
0.203571 0.203571 0
0.221429 0.203571 0
0.239286 0.203571 0
0.257143 0.203571 0
0.275000 0.203571 0
0.292857 0.203571 0
0.310714 0.203571 0
0.328571 0.203571 0
0.346429 0.203571 0
0.364286 0.203571 0
0.382143 0.203571 0
0.400000 0.203571 0
0.417857 0.203571 0
0.435714 0.203571 0
0.453571 0.203571 0
0.471429 0.203571 0
0.489286 0.203571 0
0.507143 0.203571 0
0.525000 0.203571 0
0.542857 0.203571 0
0.560714 0.203571 0
0.578571 0.203571 0
0.596429 0.203571 0
0.614286 0.203571 0
0.632143 0.203571 0
0.650000 0.203571 0
0.667857 0.203571 0
0.685714 0.203571 0
0.703571 0.203571 0
0.721429 0.203571 0
0.739286 0.203571 0
0.757143 0.203571 0
0.775000 0.203571 0
0.792857 0.203571 0
0.810714 0.203571 0
0.828571 0.203571 0
0.846429 0.203571 0
0.864286 0.203571 0
0.150000 0.221429 0
0.167857 0.221429 0
0.185714 0.221429 0
0.203571 0.221429 0
0.221429 0.221429 0
0.239286 0.221429 0
0.257143 0.221429 0
0.275000 0.221429 0
0.292857 0.221429 0
0.310714 0.221429 0
0.328571 0.221429 0
0.346429 0.221429 0
0.364286 0.221429 0
0.382143 0.221429 0
0.400000 0.221429 0
0.417857 0.221429 0
0.435714 0.221429 0
0.453571 0.221429 0
0.471429 0.221429 0
0.489286 0.221429 0
0.507143 0.221429 0
0.525000 0.221429 0
0.542857 0.221429 0
0.560714 0.221429 0
0.578571 0.221429 0
0.596429 0.221429 0
0.614286 0.221429 0
0.632143 0.221429 0
0.650000 0.221429 0
0.667857 0.221429 0
0.685714 0.221429 0
0.703571 0.221429 0
0.721429 0.221429 0
0.739286 0.221429 0
0.757143 0.221429 0
0.775000 0.221429 0
0.792857 0.221429 0
0.810714 0.221429 0
0.828571 0.221429 0
0.846429 0.221429 0
0.864286 0.221429 0
0.150000 0.239286 0
0.167857 0.239286 0
0.185714 0.239286 0
0.203571 0.239286 0
0.221429 0.239286 0
0.239286 0.239286 0
0.257143 0.239286 0
0.275000 0.239286 0
0.292857 0.239286 0
0.310714 0.239286 0
0.328571 0.239286 0
0.346429 0.239286 0
0.364286 0.239286 0
0.382143 0.239286 0
0.400000 0.239286 0
0.417857 0.239286 0
0.435714 0.239286 0
0.453571 0.239286 0
0.471429 0.239286 0
0.489286 0.239286 0
0.507143 0.239286 0
0.525000 0.239286 0
0.542857 0.239286 0
0.560714 0.239286 0
0.578571 0.239286 0
0.596429 0.239286 0
0.614286 0.239286 0
0.632143 0.239286 0
0.650000 0.239286 0
0.667857 0.239286 0
0.685714 0.239286 0
0.703571 0.239286 0
0.721429 0.239286 0
0.739286 0.239286 0
0.757143 0.239286 0
0.775000 0.239286 0
0.792857 0.239286 0
0.810714 0.239286 0
0.828571 0.239286 0
0.846429 0.239286 0
0.864286 0.239286 0
0.150000 0.257143 0
0.167857 0.257143 0
0.185714 0.257143 0
0.203571 0.257143 0
0.221429 0.257143 0
0.239286 0.257143 0
0.257143 0.257143 0
0.275000 0.257143 0
0.292857 0.257143 0
0.310714 0.257143 0
0.328571 0.257143 0
0.346429 0.257143 0
0.364286 0.257143 0
0.382143 0.257143 0
0.400000 0.257143 0
0.417857 0.257143 0
0.435714 0.257143 0
0.453571 0.257143 0
0.471429 0.257143 0
0.489286 0.257143 0
0.507143 0.257143 0
0.525000 0.257143 0
0.542857 0.257143 0
0.560714 0.257143 0
0.578571 0.257143 0
0.596429 0.257143 0
0.614286 0.257143 0
0.632143 0.257143 0
0.650000 0.257143 0
0.667857 0.257143 0
0.685714 0.257143 0
0.703571 0.257143 0
0.721429 0.257143 0
0.739286 0.257143 0
0.757143 0.257143 0
0.775000 0.257143 0
0.792857 0.257143 0
0.810714 0.257143 0
0.828571 0.257143 0
0.846429 0.257143 0
0.864286 0.257143 0
0.150000 0.275000 0
0.167857 0.275000 0
0.185714 0.275000 0
0.203571 0.275000 0
0.221429 0.275000 0
0.239286 0.275000 0
0.257143 0.275000 0
0.275000 0.275000 0
0.292857 0.275000 0
0.310714 0.275000 0
0.328571 0.275000 0
0.346429 0.275000 0
0.364286 0.275000 0
0.382143 0.275000 0
0.400000 0.275000 0
0.417857 0.275000 0
0.435714 0.275000 0
0.453571 0.275000 0
0.471429 0.275000 0
0.489286 0.275000 0
0.507143 0.275000 0
0.525000 0.275000 0
0.542857 0.275000 0
0.560714 0.275000 0
0.578571 0.275000 0
0.596429 0.275000 0
0.614286 0.275000 0
0.632143 0.275000 0
0.650000 0.275000 0
0.667857 0.275000 0
0.685714 0.275000 0
0.703571 0.275000 0
0.721429 0.275000 0
0.739286 0.275000 0
0.757143 0.275000 0
0.775000 0.275000 0
0.792857 0.275000 0
0.810714 0.275000 0
0.828571 0.275000 0
0.846429 0.275000 0
0.864286 0.275000 0
0.150000 0.292857 0
0.167857 0.292857 0
0.185714 0.292857 0
0.203571 0.292857 0
0.221429 0.292857 0
0.239286 0.292857 0
0.257143 0.292857 0
0.275000 0.292857 0
0.292857 0.292857 0
0.310714 0.292857 0
0.328571 0.292857 0
0.346429 0.292857 0
0.364286 0.292857 0
0.382143 0.292857 0
0.400000 0.292857 0
0.417857 0.292857 0
0.435714 0.292857 0
0.453571 0.292857 0
0.471429 0.292857 0
0.489286 0.292857 0
0.507143 0.292857 0
0.525000 0.292857 0
0.542857 0.292857 0
0.560714 0.292857 0
0.578571 0.292857 0
0.596429 0.292857 0
0.614286 0.292857 0
0.632143 0.292857 0
0.650000 0.292857 0
0.667857 0.292857 0
0.685714 0.292857 0
0.703571 0.292857 0
0.721429 0.292857 0
0.739286 0.292857 0
0.757143 0.292857 0
0.775000 0.292857 0
0.792857 0.292857 0
0.810714 0.292857 0
0.828571 0.292857 0
0.846429 0.292857 0
0.864286 0.292857 0
0.150000 0.310714 0
0.167857 0.310714 0
0.185714 0.310714 0
0.203571 0.310714 0
0.221429 0.310714 0
0.239286 0.310714 0
0.257143 0.310714 0
0.275000 0.310714 0
0.292857 0.310714 0
0.310714 0.310714 0
0.328571 0.310714 0
0.346429 0.310714 0
0.364286 0.310714 0
0.382143 0.310714 0
0.400000 0.310714 0
0.417857 0.310714 0
0.435714 0.310714 0
0.453571 0.310714 0
0.471429 0.310714 0
0.489286 0.310714 0
0.507143 0.310714 0
0.525000 0.310714 0
0.542857 0.310714 0
0.560714 0.310714 0
0.578571 0.310714 0
0.596429 0.310714 0
0.614286 0.310714 0
0.632143 0.310714 0
0.650000 0.310714 0
0.667857 0.310714 0
0.685714 0.310714 0
0.703571 0.310714 0
0.721429 0.310714 0
0.739286 0.310714 0
0.757143 0.310714 0
0.775000 0.310714 0
0.792857 0.310714 0
0.810714 0.310714 0
0.828571 0.310714 0
0.846429 0.310714 0
0.864286 0.310714 0
0.150000 0.328571 0
0.167857 0.328571 0
0.185714 0.328571 0
0.203571 0.328571 0
0.221429 0.328571 0
0.239286 0.328571 0
0.257143 0.328571 0
0.275000 0.328571 0
0.292857 0.328571 0
0.310714 0.328571 0
0.328571 0.328571 0
0.346429 0.328571 0
0.364286 0.328571 0
0.382143 0.328571 0
0.400000 0.328571 0
0.417857 0.328571 0
0.435714 0.328571 0
0.453571 0.328571 0
0.471429 0.328571 0
0.489286 0.328571 0
0.507143 0.328571 0
0.525000 0.328571 0
0.542857 0.328571 0
0.560714 0.328571 0
0.578571 0.328571 0
0.596429 0.328571 0
0.614286 0.328571 0
0.632143 0.328571 0
0.650000 0.328571 0
0.667857 0.328571 0
0.685714 0.328571 0
0.703571 0.328571 0
0.721429 0.328571 0
0.739286 0.328571 0
0.757143 0.328571 0
0.775000 0.328571 0
0.792857 0.328571 0
0.810714 0.328571 0
0.828571 0.328571 0
0.846429 0.328571 0
0.864286 0.328571 0
0.150000 0.346429 0
0.167857 0.346429 0
0.185714 0.346429 0
0.203571 0.346429 0
0.221429 0.346429 0
0.239286 0.346429 0
0.257143 0.346429 0
0.275000 0.346429 0
0.292857 0.346429 0
0.310714 0.346429 0
0.328571 0.346429 0
0.346429 0.346429 0
0.364286 0.346429 0
0.382143 0.346429 0
0.400000 0.346429 0
0.417857 0.346429 0
0.435714 0.346429 0
0.453571 0.346429 0
0.471429 0.346429 0
0.489286 0.346429 0
0.507143 0.346429 0
0.525000 0.346429 0
0.542857 0.346429 0
0.560714 0.346429 0
0.578571 0.346429 0
0.596429 0.346429 0
0.614286 0.346429 0
0.632143 0.346429 0
0.650000 0.346429 0
0.667857 0.346429 0
0.685714 0.346429 0
0.703571 0.346429 0
0.721429 0.346429 0
0.739286 0.346429 0
0.757143 0.346429 0
0.775000 0.346429 0
0.792857 0.346429 0
0.810714 0.346429 0
0.828571 0.346429 0
0.846429 0.346429 0
[...]
POINT_DATA 1681 

VECTORS velocity float
0.000000 0.000000 0
-0.005336 0.000000 0
-0.009706 0.000000 0
-0.013077 0.000000 0
-0.015882 0.000000 0
-0.018180 0.000000 0
-0.019886 0.000000 0
-0.020934 0.000000 0
-0.021351 0.000000 0
-0.021685 0.000000 0
-0.022018 0.000000 0
-0.022398 0.000000 0
-0.022764 0.000000 0
-0.022985 0.000000 0
-0.022938 0.000000 0
-0.022574 0.000000 0
-0.022368 0.000000 0
-0.022367 0.000000 0
-0.022587 0.000000 0
-0.022931 0.000000 0
-0.023236 0.000000 0
-0.023350 0.000000 0
-0.023216 0.000000 0
-0.023290 0.000000 0
-0.023594 0.000000 0
-0.024111 0.000000 0
-0.024723 0.000000 0
-0.025250 0.000000 0
-0.025547 0.000000 0
-0.025570 0.000000 0
-0.025730 0.000000 0
-0.025998 0.000000 0
-0.026307 0.000000 0
-0.026474 0.000000 0
-0.026211 0.000000 0
-0.025147 0.000000 0
-0.022860 0.000000 0
-0.019283 0.000000 0
-0.013931 0.000000 0
-0.006787 0.000000 0
0.000000 0.000000 0
0.000000 0.005336 0
-0.011896 0.009706 0
-0.022540 0.007741 0
-0.030551 0.006176 0
-0.036765 0.005103 0
-0.041543 0.004004 0
-0.044990 0.002754 0
-0.047202 0.001465 0
-0.048437 0.000751 0
-0.049238 0.000667 0
-0.049852 0.000713 0
-0.050383 0.000746 0
-0.050792 0.000587 0
-0.050959 0.000174 0
-0.050800 -0.000411 0
-0.050398 -0.000570 0
-0.050139 -0.000207 0
-0.050151 0.000219 0
-0.050451 0.000564 0
-0.050930 0.000648 0
-0.051401 0.000418 0
-0.051716 -0.000020 0
-0.051911 -0.000059 0
-0.052331 0.000378 0
-0.053070 0.000821 0
-0.054097 0.001129 0
-0.055250 0.001139 0
-0.056302 0.000824 0
-0.057084 0.000320 0
-0.057602 0.000184 0
-0.058115 0.000427 0
-0.058600 0.000577 0
-0.058881 0.000477 0
-0.058590 -0.000096 0
-0.057210 -0.001328 0
-0.054137 -0.003351 0
-0.048724 -0.005864 0
-0.040432 -0.008929 0
-0.028595 -0.012496 0
-0.013498 -0.013931 0
0.000000 -0.006787 0
0.000000 0.011896 0
-0.012325 0.022540 0
-0.024651 0.018655 0
-0.033894 0.014225 0
-0.040600 0.010992 0
-0.045395 0.008226 0
-0.048753 0.005659 0
-0.051074 0.003447 0
-0.052745 0.002036 0
-0.053720 0.001414 0
-0.054243 0.001144 0
-0.054438 0.000940 0
-0.054404 0.000577 0
-0.054240 0.000008 0
-0.054073 -0.000561 0
-0.054080 -0.000661 0
-0.054044 -0.000248 0
-0.054063 0.000313 0
-0.054147 0.000780 0
-0.054316 0.000950 0
-0.054599 0.000786 0
-0.055058 0.000510 0
-0.055803 0.000615 0
-0.056579 0.001159 0
-0.057445 0.001766 0
-0.058378 0.002180 0
-0.059345 0.002205 0
-0.060320 0.001834 0
-0.061297 0.001300 0
-0.062290 0.001031 0
-0.062954 0.000998 0
-0.063214 0.000766 0
-0.062852 -0.000010 0
-0.061569 -0.001671 0
-0.059016 -0.004453 0
-0.054796 -0.008486 0
-0.048471 -0.013705 0
-0.039228 -0.020129 0
-0.026799 -0.026933 0
-0.011924 -0.028595 0
0.000000 -0.013498 0
0.000000 0.017661 0
-0.010560 0.034357 0
-0.022017 0.029310 0
-0.030900 0.022125 0
-0.037327 0.016605 0
-0.041869 0.012157 0
-0.045073 0.008432 0
-0.047383 0.005456 0
-0.049067 0.003397 0
-0.050087 0.002166 0
-0.050570 0.001431 0
-0.050653 0.000906 0
-0.050501 0.000389 0
-0.050299 -0.000156 0
-0.050206 -0.000571 0
-0.050275 -0.000599 0
-0.050309 -0.000224 0
-0.050306 0.000322 0
-0.050293 0.000818 0
-0.050344 0.001100 0
-0.050571 0.001160 0
-0.051077 0.001185 0
-0.051864 0.001462 0
-0.052688 0.002019 0
-0.053498 0.002620 0
-0.054279 0.003028 0
-0.055059 0.003081 0
-0.055892 0.002777 0
-0.056793 0.002290 0
-0.057659 0.001840 0
-0.058147 0.001351 0
-0.058071 0.000475 0
-0.057231 -0.001168 0
-0.055438 -0.003932 0
-0.052483 -0.008101 0
-0.048087 -0.013896 0
-0.041878 -0.021432 0
-0.033316 -0.030602 0
-0.022272 -0.039801 0
-0.009570 -0.040730 0
0.000000 -0.018710 0
0.000000 0.022456 0
-0.008789 0.044557 0
-0.018943 0.038995 0
-0.027130 0.029535 0
-0.033204 0.021961 0
-0.037585 0.015971 0
-0.040736 0.011173 0
-0.043027 0.007441 0
-0.044662 0.004740 0
-0.045678 0.002917 0
-0.046172 0.001711 0
-0.046278 0.000871 0
-0.046164 0.000222 0
-0.046003 -0.000287 0
-0.045921 -0.000585 0
-0.045937 -0.000559 0
-0.045945 -0.000217 0
-0.045917 0.000297 0
-0.045881 0.000818 0
-0.045916 0.001227 0
-0.046126 0.001519 0
-0.046580 0.001803 0
-0.047246 0.002226 0
-0.047965 0.002793 0
-0.048663 0.003357 0
-0.049321 0.003741 0
-0.049972 0.003819 0
-0.050657 0.003568 0
-0.051362 0.003067 0
-0.051951 0.002384 0
-0.052166 0.001410 0
-0.051807 -0.000150 0
-0.050706 -0.002643 0
-0.048725 -0.006419 0
-0.045711 -0.011804 0
-0.041467 -0.019092 0
-0.035732 -0.028476 0
-0.028200 -0.039735 0
-0.018796 -0.050680 0
-0.008167 -0.050867 0
0.000000 -0.023068 0
0.000000 0.026449 0
-0.007370 0.053300 0
-0.016293 0.047651 0
-0.023732 0.036386 0
-0.029415 0.027059 0
-0.033623 0.019689 0
-0.036705 0.013875 0
-0.038948 0.009382 0
-0.040528 0.006048 0
-0.041530 0.003676 0
-0.042052 0.002032 0
-0.042218 0.000898 0
-0.042172 0.000113 0
-0.042055 -0.000399 0
-0.041963 -0.000637 0
-0.041919 -0.000576 0
-0.041880 -0.000244 0
-0.041829 0.000259 0
-0.041790 0.000817 0
-0.041823 0.001345 0
-0.042002 0.001825 0
-0.042366 0.002305 0
-0.042884 0.002846 0
-0.043461 0.003436 0
-0.044032 0.003976 0
-0.044576 0.004338 0
-0.045103 0.004417 0
-0.045625 0.004167 0
-0.046104 0.003584 0
-0.046418 0.002644 0
-0.046377 0.001207 0
-0.045808 -0.000985 0
-0.044573 -0.004251 0
-0.042555 -0.008927 0
-0.039639 -0.015359 0
-0.035692 -0.023875 0
-0.030554 -0.034698 0
-0.024052 -0.047537 0
-0.016119 -0.059834 0
-0.007162 -0.059526 0
0.000000 -0.026877 0
0.000000 0.029826 0
-0.006288 0.060850 0
-0.014134 0.055357 0
-0.020841 0.042657 0
-0.026095 0.031853 0
-0.030079 0.023261 0
-0.033044 0.016498 0
-0.035211 0.011264 0
-0.036736 0.007321 0
-0.037722 0.004442 0
-0.038271 0.002400 0
-0.038494 0.000991 0
-0.038510 0.000058 0
-0.038429 -0.000496 0
-0.038330 -0.000720 0
-0.038245 -0.000641 0
-0.038166 -0.000306 0
-0.038093 0.000207 0
-0.038045 0.000812 0
-0.038065 0.001439 0
-0.038197 0.002061 0
-0.038465 0.002685 0
-0.038846 0.003321 0
-0.039282 0.003942 0
-0.039724 0.004472 0
-0.040147 0.004812 0
-0.040543 0.004867 0
-0.040900 0.004569 0
-0.041169 0.003861 0
-0.041249 0.002657 0
-0.041000 0.000800 0
-0.040284 -0.001953 0
-0.038987 -0.005896 0
-0.037012 -0.011352 0
-0.034273 -0.018667 0
-0.030681 -0.028177 0
-0.026143 -0.040117 0
-0.020559 -0.054170 0
-0.013862 -0.067570 0
-0.006270 -0.066986 0
0.000000 -0.030230 0
0.000000 0.032737 0
-0.005438 0.067434 0
-0.012353 0.062204 0
-0.018370 0.048347 0
-0.023179 0.036298 0
-0.026898 0.026638 0
-0.029709 0.019008 0
-0.031782 0.013074 0
-0.033249 0.008559 0
-0.034218 0.005212 0
-0.034786 0.002804 0
-0.035052 0.001136 0
-0.035116 0.000048 0
-0.035065 -0.000578 0
-0.034968 -0.000821 0
-0.034859 -0.000739 0
-0.034752 -0.000396 0
-0.034656 0.000137 0
-0.034590 0.000789 0
-0.034583 0.001497 0
-0.034662 0.002225 0
-0.034839 0.002953 0
-0.035098 0.003663 0
-0.035405 0.004315 0
-0.035721 0.004841 0
-0.036021 0.005157 0
-0.036285 0.005169 0
-0.036486 0.004792 0
-0.036575 0.003934 0
-0.036471 0.002475 0
-0.036067 0.000242 0
-0.035256 -0.002998 0
-0.033946 -0.007522 0
-0.032061 -0.013641 0
-0.029532 -0.021691 0
-0.026303 -0.032005 0
-0.022319 -0.044820 0
-0.017521 -0.059818 0
-0.011843 -0.074124 0
-0.005396 -0.073388 0
0.000000 -0.033147 0
0.000000 0.035264 0
-0.004704 0.073203 0
-0.010814 0.068289 0
-0.016206 0.053484 0
-0.020582 0.040381 0
-0.024020 0.029791 0
-0.026656 0.021381 0
-0.028619 0.014803 0
-0.030025 0.009757 0
-0.030972 0.005979 0
-0.031549 0.003234 0
-0.031846 0.001320 0
-0.031944 0.000071 0
-0.031918 -0.000644 0
-0.031826 -0.000927 0
-0.031706 -0.000857 0
-0.031579 -0.000509 0
-0.031463 0.000046 0
-0.031373 0.000739 0
-0.031332 0.001511 0
-0.031355 0.002317 0
-0.031448 0.003121 0
-0.031602 0.003887 0
-0.031792 0.004564 0
-0.031991 0.005088 0
-0.032172 0.005375 0
-0.032310 0.005332 0
-0.032374 0.004860 0
-0.032318 0.003846 0
-0.032074 0.002149 0
-0.031563 -0.000416 0
-0.030701 -0.004074 0
-0.029417 -0.009091 0
-0.027650 -0.015766 0
-0.025348 -0.024424 0
-0.022474 -0.035390 0
-0.018994 -0.048899 0
-0.014873 -0.064646 0
-0.010047 -0.079695 0
-0.004574 -0.078829 0
0.000000 -0.035626 0
0.000000 0.037441 0
-0.004038 0.078248 0
-0.009438 0.073705 0
-0.014266 0.058115 0
-0.018235 0.044112 0
-0.021394 0.032712 0
-0.023845 0.023607 0
-0.025692 0.016444 0
-0.027030 0.010911 0
-0.027946 0.006736 0
-0.028523 0.003678 0
-0.028837 0.001531 0
-0.028959 0.000120 0
-0.028952 -0.000696 0
-0.028868 -0.001033 0
-0.028742 -0.000986 0
-0.028602 -0.000640 0
-0.028466 -0.000069 0
-0.028350 0.000658 0
-0.028271 0.001479 0
-0.028240 0.002342 0
-0.028259 0.003201 0
-0.028321 0.004007 0
-0.028409 0.004703 0
-0.028501 0.005221 0
-0.028573 0.005475 0
-0.028599 0.005372 0
-0.028548 0.004800 0
-0.028378 0.003634 0
-0.028035 0.001720 0
-0.027457 -0.001131 0
-0.026582 -0.005144 0
-0.025354 -0.010573 0
-0.023726 -0.017710 0
-0.021660 -0.026867 0
-0.019130 -0.038359 0
-0.016120 -0.052420 0
-0.012602 -0.068766 0
-0.008516 -0.084424 0
-0.003885 -0.083435 0
0.000000 -0.037720 0
0.000000 0.039302 0
-0.003441 0.082641 0
-0.008196 0.078517 0
-0.012512 0.062281 0
-0.016098 0.047508 0
-0.018984 0.035401 0
-0.021247 0.025679 0
-0.022970 0.017988 0
-0.024233 0.012012 0
-0.025111 0.007472 0
-0.025677 0.004124 0
-0.025996 0.001756 0
-0.026132 0.000187 0
-0.026138 -0.000735 0
-0.026060 -0.001137 0
-0.025932 -0.001123 0
-0.025781 -0.000786 0
-0.025627 -0.000206 0
-0.025486 0.000544 0
-0.025370 0.001401 0
-0.025288 0.002305 0
-0.025241 0.003203 0
-0.025225 0.004037 0
-0.025224 0.004744 0
-0.025223 0.005252 0
-0.025200 0.005473 0
-0.025131 0.005307 0
-0.024987 0.004639 0
-0.024733 0.003333 0
-0.024324 0.001228 0
-0.023714 -0.001869 0
-0.022856 -0.006177 0
-0.021707 -0.011947 0
-0.020233 -0.019461 0
-0.018406 -0.029019 0
-0.016210 -0.040931 0
-0.013636 -0.055428 0
-0.010663 -0.072250 0
-0.007231 -0.088412 0
-0.003326 -0.087345 0
0.000000 -0.039511 0
0.000000 0.040882 0
-0.002913 0.086444 0
-0.007081 0.082776 0
-0.010921 0.066016 0
-0.014147 0.050585 0
-0.016766 0.037861 0
-0.018839 0.027593 0
-0.020432 0.019429 0
-0.021611 0.013052 0
-0.022441 0.008179 0
-0.022985 0.004563 0
-0.023300 0.001986 0
-0.023440 0.000262 0
-0.023453 -0.000768 0
-0.023377 -0.001239 0
-0.023247 -0.001265 0
-0.023087 -0.000945 0
-0.022916 -0.000364 0
-0.022751 0.000401 0
-0.022601 0.001281 0
-0.022473 0.002214 0
-0.022370 0.003137 0
-0.022285 0.003990 0
-0.022211 0.004702 0
-0.022131 0.005197 0
-0.022028 0.005384 0
-0.021882 0.005159 0
-0.021667 0.004402 0
-0.021353 0.002971 0
-0.020907 0.000701 0
-0.020292 -0.002600 0
-0.019475 -0.007150 0
-0.018423 -0.013196 0
-0.017110 -0.021012 0
-0.015520 -0.030889 0
-0.013642 -0.043129 0
-0.011471 -0.057967 0
-0.008988 -0.075170 0
-0.006131 -0.091761 0
-0.002851 -0.090666 0
0.000000 -0.041046 0
0.000000 0.042215 0
-0.002454 0.089721 0
-0.006085 0.086526 0
-0.009482 0.069347 0
-0.012362 0.053353 0
-0.014720 0.040094 0
-0.016601 0.029345 0
-0.018057 0.020760 0
-0.019144 0.014022 0
-0.019916 0.008846 0
-0.020428 0.004983 0
-0.020728 0.002211 0
-0.020863 0.000339 0
-0.020875 -0.000798 0
-0.020799 -0.001342 0
-0.020665 -0.001413 0
-0.020496 -0.001116 0
-0.020310 -0.000542 0
-0.020122 0.000229 0
-0.019941 0.001123 0
-0.019774 0.002074 0
-0.019621 0.003015 0
-0.019481 0.003878 0
-0.019344 0.004590 0
-0.019199 0.005070 0
-0.019033 0.005224 0
-0.018826 0.004946 0
-0.018560 0.004110 0
-0.018209 0.002573 0
-0.017749 0.000167 0
-0.017151 -0.003301 0
-0.016391 -0.008046 0
-0.015447 -0.014311 0
-0.014301 -0.022363 0
-0.012940 -0.032487 0
-0.011360 -0.044980 0
-0.009556 -0.060082 0
-0.007512 -0.077590 0
-0.005163 -0.094550 0
-0.002430 -0.093476 0
0.000000 -0.042361 0
0.000000 0.043336 0
-0.002059 0.092530 0
-0.005199 0.089804 0
-0.008178 0.072293 0
-0.010725 0.055823 0
-0.012826 0.042100 0
-0.014512 0.030930 0
-0.015826 0.021972 0
-0.016812 0.014911 0
-0.017517 0.009463 0
-0.017986 0.005375 0
-0.018262 0.002422 0
-0.018384 0.000410 0
-0.018389 -0.000832 0
-0.018308 -0.001449 0
-0.018167 -0.001569 0
-0.017988 -0.001300 0
-0.017787 -0.000738 0
-0.017579 0.000032 0
-0.017371 0.000933 0
-0.017170 0.001894 0
-0.016977 0.002844 0
-0.016789 0.003712 0
-0.016602 0.004421 0
-0.016406 0.004886 0
-0.016190 0.005011 0
-0.015940 0.004686 0
-0.015640 0.003784 0
-0.015271 0.002160 0
-0.014814 -0.000357 0
-0.014250 -0.003957 0
-0.013561 -0.008854 0
-0.012731 -0.015287 0
-0.011750 -0.023518 0
-0.010608 -0.033830 0
-0.009305 -0.046513 0
-0.007835 -0.061815 0
-0.006183 -0.079564 0
-0.004284 -0.096843 0
-0.002043 -0.095828 0
0.000000 -0.043476 0
0.000000 0.044274 0
-0.001715 0.094920 0
-0.004404 0.092644 0
-0.006989 0.074873 0
-0.009216 0.058002 0
-0.011063 0.043881 0
-0.012553 0.032344 0
-0.013719 0.023059 0
-0.014597 0.015713 0
-0.015226 0.010021 0
-0.015643 0.005728 0
-0.015885 0.002609 0
-0.015987 0.000466 0
-0.015978 -0.000875 0
-0.015887 -0.001564 0
-0.015737 -0.001734 0
-0.015547 -0.001496 0
-0.015333 -0.000951 0
-0.015106 -0.000187 0
-0.014875 0.000715 0
-0.014645 0.001680 0
-0.014419 0.002634 0
-0.014194 0.003503 0
-0.013967 0.004207 0
-0.013732 0.004658 0
-0.013480 0.004758 0
-0.013200 0.004395 0
-0.012881 0.003441 0
-0.012509 0.001747 0
-0.012070 -0.000855 0
-0.011551 -0.004555 0
-0.010941 -0.009565 0
-0.010230 -0.016122 0
-0.009410 -0.024485 0
-0.008477 -0.034932 0
-0.007430 -0.047754 0
-0.006265 -0.063204 0
-0.004966 -0.081140 0
-0.003473 -0.098690 0
-0.001677 -0.097760 0
0.000000 -0.044404 0
0.000000 0.045051 0
-0.001400 0.096934 0
-0.003676 0.095078 0
-0.005890 0.077105 0
-0.007811 0.059898 0
-0.009410 0.045437 0
-0.010703 0.033585 0
-0.011717 0.024016 0
-0.012481 0.016419 0
-0.013026 0.010509 0
-0.013383 0.006034 0
-0.013584 0.002765 0
-0.013657 0.000502 0
-0.013629 -0.000932 0
-0.013523 -0.001691 0
-0.013361 -0.001909 0
-0.013160 -0.001704 0
-0.012932 -0.001179 0
-0.012689 -0.000426 0
-0.012438 0.000473 0
-0.012185 0.001438 0
-0.011932 0.002393 0
-0.011678 0.003261 0
-0.011421 0.003959 0
-0.011158 0.004398 0
-0.010881 0.004479 0
-0.010584 0.004087 0
-0.010258 0.003093 0
-0.009894 0.001349 0
-0.009485 -0.001315 0
-0.009021 -0.005085 0
-0.008496 -0.010175 0
-0.007904 -0.016818 0
-0.007242 -0.025271 0
-0.006507 -0.035810 0
-0.005700 -0.048725 0
-0.004818 -0.064278 0
-0.003846 -0.082356 0
-0.002723 -0.100132 0
-0.001337 -0.099301 0
0.000000 -0.045153 0
0.000000 0.045674 0
-0.001102 0.098597 0
-0.002994 0.097134 0
-0.004860 0.079007 0
-0.006487 0.061521 0
-0.007844 0.046774 0
-0.008942 0.034652 0
-0.009802 0.024837 0
-0.010446 0.017022 0
-0.010900 0.010923 0
-0.011190 0.006286 0
-0.011342 0.002883 0
-0.011381 0.000511 0
-0.011328 -0.001008 0
-0.011204 -0.001832 0
-0.011028 -0.002097 0
-0.010813 -0.001925 0
-0.010573 -0.001422 0
-0.010315 -0.000681 0
-0.010049 0.000211 0
-0.009777 0.001173 0
-0.009503 0.002127 0
-0.009227 0.002993 0
-0.008949 0.003686 0
-0.008666 0.004117 0
-0.008374 0.004184 0
-0.008070 0.003772 0
-0.007748 0.002752 0
-0.007403 0.000974 0
-0.007031 -0.001728 0
-0.006628 -0.005544 0
-0.006191 -0.010682 0
-0.005719 -0.017376 0
-0.005211 -0.025882 0
-0.004666 -0.036474 0
-0.004087 -0.049443 0
-0.003472 -0.065058 0
-0.002808 -0.083235 0
-0.002035 -0.101199 0
-0.001032 -0.100483 0
0.000000 -0.045741 0
0.000000 0.046153 0
-0.000817 0.099928 0
-0.002346 0.098836 0
-0.003882 0.080597 0
-0.005226 0.062881 0
-0.006347 0.047893 0
-0.007251 0.035543 0
-0.007954 0.025520 0
-0.008474 0.017517 0
-0.008832 0.011254 0
-0.009049 0.006476 0
-0.009146 0.002956 0
-0.009144 0.000488 0
-0.009062 -0.001108 0
-0.008918 -0.001991 0
-0.008725 -0.002300 0
-0.008497 -0.002160 0
-0.008244 -0.001677 0
-0.007974 -0.000950 0
-0.007694 -0.000066 0
-0.007408 0.000892 0
-0.007119 0.001843 0
-0.006828 0.002707 0
-0.006536 0.003398 0
-0.006241 0.003824 0
-0.005943 0.003883 0
-0.005639 0.003460 0
-0.005329 0.002426 0
-0.005010 0.000632 0
-0.004682 -0.002089 0
-0.004344 -0.005925 0
-0.003998 -0.011084 0
-0.003644 -0.017799 0
-0.003286 -0.026324 0
-0.002925 -0.036933 0
-0.002564 -0.049920 0
-0.002204 -0.065558 0
-0.001834 -0.083793 0
-0.001397 -0.101908 0
-0.000759 -0.101336 0
0.000000 -0.046185 0
0.000000 0.046491 0
-0.000543 0.100943 0
-0.001725 0.100199 0
-0.002942 0.081887 0
-0.004012 0.063986 0
-0.004901 0.048799 0
-0.005612 0.036259 0
-0.006156 0.026060 0
-0.006548 0.017899 0
-0.006804 0.011497 0
-0.006942 0.006600 0
-0.006980 0.002978 0
-0.006934 0.000428 0
-0.006820 -0.001235 0
-0.006651 -0.002169 0
-0.006441 -0.002518 0
-0.006200 -0.002406 0
-0.005935 -0.001944 0
-0.005656 -0.001230 0
-0.005366 -0.000355 0
-0.005069 0.000598 0
-0.004770 0.001547 0
-0.004469 0.002409 0
-0.004168 0.003099 0
-0.003869 0.003524 0
-0.003570 0.003582 0
-0.003275 0.003158 0
-0.002982 0.002122 0
-0.002694 0.000327 0
-0.002414 -0.002394 0
-0.002144 -0.006228 0
-0.001889 -0.011382 0
-0.001652 -0.018089 0
-0.001440 -0.026601 0
-0.001256 -0.037195 0
-0.001105 -0.050164 0
-0.000991 -0.065789 0
-0.000905 -0.084042 0
-0.000794 -0.102273 0
-0.000509 -0.101880 0
0.000000 -0.046500 0
0.000000 0.046696 0
-0.000279 0.101653 0
-0.001123 0.101236 0
-0.002030 0.082884 0
-0.002830 0.064840 0
-0.003489 0.049493 0
-0.004005 0.036798 0
-0.004387 0.026456 0
-0.004647 0.018165 0
-0.004798 0.011648 0
-0.004854 0.006652 0
-0.004829 0.002947 0
-0.004735 0.000328 0
-0.004586 -0.001391 0
-0.004393 -0.002369 0
-0.004165 -0.002752 0
-0.003911 -0.002665 0
-0.003637 -0.002221 0
-0.003349 -0.001520 0
-0.003052 -0.000652 0
-0.002750 0.000296 0
-0.002444 0.001243 0
-0.002138 0.002105 0
-0.001834 0.002797 0
-0.001535 0.003226 0
-0.001242 0.003289 0
-0.000958 0.002872 0
-0.000688 0.001846 0
-0.000435 0.000064 0
-0.000205 -0.002640 0
-0.000004 -0.006450 0
0.000161 -0.011576 0
0.000282 -0.018248 0
0.000352 -0.026720 0
0.000364 -0.037267 0
0.000310 -0.050184 0
0.000187 -0.065759 0
-0.000001 -0.083990 0
-0.000211 -0.102303 0
-0.000275 -0.102130 0
0.000000 -0.046695 0
0.000000 0.046770 0
-0.000024 0.102066 0
-0.000530 0.101951 0
-0.001133 0.083594 0
-0.001665 0.065444 0
-0.002092 0.049974 0
-0.002411 0.037158 0
-0.002629 0.026703 0
-0.002754 0.018310 0
-0.002796 0.011704 0
-0.002767 0.006630 0
-0.002676 0.002860 0
-0.002533 0.000185 0
-0.002349 -0.001577 0
-0.002130 -0.002591 0
-0.001885 -0.003001 0
-0.001619 -0.002935 0
-0.001337 -0.002506 0
-0.001044 -0.001815 0
-0.000743 -0.000954 0
-0.000438 -0.000010 0
-0.000130 0.000935 0
0.000176 0.001800 0
0.000479 0.002496 0
0.000774 0.002932 0
0.001058 0.003006 0
0.001326 0.002605 0
0.001572 0.001599 0
0.001788 -0.000156 0
0.001967 -0.002825 0
0.002099 -0.006593 0
0.002174 -0.011668 0
0.002182 -0.018280 0
0.002111 -0.026683 0
0.001953 -0.037153 0
0.001698 -0.049987 0
0.001341 -0.065478 0
0.000885 -0.083645 0
0.000366 -0.102000 0
-0.000042 -0.102091 0
0.000000 -0.046775 0
0.000000 0.046720 0
0.000220 0.102183 0
0.000064 0.102344 0
-0.000230 0.084019 0
-0.000494 0.065798 0
-0.000689 0.050240 0
-0.000809 0.037336 0
-0.000860 0.026799 0
-0.000847 0.018332 0
-0.000779 0.011661 0
-0.000662 0.006532 0
-0.000504 0.002714 0
-0.000312 0.000000 0
-0.000092 -0.001794 0
0.000151 -0.002833 0
0.000412 -0.003263 0
0.000687 -0.003213 0
0.000974 -0.002796 0
0.001269 -0.002113 0
0.001570 -0.001259 0
0.001875 -0.000317 0
0.002181 0.000629 0
0.002485 0.001496 0
0.002783 0.002199 0
0.003072 0.002646 0
0.003345 0.002737 0
0.003595 0.002359 0
0.003814 0.001384 0
0.003994 -0.000331 0
0.004121 -0.002950 0
0.004185 -0.006657 0
0.004172 -0.011659 0
0.004068 -0.018186 0
0.003859 -0.026491 0
0.003533 -0.036854 0
0.003079 -0.049572 0
0.002488 -0.064946 0
0.001764 -0.083016 0
0.000943 -0.101376 0
0.000199 -0.101763 0
0.000000 -0.046737 0
0.000000 0.046550 0
0.000465 0.102002 0
0.000667 0.102401 0
0.000692 0.084153 0
0.000700 0.065903 0
0.000742 0.050289 0
0.000823 0.037329 0
0.000943 0.026741 0
0.001095 0.018229 0
0.001276 0.011518 0
0.001481 0.006355 0
0.001706 0.002510 0
0.001947 -0.000227 0
0.002201 -0.002040 0
0.002466 -0.003094 0
0.002740 -0.003537 0
0.003021 -0.003496 0
0.003309 -0.003087 0
0.003602 -0.002411 0
0.003900 -0.001561 0
0.004200 -0.000621 0
0.004501 0.000326 0
0.004799 0.001197 0
0.005090 0.001909 0
0.005370 0.002371 0
0.005630 0.002483 0
0.005861 0.002135 0
0.006055 0.001200 0
0.006198 -0.000463 0
0.006276 -0.003017 0
0.006274 -0.006644 0
0.006175 -0.011551 0
0.005963 -0.017968 0
0.005619 -0.026148 0
0.005128 -0.036372 0
0.004475 -0.048942 0
0.003652 -0.064163 0