# vtk DataFile Version 2.0
generated by CFD-lab course output (written by Tobias Neckel) 
ASCII

DATASET STRUCTURED_GRID
DIMENSIONS  41 41 1 
POINTS 1681 float

0.150000 0.150000 0
0.167857 0.150000 0
0.185714 0.150000 0
0.203571 0.150000 0
0.221429 0.150000 0
0.239286 0.150000 0
0.257143 0.150000 0
0.275000 0.150000 0
0.292857 0.150000 0
0.310714 0.150000 0
0.328571 0.150000 0
0.346429 0.150000 0
0.364286 0.150000 0
0.382143 0.150000 0
0.400000 0.150000 0
0.417857 0.150000 0
0.435714 0.150000 0
0.453571 0.150000 0
0.471429 0.150000 0
0.489286 0.150000 0
0.507143 0.150000 0
0.525000 0.150000 0
0.542857 0.150000 0
0.560714 0.150000 0
0.578571 0.150000 0
0.596429 0.150000 0
0.614286 0.150000 0
0.632143 0.150000 0
0.650000 0.150000 0
0.667857 0.150000 0
0.685714 0.150000 0
0.703571 0.150000 0
0.721429 0.150000 0
0.739286 0.150000 0
0.757143 0.150000 0
0.775000 0.150000 0
0.792857 0.150000 0
0.810714 0.150000 0
0.828571 0.150000 0
0.846429 0.150000 0
0.864286 0.150000 0
0.150000 0.167857 0
0.167857 0.167857 0
0.185714 0.167857 0
0.203571 0.167857 0
0.221429 0.167857 0
0.239286 0.167857 0
0.257143 0.167857 0
0.275000 0.167857 0
0.292857 0.167857 0
0.310714 0.167857 0
0.328571 0.167857 0
0.346429 0.167857 0
0.364286 0.167857 0
0.382143 0.167857 0
0.400000 0.167857 0
0.417857 0.167857 0
0.435714 0.167857 0
0.453571 0.167857 0
0.471429 0.167857 0
0.489286 0.167857 0
0.507143 0.167857 0
0.525000 0.167857 0
0.542857 0.167857 0
0.560714 0.167857 0
0.578571 0.167857 0
0.596429 0.167857 0
0.614286 0.167857 0
0.632143 0.167857 0
0.650000 0.167857 0
0.667857 0.167857 0
0.685714 0.167857 0
0.703571 0.167857 0
0.721429 0.167857 0
0.739286 0.167857 0
0.757143 0.167857 0
0.775000 0.167857 0
0.792857 0.167857 0
0.810714 0.167857 0
0.828571 0.167857 0
0.846429 0.167857 0
0.864286 0.167857 0
0.150000 0.185714 0
0.167857 0.185714 0
0.185714 0.185714 0
0.203571 0.185714 0
0.221429 0.185714 0
0.239286 0.185714 0
0.257143 0.185714 0
0.275000 0.185714 0
0.292857 0.185714 0
0.310714 0.185714 0
0.328571 0.185714 0
0.346429 0.185714 0
0.364286 0.185714 0
0.382143 0.185714 0
0.400000 0.185714 0
0.417857 0.185714 0
0.435714 0.185714 0
0.453571 0.185714 0
0.471429 0.185714 0
0.489286 0.185714 0
0.507143 0.185714 0
0.525000 0.185714 0
0.542857 0.185714 0
0.560714 0.185714 0
0.578571 0.185714 0
0.596429 0.185714 0
0.614286 0.185714 0
0.632143 0.185714 0
0.650000 0.185714 0
0.667857 0.185714 0
0.685714 0.185714 0
0.703571 0.185714 0
0.721429 0.185714 0
0.739286 0.185714 0
0.757143 0.185714 0
0.775000 0.185714 0
0.792857 0.185714 0
0.810714 0.185714 0
0.828571 0.185714 0
0.846429 0.185714 0
0.864286 0.185714 0
0.150000 0.203571 0
0.167857 0.203571 0
0.185714 0.203571 0
0.203571 0.203571 0
0.221429 0.203571 0
0.239286 0.203571 0
0.257143 0.203571 0
0.275000 0.203571 0
0.292857 0.203571 0
0.310714 0.203571 0
0.328571 0.203571 0
0.346429 0.203571 0
0.364286 0.203571 0
0.382143 0.203571 0
0.400000 0.203571 0
0.417857 0.203571 0
0.435714 0.203571 0
0.453571 0.203571 0
0.471429 0.203571 0
0.489286 0.203571 0
0.507143 0.203571 0
0.525000 0.203571 0
0.542857 0.203571 0
0.560714 0.203571 0
0.578571 0.203571 0
0.596429 0.203571 0
0.614286 0.203571 0
0.632143 0.203571 0
0.650000 0.203571 0
0.667857 0.203571 0
0.685714 0.203571 0
0.703571 0.203571 0
0.721429 0.203571 0
0.739286 0.203571 0
0.757143 0.203571 0
0.775000 0.203571 0
0.792857 0.203571 0
0.810714 0.203571 0
0.828571 0.203571 0
0.846429 0.203571 0
0.864286 0.203571 0
0.150000 0.221429 0
0.167857 0.221429 0
0.185714 0.221429 0
0.203571 0.221429 0
0.221429 0.221429 0
0.239286 0.221429 0
0.257143 0.221429 0
0.275000 0.221429 0
0.292857 0.221429 0
0.310714 0.221429 0
0.328571 0.221429 0
0.346429 0.221429 0
0.364286 0.221429 0
0.382143 0.221429 0
0.400000 0.221429 0
0.417857 0.221429 0
0.435714 0.221429 0
0.453571 0.221429 0
0.471429 0.221429 0
0.489286 0.221429 0
0.507143 0.221429 0
0.525000 0.221429 0
0.542857 0.221429 0
0.560714 0.221429 0
0.578571 0.221429 0
0.596429 0.221429 0
0.614286 0.221429 0
0.632143 0.221429 0
0.650000 0.221429 0
0.667857 0.221429 0
0.685714 0.221429 0
0.703571 0.221429 0
0.721429 0.221429 0
0.739286 0.221429 0
0.757143 0.221429 0
0.775000 0.221429 0
0.792857 0.221429 0
0.810714 0.221429 0
0.828571 0.221429 0
0.846429 0.221429 0
0.864286 0.221429 0
0.150000 0.239286 0
0.167857 0.239286 0
0.185714 0.239286 0
0.203571 0.239286 0
0.221429 0.239286 0
0.239286 0.239286 0
0.257143 0.239286 0
0.275000 0.239286 0
0.292857 0.239286 0
0.310714 0.239286 0
0.328571 0.239286 0
0.346429 0.239286 0
0.364286 0.239286 0
0.382143 0.239286 0
0.400000 0.239286 0
0.417857 0.239286 0
0.435714 0.239286 0
0.453571 0.239286 0
0.471429 0.239286 0
0.489286 0.239286 0
0.507143 0.239286 0
0.525000 0.239286 0
0.542857 0.239286 0
0.560714 0.239286 0
0.578571 0.239286 0
0.596429 0.239286 0
0.614286 0.239286 0
0.632143 0.239286 0
0.650000 0.239286 0
0.667857 0.239286 0
0.685714 0.239286 0
0.703571 0.239286 0
0.721429 0.239286 0
0.739286 0.239286 0
0.757143 0.239286 0
0.775000 0.239286 0
0.792857 0.239286 0
0.810714 0.239286 0
0.828571 0.239286 0
0.846429 0.239286 0
0.864286 0.239286 0
0.150000 0.257143 0
0.167857 0.257143 0
0.185714 0.257143 0
0.203571 0.257143 0
0.221429 0.257143 0
0.239286 0.257143 0
0.257143 0.257143 0
0.275000 0.257143 0
0.292857 0.257143 0
0.310714 0.257143 0
0.328571 0.257143 0
0.346429 0.257143 0
0.364286 0.257143 0
0.382143 0.257143 0
0.400000 0.257143 0
0.417857 0.257143 0
0.435714 0.257143 0
0.453571 0.257143 0
0.471429 0.257143 0
0.489286 0.257143 0
0.507143 0.257143 0
0.525000 0.257143 0
0.542857 0.257143 0
0.560714 0.257143 0
0.578571 0.257143 0
0.596429 0.257143 0
0.614286 0.257143 0
0.632143 0.257143 0
0.650000 0.257143 0
0.667857 0.257143 0
0.685714 0.257143 0
0.703571 0.257143 0
0.721429 0.257143 0
0.739286 0.257143 0
0.757143 0.257143 0
0.775000 0.257143 0
0.792857 0.257143 0
0.810714 0.257143 0
0.828571 0.257143 0
0.846429 0.257143 0
0.864286 0.257143 0
0.150000 0.275000 0
0.167857 0.275000 0
0.185714 0.275000 0
0.203571 0.275000 0
0.221429 0.275000 0
0.239286 0.275000 0
0.257143 0.275000 0
0.275000 0.275000 0
0.292857 0.275000 0
0.310714 0.275000 0
0.328571 0.275000 0
0.346429 0.275000 0
0.364286 0.275000 0
0.382143 0.275000 0
0.400000 0.275000 0
0.417857 0.275000 0
0.435714 0.275000 0
0.453571 0.275000 0
0.471429 0.275000 0
0.489286 0.275000 0
0.507143 0.275000 0
0.525000 0.275000 0
0.542857 0.275000 0
0.560714 0.275000 0
0.578571 0.275000 0
0.596429 0.275000 0
0.614286 0.275000 0
0.632143 0.275000 0
0.650000 0.275000 0
0.667857 0.275000 0
0.685714 0.275000 0
0.703571 0.275000 0
0.721429 0.275000 0
0.739286 0.275000 0
0.757143 0.275000 0
0.775000 0.275000 0
0.792857 0.275000 0
0.810714 0.275000 0
0.828571 0.275000 0
0.846429 0.275000 0
0.864286 0.275000 0
0.150000 0.292857 0
0.167857 0.292857 0
0.185714 0.292857 0
0.203571 0.292857 0
0.221429 0.292857 0
0.239286 0.292857 0
0.257143 0.292857 0
0.275000 0.292857 0
0.292857 0.292857 0
0.310714 0.292857 0
0.328571 0.292857 0
0.346429 0.292857 0
0.364286 0.292857 0
0.382143 0.292857 0
0.400000 0.292857 0
0.417857 0.292857 0
0.435714 0.292857 0
0.453571 0.292857 0
0.471429 0.292857 0
0.489286 0.292857 0
0.507143 0.292857 0
0.525000 0.292857 0
0.542857 0.292857 0
0.560714 0.292857 0
0.578571 0.292857 0
0.596429 0.292857 0
0.614286 0.292857 0
0.632143 0.292857 0
0.650000 0.292857 0
0.667857 0.292857 0
0.685714 0.292857 0
0.703571 0.292857 0
0.721429 0.292857 0
0.739286 0.292857 0
0.757143 0.292857 0
0.775000 0.292857 0
0.792857 0.292857 0
0.810714 0.292857 0
0.828571 0.292857 0
0.846429 0.292857 0
0.864286 0.292857 0
0.150000 0.310714 0
0.167857 0.310714 0
0.185714 0.310714 0
0.203571 0.310714 0
0.221429 0.310714 0
0.239286 0.310714 0
0.257143 0.310714 0
0.275000 0.310714 0
0.292857 0.310714 0
0.310714 0.310714 0
0.328571 0.310714 0
0.346429 0.310714 0
0.364286 0.310714 0
0.382143 0.310714 0
0.400000 0.310714 0
0.417857 0.310714 0
0.435714 0.310714 0
0.453571 0.310714 0
0.471429 0.310714 0
0.489286 0.310714 0
0.507143 0.310714 0
0.525000 0.310714 0
0.542857 0.310714 0
0.560714 0.310714 0
0.578571 0.310714 0
0.596429 0.310714 0
0.614286 0.310714 0
0.632143 0.310714 0
0.650000 0.310714 0
0.667857 0.310714 0
0.685714 0.310714 0
0.703571 0.310714 0
0.721429 0.310714 0
0.739286 0.310714 0
0.757143 0.310714 0
0.775000 0.310714 0
0.792857 0.310714 0
0.810714 0.310714 0
0.828571 0.310714 0
0.846429 0.310714 0
0.864286 0.310714 0
0.150000 0.328571 0
0.167857 0.328571 0
0.185714 0.328571 0
0.203571 0.328571 0
0.221429 0.328571 0
0.239286 0.328571 0
0.257143 0.328571 0
0.275000 0.328571 0
0.292857 0.328571 0
0.310714 0.328571 0
0.328571 0.328571 0
0.346429 0.328571 0
0.364286 0.328571 0
0.382143 0.328571 0
0.400000 0.328571 0
0.417857 0.328571 0
0.435714 0.328571 0
0.453571 0.328571 0
0.471429 0.328571 0
0.489286 0.328571 0
0.507143 0.328571 0
0.525000 0.328571 0
0.542857 0.328571 0
0.560714 0.328571 0
0.578571 0.328571 0
0.596429 0.328571 0
0.614286 0.328571 0
0.632143 0.328571 0
0.650000 0.328571 0
0.667857 0.328571 0
0.685714 0.328571 0
0.703571 0.328571 0
0.721429 0.328571 0
0.739286 0.328571 0
0.757143 0.328571 0
0.775000 0.328571 0
0.792857 0.328571 0
0.810714 0.328571 0
0.828571 0.328571 0
0.846429 0.328571 0
0.864286 0.328571 0
0.150000 0.346429 0
0.167857 0.346429 0
0.185714 0.346429 0
0.203571 0.346429 0
0.221429 0.346429 0
0.239286 0.346429 0
0.257143 0.346429 0
0.275000 0.346429 0
0.292857 0.346429 0
0.310714 0.346429 0
0.328571 0.346429 0
0.346429 0.346429 0
0.364286 0.346429 0
0.382143 0.346429 0
0.400000 0.346429 0
0.417857 0.346429 0
0.435714 0.346429 0
0.453571 0.346429 0
0.471429 0.346429 0
0.489286 0.346429 0
0.507143 0.346429 0
0.525000 0.346429 0
0.542857 0.346429 0
0.560714 0.346429 0
0.578571 0.346429 0
0.596429 0.346429 0
0.614286 0.346429 0
0.632143 0.346429 0
0.650000 0.346429 0
0.667857 0.346429 0
0.685714 0.346429 0
0.703571 0.346429 0
0.721429 0.346429 0
0.739286 0.346429 0
0.757143 0.346429 0
0.775000 0.346429 0
0.792857 0.346429 0
0.810714 0.346429 0
0.828571 0.346429 0
0.846429 0.346429 0
[...]
POINT_DATA 1681 

VECTORS velocity float
0.000000 0.000000 0
0.005219 0.000000 0
0.011273 0.000000 0
0.013836 0.000000 0
0.014165 0.000000 0
0.013763 0.000000 0
0.011705 0.000000 0
0.016514 0.000000 0
0.020745 0.000000 0
0.011045 0.000000 0
-0.005965 0.000000 0
-0.025092 0.000000 0
-0.044703 0.000000 0
-0.063750 0.000000 0
-0.081533 0.000000 0
-0.097636 0.000000 0
-0.111912 0.000000 0
-0.124227 0.000000 0
-0.134547 0.000000 0
-0.142865 0.000000 0
-0.149198 0.000000 0
-0.153561 0.000000 0
-0.155955 0.000000 0
-0.156400 0.000000 0
-0.154777 0.000000 0
-0.150945 0.000000 0
-0.144828 0.000000 0
-0.136339 0.000000 0
-0.125396 0.000000 0
-0.111938 0.000000 0
-0.096030 0.000000 0
-0.077732 0.000000 0
-0.057285 0.000000 0
-0.035151 0.000000 0
-0.012120 0.000000 0
0.010544 0.000000 0
0.026105 0.000000 0
0.029620 0.000000 0
0.022219 0.000000 0
0.010398 0.000000 0
0.000000 0.000000 0
0.000000 -0.005219 0
0.014480 -0.011273 0
0.027286 -0.008617 0
0.032680 -0.002892 0
0.033153 0.000073 0
0.033186 0.002460 0
0.024042 -0.002751 0
0.005868 -0.009040 0
-0.017518 0.005469 0
-0.048075 0.026710 0
-0.084651 0.036137 0
-0.123228 0.038738 0
-0.161365 0.038658 0
-0.197420 0.036830 0
-0.230360 0.033886 0
-0.259602 0.030380 0
-0.284899 0.026592 0
-0.306139 0.022634 0
-0.323328 0.018638 0
-0.336518 0.014651 0
-0.345777 0.010696 0
-0.351163 0.006757 0
-0.352701 0.002839 0
-0.350370 -0.001178 0
-0.344093 -0.005455 0
-0.333781 -0.009949 0
-0.319280 -0.014606 0
-0.300430 -0.019432 0
-0.277075 -0.024400 0
-0.249107 -0.029366 0
-0.216539 -0.034207 0
-0.179526 -0.038745 0
-0.138532 -0.042581 0
-0.094531 -0.045164 0
-0.049349 -0.045695 0
-0.006279 -0.038226 0
0.028805 -0.019076 0
0.046000 0.003887 0
0.035813 0.019222 0
0.016733 0.022219 0
0.000000 0.010398 0
0.000000 -0.014480 0
0.017780 -0.027286 0
0.028429 -0.018200 0
0.031776 -0.005866 0
0.020686 -0.000506 0
0.000475 0.009111 0
-0.027583 0.027318 0
-0.071791 0.041559 0
-0.121613 0.053943 0
-0.162553 0.067133 0
-0.199498 0.075153 0
-0.234585 0.076714 0
-0.267076 0.074193 0
-0.296340 0.068995 0
-0.322037 0.062182 0
-0.344029 0.054539 0
-0.362246 0.046537 0
-0.376786 0.038429 0
-0.387753 0.030378 0
-0.395261 0.022449 0
-0.399402 0.014646 0
-0.400237 0.006923 0
-0.397785 -0.000793 0
-0.391979 -0.008608 0
-0.382854 -0.016589 0
-0.370388 -0.024813 0
-0.354443 -0.033350 0
-0.334873 -0.042205 0
-0.311528 -0.051324 0
-0.284306 -0.060536 0
-0.253116 -0.069581 0
-0.218104 -0.078007 0
-0.179661 -0.084995 0
-0.138664 -0.089183 0
-0.096810 -0.088251 0
-0.057129 -0.078155 0
-0.019846 -0.052280 0
0.009706 -0.007007 0
0.016704 0.029268 0
0.007530 0.035813 0
0.000000 0.016733 0
0.000000 -0.023000 0
0.011135 -0.039703 0
0.009857 -0.022612 0
-0.006593 0.004851 0
-0.033458 0.031374 0
-0.073047 0.050730 0
-0.113976 0.069514 0
-0.154334 0.084990 0
-0.194916 0.096232 0
-0.231453 0.104595 0
-0.262758 0.108168 0
-0.290273 0.106316 0
-0.314392 0.100413 0
-0.335309 0.091791 0
-0.353181 0.081575 0
-0.368146 0.070589 0
-0.380300 0.059348 0
-0.389765 0.048141 0
-0.396634 0.037113 0
-0.400973 0.026301 0
-0.402817 0.015672 0
-0.402166 0.005140 0
-0.398992 -0.005419 0
-0.393244 -0.016110 0
-0.384870 -0.027047 0
-0.373743 -0.038359 0
-0.359744 -0.050121 0
-0.342734 -0.062348 0
-0.322579 -0.074967 0
-0.299169 -0.087778 0
-0.272425 -0.100409 0
-0.242412 -0.112200 0
-0.209370 -0.122021 0
-0.173827 -0.128016 0
-0.136707 -0.127230 0
-0.099344 -0.115189 0
-0.063106 -0.085911 0
-0.028506 -0.032664 0
0.000918 0.021398 0
-0.000455 0.038922 0
0.000000 0.017928 0
0.000000 -0.025616 0
-0.007567 -0.037144 0
-0.029603 -0.000471 0
-0.061771 0.037449 0
-0.094514 0.065948 0
-0.131323 0.089630 0
-0.169014 0.108605 0
-0.204626 0.122499 0
-0.237970 0.131063 0
-0.267395 0.134975 0
-0.292115 0.133973 0
-0.312949 0.128348 0
-0.330572 0.119228 0
-0.345503 0.107785 0
-0.358094 0.095020 0
-0.368568 0.081658 0
-0.377044 0.068156 0
-0.383597 0.054763 0
-0.388260 0.041586 0
-0.391038 0.028632 0
-0.391914 0.015838 0
-0.390849 0.003099 0
-0.387792 -0.009715 0
-0.382714 -0.022729 0
-0.375515 -0.036091 0
-0.366096 -0.049939 0
-0.354346 -0.064360 0
-0.340150 -0.079370 0
-0.323392 -0.094888 0
-0.303970 -0.110690 0
-0.281805 -0.126337 0
-0.256879 -0.141061 0
-0.229247 -0.153580 0
-0.199047 -0.161846 0
-0.166491 -0.162735 0
-0.131784 -0.151756 0
-0.094955 -0.123118 0
-0.055889 -0.071032 0
-0.014737 0.001217 0
-0.003922 0.036731 0
0.000000 0.016278 0
0.000000 -0.015433 0
-0.028986 -0.010100 0
-0.064716 0.031592 0
-0.097791 0.069762 0
-0.132478 0.100927 0
-0.167180 0.125230 0
-0.200586 0.142817 0
-0.231063 0.153946 0
-0.258196 0.159001 0
-0.281384 0.158739 0
-0.300538 0.153722 0
-0.316307 0.144773 0
-0.329355 0.132967 0
-0.340223 0.119313 0
-0.349271 0.104641 0
-0.356712 0.089538 0
-0.362655 0.074377 0
-0.367154 0.059357 0
-0.370229 0.044554 0
-0.371876 0.029955 0
-0.372076 0.015482 0
-0.370796 0.001018 0
-0.367993 -0.013553 0
-0.363639 -0.028387 0
-0.357636 -0.043666 0
-0.349898 -0.059528 0
-0.340327 -0.076067 0
-0.328824 -0.093302 0
-0.315290 -0.111146 0
-0.299630 -0.129365 0
-0.281758 -0.147499 0
-0.261589 -0.164758 0
-0.239023 -0.179854 0
-0.213898 -0.190771 0
-0.185917 -0.194493 0
-0.154563 -0.186725 0
-0.119080 -0.161806 0
-0.078771 -0.112882 0
-0.034363 -0.030569 0
0.003709 0.024186 0
0.000000 0.014006 0
0.000000 0.003370 0
-0.040405 0.027572 0
-0.080149 0.068333 0
-0.117138 0.105211 0
-0.152221 0.135338 0
-0.184834 0.157738 0
-0.214434 0.172488 0
-0.240374 0.180109 0
-0.262535 0.181384 0
-0.280912 0.177318 0
-0.295816 0.168895 0
-0.307852 0.157165 0
-0.317602 0.143145 0
-0.325534 0.127701 0
-0.331969 0.111508 0
-0.337107 0.095041 0
-0.341068 0.078598 0
-0.343925 0.062337 0
-0.345718 0.046308 0
-0.346462 0.030479 0
-0.346156 0.014758 0
-0.344781 -0.000985 0
-0.342310 -0.016873 0
-0.338681 -0.033087 0
-0.333820 -0.049832 0
-0.327642 -0.067248 0
-0.320059 -0.085433 0
-0.310978 -0.104407 0
-0.300310 -0.124082 0
-0.287963 -0.144223 0
-0.273844 -0.164379 0
-0.257831 -0.183796 0
-0.239736 -0.201271 0
-0.219226 -0.214952 0
-0.195720 -0.222069 0
-0.168287 -0.218593 0
-0.135659 -0.198911 0
-0.096536 -0.155749 0
-0.050246 -0.081263 0
0.004667 0.002368 0
0.000000 0.019987 0
0.000000 0.024972 0
-0.043498 0.070049 0
-0.085946 0.108325 0
-0.124304 0.141834 0
-0.158766 0.168622 0
-0.189217 0.187443 0
-0.215582 0.198358 0
-0.237821 0.202048 0
-0.256156 0.199538 0
-0.270932 0.192020 0
-0.282648 0.180662 0
-0.291874 0.166559 0
-0.299115 0.150649 0
-0.304774 0.133680 0
-0.309145 0.116213 0
-0.312438 0.098638 0
-0.314797 0.081196 0
-0.316326 0.064007 0
-0.317093 0.047091 0
-0.317137 0.030393 0
-0.316474 0.013802 0
-0.315096 -0.002828 0
-0.312981 -0.019653 0
-0.310053 -0.036877 0
-0.306246 -0.054704 0
-0.301474 -0.073288 0
-0.295647 -0.092731 0
-0.288672 -0.113051 0
-0.280457 -0.134162 0
-0.270908 -0.155831 0
-0.259923 -0.177631 0
-0.247368 -0.198866 0
-0.233025 -0.218459 0
-0.216514 -0.234788 0
-0.197168 -0.245432 0
-0.173907 -0.246786 0
-0.145189 -0.233557 0
-0.109279 -0.198295 0
-0.065296 -0.131772 0
-0.016167 -0.026060 0
0.000000 0.018673 0
0.000000 0.046869 0
-0.042969 0.113518 0
-0.085580 0.149139 0
-0.123381 0.178031 0
-0.156355 0.200250 0
-0.184531 0.214554 0
-0.208094 0.221092 0
-0.227341 0.220683 0
-0.242727 0.214495 0
-0.254776 0.203810 0
-0.264052 0.189837 0
-0.271089 0.173631 0
-0.276339 0.156044 0
-0.280171 0.137731 0
-0.282873 0.119172 0
-0.284669 0.100693 0
-0.285733 0.082486 0
-0.286198 0.064633 0
-0.286157 0.047120 0
-0.285670 0.029860 0
-0.284766 0.012717 0
-0.283445 -0.004478 0
-0.281684 -0.021916 0
-0.279416 -0.039822 0
-0.276565 -0.058410 0
-0.273042 -0.077846 0
-0.268748 -0.098235 0
-0.263581 -0.119597 0
-0.257437 -0.141847 0
-0.250210 -0.164756 0
-0.241786 -0.187920 0
-0.232022 -0.210695 0
-0.220709 -0.232125 0
-0.207496 -0.250809 0
-0.191782 -0.264676 0
-0.172569 -0.270572 0
-0.148370 -0.263539 0
-0.117412 -0.235642 0
-0.078714 -0.174376 0
-0.035329 -0.062928 0
0.000000 0.003820 0
0.000000 0.067940 0
-0.040628 0.155629 0
-0.081450 0.188738 0
-0.117374 0.212609 0
-0.148207 0.229773 0
-0.173996 0.239182 0
-0.195044 0.241168 0
-0.211806 0.236681 0
-0.224849 0.226973 0
-0.234761 0.213345 0
-0.242108 0.196975 0
-0.247389 0.178846 0
-0.251025 0.159731 0
-0.253367 0.140213 0
-0.254708 0.120711 0
-0.255288 0.101499 0
-0.255306 0.082725 0
-0.254917 0.064430 0
-0.254236 0.046562 0
-0.253342 0.029002 0
-0.252278 0.011577 0
-0.251051 -0.005909 0
-0.249638 -0.023683 0
-0.247973 -0.041996 0
-0.245977 -0.061077 0
-0.243550 -0.081105 0
-0.240584 -0.102192 0
-0.236961 -0.124362 0
-0.232561 -0.147533 0
-0.227258 -0.171483 0
-0.220921 -0.195820 0
-0.213396 -0.219943 0
-0.204485 -0.242984 0
-0.193887 -0.263714 0
-0.181114 -0.280360 0
-0.165338 -0.290199 0
-0.145231 -0.288714 0
-0.118923 -0.267951 0
-0.084526 -0.213855 0
-0.042135 -0.104774 0
0.000000 -0.016656 0
0.000000 0.087497 0
-0.037189 0.194968 0
-0.075100 0.225885 0
-0.108341 0.244788 0
-0.136608 0.256872 0
-0.159934 0.261391 0
-0.178654 0.258902 0
-0.193271 0.250488 0
-0.204373 0.237450 0
-0.212544 0.221069 0
-0.218320 0.202465 0
-0.222167 0.182548 0
-0.224482 0.162022 0
-0.225609 0.141414 0
-0.225844 0.121094 0
-0.225442 0.101292 0
-0.224617 0.082115 0
-0.223543 0.063563 0
-0.222356 0.045545 0
-0.221151 0.027903 0
-0.219981 0.010427 0
-0.218862 -0.007118 0
-0.217770 -0.024994 0
-0.216640 -0.043483 0
-0.215385 -0.062834 0
-0.213901 -0.083239 0
-0.212064 -0.104824 0
-0.209744 -0.127620 0
-0.206803 -0.151549 0
-0.203096 -0.176396 0
-0.198470 -0.201782 0
-0.192758 -0.227131 0
-0.185762 -0.251634 0
-0.177221 -0.274180 0
-0.166745 -0.293225 0
-0.153681 -0.306454 0
-0.136892 -0.309954 0
-0.114480 -0.296347 0
-0.083830 -0.251164 0
-0.043221 -0.147454 0
0.000000 -0.038314 0
0.000000 0.105129 0
-0.033123 0.230729 0
-0.067529 0.259890 0
-0.097648 0.274116 0
-0.123118 0.281365 0
-0.143956 0.281229 0
-0.160481 0.274505 0
-0.173183 0.262399 0
-0.182616 0.246246 0
-0.189323 0.227293 0
-0.193796 0.206598 0
-0.196465 0.185008 0
-0.197708 0.163174 0
-0.197857 0.141576 0
-0.197211 0.120544 0
-0.196030 0.100271 0
-0.194539 0.080826 0
-0.192928 0.062169 0
-0.191347 0.044170 0
-0.189904 0.026627 0
-0.188665 0.009289 0
-0.187648 -0.008120 0
-0.186833 -0.025906 0
-0.186151 -0.044381 0
-0.185513 -0.063817 0
-0.184807 -0.084427 0
-0.183900 -0.106348 0
-0.182651 -0.129623 0
-0.180905 -0.154182 0
-0.178504 -0.179816 0
-0.175280 -0.206157 0
-0.171049 -0.232651 0
-0.165609 -0.258521 0
-0.158718 -0.282732 0
-0.150053 -0.303900 0
-0.139112 -0.320051 0
-0.124982 -0.327915 0
-0.105946 -0.321013 0
-0.079177 -0.285114 0
-0.041956 -0.188603 0
0.000000 -0.059877 0
0.000000 0.120620 0
-0.028750 0.262497 0
-0.059374 0.290410 0
-0.086178 0.300377 0
-0.108763 0.303179 0
-0.127135 0.298755 0
-0.141579 0.288129 0
-0.152535 0.272622 0
-0.160499 0.253590 0
-0.165955 0.232250 0
-0.169344 0.209607 0
-0.171058 0.186459 0
-0.171451 0.163414 0
-0.170843 0.140917 0
-0.169524 0.119266 0
-0.167756 0.098620 0
-0.165769 0.079013 0
-0.163758 0.060370 0
-0.161884 0.042521 0
-0.160265 0.025220 0
-0.158976 0.008171 0
-0.158041 -0.008950 0
-0.157440 -0.026492 0
-0.157104 -0.044802 0
-0.156945 -0.064177 0
-0.156842 -0.084852 0
-0.156661 -0.106980 0
-0.156249 -0.130616 0
-0.155447 -0.155696 0
-0.154086 -0.182022 0
-0.151989 -0.209237 0
-0.148966 -0.236802 0
-0.144809 -0.263965 0
-0.139286 -0.289736 0
-0.132115 -0.312831 0
-0.122903 -0.331525 0
-0.110963 -0.343120 0
-0.094894 -0.342152 0
-0.072015 -0.315153 0
-0.039001 -0.226630 0
0.000000 -0.080270 0
0.000000 0.133879 0
-0.024270 0.290102 0
-0.051030 0.317318 0
-0.074480 0.323506 0
-0.094190 0.322323 0
-0.110161 0.314045 0
-0.122632 0.299904 0
-0.131984 0.281319 0
-0.138643 0.259666 0
-0.143028 0.236137 0
-0.145526 0.211701 0
-0.146490 0.187115 0
-0.146245 0.162958 0
-0.145092 0.139649 0
-0.143307 0.117458 0
-0.141143 0.096516 0
-0.138826 0.076828 0
-0.136551 0.058284 0
-0.134481 0.040677 0
-0.132742 0.023719 0
-0.131413 0.007065 0
-0.130527 -0.009656 0
-0.130063 -0.026843 0
-0.129960 -0.044876 0
-0.130126 -0.064079 0
-0.130445 -0.084711 0
-0.130778 -0.106941 0
-0.130973 -0.130837 0
-0.130868 -0.156345 0
-0.130294 -0.183274 0
-0.129074 -0.211277 0
-0.127020 -0.239830 0
-0.123927 -0.268200 0
-0.119572 -0.295427 0
-0.113702 -0.320284 0
-0.106000 -0.341203 0
-0.095970 -0.355924 0
-0.082571 -0.359961 0
-0.063486 -0.341006 0
-0.035093 -0.260619 0
0.000000 -0.098878 0
0.000000 0.144890 0
-0.019799 0.313527 0
-0.042726 0.340619 0
-0.062873 0.343537 0
-0.079781 0.338861 0
-0.093441 0.327197 0
-0.104053 0.309952 0
-0.111931 0.288632 0
-0.117432 0.264634 0
-0.120910 0.239133 0
-0.122698 0.213070 0
-0.123107 0.187178 0
-0.122429 0.162016 0
-0.120938 0.137979 0
-0.118891 0.115318 0
-0.116520 0.094138 0
-0.114040 0.074421 0
-0.111636 0.056026 0
-0.109467 0.038712 0
-0.107659 0.022152 0
-0.106296 0.005956 0
-0.105418 -0.010300 0
-0.105011 -0.027059 0
-0.105019 -0.044739 0
-0.105356 -0.063692 0
-0.105910 -0.084200 0
-0.106547 -0.106453 0
-0.107120 -0.130526 0
-0.107475 -0.156374 0
-0.107448 -0.183815 0
-0.106873 -0.212512 0
-0.105572 -0.241949 0
-0.103355 -0.271412 0
-0.100016 -0.299961 0
-0.095327 -0.326404 0
-0.089028 -0.349256 0
-0.080769 -0.366549 0
-0.069832 -0.374637 0
-0.054369 -0.362632 0
-0.030709 -0.290116 0
0.000000 -0.115363 0
0.000000 0.153678 0
-0.015389 0.332828 0
-0.034571 0.360392 0
-0.051519 0.360561 0
-0.065727 0.352891 0
-0.077187 0.338318 0
-0.086054 0.318394 0
-0.092582 0.294697 0
-0.097062 0.268645 0
-0.099785 0.241403 0
-0.101032 0.213897 0
-0.101070 0.186846 0
-0.100153 0.160790 0
-0.098523 0.136111 0
-0.096407 0.113040 0
-0.094012 0.091665 0
-0.091529 0.071943 0
-0.089127 0.053711 0
-0.086954 0.036699 0
-0.085129 0.020547 0
-0.083741 0.004825 0
-0.082837 -0.010941 0
-0.082410 -0.027242 0
-0.082413 -0.044530 0
-0.082769 -0.063188 0
-0.083376 -0.083520 0
-0.084114 -0.105731 0
-0.084847 -0.129910 0
-0.085436 -0.156017 0
-0.085734 -0.183875 0
-0.085591 -0.213154 0
-0.084849 -0.243348 0
-0.083344 -0.273756 0
-0.080895 -0.303455 0
-0.077305 -0.331271 0
-0.072362 -0.355761 0
-0.065817 -0.375120 0
-0.057211 -0.386361 0
-0.045170 -0.380130 0
-0.026170 -0.314988 0
0.000000 -0.129587 0
0.000000 0.160279 0
-0.011054 0.348098 0
-0.026599 0.376750 0
-0.040469 0.374694 0
-0.052094 0.364528 0
-0.061464 0.347523 0
-0.068698 0.325347 0
-0.073993 0.299640 0
-0.077579 0.271837 0
-0.079687 0.243103 0
-0.080547 0.214354 0
-0.080380 0.186300 0
-0.079400 0.159470 0
-0.077810 0.134233 0
-0.075799 0.110806 0
-0.073543 0.089261 0
-0.071203 0.069536 0
-0.068925 0.051451 0
-0.066837 0.034713 0
-0.065053 0.018939 0
-0.063658 0.003664 0
-0.062704 -0.011631 0
-0.062195 -0.027483 0
-0.062092 -0.044380 0
-0.062330 -0.062728 0
-0.062825 -0.082856 0
-0.063475 -0.104982 0
-0.064169 -0.129203 0
-0.064788 -0.155487 0
-0.065209 -0.183661 0
-0.065308 -0.213397 0
-0.064956 -0.244196 0
-0.064020 -0.275367 0
-0.062354 -0.306000 0
-0.059799 -0.334936 0
-0.056188 -0.360744 0
-0.051344 -0.381700 0
-0.044991 -0.395284 0
-0.036178 -0.393673 0
-0.021666 -0.335287 0
0.000000 -0.141533 0
0.000000 0.164732 0
-0.006786 0.359427 0
-0.018792 0.389808 0
-0.029699 0.386056 0
-0.038852 0.373886 0
-0.046238 0.354922 0
-0.051942 0.330923 0
-0.056109 0.303578 0
-0.058911 0.274338 0
-0.060526 0.244371 0
-0.061131 0.214591 0
-0.060901 0.185699 0
-0.060006 0.158220 0
-0.058604 0.132510 0
-0.056846 0.108773 0
-0.054867 0.087069 0
-0.052794 0.067325 0
-0.050745 0.049346 0
-0.048829 0.032828 0
-0.047145 0.017368 0
-0.045773 0.002475 0
-0.044758 -0.012404 0
-0.044123 -0.027853 0
-0.043834 -0.044395 0
-0.043840 -0.062455 0
-0.044080 -0.082375 0
-0.044481 -0.104387 0
-0.044963 -0.128597 0
-0.045437 -0.154976 0
-0.045810 -0.183355 0
-0.045991 -0.213407 0
-0.045887 -0.244636 0
-0.045400 -0.276359 0
-0.044429 -0.307675 0
-0.042857 -0.337437 0
-0.040562 -0.364216 0
-0.037422 -0.386317 0
-0.033280 -0.401527 0
-0.027526 -0.403455 0
-0.017293 -0.351166 0
0.000000 -0.151253 0
0.000000 0.167065 0
-0.002591 0.366889 0
-0.011092 0.399663 0
-0.019133 0.394754 0
-0.025911 0.381067 0
-0.031403 0.360613 0
-0.035664 0.335219 0
-0.038790 0.306610 0
-0.040899 0.276254 0
-0.042117 0.245323 0
-0.042572 0.214730 0
-0.042390 0.185175 0
-0.041693 0.157173 0
-0.040595 0.131073 0
-0.039200 0.107068 0
-0.037605 0.085209 0
-0.035900 0.065415 0
-0.034170 0.047486 0
-0.032499 0.031113 0
-0.030972 0.015883 0
-0.029666 0.001277 0
-0.028592 -0.013281 0
-0.027800 -0.028407 0
-0.027262 -0.044663 0
-0.026946 -0.062482 0
-0.026822 -0.082214 0
-0.026850 -0.104098 0
-0.026985 -0.128248 0
-0.027176 -0.154640 0
-0.027368 -0.183106 0
-0.027507 -0.213320 0
-0.027540 -0.244786 0
-0.027414 -0.276824 0
-0.027071 -0.308543 0
-0.026441 -0.338803 0
-0.025449 -0.366180 0
-0.024020 -0.388981 0
-0.022070 -0.405180 0
-0.019240 -0.409660 0
-0.013081 -0.362813 0
0.000000 -0.158826 0
0.000000 0.167323 0
0.001481 0.370519 0
-0.003401 0.406350 0
-0.008653 0.400874 0
-0.013141 0.386156 0
-0.016808 0.364675 0
-0.019690 0.338310 0
-0.021840 0.308814 0
-0.023323 0.277666 0
-0.024212 0.246044 0
-0.024588 0.214863 0
-0.024526 0.184820 0
-0.024102 0.156424 0
-0.023383 0.130017 0
-0.022429 0.105784 0
-0.021293 0.083769 0
-0.020029 0.063889 0
-0.018688 0.045944 0
-0.017327 0.029630 0
-0.016003 0.014535 0
-0.014780 0.000096 0
-0.013678 -0.014270 0
-0.012706 -0.029184 0
-0.011873 -0.045248 0
-0.011174 -0.062895 0
-0.010613 -0.082472 0
-0.010187 -0.104224 0
-0.009889 -0.128270 0
-0.009707 -0.154593 0
-0.009629 -0.183024 0
-0.009644 -0.213235 0
-0.009744 -0.244729 0
-0.009921 -0.276828 0
-0.010162 -0.308648 0
-0.010449 -0.339058 0
-0.010753 -0.366637 0
-0.011042 -0.389695 0
-0.011281 -0.406307 0
-0.011276 -0.412444 0
-0.009020 -0.370406 0
0.000000 -0.164334 0
0.000000 0.165584 0
0.005462 0.370290 0
0.004338 0.409796 0
0.001864 0.404494 0
-0.000376 0.389223 0
-0.002264 0.367162 0
-0.003811 0.340251 0
-0.005025 0.310242 0
-0.005920 0.278626 0
-0.006519 0.246588 0
-0.006851 0.215044 0
-0.006946 0.184689 0
-0.006831 0.156030 0
-0.006527 0.129399 0
-0.006049 0.104978 0
-0.005411 0.082809 0
-0.004630 0.062810 0
-0.003726 0.044784 0
-0.002722 0.028428 0
-0.001641 0.013337 0
-0.000506 -0.001049 0
0.000629 -0.015355 0
0.001793 -0.030212 0
0.002946 -0.046195 0
0.004051 -0.063742 0
0.005074 -0.083202 0
0.005983 -0.104823 0
0.006748 -0.128728 0
0.007339 -0.154900 0
0.007722 -0.183169 0
0.007864 -0.213205 0
0.007725 -0.244510 0
0.007268 -0.276406 0
0.006456 -0.308015 0
0.005261 -0.338213 0
0.003663 -0.365588 0
0.001650 -0.388453 0
-0.000783 -0.404945 0
-0.003546 -0.411921 0
-0.005065 -0.374089 0
0.000000 -0.167846 0
0.000000 0.161861 0
0.009469 0.366182 0
0.012182 0.409948 0
0.012529 0.405587 0
0.012535 0.390283 0
0.012405 0.368111 0
0.012179 0.341071 0
0.011891 0.310922 0
0.011578 0.279160 0
0.011267 0.246976 0
0.010980 0.215291 0
0.010734 0.184800 0
0.010548 0.156005 0
0.010446 0.129235 0
0.010453 0.104668 0
0.010594 0.082351 0
0.010888 0.062204 0
0.011349 0.044036 0
0.011986 0.027544 0
0.012812 0.012319 0
0.013839 -0.002173 0
0.015036 -0.016569 0
0.016393 -0.031501 0
0.017848 -0.047505 0
0.019339 -0.065023 0
0.020805 -0.084405 0
0.022179 -0.105899 0
0.023395 -0.129626 0
0.024380 -0.155567 0
0.025055 -0.183549 0
0.025339 -0.213238 0
0.025147 -0.244133 0
0.024391 -0.275559 0
0.022990 -0.306642 0
0.020866 -0.336265 0
0.017950 -0.363027 0
0.014189 -0.385250 0
0.009549 -0.401111 0
0.004067 -0.408162 0
-0.001140 -0.373951 0
0.000000 -0.169399 0
0.000000 0.156115 0
0.013576 0.358109 0
0.020246 0.406737 0
0.023473 0.404140 0
0.025714 0.389346 0
0.027340 0.367519 0
0.028441 0.340765 0
0.029096 0.310843 0
0.029392 0.279250 0
0.029407 0.247185 0
0.029210 0.215577 0
0.028866 0.185121 0
0.028437 0.156317 0
0.027986 0.129494 0
0.027577 0.104830 0
0.027271 0.082374 0
0.027122 0.062056 0
0.027179 0.043686 0
0.027485 0.026964 0
0.028082 0.011483 0
0.029001 -0.003272 0
0.030238 -0.017908 0
0.031747 -0.033024 0
0.033454 -0.049142 0
0.035278 -0.066698 0
0.037130 -0.086042 0
0.038914 -0.107414 0
0.040524 -0.130928 0
0.041846 -0.156559 0
0.042758 -0.184128 0
0.043130 -0.213296 0
0.042829 -0.243562 0
0.041724 -0.274249 0
0.039682 -0.304490 0
0.036578 -0.333174 0
0.032294 -0.358911 0