# vtk DataFile Version 2.0
generated by CFD-lab course output (written by Tobias Neckel) 
ASCII

DATASET STRUCTURED_GRID
DIMENSIONS  41 41 1 
POINTS 1681 float

0.150000 0.150000 0
0.167857 0.150000 0
0.185714 0.150000 0
0.203571 0.150000 0
0.221429 0.150000 0
0.239286 0.150000 0
0.257143 0.150000 0
0.275000 0.150000 0
0.292857 0.150000 0
0.310714 0.150000 0
0.328571 0.150000 0
0.346429 0.150000 0
0.364286 0.150000 0
0.382143 0.150000 0
0.400000 0.150000 0
0.417857 0.150000 0
0.435714 0.150000 0
0.453571 0.150000 0
0.471429 0.150000 0
0.489286 0.150000 0
0.507143 0.150000 0
0.525000 0.150000 0
0.542857 0.150000 0
0.560714 0.150000 0
0.578571 0.150000 0
0.596429 0.150000 0
0.614286 0.150000 0
0.632143 0.150000 0
0.650000 0.150000 0
0.667857 0.150000 0
0.685714 0.150000 0
0.703571 0.150000 0
0.721429 0.150000 0
0.739286 0.150000 0
0.757143 0.150000 0
0.775000 0.150000 0
0.792857 0.150000 0
0.810714 0.150000 0
0.828571 0.150000 0
0.846429 0.150000 0
0.864286 0.150000 0
0.150000 0.167857 0
0.167857 0.167857 0
0.185714 0.167857 0
0.203571 0.167857 0
0.221429 0.167857 0
0.239286 0.167857 0
0.257143 0.167857 0
0.275000 0.167857 0
0.292857 0.167857 0
0.310714 0.167857 0
0.328571 0.167857 0
0.346429 0.167857 0
0.364286 0.167857 0
0.382143 0.167857 0
0.400000 0.167857 0
0.417857 0.167857 0
0.435714 0.167857 0
0.453571 0.167857 0
0.471429 0.167857 0
0.489286 0.167857 0
0.507143 0.167857 0
0.525000 0.167857 0
0.542857 0.167857 0
0.560714 0.167857 0
0.578571 0.167857 0
0.596429 0.167857 0
0.614286 0.167857 0
0.632143 0.167857 0
0.650000 0.167857 0
0.667857 0.167857 0
0.685714 0.167857 0
0.703571 0.167857 0
0.721429 0.167857 0
0.739286 0.167857 0
0.757143 0.167857 0
0.775000 0.167857 0
0.792857 0.167857 0
0.810714 0.167857 0
0.828571 0.167857 0
0.846429 0.167857 0
0.864286 0.167857 0
0.150000 0.185714 0
0.167857 0.185714 0
0.185714 0.185714 0
0.203571 0.185714 0
0.221429 0.185714 0
0.239286 0.185714 0
0.257143 0.185714 0
0.275000 0.185714 0
0.292857 0.185714 0
0.310714 0.185714 0
0.328571 0.185714 0
0.346429 0.185714 0
0.364286 0.185714 0
0.382143 0.185714 0
0.400000 0.185714 0
0.417857 0.185714 0
0.435714 0.185714 0
0.453571 0.185714 0
0.471429 0.185714 0
0.489286 0.185714 0
0.507143 0.185714 0
0.525000 0.185714 0
0.542857 0.185714 0
0.560714 0.185714 0
0.578571 0.185714 0
0.596429 0.185714 0
0.614286 0.185714 0
0.632143 0.185714 0
0.650000 0.185714 0
0.667857 0.185714 0
0.685714 0.185714 0
0.703571 0.185714 0
0.721429 0.185714 0
0.739286 0.185714 0
0.757143 0.185714 0
0.775000 0.185714 0
0.792857 0.185714 0
0.810714 0.185714 0
0.828571 0.185714 0
0.846429 0.185714 0
0.864286 0.185714 0
0.150000 0.203571 0
0.167857 0.203571 0
0.185714 0.203571 0
0.203571 0.203571 0
0.221429 0.203571 0
0.239286 0.203571 0
0.257143 0.203571 0
0.275000 0.203571 0
0.292857 0.203571 0
0.310714 0.203571 0
0.328571 0.203571 0
0.346429 0.203571 0
0.364286 0.203571 0
0.382143 0.203571 0
0.400000 0.203571 0
0.417857 0.203571 0
0.435714 0.203571 0
0.453571 0.203571 0
0.471429 0.203571 0
0.489286 0.203571 0
0.507143 0.203571 0
0.525000 0.203571 0
0.542857 0.203571 0
0.560714 0.203571 0
0.578571 0.203571 0
0.596429 0.203571 0
0.614286 0.203571 0
0.632143 0.203571 0
0.650000 0.203571 0
0.667857 0.203571 0
0.685714 0.203571 0
0.703571 0.203571 0
0.721429 0.203571 0
0.739286 0.203571 0
0.757143 0.203571 0
0.775000 0.203571 0
0.792857 0.203571 0
0.810714 0.203571 0
0.828571 0.203571 0
0.846429 0.203571 0
0.864286 0.203571 0
0.150000 0.221429 0
0.167857 0.221429 0
0.185714 0.221429 0
0.203571 0.221429 0
0.221429 0.221429 0
0.239286 0.221429 0
0.257143 0.221429 0
0.275000 0.221429 0
0.292857 0.221429 0
0.310714 0.221429 0
0.328571 0.221429 0
0.346429 0.221429 0
0.364286 0.221429 0
0.382143 0.221429 0
0.400000 0.221429 0
0.417857 0.221429 0
0.435714 0.221429 0
0.453571 0.221429 0
0.471429 0.221429 0
0.489286 0.221429 0
0.507143 0.221429 0
0.525000 0.221429 0
0.542857 0.221429 0
0.560714 0.221429 0
0.578571 0.221429 0
0.596429 0.221429 0
0.614286 0.221429 0
0.632143 0.221429 0
0.650000 0.221429 0
0.667857 0.221429 0
0.685714 0.221429 0
0.703571 0.221429 0
0.721429 0.221429 0
0.739286 0.221429 0
0.757143 0.221429 0
0.775000 0.221429 0
0.792857 0.221429 0
0.810714 0.221429 0
0.828571 0.221429 0
0.846429 0.221429 0
0.864286 0.221429 0
0.150000 0.239286 0
0.167857 0.239286 0
0.185714 0.239286 0
0.203571 0.239286 0
0.221429 0.239286 0
0.239286 0.239286 0
0.257143 0.239286 0
0.275000 0.239286 0
0.292857 0.239286 0
0.310714 0.239286 0
0.328571 0.239286 0
0.346429 0.239286 0
0.364286 0.239286 0
0.382143 0.239286 0
0.400000 0.239286 0
0.417857 0.239286 0
0.435714 0.239286 0
0.453571 0.239286 0
0.471429 0.239286 0
0.489286 0.239286 0
0.507143 0.239286 0
0.525000 0.239286 0
0.542857 0.239286 0
0.560714 0.239286 0
0.578571 0.239286 0
0.596429 0.239286 0
0.614286 0.239286 0
0.632143 0.239286 0
0.650000 0.239286 0
0.667857 0.239286 0
0.685714 0.239286 0
0.703571 0.239286 0
0.721429 0.239286 0
0.739286 0.239286 0
0.757143 0.239286 0
0.775000 0.239286 0
0.792857 0.239286 0
0.810714 0.239286 0
0.828571 0.239286 0
0.846429 0.239286 0
0.864286 0.239286 0
0.150000 0.257143 0
0.167857 0.257143 0
0.185714 0.257143 0
0.203571 0.257143 0
0.221429 0.257143 0
0.239286 0.257143 0
0.257143 0.257143 0
0.275000 0.257143 0
0.292857 0.257143 0
0.310714 0.257143 0
0.328571 0.257143 0
0.346429 0.257143 0
0.364286 0.257143 0
0.382143 0.257143 0
0.400000 0.257143 0
0.417857 0.257143 0
0.435714 0.257143 0
0.453571 0.257143 0
0.471429 0.257143 0
0.489286 0.257143 0
0.507143 0.257143 0
0.525000 0.257143 0
0.542857 0.257143 0
0.560714 0.257143 0
0.578571 0.257143 0
0.596429 0.257143 0
0.614286 0.257143 0
0.632143 0.257143 0
0.650000 0.257143 0
0.667857 0.257143 0
0.685714 0.257143 0
0.703571 0.257143 0
0.721429 0.257143 0
0.739286 0.257143 0
0.757143 0.257143 0
0.775000 0.257143 0
0.792857 0.257143 0
0.810714 0.257143 0
0.828571 0.257143 0
0.846429 0.257143 0
0.864286 0.257143 0
0.150000 0.275000 0
0.167857 0.275000 0
0.185714 0.275000 0
0.203571 0.275000 0
0.221429 0.275000 0
0.239286 0.275000 0
0.257143 0.275000 0
0.275000 0.275000 0
0.292857 0.275000 0
0.310714 0.275000 0
0.328571 0.275000 0
0.346429 0.275000 0
0.364286 0.275000 0
0.382143 0.275000 0
0.400000 0.275000 0
0.417857 0.275000 0
0.435714 0.275000 0
0.453571 0.275000 0
0.471429 0.275000 0
0.489286 0.275000 0
0.507143 0.275000 0
0.525000 0.275000 0
0.542857 0.275000 0
0.560714 0.275000 0
0.578571 0.275000 0
0.596429 0.275000 0
0.614286 0.275000 0
0.632143 0.275000 0
0.650000 0.275000 0
0.667857 0.275000 0
0.685714 0.275000 0
0.703571 0.275000 0
0.721429 0.275000 0
0.739286 0.275000 0
0.757143 0.275000 0
0.775000 0.275000 0
0.792857 0.275000 0
0.810714 0.275000 0
0.828571 0.275000 0
0.846429 0.275000 0
0.864286 0.275000 0
0.150000 0.292857 0
0.167857 0.292857 0
0.185714 0.292857 0
0.203571 0.292857 0
0.221429 0.292857 0
0.239286 0.292857 0
0.257143 0.292857 0
0.275000 0.292857 0
0.292857 0.292857 0
0.310714 0.292857 0
0.328571 0.292857 0
0.346429 0.292857 0
0.364286 0.292857 0
0.382143 0.292857 0
0.400000 0.292857 0
0.417857 0.292857 0
0.435714 0.292857 0
0.453571 0.292857 0
0.471429 0.292857 0
0.489286 0.292857 0
0.507143 0.292857 0
0.525000 0.292857 0
0.542857 0.292857 0
0.560714 0.292857 0
0.578571 0.292857 0
0.596429 0.292857 0
0.614286 0.292857 0
0.632143 0.292857 0
0.650000 0.292857 0
0.667857 0.292857 0
0.685714 0.292857 0
0.703571 0.292857 0
0.721429 0.292857 0
0.739286 0.292857 0
0.757143 0.292857 0
0.775000 0.292857 0
0.792857 0.292857 0
0.810714 0.292857 0
0.828571 0.292857 0
0.846429 0.292857 0
0.864286 0.292857 0
0.150000 0.310714 0
0.167857 0.310714 0
0.185714 0.310714 0
0.203571 0.310714 0
0.221429 0.310714 0
0.239286 0.310714 0
0.257143 0.310714 0
0.275000 0.310714 0
0.292857 0.310714 0
0.310714 0.310714 0
0.328571 0.310714 0
0.346429 0.310714 0
0.364286 0.310714 0
0.382143 0.310714 0
0.400000 0.310714 0
0.417857 0.310714 0
0.435714 0.310714 0
0.453571 0.310714 0
0.471429 0.310714 0
0.489286 0.310714 0
0.507143 0.310714 0
0.525000 0.310714 0
0.542857 0.310714 0
0.560714 0.310714 0
0.578571 0.310714 0
0.596429 0.310714 0
0.614286 0.310714 0
0.632143 0.310714 0
0.650000 0.310714 0
0.667857 0.310714 0
0.685714 0.310714 0
0.703571 0.310714 0
0.721429 0.310714 0
0.739286 0.310714 0
0.757143 0.310714 0
0.775000 0.310714 0
0.792857 0.310714 0
0.810714 0.310714 0
0.828571 0.310714 0
0.846429 0.310714 0
0.864286 0.310714 0
0.150000 0.328571 0
0.167857 0.328571 0
0.185714 0.328571 0
0.203571 0.328571 0
0.221429 0.328571 0
0.239286 0.328571 0
0.257143 0.328571 0
0.275000 0.328571 0
0.292857 0.328571 0
0.310714 0.328571 0
0.328571 0.328571 0
0.346429 0.328571 0
0.364286 0.328571 0
0.382143 0.328571 0
0.400000 0.328571 0
0.417857 0.328571 0
0.435714 0.328571 0
0.453571 0.328571 0
0.471429 0.328571 0
0.489286 0.328571 0
0.507143 0.328571 0
0.525000 0.328571 0
0.542857 0.328571 0
0.560714 0.328571 0
0.578571 0.328571 0
0.596429 0.328571 0
0.614286 0.328571 0
0.632143 0.328571 0
0.650000 0.328571 0
0.667857 0.328571 0
0.685714 0.328571 0
0.703571 0.328571 0
0.721429 0.328571 0
0.739286 0.328571 0
0.757143 0.328571 0
0.775000 0.328571 0
0.792857 0.328571 0
0.810714 0.328571 0
0.828571 0.328571 0
0.846429 0.328571 0
0.864286 0.328571 0
0.150000 0.346429 0
0.167857 0.346429 0
0.185714 0.346429 0
0.203571 0.346429 0
0.221429 0.346429 0
0.239286 0.346429 0
0.257143 0.346429 0
0.275000 0.346429 0
0.292857 0.346429 0
0.310714 0.346429 0
0.328571 0.346429 0
0.346429 0.346429 0
0.364286 0.346429 0
0.382143 0.346429 0
0.400000 0.346429 0
0.417857 0.346429 0
0.435714 0.346429 0
0.453571 0.346429 0
0.471429 0.346429 0
0.489286 0.346429 0
0.507143 0.346429 0
0.525000 0.346429 0
0.542857 0.346429 0
0.560714 0.346429 0
0.578571 0.346429 0
0.596429 0.346429 0
0.614286 0.346429 0
0.632143 0.346429 0
0.650000 0.346429 0
0.667857 0.346429 0
0.685714 0.346429 0
0.703571 0.346429 0
0.721429 0.346429 0
0.739286 0.346429 0
0.757143 0.346429 0
0.775000 0.346429 0
0.792857 0.346429 0
0.810714 0.346429 0
0.828571 0.346429 0
0.846429 0.346429 0
[...]
POINT_DATA 1681 

VECTORS velocity float
0.000000 0.000000 0
0.004723 0.000000 0
0.010830 0.000000 0
0.014184 0.000000 0
0.015384 0.000000 0
0.014005 0.000000 0
0.013967 0.000000 0
0.018615 0.000000 0
0.017515 0.000000 0
0.007523 0.000000 0
-0.007630 0.000000 0
-0.024413 0.000000 0
-0.041709 0.000000 0
-0.058534 0.000000 0
-0.074271 0.000000 0
-0.088543 0.000000 0
-0.101234 0.000000 0
-0.112219 0.000000 0
-0.121473 0.000000 0
-0.128997 0.000000 0
-0.134813 0.000000 0
-0.138945 0.000000 0
-0.141399 0.000000 0
-0.142213 0.000000 0
-0.141290 0.000000 0
-0.138458 0.000000 0
-0.133627 0.000000 0
-0.126679 0.000000 0
-0.117501 0.000000 0
-0.105988 0.000000 0
-0.092154 0.000000 0
-0.075989 0.000000 0
-0.057655 0.000000 0
-0.037530 0.000000 0
-0.016357 0.000000 0
0.004495 0.000000 0
0.020281 0.000000 0
0.025002 0.000000 0
0.018684 0.000000 0
0.008408 0.000000 0
0.000000 0.000000 0
0.000000 -0.004723 0
0.012773 -0.010830 0
0.025119 -0.009461 0
0.030916 -0.004554 0
0.033692 0.000180 0
0.029525 0.001417 0
0.017852 -0.004610 0
0.000524 -0.003548 0
-0.021795 0.011092 0
-0.050337 0.025145 0
-0.083238 0.031936 0
-0.117579 0.034079 0
-0.151438 0.034121 0
-0.183415 0.032562 0
-0.212611 0.030009 0
-0.238520 0.026963 0
-0.260937 0.023676 0
-0.279778 0.020239 0
-0.295065 0.016778 0
-0.306867 0.013341 0
-0.315269 0.009948 0
-0.320343 0.006586 0
-0.322131 0.003268 0
-0.320627 -0.000109 0
-0.315750 -0.003754 0
-0.307405 -0.007664 0
-0.295411 -0.011780 0
-0.279564 -0.016125 0
-0.259645 -0.020690 0
-0.235468 -0.025348 0
-0.206942 -0.029999 0
-0.174089 -0.034499 0
-0.137213 -0.038459 0
-0.097089 -0.041298 0
-0.055305 -0.042025 0
-0.014804 -0.036638 0
0.019188 -0.020506 0
0.038143 0.001597 0
0.030129 0.016593 0
0.013754 0.018684 0
0.000000 0.008408 0
0.000000 -0.012773 0
0.014295 -0.025119 0
0.023009 -0.018143 0
0.021605 -0.008574 0
0.009076 0.001390 0
-0.009898 0.015840 0
-0.039165 0.029001 0
-0.080247 0.039647 0
-0.120835 0.050861 0
-0.156883 0.061443 0
-0.190132 0.067242 0
-0.221650 0.068200 0
-0.250578 0.065835 0
-0.276483 0.061173 0
-0.299093 0.055105 0
-0.318322 0.048326 0
-0.334129 0.041258 0
-0.346642 0.034128 0
-0.355991 0.027090 0
-0.362318 0.020204 0
-0.365743 0.013476 0
-0.366348 0.006861 0
-0.364178 0.000284 0
-0.359170 -0.006380 0
-0.351348 -0.013222 0
-0.340712 -0.020339 0
-0.327104 -0.027842 0
-0.310344 -0.035766 0
-0.290233 -0.044096 0
-0.266591 -0.052704 0
-0.239225 -0.061378 0
-0.208154 -0.069729 0
-0.173607 -0.077000 0
-0.136244 -0.081908 0
-0.097434 -0.082285 0
-0.059603 -0.074493 0
-0.024305 -0.052948 0
0.004925 -0.010941 0
0.015262 0.024389 0
0.006985 0.030129 0
0.000000 0.013754 0
0.000000 -0.019018 0
0.004986 -0.033839 0
-0.002146 -0.016772 0
-0.020197 0.009379 0
-0.048827 0.031683 0
-0.081799 0.049658 0
-0.116616 0.065739 0
-0.152687 0.078122 0
-0.188253 0.087728 0
-0.220071 0.094443 0
-0.247778 0.096703 0
-0.272103 0.094525 0
-0.293218 0.088954 0
-0.311300 0.081076 0
-0.326516 0.071849 0
-0.339032 0.061999 0
-0.348978 0.051995 0
-0.356520 0.042101 0
-0.361793 0.032455 0
-0.364910 0.023092 0
-0.365946 0.013977 0
-0.364940 0.005021 0
-0.361891 -0.003910 0
-0.356771 -0.012938 0
-0.349546 -0.022213 0
-0.340082 -0.031909 0
-0.328245 -0.042147 0
-0.313867 -0.052996 0
-0.296761 -0.064443 0
-0.276745 -0.076355 0
-0.253640 -0.088436 0
-0.227390 -0.100117 0
-0.198084 -0.110369 0
-0.166062 -0.117472 0
-0.132027 -0.118667 0
-0.097097 -0.109767 0
-0.062612 -0.085034 0
-0.029719 -0.037970 0
0.001016 0.014533 0
0.000465 0.033947 0
0.000000 0.015393 0
0.000000 -0.017759 0
-0.013265 -0.022972 0
-0.039202 0.007041 0
-0.068607 0.038108 0
-0.099048 0.062992 0
-0.132071 0.083628 0
-0.164926 0.099890 0
-0.196482 0.111285 0
-0.225813 0.118245 0
-0.251352 0.120968 0
-0.272821 0.119274 0
-0.290749 0.113640 0
-0.305648 0.105032 0
-0.317967 0.094471 0
-0.328053 0.082837 0
-0.336154 0.070788 0
-0.342439 0.058746 0
-0.347042 0.046943 0
-0.350054 0.035480 0
-0.351538 0.024357 0
-0.351525 0.013506 0
-0.350016 0.002806 0
-0.346988 -0.007885 0
-0.342449 -0.018725 0
-0.336291 -0.029912 0
-0.328417 -0.041640 0
-0.318701 -0.054057 0
-0.306998 -0.067250 0
-0.293146 -0.081218 0
-0.276975 -0.095825 0
-0.258317 -0.110733 0
-0.237045 -0.125286 0
-0.213084 -0.138329 0
-0.186431 -0.147964 0
-0.157159 -0.151250 0
-0.125385 -0.143908 0
-0.091169 -0.120326 0
-0.054522 -0.074569 0
-0.015990 -0.005795 0
-0.001688 0.031145 0
0.000000 0.014219 0
0.000000 -0.005752 0
-0.030550 0.005363 0
-0.064866 0.038570 0
-0.097246 0.069225 0
-0.129572 0.095147 0
-0.161222 0.115537 0
-0.190920 0.130149 0
-0.217899 0.139008 0
-0.241632 0.142598 0
-0.261574 0.141451 0
-0.277811 0.136099 0
-0.290865 0.127352 0
-0.301309 0.116173 0
-0.309634 0.103481 0
-0.316208 0.090035 0
-0.321285 0.076385 0
-0.325032 0.062883 0
-0.327569 0.049716 0
-0.328978 0.036952 0
-0.329312 0.024563 0
-0.328598 0.012455 0
-0.326842 0.000485 0
-0.324029 -0.011477 0
-0.320139 -0.023636 0
-0.315082 -0.036245 0
-0.308770 -0.049498 0
-0.301096 -0.063566 0
-0.291936 -0.078551 0
-0.281154 -0.094466 0
-0.268598 -0.111184 0
-0.254104 -0.128366 0
-0.237498 -0.145350 0
-0.218574 -0.160984 0
-0.197062 -0.173397 0
-0.172576 -0.179713 0
-0.144560 -0.175757 0
-0.112303 -0.155898 0
-0.075240 -0.113149 0
-0.034054 -0.038300 0
0.005122 0.017957 0
0.000000 0.013705 0
0.000000 0.012791 0
-0.038516 0.041893 0
-0.076310 0.073737 0
-0.111475 0.102814 0
-0.144130 0.126967 0
-0.173967 0.144976 0
-0.200493 0.156567 0
-0.223418 0.161997 0
-0.242636 0.161920 0
-0.258184 0.157147 0
-0.270414 0.148565 0
-0.279864 0.137137 0
-0.287078 0.123801 0
-0.292515 0.109370 0
-0.296520 0.094488 0
-0.299347 0.079612 0
-0.301176 0.065030 0
-0.302141 0.050889 0
-0.302337 0.037223 0
-0.301827 0.023977 0
-0.300647 0.011036 0
-0.298809 -0.001764 0
-0.296310 -0.014588 0
-0.293077 -0.027672 0
-0.289052 -0.041280 0
-0.284153 -0.055626 0
-0.278288 -0.070891 0
-0.271353 -0.087192 0
-0.263233 -0.104556 0
-0.253795 -0.122874 0
-0.242885 -0.141832 0
-0.230311 -0.160816 0
-0.215800 -0.178765 0
-0.198936 -0.193962 0
-0.179071 -0.203752 0
-0.155241 -0.204181 0
-0.126190 -0.189646 0
-0.090669 -0.152818 0
-0.048123 -0.086156 0
0.001903 -0.002909 0
0.000000 0.019341 0
0.000000 0.032763 0
-0.039912 0.081673 0
-0.079706 0.111529 0
-0.115483 0.137045 0
-0.147300 0.157639 0
-0.175049 0.171900 0
-0.198659 0.179600 0
-0.218204 0.181151 0
-0.233910 0.177365 0
-0.246128 0.169228 0
-0.255350 0.157779 0
-0.262115 0.144017 0
-0.266927 0.128823 0
-0.270208 0.112923 0
-0.272292 0.096868 0
-0.273441 0.081041 0
-0.273853 0.065676 0
-0.273680 0.050876 0
-0.273029 0.036637 0
-0.271971 0.022873 0
-0.270542 0.009438 0
-0.268752 -0.003852 0
-0.266588 -0.017210 0
-0.263976 -0.030894 0
-0.260861 -0.045169 0
-0.257168 -0.060262 0
-0.252816 -0.076365 0
-0.247714 -0.093606 0
-0.241760 -0.112025 0
-0.234838 -0.131532 0
-0.226806 -0.151850 0
-0.217479 -0.172435 0
-0.206578 -0.192358 0
-0.193659 -0.210126 0
-0.177997 -0.223408 0
-0.158482 -0.228638 0
-0.133581 -0.220470 0
-0.101636 -0.191217 0
-0.061963 -0.130872 0
-0.018256 -0.030166 0
0.000000 0.015608 0
0.000000 0.052703 0
-0.038900 0.121599 0
-0.078082 0.149308 0
-0.112797 0.170408 0
-0.142906 0.186534 0
-0.168372 0.196335 0
-0.189331 0.199721 0
-0.206084 0.197248 0
-0.219053 0.189844 0
-0.228743 0.178587 0
-0.235700 0.164552 0
-0.240452 0.148715 0
-0.243472 0.131893 0
-0.245161 0.114735 0
-0.245851 0.097721 0
-0.245812 0.081173 0
-0.245252 0.065270 0
-0.244331 0.050065 0
-0.243157 0.035513 0
-0.241801 0.021490 0
-0.240296 0.007817 0
-0.238644 -0.005717 0
-0.236824 -0.019363 0
-0.234769 -0.033399 0
-0.232425 -0.048089 0
-0.229724 -0.063671 0
-0.226591 -0.080344 0
-0.222940 -0.098247 0
-0.218677 -0.117433 0
-0.213693 -0.137828 0
-0.207857 -0.159191 0
-0.200997 -0.181044 0
-0.192865 -0.202585 0
-0.183061 -0.222543 0
-0.170932 -0.238929 0
-0.155431 -0.248597 0
-0.135045 -0.246492 0
-0.107995 -0.224436 0
-0.073249 -0.169536 0
-0.033348 -0.064872 0
0.000000 0.001084 0
0.000000 0.071663 0
-0.036356 0.159755 0
-0.073399 0.185426 0
-0.105972 0.201870 0
-0.133802 0.213214 0
-0.156866 0.218325 0
-0.175396 0.217312 0
-0.189801 0.210873 0
-0.200595 0.200024 0
-0.208337 0.185875 0
-0.213578 0.169488 0
-0.216829 0.151788 0
-0.218541 0.133532 0
-0.219103 0.115303 0
-0.218844 0.097519 0
-0.218030 0.080442 0
-0.216870 0.064195 0
-0.215520 0.048781 0
-0.214082 0.034108 0
-0.212620 0.020012 0
-0.211161 0.006280 0
-0.209702 -0.007324 0
-0.208215 -0.021084 0
-0.206644 -0.035292 0
-0.204936 -0.050214 0
-0.203028 -0.066097 0
-0.200849 -0.083149 0
-0.198319 -0.101519 0
-0.195342 -0.121272 0
-0.191811 -0.142352 0
-0.187597 -0.164546 0
-0.182541 -0.187427 0
-0.176426 -0.210294 0
-0.168923 -0.232059 0
-0.159496 -0.251038 0
-0.147259 -0.264525 0
-0.130809 -0.267905 0
-0.108201 -0.253013 0
-0.077469 -0.205519 0
-0.038589 -0.103414 0
0.000000 -0.017740 0
0.000000 0.089059 0
-0.032897 0.194998 0
-0.066949 0.218924 0
-0.096763 0.230811 0
-0.121990 0.237427 0
-0.142612 0.237929 0
-0.158893 0.232657 0
-0.171277 0.222447 0
-0.180297 0.208380 0
-0.186510 0.191570 0
-0.190449 0.173045 0
-0.192600 0.153678 0
-0.193395 0.134167 0
-0.193208 0.115038 0
-0.192356 0.096648 0
-0.191096 0.079200 0
-0.189626 0.062760 0
-0.188088 0.047277 0
-0.186576 0.032614 0
-0.185143 0.018569 0
-0.183810 0.004898 0
-0.182570 -0.008663 0
-0.181391 -0.022421 0
-0.180228 -0.036678 0
-0.179030 -0.051705 0
-0.177741 -0.067757 0
-0.176293 -0.085053 0
-0.174607 -0.103754 0
-0.172589 -0.123940 0
-0.170128 -0.145573 0
-0.167094 -0.168460 0
-0.163332 -0.192215 0
-0.158647 -0.216204 0
-0.152772 -0.239473 0
-0.145287 -0.260592 0
-0.135483 -0.277285 0
-0.122135 -0.285551 0
-0.103252 -0.277776 0
-0.076189 -0.239148 0
-0.039317 -0.142341 0
0.000000 -0.037504 0
0.000000 0.104560 0
-0.028952 0.226704 0
-0.059583 0.249293 0
-0.086337 0.256910 0
-0.108822 0.259063 0
-0.127027 0.255228 0
-0.141216 0.245977 0
-0.151822 0.232277 0
-0.159359 0.215257 0
-0.164353 0.196027 0
-0.167303 0.175579 0
-0.168666 0.154734 0
-0.168849 0.134139 0
-0.168206 0.114264 0
-0.167035 0.095408 0
-0.165575 0.077713 0
-0.164005 0.061187 0
-0.162451 0.045731 0
-0.160995 0.031163 0
-0.159681 0.017246 0
-0.158521 0.003707 0
-0.157507 -0.009743 0
-0.156606 -0.023426 0
-0.155780 -0.037653 0
-0.154984 -0.052701 0
-0.154165 -0.068834 0
-0.153261 -0.086283 0
-0.152194 -0.105224 0
-0.150872 -0.125751 0
-0.149182 -0.147848 0
-0.146993 -0.171342 0
-0.144152 -0.195873 0
-0.140478 -0.220854 0
-0.135742 -0.245419 0
-0.129618 -0.268327 0
-0.121564 -0.287677 0
-0.110585 -0.300136 0
-0.094859 -0.298959 0
-0.071518 -0.269455 0
-0.037975 -0.179604 0
0.000000 -0.057057 0
0.000000 0.118011 0
-0.024802 0.254581 0
-0.051846 0.276310 0
-0.075444 0.280050 0
-0.095174 0.278117 0
-0.111035 0.270323 0
-0.123274 0.257452 0
-0.132295 0.240591 0
-0.138568 0.220911 0
-0.142575 0.199514 0
-0.144773 0.177359 0
-0.145584 0.155224 0
-0.145384 0.133707 0
-0.144503 0.113224 0
-0.143211 0.094017 0
-0.141723 0.076169 0
-0.140198 0.059636 0
-0.138744 0.044267 0
-0.137429 0.029843 0
-0.136287 0.016094 0
-0.135325 0.002724 0
-0.134532 -0.010578 0
-0.133877 -0.024147 0
-0.133327 -0.038300 0
-0.132840 -0.053320 0
-0.132371 -0.069480 0
-0.131858 -0.087024 0
-0.131230 -0.106144 0
-0.130396 -0.126952 0
-0.129246 -0.149452 0
-0.127651 -0.173490 0
-0.125462 -0.198730 0
-0.122510 -0.224614 0
-0.118593 -0.250333 0
-0.113449 -0.274771 0
-0.106674 -0.296317 0
-0.097519 -0.312256 0
-0.084468 -0.316844 0
-0.064763 -0.296031 0
-0.035197 -0.213859 0
0.000000 -0.075480 0
0.000000 0.129362 0
-0.020621 0.278549 0
-0.044070 0.299935 0
-0.064543 0.300239 0
-0.081586 0.294653 0
-0.095207 0.283328 0
-0.105633 0.267237 0
-0.113225 0.247570 0
-0.118404 0.225536 0
-0.121599 0.202232 0
-0.123222 0.178588 0
-0.123656 0.155346 0
-0.123242 0.133058 0
-0.122275 0.112090 0
-0.120998 0.092628 0
-0.119599 0.074699 0
-0.118213 0.058209 0
-0.116930 0.042963 0
-0.115805 0.028706 0
-0.114862 0.015141 0
-0.114104 0.001952 0
-0.113519 -0.011191 0
-0.113077 -0.024631 0
-0.112749 -0.038690 0
-0.112497 -0.053657 0
-0.112279 -0.069817 0
-0.112039 -0.087424 0
-0.111708 -0.106686 0
-0.111202 -0.127735 0
-0.110415 -0.150593 0
-0.109225 -0.175126 0
-0.107495 -0.201015 0
-0.105070 -0.227724 0
-0.101774 -0.254480 0
-0.097393 -0.280245 0
-0.091628 -0.303606 0
-0.083946 -0.322343 0
-0.073195 -0.331715 0
-0.056941 -0.318725 0
-0.031635 -0.244367 0
0.000000 -0.092254 0
0.000000 0.138631 0
-0.016504 0.298651 0
-0.036442 0.320232 0
-0.053893 0.317566 0
-0.068362 0.308781 0
-0.079867 0.294370 0
-0.088609 0.275470 0
-0.094905 0.253361 0
-0.099124 0.229284 0
-0.101642 0.204333 0
-0.102824 0.179416 0
-0.103007 0.155243 0
-0.102495 0.132326 0
-0.101549 0.110980 0
-0.100377 0.091340 0
-0.099140 0.073384 0
-0.097949 0.056967 0
-0.096875 0.041860 0
-0.095959 0.027775 0
-0.095220 0.014393 0
-0.094660 0.001381 0
-0.094263 -0.011605 0
-0.094000 -0.024918 0
-0.093846 -0.038880 0
-0.093767 -0.053789 0
-0.093723 -0.069939 0
-0.093661 -0.087595 0
-0.093519 -0.106981 0
-0.093217 -0.128246 0
-0.092660 -0.151428 0
-0.091738 -0.176409 0
-0.090330 -0.202885 0
-0.088305 -0.230335 0
-0.085514 -0.258011 0
-0.081787 -0.284917 0
-0.076904 -0.309765 0
-0.070506 -0.330688 0
-0.061785 -0.343848 0
-0.048740 -0.337591 0
-0.027714 -0.270800 0
0.000000 -0.107115 0
0.000000 0.145866 0
-0.012490 0.314991 0
-0.029045 0.337324 0
-0.043614 0.332160 0
-0.055645 0.320627 0
-0.065162 0.303575 0
-0.072342 0.282276 0
-0.077459 0.258086 0
-0.080828 0.232273 0
-0.082774 0.205932 0
-0.083612 0.179952 0
-0.083635 0.155017 0
-0.083107 0.131600 0
-0.082250 0.109972 0
-0.081240 0.090219 0
-0.080208 0.072271 0
-0.079241 0.055943 0
-0.078391 0.040973 0
-0.077688 0.027051 0
-0.077144 0.013842 0
-0.076759 0.000995 0
-0.076521 -0.011850 0
-0.076400 -0.025048 0
-0.076375 -0.038922 0
-0.076415 -0.053780 0
-0.076480 -0.069923 0
-0.076524 -0.087627 0
-0.076486 -0.107130 0
-0.076296 -0.128595 0
-0.075872 -0.152072 0
-0.075118 -0.177456 0
-0.073940 -0.204447 0
-0.072234 -0.232540 0
-0.069888 -0.260998 0
-0.066773 -0.288855 0
-0.062735 -0.314888 0
-0.057543 -0.337462 0
-0.050675 -0.353481 0
-0.040590 -0.352796 0
-0.023712 -0.293107 0
0.000000 -0.119968 0
0.000000 0.151121 0
-0.008588 0.327696 0
-0.021894 0.351356 0
-0.033732 0.344166 0
-0.043464 0.330328 0
-0.051120 0.311067 0
-0.056853 0.287767 0
-0.060892 0.261847 0
-0.063503 0.234599 0
-0.064959 0.207117 0
-0.065527 0.180277 0
-0.065454 0.154738 0
-0.064963 0.130941 0
-0.064238 0.109114 0
-0.063422 0.089299 0
-0.062615 0.071385 0
-0.061881 0.055150 0
-0.061256 0.040307 0
-0.060757 0.026527 0
-0.060389 0.013464 0
-0.060149 0.000759 0
-0.060032 -0.011964 0
-0.060016 -0.025063 0
-0.060077 -0.038865 0
-0.060186 -0.053685 0
-0.060306 -0.069830 0
-0.060392 -0.087590 0
-0.060392 -0.107208 0
-0.060244 -0.128861 0
-0.059881 -0.152606 0
-0.059229 -0.178341 0
-0.058221 -0.205769 0
-0.056790 -0.234387 0
-0.054864 -0.263471 0
-0.052359 -0.292070 0
-0.049177 -0.318995 0
-0.045182 -0.342748 0
-0.040068 -0.360801 0
-0.032721 -0.364554 0
-0.019786 -0.311390 0
0.000000 -0.130827 0
0.000000 0.154454 0
-0.004783 0.336885 0
-0.014965 0.362468 0
-0.024210 0.353730 0
-0.031777 0.338015 0
-0.037691 0.316963 0
-0.042078 0.292047 0
-0.045129 0.264736 0
-0.047058 0.236340 0
-0.048090 0.207956 0
-0.048442 0.180447 0
-0.048319 0.154454 0
-0.047898 0.130384 0
-0.047327 0.108431 0
-0.046715 0.088596 0
-0.046135 0.070730 0
-0.045628 0.054585 0
-0.045215 0.039849 0
-0.044902 0.026183 0
-0.044686 0.013234 0
-0.044562 0.000639 0
-0.044530 -0.011984 0
-0.044579 -0.025003 0
-0.044684 -0.038752 0
-0.044817 -0.053551 0
-0.044941 -0.069717 0
-0.045017 -0.087541 0
-0.044998 -0.107277 0
-0.044837 -0.129105 0
-0.044484 -0.153087 0
-0.043890 -0.179116 0
-0.043020 -0.206886 0
-0.041848 -0.235897 0
-0.040342 -0.265429 0
-0.038468 -0.294541 0
-0.036180 -0.322065 0
-0.033412 -0.346572 0
-0.030007 -0.365943 0
-0.025219 -0.373078 0
-0.016008 -0.325827 0
0.000000 -0.139755 0
0.000000 0.155905 0
-0.001107 0.342661 0
-0.008189 0.370783 0
-0.014964 0.360978 0
-0.020485 0.343809 0
-0.024762 0.321368 0
-0.027897 0.295205 0
-0.030036 0.266827 0
-0.031349 0.237561 0
-0.032009 0.208501 0
-0.032188 0.180506 0
-0.032042 0.154194 0
-0.031710 0.129949 0
-0.031300 0.107931 0
-0.030888 0.088106 0
-0.030522 0.070298 0
-0.030223 0.054231 0
-0.029998 0.039581 0
-0.029845 0.025997 0
-0.029755 0.013124 0
-0.029722 0.000603 0
-0.029744 -0.011948 0
-0.029819 -0.024909 0
-0.029927 -0.038627 0
-0.030039 -0.053427 0
-0.030122 -0.069630 0
-0.030139 -0.087533 0
-0.030054 -0.107388 0
-0.029835 -0.129374 0
-0.029455 -0.153554 0
-0.028893 -0.179805 0
-0.028152 -0.207811 0
-0.027243 -0.237065 0
-0.026179 -0.266851 0
-0.024972 -0.296232 0
-0.023627 -0.324052 0
-0.022135 -0.348921 0
-0.020438 -0.368994 0
-0.018076 -0.378553 0
-0.012390 -0.336609 0
0.000000 -0.146835 0
0.000000 0.155561 0
0.002415 0.345075 0
-0.001466 0.376325 0
-0.005871 0.366026 0
-0.009455 0.347814 0
-0.012194 0.324375 0
-0.014153 0.297321 0
-0.015445 0.268188 0
-0.016194 0.238314 0
-0.016525 0.208795 0
-0.016561 0.180481 0
-0.016412 0.153976 0
-0.016175 0.129641 0
-0.015921 0.107609 0
-0.015696 0.087818 0
-0.015522 0.070065 0
-0.015404 0.054061 0
-0.015337 0.039471 0
-0.015312 0.025940 0
-0.015320 0.013111 0
-0.015351 0.000627 0
-0.015400 -0.011887 0
-0.015467 -0.024820 0
-0.015537 -0.038532 0
-0.015584 -0.053357 0
-0.015579 -0.069617 0
-0.015495 -0.087608 0
-0.015304 -0.107581 0
-0.014994 -0.129704 0
-0.014561 -0.154030 0
-0.014023 -0.180419 0
-0.013418 -0.208537 0
-0.012793 -0.237870 0
-0.012207 -0.267699 0
-0.011715 -0.297093 0
-0.011369 -0.324902 0
-0.011210 -0.349761 0
-0.011247 -0.370001 0
-0.011228 -0.381126 0
-0.008908 -0.343904 0
0.000000 -0.152144 0
0.000000 0.153490 0
0.005857 0.344127 0
0.005257 0.379068 0
0.003192 0.368967 0
0.001469 0.350133 0
0.000198 0.326066 0
-0.000652 0.298456 0
-0.001154 0.268869 0
-0.001385 0.238641 0
-0.001420 0.208868 0
-0.001335 0.180392 0
-0.001195 0.153808 0
-0.001054 0.129458 0
-0.000947 0.107452 0
-0.000891 0.087708 0
-0.000886 0.070006 0
-0.000920 0.054046 0
-0.000979 0.039489 0
-0.001050 0.025980 0
-0.001118 0.013164 0
-0.001177 0.000683 0
-0.001223 -0.011832 0
-0.001246 -0.024772 0
-0.001237 -0.038510 0
-0.001175 -0.053385 0
-0.001041 -0.069720 0
-0.000816 -0.087808 0
-0.000488 -0.107889 0
-0.000062 -0.130118 0
0.000434 -0.154525 0
0.000937 -0.180948 0
0.001382 -0.209040 0
0.001685 -0.238276 0
0.001747 -0.267929 0
0.001469 -0.297070 0
0.000757 -0.324557 0
-0.000476 -0.349043 0
-0.002293 -0.368975 0
-0.004574 -0.380893 0
-0.005515 -0.347837 0
0.000000 -0.155743 0
0.000000 0.149705 0
0.009315 0.339818 0
0.012048 0.378990 0
0.012346 0.369813 0
0.012444 0.350808 0
0.012594 0.326495 0
0.012800 0.298673 0
0.013041 0.268921 0
0.013292 0.238580 0
0.013525 0.208745 0
0.013716 0.180255 0
0.013842 0.153695 0
0.013892 0.129394 0
0.013867 0.107446 0
0.013779 0.087756 0
0.013647 0.070094 0
0.013494 0.054155 0
0.013343 0.039601 0
0.013213 0.026079 0
0.013121 0.013238 0
0.013075 0.000732 0
0.013074 -0.011817 0
0.013134 -0.024806 0
0.013263 -0.038603 0
0.013472 -0.053553 0
0.013771 -0.069977 0
0.014166 -0.088162 0
0.014649 -0.108334 0
0.015192 -0.130625 0
0.015736 -0.155028 0
0.016187 -0.181368 0
0.016445 -0.209285 0
0.016384 -0.238235 0
0.015868 -0.267483 0
0.014756 -0.296103 0
0.012915 -0.322957 0
0.010217 -0.346711 0
0.006573 -0.365902 0
0.002011 -0.377904 0
-0.002136 -0.348478 0
0.000000 -0.157659 0
0.000000 0.144175 0
0.012860 0.332078 0
0.019033 0.376036 0
0.021740 0.368571 0
0.023623 0.349885 0
0.025144 0.325710 0
0.026364 0.298010 0
0.027315 0.268377 0
0.028023 0.238157 0
0.028511 0.208443 0
0.028803 0.180076 0
0.028923 0.153632 0
0.028902 0.129433 0
0.028774 0.107565 0
0.028576 0.087928 0
0.028346 0.070291 0
0.028115 0.054350 0
0.027913 0.039770 0
0.027763 0.026202 0
0.027682 0.013302 0
0.027680 0.000731 0
0.027765 -0.011891 0
0.027946 -0.024962 0
0.028228 -0.038848 0
0.028614 -0.053893 0
0.029104 -0.070414 0
0.029688 -0.088686 0
0.030335 -0.108915 0
0.030990 -0.131205 0
0.031565 -0.155519 0
0.031942 -0.181657 0
0.031976 -0.209237 0
0.031504 -0.237699 0
0.030351 -0.266301 0
0.028336 -0.294117 0
0.025283 -0.320018 0