# vtk DataFile Version 2.0
generated by CFD-lab course output (written by Tobias Neckel) 
ASCII

DATASET STRUCTURED_GRID
DIMENSIONS  41 41 1 
POINTS 1681 float

0.150000 0.150000 0
0.167857 0.150000 0
0.185714 0.150000 0
0.203571 0.150000 0
0.221429 0.150000 0
0.239286 0.150000 0
0.257143 0.150000 0
0.275000 0.150000 0
0.292857 0.150000 0
0.310714 0.150000 0
0.328571 0.150000 0
0.346429 0.150000 0
0.364286 0.150000 0
0.382143 0.150000 0
0.400000 0.150000 0
0.417857 0.150000 0
0.435714 0.150000 0
0.453571 0.150000 0
0.471429 0.150000 0
0.489286 0.150000 0
0.507143 0.150000 0
0.525000 0.150000 0
0.542857 0.150000 0
0.560714 0.150000 0
0.578571 0.150000 0
0.596429 0.150000 0
0.614286 0.150000 0
0.632143 0.150000 0
0.650000 0.150000 0
0.667857 0.150000 0
0.685714 0.150000 0
0.703571 0.150000 0
0.721429 0.150000 0
0.739286 0.150000 0
0.757143 0.150000 0
0.775000 0.150000 0
0.792857 0.150000 0
0.810714 0.150000 0
0.828571 0.150000 0
0.846429 0.150000 0
0.864286 0.150000 0
0.150000 0.167857 0
0.167857 0.167857 0
0.185714 0.167857 0
0.203571 0.167857 0
0.221429 0.167857 0
0.239286 0.167857 0
0.257143 0.167857 0
0.275000 0.167857 0
0.292857 0.167857 0
0.310714 0.167857 0
0.328571 0.167857 0
0.346429 0.167857 0
0.364286 0.167857 0
0.382143 0.167857 0
0.400000 0.167857 0
0.417857 0.167857 0
0.435714 0.167857 0
0.453571 0.167857 0
0.471429 0.167857 0
0.489286 0.167857 0
0.507143 0.167857 0
0.525000 0.167857 0
0.542857 0.167857 0
0.560714 0.167857 0
0.578571 0.167857 0
0.596429 0.167857 0
0.614286 0.167857 0
0.632143 0.167857 0
0.650000 0.167857 0
0.667857 0.167857 0
0.685714 0.167857 0
0.703571 0.167857 0
0.721429 0.167857 0
0.739286 0.167857 0
0.757143 0.167857 0
0.775000 0.167857 0
0.792857 0.167857 0
0.810714 0.167857 0
0.828571 0.167857 0
0.846429 0.167857 0
0.864286 0.167857 0
0.150000 0.185714 0
0.167857 0.185714 0
0.185714 0.185714 0
0.203571 0.185714 0
0.221429 0.185714 0
0.239286 0.185714 0
0.257143 0.185714 0
0.275000 0.185714 0
0.292857 0.185714 0
0.310714 0.185714 0
0.328571 0.185714 0
0.346429 0.185714 0
0.364286 0.185714 0
0.382143 0.185714 0
0.400000 0.185714 0
0.417857 0.185714 0
0.435714 0.185714 0
0.453571 0.185714 0
0.471429 0.185714 0
0.489286 0.185714 0
0.507143 0.185714 0
0.525000 0.185714 0
0.542857 0.185714 0
0.560714 0.185714 0
0.578571 0.185714 0
0.596429 0.185714 0
0.614286 0.185714 0
0.632143 0.185714 0
0.650000 0.185714 0
0.667857 0.185714 0
0.685714 0.185714 0
0.703571 0.185714 0
0.721429 0.185714 0
0.739286 0.185714 0
0.757143 0.185714 0
0.775000 0.185714 0
0.792857 0.185714 0
0.810714 0.185714 0
0.828571 0.185714 0
0.846429 0.185714 0
0.864286 0.185714 0
0.150000 0.203571 0
0.167857 0.203571 0
0.185714 0.203571 0
0.203571 0.203571 0
0.221429 0.203571 0
0.239286 0.203571 0
0.257143 0.203571 0
0.275000 0.203571 0
0.292857 0.203571 0
0.310714 0.203571 0
0.328571 0.203571 0
0.346429 0.203571 0
0.364286 0.203571 0
0.382143 0.203571 0
0.400000 0.203571 0
0.417857 0.203571 0
0.435714 0.203571 0
0.453571 0.203571 0
0.471429 0.203571 0
0.489286 0.203571 0
0.507143 0.203571 0
0.525000 0.203571 0
0.542857 0.203571 0
0.560714 0.203571 0
0.578571 0.203571 0
0.596429 0.203571 0
0.614286 0.203571 0
0.632143 0.203571 0
0.650000 0.203571 0
0.667857 0.203571 0
0.685714 0.203571 0
0.703571 0.203571 0
0.721429 0.203571 0
0.739286 0.203571 0
0.757143 0.203571 0
0.775000 0.203571 0
0.792857 0.203571 0
0.810714 0.203571 0
0.828571 0.203571 0
0.846429 0.203571 0
0.864286 0.203571 0
0.150000 0.221429 0
0.167857 0.221429 0
0.185714 0.221429 0
0.203571 0.221429 0
0.221429 0.221429 0
0.239286 0.221429 0
0.257143 0.221429 0
0.275000 0.221429 0
0.292857 0.221429 0
0.310714 0.221429 0
0.328571 0.221429 0
0.346429 0.221429 0
0.364286 0.221429 0
0.382143 0.221429 0
0.400000 0.221429 0
0.417857 0.221429 0
0.435714 0.221429 0
0.453571 0.221429 0
0.471429 0.221429 0
0.489286 0.221429 0
0.507143 0.221429 0
0.525000 0.221429 0
0.542857 0.221429 0
0.560714 0.221429 0
0.578571 0.221429 0
0.596429 0.221429 0
0.614286 0.221429 0
0.632143 0.221429 0
0.650000 0.221429 0
0.667857 0.221429 0
0.685714 0.221429 0
0.703571 0.221429 0
0.721429 0.221429 0
0.739286 0.221429 0
0.757143 0.221429 0
0.775000 0.221429 0
0.792857 0.221429 0
0.810714 0.221429 0
0.828571 0.221429 0
0.846429 0.221429 0
0.864286 0.221429 0
0.150000 0.239286 0
0.167857 0.239286 0
0.185714 0.239286 0
0.203571 0.239286 0
0.221429 0.239286 0
0.239286 0.239286 0
0.257143 0.239286 0
0.275000 0.239286 0
0.292857 0.239286 0
0.310714 0.239286 0
0.328571 0.239286 0
0.346429 0.239286 0
0.364286 0.239286 0
0.382143 0.239286 0
0.400000 0.239286 0
0.417857 0.239286 0
0.435714 0.239286 0
0.453571 0.239286 0
0.471429 0.239286 0
0.489286 0.239286 0
0.507143 0.239286 0
0.525000 0.239286 0
0.542857 0.239286 0
0.560714 0.239286 0
0.578571 0.239286 0
0.596429 0.239286 0
0.614286 0.239286 0
0.632143 0.239286 0
0.650000 0.239286 0
0.667857 0.239286 0
0.685714 0.239286 0
0.703571 0.239286 0
0.721429 0.239286 0
0.739286 0.239286 0
0.757143 0.239286 0
0.775000 0.239286 0
0.792857 0.239286 0
0.810714 0.239286 0
0.828571 0.239286 0
0.846429 0.239286 0
0.864286 0.239286 0
0.150000 0.257143 0
0.167857 0.257143 0
0.185714 0.257143 0
0.203571 0.257143 0
0.221429 0.257143 0
0.239286 0.257143 0
0.257143 0.257143 0
0.275000 0.257143 0
0.292857 0.257143 0
0.310714 0.257143 0
0.328571 0.257143 0
0.346429 0.257143 0
0.364286 0.257143 0
0.382143 0.257143 0
0.400000 0.257143 0
0.417857 0.257143 0
0.435714 0.257143 0
0.453571 0.257143 0
0.471429 0.257143 0
0.489286 0.257143 0
0.507143 0.257143 0
0.525000 0.257143 0
0.542857 0.257143 0
0.560714 0.257143 0
0.578571 0.257143 0
0.596429 0.257143 0
0.614286 0.257143 0
0.632143 0.257143 0
0.650000 0.257143 0
0.667857 0.257143 0
0.685714 0.257143 0
0.703571 0.257143 0
0.721429 0.257143 0
0.739286 0.257143 0
0.757143 0.257143 0
0.775000 0.257143 0
0.792857 0.257143 0
0.810714 0.257143 0
0.828571 0.257143 0
0.846429 0.257143 0
0.864286 0.257143 0
0.150000 0.275000 0
0.167857 0.275000 0
0.185714 0.275000 0
0.203571 0.275000 0
0.221429 0.275000 0
0.239286 0.275000 0
0.257143 0.275000 0
0.275000 0.275000 0
0.292857 0.275000 0
0.310714 0.275000 0
0.328571 0.275000 0
0.346429 0.275000 0
0.364286 0.275000 0
0.382143 0.275000 0
0.400000 0.275000 0
0.417857 0.275000 0
0.435714 0.275000 0
0.453571 0.275000 0
0.471429 0.275000 0
0.489286 0.275000 0
0.507143 0.275000 0
0.525000 0.275000 0
0.542857 0.275000 0
0.560714 0.275000 0
0.578571 0.275000 0
0.596429 0.275000 0
0.614286 0.275000 0
0.632143 0.275000 0
0.650000 0.275000 0
0.667857 0.275000 0
0.685714 0.275000 0
0.703571 0.275000 0
0.721429 0.275000 0
0.739286 0.275000 0
0.757143 0.275000 0
0.775000 0.275000 0
0.792857 0.275000 0
0.810714 0.275000 0
0.828571 0.275000 0
0.846429 0.275000 0
0.864286 0.275000 0
0.150000 0.292857 0
0.167857 0.292857 0
0.185714 0.292857 0
0.203571 0.292857 0
0.221429 0.292857 0
0.239286 0.292857 0
0.257143 0.292857 0
0.275000 0.292857 0
0.292857 0.292857 0
0.310714 0.292857 0
0.328571 0.292857 0
0.346429 0.292857 0
0.364286 0.292857 0
0.382143 0.292857 0
0.400000 0.292857 0
0.417857 0.292857 0
0.435714 0.292857 0
0.453571 0.292857 0
0.471429 0.292857 0
0.489286 0.292857 0
0.507143 0.292857 0
0.525000 0.292857 0
0.542857 0.292857 0
0.560714 0.292857 0
0.578571 0.292857 0
0.596429 0.292857 0
0.614286 0.292857 0
0.632143 0.292857 0
0.650000 0.292857 0
0.667857 0.292857 0
0.685714 0.292857 0
0.703571 0.292857 0
0.721429 0.292857 0
0.739286 0.292857 0
0.757143 0.292857 0
0.775000 0.292857 0
0.792857 0.292857 0
0.810714 0.292857 0
0.828571 0.292857 0
0.846429 0.292857 0
0.864286 0.292857 0
0.150000 0.310714 0
0.167857 0.310714 0
0.185714 0.310714 0
0.203571 0.310714 0
0.221429 0.310714 0
0.239286 0.310714 0
0.257143 0.310714 0
0.275000 0.310714 0
0.292857 0.310714 0
0.310714 0.310714 0
0.328571 0.310714 0
0.346429 0.310714 0
0.364286 0.310714 0
0.382143 0.310714 0
0.400000 0.310714 0
0.417857 0.310714 0
0.435714 0.310714 0
0.453571 0.310714 0
0.471429 0.310714 0
0.489286 0.310714 0
0.507143 0.310714 0
0.525000 0.310714 0
0.542857 0.310714 0
0.560714 0.310714 0
0.578571 0.310714 0
0.596429 0.310714 0
0.614286 0.310714 0
0.632143 0.310714 0
0.650000 0.310714 0
0.667857 0.310714 0
0.685714 0.310714 0
0.703571 0.310714 0
0.721429 0.310714 0
0.739286 0.310714 0
0.757143 0.310714 0
0.775000 0.310714 0
0.792857 0.310714 0
0.810714 0.310714 0
0.828571 0.310714 0
0.846429 0.310714 0
0.864286 0.310714 0
0.150000 0.328571 0
0.167857 0.328571 0
0.185714 0.328571 0
0.203571 0.328571 0
0.221429 0.328571 0
0.239286 0.328571 0
0.257143 0.328571 0
0.275000 0.328571 0
0.292857 0.328571 0
0.310714 0.328571 0
0.328571 0.328571 0
0.346429 0.328571 0
0.364286 0.328571 0
0.382143 0.328571 0
0.400000 0.328571 0
0.417857 0.328571 0
0.435714 0.328571 0
0.453571 0.328571 0
0.471429 0.328571 0
0.489286 0.328571 0
0.507143 0.328571 0
0.525000 0.328571 0
0.542857 0.328571 0
0.560714 0.328571 0
0.578571 0.328571 0
0.596429 0.328571 0
0.614286 0.328571 0
0.632143 0.328571 0
0.650000 0.328571 0
0.667857 0.328571 0
0.685714 0.328571 0
0.703571 0.328571 0
0.721429 0.328571 0
0.739286 0.328571 0
0.757143 0.328571 0
0.775000 0.328571 0
0.792857 0.328571 0
0.810714 0.328571 0
0.828571 0.328571 0
0.846429 0.328571 0
0.864286 0.328571 0
0.150000 0.346429 0
0.167857 0.346429 0
0.185714 0.346429 0
0.203571 0.346429 0
0.221429 0.346429 0
0.239286 0.346429 0
0.257143 0.346429 0
0.275000 0.346429 0
0.292857 0.346429 0
0.310714 0.346429 0
0.328571 0.346429 0
0.346429 0.346429 0
0.364286 0.346429 0
0.382143 0.346429 0
0.400000 0.346429 0
0.417857 0.346429 0
0.435714 0.346429 0
0.453571 0.346429 0
0.471429 0.346429 0
0.489286 0.346429 0
0.507143 0.346429 0
0.525000 0.346429 0
0.542857 0.346429 0
0.560714 0.346429 0
0.578571 0.346429 0
0.596429 0.346429 0
0.614286 0.346429 0
0.632143 0.346429 0
0.650000 0.346429 0
0.667857 0.346429 0
0.685714 0.346429 0
0.703571 0.346429 0
0.721429 0.346429 0
0.739286 0.346429 0
0.757143 0.346429 0
0.775000 0.346429 0
0.792857 0.346429 0
0.810714 0.346429 0
0.828571 0.346429 0
0.846429 0.346429 0
[...]
POINT_DATA 1681 

VECTORS velocity float
0.000000 0.000000 0
0.005355 0.000000 0
0.011419 0.000000 0
0.013954 0.000000 0
0.014223 0.000000 0
0.013876 0.000000 0
0.011825 0.000000 0
0.016580 0.000000 0
0.021004 0.000000 0
0.011285 0.000000 0
-0.005848 0.000000 0
-0.025141 0.000000 0
-0.044930 0.000000 0
-0.064161 0.000000 0
-0.082124 0.000000 0
-0.098395 0.000000 0
-0.112820 0.000000 0
-0.125258 0.000000 0
-0.135673 0.000000 0
-0.144056 0.000000 0
-0.150423 0.000000 0
-0.154790 0.000000 0
-0.157158 0.000000 0
-0.157548 0.000000 0
-0.155841 0.000000 0
-0.151903 0.000000 0
-0.145661 0.000000 0
-0.137030 0.000000 0
-0.125932 0.000000 0
-0.112309 0.000000 0
-0.096228 0.000000 0
-0.077754 0.000000 0
-0.057133 0.000000 0
-0.034834 0.000000 0
-0.011652 0.000000 0
0.011172 0.000000 0
0.026648 0.000000 0
0.029960 0.000000 0
0.022442 0.000000 0
0.010516 0.000000 0
0.000000 0.000000 0
0.000000 -0.005355 0
0.014751 -0.011419 0
0.027616 -0.008599 0
0.033017 -0.002804 0
0.033351 0.000078 0
0.033538 0.002398 0
0.024563 -0.002705 0
0.006343 -0.009179 0
-0.017167 0.005296 0
-0.047894 0.026851 0
-0.084737 0.036426 0
-0.123636 0.039082 0
-0.162122 0.039020 0
-0.198531 0.037194 0
-0.231814 0.034234 0
-0.261374 0.030696 0
-0.286949 0.026863 0
-0.308419 0.022853 0
-0.325782 0.018798 0
-0.339088 0.014750 0
-0.348402 0.010734 0
-0.353784 0.006735 0
-0.355259 0.002758 0
-0.352813 -0.001317 0
-0.346372 -0.005645 0
-0.335854 -0.010180 0
-0.321112 -0.014873 0
-0.301990 -0.019729 0
-0.278336 -0.024720 0
-0.250050 -0.029704 0
-0.217149 -0.034555 0
-0.179797 -0.039095 0
-0.138466 -0.042920 0
-0.094146 -0.045481 0
-0.048687 -0.046006 0
-0.005420 -0.038299 0
0.029703 -0.018788 0
0.046605 0.004206 0
0.036211 0.019444 0
0.016931 0.022442 0
0.000000 0.010516 0
0.000000 -0.014751 0
0.018033 -0.027616 0
0.028815 -0.018266 0
0.032340 -0.005734 0
0.021334 -0.000521 0
0.001034 0.008787 0
-0.027065 0.027196 0
-0.071384 0.041731 0
-0.121666 0.054237 0
-0.162926 0.067570 0
-0.200171 0.075742 0
-0.235572 0.077385 0
-0.268396 0.074895 0
-0.297991 0.069693 0
-0.324004 0.062843 0
-0.346285 0.055135 0
-0.364754 0.047045 0
-0.379499 0.038834 0
-0.390619 0.030669 0
-0.398224 0.022620 0
-0.402405 0.014696 0
-0.403221 0.006857 0
-0.400699 -0.000971 0
-0.394773 -0.008887 0
-0.385489 -0.016958 0
-0.372827 -0.025260 0
-0.356656 -0.033865 0
-0.336831 -0.042776 0
-0.313212 -0.051940 0
-0.285699 -0.061187 0
-0.254205 -0.070253 0
-0.218883 -0.078683 0
-0.180133 -0.085651 0
-0.138845 -0.089779 0
-0.096748 -0.088726 0
-0.056942 -0.078390 0
-0.019474 -0.052025 0
0.010121 -0.006508 0
0.016781 0.029674 0
0.007560 0.036211 0
0.000000 0.016931 0
0.000000 -0.023388 0
0.011349 -0.040233 0
0.010336 -0.022906 0
-0.006053 0.004677 0
-0.032809 0.031385 0
-0.072677 0.050797 0
-0.113965 0.069713 0
-0.154577 0.085422 0
-0.195445 0.096838 0
-0.232315 0.105356 0
-0.263939 0.109072 0
-0.291778 0.107308 0
-0.316225 0.101439 0
-0.337465 0.092802 0
-0.355643 0.082528 0
-0.370886 0.071445 0
-0.383279 0.060077 0
-0.392936 0.048718 0
-0.399943 0.037523 0
-0.404363 0.026536 0
-0.406229 0.015731 0
-0.405545 0.005029 0
-0.402285 -0.005690 0
-0.396408 -0.016526 0
-0.387866 -0.027591 0
-0.376542 -0.039014 0
-0.362321 -0.050869 0
-0.345071 -0.063172 0
-0.324663 -0.075853 0
-0.300989 -0.088711 0
-0.273975 -0.101371 0
-0.243689 -0.113168 0
-0.210378 -0.122957 0
-0.174578 -0.128866 0
-0.137225 -0.127910 0
-0.099667 -0.115573 0
-0.063263 -0.085850 0
-0.028434 -0.032049 0
0.000802 0.022004 0
-0.000555 0.039222 0
0.000000 0.018076 0
0.000000 -0.026100 0
-0.007455 -0.037953 0
-0.029318 -0.000864 0
-0.061601 0.037411 0
-0.094459 0.066102 0
-0.131448 0.089943 0
-0.169423 0.109095 0
-0.205312 0.123211 0
-0.238950 0.131975 0
-0.268704 0.136064 0
-0.293758 0.135205 0
-0.314931 0.129670 0
-0.332893 0.120582 0
-0.348152 0.109111 0
-0.361051 0.096264 0
-0.371796 0.082770 0
-0.380498 0.069095 0
-0.387221 0.055498 0
-0.391994 0.042095 0
-0.394819 0.028906 0
-0.395679 0.015878 0
-0.394542 0.002913 0
-0.391362 -0.010108 0
-0.386124 -0.023306 0
-0.378736 -0.036825 0
-0.369108 -0.050806 0
-0.357137 -0.065335 0
-0.342712 -0.080433 0
-0.325721 -0.096022 0
-0.306064 -0.111875 0
-0.283665 -0.127553 0
-0.258507 -0.142281 0
-0.230644 -0.154762 0
-0.200218 -0.162932 0
-0.167440 -0.163637 0
-0.132508 -0.152353 0
-0.095435 -0.123258 0
-0.056090 -0.070572 0
-0.014639 0.001795 0
-0.004148 0.037013 0
0.000000 0.016376 0
0.000000 -0.015934 0
-0.028986 -0.010916 0
-0.064845 0.031240 0
-0.097997 0.069818 0
-0.132819 0.101232 0
-0.167704 0.125761 0
-0.201364 0.143577 0
-0.232124 0.154949 0
-0.259566 0.160229 0
-0.283093 0.160164 0
-0.302597 0.155300 0
-0.318722 0.146443 0
-0.332122 0.134660 0
-0.343323 0.120960 0
-0.352673 0.106172 0
-0.360368 0.090892 0
-0.366508 0.075502 0
-0.371139 0.060214 0
-0.374275 0.045120 0
-0.375916 0.030221 0
-0.376046 0.015454 0
-0.374643 0.000712 0
-0.371675 -0.014107 0
-0.367125 -0.029152 0
-0.360909 -0.044608 0
-0.352950 -0.060613 0
-0.343157 -0.077265 0
-0.331437 -0.094588 0
-0.317691 -0.112500 0
-0.301828 -0.130767 0
-0.283759 -0.148929 0
-0.263398 -0.166189 0
-0.240643 -0.181246 0
-0.215327 -0.192070 0
-0.187145 -0.195620 0
-0.155567 -0.187578 0
-0.119815 -0.162268 0
-0.079164 -0.112845 0
-0.034350 -0.029938 0
0.003496 0.024584 0
0.000000 0.013928 0
0.000000 0.002886 0
-0.040558 0.026893 0
-0.080497 0.068148 0
-0.117605 0.105385 0
-0.152847 0.135809 0
-0.185661 0.158489 0
-0.215515 0.173516 0
-0.241748 0.181413 0
-0.264233 0.182943 0
-0.282961 0.179095 0
-0.298231 0.170834 0
-0.310636 0.159195 0
-0.320743 0.145183 0
-0.329004 0.129662 0
-0.335723 0.113309 0
-0.341087 0.096606 0
-0.345205 0.079866 0
-0.348142 0.063265 0
-0.349939 0.046872 0
-0.350617 0.030677 0
-0.350182 0.014605 0
-0.348631 -0.001458 0
-0.345951 -0.017626 0
-0.342091 -0.034072 0
-0.336994 -0.051000 0
-0.330584 -0.068558 0
-0.322780 -0.086848 0
-0.313494 -0.105899 0
-0.302637 -0.125630 0
-0.290117 -0.145808 0
-0.275837 -0.165983 0
-0.259672 -0.185396 0
-0.241428 -0.202834 0
-0.220763 -0.216430 0
-0.197086 -0.223397 0
-0.169454 -0.219683 0
-0.136577 -0.199661 0
-0.097143 -0.156037 0
-0.050472 -0.080866 0
0.004939 0.002663 0
0.000000 0.019872 0
0.000000 0.024624 0
-0.043780 0.069581 0
-0.086408 0.108288 0
-0.124937 0.142168 0
-0.159589 0.169287 0
-0.190263 0.188430 0
-0.216894 0.199664 0
-0.239437 0.203666 0
-0.258109 0.201443 0
-0.273248 0.194163 0
-0.285340 0.182974 0
-0.294938 0.168955 0
-0.302532 0.153029 0
-0.308505 0.135940 0
-0.313135 0.118255 0
-0.316616 0.100373 0
-0.319085 0.082557 0
-0.320642 0.064949 0
-0.321356 0.047595 0
-0.321277 0.030464 0
-0.320431 0.013469 0
-0.318828 -0.003520 0
-0.316460 -0.020647 0
-0.313273 -0.038109 0
-0.309211 -0.056115 0
-0.304200 -0.074827 0
-0.298156 -0.094355 0
-0.290990 -0.114731 0
-0.282609 -0.135877 0
-0.272915 -0.157567 0
-0.261801 -0.179374 0
-0.249127 -0.200598 0
-0.234669 -0.220155 0
-0.218038 -0.236411 0
-0.198556 -0.246929 0
-0.175126 -0.248087 0
-0.146190 -0.234579 0
-0.109992 -0.198950 0
-0.065622 -0.132020 0
-0.015898 -0.025889 0
0.000000 0.018867 0
0.000000 0.046665 0
-0.043259 0.113301 0
-0.086099 0.149305 0
-0.124110 0.178566 0
-0.157304 0.201136 0
-0.185723 0.215794 0
-0.209563 0.222689 0
-0.229123 0.222627 0
-0.244854 0.216754 0
-0.257270 0.206325 0
-0.266922 0.192525 0
-0.274325 0.176387 0
-0.279913 0.158750 0
-0.284035 0.140265 0
-0.286963 0.121420 0
-0.288908 0.102556 0
-0.290038 0.083892 0
-0.290481 0.065536 0
-0.290337 0.047508 0
-0.289677 0.029752 0
-0.288546 0.012156 0
-0.286963 -0.005429 0
-0.284923 -0.023180 0
-0.282376 -0.041321 0
-0.279262 -0.060073 0
-0.275501 -0.079612 0
-0.270999 -0.100058 0
-0.265657 -0.121447 0
-0.259367 -0.143706 0
-0.252018 -0.166615 0
-0.243489 -0.189771 0
-0.233632 -0.212528 0
-0.222231 -0.233923 0
-0.208926 -0.252544 0
-0.193106 -0.266308 0
-0.173760 -0.272048 0
-0.149387 -0.264795 0
-0.118198 -0.236606 0
-0.079209 -0.174960 0
-0.035536 -0.062959 0
0.000000 0.003974 0
0.000000 0.067883 0
-0.040918 0.155680 0
-0.081992 0.189139 0
-0.118150 0.213373 0
-0.149220 0.230900 0
-0.175264 0.240690 0
-0.196596 0.243065 0
-0.213673 0.238957 0
-0.227059 0.229589 0
-0.237331 0.216230 0
-0.245042 0.200029 0
-0.250671 0.181946 0
-0.254620 0.162740 0
-0.257222 0.142990 0
-0.258754 0.123128 0
-0.259446 0.103448 0
-0.259488 0.084129 0
-0.259038 0.065248 0
-0.258218 0.046791 0
-0.257120 0.028673 0
-0.255803 0.010754 0
-0.254295 -0.007143 0
-0.252594 -0.025234 0
-0.250650 -0.043770 0
-0.248395 -0.062991 0
-0.245741 -0.083090 0
-0.242582 -0.104199 0
-0.238801 -0.126364 0
-0.234273 -0.149516 0
-0.228867 -0.173444 0
-0.222442 -0.197759 0
-0.214839 -0.221857 0
-0.205853 -0.244862 0
-0.195180 -0.265536 0
-0.182322 -0.282095 0
-0.166444 -0.291806 0
-0.146205 -0.290141 0
-0.119724 -0.269128 0
-0.085111 -0.214682 0
-0.042464 -0.105097 0
0.000000 -0.016668 0
0.000000 0.087583 0
-0.037473 0.195293 0
-0.075642 0.226537 0
-0.109125 0.245793 0
-0.137633 0.258250 0
-0.161216 0.263170 0
-0.180216 0.261098 0
-0.195138 0.253090 0
-0.206568 0.240412 0
-0.215079 0.224309 0
-0.221193 0.205864 0
-0.225358 0.185965 0
-0.227951 0.165301 0
-0.229301 0.144399 0
-0.229690 0.123643 0
-0.229362 0.103290 0
-0.228530 0.083484 0
-0.227370 0.064266 0
-0.226027 0.045590 0
-0.224608 0.027336 0
-0.223185 0.009331 0
-0.221794 -0.008637 0
-0.220431 -0.026825 0
-0.219042 -0.045520 0
-0.217553 -0.064982 0
-0.215864 -0.085426 0
-0.213857 -0.106998 0
-0.211399 -0.129756 0
-0.208346 -0.153640 0
-0.204546 -0.178447 0
-0.199839 -0.203799 0
-0.194052 -0.229117 0
-0.186984 -0.253581 0
-0.178371 -0.276075 0
-0.167818 -0.295043 0
-0.154668 -0.308165 0
-0.137772 -0.311516 0
-0.115221 -0.297700 0
-0.084387 -0.252220 0
-0.043532 -0.148070 0
0.000000 -0.038489 0
0.000000 0.105355 0
-0.033394 0.231322 0
-0.068051 0.260792 0
-0.098407 0.275364 0
-0.124111 0.282991 0
-0.145194 0.283272 0
-0.161982 0.276987 0
-0.174966 0.265309 0
-0.184697 0.249530 0
-0.191709 0.230856 0
-0.196479 0.210307 0
-0.199421 0.188704 0
-0.200895 0.166683 0
-0.201221 0.144729 0
-0.200686 0.123189 0
-0.199544 0.102288 0
-0.198023 0.082137 0
-0.196316 0.062745 0
-0.194583 0.044029 0
-0.192946 0.025832 0
-0.191486 0.007940 0
-0.190240 -0.009897 0
-0.189201 -0.027985 0
-0.188310 -0.046648 0
-0.187483 -0.066169 0
-0.186612 -0.086786 0
-0.185567 -0.108664 0
-0.184202 -0.131874 0
-0.182358 -0.156369 0
-0.179868 -0.181951 0
-0.176558 -0.208253 0
-0.172241 -0.234712 0
-0.166717 -0.260543 0
-0.159743 -0.284701 0
-0.150998 -0.305797 0
-0.139973 -0.321852 0
-0.125749 -0.329588 0
-0.106595 -0.322513 0
-0.079670 -0.286371 0
-0.042232 -0.189485 0
0.000000 -0.060201 0
0.000000 0.120978 0
-0.029000 0.263343 0
-0.059859 0.291550 0
-0.086884 0.301854 0
-0.109685 0.305037 0
-0.128278 0.301041 0
-0.142954 0.290870 0
-0.154154 0.275805 0
-0.162372 0.257156 0
-0.168080 0.236091 0
-0.171708 0.213576 0
-0.173633 0.190381 0
-0.174196 0.167101 0
-0.173707 0.144190 0
-0.172451 0.121966 0
-0.170688 0.100628 0
-0.168653 0.080256 0
-0.166552 0.060826 0
-0.164555 0.042220 0
-0.162794 0.024240 0
-0.161353 0.006625 0
-0.160269 -0.010922 0
-0.159525 -0.028756 0
-0.159060 -0.047239 0
-0.158781 -0.066680 0
-0.158572 -0.087341 0
-0.158294 -0.109408 0
-0.157792 -0.132964 0
-0.156902 -0.157974 0
-0.155448 -0.184247 0
-0.153249 -0.211426 0
-0.150118 -0.238957 0
-0.145852 -0.266079 0
-0.140224 -0.291793 0
-0.132955 -0.314813 0
-0.123651 -0.333414 0
-0.111618 -0.344894 0
-0.095444 -0.343780 0
-0.072431 -0.316583 0
-0.039234 -0.227739 0
0.000000 -0.080722 0
0.000000 0.134356 0
-0.024494 0.291181 0
-0.051465 0.318676 0
-0.075111 0.325190 0
-0.095009 0.324385 0
-0.111166 0.316541 0
-0.123827 0.302863 0
-0.133371 0.284726 0
-0.140223 0.263456 0
-0.144792 0.240192 0
-0.147455 0.215860 0
-0.148553 0.191192 0
-0.148403 0.166757 0
-0.147300 0.142983 0
-0.145522 0.120170 0
-0.143328 0.098491 0
-0.140955 0.078001 0
-0.138611 0.058647 0
-0.136472 0.040270 0
-0.134670 0.022630 0
-0.133291 0.005415 0
-0.132370 -0.011725 0
-0.131881 -0.029194 0
-0.131756 -0.047392 0
-0.131897 -0.066657 0
-0.132182 -0.087273 0
-0.132470 -0.109443 0
-0.132603 -0.133266 0
-0.132416 -0.158714 0
-0.131737 -0.185604 0
-0.130390 -0.213583 0
-0.128194 -0.242110 0
-0.124955 -0.270437 0
-0.120462 -0.297598 0
-0.114468 -0.322369 0
-0.106657 -0.343189 0
-0.096529 -0.357796 0
-0.083029 -0.361701 0
-0.063828 -0.342581 0
-0.035284 -0.261916 0
0.000000 -0.099435 0
0.000000 0.145472 0
-0.019992 0.314809 0
-0.043100 0.342167 0
-0.063413 0.345398 0
-0.080473 0.341092 0
-0.094277 0.329858 0
-0.105025 0.313075 0
-0.113034 0.292201 0
-0.118655 0.268577 0
-0.122236 0.243323 0
-0.124101 0.217337 0
-0.124554 0.191328 0
-0.123885 0.165848 0
-0.122370 0.141309 0
-0.120273 0.117995 0
-0.117844 0.096061 0
-0.115310 0.075539 0
-0.112875 0.056342 0
-0.110709 0.038278 0
-0.108941 0.021060 0
-0.107656 0.004325 0
-0.106884 -0.012333 0
-0.106590 -0.029370 0
-0.106704 -0.047223 0
-0.107125 -0.066253 0
-0.107729 -0.086769 0
-0.108376 -0.108987 0
-0.108915 -0.133018 0
-0.109189 -0.158839 0
-0.109038 -0.186273 0
-0.108302 -0.214969 0
-0.106817 -0.244392 0
-0.104411 -0.273811 0
-0.100894 -0.302281 0
-0.096048 -0.328618 0
-0.089619 -0.351353 0
-0.081251 -0.368522 0
-0.070214 -0.376481 0
-0.054648 -0.364328 0
-0.030865 -0.291567 0
0.000000 -0.116006 0
0.000000 0.154347 0
-0.015548 0.334281 0
-0.034879 0.362097 0
-0.051958 0.362563 0
-0.066279 0.355249 0
-0.077833 0.341093 0
-0.086778 0.321620 0
-0.093368 0.298355 0
-0.097888 0.272658 0
-0.100626 0.245638 0
-0.101857 0.218179 0
-0.101846 0.190977 0
-0.100851 0.164573 0
-0.099126 0.139371 0
-0.096913 0.115643 0
-0.094442 0.093527 0
-0.091925 0.073033 0
-0.089548 0.054046 0
-0.087465 0.036336 0
-0.085798 0.019577 0
-0.084624 0.003357 0
-0.083972 -0.012791 0
-0.083803 -0.029373 0
-0.084044 -0.046857 0
-0.084594 -0.065633 0
-0.085334 -0.086023 0
-0.086134 -0.108257 0
-0.086855 -0.132453 0
-0.087359 -0.158590 0
-0.087507 -0.186490 0
-0.087164 -0.215804 0
-0.086193 -0.246001 0
-0.084452 -0.276361 0
-0.081783 -0.305961 0
-0.078003 -0.333644 0
-0.072905 -0.357986 0
-0.066238 -0.377201 0
-0.057531 -0.388303 0
-0.045397 -0.381930 0
-0.026297 -0.316564 0
0.000000 -0.130300 0
0.000000 0.161019 0
-0.011178 0.349688 0
-0.026840 0.378577 0
-0.040805 0.376798 0
-0.052501 0.366967 0
-0.061916 0.350358 0
-0.069169 0.328610 0
-0.074455 0.303311 0
-0.078001 0.275835 0
-0.080035 0.247291 0
-0.080788 0.218557 0
-0.080485 0.190323 0
-0.079350 0.163128 0
-0.077608 0.137371 0
-0.075473 0.113312 0
-0.073147 0.091074 0
-0.070814 0.070645 0
-0.068633 0.051882 0
-0.066734 0.034528 0
-0.065223 0.018219 0
-0.064171 0.002500 0
-0.063603 -0.013154 0
-0.063481 -0.029299 0
-0.063731 -0.046432 0
-0.064259 -0.064963 0
-0.064955 -0.085229 0
-0.065708 -0.107466 0
-0.066401 -0.131793 0
-0.066922 -0.158187 0
-0.067162 -0.186469 0
-0.067019 -0.216284 0
-0.066393 -0.247104 0
-0.065178 -0.278221 0
-0.063254 -0.308731 0
-0.060479 -0.337496 0
-0.056692 -0.363117 0
-0.051714 -0.383896 0
-0.045259 -0.397322 0
-0.036361 -0.395562 0
-0.021768 -0.336964 0
0.000000 -0.142303 0
0.000000 0.165526 0
-0.006877 0.361121 0
-0.018967 0.391724 0
-0.029936 0.388224 0
-0.039122 0.376360 0
-0.046506 0.357761 0
-0.052172 0.334159 0
-0.056264 0.307187 0
-0.058952 0.278238 0
-0.060413 0.248426 0
-0.060832 0.218629 0
-0.060393 0.189539 0
-0.059287 0.161696 0
-0.057701 0.135494 0
-0.055815 0.111183 0
-0.053797 0.088869 0
-0.051793 0.068519 0
-0.049925 0.049966 0
-0.048298 0.032927 0
-0.046993 0.017014 0
-0.046069 0.001737 0
-0.045546 -0.013481 0
-0.045393 -0.029245 0
-0.045538 -0.046080 0
-0.045897 -0.064409 0
-0.046383 -0.084573 0
-0.046907 -0.106811 0
-0.047386 -0.131239 0
-0.047739 -0.157829 0
-0.047896 -0.186393 0
-0.047797 -0.216573 0
-0.047380 -0.247841 0
-0.046582 -0.279500 0
-0.045325 -0.310660 0
-0.043511 -0.340206 0
-0.041025 -0.366752 0
-0.037743 -0.388635 0
-0.033500 -0.403656 0
-0.027670 -0.405420 0
-0.017373 -0.352925 0
0.000000 -0.152068 0
0.000000 0.167896 0
-0.002650 0.368655 0
-0.011209 0.401637 0
-0.019282 0.396952 0
-0.026057 0.383537 0
-0.031508 0.363408 0
-0.035682 0.338368 0
-0.038677 0.310090 0
-0.040610 0.279984 0
-0.041611 0.249171 0
-0.041818 0.218537 0
-0.041377 0.188778 0
-0.040438 0.160435 0
-0.039148 0.133899 0
-0.037649 0.109408 0
-0.036065 0.087051 0
-0.034500 0.066773 0
-0.033037 0.048388 0
-0.031747 0.031595 0
-0.030688 0.015990 0
-0.029904 0.001053 0
-0.029390 -0.013830 0
-0.029130 -0.029307 0
-0.029063 -0.045927 0
-0.029126 -0.064119 0
-0.029257 -0.084219 0
-0.029402 -0.106463 0
-0.029513 -0.130961 0
-0.029554 -0.157676 0
-0.029498 -0.186411 0
-0.029326 -0.216800 0
-0.029023 -0.248318 0
-0.028567 -0.280276 0
-0.027925 -0.311801 0
-0.027045 -0.341796 0
-0.025857 -0.368886 0
-0.024286 -0.391422 0
-0.022240 -0.407395 0
-0.019345 -0.411688 0
-0.013140 -0.364634 0
0.000000 -0.159676 0
0.000000 0.168176 0
0.001449 0.372330 0
-0.003467 0.408355 0
-0.008726 0.403072 0
-0.013185 0.388586 0
-0.016779 0.367387 0
-0.019539 0.341328 0
-0.021514 0.312114 0
-0.022775 0.281172 0
-0.023404 0.249634 0
-0.023495 0.218395 0
-0.023150 0.188159 0
-0.022477 0.159467 0
-0.021583 0.132705 0
-0.020563 0.108099 0
-0.019496 0.085720 0
-0.018441 0.065491 0
-0.017441 0.047212 0
-0.016528 0.030577 0
-0.015730 0.015171 0
-0.015079 0.000439 0
-0.014559 -0.014255 0
-0.014124 -0.029571 0
-0.013755 -0.046084 0
-0.013418 -0.064216 0
-0.013087 -0.084297 0
-0.012746 -0.106554 0
-0.012390 -0.131086 0
-0.012027 -0.157844 0
-0.011676 -0.186622 0
-0.011365 -0.217049 0
-0.011123 -0.248601 0
-0.010972 -0.280597 0
-0.010921 -0.312183 0
-0.010965 -0.342274 0
-0.011081 -0.369510 0
-0.011238 -0.392251 0
-0.011393 -0.408597 0
-0.011339 -0.414520 0
-0.009056 -0.372270 0
0.000000 -0.165209 0
0.000000 0.166447 0
0.005454 0.372122 0
0.004315 0.411811 0
0.001852 0.406671 0
-0.000341 0.391590 0
-0.002137 0.369762 0
-0.003538 0.343103 0
-0.004552 0.313327 0
-0.005199 0.281874 0
-0.005514 0.249890 0
-0.005547 0.218282 0
-0.005357 0.187761 0
-0.005008 0.158869 0
-0.004560 0.131985 0
-0.004064 0.107321 0
-0.003551 0.084930 0
-0.003037 0.064718 0
-0.002523 0.046474 0
-0.002004 0.029884 0
-0.001468 0.014541 0
-0.000910 -0.000118 0
-0.000330 -0.014784 0
0.000328 -0.030111 0
0.001059 -0.046634 0
0.001857 -0.064787 0
0.002706 -0.084891 0
0.003582 -0.107160 0
0.004446 -0.131681 0
0.005244 -0.158391 0
0.005910 -0.187072 0
0.006372 -0.217353 0
0.006558 -0.248712 0
0.006404 -0.280478 0
0.005857 -0.311808 0
0.004878 -0.341636 0
0.003444 -0.368612 0
0.001542 -0.391110 0
-0.000826 -0.407294 0
-0.003559 -0.414025 0
-0.005075 -0.375973 0
0.000000 -0.168732 0
0.000000 0.162722 0
0.009480 0.368015 0
0.012195 0.411957 0
0.012566 0.407728 0
0.012629 0.392575 0
0.012600 0.370584 0
0.012527 0.343743 0
0.012446 0.313775 0
0.012386 0.282134 0
0.012360 0.249982 0
0.012364 0.218238 0
0.012385 0.187619 0
0.012402 0.158670 0
0.012403 0.131761 0
0.012384 0.107090 0
0.012360 0.084693 0
0.012356 0.064463 0
0.012409 0.046179 0
0.012560 0.029522 0
0.012858 0.014078 0
0.013351 -0.000699 0
0.014059 -0.015494 0
0.014978 -0.030960 0
0.016091 -0.047612 0
0.017356 -0.065862 0
0.018721 -0.086022 0
0.020122 -0.108294 0
0.021475 -0.132748 0
0.022681 -0.159309 0
0.023630 -0.187749 0
0.024207 -0.217696 0
0.024299 -0.248632 0
0.023801 -0.279897 0
0.022618 -0.310657 0
0.020667 -0.339861 0
0.017877 -0.366174 0
0.014194 -0.387982 0
0.009590 -0.403495 0
0.004111 -0.410270 0
-0.001120 -0.375830 0
0.000000 -0.170284 0
0.000000 0.156966 0
0.013606 0.359927 0
0.020292 0.408726 0
0.023552 0.406237 0
0.025853 0.391556 0
0.027579 0.369863 0
0.028827 0.343257 0
0.029680 0.313467 0
0.030215 0.281959 0
0.030493 0.249912 0
0.030559 0.218258 0
0.030444 0.187723 0
0.030176 0.158850 0
0.029788 0.132002 0
0.029324 0.107364 0
0.028839 0.084958 0
0.028398 0.064669 0
0.028073 0.046269 0
0.027935 0.029435 0
0.028063 0.013750 0
0.028523 -0.001318 0
0.029357 -0.016411 0
0.030535 -0.032142 0
0.032005 -0.049012 0
0.033698 -0.067417 0
0.035528 -0.087657 0
0.037391 -0.109914 0
0.039164 -0.134240 0
0.040704 -0.160546 0
0.041860 -0.188598 0
0.042476 -0.218022 0
0.042400 -0.248306 0
0.041487 -0.278797 0
0.039600 -0.308674 0
0.036611 -0.336894 0
0.032401 -0.362139 0