# vtk DataFile Version 2.0
generated by CFD-lab course output (written by Tobias Neckel) 
ASCII

DATASET STRUCTURED_GRID
DIMENSIONS  41 41 1 
POINTS 1681 float

0.150000 0.150000 0
0.167857 0.150000 0
0.185714 0.150000 0
0.203571 0.150000 0
0.221429 0.150000 0
0.239286 0.150000 0
0.257143 0.150000 0
0.275000 0.150000 0
0.292857 0.150000 0
0.310714 0.150000 0
0.328571 0.150000 0
0.346429 0.150000 0
0.364286 0.150000 0
0.382143 0.150000 0
0.400000 0.150000 0
0.417857 0.150000 0
0.435714 0.150000 0
0.453571 0.150000 0
0.471429 0.150000 0
0.489286 0.150000 0
0.507143 0.150000 0
0.525000 0.150000 0
0.542857 0.150000 0
0.560714 0.150000 0
0.578571 0.150000 0
0.596429 0.150000 0
0.614286 0.150000 0
0.632143 0.150000 0
0.650000 0.150000 0
0.667857 0.150000 0
0.685714 0.150000 0
0.703571 0.150000 0
0.721429 0.150000 0
0.739286 0.150000 0
0.757143 0.150000 0
0.775000 0.150000 0
0.792857 0.150000 0
0.810714 0.150000 0
0.828571 0.150000 0
0.846429 0.150000 0
0.864286 0.150000 0
0.150000 0.167857 0
0.167857 0.167857 0
0.185714 0.167857 0
0.203571 0.167857 0
0.221429 0.167857 0
0.239286 0.167857 0
0.257143 0.167857 0
0.275000 0.167857 0
0.292857 0.167857 0
0.310714 0.167857 0
0.328571 0.167857 0
0.346429 0.167857 0
0.364286 0.167857 0
0.382143 0.167857 0
0.400000 0.167857 0
0.417857 0.167857 0
0.435714 0.167857 0
0.453571 0.167857 0
0.471429 0.167857 0
0.489286 0.167857 0
0.507143 0.167857 0
0.525000 0.167857 0
0.542857 0.167857 0
0.560714 0.167857 0
0.578571 0.167857 0
0.596429 0.167857 0
0.614286 0.167857 0
0.632143 0.167857 0
0.650000 0.167857 0
0.667857 0.167857 0
0.685714 0.167857 0
0.703571 0.167857 0
0.721429 0.167857 0
0.739286 0.167857 0
0.757143 0.167857 0
0.775000 0.167857 0
0.792857 0.167857 0
0.810714 0.167857 0
0.828571 0.167857 0
0.846429 0.167857 0
0.864286 0.167857 0
0.150000 0.185714 0
0.167857 0.185714 0
0.185714 0.185714 0
0.203571 0.185714 0
0.221429 0.185714 0
0.239286 0.185714 0
0.257143 0.185714 0
0.275000 0.185714 0
0.292857 0.185714 0
0.310714 0.185714 0
0.328571 0.185714 0
0.346429 0.185714 0
0.364286 0.185714 0
0.382143 0.185714 0
0.400000 0.185714 0
0.417857 0.185714 0
0.435714 0.185714 0
0.453571 0.185714 0
0.471429 0.185714 0
0.489286 0.185714 0
0.507143 0.185714 0
0.525000 0.185714 0
0.542857 0.185714 0
0.560714 0.185714 0
0.578571 0.185714 0
0.596429 0.185714 0
0.614286 0.185714 0
0.632143 0.185714 0
0.650000 0.185714 0
0.667857 0.185714 0
0.685714 0.185714 0
0.703571 0.185714 0
0.721429 0.185714 0
0.739286 0.185714 0
0.757143 0.185714 0
0.775000 0.185714 0
0.792857 0.185714 0
0.810714 0.185714 0
0.828571 0.185714 0
0.846429 0.185714 0
0.864286 0.185714 0
0.150000 0.203571 0
0.167857 0.203571 0
0.185714 0.203571 0
0.203571 0.203571 0
0.221429 0.203571 0
0.239286 0.203571 0
0.257143 0.203571 0
0.275000 0.203571 0
0.292857 0.203571 0
0.310714 0.203571 0
0.328571 0.203571 0
0.346429 0.203571 0
0.364286 0.203571 0
0.382143 0.203571 0
0.400000 0.203571 0
0.417857 0.203571 0
0.435714 0.203571 0
0.453571 0.203571 0
0.471429 0.203571 0
0.489286 0.203571 0
0.507143 0.203571 0
0.525000 0.203571 0
0.542857 0.203571 0
0.560714 0.203571 0
0.578571 0.203571 0
0.596429 0.203571 0
0.614286 0.203571 0
0.632143 0.203571 0
0.650000 0.203571 0
0.667857 0.203571 0
0.685714 0.203571 0
0.703571 0.203571 0
0.721429 0.203571 0
0.739286 0.203571 0
0.757143 0.203571 0
0.775000 0.203571 0
0.792857 0.203571 0
0.810714 0.203571 0
0.828571 0.203571 0
0.846429 0.203571 0
0.864286 0.203571 0
0.150000 0.221429 0
0.167857 0.221429 0
0.185714 0.221429 0
0.203571 0.221429 0
0.221429 0.221429 0
0.239286 0.221429 0
0.257143 0.221429 0
0.275000 0.221429 0
0.292857 0.221429 0
0.310714 0.221429 0
0.328571 0.221429 0
0.346429 0.221429 0
0.364286 0.221429 0
0.382143 0.221429 0
0.400000 0.221429 0
0.417857 0.221429 0
0.435714 0.221429 0
0.453571 0.221429 0
0.471429 0.221429 0
0.489286 0.221429 0
0.507143 0.221429 0
0.525000 0.221429 0
0.542857 0.221429 0
0.560714 0.221429 0
0.578571 0.221429 0
0.596429 0.221429 0
0.614286 0.221429 0
0.632143 0.221429 0
0.650000 0.221429 0
0.667857 0.221429 0
0.685714 0.221429 0
0.703571 0.221429 0
0.721429 0.221429 0
0.739286 0.221429 0
0.757143 0.221429 0
0.775000 0.221429 0
0.792857 0.221429 0
0.810714 0.221429 0
0.828571 0.221429 0
0.846429 0.221429 0
0.864286 0.221429 0
0.150000 0.239286 0
0.167857 0.239286 0
0.185714 0.239286 0
0.203571 0.239286 0
0.221429 0.239286 0
0.239286 0.239286 0
0.257143 0.239286 0
0.275000 0.239286 0
0.292857 0.239286 0
0.310714 0.239286 0
0.328571 0.239286 0
0.346429 0.239286 0
0.364286 0.239286 0
0.382143 0.239286 0
0.400000 0.239286 0
0.417857 0.239286 0
0.435714 0.239286 0
0.453571 0.239286 0
0.471429 0.239286 0
0.489286 0.239286 0
0.507143 0.239286 0
0.525000 0.239286 0
0.542857 0.239286 0
0.560714 0.239286 0
0.578571 0.239286 0
0.596429 0.239286 0
0.614286 0.239286 0
0.632143 0.239286 0
0.650000 0.239286 0
0.667857 0.239286 0
0.685714 0.239286 0
0.703571 0.239286 0
0.721429 0.239286 0
0.739286 0.239286 0
0.757143 0.239286 0
0.775000 0.239286 0
0.792857 0.239286 0
0.810714 0.239286 0
0.828571 0.239286 0
0.846429 0.239286 0
0.864286 0.239286 0
0.150000 0.257143 0
0.167857 0.257143 0
0.185714 0.257143 0
0.203571 0.257143 0
0.221429 0.257143 0
0.239286 0.257143 0
0.257143 0.257143 0
0.275000 0.257143 0
0.292857 0.257143 0
0.310714 0.257143 0
0.328571 0.257143 0
0.346429 0.257143 0
0.364286 0.257143 0
0.382143 0.257143 0
0.400000 0.257143 0
0.417857 0.257143 0
0.435714 0.257143 0
0.453571 0.257143 0
0.471429 0.257143 0
0.489286 0.257143 0
0.507143 0.257143 0
0.525000 0.257143 0
0.542857 0.257143 0
0.560714 0.257143 0
0.578571 0.257143 0
0.596429 0.257143 0
0.614286 0.257143 0
0.632143 0.257143 0
0.650000 0.257143 0
0.667857 0.257143 0
0.685714 0.257143 0
0.703571 0.257143 0
0.721429 0.257143 0
0.739286 0.257143 0
0.757143 0.257143 0
0.775000 0.257143 0
0.792857 0.257143 0
0.810714 0.257143 0
0.828571 0.257143 0
0.846429 0.257143 0
0.864286 0.257143 0
0.150000 0.275000 0
0.167857 0.275000 0
0.185714 0.275000 0
0.203571 0.275000 0
0.221429 0.275000 0
0.239286 0.275000 0
0.257143 0.275000 0
0.275000 0.275000 0
0.292857 0.275000 0
0.310714 0.275000 0
0.328571 0.275000 0
0.346429 0.275000 0
0.364286 0.275000 0
0.382143 0.275000 0
0.400000 0.275000 0
0.417857 0.275000 0
0.435714 0.275000 0
0.453571 0.275000 0
0.471429 0.275000 0
0.489286 0.275000 0
0.507143 0.275000 0
0.525000 0.275000 0
0.542857 0.275000 0
0.560714 0.275000 0
0.578571 0.275000 0
0.596429 0.275000 0
0.614286 0.275000 0
0.632143 0.275000 0
0.650000 0.275000 0
0.667857 0.275000 0
0.685714 0.275000 0
0.703571 0.275000 0
0.721429 0.275000 0
0.739286 0.275000 0
0.757143 0.275000 0
0.775000 0.275000 0
0.792857 0.275000 0
0.810714 0.275000 0
0.828571 0.275000 0
0.846429 0.275000 0
0.864286 0.275000 0
0.150000 0.292857 0
0.167857 0.292857 0
0.185714 0.292857 0
0.203571 0.292857 0
0.221429 0.292857 0
0.239286 0.292857 0
0.257143 0.292857 0
0.275000 0.292857 0
0.292857 0.292857 0
0.310714 0.292857 0
0.328571 0.292857 0
0.346429 0.292857 0
0.364286 0.292857 0
0.382143 0.292857 0
0.400000 0.292857 0
0.417857 0.292857 0
0.435714 0.292857 0
0.453571 0.292857 0
0.471429 0.292857 0
0.489286 0.292857 0
0.507143 0.292857 0
0.525000 0.292857 0
0.542857 0.292857 0
0.560714 0.292857 0
0.578571 0.292857 0
0.596429 0.292857 0
0.614286 0.292857 0
0.632143 0.292857 0
0.650000 0.292857 0
0.667857 0.292857 0
0.685714 0.292857 0
0.703571 0.292857 0
0.721429 0.292857 0
0.739286 0.292857 0
0.757143 0.292857 0
0.775000 0.292857 0
0.792857 0.292857 0
0.810714 0.292857 0
0.828571 0.292857 0
0.846429 0.292857 0
0.864286 0.292857 0
0.150000 0.310714 0
0.167857 0.310714 0
0.185714 0.310714 0
0.203571 0.310714 0
0.221429 0.310714 0
0.239286 0.310714 0
0.257143 0.310714 0
0.275000 0.310714 0
0.292857 0.310714 0
0.310714 0.310714 0
0.328571 0.310714 0
0.346429 0.310714 0
0.364286 0.310714 0
0.382143 0.310714 0
0.400000 0.310714 0
0.417857 0.310714 0
0.435714 0.310714 0
0.453571 0.310714 0
0.471429 0.310714 0
0.489286 0.310714 0
0.507143 0.310714 0
0.525000 0.310714 0
0.542857 0.310714 0
0.560714 0.310714 0
0.578571 0.310714 0
0.596429 0.310714 0
0.614286 0.310714 0
0.632143 0.310714 0
0.650000 0.310714 0
0.667857 0.310714 0
0.685714 0.310714 0
0.703571 0.310714 0
0.721429 0.310714 0
0.739286 0.310714 0
0.757143 0.310714 0
0.775000 0.310714 0
0.792857 0.310714 0
0.810714 0.310714 0
0.828571 0.310714 0
0.846429 0.310714 0
0.864286 0.310714 0
0.150000 0.328571 0
0.167857 0.328571 0
0.185714 0.328571 0
0.203571 0.328571 0
0.221429 0.328571 0
0.239286 0.328571 0
0.257143 0.328571 0
0.275000 0.328571 0
0.292857 0.328571 0
0.310714 0.328571 0
0.328571 0.328571 0
0.346429 0.328571 0
0.364286 0.328571 0
0.382143 0.328571 0
0.400000 0.328571 0
0.417857 0.328571 0
0.435714 0.328571 0
0.453571 0.328571 0
0.471429 0.328571 0
0.489286 0.328571 0
0.507143 0.328571 0
0.525000 0.328571 0
0.542857 0.328571 0
0.560714 0.328571 0
0.578571 0.328571 0
0.596429 0.328571 0
0.614286 0.328571 0
0.632143 0.328571 0
0.650000 0.328571 0
0.667857 0.328571 0
0.685714 0.328571 0
0.703571 0.328571 0
0.721429 0.328571 0
0.739286 0.328571 0
0.757143 0.328571 0
0.775000 0.328571 0
0.792857 0.328571 0
0.810714 0.328571 0
0.828571 0.328571 0
0.846429 0.328571 0
0.864286 0.328571 0
0.150000 0.346429 0
0.167857 0.346429 0
0.185714 0.346429 0
0.203571 0.346429 0
0.221429 0.346429 0
0.239286 0.346429 0
0.257143 0.346429 0
0.275000 0.346429 0
0.292857 0.346429 0
0.310714 0.346429 0
0.328571 0.346429 0
0.346429 0.346429 0
0.364286 0.346429 0
0.382143 0.346429 0
0.400000 0.346429 0
0.417857 0.346429 0
0.435714 0.346429 0
0.453571 0.346429 0
0.471429 0.346429 0
0.489286 0.346429 0
0.507143 0.346429 0
0.525000 0.346429 0
0.542857 0.346429 0
0.560714 0.346429 0
0.578571 0.346429 0
0.596429 0.346429 0
0.614286 0.346429 0
0.632143 0.346429 0
0.650000 0.346429 0
0.667857 0.346429 0
0.685714 0.346429 0
0.703571 0.346429 0
0.721429 0.346429 0
0.739286 0.346429 0
0.757143 0.346429 0
0.775000 0.346429 0
0.792857 0.346429 0
0.810714 0.346429 0
0.828571 0.346429 0
0.846429 0.346429 0
[...]
POINT_DATA 1681 

VECTORS velocity float
0.000000 0.000000 0
0.003524 0.000000 0
0.009196 0.000000 0
0.013203 0.000000 0
0.014031 0.000000 0
0.014261 0.000000 0
0.016685 0.000000 0
0.016387 0.000000 0
0.009862 0.000000 0
-0.001647 0.000000 0
-0.015375 0.000000 0
-0.029855 0.000000 0
-0.044270 0.000000 0
-0.058013 0.000000 0
-0.070722 0.000000 0
-0.082197 0.000000 0
-0.092440 0.000000 0
-0.101387 0.000000 0
-0.109038 0.000000 0
-0.115392 0.000000 0
-0.120452 0.000000 0
-0.124217 0.000000 0
-0.126666 0.000000 0
-0.127817 0.000000 0
-0.127550 0.000000 0
-0.125696 0.000000 0
-0.122101 0.000000 0
-0.116626 0.000000 0
-0.109131 0.000000 0
-0.099493 0.000000 0
-0.087716 0.000000 0
-0.073772 0.000000 0
-0.057796 0.000000 0
-0.040133 0.000000 0
-0.021469 0.000000 0
-0.003001 0.000000 0
0.012971 0.000000 0
0.019884 0.000000 0
0.015821 0.000000 0
0.007253 0.000000 0
0.000000 0.000000 0
0.000000 -0.003524 0
0.009441 -0.009196 0
0.019553 -0.009679 0
0.026181 -0.004834 0
0.025798 -0.001058 0
0.017445 -0.002654 0
0.003663 -0.002126 0
-0.014450 0.006823 0
-0.037511 0.018033 0
-0.064673 0.025236 0
-0.093726 0.028208 0
-0.122855 0.028895 0
-0.150798 0.028158 0
-0.176708 0.026452 0
-0.200097 0.024183 0
-0.220743 0.021718 0
-0.238624 0.019190 0
-0.253747 0.016598 0
-0.266167 0.014005 0
-0.275938 0.011414 0
-0.283104 0.008826 0
-0.287686 0.006214 0
-0.289668 0.003600 0
-0.289000 0.000884 0
-0.285540 -0.002121 0
-0.279126 -0.005448 0
-0.269536 -0.009070 0
-0.256514 -0.012970 0
-0.239805 -0.017132 0
-0.219183 -0.021415 0
-0.194526 -0.025722 0
-0.165808 -0.029920 0
-0.133262 -0.033638 0
-0.097541 -0.036327 0
-0.059989 -0.037133 0
-0.023038 -0.034440 0
0.009181 -0.022884 0
0.029905 -0.002850 0
0.027157 0.012631 0
0.013159 0.015821 0
0.000000 0.007253 0
0.000000 -0.009441 0
0.009454 -0.019553 0
0.012614 -0.016739 0
0.004937 -0.006245 0
-0.009840 0.008735 0
-0.032863 0.022135 0
-0.065092 0.031895 0
-0.099622 0.041174 0
-0.131816 0.050223 0
-0.161416 0.056215 0
-0.189198 0.058182 0
-0.214885 0.057072 0
-0.238029 0.053853 0
-0.258431 0.049300 0
-0.276034 0.044035 0
-0.290900 0.038526 0
-0.303066 0.033004 0
-0.312698 0.027543 0
-0.319923 0.022190 0
-0.324853 0.016937 0
-0.327566 0.011748 0
-0.328097 0.006564 0
-0.326439 0.001314 0
-0.322471 -0.004129 0
-0.316154 -0.009873 0
-0.307402 -0.016004 0
-0.296051 -0.022612 0
-0.281879 -0.029731 0
-0.264651 -0.037331 0
-0.244149 -0.045279 0
-0.220128 -0.053375 0
-0.192548 -0.061264 0
-0.161548 -0.068268 0
-0.127639 -0.073273 0
-0.091925 -0.074503 0
-0.056443 -0.069170 0
-0.024240 -0.052943 0
0.003099 -0.017976 0
0.016919 0.016746 0
0.008484 0.027157 0
0.000000 0.013159 0
0.000000 -0.012978 0
-0.001966 -0.021811 0
-0.016242 -0.005162 0
-0.039949 0.017620 0
-0.068110 0.036742 0
-0.097605 0.052598 0
-0.128546 0.064634 0
-0.159580 0.073547 0
-0.188090 0.079828 0
-0.213005 0.082619 0
-0.234682 0.081677 0
-0.253427 0.077726 0
-0.269458 0.071704 0
-0.283011 0.064457 0
-0.294315 0.056653 0
-0.303575 0.048750 0
-0.310927 0.040988 0
-0.316527 0.033454 0
-0.320490 0.026160 0
-0.322890 0.019058 0
-0.323764 0.012070 0
-0.323106 0.005087 0
-0.320868 -0.002026 0
-0.316958 -0.009401 0
-0.311288 -0.017191 0
-0.303692 -0.025552 0
-0.293992 -0.034593 0
-0.281984 -0.044370 0
-0.267443 -0.054862 0
-0.250141 -0.065938 0
-0.229850 -0.077323 0
-0.206454 -0.088500 0
-0.179971 -0.098547 0
-0.150660 -0.105949 0
-0.119149 -0.108329 0
-0.086582 -0.102125 0
-0.054677 -0.082427 0
-0.025412 -0.044009 0
0.001569 0.007246 0
0.002020 0.032740 0
0.000000 0.015737 0
0.000000 -0.007476 0
-0.020120 -0.003311 0
-0.048776 0.021244 0
-0.077725 0.045623 0
-0.107540 0.066392 0
-0.137049 0.082571 0
-0.165258 0.093870 0
-0.191439 0.100717 0
-0.214397 0.103648 0
-0.233632 0.102807 0
-0.249494 0.098604 0
-0.262523 0.091848 0
-0.273232 0.083437 0
-0.282052 0.074157 0
-0.289306 0.064599 0
-0.295218 0.055137 0
-0.299921 0.045957 0
-0.303508 0.037106 0
-0.306032 0.028553 0
-0.307508 0.020212 0
-0.307920 0.011964 0
-0.307223 0.003668 0
-0.305349 -0.004834 0
-0.302220 -0.013709 0
-0.297707 -0.023139 0
-0.291679 -0.033299 0
-0.283978 -0.044320 0
-0.274429 -0.056281 0
-0.262833 -0.069174 0
-0.248982 -0.082872 0
-0.232662 -0.097062 0
-0.213701 -0.111144 0
-0.191982 -0.124062 0
-0.167487 -0.134095 0
-0.140341 -0.138581 0
-0.110864 -0.133642 0
-0.079600 -0.114112 0
-0.047382 -0.074222 0
-0.016149 -0.010686 0
0.000588 0.028726 0
0.000000 0.015179 0
0.000000 0.007142 0
-0.032205 0.026966 0
-0.065926 0.052443 0
-0.098108 0.076383 0
-0.128470 0.096065 0
-0.156385 0.110316 0
-0.181314 0.119024 0
-0.202951 0.122686 0
-0.220976 0.122021 0
-0.235463 0.117716 0
-0.246920 0.110568 0
-0.255978 0.101465 0
-0.263216 0.091232 0
-0.269078 0.080531 0
-0.273872 0.069819 0
-0.277784 0.059364 0
-0.280914 0.049279 0
-0.283312 0.039566 0
-0.284994 0.030159 0
-0.285950 0.020946 0
-0.286152 0.011785 0
-0.285551 0.002516 0
-0.284087 -0.007029 0
-0.281693 -0.017043 0
-0.278263 -0.027732 0
-0.273691 -0.039281 0
-0.267849 -0.051843 0
-0.260595 -0.065515 0
-0.251765 -0.080309 0
-0.241177 -0.096109 0
-0.228631 -0.112605 0
-0.213917 -0.129181 0
-0.196810 -0.144761 0
-0.177054 -0.157590 0
-0.154359 -0.164952 0
-0.128399 -0.162866 0
-0.098886 -0.145909 0
-0.065833 -0.107460 0
-0.030289 -0.040724 0
0.004124 0.016591 0
0.000000 0.016326 0
0.000000 0.024729 0
-0.035985 0.062616 0
-0.072715 0.087147 0
-0.106007 0.108167 0
-0.135670 0.124669 0
-0.161451 0.135415 0
-0.183243 0.140437 0
-0.201141 0.140379 0
-0.215363 0.136160 0
-0.226357 0.128751 0
-0.234750 0.119119 0
-0.241179 0.108144 0
-0.246183 0.096536 0
-0.250154 0.084814 0
-0.253352 0.073305 0
-0.255929 0.062179 0
-0.257968 0.051484 0
-0.259507 0.041186 0
-0.260558 0.031192 0
-0.261112 0.021369 0
-0.261146 0.011564 0
-0.260622 0.001603 0
-0.259490 -0.008692 0
-0.257698 -0.019533 0
-0.255168 -0.031141 0
-0.251817 -0.043712 0
-0.247550 -0.057416 0
-0.242255 -0.072365 0
-0.235803 -0.088593 0
-0.228044 -0.106006 0
-0.218796 -0.124321 0
-0.207841 -0.142964 0
-0.194886 -0.160925 0
-0.179530 -0.176546 0
-0.161200 -0.187236 0
-0.139121 -0.189115 0
-0.112355 -0.176679 0
-0.080095 -0.142819 0
-0.042428 -0.080644 0
-0.001346 -0.001563 0
0.000000 0.019303 0
0.000000 0.043127 0
-0.036287 0.099681 0
-0.073107 0.122465 0
-0.105687 0.139339 0
-0.133750 0.151509 0
-0.157210 0.157889 0
-0.176235 0.158715 0
-0.191206 0.154806 0
-0.202647 0.147237 0
-0.211196 0.137102 0
-0.217520 0.125390 0
-0.222215 0.112898 0
-0.225751 0.100207 0
-0.228463 0.087700 0
-0.230569 0.075594 0
-0.232203 0.063980 0
-0.233444 0.052856 0
-0.234333 0.042156 0
-0.234886 0.031765 0
-0.235107 0.021534 0
-0.234983 0.011294 0
-0.234488 0.000860 0
-0.233583 -0.009953 0
-0.232229 -0.021365 0
-0.230376 -0.033613 0
-0.227964 -0.046899 0
-0.224926 -0.061405 0
-0.221180 -0.077261 0
-0.216628 -0.094520 0
-0.211146 -0.113116 0
-0.204581 -0.132808 0
-0.196721 -0.153091 0
-0.187265 -0.173072 0
-0.175756 -0.191276 0
-0.161500 -0.205360 0
-0.143494 -0.211712 0
-0.120433 -0.204935 0
-0.091004 -0.177387 0
-0.054942 -0.119473 0
-0.016215 -0.025838 0
0.000000 0.014980 0
0.000000 0.061016 0
-0.034483 0.135723 0
-0.069637 0.156547 0
-0.100347 0.168810 0
-0.126266 0.176192 0
-0.147386 0.177900 0
-0.164027 0.174434 0
-0.176729 0.166791 0
-0.186158 0.156149 0
-0.193015 0.143623 0
-0.197947 0.130138 0
-0.201491 0.116375 0
-0.204051 0.102784 0
-0.205913 0.089632 0
-0.207270 0.077046 0
-0.208243 0.065054 0
-0.208909 0.053614 0
-0.209313 0.042629 0
-0.209479 0.031966 0
-0.209417 0.021466 0
-0.209127 0.010945 0
-0.208600 0.000203 0
-0.207814 -0.010951 0
-0.206737 -0.022740 0
-0.205344 -0.035406 0
-0.203599 -0.049162 0
-0.201456 -0.064199 0
-0.198858 -0.080664 0
-0.195731 -0.098627 0
-0.191976 -0.118053 0
-0.187463 -0.138746 0
-0.182002 -0.160280 0
-0.175310 -0.181890 0
-0.166949 -0.202311 0
-0.156231 -0.219497 0
-0.142119 -0.230182 0
-0.123188 -0.229169 0
-0.097844 -0.208310 0
-0.065288 -0.155433 0
-0.028168 -0.056505 0
0.000000 0.003089 0
0.000000 0.077610 0
-0.031478 0.169318 0
-0.063994 0.188330 0
-0.092200 0.195967 0
-0.115712 0.198548 0
-0.134567 0.195649 0
-0.149151 0.188058 0
-0.160071 0.176938 0
-0.168024 0.163522 0
-0.173697 0.148891 0
-0.177685 0.133866 0
-0.180461 0.119002 0
-0.182373 0.104630 0
-0.183669 0.090919 0
-0.184519 0.077924 0
-0.185035 0.065619 0
-0.185291 0.053927 0
-0.185335 0.042726 0
-0.185196 0.031869 0
-0.184891 0.021182 0
-0.184430 0.010477 0
-0.183818 -0.000453 0
-0.183053 -0.011815 0
-0.182116 -0.023835 0
-0.180998 -0.036752 0
-0.179684 -0.050788 0
-0.178149 -0.066146 0
-0.176355 -0.082986 0
-0.174246 -0.101401 0
-0.171743 -0.121384 0
-0.168730 -0.142782 0
-0.165038 -0.165244 0
-0.160417 -0.188125 0
-0.154474 -0.210355 0
-0.146592 -0.230190 0
-0.135811 -0.244755 0
-0.120707 -0.249211 0
-0.099436 -0.235286 0
-0.070340 -0.189149 0
-0.034033 -0.091126 0
0.000000 -0.013188 0
0.000000 0.092494 0
-0.027875 0.199716 0
-0.057275 0.217269 0
-0.082696 0.220528 0
-0.103731 0.218558 0
-0.120446 0.211339 0
-0.133242 0.199938 0
-0.142724 0.185664 0
-0.149560 0.169775 0
-0.154382 0.153285 0
-0.157718 0.136903 0
-0.159976 0.121063 0
-0.161457 0.105992 0
-0.162376 0.091777 0
-0.162883 0.078412 0
-0.163081 0.065827 0
-0.163040 0.053914 0
-0.162809 0.042533 0
-0.162421 0.031522 0
-0.161902 0.020700 0
-0.161270 0.009871 0
-0.160541 -0.001174 0
-0.159724 -0.012653 0
-0.158821 -0.024795 0
-0.157837 -0.037837 0
-0.156772 -0.052011 0
-0.155618 -0.067528 0
-0.154354 -0.084566 0
-0.152939 -0.103239 0
-0.151307 -0.123570 0
-0.149356 -0.145451 0
-0.146931 -0.168592 0
-0.143806 -0.192455 0
-0.139636 -0.216135 0
-0.133891 -0.238159 0
-0.125733 -0.256067 0
-0.113835 -0.265544 0
-0.096224 -0.258678 0
-0.070532 -0.220836 0
-0.035789 -0.126844 0
0.000000 -0.030945 0
0.000000 0.105485 0
-0.024045 0.226593 0
-0.050164 0.243151 0
-0.072739 0.242424 0
-0.091349 0.236298 0
-0.106071 0.225160 0
-0.117293 0.210335 0
-0.125579 0.193255 0
-0.131535 0.175181 0
-0.135719 0.157049 0
-0.138585 0.139460 0
-0.140482 0.122741 0
-0.141668 0.107030 0
-0.142328 0.092345 0
-0.142595 0.078628 0
-0.142562 0.065776 0
-0.142295 0.053654 0
-0.141846 0.042107 0
-0.141251 0.030962 0
-0.140542 0.020032 0
-0.139744 0.009116 0
-0.138882 -0.001999 0
-0.137974 -0.013535 0
-0.137037 -0.025722 0
-0.136087 -0.038800 0
-0.135138 -0.053007 0
-0.134195 -0.068565 0
-0.133252 -0.085666 0
-0.132283 -0.104448 0
-0.131234 -0.124967 0
-0.130014 -0.147158 0
-0.128480 -0.170793 0
-0.126421 -0.195420 0
-0.123526 -0.220270 0
-0.119341 -0.244092 0
-0.113158 -0.264811 0
-0.103822 -0.278720 0
-0.089434 -0.278589 0
-0.067286 -0.249584 0
-0.035355 -0.161658 0
0.000000 -0.048978 0
0.000000 0.116539 0
-0.020203 0.249880 0
-0.043057 0.265963 0
-0.062855 0.261713 0
-0.079153 0.251890 0
-0.092037 0.237284 0
-0.101858 0.219446 0
-0.109120 0.199906 0
-0.114351 0.179915 0
-0.118026 0.160334 0
-0.120532 0.141666 0
-0.122160 0.124146 0
-0.123130 0.107839 0
-0.123599 0.092704 0
-0.123684 0.078645 0
-0.123472 0.065528 0
-0.123027 0.053198 0
-0.122399 0.041489 0
-0.121631 0.030218 0
-0.120756 0.019193 0
-0.119805 0.008211 0
-0.118810 -0.002944 0
-0.117796 -0.014498 0
-0.116788 -0.026681 0
-0.115812 -0.039736 0
-0.114890 -0.053903 0
-0.114039 -0.069415 0
-0.113267 -0.086479 0
-0.112560 -0.105257 0
-0.111879 -0.125839 0
-0.111146 -0.148205 0
-0.110229 -0.172185 0
-0.108931 -0.197409 0
-0.106965 -0.223215 0
-0.103926 -0.248528 0
-0.099226 -0.271585 0
-0.091912 -0.289268 0
-0.080318 -0.295214 0
-0.061706 -0.274915 0
-0.033313 -0.194131 0
0.000000 -0.066300 0
0.000000 0.125688 0
-0.016461 0.269650 0
-0.036160 0.285802 0
-0.053314 0.278520 0
-0.067445 0.265480 0
-0.078637 0.247865 0
-0.087198 0.227418 0
-0.093558 0.205747 0
-0.098164 0.184088 0
-0.101411 0.163230 0
-0.103619 0.143594 0
-0.105028 0.125339 0
-0.105822 0.108469 0
-0.106136 0.092900 0
-0.106073 0.078502 0
-0.105714 0.065119 0
-0.105120 0.052582 0
-0.104345 0.040711 0
-0.103431 0.029318 0
-0.102416 0.018207 0
-0.101334 0.007170 0
-0.100217 -0.004009 0
-0.099099 -0.015556 0
-0.098009 -0.027706 0
-0.096976 -0.040699 0
-0.096030 -0.054779 0
-0.095198 -0.070188 0
-0.094495 -0.087145 0
-0.093923 -0.105836 0
-0.093456 -0.126381 0
-0.093032 -0.148808 0
-0.092536 -0.173008 0
-0.091787 -0.198685 0
-0.090518 -0.225275 0
-0.088363 -0.251832 0
-0.084821 -0.276825 0
-0.079137 -0.297628 0
-0.069957 -0.308796 0
-0.054752 -0.296588 0
-0.030295 -0.223364 0
0.000000 -0.082291 0
0.000000 0.133000 0
-0.012860 0.286041 0
-0.029553 0.302815 0
-0.044220 0.292997 0
-0.056333 0.277213 0
-0.065968 0.257037 0
-0.073382 0.234367 0
-0.078930 0.210872 0
-0.082978 0.187768 0
-0.085845 0.165789 0
-0.087787 0.145283 0
-0.089003 0.126350 0
-0.089641 0.108946 0
-0.089819 0.092955 0
-0.089627 0.078222 0
-0.089141 0.064575 0
-0.088422 0.051830 0
-0.087524 0.039800 0
-0.086491 0.028289 0
-0.085363 0.017097 0
-0.084173 0.006012 0
-0.082954 -0.005180 0
-0.081745 -0.016707 0
-0.080576 -0.028805 0
-0.079480 -0.041714 0
-0.078490 -0.055681 0
-0.077636 -0.070950 0
-0.076945 -0.087754 0
-0.076426 -0.106297 0
-0.076070 -0.126730 0
-0.075833 -0.149124 0
-0.075621 -0.173430 0
-0.075274 -0.199426 0
-0.074552 -0.226639 0
-0.073121 -0.254225 0
-0.070549 -0.280811 0
-0.066241 -0.304132 0
-0.059167 -0.319600 0
-0.047155 -0.314577 0
-0.026757 -0.248882 0
0.000000 -0.096594 0
0.000000 0.138548 0
-0.009394 0.299203 0
-0.023232 0.317162 0
-0.035569 0.305300 0
-0.045805 0.287228 0
-0.054000 0.264914 0
-0.060361 0.240381 0
-0.065165 0.215343 0
-0.068700 0.191002 0
-0.071215 0.168040 0
-0.072911 0.146752 0
-0.073944 0.127193 0
-0.074437 0.109284 0
-0.074489 0.092885 0
-0.074181 0.077824 0
-0.073585 0.063914 0
-0.072761 0.050965 0
-0.071762 0.038779 0
-0.070634 0.027156 0
-0.069416 0.015888 0
-0.068143 0.004762 0
-0.066846 -0.006436 0
-0.065566 -0.017934 0
-0.064333 -0.029971 0
-0.063182 -0.042785 0
-0.062147 -0.056623 0
-0.061261 -0.071732 0
-0.060554 -0.088355 0
-0.060047 -0.106710 0
-0.059743 -0.126974 0
-0.059616 -0.149258 0
-0.059597 -0.173567 0
-0.059554 -0.199754 0
-0.059278 -0.227428 0
-0.058475 -0.255834 0
-0.056771 -0.283705 0
-0.053693 -0.309010 0
-0.048494 -0.327881 0
-0.039428 -0.328998 0
-0.023024 -0.270519 0
0.000000 -0.109048 0
0.000000 0.142394 0
-0.006037 0.309273 0
-0.017148 0.328990 0
-0.027292 0.315570 0
-0.035772 0.295645 0
-0.042628 0.271593 0
-0.048009 0.245531 0
-0.052122 0.219211 0
-0.055178 0.193818 0
-0.057361 0.170000 0
-0.058822 0.148012 0
-0.059680 0.127876 0
-0.060033 0.109491 0
-0.059967 0.092699 0
-0.059554 0.077319 0
-0.058862 0.063155 0
-0.057951 0.050007 0
-0.056873 0.037672 0
-0.055673 0.025943 0
-0.054390 0.014605 0
-0.053059 0.003443 0
-0.051707 -0.007756 0
-0.050377 -0.019220 0
-0.049101 -0.031189 0
-0.047912 -0.043901 0
-0.046844 -0.057602 0
-0.045931 -0.072542 0
-0.045207 -0.088967 0
-0.044699 -0.107108 0
-0.044422 -0.127161 0
-0.044367 -0.149271 0
-0.044490 -0.173493 0
-0.044689 -0.199746 0
-0.044796 -0.227718 0
-0.044561 -0.256731 0
-0.043670 -0.285594 0
-0.041744 -0.312410 0
-0.038257 -0.333864 0
-0.031888 -0.340047 0
-0.019303 -0.288310 0
0.000000 -0.119618 0
0.000000 0.144585 0
-0.002758 0.316351 0
-0.011222 0.338417 0
-0.019278 0.323924 0
-0.026101 0.302564 0
-0.031698 0.277151 0
-0.036162 0.249875 0
-0.039625 0.222512 0
-0.042228 0.196241 0
-0.044096 0.171684 0
-0.045331 0.149071 0
-0.046020 0.128404 0
-0.046241 0.109571 0
-0.046064 0.092406 0
-0.045558 0.076720 0
-0.044784 0.062311 0
-0.043802 0.048975 0
-0.042664 0.036501 0
-0.041414 0.024673 0
-0.040092 0.013275 0
-0.038731 0.002079 0
-0.037343 -0.009118 0
-0.035986 -0.020540 0
-0.034690 -0.032436 0
-0.033484 -0.045043 0
-0.032402 -0.058604 0
-0.031479 -0.073369 0
-0.030749 -0.089587 0
-0.030247 -0.107495 0
-0.029996 -0.127306 0
-0.030004 -0.149190 0
-0.030249 -0.173245 0
-0.030662 -0.199448 0
-0.031114 -0.227556 0
-0.031410 -0.256959 0
-0.031299 -0.286523 0
-0.030484 -0.314424 0
-0.028598 -0.337737 0
-0.024701 -0.347951 0
-0.015711 -0.302407 0
0.000000 -0.128351 0
0.000000 0.145153 0
0.000413 0.320494 0
-0.005338 0.345510 0
-0.011394 0.330449 0
-0.016633 0.308065 0
-0.021032 0.281653 0
-0.024624 0.253458 0
-0.027473 0.225277 0
-0.029648 0.198289 0
-0.031216 0.173103 0
-0.032238 0.149937 0
-0.032769 0.128786 0
-0.032868 0.109535 0
-0.032592 0.092016 0
-0.032004 0.076039 0
-0.031163 0.061399 0
-0.030126 0.047887 0
-0.028945 0.035284 0
-0.027663 0.023371 0
-0.026317 0.011923 0
-0.024941 0.000694 0
-0.023554 -0.010501 0
-0.022198 -0.021872 0
-0.020904 -0.033691 0
-0.019703 -0.046189 0
-0.018629 -0.059608 0
-0.017716 -0.074195 0
-0.017001 -0.090199 0
-0.016523 -0.107861 0
-0.016315 -0.127403 0
-0.016398 -0.149017 0
-0.016768 -0.172835 0
-0.017388 -0.198881 0
-0.018170 -0.226970 0
-0.018977 -0.256546 0
-0.019623 -0.286519 0
-0.019897 -0.315111 0
-0.019538 -0.339647 0
-0.017923 -0.352934 0
-0.012295 -0.313011 0
0.000000 -0.135329 0
0.000000 0.144172 0
0.003491 0.321689 0
0.000615 0.350223 0
-0.003469 0.335219 0
-0.007186 0.312202 0
-0.010447 0.285142 0
-0.013204 0.256316 0
-0.015461 0.227536 0
-0.017229 0.199985 0
-0.018517 0.174274 0
-0.019341 0.150624 0
-0.019729 0.129034 0
-0.019720 0.109394 0
-0.019361 0.091542 0
-0.018708 0.075291 0
-0.017818 0.060434 0
-0.016745 0.046757 0
-0.015539 0.034037 0
-0.014244 0.022045 0
-0.012887 0.010553 0
-0.011506 -0.000684 0
-0.010149 -0.011862 0
-0.008816 -0.023190 0
-0.007546 -0.034930 0
-0.006371 -0.047318 0
-0.005325 -0.060592 0
-0.004446 -0.074997 0
-0.003772 -0.090779 0
-0.003345 -0.108181 0
-0.003206 -0.127432 0
-0.003386 -0.148737 0
-0.003899 -0.172255 0
-0.004736 -0.198046 0
-0.005851 -0.225968 0
-0.007162 -0.255507 0
-0.008553 -0.285603 0
-0.009896 -0.314509 0
-0.011019 -0.339710 0
-0.011535 -0.355195 0
-0.009059 -0.320330 0
0.000000 -0.140645 0
0.000000 0.141662 0
0.006577 0.319879 0
0.006683 0.352470 0
0.004628 0.338251 0
0.002419 0.315043 0
0.000286 0.287672 0
-0.001674 0.258472 0
-0.003372 0.229302 0
-0.004761 0.201345 0
-0.005793 0.175215 0
-0.006442 0.151149 0
-0.006707 0.129165 0
-0.006609 0.109167 0
-0.006186 0.091004 0
-0.005488 0.074495 0
-0.004567 0.059436 0
-0.003477 0.045608 0
-0.002262 0.032783 0
-0.000965 0.020718 0
0.000380 0.009185 0
0.001738 -0.002044 0
0.003066 -0.013192 0
0.004359 -0.024475 0
0.005587 -0.036136 0
0.006715 -0.048409 0
0.007710 -0.061533 0
0.008531 -0.075749 0
0.009137 -0.091300 0
0.009483 -0.108427 0
0.009522 -0.127363 0
0.009214 -0.148324 0
0.008528 -0.171485 0
0.007451 -0.196929 0
0.005989 -0.224544 0
0.004168 -0.253845 0
0.002041 -0.283786 0
-0.000349 -0.312644 0
-0.002934 -0.338008 0
-0.005466 -0.354895 0
-0.005975 -0.324546 0
0.000000 -0.144388 0
0.000000 0.137595 0
0.009745 0.315005 0
0.012934 0.352173 0
0.012992 0.339484 0
0.012322 0.316544 0
0.011339 0.289235 0
0.010176 0.259974 0
0.009009 0.230624 0
0.007976 0.202405 0
0.007177 0.175955 0
0.006679 0.151538 0
0.006513 0.129201 0
0.006674 0.108873 0
0.007136 0.090421 0
0.007854 0.073671 0
0.008779 0.058423 0
0.009865 0.044452 0
0.011066 0.031525 0
0.012346 0.019403 0
0.013661 0.007850 0
0.014982 -0.003369 0
0.016275 -0.014483 0
0.017520 -0.025711 0
0.018690 -0.037287 0
0.019755 -0.049441 0
0.020678 -0.062407 0
0.021419 -0.076425 0
0.021934 -0.091731 0
0.022172 -0.108565 0
0.022083 -0.127163 0
0.021617 -0.147743 0
0.020729 -0.170493 0
0.019380 -0.195506 0
0.017539 -0.222684 0
0.015181 -0.251559 0
0.012289 -0.281086 0
0.008846 -0.309534 0
0.004841 -0.334593 0
0.000395 -0.352154 0
-0.002987 -0.325796 0
0.000000 -0.146620 0
0.000000 0.131917 0
0.013041 0.306945 0
0.019466 0.349223 0
0.021742 0.338863 0
0.022636 0.316696 0
0.022805 0.289817 0
0.022468 0.260801 0
0.021851 0.231502 0
0.021174 0.203177 0
0.020600 0.176511 0
0.020238 0.151814 0
0.020147 0.129170 0
0.020344 0.108544 0
0.020814 0.089824 0
0.021521 0.072851 0
0.022423 0.057425 0
0.023476 0.043321 0
0.024638 0.030301 0
0.025872 0.018124 0
0.027141 0.006550 0
0.028415 -0.004658 0
0.029658 -0.015730 0
0.030844 -0.026891 0
0.031945 -0.038371 0
0.032930 -0.050397 0
0.033765 -0.063198 0
0.034408 -0.077005 0
0.034811 -0.092053 0
0.034922 -0.108576 0
0.034684 -0.126808 0
0.034038 -0.146970 0
0.032922 -0.169248 0
0.031272 -0.193739 0
0.029020 -0.220345 0
0.026088 -0.248595 0
0.022393 -0.277451 0