# vtk DataFile Version 2.0
generated by CFD-lab course output (written by Tobias Neckel) 
ASCII

DATASET STRUCTURED_GRID
DIMENSIONS  41 41 1 
POINTS 1681 float

0.150000 0.150000 0
0.167857 0.150000 0
0.185714 0.150000 0
0.203571 0.150000 0
0.221429 0.150000 0
0.239286 0.150000 0
0.257143 0.150000 0
0.275000 0.150000 0
0.292857 0.150000 0
0.310714 0.150000 0
0.328571 0.150000 0
0.346429 0.150000 0
0.364286 0.150000 0
0.382143 0.150000 0
0.400000 0.150000 0
0.417857 0.150000 0
0.435714 0.150000 0
0.453571 0.150000 0
0.471429 0.150000 0
0.489286 0.150000 0
0.507143 0.150000 0
0.525000 0.150000 0
0.542857 0.150000 0
0.560714 0.150000 0
0.578571 0.150000 0
0.596429 0.150000 0
0.614286 0.150000 0
0.632143 0.150000 0
0.650000 0.150000 0
0.667857 0.150000 0
0.685714 0.150000 0
0.703571 0.150000 0
0.721429 0.150000 0
0.739286 0.150000 0
0.757143 0.150000 0
0.775000 0.150000 0
0.792857 0.150000 0
0.810714 0.150000 0
0.828571 0.150000 0
0.846429 0.150000 0
0.864286 0.150000 0
0.150000 0.167857 0
0.167857 0.167857 0
0.185714 0.167857 0
0.203571 0.167857 0
0.221429 0.167857 0
0.239286 0.167857 0
0.257143 0.167857 0
0.275000 0.167857 0
0.292857 0.167857 0
0.310714 0.167857 0
0.328571 0.167857 0
0.346429 0.167857 0
0.364286 0.167857 0
0.382143 0.167857 0
0.400000 0.167857 0
0.417857 0.167857 0
0.435714 0.167857 0
0.453571 0.167857 0
0.471429 0.167857 0
0.489286 0.167857 0
0.507143 0.167857 0
0.525000 0.167857 0
0.542857 0.167857 0
0.560714 0.167857 0
0.578571 0.167857 0
0.596429 0.167857 0
0.614286 0.167857 0
0.632143 0.167857 0
0.650000 0.167857 0
0.667857 0.167857 0
0.685714 0.167857 0
0.703571 0.167857 0
0.721429 0.167857 0
0.739286 0.167857 0
0.757143 0.167857 0
0.775000 0.167857 0
0.792857 0.167857 0
0.810714 0.167857 0
0.828571 0.167857 0
0.846429 0.167857 0
0.864286 0.167857 0
0.150000 0.185714 0
0.167857 0.185714 0
0.185714 0.185714 0
0.203571 0.185714 0
0.221429 0.185714 0
0.239286 0.185714 0
0.257143 0.185714 0
0.275000 0.185714 0
0.292857 0.185714 0
0.310714 0.185714 0
0.328571 0.185714 0
0.346429 0.185714 0
0.364286 0.185714 0
0.382143 0.185714 0
0.400000 0.185714 0
0.417857 0.185714 0
0.435714 0.185714 0
0.453571 0.185714 0
0.471429 0.185714 0
0.489286 0.185714 0
0.507143 0.185714 0
0.525000 0.185714 0
0.542857 0.185714 0
0.560714 0.185714 0
0.578571 0.185714 0
0.596429 0.185714 0
0.614286 0.185714 0
0.632143 0.185714 0
0.650000 0.185714 0
0.667857 0.185714 0
0.685714 0.185714 0
0.703571 0.185714 0
0.721429 0.185714 0
0.739286 0.185714 0
0.757143 0.185714 0
0.775000 0.185714 0
0.792857 0.185714 0
0.810714 0.185714 0
0.828571 0.185714 0
0.846429 0.185714 0
0.864286 0.185714 0
0.150000 0.203571 0
0.167857 0.203571 0
0.185714 0.203571 0
0.203571 0.203571 0
0.221429 0.203571 0
0.239286 0.203571 0
0.257143 0.203571 0
0.275000 0.203571 0
0.292857 0.203571 0
0.310714 0.203571 0
0.328571 0.203571 0
0.346429 0.203571 0
0.364286 0.203571 0
0.382143 0.203571 0
0.400000 0.203571 0
0.417857 0.203571 0
0.435714 0.203571 0
0.453571 0.203571 0
0.471429 0.203571 0
0.489286 0.203571 0
0.507143 0.203571 0
0.525000 0.203571 0
0.542857 0.203571 0
0.560714 0.203571 0
0.578571 0.203571 0
0.596429 0.203571 0
0.614286 0.203571 0
0.632143 0.203571 0
0.650000 0.203571 0
0.667857 0.203571 0
0.685714 0.203571 0
0.703571 0.203571 0
0.721429 0.203571 0
0.739286 0.203571 0
0.757143 0.203571 0
0.775000 0.203571 0
0.792857 0.203571 0
0.810714 0.203571 0
0.828571 0.203571 0
0.846429 0.203571 0
0.864286 0.203571 0
0.150000 0.221429 0
0.167857 0.221429 0
0.185714 0.221429 0
0.203571 0.221429 0
0.221429 0.221429 0
0.239286 0.221429 0
0.257143 0.221429 0
0.275000 0.221429 0
0.292857 0.221429 0
0.310714 0.221429 0
0.328571 0.221429 0
0.346429 0.221429 0
0.364286 0.221429 0
0.382143 0.221429 0
0.400000 0.221429 0
0.417857 0.221429 0
0.435714 0.221429 0
0.453571 0.221429 0
0.471429 0.221429 0
0.489286 0.221429 0
0.507143 0.221429 0
0.525000 0.221429 0
0.542857 0.221429 0
0.560714 0.221429 0
0.578571 0.221429 0
0.596429 0.221429 0
0.614286 0.221429 0
0.632143 0.221429 0
0.650000 0.221429 0
0.667857 0.221429 0
0.685714 0.221429 0
0.703571 0.221429 0
0.721429 0.221429 0
0.739286 0.221429 0
0.757143 0.221429 0
0.775000 0.221429 0
0.792857 0.221429 0
0.810714 0.221429 0
0.828571 0.221429 0
0.846429 0.221429 0
0.864286 0.221429 0
0.150000 0.239286 0
0.167857 0.239286 0
0.185714 0.239286 0
0.203571 0.239286 0
0.221429 0.239286 0
0.239286 0.239286 0
0.257143 0.239286 0
0.275000 0.239286 0
0.292857 0.239286 0
0.310714 0.239286 0
0.328571 0.239286 0
0.346429 0.239286 0
0.364286 0.239286 0
0.382143 0.239286 0
0.400000 0.239286 0
0.417857 0.239286 0
0.435714 0.239286 0
0.453571 0.239286 0
0.471429 0.239286 0
0.489286 0.239286 0
0.507143 0.239286 0
0.525000 0.239286 0
0.542857 0.239286 0
0.560714 0.239286 0
0.578571 0.239286 0
0.596429 0.239286 0
0.614286 0.239286 0
0.632143 0.239286 0
0.650000 0.239286 0
0.667857 0.239286 0
0.685714 0.239286 0
0.703571 0.239286 0
0.721429 0.239286 0
0.739286 0.239286 0
0.757143 0.239286 0
0.775000 0.239286 0
0.792857 0.239286 0
0.810714 0.239286 0
0.828571 0.239286 0
0.846429 0.239286 0
0.864286 0.239286 0
0.150000 0.257143 0
0.167857 0.257143 0
0.185714 0.257143 0
0.203571 0.257143 0
0.221429 0.257143 0
0.239286 0.257143 0
0.257143 0.257143 0
0.275000 0.257143 0
0.292857 0.257143 0
0.310714 0.257143 0
0.328571 0.257143 0
0.346429 0.257143 0
0.364286 0.257143 0
0.382143 0.257143 0
0.400000 0.257143 0
0.417857 0.257143 0
0.435714 0.257143 0
0.453571 0.257143 0
0.471429 0.257143 0
0.489286 0.257143 0
0.507143 0.257143 0
0.525000 0.257143 0
0.542857 0.257143 0
0.560714 0.257143 0
0.578571 0.257143 0
0.596429 0.257143 0
0.614286 0.257143 0
0.632143 0.257143 0
0.650000 0.257143 0
0.667857 0.257143 0
0.685714 0.257143 0
0.703571 0.257143 0
0.721429 0.257143 0
0.739286 0.257143 0
0.757143 0.257143 0
0.775000 0.257143 0
0.792857 0.257143 0
0.810714 0.257143 0
0.828571 0.257143 0
0.846429 0.257143 0
0.864286 0.257143 0
0.150000 0.275000 0
0.167857 0.275000 0
0.185714 0.275000 0
0.203571 0.275000 0
0.221429 0.275000 0
0.239286 0.275000 0
0.257143 0.275000 0
0.275000 0.275000 0
0.292857 0.275000 0
0.310714 0.275000 0
0.328571 0.275000 0
0.346429 0.275000 0
0.364286 0.275000 0
0.382143 0.275000 0
0.400000 0.275000 0
0.417857 0.275000 0
0.435714 0.275000 0
0.453571 0.275000 0
0.471429 0.275000 0
0.489286 0.275000 0
0.507143 0.275000 0
0.525000 0.275000 0
0.542857 0.275000 0
0.560714 0.275000 0
0.578571 0.275000 0
0.596429 0.275000 0
0.614286 0.275000 0
0.632143 0.275000 0
0.650000 0.275000 0
0.667857 0.275000 0
0.685714 0.275000 0
0.703571 0.275000 0
0.721429 0.275000 0
0.739286 0.275000 0
0.757143 0.275000 0
0.775000 0.275000 0
0.792857 0.275000 0
0.810714 0.275000 0
0.828571 0.275000 0
0.846429 0.275000 0
0.864286 0.275000 0
0.150000 0.292857 0
0.167857 0.292857 0
0.185714 0.292857 0
0.203571 0.292857 0
0.221429 0.292857 0
0.239286 0.292857 0
0.257143 0.292857 0
0.275000 0.292857 0
0.292857 0.292857 0
0.310714 0.292857 0
0.328571 0.292857 0
0.346429 0.292857 0
0.364286 0.292857 0
0.382143 0.292857 0
0.400000 0.292857 0
0.417857 0.292857 0
0.435714 0.292857 0
0.453571 0.292857 0
0.471429 0.292857 0
0.489286 0.292857 0
0.507143 0.292857 0
0.525000 0.292857 0
0.542857 0.292857 0
0.560714 0.292857 0
0.578571 0.292857 0
0.596429 0.292857 0
0.614286 0.292857 0
0.632143 0.292857 0
0.650000 0.292857 0
0.667857 0.292857 0
0.685714 0.292857 0
0.703571 0.292857 0
0.721429 0.292857 0
0.739286 0.292857 0
0.757143 0.292857 0
0.775000 0.292857 0
0.792857 0.292857 0
0.810714 0.292857 0
0.828571 0.292857 0
0.846429 0.292857 0
0.864286 0.292857 0
0.150000 0.310714 0
0.167857 0.310714 0
0.185714 0.310714 0
0.203571 0.310714 0
0.221429 0.310714 0
0.239286 0.310714 0
0.257143 0.310714 0
0.275000 0.310714 0
0.292857 0.310714 0
0.310714 0.310714 0
0.328571 0.310714 0
0.346429 0.310714 0
0.364286 0.310714 0
0.382143 0.310714 0
0.400000 0.310714 0
0.417857 0.310714 0
0.435714 0.310714 0
0.453571 0.310714 0
0.471429 0.310714 0
0.489286 0.310714 0
0.507143 0.310714 0
0.525000 0.310714 0
0.542857 0.310714 0
0.560714 0.310714 0
0.578571 0.310714 0
0.596429 0.310714 0
0.614286 0.310714 0
0.632143 0.310714 0
0.650000 0.310714 0
0.667857 0.310714 0
0.685714 0.310714 0
0.703571 0.310714 0
0.721429 0.310714 0
0.739286 0.310714 0
0.757143 0.310714 0
0.775000 0.310714 0
0.792857 0.310714 0
0.810714 0.310714 0
0.828571 0.310714 0
0.846429 0.310714 0
0.864286 0.310714 0
0.150000 0.328571 0
0.167857 0.328571 0
0.185714 0.328571 0
0.203571 0.328571 0
0.221429 0.328571 0
0.239286 0.328571 0
0.257143 0.328571 0
0.275000 0.328571 0
0.292857 0.328571 0
0.310714 0.328571 0
0.328571 0.328571 0
0.346429 0.328571 0
0.364286 0.328571 0
0.382143 0.328571 0
0.400000 0.328571 0
0.417857 0.328571 0
0.435714 0.328571 0
0.453571 0.328571 0
0.471429 0.328571 0
0.489286 0.328571 0
0.507143 0.328571 0
0.525000 0.328571 0
0.542857 0.328571 0
0.560714 0.328571 0
0.578571 0.328571 0
0.596429 0.328571 0
0.614286 0.328571 0
0.632143 0.328571 0
0.650000 0.328571 0
0.667857 0.328571 0
0.685714 0.328571 0
0.703571 0.328571 0
0.721429 0.328571 0
0.739286 0.328571 0
0.757143 0.328571 0
0.775000 0.328571 0
0.792857 0.328571 0
0.810714 0.328571 0
0.828571 0.328571 0
0.846429 0.328571 0
0.864286 0.328571 0
0.150000 0.346429 0
0.167857 0.346429 0
0.185714 0.346429 0
0.203571 0.346429 0
0.221429 0.346429 0
0.239286 0.346429 0
0.257143 0.346429 0
0.275000 0.346429 0
0.292857 0.346429 0
0.310714 0.346429 0
0.328571 0.346429 0
0.346429 0.346429 0
0.364286 0.346429 0
0.382143 0.346429 0
0.400000 0.346429 0
0.417857 0.346429 0
0.435714 0.346429 0
0.453571 0.346429 0
0.471429 0.346429 0
0.489286 0.346429 0
0.507143 0.346429 0
0.525000 0.346429 0
0.542857 0.346429 0
0.560714 0.346429 0
0.578571 0.346429 0
0.596429 0.346429 0
0.614286 0.346429 0
0.632143 0.346429 0
0.650000 0.346429 0
0.667857 0.346429 0
0.685714 0.346429 0
0.703571 0.346429 0
0.721429 0.346429 0
0.739286 0.346429 0
0.757143 0.346429 0
0.775000 0.346429 0
0.792857 0.346429 0
0.810714 0.346429 0
0.828571 0.346429 0
0.846429 0.346429 0
[...]
POINT_DATA 1681 

VECTORS velocity float
0.000000 0.000000 0
0.005558 0.000000 0
0.011677 0.000000 0
0.014187 0.000000 0
0.014359 0.000000 0
0.014038 0.000000 0
0.011967 0.000000 0
0.016576 0.000000 0
0.021290 0.000000 0
0.011577 0.000000 0
-0.005754 0.000000 0
-0.025307 0.000000 0
-0.045354 0.000000 0
-0.064828 0.000000 0
-0.083003 0.000000 0
-0.099450 0.000000 0
-0.114012 0.000000 0
-0.126549 0.000000 0
-0.137025 0.000000 0
-0.145437 0.000000 0
-0.151803 0.000000 0
-0.156144 0.000000 0
-0.158462 0.000000 0
-0.158781 0.000000 0
-0.156979 0.000000 0
-0.152930 0.000000 0
-0.146562 0.000000 0
-0.137790 0.000000 0
-0.126541 0.000000 0
-0.112755 0.000000 0
-0.096502 0.000000 0
-0.077850 0.000000 0
-0.057050 0.000000 0
-0.034572 0.000000 0
-0.011213 0.000000 0
0.011785 0.000000 0
0.027224 0.000000 0
0.030339 0.000000 0
0.022684 0.000000 0
0.010637 0.000000 0
0.000000 0.000000 0
0.000000 -0.005558 0
0.015134 -0.011678 0
0.028153 -0.008630 0
0.033589 -0.002681 0
0.033722 0.000150 0
0.034013 0.002392 0
0.025269 -0.002538 0
0.006970 -0.009323 0
-0.016763 0.004999 0
-0.047768 0.027044 0
-0.085036 0.036884 0
-0.124418 0.039601 0
-0.163384 0.039521 0
-0.200238 0.037649 0
-0.233906 0.034622 0
-0.263780 0.031009 0
-0.289596 0.027098 0
-0.311233 0.023013 0
-0.328695 0.018888 0
-0.342037 0.014778 0
-0.351333 0.010707 0
-0.356647 0.006659 0
-0.358012 0.002637 0
-0.355416 -0.001483 0
-0.348793 -0.005851 0
-0.338060 -0.010418 0
-0.323075 -0.015139 0
-0.303683 -0.020021 0
-0.279737 -0.025035 0
-0.251137 -0.030039 0
-0.217908 -0.034905 0
-0.180217 -0.039452 0
-0.138547 -0.043278 0
-0.093898 -0.045837 0
-0.048142 -0.046357 0
-0.004646 -0.038437 0
0.030564 -0.018554 0
0.047222 0.004540 0
0.036609 0.019702 0
0.017124 0.022684 0
0.000000 0.010637 0
0.000000 -0.015134 0
0.018345 -0.028153 0
0.029338 -0.018456 0
0.033130 -0.005569 0
0.022281 -0.000424 0
0.001895 0.008453 0
-0.026280 0.027043 0
-0.070752 0.042032 0
-0.121796 0.054739 0
-0.163619 0.068272 0
-0.201317 0.076650 0
-0.237143 0.078349 0
-0.270372 0.075820 0
-0.300327 0.070521 0
-0.326645 0.063543 0
-0.349169 0.055690 0
-0.367816 0.047453 0
-0.382678 0.039099 0
-0.393857 0.030804 0
-0.401468 0.022638 0
-0.405608 0.014610 0
-0.406343 0.006680 0
-0.403703 -0.001231 0
-0.397630 -0.009220 0
-0.388175 -0.017356 0
-0.375315 -0.025718 0
-0.358922 -0.034377 0
-0.338851 -0.043338 0
-0.314965 -0.052546 0
-0.287168 -0.061829 0
-0.255378 -0.070921 0
-0.219755 -0.079361 0
-0.180710 -0.086318 0
-0.139149 -0.090405 0
-0.096828 -0.089253 0
-0.056891 -0.078705 0
-0.019250 -0.051867 0
0.010431 -0.006046 0
0.016815 0.030097 0
0.007570 0.036609 0
0.000000 0.017124 0
0.000000 -0.023903 0
0.011579 -0.041016 0
0.010906 -0.023414 0
-0.005298 0.004376 0
-0.031845 0.031385 0
-0.072014 0.050953 0
-0.113882 0.070108 0
-0.154956 0.086194 0
-0.196299 0.097866 0
-0.233686 0.106565 0
-0.265744 0.110408 0
-0.293962 0.108655 0
-0.318745 0.102705 0
-0.340273 0.093923 0
-0.358687 0.083465 0
-0.374110 0.072180 0
-0.386628 0.060607 0
-0.396357 0.049053 0
-0.403388 0.037677 0
-0.407788 0.026529 0
-0.409598 0.015582 0
-0.408824 0.004754 0
-0.405449 -0.006076 0
-0.399435 -0.017011 0
-0.390734 -0.028166 0
-0.379230 -0.039671 0
-0.364809 -0.051603 0
-0.347338 -0.063977 0
-0.326691 -0.076719 0
-0.302763 -0.089626 0
-0.275487 -0.102317 0
-0.244938 -0.114120 0
-0.211373 -0.123884 0
-0.175339 -0.129719 0
-0.137786 -0.128615 0
-0.100065 -0.116015 0
-0.063523 -0.085877 0
-0.028472 -0.031525 0
0.000655 0.022563 0
-0.000664 0.039500 0
0.000000 0.018207 0
0.000000 -0.026713 0
-0.007291 -0.039059 0
-0.028900 -0.001578 0
-0.061280 0.037182 0
-0.094301 0.066292 0
-0.131582 0.090490 0
-0.170028 0.109985 0
-0.206378 0.124449 0
-0.240458 0.133469 0
-0.270660 0.137717 0
-0.296104 0.136926 0
-0.317612 0.131350 0
-0.335856 0.122131 0
-0.351346 0.110463 0
-0.364420 0.097379 0
-0.375288 0.083630 0
-0.384060 0.069700 0
-0.390806 0.055859 0
-0.395560 0.042235 0
-0.398332 0.028847 0
-0.399113 0.015647 0
-0.397876 0.002531 0
-0.394579 -0.010621 0
-0.389215 -0.023934 0
-0.381684 -0.037561 0
-0.371899 -0.051644 0
-0.359752 -0.066269 0
-0.345131 -0.081456 0
-0.327927 -0.097120 0
-0.308042 -0.113033 0
-0.285406 -0.128745 0
-0.260010 -0.143475 0
-0.231919 -0.155917 0
-0.201279 -0.163993 0
-0.168304 -0.164527 0
-0.133186 -0.152967 0
-0.095911 -0.123460 0
-0.056314 -0.070224 0
-0.014549 0.002289 0
-0.004336 0.037264 0
0.000000 0.016461 0
0.000000 -0.016612 0
-0.028895 -0.012116 0
-0.064887 0.030575 0
-0.098205 0.069777 0
-0.133273 0.101687 0
-0.168482 0.126679 0
-0.202558 0.144904 0
-0.233747 0.156624 0
-0.261603 0.162147 0
-0.285525 0.162210 0
-0.305375 0.157360 0
-0.321789 0.148408 0
-0.335422 0.136439 0
-0.346798 0.122487 0
-0.356264 0.107407 0
-0.364022 0.091819 0
-0.370174 0.076125 0
-0.374777 0.060553 0
-0.377854 0.045204 0
-0.379414 0.030083 0
-0.379452 0.015126 0
-0.377951 0.000220 0
-0.374885 -0.014738 0
-0.370230 -0.029905 0
-0.363901 -0.045481 0
-0.355814 -0.061604 0
-0.345874 -0.078371 0
-0.333984 -0.095802 0
-0.320046 -0.113808 0
-0.303972 -0.132147 0
-0.285678 -0.150348 0
-0.265090 -0.167608 0
-0.242113 -0.182616 0
-0.216584 -0.193334 0
-0.188200 -0.196708 0
-0.156420 -0.188408 0
-0.120439 -0.162749 0
-0.079497 -0.112887 0
-0.034316 -0.029415 0
0.003361 0.024951 0
0.000000 0.013872 0
0.000000 0.002183 0
-0.040695 0.025828 0
-0.080900 0.067731 0
-0.118224 0.105569 0
-0.153759 0.136569 0
-0.186920 0.159775 0
-0.217168 0.175250 0
-0.243802 0.183494 0
-0.266673 0.185247 0
-0.285756 0.181488 0
-0.301331 0.173190 0
-0.313984 0.161397 0
-0.324277 0.147139 0
-0.332662 0.131306 0
-0.339445 0.114603 0
-0.344819 0.097541 0
-0.348902 0.080455 0
-0.351773 0.063539 0
-0.353485 0.046872 0
-0.354069 0.030446 0
-0.353544 0.014184 0
-0.351911 -0.002036 0
-0.349160 -0.018341 0
-0.345229 -0.034919 0
-0.340055 -0.051978 0
-0.333554 -0.069670 0
-0.325634 -0.088099 0
-0.316203 -0.107283 0
-0.305168 -0.127133 0
-0.292443 -0.147401 0
-0.277937 -0.167627 0
-0.261536 -0.187041 0
-0.243056 -0.204423 0
-0.222166 -0.217905 0
-0.198273 -0.224691 0
-0.170425 -0.220729 0
-0.137320 -0.200384 0
-0.097625 -0.156347 0
-0.050644 -0.080569 0
0.005219 0.002948 0
0.000000 0.019822 0
0.000000 0.024083 0
-0.044130 0.068784 0
-0.087020 0.108104 0
-0.125838 0.142637 0
-0.160822 0.170382 0
-0.191860 0.190088 0
-0.218876 0.201787 0
-0.241801 0.206129 0
-0.260835 0.204101 0
-0.276299 0.196869 0
-0.288665 0.185588 0
-0.298477 0.171354 0
-0.306221 0.155118 0
-0.312279 0.137655 0
-0.316935 0.119563 0
-0.320390 0.101276 0
-0.322794 0.083080 0
-0.324263 0.065136 0
-0.324880 0.047500 0
-0.324709 0.030143 0
-0.323786 0.012968 0
-0.322125 -0.004165 0
-0.319717 -0.021420 0
-0.316500 -0.039010 0
-0.312405 -0.057157 0
-0.307343 -0.076025 0
-0.301217 -0.095722 0
-0.293928 -0.116268 0
-0.285377 -0.137568 0
-0.275473 -0.159378 0
-0.264117 -0.181255 0
-0.251183 -0.202488 0
-0.236461 -0.221986 0
-0.219574 -0.238118 0
-0.199850 -0.248448 0
-0.176187 -0.249361 0
-0.147012 -0.235549 0
-0.110554 -0.199564 0
-0.065870 -0.132259 0
-0.015672 -0.025693 0
0.000000 0.019091 0
0.000000 0.046312 0
-0.043648 0.112848 0
-0.086829 0.149439 0
-0.125185 0.179371 0
-0.158740 0.202591 0
-0.187534 0.217829 0
-0.211756 0.225191 0
-0.231687 0.225453 0
-0.247763 0.219745 0
-0.260485 0.209318 0
-0.270390 0.195369 0
-0.277985 0.178953 0
-0.283701 0.160941 0
-0.287886 0.142019 0
-0.290816 0.122713 0
-0.292715 0.103400 0
-0.293764 0.084328 0
-0.294109 0.065625 0
-0.293867 0.047319 0
-0.293125 0.029352 0
-0.291938 0.011600 0
-0.290329 -0.006105 0
-0.288291 -0.023967 0
-0.285761 -0.042231 0
-0.282661 -0.061135 0
-0.278891 -0.080858 0
-0.274341 -0.101514 0
-0.268895 -0.123123 0
-0.262440 -0.145587 0
-0.254869 -0.168661 0
-0.246073 -0.191917 0
-0.235920 -0.214697 0
-0.224212 -0.236032 0
-0.210610 -0.254517 0
-0.194511 -0.268079 0
-0.174906 -0.273566 0
-0.150286 -0.266016 0
-0.118849 -0.237489 0
-0.079607 -0.175451 0
-0.035718 -0.062922 0
0.000000 0.004150 0
0.000000 0.067731 0
-0.041328 0.155613 0
-0.082783 0.189641 0
-0.119316 0.214547 0
-0.150763 0.232731 0
-0.177188 0.243104 0
-0.198898 0.245940 0
-0.216339 0.242136 0
-0.230061 0.232899 0
-0.240629 0.219496 0
-0.248585 0.203089 0
-0.254399 0.184665 0
-0.258468 0.165018 0
-0.261126 0.144770 0
-0.262655 0.124393 0
-0.263296 0.104223 0
-0.263256 0.084473 0
-0.262710 0.065239 0
-0.261800 0.046516 0
-0.260635 0.028214 0
-0.259287 0.010173 0
-0.257789 -0.007811 0
-0.256132 -0.025988 0
-0.254251 -0.044641 0
-0.252057 -0.064026 0
-0.249437 -0.084345 0
-0.246262 -0.105718 0
-0.242396 -0.128169 0
-0.237704 -0.151594 0
-0.232059 -0.175746 0
-0.225334 -0.200205 0
-0.217392 -0.224348 0
-0.208052 -0.247295 0
-0.197032 -0.267819 0
-0.183850 -0.284153 0
-0.167679 -0.293586 0
-0.147176 -0.291606 0
-0.120452 -0.270242 0
-0.085608 -0.215390 0
-0.042735 -0.105300 0
0.000000 -0.016628 0
0.000000 0.087641 0
-0.037889 0.195631 0
-0.076452 0.227427 0
-0.110318 0.247351 0
-0.139207 0.260464 0
-0.163169 0.265964 0
-0.182541 0.264341 0
-0.197822 0.256616 0
-0.209584 0.244036 0
-0.218390 0.227843 0
-0.224752 0.209138 0
-0.229107 0.188837 0
-0.231829 0.167669 0
-0.233245 0.146206 0
-0.233641 0.124883 0
-0.233273 0.104001 0
-0.232368 0.083741 0
-0.231123 0.064168 0
-0.229702 0.045244 0
-0.228234 0.026839 0
-0.226806 0.008754 0
-0.225456 -0.009260 0
-0.224176 -0.027505 0
-0.222892 -0.046306 0
-0.221508 -0.065948 0
-0.219893 -0.086653 0
-0.217900 -0.108555 0
-0.215373 -0.131681 0
-0.212156 -0.155924 0
-0.208099 -0.181031 0
-0.203059 -0.206584 0
-0.196889 -0.231979 0
-0.189416 -0.256392 0
-0.180403 -0.278719 0
-0.169478 -0.297432 0
-0.155994 -0.310240 0
-0.138805 -0.313243 0
-0.115994 -0.299057 0
-0.084917 -0.253169 0
-0.043810 -0.148531 0
0.000000 -0.038585 0
0.000000 0.105620 0
-0.033801 0.232065 0
-0.068845 0.262070 0
-0.099576 0.277302 0
-0.125652 0.285582 0
-0.147103 0.286438 0
-0.164254 0.280592 0
-0.177590 0.269178 0
-0.187653 0.253467 0
-0.194965 0.234664 0
-0.199994 0.213805 0
-0.203143 0.191742 0
-0.204766 0.169156 0
-0.205180 0.146582 0
-0.204674 0.124421 0
-0.203513 0.102950 0
-0.201937 0.082322 0
-0.200160 0.062573 0
-0.198366 0.043628 0
-0.196698 0.025318 0
-0.195255 0.007395 0
-0.194078 -0.010441 0
-0.193154 -0.028552 0
-0.192405 -0.047308 0
-0.191721 -0.067026 0
-0.190958 -0.087952 0
-0.189953 -0.110238 0
-0.188532 -0.133913 0
-0.186522 -0.158868 0
-0.183760 -0.184842 0
-0.180087 -0.211415 0
-0.175349 -0.237992 0
-0.169374 -0.263781 0
-0.161953 -0.287757 0
-0.152788 -0.308562 0
-0.141388 -0.324259 0
-0.126838 -0.331605 0
-0.107401 -0.324130 0
-0.080218 -0.287574 0
-0.042518 -0.190217 0
0.000000 -0.060438 0
0.000000 0.121442 0
-0.029385 0.264476 0
-0.060610 0.293202 0
-0.087988 0.304157 0
-0.111139 0.307990 0
-0.130082 0.304566 0
-0.145106 0.294829 0
-0.156649 0.280014 0
-0.165196 0.261411 0
-0.171211 0.240183 0
-0.175111 0.217316 0
-0.177264 0.193609 0
-0.178002 0.169706 0
-0.177628 0.146115 0
-0.176428 0.123216 0
-0.174669 0.101264 0
-0.172600 0.080388 0
-0.170447 0.060597 0
-0.168406 0.041782 0
-0.166632 0.023728 0
-0.165228 0.006134 0
-0.164238 -0.011360 0
-0.163639 -0.029178 0
-0.163347 -0.047740 0
-0.163242 -0.067395 0
-0.163169 -0.088421 0
-0.162952 -0.110981 0
-0.162406 -0.135111 0
-0.161349 -0.160696 0
-0.159611 -0.187466 0
-0.157029 -0.214995 0
-0.153446 -0.242692 0
-0.148695 -0.269788 0
-0.142582 -0.295305 0
-0.134856 -0.317997 0
-0.125141 -0.336190 0
-0.112753 -0.347229 0
-0.096273 -0.345677 0
-0.072989 -0.318052 0
-0.039523 -0.228748 0
0.000000 -0.081102 0
0.000000 0.135005 0
-0.024844 0.292675 0
-0.052148 0.320673 0
-0.076114 0.327832 0
-0.096332 0.327676 0
-0.112810 0.320405 0
-0.125795 0.307159 0
-0.135667 0.289268 0
-0.142840 0.268029 0
-0.147717 0.244579 0
-0.150662 0.219859 0
-0.152006 0.194633 0
-0.152051 0.169520 0
-0.151086 0.145008 0
-0.149386 0.121462 0
-0.147215 0.099122 0
-0.144823 0.078100 0
-0.142443 0.058378 0
-0.140276 0.039812 0
-0.138482 0.022139 0
-0.137165 0.005001 0
-0.136366 -0.012030 0
-0.136051 -0.029442 0
-0.136129 -0.047705 0
-0.136471 -0.067204 0
-0.136916 -0.088243 0
-0.137280 -0.111002 0
-0.137378 -0.135516 0
-0.137027 -0.161663 0
-0.136058 -0.189163 0
-0.134318 -0.217580 0
-0.131656 -0.246325 0
-0.127915 -0.274645 0
-0.122917 -0.301596 0
-0.116441 -0.326003 0
-0.108197 -0.346362 0
-0.097691 -0.360474 0
-0.083869 -0.363894 0
-0.064388 -0.344324 0
-0.035574 -0.263205 0
0.000000 -0.099961 0
0.000000 0.146286 0
-0.020297 0.316624 0
-0.043696 0.344472 0
-0.064287 0.348341 0
-0.081624 0.344685 0
-0.095711 0.334030 0
-0.106752 0.317686 0
-0.115060 0.297059 0
-0.120986 0.273461 0
-0.124865 0.248006 0
-0.127012 0.221604 0
-0.127715 0.194997 0
-0.127249 0.168786 0
-0.125880 0.143450 0
-0.123866 0.119345 0
-0.121464 0.096701 0
-0.118917 0.075617 0
-0.116456 0.056050 0
-0.114279 0.037820 0
-0.112546 0.020617 0
-0.111356 0.004018 0
-0.110742 -0.012475 0
-0.110659 -0.029415 0
-0.111008 -0.047319 0
-0.111656 -0.066609 0
-0.112437 -0.087612 0
-0.113174 -0.110519 0
-0.113685 -0.135365 0
-0.113800 -0.162015 0
-0.113366 -0.190174 0
-0.112242 -0.219397 0
-0.110297 -0.249095 0
-0.107392 -0.278528 0
-0.103369 -0.306779 0
-0.098039 -0.332717 0
-0.091168 -0.354940 0
-0.082412 -0.371557 0
-0.071047 -0.378980 0
-0.055198 -0.366348 0
-0.031149 -0.293136 0
0.000000 -0.116676 0
0.000000 0.155302 0
-0.015800 0.336371 0
-0.035372 0.364663 0
-0.052679 0.365760 0
-0.067226 0.359100 0
-0.079015 0.345533 0
-0.088209 0.326509 0
-0.095060 0.303501 0
-0.099852 0.277834 0
-0.102864 0.250605 0
-0.104357 0.222709 0
-0.104581 0.194871 0
-0.103776 0.167685 0
-0.102183 0.141626 0
-0.100039 0.117047 0
-0.097583 0.094173 0
-0.095047 0.073092 0
-0.092647 0.053740 0
-0.090572 0.035902 0
-0.088971 0.019216 0
-0.087935 0.003197 0
-0.087490 -0.012727 0
-0.087575 -0.029176 0
-0.088087 -0.046708 0
-0.088888 -0.065776 0
-0.089822 -0.086725 0
-0.090721 -0.109753 0
-0.091423 -0.134889 0
-0.091779 -0.161983 0
-0.091660 -0.190721 0
-0.090952 -0.220649 0
-0.089548 -0.251176 0
-0.087335 -0.281573 0
-0.084184 -0.310949 0
-0.079938 -0.338204 0
-0.074410 -0.361988 0
-0.067363 -0.380595 0
-0.058331 -0.391108 0
-0.045923 -0.384222 0
-0.026567 -0.318404 0
0.000000 -0.131109 0
0.000000 0.162086 0
-0.011371 0.351996 0
-0.027217 0.381351 0
-0.041353 0.380195 0
-0.053219 0.371022 0
-0.062811 0.355012 0
-0.070256 0.333730 0
-0.075752 0.308703 0
-0.079521 0.281266 0
-0.081787 0.252511 0
-0.082763 0.223321 0
-0.082658 0.194416 0
-0.081678 0.166388 0
-0.080032 0.139713 0
-0.077934 0.114745 0
-0.075598 0.091709 0
-0.073233 0.070681 0
-0.071032 0.051575 0
-0.069162 0.034144 0
-0.067752 0.017980 0
-0.066885 0.002537 0
-0.066576 -0.012835 0
-0.066753 -0.028818 0
-0.067309 -0.046006 0
-0.068109 -0.064874 0
-0.069011 -0.085779 0
-0.069869 -0.108918 0
-0.070551 -0.134307 0
-0.070942 -0.161778 0
-0.070946 -0.191002 0
-0.070482 -0.221509 0
-0.069473 -0.252712 0
-0.067838 -0.283891 0
-0.065480 -0.314176 0
-0.062280 -0.342491 0
-0.058094 -0.367515 0
-0.052760 -0.387635 0
-0.045998 -0.400420 0
-0.036844 -0.398112 0
-0.022017 -0.339059 0
0.000000 -0.143243 0
0.000000 0.166673 0
-0.007006 0.363588 0
-0.019222 0.394646 0
-0.030300 0.391761 0
-0.039592 0.380558 0
-0.047087 0.362570 0
-0.052879 0.339449 0
-0.057115 0.312767 0
-0.059964 0.283869 0
-0.061595 0.253847 0
-0.062178 0.223579 0
-0.061881 0.193785 0
-0.060875 0.165059 0
-0.059336 0.137882 0
-0.057446 0.112613 0
-0.055391 0.089472 0
-0.053345 0.068527 0
-0.051469 0.049669 0
-0.049895 0.032622 0
-0.048724 0.016938 0
-0.048023 0.002021 0
-0.047805 -0.012859 0
-0.047989 -0.028443 0
-0.048463 -0.045352 0
-0.049106 -0.064074 0
-0.049798 -0.084965 0
-0.050428 -0.108213 0
-0.050905 -0.133816 0
-0.051154 -0.161588 0
-0.051122 -0.191182 0
-0.050763 -0.222123 0
-0.050035 -0.253819 0
-0.048892 -0.285566 0
-0.047272 -0.316508 0
-0.045094 -0.345590 0
-0.042261 -0.371508 0
-0.038664 -0.392690 0
-0.034147 -0.407024 0
-0.028089 -0.408204 0
-0.017589 -0.355248 0
0.000000 -0.153126 0
0.000000 0.169091 0
-0.002714 0.371219 0
-0.011339 0.404646 0
-0.019458 0.400564 0
-0.026272 0.387809 0
-0.031762 0.368300 0
-0.035988 0.343758 0
-0.039050 0.315787 0
-0.041066 0.285745 0
-0.042161 0.254725 0
-0.042458 0.223607 0
-0.042088 0.193113 0
-0.041183 0.163843 0
-0.039886 0.136285 0
-0.038343 0.110800 0
-0.036702 0.087608 0
-0.035100 0.066759 0
-0.033653 0.048125 0
-0.032449 0.031399 0
-0.031554 0.016109 0
-0.031011 0.001618 0
-0.030827 -0.012870 0
-0.030922 -0.028160 0
-0.031186 -0.044888 0
-0.031523 -0.063539 0
-0.031846 -0.084457 0
-0.032091 -0.107811 0
-0.032212 -0.133581 0
-0.032184 -0.161561 0
-0.031997 -0.191393 0
-0.031645 -0.222596 0
-0.031121 -0.254583 0
-0.030412 -0.286655 0
-0.029496 -0.317974 0
-0.028332 -0.347502 0
-0.026866 -0.373946 0
-0.025036 -0.395749 0
-0.022763 -0.410995 0
-0.019680 -0.414670 0
-0.013313 -0.367148 0
0.000000 -0.160832 0
0.000000 0.169386 0
0.001448 0.374927 0
-0.003475 0.411390 0
-0.008718 0.406694 0
-0.013148 0.392862 0
-0.016708 0.372286 0
-0.019438 0.346737 0
-0.021397 0.317845 0
-0.022655 0.286980 0
-0.023290 0.255239 0
-0.023387 0.223506 0
-0.023034 0.192510 0
-0.022329 0.162857 0
-0.021374 0.135042 0
-0.020280 0.109429 0
-0.019150 0.086230 0
-0.018077 0.065477 0
-0.017128 0.047018 0
-0.016345 0.030523 0
-0.015747 0.015500 0
-0.015346 0.001294 0
-0.015139 -0.012947 0
-0.015044 -0.028084 0
-0.014975 -0.044751 0
-0.014877 -0.063414 0
-0.014708 -0.084397 0
-0.014452 -0.107848 0
-0.014119 -0.133722 0
-0.013730 -0.161802 0
-0.013320 -0.191721 0
-0.012920 -0.222999 0
-0.012559 -0.255052 0
-0.012260 -0.287190 0
-0.012037 -0.318588 0
-0.011890 -0.348220 0
-0.011810 -0.374804 0
-0.011777 -0.396793 0
-0.011763 -0.412380 0
-0.011571 -0.417653 0
-0.009177 -0.374927 0
0.000000 -0.166439 0
0.000000 0.167643 0
0.005510 0.374694 0
0.004419 0.414812 0
0.002030 0.410237 0
-0.000068 0.395799 0
-0.001756 0.374590 0
-0.003047 0.348448 0
-0.003957 0.319004 0
-0.004509 0.287639 0
-0.004739 0.255457 0
-0.004690 0.223351 0
-0.004413 0.192054 0
-0.003966 0.162183 0
-0.003414 0.134236 0
-0.002825 0.108576 0
-0.002258 0.085405 0
-0.001756 0.064738 0
-0.001338 0.046393 0
-0.000994 0.030017 0
-0.000696 0.015110 0
-0.000411 0.001010 0
-0.000096 -0.013172 0
0.000297 -0.028324 0
0.000794 -0.045056 0
0.001412 -0.063806 0
0.002143 -0.084881 0
0.002950 -0.108401 0
0.003775 -0.134303 0
0.004548 -0.162359 0
0.005197 -0.192204 0
0.005653 -0.223357 0
0.005852 -0.255242 0
0.005736 -0.287177 0
0.005256 -0.318344 0
0.004368 -0.347729 0
0.003040 -0.374058 0
0.001248 -0.395796 0
-0.001021 -0.411201 0
-0.003674 -0.417256 0
-0.005136 -0.378719 0
0.000000 -0.170009 0
0.000000 0.163876 0
0.009588 0.370508 0
0.012399 0.414870 0
0.012894 0.411181 0
0.013110 0.396648 0
0.013257 0.375265 0
0.013372 0.348938 0
0.013481 0.319307 0
0.013606 0.287763 0
0.013756 0.255420 0
0.013929 0.223179 0
0.014110 0.191785 0
0.014281 0.161859 0
0.014416 0.133901 0
0.014493 0.108272 0
0.014502 0.085161 0
0.014450 0.064557 0
0.014370 0.046256 0
0.014318 0.029882 0
0.014366 0.014917 0
0.014593 0.000694 0
0.015081 -0.013655 0
0.015824 -0.028974 0
0.016787 -0.045866 0
0.017945 -0.064763 0
0.019238 -0.085935 0
0.020582 -0.109480 0
0.021875 -0.135320 0
0.023006 -0.163224 0
0.023864 -0.192826 0
0.024345 -0.223654 0
0.024349 -0.255135 0
0.023785 -0.286594 0
0.022565 -0.317220 0
0.020605 -0.346004 0
0.017828 -0.371684 0
0.014171 -0.392733 0
0.009592 -0.407458 0
0.004127 -0.413537 0
-0.001116 -0.378601 0
0.000000 -0.171576 0
0.000000 0.158055 0
0.013756 0.362295 0
0.020583 0.411505 0
0.024007 0.409526 0
0.026511 0.395436 0
0.028471 0.374329 0
0.029975 0.348223 0
0.031095 0.318770 0
0.031897 0.287364 0
0.032434 0.255135 0
0.032743 0.222997 0
0.032851 0.191703 0
0.032775 0.161878 0
0.032535 0.134023 0
0.032156 0.108489 0
0.031678 0.085448 0
0.031160 0.064870 0
0.030684 0.046525 0
0.030344 0.030022 0
0.030246 0.014835 0
0.030489 0.000295 0
0.031161 -0.014403 0
0.032228 -0.030030 0
0.033628 -0.047176 0
0.035279 -0.066257 0
0.037076 -0.087519 0
0.038892 -0.111038 0
0.040584 -0.136726 0
0.042002 -0.164348 0
0.043001 -0.193542 0
0.043442 -0.223843 0
0.043190 -0.254683 0
0.042118 -0.285393 0
0.040098 -0.315163 0
0.037006 -0.342992 0
0.032721 -0.367625 0