# vtk DataFile Version 2.0
generated by CFD-lab course output (written by Tobias Neckel) 
ASCII

DATASET STRUCTURED_GRID
DIMENSIONS  41 41 1 
POINTS 1681 float

0.150000 0.150000 0
0.167857 0.150000 0
0.185714 0.150000 0
0.203571 0.150000 0
0.221429 0.150000 0
0.239286 0.150000 0
0.257143 0.150000 0
0.275000 0.150000 0
0.292857 0.150000 0
0.310714 0.150000 0
0.328571 0.150000 0
0.346429 0.150000 0
0.364286 0.150000 0
0.382143 0.150000 0
0.400000 0.150000 0
0.417857 0.150000 0
0.435714 0.150000 0
0.453571 0.150000 0
0.471429 0.150000 0
0.489286 0.150000 0
0.507143 0.150000 0
0.525000 0.150000 0
0.542857 0.150000 0
0.560714 0.150000 0
0.578571 0.150000 0
0.596429 0.150000 0
0.614286 0.150000 0
0.632143 0.150000 0
0.650000 0.150000 0
0.667857 0.150000 0
0.685714 0.150000 0
0.703571 0.150000 0
0.721429 0.150000 0
0.739286 0.150000 0
0.757143 0.150000 0
0.775000 0.150000 0
0.792857 0.150000 0
0.810714 0.150000 0
0.828571 0.150000 0
0.846429 0.150000 0
0.864286 0.150000 0
0.150000 0.167857 0
0.167857 0.167857 0
0.185714 0.167857 0
0.203571 0.167857 0
0.221429 0.167857 0
0.239286 0.167857 0
0.257143 0.167857 0
0.275000 0.167857 0
0.292857 0.167857 0
0.310714 0.167857 0
0.328571 0.167857 0
0.346429 0.167857 0
0.364286 0.167857 0
0.382143 0.167857 0
0.400000 0.167857 0
0.417857 0.167857 0
0.435714 0.167857 0
0.453571 0.167857 0
0.471429 0.167857 0
0.489286 0.167857 0
0.507143 0.167857 0
0.525000 0.167857 0
0.542857 0.167857 0
0.560714 0.167857 0
0.578571 0.167857 0
0.596429 0.167857 0
0.614286 0.167857 0
0.632143 0.167857 0
0.650000 0.167857 0
0.667857 0.167857 0
0.685714 0.167857 0
0.703571 0.167857 0
0.721429 0.167857 0
0.739286 0.167857 0
0.757143 0.167857 0
0.775000 0.167857 0
0.792857 0.167857 0
0.810714 0.167857 0
0.828571 0.167857 0
0.846429 0.167857 0
0.864286 0.167857 0
0.150000 0.185714 0
0.167857 0.185714 0
0.185714 0.185714 0
0.203571 0.185714 0
0.221429 0.185714 0
0.239286 0.185714 0
0.257143 0.185714 0
0.275000 0.185714 0
0.292857 0.185714 0
0.310714 0.185714 0
0.328571 0.185714 0
0.346429 0.185714 0
0.364286 0.185714 0
0.382143 0.185714 0
0.400000 0.185714 0
0.417857 0.185714 0
0.435714 0.185714 0
0.453571 0.185714 0
0.471429 0.185714 0
0.489286 0.185714 0
0.507143 0.185714 0
0.525000 0.185714 0
0.542857 0.185714 0
0.560714 0.185714 0
0.578571 0.185714 0
0.596429 0.185714 0
0.614286 0.185714 0
0.632143 0.185714 0
0.650000 0.185714 0
0.667857 0.185714 0
0.685714 0.185714 0
0.703571 0.185714 0
0.721429 0.185714 0
0.739286 0.185714 0
0.757143 0.185714 0
0.775000 0.185714 0
0.792857 0.185714 0
0.810714 0.185714 0
0.828571 0.185714 0
0.846429 0.185714 0
0.864286 0.185714 0
0.150000 0.203571 0
0.167857 0.203571 0
0.185714 0.203571 0
0.203571 0.203571 0
0.221429 0.203571 0
0.239286 0.203571 0
0.257143 0.203571 0
0.275000 0.203571 0
0.292857 0.203571 0
0.310714 0.203571 0
0.328571 0.203571 0
0.346429 0.203571 0
0.364286 0.203571 0
0.382143 0.203571 0
0.400000 0.203571 0
0.417857 0.203571 0
0.435714 0.203571 0
0.453571 0.203571 0
0.471429 0.203571 0
0.489286 0.203571 0
0.507143 0.203571 0
0.525000 0.203571 0
0.542857 0.203571 0
0.560714 0.203571 0
0.578571 0.203571 0
0.596429 0.203571 0
0.614286 0.203571 0
0.632143 0.203571 0
0.650000 0.203571 0
0.667857 0.203571 0
0.685714 0.203571 0
0.703571 0.203571 0
0.721429 0.203571 0
0.739286 0.203571 0
0.757143 0.203571 0
0.775000 0.203571 0
0.792857 0.203571 0
0.810714 0.203571 0
0.828571 0.203571 0
0.846429 0.203571 0
0.864286 0.203571 0
0.150000 0.221429 0
0.167857 0.221429 0
0.185714 0.221429 0
0.203571 0.221429 0
0.221429 0.221429 0
0.239286 0.221429 0
0.257143 0.221429 0
0.275000 0.221429 0
0.292857 0.221429 0
0.310714 0.221429 0
0.328571 0.221429 0
0.346429 0.221429 0
0.364286 0.221429 0
0.382143 0.221429 0
0.400000 0.221429 0
0.417857 0.221429 0
0.435714 0.221429 0
0.453571 0.221429 0
0.471429 0.221429 0
0.489286 0.221429 0
0.507143 0.221429 0
0.525000 0.221429 0
0.542857 0.221429 0
0.560714 0.221429 0
0.578571 0.221429 0
0.596429 0.221429 0
0.614286 0.221429 0
0.632143 0.221429 0
0.650000 0.221429 0
0.667857 0.221429 0
0.685714 0.221429 0
0.703571 0.221429 0
0.721429 0.221429 0
0.739286 0.221429 0
0.757143 0.221429 0
0.775000 0.221429 0
0.792857 0.221429 0
0.810714 0.221429 0
0.828571 0.221429 0
0.846429 0.221429 0
0.864286 0.221429 0
0.150000 0.239286 0
0.167857 0.239286 0
0.185714 0.239286 0
0.203571 0.239286 0
0.221429 0.239286 0
0.239286 0.239286 0
0.257143 0.239286 0
0.275000 0.239286 0
0.292857 0.239286 0
0.310714 0.239286 0
0.328571 0.239286 0
0.346429 0.239286 0
0.364286 0.239286 0
0.382143 0.239286 0
0.400000 0.239286 0
0.417857 0.239286 0
0.435714 0.239286 0
0.453571 0.239286 0
0.471429 0.239286 0
0.489286 0.239286 0
0.507143 0.239286 0
0.525000 0.239286 0
0.542857 0.239286 0
0.560714 0.239286 0
0.578571 0.239286 0
0.596429 0.239286 0
0.614286 0.239286 0
0.632143 0.239286 0
0.650000 0.239286 0
0.667857 0.239286 0
0.685714 0.239286 0
0.703571 0.239286 0
0.721429 0.239286 0
0.739286 0.239286 0
0.757143 0.239286 0
0.775000 0.239286 0
0.792857 0.239286 0
0.810714 0.239286 0
0.828571 0.239286 0
0.846429 0.239286 0
0.864286 0.239286 0
0.150000 0.257143 0
0.167857 0.257143 0
0.185714 0.257143 0
0.203571 0.257143 0
0.221429 0.257143 0
0.239286 0.257143 0
0.257143 0.257143 0
0.275000 0.257143 0
0.292857 0.257143 0
0.310714 0.257143 0
0.328571 0.257143 0
0.346429 0.257143 0
0.364286 0.257143 0
0.382143 0.257143 0
0.400000 0.257143 0
0.417857 0.257143 0
0.435714 0.257143 0
0.453571 0.257143 0
0.471429 0.257143 0
0.489286 0.257143 0
0.507143 0.257143 0
0.525000 0.257143 0
0.542857 0.257143 0
0.560714 0.257143 0
0.578571 0.257143 0
0.596429 0.257143 0
0.614286 0.257143 0
0.632143 0.257143 0
0.650000 0.257143 0
0.667857 0.257143 0
0.685714 0.257143 0
0.703571 0.257143 0
0.721429 0.257143 0
0.739286 0.257143 0
0.757143 0.257143 0
0.775000 0.257143 0
0.792857 0.257143 0
0.810714 0.257143 0
0.828571 0.257143 0
0.846429 0.257143 0
0.864286 0.257143 0
0.150000 0.275000 0
0.167857 0.275000 0
0.185714 0.275000 0
0.203571 0.275000 0
0.221429 0.275000 0
0.239286 0.275000 0
0.257143 0.275000 0
0.275000 0.275000 0
0.292857 0.275000 0
0.310714 0.275000 0
0.328571 0.275000 0
0.346429 0.275000 0
0.364286 0.275000 0
0.382143 0.275000 0
0.400000 0.275000 0
0.417857 0.275000 0
0.435714 0.275000 0
0.453571 0.275000 0
0.471429 0.275000 0
0.489286 0.275000 0
0.507143 0.275000 0
0.525000 0.275000 0
0.542857 0.275000 0
0.560714 0.275000 0
0.578571 0.275000 0
0.596429 0.275000 0
0.614286 0.275000 0
0.632143 0.275000 0
0.650000 0.275000 0
0.667857 0.275000 0
0.685714 0.275000 0
0.703571 0.275000 0
0.721429 0.275000 0
0.739286 0.275000 0
0.757143 0.275000 0
0.775000 0.275000 0
0.792857 0.275000 0
0.810714 0.275000 0
0.828571 0.275000 0
0.846429 0.275000 0
0.864286 0.275000 0
0.150000 0.292857 0
0.167857 0.292857 0
0.185714 0.292857 0
0.203571 0.292857 0
0.221429 0.292857 0
0.239286 0.292857 0
0.257143 0.292857 0
0.275000 0.292857 0
0.292857 0.292857 0
0.310714 0.292857 0
0.328571 0.292857 0
0.346429 0.292857 0
0.364286 0.292857 0
0.382143 0.292857 0
0.400000 0.292857 0
0.417857 0.292857 0
0.435714 0.292857 0
0.453571 0.292857 0
0.471429 0.292857 0
0.489286 0.292857 0
0.507143 0.292857 0
0.525000 0.292857 0
0.542857 0.292857 0
0.560714 0.292857 0
0.578571 0.292857 0
0.596429 0.292857 0
0.614286 0.292857 0
0.632143 0.292857 0
0.650000 0.292857 0
0.667857 0.292857 0
0.685714 0.292857 0
0.703571 0.292857 0
0.721429 0.292857 0
0.739286 0.292857 0
0.757143 0.292857 0
0.775000 0.292857 0
0.792857 0.292857 0
0.810714 0.292857 0
0.828571 0.292857 0
0.846429 0.292857 0
0.864286 0.292857 0
0.150000 0.310714 0
0.167857 0.310714 0
0.185714 0.310714 0
0.203571 0.310714 0
0.221429 0.310714 0
0.239286 0.310714 0
0.257143 0.310714 0
0.275000 0.310714 0
0.292857 0.310714 0
0.310714 0.310714 0
0.328571 0.310714 0
0.346429 0.310714 0
0.364286 0.310714 0
0.382143 0.310714 0
0.400000 0.310714 0
0.417857 0.310714 0
0.435714 0.310714 0
0.453571 0.310714 0
0.471429 0.310714 0
0.489286 0.310714 0
0.507143 0.310714 0
0.525000 0.310714 0
0.542857 0.310714 0
0.560714 0.310714 0
0.578571 0.310714 0
0.596429 0.310714 0
0.614286 0.310714 0
0.632143 0.310714 0
0.650000 0.310714 0
0.667857 0.310714 0
0.685714 0.310714 0
0.703571 0.310714 0
0.721429 0.310714 0
0.739286 0.310714 0
0.757143 0.310714 0
0.775000 0.310714 0
0.792857 0.310714 0
0.810714 0.310714 0
0.828571 0.310714 0
0.846429 0.310714 0
0.864286 0.310714 0
0.150000 0.328571 0
0.167857 0.328571 0
0.185714 0.328571 0
0.203571 0.328571 0
0.221429 0.328571 0
0.239286 0.328571 0
0.257143 0.328571 0
0.275000 0.328571 0
0.292857 0.328571 0
0.310714 0.328571 0
0.328571 0.328571 0
0.346429 0.328571 0
0.364286 0.328571 0
0.382143 0.328571 0
0.400000 0.328571 0
0.417857 0.328571 0
0.435714 0.328571 0
0.453571 0.328571 0
0.471429 0.328571 0
0.489286 0.328571 0
0.507143 0.328571 0
0.525000 0.328571 0
0.542857 0.328571 0
0.560714 0.328571 0
0.578571 0.328571 0
0.596429 0.328571 0
0.614286 0.328571 0
0.632143 0.328571 0
0.650000 0.328571 0
0.667857 0.328571 0
0.685714 0.328571 0
0.703571 0.328571 0
0.721429 0.328571 0
0.739286 0.328571 0
0.757143 0.328571 0
0.775000 0.328571 0
0.792857 0.328571 0
0.810714 0.328571 0
0.828571 0.328571 0
0.846429 0.328571 0
0.864286 0.328571 0
0.150000 0.346429 0
0.167857 0.346429 0
0.185714 0.346429 0
0.203571 0.346429 0
0.221429 0.346429 0
0.239286 0.346429 0
0.257143 0.346429 0
0.275000 0.346429 0
0.292857 0.346429 0
0.310714 0.346429 0
0.328571 0.346429 0
0.346429 0.346429 0
0.364286 0.346429 0
0.382143 0.346429 0
0.400000 0.346429 0
0.417857 0.346429 0
0.435714 0.346429 0
0.453571 0.346429 0
0.471429 0.346429 0
0.489286 0.346429 0
0.507143 0.346429 0
0.525000 0.346429 0
0.542857 0.346429 0
0.560714 0.346429 0
0.578571 0.346429 0
0.596429 0.346429 0
0.614286 0.346429 0
0.632143 0.346429 0
0.650000 0.346429 0
0.667857 0.346429 0
0.685714 0.346429 0
0.703571 0.346429 0
0.721429 0.346429 0
0.739286 0.346429 0
0.757143 0.346429 0
0.775000 0.346429 0
0.792857 0.346429 0
0.810714 0.346429 0
0.828571 0.346429 0
0.846429 0.346429 0
[...]
POINT_DATA 1681 

VECTORS velocity float
0.000000 0.000000 0
0.000040 0.000000 0
0.000197 0.000000 0
-0.000743 0.000000 0
-0.002798 0.000000 0
-0.005570 0.000000 0
-0.008715 0.000000 0
-0.012033 0.000000 0
-0.015433 0.000000 0
-0.019195 0.000000 0
-0.023324 0.000000 0
-0.027916 0.000000 0
-0.033061 0.000000 0
-0.038823 0.000000 0
-0.045198 0.000000 0
-0.052074 0.000000 0
-0.059369 0.000000 0
-0.066759 0.000000 0
-0.073955 0.000000 0
-0.080688 0.000000 0
-0.086748 0.000000 0
-0.091991 0.000000 0
-0.096320 0.000000 0
-0.099753 0.000000 0
-0.102195 0.000000 0
-0.103569 0.000000 0
-0.103765 0.000000 0
-0.102635 0.000000 0
-0.100010 0.000000 0
-0.095776 0.000000 0
-0.089897 0.000000 0
-0.082213 0.000000 0
-0.072618 0.000000 0
-0.061059 0.000000 0
-0.047650 0.000000 0
-0.032808 0.000000 0
-0.017455 0.000000 0
-0.003687 0.000000 0
0.005128 0.000000 0
0.004305 0.000000 0
0.000000 0.000000 0
0.000000 -0.000040 0
-0.005093 -0.000197 0
-0.011441 0.000783 0
-0.018961 0.002995 0
-0.027724 0.004827 0
-0.037292 0.005917 0
-0.047267 0.006463 0
-0.057434 0.006718 0
-0.067772 0.007162 0
-0.078477 0.007891 0
-0.089657 0.008721 0
-0.101421 0.009737 0
-0.113834 0.010907 0
-0.126883 0.012137 0
-0.140448 0.013250 0
-0.154298 0.014171 0
-0.168133 0.014685 0
-0.181508 0.014587 0
-0.193982 0.013929 0
-0.205162 0.012792 0
-0.214748 0.011303 0
-0.222537 0.009572 0
-0.228406 0.007762 0
-0.232305 0.005875 0
-0.234128 0.003816 0
-0.233744 0.001570 0
-0.231031 -0.000935 0
-0.225863 -0.003755 0
-0.218066 -0.006859 0
-0.207428 -0.010113 0
-0.193750 -0.013563 0
-0.176769 -0.017279 0
-0.156265 -0.021154 0
-0.132143 -0.024968 0
-0.104607 -0.028251 0
-0.074434 -0.030195 0
-0.043405 -0.029121 0
-0.015019 -0.022583 0
0.004926 -0.007992 0
0.007977 0.005128 0
0.000000 0.004305 0
0.000000 0.005093 0
-0.014525 0.011441 0
-0.031455 0.013868 0
-0.047734 0.016283 0
-0.063528 0.018331 0
-0.078951 0.019543 0
-0.094069 0.020142 0
-0.108953 0.020505 0
-0.123722 0.021043 0
-0.138237 0.021885 0
-0.152606 0.022945 0
-0.166804 0.024177 0
-0.180731 0.025461 0
-0.194213 0.026614 0
-0.207031 0.027415 0
-0.218965 0.027684 0
-0.229693 0.027210 0
-0.239070 0.025849 0
-0.246935 0.023654 0
-0.253185 0.020767 0
-0.257755 0.017376 0
-0.260614 0.013658 0
-0.261762 0.009768 0
-0.261113 0.005721 0
-0.258674 0.001439 0
-0.254409 -0.003096 0
-0.248325 -0.007881 0
-0.240343 -0.012966 0
-0.230377 -0.018436 0
-0.218228 -0.024316 0
-0.203584 -0.030658 0
-0.186224 -0.037485 0
-0.165916 -0.044627 0
-0.142540 -0.051658 0
-0.116201 -0.057709 0
-0.087449 -0.061201 0
-0.057652 -0.059415 0
-0.029145 -0.048332 0
-0.006003 -0.022996 0
0.005969 0.004926 0
0.000000 0.007977 0
0.000000 0.014485 0
-0.020737 0.031258 0
-0.043288 0.033992 0
-0.064002 0.035068 0
-0.083099 0.036044 0
-0.100924 0.036458 0
-0.117774 0.036466 0
-0.133854 0.036371 0
-0.149265 0.036445 0
-0.163935 0.036776 0
-0.177845 0.037288 0
-0.190905 0.037862 0
-0.202977 0.038316 0
-0.213897 0.038436 0
-0.223501 0.038002 0
-0.231663 0.036833 0
-0.238274 0.034791 0
-0.243359 0.031829 0
-0.246989 0.028044 0
-0.249262 0.023612 0
-0.250277 0.018732 0
-0.250114 0.013579 0
-0.248817 0.008261 0
-0.246364 0.002787 0
-0.242747 -0.002888 0
-0.238015 -0.008779 0
-0.232081 -0.015000 0
-0.224796 -0.021702 0
-0.216002 -0.028974 0
-0.205506 -0.036906 0
-0.193054 -0.045566 0
-0.178415 -0.054947 0
-0.161359 -0.064838 0
-0.141702 -0.074683 0
-0.119382 -0.083343 0
-0.094598 -0.088744 0
-0.068039 -0.087425 0
-0.041114 -0.074232 0
-0.016500 -0.043106 0
0.001795 -0.000875 0
0.000000 0.010274 0
0.000000 0.025830 0
-0.023067 0.054729 0
-0.047664 0.057133 0
-0.069891 0.056094 0
-0.089929 0.055253 0
-0.108150 0.054218 0
-0.124906 0.053072 0
-0.140443 0.051996 0
-0.154878 0.051124 0
-0.168200 0.050465 0
-0.180372 0.049914 0
-0.191316 0.049310 0
-0.200937 0.048453 0
-0.209141 0.047138 0
-0.215870 0.045181 0
-0.221117 0.042457 0
-0.224935 0.038907 0
-0.227458 0.034564 0
-0.228857 0.029556 0
-0.229299 0.024055 0
-0.228915 0.018228 0
-0.227785 0.012198 0
-0.225933 0.006017 0
-0.223335 -0.000349 0
-0.219978 -0.006909 0
-0.215830 -0.013763 0
-0.210741 -0.021101 0
-0.204622 -0.029045 0
-0.197347 -0.037725 0
-0.188764 -0.047264 0
-0.178689 -0.057750 0
-0.166930 -0.069179 0
-0.153270 -0.081340 0
-0.137477 -0.093636 0
-0.119333 -0.104812 0
-0.098698 -0.112544 0
-0.075659 -0.112899 0
-0.050784 -0.099871 0
-0.025687 -0.065905 0
-0.004135 -0.011574 0
0.000000 0.009772 0
0.000000 0.037551 0
-0.022901 0.078922 0
-0.047410 0.080817 0
-0.069385 0.077333 0
-0.088935 0.074302 0
-0.106399 0.071435 0
-0.122112 0.068759 0
-0.136318 0.066342 0
-0.149154 0.064202 0
-0.160660 0.062270 0
-0.170835 0.060405 0
-0.179654 0.058427 0
-0.187088 0.056141 0
-0.193130 0.053369 0
-0.197812 0.049978 0
-0.201213 0.045898 0
-0.203460 0.041131 0
-0.204722 0.035752 0
-0.205173 0.029885 0
-0.204957 0.023669 0
-0.204174 0.017219 0
-0.202867 0.010597 0
-0.201035 0.003811 0
-0.198658 -0.003167 0
-0.195735 -0.010393 0
-0.192156 -0.018017 0
-0.187857 -0.026208 0
-0.182778 -0.035096 0
-0.176835 -0.044833 0
-0.169936 -0.055563 0
-0.161963 -0.067400 0
-0.152777 -0.080367 0
-0.142194 -0.094291 0
-0.129969 -0.108620 0
-0.115773 -0.122121 0
-0.099205 -0.132418 0
-0.079878 -0.135339 0
-0.057663 -0.124204 0
-0.033328 -0.089755 0
-0.010090 -0.026563 0
0.000000 0.006139 0
0.000000 0.048731 0
-0.021345 0.102139 0
-0.044564 0.103617 0
-0.065304 0.097620 0
-0.083586 0.092266 0
-0.099701 0.087394 0
-0.113946 0.082991 0
-0.126550 0.079038 0
-0.137661 0.075466 0
-0.147363 0.072146 0
-0.155699 0.068908 0
-0.162702 0.065563 0
-0.168410 0.061930 0
-0.172881 0.057862 0
-0.176204 0.053264 0
-0.178501 0.048105 0
-0.179914 0.042416 0
-0.180596 0.036277 0
-0.180682 0.029791 0
-0.180274 0.023056 0
-0.179430 0.016137 0
-0.178172 0.009059 0
-0.176497 0.001808 0
-0.174386 -0.005649 0
-0.171829 -0.013411 0
-0.168746 -0.021640 0
-0.165112 -0.030479 0
-0.160888 -0.040067 0
-0.156035 -0.050567 0
-0.150508 -0.062136 0
-0.144248 -0.074909 0
-0.137173 -0.088948 0
-0.129150 -0.104147 0
-0.119953 -0.120057 0
-0.109213 -0.135576 0
-0.096369 -0.148439 0
-0.080695 -0.154442 0
-0.061503 -0.146420 0
-0.038786 -0.113478 0
-0.014892 -0.044902 0
0.000000 -0.000318 0
0.000000 0.058896 0
-0.019098 0.123485 0
-0.040419 0.124776 0
-0.059447 0.116355 0
-0.076102 0.108699 0
-0.090633 0.101795 0
-0.103294 0.095608 0
-0.114296 0.090058 0
-0.123793 0.085014 0
-0.131894 0.080307 0
-0.138682 0.075745 0
-0.144236 0.071138 0
-0.148639 0.066319 0
-0.151992 0.061164 0
-0.154411 0.055598 0
-0.156028 0.049608 0
-0.156974 0.043226 0
-0.157370 0.036520 0
-0.157313 0.029563 0
-0.156866 0.022417 0
-0.156062 0.015117 0
-0.154913 0.007665 0
-0.153413 0.000025 0
-0.151551 -0.007836 0
-0.149311 -0.016033 0
-0.146655 -0.024734 0
-0.143569 -0.034066 0
-0.140037 -0.044172 0
-0.136048 -0.055213 0
-0.131592 -0.067351 0
-0.126655 -0.080735 0
-0.121206 -0.095465 0
-0.115167 -0.111511 0
-0.108363 -0.128557 0
-0.100442 -0.145705 0
-0.090789 -0.160935 0
-0.078473 -0.170205 0
-0.062375 -0.166113 0
-0.041773 -0.136366 0
-0.018042 -0.065348 0
0.000000 -0.008753 0
0.000000 0.067829 0
-0.016567 0.142558 0
-0.035757 0.143966 0
-0.052909 0.133303 0
-0.067839 0.123452 0
-0.080760 0.114586 0
-0.091890 0.106654 0
-0.101419 0.099537 0
-0.109500 0.093063 0
-0.116256 0.087035 0
-0.121795 0.081250 0
-0.126222 0.075519 0
-0.129648 0.069685 0
-0.132193 0.063634 0
-0.133982 0.057300 0
-0.135139 0.050668 0
-0.135780 0.043759 0
-0.135997 0.036616 0
-0.135859 0.029287 0
-0.135405 0.021805 0
-0.134655 0.014184 0
-0.133610 0.006410 0
-0.132266 -0.001554 0
-0.130627 -0.009751 0
-0.128668 -0.018307 0
-0.126377 -0.027382 0
-0.123747 -0.037096 0
-0.120778 -0.047588 0
-0.117474 -0.059012 0
-0.113847 -0.071529 0
-0.109910 -0.085295 0
-0.105670 -0.100436 0
-0.101097 -0.116990 0
-0.096076 -0.134782 0
-0.090318 -0.153149 0
-0.083237 -0.170407 0
-0.073828 -0.182856 0
-0.060686 -0.183120 0
-0.042497 -0.157811 0
-0.019721 -0.086675 0
0.000000 -0.018360 0
0.000000 0.075464 0
-0.014002 0.159243 0
-0.031038 0.161118 0
-0.046328 0.148437 0
-0.059582 0.136550 0
-0.070979 0.125846 0
-0.080708 0.116268 0
-0.088940 0.107669 0
-0.095818 0.099851 0
-0.101471 0.092601 0
-0.106016 0.085710 0
-0.109570 0.078991 0
-0.112257 0.072290 0
-0.114198 0.065497 0
-0.115517 0.058545 0
-0.116328 0.051406 0
-0.116728 0.044084 0
-0.116793 0.036599 0
-0.116575 0.028971 0
-0.116100 0.021213 0
-0.115380 0.013321 0
-0.114415 0.005276 0
-0.113201 -0.002957 0
-0.111744 -0.011433 0
-0.110022 -0.020284 0
-0.108038 -0.029655 0
-0.105790 -0.039665 0
-0.103283 -0.050446 0
-0.100532 -0.062144 0
-0.097556 -0.074915 0
-0.094383 -0.088912 0
-0.091038 -0.104279 0
-0.087526 -0.121105 0
-0.083786 -0.139336 0
-0.079609 -0.158544 0
-0.074497 -0.177425 0
-0.067482 -0.192757 0
-0.057028 -0.197445 0
-0.041385 -0.177332 0
-0.020207 -0.107845 0
0.000000 -0.028474 0
0.000000 0.081831 0
-0.011550 0.173596 0
-0.026522 0.176293 0
-0.040056 0.161846 0
-0.051752 0.148102 0
-0.061760 0.135712 0
-0.070245 0.124615 0
-0.077355 0.114648 0
-0.083225 0.105595 0
-0.087977 0.097232 0
-0.091730 0.089350 0
-0.094603 0.081761 0
-0.096716 0.074313 0
-0.098188 0.066894 0
-0.099135 0.059430 0
-0.099659 0.051879 0
-0.099845 0.044224 0
-0.099758 0.036462 0
-0.099441 0.028594 0
-0.098918 0.020611 0
-0.098198 0.012499 0
-0.097279 0.004231 0
-0.096158 -0.004225 0
-0.094837 -0.012930 0
-0.093308 -0.022013 0
-0.091575 -0.031615 0
-0.089643 -0.041851 0
-0.087518 -0.052846 0
-0.085218 -0.064740 0
-0.082764 -0.077678 0
-0.080189 -0.091813 0
-0.077523 -0.107293 0
-0.074788 -0.124243 0
-0.071961 -0.142699 0
-0.068908 -0.162438 0
-0.065247 -0.182534 0
-0.060129 -0.200325 0
-0.052025 -0.209217 0
-0.038915 -0.194632 0
-0.019767 -0.128061 0
0.000000 -0.038567 0
0.000000 0.087013 0
-0.009281 0.185764 0
-0.022332 0.189624 0
-0.034256 0.173668 0
-0.044542 0.158254 0
-0.053311 0.144339 0
-0.060704 0.131862 0
-0.066852 0.120649 0
-0.071875 0.110473 0
-0.075887 0.101106 0
-0.079000 0.092336 0
-0.081328 0.083976 0
-0.082984 0.075876 0
-0.084079 0.067917 0
-0.084717 0.060015 0
-0.084991 0.052116 0
-0.084978 0.044183 0
-0.084735 0.036195 0
-0.084304 0.028131 0
-0.083708 0.019970 0
-0.082957 0.011682 0
-0.082050 0.003236 0
-0.080984 -0.005399 0
-0.079759 -0.014284 0
-0.078377 -0.023545 0
-0.076845 -0.033320 0
-0.075169 -0.043721 0
-0.073358 -0.054871 0
-0.071426 -0.066898 0
-0.069398 -0.079944 0
-0.067303 -0.094153 0
-0.065170 -0.109679 0
-0.063026 -0.126667 0
-0.060868 -0.145215 0
-0.058619 -0.165258 0
-0.056010 -0.186204 0
-0.052356 -0.205978 0
-0.046246 -0.218659 0
-0.035544 -0.209590 0
-0.018666 -0.146760 0
0.000000 -0.048241 0
0.000000 0.091112 0
-0.007217 0.195929 0
-0.018511 0.201269 0
-0.028982 0.184056 0
-0.038006 0.167157 0
-0.045678 0.151874 0
-0.052118 0.138156 0
-0.057439 0.125819 0
-0.061745 0.114630 0
-0.065140 0.104358 0
-0.067726 0.094791 0
-0.069608 0.085744 0
-0.070889 0.077064 0
-0.071671 0.068628 0
-0.072046 0.060342 0
-0.072100 0.052139 0
-0.071901 0.043968 0
-0.071505 0.035789 0
-0.070952 0.027566 0
-0.070266 0.019263 0
-0.069460 0.010840 0
-0.068537 0.002258 0
-0.067492 -0.006516 0
-0.066329 -0.015536 0
-0.065055 -0.024927 0
-0.063677 -0.034823 0
-0.062204 -0.045338 0
-0.060645 -0.056589 0
-0.059014 -0.068699 0
-0.057335 -0.081802 0
-0.055633 -0.096041 0
-0.053934 -0.111570 0
-0.052261 -0.128545 0
-0.050619 -0.147106 0
-0.048969 -0.167296 0
-0.047136 -0.188797 0
-0.044603 -0.210088 0
-0.040155 -0.226029 0
-0.031671 -0.222212 0
-0.017152 -0.163604 0
0.000000 -0.057233 0
0.000000 0.094230 0
-0.005354 0.204275 0
-0.015049 0.211389 0
-0.024215 0.193163 0
-0.032117 0.174951 0
-0.038821 0.158451 0
-0.044427 0.143623 0
-0.049030 0.130276 0
-0.052721 0.118174 0
-0.055593 0.107087 0
-0.057735 0.096804 0
-0.059243 0.087140 0
-0.060210 0.077939 0
-0.060725 0.069074 0
-0.060874 0.060445 0
-0.060733 0.051971 0
-0.060365 0.043589 0
-0.059823 0.035245 0
-0.059147 0.026892 0
-0.058365 0.018478 0
-0.057491 0.009953 0
-0.056533 0.001268 0
-0.055484 -0.007606 0
-0.054355 -0.016721 0
-0.053154 -0.026198 0
-0.051890 -0.036171 0
-0.050574 -0.046754 0
-0.049215 -0.058060 0
-0.047830 -0.070208 0
-0.046438 -0.083325 0
-0.045064 -0.097554 0
-0.043728 -0.113052 0
-0.042448 -0.129982 0
-0.041231 -0.148507 0
-0.040059 -0.168741 0
-0.038826 -0.190569 0
-0.037167 -0.212959 0
-0.034095 -0.231591 0
-0.027608 -0.232593 0
-0.015422 -0.178431 0
0.000000 -0.065393 0
0.000000 0.096465 0
-0.003669 0.210977 0
-0.011906 0.220130 0
-0.019901 0.201125 0
-0.026804 0.181763 0
-0.032648 0.164183 0
-0.037518 0.148365 0
-0.041493 0.134114 0
-0.044650 0.121192 0
-0.047069 0.109372 0
-0.048831 0.098441 0
-0.050018 0.088218 0
-0.050715 0.078546 0
-0.051001 0.069292 0
-0.050954 0.060350 0
-0.050641 0.051630 0
-0.050122 0.043059 0
-0.049447 0.034571 0
-0.048656 0.026108 0
-0.047777 0.017608 0
-0.046832 0.009009 0
-0.045828 0.000250 0
-0.044757 -0.008693 0
-0.043641 -0.017866 0
-0.042487 -0.027392 0
-0.041304 -0.037403 0
-0.040106 -0.048013 0
-0.038907 -0.059333 0
-0.037722 -0.071476 0
-0.036571 -0.084568 0
-0.035475 -0.098751 0
-0.034450 -0.114186 0
-0.033511 -0.131042 0
-0.032665 -0.149495 0
-0.031904 -0.169701 0
-0.031170 -0.191689 0
-0.030215 -0.214820 0
-0.028288 -0.235588 0
-0.023577 -0.240884 0
-0.013620 -0.191213 0
0.000000 -0.072655 0
0.000000 0.097899 0
-0.002129 0.216181 0
-0.009028 0.227621 0
-0.015963 0.208060 0
-0.021971 0.187699 0
-0.027048 0.169165 0
-0.031263 0.152468 0
-0.034680 0.137408 0
-0.037365 0.123750 0
-0.039386 0.111268 0
-0.040814 0.099753 0
-0.041722 0.089024 0
-0.042183 0.078922 0
-0.042271 0.069313 0
-0.042052 0.060084 0
-0.041589 0.051139 0
-0.040938 0.042395 0
-0.040145 0.033779 0
-0.039249 0.025222 0
-0.038283 0.016654 0
-0.037267 0.008003 0
-0.036211 -0.000806 0
-0.035112 -0.009792 0
-0.033997 -0.018992 0
-0.032868 -0.028535 0
-0.031741 -0.038552 0
-0.030632 -0.049150 0
-0.029561 -0.060444 0
-0.028543 -0.072544 0
-0.027597 -0.085572 0
-0.026741 -0.099675 0
-0.025990 -0.115015 0
-0.025356 -0.131767 0
-0.024847 -0.150114 0
-0.024464 -0.170236 0
-0.024174 -0.192258 0
-0.023819 -0.215840 0
-0.022860 -0.238230 0
-0.019718 -0.247261 0
-0.011844 -0.202008 0
0.000000 -0.079013 0
0.000000 0.098594 0
-0.000715 0.220005 0
-0.006348 0.233964 0
-0.012316 0.214068 0
-0.017515 0.192848 0
-0.021899 0.173475 0
-0.025522 0.155997 0
-0.028438 0.140216 0
-0.030699 0.125898 0
-0.032364 0.112820 0
-0.033495 0.100777 0
-0.034155 0.089588 0
-0.034410 0.079095 0
-0.034322 0.069161 0
-0.033954 0.059669 0
-0.033362 0.050516 0
-0.032596 0.041614 0
-0.031701 0.032883 0
-0.030716 0.024246 0
-0.029671 0.015625 0
-0.028591 0.006937 0
-0.027484 -0.001904 0
-0.026355 -0.010907 0
-0.025233 -0.020110 0
-0.024119 -0.029648 0
-0.023028 -0.039640 0
-0.021989 -0.050193 0
-0.021022 -0.061422 0
-0.020149 -0.073440 0
-0.019383 -0.086369 0
-0.018740 -0.100358 0
-0.018235 -0.115571 0
-0.017881 -0.132185 0
-0.017690 -0.150387 0
-0.017667 -0.170374 0
-0.017795 -0.192333 0
-0.017980 -0.216134 0
-0.017861 -0.239689 0
-0.016106 -0.251900 0
-0.010156 -0.210931 0
0.000000 -0.084500 0
0.000000 0.098613 0
0.000583 0.222530 0
-0.003800 0.239223 0
-0.008872 0.219227 0
-0.013329 0.197281 0
-0.017079 0.177173 0
-0.020162 0.159006 0
-0.022619 0.142584 0
-0.024494 0.127677 0
-0.025835 0.114064 0
-0.026697 0.101544 0
-0.027134 0.089938 0
-0.027203 0.079089 0
-0.026962 0.068858 0
-0.026463 0.059124 0
-0.025759 0.049780 0
-0.024896 0.040734 0
-0.023916 0.031899 0
-0.022856 0.023192 0
-0.021747 0.014529 0
-0.020611 0.005816 0
-0.019456 -0.003042 0
-0.018298 -0.012043 0
-0.017165 -0.021228 0
-0.016060 -0.030741 0
-0.015001 -0.040682 0
-0.014022 -0.051156 0
-0.013150 -0.062284 0
-0.012405 -0.074183 0
-0.011800 -0.086981 0
-0.011350 -0.100823 0
-0.011072 -0.115875 0
-0.010983 -0.132313 0
-0.011097 -0.150328 0
-0.011426 -0.170131 0
-0.011959 -0.191945 0
-0.012654 -0.215775 0
-0.013281 -0.240103 0
-0.012764 -0.254966 0
-0.008580 -0.218115 0
0.000000 -0.089169 0
0.000000 0.098011 0
0.001802 0.223804 0
-0.001311 0.243419 0
-0.005541 0.223597 0
-0.009309 0.201055 0
-0.012472 0.180308 0
-0.015052 0.161537 0
-0.017083 0.144547 0
-0.018599 0.129115 0
-0.019642 0.115023 0
-0.020255 0.102076 0
-0.020488 0.090095 0
-0.020389 0.078923 0
-0.020010 0.068421 0
-0.019397 0.058466 0
-0.018596 0.048949 0
-0.017652 0.039771 0
-0.016602 0.030843 0
-0.015484 0.022077 0
-0.014327 0.013380 0
-0.013146 0.004645 0
-0.011935 -0.004218 0
-0.010748 -0.013198 0
-0.009603 -0.022348 0
-0.008514 -0.031812 0
-0.007499 -0.041677 0
-0.006588 -0.052044 0
-0.005807 -0.063040 0
-0.005179 -0.074790 0
-0.004721 -0.087423 0
-0.004450 -0.101086 0
-0.004388 -0.115939 0
-0.004554 -0.132160 0
-0.004967 -0.149944 0
-0.005642 -0.169513 0
-0.006573 -0.191106 0
-0.007768 -0.214811 0
-0.009078 -0.239579 0
-0.009676 -0.256602 0
-0.007116 -0.223695 0
0.000000 -0.093079 0
0.000000 0.096812 0
0.002993 0.223841 0
0.001184 0.246565 0
-0.002233 0.227224 0
-0.005353 0.204212 0
-0.007959 0.182917 0
-0.010069 0.163618 0
-0.011699 0.146131 0
-0.012877 0.130235 0
-0.013638 0.115719 0
-0.014018 0.102390 0
-0.014060 0.090073 0
-0.013807 0.078611 0
-0.013301 0.067865 0
-0.012587 0.057710 0
-0.011704 0.048035 0
-0.010691 0.038740 0
-0.009586 0.029731 0
-0.008422 0.020917 0
-0.007235 0.012191 0
-0.006025 0.003424 0
-0.004747 -0.005440 0
-0.003528 -0.014375 0
-0.002376 -0.023462 0
-0.001316 -0.032845 0
-0.000367 -0.042608 0
0.000462 -0.052848 0
0.001148 -0.063693 0
0.001663 -0.075269 0
0.001982 -0.087709 0
0.002081 -0.101156 0
0.001933 -0.115771 0
0.001515 -0.131734 0
0.000807 -0.149240 0
-0.000206 -0.168525 0
-0.001542 -0.189819 0
-0.003233 -0.213270 0
-0.005184 -0.238196 0
-0.006802 -0.256928 0
-0.005751 -0.227790 0
0.000000 -0.096285 0
0.000000 0.095018 0
0.004193 0.222620 0
0.003724 0.248645 0
0.001166 0.230134 0
-0.001344 0.206782 0
-0.003440 0.185025 0
-0.005098 0.165276 0
-0.006339 0.147355 0
-0.007194 0.131054 0
-0.007686 0.116165 0
-0.007844 0.102499 0
-0.007704 0.089883 0
-0.007303 0.078164 0
-0.006682 0.067201 0
-0.005877 0.056869 0
-0.004923 0.047053 0
-0.003855 0.037653 0
-0.002700 0.028574 0
-0.001482 0.019725 0
-0.000238 0.010982 0
0.001009 0.002158 0
0.002285 -0.006714 0
0.003487 -0.015569 0
0.004609 -0.024560 0
0.005627 -0.033822 0
0.006519 -0.043455 0
0.007273 -0.053558 0
0.007868 -0.064240 0
0.008273 -0.075624 0
0.008454 -0.087841 0
0.008381 -0.101036 0
0.008024 -0.115373 0
0.007352 -0.131034 0
0.006342 -0.148223 0
0.004975 -0.167164 0
0.003214 -0.188078 0
0.001048 -0.211169 0
-0.001516 -0.236011 0
-0.004087 -0.256035 0
-0.004461 -0.230496 0
0.000000 -0.098830 0
0.000000 0.092619 0
0.005433 0.220117 0
0.006349 0.249592 0
0.004730 0.232292 0
0.002825 0.208819 0
0.001219 0.186671 0
-0.000008 0.166517 0
-0.000885 0.148228 0
-0.001429 0.131582 0
-0.001659 0.116369 0
-0.001600 0.102408 0
-0.001282 0.089532 0
-0.000737 0.077589 0
0.000002 0.066438 0
0.000900 0.055952 0
0.001927 0.046014 0
0.003052 0.036516 0
0.004253 0.027357 0
0.005511 0.018455 0
0.006798 0.009701 0
0.008079 0.000901 0
0.009288 -0.007918 0
0.010428 -0.016698 0
0.011495 -0.025603 0
0.012465 -0.034755 0
0.013309 -0.044254 0
0.014000 -0.054198 0
0.014508 -0.064692 0
0.014801 -0.075856 0
0.014842 -0.087818 0
0.014594 -0.100725 0
0.014023 -0.114742 0
0.013091 -0.130052 0
0.011767 -0.146862 0
0.010020 -0.165397 0
0.007820 -0.185892 0
0.005152 -0.208539 0
0.001982 -0.233061 0
-0.001465 -0.253983 0
-0.003218 -0.231877 0
0.000000 -0.100746 0
0.000000 0.089585 0
0.006746 0.216271 0
0.009126 0.249348 0
0.008507 0.233658 0
0.007239 0.210294 0
0.006134 0.187858 0
0.005316 0.167379 0
0.004787 0.148776 0
0.004547 0.131828 0
0.004576 0.116335 0
0.004852 0.102121 0
0.005348 0.089020 0
0.006037 0.076881 0
0.006893 0.065564 0
0.007890 0.054943 0
0.008996 0.044902 0
0.010181 0.035327 0
0.011418 0.026115 0
0.012679 0.017180 0
0.013948 0.008414 0
0.015213 -0.000333 0
0.016376 -0.009064 0
0.017471 -0.017776 0
0.018490 -0.026596 0
0.019406 -0.035635 0
0.020187 -0.044990 0
0.020802 -0.054757 0
0.021215 -0.065042 0
0.021388 -0.075958 0
0.021282 -0.087635 0
0.020853 -0.100217 0
0.020059 -0.113870 0
0.018857 -0.128779 0
0.017207 -0.145152 0
0.015070 -0.163217 0
0.012409 -0.183210 0