# vtk DataFile Version 2.0
generated by CFD-lab course output (written by Tobias Neckel) 
ASCII

DATASET STRUCTURED_GRID
DIMENSIONS  41 41 1 
POINTS 1681 float

0.150000 0.150000 0
0.167857 0.150000 0
0.185714 0.150000 0
0.203571 0.150000 0
0.221429 0.150000 0
0.239286 0.150000 0
0.257143 0.150000 0
0.275000 0.150000 0
0.292857 0.150000 0
0.310714 0.150000 0
0.328571 0.150000 0
0.346429 0.150000 0
0.364286 0.150000 0
0.382143 0.150000 0
0.400000 0.150000 0
0.417857 0.150000 0
0.435714 0.150000 0
0.453571 0.150000 0
0.471429 0.150000 0
0.489286 0.150000 0
0.507143 0.150000 0
0.525000 0.150000 0
0.542857 0.150000 0
0.560714 0.150000 0
0.578571 0.150000 0
0.596429 0.150000 0
0.614286 0.150000 0
0.632143 0.150000 0
0.650000 0.150000 0
0.667857 0.150000 0
0.685714 0.150000 0
0.703571 0.150000 0
0.721429 0.150000 0
0.739286 0.150000 0
0.757143 0.150000 0
0.775000 0.150000 0
0.792857 0.150000 0
0.810714 0.150000 0
0.828571 0.150000 0
0.846429 0.150000 0
0.864286 0.150000 0
0.150000 0.167857 0
0.167857 0.167857 0
0.185714 0.167857 0
0.203571 0.167857 0
0.221429 0.167857 0
0.239286 0.167857 0
0.257143 0.167857 0
0.275000 0.167857 0
0.292857 0.167857 0
0.310714 0.167857 0
0.328571 0.167857 0
0.346429 0.167857 0
0.364286 0.167857 0
0.382143 0.167857 0
0.400000 0.167857 0
0.417857 0.167857 0
0.435714 0.167857 0
0.453571 0.167857 0
0.471429 0.167857 0
0.489286 0.167857 0
0.507143 0.167857 0
0.525000 0.167857 0
0.542857 0.167857 0
0.560714 0.167857 0
0.578571 0.167857 0
0.596429 0.167857 0
0.614286 0.167857 0
0.632143 0.167857 0
0.650000 0.167857 0
0.667857 0.167857 0
0.685714 0.167857 0
0.703571 0.167857 0
0.721429 0.167857 0
0.739286 0.167857 0
0.757143 0.167857 0
0.775000 0.167857 0
0.792857 0.167857 0
0.810714 0.167857 0
0.828571 0.167857 0
0.846429 0.167857 0
0.864286 0.167857 0
0.150000 0.185714 0
0.167857 0.185714 0
0.185714 0.185714 0
0.203571 0.185714 0
0.221429 0.185714 0
0.239286 0.185714 0
0.257143 0.185714 0
0.275000 0.185714 0
0.292857 0.185714 0
0.310714 0.185714 0
0.328571 0.185714 0
0.346429 0.185714 0
0.364286 0.185714 0
0.382143 0.185714 0
0.400000 0.185714 0
0.417857 0.185714 0
0.435714 0.185714 0
0.453571 0.185714 0
0.471429 0.185714 0
0.489286 0.185714 0
0.507143 0.185714 0
0.525000 0.185714 0
0.542857 0.185714 0
0.560714 0.185714 0
0.578571 0.185714 0
0.596429 0.185714 0
0.614286 0.185714 0
0.632143 0.185714 0
0.650000 0.185714 0
0.667857 0.185714 0
0.685714 0.185714 0
0.703571 0.185714 0
0.721429 0.185714 0
0.739286 0.185714 0
0.757143 0.185714 0
0.775000 0.185714 0
0.792857 0.185714 0
0.810714 0.185714 0
0.828571 0.185714 0
0.846429 0.185714 0
0.864286 0.185714 0
0.150000 0.203571 0
0.167857 0.203571 0
0.185714 0.203571 0
0.203571 0.203571 0
0.221429 0.203571 0
0.239286 0.203571 0
0.257143 0.203571 0
0.275000 0.203571 0
0.292857 0.203571 0
0.310714 0.203571 0
0.328571 0.203571 0
0.346429 0.203571 0
0.364286 0.203571 0
0.382143 0.203571 0
0.400000 0.203571 0
0.417857 0.203571 0
0.435714 0.203571 0
0.453571 0.203571 0
0.471429 0.203571 0
0.489286 0.203571 0
0.507143 0.203571 0
0.525000 0.203571 0
0.542857 0.203571 0
0.560714 0.203571 0
0.578571 0.203571 0
0.596429 0.203571 0
0.614286 0.203571 0
0.632143 0.203571 0
0.650000 0.203571 0
0.667857 0.203571 0
0.685714 0.203571 0
0.703571 0.203571 0
0.721429 0.203571 0
0.739286 0.203571 0
0.757143 0.203571 0
0.775000 0.203571 0
0.792857 0.203571 0
0.810714 0.203571 0
0.828571 0.203571 0
0.846429 0.203571 0
0.864286 0.203571 0
0.150000 0.221429 0
0.167857 0.221429 0
0.185714 0.221429 0
0.203571 0.221429 0
0.221429 0.221429 0
0.239286 0.221429 0
0.257143 0.221429 0
0.275000 0.221429 0
0.292857 0.221429 0
0.310714 0.221429 0
0.328571 0.221429 0
0.346429 0.221429 0
0.364286 0.221429 0
0.382143 0.221429 0
0.400000 0.221429 0
0.417857 0.221429 0
0.435714 0.221429 0
0.453571 0.221429 0
0.471429 0.221429 0
0.489286 0.221429 0
0.507143 0.221429 0
0.525000 0.221429 0
0.542857 0.221429 0
0.560714 0.221429 0
0.578571 0.221429 0
0.596429 0.221429 0
0.614286 0.221429 0
0.632143 0.221429 0
0.650000 0.221429 0
0.667857 0.221429 0
0.685714 0.221429 0
0.703571 0.221429 0
0.721429 0.221429 0
0.739286 0.221429 0
0.757143 0.221429 0
0.775000 0.221429 0
0.792857 0.221429 0
0.810714 0.221429 0
0.828571 0.221429 0
0.846429 0.221429 0
0.864286 0.221429 0
0.150000 0.239286 0
0.167857 0.239286 0
0.185714 0.239286 0
0.203571 0.239286 0
0.221429 0.239286 0
0.239286 0.239286 0
0.257143 0.239286 0
0.275000 0.239286 0
0.292857 0.239286 0
0.310714 0.239286 0
0.328571 0.239286 0
0.346429 0.239286 0
0.364286 0.239286 0
0.382143 0.239286 0
0.400000 0.239286 0
0.417857 0.239286 0
0.435714 0.239286 0
0.453571 0.239286 0
0.471429 0.239286 0
0.489286 0.239286 0
0.507143 0.239286 0
0.525000 0.239286 0
0.542857 0.239286 0
0.560714 0.239286 0
0.578571 0.239286 0
0.596429 0.239286 0
0.614286 0.239286 0
0.632143 0.239286 0
0.650000 0.239286 0
0.667857 0.239286 0
0.685714 0.239286 0
0.703571 0.239286 0
0.721429 0.239286 0
0.739286 0.239286 0
0.757143 0.239286 0
0.775000 0.239286 0
0.792857 0.239286 0
0.810714 0.239286 0
0.828571 0.239286 0
0.846429 0.239286 0
0.864286 0.239286 0
0.150000 0.257143 0
0.167857 0.257143 0
0.185714 0.257143 0
0.203571 0.257143 0
0.221429 0.257143 0
0.239286 0.257143 0
0.257143 0.257143 0
0.275000 0.257143 0
0.292857 0.257143 0
0.310714 0.257143 0
0.328571 0.257143 0
0.346429 0.257143 0
0.364286 0.257143 0
0.382143 0.257143 0
0.400000 0.257143 0
0.417857 0.257143 0
0.435714 0.257143 0
0.453571 0.257143 0
0.471429 0.257143 0
0.489286 0.257143 0
0.507143 0.257143 0
0.525000 0.257143 0
0.542857 0.257143 0
0.560714 0.257143 0
0.578571 0.257143 0
0.596429 0.257143 0
0.614286 0.257143 0
0.632143 0.257143 0
0.650000 0.257143 0
0.667857 0.257143 0
0.685714 0.257143 0
0.703571 0.257143 0
0.721429 0.257143 0
0.739286 0.257143 0
0.757143 0.257143 0
0.775000 0.257143 0
0.792857 0.257143 0
0.810714 0.257143 0
0.828571 0.257143 0
0.846429 0.257143 0
0.864286 0.257143 0
0.150000 0.275000 0
0.167857 0.275000 0
0.185714 0.275000 0
0.203571 0.275000 0
0.221429 0.275000 0
0.239286 0.275000 0
0.257143 0.275000 0
0.275000 0.275000 0
0.292857 0.275000 0
0.310714 0.275000 0
0.328571 0.275000 0
0.346429 0.275000 0
0.364286 0.275000 0
0.382143 0.275000 0
0.400000 0.275000 0
0.417857 0.275000 0
0.435714 0.275000 0
0.453571 0.275000 0
0.471429 0.275000 0
0.489286 0.275000 0
0.507143 0.275000 0
0.525000 0.275000 0
0.542857 0.275000 0
0.560714 0.275000 0
0.578571 0.275000 0
0.596429 0.275000 0
0.614286 0.275000 0
0.632143 0.275000 0
0.650000 0.275000 0
0.667857 0.275000 0
0.685714 0.275000 0
0.703571 0.275000 0
0.721429 0.275000 0
0.739286 0.275000 0
0.757143 0.275000 0
0.775000 0.275000 0
0.792857 0.275000 0
0.810714 0.275000 0
0.828571 0.275000 0
0.846429 0.275000 0
0.864286 0.275000 0
0.150000 0.292857 0
0.167857 0.292857 0
0.185714 0.292857 0
0.203571 0.292857 0
0.221429 0.292857 0
0.239286 0.292857 0
0.257143 0.292857 0
0.275000 0.292857 0
0.292857 0.292857 0
0.310714 0.292857 0
0.328571 0.292857 0
0.346429 0.292857 0
0.364286 0.292857 0
0.382143 0.292857 0
0.400000 0.292857 0
0.417857 0.292857 0
0.435714 0.292857 0
0.453571 0.292857 0
0.471429 0.292857 0
0.489286 0.292857 0
0.507143 0.292857 0
0.525000 0.292857 0
0.542857 0.292857 0
0.560714 0.292857 0
0.578571 0.292857 0
0.596429 0.292857 0
0.614286 0.292857 0
0.632143 0.292857 0
0.650000 0.292857 0
0.667857 0.292857 0
0.685714 0.292857 0
0.703571 0.292857 0
0.721429 0.292857 0
0.739286 0.292857 0
0.757143 0.292857 0
0.775000 0.292857 0
0.792857 0.292857 0
0.810714 0.292857 0
0.828571 0.292857 0
0.846429 0.292857 0
0.864286 0.292857 0
0.150000 0.310714 0
0.167857 0.310714 0
0.185714 0.310714 0
0.203571 0.310714 0
0.221429 0.310714 0
0.239286 0.310714 0
0.257143 0.310714 0
0.275000 0.310714 0
0.292857 0.310714 0
0.310714 0.310714 0
0.328571 0.310714 0
0.346429 0.310714 0
0.364286 0.310714 0
0.382143 0.310714 0
0.400000 0.310714 0
0.417857 0.310714 0
0.435714 0.310714 0
0.453571 0.310714 0
0.471429 0.310714 0
0.489286 0.310714 0
0.507143 0.310714 0
0.525000 0.310714 0
0.542857 0.310714 0
0.560714 0.310714 0
0.578571 0.310714 0
0.596429 0.310714 0
0.614286 0.310714 0
0.632143 0.310714 0
0.650000 0.310714 0
0.667857 0.310714 0
0.685714 0.310714 0
0.703571 0.310714 0
0.721429 0.310714 0
0.739286 0.310714 0
0.757143 0.310714 0
0.775000 0.310714 0
0.792857 0.310714 0
0.810714 0.310714 0
0.828571 0.310714 0
0.846429 0.310714 0
0.864286 0.310714 0
0.150000 0.328571 0
0.167857 0.328571 0
0.185714 0.328571 0
0.203571 0.328571 0
0.221429 0.328571 0
0.239286 0.328571 0
0.257143 0.328571 0
0.275000 0.328571 0
0.292857 0.328571 0
0.310714 0.328571 0
0.328571 0.328571 0
0.346429 0.328571 0
0.364286 0.328571 0
0.382143 0.328571 0
0.400000 0.328571 0
0.417857 0.328571 0
0.435714 0.328571 0
0.453571 0.328571 0
0.471429 0.328571 0
0.489286 0.328571 0
0.507143 0.328571 0
0.525000 0.328571 0
0.542857 0.328571 0
0.560714 0.328571 0
0.578571 0.328571 0
0.596429 0.328571 0
0.614286 0.328571 0
0.632143 0.328571 0
0.650000 0.328571 0
0.667857 0.328571 0
0.685714 0.328571 0
0.703571 0.328571 0
0.721429 0.328571 0
0.739286 0.328571 0
0.757143 0.328571 0
0.775000 0.328571 0
0.792857 0.328571 0
0.810714 0.328571 0
0.828571 0.328571 0
0.846429 0.328571 0
0.864286 0.328571 0
0.150000 0.346429 0
0.167857 0.346429 0
0.185714 0.346429 0
0.203571 0.346429 0
0.221429 0.346429 0
0.239286 0.346429 0
0.257143 0.346429 0
0.275000 0.346429 0
0.292857 0.346429 0
0.310714 0.346429 0
0.328571 0.346429 0
0.346429 0.346429 0
0.364286 0.346429 0
0.382143 0.346429 0
0.400000 0.346429 0
0.417857 0.346429 0
0.435714 0.346429 0
0.453571 0.346429 0
0.471429 0.346429 0
0.489286 0.346429 0
0.507143 0.346429 0
0.525000 0.346429 0
0.542857 0.346429 0
0.560714 0.346429 0
0.578571 0.346429 0
0.596429 0.346429 0
0.614286 0.346429 0
0.632143 0.346429 0
0.650000 0.346429 0
0.667857 0.346429 0
0.685714 0.346429 0
0.703571 0.346429 0
0.721429 0.346429 0
0.739286 0.346429 0
0.757143 0.346429 0
0.775000 0.346429 0
0.792857 0.346429 0
0.810714 0.346429 0
0.828571 0.346429 0
0.846429 0.346429 0
[...]
POINT_DATA 1681 

VECTORS velocity float
0.000000 0.000000 0
-0.005308 0.000000 0
-0.009507 0.000000 0
-0.012613 0.000000 0
-0.015112 0.000000 0
-0.017120 0.000000 0
-0.018586 0.000000 0
-0.019429 0.000000 0
-0.019623 0.000000 0
-0.019730 0.000000 0
-0.019848 0.000000 0
-0.020043 0.000000 0
-0.020278 0.000000 0
-0.020429 0.000000 0
-0.020343 0.000000 0
-0.019907 0.000000 0
-0.019606 0.000000 0
-0.019502 0.000000 0
-0.019629 0.000000 0
-0.019919 0.000000 0
-0.020220 0.000000 0
-0.020352 0.000000 0
-0.020186 0.000000 0
-0.020193 0.000000 0
-0.020420 0.000000 0
-0.020874 0.000000 0
-0.021466 0.000000 0
-0.022024 0.000000 0
-0.022363 0.000000 0
-0.022371 0.000000 0
-0.022487 0.000000 0
-0.022709 0.000000 0
-0.022999 0.000000 0
-0.023208 0.000000 0
-0.023083 0.000000 0
-0.022282 0.000000 0
-0.020405 0.000000 0
-0.017460 0.000000 0
-0.012940 0.000000 0
-0.006595 0.000000 0
0.000000 0.000000 0
0.000000 0.005308 0
-0.011471 0.009507 0
-0.021469 0.007305 0
-0.028756 0.005605 0
-0.034229 0.004506 0
-0.038327 0.003474 0
-0.041192 0.002309 0
-0.042901 0.001037 0
-0.043658 0.000301 0
-0.044004 0.000224 0
-0.044204 0.000313 0
-0.044382 0.000430 0
-0.044524 0.000386 0
-0.044511 0.000066 0
-0.044217 -0.000522 0
-0.043661 -0.000737 0
-0.043221 -0.000405 0
-0.043047 0.000023 0
-0.043178 0.000418 0
-0.043536 0.000591 0
-0.043942 0.000433 0
-0.044214 -0.000035 0
-0.044320 -0.000159 0
-0.044609 0.000234 0
-0.045201 0.000681 0
-0.046102 0.001047 0
-0.047188 0.001150 0
-0.048238 0.000896 0
-0.049044 0.000347 0
-0.049554 0.000125 0
-0.050047 0.000338 0
-0.050548 0.000512 0
-0.050937 0.000499 0
-0.050920 0.000083 0
-0.050041 -0.000926 0
-0.047744 -0.002678 0
-0.043436 -0.004822 0
-0.036635 -0.007465 0
-0.026573 -0.010865 0
-0.013087 -0.012940 0
0.000000 -0.006595 0
0.000000 0.011471 0
-0.011456 0.021469 0
-0.022772 0.017285 0
-0.031076 0.012760 0
-0.036930 0.009571 0
-0.040963 0.006963 0
-0.043647 0.004574 0
-0.045380 0.002466 0
-0.046560 0.001104 0
-0.047114 0.000546 0
-0.047276 0.000378 0
-0.047165 0.000320 0
-0.046869 0.000129 0
-0.046476 -0.000306 0
-0.046104 -0.000850 0
-0.045945 -0.000996 0
-0.045756 -0.000614 0
-0.045629 -0.000043 0
-0.045578 0.000489 0
-0.045613 0.000764 0
-0.045755 0.000678 0
-0.046068 0.000378 0
-0.046691 0.000395 0
-0.047347 0.000881 0
-0.048094 0.001493 0
-0.048918 0.001987 0
-0.049791 0.002136 0
-0.050691 0.001856 0
-0.051627 0.001315 0
-0.052654 0.001004 0
-0.053420 0.000995 0
-0.053877 0.000890 0
-0.053852 0.000372 0
-0.053098 -0.000896 0
-0.051306 -0.003176 0
-0.048121 -0.006605 0
-0.043151 -0.011109 0
-0.035529 -0.016863 0
-0.024842 -0.023548 0
-0.011465 -0.026573 0
0.000000 -0.013087 0
0.000000 0.016764 0
-0.009663 0.032278 0
-0.020067 0.026926 0
-0.028019 0.019763 0
-0.033637 0.014393 0
-0.037463 0.010192 0
-0.040026 0.006726 0
-0.041775 0.003950 0
-0.043002 0.002035 0
-0.043650 0.000940 0
-0.043825 0.000363 0
-0.043646 0.000023 0
-0.043255 -0.000302 0
-0.042821 -0.000699 0
-0.042516 -0.001054 0
-0.042421 -0.001085 0
-0.042326 -0.000720 0
-0.042212 -0.000155 0
-0.042088 0.000401 0
-0.042012 0.000768 0
-0.042085 0.000888 0
-0.042428 0.000902 0
-0.043087 0.001120 0
-0.043809 0.001636 0
-0.044534 0.002252 0
-0.045237 0.002743 0
-0.045940 0.002923 0
-0.046702 0.002733 0
-0.047577 0.002310 0
-0.048519 0.001918 0
-0.049189 0.001561 0
-0.049416 0.000944 0
-0.049022 -0.000280 0
-0.047827 -0.002463 0
-0.045647 -0.005903 0
-0.042238 -0.010833 0
-0.037241 -0.017414 0
-0.030063 -0.025774 0
-0.020472 -0.034929 0
-0.009049 -0.037782 0
0.000000 -0.018060 0
0.000000 0.021133 0
-0.008009 0.041536 0
-0.017168 0.035641 0
-0.024472 0.026330 0
-0.029787 0.019015 0
-0.033499 0.013352 0
-0.036051 0.008887 0
-0.037820 0.005443 0
-0.039024 0.002978 0
-0.039693 0.001369 0
-0.039907 0.000374 0
-0.039774 -0.000251 0
-0.039440 -0.000696 0
-0.039068 -0.001045 0
-0.038794 -0.001250 0
-0.038659 -0.001185 0
-0.038552 -0.000824 0
-0.038428 -0.000281 0
-0.038298 0.000289 0
-0.038221 0.000760 0
-0.038295 0.001094 0
-0.038610 0.001380 0
-0.039162 0.001776 0
-0.039798 0.002328 0
-0.040435 0.002922 0
-0.041044 0.003393 0
-0.041647 0.003601 0
-0.042299 0.003493 0
-0.043021 0.003132 0
-0.043723 0.002616 0
-0.044162 0.001893 0
-0.044146 0.000722 0
-0.043511 -0.001218 0
-0.042117 -0.004271 0
-0.039822 -0.008765 0
-0.036442 -0.015011 0
-0.031717 -0.023284 0
-0.025312 -0.033632 0
-0.017104 -0.044562 0
-0.007588 -0.047045 0
0.000000 -0.022136 0
0.000000 0.024773 0
-0.006727 0.049447 0
-0.014732 0.043389 0
-0.021333 0.032383 0
-0.026295 0.023421 0
-0.029872 0.016456 0
-0.032394 0.011047 0
-0.034151 0.006922 0
-0.035326 0.003909 0
-0.036001 0.001823 0
-0.036260 0.000444 0
-0.036204 -0.000443 0
-0.035959 -0.001009 0
-0.035658 -0.001345 0
-0.035403 -0.001462 0
-0.035227 -0.001328 0
-0.035085 -0.000951 0
-0.034950 -0.000409 0
-0.034830 0.000193 0
-0.034771 0.000765 0
-0.034844 0.001278 0
-0.035101 0.001769 0
-0.035530 0.002309 0
-0.036044 0.002909 0
-0.036575 0.003497 0
-0.037093 0.003956 0
-0.037606 0.004178 0
-0.038137 0.004106 0
-0.038675 0.003734 0
-0.039131 0.003059 0
-0.039331 0.001984 0
-0.039110 0.000294 0
-0.038323 -0.002309 0
-0.036851 -0.006153 0
-0.034580 -0.011579 0
-0.031377 -0.018938 0
-0.027076 -0.028543 0
-0.021497 -0.040386 0
-0.014562 -0.052654 0
-0.006581 -0.054887 0
0.000000 -0.025648 0
0.000000 0.027860 0
-0.005758 0.056268 0
-0.012761 0.050247 0
-0.018673 0.037893 0
-0.023239 0.027554 0
-0.026625 0.019450 0
-0.029068 0.013166 0
-0.030786 0.008375 0
-0.031935 0.004828 0
-0.032616 0.002302 0
-0.032918 0.000576 0
-0.032935 -0.000551 0
-0.032774 -0.001242 0
-0.032537 -0.001602 0
-0.032303 -0.001681 0
-0.032107 -0.001503 0
-0.031941 -0.001100 0
-0.031796 -0.000537 0
-0.031681 0.000110 0
-0.031631 0.000774 0
-0.031687 0.001424 0
-0.031880 0.002066 0
-0.032199 0.002720 0
-0.032594 0.003373 0
-0.033016 0.003970 0
-0.033436 0.004424 0
-0.033848 0.004644 0
-0.034249 0.004562 0
-0.034610 0.004127 0
-0.034852 0.003272 0
-0.034849 0.001872 0
-0.034466 -0.000286 0
-0.033585 -0.003477 0
-0.032105 -0.008013 0
-0.029935 -0.014240 0
-0.026981 -0.022516 0
-0.023144 -0.033164 0
-0.018327 -0.046145 0
-0.012467 -0.059478 0
-0.005727 -0.061607 0
0.000000 -0.028718 0
0.000000 0.030531 0
-0.004992 0.062208 0
-0.011129 0.056303 0
-0.016396 0.042860 0
-0.020552 0.031372 0
-0.023708 0.022285 0
-0.026034 0.015208 0
-0.027693 0.009789 0
-0.028815 0.005739 0
-0.029501 0.002806 0
-0.029841 0.000763 0
-0.029920 -0.000587 0
-0.029828 -0.001407 0
-0.029646 -0.001816 0
-0.029439 -0.001892 0
-0.029241 -0.001690 0
-0.029064 -0.001262 0
-0.028911 -0.000668 0
-0.028796 0.000028 0
-0.028739 0.000771 0
-0.028769 0.001527 0
-0.028900 0.002281 0
-0.029124 0.003022 0
-0.029412 0.003726 0
-0.029728 0.004339 0
-0.030046 0.004788 0
-0.030351 0.004991 0
-0.030623 0.004868 0
-0.030827 0.004337 0
-0.030895 0.003297 0
-0.030731 0.001598 0
-0.030231 -0.000970 0
-0.029301 -0.004670 0
-0.027856 -0.009802 0
-0.025824 -0.016703 0
-0.023140 -0.025729 0
-0.019745 -0.037197 0
-0.015584 -0.051062 0
-0.010607 -0.065254 0
-0.004896 -0.067354 0
0.000000 -0.031375 0
0.000000 0.032853 0
-0.004317 0.067397 0
-0.009707 0.061650 0
-0.014393 0.047316 0
-0.018156 0.034866 0
-0.021069 0.024933 0
-0.023256 0.017151 0
-0.024840 0.011155 0
-0.025930 0.006637 0
-0.026619 0.003329 0
-0.026989 0.000995 0
-0.027118 -0.000564 0
-0.027081 -0.001516 0
-0.026946 -0.001991 0
-0.026766 -0.002087 0
-0.026577 -0.001878 0
-0.026398 -0.001430 0
-0.026242 -0.000805 0
-0.026120 -0.000062 0
-0.026050 0.000748 0
-0.026048 0.001585 0
-0.026121 0.002422 0
-0.026264 0.003231 0
-0.026456 0.003976 0
-0.026674 0.004605 0
-0.026892 0.005047 0
-0.027091 0.005221 0
-0.027245 0.005039 0
-0.027316 0.004398 0
-0.027248 0.003176 0
-0.026966 0.001208 0
-0.026390 -0.001717 0
-0.025445 -0.005852 0
-0.024064 -0.011490 0
-0.022190 -0.018955 0
-0.019777 -0.028596 0
-0.016787 -0.040720 0
-0.013191 -0.055283 0
-0.008947 -0.070165 0
-0.004109 -0.072214 0
0.000000 -0.033614 0
0.000000 0.034848 0
-0.003694 0.071914 0
-0.008426 0.066380 0
-0.012597 0.051309 0
-0.015994 0.038048 0
-0.018665 0.027385 0
-0.020703 0.018979 0
-0.022202 0.012464 0
-0.023253 0.007518 0
-0.023937 0.003864 0
-0.024327 0.001262 0
-0.024493 -0.000495 0
-0.024499 -0.001579 0
-0.024403 -0.002131 0
-0.024251 -0.002260 0
-0.024076 -0.002058 0
-0.023901 -0.001598 0
-0.023742 -0.000947 0
-0.023612 -0.000164 0
-0.023524 0.000699 0
-0.023488 0.001598 0
-0.023509 0.002497 0
-0.023581 0.003358 0
-0.023691 0.004136 0
-0.023820 0.004775 0
-0.023946 0.005206 0
-0.024047 0.005344 0
-0.024098 0.005093 0
-0.024061 0.004340 0
-0.023891 0.002947 0
-0.023528 0.000740 0
-0.022910 -0.002491 0
-0.021981 -0.006996 0
-0.020686 -0.013057 0
-0.018983 -0.020990 0
-0.016839 -0.031132 0
-0.014230 -0.043783 0
-0.011140 -0.058902 0
-0.007537 -0.074335 0
-0.003454 -0.076302 0
0.000000 -0.035484 0
0.000000 0.036547 0
-0.003135 0.075823 0
-0.007273 0.070554 0
-0.010978 0.054884 0
-0.014034 0.040934 0
-0.016469 0.029642 0
-0.018353 0.020688 0
-0.019758 0.013705 0
-0.020761 0.008371 0
-0.021429 0.004402 0
-0.021829 0.001552 0
-0.022020 -0.000391 0
-0.022059 -0.001606 0
-0.021994 -0.002240 0
-0.021865 -0.002414 0
-0.021705 -0.002228 0
-0.021536 -0.001764 0
-0.021376 -0.001094 0
-0.021236 -0.000280 0
-0.021129 0.000624 0
-0.021062 0.001570 0
-0.021036 0.002515 0
-0.021048 0.003413 0
-0.021087 0.004215 0
-0.021137 0.004860 0
-0.021182 0.005275 0
-0.021198 0.005373 0
-0.021162 0.005053 0
-0.021042 0.004191 0
-0.020799 0.002642 0
-0.020387 0.000228 0
-0.019758 -0.003264 0
-0.018868 -0.008076 0
-0.017678 -0.014487 0
-0.016154 -0.022803 0
-0.014275 -0.033349 0
-0.012028 -0.046418 0
-0.009402 -0.061976 0
-0.006369 -0.077851 0
-0.002935 -0.079751 0
0.000000 -0.037068 0
0.000000 0.037983 0
-0.002647 0.079188 0
-0.006248 0.074223 0
-0.009523 0.058070 0
-0.012257 0.043539 0
-0.014461 0.031704 0
-0.016185 0.022268 0
-0.017489 0.014872 0
-0.018433 0.009188 0
-0.019076 0.004932 0
-0.019473 0.001853 0
-0.019678 -0.000265 0
-0.019738 -0.001606 0
-0.019696 -0.002324 0
-0.019587 -0.002549 0
-0.019440 -0.002387 0
-0.019277 -0.001928 0
-0.019115 -0.001247 0
-0.018967 -0.000410 0
-0.018842 0.000524 0
-0.018745 0.001505 0
-0.018678 0.002483 0
-0.018638 0.003408 0
-0.018617 0.004225 0
-0.018601 0.004870 0
-0.018576 0.005267 0
-0.018522 0.005325 0
-0.018418 0.004937 0
-0.018236 0.003977 0
-0.017945 0.002291 0
-0.017510 -0.000301 0
-0.016893 -0.004010 0
-0.016063 -0.009076 0
-0.014989 -0.015771 0
-0.013649 -0.024393 0
-0.012028 -0.035258 0
-0.010120 -0.048656 0
-0.007916 -0.064561 0
-0.005385 -0.080802 0
-0.002506 -0.082670 0
0.000000 -0.038419 0
0.000000 0.039193 0
-0.002230 0.082071 0
-0.005344 0.077430 0
-0.008219 0.060893 0
-0.010646 0.045872 0
-0.012621 0.033570 0
-0.014183 0.023716 0
-0.015377 0.015953 0
-0.016252 0.009958 0
-0.016858 0.005443 0
-0.017242 0.002154 0
-0.017449 -0.000126 0
-0.017520 -0.001588 0
-0.017493 -0.002391 0
-0.017397 -0.002670 0
-0.017261 -0.002537 0
-0.017103 -0.002089 0
-0.016939 -0.001404 0
-0.016782 -0.000554 0
-0.016640 0.000402 0
-0.016517 0.001407 0
-0.016416 0.002409 0
-0.016332 0.003352 0
-0.016260 0.004178 0
-0.016190 0.004819 0
-0.016108 0.005196 0
-0.015999 0.005215 0
-0.015843 0.004766 0
-0.015619 0.003718 0
-0.015301 0.001916 0
-0.014863 -0.000824 0
-0.014278 -0.004710 0
-0.013521 -0.009981 0
-0.012572 -0.016901 0
-0.011414 -0.025764 0
-0.010039 -0.036878 0
-0.008443 -0.050530 0
-0.006619 -0.066711 0
-0.004531 -0.083262 0
-0.002132 -0.085137 0
0.000000 -0.039573 0
0.000000 0.040212 0
-0.001876 0.084532 0
-0.004551 0.080213 0
-0.007051 0.063372 0
-0.009182 0.047941 0
-0.010932 0.035241 0
-0.012327 0.025024 0
-0.013403 0.016941 0
-0.014200 0.010670 0
-0.014759 0.005922 0
-0.015118 0.002444 0
-0.015317 0.000014 0
-0.015390 -0.001562 0
-0.015369 -0.002447 0
-0.015282 -0.002781 0
-0.015151 -0.002682 0
-0.014995 -0.002249 0
-0.014830 -0.001567 0
-0.014664 -0.000710 0
-0.014507 0.000259 0
-0.014362 0.001281 0
-0.014231 0.002298 0
-0.014112 0.003253 0
-0.013999 0.004083 0
-0.013885 0.004718 0
-0.013758 0.005075 0
-0.013607 0.005060 0
-0.013415 0.004557 0
-0.013166 0.003435 0
-0.012839 0.001535 0
-0.012415 -0.001324 0
-0.011875 -0.005352 0
-0.011202 -0.010782 0
-0.010380 -0.017878 0
-0.009399 -0.026925 0
-0.008254 -0.038229 0
-0.006943 -0.052076 0
-0.005457 -0.068474 0
-0.003760 -0.085289 0
-0.001789 -0.087201 0
0.000000 -0.040551 0
0.000000 0.041069 0
-0.001569 0.086621 0
-0.003845 0.082605 0
-0.005996 0.065524 0
-0.007843 0.049753 0
-0.009371 0.036715 0
-0.010598 0.026187 0
-0.011551 0.017827 0
-0.012262 0.011313 0
-0.012763 0.006360 0
-0.013087 0.002712 0
-0.013267 0.000145 0
-0.013333 -0.001536 0
-0.013311 -0.002499 0
-0.013226 -0.002888 0
-0.013097 -0.002823 0
-0.012942 -0.002410 0
-0.012773 -0.001736 0
-0.012600 -0.000876 0
-0.012429 0.000100 0
-0.012266 0.001131 0
-0.012111 0.002158 0
-0.011963 0.003120 0
-0.011818 0.003951 0
-0.011669 0.004578 0
-0.011509 0.004918 0
-0.011328 0.004872 0
-0.011114 0.004325 0
-0.010853 0.003142 0
-0.010532 0.001165 0
-0.010135 -0.001788 0
-0.009651 -0.005924 0
-0.009066 -0.011476 0
-0.008371 -0.018704 0
-0.007561 -0.027889 0
-0.006630 -0.039334 0
-0.005578 -0.053327 0
-0.004396 -0.069893 0
-0.003047 -0.086930 0
-0.001462 -0.088897 0
0.000000 -0.041363 0
0.000000 0.041782 0
-0.001288 0.088377 0
-0.003202 0.084639 0
-0.005027 0.067369 0
-0.006605 0.051316 0
-0.007917 0.037995 0
-0.008976 0.027204 0
-0.009801 0.018604 0
-0.010418 0.011881 0
-0.010854 0.006748 0
-0.011134 0.002949 0
-0.011287 0.000259 0
-0.011337 -0.001518 0
-0.011308 -0.002554 0
-0.011219 -0.002995 0
-0.011089 -0.002966 0
-0.010931 -0.002574 0
-0.010758 -0.001910 0
-0.010577 -0.001053 0
-0.010396 -0.000074 0
-0.010217 0.000962 0
-0.010043 0.001995 0
-0.009872 0.002960 0
-0.009702 0.003789 0
-0.009528 0.004410 0
-0.009345 0.004734 0
-0.009145 0.004664 0
-0.008919 0.004082 0
-0.008659 0.002853 0
-0.008353 0.000818 0
-0.007994 -0.002205 0
-0.007572 -0.006421 0
-0.007080 -0.012061 0
-0.006512 -0.019383 0
-0.005864 -0.028667 0
-0.005135 -0.040212 0
-0.004322 -0.054311 0
-0.003418 -0.071004 0
-0.002386 -0.088223 0
-0.001154 -0.090248 0
0.000000 -0.042013 0
0.000000 0.042358 0
-0.001020 0.089823 0
-0.002599 0.086344 0
-0.004122 0.068927 0
-0.005445 0.052643 0
-0.006548 0.039086 0
-0.007440 0.028072 0
-0.008136 0.019269 0
-0.008654 0.012366 0
-0.009016 0.007076 0
-0.009246 0.003146 0
-0.009364 0.000348 0
-0.009391 -0.001515 0
-0.009348 -0.002617 0
-0.009251 -0.003106 0
-0.009115 -0.003111 0
-0.008953 -0.002741 0
-0.008775 -0.002090 0
-0.008587 -0.001239 0
-0.008396 -0.000260 0
-0.008205 0.000778 0
-0.008015 0.001813 0
-0.007827 0.002779 0
-0.007639 0.003607 0
-0.007448 0.004221 0
-0.007250 0.004535 0
-0.007040 0.004446 0
-0.006812 0.003839 0
-0.006561 0.002577 0
-0.006281 0.000501 0
-0.005966 -0.002569 0
-0.005612 -0.006838 0
-0.005214 -0.012536 0
-0.004771 -0.019919 0
-0.004281 -0.029266 0
-0.003744 -0.040877 0
-0.003157 -0.055045 0
-0.002515 -0.071829 0
-0.001781 -0.089194 0
-0.000879 -0.091283 0
0.000000 -0.042517 0
0.000000 0.042802 0
-0.000765 0.090977 0
-0.002029 0.087741 0
-0.003267 0.070215 0
-0.004347 0.053742 0
-0.005247 0.039991 0
-0.005974 0.028791 0
-0.006536 0.019818 0
-0.006951 0.012762 0
-0.007235 0.007339 0
-0.007406 0.003296 0
-0.007483 0.000405 0
-0.007482 -0.001534 0
-0.007420 -0.002694 0
-0.007311 -0.003227 0
-0.007167 -0.003263 0
-0.006999 -0.002914 0
-0.006814 -0.002276 0
-0.006621 -0.001432 0
-0.006422 -0.000456 0
-0.006221 0.000582 0
-0.006021 0.001617 0
-0.005820 0.002583 0
-0.005620 0.003410 0
-0.005418 0.004020 0
-0.005211 0.004326 0
-0.004999 0.004226 0
-0.004777 0.003604 0
-0.004543 0.002322 0
-0.004294 0.000222 0
-0.004028 -0.002874 0
-0.003745 -0.007173 0
-0.003443 -0.012902 0
-0.003123 -0.020316 0
-0.002786 -0.029694 0
-0.002433 -0.041336 0
-0.002064 -0.055540 0
-0.001672 -0.072380 0
-0.001224 -0.089858 0
-0.000635 -0.092030 0
0.000000 -0.042892 0
0.000000 0.043122 0
-0.000521 0.091852 0
-0.001486 0.088846 0
-0.002452 0.071245 0
-0.003296 0.054623 0
-0.003998 0.040713 0
-0.004558 0.029360 0
-0.004986 0.020247 0
-0.005294 0.013065 0
-0.005494 0.007532 0
-0.005602 0.003394 0
-0.005633 0.000424 0
-0.005599 -0.001578 0
-0.005514 -0.002788 0
-0.005389 -0.003360 0
-0.005235 -0.003424 0
-0.005060 -0.003094 0
-0.004870 -0.002468 0
-0.004670 -0.001631 0
-0.004466 -0.000660 0
-0.004258 0.000377 0
-0.004050 0.001412 0
-0.003842 0.002378 0
-0.003633 0.003204 0
-0.003425 0.003813 0
-0.003217 0.004116 0
-0.003007 0.004011 0
-0.002796 0.003383 0
-0.002584 0.002093 0
-0.002371 -0.000014 0
-0.002158 -0.003118 0
-0.001947 -0.007423 0
-0.001741 -0.013158 0
-0.001543 -0.020576 0
-0.001355 -0.029956 0
-0.001180 -0.041599 0
-0.001021 -0.055806 0
-0.000871 -0.072668 0
-0.000700 -0.090231 0
-0.000411 -0.092508 0
0.000000 -0.043152 0
0.000000 0.043324 0
-0.000289 0.092463 0
-0.000964 0.089671 0
-0.001665 0.072025 0
-0.002278 0.055288 0
-0.002782 0.041253 0
-0.003177 0.029779 0
-0.003468 0.020554 0
-0.003664 0.013270 0
-0.003778 0.007648 0
-0.003819 0.003434 0
-0.003799 0.000401 0
-0.003729 -0.001652 0
-0.003618 -0.002903 0
-0.003476 -0.003506 0
-0.003311 -0.003593 0
-0.003128 -0.003280 0
-0.002933 -0.002665 0
-0.002729 -0.001836 0
-0.002520 -0.000868 0
-0.002309 0.000166 0
-0.002095 0.001200 0
-0.001882 0.002167 0
-0.001671 0.002994 0
-0.001461 0.003604 0
-0.001254 0.003908 0
-0.001052 0.003806 0
-0.000856 0.003180 0
-0.000669 0.001896 0
-0.000495 -0.000204 0
-0.000336 -0.003298 0
-0.000199 -0.007589 0
-0.000088 -0.013306 0
-0.000008 -0.020702 0
0.000034 -0.030057 0
0.000035 -0.041671 0
-0.000009 -0.055850 0
-0.000094 -0.072701 0
-0.000193 -0.090318 0
-0.000201 -0.092729 0
0.000000 -0.043304 0
0.000000 0.043411 0
-0.000066 0.092816 0
-0.000454 0.090223 0
-0.000894 0.072559 0
-0.001278 0.055740 0
-0.001584 0.041611 0
-0.001811 0.030046 0
-0.001962 0.020735 0
-0.002046 0.013375 0
-0.002069 0.007686 0
-0.002040 0.003415 0
-0.001967 0.000334 0
-0.001859 -0.001759 0
-0.001721 -0.003041 0
-0.001562 -0.003667 0
-0.001385 -0.003772 0
-0.001195 -0.003472 0
-0.000995 -0.002867 0
-0.000789 -0.002044 0
-0.000578 -0.001080 0
-0.000365 -0.000048 0
-0.000150 0.000986 0
0.000065 0.001953 0
0.000277 0.002783 0
0.000486 0.003396 0
0.000688 0.003707 0
0.000880 0.003613 0
0.001058 0.003000 0
0.001218 0.001732 0
0.001353 -0.000347 0
0.001456 -0.003414 0
0.001521 -0.007672 0
0.001538 -0.013348 0
0.001500 -0.020698 0
0.001399 -0.030000 0
0.001229 -0.041556 0
0.000985 -0.055677 0
0.000669 -0.072484 0
0.000307 -0.090123 0
0.000005 -0.092701 0
0.000000 -0.043353 0
0.000000 0.043390 0
0.000148 0.092917 0
0.000056 0.090500 0
-0.000121 0.072849 0
-0.000276 0.055978 0
-0.000383 0.041785 0
-0.000440 0.030158 0
-0.000450 0.020789 0
-0.000418 0.013376 0
-0.000349 0.007642 0
-0.000249 0.003333 0
-0.000123 0.000220 0
0.000024 -0.001898 0
0.000188 -0.003200 0
0.000365 -0.003842 0
0.000553 -0.003960 0
0.000748 -0.003669 0
0.000950 -0.003071 0
0.001157 -0.002253 0
0.001367 -0.001293 0
0.001580 -0.000262 0
0.001794 0.000771 0
0.002008 0.001740 0
0.002219 0.002573 0
0.002424 0.003193 0
0.002620 0.003514 0
0.002801 0.003435 0
0.002961 0.002842 0
0.003093 0.001601 0
0.003189 -0.000442 0
0.003238 -0.003466 0
0.003231 -0.007671 0
0.003156 -0.013285 0
0.003002 -0.020563 0
0.002759 -0.029785 0
0.002419 -0.041257 0
0.001975 -0.055290 0
0.001429 -0.072023 0
0.000806 -0.089654 0
0.000218 -0.092423 0
0.000000 -0.043299 0
0.000000 0.043263 0
0.000364 0.092761 0
0.000574 0.090492 0
0.000667 0.072891 0
0.000745 0.056002 0
0.000840 0.041775 0
0.000954 0.030113 0
0.001087 0.020713 0
0.001237 0.013274 0
0.001399 0.007517 0
0.001571 0.003188 0
0.001751 0.000060 0
0.001936 -0.002070 0
0.002125 -0.003382 0
0.002318 -0.004031 0
0.002513 -0.004155 0
0.002711 -0.003869 0
0.002913 -0.003275 0
0.003117 -0.002461 0
0.003324 -0.001504 0
0.003534 -0.000475 0
0.003745 0.000558 0
0.003956 0.001529 0
0.004163 0.002367 0
0.004364 0.002996 0
0.004552 0.003330 0
0.004721 0.003272 0
0.004864 0.002707 0
0.004970 0.001504 0
0.005028 -0.000492 0
0.005026 -0.003456 0
0.004949 -0.007589 0
0.004784 -0.013120 0
0.004517 -0.020301 0
0.004135 -0.029416 0
0.003625 -0.040772 0