# vtk DataFile Version 2.0
generated by CFD-lab course output (written by Tobias Neckel) 
ASCII

DATASET STRUCTURED_GRID
DIMENSIONS  41 41 1 
POINTS 1681 float

0.150000 0.150000 0
0.167857 0.150000 0
0.185714 0.150000 0
0.203571 0.150000 0
0.221429 0.150000 0
0.239286 0.150000 0
0.257143 0.150000 0
0.275000 0.150000 0
0.292857 0.150000 0
0.310714 0.150000 0
0.328571 0.150000 0
0.346429 0.150000 0
0.364286 0.150000 0
0.382143 0.150000 0
0.400000 0.150000 0
0.417857 0.150000 0
0.435714 0.150000 0
0.453571 0.150000 0
0.471429 0.150000 0
0.489286 0.150000 0
0.507143 0.150000 0
0.525000 0.150000 0
0.542857 0.150000 0
0.560714 0.150000 0
0.578571 0.150000 0
0.596429 0.150000 0
0.614286 0.150000 0
0.632143 0.150000 0
0.650000 0.150000 0
0.667857 0.150000 0
0.685714 0.150000 0
0.703571 0.150000 0
0.721429 0.150000 0
0.739286 0.150000 0
0.757143 0.150000 0
0.775000 0.150000 0
0.792857 0.150000 0
0.810714 0.150000 0
0.828571 0.150000 0
0.846429 0.150000 0
0.864286 0.150000 0
0.150000 0.167857 0
0.167857 0.167857 0
0.185714 0.167857 0
0.203571 0.167857 0
0.221429 0.167857 0
0.239286 0.167857 0
0.257143 0.167857 0
0.275000 0.167857 0
0.292857 0.167857 0
0.310714 0.167857 0
0.328571 0.167857 0
0.346429 0.167857 0
0.364286 0.167857 0
0.382143 0.167857 0
0.400000 0.167857 0
0.417857 0.167857 0
0.435714 0.167857 0
0.453571 0.167857 0
0.471429 0.167857 0
0.489286 0.167857 0
0.507143 0.167857 0
0.525000 0.167857 0
0.542857 0.167857 0
0.560714 0.167857 0
0.578571 0.167857 0
0.596429 0.167857 0
0.614286 0.167857 0
0.632143 0.167857 0
0.650000 0.167857 0
0.667857 0.167857 0
0.685714 0.167857 0
0.703571 0.167857 0
0.721429 0.167857 0
0.739286 0.167857 0
0.757143 0.167857 0
0.775000 0.167857 0
0.792857 0.167857 0
0.810714 0.167857 0
0.828571 0.167857 0
0.846429 0.167857 0
0.864286 0.167857 0
0.150000 0.185714 0
0.167857 0.185714 0
0.185714 0.185714 0
0.203571 0.185714 0
0.221429 0.185714 0
0.239286 0.185714 0
0.257143 0.185714 0
0.275000 0.185714 0
0.292857 0.185714 0
0.310714 0.185714 0
0.328571 0.185714 0
0.346429 0.185714 0
0.364286 0.185714 0
0.382143 0.185714 0
0.400000 0.185714 0
0.417857 0.185714 0
0.435714 0.185714 0
0.453571 0.185714 0
0.471429 0.185714 0
0.489286 0.185714 0
0.507143 0.185714 0
0.525000 0.185714 0
0.542857 0.185714 0
0.560714 0.185714 0
0.578571 0.185714 0
0.596429 0.185714 0
0.614286 0.185714 0
0.632143 0.185714 0
0.650000 0.185714 0
0.667857 0.185714 0
0.685714 0.185714 0
0.703571 0.185714 0
0.721429 0.185714 0
0.739286 0.185714 0
0.757143 0.185714 0
0.775000 0.185714 0
0.792857 0.185714 0
0.810714 0.185714 0
0.828571 0.185714 0
0.846429 0.185714 0
0.864286 0.185714 0
0.150000 0.203571 0
0.167857 0.203571 0
0.185714 0.203571 0
0.203571 0.203571 0
0.221429 0.203571 0
0.239286 0.203571 0
0.257143 0.203571 0
0.275000 0.203571 0
0.292857 0.203571 0
0.310714 0.203571 0
0.328571 0.203571 0
0.346429 0.203571 0
0.364286 0.203571 0
0.382143 0.203571 0
0.400000 0.203571 0
0.417857 0.203571 0
0.435714 0.203571 0
0.453571 0.203571 0
0.471429 0.203571 0
0.489286 0.203571 0
0.507143 0.203571 0
0.525000 0.203571 0
0.542857 0.203571 0
0.560714 0.203571 0
0.578571 0.203571 0
0.596429 0.203571 0
0.614286 0.203571 0
0.632143 0.203571 0
0.650000 0.203571 0
0.667857 0.203571 0
0.685714 0.203571 0
0.703571 0.203571 0
0.721429 0.203571 0
0.739286 0.203571 0
0.757143 0.203571 0
0.775000 0.203571 0
0.792857 0.203571 0
0.810714 0.203571 0
0.828571 0.203571 0
0.846429 0.203571 0
0.864286 0.203571 0
0.150000 0.221429 0
0.167857 0.221429 0
0.185714 0.221429 0
0.203571 0.221429 0
0.221429 0.221429 0
0.239286 0.221429 0
0.257143 0.221429 0
0.275000 0.221429 0
0.292857 0.221429 0
0.310714 0.221429 0
0.328571 0.221429 0
0.346429 0.221429 0
0.364286 0.221429 0
0.382143 0.221429 0
0.400000 0.221429 0
0.417857 0.221429 0
0.435714 0.221429 0
0.453571 0.221429 0
0.471429 0.221429 0
0.489286 0.221429 0
0.507143 0.221429 0
0.525000 0.221429 0
0.542857 0.221429 0
0.560714 0.221429 0
0.578571 0.221429 0
0.596429 0.221429 0
0.614286 0.221429 0
0.632143 0.221429 0
0.650000 0.221429 0
0.667857 0.221429 0
0.685714 0.221429 0
0.703571 0.221429 0
0.721429 0.221429 0
0.739286 0.221429 0
0.757143 0.221429 0
0.775000 0.221429 0
0.792857 0.221429 0
0.810714 0.221429 0
0.828571 0.221429 0
0.846429 0.221429 0
0.864286 0.221429 0
0.150000 0.239286 0
0.167857 0.239286 0
0.185714 0.239286 0
0.203571 0.239286 0
0.221429 0.239286 0
0.239286 0.239286 0
0.257143 0.239286 0
0.275000 0.239286 0
0.292857 0.239286 0
0.310714 0.239286 0
0.328571 0.239286 0
0.346429 0.239286 0
0.364286 0.239286 0
0.382143 0.239286 0
0.400000 0.239286 0
0.417857 0.239286 0
0.435714 0.239286 0
0.453571 0.239286 0
0.471429 0.239286 0
0.489286 0.239286 0
0.507143 0.239286 0
0.525000 0.239286 0
0.542857 0.239286 0
0.560714 0.239286 0
0.578571 0.239286 0
0.596429 0.239286 0
0.614286 0.239286 0
0.632143 0.239286 0
0.650000 0.239286 0
0.667857 0.239286 0
0.685714 0.239286 0
0.703571 0.239286 0
0.721429 0.239286 0
0.739286 0.239286 0
0.757143 0.239286 0
0.775000 0.239286 0
0.792857 0.239286 0
0.810714 0.239286 0
0.828571 0.239286 0
0.846429 0.239286 0
0.864286 0.239286 0
0.150000 0.257143 0
0.167857 0.257143 0
0.185714 0.257143 0
0.203571 0.257143 0
0.221429 0.257143 0
0.239286 0.257143 0
0.257143 0.257143 0
0.275000 0.257143 0
0.292857 0.257143 0
0.310714 0.257143 0
0.328571 0.257143 0
0.346429 0.257143 0
0.364286 0.257143 0
0.382143 0.257143 0
0.400000 0.257143 0
0.417857 0.257143 0
0.435714 0.257143 0
0.453571 0.257143 0
0.471429 0.257143 0
0.489286 0.257143 0
0.507143 0.257143 0
0.525000 0.257143 0
0.542857 0.257143 0
0.560714 0.257143 0
0.578571 0.257143 0
0.596429 0.257143 0
0.614286 0.257143 0
0.632143 0.257143 0
0.650000 0.257143 0
0.667857 0.257143 0
0.685714 0.257143 0
0.703571 0.257143 0
0.721429 0.257143 0
0.739286 0.257143 0
0.757143 0.257143 0
0.775000 0.257143 0
0.792857 0.257143 0
0.810714 0.257143 0
0.828571 0.257143 0
0.846429 0.257143 0
0.864286 0.257143 0
0.150000 0.275000 0
0.167857 0.275000 0
0.185714 0.275000 0
0.203571 0.275000 0
0.221429 0.275000 0
0.239286 0.275000 0
0.257143 0.275000 0
0.275000 0.275000 0
0.292857 0.275000 0
0.310714 0.275000 0
0.328571 0.275000 0
0.346429 0.275000 0
0.364286 0.275000 0
0.382143 0.275000 0
0.400000 0.275000 0
0.417857 0.275000 0
0.435714 0.275000 0
0.453571 0.275000 0
0.471429 0.275000 0
0.489286 0.275000 0
0.507143 0.275000 0
0.525000 0.275000 0
0.542857 0.275000 0
0.560714 0.275000 0
0.578571 0.275000 0
0.596429 0.275000 0
0.614286 0.275000 0
0.632143 0.275000 0
0.650000 0.275000 0
0.667857 0.275000 0
0.685714 0.275000 0
0.703571 0.275000 0
0.721429 0.275000 0
0.739286 0.275000 0
0.757143 0.275000 0
0.775000 0.275000 0
0.792857 0.275000 0
0.810714 0.275000 0
0.828571 0.275000 0
0.846429 0.275000 0
0.864286 0.275000 0
0.150000 0.292857 0
0.167857 0.292857 0
0.185714 0.292857 0
0.203571 0.292857 0
0.221429 0.292857 0
0.239286 0.292857 0
0.257143 0.292857 0
0.275000 0.292857 0
0.292857 0.292857 0
0.310714 0.292857 0
0.328571 0.292857 0
0.346429 0.292857 0
0.364286 0.292857 0
0.382143 0.292857 0
0.400000 0.292857 0
0.417857 0.292857 0
0.435714 0.292857 0
0.453571 0.292857 0
0.471429 0.292857 0
0.489286 0.292857 0
0.507143 0.292857 0
0.525000 0.292857 0
0.542857 0.292857 0
0.560714 0.292857 0
0.578571 0.292857 0
0.596429 0.292857 0
0.614286 0.292857 0
0.632143 0.292857 0
0.650000 0.292857 0
0.667857 0.292857 0
0.685714 0.292857 0
0.703571 0.292857 0
0.721429 0.292857 0
0.739286 0.292857 0
0.757143 0.292857 0
0.775000 0.292857 0
0.792857 0.292857 0
0.810714 0.292857 0
0.828571 0.292857 0
0.846429 0.292857 0
0.864286 0.292857 0
0.150000 0.310714 0
0.167857 0.310714 0
0.185714 0.310714 0
0.203571 0.310714 0
0.221429 0.310714 0
0.239286 0.310714 0
0.257143 0.310714 0
0.275000 0.310714 0
0.292857 0.310714 0
0.310714 0.310714 0
0.328571 0.310714 0
0.346429 0.310714 0
0.364286 0.310714 0
0.382143 0.310714 0
0.400000 0.310714 0
0.417857 0.310714 0
0.435714 0.310714 0
0.453571 0.310714 0
0.471429 0.310714 0
0.489286 0.310714 0
0.507143 0.310714 0
0.525000 0.310714 0
0.542857 0.310714 0
0.560714 0.310714 0
0.578571 0.310714 0
0.596429 0.310714 0
0.614286 0.310714 0
0.632143 0.310714 0
0.650000 0.310714 0
0.667857 0.310714 0
0.685714 0.310714 0
0.703571 0.310714 0
0.721429 0.310714 0
0.739286 0.310714 0
0.757143 0.310714 0
0.775000 0.310714 0
0.792857 0.310714 0
0.810714 0.310714 0
0.828571 0.310714 0
0.846429 0.310714 0
0.864286 0.310714 0
0.150000 0.328571 0
0.167857 0.328571 0
0.185714 0.328571 0
0.203571 0.328571 0
0.221429 0.328571 0
0.239286 0.328571 0
0.257143 0.328571 0
0.275000 0.328571 0
0.292857 0.328571 0
0.310714 0.328571 0
0.328571 0.328571 0
0.346429 0.328571 0
0.364286 0.328571 0
0.382143 0.328571 0
0.400000 0.328571 0
0.417857 0.328571 0
0.435714 0.328571 0
0.453571 0.328571 0
0.471429 0.328571 0
0.489286 0.328571 0
0.507143 0.328571 0
0.525000 0.328571 0
0.542857 0.328571 0
0.560714 0.328571 0
0.578571 0.328571 0
0.596429 0.328571 0
0.614286 0.328571 0
0.632143 0.328571 0
0.650000 0.328571 0
0.667857 0.328571 0
0.685714 0.328571 0
0.703571 0.328571 0
0.721429 0.328571 0
0.739286 0.328571 0
0.757143 0.328571 0
0.775000 0.328571 0
0.792857 0.328571 0
0.810714 0.328571 0
0.828571 0.328571 0
0.846429 0.328571 0
0.864286 0.328571 0
0.150000 0.346429 0
0.167857 0.346429 0
0.185714 0.346429 0
0.203571 0.346429 0
0.221429 0.346429 0
0.239286 0.346429 0
0.257143 0.346429 0
0.275000 0.346429 0
0.292857 0.346429 0
0.310714 0.346429 0
0.328571 0.346429 0
0.346429 0.346429 0
0.364286 0.346429 0
0.382143 0.346429 0
0.400000 0.346429 0
0.417857 0.346429 0
0.435714 0.346429 0
0.453571 0.346429 0
0.471429 0.346429 0
0.489286 0.346429 0
0.507143 0.346429 0
0.525000 0.346429 0
0.542857 0.346429 0
0.560714 0.346429 0
0.578571 0.346429 0
0.596429 0.346429 0
0.614286 0.346429 0
0.632143 0.346429 0
0.650000 0.346429 0
0.667857 0.346429 0
0.685714 0.346429 0
0.703571 0.346429 0
0.721429 0.346429 0
0.739286 0.346429 0
0.757143 0.346429 0
0.775000 0.346429 0
0.792857 0.346429 0
0.810714 0.346429 0
0.828571 0.346429 0
0.846429 0.346429 0
[...]
POINT_DATA 1681 

VECTORS velocity float
0.000000 0.000000 0
0.004765 0.000000 0
0.010987 0.000000 0
0.013772 0.000000 0
0.014556 0.000000 0
0.013501 0.000000 0
0.011958 0.000000 0
0.016929 0.000000 0
0.018974 0.000000 0
0.009371 0.000000 0
-0.006430 0.000000 0
-0.024093 0.000000 0
-0.042272 0.000000 0
-0.059973 0.000000 0
-0.076555 0.000000 0
-0.091629 0.000000 0
-0.105066 0.000000 0
-0.116734 0.000000 0
-0.126594 0.000000 0
-0.134636 0.000000 0
-0.140866 0.000000 0
-0.145291 0.000000 0
-0.147905 0.000000 0
-0.148729 0.000000 0
-0.147653 0.000000 0
-0.144498 0.000000 0
-0.139179 0.000000 0
-0.131589 0.000000 0
-0.121636 0.000000 0
-0.109238 0.000000 0
-0.094442 0.000000 0
-0.077279 0.000000 0
-0.057958 0.000000 0
-0.036906 0.000000 0
-0.014900 0.000000 0
0.006704 0.000000 0
0.022574 0.000000 0
0.027108 0.000000 0
0.020416 0.000000 0
0.009407 0.000000 0
0.000000 0.000000 0
0.000000 -0.004765 0
0.013301 -0.010987 0
0.026134 -0.009006 0
0.031417 -0.003570 0
0.033175 0.000270 0
0.031161 0.002599 0
0.020554 -0.003428 0
0.002920 -0.007016 0
-0.019490 0.007558 0
-0.048551 0.025405 0
-0.082762 0.033464 0
-0.118688 0.035842 0
-0.154196 0.035881 0
-0.187802 0.034283 0
-0.218568 0.031655 0
-0.245965 0.028511 0
-0.269769 0.025105 0
-0.289877 0.021528 0
-0.306288 0.017902 0
-0.319043 0.014271 0
-0.328197 0.010655 0
-0.333791 0.007040 0
-0.335836 0.003438 0
-0.334304 -0.000252 0
-0.329087 -0.004231 0
-0.320083 -0.008475 0
-0.307116 -0.012909 0
-0.290000 -0.017543 0
-0.268550 -0.022351 0
-0.242628 -0.027194 0
-0.212204 -0.031959 0
-0.177380 -0.036483 0
-0.138551 -0.040373 0
-0.096598 -0.043059 0
-0.053224 -0.043611 0
-0.011508 -0.037474 0
0.023120 -0.020404 0
0.041704 0.002158 0
0.032815 0.017700 0
0.015181 0.020416 0
0.000000 0.009407 0
0.000000 -0.013301 0
0.016008 -0.026134 0
0.025882 -0.018116 0
0.027150 -0.007041 0
0.015078 0.000256 0
-0.004292 0.012620 0
-0.032410 0.028241 0
-0.075037 0.040044 0
-0.120178 0.051471 0
-0.158236 0.063272 0
-0.192874 0.070137 0
-0.225736 0.071434 0
-0.256059 0.069114 0
-0.283337 0.064372 0
-0.307284 0.058163 0
-0.327799 0.051201 0
-0.344825 0.043912 0
-0.358472 0.036519 0
-0.368842 0.029166 0
-0.376047 0.021908 0
-0.380172 0.014747 0
-0.381266 0.007639 0
-0.379342 0.000513 0
-0.374307 -0.006749 0
-0.366164 -0.014221 0
-0.354903 -0.021971 0
-0.340369 -0.030083 0
-0.322394 -0.038565 0
-0.300805 -0.047372 0
-0.275468 -0.056346 0
-0.246250 -0.065248 0
-0.213243 -0.073654 0
-0.176766 -0.080782 0
-0.137592 -0.085327 0
-0.097236 -0.085090 0
-0.058348 -0.076343 0
-0.022148 -0.053213 0
0.007144 -0.009696 0
0.016163 0.026523 0
0.007322 0.032815 0
0.000000 0.015181 0
0.000000 -0.020774 0
0.008618 -0.036869 0
0.004387 -0.020148 0
-0.012590 0.007234 0
-0.040549 0.031712 0
-0.076780 0.050087 0
-0.114210 0.067317 0
-0.152062 0.080751 0
-0.189852 0.090757 0
-0.223641 0.098101 0
-0.252736 0.100965 0
-0.278279 0.099027 0
-0.300579 0.093481 0
-0.319848 0.085508 0
-0.336263 0.076117 0
-0.349982 0.066053 0
-0.361120 0.055778 0
-0.369813 0.045545 0
-0.376161 0.035478 0
-0.380237 0.025601 0
-0.382072 0.015874 0
-0.381663 0.006209 0
-0.378971 -0.003521 0
-0.373924 -0.013430 0
-0.366470 -0.023635 0
-0.356460 -0.034270 0
-0.343764 -0.045419 0
-0.328224 -0.057107 0
-0.309683 -0.069276 0
-0.287999 -0.081749 0
-0.263055 -0.094185 0
-0.234865 -0.105967 0
-0.203604 -0.116023 0
-0.169717 -0.122589 0
-0.134026 -0.122855 0
-0.097772 -0.112562 0
-0.062383 -0.085895 0
-0.028879 -0.036153 0
0.001441 0.017523 0
0.000217 0.036579 0
0.000000 0.016729 0
0.000000 -0.021919 0
-0.009485 -0.030522 0
-0.033967 0.003092 0
-0.064781 0.037896 0
-0.096040 0.064445 0
-0.130753 0.086281 0
-0.165601 0.103524 0
-0.198718 0.115686 0
-0.229644 0.123049 0
-0.256709 0.126156 0
-0.279406 0.124775 0
-0.298446 0.119277 0
-0.314447 0.110684 0
-0.327916 0.100056 0
-0.339217 0.088297 0
-0.348590 0.076058 0
-0.356176 0.063743 0
-0.362067 0.051560 0
-0.366306 0.039590 0
-0.368901 0.027819 0
-0.369830 0.016173 0
-0.369047 0.004538 0
-0.366492 -0.007226 0
-0.362107 -0.019250 0
-0.355787 -0.031685 0
-0.347420 -0.044677 0
-0.336884 -0.058319 0
-0.324047 -0.072646 0
-0.308774 -0.087596 0
-0.290938 -0.102974 0
-0.270426 -0.118382 0
-0.247177 -0.133105 0
-0.221198 -0.145930 0
-0.192574 -0.154905 0
-0.161473 -0.157035 0
-0.128096 -0.147986 0
-0.092554 -0.122106 0
-0.054854 -0.073520 0
-0.015325 -0.002573 0
-0.002486 0.034256 0
0.000000 0.015398 0
0.000000 -0.011289 0
-0.029742 -0.002902 0
-0.064648 0.035149 0
-0.097091 0.069306 0
-0.130229 0.097684 0
-0.163025 0.119649 0
-0.194088 0.135282 0
-0.222296 0.144794 0
-0.247246 0.148747 0
-0.268363 0.147863 0
-0.285668 0.142701 0
-0.299777 0.134068 0
-0.311333 0.122952 0
-0.320873 0.110278 0
-0.328771 0.096791 0
-0.335259 0.083012 0
-0.340462 0.069255 0
-0.344446 0.055675 0
-0.347230 0.042312 0
-0.348807 0.029125 0
-0.349146 0.016021 0
-0.348199 0.002872 0
-0.345911 -0.010461 0
-0.342231 -0.024135 0
-0.337057 -0.038322 0
-0.330294 -0.053173 0
-0.321838 -0.068792 0
-0.311577 -0.085216 0
-0.299400 -0.102385 0
-0.285195 -0.120098 0
-0.268847 -0.137946 0
-0.250241 -0.155194 0
-0.229241 -0.170627 0
-0.205655 -0.182314 0
-0.179172 -0.187333 0
-0.149301 -0.181482 0
-0.115367 -0.159138 0
-0.076810 -0.113382 0
-0.034341 -0.034845 0
0.004775 0.021254 0
0.000000 0.014243 0
0.000000 0.007823 0
-0.039842 0.034127 0
-0.078014 0.070441 0
-0.113797 0.103477 0
-0.147257 0.130379 0
-0.178012 0.150140 0
-0.205535 0.162795 0
-0.229413 0.168844 0
-0.249582 0.169116 0
-0.266084 0.164579 0
-0.279280 0.156189 0
-0.289773 0.144942 0
-0.298150 0.131780 0
-0.304889 0.117494 0
-0.310327 0.102682 0
-0.314679 0.087749 0
-0.318072 0.072930 0
-0.320577 0.058329 0
-0.322224 0.043952 0
-0.323014 0.029735 0
-0.322926 0.015565 0
-0.321921 0.001303 0
-0.319943 -0.013194 0
-0.316953 -0.028105 0
-0.312852 -0.043621 0
-0.307555 -0.059896 0
-0.300970 -0.077037 0
-0.293004 -0.095083 0
-0.283562 -0.113978 0
-0.272543 -0.133528 0
-0.259834 -0.153336 0
-0.245291 -0.172710 0
-0.228700 -0.190515 0
-0.209709 -0.204974 0
-0.187730 -0.213389 0
-0.161858 -0.211791 0
-0.130874 -0.194597 0
-0.093544 -0.154547 0
-0.049273 -0.084158 0
0.002912 -0.000084 0
0.000000 0.020173 0
0.000000 0.028553 0
-0.041534 0.075113 0
-0.082483 0.109104 0
-0.119252 0.138550 0
-0.151967 0.161899 0
-0.180558 0.177926 0
-0.204979 0.186683 0
-0.225299 0.188841 0
-0.241785 0.185418 0
-0.254826 0.177561 0
-0.264952 0.166390 0
-0.272751 0.152938 0
-0.278747 0.138068 0
-0.283363 0.122455 0
-0.286906 0.106580 0
-0.289589 0.090756 0
-0.291556 0.075153 0
-0.292894 0.059827 0
-0.293652 0.044749 0
-0.293845 0.029828 0
-0.293464 0.014928 0
-0.292478 -0.000111 0
-0.290844 -0.015429 0
-0.288494 -0.031227 0
-0.285354 -0.047720 0
-0.281343 -0.065055 0
-0.276378 -0.083343 0
-0.270374 -0.102624 0
-0.263243 -0.122846 0
-0.254890 -0.143827 0
-0.245203 -0.165198 0
-0.234031 -0.186327 0
-0.221138 -0.206209 0
-0.206125 -0.223284 0
-0.188321 -0.235184 0
-0.166663 -0.238338 0
-0.139652 -0.227451 0
-0.105626 -0.194982 0
-0.063837 -0.131302 0
-0.017762 -0.028019 0
0.000000 0.017155 0
0.000000 0.049358 0
-0.040696 0.116609 0
-0.081391 0.148159 0
-0.117331 0.172961 0
-0.148439 0.191685 0
-0.174738 0.203152 0
-0.196426 0.207536 0
-0.213850 0.205650 0
-0.227494 0.198643 0
-0.237918 0.187745 0
-0.245718 0.174114 0
-0.251453 0.158738 0
-0.255605 0.142393 0
-0.258560 0.125652 0
-0.260615 0.108908 0
-0.261989 0.092399 0
-0.262841 0.076234 0
-0.263274 0.060425 0
-0.263353 0.044903 0
-0.263105 0.029547 0
-0.262529 0.014198 0
-0.261604 -0.001317 0
-0.260295 -0.017178 0
-0.258516 -0.033594 0
-0.256211 -0.050772 0
-0.253302 -0.068872 0
-0.249710 -0.088006 0
-0.245349 -0.108218 0
-0.240132 -0.129463 0
-0.233958 -0.151568 0
-0.226712 -0.174195 0
-0.218240 -0.196775 0
-0.208316 -0.218421 0
-0.196569 -0.237791 0
-0.182383 -0.252851 0
-0.164762 -0.260460 0
-0.142237 -0.255633 0
-0.113058 -0.230362 0
-0.076216 -0.172022 0
-0.034425 -0.063922 0
0.000000 0.002411 0
0.000000 0.069249 0
-0.038240 0.156503 0
-0.076927 0.185739 0
-0.110842 0.205598 0
-0.139738 0.219306 0
-0.163647 0.225914 0
-0.182870 0.225795 0
-0.197885 0.219909 0
-0.209278 0.209487 0
-0.217671 0.195784 0
-0.223662 0.179925 0
-0.227785 0.162825 0
-0.230489 0.145175 0
-0.232141 0.127465 0
-0.233034 0.110010 0
-0.233394 0.092982 0
-0.233386 0.076438 0
-0.233126 0.060340 0
-0.232689 0.044580 0
-0.232111 0.029004 0
-0.231400 0.013427 0
-0.230540 -0.002345 0
-0.229494 -0.018517 0
-0.228201 -0.035310 0
-0.226598 -0.052934 0
-0.224612 -0.071556 0
-0.222163 -0.091295 0
-0.219163 -0.112202 0
-0.215515 -0.134238 0
-0.211111 -0.157247 0
-0.205822 -0.180915 0
-0.199488 -0.204724 0
-0.191892 -0.227881 0
-0.182712 -0.249216 0
-0.171434 -0.266990 0
-0.157215 -0.278484 0
-0.138712 -0.279155 0
-0.114044 -0.261003 0
-0.081289 -0.209934 0
-0.040472 -0.104235 0
0.000000 -0.017270 0
0.000000 0.087598 0
-0.034791 0.193537 0
-0.070509 0.220761 0
-0.101702 0.235772 0
-0.128026 0.244490 0
-0.149501 0.246284 0
-0.166455 0.241773 0
-0.179403 0.232058 0
-0.188952 0.218429 0
-0.195718 0.202129 0
-0.200276 0.184228 0
-0.203127 0.165564 0
-0.204696 0.146749 0
-0.205337 0.128198 0
-0.205336 0.110161 0
-0.204918 0.092750 0
-0.204252 0.075967 0
-0.203460 0.059728 0
-0.202621 0.043887 0
-0.201782 0.028257 0
-0.200961 0.012627 0
-0.200148 -0.003223 0
-0.199314 -0.019517 0
-0.198408 -0.036490 0
-0.197370 -0.054361 0
-0.196131 -0.073307 0
-0.194609 -0.093455 0
-0.192713 -0.114866 0
-0.190338 -0.137515 0
-0.187364 -0.161261 0
-0.183647 -0.185818 0
-0.179014 -0.210705 0
-0.173248 -0.235197 0
-0.166061 -0.258249 0
-0.157033 -0.278348 0
-0.145483 -0.293182 0
-0.130249 -0.298805 0
-0.109415 -0.287785 0
-0.080373 -0.245594 0
-0.041448 -0.145211 0
0.000000 -0.038061 0
0.000000 0.104040 0
-0.030800 0.227013 0
-0.063061 0.252650 0
-0.091181 0.263114 0
-0.114764 0.267105 0
-0.133820 0.264343 0
-0.148664 0.255697 0
-0.159793 0.242405 0
-0.167785 0.225802 0
-0.173219 0.207108 0
-0.176628 0.187334 0
-0.178479 0.167245 0
-0.179173 0.147385 0
-0.179047 0.128105 0
-0.178375 0.109590 0
-0.177377 0.091898 0
-0.176218 0.074980 0
-0.175021 0.058709 0
-0.173872 0.042903 0
-0.172823 0.027344 0
-0.171900 0.011793 0
-0.171106 -0.003992 0
-0.170417 -0.020258 0
-0.169792 -0.037255 0
-0.169178 -0.055211 0
-0.168509 -0.074317 0
-0.167706 -0.094713 0
-0.166674 -0.116473 0
-0.165305 -0.139587 0
-0.163468 -0.163938 0
-0.161007 -0.189265 0
-0.157736 -0.215122 0
-0.153429 -0.240833 0
-0.147813 -0.265432 0
-0.140533 -0.287568 0
-0.131051 -0.305268 0
-0.118425 -0.315223 0
-0.100918 -0.310879 0
-0.075714 -0.277902 0
-0.040162 -0.184608 0
0.000000 -0.058718 0
0.000000 0.118398 0
-0.026570 0.256598 0
-0.055173 0.281142 0
-0.080095 0.287475 0
-0.100905 0.287130 0
-0.117607 0.280184 0
-0.130483 0.267746 0
-0.139987 0.251179 0
-0.146643 0.231855 0
-0.150973 0.210973 0
-0.153463 0.189488 0
-0.154541 0.168109 0
-0.154580 0.147316 0
-0.153896 0.127400 0
-0.152747 0.108491 0
-0.151339 0.090593 0
-0.149831 0.073612 0
-0.148343 0.057382 0
-0.146960 0.041688 0
-0.145741 0.026286 0
-0.144720 0.010910 0
-0.143909 -0.004706 0
-0.143294 -0.020831 0
-0.142844 -0.037729 0
-0.142513 -0.055644 0
-0.142243 -0.074779 0
-0.141958 -0.095290 0
-0.141565 -0.117267 0
-0.140953 -0.140721 0
-0.139990 -0.165559 0
-0.138513 -0.191550 0
-0.136325 -0.218283 0
-0.133196 -0.245119 0
-0.128858 -0.271144 0
-0.122991 -0.295111 0
-0.115166 -0.315289 0
-0.104667 -0.328937 0
-0.090068 -0.330497 0
-0.068687 -0.306350 0
-0.037270 -0.220924 0
0.000000 -0.078223 0
0.000000 0.130610 0
-0.022289 0.282186 0
-0.047208 0.306174 0
-0.068944 0.308846 0
-0.087038 0.304618 0
-0.101487 0.293921 0
-0.112536 0.278077 0
-0.120581 0.258565 0
-0.126080 0.236788 0
-0.129497 0.213928 0
-0.131261 0.190901 0
-0.131762 0.168363 0
-0.131338 0.146740 0
-0.130279 0.126271 0
-0.128822 0.107033 0
-0.127155 0.088983 0
-0.125426 0.071983 0
-0.123747 0.055837 0
-0.122201 0.040301 0
-0.120850 0.025104 0
-0.119734 0.009962 0
-0.118874 -0.005418 0
-0.118267 -0.021324 0
-0.117891 -0.038036 0
-0.117713 -0.055812 0
-0.117680 -0.074873 0
-0.117725 -0.095392 0
-0.117760 -0.117477 0
-0.117679 -0.141162 0
-0.117351 -0.166379 0
-0.116613 -0.192930 0
-0.115271 -0.220438 0
-0.113095 -0.248300 0
-0.109823 -0.275637 0
-0.105159 -0.301260 0
-0.098752 -0.323592 0
-0.090077 -0.340322 0
-0.078064 -0.346859 0
-0.060385 -0.330699 0
-0.033475 -0.253296 0
0.000000 -0.095988 0
0.000000 0.140687 0
-0.018059 0.303806 0
-0.039367 0.327797 0
-0.058011 0.327305 0
-0.073496 0.319672 0
-0.085816 0.305682 0
-0.095177 0.286839 0
-0.101912 0.264724 0
-0.106415 0.240771 0
-0.109081 0.216153 0
-0.110289 0.191753 0
-0.110382 0.168186 0
-0.109662 0.145834 0
-0.108388 0.124883 0
-0.106769 0.105367 0
-0.104974 0.087197 0
-0.103136 0.070203 0
-0.101355 0.054157 0
-0.099712 0.038792 0
-0.098267 0.023819 0
-0.097065 0.008935 0
-0.096133 -0.006173 0
-0.095480 -0.021814 0
-0.095094 -0.038283 0
-0.094953 -0.055855 0
-0.095016 -0.074767 0
-0.095222 -0.095210 0
-0.095497 -0.117313 0
-0.095741 -0.141131 0
-0.095832 -0.166625 0
-0.095618 -0.193629 0
-0.094913 -0.221801 0
-0.093499 -0.250568 0
-0.091129 -0.279081 0
-0.087533 -0.306181 0
-0.082416 -0.330371 0
-0.075399 -0.349626 0
-0.065738 -0.360190 0
-0.051561 -0.350939 0
-0.029240 -0.281309 0
0.000000 -0.111698 0
0.000000 0.148670 0
-0.013924 0.321553 0
-0.031740 0.346125 0
-0.047424 0.342975 0
-0.060432 0.332423 0
-0.070759 0.315602 0
-0.078567 0.294174 0
-0.084132 0.269803 0
-0.087778 0.243957 0
-0.089840 0.217803 0
-0.090639 0.192202 0
-0.090471 0.167736 0
-0.089597 0.144746 0
-0.088241 0.123377 0
-0.086583 0.103620 0
-0.084770 0.085350 0
-0.082917 0.068365 0
-0.081113 0.052414 0
-0.079431 0.037212 0
-0.077930 0.022457 0
-0.076656 0.007828 0
-0.075643 -0.007003 0
-0.074908 -0.022362 0
-0.074449 -0.038562 0
-0.074254 -0.055891 0
-0.074292 -0.074604 0
-0.074519 -0.094910 0
-0.074870 -0.116959 0
-0.075262 -0.140826 0
-0.075586 -0.166502 0
-0.075706 -0.193849 0
-0.075455 -0.222558 0
-0.074639 -0.252084 0
-0.073037 -0.281603 0
-0.070412 -0.309972 0
-0.066516 -0.335726 0
-0.061076 -0.357000 0
-0.053609 -0.370697 0
-0.042708 -0.367197 0
-0.024879 -0.304856 0
0.000000 -0.125228 0
0.000000 0.154611 0
-0.009890 0.335546 0
-0.024341 0.361297 0
-0.037208 0.355998 0
-0.047878 0.343007 0
-0.056342 0.323816 0
-0.062725 0.300213 0
-0.067246 0.273935 0
-0.070162 0.246479 0
-0.071747 0.219014 0
-0.072263 0.192384 0
-0.071957 0.167144 0
-0.071048 0.143603 0
-0.069719 0.121869 0
-0.068122 0.101897 0
-0.066380 0.083531 0
-0.064588 0.066546 0
-0.062825 0.050671 0
-0.061156 0.035609 0
-0.059636 0.021044 0
-0.058312 0.006647 0
-0.057218 -0.007922 0
-0.056383 -0.023008 0
-0.055809 -0.038937 0
-0.055492 -0.056012 0
-0.055415 -0.074502 0
-0.055547 -0.094632 0
-0.055843 -0.116570 0
-0.056236 -0.140415 0
-0.056637 -0.166181 0
-0.056931 -0.193760 0
-0.056980 -0.222868 0
-0.056622 -0.252987 0
-0.055674 -0.283308 0
-0.053942 -0.312701 0
-0.051225 -0.339706 0
-0.047325 -0.362533 0
-0.041948 -0.378557 0
-0.034108 -0.379669 0
-0.020576 -0.324017 0
0.000000 -0.136576 0
0.000000 0.158560 0
-0.005939 0.345894 0
-0.017138 0.373443 0
-0.027318 0.366512 0
-0.035776 0.351557 0
-0.042497 0.330450 0
-0.047570 0.305078 0
-0.051157 0.277240 0
-0.053453 0.248457 0
-0.054667 0.219904 0
-0.055007 0.192413 0
-0.054665 0.166520 0
-0.053814 0.142507 0
-0.052599 0.120452 0
-0.051142 0.100281 0
-0.049539 0.081815 0
-0.047869 0.064810 0
-0.046200 0.048982 0
-0.044588 0.034024 0
-0.043085 0.019612 0
-0.041735 0.005410 0
-0.040574 -0.008932 0
-0.039631 -0.023772 0
-0.038915 -0.039453 0
-0.038430 -0.056285 0
-0.038172 -0.074549 0
-0.038125 -0.094482 0
-0.038265 -0.116270 0
-0.038544 -0.140032 0
-0.038897 -0.165806 0
-0.039238 -0.193506 0
-0.039462 -0.222867 0
-0.039447 -0.253391 0
-0.039060 -0.284283 0
-0.038156 -0.314422 0
-0.036585 -0.342342 0
-0.034209 -0.366277 0
-0.030857 -0.383914 0
-0.025887 -0.388569 0
-0.016424 -0.338964 0
0.000000 -0.145804 0
0.000000 0.160550 0
-0.002077 0.352684 0
-0.010058 0.382675 0
-0.017656 0.374636 0
-0.024008 0.358187 0
-0.029087 0.335610 0
-0.032947 0.308873 0
-0.035692 0.279818 0
-0.037458 0.249990 0
-0.038391 0.220568 0
-0.038639 0.192382 0
-0.038340 0.165951 0
-0.037621 0.141538 0
-0.036588 0.119198 0
-0.035329 0.098836 0
-0.033919 0.080258 0
-0.032420 0.063207 0
-0.030888 0.047390 0
-0.029373 0.032494 0
-0.027922 0.018191 0
-0.026571 0.004136 0
-0.025353 -0.010027 0
-0.024298 -0.024666 0
-0.023424 -0.040137 0
-0.022741 -0.056755 0
-0.022256 -0.074807 0
-0.021973 -0.094539 0
-0.021886 -0.116151 0
-0.021969 -0.139782 0
-0.022184 -0.165487 0
-0.022477 -0.193196 0
-0.022781 -0.222659 0
-0.023025 -0.253388 0
-0.023128 -0.284599 0
-0.023000 -0.315177 0
-0.022548 -0.343654 0
-0.021685 -0.368262 0
-0.020320 -0.386879 0
-0.018066 -0.394101 0
-0.012452 -0.349904 0
0.000000 -0.153001 0
0.000000 0.160636 0
0.001664 0.355953 0
-0.002987 0.389023 0
-0.008085 0.380462 0
-0.012424 0.362989 0
-0.015936 0.339388 0
-0.018654 0.311683 0
-0.020630 0.281751 0
-0.021935 0.251156 0
-0.022653 0.221084 0
-0.022872 0.192362 0
-0.022677 0.165503 0
-0.022144 0.140755 0
-0.021341 0.118160 0
-0.020325 0.097612 0
-0.019148 0.078906 0
-0.017857 0.061779 0
-0.016497 0.045935 0
-0.015111 0.031057 0
-0.013749 0.016811 0
-0.012424 0.002842 0
-0.011148 -0.011205 0
-0.009975 -0.025701 0
-0.008929 -0.041011 0
-0.008027 -0.057453 0
-0.007292 -0.075316 0
-0.006741 -0.094853 0
-0.006384 -0.116274 0
-0.006222 -0.139734 0
-0.006240 -0.165299 0
-0.006423 -0.192909 0
-0.006749 -0.222319 0
-0.007197 -0.253044 0
-0.007743 -0.284308 0
-0.008358 -0.315001 0
-0.009006 -0.343657 0
-0.009650 -0.368505 0
-0.010250 -0.387534 0
-0.010599 -0.396437 0
-0.008646 -0.357030 0
0.000000 -0.158256 0
0.000000 0.158886 0
0.005332 0.355671 0
0.004143 0.392424 0
0.001539 0.384073 0
-0.000829 0.366037 0
-0.002826 0.341840 0
-0.004454 0.313566 0
-0.005711 0.283099 0
-0.006605 0.252013 0
-0.007156 0.221505 0
-0.007391 0.192405 0
-0.007339 0.165223 0
-0.007030 0.140202 0
-0.006489 0.117379 0
-0.005745 0.096643 0
-0.004828 0.077790 0
-0.003768 0.060556 0
-0.002599 0.044644 0
-0.001356 0.029746 0
-0.000074 0.015504 0
0.001208 0.001535 0
0.002526 -0.012476 0
0.003813 -0.026885 0
0.005032 -0.042085 0
0.006153 -0.058392 0
0.007144 -0.076094 0
0.007972 -0.095446 0
0.008612 -0.116670 0
0.009042 -0.139926 0
0.009244 -0.165285 0
0.009196 -0.192687 0
0.008873 -0.221886 0
0.008243 -0.252394 0
0.007271 -0.283438 0
0.005928 -0.313914 0
0.004190 -0.342362 0
0.002046 -0.367017 0
-0.000511 -0.385930 0
-0.003390 -0.395706 0
-0.004959 -0.360502 0
0.000000 -0.161646 0
0.000000 0.155305 0
0.009036 0.351809 0
0.011399 0.392815 0
0.011347 0.385434 0
0.010951 0.367354 0
0.010447 0.343013 0
0.009889 0.314567 0
0.009332 0.283902 0
0.008828 0.252601 0
0.008423 0.221870 0
0.008151 0.192545 0
0.008039 0.165142 0
0.008108 0.139905 0
0.008368 0.116876 0
0.008824 0.095950 0
0.009468 0.076928 0
0.010284 0.059551 0
0.011252 0.043523 0
0.012350 0.028531 0
0.013563 0.014247 0
0.014840 0.000242 0
0.016174 -0.013809 0
0.017554 -0.028206 0
0.018933 -0.043351 0
0.020263 -0.059564 0
0.021499 -0.077135 0
0.022599 -0.096321 0
0.023518 -0.117345 0
0.024212 -0.140366 0
0.024630 -0.165452 0
0.024710 -0.192538 0
0.024381 -0.221365 0
0.023555 -0.251442 0
0.022144 -0.281994 0
0.020055 -0.311920 0
0.017210 -0.339774 0
0.013545 -0.363804 0
0.009024 -0.382098 0
0.003678 -0.391989 0
-0.001315 -0.360420 0
0.000000 -0.163216 0
0.000000 0.149850 0
0.012855 0.344272 0
0.018903 0.390114 0
0.021476 0.384521 0
0.023055 0.366937 0
0.024050 0.342902 0
0.024572 0.314681 0
0.024726 0.284160 0
0.024626 0.252923 0
0.024381 0.222183 0
0.024086 0.192789 0
0.023823 0.165266 0
0.023660 0.139873 0
0.023647 0.116662 0
0.023818 0.095544 0
0.024188 0.076331 0
0.024759 0.058773 0
0.025524 0.042579 0
0.026473 0.027435 0
0.027598 0.013014 0
0.028880 -0.001076 0
0.030246 -0.015191 0
0.031711 -0.029644 0
0.033230 -0.044793 0
0.034748 -0.060958 0
0.036213 -0.078429 0
0.037565 -0.097466 0
0.038744 -0.118284 0
0.039679 -0.141037 0
0.040287 -0.165783 0
0.040466 -0.192438 0
0.040094 -0.220731 0
0.039035 -0.250157 0
0.037139 -0.279938 0
0.034259 -0.308980 0
0.030257 -0.335852 0