# vtk DataFile Version 2.0
generated by CFD-lab course output (written by Tobias Neckel) 
ASCII

DATASET STRUCTURED_GRID
DIMENSIONS  41 41 1 
POINTS 1681 float

0.150000 0.150000 0
0.167857 0.150000 0
0.185714 0.150000 0
0.203571 0.150000 0
0.221429 0.150000 0
0.239286 0.150000 0
0.257143 0.150000 0
0.275000 0.150000 0
0.292857 0.150000 0
0.310714 0.150000 0
0.328571 0.150000 0
0.346429 0.150000 0
0.364286 0.150000 0
0.382143 0.150000 0
0.400000 0.150000 0
0.417857 0.150000 0
0.435714 0.150000 0
0.453571 0.150000 0
0.471429 0.150000 0
0.489286 0.150000 0
0.507143 0.150000 0
0.525000 0.150000 0
0.542857 0.150000 0
0.560714 0.150000 0
0.578571 0.150000 0
0.596429 0.150000 0
0.614286 0.150000 0
0.632143 0.150000 0
0.650000 0.150000 0
0.667857 0.150000 0
0.685714 0.150000 0
0.703571 0.150000 0
0.721429 0.150000 0
0.739286 0.150000 0
0.757143 0.150000 0
0.775000 0.150000 0
0.792857 0.150000 0
0.810714 0.150000 0
0.828571 0.150000 0
0.846429 0.150000 0
0.864286 0.150000 0
0.150000 0.167857 0
0.167857 0.167857 0
0.185714 0.167857 0
0.203571 0.167857 0
0.221429 0.167857 0
0.239286 0.167857 0
0.257143 0.167857 0
0.275000 0.167857 0
0.292857 0.167857 0
0.310714 0.167857 0
0.328571 0.167857 0
0.346429 0.167857 0
0.364286 0.167857 0
0.382143 0.167857 0
0.400000 0.167857 0
0.417857 0.167857 0
0.435714 0.167857 0
0.453571 0.167857 0
0.471429 0.167857 0
0.489286 0.167857 0
0.507143 0.167857 0
0.525000 0.167857 0
0.542857 0.167857 0
0.560714 0.167857 0
0.578571 0.167857 0
0.596429 0.167857 0
0.614286 0.167857 0
0.632143 0.167857 0
0.650000 0.167857 0
0.667857 0.167857 0
0.685714 0.167857 0
0.703571 0.167857 0
0.721429 0.167857 0
0.739286 0.167857 0
0.757143 0.167857 0
0.775000 0.167857 0
0.792857 0.167857 0
0.810714 0.167857 0
0.828571 0.167857 0
0.846429 0.167857 0
0.864286 0.167857 0
0.150000 0.185714 0
0.167857 0.185714 0
0.185714 0.185714 0
0.203571 0.185714 0
0.221429 0.185714 0
0.239286 0.185714 0
0.257143 0.185714 0
0.275000 0.185714 0
0.292857 0.185714 0
0.310714 0.185714 0
0.328571 0.185714 0
0.346429 0.185714 0
0.364286 0.185714 0
0.382143 0.185714 0
0.400000 0.185714 0
0.417857 0.185714 0
0.435714 0.185714 0
0.453571 0.185714 0
0.471429 0.185714 0
0.489286 0.185714 0
0.507143 0.185714 0
0.525000 0.185714 0
0.542857 0.185714 0
0.560714 0.185714 0
0.578571 0.185714 0
0.596429 0.185714 0
0.614286 0.185714 0
0.632143 0.185714 0
0.650000 0.185714 0
0.667857 0.185714 0
0.685714 0.185714 0
0.703571 0.185714 0
0.721429 0.185714 0
0.739286 0.185714 0
0.757143 0.185714 0
0.775000 0.185714 0
0.792857 0.185714 0
0.810714 0.185714 0
0.828571 0.185714 0
0.846429 0.185714 0
0.864286 0.185714 0
0.150000 0.203571 0
0.167857 0.203571 0
0.185714 0.203571 0
0.203571 0.203571 0
0.221429 0.203571 0
0.239286 0.203571 0
0.257143 0.203571 0
0.275000 0.203571 0
0.292857 0.203571 0
0.310714 0.203571 0
0.328571 0.203571 0
0.346429 0.203571 0
0.364286 0.203571 0
0.382143 0.203571 0
0.400000 0.203571 0
0.417857 0.203571 0
0.435714 0.203571 0
0.453571 0.203571 0
0.471429 0.203571 0
0.489286 0.203571 0
0.507143 0.203571 0
0.525000 0.203571 0
0.542857 0.203571 0
0.560714 0.203571 0
0.578571 0.203571 0
0.596429 0.203571 0
0.614286 0.203571 0
0.632143 0.203571 0
0.650000 0.203571 0
0.667857 0.203571 0
0.685714 0.203571 0
0.703571 0.203571 0
0.721429 0.203571 0
0.739286 0.203571 0
0.757143 0.203571 0
0.775000 0.203571 0
0.792857 0.203571 0
0.810714 0.203571 0
0.828571 0.203571 0
0.846429 0.203571 0
0.864286 0.203571 0
0.150000 0.221429 0
0.167857 0.221429 0
0.185714 0.221429 0
0.203571 0.221429 0
0.221429 0.221429 0
0.239286 0.221429 0
0.257143 0.221429 0
0.275000 0.221429 0
0.292857 0.221429 0
0.310714 0.221429 0
0.328571 0.221429 0
0.346429 0.221429 0
0.364286 0.221429 0
0.382143 0.221429 0
0.400000 0.221429 0
0.417857 0.221429 0
0.435714 0.221429 0
0.453571 0.221429 0
0.471429 0.221429 0
0.489286 0.221429 0
0.507143 0.221429 0
0.525000 0.221429 0
0.542857 0.221429 0
0.560714 0.221429 0
0.578571 0.221429 0
0.596429 0.221429 0
0.614286 0.221429 0
0.632143 0.221429 0
0.650000 0.221429 0
0.667857 0.221429 0
0.685714 0.221429 0
0.703571 0.221429 0
0.721429 0.221429 0
0.739286 0.221429 0
0.757143 0.221429 0
0.775000 0.221429 0
0.792857 0.221429 0
0.810714 0.221429 0
0.828571 0.221429 0
0.846429 0.221429 0
0.864286 0.221429 0
0.150000 0.239286 0
0.167857 0.239286 0
0.185714 0.239286 0
0.203571 0.239286 0
0.221429 0.239286 0
0.239286 0.239286 0
0.257143 0.239286 0
0.275000 0.239286 0
0.292857 0.239286 0
0.310714 0.239286 0
0.328571 0.239286 0
0.346429 0.239286 0
0.364286 0.239286 0
0.382143 0.239286 0
0.400000 0.239286 0
0.417857 0.239286 0
0.435714 0.239286 0
0.453571 0.239286 0
0.471429 0.239286 0
0.489286 0.239286 0
0.507143 0.239286 0
0.525000 0.239286 0
0.542857 0.239286 0
0.560714 0.239286 0
0.578571 0.239286 0
0.596429 0.239286 0
0.614286 0.239286 0
0.632143 0.239286 0
0.650000 0.239286 0
0.667857 0.239286 0
0.685714 0.239286 0
0.703571 0.239286 0
0.721429 0.239286 0
0.739286 0.239286 0
0.757143 0.239286 0
0.775000 0.239286 0
0.792857 0.239286 0
0.810714 0.239286 0
0.828571 0.239286 0
0.846429 0.239286 0
0.864286 0.239286 0
0.150000 0.257143 0
0.167857 0.257143 0
0.185714 0.257143 0
0.203571 0.257143 0
0.221429 0.257143 0
0.239286 0.257143 0
0.257143 0.257143 0
0.275000 0.257143 0
0.292857 0.257143 0
0.310714 0.257143 0
0.328571 0.257143 0
0.346429 0.257143 0
0.364286 0.257143 0
0.382143 0.257143 0
0.400000 0.257143 0
0.417857 0.257143 0
0.435714 0.257143 0
0.453571 0.257143 0
0.471429 0.257143 0
0.489286 0.257143 0
0.507143 0.257143 0
0.525000 0.257143 0
0.542857 0.257143 0
0.560714 0.257143 0
0.578571 0.257143 0
0.596429 0.257143 0
0.614286 0.257143 0
0.632143 0.257143 0
0.650000 0.257143 0
0.667857 0.257143 0
0.685714 0.257143 0
0.703571 0.257143 0
0.721429 0.257143 0
0.739286 0.257143 0
0.757143 0.257143 0
0.775000 0.257143 0
0.792857 0.257143 0
0.810714 0.257143 0
0.828571 0.257143 0
0.846429 0.257143 0
0.864286 0.257143 0
0.150000 0.275000 0
0.167857 0.275000 0
0.185714 0.275000 0
0.203571 0.275000 0
0.221429 0.275000 0
0.239286 0.275000 0
0.257143 0.275000 0
0.275000 0.275000 0
0.292857 0.275000 0
0.310714 0.275000 0
0.328571 0.275000 0
0.346429 0.275000 0
0.364286 0.275000 0
0.382143 0.275000 0
0.400000 0.275000 0
0.417857 0.275000 0
0.435714 0.275000 0
0.453571 0.275000 0
0.471429 0.275000 0
0.489286 0.275000 0
0.507143 0.275000 0
0.525000 0.275000 0
0.542857 0.275000 0
0.560714 0.275000 0
0.578571 0.275000 0
0.596429 0.275000 0
0.614286 0.275000 0
0.632143 0.275000 0
0.650000 0.275000 0
0.667857 0.275000 0
0.685714 0.275000 0
0.703571 0.275000 0
0.721429 0.275000 0
0.739286 0.275000 0
0.757143 0.275000 0
0.775000 0.275000 0
0.792857 0.275000 0
0.810714 0.275000 0
0.828571 0.275000 0
0.846429 0.275000 0
0.864286 0.275000 0
0.150000 0.292857 0
0.167857 0.292857 0
0.185714 0.292857 0
0.203571 0.292857 0
0.221429 0.292857 0
0.239286 0.292857 0
0.257143 0.292857 0
0.275000 0.292857 0
0.292857 0.292857 0
0.310714 0.292857 0
0.328571 0.292857 0
0.346429 0.292857 0
0.364286 0.292857 0
0.382143 0.292857 0
0.400000 0.292857 0
0.417857 0.292857 0
0.435714 0.292857 0
0.453571 0.292857 0
0.471429 0.292857 0
0.489286 0.292857 0
0.507143 0.292857 0
0.525000 0.292857 0
0.542857 0.292857 0
0.560714 0.292857 0
0.578571 0.292857 0
0.596429 0.292857 0
0.614286 0.292857 0
0.632143 0.292857 0
0.650000 0.292857 0
0.667857 0.292857 0
0.685714 0.292857 0
0.703571 0.292857 0
0.721429 0.292857 0
0.739286 0.292857 0
0.757143 0.292857 0
0.775000 0.292857 0
0.792857 0.292857 0
0.810714 0.292857 0
0.828571 0.292857 0
0.846429 0.292857 0
0.864286 0.292857 0
0.150000 0.310714 0
0.167857 0.310714 0
0.185714 0.310714 0
0.203571 0.310714 0
0.221429 0.310714 0
0.239286 0.310714 0
0.257143 0.310714 0
0.275000 0.310714 0
0.292857 0.310714 0
0.310714 0.310714 0
0.328571 0.310714 0
0.346429 0.310714 0
0.364286 0.310714 0
0.382143 0.310714 0
0.400000 0.310714 0
0.417857 0.310714 0
0.435714 0.310714 0
0.453571 0.310714 0
0.471429 0.310714 0
0.489286 0.310714 0
0.507143 0.310714 0
0.525000 0.310714 0
0.542857 0.310714 0
0.560714 0.310714 0
0.578571 0.310714 0
0.596429 0.310714 0
0.614286 0.310714 0
0.632143 0.310714 0
0.650000 0.310714 0
0.667857 0.310714 0
0.685714 0.310714 0
0.703571 0.310714 0
0.721429 0.310714 0
0.739286 0.310714 0
0.757143 0.310714 0
0.775000 0.310714 0
0.792857 0.310714 0
0.810714 0.310714 0
0.828571 0.310714 0
0.846429 0.310714 0
0.864286 0.310714 0
0.150000 0.328571 0
0.167857 0.328571 0
0.185714 0.328571 0
0.203571 0.328571 0
0.221429 0.328571 0
0.239286 0.328571 0
0.257143 0.328571 0
0.275000 0.328571 0
0.292857 0.328571 0
0.310714 0.328571 0
0.328571 0.328571 0
0.346429 0.328571 0
0.364286 0.328571 0
0.382143 0.328571 0
0.400000 0.328571 0
0.417857 0.328571 0
0.435714 0.328571 0
0.453571 0.328571 0
0.471429 0.328571 0
0.489286 0.328571 0
0.507143 0.328571 0
0.525000 0.328571 0
0.542857 0.328571 0
0.560714 0.328571 0
0.578571 0.328571 0
0.596429 0.328571 0
0.614286 0.328571 0
0.632143 0.328571 0
0.650000 0.328571 0
0.667857 0.328571 0
0.685714 0.328571 0
0.703571 0.328571 0
0.721429 0.328571 0
0.739286 0.328571 0
0.757143 0.328571 0
0.775000 0.328571 0
0.792857 0.328571 0
0.810714 0.328571 0
0.828571 0.328571 0
0.846429 0.328571 0
0.864286 0.328571 0
0.150000 0.346429 0
0.167857 0.346429 0
0.185714 0.346429 0
0.203571 0.346429 0
0.221429 0.346429 0
0.239286 0.346429 0
0.257143 0.346429 0
0.275000 0.346429 0
0.292857 0.346429 0
0.310714 0.346429 0
0.328571 0.346429 0
0.346429 0.346429 0
0.364286 0.346429 0
0.382143 0.346429 0
0.400000 0.346429 0
0.417857 0.346429 0
0.435714 0.346429 0
0.453571 0.346429 0
0.471429 0.346429 0
0.489286 0.346429 0
0.507143 0.346429 0
0.525000 0.346429 0
0.542857 0.346429 0
0.560714 0.346429 0
0.578571 0.346429 0
0.596429 0.346429 0
0.614286 0.346429 0
0.632143 0.346429 0
0.650000 0.346429 0
0.667857 0.346429 0
0.685714 0.346429 0
0.703571 0.346429 0
0.721429 0.346429 0
0.739286 0.346429 0
0.757143 0.346429 0
0.775000 0.346429 0
0.792857 0.346429 0
0.810714 0.346429 0
0.828571 0.346429 0
0.846429 0.346429 0
[...]
POINT_DATA 1681 

VECTORS velocity float
0.000000 0.000000 0
0.005390 0.000000 0
0.011461 0.000000 0
0.013991 0.000000 0
0.014245 0.000000 0
0.013908 0.000000 0
0.011855 0.000000 0
0.016588 0.000000 0
0.021061 0.000000 0
0.011344 0.000000 0
-0.005820 0.000000 0
-0.025158 0.000000 0
-0.044994 0.000000 0
-0.064271 0.000000 0
-0.082278 0.000000 0
-0.098586 0.000000 0
-0.113042 0.000000 0
-0.125505 0.000000 0
-0.135935 0.000000 0
-0.144328 0.000000 0
-0.150696 0.000000 0
-0.155059 0.000000 0
-0.157417 0.000000 0
-0.157792 0.000000 0
-0.156066 0.000000 0
-0.152104 0.000000 0
-0.145836 0.000000 0
-0.137176 0.000000 0
-0.126047 0.000000 0
-0.112392 0.000000 0
-0.096276 0.000000 0
-0.077766 0.000000 0
-0.057110 0.000000 0
-0.034776 0.000000 0
-0.011560 0.000000 0
0.011302 0.000000 0
0.026764 0.000000 0
0.030032 0.000000 0
0.022487 0.000000 0
0.010539 0.000000 0
0.000000 0.000000 0
0.000000 -0.005390 0
0.014818 -0.011461 0
0.027706 -0.008601 0
0.033112 -0.002784 0
0.033414 0.000084 0
0.033629 0.002390 0
0.024696 -0.002681 0
0.006465 -0.009206 0
-0.017079 0.005244 0
-0.047850 0.026881 0
-0.084765 0.036501 0
-0.123750 0.039174 0
-0.162326 0.039114 0
-0.198823 0.037284 0
-0.232187 0.034315 0
-0.261817 0.030765 0
-0.287448 0.026918 0
-0.308961 0.022893 0
-0.326352 0.018823 0
-0.339671 0.014761 0
-0.348986 0.010732 0
-0.354356 0.006721 0
-0.355810 0.002733 0
-0.353332 -0.001352 0
-0.346853 -0.005689 0
-0.336289 -0.010230 0
-0.321497 -0.014928 0
-0.302319 -0.019788 0
-0.278606 -0.024784 0
-0.250257 -0.029771 0
-0.217291 -0.034625 0
-0.179871 -0.039166 0
-0.138472 -0.042990 0
-0.094087 -0.045550 0
-0.048568 -0.046078 0
-0.005255 -0.038323 0
0.029882 -0.018731 0
0.046727 0.004277 0
0.036289 0.019493 0
0.016969 0.022487 0
0.000000 0.010539 0
0.000000 -0.014818 0
0.018091 -0.027706 0
0.028907 -0.018294 0
0.032479 -0.005708 0
0.021499 -0.000517 0
0.001185 0.008718 0
-0.026921 0.027164 0
-0.071262 0.041775 0
-0.121668 0.054316 0
-0.163023 0.067686 0
-0.200351 0.075899 0
-0.235835 0.077561 0
-0.268741 0.075073 0
-0.298413 0.069861 0
-0.324496 0.062993 0
-0.346836 0.055261 0
-0.365351 0.047144 0
-0.380130 0.038904 0
-0.391269 0.030710 0
-0.398881 0.022634 0
-0.403057 0.014685 0
-0.403858 0.006824 0
-0.401311 -0.001024 0
-0.395353 -0.008957 0
-0.386032 -0.017043 0
-0.373327 -0.025356 0
-0.357109 -0.033971 0
-0.337234 -0.042890 0
-0.313561 -0.052062 0
-0.285991 -0.061315 0
-0.254439 -0.070386 0
-0.219058 -0.078819 0
-0.180248 -0.085784 0
-0.138905 -0.089904 0
-0.096761 -0.088831 0
-0.056931 -0.078450 0
-0.019423 -0.051982 0
0.010189 -0.006407 0
0.016788 0.029758 0
0.007562 0.036289 0
0.000000 0.016969 0
0.000000 -0.023481 0
0.011392 -0.040368 0
0.010439 -0.022989 0
-0.005923 0.004624 0
-0.032642 0.031377 0
-0.072564 0.050810 0
-0.113943 0.069766 0
-0.154628 0.085541 0
-0.195578 0.097005 0
-0.232540 0.105564 0
-0.264250 0.109313 0
-0.292169 0.107564 0
-0.316691 0.101693 0
-0.338000 0.093039 0
-0.356239 0.082738 0
-0.371531 0.071620 0
-0.383961 0.060212 0
-0.393643 0.048811 0
-0.400662 0.037575 0
-0.405081 0.026549 0
-0.406937 0.015709 0
-0.406232 0.004975 0
-0.402944 -0.005772 0
-0.397033 -0.016631 0
-0.388453 -0.027715 0
-0.377087 -0.039153 0
-0.362822 -0.051021 0
-0.345527 -0.063336 0
-0.325071 -0.076027 0
-0.301348 -0.088893 0
-0.274284 -0.101559 0
-0.243949 -0.113357 0
-0.210589 -0.123143 0
-0.174742 -0.129038 0
-0.137349 -0.128052 0
-0.099756 -0.115661 0
-0.063320 -0.085851 0
-0.028441 -0.031935 0
0.000770 0.022120 0
-0.000579 0.039276 0
0.000000 0.018101 0
0.000000 -0.026210 0
-0.007430 -0.038145 0
-0.029250 -0.000979 0
-0.061550 0.037373 0
-0.094432 0.066124 0
-0.131467 0.090019 0
-0.169519 0.109229 0
-0.205486 0.123409 0
-0.239205 0.132227 0
-0.269047 0.136358 0
-0.294184 0.135528 0
-0.315435 0.130002 0
-0.333467 0.120905 0
-0.348789 0.109409 0
-0.361740 0.096524 0
-0.372525 0.082984 0
-0.381253 0.069256 0
-0.387990 0.055604 0
-0.392763 0.042148 0
-0.395576 0.028909 0
-0.396415 0.015835 0
-0.395249 0.002831 0
-0.392034 -0.010223 0
-0.386759 -0.023448 0
-0.379331 -0.036989 0
-0.369663 -0.050987 0
-0.357651 -0.065531 0
-0.343185 -0.080642 0
-0.326153 -0.096240 0
-0.306455 -0.112102 0
-0.284014 -0.127786 0
-0.258815 -0.142514 0
-0.230912 -0.154990 0
-0.200448 -0.163144 0
-0.167633 -0.163818 0
-0.132664 -0.152479 0
-0.095546 -0.123298 0
-0.056145 -0.070497 0
-0.014625 0.001896 0
-0.004191 0.037059 0
0.000000 0.016391 0
0.000000 -0.016050 0
-0.028979 -0.011118 0
-0.064861 0.031131 0
-0.098035 0.069806 0
-0.132895 0.101294 0
-0.167832 0.125897 0
-0.201564 0.143786 0
-0.232402 0.155227 0
-0.259925 0.160566 0
-0.283536 0.160543 0
-0.303121 0.155701 0
-0.319320 0.146847 0
-0.332786 0.135047 0
-0.344043 0.121311 0
-0.353434 0.106474 0
-0.361158 0.091133 0
-0.367311 0.075677 0
-0.371941 0.060321 0
-0.375064 0.045161 0
-0.376680 0.030201 0
-0.376778 0.015381 0
-0.375338 0.000593 0
-0.372331 -0.014262 0
-0.367741 -0.029334 0
-0.361485 -0.044811 0
-0.353488 -0.060833 0
-0.343659 -0.077500 0
-0.331903 -0.094834 0
-0.318122 -0.112757 0
-0.302225 -0.131032 0
-0.284121 -0.149199 0
-0.263727 -0.166459 0
-0.240939 -0.181509 0
-0.215590 -0.192317 0
-0.187375 -0.195837 0
-0.155761 -0.187748 0
-0.119962 -0.162369 0
-0.079247 -0.112856 0
-0.034351 -0.029834 0
0.003462 0.024651 0
0.000000 0.013910 0
0.000000 0.002769 0
-0.040586 0.026716 0
-0.080569 0.068077 0
-0.117711 0.105406 0
-0.152999 0.135921 0
-0.185872 0.158688 0
-0.215798 0.173799 0
-0.242109 0.181771 0
-0.264676 0.183362 0
-0.283485 0.179554 0
-0.298833 0.171312 0
-0.311308 0.159667 0
-0.321476 0.145627 0
-0.329784 0.130058 0
-0.336535 0.113640 0
-0.341914 0.096861 0
-0.346032 0.080039 0
-0.348954 0.063357 0
-0.350725 0.046887 0
-0.351366 0.030623 0
-0.350891 0.014493 0
-0.349296 -0.001617 0
-0.346573 -0.017820 0
-0.342673 -0.034293 0
-0.337538 -0.051241 0
-0.331094 -0.068813 0
-0.323258 -0.087116 0
-0.313942 -0.106178 0
-0.303056 -0.125918 0
-0.290507 -0.146103 0
-0.276198 -0.166284 0
-0.260004 -0.185696 0
-0.241731 -0.203127 0
-0.221037 -0.216708 0
-0.197331 -0.223647 0
-0.169665 -0.219892 0
-0.136747 -0.199812 0
-0.097259 -0.156108 0
-0.050518 -0.080813 0
0.004994 0.002708 0
0.000000 0.019853 0
0.000000 0.024536 0
-0.043841 0.069451 0
-0.086513 0.108255 0
-0.125089 0.142235 0
-0.159797 0.169455 0
-0.190535 0.188696 0
-0.217240 0.200023 0
-0.239861 0.204104 0
-0.258614 0.201942 0
-0.273833 0.194701 0
-0.285999 0.183524 0
-0.295664 0.169489 0
-0.303311 0.153523 0
-0.309323 0.136371 0
-0.313976 0.118604 0
-0.317462 0.100630 0
-0.319920 0.082717 0
-0.321450 0.065014 0
-0.322128 0.047573 0
-0.322005 0.030367 0
-0.321111 0.013311 0
-0.319459 -0.003725 0
-0.317047 -0.020885 0
-0.313820 -0.038369 0
-0.309724 -0.056390 0
-0.304684 -0.075113 0
-0.298614 -0.094651 0
-0.291424 -0.115037 0
-0.283018 -0.136192 0
-0.273298 -0.157889 0
-0.262158 -0.179702 0
-0.249456 -0.200926 0
-0.234970 -0.220476 0
-0.218311 -0.236717 0
-0.198801 -0.247209 0
-0.175340 -0.248332 0
-0.146366 -0.234775 0
-0.110119 -0.199085 0
-0.065683 -0.132087 0
-0.015853 -0.025867 0
0.000000 0.018905 0
0.000000 0.046610 0
-0.043326 0.113230 0
-0.086223 0.149325 0
-0.124292 0.178690 0
-0.157547 0.201367 0
-0.186035 0.216131 0
-0.209950 0.223124 0
-0.229589 0.223145 0
-0.245400 0.217334 0
-0.257895 0.206940 0
-0.267618 0.193143 0
-0.275083 0.176979 0
-0.280720 0.159287 0
-0.284875 0.140722 0
-0.287818 0.121778 0
-0.289760 0.102805 0
-0.290869 0.084028 0
-0.291279 0.065565 0
-0.291091 0.047441 0
-0.290381 0.029605 0
-0.289198 0.011948 0
-0.287566 -0.005680 0
-0.285483 -0.023459 0
-0.282900 -0.041616 0
-0.279757 -0.060378 0
-0.275972 -0.079923 0
-0.271450 -0.100376 0
-0.266089 -0.121774 0
-0.259778 -0.144044 0
-0.252405 -0.166963 0
-0.243850 -0.190126 0
-0.233963 -0.212884 0
-0.222531 -0.234272 0
-0.209196 -0.252878 0
-0.193347 -0.266618 0
-0.173970 -0.272326 0
-0.149563 -0.265033 0
-0.118334 -0.236792 0
-0.079297 -0.175080 0
-0.035578 -0.062975 0
0.000000 0.003999 0
0.000000 0.067861 0
-0.040988 0.155674 0
-0.082126 0.189221 0
-0.118348 0.213560 0
-0.149483 0.231198 0
-0.175598 0.241099 0
-0.197005 0.243577 0
-0.214161 0.239554 0
-0.227626 0.230247 0
-0.237974 0.216919 0
-0.245754 0.200713 0
-0.251442 0.182592 0
-0.255436 0.163315 0
-0.258067 0.143468 0
-0.259609 0.123489 0
-0.260292 0.103682 0
-0.260311 0.084236 0
-0.259823 0.065236 0
-0.258956 0.046675 0
-0.257806 0.028475 0
-0.256438 0.010495 0
-0.254883 -0.007440 0
-0.253143 -0.025550 0
-0.251168 -0.044095 0
-0.248891 -0.063318 0
-0.246219 -0.083420 0
-0.243046 -0.104534 0
-0.239250 -0.126709 0
-0.234704 -0.149875 0
-0.229273 -0.173818 0
-0.222818 -0.198144 0
-0.215181 -0.222245 0
-0.206159 -0.245243 0
-0.195451 -0.265901 0
-0.182559 -0.282436 0
-0.166648 -0.292115 0
-0.146378 -0.290412 0
-0.119863 -0.269351 0
-0.085212 -0.214842 0
-0.042522 -0.105164 0
0.000000 -0.016674 0
0.000000 0.087598 0
-0.037543 0.195356 0
-0.075779 0.226684 0
-0.109328 0.246047 0
-0.137903 0.258618 0
-0.161556 0.263653 0
-0.180630 0.261687 0
-0.195629 0.253766 0
-0.207135 0.241147 0
-0.215720 0.225068 0
-0.221902 0.206611 0
-0.226122 0.186661 0
-0.228758 0.165911 0
-0.230134 0.144894 0
-0.230531 0.124004 0
-0.230194 0.103507 0
-0.229337 0.083559 0
-0.228140 0.064211 0
-0.226751 0.045425 0
-0.225283 0.027087 0
-0.223814 0.009025 0
-0.222381 -0.008974 0
-0.220987 -0.027174 0
-0.219575 -0.045869 0
-0.218070 -0.065327 0
-0.216371 -0.085768 0
-0.214356 -0.107345 0
-0.211887 -0.130117 0
-0.208816 -0.154021 0
-0.204989 -0.178849 0
-0.200247 -0.204218 0
-0.194418 -0.229543 0
-0.187305 -0.254003 0
-0.178648 -0.276478 0
-0.168055 -0.295420 0
-0.154868 -0.308508 0
-0.137938 -0.311818 0
-0.115354 -0.297957 0
-0.084485 -0.252420 0
-0.043586 -0.148187 0
0.000000 -0.038523 0
0.000000 0.105404 0
-0.033463 0.231453 0
-0.068185 0.261006 0
-0.098605 0.275683 0
-0.124375 0.283427 0
-0.145525 0.283826 0
-0.162384 0.277650 0
-0.175441 0.266060 0
-0.185245 0.250339 0
-0.192327 0.231685 0
-0.197161 0.211115 0
-0.200157 0.189448 0
-0.201671 0.167327 0
-0.202023 0.145241 0
-0.201496 0.123549 0
-0.200346 0.102488 0
-0.198803 0.082181 0
-0.197062 0.062649 0
-0.195290 0.043818 0
-0.193612 0.025537 0
-0.192114 0.007594 0
-0.190837 -0.010267 0
-0.189777 -0.028357 0
-0.188873 -0.047011 0
-0.188041 -0.066522 0
-0.187168 -0.087134 0
-0.186120 -0.109019 0
-0.184746 -0.132250 0
-0.182883 -0.156773 0
-0.180362 -0.182387 0
-0.177009 -0.208714 0
-0.172642 -0.235186 0
-0.167064 -0.261013 0
-0.160036 -0.285152 0
-0.151241 -0.306216 0
-0.140172 -0.322232 0
-0.125910 -0.329925 0
-0.106721 -0.322805 0
-0.079760 -0.286610 0
-0.042282 -0.189649 0
0.000000 -0.060260 0
0.000000 0.121060 0
-0.029065 0.263541 0
-0.059985 0.291827 0
-0.087070 0.302237 0
-0.109932 0.305537 0
-0.128588 0.301662 0
-0.143329 0.291603 0
-0.154596 0.276627 0
-0.162881 0.258034 0
-0.168654 0.236984 0
-0.172341 0.214441 0
-0.174317 0.191171 0
-0.174918 0.167777 0
-0.174452 0.144719 0
-0.173205 0.122328 0
-0.171436 0.100814 0
-0.169384 0.080274 0
-0.167256 0.060697 0
-0.165230 0.041974 0
-0.163440 0.023911 0
-0.161976 0.006250 0
-0.160876 -0.011311 0
-0.160128 -0.029138 0
-0.159664 -0.047605 0
-0.159391 -0.067032 0
-0.159189 -0.087689 0
-0.158913 -0.109767 0
-0.158404 -0.133353 0
-0.157492 -0.158404 0
-0.156002 -0.184723 0
-0.153753 -0.211937 0
-0.150561 -0.239489 0
-0.146229 -0.266609 0
-0.140536 -0.292301 0
-0.133208 -0.315284 0
-0.123853 -0.333839 0
-0.111776 -0.345269 0
-0.095564 -0.344107 0
-0.072515 -0.316859 0
-0.039280 -0.227947 0
0.000000 -0.080805 0
0.000000 0.134469 0
-0.024552 0.291438 0
-0.051579 0.319011 0
-0.075278 0.325630 0
-0.095230 0.324945 0
-0.111442 0.317223 0
-0.124160 0.303658 0
-0.133763 0.285612 0
-0.140674 0.264397 0
-0.145301 0.241145 0
-0.148015 0.216777 0
-0.149157 0.192025 0
-0.149040 0.167462 0
-0.147957 0.143528 0
-0.146187 0.120533 0
-0.143989 0.098667 0
-0.141603 0.078002 0
-0.139243 0.058495 0
-0.137087 0.040002 0
-0.135274 0.022283 0
-0.133893 0.005030 0
-0.132979 -0.012115 0
-0.132504 -0.029570 0
-0.132399 -0.047747 0
-0.132561 -0.066997 0
-0.132863 -0.087613 0
-0.133158 -0.109804 0
-0.133285 -0.133670 0
-0.133074 -0.159175 0
-0.132352 -0.186126 0
-0.130946 -0.214155 0
-0.128679 -0.242709 0
-0.125365 -0.271037 0
-0.120797 -0.298173 0
-0.114734 -0.322900 0
-0.106864 -0.343664 0
-0.096687 -0.358214 0
-0.083145 -0.362066 0
-0.063908 -0.342894 0
-0.035327 -0.262164 0
0.000000 -0.099540 0
0.000000 0.145613 0
-0.020042 0.315119 0
-0.043198 0.342552 0
-0.063556 0.345888 0
-0.080660 0.341701 0
-0.094509 0.330592 0
-0.105305 0.313924 0
-0.113361 0.293141 0
-0.119030 0.269571 0
-0.122657 0.244326 0
-0.124564 0.218297 0
-0.125052 0.192196 0
-0.124407 0.166577 0
-0.122906 0.141866 0
-0.120812 0.118359 0
-0.118378 0.096231 0
-0.115836 0.075528 0
-0.113396 0.056181 0
-0.111230 0.038005 0
-0.109474 0.020718 0
-0.108212 0.003955 0
-0.107473 -0.012700 0
-0.107220 -0.029718 0
-0.107376 -0.047548 0
-0.107835 -0.066568 0
-0.108467 -0.087092 0
-0.109127 -0.109345 0
-0.109660 -0.133438 0
-0.109906 -0.159337 0
-0.109706 -0.186851 0
-0.108903 -0.215611 0
-0.107338 -0.245070 0
-0.104847 -0.274491 0
-0.101247 -0.302932 0
-0.096325 -0.329217 0
-0.089830 -0.351886 0
-0.081407 -0.368988 0
-0.070327 -0.376885 0
-0.054724 -0.364678 0
-0.030905 -0.291855 0
0.000000 -0.116132 0
0.000000 0.154511 0
-0.015588 0.334636 0
-0.034958 0.362525 0
-0.052073 0.363092 0
-0.066427 0.355898 0
-0.078015 0.341868 0
-0.086994 0.322510 0
-0.093619 0.299338 0
-0.098173 0.273693 0
-0.100943 0.246679 0
-0.102201 0.219172 0
-0.102211 0.191868 0
-0.101228 0.165316 0
-0.099506 0.139932 0
-0.097289 0.116005 0
-0.094813 0.093692 0
-0.092293 0.073020 0
-0.089921 0.053889 0
-0.087859 0.036080 0
-0.086227 0.019265 0
-0.085106 0.003030 0
-0.084518 -0.013107 0
-0.084418 -0.029667 0
-0.084724 -0.047133 0
-0.085330 -0.065906 0
-0.086111 -0.086320 0
-0.086929 -0.108610 0
-0.087645 -0.132890 0
-0.088117 -0.159129 0
-0.088210 -0.187130 0
-0.087792 -0.216524 0
-0.086735 -0.246765 0
-0.084903 -0.277129 0
-0.082145 -0.306695 0
-0.078284 -0.334316 0
-0.073117 -0.358582 0
-0.066393 -0.377718 0
-0.057640 -0.388749 0
-0.045469 -0.382316 0
-0.026334 -0.316888 0
0.000000 -0.130445 0
0.000000 0.161200 0
-0.011208 0.350077 0
-0.026898 0.379037 0
-0.040888 0.377357 0
-0.052607 0.367644 0
-0.062043 0.351159 0
-0.069315 0.329528 0
-0.074621 0.304320 0
-0.078184 0.276896 0
-0.080233 0.248354 0
-0.080997 0.219565 0
-0.080697 0.191222 0
-0.079560 0.163872 0
-0.077808 0.137927 0
-0.075662 0.113666 0
-0.073329 0.091234 0
-0.070999 0.070637 0
-0.068837 0.051747 0
-0.066979 0.034311 0
-0.065530 0.017965 0
-0.064558 0.002246 0
-0.064083 -0.013388 0
-0.064057 -0.029512 0
-0.064396 -0.046636 0
-0.064996 -0.065181 0
-0.065743 -0.085493 0
-0.066519 -0.107811 0
-0.067207 -0.132250 0
-0.067692 -0.158772 0
-0.067872 -0.187176 0
-0.067651 -0.217086 0
-0.066936 -0.247959 0
-0.065628 -0.279081 0
-0.063614 -0.309551 0
-0.060757 -0.338244 0
-0.056899 -0.363777 0
-0.051863 -0.384466 0
-0.045362 -0.397809 0
-0.036428 -0.395983 0
-0.021803 -0.337324 0
0.000000 -0.142466 0
0.000000 0.165719 0
-0.006896 0.361535 0
-0.019005 0.392205 0
-0.029988 0.388801 0
-0.039184 0.377052 0
-0.046575 0.358576 0
-0.052246 0.335088 0
-0.056340 0.308206 0
-0.059027 0.279306 0
-0.060485 0.249492 0
-0.060895 0.219635 0
-0.060442 0.190431 0
-0.059317 0.162427 0
-0.057710 0.136034 0
-0.055807 0.111526 0
-0.053782 0.089029 0
-0.051789 0.068528 0
-0.049958 0.049869 0
-0.048391 0.032772 0
-0.047170 0.016844 0
-0.046351 0.001584 0
-0.045946 -0.013608 0
-0.045910 -0.029355 0
-0.046161 -0.046194 0
-0.046606 -0.064559 0
-0.047149 -0.084797 0
-0.047699 -0.107147 0
-0.048169 -0.131717 0
-0.048484 -0.158463 0
-0.048580 -0.187171 0
-0.048402 -0.217460 0
-0.047897 -0.248788 0
-0.047009 -0.280450 0
-0.045666 -0.311566 0
-0.043773 -0.341031 0
-0.041218 -0.367476 0
-0.037880 -0.389255 0
-0.033593 -0.404184 0
-0.027730 -0.405874 0
-0.017404 -0.353316 0
0.000000 -0.152248 0
0.000000 0.168096 0
-0.002659 0.369082 0
-0.011227 0.402129 0
-0.019303 0.397536 0
-0.026077 0.384231 0
-0.031521 0.364221 0
-0.035684 0.339293 0
-0.038664 0.311101 0
-0.040578 0.281041 0
-0.041556 0.250222 0
-0.041736 0.219523 0
-0.041263 0.189645 0
-0.040290 0.161139 0
-0.038969 0.134416 0
-0.037450 0.109739 0
-0.035863 0.087217 0
-0.034321 0.066813 0
-0.032910 0.048348 0
-0.031700 0.031524 0
-0.030745 0.015924 0
-0.030081 0.001022 0
-0.029701 -0.013829 0
-0.029572 -0.029297 0
-0.029620 -0.045940 0
-0.029773 -0.064193 0
-0.029962 -0.084400 0
-0.030132 -0.106791 0
-0.030233 -0.131464 0
-0.030235 -0.158361 0
-0.030118 -0.187259 0
-0.029871 -0.217769 0
-0.029487 -0.249351 0
-0.028948 -0.281312 0
-0.028228 -0.312787 0
-0.027276 -0.342692 0
-0.026026 -0.369670 0
-0.024404 -0.392091 0
-0.022319 -0.407960 0
-0.019394 -0.412172 0
-0.013166 -0.365053 0
0.000000 -0.159870 0
0.000000 0.168378 0
0.001450 0.372761 0
-0.003466 0.408849 0
-0.008719 0.403651 0
-0.013166 0.389270 0
-0.016740 0.368183 0
-0.019474 0.342231 0
-0.021418 0.313099 0
-0.022643 0.282198 0
-0.023231 0.250650 0
-0.023276 0.219343 0
-0.022884 0.188985 0
-0.022166 0.160133 0
-0.021234 0.133194 0
-0.020193 0.108419 0
-0.019130 0.085900 0
-0.018111 0.065576 0
-0.017178 0.047248 0
-0.016361 0.030606 0
-0.015682 0.015224 0
-0.015162 0.000540 0
-0.014778 -0.014116 0
-0.014478 -0.029435 0
-0.014222 -0.045993 0
-0.013971 -0.064216 0
-0.013694 -0.084438 0
-0.013372 -0.106876 0
-0.013003 -0.131614 0
-0.012601 -0.158579 0
-0.012194 -0.187535 0
-0.011818 -0.218092 0
-0.011506 -0.249711 0
-0.011285 -0.281709 0
-0.011168 -0.313239 0
-0.011152 -0.343233 0
-0.011216 -0.370347 0
-0.011330 -0.392963 0
-0.011452 -0.409194 0
-0.011375 -0.415027 0
-0.009075 -0.372711 0
0.000000 -0.165414 0
0.000000 0.166646 0
0.005462 0.372549 0
0.004331 0.412298 0
0.001882 0.407235 0
-0.000289 0.392252 0
-0.002054 0.370529 0
-0.003416 0.343971 0
-0.004384 0.314270 0
-0.004979 0.282853 0
-0.005237 0.250855 0
-0.005210 0.219176 0
-0.004961 0.188534 0
-0.004557 0.159489 0
-0.004069 0.132443 0
-0.003554 0.107635 0
-0.003053 0.085135 0
-0.002585 0.064861 0
-0.002151 0.046599 0
-0.001739 0.030028 0
-0.001330 0.014726 0
-0.000909 0.000118 0
-0.000458 -0.014513 0
0.000078 -0.029853 0
0.000707 -0.046447 0
0.001430 -0.064721 0
0.002236 -0.084999 0
0.003101 -0.107482 0
0.003980 -0.132235 0
0.004813 -0.159170 0
0.005526 -0.188042 0
0.006041 -0.218458 0
0.006281 -0.249884 0
0.006180 -0.281650 0
0.005683 -0.312921 0
0.004750 -0.342644 0
0.003354 -0.369491 0
0.001484 -0.391855 0
-0.000861 -0.407915 0
-0.003579 -0.414549 0
-0.005086 -0.376428 0
0.000000 -0.168945 0
0.000000 0.162916 0
0.009496 0.368430 0
0.012224 0.412430 0
0.012615 0.408271 0
0.012707 0.393206 0
0.012717 0.371311 0
0.012694 0.344562 0
0.012671 0.314662 0
0.012676 0.283052 0
0.012719 0.250881 0
0.012795 0.219066 0
0.012883 0.188332 0
0.012958 0.159242 0
0.012999 0.132191 0
0.012994 0.107403 0
0.012951 0.084932 0
0.012893 0.064674 0
0.012861 0.046402 0
0.012903 0.029785 0
0.013077 0.014394 0
0.013441 -0.000333 0
0.014029 -0.015104 0
0.014847 -0.030600 0
0.015876 -0.047344 0
0.017084 -0.065745 0
0.018421 -0.086109 0
0.019818 -0.108620 0
0.021187 -0.133326 0
0.022422 -0.160125 0
0.023406 -0.188762 0
0.024019 -0.218846 0
0.024147 -0.249850 0
0.023683 -0.281111 0
0.022531 -0.311809 0
0.020607 -0.340904 0
0.017841 -0.367082 0
0.014176 -0.388748 0
0.009584 -0.404131 0
0.004111 -0.410802 0
-0.001121 -0.376290 0
0.000000 -0.170499 0
0.000000 0.157151 0
0.013626 0.360325 0
0.020331 0.409179 0
0.023615 0.406752 0
0.025950 0.392149 0
0.027721 0.370542 0
0.029026 0.344017 0
0.029945 0.314288 0
0.030553 0.282805 0
0.030909 0.250736 0
0.031051 0.219013 0
0.031007 0.188371 0
0.030797 0.159373 0
0.030445 0.132407 0
0.029989 0.107683 0
0.029481 0.085236 0
0.028985 0.064951 0
0.028578 0.046589 0
0.028339 0.029812 0
0.028356 0.014187 0
0.028705 -0.000835 0
0.029440 -0.015919 0
0.030537 -0.031700 0
0.031947 -0.048684 0
0.033603 -0.067266 0
0.035418 -0.087733 0
0.037285 -0.110248 0
0.039073 -0.134839 0
0.040633 -0.161389 0
0.041810 -0.189639 0
0.042445 -0.219199 0
0.042385 -0.249548 0
0.041485 -0.280034 0
0.039609 -0.309845 0
0.036629 -0.337954 0
0.032425 -0.363060 0