# vtk DataFile Version 2.0
generated by CFD-lab course output (written by Tobias Neckel) 
ASCII

DATASET STRUCTURED_GRID
DIMENSIONS  41 41 1 
POINTS 1681 float

0.150000 0.150000 0
0.167857 0.150000 0
0.185714 0.150000 0
0.203571 0.150000 0
0.221429 0.150000 0
0.239286 0.150000 0
0.257143 0.150000 0
0.275000 0.150000 0
0.292857 0.150000 0
0.310714 0.150000 0
0.328571 0.150000 0
0.346429 0.150000 0
0.364286 0.150000 0
0.382143 0.150000 0
0.400000 0.150000 0
0.417857 0.150000 0
0.435714 0.150000 0
0.453571 0.150000 0
0.471429 0.150000 0
0.489286 0.150000 0
0.507143 0.150000 0
0.525000 0.150000 0
0.542857 0.150000 0
0.560714 0.150000 0
0.578571 0.150000 0
0.596429 0.150000 0
0.614286 0.150000 0
0.632143 0.150000 0
0.650000 0.150000 0
0.667857 0.150000 0
0.685714 0.150000 0
0.703571 0.150000 0
0.721429 0.150000 0
0.739286 0.150000 0
0.757143 0.150000 0
0.775000 0.150000 0
0.792857 0.150000 0
0.810714 0.150000 0
0.828571 0.150000 0
0.846429 0.150000 0
0.864286 0.150000 0
0.150000 0.167857 0
0.167857 0.167857 0
0.185714 0.167857 0
0.203571 0.167857 0
0.221429 0.167857 0
0.239286 0.167857 0
0.257143 0.167857 0
0.275000 0.167857 0
0.292857 0.167857 0
0.310714 0.167857 0
0.328571 0.167857 0
0.346429 0.167857 0
0.364286 0.167857 0
0.382143 0.167857 0
0.400000 0.167857 0
0.417857 0.167857 0
0.435714 0.167857 0
0.453571 0.167857 0
0.471429 0.167857 0
0.489286 0.167857 0
0.507143 0.167857 0
0.525000 0.167857 0
0.542857 0.167857 0
0.560714 0.167857 0
0.578571 0.167857 0
0.596429 0.167857 0
0.614286 0.167857 0
0.632143 0.167857 0
0.650000 0.167857 0
0.667857 0.167857 0
0.685714 0.167857 0
0.703571 0.167857 0
0.721429 0.167857 0
0.739286 0.167857 0
0.757143 0.167857 0
0.775000 0.167857 0
0.792857 0.167857 0
0.810714 0.167857 0
0.828571 0.167857 0
0.846429 0.167857 0
0.864286 0.167857 0
0.150000 0.185714 0
0.167857 0.185714 0
0.185714 0.185714 0
0.203571 0.185714 0
0.221429 0.185714 0
0.239286 0.185714 0
0.257143 0.185714 0
0.275000 0.185714 0
0.292857 0.185714 0
0.310714 0.185714 0
0.328571 0.185714 0
0.346429 0.185714 0
0.364286 0.185714 0
0.382143 0.185714 0
0.400000 0.185714 0
0.417857 0.185714 0
0.435714 0.185714 0
0.453571 0.185714 0
0.471429 0.185714 0
0.489286 0.185714 0
0.507143 0.185714 0
0.525000 0.185714 0
0.542857 0.185714 0
0.560714 0.185714 0
0.578571 0.185714 0
0.596429 0.185714 0
0.614286 0.185714 0
0.632143 0.185714 0
0.650000 0.185714 0
0.667857 0.185714 0
0.685714 0.185714 0
0.703571 0.185714 0
0.721429 0.185714 0
0.739286 0.185714 0
0.757143 0.185714 0
0.775000 0.185714 0
0.792857 0.185714 0
0.810714 0.185714 0
0.828571 0.185714 0
0.846429 0.185714 0
0.864286 0.185714 0
0.150000 0.203571 0
0.167857 0.203571 0
0.185714 0.203571 0
0.203571 0.203571 0
0.221429 0.203571 0
0.239286 0.203571 0
0.257143 0.203571 0
0.275000 0.203571 0
0.292857 0.203571 0
0.310714 0.203571 0
0.328571 0.203571 0
0.346429 0.203571 0
0.364286 0.203571 0
0.382143 0.203571 0
0.400000 0.203571 0
0.417857 0.203571 0
0.435714 0.203571 0
0.453571 0.203571 0
0.471429 0.203571 0
0.489286 0.203571 0
0.507143 0.203571 0
0.525000 0.203571 0
0.542857 0.203571 0
0.560714 0.203571 0
0.578571 0.203571 0
0.596429 0.203571 0
0.614286 0.203571 0
0.632143 0.203571 0
0.650000 0.203571 0
0.667857 0.203571 0
0.685714 0.203571 0
0.703571 0.203571 0
0.721429 0.203571 0
0.739286 0.203571 0
0.757143 0.203571 0
0.775000 0.203571 0
0.792857 0.203571 0
0.810714 0.203571 0
0.828571 0.203571 0
0.846429 0.203571 0
0.864286 0.203571 0
0.150000 0.221429 0
0.167857 0.221429 0
0.185714 0.221429 0
0.203571 0.221429 0
0.221429 0.221429 0
0.239286 0.221429 0
0.257143 0.221429 0
0.275000 0.221429 0
0.292857 0.221429 0
0.310714 0.221429 0
0.328571 0.221429 0
0.346429 0.221429 0
0.364286 0.221429 0
0.382143 0.221429 0
0.400000 0.221429 0
0.417857 0.221429 0
0.435714 0.221429 0
0.453571 0.221429 0
0.471429 0.221429 0
0.489286 0.221429 0
0.507143 0.221429 0
0.525000 0.221429 0
0.542857 0.221429 0
0.560714 0.221429 0
0.578571 0.221429 0
0.596429 0.221429 0
0.614286 0.221429 0
0.632143 0.221429 0
0.650000 0.221429 0
0.667857 0.221429 0
0.685714 0.221429 0
0.703571 0.221429 0
0.721429 0.221429 0
0.739286 0.221429 0
0.757143 0.221429 0
0.775000 0.221429 0
0.792857 0.221429 0
0.810714 0.221429 0
0.828571 0.221429 0
0.846429 0.221429 0
0.864286 0.221429 0
0.150000 0.239286 0
0.167857 0.239286 0
0.185714 0.239286 0
0.203571 0.239286 0
0.221429 0.239286 0
0.239286 0.239286 0
0.257143 0.239286 0
0.275000 0.239286 0
0.292857 0.239286 0
0.310714 0.239286 0
0.328571 0.239286 0
0.346429 0.239286 0
0.364286 0.239286 0
0.382143 0.239286 0
0.400000 0.239286 0
0.417857 0.239286 0
0.435714 0.239286 0
0.453571 0.239286 0
0.471429 0.239286 0
0.489286 0.239286 0
0.507143 0.239286 0
0.525000 0.239286 0
0.542857 0.239286 0
0.560714 0.239286 0
0.578571 0.239286 0
0.596429 0.239286 0
0.614286 0.239286 0
0.632143 0.239286 0
0.650000 0.239286 0
0.667857 0.239286 0
0.685714 0.239286 0
0.703571 0.239286 0
0.721429 0.239286 0
0.739286 0.239286 0
0.757143 0.239286 0
0.775000 0.239286 0
0.792857 0.239286 0
0.810714 0.239286 0
0.828571 0.239286 0
0.846429 0.239286 0
0.864286 0.239286 0
0.150000 0.257143 0
0.167857 0.257143 0
0.185714 0.257143 0
0.203571 0.257143 0
0.221429 0.257143 0
0.239286 0.257143 0
0.257143 0.257143 0
0.275000 0.257143 0
0.292857 0.257143 0
0.310714 0.257143 0
0.328571 0.257143 0
0.346429 0.257143 0
0.364286 0.257143 0
0.382143 0.257143 0
0.400000 0.257143 0
0.417857 0.257143 0
0.435714 0.257143 0
0.453571 0.257143 0
0.471429 0.257143 0
0.489286 0.257143 0
0.507143 0.257143 0
0.525000 0.257143 0
0.542857 0.257143 0
0.560714 0.257143 0
0.578571 0.257143 0
0.596429 0.257143 0
0.614286 0.257143 0
0.632143 0.257143 0
0.650000 0.257143 0
0.667857 0.257143 0
0.685714 0.257143 0
0.703571 0.257143 0
0.721429 0.257143 0
0.739286 0.257143 0
0.757143 0.257143 0
0.775000 0.257143 0
0.792857 0.257143 0
0.810714 0.257143 0
0.828571 0.257143 0
0.846429 0.257143 0
0.864286 0.257143 0
0.150000 0.275000 0
0.167857 0.275000 0
0.185714 0.275000 0
0.203571 0.275000 0
0.221429 0.275000 0
0.239286 0.275000 0
0.257143 0.275000 0
0.275000 0.275000 0
0.292857 0.275000 0
0.310714 0.275000 0
0.328571 0.275000 0
0.346429 0.275000 0
0.364286 0.275000 0
0.382143 0.275000 0
0.400000 0.275000 0
0.417857 0.275000 0
0.435714 0.275000 0
0.453571 0.275000 0
0.471429 0.275000 0
0.489286 0.275000 0
0.507143 0.275000 0
0.525000 0.275000 0
0.542857 0.275000 0
0.560714 0.275000 0
0.578571 0.275000 0
0.596429 0.275000 0
0.614286 0.275000 0
0.632143 0.275000 0
0.650000 0.275000 0
0.667857 0.275000 0
0.685714 0.275000 0
0.703571 0.275000 0
0.721429 0.275000 0
0.739286 0.275000 0
0.757143 0.275000 0
0.775000 0.275000 0
0.792857 0.275000 0
0.810714 0.275000 0
0.828571 0.275000 0
0.846429 0.275000 0
0.864286 0.275000 0
0.150000 0.292857 0
0.167857 0.292857 0
0.185714 0.292857 0
0.203571 0.292857 0
0.221429 0.292857 0
0.239286 0.292857 0
0.257143 0.292857 0
0.275000 0.292857 0
0.292857 0.292857 0
0.310714 0.292857 0
0.328571 0.292857 0
0.346429 0.292857 0
0.364286 0.292857 0
0.382143 0.292857 0
0.400000 0.292857 0
0.417857 0.292857 0
0.435714 0.292857 0
0.453571 0.292857 0
0.471429 0.292857 0
0.489286 0.292857 0
0.507143 0.292857 0
0.525000 0.292857 0
0.542857 0.292857 0
0.560714 0.292857 0
0.578571 0.292857 0
0.596429 0.292857 0
0.614286 0.292857 0
0.632143 0.292857 0
0.650000 0.292857 0
0.667857 0.292857 0
0.685714 0.292857 0
0.703571 0.292857 0
0.721429 0.292857 0
0.739286 0.292857 0
0.757143 0.292857 0
0.775000 0.292857 0
0.792857 0.292857 0
0.810714 0.292857 0
0.828571 0.292857 0
0.846429 0.292857 0
0.864286 0.292857 0
0.150000 0.310714 0
0.167857 0.310714 0
0.185714 0.310714 0
0.203571 0.310714 0
0.221429 0.310714 0
0.239286 0.310714 0
0.257143 0.310714 0
0.275000 0.310714 0
0.292857 0.310714 0
0.310714 0.310714 0
0.328571 0.310714 0
0.346429 0.310714 0
0.364286 0.310714 0
0.382143 0.310714 0
0.400000 0.310714 0
0.417857 0.310714 0
0.435714 0.310714 0
0.453571 0.310714 0
0.471429 0.310714 0
0.489286 0.310714 0
0.507143 0.310714 0
0.525000 0.310714 0
0.542857 0.310714 0
0.560714 0.310714 0
0.578571 0.310714 0
0.596429 0.310714 0
0.614286 0.310714 0
0.632143 0.310714 0
0.650000 0.310714 0
0.667857 0.310714 0
0.685714 0.310714 0
0.703571 0.310714 0
0.721429 0.310714 0
0.739286 0.310714 0
0.757143 0.310714 0
0.775000 0.310714 0
0.792857 0.310714 0
0.810714 0.310714 0
0.828571 0.310714 0
0.846429 0.310714 0
0.864286 0.310714 0
0.150000 0.328571 0
0.167857 0.328571 0
0.185714 0.328571 0
0.203571 0.328571 0
0.221429 0.328571 0
0.239286 0.328571 0
0.257143 0.328571 0
0.275000 0.328571 0
0.292857 0.328571 0
0.310714 0.328571 0
0.328571 0.328571 0
0.346429 0.328571 0
0.364286 0.328571 0
0.382143 0.328571 0
0.400000 0.328571 0
0.417857 0.328571 0
0.435714 0.328571 0
0.453571 0.328571 0
0.471429 0.328571 0
0.489286 0.328571 0
0.507143 0.328571 0
0.525000 0.328571 0
0.542857 0.328571 0
0.560714 0.328571 0
0.578571 0.328571 0
0.596429 0.328571 0
0.614286 0.328571 0
0.632143 0.328571 0
0.650000 0.328571 0
0.667857 0.328571 0
0.685714 0.328571 0
0.703571 0.328571 0
0.721429 0.328571 0
0.739286 0.328571 0
0.757143 0.328571 0
0.775000 0.328571 0
0.792857 0.328571 0
0.810714 0.328571 0
0.828571 0.328571 0
0.846429 0.328571 0
0.864286 0.328571 0
0.150000 0.346429 0
0.167857 0.346429 0
0.185714 0.346429 0
0.203571 0.346429 0
0.221429 0.346429 0
0.239286 0.346429 0
0.257143 0.346429 0
0.275000 0.346429 0
0.292857 0.346429 0
0.310714 0.346429 0
0.328571 0.346429 0
0.346429 0.346429 0
0.364286 0.346429 0
0.382143 0.346429 0
0.400000 0.346429 0
0.417857 0.346429 0
0.435714 0.346429 0
0.453571 0.346429 0
0.471429 0.346429 0
0.489286 0.346429 0
0.507143 0.346429 0
0.525000 0.346429 0
0.542857 0.346429 0
0.560714 0.346429 0
0.578571 0.346429 0
0.596429 0.346429 0
0.614286 0.346429 0
0.632143 0.346429 0
0.650000 0.346429 0
0.667857 0.346429 0
0.685714 0.346429 0
0.703571 0.346429 0
0.721429 0.346429 0
0.739286 0.346429 0
0.757143 0.346429 0
0.775000 0.346429 0
0.792857 0.346429 0
0.810714 0.346429 0
0.828571 0.346429 0
0.846429 0.346429 0
[...]
POINT_DATA 1681 

VECTORS velocity float
0.000000 0.000000 0
0.005250 0.000000 0
0.011304 0.000000 0
0.013858 0.000000 0
0.014172 0.000000 0
0.013785 0.000000 0
0.011731 0.000000 0
0.016533 0.000000 0
0.020809 0.000000 0
0.011099 0.000000 0
-0.005941 0.000000 0
-0.025105 0.000000 0
-0.044756 0.000000 0
-0.063845 0.000000 0
-0.081669 0.000000 0
-0.097812 0.000000 0
-0.112126 0.000000 0
-0.124472 0.000000 0
-0.134818 0.000000 0
-0.143155 0.000000 0
-0.149500 0.000000 0
-0.153868 0.000000 0
-0.156258 0.000000 0
-0.156691 0.000000 0
-0.155049 0.000000 0
-0.151191 0.000000 0
-0.145043 0.000000 0
-0.136517 0.000000 0
-0.125533 0.000000 0
-0.112032 0.000000 0
-0.096078 0.000000 0
-0.077733 0.000000 0
-0.057241 0.000000 0
-0.035065 0.000000 0
-0.011997 0.000000 0
0.010705 0.000000 0
0.026243 0.000000 0
0.029708 0.000000 0
0.022278 0.000000 0
0.010430 0.000000 0
0.000000 0.000000 0
0.000000 -0.005250 0
0.014544 -0.011304 0
0.027359 -0.008608 0
0.032752 -0.002868 0
0.033188 0.000073 0
0.033263 0.002441 0
0.024159 -0.002747 0
0.005971 -0.009079 0
-0.017444 0.005434 0
-0.048041 0.026750 0
-0.084677 0.036204 0
-0.123326 0.038815 0
-0.161541 0.038739 0
-0.197676 0.036913 0
-0.230696 0.033967 0
-0.260015 0.030456 0
-0.285381 0.026660 0
-0.306681 0.022692 0
-0.323919 0.018683 0
-0.337144 0.014682 0
-0.346424 0.010712 0
-0.351816 0.006758 0
-0.353344 0.002824 0
-0.350990 -0.001209 0
-0.344675 -0.005500 0
-0.334313 -0.010006 0
-0.319751 -0.014674 0
-0.300830 -0.019510 0
-0.277396 -0.024485 0
-0.249343 -0.029456 0
-0.216687 -0.034299 0
-0.179584 -0.038837 0
-0.138501 -0.042668 0
-0.094418 -0.045244 0
-0.049166 -0.045770 0
-0.006049 -0.038239 0
0.029042 -0.019003 0
0.046160 0.003965 0
0.035920 0.019277 0
0.016787 0.022278 0
0.000000 0.010430 0
0.000000 -0.014544 0
0.017844 -0.027359 0
0.028523 -0.018209 0
0.031912 -0.005828 0
0.020838 -0.000511 0
0.000597 0.009029 0
-0.027475 0.027292 0
-0.071716 0.041602 0
-0.121644 0.054012 0
-0.162650 0.067234 0
-0.199657 0.075285 0
-0.234813 0.076864 0
-0.267380 0.074351 0
-0.296720 0.069155 0
-0.322492 0.062338 0
-0.344557 0.054685 0
-0.362839 0.046667 0
-0.377435 0.038538 0
-0.388448 0.030462 0
-0.395989 0.022505 0
-0.400149 0.014672 0
-0.400987 0.006920 0
-0.398526 -0.000826 0
-0.392695 -0.008669 0
-0.383534 -0.016677 0
-0.371020 -0.024924 0
-0.355018 -0.033482 0
-0.335380 -0.042355 0
-0.311963 -0.051487 0
-0.284662 -0.060709 0
-0.253390 -0.069760 0
-0.218293 -0.078186 0
-0.179767 -0.085166 0
-0.138692 -0.089335 0
-0.096773 -0.088369 0
-0.057058 -0.078209 0
-0.019730 -0.052209 0
0.009825 -0.006878 0
0.016730 0.029373 0
0.007541 0.035920 0
0.000000 0.016787 0
0.000000 -0.023094 0
0.011195 -0.039827 0
0.009985 -0.022676 0
-0.006460 0.004817 0
-0.033306 0.031388 0
-0.072975 0.050754 0
-0.113992 0.069566 0
-0.154405 0.085091 0
-0.195049 0.096368 0
-0.231656 0.104763 0
-0.263029 0.108368 0
-0.290616 0.106537 0
-0.314811 0.100646 0
-0.335806 0.092026 0
-0.353756 0.081805 0
-0.368794 0.070803 0
-0.381015 0.059539 0
-0.390538 0.048301 0
-0.397452 0.037236 0
-0.401823 0.026383 0
-0.403684 0.015711 0
-0.403036 0.005135 0
-0.399850 -0.005468 0
-0.394077 -0.016201 0
-0.385665 -0.027176 0
-0.374489 -0.038522 0
-0.360433 -0.050314 0
-0.343359 -0.062565 0
-0.323135 -0.075203 0
-0.299652 -0.088029 0
-0.272832 -0.100668 0
-0.242742 -0.112460 0
-0.209624 -0.122270 0
-0.174008 -0.128238 0
-0.136822 -0.127403 0
-0.099405 -0.115282 0
-0.063124 -0.085886 0
-0.028470 -0.032496 0
0.000896 0.021562 0
-0.000478 0.039008 0
0.000000 0.017971 0
0.000000 -0.025738 0
-0.007535 -0.037344 0
-0.029529 -0.000554 0
-0.061735 0.037462 0
-0.094511 0.066003 0
-0.131365 0.089715 0
-0.169121 0.108723 0
-0.204792 0.122660 0
-0.238198 0.131263 0
-0.267694 0.135214 0
-0.292487 0.134245 0
-0.313400 0.128645 0
-0.331105 0.119540 0
-0.346120 0.108100 0
-0.358794 0.095326 0
-0.369345 0.081944 0
-0.377890 0.068410 0
-0.384501 0.054975 0
-0.389207 0.041748 0
-0.392014 0.028738 0
-0.392901 0.015885 0
-0.391831 0.003086 0
-0.388754 -0.009786 0
-0.383644 -0.022855 0
-0.376400 -0.036265 0
-0.366928 -0.050156 0
-0.355120 -0.064613 0
-0.340861 -0.079652 0
-0.324038 -0.095194 0
-0.304548 -0.111012 0
-0.282315 -0.126669 0
-0.257321 -0.141394 0
-0.229620 -0.153900 0
-0.199353 -0.162137 0
-0.166731 -0.162973 0
-0.131958 -0.151907 0
-0.095062 -0.123144 0
-0.055926 -0.070897 0
-0.014704 0.001381 0
-0.003982 0.036816 0
0.000000 0.016309 0
0.000000 -0.015559 0
-0.028989 -0.010298 0
-0.064756 0.031523 0
-0.097850 0.069799 0
-0.132569 0.101018 0
-0.167311 0.125364 0
-0.200771 0.142993 0
-0.231308 0.154168 0
-0.258507 0.159270 0
-0.281770 0.159052 0
-0.301005 0.154074 0
-0.316860 0.145155 0
-0.329998 0.133366 0
-0.340956 0.119715 0
-0.350091 0.105030 0
-0.357611 0.089899 0
-0.363622 0.074694 0
-0.368175 0.059618 0
-0.371287 0.044749 0
-0.372952 0.030077 0
-0.373153 0.015528 0
-0.371856 0.000988 0
-0.369021 -0.013656 0
-0.364623 -0.028555 0
-0.358568 -0.043891 0
-0.350772 -0.059802 0
-0.341140 -0.076381 0
-0.329575 -0.093647 0
-0.315979 -0.111516 0
-0.300259 -0.129751 0
-0.282326 -0.147895 0
-0.262099 -0.165154 0
-0.239475 -0.180238 0
-0.214290 -0.191127 0
-0.186247 -0.194798 0
-0.154826 -0.186950 0
-0.119265 -0.161919 0
-0.078864 -0.112855 0
-0.034353 -0.030382 0
0.003648 0.024305 0
0.000000 0.013990 0
0.000000 0.003250 0
-0.040447 0.027412 0
-0.080242 0.068307 0
-0.117259 0.105274 0
-0.152375 0.135464 0
-0.185030 0.157918 0
-0.214683 0.172720 0
-0.240685 0.180395 0
-0.262917 0.181726 0
-0.281374 0.177712 0
-0.296366 0.169335 0
-0.308495 0.157639 0
-0.318341 0.143637 0
-0.326368 0.128193 0
-0.332890 0.111981 0
-0.338106 0.095475 0
-0.342130 0.078974 0
-0.345032 0.062639 0
-0.346850 0.046525 0
-0.347599 0.030604 0
-0.347279 0.014789 0
-0.345874 -0.001045 0
-0.343358 -0.017019 0
-0.339674 -0.033308 0
-0.334752 -0.050116 0
-0.328511 -0.067584 0
-0.320864 -0.085809 0
-0.311722 -0.104813 0
-0.300995 -0.124510 0
-0.288595 -0.144665 0
-0.274425 -0.164829 0
-0.258365 -0.184245 0
-0.240223 -0.201709 0
-0.219663 -0.215365 0
-0.196103 -0.222437 0
-0.168608 -0.218889 0
-0.135906 -0.199106 0
-0.096694 -0.155809 0
-0.050301 -0.081131 0
0.004739 0.002463 0
0.000000 0.019957 0
0.000000 0.024888 0
-0.043572 0.069944 0
-0.086064 0.108336 0
-0.124461 0.141932 0
-0.158963 0.168789 0
-0.189459 0.187672 0
-0.215880 0.198648 0
-0.238184 0.202403 0
-0.256594 0.199958 0
-0.271455 0.192501 0
-0.283264 0.181195 0
-0.292587 0.167130 0
-0.299926 0.151238 0
-0.305680 0.134264 0
-0.310137 0.116768 0
-0.313500 0.099138 0
-0.315914 0.081621 0
-0.317477 0.064338 0
-0.318256 0.047317 0
-0.318292 0.030506 0
-0.317600 0.013803 0
-0.316178 -0.002933 0
-0.314005 -0.019856 0
-0.311011 -0.037161 0
-0.307135 -0.055055 0
-0.302294 -0.073690 0
-0.296401 -0.093170 0
-0.289366 -0.113516 0
-0.281098 -0.134643 0
-0.271502 -0.156321 0
-0.260477 -0.178125 0
-0.247885 -0.199357 0
-0.233506 -0.218940 0
-0.216957 -0.235247 0
-0.197569 -0.245853 0
-0.174255 -0.247147 0
-0.145470 -0.233833 0
-0.109475 -0.198459 0
-0.065380 -0.131816 0
-0.016087 -0.025996 0
0.000000 0.018729 0
0.000000 0.046822 0
-0.043042 0.113476 0
-0.085709 0.149197 0
-0.123557 0.178173 0
-0.156578 0.200463 0
-0.184804 0.214835 0
-0.208425 0.221444 0
-0.227739 0.221110 0
-0.243203 0.214997 0
-0.255340 0.204382 0
-0.264711 0.190467 0
-0.271845 0.174301 0
-0.277192 0.156729 0
-0.281114 0.138403 0
-0.283894 0.119802 0
-0.285753 0.101252 0
-0.286861 0.082950 0
-0.287347 0.064982 0
-0.287305 0.047340 0
-0.286796 0.029948 0
-0.285850 0.012675 0
-0.284473 -0.004641 0
-0.282644 -0.022185 0
-0.280302 -0.040178 0
-0.277375 -0.058834 0
-0.273780 -0.078318 0
-0.269420 -0.098737 0
-0.264196 -0.120117 0
-0.258004 -0.142374 0
-0.250737 -0.165285 0
-0.242282 -0.188447 0
-0.232491 -0.211216 0
-0.221154 -0.232636 0
-0.207916 -0.251302 0
-0.192171 -0.265139 0
-0.172917 -0.270988 0
-0.148664 -0.263886 0
-0.117635 -0.235899 0
-0.078850 -0.174518 0
-0.035380 -0.062918 0
0.000000 0.003870 0
0.000000 0.067930 0
-0.040700 0.155653 0
-0.081581 0.188850 0
-0.117558 0.212801 0
-0.148440 0.230036 0
-0.174283 0.239519 0
-0.195391 0.241584 0
-0.212222 0.237181 0
-0.225342 0.227559 0
-0.235341 0.214008 0
-0.242779 0.197700 0
-0.248153 0.179611 0
-0.251879 0.160507 0
-0.254303 0.140966 0
-0.255712 0.121407 0
-0.256345 0.102105 0
-0.256395 0.083215 0
-0.256015 0.064782 0
-0.255322 0.046765 0
-0.254396 0.029051 0
-0.253281 0.011480 0
-0.251989 -0.006140 0
-0.250502 -0.024027 0
-0.248760 -0.042430 0
-0.246686 -0.061576 0
-0.244187 -0.081646 0
-0.241156 -0.102754 0
-0.237480 -0.124932 0
-0.233037 -0.148101 0
-0.227703 -0.172043 0
-0.221342 -0.196371 0
-0.213800 -0.220485 0
-0.204873 -0.243515 0
-0.194260 -0.264230 0
-0.181467 -0.280852 0
-0.165664 -0.290654 0
-0.145518 -0.289114 0
-0.119156 -0.268274 0
-0.084694 -0.214071 0
-0.042226 -0.104846 0
0.000000 -0.016651 0
0.000000 0.087522 0
-0.037257 0.195057 0
-0.075229 0.226055 0
-0.108524 0.245033 0
-0.136842 0.257188 0
-0.160222 0.261785 0
-0.179001 0.259382 0
-0.193684 0.251061 0
-0.204859 0.238116 0
-0.213110 0.221819 0
-0.218970 0.203280 0
-0.222900 0.183400 0
-0.225294 0.162879 0
-0.226490 0.142237 0
-0.226781 0.121844 0
-0.226418 0.101934 0
-0.225613 0.082620 0
-0.224539 0.063909 0
-0.223332 0.045721 0
-0.222088 0.027907 0
-0.220865 0.010269 0
-0.219680 -0.007419 0
-0.218516 -0.025415 0
-0.217311 -0.043994 0
-0.215983 -0.063407 0
-0.214430 -0.083847 0
-0.212534 -0.105444 0
-0.210166 -0.128236 0
-0.207188 -0.152151 0
-0.203455 -0.176981 0
-0.198812 -0.202350 0
-0.193090 -0.227685 0
-0.186086 -0.252176 0
-0.177537 -0.274709 0
-0.167049 -0.293736 0
-0.153968 -0.306937 0
-0.137151 -0.310394 0
-0.114699 -0.296723 0
-0.083993 -0.251449 0
-0.043311 -0.147611 0
0.000000 -0.038356 0
0.000000 0.105187 0
-0.033188 0.230882 0
-0.067651 0.260117 0
-0.097824 0.274414 0
-0.123343 0.281734 0
-0.144232 0.281678 0
-0.160812 0.275046 0
-0.173573 0.263040 0
-0.183071 0.246985 0
-0.189847 0.228119 0
-0.194390 0.207490 0
-0.197127 0.185935 0
-0.198432 0.164097 0
-0.198633 0.142454 0
-0.198026 0.121335 0
-0.196870 0.100937 0
-0.195388 0.081336 0
-0.193770 0.062502 0
-0.192165 0.044314 0
-0.190685 0.026584 0
-0.189397 0.009072 0
-0.188323 -0.008488 0
-0.187445 -0.026397 0
-0.186699 -0.044963 0
-0.185999 -0.064457 0
-0.185234 -0.085095 0
-0.184277 -0.107018 0
-0.182986 -0.130278 0
-0.181210 -0.154812 0
-0.178789 -0.180419 0
-0.175551 -0.206736 0
-0.171314 -0.233211 0
-0.165870 -0.259068 0
-0.158975 -0.283267 0
-0.150304 -0.304421 0
-0.139352 -0.320552 0
-0.125203 -0.328383 0
-0.106136 -0.321432 0
-0.079322 -0.285459 0
-0.042037 -0.188839 0
0.000000 -0.059962 0
0.000000 0.120709 0
-0.028809 0.262709 0
-0.059487 0.290691 0
-0.086340 0.300724 0
-0.108971 0.303596 0
-0.127389 0.299254 0
-0.141879 0.288724 0
-0.152884 0.273320 0
-0.160900 0.254390 0
-0.166409 0.233139 0
-0.169849 0.210560 0
-0.171610 0.187441 0
-0.172043 0.164384 0
-0.171466 0.141832 0
-0.170168 0.120081 0
-0.168409 0.099296 0
-0.166420 0.079520 0
-0.164398 0.060686 0
-0.162504 0.042637 0
-0.160857 0.025138 0
-0.159533 0.007906 0
-0.158558 -0.009371 0
-0.157914 -0.027038 0
-0.157534 -0.045441 0
-0.157329 -0.064872 0
-0.157184 -0.085569 0
-0.156963 -0.107692 0
-0.156520 -0.131303 0
-0.155693 -0.156348 0
-0.154316 -0.182639 0
-0.152207 -0.209825 0
-0.149177 -0.237367 0
-0.145016 -0.264515 0
-0.139490 -0.290274 0
-0.132315 -0.313358 0
-0.123095 -0.332038 0
-0.111142 -0.343609 0
-0.095050 -0.342604 0
-0.072136 -0.315548 0
-0.039069 -0.226933 0
0.000000 -0.080393 0
0.000000 0.133996 0
-0.024323 0.290369 0
-0.051132 0.317649 0
-0.074625 0.323898 0
-0.094376 0.322782 0
-0.110383 0.314586 0
-0.122891 0.300541 0
-0.132278 0.282060 0
-0.138971 0.260510 0
-0.143389 0.237068 0
-0.145915 0.212692 0
-0.146902 0.188129 0
-0.146672 0.163953 0
-0.145526 0.140579 0
-0.143742 0.118278 0
-0.141572 0.097190 0
-0.139246 0.077325 0
-0.136959 0.058585 0
-0.134877 0.040773 0
-0.133125 0.023613 0
-0.131783 0.006774 0
-0.130883 -0.010107 0
-0.130403 -0.027421 0
-0.130282 -0.045548 0
-0.130428 -0.064807 0
-0.130724 -0.085460 0
-0.131034 -0.107682 0
-0.131207 -0.131548 0
-0.131084 -0.157016 0
-0.130495 -0.183905 0
-0.129262 -0.211875 0
-0.127197 -0.240402 0
-0.124096 -0.268755 0
-0.119734 -0.295969 0
-0.113858 -0.320816 0
-0.106149 -0.341725 0
-0.096110 -0.356429 0
-0.082693 -0.360438 0
-0.063581 -0.341440 0
-0.035146 -0.260975 0
0.000000 -0.099031 0
0.000000 0.145032 0
-0.019845 0.313841 0
-0.042814 0.340993 0
-0.062999 0.343968 0
-0.079939 0.339355 0
-0.093628 0.327769 0
-0.104263 0.310618 0
-0.112160 0.289401 0
-0.117676 0.265501 0
-0.121164 0.240083 0
-0.122955 0.214073 0
-0.123360 0.188198 0
-0.122671 0.163009 0
-0.121165 0.138901 0
-0.119099 0.116127 0
-0.116712 0.094800 0
-0.114218 0.074907 0
-0.111807 0.056318 0
-0.109639 0.038802 0
-0.107838 0.022044 0
-0.106489 0.005664 0
-0.105628 -0.010750 0
-0.105238 -0.027639 0
-0.105258 -0.045416 0
-0.105602 -0.064430 0
-0.106156 -0.084963 0
-0.106787 -0.107209 0
-0.107349 -0.131253 0
-0.107690 -0.157061 0
-0.107647 -0.184462 0
-0.107054 -0.213123 0
-0.105736 -0.242533 0
-0.103503 -0.271977 0
-0.100150 -0.300512 0
-0.095450 -0.326943 0
-0.089143 -0.349786 0
-0.080874 -0.367066 0
-0.069924 -0.375133 0
-0.054440 -0.363094 0
-0.030750 -0.290514 0
0.000000 -0.115539 0
0.000000 0.153841 0
-0.015428 0.333183 0
-0.034646 0.360803 0
-0.051625 0.361023 0
-0.065858 0.353410 0
-0.077334 0.338910 0
-0.086212 0.319074 0
-0.092743 0.295474 0
-0.097218 0.269513 0
-0.099928 0.242347 0
-0.101154 0.214888 0
-0.101162 0.187845 0
-0.100212 0.161758 0
-0.098547 0.137006 0
-0.096399 0.113825 0
-0.093981 0.092309 0
-0.091487 0.072421 0
-0.089089 0.054006 0
-0.086933 0.036803 0
-0.085139 0.020463 0
-0.083793 0.004564 0
-0.082936 -0.011359 0
-0.082557 -0.027792 0
-0.082603 -0.045183 0
-0.082993 -0.063910 0
-0.083622 -0.084276 0
-0.084369 -0.106489 0
-0.085100 -0.130645 0
-0.085678 -0.156718 0
-0.085956 -0.184540 0
-0.085788 -0.213787 0
-0.085018 -0.243954 0
-0.083486 -0.274340 0
-0.081014 -0.304021 0
-0.077406 -0.331823 0
-0.072450 -0.356301 0
-0.065895 -0.375648 0
-0.057277 -0.386872 0
-0.045221 -0.380614 0
-0.026200 -0.315415 0
0.000000 -0.129781 0
0.000000 0.160460 0
-0.011086 0.348487 0
-0.026661 0.377191 0
-0.040555 0.375180 0
-0.052197 0.365064 0
-0.061574 0.348123 0
-0.068807 0.326027 0
-0.074090 0.300407 0
-0.077652 0.272687 0
-0.079727 0.244018 0
-0.080544 0.215307 0
-0.080328 0.187256 0
-0.079297 0.160394 0
-0.077659 0.135089 0
-0.075612 0.111561 0
-0.073335 0.089888 0
-0.070993 0.070014 0
-0.068733 0.051763 0
-0.066683 0.034852 0
-0.064952 0.018904 0
-0.063624 0.003461 0
-0.062744 -0.011986 0
-0.062310 -0.027972 0
-0.062275 -0.044980 0
-0.062569 -0.063411 0
-0.063102 -0.083588 0
-0.063773 -0.105730 0
-0.064470 -0.129943 0
-0.065077 -0.156205 0
-0.065472 -0.184352 0
-0.065535 -0.214061 0
-0.065143 -0.244835 0
-0.064167 -0.275981 0
-0.062467 -0.306591 0
-0.059886 -0.335507 0
-0.056257 -0.361298 0
-0.051400 -0.382239 0
-0.045037 -0.395807 0
-0.036213 -0.394172 0
-0.021687 -0.335735 0
0.000000 -0.141739 0
0.000000 0.164927 0
-0.006812 0.359844 0
-0.018842 0.390272 0
-0.029767 0.386559 0
-0.038931 0.374429 0
-0.046316 0.355520 0
-0.052008 0.331589 0
-0.056150 0.304319 0
-0.058914 0.275150 0
-0.060480 0.245239 0
-0.061026 0.215489 0
-0.060734 0.186598 0
-0.059779 0.159089 0
-0.058326 0.133321 0
-0.056534 0.109501 0
-0.054544 0.087690 0
-0.052484 0.067819 0
-0.050472 0.049696 0
-0.048613 0.033022 0
-0.047003 0.017404 0
-0.045718 0.002356 0
-0.044798 -0.012673 0
-0.044255 -0.028261 0
-0.044050 -0.044924 0
-0.044125 -0.063082 0
-0.044414 -0.083071 0
-0.044842 -0.105120 0
-0.045328 -0.129342 0
-0.045783 -0.155716 0
-0.046121 -0.184082 0
-0.046254 -0.214115 0
-0.046097 -0.245322 0
-0.045559 -0.277016 0
-0.044543 -0.308302 0
-0.042936 -0.338034 0
-0.040616 -0.364787 0
-0.037461 -0.386868 0
-0.033309 -0.402059 0
-0.027547 -0.403964 0
-0.017306 -0.351628 0
0.000000 -0.151467 0
0.000000 0.167272 0
-0.002611 0.367329 0
-0.011132 0.400146 0
-0.019187 0.395269 0
-0.025969 0.381613 0
-0.031455 0.361200 0
-0.035696 0.335861 0
-0.038789 0.307313 0
-0.040851 0.277016 0
-0.042010 0.246130 0
-0.042398 0.215562 0
-0.042148 0.186009 0
-0.041390 0.157986 0
-0.040245 0.131844 0
-0.038827 0.107778 0
-0.037236 0.085838 0
-0.035561 0.065943 0
-0.033886 0.047893 0
-0.032291 0.031384 0
-0.030856 0.016009 0
-0.029652 0.001256 0
-0.028684 -0.013449 0
-0.027992 -0.028720 0
-0.027544 -0.045110 0
-0.027301 -0.063047 0
-0.027227 -0.082870 0
-0.027280 -0.104817 0
-0.027414 -0.129003 0
-0.027578 -0.155412 0
-0.027723 -0.183881 0
-0.027802 -0.214085 0
-0.027770 -0.245530 0
-0.027582 -0.277536 0
-0.027184 -0.309214 0
-0.026512 -0.339433 0
-0.025491 -0.366773 0
-0.024044 -0.389546 0
-0.022085 -0.405720 0
-0.019250 -0.410175 0
-0.013088 -0.363282 0
0.000000 -0.159045 0
0.000000 0.167538 0
0.001466 0.370977 0
-0.003432 0.406848 0
-0.008694 0.401395 0
-0.013184 0.386698 0
-0.016841 0.365247 0
-0.019701 0.338923 0
-0.021813 0.309474 0
-0.023244 0.278371 0
-0.024072 0.246786 0
-0.024379 0.215626 0
-0.024252 0.185590 0
-0.023773 0.157187 0
-0.023019 0.130759 0
-0.022054 0.106491 0
-0.020938 0.084424 0
-0.019720 0.064469 0
-0.018451 0.046426 0
-0.017178 0.029993 0
-0.015957 0.014765 0
-0.014845 0.000183 0
-0.013853 -0.014334 0
-0.012981 -0.029400 0
-0.012233 -0.045615 0
-0.011603 -0.063399 0
-0.011085 -0.083092 0
-0.010676 -0.104934 0
-0.010365 -0.129044 0
-0.010145 -0.155407 0
-0.010009 -0.183858 0
-0.009954 -0.214068 0
-0.009980 -0.245542 0
-0.010087 -0.277602 0
-0.010269 -0.309371 0
-0.010510 -0.339726 0
-0.010782 -0.367255 0
-0.011052 -0.390274 0
-0.011282 -0.406854 0
-0.011276 -0.412961 0
-0.009021 -0.370877 0
0.000000 -0.164556 0
0.000000 0.165806 0
0.005452 0.370761 0
0.004315 0.410305 0
0.001833 0.405020 0
-0.000407 0.389760 0
-0.002286 0.367717 0
-0.003810 0.340832 0
-0.004987 0.310857 0
-0.005832 0.279275 0
-0.006372 0.247265 0
-0.006641 0.215742 0
-0.006679 0.185403 0
-0.006520 0.156752 0
-0.006193 0.130125 0
-0.005721 0.105698 0
-0.005117 0.083504 0
-0.004397 0.063455 0
-0.003573 0.045350 0
-0.002665 0.028890 0
-0.001687 0.013676 0
-0.000660 -0.000849 0
0.000369 -0.015314 0
0.001440 -0.030339 0
0.002516 -0.046488 0
0.003565 -0.064195 0
0.004558 -0.083798 0
0.005466 -0.105537 0
0.006256 -0.129533 0
0.006896 -0.155768 0
0.007347 -0.184072 0
0.007565 -0.214114 0
0.007504 -0.245397 0
0.007118 -0.277246 0
0.006366 -0.308792 0
0.005217 -0.338921 0
0.003650 -0.366231 0
0.001655 -0.389045 0
-0.000771 -0.405497 0
-0.003535 -0.412436 0
-0.005061 -0.374558 0
0.000000 -0.168067 0
0.000000 0.162087 0
0.009463 0.366662 0
0.012167 0.410466 0
0.012508 0.406117 0
0.012514 0.390817 0
0.012391 0.368650 0
0.012184 0.341624 0
0.011928 0.311495 0
0.011658 0.279756 0
0.011398 0.247596 0
0.011163 0.215934 0
0.010963 0.185468 0
0.010807 0.156701 0
0.010713 0.129960 0
0.010702 0.105415 0
0.010799 0.083100 0
0.011026 0.062925 0
0.011403 0.044694 0
0.011945 0.028107 0
0.012672 0.012761 0
0.013601 -0.001873 0
0.014708 -0.016434 0
0.015984 -0.031547 0
0.017380 -0.047740 0
0.018835 -0.065442 0
0.020288 -0.084992 0
0.021676 -0.106631 0
0.022931 -0.130475 0
0.023974 -0.156498 0
0.024721 -0.184527 0
0.025083 -0.214225 0
0.024966 -0.245094 0
0.024278 -0.276464 0
0.022932 -0.307471 0
0.020850 -0.337011 0
0.017961 -0.363694 0
0.014214 -0.385853 0
0.009576 -0.401663 0
0.004089 -0.408671 0
-0.001130 -0.374412 0
0.000000 -0.169616 0
0.000000 0.156343 0
0.013575 0.358594 0
0.020240 0.407261 0
0.023463 0.404673 0
0.025703 0.389877 0
0.027333 0.368047 0
0.028447 0.341295 0
0.029126 0.311382 0
0.029454 0.279804 0
0.029508 0.247760 0
0.029349 0.216178 0
0.029036 0.185758 0
0.028623 0.157002 0
0.028169 0.130231 0
0.027735 0.105612 0
0.027382 0.083181 0
0.027168 0.062851 0
0.027147 0.044431 0
0.027367 0.027621 0
0.027876 0.012020 0
0.028712 -0.002885 0
0.029878 -0.017697 0
0.031331 -0.033012 0
0.033001 -0.049338 0
0.034809 -0.067103 0
0.036667 -0.086639 0
0.038479 -0.108179 0
0.040138 -0.131830 0
0.041523 -0.157558 0
0.042505 -0.185181 0
0.042949 -0.214359 0
0.042716 -0.244592 0
0.041668 -0.275213 0
0.039672 -0.305364 0
0.036600 -0.333950 0
0.032336 -0.359595 0