# vtk DataFile Version 2.0
generated by CFD-lab course output (written by Tobias Neckel) 
ASCII

DATASET STRUCTURED_GRID
DIMENSIONS  41 41 1 
POINTS 1681 float

0.150000 0.150000 0
0.167857 0.150000 0
0.185714 0.150000 0
0.203571 0.150000 0
0.221429 0.150000 0
0.239286 0.150000 0
0.257143 0.150000 0
0.275000 0.150000 0
0.292857 0.150000 0
0.310714 0.150000 0
0.328571 0.150000 0
0.346429 0.150000 0
0.364286 0.150000 0
0.382143 0.150000 0
0.400000 0.150000 0
0.417857 0.150000 0
0.435714 0.150000 0
0.453571 0.150000 0
0.471429 0.150000 0
0.489286 0.150000 0
0.507143 0.150000 0
0.525000 0.150000 0
0.542857 0.150000 0
0.560714 0.150000 0
0.578571 0.150000 0
0.596429 0.150000 0
0.614286 0.150000 0
0.632143 0.150000 0
0.650000 0.150000 0
0.667857 0.150000 0
0.685714 0.150000 0
0.703571 0.150000 0
0.721429 0.150000 0
0.739286 0.150000 0
0.757143 0.150000 0
0.775000 0.150000 0
0.792857 0.150000 0
0.810714 0.150000 0
0.828571 0.150000 0
0.846429 0.150000 0
0.864286 0.150000 0
0.150000 0.167857 0
0.167857 0.167857 0
0.185714 0.167857 0
0.203571 0.167857 0
0.221429 0.167857 0
0.239286 0.167857 0
0.257143 0.167857 0
0.275000 0.167857 0
0.292857 0.167857 0
0.310714 0.167857 0
0.328571 0.167857 0
0.346429 0.167857 0
0.364286 0.167857 0
0.382143 0.167857 0
0.400000 0.167857 0
0.417857 0.167857 0
0.435714 0.167857 0
0.453571 0.167857 0
0.471429 0.167857 0
0.489286 0.167857 0
0.507143 0.167857 0
0.525000 0.167857 0
0.542857 0.167857 0
0.560714 0.167857 0
0.578571 0.167857 0
0.596429 0.167857 0
0.614286 0.167857 0
0.632143 0.167857 0
0.650000 0.167857 0
0.667857 0.167857 0
0.685714 0.167857 0
0.703571 0.167857 0
0.721429 0.167857 0
0.739286 0.167857 0
0.757143 0.167857 0
0.775000 0.167857 0
0.792857 0.167857 0
0.810714 0.167857 0
0.828571 0.167857 0
0.846429 0.167857 0
0.864286 0.167857 0
0.150000 0.185714 0
0.167857 0.185714 0
0.185714 0.185714 0
0.203571 0.185714 0
0.221429 0.185714 0
0.239286 0.185714 0
0.257143 0.185714 0
0.275000 0.185714 0
0.292857 0.185714 0
0.310714 0.185714 0
0.328571 0.185714 0
0.346429 0.185714 0
0.364286 0.185714 0
0.382143 0.185714 0
0.400000 0.185714 0
0.417857 0.185714 0
0.435714 0.185714 0
0.453571 0.185714 0
0.471429 0.185714 0
0.489286 0.185714 0
0.507143 0.185714 0
0.525000 0.185714 0
0.542857 0.185714 0
0.560714 0.185714 0
0.578571 0.185714 0
0.596429 0.185714 0
0.614286 0.185714 0
0.632143 0.185714 0
0.650000 0.185714 0
0.667857 0.185714 0
0.685714 0.185714 0
0.703571 0.185714 0
0.721429 0.185714 0
0.739286 0.185714 0
0.757143 0.185714 0
0.775000 0.185714 0
0.792857 0.185714 0
0.810714 0.185714 0
0.828571 0.185714 0
0.846429 0.185714 0
0.864286 0.185714 0
0.150000 0.203571 0
0.167857 0.203571 0
0.185714 0.203571 0
0.203571 0.203571 0
0.221429 0.203571 0
0.239286 0.203571 0
0.257143 0.203571 0
0.275000 0.203571 0
0.292857 0.203571 0
0.310714 0.203571 0
0.328571 0.203571 0
0.346429 0.203571 0
0.364286 0.203571 0
0.382143 0.203571 0
0.400000 0.203571 0
0.417857 0.203571 0
0.435714 0.203571 0
0.453571 0.203571 0
0.471429 0.203571 0
0.489286 0.203571 0
0.507143 0.203571 0
0.525000 0.203571 0
0.542857 0.203571 0
0.560714 0.203571 0
0.578571 0.203571 0
0.596429 0.203571 0
0.614286 0.203571 0
0.632143 0.203571 0
0.650000 0.203571 0
0.667857 0.203571 0
0.685714 0.203571 0
0.703571 0.203571 0
0.721429 0.203571 0
0.739286 0.203571 0
0.757143 0.203571 0
0.775000 0.203571 0
0.792857 0.203571 0
0.810714 0.203571 0
0.828571 0.203571 0
0.846429 0.203571 0
0.864286 0.203571 0
0.150000 0.221429 0
0.167857 0.221429 0
0.185714 0.221429 0
0.203571 0.221429 0
0.221429 0.221429 0
0.239286 0.221429 0
0.257143 0.221429 0
0.275000 0.221429 0
0.292857 0.221429 0
0.310714 0.221429 0
0.328571 0.221429 0
0.346429 0.221429 0
0.364286 0.221429 0
0.382143 0.221429 0
0.400000 0.221429 0
0.417857 0.221429 0
0.435714 0.221429 0
0.453571 0.221429 0
0.471429 0.221429 0
0.489286 0.221429 0
0.507143 0.221429 0
0.525000 0.221429 0
0.542857 0.221429 0
0.560714 0.221429 0
0.578571 0.221429 0
0.596429 0.221429 0
0.614286 0.221429 0
0.632143 0.221429 0
0.650000 0.221429 0
0.667857 0.221429 0
0.685714 0.221429 0
0.703571 0.221429 0
0.721429 0.221429 0
0.739286 0.221429 0
0.757143 0.221429 0
0.775000 0.221429 0
0.792857 0.221429 0
0.810714 0.221429 0
0.828571 0.221429 0
0.846429 0.221429 0
0.864286 0.221429 0
0.150000 0.239286 0
0.167857 0.239286 0
0.185714 0.239286 0
0.203571 0.239286 0
0.221429 0.239286 0
0.239286 0.239286 0
0.257143 0.239286 0
0.275000 0.239286 0
0.292857 0.239286 0
0.310714 0.239286 0
0.328571 0.239286 0
0.346429 0.239286 0
0.364286 0.239286 0
0.382143 0.239286 0
0.400000 0.239286 0
0.417857 0.239286 0
0.435714 0.239286 0
0.453571 0.239286 0
0.471429 0.239286 0
0.489286 0.239286 0
0.507143 0.239286 0
0.525000 0.239286 0
0.542857 0.239286 0
0.560714 0.239286 0
0.578571 0.239286 0
0.596429 0.239286 0
0.614286 0.239286 0
0.632143 0.239286 0
0.650000 0.239286 0
0.667857 0.239286 0
0.685714 0.239286 0
0.703571 0.239286 0
0.721429 0.239286 0
0.739286 0.239286 0
0.757143 0.239286 0
0.775000 0.239286 0
0.792857 0.239286 0
0.810714 0.239286 0
0.828571 0.239286 0
0.846429 0.239286 0
0.864286 0.239286 0
0.150000 0.257143 0
0.167857 0.257143 0
0.185714 0.257143 0
0.203571 0.257143 0
0.221429 0.257143 0
0.239286 0.257143 0
0.257143 0.257143 0
0.275000 0.257143 0
0.292857 0.257143 0
0.310714 0.257143 0
0.328571 0.257143 0
0.346429 0.257143 0
0.364286 0.257143 0
0.382143 0.257143 0
0.400000 0.257143 0
0.417857 0.257143 0
0.435714 0.257143 0
0.453571 0.257143 0
0.471429 0.257143 0
0.489286 0.257143 0
0.507143 0.257143 0
0.525000 0.257143 0
0.542857 0.257143 0
0.560714 0.257143 0
0.578571 0.257143 0
0.596429 0.257143 0
0.614286 0.257143 0
0.632143 0.257143 0
0.650000 0.257143 0
0.667857 0.257143 0
0.685714 0.257143 0
0.703571 0.257143 0
0.721429 0.257143 0
0.739286 0.257143 0
0.757143 0.257143 0
0.775000 0.257143 0
0.792857 0.257143 0
0.810714 0.257143 0
0.828571 0.257143 0
0.846429 0.257143 0
0.864286 0.257143 0
0.150000 0.275000 0
0.167857 0.275000 0
0.185714 0.275000 0
0.203571 0.275000 0
0.221429 0.275000 0
0.239286 0.275000 0
0.257143 0.275000 0
0.275000 0.275000 0
0.292857 0.275000 0
0.310714 0.275000 0
0.328571 0.275000 0
0.346429 0.275000 0
0.364286 0.275000 0
0.382143 0.275000 0
0.400000 0.275000 0
0.417857 0.275000 0
0.435714 0.275000 0
0.453571 0.275000 0
0.471429 0.275000 0
0.489286 0.275000 0
0.507143 0.275000 0
0.525000 0.275000 0
0.542857 0.275000 0
0.560714 0.275000 0
0.578571 0.275000 0
0.596429 0.275000 0
0.614286 0.275000 0
0.632143 0.275000 0
0.650000 0.275000 0
0.667857 0.275000 0
0.685714 0.275000 0
0.703571 0.275000 0
0.721429 0.275000 0
0.739286 0.275000 0
0.757143 0.275000 0
0.775000 0.275000 0
0.792857 0.275000 0
0.810714 0.275000 0
0.828571 0.275000 0
0.846429 0.275000 0
0.864286 0.275000 0
0.150000 0.292857 0
0.167857 0.292857 0
0.185714 0.292857 0
0.203571 0.292857 0
0.221429 0.292857 0
0.239286 0.292857 0
0.257143 0.292857 0
0.275000 0.292857 0
0.292857 0.292857 0
0.310714 0.292857 0
0.328571 0.292857 0
0.346429 0.292857 0
0.364286 0.292857 0
0.382143 0.292857 0
0.400000 0.292857 0
0.417857 0.292857 0
0.435714 0.292857 0
0.453571 0.292857 0
0.471429 0.292857 0
0.489286 0.292857 0
0.507143 0.292857 0
0.525000 0.292857 0
0.542857 0.292857 0
0.560714 0.292857 0
0.578571 0.292857 0
0.596429 0.292857 0
0.614286 0.292857 0
0.632143 0.292857 0
0.650000 0.292857 0
0.667857 0.292857 0
0.685714 0.292857 0
0.703571 0.292857 0
0.721429 0.292857 0
0.739286 0.292857 0
0.757143 0.292857 0
0.775000 0.292857 0
0.792857 0.292857 0
0.810714 0.292857 0
0.828571 0.292857 0
0.846429 0.292857 0
0.864286 0.292857 0
0.150000 0.310714 0
0.167857 0.310714 0
0.185714 0.310714 0
0.203571 0.310714 0
0.221429 0.310714 0
0.239286 0.310714 0
0.257143 0.310714 0
0.275000 0.310714 0
0.292857 0.310714 0
0.310714 0.310714 0
0.328571 0.310714 0
0.346429 0.310714 0
0.364286 0.310714 0
0.382143 0.310714 0
0.400000 0.310714 0
0.417857 0.310714 0
0.435714 0.310714 0
0.453571 0.310714 0
0.471429 0.310714 0
0.489286 0.310714 0
0.507143 0.310714 0
0.525000 0.310714 0
0.542857 0.310714 0
0.560714 0.310714 0
0.578571 0.310714 0
0.596429 0.310714 0
0.614286 0.310714 0
0.632143 0.310714 0
0.650000 0.310714 0
0.667857 0.310714 0
0.685714 0.310714 0
0.703571 0.310714 0
0.721429 0.310714 0
0.739286 0.310714 0
0.757143 0.310714 0
0.775000 0.310714 0
0.792857 0.310714 0
0.810714 0.310714 0
0.828571 0.310714 0
0.846429 0.310714 0
0.864286 0.310714 0
0.150000 0.328571 0
0.167857 0.328571 0
0.185714 0.328571 0
0.203571 0.328571 0
0.221429 0.328571 0
0.239286 0.328571 0
0.257143 0.328571 0
0.275000 0.328571 0
0.292857 0.328571 0
0.310714 0.328571 0
0.328571 0.328571 0
0.346429 0.328571 0
0.364286 0.328571 0
0.382143 0.328571 0
0.400000 0.328571 0
0.417857 0.328571 0
0.435714 0.328571 0
0.453571 0.328571 0
0.471429 0.328571 0
0.489286 0.328571 0
0.507143 0.328571 0
0.525000 0.328571 0
0.542857 0.328571 0
0.560714 0.328571 0
0.578571 0.328571 0
0.596429 0.328571 0
0.614286 0.328571 0
0.632143 0.328571 0
0.650000 0.328571 0
0.667857 0.328571 0
0.685714 0.328571 0
0.703571 0.328571 0
0.721429 0.328571 0
0.739286 0.328571 0
0.757143 0.328571 0
0.775000 0.328571 0
0.792857 0.328571 0
0.810714 0.328571 0
0.828571 0.328571 0
0.846429 0.328571 0
0.864286 0.328571 0
0.150000 0.346429 0
0.167857 0.346429 0
0.185714 0.346429 0
0.203571 0.346429 0
0.221429 0.346429 0
0.239286 0.346429 0
0.257143 0.346429 0
0.275000 0.346429 0
0.292857 0.346429 0
0.310714 0.346429 0
0.328571 0.346429 0
0.346429 0.346429 0
0.364286 0.346429 0
0.382143 0.346429 0
0.400000 0.346429 0
0.417857 0.346429 0
0.435714 0.346429 0
0.453571 0.346429 0
0.471429 0.346429 0
0.489286 0.346429 0
0.507143 0.346429 0
0.525000 0.346429 0
0.542857 0.346429 0
0.560714 0.346429 0
0.578571 0.346429 0
0.596429 0.346429 0
0.614286 0.346429 0
0.632143 0.346429 0
0.650000 0.346429 0
0.667857 0.346429 0
0.685714 0.346429 0
0.703571 0.346429 0
0.721429 0.346429 0
0.739286 0.346429 0
0.757143 0.346429 0
0.775000 0.346429 0
0.792857 0.346429 0
0.810714 0.346429 0
0.828571 0.346429 0
0.846429 0.346429 0
[...]
POINT_DATA 1681 

VECTORS velocity float
0.000000 0.000000 0
0.004763 0.000000 0
0.010932 0.000000 0
0.014188 0.000000 0
0.015358 0.000000 0
0.013986 0.000000 0
0.013583 0.000000 0
0.018309 0.000000 0
0.017789 0.000000 0
0.007870 0.000000 0
-0.007437 0.000000 0
-0.024396 0.000000 0
-0.041857 0.000000 0
-0.058823 0.000000 0
-0.074676 0.000000 0
-0.089040 0.000000 0
-0.101805 0.000000 0
-0.112850 0.000000 0
-0.122152 0.000000 0
-0.129716 0.000000 0
-0.135564 0.000000 0
-0.139720 0.000000 0
-0.142189 0.000000 0
-0.143007 0.000000 0
-0.142076 0.000000 0
-0.139220 0.000000 0
-0.134348 0.000000 0
-0.127344 0.000000 0
-0.118094 0.000000 0
-0.106495 0.000000 0
-0.092563 0.000000 0
-0.076294 0.000000 0
-0.057852 0.000000 0
-0.037619 0.000000 0
-0.016339 0.000000 0
0.004622 0.000000 0
0.020489 0.000000 0
0.025249 0.000000 0
0.018891 0.000000 0
0.008524 0.000000 0
0.000000 0.000000 0
0.000000 -0.004763 0
0.012899 -0.010932 0
0.025431 -0.009425 0
0.031131 -0.004427 0
0.033858 0.000201 0
0.030052 0.001775 0
0.018497 -0.004323 0
0.001048 -0.004206 0
-0.021335 0.010439 0
-0.050027 0.025226 0
-0.083216 0.032266 0
-0.117867 0.034420 0
-0.152012 0.034427 0
-0.184232 0.032819 0
-0.213625 0.030218 0
-0.239692 0.027130 0
-0.262234 0.023809 0
-0.281175 0.020347 0
-0.296544 0.016866 0
-0.308413 0.013412 0
-0.316869 0.010004 0
-0.321982 0.006625 0
-0.323792 0.003287 0
-0.322291 -0.000113 0
-0.317391 -0.003787 0
-0.308995 -0.007728 0
-0.296918 -0.011876 0
-0.280956 -0.016254 0
-0.260892 -0.020849 0
-0.236542 -0.025531 0
-0.207823 -0.030201 0
-0.174763 -0.034711 0
-0.137675 -0.038675 0
-0.097345 -0.041513 0
-0.055366 -0.042241 0
-0.014693 -0.036828 0
0.019438 -0.020627 0
0.038482 0.001598 0
0.030388 0.016725 0
0.013888 0.018891 0
0.000000 0.008524 0
0.000000 -0.012899 0
0.014569 -0.025431 0
0.023601 -0.018232 0
0.022757 -0.008427 0
0.010307 0.001079 0
-0.008661 0.015361 0
-0.037697 0.029004 0
-0.079179 0.039832 0
-0.120696 0.051075 0
-0.157191 0.061881 0
-0.190705 0.067841 0
-0.222449 0.068796 0
-0.251571 0.066364 0
-0.277634 0.061613 0
-0.300371 0.055460 0
-0.319702 0.048608 0
-0.335591 0.041483 0
-0.348175 0.034310 0
-0.357586 0.027238 0
-0.363967 0.020325 0
-0.367438 0.013569 0
-0.368079 0.006924 0
-0.365932 0.000309 0
-0.360928 -0.006401 0
-0.353086 -0.013296 0
-0.342401 -0.020473 0
-0.328714 -0.028039 0
-0.311843 -0.036026 0
-0.291589 -0.044413 0
-0.267776 -0.053069 0
-0.240218 -0.061779 0
-0.208943 -0.070148 0
-0.174188 -0.077419 0
-0.136629 -0.082308 0
-0.097647 -0.082652 0
-0.059688 -0.074805 0
-0.024294 -0.053175 0
0.004985 -0.010950 0
0.015301 0.024595 0
0.006977 0.030388 0
0.000000 0.013888 0
0.000000 -0.019332 0
0.005601 -0.034532 0
-0.000991 -0.017612 0
-0.018708 0.008867 0
-0.047290 0.031619 0
-0.080824 0.049780 0
-0.116121 0.066194 0
-0.152566 0.078792 0
-0.188595 0.088451 0
-0.220791 0.095235 0
-0.248718 0.097525 0
-0.273191 0.095287 0
-0.294413 0.089612 0
-0.312576 0.081618 0
-0.327857 0.072285 0
-0.340432 0.062350 0
-0.350435 0.052282 0
-0.358035 0.042341 0
-0.363370 0.032659 0
-0.366551 0.023264 0
-0.367649 0.014116 0
-0.366699 0.005119 0
-0.363695 -0.003864 0
-0.358602 -0.012959 0
-0.351378 -0.022314 0
-0.341884 -0.032099 0
-0.329983 -0.042434 0
-0.315502 -0.053379 0
-0.298259 -0.064915 0
-0.278071 -0.076902 0
-0.254770 -0.089035 0
-0.228308 -0.100741 0
-0.198786 -0.110988 0
-0.166560 -0.118054 0
-0.132346 -0.119182 0
-0.097277 -0.110181 0
-0.062701 -0.085301 0
-0.029767 -0.037996 0
0.001050 0.014733 0
0.000434 0.034192 0
0.000000 0.015502 0
0.000000 -0.018500 0
-0.012538 -0.024440 0
-0.038260 0.006077 0
-0.067895 0.037872 0
-0.098485 0.063194 0
-0.131874 0.084193 0
-0.165118 0.100747 0
-0.196976 0.112306 0
-0.226597 0.119299 0
-0.252374 0.122003 0
-0.273979 0.120241 0
-0.291983 0.114491 0
-0.306924 0.105748 0
-0.319273 0.095057 0
-0.329388 0.083316 0
-0.337528 0.071186 0
-0.343866 0.059087 0
-0.348536 0.047246 0
-0.351630 0.035754 0
-0.353205 0.024604 0
-0.353286 0.013718 0
-0.351868 0.002970 0
-0.348922 -0.007788 0
-0.344440 -0.018718 0
-0.338312 -0.030015 0
-0.330431 -0.041869 0
-0.320668 -0.054421 0
-0.308874 -0.067750 0
-0.294886 -0.081845 0
-0.278539 -0.096558 0
-0.259672 -0.111542 0
-0.238168 -0.126132 0
-0.213967 -0.139167 0
-0.187082 -0.148748 0
-0.157603 -0.151934 0
-0.125659 -0.144451 0
-0.091317 -0.120686 0
-0.054575 -0.074701 0
-0.015935 -0.005606 0
-0.001678 0.031438 0
0.000000 0.014322 0
0.000000 -0.006794 0
-0.030346 0.003728 0
-0.064775 0.037746 0
-0.097223 0.069091 0
-0.129747 0.095598 0
-0.161666 0.116413 0
-0.191636 0.131296 0
-0.218829 0.140271 0
-0.242737 0.143849 0
-0.262800 0.142617 0
-0.279094 0.137134 0
-0.292164 0.128232 0
-0.302606 0.116902 0
-0.310933 0.104082 0
-0.317524 0.090540 0
-0.322641 0.076828 0
-0.326455 0.063290 0
-0.329086 0.050105 0
-0.330609 0.037328 0
-0.331072 0.024920 0
-0.330494 0.012779 0
-0.328869 0.000755 0
-0.326172 -0.011292 0
-0.322375 -0.023569 0
-0.317379 -0.036322 0
-0.311088 -0.049743 0
-0.303387 -0.063992 0
-0.294149 -0.079161 0
-0.283235 -0.095250 0
-0.270497 -0.112116 0
-0.255777 -0.129407 0
-0.238913 -0.146446 0
-0.219716 -0.162074 0
-0.197932 -0.174418 0
-0.173197 -0.180604 0
-0.144967 -0.176468 0
-0.112543 -0.156385 0
-0.075358 -0.113378 0
-0.034082 -0.038164 0
0.005218 0.018256 0
0.000000 0.013824 0
0.000000 0.011846 0
-0.038735 0.040335 0
-0.076607 0.072954 0
-0.111942 0.102844 0
-0.144807 0.127637 0
-0.174862 0.146081 0
-0.201578 0.157910 0
-0.224641 0.163407 0
-0.243948 0.163270 0
-0.259536 0.158360 0
-0.271764 0.149606 0
-0.281190 0.138004 0
-0.288379 0.124517 0
-0.293807 0.109975 0
-0.297833 0.095024 0
-0.300715 0.080117 0
-0.302634 0.065531 0
-0.303722 0.051400 0
-0.304066 0.037741 0
-0.303722 0.024489 0
-0.302715 0.011514 0
-0.301046 -0.001352 0
-0.298698 -0.014282 0
-0.295593 -0.027510 0
-0.291662 -0.041302 0
-0.286814 -0.055861 0
-0.280948 -0.071359 0
-0.273954 -0.087902 0
-0.265712 -0.105497 0
-0.256091 -0.124016 0
-0.244943 -0.143125 0
-0.232086 -0.162194 0
-0.217266 -0.180148 0
-0.200087 -0.195267 0
-0.179922 -0.204899 0
-0.155828 -0.205104 0
-0.126561 -0.190296 0
-0.090879 -0.153161 0
-0.048217 -0.086182 0
0.001965 -0.002644 0
0.000000 0.019540 0
0.000000 0.031941 0
-0.040191 0.080335 0
-0.080231 0.110952 0
-0.116248 0.137292 0
-0.148289 0.158518 0
-0.176229 0.173184 0
-0.199980 0.181075 0
-0.219609 0.182641 0
-0.235348 0.178745 0
-0.247556 0.170432 0
-0.256740 0.158787 0
-0.263461 0.144847 0
-0.268240 0.129519 0
-0.271514 0.113536 0
-0.273629 0.097448 0
-0.274848 0.081629 0
-0.275370 0.066297 0
-0.275342 0.051537 0
-0.274863 0.037328 0
-0.273995 0.023569 0
-0.272764 0.010103 0
-0.271169 -0.003263 0
-0.269188 -0.016745 0
-0.266736 -0.030605 0
-0.263747 -0.045101 0
-0.260137 -0.060457 0
-0.255816 -0.076851 0
-0.250682 -0.094397 0
-0.244628 -0.113114 0
-0.237533 -0.132886 0
-0.229262 -0.153411 0
-0.219639 -0.174123 0
-0.208401 -0.194073 0
-0.195127 -0.211761 0
-0.179118 -0.224864 0
-0.159285 -0.229829 0
-0.134116 -0.221335 0
-0.101959 -0.191722 0
-0.062130 -0.131008 0
-0.018317 -0.029961 0
0.000000 0.015789 0
0.000000 0.052037 0
-0.039236 0.120566 0
-0.078732 0.149011 0
-0.113726 0.170903 0
-0.144070 0.187618 0
-0.169714 0.197772 0
-0.190788 0.201290 0
-0.207595 0.198776 0
-0.220567 0.191217 0
-0.230223 0.179752 0
-0.237128 0.165511 0
-0.241830 0.149504 0
-0.244818 0.132570 0
-0.246507 0.115364 0
-0.247237 0.098358 0
-0.247277 0.081859 0
-0.246836 0.066026 0
-0.246067 0.050892 0
-0.245073 0.036393 0
-0.243914 0.022389 0
-0.242616 0.008689 0
-0.241172 -0.004928 0
-0.239550 -0.018716 0
-0.237677 -0.032952 0
-0.235487 -0.047900 0
-0.232902 -0.063792 0
-0.229834 -0.080815 0
-0.226187 -0.099090 0
-0.221856 -0.118646 0
-0.216726 -0.139381 0
-0.210666 -0.161020 0
-0.203513 -0.183055 0
-0.195033 -0.204659 0
-0.184849 -0.224550 0
-0.172334 -0.240741 0
-0.156468 -0.250107 0
-0.135763 -0.247622 0
-0.108454 -0.225146 0
-0.073508 -0.169824 0
-0.033458 -0.064774 0
0.000000 0.001223 0
0.000000 0.071176 0
-0.036725 0.159067 0
-0.074109 0.185443 0
-0.106979 0.202630 0
-0.135049 0.214505 0
-0.158287 0.219902 0
-0.176923 0.218957 0
-0.191372 0.212420 0
-0.202161 0.201373 0
-0.209865 0.186993 0
-0.215057 0.170395 0
-0.218264 0.152538 0
-0.219951 0.134196 0
-0.220519 0.115954 0
-0.220301 0.098217 0
-0.219566 0.081229 0
-0.218519 0.065087 0
-0.217311 0.049774 0
-0.216040 0.035176 0
-0.214763 0.021113 0
-0.213500 0.007361 0
-0.212241 -0.006329 0
-0.210954 -0.020241 0
-0.209573 -0.034668 0
-0.208037 -0.049877 0
-0.206272 -0.066111 0
-0.204193 -0.083566 0
-0.201706 -0.102375 0
-0.198703 -0.122575 0
-0.195066 -0.144076 0
-0.190662 -0.166624 0
-0.185335 -0.189756 0
-0.178882 -0.212737 0
-0.170992 -0.234461 0
-0.161159 -0.253244 0
-0.148523 -0.266400 0
-0.131711 -0.269350 0
-0.108798 -0.253977 0
-0.077822 -0.206004 0
-0.038748 -0.103469 0
0.000000 -0.017669 0
0.000000 0.088762 0
-0.033278 0.194674 0
-0.067677 0.219265 0
-0.097792 0.231843 0
-0.123261 0.238926 0
-0.144060 0.239646 0
-0.160451 0.234376 0
-0.172885 0.224013 0
-0.181909 0.209710 0
-0.188098 0.192648 0
-0.192001 0.173909 0
-0.194121 0.154398 0
-0.194901 0.134825 0
-0.194724 0.115714 0
-0.193910 0.097404 0
-0.192716 0.080077 0
-0.191337 0.063771 0
-0.189914 0.048413 0
-0.188537 0.033845 0
-0.187256 0.019849 0
-0.186088 0.006168 0
-0.185023 -0.007474 0
-0.184027 -0.021384 0
-0.183047 -0.035869 0
-0.182027 -0.051201 0
-0.180898 -0.067635 0
-0.179579 -0.085380 0
-0.177974 -0.104580 0
-0.175975 -0.125287 0
-0.173455 -0.147423 0
-0.170277 -0.170750 0
-0.166285 -0.194835 0
-0.161292 -0.219003 0
-0.155047 -0.242273 0
-0.147156 -0.263210 0
-0.136939 -0.279554 0
-0.123202 -0.287347 0
-0.103979 -0.279036 0
-0.076633 -0.239874 0
-0.039525 -0.142596 0
0.000000 -0.037525 0
0.000000 0.104455 0
-0.029330 0.226744 0
-0.060301 0.249956 0
-0.087353 0.258215 0
-0.110082 0.260773 0
-0.128470 0.257092 0
-0.142782 0.247782 0
-0.153458 0.233877 0
-0.161022 0.216585 0
-0.166015 0.197085 0
-0.168953 0.176418 0
-0.170304 0.155438 0
-0.170483 0.134798 0
-0.169850 0.114962 0
-0.168706 0.096209 0
-0.167289 0.078656 0
-0.165777 0.062286 0
-0.164296 0.046974 0
-0.162928 0.032517 0
-0.161716 0.018664 0
-0.160674 0.005128 0
-0.159794 -0.008390 0
-0.159042 -0.022216 0
-0.158377 -0.036668 0
-0.157748 -0.052026 0
-0.157093 -0.068559 0
-0.156335 -0.086490 0
-0.155381 -0.105979 0
-0.154119 -0.127094 0
-0.152421 -0.149773 0
-0.150142 -0.173794 0
-0.147124 -0.198740 0
-0.143190 -0.223975 0
-0.138121 -0.248597 0
-0.131613 -0.271353 0
-0.123152 -0.290353 0
-0.111775 -0.302309 0
-0.095688 -0.300546 0
-0.072038 -0.270458 0
-0.038228 -0.180102 0
0.000000 -0.057194 0
0.000000 0.118091 0
-0.025166 0.254976 0
-0.052537 0.277288 0
-0.076424 0.281623 0
-0.096399 0.280044 0
-0.112454 0.272346 0
-0.124836 0.259363 0
-0.133952 0.242253 0
-0.140284 0.222267 0
-0.144324 0.200580 0
-0.146539 0.178198 0
-0.147359 0.155927 0
-0.147166 0.134372 0
-0.146292 0.113937 0
-0.145010 0.094842 0
-0.143534 0.077147 0
-0.142024 0.060778 0
-0.140591 0.045565 0
-0.139307 0.031265 0
-0.138207 0.017595 0
-0.137305 0.004245 0
-0.136592 -0.009106 0
-0.136039 -0.022801 0
-0.135613 -0.037163 0
-0.135270 -0.052485 0
-0.134952 -0.069048 0
-0.134590 -0.087092 0
-0.134094 -0.106796 0
-0.133355 -0.128247 0
-0.132242 -0.151400 0
-0.130612 -0.176047 0
-0.128307 -0.201788 0
-0.125153 -0.228006 0
-0.120958 -0.253849 0
-0.115473 -0.278179 0
-0.108319 -0.299393 0
-0.098775 -0.314811 0
-0.085360 -0.318773 0
-0.065334 -0.297334 0
-0.035480 -0.214634 0
0.000000 -0.075753 0
0.000000 0.129621 0
-0.020964 0.279281 0
-0.044722 0.301214 0
-0.065471 0.302076 0
-0.082757 0.296803 0
-0.096584 0.285529 0
-0.107176 0.269281 0
-0.114896 0.249326 0
-0.120170 0.226957 0
-0.123434 0.203340 0
-0.125107 0.179453 0
-0.125571 0.156065 0
-0.125173 0.133732 0
-0.124207 0.112805 0
-0.122917 0.093450 0
-0.121493 0.075671 0
-0.120074 0.059344 0
-0.118756 0.044256 0
-0.117599 0.030133 0
-0.116634 0.016662 0
-0.115873 0.003513 0
-0.115308 -0.009655 0
-0.114914 -0.023195 0
-0.114663 -0.037437 0
-0.114517 -0.052687 0
-0.114427 -0.069238 0
-0.114327 -0.087348 0
-0.114133 -0.107215 0
-0.113743 -0.128946 0
-0.113031 -0.152515 0
-0.111858 -0.177730 0
-0.110073 -0.204199 0
-0.107515 -0.231323 0
-0.104007 -0.258277 0
-0.099344 -0.283991 0
-0.093246 -0.307051 0
-0.085204 -0.325268 0
-0.074103 -0.333987 0
-0.057531 -0.320338 0
-0.031931 -0.245436 0
0.000000 -0.092675 0
0.000000 0.139056 0
-0.016821 0.299698 0
-0.037043 0.321794 0
-0.054753 0.319659 0
-0.069462 0.311157 0
-0.081182 0.296765 0
-0.090113 0.277674 0
-0.096570 0.255247 0
-0.100922 0.230806 0
-0.103547 0.205517 0
-0.104808 0.180335 0
-0.105042 0.155993 0
-0.104551 0.133007 0
-0.103595 0.111681 0
-0.102385 0.092128 0
-0.101083 0.074304 0
-0.099809 0.058042 0
-0.098644 0.043089 0
-0.097636 0.029143 0
-0.096814 0.015870 0
-0.096188 0.002919 0
-0.095749 -0.010066 0
-0.095475 -0.023446 0
-0.095346 -0.037559 0
-0.095327 -0.052721 0
-0.095375 -0.069238 0
-0.095431 -0.087385 0
-0.095418 -0.107380 0
-0.095241 -0.129349 0
-0.094786 -0.153285 0
-0.093925 -0.179006 0
-0.092521 -0.206131 0
-0.090432 -0.234072 0
-0.087504 -0.262019 0
-0.083567 -0.288940 0
-0.078412 -0.313533 0
-0.071701 -0.333953 0
-0.062660 -0.346447 0
-0.049314 -0.339506 0
-0.028006 -0.272165 0
0.000000 -0.107684 0
0.000000 0.146441 0
-0.012774 0.316324 0
-0.029584 0.339147 0
-0.044391 0.334496 0
-0.056653 0.323232 0
-0.066391 0.306179 0
-0.073779 0.284668 0
-0.079087 0.260135 0
-0.082624 0.233934 0
-0.084710 0.207226 0
-0.085655 0.180949 0
-0.085746 0.155809 0
-0.085241 0.132285 0
-0.084361 0.110639 0
-0.083286 0.090938 0
-0.082151 0.073095 0
-0.081055 0.056904 0
-0.080061 0.042083 0
-0.079210 0.028303 0
-0.078526 0.015214 0
-0.078018 0.002447 0
-0.077679 -0.010367 0
-0.077492 -0.023597 0
-0.077438 -0.037585 0
-0.077488 -0.052658 0
-0.077602 -0.069135 0
-0.077729 -0.087305 0
-0.077801 -0.107404 0
-0.077733 -0.129578 0
-0.077425 -0.153832 0
-0.076768 -0.179995 0
-0.075647 -0.207692 0
-0.073946 -0.236340 0
-0.071540 -0.265142 0
-0.068294 -0.293083 0
-0.064057 -0.318917 0
-0.058613 -0.341021 0
-0.051468 -0.356375 0
-0.041115 -0.354992 0
-0.023981 -0.294750 0
0.000000 -0.120680 0
0.000000 0.151830 0
-0.008833 0.329282 0
-0.022361 0.353412 0
-0.034409 0.346728 0
-0.044358 0.333158 0
-0.052234 0.313891 0
-0.058187 0.290370 0
-0.062440 0.264091 0
-0.065247 0.236430 0
-0.066872 0.208549 0
-0.067569 0.181371 0
-0.067577 0.155579 0
-0.067109 0.131623 0
-0.066349 0.109726 0
-0.065443 0.089918 0
-0.064500 0.072073 0
-0.063598 0.055951 0
-0.062784 0.041245 0
-0.062089 0.027609 0
-0.061530 0.014677 0
-0.061116 0.002072 0
-0.060849 -0.010592 0
-0.060713 -0.023687 0
-0.060692 -0.037563 0
-0.060761 -0.052557 0
-0.060883 -0.068997 0
-0.061013 -0.087187 0
-0.061093 -0.107376 0
-0.061052 -0.129724 0
-0.060811 -0.154250 0
-0.060280 -0.180784 0
-0.059378 -0.208952 0
-0.058017 -0.238179 0
-0.056106 -0.267671 0
-0.053552 -0.296423 0
-0.050250 -0.323214 0
-0.046074 -0.346542 0
-0.040739 -0.363944 0
-0.033168 -0.366993 0
-0.020018 -0.313280 0
0.000000 -0.131666 0
0.000000 0.155274 0
-0.004983 0.338685 0
-0.015347 0.364722 0
-0.024768 0.356493 0
-0.032529 0.341057 0
-0.038653 0.320009 0
-0.043265 0.294874 0
-0.046542 0.267195 0
-0.048688 0.238366 0
-0.049910 0.209548 0
-0.050409 0.181654 0
-0.050374 0.155349 0
-0.049977 0.131057 0
-0.049361 0.108972 0
-0.048642 0.089090 0
-0.047903 0.071251 0
-0.047200 0.055188 0
-0.046565 0.040574 0
-0.046018 0.027049 0
-0.045569 0.014241 0
-0.045227 0.001766 0
-0.045001 -0.010771 0
-0.044882 -0.023754 0
-0.044856 -0.037537 0
-0.044899 -0.052468 0
-0.044978 -0.068883 0
-0.045054 -0.087095 0
-0.045081 -0.107365 0
-0.045005 -0.129859 0
-0.044769 -0.154604 0
-0.044314 -0.181428 0
-0.043590 -0.209956 0
-0.042545 -0.239612 0
-0.041128 -0.269607 0
-0.039284 -0.298939 0
-0.036957 -0.326395 0
-0.034083 -0.350533 0
-0.030523 -0.369280 0
-0.025565 -0.375712 0
-0.016190 -0.327918 0
0.000000 -0.140699 0
0.000000 0.156813 0
-0.001253 0.344629 0
-0.008475 0.373197 0
-0.015386 0.363909 0
-0.021068 0.347043 0
-0.025536 0.324628 0
-0.028887 0.298259 0
-0.031256 0.269514 0
-0.032795 0.239797 0
-0.033658 0.210269 0
-0.033994 0.181835 0
-0.033945 0.155147 0
-0.033638 0.130610 0
-0.033180 0.108392 0
-0.032653 0.088461 0
-0.032117 0.070630 0
-0.031605 0.054612 0
-0.031139 0.040063 0
-0.030727 0.026613 0
-0.030374 0.013887 0
-0.030087 0.001504 0
-0.029876 -0.010936 0
-0.029743 -0.023832 0
-0.029675 -0.037547 0
-0.029650 -0.052436 0
-0.029641 -0.068841 0
-0.029616 -0.087083 0
-0.029540 -0.107425 0
-0.029380 -0.130037 0
-0.029106 -0.154941 0
-0.028696 -0.181962 0
-0.028132 -0.210721 0
-0.027399 -0.240641 0
-0.026488 -0.270933 0
-0.025384 -0.300595 0
-0.024078 -0.328415 0
-0.022557 -0.352976 0
-0.020775 -0.372463 0
-0.018304 -0.381326 0
-0.012512 -0.338845 0
0.000000 -0.147856 0
0.000000 0.156527 0
0.002328 0.347160 0
-0.001645 0.378855 0
-0.006139 0.369085 0
-0.009843 0.351208 0
-0.012744 0.327828 0
-0.014896 0.300594 0
-0.016410 0.271103 0
-0.017384 0.240768 0
-0.017922 0.210747 0
-0.018121 0.181941 0
-0.018076 0.154993 0
-0.017869 0.130292 0
-0.017571 0.107988 0
-0.017233 0.088027 0
-0.016889 0.070202 0
-0.016556 0.054210 0
-0.016242 0.039696 0
-0.015948 0.026285 0
-0.015676 0.013601 0
-0.015428 0.001268 0
-0.015213 -0.011115 0
-0.015037 -0.023955 0
-0.014891 -0.037631 0
-0.014759 -0.052502 0
-0.014619 -0.068917 0
-0.014451 -0.087195 0
-0.014234 -0.107600 0
-0.013957 -0.130294 0
-0.013621 -0.155289 0
-0.013242 -0.182402 0
-0.012835 -0.211252 0
-0.012426 -0.241256 0
-0.012044 -0.271622 0
-0.011719 -0.301348 0
-0.011483 -0.329222 0
-0.011369 -0.353836 0
-0.011392 -0.373534 0
-0.011327 -0.383975 0
-0.008965 -0.346222 0
0.000000 -0.153211 0
0.000000 0.154484 0
0.005830 0.346274 0
0.005190 0.381664 0
0.003090 0.372107 0
0.001298 0.353648 0
-0.000092 0.329681 0
-0.001103 0.301925 0
-0.001805 0.272002 0
-0.002249 0.241310 0
-0.002487 0.211006 0
-0.002567 0.181989 0
-0.002536 0.154895 0
-0.002435 0.130105 0
-0.002296 0.107756 0
-0.002140 0.087779 0
-0.001976 0.069953 0
-0.001805 0.053965 0
-0.001624 0.039454 0
-0.001429 0.026047 0
-0.001215 0.013367 0
-0.000984 0.001041 0
-0.000744 -0.011328 0
-0.000496 -0.024154 0
-0.000237 -0.037825 0
0.000040 -0.052707 0
0.000348 -0.069150 0
0.000694 -0.087469 0
0.001079 -0.107919 0
0.001488 -0.130650 0
0.001889 -0.155656 0
0.002233 -0.182748 0
0.002469 -0.211537 0
0.002531 -0.241432 0
0.002351 -0.271640 0
0.001857 -0.301156 0
0.000976 -0.328765 0
-0.000369 -0.353067 0
-0.002240 -0.372505 0
-0.004540 -0.383753 0
-0.005504 -0.350172 0
0.000000 -0.156821 0
0.000000 0.150697 0
0.009347 0.341969 0
0.012098 0.381595 0
0.012416 0.372978 0
0.012503 0.354389 0
0.012590 0.330230 0
0.012675 0.302306 0
0.012753 0.272248 0
0.012816 0.241450 0
0.012862 0.211065 0
0.012890 0.181990 0
0.012902 0.154861 0
0.012900 0.130051 0
0.012888 0.107692 0
0.012877 0.087707 0
0.012879 0.069868 0
0.012909 0.053859 0
0.012980 0.039319 0
0.013102 0.025876 0
0.013284 0.013157 0
0.013525 0.000797 0
0.013820 -0.011603 0
0.014170 -0.024462 0
0.014570 -0.038167 0
0.015020 -0.053087 0
0.015520 -0.069571 0
0.016061 -0.087926 0
0.016621 -0.108394 0
0.017161 -0.131104 0
0.017618 -0.156034 0
0.017914 -0.182982 0
0.017956 -0.211550 0
0.017642 -0.241138 0
0.016861 -0.270947 0
0.015500 -0.299973 0
0.013444 -0.326997 0
0.010581 -0.350620 0
0.006819 -0.369362 0
0.002176 -0.380711 0
-0.002058 -0.350762 0
0.000000 -0.158715 0
0.000000 0.145137 0
0.012950 0.334176 0
0.019196 0.378595 0
0.021980 0.371702 0
0.023913 0.353474 0
0.025433 0.329508 0
0.026590 0.301761 0
0.027426 0.271862 0
0.027983 0.241201 0
0.028308 0.210932 0
0.028450 0.181948 0
0.028453 0.154886 0
0.028363 0.130120 0
0.028223 0.107779 0
0.028071 0.087788 0
0.027942 0.069921 0
0.027863 0.053864 0
0.027855 0.039261 0
0.027934 0.025743 0
0.028108 0.012944 0
0.028383 0.000505 0
0.028759 -0.011972 0
0.029231 -0.024903 0
0.029790 -0.038676 0
0.030428 -0.053658 0
0.031130 -0.070190 0
0.031870 -0.088570 0
0.032606 -0.109019 0
0.033270 -0.131646 0
0.033772 -0.156409 0
0.033999 -0.183086 0
0.033821 -0.211265 0
0.033095 -0.240337 0
0.031669 -0.269498 0
0.029387 -0.297739 0
0.026089 -0.323846 0