# vtk DataFile Version 2.0
generated by CFD-lab course output (written by Tobias Neckel) 
ASCII

DATASET STRUCTURED_GRID
DIMENSIONS  41 41 1 
POINTS 1681 float

0.150000 0.150000 0
0.167857 0.150000 0
0.185714 0.150000 0
0.203571 0.150000 0
0.221429 0.150000 0
0.239286 0.150000 0
0.257143 0.150000 0
0.275000 0.150000 0
0.292857 0.150000 0
0.310714 0.150000 0
0.328571 0.150000 0
0.346429 0.150000 0
0.364286 0.150000 0
0.382143 0.150000 0
0.400000 0.150000 0
0.417857 0.150000 0
0.435714 0.150000 0
0.453571 0.150000 0
0.471429 0.150000 0
0.489286 0.150000 0
0.507143 0.150000 0
0.525000 0.150000 0
0.542857 0.150000 0
0.560714 0.150000 0
0.578571 0.150000 0
0.596429 0.150000 0
0.614286 0.150000 0
0.632143 0.150000 0
0.650000 0.150000 0
0.667857 0.150000 0
0.685714 0.150000 0
0.703571 0.150000 0
0.721429 0.150000 0
0.739286 0.150000 0
0.757143 0.150000 0
0.775000 0.150000 0
0.792857 0.150000 0
0.810714 0.150000 0
0.828571 0.150000 0
0.846429 0.150000 0
0.864286 0.150000 0
0.150000 0.167857 0
0.167857 0.167857 0
0.185714 0.167857 0
0.203571 0.167857 0
0.221429 0.167857 0
0.239286 0.167857 0
0.257143 0.167857 0
0.275000 0.167857 0
0.292857 0.167857 0
0.310714 0.167857 0
0.328571 0.167857 0
0.346429 0.167857 0
0.364286 0.167857 0
0.382143 0.167857 0
0.400000 0.167857 0
0.417857 0.167857 0
0.435714 0.167857 0
0.453571 0.167857 0
0.471429 0.167857 0
0.489286 0.167857 0
0.507143 0.167857 0
0.525000 0.167857 0
0.542857 0.167857 0
0.560714 0.167857 0
0.578571 0.167857 0
0.596429 0.167857 0
0.614286 0.167857 0
0.632143 0.167857 0
0.650000 0.167857 0
0.667857 0.167857 0
0.685714 0.167857 0
0.703571 0.167857 0
0.721429 0.167857 0
0.739286 0.167857 0
0.757143 0.167857 0
0.775000 0.167857 0
0.792857 0.167857 0
0.810714 0.167857 0
0.828571 0.167857 0
0.846429 0.167857 0
0.864286 0.167857 0
0.150000 0.185714 0
0.167857 0.185714 0
0.185714 0.185714 0
0.203571 0.185714 0
0.221429 0.185714 0
0.239286 0.185714 0
0.257143 0.185714 0
0.275000 0.185714 0
0.292857 0.185714 0
0.310714 0.185714 0
0.328571 0.185714 0
0.346429 0.185714 0
0.364286 0.185714 0
0.382143 0.185714 0
0.400000 0.185714 0
0.417857 0.185714 0
0.435714 0.185714 0
0.453571 0.185714 0
0.471429 0.185714 0
0.489286 0.185714 0
0.507143 0.185714 0
0.525000 0.185714 0
0.542857 0.185714 0
0.560714 0.185714 0
0.578571 0.185714 0
0.596429 0.185714 0
0.614286 0.185714 0
0.632143 0.185714 0
0.650000 0.185714 0
0.667857 0.185714 0
0.685714 0.185714 0
0.703571 0.185714 0
0.721429 0.185714 0
0.739286 0.185714 0
0.757143 0.185714 0
0.775000 0.185714 0
0.792857 0.185714 0
0.810714 0.185714 0
0.828571 0.185714 0
0.846429 0.185714 0
0.864286 0.185714 0
0.150000 0.203571 0
0.167857 0.203571 0
0.185714 0.203571 0
0.203571 0.203571 0
0.221429 0.203571 0
0.239286 0.203571 0
0.257143 0.203571 0
0.275000 0.203571 0
0.292857 0.203571 0
0.310714 0.203571 0
0.328571 0.203571 0
0.346429 0.203571 0
0.364286 0.203571 0
0.382143 0.203571 0
0.400000 0.203571 0
0.417857 0.203571 0
0.435714 0.203571 0
0.453571 0.203571 0
0.471429 0.203571 0
0.489286 0.203571 0
0.507143 0.203571 0
0.525000 0.203571 0
0.542857 0.203571 0
0.560714 0.203571 0
0.578571 0.203571 0
0.596429 0.203571 0
0.614286 0.203571 0
0.632143 0.203571 0
0.650000 0.203571 0
0.667857 0.203571 0
0.685714 0.203571 0
0.703571 0.203571 0
0.721429 0.203571 0
0.739286 0.203571 0
0.757143 0.203571 0
0.775000 0.203571 0
0.792857 0.203571 0
0.810714 0.203571 0
0.828571 0.203571 0
0.846429 0.203571 0
0.864286 0.203571 0
0.150000 0.221429 0
0.167857 0.221429 0
0.185714 0.221429 0
0.203571 0.221429 0
0.221429 0.221429 0
0.239286 0.221429 0
0.257143 0.221429 0
0.275000 0.221429 0
0.292857 0.221429 0
0.310714 0.221429 0
0.328571 0.221429 0
0.346429 0.221429 0
0.364286 0.221429 0
0.382143 0.221429 0
0.400000 0.221429 0
0.417857 0.221429 0
0.435714 0.221429 0
0.453571 0.221429 0
0.471429 0.221429 0
0.489286 0.221429 0
0.507143 0.221429 0
0.525000 0.221429 0
0.542857 0.221429 0
0.560714 0.221429 0
0.578571 0.221429 0
0.596429 0.221429 0
0.614286 0.221429 0
0.632143 0.221429 0
0.650000 0.221429 0
0.667857 0.221429 0
0.685714 0.221429 0
0.703571 0.221429 0
0.721429 0.221429 0
0.739286 0.221429 0
0.757143 0.221429 0
0.775000 0.221429 0
0.792857 0.221429 0
0.810714 0.221429 0
0.828571 0.221429 0
0.846429 0.221429 0
0.864286 0.221429 0
0.150000 0.239286 0
0.167857 0.239286 0
0.185714 0.239286 0
0.203571 0.239286 0
0.221429 0.239286 0
0.239286 0.239286 0
0.257143 0.239286 0
0.275000 0.239286 0
0.292857 0.239286 0
0.310714 0.239286 0
0.328571 0.239286 0
0.346429 0.239286 0
0.364286 0.239286 0
0.382143 0.239286 0
0.400000 0.239286 0
0.417857 0.239286 0
0.435714 0.239286 0
0.453571 0.239286 0
0.471429 0.239286 0
0.489286 0.239286 0
0.507143 0.239286 0
0.525000 0.239286 0
0.542857 0.239286 0
0.560714 0.239286 0
0.578571 0.239286 0
0.596429 0.239286 0
0.614286 0.239286 0
0.632143 0.239286 0
0.650000 0.239286 0
0.667857 0.239286 0
0.685714 0.239286 0
0.703571 0.239286 0
0.721429 0.239286 0
0.739286 0.239286 0
0.757143 0.239286 0
0.775000 0.239286 0
0.792857 0.239286 0
0.810714 0.239286 0
0.828571 0.239286 0
0.846429 0.239286 0
0.864286 0.239286 0
0.150000 0.257143 0
0.167857 0.257143 0
0.185714 0.257143 0
0.203571 0.257143 0
0.221429 0.257143 0
0.239286 0.257143 0
0.257143 0.257143 0
0.275000 0.257143 0
0.292857 0.257143 0
0.310714 0.257143 0
0.328571 0.257143 0
0.346429 0.257143 0
0.364286 0.257143 0
0.382143 0.257143 0
0.400000 0.257143 0
0.417857 0.257143 0
0.435714 0.257143 0
0.453571 0.257143 0
0.471429 0.257143 0
0.489286 0.257143 0
0.507143 0.257143 0
0.525000 0.257143 0
0.542857 0.257143 0
0.560714 0.257143 0
0.578571 0.257143 0
0.596429 0.257143 0
0.614286 0.257143 0
0.632143 0.257143 0
0.650000 0.257143 0
0.667857 0.257143 0
0.685714 0.257143 0
0.703571 0.257143 0
0.721429 0.257143 0
0.739286 0.257143 0
0.757143 0.257143 0
0.775000 0.257143 0
0.792857 0.257143 0
0.810714 0.257143 0
0.828571 0.257143 0
0.846429 0.257143 0
0.864286 0.257143 0
0.150000 0.275000 0
0.167857 0.275000 0
0.185714 0.275000 0
0.203571 0.275000 0
0.221429 0.275000 0
0.239286 0.275000 0
0.257143 0.275000 0
0.275000 0.275000 0
0.292857 0.275000 0
0.310714 0.275000 0
0.328571 0.275000 0
0.346429 0.275000 0
0.364286 0.275000 0
0.382143 0.275000 0
0.400000 0.275000 0
0.417857 0.275000 0
0.435714 0.275000 0
0.453571 0.275000 0
0.471429 0.275000 0
0.489286 0.275000 0
0.507143 0.275000 0
0.525000 0.275000 0
0.542857 0.275000 0
0.560714 0.275000 0
0.578571 0.275000 0
0.596429 0.275000 0
0.614286 0.275000 0
0.632143 0.275000 0
0.650000 0.275000 0
0.667857 0.275000 0
0.685714 0.275000 0
0.703571 0.275000 0
0.721429 0.275000 0
0.739286 0.275000 0
0.757143 0.275000 0
0.775000 0.275000 0
0.792857 0.275000 0
0.810714 0.275000 0
0.828571 0.275000 0
0.846429 0.275000 0
0.864286 0.275000 0
0.150000 0.292857 0
0.167857 0.292857 0
0.185714 0.292857 0
0.203571 0.292857 0
0.221429 0.292857 0
0.239286 0.292857 0
0.257143 0.292857 0
0.275000 0.292857 0
0.292857 0.292857 0
0.310714 0.292857 0
0.328571 0.292857 0
0.346429 0.292857 0
0.364286 0.292857 0
0.382143 0.292857 0
0.400000 0.292857 0
0.417857 0.292857 0
0.435714 0.292857 0
0.453571 0.292857 0
0.471429 0.292857 0
0.489286 0.292857 0
0.507143 0.292857 0
0.525000 0.292857 0
0.542857 0.292857 0
0.560714 0.292857 0
0.578571 0.292857 0
0.596429 0.292857 0
0.614286 0.292857 0
0.632143 0.292857 0
0.650000 0.292857 0
0.667857 0.292857 0
0.685714 0.292857 0
0.703571 0.292857 0
0.721429 0.292857 0
0.739286 0.292857 0
0.757143 0.292857 0
0.775000 0.292857 0
0.792857 0.292857 0
0.810714 0.292857 0
0.828571 0.292857 0
0.846429 0.292857 0
0.864286 0.292857 0
0.150000 0.310714 0
0.167857 0.310714 0
0.185714 0.310714 0
0.203571 0.310714 0
0.221429 0.310714 0
0.239286 0.310714 0
0.257143 0.310714 0
0.275000 0.310714 0
0.292857 0.310714 0
0.310714 0.310714 0
0.328571 0.310714 0
0.346429 0.310714 0
0.364286 0.310714 0
0.382143 0.310714 0
0.400000 0.310714 0
0.417857 0.310714 0
0.435714 0.310714 0
0.453571 0.310714 0
0.471429 0.310714 0
0.489286 0.310714 0
0.507143 0.310714 0
0.525000 0.310714 0
0.542857 0.310714 0
0.560714 0.310714 0
0.578571 0.310714 0
0.596429 0.310714 0
0.614286 0.310714 0
0.632143 0.310714 0
0.650000 0.310714 0
0.667857 0.310714 0
0.685714 0.310714 0
0.703571 0.310714 0
0.721429 0.310714 0
0.739286 0.310714 0
0.757143 0.310714 0
0.775000 0.310714 0
0.792857 0.310714 0
0.810714 0.310714 0
0.828571 0.310714 0
0.846429 0.310714 0
0.864286 0.310714 0
0.150000 0.328571 0
0.167857 0.328571 0
0.185714 0.328571 0
0.203571 0.328571 0
0.221429 0.328571 0
0.239286 0.328571 0
0.257143 0.328571 0
0.275000 0.328571 0
0.292857 0.328571 0
0.310714 0.328571 0
0.328571 0.328571 0
0.346429 0.328571 0
0.364286 0.328571 0
0.382143 0.328571 0
0.400000 0.328571 0
0.417857 0.328571 0
0.435714 0.328571 0
0.453571 0.328571 0
0.471429 0.328571 0
0.489286 0.328571 0
0.507143 0.328571 0
0.525000 0.328571 0
0.542857 0.328571 0
0.560714 0.328571 0
0.578571 0.328571 0
0.596429 0.328571 0
0.614286 0.328571 0
0.632143 0.328571 0
0.650000 0.328571 0
0.667857 0.328571 0
0.685714 0.328571 0
0.703571 0.328571 0
0.721429 0.328571 0
0.739286 0.328571 0
0.757143 0.328571 0
0.775000 0.328571 0
0.792857 0.328571 0
0.810714 0.328571 0
0.828571 0.328571 0
0.846429 0.328571 0
0.864286 0.328571 0
0.150000 0.346429 0
0.167857 0.346429 0
0.185714 0.346429 0
0.203571 0.346429 0
0.221429 0.346429 0
0.239286 0.346429 0
0.257143 0.346429 0
0.275000 0.346429 0
0.292857 0.346429 0
0.310714 0.346429 0
0.328571 0.346429 0
0.346429 0.346429 0
0.364286 0.346429 0
0.382143 0.346429 0
0.400000 0.346429 0
0.417857 0.346429 0
0.435714 0.346429 0
0.453571 0.346429 0
0.471429 0.346429 0
0.489286 0.346429 0
0.507143 0.346429 0
0.525000 0.346429 0
0.542857 0.346429 0
0.560714 0.346429 0
0.578571 0.346429 0
0.596429 0.346429 0
0.614286 0.346429 0
0.632143 0.346429 0
0.650000 0.346429 0
0.667857 0.346429 0
0.685714 0.346429 0
0.703571 0.346429 0
0.721429 0.346429 0
0.739286 0.346429 0
0.757143 0.346429 0
0.775000 0.346429 0
0.792857 0.346429 0
0.810714 0.346429 0
0.828571 0.346429 0
0.846429 0.346429 0
[...]
POINT_DATA 1681 

VECTORS velocity float
0.000000 0.000000 0
0.003429 0.000000 0
0.009063 0.000000 0
0.013031 0.000000 0
0.013962 0.000000 0
0.014473 0.000000 0
0.016681 0.000000 0
0.015897 0.000000 0
0.009203 0.000000 0
-0.002341 0.000000 0
-0.016011 0.000000 0
-0.030402 0.000000 0
-0.044680 0.000000 0
-0.058250 0.000000 0
-0.070756 0.000000 0
-0.082009 0.000000 0
-0.092022 0.000000 0
-0.100742 0.000000 0
-0.108178 0.000000 0
-0.114338 0.000000 0
-0.119233 0.000000 0
-0.122868 0.000000 0
-0.125229 0.000000 0
-0.126339 0.000000 0
-0.126084 0.000000 0
-0.124301 0.000000 0
-0.120837 0.000000 0
-0.115553 0.000000 0
-0.108306 0.000000 0
-0.098968 0.000000 0
-0.087534 0.000000 0
-0.073964 0.000000 0
-0.058375 0.000000 0
-0.041088 0.000000 0
-0.022758 0.000000 0
-0.004526 0.000000 0
0.011608 0.000000 0
0.018953 0.000000 0
0.015373 0.000000 0
0.007110 0.000000 0
0.000000 0.000000 0
0.000000 -0.003429 0
0.008996 -0.009063 0
0.018891 -0.009602 0
0.025422 -0.004900 0
0.024741 -0.001441 0
0.016316 -0.002719 0
0.002543 -0.001425 0
-0.015655 0.007478 0
-0.038760 0.018239 0
-0.065856 0.025214 0
-0.094741 0.028061 0
-0.123623 0.028669 0
-0.151245 0.027848 0
-0.176774 0.026075 0
-0.199737 0.023758 0
-0.219930 0.021266 0
-0.237350 0.018733 0
-0.252026 0.016156 0
-0.264026 0.013596 0
-0.273421 0.011055 0
-0.280271 0.008530 0
-0.284607 0.005996 0
-0.286425 0.003471 0
-0.285685 0.000855 0
-0.282256 -0.002039 0
-0.275984 -0.005247 0
-0.266647 -0.008748 0
-0.253990 -0.012531 0
-0.237753 -0.016585 0
-0.217702 -0.020772 0
-0.193697 -0.025005 0
-0.165690 -0.029159 0
-0.133878 -0.032876 0
-0.098866 -0.035617 0
-0.061928 -0.036562 0
-0.025389 -0.034366 0
0.006779 -0.023479 0
0.028067 -0.003765 0
0.026553 0.011843 0
0.013004 0.015373 0
0.000000 0.007110 0
0.000000 -0.008996 0
0.008585 -0.018891 0
0.011041 -0.016426 0
0.003224 -0.005850 0
-0.011659 0.009105 0
-0.034924 0.022198 0
-0.066834 0.031972 0
-0.100785 0.041303 0
-0.132674 0.050200 0
-0.162006 0.055981 0
-0.189503 0.057768 0
-0.214834 0.056504 0
-0.237578 0.053151 0
-0.257543 0.048492 0
-0.274689 0.043156 0
-0.289091 0.037613 0
-0.300800 0.032096 0
-0.309998 0.026675 0
-0.316822 0.021396 0
-0.321398 0.016245 0
-0.323814 0.011185 0
-0.324114 0.006155 0
-0.322303 0.001078 0
-0.318267 -0.004169 0
-0.311976 -0.009701 0
-0.303347 -0.015609 0
-0.292217 -0.021994 0
-0.278367 -0.028893 0
-0.261558 -0.036289 0
-0.241564 -0.044056 0
-0.218125 -0.052011 0
-0.191181 -0.059819 0
-0.160840 -0.066824 0
-0.127570 -0.071950 0
-0.092411 -0.073477 0
-0.057323 -0.068706 0
-0.025478 -0.053456 0
0.001889 -0.019774 0
0.016585 0.015062 0
0.008393 0.026553 0
0.000000 0.013004 0
0.000000 -0.012014 0
-0.002960 -0.020103 0
-0.017722 -0.004241 0
-0.041483 0.017800 0
-0.069314 0.036707 0
-0.098620 0.052457 0
-0.129378 0.064436 0
-0.160087 0.073318 0
-0.188234 0.079459 0
-0.212787 0.082043 0
-0.234081 0.080889 0
-0.252406 0.076744 0
-0.267988 0.070557 0
-0.281076 0.063186 0
-0.291911 0.055306 0
-0.300707 0.047378 0
-0.307614 0.039640 0
-0.312796 0.032177 0
-0.316375 0.024996 0
-0.318437 0.018047 0
-0.319025 0.011247 0
-0.318141 0.004485 0
-0.315747 -0.002376 0
-0.311763 -0.009471 0
-0.306099 -0.016959 0
-0.298598 -0.025006 0
-0.289083 -0.033727 0
-0.277349 -0.043190 0
-0.263171 -0.053388 0
-0.246312 -0.064205 0
-0.226531 -0.075387 0
-0.203696 -0.086444 0
-0.177800 -0.096487 0
-0.149075 -0.104046 0
-0.118113 -0.106809 0
-0.086029 -0.101299 0
-0.054531 -0.082692 0
-0.025669 -0.045828 0
0.000984 0.005339 0
0.002154 0.031958 0
0.000000 0.015503 0
0.000000 -0.006036 0
-0.020472 -0.001168 0
-0.049127 0.022098 0
-0.078112 0.045742 0
-0.107891 0.066241 0
-0.137263 0.082262 0
-0.165293 0.093439 0
-0.191185 0.100159 0
-0.213779 0.102901 0
-0.232617 0.101828 0
-0.248052 0.097386 0
-0.260632 0.090411 0
-0.270878 0.081821 0
-0.279231 0.072415 0
-0.286027 0.062787 0
-0.291495 0.053316 0
-0.295778 0.044184 0
-0.298975 0.035437 0
-0.301142 0.027036 0
-0.302303 0.018894 0
-0.302447 0.010890 0
-0.301538 0.002878 0
-0.299516 -0.005300 0
-0.296310 -0.013817 0
-0.291793 -0.022865 0
-0.285838 -0.032626 0
-0.278290 -0.043243 0
-0.268973 -0.054805 0
-0.257685 -0.067326 0
-0.244211 -0.080695 0
-0.228326 -0.094628 0
-0.209844 -0.108550 0
-0.188635 -0.121445 0
-0.164666 -0.131637 0
-0.138053 -0.136523 0
-0.109120 -0.132288 0
-0.078439 -0.113816 0
-0.046903 -0.075289 0
-0.016536 -0.012761 0
0.001271 0.027536 0
0.000000 0.015159 0
0.000000 0.008457 0
-0.031883 0.029023 0
-0.065570 0.053400 0
-0.097803 0.076564 0
-0.128137 0.095858 0
-0.155931 0.109859 0
-0.180668 0.118358 0
-0.202022 0.121804 0
-0.219692 0.120891 0
-0.233780 0.116316 0
-0.244811 0.108904 0
-0.253429 0.099570 0
-0.260224 0.089156 0
-0.265651 0.078335 0
-0.270025 0.067570 0
-0.273538 0.057129 0
-0.276293 0.047120 0
-0.278345 0.037542 0
-0.279714 0.028324 0
-0.280397 0.019352 0
-0.280368 0.010482 0
-0.279584 0.001553 0
-0.277985 -0.007604 0
-0.275517 -0.017194 0
-0.272075 -0.027431 0
-0.267554 -0.038509 0
-0.261831 -0.050592 0
-0.254762 -0.063795 0
-0.246180 -0.078150 0
-0.235895 -0.093565 0
-0.223701 -0.109754 0
-0.209378 -0.126135 0
-0.192691 -0.141664 0
-0.173385 -0.154627 0
-0.151176 -0.162354 0
-0.125759 -0.160913 0
-0.096882 -0.144909 0
-0.064596 -0.107731 0
-0.029935 -0.042835 0
0.004025 0.015422 0
0.000000 0.016774 0
0.000000 0.025846 0
-0.035570 0.064402 0
-0.072087 0.088019 0
-0.105292 0.108309 0
-0.134860 0.124370 0
-0.160493 0.134793 0
-0.182076 0.139529 0
-0.199695 0.139182 0
-0.213581 0.134659 0
-0.224203 0.126947 0
-0.232204 0.117035 0
-0.238239 0.105824 0
-0.242855 0.094043 0
-0.246455 0.082216 0
-0.249300 0.070674 0
-0.251546 0.059583 0
-0.253276 0.048991 0
-0.254532 0.038858 0
-0.255327 0.029089 0
-0.255656 0.019549 0
-0.255501 0.010077 0
-0.254828 0.000495 0
-0.253588 -0.009367 0
-0.251728 -0.019728 0
-0.249177 -0.030828 0
-0.245856 -0.042869 0
-0.241671 -0.056035 0
-0.236511 -0.070457 0
-0.230244 -0.086193 0
-0.222712 -0.103174 0
-0.213729 -0.121145 0
-0.203069 -0.139560 0
-0.190437 -0.157438 0
-0.175438 -0.173153 0
-0.157517 -0.184149 0
-0.135930 -0.186583 0
-0.109783 -0.174979 0
-0.078320 -0.142236 0
-0.041700 -0.081381 0
-0.002290 -0.002399 0
0.000000 0.019183 0
0.000000 0.044027 0
-0.035844 0.101111 0
-0.072354 0.123121 0
-0.104739 0.139336 0
-0.132636 0.151059 0
-0.155913 0.157075 0
-0.174718 0.157561 0
-0.189423 0.153310 0
-0.200561 0.145398 0
-0.208784 0.134939 0
-0.214777 0.122941 0
-0.219148 0.110221 0
-0.222377 0.097372 0
-0.224802 0.084780 0
-0.226642 0.072662 0
-0.228031 0.061105 0
-0.229047 0.050105 0
-0.229729 0.039592 0
-0.230096 0.029449 0
-0.230148 0.019526 0
-0.229877 0.009653 0
-0.229263 -0.000359 0
-0.228278 -0.010704 0
-0.226866 -0.021605 0
-0.224987 -0.033303 0
-0.222586 -0.046015 0
-0.219597 -0.059937 0
-0.215938 -0.075223 0
-0.211507 -0.091949 0
-0.206179 -0.110079 0
-0.199792 -0.129398 0
-0.192132 -0.149427 0
-0.182898 -0.169295 0
-0.171643 -0.187547 0
-0.157696 -0.201862 0
-0.140090 -0.208647 0
-0.117571 -0.202518 0
-0.088889 -0.175814 0
-0.053840 -0.118866 0
-0.016357 -0.026278 0
0.000000 0.014485 0
0.000000 0.061690 0
-0.034027 0.136755 0
-0.068826 0.156914 0
-0.099277 0.168591 0
-0.124981 0.175544 0
-0.145894 0.176875 0
-0.162313 0.173039 0
-0.174773 0.165025 0
-0.183943 0.154020 0
-0.190535 0.141163 0
-0.195211 0.127400 0
-0.198515 0.113425 0
-0.200856 0.099696 0
-0.202521 0.086481 0
-0.203702 0.073903 0
-0.204518 0.061989 0
-0.205043 0.050689 0
-0.205320 0.039907 0
-0.205372 0.029508 0
-0.205207 0.019330 0
-0.204827 0.009191 0
-0.204221 -0.001104 0
-0.203376 -0.011764 0
-0.202257 -0.023019 0
-0.200841 -0.035108 0
-0.199095 -0.048260 0
-0.196975 -0.062683 0
-0.194424 -0.078547 0
-0.191365 -0.095951 0
-0.187696 -0.114889 0
-0.183282 -0.135192 0
-0.177930 -0.156454 0
-0.171363 -0.177927 0
-0.163151 -0.198355 0
-0.152631 -0.215701 0
-0.138799 -0.226707 0
-0.120269 -0.226180 0
-0.095494 -0.205967 0
-0.063693 -0.153913 0
-0.027433 -0.056239 0
0.000000 0.002826 0
0.000000 0.078055 0
-0.031022 0.169937 0
-0.063164 0.188371 0
-0.091078 0.195491 0
-0.114349 0.197676 0
-0.132988 0.194407 0
-0.147363 0.186440 0
-0.158072 0.174940 0
-0.165818 0.161161 0
-0.171293 0.146207 0
-0.175101 0.130920 0
-0.177717 0.115865 0
-0.179494 0.101379 0
-0.180675 0.087626 0
-0.181430 0.074658 0
-0.181868 0.062446 0
-0.182059 0.050908 0
-0.182048 0.039921 0
-0.181863 0.029336 0
-0.181520 0.018981 0
-0.181028 0.008667 0
-0.180389 -0.001810 0
-0.179599 -0.012668 0
-0.178646 -0.024140 0
-0.177522 -0.036465 0
-0.176210 -0.049881 0
-0.174686 -0.064609 0
-0.172912 -0.080833 0
-0.170830 -0.098676 0
-0.168357 -0.118162 0
-0.165375 -0.139164 0
-0.161715 -0.161346 0
-0.157129 -0.184074 0
-0.151239 -0.206279 0
-0.143451 -0.226214 0
-0.132832 -0.241009 0
-0.117991 -0.245823 0
-0.097118 -0.232391 0
-0.068588 -0.186928 0
-0.033038 -0.089971 0
0.000000 -0.012948 0
0.000000 0.092712 0
-0.027427 0.199919 0
-0.056450 0.216969 0
-0.081567 0.219776 0
-0.102354 0.217454 0
-0.118857 0.209889 0
-0.131465 0.198123 0
-0.140773 0.183480 0
-0.147454 0.167241 0
-0.152140 0.150446 0
-0.155362 0.133824 0
-0.157531 0.117818 0
-0.158945 0.102654 0
-0.159817 0.088417 0
-0.160294 0.075096 0
-0.160478 0.062618 0
-0.160435 0.050870 0
-0.160212 0.039711 0
-0.159840 0.028979 0
-0.159343 0.018494 0
-0.158736 0.008060 0
-0.158033 -0.002533 0
-0.157240 -0.013506 0
-0.156362 -0.025096 0
-0.155400 -0.037545 0
-0.154354 -0.051096 0
-0.153215 -0.065981 0
-0.151960 -0.082403 0
-0.150546 -0.100506 0
-0.148906 -0.120344 0
-0.146935 -0.141834 0
-0.144478 -0.164700 0
-0.141314 -0.188403 0
-0.137114 -0.212033 0
-0.131371 -0.234108 0
-0.123275 -0.252167 0
-0.111527 -0.261894 0
-0.094185 -0.255370 0
-0.068929 -0.217993 0
-0.034867 -0.124826 0
0.000000 -0.030213 0
0.000000 0.105481 0
-0.023609 0.226387 0
-0.049357 0.242511 0
-0.071629 0.241395 0
-0.089993 0.234966 0
-0.104517 0.223518 0
-0.115576 0.208356 0
-0.123727 0.190929 0
-0.129573 0.172527 0
-0.133673 0.154115 0
-0.136479 0.136311 0
-0.138340 0.119448 0
-0.139510 0.103665 0
-0.140173 0.088975 0
-0.140459 0.075319 0
-0.140459 0.062587 0
-0.140241 0.050642 0
-0.139851 0.039326 0
-0.139326 0.028467 0
-0.138693 0.017877 0
-0.137974 0.007358 0
-0.137191 -0.003306 0
-0.136359 -0.014340 0
-0.135492 -0.025980 0
-0.134602 -0.038473 0
-0.133700 -0.052066 0
-0.132789 -0.067003 0
-0.131860 -0.083501 0
-0.130885 -0.101729 0
-0.129807 -0.121774 0
-0.128533 -0.143592 0
-0.126922 -0.166967 0
-0.124767 -0.191438 0
-0.121776 -0.216221 0
-0.117517 -0.240053 0
-0.111314 -0.260853 0
-0.102039 -0.274914 0
-0.087814 -0.274989 0
-0.065977 -0.246245 0
-0.034587 -0.158900 0
0.000000 -0.047815 0
0.000000 0.116321 0
-0.019780 0.249276 0
-0.042273 0.264990 0
-0.061775 0.260413 0
-0.077838 0.250342 0
-0.090539 0.235472 0
-0.100222 0.217333 0
-0.107381 0.197477 0
-0.112541 0.177187 0
-0.116173 0.157352 0
-0.118658 0.138492 0
-0.120287 0.120849 0
-0.121276 0.104487 0
-0.121781 0.089365 0
-0.121918 0.075382 0
-0.121774 0.062400 0
-0.121414 0.050262 0
-0.120886 0.038796 0
-0.120230 0.027820 0
-0.119478 0.017143 0
-0.118656 0.006559 0
-0.117788 -0.004148 0
-0.116898 -0.015206 0
-0.116005 -0.026853 0
-0.115129 -0.039336 0
-0.114289 -0.052908 0
-0.113496 -0.067821 0
-0.112754 -0.084307 0
-0.112047 -0.102559 0
-0.111333 -0.122696 0
-0.110531 -0.144719 0
-0.109512 -0.168466 0
-0.108082 -0.193549 0
-0.105971 -0.219283 0
-0.102801 -0.244570 0
-0.098014 -0.267646 0
-0.090688 -0.285393 0
-0.079169 -0.291431 0
-0.060748 -0.271221 0
-0.032736 -0.190804 0
0.000000 -0.064799 0
0.000000 0.125262 0
-0.016050 0.268660 0
-0.035400 0.284506 0
-0.052267 0.276959 0
-0.066172 0.263730 0
-0.077198 0.245903 0
-0.085642 0.225198 0
-0.091925 0.203247 0
-0.096488 0.181318 0
-0.099719 0.160233 0
-0.101932 0.140426 0
-0.103365 0.122066 0
-0.104199 0.105158 0
-0.104569 0.089618 0
-0.104580 0.075313 0
-0.104312 0.062082 0
-0.103830 0.049753 0
-0.103184 0.038142 0
-0.102417 0.027059 0
-0.101562 0.016303 0
-0.100649 0.005668 0
-0.099701 -0.005064 0
-0.098748 -0.016123 0
-0.097813 -0.027749 0
-0.096918 -0.040189 0
-0.096088 -0.053699 0
-0.095341 -0.068538 0
-0.094691 -0.084950 0
-0.094134 -0.103151 0
-0.093641 -0.123290 0
-0.093150 -0.145414 0
-0.092545 -0.169416 0
-0.091649 -0.194978 0
-0.090210 -0.221502 0
-0.087884 -0.248010 0
-0.084203 -0.272967 0
-0.078446 -0.293759 0
-0.069266 -0.304928 0
-0.054145 -0.292678 0
-0.029910 -0.219648 0
0.000000 -0.080551 0
0.000000 0.132371 0
-0.012458 0.284676 0
-0.028811 0.301206 0
-0.043200 0.291186 0
-0.055096 0.275273 0
-0.064577 0.254941 0
-0.071890 0.232061 0
-0.077380 0.208323 0
-0.081402 0.184980 0
-0.084268 0.162796 0
-0.086230 0.142138 0
-0.087480 0.123116 0
-0.088168 0.105691 0
-0.088413 0.089747 0
-0.088308 0.075125 0
-0.087929 0.061650 0
-0.087341 0.049134 0
-0.086595 0.037383 0
-0.085734 0.026198 0
-0.084793 0.015374 0
-0.083802 0.004698 0
-0.082787 -0.006048 0
-0.081776 -0.017095 0
-0.080794 -0.028683 0
-0.079868 -0.041061 0
-0.079022 -0.054485 0
-0.078281 -0.069218 0
-0.077664 -0.085515 0
-0.077179 -0.103609 0
-0.076813 -0.123680 0
-0.076520 -0.145816 0
-0.076206 -0.169966 0
-0.075716 -0.195883 0
-0.074819 -0.223049 0
-0.073198 -0.250577 0
-0.070451 -0.277084 0
-0.066020 -0.300330 0
-0.058885 -0.315732 0
-0.046866 -0.310577 0
-0.026547 -0.244949 0
0.000000 -0.094709 0
0.000000 0.137719 0
-0.008998 0.297471 0
-0.022504 0.315248 0
-0.034568 0.303245 0
-0.044592 0.285106 0
-0.052640 0.262696 0
-0.058908 0.238001 0
-0.063664 0.212760 0
-0.067181 0.188207 0
-0.069702 0.165060 0
-0.071419 0.143637 0
-0.072489 0.124004 0
-0.073033 0.106091 0
-0.073156 0.089758 0
-0.072941 0.074829 0
-0.072464 0.061116 0
-0.071784 0.048419 0
-0.070955 0.036535 0
-0.070018 0.025256 0
-0.069008 0.014371 0
-0.067957 0.003662 0
-0.066888 -0.007090 0
-0.065831 -0.018115 0
-0.064810 -0.029657 0
-0.063853 -0.041962 0
-0.062984 -0.055286 0
-0.062232 -0.069895 0
-0.061620 -0.086052 0
-0.061166 -0.104002 0
-0.060868 -0.123950 0
-0.060701 -0.146021 0
-0.060597 -0.170219 0
-0.060428 -0.196366 0
-0.059990 -0.224021 0
-0.059000 -0.252378 0
-0.057103 -0.280145 0
-0.053863 -0.305325 0
-0.048554 -0.324082 0
-0.039406 -0.325016 0
-0.022962 -0.266515 0
0.000000 -0.107098 0
0.000000 0.141369 0
-0.005644 0.307179 0
-0.016428 0.326776 0
-0.026303 0.313274 0
-0.034572 0.293345 0
-0.041280 0.269256 0
-0.046570 0.243084 0
-0.050636 0.216597 0
-0.053674 0.191019 0
-0.055859 0.167034 0
-0.057336 0.144925 0
-0.058225 0.124730 0
-0.058626 0.106358 0
-0.058628 0.089655 0
-0.058312 0.074433 0
-0.057746 0.060493 0
-0.056989 0.047625 0
-0.056094 0.035616 0
-0.055100 0.024252 0
-0.054043 0.013313 0
-0.052950 0.002577 0
-0.051844 -0.008174 0
-0.050755 -0.019172 0
-0.049709 -0.030661 0
-0.048730 -0.042887 0
-0.047845 -0.056106 0
-0.047082 -0.070581 0
-0.046469 -0.086581 0
-0.046029 -0.104362 0
-0.045774 -0.124144 0
-0.045697 -0.146086 0
-0.045755 -0.170240 0
-0.045851 -0.196491 0
-0.045819 -0.224477 0
-0.045416 -0.253464 0
-0.044334 -0.282220 0
-0.042222 -0.308879 0
-0.038586 -0.330189 0
-0.032079 -0.336169 0
-0.019361 -0.284355 0
0.000000 -0.117671 0
0.000000 0.143364 0
-0.002377 0.313899 0
-0.010506 0.335907 0
-0.018295 0.321389 0
-0.024903 0.300083 0
-0.030347 0.274694 0
-0.034713 0.247357 0
-0.038123 0.219863 0
-0.040700 0.193430 0
-0.042560 0.168723 0
-0.043800 0.146003 0
-0.044509 0.125294 0
-0.044769 0.106495 0
-0.044657 0.089444 0
-0.044247 0.073946 0
-0.043603 0.059793 0
-0.042784 0.046767 0
-0.041839 0.034646 0
-0.040809 0.023206 0
-0.039724 0.012221 0
-0.038614 0.001463 0
-0.037487 -0.009285 0
-0.036385 -0.020250 0
-0.035330 -0.031682 0
-0.034346 -0.043825 0
-0.033459 -0.056934 0
-0.032697 -0.071271 0
-0.032090 -0.087105 0
-0.031668 -0.104697 0
-0.031453 -0.124281 0
-0.031455 -0.146040 0
-0.031655 -0.170065 0
-0.031988 -0.196301 0
-0.032329 -0.224455 0
-0.032485 -0.253863 0
-0.032201 -0.283339 0
-0.031189 -0.311073 0
-0.029128 -0.334225 0
-0.025053 -0.344241 0
-0.015859 -0.298593 0
0.000000 -0.126459 0
0.000000 0.143746 0
0.000775 0.317685 0
-0.004624 0.342694 0
-0.010417 0.327671 0
-0.015434 0.305397 0
-0.019668 0.279066 0
-0.023152 0.250860 0
-0.025932 0.222584 0
-0.028067 0.195456 0
-0.029612 0.170134 0
-0.030623 0.146874 0
-0.031160 0.125699 0
-0.031287 0.106507 0
-0.031070 0.089132 0
-0.030577 0.073379 0
-0.029870 0.059031 0
-0.029004 0.045861 0
-0.028026 0.033641 0
-0.026974 0.022137 0
-0.025879 0.011119 0
-0.024764 0.000340 0
-0.023648 -0.010404 0
-0.022554 -0.021329 0
-0.021509 -0.032700 0
-0.020538 -0.044759 0
-0.019666 -0.057755 0
-0.018923 -0.071950 0
-0.018340 -0.087611 0
-0.017952 -0.104999 0
-0.017791 -0.124357 0
-0.017881 -0.145885 0
-0.018225 -0.169707 0
-0.018787 -0.195817 0
-0.019485 -0.223981 0
-0.020178 -0.253593 0
-0.020680 -0.283515 0
-0.020760 -0.311952 0
-0.020211 -0.336326 0
-0.018390 -0.349438 0
-0.012510 -0.309408 0
0.000000 -0.133530 0
0.000000 0.142588 0
0.003834 0.318523 0
0.001310 0.347100 0
-0.002508 0.332199 0
-0.005991 0.309334 0
-0.009062 0.282412 0
-0.011705 0.253621 0
-0.013877 0.224778 0
-0.015582 0.197110 0
-0.016825 0.171279 0
-0.017620 0.147551 0
-0.017998 0.125958 0
-0.018006 0.106405 0
-0.017700 0.088734 0
-0.017142 0.072746 0
-0.016389 0.058220 0
-0.015494 0.044923 0
-0.014500 0.032616 0
-0.013442 0.021058 0
-0.012348 0.010012 0
-0.011245 -0.000768 0
-0.010158 -0.011496 0
-0.009092 -0.022389 0
-0.008076 -0.033698 0
-0.007136 -0.045668 0
-0.006300 -0.058549 0
-0.005595 -0.072597 0
-0.005058 -0.088076 0
-0.004728 -0.105246 0
-0.004646 -0.124352 0
-0.004846 -0.145606 0
-0.005350 -0.169158 0
-0.006151 -0.195041 0
-0.007204 -0.223065 0
-0.008423 -0.252668 0
-0.009695 -0.282757 0
-0.010862 -0.311542 0
-0.011788 -0.336595 0
-0.012081 -0.351943 0
-0.009320 -0.316984 0
0.000000 -0.138968 0
0.000000 0.139912 0
0.006893 0.316375 0
0.007336 0.349037 0
0.005549 0.334973 0
0.003584 0.311951 0
0.001663 0.284780 0
-0.000146 0.255676 0
-0.001742 0.226461 0
-0.003046 0.198403 0
-0.004009 0.172171 0
-0.004609 0.148047 0
-0.004848 0.126085 0
-0.004756 0.106209 0
-0.004382 0.088268 0
-0.003780 0.072068 0
-0.003003 0.057383 0
-0.002097 0.043972 0
-0.001104 0.031589 0
-0.000055 0.019984 0
0.001020 0.008922 0
0.002097 -0.001850 0
0.003151 -0.012556 0
0.004173 -0.023411 0
0.005143 -0.034656 0
0.006033 -0.046536 0
0.006816 -0.059296 0
0.007460 -0.073191 0
0.007925 -0.088477 0
0.008169 -0.105412 0
0.008143 -0.124239 0
0.007803 -0.145180 0
0.007112 -0.168402 0
0.006054 -0.193963 0
0.004634 -0.221708 0
0.002887 -0.251102 0
0.000869 -0.281076 0
-0.001381 -0.309859 0
-0.003763 -0.335107 0
-0.006063 -0.351906 0
-0.006267 -0.321488 0
0.000000 -0.142850 0
0.000000 0.135695 0
0.010020 0.311188 0
0.013520 0.348443 0
0.013836 0.335950 0
0.013409 0.313221 0
0.012650 0.286142 0
0.011692 0.257026 0
0.010669 0.227678 0
0.009746 0.199377 0
0.009039 0.172842 0
0.008612 0.148389 0
0.008486 0.126106 0
0.008648 0.105940 0
0.009062 0.087758 0
0.009681 0.071366 0
0.010459 0.056537 0
0.011352 0.043024 0
0.012325 0.030573 0
0.013346 0.018934 0
0.014388 0.007860 0
0.015432 -0.002899 0
0.016445 -0.013572 0
0.017415 -0.024381 0
0.018325 -0.035558 0
0.019150 -0.047342 0
0.019862 -0.059975 0
0.020425 -0.073706 0
0.020797 -0.088786 0
0.020929 -0.105464 0
0.020768 -0.123986 0
0.020259 -0.144575 0
0.019354 -0.167409 0
0.018010 -0.192562 0
0.016196 -0.219899 0
0.013896 -0.248903 0
0.011104 -0.278488 0
0.007789 -0.306910 0
0.003982 -0.331913 0
-0.000234 -0.349438 0
-0.003301 -0.323047 0
0.000000 -0.145235 0
0.000000 0.129891 0
0.013257 0.302855 0
0.019948 0.345221 0
0.022461 0.335083 0
0.023590 0.313137 0
0.023996 0.286497 0
0.023891 0.257656 0
0.023470 0.228407 0
0.022944 0.200033 0
0.022490 0.173306 0
0.022219 0.148601 0
0.022182 0.126049 0
0.022386 0.105633 0
0.022810 0.087235 0
0.023417 0.070671 0
0.024168 0.055712 0
0.025025 0.042106 0
0.025956 0.029594 0
0.026930 0.017921 0
0.027925 0.006836 0
0.028918 -0.003906 0
0.029879 -0.014539 0
0.030790 -0.025291 0
0.031631 -0.036392 0
0.032379 -0.048073 0
0.033005 -0.060571 0
0.033471 -0.074126 0
0.033731 -0.088981 0
0.033733 -0.105383 0
0.033418 -0.123570 0
0.032721 -0.143767 0
0.031578 -0.166152 0
0.029922 -0.190805 0
0.027687 -0.217595 0
0.024802 -0.246010 0
0.021193 -0.274969 0