# vtk DataFile Version 2.0
generated by CFD-lab course output (written by Tobias Neckel) 
ASCII

DATASET STRUCTURED_GRID
DIMENSIONS  41 41 1 
POINTS 1681 float

0.150000 0.150000 0
0.167857 0.150000 0
0.185714 0.150000 0
0.203571 0.150000 0
0.221429 0.150000 0
0.239286 0.150000 0
0.257143 0.150000 0
0.275000 0.150000 0
0.292857 0.150000 0
0.310714 0.150000 0
0.328571 0.150000 0
0.346429 0.150000 0
0.364286 0.150000 0
0.382143 0.150000 0
0.400000 0.150000 0
0.417857 0.150000 0
0.435714 0.150000 0
0.453571 0.150000 0
0.471429 0.150000 0
0.489286 0.150000 0
0.507143 0.150000 0
0.525000 0.150000 0
0.542857 0.150000 0
0.560714 0.150000 0
0.578571 0.150000 0
0.596429 0.150000 0
0.614286 0.150000 0
0.632143 0.150000 0
0.650000 0.150000 0
0.667857 0.150000 0
0.685714 0.150000 0
0.703571 0.150000 0
0.721429 0.150000 0
0.739286 0.150000 0
0.757143 0.150000 0
0.775000 0.150000 0
0.792857 0.150000 0
0.810714 0.150000 0
0.828571 0.150000 0
0.846429 0.150000 0
0.864286 0.150000 0
0.150000 0.167857 0
0.167857 0.167857 0
0.185714 0.167857 0
0.203571 0.167857 0
0.221429 0.167857 0
0.239286 0.167857 0
0.257143 0.167857 0
0.275000 0.167857 0
0.292857 0.167857 0
0.310714 0.167857 0
0.328571 0.167857 0
0.346429 0.167857 0
0.364286 0.167857 0
0.382143 0.167857 0
0.400000 0.167857 0
0.417857 0.167857 0
0.435714 0.167857 0
0.453571 0.167857 0
0.471429 0.167857 0
0.489286 0.167857 0
0.507143 0.167857 0
0.525000 0.167857 0
0.542857 0.167857 0
0.560714 0.167857 0
0.578571 0.167857 0
0.596429 0.167857 0
0.614286 0.167857 0
0.632143 0.167857 0
0.650000 0.167857 0
0.667857 0.167857 0
0.685714 0.167857 0
0.703571 0.167857 0
0.721429 0.167857 0
0.739286 0.167857 0
0.757143 0.167857 0
0.775000 0.167857 0
0.792857 0.167857 0
0.810714 0.167857 0
0.828571 0.167857 0
0.846429 0.167857 0
0.864286 0.167857 0
0.150000 0.185714 0
0.167857 0.185714 0
0.185714 0.185714 0
0.203571 0.185714 0
0.221429 0.185714 0
0.239286 0.185714 0
0.257143 0.185714 0
0.275000 0.185714 0
0.292857 0.185714 0
0.310714 0.185714 0
0.328571 0.185714 0
0.346429 0.185714 0
0.364286 0.185714 0
0.382143 0.185714 0
0.400000 0.185714 0
0.417857 0.185714 0
0.435714 0.185714 0
0.453571 0.185714 0
0.471429 0.185714 0
0.489286 0.185714 0
0.507143 0.185714 0
0.525000 0.185714 0
0.542857 0.185714 0
0.560714 0.185714 0
0.578571 0.185714 0
0.596429 0.185714 0
0.614286 0.185714 0
0.632143 0.185714 0
0.650000 0.185714 0
0.667857 0.185714 0
0.685714 0.185714 0
0.703571 0.185714 0
0.721429 0.185714 0
0.739286 0.185714 0
0.757143 0.185714 0
0.775000 0.185714 0
0.792857 0.185714 0
0.810714 0.185714 0
0.828571 0.185714 0
0.846429 0.185714 0
0.864286 0.185714 0
0.150000 0.203571 0
0.167857 0.203571 0
0.185714 0.203571 0
0.203571 0.203571 0
0.221429 0.203571 0
0.239286 0.203571 0
0.257143 0.203571 0
0.275000 0.203571 0
0.292857 0.203571 0
0.310714 0.203571 0
0.328571 0.203571 0
0.346429 0.203571 0
0.364286 0.203571 0
0.382143 0.203571 0
0.400000 0.203571 0
0.417857 0.203571 0
0.435714 0.203571 0
0.453571 0.203571 0
0.471429 0.203571 0
0.489286 0.203571 0
0.507143 0.203571 0
0.525000 0.203571 0
0.542857 0.203571 0
0.560714 0.203571 0
0.578571 0.203571 0
0.596429 0.203571 0
0.614286 0.203571 0
0.632143 0.203571 0
0.650000 0.203571 0
0.667857 0.203571 0
0.685714 0.203571 0
0.703571 0.203571 0
0.721429 0.203571 0
0.739286 0.203571 0
0.757143 0.203571 0
0.775000 0.203571 0
0.792857 0.203571 0
0.810714 0.203571 0
0.828571 0.203571 0
0.846429 0.203571 0
0.864286 0.203571 0
0.150000 0.221429 0
0.167857 0.221429 0
0.185714 0.221429 0
0.203571 0.221429 0
0.221429 0.221429 0
0.239286 0.221429 0
0.257143 0.221429 0
0.275000 0.221429 0
0.292857 0.221429 0
0.310714 0.221429 0
0.328571 0.221429 0
0.346429 0.221429 0
0.364286 0.221429 0
0.382143 0.221429 0
0.400000 0.221429 0
0.417857 0.221429 0
0.435714 0.221429 0
0.453571 0.221429 0
0.471429 0.221429 0
0.489286 0.221429 0
0.507143 0.221429 0
0.525000 0.221429 0
0.542857 0.221429 0
0.560714 0.221429 0
0.578571 0.221429 0
0.596429 0.221429 0
0.614286 0.221429 0
0.632143 0.221429 0
0.650000 0.221429 0
0.667857 0.221429 0
0.685714 0.221429 0
0.703571 0.221429 0
0.721429 0.221429 0
0.739286 0.221429 0
0.757143 0.221429 0
0.775000 0.221429 0
0.792857 0.221429 0
0.810714 0.221429 0
0.828571 0.221429 0
0.846429 0.221429 0
0.864286 0.221429 0
0.150000 0.239286 0
0.167857 0.239286 0
0.185714 0.239286 0
0.203571 0.239286 0
0.221429 0.239286 0
0.239286 0.239286 0
0.257143 0.239286 0
0.275000 0.239286 0
0.292857 0.239286 0
0.310714 0.239286 0
0.328571 0.239286 0
0.346429 0.239286 0
0.364286 0.239286 0
0.382143 0.239286 0
0.400000 0.239286 0
0.417857 0.239286 0
0.435714 0.239286 0
0.453571 0.239286 0
0.471429 0.239286 0
0.489286 0.239286 0
0.507143 0.239286 0
0.525000 0.239286 0
0.542857 0.239286 0
0.560714 0.239286 0
0.578571 0.239286 0
0.596429 0.239286 0
0.614286 0.239286 0
0.632143 0.239286 0
0.650000 0.239286 0
0.667857 0.239286 0
0.685714 0.239286 0
0.703571 0.239286 0
0.721429 0.239286 0
0.739286 0.239286 0
0.757143 0.239286 0
0.775000 0.239286 0
0.792857 0.239286 0
0.810714 0.239286 0
0.828571 0.239286 0
0.846429 0.239286 0
0.864286 0.239286 0
0.150000 0.257143 0
0.167857 0.257143 0
0.185714 0.257143 0
0.203571 0.257143 0
0.221429 0.257143 0
0.239286 0.257143 0
0.257143 0.257143 0
0.275000 0.257143 0
0.292857 0.257143 0
0.310714 0.257143 0
0.328571 0.257143 0
0.346429 0.257143 0
0.364286 0.257143 0
0.382143 0.257143 0
0.400000 0.257143 0
0.417857 0.257143 0
0.435714 0.257143 0
0.453571 0.257143 0
0.471429 0.257143 0
0.489286 0.257143 0
0.507143 0.257143 0
0.525000 0.257143 0
0.542857 0.257143 0
0.560714 0.257143 0
0.578571 0.257143 0
0.596429 0.257143 0
0.614286 0.257143 0
0.632143 0.257143 0
0.650000 0.257143 0
0.667857 0.257143 0
0.685714 0.257143 0
0.703571 0.257143 0
0.721429 0.257143 0
0.739286 0.257143 0
0.757143 0.257143 0
0.775000 0.257143 0
0.792857 0.257143 0
0.810714 0.257143 0
0.828571 0.257143 0
0.846429 0.257143 0
0.864286 0.257143 0
0.150000 0.275000 0
0.167857 0.275000 0
0.185714 0.275000 0
0.203571 0.275000 0
0.221429 0.275000 0
0.239286 0.275000 0
0.257143 0.275000 0
0.275000 0.275000 0
0.292857 0.275000 0
0.310714 0.275000 0
0.328571 0.275000 0
0.346429 0.275000 0
0.364286 0.275000 0
0.382143 0.275000 0
0.400000 0.275000 0
0.417857 0.275000 0
0.435714 0.275000 0
0.453571 0.275000 0
0.471429 0.275000 0
0.489286 0.275000 0
0.507143 0.275000 0
0.525000 0.275000 0
0.542857 0.275000 0
0.560714 0.275000 0
0.578571 0.275000 0
0.596429 0.275000 0
0.614286 0.275000 0
0.632143 0.275000 0
0.650000 0.275000 0
0.667857 0.275000 0
0.685714 0.275000 0
0.703571 0.275000 0
0.721429 0.275000 0
0.739286 0.275000 0
0.757143 0.275000 0
0.775000 0.275000 0
0.792857 0.275000 0
0.810714 0.275000 0
0.828571 0.275000 0
0.846429 0.275000 0
0.864286 0.275000 0
0.150000 0.292857 0
0.167857 0.292857 0
0.185714 0.292857 0
0.203571 0.292857 0
0.221429 0.292857 0
0.239286 0.292857 0
0.257143 0.292857 0
0.275000 0.292857 0
0.292857 0.292857 0
0.310714 0.292857 0
0.328571 0.292857 0
0.346429 0.292857 0
0.364286 0.292857 0
0.382143 0.292857 0
0.400000 0.292857 0
0.417857 0.292857 0
0.435714 0.292857 0
0.453571 0.292857 0
0.471429 0.292857 0
0.489286 0.292857 0
0.507143 0.292857 0
0.525000 0.292857 0
0.542857 0.292857 0
0.560714 0.292857 0
0.578571 0.292857 0
0.596429 0.292857 0
0.614286 0.292857 0
0.632143 0.292857 0
0.650000 0.292857 0
0.667857 0.292857 0
0.685714 0.292857 0
0.703571 0.292857 0
0.721429 0.292857 0
0.739286 0.292857 0
0.757143 0.292857 0
0.775000 0.292857 0
0.792857 0.292857 0
0.810714 0.292857 0
0.828571 0.292857 0
0.846429 0.292857 0
0.864286 0.292857 0
0.150000 0.310714 0
0.167857 0.310714 0
0.185714 0.310714 0
0.203571 0.310714 0
0.221429 0.310714 0
0.239286 0.310714 0
0.257143 0.310714 0
0.275000 0.310714 0
0.292857 0.310714 0
0.310714 0.310714 0
0.328571 0.310714 0
0.346429 0.310714 0
0.364286 0.310714 0
0.382143 0.310714 0
0.400000 0.310714 0
0.417857 0.310714 0
0.435714 0.310714 0
0.453571 0.310714 0
0.471429 0.310714 0
0.489286 0.310714 0
0.507143 0.310714 0
0.525000 0.310714 0
0.542857 0.310714 0
0.560714 0.310714 0
0.578571 0.310714 0
0.596429 0.310714 0
0.614286 0.310714 0
0.632143 0.310714 0
0.650000 0.310714 0
0.667857 0.310714 0
0.685714 0.310714 0
0.703571 0.310714 0
0.721429 0.310714 0
0.739286 0.310714 0
0.757143 0.310714 0
0.775000 0.310714 0
0.792857 0.310714 0
0.810714 0.310714 0
0.828571 0.310714 0
0.846429 0.310714 0
0.864286 0.310714 0
0.150000 0.328571 0
0.167857 0.328571 0
0.185714 0.328571 0
0.203571 0.328571 0
0.221429 0.328571 0
0.239286 0.328571 0
0.257143 0.328571 0
0.275000 0.328571 0
0.292857 0.328571 0
0.310714 0.328571 0
0.328571 0.328571 0
0.346429 0.328571 0
0.364286 0.328571 0
0.382143 0.328571 0
0.400000 0.328571 0
0.417857 0.328571 0
0.435714 0.328571 0
0.453571 0.328571 0
0.471429 0.328571 0
0.489286 0.328571 0
0.507143 0.328571 0
0.525000 0.328571 0
0.542857 0.328571 0
0.560714 0.328571 0
0.578571 0.328571 0
0.596429 0.328571 0
0.614286 0.328571 0
0.632143 0.328571 0
0.650000 0.328571 0
0.667857 0.328571 0
0.685714 0.328571 0
0.703571 0.328571 0
0.721429 0.328571 0
0.739286 0.328571 0
0.757143 0.328571 0
0.775000 0.328571 0
0.792857 0.328571 0
0.810714 0.328571 0
0.828571 0.328571 0
0.846429 0.328571 0
0.864286 0.328571 0
0.150000 0.346429 0
0.167857 0.346429 0
0.185714 0.346429 0
0.203571 0.346429 0
0.221429 0.346429 0
0.239286 0.346429 0
0.257143 0.346429 0
0.275000 0.346429 0
0.292857 0.346429 0
0.310714 0.346429 0
0.328571 0.346429 0
0.346429 0.346429 0
0.364286 0.346429 0
0.382143 0.346429 0
0.400000 0.346429 0
0.417857 0.346429 0
0.435714 0.346429 0
0.453571 0.346429 0
0.471429 0.346429 0
0.489286 0.346429 0
0.507143 0.346429 0
0.525000 0.346429 0
0.542857 0.346429 0
0.560714 0.346429 0
0.578571 0.346429 0
0.596429 0.346429 0
0.614286 0.346429 0
0.632143 0.346429 0
0.650000 0.346429 0
0.667857 0.346429 0
0.685714 0.346429 0
0.703571 0.346429 0
0.721429 0.346429 0
0.739286 0.346429 0
0.757143 0.346429 0
0.775000 0.346429 0
0.792857 0.346429 0
0.810714 0.346429 0
0.828571 0.346429 0
0.846429 0.346429 0
[...]
POINT_DATA 1681 

VECTORS velocity float
0.000000 0.000000 0
0.004966 0.000000 0
0.011067 0.000000 0
0.013726 0.000000 0
0.014271 0.000000 0
0.013681 0.000000 0
0.011697 0.000000 0
0.016543 0.000000 0
0.020171 0.000000 0
0.010715 0.000000 0
-0.005797 0.000000 0
-0.024479 0.000000 0
-0.043700 0.000000 0
-0.062409 0.000000 0
-0.079896 0.000000 0
-0.095740 0.000000 0
-0.109790 0.000000 0
-0.121908 0.000000 0
-0.132062 0.000000 0
-0.140251 0.000000 0
-0.146495 0.000000 0
-0.150817 0.000000 0
-0.153223 0.000000 0
-0.153741 0.000000 0
-0.152260 0.000000 0
-0.148634 0.000000 0
-0.142787 0.000000 0
-0.134624 0.000000 0
-0.124055 0.000000 0
-0.111008 0.000000 0
-0.095532 0.000000 0
-0.077672 0.000000 0
-0.057645 0.000000 0
-0.035893 0.000000 0
-0.013197 0.000000 0
0.009134 0.000000 0
0.024846 0.000000 0
0.028709 0.000000 0
0.021548 0.000000 0
0.010028 0.000000 0
0.000000 0.000000 0
0.000000 -0.004966 0
0.013916 -0.011067 0
0.026692 -0.008759 0
0.032075 -0.003204 0
0.033092 0.000045 0
0.032587 0.002573 0
0.023065 -0.002863 0
0.005209 -0.008473 0
-0.017684 0.005828 0
-0.047632 0.025968 0
-0.083425 0.035194 0
-0.121255 0.037903 0
-0.158719 0.037930 0
-0.194179 0.036196 0
-0.226593 0.033331 0
-0.255370 0.029893 0
-0.280255 0.026168 0
-0.301136 0.022272 0
-0.318023 0.018343 0
-0.330977 0.014433 0
-0.340078 0.010566 0
-0.345398 0.006728 0
-0.346973 0.002924 0
-0.344797 -0.000963 0
-0.338796 -0.005107 0
-0.328886 -0.009472 0
-0.314909 -0.014010 0
-0.296694 -0.018732 0
-0.274068 -0.023616 0
-0.246902 -0.028523 0
-0.215183 -0.033337 0
-0.179030 -0.037888 0
-0.138866 -0.041778 0
-0.095617 -0.044448 0
-0.051055 -0.045028 0
-0.008397 -0.038044 0
0.026617 -0.019575 0
0.044395 0.003298 0
0.034674 0.018681 0
0.016141 0.021548 0
0.000000 0.010028 0
0.000000 -0.013916 0
0.017079 -0.026692 0
0.027404 -0.018159 0
0.030117 -0.006400 0
0.018857 -0.000512 0
-0.000810 0.010027 0
-0.028530 0.027378 0
-0.072005 0.040748 0
-0.120291 0.052841 0
-0.160504 0.065741 0
-0.196926 0.073623 0
-0.231493 0.075294 0
-0.263490 0.072924 0
-0.292293 0.067875 0
-0.317561 0.061192 0
-0.339152 0.053662 0
-0.356994 0.045766 0
-0.371193 0.037768 0
-0.381861 0.029840 0
-0.389125 0.022055 0
-0.393094 0.014421 0
-0.393841 0.006895 0
-0.391403 -0.000601 0
-0.385721 -0.008177 0
-0.376837 -0.015911 0
-0.364736 -0.023887 0
-0.349277 -0.032192 0
-0.330302 -0.040841 0
-0.307651 -0.049791 0
-0.281198 -0.058885 0
-0.250826 -0.067873 0
-0.216649 -0.076317 0
-0.179018 -0.083413 0
-0.138759 -0.087811 0
-0.097490 -0.087220 0
-0.058084 -0.077671 0
-0.021106 -0.052792 0
0.008527 -0.008057 0
0.016381 0.028254 0
0.007386 0.034674 0
0.000000 0.016141 0
0.000000 -0.022045 0
0.010249 -0.038471 0
0.007937 -0.021797 0
-0.008506 0.005344 0
-0.035504 0.030972 0
-0.073747 0.049960 0
-0.113335 0.068333 0
-0.152851 0.083287 0
-0.192683 0.094327 0
-0.228587 0.102603 0
-0.259456 0.106183 0
-0.286568 0.104467 0
-0.310290 0.098730 0
-0.330805 0.090267 0
-0.348266 0.080190 0
-0.362814 0.069327 0
-0.374551 0.058209 0
-0.383613 0.047139 0
-0.390109 0.036275 0
-0.394126 0.025666 0
-0.395716 0.015282 0
-0.394900 0.005037 0
-0.391666 -0.005196 0
-0.385980 -0.015529 0
-0.377799 -0.026092 0
-0.366995 -0.037033 0
-0.353447 -0.048444 0
-0.337005 -0.060358 0
-0.317520 -0.072720 0
-0.294860 -0.085347 0
-0.268920 -0.097886 0
-0.239734 -0.109696 0
-0.207507 -0.119668 0
-0.172722 -0.125975 0
-0.136249 -0.125702 0
-0.099366 -0.114427 0
-0.063423 -0.086186 0
-0.029094 -0.034189 0
0.000936 0.019822 0
-0.000300 0.037929 0
0.000000 0.017414 0
0.000000 -0.024165 0
-0.008196 -0.034629 0
-0.030940 0.000596 0
-0.062435 0.037041 0
-0.094504 0.064729 0
-0.130542 0.087858 0
-0.167316 0.106482 0
-0.202245 0.120097 0
-0.235041 0.128577 0
-0.263988 0.132513 0
-0.288332 0.131605 0
-0.308805 0.126128 0
-0.326047 0.117160 0
-0.340560 0.105851 0
-0.352696 0.093200 0
-0.362683 0.079946 0
-0.370656 0.066565 0
-0.376711 0.053327 0
-0.380903 0.040353 0
-0.383263 0.027662 0
-0.383798 0.015196 0
-0.382493 0.002846 0
-0.379312 -0.009521 0
-0.374252 -0.022045 0
-0.367211 -0.034896 0
-0.358093 -0.048239 0
-0.346779 -0.062183 0
-0.333141 -0.076768 0
-0.317046 -0.091937 0
-0.298370 -0.107485 0
-0.277011 -0.122998 0
-0.252922 -0.137730 0
-0.226128 -0.150425 0
-0.196736 -0.159069 0
-0.164924 -0.160576 0
-0.130874 -0.150497 0
-0.094608 -0.123064 0
-0.056011 -0.072417 0
-0.015245 -0.000540 0
-0.003429 0.035610 0
0.000000 0.015841 0
0.000000 -0.013849 0
-0.029153 -0.007531 0
-0.064352 0.032441 0
-0.097071 0.068907 0
-0.131189 0.099079 0
-0.165314 0.122772 0
-0.198096 0.140035 0
-0.228060 0.151012 0
-0.254765 0.156070 0
-0.277574 0.155894 0
-0.296383 0.151000 0
-0.311788 0.142183 0
-0.324426 0.130485 0
-0.334824 0.116916 0
-0.343345 0.102313 0
-0.350213 0.087287 0
-0.355558 0.072237 0
-0.359461 0.057386 0
-0.361969 0.042828 0
-0.363109 0.028561 0
-0.362893 0.014511 0
-0.361313 0.000551 0
-0.358348 -0.013436 0
-0.353980 -0.027630 0
-0.348116 -0.042252 0
-0.340667 -0.057466 0
-0.331527 -0.073396 0
-0.320580 -0.090091 0
-0.307708 -0.107490 0
-0.292796 -0.125383 0
-0.275732 -0.143334 0
-0.256410 -0.160579 0
-0.234707 -0.175854 0
-0.210438 -0.187178 0
-0.183289 -0.191564 0
-0.152733 -0.184744 0
-0.118013 -0.161048 0
-0.078443 -0.113552 0
-0.034695 -0.032761 0
0.004215 0.022684 0
0.000000 0.013985 0
0.000000 0.004988 0
-0.040020 0.029723 0
-0.079038 0.068515 0
-0.115548 0.103878 0
-0.150119 0.132971 0
-0.182253 0.154765 0
-0.211390 0.169227 0
-0.236935 0.176766 0
-0.258747 0.178092 0
-0.276794 0.174131 0
-0.291359 0.165818 0
-0.303009 0.154172 0
-0.312306 0.140197 0
-0.319712 0.124770 0
-0.325550 0.108589 0
-0.330040 0.092159 0
-0.333325 0.075813 0
-0.335506 0.059737 0
-0.336658 0.044002 0
-0.336831 0.028586 0
-0.336055 0.013399 0
-0.334340 -0.001699 0
-0.331681 -0.016854 0
-0.328019 -0.032277 0
-0.323286 -0.048208 0
-0.317393 -0.064828 0
-0.310237 -0.082270 0
-0.301709 -0.100587 0
-0.291699 -0.119721 0
-0.280093 -0.139462 0
-0.266776 -0.159384 0
-0.251608 -0.178755 0
-0.234384 -0.196397 0
-0.214757 -0.210487 0
-0.192137 -0.218281 0
-0.165590 -0.215773 0
-0.133841 -0.197354 0
-0.095580 -0.155735 0
-0.050111 -0.083199 0
0.003902 0.000915 0
0.000000 0.020057 0
0.000000 0.026171 0
-0.042616 0.071507 0
-0.084437 0.107969 0
-0.122233 0.139989 0
-0.156191 0.165783 0
-0.186207 0.184044 0
-0.212189 0.194717 0
-0.234097 0.198369 0
-0.252127 0.195929 0
-0.266595 0.188505 0
-0.277968 0.177215 0
-0.286788 0.163130 0
-0.293546 0.147188 0
-0.298642 0.130160 0
-0.302378 0.112641 0
-0.304980 0.095062 0
-0.306620 0.077703 0
-0.307433 0.060719 0
-0.307522 0.044152 0
-0.306962 0.027957 0
-0.305801 0.012020 0
-0.304060 -0.003822 0
-0.301736 -0.019757 0
-0.298763 -0.036025 0
-0.295075 -0.052878 0
-0.290578 -0.070515 0
-0.285168 -0.089080 0
-0.278733 -0.108629 0
-0.271158 -0.129106 0
-0.262326 -0.150305 0
-0.252116 -0.171819 0
-0.240378 -0.192971 0
-0.226884 -0.212706 0
-0.211249 -0.229425 0
-0.192805 -0.240731 0
-0.170471 -0.243040 0
-0.142711 -0.231058 0
-0.107797 -0.197283 0
-0.064879 -0.132242 0
-0.017137 -0.027427 0
0.000000 0.017887 0
0.000000 0.047604 0
-0.042038 0.114161 0
-0.083911 0.148132 0
-0.121088 0.175632 0
-0.153547 0.196946 0
-0.181301 0.210763 0
-0.204514 0.217117 0
-0.223461 0.216705 0
-0.238564 0.210590 0
-0.250316 0.199971 0
-0.259252 0.186011 0
-0.265882 0.169750 0
-0.270650 0.152051 0
-0.273921 0.133601 0
-0.275992 0.114927 0
-0.277104 0.096402 0
-0.277456 0.078266 0
-0.277210 0.060639 0
-0.276493 0.043530 0
-0.275401 0.026865 0
-0.273996 0.010498 0
-0.272308 -0.005764 0
-0.270331 -0.022151 0
-0.268006 -0.038939 0
-0.265258 -0.056394 0
-0.261990 -0.074734 0
-0.258088 -0.094114 0
-0.253429 -0.114597 0
-0.247884 -0.136128 0
-0.241325 -0.158503 0
-0.233619 -0.181332 0
-0.224614 -0.203987 0
-0.214094 -0.225525 0
-0.201710 -0.244566 0
-0.186863 -0.259059 0
-0.168560 -0.265867 0
-0.145317 -0.260029 0
-0.115361 -0.233566 0
-0.077676 -0.173858 0
-0.035124 -0.063964 0
0.000000 0.002919 0
0.000000 0.068209 0
-0.039708 0.155417 0
-0.079748 0.187020 0
-0.115020 0.209625 0
-0.145323 0.225997 0
-0.170691 0.235011 0
-0.191399 0.236876 0
-0.207875 0.232419 0
-0.220649 0.222784 0
-0.230280 0.209193 0
-0.237307 0.192781 0
-0.242212 0.174528 0
-0.245405 0.155227 0
-0.247236 0.135502 0
-0.248004 0.115824 0
-0.247963 0.096526 0
-0.247329 0.077809 0
-0.246285 0.059756 0
-0.244976 0.042343 0
-0.243514 0.025461 0
-0.241974 0.008927 0
-0.240389 -0.007487 0
-0.238759 -0.024059 0
-0.237021 -0.041098 0
-0.235101 -0.058894 0
-0.232892 -0.077685 0
-0.230271 -0.097641 0
-0.227100 -0.118833 0
-0.223231 -0.141210 0
-0.218519 -0.164570 0
-0.212813 -0.188531 0
-0.205954 -0.212497 0
-0.197744 -0.235609 0
-0.187889 -0.256656 0
-0.175906 -0.273882 0
-0.160975 -0.284586 0
-0.141764 -0.284256 0
-0.116390 -0.264924 0
-0.082927 -0.212479 0
-0.041384 -0.105103 0
0.000000 -0.017237 0
0.000000 0.087312 0
-0.036301 0.193908 0
-0.073434 0.223443 0
-0.106018 0.241207 0
-0.133750 0.252618 0
-0.156652 0.256839 0
-0.175035 0.254300 0
-0.189372 0.245954 0
-0.200220 0.232995 0
-0.208136 0.216629 0
-0.213636 0.197943 0
-0.217167 0.177847 0
-0.219119 0.157075 0
-0.219831 0.136200 0
-0.219602 0.115653 0
-0.218694 0.095727 0
-0.217332 0.076589 0
-0.215712 0.058286 0
-0.213991 0.040760 0
-0.212293 0.023863 0
-0.210699 0.007373 0
-0.209251 -0.008979 0
-0.207945 -0.025519 0
-0.206722 -0.042597 0
-0.205504 -0.060523 0
-0.204182 -0.079564 0
-0.202622 -0.099907 0
-0.200670 -0.121637 0
-0.198166 -0.144709 0
-0.194942 -0.168922 0
-0.190831 -0.193896 0
-0.185662 -0.219056 0
-0.179243 -0.243591 0
-0.171326 -0.266404 0
-0.161532 -0.285973 0
-0.149217 -0.300009 0
-0.133242 -0.304614 0
-0.111700 -0.292404 0
-0.081962 -0.248863 0
-0.042295 -0.146891 0
0.000000 -0.038465 0
0.000000 0.104510 0
-0.032280 0.228851 0
-0.065934 0.256737 0
-0.095410 0.269941 0
-0.120347 0.276631 0
-0.140759 0.276296 0
-0.156947 0.269596 0
-0.169374 0.257605 0
-0.178572 0.241549 0
-0.185062 0.222608 0
-0.189316 0.201812 0
-0.191753 0.180011 0
-0.192740 0.157891 0
-0.192605 0.135985 0
-0.191640 0.114687 0
-0.190109 0.094256 0
-0.188241 0.074827 0
-0.186237 0.056414 0
-0.184260 0.038924 0
-0.182439 0.022169 0
-0.180861 0.005885 0
-0.179568 -0.010242 0
-0.178553 -0.026588 0
-0.177762 -0.043539 0
-0.177117 -0.061434 0
-0.176505 -0.080568 0
-0.175787 -0.101152 0
-0.174802 -0.123288 0
-0.173375 -0.146939 0
-0.171326 -0.171905 0
-0.168475 -0.197810 0
-0.164639 -0.224084 0
-0.159628 -0.249945 0
-0.153216 -0.274367 0
-0.145099 -0.295991 0
-0.134788 -0.312875 0
-0.121372 -0.321773 0
-0.103128 -0.316204 0
-0.077225 -0.281884 0
-0.040956 -0.187065 0
0.000000 -0.059533 0
0.000000 0.119592 0
-0.027959 0.259842 0
-0.057870 0.286573 0
-0.084054 0.295620 0
-0.106116 0.297967 0
-0.124062 0.293439 0
-0.138166 0.282916 0
-0.148852 0.267579 0
-0.156599 0.248682 0
-0.161874 0.227373 0
-0.165106 0.204635 0
-0.166676 0.181271 0
-0.166929 0.157926 0
-0.166175 0.135100 0
-0.164698 0.113157 0
-0.162756 0.092328 0
-0.160576 0.072717 0
-0.158357 0.054305 0
-0.156262 0.036963 0
-0.154420 0.020464 0
-0.152915 0.004501 0
-0.151788 -0.011287 0
-0.151028 -0.027324 0
-0.150585 -0.044033 0
-0.150381 -0.061781 0
-0.150305 -0.080894 0
-0.150218 -0.101610 0
-0.149956 -0.124049 0
-0.149342 -0.148184 0
-0.148187 -0.173822 0
-0.146308 -0.200583 0
-0.143517 -0.227903 0
-0.139624 -0.255014 0
-0.134420 -0.280932 0
-0.127646 -0.304401 0
-0.118928 -0.323736 0
-0.107586 -0.336274 0
-0.092213 -0.336551 0
-0.070126 -0.311035 0
-0.038016 -0.224116 0
0.000000 -0.079421 0
0.000000 0.132469 0
-0.023537 0.286721 0
-0.049630 0.312832 0
-0.072489 0.318187 0
-0.091688 0.316639 0
-0.107232 0.308346 0
-0.119358 0.294386 0
-0.128438 0.276037 0
-0.134888 0.254571 0
-0.139119 0.231116 0
-0.141509 0.206614 0
-0.142401 0.181834 0
-0.142113 0.157390 0
-0.140937 0.133755 0
-0.139141 0.111268 0
-0.136971 0.090134 0
-0.134647 0.070428 0
-0.132361 0.052101 0
-0.130269 0.034988 0
-0.128493 0.018822 0
-0.127110 0.003252 0
-0.126156 -0.012129 0
-0.125614 -0.027790 0
-0.125438 -0.044185 0
-0.125551 -0.061714 0
-0.125847 -0.080731 0
-0.126192 -0.101501 0
-0.126428 -0.124164 0
-0.126380 -0.148708 0
-0.125866 -0.174939 0
-0.124706 -0.202481 0
-0.122719 -0.230767 0
-0.119723 -0.259042 0
-0.115522 -0.286346 0
-0.109890 -0.311483 0
-0.102536 -0.332935 0
-0.092975 -0.348488 0
-0.080159 -0.353664 0
-0.061765 -0.336081 0
-0.034183 -0.257191 0
0.000000 -0.097549 0
0.000000 0.143129 0
-0.019127 0.309473 0
-0.041438 0.335525 0
-0.061029 0.337678 0
-0.077438 0.332710 0
-0.090670 0.321110 0
-0.100925 0.304122 0
-0.108517 0.283109 0
-0.113802 0.259363 0
-0.117129 0.233994 0
-0.118827 0.207917 0
-0.119203 0.181876 0
-0.118541 0.156462 0
-0.117110 0.132128 0
-0.115160 0.109191 0
-0.112921 0.087834 0
-0.110598 0.068106 0
-0.108370 0.049927 0
-0.106382 0.033095 0
-0.104743 0.017305 0
-0.103521 0.002164 0
-0.102740 -0.012783 0
-0.102381 -0.028042 0
-0.102396 -0.044096 0
-0.102713 -0.061372 0
-0.103231 -0.080253 0
-0.103828 -0.101029 0
-0.104357 -0.123861 0
-0.104656 -0.148746 0
-0.104558 -0.175496 0
-0.103897 -0.203731 0
-0.102511 -0.232886 0
-0.100234 -0.262212 0
-0.096891 -0.290766 0
-0.092285 -0.317387 0
-0.086186 -0.340651 0
-0.078258 -0.358651 0
-0.067780 -0.367761 0
-0.052887 -0.357011 0
-0.029917 -0.285881 0
0.000000 -0.113604 0
0.000000 0.151596 0
-0.014783 0.328160 0
-0.033405 0.354734 0
-0.049835 0.354186 0
-0.063560 0.346280 0
-0.074585 0.331833 0
-0.083076 0.312233 0
-0.089291 0.288914 0
-0.093525 0.263183 0
-0.096071 0.236141 0
-0.097210 0.208688 0
-0.097206 0.181548 0
-0.096314 0.155297 0
-0.094774 0.130374 0
-0.092812 0.107078 0
-0.090639 0.085571 0
-0.088440 0.065877 0
-0.086375 0.047885 0
-0.084571 0.031361 0
-0.083121 0.015960 0
-0.082081 0.001249 0
-0.081466 -0.013268 0
-0.081251 -0.028133 0
-0.081388 -0.043854 0
-0.081806 -0.060879 0
-0.082415 -0.079615 0
-0.083104 -0.100375 0
-0.083746 -0.123337 0
-0.084201 -0.148507 0
-0.084324 -0.175698 0
-0.083977 -0.204528 0
-0.083023 -0.234430 0
-0.081324 -0.264662 0
-0.078733 -0.294295 0
-0.075086 -0.322187 0
-0.070201 -0.346963 0
-0.063848 -0.366895 0
-0.055570 -0.379035 0
-0.043970 -0.373944 0
-0.025520 -0.310078 0
0.000000 -0.127465 0
0.000000 0.157911 0
-0.010522 0.342878 0
-0.025568 0.370577 0
-0.038962 0.367832 0
-0.050123 0.357461 0
-0.059053 0.340626 0
-0.065885 0.318828 0
-0.070826 0.293559 0
-0.074114 0.266143 0
-0.075988 0.237678 0
-0.076681 0.209052 0
-0.076418 0.180980 0
-0.075420 0.154030 0
-0.073895 0.128626 0
-0.072043 0.105056 0
-0.070050 0.083462 0
-0.068077 0.063843 0
-0.066258 0.046058 0
-0.064696 0.029841 0
-0.063466 0.014815 0
-0.062612 0.000508 0
-0.062147 -0.013613 0
-0.062035 -0.028119 0
-0.062226 -0.043541 0
-0.062653 -0.060346 0
-0.063235 -0.078954 0
-0.063880 -0.099697 0
-0.064483 -0.122765 0
-0.064932 -0.148168 0
-0.065118 -0.175719 0
-0.064934 -0.205031 0
-0.064278 -0.235539 0
-0.063047 -0.266502 0
-0.061130 -0.297004 0
-0.058400 -0.325919 0
-0.054721 -0.351889 0
-0.049939 -0.373282 0
-0.043782 -0.387640 0
-0.035279 -0.387061 0
-0.021170 -0.329851 0
0.000000 -0.139124 0
0.000000 0.162118 0
-0.006337 0.353728 0
-0.017914 0.383175 0
-0.028397 0.378741 0
-0.037110 0.366370 0
-0.044053 0.347595 0
-0.049325 0.324007 0
-0.053088 0.297143 0
-0.055524 0.268344 0
-0.056822 0.238708 0
-0.057170 0.209119 0
-0.056753 0.180287 0
-0.055753 0.152773 0
-0.054348 0.126998 0
-0.052708 0.103234 0
-0.050987 0.081605 0
-0.049319 0.062085 0
-0.047808 0.044504 0
-0.046529 0.028568 0
-0.045534 0.013876 0
-0.044858 -0.000069 0
-0.044519 -0.013845 0
-0.044461 -0.028055 0
-0.044638 -0.043236 0
-0.044987 -0.059870 0
-0.045440 -0.078388 0
-0.045924 -0.099128 0
-0.046361 -0.122285 0
-0.046676 -0.147872 0
-0.046799 -0.175696 0
-0.046663 -0.205367 0
-0.046206 -0.236316 0
-0.045365 -0.267811 0
-0.044068 -0.298942 0
-0.042233 -0.328596 0
-0.039766 -0.355424 0
-0.036571 -0.377833 0
-0.032501 -0.393695 0
-0.026927 -0.396557 0
-0.016951 -0.345357 0
0.000000 -0.148635 0
0.000000 0.164249 0
-0.002245 0.360792 0
-0.010392 0.392636 0
-0.018071 0.387028 0
-0.024443 0.373117 0
-0.029497 0.352841 0
-0.033301 0.327863 0
-0.035970 0.299757 0
-0.037638 0.269877 0
-0.038444 0.239324 0
-0.038533 0.208983 0
-0.038047 0.179563 0
-0.037133 0.151625 0
-0.035931 0.125581 0
-0.034580 0.101696 0
-0.033201 0.080074 0
-0.031892 0.060663 0
-0.030730 0.043267 0
-0.029762 0.027567 0
-0.029014 0.013144 0
-0.028507 -0.000506 0
-0.028250 -0.014010 0
-0.028191 -0.028000 0
-0.028283 -0.043016 0
-0.028472 -0.059543 0
-0.028706 -0.078018 0
-0.028932 -0.098776 0
-0.029106 -0.122012 0
-0.029192 -0.147730 0
-0.029162 -0.175733 0
-0.028994 -0.205624 0
-0.028671 -0.236836 0
-0.028171 -0.268640 0
-0.027464 -0.300136 0
-0.026514 -0.330222 0
-0.025272 -0.357551 0
-0.023691 -0.380546 0
-0.021701 -0.397283 0
-0.018929 -0.402611 0
-0.012889 -0.356778 0
0.000000 -0.156076 0
0.000000 0.164363 0
0.001706 0.364119 0
-0.002907 0.399000 0
-0.007874 0.392793 0
-0.012008 0.377796 0
-0.015257 0.356453 0
-0.017668 0.330480 0
-0.019316 0.301479 0
-0.020285 0.270818 0
-0.020670 0.239603 0
-0.020568 0.208722 0
-0.020082 0.178887 0
-0.019319 0.150657 0
-0.018384 0.124445 0
-0.017376 0.100503 0
-0.016376 0.078917 0
-0.015455 0.059615 0
-0.014664 0.042373 0
-0.014019 0.026852 0
-0.013523 0.012621 0
-0.013172 -0.000833 0
-0.012952 -0.014161 0
-0.012828 -0.028022 0
-0.012763 -0.042955 0
-0.012718 -0.059447 0
-0.012656 -0.077928 0
-0.012552 -0.098727 0
-0.012395 -0.122026 0
-0.012190 -0.147817 0
-0.011955 -0.175894 0
-0.011714 -0.205857 0
-0.011492 -0.237140 0
-0.011311 -0.269018 0
-0.011186 -0.300599 0
-0.011126 -0.330788 0
-0.011128 -0.358247 0
-0.011188 -0.381405 0
-0.011289 -0.398457 0
-0.011233 -0.405369 0
-0.008966 -0.364285 0
0.000000 -0.161524 0
0.000000 0.162543 0
0.005558 0.363699 0
0.004590 0.402216 0
0.002306 0.396129 0
0.000349 0.380500 0
-0.001161 0.358502 0
-0.002243 0.331922 0
-0.002928 0.302374 0
-0.003255 0.271231 0
-0.003269 0.239607 0
-0.003027 0.208395 0
-0.002588 0.178314 0
-0.002019 0.149926 0
-0.001388 0.123639 0
-0.000753 0.099688 0
-0.000156 0.078153 0
0.000358 0.058952 0
0.000775 0.041831 0
0.001106 0.026426 0
0.001373 0.012296 0
0.001603 -0.001078 0
0.001837 -0.014354 0
0.002087 -0.028188 0
0.002371 -0.043125 0
0.002711 -0.059651 0
0.003122 -0.078184 0
0.003601 -0.099038 0
0.004122 -0.122374 0
0.004640 -0.148170 0
0.005094 -0.176208 0
0.005416 -0.206087 0
0.005537 -0.237239 0
0.005394 -0.268946 0
0.004925 -0.300322 0
0.004078 -0.330280 0
0.002808 -0.357488 0
0.001080 -0.380385 0
-0.001135 -0.397239 0
-0.003746 -0.404934 0
-0.005139 -0.368011 0
0.000000 -0.165042 0
0.000000 0.158805 0
0.009422 0.359529 0
0.012159 0.402253 0
0.012582 0.397033 0
0.012776 0.381263 0
0.012960 0.359045 0
0.013163 0.332247 0
0.013400 0.302492 0
0.013679 0.271160 0
0.014001 0.239375 0
0.014355 0.208040 0
0.014721 0.177879 0
0.015075 0.149457 0
0.015390 0.123179 0
0.015649 0.099271 0
0.015836 0.077807 0
0.015955 0.058683 0
0.016029 0.041625 0
0.016091 0.026254 0
0.016184 0.012124 0
0.016354 -0.001297 0
0.016645 -0.014645 0
0.017058 -0.028556 0
0.017596 -0.043579 0
0.018261 -0.060199 0
0.019042 -0.078818 0
0.019906 -0.099728 0
0.020792 -0.123065 0
0.021615 -0.148789 0
0.022273 -0.176669 0
0.022655 -0.206300 0
0.022651 -0.237118 0
0.022154 -0.268405 0
0.021059 -0.299283 0
0.019268 -0.328672 0
0.016691 -0.355249 0
0.013252 -0.377462 0
0.008894 -0.393631 0
0.003649 -0.401365 0
-0.001330 -0.368031 0
0.000000 -0.166663 0
0.000000 0.153121 0
0.013371 0.351540 0
0.019919 0.399056 0
0.023093 0.395512 0
0.025404 0.380122 0
0.027250 0.358114 0
0.028712 0.331483 0
0.029849 0.301858 0
0.030718 0.270630 0
0.031365 0.238931 0
0.031825 0.207675 0
0.032119 0.177594 0
0.032266 0.149257 0
0.032283 0.123065 0
0.032189 0.099242 0
0.032009 0.077846 0
0.031790 0.058759 0
0.031582 0.041696 0
0.031440 0.026271 0
0.031420 0.012033 0
0.031580 -0.001539 0
0.031957 -0.015058 0
0.032550 -0.029139 0
0.033353 -0.044328 0
0.034348 -0.061097 0
0.035496 -0.079829 0
0.036733 -0.100788 0
0.037961 -0.124083 0
0.039058 -0.149651 0
0.039881 -0.177248 0
0.040282 -0.206466 0
0.040106 -0.236738 0
0.039205 -0.267353 0
0.037431 -0.297436 0
0.034640 -0.325912 0
0.030695 -0.351472 0