# vtk DataFile Version 2.0
generated by CFD-lab course output (written by Tobias Neckel) 
ASCII

DATASET STRUCTURED_GRID
DIMENSIONS  41 41 1 
POINTS 1681 float

0.150000 0.150000 0
0.167857 0.150000 0
0.185714 0.150000 0
0.203571 0.150000 0
0.221429 0.150000 0
0.239286 0.150000 0
0.257143 0.150000 0
0.275000 0.150000 0
0.292857 0.150000 0
0.310714 0.150000 0
0.328571 0.150000 0
0.346429 0.150000 0
0.364286 0.150000 0
0.382143 0.150000 0
0.400000 0.150000 0
0.417857 0.150000 0
0.435714 0.150000 0
0.453571 0.150000 0
0.471429 0.150000 0
0.489286 0.150000 0
0.507143 0.150000 0
0.525000 0.150000 0
0.542857 0.150000 0
0.560714 0.150000 0
0.578571 0.150000 0
0.596429 0.150000 0
0.614286 0.150000 0
0.632143 0.150000 0
0.650000 0.150000 0
0.667857 0.150000 0
0.685714 0.150000 0
0.703571 0.150000 0
0.721429 0.150000 0
0.739286 0.150000 0
0.757143 0.150000 0
0.775000 0.150000 0
0.792857 0.150000 0
0.810714 0.150000 0
0.828571 0.150000 0
0.846429 0.150000 0
0.864286 0.150000 0
0.150000 0.167857 0
0.167857 0.167857 0
0.185714 0.167857 0
0.203571 0.167857 0
0.221429 0.167857 0
0.239286 0.167857 0
0.257143 0.167857 0
0.275000 0.167857 0
0.292857 0.167857 0
0.310714 0.167857 0
0.328571 0.167857 0
0.346429 0.167857 0
0.364286 0.167857 0
0.382143 0.167857 0
0.400000 0.167857 0
0.417857 0.167857 0
0.435714 0.167857 0
0.453571 0.167857 0
0.471429 0.167857 0
0.489286 0.167857 0
0.507143 0.167857 0
0.525000 0.167857 0
0.542857 0.167857 0
0.560714 0.167857 0
0.578571 0.167857 0
0.596429 0.167857 0
0.614286 0.167857 0
0.632143 0.167857 0
0.650000 0.167857 0
0.667857 0.167857 0
0.685714 0.167857 0
0.703571 0.167857 0
0.721429 0.167857 0
0.739286 0.167857 0
0.757143 0.167857 0
0.775000 0.167857 0
0.792857 0.167857 0
0.810714 0.167857 0
0.828571 0.167857 0
0.846429 0.167857 0
0.864286 0.167857 0
0.150000 0.185714 0
0.167857 0.185714 0
0.185714 0.185714 0
0.203571 0.185714 0
0.221429 0.185714 0
0.239286 0.185714 0
0.257143 0.185714 0
0.275000 0.185714 0
0.292857 0.185714 0
0.310714 0.185714 0
0.328571 0.185714 0
0.346429 0.185714 0
0.364286 0.185714 0
0.382143 0.185714 0
0.400000 0.185714 0
0.417857 0.185714 0
0.435714 0.185714 0
0.453571 0.185714 0
0.471429 0.185714 0
0.489286 0.185714 0
0.507143 0.185714 0
0.525000 0.185714 0
0.542857 0.185714 0
0.560714 0.185714 0
0.578571 0.185714 0
0.596429 0.185714 0
0.614286 0.185714 0
0.632143 0.185714 0
0.650000 0.185714 0
0.667857 0.185714 0
0.685714 0.185714 0
0.703571 0.185714 0
0.721429 0.185714 0
0.739286 0.185714 0
0.757143 0.185714 0
0.775000 0.185714 0
0.792857 0.185714 0
0.810714 0.185714 0
0.828571 0.185714 0
0.846429 0.185714 0
0.864286 0.185714 0
0.150000 0.203571 0
0.167857 0.203571 0
0.185714 0.203571 0
0.203571 0.203571 0
0.221429 0.203571 0
0.239286 0.203571 0
0.257143 0.203571 0
0.275000 0.203571 0
0.292857 0.203571 0
0.310714 0.203571 0
0.328571 0.203571 0
0.346429 0.203571 0
0.364286 0.203571 0
0.382143 0.203571 0
0.400000 0.203571 0
0.417857 0.203571 0
0.435714 0.203571 0
0.453571 0.203571 0
0.471429 0.203571 0
0.489286 0.203571 0
0.507143 0.203571 0
0.525000 0.203571 0
0.542857 0.203571 0
0.560714 0.203571 0
0.578571 0.203571 0
0.596429 0.203571 0
0.614286 0.203571 0
0.632143 0.203571 0
0.650000 0.203571 0
0.667857 0.203571 0
0.685714 0.203571 0
0.703571 0.203571 0
0.721429 0.203571 0
0.739286 0.203571 0
0.757143 0.203571 0
0.775000 0.203571 0
0.792857 0.203571 0
0.810714 0.203571 0
0.828571 0.203571 0
0.846429 0.203571 0
0.864286 0.203571 0
0.150000 0.221429 0
0.167857 0.221429 0
0.185714 0.221429 0
0.203571 0.221429 0
0.221429 0.221429 0
0.239286 0.221429 0
0.257143 0.221429 0
0.275000 0.221429 0
0.292857 0.221429 0
0.310714 0.221429 0
0.328571 0.221429 0
0.346429 0.221429 0
0.364286 0.221429 0
0.382143 0.221429 0
0.400000 0.221429 0
0.417857 0.221429 0
0.435714 0.221429 0
0.453571 0.221429 0
0.471429 0.221429 0
0.489286 0.221429 0
0.507143 0.221429 0
0.525000 0.221429 0
0.542857 0.221429 0
0.560714 0.221429 0
0.578571 0.221429 0
0.596429 0.221429 0
0.614286 0.221429 0
0.632143 0.221429 0
0.650000 0.221429 0
0.667857 0.221429 0
0.685714 0.221429 0
0.703571 0.221429 0
0.721429 0.221429 0
0.739286 0.221429 0
0.757143 0.221429 0
0.775000 0.221429 0
0.792857 0.221429 0
0.810714 0.221429 0
0.828571 0.221429 0
0.846429 0.221429 0
0.864286 0.221429 0
0.150000 0.239286 0
0.167857 0.239286 0
0.185714 0.239286 0
0.203571 0.239286 0
0.221429 0.239286 0
0.239286 0.239286 0
0.257143 0.239286 0
0.275000 0.239286 0
0.292857 0.239286 0
0.310714 0.239286 0
0.328571 0.239286 0
0.346429 0.239286 0
0.364286 0.239286 0
0.382143 0.239286 0
0.400000 0.239286 0
0.417857 0.239286 0
0.435714 0.239286 0
0.453571 0.239286 0
0.471429 0.239286 0
0.489286 0.239286 0
0.507143 0.239286 0
0.525000 0.239286 0
0.542857 0.239286 0
0.560714 0.239286 0
0.578571 0.239286 0
0.596429 0.239286 0
0.614286 0.239286 0
0.632143 0.239286 0
0.650000 0.239286 0
0.667857 0.239286 0
0.685714 0.239286 0
0.703571 0.239286 0
0.721429 0.239286 0
0.739286 0.239286 0
0.757143 0.239286 0
0.775000 0.239286 0
0.792857 0.239286 0
0.810714 0.239286 0
0.828571 0.239286 0
0.846429 0.239286 0
0.864286 0.239286 0
0.150000 0.257143 0
0.167857 0.257143 0
0.185714 0.257143 0
0.203571 0.257143 0
0.221429 0.257143 0
0.239286 0.257143 0
0.257143 0.257143 0
0.275000 0.257143 0
0.292857 0.257143 0
0.310714 0.257143 0
0.328571 0.257143 0
0.346429 0.257143 0
0.364286 0.257143 0
0.382143 0.257143 0
0.400000 0.257143 0
0.417857 0.257143 0
0.435714 0.257143 0
0.453571 0.257143 0
0.471429 0.257143 0
0.489286 0.257143 0
0.507143 0.257143 0
0.525000 0.257143 0
0.542857 0.257143 0
0.560714 0.257143 0
0.578571 0.257143 0
0.596429 0.257143 0
0.614286 0.257143 0
0.632143 0.257143 0
0.650000 0.257143 0
0.667857 0.257143 0
0.685714 0.257143 0
0.703571 0.257143 0
0.721429 0.257143 0
0.739286 0.257143 0
0.757143 0.257143 0
0.775000 0.257143 0
0.792857 0.257143 0
0.810714 0.257143 0
0.828571 0.257143 0
0.846429 0.257143 0
0.864286 0.257143 0
0.150000 0.275000 0
0.167857 0.275000 0
0.185714 0.275000 0
0.203571 0.275000 0
0.221429 0.275000 0
0.239286 0.275000 0
0.257143 0.275000 0
0.275000 0.275000 0
0.292857 0.275000 0
0.310714 0.275000 0
0.328571 0.275000 0
0.346429 0.275000 0
0.364286 0.275000 0
0.382143 0.275000 0
0.400000 0.275000 0
0.417857 0.275000 0
0.435714 0.275000 0
0.453571 0.275000 0
0.471429 0.275000 0
0.489286 0.275000 0
0.507143 0.275000 0
0.525000 0.275000 0
0.542857 0.275000 0
0.560714 0.275000 0
0.578571 0.275000 0
0.596429 0.275000 0
0.614286 0.275000 0
0.632143 0.275000 0
0.650000 0.275000 0
0.667857 0.275000 0
0.685714 0.275000 0
0.703571 0.275000 0
0.721429 0.275000 0
0.739286 0.275000 0
0.757143 0.275000 0
0.775000 0.275000 0
0.792857 0.275000 0
0.810714 0.275000 0
0.828571 0.275000 0
0.846429 0.275000 0
0.864286 0.275000 0
0.150000 0.292857 0
0.167857 0.292857 0
0.185714 0.292857 0
0.203571 0.292857 0
0.221429 0.292857 0
0.239286 0.292857 0
0.257143 0.292857 0
0.275000 0.292857 0
0.292857 0.292857 0
0.310714 0.292857 0
0.328571 0.292857 0
0.346429 0.292857 0
0.364286 0.292857 0
0.382143 0.292857 0
0.400000 0.292857 0
0.417857 0.292857 0
0.435714 0.292857 0
0.453571 0.292857 0
0.471429 0.292857 0
0.489286 0.292857 0
0.507143 0.292857 0
0.525000 0.292857 0
0.542857 0.292857 0
0.560714 0.292857 0
0.578571 0.292857 0
0.596429 0.292857 0
0.614286 0.292857 0
0.632143 0.292857 0
0.650000 0.292857 0
0.667857 0.292857 0
0.685714 0.292857 0
0.703571 0.292857 0
0.721429 0.292857 0
0.739286 0.292857 0
0.757143 0.292857 0
0.775000 0.292857 0
0.792857 0.292857 0
0.810714 0.292857 0
0.828571 0.292857 0
0.846429 0.292857 0
0.864286 0.292857 0
0.150000 0.310714 0
0.167857 0.310714 0
0.185714 0.310714 0
0.203571 0.310714 0
0.221429 0.310714 0
0.239286 0.310714 0
0.257143 0.310714 0
0.275000 0.310714 0
0.292857 0.310714 0
0.310714 0.310714 0
0.328571 0.310714 0
0.346429 0.310714 0
0.364286 0.310714 0
0.382143 0.310714 0
0.400000 0.310714 0
0.417857 0.310714 0
0.435714 0.310714 0
0.453571 0.310714 0
0.471429 0.310714 0
0.489286 0.310714 0
0.507143 0.310714 0
0.525000 0.310714 0
0.542857 0.310714 0
0.560714 0.310714 0
0.578571 0.310714 0
0.596429 0.310714 0
0.614286 0.310714 0
0.632143 0.310714 0
0.650000 0.310714 0
0.667857 0.310714 0
0.685714 0.310714 0
0.703571 0.310714 0
0.721429 0.310714 0
0.739286 0.310714 0
0.757143 0.310714 0
0.775000 0.310714 0
0.792857 0.310714 0
0.810714 0.310714 0
0.828571 0.310714 0
0.846429 0.310714 0
0.864286 0.310714 0
0.150000 0.328571 0
0.167857 0.328571 0
0.185714 0.328571 0
0.203571 0.328571 0
0.221429 0.328571 0
0.239286 0.328571 0
0.257143 0.328571 0
0.275000 0.328571 0
0.292857 0.328571 0
0.310714 0.328571 0
0.328571 0.328571 0
0.346429 0.328571 0
0.364286 0.328571 0
0.382143 0.328571 0
0.400000 0.328571 0
0.417857 0.328571 0
0.435714 0.328571 0
0.453571 0.328571 0
0.471429 0.328571 0
0.489286 0.328571 0
0.507143 0.328571 0
0.525000 0.328571 0
0.542857 0.328571 0
0.560714 0.328571 0
0.578571 0.328571 0
0.596429 0.328571 0
0.614286 0.328571 0
0.632143 0.328571 0
0.650000 0.328571 0
0.667857 0.328571 0
0.685714 0.328571 0
0.703571 0.328571 0
0.721429 0.328571 0
0.739286 0.328571 0
0.757143 0.328571 0
0.775000 0.328571 0
0.792857 0.328571 0
0.810714 0.328571 0
0.828571 0.328571 0
0.846429 0.328571 0
0.864286 0.328571 0
0.150000 0.346429 0
0.167857 0.346429 0
0.185714 0.346429 0
0.203571 0.346429 0
0.221429 0.346429 0
0.239286 0.346429 0
0.257143 0.346429 0
0.275000 0.346429 0
0.292857 0.346429 0
0.310714 0.346429 0
0.328571 0.346429 0
0.346429 0.346429 0
0.364286 0.346429 0
0.382143 0.346429 0
0.400000 0.346429 0
0.417857 0.346429 0
0.435714 0.346429 0
0.453571 0.346429 0
0.471429 0.346429 0
0.489286 0.346429 0
0.507143 0.346429 0
0.525000 0.346429 0
0.542857 0.346429 0
0.560714 0.346429 0
0.578571 0.346429 0
0.596429 0.346429 0
0.614286 0.346429 0
0.632143 0.346429 0
0.650000 0.346429 0
0.667857 0.346429 0
0.685714 0.346429 0
0.703571 0.346429 0
0.721429 0.346429 0
0.739286 0.346429 0
0.757143 0.346429 0
0.775000 0.346429 0
0.792857 0.346429 0
0.810714 0.346429 0
0.828571 0.346429 0
0.846429 0.346429 0
[...]
POINT_DATA 1681 

VECTORS velocity float
0.000000 0.000000 0
-0.001339 0.000000 0
-0.002939 0.000000 0
-0.005451 0.000000 0
-0.008781 0.000000 0
-0.012517 0.000000 0
-0.016323 0.000000 0
-0.020000 0.000000 0
-0.023442 0.000000 0
-0.026857 0.000000 0
-0.030160 0.000000 0
-0.033336 0.000000 0
-0.036377 0.000000 0
-0.039315 0.000000 0
-0.042232 0.000000 0
-0.045239 0.000000 0
-0.048610 0.000000 0
-0.052387 0.000000 0
-0.056603 0.000000 0
-0.061198 0.000000 0
-0.066040 0.000000 0
-0.070946 0.000000 0
-0.075698 0.000000 0
-0.080175 0.000000 0
-0.084116 0.000000 0
-0.087318 0.000000 0
-0.089579 0.000000 0
-0.090718 0.000000 0
-0.090553 0.000000 0
-0.088875 0.000000 0
-0.085600 0.000000 0
-0.080555 0.000000 0
-0.073596 0.000000 0
-0.064597 0.000000 0
-0.053529 0.000000 0
-0.040582 0.000000 0
-0.026336 0.000000 0
-0.012349 0.000000 0
-0.001178 0.000000 0
0.002891 0.000000 0
0.000000 0.000000 0
0.000000 0.001339 0
-0.008236 0.002939 0
-0.017609 0.004113 0
-0.027415 0.005842 0
-0.037707 0.007066 0
-0.048077 0.007542 0
-0.058155 0.007483 0
-0.067732 0.007120 0
-0.076752 0.006857 0
-0.085339 0.006718 0
-0.093507 0.006478 0
-0.101295 0.006216 0
-0.108761 0.005979 0
-0.116010 0.005855 0
-0.123191 0.005924 0
-0.130488 0.006378 0
-0.138126 0.007148 0
-0.146170 0.007993 0
-0.154591 0.008811 0
-0.163238 0.009437 0
-0.171859 0.009748 0
-0.180135 0.009658 0
-0.187717 0.009228 0
-0.194290 0.008418 0
-0.199488 0.007143 0
-0.202973 0.005463 0
-0.204432 0.003400 0
-0.203568 0.000974 0
-0.200174 -0.001843 0
-0.194066 -0.004953 0
-0.185050 -0.008320 0
-0.172836 -0.012003 0
-0.157140 -0.015958 0
-0.137729 -0.020067 0
-0.114554 -0.024014 0
-0.087972 -0.027193 0
-0.059113 -0.028233 0
-0.030538 -0.025158 0
-0.006873 -0.015240 0
0.004512 -0.001178 0
0.000000 0.002891 0
0.000000 0.008236 0
-0.016689 0.017609 0
-0.034926 0.019179 0
-0.051516 0.020098 0
-0.066758 0.020662 0
-0.080845 0.020448 0
-0.093901 0.019655 0
-0.106034 0.018597 0
-0.117387 0.017607 0
-0.127878 0.016755 0
-0.137701 0.015956 0
-0.146985 0.015254 0
-0.155868 0.014715 0
-0.164469 0.014430 0
-0.172874 0.014478 0
-0.181142 0.014935 0
-0.189131 0.015682 0
-0.196813 0.016465 0
-0.204049 0.017068 0
-0.210673 0.017268 0
-0.216497 0.016897 0
-0.221322 0.015857 0
-0.224970 0.014156 0
-0.227182 0.011772 0
-0.227840 0.008683 0
-0.226805 0.004944 0
-0.223956 0.000595 0
-0.219228 -0.004258 0
-0.212568 -0.009502 0
-0.203862 -0.015124 0
-0.192854 -0.021230 0
-0.179299 -0.027909 0
-0.162917 -0.035107 0
-0.143480 -0.042586 0
-0.120900 -0.049757 0
-0.095401 -0.055442 0
-0.067837 -0.057434 0
-0.039871 -0.052240 0
-0.014995 -0.035050 0
0.001262 -0.006873 0
0.000000 0.004512 0
0.000000 0.018027 0
-0.020317 0.037864 0
-0.041931 0.038940 0
-0.060990 0.037674 0
-0.077744 0.036395 0
-0.092620 0.034685 0
-0.106000 0.032673 0
-0.118179 0.030605 0
-0.129369 0.028701 0
-0.139643 0.027032 0
-0.149178 0.025585 0
-0.158121 0.024383 0
-0.166594 0.023463 0
-0.174667 0.022862 0
-0.182351 0.022597 0
-0.189583 0.022635 0
-0.196200 0.022819 0
-0.202088 0.022911 0
-0.207119 0.022671 0
-0.211180 0.021885 0
-0.214183 0.020397 0
-0.216069 0.018131 0
-0.216801 0.015089 0
-0.216325 0.011289 0
-0.214664 0.006766 0
-0.211829 0.001579 0
-0.207831 -0.004177 0
-0.202721 -0.010415 0
-0.196340 -0.017209 0
-0.188464 -0.024667 0
-0.178824 -0.032883 0
-0.167178 -0.041940 0
-0.153261 -0.051778 0
-0.136827 -0.062084 0
-0.117701 -0.072093 0
-0.095887 -0.080257 0
-0.071765 -0.083763 0
-0.046350 -0.077999 0
-0.021996 -0.056373 0
-0.003172 -0.016173 0
0.000000 0.004153 0
0.000000 0.028553 0
-0.020640 0.059541 0
-0.042642 0.059852 0
-0.061868 0.055910 0
-0.078481 0.052293 0
-0.092942 0.048705 0
-0.105704 0.045214 0
-0.117127 0.041965 0
-0.127465 0.039071 0
-0.136879 0.036564 0
-0.145529 0.034433 0
-0.153542 0.032670 0
-0.161006 0.031262 0
-0.167953 0.030186 0
-0.174359 0.029394 0
-0.180144 0.028785 0
-0.185186 0.028188 0
-0.189386 0.027384 0
-0.192670 0.026159 0
-0.194997 0.024333 0
-0.196362 0.021787 0
-0.196793 0.018475 0
-0.196332 0.014411 0
-0.195019 0.009634 0
-0.192907 0.004187 0
-0.190031 -0.001889 0
-0.186426 -0.008514 0
-0.182010 -0.015749 0
-0.176593 -0.023759 0
-0.170023 -0.032641 0
-0.162097 -0.042516 0
-0.152613 -0.053472 0
-0.141345 -0.065458 0
-0.128052 -0.078146 0
-0.112488 -0.090697 0
-0.094456 -0.101378 0
-0.073933 -0.106971 0
-0.051331 -0.102008 0
-0.028093 -0.078227 0
-0.007807 -0.028870 0
0.000000 0.001339 0
0.000000 0.038667 0
-0.019299 0.080507 0
-0.040259 0.080168 0
-0.058558 0.073513 0
-0.074272 0.067469 0
-0.087830 0.061908 0
-0.099666 0.056857 0
-0.110132 0.052367 0
-0.119488 0.048454 0
-0.127915 0.045096 0
-0.135557 0.042248 0
-0.142518 0.039860 0
-0.148862 0.037873 0
-0.154608 0.036215 0
-0.159733 0.034789 0
-0.164181 0.033462 0
-0.167883 0.032061 0
-0.170789 0.030395 0
-0.172878 0.028282 0
-0.174161 0.025577 0
-0.174680 0.022193 0
-0.174493 0.018101 0
-0.173657 0.013314 0
-0.172221 0.007864 0
-0.170222 0.001779 0
-0.167664 -0.004902 0
-0.164572 -0.012198 0
-0.160801 -0.020248 0
-0.156262 -0.029196 0
-0.150848 -0.039163 0
-0.144425 -0.050293 0
-0.136849 -0.062692 0
-0.127948 -0.076339 0
-0.117500 -0.090942 0
-0.105224 -0.105689 0
-0.090773 -0.118811 0
-0.073803 -0.126888 0
-0.054186 -0.123840 0
-0.032562 -0.099897 0
-0.011610 -0.044266 0
0.000000 -0.003654 0
0.000000 0.047851 0
-0.017264 0.099799 0
-0.036570 0.099111 0
-0.053493 0.089923 0
-0.068014 0.081565 0
-0.080510 0.074099 0
-0.091358 0.067515 0
-0.100870 0.061788 0
-0.109281 0.056854 0
-0.116764 0.052633 0
-0.123445 0.049037 0
-0.129411 0.045975 0
-0.134716 0.043352 0
-0.139381 0.041058 0
-0.143399 0.038967 0
-0.146748 0.036935 0
-0.149403 0.034795 0
-0.151356 0.032378 0
-0.152626 0.029531 0
-0.153251 0.026135 0
-0.153289 0.022118 0
-0.152797 0.017452 0
-0.151825 0.012140 0
-0.150409 0.006199 0
-0.148564 -0.000370 0
-0.146292 -0.007539 0
-0.143574 -0.015377 0
-0.140325 -0.024058 0
-0.136496 -0.033712 0
-0.132021 -0.044477 0
-0.126822 -0.056514 0
-0.120812 -0.069950 0
-0.113871 -0.084808 0
-0.105820 -0.100870 0
-0.096376 -0.117425 0
-0.085110 -0.132799 0
-0.071447 -0.143558 0
-0.054818 -0.143248 0
-0.035162 -0.120803 0
-0.014285 -0.061432 0
0.000000 -0.010271 0
0.000000 0.055931 0
-0.015037 0.117077 0
-0.032503 0.116397 0
-0.047928 0.104956 0
-0.061192 0.094485 0
-0.072616 0.085252 0
-0.082508 0.077217 0
-0.091128 0.070290 0
-0.098675 0.064348 0
-0.105301 0.059259 0
-0.111116 0.054895 0
-0.116200 0.051132 0
-0.120601 0.047843 0
-0.124349 0.044898 0
-0.127456 0.042156 0
-0.129928 0.039465 0
-0.131773 0.036670 0
-0.133013 0.033618 0
-0.133685 0.030177 0
-0.133843 0.026240 0
-0.133542 0.021738 0
-0.132837 0.016638 0
-0.131767 0.010927 0
-0.130352 0.004602 0
-0.128601 -0.002338 0
-0.126530 -0.009892 0
-0.124093 -0.018165 0
-0.121251 -0.027326 0
-0.117979 -0.037500 0
-0.114241 -0.048837 0
-0.110002 -0.061502 0
-0.105216 -0.075643 0
-0.099816 -0.091330 0
-0.093672 -0.108437 0
-0.086534 -0.126399 0
-0.077955 -0.143740 0
-0.067227 -0.157180 0
-0.053454 -0.160124 0
-0.035994 -0.140430 0
-0.015853 -0.079429 0
0.000000 -0.017939 0
0.000000 0.062889 0
-0.012845 0.132302 0
-0.028500 0.132002 0
-0.042467 0.118613 0
-0.054522 0.106253 0
-0.064925 0.095414 0
-0.073924 0.086027 0
-0.081724 0.077955 0
-0.088489 0.071027 0
-0.094348 0.065074 0
-0.099399 0.059935 0
-0.103713 0.055460 0
-0.107343 0.051501 0
-0.110326 0.047913 0
-0.112691 0.044547 0
-0.114462 0.041252 0
-0.115669 0.037880 0
-0.116351 0.034291 0
-0.116558 0.030361 0
-0.116344 0.025992 0
-0.115767 0.021113 0
-0.114873 0.015676 0
-0.113697 0.009655 0
-0.112254 0.003033 0
-0.110554 -0.004192 0
-0.108610 -0.012047 0
-0.106383 -0.020655 0
-0.103859 -0.030172 0
-0.101023 -0.040722 0
-0.097862 -0.052455 0
-0.094364 -0.065539 0
-0.090517 -0.080135 0
-0.086292 -0.096351 0
-0.081607 -0.114152 0
-0.076268 -0.133142 0
-0.069861 -0.152106 0
-0.061638 -0.168059 0
-0.050498 -0.174482 0
-0.035342 -0.158404 0
-0.016462 -0.097426 0
0.000000 -0.026123 0
0.000000 0.068776 0
-0.010797 0.145577 0
-0.024760 0.146020 0
-0.037376 0.130978 0
-0.048310 0.116943 0
-0.057766 0.104654 0
-0.065939 0.094016 0
-0.072988 0.084856 0
-0.079045 0.076973 0
-0.084218 0.070169 0
-0.088594 0.064260 0
-0.092241 0.059076 0
-0.095214 0.054457 0
-0.097557 0.050246 0
-0.099310 0.046291 0
-0.100512 0.042443 0
-0.101204 0.038559 0
-0.101436 0.034507 0
-0.101261 0.030170 0
-0.100736 0.025449 0
-0.099915 0.020267 0
-0.098844 0.014567 0
-0.097556 0.008308 0
-0.096068 0.001459 0
-0.094382 -0.005983 0
-0.092519 -0.014062 0
-0.090453 -0.022916 0
-0.088178 -0.032686 0
-0.085690 -0.043497 0
-0.082985 -0.055496 0
-0.080068 -0.068847 0
-0.076942 -0.083716 0
-0.073605 -0.100240 0
-0.070019 -0.118460 0
-0.066045 -0.138146 0
-0.061338 -0.158371 0
-0.055189 -0.176543 0
-0.046409 -0.186420 0
-0.033569 -0.174467 0
-0.016338 -0.114770 0
0.000000 -0.034401 0
0.000000 0.073686 0
-0.008944 0.157063 0
-0.021358 0.158581 0
-0.032744 0.142162 0
-0.042654 0.126643 0
-0.051241 0.113044 0
-0.058652 0.101249 0
-0.065012 0.091061 0
-0.070426 0.082257 0
-0.074983 0.074623 0
-0.078761 0.067958 0
-0.081827 0.062080 0
-0.084237 0.056817 0
-0.086040 0.052009 0
-0.087284 0.047501 0
-0.088015 0.043146 0
-0.088283 0.038804 0
-0.088141 0.034347 0
-0.087645 0.029661 0
-0.086852 0.024647 0
-0.085815 0.019221 0
-0.084579 0.013317 0
-0.083177 0.006878 0
-0.081628 -0.000141 0
-0.079937 -0.007742 0
-0.078129 -0.015976 0
-0.076186 -0.024997 0
-0.074111 -0.034935 0
-0.071904 -0.045914 0
-0.069569 -0.058077 0
-0.067114 -0.071583 0
-0.064554 -0.086597 0
-0.061902 -0.103275 0
-0.059144 -0.121713 0
-0.056198 -0.141823 0
-0.052800 -0.162962 0
-0.048328 -0.182988 0
-0.041612 -0.196101 0
-0.031015 -0.188475 0
-0.015671 -0.130995 0
0.000000 -0.042461 0
0.000000 0.077720 0
-0.007288 0.166935 0
-0.018298 0.169820 0
-0.028572 0.152274 0
-0.037551 0.135439 0
-0.045338 0.120652 0
-0.052048 0.107787 0
-0.057773 0.096629 0
-0.062599 0.086943 0
-0.066601 0.078505 0
-0.069850 0.071104 0
-0.072408 0.064552 0
-0.074332 0.058670 0
-0.075675 0.053293 0
-0.076490 0.048266 0
-0.076826 0.043442 0
-0.076739 0.038685 0
-0.076283 0.033869 0
-0.075514 0.028881 0
-0.074489 0.023619 0
-0.073261 0.017994 0
-0.071873 0.011930 0
-0.070359 0.005357 0
-0.068739 -0.001780 0
-0.067038 -0.009482 0
-0.065267 -0.017814 0
-0.063421 -0.026934 0
-0.061508 -0.036968 0
-0.059531 -0.048039 0
-0.057499 -0.060285 0
-0.055424 -0.073861 0
-0.053322 -0.088928 0
-0.051211 -0.105650 0
-0.049097 -0.124164 0
-0.046936 -0.144490 0
-0.044542 -0.166241 0
-0.041410 -0.187731 0
-0.036463 -0.203733 0
-0.027969 -0.200407 0
-0.014621 -0.145786 0
0.000000 -0.050072 0
0.000000 0.080974 0
-0.005811 0.175360 0
-0.015548 0.179865 0
-0.024814 0.161415 0
-0.032945 0.143410 0
-0.039997 0.127540 0
-0.046057 0.113684 0
-0.051197 0.101612 0
-0.055485 0.091085 0
-0.058985 0.081874 0
-0.061761 0.073764 0
-0.063873 0.066561 0
-0.065376 0.060085 0
-0.066325 0.054167 0
-0.066775 0.048653 0
-0.066779 0.043395 0
-0.066391 0.038260 0
-0.065669 0.033122 0
-0.064668 0.027867 0
-0.063444 0.022393 0
-0.062048 0.016605 0
-0.060525 0.010416 0
-0.058909 0.003745 0
-0.057220 -0.003462 0
-0.055501 -0.011214 0
-0.053755 -0.019593 0
-0.051985 -0.028756 0
-0.050203 -0.038825 0
-0.048418 -0.049923 0
-0.046639 -0.062185 0
-0.044880 -0.075761 0
-0.043159 -0.090810 0
-0.041495 -0.107499 0
-0.039902 -0.125988 0
-0.038360 -0.146378 0
-0.036750 -0.168488 0
-0.034688 -0.191067 0
-0.031239 -0.209542 0
-0.024672 -0.210317 0
-0.013334 -0.158964 0
0.000000 -0.057082 0
0.000000 0.083531 0
-0.004488 0.182483 0
-0.013061 0.188823 0
-0.021409 0.169671 0
-0.028762 0.150622 0
-0.035136 0.133764 0
-0.040593 0.118987 0
-0.045190 0.106057 0
-0.048983 0.094731 0
-0.052028 0.084781 0
-0.054381 0.075992 0
-0.056098 0.068166 0
-0.057235 0.061122 0
-0.057845 0.054692 0
-0.057984 0.048719 0
-0.057704 0.043058 0
-0.057063 0.037575 0
-0.056116 0.032146 0
-0.054918 0.026656 0
-0.053524 0.020998 0
-0.051984 0.015075 0
-0.050344 0.008790 0
-0.048639 0.002052 0
-0.046886 -0.005187 0
-0.045144 -0.012947 0
-0.043414 -0.021330 0
-0.041706 -0.030485 0
-0.040034 -0.040536 0
-0.038409 -0.051604 0
-0.036844 -0.063824 0
-0.035354 -0.077341 0
-0.033960 -0.092312 0
-0.032680 -0.108907 0
-0.031527 -0.127299 0
-0.030497 -0.147642 0
-0.029521 -0.169912 0
-0.028325 -0.193243 0
-0.026137 -0.213749 0
-0.021308 -0.218312 0
-0.011926 -0.170458 0
0.000000 -0.063405 0
0.000000 0.085461 0
-0.003284 0.188421 0
-0.010784 0.196786 0
-0.018287 0.177116 0
-0.024922 0.157136 0
-0.030665 0.139371 0
-0.035560 0.123739 0
-0.039653 0.110003 0
-0.042990 0.097923 0
-0.045619 0.087271 0
-0.047591 0.077834 0
-0.048958 0.069415 0
-0.049774 0.061832 0
-0.050091 0.054916 0
-0.049962 0.048512 0
-0.049443 0.042475 0
-0.048587 0.036671 0
-0.047450 0.030977 0
-0.046086 0.025275 0
-0.044548 0.019459 0
-0.042887 0.013425 0
-0.041148 0.007070 0
-0.039365 0.000287 0
-0.037558 -0.006956 0
-0.035796 -0.014685 0
-0.034078 -0.023032 0
-0.032422 -0.032137 0
-0.030844 -0.042122 0
-0.029355 -0.053113 0
-0.027975 -0.065239 0
-0.026722 -0.078644 0
-0.025616 -0.093485 0
-0.024674 -0.109932 0
-0.023909 -0.128171 0
-0.023326 -0.148383 0
-0.022885 -0.170660 0
-0.022408 -0.194451 0
-0.021287 -0.216559 0
-0.018008 -0.224529 0
-0.010484 -0.180272 0
0.000000 -0.069007 0
0.000000 0.086815 0
-0.002165 0.193267 0
-0.008661 0.203827 0
-0.015378 0.183809 0
-0.021344 0.163000 0
-0.026496 0.144403 0
-0.030865 0.127976 0
-0.034487 0.113486 0
-0.037400 0.100697 0
-0.039647 0.089382 0
-0.041274 0.079332 0
-0.042329 0.070349 0
-0.042862 0.062255 0
-0.042924 0.054880 0
-0.042567 0.048071 0
-0.041843 0.041683 0
-0.040807 0.035582 0
-0.039510 0.029645 0
-0.038008 0.023754 0
-0.036352 0.017800 0
-0.034590 0.011675 0
-0.032766 0.005268 0
-0.030912 -0.001538 0
-0.029070 -0.008757 0
-0.027293 -0.016427 0
-0.025589 -0.024704 0
-0.023978 -0.033720 0
-0.022483 -0.043602 0
-0.021115 -0.054473 0
-0.019899 -0.066458 0
-0.018860 -0.079700 0
-0.018015 -0.094360 0
-0.017382 -0.110613 0
-0.016972 -0.128647 0
-0.016793 -0.148666 0
-0.016826 -0.170830 0
-0.016967 -0.194841 0
-0.016759 -0.218149 0
-0.014857 -0.229116 0
-0.009069 -0.188465 0
0.000000 -0.073889 0
0.000000 0.087627 0
-0.001103 0.197082 0
-0.006640 0.209999 0
-0.012614 0.189799 0
-0.017951 0.168254 0
-0.022546 0.148893 0
-0.026418 0.131730 0
-0.029596 0.116537 0
-0.032114 0.103083 0
-0.034007 0.091145 0
-0.035319 0.080517 0
-0.036093 0.071004 0
-0.036376 0.062427 0
-0.036215 0.054621 0
-0.035661 0.047431 0
-0.034764 0.040715 0
-0.033576 0.034339 0
-0.032149 0.028178 0
-0.030534 0.022117 0
-0.028782 0.016041 0
-0.026941 0.009840 0
-0.025050 0.003392 0
-0.023132 -0.003409 0
-0.021272 -0.010574 0
-0.019487 -0.018167 0
-0.017796 -0.026347 0
-0.016228 -0.035242 0
-0.014810 -0.044985 0
-0.013555 -0.055697 0
-0.012494 -0.067495 0
-0.011655 -0.080528 0
-0.011055 -0.094963 0
-0.010709 -0.110976 0
-0.010631 -0.128760 0
-0.010830 -0.148530 0
-0.011297 -0.170485 0
-0.011992 -0.194518 0
-0.012578 -0.218669 0
-0.011902 -0.232219 0
-0.007722 -0.195129 0
0.000000 -0.078076 0
0.000000 0.087918 0
-0.000099 0.199907 0
-0.004670 0.215338 0
-0.009931 0.195120 0
-0.014668 0.172931 0
-0.018733 0.152870 0
-0.022133 0.135027 0
-0.024891 0.119182 0
-0.027035 0.105108 0
-0.028599 0.092588 0
-0.029620 0.081417 0
-0.030139 0.071406 0
-0.030198 0.062377 0
-0.029841 0.054166 0
-0.029118 0.046620 0
-0.028074 0.039598 0
-0.026761 0.032967 0
-0.025227 0.026602 0
-0.023522 0.020387 0
-0.021698 0.014207 0
-0.019798 0.007943 0
-0.017863 0.001459 0
-0.015896 -0.005316 0
-0.014023 -0.012402 0
-0.012233 -0.019903 0
-0.010556 -0.027963 0
-0.009030 -0.036706 0
-0.007688 -0.046275 0
-0.006550 -0.056789 0
-0.005645 -0.068358 0
-0.005001 -0.081139 0
-0.004635 -0.095306 0
-0.004564 -0.111037 0
-0.004801 -0.128526 0
-0.005361 -0.147999 0
-0.006240 -0.169668 0
-0.007444 -0.193560 0
-0.008734 -0.218240 0
-0.009154 -0.233972 0
-0.006460 -0.200367 0
0.000000 -0.081611 0
0.000000 0.087726 0
0.000860 0.201752 0
-0.002701 0.219831 0
-0.007267 0.199798 0
-0.011427 0.177056 0
-0.014981 0.156357 0
-0.017927 0.137887 0
-0.020283 0.121440 0
-0.022073 0.106792 0
-0.023327 0.093731 0
-0.024077 0.082056 0
-0.024360 0.071581 0
-0.024217 0.062130 0
-0.023687 0.053541 0
-0.022816 0.045664 0
-0.021649 0.038358 0
-0.020233 0.031491 0
-0.018615 0.024940 0
-0.016842 0.018588 0
-0.014964 0.012317 0
-0.013021 0.006005 0
-0.011033 -0.000511 0
-0.009051 -0.007249 0
-0.007173 -0.014237 0
-0.005385 -0.021634 0
-0.003732 -0.029550 0
-0.002257 -0.038111 0
-0.000994 -0.047466 0
0.000016 -0.057740 0
0.000755 -0.069044 0
0.001203 -0.081537 0
0.001339 -0.095400 0
0.001143 -0.110810 0
0.000600 -0.127962 0
-0.000302 -0.147091 0
-0.001588 -0.168403 0
-0.003268 -0.192024 0
-0.005194 -0.216959 0
-0.006603 -0.234494 0
-0.005281 -0.204283 0
0.000000 -0.084536 0
0.000000 0.087058 0
0.001817 0.202608 0
-0.000685 0.223466 0
-0.004565 0.203845 0
-0.008157 0.180645 0
-0.011217 0.159371 0
-0.013723 0.140329 0
-0.015690 0.123327 0
-0.017140 0.108151 0
-0.018097 0.094591 0
-0.018592 0.082451 0
-0.018657 0.071546 0
-0.018329 0.061704 0
-0.017644 0.052765 0
-0.016644 0.044582 0
-0.015372 0.037015 0
-0.013874 0.029933 0
-0.012192 0.023211 0
-0.010365 0.016736 0
-0.008451 0.010386 0
-0.006484 0.004012 0
-0.004421 -0.002510 0
-0.002434 -0.009175 0
-0.000549 -0.016068 0
0.001204 -0.023345 0
0.002792 -0.031091 0
0.004185 -0.039444 0
0.005348 -0.048549 0
0.006231 -0.058537 0
0.006809 -0.069544 0
0.007068 -0.081723 0
0.006978 -0.095246 0
0.006516 -0.110299 0
0.005664 -0.127082 0
0.004409 -0.145812 0
0.002719 -0.166701 0
0.000603 -0.189954 0
-0.001908 -0.214905 0
-0.004220 -0.233885 0
-0.004178 -0.206970 0
0.000000 -0.086892 0
0.000000 0.085908 0
0.002799 0.202437 0
0.001425 0.226213 0
-0.001752 0.207271 0
-0.004796 0.183708 0
-0.007364 0.161922 0
-0.009442 0.142361 0
-0.011030 0.124856 0
-0.012149 0.109198 0
-0.012821 0.095183 0
-0.013071 0.082616 0
-0.012931 0.071318 0
-0.012431 0.061117 0
-0.011606 0.051856 0
-0.010491 0.043392 0
-0.009129 0.035588 0
-0.007567 0.028310 0
-0.005841 0.021431 0
-0.003961 0.014847 0
-0.001995 0.008436 0
0.000014 0.001975 0
0.002080 -0.004561 0
0.004040 -0.011121 0
0.005896 -0.017875 0
0.007590 -0.024975 0
0.009101 -0.032531 0
0.010401 -0.040666 0
0.011450 -0.049511 0
0.012207 -0.059202 0
0.012635 -0.069881 0
0.012706 -0.081705 0
0.012389 -0.094848 0
0.011659 -0.109496 0
0.010492 -0.125856 0
0.008867 -0.144145 0
0.006769 -0.164596 0
0.004202 -0.187398 0
0.001162 -0.212136 0
-0.001964 -0.232223 0
-0.003136 -0.208503 0
0.000000 -0.088714 0
0.000000 0.084259 0
0.003825 0.201183 0
0.003643 0.228016 0
0.001255 0.210067 0
-0.001251 0.186257 0
-0.003359 0.164016 0
-0.005010 0.143994 0
-0.006221 0.126035 0
-0.007015 0.109941 0
-0.007408 0.095514 0
-0.007422 0.082561 0
-0.007085 0.070906 0
-0.006427 0.060379 0
-0.005476 0.050825 0
-0.004250 0.042106 0
-0.002798 0.034091 0
-0.001162 0.026644 0
0.000620 0.019605 0
0.002521 0.012891 0
0.004507 0.006411 0
0.006560 -0.000063 0
0.008545 -0.006535 0
0.010438 -0.012991 0
0.012226 -0.019618 0
0.013862 -0.026550 0
0.015306 -0.033901 0
0.016517 -0.041794 0
0.017454 -0.050355 0
0.018075 -0.059723 0
0.018340 -0.070043 0
0.018215 -0.081477 0
0.017665 -0.094199 0
0.016660 -0.108401 0
0.015173 -0.124290 0
0.013180 -0.142090 0
0.010663 -0.162036 0
0.007608 -0.184347 0
0.004037 -0.208739 0
0.000196 -0.229586 0
-0.002138 -0.208935 0
0.000000 -0.090028 0
0.000000 0.082084 0
0.004914 0.198794 0
0.005990 0.228783 0
0.004492 0.212164 0
0.002558 0.188322 0
0.000902 0.165682 0
-0.000334 0.145223 0
-0.001183 0.126862 0
-0.001657 0.110385 0
-0.001774 0.095590 0
-0.001553 0.082293 0
-0.001018 0.070322 0
-0.000196 0.059508 0
0.000885 0.049679 0
0.002210 0.040714 0
0.003739 0.032499 0
0.005436 0.024893 0
0.007260 0.017748 0
0.009149 0.010960 0
0.011101 0.004398 0
0.013125 -0.002063 0
0.015049 -0.008439 0
0.016890 -0.014802 0
0.018616 -0.021299 0
0.020182 -0.028055 0
0.021542 -0.035186 0
0.022650 -0.042815 0
0.023462 -0.051069 0
0.023934 -0.060088 0
0.024024 -0.070021 0
0.023690 -0.081030 0
0.022897 -0.093293 0
0.021608 -0.107005 0
0.019793 -0.122376 0
0.017422 -0.139635 0
0.014474 -0.159024 0
0.010931 -0.180772 0