# vtk DataFile Version 2.0
generated by CFD-lab course output (written by Tobias Neckel) 
ASCII

DATASET STRUCTURED_GRID
DIMENSIONS  41 41 1 
POINTS 1681 float

0.150000 0.150000 0
0.167857 0.150000 0
0.185714 0.150000 0
0.203571 0.150000 0
0.221429 0.150000 0
0.239286 0.150000 0
0.257143 0.150000 0
0.275000 0.150000 0
0.292857 0.150000 0
0.310714 0.150000 0
0.328571 0.150000 0
0.346429 0.150000 0
0.364286 0.150000 0
0.382143 0.150000 0
0.400000 0.150000 0
0.417857 0.150000 0
0.435714 0.150000 0
0.453571 0.150000 0
0.471429 0.150000 0
0.489286 0.150000 0
0.507143 0.150000 0
0.525000 0.150000 0
0.542857 0.150000 0
0.560714 0.150000 0
0.578571 0.150000 0
0.596429 0.150000 0
0.614286 0.150000 0
0.632143 0.150000 0
0.650000 0.150000 0
0.667857 0.150000 0
0.685714 0.150000 0
0.703571 0.150000 0
0.721429 0.150000 0
0.739286 0.150000 0
0.757143 0.150000 0
0.775000 0.150000 0
0.792857 0.150000 0
0.810714 0.150000 0
0.828571 0.150000 0
0.846429 0.150000 0
0.864286 0.150000 0
0.150000 0.167857 0
0.167857 0.167857 0
0.185714 0.167857 0
0.203571 0.167857 0
0.221429 0.167857 0
0.239286 0.167857 0
0.257143 0.167857 0
0.275000 0.167857 0
0.292857 0.167857 0
0.310714 0.167857 0
0.328571 0.167857 0
0.346429 0.167857 0
0.364286 0.167857 0
0.382143 0.167857 0
0.400000 0.167857 0
0.417857 0.167857 0
0.435714 0.167857 0
0.453571 0.167857 0
0.471429 0.167857 0
0.489286 0.167857 0
0.507143 0.167857 0
0.525000 0.167857 0
0.542857 0.167857 0
0.560714 0.167857 0
0.578571 0.167857 0
0.596429 0.167857 0
0.614286 0.167857 0
0.632143 0.167857 0
0.650000 0.167857 0
0.667857 0.167857 0
0.685714 0.167857 0
0.703571 0.167857 0
0.721429 0.167857 0
0.739286 0.167857 0
0.757143 0.167857 0
0.775000 0.167857 0
0.792857 0.167857 0
0.810714 0.167857 0
0.828571 0.167857 0
0.846429 0.167857 0
0.864286 0.167857 0
0.150000 0.185714 0
0.167857 0.185714 0
0.185714 0.185714 0
0.203571 0.185714 0
0.221429 0.185714 0
0.239286 0.185714 0
0.257143 0.185714 0
0.275000 0.185714 0
0.292857 0.185714 0
0.310714 0.185714 0
0.328571 0.185714 0
0.346429 0.185714 0
0.364286 0.185714 0
0.382143 0.185714 0
0.400000 0.185714 0
0.417857 0.185714 0
0.435714 0.185714 0
0.453571 0.185714 0
0.471429 0.185714 0
0.489286 0.185714 0
0.507143 0.185714 0
0.525000 0.185714 0
0.542857 0.185714 0
0.560714 0.185714 0
0.578571 0.185714 0
0.596429 0.185714 0
0.614286 0.185714 0
0.632143 0.185714 0
0.650000 0.185714 0
0.667857 0.185714 0
0.685714 0.185714 0
0.703571 0.185714 0
0.721429 0.185714 0
0.739286 0.185714 0
0.757143 0.185714 0
0.775000 0.185714 0
0.792857 0.185714 0
0.810714 0.185714 0
0.828571 0.185714 0
0.846429 0.185714 0
0.864286 0.185714 0
0.150000 0.203571 0
0.167857 0.203571 0
0.185714 0.203571 0
0.203571 0.203571 0
0.221429 0.203571 0
0.239286 0.203571 0
0.257143 0.203571 0
0.275000 0.203571 0
0.292857 0.203571 0
0.310714 0.203571 0
0.328571 0.203571 0
0.346429 0.203571 0
0.364286 0.203571 0
0.382143 0.203571 0
0.400000 0.203571 0
0.417857 0.203571 0
0.435714 0.203571 0
0.453571 0.203571 0
0.471429 0.203571 0
0.489286 0.203571 0
0.507143 0.203571 0
0.525000 0.203571 0
0.542857 0.203571 0
0.560714 0.203571 0
0.578571 0.203571 0
0.596429 0.203571 0
0.614286 0.203571 0
0.632143 0.203571 0
0.650000 0.203571 0
0.667857 0.203571 0
0.685714 0.203571 0
0.703571 0.203571 0
0.721429 0.203571 0
0.739286 0.203571 0
0.757143 0.203571 0
0.775000 0.203571 0
0.792857 0.203571 0
0.810714 0.203571 0
0.828571 0.203571 0
0.846429 0.203571 0
0.864286 0.203571 0
0.150000 0.221429 0
0.167857 0.221429 0
0.185714 0.221429 0
0.203571 0.221429 0
0.221429 0.221429 0
0.239286 0.221429 0
0.257143 0.221429 0
0.275000 0.221429 0
0.292857 0.221429 0
0.310714 0.221429 0
0.328571 0.221429 0
0.346429 0.221429 0
0.364286 0.221429 0
0.382143 0.221429 0
0.400000 0.221429 0
0.417857 0.221429 0
0.435714 0.221429 0
0.453571 0.221429 0
0.471429 0.221429 0
0.489286 0.221429 0
0.507143 0.221429 0
0.525000 0.221429 0
0.542857 0.221429 0
0.560714 0.221429 0
0.578571 0.221429 0
0.596429 0.221429 0
0.614286 0.221429 0
0.632143 0.221429 0
0.650000 0.221429 0
0.667857 0.221429 0
0.685714 0.221429 0
0.703571 0.221429 0
0.721429 0.221429 0
0.739286 0.221429 0
0.757143 0.221429 0
0.775000 0.221429 0
0.792857 0.221429 0
0.810714 0.221429 0
0.828571 0.221429 0
0.846429 0.221429 0
0.864286 0.221429 0
0.150000 0.239286 0
0.167857 0.239286 0
0.185714 0.239286 0
0.203571 0.239286 0
0.221429 0.239286 0
0.239286 0.239286 0
0.257143 0.239286 0
0.275000 0.239286 0
0.292857 0.239286 0
0.310714 0.239286 0
0.328571 0.239286 0
0.346429 0.239286 0
0.364286 0.239286 0
0.382143 0.239286 0
0.400000 0.239286 0
0.417857 0.239286 0
0.435714 0.239286 0
0.453571 0.239286 0
0.471429 0.239286 0
0.489286 0.239286 0
0.507143 0.239286 0
0.525000 0.239286 0
0.542857 0.239286 0
0.560714 0.239286 0
0.578571 0.239286 0
0.596429 0.239286 0
0.614286 0.239286 0
0.632143 0.239286 0
0.650000 0.239286 0
0.667857 0.239286 0
0.685714 0.239286 0
0.703571 0.239286 0
0.721429 0.239286 0
0.739286 0.239286 0
0.757143 0.239286 0
0.775000 0.239286 0
0.792857 0.239286 0
0.810714 0.239286 0
0.828571 0.239286 0
0.846429 0.239286 0
0.864286 0.239286 0
0.150000 0.257143 0
0.167857 0.257143 0
0.185714 0.257143 0
0.203571 0.257143 0
0.221429 0.257143 0
0.239286 0.257143 0
0.257143 0.257143 0
0.275000 0.257143 0
0.292857 0.257143 0
0.310714 0.257143 0
0.328571 0.257143 0
0.346429 0.257143 0
0.364286 0.257143 0
0.382143 0.257143 0
0.400000 0.257143 0
0.417857 0.257143 0
0.435714 0.257143 0
0.453571 0.257143 0
0.471429 0.257143 0
0.489286 0.257143 0
0.507143 0.257143 0
0.525000 0.257143 0
0.542857 0.257143 0
0.560714 0.257143 0
0.578571 0.257143 0
0.596429 0.257143 0
0.614286 0.257143 0
0.632143 0.257143 0
0.650000 0.257143 0
0.667857 0.257143 0
0.685714 0.257143 0
0.703571 0.257143 0
0.721429 0.257143 0
0.739286 0.257143 0
0.757143 0.257143 0
0.775000 0.257143 0
0.792857 0.257143 0
0.810714 0.257143 0
0.828571 0.257143 0
0.846429 0.257143 0
0.864286 0.257143 0
0.150000 0.275000 0
0.167857 0.275000 0
0.185714 0.275000 0
0.203571 0.275000 0
0.221429 0.275000 0
0.239286 0.275000 0
0.257143 0.275000 0
0.275000 0.275000 0
0.292857 0.275000 0
0.310714 0.275000 0
0.328571 0.275000 0
0.346429 0.275000 0
0.364286 0.275000 0
0.382143 0.275000 0
0.400000 0.275000 0
0.417857 0.275000 0
0.435714 0.275000 0
0.453571 0.275000 0
0.471429 0.275000 0
0.489286 0.275000 0
0.507143 0.275000 0
0.525000 0.275000 0
0.542857 0.275000 0
0.560714 0.275000 0
0.578571 0.275000 0
0.596429 0.275000 0
0.614286 0.275000 0
0.632143 0.275000 0
0.650000 0.275000 0
0.667857 0.275000 0
0.685714 0.275000 0
0.703571 0.275000 0
0.721429 0.275000 0
0.739286 0.275000 0
0.757143 0.275000 0
0.775000 0.275000 0
0.792857 0.275000 0
0.810714 0.275000 0
0.828571 0.275000 0
0.846429 0.275000 0
0.864286 0.275000 0
0.150000 0.292857 0
0.167857 0.292857 0
0.185714 0.292857 0
0.203571 0.292857 0
0.221429 0.292857 0
0.239286 0.292857 0
0.257143 0.292857 0
0.275000 0.292857 0
0.292857 0.292857 0
0.310714 0.292857 0
0.328571 0.292857 0
0.346429 0.292857 0
0.364286 0.292857 0
0.382143 0.292857 0
0.400000 0.292857 0
0.417857 0.292857 0
0.435714 0.292857 0
0.453571 0.292857 0
0.471429 0.292857 0
0.489286 0.292857 0
0.507143 0.292857 0
0.525000 0.292857 0
0.542857 0.292857 0
0.560714 0.292857 0
0.578571 0.292857 0
0.596429 0.292857 0
0.614286 0.292857 0
0.632143 0.292857 0
0.650000 0.292857 0
0.667857 0.292857 0
0.685714 0.292857 0
0.703571 0.292857 0
0.721429 0.292857 0
0.739286 0.292857 0
0.757143 0.292857 0
0.775000 0.292857 0
0.792857 0.292857 0
0.810714 0.292857 0
0.828571 0.292857 0
0.846429 0.292857 0
0.864286 0.292857 0
0.150000 0.310714 0
0.167857 0.310714 0
0.185714 0.310714 0
0.203571 0.310714 0
0.221429 0.310714 0
0.239286 0.310714 0
0.257143 0.310714 0
0.275000 0.310714 0
0.292857 0.310714 0
0.310714 0.310714 0
0.328571 0.310714 0
0.346429 0.310714 0
0.364286 0.310714 0
0.382143 0.310714 0
0.400000 0.310714 0
0.417857 0.310714 0
0.435714 0.310714 0
0.453571 0.310714 0
0.471429 0.310714 0
0.489286 0.310714 0
0.507143 0.310714 0
0.525000 0.310714 0
0.542857 0.310714 0
0.560714 0.310714 0
0.578571 0.310714 0
0.596429 0.310714 0
0.614286 0.310714 0
0.632143 0.310714 0
0.650000 0.310714 0
0.667857 0.310714 0
0.685714 0.310714 0
0.703571 0.310714 0
0.721429 0.310714 0
0.739286 0.310714 0
0.757143 0.310714 0
0.775000 0.310714 0
0.792857 0.310714 0
0.810714 0.310714 0
0.828571 0.310714 0
0.846429 0.310714 0
0.864286 0.310714 0
0.150000 0.328571 0
0.167857 0.328571 0
0.185714 0.328571 0
0.203571 0.328571 0
0.221429 0.328571 0
0.239286 0.328571 0
0.257143 0.328571 0
0.275000 0.328571 0
0.292857 0.328571 0
0.310714 0.328571 0
0.328571 0.328571 0
0.346429 0.328571 0
0.364286 0.328571 0
0.382143 0.328571 0
0.400000 0.328571 0
0.417857 0.328571 0
0.435714 0.328571 0
0.453571 0.328571 0
0.471429 0.328571 0
0.489286 0.328571 0
0.507143 0.328571 0
0.525000 0.328571 0
0.542857 0.328571 0
0.560714 0.328571 0
0.578571 0.328571 0
0.596429 0.328571 0
0.614286 0.328571 0
0.632143 0.328571 0
0.650000 0.328571 0
0.667857 0.328571 0
0.685714 0.328571 0
0.703571 0.328571 0
0.721429 0.328571 0
0.739286 0.328571 0
0.757143 0.328571 0
0.775000 0.328571 0
0.792857 0.328571 0
0.810714 0.328571 0
0.828571 0.328571 0
0.846429 0.328571 0
0.864286 0.328571 0
0.150000 0.346429 0
0.167857 0.346429 0
0.185714 0.346429 0
0.203571 0.346429 0
0.221429 0.346429 0
0.239286 0.346429 0
0.257143 0.346429 0
0.275000 0.346429 0
0.292857 0.346429 0
0.310714 0.346429 0
0.328571 0.346429 0
0.346429 0.346429 0
0.364286 0.346429 0
0.382143 0.346429 0
0.400000 0.346429 0
0.417857 0.346429 0
0.435714 0.346429 0
0.453571 0.346429 0
0.471429 0.346429 0
0.489286 0.346429 0
0.507143 0.346429 0
0.525000 0.346429 0
0.542857 0.346429 0
0.560714 0.346429 0
0.578571 0.346429 0
0.596429 0.346429 0
0.614286 0.346429 0
0.632143 0.346429 0
0.650000 0.346429 0
0.667857 0.346429 0
0.685714 0.346429 0
0.703571 0.346429 0
0.721429 0.346429 0
0.739286 0.346429 0
0.757143 0.346429 0
0.775000 0.346429 0
0.792857 0.346429 0
0.810714 0.346429 0
0.828571 0.346429 0
0.846429 0.346429 0
[...]
POINT_DATA 1681 

VECTORS velocity float
0.000000 0.000000 0
0.003513 0.000000 0
0.009183 0.000000 0
0.013186 0.000000 0
0.014023 0.000000 0
0.014285 0.000000 0
0.016689 0.000000 0
0.016334 0.000000 0
0.009787 0.000000 0
-0.001729 0.000000 0
-0.015451 0.000000 0
-0.029922 0.000000 0
-0.044320 0.000000 0
-0.058043 0.000000 0
-0.070727 0.000000 0
-0.082175 0.000000 0
-0.092391 0.000000 0
-0.101312 0.000000 0
-0.108938 0.000000 0
-0.115270 0.000000 0
-0.120312 0.000000 0
-0.124062 0.000000 0
-0.126502 0.000000 0
-0.127649 0.000000 0
-0.127383 0.000000 0
-0.125538 0.000000 0
-0.121959 0.000000 0
-0.116505 0.000000 0
-0.109038 0.000000 0
-0.099433 0.000000 0
-0.087694 0.000000 0
-0.073790 0.000000 0
-0.057857 0.000000 0
-0.040236 0.000000 0
-0.021609 0.000000 0
-0.003167 0.000000 0
0.012824 0.000000 0
0.019784 0.000000 0
0.015772 0.000000 0
0.007237 0.000000 0
0.000000 0.000000 0
0.000000 -0.003513 0
0.009393 -0.009183 0
0.019483 -0.009673 0
0.026104 -0.004840 0
0.025687 -0.001098 0
0.017323 -0.002666 0
0.003538 -0.002050 0
-0.014588 0.006902 0
-0.037657 0.018063 0
-0.064814 0.025238 0
-0.093849 0.028193 0
-0.122949 0.028869 0
-0.150854 0.028121 0
-0.176719 0.026407 0
-0.200057 0.024133 0
-0.220649 0.021664 0
-0.238476 0.019137 0
-0.253548 0.016547 0
-0.265919 0.013958 0
-0.275647 0.011374 0
-0.282777 0.008792 0
-0.287332 0.006190 0
-0.289297 0.003586 0
-0.288622 0.000882 0
-0.285166 -0.002111 0
-0.278770 -0.005425 0
-0.269209 -0.009033 0
-0.256229 -0.012921 0
-0.239572 -0.017071 0
-0.219014 -0.021344 0
-0.194428 -0.025643 0
-0.165788 -0.029836 0
-0.133322 -0.033555 0
-0.097679 -0.036248 0
-0.060195 -0.037069 0
-0.023289 -0.034433 0
0.008924 -0.022951 0
0.029711 -0.002948 0
0.027093 0.012547 0
0.013144 0.015772 0
0.000000 0.007237 0
0.000000 -0.009393 0
0.009363 -0.019483 0
0.012450 -0.016711 0
0.004754 -0.006203 0
-0.010036 0.008782 0
-0.033092 0.022149 0
-0.065295 0.031910 0
-0.099762 0.041195 0
-0.131921 0.050226 0
-0.161490 0.056192 0
-0.189238 0.058135 0
-0.214883 0.057005 0
-0.237979 0.053769 0
-0.258329 0.049204 0
-0.275879 0.043931 0
-0.290691 0.038419 0
-0.302804 0.032898 0
-0.312386 0.027443 0
-0.319565 0.022099 0
-0.324455 0.016859 0
-0.327136 0.011685 0
-0.327641 0.006520 0
-0.325967 0.001290 0
-0.321993 -0.004131 0
-0.315681 -0.009852 0
-0.306943 -0.015957 0
-0.295618 -0.022541 0
-0.281483 -0.029637 0
-0.264302 -0.037215 0
-0.243857 -0.045144 0
-0.219899 -0.053225 0
-0.192388 -0.061106 0
-0.161460 -0.068110 0
-0.127620 -0.073128 0
-0.091966 -0.074390 0
-0.056527 -0.069118 0
-0.024366 -0.053000 0
0.002975 -0.018169 0
0.016892 0.016567 0
0.008478 0.027093 0
0.000000 0.013144 0
0.000000 -0.012876 0
-0.002069 -0.021632 0
-0.016400 -0.005064 0
-0.040119 0.017646 0
-0.068248 0.036748 0
-0.097724 0.052593 0
-0.128647 0.064620 0
-0.159644 0.073528 0
-0.188111 0.079791 0
-0.212984 0.082555 0
-0.234614 0.081585 0
-0.253310 0.077610 0
-0.269288 0.071568 0
-0.282787 0.064307 0
-0.294037 0.056494 0
-0.303243 0.048589 0
-0.310544 0.040832 0
-0.316098 0.033308 0
-0.320017 0.026027 0
-0.322380 0.018944 0
-0.323223 0.011979 0
-0.322541 0.005022 0
-0.320287 -0.002062 0
-0.316370 -0.009405 0
-0.310703 -0.017161 0
-0.303120 -0.025487 0
-0.293443 -0.034493 0
-0.281467 -0.044237 0
-0.266967 -0.054698 0
-0.249714 -0.065747 0
-0.229479 -0.077111 0
-0.206143 -0.088276 0
-0.179723 -0.098323 0
-0.150475 -0.105742 0
-0.119022 -0.108162 0
-0.086507 -0.102033 0
-0.054647 -0.082453 0
-0.025431 -0.044206 0
0.001514 0.007044 0
0.002034 0.032664 0
0.000000 0.015715 0
0.000000 -0.007325 0
-0.020158 -0.003083 0
-0.048819 0.021340 0
-0.077773 0.045644 0
-0.107585 0.066386 0
-0.137079 0.082547 0
-0.165267 0.093831 0
-0.191415 0.100660 0
-0.214329 0.103566 0
-0.233517 0.102695 0
-0.249327 0.098462 0
-0.262304 0.091679 0
-0.272959 0.083246 0
-0.281725 0.073953 0
-0.288927 0.064387 0
-0.294789 0.054926 0
-0.299444 0.045753 0
-0.302988 0.036916 0
-0.305472 0.028382 0
-0.306914 0.020065 0
-0.307297 0.011846 0
-0.306579 0.003584 0
-0.304691 -0.004881 0
-0.301556 -0.013714 0
-0.297046 -0.023102 0
-0.291029 -0.033218 0
-0.283348 -0.044195 0
-0.273827 -0.056113 0
-0.262267 -0.068968 0
-0.248458 -0.082632 0
-0.232186 -0.096796 0
-0.213276 -0.110862 0
-0.191611 -0.123779 0
-0.167171 -0.133829 0
-0.140081 -0.138357 0
-0.110661 -0.133493 0
-0.079461 -0.114075 0
-0.047319 -0.074330 0
-0.016188 -0.010898 0
0.000662 0.028607 0
0.000000 0.015178 0
0.000000 0.007282 0
-0.032174 0.027187 0
-0.065893 0.052551 0
-0.098081 0.076412 0
-0.128440 0.096053 0
-0.156340 0.110275 0
-0.181246 0.118956 0
-0.202848 0.122590 0
-0.220830 0.121893 0
-0.235269 0.117553 0
-0.246676 0.110373 0
-0.255683 0.101242 0
-0.262869 0.090989 0
-0.268681 0.080274 0
-0.273428 0.069558 0
-0.277295 0.059106 0
-0.280383 0.049031 0
-0.282743 0.039336 0
-0.284392 0.029953 0
-0.285320 0.020769 0
-0.285497 0.011644 0
-0.284878 0.002416 0
-0.283403 -0.007085 0
-0.281004 -0.017050 0
-0.277577 -0.027688 0
-0.273014 -0.039185 0
-0.267190 -0.051696 0
-0.259960 -0.065318 0
-0.251159 -0.080066 0
-0.240606 -0.095828 0
-0.228098 -0.112294 0
-0.213427 -0.128851 0
-0.196363 -0.144428 0
-0.176653 -0.157272 0
-0.154008 -0.164672 0
-0.128105 -0.162653 0
-0.098659 -0.145795 0
-0.065690 -0.107478 0
-0.030245 -0.040937 0
0.004118 0.016476 0
0.000000 0.016377 0
0.000000 0.024849 0
-0.035942 0.062809 0
-0.072651 0.087247 0
-0.105934 0.108191 0
-0.135586 0.124645 0
-0.161348 0.135353 0
-0.183114 0.140339 0
-0.200978 0.140244 0
-0.215159 0.135987 0
-0.226108 0.128540 0
-0.234455 0.118875 0
-0.240838 0.107872 0
-0.245797 0.096245 0
-0.249726 0.084512 0
-0.252884 0.073001 0
-0.255425 0.061881 0
-0.257429 0.051201 0
-0.258938 0.040924 0
-0.259963 0.030958 0
-0.260495 0.021170 0
-0.260511 0.011404 0
-0.259973 0.001490 0
-0.258833 -0.008754 0
-0.257038 -0.019540 0
-0.254510 -0.031091 0
-0.251167 -0.043604 0
-0.246914 -0.057250 0
-0.241638 -0.072144 0
-0.235209 -0.088322 0
-0.227477 -0.105693 0
-0.218259 -0.123975 0
-0.207334 -0.142597 0
-0.194413 -0.160552 0
-0.179092 -0.176184 0
-0.160803 -0.186906 0
-0.138774 -0.188842 0
-0.112072 -0.176490 0
-0.079897 -0.142745 0
-0.042344 -0.080706 0
-0.001444 -0.001638 0
0.000000 0.019296 0
0.000000 0.043225 0
-0.036241 0.099837 0
-0.073028 0.122543 0
-0.105587 0.139347 0
-0.133631 0.151467 0
-0.157068 0.157803 0
-0.176066 0.158586 0
-0.191005 0.154635 0
-0.202409 0.147023 0
-0.210918 0.136849 0
-0.217203 0.125103 0
-0.221861 0.112585 0
-0.225362 0.099877 0
-0.228041 0.087362 0
-0.230117 0.075256 0
-0.231725 0.063651 0
-0.232942 0.052545 0
-0.233809 0.041869 0
-0.234344 0.031510 0
-0.234548 0.021318 0
-0.234411 0.011122 0
-0.233907 0.000737 0
-0.232997 -0.010020 0
-0.231641 -0.021373 0
-0.229790 -0.033558 0
-0.227385 -0.046781 0
-0.224357 -0.061225 0
-0.220625 -0.077022 0
-0.216089 -0.094227 0
-0.210627 -0.112779 0
-0.204082 -0.132436 0
-0.196244 -0.152697 0
-0.186810 -0.172671 0
-0.175324 -0.190881 0
-0.161098 -0.204990 0
-0.143132 -0.211385 0
-0.120125 -0.204672 0
-0.090774 -0.177207 0
-0.054819 -0.119390 0
-0.016226 -0.025868 0
0.000000 0.014933 0
0.000000 0.061090 0
-0.034435 0.135838 0
-0.069552 0.156593 0
-0.100233 0.168794 0
-0.126127 0.176126 0
-0.147222 0.177788 0
-0.163835 0.174276 0
-0.176508 0.166587 0
-0.185906 0.155900 0
-0.192731 0.143335 0
-0.197633 0.129817 0
-0.201149 0.116030 0
-0.203685 0.102425 0
-0.205525 0.089268 0
-0.206863 0.076685 0
-0.207820 0.064705 0
-0.208472 0.053284 0
-0.208863 0.042326 0
-0.209019 0.031697 0
-0.208948 0.021237 0
-0.208650 0.010763 0
-0.208117 0.000076 0
-0.207330 -0.011020 0
-0.206253 -0.022747 0
-0.204862 -0.035348 0
-0.203121 -0.049037 0
-0.200985 -0.064009 0
-0.198397 -0.080412 0
-0.195280 -0.098320 0
-0.191538 -0.117700 0
-0.187037 -0.138358 0
-0.181587 -0.159870 0
-0.174907 -0.181471 0
-0.166559 -0.201895 0
-0.155859 -0.219098 0
-0.141773 -0.229815 0
-0.122880 -0.228848 0
-0.097594 -0.208051 0
-0.065115 -0.155254 0
-0.028086 -0.056457 0
0.000000 0.003069 0
0.000000 0.077659 0
-0.031430 0.169389 0
-0.063905 0.188341 0
-0.092079 0.195923 0
-0.115564 0.198456 0
-0.134393 0.195511 0
-0.148952 0.187872 0
-0.159846 0.176705 0
-0.167774 0.163246 0
-0.173424 0.148576 0
-0.177392 0.133521 0
-0.180150 0.118636 0
-0.182047 0.104253 0
-0.183331 0.090540 0
-0.184172 0.077550 0
-0.184681 0.065260 0
-0.184932 0.053588 0
-0.184971 0.042416 0
-0.184829 0.031594 0
-0.184522 0.020949 0
-0.184060 0.010292 0
-0.183448 -0.000583 0
-0.182683 -0.011884 0
-0.181748 -0.023841 0
-0.180633 -0.036690 0
-0.179324 -0.050658 0
-0.177794 -0.065949 0
-0.176005 -0.082726 0
-0.173903 -0.101086 0
-0.171405 -0.121022 0
-0.168397 -0.142387 0
-0.164709 -0.164827 0
-0.160090 -0.187698 0
-0.154150 -0.209930 0
-0.146275 -0.229776 0
-0.135508 -0.244363 0
-0.120427 -0.248852 0
-0.099194 -0.234972 0
-0.070155 -0.188898 0
-0.033927 -0.090983 0
0.000000 -0.013153 0
0.000000 0.092519 0
-0.027827 0.199743 0
-0.057187 0.217243 0
-0.082575 0.220453 0
-0.103582 0.218440 0
-0.120272 0.211177 0
-0.133046 0.199729 0
-0.142507 0.185409 0
-0.149325 0.169478 0
-0.154132 0.152952 0
-0.157455 0.136543 0
-0.159704 0.120686 0
-0.161179 0.105607 0
-0.162094 0.091392 0
-0.162599 0.078034 0
-0.162797 0.065465 0
-0.162757 0.053575 0
-0.162529 0.042223 0
-0.162144 0.031248 0
-0.161630 0.020469 0
-0.161003 0.009689 0
-0.160279 -0.001301 0
-0.159466 -0.012720 0
-0.158568 -0.024797 0
-0.157590 -0.037772 0
-0.156529 -0.051877 0
-0.155380 -0.067327 0
-0.154119 -0.084302 0
-0.152707 -0.102920 0
-0.151076 -0.123207 0
-0.149124 -0.145055 0
-0.146697 -0.168176 0
-0.143566 -0.192030 0
-0.139391 -0.215710 0
-0.133644 -0.237741 0
-0.125489 -0.255663 0
-0.113603 -0.265161 0
-0.096016 -0.258324 0
-0.070367 -0.220522 0
-0.035693 -0.126612 0
0.000000 -0.030857 0
0.000000 0.105486 0
-0.023999 0.226576 0
-0.050078 0.243089 0
-0.072620 0.242318 0
-0.091203 0.236154 0
-0.105903 0.224975 0
-0.117107 0.210107 0
-0.125377 0.192984 0
-0.131321 0.174870 0
-0.135495 0.156706 0
-0.138355 0.139093 0
-0.140250 0.122360 0
-0.141436 0.106643 0
-0.142098 0.091960 0
-0.142368 0.078254 0
-0.142340 0.065418 0
-0.142081 0.053320 0
-0.141640 0.041803 0
-0.141054 0.030695 0
-0.140354 0.019808 0
-0.139566 0.008941 0
-0.138714 -0.002119 0
-0.137815 -0.013595 0
-0.136887 -0.025718 0
-0.135945 -0.038729 0
-0.135003 -0.052868 0
-0.134065 -0.068360 0
-0.133125 -0.085399 0
-0.132156 -0.104129 0
-0.131106 -0.124605 0
-0.129881 -0.146767 0
-0.128340 -0.170384 0
-0.126270 -0.195003 0
-0.123364 -0.219852 0
-0.119169 -0.243678 0
-0.112981 -0.264404 0
-0.103649 -0.278325 0
-0.089274 -0.278208 0
-0.067155 -0.249221 0
-0.035277 -0.161350 0
0.000000 -0.048846 0
0.000000 0.116518 0
-0.020159 0.249821 0
-0.042974 0.265865 0
-0.062740 0.261577 0
-0.079013 0.251722 0
-0.091877 0.237080 0
-0.101683 0.219203 0
-0.108934 0.199623 0
-0.114157 0.179597 0
-0.117829 0.159987 0
-0.120334 0.141298 0
-0.121964 0.123766 0
-0.122937 0.107455 0
-0.123412 0.092324 0
-0.123505 0.078277 0
-0.123302 0.065178 0
-0.122867 0.052874 0
-0.122252 0.041196 0
-0.121496 0.029962 0
-0.120635 0.018981 0
-0.119699 0.008049 0
-0.118718 -0.003052 0
-0.117717 -0.014547 0
-0.116722 -0.026667 0
-0.115757 -0.039656 0
-0.114844 -0.053757 0
-0.114000 -0.069205 0
-0.113231 -0.086211 0
-0.112525 -0.104939 0
-0.111841 -0.125482 0
-0.111101 -0.147821 0
-0.110175 -0.171787 0
-0.108863 -0.197005 0
-0.106881 -0.222811 0
-0.103828 -0.248124 0
-0.099116 -0.271183 0
-0.091799 -0.288868 0
-0.080209 -0.294817 0
-0.061613 -0.274519 0
-0.033256 -0.193767 0
0.000000 -0.066134 0
0.000000 0.125645 0
-0.016418 0.269550 0
-0.036080 0.285670 0
-0.053204 0.278357 0
-0.067311 0.265290 0
-0.078486 0.247646 0
-0.087035 0.227164 0
-0.093387 0.205458 0
-0.097990 0.183766 0
-0.101237 0.162883 0
-0.103447 0.143228 0
-0.104861 0.124963 0
-0.105661 0.108091 0
-0.105983 0.092528 0
-0.105929 0.078143 0
-0.105581 0.064780 0
-0.105000 0.052270 0
-0.104240 0.040432 0
-0.103342 0.029078 0
-0.102345 0.018011 0
-0.101281 0.007024 0
-0.100182 -0.004101 0
-0.099080 -0.015590 0
-0.098006 -0.027678 0
-0.096987 -0.040608 0
-0.096052 -0.054625 0
-0.095228 -0.069973 0
-0.094530 -0.086874 0
-0.093959 -0.105518 0
-0.093490 -0.126029 0
-0.093059 -0.148433 0
-0.092553 -0.172623 0
-0.091789 -0.198297 0
-0.090504 -0.224887 0
-0.088331 -0.251443 0
-0.084773 -0.276433 0
-0.079080 -0.297232 0
-0.069897 -0.308394 0
-0.054696 -0.296174 0
-0.030258 -0.222964 0
0.000000 -0.082102 0
0.000000 0.132936 0
-0.012818 0.285901 0
-0.029476 0.302651 0
-0.044114 0.292808 0
-0.056205 0.277004 0
-0.065824 0.256804 0
-0.073229 0.234104 0
-0.078773 0.210578 0
-0.082819 0.187446 0
-0.085688 0.165444 0
-0.087635 0.144922 0
-0.088856 0.125980 0
-0.089502 0.108576 0
-0.089688 0.092593 0
-0.089506 0.077875 0
-0.089032 0.064249 0
-0.088328 0.051533 0
-0.087447 0.039538 0
-0.086432 0.028067 0
-0.085322 0.016920 0
-0.084153 0.005886 0
-0.082955 -0.005253 0
-0.081766 -0.016723 0
-0.080615 -0.028761 0
-0.079535 -0.041610 0
-0.078558 -0.055516 0
-0.077715 -0.070727 0
-0.077030 -0.087480 0
-0.076514 -0.105980 0
-0.076156 -0.126382 0
-0.075913 -0.148758 0
-0.075691 -0.173057 0
-0.075331 -0.199054 0
-0.074592 -0.226269 0
-0.073143 -0.253854 0
-0.070553 -0.280434 0
-0.066231 -0.303745 0
-0.059148 -0.319201 0
-0.047133 -0.314157 0
-0.026739 -0.248463 0
0.000000 -0.096393 0
0.000000 0.138463 0
-0.009353 0.299026 0
-0.023157 0.316966 0
-0.035466 0.305086 0
-0.045681 0.287001 0
-0.053862 0.264670 0
-0.060215 0.240112 0
-0.065016 0.215048 0
-0.068552 0.190681 0
-0.071070 0.167698 0
-0.072770 0.146396 0
-0.073809 0.126830 0
-0.074309 0.108923 0
-0.074369 0.092532 0
-0.074072 0.077488 0
-0.073489 0.063602 0
-0.072680 0.050684 0
-0.071698 0.038535 0
-0.070589 0.026954 0
-0.069392 0.015732 0
-0.068141 0.004657 0
-0.066867 -0.006488 0
-0.065609 -0.017930 0
-0.064396 -0.029909 0
-0.063263 -0.042665 0
-0.062243 -0.056445 0
-0.061369 -0.071501 0
-0.060670 -0.088076 0
-0.060167 -0.106392 0
-0.059862 -0.126629 0
-0.059731 -0.148898 0
-0.059704 -0.173205 0
-0.059649 -0.199396 0
-0.059359 -0.227075 0
-0.058539 -0.255482 0
-0.056817 -0.283345 0
-0.053721 -0.308637 0
-0.048510 -0.327491 0
-0.039433 -0.328583 0
-0.023021 -0.270097 0
0.000000 -0.108841 0
0.000000 0.142289 0
-0.005997 0.309058 0
-0.017074 0.328763 0
-0.027191 0.315332 0
-0.035650 0.295401 0
-0.042493 0.271338 0
-0.047867 0.245258 0
-0.051978 0.218915 0
-0.055034 0.193500 0
-0.057220 0.169663 0
-0.058685 0.147661 0
-0.059548 0.127519 0
-0.059908 0.109136 0
-0.059849 0.092356 0
-0.059446 0.076994 0
-0.058768 0.062857 0
-0.057872 0.049743 0
-0.056811 0.037447 0
-0.055631 0.025761 0
-0.054371 0.014472 0
-0.053063 0.003361 0
-0.051734 -0.007785 0
-0.050428 -0.019194 0
-0.049174 -0.031106 0
-0.048004 -0.043763 0
-0.046952 -0.057411 0
-0.046052 -0.072300 0
-0.045337 -0.088681 0
-0.044834 -0.106787 0
-0.044558 -0.126818 0
-0.044501 -0.148916 0
-0.044618 -0.173139 0
-0.044809 -0.199399 0
-0.044903 -0.227379 0
-0.044654 -0.256396 0
-0.043747 -0.285252 0
-0.041801 -0.312053 0
-0.038299 -0.333489 0
-0.031914 -0.339646 0
-0.019312 -0.287896 0
0.000000 -0.119413 0
0.000000 0.144460 0
-0.002719 0.316099 0
-0.011148 0.338160 0
-0.019178 0.323663 0
-0.025981 0.302303 0
-0.031564 0.276886 0
-0.036020 0.249597 0
-0.039481 0.222216 0
-0.042085 0.195924 0
-0.043954 0.171349 0
-0.045192 0.148724 0
-0.045885 0.128053 0
-0.046110 0.109223 0
-0.045941 0.092071 0
-0.045443 0.076406 0
-0.044682 0.062028 0
-0.043716 0.048728 0
-0.042595 0.036295 0
-0.041366 0.024513 0
-0.040067 0.013164 0
-0.038730 0.002020 0
-0.037367 -0.009123 0
-0.036034 -0.020491 0
-0.034760 -0.032333 0
-0.033575 -0.044887 0
-0.032510 -0.058397 0
-0.031601 -0.073116 0
-0.030882 -0.089294 0
-0.030386 -0.107171 0
-0.030137 -0.126963 0
-0.030145 -0.148839 0
-0.030387 -0.172897 0
-0.030793 -0.199110 0
-0.031236 -0.227229 0
-0.031521 -0.256638 0
-0.031396 -0.286198 0
-0.030562 -0.314085 0
-0.028658 -0.337379 0
-0.024742 -0.347570 0
-0.015728 -0.302010 0
0.000000 -0.128153 0
0.000000 0.145008 0
0.000451 0.320206 0
-0.005264 0.345222 0
-0.011294 0.330165 0
-0.016512 0.307788 0
-0.020897 0.281378 0
-0.024481 0.253175 0
-0.027326 0.224979 0
-0.029500 0.197973 0
-0.031069 0.172770 0
-0.032091 0.149592 0
-0.032624 0.128438 0
-0.032726 0.109192 0
-0.032456 0.091688 0
-0.031876 0.075736 0
-0.031047 0.061129 0
-0.030026 0.047656 0
-0.028863 0.035098 0
-0.027603 0.023233 0
-0.026280 0.011836 0
-0.024929 0.000661 0
-0.023568 -0.010481 0
-0.022236 -0.021800 0
-0.020965 -0.033566 0
-0.019786 -0.046013 0
-0.018730 -0.059385 0
-0.017832 -0.073929 0
-0.017129 -0.089897 0
-0.016659 -0.107532 0
-0.016454 -0.127058 0
-0.016538 -0.148667 0
-0.016907 -0.172491 0
-0.017523 -0.198549 0
-0.018300 -0.226652 0
-0.019097 -0.256237 0
-0.019732 -0.286210 0
-0.019989 -0.314790 0
-0.019611 -0.339309 0
-0.017975 -0.352576 0
-0.012319 -0.312638 0
0.000000 -0.135142 0
0.000000 0.144009 0
0.003527 0.321364 0
0.000688 0.349905 0
-0.003370 0.334911 0
-0.007065 0.311906 0
-0.010309 0.284855 0
-0.013059 0.256026 0
-0.015309 0.227235 0
-0.017074 0.199667 0
-0.018360 0.173940 0
-0.019183 0.150279 0
-0.019571 0.128687 0
-0.019563 0.109055 0
-0.019208 0.091221 0
-0.018563 0.074998 0
-0.017684 0.060178 0
-0.016627 0.046544 0
-0.015440 0.033872 0
-0.014167 0.021930 0
-0.012834 0.010490 0
-0.011480 -0.000692 0
-0.010148 -0.011816 0
-0.008840 -0.023093 0
-0.007594 -0.034783 0
-0.006441 -0.047122 0
-0.005415 -0.060351 0
-0.004551 -0.074717 0
-0.003889 -0.090467 0
-0.003472 -0.107845 0
-0.003338 -0.127083 0
-0.003520 -0.148387 0
-0.004034 -0.171912 0
-0.004869 -0.197717 0
-0.005982 -0.225655 0
-0.007287 -0.255206 0
-0.008667 -0.285307 0
-0.009996 -0.314206 0
-0.011101 -0.339393 0
-0.011594 -0.354862 0
-0.009087 -0.319985 0
0.000000 -0.140472 0
0.000000 0.141481 0
0.006611 0.319519 0
0.006753 0.352119 0
0.004724 0.337917 0
0.002539 0.314727 0
0.000425 0.287372 0
-0.001524 0.258175 0
-0.003215 0.228994 0
-0.004599 0.201023 0
-0.005626 0.174878 0
-0.006271 0.150803 0
-0.006534 0.128818 0
-0.006436 0.108829 0
-0.006016 0.090689 0
-0.005324 0.074212 0
-0.004415 0.059193 0
-0.003340 0.045412 0
-0.002146 0.032638 0
-0.000871 0.020626 0
0.000449 0.009149 0
0.001780 -0.002026 0
0.003082 -0.013121 0
0.004349 -0.024354 0
0.005552 -0.035965 0
0.006658 -0.048193 0
0.007633 -0.061275 0
0.008437 -0.075454 0
0.009031 -0.090976 0
0.009366 -0.108083 0
0.009399 -0.127010 0
0.009086 -0.147971 0
0.008399 -0.171141 0
0.007321 -0.196602 0
0.005859 -0.224235 0
0.004043 -0.253551 0
0.001924 -0.283501 0
-0.000454 -0.312357 0
-0.003020 -0.337712 0
-0.005529 -0.354590 0
-0.006006 -0.324232 0
0.000000 -0.144229 0
0.000000 0.137398 0
0.009775 0.314611 0
0.012998 0.351791 0
0.013082 0.339125 0
0.012436 0.316206 0
0.011473 0.288918 0
0.010328 0.259667 0
0.009171 0.230309 0
0.008146 0.202077 0
0.007354 0.175613 0
0.006863 0.151188 0
0.006701 0.128851 0
0.006864 0.108536 0
0.007323 0.090110 0
0.008035 0.073397 0
0.008949 0.058194 0
0.010017 0.044275 0
0.011199 0.031402 0
0.012455 0.019336 0
0.013744 0.007839 0
0.015039 -0.003325 0
0.016305 -0.014386 0
0.017523 -0.025564 0
0.018669 -0.037092 0
0.019710 -0.049202 0
0.020612 -0.062130 0
0.021336 -0.076115 0
0.021837 -0.091396 0
0.022065 -0.108213 0
0.021968 -0.126803 0
0.021496 -0.147387 0
0.020604 -0.170147 0
0.019253 -0.195178 0
0.017412 -0.222377 0
0.015057 -0.251271 0
0.012172 -0.280810 0
0.008740 -0.309262 0
0.004753 -0.334318 0
0.000330 -0.351877 0
-0.003020 -0.325514 0
0.000000 -0.146478 0
0.000000 0.131706 0
0.013066 0.306521 0
0.019520 0.348812 0
0.021822 0.338479 0
0.022739 0.316335 0
0.022931 0.289480 0
0.022615 0.260477 0
0.022013 0.231176 0
0.021348 0.202840 0
0.020784 0.176161 0
0.020431 0.151457 0
0.020346 0.128817 0
0.020546 0.108207 0
0.021014 0.089518 0
0.021715 0.072587 0
0.022605 0.057211 0
0.023641 0.043162 0
0.024783 0.030200 0
0.025993 0.018082 0
0.027236 0.006565 0
0.028483 -0.004587 0
0.029698 -0.015605 0
0.030857 -0.026717 0
0.031932 -0.038152 0
0.032894 -0.050136 0
0.033708 -0.062901 0
0.034333 -0.076679 0
0.034722 -0.091704 0
0.034821 -0.108214 0
0.034574 -0.126441 0
0.033921 -0.146607 0
0.032800 -0.168898 0
0.031147 -0.193410 0
0.028893 -0.220038 0
0.025963 -0.248311 0
0.022274 -0.277184 0