# vtk DataFile Version 2.0
generated by CFD-lab course output (written by Tobias Neckel) 
ASCII

DATASET STRUCTURED_GRID
DIMENSIONS  41 41 1 
POINTS 1681 float

0.150000 0.150000 0
0.167857 0.150000 0
0.185714 0.150000 0
0.203571 0.150000 0
0.221429 0.150000 0
0.239286 0.150000 0
0.257143 0.150000 0
0.275000 0.150000 0
0.292857 0.150000 0
0.310714 0.150000 0
0.328571 0.150000 0
0.346429 0.150000 0
0.364286 0.150000 0
0.382143 0.150000 0
0.400000 0.150000 0
0.417857 0.150000 0
0.435714 0.150000 0
0.453571 0.150000 0
0.471429 0.150000 0
0.489286 0.150000 0
0.507143 0.150000 0
0.525000 0.150000 0
0.542857 0.150000 0
0.560714 0.150000 0
0.578571 0.150000 0
0.596429 0.150000 0
0.614286 0.150000 0
0.632143 0.150000 0
0.650000 0.150000 0
0.667857 0.150000 0
0.685714 0.150000 0
0.703571 0.150000 0
0.721429 0.150000 0
0.739286 0.150000 0
0.757143 0.150000 0
0.775000 0.150000 0
0.792857 0.150000 0
0.810714 0.150000 0
0.828571 0.150000 0
0.846429 0.150000 0
0.864286 0.150000 0
0.150000 0.167857 0
0.167857 0.167857 0
0.185714 0.167857 0
0.203571 0.167857 0
0.221429 0.167857 0
0.239286 0.167857 0
0.257143 0.167857 0
0.275000 0.167857 0
0.292857 0.167857 0
0.310714 0.167857 0
0.328571 0.167857 0
0.346429 0.167857 0
0.364286 0.167857 0
0.382143 0.167857 0
0.400000 0.167857 0
0.417857 0.167857 0
0.435714 0.167857 0
0.453571 0.167857 0
0.471429 0.167857 0
0.489286 0.167857 0
0.507143 0.167857 0
0.525000 0.167857 0
0.542857 0.167857 0
0.560714 0.167857 0
0.578571 0.167857 0
0.596429 0.167857 0
0.614286 0.167857 0
0.632143 0.167857 0
0.650000 0.167857 0
0.667857 0.167857 0
0.685714 0.167857 0
0.703571 0.167857 0
0.721429 0.167857 0
0.739286 0.167857 0
0.757143 0.167857 0
0.775000 0.167857 0
0.792857 0.167857 0
0.810714 0.167857 0
0.828571 0.167857 0
0.846429 0.167857 0
0.864286 0.167857 0
0.150000 0.185714 0
0.167857 0.185714 0
0.185714 0.185714 0
0.203571 0.185714 0
0.221429 0.185714 0
0.239286 0.185714 0
0.257143 0.185714 0
0.275000 0.185714 0
0.292857 0.185714 0
0.310714 0.185714 0
0.328571 0.185714 0
0.346429 0.185714 0
0.364286 0.185714 0
0.382143 0.185714 0
0.400000 0.185714 0
0.417857 0.185714 0
0.435714 0.185714 0
0.453571 0.185714 0
0.471429 0.185714 0
0.489286 0.185714 0
0.507143 0.185714 0
0.525000 0.185714 0
0.542857 0.185714 0
0.560714 0.185714 0
0.578571 0.185714 0
0.596429 0.185714 0
0.614286 0.185714 0
0.632143 0.185714 0
0.650000 0.185714 0
0.667857 0.185714 0
0.685714 0.185714 0
0.703571 0.185714 0
0.721429 0.185714 0
0.739286 0.185714 0
0.757143 0.185714 0
0.775000 0.185714 0
0.792857 0.185714 0
0.810714 0.185714 0
0.828571 0.185714 0
0.846429 0.185714 0
0.864286 0.185714 0
0.150000 0.203571 0
0.167857 0.203571 0
0.185714 0.203571 0
0.203571 0.203571 0
0.221429 0.203571 0
0.239286 0.203571 0
0.257143 0.203571 0
0.275000 0.203571 0
0.292857 0.203571 0
0.310714 0.203571 0
0.328571 0.203571 0
0.346429 0.203571 0
0.364286 0.203571 0
0.382143 0.203571 0
0.400000 0.203571 0
0.417857 0.203571 0
0.435714 0.203571 0
0.453571 0.203571 0
0.471429 0.203571 0
0.489286 0.203571 0
0.507143 0.203571 0
0.525000 0.203571 0
0.542857 0.203571 0
0.560714 0.203571 0
0.578571 0.203571 0
0.596429 0.203571 0
0.614286 0.203571 0
0.632143 0.203571 0
0.650000 0.203571 0
0.667857 0.203571 0
0.685714 0.203571 0
0.703571 0.203571 0
0.721429 0.203571 0
0.739286 0.203571 0
0.757143 0.203571 0
0.775000 0.203571 0
0.792857 0.203571 0
0.810714 0.203571 0
0.828571 0.203571 0
0.846429 0.203571 0
0.864286 0.203571 0
0.150000 0.221429 0
0.167857 0.221429 0
0.185714 0.221429 0
0.203571 0.221429 0
0.221429 0.221429 0
0.239286 0.221429 0
0.257143 0.221429 0
0.275000 0.221429 0
0.292857 0.221429 0
0.310714 0.221429 0
0.328571 0.221429 0
0.346429 0.221429 0
0.364286 0.221429 0
0.382143 0.221429 0
0.400000 0.221429 0
0.417857 0.221429 0
0.435714 0.221429 0
0.453571 0.221429 0
0.471429 0.221429 0
0.489286 0.221429 0
0.507143 0.221429 0
0.525000 0.221429 0
0.542857 0.221429 0
0.560714 0.221429 0
0.578571 0.221429 0
0.596429 0.221429 0
0.614286 0.221429 0
0.632143 0.221429 0
0.650000 0.221429 0
0.667857 0.221429 0
0.685714 0.221429 0
0.703571 0.221429 0
0.721429 0.221429 0
0.739286 0.221429 0
0.757143 0.221429 0
0.775000 0.221429 0
0.792857 0.221429 0
0.810714 0.221429 0
0.828571 0.221429 0
0.846429 0.221429 0
0.864286 0.221429 0
0.150000 0.239286 0
0.167857 0.239286 0
0.185714 0.239286 0
0.203571 0.239286 0
0.221429 0.239286 0
0.239286 0.239286 0
0.257143 0.239286 0
0.275000 0.239286 0
0.292857 0.239286 0
0.310714 0.239286 0
0.328571 0.239286 0
0.346429 0.239286 0
0.364286 0.239286 0
0.382143 0.239286 0
0.400000 0.239286 0
0.417857 0.239286 0
0.435714 0.239286 0
0.453571 0.239286 0
0.471429 0.239286 0
0.489286 0.239286 0
0.507143 0.239286 0
0.525000 0.239286 0
0.542857 0.239286 0
0.560714 0.239286 0
0.578571 0.239286 0
0.596429 0.239286 0
0.614286 0.239286 0
0.632143 0.239286 0
0.650000 0.239286 0
0.667857 0.239286 0
0.685714 0.239286 0
0.703571 0.239286 0
0.721429 0.239286 0
0.739286 0.239286 0
0.757143 0.239286 0
0.775000 0.239286 0
0.792857 0.239286 0
0.810714 0.239286 0
0.828571 0.239286 0
0.846429 0.239286 0
0.864286 0.239286 0
0.150000 0.257143 0
0.167857 0.257143 0
0.185714 0.257143 0
0.203571 0.257143 0
0.221429 0.257143 0
0.239286 0.257143 0
0.257143 0.257143 0
0.275000 0.257143 0
0.292857 0.257143 0
0.310714 0.257143 0
0.328571 0.257143 0
0.346429 0.257143 0
0.364286 0.257143 0
0.382143 0.257143 0
0.400000 0.257143 0
0.417857 0.257143 0
0.435714 0.257143 0
0.453571 0.257143 0
0.471429 0.257143 0
0.489286 0.257143 0
0.507143 0.257143 0
0.525000 0.257143 0
0.542857 0.257143 0
0.560714 0.257143 0
0.578571 0.257143 0
0.596429 0.257143 0
0.614286 0.257143 0
0.632143 0.257143 0
0.650000 0.257143 0
0.667857 0.257143 0
0.685714 0.257143 0
0.703571 0.257143 0
0.721429 0.257143 0
0.739286 0.257143 0
0.757143 0.257143 0
0.775000 0.257143 0
0.792857 0.257143 0
0.810714 0.257143 0
0.828571 0.257143 0
0.846429 0.257143 0
0.864286 0.257143 0
0.150000 0.275000 0
0.167857 0.275000 0
0.185714 0.275000 0
0.203571 0.275000 0
0.221429 0.275000 0
0.239286 0.275000 0
0.257143 0.275000 0
0.275000 0.275000 0
0.292857 0.275000 0
0.310714 0.275000 0
0.328571 0.275000 0
0.346429 0.275000 0
0.364286 0.275000 0
0.382143 0.275000 0
0.400000 0.275000 0
0.417857 0.275000 0
0.435714 0.275000 0
0.453571 0.275000 0
0.471429 0.275000 0
0.489286 0.275000 0
0.507143 0.275000 0
0.525000 0.275000 0
0.542857 0.275000 0
0.560714 0.275000 0
0.578571 0.275000 0
0.596429 0.275000 0
0.614286 0.275000 0
0.632143 0.275000 0
0.650000 0.275000 0
0.667857 0.275000 0
0.685714 0.275000 0
0.703571 0.275000 0
0.721429 0.275000 0
0.739286 0.275000 0
0.757143 0.275000 0
0.775000 0.275000 0
0.792857 0.275000 0
0.810714 0.275000 0
0.828571 0.275000 0
0.846429 0.275000 0
0.864286 0.275000 0
0.150000 0.292857 0
0.167857 0.292857 0
0.185714 0.292857 0
0.203571 0.292857 0
0.221429 0.292857 0
0.239286 0.292857 0
0.257143 0.292857 0
0.275000 0.292857 0
0.292857 0.292857 0
0.310714 0.292857 0
0.328571 0.292857 0
0.346429 0.292857 0
0.364286 0.292857 0
0.382143 0.292857 0
0.400000 0.292857 0
0.417857 0.292857 0
0.435714 0.292857 0
0.453571 0.292857 0
0.471429 0.292857 0
0.489286 0.292857 0
0.507143 0.292857 0
0.525000 0.292857 0
0.542857 0.292857 0
0.560714 0.292857 0
0.578571 0.292857 0
0.596429 0.292857 0
0.614286 0.292857 0
0.632143 0.292857 0
0.650000 0.292857 0
0.667857 0.292857 0
0.685714 0.292857 0
0.703571 0.292857 0
0.721429 0.292857 0
0.739286 0.292857 0
0.757143 0.292857 0
0.775000 0.292857 0
0.792857 0.292857 0
0.810714 0.292857 0
0.828571 0.292857 0
0.846429 0.292857 0
0.864286 0.292857 0
0.150000 0.310714 0
0.167857 0.310714 0
0.185714 0.310714 0
0.203571 0.310714 0
0.221429 0.310714 0
0.239286 0.310714 0
0.257143 0.310714 0
0.275000 0.310714 0
0.292857 0.310714 0
0.310714 0.310714 0
0.328571 0.310714 0
0.346429 0.310714 0
0.364286 0.310714 0
0.382143 0.310714 0
0.400000 0.310714 0
0.417857 0.310714 0
0.435714 0.310714 0
0.453571 0.310714 0
0.471429 0.310714 0
0.489286 0.310714 0
0.507143 0.310714 0
0.525000 0.310714 0
0.542857 0.310714 0
0.560714 0.310714 0
0.578571 0.310714 0
0.596429 0.310714 0
0.614286 0.310714 0
0.632143 0.310714 0
0.650000 0.310714 0
0.667857 0.310714 0
0.685714 0.310714 0
0.703571 0.310714 0
0.721429 0.310714 0
0.739286 0.310714 0
0.757143 0.310714 0
0.775000 0.310714 0
0.792857 0.310714 0
0.810714 0.310714 0
0.828571 0.310714 0
0.846429 0.310714 0
0.864286 0.310714 0
0.150000 0.328571 0
0.167857 0.328571 0
0.185714 0.328571 0
0.203571 0.328571 0
0.221429 0.328571 0
0.239286 0.328571 0
0.257143 0.328571 0
0.275000 0.328571 0
0.292857 0.328571 0
0.310714 0.328571 0
0.328571 0.328571 0
0.346429 0.328571 0
0.364286 0.328571 0
0.382143 0.328571 0
0.400000 0.328571 0
0.417857 0.328571 0
0.435714 0.328571 0
0.453571 0.328571 0
0.471429 0.328571 0
0.489286 0.328571 0
0.507143 0.328571 0
0.525000 0.328571 0
0.542857 0.328571 0
0.560714 0.328571 0
0.578571 0.328571 0
0.596429 0.328571 0
0.614286 0.328571 0
0.632143 0.328571 0
0.650000 0.328571 0
0.667857 0.328571 0
0.685714 0.328571 0
0.703571 0.328571 0
0.721429 0.328571 0
0.739286 0.328571 0
0.757143 0.328571 0
0.775000 0.328571 0
0.792857 0.328571 0
0.810714 0.328571 0
0.828571 0.328571 0
0.846429 0.328571 0
0.864286 0.328571 0
0.150000 0.346429 0
0.167857 0.346429 0
0.185714 0.346429 0
0.203571 0.346429 0
0.221429 0.346429 0
0.239286 0.346429 0
0.257143 0.346429 0
0.275000 0.346429 0
0.292857 0.346429 0
0.310714 0.346429 0
0.328571 0.346429 0
0.346429 0.346429 0
0.364286 0.346429 0
0.382143 0.346429 0
0.400000 0.346429 0
0.417857 0.346429 0
0.435714 0.346429 0
0.453571 0.346429 0
0.471429 0.346429 0
0.489286 0.346429 0
0.507143 0.346429 0
0.525000 0.346429 0
0.542857 0.346429 0
0.560714 0.346429 0
0.578571 0.346429 0
0.596429 0.346429 0
0.614286 0.346429 0
0.632143 0.346429 0
0.650000 0.346429 0
0.667857 0.346429 0
0.685714 0.346429 0
0.703571 0.346429 0
0.721429 0.346429 0
0.739286 0.346429 0
0.757143 0.346429 0
0.775000 0.346429 0
0.792857 0.346429 0
0.810714 0.346429 0
0.828571 0.346429 0
0.846429 0.346429 0
[...]
POINT_DATA 1681 

VECTORS velocity float
0.000000 0.000000 0
0.006124 0.000000 0
0.012471 0.000000 0
0.014926 0.000000 0
0.014757 0.000000 0
0.014378 0.000000 0
0.012262 0.000000 0
0.016501 0.000000 0
0.022046 0.000000 0
0.012317 0.000000 0
-0.005547 0.000000 0
-0.025741 0.000000 0
-0.046411 0.000000 0
-0.066472 0.000000 0
-0.085181 0.000000 0
-0.102097 0.000000 0
-0.117056 0.000000 0
-0.129915 0.000000 0
-0.140637 0.000000 0
-0.149219 0.000000 0
-0.155677 0.000000 0
-0.160032 0.000000 0
-0.162286 0.000000 0
-0.162460 0.000000 0
-0.160429 0.000000 0
-0.156077 0.000000 0
-0.149341 0.000000 0
-0.140143 0.000000 0
-0.128418 0.000000 0
-0.114120 0.000000 0
-0.097329 0.000000 0
-0.078128 0.000000 0
-0.056784 0.000000 0
-0.033787 0.000000 0
-0.009961 0.000000 0
0.013309 0.000000 0
0.028714 0.000000 0
0.031428 0.000000 0
0.023451 0.000000 0
0.011044 0.000000 0
0.000000 0.000000 0
0.000000 -0.006124 0
0.016187 -0.012471 0
0.029714 -0.008802 0
0.035258 -0.002286 0
0.034725 0.000547 0
0.035036 0.002495 0
0.026958 -0.002122 0
0.008461 -0.009784 0
-0.015847 0.004184 0
-0.047538 0.027593 0
-0.085850 0.038058 0
-0.126393 0.040863 0
-0.166509 0.040731 0
-0.204444 0.038771 0
-0.239091 0.035625 0
-0.269823 0.031875 0
-0.296362 0.027818 0
-0.318584 0.023581 0
-0.336486 0.019304 0
-0.350121 0.015040 0
-0.359563 0.010813 0
-0.364872 0.006609 0
-0.366082 0.002428 0
-0.363179 -0.001857 0
-0.356106 -0.006383 0
-0.344784 -0.011088 0
-0.329084 -0.015934 0
-0.308865 -0.020922 0
-0.283998 -0.026023 0
-0.254405 -0.031089 0
-0.220134 -0.035992 0
-0.181386 -0.040545 0
-0.138681 -0.044341 0
-0.093069 -0.046823 0
-0.046490 -0.047097 0
-0.002416 -0.038675 0
0.033018 -0.018118 0
0.049060 0.005263 0
0.037883 0.020383 0
0.017769 0.023451 0
0.000000 0.011044 0
0.000000 -0.016187 0
0.019197 -0.029714 0
0.030757 -0.019071 0
0.035168 -0.005011 0
0.024681 0.000222 0
0.004062 0.007768 0
-0.024383 0.026575 0
-0.069276 0.042805 0
-0.122334 0.055999 0
-0.165481 0.070003 0
-0.204198 0.078854 0
-0.241003 0.080659 0
-0.275199 0.078052 0
-0.306058 0.072582 0
-0.333197 0.065379 0
-0.356444 0.057271 0
-0.375707 0.048760 0
-0.391070 0.040124 0
-0.402627 0.031538 0
-0.410489 0.023077 0
-0.414747 0.014751 0
-0.415464 0.006520 0
-0.412665 -0.001694 0
-0.406297 -0.009977 0
-0.396420 -0.018395 0
-0.383009 -0.027022 0
-0.365944 -0.035919 0
-0.345096 -0.045086 0
-0.320343 -0.054460 0
-0.291610 -0.063863 0
-0.258845 -0.073018 0
-0.222237 -0.081453 0
-0.182238 -0.088317 0
-0.139807 -0.092192 0
-0.096767 -0.090653 0
-0.056247 -0.079507 0
-0.018207 -0.051476 0
0.011548 -0.004865 0
0.017119 0.031291 0
0.007698 0.037883 0
0.000000 0.017769 0
0.000000 -0.025321 0
0.012258 -0.043228 0
0.012467 -0.024773 0
-0.003332 0.003790 0
-0.029376 0.031653 0
-0.070238 0.051559 0
-0.113767 0.071216 0
-0.156029 0.088168 0
-0.198505 0.100389 0
-0.237090 0.109457 0
-0.270119 0.113580 0
-0.299218 0.111865 0
-0.324834 0.105786 0
-0.347144 0.096768 0
-0.366282 0.086011 0
-0.382357 0.074385 0
-0.395448 0.062444 0
-0.405657 0.050502 0
-0.413063 0.038723 0
-0.417725 0.027160 0
-0.419673 0.015787 0
-0.418907 0.004526 0
-0.415406 -0.006738 0
-0.409133 -0.018102 0
-0.400038 -0.029671 0
-0.388012 -0.041564 0
-0.372952 -0.053847 0
-0.354739 -0.066523 0
-0.333264 -0.079509 0
-0.308444 -0.092587 0
-0.280239 -0.105365 0
-0.248753 -0.117152 0
-0.214277 -0.126771 0
-0.177395 -0.132294 0
-0.139096 -0.130657 0
-0.100763 -0.117235 0
-0.063804 -0.085913 0
-0.028247 -0.030063 0
0.000422 0.024234 0
-0.000890 0.040571 0
0.000000 0.018742 0
0.000000 -0.028445 0
-0.006699 -0.042181 0
-0.027682 -0.003481 0
-0.060387 0.036832 0
-0.093889 0.067127 0
-0.131946 0.092159 0
-0.171591 0.112367 0
-0.209050 0.127542 0
-0.244131 0.137060 0
-0.275345 0.141618 0
-0.301678 0.140983 0
-0.324003 0.135374 0
-0.343018 0.125978 0
-0.359240 0.114030 0
-0.373004 0.100592 0
-0.384507 0.086437 0
-0.393845 0.072060 0
-0.401075 0.057739 0
-0.406214 0.043606 0
-0.409261 0.029686 0
-0.410194 0.015933 0
-0.408979 0.002253 0
-0.405570 -0.011468 0
-0.399957 -0.025345 0
-0.392046 -0.039515 0
-0.381752 -0.054107 0
-0.368980 -0.069192 0
-0.353634 -0.084774 0
-0.335622 -0.100755 0
-0.314868 -0.116888 0
-0.291327 -0.132710 0
-0.265018 -0.147416 0
-0.236029 -0.159675 0
-0.204535 -0.167373 0
-0.170767 -0.167286 0
-0.134920 -0.154799 0
-0.096964 -0.123992 0
-0.056683 -0.069091 0
-0.014223 0.003934 0
-0.004848 0.038305 0
0.000000 0.016879 0
0.000000 -0.018622 0
-0.028523 -0.015546 0
-0.064969 0.028915 0
-0.098800 0.069997 0
-0.134499 0.103212 0
-0.170489 0.129261 0
-0.205532 0.148320 0
-0.237684 0.160707 0
-0.266453 0.166684 0
-0.291267 0.167004 0
-0.311943 0.162238 0
-0.329139 0.153204 0
-0.343520 0.141023 0
-0.355617 0.126755 0
-0.365768 0.111278 0
-0.374162 0.095226 0
-0.380886 0.079012 0
-0.385980 0.062871 0
-0.389451 0.046909 0
-0.391295 0.031139 0
-0.391496 0.015506 0
-0.390027 -0.000098 0
-0.386859 -0.015760 0
-0.381962 -0.031626 0
-0.375257 -0.047876 0
-0.366666 -0.064629 0
-0.356107 -0.081965 0
-0.343497 -0.099882 0
-0.328757 -0.118275 0
-0.311820 -0.136882 0
-0.292629 -0.155216 0
-0.271129 -0.172450 0
-0.247250 -0.187253 0
-0.220845 -0.197557 0
-0.191616 -0.200272 0
-0.159013 -0.191038 0
-0.122197 -0.164150 0
-0.080343 -0.112804 0
-0.034170 -0.027601 0
0.002899 0.026347 0
0.000000 0.013894 0
0.000000 0.000078 0
-0.041093 0.022787 0
-0.082055 0.066796 0
-0.119939 0.106362 0
-0.156174 0.138817 0
-0.190114 0.163192 0
-0.221222 0.179562 0
-0.248723 0.188464 0
-0.272438 0.190643 0
-0.292346 0.187107 0
-0.308714 0.178854 0
-0.322135 0.166951 0
-0.333178 0.152456 0
-0.342289 0.136277 0
-0.349765 0.119137 0
-0.355784 0.101556 0
-0.360449 0.083878 0
-0.363821 0.066304 0
-0.365936 0.048922 0
-0.366814 0.031730 0
-0.366458 0.014665 0
-0.364863 -0.002384 0
-0.362012 -0.019533 0
-0.357841 -0.036947 0
-0.352292 -0.054811 0
-0.345287 -0.073257 0
-0.336747 -0.092362 0
-0.326593 -0.112125 0
-0.314754 -0.132431 0
-0.301163 -0.153017 0
-0.285753 -0.173401 0
-0.268432 -0.192794 0
-0.249035 -0.209960 0
-0.227241 -0.223006 0
-0.202461 -0.229117 0
-0.173734 -0.224218 0
-0.139735 -0.202662 0
-0.099106 -0.157119 0
-0.051141 -0.079308 0
0.005938 0.004136 0
0.000000 0.019778 0
0.000000 0.022472 0
-0.045163 0.066509 0
-0.088743 0.107762 0
-0.128282 0.144116 0
-0.164034 0.173386 0
-0.195865 0.194310 0
-0.223699 0.206928 0
-0.247441 0.211923 0
-0.267281 0.210307 0
-0.283540 0.203280 0
-0.296687 0.192027 0
-0.307271 0.177668 0
-0.315772 0.161177 0
-0.322568 0.143342 0
-0.327926 0.124773 0
-0.332035 0.105910 0
-0.335027 0.087049 0
-0.337001 0.068358 0
-0.338025 0.049902 0
-0.338148 0.031662 0
-0.337395 0.013555 0
-0.335770 -0.004544 0
-0.333260 -0.022782 0
-0.329803 -0.041346 0
-0.325333 -0.060430 0
-0.319767 -0.080175 0
-0.313020 -0.100659 0
-0.305007 -0.121875 0
-0.295650 -0.143705 0
-0.284876 -0.165882 0
-0.272611 -0.187946 0
-0.258746 -0.209168 0
-0.243091 -0.228445 0
-0.225277 -0.244131 0
-0.204635 -0.253779 0
-0.180055 -0.253764 0
-0.149942 -0.238778 0
-0.112489 -0.201398 0
-0.066692 -0.132645 0
-0.014960 -0.024793 0
0.000000 0.019831 0
0.000000 0.045241 0
-0.044749 0.111530 0
-0.088839 0.149915 0
-0.128049 0.181653 0
-0.162436 0.206399 0
-0.192047 0.222856 0
-0.217078 0.231138 0
-0.237808 0.232046 0
-0.254676 0.226742 0
-0.268185 0.216514 0
-0.278873 0.202585 0
-0.287246 0.186036 0
-0.293727 0.167752 0
-0.298654 0.148431 0
-0.302289 0.128604 0
-0.304839 0.108657 0
-0.306468 0.088844 0
-0.307308 0.069302 0
-0.307461 0.050069 0
-0.307000 0.031100 0
-0.305972 0.012288 0
-0.304392 -0.006519 0
-0.302249 -0.025500 0
-0.299480 -0.044874 0
-0.296009 -0.064847 0
-0.291742 -0.085569 0
-0.286578 -0.107122 0
-0.280416 -0.129495 0
-0.273161 -0.152562 0
-0.264726 -0.176056 0
-0.255023 -0.199531 0
-0.243939 -0.222314 0
-0.231293 -0.243429 0
-0.216754 -0.261462 0
-0.199725 -0.274339 0
-0.179192 -0.278912 0
-0.153633 -0.270227 0
-0.121228 -0.240370 0
-0.080991 -0.176838 0
-0.036230 -0.062556 0
0.000000 0.004818 0
0.000000 0.067221 0
-0.042456 0.155348 0
-0.084921 0.191062 0
-0.122384 0.217713 0
-0.154708 0.237384 0
-0.181971 0.248951 0
-0.204492 0.252689 0
-0.222730 0.249521 0
-0.237241 0.240684 0
-0.248598 0.227477 0
-0.257340 0.211089 0
-0.263934 0.192523 0
-0.268767 0.172585 0
-0.272160 0.151904 0
-0.274379 0.130958 0
-0.275650 0.110089 0
-0.276162 0.089518 0
-0.276079 0.069350 0
-0.275530 0.049594 0
-0.274616 0.030173 0
-0.273403 0.010947 0
-0.271918 -0.008268 0
-0.270151 -0.027694 0
-0.268036 -0.047585 0
-0.265485 -0.068168 0
-0.262387 -0.089605 0
-0.258620 -0.111985 0
-0.254061 -0.135292 0
-0.248592 -0.159395 0
-0.242106 -0.184021 0
-0.234495 -0.208733 0
-0.225639 -0.232899 0
-0.215372 -0.255630 0
-0.203422 -0.275699 0
-0.189315 -0.291342 0
-0.172225 -0.299856 0
-0.150810 -0.296741 0
-0.123174 -0.274041 0
-0.087423 -0.217643 0
-0.043667 -0.105784 0
0.000000 -0.016399 0
0.000000 0.087697 0
-0.039016 0.196452 0
-0.078616 0.229843 0
-0.113439 0.251440 0
-0.143222 0.265986 0
-0.168030 0.272641 0
-0.188217 0.271897 0
-0.204294 0.264795 0
-0.216845 0.252610 0
-0.226439 0.236612 0
-0.233584 0.217921 0
-0.238711 0.197464 0
-0.242182 0.175979 0
-0.244307 0.154043 0
-0.245358 0.132093 0
-0.245573 0.110440 0
-0.245167 0.089273 0
-0.244325 0.068669 0
-0.243207 0.048607 0
-0.241938 0.028974 0
-0.240603 0.009589 0
-0.239241 -0.009771 0
-0.237844 -0.029383 0
-0.236338 -0.049540 0
-0.234623 -0.070496 0
-0.232566 -0.092434 0
-0.230023 -0.115448 0
-0.226848 -0.139523 0
-0.222899 -0.164517 0
-0.218046 -0.190153 0
-0.212164 -0.215998 0
-0.205120 -0.241437 0
-0.196755 -0.265645 0
-0.186842 -0.287519 0
-0.175014 -0.305536 0
-0.160633 -0.317417 0
-0.142554 -0.319279 0
-0.118857 -0.303757 0
-0.086882 -0.256345 0
-0.044824 -0.149978 0
0.000000 -0.038849 0
0.000000 0.106236 0
-0.034899 0.233964 0
-0.070963 0.265486 0
-0.102640 0.282319 0
-0.129601 0.291975 0
-0.151891 0.293946 0
-0.169850 0.288953 0
-0.183975 0.278149 0
-0.194820 0.262829 0
-0.202910 0.244216 0
-0.208708 0.223360 0
-0.212607 0.201121 0
-0.214946 0.178181 0
-0.216025 0.155079 0
-0.216116 0.132224 0
-0.215466 0.109898 0
-0.214305 0.088269 0
-0.212842 0.067390 0
-0.211262 0.047207 0
-0.209714 0.027569 0
-0.208303 0.008251 0
-0.207079 -0.011026 0
-0.206031 -0.030597 0
-0.205080 -0.050807 0
-0.204106 -0.071940 0
-0.202958 -0.094205 0
-0.201468 -0.117703 0
-0.199469 -0.142416 0
-0.196799 -0.168196 0
-0.193310 -0.194756 0
-0.188863 -0.221660 0
-0.183317 -0.248307 0
-0.176511 -0.273908 0
-0.168243 -0.297439 0
-0.158222 -0.317551 0
-0.145961 -0.332317 0
-0.130552 -0.338517 0
-0.110259 -0.329713 0
-0.082199 -0.291676 0
-0.043552 -0.192666 0
0.000000 -0.061222 0
0.000000 0.122596 0
-0.030427 0.267415 0
-0.062625 0.297585 0
-0.090909 0.310078 0
-0.114915 0.315236 0
-0.134670 0.312889 0
-0.150481 0.303981 0
-0.162795 0.289765 0
-0.172105 0.271545 0
-0.178876 0.250500 0
-0.183518 0.227618 0
-0.186386 0.203702 0
-0.187791 0.179398 0
-0.188020 0.155213 0
-0.187337 0.131534 0
-0.185992 0.108629 0
-0.184227 0.086649 0
-0.182267 0.065626 0
-0.180320 0.045478 0
-0.178558 0.026014 0
-0.177105 0.006954 0
-0.176021 -0.012043 0
-0.175291 -0.031382 0
-0.174827 -0.051465 0
-0.174490 -0.072618 0
-0.174109 -0.095072 0
-0.173496 -0.118937 0
-0.172465 -0.144192 0
-0.170844 -0.170676 0
-0.168475 -0.198089 0
-0.165213 -0.225991 0
-0.160913 -0.253789 0
-0.155417 -0.280719 0
-0.148535 -0.305808 0
-0.140021 -0.327818 0
-0.129504 -0.345086 0
-0.116304 -0.354981 0
-0.099008 -0.352109 0
-0.074891 -0.323052 0
-0.040521 -0.232178 0
0.000000 -0.082401 0
0.000000 0.136664 0
-0.025809 0.296589 0
-0.054015 0.325967 0
-0.078825 0.334609 0
-0.099844 0.335737 0
-0.117091 0.329512 0
-0.130826 0.317077 0
-0.141435 0.299773 0
-0.149340 0.278910 0
-0.154939 0.255629 0
-0.158586 0.230870 0
-0.160595 0.205394 0
-0.161248 0.179815 0
-0.160809 0.154625 0
-0.159529 0.130196 0
-0.157656 0.106789 0
-0.155433 0.084545 0
-0.153099 0.063483 0
-0.150878 0.043497 0
-0.148964 0.024354 0
-0.147499 0.005714 0
-0.146549 -0.012840 0
-0.146097 -0.031792 0
-0.146038 -0.051608 0
-0.146219 -0.072658 0
-0.146449 -0.095199 0
-0.146526 -0.119347 0
-0.146253 -0.145068 0
-0.145455 -0.172186 0
-0.143974 -0.200387 0
-0.141671 -0.229222 0
-0.138405 -0.258104 0
-0.134026 -0.286287 0
-0.128359 -0.312835 0
-0.121188 -0.336582 0
-0.112220 -0.356034 0
-0.100972 -0.369012 0
-0.086394 -0.371125 0
-0.066143 -0.350164 0
-0.036498 -0.267557 0
0.000000 -0.101743 0
0.000000 0.148405 0
-0.021165 0.321430 0
-0.045377 0.350600 0
-0.066730 0.355906 0
-0.084798 0.353503 0
-0.099593 0.343871 0
-0.111329 0.328326 0
-0.120328 0.308280 0
-0.126938 0.285049 0
-0.131492 0.259746 0
-0.134290 0.233274 0
-0.135600 0.206364 0
-0.135672 0.179611 0
-0.134743 0.153494 0
-0.133044 0.128381 0
-0.130812 0.104533 0
-0.128284 0.082092 0
-0.125705 0.061072 0
-0.123310 0.041343 0
-0.121309 0.022635 0
-0.119860 0.004539 0
-0.119036 -0.013445 0
-0.118809 -0.031893 0
-0.119064 -0.051342 0
-0.119627 -0.072207 0
-0.120296 -0.094765 0
-0.120861 -0.119134 0
-0.121128 -0.145263 0
-0.120928 -0.172954 0
-0.120115 -0.201872 0
-0.118561 -0.231560 0
-0.116142 -0.261434 0
-0.112724 -0.290765 0
-0.108152 -0.318647 0
-0.102236 -0.343957 0
-0.094742 -0.365302 0
-0.085333 -0.380807 0
-0.073293 -0.386938 0
-0.056757 -0.372948 0
-0.031972 -0.298321 0
0.000000 -0.118898 0
0.000000 0.157829 0
-0.016554 0.341966 0
-0.036835 0.371532 0
-0.054805 0.374029 0
-0.069997 0.368600 0
-0.082417 0.356043 0
-0.092237 0.337812 0
-0.099714 0.315382 0
-0.105132 0.290075 0
-0.108759 0.262981 0
-0.110842 0.234978 0
-0.111607 0.206776 0
-0.111266 0.178958 0
-0.110025 0.151997 0
-0.108089 0.126265 0
-0.105674 0.102028 0
-0.103007 0.079438 0
-0.100324 0.058509 0
-0.097865 0.039102 0
-0.095850 0.020904 0
-0.094447 0.003440 0
-0.093736 -0.013891 0
-0.093676 -0.031764 0
-0.094134 -0.050790 0
-0.094925 -0.071426 0
-0.095842 -0.093965 0
-0.096683 -0.118514 0
-0.097265 -0.145001 0
-0.097439 -0.173200 0
-0.097080 -0.202754 0
-0.096083 -0.233195 0
-0.094345 -0.263940 0
-0.091757 -0.294277 0
-0.088187 -0.323324 0
-0.083479 -0.349991 0
-0.077446 -0.372936 0
-0.069853 -0.390462 0
-0.060245 -0.399702 0
-0.047248 -0.391484 0
-0.027271 -0.324313 0
0.000000 -0.133716 0
0.000000 0.164959 0
-0.011997 0.358264 0
-0.028435 0.388852 0
-0.043124 0.389069 0
-0.055532 0.381114 0
-0.065663 0.366111 0
-0.073651 0.345623 0
-0.079694 0.321175 0
-0.084015 0.294094 0
-0.086825 0.265456 0
-0.088321 0.236122 0
-0.088686 0.206788 0
-0.088094 0.178029 0
-0.086717 0.150317 0
-0.084730 0.124031 0
-0.082320 0.099451 0
-0.079691 0.076742 0
-0.077063 0.055930 0
-0.074665 0.036869 0
-0.072719 0.019217 0
-0.071397 0.002426 0
-0.070781 -0.014216 0
-0.070814 -0.031495 0
-0.071348 -0.050093 0
-0.072192 -0.070498 0
-0.073150 -0.093008 0
-0.074039 -0.117711 0
-0.074710 -0.144507 0
-0.075042 -0.173139 0
-0.074940 -0.203228 0
-0.074326 -0.234295 0
-0.073124 -0.265760 0
-0.071253 -0.296923 0
-0.068614 -0.326924 0
-0.065085 -0.354699 0
-0.060521 -0.378929 0
-0.054762 -0.398008 0
-0.047539 -0.409543 0
-0.037909 -0.405923 0
-0.022586 -0.345569 0
0.000000 -0.146169 0
0.000000 0.169826 0
-0.007492 0.370401 0
-0.020172 0.402659 0
-0.031682 0.401126 0
-0.041401 0.391139 0
-0.049331 0.374162 0
-0.055567 0.351843 0
-0.060259 0.325746 0
-0.063571 0.297205 0
-0.065664 0.267287 0
-0.066689 0.236839 0
-0.066787 0.206549 0
-0.066096 0.176989 0
-0.064752 0.148633 0
-0.062895 0.121868 0
-0.060682 0.096989 0
-0.058281 0.074181 0
-0.055884 0.053484 0
-0.053692 0.034758 0
-0.051908 0.017635 0
-0.050702 0.001503 0
-0.050152 -0.014474 0
-0.050186 -0.031197 0
-0.050646 -0.049412 0
-0.051350 -0.069624 0
-0.052129 -0.092117 0
-0.052844 -0.116953 0
-0.053387 -0.143999 0
-0.053678 -0.172970 0
-0.053657 -0.203470 0
-0.053276 -0.235011 0
-0.052490 -0.267012 0
-0.051246 -0.298786 0
-0.049481 -0.329493 0
-0.047109 -0.358084 0
-0.044031 -0.383258 0
-0.040139 -0.403444 0
-0.035287 -0.416556 0
-0.028875 -0.416438 0
-0.018015 -0.362222 0
0.000000 -0.156302 0
0.000000 0.172451 0
-0.003046 0.378437 0
-0.012005 0.413041 0
-0.020424 0.410298 0
-0.027542 0.398764 0
-0.033348 0.380277 0
-0.037907 0.356551 0
-0.041319 0.329179 0
-0.043700 0.299499 0
-0.045162 0.268574 0
-0.045814 0.237245 0
-0.045760 0.206195 0
-0.045101 0.175993 0
-0.043939 0.147116 0
-0.042380 0.119961 0
-0.040543 0.094837 0
-0.038560 0.071944 0
-0.036576 0.051341 0
-0.034746 0.032893 0
-0.033229 0.016227 0
-0.032172 0.000670 0
-0.031649 -0.014732 0
-0.031572 -0.031000 0
-0.031786 -0.048930 0
-0.032146 -0.069015 0
-0.032536 -0.091513 0
-0.032871 -0.116453 0
-0.033098 -0.143674 0
-0.033181 -0.172869 0
-0.033098 -0.203630 0
-0.032833 -0.235462 0
-0.032370 -0.267790 0
-0.031687 -0.299932 0
-0.030755 -0.331061 0
-0.029528 -0.360149 0
-0.027950 -0.385899 0
-0.025960 -0.406752 0
-0.023483 -0.420807 0
-0.020176 -0.423195 0
-0.013589 -0.374444 0
0.000000 -0.164184 0
0.000000 0.172871 0
0.001276 0.382406 0
-0.003847 0.420037 0
-0.009251 0.416663 0
-0.013851 0.404064 0
-0.017600 0.384527 0
-0.020541 0.359814 0
-0.022732 0.331539 0
-0.024242 0.301048 0
-0.025139 0.269401 0
-0.025493 0.237437 0
-0.025372 0.205836 0
-0.024845 0.175167 0
-0.023980 0.145912 0
-0.022850 0.118473 0
-0.021537 0.093169 0
-0.020129 0.070213 0
-0.018720 0.049670 0
-0.017406 0.031411 0
-0.016267 0.015062 0
-0.015387 -0.000078 0
-0.014844 -0.015074 0
-0.014519 -0.031059 0
-0.014311 -0.048838 0
-0.014142 -0.068875 0
-0.013966 -0.091392 0
-0.013765 -0.116391 0
-0.013539 -0.143689 0
-0.013299 -0.172970 0
-0.013058 -0.203818 0
-0.012831 -0.235739 0
-0.012631 -0.268159 0
-0.012468 -0.300401 0
-0.012346 -0.331651 0
-0.012261 -0.360889 0
-0.012197 -0.386827 0
-0.012137 -0.407911 0
-0.012054 -0.422340 0
-0.011772 -0.426331 0
-0.009301 -0.382398 0
0.000000 -0.169891 0
0.000000 0.171175 0
0.005494 0.382283 0
0.004349 0.423568 0
0.001938 0.420303 0
-0.000190 0.407112 0
-0.001932 0.386967 0
-0.003301 0.361684 0
-0.004315 0.332880 0
-0.004995 0.301905 0
-0.005368 0.269825 0
-0.005468 0.237479 0
-0.005329 0.205547 0
-0.004989 0.174600 0
-0.004486 0.145121 0
-0.003861 0.117518 0
-0.003157 0.092115 0
-0.002419 0.069127 0
-0.001688 0.048618 0
-0.000991 0.030440 0
-0.000320 0.014208 0
0.000333 -0.000753 0
0.000987 -0.015600 0
0.001696 -0.031534 0
0.002462 -0.049307 0
0.003277 -0.069360 0
0.004113 -0.091890 0
0.004927 -0.116880 0
0.005667 -0.144140 0
0.006282 -0.173351 0
0.006722 -0.204098 0
0.006944 -0.235890 0
0.006903 -0.268153 0
0.006558 -0.300216 0
0.005872 -0.331269 0
0.004811 -0.360298 0
0.003345 -0.386022 0
0.001453 -0.406895 0
-0.000881 -0.421173 0
-0.003578 -0.425948 0
-0.005107 -0.386215 0
0.000000 -0.173485 0
0.000000 0.167378 0
0.009727 0.378056 0
0.012632 0.423593 0
0.013243 0.421203 0
0.013569 0.407933 0
0.013804 0.387638 0
0.013979 0.362197 0
0.014121 0.333233 0
0.014255 0.302101 0
0.014392 0.269874 0
0.014537 0.237398 0
0.014687 0.205358 0
0.014834 0.174324 0
0.014969 0.144783 0
0.015082 0.117143 0
0.015170 0.091727 0
0.015233 0.068745 0
0.015293 0.048241 0
0.015398 0.030043 0
0.015627 0.013738 0
0.016086 -0.001385 0
0.016902 -0.016437 0
0.018020 -0.032535 0
0.019353 -0.050419 0
0.020810 -0.070526 0
0.022295 -0.093042 0
0.023706 -0.117945 0
0.024944 -0.145044 0
0.025918 -0.174025 0
0.026545 -0.204480 0
0.026747 -0.235919 0
0.026450 -0.267773 0
0.025581 -0.299371 0
0.024066 -0.329904 0
0.021832 -0.358361 0
0.018807 -0.383469 0
0.014931 -0.403685 0
0.010158 -0.417309 0
0.004515 -0.422105 0
-0.000935 -0.385976 0
0.000000 -0.174998 0
0.000000 0.161448 0
0.014049 0.369651 0
0.021112 0.420053 0
0.024788 0.419365 0
0.027540 0.406551 0
0.029728 0.386557 0
0.031435 0.361366 0
0.032731 0.332604 0
0.033684 0.301635 0
0.034349 0.269543 0
0.034767 0.237184 0
0.034965 0.205251 0
0.034966 0.174319 0
0.034789 0.144873 0
0.034460 0.117317 0
0.034013 0.091964 0
0.033503 0.069003 0
0.033014 0.048453 0
0.032663 0.030107 0
0.032594 0.013520 0
0.032969 -0.002027 0
0.033910 -0.017533 0
0.035347 -0.033985 0
0.037140 -0.052097 0
0.039132 -0.072302 0
0.041163 -0.094786 0
0.043077 -0.119529 0
0.044730 -0.146353 0
0.045990 -0.174952 0
0.046739 -0.204927 0
0.046865 -0.235794 0
0.046261 -0.266986 0
0.044819 -0.297832 0
0.042429 -0.327519 0
0.038975 -0.355039 0
0.034344 -0.379121 0