# vtk DataFile Version 2.0
generated by CFD-lab course output (written by Tobias Neckel) 
ASCII

DATASET STRUCTURED_GRID
DIMENSIONS  41 41 1 
POINTS 1681 float

0.150000 0.150000 0
0.167857 0.150000 0
0.185714 0.150000 0
0.203571 0.150000 0
0.221429 0.150000 0
0.239286 0.150000 0
0.257143 0.150000 0
0.275000 0.150000 0
0.292857 0.150000 0
0.310714 0.150000 0
0.328571 0.150000 0
0.346429 0.150000 0
0.364286 0.150000 0
0.382143 0.150000 0
0.400000 0.150000 0
0.417857 0.150000 0
0.435714 0.150000 0
0.453571 0.150000 0
0.471429 0.150000 0
0.489286 0.150000 0
0.507143 0.150000 0
0.525000 0.150000 0
0.542857 0.150000 0
0.560714 0.150000 0
0.578571 0.150000 0
0.596429 0.150000 0
0.614286 0.150000 0
0.632143 0.150000 0
0.650000 0.150000 0
0.667857 0.150000 0
0.685714 0.150000 0
0.703571 0.150000 0
0.721429 0.150000 0
0.739286 0.150000 0
0.757143 0.150000 0
0.775000 0.150000 0
0.792857 0.150000 0
0.810714 0.150000 0
0.828571 0.150000 0
0.846429 0.150000 0
0.864286 0.150000 0
0.150000 0.167857 0
0.167857 0.167857 0
0.185714 0.167857 0
0.203571 0.167857 0
0.221429 0.167857 0
0.239286 0.167857 0
0.257143 0.167857 0
0.275000 0.167857 0
0.292857 0.167857 0
0.310714 0.167857 0
0.328571 0.167857 0
0.346429 0.167857 0
0.364286 0.167857 0
0.382143 0.167857 0
0.400000 0.167857 0
0.417857 0.167857 0
0.435714 0.167857 0
0.453571 0.167857 0
0.471429 0.167857 0
0.489286 0.167857 0
0.507143 0.167857 0
0.525000 0.167857 0
0.542857 0.167857 0
0.560714 0.167857 0
0.578571 0.167857 0
0.596429 0.167857 0
0.614286 0.167857 0
0.632143 0.167857 0
0.650000 0.167857 0
0.667857 0.167857 0
0.685714 0.167857 0
0.703571 0.167857 0
0.721429 0.167857 0
0.739286 0.167857 0
0.757143 0.167857 0
0.775000 0.167857 0
0.792857 0.167857 0
0.810714 0.167857 0
0.828571 0.167857 0
0.846429 0.167857 0
0.864286 0.167857 0
0.150000 0.185714 0
0.167857 0.185714 0
0.185714 0.185714 0
0.203571 0.185714 0
0.221429 0.185714 0
0.239286 0.185714 0
0.257143 0.185714 0
0.275000 0.185714 0
0.292857 0.185714 0
0.310714 0.185714 0
0.328571 0.185714 0
0.346429 0.185714 0
0.364286 0.185714 0
0.382143 0.185714 0
0.400000 0.185714 0
0.417857 0.185714 0
0.435714 0.185714 0
0.453571 0.185714 0
0.471429 0.185714 0
0.489286 0.185714 0
0.507143 0.185714 0
0.525000 0.185714 0
0.542857 0.185714 0
0.560714 0.185714 0
0.578571 0.185714 0
0.596429 0.185714 0
0.614286 0.185714 0
0.632143 0.185714 0
0.650000 0.185714 0
0.667857 0.185714 0
0.685714 0.185714 0
0.703571 0.185714 0
0.721429 0.185714 0
0.739286 0.185714 0
0.757143 0.185714 0
0.775000 0.185714 0
0.792857 0.185714 0
0.810714 0.185714 0
0.828571 0.185714 0
0.846429 0.185714 0
0.864286 0.185714 0
0.150000 0.203571 0
0.167857 0.203571 0
0.185714 0.203571 0
0.203571 0.203571 0
0.221429 0.203571 0
0.239286 0.203571 0
0.257143 0.203571 0
0.275000 0.203571 0
0.292857 0.203571 0
0.310714 0.203571 0
0.328571 0.203571 0
0.346429 0.203571 0
0.364286 0.203571 0
0.382143 0.203571 0
0.400000 0.203571 0
0.417857 0.203571 0
0.435714 0.203571 0
0.453571 0.203571 0
0.471429 0.203571 0
0.489286 0.203571 0
0.507143 0.203571 0
0.525000 0.203571 0
0.542857 0.203571 0
0.560714 0.203571 0
0.578571 0.203571 0
0.596429 0.203571 0
0.614286 0.203571 0
0.632143 0.203571 0
0.650000 0.203571 0
0.667857 0.203571 0
0.685714 0.203571 0
0.703571 0.203571 0
0.721429 0.203571 0
0.739286 0.203571 0
0.757143 0.203571 0
0.775000 0.203571 0
0.792857 0.203571 0
0.810714 0.203571 0
0.828571 0.203571 0
0.846429 0.203571 0
0.864286 0.203571 0
0.150000 0.221429 0
0.167857 0.221429 0
0.185714 0.221429 0
0.203571 0.221429 0
0.221429 0.221429 0
0.239286 0.221429 0
0.257143 0.221429 0
0.275000 0.221429 0
0.292857 0.221429 0
0.310714 0.221429 0
0.328571 0.221429 0
0.346429 0.221429 0
0.364286 0.221429 0
0.382143 0.221429 0
0.400000 0.221429 0
0.417857 0.221429 0
0.435714 0.221429 0
0.453571 0.221429 0
0.471429 0.221429 0
0.489286 0.221429 0
0.507143 0.221429 0
0.525000 0.221429 0
0.542857 0.221429 0
0.560714 0.221429 0
0.578571 0.221429 0
0.596429 0.221429 0
0.614286 0.221429 0
0.632143 0.221429 0
0.650000 0.221429 0
0.667857 0.221429 0
0.685714 0.221429 0
0.703571 0.221429 0
0.721429 0.221429 0
0.739286 0.221429 0
0.757143 0.221429 0
0.775000 0.221429 0
0.792857 0.221429 0
0.810714 0.221429 0
0.828571 0.221429 0
0.846429 0.221429 0
0.864286 0.221429 0
0.150000 0.239286 0
0.167857 0.239286 0
0.185714 0.239286 0
0.203571 0.239286 0
0.221429 0.239286 0
0.239286 0.239286 0
0.257143 0.239286 0
0.275000 0.239286 0
0.292857 0.239286 0
0.310714 0.239286 0
0.328571 0.239286 0
0.346429 0.239286 0
0.364286 0.239286 0
0.382143 0.239286 0
0.400000 0.239286 0
0.417857 0.239286 0
0.435714 0.239286 0
0.453571 0.239286 0
0.471429 0.239286 0
0.489286 0.239286 0
0.507143 0.239286 0
0.525000 0.239286 0
0.542857 0.239286 0
0.560714 0.239286 0
0.578571 0.239286 0
0.596429 0.239286 0
0.614286 0.239286 0
0.632143 0.239286 0
0.650000 0.239286 0
0.667857 0.239286 0
0.685714 0.239286 0
0.703571 0.239286 0
0.721429 0.239286 0
0.739286 0.239286 0
0.757143 0.239286 0
0.775000 0.239286 0
0.792857 0.239286 0
0.810714 0.239286 0
0.828571 0.239286 0
0.846429 0.239286 0
0.864286 0.239286 0
0.150000 0.257143 0
0.167857 0.257143 0
0.185714 0.257143 0
0.203571 0.257143 0
0.221429 0.257143 0
0.239286 0.257143 0
0.257143 0.257143 0
0.275000 0.257143 0
0.292857 0.257143 0
0.310714 0.257143 0
0.328571 0.257143 0
0.346429 0.257143 0
0.364286 0.257143 0
0.382143 0.257143 0
0.400000 0.257143 0
0.417857 0.257143 0
0.435714 0.257143 0
0.453571 0.257143 0
0.471429 0.257143 0
0.489286 0.257143 0
0.507143 0.257143 0
0.525000 0.257143 0
0.542857 0.257143 0
0.560714 0.257143 0
0.578571 0.257143 0
0.596429 0.257143 0
0.614286 0.257143 0
0.632143 0.257143 0
0.650000 0.257143 0
0.667857 0.257143 0
0.685714 0.257143 0
0.703571 0.257143 0
0.721429 0.257143 0
0.739286 0.257143 0
0.757143 0.257143 0
0.775000 0.257143 0
0.792857 0.257143 0
0.810714 0.257143 0
0.828571 0.257143 0
0.846429 0.257143 0
0.864286 0.257143 0
0.150000 0.275000 0
0.167857 0.275000 0
0.185714 0.275000 0
0.203571 0.275000 0
0.221429 0.275000 0
0.239286 0.275000 0
0.257143 0.275000 0
0.275000 0.275000 0
0.292857 0.275000 0
0.310714 0.275000 0
0.328571 0.275000 0
0.346429 0.275000 0
0.364286 0.275000 0
0.382143 0.275000 0
0.400000 0.275000 0
0.417857 0.275000 0
0.435714 0.275000 0
0.453571 0.275000 0
0.471429 0.275000 0
0.489286 0.275000 0
0.507143 0.275000 0
0.525000 0.275000 0
0.542857 0.275000 0
0.560714 0.275000 0
0.578571 0.275000 0
0.596429 0.275000 0
0.614286 0.275000 0
0.632143 0.275000 0
0.650000 0.275000 0
0.667857 0.275000 0
0.685714 0.275000 0
0.703571 0.275000 0
0.721429 0.275000 0
0.739286 0.275000 0
0.757143 0.275000 0
0.775000 0.275000 0
0.792857 0.275000 0
0.810714 0.275000 0
0.828571 0.275000 0
0.846429 0.275000 0
0.864286 0.275000 0
0.150000 0.292857 0
0.167857 0.292857 0
0.185714 0.292857 0
0.203571 0.292857 0
0.221429 0.292857 0
0.239286 0.292857 0
0.257143 0.292857 0
0.275000 0.292857 0
0.292857 0.292857 0
0.310714 0.292857 0
0.328571 0.292857 0
0.346429 0.292857 0
0.364286 0.292857 0
0.382143 0.292857 0
0.400000 0.292857 0
0.417857 0.292857 0
0.435714 0.292857 0
0.453571 0.292857 0
0.471429 0.292857 0
0.489286 0.292857 0
0.507143 0.292857 0
0.525000 0.292857 0
0.542857 0.292857 0
0.560714 0.292857 0
0.578571 0.292857 0
0.596429 0.292857 0
0.614286 0.292857 0
0.632143 0.292857 0
0.650000 0.292857 0
0.667857 0.292857 0
0.685714 0.292857 0
0.703571 0.292857 0
0.721429 0.292857 0
0.739286 0.292857 0
0.757143 0.292857 0
0.775000 0.292857 0
0.792857 0.292857 0
0.810714 0.292857 0
0.828571 0.292857 0
0.846429 0.292857 0
0.864286 0.292857 0
0.150000 0.310714 0
0.167857 0.310714 0
0.185714 0.310714 0
0.203571 0.310714 0
0.221429 0.310714 0
0.239286 0.310714 0
0.257143 0.310714 0
0.275000 0.310714 0
0.292857 0.310714 0
0.310714 0.310714 0
0.328571 0.310714 0
0.346429 0.310714 0
0.364286 0.310714 0
0.382143 0.310714 0
0.400000 0.310714 0
0.417857 0.310714 0
0.435714 0.310714 0
0.453571 0.310714 0
0.471429 0.310714 0
0.489286 0.310714 0
0.507143 0.310714 0
0.525000 0.310714 0
0.542857 0.310714 0
0.560714 0.310714 0
0.578571 0.310714 0
0.596429 0.310714 0
0.614286 0.310714 0
0.632143 0.310714 0
0.650000 0.310714 0
0.667857 0.310714 0
0.685714 0.310714 0
0.703571 0.310714 0
0.721429 0.310714 0
0.739286 0.310714 0
0.757143 0.310714 0
0.775000 0.310714 0
0.792857 0.310714 0
0.810714 0.310714 0
0.828571 0.310714 0
0.846429 0.310714 0
0.864286 0.310714 0
0.150000 0.328571 0
0.167857 0.328571 0
0.185714 0.328571 0
0.203571 0.328571 0
0.221429 0.328571 0
0.239286 0.328571 0
0.257143 0.328571 0
0.275000 0.328571 0
0.292857 0.328571 0
0.310714 0.328571 0
0.328571 0.328571 0
0.346429 0.328571 0
0.364286 0.328571 0
0.382143 0.328571 0
0.400000 0.328571 0
0.417857 0.328571 0
0.435714 0.328571 0
0.453571 0.328571 0
0.471429 0.328571 0
0.489286 0.328571 0
0.507143 0.328571 0
0.525000 0.328571 0
0.542857 0.328571 0
0.560714 0.328571 0
0.578571 0.328571 0
0.596429 0.328571 0
0.614286 0.328571 0
0.632143 0.328571 0
0.650000 0.328571 0
0.667857 0.328571 0
0.685714 0.328571 0
0.703571 0.328571 0
0.721429 0.328571 0
0.739286 0.328571 0
0.757143 0.328571 0
0.775000 0.328571 0
0.792857 0.328571 0
0.810714 0.328571 0
0.828571 0.328571 0
0.846429 0.328571 0
0.864286 0.328571 0
0.150000 0.346429 0
0.167857 0.346429 0
0.185714 0.346429 0
0.203571 0.346429 0
0.221429 0.346429 0
0.239286 0.346429 0
0.257143 0.346429 0
0.275000 0.346429 0
0.292857 0.346429 0
0.310714 0.346429 0
0.328571 0.346429 0
0.346429 0.346429 0
0.364286 0.346429 0
0.382143 0.346429 0
0.400000 0.346429 0
0.417857 0.346429 0
0.435714 0.346429 0
0.453571 0.346429 0
0.471429 0.346429 0
0.489286 0.346429 0
0.507143 0.346429 0
0.525000 0.346429 0
0.542857 0.346429 0
0.560714 0.346429 0
0.578571 0.346429 0
0.596429 0.346429 0
0.614286 0.346429 0
0.632143 0.346429 0
0.650000 0.346429 0
0.667857 0.346429 0
0.685714 0.346429 0
0.703571 0.346429 0
0.721429 0.346429 0
0.739286 0.346429 0
0.757143 0.346429 0
0.775000 0.346429 0
0.792857 0.346429 0
0.810714 0.346429 0
0.828571 0.346429 0
0.846429 0.346429 0
[...]
POINT_DATA 1681 

VECTORS velocity float
0.000000 0.000000 0
0.003383 0.000000 0
0.008984 0.000000 0
0.012924 0.000000 0
0.013926 0.000000 0
0.014572 0.000000 0
0.016640 0.000000 0
0.015633 0.000000 0
0.008884 0.000000 0
-0.002654 0.000000 0
-0.016286 0.000000 0
-0.030631 0.000000 0
-0.044847 0.000000 0
-0.058340 0.000000 0
-0.070756 0.000000 0
-0.081910 0.000000 0
-0.091820 0.000000 0
-0.100437 0.000000 0
-0.107773 0.000000 0
-0.113841 0.000000 0
-0.118657 0.000000 0
-0.122228 0.000000 0
-0.124544 0.000000 0
-0.125631 0.000000 0
-0.125378 0.000000 0
-0.123626 0.000000 0
-0.120224 0.000000 0
-0.115032 0.000000 0
-0.107908 0.000000 0
-0.098720 0.000000 0
-0.087459 0.000000 0
-0.074079 0.000000 0
-0.058688 0.000000 0
-0.041591 0.000000 0
-0.023429 0.000000 0
-0.005315 0.000000 0
0.010885 0.000000 0
0.018455 0.000000 0
0.015141 0.000000 0
0.007038 0.000000 0
0.000000 0.000000 0
0.000000 -0.003383 0
0.008760 -0.008984 0
0.018519 -0.009542 0
0.024966 -0.004942 0
0.024150 -0.001648 0
0.015719 -0.002714 0
0.001975 -0.001061 0
-0.016238 0.007756 0
-0.039332 0.018287 0
-0.066372 0.025170 0
-0.095166 0.027977 0
-0.123931 0.028561 0
-0.151408 0.027709 0
-0.176768 0.025909 0
-0.199542 0.023570 0
-0.219532 0.021064 0
-0.236744 0.018527 0
-0.251214 0.015953 0
-0.263018 0.013405 0
-0.272235 0.010884 0
-0.278931 0.008387 0
-0.283145 0.005887 0
-0.284878 0.003403 0
-0.284096 0.000834 0
-0.280675 -0.002006 0
-0.274465 -0.005154 0
-0.265247 -0.008594 0
-0.252767 -0.012316 0
-0.236763 -0.016312 0
-0.216998 -0.020448 0
-0.193325 -0.024641 0
-0.165681 -0.028772 0
-0.134246 -0.032488 0
-0.099597 -0.035259 0
-0.062971 -0.036277 0
-0.026640 -0.034314 0
0.005505 -0.023770 0
0.027067 -0.004256 0
0.026227 0.011417 0
0.012914 0.015141 0
0.000000 0.007038 0
0.000000 -0.008760 0
0.008104 -0.018519 0
0.010164 -0.016206 0
0.002293 -0.005631 0
-0.012629 0.009247 0
-0.035966 0.022175 0
-0.067642 0.031957 0
-0.101288 0.041307 0
-0.133027 0.050134 0
-0.162234 0.055833 0
-0.189600 0.057559 0
-0.214771 0.056242 0
-0.237334 0.052837 0
-0.257104 0.048133 0
-0.274042 0.042764 0
-0.288232 0.037202 0
-0.299730 0.031682 0
-0.308724 0.026274 0
-0.315357 0.021022 0
-0.319761 0.015913 0
-0.322030 0.010910 0
-0.322213 0.005947 0
-0.320319 0.000951 0
-0.316242 -0.004203 0
-0.309955 -0.009631 0
-0.301376 -0.015429 0
-0.290349 -0.021698 0
-0.276654 -0.028483 0
-0.260050 -0.035769 0
-0.240311 -0.043439 0
-0.217169 -0.051317 0
-0.190554 -0.059078 0
-0.160557 -0.066084 0
-0.127621 -0.071275 0
-0.092753 -0.072957 0
-0.057868 -0.068476 0
-0.026181 -0.053706 0
0.001208 -0.020722 0
0.016336 0.014153 0
0.008322 0.026227 0
0.000000 0.012914 0
0.000000 -0.011487 0
-0.003520 -0.019148 0
-0.018521 -0.003731 0
-0.042258 0.017850 0
-0.069895 0.036612 0
-0.099085 0.052300 0
-0.129734 0.064261 0
-0.160274 0.073141 0
-0.188254 0.079233 0
-0.212647 0.081743 0
-0.233771 0.080513 0
-0.251907 0.076295 0
-0.267285 0.070042 0
-0.280159 0.062617 0
-0.290776 0.054699 0
-0.299355 0.046752 0
-0.306049 0.039018 0
-0.311029 0.031579 0
-0.314421 0.024442 0
-0.316313 0.017557 0
-0.316755 0.010839 0
-0.315752 0.004175 0
-0.313272 -0.002569 0
-0.309238 -0.009530 0
-0.303564 -0.016871 0
-0.296096 -0.024759 0
-0.286660 -0.033316 0
-0.275053 -0.042615 0
-0.261050 -0.052655 0
-0.244411 -0.063329 0
-0.224892 -0.074398 0
-0.202348 -0.085384 0
-0.176763 -0.095421 0
-0.148351 -0.103063 0
-0.117683 -0.106029 0
-0.085853 -0.100885 0
-0.054559 -0.082846 0
-0.025864 -0.046774 0
0.000616 0.004303 0
0.002232 0.031477 0
0.000000 0.015360 0
0.000000 -0.005239 0
-0.020657 0.000002 0
-0.049277 0.022531 0
-0.078266 0.045743 0
-0.108016 0.066074 0
-0.137317 0.082014 0
-0.165259 0.093146 0
-0.191017 0.099828 0
-0.213451 0.102507 0
-0.232114 0.101351 0
-0.247361 0.096819 0
-0.259738 0.089757 0
-0.269770 0.081090 0
-0.277905 0.071624 0
-0.284482 0.061959 0
-0.289737 0.052476 0
-0.293814 0.043356 0
-0.296817 0.034645 0
-0.298806 0.026306 0
-0.299807 0.018248 0
-0.299811 0.010349 0
-0.298784 0.002464 0
-0.296671 -0.005564 0
-0.293409 -0.013911 0
-0.288871 -0.022773 0
-0.282932 -0.032333 0
-0.275441 -0.042741 0
-0.266223 -0.054093 0
-0.255078 -0.066411 0
-0.241788 -0.079597 0
-0.226124 -0.093380 0
-0.207894 -0.107207 0
-0.186959 -0.120081 0
-0.163278 -0.130355 0
-0.136957 -0.135455 0
-0.108316 -0.131600 0
-0.077936 -0.113695 0
-0.046732 -0.075897 0
-0.016754 -0.013944 0
0.001626 0.026844 0
0.000000 0.015146 0
0.000000 0.009170 0
-0.031688 0.030129 0
-0.065345 0.053878 0
-0.097592 0.076589 0
-0.127911 0.095663 0
-0.155653 0.109543 0
-0.180307 0.117962 0
-0.201539 0.121333 0
-0.219057 0.120330 0
-0.232972 0.115653 0
-0.243813 0.108137 0
-0.252230 0.098704 0
-0.258819 0.088209 0
-0.264040 0.077328 0
-0.268211 0.066531 0
-0.271528 0.056084 0
-0.274096 0.046099 0
-0.275973 0.036572 0
-0.277180 0.027432 0
-0.277716 0.018561 0
-0.277558 0.009817 0
-0.276666 0.001036 0
-0.274983 -0.007944 0
-0.272454 -0.017330 0
-0.268979 -0.027348 0
-0.264457 -0.038189 0
-0.258768 -0.050026 0
-0.251768 -0.062978 0
-0.243292 -0.077090 0
-0.233150 -0.092284 0
-0.221132 -0.108292 0
-0.207015 -0.124549 0
-0.190559 -0.140037 0
-0.171506 -0.153065 0
-0.149571 -0.160991 0
-0.124455 -0.159906 0
-0.095917 -0.144431 0
-0.064023 -0.107956 0
-0.029795 -0.044054 0
0.003928 0.014724 0
0.000000 0.016986 0
0.000000 0.026448 0
-0.035337 0.065346 0
-0.071724 0.088436 0
-0.104874 0.108309 0
-0.134397 0.124135 0
-0.159969 0.134410 0
-0.181467 0.139032 0
-0.198970 0.138577 0
-0.212714 0.133940 0
-0.223174 0.126107 0
-0.231000 0.116077 0
-0.236854 0.104762 0
-0.241289 0.092899 0
-0.244710 0.081017 0
-0.247384 0.069448 0
-0.249466 0.058361 0
-0.251041 0.047801 0
-0.252149 0.037729 0
-0.252806 0.028048 0
-0.253008 0.018625 0
-0.252739 0.009299 0
-0.251968 -0.000110 0
-0.250654 -0.009776 0
-0.248730 -0.019915 0
-0.246138 -0.030769 0
-0.242799 -0.042545 0
-0.238623 -0.055431 0
-0.233502 -0.069569 0
-0.227303 -0.085028 0
-0.219872 -0.101756 0
-0.211018 -0.119515 0
-0.200513 -0.137780 0
-0.188063 -0.155590 0
-0.173272 -0.171344 0
-0.155591 -0.182506 0
-0.134287 -0.185255 0
-0.108484 -0.174127 0
-0.077448 -0.142019 0
-0.041370 -0.081894 0
-0.002813 -0.002952 0
0.000000 0.019074 0
0.000000 0.044507 0
-0.035596 0.101853 0
-0.071931 0.123415 0
-0.104209 0.139262 0
-0.132028 0.150758 0
-0.155227 0.156613 0
-0.173941 0.156963 0
-0.188537 0.152580 0
-0.199546 0.144533 0
-0.207627 0.133939 0
-0.213471 0.121817 0
-0.217693 0.108993 0
-0.220776 0.096065 0
-0.223061 0.083424 0
-0.224768 0.071286 0
-0.226033 0.059741 0
-0.226931 0.048782 0
-0.227502 0.038337 0
-0.227764 0.028291 0
-0.227719 0.018495 0
-0.227357 0.008777 0
-0.226660 -0.001050 0
-0.225604 -0.011182 0
-0.224132 -0.021846 0
-0.222206 -0.033279 0
-0.219775 -0.045704 0
-0.216775 -0.059323 0
-0.213126 -0.074298 0
-0.208730 -0.090720 0
-0.203461 -0.108569 0
-0.197156 -0.127650 0
-0.189601 -0.147504 0
-0.180495 -0.167279 0
-0.169395 -0.185538 0
-0.155639 -0.199976 0
-0.138274 -0.207013 0
-0.116069 -0.201270 0
-0.087802 -0.175070 0
-0.053297 -0.118689 0
-0.016458 -0.026646 0
0.000000 0.014173 0
0.000000 0.062044 0
-0.033775 0.137278 0
-0.068379 0.157049 0
-0.098692 0.168406 0
-0.124292 0.175153 0
-0.145113 0.176323 0
-0.161439 0.172342 0
-0.173798 0.164182 0
-0.182857 0.153030 0
-0.189333 0.140032 0
-0.193891 0.126143 0
-0.197082 0.112067 0
-0.199316 0.098266 0
-0.200882 0.085009 0
-0.201971 0.072420 0
-0.202702 0.060523 0
-0.203148 0.049270 0
-0.203351 0.038562 0
-0.203333 0.028265 0
-0.203102 0.018218 0
-0.202658 0.008240 0
-0.201993 -0.001864 0
-0.201091 -0.012305 0
-0.199922 -0.023313 0
-0.198462 -0.035126 0
-0.196682 -0.047976 0
-0.194539 -0.062079 0
-0.191978 -0.077614 0
-0.188925 -0.094694 0
-0.185279 -0.113331 0
-0.180904 -0.133375 0
-0.175609 -0.154440 0
-0.169117 -0.175796 0
-0.161006 -0.196200 0
-0.150619 -0.213627 0
-0.136968 -0.224825 0
-0.118685 -0.224599 0
-0.094241 -0.204790 0
-0.062863 -0.153239 0
-0.027072 -0.056249 0
0.000000 0.002616 0
0.000000 0.078283 0
-0.030772 0.170232 0
-0.062710 0.188331 0
-0.090470 0.195175 0
-0.113622 0.197179 0
-0.132162 0.193761 0
-0.146446 0.185648 0
-0.157065 0.173998 0
-0.164719 0.160068 0
-0.170104 0.144974 0
-0.173827 0.129566 0
-0.176365 0.114417 0
-0.178071 0.099866 0
-0.179190 0.086079 0
-0.179890 0.073106 0
-0.180279 0.060918 0
-0.180427 0.049431 0
-0.180378 0.038522 0
-0.180157 0.028042 0
-0.179779 0.017820 0
-0.179254 0.007668 0
-0.178583 -0.002617 0
-0.177760 -0.013254 0
-0.176776 -0.024474 0
-0.175622 -0.036519 0
-0.174282 -0.049628 0
-0.172734 -0.064027 0
-0.170940 -0.079911 0
-0.168845 -0.097419 0
-0.166367 -0.116590 0
-0.163389 -0.137320 0
-0.159743 -0.159290 0
-0.155185 -0.181882 0
-0.149342 -0.204036 0
-0.141630 -0.224014 0
-0.131130 -0.238948 0
-0.116464 -0.243996 0
-0.095838 -0.230891 0
-0.067640 -0.185859 0
-0.032513 -0.089510 0
0.000000 -0.012899 0
0.000000 0.092816 0
-0.027181 0.199987 0
-0.056000 0.216748 0
-0.080956 0.219319 0
-0.101617 0.216845 0
-0.118019 0.209147 0
-0.130540 0.197245 0
-0.139771 0.182455 0
-0.146379 0.166069 0
-0.151000 0.149140 0
-0.154165 0.132404 0
-0.156284 0.116312 0
-0.157658 0.101092 0
-0.158497 0.086828 0
-0.158950 0.073509 0
-0.159115 0.061061 0
-0.159061 0.049369 0
-0.158831 0.038292 0
-0.158455 0.027667 0
-0.157957 0.017315 0
-0.157349 0.007043 0
-0.156645 -0.003358 0
-0.155849 -0.014111 0
-0.154965 -0.025451 0
-0.153995 -0.037620 0
-0.152937 -0.050864 0
-0.151783 -0.065421 0
-0.150510 -0.081502 0
-0.149077 -0.099267 0
-0.147415 -0.118787 0
-0.145421 -0.139999 0
-0.142943 -0.162644 0
-0.139765 -0.186197 0
-0.135565 -0.209755 0
-0.129846 -0.231839 0
-0.121813 -0.249991 0
-0.110179 -0.259891 0
-0.093016 -0.253614 0
-0.068028 -0.216564 0
-0.034358 -0.123889 0
0.000000 -0.029897 0
0.000000 0.105464 0
-0.023369 0.226232 0
-0.048915 0.242106 0
-0.071025 0.240792 0
-0.089261 0.234242 0
-0.103685 0.222684 0
-0.114664 0.207400 0
-0.122749 0.189837 0
-0.128541 0.171297 0
-0.132595 0.152759 0
-0.135366 0.134850 0
-0.137200 0.117910 0
-0.138352 0.102079 0
-0.139005 0.087371 0
-0.139289 0.073724 0
-0.139296 0.061029 0
-0.139091 0.049146 0
-0.138722 0.037917 0
-0.138223 0.027168 0
-0.137619 0.016714 0
-0.136932 0.006356 0
-0.136180 -0.004117 0
-0.135377 -0.014933 0
-0.134534 -0.026328 0
-0.133664 -0.038547 0
-0.132774 -0.051839 0
-0.131866 -0.066454 0
-0.130930 -0.082618 0
-0.129937 -0.100514 0
-0.128831 -0.120246 0
-0.127519 -0.141791 0
-0.125863 -0.164946 0
-0.123661 -0.189260 0
-0.120629 -0.213954 0
-0.116349 -0.237765 0
-0.110160 -0.258616 0
-0.100947 -0.272794 0
-0.086844 -0.273042 0
-0.065209 -0.244516 0
-0.034145 -0.157538 0
0.000000 -0.047257 0
0.000000 0.116185 0
-0.019546 0.248902 0
-0.041841 0.264404 0
-0.061181 0.259665 0
-0.077116 0.249505 0
-0.089720 0.234550 0
-0.099331 0.216309 0
-0.106434 0.196331 0
-0.111552 0.175915 0
-0.115154 0.155965 0
-0.117619 0.137009 0
-0.119238 0.119298 0
-0.120224 0.102897 0
-0.120736 0.087765 0
-0.120889 0.073800 0
-0.120770 0.060863 0
-0.120444 0.048795 0
-0.119960 0.037423 0
-0.119356 0.026564 0
-0.118661 0.016025 0
-0.117901 0.005604 0
-0.117095 -0.004914 0
-0.116264 -0.015757 0
-0.115427 -0.027164 0
-0.114600 -0.039381 0
-0.113797 -0.052662 0
-0.113030 -0.067265 0
-0.112298 -0.083431 0
-0.111585 -0.101365 0
-0.110846 -0.121204 0
-0.110001 -0.142967 0
-0.108922 -0.166503 0
-0.107422 -0.191431 0
-0.105239 -0.217066 0
-0.102010 -0.242308 0
-0.097195 -0.265393 0
-0.089886 -0.283207 0
-0.078439 -0.289352 0
-0.060157 -0.269263 0
-0.032389 -0.189098 0
0.000000 -0.064042 0
0.000000 0.125010 0
-0.015821 0.268073 0
-0.034976 0.283741 0
-0.051683 0.276067 0
-0.065462 0.262781 0
-0.076393 0.244899 0
-0.084768 0.224114 0
-0.091004 0.202059 0
-0.095534 0.180017 0
-0.098745 0.158826 0
-0.100948 0.138934 0
-0.102380 0.120515 0
-0.103222 0.103577 0
-0.103611 0.088036 0
-0.103651 0.073759 0
-0.103424 0.060584 0
-0.102994 0.048336 0
-0.102412 0.036828 0
-0.101717 0.025869 0
-0.100944 0.015259 0
-0.100117 0.004790 0
-0.099260 -0.005754 0
-0.098395 -0.016601 0
-0.097543 -0.027993 0
-0.096724 -0.040176 0
-0.095957 -0.053409 0
-0.095260 -0.067953 0
-0.094640 -0.084063 0
-0.094091 -0.101967 0
-0.093584 -0.121830 0
-0.093053 -0.143715 0
-0.092384 -0.167524 0
-0.091406 -0.192943 0
-0.089873 -0.219366 0
-0.087458 -0.245809 0
-0.083715 -0.270739 0
-0.077936 -0.291551 0
-0.068783 -0.302771 0
-0.053740 -0.290566 0
-0.029663 -0.217694 0
0.000000 -0.079646 0
0.000000 0.132006 0
-0.012232 0.283878 0
-0.028394 0.300266 0
-0.042624 0.290151 0
-0.054394 0.274215 0
-0.063780 0.253857 0
-0.071027 0.230920 0
-0.076474 0.207097 0
-0.080468 0.183656 0
-0.083319 0.161378 0
-0.085275 0.140644 0
-0.086529 0.121573 0
-0.087232 0.104128 0
-0.087504 0.088194 0
-0.087438 0.073613 0
-0.087113 0.060206 0
-0.086592 0.047782 0
-0.085926 0.036147 0
-0.085157 0.025096 0
-0.084317 0.014425 0
-0.083435 0.003920 0
-0.082532 -0.006636 0
-0.081633 -0.017474 0
-0.080758 -0.028835 0
-0.079931 -0.040966 0
-0.079172 -0.054126 0
-0.078501 -0.068582 0
-0.077934 -0.084599 0
-0.077475 -0.102421 0
-0.077107 -0.122243 0
-0.076782 -0.144166 0
-0.076409 -0.168150 0
-0.075834 -0.193943 0
-0.074832 -0.221014 0
-0.073103 -0.248466 0
-0.070265 -0.274916 0
-0.065780 -0.298139 0
-0.058632 -0.313548 0
-0.046637 -0.308382 0
-0.026397 -0.242838 0
0.000000 -0.093705 0
0.000000 0.137242 0
-0.008774 0.296467 0
-0.022091 0.314134 0
-0.033998 0.302067 0
-0.043894 0.283937 0
-0.051846 0.261532 0
-0.058047 0.236807 0
-0.062759 0.211499 0
-0.066249 0.186862 0
-0.068755 0.163633 0
-0.070468 0.142144 0
-0.071543 0.122472 0
-0.072106 0.104551 0
-0.072260 0.088242 0
-0.072093 0.073369 0
-0.071680 0.059738 0
-0.071081 0.047149 0
-0.070346 0.035393 0
-0.069517 0.024260 0
-0.068626 0.013537 0
-0.067701 0.003005 0
-0.066763 -0.007556 0
-0.065835 -0.018375 0
-0.064941 -0.029695 0
-0.064100 -0.041763 0
-0.063337 -0.054839 0
-0.062672 -0.069191 0
-0.062126 -0.085090 0
-0.061712 -0.102795 0
-0.061426 -0.122522 0
-0.061240 -0.144412 0
-0.061085 -0.168473 0
-0.060835 -0.194521 0
-0.060293 -0.222097 0
-0.059185 -0.250376 0
-0.057178 -0.278063 0
-0.053857 -0.303184 0
-0.048500 -0.321914 0
-0.039331 -0.322801 0
-0.022896 -0.264331 0
0.000000 -0.106042 0
0.000000 0.140780 0
-0.005422 0.305970 0
-0.016019 0.325489 0
-0.025736 0.311953 0
-0.033874 0.292063 0
-0.040482 0.268010 0
-0.045702 0.241833 0
-0.049720 0.215300 0
-0.052727 0.189652 0
-0.054894 0.165596 0
-0.056364 0.143432 0
-0.057257 0.123210 0
-0.057677 0.104845 0
-0.057715 0.088182 0
-0.057453 0.073033 0
-0.056960 0.059193 0
-0.056296 0.046449 0
-0.055508 0.034583 0
-0.054637 0.023377 0
-0.053712 0.012609 0
-0.052760 0.002056 0
-0.051798 -0.008502 0
-0.050853 -0.019296 0
-0.049947 -0.030570 0
-0.049099 -0.042570 0
-0.048331 -0.055554 0
-0.047669 -0.069793 0
-0.047133 -0.085560 0
-0.046745 -0.103122 0
-0.046513 -0.122715 0
-0.046428 -0.144507 0
-0.046446 -0.168555 0
-0.046472 -0.194735 0
-0.046345 -0.222664 0
-0.045826 -0.251581 0
-0.044621 -0.280244 0
-0.042408 -0.306816 0
-0.038697 -0.328074 0
-0.032132 -0.333986 0
-0.019366 -0.282170 0
0.000000 -0.116602 0
0.000000 0.142664 0
-0.002162 0.312486 0
-0.010101 0.334448 0
-0.017731 0.319922 0
-0.024204 0.298683 0
-0.029541 0.273360 0
-0.033830 0.246045 0
-0.037185 0.218525 0
-0.039726 0.192037 0
-0.041561 0.167270 0
-0.042789 0.144507 0
-0.043500 0.123785 0
-0.043778 0.105009 0
-0.043704 0.088018 0
-0.043353 0.072613 0
-0.042791 0.058581 0
-0.042074 0.045697 0
-0.041249 0.033734 0
-0.040352 0.022464 0
-0.039413 0.011660 0
-0.038453 0.001090 0
-0.037483 -0.009462 0
-0.036535 -0.020226 0
-0.035629 -0.031449 0
-0.034784 -0.043379 0
-0.034022 -0.056269 0
-0.033368 -0.070389 0
-0.032848 -0.086014 0
-0.032485 -0.103415 0
-0.032301 -0.122840 0
-0.032304 -0.144479 0
-0.032474 -0.168429 0
-0.032750 -0.194622 0
-0.033009 -0.222743 0
-0.033060 -0.252099 0
-0.032653 -0.281480 0
-0.031527 -0.309108 0
-0.029369 -0.332191 0
-0.025206 -0.342133 0
-0.015920 -0.296463 0
0.000000 -0.125408 0
0.000000 0.142942 0
0.000977 0.316071 0
-0.004225 0.341058 0
-0.009863 0.326056 0
-0.014739 0.303873 0
-0.018857 0.277636 0
-0.022252 0.249477 0
-0.024970 0.221196 0
-0.027058 0.194028 0
-0.028569 0.168659 0
-0.029562 0.145371 0
-0.030096 0.124199 0
-0.030240 0.105050 0
-0.030064 0.087757 0
-0.029636 0.072120 0
-0.029018 0.057914 0
-0.028263 0.044907 0
-0.027414 0.032861 0
-0.026506 0.021540 0
-0.025566 0.010709 0
-0.024612 0.000126 0
-0.023659 -0.010420 0
-0.022725 -0.021150 0
-0.021834 -0.032320 0
-0.021007 -0.044176 0
-0.020265 -0.056970 0
-0.019634 -0.070967 0
-0.019141 -0.086443 0
-0.018817 -0.103668 0
-0.018692 -0.122896 0
-0.018789 -0.144334 0
-0.019112 -0.168108 0
-0.019629 -0.194200 0
-0.020258 -0.222354 0
-0.020863 -0.251938 0
-0.021252 -0.281777 0
-0.021210 -0.310100 0
-0.020550 -0.334395 0
-0.018620 -0.347435 0
-0.012613 -0.307376 0
0.000000 -0.132522 0
0.000000 0.141687 0
0.004021 0.316711 0
0.001692 0.345288 0
-0.001973 0.330436 0
-0.005310 0.307677 0
-0.008252 0.280873 0
-0.010789 0.252158 0
-0.012895 0.223330 0
-0.014541 0.195637 0
-0.015739 0.169774 0
-0.016507 0.146033 0
-0.016877 0.124463 0
-0.016901 0.104977 0
-0.016638 0.087414 0
-0.016151 0.071567 0
-0.015494 0.057208 0
-0.014718 0.044093 0
-0.013861 0.031977 0
-0.012953 0.020616 0
-0.012025 0.009766 0
-0.011091 -0.000817 0
-0.010169 -0.011350 0
-0.009265 -0.022051 0
-0.008405 -0.033167 0
-0.007611 -0.044947 0
-0.006906 -0.057642 0
-0.006315 -0.071513 0
-0.005870 -0.086830 0
-0.005605 -0.103864 0
-0.005561 -0.122867 0
-0.005773 -0.144060 0
-0.006263 -0.167589 0
-0.007027 -0.193476 0
-0.008023 -0.221509 0
-0.009168 -0.251106 0
-0.010345 -0.281134 0
-0.011390 -0.309810 0
-0.012196 -0.334781 0
-0.012365 -0.350069 0
-0.009455 -0.315083 0
0.000000 -0.138021 0
0.000000 0.138921 0
0.007060 0.314379 0
0.007683 0.347053 0
0.006048 0.333058 0
0.004232 0.310151 0
0.002449 0.283115 0
0.000763 0.254120 0
-0.000743 0.224948 0
-0.001977 0.196872 0
-0.002886 0.170625 0
-0.003450 0.146508 0
-0.003677 0.124594 0
-0.003601 0.104811 0
-0.003273 0.087007 0
-0.002747 0.070976 0
-0.002073 0.056482 0
-0.001294 0.043274 0
-0.000445 0.031096 0
0.000446 0.019703 0
0.001355 0.008847 0
0.002261 -0.001729 0
0.003147 -0.012246 0
0.004005 -0.022913 0
0.004818 -0.033974 0
0.005564 -0.045676 0
0.006216 -0.058266 0
0.006748 -0.072004 0
0.007123 -0.087153 0
0.007302 -0.103977 0
0.007237 -0.122728 0
0.006882 -0.143632 0
0.006200 -0.166854 0
0.005170 -0.192440 0
0.003798 -0.220213 0
0.002119 -0.249616 0
0.000178 -0.279555 0
-0.001963 -0.308248 0
-0.004219 -0.333419 0
-0.006386 -0.350177 0
-0.006424 -0.319741 0
0.000000 -0.141977 0
0.000000 0.134627 0
0.010158 0.309028 0
0.013818 0.346299 0
0.014275 0.333887 0
0.013993 0.311276 0
0.013378 0.284342 0
0.012553 0.255350 0
0.011655 0.226070 0
0.010822 0.197780 0
0.010181 0.171247 0
0.009797 0.146824 0
0.009686 0.124615 0
0.009833 0.104574 0
0.010197 0.086560 0
0.010736 0.070367 0
0.011404 0.055755 0
0.012165 0.042465 0
0.012989 0.030237 0
0.013848 0.018816 0
0.014725 0.007951 0
0.015600 -0.002609 0
0.016444 -0.013094 0
0.017250 -0.023722 0
0.018005 -0.034726 0
0.018687 -0.046345 0
0.019272 -0.058826 0
0.019727 -0.072420 0
0.020013 -0.087385 0
0.020082 -0.103977 0
0.019881 -0.122447 0
0.019356 -0.143023 0
0.018454 -0.165877 0
0.017131 -0.191074 0
0.015357 -0.218458 0
0.013115 -0.247486 0
0.010398 -0.277053 0
0.007180 -0.305413 0
0.003499 -0.330358 0
-0.000584 -0.347864 0
-0.003475 -0.321469 0
0.000000 -0.144445 0
0.000000 0.128762 0
0.013355 0.300561 0
0.020175 0.342937 0
0.022811 0.332883 0
0.024073 0.311048 0
0.024625 0.284554 0
0.024666 0.255843 0
0.024386 0.226679 0
0.023974 0.198347 0
0.023605 0.171650 0
0.023387 0.147003 0
0.023370 0.124558 0
0.023560 0.104300 0
0.023933 0.086104 0
0.024457 0.069769 0
0.025097 0.055052 0
0.025821 0.041689 0
0.026601 0.029414 0
0.027415 0.017967 0
0.028245 0.007095 0
0.029071 -0.003448 0
0.029866 -0.013895 0
0.030615 -0.024474 0
0.031306 -0.035412 0
0.031917 -0.046943 0
0.032421 -0.059306 0
0.032785 -0.072744 0
0.032963 -0.087507 0
0.032906 -0.103845 0
0.032552 -0.122003 0
0.031837 -0.142206 0
0.030694 -0.164629 0
0.029054 -0.189342 0
0.026851 -0.216197 0
0.024015 -0.244657 0
0.020478 -0.273620 0