# vtk DataFile Version 2.0
generated by CFD-lab course output (written by Tobias Neckel) 
ASCII

DATASET STRUCTURED_GRID
DIMENSIONS  41 41 1 
POINTS 1681 float

0.150000 0.150000 0
0.167857 0.150000 0
0.185714 0.150000 0
0.203571 0.150000 0
0.221429 0.150000 0
0.239286 0.150000 0
0.257143 0.150000 0
0.275000 0.150000 0
0.292857 0.150000 0
0.310714 0.150000 0
0.328571 0.150000 0
0.346429 0.150000 0
0.364286 0.150000 0
0.382143 0.150000 0
0.400000 0.150000 0
0.417857 0.150000 0
0.435714 0.150000 0
0.453571 0.150000 0
0.471429 0.150000 0
0.489286 0.150000 0
0.507143 0.150000 0
0.525000 0.150000 0
0.542857 0.150000 0
0.560714 0.150000 0
0.578571 0.150000 0
0.596429 0.150000 0
0.614286 0.150000 0
0.632143 0.150000 0
0.650000 0.150000 0
0.667857 0.150000 0
0.685714 0.150000 0
0.703571 0.150000 0
0.721429 0.150000 0
0.739286 0.150000 0
0.757143 0.150000 0
0.775000 0.150000 0
0.792857 0.150000 0
0.810714 0.150000 0
0.828571 0.150000 0
0.846429 0.150000 0
0.864286 0.150000 0
0.150000 0.167857 0
0.167857 0.167857 0
0.185714 0.167857 0
0.203571 0.167857 0
0.221429 0.167857 0
0.239286 0.167857 0
0.257143 0.167857 0
0.275000 0.167857 0
0.292857 0.167857 0
0.310714 0.167857 0
0.328571 0.167857 0
0.346429 0.167857 0
0.364286 0.167857 0
0.382143 0.167857 0
0.400000 0.167857 0
0.417857 0.167857 0
0.435714 0.167857 0
0.453571 0.167857 0
0.471429 0.167857 0
0.489286 0.167857 0
0.507143 0.167857 0
0.525000 0.167857 0
0.542857 0.167857 0
0.560714 0.167857 0
0.578571 0.167857 0
0.596429 0.167857 0
0.614286 0.167857 0
0.632143 0.167857 0
0.650000 0.167857 0
0.667857 0.167857 0
0.685714 0.167857 0
0.703571 0.167857 0
0.721429 0.167857 0
0.739286 0.167857 0
0.757143 0.167857 0
0.775000 0.167857 0
0.792857 0.167857 0
0.810714 0.167857 0
0.828571 0.167857 0
0.846429 0.167857 0
0.864286 0.167857 0
0.150000 0.185714 0
0.167857 0.185714 0
0.185714 0.185714 0
0.203571 0.185714 0
0.221429 0.185714 0
0.239286 0.185714 0
0.257143 0.185714 0
0.275000 0.185714 0
0.292857 0.185714 0
0.310714 0.185714 0
0.328571 0.185714 0
0.346429 0.185714 0
0.364286 0.185714 0
0.382143 0.185714 0
0.400000 0.185714 0
0.417857 0.185714 0
0.435714 0.185714 0
0.453571 0.185714 0
0.471429 0.185714 0
0.489286 0.185714 0
0.507143 0.185714 0
0.525000 0.185714 0
0.542857 0.185714 0
0.560714 0.185714 0
0.578571 0.185714 0
0.596429 0.185714 0
0.614286 0.185714 0
0.632143 0.185714 0
0.650000 0.185714 0
0.667857 0.185714 0
0.685714 0.185714 0
0.703571 0.185714 0
0.721429 0.185714 0
0.739286 0.185714 0
0.757143 0.185714 0
0.775000 0.185714 0
0.792857 0.185714 0
0.810714 0.185714 0
0.828571 0.185714 0
0.846429 0.185714 0
0.864286 0.185714 0
0.150000 0.203571 0
0.167857 0.203571 0
0.185714 0.203571 0
0.203571 0.203571 0
0.221429 0.203571 0
0.239286 0.203571 0
0.257143 0.203571 0
0.275000 0.203571 0
0.292857 0.203571 0
0.310714 0.203571 0
0.328571 0.203571 0
0.346429 0.203571 0
0.364286 0.203571 0
0.382143 0.203571 0
0.400000 0.203571 0
0.417857 0.203571 0
0.435714 0.203571 0
0.453571 0.203571 0
0.471429 0.203571 0
0.489286 0.203571 0
0.507143 0.203571 0
0.525000 0.203571 0
0.542857 0.203571 0
0.560714 0.203571 0
0.578571 0.203571 0
0.596429 0.203571 0
0.614286 0.203571 0
0.632143 0.203571 0
0.650000 0.203571 0
0.667857 0.203571 0
0.685714 0.203571 0
0.703571 0.203571 0
0.721429 0.203571 0
0.739286 0.203571 0
0.757143 0.203571 0
0.775000 0.203571 0
0.792857 0.203571 0
0.810714 0.203571 0
0.828571 0.203571 0
0.846429 0.203571 0
0.864286 0.203571 0
0.150000 0.221429 0
0.167857 0.221429 0
0.185714 0.221429 0
0.203571 0.221429 0
0.221429 0.221429 0
0.239286 0.221429 0
0.257143 0.221429 0
0.275000 0.221429 0
0.292857 0.221429 0
0.310714 0.221429 0
0.328571 0.221429 0
0.346429 0.221429 0
0.364286 0.221429 0
0.382143 0.221429 0
0.400000 0.221429 0
0.417857 0.221429 0
0.435714 0.221429 0
0.453571 0.221429 0
0.471429 0.221429 0
0.489286 0.221429 0
0.507143 0.221429 0
0.525000 0.221429 0
0.542857 0.221429 0
0.560714 0.221429 0
0.578571 0.221429 0
0.596429 0.221429 0
0.614286 0.221429 0
0.632143 0.221429 0
0.650000 0.221429 0
0.667857 0.221429 0
0.685714 0.221429 0
0.703571 0.221429 0
0.721429 0.221429 0
0.739286 0.221429 0
0.757143 0.221429 0
0.775000 0.221429 0
0.792857 0.221429 0
0.810714 0.221429 0
0.828571 0.221429 0
0.846429 0.221429 0
0.864286 0.221429 0
0.150000 0.239286 0
0.167857 0.239286 0
0.185714 0.239286 0
0.203571 0.239286 0
0.221429 0.239286 0
0.239286 0.239286 0
0.257143 0.239286 0
0.275000 0.239286 0
0.292857 0.239286 0
0.310714 0.239286 0
0.328571 0.239286 0
0.346429 0.239286 0
0.364286 0.239286 0
0.382143 0.239286 0
0.400000 0.239286 0
0.417857 0.239286 0
0.435714 0.239286 0
0.453571 0.239286 0
0.471429 0.239286 0
0.489286 0.239286 0
0.507143 0.239286 0
0.525000 0.239286 0
0.542857 0.239286 0
0.560714 0.239286 0
0.578571 0.239286 0
0.596429 0.239286 0
0.614286 0.239286 0
0.632143 0.239286 0
0.650000 0.239286 0
0.667857 0.239286 0
0.685714 0.239286 0
0.703571 0.239286 0
0.721429 0.239286 0
0.739286 0.239286 0
0.757143 0.239286 0
0.775000 0.239286 0
0.792857 0.239286 0
0.810714 0.239286 0
0.828571 0.239286 0
0.846429 0.239286 0
0.864286 0.239286 0
0.150000 0.257143 0
0.167857 0.257143 0
0.185714 0.257143 0
0.203571 0.257143 0
0.221429 0.257143 0
0.239286 0.257143 0
0.257143 0.257143 0
0.275000 0.257143 0
0.292857 0.257143 0
0.310714 0.257143 0
0.328571 0.257143 0
0.346429 0.257143 0
0.364286 0.257143 0
0.382143 0.257143 0
0.400000 0.257143 0
0.417857 0.257143 0
0.435714 0.257143 0
0.453571 0.257143 0
0.471429 0.257143 0
0.489286 0.257143 0
0.507143 0.257143 0
0.525000 0.257143 0
0.542857 0.257143 0
0.560714 0.257143 0
0.578571 0.257143 0
0.596429 0.257143 0
0.614286 0.257143 0
0.632143 0.257143 0
0.650000 0.257143 0
0.667857 0.257143 0
0.685714 0.257143 0
0.703571 0.257143 0
0.721429 0.257143 0
0.739286 0.257143 0
0.757143 0.257143 0
0.775000 0.257143 0
0.792857 0.257143 0
0.810714 0.257143 0
0.828571 0.257143 0
0.846429 0.257143 0
0.864286 0.257143 0
0.150000 0.275000 0
0.167857 0.275000 0
0.185714 0.275000 0
0.203571 0.275000 0
0.221429 0.275000 0
0.239286 0.275000 0
0.257143 0.275000 0
0.275000 0.275000 0
0.292857 0.275000 0
0.310714 0.275000 0
0.328571 0.275000 0
0.346429 0.275000 0
0.364286 0.275000 0
0.382143 0.275000 0
0.400000 0.275000 0
0.417857 0.275000 0
0.435714 0.275000 0
0.453571 0.275000 0
0.471429 0.275000 0
0.489286 0.275000 0
0.507143 0.275000 0
0.525000 0.275000 0
0.542857 0.275000 0
0.560714 0.275000 0
0.578571 0.275000 0
0.596429 0.275000 0
0.614286 0.275000 0
0.632143 0.275000 0
0.650000 0.275000 0
0.667857 0.275000 0
0.685714 0.275000 0
0.703571 0.275000 0
0.721429 0.275000 0
0.739286 0.275000 0
0.757143 0.275000 0
0.775000 0.275000 0
0.792857 0.275000 0
0.810714 0.275000 0
0.828571 0.275000 0
0.846429 0.275000 0
0.864286 0.275000 0
0.150000 0.292857 0
0.167857 0.292857 0
0.185714 0.292857 0
0.203571 0.292857 0
0.221429 0.292857 0
0.239286 0.292857 0
0.257143 0.292857 0
0.275000 0.292857 0
0.292857 0.292857 0
0.310714 0.292857 0
0.328571 0.292857 0
0.346429 0.292857 0
0.364286 0.292857 0
0.382143 0.292857 0
0.400000 0.292857 0
0.417857 0.292857 0
0.435714 0.292857 0
0.453571 0.292857 0
0.471429 0.292857 0
0.489286 0.292857 0
0.507143 0.292857 0
0.525000 0.292857 0
0.542857 0.292857 0
0.560714 0.292857 0
0.578571 0.292857 0
0.596429 0.292857 0
0.614286 0.292857 0
0.632143 0.292857 0
0.650000 0.292857 0
0.667857 0.292857 0
0.685714 0.292857 0
0.703571 0.292857 0
0.721429 0.292857 0
0.739286 0.292857 0
0.757143 0.292857 0
0.775000 0.292857 0
0.792857 0.292857 0
0.810714 0.292857 0
0.828571 0.292857 0
0.846429 0.292857 0
0.864286 0.292857 0
0.150000 0.310714 0
0.167857 0.310714 0
0.185714 0.310714 0
0.203571 0.310714 0
0.221429 0.310714 0
0.239286 0.310714 0
0.257143 0.310714 0
0.275000 0.310714 0
0.292857 0.310714 0
0.310714 0.310714 0
0.328571 0.310714 0
0.346429 0.310714 0
0.364286 0.310714 0
0.382143 0.310714 0
0.400000 0.310714 0
0.417857 0.310714 0
0.435714 0.310714 0
0.453571 0.310714 0
0.471429 0.310714 0
0.489286 0.310714 0
0.507143 0.310714 0
0.525000 0.310714 0
0.542857 0.310714 0
0.560714 0.310714 0
0.578571 0.310714 0
0.596429 0.310714 0
0.614286 0.310714 0
0.632143 0.310714 0
0.650000 0.310714 0
0.667857 0.310714 0
0.685714 0.310714 0
0.703571 0.310714 0
0.721429 0.310714 0
0.739286 0.310714 0
0.757143 0.310714 0
0.775000 0.310714 0
0.792857 0.310714 0
0.810714 0.310714 0
0.828571 0.310714 0
0.846429 0.310714 0
0.864286 0.310714 0
0.150000 0.328571 0
0.167857 0.328571 0
0.185714 0.328571 0
0.203571 0.328571 0
0.221429 0.328571 0
0.239286 0.328571 0
0.257143 0.328571 0
0.275000 0.328571 0
0.292857 0.328571 0
0.310714 0.328571 0
0.328571 0.328571 0
0.346429 0.328571 0
0.364286 0.328571 0
0.382143 0.328571 0
0.400000 0.328571 0
0.417857 0.328571 0
0.435714 0.328571 0
0.453571 0.328571 0
0.471429 0.328571 0
0.489286 0.328571 0
0.507143 0.328571 0
0.525000 0.328571 0
0.542857 0.328571 0
0.560714 0.328571 0
0.578571 0.328571 0
0.596429 0.328571 0
0.614286 0.328571 0
0.632143 0.328571 0
0.650000 0.328571 0
0.667857 0.328571 0
0.685714 0.328571 0
0.703571 0.328571 0
0.721429 0.328571 0
0.739286 0.328571 0
0.757143 0.328571 0
0.775000 0.328571 0
0.792857 0.328571 0
0.810714 0.328571 0
0.828571 0.328571 0
0.846429 0.328571 0
0.864286 0.328571 0
0.150000 0.346429 0
0.167857 0.346429 0
0.185714 0.346429 0
0.203571 0.346429 0
0.221429 0.346429 0
0.239286 0.346429 0
0.257143 0.346429 0
0.275000 0.346429 0
0.292857 0.346429 0
0.310714 0.346429 0
0.328571 0.346429 0
0.346429 0.346429 0
0.364286 0.346429 0
0.382143 0.346429 0
0.400000 0.346429 0
0.417857 0.346429 0
0.435714 0.346429 0
0.453571 0.346429 0
0.471429 0.346429 0
0.489286 0.346429 0
0.507143 0.346429 0
0.525000 0.346429 0
0.542857 0.346429 0
0.560714 0.346429 0
0.578571 0.346429 0
0.596429 0.346429 0
0.614286 0.346429 0
0.632143 0.346429 0
0.650000 0.346429 0
0.667857 0.346429 0
0.685714 0.346429 0
0.703571 0.346429 0
0.721429 0.346429 0
0.739286 0.346429 0
0.757143 0.346429 0
0.775000 0.346429 0
0.792857 0.346429 0
0.810714 0.346429 0
0.828571 0.346429 0
0.846429 0.346429 0
[...]
POINT_DATA 1681 

VECTORS velocity float
0.000000 0.000000 0
0.000767 0.000000 0
0.002066 0.000000 0
0.002339 0.000000 0
0.001377 0.000000 0
-0.000478 0.000000 0
-0.002927 0.000000 0
-0.005856 0.000000 0
-0.009291 0.000000 0
-0.013679 0.000000 0
-0.019123 0.000000 0
-0.025707 0.000000 0
-0.033347 0.000000 0
-0.041789 0.000000 0
-0.050675 0.000000 0
-0.059612 0.000000 0
-0.068367 0.000000 0
-0.076612 0.000000 0
-0.084133 0.000000 0
-0.090773 0.000000 0
-0.096437 0.000000 0
-0.101074 0.000000 0
-0.104660 0.000000 0
-0.107255 0.000000 0
-0.108794 0.000000 0
-0.109212 0.000000 0
-0.108398 0.000000 0
-0.106186 0.000000 0
-0.102469 0.000000 0
-0.097126 0.000000 0
-0.090121 0.000000 0
-0.081303 0.000000 0
-0.070587 0.000000 0
-0.057965 0.000000 0
-0.043625 0.000000 0
-0.028099 0.000000 0
-0.012466 0.000000 0
0.000917 0.000000 0
0.007758 0.000000 0
0.004879 0.000000 0
0.000000 0.000000 0
0.000000 -0.000767 0
-0.002838 -0.002066 0
-0.006783 -0.001573 0
-0.012226 0.000690 0
-0.019337 0.002817 0
-0.027796 0.004304 0
-0.037342 0.005378 0
-0.047912 0.006363 0
-0.059618 0.007823 0
-0.072721 0.009832 0
-0.087272 0.012029 0
-0.103161 0.014224 0
-0.120083 0.016082 0
-0.137558 0.017328 0
-0.155015 0.017822 0
-0.171884 0.017692 0
-0.187708 0.017000 0
-0.202062 0.015766 0
-0.214643 0.014162 0
-0.225251 0.012304 0
-0.233776 0.010301 0
-0.240175 0.008223 0
-0.244445 0.006181 0
-0.246610 0.004134 0
-0.246606 0.001957 0
-0.244353 -0.000395 0
-0.239764 -0.003026 0
-0.232694 -0.005929 0
-0.222952 -0.009060 0
-0.210323 -0.012348 0
-0.194606 -0.015823 0
-0.175555 -0.019534 0
-0.152991 -0.023338 0
-0.126896 -0.026962 0
-0.097613 -0.029867 0
-0.066137 -0.031159 0
-0.034576 -0.029015 0
-0.006895 -0.020224 0
0.010528 -0.003962 0
0.008913 0.007758 0
0.000000 0.004879 0
0.000000 0.002838 0
-0.012249 0.006783 0
-0.027450 0.009389 0
-0.042737 0.012554 0
-0.058207 0.015570 0
-0.074054 0.018005 0
-0.090434 0.020116 0
-0.107437 0.022276 0
-0.125092 0.024809 0
-0.143008 0.027654 0
-0.160969 0.030440 0
-0.178597 0.032811 0
-0.195503 0.034397 0
-0.211337 0.034932 0
-0.225811 0.034325 0
-0.238710 0.032693 0
-0.249774 0.030178 0
-0.258940 0.026936 0
-0.266161 0.023189 0
-0.271453 0.019133 0
-0.274855 0.014924 0
-0.276419 0.010669 0
-0.276193 0.006435 0
-0.274127 0.002161 0
-0.270245 -0.002257 0
-0.264570 -0.006842 0
-0.257050 -0.011659 0
-0.247641 -0.016812 0
-0.236174 -0.022372 0
-0.222452 -0.028346 0
-0.206169 -0.034767 0
-0.187114 -0.041615 0
-0.165087 -0.048659 0
-0.140029 -0.055377 0
-0.112152 -0.060759 0
-0.082184 -0.063038 0
-0.051769 -0.059243 0
-0.023564 -0.045104 0
-0.001364 -0.015807 0
0.007110 0.010528 0
0.000000 0.008913 0
0.000000 0.011483 0
-0.020125 0.025384 0
-0.042505 0.028915 0
-0.063660 0.031446 0
-0.083851 0.034134 0
-0.103412 0.036532 0
-0.122575 0.038762 0
-0.141393 0.041021 0
-0.159733 0.043394 0
-0.177234 0.045709 0
-0.193596 0.047617 0
-0.208514 0.048757 0
-0.221751 0.048822 0
-0.233168 0.047636 0
-0.242726 0.045196 0
-0.250462 0.041655 0
-0.256421 0.037229 0
-0.260745 0.032153 0
-0.263576 0.026675 0
-0.265048 0.020998 0
-0.265269 0.015268 0
-0.264310 0.009561 0
-0.262197 0.003889 0
-0.258893 -0.001815 0
-0.254442 -0.007600 0
-0.248802 -0.013590 0
-0.241858 -0.019956 0
-0.233483 -0.026806 0
-0.223526 -0.034248 0
-0.211797 -0.042353 0
-0.198044 -0.051161 0
-0.182046 -0.060616 0
-0.163587 -0.070423 0
-0.142520 -0.079897 0
-0.118848 -0.087712 0
-0.092883 -0.091542 0
-0.065471 -0.087635 0
-0.038193 -0.070629 0
-0.013791 -0.034637 0
0.004004 0.006394 0
0.000000 0.011989 0
0.000000 0.022963 0
-0.024003 0.049288 0
-0.049768 0.052924 0
-0.073606 0.053901 0
-0.095718 0.055322 0
-0.116394 0.056729 0
-0.135831 0.058097 0
-0.154062 0.059433 0
-0.170960 0.060650 0
-0.186283 0.061517 0
-0.199823 0.061720 0
-0.211425 0.060966 0
-0.221035 0.059051 0
-0.228701 0.055907 0
-0.234570 0.051619 0
-0.238838 0.046388 0
-0.241716 0.040462 0
-0.243424 0.034090 0
-0.244151 0.027492 0
-0.244031 0.020827 0
-0.243145 0.014186 0
-0.241521 0.007597 0
-0.239142 0.001018 0
-0.235967 -0.005594 0
-0.232004 -0.012348 0
-0.227115 -0.019427 0
-0.221235 -0.026979 0
-0.214264 -0.035143 0
-0.206085 -0.044057 0
-0.196552 -0.053828 0
-0.185483 -0.064518 0
-0.172683 -0.076072 0
-0.157936 -0.088185 0
-0.141016 -0.100116 0
-0.121722 -0.110396 0
-0.099951 -0.116415 0
-0.075848 -0.113932 0
-0.050039 -0.096783 0
-0.024133 -0.058004 0
-0.001590 -0.003263 0
0.000000 0.012916 0
0.000000 0.035485 0
-0.024911 0.075152 0
-0.051498 0.078518 0
-0.075794 0.077396 0
-0.097905 0.076922 0
-0.118046 0.076645 0
-0.136372 0.076430 0
-0.152928 0.076150 0
-0.167657 0.075614 0
-0.180451 0.074572 0
-0.191240 0.072760 0
-0.200019 0.069969 0
-0.206877 0.066098 0
-0.211989 0.061172 0
-0.215591 0.055333 0
-0.217941 0.048801 0
-0.219282 0.041815 0
-0.219821 0.034588 0
-0.219711 0.027281 0
-0.219042 0.019993 0
-0.217852 0.012757 0
-0.216137 0.005557 0
-0.213874 -0.001665 0
-0.211048 -0.008953 0
-0.207586 -0.016452 0
-0.203421 -0.024358 0
-0.198505 -0.032807 0
-0.192774 -0.041956 0
-0.186157 -0.051960 0
-0.178564 -0.062955 0
-0.169877 -0.075031 0
-0.159950 -0.088163 0
-0.148587 -0.102090 0
-0.135522 -0.116112 0
-0.120402 -0.128776 0
-0.102803 -0.137416 0
-0.082314 -0.137547 0
-0.058795 -0.122344 0
-0.033028 -0.083085 0
-0.008436 -0.017739 0
0.000000 0.010399 0
0.000000 0.047874 0
-0.023942 0.100785 0
-0.049715 0.103807 0
-0.073072 0.100309 0
-0.094012 0.097574 0
-0.112690 0.095196 0
-0.129243 0.092980 0
-0.143744 0.090718 0
-0.156219 0.088173 0
-0.166680 0.085100 0
-0.175179 0.081288 0
-0.181824 0.076604 0
-0.186793 0.071021 0
-0.190315 0.064621 0
-0.192648 0.057571 0
-0.194037 0.050079 0
-0.194691 0.042342 0
-0.194771 0.034519 0
-0.194377 0.026713 0
-0.193563 0.018967 0
-0.192345 0.011281 0
-0.190718 0.003619 0
-0.188670 -0.004071 0
-0.186192 -0.011881 0
-0.183195 -0.019975 0
-0.179658 -0.028509 0
-0.175550 -0.037626 0
-0.170842 -0.047491 0
-0.165500 -0.058267 0
-0.159484 -0.070108 0
-0.152735 -0.083132 0
-0.145165 -0.097362 0
-0.136621 -0.112613 0
-0.126842 -0.128301 0
-0.115408 -0.143115 0
-0.101694 -0.154503 0
-0.084905 -0.157940 0
-0.064310 -0.146069 0
-0.039964 -0.108363 0
-0.014564 -0.036291 0
0.000000 0.004480 0
0.000000 0.059428 0
-0.021887 0.124867 0
-0.045891 0.127648 0
-0.067521 0.121693 0
-0.086669 0.116540 0
-0.103455 0.111876 0
-0.118009 0.107484 0
-0.130443 0.103126 0
-0.140852 0.098551 0
-0.149341 0.093532 0
-0.156046 0.087903 0
-0.161147 0.081583 0
-0.164860 0.074590 0
-0.167424 0.067027 0
-0.169071 0.059054 0
-0.170008 0.050844 0
-0.170392 0.042549 0
-0.170335 0.034274 0
-0.169902 0.026074 0
-0.169125 0.017961 0
-0.168015 0.009913 0
-0.166570 0.001882 0
-0.164776 -0.006191 0
-0.162618 -0.014427 0
-0.160047 -0.022986 0
-0.157051 -0.032003 0
-0.153614 -0.041623 0
-0.149729 -0.052007 0
-0.145390 -0.063318 0
-0.140595 -0.075719 0
-0.135332 -0.089349 0
-0.129563 -0.104278 0
-0.123194 -0.120413 0
-0.116010 -0.137324 0
-0.107598 -0.153925 0
-0.097255 -0.167919 0
-0.083952 -0.174932 0
-0.066501 -0.167285 0
-0.044227 -0.132831 0
-0.018813 -0.057703 0
0.000000 -0.004165 0
0.000000 0.069760 0
-0.019263 0.146676 0
-0.041022 0.149441 0
-0.060560 0.141086 0
-0.077665 0.133507 0
-0.092443 0.126537 0
-0.105027 0.119968 0
-0.115557 0.113561 0
-0.124183 0.107071 0
-0.131067 0.100294 0
-0.136397 0.093094 0
-0.140385 0.085417 0
-0.143254 0.077297 0
-0.145226 0.068832 0
-0.146496 0.060156 0
-0.147224 0.051400 0
-0.147524 0.042669 0
-0.147470 0.034029 0
-0.147104 0.025503 0
-0.146445 0.017080 0
-0.145501 0.008725 0
-0.144268 0.000380 0
-0.142736 -0.008022 0
-0.140890 -0.016610 0
-0.138709 -0.025542 0
-0.136185 -0.034942 0
-0.133313 -0.044948 0
-0.130097 -0.055715 0
-0.126551 -0.067400 0
-0.122690 -0.080167 0
-0.118535 -0.094164 0
-0.114087 -0.109500 0
-0.109303 -0.126167 0
-0.104036 -0.143897 0
-0.097937 -0.161869 0
-0.090325 -0.178148 0
-0.080076 -0.188694 0
-0.065682 -0.185795 0
-0.045811 -0.156052 0
-0.021103 -0.080519 0
0.000000 -0.014332 0
0.000000 0.078691 0
-0.016421 0.165889 0
-0.035761 0.168945 0
-0.053110 0.158337 0
-0.068154 0.148423 0
-0.080990 0.139237 0
-0.091757 0.130599 0
-0.100620 0.122282 0
-0.107754 0.114060 0
-0.113355 0.105746 0
-0.117633 0.097221 0
-0.120804 0.088440 0
-0.123082 0.079431 0
-0.124659 0.070269 0
-0.125696 0.061052 0
-0.126314 0.051872 0
-0.126594 0.042795 0
-0.126586 0.033854 0
-0.126315 0.025049 0
-0.125793 0.016358 0
-0.125020 0.007736 0
-0.123994 -0.000883 0
-0.122713 -0.009569 0
-0.121161 -0.018454 0
-0.119331 -0.027691 0
-0.117221 -0.037400 0
-0.114832 -0.047711 0
-0.112173 -0.058769 0
-0.109265 -0.070725 0
-0.106134 -0.083735 0
-0.102812 -0.097953 0
-0.099324 -0.113509 0
-0.095666 -0.130463 0
-0.091753 -0.148690 0
-0.087323 -0.167636 0
-0.081792 -0.185780 0
-0.074066 -0.199575 0
-0.062479 -0.201550 0
-0.045205 -0.177411 0
-0.021998 -0.103513 0
0.000000 -0.025268 0
0.000000 0.086182 0
-0.013589 0.182438 0
-0.030521 0.186130 0
-0.045741 0.173478 0
-0.058829 0.161386 0
-0.069882 0.150141 0
-0.079042 0.139598 0
-0.086481 0.129557 0
-0.092390 0.119806 0
-0.096971 0.110173 0
-0.100435 0.100543 0
-0.102990 0.090866 0
-0.104827 0.081152 0
-0.106111 0.071447 0
-0.106973 0.061810 0
-0.107505 0.052297 0
-0.107769 0.042941 0
-0.107797 0.033750 0
-0.107606 0.024710 0
-0.107202 0.015785 0
-0.106580 0.006927 0
-0.105737 -0.001927 0
-0.104677 -0.010855 0
-0.103384 -0.019992 0
-0.101861 -0.029482 0
-0.100108 -0.039442 0
-0.098131 -0.049996 0
-0.095941 -0.061282 0
-0.093559 -0.073440 0
-0.091013 -0.086620 0
-0.088338 -0.100974 0
-0.085567 -0.116646 0
-0.082713 -0.133739 0
-0.079740 -0.152241 0
-0.076473 -0.171830 0
-0.072455 -0.191405 0
-0.066719 -0.208007 0
-0.057596 -0.214656 0
-0.042945 -0.196533 0
-0.021767 -0.125723 0
0.000000 -0.036330 0
0.000000 0.092280 0
-0.010895 0.196410 0
-0.025535 0.201096 0
-0.038768 0.186645 0
-0.050072 0.172565 0
-0.059536 0.159450 0
-0.067304 0.147198 0
-0.073547 0.135630 0
-0.078454 0.124550 0
-0.082222 0.113792 0
-0.085048 0.103240 0
-0.087121 0.092832 0
-0.088609 0.082552 0
-0.089651 0.072415 0
-0.090356 0.062446 0
-0.090797 0.052667 0
-0.091021 0.043086 0
-0.091055 0.033692 0
-0.090910 0.024454 0
-0.090588 0.015331 0
-0.090082 0.006271 0
-0.089389 -0.002786 0
-0.088506 -0.011923 0
-0.087429 -0.021270 0
-0.086164 -0.030966 0
-0.084714 -0.041129 0
-0.083084 -0.051878 0
-0.081287 -0.063341 0
-0.079342 -0.075653 0
-0.077276 -0.088955 0
-0.075120 -0.103399 0
-0.072904 -0.119134 0
-0.070650 -0.136290 0
-0.068345 -0.154931 0
-0.065885 -0.174920 0
-0.062942 -0.195534 0
-0.058726 -0.214434 0
-0.051694 -0.225324 0
-0.039565 -0.213240 0
-0.020728 -0.146459 0
0.000000 -0.047034 0
0.000000 0.097076 0
-0.008398 0.207972 0
-0.020915 0.214004 0
-0.032344 0.198016 0
-0.042053 0.182154 0
-0.050125 0.167372 0
-0.056701 0.153610 0
-0.061943 0.140707 0
-0.066030 0.128481 0
-0.069141 0.116766 0
-0.071455 0.105442 0
-0.073138 0.094427 0
-0.074336 0.083683 0
-0.075165 0.073194 0
-0.075717 0.062956 0
-0.076052 0.052962 0
-0.076212 0.043200 0
-0.076218 0.033639 0
-0.076081 0.024242 0
-0.075801 0.014957 0
-0.075372 0.005728 0
-0.074788 -0.003503 0
-0.074042 -0.012815 0
-0.073136 -0.022334 0
-0.072080 -0.032197 0
-0.070877 -0.042522 0
-0.069535 -0.053423 0
-0.068064 -0.065023 0
-0.066483 -0.077450 0
-0.064815 -0.090841 0
-0.063085 -0.105346 0
-0.061319 -0.121116 0
-0.059535 -0.138298 0
-0.057735 -0.157005 0
-0.055859 -0.177232 0
-0.053686 -0.198564 0
-0.050621 -0.219254 0
-0.045327 -0.233817 0
-0.035537 -0.227499 0
-0.019179 -0.165288 0
0.000000 -0.057058 0
0.000000 0.100679 0
-0.006121 0.217325 0
-0.016697 0.225041 0
-0.026508 0.207783 0
-0.034809 0.190346 0
-0.041672 0.174098 0
-0.047228 0.159016 0
-0.051630 0.144958 0
-0.055037 0.131747 0
-0.057610 0.119217 0
-0.059504 0.107238 0
-0.060862 0.095713 0
-0.061808 0.084579 0
-0.062443 0.073796 0
-0.062843 0.063333 0
-0.063063 0.053163 0
-0.063138 0.043252 0
-0.063089 0.033560 0
-0.062927 0.024036 0
-0.062654 0.014623 0
-0.062266 0.005258 0
-0.061753 -0.004117 0
-0.061106 -0.013574 0
-0.060332 -0.023232 0
-0.059438 -0.033225 0
-0.058433 -0.043674 0
-0.057323 -0.054692 0
-0.056120 -0.066393 0
-0.054841 -0.078902 0
-0.053504 -0.092353 0
-0.052132 -0.106895 0
-0.050741 -0.122684 0
-0.049348 -0.139874 0
-0.047958 -0.158608 0
-0.046537 -0.178969 0
-0.044948 -0.200772 0
-0.042767 -0.222793 0
-0.038907 -0.240408 0
-0.031234 -0.239389 0
-0.017354 -0.181996 0
0.000000 -0.066213 0
0.000000 0.103197 0
-0.004055 0.224670 0
-0.012865 0.234391 0
-0.021233 0.216128 0
-0.028298 0.197318 0
-0.034109 0.179791 0
-0.038791 0.163568 0
-0.042480 0.148516 0
-0.045315 0.134460 0
-0.047436 0.121233 0
-0.048975 0.108694 0
-0.050054 0.096732 0
-0.050779 0.085265 0
-0.051234 0.074229 0
-0.051487 0.063575 0
-0.051586 0.053257 0
-0.051565 0.043225 0
-0.051443 0.033429 0
-0.051235 0.023808 0
-0.050943 0.014296 0
-0.050566 0.004826 0
-0.050091 -0.004663 0
-0.049511 -0.014236 0
-0.048833 -0.024002 0
-0.048062 -0.034096 0
-0.047209 -0.044637 0
-0.046285 -0.055736 0
-0.045301 -0.067505 0
-0.044273 -0.080066 0
-0.043216 -0.093550 0
-0.042146 -0.108109 0
-0.041078 -0.123899 0
-0.040025 -0.141081 0
-0.038991 -0.159816 0
-0.037959 -0.180243 0
-0.036847 -0.202335 0
-0.035376 -0.225295 0
-0.032706 -0.245350 0
-0.026920 -0.249053 0
-0.015425 -0.196522 0
0.000000 -0.074412 0
0.000000 0.104733 0
-0.002173 0.230190 0
-0.009373 0.242220 0
-0.016452 0.223215 0
-0.022428 0.203222 0
-0.027322 0.184591 0
-0.031248 0.167387 0
-0.034323 0.151482 0
-0.036667 0.136703 0
-0.038400 0.122877 0
-0.039631 0.109856 0
-0.040465 0.097516 0
-0.040989 0.085759 0
-0.041279 0.074505 0
-0.041392 0.063685 0
-0.041371 0.053240 0
-0.041249 0.043109 0
-0.041048 0.033230 0
-0.040779 0.023536 0
-0.040452 0.013954 0
-0.040064 0.004406 0
-0.039606 -0.005171 0
-0.039066 -0.014833 0
-0.038454 -0.024681 0
-0.037775 -0.034848 0
-0.037039 -0.045452 0
-0.036262 -0.056600 0
-0.035458 -0.068405 0
-0.034641 -0.080987 0
-0.033821 -0.094480 0
-0.033012 -0.109034 0
-0.032226 -0.124806 0
-0.031477 -0.141961 0
-0.030770 -0.160673 0
-0.030095 -0.181113 0
-0.029409 -0.203355 0
-0.028543 -0.226934 0
-0.026878 -0.248864 0
-0.022764 -0.256669 0
-0.013510 -0.208916 0
0.000000 -0.081638 0
0.000000 0.105370 0
-0.000471 0.234043 0
-0.006153 0.248671 0
-0.012075 0.229182 0
-0.017085 0.208187 0
-0.021174 0.188611 0
-0.024436 0.170569 0
-0.026973 0.153936 0
-0.028888 0.138537 0
-0.030277 0.124197 0
-0.031236 0.110759 0
-0.031848 0.098090 0
-0.032191 0.086079 0
-0.032327 0.074632 0
-0.032308 0.063668 0
-0.032173 0.053114 0
-0.031953 0.042901 0
-0.031670 0.032959 0
-0.031337 0.023212 0
-0.030965 0.013581 0
-0.030554 0.003980 0
-0.030095 -0.005661 0
-0.029576 -0.015388 0
-0.029008 -0.025294 0
-0.028395 -0.035512 0
-0.027751 -0.046150 0
-0.027095 -0.057316 0
-0.026442 -0.069126 0
-0.025803 -0.081703 0
-0.025188 -0.095179 0
-0.024607 -0.109704 0
-0.024076 -0.125434 0
-0.023606 -0.142538 0
-0.023206 -0.161199 0
-0.022874 -0.181604 0
-0.022595 -0.203886 0
-0.022276 -0.227826 0
-0.021485 -0.251129 0
-0.018856 -0.262421 0
-0.011677 -0.219287 0
0.000000 -0.087922 0
0.000000 0.105205 0
0.001065 0.236343 0
-0.003131 0.253823 0
-0.007998 0.234148 0
-0.012148 0.212320 0
-0.015517 0.191942 0
-0.018188 0.173187 0
-0.020247 0.155935 0
-0.021776 0.140007 0
-0.022857 0.125225 0
-0.023566 0.111427 0
-0.023976 0.098471 0
-0.024151 0.086238 0
-0.024144 0.074621 0
-0.024002 0.063531 0
-0.023760 0.052885 0
-0.023448 0.042605 0
-0.023086 0.032614 0
-0.022690 0.022832 0
-0.022271 0.013171 0
-0.021829 0.003536 0
-0.021355 -0.006149 0
-0.020840 -0.015920 0
-0.020300 -0.025861 0
-0.019741 -0.036105 0
-0.019178 -0.046752 0
-0.018629 -0.057908 0
-0.018107 -0.069697 0
-0.017622 -0.082242 0
-0.017185 -0.095676 0
-0.016809 -0.110146 0
-0.016510 -0.125807 0
-0.016303 -0.142831 0
-0.016199 -0.161405 0
-0.016207 -0.181724 0
-0.016331 -0.203954 0
-0.016527 -0.228044 0
-0.016523 -0.252284 0
-0.015220 -0.266478 0
-0.009956 -0.227771 0
0.000000 -0.093315 0
0.000000 0.104305 0
0.002491 0.237174 0
-0.000220 0.257734 0
-0.004129 0.238199 0
-0.007487 0.215706 0
-0.010208 0.194652 0
-0.012344 0.175299 0
-0.013967 0.157523 0
-0.015143 0.141147 0
-0.015939 0.125987 0
-0.016417 0.111879 0
-0.016638 0.098674 0
-0.016654 0.086246 0
-0.016514 0.074483 0
-0.016256 0.063284 0
-0.015916 0.052560 0
-0.015518 0.042227 0
-0.015084 0.032201 0
-0.014631 0.022398 0
-0.014168 0.012720 0
-0.013693 0.003064 0
-0.013186 -0.006650 0
-0.012665 -0.016442 0
-0.012144 -0.026393 0
-0.011636 -0.036634 0
-0.011152 -0.047262 0
-0.010703 -0.058388 0
-0.010299 -0.070134 0
-0.009952 -0.082625 0
-0.009675 -0.095992 0
-0.009487 -0.110379 0
-0.009406 -0.125940 0
-0.009449 -0.142850 0
-0.009636 -0.161295 0
-0.009986 -0.181472 0
-0.010517 -0.203567 0
-0.011214 -0.227634 0
-0.011942 -0.252435 0
-0.011842 -0.268988 0
-0.008347 -0.234507 0
0.000000 -0.097877 0
0.000000 0.102714 0
0.003856 0.236563 0
0.002637 0.260443 0
-0.000327 0.241414 0
-0.002983 0.218399 0
-0.005110 0.196799 0
-0.006748 0.176946 0
-0.007965 0.158733 0
-0.008813 0.141979 0
-0.009340 0.126500 0
-0.009599 0.112126 0
-0.009639 0.098708 0
-0.009505 0.086113 0
-0.009237 0.074224 0
-0.008872 0.062934 0
-0.008439 0.052147 0
-0.007962 0.041774 0
-0.007464 0.031728 0
-0.006959 0.021916 0
-0.006459 0.012232 0
-0.005952 0.002554 0
-0.005401 -0.007177 0
-0.004872 -0.016962 0
-0.004373 -0.026891 0
-0.003919 -0.037097 0
-0.003513 -0.047684 0
-0.003158 -0.058761 0
-0.002862 -0.070448 0
-0.002641 -0.082865 0
-0.002514 -0.096141 0
-0.002503 -0.110415 0
-0.002631 -0.125844 0
-0.002921 -0.142600 0
-0.003400 -0.160868 0
-0.004098 -0.180843 0
-0.005040 -0.202726 0
-0.006237 -0.226620 0
-0.007666 -0.251656 0
-0.008675 -0.270072 0
-0.006835 -0.239613 0
0.000000 -0.101662 0
0.000000 0.100449 0
0.005207 0.234537 0
0.005478 0.261916 0
0.003510 0.243819 0
0.001508 0.220490 0
-0.000066 0.198417 0
-0.001250 0.178154 0
-0.002090 0.159588 0
-0.002625 0.142522 0
-0.002894 0.126774 0
-0.002940 0.112177 0
-0.002804 0.098580 0
-0.002523 0.085845 0
-0.002132 0.073850 0
-0.001663 0.062485 0
-0.001142 0.051651 0
-0.000591 0.041252 0
-0.000026 0.031199 0
0.000543 0.021393 0
0.001102 0.011712 0
0.001645 0.002006 0
0.002194 -0.007729 0
0.002696 -0.017470 0
0.003150 -0.027346 0
0.003550 -0.037494 0
0.003890 -0.048023 0
0.004165 -0.059039 0
0.004363 -0.070650 0
0.004465 -0.082972 0
0.004448 -0.096130 0
0.004285 -0.110262 0
0.003950 -0.125522 0
0.003410 -0.142080 0
0.002632 -0.160118 0
0.001581 -0.179832 0
0.000224 -0.201427 0
-0.001489 -0.225009 0
-0.003602 -0.249996 0
-0.005658 -0.269819 0
-0.005392 -0.243182 0
0.000000 -0.104712 0
0.000000 0.097507 0
0.006584 0.231085 0
0.008378 0.262140 0
0.007436 0.245384 0
0.006116 0.221975 0
0.005060 0.199558 0
0.004295 0.178970 0
0.003813 0.160108 0
0.003580 0.142783 0
0.003562 0.126815 0
0.003726 0.112036 0
0.004038 0.098290 0
0.004466 0.085442 0
0.004980 0.073364 0
0.005554 0.061944 0
0.006163 0.051075 0
0.006790 0.040658 0
0.007424 0.030593 0
0.008059 0.020789 0
0.008676 0.011131 0
0.009250 0.001462 0
0.009759 -0.008227 0
0.010209 -0.017918 0
0.010611 -0.027745 0
0.010957 -0.037836 0
0.011238 -0.048299 0
0.011439 -0.059235 0
0.011543 -0.070748 0
0.011529 -0.082950 0
0.011369 -0.095961 0
0.011035 -0.109918 0
0.010490 -0.124969 0
0.009696 -0.141282 0
0.008609 -0.159039 0
0.007187 -0.178435 0
0.005382 -0.199657 0
0.003120 -0.222793 0
0.000353 -0.247486 0
-0.002715 -0.268282 0
-0.003984 -0.245271 0
0.000000 -0.107055 0
0.000000 0.093865 0
0.008025 0.226158 0
0.011413 0.261065 0
0.011553 0.246081 0
0.010928 0.222866 0
0.010373 0.200237 0
0.010023 0.179401 0
0.009890 0.160304 0
0.009951 0.142772 0
0.010181 0.126628 0
0.010554 0.111702 0
0.011045 0.097839 0
0.011624 0.084902 0
0.012267 0.072762 0
0.012950 0.061303 0
0.013655 0.050415 0
0.014363 0.039991 0
0.015062 0.029930 0
0.015738 0.020142 0
0.016375 0.010521 0
0.016958 0.000923 0
0.017442 -0.008688 0
0.017857 -0.018322 0
0.018215 -0.028095 0
0.018510 -0.038122 0
0.018726 -0.048505 0
0.018848 -0.059345 0
0.018855 -0.070740 0
0.018722 -0.082798 0
0.018419 -0.095636 0
0.017910 -0.109383 0
0.017152 -0.124183 0
0.016097 -0.140199 0
0.014689 -0.157610 0
0.012870 -0.176604 0
0.010572 -0.197361 0