# vtk DataFile Version 2.0
generated by CFD-lab course output (written by Tobias Neckel) 
ASCII

DATASET STRUCTURED_GRID
DIMENSIONS  41 41 1 
POINTS 1681 float

0.150000 0.150000 0
0.167857 0.150000 0
0.185714 0.150000 0
0.203571 0.150000 0
0.221429 0.150000 0
0.239286 0.150000 0
0.257143 0.150000 0
0.275000 0.150000 0
0.292857 0.150000 0
0.310714 0.150000 0
0.328571 0.150000 0
0.346429 0.150000 0
0.364286 0.150000 0
0.382143 0.150000 0
0.400000 0.150000 0
0.417857 0.150000 0
0.435714 0.150000 0
0.453571 0.150000 0
0.471429 0.150000 0
0.489286 0.150000 0
0.507143 0.150000 0
0.525000 0.150000 0
0.542857 0.150000 0
0.560714 0.150000 0
0.578571 0.150000 0
0.596429 0.150000 0
0.614286 0.150000 0
0.632143 0.150000 0
0.650000 0.150000 0
0.667857 0.150000 0
0.685714 0.150000 0
0.703571 0.150000 0
0.721429 0.150000 0
0.739286 0.150000 0
0.757143 0.150000 0
0.775000 0.150000 0
0.792857 0.150000 0
0.810714 0.150000 0
0.828571 0.150000 0
0.846429 0.150000 0
0.864286 0.150000 0
0.150000 0.167857 0
0.167857 0.167857 0
0.185714 0.167857 0
0.203571 0.167857 0
0.221429 0.167857 0
0.239286 0.167857 0
0.257143 0.167857 0
0.275000 0.167857 0
0.292857 0.167857 0
0.310714 0.167857 0
0.328571 0.167857 0
0.346429 0.167857 0
0.364286 0.167857 0
0.382143 0.167857 0
0.400000 0.167857 0
0.417857 0.167857 0
0.435714 0.167857 0
0.453571 0.167857 0
0.471429 0.167857 0
0.489286 0.167857 0
0.507143 0.167857 0
0.525000 0.167857 0
0.542857 0.167857 0
0.560714 0.167857 0
0.578571 0.167857 0
0.596429 0.167857 0
0.614286 0.167857 0
0.632143 0.167857 0
0.650000 0.167857 0
0.667857 0.167857 0
0.685714 0.167857 0
0.703571 0.167857 0
0.721429 0.167857 0
0.739286 0.167857 0
0.757143 0.167857 0
0.775000 0.167857 0
0.792857 0.167857 0
0.810714 0.167857 0
0.828571 0.167857 0
0.846429 0.167857 0
0.864286 0.167857 0
0.150000 0.185714 0
0.167857 0.185714 0
0.185714 0.185714 0
0.203571 0.185714 0
0.221429 0.185714 0
0.239286 0.185714 0
0.257143 0.185714 0
0.275000 0.185714 0
0.292857 0.185714 0
0.310714 0.185714 0
0.328571 0.185714 0
0.346429 0.185714 0
0.364286 0.185714 0
0.382143 0.185714 0
0.400000 0.185714 0
0.417857 0.185714 0
0.435714 0.185714 0
0.453571 0.185714 0
0.471429 0.185714 0
0.489286 0.185714 0
0.507143 0.185714 0
0.525000 0.185714 0
0.542857 0.185714 0
0.560714 0.185714 0
0.578571 0.185714 0
0.596429 0.185714 0
0.614286 0.185714 0
0.632143 0.185714 0
0.650000 0.185714 0
0.667857 0.185714 0
0.685714 0.185714 0
0.703571 0.185714 0
0.721429 0.185714 0
0.739286 0.185714 0
0.757143 0.185714 0
0.775000 0.185714 0
0.792857 0.185714 0
0.810714 0.185714 0
0.828571 0.185714 0
0.846429 0.185714 0
0.864286 0.185714 0
0.150000 0.203571 0
0.167857 0.203571 0
0.185714 0.203571 0
0.203571 0.203571 0
0.221429 0.203571 0
0.239286 0.203571 0
0.257143 0.203571 0
0.275000 0.203571 0
0.292857 0.203571 0
0.310714 0.203571 0
0.328571 0.203571 0
0.346429 0.203571 0
0.364286 0.203571 0
0.382143 0.203571 0
0.400000 0.203571 0
0.417857 0.203571 0
0.435714 0.203571 0
0.453571 0.203571 0
0.471429 0.203571 0
0.489286 0.203571 0
0.507143 0.203571 0
0.525000 0.203571 0
0.542857 0.203571 0
0.560714 0.203571 0
0.578571 0.203571 0
0.596429 0.203571 0
0.614286 0.203571 0
0.632143 0.203571 0
0.650000 0.203571 0
0.667857 0.203571 0
0.685714 0.203571 0
0.703571 0.203571 0
0.721429 0.203571 0
0.739286 0.203571 0
0.757143 0.203571 0
0.775000 0.203571 0
0.792857 0.203571 0
0.810714 0.203571 0
0.828571 0.203571 0
0.846429 0.203571 0
0.864286 0.203571 0
0.150000 0.221429 0
0.167857 0.221429 0
0.185714 0.221429 0
0.203571 0.221429 0
0.221429 0.221429 0
0.239286 0.221429 0
0.257143 0.221429 0
0.275000 0.221429 0
0.292857 0.221429 0
0.310714 0.221429 0
0.328571 0.221429 0
0.346429 0.221429 0
0.364286 0.221429 0
0.382143 0.221429 0
0.400000 0.221429 0
0.417857 0.221429 0
0.435714 0.221429 0
0.453571 0.221429 0
0.471429 0.221429 0
0.489286 0.221429 0
0.507143 0.221429 0
0.525000 0.221429 0
0.542857 0.221429 0
0.560714 0.221429 0
0.578571 0.221429 0
0.596429 0.221429 0
0.614286 0.221429 0
0.632143 0.221429 0
0.650000 0.221429 0
0.667857 0.221429 0
0.685714 0.221429 0
0.703571 0.221429 0
0.721429 0.221429 0
0.739286 0.221429 0
0.757143 0.221429 0
0.775000 0.221429 0
0.792857 0.221429 0
0.810714 0.221429 0
0.828571 0.221429 0
0.846429 0.221429 0
0.864286 0.221429 0
0.150000 0.239286 0
0.167857 0.239286 0
0.185714 0.239286 0
0.203571 0.239286 0
0.221429 0.239286 0
0.239286 0.239286 0
0.257143 0.239286 0
0.275000 0.239286 0
0.292857 0.239286 0
0.310714 0.239286 0
0.328571 0.239286 0
0.346429 0.239286 0
0.364286 0.239286 0
0.382143 0.239286 0
0.400000 0.239286 0
0.417857 0.239286 0
0.435714 0.239286 0
0.453571 0.239286 0
0.471429 0.239286 0
0.489286 0.239286 0
0.507143 0.239286 0
0.525000 0.239286 0
0.542857 0.239286 0
0.560714 0.239286 0
0.578571 0.239286 0
0.596429 0.239286 0
0.614286 0.239286 0
0.632143 0.239286 0
0.650000 0.239286 0
0.667857 0.239286 0
0.685714 0.239286 0
0.703571 0.239286 0
0.721429 0.239286 0
0.739286 0.239286 0
0.757143 0.239286 0
0.775000 0.239286 0
0.792857 0.239286 0
0.810714 0.239286 0
0.828571 0.239286 0
0.846429 0.239286 0
0.864286 0.239286 0
0.150000 0.257143 0
0.167857 0.257143 0
0.185714 0.257143 0
0.203571 0.257143 0
0.221429 0.257143 0
0.239286 0.257143 0
0.257143 0.257143 0
0.275000 0.257143 0
0.292857 0.257143 0
0.310714 0.257143 0
0.328571 0.257143 0
0.346429 0.257143 0
0.364286 0.257143 0
0.382143 0.257143 0
0.400000 0.257143 0
0.417857 0.257143 0
0.435714 0.257143 0
0.453571 0.257143 0
0.471429 0.257143 0
0.489286 0.257143 0
0.507143 0.257143 0
0.525000 0.257143 0
0.542857 0.257143 0
0.560714 0.257143 0
0.578571 0.257143 0
0.596429 0.257143 0
0.614286 0.257143 0
0.632143 0.257143 0
0.650000 0.257143 0
0.667857 0.257143 0
0.685714 0.257143 0
0.703571 0.257143 0
0.721429 0.257143 0
0.739286 0.257143 0
0.757143 0.257143 0
0.775000 0.257143 0
0.792857 0.257143 0
0.810714 0.257143 0
0.828571 0.257143 0
0.846429 0.257143 0
0.864286 0.257143 0
0.150000 0.275000 0
0.167857 0.275000 0
0.185714 0.275000 0
0.203571 0.275000 0
0.221429 0.275000 0
0.239286 0.275000 0
0.257143 0.275000 0
0.275000 0.275000 0
0.292857 0.275000 0
0.310714 0.275000 0
0.328571 0.275000 0
0.346429 0.275000 0
0.364286 0.275000 0
0.382143 0.275000 0
0.400000 0.275000 0
0.417857 0.275000 0
0.435714 0.275000 0
0.453571 0.275000 0
0.471429 0.275000 0
0.489286 0.275000 0
0.507143 0.275000 0
0.525000 0.275000 0
0.542857 0.275000 0
0.560714 0.275000 0
0.578571 0.275000 0
0.596429 0.275000 0
0.614286 0.275000 0
0.632143 0.275000 0
0.650000 0.275000 0
0.667857 0.275000 0
0.685714 0.275000 0
0.703571 0.275000 0
0.721429 0.275000 0
0.739286 0.275000 0
0.757143 0.275000 0
0.775000 0.275000 0
0.792857 0.275000 0
0.810714 0.275000 0
0.828571 0.275000 0
0.846429 0.275000 0
0.864286 0.275000 0
0.150000 0.292857 0
0.167857 0.292857 0
0.185714 0.292857 0
0.203571 0.292857 0
0.221429 0.292857 0
0.239286 0.292857 0
0.257143 0.292857 0
0.275000 0.292857 0
0.292857 0.292857 0
0.310714 0.292857 0
0.328571 0.292857 0
0.346429 0.292857 0
0.364286 0.292857 0
0.382143 0.292857 0
0.400000 0.292857 0
0.417857 0.292857 0
0.435714 0.292857 0
0.453571 0.292857 0
0.471429 0.292857 0
0.489286 0.292857 0
0.507143 0.292857 0
0.525000 0.292857 0
0.542857 0.292857 0
0.560714 0.292857 0
0.578571 0.292857 0
0.596429 0.292857 0
0.614286 0.292857 0
0.632143 0.292857 0
0.650000 0.292857 0
0.667857 0.292857 0
0.685714 0.292857 0
0.703571 0.292857 0
0.721429 0.292857 0
0.739286 0.292857 0
0.757143 0.292857 0
0.775000 0.292857 0
0.792857 0.292857 0
0.810714 0.292857 0
0.828571 0.292857 0
0.846429 0.292857 0
0.864286 0.292857 0
0.150000 0.310714 0
0.167857 0.310714 0
0.185714 0.310714 0
0.203571 0.310714 0
0.221429 0.310714 0
0.239286 0.310714 0
0.257143 0.310714 0
0.275000 0.310714 0
0.292857 0.310714 0
0.310714 0.310714 0
0.328571 0.310714 0
0.346429 0.310714 0
0.364286 0.310714 0
0.382143 0.310714 0
0.400000 0.310714 0
0.417857 0.310714 0
0.435714 0.310714 0
0.453571 0.310714 0
0.471429 0.310714 0
0.489286 0.310714 0
0.507143 0.310714 0
0.525000 0.310714 0
0.542857 0.310714 0
0.560714 0.310714 0
0.578571 0.310714 0
0.596429 0.310714 0
0.614286 0.310714 0
0.632143 0.310714 0
0.650000 0.310714 0
0.667857 0.310714 0
0.685714 0.310714 0
0.703571 0.310714 0
0.721429 0.310714 0
0.739286 0.310714 0
0.757143 0.310714 0
0.775000 0.310714 0
0.792857 0.310714 0
0.810714 0.310714 0
0.828571 0.310714 0
0.846429 0.310714 0
0.864286 0.310714 0
0.150000 0.328571 0
0.167857 0.328571 0
0.185714 0.328571 0
0.203571 0.328571 0
0.221429 0.328571 0
0.239286 0.328571 0
0.257143 0.328571 0
0.275000 0.328571 0
0.292857 0.328571 0
0.310714 0.328571 0
0.328571 0.328571 0
0.346429 0.328571 0
0.364286 0.328571 0
0.382143 0.328571 0
0.400000 0.328571 0
0.417857 0.328571 0
0.435714 0.328571 0
0.453571 0.328571 0
0.471429 0.328571 0
0.489286 0.328571 0
0.507143 0.328571 0
0.525000 0.328571 0
0.542857 0.328571 0
0.560714 0.328571 0
0.578571 0.328571 0
0.596429 0.328571 0
0.614286 0.328571 0
0.632143 0.328571 0
0.650000 0.328571 0
0.667857 0.328571 0
0.685714 0.328571 0
0.703571 0.328571 0
0.721429 0.328571 0
0.739286 0.328571 0
0.757143 0.328571 0
0.775000 0.328571 0
0.792857 0.328571 0
0.810714 0.328571 0
0.828571 0.328571 0
0.846429 0.328571 0
0.864286 0.328571 0
0.150000 0.346429 0
0.167857 0.346429 0
0.185714 0.346429 0
0.203571 0.346429 0
0.221429 0.346429 0
0.239286 0.346429 0
0.257143 0.346429 0
0.275000 0.346429 0
0.292857 0.346429 0
0.310714 0.346429 0
0.328571 0.346429 0
0.346429 0.346429 0
0.364286 0.346429 0
0.382143 0.346429 0
0.400000 0.346429 0
0.417857 0.346429 0
0.435714 0.346429 0
0.453571 0.346429 0
0.471429 0.346429 0
0.489286 0.346429 0
0.507143 0.346429 0
0.525000 0.346429 0
0.542857 0.346429 0
0.560714 0.346429 0
0.578571 0.346429 0
0.596429 0.346429 0
0.614286 0.346429 0
0.632143 0.346429 0
0.650000 0.346429 0
0.667857 0.346429 0
0.685714 0.346429 0
0.703571 0.346429 0
0.721429 0.346429 0
0.739286 0.346429 0
0.757143 0.346429 0
0.775000 0.346429 0
0.792857 0.346429 0
0.810714 0.346429 0
0.828571 0.346429 0
0.846429 0.346429 0
[...]
POINT_DATA 1681 

VECTORS velocity float
0.000000 0.000000 0
0.005988 0.000000 0
0.012275 0.000000 0
0.014738 0.000000 0
0.014650 0.000000 0
0.014297 0.000000 0
0.012197 0.000000 0
0.016546 0.000000 0
0.021884 0.000000 0
0.012156 0.000000 0
-0.005561 0.000000 0
-0.025580 0.000000 0
-0.046084 0.000000 0
-0.065997 0.000000 0
-0.084581 0.000000 0
-0.101395 0.000000 0
-0.116277 0.000000 0
-0.129082 0.000000 0
-0.139770 0.000000 0
-0.148335 0.000000 0
-0.154793 0.000000 0
-0.159161 0.000000 0
-0.161442 0.000000 0
-0.161657 0.000000 0
-0.159681 0.000000 0
-0.155396 0.000000 0
-0.148737 0.000000 0
-0.139627 0.000000 0
-0.127999 0.000000 0
-0.113805 0.000000 0
-0.097124 0.000000 0
-0.078038 0.000000 0
-0.056809 0.000000 0
-0.033927 0.000000 0
-0.010209 0.000000 0
0.012988 0.000000 0
0.028381 0.000000 0
0.031175 0.000000 0
0.023274 0.000000 0
0.010951 0.000000 0
0.000000 0.000000 0
0.000000 -0.005988 0
0.015935 -0.012275 0
0.029331 -0.008750 0
0.034843 -0.002376 0
0.034481 0.000441 0
0.034809 0.002453 0
0.026561 -0.002250 0
0.008115 -0.009687 0
-0.016030 0.004391 0
-0.047527 0.027445 0
-0.085550 0.037735 0
-0.125779 0.040523 0
-0.165596 0.040418 0
-0.203266 0.038497 0
-0.237690 0.035398 0
-0.268245 0.031697 0
-0.294652 0.027687 0
-0.316782 0.023493 0
-0.334631 0.019253 0
-0.348246 0.015023 0
-0.357696 0.010826 0
-0.363042 0.006649 0
-0.364312 0.002496 0
-0.361494 -0.001761 0
-0.354527 -0.006261 0
-0.343335 -0.010944 0
-0.327785 -0.015769 0
-0.307735 -0.020738 0
-0.283055 -0.025822 0
-0.253663 -0.030875 0
-0.219604 -0.035768 0
-0.181073 -0.040315 0
-0.138584 -0.044111 0
-0.093180 -0.046600 0
-0.046785 -0.046914 0
-0.002854 -0.038591 0
0.032506 -0.018188 0
0.048655 0.005107 0
0.037600 0.020225 0
0.017625 0.023274 0
0.000000 0.010951 0
0.000000 -0.015935 0
0.018995 -0.029331 0
0.030414 -0.018908 0
0.034672 -0.005150 0
0.024091 0.000034 0
0.003523 0.007920 0
-0.024847 0.026694 0
-0.069630 0.042591 0
-0.122146 0.055642 0
-0.164917 0.069520 0
-0.203355 0.078251 0
-0.239907 0.080046 0
-0.273867 0.077487 0
-0.304523 0.072094 0
-0.331495 0.064979 0
-0.354612 0.056962 0
-0.373780 0.048537 0
-0.389081 0.039979 0
-0.400607 0.031464 0
-0.408463 0.023065 0
-0.412740 0.014796 0
-0.413497 0.006616 0
-0.410760 -0.001548 0
-0.404472 -0.009785 0
-0.394694 -0.018159 0
-0.381401 -0.026742 0
-0.364473 -0.035600 0
-0.343782 -0.044730 0
-0.319201 -0.054072 0
-0.290654 -0.063451 0
-0.258081 -0.072590 0
-0.221669 -0.081020 0
-0.181860 -0.087894 0
-0.139605 -0.091799 0
-0.096710 -0.090325 0
-0.056313 -0.079291 0
-0.018363 -0.051509 0
0.011352 -0.005094 0
0.017066 0.031029 0
0.007675 0.037600 0
0.000000 0.017625 0
0.000000 -0.024983 0
0.012097 -0.042688 0
0.012088 -0.024427 0
-0.003830 0.003947 0
-0.030013 0.031590 0
-0.070713 0.051391 0
-0.113794 0.070903 0
-0.155715 0.087612 0
-0.197872 0.099678 0
-0.236128 0.108655 0
-0.268903 0.112725 0
-0.297791 0.111035 0
-0.323226 0.105034 0
-0.345385 0.096124 0
-0.364401 0.085487 0
-0.380384 0.073982 0
-0.393408 0.062156 0
-0.403576 0.050319 0
-0.410962 0.038635 0
-0.415624 0.027156 0
-0.417590 0.015859 0
-0.416860 0.004669 0
-0.413410 -0.006529 0
-0.407204 -0.017827 0
-0.398195 -0.029332 0
-0.386274 -0.041164 0
-0.371338 -0.053388 0
-0.353267 -0.066010 0
-0.331950 -0.078950 0
-0.307302 -0.091994 0
-0.279274 -0.104752 0
-0.247967 -0.116536 0
-0.213664 -0.126176 0
-0.176941 -0.131750 0
-0.138779 -0.130206 0
-0.100559 -0.116938 0
-0.063678 -0.085853 0
-0.028233 -0.030322 0
0.000496 0.023901 0
-0.000833 0.040340 0
0.000000 0.018626 0
0.000000 -0.028031 0
-0.006856 -0.041419 0
-0.028005 -0.002982 0
-0.060642 0.036951 0
-0.094016 0.066918 0
-0.131858 0.091701 0
-0.171168 0.111696 0
-0.208311 0.126669 0
-0.243114 0.136055 0
-0.274062 0.140551 0
-0.300180 0.139915 0
-0.322331 0.134369 0
-0.341204 0.125082 0
-0.357314 0.113269 0
-0.370991 0.099978 0
-0.382431 0.085969 0
-0.391727 0.071729 0
-0.398933 0.057533 0
-0.404064 0.043512 0
-0.407115 0.029693 0
-0.408065 0.016031 0
-0.406878 0.002436 0
-0.403507 -0.011204 0
-0.397947 -0.025000 0
-0.390104 -0.039089 0
-0.379899 -0.053600 0
-0.367237 -0.068607 0
-0.352020 -0.084117 0
-0.334155 -0.100038 0
-0.313563 -0.116126 0
-0.290192 -0.131924 0
-0.264054 -0.146630 0
-0.235232 -0.158920 0
-0.203892 -0.166683 0
-0.170265 -0.166708 0
-0.134544 -0.154392 0
-0.096710 -0.123835 0
-0.056565 -0.069268 0
-0.014263 0.003629 0
-0.004742 0.038096 0
0.000000 0.016793 0
0.000000 -0.018127 0
-0.028641 -0.014683 0
-0.064987 0.029359 0
-0.098678 0.069958 0
-0.134197 0.102806 0
-0.169962 0.128543 0
-0.204729 0.147355 0
-0.236611 0.159557 0
-0.265137 0.165429 0
-0.289733 0.165721 0
-0.310231 0.160994 0
-0.327287 0.152059 0
-0.341560 0.140017 0
-0.353576 0.125911 0
-0.363670 0.110604 0
-0.372027 0.094718 0
-0.378730 0.078658 0
-0.383814 0.062656 0
-0.387283 0.046817 0
-0.389130 0.031156 0
-0.389337 0.015621 0
-0.387879 0.000111 0
-0.384728 -0.015459 0
-0.379862 -0.031230 0
-0.373204 -0.047380 0
-0.364683 -0.064032 0
-0.354218 -0.081267 0
-0.341725 -0.099092 0
-0.327127 -0.117407 0
-0.310349 -0.135957 0
-0.291327 -0.154261 0
-0.270002 -0.171497 0
-0.246293 -0.186337 0
-0.220050 -0.196717 0
-0.190973 -0.199554 0
-0.158513 -0.190492 0
-0.121843 -0.163832 0
-0.080158 -0.112769 0
-0.034184 -0.027921 0
0.002975 0.026077 0
0.000000 0.013884 0
0.000000 0.000609 0
-0.041013 0.023568 0
-0.081790 0.067055 0
-0.119520 0.106161 0
-0.155553 0.138201 0
-0.189267 0.162233 0
-0.220131 0.178345 0
-0.247397 0.187077 0
-0.270901 0.189177 0
-0.290627 0.185646 0
-0.306849 0.177469 0
-0.320158 0.165698 0
-0.331119 0.151371 0
-0.340175 0.135379 0
-0.347618 0.118429 0
-0.353619 0.101029 0
-0.358276 0.083516 0
-0.361643 0.066086 0
-0.363754 0.048829 0
-0.364624 0.031747 0
-0.364258 0.014781 0
-0.362650 -0.002173 0
-0.359790 -0.019221 0
-0.355623 -0.036524 0
-0.350096 -0.054268 0
-0.343139 -0.072586 0
-0.334677 -0.091565 0
-0.324632 -0.111208 0
-0.312932 -0.131414 0
-0.299503 -0.151926 0
-0.284272 -0.172271 0
-0.267138 -0.191665 0
-0.247925 -0.208872 0
-0.226309 -0.222003 0
-0.201697 -0.228244 0
-0.173130 -0.223522 0
-0.139288 -0.202190 0
-0.098824 -0.156927 0
-0.051039 -0.079503 0
0.005790 0.003911 0
0.000000 0.019767 0
0.000000 0.022886 0
-0.044914 0.067106 0
-0.088321 0.107867 0
-0.127663 0.143722 0
-0.163196 0.172553 0
-0.194800 0.193121 0
-0.222408 0.205485 0
-0.245938 0.210327 0
-0.265591 0.208659 0
-0.281694 0.201669 0
-0.294717 0.190525 0
-0.305210 0.176330 0
-0.313649 0.160034 0
-0.320407 0.142409 0
-0.325746 0.124047 0
-0.329848 0.105376 0
-0.332838 0.086683 0
-0.334807 0.068135 0
-0.335819 0.049798 0
-0.335919 0.031660 0
-0.335133 0.013647 0
-0.333469 -0.004356 0
-0.330921 -0.022486 0
-0.327437 -0.040924 0
-0.322961 -0.059864 0
-0.317421 -0.079451 0
-0.310736 -0.099773 0
-0.302825 -0.120837 0
-0.293607 -0.142536 0
-0.283005 -0.164616 0
-0.270933 -0.186627 0
-0.257273 -0.207844 0
-0.241825 -0.227166 0
-0.224211 -0.242945 0
-0.203758 -0.252733 0
-0.179357 -0.252901 0
-0.149417 -0.238138 0
-0.112141 -0.201018 0
-0.066538 -0.132535 0
-0.015082 -0.024963 0
0.000000 0.019674 0
0.000000 0.045524 0
-0.044477 0.111889 0
-0.088333 0.149804 0
-0.127311 0.181036 0
-0.161465 0.205339 0
-0.190848 0.221444 0
-0.215662 0.229483 0
-0.236194 0.230260 0
-0.252889 0.224932 0
-0.266256 0.214772 0
-0.276833 0.200985 0
-0.285127 0.184629 0
-0.291557 0.166567 0
-0.296456 0.147476 0
-0.300080 0.127870 0
-0.302628 0.108121 0
-0.304256 0.088474 0
-0.305087 0.069067 0
-0.305218 0.049941 0
-0.304718 0.031061 0
-0.303635 0.012331 0
-0.301989 -0.006384 0
-0.299777 -0.025253 0
-0.296949 -0.044484 0
-0.293444 -0.064285 0
-0.289178 -0.084812 0
-0.284061 -0.106161 0
-0.277994 -0.128337 0
-0.270882 -0.151234 0
-0.262630 -0.174600 0
-0.253138 -0.198002 0
-0.242281 -0.220773 0
-0.229866 -0.241934 0
-0.215552 -0.260070 0
-0.198736 -0.273099 0
-0.178402 -0.277863 0
-0.153030 -0.269406 0
-0.120804 -0.239806 0
-0.080740 -0.176562 0
-0.036124 -0.062627 0
0.000000 0.004685 0
0.000000 0.067363 0
-0.042172 0.155439 0
-0.084374 0.190701 0
-0.121586 0.216854 0
-0.153668 0.236090 0
-0.180702 0.247317 0
-0.203010 0.250831 0
-0.221056 0.247555 0
-0.235401 0.238721 0
-0.246621 0.225613 0
-0.255255 0.209397 0
-0.261772 0.191053 0
-0.266555 0.171363 0
-0.269921 0.150932 0
-0.272129 0.130219 0
-0.273397 0.109552 0
-0.273907 0.089143 0
-0.273811 0.069097 0
-0.273233 0.049429 0
-0.272269 0.030077 0
-0.270982 0.010918 0
-0.269407 -0.008215 0
-0.267544 -0.027526 0
-0.265341 -0.047257 0
-0.262728 -0.067635 0
-0.259609 -0.088834 0
-0.255873 -0.110957 0
-0.251404 -0.134015 0
-0.246082 -0.157900 0
-0.239790 -0.182361 0
-0.232407 -0.206976 0
-0.223801 -0.231116 0
-0.213789 -0.253895 0
-0.202090 -0.274075 0
-0.188220 -0.289884 0
-0.171349 -0.298607 0
-0.150133 -0.295736 0
-0.122680 -0.273307 0
-0.087097 -0.217215 0
-0.043499 -0.105703 0
0.000000 -0.016451 0
0.000000 0.087696 0
-0.038727 0.196263 0
-0.078057 0.229219 0
-0.112623 0.250331 0
-0.142162 0.264454 0
-0.166741 0.270786 0
-0.186716 0.269837 0
-0.202601 0.262651 0
-0.214985 0.250497 0
-0.224437 0.234626 0
-0.231469 0.216136 0
-0.236510 0.195929 0
-0.239921 0.174716 0
-0.242011 0.153050 0
-0.243043 0.131347 0
-0.243251 0.109899 0
-0.242839 0.088889 0
-0.241983 0.068393 0
-0.240834 0.048398 0
-0.239509 0.028809 0
-0.238092 0.009469 0
-0.236627 -0.009823 0
-0.235116 -0.029318 0
-0.233501 -0.049299 0
-0.231701 -0.070017 0
-0.229604 -0.091667 0
-0.227079 -0.114365 0
-0.223988 -0.138128 0
-0.220188 -0.162849 0
-0.215539 -0.188275 0
-0.209900 -0.213991 0
-0.203124 -0.239391 0
-0.195035 -0.263645 0
-0.185394 -0.285639 0
-0.173825 -0.303840 0
-0.159681 -0.315950 0
-0.141817 -0.318075 0
-0.118316 -0.302841 0
-0.086520 -0.255744 0
-0.044641 -0.149724 0
0.000000 -0.038813 0
0.000000 0.106091 0
-0.034616 0.233496 0
-0.070413 0.264597 0
-0.101837 0.280959 0
-0.128557 0.290207 0
-0.150620 0.291871 0
-0.168366 0.286691 0
-0.182297 0.275825 0
-0.192967 0.260557 0
-0.200903 0.242097 0
-0.206571 0.221469 0
-0.210365 0.199506 0
-0.212625 0.176864 0
-0.213649 0.154054 0
-0.213705 0.131460 0
-0.213037 0.109348 0
-0.211866 0.087875 0
-0.210390 0.067092 0
-0.208785 0.046955 0
-0.207188 0.027336 0
-0.205701 0.008035 0
-0.204374 -0.011192 0
-0.203208 -0.030651 0
-0.202138 -0.050671 0
-0.201067 -0.071533 0
-0.199865 -0.093456 0
-0.198384 -0.116573 0
-0.196465 -0.140906 0
-0.193945 -0.166349 0
-0.190666 -0.192649 0
-0.186473 -0.219391 0
-0.181206 -0.245981 0
-0.174689 -0.271624 0
-0.166708 -0.295285 0
-0.156960 -0.315597 0
-0.144952 -0.330615 0
-0.129772 -0.337101 0
-0.109684 -0.328604 0
-0.081815 -0.290890 0
-0.043356 -0.192223 0
0.000000 -0.061091 0
0.000000 0.122311 0
-0.030157 0.266676 0
-0.062100 0.296440 0
-0.090142 0.308475 0
-0.113915 0.313237 0
-0.133448 0.310595 0
-0.149046 0.301514 0
-0.161159 0.287252 0
-0.170281 0.269103 0
-0.176880 0.248230 0
-0.181368 0.225598 0
-0.184101 0.201983 0
-0.185397 0.178000 0
-0.185540 0.154131 0
-0.184797 0.130735 0
-0.183417 0.108059 0
-0.181634 0.086242 0
-0.179667 0.065312 0
-0.177709 0.045196 0
-0.175920 0.025726 0
-0.174413 0.006655 0
-0.173246 -0.012316 0
-0.172411 -0.031554 0
-0.171833 -0.051441 0
-0.171399 -0.072290 0
-0.170961 -0.094349 0
-0.170353 -0.117766 0
-0.169401 -0.142567 0
-0.167930 -0.168647 0
-0.165772 -0.195747 0
-0.162766 -0.223452 0
-0.158748 -0.251175 0
-0.153544 -0.278143 0
-0.146953 -0.303369 0
-0.138719 -0.325596 0
-0.128462 -0.343138 0
-0.115500 -0.353343 0
-0.098418 -0.350798 0
-0.074496 -0.322072 0
-0.040319 -0.231539 0
0.000000 -0.082169 0
0.000000 0.136248 0
-0.025559 0.295596 0
-0.053529 0.324581 0
-0.078113 0.332775 0
-0.098913 0.333514 0
-0.115945 0.327001 0
-0.129469 0.314402 0
-0.139870 0.297060 0
-0.147573 0.276279 0
-0.152976 0.253183 0
-0.156438 0.228690 0
-0.158276 0.203535 0
-0.158779 0.178302 0
-0.158215 0.153454 0
-0.156842 0.129336 0
-0.154909 0.106185 0
-0.152660 0.084124 0
-0.150325 0.063166 0
-0.148116 0.043208 0
-0.146208 0.024040 0
-0.144728 0.005361 0
-0.143733 -0.013194 0
-0.143206 -0.032064 0
-0.143058 -0.051683 0
-0.143157 -0.072405 0
-0.143339 -0.094502 0
-0.143425 -0.118133 0
-0.143232 -0.143329 0
-0.142583 -0.169977 0
-0.141310 -0.197813 0
-0.139255 -0.226415 0
-0.136262 -0.255203 0
-0.132167 -0.283419 0
-0.126784 -0.310111 0
-0.119887 -0.334088 0
-0.111178 -0.353834 0
-0.100167 -0.367146 0
-0.085805 -0.369607 0
-0.065750 -0.348989 0
-0.036296 -0.266719 0
0.000000 -0.101410 0
0.000000 0.147870 0
-0.020941 0.320205 0
-0.044941 0.348994 0
-0.066091 0.353859 0
-0.083957 0.351069 0
-0.098550 0.341151 0
-0.110079 0.325440 0
-0.118865 0.305355 0
-0.125258 0.282208 0
-0.129593 0.257095 0
-0.132172 0.230898 0
-0.133272 0.204324 0
-0.133150 0.177939 0
-0.132053 0.152194 0
-0.130224 0.127429 0
-0.127906 0.103878 0
-0.125342 0.081658 0
-0.122772 0.060768 0
-0.120415 0.041079 0
-0.118462 0.022337 0
-0.117046 0.004179 0
-0.116226 -0.013838 0
-0.115971 -0.032229 0
-0.116174 -0.051489 0
-0.116686 -0.072009 0
-0.117329 -0.094081 0
-0.117917 -0.117873 0
-0.118269 -0.143410 0
-0.118214 -0.170570 0
-0.117597 -0.199076 0
-0.116273 -0.228500 0
-0.114106 -0.258262 0
-0.110951 -0.287621 0
-0.106641 -0.315649 0
-0.100983 -0.341201 0
-0.093735 -0.362857 0
-0.084555 -0.378716 0
-0.072723 -0.385216 0
-0.056377 -0.371581 0
-0.031778 -0.297289 0
0.000000 -0.118465 0
0.000000 0.157188 0
-0.016361 0.340537 0
-0.036459 0.369732 0
-0.054255 0.371792 0
-0.069268 0.365973 0
-0.081502 0.353123 0
-0.091124 0.334717 0
-0.098390 0.312239 0
-0.103581 0.287007 0
-0.106969 0.260097 0
-0.108805 0.232369 0
-0.109323 0.204512 0
-0.108747 0.177083 0
-0.107297 0.150528 0
-0.105197 0.125189 0
-0.102676 0.101304 0
-0.099967 0.078990 0
-0.097305 0.058239 0
-0.094913 0.038898 0
-0.092987 0.020671 0
-0.091667 0.003126 0
-0.091012 -0.014269 0
-0.090973 -0.032116 0
-0.091427 -0.050968 0
-0.092207 -0.071251 0
-0.093131 -0.093271 0
-0.094015 -0.117193 0
-0.094690 -0.143032 0
-0.095004 -0.170650 0
-0.094821 -0.199754 0
-0.094026 -0.229906 0
-0.092506 -0.260525 0
-0.090144 -0.290884 0
-0.086804 -0.320079 0
-0.082324 -0.346994 0
-0.076513 -0.370262 0
-0.069130 -0.388158 0
-0.059717 -0.397785 0
-0.046896 -0.389934 0
-0.027090 -0.323097 0
0.000000 -0.133188 0
0.000000 0.164231 0
-0.011841 0.356664 0
-0.028130 0.386888 0
-0.042675 0.386668 0
-0.054933 0.378317 0
-0.064902 0.363007 0
-0.072708 0.342327 0
-0.078548 0.317812 0
-0.082642 0.290787 0
-0.085202 0.262319 0
-0.086432 0.233252 0
-0.086524 0.204266 0
-0.085668 0.175914 0
-0.084054 0.148645 0
-0.081880 0.122808 0
-0.079351 0.098647 0
-0.076683 0.076287 0
-0.074091 0.055714 0
-0.071789 0.036761 0
-0.069965 0.019091 0
-0.068766 0.002205 0
-0.068250 -0.014531 0
-0.068350 -0.031814 0
-0.068927 -0.050254 0
-0.069806 -0.070305 0
-0.070809 -0.092273 0
-0.071769 -0.116313 0
-0.072541 -0.142422 0
-0.073001 -0.170439 0
-0.073047 -0.200053 0
-0.072595 -0.230815 0
-0.071564 -0.262144 0
-0.069872 -0.293323 0
-0.067417 -0.323469 0
-0.064076 -0.351493 0
-0.059700 -0.376052 0
-0.054124 -0.395512 0
-0.047072 -0.407449 0
-0.037598 -0.404208 0
-0.022426 -0.344185 0
0.000000 -0.145555 0
0.000000 0.169029 0
-0.007377 0.368666 0
-0.019945 0.400566 0
-0.031348 0.398595 0
-0.040952 0.388200 0
-0.048749 0.370898 0
-0.054828 0.348363 0
-0.059335 0.322173 0
-0.062431 0.293660 0
-0.064278 0.263887 0
-0.065034 0.233692 0
-0.064851 0.203748 0
-0.063883 0.174613 0
-0.062291 0.146740 0
-0.060240 0.120486 0
-0.057907 0.096106 0
-0.055475 0.073730 0
-0.053129 0.053345 0
-0.051053 0.034773 0
-0.049415 0.017648 0
-0.048355 0.001410 0
-0.047937 -0.014685 0
-0.048076 -0.031439 0
-0.048622 -0.049512 0
-0.049406 -0.069369 0
-0.050271 -0.091307 0
-0.051084 -0.115460 0
-0.051732 -0.141800 0
-0.052132 -0.170144 0
-0.052221 -0.200160 0
-0.051951 -0.231389 0
-0.051279 -0.263248 0
-0.050157 -0.295031 0
-0.048522 -0.325875 0
-0.046289 -0.354711 0
-0.043356 -0.380214 0
-0.039611 -0.400785 0
-0.034900 -0.414310 0
-0.028619 -0.414581 0
-0.017882 -0.360695 0
0.000000 -0.155614 0
0.000000 0.171607 0
-0.002975 0.376609 0
-0.011862 0.410859 0
-0.020214 0.407675 0
-0.027256 0.395718 0
-0.032968 0.376884 0
-0.037404 0.352914 0
-0.040662 0.325415 0
-0.042851 0.295730 0
-0.044088 0.264921 0
-0.044486 0.233824 0
-0.044162 0.203115 0
-0.043236 0.173354 0
-0.041833 0.145001 0
-0.040088 0.118424 0
-0.038140 0.093882 0
-0.036133 0.071509 0
-0.034207 0.051292 0
-0.032500 0.033047 0
-0.031137 0.016394 0
-0.030241 0.000727 0
-0.029867 -0.014811 0
-0.029921 -0.031129 0
-0.030260 -0.048925 0
-0.030745 -0.068655 0
-0.031259 -0.090595 0
-0.031713 -0.114853 0
-0.032042 -0.141373 0
-0.032206 -0.169949 0
-0.032187 -0.200234 0
-0.031974 -0.231757 0
-0.031562 -0.263938 0
-0.030937 -0.296080 0
-0.030075 -0.327337 0
-0.028932 -0.356658 0
-0.027450 -0.382730 0
-0.025564 -0.403968 0
-0.023193 -0.418442 0
-0.019984 -0.421226 0
-0.013489 -0.372804 0
0.000000 -0.163437 0
0.000000 0.172004 0
0.001301 0.380528 0
-0.003791 0.417806 0
-0.009172 0.413990 0
-0.013740 0.400953 0
-0.017438 0.381046 0
-0.020301 0.356057 0
-0.022380 0.327620 0
-0.023738 0.297087 0
-0.024448 0.265522 0
-0.024583 0.233765 0
-0.024225 0.202498 0
-0.023460 0.172284 0
-0.022381 0.143592 0
-0.021086 0.116794 0
-0.019674 0.092151 0
-0.018244 0.069797 0
-0.016886 0.049712 0
-0.015683 0.031703 0
-0.014686 0.015389 0
-0.013978 0.000139 0
-0.013582 -0.015005 0
-0.013413 -0.031045 0
-0.013368 -0.048688 0
-0.013365 -0.068370 0
-0.013345 -0.090339 0
-0.013272 -0.114678 0
-0.013134 -0.141307 0
-0.012937 -0.169999 0
-0.012706 -0.200392 0
-0.012469 -0.232014 0
-0.012254 -0.264285 0
-0.012084 -0.296518 0
-0.011971 -0.327879 0
-0.011913 -0.357336 0
-0.011894 -0.383582 0
-0.011891 -0.405043 0
-0.011873 -0.419890 0
-0.011653 -0.424284 0
-0.009237 -0.380679 0
0.000000 -0.169103 0
0.000000 0.170306 0
0.005474 0.380400 0
0.004316 0.421332 0
0.001884 0.417624 0
-0.000259 0.403984 0
-0.002000 0.383444 0
-0.003342 0.357855 0
-0.004296 0.328852 0
-0.004879 0.297798 0
-0.005118 0.265766 0
-0.005053 0.233601 0
-0.004729 0.201992 0
-0.004200 0.171510 0
-0.003526 0.142627 0
-0.002767 0.115717 0
-0.001982 0.091040 0
-0.001217 0.068721 0
-0.000511 0.048732 0
0.000119 0.030846 0
0.000681 0.014689 0
0.001185 -0.000376 0
0.001676 -0.015377 0
0.002196 -0.031344 0
0.002760 -0.048972 0
0.003376 -0.068677 0
0.004040 -0.090688 0
0.004733 -0.115064 0
0.005414 -0.141708 0
0.006030 -0.170377 0
0.006516 -0.200702 0
0.006807 -0.232209 0
0.006843 -0.264323 0
0.006567 -0.296363 0
0.005931 -0.327509 0
0.004898 -0.356736 0
0.003439 -0.382751 0
0.001537 -0.403989 0
-0.000817 -0.418680 0
-0.003538 -0.423861 0
-0.005084 -0.384457 0
0.000000 -0.172674 0
0.000000 0.166530 0
0.009664 0.376212 0
0.012513 0.421396 0
0.013060 0.418566 0
0.013324 0.404837 0
0.013507 0.384129 0
0.013652 0.358354 0
0.013794 0.329156 0
0.013959 0.297909 0
0.014163 0.265696 0
0.014405 0.233376 0
0.014671 0.201645 0
0.014941 0.171081 0
0.015190 0.142159 0
0.015396 0.115249 0
0.015545 0.090601 0
0.015641 0.068326 0
0.015709 0.048375 0
0.015798 0.030511 0
0.015963 0.014323 0
0.016319 -0.000855 0
0.016956 -0.016016 0
0.017860 -0.032129 0
0.018967 -0.049867 0
0.020214 -0.069650 0
0.021534 -0.091696 0
0.022849 -0.116052 0
0.024067 -0.142604 0
0.025089 -0.171100 0
0.025813 -0.201170 0
0.026140 -0.232341 0
0.025973 -0.264045 0
0.025225 -0.295606 0
0.023813 -0.326211 0
0.021658 -0.354844 0
0.018689 -0.380221 0
0.014848 -0.400787 0
0.010098 -0.414815 0
0.004473 -0.420017 0
-0.000953 -0.384218 0
0.000000 -0.174187 0
0.000000 0.160643 0
0.013944 0.367887 0
0.020912 0.417936 0
0.024485 0.416814 0
0.027128 0.403537 0
0.029213 0.383116 0
0.030832 0.357568 0
0.032062 0.328545 0
0.032977 0.297429 0
0.033632 0.265321 0
0.034067 0.233093 0
0.034302 0.201456 0
0.034351 0.170991 0
0.034224 0.142172 0
0.033940 0.115363 0
0.033532 0.090795 0
0.033056 0.068557 0
0.032594 0.048575 0
0.032256 0.030592 0
0.032161 0.014167 0
0.032460 -0.001369 0
0.033248 -0.016917 0
0.034484 -0.033356 0
0.036063 -0.051327 0
0.037865 -0.071244 0
0.039762 -0.093322 0
0.041619 -0.117597 0
0.043296 -0.143949 0
0.044650 -0.172124 0
0.045541 -0.201753 0
0.045836 -0.232369 0
0.045407 -0.263408 0
0.044129 -0.294202 0
0.041884 -0.323941 0
0.038552 -0.351612 0
0.034018 -0.375942 0