# vtk DataFile Version 2.0
generated by CFD-lab course output (written by Tobias Neckel) 
ASCII

DATASET STRUCTURED_GRID
DIMENSIONS  41 41 1 
POINTS 1681 float

0.150000 0.150000 0
0.167857 0.150000 0
0.185714 0.150000 0
0.203571 0.150000 0
0.221429 0.150000 0
0.239286 0.150000 0
0.257143 0.150000 0
0.275000 0.150000 0
0.292857 0.150000 0
0.310714 0.150000 0
0.328571 0.150000 0
0.346429 0.150000 0
0.364286 0.150000 0
0.382143 0.150000 0
0.400000 0.150000 0
0.417857 0.150000 0
0.435714 0.150000 0
0.453571 0.150000 0
0.471429 0.150000 0
0.489286 0.150000 0
0.507143 0.150000 0
0.525000 0.150000 0
0.542857 0.150000 0
0.560714 0.150000 0
0.578571 0.150000 0
0.596429 0.150000 0
0.614286 0.150000 0
0.632143 0.150000 0
0.650000 0.150000 0
0.667857 0.150000 0
0.685714 0.150000 0
0.703571 0.150000 0
0.721429 0.150000 0
0.739286 0.150000 0
0.757143 0.150000 0
0.775000 0.150000 0
0.792857 0.150000 0
0.810714 0.150000 0
0.828571 0.150000 0
0.846429 0.150000 0
0.864286 0.150000 0
0.150000 0.167857 0
0.167857 0.167857 0
0.185714 0.167857 0
0.203571 0.167857 0
0.221429 0.167857 0
0.239286 0.167857 0
0.257143 0.167857 0
0.275000 0.167857 0
0.292857 0.167857 0
0.310714 0.167857 0
0.328571 0.167857 0
0.346429 0.167857 0
0.364286 0.167857 0
0.382143 0.167857 0
0.400000 0.167857 0
0.417857 0.167857 0
0.435714 0.167857 0
0.453571 0.167857 0
0.471429 0.167857 0
0.489286 0.167857 0
0.507143 0.167857 0
0.525000 0.167857 0
0.542857 0.167857 0
0.560714 0.167857 0
0.578571 0.167857 0
0.596429 0.167857 0
0.614286 0.167857 0
0.632143 0.167857 0
0.650000 0.167857 0
0.667857 0.167857 0
0.685714 0.167857 0
0.703571 0.167857 0
0.721429 0.167857 0
0.739286 0.167857 0
0.757143 0.167857 0
0.775000 0.167857 0
0.792857 0.167857 0
0.810714 0.167857 0
0.828571 0.167857 0
0.846429 0.167857 0
0.864286 0.167857 0
0.150000 0.185714 0
0.167857 0.185714 0
0.185714 0.185714 0
0.203571 0.185714 0
0.221429 0.185714 0
0.239286 0.185714 0
0.257143 0.185714 0
0.275000 0.185714 0
0.292857 0.185714 0
0.310714 0.185714 0
0.328571 0.185714 0
0.346429 0.185714 0
0.364286 0.185714 0
0.382143 0.185714 0
0.400000 0.185714 0
0.417857 0.185714 0
0.435714 0.185714 0
0.453571 0.185714 0
0.471429 0.185714 0
0.489286 0.185714 0
0.507143 0.185714 0
0.525000 0.185714 0
0.542857 0.185714 0
0.560714 0.185714 0
0.578571 0.185714 0
0.596429 0.185714 0
0.614286 0.185714 0
0.632143 0.185714 0
0.650000 0.185714 0
0.667857 0.185714 0
0.685714 0.185714 0
0.703571 0.185714 0
0.721429 0.185714 0
0.739286 0.185714 0
0.757143 0.185714 0
0.775000 0.185714 0
0.792857 0.185714 0
0.810714 0.185714 0
0.828571 0.185714 0
0.846429 0.185714 0
0.864286 0.185714 0
0.150000 0.203571 0
0.167857 0.203571 0
0.185714 0.203571 0
0.203571 0.203571 0
0.221429 0.203571 0
0.239286 0.203571 0
0.257143 0.203571 0
0.275000 0.203571 0
0.292857 0.203571 0
0.310714 0.203571 0
0.328571 0.203571 0
0.346429 0.203571 0
0.364286 0.203571 0
0.382143 0.203571 0
0.400000 0.203571 0
0.417857 0.203571 0
0.435714 0.203571 0
0.453571 0.203571 0
0.471429 0.203571 0
0.489286 0.203571 0
0.507143 0.203571 0
0.525000 0.203571 0
0.542857 0.203571 0
0.560714 0.203571 0
0.578571 0.203571 0
0.596429 0.203571 0
0.614286 0.203571 0
0.632143 0.203571 0
0.650000 0.203571 0
0.667857 0.203571 0
0.685714 0.203571 0
0.703571 0.203571 0
0.721429 0.203571 0
0.739286 0.203571 0
0.757143 0.203571 0
0.775000 0.203571 0
0.792857 0.203571 0
0.810714 0.203571 0
0.828571 0.203571 0
0.846429 0.203571 0
0.864286 0.203571 0
0.150000 0.221429 0
0.167857 0.221429 0
0.185714 0.221429 0
0.203571 0.221429 0
0.221429 0.221429 0
0.239286 0.221429 0
0.257143 0.221429 0
0.275000 0.221429 0
0.292857 0.221429 0
0.310714 0.221429 0
0.328571 0.221429 0
0.346429 0.221429 0
0.364286 0.221429 0
0.382143 0.221429 0
0.400000 0.221429 0
0.417857 0.221429 0
0.435714 0.221429 0
0.453571 0.221429 0
0.471429 0.221429 0
0.489286 0.221429 0
0.507143 0.221429 0
0.525000 0.221429 0
0.542857 0.221429 0
0.560714 0.221429 0
0.578571 0.221429 0
0.596429 0.221429 0
0.614286 0.221429 0
0.632143 0.221429 0
0.650000 0.221429 0
0.667857 0.221429 0
0.685714 0.221429 0
0.703571 0.221429 0
0.721429 0.221429 0
0.739286 0.221429 0
0.757143 0.221429 0
0.775000 0.221429 0
0.792857 0.221429 0
0.810714 0.221429 0
0.828571 0.221429 0
0.846429 0.221429 0
0.864286 0.221429 0
0.150000 0.239286 0
0.167857 0.239286 0
0.185714 0.239286 0
0.203571 0.239286 0
0.221429 0.239286 0
0.239286 0.239286 0
0.257143 0.239286 0
0.275000 0.239286 0
0.292857 0.239286 0
0.310714 0.239286 0
0.328571 0.239286 0
0.346429 0.239286 0
0.364286 0.239286 0
0.382143 0.239286 0
0.400000 0.239286 0
0.417857 0.239286 0
0.435714 0.239286 0
0.453571 0.239286 0
0.471429 0.239286 0
0.489286 0.239286 0
0.507143 0.239286 0
0.525000 0.239286 0
0.542857 0.239286 0
0.560714 0.239286 0
0.578571 0.239286 0
0.596429 0.239286 0
0.614286 0.239286 0
0.632143 0.239286 0
0.650000 0.239286 0
0.667857 0.239286 0
0.685714 0.239286 0
0.703571 0.239286 0
0.721429 0.239286 0
0.739286 0.239286 0
0.757143 0.239286 0
0.775000 0.239286 0
0.792857 0.239286 0
0.810714 0.239286 0
0.828571 0.239286 0
0.846429 0.239286 0
0.864286 0.239286 0
0.150000 0.257143 0
0.167857 0.257143 0
0.185714 0.257143 0
0.203571 0.257143 0
0.221429 0.257143 0
0.239286 0.257143 0
0.257143 0.257143 0
0.275000 0.257143 0
0.292857 0.257143 0
0.310714 0.257143 0
0.328571 0.257143 0
0.346429 0.257143 0
0.364286 0.257143 0
0.382143 0.257143 0
0.400000 0.257143 0
0.417857 0.257143 0
0.435714 0.257143 0
0.453571 0.257143 0
0.471429 0.257143 0
0.489286 0.257143 0
0.507143 0.257143 0
0.525000 0.257143 0
0.542857 0.257143 0
0.560714 0.257143 0
0.578571 0.257143 0
0.596429 0.257143 0
0.614286 0.257143 0
0.632143 0.257143 0
0.650000 0.257143 0
0.667857 0.257143 0
0.685714 0.257143 0
0.703571 0.257143 0
0.721429 0.257143 0
0.739286 0.257143 0
0.757143 0.257143 0
0.775000 0.257143 0
0.792857 0.257143 0
0.810714 0.257143 0
0.828571 0.257143 0
0.846429 0.257143 0
0.864286 0.257143 0
0.150000 0.275000 0
0.167857 0.275000 0
0.185714 0.275000 0
0.203571 0.275000 0
0.221429 0.275000 0
0.239286 0.275000 0
0.257143 0.275000 0
0.275000 0.275000 0
0.292857 0.275000 0
0.310714 0.275000 0
0.328571 0.275000 0
0.346429 0.275000 0
0.364286 0.275000 0
0.382143 0.275000 0
0.400000 0.275000 0
0.417857 0.275000 0
0.435714 0.275000 0
0.453571 0.275000 0
0.471429 0.275000 0
0.489286 0.275000 0
0.507143 0.275000 0
0.525000 0.275000 0
0.542857 0.275000 0
0.560714 0.275000 0
0.578571 0.275000 0
0.596429 0.275000 0
0.614286 0.275000 0
0.632143 0.275000 0
0.650000 0.275000 0
0.667857 0.275000 0
0.685714 0.275000 0
0.703571 0.275000 0
0.721429 0.275000 0
0.739286 0.275000 0
0.757143 0.275000 0
0.775000 0.275000 0
0.792857 0.275000 0
0.810714 0.275000 0
0.828571 0.275000 0
0.846429 0.275000 0
0.864286 0.275000 0
0.150000 0.292857 0
0.167857 0.292857 0
0.185714 0.292857 0
0.203571 0.292857 0
0.221429 0.292857 0
0.239286 0.292857 0
0.257143 0.292857 0
0.275000 0.292857 0
0.292857 0.292857 0
0.310714 0.292857 0
0.328571 0.292857 0
0.346429 0.292857 0
0.364286 0.292857 0
0.382143 0.292857 0
0.400000 0.292857 0
0.417857 0.292857 0
0.435714 0.292857 0
0.453571 0.292857 0
0.471429 0.292857 0
0.489286 0.292857 0
0.507143 0.292857 0
0.525000 0.292857 0
0.542857 0.292857 0
0.560714 0.292857 0
0.578571 0.292857 0
0.596429 0.292857 0
0.614286 0.292857 0
0.632143 0.292857 0
0.650000 0.292857 0
0.667857 0.292857 0
0.685714 0.292857 0
0.703571 0.292857 0
0.721429 0.292857 0
0.739286 0.292857 0
0.757143 0.292857 0
0.775000 0.292857 0
0.792857 0.292857 0
0.810714 0.292857 0
0.828571 0.292857 0
0.846429 0.292857 0
0.864286 0.292857 0
0.150000 0.310714 0
0.167857 0.310714 0
0.185714 0.310714 0
0.203571 0.310714 0
0.221429 0.310714 0
0.239286 0.310714 0
0.257143 0.310714 0
0.275000 0.310714 0
0.292857 0.310714 0
0.310714 0.310714 0
0.328571 0.310714 0
0.346429 0.310714 0
0.364286 0.310714 0
0.382143 0.310714 0
0.400000 0.310714 0
0.417857 0.310714 0
0.435714 0.310714 0
0.453571 0.310714 0
0.471429 0.310714 0
0.489286 0.310714 0
0.507143 0.310714 0
0.525000 0.310714 0
0.542857 0.310714 0
0.560714 0.310714 0
0.578571 0.310714 0
0.596429 0.310714 0
0.614286 0.310714 0
0.632143 0.310714 0
0.650000 0.310714 0
0.667857 0.310714 0
0.685714 0.310714 0
0.703571 0.310714 0
0.721429 0.310714 0
0.739286 0.310714 0
0.757143 0.310714 0
0.775000 0.310714 0
0.792857 0.310714 0
0.810714 0.310714 0
0.828571 0.310714 0
0.846429 0.310714 0
0.864286 0.310714 0
0.150000 0.328571 0
0.167857 0.328571 0
0.185714 0.328571 0
0.203571 0.328571 0
0.221429 0.328571 0
0.239286 0.328571 0
0.257143 0.328571 0
0.275000 0.328571 0
0.292857 0.328571 0
0.310714 0.328571 0
0.328571 0.328571 0
0.346429 0.328571 0
0.364286 0.328571 0
0.382143 0.328571 0
0.400000 0.328571 0
0.417857 0.328571 0
0.435714 0.328571 0
0.453571 0.328571 0
0.471429 0.328571 0
0.489286 0.328571 0
0.507143 0.328571 0
0.525000 0.328571 0
0.542857 0.328571 0
0.560714 0.328571 0
0.578571 0.328571 0
0.596429 0.328571 0
0.614286 0.328571 0
0.632143 0.328571 0
0.650000 0.328571 0
0.667857 0.328571 0
0.685714 0.328571 0
0.703571 0.328571 0
0.721429 0.328571 0
0.739286 0.328571 0
0.757143 0.328571 0
0.775000 0.328571 0
0.792857 0.328571 0
0.810714 0.328571 0
0.828571 0.328571 0
0.846429 0.328571 0
0.864286 0.328571 0
0.150000 0.346429 0
0.167857 0.346429 0
0.185714 0.346429 0
0.203571 0.346429 0
0.221429 0.346429 0
0.239286 0.346429 0
0.257143 0.346429 0
0.275000 0.346429 0
0.292857 0.346429 0
0.310714 0.346429 0
0.328571 0.346429 0
0.346429 0.346429 0
0.364286 0.346429 0
0.382143 0.346429 0
0.400000 0.346429 0
0.417857 0.346429 0
0.435714 0.346429 0
0.453571 0.346429 0
0.471429 0.346429 0
0.489286 0.346429 0
0.507143 0.346429 0
0.525000 0.346429 0
0.542857 0.346429 0
0.560714 0.346429 0
0.578571 0.346429 0
0.596429 0.346429 0
0.614286 0.346429 0
0.632143 0.346429 0
0.650000 0.346429 0
0.667857 0.346429 0
0.685714 0.346429 0
0.703571 0.346429 0
0.721429 0.346429 0
0.739286 0.346429 0
0.757143 0.346429 0
0.775000 0.346429 0
0.792857 0.346429 0
0.810714 0.346429 0
0.828571 0.346429 0
0.846429 0.346429 0
[...]
POINT_DATA 1681 

VECTORS velocity float
0.000000 0.000000 0
-0.001013 0.000000 0
-0.002236 0.000000 0
-0.004440 0.000000 0
-0.007545 0.000000 0
-0.011132 0.000000 0
-0.014858 0.000000 0
-0.018516 0.000000 0
-0.021988 0.000000 0
-0.025482 0.000000 0
-0.028915 0.000000 0
-0.032285 0.000000 0
-0.035604 0.000000 0
-0.038931 0.000000 0
-0.042371 0.000000 0
-0.046049 0.000000 0
-0.050218 0.000000 0
-0.054874 0.000000 0
-0.059967 0.000000 0
-0.065343 0.000000 0
-0.070792 0.000000 0
-0.076080 0.000000 0
-0.080978 0.000000 0
-0.085382 0.000000 0
-0.089073 0.000000 0
-0.091891 0.000000 0
-0.093672 0.000000 0
-0.094260 0.000000 0
-0.093487 0.000000 0
-0.091145 0.000000 0
-0.087190 0.000000 0
-0.081454 0.000000 0
-0.073801 0.000000 0
-0.064119 0.000000 0
-0.052415 0.000000 0
-0.038931 0.000000 0
-0.024331 0.000000 0
-0.010307 0.000000 0
0.000412 0.000000 0
0.003319 0.000000 0
0.000000 0.000000 0
0.000000 0.001013 0
-0.007585 0.002236 0
-0.016371 0.003427 0
-0.025781 0.005308 0
-0.035863 0.006692 0
-0.046185 0.007314 0
-0.056355 0.007383 0
-0.066143 0.007130 0
-0.075479 0.006967 0
-0.084479 0.006927 0
-0.093166 0.006803 0
-0.101595 0.006689 0
-0.109849 0.006646 0
-0.118052 0.006767 0
-0.126365 0.007118 0
-0.134955 0.007847 0
-0.143989 0.008825 0
-0.153442 0.009748 0
-0.163163 0.010470 0
-0.172875 0.010826 0
-0.182228 0.010736 0
-0.190847 0.010186 0
-0.198383 0.009302 0
-0.204563 0.008095 0
-0.209090 0.006509 0
-0.211700 0.004599 0
-0.212141 0.002369 0
-0.210176 -0.000185 0
-0.205651 -0.003115 0
-0.198376 -0.006297 0
-0.188152 -0.009690 0
-0.174698 -0.013389 0
-0.157742 -0.017335 0
-0.137081 -0.021386 0
-0.112725 -0.025189 0
-0.085130 -0.028084 0
-0.055587 -0.028624 0
-0.026888 -0.024742 0
-0.003955 -0.013626 0
0.005584 0.000412 0
0.000000 0.003319 0
0.000000 0.007585 0
-0.016352 0.016371 0
-0.034437 0.018196 0
-0.051089 0.019492 0
-0.066571 0.020403 0
-0.081050 0.020492 0
-0.094621 0.019958 0
-0.107372 0.019124 0
-0.119430 0.018336 0
-0.130709 0.017688 0
-0.141399 0.017116 0
-0.151626 0.016683 0
-0.161515 0.016457 0
-0.171160 0.016516 0
-0.180603 0.016902 0
-0.189843 0.017624 0
-0.198677 0.018487 0
-0.207015 0.019174 0
-0.214675 0.019433 0
-0.221472 0.019065 0
-0.227216 0.017971 0
-0.231734 0.016155 0
-0.234881 0.013717 0
-0.236448 0.010707 0
-0.236360 0.007137 0
-0.234514 0.003051 0
-0.230816 -0.001524 0
-0.225261 -0.006490 0
-0.217746 -0.011801 0
-0.208174 -0.017499 0
-0.196244 -0.023678 0
-0.181716 -0.030410 0
-0.164318 -0.037617 0
-0.143848 -0.045017 0
-0.120260 -0.051951 0
-0.093858 -0.057138 0
-0.065619 -0.058242 0
-0.037376 -0.051632 0
-0.012809 -0.032472 0
0.002582 -0.003955 0
0.000000 0.005584 0
0.000000 0.017365 0
-0.020543 0.036674 0
-0.042479 0.038165 0
-0.061994 0.037442 0
-0.079329 0.036652 0
-0.094888 0.035363 0
-0.109029 0.033705 0
-0.122029 0.031939 0
-0.134087 0.030304 0
-0.145267 0.028896 0
-0.155729 0.027720 0
-0.165598 0.026806 0
-0.174961 0.026180 0
-0.183843 0.025855 0
-0.192201 0.025801 0
-0.199925 0.025921 0
-0.206816 0.025997 0
-0.212745 0.025746 0
-0.217599 0.024927 0
-0.221306 0.023367 0
-0.223833 0.020999 0
-0.225177 0.017850 0
-0.225346 0.014015 0
-0.224321 0.009574 0
-0.222131 0.004576 0
-0.218787 -0.000944 0
-0.214321 -0.006884 0
-0.208708 -0.013256 0
-0.201746 -0.020202 0
-0.193228 -0.027798 0
-0.182889 -0.036148 0
-0.170489 -0.045315 0
-0.155768 -0.055204 0
-0.138497 -0.065444 0
-0.118525 -0.075178 0
-0.095905 -0.082726 0
-0.071089 -0.085106 0
-0.045199 -0.077552 0
-0.020691 -0.053584 0
-0.001996 -0.012397 0
0.000000 0.005900 0
0.000000 0.028128 0
-0.021262 0.058849 0
-0.043903 0.059647 0
-0.063829 0.056343 0
-0.081205 0.053298 0
-0.096473 0.050192 0
-0.110069 0.047099 0
-0.122342 0.044182 0
-0.133532 0.041574 0
-0.143789 0.039329 0
-0.153251 0.037447 0
-0.162020 0.035914 0
-0.170146 0.034702 0
-0.177623 0.033756 0
-0.184390 0.032985 0
-0.190338 0.032239 0
-0.195338 0.031307 0
-0.199308 0.029957 0
-0.202213 0.027994 0
-0.204070 0.025299 0
-0.204937 0.021842 0
-0.204892 0.017668 0
-0.204006 0.012861 0
-0.202324 0.007492 0
-0.199884 0.001603 0
-0.196690 -0.004759 0
-0.192777 -0.011603 0
-0.187960 -0.019065 0
-0.182102 -0.027281 0
-0.175044 -0.036356 0
-0.166587 -0.046417 0
-0.156532 -0.057531 0
-0.144655 -0.069609 0
-0.130717 -0.082260 0
-0.114480 -0.094543 0
-0.095760 -0.104574 0
-0.074564 -0.108947 0
-0.051349 -0.102031 0
-0.027624 -0.075675 0
-0.007080 -0.024646 0
0.000000 0.003588 0
0.000000 0.038626 0
-0.020128 0.080577 0
-0.041889 0.080732 0
-0.060991 0.074744 0
-0.077515 0.069296 0
-0.091880 0.064228 0
-0.104507 0.059574 0
-0.115742 0.055402 0
-0.125835 0.051751 0
-0.134956 0.048614 0
-0.143231 0.045951 0
-0.150741 0.043700 0
-0.157524 0.041784 0
-0.163573 0.040099 0
-0.168846 0.038516 0
-0.173282 0.036869 0
-0.176820 0.034966 0
-0.179440 0.032621 0
-0.181166 0.029689 0
-0.182058 0.026092 0
-0.182200 0.021821 0
-0.181678 0.016919 0
-0.180558 0.011447 0
-0.178876 0.005452 0
-0.176649 -0.001058 0
-0.173881 -0.008051 0
-0.170519 -0.015615 0
-0.166443 -0.023931 0
-0.161574 -0.033117 0
-0.155801 -0.043313 0
-0.148996 -0.054661 0
-0.141016 -0.067248 0
-0.131688 -0.081018 0
-0.120787 -0.095619 0
-0.108019 -0.110134 0
-0.093028 -0.122641 0
-0.075458 -0.129517 0
-0.055186 -0.124493 0
-0.032894 -0.097853 0
-0.011402 -0.040021 0
0.000000 -0.001180 0
0.000000 0.048256 0
-0.018156 0.100738 0
-0.038306 0.100510 0
-0.056031 0.091969 0
-0.071322 0.084187 0
-0.084549 0.077183 0
-0.096084 0.070961 0
-0.106237 0.065511 0
-0.115238 0.060788 0
-0.123249 0.056725 0
-0.130385 0.053232 0
-0.136717 0.050207 0
-0.142284 0.047534 0
-0.147094 0.045079 0
-0.151137 0.042694 0
-0.154396 0.040213 0
-0.156866 0.037466 0
-0.158572 0.034303 0
-0.159566 0.030611 0
-0.159921 0.026333 0
-0.159716 0.021462 0
-0.159017 0.016026 0
-0.157870 0.010059 0
-0.156291 0.003584 0
-0.154285 -0.003392 0
-0.151865 -0.010889 0
-0.148945 -0.019041 0
-0.145476 -0.028010 0
-0.141409 -0.037923 0
-0.136681 -0.048934 0
-0.131222 -0.061202 0
-0.124946 -0.074839 0
-0.117733 -0.089838 0
-0.109394 -0.105929 0
-0.099628 -0.122302 0
-0.087975 -0.137136 0
-0.073823 -0.146789 0
-0.056569 -0.144594 0
-0.036164 -0.119459 0
-0.014527 -0.057540 0
0.000000 -0.007815 0
0.000000 0.056782 0
-0.015896 0.118883 0
-0.034171 0.118607 0
-0.050333 0.107759 0
-0.064279 0.097815 0
-0.076324 0.088990 0
-0.086779 0.081262 0
-0.095903 0.074556 0
-0.103897 0.068764 0
-0.110905 0.063761 0
-0.117029 0.059419 0
-0.122338 0.055599 0
-0.126878 0.052161 0
-0.130674 0.048952 0
-0.133743 0.045818 0
-0.136104 0.042598 0
-0.137786 0.039142 0
-0.138838 0.035320 0
-0.139326 0.031038 0
-0.139319 0.026242 0
-0.138885 0.020918 0
-0.138074 0.015073 0
-0.136914 0.008721 0
-0.135415 0.001867 0
-0.133575 -0.005484 0
-0.131396 -0.013391 0
-0.128822 -0.022004 0
-0.125831 -0.031467 0
-0.122397 -0.041912 0
-0.118490 -0.053500 0
-0.114082 -0.066396 0
-0.109133 -0.080737 0
-0.103576 -0.096570 0
-0.097272 -0.113724 0
-0.089951 -0.131554 0
-0.081124 -0.148446 0
-0.070029 -0.160923 0
-0.055707 -0.162152 0
-0.037487 -0.139895 0
-0.016449 -0.076184 0
0.000000 -0.015707 0
0.000000 0.064152 0
-0.013614 0.134909 0
-0.029997 0.134947 0
-0.044607 0.122078 0
-0.057235 0.110179 0
-0.068142 0.099682 0
-0.077581 0.090540 0
-0.085762 0.082629 0
-0.092852 0.075790 0
-0.098976 0.069856 0
-0.104226 0.064666 0
-0.108671 0.060056 0
-0.112361 0.055869 0
-0.115338 0.051944 0
-0.117639 0.048124 0
-0.119304 0.044256 0
-0.120383 0.040201 0
-0.120936 0.035842 0
-0.121030 0.031092 0
-0.120733 0.025893 0
-0.120102 0.020217 0
-0.119176 0.014054 0
-0.117979 0.007400 0
-0.116516 0.000245 0
-0.114781 -0.007411 0
-0.112777 -0.015642 0
-0.110473 -0.024606 0
-0.107859 -0.034436 0
-0.104923 -0.045264 0
-0.101656 -0.057249 0
-0.098057 -0.070559 0
-0.094118 -0.085344 0
-0.089813 -0.101699 0
-0.085056 -0.119554 0
-0.079632 -0.138450 0
-0.073087 -0.157058 0
-0.064609 -0.172206 0
-0.053015 -0.177136 0
-0.037139 -0.158717 0
-0.017300 -0.095027 0
0.000000 -0.024264 0
0.000000 0.070396 0
-0.011448 0.148881 0
-0.026038 0.149600 0
-0.039189 0.134997 0
-0.050586 0.121350 0
-0.060437 0.109336 0
-0.068942 0.098882 0
-0.076270 0.089827 0
-0.082555 0.081977 0
-0.087905 0.075135 0
-0.092403 0.069113 0
-0.096118 0.063734 0
-0.099106 0.058828 0
-0.101418 0.054230 0
-0.103103 0.049784 0
-0.104216 0.045342 0
-0.104814 0.040774 0
-0.104963 0.035967 0
-0.104730 0.030835 0
-0.104178 0.025313 0
-0.103358 0.019360 0
-0.102307 0.012949 0
-0.101046 0.006060 0
-0.099578 -0.001330 0
-0.097910 -0.009222 0
-0.096037 -0.017699 0
-0.093944 -0.026922 0
-0.091630 -0.037018 0
-0.089091 -0.048115 0
-0.086331 -0.060366 0
-0.083359 -0.073935 0
-0.080189 -0.088982 0
-0.076820 -0.105632 0
-0.073213 -0.123904 0
-0.069215 -0.143522 0
-0.064445 -0.163470 0
-0.058129 -0.180995 0
-0.048988 -0.189622 0
-0.035499 -0.175610 0
-0.017309 -0.113323 0
0.000000 -0.033006 0
0.000000 0.075600 0
-0.009467 0.160947 0
-0.022402 0.162688 0
-0.034218 0.146625 0
-0.044488 0.131426 0
-0.053373 0.118039 0
-0.061028 0.106374 0
-0.067585 0.096242 0
-0.073153 0.087424 0
-0.077822 0.079704 0
-0.081671 0.072879 0
-0.084766 0.066759 0
-0.087167 0.061169 0
-0.088931 0.055942 0
-0.090114 0.050922 0
-0.090776 0.045966 0
-0.090980 0.040949 0
-0.090792 0.035758 0
-0.090277 0.030306 0
-0.089494 0.024520 0
-0.088495 0.018347 0
-0.087314 0.011742 0
-0.085972 0.004671 0
-0.084476 -0.002890 0
-0.082845 -0.010952 0
-0.081067 -0.019607 0
-0.079139 -0.029013 0
-0.077065 -0.039289 0
-0.074847 -0.050563 0
-0.072494 -0.062981 0
-0.070020 -0.076701 0
-0.067447 -0.091883 0
-0.064790 -0.108675 0
-0.062039 -0.127159 0
-0.059098 -0.147218 0
-0.055678 -0.168144 0
-0.051100 -0.187663 0
-0.044103 -0.199765 0
-0.032940 -0.190396 0
-0.016684 -0.130526 0
0.000000 -0.041573 0
0.000000 0.079864 0
-0.007686 0.171282 0
-0.019112 0.174350 0
-0.029720 0.157083 0
-0.038969 0.140505 0
-0.046974 0.125877 0
-0.053856 0.113095 0
-0.059716 0.101952 0
-0.064641 0.092214 0
-0.068710 0.083653 0
-0.071994 0.076057 0
-0.074558 0.069231 0
-0.076463 0.062993 0
-0.077767 0.057177 0
-0.078533 0.051629 0
-0.078820 0.046208 0
-0.078695 0.040790 0
-0.078220 0.035264 0
-0.077460 0.029537 0
-0.076472 0.023532 0
-0.075305 0.017180 0
-0.073997 0.010427 0
-0.072569 0.003222 0
-0.071033 -0.004458 0
-0.069412 -0.012632 0
-0.067701 -0.021404 0
-0.065901 -0.030924 0
-0.064019 -0.041310 0
-0.062062 -0.052686 0
-0.060041 -0.065192 0
-0.057972 -0.078981 0
-0.055878 -0.094212 0
-0.053779 -0.111041 0
-0.051682 -0.129596 0
-0.049535 -0.149883 0
-0.047135 -0.171468 0
-0.043933 -0.192570 0
-0.038767 -0.207781 0
-0.029792 -0.203029 0
-0.015610 -0.146264 0
0.000000 -0.049691 0
0.000000 0.083286 0
-0.006092 0.180059 0
-0.016151 0.184722 0
-0.025666 0.166482 0
-0.033990 0.148680 0
-0.041195 0.132926 0
-0.047371 0.119115 0
-0.052597 0.107027 0
-0.056944 0.096419 0
-0.060480 0.087057 0
-0.063269 0.078727 0
-0.065373 0.071228 0
-0.066854 0.064378 0
-0.067770 0.058012 0
-0.068183 0.051975 0
-0.068156 0.046128 0
-0.067751 0.040348 0
-0.067033 0.034524 0
-0.066060 0.028558 0
-0.064891 0.022366 0
-0.063573 0.015872 0
-0.062146 0.009006 0
-0.060635 0.001707 0
-0.059048 -0.006048 0
-0.057423 -0.014285 0
-0.055756 -0.023119 0
-0.054055 -0.032694 0
-0.052328 -0.043127 0
-0.050585 -0.054541 0
-0.048837 -0.067071 0
-0.047103 -0.080864 0
-0.045404 -0.096077 0
-0.043761 -0.112871 0
-0.042187 -0.131403 0
-0.040658 -0.151765 0
-0.039042 -0.173746 0
-0.036926 -0.196031 0
-0.033303 -0.213906 0
-0.026334 -0.213553 0
-0.014258 -0.160319 0
0.000000 -0.057183 0
0.000000 0.085956 0
-0.004663 0.187433 0
-0.013475 0.193924 0
-0.022000 0.174923 0
-0.029483 0.156033 0
-0.035955 0.139257 0
-0.041485 0.124497 0
-0.046133 0.111525 0
-0.049957 0.100097 0
-0.053016 0.089978 0
-0.055367 0.080950 0
-0.057071 0.072815 0
-0.058185 0.065389 0
-0.058769 0.058506 0
-0.058884 0.052015 0
-0.058590 0.045776 0
-0.057949 0.039666 0
-0.057022 0.033573 0
-0.055867 0.027395 0
-0.054540 0.021044 0
-0.053089 0.014435 0
-0.051554 0.007488 0
-0.049962 0.000125 0
-0.048325 -0.007669 0
-0.046688 -0.015924 0
-0.045052 -0.024773 0
-0.043426 -0.034352 0
-0.041825 -0.044780 0
-0.040257 -0.056176 0
-0.038738 -0.068674 0
-0.037287 -0.082414 0
-0.035924 -0.097554 0
-0.034668 -0.114258 0
-0.033533 -0.132700 0
-0.032510 -0.153028 0
-0.031521 -0.175200 0
-0.030275 -0.198309 0
-0.027943 -0.218373 0
-0.022781 -0.222074 0
-0.012762 -0.172598 0
0.000000 -0.063948 0
0.000000 0.087949 0
-0.003366 0.193534 0
-0.011032 0.202059 0
-0.018652 0.182490 0
-0.025365 0.162635 0
-0.031163 0.144928 0
-0.036098 0.129293 0
-0.040215 0.115499 0
-0.043562 0.103301 0
-0.046191 0.092468 0
-0.048154 0.082782 0
-0.049505 0.074045 0
-0.050302 0.066077 0
-0.050601 0.058711 0
-0.050461 0.051795 0
-0.049940 0.045193 0
-0.049099 0.038780 0
-0.047995 0.032442 0
-0.046685 0.026076 0
-0.045224 0.019588 0
-0.043657 0.012886 0
-0.042025 0.005879 0
-0.040355 -0.001522 0
-0.038676 -0.009322 0
-0.037026 -0.017558 0
-0.035411 -0.026381 0
-0.033847 -0.035921 0
-0.032348 -0.046296 0
-0.030927 -0.057628 0
-0.029602 -0.070041 0
-0.028396 -0.083678 0
-0.027326 -0.098695 0
-0.026411 -0.115262 0
-0.025661 -0.133562 0
-0.025077 -0.153777 0
-0.024613 -0.175981 0
-0.024085 -0.199608 0
-0.022840 -0.221399 0
-0.019286 -0.228735 0
-0.011222 -0.183100 0
0.000000 -0.069945 0
0.000000 0.089322 0
-0.002165 0.198465 0
-0.008763 0.209210 0
-0.015547 0.189256 0
-0.021551 0.168545 0
-0.026725 0.149990 0
-0.031107 0.133549 0
-0.034733 0.118990 0
-0.037643 0.106073 0
-0.039881 0.094570 0
-0.041495 0.084265 0
-0.042535 0.074963 0
-0.043054 0.066485 0
-0.043106 0.058665 0
-0.042748 0.051354 0
-0.042035 0.044414 0
-0.041024 0.037721 0
-0.039773 0.031159 0
-0.038334 0.024624 0
-0.036759 0.018016 0
-0.035096 0.011237 0
-0.033382 0.004186 0
-0.031641 -0.003225 0
-0.029930 -0.010998 0
-0.028268 -0.019189 0
-0.026668 -0.027952 0
-0.025153 -0.037415 0
-0.023742 -0.047699 0
-0.022448 -0.058922 0
-0.021294 -0.071205 0
-0.020306 -0.084690 0
-0.019501 -0.099538 0
-0.018893 -0.115923 0
-0.018495 -0.134034 0
-0.018308 -0.154076 0
-0.018309 -0.176191 0
-0.018398 -0.200082 0
-0.018077 -0.223172 0
-0.015948 -0.233692 0
-0.009711 -0.191884 0
0.000000 -0.075171 0
0.000000 0.090115 0
-0.001031 0.202297 0
-0.006617 0.215441 0
-0.012616 0.195278 0
-0.017957 0.173813 0
-0.022548 0.154485 0
-0.026414 0.137301 0
-0.029582 0.122035 0
-0.032087 0.108449 0
-0.033967 0.096319 0
-0.035264 0.085436 0
-0.036025 0.075604 0
-0.036300 0.066648 0
-0.036138 0.058404 0
-0.035592 0.050724 0
-0.034716 0.043470 0
-0.033565 0.036518 0
-0.032190 0.029751 0
-0.030646 0.023063 0
-0.028981 0.016350 0
-0.027241 0.009509 0
-0.025465 0.002424 0
-0.023664 -0.004975 0
-0.021926 -0.012695 0
-0.020253 -0.020819 0
-0.018665 -0.029495 0
-0.017192 -0.038847 0
-0.015859 -0.049002 0
-0.014682 -0.060076 0
-0.013687 -0.072184 0
-0.012900 -0.085472 0
-0.012339 -0.100108 0
-0.012018 -0.116268 0
-0.011947 -0.134147 0
-0.012132 -0.153962 0
-0.012566 -0.175891 0
-0.013204 -0.199841 0
-0.013686 -0.223849 0
-0.012822 -0.237100 0
-0.008274 -0.199048 0
0.000000 -0.079656 0
0.000000 0.090353 0
0.000031 0.205081 0
-0.004534 0.220794 0
-0.009787 0.200596 0
-0.014501 0.178477 0
-0.018542 0.158447 0
-0.021921 0.140583 0
-0.024659 0.124663 0
-0.026785 0.110458 0
-0.028333 0.097747 0
-0.029340 0.086324 0
-0.029850 0.075999 0
-0.029906 0.066597 0
-0.029557 0.057958 0
-0.028850 0.049933 0
-0.027837 0.042387 0
-0.026569 0.035195 0
-0.025095 0.028240 0
-0.023467 0.021415 0
-0.021732 0.014612 0
-0.019936 0.007721 0
-0.018111 0.000609 0
-0.016266 -0.006763 0
-0.014509 -0.014409 0
-0.012826 -0.022449 0
-0.011250 -0.031013 0
-0.009817 -0.040222 0
-0.008558 -0.050209 0
-0.007499 -0.061094 0
-0.006661 -0.072987 0
-0.006068 -0.086038 0
-0.005738 -0.100421 0
-0.005688 -0.116315 0
-0.005930 -0.133920 0
-0.006468 -0.153457 0
-0.007319 -0.175119 0
-0.008464 -0.198962 0
-0.009657 -0.223554 0
-0.009922 -0.239103 0
-0.006930 -0.204706 0
0.000000 -0.083445 0
0.000000 0.090084 0
0.001040 0.206831 0
-0.002462 0.225258 0
-0.006991 0.205246 0
-0.011108 0.182569 0
-0.014623 0.161904 0
-0.017537 0.143417 0
-0.019866 0.126899 0
-0.021634 0.112123 0
-0.022871 0.098875 0
-0.023610 0.086953 0
-0.023890 0.076170 0
-0.023750 0.066355 0
-0.023235 0.057348 0
-0.022389 0.049004 0
-0.021261 0.041188 0
-0.019897 0.033775 0
-0.018345 0.026649 0
-0.016652 0.019700 0
-0.014867 0.012820 0
-0.013026 0.005888 0
-0.011143 -0.001246 0
-0.009282 -0.008578 0
-0.007515 -0.016135 0
-0.005832 -0.024078 0
-0.004278 -0.032505 0
-0.002895 -0.041539 0
-0.001716 -0.051319 0
-0.000778 -0.061972 0
-0.000102 -0.073615 0
0.000299 -0.086396 0
0.000404 -0.100488 0
0.000192 -0.116076 0
-0.000350 -0.133366 0
-0.001237 -0.152573 0
-0.002496 -0.173895 0
-0.004117 -0.197502 0
-0.005956 -0.222391 0
-0.007237 -0.239828 0
-0.005678 -0.208971 0
0.000000 -0.086586 0
0.000000 0.089313 0
0.002047 0.207543 0
-0.000345 0.228825 0
-0.004167 0.209242 0
-0.007699 0.186109 0
-0.010708 0.164876 0
-0.013174 0.145825 0
-0.015110 0.128761 0
-0.016536 0.113463 0
-0.017478 0.099723 0
-0.017965 0.087342 0
-0.018031 0.076139 0
-0.017713 0.065942 0
-0.017049 0.056597 0
-0.016083 0.047959 0
-0.014857 0.039895 0
-0.013418 0.032279 0
-0.011806 0.024996 0
-0.010064 0.017937 0
-0.008245 0.010986 0
-0.006382 0.003998 0
-0.004422 -0.003135 0
-0.002545 -0.010392 0
-0.000766 -0.017860 0
0.000883 -0.025686 0
0.002373 -0.033950 0
0.003676 -0.042783 0
0.004757 -0.052326 0
0.005575 -0.062708 0
0.006101 -0.074064 0
0.006317 -0.086543 0
0.006199 -0.100314 0
0.005726 -0.115562 0
0.004878 -0.132491 0
0.003632 -0.151311 0
0.001975 -0.172239 0
-0.000083 -0.195502 0
-0.002529 -0.220434 0
-0.004735 -0.239381 0
-0.004511 -0.211943 0
0.000000 -0.089123 0
0.000000 0.088037 0
0.003078 0.207176 0
0.001862 0.231472 0
-0.001228 0.212600 0
-0.004209 0.189109 0
-0.006714 0.167378 0
-0.008745 0.147820 0
-0.010301 0.130262 0
-0.011397 0.114491 0
-0.012055 0.100304 0
-0.012301 0.087506 0
-0.012167 0.075918 0
-0.011683 0.065373 0
-0.010884 0.055718 0
-0.009809 0.046812 0
-0.008502 0.038524 0
-0.007006 0.030724 0
-0.005352 0.023295 0
-0.003557 0.016139 0
-0.001687 0.009138 0
0.000218 0.002064 0
0.002178 -0.005082 0
0.004033 -0.012233 0
0.005786 -0.019563 0
0.007381 -0.027216 0
0.008798 -0.035297 0
0.010013 -0.043923 0
0.010989 -0.053218 0
0.011686 -0.063317 0
0.012067 -0.074357 0
0.012102 -0.086494 0
0.011762 -0.099897 0
0.011022 -0.114755 0
0.009857 -0.131272 0
0.008246 -0.149670 0
0.006182 -0.170181 0
0.003665 -0.192998 0
0.000680 -0.217738 0
-0.002373 -0.237847 0
-0.003409 -0.213706 0
0.000000 -0.091096 0
0.000000 0.086236 0
0.004155 0.205681 0
0.004173 0.233130 0
0.001907 0.215312 0
-0.000525 0.191595 0
-0.002563 0.169413 0
-0.004174 0.149413 0
-0.005351 0.131412 0
-0.006121 0.115217 0
-0.006502 0.100628 0
-0.006517 0.087455 0
-0.006192 0.075520 0
-0.005555 0.064659 0
-0.004633 0.054723 0
-0.003453 0.045577 0
-0.002060 0.037091 0
-0.000493 0.029129 0
0.001210 0.021547 0
0.003026 0.014272 0
0.004919 0.007211 0
0.006868 0.000133 0
0.008744 -0.006951 0
0.010533 -0.014001 0
0.012221 -0.021207 0
0.013763 -0.028698 0
0.015120 -0.036582 0
0.016255 -0.044975 0
0.017126 -0.053999 0
0.017693 -0.063786 0
0.017917 -0.074480 0
0.017761 -0.086238 0
0.017192 -0.099234 0
0.016179 -0.113657 0
0.014695 -0.129716 0
0.012717 -0.147636 0
0.010225 -0.167657 0
0.007210 -0.189999 0
0.003689 -0.214397 0
-0.000107 -0.235293 0
-0.002354 -0.214316 0
0.000000 -0.092532 0
0.000000 0.083882 0
0.005300 0.203002 0
0.006624 0.233721 0
0.005268 0.217299 0
0.003432 0.193579 0
0.001845 0.171028 0
0.000648 0.150608 0
-0.000164 0.132208 0
-0.000618 0.115642 0
-0.000726 0.100700 0
-0.000509 0.087196 0
0.000010 0.074957 0
0.000803 0.063814 0
0.001847 0.053616 0
0.003123 0.044239 0
0.004594 0.035564 0
0.006222 0.027455 0
0.007963 0.019776 0
0.009764 0.012430 0
0.011621 0.005295 0
0.013541 -0.001761 0
0.015359 -0.008747 0
0.017097 -0.015710 0
0.018726 -0.022793 0
0.020203 -0.030116 0
0.021484 -0.037789 0
0.022523 -0.045929 0
0.023278 -0.054657 0
0.023704 -0.064107 0
0.023758 -0.074425 0
0.023400 -0.085769 0
0.022591 -0.098316 0
0.021297 -0.112258 0
0.019483 -0.127810 0
0.017124 -0.145200 0
0.014194 -0.164674 0