# vtk DataFile Version 2.0
generated by CFD-lab course output (written by Tobias Neckel) 
ASCII

DATASET STRUCTURED_GRID
DIMENSIONS  41 41 1 
POINTS 1681 float

0.150000 0.150000 0
0.167857 0.150000 0
0.185714 0.150000 0
0.203571 0.150000 0
0.221429 0.150000 0
0.239286 0.150000 0
0.257143 0.150000 0
0.275000 0.150000 0
0.292857 0.150000 0
0.310714 0.150000 0
0.328571 0.150000 0
0.346429 0.150000 0
0.364286 0.150000 0
0.382143 0.150000 0
0.400000 0.150000 0
0.417857 0.150000 0
0.435714 0.150000 0
0.453571 0.150000 0
0.471429 0.150000 0
0.489286 0.150000 0
0.507143 0.150000 0
0.525000 0.150000 0
0.542857 0.150000 0
0.560714 0.150000 0
0.578571 0.150000 0
0.596429 0.150000 0
0.614286 0.150000 0
0.632143 0.150000 0
0.650000 0.150000 0
0.667857 0.150000 0
0.685714 0.150000 0
0.703571 0.150000 0
0.721429 0.150000 0
0.739286 0.150000 0
0.757143 0.150000 0
0.775000 0.150000 0
0.792857 0.150000 0
0.810714 0.150000 0
0.828571 0.150000 0
0.846429 0.150000 0
0.864286 0.150000 0
0.150000 0.167857 0
0.167857 0.167857 0
0.185714 0.167857 0
0.203571 0.167857 0
0.221429 0.167857 0
0.239286 0.167857 0
0.257143 0.167857 0
0.275000 0.167857 0
0.292857 0.167857 0
0.310714 0.167857 0
0.328571 0.167857 0
0.346429 0.167857 0
0.364286 0.167857 0
0.382143 0.167857 0
0.400000 0.167857 0
0.417857 0.167857 0
0.435714 0.167857 0
0.453571 0.167857 0
0.471429 0.167857 0
0.489286 0.167857 0
0.507143 0.167857 0
0.525000 0.167857 0
0.542857 0.167857 0
0.560714 0.167857 0
0.578571 0.167857 0
0.596429 0.167857 0
0.614286 0.167857 0
0.632143 0.167857 0
0.650000 0.167857 0
0.667857 0.167857 0
0.685714 0.167857 0
0.703571 0.167857 0
0.721429 0.167857 0
0.739286 0.167857 0
0.757143 0.167857 0
0.775000 0.167857 0
0.792857 0.167857 0
0.810714 0.167857 0
0.828571 0.167857 0
0.846429 0.167857 0
0.864286 0.167857 0
0.150000 0.185714 0
0.167857 0.185714 0
0.185714 0.185714 0
0.203571 0.185714 0
0.221429 0.185714 0
0.239286 0.185714 0
0.257143 0.185714 0
0.275000 0.185714 0
0.292857 0.185714 0
0.310714 0.185714 0
0.328571 0.185714 0
0.346429 0.185714 0
0.364286 0.185714 0
0.382143 0.185714 0
0.400000 0.185714 0
0.417857 0.185714 0
0.435714 0.185714 0
0.453571 0.185714 0
0.471429 0.185714 0
0.489286 0.185714 0
0.507143 0.185714 0
0.525000 0.185714 0
0.542857 0.185714 0
0.560714 0.185714 0
0.578571 0.185714 0
0.596429 0.185714 0
0.614286 0.185714 0
0.632143 0.185714 0
0.650000 0.185714 0
0.667857 0.185714 0
0.685714 0.185714 0
0.703571 0.185714 0
0.721429 0.185714 0
0.739286 0.185714 0
0.757143 0.185714 0
0.775000 0.185714 0
0.792857 0.185714 0
0.810714 0.185714 0
0.828571 0.185714 0
0.846429 0.185714 0
0.864286 0.185714 0
0.150000 0.203571 0
0.167857 0.203571 0
0.185714 0.203571 0
0.203571 0.203571 0
0.221429 0.203571 0
0.239286 0.203571 0
0.257143 0.203571 0
0.275000 0.203571 0
0.292857 0.203571 0
0.310714 0.203571 0
0.328571 0.203571 0
0.346429 0.203571 0
0.364286 0.203571 0
0.382143 0.203571 0
0.400000 0.203571 0
0.417857 0.203571 0
0.435714 0.203571 0
0.453571 0.203571 0
0.471429 0.203571 0
0.489286 0.203571 0
0.507143 0.203571 0
0.525000 0.203571 0
0.542857 0.203571 0
0.560714 0.203571 0
0.578571 0.203571 0
0.596429 0.203571 0
0.614286 0.203571 0
0.632143 0.203571 0
0.650000 0.203571 0
0.667857 0.203571 0
0.685714 0.203571 0
0.703571 0.203571 0
0.721429 0.203571 0
0.739286 0.203571 0
0.757143 0.203571 0
0.775000 0.203571 0
0.792857 0.203571 0
0.810714 0.203571 0
0.828571 0.203571 0
0.846429 0.203571 0
0.864286 0.203571 0
0.150000 0.221429 0
0.167857 0.221429 0
0.185714 0.221429 0
0.203571 0.221429 0
0.221429 0.221429 0
0.239286 0.221429 0
0.257143 0.221429 0
0.275000 0.221429 0
0.292857 0.221429 0
0.310714 0.221429 0
0.328571 0.221429 0
0.346429 0.221429 0
0.364286 0.221429 0
0.382143 0.221429 0
0.400000 0.221429 0
0.417857 0.221429 0
0.435714 0.221429 0
0.453571 0.221429 0
0.471429 0.221429 0
0.489286 0.221429 0
0.507143 0.221429 0
0.525000 0.221429 0
0.542857 0.221429 0
0.560714 0.221429 0
0.578571 0.221429 0
0.596429 0.221429 0
0.614286 0.221429 0
0.632143 0.221429 0
0.650000 0.221429 0
0.667857 0.221429 0
0.685714 0.221429 0
0.703571 0.221429 0
0.721429 0.221429 0
0.739286 0.221429 0
0.757143 0.221429 0
0.775000 0.221429 0
0.792857 0.221429 0
0.810714 0.221429 0
0.828571 0.221429 0
0.846429 0.221429 0
0.864286 0.221429 0
0.150000 0.239286 0
0.167857 0.239286 0
0.185714 0.239286 0
0.203571 0.239286 0
0.221429 0.239286 0
0.239286 0.239286 0
0.257143 0.239286 0
0.275000 0.239286 0
0.292857 0.239286 0
0.310714 0.239286 0
0.328571 0.239286 0
0.346429 0.239286 0
0.364286 0.239286 0
0.382143 0.239286 0
0.400000 0.239286 0
0.417857 0.239286 0
0.435714 0.239286 0
0.453571 0.239286 0
0.471429 0.239286 0
0.489286 0.239286 0
0.507143 0.239286 0
0.525000 0.239286 0
0.542857 0.239286 0
0.560714 0.239286 0
0.578571 0.239286 0
0.596429 0.239286 0
0.614286 0.239286 0
0.632143 0.239286 0
0.650000 0.239286 0
0.667857 0.239286 0
0.685714 0.239286 0
0.703571 0.239286 0
0.721429 0.239286 0
0.739286 0.239286 0
0.757143 0.239286 0
0.775000 0.239286 0
0.792857 0.239286 0
0.810714 0.239286 0
0.828571 0.239286 0
0.846429 0.239286 0
0.864286 0.239286 0
0.150000 0.257143 0
0.167857 0.257143 0
0.185714 0.257143 0
0.203571 0.257143 0
0.221429 0.257143 0
0.239286 0.257143 0
0.257143 0.257143 0
0.275000 0.257143 0
0.292857 0.257143 0
0.310714 0.257143 0
0.328571 0.257143 0
0.346429 0.257143 0
0.364286 0.257143 0
0.382143 0.257143 0
0.400000 0.257143 0
0.417857 0.257143 0
0.435714 0.257143 0
0.453571 0.257143 0
0.471429 0.257143 0
0.489286 0.257143 0
0.507143 0.257143 0
0.525000 0.257143 0
0.542857 0.257143 0
0.560714 0.257143 0
0.578571 0.257143 0
0.596429 0.257143 0
0.614286 0.257143 0
0.632143 0.257143 0
0.650000 0.257143 0
0.667857 0.257143 0
0.685714 0.257143 0
0.703571 0.257143 0
0.721429 0.257143 0
0.739286 0.257143 0
0.757143 0.257143 0
0.775000 0.257143 0
0.792857 0.257143 0
0.810714 0.257143 0
0.828571 0.257143 0
0.846429 0.257143 0
0.864286 0.257143 0
0.150000 0.275000 0
0.167857 0.275000 0
0.185714 0.275000 0
0.203571 0.275000 0
0.221429 0.275000 0
0.239286 0.275000 0
0.257143 0.275000 0
0.275000 0.275000 0
0.292857 0.275000 0
0.310714 0.275000 0
0.328571 0.275000 0
0.346429 0.275000 0
0.364286 0.275000 0
0.382143 0.275000 0
0.400000 0.275000 0
0.417857 0.275000 0
0.435714 0.275000 0
0.453571 0.275000 0
0.471429 0.275000 0
0.489286 0.275000 0
0.507143 0.275000 0
0.525000 0.275000 0
0.542857 0.275000 0
0.560714 0.275000 0
0.578571 0.275000 0
0.596429 0.275000 0
0.614286 0.275000 0
0.632143 0.275000 0
0.650000 0.275000 0
0.667857 0.275000 0
0.685714 0.275000 0
0.703571 0.275000 0
0.721429 0.275000 0
0.739286 0.275000 0
0.757143 0.275000 0
0.775000 0.275000 0
0.792857 0.275000 0
0.810714 0.275000 0
0.828571 0.275000 0
0.846429 0.275000 0
0.864286 0.275000 0
0.150000 0.292857 0
0.167857 0.292857 0
0.185714 0.292857 0
0.203571 0.292857 0
0.221429 0.292857 0
0.239286 0.292857 0
0.257143 0.292857 0
0.275000 0.292857 0
0.292857 0.292857 0
0.310714 0.292857 0
0.328571 0.292857 0
0.346429 0.292857 0
0.364286 0.292857 0
0.382143 0.292857 0
0.400000 0.292857 0
0.417857 0.292857 0
0.435714 0.292857 0
0.453571 0.292857 0
0.471429 0.292857 0
0.489286 0.292857 0
0.507143 0.292857 0
0.525000 0.292857 0
0.542857 0.292857 0
0.560714 0.292857 0
0.578571 0.292857 0
0.596429 0.292857 0
0.614286 0.292857 0
0.632143 0.292857 0
0.650000 0.292857 0
0.667857 0.292857 0
0.685714 0.292857 0
0.703571 0.292857 0
0.721429 0.292857 0
0.739286 0.292857 0
0.757143 0.292857 0
0.775000 0.292857 0
0.792857 0.292857 0
0.810714 0.292857 0
0.828571 0.292857 0
0.846429 0.292857 0
0.864286 0.292857 0
0.150000 0.310714 0
0.167857 0.310714 0
0.185714 0.310714 0
0.203571 0.310714 0
0.221429 0.310714 0
0.239286 0.310714 0
0.257143 0.310714 0
0.275000 0.310714 0
0.292857 0.310714 0
0.310714 0.310714 0
0.328571 0.310714 0
0.346429 0.310714 0
0.364286 0.310714 0
0.382143 0.310714 0
0.400000 0.310714 0
0.417857 0.310714 0
0.435714 0.310714 0
0.453571 0.310714 0
0.471429 0.310714 0
0.489286 0.310714 0
0.507143 0.310714 0
0.525000 0.310714 0
0.542857 0.310714 0
0.560714 0.310714 0
0.578571 0.310714 0
0.596429 0.310714 0
0.614286 0.310714 0
0.632143 0.310714 0
0.650000 0.310714 0
0.667857 0.310714 0
0.685714 0.310714 0
0.703571 0.310714 0
0.721429 0.310714 0
0.739286 0.310714 0
0.757143 0.310714 0
0.775000 0.310714 0
0.792857 0.310714 0
0.810714 0.310714 0
0.828571 0.310714 0
0.846429 0.310714 0
0.864286 0.310714 0
0.150000 0.328571 0
0.167857 0.328571 0
0.185714 0.328571 0
0.203571 0.328571 0
0.221429 0.328571 0
0.239286 0.328571 0
0.257143 0.328571 0
0.275000 0.328571 0
0.292857 0.328571 0
0.310714 0.328571 0
0.328571 0.328571 0
0.346429 0.328571 0
0.364286 0.328571 0
0.382143 0.328571 0
0.400000 0.328571 0
0.417857 0.328571 0
0.435714 0.328571 0
0.453571 0.328571 0
0.471429 0.328571 0
0.489286 0.328571 0
0.507143 0.328571 0
0.525000 0.328571 0
0.542857 0.328571 0
0.560714 0.328571 0
0.578571 0.328571 0
0.596429 0.328571 0
0.614286 0.328571 0
0.632143 0.328571 0
0.650000 0.328571 0
0.667857 0.328571 0
0.685714 0.328571 0
0.703571 0.328571 0
0.721429 0.328571 0
0.739286 0.328571 0
0.757143 0.328571 0
0.775000 0.328571 0
0.792857 0.328571 0
0.810714 0.328571 0
0.828571 0.328571 0
0.846429 0.328571 0
0.864286 0.328571 0
0.150000 0.346429 0
0.167857 0.346429 0
0.185714 0.346429 0
0.203571 0.346429 0
0.221429 0.346429 0
0.239286 0.346429 0
0.257143 0.346429 0
0.275000 0.346429 0
0.292857 0.346429 0
0.310714 0.346429 0
0.328571 0.346429 0
0.346429 0.346429 0
0.364286 0.346429 0
0.382143 0.346429 0
0.400000 0.346429 0
0.417857 0.346429 0
0.435714 0.346429 0
0.453571 0.346429 0
0.471429 0.346429 0
0.489286 0.346429 0
0.507143 0.346429 0
0.525000 0.346429 0
0.542857 0.346429 0
0.560714 0.346429 0
0.578571 0.346429 0
0.596429 0.346429 0
0.614286 0.346429 0
0.632143 0.346429 0
0.650000 0.346429 0
0.667857 0.346429 0
0.685714 0.346429 0
0.703571 0.346429 0
0.721429 0.346429 0
0.739286 0.346429 0
0.757143 0.346429 0
0.775000 0.346429 0
0.792857 0.346429 0
0.810714 0.346429 0
0.828571 0.346429 0
0.846429 0.346429 0
[...]
POINT_DATA 1681 

VECTORS velocity float
0.000000 0.000000 0
-0.003082 0.000000 0
-0.006374 0.000000 0
-0.010020 0.000000 0
-0.013956 0.000000 0
-0.017868 0.000000 0
-0.021522 0.000000 0
-0.024796 0.000000 0
-0.027639 0.000000 0
-0.030312 0.000000 0
-0.032772 0.000000 0
-0.035025 0.000000 0
-0.037051 0.000000 0
-0.038832 0.000000 0
-0.040376 0.000000 0
-0.041711 0.000000 0
-0.043070 0.000000 0
-0.044444 0.000000 0
-0.045863 0.000000 0
-0.047331 0.000000 0
-0.048863 0.000000 0
-0.050504 0.000000 0
-0.052309 0.000000 0
-0.054475 0.000000 0
-0.056949 0.000000 0
-0.059656 0.000000 0
-0.062420 0.000000 0
-0.065008 0.000000 0
-0.067149 0.000000 0
-0.068546 0.000000 0
-0.069007 0.000000 0
-0.068153 0.000000 0
-0.065616 0.000000 0
-0.061104 0.000000 0
-0.054411 0.000000 0
-0.045442 0.000000 0
-0.034327 0.000000 0
-0.021900 0.000000 0
-0.009690 0.000000 0
-0.000903 0.000000 0
0.000000 0.000000 0
0.000000 0.003082 0
-0.011009 0.006374 0
-0.022574 0.006938 0
-0.033417 0.007582 0
-0.043726 0.007848 0
-0.053307 0.007566 0
-0.061991 0.006928 0
-0.069719 0.006117 0
-0.076554 0.005516 0
-0.082716 0.005132 0
-0.088288 0.004714 0
-0.093330 0.004280 0
-0.097876 0.003807 0
-0.101959 0.003324 0
-0.105643 0.002879 0
-0.109040 0.002695 0
-0.112347 0.002733 0
-0.115640 0.002793 0
-0.118974 0.002887 0
-0.122376 0.003000 0
-0.125879 0.003173 0
-0.129536 0.003446 0
-0.133413 0.003971 0
-0.137594 0.004640 0
-0.141979 0.005181 0
-0.146356 0.005470 0
-0.150387 0.005352 0
-0.153643 0.004730 0
-0.155640 0.003538 0
-0.155871 0.001858 0
-0.153881 -0.000392 0
-0.149222 -0.003392 0
-0.141456 -0.007050 0
-0.130150 -0.011205 0
-0.114957 -0.015661 0
-0.095728 -0.020083 0
-0.072761 -0.023542 0
-0.047320 -0.024637 0
-0.022257 -0.020997 0
-0.003413 -0.009690 0
0.000000 -0.000903 0
0.000000 0.011009 0
-0.017183 0.022574 0
-0.035137 0.022408 0
-0.050506 0.021151 0
-0.063737 0.019890 0
-0.075221 0.018265 0
-0.085245 0.016412 0
-0.094045 0.014563 0
-0.101861 0.012997 0
-0.108680 0.011735 0
-0.114728 0.010614 0
-0.120144 0.009588 0
-0.125059 0.008629 0
-0.129595 0.007767 0
-0.133863 0.007081 0
-0.137982 0.006703 0
-0.141895 0.006600 0
-0.145717 0.006627 0
-0.149489 0.006736 0
-0.153246 0.006905 0
-0.156999 0.007160 0
-0.160731 0.007534 0
-0.164389 0.008058 0
-0.167733 0.008566 0
-0.170626 0.008762 0
-0.172827 0.008408 0
-0.174067 0.007287 0
-0.174052 0.005254 0
-0.172482 0.002228 0
-0.169083 -0.001759 0
-0.163586 -0.006649 0
-0.155815 -0.012425 0
-0.145563 -0.019072 0
-0.132552 -0.026499 0
-0.116502 -0.034422 0
-0.097263 -0.042196 0
-0.075038 -0.048408 0
-0.050513 -0.050504 0
-0.025933 -0.043907 0
-0.006027 -0.022257 0
0.000000 -0.003413 0
0.000000 0.020265 0
-0.018210 0.041510 0
-0.037450 0.040261 0
-0.053684 0.036183 0
-0.067203 0.032563 0
-0.078562 0.029074 0
-0.088243 0.025753 0
-0.096612 0.022733 0
-0.103932 0.020151 0
-0.110300 0.018000 0
-0.115912 0.016177 0
-0.120933 0.014611 0
-0.125518 0.013258 0
-0.129795 0.012128 0
-0.133865 0.011267 0
-0.137784 0.010727 0
-0.141514 0.010467 0
-0.145096 0.010387 0
-0.148551 0.010415 0
-0.151887 0.010511 0
-0.155078 0.010658 0
-0.158054 0.010835 0
-0.160684 0.010973 0
-0.162747 0.010878 0
-0.164082 0.010275 0
-0.164523 0.008910 0
-0.163921 0.006578 0
-0.162151 0.003145 0
-0.159099 -0.001431 0
-0.154742 -0.007038 0
-0.148956 -0.013660 0
-0.141538 -0.021415 0
-0.132240 -0.030312 0
-0.120799 -0.040266 0
-0.106940 -0.050950 0
-0.090446 -0.061547 0
-0.071285 -0.070292 0
-0.049825 -0.073742 0
-0.027573 -0.065484 0
-0.008218 -0.035623 0
0.000000 -0.006930 0
0.000000 0.029220 0
-0.017000 0.060025 0
-0.035446 0.057881 0
-0.051065 0.050904 0
-0.063981 0.044769 0
-0.074725 0.039305 0
-0.083785 0.034462 0
-0.091542 0.030252 0
-0.098256 0.026685 0
-0.104090 0.023715 0
-0.109217 0.021247 0
-0.113793 0.019194 0
-0.117961 0.017491 0
-0.121833 0.016115 0
-0.125487 0.015069 0
-0.128952 0.014352 0
-0.132216 0.013912 0
-0.135287 0.013664 0
-0.138167 0.013526 0
-0.140844 0.013432 0
-0.143276 0.013327 0
-0.145381 0.013140 0
-0.147035 0.012751 0
-0.148085 0.011964 0
-0.148419 0.010538 0
-0.147948 0.008247 0
-0.146616 0.004914 0
-0.144389 0.000431 0
-0.141254 -0.005181 0
-0.137228 -0.011902 0
-0.132103 -0.019853 0
-0.125718 -0.029142 0
-0.117875 -0.039810 0
-0.108347 -0.051798 0
-0.096874 -0.064776 0
-0.083195 -0.077852 0
-0.067116 -0.089028 0
-0.048709 -0.094215 0
-0.028848 -0.085514 0
-0.010256 -0.049830 0
0.000000 -0.011631 0
0.000000 0.037265 0
-0.015038 0.076956 0
-0.031989 0.074326 0
-0.046508 0.064717 0
-0.058573 0.056222 0
-0.068631 0.048879 0
-0.077104 0.042570 0
-0.084328 0.037204 0
-0.090544 0.032699 0
-0.095926 0.028960 0
-0.100632 0.025880 0
-0.104798 0.023354 0
-0.108550 0.021298 0
-0.111983 0.019653 0
-0.115162 0.018386 0
-0.118112 0.017456 0
-0.120832 0.016802 0
-0.123322 0.016338 0
-0.125575 0.015973 0
-0.127576 0.015620 0
-0.129283 0.015195 0
-0.130626 0.014593 0
-0.131516 0.013678 0
-0.131859 0.012262 0
-0.131587 0.010138 0
-0.130663 0.007107 0
-0.129072 0.003018 0
-0.126811 -0.002216 0
-0.123911 -0.008592 0
-0.120293 -0.016189 0
-0.115826 -0.025170 0
-0.110398 -0.035642 0
-0.103861 -0.047683 0
-0.096034 -0.061268 0
-0.086691 -0.076102 0
-0.075550 -0.091305 0
-0.062302 -0.104777 0
-0.046746 -0.112010 0
-0.029210 -0.103938 0
-0.011568 -0.064471 0
0.000000 -0.017186 0
0.000000 0.044258 0
-0.012986 0.092014 0
-0.028304 0.089350 0
-0.041633 0.077487 0
-0.052821 0.066892 0
-0.062220 0.057837 0
-0.070164 0.050159 0
-0.076926 0.043691 0
-0.082719 0.038284 0
-0.087707 0.033803 0
-0.092030 0.030119 0
-0.095809 0.027112 0
-0.099152 0.024676 0
-0.102145 0.022727 0
-0.104844 0.021198 0
-0.107279 0.020022 0
-0.109458 0.019122 0
-0.111380 0.018408 0
-0.113040 0.017781 0
-0.114422 0.017140 0
-0.115497 0.016377 0
-0.116216 0.015373 0
-0.116520 0.013983 0
-0.116355 0.012035 0
-0.115685 0.009343 0
-0.114497 0.005732 0
-0.112792 0.001062 0
-0.110571 -0.004730 0
-0.107871 -0.011699 0
-0.104596 -0.019986 0
-0.100683 -0.029748 0
-0.096053 -0.041107 0
-0.090605 -0.054174 0
-0.084206 -0.068968 0
-0.076662 -0.085260 0
-0.067697 -0.102241 0
-0.056928 -0.117832 0
-0.043940 -0.127308 0
-0.028617 -0.120692 0
-0.012150 -0.079040 0
0.000000 -0.023199 0
0.000000 0.050252 0
-0.011092 0.105260 0
-0.024855 0.102972 0
-0.037050 0.089235 0
-0.047404 0.076810 0
-0.056178 0.066221 0
-0.063623 0.057276 0
-0.069957 0.049760 0
-0.075358 0.043480 0
-0.079973 0.038271 0
-0.083927 0.033982 0
-0.087329 0.030477 0
-0.090274 0.027633 0
-0.092838 0.025345 0
-0.095077 0.023520 0
-0.097024 0.022070 0
-0.098694 0.020902 0
-0.100092 0.019920 0
-0.101216 0.019015 0
-0.102057 0.018078 0
-0.102595 0.016988 0
-0.102803 0.015616 0
-0.102647 0.013817 0
-0.102097 0.011427 0
-0.101139 0.008280 0
-0.099768 0.004214 0
-0.097993 -0.000908 0
-0.095832 -0.007137 0
-0.093289 -0.014567 0
-0.090309 -0.023377 0
-0.086858 -0.033714 0
-0.082886 -0.045720 0
-0.078330 -0.059531 0
-0.073094 -0.075211 0
-0.067025 -0.092611 0
-0.059866 -0.111039 0
-0.051206 -0.128534 0
-0.040482 -0.140321 0
-0.027245 -0.135727 0
-0.012137 -0.093089 0
0.000000 -0.029336 0
0.000000 0.055350 0
-0.009405 0.116869 0
-0.021767 0.115308 0
-0.032930 0.100036 0
-0.042509 0.086020 0
-0.050685 0.074056 0
-0.057646 0.063938 0
-0.063561 0.055426 0
-0.068578 0.048300 0
-0.072827 0.042372 0
-0.076420 0.037476 0
-0.079454 0.033459 0
-0.082014 0.030185 0
-0.084171 0.027530 0
-0.085979 0.025383 0
-0.087475 0.023638 0
-0.088680 0.022190 0
-0.089606 0.020930 0
-0.090256 0.019746 0
-0.090629 0.018519 0
-0.090717 0.017124 0
-0.090505 0.015425 0
-0.089979 0.013278 0
-0.089128 0.010527 0
-0.087948 0.007014 0
-0.086444 0.002586 0
-0.084622 -0.002874 0
-0.082527 -0.009434 0
-0.080130 -0.017222 0
-0.077411 -0.026418 0
-0.074354 -0.037170 0
-0.070932 -0.049635 0
-0.067105 -0.063967 0
-0.062811 -0.080273 0
-0.057935 -0.098487 0
-0.052255 -0.118060 0
-0.045364 -0.137216 0
-0.036622 -0.151268 0
-0.025336 -0.149038 0
-0.011707 -0.106285 0
0.000000 -0.035336 0
0.000000 0.059656 0
-0.007923 0.127027 0
-0.019038 0.126497 0
-0.029273 0.109977 0
-0.038133 0.094565 0
-0.045736 0.081359 0
-0.052220 0.070152 0
-0.057718 0.060692 0
-0.062355 0.052746 0
-0.066242 0.046112 0
-0.069480 0.040608 0
-0.072158 0.036071 0
-0.074352 0.032351 0
-0.076129 0.029311 0
-0.077540 0.026824 0
-0.078625 0.024770 0
-0.079413 0.023033 0
-0.079919 0.021496 0
-0.080156 0.020039 0
-0.080128 0.018538 0
-0.079835 0.016863 0
-0.079278 0.014879 0
-0.078453 0.012440 0
-0.077363 0.009397 0
-0.076013 0.005596 0
-0.074414 0.000888 0
-0.072574 -0.004825 0
-0.070538 -0.011630 0
-0.068281 -0.019683 0
-0.065799 -0.029153 0
-0.063086 -0.040193 0
-0.060129 -0.052969 0
-0.056908 -0.067651 0
-0.053385 -0.084380 0
-0.049477 -0.103167 0
-0.045005 -0.123611 0
-0.039595 -0.144168 0
-0.032585 -0.160349 0
-0.023121 -0.160642 0
-0.011036 -0.118424 0
0.000000 -0.041043 0
0.000000 0.063273 0
-0.006632 0.135908 0
-0.016633 0.136658 0
-0.026025 0.119131 0
-0.034214 0.102483 0
-0.041263 0.088143 0
-0.047277 0.075921 0
-0.052362 0.065561 0
-0.056622 0.056824 0
-0.060154 0.049497 0
-0.063048 0.043391 0
-0.065384 0.038331 0
-0.067234 0.034156 0
-0.068658 0.030718 0
-0.069708 0.027880 0
-0.070425 0.025511 0
-0.070842 0.023483 0
-0.070980 0.021673 0
-0.070857 0.019954 0
-0.070486 0.018199 0
-0.069875 0.016274 0
-0.069032 0.014042 0
-0.067965 0.011363 0
-0.066683 0.008087 0
-0.065201 0.004065 0
-0.063529 -0.000853 0
-0.061695 -0.006750 0
-0.059723 -0.013727 0
-0.057602 -0.021961 0
-0.055338 -0.031613 0
-0.052931 -0.042840 0
-0.050378 -0.055812 0
-0.047670 -0.070711 0
-0.044787 -0.087705 0
-0.041675 -0.106867 0
-0.038199 -0.127942 0
-0.034034 -0.149636 0
-0.028538 -0.167743 0
-0.020761 -0.170586 0
-0.010226 -0.129406 0
0.000000 -0.046372 0
0.000000 0.066288 0
-0.005503 0.143660 0
-0.014498 0.145890 0
-0.023116 0.127558 0
-0.030673 0.109804 0
-0.037188 0.094422 0
-0.042741 0.081251 0
-0.047418 0.070036 0
-0.051306 0.060538 0
-0.054492 0.052538 0
-0.057055 0.045838 0
-0.059067 0.040257 0
-0.060595 0.035625 0
-0.061696 0.031785 0
-0.062420 0.028591 0
-0.062809 0.025904 0
-0.062899 0.023588 0
-0.062716 0.021512 0
-0.062284 0.019545 0
-0.061621 0.017556 0
-0.060743 0.015409 0
-0.059665 0.012968 0
-0.058401 0.010092 0
-0.056968 0.006633 0
-0.055383 0.002442 0
-0.053658 -0.002618 0
-0.051844 -0.008631 0
-0.049941 -0.015722 0
-0.047953 -0.024068 0
-0.045890 -0.033824 0
-0.043759 -0.045153 0
-0.041561 -0.058230 0
-0.039297 -0.073242 0
-0.036959 -0.090375 0
-0.034516 -0.109755 0
-0.031871 -0.131252 0
-0.028760 -0.153828 0
-0.024588 -0.173621 0
-0.018358 -0.178955 0
-0.009331 -0.139186 0
0.000000 -0.051268 0
0.000000 0.068775 0
-0.004504 0.150405 0
-0.012578 0.154271 0
-0.020477 0.135306 0
-0.027436 0.116555 0
-0.033435 0.100211 0
-0.038537 0.086151 0
-0.042813 0.074126 0
-0.046338 0.063898 0
-0.049188 0.055246 0
-0.051433 0.047966 0
-0.053140 0.041871 0
-0.054369 0.036784 0
-0.055175 0.032543 0
-0.055607 0.028994 0
-0.055706 0.025990 0
-0.055510 0.023390 0
-0.055050 0.021059 0
-0.054354 0.018859 0
-0.053444 0.016657 0
-0.052343 0.014317 0
-0.051071 0.011700 0
-0.049649 0.008666 0
-0.048098 0.005069 0
-0.046438 0.000755 0
-0.044683 -0.004392 0
-0.042892 -0.010467 0
-0.041061 -0.017617 0
-0.039201 -0.026012 0
-0.037326 -0.035808 0
-0.035445 -0.047169 0
-0.033566 -0.060274 0
-0.031693 -0.075314 0
-0.029828 -0.092486 0
-0.027959 -0.111955 0
-0.026023 -0.133698 0
-0.023813 -0.156918 0
-0.020802 -0.178144 0
-0.015983 -0.185844 0
-0.008399 -0.147764 0
0.000000 -0.055703 0
0.000000 0.070792 0
-0.003606 0.156238 0
-0.010826 0.161864 0
-0.018048 0.142415 0
-0.024435 0.122761 0
-0.029935 0.105523 0
-0.034596 0.090629 0
-0.038480 0.077838 0
-0.041652 0.066913 0
-0.044178 0.057633 0
-0.046120 0.049791 0
-0.047540 0.043193 0
-0.048493 0.037660 0
-0.049030 0.033022 0
-0.049200 0.029122 0
-0.049043 0.025807 0
-0.048599 0.022932 0
-0.047901 0.020355 0
-0.046979 0.017939 0
-0.045863 0.015545 0
-0.044577 0.013036 0
-0.043148 0.010274 0
-0.041599 0.007119 0
-0.039955 0.003422 0
-0.038236 -0.000973 0
-0.036476 -0.006164 0
-0.034716 -0.012254 0
-0.032960 -0.019413 0
-0.031224 -0.027803 0
-0.029525 -0.037580 0
-0.027875 -0.048914 0
-0.026284 -0.061982 0
-0.024763 -0.076979 0
-0.023320 -0.094109 0
-0.021955 -0.113561 0
-0.020635 -0.135398 0
-0.019207 -0.159049 0
-0.017216 -0.181452 0
-0.013679 -0.191357 0
-0.007463 -0.155168 0
0.000000 -0.059668 0
0.000000 0.072381 0
-0.002779 0.161231 0
-0.009194 0.168713 0
-0.015772 0.148915 0
-0.021610 0.128442 0
-0.026626 0.110372 0
-0.030858 0.094696 0
-0.034360 0.081182 0
-0.037189 0.069595 0
-0.039401 0.059714 0
-0.041055 0.051328 0
-0.042205 0.044243 0
-0.042902 0.038275 0
-0.043195 0.033250 0
-0.043131 0.029007 0
-0.042749 0.025389 0
-0.042090 0.022248 0
-0.041189 0.019439 0
-0.040078 0.016821 0
-0.038790 0.014255 0
-0.037354 0.011602 0
-0.035798 0.008722 0
-0.034151 0.005474 0
-0.032438 0.001706 0
-0.030673 -0.002724 0
-0.028924 -0.007912 0
-0.027203 -0.013983 0
-0.025526 -0.021109 0
-0.023912 -0.029447 0
-0.022380 -0.039157 0
-0.020944 -0.050410 0
-0.019619 -0.063385 0
-0.018420 -0.078278 0
-0.017360 -0.095294 0
-0.016450 -0.114640 0
-0.015677 -0.136446 0
-0.014935 -0.160338 0
-0.013847 -0.183672 0
-0.011474 -0.195597 0
-0.006544 -0.161443 0
0.000000 -0.063166 0
0.000000 0.073571 0
-0.001997 0.165432 0
-0.007640 0.174856 0
-0.013599 0.154832 0
-0.018908 0.133616 0
-0.023454 0.114772 0
-0.027269 0.098363 0
-0.030397 0.084168 0
-0.032891 0.071954 0
-0.034802 0.061499 0
-0.036180 0.052594 0
-0.037076 0.045040 0
-0.037536 0.038651 0
-0.037608 0.033251 0
-0.037334 0.028676 0
-0.036755 0.024766 0
-0.035911 0.021371 0
-0.034837 0.018344 0
-0.033569 0.015540 0
-0.032140 0.012820 0
-0.030583 0.010044 0
-0.028928 0.007071 0
-0.027206 0.003759 0
-0.025441 -0.000055 0
-0.023660 -0.004487 0
-0.021927 -0.009633 0
-0.020253 -0.015652 0
-0.018659 -0.022704 0
-0.017165 -0.030949 0
-0.015792 -0.040549 0
-0.014559 -0.051674 0
-0.013483 -0.064506 0
-0.012584 -0.079239 0
-0.011880 -0.096079 0
-0.011387 -0.115244 0
-0.011110 -0.136913 0
-0.010980 -0.160879 0
-0.010698 -0.184913 0
-0.009386 -0.198661 0
-0.005659 -0.166643 0
0.000000 -0.066211 0
0.000000 0.074378 0
-0.001239 0.168871 0
-0.006131 0.180316 0
-0.011488 0.160184 0
-0.016282 0.138297 0
-0.020371 0.118733 0
-0.023776 0.101639 0
-0.026541 0.086805 0
-0.028709 0.074000 0
-0.030328 0.063002 0
-0.031442 0.053602 0
-0.032097 0.045599 0
-0.032338 0.038807 0
-0.032207 0.033048 0
-0.031746 0.028154 0
-0.030994 0.023966 0
-0.029991 0.020330 0
-0.028772 0.017098 0
-0.027375 0.014125 0
-0.025833 0.011269 0
-0.024181 0.008390 0
-0.022452 0.005345 0
-0.020677 0.001987 0
-0.018868 -0.001841 0
-0.017097 -0.006238 0
-0.015392 -0.011319 0
-0.013773 -0.017252 0
-0.012265 -0.024197 0
-0.010892 -0.032313 0
-0.009674 -0.041764 0
-0.008634 -0.052719 0
-0.007797 -0.065360 0
-0.007185 -0.079881 0
-0.006818 -0.096491 0
-0.006716 -0.115410 0
-0.006894 -0.136853 0
-0.007316 -0.160750 0
-0.007760 -0.185266 0
-0.007420 -0.200636 0
-0.004823 -0.170829 0
0.000000 -0.068825 0
0.000000 0.074810 0
-0.000501 0.171562 0
-0.004640 0.185105 0
-0.009402 0.164983 0
-0.013691 0.142498 0
-0.017331 0.122266 0
-0.020335 0.104533 0
-0.022742 0.089101 0
-0.024592 0.075741 0
-0.025927 0.064232 0
-0.026787 0.054364 0
-0.027215 0.045936 0
-0.027251 0.038760 0
-0.026934 0.032659 0
-0.026305 0.027463 0
-0.025402 0.023011 0
-0.024263 0.019149 0
-0.022924 0.015728 0
-0.021422 0.012601 0
-0.019792 0.009626 0
-0.018069 0.006663 0
-0.016287 0.003567 0
-0.014470 0.000175 0
-0.012648 -0.003635 0
-0.010899 -0.007963 0
-0.009231 -0.012957 0
-0.007674 -0.018779 0
-0.006256 -0.025585 0
-0.005005 -0.033540 0
-0.003939 -0.042807 0
-0.003092 -0.053551 0
-0.002491 -0.065956 0
-0.002158 -0.080218 0
-0.002116 -0.096548 0
-0.002385 -0.115168 0
-0.002986 -0.136312 0
-0.003912 -0.160013 0
-0.005014 -0.184809 0
-0.005570 -0.201598 0
-0.004035 -0.174063 0
0.000000 -0.071034 0
0.000000 0.074878 0
0.000210 0.173510 0
-0.003139 0.189218 0
-0.007308 0.169235 0
-0.011096 0.146226 0
-0.014293 0.125377 0
-0.016901 0.107051 0
-0.018956 0.091062 0
-0.020493 0.077184 0
-0.021551 0.065197 0
-0.022166 0.054890 0
-0.022376 0.046062 0
-0.022219 0.038526 0
-0.021732 0.032102 0
-0.020951 0.026622 0
-0.019916 0.021924 0
-0.018661 0.017852 0
-0.017224 0.014257 0
-0.015639 0.010993 0
-0.013944 0.007916 0
-0.012173 0.004884 0
-0.010356 0.001746 0
-0.008501 -0.001652 0
-0.006699 -0.005412 0
-0.004981 -0.009655 0
-0.003357 -0.014543 0
-0.001866 -0.020227 0
-0.000541 -0.026866 0
0.000588 -0.034631 0
0.001489 -0.043677 0
0.002133 -0.054167 0
0.002495 -0.066294 0
0.002550 -0.080256 0
0.002275 -0.096264 0
0.001650 -0.114540 0
0.000657 -0.135326 0
-0.000728 -0.158722 0
-0.002431 -0.183609 0
-0.003817 -0.201615 0
-0.003287 -0.176398 0
0.000000 -0.072860 0
0.000000 0.074600 0
0.000905 0.174702 0
-0.001608 0.192624 0
-0.005173 0.172941 0
-0.008461 0.149482 0
-0.011216 0.128071 0
-0.013431 0.109197 0
-0.015137 0.092693 0
-0.016365 0.078336 0
-0.017151 0.065905 0
-0.017527 0.055189 0
-0.017528 0.045989 0
-0.017189 0.038116 0
-0.016543 0.031391 0
-0.015626 0.025647 0
-0.014474 0.020721 0
-0.013122 0.016457 0
-0.011605 0.012706 0
-0.009956 0.009322 0
-0.008215 0.006161 0
-0.006413 0.003074 0
-0.004555 -0.000106 0
-0.002697 -0.003481 0
-0.000919 -0.007156 0
0.000764 -0.011305 0
0.002323 -0.016072 0
0.003727 -0.021595 0
0.004944 -0.028039 0
0.005937 -0.035570 0
0.006666 -0.044352 0
0.007108 -0.054557 0
0.007233 -0.066373 0
0.007016 -0.079998 0
0.006430 -0.095648 0
0.005453 -0.113549 0
0.004066 -0.133933 0
0.002241 -0.156925 0
0.000026 -0.181721 0
-0.002138 -0.200742 0
-0.002571 -0.177880 0
0.000000 -0.074321 0
0.000000 0.073973 0
0.001608 0.175118 0
-0.000014 0.195296 0
-0.002971 0.176089 0
-0.005748 0.152269 0
-0.008060 0.130347 0
-0.009882 0.110972 0
-0.011239 0.093996 0
-0.012160 0.079199 0
-0.012676 0.066359 0
-0.012818 0.055267 0
-0.012617 0.045724 0
-0.012104 0.037541 0
-0.011311 0.030539 0
-0.010268 0.024553 0
-0.009013 0.019420 0
-0.007580 0.014983 0
-0.006001 0.011091 0
-0.004299 0.007603 0
-0.002514 0.004373 0
-0.000674 0.001224 0
0.001200 -0.001969 0
0.003012 -0.005288 0
0.004749 -0.008874 0
0.006378 -0.012897 0
0.007857 -0.017507 0
0.009160 -0.022848 0
0.010253 -0.029075 0
0.011099 -0.036353 0
0.011660 -0.044847 0
0.011903 -0.054734 0
0.011798 -0.066202 0
0.011314 -0.079453 0
0.010422 -0.094701 0
0.009096 -0.112176 0
0.007308 -0.132115 0
0.005041 -0.154681 0
0.002335 -0.179229 0
-0.000508 -0.199018 0
-0.001876 -0.178537 0
0.000000 -0.075431 0
0.000000 0.072992 0
0.002328 0.174716 0
0.001654 0.197203 0
-0.000642 0.178675 0
-0.002931 0.154572 0
-0.004786 0.132205 0
-0.006209 0.112375 0
-0.007215 0.094971 0
-0.007829 0.079773 0
-0.008077 0.066563 0
-0.007987 0.055129 0
-0.007588 0.045274 0
-0.006908 0.036809 0
-0.005977 0.029556 0
-0.004815 0.023350 0
-0.003463 0.018033 0
-0.001954 0.013446 0
-0.000318 0.009424 0
0.001415 0.005835 0
0.003221 0.002536 0
0.005088 -0.000640 0
0.006919 -0.003792 0
0.008677 -0.007030 0
0.010349 -0.010521 0
0.011903 -0.014414 0
0.013297 -0.018854 0
0.014496 -0.023990 0
0.015462 -0.029977 0
0.016158 -0.036977 0
0.016544 -0.045157 0
0.016586 -0.054696 0
0.016248 -0.065783 0
0.015497 -0.078622 0
0.014301 -0.093429 0
0.012628 -0.110435 0
0.010450 -0.129879 0
0.007742 -0.151952 0
0.004521 -0.176171 0
0.001069 -0.196530 0
-0.001194 -0.178388 0
0.000000 -0.076197 0
0.000000 0.071645 0
0.003075 0.173465 0
0.003381 0.198266 0
0.001846 0.180673 0
0.000071 0.156413 0
-0.001343 0.133625 0
-0.002369 0.113401 0
-0.003021 0.095616 0
-0.003322 0.080060 0
-0.003298 0.066517 0
-0.002973 0.054778 0
-0.002374 0.044645 0
-0.001527 0.035930 0
-0.000458 0.028446 0
0.000807 0.022039 0
0.002238 0.016559 0
0.003807 0.011839 0
0.005483 0.007722 0
0.007231 0.004063 0
0.009045 0.000701 0
0.010876 -0.002473 0
0.012650 -0.005558 0
0.014355 -0.008718 0
0.015961 -0.012100 0
0.017430 -0.015845 0
0.018725 -0.020100 0
0.019807 -0.025012 0
0.020636 -0.030737 0
0.021173 -0.037435 0
0.021378 -0.045276 0
0.021213 -0.054438 0
0.020639 -0.065114 0
0.019619 -0.077505 0
0.018117 -0.091832 0
0.016097 -0.108325 0
0.013528 -0.127228 0
0.010379 -0.148752 0
0.006656 -0.172556 0