# vtk DataFile Version 2.0
generated by CFD-lab course output (written by Tobias Neckel) 
ASCII

DATASET STRUCTURED_GRID
DIMENSIONS  41 41 1 
POINTS 1681 float

0.150000 0.150000 0
0.167857 0.150000 0
0.185714 0.150000 0
0.203571 0.150000 0
0.221429 0.150000 0
0.239286 0.150000 0
0.257143 0.150000 0
0.275000 0.150000 0
0.292857 0.150000 0
0.310714 0.150000 0
0.328571 0.150000 0
0.346429 0.150000 0
0.364286 0.150000 0
0.382143 0.150000 0
0.400000 0.150000 0
0.417857 0.150000 0
0.435714 0.150000 0
0.453571 0.150000 0
0.471429 0.150000 0
0.489286 0.150000 0
0.507143 0.150000 0
0.525000 0.150000 0
0.542857 0.150000 0
0.560714 0.150000 0
0.578571 0.150000 0
0.596429 0.150000 0
0.614286 0.150000 0
0.632143 0.150000 0
0.650000 0.150000 0
0.667857 0.150000 0
0.685714 0.150000 0
0.703571 0.150000 0
0.721429 0.150000 0
0.739286 0.150000 0
0.757143 0.150000 0
0.775000 0.150000 0
0.792857 0.150000 0
0.810714 0.150000 0
0.828571 0.150000 0
0.846429 0.150000 0
0.864286 0.150000 0
0.150000 0.167857 0
0.167857 0.167857 0
0.185714 0.167857 0
0.203571 0.167857 0
0.221429 0.167857 0
0.239286 0.167857 0
0.257143 0.167857 0
0.275000 0.167857 0
0.292857 0.167857 0
0.310714 0.167857 0
0.328571 0.167857 0
0.346429 0.167857 0
0.364286 0.167857 0
0.382143 0.167857 0
0.400000 0.167857 0
0.417857 0.167857 0
0.435714 0.167857 0
0.453571 0.167857 0
0.471429 0.167857 0
0.489286 0.167857 0
0.507143 0.167857 0
0.525000 0.167857 0
0.542857 0.167857 0
0.560714 0.167857 0
0.578571 0.167857 0
0.596429 0.167857 0
0.614286 0.167857 0
0.632143 0.167857 0
0.650000 0.167857 0
0.667857 0.167857 0
0.685714 0.167857 0
0.703571 0.167857 0
0.721429 0.167857 0
0.739286 0.167857 0
0.757143 0.167857 0
0.775000 0.167857 0
0.792857 0.167857 0
0.810714 0.167857 0
0.828571 0.167857 0
0.846429 0.167857 0
0.864286 0.167857 0
0.150000 0.185714 0
0.167857 0.185714 0
0.185714 0.185714 0
0.203571 0.185714 0
0.221429 0.185714 0
0.239286 0.185714 0
0.257143 0.185714 0
0.275000 0.185714 0
0.292857 0.185714 0
0.310714 0.185714 0
0.328571 0.185714 0
0.346429 0.185714 0
0.364286 0.185714 0
0.382143 0.185714 0
0.400000 0.185714 0
0.417857 0.185714 0
0.435714 0.185714 0
0.453571 0.185714 0
0.471429 0.185714 0
0.489286 0.185714 0
0.507143 0.185714 0
0.525000 0.185714 0
0.542857 0.185714 0
0.560714 0.185714 0
0.578571 0.185714 0
0.596429 0.185714 0
0.614286 0.185714 0
0.632143 0.185714 0
0.650000 0.185714 0
0.667857 0.185714 0
0.685714 0.185714 0
0.703571 0.185714 0
0.721429 0.185714 0
0.739286 0.185714 0
0.757143 0.185714 0
0.775000 0.185714 0
0.792857 0.185714 0
0.810714 0.185714 0
0.828571 0.185714 0
0.846429 0.185714 0
0.864286 0.185714 0
0.150000 0.203571 0
0.167857 0.203571 0
0.185714 0.203571 0
0.203571 0.203571 0
0.221429 0.203571 0
0.239286 0.203571 0
0.257143 0.203571 0
0.275000 0.203571 0
0.292857 0.203571 0
0.310714 0.203571 0
0.328571 0.203571 0
0.346429 0.203571 0
0.364286 0.203571 0
0.382143 0.203571 0
0.400000 0.203571 0
0.417857 0.203571 0
0.435714 0.203571 0
0.453571 0.203571 0
0.471429 0.203571 0
0.489286 0.203571 0
0.507143 0.203571 0
0.525000 0.203571 0
0.542857 0.203571 0
0.560714 0.203571 0
0.578571 0.203571 0
0.596429 0.203571 0
0.614286 0.203571 0
0.632143 0.203571 0
0.650000 0.203571 0
0.667857 0.203571 0
0.685714 0.203571 0
0.703571 0.203571 0
0.721429 0.203571 0
0.739286 0.203571 0
0.757143 0.203571 0
0.775000 0.203571 0
0.792857 0.203571 0
0.810714 0.203571 0
0.828571 0.203571 0
0.846429 0.203571 0
0.864286 0.203571 0
0.150000 0.221429 0
0.167857 0.221429 0
0.185714 0.221429 0
0.203571 0.221429 0
0.221429 0.221429 0
0.239286 0.221429 0
0.257143 0.221429 0
0.275000 0.221429 0
0.292857 0.221429 0
0.310714 0.221429 0
0.328571 0.221429 0
0.346429 0.221429 0
0.364286 0.221429 0
0.382143 0.221429 0
0.400000 0.221429 0
0.417857 0.221429 0
0.435714 0.221429 0
0.453571 0.221429 0
0.471429 0.221429 0
0.489286 0.221429 0
0.507143 0.221429 0
0.525000 0.221429 0
0.542857 0.221429 0
0.560714 0.221429 0
0.578571 0.221429 0
0.596429 0.221429 0
0.614286 0.221429 0
0.632143 0.221429 0
0.650000 0.221429 0
0.667857 0.221429 0
0.685714 0.221429 0
0.703571 0.221429 0
0.721429 0.221429 0
0.739286 0.221429 0
0.757143 0.221429 0
0.775000 0.221429 0
0.792857 0.221429 0
0.810714 0.221429 0
0.828571 0.221429 0
0.846429 0.221429 0
0.864286 0.221429 0
0.150000 0.239286 0
0.167857 0.239286 0
0.185714 0.239286 0
0.203571 0.239286 0
0.221429 0.239286 0
0.239286 0.239286 0
0.257143 0.239286 0
0.275000 0.239286 0
0.292857 0.239286 0
0.310714 0.239286 0
0.328571 0.239286 0
0.346429 0.239286 0
0.364286 0.239286 0
0.382143 0.239286 0
0.400000 0.239286 0
0.417857 0.239286 0
0.435714 0.239286 0
0.453571 0.239286 0
0.471429 0.239286 0
0.489286 0.239286 0
0.507143 0.239286 0
0.525000 0.239286 0
0.542857 0.239286 0
0.560714 0.239286 0
0.578571 0.239286 0
0.596429 0.239286 0
0.614286 0.239286 0
0.632143 0.239286 0
0.650000 0.239286 0
0.667857 0.239286 0
0.685714 0.239286 0
0.703571 0.239286 0
0.721429 0.239286 0
0.739286 0.239286 0
0.757143 0.239286 0
0.775000 0.239286 0
0.792857 0.239286 0
0.810714 0.239286 0
0.828571 0.239286 0
0.846429 0.239286 0
0.864286 0.239286 0
0.150000 0.257143 0
0.167857 0.257143 0
0.185714 0.257143 0
0.203571 0.257143 0
0.221429 0.257143 0
0.239286 0.257143 0
0.257143 0.257143 0
0.275000 0.257143 0
0.292857 0.257143 0
0.310714 0.257143 0
0.328571 0.257143 0
0.346429 0.257143 0
0.364286 0.257143 0
0.382143 0.257143 0
0.400000 0.257143 0
0.417857 0.257143 0
0.435714 0.257143 0
0.453571 0.257143 0
0.471429 0.257143 0
0.489286 0.257143 0
0.507143 0.257143 0
0.525000 0.257143 0
0.542857 0.257143 0
0.560714 0.257143 0
0.578571 0.257143 0
0.596429 0.257143 0
0.614286 0.257143 0
0.632143 0.257143 0
0.650000 0.257143 0
0.667857 0.257143 0
0.685714 0.257143 0
0.703571 0.257143 0
0.721429 0.257143 0
0.739286 0.257143 0
0.757143 0.257143 0
0.775000 0.257143 0
0.792857 0.257143 0
0.810714 0.257143 0
0.828571 0.257143 0
0.846429 0.257143 0
0.864286 0.257143 0
0.150000 0.275000 0
0.167857 0.275000 0
0.185714 0.275000 0
0.203571 0.275000 0
0.221429 0.275000 0
0.239286 0.275000 0
0.257143 0.275000 0
0.275000 0.275000 0
0.292857 0.275000 0
0.310714 0.275000 0
0.328571 0.275000 0
0.346429 0.275000 0
0.364286 0.275000 0
0.382143 0.275000 0
0.400000 0.275000 0
0.417857 0.275000 0
0.435714 0.275000 0
0.453571 0.275000 0
0.471429 0.275000 0
0.489286 0.275000 0
0.507143 0.275000 0
0.525000 0.275000 0
0.542857 0.275000 0
0.560714 0.275000 0
0.578571 0.275000 0
0.596429 0.275000 0
0.614286 0.275000 0
0.632143 0.275000 0
0.650000 0.275000 0
0.667857 0.275000 0
0.685714 0.275000 0
0.703571 0.275000 0
0.721429 0.275000 0
0.739286 0.275000 0
0.757143 0.275000 0
0.775000 0.275000 0
0.792857 0.275000 0
0.810714 0.275000 0
0.828571 0.275000 0
0.846429 0.275000 0
0.864286 0.275000 0
0.150000 0.292857 0
0.167857 0.292857 0
0.185714 0.292857 0
0.203571 0.292857 0
0.221429 0.292857 0
0.239286 0.292857 0
0.257143 0.292857 0
0.275000 0.292857 0
0.292857 0.292857 0
0.310714 0.292857 0
0.328571 0.292857 0
0.346429 0.292857 0
0.364286 0.292857 0
0.382143 0.292857 0
0.400000 0.292857 0
0.417857 0.292857 0
0.435714 0.292857 0
0.453571 0.292857 0
0.471429 0.292857 0
0.489286 0.292857 0
0.507143 0.292857 0
0.525000 0.292857 0
0.542857 0.292857 0
0.560714 0.292857 0
0.578571 0.292857 0
0.596429 0.292857 0
0.614286 0.292857 0
0.632143 0.292857 0
0.650000 0.292857 0
0.667857 0.292857 0
0.685714 0.292857 0
0.703571 0.292857 0
0.721429 0.292857 0
0.739286 0.292857 0
0.757143 0.292857 0
0.775000 0.292857 0
0.792857 0.292857 0
0.810714 0.292857 0
0.828571 0.292857 0
0.846429 0.292857 0
0.864286 0.292857 0
0.150000 0.310714 0
0.167857 0.310714 0
0.185714 0.310714 0
0.203571 0.310714 0
0.221429 0.310714 0
0.239286 0.310714 0
0.257143 0.310714 0
0.275000 0.310714 0
0.292857 0.310714 0
0.310714 0.310714 0
0.328571 0.310714 0
0.346429 0.310714 0
0.364286 0.310714 0
0.382143 0.310714 0
0.400000 0.310714 0
0.417857 0.310714 0
0.435714 0.310714 0
0.453571 0.310714 0
0.471429 0.310714 0
0.489286 0.310714 0
0.507143 0.310714 0
0.525000 0.310714 0
0.542857 0.310714 0
0.560714 0.310714 0
0.578571 0.310714 0
0.596429 0.310714 0
0.614286 0.310714 0
0.632143 0.310714 0
0.650000 0.310714 0
0.667857 0.310714 0
0.685714 0.310714 0
0.703571 0.310714 0
0.721429 0.310714 0
0.739286 0.310714 0
0.757143 0.310714 0
0.775000 0.310714 0
0.792857 0.310714 0
0.810714 0.310714 0
0.828571 0.310714 0
0.846429 0.310714 0
0.864286 0.310714 0
0.150000 0.328571 0
0.167857 0.328571 0
0.185714 0.328571 0
0.203571 0.328571 0
0.221429 0.328571 0
0.239286 0.328571 0
0.257143 0.328571 0
0.275000 0.328571 0
0.292857 0.328571 0
0.310714 0.328571 0
0.328571 0.328571 0
0.346429 0.328571 0
0.364286 0.328571 0
0.382143 0.328571 0
0.400000 0.328571 0
0.417857 0.328571 0
0.435714 0.328571 0
0.453571 0.328571 0
0.471429 0.328571 0
0.489286 0.328571 0
0.507143 0.328571 0
0.525000 0.328571 0
0.542857 0.328571 0
0.560714 0.328571 0
0.578571 0.328571 0
0.596429 0.328571 0
0.614286 0.328571 0
0.632143 0.328571 0
0.650000 0.328571 0
0.667857 0.328571 0
0.685714 0.328571 0
0.703571 0.328571 0
0.721429 0.328571 0
0.739286 0.328571 0
0.757143 0.328571 0
0.775000 0.328571 0
0.792857 0.328571 0
0.810714 0.328571 0
0.828571 0.328571 0
0.846429 0.328571 0
0.864286 0.328571 0
0.150000 0.346429 0
0.167857 0.346429 0
0.185714 0.346429 0
0.203571 0.346429 0
0.221429 0.346429 0
0.239286 0.346429 0
0.257143 0.346429 0
0.275000 0.346429 0
0.292857 0.346429 0
0.310714 0.346429 0
0.328571 0.346429 0
0.346429 0.346429 0
0.364286 0.346429 0
0.382143 0.346429 0
0.400000 0.346429 0
0.417857 0.346429 0
0.435714 0.346429 0
0.453571 0.346429 0
0.471429 0.346429 0
0.489286 0.346429 0
0.507143 0.346429 0
0.525000 0.346429 0
0.542857 0.346429 0
0.560714 0.346429 0
0.578571 0.346429 0
0.596429 0.346429 0
0.614286 0.346429 0
0.632143 0.346429 0
0.650000 0.346429 0
0.667857 0.346429 0
0.685714 0.346429 0
0.703571 0.346429 0
0.721429 0.346429 0
0.739286 0.346429 0
0.757143 0.346429 0
0.775000 0.346429 0
0.792857 0.346429 0
0.810714 0.346429 0
0.828571 0.346429 0
0.846429 0.346429 0
[...]
POINT_DATA 1681 

VECTORS velocity float
0.000000 0.000000 0
-0.003881 0.000000 0
-0.007783 0.000000 0
-0.011702 0.000000 0
-0.015639 0.000000 0
-0.019344 0.000000 0
-0.022647 0.000000 0
-0.025494 0.000000 0
-0.027876 0.000000 0
-0.030077 0.000000 0
-0.032052 0.000000 0
-0.033808 0.000000 0
-0.035339 0.000000 0
-0.036646 0.000000 0
-0.037746 0.000000 0
-0.038651 0.000000 0
-0.039586 0.000000 0
-0.040509 0.000000 0
-0.041433 0.000000 0
-0.042350 0.000000 0
-0.043253 0.000000 0
-0.044150 0.000000 0
-0.045055 0.000000 0
-0.046175 0.000000 0
-0.047488 0.000000 0
-0.049010 0.000000 0
-0.050707 0.000000 0
-0.052503 0.000000 0
-0.054269 0.000000 0
-0.055813 0.000000 0
-0.057028 0.000000 0
-0.057529 0.000000 0
-0.056917 0.000000 0
-0.054714 0.000000 0
-0.050526 0.000000 0
-0.044082 0.000000 0
-0.035276 0.000000 0
-0.024601 0.000000 0
-0.013049 0.000000 0
-0.003177 0.000000 0
0.000000 0.000000 0
0.000000 0.003881 0
-0.011912 0.007783 0
-0.024004 0.007821 0
-0.034808 0.007857 0
-0.044607 0.007642 0
-0.053325 0.007008 0
-0.060917 0.006149 0
-0.067440 0.005228 0
-0.073030 0.004584 0
-0.077938 0.004176 0
-0.082244 0.003731 0
-0.086019 0.003287 0
-0.089322 0.002838 0
-0.092216 0.002407 0
-0.094768 0.002005 0
-0.097067 0.001840 0
-0.099279 0.001857 0
-0.101443 0.001848 0
-0.103592 0.001841 0
-0.105743 0.001820 0
-0.107910 0.001799 0
-0.110115 0.001802 0
-0.112403 0.002026 0
-0.114899 0.002433 0
-0.117605 0.002835 0
-0.120483 0.003219 0
-0.123421 0.003492 0
-0.126221 0.003561 0
-0.128591 0.003311 0
-0.130152 0.002759 0
-0.130475 0.001715 0
-0.128948 -0.000111 0
-0.124976 -0.002815 0
-0.117960 -0.006391 0
-0.107343 -0.010632 0
-0.092715 -0.015251 0
-0.073983 -0.019481 0
-0.051802 -0.022227 0
-0.028082 -0.021424 0
-0.007543 -0.013049 0
0.000000 -0.003177 0
0.000000 0.011912 0
-0.016718 0.024004 0
-0.033974 0.022896 0
-0.048340 0.020603 0
-0.060290 0.018517 0
-0.070301 0.016309 0
-0.078752 0.014115 0
-0.085947 0.012114 0
-0.092162 0.010498 0
-0.097388 0.009214 0
-0.101859 0.008081 0
-0.105728 0.007078 0
-0.109146 0.006197 0
-0.112238 0.005446 0
-0.115111 0.004851 0
-0.117870 0.004510 0
-0.120429 0.004376 0
-0.122907 0.004313 0
-0.125351 0.004301 0
-0.127812 0.004319 0
-0.130322 0.004371 0
-0.132896 0.004493 0
-0.135545 0.004785 0
-0.138096 0.005201 0
-0.140534 0.005584 0
-0.142736 0.005817 0
-0.144537 0.005738 0
-0.145702 0.005170 0
-0.145940 0.003931 0
-0.144920 0.001884 0
-0.142156 -0.001204 0
-0.137407 -0.005499 0
-0.130366 -0.010989 0
-0.120784 -0.017633 0
-0.108363 -0.025245 0
-0.092833 -0.033360 0
-0.074139 -0.040913 0
-0.052508 -0.045901 0
-0.029486 -0.044259 0
-0.008969 -0.028082 0
0.000000 -0.007543 0
0.000000 0.020599 0
-0.016730 0.041757 0
-0.034487 0.039443 0
-0.049188 0.034173 0
-0.061109 0.029603 0
-0.070845 0.025470 0
-0.078910 0.021796 0
-0.085688 0.018639 0
-0.091442 0.016024 0
-0.096267 0.013873 0
-0.100366 0.012071 0
-0.103914 0.010573 0
-0.107066 0.009348 0
-0.109951 0.008372 0
-0.112665 0.007637 0
-0.115266 0.007159 0
-0.117717 0.006894 0
-0.120079 0.006769 0
-0.122395 0.006746 0
-0.124702 0.006791 0
-0.127018 0.006884 0
-0.129328 0.007024 0
-0.131577 0.007225 0
-0.133607 0.007422 0
-0.135320 0.007476 0
-0.136581 0.007222 0
-0.137229 0.006458 0
-0.137079 0.004964 0
-0.135926 0.002529 0
-0.133554 -0.001025 0
-0.129771 -0.005798 0
-0.124485 -0.011900 0
-0.117497 -0.019437 0
-0.108576 -0.028393 0
-0.097463 -0.038583 0
-0.083896 -0.049475 0
-0.067695 -0.059806 0
-0.048922 -0.066879 0
-0.028584 -0.064963 0
-0.009718 -0.042535 0
0.000000 -0.012146 0
0.000000 0.028642 0
-0.015075 0.058491 0
-0.031710 0.055354 0
-0.045641 0.047226 0
-0.056942 0.040174 0
-0.066146 0.034110 0
-0.073728 0.028958 0
-0.080046 0.024646 0
-0.085352 0.021077 0
-0.089806 0.018138 0
-0.093589 0.015727 0
-0.096858 0.013778 0
-0.099750 0.012235 0
-0.102376 0.011045 0
-0.104819 0.010165 0
-0.107128 0.009562 0
-0.109310 0.009189 0
-0.111398 0.008991 0
-0.113416 0.008924 0
-0.115379 0.008941 0
-0.117288 0.008997 0
-0.119115 0.009053 0
-0.120791 0.009064 0
-0.122195 0.008944 0
-0.123216 0.008557 0
-0.123734 0.007725 0
-0.123627 0.006236 0
-0.122772 0.003868 0
-0.121053 0.000406 0
-0.118368 -0.004271 0
-0.114664 -0.010272 0
-0.109786 -0.017774 0
-0.103588 -0.026899 0
-0.095888 -0.037666 0
-0.086464 -0.049924 0
-0.075060 -0.063129 0
-0.061433 -0.075888 0
-0.045497 -0.085012 0
-0.027800 -0.083463 0
-0.010534 -0.056666 0
0.000000 -0.017260 0
0.000000 0.035674 0
-0.013045 0.073466 0
-0.028138 0.070009 0
-0.041016 0.059405 0
-0.051583 0.050109 0
-0.060259 0.042255 0
-0.067423 0.035696 0
-0.073377 0.030263 0
-0.078348 0.025784 0
-0.082516 0.022110 0
-0.086043 0.019123 0
-0.089071 0.016735 0
-0.091716 0.014865 0
-0.094073 0.013440 0
-0.096220 0.012389 0
-0.098206 0.011650 0
-0.100059 0.011165 0
-0.101804 0.010875 0
-0.103452 0.010727 0
-0.105007 0.010664 0
-0.106457 0.010620 0
-0.107772 0.010527 0
-0.108892 0.010304 0
-0.109728 0.009847 0
-0.110186 0.009015 0
-0.110170 0.007633 0
-0.109593 0.005496 0
-0.108376 0.002390 0
-0.106451 -0.001876 0
-0.103796 -0.007414 0
-0.100328 -0.014380 0
-0.095939 -0.022976 0
-0.090529 -0.033336 0
-0.083962 -0.045517 0
-0.076060 -0.059411 0
-0.066594 -0.074506 0
-0.055289 -0.089369 0
-0.041914 -0.100513 0
-0.026624 -0.099926 0
-0.010880 -0.070335 0
0.000000 -0.022680 0
0.000000 0.041687 0
-0.011128 0.086629 0
-0.024687 0.083325 0
-0.036504 0.070671 0
-0.046345 0.059417 0
-0.054513 0.049950 0
-0.061297 0.042076 0
-0.066933 0.035570 0
-0.071623 0.030216 0
-0.075538 0.025833 0
-0.078827 0.022282 0
-0.081616 0.019450 0
-0.084011 0.017237 0
-0.086097 0.015549 0
-0.087945 0.014298 0
-0.089605 0.013402 0
-0.091114 0.012787 0
-0.092496 0.012384 0
-0.093758 0.012127 0
-0.094899 0.011946 0
-0.095904 0.011763 0
-0.096745 0.011487 0
-0.097374 0.011019 0
-0.097728 0.010238 0
-0.097736 0.009000 0
-0.097328 0.007132 0
-0.096438 0.004442 0
-0.095016 0.000726 0
-0.093018 -0.004174 0
-0.090450 -0.010394 0
-0.087226 -0.018129 0
-0.083290 -0.027573 0
-0.078573 -0.038876 0
-0.072982 -0.052135 0
-0.066383 -0.067291 0
-0.058574 -0.083900 0
-0.049268 -0.100568 0
-0.038122 -0.113676 0
-0.024985 -0.114497 0
-0.010749 -0.083291 0
0.000000 -0.028140 0
0.000000 0.046802 0
-0.009460 0.098153 0
-0.021621 0.095384 0
-0.032454 0.081063 0
-0.041600 0.068118 0
-0.049269 0.057207 0
-0.055673 0.048116 0
-0.060999 0.040590 0
-0.065418 0.034389 0
-0.069083 0.029314 0
-0.072131 0.025202 0
-0.074678 0.021919 0
-0.076819 0.019346 0
-0.078633 0.017373 0
-0.080187 0.015897 0
-0.081531 0.014820 0
-0.082704 0.014055 0
-0.083728 0.013518 0
-0.084616 0.013131 0
-0.085365 0.012810 0
-0.085962 0.012466 0
-0.086383 0.011997 0
-0.086593 0.011288 0
-0.086547 0.010210 0
-0.086195 0.008614 0
-0.085486 0.006335 0
-0.084376 0.003184 0
-0.082828 -0.001029 0
-0.080831 -0.006441 0
-0.078369 -0.013206 0
-0.075392 -0.021540 0
-0.071871 -0.031630 0
-0.067762 -0.043644 0
-0.063005 -0.057707 0
-0.057501 -0.073819 0
-0.051078 -0.091621 0
-0.043453 -0.109822 0
-0.034213 -0.124796 0
-0.022991 -0.127298 0
-0.010255 -0.095320 0
0.000000 -0.033429 0
0.000000 0.051148 0
-0.008024 0.108250 0
-0.018954 0.106318 0
-0.028895 0.090649 0
-0.037386 0.076232 0
-0.044560 0.064024 0
-0.050576 0.053807 0
-0.055582 0.045315 0
-0.059722 0.038300 0
-0.063133 0.032546 0
-0.065936 0.027877 0
-0.068236 0.024138 0
-0.070124 0.021193 0
-0.071672 0.018918 0
-0.072944 0.017196 0
-0.073987 0.015918 0
-0.074840 0.014984 0
-0.075530 0.014297 0
-0.076070 0.013764 0
-0.076460 0.013292 0
-0.076692 0.012780 0
-0.076749 0.012118 0
-0.076605 0.011183 0
-0.076230 0.009840 0
-0.075591 0.007939 0
-0.074654 0.005313 0
-0.073388 0.001784 0
-0.071768 -0.002819 0
-0.069808 -0.008633 0
-0.067475 -0.015833 0
-0.064749 -0.024627 0
-0.061612 -0.035203 0
-0.058042 -0.047742 0
-0.054000 -0.062396 0
-0.049415 -0.079219 0
-0.044147 -0.097948 0
-0.037929 -0.117433 0
-0.030321 -0.134138 0
-0.020807 -0.138456 0
-0.009540 -0.106281 0
0.000000 -0.038395 0
0.000000 0.054827 0
-0.006784 0.117107 0
-0.016630 0.116256 0
-0.025766 0.099495 0
-0.033637 0.083782 0
-0.040322 0.070398 0
-0.045942 0.059138 0
-0.050618 0.049736 0
-0.054472 0.041940 0
-0.057623 0.035527 0
-0.060178 0.030305 0
-0.062234 0.026107 0
-0.063873 0.022782 0
-0.065166 0.020193 0
-0.066169 0.018211 0
-0.066931 0.016717 0
-0.067490 0.015598 0
-0.067872 0.014747 0
-0.068095 0.014060 0
-0.068164 0.013433 0
-0.068076 0.012755 0
-0.067820 0.011910 0
-0.067381 0.010770 0
-0.066739 0.009196 0
-0.065874 0.007038 0
-0.064765 0.004132 0
-0.063395 0.000298 0
-0.061750 -0.004609 0
-0.059846 -0.010734 0
-0.057657 -0.018266 0
-0.055177 -0.027403 0
-0.052398 -0.038337 0
-0.049310 -0.051255 0
-0.045888 -0.066334 0
-0.042084 -0.083672 0
-0.037786 -0.103107 0
-0.032758 -0.123648 0
-0.026559 -0.141918 0
-0.018588 -0.148079 0
-0.008745 -0.116127 0
0.000000 -0.042969 0
0.000000 0.057932 0
-0.005714 0.124880 0
-0.014589 0.125300 0
-0.022986 0.107656 0
-0.030271 0.090788 0
-0.036475 0.076329 0
-0.041697 0.064103 0
-0.046036 0.053845 0
-0.049598 0.045304 0
-0.052485 0.038252 0
-0.054794 0.032488 0
-0.056610 0.027833 0
-0.058010 0.024124 0
-0.059058 0.021213 0
-0.059811 0.018961 0
-0.060314 0.017239 0
-0.060604 0.015925 0
-0.060710 0.014902 0
-0.060651 0.014056 0
-0.060437 0.013273 0
-0.060072 0.012436 0
-0.059550 0.011423 0
-0.058866 0.010102 0
-0.058008 0.008333 0
-0.056967 0.005965 0
-0.055732 0.002835 0
-0.054292 -0.001232 0
-0.052656 -0.006369 0
-0.050826 -0.012726 0
-0.048791 -0.020501 0
-0.046551 -0.029886 0
-0.044105 -0.041070 0
-0.041449 -0.054252 0
-0.038572 -0.069622 0
-0.035441 -0.087321 0
-0.031971 -0.107274 0
-0.027962 -0.128659 0
-0.022994 -0.148308 0
-0.016420 -0.156270 0
-0.007932 -0.124870 0
0.000000 -0.047139 0
0.000000 0.060540 0
-0.004779 0.131696 0
-0.012773 0.133528 0
-0.020483 0.115177 0
-0.027207 0.097271 0
-0.032942 0.081824 0
-0.037767 0.068699 0
-0.041769 0.057638 0
-0.045036 0.048389 0
-0.047660 0.040722 0
-0.049724 0.034430 0
-0.051307 0.029323 0
-0.052478 0.025231 0
-0.053297 0.021994 0
-0.053817 0.019466 0
-0.054083 0.017510 0
-0.054131 0.015994 0
-0.053991 0.014794 0
-0.053685 0.013788 0
-0.053226 0.012853 0
-0.052623 0.011868 0
-0.051879 0.010704 0
-0.050993 0.009228 0
-0.049964 0.007297 0
-0.048788 0.004761 0
-0.047464 0.001456 0
-0.045984 -0.002777 0
-0.044377 -0.008075 0
-0.042634 -0.014599 0
-0.040756 -0.022541 0
-0.038746 -0.032090 0
-0.036609 -0.043438 0
-0.034347 -0.056788 0
-0.031955 -0.072342 0
-0.029413 -0.090273 0
-0.026661 -0.110586 0
-0.023535 -0.132625 0
-0.019651 -0.153460 0
-0.014341 -0.163142 0
-0.007123 -0.132547 0
0.000000 -0.050901 0
0.000000 0.062711 0
-0.003951 0.137653 0
-0.011131 0.141003 0
-0.018194 0.122091 0
-0.024381 0.103248 0
-0.029658 0.086889 0
-0.034091 0.072929 0
-0.037756 0.061114 0
-0.040730 0.051195 0
-0.043091 0.042940 0
-0.044916 0.036135 0
-0.046273 0.030587 0
-0.047226 0.026114 0
-0.047831 0.022553 0
-0.048137 0.019747 0
-0.048188 0.017554 0
-0.048021 0.015834 0
-0.047664 0.014456 0
-0.047142 0.013291 0
-0.046474 0.012211 0
-0.045670 0.011089 0
-0.044741 0.009793 0
-0.043692 0.008187 0
-0.042528 0.006128 0
-0.041252 0.003465 0
-0.039867 0.000031 0
-0.038377 -0.004319 0
-0.036810 -0.009719 0
-0.035162 -0.016347 0
-0.033439 -0.024390 0
-0.031650 -0.034032 0
-0.029800 -0.045469 0
-0.027898 -0.058906 0
-0.025942 -0.074556 0
-0.023925 -0.092614 0
-0.021805 -0.113152 0
-0.019453 -0.135670 0
-0.016531 -0.157502 0
-0.012368 -0.168798 0
-0.006336 -0.139211 0
0.000000 -0.054263 0
0.000000 0.064491 0
-0.003204 0.142827 0
-0.009622 0.147772 0
-0.016069 0.128427 0
-0.021737 0.108735 0
-0.026568 0.091534 0
-0.030615 0.076797 0
-0.033945 0.064276 0
-0.036628 0.053724 0
-0.038731 0.044908 0
-0.040321 0.037611 0
-0.041460 0.031633 0
-0.042206 0.026788 0
-0.042611 0.022906 0
-0.042722 0.019824 0
-0.042580 0.017394 0
-0.042221 0.015470 0
-0.041675 0.013916 0
-0.040968 0.012597 0
-0.040122 0.011381 0
-0.039152 0.010136 0
-0.038071 0.008726 0
-0.036892 0.007014 0
-0.035623 0.004857 0
-0.034274 0.002100 0
-0.032848 -0.001418 0
-0.031371 -0.005834 0
-0.029857 -0.011290 0
-0.028309 -0.017969 0
-0.026740 -0.026053 0
-0.025160 -0.035728 0
-0.023580 -0.047190 0
-0.022007 -0.060646 0
-0.020449 -0.076315 0
-0.018903 -0.094411 0
-0.017348 -0.115058 0
-0.015686 -0.137898 0
-0.013625 -0.160545 0
-0.010506 -0.173337 0
-0.005578 -0.144915 0
0.000000 -0.057237 0
0.000000 0.065915 0
-0.002514 0.147275 0
-0.008208 0.153868 0
-0.014062 0.134206 0
-0.019228 0.113747 0
-0.023623 0.095767 0
-0.027291 0.080307 0
-0.030292 0.067127 0
-0.032686 0.055980 0
-0.034534 0.046633 0
-0.035895 0.038864 0
-0.036824 0.032472 0
-0.037373 0.027265 0
-0.037592 0.023069 0
-0.037524 0.019716 0
-0.037209 0.017052 0
-0.036681 0.014929 0
-0.035972 0.013203 0
-0.035108 0.011737 0
-0.034113 0.010394 0
-0.033005 0.009039 0
-0.031804 0.007534 0
-0.030523 0.005739 0
-0.029177 0.003510 0
-0.027779 0.000690 0
-0.026333 -0.002872 0
-0.024882 -0.007310 0
-0.023429 -0.012781 0
-0.021986 -0.019464 0
-0.020568 -0.027539 0
-0.019188 -0.037193 0
-0.017859 -0.048623 0
-0.016592 -0.062037 0
-0.015398 -0.077659 0
-0.014284 -0.095715 0
-0.013241 -0.116370 0
-0.012201 -0.139393 0
-0.010916 -0.162682 0
-0.008753 -0.176845 0
-0.004854 -0.149716 0
0.000000 -0.059840 0
0.000000 0.067005 0
-0.001858 0.151035 0
-0.006856 0.159319 0
-0.012136 0.139447 0
-0.016814 0.118296 0
-0.020783 0.099597 0
-0.024079 0.083466 0
-0.026755 0.069671 0
-0.028864 0.057967 0
-0.030461 0.048117 0
-0.031597 0.039901 0
-0.032323 0.033112 0
-0.032687 0.027557 0
-0.032732 0.023057 0
-0.032501 0.019441 0
-0.032030 0.016550 0
-0.031354 0.014233 0
-0.030505 0.012343 0
-0.029508 0.010738 0
-0.028390 0.009279 0
-0.027173 0.007827 0
-0.025876 0.006244 0
-0.024519 0.004388 0
-0.023118 0.002112 0
-0.021686 -0.000743 0
-0.020247 -0.004316 0
-0.018830 -0.008739 0
-0.017446 -0.014186 0
-0.016112 -0.020830 0
-0.014842 -0.028852 0
-0.013653 -0.038438 0
-0.012560 -0.049786 0
-0.011579 -0.063107 0
-0.010723 -0.078623 0
-0.010008 -0.096567 0
-0.009437 -0.117141 0
-0.008964 -0.140223 0
-0.008388 -0.163992 0
-0.007108 -0.179399 0
-0.004170 -0.153668 0
0.000000 -0.062091 0
0.000000 0.067774 0
-0.001225 0.154131 0
-0.005543 0.164145 0
-0.010261 0.144164 0
-0.014462 0.122394 0
-0.018012 0.103032 0
-0.020941 0.086279 0
-0.023296 0.071912 0
-0.025124 0.059687 0
-0.026473 0.049366 0
-0.027390 0.040727 0
-0.027919 0.033561 0
-0.028105 0.027674 0
-0.027989 0.022883 0
-0.027608 0.019014 0
-0.026998 0.015906 0
-0.026194 0.013404 0
-0.025224 0.011357 0
-0.024118 0.009623 0
-0.022901 0.008059 0
-0.021597 0.006525 0
-0.020228 0.004880 0
-0.018817 0.002982 0
-0.017381 0.000678 0
-0.015932 -0.002182 0
-0.014515 -0.005728 0
-0.013144 -0.010110 0
-0.011837 -0.015499 0
-0.010612 -0.022068 0
-0.009489 -0.029997 0
-0.008484 -0.039474 0
-0.007616 -0.050697 0
-0.006905 -0.063874 0
-0.006368 -0.079230 0
-0.006027 -0.097001 0
-0.005895 -0.117413 0
-0.005947 -0.140442 0
-0.006023 -0.164539 0
-0.005564 -0.181064 0
-0.003531 -0.156824 0
0.000000 -0.064010 0
0.000000 0.068230 0
-0.000608 0.156577 0
-0.004252 0.168356 0
-0.008413 0.148366 0
-0.012141 0.126048 0
-0.015279 0.106077 0
-0.017845 0.088749 0
-0.019881 0.073854 0
-0.021430 0.061144 0
-0.022534 0.050383 0
-0.023235 0.041347 0
-0.023574 0.033828 0
-0.023591 0.027626 0
-0.023322 0.022559 0
-0.022804 0.018451 0
-0.022071 0.015136 0
-0.021154 0.012459 0
-0.020084 0.010267 0
-0.018888 0.008414 0
-0.017593 0.006757 0
-0.016224 0.005154 0
-0.014804 0.003464 0
-0.013358 0.001541 0
-0.011897 -0.000773 0
-0.010458 -0.003610 0
-0.009074 -0.007103 0
-0.007758 -0.011417 0
-0.006533 -0.016718 0
-0.005421 -0.023178 0
-0.004443 -0.030980 0
-0.003617 -0.040311 0
-0.002967 -0.051366 0
-0.002517 -0.064354 0
-0.002288 -0.079500 0
-0.002302 -0.097040 0
-0.002580 -0.117221 0
-0.003118 -0.140095 0
-0.003799 -0.164375 0
-0.004110 -0.181891 0
-0.002934 -0.159233 0
0.000000 -0.065622 0
0.000000 0.068381 0
-0.000019 0.158383 0
-0.002965 0.171951 0
-0.006569 0.152054 0
-0.009827 0.129260 0
-0.012554 0.108735 0
-0.014758 0.090880 0
-0.016476 0.075497 0
-0.017747 0.062340 0
-0.018608 0.051171 0
-0.019097 0.041767 0
-0.019251 0.033917 0
-0.019104 0.027422 0
-0.018692 0.022096 0
-0.018048 0.017763 0
-0.017204 0.014256 0
-0.016190 0.011417 0
-0.015036 0.009091 0
-0.013769 0.007132 0
-0.012416 0.005394 0
-0.011001 0.003736 0
-0.009549 0.002014 0
-0.008077 0.000075 0
-0.006613 -0.002222 0
-0.005203 -0.005005 0
-0.003862 -0.008428 0
-0.002609 -0.012651 0
-0.001470 -0.017837 0
-0.000471 -0.024159 0
0.000364 -0.031802 0
0.001009 -0.040951 0
0.001438 -0.051797 0
0.001627 -0.064553 0
0.001554 -0.079445 0
0.001198 -0.096708 0
0.000538 -0.116597 0
-0.000445 -0.139224 0
-0.001687 -0.163547 0
-0.002724 -0.181928 0
-0.002368 -0.160934 0
0.000000 -0.066944 0
0.000000 0.068249 0
0.000545 0.159543 0
-0.001669 0.174906 0
-0.004707 0.155228 0
-0.007494 0.132033 0
-0.009808 0.111008 0
-0.011649 0.092672 0
-0.013049 0.076842 0
-0.014041 0.063276 0
-0.014660 0.051733 0
-0.014939 0.041990 0
-0.014910 0.033834 0
-0.014606 0.027068 0
-0.014058 0.021503 0
-0.013298 0.016963 0
-0.012355 0.013279 0
-0.011259 0.010291 0
-0.010036 0.007846 0
-0.008713 0.005794 0
-0.007319 0.003989 0
-0.005877 0.002288 0
-0.004400 0.000540 0
-0.002916 -0.001396 0
-0.001472 -0.003647 0
-0.000095 -0.006361 0
0.001195 -0.009698 0
0.002374 -0.013809 0
0.003416 -0.018855 0
0.004293 -0.025012 0
0.004978 -0.032459 0
0.005438 -0.041385 0
0.005647 -0.051985 0
0.005580 -0.064471 0
0.005211 -0.079070 0
0.004519 -0.096024 0
0.003482 -0.115578 0
0.002076 -0.137870 0
0.000340 -0.162096 0
-0.001382 -0.181210 0
-0.001824 -0.161957 0
0.000000 -0.067991 0
0.000000 0.067836 0
0.001106 0.160051 0
-0.000342 0.177203 0
-0.002812 0.157879 0
-0.005115 0.134361 0
-0.007012 0.112891 0
-0.008487 0.094121 0
-0.009565 0.077889 0
-0.010277 0.063951 0
-0.010652 0.052069 0
-0.010721 0.042017 0
-0.010513 0.033584 0
-0.010056 0.026570 0
-0.009379 0.020788 0
-0.008510 0.016060 0
-0.007480 0.012217 0
-0.006313 0.009097 0
-0.005035 0.006546 0
-0.003668 0.004416 0
-0.002240 0.002558 0
-0.000770 0.000817 0
0.000716 -0.000947 0
0.002176 -0.002854 0
0.003582 -0.005043 0
0.004912 -0.007672 0
0.006139 -0.010897 0
0.007233 -0.014871 0
0.008169 -0.019756 0
0.008916 -0.025721 0
0.009444 -0.032946 0
0.009721 -0.041619 0
0.009716 -0.051939 0
0.009400 -0.064118 0
0.008744 -0.078383 0
0.007721 -0.094979 0
0.006305 -0.114155 0
0.004478 -0.136082 0
0.002270 -0.160088 0
-0.000063 -0.179764 0
-0.001292 -0.162316 0
0.000000 -0.068768 0
0.000000 0.067143 0
0.001671 0.159885 0
0.001025 0.178823 0
-0.000837 0.160000 0
-0.002670 0.136233 0
-0.004136 0.114380 0
-0.005236 0.095224 0
-0.005988 0.078632 0
-0.006415 0.064363 0
-0.006545 0.052177 0
-0.006403 0.041850 0
-0.006017 0.033169 0
-0.005412 0.025934 0
-0.004609 0.019957 0
-0.003639 0.015064 0
-0.002527 0.011082 0
-0.001298 0.007846 0
0.000025 0.005201 0
0.001422 0.002999 0
0.002874 0.001091 0
0.004354 -0.000669 0
0.005816 -0.002407 0
0.007232 -0.004261 0
0.008587 -0.006383 0
0.009855 -0.008918 0
0.011006 -0.012018 0
0.012010 -0.015838 0
0.012835 -0.020538 0
0.013450 -0.026288 0
0.013821 -0.033264 0
0.013914 -0.041656 0
0.013696 -0.051663 0
0.013133 -0.063499 0
0.012195 -0.077391 0
0.010848 -0.093586 0
0.009064 -0.112335 0
0.006817 -0.133835 0
0.004122 -0.157554 0
0.001223 -0.177649 0
-0.000763 -0.162020 0
0.000000 -0.069282 0
0.000000 0.066165 0
0.002247 0.159026 0
0.002424 0.179711 0
0.001241 0.161574 0
-0.000098 0.137660 0
-0.001140 0.115457 0
-0.001862 0.095973 0
-0.002280 0.079067 0
-0.002415 0.064508 0
-0.002293 0.052057 0
-0.001937 0.041490 0
-0.001371 0.032592 0
-0.000618 0.025162 0
0.000301 0.019015 0
0.001362 0.013978 0
0.002544 0.009876 0
0.003824 0.006545 0
0.005180 0.003826 0
0.006594 0.001567 0
0.008050 -0.000374 0
0.009501 -0.002125 0
0.010922 -0.003825 0
0.012294 -0.005625 0
0.013593 -0.007665 0
0.014790 -0.010092 0
0.015856 -0.013052 0
0.016759 -0.016700 0
0.017465 -0.021196 0
0.017942 -0.026707 0
0.018153 -0.033411 0
0.018061 -0.041494 0
0.017629 -0.051158 0
0.016822 -0.062616 0
0.015603 -0.076098 0
0.013935 -0.091848 0
0.011786 -0.110124 0
0.009123 -0.131140 0
0.005952 -0.154493 0