# vtk DataFile Version 2.0
generated by CFD-lab course output (written by Tobias Neckel) 
ASCII

DATASET STRUCTURED_GRID
DIMENSIONS  41 41 1 
POINTS 1681 float

0.150000 0.150000 0
0.167857 0.150000 0
0.185714 0.150000 0
0.203571 0.150000 0
0.221429 0.150000 0
0.239286 0.150000 0
0.257143 0.150000 0
0.275000 0.150000 0
0.292857 0.150000 0
0.310714 0.150000 0
0.328571 0.150000 0
0.346429 0.150000 0
0.364286 0.150000 0
0.382143 0.150000 0
0.400000 0.150000 0
0.417857 0.150000 0
0.435714 0.150000 0
0.453571 0.150000 0
0.471429 0.150000 0
0.489286 0.150000 0
0.507143 0.150000 0
0.525000 0.150000 0
0.542857 0.150000 0
0.560714 0.150000 0
0.578571 0.150000 0
0.596429 0.150000 0
0.614286 0.150000 0
0.632143 0.150000 0
0.650000 0.150000 0
0.667857 0.150000 0
0.685714 0.150000 0
0.703571 0.150000 0
0.721429 0.150000 0
0.739286 0.150000 0
0.757143 0.150000 0
0.775000 0.150000 0
0.792857 0.150000 0
0.810714 0.150000 0
0.828571 0.150000 0
0.846429 0.150000 0
0.864286 0.150000 0
0.150000 0.167857 0
0.167857 0.167857 0
0.185714 0.167857 0
0.203571 0.167857 0
0.221429 0.167857 0
0.239286 0.167857 0
0.257143 0.167857 0
0.275000 0.167857 0
0.292857 0.167857 0
0.310714 0.167857 0
0.328571 0.167857 0
0.346429 0.167857 0
0.364286 0.167857 0
0.382143 0.167857 0
0.400000 0.167857 0
0.417857 0.167857 0
0.435714 0.167857 0
0.453571 0.167857 0
0.471429 0.167857 0
0.489286 0.167857 0
0.507143 0.167857 0
0.525000 0.167857 0
0.542857 0.167857 0
0.560714 0.167857 0
0.578571 0.167857 0
0.596429 0.167857 0
0.614286 0.167857 0
0.632143 0.167857 0
0.650000 0.167857 0
0.667857 0.167857 0
0.685714 0.167857 0
0.703571 0.167857 0
0.721429 0.167857 0
0.739286 0.167857 0
0.757143 0.167857 0
0.775000 0.167857 0
0.792857 0.167857 0
0.810714 0.167857 0
0.828571 0.167857 0
0.846429 0.167857 0
0.864286 0.167857 0
0.150000 0.185714 0
0.167857 0.185714 0
0.185714 0.185714 0
0.203571 0.185714 0
0.221429 0.185714 0
0.239286 0.185714 0
0.257143 0.185714 0
0.275000 0.185714 0
0.292857 0.185714 0
0.310714 0.185714 0
0.328571 0.185714 0
0.346429 0.185714 0
0.364286 0.185714 0
0.382143 0.185714 0
0.400000 0.185714 0
0.417857 0.185714 0
0.435714 0.185714 0
0.453571 0.185714 0
0.471429 0.185714 0
0.489286 0.185714 0
0.507143 0.185714 0
0.525000 0.185714 0
0.542857 0.185714 0
0.560714 0.185714 0
0.578571 0.185714 0
0.596429 0.185714 0
0.614286 0.185714 0
0.632143 0.185714 0
0.650000 0.185714 0
0.667857 0.185714 0
0.685714 0.185714 0
0.703571 0.185714 0
0.721429 0.185714 0
0.739286 0.185714 0
0.757143 0.185714 0
0.775000 0.185714 0
0.792857 0.185714 0
0.810714 0.185714 0
0.828571 0.185714 0
0.846429 0.185714 0
0.864286 0.185714 0
0.150000 0.203571 0
0.167857 0.203571 0
0.185714 0.203571 0
0.203571 0.203571 0
0.221429 0.203571 0
0.239286 0.203571 0
0.257143 0.203571 0
0.275000 0.203571 0
0.292857 0.203571 0
0.310714 0.203571 0
0.328571 0.203571 0
0.346429 0.203571 0
0.364286 0.203571 0
0.382143 0.203571 0
0.400000 0.203571 0
0.417857 0.203571 0
0.435714 0.203571 0
0.453571 0.203571 0
0.471429 0.203571 0
0.489286 0.203571 0
0.507143 0.203571 0
0.525000 0.203571 0
0.542857 0.203571 0
0.560714 0.203571 0
0.578571 0.203571 0
0.596429 0.203571 0
0.614286 0.203571 0
0.632143 0.203571 0
0.650000 0.203571 0
0.667857 0.203571 0
0.685714 0.203571 0
0.703571 0.203571 0
0.721429 0.203571 0
0.739286 0.203571 0
0.757143 0.203571 0
0.775000 0.203571 0
0.792857 0.203571 0
0.810714 0.203571 0
0.828571 0.203571 0
0.846429 0.203571 0
0.864286 0.203571 0
0.150000 0.221429 0
0.167857 0.221429 0
0.185714 0.221429 0
0.203571 0.221429 0
0.221429 0.221429 0
0.239286 0.221429 0
0.257143 0.221429 0
0.275000 0.221429 0
0.292857 0.221429 0
0.310714 0.221429 0
0.328571 0.221429 0
0.346429 0.221429 0
0.364286 0.221429 0
0.382143 0.221429 0
0.400000 0.221429 0
0.417857 0.221429 0
0.435714 0.221429 0
0.453571 0.221429 0
0.471429 0.221429 0
0.489286 0.221429 0
0.507143 0.221429 0
0.525000 0.221429 0
0.542857 0.221429 0
0.560714 0.221429 0
0.578571 0.221429 0
0.596429 0.221429 0
0.614286 0.221429 0
0.632143 0.221429 0
0.650000 0.221429 0
0.667857 0.221429 0
0.685714 0.221429 0
0.703571 0.221429 0
0.721429 0.221429 0
0.739286 0.221429 0
0.757143 0.221429 0
0.775000 0.221429 0
0.792857 0.221429 0
0.810714 0.221429 0
0.828571 0.221429 0
0.846429 0.221429 0
0.864286 0.221429 0
0.150000 0.239286 0
0.167857 0.239286 0
0.185714 0.239286 0
0.203571 0.239286 0
0.221429 0.239286 0
0.239286 0.239286 0
0.257143 0.239286 0
0.275000 0.239286 0
0.292857 0.239286 0
0.310714 0.239286 0
0.328571 0.239286 0
0.346429 0.239286 0
0.364286 0.239286 0
0.382143 0.239286 0
0.400000 0.239286 0
0.417857 0.239286 0
0.435714 0.239286 0
0.453571 0.239286 0
0.471429 0.239286 0
0.489286 0.239286 0
0.507143 0.239286 0
0.525000 0.239286 0
0.542857 0.239286 0
0.560714 0.239286 0
0.578571 0.239286 0
0.596429 0.239286 0
0.614286 0.239286 0
0.632143 0.239286 0
0.650000 0.239286 0
0.667857 0.239286 0
0.685714 0.239286 0
0.703571 0.239286 0
0.721429 0.239286 0
0.739286 0.239286 0
0.757143 0.239286 0
0.775000 0.239286 0
0.792857 0.239286 0
0.810714 0.239286 0
0.828571 0.239286 0
0.846429 0.239286 0
0.864286 0.239286 0
0.150000 0.257143 0
0.167857 0.257143 0
0.185714 0.257143 0
0.203571 0.257143 0
0.221429 0.257143 0
0.239286 0.257143 0
0.257143 0.257143 0
0.275000 0.257143 0
0.292857 0.257143 0
0.310714 0.257143 0
0.328571 0.257143 0
0.346429 0.257143 0
0.364286 0.257143 0
0.382143 0.257143 0
0.400000 0.257143 0
0.417857 0.257143 0
0.435714 0.257143 0
0.453571 0.257143 0
0.471429 0.257143 0
0.489286 0.257143 0
0.507143 0.257143 0
0.525000 0.257143 0
0.542857 0.257143 0
0.560714 0.257143 0
0.578571 0.257143 0
0.596429 0.257143 0
0.614286 0.257143 0
0.632143 0.257143 0
0.650000 0.257143 0
0.667857 0.257143 0
0.685714 0.257143 0
0.703571 0.257143 0
0.721429 0.257143 0
0.739286 0.257143 0
0.757143 0.257143 0
0.775000 0.257143 0
0.792857 0.257143 0
0.810714 0.257143 0
0.828571 0.257143 0
0.846429 0.257143 0
0.864286 0.257143 0
0.150000 0.275000 0
0.167857 0.275000 0
0.185714 0.275000 0
0.203571 0.275000 0
0.221429 0.275000 0
0.239286 0.275000 0
0.257143 0.275000 0
0.275000 0.275000 0
0.292857 0.275000 0
0.310714 0.275000 0
0.328571 0.275000 0
0.346429 0.275000 0
0.364286 0.275000 0
0.382143 0.275000 0
0.400000 0.275000 0
0.417857 0.275000 0
0.435714 0.275000 0
0.453571 0.275000 0
0.471429 0.275000 0
0.489286 0.275000 0
0.507143 0.275000 0
0.525000 0.275000 0
0.542857 0.275000 0
0.560714 0.275000 0
0.578571 0.275000 0
0.596429 0.275000 0
0.614286 0.275000 0
0.632143 0.275000 0
0.650000 0.275000 0
0.667857 0.275000 0
0.685714 0.275000 0
0.703571 0.275000 0
0.721429 0.275000 0
0.739286 0.275000 0
0.757143 0.275000 0
0.775000 0.275000 0
0.792857 0.275000 0
0.810714 0.275000 0
0.828571 0.275000 0
0.846429 0.275000 0
0.864286 0.275000 0
0.150000 0.292857 0
0.167857 0.292857 0
0.185714 0.292857 0
0.203571 0.292857 0
0.221429 0.292857 0
0.239286 0.292857 0
0.257143 0.292857 0
0.275000 0.292857 0
0.292857 0.292857 0
0.310714 0.292857 0
0.328571 0.292857 0
0.346429 0.292857 0
0.364286 0.292857 0
0.382143 0.292857 0
0.400000 0.292857 0
0.417857 0.292857 0
0.435714 0.292857 0
0.453571 0.292857 0
0.471429 0.292857 0
0.489286 0.292857 0
0.507143 0.292857 0
0.525000 0.292857 0
0.542857 0.292857 0
0.560714 0.292857 0
0.578571 0.292857 0
0.596429 0.292857 0
0.614286 0.292857 0
0.632143 0.292857 0
0.650000 0.292857 0
0.667857 0.292857 0
0.685714 0.292857 0
0.703571 0.292857 0
0.721429 0.292857 0
0.739286 0.292857 0
0.757143 0.292857 0
0.775000 0.292857 0
0.792857 0.292857 0
0.810714 0.292857 0
0.828571 0.292857 0
0.846429 0.292857 0
0.864286 0.292857 0
0.150000 0.310714 0
0.167857 0.310714 0
0.185714 0.310714 0
0.203571 0.310714 0
0.221429 0.310714 0
0.239286 0.310714 0
0.257143 0.310714 0
0.275000 0.310714 0
0.292857 0.310714 0
0.310714 0.310714 0
0.328571 0.310714 0
0.346429 0.310714 0
0.364286 0.310714 0
0.382143 0.310714 0
0.400000 0.310714 0
0.417857 0.310714 0
0.435714 0.310714 0
0.453571 0.310714 0
0.471429 0.310714 0
0.489286 0.310714 0
0.507143 0.310714 0
0.525000 0.310714 0
0.542857 0.310714 0
0.560714 0.310714 0
0.578571 0.310714 0
0.596429 0.310714 0
0.614286 0.310714 0
0.632143 0.310714 0
0.650000 0.310714 0
0.667857 0.310714 0
0.685714 0.310714 0
0.703571 0.310714 0
0.721429 0.310714 0
0.739286 0.310714 0
0.757143 0.310714 0
0.775000 0.310714 0
0.792857 0.310714 0
0.810714 0.310714 0
0.828571 0.310714 0
0.846429 0.310714 0
0.864286 0.310714 0
0.150000 0.328571 0
0.167857 0.328571 0
0.185714 0.328571 0
0.203571 0.328571 0
0.221429 0.328571 0
0.239286 0.328571 0
0.257143 0.328571 0
0.275000 0.328571 0
0.292857 0.328571 0
0.310714 0.328571 0
0.328571 0.328571 0
0.346429 0.328571 0
0.364286 0.328571 0
0.382143 0.328571 0
0.400000 0.328571 0
0.417857 0.328571 0
0.435714 0.328571 0
0.453571 0.328571 0
0.471429 0.328571 0
0.489286 0.328571 0
0.507143 0.328571 0
0.525000 0.328571 0
0.542857 0.328571 0
0.560714 0.328571 0
0.578571 0.328571 0
0.596429 0.328571 0
0.614286 0.328571 0
0.632143 0.328571 0
0.650000 0.328571 0
0.667857 0.328571 0
0.685714 0.328571 0
0.703571 0.328571 0
0.721429 0.328571 0
0.739286 0.328571 0
0.757143 0.328571 0
0.775000 0.328571 0
0.792857 0.328571 0
0.810714 0.328571 0
0.828571 0.328571 0
0.846429 0.328571 0
0.864286 0.328571 0
0.150000 0.346429 0
0.167857 0.346429 0
0.185714 0.346429 0
0.203571 0.346429 0
0.221429 0.346429 0
0.239286 0.346429 0
0.257143 0.346429 0
0.275000 0.346429 0
0.292857 0.346429 0
0.310714 0.346429 0
0.328571 0.346429 0
0.346429 0.346429 0
0.364286 0.346429 0
0.382143 0.346429 0
0.400000 0.346429 0
0.417857 0.346429 0
0.435714 0.346429 0
0.453571 0.346429 0
0.471429 0.346429 0
0.489286 0.346429 0
0.507143 0.346429 0
0.525000 0.346429 0
0.542857 0.346429 0
0.560714 0.346429 0
0.578571 0.346429 0
0.596429 0.346429 0
0.614286 0.346429 0
0.632143 0.346429 0
0.650000 0.346429 0
0.667857 0.346429 0
0.685714 0.346429 0
0.703571 0.346429 0
0.721429 0.346429 0
0.739286 0.346429 0
0.757143 0.346429 0
0.775000 0.346429 0
0.792857 0.346429 0
0.810714 0.346429 0
0.828571 0.346429 0
0.846429 0.346429 0
[...]
POINT_DATA 1681 

VECTORS velocity float
0.000000 0.000000 0
0.006216 0.000000 0
0.012599 0.000000 0
0.015042 0.000000 0
0.014815 0.000000 0
0.014420 0.000000 0
0.012303 0.000000 0
0.016498 0.000000 0
0.022168 0.000000 0
0.012406 0.000000 0
-0.005561 0.000000 0
-0.025857 0.000000 0
-0.046621 0.000000 0
-0.066769 0.000000 0
-0.085556 0.000000 0
-0.102542 0.000000 0
-0.117562 0.000000 0
-0.130473 0.000000 0
-0.141238 0.000000 0
-0.149852 0.000000 0
-0.156331 0.000000 0
-0.160694 0.000000 0
-0.162943 0.000000 0
-0.163097 0.000000 0
-0.161030 0.000000 0
-0.156628 0.000000 0
-0.149828 0.000000 0
-0.140556 0.000000 0
-0.128748 0.000000 0
-0.114359 0.000000 0
-0.097473 0.000000 0
-0.078176 0.000000 0
-0.056739 0.000000 0
-0.033655 0.000000 0
-0.009752 0.000000 0
0.013563 0.000000 0
0.028966 0.000000 0
0.031626 0.000000 0
0.023599 0.000000 0
0.011126 0.000000 0
0.000000 0.000000 0
0.000000 -0.006216 0
0.016359 -0.012599 0
0.029965 -0.008826 0
0.035517 -0.002215 0
0.034855 0.000622 0
0.035157 0.002512 0
0.027187 -0.002078 0
0.008641 -0.009865 0
-0.015773 0.004092 0
-0.047592 0.027728 0
-0.086078 0.038263 0
-0.126799 0.041060 0
-0.167084 0.040912 0
-0.205175 0.038935 0
-0.239964 0.035772 0
-0.270823 0.032006 0
-0.297474 0.027931 0
-0.319792 0.023677 0
-0.337772 0.019379 0
-0.351466 0.015093 0
-0.360944 0.010842 0
-0.366266 0.006612 0
-0.367461 0.002403 0
-0.364516 -0.001913 0
-0.357372 -0.006469 0
-0.345952 -0.011201 0
-0.330129 -0.016072 0
-0.309764 -0.021081 0
-0.284733 -0.026198 0
-0.254963 -0.031275 0
-0.220508 -0.036183 0
-0.181574 -0.040734 0
-0.138689 -0.044521 0
-0.092913 -0.046987 0
-0.046195 -0.047218 0
-0.002027 -0.038718 0
0.033446 -0.018063 0
0.049395 0.005366 0
0.038127 0.020500 0
0.017897 0.023599 0
0.000000 0.011126 0
0.000000 -0.016359 0
0.019342 -0.029965 0
0.030990 -0.019158 0
0.035484 -0.004889 0
0.025033 0.000361 0
0.004352 0.007667 0
-0.024169 0.026515 0
-0.069169 0.042960 0
-0.122555 0.056233 0
-0.165888 0.070305 0
-0.204742 0.079207 0
-0.241684 0.081006 0
-0.276014 0.078377 0
-0.307000 0.072880 0
-0.334257 0.065648 0
-0.357614 0.057510 0
-0.376977 0.048968 0
-0.392428 0.040298 0
-0.404060 0.031675 0
-0.411979 0.023172 0
-0.416274 0.014800 0
-0.417004 0.006517 0
-0.414194 -0.001750 0
-0.407787 -0.010090 0
-0.397845 -0.018563 0
-0.384342 -0.027243 0
-0.367160 -0.036188 0
-0.346174 -0.045396 0
-0.321263 -0.054801 0
-0.292361 -0.064225 0
-0.259418 -0.073389 0
-0.222632 -0.081819 0
-0.182462 -0.088661 0
-0.139877 -0.092494 0
-0.096711 -0.090886 0
-0.056093 -0.079641 0
-0.017993 -0.051421 0
0.011758 -0.004681 0
0.017193 0.031498 0
0.007730 0.038127 0
0.000000 0.017897 0
0.000000 -0.025559 0
0.012387 -0.043590 0
0.012743 -0.024967 0
-0.003018 0.003742 0
-0.029008 0.031754 0
-0.070016 0.051714 0
-0.113851 0.071444 0
-0.156309 0.088521 0
-0.198956 0.100810 0
-0.237705 0.109916 0
-0.270857 0.114059 0
-0.300071 0.112332 0
-0.325799 0.106228 0
-0.348221 0.097178 0
-0.367468 0.086387 0
-0.383653 0.074725 0
-0.396847 0.062745 0
-0.407153 0.050759 0
-0.414645 0.038930 0
-0.419377 0.027307 0
-0.421375 0.015867 0
-0.420636 0.004531 0
-0.417135 -0.006814 0
-0.410833 -0.018261 0
-0.401680 -0.029913 0
-0.389568 -0.041886 0
-0.374394 -0.054241 0
-0.356045 -0.066978 0
-0.334416 -0.080010 0
-0.309429 -0.093120 0
-0.281049 -0.105911 0
-0.249387 -0.117690 0
-0.214740 -0.127277 0
-0.177701 -0.132738 0
-0.139265 -0.131002 0
-0.100824 -0.117435 0
-0.063801 -0.085914 0
-0.028180 -0.029820 0
0.000393 0.024528 0
-0.000925 0.040792 0
0.000000 0.018856 0
0.000000 -0.028746 0
-0.006582 -0.042708 0
-0.027473 -0.003753 0
-0.060259 0.036861 0
-0.093870 0.067358 0
-0.132074 0.092511 0
-0.171921 0.112808 0
-0.209548 0.128065 0
-0.244767 0.137629 0
-0.276111 0.142206 0
-0.302554 0.141573 0
-0.324983 0.135948 0
-0.344105 0.126527 0
-0.360439 0.114549 0
-0.374321 0.101080 0
-0.385944 0.086889 0
-0.395403 0.072469 0
-0.402748 0.058096 0
-0.407992 0.043899 0
-0.411126 0.029901 0
-0.412125 0.016059 0
-0.410950 0.002277 0
-0.407550 -0.011553 0
-0.401914 -0.025545 0
-0.393946 -0.039829 0
-0.383565 -0.054529 0
-0.370679 -0.069710 0
-0.355194 -0.085374 0
-0.337025 -0.101418 0
-0.316101 -0.117592 0
-0.292383 -0.133431 0
-0.265894 -0.148128 0
-0.236730 -0.160347 0
-0.205070 -0.167969 0
-0.171150 -0.167762 0
-0.135168 -0.155105 0
-0.097096 -0.124065 0
-0.056713 -0.068875 0
-0.014166 0.004242 0
-0.004938 0.038520 0
0.000000 0.016972 0
0.000000 -0.018976 0
-0.028460 -0.016116 0
-0.065007 0.028709 0
-0.098939 0.070139 0
-0.134751 0.103569 0
-0.170869 0.129765 0
-0.206057 0.148918 0
-0.238342 0.161367 0
-0.267226 0.167374 0
-0.292150 0.167703 0
-0.312928 0.162931 0
-0.330229 0.153883 0
-0.344723 0.141684 0
-0.356942 0.127394 0
-0.367226 0.111892 0
-0.375759 0.095807 0
-0.382625 0.079549 0
-0.387855 0.063348 0
-0.391452 0.047308 0
-0.393403 0.031441 0
-0.393684 0.015691 0
-0.392266 -0.000044 0
-0.389114 -0.015850 0
-0.384195 -0.031865 0
-0.377432 -0.048262 0
-0.368750 -0.065154 0
-0.358069 -0.082612 0
-0.345313 -0.100632 0
-0.330410 -0.119104 0
-0.313296 -0.137762 0
-0.293921 -0.156118 0
-0.272237 -0.173343 0
-0.248174 -0.188101 0
-0.221593 -0.198318 0
-0.192197 -0.200904 0
-0.159435 -0.191489 0
-0.122466 -0.164369 0
-0.080459 -0.112749 0
-0.034131 -0.027247 0
0.002810 0.026626 0
0.000000 0.013918 0
0.000000 -0.000286 0
-0.041180 0.022299 0
-0.082282 0.066727 0
-0.120265 0.106604 0
-0.156611 0.139288 0
-0.190665 0.163817 0
-0.221888 0.180281 0
-0.249497 0.189235 0
-0.273313 0.191437 0
-0.293320 0.187907 0
-0.309789 0.179651 0
-0.323321 0.167743 0
-0.334487 0.153240 0
-0.343737 0.137052 0
-0.351364 0.119897 0
-0.357543 0.102288 0
-0.362372 0.084565 0
-0.365902 0.066923 0
-0.368163 0.049446 0
-0.369165 0.032134 0
-0.368905 0.014923 0
-0.367368 -0.002293 0
-0.364536 -0.019624 0
-0.360342 -0.037227 0
-0.354730 -0.055275 0
-0.347625 -0.073891 0
-0.338953 -0.093147 0
-0.328644 -0.113034 0
-0.316631 -0.133434 0
-0.302856 -0.154081 0
-0.287256 -0.174491 0
-0.269744 -0.193875 0
-0.250157 -0.210991 0
-0.228176 -0.223946 0
-0.203216 -0.229920 0
-0.174314 -0.224835 0
-0.140142 -0.203042 0
-0.099342 -0.157210 0
-0.051209 -0.079026 0
0.006056 0.004389 0
0.000000 0.019781 0
0.000000 0.022204 0
-0.045359 0.066166 0
-0.089061 0.107795 0
-0.128719 0.144468 0
-0.164585 0.173968 0
-0.196523 0.195042 0
-0.224458 0.207750 0
-0.248296 0.212792 0
-0.268228 0.211197 0
-0.284583 0.204179 0
-0.297835 0.192933 0
-0.308537 0.178581 0
-0.317174 0.162099 0
-0.324122 0.144270 0
-0.329649 0.125698 0
-0.333937 0.106815 0
-0.337113 0.087908 0
-0.339265 0.069140 0
-0.340453 0.050571 0
-0.340714 0.032182 0
-0.340067 0.013894 0
-0.338507 -0.004413 0
-0.336016 -0.022876 0
-0.332533 -0.041671 0
-0.327991 -0.060980 0
-0.322315 -0.080930 0
-0.315426 -0.101592 0
-0.307246 -0.122954 0
-0.297706 -0.144891 0
-0.286740 -0.167138 0
-0.274279 -0.189231 0
-0.260219 -0.210442 0
-0.244369 -0.229668 0
-0.226365 -0.245259 0
-0.205535 -0.254767 0
-0.180768 -0.254564 0
-0.150468 -0.239341 0
-0.112824 -0.201682 0
-0.066821 -0.132645 0
-0.014818 -0.024583 0
0.000000 0.019974 0
0.000000 0.045073 0
-0.044948 0.111361 0
-0.089195 0.150086 0
-0.128542 0.182129 0
-0.163048 0.207092 0
-0.192765 0.223690 0
-0.217892 0.232053 0
-0.238712 0.233005 0
-0.255669 0.227725 0
-0.269274 0.217514 0
-0.280070 0.203605 0
-0.288568 0.187082 0
-0.295193 0.168825 0
-0.300284 0.149528 0
-0.304099 0.129712 0
-0.306841 0.109752 0
-0.308667 0.089892 0
-0.309699 0.070262 0
-0.310029 0.050896 0
-0.309719 0.031749 0
-0.308804 0.012716 0
-0.307294 -0.006344 0
-0.305169 -0.025599 0
-0.302369 -0.045251 0
-0.298819 -0.065492 0
-0.294431 -0.086457 0
-0.289114 -0.108216 0
-0.282775 -0.130754 0
-0.275330 -0.153940 0
-0.266699 -0.177507 0
-0.256798 -0.201013 0
-0.245518 -0.223785 0
-0.232678 -0.244845 0
-0.217949 -0.262781 0
-0.200731 -0.275517 0
-0.180009 -0.279902 0
-0.154261 -0.270986 0
-0.121663 -0.240858 0
-0.081230 -0.177031 0
-0.036301 -0.062432 0
0.000000 0.004963 0
0.000000 0.067152 0
-0.042652 0.155361 0
-0.085287 0.191388 0
-0.122896 0.218321 0
-0.155344 0.238192 0
-0.182714 0.249885 0
-0.205330 0.253696 0
-0.223656 0.250569 0
-0.238255 0.241759 0
-0.249708 0.228580 0
-0.258559 0.212227 0
-0.265279 0.193705 0
-0.270258 0.173815 0
-0.273816 0.153176 0
-0.276218 0.132256 0
-0.277684 0.111384 0
-0.278399 0.090766 0
-0.278514 0.070501 0
-0.278149 0.050590 0
-0.277394 0.030958 0
-0.276301 0.011469 0
-0.274888 -0.008048 0
-0.273140 -0.027801 0
-0.270991 -0.048021 0
-0.268355 -0.068917 0
-0.265128 -0.090635 0
-0.261199 -0.113249 0
-0.256457 -0.136738 0
-0.250795 -0.160968 0
-0.244111 -0.185670 0
-0.236306 -0.210412 0
-0.227260 -0.234562 0
-0.216807 -0.257237 0
-0.204673 -0.277206 0
-0.190383 -0.292706 0
-0.173111 -0.301033 0
-0.151511 -0.297687 0
-0.123691 -0.274714 0
-0.087757 -0.218006 0
-0.043831 -0.105812 0
0.000000 -0.016328 0
0.000000 0.087725 0
-0.039206 0.196648 0
-0.078978 0.230330 0
-0.113948 0.252185 0
-0.143858 0.266910 0
-0.168773 0.273676 0
-0.189054 0.272995 0
-0.205219 0.265931 0
-0.217857 0.253777 0
-0.227544 0.237817 0
-0.234793 0.219176 0
-0.240040 0.198781 0
-0.243649 0.177363 0
-0.245931 0.155488 0
-0.247155 0.133580 0
-0.247559 0.111932 0
-0.247347 0.090721 0
-0.246701 0.070013 0
-0.245766 0.049776 0
-0.244658 0.029900 0
-0.243447 0.010210 0
-0.242162 -0.009504 0
-0.240788 -0.029497 0
-0.239249 -0.050037 0
-0.237447 -0.071355 0
-0.235258 -0.093612 0
-0.232551 -0.116888 0
-0.229190 -0.141158 0
-0.225049 -0.166285 0
-0.220006 -0.191996 0
-0.213938 -0.217864 0
-0.206717 -0.243284 0
-0.198179 -0.267432 0
-0.188096 -0.289205 0
-0.176097 -0.307080 0
-0.161543 -0.318775 0
-0.143289 -0.320406 0
-0.119415 -0.304612 0
-0.087259 -0.256891 0
-0.045014 -0.150189 0
0.000000 -0.038868 0
0.000000 0.106358 0
-0.035081 0.234339 0
-0.071311 0.266130 0
-0.103133 0.283201 0
-0.130219 0.293016 0
-0.152616 0.295081 0
-0.170669 0.290142 0
-0.184880 0.279372 0
-0.195808 0.264084 0
-0.203985 0.245517 0
-0.209877 0.224723 0
-0.213883 0.202561 0
-0.216343 0.179705 0
-0.217558 0.156682 0
-0.217801 0.133883 0
-0.217317 0.111576 0
-0.216333 0.089908 0
-0.215051 0.068920 0
-0.213644 0.048547 0
-0.212252 0.028639 0
-0.210966 0.008974 0
-0.209824 -0.010707 0
-0.208805 -0.030714 0
-0.207827 -0.051362 0
-0.206772 -0.072908 0
-0.205496 -0.095531 0
-0.203845 -0.119317 0
-0.201666 -0.144239 0
-0.198812 -0.170153 0
-0.195145 -0.196781 0
-0.190530 -0.223700 0
-0.184824 -0.250321 0
-0.177865 -0.275858 0
-0.169447 -0.299288 0
-0.159272 -0.319259 0
-0.146855 -0.333842 0
-0.131283 -0.339815 0
-0.110822 -0.330744 0
-0.082588 -0.292407 0
-0.043752 -0.193071 0
0.000000 -0.061342 0
0.000000 0.122806 0
-0.030599 0.267959 0
-0.062953 0.298382 0
-0.091377 0.311094 0
-0.115504 0.316393 0
-0.135365 0.314125 0
-0.151267 0.305259 0
-0.163664 0.291070 0
-0.173052 0.272882 0
-0.179900 0.251886 0
-0.184623 0.229074 0
-0.187577 0.205247 0
-0.189079 0.181039 0
-0.189415 0.156947 0
-0.188853 0.133339 0
-0.187642 0.110465 0
-0.186022 0.088454 0
-0.184216 0.067324 0
-0.182422 0.046978 0
-0.180803 0.027222 0
-0.179470 0.007782 0
-0.178470 -0.011666 0
-0.177776 -0.031494 0
-0.177295 -0.052070 0
-0.176889 -0.073686 0
-0.176392 -0.096539 0
-0.175629 -0.120718 0
-0.174433 -0.146191 0
-0.172644 -0.172806 0
-0.170116 -0.200278 0
-0.166708 -0.228185 0
-0.162274 -0.255948 0
-0.156649 -0.282809 0
-0.149641 -0.307798 0
-0.140997 -0.329672 0
-0.130343 -0.346764 0
-0.116997 -0.356439 0
-0.099548 -0.353306 0
-0.075267 -0.323960 0
-0.040717 -0.232777 0
0.000000 -0.082620 0
0.000000 0.136957 0
-0.025968 0.297292 0
-0.054320 0.326909 0
-0.079261 0.335753 0
-0.100397 0.337005 0
-0.117747 0.330844 0
-0.131571 0.318440 0
-0.142259 0.301156 0
-0.150235 0.280321 0
-0.155901 0.257088 0
-0.159613 0.232400 0
-0.161687 0.207017 0
-0.162409 0.181543 0
-0.162045 0.156456 0
-0.160849 0.132110 0
-0.159071 0.108745 0
-0.156954 0.086482 0
-0.154736 0.065319 0
-0.152635 0.045134 0
-0.150839 0.025687 0
-0.149478 0.006641 0
-0.148608 -0.012401 0
-0.148196 -0.031888 0
-0.148133 -0.052249 0
-0.148260 -0.073811 0
-0.148392 -0.096791 0
-0.148338 -0.121276 0
-0.147921 -0.147224 0
-0.146979 -0.174469 0
-0.145367 -0.202716 0
-0.142945 -0.231543 0
-0.139573 -0.260380 0
-0.135095 -0.288490 0
-0.129330 -0.314940 0
-0.122055 -0.338557 0
-0.112974 -0.357842 0
-0.101601 -0.370611 0
-0.086887 -0.372474 0
-0.066489 -0.351237 0
-0.036679 -0.268338 0
0.000000 -0.102059 0
0.000000 0.148774 0
-0.021309 0.322279 0
-0.045655 0.351675 0
-0.067130 0.357171 0
-0.085309 0.354879 0
-0.100203 0.345298 0
-0.112026 0.329771 0
-0.121100 0.309735 0
-0.127777 0.286525 0
-0.132389 0.261264 0
-0.135238 0.234860 0
-0.136596 0.208042 0
-0.136714 0.181396 0
-0.135831 0.155387 0
-0.134184 0.130365 0
-0.132009 0.106570 0
-0.129546 0.084119 0
-0.127039 0.063005 0
-0.124720 0.043081 0
-0.122797 0.024065 0
-0.121421 0.005550 0
-0.120658 -0.012948 0
-0.120467 -0.031969 0
-0.120723 -0.052006 0
-0.121247 -0.073427 0
-0.121838 -0.096461 0
-0.122298 -0.121188 0
-0.122448 -0.147550 0
-0.122134 -0.175360 0
-0.121220 -0.204313 0
-0.119579 -0.233979 0
-0.117085 -0.263798 0
-0.113599 -0.293052 0
-0.108958 -0.320838 0
-0.102967 -0.346028 0
-0.095387 -0.367218 0
-0.085877 -0.382526 0
-0.073721 -0.388418 0
-0.057059 -0.374168 0
-0.032132 -0.299266 0
0.000000 -0.119300 0
0.000000 0.158266 0
-0.016683 0.342947 0
-0.037084 0.372729 0
-0.055166 0.375407 0
-0.070462 0.370078 0
-0.082977 0.357561 0
-0.092882 0.339337 0
-0.100434 0.316906 0
-0.105915 0.291610 0
-0.109596 0.264549 0
-0.111724 0.236607 0
-0.112526 0.208493 0
-0.112218 0.180779 0
-0.111007 0.153927 0
-0.109101 0.128288 0
-0.106716 0.104107 0
-0.104077 0.081511 0
-0.101422 0.060493 0
-0.098988 0.040893 0
-0.096998 0.022388 0
-0.095621 0.004501 0
-0.094933 -0.013355 0
-0.094888 -0.031823 0
-0.095342 -0.051469 0
-0.096102 -0.072696 0
-0.096958 -0.095740 0
-0.097718 -0.120666 0
-0.098213 -0.147388 0
-0.098307 -0.175697 0
-0.097880 -0.205272 0
-0.096829 -0.235678 0
-0.095047 -0.266360 0
-0.092420 -0.296617 0
-0.088812 -0.325572 0
-0.084057 -0.352128 0
-0.077965 -0.374932 0
-0.070297 -0.392276 0
-0.060598 -0.401292 0
-0.047498 -0.392826 0
-0.027405 -0.325397 0
0.000000 -0.134191 0
0.000000 0.165457 0
-0.012109 0.359363 0
-0.028652 0.390159 0
-0.043441 0.390549 0
-0.055945 0.382689 0
-0.066168 0.367718 0
-0.074239 0.347227 0
-0.080358 0.322768 0
-0.084744 0.295687 0
-0.087610 0.267073 0
-0.089153 0.237791 0
-0.089557 0.208537 0
-0.088998 0.179877 0
-0.087649 0.152270 0
-0.085685 0.126074 0
-0.083291 0.101546 0
-0.080666 0.078825 0
-0.078027 0.057916 0
-0.075604 0.038658 0
-0.073622 0.020698 0
-0.072265 0.003486 0
-0.071620 -0.013681 0
-0.071630 -0.031560 0
-0.072138 -0.050792 0
-0.072945 -0.071811 0
-0.073850 -0.094845 0
-0.074679 -0.119933 0
-0.075292 -0.146961 0
-0.075576 -0.175693 0
-0.075439 -0.205790 0
-0.074801 -0.236812 0
-0.073585 -0.268206 0
-0.071703 -0.299288 0
-0.069051 -0.329201 0
-0.065502 -0.356874 0
-0.060906 -0.380978 0
-0.055099 -0.399892 0
-0.047811 -0.411217 0
-0.038102 -0.407361 0
-0.022691 -0.346764 0
0.000000 -0.146705 0
0.000000 0.170375 0
-0.007586 0.371599 0
-0.020354 0.404061 0
-0.031950 0.402700 0
-0.041758 0.392805 0
-0.049774 0.375855 0
-0.056093 0.353527 0
-0.060863 0.327412 0
-0.064247 0.298862 0
-0.066404 0.268958 0
-0.067486 0.238554 0
-0.067635 0.208337 0
-0.066989 0.178871 0
-0.065685 0.150614 0
-0.063861 0.123930 0
-0.061664 0.099088 0
-0.059255 0.076247 0
-0.056818 0.055431 0
-0.054556 0.036488 0
-0.052679 0.019049 0
-0.051374 0.002499 0
-0.050735 -0.013990 0
-0.050697 -0.031305 0
-0.051093 -0.050155 0
-0.051736 -0.070985 0
-0.052459 -0.094005 0
-0.053126 -0.119223 0
-0.053634 -0.146492 0
-0.053904 -0.175551 0
-0.053876 -0.206047 0
-0.053497 -0.237533 0
-0.052720 -0.269458 0
-0.051489 -0.301151 0
-0.049733 -0.331773 0
-0.047365 -0.360273 0
-0.044279 -0.385335 0
-0.040365 -0.405372 0
-0.035473 -0.418289 0
-0.029010 -0.417946 0
-0.018089 -0.363499 0
0.000000 -0.156882 0
0.000000 0.173043 0
-0.003117 0.379717 0
-0.012148 0.414523 0
-0.020638 0.411953 0
-0.027832 0.400513 0
-0.033720 0.382054 0
-0.038362 0.358317 0
-0.041856 0.330922 0
-0.044317 0.301228 0
-0.045855 0.270311 0
-0.046579 0.239022 0
-0.046595 0.208040 0
-0.046003 0.177927 0
-0.044903 0.149142 0
-0.043395 0.122053 0
-0.041585 0.096940 0
-0.039592 0.073979 0
-0.037551 0.053216 0
-0.035618 0.034518 0
-0.033967 0.017516 0
-0.032766 0.001542 0
-0.032091 -0.014358 0
-0.031882 -0.031202 0
-0.031982 -0.049753 0
-0.032246 -0.070444 0
-0.032564 -0.093454 0
-0.032854 -0.118758 0
-0.033060 -0.146183 0
-0.033142 -0.175452 0
-0.033072 -0.206197 0
-0.032828 -0.237968 0
-0.032392 -0.270215 0
-0.031738 -0.302275 0
-0.030833 -0.333325 0
-0.029630 -0.362328 0
-0.028066 -0.387978 0
-0.026076 -0.408699 0
-0.023586 -0.422573 0
-0.020252 -0.424745 0
-0.013634 -0.375773 0
0.000000 -0.164794 0
0.000000 0.173493 0
0.001230 0.383747 0
-0.003946 0.421582 0
-0.009404 0.418384 0
-0.014067 0.405887 0
-0.017889 0.386384 0
-0.020911 0.361663 0
-0.023188 0.333367 0
-0.024785 0.302860 0
-0.025771 0.271220 0
-0.026214 0.239294 0
-0.026184 0.207761 0
-0.025746 0.177179 0
-0.024967 0.148006 0
-0.023909 0.120613 0
-0.022640 0.095286 0
-0.021230 0.072213 0
-0.019759 0.051457 0
-0.018322 0.032904 0
-0.017025 0.016197 0
-0.015983 0.000623 0
-0.015234 -0.014874 0
-0.014718 -0.031414 0
-0.014341 -0.049791 0
-0.014036 -0.070403 0
-0.013768 -0.093397 0
-0.013517 -0.118726 0
-0.013277 -0.146203 0
-0.013045 -0.175539 0
-0.012827 -0.206361 0
-0.012632 -0.238213 0
-0.012469 -0.270549 0
-0.012346 -0.302709 0
-0.012265 -0.333881 0
-0.012218 -0.363041 0
-0.012186 -0.388889 0
-0.012148 -0.409852 0
-0.012075 -0.424113 0
-0.011791 -0.427898 0
-0.009316 -0.383751 0
0.000000 -0.170516 0
0.000000 0.171813 0
0.005474 0.383663 0
0.004299 0.425157 0
0.001855 0.422073 0
-0.000319 0.408998 0
-0.002123 0.388898 0
-0.003568 0.363616 0
-0.004667 0.334796 0
-0.005440 0.303810 0
-0.005912 0.271741 0
-0.006115 0.239435 0
-0.006083 0.207573 0
-0.005851 0.176711 0
-0.005452 0.147305 0
-0.004917 0.119726 0
-0.004272 0.094260 0
-0.003543 0.071098 0
-0.002757 0.050309 0
-0.001938 0.031784 0
-0.001098 0.015177 0
-0.000243 -0.000248 0
0.000631 -0.015622 0
0.001569 -0.032096 0
0.002545 -0.050435 0
0.003526 -0.071018 0
0.004473 -0.093973 0
0.005344 -0.119249 0
0.006100 -0.146655 0
0.006705 -0.175901 0
0.007119 -0.206610 0
0.007305 -0.238326 0
0.007223 -0.270501 0
0.006832 -0.302479 0
0.006097 -0.333453 0
0.004986 -0.362407 0
0.003474 -0.388048 0
0.001541 -0.408810 0
-0.000823 -0.422930 0
-0.003543 -0.427505 0
-0.005094 -0.387564 0
0.000000 -0.174109 0
0.000000 0.168019 0
0.009735 0.379448 0
0.012636 0.425201 0
0.013238 0.423003 0
0.013538 0.409865 0
0.013726 0.389633 0
0.013837 0.364207 0
0.013899 0.335238 0
0.013940 0.304105 0
0.013975 0.271895 0
0.014011 0.239465 0
0.014047 0.207498 0
0.014078 0.176548 0
0.014103 0.147071 0
0.014123 0.119432 0
0.014148 0.093912 0
0.014197 0.070698 0
0.014300 0.049851 0
0.014505 0.031246 0
0.014895 0.014502 0
0.015579 -0.001107 0
0.016620 -0.016686 0
0.017983 -0.033328 0
0.019543 -0.051748 0
0.021178 -0.072331 0
0.022781 -0.095214 0
0.024255 -0.120354 0
0.025513 -0.147564 0
0.026480 -0.176558 0
0.027082 -0.206962 0
0.027249 -0.238316 0
0.026908 -0.270076 0
0.025989 -0.301583 0
0.024419 -0.332035 0
0.022126 -0.360417 0
0.019044 -0.385444 0
0.015111 -0.405555 0
0.010288 -0.419029 0
0.004601 -0.423627 0
-0.000895 -0.387294 0
0.000000 -0.175610 0
0.000000 0.162078 0
0.014087 0.371027 0
0.021175 0.421654 0
0.024867 0.421171 0
0.027617 0.408509 0
0.029780 0.388599 0
0.031438 0.363443 0
0.032666 0.334693 0
0.033534 0.303734 0
0.034104 0.271669 0
0.034418 0.239363 0
0.034508 0.207506 0
0.034403 0.176655 0
0.034129 0.147260 0
0.033721 0.119681 0
0.033226 0.094186 0
0.032708 0.070947 0
0.032255 0.050001 0
0.031987 0.031189 0
0.032059 0.014103 0
0.032630 -0.001973 0
0.033799 -0.018026 0
0.035473 -0.035019 0
0.037481 -0.053631 0
0.039640 -0.074256 0
0.041782 -0.097050 0
0.043755 -0.121981 0
0.045427 -0.148881 0
0.046680 -0.177470 0
0.047404 -0.207379 0
0.047494 -0.238152 0
0.046844 -0.269241 0
0.045348 -0.299989 0
0.042898 -0.329591 0
0.039378 -0.357032 0
0.034678 -0.381033 0