# vtk DataFile Version 2.0
generated by CFD-lab course output (written by Tobias Neckel) 
ASCII

DATASET STRUCTURED_GRID
DIMENSIONS  41 41 1 
POINTS 1681 float

0.150000 0.150000 0
0.167857 0.150000 0
0.185714 0.150000 0
0.203571 0.150000 0
0.221429 0.150000 0
0.239286 0.150000 0
0.257143 0.150000 0
0.275000 0.150000 0
0.292857 0.150000 0
0.310714 0.150000 0
0.328571 0.150000 0
0.346429 0.150000 0
0.364286 0.150000 0
0.382143 0.150000 0
0.400000 0.150000 0
0.417857 0.150000 0
0.435714 0.150000 0
0.453571 0.150000 0
0.471429 0.150000 0
0.489286 0.150000 0
0.507143 0.150000 0
0.525000 0.150000 0
0.542857 0.150000 0
0.560714 0.150000 0
0.578571 0.150000 0
0.596429 0.150000 0
0.614286 0.150000 0
0.632143 0.150000 0
0.650000 0.150000 0
0.667857 0.150000 0
0.685714 0.150000 0
0.703571 0.150000 0
0.721429 0.150000 0
0.739286 0.150000 0
0.757143 0.150000 0
0.775000 0.150000 0
0.792857 0.150000 0
0.810714 0.150000 0
0.828571 0.150000 0
0.846429 0.150000 0
0.864286 0.150000 0
0.150000 0.167857 0
0.167857 0.167857 0
0.185714 0.167857 0
0.203571 0.167857 0
0.221429 0.167857 0
0.239286 0.167857 0
0.257143 0.167857 0
0.275000 0.167857 0
0.292857 0.167857 0
0.310714 0.167857 0
0.328571 0.167857 0
0.346429 0.167857 0
0.364286 0.167857 0
0.382143 0.167857 0
0.400000 0.167857 0
0.417857 0.167857 0
0.435714 0.167857 0
0.453571 0.167857 0
0.471429 0.167857 0
0.489286 0.167857 0
0.507143 0.167857 0
0.525000 0.167857 0
0.542857 0.167857 0
0.560714 0.167857 0
0.578571 0.167857 0
0.596429 0.167857 0
0.614286 0.167857 0
0.632143 0.167857 0
0.650000 0.167857 0
0.667857 0.167857 0
0.685714 0.167857 0
0.703571 0.167857 0
0.721429 0.167857 0
0.739286 0.167857 0
0.757143 0.167857 0
0.775000 0.167857 0
0.792857 0.167857 0
0.810714 0.167857 0
0.828571 0.167857 0
0.846429 0.167857 0
0.864286 0.167857 0
0.150000 0.185714 0
0.167857 0.185714 0
0.185714 0.185714 0
0.203571 0.185714 0
0.221429 0.185714 0
0.239286 0.185714 0
0.257143 0.185714 0
0.275000 0.185714 0
0.292857 0.185714 0
0.310714 0.185714 0
0.328571 0.185714 0
0.346429 0.185714 0
0.364286 0.185714 0
0.382143 0.185714 0
0.400000 0.185714 0
0.417857 0.185714 0
0.435714 0.185714 0
0.453571 0.185714 0
0.471429 0.185714 0
0.489286 0.185714 0
0.507143 0.185714 0
0.525000 0.185714 0
0.542857 0.185714 0
0.560714 0.185714 0
0.578571 0.185714 0
0.596429 0.185714 0
0.614286 0.185714 0
0.632143 0.185714 0
0.650000 0.185714 0
0.667857 0.185714 0
0.685714 0.185714 0
0.703571 0.185714 0
0.721429 0.185714 0
0.739286 0.185714 0
0.757143 0.185714 0
0.775000 0.185714 0
0.792857 0.185714 0
0.810714 0.185714 0
0.828571 0.185714 0
0.846429 0.185714 0
0.864286 0.185714 0
0.150000 0.203571 0
0.167857 0.203571 0
0.185714 0.203571 0
0.203571 0.203571 0
0.221429 0.203571 0
0.239286 0.203571 0
0.257143 0.203571 0
0.275000 0.203571 0
0.292857 0.203571 0
0.310714 0.203571 0
0.328571 0.203571 0
0.346429 0.203571 0
0.364286 0.203571 0
0.382143 0.203571 0
0.400000 0.203571 0
0.417857 0.203571 0
0.435714 0.203571 0
0.453571 0.203571 0
0.471429 0.203571 0
0.489286 0.203571 0
0.507143 0.203571 0
0.525000 0.203571 0
0.542857 0.203571 0
0.560714 0.203571 0
0.578571 0.203571 0
0.596429 0.203571 0
0.614286 0.203571 0
0.632143 0.203571 0
0.650000 0.203571 0
0.667857 0.203571 0
0.685714 0.203571 0
0.703571 0.203571 0
0.721429 0.203571 0
0.739286 0.203571 0
0.757143 0.203571 0
0.775000 0.203571 0
0.792857 0.203571 0
0.810714 0.203571 0
0.828571 0.203571 0
0.846429 0.203571 0
0.864286 0.203571 0
0.150000 0.221429 0
0.167857 0.221429 0
0.185714 0.221429 0
0.203571 0.221429 0
0.221429 0.221429 0
0.239286 0.221429 0
0.257143 0.221429 0
0.275000 0.221429 0
0.292857 0.221429 0
0.310714 0.221429 0
0.328571 0.221429 0
0.346429 0.221429 0
0.364286 0.221429 0
0.382143 0.221429 0
0.400000 0.221429 0
0.417857 0.221429 0
0.435714 0.221429 0
0.453571 0.221429 0
0.471429 0.221429 0
0.489286 0.221429 0
0.507143 0.221429 0
0.525000 0.221429 0
0.542857 0.221429 0
0.560714 0.221429 0
0.578571 0.221429 0
0.596429 0.221429 0
0.614286 0.221429 0
0.632143 0.221429 0
0.650000 0.221429 0
0.667857 0.221429 0
0.685714 0.221429 0
0.703571 0.221429 0
0.721429 0.221429 0
0.739286 0.221429 0
0.757143 0.221429 0
0.775000 0.221429 0
0.792857 0.221429 0
0.810714 0.221429 0
0.828571 0.221429 0
0.846429 0.221429 0
0.864286 0.221429 0
0.150000 0.239286 0
0.167857 0.239286 0
0.185714 0.239286 0
0.203571 0.239286 0
0.221429 0.239286 0
0.239286 0.239286 0
0.257143 0.239286 0
0.275000 0.239286 0
0.292857 0.239286 0
0.310714 0.239286 0
0.328571 0.239286 0
0.346429 0.239286 0
0.364286 0.239286 0
0.382143 0.239286 0
0.400000 0.239286 0
0.417857 0.239286 0
0.435714 0.239286 0
0.453571 0.239286 0
0.471429 0.239286 0
0.489286 0.239286 0
0.507143 0.239286 0
0.525000 0.239286 0
0.542857 0.239286 0
0.560714 0.239286 0
0.578571 0.239286 0
0.596429 0.239286 0
0.614286 0.239286 0
0.632143 0.239286 0
0.650000 0.239286 0
0.667857 0.239286 0
0.685714 0.239286 0
0.703571 0.239286 0
0.721429 0.239286 0
0.739286 0.239286 0
0.757143 0.239286 0
0.775000 0.239286 0
0.792857 0.239286 0
0.810714 0.239286 0
0.828571 0.239286 0
0.846429 0.239286 0
0.864286 0.239286 0
0.150000 0.257143 0
0.167857 0.257143 0
0.185714 0.257143 0
0.203571 0.257143 0
0.221429 0.257143 0
0.239286 0.257143 0
0.257143 0.257143 0
0.275000 0.257143 0
0.292857 0.257143 0
0.310714 0.257143 0
0.328571 0.257143 0
0.346429 0.257143 0
0.364286 0.257143 0
0.382143 0.257143 0
0.400000 0.257143 0
0.417857 0.257143 0
0.435714 0.257143 0
0.453571 0.257143 0
0.471429 0.257143 0
0.489286 0.257143 0
0.507143 0.257143 0
0.525000 0.257143 0
0.542857 0.257143 0
0.560714 0.257143 0
0.578571 0.257143 0
0.596429 0.257143 0
0.614286 0.257143 0
0.632143 0.257143 0
0.650000 0.257143 0
0.667857 0.257143 0
0.685714 0.257143 0
0.703571 0.257143 0
0.721429 0.257143 0
0.739286 0.257143 0
0.757143 0.257143 0
0.775000 0.257143 0
0.792857 0.257143 0
0.810714 0.257143 0
0.828571 0.257143 0
0.846429 0.257143 0
0.864286 0.257143 0
0.150000 0.275000 0
0.167857 0.275000 0
0.185714 0.275000 0
0.203571 0.275000 0
0.221429 0.275000 0
0.239286 0.275000 0
0.257143 0.275000 0
0.275000 0.275000 0
0.292857 0.275000 0
0.310714 0.275000 0
0.328571 0.275000 0
0.346429 0.275000 0
0.364286 0.275000 0
0.382143 0.275000 0
0.400000 0.275000 0
0.417857 0.275000 0
0.435714 0.275000 0
0.453571 0.275000 0
0.471429 0.275000 0
0.489286 0.275000 0
0.507143 0.275000 0
0.525000 0.275000 0
0.542857 0.275000 0
0.560714 0.275000 0
0.578571 0.275000 0
0.596429 0.275000 0
0.614286 0.275000 0
0.632143 0.275000 0
0.650000 0.275000 0
0.667857 0.275000 0
0.685714 0.275000 0
0.703571 0.275000 0
0.721429 0.275000 0
0.739286 0.275000 0
0.757143 0.275000 0
0.775000 0.275000 0
0.792857 0.275000 0
0.810714 0.275000 0
0.828571 0.275000 0
0.846429 0.275000 0
0.864286 0.275000 0
0.150000 0.292857 0
0.167857 0.292857 0
0.185714 0.292857 0
0.203571 0.292857 0
0.221429 0.292857 0
0.239286 0.292857 0
0.257143 0.292857 0
0.275000 0.292857 0
0.292857 0.292857 0
0.310714 0.292857 0
0.328571 0.292857 0
0.346429 0.292857 0
0.364286 0.292857 0
0.382143 0.292857 0
0.400000 0.292857 0
0.417857 0.292857 0
0.435714 0.292857 0
0.453571 0.292857 0
0.471429 0.292857 0
0.489286 0.292857 0
0.507143 0.292857 0
0.525000 0.292857 0
0.542857 0.292857 0
0.560714 0.292857 0
0.578571 0.292857 0
0.596429 0.292857 0
0.614286 0.292857 0
0.632143 0.292857 0
0.650000 0.292857 0
0.667857 0.292857 0
0.685714 0.292857 0
0.703571 0.292857 0
0.721429 0.292857 0
0.739286 0.292857 0
0.757143 0.292857 0
0.775000 0.292857 0
0.792857 0.292857 0
0.810714 0.292857 0
0.828571 0.292857 0
0.846429 0.292857 0
0.864286 0.292857 0
0.150000 0.310714 0
0.167857 0.310714 0
0.185714 0.310714 0
0.203571 0.310714 0
0.221429 0.310714 0
0.239286 0.310714 0
0.257143 0.310714 0
0.275000 0.310714 0
0.292857 0.310714 0
0.310714 0.310714 0
0.328571 0.310714 0
0.346429 0.310714 0
0.364286 0.310714 0
0.382143 0.310714 0
0.400000 0.310714 0
0.417857 0.310714 0
0.435714 0.310714 0
0.453571 0.310714 0
0.471429 0.310714 0
0.489286 0.310714 0
0.507143 0.310714 0
0.525000 0.310714 0
0.542857 0.310714 0
0.560714 0.310714 0
0.578571 0.310714 0
0.596429 0.310714 0
0.614286 0.310714 0
0.632143 0.310714 0
0.650000 0.310714 0
0.667857 0.310714 0
0.685714 0.310714 0
0.703571 0.310714 0
0.721429 0.310714 0
0.739286 0.310714 0
0.757143 0.310714 0
0.775000 0.310714 0
0.792857 0.310714 0
0.810714 0.310714 0
0.828571 0.310714 0
0.846429 0.310714 0
0.864286 0.310714 0
0.150000 0.328571 0
0.167857 0.328571 0
0.185714 0.328571 0
0.203571 0.328571 0
0.221429 0.328571 0
0.239286 0.328571 0
0.257143 0.328571 0
0.275000 0.328571 0
0.292857 0.328571 0
0.310714 0.328571 0
0.328571 0.328571 0
0.346429 0.328571 0
0.364286 0.328571 0
0.382143 0.328571 0
0.400000 0.328571 0
0.417857 0.328571 0
0.435714 0.328571 0
0.453571 0.328571 0
0.471429 0.328571 0
0.489286 0.328571 0
0.507143 0.328571 0
0.525000 0.328571 0
0.542857 0.328571 0
0.560714 0.328571 0
0.578571 0.328571 0
0.596429 0.328571 0
0.614286 0.328571 0
0.632143 0.328571 0
0.650000 0.328571 0
0.667857 0.328571 0
0.685714 0.328571 0
0.703571 0.328571 0
0.721429 0.328571 0
0.739286 0.328571 0
0.757143 0.328571 0
0.775000 0.328571 0
0.792857 0.328571 0
0.810714 0.328571 0
0.828571 0.328571 0
0.846429 0.328571 0
0.864286 0.328571 0
0.150000 0.346429 0
0.167857 0.346429 0
0.185714 0.346429 0
0.203571 0.346429 0
0.221429 0.346429 0
0.239286 0.346429 0
0.257143 0.346429 0
0.275000 0.346429 0
0.292857 0.346429 0
0.310714 0.346429 0
0.328571 0.346429 0
0.346429 0.346429 0
0.364286 0.346429 0
0.382143 0.346429 0
0.400000 0.346429 0
0.417857 0.346429 0
0.435714 0.346429 0
0.453571 0.346429 0
0.471429 0.346429 0
0.489286 0.346429 0
0.507143 0.346429 0
0.525000 0.346429 0
0.542857 0.346429 0
0.560714 0.346429 0
0.578571 0.346429 0
0.596429 0.346429 0
0.614286 0.346429 0
0.632143 0.346429 0
0.650000 0.346429 0
0.667857 0.346429 0
0.685714 0.346429 0
0.703571 0.346429 0
0.721429 0.346429 0
0.739286 0.346429 0
0.757143 0.346429 0
0.775000 0.346429 0
0.792857 0.346429 0
0.810714 0.346429 0
0.828571 0.346429 0
0.846429 0.346429 0
[...]
POINT_DATA 1681 

VECTORS velocity float
0.000000 0.000000 0
0.005505 0.000000 0
0.011607 0.000000 0
0.014123 0.000000 0
0.014324 0.000000 0
0.014002 0.000000 0
0.011938 0.000000 0
0.016587 0.000000 0
0.021224 0.000000 0
0.011512 0.000000 0
-0.005762 0.000000 0
-0.025248 0.000000 0
-0.045233 0.000000 0
-0.064650 0.000000 0
-0.082779 0.000000 0
-0.099189 0.000000 0
-0.113724 0.000000 0
-0.126242 0.000000 0
-0.136707 0.000000 0
-0.145114 0.000000 0
-0.151480 0.000000 0
-0.155826 0.000000 0
-0.158154 0.000000 0
-0.158487 0.000000 0
-0.156706 0.000000 0
-0.152680 0.000000 0
-0.146340 0.000000 0
-0.137602 0.000000 0
-0.126388 0.000000 0
-0.112642 0.000000 0
-0.096430 0.000000 0
-0.077822 0.000000 0
-0.057065 0.000000 0
-0.034631 0.000000 0
-0.011313 0.000000 0
0.011652 0.000000 0
0.027092 0.000000 0
0.030246 0.000000 0
0.022623 0.000000 0
0.010606 0.000000 0
0.000000 0.000000 0
0.000000 -0.005505 0
0.015035 -0.011607 0
0.028009 -0.008619 0
0.033436 -0.002717 0
0.033627 0.000122 0
0.033904 0.002386 0
0.025101 -0.002585 0
0.006828 -0.009286 0
-0.016842 0.005074 0
-0.047770 0.026986 0
-0.084926 0.036761 0
-0.124188 0.039470 0
-0.163041 0.039402 0
-0.199795 0.037547 0
-0.233382 0.034539 0
-0.263193 0.030945 0
-0.288962 0.027053 0
-0.310570 0.022983 0
-0.328015 0.018872 0
-0.341351 0.014774 0
-0.350651 0.010712 0
-0.355979 0.006674 0
-0.357365 0.002661 0
-0.354799 -0.001449 0
-0.348214 -0.005807 0
-0.337528 -0.010365 0
-0.322598 -0.015078 0
-0.303269 -0.019952 0
-0.279393 -0.024960 0
-0.250869 -0.029958 0
-0.217720 -0.034820 0
-0.180111 -0.039366 0
-0.138522 -0.043191 0
-0.093952 -0.045751 0
-0.048264 -0.046282 0
-0.004820 -0.038405 0
0.030366 -0.018594 0
0.047073 0.004469 0
0.036511 0.019640 0
0.017077 0.022623 0
0.000000 0.010606 0
0.000000 -0.015035 0
0.018266 -0.028009 0
0.029203 -0.018401 0
0.032925 -0.005618 0
0.022036 -0.000468 0
0.001677 0.008526 0
-0.026469 0.027076 0
-0.070892 0.041943 0
-0.121729 0.054598 0
-0.163406 0.068084 0
-0.200997 0.076418 0
-0.236727 0.078115 0
-0.269868 0.075607 0
-0.299750 0.070341 0
-0.326009 0.063398 0
-0.348489 0.055581 0
-0.367105 0.047376 0
-0.381948 0.039052 0
-0.393117 0.030781 0
-0.400728 0.022636 0
-0.404875 0.014628 0
-0.405625 0.006715 0
-0.403006 -0.001180 0
-0.396961 -0.009151 0
-0.387540 -0.017271 0
-0.374723 -0.025616 0
-0.358379 -0.034259 0
-0.338367 -0.043205 0
-0.314545 -0.052400 0
-0.286818 -0.061673 0
-0.255102 -0.070758 0
-0.219554 -0.079198 0
-0.180581 -0.086159 0
-0.139084 -0.090258 0
-0.096815 -0.089132 0
-0.056916 -0.078631 0
-0.019306 -0.051893 0
0.010359 -0.006145 0
0.016804 0.029997 0
0.007566 0.036511 0
0.000000 0.017077 0
0.000000 -0.023771 0
0.011520 -0.040810 0
0.010758 -0.023277 0
-0.005497 0.004449 0
-0.032096 0.031370 0
-0.072184 0.050891 0
-0.113887 0.069984 0
-0.154834 0.085974 0
-0.196055 0.097589 0
-0.233316 0.106254 0
-0.265278 0.110081 0
-0.293419 0.108341 0
-0.318138 0.102425 0
-0.339614 0.093687 0
-0.357988 0.083278 0
-0.373382 0.072041 0
-0.385880 0.060511 0
-0.395598 0.048995 0
-0.402624 0.037652 0
-0.407025 0.026532 0
-0.408841 0.015610 0
-0.408078 0.004805 0
-0.404718 -0.006003 0
-0.398725 -0.016915 0
-0.390052 -0.028045 0
-0.378584 -0.039526 0
-0.364206 -0.051434 0
-0.346788 -0.063786 0
-0.326201 -0.076509 0
-0.302339 -0.089401 0
-0.275132 -0.102084 0
-0.244653 -0.113887 0
-0.211154 -0.123661 0
-0.175180 -0.129517 0
-0.137676 -0.128451 0
-0.099994 -0.115913 0
-0.063480 -0.085869 0
-0.028471 -0.031642 0
0.000682 0.022432 0
-0.000642 0.039427 0
0.000000 0.018173 0
0.000000 -0.026554 0
-0.007341 -0.038767 0
-0.029017 -0.001385 0
-0.061368 0.037236 0
-0.094339 0.066220 0
-0.131537 0.090318 0
-0.169855 0.109725 0
-0.206087 0.124110 0
-0.240061 0.133080 0
-0.270163 0.137308 0
-0.295529 0.136521 0
-0.316976 0.130974 0
-0.335174 0.121802 0
-0.350628 0.110191 0
-0.363678 0.097166 0
-0.374530 0.083473 0
-0.383291 0.069593 0
-0.390032 0.055796 0
-0.394785 0.042208 0
-0.397557 0.028853 0
-0.398341 0.015680 0
-0.397108 0.002592 0
-0.393818 -0.010532 0
-0.388466 -0.023817 0
-0.380955 -0.037412 0
-0.371197 -0.051462 0
-0.359088 -0.066054 0
-0.344515 -0.081210 0
-0.327367 -0.096849 0
-0.307546 -0.112742 0
-0.284978 -0.128445 0
-0.259651 -0.143176 0
-0.231626 -0.155632 0
-0.201047 -0.163736 0
-0.168126 -0.164317 0
-0.133056 -0.152826 0
-0.095826 -0.123417 0
-0.056281 -0.070307 0
-0.014579 0.002167 0
-0.004298 0.037193 0
0.000000 0.016435 0
0.000000 -0.016430 0
-0.028929 -0.011793 0
-0.064884 0.030750 0
-0.098148 0.069771 0
-0.133146 0.101538 0
-0.168267 0.126407 0
-0.202238 0.144534 0
-0.233324 0.156180 0
-0.261089 0.161665 0
-0.284932 0.161722 0
-0.304720 0.156894 0
-0.321089 0.147986 0
-0.334690 0.136078 0
-0.346045 0.122192 0
-0.355499 0.107179 0
-0.363251 0.091654 0
-0.369401 0.076014 0
-0.374002 0.060488 0
-0.377076 0.045177 0
-0.378632 0.030088 0
-0.378664 0.015160 0
-0.377156 0.000282 0
-0.374085 -0.014645 0
-0.369430 -0.029778 0
-0.363108 -0.045314 0
-0.355039 -0.061394 0
-0.345130 -0.078117 0
-0.333284 -0.095506 0
-0.319402 -0.113477 0
-0.303393 -0.131790 0
-0.285171 -0.149979 0
-0.264656 -0.167240 0
-0.241750 -0.182265 0
-0.216289 -0.193017 0
-0.187967 -0.196443 0
-0.156244 -0.188214 0
-0.120320 -0.162643 0
-0.079442 -0.112889 0
-0.034336 -0.029551 0
0.003387 0.024848 0
0.000000 0.013875 0
0.000000 0.002375 0
-0.040662 0.026116 0
-0.080794 0.067835 0
-0.118056 0.105498 0
-0.153511 0.136338 0
-0.186583 0.159409 0
-0.216737 0.174782 0
-0.243282 0.182962 0
-0.266075 0.184688 0
-0.285093 0.180938 0
-0.300621 0.172678 0
-0.313241 0.160944 0
-0.323515 0.146758 0
-0.331890 0.131001 0
-0.338670 0.114372 0
-0.344044 0.097375 0
-0.348128 0.080343 0
-0.350996 0.063471 0
-0.352699 0.046839 0
-0.353271 0.030441 0
-0.352727 0.014205 0
-0.351072 -0.001987 0
-0.348300 -0.018259 0
-0.344354 -0.034794 0
-0.339175 -0.051803 0
-0.332682 -0.069439 0
-0.324786 -0.087809 0
-0.315396 -0.106938 0
-0.304418 -0.126740 0
-0.291762 -0.146974 0
-0.277335 -0.167182 0
-0.261016 -0.186596 0
-0.242619 -0.203999 0
-0.221806 -0.217519 0
-0.197986 -0.224362 0
-0.170206 -0.220474 0
-0.137164 -0.200219 0
-0.097532 -0.156291 0
-0.050617 -0.080661 0
0.005152 0.002857 0
0.000000 0.019822 0
0.000000 0.024232 0
-0.044036 0.069001 0
-0.086855 0.108143 0
-0.125594 0.142489 0
-0.160492 0.170065 0
-0.191440 0.189632 0
-0.218368 0.201233 0
-0.241214 0.205518 0
-0.260180 0.203477 0
-0.275591 0.196269 0
-0.287919 0.185041 0
-0.297708 0.170880 0
-0.305440 0.154727 0
-0.311495 0.137348 0
-0.316152 0.119333 0
-0.319609 0.101111 0
-0.322012 0.082966 0
-0.323473 0.065060 0
-0.324075 0.047451 0
-0.323879 0.030115 0
-0.322924 0.012962 0
-0.321226 -0.004145 0
-0.318781 -0.021363 0
-0.315532 -0.038903 0
-0.311418 -0.056987 0
-0.306353 -0.075782 0
-0.300244 -0.095403 0
-0.292993 -0.115875 0
-0.284502 -0.137111 0
-0.274674 -0.158873 0
-0.263407 -0.180725 0
-0.250567 -0.201955 0
-0.235941 -0.221475 0
-0.219146 -0.237650 0
-0.199506 -0.248044 0
-0.175922 -0.249035 0
-0.146821 -0.235317 0
-0.110433 -0.199435 0
-0.065824 -0.132235 0
-0.015730 -0.025769 0
0.000000 0.019027 0
0.000000 0.046411 0
-0.043544 0.112972 0
-0.086633 0.149392 0
-0.124897 0.179135 0
-0.158359 0.202184 0
-0.187064 0.217286 0
-0.211202 0.224556 0
-0.231059 0.224774 0
-0.247074 0.219065 0
-0.259749 0.208677 0
-0.269621 0.194795 0
-0.277198 0.178465 0
-0.282905 0.160545 0
-0.287088 0.141713 0
-0.290021 0.122486 0
-0.291921 0.103236 0
-0.292966 0.084208 0
-0.293298 0.065534 0
-0.293032 0.047245 0
-0.292254 0.029289 0
-0.291021 0.011551 0
-0.289360 -0.006130 0
-0.287268 -0.023952 0
-0.284691 -0.042157 0
-0.281557 -0.060982 0
-0.277773 -0.080613 0
-0.273233 -0.101169 0
-0.267823 -0.122681 0
-0.261430 -0.145059 0
-0.253942 -0.168069 0
-0.245244 -0.191289 0
-0.235199 -0.214062 0
-0.223602 -0.235420 0
-0.210107 -0.253953 0
-0.194108 -0.267586 0
-0.174593 -0.273160 0
-0.150054 -0.265708 0
-0.118692 -0.237288 0
-0.079519 -0.175364 0
-0.035684 -0.062967 0
0.000000 0.004092 0
0.000000 0.067776 0
-0.041218 0.155634 0
-0.082571 0.189496 0
-0.119005 0.214215 0
-0.150357 0.232232 0
-0.176693 0.242475 0
-0.198321 0.245228 0
-0.215690 0.241390 0
-0.229353 0.232167 0
-0.239877 0.218816 0
-0.247801 0.202490 0
-0.253595 0.184163 0
-0.257655 0.164618 0
-0.260310 0.144464 0
-0.261840 0.124166 0
-0.262479 0.104056 0
-0.262431 0.084343 0
-0.261867 0.065126 0
-0.260927 0.046408 0
-0.259718 0.028104 0
-0.258313 0.010067 0
-0.256749 -0.007897 0
-0.255026 -0.026032 0
-0.253083 -0.044615 0
-0.250842 -0.063905 0
-0.248197 -0.084107 0
-0.245024 -0.105353 0
-0.241191 -0.127677 0
-0.236563 -0.150992 0
-0.231007 -0.175059 0
-0.224391 -0.199468 0
-0.216569 -0.223597 0
-0.207353 -0.246567 0
-0.196454 -0.267145 0
-0.183385 -0.283558 0
-0.167316 -0.293089 0
-0.146904 -0.291217 0
-0.120259 -0.269970 0
-0.085485 -0.215243 0
-0.042673 -0.105288 0
0.000000 -0.016657 0
0.000000 0.087630 0
-0.037777 0.195543 0
-0.076236 0.227179 0
-0.110002 0.246921 0
-0.138795 0.259872 0
-0.162668 0.265249 0
-0.181959 0.263553 0
-0.197168 0.255806 0
-0.208871 0.243252 0
-0.217630 0.227124 0
-0.223956 0.208513 0
-0.228287 0.188319 0
-0.230994 0.167260 0
-0.232402 0.145898 0
-0.232794 0.124654 0
-0.232420 0.103828 0
-0.231505 0.083596 0
-0.230239 0.064029 0
-0.228786 0.045095 0
-0.227270 0.026675 0
-0.225780 0.008583 0
-0.224358 -0.009417 0
-0.223002 -0.027618 0
-0.221647 -0.046341 0
-0.220204 -0.065869 0
-0.218554 -0.086431 0
-0.216556 -0.108175 0
-0.214057 -0.131142 0
-0.210903 -0.155244 0
-0.206939 -0.180242 0
-0.202014 -0.205727 0
-0.195973 -0.231100 0
-0.188635 -0.255535 0
-0.179756 -0.277921 0
-0.168956 -0.296723 0
-0.155586 -0.309641 0
-0.138497 -0.312766 0
-0.115773 -0.298707 0
-0.084773 -0.252951 0
-0.043738 -0.148452 0
0.000000 -0.038581 0
0.000000 0.105553 0
-0.033692 0.231869 0
-0.068633 0.261721 0
-0.099267 0.276775 0
-0.125248 0.284899 0
-0.146612 0.285639 0
-0.163682 0.279728 0
-0.176945 0.268302 0
-0.186944 0.252628 0
-0.194203 0.233902 0
-0.199188 0.213147 0
-0.202304 0.191202 0
-0.203903 0.168733 0
-0.204301 0.146263 0
-0.203784 0.124185 0
-0.202614 0.102767 0
-0.201025 0.082162 0
-0.199230 0.062407 0
-0.197405 0.043439 0
-0.195693 0.025099 0
-0.194189 0.007155 0
-0.192941 -0.010676 0
-0.191938 -0.028743 0
-0.191112 -0.047412 0
-0.190363 -0.066998 0
-0.189557 -0.087755 0
-0.188540 -0.109849 0
-0.187143 -0.133330 0
-0.185194 -0.158110 0
-0.182524 -0.183948 0
-0.178969 -0.210433 0
-0.174364 -0.236976 0
-0.168530 -0.262785 0
-0.161250 -0.286824 0
-0.152220 -0.307729 0
-0.140942 -0.323548 0
-0.126500 -0.331030 0
-0.107158 -0.323695 0
-0.080058 -0.287278 0
-0.042437 -0.190061 0
0.000000 -0.060395 0
0.000000 0.121322 0
-0.029282 0.264176 0
-0.060408 0.292754 0
-0.087694 0.303536 0
-0.110756 0.307217 0
-0.129613 0.303683 0
-0.144556 0.293886 0
-0.156023 0.279068 0
-0.164500 0.260510 0
-0.170454 0.239369 0
-0.174300 0.216614 0
-0.176409 0.193034 0
-0.177110 0.169258 0
-0.176710 0.145779 0
-0.175491 0.122967 0
-0.173718 0.101069 0
-0.171638 0.080212 0
-0.169470 0.060409 0
-0.167407 0.041558 0
-0.165598 0.023460 0
-0.164144 0.005831 0
-0.163090 -0.011668 0
-0.162418 -0.029447 0
-0.162051 -0.047916 0
-0.161879 -0.067424 0
-0.161759 -0.088253 0
-0.161524 -0.110589 0
-0.160996 -0.134488 0
-0.159995 -0.159863 0
-0.158344 -0.186467 0
-0.155876 -0.213887 0
-0.152425 -0.241538 0
-0.147815 -0.268648 0
-0.141845 -0.294231 0
-0.134257 -0.317032 0
-0.124670 -0.335360 0
-0.112395 -0.346550 0
-0.096015 -0.345149 0
-0.072819 -0.317672 0
-0.039437 -0.228509 0
0.000000 -0.081018 0
0.000000 0.134835 0
-0.024749 0.292278 0
-0.051964 0.320133 0
-0.075844 0.327122 0
-0.095977 0.326817 0
-0.112373 0.319439 0
-0.125279 0.306138 0
-0.135071 0.288246 0
-0.142170 0.267059 0
-0.146976 0.243701 0
-0.149856 0.219102 0
-0.151141 0.194012 0
-0.151138 0.169034 0
-0.150135 0.144644 0
-0.148408 0.121193 0
-0.146220 0.098914 0
-0.143821 0.077914 0
-0.141435 0.058176 0
-0.139258 0.039566 0
-0.137445 0.021836 0
-0.136095 0.004647 0
-0.135247 -0.012402 0
-0.134870 -0.029782 0
-0.134881 -0.047951 0
-0.135160 -0.067290 0
-0.135556 -0.088110 0
-0.135899 -0.110612 0
-0.136008 -0.134859 0
-0.135704 -0.160762 0
-0.134815 -0.188066 0
-0.133180 -0.216352 0
-0.130641 -0.245037 0
-0.127034 -0.273365 0
-0.122173 -0.300383 0
-0.115833 -0.324904 0
-0.107716 -0.345410 0
-0.097325 -0.359685 0
-0.083605 -0.363271 0
-0.064214 -0.343856 0
-0.035485 -0.262879 0
0.000000 -0.099832 0
0.000000 0.146071 0
-0.020213 0.316140 0
-0.043533 0.343849 0
-0.064047 0.347550 0
-0.081308 0.343746 0
-0.095318 0.332984 0
-0.106280 0.316585 0
-0.114509 0.295959 0
-0.120354 0.272414 0
-0.124154 0.247055 0
-0.126225 0.220779 0
-0.126858 0.194316 0
-0.126332 0.168251 0
-0.124915 0.143049 0
-0.122870 0.119052 0
-0.120452 0.096481 0
-0.117905 0.075427 0
-0.115450 0.055847 0
-0.113281 0.037568 0
-0.111548 0.020296 0
-0.110344 0.003633 0
-0.109700 -0.012893 0
-0.109571 -0.029813 0
-0.109865 -0.047627 0
-0.110456 -0.066749 0
-0.111192 -0.087514 0
-0.111905 -0.110136 0
-0.112422 -0.134683 0
-0.112573 -0.161056 0
-0.112204 -0.188991 0
-0.111170 -0.218062 0
-0.109332 -0.247684 0
-0.106546 -0.277116 0
-0.102648 -0.305432 0
-0.097445 -0.331489 0
-0.090695 -0.353868 0
-0.082052 -0.370660 0
-0.070786 -0.378261 0
-0.055027 -0.365792 0
-0.031061 -0.292723 0
0.000000 -0.116503 0
0.000000 0.155048 0
-0.015728 0.335810 0
-0.035233 0.363967 0
-0.052475 0.364898 0
-0.066957 0.358088 0
-0.078676 0.344411 0
-0.087796 0.325329 0
-0.094568 0.302320 0
-0.099278 0.276704 0
-0.102205 0.249572 0
-0.103614 0.221806 0
-0.103759 0.194119 0
-0.102886 0.167092 0
-0.101240 0.141182 0
-0.099065 0.116731 0
-0.096600 0.093948 0
-0.094074 0.072911 0
-0.091697 0.053553 0
-0.089649 0.035663 0
-0.088067 0.018899 0
-0.087038 0.002800 0
-0.086581 -0.013175 0
-0.086637 -0.029617 0
-0.087107 -0.047066 0
-0.087863 -0.065963 0
-0.088756 -0.086661 0
-0.089631 -0.109382 0
-0.090331 -0.134191 0
-0.090710 -0.160980 0
-0.090639 -0.189470 0
-0.089998 -0.219224 0
-0.088679 -0.249661 0
-0.086564 -0.280048 0
-0.083520 -0.309484 0
-0.079384 -0.336857 0
-0.073966 -0.360803 0
-0.067023 -0.379594 0
-0.058086 -0.390297 0
-0.045760 -0.383581 0
-0.026484 -0.317906 0
0.000000 -0.130893 0
0.000000 0.161799 0
-0.011314 0.351373 0
-0.027107 0.380595 0
-0.041191 0.379273 0
-0.053003 0.369948 0
-0.062536 0.353823 0
-0.069915 0.332477 0
-0.075336 0.307442 0
-0.079025 0.280051 0
-0.081204 0.251390 0
-0.082093 0.222333 0
-0.081905 0.193588 0
-0.080855 0.165733 0
-0.079158 0.139228 0
-0.077034 0.114412 0
-0.074700 0.091490 0
-0.072360 0.070524 0
-0.070200 0.051422 0
-0.068375 0.033939 0
-0.067004 0.017686 0
-0.066161 0.002147 0
-0.065856 -0.013295 0
-0.066020 -0.029287 0
-0.066548 -0.046401 0
-0.067313 -0.065100 0
-0.068181 -0.085746 0
-0.069016 -0.108562 0
-0.069689 -0.133603 0
-0.070088 -0.160749 0
-0.070117 -0.189703 0
-0.069695 -0.220021 0
-0.068742 -0.251118 0
-0.067178 -0.282276 0
-0.064902 -0.312613 0
-0.061791 -0.341043 0
-0.057697 -0.366229 0
-0.052454 -0.386540 0
-0.045777 -0.399523 0
-0.036698 -0.397393 0
-0.021942 -0.338483 0
0.000000 -0.142987 0
0.000000 0.166362 0
-0.006966 0.362918 0
-0.019144 0.393844 0
-0.030185 0.390793 0
-0.039437 0.379433 0
-0.046886 0.361323 0
-0.052623 0.338130 0
-0.056794 0.311430 0
-0.059567 0.282572 0
-0.061116 0.252640 0
-0.061615 0.222506 0
-0.061238 0.192881 0
-0.060166 0.164345 0
-0.058582 0.137362 0
-0.056677 0.112272 0
-0.054635 0.089274 0
-0.052630 0.068411 0
-0.050811 0.049568 0
-0.049299 0.032468 0
-0.048184 0.016684 0
-0.047523 0.001652 0
-0.047322 -0.013316 0
-0.047505 -0.028926 0
-0.047964 -0.045772 0
-0.048584 -0.064330 0
-0.049250 -0.084959 0
-0.049858 -0.107874 0
-0.050318 -0.133118 0
-0.050559 -0.160551 0
-0.050527 -0.189863 0
-0.050180 -0.220600 0
-0.049478 -0.252177 0
-0.048373 -0.283889 0
-0.046806 -0.314872 0
-0.044692 -0.344061 0
-0.041930 -0.370139 0
-0.038406 -0.391514 0
-0.033960 -0.406053 0
-0.027966 -0.407416 0
-0.017526 -0.354604 0
0.000000 -0.152835 0
0.000000 0.168765 0
-0.002692 0.370517 0
-0.011294 0.403814 0
-0.019393 0.399566 0
-0.026183 0.386649 0
-0.031643 0.367009 0
-0.035828 0.342384 0
-0.038838 0.314385 0
-0.040791 0.284373 0
-0.041813 0.253438 0
-0.042036 0.222455 0
-0.041594 0.192139 0
-0.040633 0.163077 0
-0.039302 0.135740 0
-0.037755 0.110465 0
-0.036141 0.087444 0
-0.034591 0.066700 0
-0.033211 0.048091 0
-0.032081 0.031311 0
-0.031253 0.015909 0
-0.030763 0.001285 0
-0.030608 -0.013312 0
-0.030715 -0.028645 0
-0.030977 -0.045322 0
-0.031303 -0.063814 0
-0.031609 -0.084472 0
-0.031833 -0.107494 0
-0.031929 -0.132902 0
-0.031875 -0.160539 0
-0.031663 -0.190082 0
-0.031292 -0.221071 0
-0.030760 -0.252925 0
-0.030058 -0.284948 0
-0.029163 -0.316294 0
-0.028035 -0.345919 0
-0.026615 -0.372515 0
-0.024839 -0.394510 0
-0.022619 -0.409963 0
-0.019586 -0.413827 0
-0.013265 -0.366450 0
0.000000 -0.160513 0
0.000000 0.169054 0
0.001452 0.374212 0
-0.003465 0.410545 0
-0.008704 0.405682 0
-0.013128 0.391683 0
-0.016675 0.370968 0
-0.019383 0.345324 0
-0.021308 0.316393 0
-0.022519 0.285547 0
-0.023098 0.253885 0
-0.023134 0.222287 0
-0.022725 0.191478 0
-0.021977 0.162052 0
-0.021001 0.134484 0
-0.019914 0.109111 0
-0.018819 0.086109 0
-0.017804 0.065482 0
-0.016926 0.047058 0
-0.016217 0.030510 0
-0.015691 0.015367 0
-0.015353 0.001007 0
-0.015187 -0.013364 0
-0.015118 -0.028557 0
-0.015063 -0.045184 0
-0.014967 -0.063697 0
-0.014791 -0.084429 0
-0.014516 -0.107555 0
-0.014148 -0.133076 0
-0.013716 -0.160817 0
-0.013255 -0.190447 0
-0.012806 -0.221503 0
-0.012406 -0.253412 0
-0.012082 -0.285485 0
-0.011849 -0.316895 0
-0.011709 -0.346609 0
-0.011650 -0.373335 0
-0.011648 -0.395510 0
-0.011669 -0.411305 0
-0.011510 -0.416771 0
-0.009145 -0.374190 0
0.000000 -0.166100 0
0.000000 0.167313 0
0.005497 0.373982 0
0.004396 0.413970 0
0.001993 0.409230 0
-0.000118 0.394620 0
-0.001813 0.373264 0
-0.003103 0.347016 0
-0.003999 0.317521 0
-0.004526 0.286164 0
-0.004720 0.254054 0
-0.004631 0.222082 0
-0.004315 0.190981 0
-0.003841 0.161353 0
-0.003282 0.133677 0
-0.002708 0.108283 0
-0.002180 0.085334 0
-0.001734 0.064807 0
-0.001381 0.046504 0
-0.001104 0.030076 0
-0.000871 0.015045 0
-0.000649 0.000781 0
-0.000389 -0.013547 0
-0.000040 -0.028769 0
0.000424 -0.045473 0
0.001024 -0.064086 0
0.001754 -0.084924 0
0.002581 -0.108136 0
0.003447 -0.133702 0
0.004281 -0.161433 0
0.005002 -0.190991 0
0.005532 -0.221920 0
0.005798 -0.253650 0
0.005736 -0.285505 0
0.005293 -0.316666 0
0.004425 -0.346117 0
0.003101 -0.372576 0
0.001302 -0.394491 0
-0.000980 -0.410101 0
-0.003649 -0.416351 0
-0.005123 -0.377960 0
0.000000 -0.169658 0
0.000000 0.163557 0
0.009558 0.369816 0
0.012344 0.414049 0
0.012809 0.410196 0
0.012994 0.395490 0
0.013113 0.373953 0
0.013207 0.347510 0
0.013306 0.317816 0
0.013432 0.286269 0
0.013593 0.253990 0
0.013783 0.221882 0
0.013981 0.190688 0
0.014161 0.161019 0
0.014291 0.133351 0
0.014348 0.108009 0
0.014320 0.085135 0
0.014220 0.064683 0
0.014088 0.046428 0
0.013980 0.030001 0
0.013972 0.014912 0
0.014142 0.000525 0
0.014566 -0.013972 0
0.015250 -0.029371 0
0.016165 -0.046249 0
0.017291 -0.065027 0
0.018577 -0.085985 0
0.019942 -0.109248 0
0.021284 -0.134777 0
0.022488 -0.162372 0
0.023435 -0.191697 0
0.024009 -0.222298 0
0.024102 -0.253616 0
0.023615 -0.284980 0
0.022455 -0.315583 0
0.020538 -0.344417 0
0.017789 -0.370212 0
0.014148 -0.391429 0
0.009575 -0.406354 0
0.004114 -0.412628 0
-0.001121 -0.377839 0
0.000000 -0.171222 0
0.000000 0.157755 0
0.013712 0.361638 0
0.020498 0.410720 0
0.023879 0.408580 0
0.026334 0.394316 0
0.028246 0.373051 0
0.029708 0.346823 0
0.030792 0.317296 0
0.031569 0.285877 0
0.032090 0.253704 0
0.032391 0.221694 0
0.032493 0.190602 0
0.032409 0.161043 0
0.032155 0.133490 0
0.031754 0.108255 0
0.031247 0.085461 0
0.030696 0.065039 0
0.030181 0.046744 0
0.029798 0.030191 0
0.029652 0.014883 0
0.029841 0.000187 0
0.030446 -0.014655 0
0.031448 -0.030368 0
0.032792 -0.047514 0
0.034406 -0.066498 0
0.036194 -0.087575 0
0.038032 -0.110844 0
0.039778 -0.136248 0
0.041278 -0.163583 0
0.042375 -0.192512 0
0.042921 -0.222587 0
0.042773 -0.253256 0
0.041793 -0.283858 0
0.039852 -0.313590 0
0.036823 -0.341452 0
0.032585 -0.366185 0