# vtk DataFile Version 2.0
generated by CFD-lab course output (written by Tobias Neckel) 
ASCII

DATASET STRUCTURED_GRID
DIMENSIONS  41 41 1 
POINTS 1681 float

0.150000 0.150000 0
0.167857 0.150000 0
0.185714 0.150000 0
0.203571 0.150000 0
0.221429 0.150000 0
0.239286 0.150000 0
0.257143 0.150000 0
0.275000 0.150000 0
0.292857 0.150000 0
0.310714 0.150000 0
0.328571 0.150000 0
0.346429 0.150000 0
0.364286 0.150000 0
0.382143 0.150000 0
0.400000 0.150000 0
0.417857 0.150000 0
0.435714 0.150000 0
0.453571 0.150000 0
0.471429 0.150000 0
0.489286 0.150000 0
0.507143 0.150000 0
0.525000 0.150000 0
0.542857 0.150000 0
0.560714 0.150000 0
0.578571 0.150000 0
0.596429 0.150000 0
0.614286 0.150000 0
0.632143 0.150000 0
0.650000 0.150000 0
0.667857 0.150000 0
0.685714 0.150000 0
0.703571 0.150000 0
0.721429 0.150000 0
0.739286 0.150000 0
0.757143 0.150000 0
0.775000 0.150000 0
0.792857 0.150000 0
0.810714 0.150000 0
0.828571 0.150000 0
0.846429 0.150000 0
0.864286 0.150000 0
0.150000 0.167857 0
0.167857 0.167857 0
0.185714 0.167857 0
0.203571 0.167857 0
0.221429 0.167857 0
0.239286 0.167857 0
0.257143 0.167857 0
0.275000 0.167857 0
0.292857 0.167857 0
0.310714 0.167857 0
0.328571 0.167857 0
0.346429 0.167857 0
0.364286 0.167857 0
0.382143 0.167857 0
0.400000 0.167857 0
0.417857 0.167857 0
0.435714 0.167857 0
0.453571 0.167857 0
0.471429 0.167857 0
0.489286 0.167857 0
0.507143 0.167857 0
0.525000 0.167857 0
0.542857 0.167857 0
0.560714 0.167857 0
0.578571 0.167857 0
0.596429 0.167857 0
0.614286 0.167857 0
0.632143 0.167857 0
0.650000 0.167857 0
0.667857 0.167857 0
0.685714 0.167857 0
0.703571 0.167857 0
0.721429 0.167857 0
0.739286 0.167857 0
0.757143 0.167857 0
0.775000 0.167857 0
0.792857 0.167857 0
0.810714 0.167857 0
0.828571 0.167857 0
0.846429 0.167857 0
0.864286 0.167857 0
0.150000 0.185714 0
0.167857 0.185714 0
0.185714 0.185714 0
0.203571 0.185714 0
0.221429 0.185714 0
0.239286 0.185714 0
0.257143 0.185714 0
0.275000 0.185714 0
0.292857 0.185714 0
0.310714 0.185714 0
0.328571 0.185714 0
0.346429 0.185714 0
0.364286 0.185714 0
0.382143 0.185714 0
0.400000 0.185714 0
0.417857 0.185714 0
0.435714 0.185714 0
0.453571 0.185714 0
0.471429 0.185714 0
0.489286 0.185714 0
0.507143 0.185714 0
0.525000 0.185714 0
0.542857 0.185714 0
0.560714 0.185714 0
0.578571 0.185714 0
0.596429 0.185714 0
0.614286 0.185714 0
0.632143 0.185714 0
0.650000 0.185714 0
0.667857 0.185714 0
0.685714 0.185714 0
0.703571 0.185714 0
0.721429 0.185714 0
0.739286 0.185714 0
0.757143 0.185714 0
0.775000 0.185714 0
0.792857 0.185714 0
0.810714 0.185714 0
0.828571 0.185714 0
0.846429 0.185714 0
0.864286 0.185714 0
0.150000 0.203571 0
0.167857 0.203571 0
0.185714 0.203571 0
0.203571 0.203571 0
0.221429 0.203571 0
0.239286 0.203571 0
0.257143 0.203571 0
0.275000 0.203571 0
0.292857 0.203571 0
0.310714 0.203571 0
0.328571 0.203571 0
0.346429 0.203571 0
0.364286 0.203571 0
0.382143 0.203571 0
0.400000 0.203571 0
0.417857 0.203571 0
0.435714 0.203571 0
0.453571 0.203571 0
0.471429 0.203571 0
0.489286 0.203571 0
0.507143 0.203571 0
0.525000 0.203571 0
0.542857 0.203571 0
0.560714 0.203571 0
0.578571 0.203571 0
0.596429 0.203571 0
0.614286 0.203571 0
0.632143 0.203571 0
0.650000 0.203571 0
0.667857 0.203571 0
0.685714 0.203571 0
0.703571 0.203571 0
0.721429 0.203571 0
0.739286 0.203571 0
0.757143 0.203571 0
0.775000 0.203571 0
0.792857 0.203571 0
0.810714 0.203571 0
0.828571 0.203571 0
0.846429 0.203571 0
0.864286 0.203571 0
0.150000 0.221429 0
0.167857 0.221429 0
0.185714 0.221429 0
0.203571 0.221429 0
0.221429 0.221429 0
0.239286 0.221429 0
0.257143 0.221429 0
0.275000 0.221429 0
0.292857 0.221429 0
0.310714 0.221429 0
0.328571 0.221429 0
0.346429 0.221429 0
0.364286 0.221429 0
0.382143 0.221429 0
0.400000 0.221429 0
0.417857 0.221429 0
0.435714 0.221429 0
0.453571 0.221429 0
0.471429 0.221429 0
0.489286 0.221429 0
0.507143 0.221429 0
0.525000 0.221429 0
0.542857 0.221429 0
0.560714 0.221429 0
0.578571 0.221429 0
0.596429 0.221429 0
0.614286 0.221429 0
0.632143 0.221429 0
0.650000 0.221429 0
0.667857 0.221429 0
0.685714 0.221429 0
0.703571 0.221429 0
0.721429 0.221429 0
0.739286 0.221429 0
0.757143 0.221429 0
0.775000 0.221429 0
0.792857 0.221429 0
0.810714 0.221429 0
0.828571 0.221429 0
0.846429 0.221429 0
0.864286 0.221429 0
0.150000 0.239286 0
0.167857 0.239286 0
0.185714 0.239286 0
0.203571 0.239286 0
0.221429 0.239286 0
0.239286 0.239286 0
0.257143 0.239286 0
0.275000 0.239286 0
0.292857 0.239286 0
0.310714 0.239286 0
0.328571 0.239286 0
0.346429 0.239286 0
0.364286 0.239286 0
0.382143 0.239286 0
0.400000 0.239286 0
0.417857 0.239286 0
0.435714 0.239286 0
0.453571 0.239286 0
0.471429 0.239286 0
0.489286 0.239286 0
0.507143 0.239286 0
0.525000 0.239286 0
0.542857 0.239286 0
0.560714 0.239286 0
0.578571 0.239286 0
0.596429 0.239286 0
0.614286 0.239286 0
0.632143 0.239286 0
0.650000 0.239286 0
0.667857 0.239286 0
0.685714 0.239286 0
0.703571 0.239286 0
0.721429 0.239286 0
0.739286 0.239286 0
0.757143 0.239286 0
0.775000 0.239286 0
0.792857 0.239286 0
0.810714 0.239286 0
0.828571 0.239286 0
0.846429 0.239286 0
0.864286 0.239286 0
0.150000 0.257143 0
0.167857 0.257143 0
0.185714 0.257143 0
0.203571 0.257143 0
0.221429 0.257143 0
0.239286 0.257143 0
0.257143 0.257143 0
0.275000 0.257143 0
0.292857 0.257143 0
0.310714 0.257143 0
0.328571 0.257143 0
0.346429 0.257143 0
0.364286 0.257143 0
0.382143 0.257143 0
0.400000 0.257143 0
0.417857 0.257143 0
0.435714 0.257143 0
0.453571 0.257143 0
0.471429 0.257143 0
0.489286 0.257143 0
0.507143 0.257143 0
0.525000 0.257143 0
0.542857 0.257143 0
0.560714 0.257143 0
0.578571 0.257143 0
0.596429 0.257143 0
0.614286 0.257143 0
0.632143 0.257143 0
0.650000 0.257143 0
0.667857 0.257143 0
0.685714 0.257143 0
0.703571 0.257143 0
0.721429 0.257143 0
0.739286 0.257143 0
0.757143 0.257143 0
0.775000 0.257143 0
0.792857 0.257143 0
0.810714 0.257143 0
0.828571 0.257143 0
0.846429 0.257143 0
0.864286 0.257143 0
0.150000 0.275000 0
0.167857 0.275000 0
0.185714 0.275000 0
0.203571 0.275000 0
0.221429 0.275000 0
0.239286 0.275000 0
0.257143 0.275000 0
0.275000 0.275000 0
0.292857 0.275000 0
0.310714 0.275000 0
0.328571 0.275000 0
0.346429 0.275000 0
0.364286 0.275000 0
0.382143 0.275000 0
0.400000 0.275000 0
0.417857 0.275000 0
0.435714 0.275000 0
0.453571 0.275000 0
0.471429 0.275000 0
0.489286 0.275000 0
0.507143 0.275000 0
0.525000 0.275000 0
0.542857 0.275000 0
0.560714 0.275000 0
0.578571 0.275000 0
0.596429 0.275000 0
0.614286 0.275000 0
0.632143 0.275000 0
0.650000 0.275000 0
0.667857 0.275000 0
0.685714 0.275000 0
0.703571 0.275000 0
0.721429 0.275000 0
0.739286 0.275000 0
0.757143 0.275000 0
0.775000 0.275000 0
0.792857 0.275000 0
0.810714 0.275000 0
0.828571 0.275000 0
0.846429 0.275000 0
0.864286 0.275000 0
0.150000 0.292857 0
0.167857 0.292857 0
0.185714 0.292857 0
0.203571 0.292857 0
0.221429 0.292857 0
0.239286 0.292857 0
0.257143 0.292857 0
0.275000 0.292857 0
0.292857 0.292857 0
0.310714 0.292857 0
0.328571 0.292857 0
0.346429 0.292857 0
0.364286 0.292857 0
0.382143 0.292857 0
0.400000 0.292857 0
0.417857 0.292857 0
0.435714 0.292857 0
0.453571 0.292857 0
0.471429 0.292857 0
0.489286 0.292857 0
0.507143 0.292857 0
0.525000 0.292857 0
0.542857 0.292857 0
0.560714 0.292857 0
0.578571 0.292857 0
0.596429 0.292857 0
0.614286 0.292857 0
0.632143 0.292857 0
0.650000 0.292857 0
0.667857 0.292857 0
0.685714 0.292857 0
0.703571 0.292857 0
0.721429 0.292857 0
0.739286 0.292857 0
0.757143 0.292857 0
0.775000 0.292857 0
0.792857 0.292857 0
0.810714 0.292857 0
0.828571 0.292857 0
0.846429 0.292857 0
0.864286 0.292857 0
0.150000 0.310714 0
0.167857 0.310714 0
0.185714 0.310714 0
0.203571 0.310714 0
0.221429 0.310714 0
0.239286 0.310714 0
0.257143 0.310714 0
0.275000 0.310714 0
0.292857 0.310714 0
0.310714 0.310714 0
0.328571 0.310714 0
0.346429 0.310714 0
0.364286 0.310714 0
0.382143 0.310714 0
0.400000 0.310714 0
0.417857 0.310714 0
0.435714 0.310714 0
0.453571 0.310714 0
0.471429 0.310714 0
0.489286 0.310714 0
0.507143 0.310714 0
0.525000 0.310714 0
0.542857 0.310714 0
0.560714 0.310714 0
0.578571 0.310714 0
0.596429 0.310714 0
0.614286 0.310714 0
0.632143 0.310714 0
0.650000 0.310714 0
0.667857 0.310714 0
0.685714 0.310714 0
0.703571 0.310714 0
0.721429 0.310714 0
0.739286 0.310714 0
0.757143 0.310714 0
0.775000 0.310714 0
0.792857 0.310714 0
0.810714 0.310714 0
0.828571 0.310714 0
0.846429 0.310714 0
0.864286 0.310714 0
0.150000 0.328571 0
0.167857 0.328571 0
0.185714 0.328571 0
0.203571 0.328571 0
0.221429 0.328571 0
0.239286 0.328571 0
0.257143 0.328571 0
0.275000 0.328571 0
0.292857 0.328571 0
0.310714 0.328571 0
0.328571 0.328571 0
0.346429 0.328571 0
0.364286 0.328571 0
0.382143 0.328571 0
0.400000 0.328571 0
0.417857 0.328571 0
0.435714 0.328571 0
0.453571 0.328571 0
0.471429 0.328571 0
0.489286 0.328571 0
0.507143 0.328571 0
0.525000 0.328571 0
0.542857 0.328571 0
0.560714 0.328571 0
0.578571 0.328571 0
0.596429 0.328571 0
0.614286 0.328571 0
0.632143 0.328571 0
0.650000 0.328571 0
0.667857 0.328571 0
0.685714 0.328571 0
0.703571 0.328571 0
0.721429 0.328571 0
0.739286 0.328571 0
0.757143 0.328571 0
0.775000 0.328571 0
0.792857 0.328571 0
0.810714 0.328571 0
0.828571 0.328571 0
0.846429 0.328571 0
0.864286 0.328571 0
0.150000 0.346429 0
0.167857 0.346429 0
0.185714 0.346429 0
0.203571 0.346429 0
0.221429 0.346429 0
0.239286 0.346429 0
0.257143 0.346429 0
0.275000 0.346429 0
0.292857 0.346429 0
0.310714 0.346429 0
0.328571 0.346429 0
0.346429 0.346429 0
0.364286 0.346429 0
0.382143 0.346429 0
0.400000 0.346429 0
0.417857 0.346429 0
0.435714 0.346429 0
0.453571 0.346429 0
0.471429 0.346429 0
0.489286 0.346429 0
0.507143 0.346429 0
0.525000 0.346429 0
0.542857 0.346429 0
0.560714 0.346429 0
0.578571 0.346429 0
0.596429 0.346429 0
0.614286 0.346429 0
0.632143 0.346429 0
0.650000 0.346429 0
0.667857 0.346429 0
0.685714 0.346429 0
0.703571 0.346429 0
0.721429 0.346429 0
0.739286 0.346429 0
0.757143 0.346429 0
0.775000 0.346429 0
0.792857 0.346429 0
0.810714 0.346429 0
0.828571 0.346429 0
0.846429 0.346429 0
[...]
POINT_DATA 1681 

VECTORS velocity float
0.000000 0.000000 0
0.004783 0.000000 0
0.011048 0.000000 0
0.013972 0.000000 0
0.014915 0.000000 0
0.013680 0.000000 0
0.012390 0.000000 0
0.017293 0.000000 0
0.018517 0.000000 0
0.008789 0.000000 0
-0.006874 0.000000 0
-0.024285 0.000000 0
-0.042177 0.000000 0
-0.059556 0.000000 0
-0.075802 0.000000 0
-0.090539 0.000000 0
-0.103653 0.000000 0
-0.115025 0.000000 0
-0.124626 0.000000 0
-0.132455 0.000000 0
-0.138525 0.000000 0
-0.142850 0.000000 0
-0.145428 0.000000 0
-0.146282 0.000000 0
-0.145305 0.000000 0
-0.142316 0.000000 0
-0.137222 0.000000 0
-0.129912 0.000000 0
-0.120282 0.000000 0
-0.108242 0.000000 0
-0.093826 0.000000 0
-0.077054 0.000000 0
-0.058115 0.000000 0
-0.037418 0.000000 0
-0.015723 0.000000 0
0.005608 0.000000 0
0.021573 0.000000 0
0.026328 0.000000 0
0.019800 0.000000 0
0.009051 0.000000 0
0.000000 0.000000 0
0.000000 -0.004783 0
0.013177 -0.011048 0
0.026046 -0.009189 0
0.031425 -0.003866 0
0.033607 0.000291 0
0.030917 0.002525 0
0.019858 -0.003613 0
0.002193 -0.006127 0
-0.020253 0.008505 0
-0.049221 0.025391 0
-0.083086 0.033074 0
-0.118521 0.035303 0
-0.153454 0.035271 0
-0.186433 0.033625 0
-0.216551 0.030982 0
-0.243304 0.027852 0
-0.266495 0.024486 0
-0.286043 0.020973 0
-0.301968 0.017430 0
-0.314327 0.013899 0
-0.323189 0.010396 0
-0.328608 0.006903 0
-0.330602 0.003431 0
-0.329145 -0.000122 0
-0.324133 -0.003966 0
-0.315456 -0.008083 0
-0.302931 -0.012404 0
-0.286358 -0.016940 0
-0.265539 -0.021670 0
-0.240313 -0.026456 0
-0.210633 -0.031188 0
-0.176573 -0.035711 0
-0.138495 -0.039636 0
-0.097242 -0.042391 0
-0.054466 -0.043026 0
-0.013178 -0.037297 0
0.021305 -0.020719 0
0.040273 0.001773 0
0.031768 0.017277 0
0.014626 0.019800 0
0.000000 0.009051 0
0.000000 -0.013177 0
0.015507 -0.026046 0
0.025231 -0.018248 0
0.025882 -0.007560 0
0.013610 0.000508 0
-0.005614 0.013749 0
-0.034056 0.028724 0
-0.076443 0.040110 0
-0.120479 0.051415 0
-0.158003 0.062833 0
-0.192175 0.069300 0
-0.224537 0.070368 0
-0.254293 0.067912 0
-0.280974 0.063097 0
-0.304314 0.056871 0
-0.324232 0.049944 0
-0.340691 0.042739 0
-0.353820 0.035472 0
-0.363740 0.028283 0
-0.370579 0.021221 0
-0.374435 0.014281 0
-0.375371 0.007413 0
-0.373404 0.000537 0
-0.368448 -0.006469 0
-0.360502 -0.013689 0
-0.349553 -0.021201 0
-0.335437 -0.029098 0
-0.317976 -0.037392 0
-0.296983 -0.046045 0
-0.272309 -0.054906 0
-0.243797 -0.063741 0
-0.211521 -0.072138 0
-0.175770 -0.079331 0
-0.137279 -0.084029 0
-0.097505 -0.084064 0
-0.059001 -0.075771 0
-0.023188 -0.053452 0
0.006086 -0.010462 0
0.015808 0.025648 0
0.007170 0.031768 0
0.000000 0.014626 0
0.000000 -0.020290 0
0.007650 -0.036280 0
0.002634 -0.019563 0
-0.014468 0.007755 0
-0.042777 0.031787 0
-0.078126 0.050191 0
-0.114853 0.067216 0
-0.152259 0.080295 0
-0.189456 0.090065 0
-0.222629 0.097088 0
-0.251186 0.099608 0
-0.276186 0.097420 0
-0.297914 0.091708 0
-0.316590 0.083646 0
-0.332402 0.074240 0
-0.345525 0.064229 0
-0.356092 0.054074 0
-0.364259 0.044022 0
-0.370146 0.034189 0
-0.373842 0.024594 0
-0.375395 0.015188 0
-0.374815 0.005872 0
-0.372070 -0.003492 0
-0.367096 -0.013025 0
-0.359833 -0.022861 0
-0.350129 -0.033148 0
-0.337841 -0.043981 0
-0.322800 -0.055394 0
-0.304834 -0.067337 0
-0.283785 -0.079642 0
-0.259516 -0.091976 0
-0.232024 -0.103739 0
-0.201462 -0.113878 0
-0.168245 -0.120657 0
-0.133160 -0.121304 0
-0.097410 -0.111613 0
-0.062399 -0.085806 0
-0.029248 -0.037223 0
0.001375 0.016193 0
0.000358 0.035608 0
0.000000 0.016221 0
0.000000 -0.020827 0
-0.010321 -0.028681 0
-0.035369 0.003870 0
-0.065827 0.037851 0
-0.096875 0.064166 0
-0.131196 0.085826 0
-0.165486 0.102857 0
-0.198121 0.114713 0
-0.228510 0.121784 0
-0.254987 0.124563 0
-0.277112 0.122857 0
-0.295566 0.117097 0
-0.310957 0.108317 0
-0.323794 0.097584 0
-0.334450 0.085806 0
-0.343185 0.073635 0
-0.350161 0.061473 0
-0.355494 0.049526 0
-0.359248 0.037866 0
-0.361453 0.026471 0
-0.362101 0.015255 0
-0.361161 0.004088 0
-0.358576 -0.007182 0
-0.354292 -0.018707 0
-0.348191 -0.030656 0
-0.340153 -0.043193 0
-0.330040 -0.056426 0
-0.317705 -0.070399 0
-0.302998 -0.085061 0
-0.285773 -0.100224 0
-0.265903 -0.115501 0
-0.243315 -0.130193 0
-0.218000 -0.143109 0
-0.190028 -0.152330 0
-0.159552 -0.154899 0
-0.126756 -0.146532 0
-0.091752 -0.121614 0
-0.054546 -0.074236 0
-0.015520 -0.003958 0
-0.001998 0.033142 0
0.000000 0.014983 0
0.000000 -0.009969 0
-0.029925 -0.000910 0
-0.064685 0.035943 0
-0.097190 0.069261 0
-0.130148 0.097156 0
-0.162656 0.118802 0
-0.193286 0.134141 0
-0.221032 0.143320 0
-0.245462 0.146931 0
-0.266005 0.145690 0
-0.282711 0.140187 0
-0.296188 0.131265 0
-0.307080 0.119936 0
-0.315932 0.107139 0
-0.323135 0.093632 0
-0.328942 0.079941 0
-0.333508 0.066383 0
-0.336922 0.053108 0
-0.339229 0.040148 0
-0.340439 0.027447 0
-0.340535 0.014896 0
-0.339480 0.002346 0
-0.337216 -0.010361 0
-0.333691 -0.023410 0
-0.328786 -0.036999 0
-0.322391 -0.051299 0
-0.314381 -0.066429 0
-0.304628 -0.082436 0
-0.293004 -0.099270 0
-0.279378 -0.116736 0
-0.263627 -0.134434 0
-0.245627 -0.151642 0
-0.225238 -0.167165 0
-0.202263 -0.179105 0
-0.176392 -0.184576 0
-0.147136 -0.179413 0
-0.113833 -0.158017 0
-0.075936 -0.113455 0
-0.034130 -0.036354 0
0.005128 0.020088 0
0.000000 0.014223 0
0.000000 0.009098 0
-0.039574 0.036004 0
-0.077596 0.071135 0
-0.113261 0.103313 0
-0.146533 0.129631 0
-0.177016 0.148963 0
-0.204162 0.161234 0
-0.227598 0.166889 0
-0.247255 0.166756 0
-0.263180 0.161812 0
-0.275750 0.153040 0
-0.285570 0.141466 0
-0.293238 0.128061 0
-0.299249 0.113639 0
-0.303964 0.098817 0
-0.307625 0.084008 0
-0.310389 0.069452 0
-0.312353 0.055246 0
-0.313569 0.041383 0
-0.314055 0.027778 0
-0.313800 0.014296 0
-0.312768 0.000768 0
-0.310901 -0.012971 0
-0.308133 -0.027136 0
-0.304357 -0.041956 0
-0.299466 -0.057598 0
-0.293348 -0.074189 0
-0.285889 -0.091776 0
-0.276974 -0.110311 0
-0.266488 -0.129601 0
-0.254310 -0.149253 0
-0.240296 -0.168582 0
-0.224236 -0.186473 0
-0.205785 -0.201176 0
-0.184369 -0.210026 0
-0.159095 -0.209091 0
-0.128758 -0.192814 0
-0.092144 -0.153939 0
-0.048679 -0.085022 0
0.002464 -0.000988 0
0.000000 0.020112 0
0.000000 0.029605 0
-0.041070 0.076686 0
-0.081778 0.109630 0
-0.118329 0.138197 0
-0.150811 0.160911 0
-0.179118 0.176431 0
-0.203177 0.184723 0
-0.223063 0.186413 0
-0.239042 0.182514 0
-0.251503 0.174185 0
-0.260990 0.162576 0
-0.268100 0.148753 0
-0.273377 0.133615 0
-0.277268 0.117865 0
-0.280109 0.102008 0
-0.282145 0.086366 0
-0.283543 0.071110 0
-0.284418 0.056288 0
-0.284835 0.041850 0
-0.284820 0.027679 0
-0.284367 0.013609 0
-0.283445 -0.000553 0
-0.281999 -0.014996 0
-0.279936 -0.029954 0
-0.277167 -0.045666 0
-0.273591 -0.062308 0
-0.269099 -0.080006 0
-0.263584 -0.098810 0
-0.256937 -0.118671 0
-0.249051 -0.139400 0
-0.239808 -0.160625 0
-0.229064 -0.181716 0
-0.216595 -0.201676 0
-0.202022 -0.218972 0
-0.184695 -0.231267 0
-0.163572 -0.235024 0
-0.137178 -0.224967 0
-0.103881 -0.193534 0
-0.062978 -0.130962 0
-0.018060 -0.028591 0
0.000000 0.016687 0
0.000000 0.050168 0
-0.040208 0.117782 0
-0.080547 0.148395 0
-0.116193 0.172347 0
-0.147022 0.190419 0
-0.173015 0.201329 0
-0.194343 0.205179 0
-0.211341 0.202753 0
-0.224489 0.195196 0
-0.234348 0.183761 0
-0.241525 0.169636 0
-0.246599 0.153853 0
-0.250073 0.137229 0
-0.252365 0.120371 0
-0.253799 0.103693 0
-0.254625 0.087443 0
-0.255020 0.071726 0
-0.255109 0.056538 0
-0.254963 0.041784 0
-0.254615 0.027310 0
-0.254065 0.012921 0
-0.253281 -0.001600 0
-0.252214 -0.016480 0
-0.250767 -0.031968 0
-0.248860 -0.048301 0
-0.246391 -0.065667 0
-0.243257 -0.084195 0
-0.239347 -0.103938 0
-0.234551 -0.124844 0
-0.228758 -0.146730 0
-0.221851 -0.169239 0
-0.213686 -0.191796 0
-0.204058 -0.213515 0
-0.192624 -0.233076 0
-0.178797 -0.248476 0
-0.161605 -0.256608 0
-0.139603 -0.252504 0
-0.111059 -0.228139 0
-0.074964 -0.170844 0
-0.033933 -0.063966 0
0.000000 0.002052 0
0.000000 0.069813 0
-0.037747 0.157233 0
-0.076029 0.185615 0
-0.109604 0.204672 0
-0.138190 0.217733 0
-0.161782 0.223753 0
-0.180651 0.223049 0
-0.195259 0.216559 0
-0.206187 0.205521 0
-0.214058 0.191221 0
-0.219484 0.174826 0
-0.223019 0.157301 0
-0.225141 0.139381 0
-0.226244 0.121591 0
-0.226648 0.104268 0
-0.226597 0.087587 0
-0.226275 0.071594 0
-0.225806 0.056230 0
-0.225267 0.041357 0
-0.224695 0.026780 0
-0.224094 0.012274 0
-0.223438 -0.002404 0
-0.222677 -0.017509 0
-0.221733 -0.033308 0
-0.220525 -0.050042 0
-0.218959 -0.067910 0
-0.216927 -0.087050 0
-0.214318 -0.107516 0
-0.211013 -0.129260 0
-0.206889 -0.152101 0
-0.201821 -0.175697 0
-0.195663 -0.199509 0
-0.188223 -0.222738 0
-0.179216 -0.244232 0
-0.168161 -0.262286 0
-0.154242 -0.274219 0
-0.136137 -0.275514 0
-0.111970 -0.258173 0
-0.079819 -0.208087 0
-0.039687 -0.103555 0
0.000000 -0.017247 0
0.000000 0.087916 0
-0.034307 0.193811 0
-0.069608 0.220251 0
-0.100445 0.234509 0
-0.126449 0.242597 0
-0.147611 0.243790 0
-0.164233 0.238657 0
-0.176814 0.228289 0
-0.185953 0.213995 0
-0.192274 0.197057 0
-0.196364 0.178598 0
-0.198747 0.159510 0
-0.199872 0.140454 0
-0.200118 0.121877 0
-0.199790 0.104046 0
-0.199126 0.087070 0
-0.198302 0.070935 0
-0.197441 0.055530 0
-0.196621 0.040673 0
-0.195882 0.026137 0
-0.195236 0.011664 0
-0.194665 -0.003017 0
-0.194125 -0.018185 0
-0.193554 -0.034119 0
-0.192878 -0.051075 0
-0.192008 -0.069265 0
-0.190840 -0.088836 0
-0.189257 -0.109853 0
-0.187133 -0.132273 0
-0.184334 -0.155921 0
-0.180718 -0.180466 0
-0.176128 -0.205394 0
-0.170380 -0.229962 0
-0.163224 -0.253138 0
-0.154280 -0.273450 0
-0.142900 -0.288632 0
-0.127938 -0.294777 0
-0.107487 -0.284457 0
-0.078947 -0.243127 0
-0.040667 -0.143785 0
0.000000 -0.037635 0
0.000000 0.104120 0
-0.030338 0.226841 0
-0.062192 0.251752 0
-0.089962 0.261513 0
-0.113236 0.264899 0
-0.132001 0.261537 0
-0.146553 0.252251 0
-0.157375 0.238279 0
-0.165041 0.220981 0
-0.170136 0.201632 0
-0.173206 0.181299 0
-0.174739 0.160809 0
-0.175155 0.140753 0
-0.174808 0.121509 0
-0.173986 0.103276 0
-0.172909 0.086099 0
-0.171745 0.069909 0
-0.170610 0.054549 0
-0.169582 0.039798 0
-0.168706 0.025396 0
-0.167999 0.011057 0
-0.167455 -0.003515 0
-0.167041 -0.018621 0
-0.166709 -0.034555 0
-0.166397 -0.051588 0
-0.166024 -0.069948 0
-0.165492 -0.089801 0
-0.164683 -0.111223 0
-0.163467 -0.134183 0
-0.161701 -0.158516 0
-0.159229 -0.183903 0
-0.155882 -0.209846 0
-0.151467 -0.235642 0
-0.145754 -0.260333 0
-0.138428 -0.282610 0
-0.128990 -0.300561 0
-0.116519 -0.310927 0
-0.099282 -0.307164 0
-0.074472 -0.274907 0
-0.039468 -0.182502 0
0.000000 -0.057914 0
0.000000 0.118253 0
-0.026138 0.256002 0
-0.054359 0.279875 0
-0.078952 0.285553 0
-0.099480 0.284636 0
-0.115929 0.277107 0
-0.128570 0.264031 0
-0.137846 0.246778 0
-0.144278 0.226755 0
-0.148395 0.205222 0
-0.150693 0.183201 0
-0.151617 0.161459 0
-0.151551 0.140524 0
-0.150820 0.120708 0
-0.149686 0.102147 0
-0.148352 0.084830 0
-0.146969 0.068636 0
-0.145648 0.053367 0
-0.144464 0.038769 0
-0.143464 0.024554 0
-0.142675 0.010413 0
-0.142100 -0.003975 0
-0.141720 -0.018931 0
-0.141501 -0.034764 0
-0.141395 -0.051761 0
-0.141332 -0.070170 0
-0.141224 -0.090177 0
-0.140959 -0.111877 0
-0.140407 -0.135255 0
-0.139421 -0.160159 0
-0.137838 -0.186285 0
-0.135479 -0.213156 0
-0.132143 -0.240091 0
-0.127601 -0.266178 0
-0.121579 -0.290214 0
-0.113689 -0.310541 0
-0.103237 -0.324484 0
-0.088803 -0.326504 0
-0.067707 -0.302941 0
-0.036712 -0.218257 0
0.000000 -0.077103 0
0.000000 0.130258 0
-0.021893 0.281200 0
-0.046464 0.304566 0
-0.067903 0.306633 0
-0.085749 0.301876 0
-0.099995 0.290628 0
-0.110876 0.274168 0
-0.118782 0.253986 0
-0.124170 0.231530 0
-0.127506 0.208047 0
-0.129228 0.184521 0
-0.129732 0.161667 0
-0.129363 0.139957 0
-0.128409 0.119644 0
-0.127103 0.100807 0
-0.125627 0.083382 0
-0.124117 0.067205 0
-0.122675 0.052043 0
-0.121373 0.037614 0
-0.120262 0.023608 0
-0.119373 0.009693 0
-0.118720 -0.004470 0
-0.118296 -0.019220 0
-0.118083 -0.034880 0
-0.118045 -0.051757 0
-0.118129 -0.070119 0
-0.118258 -0.090174 0
-0.118331 -0.112040 0
-0.118225 -0.135722 0
-0.117797 -0.161085 0
-0.116885 -0.187845 0
-0.115306 -0.215542 0
-0.112858 -0.243520 0
-0.109312 -0.270896 0
-0.104415 -0.296522 0
-0.097855 -0.318903 0
-0.089135 -0.335813 0
-0.077192 -0.342694 0
-0.059689 -0.326998 0
-0.033068 -0.250209 0
0.000000 -0.094627 0
0.000000 0.140147 0
-0.017702 0.302466 0
-0.038697 0.325884 0
-0.057080 0.324838 0
-0.072358 0.316729 0
-0.084528 0.302234 0
-0.093791 0.282818 0
-0.100478 0.260071 0
-0.104978 0.235479 0
-0.107690 0.210280 0
-0.108991 0.185428 0
-0.109224 0.161594 0
-0.108688 0.139200 0
-0.107632 0.118448 0
-0.106259 0.099365 0
-0.104728 0.081844 0
-0.103160 0.065685 0
-0.101649 0.050623 0
-0.100262 0.036356 0
-0.099053 0.022554 0
-0.098055 0.008871 0
-0.097292 -0.005052 0
-0.096768 -0.019568 0
-0.096478 -0.035015 0
-0.096400 -0.051714 0
-0.096496 -0.069957 0
-0.096705 -0.089975 0
-0.096939 -0.111910 0
-0.097092 -0.135789 0
-0.097030 -0.161499 0
-0.096601 -0.188776 0
-0.095630 -0.217183 0
-0.093918 -0.246085 0
-0.091244 -0.274620 0
-0.087373 -0.301670 0
-0.082045 -0.325820 0
-0.074911 -0.345147 0
-0.065238 -0.355950 0
-0.051140 -0.347065 0
-0.028982 -0.277946 0
0.000000 -0.110171 0
0.000000 0.147961 0
-0.013604 0.319897 0
-0.031143 0.343944 0
-0.046601 0.340294 0
-0.059443 0.329325 0
-0.069669 0.312061 0
-0.077445 0.290118 0
-0.083042 0.265173 0
-0.086783 0.238742 0
-0.088997 0.212060 0
-0.089998 0.186055 0
-0.090074 0.161364 0
-0.089472 0.138364 0
-0.088405 0.117216 0
-0.087043 0.097903 0
-0.085522 0.080283 0
-0.083949 0.064126 0
-0.082410 0.049145 0
-0.080968 0.035018 0
-0.079676 0.021400 0
-0.078572 0.007933 0
-0.077684 -0.005757 0
-0.077027 -0.020033 0
-0.076604 -0.035248 0
-0.076408 -0.051739 0
-0.076413 -0.069815 0
-0.076576 -0.089731 0
-0.076830 -0.111653 0
-0.077085 -0.135631 0
-0.077230 -0.161576 0
-0.077127 -0.189245 0
-0.076617 -0.218225 0
-0.075516 -0.247906 0
-0.073620 -0.277440 0
-0.070715 -0.305722 0
-0.066582 -0.331365 0
-0.060977 -0.352620 0
-0.053432 -0.366465 0
-0.042530 -0.363254 0
-0.024752 -0.301349 0
0.000000 -0.123608 0
0.000000 0.153751 0
-0.009604 0.333609 0
-0.023811 0.358881 0
-0.036485 0.353139 0
-0.047022 0.339796 0
-0.055426 0.320235 0
-0.061830 0.296191 0
-0.066447 0.269410 0
-0.069533 0.241434 0
-0.071349 0.213496 0
-0.072143 0.186504 0
-0.072146 0.161068 0
-0.071556 0.137532 0
-0.070544 0.116018 0
-0.069251 0.096482 0
-0.067792 0.078751 0
-0.066259 0.062573 0
-0.064728 0.047642 0
-0.063260 0.033623 0
-0.061905 0.020158 0
-0.060705 0.006878 0
-0.059691 -0.006598 0
-0.058885 -0.020648 0
-0.058297 -0.035634 0
-0.057930 -0.051906 0
-0.057773 -0.069789 0
-0.057798 -0.089558 0
-0.057962 -0.111401 0
-0.058198 -0.135389 0
-0.058421 -0.161458 0
-0.058515 -0.189389 0
-0.058345 -0.218794 0
-0.057751 -0.249082 0
-0.056555 -0.279421 0
-0.054572 -0.308709 0
-0.051623 -0.335559 0
-0.047536 -0.358297 0
-0.042035 -0.374397 0
-0.034130 -0.375745 0
-0.020559 -0.320477 0
0.000000 -0.134923 0
0.000000 0.157565 0
-0.005682 0.343708 0
-0.016665 0.370824 0
-0.026677 0.363505 0
-0.035028 0.348266 0
-0.041718 0.326869 0
-0.046846 0.301139 0
-0.050573 0.272877 0
-0.053086 0.243644 0
-0.054579 0.214670 0
-0.055237 0.186852 0
-0.055230 0.160777 0
-0.054709 0.136763 0
-0.053804 0.114911 0
-0.052627 0.095150 0
-0.051272 0.077291 0
-0.049818 0.061062 0
-0.048331 0.046146 0
-0.046866 0.032195 0
-0.045472 0.018845 0
-0.044192 0.005718 0
-0.043060 -0.007577 0
-0.042103 -0.021427 0
-0.041336 -0.036202 0
-0.040769 -0.052263 0
-0.040401 -0.069947 0
-0.040226 -0.089542 0
-0.040222 -0.111253 0
-0.040350 -0.135172 0
-0.040553 -0.161259 0
-0.040744 -0.189320 0
-0.040817 -0.218990 0
-0.040643 -0.249696 0
-0.040081 -0.280619 0
-0.038983 -0.310654 0
-0.037211 -0.338402 0
-0.034648 -0.362207 0
-0.031146 -0.379870 0
-0.026064 -0.384731 0
-0.016493 -0.335479 0
0.000000 -0.144167 0
0.000000 0.159433 0
-0.001849 0.350274 0
-0.009632 0.379877 0
-0.017082 0.371501 0
-0.023341 0.354837 0
-0.028403 0.332054 0
-0.032333 0.305046 0
-0.035237 0.275650 0
-0.037238 0.245440 0
-0.038465 0.215646 0
-0.039037 0.187156 0
-0.039067 0.160540 0
-0.038657 0.136106 0
-0.037899 0.113936 0
-0.036876 0.093949 0
-0.035663 0.075942 0
-0.034324 0.059632 0
-0.032916 0.044691 0
-0.031488 0.030764 0
-0.030084 0.017484 0
-0.028747 0.004466 0
-0.027511 -0.008687 0
-0.026406 -0.022372 0
-0.025455 -0.036968 0
-0.024672 -0.052840 0
-0.024069 -0.070331 0
-0.023655 -0.089738 0
-0.023434 -0.111277 0
-0.023396 -0.135058 0
-0.023510 -0.161064 0
-0.023725 -0.189124 0
-0.023967 -0.218895 0
-0.024145 -0.249818 0
-0.024161 -0.281082 0
-0.023913 -0.311579 0
-0.023310 -0.339894 0
-0.022279 -0.364362 0
-0.020754 -0.382980 0
-0.018358 -0.390397 0
-0.012585 -0.346541 0
0.000000 -0.151417 0
0.000000 0.159414 0
0.001862 0.353340 0
-0.002600 0.386058 0
-0.007563 0.377214 0
-0.011817 0.359587 0
-0.015309 0.335861 0
-0.018092 0.307973 0
-0.020219 0.277783 0
-0.021750 0.246871 0
-0.022746 0.216468 0
-0.023267 0.187455 0
-0.023367 0.160397 0
-0.023100 0.135595 0
-0.022521 0.113130 0
-0.021684 0.092914 0
-0.020645 0.074739 0
-0.019454 0.058316 0
-0.018158 0.043310 0
-0.016800 0.029362 0
-0.015420 0.016104 0
-0.014063 0.003145 0
-0.012734 -0.009918 0
-0.011489 -0.023482 0
-0.010353 -0.037937 0
-0.009349 -0.053650 0
-0.008500 -0.070964 0
-0.007833 -0.090176 0
-0.007374 -0.111512 0
-0.007138 -0.135096 0
-0.007124 -0.160929 0
-0.007314 -0.188864 0
-0.007672 -0.218570 0
-0.008153 -0.249502 0
-0.008705 -0.280850 0
-0.009279 -0.311505 0
-0.009833 -0.340036 0
-0.010339 -0.364763 0
-0.010784 -0.383792 0
-0.010971 -0.392900 0
-0.008825 -0.353837 0
0.000000 -0.156752 0
0.000000 0.157571 0
0.005503 0.352875 0
0.004488 0.389302 0
0.002012 0.380718 0
-0.000269 0.362583 0
-0.002231 0.338329 0
-0.003900 0.309956 0
-0.005276 0.279308 0
-0.006360 0.247967 0
-0.007149 0.217163 0
-0.007640 0.187776 0
-0.007831 0.160374 0
-0.007731 0.135260 0
-0.007354 0.112520 0
-0.006729 0.092073 0
-0.005889 0.073711 0
-0.004873 0.057145 0
-0.003718 0.042037 0
-0.002457 0.028026 0
-0.001126 0.014747 0
0.000239 0.001780 0
0.001636 -0.011262 0
0.003007 -0.024753 0
0.004317 -0.039108 0
0.005534 -0.054694 0
0.006618 -0.071847 0
0.007529 -0.090863 0
0.008223 -0.111972 0
0.008662 -0.135308 0
0.008818 -0.160887 0
0.008676 -0.188576 0
0.008230 -0.218056 0
0.007478 -0.248786 0
0.006417 -0.279955 0
0.005043 -0.310450 0
0.003342 -0.338833 0
0.001301 -0.363411 0
-0.001114 -0.382348 0
-0.003820 -0.392356 0
-0.005173 -0.357512 0
0.000000 -0.160241 0
0.000000 0.153910 0
0.009179 0.348852 0
0.011695 0.389549 0
0.011759 0.381971 0
0.011460 0.363830 0
0.011014 0.339491 0
0.010456 0.311018 0
0.009828 0.280243 0
0.009192 0.248744 0
0.008611 0.217748 0
0.008148 0.188137 0
0.007858 0.160489 0
0.007780 0.135118 0
0.007937 0.112128 0
0.008331 0.091449 0
0.008948 0.072883 0
0.009768 0.056144 0
0.010763 0.040894 0
0.011907 0.026771 0
0.013178 0.013408 0
0.014547 0.000383 0
0.015986 -0.012686 0
0.017459 -0.026163 0
0.018921 -0.040464 0
0.020325 -0.055951 0
0.021622 -0.072960 0
0.022755 -0.091781 0
0.023665 -0.112644 0
0.024295 -0.135691 0
0.024590 -0.160944 0
0.024497 -0.188276 0
0.023967 -0.217372 0
0.022949 -0.247689 0
0.021383 -0.278415 0
0.019207 -0.308430 0
0.016354 -0.336295 0
0.012762 -0.360307 0
0.008373 -0.378671 0
0.003206 -0.388841 0
-0.001557 -0.357657 0
0.000000 -0.161925 0
0.000000 0.148392 0
0.012961 0.341180 0
0.019135 0.386722 0
0.021809 0.380953 0
0.023489 0.363328 0
0.024567 0.339334 0
0.025134 0.311142 0
0.025280 0.280572 0
0.025121 0.249185 0
0.024778 0.218207 0
0.024368 0.188529 0
0.023999 0.160742 0
0.023753 0.135180 0
0.023690 0.111969 0
0.023844 0.091061 0
0.024228 0.072275 0
0.024838 0.055331 0
0.025661 0.039897 0
0.026680 0.025610 0
0.027876 0.012107 0
0.029231 -0.001028 0
0.030689 -0.014173 0
0.032232 -0.027688 0
0.033811 -0.041975 0
0.035369 -0.057395 0
0.036846 -0.074276 0
0.038173 -0.092907 0
0.039277 -0.113513 0
0.040078 -0.136232 0
0.040493 -0.161089 0
0.040434 -0.187954 0
0.039806 -0.216508 0
0.038506 -0.246202 0
0.036417 -0.276214 0
0.033416 -0.305422 0
0.029380 -0.332389 0