# vtk DataFile Version 2.0
generated by CFD-lab course output (written by Tobias Neckel) 
ASCII

DATASET STRUCTURED_GRID
DIMENSIONS  41 41 1 
POINTS 1681 float

0.150000 0.150000 0
0.167857 0.150000 0
0.185714 0.150000 0
0.203571 0.150000 0
0.221429 0.150000 0
0.239286 0.150000 0
0.257143 0.150000 0
0.275000 0.150000 0
0.292857 0.150000 0
0.310714 0.150000 0
0.328571 0.150000 0
0.346429 0.150000 0
0.364286 0.150000 0
0.382143 0.150000 0
0.400000 0.150000 0
0.417857 0.150000 0
0.435714 0.150000 0
0.453571 0.150000 0
0.471429 0.150000 0
0.489286 0.150000 0
0.507143 0.150000 0
0.525000 0.150000 0
0.542857 0.150000 0
0.560714 0.150000 0
0.578571 0.150000 0
0.596429 0.150000 0
0.614286 0.150000 0
0.632143 0.150000 0
0.650000 0.150000 0
0.667857 0.150000 0
0.685714 0.150000 0
0.703571 0.150000 0
0.721429 0.150000 0
0.739286 0.150000 0
0.757143 0.150000 0
0.775000 0.150000 0
0.792857 0.150000 0
0.810714 0.150000 0
0.828571 0.150000 0
0.846429 0.150000 0
0.864286 0.150000 0
0.150000 0.167857 0
0.167857 0.167857 0
0.185714 0.167857 0
0.203571 0.167857 0
0.221429 0.167857 0
0.239286 0.167857 0
0.257143 0.167857 0
0.275000 0.167857 0
0.292857 0.167857 0
0.310714 0.167857 0
0.328571 0.167857 0
0.346429 0.167857 0
0.364286 0.167857 0
0.382143 0.167857 0
0.400000 0.167857 0
0.417857 0.167857 0
0.435714 0.167857 0
0.453571 0.167857 0
0.471429 0.167857 0
0.489286 0.167857 0
0.507143 0.167857 0
0.525000 0.167857 0
0.542857 0.167857 0
0.560714 0.167857 0
0.578571 0.167857 0
0.596429 0.167857 0
0.614286 0.167857 0
0.632143 0.167857 0
0.650000 0.167857 0
0.667857 0.167857 0
0.685714 0.167857 0
0.703571 0.167857 0
0.721429 0.167857 0
0.739286 0.167857 0
0.757143 0.167857 0
0.775000 0.167857 0
0.792857 0.167857 0
0.810714 0.167857 0
0.828571 0.167857 0
0.846429 0.167857 0
0.864286 0.167857 0
0.150000 0.185714 0
0.167857 0.185714 0
0.185714 0.185714 0
0.203571 0.185714 0
0.221429 0.185714 0
0.239286 0.185714 0
0.257143 0.185714 0
0.275000 0.185714 0
0.292857 0.185714 0
0.310714 0.185714 0
0.328571 0.185714 0
0.346429 0.185714 0
0.364286 0.185714 0
0.382143 0.185714 0
0.400000 0.185714 0
0.417857 0.185714 0
0.435714 0.185714 0
0.453571 0.185714 0
0.471429 0.185714 0
0.489286 0.185714 0
0.507143 0.185714 0
0.525000 0.185714 0
0.542857 0.185714 0
0.560714 0.185714 0
0.578571 0.185714 0
0.596429 0.185714 0
0.614286 0.185714 0
0.632143 0.185714 0
0.650000 0.185714 0
0.667857 0.185714 0
0.685714 0.185714 0
0.703571 0.185714 0
0.721429 0.185714 0
0.739286 0.185714 0
0.757143 0.185714 0
0.775000 0.185714 0
0.792857 0.185714 0
0.810714 0.185714 0
0.828571 0.185714 0
0.846429 0.185714 0
0.864286 0.185714 0
0.150000 0.203571 0
0.167857 0.203571 0
0.185714 0.203571 0
0.203571 0.203571 0
0.221429 0.203571 0
0.239286 0.203571 0
0.257143 0.203571 0
0.275000 0.203571 0
0.292857 0.203571 0
0.310714 0.203571 0
0.328571 0.203571 0
0.346429 0.203571 0
0.364286 0.203571 0
0.382143 0.203571 0
0.400000 0.203571 0
0.417857 0.203571 0
0.435714 0.203571 0
0.453571 0.203571 0
0.471429 0.203571 0
0.489286 0.203571 0
0.507143 0.203571 0
0.525000 0.203571 0
0.542857 0.203571 0
0.560714 0.203571 0
0.578571 0.203571 0
0.596429 0.203571 0
0.614286 0.203571 0
0.632143 0.203571 0
0.650000 0.203571 0
0.667857 0.203571 0
0.685714 0.203571 0
0.703571 0.203571 0
0.721429 0.203571 0
0.739286 0.203571 0
0.757143 0.203571 0
0.775000 0.203571 0
0.792857 0.203571 0
0.810714 0.203571 0
0.828571 0.203571 0
0.846429 0.203571 0
0.864286 0.203571 0
0.150000 0.221429 0
0.167857 0.221429 0
0.185714 0.221429 0
0.203571 0.221429 0
0.221429 0.221429 0
0.239286 0.221429 0
0.257143 0.221429 0
0.275000 0.221429 0
0.292857 0.221429 0
0.310714 0.221429 0
0.328571 0.221429 0
0.346429 0.221429 0
0.364286 0.221429 0
0.382143 0.221429 0
0.400000 0.221429 0
0.417857 0.221429 0
0.435714 0.221429 0
0.453571 0.221429 0
0.471429 0.221429 0
0.489286 0.221429 0
0.507143 0.221429 0
0.525000 0.221429 0
0.542857 0.221429 0
0.560714 0.221429 0
0.578571 0.221429 0
0.596429 0.221429 0
0.614286 0.221429 0
0.632143 0.221429 0
0.650000 0.221429 0
0.667857 0.221429 0
0.685714 0.221429 0
0.703571 0.221429 0
0.721429 0.221429 0
0.739286 0.221429 0
0.757143 0.221429 0
0.775000 0.221429 0
0.792857 0.221429 0
0.810714 0.221429 0
0.828571 0.221429 0
0.846429 0.221429 0
0.864286 0.221429 0
0.150000 0.239286 0
0.167857 0.239286 0
0.185714 0.239286 0
0.203571 0.239286 0
0.221429 0.239286 0
0.239286 0.239286 0
0.257143 0.239286 0
0.275000 0.239286 0
0.292857 0.239286 0
0.310714 0.239286 0
0.328571 0.239286 0
0.346429 0.239286 0
0.364286 0.239286 0
0.382143 0.239286 0
0.400000 0.239286 0
0.417857 0.239286 0
0.435714 0.239286 0
0.453571 0.239286 0
0.471429 0.239286 0
0.489286 0.239286 0
0.507143 0.239286 0
0.525000 0.239286 0
0.542857 0.239286 0
0.560714 0.239286 0
0.578571 0.239286 0
0.596429 0.239286 0
0.614286 0.239286 0
0.632143 0.239286 0
0.650000 0.239286 0
0.667857 0.239286 0
0.685714 0.239286 0
0.703571 0.239286 0
0.721429 0.239286 0
0.739286 0.239286 0
0.757143 0.239286 0
0.775000 0.239286 0
0.792857 0.239286 0
0.810714 0.239286 0
0.828571 0.239286 0
0.846429 0.239286 0
0.864286 0.239286 0
0.150000 0.257143 0
0.167857 0.257143 0
0.185714 0.257143 0
0.203571 0.257143 0
0.221429 0.257143 0
0.239286 0.257143 0
0.257143 0.257143 0
0.275000 0.257143 0
0.292857 0.257143 0
0.310714 0.257143 0
0.328571 0.257143 0
0.346429 0.257143 0
0.364286 0.257143 0
0.382143 0.257143 0
0.400000 0.257143 0
0.417857 0.257143 0
0.435714 0.257143 0
0.453571 0.257143 0
0.471429 0.257143 0
0.489286 0.257143 0
0.507143 0.257143 0
0.525000 0.257143 0
0.542857 0.257143 0
0.560714 0.257143 0
0.578571 0.257143 0
0.596429 0.257143 0
0.614286 0.257143 0
0.632143 0.257143 0
0.650000 0.257143 0
0.667857 0.257143 0
0.685714 0.257143 0
0.703571 0.257143 0
0.721429 0.257143 0
0.739286 0.257143 0
0.757143 0.257143 0
0.775000 0.257143 0
0.792857 0.257143 0
0.810714 0.257143 0
0.828571 0.257143 0
0.846429 0.257143 0
0.864286 0.257143 0
0.150000 0.275000 0
0.167857 0.275000 0
0.185714 0.275000 0
0.203571 0.275000 0
0.221429 0.275000 0
0.239286 0.275000 0
0.257143 0.275000 0
0.275000 0.275000 0
0.292857 0.275000 0
0.310714 0.275000 0
0.328571 0.275000 0
0.346429 0.275000 0
0.364286 0.275000 0
0.382143 0.275000 0
0.400000 0.275000 0
0.417857 0.275000 0
0.435714 0.275000 0
0.453571 0.275000 0
0.471429 0.275000 0
0.489286 0.275000 0
0.507143 0.275000 0
0.525000 0.275000 0
0.542857 0.275000 0
0.560714 0.275000 0
0.578571 0.275000 0
0.596429 0.275000 0
0.614286 0.275000 0
0.632143 0.275000 0
0.650000 0.275000 0
0.667857 0.275000 0
0.685714 0.275000 0
0.703571 0.275000 0
0.721429 0.275000 0
0.739286 0.275000 0
0.757143 0.275000 0
0.775000 0.275000 0
0.792857 0.275000 0
0.810714 0.275000 0
0.828571 0.275000 0
0.846429 0.275000 0
0.864286 0.275000 0
0.150000 0.292857 0
0.167857 0.292857 0
0.185714 0.292857 0
0.203571 0.292857 0
0.221429 0.292857 0
0.239286 0.292857 0
0.257143 0.292857 0
0.275000 0.292857 0
0.292857 0.292857 0
0.310714 0.292857 0
0.328571 0.292857 0
0.346429 0.292857 0
0.364286 0.292857 0
0.382143 0.292857 0
0.400000 0.292857 0
0.417857 0.292857 0
0.435714 0.292857 0
0.453571 0.292857 0
0.471429 0.292857 0
0.489286 0.292857 0
0.507143 0.292857 0
0.525000 0.292857 0
0.542857 0.292857 0
0.560714 0.292857 0
0.578571 0.292857 0
0.596429 0.292857 0
0.614286 0.292857 0
0.632143 0.292857 0
0.650000 0.292857 0
0.667857 0.292857 0
0.685714 0.292857 0
0.703571 0.292857 0
0.721429 0.292857 0
0.739286 0.292857 0
0.757143 0.292857 0
0.775000 0.292857 0
0.792857 0.292857 0
0.810714 0.292857 0
0.828571 0.292857 0
0.846429 0.292857 0
0.864286 0.292857 0
0.150000 0.310714 0
0.167857 0.310714 0
0.185714 0.310714 0
0.203571 0.310714 0
0.221429 0.310714 0
0.239286 0.310714 0
0.257143 0.310714 0
0.275000 0.310714 0
0.292857 0.310714 0
0.310714 0.310714 0
0.328571 0.310714 0
0.346429 0.310714 0
0.364286 0.310714 0
0.382143 0.310714 0
0.400000 0.310714 0
0.417857 0.310714 0
0.435714 0.310714 0
0.453571 0.310714 0
0.471429 0.310714 0
0.489286 0.310714 0
0.507143 0.310714 0
0.525000 0.310714 0
0.542857 0.310714 0
0.560714 0.310714 0
0.578571 0.310714 0
0.596429 0.310714 0
0.614286 0.310714 0
0.632143 0.310714 0
0.650000 0.310714 0
0.667857 0.310714 0
0.685714 0.310714 0
0.703571 0.310714 0
0.721429 0.310714 0
0.739286 0.310714 0
0.757143 0.310714 0
0.775000 0.310714 0
0.792857 0.310714 0
0.810714 0.310714 0
0.828571 0.310714 0
0.846429 0.310714 0
0.864286 0.310714 0
0.150000 0.328571 0
0.167857 0.328571 0
0.185714 0.328571 0
0.203571 0.328571 0
0.221429 0.328571 0
0.239286 0.328571 0
0.257143 0.328571 0
0.275000 0.328571 0
0.292857 0.328571 0
0.310714 0.328571 0
0.328571 0.328571 0
0.346429 0.328571 0
0.364286 0.328571 0
0.382143 0.328571 0
0.400000 0.328571 0
0.417857 0.328571 0
0.435714 0.328571 0
0.453571 0.328571 0
0.471429 0.328571 0
0.489286 0.328571 0
0.507143 0.328571 0
0.525000 0.328571 0
0.542857 0.328571 0
0.560714 0.328571 0
0.578571 0.328571 0
0.596429 0.328571 0
0.614286 0.328571 0
0.632143 0.328571 0
0.650000 0.328571 0
0.667857 0.328571 0
0.685714 0.328571 0
0.703571 0.328571 0
0.721429 0.328571 0
0.739286 0.328571 0
0.757143 0.328571 0
0.775000 0.328571 0
0.792857 0.328571 0
0.810714 0.328571 0
0.828571 0.328571 0
0.846429 0.328571 0
0.864286 0.328571 0
0.150000 0.346429 0
0.167857 0.346429 0
0.185714 0.346429 0
0.203571 0.346429 0
0.221429 0.346429 0
0.239286 0.346429 0
0.257143 0.346429 0
0.275000 0.346429 0
0.292857 0.346429 0
0.310714 0.346429 0
0.328571 0.346429 0
0.346429 0.346429 0
0.364286 0.346429 0
0.382143 0.346429 0
0.400000 0.346429 0
0.417857 0.346429 0
0.435714 0.346429 0
0.453571 0.346429 0
0.471429 0.346429 0
0.489286 0.346429 0
0.507143 0.346429 0
0.525000 0.346429 0
0.542857 0.346429 0
0.560714 0.346429 0
0.578571 0.346429 0
0.596429 0.346429 0
0.614286 0.346429 0
0.632143 0.346429 0
0.650000 0.346429 0
0.667857 0.346429 0
0.685714 0.346429 0
0.703571 0.346429 0
0.721429 0.346429 0
0.739286 0.346429 0
0.757143 0.346429 0
0.775000 0.346429 0
0.792857 0.346429 0
0.810714 0.346429 0
0.828571 0.346429 0
0.846429 0.346429 0
[...]
POINT_DATA 1681 

VECTORS velocity float
0.000000 0.000000 0
0.006142 0.000000 0
0.012497 0.000000 0
0.014949 0.000000 0
0.014769 0.000000 0
0.014386 0.000000 0
0.012269 0.000000 0
0.016496 0.000000 0
0.022067 0.000000 0
0.012333 0.000000 0
-0.005553 0.000000 0
-0.025767 0.000000 0
-0.046456 0.000000 0
-0.066534 0.000000 0
-0.085257 0.000000 0
-0.102184 0.000000 0
-0.117153 0.000000 0
-0.130019 0.000000 0
-0.140748 0.000000 0
-0.149333 0.000000 0
-0.155794 0.000000 0
-0.160149 0.000000 0
-0.162402 0.000000 0
-0.162573 0.000000 0
-0.160535 0.000000 0
-0.156175 0.000000 0
-0.149428 0.000000 0
-0.140218 0.000000 0
-0.128478 0.000000 0
-0.114165 0.000000 0
-0.097357 0.000000 0
-0.078139 0.000000 0
-0.056778 0.000000 0
-0.033766 0.000000 0
-0.009926 0.000000 0
0.013354 0.000000 0
0.028760 0.000000 0
0.031464 0.000000 0
0.023478 0.000000 0
0.011059 0.000000 0
0.000000 0.000000 0
0.000000 -0.006142 0
0.016220 -0.012497 0
0.029764 -0.008807 0
0.035310 -0.002272 0
0.034751 0.000563 0
0.035059 0.002500 0
0.027002 -0.002110 0
0.008495 -0.009799 0
-0.015836 0.004163 0
-0.047554 0.027620 0
-0.085902 0.038100 0
-0.126481 0.040903 0
-0.166630 0.040767 0
-0.204594 0.038801 0
-0.239266 0.035650 0
-0.270018 0.031896 0
-0.296573 0.027835 0
-0.318808 0.023595 0
-0.336721 0.019314 0
-0.350364 0.015046 0
-0.359809 0.010816 0
-0.365120 0.006608 0
-0.366326 0.002423 0
-0.363415 -0.001867 0
-0.356330 -0.006397 0
-0.344991 -0.011107 0
-0.329270 -0.015958 0
-0.309026 -0.020949 0
-0.284131 -0.026053 0
-0.254507 -0.031122 0
-0.220204 -0.036025 0
-0.181424 -0.040578 0
-0.138687 -0.044373 0
-0.093046 -0.046853 0
-0.046442 -0.047120 0
-0.002350 -0.038686 0
0.033092 -0.018110 0
0.049120 0.005281 0
0.037926 0.020405 0
0.017792 0.023478 0
0.000000 0.011059 0
0.000000 -0.016220 0
0.019225 -0.029764 0
0.030803 -0.019090 0
0.035232 -0.004987 0
0.024754 0.000251 0
0.004123 0.007749 0
-0.024338 0.026564 0
-0.069252 0.042838 0
-0.122380 0.056049 0
-0.165568 0.070066 0
-0.204313 0.078927 0
-0.241145 0.080728 0
-0.275365 0.078113 0
-0.306245 0.072635 0
-0.333403 0.065424 0
-0.356665 0.057308 0
-0.375942 0.048791 0
-0.391316 0.040147 0
-0.402883 0.031555 0
-0.410752 0.023088 0
-0.415015 0.014756 0
-0.415732 0.006517 0
-0.412931 -0.001705 0
-0.406556 -0.009996 0
-0.396668 -0.018424 0
-0.383242 -0.027059 0
-0.366157 -0.035965 0
-0.345286 -0.045139 0
-0.320505 -0.054519 0
-0.291743 -0.063926 0
-0.258947 -0.073083 0
-0.222309 -0.081517 0
-0.182280 -0.088378 0
-0.139822 -0.092246 0
-0.096760 -0.090696 0
-0.056224 -0.079534 0
-0.018173 -0.051470 0
0.011582 -0.004834 0
0.017131 0.031328 0
0.007703 0.037926 0
0.000000 0.017792 0
0.000000 -0.025367 0
0.012283 -0.043300 0
0.012522 -0.024814 0
-0.003267 0.003777 0
-0.029298 0.031672 0
-0.070188 0.051592 0
-0.113782 0.071265 0
-0.156086 0.088244 0
-0.198599 0.100479 0
-0.237218 0.109553 0
-0.270272 0.113677 0
-0.299390 0.111955 0
-0.325024 0.105867 0
-0.347350 0.096838 0
-0.366502 0.086070 0
-0.382592 0.074435 0
-0.395696 0.062486 0
-0.405917 0.050536 0
-0.413335 0.038750 0
-0.418006 0.027178 0
-0.419961 0.015796 0
-0.419200 0.004524 0
-0.415698 -0.006753 0
-0.409422 -0.018129 0
-0.400318 -0.029712 0
-0.388279 -0.041619 0
-0.373200 -0.053914 0
-0.354964 -0.066601 0
-0.333463 -0.079595 0
-0.308614 -0.092680 0
-0.280379 -0.105460 0
-0.248862 -0.117246 0
-0.214356 -0.126859 0
-0.177447 -0.132372 0
-0.139125 -0.130719 0
-0.100774 -0.117272 0
-0.063806 -0.085916 0
-0.028238 -0.030023 0
0.000417 0.024285 0
-0.000896 0.040610 0
0.000000 0.018762 0
0.000000 -0.028503 0
-0.006675 -0.042286 0
-0.027637 -0.003540 0
-0.060357 0.036833 0
-0.093882 0.067173 0
-0.131970 0.092233 0
-0.171659 0.112462 0
-0.209154 0.127655 0
-0.244263 0.137181 0
-0.275503 0.141739 0
-0.301855 0.141099 0
-0.324194 0.135481 0
-0.343224 0.126073 0
-0.359459 0.114113 0
-0.373237 0.100666 0
-0.384755 0.086501 0
-0.394108 0.072116 0
-0.401353 0.057787 0
-0.406507 0.043644 0
-0.409567 0.029714 0
-0.410511 0.015949 0
-0.409305 0.002254 0
-0.405899 -0.011483 0
-0.400285 -0.025377 0
-0.392367 -0.039567 0
-0.382061 -0.054177 0
-0.369271 -0.069280 0
-0.353902 -0.084877 0
-0.335863 -0.100869 0
-0.315080 -0.117010 0
-0.291508 -0.132835 0
-0.265166 -0.147540 0
-0.236147 -0.159792 0
-0.204624 -0.167476 0
-0.170830 -0.167369 0
-0.134960 -0.154853 0
-0.096986 -0.124007 0
-0.056688 -0.069057 0
-0.014213 0.003986 0
-0.004863 0.038343 0
0.000000 0.016896 0
0.000000 -0.018692 0
-0.028507 -0.015662 0
-0.064971 0.028868 0
-0.098825 0.070022 0
-0.134548 0.103284 0
-0.170567 0.129368 0
-0.205641 0.148449 0
-0.237821 0.160848 0
-0.266612 0.166828 0
-0.291445 0.167144 0
-0.312135 0.162369 0
-0.329344 0.153324 0
-0.343738 0.141132 0
-0.355848 0.126852 0
-0.366014 0.111366 0
-0.374425 0.095306 0
-0.381167 0.079084 0
-0.386280 0.062935 0
-0.389771 0.046964 0
-0.391633 0.031182 0
-0.391849 0.015533 0
-0.390393 -0.000088 0
-0.387233 -0.015772 0
-0.382338 -0.031661 0
-0.375627 -0.047936 0
-0.367025 -0.064714 0
-0.356448 -0.082072 0
-0.343814 -0.100010 0
-0.329046 -0.118418 0
-0.312078 -0.137035 0
-0.292853 -0.155374 0
-0.271319 -0.172607 0
-0.247406 -0.187402 0
-0.220969 -0.197689 0
-0.191711 -0.200382 0
-0.159081 -0.191116 0
-0.122240 -0.164188 0
-0.080361 -0.112796 0
-0.034162 -0.027541 0
0.002886 0.026396 0
0.000000 0.013899 0
0.000000 0.000004 0
-0.041108 0.022686 0
-0.082097 0.066777 0
-0.120003 0.106409 0
-0.156262 0.138915 0
-0.190228 0.163326 0
-0.221360 0.179716 0
-0.248883 0.188627 0
-0.272615 0.190805 0
-0.292538 0.187262 0
-0.308918 0.178998 0
-0.322351 0.167084 0
-0.333406 0.152577 0
-0.342531 0.136389 0
-0.350024 0.119242 0
-0.356062 0.101654 0
-0.360749 0.083971 0
-0.364145 0.066390 0
-0.366285 0.048998 0
-0.367186 0.031793 0
-0.366853 0.014710 0
-0.365274 -0.002362 0
-0.362434 -0.019538 0
-0.358268 -0.036983 0
-0.352715 -0.054879 0
-0.345699 -0.073356 0
-0.337140 -0.092491 0
-0.326961 -0.112279 0
-0.315092 -0.132605 0
-0.301467 -0.153204 0
-0.286021 -0.173594 0
-0.268664 -0.192986 0
-0.249230 -0.210142 0
-0.227400 -0.223171 0
-0.202587 -0.229257 0
-0.173829 -0.224325 0
-0.139800 -0.202727 0
-0.099142 -0.157134 0
-0.051150 -0.079260 0
0.005959 0.004181 0
0.000000 0.019781 0
0.000000 0.022416 0
-0.045200 0.066435 0
-0.088805 0.107764 0
-0.128370 0.144187 0
-0.164147 0.173509 0
-0.196001 0.194466 0
-0.223856 0.207103 0
-0.247616 0.212103 0
-0.267470 0.210483 0
-0.283741 0.203447 0
-0.296899 0.192182 0
-0.307494 0.177812 0
-0.316008 0.161312 0
-0.322819 0.143470 0
-0.328196 0.124897 0
-0.332328 0.106032 0
-0.335347 0.087167 0
-0.337348 0.068471 0
-0.338403 0.050005 0
-0.338555 0.031750 0
-0.337828 0.013621 0
-0.336225 -0.004507 0
-0.333729 -0.022778 0
-0.330279 -0.041380 0
-0.325807 -0.060505 0
-0.320230 -0.080289 0
-0.313464 -0.100810 0
-0.305424 -0.122058 0
-0.296034 -0.143912 0
-0.285224 -0.166106 0
-0.272920 -0.188177 0
-0.259016 -0.209398 0
-0.243321 -0.228665 0
-0.225469 -0.244332 0
-0.204790 -0.253954 0
-0.180175 -0.253904 0
-0.150028 -0.238875 0
-0.112543 -0.201445 0
-0.066711 -0.132642 0
-0.014936 -0.024754 0
0.000000 0.019858 0
0.000000 0.045205 0
-0.044788 0.111491 0
-0.088911 0.149947 0
-0.128150 0.181751 0
-0.162563 0.206546 0
-0.192197 0.223034 0
-0.217246 0.231330 0
-0.237992 0.232241 0
-0.254872 0.226930 0
-0.268391 0.216691 0
-0.279089 0.202751 0
-0.287474 0.186193 0
-0.293968 0.167902 0
-0.298912 0.148578 0
-0.302568 0.128751 0
-0.305143 0.108805 0
-0.306801 0.088991 0
-0.307673 0.069446 0
-0.307860 0.050204 0
-0.307433 0.031218 0
-0.306436 0.012380 0
-0.304882 -0.006461 0
-0.302757 -0.025484 0
-0.299997 -0.044905 0
-0.296525 -0.064928 0
-0.292247 -0.085700 0
-0.287063 -0.107298 0
-0.280873 -0.129709 0
-0.273583 -0.152805 0
-0.265110 -0.176318 0
-0.255366 -0.199802 0
-0.244241 -0.222585 0
-0.231553 -0.243689 0
-0.216974 -0.261702 0
-0.199905 -0.274552 0
-0.179334 -0.279087 0
-0.153740 -0.270359 0
-0.121300 -0.240452 0
-0.081029 -0.176867 0
-0.036241 -0.062530 0
0.000000 0.004845 0
0.000000 0.067204 0
-0.042496 0.155346 0
-0.084996 0.191126 0
-0.122490 0.217839 0
-0.154840 0.237556 0
-0.182125 0.249150 0
-0.204665 0.252898 0
-0.222917 0.249729 0
-0.237440 0.240883 0
-0.248807 0.227665 0
-0.257558 0.211265 0
-0.264164 0.192691 0
-0.269011 0.172750 0
-0.272420 0.152070 0
-0.274661 0.131128 0
-0.275957 0.110265 0
-0.276500 0.089698 0
-0.276451 0.069529 0
-0.275939 0.049765 0
-0.275062 0.030326 0
-0.273884 0.011070 0
-0.272428 -0.008186 0
-0.270682 -0.027663 0
-0.268578 -0.047612 0
-0.266028 -0.068255 0
-0.262919 -0.089752 0
-0.259131 -0.112185 0
-0.254543 -0.135537 0
-0.249039 -0.159674 0
-0.242513 -0.184323 0
-0.234861 -0.209047 0
-0.225963 -0.233211 0
-0.215654 -0.255932 0
-0.203662 -0.275980 0
-0.189515 -0.291593 0
-0.172386 -0.300069 0
-0.150933 -0.296909 0
-0.123263 -0.274156 0
-0.087478 -0.217701 0
-0.043694 -0.105783 0
0.000000 -0.016384 0
0.000000 0.087701 0
-0.039055 0.196487 0
-0.078691 0.229940 0
-0.113545 0.251595 0
-0.143355 0.266182 0
-0.168185 0.272859 0
-0.188390 0.272122 0
-0.204481 0.265016 0
-0.217044 0.252820 0
-0.226648 0.236810 0
-0.233803 0.218108 0
-0.238940 0.197645 0
-0.242424 0.176159 0
-0.244565 0.154228 0
-0.245636 0.132287 0
-0.245877 0.110644 0
-0.245500 0.089485 0
-0.244692 0.068885 0
-0.243611 0.048815 0
-0.242380 0.029163 0
-0.241082 0.009746 0
-0.239752 -0.009663 0
-0.238378 -0.029334 0
-0.236886 -0.049560 0
-0.235172 -0.070587 0
-0.233106 -0.092596 0
-0.230543 -0.115674 0
-0.227338 -0.139800 0
-0.223354 -0.164834 0
-0.218462 -0.190496 0
-0.212538 -0.216353 0
-0.205453 -0.241792 0
-0.197047 -0.265989 0
-0.187093 -0.287841 0
-0.175226 -0.305828 0
-0.160805 -0.317668 0
-0.142689 -0.319483 0
-0.118957 -0.303906 0
-0.086947 -0.256436 0
-0.044856 -0.150008 0
0.000000 -0.038849 0
0.000000 0.106259 0
-0.034936 0.234036 0
-0.071035 0.265616 0
-0.102743 0.282503 0
-0.129731 0.292196 0
-0.152043 0.294184 0
-0.170020 0.289195 0
-0.184161 0.278383 0
-0.195018 0.263050 0
-0.203118 0.244423 0
-0.208926 0.223557 0
-0.212835 0.201312 0
-0.215186 0.178375 0
-0.216280 0.155282 0
-0.216388 0.132439 0
-0.215760 0.110129 0
-0.214626 0.088513 0
-0.213194 0.067640 0
-0.211648 0.047453 0
-0.210136 0.027796 0
-0.208761 0.008442 0
-0.207568 -0.010889 0
-0.206545 -0.030529 0
-0.205609 -0.050817 0
-0.204639 -0.072035 0
-0.203482 -0.094381 0
-0.201974 -0.117953 0
-0.199946 -0.142726 0
-0.197241 -0.168551 0
-0.193716 -0.195138 0
-0.189231 -0.222055 0
-0.183646 -0.248703 0
-0.176801 -0.274292 0
-0.168495 -0.297801 0
-0.158436 -0.317881 0
-0.146138 -0.332606 0
-0.130693 -0.338757 0
-0.110364 -0.329898 0
-0.082270 -0.291802 0
-0.043587 -0.192730 0
0.000000 -0.061240 0
0.000000 0.122637 0
-0.030463 0.267522 0
-0.062693 0.297747 0
-0.091007 0.310291 0
-0.115039 0.315482 0
-0.134817 0.313149 0
-0.150647 0.304240 0
-0.162976 0.290014 0
-0.172300 0.271778 0
-0.179083 0.250717 0
-0.183736 0.227825 0
-0.186613 0.203905 0
-0.188030 0.179604 0
-0.188271 0.155430 0
-0.187602 0.131768 0
-0.186276 0.108882 0
-0.184532 0.086919 0
-0.182597 0.065907 0
-0.180679 0.045757 0
-0.178947 0.026276 0
-0.177526 0.007178 0
-0.176471 -0.011878 0
-0.175764 -0.031293 0
-0.175315 -0.051466 0
-0.174982 -0.072714 0
-0.174594 -0.095261 0
-0.173964 -0.119210 0
-0.172907 -0.144533 0
-0.171255 -0.171064 0
-0.168852 -0.198507 0
-0.165556 -0.226423 0
-0.161223 -0.254221 0
-0.155692 -0.281140 0
-0.148777 -0.306206 0
-0.140229 -0.328185 0
-0.129677 -0.345412 0
-0.116443 -0.355257 0
-0.099113 -0.352329 0
-0.074962 -0.323212 0
-0.040557 -0.232278 0
0.000000 -0.082436 0
0.000000 0.136722 0
-0.025842 0.296729 0
-0.054079 0.326160 0
-0.078916 0.334849 0
-0.099961 0.336006 0
-0.117231 0.329792 0
-0.130986 0.317354 0
-0.141613 0.300037 0
-0.149533 0.279156 0
-0.155146 0.255859 0
-0.158805 0.231087 0
-0.160825 0.205607 0
-0.161489 0.180033 0
-0.161061 0.154854 0
-0.159794 0.130444 0
-0.157934 0.107058 0
-0.155726 0.084835 0
-0.153409 0.063787 0
-0.151208 0.043803 0
-0.149316 0.024643 0
-0.147873 0.005965 0
-0.146945 -0.012651 0
-0.146511 -0.031685 0
-0.146465 -0.051599 0
-0.146650 -0.072755 0
-0.146874 -0.095400 0
-0.146935 -0.119640 0
-0.146640 -0.145435 0
-0.145815 -0.172605 0
-0.144306 -0.200837 0
-0.141975 -0.229685 0
-0.138681 -0.258567 0
-0.134276 -0.286738 0
-0.128581 -0.313265 0
-0.121380 -0.336981 0
-0.112383 -0.356392 0
-0.101103 -0.369321 0
-0.086495 -0.371378 0
-0.066212 -0.350358 0
-0.036533 -0.267692 0
0.000000 -0.101797 0
0.000000 0.148479 0
-0.021195 0.321601 0
-0.045435 0.350821 0
-0.066814 0.356173 0
-0.084907 0.353796 0
-0.099725 0.344174 0
-0.111482 0.328622 0
-0.120500 0.308561 0
-0.127129 0.285311 0
-0.131699 0.259990 0
-0.134512 0.233504 0
-0.135836 0.206589 0
-0.135921 0.179840 0
-0.135004 0.153734 0
-0.133317 0.128640 0
-0.131095 0.104814 0
-0.128576 0.082395 0
-0.126005 0.061389 0
-0.123618 0.041664 0
-0.121625 0.022940 0
-0.120185 0.004808 0
-0.119371 -0.013240 0
-0.119154 -0.031774 0
-0.119415 -0.051327 0
-0.119979 -0.072305 0
-0.120642 -0.094976 0
-0.121194 -0.119445 0
-0.121442 -0.145653 0
-0.121221 -0.173398 0
-0.120386 -0.202347 0
-0.118812 -0.232048 0
-0.116373 -0.261921 0
-0.112936 -0.291240 0
-0.108343 -0.319102 0
-0.102405 -0.344383 0
-0.094888 -0.365689 0
-0.085452 -0.381145 0
-0.073384 -0.387221 0
-0.056819 -0.373173 0
-0.032005 -0.298490 0
0.000000 -0.118969 0
0.000000 0.157917 0
-0.016581 0.342165 0
-0.036887 0.371779 0
-0.054882 0.374321 0
-0.070097 0.368917 0
-0.082540 0.356368 0
-0.092382 0.338129 0
-0.099881 0.315683 0
-0.105319 0.290355 0
-0.108967 0.263242 0
-0.111069 0.235224 0
-0.111853 0.207016 0
-0.111529 0.179201 0
-0.110303 0.152250 0
-0.108380 0.126534 0
-0.105974 0.102317 0
-0.103311 0.079745 0
-0.100626 0.058829 0
-0.098162 0.039423 0
-0.096140 0.021211 0
-0.094729 0.003711 0
-0.094013 -0.013682 0
-0.093948 -0.031641 0
-0.094403 -0.050774 0
-0.095189 -0.071528 0
-0.096098 -0.094186 0
-0.096925 -0.118839 0
-0.097493 -0.145408 0
-0.097652 -0.173661 0
-0.097281 -0.203245 0
-0.096272 -0.233698 0
-0.094523 -0.264442 0
-0.091924 -0.294768 0
-0.088342 -0.323796 0
-0.083619 -0.350436 0
-0.077568 -0.373345 0
-0.069954 -0.390825 0
-0.060324 -0.400011 0
-0.047302 -0.391737 0
-0.027299 -0.324512 0
0.000000 -0.133802 0
0.000000 0.165060 0
-0.012020 0.358488 0
-0.028480 0.389122 0
-0.043190 0.389383 0
-0.055620 0.381454 0
-0.065774 0.366459 0
-0.073785 0.345963 0
-0.079852 0.321498 0
-0.084198 0.294397 0
-0.087032 0.265739 0
-0.088553 0.236390 0
-0.088942 0.207049 0
-0.088374 0.178290 0
-0.087017 0.150586 0
-0.085045 0.124312 0
-0.082644 0.099745 0
-0.080015 0.077047 0
-0.077378 0.056240 0
-0.074962 0.037177 0
-0.072991 0.019508 0
-0.071643 0.002681 0
-0.071003 -0.014021 0
-0.071016 -0.031383 0
-0.071534 -0.050086 0
-0.072365 -0.070610 0
-0.073309 -0.093240 0
-0.074186 -0.118049 0
-0.074847 -0.144926 0
-0.075170 -0.173610 0
-0.075064 -0.203727 0
-0.074447 -0.234805 0
-0.073244 -0.266269 0
-0.071371 -0.297421 0
-0.068728 -0.327406 0
-0.065191 -0.355157 0
-0.060617 -0.379354 0
-0.054843 -0.398390 0
-0.047603 -0.409873 0
-0.037953 -0.406198 0
-0.022609 -0.345792 0
0.000000 -0.146268 0
0.000000 0.169937 0
-0.007511 0.370645 0
-0.020209 0.402949 0
-0.031736 0.401461 0
-0.041476 0.391501 0
-0.049427 0.374533 0
-0.055687 0.352207 0
-0.060405 0.326096 0
-0.063744 0.297535 0
-0.065867 0.267597 0
-0.066922 0.237135 0
-0.067051 0.206837 0
-0.066389 0.177275 0
-0.065071 0.148922 0
-0.063234 0.122162 0
-0.061030 0.097287 0
-0.058627 0.074478 0
-0.056213 0.053776 0
-0.053991 0.035036 0
-0.052168 0.017892 0
-0.050919 0.001723 0
-0.050328 -0.014309 0
-0.050326 -0.031110 0
-0.050756 -0.049426 0
-0.051435 -0.069754 0
-0.052195 -0.092364 0
-0.052896 -0.117302 0
-0.053432 -0.144424 0
-0.053721 -0.173444 0
-0.053703 -0.203969 0
-0.053328 -0.235518 0
-0.052549 -0.267518 0
-0.051312 -0.299284 0
-0.049550 -0.329976 0
-0.047179 -0.358547 0
-0.044097 -0.383692 0
-0.040198 -0.403839 0
-0.035333 -0.416901 0
-0.028908 -0.416730 0
-0.018032 -0.362465 0
0.000000 -0.156411 0
0.000000 0.172571 0
-0.003059 0.378696 0
-0.012032 0.413347 0
-0.020466 0.410650 0
-0.027600 0.399145 0
-0.033426 0.380670 0
-0.038008 0.356940 0
-0.041448 0.329556 0
-0.043858 0.299859 0
-0.045353 0.268917 0
-0.046040 0.237574 0
-0.046022 0.206516 0
-0.045398 0.176310 0
-0.044267 0.147431 0
-0.042732 0.120271 0
-0.040907 0.095138 0
-0.038919 0.072229 0
-0.036912 0.051604 0
-0.035044 0.033132 0
-0.033478 0.016435 0
-0.032367 0.000840 0
-0.031786 -0.014614 0
-0.031658 -0.030955 0
-0.031828 -0.048978 0
-0.032152 -0.069172 0
-0.032515 -0.091779 0
-0.032836 -0.116812 0
-0.033058 -0.144101 0
-0.033145 -0.173339 0
-0.033072 -0.204120 0
-0.032821 -0.235959 0
-0.032372 -0.268285 0
-0.031702 -0.300420 0
-0.030781 -0.331539 0
-0.029561 -0.360610 0
-0.027986 -0.386335 0
-0.025994 -0.407154 0
-0.023512 -0.421163 0
-0.020196 -0.423499 0
-0.013601 -0.374700 0
0.000000 -0.164301 0
0.000000 0.172996 0
0.001268 0.382677 0
-0.003863 0.420355 0
-0.009277 0.417028 0
-0.013890 0.404462 0
-0.017656 0.384941 0
-0.020619 0.360229 0
-0.022837 0.331945 0
-0.024377 0.301440 0
-0.025309 0.269779 0
-0.025700 0.237804 0
-0.025619 0.206195 0
-0.025130 0.175520 0
-0.024300 0.146256 0
-0.023197 0.118802 0
-0.021896 0.093474 0
-0.020483 0.070484 0
-0.019050 0.049901 0
-0.017692 0.031602 0
-0.016499 0.015215 0
-0.015557 0.000031 0
-0.014947 -0.015018 0
-0.014559 -0.031068 0
-0.014295 -0.048932 0
-0.014080 -0.069067 0
-0.013872 -0.091680 0
-0.013655 -0.116759 0
-0.013427 -0.144115 0
-0.013195 -0.173429 0
-0.012969 -0.204293 0
-0.012761 -0.236219 0
-0.012581 -0.268637 0
-0.012437 -0.300875 0
-0.012331 -0.332117 0
-0.012259 -0.361342 0
-0.012204 -0.387260 0
-0.012148 -0.408313 0
-0.012065 -0.422699 0
-0.011780 -0.426641 0
-0.009306 -0.382661 0
0.000000 -0.170012 0
0.000000 0.171303 0
0.005492 0.382560 0
0.004344 0.423893 0
0.001929 0.420677 0
-0.000207 0.407524 0
-0.001962 0.387399 0
-0.003350 0.362121 0
-0.004388 0.333314 0
-0.005097 0.302331 0
-0.005505 0.270240 0
-0.005643 0.237885 0
-0.005544 0.205946 0
-0.005244 0.174990 0
-0.004776 0.145497 0
-0.004178 0.117868 0
-0.003488 0.092424 0
-0.002746 0.069383 0
-0.001991 0.048813 0
-0.001251 0.030581 0
-0.000525 0.014301 0
0.000195 -0.000711 0
0.000918 -0.015611 0
0.001698 -0.031607 0
0.002528 -0.049457 0
0.003395 -0.069594 0
0.004266 -0.092204 0
0.005096 -0.117258 0
0.005837 -0.144561 0
0.006440 -0.173796 0
0.006862 -0.204554 0
0.007061 -0.236348 0
0.006997 -0.268609 0
0.006630 -0.300669 0
0.005924 -0.331717 0
0.004846 -0.360737 0
0.003366 -0.386446 0
0.001465 -0.407292 0
-0.000874 -0.421531 0
-0.003575 -0.426258 0
-0.005106 -0.386480 0
0.000000 -0.173607 0
0.000000 0.167504 0
0.009732 0.378333 0
0.012639 0.423919 0
0.013252 0.421580 0
0.013576 0.408353 0
0.013803 0.388084 0
0.013964 0.362655 0
0.014087 0.333692 0
0.014194 0.302557 0
0.014300 0.270325 0
0.014410 0.237843 0
0.014523 0.205796 0
0.014633 0.174752 0
0.014735 0.145190 0
0.014824 0.117514 0
0.014898 0.092042 0
0.014965 0.068987 0
0.015045 0.048406 0
0.015185 0.030136 0
0.015466 0.013769 0
0.015989 -0.001412 0
0.016874 -0.016520 0
0.018065 -0.032678 0
0.019464 -0.050629 0
0.020973 -0.070804 0
0.022492 -0.093381 0
0.023918 -0.118330 0
0.025155 -0.145459 0
0.026117 -0.174455 0
0.026724 -0.204914 0
0.026902 -0.236354 0
0.026581 -0.268206 0
0.025687 -0.299802 0
0.024150 -0.330332 0
0.021896 -0.358784 0
0.018854 -0.383879 0
0.014964 -0.404072 0
0.010180 -0.417660 0
0.004530 -0.422409 0
-0.000928 -0.386235 0
0.000000 -0.175118 0
0.000000 0.161571 0
0.014060 0.369921 0
0.021132 0.420374 0
0.024816 0.419740 0
0.027573 0.406972 0
0.029759 0.387010 0
0.031459 0.361837 0
0.032741 0.333084 0
0.033673 0.302117 0
0.034313 0.270024 0
0.034702 0.237662 0
0.034870 0.205723 0
0.034840 0.174779 0
0.034637 0.145306 0
0.034288 0.117704 0
0.033832 0.092283 0
0.033325 0.069236 0
0.032852 0.048593 0
0.032530 0.030160 0
0.032504 0.013496 0
0.032934 -0.002119 0
0.033939 -0.017687 0
0.035442 -0.034197 0
0.037295 -0.052366 0
0.039334 -0.072622 0
0.041394 -0.095148 0
0.043320 -0.119921 0
0.044970 -0.146760 0
0.046217 -0.175365 0
0.046945 -0.205339 0
0.047048 -0.236204 0
0.046419 -0.267394 0
0.044953 -0.298239 0
0.042539 -0.327926 0
0.039064 -0.355442 0
0.034413 -0.379514 0