# vtk DataFile Version 2.0
generated by CFD-lab course output (written by Tobias Neckel) 
ASCII

DATASET STRUCTURED_GRID
DIMENSIONS  41 41 1 
POINTS 1681 float

0.150000 0.150000 0
0.167857 0.150000 0
0.185714 0.150000 0
0.203571 0.150000 0
0.221429 0.150000 0
0.239286 0.150000 0
0.257143 0.150000 0
0.275000 0.150000 0
0.292857 0.150000 0
0.310714 0.150000 0
0.328571 0.150000 0
0.346429 0.150000 0
0.364286 0.150000 0
0.382143 0.150000 0
0.400000 0.150000 0
0.417857 0.150000 0
0.435714 0.150000 0
0.453571 0.150000 0
0.471429 0.150000 0
0.489286 0.150000 0
0.507143 0.150000 0
0.525000 0.150000 0
0.542857 0.150000 0
0.560714 0.150000 0
0.578571 0.150000 0
0.596429 0.150000 0
0.614286 0.150000 0
0.632143 0.150000 0
0.650000 0.150000 0
0.667857 0.150000 0
0.685714 0.150000 0
0.703571 0.150000 0
0.721429 0.150000 0
0.739286 0.150000 0
0.757143 0.150000 0
0.775000 0.150000 0
0.792857 0.150000 0
0.810714 0.150000 0
0.828571 0.150000 0
0.846429 0.150000 0
0.864286 0.150000 0
0.150000 0.167857 0
0.167857 0.167857 0
0.185714 0.167857 0
0.203571 0.167857 0
0.221429 0.167857 0
0.239286 0.167857 0
0.257143 0.167857 0
0.275000 0.167857 0
0.292857 0.167857 0
0.310714 0.167857 0
0.328571 0.167857 0
0.346429 0.167857 0
0.364286 0.167857 0
0.382143 0.167857 0
0.400000 0.167857 0
0.417857 0.167857 0
0.435714 0.167857 0
0.453571 0.167857 0
0.471429 0.167857 0
0.489286 0.167857 0
0.507143 0.167857 0
0.525000 0.167857 0
0.542857 0.167857 0
0.560714 0.167857 0
0.578571 0.167857 0
0.596429 0.167857 0
0.614286 0.167857 0
0.632143 0.167857 0
0.650000 0.167857 0
0.667857 0.167857 0
0.685714 0.167857 0
0.703571 0.167857 0
0.721429 0.167857 0
0.739286 0.167857 0
0.757143 0.167857 0
0.775000 0.167857 0
0.792857 0.167857 0
0.810714 0.167857 0
0.828571 0.167857 0
0.846429 0.167857 0
0.864286 0.167857 0
0.150000 0.185714 0
0.167857 0.185714 0
0.185714 0.185714 0
0.203571 0.185714 0
0.221429 0.185714 0
0.239286 0.185714 0
0.257143 0.185714 0
0.275000 0.185714 0
0.292857 0.185714 0
0.310714 0.185714 0
0.328571 0.185714 0
0.346429 0.185714 0
0.364286 0.185714 0
0.382143 0.185714 0
0.400000 0.185714 0
0.417857 0.185714 0
0.435714 0.185714 0
0.453571 0.185714 0
0.471429 0.185714 0
0.489286 0.185714 0
0.507143 0.185714 0
0.525000 0.185714 0
0.542857 0.185714 0
0.560714 0.185714 0
0.578571 0.185714 0
0.596429 0.185714 0
0.614286 0.185714 0
0.632143 0.185714 0
0.650000 0.185714 0
0.667857 0.185714 0
0.685714 0.185714 0
0.703571 0.185714 0
0.721429 0.185714 0
0.739286 0.185714 0
0.757143 0.185714 0
0.775000 0.185714 0
0.792857 0.185714 0
0.810714 0.185714 0
0.828571 0.185714 0
0.846429 0.185714 0
0.864286 0.185714 0
0.150000 0.203571 0
0.167857 0.203571 0
0.185714 0.203571 0
0.203571 0.203571 0
0.221429 0.203571 0
0.239286 0.203571 0
0.257143 0.203571 0
0.275000 0.203571 0
0.292857 0.203571 0
0.310714 0.203571 0
0.328571 0.203571 0
0.346429 0.203571 0
0.364286 0.203571 0
0.382143 0.203571 0
0.400000 0.203571 0
0.417857 0.203571 0
0.435714 0.203571 0
0.453571 0.203571 0
0.471429 0.203571 0
0.489286 0.203571 0
0.507143 0.203571 0
0.525000 0.203571 0
0.542857 0.203571 0
0.560714 0.203571 0
0.578571 0.203571 0
0.596429 0.203571 0
0.614286 0.203571 0
0.632143 0.203571 0
0.650000 0.203571 0
0.667857 0.203571 0
0.685714 0.203571 0
0.703571 0.203571 0
0.721429 0.203571 0
0.739286 0.203571 0
0.757143 0.203571 0
0.775000 0.203571 0
0.792857 0.203571 0
0.810714 0.203571 0
0.828571 0.203571 0
0.846429 0.203571 0
0.864286 0.203571 0
0.150000 0.221429 0
0.167857 0.221429 0
0.185714 0.221429 0
0.203571 0.221429 0
0.221429 0.221429 0
0.239286 0.221429 0
0.257143 0.221429 0
0.275000 0.221429 0
0.292857 0.221429 0
0.310714 0.221429 0
0.328571 0.221429 0
0.346429 0.221429 0
0.364286 0.221429 0
0.382143 0.221429 0
0.400000 0.221429 0
0.417857 0.221429 0
0.435714 0.221429 0
0.453571 0.221429 0
0.471429 0.221429 0
0.489286 0.221429 0
0.507143 0.221429 0
0.525000 0.221429 0
0.542857 0.221429 0
0.560714 0.221429 0
0.578571 0.221429 0
0.596429 0.221429 0
0.614286 0.221429 0
0.632143 0.221429 0
0.650000 0.221429 0
0.667857 0.221429 0
0.685714 0.221429 0
0.703571 0.221429 0
0.721429 0.221429 0
0.739286 0.221429 0
0.757143 0.221429 0
0.775000 0.221429 0
0.792857 0.221429 0
0.810714 0.221429 0
0.828571 0.221429 0
0.846429 0.221429 0
0.864286 0.221429 0
0.150000 0.239286 0
0.167857 0.239286 0
0.185714 0.239286 0
0.203571 0.239286 0
0.221429 0.239286 0
0.239286 0.239286 0
0.257143 0.239286 0
0.275000 0.239286 0
0.292857 0.239286 0
0.310714 0.239286 0
0.328571 0.239286 0
0.346429 0.239286 0
0.364286 0.239286 0
0.382143 0.239286 0
0.400000 0.239286 0
0.417857 0.239286 0
0.435714 0.239286 0
0.453571 0.239286 0
0.471429 0.239286 0
0.489286 0.239286 0
0.507143 0.239286 0
0.525000 0.239286 0
0.542857 0.239286 0
0.560714 0.239286 0
0.578571 0.239286 0
0.596429 0.239286 0
0.614286 0.239286 0
0.632143 0.239286 0
0.650000 0.239286 0
0.667857 0.239286 0
0.685714 0.239286 0
0.703571 0.239286 0
0.721429 0.239286 0
0.739286 0.239286 0
0.757143 0.239286 0
0.775000 0.239286 0
0.792857 0.239286 0
0.810714 0.239286 0
0.828571 0.239286 0
0.846429 0.239286 0
0.864286 0.239286 0
0.150000 0.257143 0
0.167857 0.257143 0
0.185714 0.257143 0
0.203571 0.257143 0
0.221429 0.257143 0
0.239286 0.257143 0
0.257143 0.257143 0
0.275000 0.257143 0
0.292857 0.257143 0
0.310714 0.257143 0
0.328571 0.257143 0
0.346429 0.257143 0
0.364286 0.257143 0
0.382143 0.257143 0
0.400000 0.257143 0
0.417857 0.257143 0
0.435714 0.257143 0
0.453571 0.257143 0
0.471429 0.257143 0
0.489286 0.257143 0
0.507143 0.257143 0
0.525000 0.257143 0
0.542857 0.257143 0
0.560714 0.257143 0
0.578571 0.257143 0
0.596429 0.257143 0
0.614286 0.257143 0
0.632143 0.257143 0
0.650000 0.257143 0
0.667857 0.257143 0
0.685714 0.257143 0
0.703571 0.257143 0
0.721429 0.257143 0
0.739286 0.257143 0
0.757143 0.257143 0
0.775000 0.257143 0
0.792857 0.257143 0
0.810714 0.257143 0
0.828571 0.257143 0
0.846429 0.257143 0
0.864286 0.257143 0
0.150000 0.275000 0
0.167857 0.275000 0
0.185714 0.275000 0
0.203571 0.275000 0
0.221429 0.275000 0
0.239286 0.275000 0
0.257143 0.275000 0
0.275000 0.275000 0
0.292857 0.275000 0
0.310714 0.275000 0
0.328571 0.275000 0
0.346429 0.275000 0
0.364286 0.275000 0
0.382143 0.275000 0
0.400000 0.275000 0
0.417857 0.275000 0
0.435714 0.275000 0
0.453571 0.275000 0
0.471429 0.275000 0
0.489286 0.275000 0
0.507143 0.275000 0
0.525000 0.275000 0
0.542857 0.275000 0
0.560714 0.275000 0
0.578571 0.275000 0
0.596429 0.275000 0
0.614286 0.275000 0
0.632143 0.275000 0
0.650000 0.275000 0
0.667857 0.275000 0
0.685714 0.275000 0
0.703571 0.275000 0
0.721429 0.275000 0
0.739286 0.275000 0
0.757143 0.275000 0
0.775000 0.275000 0
0.792857 0.275000 0
0.810714 0.275000 0
0.828571 0.275000 0
0.846429 0.275000 0
0.864286 0.275000 0
0.150000 0.292857 0
0.167857 0.292857 0
0.185714 0.292857 0
0.203571 0.292857 0
0.221429 0.292857 0
0.239286 0.292857 0
0.257143 0.292857 0
0.275000 0.292857 0
0.292857 0.292857 0
0.310714 0.292857 0
0.328571 0.292857 0
0.346429 0.292857 0
0.364286 0.292857 0
0.382143 0.292857 0
0.400000 0.292857 0
0.417857 0.292857 0
0.435714 0.292857 0
0.453571 0.292857 0
0.471429 0.292857 0
0.489286 0.292857 0
0.507143 0.292857 0
0.525000 0.292857 0
0.542857 0.292857 0
0.560714 0.292857 0
0.578571 0.292857 0
0.596429 0.292857 0
0.614286 0.292857 0
0.632143 0.292857 0
0.650000 0.292857 0
0.667857 0.292857 0
0.685714 0.292857 0
0.703571 0.292857 0
0.721429 0.292857 0
0.739286 0.292857 0
0.757143 0.292857 0
0.775000 0.292857 0
0.792857 0.292857 0
0.810714 0.292857 0
0.828571 0.292857 0
0.846429 0.292857 0
0.864286 0.292857 0
0.150000 0.310714 0
0.167857 0.310714 0
0.185714 0.310714 0
0.203571 0.310714 0
0.221429 0.310714 0
0.239286 0.310714 0
0.257143 0.310714 0
0.275000 0.310714 0
0.292857 0.310714 0
0.310714 0.310714 0
0.328571 0.310714 0
0.346429 0.310714 0
0.364286 0.310714 0
0.382143 0.310714 0
0.400000 0.310714 0
0.417857 0.310714 0
0.435714 0.310714 0
0.453571 0.310714 0
0.471429 0.310714 0
0.489286 0.310714 0
0.507143 0.310714 0
0.525000 0.310714 0
0.542857 0.310714 0
0.560714 0.310714 0
0.578571 0.310714 0
0.596429 0.310714 0
0.614286 0.310714 0
0.632143 0.310714 0
0.650000 0.310714 0
0.667857 0.310714 0
0.685714 0.310714 0
0.703571 0.310714 0
0.721429 0.310714 0
0.739286 0.310714 0
0.757143 0.310714 0
0.775000 0.310714 0
0.792857 0.310714 0
0.810714 0.310714 0
0.828571 0.310714 0
0.846429 0.310714 0
0.864286 0.310714 0
0.150000 0.328571 0
0.167857 0.328571 0
0.185714 0.328571 0
0.203571 0.328571 0
0.221429 0.328571 0
0.239286 0.328571 0
0.257143 0.328571 0
0.275000 0.328571 0
0.292857 0.328571 0
0.310714 0.328571 0
0.328571 0.328571 0
0.346429 0.328571 0
0.364286 0.328571 0
0.382143 0.328571 0
0.400000 0.328571 0
0.417857 0.328571 0
0.435714 0.328571 0
0.453571 0.328571 0
0.471429 0.328571 0
0.489286 0.328571 0
0.507143 0.328571 0
0.525000 0.328571 0
0.542857 0.328571 0
0.560714 0.328571 0
0.578571 0.328571 0
0.596429 0.328571 0
0.614286 0.328571 0
0.632143 0.328571 0
0.650000 0.328571 0
0.667857 0.328571 0
0.685714 0.328571 0
0.703571 0.328571 0
0.721429 0.328571 0
0.739286 0.328571 0
0.757143 0.328571 0
0.775000 0.328571 0
0.792857 0.328571 0
0.810714 0.328571 0
0.828571 0.328571 0
0.846429 0.328571 0
0.864286 0.328571 0
0.150000 0.346429 0
0.167857 0.346429 0
0.185714 0.346429 0
0.203571 0.346429 0
0.221429 0.346429 0
0.239286 0.346429 0
0.257143 0.346429 0
0.275000 0.346429 0
0.292857 0.346429 0
0.310714 0.346429 0
0.328571 0.346429 0
0.346429 0.346429 0
0.364286 0.346429 0
0.382143 0.346429 0
0.400000 0.346429 0
0.417857 0.346429 0
0.435714 0.346429 0
0.453571 0.346429 0
0.471429 0.346429 0
0.489286 0.346429 0
0.507143 0.346429 0
0.525000 0.346429 0
0.542857 0.346429 0
0.560714 0.346429 0
0.578571 0.346429 0
0.596429 0.346429 0
0.614286 0.346429 0
0.632143 0.346429 0
0.650000 0.346429 0
0.667857 0.346429 0
0.685714 0.346429 0
0.703571 0.346429 0
0.721429 0.346429 0
0.739286 0.346429 0
0.757143 0.346429 0
0.775000 0.346429 0
0.792857 0.346429 0
0.810714 0.346429 0
0.828571 0.346429 0
0.846429 0.346429 0
[...]
POINT_DATA 1681 

VECTORS velocity float
0.000000 0.000000 0
0.006210 0.000000 0
0.012592 0.000000 0
0.015035 0.000000 0
0.014811 0.000000 0
0.014417 0.000000 0
0.012299 0.000000 0
0.016497 0.000000 0
0.022159 0.000000 0
0.012399 0.000000 0
-0.005562 0.000000 0
-0.025851 0.000000 0
-0.046610 0.000000 0
-0.066752 0.000000 0
-0.085533 0.000000 0
-0.102513 0.000000 0
-0.117528 0.000000 0
-0.130436 0.000000 0
-0.141197 0.000000 0
-0.149809 0.000000 0
-0.156286 0.000000 0
-0.160648 0.000000 0
-0.162898 0.000000 0
-0.163053 0.000000 0
-0.160989 0.000000 0
-0.156591 0.000000 0
-0.149796 0.000000 0
-0.140529 0.000000 0
-0.128726 0.000000 0
-0.114343 0.000000 0
-0.097464 0.000000 0
-0.078174 0.000000 0
-0.056743 0.000000 0
-0.033665 0.000000 0
-0.009767 0.000000 0
0.013545 0.000000 0
0.028949 0.000000 0
0.031613 0.000000 0
0.023590 0.000000 0
0.011120 0.000000 0
0.000000 0.000000 0
0.000000 -0.006210 0
0.016348 -0.012592 0
0.029950 -0.008824 0
0.035501 -0.002219 0
0.034846 0.000618 0
0.035148 0.002511 0
0.027172 -0.002080 0
0.008629 -0.009860 0
-0.015780 0.004097 0
-0.047591 0.027721 0
-0.086068 0.038251 0
-0.126777 0.041048 0
-0.167051 0.040900 0
-0.205132 0.038923 0
-0.239910 0.035762 0
-0.270759 0.031995 0
-0.297401 0.027922 0
-0.319710 0.023669 0
-0.337685 0.019373 0
-0.351374 0.015089 0
-0.360849 0.010840 0
-0.366170 0.006611 0
-0.367366 0.002405 0
-0.364424 -0.001909 0
-0.357285 -0.006462 0
-0.345873 -0.011193 0
-0.330058 -0.016062 0
-0.309704 -0.021070 0
-0.284684 -0.026185 0
-0.254926 -0.031262 0
-0.220483 -0.036170 0
-0.181562 -0.040721 0
-0.138690 -0.044509 0
-0.092924 -0.046976 0
-0.046217 -0.047210 0
-0.002054 -0.038716 0
0.033416 -0.018068 0
0.049372 0.005359 0
0.038110 0.020492 0
0.017888 0.023590 0
0.000000 0.011120 0
0.000000 -0.016348 0
0.019333 -0.029950 0
0.030976 -0.019153 0
0.035465 -0.004896 0
0.025012 0.000353 0
0.004334 0.007674 0
-0.024183 0.026520 0
-0.069177 0.042952 0
-0.122544 0.056220 0
-0.165867 0.070288 0
-0.204712 0.079186 0
-0.241645 0.080984 0
-0.275965 0.078354 0
-0.306940 0.072858 0
-0.334188 0.065627 0
-0.357536 0.057491 0
-0.376891 0.048952 0
-0.392334 0.040284 0
-0.403960 0.031664 0
-0.411874 0.023164 0
-0.416167 0.014796 0
-0.416896 0.006517 0
-0.414087 -0.001746 0
-0.407683 -0.010081 0
-0.397747 -0.018551 0
-0.384250 -0.027227 0
-0.367077 -0.036169 0
-0.346100 -0.045374 0
-0.321201 -0.054778 0
-0.292310 -0.064200 0
-0.259379 -0.073364 0
-0.222605 -0.081794 0
-0.182446 -0.088638 0
-0.139872 -0.092473 0
-0.096714 -0.090870 0
-0.056104 -0.079633 0
-0.018009 -0.051427 0
0.011743 -0.004694 0
0.017188 0.031484 0
0.007728 0.038110 0
0.000000 0.017888 0
0.000000 -0.025544 0
0.012379 -0.043568 0
0.012726 -0.024956 0
-0.003036 0.003745 0
-0.029028 0.031749 0
-0.070028 0.051706 0
-0.113847 0.071432 0
-0.156294 0.088502 0
-0.198931 0.100787 0
-0.237670 0.109888 0
-0.270813 0.114029 0
-0.300018 0.112301 0
-0.325737 0.106196 0
-0.348149 0.097147 0
-0.367387 0.086357 0
-0.383562 0.074698 0
-0.396748 0.062721 0
-0.407046 0.050738 0
-0.414532 0.038913 0
-0.419259 0.027296 0
-0.421253 0.015861 0
-0.420513 0.004532 0
-0.417013 -0.006808 0
-0.410714 -0.018249 0
-0.401565 -0.029895 0
-0.389460 -0.041863 0
-0.374295 -0.054213 0
-0.355955 -0.066946 0
-0.334337 -0.079976 0
-0.309361 -0.093084 0
-0.280993 -0.105874 0
-0.249342 -0.117653 0
-0.214707 -0.127242 0
-0.177678 -0.132708 0
-0.139252 -0.130979 0
-0.100819 -0.117422 0
-0.063801 -0.085914 0
-0.028185 -0.029837 0
0.000395 0.024508 0
-0.000922 0.040777 0
0.000000 0.018848 0
0.000000 -0.028727 0
-0.006588 -0.042676 0
-0.027484 -0.003738 0
-0.060265 0.036858 0
-0.093871 0.067346 0
-0.132066 0.092493 0
-0.171902 0.112785 0
-0.209520 0.128037 0
-0.244730 0.137596 0
-0.276065 0.142169 0
-0.302499 0.141534 0
-0.324919 0.135907 0
-0.344031 0.126486 0
-0.360355 0.114508 0
-0.374226 0.101041 0
-0.385840 0.086852 0
-0.395289 0.072436 0
-0.402624 0.058067 0
-0.407861 0.043876 0
-0.410990 0.029886 0
-0.411986 0.016051 0
-0.410809 0.002277 0
-0.407410 -0.011545 0
-0.401778 -0.025528 0
-0.393815 -0.039805 0
-0.383441 -0.054498 0
-0.370563 -0.069674 0
-0.355089 -0.085332 0
-0.336930 -0.101372 0
-0.316017 -0.117545 0
-0.292310 -0.133383 0
-0.265833 -0.148080 0
-0.236680 -0.160302 0
-0.205031 -0.167928 0
-0.171121 -0.167729 0
-0.135149 -0.155084 0
-0.097085 -0.124060 0
-0.056710 -0.068891 0
-0.014170 0.004221 0
-0.004931 0.038506 0
0.000000 0.016966 0
0.000000 -0.018955 0
-0.028462 -0.016083 0
-0.065003 0.028721 0
-0.098930 0.070131 0
-0.134736 0.103549 0
-0.170848 0.129738 0
-0.206027 0.148885 0
-0.238303 0.161329 0
-0.267179 0.167332 0
-0.292094 0.167658 0
-0.312863 0.162883 0
-0.330154 0.153833 0
-0.344637 0.141632 0
-0.356845 0.127342 0
-0.367117 0.111841 0
-0.375639 0.095760 0
-0.382494 0.079506 0
-0.387714 0.063311 0
-0.391303 0.047279 0
-0.393248 0.031420 0
-0.393527 0.015681 0
-0.392108 -0.000044 0
-0.388957 -0.015839 0
-0.384043 -0.031844 0
-0.377285 -0.048232 0
-0.368611 -0.065115 0
-0.357940 -0.082566 0
-0.345194 -0.100580 0
-0.330301 -0.119047 0
-0.313199 -0.137703 0
-0.293835 -0.156058 0
-0.272162 -0.173283 0
-0.248111 -0.188044 0
-0.221540 -0.198267 0
-0.192155 -0.200861 0
-0.159403 -0.191458 0
-0.122445 -0.164353 0
-0.080449 -0.112753 0
-0.034133 -0.027271 0
0.002816 0.026608 0
0.000000 0.013917 0
0.000000 -0.000265 0
-0.041174 0.022327 0
-0.082268 0.066730 0
-0.120246 0.106591 0
-0.156585 0.139263 0
-0.190633 0.163783 0
-0.221849 0.180240 0
-0.249450 0.189189 0
-0.273258 0.191387 0
-0.293256 0.187853 0
-0.309715 0.179593 0
-0.323236 0.167681 0
-0.334390 0.153177 0
-0.343627 0.136989 0
-0.351241 0.119834 0
-0.357408 0.102229 0
-0.362224 0.084511 0
-0.365745 0.066877 0
-0.367998 0.049410 0
-0.368994 0.032109 0
-0.368731 0.014910 0
-0.367194 -0.002293 0
-0.364364 -0.019610 0
-0.360176 -0.037200 0
-0.354571 -0.055237 0
-0.347475 -0.073843 0
-0.338813 -0.093091 0
-0.328515 -0.112971 0
-0.316513 -0.133367 0
-0.302749 -0.154011 0
-0.287160 -0.174420 0
-0.269659 -0.193804 0
-0.250083 -0.210923 0
-0.228113 -0.223884 0
-0.203164 -0.229866 0
-0.174272 -0.224793 0
-0.140111 -0.203015 0
-0.099324 -0.157203 0
-0.051203 -0.079044 0
0.006048 0.004373 0
0.000000 0.019782 0
0.000000 0.022219 0
-0.045347 0.066185 0
-0.089042 0.107793 0
-0.128694 0.144449 0
-0.164553 0.173936 0
-0.196484 0.195001 0
-0.224412 0.207702 0
-0.248243 0.212738 0
-0.268167 0.211138 0
-0.284512 0.204115 0
-0.297753 0.192863 0
-0.308443 0.178508 0
-0.317067 0.162023 0
-0.324002 0.144193 0
-0.329514 0.125622 0
-0.333789 0.106743 0
-0.336952 0.087843 0
-0.339093 0.069084 0
-0.340273 0.050528 0
-0.340530 0.032153 0
-0.339880 0.013880 0
-0.338321 -0.004410 0
-0.335834 -0.022857 0
-0.332357 -0.041637 0
-0.327824 -0.060933 0
-0.322159 -0.080872 0
-0.315280 -0.101526 0
-0.307112 -0.122880 0
-0.297583 -0.144813 0
-0.286629 -0.167056 0
-0.274178 -0.189149 0
-0.260128 -0.210361 0
-0.244289 -0.229589 0
-0.226295 -0.245186 0
-0.205475 -0.254702 0
-0.180719 -0.254510 0
-0.150431 -0.239302 0
-0.112799 -0.201661 0
-0.066810 -0.132642 0
-0.014828 -0.024595 0
0.000000 0.019965 0
0.000000 0.045082 0
-0.044936 0.111369 0
-0.089174 0.150076 0
-0.128513 0.182102 0
-0.163013 0.207054 0
-0.192723 0.223643 0
-0.217842 0.231999 0
-0.238654 0.232944 0
-0.255603 0.227657 0
-0.269198 0.217439 0
-0.279983 0.203524 0
-0.288468 0.186995 0
-0.295079 0.168735 0
-0.300155 0.149436 0
-0.303956 0.129622 0
-0.306684 0.109667 0
-0.308497 0.089815 0
-0.309518 0.070197 0
-0.309840 0.050846 0
-0.309525 0.031716 0
-0.308609 0.012702 0
-0.307101 -0.006338 0
-0.304981 -0.025575 0
-0.302189 -0.045210 0
-0.298649 -0.065435 0
-0.294273 -0.086388 0
-0.288967 -0.108138 0
-0.282640 -0.130668 0
-0.275207 -0.153850 0
-0.266586 -0.177415 0
-0.256696 -0.200920 0
-0.245426 -0.223693 0
-0.232596 -0.244757 0
-0.217876 -0.262698 0
-0.200667 -0.275442 0
-0.179956 -0.279837 0
-0.154219 -0.270935 0
-0.121632 -0.240823 0
-0.081212 -0.177015 0
-0.036296 -0.062437 0
0.000000 0.004955 0
0.000000 0.067155 0
-0.042641 0.155359 0
-0.085266 0.191369 0
-0.122866 0.218287 0
-0.155307 0.238146 0
-0.182669 0.249831 0
-0.205278 0.253634 0
-0.223596 0.250499 0
-0.238187 0.241681 0
-0.249630 0.228494 0
-0.258469 0.212133 0
-0.265176 0.193605 0
-0.270141 0.173710 0
-0.273684 0.153070 0
-0.276071 0.132151 0
-0.277523 0.111285 0
-0.278225 0.090677 0
-0.278329 0.070427 0
-0.277957 0.050534 0
-0.277197 0.030923 0
-0.276103 0.011457 0
-0.274694 -0.008038 0
-0.272952 -0.027769 0
-0.270812 -0.047970 0
-0.268186 -0.068849 0
-0.264972 -0.090554 0
-0.261056 -0.113158 0
-0.256326 -0.136640 0
-0.250675 -0.160867 0
-0.244003 -0.185567 0
-0.236207 -0.210309 0
-0.227170 -0.234461 0
-0.216726 -0.257139 0
-0.204601 -0.277114 0
-0.190319 -0.292622 0
-0.173056 -0.300959 0
-0.151466 -0.297626 0
-0.123656 -0.274668 0
-0.087734 -0.217979 0
-0.043819 -0.105807 0
0.000000 -0.016331 0
0.000000 0.087723 0
-0.039195 0.196635 0
-0.078957 0.230302 0
-0.113919 0.252143 0
-0.143821 0.266857 0
-0.168729 0.273614 0
-0.189003 0.272925 0
-0.205159 0.265853 0
-0.217789 0.253690 0
-0.227466 0.237720 0
-0.234704 0.219070 0
-0.239938 0.198668 0
-0.243534 0.177244 0
-0.245801 0.155367 0
-0.247011 0.133461 0
-0.247401 0.111820 0
-0.247177 0.090621 0
-0.246520 0.069929 0
-0.245578 0.049714 0
-0.244465 0.029862 0
-0.243254 0.010199 0
-0.241973 -0.009489 0
-0.240605 -0.029457 0
-0.239076 -0.049975 0
-0.237285 -0.071275 0
-0.235110 -0.093518 0
-0.232415 -0.116784 0
-0.229067 -0.141049 0
-0.224937 -0.166173 0
-0.219904 -0.191883 0
-0.213846 -0.217753 0
-0.206632 -0.243175 0
-0.198102 -0.267326 0
-0.188026 -0.289105 0
-0.176036 -0.306987 0
-0.161489 -0.318691 0
-0.143244 -0.320334 0
-0.119380 -0.304555 0
-0.087234 -0.256852 0
-0.045001 -0.150171 0
0.000000 -0.038865 0
0.000000 0.106350 0
-0.035071 0.234316 0
-0.071291 0.266093 0
-0.103104 0.283151 0
-0.130183 0.292956 0
-0.152573 0.295013 0
-0.170618 0.290064 0
-0.184822 0.279285 0
-0.195742 0.263988 0
-0.203910 0.245409 0
-0.209792 0.224606 0
-0.213786 0.202435 0
-0.216234 0.179573 0
-0.217437 0.156547 0
-0.217667 0.133751 0
-0.217171 0.111451 0
-0.216175 0.089797 0
-0.214883 0.068828 0
-0.213469 0.048479 0
-0.212073 0.028599 0
-0.210786 0.008964 0
-0.209646 -0.010688 0
-0.208634 -0.030666 0
-0.207665 -0.051290 0
-0.206621 -0.072815 0
-0.205358 -0.095424 0
-0.203720 -0.119200 0
-0.201553 -0.144118 0
-0.198711 -0.170030 0
-0.195053 -0.196659 0
-0.190446 -0.223581 0
-0.184748 -0.250205 0
-0.177796 -0.275745 0
-0.169383 -0.299181 0
-0.159215 -0.319159 0
-0.146804 -0.333751 0
-0.131241 -0.339735 0
-0.110788 -0.330677 0
-0.082564 -0.292357 0
-0.043740 -0.193041 0
0.000000 -0.061332 0
0.000000 0.122793 0
-0.030589 0.267926 0
-0.062934 0.298336 0
-0.091350 0.311036 0
-0.115470 0.316326 0
-0.135325 0.314049 0
-0.151220 0.305175 0
-0.163610 0.290977 0
-0.172991 0.272778 0
-0.179832 0.251770 0
-0.184546 0.228947 0
-0.187491 0.205109 0
-0.188983 0.180895 0
-0.189309 0.156800 0
-0.188736 0.133195 0
-0.187515 0.110328 0
-0.185885 0.088333 0
-0.184070 0.067223 0
-0.182269 0.046904 0
-0.180645 0.027179 0
-0.179310 0.007772 0
-0.178312 -0.011642 0
-0.177623 -0.031438 0
-0.177150 -0.051988 0
-0.176754 -0.073581 0
-0.176269 -0.096419 0
-0.175518 -0.120589 0
-0.174333 -0.146059 0
-0.172555 -0.172673 0
-0.170036 -0.200148 0
-0.166635 -0.228058 0
-0.162207 -0.255825 0
-0.156588 -0.282691 0
-0.149585 -0.307685 0
-0.140946 -0.329566 0
-0.130298 -0.346665 0
-0.116959 -0.356351 0
-0.099517 -0.353232 0
-0.075245 -0.323901 0
-0.040705 -0.232735 0
0.000000 -0.082604 0
0.000000 0.136939 0
-0.025959 0.297250 0
-0.054303 0.326854 0
-0.079236 0.335687 0
-0.100366 0.336931 0
-0.117709 0.330763 0
-0.131528 0.318350 0
-0.142210 0.301056 0
-0.150181 0.280210 0
-0.155841 0.256965 0
-0.159547 0.232265 0
-0.161615 0.206872 0
-0.162330 0.181391 0
-0.161959 0.156300 0
-0.160757 0.131956 0
-0.158971 0.108600 0
-0.156846 0.086352 0
-0.154620 0.065211 0
-0.152513 0.045054 0
-0.150711 0.025640 0
-0.149347 0.006631 0
-0.148476 -0.012375 0
-0.148066 -0.031828 0
-0.148009 -0.052159 0
-0.148144 -0.073697 0
-0.148286 -0.096660 0
-0.148242 -0.121136 0
-0.147835 -0.147081 0
-0.146903 -0.174327 0
-0.145298 -0.202578 0
-0.142882 -0.231410 0
-0.139516 -0.260252 0
-0.135043 -0.288367 0
-0.129282 -0.314822 0
-0.122011 -0.338446 0
-0.112935 -0.357738 0
-0.101567 -0.370516 0
-0.086860 -0.372391 0
-0.066469 -0.351169 0
-0.036669 -0.268286 0
0.000000 -0.102037 0
0.000000 0.148752 0
-0.021301 0.322228 0
-0.045640 0.351613 0
-0.067108 0.357099 0
-0.085281 0.354799 0
-0.100170 0.345211 0
-0.111988 0.329676 0
-0.121058 0.309630 0
-0.127731 0.286409 0
-0.132339 0.261136 0
-0.135185 0.234721 0
-0.136540 0.207892 0
-0.136655 0.181239 0
-0.135769 0.155226 0
-0.134119 0.130206 0
-0.131939 0.106418 0
-0.129471 0.083982 0
-0.126957 0.062890 0
-0.124632 0.042995 0
-0.122703 0.024013 0
-0.121322 0.005537 0
-0.120555 -0.012923 0
-0.120364 -0.031905 0
-0.120622 -0.051910 0
-0.121151 -0.073304 0
-0.121749 -0.096321 0
-0.122218 -0.121039 0
-0.122376 -0.147399 0
-0.122070 -0.175211 0
-0.121162 -0.204168 0
-0.119527 -0.233840 0
-0.117037 -0.263665 0
-0.113556 -0.292925 0
-0.108918 -0.320716 0
-0.102931 -0.345912 0
-0.095355 -0.367109 0
-0.085849 -0.382426 0
-0.073699 -0.388330 0
-0.057043 -0.374092 0
-0.032124 -0.299205 0
0.000000 -0.119273 0
0.000000 0.158240 0
-0.016676 0.342889 0
-0.037070 0.372660 0
-0.055147 0.375328 0
-0.070437 0.369993 0
-0.082948 0.357470 0
-0.092849 0.339238 0
-0.100398 0.316799 0
-0.105877 0.291491 0
-0.109557 0.264419 0
-0.111684 0.236466 0
-0.112487 0.208341 0
-0.112179 0.180620 0
-0.110968 0.153764 0
-0.109062 0.128126 0
-0.106675 0.103952 0
-0.104033 0.081370 0
-0.101373 0.060372 0
-0.098935 0.040800 0
-0.096938 0.022330 0
-0.095555 0.004482 0
-0.094862 -0.013333 0
-0.094812 -0.031761 0
-0.095265 -0.051371 0
-0.096026 -0.072569 0
-0.096887 -0.095594 0
-0.097652 -0.120509 0
-0.098154 -0.147229 0
-0.098253 -0.175541 0
-0.097833 -0.205122 0
-0.096786 -0.235534 0
-0.095009 -0.266223 0
-0.092386 -0.296486 0
-0.088780 -0.325447 0
-0.084029 -0.352009 0
-0.077940 -0.374820 0
-0.070275 -0.392172 0
-0.060581 -0.401198 0
-0.047485 -0.392744 0
-0.027398 -0.325329 0
0.000000 -0.134161 0
0.000000 0.165428 0
-0.012103 0.359299 0
-0.028641 0.390084 0
-0.043424 0.390466 0
-0.055924 0.382600 0
-0.066143 0.367623 0
-0.074211 0.347126 0
-0.080329 0.322658 0
-0.084715 0.295568 0
-0.087581 0.266943 0
-0.089126 0.237651 0
-0.089532 0.208387 0
-0.088976 0.179720 0
-0.087630 0.152109 0
-0.085668 0.125913 0
-0.083274 0.101390 0
-0.080648 0.078681 0
-0.078006 0.057791 0
-0.075578 0.038560 0
-0.073590 0.020633 0
-0.072226 0.003460 0
-0.071574 -0.013665 0
-0.071578 -0.031502 0
-0.072082 -0.050696 0
-0.072887 -0.071683 0
-0.073793 -0.094695 0
-0.074626 -0.119772 0
-0.075244 -0.146797 0
-0.075532 -0.175532 0
-0.075400 -0.205635 0
-0.074767 -0.236664 0
-0.073555 -0.268065 0
-0.071676 -0.299154 0
-0.069028 -0.329074 0
-0.065481 -0.356753 0
-0.060887 -0.380863 0
-0.055083 -0.399785 0
-0.047798 -0.411119 0
-0.038092 -0.407275 0
-0.022685 -0.346690 0
0.000000 -0.146671 0
0.000000 0.170343 0
-0.007581 0.371530 0
-0.020344 0.403982 0
-0.031936 0.402612 0
-0.041740 0.392711 0
-0.049753 0.375757 0
-0.056070 0.353424 0
-0.060840 0.327302 0
-0.064224 0.298744 0
-0.066383 0.268830 0
-0.067468 0.238417 0
-0.067622 0.208192 0
-0.066981 0.178718 0
-0.065680 0.150456 0
-0.063859 0.123771 0
-0.061662 0.098932 0
-0.059253 0.076102 0
-0.056813 0.055303 0
-0.054547 0.036385 0
-0.052665 0.018978 0
-0.051354 0.002466 0
-0.050708 -0.013981 0
-0.050662 -0.031253 0
-0.051052 -0.050062 0
-0.051692 -0.070858 0
-0.052415 -0.093855 0
-0.053083 -0.119059 0
-0.053594 -0.146324 0
-0.053868 -0.175385 0
-0.053844 -0.205887 0
-0.053470 -0.237380 0
-0.052697 -0.269313 0
-0.051470 -0.301013 0
-0.049717 -0.331643 0
-0.047351 -0.360150 0
-0.044267 -0.385218 0
-0.040355 -0.405262 0
-0.035465 -0.418188 0
-0.029003 -0.417856 0
-0.018086 -0.363421 0
0.000000 -0.156846 0
0.000000 0.173009 0
-0.003113 0.379643 0
-0.012140 0.414439 0
-0.020627 0.411861 0
-0.027818 0.400416 0
-0.033703 0.381954 0
-0.038343 0.358213 0
-0.041838 0.330812 0
-0.044299 0.301111 0
-0.045840 0.270187 0
-0.046569 0.238889 0
-0.046589 0.207899 0
-0.046002 0.177779 0
-0.044905 0.148987 0
-0.043399 0.121895 0
-0.041590 0.096784 0
-0.039596 0.073832 0
-0.037552 0.053085 0
-0.035615 0.034411 0
-0.033960 0.017440 0
-0.032753 0.001503 0
-0.032071 -0.014356 0
-0.031856 -0.031157 0
-0.031951 -0.049666 0
-0.032212 -0.070320 0
-0.032528 -0.093304 0
-0.032819 -0.118593 0
-0.033027 -0.146013 0
-0.033112 -0.175282 0
-0.033047 -0.206032 0
-0.032808 -0.237810 0
-0.032375 -0.270066 0
-0.031725 -0.302134 0
-0.030824 -0.333192 0
-0.029622 -0.362203 0
-0.028059 -0.387860 0
-0.026071 -0.408588 0
-0.023581 -0.422471 0
-0.020249 -0.424653 0
-0.013632 -0.375693 0
0.000000 -0.164757 0
0.000000 0.173457 0
0.001233 0.383670 0
-0.003940 0.421495 0
-0.009395 0.418289 0
-0.014055 0.405788 0
-0.017876 0.386283 0
-0.020896 0.361559 0
-0.023173 0.333258 0
-0.024772 0.302746 0
-0.025760 0.271100 0
-0.026207 0.239166 0
-0.026181 0.207624 0
-0.025748 0.177034 0
-0.024971 0.147853 0
-0.023915 0.120456 0
-0.022644 0.095129 0
-0.021231 0.072063 0
-0.019757 0.051322 0
-0.018317 0.032793 0
-0.017015 0.016116 0
-0.015966 0.000578 0
-0.015214 -0.014878 0
-0.014695 -0.031374 0
-0.014315 -0.049707 0
-0.014007 -0.070281 0
-0.013738 -0.093248 0
-0.013488 -0.118560 0
-0.013249 -0.146030 0
-0.013021 -0.175365 0
-0.012808 -0.206192 0
-0.012617 -0.238051 0
-0.012459 -0.270396 0
-0.012340 -0.302565 0
-0.012262 -0.333746 0
-0.012216 -0.362914 0
-0.012186 -0.388769 0
-0.012147 -0.409741 0
-0.012074 -0.424010 0
-0.011790 -0.427805 0
-0.009315 -0.383670 0
0.000000 -0.170478 0
0.000000 0.171776 0
0.005475 0.383583 0
0.004303 0.425067 0
0.001861 0.421976 0
-0.000312 0.408897 0
-0.002114 0.388795 0
-0.003558 0.363511 0
-0.004657 0.334688 0
-0.005430 0.303698 0
-0.005904 0.271623 0
-0.006110 0.239310 0
-0.006081 0.207439 0
-0.005852 0.176568 0
-0.005455 0.147154 0
-0.004919 0.119569 0
-0.004271 0.094101 0
-0.003539 0.070945 0
-0.002748 0.050170 0
-0.001925 0.031669 0
-0.001082 0.015090 0
-0.000223 -0.000298 0
0.000653 -0.015628 0
0.001592 -0.032057 0
0.002569 -0.050353 0
0.003551 -0.070897 0
0.004498 -0.093824 0
0.005367 -0.119082 0
0.006121 -0.146479 0
0.006722 -0.175723 0
0.007132 -0.206436 0
0.007313 -0.238159 0
0.007226 -0.270343 0
0.006831 -0.302331 0
0.006094 -0.333316 0
0.004981 -0.362279 0
0.003469 -0.387929 0
0.001537 -0.408699 0
-0.000827 -0.422828 0
-0.003545 -0.427413 0
-0.005095 -0.387483 0
0.000000 -0.174072 0
0.000000 0.167981 0
0.009736 0.379367 0
0.012637 0.425110 0
0.013240 0.422904 0
0.013542 0.409763 0
0.013731 0.389528 0
0.013843 0.364102 0
0.013906 0.335131 0
0.013946 0.303994 0
0.013980 0.271780 0
0.014015 0.239343 0
0.014048 0.207367 0
0.014079 0.176407 0
0.014103 0.146920 0
0.014125 0.119272 0
0.014154 0.093749 0
0.014206 0.070541 0
0.014313 0.049709 0
0.014523 0.031127 0
0.014916 0.014414 0
0.015600 -0.001158 0
0.016641 -0.016694 0
0.018004 -0.033290 0
0.019563 -0.051665 0
0.021197 -0.072210 0
0.022799 -0.095064 0
0.024270 -0.120184 0
0.025526 -0.147384 0
0.026489 -0.176376 0
0.027086 -0.206782 0
0.027248 -0.238145 0
0.026903 -0.269914 0
0.025981 -0.301433 0
0.024409 -0.331896 0
0.022116 -0.360289 0
0.019033 -0.385325 0
0.015102 -0.405445 0
0.010281 -0.418928 0
0.004596 -0.423537 0
-0.000898 -0.387215 0
0.000000 -0.175573 0
0.000000 0.162040 0
0.014086 0.370946 0
0.021174 0.421563 0
0.024866 0.421072 0
0.027616 0.408405 0
0.029780 0.388494 0
0.031439 0.363336 0
0.032668 0.334585 0
0.033537 0.303624 0
0.034106 0.271554 0
0.034419 0.239241 0
0.034510 0.207375 0
0.034404 0.176513 0
0.034131 0.147108 0
0.033725 0.119518 0
0.033233 0.094020 0
0.032717 0.070785 0
0.032267 0.049854 0
0.032003 0.031067 0
0.032077 0.014013 0
0.032647 -0.002024 0
0.033814 -0.018032 0
0.035486 -0.034978 0
0.037491 -0.053546 0
0.039647 -0.074133 0
0.041787 -0.096897 0
0.043757 -0.121809 0
0.045426 -0.148698 0
0.046675 -0.177284 0
0.047396 -0.207195 0
0.047482 -0.237976 0
0.046829 -0.269076 0
0.045332 -0.299837 0
0.042880 -0.329451 0
0.039361 -0.356904 0
0.034662 -0.380915 0