/*--------------------------------*- C++ -*----------------------------------*\
| =========                 |                                                 |
| \\      /  F ield         | OpenFOAM: The Open Source CFD Toolbox           |
|  \\    /   O peration     | Version:  5.x                                   |
|   \\  /    A nd           | Web:      www.OpenFOAM.org                      |
|    \\/     M anipulation  |                                                 |
\*---------------------------------------------------------------------------*/
FoamFile
{
    version     2.0;
    format      ascii;
    class       volScalarField;
    location    "15";
    object      gradTx;
}
// * * * * * * * * * * * * * * * * * * * * * * * * * * * * * * * * * * * * * //

dimensions      [0 -1 0 1 0 0 0];

internalField   nonuniform List<scalar> 
6300
(
-31.9422
-32.013
-32.1538
-32.3632
-32.6391
-32.9782
-33.3762
-33.8279
-34.3263
-34.8635
-35.4301
-36.0157
-36.6092
-37.1993
-37.7755
-31.8715
-31.9429
-32.0851
-32.2968
-32.5758
-32.9192
-33.3227
-33.781
-34.2876
-34.8341
-35.4111
-36.0078
-36.6125
-37.2133
-37.7988
-31.7293
-31.802
-31.947
-32.1631
-32.4483
-32.8
-33.2143
-33.6861
-34.2088
-34.7743
-35.3725
-35.9919
-36.6197
-37.2426
-37.8475
-31.5143
-31.589
-31.7379
-31.9602
-32.2543
-32.6182
-33.0483
-33.5401
-34.0873
-34.6816
-35.3126
-35.9675
-36.6319
-37.2899
-37.9256
-31.2247
-31.3016
-31.4553
-31.6853
-31.9907
-32.37
-32.8207
-33.3389
-33.9188
-34.5524
-35.2287
-35.9338
-36.6505
-37.3594
-38.0401
-30.8581
-30.9375
-31.0965
-31.3351
-31.6533
-32.0505
-32.5256
-33.0758
-33.6966
-34.3803
-35.1161
-35.8883
-36.6769
-37.4571
-38.2016
-30.4121
-30.4939
-30.658
-30.9053
-31.2367
-31.6532
-32.1553
-32.7423
-33.4113
-34.1564
-34.967
-35.8267
-36.7116
-37.5904
-38.4254
-29.8842
-29.968
-30.1364
-30.3913
-30.735
-31.1703
-31.7002
-32.3266
-33.0499
-33.8668
-34.7689
-35.7397
-36.7524
-37.7676
-38.7327
-29.2726
-29.3574
-29.5284
-29.7885
-30.1416
-30.5929
-31.1485
-31.8142
-32.5948
-33.4922
-34.5021
-35.6109
-36.7908
-37.9947
-39.1517
-28.5761
-28.6606
-28.8314
-29.0926
-29.4499
-29.9113
-30.4866
-31.1867
-32.023
-33.0049
-34.1364
-35.411
-36.8051
-38.2689
-39.7142
-27.7952
-27.8774
-28.0441
-28.3005
-28.6542
-29.1159
-29.6998
-30.4231
-31.3057
-32.3681
-33.6276
-35.0917
-36.7496
-38.5615
-40.441
-26.932
-27.0095
-27.1673
-27.4111
-27.7504
-28.1984
-28.7736
-29.5002
-30.4086
-31.5342
-32.9142
-34.5788
-36.5404
-38.7868
-41.2888
-25.9914
-26.0614
-26.2043
-26.4263
-26.7377
-27.1536
-27.696
-28.3956
-29.2941
-30.4461
-31.9163
-33.7695
-36.0475
-38.7578
-41.9904
-24.9808
-25.0403
-25.1622
-25.3522
-25.6205
-25.9824
-26.4613
-27.092
-27.9264
-29.0398
-30.536
-32.5368
-35.1257
-38.213
-41.6318
-23.9107
-23.957
-24.0518
-24.1999
-24.4097
-24.6942
-25.0746
-25.5847
-26.2796
-27.2512
-28.6522
-30.7195
-33.7156
-37.36
-37.9848
-38.2844
-38.7241
-39.1396
-39.5291
-39.8916
-40.227
-40.5357
-40.8182
-41.0748
-41.3053
-41.5091
-41.6852
-41.8326
-41.9505
-42.0389
-42.0986
-42.1314
-42.1405
-42.1294
-42.1026
-42.0643
-42.0183
-41.9674
-41.9135
-41.8571
-41.7976
-41.7335
-41.6628
-41.5838
-41.4949
-41.3954
-41.2857
-41.1674
-41.0425
-40.9141
-40.7849
-40.6576
-40.5339
-40.4149
-40.3002
-40.1886
-40.0783
-39.967
-39.8523
-39.7325
-39.6068
-39.4751
-39.3387
-39.1994
-39.0596
-38.922
-38.7888
-38.6616
-38.5411
-38.4269
-38.3178
-38.2118
-38.1066
-38.0001
-37.8904
-37.7767
-37.6589
-37.538
-37.4159
-37.2948
-37.1772
-37.0652
-36.9603
-36.8634
-36.7741
-36.6914
-36.6137
-36.5391
-36.4661
-36.3935
-36.3214
-36.2506
-36.1834
-36.123
-36.0731
-36.0378
-36.0207
-36.0249
-36.052
-36.1021
-36.1737
-36.2634
-36.3661
-36.4758
-36.5855
-38.3147
-38.7589
-39.1772
-39.568
-39.9305
-40.2654
-40.5734
-40.8556
-41.1124
-41.3438
-41.549
-41.7266
-41.875
-41.9931
-42.0803
-42.1372
-42.1658
-42.1693
-42.1522
-42.1192
-42.0754
-42.0252
-41.9718
-41.9171
-41.8615
-41.8041
-41.7428
-41.675
-41.598
-41.51
-41.41
-41.2983
-41.1767
-41.0478
-40.9151
-40.7822
-40.6522
-40.5273
-40.4086
-40.2956
-40.1869
-40.0799
-39.9717
-39.8596
-39.7411
-39.6153
-39.4821
-39.3428
-39.2
-39.0565
-38.9156
-38.7802
-38.652
-38.532
-38.4196
-38.3133
-38.2106
-38.1086
-38.0046
-37.8963
-37.7825
-37.6633
-37.5398
-37.4144
-37.2898
-37.1691
-37.0548
-36.949
-36.8524
-36.7646
-36.6842
-36.6091
-36.537
-36.4654
-36.393
-36.3193
-36.2454
-36.1737
-36.1078
-36.0521
-36.0114
-35.9901
-35.9919
-36.0188
-36.0713
-36.1478
-36.2446
-36.3562
-36.4757
-36.5954
-38.3776
-38.8308
-39.2546
-39.6474
-40.0095
-40.3424
-40.6484
-40.9294
-41.1866
-41.42
-41.6286
-41.8099
-41.9612
-42.0802
-42.1653
-42.2166
-42.2362
-42.228
-42.1976
-42.1514
-42.0959
-42.0367
-41.9779
-41.9219
-41.8687
-41.8164
-41.7616
-41.7002
-41.6282
-41.5425
-41.4414
-41.3253
-41.1963
-41.0585
-40.9165
-40.7754
-40.6395
-40.5119
-40.3939
-40.2849
-40.1826
-40.0831
-39.9823
-39.8758
-39.7605
-39.6344
-39.4977
-39.3522
-39.2014
-39.0497
-38.9015
-38.761
-38.6307
-38.5118
-38.4036
-38.3036
-38.2084
-38.1136
-38.0152
-37.91
-37.7962
-37.6738
-37.5445
-37.4116
-37.2792
-37.1516
-37.0325
-36.9245
-36.8286
-36.7443
-36.6694
-36.6005
-36.5339
-36.4659
-36.3942
-36.3176
-36.2371
-36.1557
-36.0779
-36.0096
-35.9571
-35.9264
-35.9226
-35.9487
-36.0059
-36.0925
-36.2044
-36.3348
-36.4754
-36.6164
-38.4782
-38.9453
-39.3766
-39.771
-40.1304
-40.4584
-40.7594
-41.0374
-41.2949
-41.5323
-41.7473
-41.9362
-42.0941
-42.2161
-42.2989
-42.3416
-42.3465
-42.3187
-42.2659
-42.1971
-42.1216
-42.0474
-41.9802
-41.9228
-41.8746
-41.8321
-41.7898
-41.7407
-41.6783
-41.5971
-41.4944
-41.3706
-41.2289
-41.0751
-40.9166
-40.761
-40.6148
-40.4827
-40.3663
-40.2648
-40.1741
-40.0884
-40.0009
-39.9049
-39.7952
-39.6688
-39.5258
-39.3692
-39.2042
-39.0377
-38.8766
-38.7269
-38.593
-38.4763
-38.3756
-38.2872
-38.2055
-38.1238
-38.0357
-37.9361
-37.8223
-37.6941
-37.5544
-37.4082
-37.2618
-37.1218
-36.994
-36.8824
-36.7883
-36.7106
-36.6458
-36.5886
-36.5326
-36.472
-36.4024
-36.3215
-36.2302
-36.1324
-36.0343
-35.9443
-35.8714
-35.8242
-35.81
-35.834
-35.8981
-36.0009
-36.1373
-36.299
-36.4745
-36.6509
-38.6253
-39.1116
-39.5515
-39.9451
-40.2965
-40.6132
-40.9035
-41.175
-41.4324
-41.6765
-41.9038
-42.1074
-42.2785
-42.4083
-42.4902
-42.5213
-42.5039
-42.4454
-42.357
-42.2525
-42.1456
-42.0481
-41.9685
-41.9103
-41.8721
-41.8478
-41.8277
-41.8006
-41.7552
-41.6826
-41.578
-41.4417
-41.2788
-41.0985
-40.9127
-40.733
-40.57
-40.4306
-40.3175
-40.2289
-40.1583
-40.0963
-40.0318
-39.9539
-39.8539
-39.7272
-39.5737
-39.3982
-39.2093
-39.0179
-38.835
-38.6704
-38.5304
-38.4176
-38.3299
-38.2613
-38.2026
-38.1432
-38.0726
-37.9827
-37.8689
-37.7311
-37.5737
-37.405
-37.2351
-37.0745
-36.9325
-36.815
-36.7243
-36.6584
-36.6115
-36.5747
-36.5379
-36.4912
-36.4267
-36.3404
-36.2329
-36.1093
-35.9792
-35.8545
-35.7486
-35.6743
-35.6426
-35.6615
-35.7345
-35.8608
-36.0341
-36.2431
-36.4722
-36.7031
-38.8328
-39.3445
-39.7932
-40.1798
-40.5128
-40.8058
-41.0746
-41.3329
-41.5891
-41.8449
-42.0943
-42.3254
-42.5225
-42.6698
-42.7545
-42.7707
-42.7205
-42.615
-42.4715
-42.3113
-42.1558
-42.0231
-41.9259
-41.869
-41.8496
-41.8572
-41.8759
-41.8868
-41.8712
-41.8141
-41.7073
-41.551
-41.3535
-41.1302
-40.8996
-40.6812
-40.4911
-40.3406
-40.2336
-40.1669
-40.1301
-40.1079
-40.0819
-40.0345
-39.9512
-39.8241
-39.6532
-39.4464
-39.218
-38.9857
-38.7673
-38.5782
-38.4288
-38.3228
-38.2568
-38.221
-38.2007
-38.1785
-38.1375
-38.0639
-37.9501
-37.7962
-37.6095
-37.4035
-37.1949
-37.0007
-36.8355
-36.7089
-36.6245
-36.5789
-36.5625
-36.561
-36.5576
-36.5359
-36.4824
-36.3899
-36.2585
-36.0958
-35.9161
-35.7376
-35.5802
-35.463
-35.4026
-35.4108
-35.4943
-35.653
-35.8794
-36.1583
-36.4675
-36.7799
-39.122
-39.6683
-40.1243
-40.4919
-40.7866
-41.0335
-41.261
-41.4936
-41.7465
-42.0225
-42.3113
-42.5923
-42.8383
-43.0211
-43.1176
-43.1155
-43.017
-42.8392
-42.6101
-42.3635
-42.1331
-41.9472
-41.8251
-41.7739
-41.7881
-41.8507
-41.9354
-42.0111
-42.0468
-42.0172
-41.9081
-41.7195
-41.4657
-41.172
-40.8693
-40.5884
-40.3554
-40.1878
-40.0918
-40.0618
-40.0811
-40.1248
-40.1631
-40.1667
-40.1115
-39.984
-39.7843
-39.5259
-39.2325
-38.9333
-38.6573
-38.429
-38.2647
-38.1702
-38.1401
-38.1585
-38.2016
-38.2411
-38.2491
-38.2028
-38.0892
-37.9084
-37.673
-37.4057
-37.1338
-36.8851
-36.6828
-36.5422
-36.4689
-36.4572
-36.492
-36.55
-36.6038
-36.6261
-36.5944
-36.4956
-36.3291
-36.1069
-35.8513
-35.5903
-35.3538
-35.1702
-35.0635
-35.0518
-35.1459
-35.3478
-35.6492
-36.03
-36.4581
-36.8924
-39.5261
-40.1223
-40.5826
-40.9089
-41.1292
-41.2891
-41.4399
-41.625
-41.8708
-42.1816
-42.5396
-42.9096
-43.2452
-43.4968
-43.6227
-43.599
-43.4279
-43.1373
-42.7739
-42.3924
-42.0462
-41.7796
-41.6221
-41.5844
-41.6571
-41.8123
-42.0078
-42.1931
-42.3165
-42.3349
-42.2233
-41.9817
-41.6353
-41.2269
-40.8074
-40.4266
-40.1256
-39.9318
-39.8549
-39.8855
-39.997
-40.1493
-40.2944
-40.3835
-40.3759
-40.248
-40
-39.6557
-39.2555
-38.8475
-38.4786
-38.1875
-38
-37.925
-37.9537
-38.0605
-38.2075
-38.3491
-38.439
-38.4386
-38.3252
-38.0991
-37.7827
-37.4143
-37.0395
-36.7029
-36.4412
-36.2788
-36.2243
-36.2689
-36.388
-36.5449
-36.6954
-36.7942
-36.803
-36.6987
-36.4797
-36.1663
-35.7942
-35.4076
-35.0513
-34.7665
-34.5877
-34.5406
-34.6422
-34.8991
-35.3046
-35.8336
-36.4396
-37.0584
-40.0959
-40.7721
-41.2336
-41.4788
-41.5587
-41.5581
-41.5693
-41.669
-41.9016
-42.2725
-42.7506
-43.2766
-43.7728
-44.1537
-44.3432
-44.295
-44.0107
-43.5403
-42.9636
-42.3704
-41.8446
-41.4548
-41.2465
-41.236
-41.4073
-41.7159
-42.0951
-42.464
-42.7373
-42.8398
-42.7256
-42.395
-41.8941
-41.2977
-40.69
-40.1498
-39.7414
-39.5075
-39.4632
-39.5929
-39.8543
-40.1842
-40.5062
-40.7395
-40.8135
-40.685
-40.3545
-39.8658
-39.2897
-38.7055
-38.1877
-37.7969
-37.5732
-37.5307
-37.6546
-37.9047
-38.2212
-38.5315
-38.7591
-38.8368
-38.7237
-38.4199
-37.9671
-37.4321
-36.8904
-36.4126
-36.0565
-35.8601
-35.837
-35.9731
-36.2296
-36.5492
-36.8615
-37.092
-37.1744
-37.0668
-36.7665
-36.3099
-35.7582
-35.1812
-34.6458
-34.2104
-33.9221
-33.8154
-33.9148
-34.2364
-34.7824
-35.5265
-36.4027
-37.3072
-40.908
-41.7311
-42.1962
-42.2868
-42.104
-41.8099
-41.5715
-41.5215
-41.7335
-42.2091
-42.8925
-43.6868
-44.4662
-45.0861
-45.406
-45.3307
-44.8616
-44.0962
-43.1773
-42.2513
-41.4473
-40.8688
-40.5862
-40.6257
-40.9599
-41.5178
-42.1971
-42.8727
-43.4042
-43.6568
-43.5396
-43.0535
-42.2904
-41.385
-40.4753
-39.6831
-39.1061
-38.8104
-38.8207
-39.1106
-39.6128
-40.2306
-40.8455
-41.3252
-41.5427
-41.4127
-40.9367
-40.2019
-39.3355
-38.4679
-37.714
-37.1657
-36.8856
-36.8966
-37.1737
-37.6533
-38.2437
-38.8328
-39.2951
-39.51
-39.3965
-38.9555
-38.2697
-37.4596
-36.6491
-35.9472
-35.4417
-35.192
-35.2206
-35.5036
-35.9806
-36.5638
-37.1453
-37.6032
-37.8194
-37.7123
-37.2782
-36.5906
-35.7588
-34.8948
-34.0962
-33.4427
-32.9947
-32.7936
-32.8674
-33.2505
-33.9747
-35.0291
-36.3249
-37.6884
-42.0721
-43.2051
-43.6984
-43.4888
-42.8098
-41.9812
-41.3023
-40.9967
-41.1858
-41.8465
-42.8746
-44.1184
-45.3894
-46.4507
-47.038
-46.9337
-46.139
-44.8734
-43.401
-41.9566
-40.7252
-39.8567
-39.4618
-39.5914
-40.1902
-41.1447
-42.3045
-43.4889
-44.4726
-45.0061
-44.8848
-44.1108
-42.8919
-41.4781
-40.0915
-38.9067
-38.0655
-37.6726
-37.7757
-38.3224
-39.205
-40.2811
-41.3797
-42.2883
-42.7721
-42.6389
-41.8917
-40.7276
-39.3828
-38.0668
-36.9441
-36.1485
-35.7786
-35.8793
-36.4012
-37.2424
-38.2682
-39.3169
-40.1872
-40.656
-40.5408
-39.8437
-38.7514
-37.4877
-36.2514
-35.1991
-34.4583
-34.1233
-34.2377
-34.7549
-35.5787
-36.581
-37.607
-38.4624
-38.9299
-38.8289
-38.1549
-37.0789
-35.8059
-34.5141
-33.3375
-32.3792
-31.7119
-31.3757
-31.3749
-31.7732
-32.6918
-34.1843
-36.1494
-38.2897
-43.7139
-45.5993
-46.2122
-45.368
-43.7315
-41.9369
-40.4954
-39.7593
-39.9589
-40.9548
-42.5464
-44.5108
-46.6146
-48.4978
-49.6657
-49.5308
-48.0945
-45.9484
-43.5844
-41.3554
-39.4803
-38.1625
-37.5823
-37.8812
-38.9084
-40.4759
-42.3767
-44.394
-46.1893
-47.2985
-47.1701
-45.8085
-43.774
-41.5323
-39.417
-37.6353
-36.3796
-35.8204
-36.0918
-37.0507
-38.5185
-40.2992
-42.1874
-43.8633
-44.8899
-44.7492
-43.4469
-41.5135
-39.3888
-37.3871
-35.7032
-34.5185
-33.9938
-34.2556
-35.169
-36.5655
-38.2597
-40.0579
-41.6574
-42.6432
-42.5229
-41.3011
-39.4799
-37.4763
-35.5886
-34.0024
-32.8907
-32.4076
-32.6746
-33.5648
-34.9196
-36.5642
-38.3144
-39.88
-40.8591
-40.7706
-39.6105
-37.8509
-35.8801
-33.9674
-32.2647
-30.8965
-29.9522
-29.4747
-29.3078
-29.5466
-30.5824
-32.659
-35.7217
-39.2752
-45.8203
-49.8205
-50.8189
-48.3892
-44.8849
-41.3849
-38.6725
-37.1743
-37.5855
-39.2053
-41.6812
-44.7023
-48.1576
-51.5748
-54.1696
-54.002
-51.0721
-47.3373
-43.5733
-40.2447
-37.4328
-35.4064
-34.437
-35.1221
-36.8488
-39.3271
-42.2811
-45.6187
-48.894
-51.3728
-51.2313
-48.4751
-44.9546
-41.4042
-38.2623
-35.6065
-33.6905
-32.7724
-33.418
-35.0461
-37.3816
-40.1625
-43.3006
-46.3733
-48.6889
-48.532
-45.9108
-42.575
-39.2175
-36.2497
-33.7437
-31.9379
-31.0762
-31.6938
-33.2413
-35.4596
-38.1017
-41.0852
-44.0111
-46.2232
-46.0911
-43.6214
-40.4713
-37.2978
-34.4918
-32.1225
-30.418
-29.6116
-30.214
-31.7057
-33.8431
-36.3952
-39.2877
-42.1421
-44.3257
-44.2554
-41.9294
-38.9269
-35.8706
-33.1185
-30.71
-28.8035
-27.5204
-27.1266
-26.6563
-26.1724
-26.9742
-29.7136
-34.5871
-40.9764
-47.3429
-58.3522
-60.331
-52.9453
-46.0416
-39.704
-35.1023
-31.8401
-33.4715
-36.2233
-40.0311
-44.2684
-49.7555
-55.8363
-62.6513
-62.451
-55.2088
-48.7683
-42.9351
-38.39
-34.2544
-31.1279
-28.9093
-30.863
-33.7069
-37.4932
-41.6333
-46.9331
-52.7456
-59.2205
-59.0576
-52.2422
-46.1784
-40.6878
-36.4078
-32.5123
-29.5644
-27.4725
-29.3294
-32.0228
-35.6032
-39.5115
-44.508
-49.9736
-56.0482
-55.8634
-49.4039
-43.6679
-38.4848
-34.4475
-30.7758
-27.9977
-26.0286
-27.7927
-30.3478
-33.7434
-37.4519
-42.1954
-47.3929
-53.1786
-53.0257
-46.9215
-41.4963
-36.5901
-32.7662
-29.2853
-26.652
-24.7869
-26.4728
-28.9167
-32.1695
-35.7362
-40.3158
-45.3704
-51.0376
-50.9886
-45.2226
-40.0803
-35.4232
-31.7749
-28.4323
-25.8126
-23.8082
-24.8886
-24.0243
-20.9467
-20.576
-23.6951
-31.2698
-44.108
-41.2198
-79.9201
-83.2168
-56.6945
-46.3669
-35.5254
-29.6035
-19.4593
-27.744
-31.7205
-37.7623
-42.0351
-50.4983
-59.0405
-81.2349
-81.0404
-58.1911
-49.3246
-40.4421
-35.9454
-29.623
-25.5423
-17.3732
-25.3223
-29.2078
-35.1497
-39.3156
-47.5093
-55.6432
-76.6268
-76.4636
-54.9268
-46.5767
-38.2282
-33.9996
-28.0535
-24.2056
-16.4865
-24.0363
-27.7222
-33.3527
-37.2934
-45.0398
-52.6968
-72.421
-72.2302
-51.8552
-43.9644
-36.1021
-32.1191
-26.5209
-22.8928
-15.6051
-22.7528
-26.2438
-31.5769
-35.3114
-42.6522
-49.9276
-68.6855
-68.5301
-49.2439
-41.7737
-34.3241
-30.5467
-25.2275
-21.7797
-14.8489
-21.6401
-24.9631
-30.0436
-33.6188
-40.6598
-47.7166
-65.9807
-65.9545
-47.6174
-40.535
-33.523
-29.9909
-25.1139
-21.9356
-15.6539
-25.4511
-24.5794
-11.8232
-9.15249
-11.2605
-20.373
-50.2143
-36.6975
-36.8009
-36.8757
-36.9164
-36.9212
-36.8921
-36.8336
-36.7527
-36.6576
-36.5567
-36.4584
-36.37
-36.2981
-36.2473
-36.2211
-36.7174
-36.8296
-36.9098
-36.9522
-36.9553
-36.9214
-36.856
-36.767
-36.6633
-36.5542
-36.4483
-36.3537
-36.2768
-36.2228
-36.1949
-36.7596
-36.8902
-36.9816
-37.0274
-37.0263
-36.9821
-36.9021
-36.796
-36.6745
-36.5483
-36.4271
-36.3196
-36.2328
-36.172
-36.1407
-36.8293
-36.9899
-37.0991
-37.1493
-37.1404
-37.0786
-36.9743
-36.8404
-36.6905
-36.5373
-36.3922
-36.2649
-36.1628
-36.0918
-36.0553
-36.9353
-37.141
-37.2757
-37.3305
-37.3075
-37.2175
-37.076
-36.9009
-36.7097
-36.5181
-36.3396
-36.1848
-36.0619
-35.9769
-35.9335
-37.092
-37.3631
-37.5321
-37.5893
-37.5418
-37.4078
-37.2114
-36.9776
-36.7293
-36.486
-36.2632
-36.0727
-35.9232
-35.8204
-35.7682
-37.3228
-37.6874
-37.9003
-37.953
-37.8624
-37.6605
-37.3842
-37.0687
-36.7439
-36.4333
-36.1545
-35.9197
-35.7376
-35.6135
-35.5507
-37.6656
-38.1633
-38.4287
-38.4599
-38.2944
-37.9876
-37.5962
-37.1691
-36.7443
-36.349
-36.0017
-35.7142
-35.4939
-35.3452
-35.2704
-38.1843
-38.8715
-39.1912
-39.1636
-38.8678
-38.3992
-37.8438
-37.2672
-36.7152
-36.2167
-35.7889
-35.4414
-35.1788
-35.0031
-34.9152
-38.9909
-39.947
-40.3011
-40.1356
-39.6138
-38.8978
-38.1124
-37.3409
-36.6326
-36.0136
-35.496
-35.0837
-34.7766
-34.5733
-34.4721
-40.2944
-41.6246
-41.9306
-41.4638
-40.5541
-39.4656
-38.3673
-37.3514
-36.4606
-35.7093
-35.0979
-34.6207
-34.2707
-34.0413
-33.9278
-42.5158
-44.3265
-44.3328
-43.2349
-41.6732
-40.0433
-38.5397
-37.2368
-36.149
-35.265
-34.5654
-34.0307
-33.6442
-33.3934
-33.27
-46.5942
-48.8326
-47.8393
-45.4698
-42.8605
-40.4947
-38.5114
-36.9072
-35.6336
-34.6363
-33.8681
-33.2924
-32.8819
-32.618
-32.4889
-54.9097
-56.5704
-52.722
-47.9447
-43.8042
-40.5637
-38.1041
-36.247
-34.842
-33.7784
-32.9785
-32.3888
-31.9732
-31.7079
-31.5786
-74.4913
-69.8174
-58.5335
-49.7827
-43.8478
-39.8519
-37.0941
-35.1347
-33.709
-32.6568
-31.8786
-31.3111
-30.9141
-30.6618
-30.5391
-22.8872
-22.9194
-22.985
-23.0872
-23.2311
-23.4255
-23.6847
-24.0336
-24.5164
-25.2184
-26.3165
-28.2094
-31.8518
-39.4114
-53.3098
-21.9345
-21.9529
-21.9899
-22.0466
-22.1247
-22.2271
-22.359
-22.5304
-22.7613
-23.0957
-23.6432
-24.7234
-27.4805
-36.9698
-79.2485
-20.9691
-20.9733
-20.9811
-20.9912
-21.0014
-21.0081
-21.0058
-20.9859
-20.9341
-20.825
-20.6012
-20.0846
-18.5064
-11.7666
25.4446
-20.0007
-19.9912
-19.9707
-19.9357
-19.8805
-19.7953
-19.6649
-19.4635
-19.1468
-18.6334
-17.7617
-16.1875
-13.1821
-7.73198
-3.84318
-19.0389
-19.0168
-18.9703
-18.8944
-18.7803
-18.6141
-18.3732
-18.0211
-17.496
-16.6903
-15.408
-13.2784
-9.56655
-2.62053
13.4443
-18.0925
-18.0594
-17.9904
-17.8795
-17.7163
-17.4846
-17.1589
-16.6989
-16.0402
-15.0782
-13.6424
-11.4646
-8.19621
-3.84438
-1.97812
-17.169
-17.1269
-17.0396
-16.9008
-16.6999
-16.4205
-16.0378
-15.5146
-14.795
-13.7954
-12.3922
-10.4075
-7.57772
-3.34281
4.913
-16.2748
-16.2257
-16.1245
-15.9652
-15.738
-15.4281
-15.0142
-14.4667
-13.7443
-12.7929
-11.546
-9.93699
-7.93485
-5.63369
-3.48066
-15.4148
-15.3606
-15.2498
-15.0769
-14.8336
-14.5078
-14.0836
-13.5401
-12.8527
-11.9955
-10.9515
-9.73943
-8.49959
-7.82173
-10.3792
-14.5923
-14.5349
-14.4181
-14.2374
-13.9864
-13.656
-13.2357
-12.7134
-12.0788
-11.328
-10.4736
-9.56116
-8.67406
-7.76301
-5.05181
-13.8096
-13.7506
-13.6308
-13.4469
-13.1942
-12.8668
-12.4585
-11.9648
-11.3858
-10.7323
-10.0359
-9.36532
-8.86515
-8.95439
-11.8437
-13.068
-13.0084
-12.8879
-12.7041
-12.4539
-12.1336
-11.7407
-11.2754
-10.7444
-10.1665
-9.58034
-9.05113
-8.64692
-8.2013
-5.57372
-12.3677
-12.3085
-12.189
-12.0076
-11.7622
-11.4509
-11.0732
-10.6317
-10.1357
-9.60634
-9.08524
-8.65014
-8.45745
-8.96346
-12.5474
-11.7087
-11.6503
-11.533
-11.3555
-11.1163
-10.8144
-10.4499
-10.0257
-9.55011
-9.04046
-8.53042
-8.0808
-7.78276
-7.5882
-5.46802
-11.0901
-11.0332
-10.9189
-10.7461
-10.5139
-10.2213
-9.86802
-9.45555
-8.98816
-8.47487
-7.93362
-7.40621
-7.03622
-7.55016
-13.4582
-10.5111
-10.4559
-10.3452
-10.1781
-9.95355
-9.6703
-9.32727
-8.92352
-8.45808
-7.92868
-7.32723
-6.62228
-5.67585
-3.76626
3.49246
-9.97034
-9.91729
-9.81079
-9.65005
-9.43392
-9.16083
-8.82868
-8.43433
-7.97242
-7.43253
-6.79272
-6.00606
-4.98433
-3.69702
-3.55966
-9.46644
-9.41575
-9.314
-9.16044
-8.95384
-8.69238
-8.3733
-7.99207
-7.54093
-7.00577
-6.36018
-5.5531
-4.47724
-2.82919
0.872082
-8.99774
-8.94967
-8.85321
-8.70766
-8.51185
-8.26396
-7.96106
-7.59835
-7.16777
-6.65571
-6.03977
-5.2868
-4.36752
-3.38722
-3.51423
-8.56243
-8.51721
-8.42651
-8.28977
-8.10604
-7.87375
-7.59037
-7.25178
-6.85121
-6.37779
-5.81454
-5.136
-4.30017
-3.17626
-0.904101
-8.15852
-8.11633
-8.03178
-7.90453
-7.73396
-7.51902
-7.25803
-6.94824
-6.58525
-6.16225
-5.66938
-5.09444
-4.4329
-3.76269
-3.80063
-7.78391
-7.74486
-7.66672
-7.54939
-7.39268
-7.19627
-6.95958
-6.68165
-6.36096
-5.99525
-5.58122
-5.11301
-4.57165
-3.85734
-2.35566
-7.43643
-7.40055
-7.32888
-7.22159
-7.07899
-6.9015
-6.68977
-6.44475
-6.16793
-5.8618
-5.5307
-5.18239
-4.8305
-4.49877
-4.23558
-7.11388
-7.08111
-7.01577
-6.91832
-6.78952
-6.63052
-6.44309
-6.22995
-5.99528
-5.74569
-5.49213
-5.25425
-5.07538
-5.09259
-5.93267
-6.81409
-6.78427
-6.72497
-6.63684
-6.52102
-6.37927
-6.21428
-6.03011
-5.83297
-5.63235
-5.44268
-5.28514
-5.18408
-5.11497
-4.57448
-6.535
-6.50793
-6.45419
-6.37459
-6.27054
-6.14418
-5.99879
-5.83929
-5.6731
-5.5114
-5.37094
-5.27681
-5.27061
-5.46468
-6.47949
-6.27472
-6.25012
-6.20137
-6.12934
-6.03555
-5.92231
-5.7931
-5.65311
-5.51011
-5.37572
-5.26703
-5.20742
-5.21806
-5.24441
-4.62515
-6.03152
-6.00911
-5.9647
-5.89921
-5.81407
-5.71154
-5.59491
-5.46904
-5.34116
-5.22219
-5.12904
-5.08925
-5.1546
-5.47248
-6.80472
-5.80389
-5.78336
-5.7427
-5.68271
-5.60469
-5.51057
-5.40313
-5.28636
-5.16602
-5.05072
-4.95401
-4.89808
-4.91579
-4.9961
-4.46434
-5.59051
-5.57161
-5.53413
-5.47874
-5.40649
-5.31885
-5.21785
-5.10617
-4.98738
-4.86637
-4.75067
-4.65577
-4.63352
-4.94474
-7.19968
-5.39027
-5.37277
-5.33801
-5.28649
-5.21897
-5.13642
-5.03999
-4.93092
-4.81028
-4.67834
-4.53288
-4.36302
-4.11968
-3.54357
-1.04546
-5.20219
-5.18591
-5.15352
-5.10537
-5.0419
-4.96362
-4.87091
-4.76372
-4.64104
-4.4997
-4.33204
-4.12129
-3.83692
-3.47712
-3.61179
-5.02543
-5.01024
-4.97999
-4.93488
-4.87513
-4.80086
-4.71188
-4.60728
-4.48476
-4.33934
-4.16114
-3.9307
-3.60656
-3.06726
-1.70151
-4.85921
-4.84505
-4.81679
-4.77457
-4.71844
-4.64832
-4.56371
-4.46331
-4.34437
-4.20176
-4.02653
-3.80519
-3.52562
-3.23133
-3.41278
-4.70284
-4.68964
-4.66331
-4.62391
-4.57147
-4.50585
-4.42651
-4.3322
-4.22045
-4.08682
-3.92394
-3.72012
-3.45492
-3.065
-2.15631
-4.55563
-4.54337
-4.5189
-4.48231
-4.43367
-4.37292
-4.29972
-4.21322
-4.11172
-3.9922
-3.8498
-3.67769
-3.47082
-3.25893
-3.36242
-4.41695
-4.40557
-4.38291
-4.34909
-4.30428
-4.24863
-4.18216
-4.10466
-4.01551
-3.91347
-3.79628
-3.65942
-3.4902
-3.23382
-2.58422
-4.28617
-4.27563
-4.25467
-4.2235
-4.18243
-4.13186
-4.07227
-4.00419
-3.92826
-3.84528
-3.75643
-3.66362
-3.57013
-3.48176
-3.41097
-4.16271
-4.15293
-4.13353
-4.10478
-4.06718
-4.02137
-3.96828
-3.90918
-3.8459
-3.78117
-3.71934
-3.6683
-3.6465
-3.71748
-4.18849
-4.04605
-4.03693
-4.01887
-3.99224
-3.95763
-3.91595
-3.86847
-3.81709
-3.76456
-3.71504
-3.67476
-3.65268
-3.65846
-3.6754
-3.43956
-3.93573
-3.92714
-3.91017
-3.88523
-3.85301
-3.81454
-3.77138
-3.72578
-3.68114
-3.64252
-3.61754
-3.61771
-3.66267
-3.80884
-4.38028
-3.83138
-3.82318
-3.80701
-3.78328
-3.75272
-3.71642
-3.67598
-3.63383
-3.59354
-3.56052
-3.54286
-3.55165
-3.59661
-3.64694
-3.34746
-3.73272
-3.72478
-3.70909
-3.68608
-3.65642
-3.62116
-3.58179
-3.54058
-3.50088
-3.46788
-3.44981
-3.46048
-3.52683
-3.72794
-4.47692
-3.63958
-3.63175
-3.61627
-3.5935
-3.56403
-3.52875
-3.48889
-3.44629
-3.40358
-3.36488
-3.3368
-3.33064
-3.36348
-3.42848
-3.15551
-3.55188
-3.54405
-3.52851
-3.50557
-3.47569
-3.43951
-3.39791
-3.35206
-3.30352
-3.2545
-3.20858
-3.17371
-3.17781
-3.36369
-4.61543
-3.46964
-3.46169
-3.4459
-3.42247
-3.39173
-3.35405
-3.3099
-3.25971
-3.20378
-3.14196
-3.0727
-2.98973
-2.86591
-2.55872
-1.1938
-3.39292
-3.38478
-3.36859
-3.34446
-3.31258
-3.27309
-3.22607
-3.17134
-3.10815
-3.0346
-2.94635
-2.83412
-2.68135
-2.48826
-2.57502
-3.32185
-3.31348
-3.29679
-3.27185
-3.23871
-3.19737
-3.14761
-3.08884
-3.01972
-2.93746
-2.83666
-2.70668
-2.52479
-2.22344
-1.46028
-3.25659
-3.24796
-3.23073
-3.20493
-3.17055
-3.12749
-3.07541
-3.01355
-2.94041
-2.85321
-2.74722
-2.6153
-2.45118
-2.27933
-2.37168
-3.19733
-3.18842
-3.17063
-3.14397
-3.10843
-3.06388
-3.01
-2.94609
-2.87086
-2.78201
-2.67579
-2.54628
-2.38295
-2.15172
-1.63618
-3.14425
-3.13506
-3.11669
-3.08919
-3.05256
-3.00675
-2.95155
-2.88651
-2.81077
-2.72287
-2.62054
-2.50075
-2.36189
-2.22153
-2.25362
-3.09756
-3.08807
-3.06911
-3.04075
-3.00308
-2.95614
-2.89994
-2.83437
-2.75914
-2.67376
-2.5774
-2.46849
-2.34186
-2.17158
-1.80213
-3.05748
-3.04765
-3.02805
-2.99879
-2.96003
-2.91198
-2.85485
-2.78893
-2.71455
-2.63227
-2.543
-2.44852
-2.35214
-2.25993
-2.1852
-3.02422
-3.01402
-2.9937
-2.96343
-2.92345
-2.87411
-2.81587
-2.74936
-2.67547
-2.59563
-2.51222
-2.42989
-2.35953
-2.33614
-2.51634
-2.99805
-2.98742
-2.96627
-2.93481
-2.89337
-2.84243
-2.78264
-2.71491
-2.64054
-2.56146
-2.4807
-2.40295
-2.3343
-2.27095
-2.09978
-2.97926
-2.96813
-2.946
-2.91312
-2.86989
-2.8169
-2.75493
-2.68508
-2.60887
-2.52847
-2.44708
-2.36969
-2.3054
-2.28064
-2.43711
-2.96821
-2.95649
-2.9332
-2.89861
-2.8532
-2.7976
-2.7327
-2.65968
-2.58012
-2.49617
-2.41069
-2.32735
-2.24904
-2.16445
-1.94693
-2.9653
-2.95289
-2.92823
-2.89163
-2.84358
-2.78477
-2.71611
-2.63882
-2.55443
-2.46492
-2.37282
-2.28151
-2.19705
-2.14058
-2.24179
-2.97101
-2.95781
-2.93157
-2.89261
-2.84144
-2.77877
-2.70552
-2.62288
-2.5323
-2.43549
-2.33439
-2.23092
-2.12563
-2.00721
-1.76917
-2.98589
-2.97178
-2.94374
-2.90207
-2.8473
-2.78012
-2.70146
-2.61246
-2.51449
-2.40904
-2.29762
-2.18159
-2.06333
-1.9569
-1.96893
-3.01056
-2.99544
-2.96536
-2.92064
-2.86177
-2.78945
-2.70458
-2.60828
-2.50188
-2.38675
-2.26403
-2.13383
-1.99282
-1.82431
-1.54249
-3.04574
-3.0295
-2.99716
-2.94903
-2.88559
-2.80749
-2.71563
-2.61113
-2.49533
-2.36973
-2.23565
-2.09357
-1.94142
-1.77039
-1.55484
-3.0922
-3.07473
-3.03993
-2.98807
-2.91958
-2.8351
-2.73547
-2.62182
-2.4956
-2.35859
-2.21282
-2.06032
-1.90311
-1.74739
-1.64208
-3.15079
-3.132
-3.09454
-3.03865
-2.96469
-2.87322
-2.76504
-2.64124
-2.50336
-2.35355
-2.19467
-2.03034
-1.86378
-1.68938
-1.43155
-3.22243
-3.20225
-3.16197
-3.10177
-3.02196
-2.92296
-2.80546
-2.67043
-2.51942
-2.35479
-2.1803
-2.00191
-1.8299
-1.6893
-1.69501
-3.30809
-3.28645
-3.24322
-3.17853
-3.09255
-2.98557
-2.85804
-2.71073
-2.54493
-2.3629
-2.16865
-1.96904
-1.77422
-1.5876
-1.30935
-3.40877
-3.38564
-3.33939
-3.27007
-3.17772
-3.06243
-2.92437
-2.76387
-2.5817
-2.37949
-2.16073
-1.93283
-1.71286
-1.54951
-1.63368
-3.52552
-3.50089
-3.45159
-3.3776
-3.27883
-3.15512
-3.00628
-2.83208
-2.63239
-2.40758
-2.15916
-1.89113
-1.61218
-1.33953
-1.1132
-3.65939
-3.63326
-3.58095
-3.50235
-3.39725
-3.26527
-3.10581
-2.91797
-2.70054
-2.45207
-2.1712
-1.85702
-1.50711
-1.09739
-0.435526
-3.8114
-3.78381
-3.72856
-3.6455
-3.53433
-3.3945
-3.22504
-3.02442
-2.79024
-2.51905
-2.20639
-1.84772
-1.44358
-1.03034
-0.895437
-3.98257
-3.95356
-3.89548
-3.80818
-3.69133
-3.5443
-3.36593
-3.15418
-2.90563
-2.61484
-2.27354
-1.86999
-1.38638
-0.769981
0.335583
-4.1739
-4.14351
-4.08271
-3.99138
-3.86929
-3.71587
-3.52999
-3.30948
-3.05037
-2.74569
-2.38391
-1.94785
-1.42141
-0.849318
-0.759206
-4.38632
-4.35458
-4.29112
-4.19595
-4.069
-3.90998
-3.71811
-3.4916
-3.22675
-2.91622
-2.54587
-2.08848
-1.48815
-0.593941
1.30218
-4.6208
-4.58769
-4.52156
-4.42259
-4.29098
-4.12691
-3.93029
-3.70035
-3.43485
-3.12828
-2.76827
-2.32838
-1.75896
-1.03434
-0.837924
-4.87826
-4.84372
-4.77481
-4.67189
-4.53552
-4.36645
-4.16559
-3.93381
-3.67148
-3.37744
-3.04615
-2.65822
-2.13757
-1.10791
2.67665
-5.15972
-5.12362
-5.05168
-4.94442
-4.80276
-4.62807
-4.42237
-4.18847
-3.93013
-3.65248
-3.36337
-3.08023
-2.86964
-3.09462
-6.06407
-5.46624
-5.42842
-5.35307
-5.24085
-5.09293
-4.91122
-4.69875
-4.4601
-4.20219
-3.93548
-3.67643
-3.45187
-3.29924
-3.17544
-1.98342
-5.79902
-5.75928
-5.68008
-5.56208
-5.40656
-5.21574
-4.9933
-4.74511
-4.48036
-4.21317
-3.96554
-3.77356
-3.70881
-3.99809
-5.90118
-6.15941
-6.11754
-6.03402
-5.90937
-5.74472
-5.54223
-5.30572
-5.04163
-4.76022
-4.47729
-4.21599
-4.00692
-3.87251
-3.70004
-2.3143
-6.54887
-6.50474
-6.41652
-6.28443
-6.10915
-5.89233
-5.63731
-5.35017
-5.04113
-4.72638
-4.43019
-4.18841
-4.06265
-4.24453
-5.88423
-6.96897
-6.92255
-6.82949
-6.68948
-6.50244
-6.26897
-5.99121
-5.67391
-5.32602
-4.96258
-4.60659
-4.28935
-4.03915
-3.77665
-2.47368
-7.42132
-7.37276
-7.27506
-7.1272
-6.92796
-6.67637
-6.37256
-6.01889
-5.62171
-5.19362
-4.75608
-4.34372
-4.02418
-4.03133
-5.62243
-7.90739
-7.85709
-7.75547
-7.60061
-7.38982
-7.12004
-6.78854
-6.39409
-5.93888
-5.43122
-4.88808
-4.33365
-3.78234
-3.18603
-2.41195
-8.4284
-8.37705
-8.27286
-8.11286
-7.89265
-7.60658
-7.24824
-6.81148
-6.29246
-5.69345
-5.02792
-4.32142
-3.57175
-2.46418
1.33609
-8.98506
-8.9337
-8.82901
-8.66692
-8.44121
-8.14331
-7.76241
-7.28598
-6.7016
-6.00189
-5.19622
-4.33916
-3.6097
-3.61225
-6.95641
-9.57739
-9.5274
-9.42501
-9.26517
-9.03989
-8.73768
-8.34293
-7.83544
-7.19083
-6.38391
-5.40019
-4.2683
-3.1393
-2.43977
-2.8916
-10.2044
-10.1575
-10.0609
-9.90887
-9.692
-9.39631
-9.00173
-8.48013
-7.79279
-6.8887
-5.70707
-4.19543
-2.37065
-0.467744
0.859448
-10.8641
-10.8221
-10.7353
-10.5976
-10.3988
-10.1236
-9.74876
-9.2399
-8.54527
-7.58623
-6.24313
-4.34001
-1.65627
1.90409
5.53217
-11.5528
-11.5178
-11.4451
-11.3287
-11.1588
-10.9201
-10.5889
-10.1287
-9.48136
-8.55048
-7.16808
-5.0267
-1.55064
4.2289
12.7244
-12.2659
-12.2398
-12.1852
-12.097
-11.9666
-11.7807
-11.5185
-11.1474
-10.6144
-9.82827
-8.62011
-6.64026
-3.04464
4.66763
25.8163
-146.474
-88.0196
-61.5387
-48.8862
-42.1103
-38.0644
-35.4366
-33.6257
-32.3281
-31.3776
-30.677
-30.1671
-29.8105
-29.5839
-29.4738
-182.187
-82.3636
-54.6676
-43.9904
-38.635
-35.4547
-33.3626
-31.8974
-30.8316
-30.041
-29.4524
-29.0206
-28.7169
-28.5233
-28.4289
46.9215
-26.6191
-35.9779
-35.3987
-33.6493
-32.0892
-30.8532
-29.8916
-29.1441
-28.5642
-28.1189
-27.7852
-27.547
-27.3936
-27.3185
-7.0441
-15.4454
-24.1896
-27.6198
-28.5321
-28.4986
-28.1533
-27.7373
-27.3401
-26.9939
-26.708
-26.4834
-26.3181
-26.2096
-26.1559
25.9115
-4.03337
-16.0916
-21.5892
-24.0719
-25.1243
-25.5027
-25.5698
-25.5008
-25.3816
-25.2545
-25.1404
-25.0498
-24.9875
-24.956
-1.42484
-5.04267
-12.5496
-17.6524
-20.6049
-22.2182
-23.0682
-23.4967
-23.6965
-23.7749
-23.7919
-23.7812
-23.7617
-23.7442
-23.7342
11.4605
-3.35119
-10.6773
-15.2087
-18.0681
-19.8421
-20.9264
-21.5825
-21.9764
-22.2108
-22.3485
-22.428
-22.4724
-22.4956
-22.5054
-3.07749
-6.85807
-10.7456
-13.9262
-16.2849
-17.945
-19.0819
-19.8503
-20.3671
-20.7138
-20.9457
-21.0991
-21.1977
-21.2563
-21.2835
-14.9901
-10.2907
-11.3048
-13.2145
-14.9868