/*--------------------------------*- C++ -*----------------------------------*\
| =========                 |                                                 |
| \\      /  F ield         | OpenFOAM: The Open Source CFD Toolbox           |
|  \\    /   O peration     | Version:  5.x                                   |
|   \\  /    A nd           | Web:      www.OpenFOAM.org                      |
|    \\/     M anipulation  |                                                 |
\*---------------------------------------------------------------------------*/
FoamFile
{
    version     2.0;
    format      ascii;
    class       volScalarField;
    location    "15";
    object      gradTy;
}
// * * * * * * * * * * * * * * * * * * * * * * * * * * * * * * * * * * * * * //

dimensions      [0 -1 0 1 0 0 0];

internalField   nonuniform List<scalar> 
6300
(
32284.1
32252.1
32220.1
32187.9
32155.4
32122.7
32089.5
32056
32021.9
31987.4
31952.2
31916.5
31880.2
31843.3
31805.8
0.0533597
0.159582
0.26428
0.366322
0.46442
0.557084
0.6426
0.719056
0.784399
0.836562
0.873656
0.894213
0.897475
0.883674
0.85422
0.0894866
0.26767
0.443423
0.614928
0.780083
0.936423
1.08108
1.21078
1.32197
1.411
1.47445
1.50954
1.51471
1.49014
1.43817
0.126403
0.378188
0.626816
0.869885
1.10456
1.32745
1.5345
1.72101
1.88171
2.01104
2.10359
2.15479
2.1617
2.12402
2.04491
0.164342
0.491863
0.815769
1.13324
1.44083
1.73432
2.00848
2.25705
2.47281
2.64785
2.7741
2.84432
2.85328
2.79934
2.68607
0.203445
0.609155
1.01116
1.40646
1.79122
2.16052
2.50805
2.82592
3.10466
3.33343
3.50066
3.59512
3.60775
3.53401
3.37673
0.243728
0.730151
1.21327
1.69021
2.15707
2.6085
3.03727
3.43391
3.78647
4.08058
4.29999
4.42777
4.44861
4.35222
4.1381
0.285047
0.854451
1.42156
1.98404
2.53836
3.07915
3.59864
4.08599
4.52673
4.90244
5.19094
5.36736
5.4067
5.28817
5.00235
0.327054
0.981052
1.63447
2.28605
2.93317
3.5711
4.19215
4.78469
5.33204
5.81153
6.19395
6.44405
6.52266
6.3914
6.02135
0.369172
1.10824
1.84922
2.59253
3.33718
4.07992
4.81417
5.52857
6.20522
6.81768
7.32929
7.6922
7.84846
7.73335
7.2817
0.410569
1.23351
2.06163
2.89767
3.7431
4.59724
5.45606
6.31022
7.14257
7.9247
8.61328
9.14692
9.44546
9.41154
8.92755
0.450168
1.35359
2.26613
3.19344
4.1403
5.10991
6.10259
7.11369
8.13012
9.12526
10.0521
10.8365
11.3744
11.5387
11.178
0.486686
1.46454
2.45587
3.46965
4.51475
5.59949
6.73072
7.91184
9.13897
10.394
11.6333
12.7722
13.6754
14.187
14.2492
0.51872
1.56203
2.62315
3.71455
4.84956
6.04259
7.30897
8.66397
10.1199
11.6785
13.3147
14.9426
16.3647
17.2745
17.7625
0.544881
1.64172
2.76016
3.91583
5.12635
6.41234
7.79859
9.31521
10.998
12.8855
15.0042
17.3173
19.5598
20.7607
18.1749
31770.9
31738.8
31706.3
31673.5
31640.4
31607
31573.3
31539.4
31505.3
31470.9
31436.4
31401.7
31366.9
31332
31296.9
31261.9
31226.7
31191.6
31156.5
31121.4
31086.3
31051.3
31016.3
30981.3
30946.4
30911.5
30876.7
30842
30807.3
30772.7
30738.1
30703.7
30669.3
30635
30600.9
30566.9
30532.9
30499.1
30465.4
30431.7
30398.2
30364.8
30331.4
30298.1
30265
30231.9
30199
30166.1
30133.4
30100.8
30068.3
30035.9
30003.7
29971.5
29939.4
29907.5
29875.6
29843.8
29812.1
29780.4
29748.9
29717.5
29686.1
29654.9
29623.8
29592.7
29561.8
29531
29500.2
29469.6
29438.9
29408.4
29377.9
29347.5
29317.1
29286.9
29256.6
29226.4
29196.3
29166.2
29136.2
29106.2
29076.2
29046.2
29016.1
28986
28955.9
28925.6
28895.3
28864.8
0.815261
0.773045
0.726304
0.677251
0.627733
0.578986
0.531503
0.485057
0.438872
0.391919
0.343261
0.292376
0.239394
0.185199
0.131362
0.0799212
0.0330464
-0.00733779
-0.0399017
-0.0641588
-0.080568
-0.090476
-0.0959125
-0.099275
-0.102955
-0.108968
-0.11864
-0.132413
-0.149791
-0.16945
-0.189493
-0.207799
-0.222421
-0.231938
-0.235702
-0.233956
-0.227782
-0.218914
-0.209446
-0.201476
-0.196761
-0.196422
-0.200757
-0.209194
-0.220391
-0.232479
-0.243394
-0.251244
-0.254645
-0.252955
-0.246376
-0.235909
-0.223176
-0.210137
-0.19876
-0.190688
-0.186962
-0.187844
-0.192771
-0.200451
-0.209093
-0.216718
-0.221513
-0.222143
-0.217975
-0.209174
-0.196655
-0.181913
-0.166747
-0.152944
-0.14195
-0.134601
-0.130948
-0.130202
-0.130827
-0.130757
-0.127708
-0.11954
-0.104593
-0.0819649
-0.0516837
-0.0147608
0.0268669
0.0704998
0.112923
0.15072
0.180632
0.199923
0.206718
0.200249
1.36964
1.29565
1.21423
1.12954
1.04504
0.963
0.884215
0.808021
0.732667
0.655891
0.575613
0.490585
0.400872
0.308049
0.215084
0.125901
0.0447214
-0.0246955
-0.0797401
-0.119438
-0.144647
-0.157935
-0.163186
-0.16499
-0.167922
-0.175834
-0.191251
-0.214991
-0.246053
-0.281831
-0.318596
-0.352197
-0.378827
-0.395712
-0.401602
-0.396973
-0.383928
-0.365825
-0.346709
-0.330636
-0.320998
-0.319959
-0.328093
-0.344281
-0.365911
-0.389335
-0.410528
-0.42581
-0.432499
-0.429361
-0.416806
-0.396787
-0.372451
-0.347594
-0.326023
-0.310917
-0.304291
-0.306655
-0.316915
-0.332561
-0.350103
-0.365691
-0.375803
-0.377858
-0.370651
-0.354529
-0.331294
-0.303865
-0.275756
-0.250454
-0.230805
-0.218482
-0.213647
-0.214846
-0.219171
-0.222681
-0.221002
-0.210023
-0.186541
-0.14878
-0.0966971
-0.0320721
0.0416086
0.119451
0.195596
0.263781
0.317986
0.35312
0.365665
0.354167
1.94083
1.82898
1.70688
1.58155
1.4588
1.34234
1.2332
1.12978
1.02852
0.924912
0.814808
0.695547
0.566833
0.43111
0.293364
0.160362
0.039463
-0.0627445
-0.141673
-0.195579
-0.225887
-0.236963
-0.235421
-0.229075
-0.225714
-0.231888
-0.251876
-0.28702
-0.335523
-0.392787
-0.452254
-0.506634
-0.549262
-0.575316
-0.582647
-0.572109
-0.547356
-0.514192
-0.479589
-0.450528
-0.432851
-0.430288
-0.443829
-0.471533
-0.508846
-0.549402
-0.586172
-0.612752
-0.624501
-0.619326
-0.597982
-0.563881
-0.522475
-0.480319
-0.443976
-0.418933
-0.408675
-0.414094
-0.433303
-0.461941
-0.493927
-0.522551
-0.541694
-0.54691
-0.536166
-0.510127
-0.471972
-0.426797
-0.380721
-0.339827
-0.30911
-0.291579
-0.287657
-0.294987
-0.30869
-0.322076
-0.32769
-0.31851
-0.289053
-0.23622
-0.159771
-0.0624238
0.0503574
0.170846
0.289731
0.396971
0.482801
0.538845
0.559233
0.541497
2.53687
2.37704
2.20422
2.02984
1.86351
1.71115
1.57395
1.44845
1.32774
1.2033
1.0672
0.914126
0.742892
0.557087
0.364815
0.177397
0.00729176
-0.134313
-0.239635
-0.305699
-0.334818
-0.334161
-0.314573
-0.28886
-0.269778
-0.268049
-0.290675
-0.339811
-0.412379
-0.50057
-0.593238
-0.677992
-0.743563
-0.781879
-0.789426
-0.767715
-0.722895
-0.664632
-0.604488
-0.554029
-0.522938
-0.517426
-0.53917
-0.584946
-0.647113
-0.71492
-0.776491
-0.82105
-0.840874
-0.832574
-0.797526
-0.741496
-0.673581
-0.604671
-0.54566
-0.505656
-0.490485
-0.501675
-0.536114
-0.586502
-0.64259
-0.693061
-0.72764
-0.738945
-0.723705
-0.683172
-0.622758
-0.551027
-0.478222
-0.414544
-0.368427
-0.345077
-0.345465
-0.365951
-0.398665
-0.432661
-0.455682
-0.456194
-0.425225
-0.357669
-0.252935
-0.115001
0.048008
0.22455
0.400634
0.560995
0.690507
0.775914
0.807699
0.781736
3.16776
2.94384
2.70379
2.46653
2.24812
2.05815
1.89784
1.76024
1.63235
1.49848
1.34402
1.15887
0.939936
0.692382
0.429282
0.169507
-0.0659172
-0.258128
-0.394125
-0.46902
-0.486626
-0.458616
-0.402546
-0.339095
-0.288853
-0.269137
-0.291301
-0.358859
-0.466737
-0.601907
-0.745618
-0.876974
-0.977113
-1.03275
-1.03833
-0.996601
-0.917792
-0.817778
-0.715443
-0.629642
-0.57619
-0.565318
-0.599902
-0.674759
-0.777257
-0.889417
-0.991306
-1.06496
-1.09775
-1.08434
-1.02729
-0.936225
-0.826117
-0.714772
-0.619971
-0.556619
-0.534336
-0.555775
-0.61596
-0.702852
-0.799342
-0.886458
-0.947099
-0.969203
-0.947667
-0.884846
-0.78984
-0.676803
-0.562583
-0.463971
-0.394958
-0.364395
-0.374332
-0.419304
-0.486795
-0.559051
-0.616086
-0.639211
-0.614082
-0.532652
-0.39391
-0.203684
0.0261718
0.278912
0.534182
0.769438
0.961726
1.0902
1.13932
1.10201
3.84751
3.53389
3.19936
2.8761
2.59178
2.36244
2.18903
2.05805
1.94558
1.82331
1.66505
1.45227
1.1782
0.850067
0.488966
0.126555
-0.201349
-0.462889
-0.6366
-0.714834
-0.704121
-0.623476
-0.501148
-0.37031
-0.26397
-0.209919
-0.226559
-0.319847
-0.481793
-0.690948
-0.915789
-1.12091
-1.27475
-1.35571
-1.35538
-1.27887
-1.14322
-0.974269
-0.802589
-0.65867
-0.568128
-0.547755
-0.602643
-0.724771
-0.893486
-1.07871
-1.24677
-1.36774
-1.42113
-1.39895
-1.30602
-1.15838
-0.980435
-0.801048
-0.648995
-0.548446
-0.515224
-0.554081
-0.657348
-0.805382
-0.96959
-1.11798
-1.22205
-1.2623
-1.23108
-1.13287
-0.982886
-0.804281
-0.624467
-0.470775
-0.366122
-0.325391
-0.352746
-0.440231
-0.568062
-0.70736
-0.825321
-0.891712
-0.884011
-0.790163
-0.609021
-0.349436
-0.0286162
0.32963
0.696549
1.03976
1.32484
1.51875
1.59542
1.54199
4.5985
4.15406
3.6787
3.22961
2.85626
2.58621
2.41912
2.32924
2.27294
2.19997
2.06459
1.83392
1.49432
1.05523
0.55054
0.0339189
-0.432343
-0.794119
-1.01656
-1.08873
-1.02232
-0.848359
-0.612001
-0.366248
-0.163789
-0.0489044
-0.0514434
-0.18197
-0.428866
-0.757402
-1.11436
-1.43868
-1.67732
-1.79572
-1.78211
-1.64632
-1.41662
-1.13468
-0.849759
-0.610838
-0.459021
-0.421816
-0.508558
-0.707696
-0.985947
-1.2927
-1.57006
-1.76783
-1.85333
-1.81546
-1.66352
-1.42418
-1.13683
-0.847963
-0.603855
-0.443319
-0.392321
-0.459638
-0.634271
-0.884619
-1.16262
-1.4133
-1.58891
-1.65834
-1.61094
-1.45544
-1.21715
-0.933499
-0.648733
-0.406964
-0.245237
-0.188344
-0.244571
-0.403062
-0.632813
-0.886393
-1.10882
-1.25091
-1.27799
-1.17338
-0.937091
-0.583363
-0.137299
0.367861
0.89306
1.39378
1.81922
2.11615
2.23883
2.16232
5.46084
4.81879
4.12022
3.47407
2.97198
2.66172
2.53805
2.55206
2.62432
2.66651
2.60137
2.37243
1.95373
1.35487
0.629296
-0.131231
-0.813792
-1.32599
-1.61292
-1.66217
-1.49537
-1.1631
-0.736384
-0.29984
0.062497
0.2812
0.307974
0.12348
-0.258381
-0.782926
-1.35993
-1.87985
-2.25306
-2.42581
-2.38477
-2.14903
-1.76521
-1.29941
-0.830681
-0.437577
-0.184874
-0.117396
-0.252622
-0.576699
-1.03737
-1.54901
-2.00797
-2.3296
-2.46318
-2.39624
-2.14687
-1.75911
-1.29541
-0.830425
-0.438372
-0.180456
-0.0990428
-0.210658
-0.502166
-0.924028
-1.39501
-1.81672
-2.10868
-2.2226
-2.14645
-1.89724
-1.51674
-1.06432
-0.611082
-0.227892
0.0266085
0.111596
0.0108666
-0.263277
-0.663253
-1.11029
-1.508
-1.7757
-1.86162
-1.7462
-1.43428
-0.950254
-0.331079
0.377237
1.12482
1.8562
2.49868
2.96446
3.1691
3.06006
6.51393
5.56506
4.48639
3.5111
2.81137
2.46853
2.45874
2.69104
3.01901
3.2876
3.37402
3.18421
2.67256
1.837
0.758383
-0.408645
-1.44057
-2.18224
-2.55152
-2.54673
-2.20672
-1.61383
-0.874917
-0.126574
0.495616
0.887683
0.971616
0.713139
0.117569
-0.732914
-1.68769
-2.53226
-3.11748
-3.36374
-3.2678
-2.86497
-2.23185
-1.46836
-0.702704
-0.0621367
0.355995
0.478919
0.275257
-0.249009
-1.01539
-1.88117
-2.64364
-3.16214
-3.36179
-3.23974
-2.82948
-2.20339
-1.45583
-0.707868
-0.0797329
0.336573
0.472196
0.297368
-0.182353
-0.892702
-1.69835
-2.40696
-2.88483
-3.06057
-2.93116
-2.52808
-1.91991
-1.1963
-0.472566
0.136494
0.542554
0.678968
0.516021
0.0577072
-0.625923
-1.40522
-2.09438
-2.56226
-2.73519
-2.60198
-2.17928
-1.51176
-0.653223
0.330067
1.37992
2.44665
3.43258
4.1888
4.55106
4.39985
7.92783
6.49844
4.70429
3.15182
2.13667
1.79556
2.03077
2.69226
3.49922
4.17104
4.54445
4.45946
3.85782
2.66914
1.01479
-0.880608
-2.48529
-3.57472
-4.02879
-3.91399
-3.28222
-2.27484
-1.02703
0.228351
1.26011
1.93788
2.12833
1.78821
0.860591
-0.532716
-2.17416
-3.55815
-4.46999
-4.79445
-4.59274
-3.91255
-2.88621
-1.64045
-0.394591
0.633609
1.32196
1.54552
1.2648
0.427332
-0.850303
-2.36207
-3.63064
-4.45384
-4.72363
-4.49824
-3.82291
-2.8226
-1.61684
-0.412756
0.583941
1.25778
1.49049
1.24444
0.469565
-0.724138
-2.14144
-3.32947
-4.09604
-4.33797
-4.10994
-3.45426
-2.4893
-1.32848
-0.168912
0.793201
1.44679
1.67742
1.44651
0.703148
-0.450836
-1.82994
-2.9994
-3.77354
-4.04962
-3.8746
-3.27685
-2.34835
-1.155
0.187054
1.6107
3.15345
4.69726
5.98043
6.67242
6.48311
10.0882
7.95543
4.57546
2.02167
0.491819
0.292394
0.988743
2.48391
4.17403
5.48417
6.37499
6.47868
5.88842
4.17185
1.61829
-1.77119
-4.272
-5.88212
-6.32523
-6.02566
-4.89862
-3.28207
-1.19003
0.90528
2.53437
3.6898
4.04905
3.7093
2.2742
0.0248025
-3.03139
-5.26391
-6.66832
-6.98285
-6.60671
-5.45856
-3.85656
-1.81268
0.22695
1.81873
2.95724
3.33826
3.05608
1.73751
-0.348065
-3.19316
-5.25899
-6.54246
-6.79851
-6.40466
-5.28431
-3.73764
-1.77543
0.180992
1.71253
2.81424
3.19817
2.95302
1.7246
-0.23359
-2.91467
-4.85889
-6.06274
-6.29211
-5.90452
-4.82583
-3.3407
-1.45888
0.419085
1.89418
2.9601
3.34049
3.11492
1.93989
0.0484298
-2.55657
-4.47368
-5.702
-6.01366
-5.75593
-4.85069
-3.5663
-1.87093
-0.0734439
1.66995
3.85875
6.33727
8.62337
10.0629
9.92527
13.8778
11.1913
3.25039
-0.574395
-3.06407
-2.49943
-1.20331
1.99487
5.39603
7.40111
9.339
9.49721
9.54093
6.87983
3.42553
-3.94145
-7.34128
-9.87001
-9.69114
-9.3289
-7.21991
-4.97401
-1.35774
2.25356
4.49072
6.58821
6.97634
7.2077
4.86038
1.7441
-5.07468
-8.16216
-10.4361
-10.1658
-9.73238
-7.65811
-5.4632
-1.97879
1.49339
3.65656
5.68332
6.086
6.33976
4.15216
1.24788
-5.14637
-8.01396
-10.1106
-9.80925
-9.35725
-7.35963
-5.25104
-1.9257
1.38658
3.46006
5.40429
5.81173
6.07753
4.03048
1.29793
-4.749
-7.45441
-9.4327
-9.13469
-8.69426
-6.78268
-4.76331
-1.58373
1.58722
3.58437
5.46058
5.87613
6.15054
4.2083
1.57519
-4.27375
-6.93981
-8.95045
-8.79764
-8.56967
-6.97051
-5.37606
-2.73391
-0.256052
1.08784
4.14682
8.25437
12.4854
15.7243
16.1953
20.9871
21.8894
-4.09593
-5.10888
-11.017
-6.34385
-6.13411
1.21363
8.62842
9.41482
14.8658
12.6806
17.0884
10.73
10.867
-11.8244
-11.665
-17.7568
-13.3211
-15.1475
-9.73833
-8.63927
-1.5183
5.58058
6.64821
11.9481
10.1294
14.4194
8.55389
8.79501
-12.4911
-12.2319
-17.8675
-13.5837
-15.2209
-10.0314
-8.92672
-2.1273
4.64482
5.6908
10.7481
9.04818
13.139
7.59882
7.86938
-12.178
-11.8791
-17.1316
-13.037
-14.5355
-9.59477
-8.51654
-2.05716
4.37604
5.39369
10.2073
8.62927
12.5325
7.32348
7.60217
-11.3951
-11.097
-16.0805
-12.1823
-13.6025
-8.89474
-7.85664
-1.69615
4.44561
5.44874
10.0644
8.61499
12.3782
7.47155
7.73276
-10.5743
-10.3497
-15.3143
-11.6898
-13.3579
-9.08352
-8.69452
-3.36029
1.19425
-1.96401
2.92496
9.9936
17.7764
25.3712
29.6215
30.8807
71.2932
-47.4138
-2.60497
-34.2112
-3.76188
-21.3438
0.335764
21.4057
4.7116
31.3884
6.37028
40.139
5.22689
51.1814
-52.6124
-6.98686
-40.8034
-7.93358
-31.3852
-6.05023
-20.9761
-1.64703
17.5926
2.71127
27.5587
4.48584
36.255
3.45388
46.8451
-50.9326
-7.81314
-39.5831
-8.47519
-30.5398
-6.52247
-20.5907
-2.2365
16.0419
1.94879
25.5432
3.67171
33.8069
2.678
43.7487
-48.5081
-7.75043
-37.6126
-8.21054
-28.9863
-6.26788
-19.5309
-2.15093
15.1639
1.86113
24.2144
3.55368
32.1093
2.71411
41.6638
-45.8267
-7.13387
-35.5182
-7.57152
-27.3348
-5.72256
-18.3262
-1.78161
14.7036
2.11102
23.402
3.84769
31.0903
3.29314
40.6286
-43.5603
-6.28744
-34.0463
-6.96072
-26.7035
-5.60155
-19.1341
-2.86391
13.751
-16.6039
-1.43563
10.7044
23.3381
39.8341
66.3738
28831.2
28794.5
28757.6
28720.7
28683.7
28646.8
28609.9
28573.1
28536.4
28499.8
28463.3
28426.9
28390.6
28354.3
28318.1
0.179038
0.139999
0.0897586
0.0340648
-0.0212348
-0.0709871
-0.111245
-0.139476
-0.154523
-0.156411
-0.146088
-0.12516
-0.0956737
-0.0599363
-0.0204028
0.315997
0.245739
0.155653
0.0563604
-0.0415129
-0.128811
-0.198722
-0.247066
-0.272126
-0.274229
-0.255244
-0.218101
-0.166395
-0.104109
-0.0354172
0.481572
0.371309
0.230754
0.0772364
-0.0723668
-0.20402
-0.307767
-0.377941
-0.412684
-0.413134
-0.382559
-0.325602
-0.247699
-0.154687
-0.0525745
0.692039
0.527172
0.318816
0.0941986
-0.12117
-0.307136
-0.450385
-0.544248
-0.587535
-0.583063
-0.536257
-0.454051
-0.34411
-0.214364
-0.0727686
0.96952
0.726523
0.42314
0.101912
-0.199378
-0.452967
-0.642389
-0.761128
-0.810147
-0.795326
-0.725355
-0.610233
-0.460327
-0.285892
-0.0969042
1.34547
0.986261
0.545309
0.0896888
-0.325285
-0.662965
-0.905076
-1.04773
-1.0966
-1.06274
-0.959606
-0.801199
-0.601072
-0.371973
-0.12586
1.86623
1.32775
0.682146
0.0368189
-0.528486
-0.968533
-1.26722
-1.42812
-1.46578
-1.39942
-1.24913
-1.03388
-0.770789
-0.475069
-0.160423
2.60246
1.77635
0.818713
-0.0960739
-0.856943
-1.41546
-1.76715
-1.93175
-1.93897
-1.82003
-1.60362
-1.31442
-0.973131
-0.597091
-0.201183
3.66559
2.35648
0.912428
-0.382884
-1.38775
-2.06923
-2.45416
-2.59276
-2.53832
-2.33812
-2.03088
-1.64704
-1.21022
-0.738981
-0.248404
5.23682
3.07157
0.857398
-0.960142
-2.24193
-3.01954
-3.38749
-3.44683
-3.28341
-2.96326
-2.53476
-2.03264
-1.48174
-0.900206
-0.301853
7.61372
3.83557
0.405738
-2.07315
-3.60031
-4.37952
-4.62942
-4.52367
-4.18524
-3.69673
-3.11226
-2.467
-1.78391
-1.07824
-0.360654
11.2471
4.25127
-0.996875
-4.13788
-5.70662
-6.26883
-6.22701
-5.83317
-5.23715
-4.52616
-3.75054
-2.93921
-2.10865
-1.26821
-0.423175
16.4781
2.9193
-4.50663
-7.77487
-8.81945
-8.76216
-8.1766
-7.34486
-6.40403
-5.42022
-4.42454
-3.43063
-2.44328
-1.46275
-0.487016
20.9299
-4.54557
-12.1741
-13.6355
-13.0342
-11.7837
-10.3724
-8.96563
-7.6139
-6.32615
-5.09677
-3.9155
-2.77109
-1.6525
-0.549155
0.562956
1.69675
2.8547
4.05464
5.31729
6.66803
8.13947
9.77519
11.6354
13.8048
16.4002
19.5608
23.3218
26.8395
24.0138
0.573385
1.72839
2.90869
4.13311
5.42388
6.80881
8.32478
10.0235
11.982
14.3222
17.2541
21.1805
27.0039
37.195
60.1776
0.578092
1.74248
2.93203
4.16551
5.46509
6.85858
8.38315
10.0915
12.0635
14.4289
17.4183
21.4867
27.6613
38.6449
62.7467
0.577104
1.73908
2.92486
4.15202
5.44107
6.81733
8.31388
9.97641
11.8716
14.1022
16.8333
20.334
25.0007
31.0619
35.976
0.570722
1.71916
2.88894
4.09554
5.35649
6.69255
8.12935
9.69974
11.4469
13.4276
15.713
18.3708
21.3804
24.3539
26.0456
0.559482
1.68442
2.82745
4.00132
5.21975
6.49779
7.85205
9.30034
10.8599
12.5415
14.3337
16.1604
17.7787
18.547
16.912
0.544097
1.6371
2.74455
3.87616
5.0416
6.2501
7.50945
8.82369
10.1881
11.5788
12.9305
14.0944
14.7637
14.408
12.6166
0.525374
1.57974
2.64487
3.72751
4.83355
5.9671
7.12873
8.31217
9.49815
10.643
11.658
12.3719
12.4597
11.2657
7.08499
0.504136
1.51492
2.53303
3.5626
4.60639
5.66459
6.73285
7.79888
8.83672
9.79743
10.5946
11.0844
11.0456
10.1974
8.49044
0.481154
1.445
2.41322
3.38782
4.36922
5.35509
6.33852
7.30515
8.22884
9.06539
9.74468
10.164
10.1936
9.72538
8.83441
0.457103
1.37205
2.28898
3.20831
4.12894
5.04728
5.95585
6.84124
7.68146
8.44254
9.07525
9.51439
9.68727
9.54695
9.16132
0.432534
1.29773
2.16307
3.02788
3.89024
4.74626
5.58926
6.40869
7.18904
7.90882
8.54022
9.04963
9.39843
9.53887
9.38755
0.407879
1.2233
2.03752
2.84916
3.65594
4.45428
5.23904
6.00328
6.73866
7.43647
8.08989
8.69638
9.25428
9.73337
9.99001
0.383459
1.14969
1.91376
2.67382
3.42749
4.17174
4.90304
5.61791
6.31437
6.99494
7.67214
8.37688
9.16485
10.0824
10.8608
0.359513
1.0776
1.79278
2.50291
3.20557
3.89819
4.57845
5.24531
5.9011
6.55575
7.23524
7.99957
8.98546
10.5279
13.5718
0.33622
1.00751
1.67532
2.33719
2.99062
3.6332
4.26316
4.8804
5.48862
6.09928
6.73943
7.46837
8.4196
9.93065
13.0434
0.313725
0.939848
1.56196
2.17733
2.7832
3.37699
3.9567
4.52175
5.07444
5.62234
6.18193
6.78281
7.46495
8.22113
8.58943
0.292152
0.874966
1.45329
2.02406
2.58416
3.13054
3.66041
4.17168
4.66358
5.13726
5.59577
6.04079
6.45888
6.78096
6.83064
0.271611
0.813203
1.34986
1.8782
2.39466
2.89555
3.37702
3.83506
4.26537
4.66272
5.01895
5.31748
5.51947
5.52996
5.10299
0.252204
0.754862
1.25222
1.74057
2.21596
2.67405
3.1099
3.51769
3.89004
4.21672
4.48219
4.6612
4.71303
4.58274
4.26246
0.234012
0.700201
1.16082
1.61195
2.04929
2.46798
2.86226
3.22493
3.54642
3.81324
4.00547
4.09322
4.03306
3.76746
3.21577
0.217094
0.649407
1.07602
1.49289
1.89556
2.27886
2.63658
2.96076
3.24075
3.46154
3.6013
3.62796
3.49576
3.15083
2.61246
0.201477
0.602567
0.997988
1.38371
1.75527
2.10751
2.43417
2.72729
2.9762
3.1661
3.27567
3.27301
3.10618
2.66854
1.62388
0.187156
0.559664
0.926691
1.28435
1.62839
1.95391
2.25506
2.5245
2.75263
2.92645
3.02797
3.03207
2.90466
2.60778
2.16523
0.174088
0.520566
0.861894
1.19446
1.51437
1.81724
2.09797
2.3504
2.56677
2.73701
2.84791
2.88244
2.82084
2.64817
2.37434
0.1622
0.485043
0.80318
1.11337
1.41218
1.69593
1.96054
2.20135
2.41294
2.58878
2.7209
2.79957
2.81416
2.7588
2.65883
0.151394
0.452787
0.749987
1.04017
1.32045
1.58793
1.83962
2.07259
2.28393
2.47092
2.63099
2.7612
2.85605
2.9004
2.8467
0.141555
0.423442
0.701669
0.973837
1.23762
1.49087
1.73172
1.95884
2.17182
2.37175
2.56181
2.74737
2.93302
3.11009
3.231
0.132566
0.396638
0.657559
0.913325
1.16211
1.40243
1.63335
1.8549
2.06879
2.27944
2.49577
2.73349
3.01595
3.35879
3.64923
0.124313
0.372024
0.617029
0.857659
1.09249
1.32052
1.54147
1.75629
1.968
2.18318
2.41486
2.68854
3.05694
3.64388
4.79997
0.116695
0.349289
0.579536
0.80602
1.02759
1.24352
1.45386
1.65985
1.86479
2.07546
2.3048
2.5778
2.94617
3.53372
4.70732
0.10963
0.328183
0.544656
0.757798
0.966591
1.17041
1.36926
1.56414
1.75762
1.95476
2.16442
2.40084
2.68319
3.01658
3.25476
0.103055
0.308523
0.51209
0.712596
0.909053
1.10075
1.28741
1.46939
1.64791
1.82538
2.00544
2.192
2.38476
2.56556
2.67971
0.0969274
0.290181
0.481651
0.670207
0.854818
1.03459
1.20883
1.37704
1.53893
1.69421
1.84195
1.97885
2.09465
2.16082
2.09736
0.0912168
0.273079
0.453234
0.630557
0.803942
0.972283
1.13443
1.28908
1.43453
1.56826
1.686
1.78034
1.839
1.84611
1.80589
0.0859029
0.257164
0.426783
0.593643
0.75657
0.914274
1.06524
1.2075
1.33829
1.45342
1.5463
1.60662
1.61915
1.56427
1.41657
0.0809674
0.242388
0.40225
0.559461
0.712825
0.860948
1.00209
1.13388
1.25292
1.35404
1.42922
1.46607
1.44611
1.3469
1.17871
0.0763892
0.228694
0.379558
0.527952
0.672719
0.812473
0.945428
1.06913
1.18
1.27266
1.33876
1.36499
1.32811
1.17743
0.747707
0.0721402
0.216001
0.358581
0.498961
0.636095
0.768719
0.895197
1.01328
1.11972
1.20971
1.27601
1.30772
1.28914
1.20173
1.05677
0.0681831
0.204196
0.339134
0.472225
0.602604
0.729235
0.850798
0.965516
1.07088
1.16323
1.23726
1.28539
1.29796
1.26599
1.18834
0.0644715
0.193138
0.320968
0.447374
0.571717
0.693269
0.811154
0.924252
1.03106
1.12948
1.21649
1.28776
1.33772
1.36198
1.37187
0.0609518
0.182662
0.303792
0.423955
0.542768
0.659852
0.774833
0.887355
0.997078
1.10366
1.20664
1.30494
1.39532
1.46795
1.4924
0.0575667
0.172589
0.287286
0.401474
0.515021
0.627895
0.740222
0.852403
0.965273
1.08034
1.20005
1.32761
1.46526
1.60737
1.72742
0.0542588
0.162742
0.271136
0.379438
0.487743
0.596318
0.705715
0.816973
0.931939
1.05381
1.188
1.34328
1.53212
1.76211
1.96922
0.0509751
0.152956
0.255049
0.357401
0.460279
0.564169
0.669916
0.778969
0.893811
1.01873
1.16131
1.33565
1.57039
1.93273
2.61411
0.04767
0.143093
0.238784
0.334997
0.432114
0.530733
0.631821
0.736946
0.848688
0.971384
1.11256
1.28606
1.52006
1.88182
2.57059
0.0443076
0.133043
0.222157
0.311968
0.402904
0.495584
0.590924
0.690327
0.79596
0.911207
1.04136
1.19447
1.38102
1.60381
1.78335
0.0408619
0.12273
0.205047
0.288156
0.372485
0.458586
0.547208
0.639384
0.736555
0.84068
0.954233
1.07964
1.21682
1.35584
1.46754
0.0373158
0.112107
0.187385
0.263499
0.340837
0.41984
0.501023
0.584975
0.672323
0.763605
0.858871
0.956646
1.05135
1.12685
1.13742
0.0336587
0.101146
0.169144
0.237993
0.308031
0.379581
0.452918
0.528206
0.60536
0.683766
0.761767
0.835784
0.89922
0.942939
0.968577
0.0298837
0.0898309
0.150312
0.211662
0.274177
0.33808
0.403457
0.470144
0.53753
0.60421
0.66743
0.722272
0.760784
0.771589
0.736952
0.0259839
0.0781452
0.130876
0.184521
0.23936
0.295558
0.353088
0.411598
0.47019
0.527059
0.578913
0.620101
0.641589
0.631796
0.595509
0.02195
0.0660638
0.110807
0.156553
0.203599
0.252111
0.302039
0.352997
0.404048
0.453392
0.497804
0.531612
0.54412
0.510405
0.346648
0.0177675
0.0535459
0.0900407
0.127682
0.166822
0.20768
0.250278
0.29433
0.339095
0.383149
0.424062
0.457915
0.478752
0.479322
0.465526
0.0134161
0.0405305
0.0684786
0.0977722
0.128851
0.162042
0.197507
0.235169
0.274635
0.31509
0.355223
0.393258
0.42746
0.458216
0.494061
0.00886889
0.0269364
0.0459825
0.0666227
0.0894144
0.114827
0.14321
0.174758
0.20949
0.247257
0.287842
0.331266
0.378563
0.433576
0.506361
0.00409274
0.012663
0.0223797
0.0339797
0.0481581
0.0655499
0.0867157
0.112137
0.142238
0.177468
0.218492
0.266584
0.324311
0.396597
0.492374
-0.000950585
-0.00240627
-0.00253065
-0.000453285
0.00467079
0.0136527
0.0272674
0.0462666
0.0714254
0.103656
0.144236
0.195213
0.259949
0.343306
0.448644
-0.00630319
-0.0183999
-0.0289696
-0.0370016
-0.0414949
-0.0414609
-0.0359191
-0.02388
-0.00429649
0.0240467
0.0627609
0.114288
0.182659
0.274753
0.403083
-0.0120097
-0.0354536
-0.0571707
-0.0760067
-0.0908039
-0.100398
-0.103617
-0.0992648
-0.0861002
-0.062763
-0.02761
0.0216677
0.088897
0.181038
0.30838
-0.0181157
-0.0537065
-0.087372
-0.117816
-0.143725
-0.163763
-0.176571
-0.180768
-0.174967
-0.157777
-0.127788
-0.0834169
-0.0221629
0.0628815
0.201642
-0.0246664
-0.0732961
-0.11981
-0.162775
-0.200723
-0.232149
-0.255503
-0.269214
-0.271741
-0.261677
-0.237953
-0.200224
-0.149742
-0.0925752
-0.0574456
-0.0317051
-0.0943549
-0.154713
-0.211216
-0.262251
-0.306138
-0.34113
-0.365427
-0.377259
-0.375061
-0.357841
-0.325885
-0.28196
-0.232726
-0.184748
-0.039272
-0.117005
-0.192292
-0.263453
-0.328741
-0.386305
-0.434182
-0.470294
-0.492519
-0.498876
-0.487962
-0.459855
-0.417865
-0.372002
-0.348149
-0.0474019
-0.141354
-0.232735
-0.31977
-0.400593
-0.4732
-0.535403
-0.584805
-0.618797
-0.634682
-0.630021
-0.603463
-0.556458
-0.495991
-0.434315
-0.056123
-0.167489
-0.276196
-0.380401
-0.478151
-0.567317
-0.645515
-0.710015
-0.757648
-0.784756
-0.787285
-0.761271
-0.704398
-0.620817
-0.536653
-0.0654551
-0.195471
-0.322782
-0.445514
-0.56167
-0.66905
-0.765138
-0.846937
-0.910752
-0.951898
-0.96437
-0.940506
-0.870883
-0.746049
-0.573206
-0.0754085
-0.22533
-0.372548
-0.515193
-0.651282
-0.778624
-0.894682
-0.996349
-1.0796
-1.13895
-1.16669
-1.15152
-1.07571
-0.904617
-0.533162
-0.0859835
-0.257067
-0.425488
-0.589425
-0.746968
-0.896034
-1.03422
-1.15855
-1.26503
-1.34796
-1.3988
-1.40464
-1.3467
-1.20233
-0.975664
-0.097172
-0.290653
-0.481542
-0.668098
-0.848541
-1.021
-1.18338
-1.33314
-1.46683
-1.57926
-1.66215
-1.70205
-1.67771
-1.55718
-1.28482
-0.10896
-0.326039
-0.540605
-0.751014
-0.955659
-1.15296
-1.34131
-1.5189
-1.68338
-1.83106
-1.95536
-2.04408
-2.07552
-2.01748
-1.8583
-0.121331
-0.363169
-0.602555
-0.837934
-1.06788
-1.29114
-1.5067
-1.71376
-1.91161
-2.0991
-2.27326
-2.4259
-2.53546
-2.54801
-2.32421
-0.134276
-0.402002
-0.667287
-0.928628
-1.18474
-1.43466
-1.67799
-1.91501
-2.14703
-2.37639
-2.60612
-2.83762
-3.06276
-3.24268
-3.28478
-0.147794
-0.44253
-0.734757
-1.02296
-1.30588
-1.58278
-1.85364
-2.11975
-2.38429
-2.65343
-2.93776
-3.25377
-3.62145
-4.03307
-4.23821
-0.161902
-0.484801
-0.805024
-1.12094
-1.43123
-1.73507
-2.03261
-2.32557
-2.61835
-2.91991
-3.2474
-3.63402
-4.14962
-4.96684
-6.62197
-0.17664
-0.52893
-0.878279
-1.22285
-1.56104
-1.89174
-2.21476
-2.53153
-2.84631
-3.16838
-3.51596
-3.92471
-4.46835
-5.31872
-6.94938
-0.192066
-0.575102
-0.954855
-1.32918
-1.69604
-2.05375
-2.40125
-2.73885
-3.06922
-3.39913
-3.74205
-4.12173
-4.57405
-5.12873
-5.65822
-0.208253
-0.623552
-1.0352
-1.44068
-1.83742
-2.22283
-2.59462
-2.9512
-3.29245
-3.62084
-3.94262
-4.26831
-4.60867
-4.95624
-5.23819
-0.225278
-0.674537
-1.11983
-1.55827
-1.98665
-2.40138
-2.79856
-3.17419
-3.52462
-3.84712
-4.14047
-4.4047
-4.63829
-4.82931
-4.93402
-0.243204
-0.728277
-1.20922
-1.68284
-2.14536
-2.59211
-3.01745
-3.41469
-3.77619
-4.09366
-4.35854
-4.56237
-4.69746
-4.76233
-4.7894
-0.262057
-0.784886
-1.30368
-1.81514
-2.31501
-2.7977
-3.25586
-3.68
-4.05833
-4.3767
-4.61902
-4.76777
-4.80539
-4.72161
-4.54954
-0.281801
-0.844298
-1.40324
-1.95548
-2.4966
-3.02034
-3.51788
-3.97714
-4.3821
-4.71256
-4.94446
-5.05035
-4.99763
-4.74219
-4.28888
-0.302315
-0.906175
-1.50746
-2.10353
-2.69025
-3.26116
-3.8065
-4.31198
-4.7576
-5.11688
-5.3574
-5.44309
-5.33063
-4.90017
-3.45005
-0.323362
-0.969841
-1.6153
-2.25808
-2.89488
-3.51975
-4.1228
-4.68839
-5.19306
-5.60366
-5.87787
-5.97342
-5.88448
-5.76625
-6.39595
-0.344578
-1.03421
-1.72501
-2.41679
-3.10778
-3.79349
-4.4651
-5.10711
-5.69386
-6.18515
-6.5224
-6.63188
-6.45866
-6.11294
-6.42938
-0.365464
-1.09778
-1.83402
-2.57606
-3.32436
-4.07701
-4.82796
-5.5642
-6.26094
-6.87362
-7.32511
-7.48665
-7.15264
-5.9998
-3.37922
-0.38539
-1.15861
-1.93902
-2.73097
-3.53792
-4.36171
-5.20104
-6.04872
-6.88639
-7.67404
-8.32918
-8.68556
-8.41523
-6.90592
-3.2026
-0.403621
-1.21444
-2.036
-2.87545
-3.7398
-4.63563
-5.56831
-6.54019
-7.54658
-8.56647
-9.54071
-10.3197
-10.5382
-9.33566
-4.90226
-0.419368
-1.26282
-2.12057
-3.00263
-3.91981
-4.88397
-5.90836
-7.00769
-8.19739
-9.49061
-10.8878
-12.343
-13.6481
-14.009
-10.3319
-0.43184
-1.30127
-2.18824
-3.10544
-4.06719
-5.09047
-6.19638
-7.41242
-8.77631
-10.3425
-12.1947
-14.4705
-17.4137
-21.4866
-27.5578
-11.2588
-25.7424
-24.3286
-20.7755
-17.4756
-14.7097
-12.394
-10.4127
-8.67383
-7.11048
-5.67444
-4.3302
-3.05064
-1.81404
-0.602011
-111.024
-57.8754
-37.343
-27.2025
-21.158
-17.0492
-13.9877
-11.5491
-9.50683
-7.72837
-6.13078
-4.65862
-3.27246
-1.94239
-0.644039
-123.443
-67.3586
-43.1408
-30.785
-23.4961
-18.6615
-15.1487
-12.4104
-10.1566
-8.22066
-6.50003
-4.92732
-3.45534
-2.04871
-0.678932
-67.804
-54.7124
-40.7011
-30.8489
-24.1297
-19.356
-15.7719
-12.9353
-10.5856
-8.56342
-6.76655
-5.12608
-3.59283
-2.12944
-0.705552
-47.8564
-42.7049
-35.3732
-28.7369
-23.4124
-19.2243
-15.8759
-13.1221
-10.7872
-8.7497
-6.92445
-5.25039
-3.68179
-2.18274
-0.723295
-30.381
-32.2113
-29.5624
-25.7141
-21.9058
-18.5095
-15.5671
-13.0179
-10.7824
-8.78856
-6.97738
-5.30145
-3.72246
-2.20855
-0.732106
-22.406
-24.8284
-24.5845
-22.6635
-20.1131
-17.4794
-14.9853
-12.6958
-10.6096
-8.70059
-6.93637
-5.28519
-3.71793
-2.20834
-0.732424
-12.4438
-19.297
-20.7712
-20.05
-18.3782
-16.3525
-14.2612
-12.2327
-10.3138
-8.51205
-6.81688
-5.21065
-3.67334
-2.18474
-0.725056
-15.0054
-17.501
-18.4826
-18.0966
-16.8891
-15.271
-13.4936
-11.6934
-9.93677
-8.24947
-6.63563
-5.08823
-3.59494
-2.14107
-0.711037
-15.6552
-16.7563
-17.1436
-16.7139
-15.685
-14.3004
-12.7417
-11.1239
-9.51153
-7.93587
-6.40822
-4.92824
-3.48917
-2.08085
-0.691488
-16.2641
-16.5072
-16.372
-15.7472
-14.7279
-13.4505