/*--------------------------------*- C++ -*----------------------------------*\
| =========                 |                                                 |
| \\      /  F ield         | OpenFOAM: The Open Source CFD Toolbox           |
|  \\    /   O peration     | Version:  5.x                                   |
|   \\  /    A nd           | Web:      www.OpenFOAM.org                      |
|    \\/     M anipulation  |                                                 |
\*---------------------------------------------------------------------------*/
FoamFile
{
    version     2.0;
    format      ascii;
    class       volScalarField;
    location    "15.6999";
    object      gradTy;
}
// * * * * * * * * * * * * * * * * * * * * * * * * * * * * * * * * * * * * * //

dimensions      [0 -1 0 1 0 0 0];

internalField   nonuniform List<scalar> 
6300
(
32284.1
32252.1
32220.1
32187.9
32155.4
32122.7
32089.5
32056
32021.9
31987.3
31952.2
31916.5
31880.2
31843.3
31805.8
0.0533467
0.159542
0.26421
0.36622
0.464283
0.556907
0.64238
0.71879
0.784085
0.8362
0.873248
0.893764
0.896994
0.883173
0.853713
0.0894613
0.267593
0.443292
0.614739
0.77983
0.9361
1.08068
1.2103
1.3214
1.41035
1.47371
1.50873
1.51385
1.48925
1.43726
0.126367
0.378076
0.626626
0.86961
1.1042
1.32698
1.53392
1.72031
1.88088
2.01009
2.10253
2.15362
2.16045
2.12272
2.04358
0.164294
0.491716
0.815517
1.13287
1.44035
1.7337
2.00771
2.25612
2.47172
2.64659
2.77269
2.84277
2.85162
2.79761
2.68432
0.203384
0.60897
1.01085
1.406
1.79061
2.15974
2.50708
2.82475
3.10329
3.33186
3.49889
3.59319
3.60568
3.53185
3.37454
0.243655
0.729929
1.21289
1.68966
2.15634
2.60756
3.03611
3.43251
3.78483
4.07869
4.29787
4.42546
4.44614
4.34965
4.13549
0.284962
0.854193
1.42112
1.98341
2.5375
3.07806
3.59729
4.08437
4.52483
4.90027
5.1885
5.36472
5.4039
5.28526
4.99939
0.326958
0.980759
1.63397
2.28533
2.93221
3.56987
4.19063
4.78287
5.32991
5.80911
6.19127
6.44117
6.51965
6.3883
6.01816
0.369065
1.10791
1.84866
2.59173
3.33612
4.07857
4.81252
5.5266
6.20292
6.81509
7.32646
7.68925
7.84554
7.73053
7.27873
0.410453
1.23315
2.06103
2.89682
3.74196
4.59581
5.4543
6.30813
7.14016
7.92202
8.61045
9.14421
9.44333
9.41046
8.92695
0.450045
1.35321
2.2655
3.19253
4.1391
5.10841
6.10077
7.11155
8.12767
9.12257
10.0494
10.8345
11.3745
11.5437
11.1893
0.486558
1.46416
2.45521
3.46872
4.51352
5.59796
6.72888
7.90968
9.13651
10.3914
11.6307
12.771
13.6798
14.2085
14.3062
0.518587
1.56163
2.62248
3.71359
4.84832
6.04106
7.30714
8.66184
10.1174
11.6758
13.3119
14.9411
16.3727
17.3255
17.9523
0.544745
1.64131
2.75947
3.91486
5.1251
6.41082
7.79679
9.31314
10.9957
12.8827
15.0005
17.3119
19.558
20.8176
18.5846
31770.9
31738.8
31706.3
31673.5
31640.4
31607
31573.3
31539.4
31505.2
31470.9
31436.4
31401.7
31366.8
31331.9
31296.9
31261.8
31226.7
31191.6
31156.4
31121.3
31086.2
31051.2
31016.2
30981.2
30946.3
30911.5
30876.7
30841.9
30807.2
30772.6
30738.1
30703.6
30669.2
30635
30600.8
30566.8
30532.9
30499
30465.3
30431.7
30398.2
30364.7
30331.4
30298.1
30264.9
30231.9
30198.9
30166.1
30133.4
30100.8
30068.3
30035.9
30003.6
29971.5
29939.4
29907.4
29875.6
29843.8
29812.1
29780.4
29748.9
29717.5
29686.1
29654.9
29623.8
29592.8
29561.8
29531
29500.2
29469.6
29439
29408.4
29377.9
29347.5
29317.2
29286.9
29256.6
29226.5
29196.3
29166.3
29136.2
29106.2
29076.2
29046.2
29016.2
28986.1
28955.9
28925.7
28895.3
28864.9
0.814762
0.772562
0.725846
0.676825
0.627345
0.578639
0.531199
0.484793
0.438645
0.391724
0.343092
0.292226
0.239256
0.185068
0.131233
0.0797886
0.032907
-0.00748664
-0.0400619
-0.0643315
-0.0807539
-0.0906753
-0.096125
-0.0995003
-0.103193
-0.109217
-0.1189
-0.132682
-0.150069
-0.169735
-0.189782
-0.208093
-0.222718
-0.232235
-0.235998
-0.23425
-0.228071
-0.219197
-0.20972
-0.201739
-0.197012
-0.196658
-0.200975
-0.209392
-0.220568
-0.232634
-0.243526
-0.251353
-0.254731
-0.253017
-0.246416
-0.235927
-0.223173
-0.210113
-0.198715
-0.190622
-0.186875
-0.187736
-0.192641
-0.200301
-0.208921
-0.216526
-0.221303
-0.221915
-0.217732
-0.208917
-0.196387
-0.181635
-0.166463
-0.152654
-0.141657
-0.134307
-0.130653
-0.129908
-0.130536
-0.130469
-0.127426
-0.119263
-0.104323
-0.0817023
-0.0514286
-0.0145135
0.0271065
0.0707319
0.113148
0.150938
0.180844
0.200128
0.206917
0.200442
1.36874
1.29478
1.21341
1.12877
1.04434
0.962379
0.883669
0.80755
0.732264
0.655547
0.575317
0.490326
0.400638
0.307829
0.214869
0.125682
0.0444925
-0.0249394
-0.0800024
-0.119721
-0.144952
-0.158262
-0.163535
-0.16536
-0.168313
-0.176245
-0.19168
-0.215436
-0.246513
-0.282303
-0.319078
-0.352686
-0.379319
-0.396206
-0.402095
-0.397463
-0.38441
-0.366297
-0.347167
-0.331076
-0.321417
-0.320353
-0.328457
-0.344613
-0.366207
-0.389593
-0.410747
-0.42599
-0.432639
-0.429462
-0.41687
-0.396815
-0.372444
-0.347553
-0.325947
-0.310807
-0.304146
-0.306474
-0.316698
-0.332309
-0.349815
-0.365369
-0.375449
-0.377475
-0.370242
-0.354098
-0.330844
-0.303399
-0.275278
-0.249968
-0.230313
-0.217987
-0.213153
-0.214354
-0.218684
-0.2222
-0.22053
-0.209561
-0.18609
-0.148342
-0.0962713
-0.0316595
0.0420081
0.119838
0.19597
0.264144
0.318338
0.353462
0.365997
0.35449
1.93953
1.82771
1.70568
1.58043
1.45779
1.34144
1.23241
1.1291
1.02794
0.924417
0.814385
0.695178
0.566501
0.430799
0.293061
0.160054
0.0391418
-0.0630865
-0.14204
-0.195975
-0.226314
-0.237422
-0.235911
-0.229595
-0.226264
-0.232465
-0.252479
-0.287646
-0.33617
-0.393451
-0.452931
-0.507321
-0.549955
-0.576012
-0.583343
-0.572799
-0.548037
-0.514859
-0.480237
-0.451152
-0.433444
-0.430845
-0.444345
-0.472002
-0.509264
-0.549765
-0.586479
-0.613002
-0.624695
-0.619466
-0.598069
-0.563919
-0.522464
-0.48026
-0.443871
-0.418779
-0.408473
-0.413841
-0.433
-0.461586
-0.493521
-0.522096
-0.541193
-0.546368
-0.535586
-0.509516
-0.471334
-0.426138
-0.380045
-0.33914
-0.308416
-0.290882
-0.28696
-0.294294
-0.308003
-0.321399
-0.327025
-0.31786
-0.288419
-0.235605
-0.159174
-0.0618461
0.0509161
0.171386
0.290254
0.397479
0.483293
0.539323
0.559698
0.541949
2.53514
2.37536
2.20262
2.02836
1.86217
1.70996
1.5729
1.44755
1.32698
1.20265
1.06664
0.913646
0.742461
0.556685
0.364424
0.177
0.00687637
-0.134756
-0.240111
-0.306212
-0.335371
-0.334753
-0.315206
-0.289532
-0.270488
-0.268795
-0.291456
-0.340622
-0.413217
-0.501431
-0.594117
-0.678884
-0.744464
-0.782783
-0.790328
-0.768612
-0.723781
-0.665501
-0.605334
-0.554845
-0.523715
-0.518157
-0.539845
-0.585559
-0.647657
-0.71539
-0.776886
-0.821369
-0.84112
-0.832749
-0.797634
-0.74154
-0.673564
-0.604596
-0.545525
-0.50546
-0.490227
-0.501352
-0.535724
-0.586043
-0.642064
-0.692469
-0.726986
-0.738236
-0.722947
-0.682373
-0.621925
-0.550167
-0.477343
-0.41365
-0.367525
-0.344173
-0.344561
-0.365052
-0.397775
-0.431785
-0.454822
-0.455353
-0.424407
-0.356875
-0.252167
-0.114258
0.048725
0.225242
0.401305
0.561644
0.691138
0.776528
0.808297
0.782318
3.16559
2.94175
2.70181
2.4647
2.24646
2.05667
1.89655
1.75914
1.63141
1.49769
1.34335
1.15828
0.939412
0.691892
0.428803
0.169019
-0.0664282
-0.258674
-0.394712
-0.469653
-0.487308
-0.459346
-0.403326
-0.339923
-0.289728
-0.270058
-0.292264
-0.359861
-0.467773
-0.602972
-0.746705
-0.878077
-0.978227
-1.03387
-1.03945
-0.997712
-0.918891
-0.818859
-0.716497
-0.63066
-0.577162
-0.566233
-0.600748
-0.675526
-0.777934
-0.89
-0.991791
-1.06535
-1.09804
-1.08454
-1.02741
-0.936272
-0.826093
-0.714679
-0.619809
-0.556386
-0.534026
-0.555385
-0.615486
-0.70229
-0.798692
-0.885723
-0.946285
-0.968318
-0.94672
-0.883848
-0.788801
-0.675733
-0.56149
-0.462864
-0.393842
-0.363276
-0.373214
-0.418194
-0.485696
-0.557969
-0.615026
-0.638176
-0.613076
-0.531678
-0.39297
-0.202778
0.0270454
0.279754
0.534996
0.770228
0.962493
1.09095
1.14005
1.10272
3.84495
3.53142
3.19703
2.87395
2.58983
2.36072
2.18754
2.05678
1.9445
1.8224
1.66427
1.45159
1.17759
0.849497
0.488404
0.125979
-0.201957
-0.46354
-0.637302
-0.715591
-0.704935
-0.624348
-0.502077
-0.371297
-0.265014
-0.211018
-0.22771
-0.321047
-0.483034
-0.692225
-0.917093
-1.12223
-1.27608
-1.35705
-1.35672
-1.28021
-1.14455
-0.975572
-0.803864
-0.659907
-0.569312
-0.548871
-0.603675
-0.725703
-0.894305
-1.0794
-1.24735
-1.36819
-1.42146
-1.39918
-1.30615
-1.15842
-0.980401
-0.800938
-0.648809
-0.548179
-0.51487
-0.553631
-0.656793
-0.804717
-0.968814
-1.11709
-1.22107
-1.26123
-1.22992
-1.13166
-0.981628
-0.802988
-0.623151
-0.469445
-0.364784
-0.324051
-0.351409
-0.438903
-0.566747
-0.706066
-0.824054
-0.890478
-0.882815
-0.789008
-0.607909
-0.348367
-0.0275891
0.330619
0.697504
1.04068
1.32574
1.51963
1.59628
1.54283
4.59558
4.15129
3.67612
3.22725
2.8541
2.58431
2.41749
2.32785
2.27177
2.19898
2.06375
1.83318
1.49366
1.0546
0.549905
0.033258
-0.433048
-0.794879
-1.01738
-1.08961
-1.02327
-0.849377
-0.613085
-0.367397
-0.165005
-0.0501867
-0.0527898
-0.183376
-0.430325
-0.758903
-1.11589
-1.44024
-1.67889
-1.79729
-1.78368
-1.64789
-1.41817
-1.13622
-0.851271
-0.612312
-0.460439
-0.423158
-0.509799
-0.708814
-0.986922
-1.29352
-1.57072
-1.76834
-1.85369
-1.8157
-1.66364
-1.42421
-1.13678
-0.847837
-0.603652
-0.44303
-0.391934
-0.459139
-0.633644
-0.883853
-1.16172
-1.41225
-1.58774
-1.65705
-1.60956
-1.454
-1.21566
-0.931968
-0.647181
-0.4054
-0.243668
-0.186775
-0.243006
-0.401507
-0.631275
-0.884878
-1.10733
-1.24946
-1.2766
-1.17204
-0.935807
-0.582135
-0.136123
0.36899
0.894148
1.39483
1.82025
2.11716
2.23982
2.16329
5.45758
4.81576
4.11753
3.47171
2.96976
2.65975
2.53636
2.55064
2.62312
2.6655
2.6005
2.37167
1.95303
1.35419
0.6286
-0.131971
-0.814595
-1.32686
-1.61387
-1.66319
-1.49647
-1.16427
-0.737623
-0.301153
0.0611068
0.279731
0.306426
0.121857
-0.260069
-0.784666
-1.3617
-1.88164
-2.25487
-2.42761
-2.38657
-2.15083
-1.76701
-1.3012
-0.83245
-0.439313
-0.186557
-0.118996
-0.254106
-0.578031
-1.03852
-1.54995
-2.00871
-2.33013
-2.46354
-2.39646
-2.14696
-1.75911
-1.29534
-0.830287
-0.438164
-0.180164
-0.0986465
-0.210131
-0.501484
-0.923168
-1.39397
-1.81549
-2.10729
-2.22108
-2.14482
-1.89553
-1.51498
-1.06253
-0.609281
-0.226085
0.0284161
0.113401
0.0126666
-0.261486
-0.661478
-1.10854
-1.50629
-1.77404
-1.86003
-1.74467
-1.43282
-0.94887
-0.329761
0.378497
1.12603
1.85738
2.49982
2.96558
3.17021
3.06117
6.51032
5.56144
4.48347
3.50915
2.80942
2.46665
2.45711
2.68968
3.01787
3.28664
3.3732
3.18348
2.67187
1.83631
0.757644
-0.409461
-1.44147
-2.18324
-2.55261
-2.5479
-2.20797
-1.61515
-0.876313
-0.128049
0.494054
0.886025
0.969859
0.711286
0.115631
-0.734916
-1.68974
-2.53432
-3.11954
-3.36579
-3.26984
-2.86701
-2.23389
-1.47041
-0.704749
-0.0641666
0.354007
0.477012
0.273479
-0.250601
-1.01675
-1.88224
-2.64444
-3.16268
-3.36211
-3.23989
-2.82951
-2.20334
-1.45573
-0.707722
-0.0795392
0.336837
0.472565
0.297884
-0.181644
-0.891762
-1.69716
-2.40553
-2.88319
-3.05877
-2.92923
-2.52608
-1.91786
-1.19424
-0.470503
0.138551
0.544604
0.681013
0.518062
0.0597429
-0.6239
-1.40322
-2.09242
-2.56037
-2.73338
-2.60026
-2.17766
-1.51023
-0.651774
0.331444
1.38123
2.44793
3.43383
4.19004
4.5523
4.40109
7.9248
6.49299
4.69912
3.15042
2.13569
1.79423
2.02943
2.69108
3.49824
4.1702
4.54373
4.45881
3.85719
2.66847
1.01403
-0.881499
-2.48632
-3.57587
-4.03003
-3.91532
-3.28363
-2.27632
-1.02857
0.226725
1.25839
1.93604
2.12636
1.78611
0.858374
-0.535015
-2.1765
-3.56049
-4.47231
-4.79675
-4.59502
-3.91482
-2.8885
-1.64276
-0.396936
0.631247
1.31961
1.54323
1.26265
0.425403
-0.851913
-2.36329
-3.63148
-4.45433
-4.72384
-4.49826
-3.82282
-2.82245
-1.61668
-0.412613
0.584088
1.25797
1.49077
1.24488
0.470246
-0.723146
-2.14009
-3.32779
-4.09409
-4.33582
-4.10765
-3.45191
-2.48692
-1.32612
-0.166578
0.795509
1.44908
1.6797
1.44879
0.705438
-0.448545
-1.82767
-2.99717
-3.77139
-4.04758
-3.87268
-3.27506
-2.34668
-1.15344
0.188527
1.6121
3.15481
4.6986
5.98178
6.67378
6.48449
10.096
7.9496
4.55927
2.01695
0.491635
0.292235
0.988206
2.48324
4.17337
5.48356
6.37445
6.47818
5.88792
4.17126
1.61755
-1.77217
-4.27317
-5.88345
-6.32666
-6.02718
-4.9002
-3.2837
-1.19171
0.903528
2.53251
3.6878
4.04687
3.70693
2.27165
0.0221477
-3.03407
-5.26658
-6.67092
-6.98539
-6.6092
-5.46104
-3.85906
-1.81525
0.224287
1.816
2.95446
3.3355
3.05342
1.7351
-0.350036
-3.19451
-5.2598
-6.54278
-6.79851
-6.40444
-5.284
-3.73733
-1.77521
0.181109
1.71257
2.81426
3.19827
2.95328
1.72515
-0.232609
-2.91314
-4.85688
-6.06037
-6.28951
-5.90178
-4.82306
-3.33794
-1.4562
0.421689
1.89673
2.96261
3.34299
3.11744
1.94244
0.0510118
-2.55397
-4.47112
-5.69956
-6.01137
-5.75382
-4.84874
-3.56451
-1.86927
-0.071899
1.67139
3.86014
6.33867
8.6248
10.0643
9.9268
13.9596
11.2336
3.2122
-0.598799
-3.07163
-2.50164
-1.20414
1.9944
5.39564
7.40076
9.33869
9.49692
9.54063
6.87942
3.42488
-3.94258
-7.34269
-9.87159
-9.69279
-9.33064
-7.22166
-4.97581
-1.35954
2.25174
4.48877
6.58609
6.97395
7.20505
4.85741
1.74098
-5.0778
-8.16521
-10.439
-10.1686
-9.73502
-7.66074
-5.46586
-1.9816
1.49039
3.65341
5.68001
6.08264
6.33638
4.14903
1.24529
-5.14779
-8.01462
-10.1105
-9.80887
-9.35659
-7.35898
-5.25044
-1.92537
1.38661
3.45994
5.40403
5.81152
6.07739
4.03072
1.29872
-4.74715
-7.45194
-9.42971
-9.1315
-8.69094
-6.77941
-4.76012
-1.58072
1.59006
3.58713
5.46327
5.87884
6.15327
4.21111
1.57808
-4.27074
-6.93683
-8.94765
-8.79505
-8.56737
-6.96842
-5.3742
-2.73218
-0.254449
1.08924
4.14817
8.25577
12.4869
15.7259
16.197
21.4267
22.3615
-3.99995
-5.10807
-11.0189
-6.34459
-6.1344
1.21348
8.62829
9.41471
14.8657
12.6806
17.0884
10.73
10.8668
-11.826
-11.6667
-17.7588
-13.3229
-15.1495
-9.74022
-8.64132
-1.52017
5.57887
6.64621
11.946
10.1268
14.4165
8.55024
8.79121
-12.4947
-12.2355
-17.8706
-13.5867
-15.2235
-10.0341
-8.92936
-2.13029
4.6414
5.68726
10.7441
9.04416
13.1345
7.59454
7.86526
-12.1788
-11.8796
-17.1306
-13.0362
-14.534
-9.5937
-8.51535
-2.05669
4.37579
5.3934
10.2065
8.6287
12.5316
7.32316
7.60201
-11.3923
-11.0939
-16.0764
-12.1785
-13.5983
-8.89094
-7.85285
-1.69281
4.44855
5.45168
10.0672
8.61792
12.381
7.47464
7.73589
-10.5706
-10.3461
-15.3111
-11.6868
-13.3556
-9.0813
-8.69272
-3.35849
1.19601
-1.96285
2.92613
9.99493
17.7779
25.3729
29.6234
32.3842
72.8208
-47.5535
-2.67916
-34.2006
-3.75741
-21.3426
0.33622
21.4058
4.71171
31.3887
6.37036
40.1398
5.22726
51.1836
-52.6164
-6.98873
-40.8064
-7.9351
-31.388
-6.05181
-20.9789
-1.64892
17.5916
2.70891
27.5575
4.48252
36.2528
3.4486
46.8402
-50.9366
-7.81791
-39.5856
-8.47895
-30.5417
-6.52561
-20.5927
-2.23957
16.0376
1.94528
25.538
3.66768
33.8003
2.67269
43.7386
-48.5043
-7.75234
-37.6082
-8.21056
-28.9824
-6.26721
-19.5279
-2.15028
15.1624
1.86136
24.2119
3.55373
32.1059
2.71396
41.6587
-45.819
-7.13126
-35.5111
-7.5679
-27.3287
-5.71873
-18.3212
-1.77799
14.7061
2.11445
23.4043
3.85125
31.0927
3.29682
40.6313
-43.5552
-6.28266
-34.0429
-6.9568
-26.7016
-5.59883
-19.133
-2.86201
13.7537
-16.6038
-1.43487
10.7056
23.3397
39.836
66.3762
28831.3
28794.5
28757.6
28720.7
28683.8
28646.8
28609.9
28573.1
28536.4
28499.8
28463.3
28426.9
28390.6
28354.3
28318.1
0.179224
0.140178
0.0899294
0.0342267
-0.0210828
-0.0708459
-0.111116
-0.13936
-0.154421
-0.156323
-0.146014
-0.125103
-0.0956324
-0.0599114
-0.0203945
0.316308
0.246039
0.155939
0.0566314
-0.0412583
-0.128574
-0.198506
-0.246871
-0.271953
-0.274081
-0.255121
-0.218004
-0.166326
-0.104067
-0.0354033
0.48201
0.37173
0.231156
0.0776181
-0.0720079
-0.203687
-0.307462
-0.377666
-0.412441
-0.412925
-0.382386
-0.325467
-0.247601
-0.154628
-0.0525548
0.692603
0.527715
0.319337
0.0946933
-0.120705
-0.306703
-0.449988
-0.54389
-0.58722
-0.582792
-0.536033
-0.453874
-0.343983
-0.214288
-0.0727431
0.970212
0.727192
0.423782
0.102524
-0.198802
-0.452431
-0.641898
-0.760686
-0.809756
-0.79499
-0.725078
-0.610015
-0.46017
-0.285798
-0.0968726
1.34629
0.987058
0.546076
0.0904209
-0.324594
-0.662322
-0.904486
-1.0472
-1.09613
-1.06233
-0.959273
-0.800938
-0.600884
-0.37186
-0.125822
1.86718
1.32868
0.683045
0.0376781
-0.527674
-0.967777
-1.26653
-1.42749
-1.46523
-1.39895
-1.24874
-1.03358
-0.770569
-0.474937
-0.160378
2.60355
1.77742
0.81975
-0.0950792
-0.856002
-1.41459
-1.76634
-1.93103
-1.93833
-1.81949
-1.60317
-1.31407
-0.972877
-0.596938
-0.201132
3.66683
2.3577
0.913616
-0.381743
-1.38667
-2.06822
-2.45324
-2.59194
-2.53759
-2.3375
-2.03037
-1.64664
-1.20994
-0.738808
-0.248346
5.23821
3.07295
0.858753
-0.958839
-2.2407
-3.0184
-3.38644
-3.4459
-3.28259
-2.96255
-2.53418
-2.03218
-1.48142
-0.90001
-0.301787
7.61529
3.83715
0.407281
-2.07166
-3.59891
-4.37823
-4.62824
-4.52261
-4.18432
-3.69594
-3.11161
-2.4665
-1.78355
-1.07803
-0.360582
11.2488
4.25306
-0.99511
-4.13619
-5.70503
-6.26737
-6.22569
-5.83199
-5.23612
-4.52529
-3.74982
-2.93865
-2.10825
-1.26796
-0.423095
16.4802
2.92137
-4.5046
-7.77294
-8.81767
-8.76052
-8.17513
-7.34356
-6.4029
-5.41926
-4.42375
-3.43002
-2.44284
-1.46249
-0.486928
20.9322
-4.54313
-12.1717
-13.6333
-13.0322
-11.7819
-10.3708
-8.9642
-7.61265
-6.32509
-5.0959
-3.91483
-2.77061
-1.65221
-0.549058
0.562814
1.69632
2.85399
4.05364
5.31602
6.6665
8.13769
9.77319
11.6332
13.8024
16.3967
19.5521
23.2974
26.8098
24.3008
0.573234
1.72794
2.90794
4.13208
5.42258
6.80725
8.32299
10.0216
11.9799
14.3202
17.2521
21.1752
26.9722
37.0441
59.7308
0.577931
1.742
2.93124
4.16443
5.46373
6.85698
8.38133
10.0895
12.0613
14.4269
17.4173
21.4887
27.6606
38.5652
62.1778
0.576932
1.73857
2.92401
4.15087
5.43964
6.81565
8.31199
9.97434
11.8694
14.0998
16.8313
20.3358
25.017
31.0992
35.8736
0.570536
1.71861
2.88803
4.0943
5.35495
6.69074
8.12733
9.69754
11.4445
13.425
15.7099
18.3674
21.3819
24.3763
26.0444
0.559281
1.68382
2.82647
3.99998
5.21808
6.49583
7.84984
9.29793
10.8573
12.5388
14.3306
16.1565
17.7746
18.5507
16.9095
0.543879
1.63645
2.74348
3.8747
5.03977
6.24793
7.50699
8.82097
10.1852
11.5757
12.9273
14.0906
14.7593
14.4062
12.6132
0.525137
1.57904
2.6437
3.7259
4.83153
5.96469
7.12597
8.30908
9.49476
10.6394
11.6541
12.3678
12.4551
11.2621
7.08231
0.503879
1.51415
2.53176
3.56085
4.60417
5.66193
6.72976
7.79537
8.83281
9.79313
10.59
11.0794
11.0402
10.1921
8.48525
0.480879
1.44418
2.41185
3.38592
4.3668
5.35216
6.33508
7.3012
8.22437
9.06038
9.73913
10.158
10.1869
9.71846
8.82761
0.456809
1.37117
2.28752
3.20626
4.12632
5.04409
5.95206
6.83685
7.67642
8.4368
9.06875
9.50708
9.67911
9.53802
9.15157
0.432225
1.2968
2.16152
3.02571
3.88744
4.74283
5.58516
6.40388
7.18345
7.90237
8.53278
9.04108
9.38866
9.52788
9.37582
0.407557
1.22233
2.0359
2.84689
3.65299
4.45064
5.23466
5.99811
6.7326
7.42939
8.0816
8.68666
9.24285
9.71999
9.97459
0.383127
1.1487
1.91209
2.67147
3.42443
4.16794
4.89845
5.61245
6.30793
6.98736
7.66317
8.36618
9.15193
10.0666
10.8423
0.359176
1.07658
1.79108
2.50051
3.20244
3.89429
4.57373
5.23968
5.89444
6.54786
7.22585
7.98824
8.97146
10.5098
13.5462
0.335882
1.00649
1.67361
2.33477
2.98747
3.62927
4.25839
4.87471
5.48188
6.09131
6.72995
7.45697
8.40554
9.91255
13.0179
0.313389
0.938837
1.56026
2.17493
2.78007
3.37308
3.95196
4.51611
5.06778
5.6145
6.17269
6.77186
7.45186
8.20541
8.57136
0.291822
0.873975
1.45163
2.02171
2.58109
3.12672
3.65578
4.16619
4.65713
5.12974
5.58701
6.03063
6.44712
6.76749
6.8156
0.271292
0.812241
1.34825
1.87592
2.39169
2.89186
3.37257
3.8298
4.25923
4.65564
5.01084
5.30827
5.50915
5.51866
5.09132
0.251897
0.75394
1.25067
1.73839
2.21313
2.67053
3.10567
3.51272
3.88429
4.21016
4.4748
4.65299
4.70408
4.57323
4.25253
0.233721
0.699326
1.15936
1.60988
2.04661
2.46467
2.8583
3.22029
3.5411
3.80723
3.9988
4.08597
4.02539
3.75964
3.20829
0.21682
0.648584
1.07465
1.49096
1.89305
2.27577
2.63289
2.95648
3.23587
3.45608
3.59532
3.62158
3.48918
3.14439
2.60644
0.201223
0.601802
0.99671
1.38191
1.75294
2.10465
2.43078
2.72336
2.97175
3.16116
3.27031
3.26736
3.10048
2.66328
1.62038
0.186922
0.558959
0.925514
1.2827
1.62626
1.9513
2.25196
2.52093
2.7486
2.92199
3.02315
3.02699
2.89951
2.6028
2.16062
0.173875
0.519924
0.860823
1.19296
1.51243
1.81487
2.09517
2.34717
2.56313
2.73299
2.84356
2.87783
2.81607
2.64333
2.36946
0.162008
0.484465
0.802217
1.11202
1.41044
1.69381
1.95802
2.19845
2.40968
2.58517
2.71696
2.79535
2.80969
2.75409
2.65383
0.151223
0.452274
0.749132
1.03897
1.31891
1.58604
1.8374
2.07002
2.28103
2.4677
2.62745
2.75735
2.85189
2.89588
2.84174
0.141406
0.422995
0.700923
0.972792
1.23628
1.48923
1.72978
1.9566
2.16929
2.36892
2.55867
2.7439
2.92918
3.10581
3.22623
0.132439
0.396257
0.656923
0.912434
1.16097
1.40103
1.63169
1.85299
2.06661
2.27699
2.49303
2.73043
3.01248
3.35478
3.64453
0.124208
0.371708
0.616502
0.856922
1.09154
1.31936
1.5401
1.75471
1.96619
2.18114
2.41257
2.68594
3.05393
3.64024
4.79522
0.116611
0.349038
0.579119
0.805437
1.02684
1.2426
1.45277
1.6586
1.86337
2.07384
2.30298
2.57573
2.94377
3.53079
4.70327
0.109568
0.327998
0.544348
0.757368
0.966039
1.16974
1.36846
1.56322
1.75658
1.95359
2.1631
2.39937
2.68154
3.01478
3.2531
0.103015
0.308402
0.511891
0.712318
0.908698
1.10032
1.28691
1.46881
1.64725
1.82465
2.00463
2.19112
2.38385
2.56469
2.67906
0.0969087
0.290126
0.481559
0.67008
0.854659
1.0344
1.20861
1.37679
1.53866
1.69391
1.84165
1.97854
2.0944
2.16075
2.09776
0.0912193
0.273087
0.453248
0.630581
0.803977
0.972332
1.1345
1.28916
1.43465
1.56841
1.68618
1.78058
1.83934
1.84664
1.80676
0.0859261
0.257234
0.426903
0.593815
0.756797
0.914561
1.06559
1.20792
1.33878
1.45399
1.54696
1.60736
1.62001
1.5653
1.41792
0.081011
0.242519
0.402472
0.559777
0.71324
0.861468
1.00272
1.13463
1.25379
1.35503
1.43035
1.46731
1.44745
1.34831
1.18019
0.0764527
0.228885
0.37988
0.528409
0.673318
0.813221
0.946334
1.0702
1.18124
1.27408
1.34036
1.36673
1.32995
1.17922
0.748981
0.0722228
0.216249
0.359
0.499555
0.636873
0.76969
0.896372
1.01467
1.12134
1.21157
1.27809
1.31001
1.29158
1.20423
1.05925
0.0682839
0.2045
0.339644
0.47295
0.603553
0.730419
0.852233
0.967219
1.07286
1.16552
1.23984
1.28827
1.30108
1.26925
1.19154
0.0645896
0.193494
0.321566
0.448223
0.572828
0.694657
0.812837
0.926253
1.03341
1.13219
1.21958
1.29125
1.34158
1.36613
1.37626
0.0610861
0.183066
0.304472
0.42492
0.544031
0.66143
0.77675
0.889638
0.99976
1.10678
1.21024
1.30906
1.39997
1.47304
1.49764
0.0577159
0.173038
0.288042
0.402546
0.516424
0.629648
0.742352
0.854943
0.968268
1.08385
1.20413
1.33236
1.47075
1.61361
1.7343
0.0544216
0.163232
0.27196
0.380606
0.489271
0.598226
0.708034
0.819741
0.935208
1.05765
1.19251
1.34859
1.53842
1.76959
1.97767
0.05115
0.153483
0.255934
0.358654
0.461918
0.566214
0.672397
0.781928
0.897304
1.02284
1.16614
1.3414
1.57739
1.94161
2.62648
0.0478557
0.143652
0.239723
0.336326
0.433847
0.532893
0.634436
0.740056
0.852349
0.975674
1.1176
1.29204
1.5273
1.89097
2.58322
0.0445027
0.13363
0.223142
0.313359
0.404717
0.497838
0.593645
0.693551
0.799733
0.915599
1.04647
1.20043
1.38805
1.61215
1.79297
0.041065
0.123341
0.206071
0.289602
0.374365
0.460916
0.55001
0.642687
0.740395
0.845105
0.959307
1.08545
1.22346
1.36339
1.47597
0.0375258
0.112739
0.188443
0.26499
0.342771
0.422231
0.503887
0.588331
0.676195
0.76802
0.863856
0.96223
1.05755
1.13363
1.14459
0.0338747
0.101795
0.17023
0.239522
0.310011
0.382021
0.455829
0.531601
0.609247
0.68815
0.766643
0.841133
0.904999
0.949082
0.975071
0.0301047
0.0904948
0.151422
0.213222
0.276195
0.340562
0.406409
0.47357
0.541427
0.608565
0.672211
0.727417
0.766188
0.777102
0.742386
0.0262092
0.0788218
0.132007
0.18611
0.241411
0.298077
0.356077
0.415056
0.474107
0.531408
0.583641
0.625114
0.646725
0.636811
0.600207
0.0221788
0.0667513
0.111955
0.158166
0.205681
0.254665
0.305067
0.356494
0.408002
0.45777
0.502546
0.536604
0.549155
0.515055
0.349752
0.0179994
0.0542425
0.0912044
0.129317
0.168931
0.210268
0.253347
0.297877
0.343108
0.3876
0.428896
0.463032
0.483984
0.484414
0.470272
0.0136506
0.0412347
0.0696551
0.099425
0.130985
0.164663
0.200618
0.238774
0.278727
0.319652
0.360218
0.398617
0.433064
0.463894
0.499593
0.00910519
0.0276463
0.0471689
0.0682903
0.0915695
0.117477
0.146364
0.178423
0.213672
0.251956
0.293047
0.336946
0.384659
0.439994
0.51305
0.00433022
0.0133766
0.0235727
0.0356577
0.0503289
0.0682239
0.0899058
0.115859
0.14651
0.18231
0.223928
0.272629
0.330963
0.403789
0.499841
-0.000712688
-0.00169135
-0.00133499
0.00122952
0.00685014
0.0163415
0.0304831
0.0500323
0.0757726
0.108627
0.14989
0.201625
0.267206
0.351456
0.457589
-0.00606574
-0.0176862
-0.0277758
-0.0353205
-0.0393161
-0.0387694
-0.0326942
-0.0200922
9.64234e-05
0.0291064
0.0685802
0.121008
0.190485
0.283927
0.413477
-0.0117736
-0.0347441
-0.0559835
-0.0743347
-0.0886361
-0.097719
-0.100403
-0.0954841
-0.0817045
-0.0576794
-0.021723
0.0285511
0.0971256
0.191327
0.322497
-0.0178819
-0.0530038
-0.0861965
-0.116161
-0.141579
-0.161111
-0.173391
-0.177028
-0.170619
-0.15275
-0.121967
-0.0766119
-0.0140286
0.0730572
0.215647
-0.0244358
-0.0726032
-0.118651
-0.161143
-0.19861
-0.22954
-0.252379
-0.265548
-0.267492
-0.256785
-0.23233
-0.193737
-0.142196
-0.0837546
-0.047546
-0.0314786
-0.0936742
-0.153575
-0.209615
-0.26018
-0.303586
-0.338081
-0.361861
-0.373149
-0.370367
-0.352511
-0.319851
-0.275154
-0.225124
-0.176479
-0.0390502
-0.116339
-0.191179
-0.261889
-0.32672
-0.383821
-0.431223
-0.46685
-0.488574
-0.494415
-0.48297
-0.454322
-0.411813
-0.36553
-0.341591
-0.0471853
-0.140704
-0.231649
-0.318247
-0.398628
-0.470789
-0.532543
-0.581491
-0.61503
-0.630466
-0.625373
-0.598419
-0.55109
-0.490416
-0.428628
-0.0559121
-0.166856
-0.275139
-0.37892
-0.476244
-0.564983
-0.642755
-0.706833
-0.754055
-0.780774
-0.782955
-0.756664
-0.699634
-0.616075
-0.53219
-0.06525
-0.194855
-0.321756
-0.444077
-0.559822
-0.666792
-0.762475
-0.84388
-0.907317
-0.94812
-0.960307
-0.936255
-0.866599
-0.741957
-0.569497
-0.0752094
-0.224733
-0.371552
-0.5138
-0.649492
-0.77644
-0.892111
-0.993402
-1.0763
-1.13534
-1.16282
-1.14752
-1.07175
-0.901047
-0.530851
-0.0857905
-0.256488
-0.424523
-0.588075
-0.745234
-0.893919
-1.03173
-1.1557
-1.26184
-1.34447
-1.39506
-1.40076
-1.34282
-1.19867
-0.972416
-0.096985
-0.290092
-0.480607
-0.666789
-0.84686
-1.01895
-1.18097
-1.33037
-1.46372
-1.57584
-1.65847
-1.69819
-1.67377
-1.55332
-1.28119
-0.108779
-0.325496
-0.5397
-0.749747
-0.95403
-1.15097
-1.33896
-1.5162
-1.68034
-1.82769
-1.95168
-2.04016
-2.07141
-2.01329
-1.85415
-0.121156
-0.362644
-0.60168
-0.836707
-1.0663
-1.28921
-1.50441
-1.71112
-1.90861
-2.09575
-2.26957
-2.42186
-2.5311
-2.54342
-2.3196
-0.134107
-0.401496
-0.666442
-0.927443
-1.18321
-1.43279
-1.67576
-1.91244
-2.14409
-2.37307
-2.6024
-2.83346
-3.05811
-3.23752
-3.2791
-0.147631
-0.442043
-0.733943
-1.02181
-1.30441
-1.58097
-1.85149
-2.11724
-2.38141
-2.65014
-2.93402
-3.2495
-3.61653
-4.02733
-4.23167
-0.161747
-0.484334
-0.804243
-1.11985
-1.42981
-1.73333
-2.03054
-2.32315
-2.61555
-2.9167
-3.24371
-3.62975
-4.14455
-4.96053
-6.61335
-0.176492
-0.528484
-0.877533
-1.2218
-1.55968
-1.89007
-2.21277
-2.5292
-2.84362
-3.16529
-3.5124
-3.92057
-4.46342
-5.31257
-6.94093
-0.191924
-0.574677
-0.954145
-1.32818
-1.69476
-2.05216
-2.39936
-2.73664
-3.06667
-3.3962
-3.7387
-4.11787
-4.56957
-5.1235
-5.65239
-0.208119
-0.62315
-1.03453
-1.43974
-1.8362
-2.22133
-2.59284
-2.94912
-3.29006
-3.61811
-3.93952
-4.2648
-4.60472
-4.95183
-5.23341
-0.225152
-0.674158
-1.1192
-1.55738
-1.9855
-2.39997
-2.79689
-3.17225
-3.52241
-3.84461
-4.13766
-4.40158
-4.63487
-4.82565
-4.93033
-0.243086
-0.727922
-1.20862
-1.68202
-2.14429
-2.5908
-3.0159
-3.4129
-3.77415
-4.09138
-4.35602
-4.55962
-4.69453
-4.75928
-4.78628
-0.261946
-0.784555
-1.30313
-1.81437
-2.31402
-2.79649
-3.25443
-3.67836
-4.05648
-4.37465
-4.61678
-4.76538
-4.8029
-4.71912
-4.54727
-0.281699
-0.84399
-1.40273
-1.95476
-2.49568
-3.01922
-3.51658
-3.97565
-4.38043
-4.71073
-4.94248
-5.04827
-4.99551
-4.74013
-4.28703
-0.30222
-0.905891
-1.50699
-2.10287
-2.68941
-3.26014
-3.80531
-4.31063
-4.7561
-5.11524
-5.35566
-5.44128
-5.32881
-4.89846
-3.44884
-0.323274
-0.969579
-1.61487
-2.25748
-2.89411
-3.51882
-4.12171
-4.68717
-5.19172
-5.60221
-5.87634
-5.97184
-5.88287
-5.7646
-6.39403
-0.344498
-1.03397
-1.72461
-2.41624
-3.10708
-3.79264
-4.46412
-5.10601
-5.69265
-6.18387
-6.52106
-6.6305
-6.45727
-6.1115
-6.42758
-0.365391
-1.09756
-1.83366
-2.57555
-3.32372
-4.07624
-4.82707
-5.56321
-6.25986
-6.87248
-7.32394
-7.48547
-7.1515
-5.99878
-3.37852
-0.385322
-1.15841
-1.93869
-2.7305
-3.53734
-4.36102
-5.20024
-6.04782
-6.88542
-7.67302
-8.32814
-8.68455
-8.4143
-6.90518
-3.20223
-0.40356
-1.21426
-2.0357
-2.87503
-3.73927
-4.635
-5.56758
-6.53938
-7.54571
-8.56556
-9.53979
-10.3188
-10.5374
-9.33506
-4.902
-0.419312
-1.26265
-2.12029
-3.00225
-3.91932
-4.88339
-5.9077
-7.00695
-8.1966
-9.48979
-10.887
-12.3422
-13.6474
-14.0085
-10.3316
-0.431789
-1.30112
-2.18799
-3.10509
-4.06675
-5.08994
-6.19577
-7.41175
-8.77558
-10.3418
-12.194
-14.4697
-17.413
-21.486
-27.5572
-11.256
-25.7394
-24.3258
-20.773
-17.4734
-14.7078
-12.3922
-10.4111
-8.67248
-7.10934
-5.6735
-4.32947
-3.05012
-1.81372
-0.601907
-111.018
-57.8716
-37.3399
-27.1998
-21.1556
-17.0471
-13.9858
-11.5475
-9.50539
-7.72715
-6.12979
-4.65784
-3.27191
-1.94205
-0.643927
-123.437
-67.3545
-43.1375
-30.7822
-23.4936
-18.6593
-15.1467
-12.4087
-10.1551
-8.21936
-6.49897
-4.9265
-3.45475
-2.04835
-0.678813
-67.8001
-54.7088
-40.6979
-30.846
-24.1271
-19.3536
-15.7698
-12.9335
-10.584
-8.56205
-6.76542
-5.1252
-3.5922
-2.12906
-0.705426
-47.8531
-42.7016
-35.3701
-28.734
-23.4097
-19.2218
-15.8737
-13.1201
-10.7855
-8.74825
-6.92326
-5.24946
-3.68112
-2.18234
-0.723161
-30.3781
-32.2083
-29.5594
-25.7112
-21.903
-18.5069
-15.5648
-13.0158
-10.7806
-8.78702
-6.97611
-5.30046
-3.72175
-2.20813
-0.731965
-22.4034
-24.8255
-24.5815
-22.6605
-20.1102
-17.4767
-14.9828
-12.6937
-10.6077
-8.69897
-6.93504
-5.28415
-3.71718
-2.20789
-0.732275
-12.442
-19.2942
-20.7681
-20.0469
-18.3752
-16.3497
-14.2586
-12.2304
-10.3118
-8.51034
-6.81548
-5.20955
-3.67256
-2.18427
-0.724899
-15.0025
-17.4977
-18.4792
-18.0933
-16.8858
-15.268
-13.4909
-11.691
-9.93465
-8.24766
-6.63415
-5.08708
-3.59412
-2.14058
-0.710872
-15.6517
-16.7525
-17.1398
-16.7102
-15.6815
-14.2971
-12.7388
-11.1214
-9.50929
-7.93397
-6.40667
-4.92703
-3.4883
-2.08033
-0.691315
-16.2595
-16.5027
-16.3677
-15.7431
-14.7241