/*--------------------------------*- C++ -*----------------------------------*\
| =========                 |                                                 |
| \\      /  F ield         | OpenFOAM: The Open Source CFD Toolbox           |
|  \\    /   O peration     | Version:  5.x                                   |
|   \\  /    A nd           | Web:      www.OpenFOAM.org                      |
|    \\/     M anipulation  |                                                 |
\*---------------------------------------------------------------------------*/
FoamFile
{
    version     2.0;
    format      ascii;
    class       volScalarField;
    location    "7.2";
    object      gradTy;
}
// * * * * * * * * * * * * * * * * * * * * * * * * * * * * * * * * * * * * * //

dimensions      [0 -1 0 1 0 0 0];

internalField   nonuniform List<scalar> 
6300
(
32284.2
32252.5
32220.7
32188.7
32156.5
32124
32091.1
32057.7
32023.9
31989.6
31954.7
31919.2
31883.1
31846.4
31809.2
0.0534446
0.159831
0.264681
0.366858
0.465071
0.557823
0.643403
0.719896
0.785253
0.837412
0.874489
0.895025
0.898274
0.884475
0.85505
0.0896241
0.268076
0.44408
0.615807
0.781148
0.93763
1.08238
1.21213
1.32333
1.41234
1.47573
1.51077
1.5159
1.49132
1.43937
0.126601
0.378772
0.627761
0.871149
1.10609
1.32918
1.53636
1.72292
1.88361
2.01288
2.10534
2.15642
2.16324
2.12551
2.04641
0.164609
0.492651
0.817041
1.13494
1.44288
1.73663
2.01095
2.25957
2.47529
2.65019
2.77627
2.84629
2.85506
2.80101
2.68772
0.203792
0.61018
1.01282
1.40866
1.79387
2.1635
2.5112
2.82911
3.10774
3.33629
3.5032
3.59731
3.60961
3.53563
3.37828
0.244172
0.731459
1.21538
1.69302
2.16044
2.61227
3.04124
3.43787
3.79023
4.08395
4.30283
4.43003
4.45031
4.35349
4.13917
0.285606
0.856103
1.42422
1.98759
2.5426
3.08387
3.60358
4.09087
4.53127
4.90636
5.19403
5.36951
5.40792
5.28865
5.00244
0.327756
0.983123
1.63781
2.29049
2.93848
3.57699
4.19829
4.79069
5.33751
5.81607
6.19725
6.44589
6.52305
6.39057
6.01983
0.370048
1.11082
1.85339
2.59808
3.34383
4.0873
4.82183
5.53601
6.21189
6.82304
7.33284
7.69361
7.84765
7.73064
7.27786
0.41166
1.23673
2.06684
2.90461
3.75142
4.60649
5.46567
6.31954
7.15087
7.93122
8.61731
9.14792
9.44323
9.40639
8.92055
0.451522
1.35759
2.27261
3.2021
4.15072
5.12154
6.11474
7.12553
8.1407
9.13355
10.0572
10.8375
11.3707
11.5306
11.1665
0.48836
1.4695
2.46391
3.48043
4.52779
5.61415
6.74617
7.92705
9.15275
10.4051
11.6403
12.7738
13.6708
14.1755
14.2298
0.520779
1.56814
2.63308
3.72793
4.86585
6.06106
7.32866
8.68369
10.1381
11.6937
13.325
14.9462
16.3603
17.2597
17.7293
0.547396
1.64919
2.77235
3.93234
5.14661
6.43555
7.82369
9.34084
11.0224
12.9066
15.0197
17.3249
19.5576
20.7459
18.1331
31774.5
31742.5
31710.3
31677.7
31644.7
31611.5
31578
31544.3
31510.3
31476.1
31441.8
31407.3
31372.6
31337.9
31303
31268.1
31233.1
31198.1
31163.2
31128.2
31093.3
31058.4
31023.5
30988.7
30953.9
30919.1
30884.4
30849.7
30815.1
30780.6
30746.1
30711.7
30677.4
30643.2
30609.1
30575.1
30541.1
30507.3
30473.6
30439.9
30406.4
30372.9
30339.5
30306.2
30273
30239.8
30206.8
30173.9
30141.1
30108.4
30075.8
30043.3
30010.9
29978.6
29946.4
29914.3
29882.3
29850.3
29818.5
29786.7
29755
29723.4
29691.9
29660.5
29629.2
29598
29566.9
29535.9
29505
29474.2
29443.4
29412.7
29382.1
29351.5
29321
29290.5
29260.1
29229.8
29199.5
29169.3
29139.2
29109
29078.9
29048.7
29018.6
28988.3
28958
28927.7
28897.2
28866.6
0.816144
0.773994
0.727339
0.678397
0.629018
0.580445
0.533179
0.487002
0.441149
0.394599
0.34642
0.29609
0.243737
0.190233
0.137136
0.0864639
0.0403707
0.000763256
-0.0310426
-0.0545693
-0.0702797
-0.0795192
-0.084313
-0.0870515
-0.0901196
-0.0955259
-0.104595
-0.117768
-0.134554
-0.153637
-0.17313
-0.190926
-0.205089
-0.214207
-0.217645
-0.215653
-0.209319
-0.200382
-0.190938
-0.183089
-0.17859
-0.17856
-0.183292
-0.192205
-0.20395
-0.216643
-0.228208
-0.236741
-0.240849
-0.239883
-0.234043
-0.224333
-0.212381
-0.200154
-0.18963
-0.182457
-0.179677
-0.181551
-0.187505
-0.196234
-0.205927
-0.214586
-0.220378
-0.221951
-0.218661
-0.210668
-0.198888
-0.184819
-0.170272
-0.157039
-0.146576
-0.139723
-0.136528
-0.1362
-0.137193
-0.13743
-0.134617
-0.126604
-0.111726
-0.0890833
-0.0587078
-0.0216239
0.0202153
0.0640902
0.106765
0.144802
0.174924
0.194382
0.201292
0.194885
1.37091
1.29703
1.21574
1.13122
1.04694
0.96518
0.886737
0.810974
0.736155
0.660037
0.58055
0.496451
0.407795
0.316142
0.224431
0.136555
0.0566992
-0.0114068
-0.065179
-0.103659
-0.127709
-0.139896
-0.144092
-0.144871
-0.146797
-0.153707
-0.168122
-0.190858
-0.220926
-0.255731
-0.291565
-0.324299
-0.350147
-0.366355
-0.371691
-0.366644
-0.353326
-0.335104
-0.316028
-0.300158
-0.290884
-0.290369
-0.299176
-0.316175
-0.338735
-0.363187
-0.385482
-0.401917
-0.409792
-0.407861
-0.396532
-0.377764
-0.354714
-0.331195
-0.311032
-0.297417
-0.29237
-0.296397
-0.308389
-0.325808
-0.34513
-0.362468
-0.374261
-0.377901
-0.372161
-0.357379
-0.335361
-0.309037
-0.281938
-0.25757
-0.238793
-0.227289
-0.22322
-0.225123
-0.230072
-0.234105
-0.232828
-0.222109
-0.198736
-0.160933
-0.108668
-0.0437416
0.0303294
0.108615
0.185218
0.253837
0.308421
0.343853
0.3566
0.345208
1.94243
1.83071
1.7088
1.5837
1.46125
1.34515
1.23646
1.13362
1.03307
0.93037
0.821369
0.703421
0.576221
0.442186
0.306257
0.175149
0.0561643
-0.044161
-0.121278
-0.173469
-0.202164
-0.211719
-0.208729
-0.200979
-0.196233
-0.201017
-0.219601
-0.253326
-0.300409
-0.356275
-0.414398
-0.467522
-0.509017
-0.534091
-0.54062
-0.529476
-0.504326
-0.470985
-0.436433
-0.407656
-0.390497
-0.388683
-0.403193
-0.432068
-0.470727
-0.512768
-0.551124
-0.579353
-0.592784
-0.589305
-0.569667
-0.537292
-0.497654
-0.457338
-0.422941
-0.399972
-0.391933
-0.399711
-0.421394
-0.45258
-0.48713
-0.518272
-0.539827
-0.5473
-0.538624
-0.514456
-0.47798
-0.434317
-0.389618
-0.35
-0.320486
-0.3041
-0.301266
-0.309611
-0.324226
-0.338384
-0.344591
-0.335792
-0.306486
-0.253571
-0.176821
-0.0789913
0.0344093
0.155597
0.275199
0.383115
0.469526
0.526017
0.546695
0.529089
2.53863
2.37897
2.20638
2.0323
1.86634
1.71442
1.57775
1.45293
1.33309
1.20977
1.07507
0.923716
0.754493
0.570957
0.381144
0.196289
0.0287607
-0.110334
-0.213272
-0.277114
-0.304177
-0.301609
-0.280219
-0.252761
-0.231946
-0.228458
-0.249278
-0.29656
-0.367247
-0.45357
-0.54443
-0.627491
-0.691536
-0.728533
-0.735002
-0.712477
-0.667121
-0.608613
-0.548525
-0.498429
-0.468014
-0.463491
-0.486527
-0.533875
-0.597852
-0.667656
-0.731351
-0.778099
-0.800129
-0.79402
-0.761143
-0.707282
-0.641573
-0.574961
-0.518394
-0.48103
-0.468723
-0.483
-0.520718
-0.574509
-0.634037
-0.687882
-0.725673
-0.739951
-0.727398
-0.689253
-0.630947
-0.561089
-0.48998
-0.427879
-0.383272
-0.361393
-0.363213
-0.385067
-0.419037
-0.45411
-0.477962
-0.479003
-0.448229
-0.380526
-0.275328
-0.13666
0.0272794
0.204863
0.38201
0.543363
0.673717
0.759754
0.791919
0.766084
3.16941
2.94571
2.70597
2.4691
2.25112
2.06164
1.9019
1.76503
1.6381
1.50552
1.35275
1.16974
0.953372
0.708766
0.448889
0.192476
-0.0395899
-0.228574
-0.361566
-0.433725
-0.448862
-0.418609
-0.360451
-0.294983
-0.242714
-0.220899
-0.240855
-0.306095
-0.411577
-0.544337
-0.685698
-0.814851
-0.913009
-0.966944
-0.97114
-0.928362
-0.848863
-0.748523
-0.646235
-0.560868
-0.508252
-0.498625
-0.534858
-0.611743
-0.716592
-0.831351
-0.935988
-1.01245
-1.048
-1.03729
-0.982845
-0.894339
-0.786799
-0.678126
-0.5862
-0.526012
-0.507237
-0.532541
-0.596903
-0.688183
-0.789132
-0.880616
-0.945381
-0.971242
-0.953029
-0.893086
-0.800553
-0.689665
-0.577372
-0.480569
-0.413332
-0.384561
-0.396312
-0.443078
-0.512259
-0.585992
-0.644177
-0.668029
-0.643147
-0.561473
-0.422029
-0.230717
0.000503104
0.25476
0.511568
0.748249
0.941729
1.07107
1.12067
1.08344
3.84868
3.53533
3.20123
2.87848
2.59468
2.36587
2.19301
2.06272
1.9512
1.8303
1.67397
1.46377
1.19292
0.868563
0.511643
0.1536
-0.169981
-0.427445
-0.597464
-0.67245
-0.658915
-0.575795
-0.451214
-0.318204
-0.209635
-0.153195
-0.167228
-0.257687
-0.416635
-0.622723
-0.844555
-1.04685
-1.19817
-1.27699
-1.27493
-1.19713
-1.06063
-0.891247
-0.719588
-0.576155
-0.486595
-0.467728
-0.52466
-0.649349
-0.821073
-1.00963
-1.18121
-1.3057
-1.3625
-1.34354
-1.25361
-1.10881
-0.933665
-0.757184
-0.608311
-0.511368
-0.482286
-0.525847
-0.634329
-0.787941
-0.957863
-1.11183
-1.22111
-1.26601
-1.23875
-1.14385
-0.996594
-0.820265
-0.64246
-0.490686
-0.388002
-0.349378
-0.378988
-0.468812
-0.598925
-0.740264
-0.85983
-0.92723
-0.919846
-0.825605
-0.643416
-0.38224
-0.059444
0.300988
0.670109
1.01535
1.30211
1.4972
1.57445
1.521
4.59867
4.15461
3.67988
3.23151
2.85883
2.58931
2.42265
2.33324
2.2777
2.20604
2.07275
1.84511
1.5095
1.07525
0.576009
0.0650975
-0.395585
-0.752238
-0.970217
-1.03865
-0.969178
-0.79269
-0.55412
-0.306234
-0.101498
0.0159814
0.0164466
-0.110663
-0.353817
-0.678447
-1.03155
-1.35227
-1.58774
-1.70349
-1.68779
-1.55047
-1.31973
-1.03726
-0.752303
-0.513877
-0.363147
-0.327692
-0.416903
-0.619235
-0.901322
-1.21237
-1.49424
-1.69645
-1.78612
-1.752
-1.60337
-1.367
-1.08246
-0.796493
-0.555654
-0.399014
-0.352735
-0.425675
-0.606778
-0.864218
-1.14957
-1.4074
-1.58957
-1.66466
-1.62189
-1.47002
-1.2345
-0.952995
-0.670066
-0.430116
-0.270428
-0.215938
-0.274958
-0.436531
-0.669423
-0.925886
-1.1506
-1.29411
-1.32161
-1.21638
-0.978538
-0.622495
-0.173582
0.334705
0.863046
1.36666
1.79448
2.09304
2.21645
2.13969
5.45938
4.81795
4.12038
3.47533
2.97415
2.66438
2.54082
2.5548
2.62729
2.67043
2.60736
2.38188
1.9681
1.37552
0.657177
-0.0957391
-0.770997
-1.27673
-1.55832
-1.60343
-1.43355
-1.09899
-0.670448
-0.232134
0.132283
0.353651
0.383821
0.203457
-0.173681
-0.693181
-1.26517
-1.78047
-2.14973
-2.31928
-2.27581
-2.03832
-1.65333
-1.18689
-0.718018
-0.325329
-0.0737135
-0.00814733
-0.146262
-0.474283
-0.939877
-1.45714
-1.92199
-2.24929
-2.38798
-2.32537
-2.0795
-1.69457
-1.23332
-0.770826
-0.381758
-0.127752
-0.0515166
-0.169758
-0.469309
-0.900308
-1.38091
-1.81194
-2.11223
-2.23303
-2.16214
-1.91666
-1.53861
-1.08778
-0.635785
-0.25397
-0.00136909
0.0809553
-0.0232533
-0.301548
-0.705976
-1.15723
-1.5583
-1.82806
-1.91451
-1.7981
-1.48387
-0.996476
-0.373216
0.339549
1.0916
1.8271
2.473
2.9411
3.14668
3.03703
6.51019
5.56242
4.48553
3.51204
2.81362
2.47112
2.46074
2.69194
3.019
3.28766
3.37577
3.18975
2.68416
1.85687
0.788123
-0.36841
-1.39054
-2.12397
-2.48698
-2.47781
-2.13507
-1.54064
-0.800851
-0.0516347
0.572048
0.966637
1.05436
0.80092
0.211447
-0.632341
-1.58043
-2.419
-2.9993
-3.24184
-3.14323
-2.73858
-2.10424
-1.34002
-0.574044
0.0663499
0.483618
0.604684
0.397829
-0.131238
-0.904039
-1.77741
-2.5478
-3.07374
-3.27973
-3.16263
-2.75588
-2.13207
-1.386
-0.639435
-0.0133832
0.399486
0.529736
0.347235
-0.142566
-0.864974
-1.68366
-2.40474
-2.89336
-3.07744
-2.95383
-2.55418
-1.94754
-1.22425
-0.500445
0.108238
0.512886
0.646454
0.479134
0.0150689
-0.675106
-1.46082
-2.15507
-2.62596
-2.79952
-2.6647
-2.23852
-1.5661
-0.701733
0.287831
1.34397
2.4166
3.40753
4.16722
4.53081
4.37841
7.92106
6.49386
4.70332
3.15382
2.14061
1.79942
2.03268
2.69091
3.49467
4.1648
4.53886
4.45774
3.86345
2.6859
1.04547
-0.834639
-2.4258
-3.50465
-3.95158
-3.83253
-3.19903
-2.19163
-0.944842
0.309622
1.34169
2.0215
2.21615
1.88226
0.962776
-0.421328
-2.0534
-3.42944
-4.33528
-4.65568
-4.45137
-3.76958
-2.74222
-1.4957
-0.249249
0.779312
1.46746
1.6897
1.40589
0.562766
-0.723395
-2.246
-3.52566
-4.35894
-4.63672
-4.41702
-3.74486
-2.74562
-1.5394
-0.334528
0.661957
1.33368
1.56133
1.30673
0.519114
-0.69101
-2.12698
-3.33229
-4.11303
-4.36496
-4.14301
-3.48976
-2.52446
-1.36147
-0.199339
0.764252
1.41749
1.64523
1.40883
0.657281
-0.50666
-1.89611
-3.07348
-3.852
-4.12861
-3.95085
-3.34776
-2.41213
-1.21053
0.140254
1.57259
3.12375
4.67504
5.96371
6.65796
6.46664
10.0765
7.9482
4.57724
2.02824
0.501229
0.300465
0.992484
2.48016
4.16268
5.46817
6.35736
6.46462
5.88263
4.18143
1.64794
-1.71697
-4.19879
-5.79533
-6.2312
-5.92808
-4.80143
-3.18735
-1.09991
0.991102
2.61859
3.77497
4.13902
3.80684
2.38313
0.146735
-2.89508
-5.11698
-6.51432
-6.82512
-6.44712
-5.29825
-3.69579
-1.65133
0.389288
1.98244
3.12218
3.50343
3.21931
1.89472
-0.202304
-3.06445
-5.14631
-6.44411
-6.71013
-6.32298
-5.20484
-3.65725
-1.69089
0.270427
1.80493
2.90729
3.28735
3.03372
1.78919
-0.191843
-2.90248
-4.87124
-6.09423
-6.33485
-5.95326
-4.8747
-3.38609
-1.49744
0.387647
1.86717
2.93479
3.31235
3.08033
1.89333
-0.0134835
-2.6368
-4.56625
-5.80076
-6.112
-5.84945
-4.93586
-3.64115
-1.93413
-0.12476
1.63009
3.83072
6.32071
8.61615
10.0604
9.91993
13.8523
11.1726
3.26122
-0.556499
-3.04088
-2.48202
-1.19294
1.98893
5.37357
7.37093
9.30179
9.46398
9.51343
6.87543
3.44764
-3.87098
-7.24662
-9.75739
-9.57502
-9.20952
-7.10576
-4.86474
-1.26015
2.34004
4.57384
6.66937
7.06442
7.3032
4.97374
1.87457
-4.91747
-7.99194
-10.258
-9.98648
-9.55297
-7.48012
-5.28587
-1.80147
1.67214
3.83843
5.86911
6.27522
6.53098
4.33894
1.42052
-5.00654
-7.89604
-10.0151
-9.72412
-9.28161
-7.28328
-5.17193
-1.83514
1.48995
3.57016
5.52098
5.92586
6.18756
4.11978
1.35793
-4.74633
-7.48411
-9.49003
-9.20077
-8.76719
-6.85012
-4.82379
-1.6283
1.55863
3.56319
5.44577
5.85723
6.12701
4.16589
1.51146
-4.37668
-7.05973
-9.07903
-8.92162
-8.68554
-7.07275
-5.46392
-2.8051
-0.311273
1.04569
4.12101
8.24651
12.4944
15.7446
16.214
20.9153
21.7987
-4.06909
-5.08064
-10.9631
-6.31488
-6.10361
1.20582
8.58216
9.36939
14.793
12.6256
17.0141
10.7067
10.8501
-11.7029
-11.5399
-17.5976
-13.1826
-14.9941
-9.60779
-8.50572
-1.41408
5.65652
6.72816
12.0124
10.2148
14.4978
8.67267
8.9201
-12.2932
-12.0311
-17.6559
-13.3811
-15.0195
-9.83687
-8.73381
-1.93612
4.8375
5.88966
10.9554
9.26349
13.3674
7.82911
8.09574
-12.0428
-11.7553
-17.0564
-12.9564
-14.4807
-9.52452
-8.4513
-1.9626
4.50204
5.52169
10.3608
8.7705
12.6958
7.44977
7.72076
-11.438
-11.1509
-16.1909
-12.2745
-13.7173
-8.98291
-7.94511
-1.74686
4.43219
5.43484
10.0751
8.6061
12.3862
7.43679
7.69291
-10.7319
-10.509
-15.4917
-11.8445
-13.5041
-9.20394
-8.79866
-3.43847
1.13929
-2.01313
2.89912
9.99615
17.8094
25.4332
29.6968
30.6972
70.9257
-47.2074
-2.60482
-34.0551
-3.75971
-21.2357
0.326656
21.2794
4.69176
31.2157
6.34714
39.9172
5.24905
50.9356
-52.2456
-6.87502
-40.5183
-7.82371
-31.1432
-5.94019
-20.7714
-1.53739
17.6119
2.81665
27.5537
4.60951
36.2485
3.62745
46.8694
-50.5931
-7.59264
-39.3087
-8.26051
-30.308
-6.31865
-20.3816
-2.03571
16.2421
2.16177
25.7729
3.9062
34.0891
2.96056
44.1548
-48.4921
-7.56665
-37.635
-8.08932
-29.0111
-6.17397
-19.5286
-2.05505
15.3553
1.97362
24.4591
3.67306
32.4112
2.83559
42.0627
-46.1312
-7.14618
-35.7889
-7.63067
-27.5624
-5.79224
-18.4972
-1.83748
14.7601
2.06858
23.5021
3.79659
31.2159
3.21202
40.7751
-43.9394
-6.46212
-34.3313
-7.12558
-26.9043
-5.72635
-19.2683
-2.94496
13.7215
-16.6849
-1.46868
10.7147
23.3973
39.9607
66.6129
28832.9
28796
28759
28722
28684.9
28647.8
28610.8
28573.9
28537.1
28500.4
28463.8
28427.3
28390.8
28354.5
28318.2
0.173693
0.13463
0.0843509
0.0286342
-0.0266407
-0.0762945
-0.116362
-0.144301
-0.158952
-0.160345
-0.149436
-0.127848
-0.0976393
-0.0611349
-0.0208059
0.30706
0.23674
0.146559
0.0471996
-0.0506552
-0.137803
-0.207403
-0.255256
-0.279644
-0.280905
-0.260926
-0.222658
-0.169726
-0.106137
-0.0360986
0.469152
0.358732
0.217963
0.0642773
-0.0853614
-0.216847
-0.320177
-0.389665
-0.423454
-0.422699
-0.390698
-0.332129
-0.252466
-0.157589
-0.0535491
0.676282
0.511072
0.302288
0.0773095
-0.138219
-0.324043
-0.466791
-0.559771
-0.601805
-0.595737
-0.547038
-0.462691
-0.350419
-0.218204
-0.0740576
0.950656
0.706988
0.402809
0.0808932
-0.22078
-0.474313
-0.663171
-0.780823
-0.828257
-0.811405
-0.739023
-0.621179
-0.468313
-0.29075
-0.0985346
1.32385
0.963417
0.521067
0.0642364
-0.351478
-0.689258
-0.930755
-1.07209
-1.11899
-1.0826
-0.976469
-0.814688
-0.610903
-0.377949
-0.127865
1.84239
1.30177
0.653809
0.00646605
-0.56011
-1.00048
-1.2985
-1.45779
-1.49302
-1.42354
-1.26956
-1.0502
-0.78266
-0.482278
-0.162839
2.57724
1.74746
0.785934
-0.132068
-0.894941
-1.45406
-1.80496
-1.96756
-1.97175
-1.84896
-1.62805
-1.33388
-0.987262
-0.605661
-0.204055
3.64027
2.32491
0.874536
-0.425728
-1.43353
-2.11584
-2.49972
-2.63573
-2.57745
-2.3725
-2.0598
-1.66999
-1.22685
-0.749046
-0.251773
5.21341
3.03736
0.813032
-1.01185
-2.29759
-3.07605
-3.44235
-3.49817
-3.32983
-3.00377
-2.56866
-2.05943
-1.5011
-0.9119
-0.305764
7.59542
3.7981
0.352081
-2.13711
-3.66893
-4.44842
-4.69547
-4.58475
-4.23993
-3.74408
-3.15164
-2.49798
-1.80621
-1.09169
-0.365146
11.2389
4.20751
-1.0657
-4.21973
-5.79259
-6.35321
-6.30635
-5.90541
-5.30106
-4.58098
-3.79582
-2.97464
-2.13407
-1.2835
-0.428278
16.4866
2.85872
-4.60267
-7.8835
-8.92847
-8.86549
-8.2713
-7.42949
-6.47789
-5.48297
-4.47599
-3.4707
-2.47193
-1.47994
-0.492748
20.951
-4.65649
-12.3202
-13.7831
-13.1723
-11.909
-10.4839
-9.06334
-7.69805
-6.39699
-5.15449
-3.96025
-2.80298
-1.67161
-0.555518
0.56595
1.70566
2.86928
4.07449
5.34182
6.69641
8.17058
9.80756
11.6671
13.8334
16.4227
19.5739
23.3225
26.8249
23.9676
0.576872
1.73878
2.92575
4.15645
5.45291
6.8427
8.36242
10.0634
12.0221
14.3599
17.2858
21.2014
27.0077
37.1735
60.1029
0.582125
1.75451
2.95185
4.19275
5.4992
6.89879
8.42838
10.1403
12.1139
14.4782
17.4627
21.5206
27.6758
38.6283
62.6893
0.581731
1.7529
2.9477
4.18356
5.48083
6.86462
8.36774
10.0355
11.9342
14.1657
16.8943
20.3874
25.039
31.0778
35.99
0.575985
1.7349
2.91503
4.13174
5.4024
6.74762
8.1928
9.77045
11.5233
13.5076
15.7936
18.4479
21.4489
24.4089
26.0945
0.565412
1.70218
2.85697
4.04245
5.27223
6.56126
7.92593
9.3838
10.9517
12.6399
14.4361
16.2632
17.8776
18.638
17.0013
0.550713
1.65694
2.77761
3.92241
5.10095
6.3224
7.59443
8.92086
10.2967
11.6974
13.057
14.2253
14.8938
14.5293
12.7214
0.532678
1.60168
2.6815
3.77894
4.89989
6.04848
7.22521
8.42372
9.62451
10.7835
11.811
12.5344
12.6258
11.422
7.19251
0.512113
1.5389
2.57316
3.61914
4.67967
5.75504
6.84095
7.92512
8.98152
9.96094
10.7764
11.2827
11.2569
10.4158
8.71605
0.489769
1.47093
2.45669
3.44924
4.44916
5.45431
6.45794
7.44589
8.39212
9.25246
9.9565
10.4008
10.4541
10.006
9.12489
0.466301
1.39975
2.33551
3.27421
4.21502
5.15464
6.08587
6.99569
7.86248
8.65263
9.31712
9.79062
9.99974
9.89687
9.55539
0.442242
1.32698
2.21227
3.09772
3.98173
4.86079
5.72868
6.57541
7.38613
8.14015
8.81048
9.36412
9.76212
9.9536
9.84341
0.418005
1.25383
2.08892
2.92223
3.75186
4.57471
5.3862
6.18015
6.94918
7.68585
8.38494
9.04577
9.66802
10.2199
10.5496
0.3939
1.18118
1.9668
2.74929
3.52669
4.29651
5.05589
5.80221
6.53473
7.25766
7.98601
8.75427
9.62282
10.6406
11.5159
0.370152
1.10969
1.84685
2.57987
3.30678
4.02557
4.73463
5.43386
6.12693
6.82573
7.55937
8.39314
9.474
11.1603
14.4634
0.346939
1.03984
1.72978
2.41469
3.09251
3.76138
4.42019
5.06979
5.71513
6.36959
7.0632
7.86043
8.90476
10.5571
13.9275
0.324405
0.972049
1.61618
2.25443
2.88446
3.50416
4.11215
4.70865
5.297
5.88626
6.49507
7.15609
7.91328
8.76087
9.21078
0.302678
0.906694
1.50667
2.09988
2.68356
3.25506
3.81209
4.35316
4.87822
5.38934
5.89066
6.38495
6.85899
7.24076
7.34507
0.28188
0.844141
1.40187
1.95194
2.49111
3.016
3.5231
4.00877
4.46911
4.89922
5.29112
5.62785
5.86875
5.9133
5.4991
0.262124
0.784733
1.30237
1.81157
2.30858
2.78929
3.24898
3.68197
4.08097
4.43562
4.72987
4.93729
5.01486
4.90439
4.59855
0.243506
0.728773
1.20874
1.67965
2.13737
2.57717
2.99338
3.37877
3.72362
4.01395
4.22892
4.33687
4.29153
4.03113
3.46791
0.226099
0.676493
1.1214
1.55688
1.97859
2.38143
2.75917
3.10373
3.4041
3.64462
3.80226
3.84289
3.71753
3.36814
2.81539
0.209946
0.628023
1.04059
1.44368
1.83291
2.20313
2.548
2.85935
3.12614
3.33282
3.45684
3.46419
3.29909
2.84636
1.74194
0.19505
0.583384
0.966345
1.34011
1.70043
2.04241
2.36009
2.64592
2.88992
3.07843
3.19243
3.20522
3.08038
2.77714
2.32088
0.181382
0.542473
0.898491
1.24586
1.58069
1.89856
2.1943
2.46154
2.69221
2.87577
2.9983
3.04181
2.98555
2.81416
2.54015
0.168874
0.505083
0.836641
1.16032
1.47271
1.77009
2.04829
2.30254
2.52721
2.71549
2.85902
2.9477
2.97065
2.92246
2.83083
0.157434
0.470923
0.780258
1.08263
1.37516
1.65492
1.9189
2.16408
2.38748
2.58627
2.75782
2.89921
3.00515
3.0609
3.01954
0.146953
0.439646
0.72871
1.01176
1.28648
1.5507
1.80257
2.04074
2.26483
2.47597
2.67756
2.87534
3.07449
3.26677
3.40331
0.137314
0.41089
0.681338
0.94667
1.20507
1.45507
1.69574
1.92718
2.15116
2.37231
2.59994
2.85051
3.14859
3.51134
3.82478
0.128404
0.384305
0.637518
0.886391
1.12951
1.3659
1.59532
1.81879
2.03944
2.26413
2.50639
2.79267
3.17777
3.79014
4.99218
0.120125
0.359584
0.596712
0.830104
1.05862
1.28158
1.49904
1.71235
1.92492
2.14376
2.38225
2.6662
3.04912
3.65945
4.87968
0.112395
0.336483
0.558499
0.777203
0.991591
1.20106
1.40565
1.60642
1.80605
2.00973
2.22653
2.47101
2.76252
3.10521
3.34369
0.105154
0.314819
0.522586
0.727298
0.927976
1.12393
1.3149
1.50128
1.68436
1.86658
2.05159
2.24316
2.44037
2.62332
2.73417
0.0983585
0.294472
0.488794
0.680194
0.867642
1.05025
1.22734
1.39844
1.56326
1.72149
1.8721
2.01138
2.12813
2.19151
2.11593
0.0919823
0.27537
0.457031
0.635834
0.810666
0.980418
1.14395
1.29995
1.44673
1.58171
1.70047
1.79525
1.85295
1.8562
1.8077
0.086007
0.257466
0.427253
0.594233
0.757217
0.914905
1.06577
1.20786
1.3384
1.45317
1.54551
1.60487
1.61557
1.55683
1.40019
0.0804172
0.240722
0.399426
0.555407
0.707446
0.854129
0.993701
1.1238
1.24102
1.34022
1.41343
1.4483
1.42641
1.32543
1.15508
0.0751952
0.225092
0.37349
0.519321
0.661394
0.798292
0.928209
1.04868
1.15616
1.24532
1.30799
1.33113
1.29219
1.14222
0.722424
0.070316
0.210503
0.349336
0.485846
0.618938
0.747306
0.869279
0.982589
1.08401
1.16883
1.23
1.25708
1.23507
1.1464
1.00161
0.065746
0.196855
0.326798
0.454745
0.579766
0.700764
0.816367
0.924754
1.02341
1.10876
1.17569
1.21712
1.22425
1.18954
1.11464
0.0614425
0.184016
0.305648
0.425677
0.543389
0.657973
0.768469
0.873681
0.972052
1.06148
1.13909
1.20099
1.24249
1.26061
1.26702
0.0573554
0.171833
0.285612
0.398222
0.509187
0.618024
0.724246
0.827365
0.926909
1.02242
1.11341
1.19904
1.27697
1.33983
1.36398
0.0534302
0.160137
0.26639
0.371912
0.476466
0.579896
0.682183
0.783539
0.884571
0.986509
1.09147
1.20245
1.32191
1.44595
1.5525
0.049612
0.148757
0.247679
0.346276
0.444529
0.542568
0.640771
0.739945
0.841611
0.948505
1.06536
1.19999
1.3637
1.56423
1.74935
0.0458491
0.137534
0.229196
0.320882
0.412746
0.50513
0.598693
0.694627
0.79503
0.903595
1.02692
1.17734
1.37992
1.69324
2.28249
0.0420959
0.126328
0.210699
0.295368
0.380606
0.466879
0.554976
0.646213
0.742792
0.848446
0.969676
1.11847
1.31927
1.63066
2.22775
0.0383153
0.115027
0.191998
0.269462
0.347751
0.427369
0.509086
0.594097
0.684263
0.782492
0.893305
1.02351
1.18184
1.36969
1.51457
0.0344791
0.103547
0.172958
0.242986
0.31398
0.386408
0.460917
0.538412
0.620147
0.707811
0.80348
0.909045
1.02393
1.13858
1.2267
0.0305672
0.0918316
0.153493
0.215845
0.279219
0.344009
0.410684
0.479791
0.551924
0.627584
0.706797
0.788121
0.866216
0.925915
0.924941
0.0265657
0.0798416
0.133553
0.187997
0.24348
0.300308
0.358769
0.41908
0.481263
0.544903
0.608665
0.669455
0.721292
0.755407
0.771558
0.0224646
0.0675512
0.113107
0.159434
0.206813
0.255481
0.30558
0.357078
0.409602
0.462151
0.512611
0.557024
0.588692
0.597393
0.565414
0.018255
0.0549371
0.0921283
0.130145
0.169259
0.209667
0.251429
0.294376
0.337936
0.380862
0.420773
0.453459
0.472061
0.467647
0.443392
0.0139268
0.0419716
0.0705806
0.100098
0.130813
0.16292
0.196466
0.231258
0.266723
0.301682
0.333968
0.359692
0.371431
0.351698
0.241382
0.00946651
0.0286164
0.0484059
0.0692255
0.0914058
0.115182
0.140648
0.167684
0.195874
0.224374
0.251734
0.275653
0.292674
0.29867
0.298026
0.00485652
0.0148192
0.0255197
0.0374135
0.0508977
0.066281
0.0837481
0.103321
0.124825
0.147871
0.171907
0.196422
0.221591
0.250269
0.294159
7.40482e-05
0.000511956
0.0018087
0.00450258
0.00907804
0.0159413
0.0253966
0.0376299
0.0527174
0.0706957
0.0917636
0.116754
0.148091
0.191323
0.25534
-0.00490879
-0.0143893
-0.0228684
-0.0297093
-0.034323
-0.0361892
-0.0348731
-0.030031
-0.0213827
-0.00860858
0.00891477
0.0327
0.0663528
0.117967
0.205814
-0.0101248
-0.0299837
-0.0486791
-0.0654619
-0.0796245
-0.0905203
-0.0975803
-0.100322
-0.0983332
-0.0911939
-0.0782634
-0.0581851
-0.0278347
0.0194772
0.0933443
-0.0156111
-0.0463837
-0.0758139
-0.103028
-0.127187
-0.147506
-0.163275
-0.173885
-0.178845
-0.177783
-0.170385
-0.15618
-0.133774
-0.0974239
-0.0179762
-0.0214088
-0.0637135
-0.104483
-0.14271
-0.177409
-0.207641
-0.232541
-0.251357
-0.263524
-0.268755
-0.267213
-0.259846
-0.249369
-0.244219
-0.278881
-0.0275619
-0.0821065
-0.134915
-0.184835
-0.230725
-0.271471
-0.30602
-0.333435
-0.353003
-0.364411
-0.368063
-0.365648
-0.361231
-0.36333
-0.386615
-0.0341161
-0.101703
-0.167349
-0.229753
-0.287605
-0.339595
-0.384441
-0.420948
-0.448133
-0.465435
-0.473105
-0.472812
-0.468537
-0.467687
-0.482911
-0.041118
-0.122643
-0.20203
-0.277827
-0.348549
-0.412671
-0.468641
-0.514924
-0.550109
-0.57313
-0.583656
-0.582718
-0.573434
-0.560843
-0.545632
-0.0486123
-0.145067
-0.2392
-0.329419
-0.414068
-0.491398
-0.559557
-0.616592
-0.660519
-0.689485
-0.702149
-0.698396
-0.680601
-0.655786
-0.640761
-0.0566403
-0.169101
-0.279084
-0.384875
-0.484662
-0.576486
-0.658186
-0.727352
-0.781304
-0.817146
-0.832024
-0.823803
-0.79262
-0.743905
-0.691383
-0.0652369
-0.194853
-0.321874
-0.444494
-0.560779
-0.668595
-0.765509
-0.848667
-0.91465
-0.959348
-0.977923
-0.965138
-0.916792
-0.834647
-0.74177
-0.0744283
-0.222405
-0.367718
-0.508507
-0.642771
-0.768267
-0.882375
-0.981896
-1.06277
-1.11968
-1.14558
-1.13115
-1.06442
-0.932824
-0.745368
-0.0842301
-0.251804
-0.416699
-0.577048
-0.730845
-0.875839
-1.00936
-1.12806
-1.22751
-1.30152
-1.34124
-1.33347
-1.25707
-1.06978
-0.641497
-0.0946464
-0.283062
-0.468832
-0.650132
-0.825027
-0.991369
-1.14663
-1.2876
-1.4099
-1.50718
-1.56986
-1.58344
-1.5267
-1.37408
-1.13117
-0.105671
-0.316156
-0.524066
-0.72766
-0.925142
-1.11459
-1.29381
-1.46009
-1.60966
-1.73684
-1.83258
-1.88222
-1.86291
-1.74108
-1.46065
-0.11729
-0.351036
-0.582295
-0.809429
-1.03083
-1.2449
-1.44998
-1.64417
-1.82495
-1.98833
-2.12729
-2.22888
-2.2703
-2.2182
-2.06152
-0.129485
-0.387643
-0.643383
-0.895174
-1.14161
-1.38145
-1.61369
-1.83755
-2.0523
-2.25678
-2.44793
-2.6173
-2.74263
-2.76793
-2.54774
-0.142245
-0.425926
-0.707212
-0.984637
-1.25695
-1.52326
-1.78322
-2.03725
-2.28679
-2.53447
-2.78368
-3.0363
-3.28441
-3.48812
-3.55054
-0.155567
-0.465869
-0.773719
-1.07764
-1.37646
-1.66949
-1.95687
-2.24005
-2.52256
-2.81108
-3.11707
-3.4584
-3.85703
-4.30641
-4.54556
-0.169467
-0.507514
-0.842948
-1.17419
-1.49999
-1.81963
-2.13341
-2.44332
-2.75414
-3.07555
-3.4259
-3.84069
-4.39439
-5.27067
-7.03752
-0.183981
-0.550972
-0.915083
-1.27453
-1.62777
-1.97383
-2.31265
-2.64593
-2.97836
-3.3199
-3.68998
-4.1265
-4.70771
-5.61646
-7.35902
-0.19917
-0.596429
-0.990458
-1.37915
-1.76056
-2.13305
-2.49573
-2.84913
-3.19626
-3.54441
-3.90792
-4.3118
-4.79356
-5.3832
-5.93969
-0.215107
-0.644127
-1.06953
-1.48885
-1.89952
-2.29906
-2.68526
-3.05668
-3.41342
-3.75825
-4.09782
-4.44301
-4.80449
-5.17294
-5.46996
-0.231874
-0.694332
-1.15284
-1.60453
-2.04621
-2.47434
-2.88505
-3.27442
-3.63886
-3.97573
-4.28381
-4.5629
-4.81056
-5.01227
-5.11727
-0.249538
-0.747277
-1.24088
-1.72716
-2.20232
-2.66169
-3.09964
-3.50945
-3.88343
-4.21319
-4.48992
-4.7046
-4.84852
-4.91875
-4.94788
-0.268129
-0.803095
-1.334
-1.85752
-2.36937
-2.86393
-3.33378
-3.76936
-4.15871
-4.48747
-4.7391
-4.89542
-4.93766
-4.85375
-4.67384
-0.287618
-0.861731
-1.43225
-1.99596
-2.54843
-3.08332
-3.59171
-4.06136
-4.47606
-4.81529
-5.05448
-5.16545
-5.11439
-4.85541
-4.39306
-0.307885
-0.922865
-1.53521
-2.14222
-2.7397
-3.3211
-3.87653
-4.39152
-4.84582
-5.21257
-5.45889
-5.54801
-5.4355
-4.99829
-3.51941
-0.328699
-0.98583
-1.64187
-2.2951
-2.94213
-3.57692
-4.18943
-4.76383
-5.27635
-5.69348
-5.97245
-6.07057
-5.98209
-5.86454
-6.50684
-0.349699
-1.04955
-1.75048
-2.45227
-3.15305
-3.84821
-4.5288
-5.17909
-5.77313
-6.27033
-6.61159
-6.7227
-6.54886
-6.20312
-6.53444
-0.370385
-1.11251
-1.8585
-2.61015
-3.36786
-4.1296
-4.88919
-5.63341
-6.33716
-6.95546
-7.41054
-7.57271
-7.23499
-6.07152
-3.42459
-0.390125
-1.17279
-1.96259
-2.76382
-3.57987
-4.41249
-5.26026
-6.11581
-6.96052
-7.75394
-8.41289
-8.76986
-8.49455
-6.97009
-3.23299
-0.408186
-1.22812
-2.05875
-2.90717
-3.78037
-4.68486
-5.62591
-6.60575
-7.61949
-8.6458
-9.62493
-10.4061
-10.6216
-9.40521
-4.93642
-0.423772
-1.27602
-2.14254
-3.03333
-3.95914
-4.93184
-5.96462
-7.07213
-8.26972
-9.57042
-10.9744
-12.4351
-13.7429
-14.099
-10.3927
-0.436089
-1.31402
-2.20948
-3.13515
-4.10535
-5.13708
-6.25143
-7.47594
-8.84835
-10.4233
-12.2846
-14.5703
-17.5252
-21.6137
-27.7093
-11.4126
-25.9772
-24.5485
-20.9684
-17.6435
-14.8558
-12.5209
-10.5223
-8.76725
-7.18858
-5.73778
-4.37914
-3.08544
-1.83486
-0.608943
-111.766
-58.2995
-37.641
-27.4357
-21.3506
-17.2124
-14.1273
-11.6686
-9.60807
-7.81267
-6.19895
-4.7112
-3.3098
-1.96471
-0.651465
-124.257
-67.8382
-43.4742
-31.0418
-23.7057
-18.8378
-15.2988
-12.5384
-10.2648
-8.31057
-6.57264
-4.98328
-3.49504
-2.07244
-0.686825
-68.2843
-55.1164
-41.0215
-31.1089
-24.3466
-19.5402
-15.9295
-13.07
-10.6997
-8.65827
-6.84316
-5.18511
-3.63471
-2.15447
-0.713878
-48.2176
-43.0383
-35.6644
-28.9881
-23.6294
-19.4123
-16.0386
-13.262
-10.9061
-8.8488
-7.00461
-5.31219
-3.72566
-2.20896
-0.732017
-30.6392
-32.4843
-29.8229
-25.9523
-22.1193
-18.6986
-15.733
-13.1618
-10.9053
-8.89131
-7.06064
-5.36572
-3.76812
-2.23585
-0.741189
-22.6131
-25.0598
-24.821
-22.8903
-20.3228
-17.6689
-15.1536
-12.843
-10.7359
-8.80653
-7.02239
-5.35167
-3.76519
-2.23661
-0.741832
-12.5744
-19.5003
-20.994
-20.2706
-18.5862
-16.543
-14.432
-12.3829
-10.4432
-8.62085
-6.90536
-5.27911
-3.72205
-2.21389
-0.734758
-15.1906
-17.7131
-18.7065
-18.3181
-17.0989
-15.4641
-13.6673
-11.8467
-10.0691
-8.36091
-6.72636
-5.1585
-3.64496
-2.17101
-0.721003
-15.8689
-16.9876
-17.3788
-16.9425
-15.9001
-14.4978
-12.9192
-11.2805
-9.64679
-8.04983
-6.50105
-5.00015
-3.54036
-2.1115
-0.701692