/*--------------------------------*- C++ -*----------------------------------*\
| =========                 |                                                 |
| \\      /  F ield         | OpenFOAM: The Open Source CFD Toolbox           |
|  \\    /   O peration     | Version:  5.x                                   |
|   \\  /    A nd           | Web:      www.OpenFOAM.org                      |
|    \\/     M anipulation  |                                                 |
\*---------------------------------------------------------------------------*/
FoamFile
{
    version     2.0;
    format      ascii;
    class       volScalarField;
    location    "7.2";
    object      T;
}
// * * * * * * * * * * * * * * * * * * * * * * * * * * * * * * * * * * * * * //

dimensions      [0 0 0 1 0 0 0];

internalField   nonuniform List<scalar> 
6300
(
322.842
322.524
322.206
321.886
321.563
321.238
320.909
320.575
320.237
319.893
319.544
319.189
318.828
318.461
318.089
322.842
322.525
322.208
321.888
321.567
321.242
320.913
320.58
320.242
319.899
319.55
319.195
318.834
318.467
318.094
322.843
322.528
322.211
321.893
321.573
321.249
320.921
320.589
320.252
319.91
319.561
319.207
318.846
318.479
318.106
322.844
322.531
322.217
321.901
321.582
321.26
320.934
320.604
320.268
319.927
319.579
319.225
318.864
318.497
318.123
322.845
322.535
322.224
321.911
321.595
321.276
320.952
320.624
320.29
319.95
319.604
319.25
318.889
318.522
318.147
322.847
322.541
322.233
321.923
321.611
321.295
320.975
320.649
320.318
319.98
319.635
319.282
318.922
318.553
318.177
322.849
322.547
322.244
321.939
321.631
321.319
321.002
320.68
320.352
320.017
319.674
319.322
318.962
318.592
318.214
322.852
322.555
322.257
321.957
321.654
321.347
321.036
320.718
320.394
320.062
319.721
319.371
319.011
318.64
318.26
322.855
322.564
322.273
321.979
321.682
321.381
321.074
320.762
320.443
320.115
319.778
319.429
319.07
318.698
318.314
322.858
322.575
322.29
322.003
321.713
321.419
321.119
320.814
320.5
320.178
319.845
319.5
319.141
318.768
318.38
322.862
322.587
322.31
322.031
321.748
321.462
321.171
320.873
320.567
320.251
319.924
319.583
319.227
318.853
318.46
322.867
322.6
322.331
322.061
321.788
321.511
321.229
320.94
320.643
320.337
320.017
319.683
319.33
318.956
318.559
322.871
322.614
322.355
322.095
321.831
321.565
321.293
321.015
320.73
320.434
320.125
319.8
319.454
319.083
318.683
322.876
322.629
322.381
322.131
321.879
321.623
321.364
321.099
320.826
320.545
320.25
319.938
319.603
319.24
318.843
322.882
322.645
322.408
322.169
321.929
321.686
321.44
321.189
320.933
320.668
320.392
320.099
319.781
319.429
319.038
317.742
317.423
317.1
316.774
316.445
316.113
315.778
315.441
315.102
314.76
314.417
314.072
313.725
313.378
313.03
312.68
312.331
311.981
311.632
311.282
310.933
310.584
310.235
309.887
309.539
309.191
308.844
308.498
308.152
307.806
307.462
307.118
306.775
306.433
306.091
305.751
305.412
305.074
304.737
304.4
304.065
303.73
303.396
303.063
302.73
302.399
302.069
301.74
301.411
301.084
300.758
300.433
300.11
299.787
299.465
299.143
298.823
298.504
298.185
297.867
297.551
297.235
296.92
296.606
296.293
295.981
295.67
295.36
295.051
294.742
294.434
294.127
293.821
293.515
293.21
292.906
292.602
292.299
291.996
291.694
291.392
291.09
290.789
290.487
290.185
289.883
289.58
289.276
288.971
288.666
317.747
317.428
317.105
316.779
316.449
316.117
315.782
315.444
315.105
314.763
314.419
314.074
313.727
313.379
313.03
312.681
312.331
311.981
311.632
311.282
310.932
310.583
310.235
309.886
309.538
309.191
308.844
308.497
308.151
307.805
307.461
307.117
306.773
306.431
306.09
305.75
305.411
305.073
304.735
304.399
304.063
303.729
303.395
303.061
302.729
302.398
302.067
301.738
301.41
301.083
300.757
300.432
300.108
299.785
299.463
299.142
298.822
298.503
298.184
297.866
297.549
297.233
296.918
296.604
296.291
295.979
295.669
295.359
295.049
294.741
294.434
294.127
293.82
293.514
293.209
292.905
292.601
292.298
291.995
291.693
291.391
291.09
290.789
290.488
290.186
289.884
289.581
289.277
288.973
288.667
317.758
317.438
317.115
316.788
316.458
316.125
315.789
315.451
315.11
314.768
314.424
314.078
313.73
313.382
313.032
312.682
312.332
311.981
311.631
311.281
310.931
310.582
310.233
309.885
309.537
309.19
308.842
308.495
308.149
307.803
307.458
307.114
306.771
306.428
306.087
305.747
305.408
305.07
304.733
304.396
304.061
303.726
303.392
303.059
302.726
302.395
302.064
301.735
301.407
301.08
300.754
300.429
300.105
299.783
299.461
299.14
298.82
298.5
298.181
297.863
297.546
297.23
296.915
296.601
296.288
295.977
295.666
295.356
295.047
294.739
294.432
294.125
293.818
293.513
293.207
292.903
292.599
292.296
291.994
291.692
291.391
291.09
290.789
290.488
290.187
289.886
289.583
289.28
288.975
288.67
317.775
317.454
317.129
316.801
316.47
316.136
315.8
315.461
315.119
314.776
314.431
314.084
313.735
313.385
313.035
312.684
312.332
311.981
311.63
311.28
310.93
310.581
310.232
309.883
309.535
309.188
308.84
308.493
308.146
307.8
307.455
307.11
306.766
306.424
306.083
305.743
305.404
305.066
304.729
304.393
304.057
303.723
303.389
303.055
302.722
302.39
302.06
301.73
301.402
301.075
300.749
300.424
300.101
299.779
299.457
299.136
298.816
298.497
298.178
297.86
297.542
297.226
296.911
296.597
296.284
295.972
295.662
295.352
295.044
294.736
294.429
294.122
293.816
293.51
293.205
292.9
292.596
292.293
291.991
291.69
291.389
291.089
290.79
290.49
290.19
289.889
289.587
289.284
288.98
288.674
317.797
317.475
317.149
316.82
316.487
316.152
315.814
315.473
315.131
314.787
314.44
314.092
313.742
313.391
313.038
312.686
312.333
311.981
311.629
311.278
310.927
310.578
310.229
309.881
309.533
309.186
308.838
308.49
308.143
307.796
307.45
307.105
306.76
306.418
306.076
305.736
305.398
305.06
304.724
304.388
304.053
303.718
303.384
303.05
302.717
302.385
302.053
301.723
301.395
301.068
300.742
300.418
300.095
299.773
299.452
299.132
298.812
298.492
298.173
297.854
297.537
297.22
296.904
296.59
296.278
295.966
295.656
295.347
295.039
294.732
294.425
294.119
293.812
293.506
293.201
292.896
292.592
292.289
291.987
291.687
291.387
291.088
290.79
290.492
290.193
289.893
289.593
289.29
288.986
288.68
317.826
317.502
317.174
316.842
316.508
316.171
315.831
315.49
315.146
314.8
314.452
314.102
313.75
313.397
313.043
312.688
312.333
311.979
311.626
311.274
310.924
310.574
310.226
309.878
309.531
309.183
308.835
308.487
308.139
307.791
307.444
307.097
306.753
306.409
306.068
305.728
305.39
305.054
304.718
304.383
304.048
303.713
303.379
303.044
302.71
302.377
302.045
301.714
301.386
301.059
300.734
300.41
300.088
299.767
299.447
299.127
298.807
298.487
298.167
297.848
297.53
297.212
296.896
296.582
296.269
295.959
295.649
295.341
295.034
294.727
294.421
294.115
293.808
293.502
293.196
292.891
292.587
292.284
291.982
291.682
291.384
291.087
290.79
290.494
290.197
289.9
289.601
289.299
288.996
288.689
317.861
317.534
317.203
316.869
316.532
316.193
315.852
315.509
315.164
314.817
314.467
314.115
313.761
313.405
313.047
312.69
312.332
311.976
311.621
311.269
310.918
310.57
310.222
309.875
309.528
309.181
308.833
308.484
308.135
307.785
307.436
307.088
306.742
306.398
306.057
305.718
305.381
305.045
304.711
304.377
304.043
303.708
303.373
303.038
302.703
302.368
302.035
301.703
301.374
301.047
300.723
300.4
300.08
299.76
299.441
299.121
298.802
298.481
298.161
297.841
297.521
297.202
296.886
296.571
296.259
295.949
295.64
295.334
295.028
294.722
294.417
294.111
293.804
293.498
293.191
292.884
292.579
292.276
291.975
291.676
291.379
291.084
290.79
290.497
290.203
289.908
289.612
289.312
289.009
288.702
317.903
317.572
317.238
316.9
316.559
316.218
315.875
315.531
315.185
314.837
314.486
314.131
313.774
313.414
313.053
312.691
312.33
311.97
311.614
311.261
310.911
310.563
310.217
309.872
309.527
309.18
308.832
308.482
308.131
307.779
307.427
307.077
306.729
306.384
306.042
305.704
305.369
305.036
304.704
304.371
304.038
303.704
303.368
303.031
302.694
302.357
302.021
301.688
301.358
301.032
300.709
300.388
300.07
299.752
299.435
299.116
298.797
298.476
298.155
297.832
297.51
297.19
296.872
296.557
296.245
295.936
295.629
295.325
295.021
294.718
294.413
294.108
293.801
293.493
293.184
292.876
292.57
292.265
291.964
291.666
291.371
291.079
290.789
290.5
290.211
289.92
289.627
289.329
289.027
288.72
317.952
317.617
317.277
316.934
316.589
316.245
315.9
315.555
315.209
314.861
314.509
314.152
313.791
313.426
313.059
312.691
312.324
311.961
311.602
311.248
310.899
310.554
310.211
309.869
309.526
309.181
308.833
308.482
308.128
307.772
307.416
307.061
306.71
306.364
306.023
305.687
305.354
305.025
304.696
304.367
304.036
303.702
303.365
303.026
302.685
302.344
302.005
301.669
301.338
301.012
300.691
300.373
300.058
299.744
299.43
299.113
298.795
298.473
298.149
297.823
297.498
297.174
296.854
296.538
296.226
295.919
295.616
295.315
295.014
294.714
294.411
294.107
293.799
293.489
293.177
292.866
292.556
292.25
291.948
291.651
291.359
291.071
290.786
290.503
290.22
289.936
289.648
289.354
289.053
288.745
318.012
317.669
317.32
316.969
316.619
316.271
315.926
315.582
315.237
314.89
314.538
314.179
313.813
313.442
313.066
312.689
312.314
311.945
311.583
311.229
310.882
310.541
310.204
309.867
309.529
309.187
308.84
308.486
308.127
307.765
307.402
307.041
306.686
306.337
305.997
305.664
305.336
305.012
304.689
304.365
304.037
303.704
303.365
303.022
302.675
302.328
301.983
301.643
301.311
300.985
300.667
300.354
300.045
299.737
299.427
299.114
298.796
298.473
298.145
297.814
297.483
297.154
296.83
296.512
296.201
295.897
295.599
295.303
295.008
294.713
294.413
294.109
293.8
293.487
293.17
292.853
292.538
292.229
291.926
291.63
291.341
291.059
290.781
290.507
290.233
289.957
289.676
289.388
289.09
288.78
318.083
317.728
317.366
317.004
316.645
316.294
315.949
315.609
315.27
314.927
314.576
314.216
313.845
313.463
313.075
312.684
312.296
311.918
311.552
311.199
310.856
310.523
310.195
309.868
309.538
309.201
308.855
308.498
308.132
307.759
307.384
307.013
306.65
306.299
305.96
305.632
305.312
304.998
304.685
304.368
304.045
303.714
303.373
303.023
302.667
302.308
301.954
301.608
301.273
300.949
300.635
300.33
300.03
299.731
299.429
299.121
298.805
298.48
298.146
297.806
297.464
297.126
296.796
296.476
296.167
295.868
295.577
295.29
295.004
294.716
294.422
294.12
293.808
293.489
293.164
292.837
292.513
292.198
291.892
291.598
291.314
291.04
290.772
290.509
290.247
289.984
289.716
289.437
289.144
288.832
318.17
317.799
317.414
317.032
316.662
316.307
315.966
315.636
315.307
314.973
314.629
314.268
313.891
313.495
313.087
312.672
312.266
311.875
311.504
311.152
310.818
310.497
310.185
309.874
309.556
309.228
308.884
308.524
308.147
307.756
307.361
306.972
306.599
306.244
305.908
305.588
305.281
304.982
304.684
304.38
304.066
303.738
303.394
303.033
302.661
302.283
301.912
301.556
301.218
300.897
300.592
300.299
300.014
299.73
299.44
299.141
298.827
298.499
298.156
297.8
297.44
297.087
296.747
296.425
296.119
295.828
295.548
295.276
295.005
294.728
294.442
294.142
293.829
293.5
293.16
292.815
292.477
292.152
291.843
291.551
291.274
291.011
290.757
290.509
290.264
290.019
289.77
289.507
289.223
288.91
318.284
317.887
317.458
317.044
316.655
316.3
315.969
315.659
315.353
315.036
314.703
314.345
313.962
313.547
313.108
312.649
312.212
311.803
311.428
311.08
310.76
310.459
310.173
309.888
309.59
309.276
308.937
308.574
308.18
307.762
307.326
306.911
306.52
306.163
305.831
305.526
305.238
304.965
304.692
304.408
304.108
303.784
303.437
303.061
302.662
302.247
301.851
301.479
301.138
300.822
300.531
300.257
299.996
299.737
299.465
299.179
298.871
298.541
298.182
297.802
297.406
297.029
296.674
296.349
296.048
295.771
295.509
295.26
295.012
294.753
294.48
294.186
293.87
293.527
293.164
292.784
292.422
292.082
291.77
291.481
291.216
290.967
290.734
290.507
290.28
290.061
289.842
289.609
289.345
289.031
318.447
318.022
317.479
317.021
316.601
316.257
315.943
315.676
315.415
315.121
314.815
314.457
314.081
313.633
313.156
312.595
312.121
311.68
311.312
310.968
310.676
310.4
310.16
309.92
309.648
309.361
309.025
308.67
308.246
307.794
307.262
306.813
306.394
306.045
305.717
305.439
305.175
304.946
304.718
304.457
304.184
303.863
303.524
303.12
302.689
302.183
301.755
301.356
301.023
300.711
300.446
300.196
299.977
299.76
299.512
299.251
298.946
298.623
298.238
297.828
297.345
296.937
296.557
296.241
295.943
295.691
295.452
295.243
295.036
294.799
294.551
294.259
293.951
293.583
293.19
292.728
292.336
291.97
291.664
291.377
291.133
290.901
290.701
290.503
290.285
290.102
289.935
289.757
289.538
289.234
318.703
318.323
317.377
316.943
316.436
316.174
315.847
315.683
315.525
315.223
314.999
314.598
314.303
313.761
313.325
312.415
311.982
311.451
311.164
310.78
310.568
310.289
310.145
310.001
309.725
309.517
309.142
308.864
308.353
307.94
307.08
306.67
306.167
305.895
305.531
305.329
305.064
304.926
304.789
304.526
304.327
303.969
303.705
303.217
302.824
302.006
301.616
301.138
300.879
300.533
300.341
300.088
299.957
299.827
299.576
299.387
299.046
298.794
298.331
297.957
297.177
296.806
296.35
296.104
295.774
295.591
295.35
295.225
295.101
294.862
294.682
294.358
294.118
293.676
293.317
292.569
292.212
291.772
291.533
291.211
291.032
290.791
290.665
290.529
290.24
290.119
290.042
289.966
289.854
289.625
288.329
287.96
287.59
287.22
286.849
286.479
286.109
285.74
285.371
285.004
284.638
284.273
283.909
283.545
283.182
288.33
287.961
287.59
287.22
286.849
286.478
286.108
285.739
285.37
285.003
284.637
284.272
283.908
283.544
283.181
288.332
287.962
287.592
287.22
286.849
286.477
286.106
285.737
285.368
285.001
284.635
284.27
283.907
283.544
283.181
288.336
287.965
287.593
287.221
286.848
286.475
286.104
285.734
285.365
284.998
284.632
284.268
283.905
283.542
283.181
288.341
287.97
287.596
287.221
286.847
286.473
286.1
285.729
285.36
284.993
284.627
284.264
283.902
283.541
283.18
288.349
287.976
287.599
287.222
286.845
286.469
286.095
285.722
285.353
284.986
284.621
284.258
283.898
283.538
283.179
288.36
287.984
287.604
287.223
286.842
286.463
286.087
285.713
285.343
284.976
284.613
284.251
283.892
283.535
283.178
288.376
287.995
287.61
287.224
286.838
286.455
286.076
285.701
285.33
284.964
284.601
284.242
283.885
283.53
283.177
288.397
288.01
287.617
287.223
286.831
286.443
286.061
285.684
285.313
284.948
284.587
284.23
283.877
283.525
283.175
288.427
288.03
287.626
287.221
286.82
286.426
286.04
285.662
285.291
284.927
284.569
284.215
283.866
283.518
283.173
288.47
288.056
287.635
287.215
286.803
286.401
286.011
285.631
285.262
284.9
284.546
284.197
283.852
283.51
283.17
288.532
288.091
287.642
287.201
286.774
286.365
285.971
285.592
285.224
284.867
284.518
284.174
283.836
283.5
283.166
288.622
288.132
287.642
287.172
286.729
286.312
285.917
285.54
285.177
284.826
284.483
284.147
283.816
283.488
283.163
288.756
288.175
287.621
287.116
286.658
286.237
285.845
285.474
285.118
284.775
284.442
284.115
283.793
283.474
283.158
288.952
288.189
287.55
287.014
286.551
286.135
285.751
285.391
285.047
284.716
284.393
284.078
283.766
283.459
283.153
322.887
322.661
322.434
322.206
321.977
321.746
321.513
321.277
321.037
320.792
320.537
320.269
319.977
319.636
319.192
322.892
322.675
322.458
322.24
322.022
321.803
321.583
321.361
321.137
320.91
320.679
320.441
320.188
319.894
319.451
322.897
322.69
322.483
322.275
322.068
321.86
321.653
321.445
321.238
321.031
320.825
320.622
320.427
320.255
320.194
322.901
322.704
322.507
322.31
322.114
321.918
321.723
321.53
321.338
321.151
320.97
320.799
320.649
320.538
320.496
322.906
322.719
322.532
322.345
322.159
321.975
321.792
321.612
321.437
321.267
321.107
320.962
320.844
320.773
320.793
322.911
322.733
322.556
322.379
322.204
322.03
321.86
321.692
321.531
321.376
321.233
321.107
321.007
320.945
320.931
322.916
322.747
322.579
322.412
322.247
322.084
321.924
321.769
321.619
321.478
321.347
321.233
321.142
321.084
321.077
322.92
322.761
322.602
322.445
322.289
322.136
321.986
321.841
321.702
321.571
321.451
321.344
321.255
321.187
321.143
322.925
322.774
322.624
322.475
322.329
322.185
322.045
321.909
321.78
321.657
321.544
321.442
321.353
321.274
321.197
322.929
322.786
322.645
322.505
322.367
322.232
322.1
321.973
321.852
321.737
321.63
321.532
321.442
321.361
321.288
322.933
322.798
322.665
322.533
322.403
322.276
322.152
322.033
321.919
321.812
321.71
321.616
321.527
321.441
321.349
322.936
322.81
322.684
322.559
322.437
322.318
322.202
322.09
321.983
321.881
321.786
321.695
321.609
321.526
321.448
322.94
322.82
322.702
322.585
322.469
322.357
322.248
322.143
322.043
321.947
321.857
321.772
321.69
321.607
321.513
322.943
322.831
322.719
322.608
322.5
322.394
322.291
322.193
322.099
322.009
321.925
321.846
321.77
321.696
321.623
322.947
322.84
322.735
322.63
322.528
322.429
322.332
322.24
322.151
322.068
321.99
321.918
321.85
321.784
321.705
322.95
322.849
322.749
322.651
322.555
322.461
322.37
322.283
322.201
322.123
322.051
321.986
321.928
321.882
321.864
322.952
322.857
322.763
322.671
322.58
322.491
322.406
322.324
322.247
322.174
322.108
322.049
321.998
321.96
321.937
322.955
322.865
322.776
322.689
322.603
322.519
322.439
322.362
322.289
322.221
322.16
322.105
322.06
322.028
322.018
322.957
322.873
322.788
322.706
322.624
322.546
322.469
322.397
322.328
322.264
322.206
322.155
322.113
322.081
322.059
322.96
322.879
322.8
322.721
322.644
322.57
322.498
322.429
322.364
322.303
322.248
322.199
322.158
322.127
322.11
322.962
322.886
322.81
322.736
322.663
322.592
322.524
322.458
322.396
322.338
322.285
322.237
322.196
322.163
322.136
322.964
322.892
322.82
322.749
322.68
322.613
322.547
322.485
322.426
322.37
322.318
322.271
322.229
322.194
322.167
322.966
322.897
322.829
322.762
322.696
322.632
322.57
322.51
322.453
322.399
322.348
322.301
322.258
322.219
322.183
322.967
322.902
322.837
322.773
322.711
322.649
322.59
322.533
322.478
322.425
322.376
322.329
322.284
322.241
322.196
322.969
322.907
322.845
322.784
322.724
322.666
322.609
322.554
322.501
322.45
322.401
322.355
322.309
322.265
322.221
322.97
322.911
322.852
322.794
322.737
322.681
322.627
322.574
322.523
322.473
322.426
322.38
322.334
322.288
322.239
322.972
322.915
322.859
322.803
322.749
322.695
322.643
322.592
322.543
322.495
322.449
322.404
322.359
322.314
322.269
322.973
322.919
322.865
322.812
322.76
322.709
322.659
322.61
322.562
322.516
322.472
322.428
322.384
322.339
322.289
322.974
322.922
322.871
322.82
322.77
322.721
322.673
322.626
322.581
322.537
322.494
322.452
322.41
322.368
322.325
322.975
322.926
322.877
322.828
322.78
322.733
322.687
322.642
322.598
322.556
322.515
322.475
322.437
322.398
322.353
322.976
322.929
322.882
322.835
322.789
322.744
322.7
322.657
322.615
322.574
322.535
322.498
322.463
322.431
322.409
322.977
322.932
322.887
322.842
322.798
322.754
322.712
322.67
322.63
322.592
322.555
322.52
322.487
322.459
322.434
322.978
322.934
322.891
322.848
322.806
322.764
322.723
322.683
322.645
322.608
322.573
322.54
322.509
322.483
322.464
322.979
322.937
322.895
322.854
322.813
322.773
322.734
322.695
322.658
322.623
322.589
322.557
322.528
322.502
322.48
322.98
322.939
322.899
322.859
322.82
322.781
322.744
322.707
322.671
322.637
322.604
322.573
322.545
322.52
322.5
322.98
322.942
322.903
322.864
322.827
322.789
322.753
322.717
322.683
322.649
322.617
322.587
322.559
322.533
322.51
322.981
322.944
322.906
322.869
322.833
322.797
322.761
322.727
322.693
322.661
322.63
322.6
322.572
322.546
322.523
322.982
322.946
322.909
322.874
322.838
322.804
322.769
322.736
322.703
322.672
322.641
322.611
322.583
322.555
322.529
322.982
322.947
322.913
322.878
322.844
322.81
322.777
322.744
322.713
322.682
322.651
322.622
322.593
322.565
322.535
322.983
322.949
322.915
322.882
322.849
322.816
322.784
322.752
322.721
322.691
322.661
322.632
322.603
322.575
322.546
322.984
322.951
322.918
322.885
322.853
322.822
322.79
322.76
322.73
322.7
322.671
322.642
322.614
322.584
322.554
322.984
322.952
322.92
322.889
322.858
322.827
322.797
322.767
322.737
322.709
322.68
322.652
322.624
322.596
322.567
322.984
322.954
322.923
322.892
322.862
322.832
322.802
322.773
322.745
322.717
322.69
322.662
322.635
322.607
322.576
322.985
322.955
322.925
322.895
322.866
322.837
322.808
322.78
322.752
322.725
322.699
322.672
322.646
322.62
322.593
322.985
322.956
322.927
322.898
322.869
322.841
322.813
322.786
322.759
322.733
322.707
322.682
322.658
322.633
322.605
322.986
322.957
322.929
322.9
322.873
322.845
322.818
322.791
322.765
322.74
322.716
322.692
322.669
322.648
322.631
322.986
322.958
322.93
322.903
322.876
322.849
322.822
322.797
322.771
322.747
322.723
322.701
322.68
322.66
322.643
322.986
322.959
322.932
322.905
322.878
322.852
322.826
322.801
322.777
322.753
322.731
322.709
322.689
322.671
322.656
322.987
322.96
322.933
322.907
322.881
322.855
322.83
322.806
322.782
322.759
322.737
322.716
322.697
322.679
322.663
322.987
322.961
322.934
322.909
322.883
322.858
322.833
322.809
322.786
322.764
322.742
322.722
322.703
322.686
322.672
322.987
322.961
322.935
322.91
322.885
322.86
322.836
322.813
322.79
322.768
322.747
322.727
322.709
322.692
322.676
322.987
322.962
322.936
322.911
322.886
322.862
322.838
322.815
322.793
322.771
322.751
322.731
322.713
322.696
322.681
322.987
322.962
322.937
322.912
322.888
322.864
322.84
322.817
322.795
322.774
322.754
322.735
322.717
322.699
322.683
322.987
322.962
322.937
322.913
322.889
322.865
322.842
322.819
322.797
322.776
322.756
322.737
322.719
322.702
322.685
322.988
322.963
322.938
322.913
322.889
322.866
322.843
322.82
322.799
322.778
322.758
322.739
322.721
322.704
322.688
322.988
322.963
322.938
322.913
322.889
322.866
322.843
322.821
322.799
322.779
322.759
322.741
322.723
322.706
322.69
322.988
322.963
322.938
322.913
322.889
322.866
322.843
322.821
322.8
322.779
322.76
322.741
322.724
322.708
322.692
322.987
322.962
322.938
322.913
322.889
322.865
322.842
322.82
322.799
322.779
322.759
322.741
322.724
322.708
322.693
322.987
322.962
322.937
322.912
322.888
322.864
322.841
322.819
322.798
322.778
322.758
322.74
322.723
322.708
322.694
322.987
322.962
322.936
322.911
322.887
322.863
322.84
322.817
322.796
322.776
322.757
322.739
322.722
322.707
322.693
322.987
322.961
322.935
322.91
322.885
322.861
322.837
322.815
322.794
322.773
322.754
322.736
322.719
322.704
322.689
322.987
322.96
322.934
322.908
322.883
322.858
322.835
322.812
322.79
322.77
322.75
322.732
322.716
322.7
322.687
322.986
322.959
322.932
322.906
322.88
322.855
322.831
322.808
322.786
322.765
322.746
322.728
322.711
322.696
322.681
322.986
322.958
322.931
322.904
322.877
322.851
322.827
322.803
322.781
322.76
322.741
322.723
322.706
322.691
322.678
322.986
322.957
322.929
322.901
322.873
322.847
322.822
322.798
322.775
322.754
322.734
322.716
322.7
322.685
322.671
322.985
322.955
322.926
322.897
322.869
322.842
322.816
322.791
322.768
322.747
322.727
322.709
322.693
322.679
322.666
322.985
322.954
322.923
322.893
322.864
322.836
322.809
322.784
322.76
322.738
322.718
322.7
322.685
322.671
322.658
322.984
322.952
322.92
322.889
322.858
322.829
322.801
322.775
322.75
322.728
322.708
322.69
322.675
322.663
322.654
322.983
322.949
322.916
322.884
322.852
322.821
322.792
322.765
322.739
322.716
322.696
322.678
322.664
322.653
322.648
322.982
322.947
322.912
322.878
322.845
322.813
322.782
322.753
322.727
322.703
322.682
322.664
322.65
322.64
322.635
322.981
322.944
322.907
322.871
322.836
322.803
322.771
322.74
322.713
322.687
322.665
322.647
322.633
322.624
322.623
322.98
322.941
322.902
322.864
322.827
322.792
322.758
322.726
322.696
322.67
322.646
322.627
322.612
322.603
322.6
322.979
322.938
322.897
322.857
322.817
322.78
322.744
322.71
322.678
322.65
322.624
322.603
322.587
322.578
322.581
322.978
322.934
322.891
322.848
322.806
322.766
322.728
322.692
322.658
322.627
322.6
322.576
322.557
322.545
322.541
322.977
322.93
322.884
322.839
322.794
322.752
322.711
322.672
322.636
322.603
322.572
322.546
322.523
322.506
322.505
322.975
322.926
322.877
322.828
322.781
322.736
322.693
322.651
322.612
322.576
322.543
322.512
322.484
322.457
322.424
322.974
322.921
322.869
322.817
322.767
322.719
322.673
322.628
322.587
322.547
322.511
322.477
322.444
322.413
322.382
322.972
322.916
322.86
322.805
322.752
322.701
322.651
322.604
322.559
322.517
322.478
322.44
322.404
322.368
322.325
322.97
322.91
322.851
322.793
322.736
322.681
322.628
322.577
322.53
322.485
322.443
322.403
322.364
322.327
322.291
322.968
322.904
322.841
322.779
322.718
322.659
322.603
322.549
322.498
322.451
322.406
322.364
322.324
322.284
322.24
322.966
322.898
322.83
322.764
322.699
322.636
322.576
322.519
322.465
322.415
322.368
322.324
322.283
322.245
322.209
322.963
322.891
322.819
322.748
322.679
322.612
322.547
322.486
322.429
322.376
322.327
322.283
322.242
322.203
322.162
322.961
322.883
322.806
322.73
322.656
322.585
322.516
322.451
322.39
322.334
322.284
322.238
322.198
322.164
322.136
322.958
322.875
322.793
322.712
322.633
322.556
322.483
322.413
322.348
322.289
322.236
322.19
322.151
322.12
322.103
322.956
322.867
322.779
322.692
322.607
322.525
322.446
322.372
322.302
322.239
322.184
322.137
322.099
322.066
322.027
322.953
322.858
322.764
322.671
322.58
322.492
322.407
322.327
322.252
322.185
322.126
322.078
322.042
322.016
321.994
322.949
322.848
322.748
322.649
322.551
322.456
322.365
322.278
322.197
322.124
322.06
322.011
321.978
321.965
321.97
322.946
322.838
322.731
322.625
322.521
322.419
322.32
322.225
322.136
322.055
321.986
321.932
321.9
321.9
321.94
322.943
322.828
322.714
322.6
322.488
322.378
322.271
322.168
322.07
321.979
321.9
321.837
321.801
321.808
321.888
322.939
322.817
322.695
322.574
322.455
322.336
322.22
322.107
321.998
321.896
321.803
321.725
321.671
321.665
321.767
289.157
288.091
287.389
286.855
286.408
286.011
285.645
285.301
284.971
284.653
284.343
284.039
283.739
283.442
283.147
288.78
287.747
287.126
286.65
286.244
285.876
285.533
285.208
284.894
284.59
284.293
284.001
283.713
283.427
283.142
287.294
287.119
286.761
286.398
286.052
285.724
285.409
285.106
284.811
284.523
284.24
283.961
283.684
283.41
283.136
286.709
286.617
286.401
286.133
285.848
285.562
285.278
284.999
284.723
284.452
284.184
283.918
283.654
283.392
283.131
286.156
286.2
286.078
285.879
285.646
285.398
285.144
284.888
284.633
284.379
284.126
283.874
283.624
283.374
283.125
285.906
285.9
285.807
285.65
285.455
285.238
285.011
284.778
284.542
284.304
284.067
283.829
283.592
283.355
283.118
285.645
285.659
285.581
285.447
285.278
285.086
284.882
284.669
284.451
284.23
284.008
283.785
283.561
283.337
283.112
285.529
285.482
285.393
285.268
285.116
284.944
284.758
284.564
284.363
284.158
283.95
283.74
283.529
283.318
283.106
285.436
285.334
285.231
285.109
284.968
284.811
284.641
284.462
284.277
284.087
283.893
283.697
283.499
283.3
283.1
285.276
285.187
285.081
284.963
284.831
284.686
284.53
284.366
284.195
284.018
283.838
283.654
283.469
283.282
283.094
285.171
285.051
284.941
284.827
284.703
284.569
284.426
284.274
284.116
283.953
283.785
283.613
283.44
283.264
283.088
285
284.907
284.804
284.697
284.582
284.459
284.327
284.188
284.041
283.89
283.734
283.574
283.412
283.248
283.083
284.889
284.771
284.671
284.571
284.466
284.354
284.233
284.105
283.971
283.83
283.685
283.537
283.385
283.232
283.077
284.7
284.621
284.537
284.45
284.356
284.255
284.145
284.028
283.904
283.774
283.639
283.501
283.36
283.217
283.072
284.564
284.474
284.406
284.333
284.252
284.161
284.062
283.955
283.841
283.721
283.596
283.467
283.336
283.202
283.068
284.298
284.312
284.278
284.223
284.154
284.074
283.984
283.887
283.782
283.671
283.555
283.436
283.313
283.189
283.063
284.179
284.185
284.164
284.122
284.064
283.993
283.912
283.823
283.727
283.625
283.517
283.406
283.292
283.176
283.059
284.048
284.075
284.065
284.032
283.982
283.919
283.846
283.765
283.676
283.582
283.482
283.379
283.273
283.164
283.055
283.983
283.992
283.982
283.953
283.909
283.853
283.786
283.712
283.63
283.542
283.45
283.354
283.255
283.154
283.051
283.906
283.921
283.911
283.885
283.845
283.793
283.732
283.663
283.587
283.506
283.42
283.33
283.238
283.143
283.048
283.867
283.866
283.853
283.827
283.789
283.74
283.683
283.619
283.549
283.473
283.392
283.309
283.222
283.134
283.045
283.821
283.82
283.804
283.777
283.74
283.694
283.64
283.58
283.514
283.443
283.368
283.289
283.208
283.126
283.042
283.8
283.785
283.763
283.734
283.696
283.652
283.601
283.544
283.482
283.415
283.345
283.271
283.196
283.118
283.039
283.782
283.755
283.727
283.696
283.658
283.615
283.566
283.512
283.453
283.391
283.324
283.255
283.184
283.111
283.037
283.75
283.724
283.695
283.662
283.624
283.582
283.535
283.483
283.428
283.368
283.306
283.241
283.173
283.105
283.035
283.73
283.697
283.665
283.631
283.594
283.552
283.507
283.458
283.405
283.348
283.289
283.227
283.164
283.099
283.033
283.697
283.668
283.636
283.602
283.566
283.526
283.482
283.434
283.384
283.33
283.274
283.215
283.155
283.094
283.031
283.675
283.641
283.609
283.576
283.54
283.501
283.459
283.414
283.365
283.314
283.26
283.205
283.147
283.089
283.03
283.641
283.613
283.583
283.551
283.517
283.479
283.438
283.395
283.348
283.299
283.248
283.195
283.14
283.085
283.028
283.616
283.586
283.558
283.528
283.495
283.459
283.42
283.378
283.334
283.287
283.237
283.186
283.134
283.081
283.027
283.571
283.558
283.535
283.507
283.476
283.441
283.404
283.363
283.32
283.275
283.228
283.179
283.129
283.078
283.026
283.551
283.536
283.515
283.489
283.459
283.426
283.389
283.35
283.309
283.265
283.219
283.172
283.124
283.075
283.025
283.531
283.518
283.498
283.473
283.444
283.412
283.377
283.339
283.298
283.256
283.212
283.166
283.12
283.072
283.024
283.522
283.506
283.485
283.46
283.432
283.4
283.366
283.329
283.29
283.248
283.206
283.161
283.116
283.07
283.023
283.512
283.496
283.475
283.45
283.422
283.391
283.357
283.321
283.282
283.242
283.2
283.157
283.113
283.068
283.023
283.508
283.489
283.467
283.442
283.414
283.383
283.35
283.314
283.276
283.237
283.196
283.154
283.11
283.067
283.022
283.504
283.484
283.461
283.436
283.408
283.377
283.344
283.309
283.271