/*--------------------------------*- C++ -*----------------------------------*\
| =========                 |                                                 |
| \\      /  F ield         | OpenFOAM: The Open Source CFD Toolbox           |
|  \\    /   O peration     | Version:  5.x                                   |
|   \\  /    A nd           | Web:      www.OpenFOAM.org                      |
|    \\/     M anipulation  |                                                 |
\*---------------------------------------------------------------------------*/
FoamFile
{
    version     2.0;
    format      ascii;
    class       volScalarField;
    location    "0.3";
    object      gradTy;
}
// * * * * * * * * * * * * * * * * * * * * * * * * * * * * * * * * * * * * * //

dimensions      [0 -1 0 1 0 0 0];

internalField   nonuniform List<scalar> 
3200
(
15.6198
8.37767
10.6053
8.41629
9.32441
8.33357
8.77151
8.20247
8.44999
8.11106
8.24707
8.08825
8.16664
8.03816
8.09292
8.0134
8.04627
8.00213
8.02006
7.9973
8.00643
7.9953
7.99973
7.9945
7.99658
7.99416
7.99512
7.994
7.99447
7.99396
7.99382
7.99394
7.99384
7.99389
7.99384
7.99386
7.99383
7.99384
7.99383
7.99383
7.99383
7.99383
7.99384
7.99383
7.99387
7.99383
7.99391
7.99386
7.994
7.99391
7.99409
7.99392
7.99434
7.994
7.99483
7.99417
7.99575
7.9945
7.99746
7.99511
8.00071
7.99617
8.00696
7.99787
8.01944
7.99976
8.04601
7.99644
8.10716
7.94031
8.14153
8.8367
8.22334
9.63527
8.52203
11.5514
10.8041
10.6899
10.6663
10.6613
14.6895
9.22185
10.3578
8.72263
9.21183
8.47288
8.70793
8.2828
8.41459
8.16121
8.23367
8.11526
8.157
8.06092
8.08979
8.03038
8.04776
8.01481
8.02431
8.00733
8.01218
8.00389
8.00624
8.00234
8.00345
8.00164
8.00216
8.00132
8.00158
8.00118
8.00104
8.00111
8.00104
8.00106
8.00102
8.00103
8.00101
8.00102
8.00101
8.00101
8.00101
8.00101
8.00102
8.00101
8.00104
8.00102
8.00108
8.00105
8.00116
8.00111
8.00124
8.00115
8.00147
8.00129
8.00191
8.00156
8.00273
8.00207
8.00428
8.00302
8.00721
8.00478
8.01284
8.00796
8.02403
8.01338
8.04775
8.02033
8.10193
8.00543
8.20343
8.74719
8.41718
9.47317
8.89472
11.1747
10.7838
10.6913
10.6706
10.6661
13.9778
9.80154
10.2209
8.94356
9.148
8.57274
8.67031
8.3403
8.3941
8.19771
8.22733
8.13521
8.15226
8.07798
8.08952
8.04354
8.05053
8.02502
8.02886
8.01572
8.01769
8.01126
8.01222
8.0092
8.00965
8.00825
8.00846
8.00782
8.00792
8.0076
8.00746
8.00749
8.00744
8.00745
8.00742
8.00743
8.00741
8.00741
8.0074
8.00741
8.0074
8.0074
8.00741
8.00741
8.00743
8.00742
8.00747
8.00746
8.00754
8.00752
8.00762
8.00759
8.00783
8.00776
8.00824
8.0081
8.00901
8.00874
8.01045
8.00994
8.01319
8.01219
8.01845
8.01642
8.02892
8.02441
8.05119
8.03908
8.10306
8.058
8.25077
8.69197
8.55488
9.37585
9.15244
10.9044
10.7511
10.6893
10.6737
10.6702
13.4333
10.1971
10.1517
9.10478
9.11496
8.64521
8.64933
8.38191
8.38308
8.22457
8.22525
8.15014
8.15052
8.0909
8.09085
8.05384
8.05387
8.0333
8.03334
8.02272
8.02275
8.01755
8.01757
8.01512
8.01513
8.014
8.01401
8.01348
8.01349
8.01322
8.01308
8.01309
8.01304
8.01304
8.01302
8.01302
8.01301
8.01301
8.013
8.013
8.013
8.013
8.01301
8.01301
8.01303
8.01303
8.01306
8.01306
8.01313
8.01313
8.01321
8.01321
8.01341
8.01341
8.0138
8.0138
8.01454
8.01453
8.01592
8.01591
8.01854
8.01851
8.02359
8.02351
8.0337
8.0334
8.05541
8.054
8.10779
8.10028
8.28744
8.65921
8.65358
9.31969
9.33051
10.7097
10.7141
10.6849
10.6758
10.6736
13.0182
10.4648
10.1222
9.22332
9.1007
8.69825
8.63874
8.41224
8.37791
8.24445
8.22561
8.1614
8.15054
8.10074
8.09297
8.06193
8.05729
8.03998
8.03747
8.02851
8.02724
8.02285
8.02223
8.02016
8.01987
8.01891
8.01878
8.01834
8.01827
8.01804
8.01791
8.01789
8.01785
8.01784
8.01783
8.01782
8.01781
8.01781
8.0178
8.0178
8.0178
8.0178
8.01781
8.01781
8.01783
8.01783
8.01786
8.01787
8.01793
8.01794
8.01801
8.01803
8.0182
8.01825
8.01858
8.01867
8.0193
8.01947
8.02065
8.02097
8.02321
8.02383
8.02816
8.02939
8.03811
8.04071
8.05978
8.06594
8.1142
8.134
8.31599
8.64087
8.72472
9.28912
9.45324
10.5694
10.6779
10.6791
10.677
10.6764
12.7051
10.6438
10.1147
9.31042
9.09723
8.7371
8.63435
8.43436
8.37617
8.25915
8.22718
8.16988
8.15146
8.1082
8.09531
8.06822
8.06048
8.04531
8.0411
8.03322
8.03108
8.02721
8.02617
8.02434
8.02385
8.023
8.02277
8.02238
8.02227
8.02206
8.02193
8.0219
8.02186
8.02185
8.02183
8.02183
8.02182
8.02182
8.02181
8.02181
8.02181
8.02181
8.02182
8.02182
8.02183
8.02184
8.02187
8.02188
8.02193
8.02195
8.02202
8.02206
8.02221
8.02229
8.02258
8.02273
8.02328
8.02358
8.02462
8.02517
8.02715
8.02822
8.03205
8.03419
8.04197
8.04658
8.06389
8.07541
8.12099
8.16048
8.33809
8.63148
8.77597
9.27394
9.53726
10.4689
10.6454
10.6729
10.6777
10.6785
12.4745
10.7612
10.1179
9.37348
9.09923
8.76519
8.63336
8.45027
8.37624
8.26985
8.22915
8.17617
8.15272
8.11376
8.09751
8.073
8.06323
8.04944
8.0441
8.03693
8.0342
8.03067
8.02934
8.02767
8.02704
8.02627
8.02598
8.02561
8.02547
8.02528
8.02515
8.02511
8.02508
8.02506
8.02505
8.02504
8.02503
8.02503
8.02503
8.02502
8.02502
8.02502
8.02503
8.02503
8.02505
8.02506
8.02508
8.0251
8.02514
8.02517
8.02523
8.02528
8.02542
8.02552
8.02579
8.02598
8.02649
8.02686
8.02781
8.02852
8.03034
8.0317
8.03523
8.03797
8.04518
8.05115
8.06744
8.08273
8.12725
8.18066
8.35484
8.62737
8.81241
9.26752
9.59394
10.398
10.6183
10.6671
10.6779
10.6802
12.3122
10.8356
10.1249
9.41736
9.1032
8.78474
8.63394
8.46128
8.37704
8.27733
8.231
8.18062
8.15393
8.11771
8.09934
8.07647
8.06539
8.05248
8.04642
8.03967
8.03658
8.03325
8.03174
8.03016
8.02945
8.02872
8.02839
8.02804
8.02788
8.0277
8.02757
8.02753
8.02749
8.02748
8.02746
8.02745
8.02745
8.02744
8.02744
8.02744
8.02744
8.02744
8.02744
8.02745
8.02746
8.02747
8.02749
8.02751
8.02755
8.02758
8.02764
8.0277
8.02783
8.02795
8.0282
8.02842
8.0289
8.02932
8.03022
8.03103
8.03274
8.0343
8.03764
8.04077
8.04764
8.05451
8.07025
8.08811
8.13238
8.19526
8.36692
8.62606
8.83737
9.26561
9.6309
10.3499
10.5976
10.6622
10.6778
10.6814
12.2089
10.8792
10.1314
9.44512
9.10692
8.79711
8.63489
8.46823
8.37791
8.28209
8.2324
8.18348
8.15486
8.12026
8.10063
8.07872
8.06688
8.05447
8.04798
8.04149
8.03817
8.03496
8.03335
8.03182
8.03106
8.03035
8.03
8.02967
8.02949
8.02931
8.02919
8.02914
8.0291
8.02909
8.02907
8.02907
8.02906
8.02905
8.02905
8.02905
8.02905
8.02905
8.02905
8.02906
8.02907
8.02908
8.02911
8.02913
8.02916
8.0292
8.02925
8.02932
8.02944
8.02956
8.02981
8.03005
8.03051
8.03096
8.03183
8.0327
8.03435
8.03602
8.03926
8.04263
8.04931
8.05673
8.07219
8.09165
8.13599
8.20475
8.37477
8.62597
8.85299
9.26558
9.6531
10.3201
10.5836
10.6587
10.6778
10.6821
12.1587
10.8992
10.1352
9.45859
9.10908
8.80311
8.63554
8.4716
8.37843
8.2844
8.23314
8.18488
8.15536
8.1215
8.1013
8.07983
8.06763
8.05546
8.04877
8.04239
8.03897
8.03582
8.03415
8.03265
8.03187
8.03117
8.0308
8.03048
8.0303
8.03012
8.03
8.02995
8.02991
8.0299
8.02988
8.02987
8.02987
8.02986
8.02986
8.02986
8.02985
8.02986
8.02986
8.02987
8.02988
8.02989
8.02991
8.02993
8.02997
8.03
8.03006
8.03012
8.03025
8.03038
8.03061
8.03086
8.03131
8.03178
8.03264
8.03353
8.03516
8.03689
8.04007
8.04356
8.05016
8.05784
8.07318
8.0934
8.13785
8.20942
8.37864
8.62614
8.86051
9.26591
9.66351
10.3058
10.5765
10.6569
10.6777
10.6825
-11.4725
-10.2168
-9.41542
-8.6327
-8.20455
-7.79737
-7.56927
-7.34214
-7.21432
-7.08785
-7.02017
-6.95829
-6.92136
-6.88015
-6.856
-6.8309
-6.81688
-6.80321
-6.79584
-6.78901
-6.78544
-6.78226
-6.78065
-6.77926
-6.77858
-6.77802
-6.77774
-6.77753
-6.77743
-6.77736
-6.77733
-6.77732
-6.77733
-6.77733
-6.77735
-6.77735
-6.77737
-6.77738
-6.77739
-6.7774
-6.77741
-6.77742
-6.77743
-6.77744
-6.77746
-6.77746
-6.77748
-6.77748
-6.77749
-6.7775
-6.77751
-6.77752
-6.77753
-6.77753
-6.77754
-6.77755
-6.77757
-6.77759
-6.77761
-6.77765
-6.77773
-6.77785
-6.77812
-6.77858
-6.77969
-6.7816
-6.78634
-6.795
-6.81731
-6.86145
-6.97422
-7.15513
-7.34681
-7.70275
-8.07938
-8.71356
-8.98181
-9.06149
-9.08213
-9.0869
-11.5222
-10.1979
-9.41393
-8.61764
-8.20274
-7.78912
-7.56806
-7.3369
-7.21294
-7.0841
-7.01849
-6.95581
-6.92
-6.8779
-6.85445
-6.82884
-6.81523
-6.8013
-6.79416
-6.78721
-6.78374
-6.78051
-6.77895
-6.77755
-6.77688
-6.77631
-6.77605
-6.77583
-6.77574
-6.77566
-6.77563
-6.77563
-6.77563
-6.77564
-6.77565
-6.77566
-6.77567
-6.77568
-6.77569
-6.7757
-6.77572
-6.77572
-6.77574
-6.77575
-6.77576
-6.77577
-6.77578
-6.77579
-6.7758
-6.7758
-6.77581
-6.77582
-6.77583
-6.77584
-6.77585
-6.77586
-6.77587
-6.77589
-6.77592
-6.77595
-6.77603
-6.77614
-6.77642
-6.77686
-6.77796
-6.77979
-6.78449
-6.79276
-6.81475
-6.85702
-6.96983
-7.15305
-7.33861
-7.70031
-8.06749
-8.72663
-8.9878
-9.06231
-9.08122
-9.08554
-11.6244
-10.1568
-9.41219
-8.58644
-8.1999
-7.77208
-7.56609
-7.32612
-7.21043
-7.07642
-7.01525
-6.95076
-6.91739
-6.87336
-6.8514
-6.82469
-6.81196
-6.79748
-6.7908
-6.78359
-6.78036
-6.77702
-6.77555
-6.77411
-6.77349
-6.7729
-6.77265
-6.77243
-6.77234
-6.77227
-6.77224
-6.77223
-6.77224
-6.77225
-6.77226
-6.77227
-6.77228
-6.77229
-6.7723
-6.77231
-6.77232
-6.77233
-6.77235
-6.77235
-6.77237
-6.77238
-6.77239
-6.7724
-6.77241
-6.77241
-6.77242
-6.77243
-6.77244
-6.77244
-6.77246
-6.77247
-6.77248
-6.7725
-6.77252
-6.77256
-6.77263
-6.77274
-6.77301
-6.77341
-6.77451
-6.77617
-6.7808
-6.78828
-6.80969
-6.84809
-6.96095
-7.14924
-7.32174
-7.69606
-8.04234
-8.75407
-8.99971
-9.0638
-9.07934
-9.08283
-11.7847
-10.0862
-9.41295
-8.53678
-8.19775
-7.74507
-7.56431
-7.30909
-7.20733
-7.06443
-7.01071
-6.94298
-6.91368
-6.86637
-6.84696
-6.81837
-6.80714
-6.79169
-6.78581
-6.77815
-6.7753
-6.77176
-6.77048
-6.76895
-6.7684
-6.76778
-6.76757
-6.76734
-6.76726
-6.76718
-6.76715
-6.76715
-6.76716
-6.76716
-6.76717
-6.76718
-6.7672
-6.7672
-6.76722
-6.76723
-6.76724
-6.76725
-6.76726
-6.76727
-6.76728
-6.76729
-6.7673
-6.76731
-6.76732
-6.76733
-6.76734
-6.76734
-6.76735
-6.76736
-6.76737
-6.76738
-6.7674
-6.76741
-6.76744
-6.76747
-6.76755
-6.76764
-6.76791
-6.76825
-6.76934
-6.77075
-6.77531
-6.78156
-6.80227
-6.83451
-6.9474
-7.14442
-7.29517
-7.69132
-8.00098
-8.79859
-9.01733
-9.0657
-9.07641
-9.07871
-12.0124
-9.97384
-9.42109
-8.46476
-8.19917
-7.7061
-7.56436
-7.28467
-7.20456
-7.04748
-7.0053
-6.93217
-6.90918
-6.85671
-6.84131
-6.80974
-6.80086
-6.78388
-6.77924
-6.77084
-6.7686
-6.76474
-6.76373
-6.76207
-6.76164
-6.76097
-6.7608
-6.76055
-6.76049
-6.7604
-6.76038
-6.76038
-6.76039
-6.76039
-6.7604
-6.76041
-6.76043
-6.76043
-6.76045
-6.76045
-6.76047
-6.76048
-6.76049
-6.7605
-6.76051
-6.76052
-6.76053
-6.76054
-6.76055
-6.76056
-6.76057
-6.76057
-6.76058
-6.76059
-6.7606
-6.76061
-6.76063
-6.76064
-6.76067
-6.76069
-6.76077
-6.76084
-6.76112
-6.76137
-6.76247
-6.76351
-6.76807
-6.77258
-6.7927
-6.81603
-6.92883
-7.13981
-7.25716
-7.68845
-7.93853
-8.86472
-9.04023
-9.06757
-9.07227
-9.07316
-12.3212
-9.80141
-9.44465
-8.36422
-8.20875
-7.65198
-7.56877
-7.251
-7.20356
-7.02453
-6.99969
-6.91788
-6.90436
-6.84402
-6.83474
-6.7986
-6.79329
-6.77393
-6.77117
-6.76164
-6.76031
-6.75593
-6.75534
-6.75346
-6.75321
-6.75245
-6.75235
-6.75207
-6.75204
-6.75195
-6.75192
-6.75192
-6.75193
-6.75194
-6.75196
-6.75196
-6.75198
-6.75198
-6.752
-6.752
-6.75202
-6.75203
-6.75204
-6.75205
-6.75206
-6.75207
-6.75208
-6.75209
-6.7521
-6.75211
-6.75212
-6.75212
-6.75213
-6.75214
-6.75215
-6.75216
-6.75218
-6.75218
-6.75222
-6.75223
-6.75232
-6.75235
-6.75265
-6.75278
-6.75393
-6.75445
-6.75915
-6.7613
-6.78134
-6.7923
-6.90468
-7.13732
-7.20498
-7.69124
-7.84746
-8.95933
-9.06753
-9.06881
-9.06676
-9.06611
-12.7303
-9.54179
-9.49644
-8.22578
-8.23344
-7.57781
-7.58144
-7.20524
-7.20653
-6.99401
-6.99495
-6.89938
-6.89992
-6.82773
-6.82769
-6.78463
-6.78467
-6.76169
-6.76173
-6.75044
-6.75048
-6.74531
-6.74533
-6.74312
-6.74313
-6.74224
-6.74224
-6.74191
-6.74192
-6.74181
-6.74179
-6.74179
-6.74181
-6.74181
-6.74183
-6.74183
-6.74185
-6.74185
-6.74187
-6.74187
-6.7419
-6.7419
-6.74192
-6.74192
-6.74194
-6.74194
-6.74196
-6.74196
-6.74198
-6.74198
-6.74199
-6.74199
-6.74201
-6.74201
-6.74203
-6.74203
-6.74205
-6.74205
-6.74209
-6.74209
-6.74219
-6.74218
-6.74251
-6.74247
-6.74374
-6.74355
-6.74866
-6.74762
-6.76867
-6.76284
-6.87407
-7.13981
-7.13443
-7.70565
-7.71659
-9.09256
-9.09757
-9.06867
-9.05966
-9.0575
-13.2666
-9.15576
-9.59656
-8.03529
-8.28375
-7.47615
-7.60817
-7.1431
-7.21677
-6.95354
-6.99265
-6.87555
-6.8969
-6.807
-6.82079
-6.76732
-6.77536
-6.74688
-6.75111
-6.73714
-6.73919
-6.73281
-6.73374
-6.73101
-6.7314
-6.73031
-6.73047
-6.73006
-6.73012
-6.72999
-6.72998
-6.72998
-6.73
-6.73
-6.73003
-6.73002
-6.73005
-6.73004
-6.73007
-6.73007
-6.73009
-6.73009
-6.73012
-6.73011
-6.73014
-6.73013
-6.73016
-6.73015
-6.73017
-6.73017
-6.73019
-6.73018
-6.7302
-6.7302
-6.73022
-6.73022
-6.73025
-6.73024
-6.73029
-6.73027
-6.73038
-6.73031
-6.73071
-6.73043
-6.73193
-6.73076
-6.73674
-6.73139
-6.7554
-6.72703
-6.83562
-7.15152
-7.0392
-7.74089
-7.52953
-9.2791
-9.12744
-9.0662
-9.05074
-9.04726
-13.9669
-8.58696
-9.7761
-7.77145
-8.37538
-7.33574
-7.65768
-7.05808
-7.23919
-6.89953
-6.99517
-6.84466
-6.89683
-6.78053
-6.81502
-6.74592
-6.76588
-6.72909
-6.73954
-6.7215
-6.72656
-6.71832
-6.7206
-6.71708
-6.71804
-6.71663
-6.71701
-6.71649
-6.71663
-6.71646
-6.71647
-6.71647
-6.7165
-6.71649
-6.71652
-6.71651
-6.71655
-6.71653
-6.71657
-6.71655
-6.71659
-6.71658
-6.71661
-6.7166
-6.71663
-6.71662
-6.71665
-6.71664
-6.71667
-6.71666
-6.71668
-6.71667
-6.7167
-6.71669
-6.71672
-6.7167
-6.71674
-6.71672
-6.71678
-6.71674
-6.71689
-6.71673
-6.71723
-6.71662
-6.71852
-6.71598
-6.72357
-6.71228
-6.74254
-6.68405
-6.7872
-7.17872
-6.90976
-7.81106
-7.26243
-9.54014
-9.15214
-9.06034
-9.03979
-9.03532
-14.8821
-7.75464
-10.0828
-7.40228
-8.53191
-7.13969
-7.74298
-6.9405
-7.2812
-6.82665
-7.00616
-6.80415
-6.90203
-6.74645
-6.81184
-6.71932
-6.75708
-6.70776
-6.72749
-6.70328
-6.71281
-6.70174
-6.70603
-6.70129
-6.70311
-6.7012
-6.70192
-6.70122
-6.70147
-6.70126
-6.70127
-6.70129
-6.70132
-6.7013
-6.70134
-6.70132
-6.70137
-6.70134
-6.70139
-6.70136
-6.70141
-6.70139
-6.70143
-6.70141
-6.70145
-6.70143
-6.70147
-6.70145
-6.70149
-6.70147
-6.7015
-6.70148
-6.70152
-6.7015
-6.70154
-6.70151
-6.70156
-6.70153
-6.70161
-6.70152
-6.70173
-6.70144
-6.70212
-6.70102
-6.70361
-6.69912
-6.70948
-6.68983
-6.73156
-6.63292
-6.72559
-7.23073
-6.73188
-7.93765
-6.88068
-9.9063
-9.16346
-9.0501
-9.02667
-9.02167
14.8863
7.75931
10.0878
7.40566
8.53634
7.14175
7.74621
6.94161
7.28323
6.82732
7.00737
6.80476
6.90294
6.74689
6.81249
6.71967
6.75756
6.70804
6.72786
6.70352
6.71311
6.70195
6.70629
6.70149
6.70333
6.70138
6.70212
6.70138
6.70166
6.7014
6.70138
6.70142
6.70141
6.70142
6.70142
6.70142
6.70143
6.70142
6.70143
6.70143
6.70144
6.70143
6.70145
6.70144
6.70145
6.70145
6.70146
6.70145
6.70146
6.70146
6.70147
6.70146
6.70147
6.70146
6.70148
6.70147
6.70149
6.70147
6.70152
6.70145
6.70162
6.70135
6.70199
6.70093
6.70346
6.69902
6.70927
6.68973
6.73119
6.63292
6.72508
7.22888
6.73107
7.93462
6.87908
9.90129
9.15931
9.04606
9.02266
9.01772
13.9711
8.59158
9.7809
7.77504
8.37951
7.3381
7.66065
7.05946
7.24106
6.90038
6.99631
6.84534
6.89767
6.78103
6.81562
6.7463
6.76633
6.72939
6.7399
6.72176
6.72685
6.71855
6.72085
6.71728
6.71826
6.71681
6.71721
6.71666
6.71681
6.71661
6.71658
6.7166
6.7166
6.7166
6.7166
6.7166
6.71661
6.71661
6.71662
6.71661
6.71662
6.71662
6.71663
6.71662
6.71663
6.71663
6.71664
6.71663
6.71664
6.71664
6.71665
6.71664
6.71665
6.71665
6.71666
6.71665
6.71667
6.71666
6.7167
6.71666
6.71678
6.71663
6.7171
6.71651
6.71837
6.71586
6.72336
6.71214
6.7422
6.68391
6.7866
7.17706
6.90866
7.80829
7.26041
9.53555
9.148
9.05631
9.03575
9.03134
13.2709
9.16035
9.60121
8.039
8.28767
7.4787
7.61097
7.14467
7.21853
6.95452
6.99374
6.87629
6.89771
6.80754
6.82138
6.76773
6.7758
6.7472
6.75145
6.73741
6.73948
6.73304
6.73398
6.73122
6.73162
6.7305
6.73066
6.73023
6.73029
6.73014
6.7301
6.73011
6.73011
6.73011
6.73011
6.73011
6.73012
6.73012
6.73012
6.73012
6.73013
6.73013
6.73013
6.73013
6.73014
6.73014
6.73014
6.73014
6.73015
6.73015
6.73015
6.73015
6.73016
6.73016
6.73017
6.73016
6.73018
6.73017
6.7302
6.73018
6.73028
6.73022
6.73059
6.73031
6.73178
6.73062
6.73654
6.73122
6.75508
6.7268
6.83494
7.14998
7.0379
7.73829
7.52722
9.27481
9.12333
9.06217
9.04669
9.04324
12.7347
9.54633
9.50098
8.22958
8.23723
7.5805
7.58413
7.20695
7.20824
6.99508
6.99602
6.90017
6.90071
6.8283
6.82826
6.78507
6.7851
6.76203
6.76208
6.75073
6.75076
6.74556
6.74558
6.74334
6.74335
6.74244
6.74244
6.74209
6.7421
6.74197
6.74192
6.74192
6.74192
6.74192
6.74192
6.74192
6.74193
6.74193
6.74194
6.74194
6.74194
6.74194
6.74195
6.74195
6.74195
6.74195
6.74196
6.74196
6.74196
6.74196
6.74197
6.74197
6.74197
6.74197
6.74198
6.74198
6.74199
6.74199
6.74201
6.74201
6.7421
6.74209
6.7424
6.74236
6.7436
6.74341
6.74847
6.74743
6.76835
6.76254
6.87334
7.13836
7.13299
7.70317
7.71409
9.0885
9.09351
9.06466
9.05562
9.05347
12.3256
9.80591
9.4491
8.36807
8.21245
7.65476
7.57139
7.25279
7.20523
7.02566
7.00075
6.9187
6.90513
6.84461
6.83531
6.79905
6.79372
6.77429
6.77151
6.76193
6.7606
6.75619
6.75559
6.75368
6.75343
6.75266
6.75255
6.75226
6.75222
6.7521
6.75206
6.75205
6.75205
6.75205
6.75205
6.75205
6.75206
6.75206
6.75206
6.75206
6.75207
6.75207
6.75207
6.75207
6.75208
6.75208
6.75208
6.75209
6.75209
6.75209
6.75209
6.75209
6.7521
6.7521
6.75211
6.75211
6.75212
6.75212
6.75214
6.75215
6.75223
6.75226
6.75254
6.75267
6.75379
6.75431
6.75896
6.76109
6.78102
6.79193
6.90391
7.13592
7.20344
7.68882
7.84483
8.95543
9.06351
9.06482
9.06273
9.06207
12.0168
9.97831
9.42548
8.46863
8.2028
7.70894
7.56692
7.28652
7.2062
7.04865
7.00635
6.93301
6.90994
6.85731
6.84187
6.8102
6.80128
6.78424
6.77958
6.77114
6.76889
6.76499
6.76398
6.76229
6.76186
6.76117
6.76099
6.76073
6.76066
6.76056
6.76051
6.7605
6.7605
6.7605
6.7605
6.7605
6.7605
6.76051
6.76051
6.76051
6.76052
6.76052
6.76052
6.76052
6.76053
6.76053
6.76053
6.76053
6.76054
6.76054
6.76054
6.76054
6.76055
6.76055
6.76055
6.76056
6.76056
6.76057
6.76059
6.76061
6.76068
6.76074
6.76101
6.76125
6.76233
6.76336
6.76787
6.77236
6.79237
6.81561
6.92803
7.13844
7.25555
7.68607
7.93581
8.86093
9.03624
9.06357
9.06826
9.06912
11.7891
10.0906
9.4173
8.54067
8.20133
7.74795
7.56684
7.31099
7.20895
7.06564
7.01176
6.94382
6.91443
6.86698
6.84751
6.81883
6.80756
6.79205
6.78614
6.77844
6.77558
6.77201
6.77072
6.76917
6.76862
6.76798
6.76776
6.76751
6.76743
6.76733
6.76728
6.76727
6.76727
6.76727
6.76727
6.76727
6.76727
6.76727
6.76728
6.76728
6.76728
6.76728
6.76729
6.76729
6.76729
6.7673
6.7673
6.7673
6.7673
6.76731
6.76731
6.76731
6.76731
6.76732
6.76732
6.76732
6.76733
6.76734
6.76736
6.76738
6.76745
6.76753
6.7678
6.76813
6.76919
6.77059
6.77511
6.78133
6.80193
6.83405
6.94658
7.14306
7.2935
7.68896
7.9982
8.79488
9.01337
9.06169
9.0724
9.07467
11.6288
10.1613
9.41652
8.59033
8.20345
7.77499
7.5686
7.32804
7.21205
7.07765
7.0163
6.95161
6.91814
6.87397
6.85195
6.82515
6.81238
6.79784
6.79113
6.78389
6.78063
6.77727
6.77579
6.77433
6.7737
6.7731
6.77284
6.77261
6.77251
6.77242
6.77237
6.77235
6.77235
6.77235
6.77235
6.77235
6.77235
6.77236
6.77236
6.77236
6.77236
6.77237
6.77237
6.77237
6.77238
6.77238
6.77238
6.77238
6.77239
6.77239
6.77239
6.77239
6.7724
6.7724
6.7724
6.77241
6.77241
6.77242
6.77244
6.77247
6.77254
6.77263
6.7729
6.77329
6.77436
6.77601
6.7806
6.78804
6.80934
6.84761
6.96011
7.1479
7.32004
7.69371
8.03951
8.75041
8.99576
9.05978
9.07533
9.07878
11.5267
10.2024
9.41825
8.62154
8.20627
7.79205
7.57056
7.33885
7.21455
7.08534
7.01954
6.95667
6.92075
6.87853
6.855
6.82931
6.81565
6.80167
6.79449
6.7875
6.78402
6.78077
6.77919
6.77777
6.77709
6.77651
6.77624
6.77601
6.7759
6.77581
6.77576
6.77575
6.77574
6.77574
6.77574
6.77574
6.77575
6.77575
6.77575
6.77575
6.77576
6.77576
6.77576
6.77576
6.77577
6.77577
6.77577
6.77578
6.77578
6.77578
6.77578
6.77578
6.77579
6.77579
6.77579
6.7758
6.77581
6.77582
6.77584
6.77586
6.77593
6.77604
6.7763
6.77673
6.77781
6.77963
6.78429
6.79251
6.8144
6.85652
6.96897
7.15172
7.33689
7.69797
8.06464
8.72301
8.98386
9.05827
9.07721
9.0815
11.477
10.2212
9.41974
8.63661
8.20808
7.80031
7.57177
7.34409
7.21594
7.0891
7.02121
6.95916
6.92211
6.88077
6.85655
6.83137
6.81729
6.80357
6.79617
6.78931
6.78571
6.78252
6.78089
6.77949
6.77879
6.77822
6.77794
6.77771
6.7776
6.77751
6.77746
6.77745
6.77744
6.77744
6.77744
6.77744
6.77744
6.77745
6.77745
6.77745
6.77745
6.77746
6.77746
6.77746
6.77747
6.77747
6.77747
6.77747
6.77748
6.77748
6.77748
6.77748
6.77749
6.77749
6.77749
6.7775
6.7775
6.77751
6.77753
6.77756
6.77763
6.77774
6.77801
6.77845
6.77954
6.78143
6.78614
6.79475
6.81696
6.86094
6.97336
7.1538
7.34508
7.70041
8.07652
8.70995
8.97788
9.05744
9.07812
9.08285
-12.1543
-10.8951
-10.1315
-9.45601
-9.10798
-8.805
-8.64099
-8.48408
-8.39898
-8.31846
-8.26796
-8.20819
-8.17154
-8.13121
-8.10772
-8.08348
-8.06989
-8.05655
-8.04927
-8.0424
-8.03873
-8.03538
-8.03362
-8.03205
-8.03124
-8.03052
-8.03016
-8.02984
-8.02967
-8.02952
-8.02943
-8.02939
-8.02938
-8.02938
-8.02938
-8.02939
-8.0294
-8.02941
-8.02942
-8.02943
-8.02945
-8.02946
-8.02948
-8.0295
-8.02953
-8.02956
-8.0296
-8.02963
-8.02968
-8.02973
-8.02979
-8.02987
-8.03001
-8.03015
-8.0304
-8.03066
-8.03113
-8.03162
-8.03249
-8.0334
-8.03506
-8.0368
-8.04003
-8.04354
-8.05019
-8.05792
-8.07336
-8.09368
-8.13831
-8.21011
-8.37982
-8.62794
-8.86276
-9.2688
-9.6669
-10.3099
-10.5809
-10.6613
-10.6821
-10.687
-12.2046
-10.875
-10.1277
-9.44254
-9.10576
-8.79898
-8.64021
-8.48069
-8.39826
-8.31668
-8.26773
-8.20663
-8.17103
-8.12984
-8.10703
-8.08232
-8.06913
-8.05554
-8.04848
-8.04148
-8.03793
-8.03452
-8.03282
-8.03122
-8.03043
-8.0297
-8.02935
-8.02903
-8.02887
-8.02871
-8.02862
-8.02859
-8.02857
-8.02857
-8.02858
-8.02858
-8.02859
-8.0286
-8.02861
-8.02863
-8.02864
-8.02866
-8.02868
-8.0287
-8.02873
-8.02875
-8.02879
-8.02882
-8.02888
-8.02892
-8.02899
-8.02906
-8.0292
-8.02934
-8.0296
-8.02985
-8.03033
-8.0308
-8.03169
-8.03257
-8.03425
-8.03594
-8.03921
-8.04261
-8.04935
-8.05682
-8.07237
-8.09192
-8.13645
-8.20543
-8.37595
-8.62777
-8.85523
-9.26848
-9.65649
-10.3242
-10.5879
-10.6632
-10.6822
-10.6866
-12.3079
-10.8314
-10.1211
-9.41476
-9.10192
-8.78658
-8.63898
-8.47369
-8.39695
-8.31302
-8.26739
-8.20342
-8.17008
-8.12706
-8.10572
-8.07997
-8.06764
-8.0535
-8.04691
-8.03965
-8.03633
-8.0328
-8.03121
-8.02955
-8.02882
-8.02807
-8.02774
-8.02741
-8.02726
-8.0271
-8.027
-8.02697
-8.02696
-8.02696
-8.02696
-8.02697
-8.02698
-8.02699
-8.027
-8.02701
-8.02703
-8.02704
-8.02707
-8.02708
-8.02711
-8.02714
-8.02718
-8.02721
-8.02727
-8.02731
-8.02738
-8.02744
-8.02759
-8.02772
-8.02799
-8.02822
-8.02872
-8.02916
-8.03008
-8.0309
-8.03264
-8.03421
-8.03759
-8.04075
-8.04768
-8.0546
-8.07043
-8.08837
-8.13283
-8.19592
-8.36809
-8.62787
-8.8396
-9.26852
-9.63427
-10.354
-10.602
-10.6666
-10.6823
-10.6858
-12.4701
-10.757
-10.114
-9.37086
-9.09777
-8.767
-8.63797
-8.46262
-8.39538
-8.30726
-8.26719
-8.19835
-8.16887
-8.12271
-8.10387
-8.07634
-8.06547
-8.0504
-8.0446
-8.03687
-8.03396
-8.0302
-8.02881
-8.02706
-8.02641
-8.02562
-8.02533
-8.02497
-8.02484
-8.02468
-8.02458
-8.02456
-8.02455
-8.02454
-8.02455
-8.02455
-8.02457
-8.02457
-8.02459
-8.0246
-8.02462
-8.02463
-8.02465
-8.02467
-8.0247
-8.02472
-8.02477
-8.02479
-8.02486
-8.02489
-8.02496
-8.02502
-8.02518
-8.02529
-8.02557
-8.02578
-8.02631
-8.02669
-8.02767
-8.02839
-8.03023
-8.03161
-8.03518
-8.03794
-8.04522
-8.05122
-8.06762
-8.08298
-8.12769
-8.18129
-8.35599
-8.6292
-8.81461
-9.27045
-9.59728
-10.4022
-10.6228
-10.6715
-10.6823
-10.6847
-12.7008
-10.6395
-10.1107
-9.30778
-9.0955
-8.7389
-8.63832
-8.44671
-8.39411
-8.299
-8.26754
-8.19107
-8.16767
-8.11659
-8.10167
-8.07131
-8.06273
-8.04617
-8.04159
-8.03313
-8.03083
-8.02673
-8.02563
-8.02372
-8.02321
-8.02235
-8.02212
-8.02174
-8.02163
-8.02145
-8.02136
-8.02134
-8.02133
-8.02133
-8.02134
-8.02134
-8.02135
-8.02136
-8.02138
-8.02138
-8.02141
-8.02141
-8.02144
-8.02145
-8.02149
-8.02151
-8.02156
-8.02158
-8.02164
-8.02167
-8.02175
-8.0218
-8.02197
-8.02205
-8.02237
-8.02253
-8.02311
-8.02341
-8.02448
-8.02504
-8.02705
-8.02813
-8.03201
-8.03416
-8.04201
-8.04664
-8.06406
-8.07564
-8.12142
-8.16105
-8.33923
-8.63335
-8.77812
-9.27691
-9.54055
-10.4732
-10.6498
-10.6774
-10.6821
-10.683
-13.0138
-10.4605
-10.118
-9.22069
-9.09859
-8.7001
-8.64184
-8.42472
-8.39401
-8.28763
-8.26912
-8.18105
-8.16694
-8.10833
-8.09938
-8.06469
-8.05956
-8.04069
-8.03797
-8.02836
-8.027
-8.02234
-8.0217
-8.01953
-8.01923
-8.01826
-8.01812
-8.01769
-8.01763
-8.01743
-8.01734
-8.01733
-8.01732
-8.01732
-8.01733
-8.01733
-8.01735
-8.01735
-8.01737
-8.01737
-8.0174
-8.0174
-8.01743
-8.01744
-8.01748
-8.01749
-8.01755
-8.01756
-8.01764
-8.01766
-8.01775
-8.01777
-8.01796
-8.01802
-8.01837
-8.01847
-8.01912
-8.0193
-8.02051
-8.02084
-8.02311
-8.02374
-8.02811
-8.02936
-8.03814
-8.04077
-8.05995
-8.06614
-8.11464
-8.13451
-8.31709
-8.64279
-8.72681
-9.29214
-9.45645
-10.5738
-10.6823
-10.6836
-10.6815
-10.6808
-13.4289
-10.1927
-10.1473
-9.1022
-9.11234
-8.64722
-8.65125
-8.39475
-8.3964
-8.27218
-8.27289
-8.16743
-8.16734
-8.0974
-8.09743
-8.05616
-8.05622
-8.03382
-8.03387
-8.02248
-8.02252
-8.01702
-8.01704
-8.01449
-8.0145
-8.01334
-8.01335
-8.01284
-8.01285
-8.01262
-8.01252
-8.01253
-8.01252
-8.01252
-8.01253
-8.01253
-8.01255
-8.01255
-8.01257
-8.01257
-8.0126
-8.0126
-8.01264
-8.01264
-8.01269
-8.01269
-8.01275
-8.01275
-8.01285
-8.01285
-8.01295
-8.01295
-8.01317
-8.01317
-8.01359
-8.01359
-8.01436
-8.01435
-8.01578
-8.01577
-8.01845
-8.01841
-8.02355
-8.02346
-8.03374
-8.03344
-8.05559
-8.05418
-8.10823
-8.10071
-8.2885
-8.66121
-8.65557
-9.32279
-9.33362
-10.7142
-10.7186
-10.6894
-10.6803
-10.6781
-13.9734
-9.79713
-10.2162
-8.9411
-9.14469
-8.57511
-8.6706
-8.35394
-8.40331
-8.25116
-8.28035
-8.14897
-8.16991
-8.08298
-8.09644
-8.04523
-8.05303
-8.02529
-8.02947
-8.01538
-8.01748
-8.01069
-8.0117
-8.00855
-8.00902
-8.00759
-8.00781
-8.00718
-8.00728
-8.007
-8.00691
-8.00693
-8.00692
-8.00692
-8.00694
-8.00693
-8.00696
-8.00695
-8.00698
-8.00697
-8.00701
-8.007
-8.00705
-8.00704
-8.0071
-8.00708
-8.00717
-8.00715
-8.00726
-8.00724
-8.00737
-8.00732
-8.0076
-8.00752
-8.00804
-8.00789
-8.00884
-8.00856
-8.01032
-8.0098
-8.0131
-8.01209
-8.01841
-8.01637
-8.02897
-8.02443
-8.05139
-8.03922
-8.10352
-8.05832
-8.25179
-8.69409
-8.55673
-9.37907
-9.15538
-10.9091
-10.7556
-10.6938
-10.6782
-10.6747
-14.685
-9.21742
-10.3527
-8.72043
-9.20756
-8.47591
-8.70598
-8.29795
-8.41775
-8.2223
-8.29366
-8.12377
-8.17615
-8.06385
-8.09734
-8.03121
-8.05054
-8.01471
-8.02503
-8.00684
-8.01202
-8.00325
-8.00574
-8.00167
-8.00281
-8.00098
-8.0015
-8.00069
-8.00092
-8.00058
-8.00049
-8.00054
-8.00052
-8.00053
-8.00054
-8.00053
-8.00057
-8.00055
-8.00059
-8.00057
-8.00062
-8.0006
-8.00066
-8.00063
-8.00071
-8.00068
-8.00079
-8.00074
-8.00089
-8.00083
-8.00099
-8.00089
-8.00125
-8.00105
-8.00171
-8.00134
-8.00257
-8.00189
-8.00416
-8.00287
-8.00713
-8.00467
-8.01281
-8.00789
-8.0241
-8.01337
-8.04797
-8.02042
-8.10242
-8.00561
-8.20438
-8.74948
-8.41882
-9.47658
-8.8974
-11.1797
-10.7884
-10.6958
-10.6751
-10.6706
-15.6154
-8.37325
-10.5997
-8.41453
-9.31881
-8.33777
-8.76643
-8.2203
-8.4443
-8.1822
-8.31607
-8.08903
-8.18838
-8.03818
-8.10156
-8.01302
-8.04953
-8.00152
-8.02098
-7.99658
-8.00636
-7.99458
-7.99926
-7.99379
-7.99595
-7.99349
-7.99446
-7.99337
-7.99381
-7.99336
-7.99328
-7.99336
-7.99334
-7.99334
-7.99337
-7.99335
-7.99339
-7.99337
-7.99342
-7.99339
-7.99345
-7.99341
-7.99349
-7.99344
-7.99355
-7.99348
-7.99362
-7.99353
-7.99373
-7.99362
-7.99384
-7.99364
-7.99412
-7.99375
-7.99464
-7.99395
-7.99559
-7.99431
-7.99735
-7.99494
-8.00064
-7.99604
-8.00696
-7.99778
-8.01953
-7.99972
-8.04626
-7.99645
-8.10772
-7.9403
-8.14239
-8.83924
-8.22469
-9.63897
-8.52434
-11.5568
-10.8087
-10.6944
-10.6708
-10.6657
)
;

boundaryField
{
    F1_1
    {
        type            calculated;
        value           nonuniform List<scalar> 
80
(
16.1472
7.87765
10.7632
8.23789
9.39557
8.25223
8.81119
8.15556
8.47222
8.08198
8.25595
8.07267
8.17296
8.02512
8.09538
8.00381
8.04596
7.9951
8.01807
7.99183
8.00353
7.99069
7.99637
7.99032
7.99299
7.99019
7.99143
7.99013
7.99073
7.99016
7.99001
7.99016
7.99005
7.99011
7.99005
7.99008
7.99005
7.99006
7.99004
7.99005
7.99005
7.99004
7.99006
7.99004
7.99009
7.99004
7.99014
7.99006
7.99022
7.99011
7.99032
7.9901
7.99059
7.99015
7.99111
7.99027
7.99208
7.99049
7.9939
7.99089
7.99735
7.99155
8.00399
7.99239
8.01727
7.99223
8.04571
7.98302
8.11178
7.90429
8.10636
8.8918
8.10983
9.73607
8.30171
11.7709
10.8098
10.6882
10.6639
10.6587
)
;
    }
    F1_2
    {
        type            calculated;
        value           nonuniform List<scalar> 
80
(
-15.4008
-7.26073
-10.2751
-7.18656
-8.62993
-7.02522
-7.79653
-6.87212
-7.30821
-6.7847
-7.01431
-6.78112
-6.90631
-6.72723
-6.81114
-6.70457
-6.75298
-6.69613
-6.72141
-6.69349
-6.70569
-6.69291
-6.69841
-6.69294
-6.69526
-6.69306
-6.69398
-6.69316
-6.69349
-6.69324
-6.69327
-6.69328
-6.69332
-6.6933
-6.69335
-6.69332
-6.69337
-6.69334
-6.69339
-6.69336
-6.69341
-6.69338
-6.69344
-6.6934
-6.69346
-6.69343
-6.69348
-6.69345
-6.69349
-6.69347
-6.6935
-6.69348
-6.69352
-6.69349
-6.69354
-6.69351
-6.69357
-6.69352
-6.69362
-6.6935
-6.69374
-6.69338
-6.69417
-6.69279
-6.69581
-6.69016
-6.70227
-6.67771
-6.72676
-6.60519
-6.69101
-7.26433
-6.6287
-8.0183
-6.65602
-10.1202
-9.16451
-9.04378
-9.01956
-9.01442
)
;
    }
    F1_3
    {
        type            calculated;
        value           nonuniform List<scalar> 
80
(
15.4049
7.26541
10.2802
7.18982
8.63453
7.0271
7.79992
6.87307
7.31034
6.78527
7.01557
6.78167
6.90725
6.72764
6.8118
6.70489
6.75347
6.6964
6.72179
6.69372
6.70599
6.69312
6.69867
6.69312
6.69548
6.69323
6.69418
6.69332
6.69368
6.69339
6.69337
6.69342
6.69341
6.69341
6.69342
6.69341
6.69343
6.69342
6.69343
6.69342
6.69344
6.69343
6.69344
6.69343
6.69345
6.69344
6.69345
6.69345
6.69346
6.69345
6.69346
6.69346
6.69347
6.69346
6.69348
6.69346
6.69349
6.69346
6.69352
6.69343
6.69363
6.69329
6.69404
6.69269
6.69564
6.69006
6.70204
6.67763
6.72637
6.60526
6.69055
7.26237
6.62806
8.0151