/*--------------------------------*- C++ -*----------------------------------*\
| =========                 |                                                 |
| \\      /  F ield         | OpenFOAM: The Open Source CFD Toolbox           |
|  \\    /   O peration     | Version:  5.x                                   |
|   \\  /    A nd           | Web:      www.OpenFOAM.org                      |
|    \\/     M anipulation  |                                                 |
\*---------------------------------------------------------------------------*/
FoamFile
{
    version     2.0;
    format      ascii;
    class       volScalarField;
    location    "0.3";
    object      gradTx;
}
// * * * * * * * * * * * * * * * * * * * * * * * * * * * * * * * * * * * * * //

dimensions      [0 -1 0 1 0 0 0];

internalField   nonuniform List<scalar> 
3200
(
47.7332
2.78241
1.08466
0.998267
0.481284
0.451347
0.265609
0.253494
0.155686
0.148551
0.0761866
0.0725023
0.0571372
0.0556356
0.0360168
0.0346114
0.0202567
0.0192975
0.0105483
0.00998475
0.00519645
0.00489528
0.00246116
0.00231073
0.00114196
0.00107051
0.00052959
0.000497655
0.00026922
0.000363444
0.000131764
5.10431e-05
4.61065e-05
2.31269e-05
2.17218e-05
1.24738e-05
1.18561e-05
6.54645e-06
6.11622e-06
1.19529e-06
7.04598e-07
-6.08597e-06
-6.82016e-06
-1.76006e-05
-1.87538e-05
-3.56612e-05
-3.73345e-05
-6.07904e-05
-6.26448e-05
-8.2194e-05
-8.72576e-05
-0.000187842
-0.000199129
-0.000368403
-0.000388531
-0.000698523
-0.000735966
-0.00131695
-0.00138812
-0.0024984
-0.00263787
-0.00483304
-0.00512289
-0.00975728
-0.0104297
-0.0214421
-0.0233241
-0.0548452
-0.062085
-0.182655
-0.503061
-0.369879
-0.629656
-0.662276
-1.23033
-1.20666
-0.0541318
-0.00729823
-0.00147671
-49.7157
50.1302
2.31789
1.05636
0.878857
0.463305
0.399206
0.249057
0.223086
0.144763
0.129595
0.0725546
0.0647155
0.0518749
0.0486491
0.0331948
0.0302242
0.0188749
0.0168439
0.00990843
0.00871369
0.00491133
0.00427222
0.00233678
0.00201733
0.00108696
0.000935186
0.000504539
0.000436897
0.000259125
0.000304809
0.000126389
5.21944e-05
4.11297e-05
2.21954e-05
1.91544e-05
1.17036e-05
1.03829e-05
6.13811e-06
5.22187e-06
1.30021e-06
2.57053e-07
-5.14304e-06
-6.70191e-06
-1.52599e-05
-1.77048e-05
-3.10917e-05
-3.46318e-05
-5.31268e-05
-5.71189e-05
-7.35285e-05
-8.43214e-05
-0.000163895
-0.000187869
-0.000322752
-0.000365584
-0.000612646
-0.000692345
-0.00115561
-0.00130719
-0.00219342
-0.00249083
-0.00424684
-0.00486648
-0.00859062
-0.010036
-0.0189707
-0.0230664
-0.0492228
-0.0654391
-0.175238
-0.422533
-0.353864
-0.55437
-0.621727
-1.05058
-1.00106
-0.11817
-0.0202545
-0.00424623
-51.8489
52.5155
1.91607
0.984815
0.769078
0.431333
0.350567
0.227593
0.194827
0.131369
0.112367
0.0669963
0.0571693
0.0462701
0.0421931
0.0299072
0.0262042
0.0171433
0.0146076
0.00905284
0.00755939
0.00450729
0.00370774
0.00215166
0.00175176
0.0010027
0.000812632
0.000465843
0.000381294
0.000240519
0.000255618
0.000117033
5.08869e-05
3.65164e-05
2.06489e-05
1.67797e-05
1.06953e-05
9.03203e-06
5.59811e-06
4.44846e-06
1.28818e-06
-1.86798e-08
-4.35919e-06
-6.30997e-06
-1.31744e-05
-1.623e-05
-2.69343e-05
-3.13507e-05
-4.6071e-05
-5.11258e-05
-6.51233e-05
-7.86742e-05
-0.000142247
-0.000172258
-0.000280924
-0.000334626
-0.000533716
-0.000633666
-0.00100719
-0.00119737
-0.00191281
-0.00228637
-0.0037076
-0.0044876
-0.00751794
-0.00934596
-0.0166986
-0.0219328
-0.0440102
-0.0650648
-0.162353
-0.35471
-0.32713
-0.48446
-0.566768
-0.890014
-0.828843
-0.150816
-0.0299354
-0.00651677
-53.983
54.8861
1.56651
0.884761
0.664274
0.389142
0.303668
0.202569
0.167844
0.116245
0.0962403
0.0600539
0.049702
0.0404294
0.0361014
0.0263065
0.0224262
0.0151714
0.0125104
0.00804733
0.00647824
0.00402008
0.00317935
0.00192386
0.00150309
0.000897821
0.000697753
0.000417464
0.000328594
0.000216074
0.000212977
0.000104957
4.7575e-05
3.20064e-05
1.86424e-05
1.45078e-05
9.51676e-06
7.75676e-06
4.96825e-06
3.75601e-06
1.20051e-06
-1.75367e-07
-3.67562e-06
-5.72723e-06
-1.12504e-05
-1.44599e-05
-2.30441e-05
-2.76752e-05
-3.94261e-05
-4.48013e-05
-5.67675e-05
-7.10637e-05
-0.000122007
-0.000153578
-0.000241417
-0.000297996
-0.000458973
-0.000564303
-0.000866502
-0.00106702
-0.00164659
-0.00204084
-0.00319531
-0.00402027
-0.00649584
-0.00843795
-0.0145161
-0.0201316
-0.0388492
-0.0616555
-0.145695
-0.295739
-0.293042
-0.417594
-0.502216
-0.744872
-0.681338
-0.161183
-0.0357183
-0.00806604
-56.1177
57.2416
1.25974
0.76635
0.561737
0.339418
0.257441
0.174934
0.141577
0.099899
0.0808015
0.0521111
0.042223
0.0344228
0.0302593
0.0224955
0.0188069
0.0130339
0.010501
0.00693714
0.0054419
0.00347433
0.00267254
0.00166585
0.00126433
0.000778277
0.000587286
0.000362154
0.000277401
0.000187611
0.000174869
9.10131e-05
4.26541e-05
2.74467e-05
1.62852e-05
1.22825e-05
8.21518e-06
6.5267e-06
4.27678e-06
3.11773e-06
1.06443e-06
-2.49152e-07
-3.05397e-06
-5.01072e-06
-9.42675e-06
-1.24843e-05
-1.93255e-05
-2.37306e-05
-3.30569e-05
-3.82361e-05
-4.83459e-05
-6.2021e-05
-0.000102597
-0.000132718
-0.000203264
-0.000257318
-0.000386644
-0.000487295
-0.000730218
-0.000921911
-0.0013884
-0.00176565
-0.00269733
-0.0034883
-0.0054972
-0.00736718
-0.0123563
-0.0178119
-0.0335341
-0.0558098
-0.126423
-0.242924
-0.253903
-0.352363
-0.43138
-0.612016
-0.552131
-0.15577
-0.0375893
-0.00877448
-58.2529
59.5827
0.987307
0.636469
0.459975
0.284127
0.211275
0.145368
0.115679
0.0826855
0.0657802
0.0434445
0.0346872
0.0282975
0.024587
0.0185437
0.015291
0.0107822
0.00854595
0.0057537
0.00443221
0.00288725
0.00217812
0.00138638
0.00103106
0.000648271
0.0004792
0.000301857
0.000226883
0.000156378
0.000139882
7.57877e-05
3.64652e-05
2.27584e-05
1.36582e-05
1.00704e-05
6.8239e-06
5.32255e-06
3.54299e-06
2.51556e-06
8.97778e-07
-2.65093e-07
-2.46957e-06
-4.20024e-06
-7.66407e-06
-1.03655e-05
-1.57157e-05
-1.96025e-05
-2.6871e-05
-3.14932e-05
-3.9805e-05
-5.19317e-05
-8.36523e-05
-0.0001103
-0.00016586
-0.00021374
-0.000315622
-0.000404795
-0.00059627
-0.00076617
-0.00113428
-0.00146894
-0.00220593
-0.00290882
-0.00450593
-0.00617399
-0.0101816
-0.0150864
-0.0279649
-0.0480422
-0.105337
-0.194367
-0.211296
-0.287943
-0.356513
-0.488813
-0.43641
-0.13924
-0.0358863
-0.00861785
-60.3884
61.9114
0.741651
0.49968
0.358243
0.224755
0.164864
0.114385
0.0899425
0.0648575
0.0510036
0.0342581
0.0270786
0.0220871
0.0190292
0.0144985
0.0118416
0.0084524
0.00662385
0.00451929
0.00343777
0.00227114
0.00169042
0.00109173
0.000800621
0.000510834
0.000372272
0.00023799
0.000176574
0.000123244
0.00010702
5.96869e-05
2.93018e-05
1.79135e-05
1.08248e-05
7.85329e-06
5.36742e-06
4.13235e-06
2.78025e-06
1.93727e-06
7.12136e-07
-2.40879e-07
-1.90684e-06
-3.32408e-06
-5.93726e-06
-8.14748e-06
-1.21736e-05
-1.53501e-05
-2.08051e-05
-2.4619e-05
-3.11309e-05
-4.10833e-05
-6.49486e-05
-8.67755e-05
-0.000128834
-0.000168093
-0.000245239
-0.000318367
-0.000463418
-0.000602796
-0.000881932
-0.00115666
-0.00171666
-0.00229457
-0.00351329
-0.00488918
-0.00797386
-0.0120461
-0.0221144
-0.0387957
-0.0830011
-0.148723
-0.166327
-0.223872
-0.279122
-0.373024
-0.330502
-0.114964
-0.0311407
-0.00765214
-62.5241
64.2299
0.515997
0.358922
0.256236
0.162469
0.118101
0.0823827
0.0642544
0.0466027
0.036364
0.0247073
0.0193997
0.0158164
0.0135466
0.0103926
0.00843399
0.00607013
0.00472108
0.00325011
0.00245165
0.00163504
0.00120609
0.000786578
0.00057147
0.000368227
0.000265816
0.000171623
0.000126243
8.88319e-05
7.55723e-05
4.29993e-05
2.14191e-05
1.29188e-05
7.83791e-06
5.6236e-06
3.86458e-06
2.94904e-06
1.99805e-06
1.37446e-06
5.15008e-07
-1.89343e-07
-1.35615e-06
-2.40297e-06
-4.23074e-06
-5.86212e-06
-8.67264e-06
-1.10152e-05
-1.48158e-05
-1.76494e-05
-2.23342e-05
-2.9698e-05
-4.63561e-05
-6.24811e-05
-9.19769e-05
-0.000121003
-0.000175117
-0.000229192
-0.000330974
-0.000434066
-0.000630086
-0.000833407
-0.00122729
-0.00165549
-0.00251552
-0.00353756
-0.00572898
-0.00876921
-0.0160045
-0.028456
-0.0598187
-0.105026
-0.119782
-0.159913
-0.200206
-0.262713
-0.23153
-0.0854272
-0.0239824
-0.0059964
-64.66
66.5409
0.304185
0.216024
0.153903
0.09823
0.0710117
0.0496941
0.0385635
0.0280676
0.0217964
0.0149157
0.0116641
0.00950531
0.00811091
0.00624915
0.00505155
0.00365441
0.00282911
0.00195845
0.00146974
0.000985908
0.000723279
0.00047454
0.000342801
0.00022222
0.00015949
0.000103601
7.58094e-05
5.36017e-05
4.50171e-05
2.59376e-05
1.30431e-05
7.80315e-06
4.74458e-06
3.38061e-06
2.33066e-06
1.76872e-06
1.20343e-06
8.21233e-07
3.1125e-07
-1.20173e-07
-8.11768e-07
-1.45268e-06
-2.53505e-06
-3.53338e-06
-5.19549e-06
-6.62822e-06
-8.87304e-06
-1.06149e-05
-1.34413e-05
-1.79551e-05
-2.78062e-05
-3.768e-05
-5.51784e-05
-7.29621e-05
-0.00010507
-0.000138203
-0.000198609
-0.000261788
-0.000378182
-0.000502834
-0.000736971
-0.000999708
-0.00151209
-0.00214028
-0.00345181
-0.00532687
-0.00968975
-0.0173656
-0.0360928
-0.0625633
-0.0722363
-0.0959619
-0.120416
-0.156164
-0.137167
-0.0525089
-0.0150866
-0.00381632
-66.796
68.8475
0.100502
0.0721071
0.0513297
0.0328658
0.0236971
0.0166081
0.012857
0.00937309
0.00726225
0.00498675
0.00389219
0.00317097
0.00270092
0.00208521
0.00168246
0.00122012
0.000942501
0.000654172
0.000489736
0.000329428
0.000241046
0.000158601
0.000114261
7.42823e-05
5.31672e-05
3.46359e-05
2.52819e-05
1.7916e-05
1.49535e-05
8.66807e-06
4.37925e-06
2.60994e-06
1.58845e-06
1.12802e-06
7.78837e-07
5.89492e-07
4.01883e-07
2.73197e-07
1.04097e-07
-4.11181e-08
-2.70309e-07
-4.85991e-07
-8.44517e-07
-1.1804e-06
-1.73058e-06
-2.21247e-06
-2.95508e-06
-3.54245e-06
-4.48736e-06
-6.00727e-06
-9.26814e-06
-1.25911e-05
-1.83926e-05
-2.43793e-05
-3.50253e-05
-4.61797e-05
-6.62108e-05
-8.74823e-05
-0.00012609
-0.000168067
-0.000245772
-0.000334287
-0.000504529
-0.000716349
-0.00115311
-0.00178646
-0.00324477
-0.00583663
-0.0120635
-0.0207819
-0.0241377
-0.0319908
-0.0401837
-0.0518137
-0.0454368
-0.0177048
-0.00514511
-0.0013092
-68.932
68.9159
0.102221
0.0792434
0.0605409
0.0418498
0.0317728
0.0227988
0.0177457
0.0127326
0.00970458
0.00649327
0.00494467
0.00391038
0.00326561
0.00246456
0.00195478
0.0013866
0.00105144
0.000711042
0.000520034
0.000338024
0.000239541
0.000150255
0.000103352
6.26007e-05
4.17311e-05
2.42738e-05
1.55506e-05
8.5513e-06
5.18009e-06
1.95537e-06
9.40409e-08
-6.00629e-07
-9.13882e-07
-1.02653e-06
-1.07919e-06
-1.09895e-06
-1.10956e-06
-1.11382e-06
-1.11575e-06
-1.11236e-06
-1.10129e-06
-1.08994e-06
-1.07046e-06
-1.05111e-06
-1.01739e-06
-9.81202e-07
-9.15532e-07
-8.4743e-07
-7.4148e-07
-7.32365e-07
-8.16012e-07
-8.83447e-07
-9.75149e-07
-1.07233e-06
-1.26156e-06
-1.54309e-06
-2.18415e-06
-3.23202e-06
-5.7038e-06
-9.86813e-06
-1.98272e-05
-3.69621e-05
-7.84788e-05
-0.000152003
-0.000334211
-0.000675423
-0.00155752
-0.00334947
-0.00786788
-0.0146559
-0.0186761
-0.0273863
-0.0366717
-0.0503486
-0.0449019
-0.0175459
-0.00510253
-0.00129748
-69.0915
66.7462
0.309203
0.23757
0.181634
0.125215
0.095284
0.0682484
0.0532433
0.038125
0.0291269
0.0194178
0.0148173
0.0117191
0.00980632
0.00738477
0.00586901
0.0041523
0.003156
0.00212825
0.00156059
0.00101133
0.000718702
0.000449372
0.000310027
0.00018715
0.000125157
7.25357e-05
4.66267e-05
2.55375e-05
1.55559e-05
5.82319e-06
2.40445e-07
-1.81451e-06
-2.74831e-06
-3.08115e-06
-3.23831e-06
-3.29677e-06
-3.32854e-06
-3.34118e-06
-3.34709e-06
-3.33702e-06
-3.30353e-06
-3.26979e-06
-3.21104e-06
-3.15356e-06
-3.05194e-06
-2.94446e-06
-2.74638e-06
-2.54351e-06
-2.22031e-06
-2.19314e-06
-2.44842e-06
-2.6491e-06
-2.92496e-06
-3.21306e-06
-3.78084e-06
-4.61486e-06
-6.53645e-06
-9.63989e-06
-1.70456e-05
-2.93763e-05
-5.92024e-05
-0.000109925
-0.000234184
-0.00045171
-0.000996366
-0.00200479
-0.00463647
-0.00993991
-0.023514
-0.0440802
-0.0558425
-0.0821379
-0.109842
-0.151813
-0.135584
-0.0520418
-0.0149623
-0.00378266
-67.2747
64.5719
0.523881
0.395304
0.30278
0.207552
0.158709
0.113243
0.0887691
0.063293
0.0485952
0.0321516
0.0246416
0.0194911
0.0163771
0.0122769
0.0097983
0.00689467
0.00526626
0.00353033
0.00260296
0.00167616
0.00119827
0.000744197
0.000516699
0.000309691
0.000208507
0.000119919
7.76413e-05
4.21652e-05
2.59862e-05
9.55967e-06
2.60553e-07
-3.06544e-06
-4.60274e-06
-5.14032e-06
-5.39969e-06
-5.49429e-06
-5.5471e-06
-5.56769e-06
-5.578e-06
-5.56156e-06
-5.50472e-06
-5.44959e-06
-5.35051e-06
-5.25674e-06
-5.0857e-06
-4.91034e-06
-4.57649e-06
-4.24355e-06
-3.68655e-06
-3.64188e-06
-4.08221e-06
-4.41092e-06
-4.87348e-06
-5.34188e-06
-6.28896e-06
-7.64301e-06
-1.08423e-05
-1.5878e-05
-2.81961e-05
-4.81957e-05
-9.77647e-05
-0.000179987
-0.000386239
-0.000738473
-0.00164024
-0.00326971
-0.00760947
-0.0162012
-0.0388837
-0.073862
-0.0924331
-0.136839
-0.182447
-0.255612
-0.228964
-0.0846815
-0.0237867
-0.00594444
-65.4582
62.39
0.751638
0.551651
0.424091
0.288086
0.222047
0.157441
0.124375
0.0880638
0.0681625
0.0445506
0.0343908
0.0271994
0.0230036
0.0171179
0.0137563
0.00959515
0.00738823
0.00490552
0.00364955
0.00232602
0.00167912
0.00103146
0.000723642
0.000428709
0.000291852
0.000165766
0.000108602
5.81631e-05
3.65343e-05
1.30684e-05
6.59495e-08
-4.3751e-06
-6.49053e-06
-7.20649e-06
-7.56485e-06
-7.69124e-06
-7.76496e-06
-7.79275e-06
-7.80818e-06
-7.78595e-06
-7.70408e-06
-7.6294e-06
-7.48803e-06
-7.36128e-06
-7.11794e-06
-6.88092e-06
-6.40501e-06
-5.9511e-06
-5.13104e-06
-5.06999e-06
-5.71914e-06
-6.16601e-06
-6.82042e-06
-7.45035e-06
-8.77997e-06
-1.05972e-05
-1.5076e-05
-2.18285e-05
-3.90488e-05
-6.58504e-05
-0.000135059
-0.000245157
-0.000532591
-0.00100349
-0.00225547
-0.00442699
-0.0104139
-0.0219015
-0.0537671
-0.104309
-0.127999
-0.191502
-0.253961
-0.363415
-0.327058
-0.113989
-0.0308899
-0.00758732
-63.6422
60.1977
0.998226
0.705181
0.54582
0.365894
0.285396
0.200439
0.160165
0.112225
0.0879192
0.0564428
0.0440484
0.0348128
0.0297206
0.0218769
0.0177627
0.0122302
0.00953163
0.00623922
0.00470478
0.00295294
0.00216313
0.00130722
0.000931595
0.000542385
0.000375464
0.000209291
0.000139598
7.32048e-05
4.73081e-05
1.62378e-05
-4.38311e-07
-5.76028e-06
-8.42527e-06
-9.28128e-06
-9.73541e-06
-9.88714e-06
-9.9819e-06
-1.00157e-05
-1.00373e-05
-1.00102e-05
-9.90069e-06
-9.80943e-06
-9.62253e-06
-9.46807e-06
-9.14755e-06
-8.85875e-06
-8.23048e-06
-7.67127e-06
-6.54342e-06
-6.46799e-06
-7.36229e-06
-7.91089e-06
-8.76646e-06
-9.52912e-06
-1.12503e-05
-1.34445e-05
-1.92206e-05
-2.73654e-05
-4.95312e-05
-8.18336e-05
-0.00017077
-0.000303325
-0.000671792
-0.00123758
-0.00283454
-0.00543273
-0.0130004
-0.0267905
-0.0679111
-0.135843
-0.161986
-0.246221
-0.32361
-0.477065
-0.432234
-0.138104
-0.0356025
-0.00854705
-61.8271
57.9927
1.2699
0.853466
0.668474
0.439819
0.34901
0.241727
0.196334
0.135502
0.108016
0.0676115
0.0536142
0.0422923
0.036577
0.0265112
0.021847
0.014768
0.0117122
0.00751226
0.00577637
0.00354665
0.0026538
0.00156641
0.00114205
0.000648412
0.000459942
0.000249507
0.000170854
8.68746e-05
5.84867e-05
1.89312e-05
-1.35651e-06
-7.22985e-06
-1.04212e-05
-1.13649e-05
-1.19132e-05
-1.20813e-05
-1.21978e-05
-1.22358e-05
-1.22652e-05
-1.22346e-05
-1.20934e-05
-1.19901e-05
-1.17526e-05
-1.15784e-05
-1.11729e-05
-1.08472e-05
-1.00504e-05
-9.41158e-06
-7.91147e-06
-7.82502e-06
-9.01687e-06
-9.64102e-06
-1.07138e-05
-1.15673e-05
-1.37001e-05
-1.61481e-05
-2.32727e-05
-3.23477e-05
-5.96246e-05
-9.55821e-05
-0.000204804
-0.000352174
-0.000803338
-0.00143083
-0.00337437
-0.00624103
-0.0153408
-0.0305908
-0.0809924
-0.169066
-0.193665
-0.301231
-0.390235
-0.598668
-0.547398
-0.15456
-0.0372985
-0.00870527
-60.0132
55.7732
1.57354
0.992618
0.792999
0.508343
0.413391
0.280635
0.233207
0.157519
0.128693
0.0777719
0.063115
0.0495865
0.0436436
0.0309592
0.0260538
0.0171646
0.0139549
0.00869841
0.00687711
0.0040932
0.00315718
0.00180226
0.00135769
0.000743721
0.000546394
0.00028511
0.000202799
9.86162e-05
7.03582e-05
2.09728e-05
-2.8051e-06
-8.78081e-06
-1.24938e-05
-1.34556e-05
-1.41003e-05
-1.42727e-05
-1.44125e-05
-1.44522e-05
-1.44916e-05
-1.44596e-05
-1.42808e-05
-1.41724e-05
-1.38763e-05
-1.36942e-05
-1.31912e-05
-1.28508e-05
-1.18606e-05
-1.11831e-05
-9.22028e-06
-9.1283e-06
-1.06912e-05
-1.13502e-05
-1.26669e-05
-1.35516e-05
-1.61355e-05
-1.86639e-05
-2.72495e-05
-3.6609e-05
-6.93905e-05
-0.000106436
-0.000237392
-0.000389006
-0.000928119
-0.0015719
-0.00387824
-0.00680156
-0.0174383
-0.0329904
-0.0925787
-0.204848
-0.222046
-0.357005
-0.452106
-0.730683
-0.676247
-0.16
-0.0354489
-0.00800579
-58.2006
53.5383
1.91668
1.11667
0.921074
0.569414
0.479411
0.316241
0.271315
0.177748
0.150332
0.0865373
0.0726202
0.0566232
0.051023
0.0351308
0.030451
0.019357
0.0162991
0.00976072
0.00802753
0.00457317
0.00368319
0.00200537
0.00158295
0.000824077
0.000636708
0.000314307
0.000236184
0.000107659
8.33735e-05
2.21257e-05
-4.91545e-06
-1.03927e-05
-1.46619e-05
-1.55489e-05
-1.62995e-05
-1.64596e-05
-1.66262e-05
-1.66638e-05
-1.67162e-05
-1.66858e-05
-1.64608e-05
-1.63576e-05
-1.5991e-05
-1.58183e-05
-1.51987e-05
-1.48762e-05
-1.36542e-05
-1.30023e-05
-1.04511e-05
-1.03623e-05
-1.23982e-05
-1.30295e-05
-1.46338e-05
-1.54647e-05
-1.85707e-05
-2.09363e-05
-3.11983e-05
-3.99412e-05
-7.90088e-05
-0.000113573
-0.000269248
-0.000410489
-0.00104905
-0.001647
-0.00435856
-0.00705531
-0.0193429
-0.0336344
-0.102071
-0.244459
-0.245739
-0.4144
-0.506666
-0.876049
-0.823595
-0.149781
-0.0297158
-0.00647142
-56.3897
51.2887
2.30755
1.21671
1.05556
0.620172
0.548506
0.347245
0.311488
0.195431
0.173517
0.0933703
0.0822654
0.063297
0.0588642
0.0388938
0.035141
0.0212541
0.0188053
0.0106462
0.00925986
0.00495882
0.00424757
0.00216236
0.00182502
0.000883485
0.000733943
0.000334572
0.000272244
0.000112905
9.82249e-05
2.20598e-05
-7.83589e-06
-1.20197e-05
-1.69496e-05
-1.76359e-05
-1.85149e-05
-1.86397e-05
-1.88393e-05
-1.88692e-05
-1.89388e-05
-1.89146e-05
-1.86306e-05
-1.85481e-05
-1.80927e-05
-1.79551e-05
-1.71893e-05
-1.69325e-05
-1.54205e-05
-1.48931e-05
-1.15799e-05
-1.15078e-05
-1.41574e-05
-1.46657e-05
-1.66275e-05
-1.72829e-05
-2.10329e-05
-2.28913e-05
-3.52112e-05
-4.2068e-05
-8.88333e-05
-0.000115907
-0.000301788
-0.00041224
-0.00117199
-0.00163811
-0.00484076
-0.00692729
-0.0211715
-0.0321189
-0.108621
-0.289746
-0.262763
-0.47488
-0.550172
-1.03832
-0.995829
-0.117419
-0.0201102
-0.00421901
-54.581
49.0275
2.75485
1.27977
1.20122
0.656556
0.622953
0.371773
0.355012
0.209459
0.199136
0.0975108
0.0922896
0.0694494
0.0673849
0.0420531
0.0402781
0.0227228
0.0215665
0.0112777
0.0106239
0.00520996
0.00487486
0.00225394
0.00209512
0.000913292
0.000842936
0.000342262
0.000312945
0.000112765
0.000115963
2.03029e-05
-1.17323e-05
-1.35799e-05
-1.93906e-05
-1.9702e-05
-2.07521e-05
-2.08094e-05
-2.10527e-05
-2.10668e-05
-2.11591e-05
-2.11477e-05
-2.07865e-05
-2.07476e-05
-2.01757e-05
-2.01112e-05
-1.91538e-05
-1.90334e-05
-1.7142e-05
-1.68902e-05
-1.25751e-05
-1.25405e-05
-1.59975e-05
-1.6239e-05
-1.86688e-05
-1.89728e-05
-2.35677e-05
-2.44257e-05
-3.94464e-05
-4.26057e-05
-9.94749e-05
-0.000111931
-0.000337467
-0.000388184
-0.0013071
-0.00152034
-0.00536907
-0.00631489
-0.0231368
-0.0279876
-0.111004
-0.343394
-0.270251
-0.540867
-0.577199
-1.22187
-1.20154
-0.0538205
-0.00724764
-0.00146779
-52.7747
49.0191
2.75472
1.28043
1.20193
0.657573
0.623979
0.372706
0.355929
0.210072
0.199723
0.0978023
0.0925658
0.0696576
0.0675873
0.0421896
0.04041
0.0228107
0.0216514
0.0113349
0.0106792
0.00524745
0.00491117
0.0022803
0.00212086
0.000934215
0.000863606
0.000361681
0.00033253
0.000136439
0.000159941
4.40216e-05
7.03046e-06
4.8628e-06
-2.4701e-06
-2.87594e-06
-4.54785e-06
-4.64026e-06
-5.08292e-06
-5.11021e-06
-5.30425e-06
-5.31641e-06
-5.4109e-06
-5.41528e-06
-5.4246e-06
-5.42081e-06
-5.32228e-06
-5.30365e-06
-4.96332e-06
-4.90714e-06
-3.84531e-06
-3.85327e-06
-5.08573e-06
-5.19364e-06
-6.53852e-06
-6.76185e-06
-1.05326e-05
-1.1318e-05
-2.54448e-05
-2.8508e-05
-8.40075e-05
-9.62815e-05
-0.000318942
-0.000369196
-0.00128022
-0.00149209
-0.00531718
-0.00625872
-0.0230067
-0.0278419
-0.110601
-0.342373
-0.269543
-0.539883
-0.576189
-1.22045
-1.20016
-0.0537597
-0.0072399
-0.00146266
-52.7823
51.2812
2.30749
1.21726
1.05621
0.621062
0.549415
0.348081
0.31229
0.195994
0.174028
0.0936493
0.0825119
0.0634872
0.059042
0.0390195
0.0352568
0.0213352
0.01888
0.0106989
0.00930847
0.00499338
0.00427962
0.00218654
0.00184786
0.000902523
0.000752443
0.000352137
0.000290205
0.000134944
0.000134924
4.40782e-05
9.41525e-06
4.50525e-06
-1.68335e-06
-2.57458e-06
-3.95425e-06
-4.15464e-06
-4.51594e-06
-4.5746e-06
-4.72997e-06
-4.75589e-06
-4.83114e-06
-4.84046e-06
-4.84782e-06
-4.83969e-06
-4.76024e-06
-4.7204e-06
-4.44708e-06
-4.3301e-06
-3.52139e-06
-3.53907e-06
-4.49382e-06
-4.72314e-06
-5.81722e-06
-6.30057e-06
-9.39266e-06
-1.10963e-05
-2.27018e-05
-2.93532e-05
-7.50182e-05
-0.000101701
-0.000285256
-0.000394708
-0.00114805
-0.00161122
-0.00479463
-0.00687185
-0.0210551
-0.0319682
-0.108241
-0.288891
-0.262096
-0.474009
-0.549249
-1.0371
-0.994683
-0.117286
-0.0200903
-0.00420575
-54.5878
53.5317
1.91667
1.11712
0.92165
0.570185
0.480206
0.316979
0.27201
0.178255
0.150774
0.0867956
0.0728378
0.0567937
0.0511777
0.0352439
0.0305519
0.0194302
0.0163641
0.00980823
0.00806989
0.00460432
0.0037112
0.00202709
0.001603
0.000841091
0.00065305
0.000329958
0.00025237
0.00012763
0.000113952
4.20369e-05
1.06541e-05
4.22821e-06
-1.09939e-06
-2.24769e-06
-3.4068e-06
-3.66232e-06
-3.96203e-06
-4.03625e-06
-4.16222e-06
-4.19478e-06
-4.25531e-06
-4.267e-06
-4.27281e-06
-4.26255e-06
-4.19762e-06
-4.14746e-06
-3.92538e-06
-3.7815e-06
-3.16497e-06
-3.18795e-06
-3.93171e-06
-4.21891e-06
-5.12168e-06
-5.73652e-06
-8.31149e-06
-1.04827e-05
-2.01674e-05
-2.86517e-05
-6.68249e-05
-0.000100895
-0.000254663
-0.000394636
-0.00102793
-0.00162213
-0.00431781
-0.00700267
-0.0192392
-0.0334864
-0.101722
-0.243744
-0.24513
-0.413637
-0.505839
-0.875001
-0.822643
-0.149609
-0.0296887
-0.00645589
-56.3958
55.7674
1.57356
0.992995
0.793502
0.509002
0.414075
0.281274
0.233802
0.157964
0.129071
0.0780039
0.0633042
0.0497361
0.0437765
0.0310587
0.0261405
0.0172291
0.0140108
0.00874024
0.00691352
0.00412064
0.00318131
0.00182135
0.00137501
0.000758615
0.000560584
0.000298792
0.000217078
0.000116239
9.56566e-05
3.85148e-05
1.09405e-05
3.9338e-06
-6.73292e-07
-1.91504e-06
-2.89432e-06
-3.16799e-06
-3.41791e-06
-3.49683e-06
-3.59939e-06
-3.63374e-06
-3.68258e-06
-3.6949e-06
-3.69946e-06
-3.68858e-06
-3.63529e-06
-3.58224e-06
-3.40129e-06
-3.25248e-06
-2.78348e-06
-2.80851e-06
-3.38853e-06
-3.69083e-06
-4.43884e-06
-5.09557e-06
-7.24936e-06
-9.57272e-06
-1.76902e-05
-2.67763e-05
-5.8828e-05
-9.5349e-05
-0.000224736
-0.000375
-0.000909764
-0.00154956
-0.00384273
-0.0067533
-0.0173472
-0.0328515
-0.0922674
-0.204254
-0.221506
-0.356347
-0.451383
-0.729797
-0.675461
-0.159814
-0.0354185
-0.00799206
-58.2058
57.9879
1.26993
0.853773
0.668901
0.44037
0.349585
0.242268
0.196832
0.135883
0.108331
0.0678132
0.053775
0.0424202
0.0366888
0.0265964
0.0219199
0.0148232
0.0117592
0.00754809
0.00580702
0.00357015
0.00267414
0.00158274
0.00115669
0.000661117
0.000471977
0.000261174
0.000183114
0.000101969
7.91131e-05
3.39376e-05
1.04492e-05
3.56717e-06
-3.72834e-07
-1.58818e-06
-2.40885e-06
-2.6744e-06
-2.88127e-06
-2.95732e-06
-3.04029e-06
-3.07317e-06
-3.11231e-06
-3.12407e-06
-3.12762e-06
-3.11716e-06
-3.07373e-06
-3.02288e-06
-2.87654e-06
-2.73684e-06
-2.38268e-06
-2.40733e-06
-2.85705e-06
-3.14562e-06
-3.76067e-06
-4.39612e-06
-6.18297e-06
-8.43474e-06
-1.51823e-05
-2.39951e-05
-5.06806e-05
-8.61335e-05
-0.000194073
-0.000340142
-0.000787742
-0.00141138
-0.00334408
-0.00619836
-0.0152624
-0.030466
-0.0807238
-0.168579
-0.193201
-0.300675
-0.38962
-0.597934
-0.546759
-0.154377
-0.0372677
-0.00869492
-60.0176
60.1937
0.998261
0.705425
0.546171
0.366341
0.285863
0.200881
0.16057
0.112539
0.0881759
0.0566111
0.0441806
0.0349182
0.0298117
0.0219472
0.0178222
0.0122757
0.00957003
0.00626881
0.00472979
0.00297236
0.00217975
0.00132069
0.00094357
0.000552848
0.000385335
0.000218899
0.000149748
8.5656e-05
6.37014e-05
2.86046e-05
9.33527e-06
3.10364e-06
-1.73136e-07
-1.27305e-06
-1.9444e-06
-2.18295e-06
-2.35035e-06
-2.41826e-06
-2.48405e-06
-2.51321e-06
-2.54399e-06
-2.5544e-06
-2.5571e-06
-2.54778e-06
-2.51312e-06
-2.46794e-06
-2.35206e-06
-2.23027e-06
-1.96713e-06
-1.98954e-06
-2.33251e-06
-2.58795e-06
-3.08256e-06
-3.65184e-06
-5.10013e-06
-7.12034e-06
-1.25987e-05
-2.05104e-05
-4.22067e-05
-7.40591e-05
-0.00016197
-0.000293363
-0.000658972
-0.00122131
-0.00280955
-0.00539661
-0.0129353
-0.0266836
-0.0676882
-0.135455
-0.161602
-0.245767
-0.323105
-0.476475
-0.431726
-0.137938
-0.0355735
-0.00854023
-61.8308
62.3869
0.751671
0.551837
0.424365
0.288431
0.222409
0.157784
0.124687
0.0883086
0.0683612
0.0446835
0.0344941
0.0272819
0.0230743
0.0171729
0.0138025
0.00963082
0.00741806
0.00492869
0.00366897
0.00234123
0.00169204
0.00104201
0.00073296
0.000436889
0.000299548
0.000173279
0.000116569
6.79e-05
4.90073e-05
2.27321e-05
7.73623e-06
2.53948e-06
-5.33654e-08
-9.71652e-07
-1.49622e-06
-1.69417e-06
-1.82381e-06
-1.87986e-06
-1.92997e-06
-1.95391e-06
-1.97717e-06
-1.9857e-06
-1.98768e-06
-1.98e-06
-1.95348e-06
-1.91634e-06
-1.82827e-06
-1.72975e-06
-1.54048e-06
-1.55926e-06
-1.81189e-06
-2.02123e-06
-2.40218e-06
-2.87342e-06
-3.99622e-06
-5.67056e-06
-9.92351e-06
-1.64844e-05
-3.33468e-05
-5.97772e-05
-0.0001282
-0.000237336
-0.000522575
-0.000990617
-0.00223587
-0.00439816
-0.0103625
-0.0218156
-0.053592
-0.104013
-0.127698
-0.191149
-0.253567
-0.362962
-0.326672
-0.11385
-0.0308648
-0.00758357
-63.6451
64.5697
0.523907
0.395435
0.302975
0.207797
0.158966
0.113488
0.0889917
0.0634684
0.0487367
0.0322475
0.0247156
0.0195503
0.0164275
0.0123164
0.00983125
0.00692028
0.00528755
0.00354697
0.00261682
0.00168709
0.0012075
0.000751767
0.00052336
0.000315556
0.000214014
0.000125308
8.33702e-05
4.91445e-05
3.47559e-05
1.64826e-05
5.77499e-06
1.88517e-06
5.23153e-09
-6.83305e-07
-1.06023e-06
-1.20798e-06
-1.3005e-06
-1.34217e-06
-1.37747e-06
-1.39519e-06
-1.41148e-06
-1.41778e-06
-1.41914e-06
-1.41344e-06
-1.39468e-06
-1.36717e-06
-1.30523e-06
-1.23317e-06
-1.10576e-06
-1.11988e-06
-1.29332e-06
-1.44804e-06
-1.71876e-06
-2.06977e-06
-2.87167e-06
-4.11999e-06
-7.16057e-06
-1.20542e-05
-2.41201e-05
-4.38439e-05
-9.28561e-05
-0.000174364
-0.000379058
-0.000729164
-0.00162615
-0.00324872
-0.00757233
-0.0161383
-0.0387578
-0.0736535
-0.0922166
-0.136587
-0.182165
-0.255292
-0.228692
-0.0845756
-0.0237672
-0.00594304
-65.4602
66.7449
0.309219
0.237648
0.181751
0.125362
0.0954383
0.0683952
0.0533765
0.0382304
0.0292116
0.0194757
0.0148619
0.0117547
0.00983655
0.00740848
0.00588878
0.00416771
0.00316877
0.00213826
0.00156891
0.00101791
0.000724241
0.000453928
0.000314026
0.000190678
0.000128466
7.5778e-05
5.00793e-05
2.97337e-05
2.07644e-05
9.98402e-06
3.56305e-06
1.16069e-06
2.04479e-08
-4.05463e-07
-6.32774e-07
-7.23882e-07
-7.79422e-07
-8.05047e-07
-8.2606e-07
-8.36922e-07
-8.46578e-07
-8.50438e-07
-8.51231e-07
-8.47726e-07
-8.36534e-07
-8.19661e-07
-7.82852e-07
-7.39028e-07
-6.6557e-07
-6.74319e-07
-7.75728e-07
-8.70496e-07
-1.03254e-06
-1.24869e-06
-1.73028e-06
-2.49948e-06
-4.32681e-06
-7.34307e-06
-1.45986e-05
-2.67597e-05
-5.62533e-05
-0.000106536
-0.000229863
-0.000446078
-0.00098787
-0.00199204
-0.004614
-0.00990163
-0.0234381
-0.0439562
-0.0557122
-0.0819868
-0.109673
-0.151622
-0.135423
-0.0519756
-0.01495
-0.00378273
-67.2759
68.9155
0.102226
0.0792693
0.0605801
0.0418985
0.0318242
0.0228478
0.01779
0.0127677
0.0097328
0.00651263
0.00495954
0.00392227
0.00327568
0.00247248
0.00196137
0.00139174
0.00105569
0.000714385
0.000522807
0.000340219
0.000241388
0.000151776
0.000104685
6.3778e-05
4.28348e-05
2.5356e-05
1.6704e-05
9.95136e-06
6.90759e-06
3.3434e-06
1.20387e-06
3.91931e-07
9.69908e-09
-1.34379e-07
-2.10366e-07
-2.41138e-07
-2.59662e-07
-2.68305e-07
-2.75284e-07
-2.78941e-07
-2.82142e-07
-2.8344e-07
-2.83701e-07
-2.82519e-07
-2.78798e-07
-2.73114e-07
-2.60901e-07
-2.46204e-07
-2.22204e-07
-2.25166e-07
-2.58541e-07
-2.9044e-07
-3.44406e-07
-4.17356e-07
-5.7801e-07
-8.37705e-07
-1.44749e-06
-2.46598e-06
-4.88787e-06
-8.99498e-06
-1.88435e-05
-3.58298e-05
-7.70366e-05
-0.000150118
-0.000331372
-0.000671143
-0.00155
-0.00333662
-0.00784254
-0.0146147
-0.0186326
-0.0273359
-0.0366153
-0.0502853
-0.0448485
-0.0175231
-0.00509833
-0.00129787
-69.0919
68.8479
0.100471
0.0720265
0.0511978
0.0326425
0.0233688
0.0160781
0.0121011
0.00830128
0.00655765
0.00551612
0.00481754
0.0038513
0.00318918
0.0023887
0.00189025
0.00134875
0.00103072
0.000708525
0.000526679
0.000351594
0.000255648
0.000166843
0.000119251
7.6524e-05
5.40128e-05
3.42972e-05
2.422e-05
1.59656e-05
1.22117e-05
6.33535e-06
2.42527e-06
8.2091e-07
-9.82079e-08
-5.08644e-07
-8.15125e-07
-9.7991e-07
-1.14222e-06
-1.25512e-06
-1.40683e-06
-1.54314e-06
-1.76677e-06
-1.98796e-06
-2.36461e-06
-2.70179e-06
-3.23305e-06
-3.67825e-06
-4.33845e-06
-4.83289e-06
-5.62756e-06
-7.1369e-06
-1.0521e-05
-1.39305e-05
-1.98257e-05
-2.58771e-05
-3.66069e-05
-4.78358e-05
-6.79869e-05
-8.93818e-05
-0.000128207
-0.000170418
-0.000248546
-0.000337528
-0.000508631
-0.00072144
-0.00116008
-0.00179577
-0.00325885
-0.00585765
-0.0121
-0.0208369
-0.024191
-0.0320459
-0.0402409
-0.0518732
-0.0454854
-0.0177243
-0.00514992
-0.00130984
-68.9315
66.5422
0.304093
0.215782
0.153508
0.0975607
0.0700307
0.0481049
0.036299
0.0248242
0.0196475
0.0165376
0.0144663
0.0115446
0.00957569
0.00715626
0.00567442
0.00403884
0.00309359
0.00212091
0.00158051
0.00105215
0.000767056
0.000499155
0.000357761
0.000228899
0.000162023
0.00010257
7.26327e-05
4.77484e-05
3.67449e-05
1.89415e-05
7.18997e-06
2.43883e-06
-3.13143e-07
-1.52902e-06
-2.45043e-06
-2.93945e-06
-3.42843e-06
-3.76372e-06
-4.22116e-06
-4.62606e-06
-5.30067e-06
-5.95805e-06
-7.09602e-06
-8.09838e-06
-9.7036e-06
-1.10274e-05
-1.30235e-05
-1.44884e-05
-1.68562e-05
-2.13385e-05
-3.15663e-05
-4.16975e-05
-5.94788e-05
-7.74546e-05
-0.000109815
-0.000143169
-0.000203937
-0.000267482
-0.000384532
-0.000509877
-0.00074529
-0.00100941
-0.00152439
-0.00215551
-0.0034727
-0.00535469
-0.00973189
-0.0174284
-0.0362024
-0.0627292
-0.0723961
-0.096127
-0.120588