/*--------------------------------*- C++ -*----------------------------------*\
| =========                 |                                                 |
| \\      /  F ield         | OpenFOAM: The Open Source CFD Toolbox           |
|  \\    /   O peration     | Version:  5.x                                   |
|   \\  /    A nd           | Web:      www.OpenFOAM.org                      |
|    \\/     M anipulation  |                                                 |
\*---------------------------------------------------------------------------*/
FoamFile
{
    version     2.0;
    format      ascii;
    class       volScalarField;
    location    "0.3";
    object      T;
}
// * * * * * * * * * * * * * * * * * * * * * * * * * * * * * * * * * * * * * //

dimensions      [0 0 0 1 0 0 0];

internalField   nonuniform List<scalar> 
3200
(
2.25476
2.51857
2.533
2.62703
2.63282
2.67516
2.67796
2.70172
2.70331
2.71729
2.71816
2.72491
2.72541
2.73062
2.73098
2.73423
2.73444
2.73625
2.73637
2.73731
2.73736
2.73783
2.73785
2.73807
2.73809
2.73819
2.73819
2.73824
2.73824
2.73827
2.73828
2.73828
2.73828
2.73828
2.73829
2.73829
2.73829
2.73829
2.73829
2.73829
2.73829
2.73829
2.73829
2.73829
2.73829
2.73829
2.73828
2.73828
2.73828
2.73828
2.73827
2.73827
2.73825
2.73825
2.73821
2.73821
2.73814
2.73813
2.73801
2.738
2.73776
2.73773
2.73728
2.73722
2.7363
2.73618
2.73416
2.73384
2.72867
2.72764
2.71041
2.67733
2.67342
2.61436
2.60719
2.49133
2.48653
2.48592
2.4858
2.48577
2.40568
2.60735
2.63747
2.71298
2.72535
2.75931
2.76528
2.78422
2.78758
2.79869
2.80054
2.80595
2.80702
2.81114
2.81188
2.81446
2.8149
2.81634
2.81659
2.81733
2.81746
2.81783
2.81789
2.81806
2.81809
2.81817
2.81818
2.81822
2.81822
2.81824
2.81825
2.81826
2.81826
2.81826
2.81826
2.81826
2.81826
2.81826
2.81826
2.81826
2.81826
2.81826
2.81826
2.81826
2.81826
2.81826
2.81826
2.81826
2.81825
2.81825
2.81825
2.81824
2.81823
2.81823
2.8182
2.81819
2.81814
2.81812
2.81802
2.81799
2.8178
2.81774
2.81738
2.81725
2.81652
2.81625
2.81462
2.81394
2.8097
2.8074
2.79217
2.76515
2.75679
2.70971
2.69462
2.60465
2.59451
2.59283
2.59248
2.59241
2.54854
2.703
2.74015
2.80149
2.81706
2.84462
2.85212
2.86738
2.8716
2.88052
2.88284
2.88722
2.88855
2.89184
2.89277
2.89483
2.89539
2.89655
2.89685
2.89745
2.89761
2.8979
2.89798
2.89812
2.89815
2.89822
2.89824
2.89827
2.89827
2.89829
2.8983
2.8983
2.8983
2.89831
2.89831
2.89831
2.89831
2.89831
2.89831
2.89831
2.89831
2.89831
2.89831
2.89831
2.89831
2.89831
2.8983
2.8983
2.8983
2.8983
2.89829
2.89829
2.89828
2.89827
2.89825
2.89824
2.8982
2.89818
2.8981
2.89806
2.8979
2.89783
2.89753
2.89738
2.89678
2.89644
2.89511
2.89425
2.89071
2.88774
2.87448
2.85227
2.84176
2.80383
2.78509
2.71483
2.7022
2.69974
2.69921
2.69909
2.68524
2.80338
2.84189
2.89185
2.90831
2.93077
2.93868
2.95102
2.95547
2.96265
2.96509
2.96865
2.97006
2.9727
2.97367
2.97533
2.97591
2.97684
2.97716
2.97765
2.97781
2.97805
2.97813
2.97824
2.97828
2.97833
2.97835
2.97837
2.97838
2.9784
2.9784
2.97841
2.97841
2.97841
2.97841
2.97841
2.97841
2.97841
2.97841
2.97841
2.97841
2.97841
2.97841
2.97841
2.97841
2.97841
2.97841
2.97841
2.9784
2.9784
2.9784
2.9784
2.97839
2.97838
2.97836
2.97835
2.97832
2.97829
2.97823
2.97819
2.97807
2.97798
2.97775
2.97758
2.9771
2.97674
2.97564
2.97472
2.97176
2.96856
2.95719
2.93898
2.92789
2.89723
2.87766
2.82274
2.80953
2.80662
2.80596
2.80581
2.81721
2.90695
2.94318
2.98358
2.99936
3.01752
3.0251
3.03502
3.03926
3.04501
3.04734
3.05022
3.05156
3.05366
3.05459
3.05591
3.05647
3.05721
3.05752
3.05791
3.05806
3.05825
3.05833
3.05842
3.05846
3.0585
3.05852
3.05854
3.05854
3.05855
3.05856
3.05856
3.05857
3.05857
3.05857
3.05857
3.05857
3.05857
3.05857
3.05857
3.05857
3.05857
3.05857
3.05857
3.05857
3.05857
3.05857
3.05856
3.05856
3.05856
3.05856
3.05855
3.05855
3.05854
3.05853
3.05852
3.05849
3.05847
3.05841
3.05837
3.05828
3.0582
3.05801
3.05785
3.05746
3.05711
3.05622
3.05533
3.05287
3.04975
3.04023
3.02546
3.01483
2.99022
2.9717
2.92902
2.91648
2.91344
2.91272
2.91257
2.9456
3.01267
3.04433
3.07632
3.09033
3.10473
3.11146
3.11927
3.12302
3.12754
3.1296
3.13188
3.13307
3.13471
3.13553
3.13657
3.13706
3.13764
3.13791
3.13822
3.13836
3.13851
3.13857
3.13865
3.13868
3.13871
3.13873
3.13874
3.13875
3.13876
3.13876
3.13876
3.13877
3.13877
3.13877
3.13877
3.13877
3.13877
3.13877
3.13877
3.13877
3.13877
3.13877
3.13877
3.13877
3.13877
3.13877
3.13876
3.13876
3.13876
3.13876
3.13876
3.13875
3.13875
3.13873
3.13872
3.1387
3.13868
3.13864
3.13861
3.13853
3.13846
3.13831
3.13817
3.13786
3.13755
3.13684
3.13604
3.13404
3.13124
3.12351
3.1118
3.10238
3.08301
3.06673
3.03413
3.02309
3.0202
3.0195
3.01934
3.07131
3.11982
3.14548
3.16979
3.1813
3.19227
3.19779
3.2037
3.20678
3.21019
3.21188
3.21362
3.21459
3.21582
3.21649
3.21727
3.21768
3.21812
3.21834
3.21857
3.21868
3.2188
3.21885
3.21891
3.21893
3.21896
3.21897
3.21898
3.21899
3.219
3.219
3.219
3.219
3.219
3.219
3.219
3.219
3.219
3.219
3.219
3.219
3.219
3.219
3.219
3.219
3.219
3.219
3.219
3.219
3.219
3.219
3.219
3.21899
3.21899
3.21898
3.21897
3.21895
3.21894
3.21891
3.21888
3.21882
3.21876
3.21865
3.21853
3.2183
3.21804
3.2175
3.21684
3.21529
3.21296
3.20699
3.19809
3.19035
3.1757
3.16244
3.1384
3.12939
3.1269
3.12628
3.12614
3.19509
3.2279
3.24669
3.26379
3.27231
3.28003
3.28412
3.28827
3.29055
3.29293
3.29419
3.2954
3.29613
3.29699
3.29748
3.29803
3.29832
3.29863
3.2988
3.29896
3.29904
3.29912
3.29916
3.2992
3.29922
3.29924
3.29925
3.29925
3.29926
3.29926
3.29927
3.29927
3.29927
3.29927
3.29927
3.29927
3.29927
3.29927
3.29927
3.29927
3.29927
3.29927
3.29927
3.29927
3.29927
3.29927
3.29927
3.29927
3.29927
3.29927
3.29926
3.29926
3.29926
3.29926
3.29925
3.29924
3.29923
3.29922
3.2992
3.29918
3.29914
3.29909
3.29901
3.29893
3.29876
3.29857
3.29819
3.2977
3.29659
3.29485
3.29061
3.28435
3.27863
3.26836
3.25861
3.24209
3.23545
3.23354
3.23306
3.23294
3.31756
3.33654
3.34798
3.35814
3.36337
3.36796
3.37047
3.37293
3.37432
3.37574
3.3765
3.37723
3.37767
3.37818
3.37848
3.3788
3.37899
3.37917
3.37927
3.37937
3.37942
3.37946
3.37949
3.37951
3.37952
3.37953
3.37954
3.37954
3.37955
3.37955
3.37955
3.37955
3.37955
3.37955
3.37955
3.37955
3.37955
3.37955
3.37955
3.37955
3.37955
3.37955
3.37955
3.37955
3.37955
3.37955
3.37955
3.37955
3.37955
3.37955
3.37955
3.37955
3.37955
3.37955
3.37954
3.37954
3.37953
3.37952
3.37951
3.3795
3.37947
3.37945
3.3794
3.37935
3.37925
3.37913
3.3789
3.3786
3.37793
3.37686
3.37433
3.37061
3.3671
3.36101
3.35506
3.3454
3.34134
3.34014
3.33983
3.33976
3.43927
3.44548
3.44932
3.45269
3.45445
3.45598
3.45682
3.45764
3.45811
3.45858
3.45883
3.45907
3.45922
3.45939
3.45949
3.4596
3.45966
3.45972
3.45976
3.45979
3.4598
3.45982
3.45983
3.45984
3.45984
3.45984
3.45984
3.45985
3.45985
3.45985
3.45985
3.45985
3.45985
3.45985
3.45985
3.45985
3.45985
3.45985
3.45985
3.45985
3.45985
3.45985
3.45985
3.45985
3.45985
3.45985
3.45985
3.45985
3.45985
3.45985
3.45985
3.45985
3.45985
3.45985
3.45985
3.45984
3.45984
3.45984
3.45984
3.45983
3.45982
3.45981
3.4598
3.45978
3.45975
3.45971
3.45963
3.45953
3.45931
3.45895
3.4581
3.45687
3.45569
3.45367
3.45167
3.44849
3.44713
3.44672
3.44661
3.44659
3.4427
3.44889
3.45292
3.45682
3.45897
3.461
3.46215
3.46328
3.46393
3.46456
3.4649
3.46521
3.46539
3.4656
3.46572
3.46584
3.46591
3.46598
3.46602
3.46605
3.46607
3.46609
3.46609
3.4661
3.4661
3.46611
3.46611
3.46611
3.46611
3.46611
3.46611
3.46611
3.46611
3.46611
3.46611
3.46611
3.46611
3.46611
3.46611
3.46611
3.46611
3.46611
3.46611
3.46611
3.46611
3.46611
3.46611
3.46611
3.46611
3.46611
3.46611
3.46611
3.46611
3.46611
3.46611
3.46611
3.46611
3.46611
3.46611
3.46611
3.46611
3.46611
3.46611
3.4661
3.4661
3.46609
3.46607
3.46602
3.46591
3.46569
3.46512
3.46422
3.46326
3.46148
3.45959
3.45645
3.4551
3.45469
3.45459
3.45456
3.32785
3.34677
3.35877
3.37053
3.37693
3.38305
3.38646
3.38987
3.39179
3.39369
3.3947
3.39563
3.39618
3.3968
3.39716
3.39754
3.39775
3.39795
3.39806
3.39817
3.39822
3.39827
3.39829
3.39831
3.39832
3.39833
3.39834
3.39834
3.39834
3.39834
3.39834
3.39834
3.39834
3.39834
3.39834
3.39834
3.39834
3.39834
3.39834
3.39834
3.39834
3.39834
3.39834
3.39834
3.39834
3.39834
3.39834
3.39834
3.39834
3.39834
3.39834
3.39834
3.39834
3.39834
3.39834
3.39834
3.39834
3.39834
3.39834
3.39834
3.39834
3.39833
3.39833
3.39832
3.39831
3.39828
3.39821
3.39808
3.39774
3.39708
3.39539
3.39268
3.38981
3.38446
3.37882
3.36928
3.36527
3.36408
3.36377
3.3637
3.21225
3.24493
3.26464
3.28447
3.29492
3.30522
3.31079
3.31654
3.31967
3.32287
3.32453
3.32609
3.32699
3.32804
3.32863
3.32927
3.32961
3.32996
3.33014
3.33031
3.3304
3.33048
3.33052
3.33055
3.33057
3.33058
3.33059
3.33059
3.3306
3.3306
3.3306
3.3306
3.3306
3.3306
3.3306
3.3306
3.3306
3.3306
3.3306
3.3306
3.3306
3.3306
3.3306
3.3306
3.3306
3.3306
3.33059
3.33059
3.33059
3.33059
3.33059
3.33059
3.33059
3.33059
3.33059
3.33059
3.33059
3.33059
3.33059
3.33059
3.33059
3.33059
3.33058
3.33057
3.33054
3.33049
3.33038
3.33017
3.32962
3.32855
3.32573
3.32116
3.31648
3.30748
3.29824
3.28192
3.27534
3.27345
3.27296
3.27285
3.09536
3.14363
3.17053
3.1988
3.21294
3.22761
3.23514
3.24335
3.24758
3.25216
3.25439
3.25661
3.25783
3.25933
3.26013
3.26105
3.26151
3.262
3.26225
3.2625
3.26261
3.26273
3.26278
3.26283
3.26285
3.26287
3.26288
3.26289
3.26289
3.2629
3.2629
3.2629
3.2629
3.2629
3.2629
3.2629
3.2629
3.2629
3.2629
3.26289
3.26289
3.26289
3.26289
3.26289
3.26289
3.26289
3.26289
3.26289
3.26289
3.26289
3.26289
3.26289
3.26289
3.26289
3.26289
3.26289
3.26289
3.26289
3.26289
3.26289
3.26288
3.26288
3.26287
3.26286
3.26282
3.26275
3.26259
3.26231
3.26155
3.26012
3.25617
3.24969
3.24337
3.23054
3.21798
3.1942
3.18527
3.1828
3.18218
3.18204
2.97656
3.04321
3.07638
3.11373
3.13097
3.15032
3.1595
3.17036
3.17552
3.18159
3.18431
3.18723
3.18872
3.19071
3.19169
3.1929
3.19347
3.19412
3.19442
3.19475
3.19489
3.19504
3.19511
3.19517
3.1952
3.19523
3.19524
3.19525
3.19525
3.19525
3.19526
3.19526
3.19526
3.19526
3.19525
3.19525
3.19525
3.19525
3.19525
3.19525
3.19525
3.19525
3.19525
3.19525
3.19525
3.19525
3.19525
3.19525
3.19525
3.19525
3.19525
3.19525
3.19525
3.19525
3.19525
3.19525
3.19524
3.19524
3.19524
3.19524
3.19524
3.19523
3.19522
3.1952
3.19515
3.19508
3.19487
3.19454
3.19357
3.19186
3.18678
3.17827
3.17058
3.15365
3.13822
3.10594
3.095
3.09213
3.09144
3.09128
2.85512
2.94416
2.98211
3.0295
3.04895
3.07349
3.08385
3.09766
3.10349
3.11121
3.11429
3.11797
3.11965
3.1222
3.12331
3.12485
3.12549
3.12633
3.12666
3.12708
3.12724
3.12743
3.12751
3.12759
3.12762
3.12765
3.12767
3.12768
3.12768
3.12769
3.12769
3.12769
3.12769
3.12769
3.12769
3.12769
3.12769
3.12769
3.12769
3.12769
3.12769
3.12768
3.12768
3.12768
3.12768
3.12768
3.12768
3.12768
3.12768
3.12768
3.12768
3.12768
3.12768
3.12768
3.12768
3.12768
3.12768
3.12768
3.12767
3.12767
3.12767
3.12766
3.12765
3.12763
3.12757
3.12748
3.12723
3.12686
3.1257
3.1238
3.1176
3.10689
3.09823
3.07677
3.05921
3.01691
3.00447
3.00145
3.00074
3.00058
2.73014
2.84718
2.88749
2.94645
2.96679
2.99728
3.00813
3.02534
3.03145
3.04109
3.04432
3.04887
3.05063
3.05383
3.055
3.05693
3.0576
3.05864
3.059
3.05951
3.05968
3.05992
3.06
3.0601
3.06014
3.06018
3.06019
3.06021
3.06021
3.06022
3.06022
3.06022
3.06022
3.06022
3.06022
3.06022
3.06021
3.06021
3.06021
3.06021
3.06021
3.06021
3.06021
3.06021
3.06021
3.06021
3.06021
3.06021
3.06021
3.06021
3.06021
3.0602
3.0602
3.0602
3.0602
3.0602
3.0602
3.0602
3.0602
3.0602
3.06019
3.06019
3.06017
3.06015
3.06007
3.05999
3.05969
3.05931
3.05794
3.05601
3.04869
3.03553
3.02648
2.99983
2.98127
2.92676
2.91365
2.91076
2.9101
2.90996
2.60051
2.75332
2.79218
2.86499
2.88428
2.92193
2.93222
2.95355
2.95936
2.97133
2.97439
2.97998
2.98165
2.98564
2.98675
2.98916
2.9898
2.99109
2.99143
2.99207
2.99223
2.99253
2.9926
2.99273
2.99276
2.99281
2.99282
2.99284
2.99285
2.99285
2.99285
2.99285
2.99285
2.99285
2.99285
2.99285
2.99285
2.99285
2.99285
2.99285
2.99285
2.99285
2.99285
2.99285
2.99284
2.99284
2.99284
2.99284
2.99284
2.99284
2.99284
2.99284
2.99284
2.99284
2.99284
2.99284
2.99284
2.99283
2.99283
2.99283
2.99282
2.99282
2.9928
2.99278
2.99269
2.99261
2.99226
2.99191
2.99032
2.98854
2.98012
2.9641
2.95554
2.92266
2.90487
2.83505
2.82252
2.82008
2.81954
2.81943
2.4648
2.66407
2.69556
2.78574
2.80112
2.84776
2.85597
2.88248
2.88711
2.90202
2.90447
2.91136
2.91269
2.91769
2.91858
2.92158
2.92209
2.92371
2.92397
2.92477
2.9249
2.92527
2.92532
2.92548
2.92551
2.92557
2.92558
2.9256
2.92561
2.92562
2.92562
2.92562
2.92562
2.92562
2.92562
2.92561
2.92561
2.92561
2.92561
2.92561
2.92561
2.92561
2.92561
2.92561
2.92561
2.92561
2.9256
2.9256
2.9256
2.9256
2.9256
2.9256
2.9256
2.9256
2.9256
2.9256
2.9256
2.9256
2.92559
2.92559
2.92558
2.92558
2.92555
2.92554
2.92544
2.92537
2.92495
2.92468
2.92284
2.92147
2.91197
2.8925
2.8857
2.84501
2.83068
2.74118
2.7311
2.72943
2.72909
2.72901
2.32117
2.58158
2.59665
2.70956
2.71678
2.77521
2.77907
2.81239
2.81457
2.83334
2.83449
2.84309
2.84372
2.85003
2.85045
2.85424
2.85448
2.85651
2.85664
2.85764
2.8577
2.85816
2.85819
2.85839
2.8584
2.85848
2.85848
2.85851
2.85851
2.85852
2.85852
2.85852
2.85852
2.85852
2.85852
2.85852
2.85852
2.85852
2.85852
2.85852
2.85852
2.85852
2.85851
2.85851
2.85851
2.85851
2.85851
2.85851
2.85851
2.85851
2.85851
2.85851
2.8585
2.8585
2.8585
2.8585
2.8585
2.8585
2.8585
2.8585
2.85849
2.85848
2.85845
2.85845
2.85832
2.85829
2.85779
2.85766
2.85547
2.85486
2.84437
2.82052
2.81735
2.76644
2.75963
2.64425
2.63947
2.63887
2.63875
2.63872
2.32076
2.58115
2.59623
2.7092
2.71642
2.77496
2.77882
2.81223
2.81441
2.83323
2.83438
2.84301
2.84364
2.84998
2.8504
2.8542
2.85444
2.85648
2.85661
2.85761
2.85767
2.85814
2.85816
2.85837
2.85838
2.85846
2.85846
2.85849
2.8585
2.85851
2.85851
2.85851
2.85851
2.85851
2.85851
2.85851
2.85851
2.85851
2.85851
2.85851
2.85851
2.85851
2.85851
2.85851
2.85851
2.85851
2.85851
2.85851
2.85851
2.85851
2.85851
2.85851
2.85851
2.85851
2.85851
2.85851
2.85851
2.85851
2.8585
2.8585
2.8585
2.85849
2.85846
2.85846
2.85834
2.85831
2.8578
2.85768
2.8555
2.8549
2.84444
2.82066
2.81749
2.76667
2.75987
2.64463
2.63985
2.63925
2.63913
2.6391
2.46443
2.66369
2.69518
2.78541
2.8008
2.84752
2.85574
2.88233
2.88697
2.90193
2.90438
2.91129
2.91263
2.91764
2.91853
2.92154
2.92206
2.92368
2.92395
2.92475
2.92488
2.92524
2.9253
2.92546
2.92549
2.92555
2.92556
2.92559
2.92559
2.9256
2.92561
2.92561
2.92561
2.92561
2.92561
2.92561
2.92561
2.92561
2.92561
2.92561
2.92561
2.92561
2.92561
2.92561
2.9256
2.9256
2.9256
2.9256
2.9256
2.9256
2.9256
2.9256
2.9256
2.9256
2.9256
2.9256
2.9256
2.9256
2.9256
2.9256
2.92559
2.92559
2.92556
2.92555
2.92545
2.92539
2.92497
2.9247
2.92286
2.9215
2.91204
2.89261
2.88583
2.84521
2.83091
2.7415
2.73144
2.72977
2.72943
2.72935
2.60018
2.75299
2.79185
2.8647
2.88401
2.92172
2.93203
2.95341
2.95923
2.97124
2.97431
2.97992
2.98159
2.9856
2.98671
2.98912
2.98977
2.99107
2.9914
2.99205
2.99221
2.99251
2.99258
2.99271
2.99274
2.99279
2.99281
2.99283
2.99283
2.99284
2.99284
2.99284
2.99285
2.99285
2.99285
2.99284
2.99284
2.99284
2.99284
2.99284
2.99284
2.99284
2.99284
2.99284
2.99284
2.99284
2.99284
2.99284
2.99284
2.99284
2.99284
2.99284
2.99284
2.99284
2.99284
2.99284
2.99284
2.99284
2.99284
2.99284
2.99283
2.99283
2.99281
2.99279
2.9927
2.99263
2.99227
2.99192
2.99035
2.98858
2.98018
2.9642
2.95566
2.92284
2.90508
2.83534
2.82281
2.82038
2.81985
2.81973
2.72985
2.84689
2.88721
2.94619
2.96656
2.99709
3.00796
3.02522
3.03134
3.04102
3.04425
3.04882
3.05058
3.05379
3.05496
3.0569
3.05757
3.05862
3.05897
3.05949
3.05967
3.05991
3.05998
3.06009
3.06012
3.06016
3.06018
3.06019
3.0602
3.06021
3.06021
3.06021
3.06021
3.06021
3.06021
3.06021
3.06021
3.06021
3.06021
3.06021
3.06021
3.06021
3.06021
3.06021
3.06021
3.06021
3.06021
3.06021
3.06021
3.06021
3.06021
3.06021
3.06021
3.06021
3.06021
3.06021
3.06021
3.0602
3.0602
3.0602
3.0602
3.06019
3.06018
3.06016
3.06008
3.06
3.0597
3.05932
3.05797
3.05604
3.04874
3.03561
3.02659
2.99998
2.98145
2.927
2.9139
2.91102
2.91036
2.91022
2.85487
2.94391
2.98187
3.02929
3.04876
3.07333
3.08371
3.09755
3.1034
3.11114
3.11423
3.11792
3.11961
3.12217
3.12328
3.12483
3.12547
3.12631
3.12665
3.12706
3.12723
3.12742
3.12749
3.12758
3.12761
3.12764
3.12766
3.12767
3.12767
3.12768
3.12768
3.12768
3.12768
3.12768
3.12768
3.12768
3.12768
3.12768
3.12768
3.12768
3.12768
3.12768
3.12768
3.12768
3.12768
3.12768
3.12768
3.12768
3.12768
3.12768
3.12768
3.12768
3.12768
3.12768
3.12768
3.12768
3.12768
3.12768
3.12768
3.12768
3.12767
3.12767
3.12765
3.12763
3.12758
3.12749
3.12724
3.12687
3.12571
3.12383
3.11764
3.10697
3.09832
3.0769
3.05936
3.01711
3.00468
3.00167
3.00096
3.0008
2.97636
3.04301
3.07619
3.11355
3.13081
3.15019
3.15939
3.17028
3.17545
3.18153
3.18427
3.18719
3.18868
3.19068
3.19167
3.19288
3.19345
3.19411
3.1944
3.19473
3.19488
3.19503
3.1951
3.19516
3.19519
3.19522
3.19523
3.19524
3.19524
3.19525
3.19525
3.19525
3.19525
3.19525
3.19525
3.19525
3.19525
3.19525
3.19525
3.19525
3.19525
3.19525
3.19525
3.19525
3.19525
3.19525
3.19525
3.19525
3.19525
3.19525
3.19525
3.19525
3.19525
3.19525
3.19525
3.19525
3.19525
3.19525
3.19525
3.19525
3.19524
3.19524
3.19523
3.19521
3.19516
3.19509
3.19488
3.19455
3.19359
3.19188
3.18682
3.17833
3.17066
3.15376
3.13835
3.10611
3.09517
3.09231
3.09162
3.09146
3.09521
3.14348
3.17038
3.19866
3.21281
3.22751
3.23505
3.24328
3.24752
3.25212
3.25436
3.25658
3.25781
3.25931
3.26011
3.26103
3.2615
3.26199
3.26224
3.26248
3.2626
3.26272
3.26277
3.26282
3.26285
3.26287
3.26288
3.26288
3.26289
3.26289
3.26289
3.26289
3.26289
3.26289
3.26289
3.26289
3.26289
3.26289
3.26289
3.26289
3.26289
3.26289
3.26289
3.26289
3.26289
3.26289
3.26289
3.26289
3.26289
3.26289
3.26289
3.26289
3.26289
3.26289
3.26289
3.26289
3.26289
3.26289
3.26289
3.26289
3.26289
3.26288
3.26287
3.26286
3.26282
3.26276
3.2626
3.26232
3.26156
3.26014
3.2562
3.24974
3.24343
3.23062
3.21808
3.19433
3.18541
3.18294
3.18232
3.18218
3.21214
3.24482
3.26453
3.28437
3.29483
3.30515
3.31073
3.3165
3.31963
3.32284
3.3245
3.32607
3.32697
3.32802
3.32862
3.32925
3.3296
3.32995
3.33013
3.3303
3.33039
3.33047
3.33051
3.33055
3.33056
3.33058
3.33058
3.33059
3.33059
3.33059
3.3306
3.3306
3.3306
3.3306
3.3306
3.3306
3.3306
3.3306
3.3306
3.3306
3.3306
3.3306
3.3306
3.3306
3.3306
3.3306
3.3306
3.33059
3.33059
3.33059
3.33059
3.33059
3.33059
3.33059
3.33059
3.33059
3.33059
3.33059
3.33059
3.33059
3.33059
3.33059
3.33058
3.33057
3.33054
3.3305
3.33038
3.33017
3.32962
3.32856
3.32575
3.32119
3.31653
3.30754
3.29831
3.28201
3.27544
3.27355
3.27306
3.27295
3.32778
3.3467
3.35871
3.37047
3.37688
3.38301
3.38643
3.38985
3.39176
3.39367
3.39468
3.39562
3.39617
3.39679
3.39715
3.39753
3.39774
3.39795
3.39806
3.39816
3.39822
3.39826
3.39829
3.39831
3.39832
3.39833
3.39833
3.39834
3.39834
3.39834
3.39834
3.39834
3.39834
3.39834
3.39834
3.39834
3.39834
3.39834
3.39834
3.39834
3.39834
3.39834
3.39834
3.39834
3.39834
3.39834
3.39834
3.39834
3.39834
3.39834
3.39834
3.39834
3.39834
3.39834
3.39834
3.39834
3.39834
3.39834
3.39834
3.39834
3.39834
3.39834
3.39833
3.39833
3.39831
3.39828
3.39821
3.39808
3.39775
3.39709
3.39541
3.3927
3.38983
3.3845
3.37887
3.36933
3.36532
3.36414
3.36383
3.36376
3.44268
3.44887
3.4529
3.4568
3.45896
3.46099
3.46214
3.46327
3.46392
3.46455
3.46489
3.4652
3.46539
3.46559
3.46572
3.46584
3.46591
3.46598
3.46602
3.46605
3.46607
3.46609
3.46609
3.4661
3.4661
3.46611
3.46611
3.46611
3.46611
3.46611
3.46611
3.46611
3.46611
3.46611
3.46611
3.46611
3.46611
3.46611
3.46611
3.46611
3.46611
3.46611
3.46611
3.46611
3.46611
3.46611
3.46611
3.46611
3.46611
3.46611
3.46611
3.46611
3.46611
3.46611
3.46611
3.46611
3.46611
3.46611
3.46611
3.46611
3.46611
3.46611
3.46611
3.46611
3.4661
3.46609
3.46607
3.46602
3.46591
3.46569
3.46513
3.46423
3.46326
3.46149
3.4596
3.45647
3.45512
3.45471
3.45461
3.45458
3.43929
3.4455
3.44934
3.4527
3.45446
3.45597
3.45679
3.45758
3.458
3.45841
3.45866
3.45896
3.45914
3.45934
3.45946
3.45958
3.45965
3.45972
3.45975
3.45979
3.45981
3.45982
3.45983
3.45984
3.45984
3.45985
3.45985
3.45985
3.45985
3.45985
3.45985
3.45985
3.45985
3.45985
3.45985
3.45985
3.45985
3.45985
3.45985
3.45985
3.45985
3.45985
3.45985
3.45985
3.45985
3.45985
3.45985
3.45985
3.45985
3.45985
3.45985
3.45985
3.45985
3.45985
3.45985
3.45985
3.45984
3.45984
3.45984
3.45983
3.45982
3.45981
3.4598
3.45978
3.45975
3.45971
3.45963
3.45953
3.45931
3.45894
3.4581
3.45686
3.45568
3.45366
3.45165
3.44847
3.4471
3.4467
3.44659
3.44656
3.31762
3.3366
3.34803
3.35818
3.36338
3.36793
3.37039
3.37274
3.37402
3.37523
3.37598
3.37688
3.37743
3.37803
3.37839
3.37875
3.37895
3.37915
3.37926
3.37937
3.37942
3.37947
3.3795
3.37952
3.37953
3.37954
3.37955
3.37955
3.37956
3.37956
3.37956
3.37956
3.37956
3.37956
3.37956
3.37956
3.37956
3.37956
3.37956
3.37956
3.37956
3.37956
3.37956
3.37956
3.37956
3.37956
3.37956
3.37956
3.37956
3.37956
3.37955
3.37955
3.37955
3.37955
3.37954
3.37954
3.37953
3.37953
3.37951
3.3795
3.37948
3.37945
3.3794
3.37935
3.37925
3.37913
3.3789
3.3786
3.37793
3.37685
3.37431
3.37058
3.36707
3.36097
3.35501
3.34533
3.34128
3.34008
3.33977
3.3397
3.1952
3.228
3.24678
3.26385
3.27234
3.27999
3.28399
3.28796
3.29004
3.29207
3.29331
3.29482
3.29572
3.29675
3.29732
3.29793
3.29827
3.29861
3.29878
3.29896
3.29905
3.29913
3.29917
3.29921
3.29923
3.29925
3.29926
3.29927
3.29927
3.29928
3.29928
3.29928
3.29928
3.29928
3.29928
3.29928
3.29928
3.29928
3.29928
3.29928
3.29928
3.29928
3.29928
3.29928
3.29928
3.29928
3.29928
3.29927
3.29927
3.29927
3.29927
3.29927
3.29926
3.29926
3.29926
3.29925
3.29924
3.29922
3.2992
3.29918
3.29914
3.2991
3.29901
3.29893
3.29876
3.29857
3.29818
3.29769
3.29658
3.29484
3.29058
3.2843
3.27857
3.26829
3.25852
3.24198
3.23535
3.23343
3.23294
3.23283
3.07147
3.11997
3.14561
3.16988
3.18134
3.1922
3.19761
3.20327
3.20608
3.20896
3.21063
3.21281
3.21403
3.21549
3.21627
3.21715
3.2176
3.21808
3.21832
3.21857
3.21869
3.21881
3.21887
3.21893
3.21896
3.21898
3.21899
3.21901
3.21901
3.21902
3.21902
3.21902
3.21902
3.21902
3.21902
3.21902
3.21902
3.21902
3.21902
3.21902
3.21902
3.21902
3.21902
3.21902
3.21902
3.21901
3.21901
3.21901
3.21901
3.21901
3.21901
3.219
3.219
3.21899
3.21899
3.21898
3.21896
3.21894
3.21891
3.21888
3.21882
3.21876
3.21865
3.21853
3.21829
3.21804
3.21749
3.21683
3.21527
3.21294
3.20695
3.19802
3.19028
3.1756
3.16232
3.13825
3.12924
3.12674
3.12612
3.12598
2.9458
3.01286
3.0445
3.07644
3.09039
3.10465
3.11123
3.11871
3.12213
3.12593
3.12796
3.13086
3.13234
3.13429
3.13524
3.13641
3.13696
3.1376
3.13789
3.13822
3.13837
3.13853
3.1386
3.13867
3.13871
3.13874
3.13875
3.13877
3.13878
3.13878
3.13879
3.13879
3.13879
3.13879
3.13879
3.13879
3.13879
3.13879
3.13879
3.13879
3.13879
3.13879
3.13878
3.13878
3.13878
3.13878
3.13878
3.13878
3.13878
3.13877
3.13877
3.13877
3.13876
3.13876
3.13874
3.13873
3.13871
3.13869
3.13865
3.13861
3.13853
3.13846
3.13831
3.13817
3.13786
3.13755
3.13683
3.13603
3.13402
3.13121
3.12346
3.11172
3.10228
3.08288
3.06658
3.03394
3.02289
3.02
3.0193
3.01914
2.81745
2.90718
2.9434
2.98373
2.99943
3.01742
3.02484
3.03433
3.03819
3.04298
3.04528
3.04899
3.05067
3.05316
3.05424
3.05572
3.05635
3.05716
3.05749
3.05791
3.05808
3.05828
3.05836
3.05845
3.05849
3.05853
3.05855
3.05857
3.05858
3.05859
3.05859
3.05859
3.05859
3.05859
3.05859
3.05859
3.05859
3.05859
3.05859
3.05859
3.05859
3.05859
3.05859
3.05859
3.05859
3.05858
3.05858
3.05858
3.05858
3.05858
3.05857
3.05857
3.05856
3.05855
3.05854
3.05853
3.0585
3.05848
3.05842
3.05838
3.05828
3.0582
3.05801
3.05785
3.05745
3.05711
3.05621
3.05532
3.05284
3.04971
3.04016
3.02536
3.01471
2.99006
2.97151
2.92879
2.91624
2.9132
2.91248
2.91232
2.68552
2.80365
2.84214
2.89202
2.90841
2.93065
2.93839
2.95021
2.95425
2.96017
2.96258
2.96724
2.969
2.97212
2.97325
2.97511
2.97577
2.97678
2.97713
2.97765
2.97783
2.97808
2.97816
2.97828
2.97832
2.97837
2.97839
2.97842
2.97842
2.97843
2.97844
2.97844
2.97844
2.97844
2.97844
2.97844
2.97844
2.97844
2.97844
2.97844
2.97844
2.97844
2.97844
2.97844
2.97843
2.97843
2.97843
2.97843
2.97842
2.97842
2.97842
2.97841
2.9784
2.9784
2.97838
2.97836
2.97833
2.97831
2.97824
2.9782
2.97807
2.97799
2.97775
2.97758
2.97709
2.97673
2.97563
2.97471
2.97173
2.96852
2.95712
2.93886
2.92774
2.89703
2.87745
2.82246
2.80924
2.80633
2.80567
2.80552
2.54887
2.70333
2.74045
2.80168
2.81719
2.84448
2.85182
2.86644
2.87027
2.87754
2.87982
2.88564
2.88733
2.89121
2.89229
2.8946
2.89522
2.89648
2.89681
2.89746
2.89763
2.89794
2.89802
2.89817
2.8982
2.89827
2.89828
2.89831
2.89832
2.89833
2.89834
2.89834
2.89834
2.89834
2.89834
2.89834
2.89834
2.89834
2.89834
2.89834
2.89834
2.89834
2.89834
2.89834
2.89833
2.89833
2.89833
2.89833
2.89832
2.89832
2.89831
2.89831
2.8983
2.89829
2.89827
2.89825
2.89821
2.89819
2.89811
2.89807
2.89791
2.89783
2.89754
2.89738
2.89678
2.89644
2.8951
2.89423
2.89068
2.8877
2.87439
2.85213
2.8416
2.8036
2.78484
2.71451
2.70187
2.69941
2.69887
2.69876
2.40605
2.60771
2.63782
2.7132
2.72552
2.75914
2.76498
2.78314
2.78619
2.79515
2.79697
2.80426
2.80561
2.81046
2.81133
2.81421
2.81471
2.81628
2.81654
2.81735
2.81748
2.81787
2.81793
2.81811
2.81814
2.81822
2.81824
2.81827
2.81828
2.81829
2.8183
2.8183
2.8183
2.8183
2.8183
2.8183
2.8183
2.8183
2.8183
2.8183
2.8183
2.8183
2.8183
2.81829
2.81829
2.81829
2.81829
2.81828
2.81828
2.81828
2.81827
2.81827
2.81825
2.81825
2.81822
2.81821
2.81815
2.81813
2.81803
2.818
2.81781
2.81775
2.81738
2.81726
2.81651
2.81624
2.81461
2.81392
2.80966
2.80735
2.79208
2.76498
2.75661
2.70945
2.69434
2.60428
2.59413
2.59245
2.5921
2.59203
2.25517
2.51898
2.5334
2.62727
2.63304
2.67496
2.6777
2.70048
2.70191
2.7131
2.71395
2.72317
2.7238
2.72994
2.73034
2.73398
2.73421
2.73619
2.73631
2.73732
2.73739
2.73787
2.7379
2.73813
2.73815
2.73825
2.73825
2.7383
2.7383
2.73832
2.73833
2.73833
2.73833
2.73833
2.73833
2.73833
2.73833
2.73833
2.73833
2.73833
2.73833
2.73833
2.73832
2.73832
2.73832
2.73832
2.73831
2.73831
2.7383
2.7383
2.73829
2.73829
2.73827
2.73827
2.73823
2.73823
2.73816
2.73815
2.73802
2.73801
2.73777
2.73774
2.73728
2.73722
2.7363
2.73617
2.73414
2.73382
2.72863
2.72759
2.7103
2.67714
2.67323
2.61407
2.60689
2.49091
2.4861
2.48549
2.48537
2.48535
)
;

boundaryField
{
    F1_1
    {
        type            fixedValue;
        value           nonuniform List<scalar> 
80
(
2.17406
2.47945
2.47945
2.58625
2.58625
2.63437
2.63437
2.66148
2.66148
2.67748
2.67748
2.68519
2.68519
2.69119
2.69119
2.69494
2.69494
2.69704
2.69704
2.69812
2.69812
2.69866
2.69866
2.69891
2.69891
2.69902
2.69902
2.69908
2.69908
2.69911
2.69912
2.69912
2.69912
2.69912
2.69913
2.69913
2.69913
2.69913
2.69913
2.69913
2.69913
2.69913
2.69913
2.69913
2.69913
2.69913
2.69912
2.69912
2.69912
2.69912
2.69911
2.69911
2.69909
2.69909
2.69905
2.69905
2.69897
2.69897
2.69883
2.69883
2.69856
2.69856
2.69804
2.69804
2.697
2.697
2.69471
2.69471
2.68888
2.68888
2.6706
2.63355
2.63355
2.5663
2.5663
2.43303
2.43303
2.43303
2.43303
2.43303
)
;
    }
    F1_2
    {
        type            fixedValue;
        value           nonuniform List<scalar> 
80
(
2.2446
2.54597
2.54597
2.67455
2.67455
2.74121
2.74121
2.77932
2.77932
2.80083
2.80083
2.81067
2.81067
2.81796
2.81796
2.82233
2.82233
2.82467
2.82467
2.82583
2.82583
2.82637
2.82637
2.8266
2.8266
2.82669
2.82669
2.82673
2.82673
2.82674
2.82674
2.82674
2.82674
2.82674
2.82674
2.82674
2.82673
2.82673
2.82673
2.82673
2.82673
2.82673
2.82673
2.82673
2.82672
2.82672
2.82672
2.82672
2.82672
2.82672
2.82672
2.82672
2.82672
2.82672
2.82672
2.82672
2.82671
2.82671
2.82671
2.82671
2.8267
2.8267
2.82666
2.82666
2.82652
2.82652
2.82595
2.82595
2.82351
2.82351
2.81257
2.78583
2.78583
2.72793
2.72793
2.59518
2.59518
2.59518
2.59518
2.59518
)
;
    }
    F1_3
    {
        type            fixedValue;
        value           nonuniform List<scalar> 
80
(
2.24417
2.54552
2.54552
2.67417
2.67417
2.74094
2.74094
2.77915
2.77915
2.80072
2.80072
2.81059
2.81059
2.8179
2.8179
2.82228
2.82228
2.82464
2.82464
2.82581
2.82581
2.82634
2.82634
2.82658
2.82658
2.82667
2.82667
2.82671
2.82671
2.82672
2.82673
2.82673
2.82673
2.82673
2.82673
2.82673
2.82673
2.82673
2.82673
2.82673
2.82672
2.82672
2.82672
2.82672
2.82672
2.82672
2.82672
2.82672
2.82672
2.82672
2.82672
2.82672
2.82672
2.82672
2.82672
2.82672
2.82672
2.82672
2.82672
2.82672
2.82671
2.82671
2.82667
2.82667
2.82654
2.82654
2.82597
2.82597
2.82354
2.82354
2.81264
2.78597
2.78597
2.72818
2.72818
2.59558
2.59558
2.59558
2.59558
2.59558
)
;
    }
    F1_4
    {
        type            fixedValue;
        value           nonuniform List<scalar> 
80
(
2.1745
2.47988
2.47988
2.58649
2.58649
2.63414
2.63414
2.66013
2.66013
2.67287
2.67287
2.68345
2.68345
2.69051
2.69051
2.69469
2.69469
2.69698
2.69698
2.69814
2.69814
2.69871
2.69871
2.69897
2.69897
2.69909
2.69909
2.69914
2.69914
2.69917
2.69918
2.69918
2.69918
2.69918
2.69918
2.69918
2.69917
2.69917
2.69917
2.69917
2.69917
2.69917
2.69917
2.69917
2.69916
2.69916
2.69915
2.69915
2.69914
2.69914
2.69913
2.69913
2.69911
2.69911
2.69907
2.69907
2.69899
2.69899
2.69884
2.69884
2.69857
2.69857
2.69805
2.69805
2.69699
2.69699
2.69469
2.69469
2.68883
2.68883
2.6705
2.63335
2.63335
2.56599
2.56599
2.43259
2.43259
2.43259
2.43259
2.43259
)
;
    }
    F2_1
    {
        type            fixedValue;
        value           uniform 3.5;
    }
    F2_2
    {
        type            fixedValue;
        value           uniform 3.5;
    }
    F2_3
    {
        type            fixedValue;
        value           uniform 3.5;
    }
    F2_4
    {
        type            fixedValue;
        value           uniform 3.5;
    }
    defaultFaces
    {
        type            empty;
    }
}


// ************************************************************************* //
