/*--------------------------------*- C++ -*----------------------------------*\
| =========                 |                                                 |
| \\      /  F ield         | OpenFOAM: The Open Source CFD Toolbox           |
|  \\    /   O peration     | Version:  5.x                                   |
|   \\  /    A nd           | Web:      www.OpenFOAM.org                      |
|    \\/     M anipulation  |                                                 |
\*---------------------------------------------------------------------------*/
FoamFile
{
    version     2.0;
    format      ascii;
    class       volScalarField;
    location    "3.5001";
    object      gradTx;
}
// * * * * * * * * * * * * * * * * * * * * * * * * * * * * * * * * * * * * * //

dimensions      [0 -1 0 1 0 0 0];

internalField   nonuniform List<scalar> 
6300
(
-30.2566
-30.3262
-30.4648
-30.6709
-30.9424
-31.2762
-31.6682
-32.1131
-32.6043
-33.134
-33.6932
-34.2718
-34.8591
-35.4442
-36.0169
-30.187
-30.2573
-30.3973
-30.6056
-30.8802
-31.2181
-31.6154
-32.0668
-32.5659
-33.1046
-33.6739
-34.2632
-34.8613
-35.4567
-36.0383
-30.0472
-30.1188
-30.2615
-30.4741
-30.7548
-31.1008
-31.5086
-31.973
-32.4878
-33.0449
-33.6346
-34.2459
-34.8663
-35.4829
-36.0832
-29.836
-29.9094
-30.0559
-30.2746
-30.564
-30.9219
-31.3451
-31.829
-32.3675
-32.9525
-33.574
-34.2196
-34.8752
-35.5257
-36.1556
-29.5513
-29.627
-29.7782
-30.0045
-30.3048
-30.6778
-31.121
-31.6305
-32.2007
-32.8239
-33.4892
-34.1833
-34.8895
-35.589
-36.2623
-29.1911
-29.2692
-29.4256
-29.6603
-29.9731
-30.3637
-30.8306
-31.3713
-31.9812
-32.653
-33.3759
-34.1349
-34.9105
-35.6788
-36.4135
-28.7528
-28.8333
-28.9948
-29.238
-29.5638
-29.9733
-30.4666
-31.0431
-31.6999
-32.4312
-33.2266
-34.0702
-34.9388
-35.8022
-36.624
-28.234
-28.3165
-28.4823
-28.7331
-29.0711
-29.499
-30.0196
-30.6346
-31.3442
-32.1453
-33.0293
-33.9804
-34.9725
-35.9674
-36.9146
-27.6329
-27.7165
-27.885
-28.141
-28.4885
-28.9323
-29.4781
-30.1316
-30.8972
-31.7764
-32.7651
-33.8497
-35.0034
-36.1805
-37.3125
-26.9483
-27.0316
-27.2001
-27.4576
-27.8096
-28.2637
-28.8292
-29.5166
-30.3366
-31.2982
-32.4049
-33.6502
-35.0109
-36.4388
-37.8487
-26.1804
-26.2617
-26.4265
-26.6797
-27.0287
-27.4837
-28.0583
-28.769
-29.6347
-30.675
-31.9062
-33.3353
-34.9513
-36.7154
-38.5438
-25.3313
-25.4082
-25.5646
-25.8062
-26.1418
-26.5843
-27.1515
-27.8664
-28.7582
-29.8609
-31.2098
-32.8336
-34.7437
-36.9279
-39.3576
-24.4055
-24.4752
-24.6176
-24.8386
-25.148
-25.5604
-26.097
-26.7871
-27.671
-28.8007
-30.2385
-32.046
-34.2626
-36.8953
-40.0327
-23.4099
-23.4698
-23.5921
-23.7828
-24.0513
-24.4125
-24.8889
-25.5141
-26.3379
-27.4327
-28.8979
-30.8497
-33.3662
-36.3591
-39.6769
-22.3546
-22.4019
-22.4985
-22.6492
-22.8619
-23.1495
-23.5322
-24.0426
-24.7339
-25.6945
-27.0711
-29.0895
-31.9947
-35.4984
-36.0697
-36.5243
-36.9644
-37.382
-37.7753
-38.1436
-38.4867
-38.8052
-39.0996
-39.3703
-39.6172
-39.8399
-40.0375
-40.209
-40.354
-40.4724
-40.5651
-40.634
-40.6818
-40.7124
-40.7298
-40.738
-40.7406
-40.7404
-40.7389
-40.7367
-40.733
-40.7262
-40.7145
-40.6959
-40.6688
-40.6326
-40.5876
-40.5352
-40.4774
-40.4169
-40.3564
-40.2984
-40.2445
-40.1953
-40.1505
-40.1087
-40.0678
-40.0253
-39.9789
-39.9266
-39.8675
-39.8016
-39.7299
-39.6543
-39.5771
-39.5009
-39.4279
-39.3595
-39.2964
-39.2379
-39.1828
-39.1289
-39.0738
-39.015
-38.9508
-38.8801
-38.8029
-38.7202
-38.6339
-38.5462
-38.4598
-38.3768
-38.2988
-38.2265
-38.1597
-38.0973
-38.0376
-37.9788
-37.9191
-37.8575
-37.7942
-37.7301
-37.6679
-37.6108
-37.5631
-37.5291
-37.5128
-37.5176
-37.5454
-37.5964
-37.669
-37.76
-37.8641
-37.9751
-38.0859
-36.5524
-36.9968
-37.417
-37.8115
-38.1798
-38.5223
-38.84
-39.1339
-39.4047
-39.6523
-39.8761
-40.0749
-40.2474
-40.3924
-40.5096
-40.5995
-40.6642
-40.7068
-40.7315
-40.743
-40.746
-40.7447
-40.7422
-40.7402
-40.7389
-40.7374
-40.7334
-40.7245
-40.708
-40.682
-40.6454
-40.5985
-40.5429
-40.4813
-40.4168
-40.353
-40.2925
-40.2376
-40.189
-40.1462
-40.1074
-40.0701
-40.031
-39.9872
-39.9365
-39.8774
-39.81
-39.7356
-39.6565
-39.5757
-39.4964
-39.4212
-39.352
-39.2895
-39.2331
-39.1811
-39.1307
-39.079
-39.0229
-38.9601
-38.8894
-38.8108
-38.7254
-38.6357
-38.5444
-38.4548
-38.3695
-38.2905
-38.2186
-38.1534
-38.0934
-38.0364
-37.9799
-37.9217
-37.8601
-37.795
-37.7275
-37.6603
-37.5973
-37.5432
-37.5034
-37.4825
-37.4845
-37.5118
-37.5651
-37.6426
-37.7409
-37.8542
-37.9754
-38.0965
-36.611
-37.064
-37.4893
-37.8856
-38.2532
-38.5937
-38.9091
-39.2016
-39.4724
-39.7217
-39.9484
-40.1505
-40.3255
-40.4711
-40.586
-40.6704
-40.7264
-40.7577
-40.7697
-40.7686
-40.7605
-40.7508
-40.7434
-40.7403
-40.7416
-40.7453
-40.7479
-40.7456
-40.7341
-40.7104
-40.6729
-40.6219
-40.5595
-40.4893
-40.4161
-40.3445
-40.2788
-40.2218
-40.1745
-40.1361
-40.1042
-40.0748
-40.0434
-40.0057
-39.9583
-39.8992
-39.8285
-39.748
-39.6611
-39.5722
-39.4858
-39.4057
-39.3348
-39.2738
-39.2221
-39.1769
-39.1344
-39.0903
-39.0402
-38.9808
-38.9102
-38.8283
-38.737
-38.6395
-38.5402
-38.4434
-38.3531
-38.2719
-38.2009
-38.1393
-38.085
-38.0343
-37.9835
-37.9288
-37.8677
-37.7992
-37.7244
-37.6465
-37.5706
-37.5029
-37.4503
-37.4191
-37.4148
-37.4408
-37.4985
-37.5863
-37.7
-37.8327
-37.9756
-38.1187
-36.705
-37.1712
-37.6036
-38.0012
-38.3659
-38.7012
-39.0115
-39.3007
-39.5713
-39.8238
-40.0563
-40.2652
-40.4459
-40.594
-40.7064
-40.7824
-40.8241
-40.8365
-40.827
-40.8044
-40.7773
-40.7535
-40.7384
-40.7344
-40.741
-40.7547
-40.7698
-40.7797
-40.7778
-40.7588
-40.7201
-40.6618
-40.5872
-40.5018
-40.4129
-40.3277
-40.2526
-40.1919
-40.1471
-40.1169
-40.0974
-40.0824
-40.065
-40.0382
-39.9968
-39.9378
-39.8611
-39.7696
-39.6687
-39.5651
-39.466
-39.3773
-39.3031
-39.2449
-39.2015
-39.1686
-39.1405
-39.1102
-39.071
-39.0176
-38.947
-38.8593
-38.7572
-38.646
-38.5322
-38.4227
-38.3235
-38.2386
-38.1694
-38.1149
-38.0711
-38.0324
-37.9925
-37.9452
-37.8858
-37.8123
-37.7256
-37.6299
-37.532
-37.4409
-37.3661
-37.3169
-37.3011
-37.3242
-37.3886
-37.4927
-37.6316
-37.7963
-37.9753
-38.155
-36.8429
-37.3274
-37.7678
-38.1643
-38.521
-38.8449
-39.1443
-39.4266
-39.6965
-39.9547
-40.1982
-40.4205
-40.6134
-40.7685
-40.8795
-40.9439
-40.964
-40.9469
-40.9034
-40.8465
-40.7896
-40.7439
-40.7174
-40.7133
-40.7302
-40.7621
-40.7994
-40.831
-40.846
-40.8357
-40.7954
-40.7253
-40.6303
-40.5196
-40.4045
-40.2965
-40.2058
-40.139
-40.0986
-40.0824
-40.084
-40.0936
-40.0999
-40.0919
-40.0608
-40.0018
-39.9149
-39.8047
-39.68
-39.5517
-39.4311
-39.3278
-39.2483
-39.1949
-39.1655
-39.1536
-39.1498
-39.1429
-39.1221
-39.0789
-39.0085
-38.9109
-38.7906
-38.656
-38.5179
-38.3872
-38.2733
-38.1824
-38.117
-38.0748
-38.0496
-38.0323
-38.0122
-37.9788
-37.9243
-37.8443
-37.7397
-37.6162
-37.4837
-37.3552
-37.2449
-37.1663
-37.1313
-37.1482
-37.2211
-37.3491
-37.5258
-37.7394
-37.9738
-38.2099
-37.0382
-37.547
-37.9956
-38.385
-38.7233
-39.0239
-39.3019
-39.5706
-39.8384
-40.1069
-40.3707
-40.6185
-40.8354
-41.0065
-41.1197
-41.1694
-41.1578
-41.0954
-40.999
-40.889
-40.7858
-40.7069
-40.6641
-40.6622
-40.6981
-40.7616
-40.8372
-40.9063
-40.9507
-40.9559
-40.9138
-40.8245
-40.6962
-40.5438
-40.3857
-40.2406
-40.1245
-40.0481
-40.0153
-40.0224
-40.059
-40.1095
-40.1554
-40.1788
-40.1651
-40.1062
-40.0021
-39.8608
-39.6966
-39.5273
-39.3713
-39.244
-39.1558
-39.1104
-39.1042
-39.127
-39.1634
-39.1954
-39.2055
-39.1794
-39.1093
-38.995
-38.8443
-38.6712
-38.493
-38.3275
-38.1896
-38.0896
-38.0309
-38.01
-38.0168
-38.0362
-38.0507
-38.0429
-37.9991
-37.9117
-37.7809
-37.6152
-37.4295
-37.2433
-37.0777
-36.9531
-36.8867
-36.8914
-36.9742
-37.1352
-37.3665
-37.6525
-37.9698
-38.2905
-37.3116
-37.8534
-38.3087
-38.6793
-38.9802
-39.2356
-39.473
-39.716
-39.9795
-40.2661
-40.5665
-40.8609
-41.1237
-41.3279
-41.4516
-41.4831
-41.4248
-41.2929
-41.1144
-40.9217
-40.7471
-40.6178
-40.552
-40.5567
-40.6263
-40.744
-40.8844
-41.0171
-41.112
-41.1444
-41.1003
-40.9798
-40.7969
-40.5763
-40.3483
-40.143
-39.9861
-39.8946
-39.8745
-39.9199
-40.0142
-40.132
-40.2435
-40.319
-40.3343
-40.2756
-40.1429
-39.9498
-39.7203
-39.4839
-39.2701
-39.1039
-39.0017
-38.9693
-39.0012
-39.0807
-39.1832
-39.2796
-39.3409
-39.3433
-39.2735
-39.1315
-38.9303
-38.6935
-38.4498
-38.2277
-38.0515
-37.9372
-37.8904
-37.9053
-37.9656
-38.0471
-38.1211
-38.1588
-38.1367
-38.0414
-37.8725
-37.6428
-37.3759
-37.1016
-36.8516
-36.6558
-36.5396
-36.5221
-36.6147
-36.8197
-37.1286
-37.5202
-37.961
-38.4083
-37.6952
-38.2848
-38.7437
-39.0741
-39.3027
-39.4736
-39.636
-39.8321
-40.0872
-40.4057
-40.7708
-41.1492
-41.4964
-41.7654
-41.9162
-41.9263
-41.7978
-41.5576
-41.2503
-40.9285
-40.6433
-40.4373
-40.3387
-40.3578
-40.4851
-40.6938
-40.9427
-41.1826
-41.3634
-41.443
-41.3969
-41.225
-40.952
-40.6197
-40.278
-39.9758
-39.7536
-39.6383
-39.6393
-39.7473
-39.9354
-40.1636
-40.3835
-40.5461
-40.6101
-40.5517
-40.3707
-40.0911
-39.754
-39.4079
-39.1005
-38.8715
-38.7469
-38.7359
-38.8294
-39.0011
-39.2118
-39.4144
-39.5609
-39.6112
-39.5418
-39.3529
-39.0676
-38.7259
-38.3752
-38.0618
-37.8241
-37.6876
-37.661
-37.735
-37.8838
-38.0688
-38.2435
-38.3605
-38.3797
-38.2771
-38.0513
-37.7239
-37.3329
-36.9249
-36.5473
-36.2436
-36.0501
-35.9941
-36.0933
-36.3547
-36.7713
-37.3168
-37.9426
-38.5817
-38.2381
-38.9043
-39.364
-39.6156
-39.7083
-39.7238
-39.7509
-39.8633
-40.1039
-40.478
-40.9563
-41.4823
-41.9817
-42.3731
-42.5837
-42.5694
-42.3318
-41.9189
-41.4071
-40.8825
-40.4256
-40.1023
-39.9561
-40.0029
-40.2271
-40.5856
-41.0139
-41.4333
-41.7607
-41.9228
-41.8745
-41.6161
-41.1924
-40.6765
-40.151
-39.6934
-39.3672
-39.2144
-39.2502
-39.4591
-39.7991
-40.207
-40.606
-40.915
-41.0623
-41.0041
-40.7405
-40.3154
-39.8005
-39.2762
-38.8182
-38.4886
-38.3284
-38.3521
-38.5449
-38.8654
-39.252
-39.6298
-39.9195
-40.0512
-39.9823
-39.713
-39.286
-38.7712
-38.2468
-37.7867
-37.4511
-37.2797
-37.2866
-37.4568
-37.7499
-38.1052
-38.449
-38.7031
-38.798
-38.6899
-38.3764
-37.8964
-37.3144
-36.7042
-36.1364
-35.6728
-35.3626
-35.2426
-35.3381
-35.666
-36.2285
-36.9978
-37.9049
-38.8415
-39.0144
-39.8213
-40.2839
-40.3861
-40.2253
-39.9574
-39.7431
-39.7099
-39.9284
-40.4005
-41.0732
-41.854
-42.6227
-43.2412
-43.5753
-43.5339
-43.1185
-42.4226
-41.5827
-40.7392
-40.0158
-39.5121
-39.2959
-39.3926
-39.7758
-40.3772
-41.0979
-41.8165
-42.3962
-42.7054
-42.655
-42.2452
-41.5655
-40.7473
-39.9262
-39.2219
-38.731
-38.5192
-38.6116
-38.9824
-39.565
-40.2632
-40.9582
-41.5168
-41.8105
-41.7523
-41.3427
-40.6693
-39.8605
-39.0488
-38.3511
-37.8617
-37.6449
-37.7249
-38.0765
-38.6346
-39.305
-39.972
-40.5054
-40.7801
-40.7114
-40.2999
-39.631
-38.83
-38.0258
-37.3324
-36.8413
-36.615
-36.6768
-37.0017
-37.5262
-38.158
-38.7836
-39.275
-39.5083
-39.3982
-38.9413
-38.2156
-37.3365
-36.4221
-35.5755
-34.8807
-34.4012
-34.1805
-34.2481
-34.6395
-35.3876
-36.4802
-37.8245
-39.2393
-40.1303
-41.2344
-41.7226
-41.5354
-40.8967
-40.114
-39.475
-39.1942
-39.3879
-40.0344
-41.0345
-42.243
-43.4801
-44.5192
-45.1075
-45.0372
-44.3093
-43.1339
-41.7635
-40.423
-39.2897
-38.5081
-38.185
-38.3699
-39.0102
-39.997
-41.1852
-42.3997
-43.4214
-44.0061
-43.953
-43.2629
-42.1381
-40.8224
-39.5334
-38.4433
-37.6927
-37.3862
-37.5723
-38.2005
-39.1647
-40.3238
-41.5069
-42.5002
-43.0654
-43.0065
-42.3248
-41.218
-39.9246
-38.6572
-37.584
-36.8423
-36.5341
-36.7067
-37.3106
-38.2419
-39.3628
-40.5063
-41.4639
-42.0035
-41.9341
-41.2573
-40.1662
-38.8932
-37.6454
-36.5866
-35.8503
-35.5354
-35.6879
-36.2591
-37.1479
-38.2197
-39.3112
-40.2184
-40.713
-40.6059
-39.8932
-38.7556
-37.4093
-36.0423
-34.7959
-33.7786
-33.0669
-32.7031
-32.692
-33.0992
-34.0504
-35.6002
-37.6425
-39.8668
-41.7089
-43.5346
-44.1338
-43.3343
-41.7754
-40.0638
-38.6912
-37.9953
-38.1957
-39.1595
-40.6956
-42.5911
-44.6228
-46.4463
-47.5884
-47.4875
-46.1448
-44.1259
-41.9013
-39.8084
-38.0573
-36.844
-36.3428
-36.6914
-37.746
-39.3266
-41.2347
-43.2609
-45.0757
-46.2253
-46.1684
-44.9067
-42.9855
-40.8591
-38.8543
-37.1758
-36.0151
-35.5436
-35.8965
-36.9348
-38.4837
-40.3499
-42.3291
-44.0999
-45.2189
-45.1578
-43.9189
-42.0354
-39.9513
-37.9861
-36.3395
-35.1987
-34.7307
-35.0676
-36.0731
-37.5762
-39.3878
-41.3085
-43.0243
-44.1035
-44.0316
-42.8113
-40.9631
-38.9199
-36.9929
-35.3763
-34.2522
-33.7826
-34.0959
-35.0592
-36.5061
-38.2526
-40.1044
-41.7556
-42.7841
-42.6854
-41.4568
-39.5958
-37.5119
-35.4888
-33.6864
-32.2362
-31.2316
-30.7179
-30.5331
-30.7757
-31.8509
-34.0111
-37.1982
-40.8956
-43.7424
-47.6013
-48.5589
-46.2258
-42.8731
-39.525
-36.9332
-35.506
-35.9042
-37.4607
-39.8393
-42.743
-46.0657
-49.3545
-51.8596
-51.726
-48.954
-45.4145
-41.8493
-38.7018
-36.0507
-34.1544
-33.2771
-33.9964
-35.7242
-38.1849
-41.1143
-44.4263
-47.688
-50.1821
-50.1187
-47.5004
-44.1286
-40.7206
-37.7055
-35.1625
-33.3451
-32.5138
-33.2339
-34.9338
-37.3459
-40.2131
-43.4516
-46.638
-49.0718
-49.0052
-46.4414
-43.1416
-39.8068
-36.8561
-34.3667
-32.5861
-31.7684
-32.4656
-34.1189
-36.4662
-39.2559
-42.4055
-45.5015
-47.8611
-47.7824
-45.2696
-42.0408
-38.7792
-35.8932
-33.457
-31.7113
-30.9026
-31.5678
-33.1628
-35.4328
-38.1338
-41.1863
-44.1894
-46.4782
-46.392
-43.9307
-40.7571
-37.5268
-34.6172
-32.0698
-30.0519
-28.6893
-28.2589
-27.7587
-27.2531
-28.089
-30.943
-36.0189
-42.6723
-45.2224
-55.8463
-57.7234
-50.5844
-43.9621
-37.8962
-33.4981
-30.3882
-31.9452
-34.578
-38.2269
-42.2917
-47.5574
-53.3916
-59.9306
-59.7639
-52.8686
-46.7403
-41.196
-36.8806
-32.9571
-29.9976
-27.9126
-29.849
-32.6474
-36.3681
-40.443
-45.6643
-51.406
-57.8215
-57.7481
-51.179
-45.3239
-40.0163
-35.877
-32.1045
-29.2552
-27.2501
-29.1604
-31.9071
-35.5528
-39.5418
-44.649
-50.26
-56.5251
-56.4485
-50.0237
-44.2982
-39.109
-35.0619
-31.3734
-28.5867
-26.6245
-28.487
-31.1651
-34.7192
-38.6057
-43.5797
-49.0391
-55.1295
-55.0385
-48.7589
-43.1654
-38.0978
-34.1454
-30.5436
-27.8208
-25.9002
-27.7007
-30.2943
-33.7389
-37.5087
-42.3389
-47.652
-53.5918
-53.5188
-47.4299
-42
-37.0798
-33.2239
-29.6906
-26.9238
-24.8044
-25.9001
-24.992
-21.7985
-21.4212
-24.675
-32.5681
-45.9429
-39.2802
-76.6831
-79.8764
-54.2048
-44.2486
-33.8642
-28.2079
-18.5505
-26.437
-30.2325
-36.0155
-40.1114
-48.2305
-56.4138
-77.6582
-77.4909
-55.679
-47.2252
-38.7733
-34.4952
-28.4753
-24.5816
-16.7573
-24.4602
-28.2427
-34.0412
-38.1212
-46.1528
-54.1537
-74.8053
-74.7315
-53.8296
-45.731
-37.6298
-33.5205
-27.7169
-23.9495
-16.3484
-23.8827
-27.5859
-33.2656
-37.2601
-45.1211
-52.9402
-73.1106
-73.033
-52.5992
-44.6827
-36.7666
-32.7512
-27.0814
-23.4001
-15.9731
-23.3339
-26.9497
-32.4936
-36.3895
-44.0548
-51.668
-71.2989
-71.2062
-51.2599
-43.5327
-35.8102
-31.8929
-26.3642
-22.7751
-15.5394
-22.6912
-26.2004
-31.5767
-35.3564
-42.7961
-50.2119
-69.3639
-69.3083
-49.9801
-42.5087
-35.0998
-31.3663
-26.2074
-22.8635
-16.2896
-26.4268
-25.5156
-12.2884
-9.52427
-11.7265
-21.2234
-52.319
-38.1984
-38.3014
-38.3744
-38.412
-38.4123
-38.3774
-38.3121
-38.2239
-38.1211
-38.0128
-37.9076
-37.8133
-37.7366
-37.6826
-37.6547
-38.2193
-38.3312
-38.4099
-38.4491
-38.4475
-38.4076
-38.3351
-38.2383
-38.1266
-38.0096
-37.8965
-37.7957
-37.7139
-37.6564
-37.6267
-38.2634
-38.3943
-38.4845
-38.5271
-38.521
-38.4701
-38.3823
-38.2676
-38.1372
-38.0023
-37.8732
-37.7589
-37.6667
-37.6022
-37.569
-38.3362
-38.4981
-38.6066
-38.6535
-38.639
-38.5696
-38.4562
-38.3124
-38.1522
-37.9891
-37.835
-37.6999
-37.5918
-37.5165
-37.4779
-38.4468
-38.6554
-38.79
-38.8414
-38.812
-38.7128
-38.5605
-38.3734
-38.17
-37.9668
-37.7776
-37.6138
-37.4839
-37.394
-37.3481
-38.6102
-38.8865
-39.0565
-39.11
-39.0545
-38.9092
-38.6993
-38.4507
-38.1876
-37.9303
-37.6948
-37.4937
-37.3359
-37.2275
-37.1724
-38.8508
-39.224
-39.4392
-39.4875
-39.3867
-39.1702
-38.8765
-38.5425
-38.1994
-37.8717
-37.5776
-37.3302
-37.1383
-37.0076
-36.9414
-39.2081
-39.7194
-39.9887
-40.014
-39.8346
-39.5081
-39.094
-38.6434
-38.1956
-37.7793
-37.4137
-37.1111
-36.8794
-36.7229
-36.6442
-39.7486
-40.4568
-40.782
-40.7453
-40.4292
-39.9336
-39.348
-38.7411
-38.1604
-37.6362
-37.1865
-36.8212
-36.5451
-36.3605
-36.2681
-40.5893
-41.5771
-41.9372
-41.7558
-41.2034
-40.449
-39.6232
-38.8125
-38.0685
-37.4185
-36.8749
-36.4418
-36.1193
-35.9057
-35.7995
-41.9482
-43.325
-43.6337
-43.1371
-42.1793
-41.0359
-39.8831
-38.8172
-37.8825
-37.0942
-36.4526
-35.9519
-35.5844
-35.3436
-35.2245
-44.2646
-46.1408
-46.1355
-44.9794
-43.3406
-41.6319
-40.056
-38.6904
-37.55
-36.6231
-35.8894
-35.3284
-34.9229
-34.6597
-34.5302
-48.5181
-50.8379
-49.788
-47.3042
-44.5719
-42.0951
-40.0185
-38.3383
-37.004
-35.9587
-35.1534
-34.5495
-34.1189
-33.8419
-33.7064
-57.1904
-58.9048
-54.8744
-49.8776
-45.5474
-42.1579
-39.5843
-37.6403
-36.1689
-35.0543
-34.2157
-33.5972
-33.1611
-32.8827
-32.747
-77.6102
-72.7166
-60.9271
-51.7841
-45.582
-41.4048
-38.5204
-36.4697
-34.9767
-33.874
-33.0578
-32.4624
-32.0455
-31.7806
-31.6518
-21.344
-21.3777
-21.4465
-21.5532
-21.7031
-21.9045
-22.1715
-22.528
-23.0168
-23.7202
-24.8087
-26.6643
-30.1895
-37.3956
-50.4397
-20.402
-20.4224
-20.4638
-20.527
-20.6138
-20.7273
-20.8725
-21.0592
-21.3068
-21.6583
-22.2201
-23.3009
-25.9917
-35.0662
-75.6314
-19.4457
-19.4526
-19.4659
-19.4845
-19.5062
-19.528
-19.5446
-19.5481
-19.5248
-19.4507
-19.2718
-18.8202
-17.3578
-10.8727
24.9324
-18.4848
-18.4785
-18.4645
-18.4397
-18.3986
-18.3323
-18.226
-18.0555
-17.7783
-17.3161
-16.5139
-15.0427
-12.2088
-7.0363
-3.56544
-17.5282
-17.5098
-17.4707
-17.4064
-17.3086
-17.1643
-16.9521
-16.6371
-16.1601
-15.4178
-14.2212
-12.2129
-8.68398
-2.01426
13.6106
-16.5845
-16.5554
-16.4945
-16.3962
-16.251
-16.0435
-15.7496
-15.331
-14.7263
-13.835
-12.4925
-10.4399
-7.34089
-3.21075
-1.62569
-15.6611
-15.6231
-15.5443
-15.4188
-15.2368
-14.9828
-14.6337
-14.1542
-13.4914
-12.5653
-11.2572
-9.39387
-6.71397
-2.63991
5.53614
-14.7641
-14.7191
-14.6265
-14.4807
-14.2725
-13.9883
-13.6083
-13.1048
-12.4394
-11.5611
-10.4073
-8.91497
-7.05522
-4.91714
-2.9209
-13.8984
-13.8483
-13.7458
-13.5859
-13.3611
-13.0603
-12.6688
-12.1679
-11.5352
-10.748
-9.79248
-8.69127
-7.5898
-7.09536
-9.99171
-13.0675
-13.014
-12.9049
-12.7363
-12.5024
-12.1953
-11.8053
-11.3225
-10.7384
-10.0519
-9.27883
-8.46779
-7.70289
-6.91833
-4.19211
-12.2739
-12.2182
-12.1053
-11.9322
-11.6947
-11.3878
-11.0064
-10.5474
-10.0128
-9.416
-8.79157
-8.21229
-7.82967
-8.08919
-11.3811
-11.519
-11.4622
-11.3475
-11.1728
-10.9353
-10.6321
-10.2614
-9.8248
-9.33046
-8.79929
-8.27298
-7.82025
-7.51058
-7.15373
-4.39097
-10.8036
-10.7465
-10.6315
-10.4571
-10.2215
-9.92322
-9.56232
-9.14235
-8.67372
-8.17924
-7.70334
-7.32889
-7.22428
-7.88863
-11.9473
-10.1279
-10.071
-9.95675
-9.78391
-9.55125
-9.25789
-8.90428
-8.49372
-8.03495
-7.54634
-7.06326
-6.65018
-6.40401
-6.26599
-3.97482
-9.49167
-9.43551
-9.3227
-9.1523
-8.9232
-8.63445
-8.28582
-7.87862
-7.41695
-6.90962
-6.37462
-5.85558
-5.50866
-6.13815
-12.7584
-8.89448
-8.83937
-8.72867
-8.56149
-8.33661
-8.05263
-7.70805
-7.30138
-6.83069
-6.29216
-5.67492
-4.94148
-3.93528
-1.84962
6.20444
-8.33561
-8.28186
-8.1739
-8.01079
-7.79111
-7.51291
-7.17345
-6.76864
-6.29158
-5.7294
-5.05593
-4.21682
-3.11157
-1.7054
-1.58342
-7.81409
-7.76204
-7.65746
-7.4994
-7.28628
-7.01577
-6.68427
-6.28609
-5.81163
-5.24394
-4.55201
-3.67703
-2.49684
-0.669007
3.47004
-7.32876
-7.27873
-7.17821
-7.02627
-6.82135
-6.56101
-6.24143
-5.85655
-5.39645
-4.84479
-4.17525
-3.3492
-2.33191
-1.23724
-1.35869
-6.87821
-6.8305
-6.73469
-6.58997
-6.39493
-6.14741
-5.84398
-5.47928
-5.04487
-4.52753
-3.90719
-3.15423
-2.22072
-0.960572
1.57819
-6.46083
-6.41571
-6.32518
-6.18863
-6.005
-5.77267
-5.48911
-5.15046
-4.75091
-4.28185
-3.73125
-3.08466
-2.3364
-1.57147
-1.57179
-6.07481
-6.03248
-5.94767
-5.82001
-5.64893
-5.43354
-5.17252
-4.86397
-4.50525
-4.09281
-3.62199
-3.08572
-2.46367
-1.65059
0.00959658
-5.71821
-5.67879
-5.59993
-5.48158
-5.32366
-5.12612
-4.88896
-4.61236
-4.29694
-3.94433
-3.55823
-3.14637
-2.72364
-2.31764
-1.98762
-5.38901
-5.35252
-5.27965
-5.17065
-5.02593
-4.84624
-4.63282
-4.38772
-4.11448
-3.81914
-3.5124
-3.21458
-2.97202
-2.93156
-3.75564
-5.08518
-5.05155
-4.9845
-4.88454
-4.75252
-4.58983
-4.39869
-4.18267
-3.9474
-3.70189
-3.46038
-3.24447
-3.08006
-2.94479
-2.3269
-4.80473
-4.7738
-4.71224
-4.62073
-4.50043
-4.35319
-4.18189
-3.991
-3.78745
-3.58189
-3.39063
-3.2386
-3.16791
-3.29282
-4.23805
-4.5458
-4.51734
-4.4608
-4.37693
-4.26707
-4.13328
-3.97871
-3.80816
-3.62892
-3.45199
-3.29366
-3.17628
-3.11994
-3.07087
-2.38289
-4.30665
-4.28042
-4.22835
-4.15122
-4.05037
-3.92783
-3.78665
-3.63139
-3.46882
-3.30918
-3.16828
-3.07161
-3.06695
-3.2923
-4.47264
-4.08573
-4.06148
-4.01332
-3.94201
-3.84875
-3.73534
-3.60441
-3.45972
-3.3067
-3.1534
-3.01222
-2.90306
-2.85425
-2.85024
-2.25552
-3.88168
-3.85916
-3.81441
-3.74807
-3.66114
-3.55504
-3.43175
-3.29385
-3.14479
-2.98921
-2.83395
-2.69262
-2.61046
-2.81809
-4.7519
-3.6933
-3.67229
-3.63051
-3.56845
-3.48686
-3.38672
-3.26925
-3.13575
-2.98745
-2.82483
-2.64603
-2.44112
-2.16545
-1.58692
0.703063
-3.51954
-3.49987
-3.46071
-3.40241
-3.32548
-3.23046
-3.11789
-2.98796
-2.84007
-2.6717
-2.47627
-2.23878
-1.93079
-1.54401
-1.54594
-3.35945
-3.341
-3.30422
-3.24935
-3.17667
-3.08642
-2.9786
-2.85268
-2.70693
-2.53737
-2.33575
-2.08541
-1.75085
-1.23091
-0.0303932
-3.2122
-3.19488
-3.16032
-3.10867
-3.04008
-2.95459
-2.85192
-2.73118
-2.59033
-2.42534
-2.22907
-1.99054
-1.69967
-1.3902
-1.447
-3.077
-3.06074
-3.0283
-2.97978
-2.91526
-2.8347
-2.73779
-2.62367
-2.49053
-2.33505
-2.15176
-1.93205
-1.66142
-1.29493
-0.542906
-2.9531
-2.93787
-2.90748
-2.86201
-2.80158
-2.72619
-2.63565
-2.52939
-2.40624
-2.26411
-2.09974
-1.90893
-1.68975
-1.46718
-1.47667
-2.83979
-2.82555
-2.79713
-2.75466
-2.69831
-2.62821
-2.54443
-2.44686
-2.33516
-2.20862
-2.0661
-1.90552
-1.72045
-1.47809
-0.976914
-2.7364
-2.72309
-2.69655
-2.65697
-2.6046
-2.53976
-2.4628
-2.37417
-2.27439
-2.16424
-2.04503
-1.91913
-1.79096
-1.66853
-1.56919
-2.64226
-2.62982
-2.60505
-2.56818
-2.51958
-2.45972
-2.3893
-2.30922
-2.22083
-2.12617
-2.02861
-1.93435
-1.85748
-1.84277
-2.09246
-2.55678
-2.54513
-2.52196
-2.48756
-2.44237
-2.38705
-2.32251
-2.25007
-2.17165
-2.09013
-2.0099
-1.93751
-1.88084
-1.83321
-1.63922
-2.47941
-2.46845
-2.44668
-2.41444
-2.37222
-2.32079
-2.26122
-2.19509
-2.12464
-2.05321
-1.98576
-1.92977
-1.89795
-1.92511
-2.20116
-2.40966
-2.39929
-2.3787
-2.34825
-2.30848
-2.26018
-2.20452
-2.14311
-2.07832
-2.01354
-1.95367
-1.90526
-1.87412
-1.844
-1.62207
-2.34712
-2.33722
-2.31759
-2.28855
-2.25067
-2.20471
-2.1518
-2.0935
-2.032
-1.97048
-1.91363
-1.86879
-1.84957
-1.89596
-2.22158
-2.29147
-2.28193
-2.26301
-2.23502
-2.19847
-2.15408
-2.10285
-2.04612
-1.98572
-1.9242
-1.86526
-1.81452
-1.77949
-1.75386
-1.5516
-2.24246
-2.23317
-2.21473
-2.18743
-2.15172
-2.10821
-2.05772
-2.00129
-1.94021
-1.87612
-1.8112
-1.74937
-1.70288
-1.7343
-2.23677
-2.19991
-2.19077
-2.17261
-2.1457
-2.11039
-2.0672
-2.01673
-1.9597
-1.89682
-1.82863
-1.75502
-1.67357
-1.57217
-1.3875
-0.737784
-2.16371
-2.15463
-2.13659
-2.1098
-2.07455
-2.03124
-1.98031
-1.92218
-1.85711
-1.7849
-1.70429
-1.61163
-1.4993
-1.36357
-1.32068
-2.13382
-2.12473
-2.10666
-2.07977
-2.04431
-2.00059
-1.9489
-1.88949
-1.82236
-1.74703
-1.66193
-1.56335
-1.44268
-1.27509
-0.942068
-2.11024
-2.10109
-2.08286
-2.0557
-2.01982
-1.97546
-1.92286
-1.86216
-1.79332
-1.71594
-1.62894
-1.53042
-1.41864
-1.30145
-1.26389
-2.09302
-2.08374
-2.06526
-2.03769
-2.00123
-1.95607
-1.90244
-1.84048
-1.77022
-1.69153
-1.60394
-1.5067
-1.39835
-1.27246
-1.07698
-2.08225
-2.0728
-2.05397
-2.02587
-1.98867
-1.94258
-1.88781
-1.82455
-1.75299
-1.67329
-1.58566
-1.49069
-1.39024
-1.29179
-1.23695
-2.07805
-2.06838
-2.04911
-2.02036
-1.98229
-1.93512
-1.87907
-1.8144
-1.74143
-1.66055
-1.57249
-1.4785
-1.38073
-1.28079
-1.165
-2.08056
-2.07063
-2.05085
-2.02132
-1.98224
-1.93382
-1.87631
-1.81003
-1.73534
-1.65281
-1.56342
-1.46894
-1.37271
-1.28081
-1.20647
-2.08996
-2.07974
-2.05935
-2.02893
-1.98868
-1.93883
-1.87966
-1.81149
-1.7347
-1.64984
-1.55788
-1.46061
-1.3617
-1.26861
-1.19632
-2.10647
-2.09589
-2.07481
-2.04336
-2.00178
-1.95031
-1.88926
-1.81893
-1.73965
-1.65182
-1.55601
-1.45341
-1.34663
-1.24196
-1.15813
-2.13033
-2.11934
-2.09746
-2.06484
-2.02174
-1.96845
-1.90529
-1.83258
-1.75055
-1.65933
-1.55887
-1.4491
-1.33011
-1.20086
-1.03957
-2.16182
-2.15037
-2.12756
-2.0936
-2.04878
-1.99344
-1.92797
-1.8527
-1.76784
-1.67324
-1.5682
-1.4512
-1.32071
-1.182
-1.09441
-2.20126
-2.18927
-2.1654
-2.1299
-2.08311
-2.02546
-1.95744
-1.87949
-1.79189
-1.69442
-1.58582
-1.46268
-1.31701
-1.12767
-0.803027
-2.24902
-2.23641
-2.21132
-2.17404
-2.12498
-2.06469
-1.99379
-1.91297
-1.82278
-1.72331
-1.61353
-1.48979
-1.34365
-1.16733
-1.05545
-2.30554
-2.29221
-2.26571
-2.22636
-2.17465
-2.11127
-2.03704
-1.95297
-1.86011
-1.75937
-1.65094
-1.53244
-1.39124
-1.16228
-0.460937
-2.37132
-2.35716
-2.32901
-2.28725
-2.23243
-2.16537
-2.08712
-1.99906
-1.9029
-1.80076
-1.69533
-1.59086
-1.49977
-1.48533
-1.95075
-2.44692
-2.43181
-2.40177
-2.3572
-2.29872
-2.22723
-2.14401
-2.05076
-1.94984
-1.84444
-1.73904
-1.63999
-1.55505
-1.47524
-1.19241
-2.53301
-2.51682
-2.48461
-2.4368
-2.37402
-2.29724
-2.20784
-2.10779
-1.99988
-1.88812
-1.77833
-1.67932
-1.60677
-1.6062
-1.92432
-2.63035
-2.61293
-2.57829
-2.52678
-2.45904
-2.37601
-2.27908
-2.17027
-2.05258
-1.93042
-1.81013
-1.70025
-1.60849
-1.51595
-1.1905
-2.73977
-2.72101
-2.68366
-2.62803
-2.55468
-2.46443
-2.35854
-2.2389
-2.10839
-1.9714
-1.83468
-1.70859
-1.61075
-1.58754
-1.88268
-2.86221
-2.842
-2.80171
-2.74159
-2.66204
-2.5637
-2.44754
-2.31508
-2.16868
-2.0122
-1.85183
-1.69731
-1.56117
-1.43816
-1.12784
-2.99866
-2.97693
-2.93353
-2.86862
-2.78244
-2.67533
-2.54787
-2.40091
-2.23597
-2.05568
-1.86492
-1.67326
-1.50246
-1.41898
-1.7098
-3.15021
-3.12689
-3.08028
-3.01042
-2.91735
-2.8011
-2.66171
-2.49924
-2.3139
-2.10642
-1.87862
-1.6347
-1.3831
-1.13999
-0.941434
-3.31793
-3.29302
-3.24317
-3.16832
-3.06834
-2.94293
-2.79158
-2.61342
-2.40721
-2.17124
-1.90352
-1.60146
-1.25784
-0.830204
-0.0351839
-3.50295
-3.47645
-3.4234
-3.34367
-3.23698
-3.10277
-2.94004
-2.74708
-2.52115
-2.25812
-1.95226
-1.59705
-1.19091
-0.775672
-0.715899
-3.70636
-3.67831
-3.62215
-3.53774
-3.42472
-3.28241
-3.10949
-2.90363
-2.66086
-2.37471
-2.03525
-1.62802
-1.13028
-0.47443
0.783932
-3.92923
-3.89967
-3.84052
-3.75165
-3.63279
-3.48328
-3.3018
-3.08581
-2.83067
-2.52831
-2.16531
-1.72182
-1.17943
-0.591739
-0.583988
-4.17262
-4.14158
-4.0795
-3.98639
-3.86213
-3.70634
-3.51806
-3.29515
-3.03328
-2.72401
-2.35125
-1.88427
-1.26005
-0.306453
1.79506
-4.43756
-4.40502
-4.34003
-4.24274
-4.11335
-3.95196
-3.75835
-3.53153
-3.26878
-2.96378
-2.60261
-2.15592
-1.56938
-0.818478
-0.685871
-4.72508
-4.69098
-4.62296
-4.52138
-4.38679
-4.21994
-4.0217
-3.79285
-3.53363
-3.24254
-2.91334
-2.52469
-1.99284
-0.901283
3.24461
-5.03626
-5.00049
-4.92919
-4.82292
-4.68261
-4.5097
-4.30628
-4.07525
-3.82058
-3.54775
-3.26534
-2.99289
-2.80497
-3.10531
-6.45111
-5.37228
-5.33465
-5.25968
-5.14808
-5.00106
-4.82064
-4.61002
-4.37406
-4.12014
-3.85959
-3.6104
-3.40238
-3.27802
-3.1946
-1.96504
-5.73441
-5.69471
-5.61561
-5.49782
-5.34268
-5.15255
-4.93133
-4.68531
-4.4243
-4.16353
-3.92686
-3.75377
-3.72261
-4.08
-6.18602
-6.1241
-6.08213
-5.99839
-5.87348
-5.70859
-5.50602
-5.26987
-5.00696
-4.72828
-4.45073
-4.19917
-4.00657
-3.89739
-3.75123
-2.30864
-6.54293
-6.49852
-6.40976
-6.27688
-6.10064
-5.88281
-5.62696
-5.33955
-5.03146
-4.71986
-4.43051
-4.20143
-4.09783
-4.32292
-6.10042
-6.99257
-6.9457
-6.85173
-6.71038
-6.52156
-6.28599
-6.00594
-5.68648
-5.33706
-4.97353
-4.61999
-4.30914
-4.07
-3.81672
-2.45567
-7.47475
-7.42556
-7.3266
-7.17681
-6.97494
-6.72004
-6.41228
-6.05419
-5.65246
-5.22023
-4.77982
-4.36704
-4.05198
-4.08
-5.78041
-7.99106
-7.93997
-7.83675
-7.67939
-7.46512
-7.19078
-6.85355
-6.45219
-5.98901
-5.47261
-4.92045
-4.35707
-3.79571
-3.18209
-2.37136
-8.54284
-8.49057
-8.38448
-8.22148
-7.997
-7.70518
-7.33935
-6.89311
-6.3625
-5.7498
-5.06886
-4.34567
-3.57571
-2.42125
1.60067
-9.13089
-9.07852
-8.9717
-8.80623
-8.57561
-8.27094
-7.88096
-7.39261
-6.79297
-6.07437
-5.24659
-4.36676
-3.62273
-3.65193
-7.21848
-9.75529
-9.70425
-9.59964
-9.43621
-9.20563
-8.89594
-8.49086
-7.96937
-7.30606
-6.47473
-5.46046
-4.29354
-3.13279
-2.42623
-2.93032
-10.4151
-10.3672
-10.2684
-10.1128
-9.89058
-9.58714
-9.1816
-8.64458
-7.9358
-7.00211
-5.78032
-4.21604
-2.32745
-0.359923
1.00769
-11.1082
-11.0653
-10.9766
-10.8356
-10.6319
-10.3492
-9.9636
-9.43906
-8.7217
-7.72956
-6.338
-4.36376
-1.57697
2.12288
5.89535
-11.831
-11.7953
-11.721
-11.602
-11.428
-11.1828
-10.842
-10.3674
-9.69839
-8.73437
-7.30031
-5.07574
-1.4606
4.55513
13.4027
-12.5786
-12.5521
-12.4965
-12.4066
-12.2734
-12.0829
-11.8133
-11.4308
-10.8799
-10.0656
-8.81157
-6.75341
-3.01134
5.02073
27.054
-152.704
-91.6988
-64.0494
-50.8359
-43.7576
-39.5291
-36.7809
-34.8853
-33.5259
-32.5292
-31.794
-31.2584
-30.8836
-30.6454
-30.5296
-190.114
-85.7923
-56.863
-45.7133
-40.1199
-36.7959
-34.6072
-33.0726
-31.955
-31.125
-30.5064
-30.0521
-29.7324
-29.5284
-29.429
49.3718
-27.5306
-37.3297
-36.7322
-34.906
-33.2742
-31.9793
-30.9702
-30.1844
-29.5739
-29.1046
-28.7524
-28.5008
-28.3387
-28.2593
-7.08022
-15.8691
-25.0162
-28.6044
-29.5571
-29.5186
-29.1529
-28.7125
-28.2919
-27.9248
-27.6213
-27.3827
-27.207
-27.0915
-27.0344
27.3426
-3.9596
-16.5632
-22.3066
-24.8965
-25.99
-26.3783
-26.4411
-26.3622
-26.2313
-26.093
-25.9693
-25.8712
-25.8038
-25.7697
-1.26843
-5.03589
-12.8741
-18.1987
-21.275
-22.9511
-23.8296
-24.2682
-24.4685
-24.543
-24.5544
-24.5381
-24.5139
-24.493
-24.4812
12.1949
-3.28587
-10.9307
-15.6521
-18.6258
-20.466
-21.5864
-22.2606
-22.6621
-22.8984
-23.0351
-23.1123
-23.1543
-23.1757
-23.1846
-3.04937
-6.97807
-11.0173
-14.3191
-16.7638
-18.4807
-19.653
-20.4423
-20.9705
-21.3229
-21.557
-21.7109
-21.809
-21.8671
-21.894
-15.5654
-10.594
-11.6161
-13.5812
-15.4072
-16.8736
-17.9854
-18.8052
-19.4009