/*--------------------------------*- C++ -*----------------------------------*\
| =========                 |                                                 |
| \\      /  F ield         | OpenFOAM: The Open Source CFD Toolbox           |
|  \\    /   O peration     | Version:  5.x                                   |
|   \\  /    A nd           | Web:      www.OpenFOAM.org                      |
|    \\/     M anipulation  |                                                 |
\*---------------------------------------------------------------------------*/
FoamFile
{
    version     2.0;
    format      ascii;
    class       volScalarField;
    location    "4.6";
    object      gradTy;
}
// * * * * * * * * * * * * * * * * * * * * * * * * * * * * * * * * * * * * * //

dimensions      [0 -1 0 1 0 0 0];

internalField   nonuniform List<scalar> 
3200
(
18.2509
8.63666
11.731
8.31331
9.75078
8.04082
8.79496
7.79388
8.24269
7.60204
7.87736
7.51861
7.72899
7.31881
7.53099
7.14084
7.33996
6.98148
7.16321
6.83934
7.00265
6.7137
6.85879
6.60362
6.73166
6.50744
6.62173
6.42201
6.53705
6.36783
6.23257
6.31979
6.2012
6.25891
6.16664
6.21135
6.13725
6.17322
6.11297
6.14224
6.09307
6.11693
6.07685
6.09622
6.06381
6.07931
6.05363
6.06558
6.04636
6.05459
6.04345
6.04962
6.03798
6.0434
6.03439
6.03805
6.03307
6.03414
6.03476
6.03211
6.04082
6.03249
6.05381
6.03601
6.07876
6.04292
6.12662
6.0485
6.22319
6.00095
6.29311
7.10818
6.42143
7.94633
6.78002
9.89378
9.12363
9.00585
8.98154
8.9763
17.0111
9.75267
11.3333
8.77728
9.54796
8.27095
8.6747
7.92634
8.16549
7.68617
7.83317
7.56539
7.67751
7.37022
7.48231
7.19005
7.29532
7.02681
7.12294
6.88036
6.96675
6.75034
6.82711
6.636
6.70378
6.53588
6.59655
6.44718
6.50955
6.37159
6.25745
6.30538
6.21681
6.24757
6.17852
6.20222
6.14674
6.1658
6.12068
6.13618
6.09936
6.11199
6.08198
6.09223
6.06796
6.07616
6.05693
6.06325
6.04885
6.05322
6.0449
6.04818
6.03945
6.04231
6.03556
6.03748
6.03375
6.0343
6.03475
6.03332
6.03983
6.03538
6.05131
6.04178
6.07371
6.05442
6.11681
6.07405
6.2034
6.07629
6.35154
6.99297
6.62312
7.7638
7.1572
9.50071
9.09751
9.00209
8.98075
8.97607
16.0617
10.5151
11.1011
9.10819
9.42706
8.43386
8.60052
8.01931
8.11704
7.74524
7.80557
7.59697
7.6428
7.40486
7.4498
7.22335
7.26564
7.05756
7.09621
6.90821
6.94296
6.77524
6.80613
6.65802
6.68532
6.55518
6.57976
6.46388
6.49005
6.3744
6.27584
6.29642
6.22764
6.24022
6.18667
6.19626
6.15324
6.16093
6.12596
6.13221
6.10366
6.10875
6.08549
6.08962
6.0708
6.07411
6.0592
6.06174
6.05059
6.05236
6.04588
6.04722
6.04046
6.0416
6.03637
6.03714
6.03425
6.03446
6.03481
6.03422
6.03928
6.03744
6.04982
6.04589
6.07071
6.06266
6.11121
6.09272
6.19387
6.13553
6.39533
6.91822
6.76439
7.65118
7.4164
9.21753
9.0591
8.99538
8.97932
8.97567
15.3341
11.0323
10.972
9.34663
9.35864
8.55038
8.55627
8.08512
8.08737
7.78703
7.78874
7.61838
7.61945
7.42818
7.42815
7.2459
7.24597
7.07844
7.07854
6.92716
6.92727
6.7922
6.79232
6.67302
6.67316
6.56828
6.56859
6.47489
6.47623
6.37652
6.28946
6.29104
6.23521
6.23552
6.1923
6.1924
6.15772
6.15777
6.12959
6.12962
6.10662
6.10665
6.08791
6.08793
6.07277
6.07278
6.06077
6.06078
6.05181
6.05183
6.04656
6.04658
6.04116
6.04115
6.03695
6.03694
6.03463
6.03461
6.03492
6.03489
6.039
6.03894
6.04899
6.04885
6.06902
6.06862
6.10828
6.1066
6.19072
6.18206
6.4286
6.87054
6.86403
7.58342
7.59415
9.01273
9.0169
8.98677
8.97739
8.97512
14.7786
11.3797
10.9055
9.51957
9.32303
8.63432
8.53109
8.132
8.06981
7.81674
7.77878
7.63294
7.60378
7.44385
7.41379
7.26116
7.233
7.09261
7.06694
6.94005
6.91699
6.80376
6.78328
6.68325
6.6652
6.57718
6.56118
6.48209
6.46645
6.37813
6.29954
6.28795
6.24054
6.23255
6.1962
6.18993
6.16081
6.15574
6.13209
6.12796
6.10866
6.1053
6.08957
6.08684
6.07412
6.07194
6.06187
6.06018
6.05266
6.05152
6.04702
6.04616
6.04163
6.04086
6.03736
6.03683
6.03491
6.03475
6.03504
6.0354
6.03889
6.04004
6.04856
6.051
6.06816
6.07299
6.10702
6.11705
6.19128
6.21837
6.45405
6.8408
6.93464
7.54401
7.71559
8.86451
8.97607
8.97733
8.97517
8.97449
14.359
11.6102
10.8755
9.64494
9.30711
8.69485
8.51775
8.16539
8.05987
7.83784
7.77314
7.64282
7.59335
7.45432
7.40433
7.27144
7.22452
7.1022
7.05938
6.94879
6.91031
6.8116
6.77742
6.69019
6.66003
6.5832
6.5563
6.48676
6.45957
6.37935
6.30694
6.28629
6.24429
6.23072
6.19889
6.18837
6.16293
6.15446
6.1338
6.12691
6.11006
6.10444
6.09072
6.08615
6.07506
6.07141
6.06263
6.05981
6.05327
6.05133
6.04733
6.04588
6.04196
6.04068
6.03765
6.03678
6.03513
6.03487
6.03516
6.03578
6.03888
6.04084
6.04838
6.05256
6.06779
6.07619
6.10671
6.12493
6.19373
6.24634
6.47346
6.82277
6.98463
7.52211
7.79794
8.75779
8.93966
8.96803
8.9729
8.97382
14.0494
11.7602
10.8653
9.7346
9.30217
8.73798
8.51142
8.18892
8.0546
7.85266
7.77012
7.64947
7.5865
7.46124
7.39818
7.27828
7.21906
7.1086
7.05453
6.95464
6.90604
6.81686
6.77369
6.69485
6.65674
6.58722
6.55312
6.48974
6.45482
6.38026
6.31226
6.28549
6.2469
6.22962
6.20073
6.18741
6.16438
6.15366
6.13497
6.12626
6.11101
6.10391
6.0915
6.08573
6.0757
6.07108
6.06315
6.05959
6.05369
6.05123
6.04755
6.0457
6.04219
6.04058
6.03785
6.03677
6.03529
6.03498
6.03526
6.03606
6.03891
6.04141
6.04833
6.05368
6.06769
6.0785
6.10689
6.13079
6.19683
6.26733
6.48798
6.81224
7.01959
7.51068
7.85293
8.68218
8.90939
8.95966
8.97078
8.9732
13.8314
11.8544
10.8646
9.79632
9.3025
8.7676
8.50892
8.20492
8.05204
7.86269
7.76863
7.65382
7.58215
7.46566
7.39431
7.28269
7.21565
7.11275
7.05152
6.95843
6.9034
6.82028
6.77138
6.69788
6.6547
6.58982
6.55111
6.49158
6.45165
6.38091
6.31594
6.28516
6.24866
6.22899
6.20195
6.18683
6.16533
6.15318
6.13574
6.12586
6.11164
6.10359
6.09201
6.08547
6.07612
6.07089
6.06349
6.05947
6.05397
6.05118
6.04769
6.04559
6.04233
6.04051
6.03799
6.03676
6.0354
6.03505
6.03534
6.03626
6.03896
6.04181
6.04835
6.05445
6.06772
6.08011
6.10726
6.13496
6.19974
6.28232
6.49836
6.80639
7.04321
7.5052
7.88843
8.63066
8.88619
8.95287
8.96902
8.97267
13.6924
11.909
10.867
9.83507
9.30447
8.78617
8.50824
8.21487
8.05093
7.86891
7.76797
7.65644
7.57959
7.46828
7.39205
7.28532
7.21368
7.11523
7.04978
6.96071
6.90188
6.82234
6.77005
6.6997
6.65353
6.59137
6.54993
6.49263
6.44971
6.38133
6.31825
6.28506
6.24975
6.22865
6.2027
6.18652
6.1659
6.15291
6.1362
6.12564
6.11202
6.10341
6.09232
6.08533
6.07637
6.07078
6.0637
6.0594
6.05414
6.05115
6.04778
6.04553
6.04242
6.04048
6.03807
6.03677
6.03547
6.03511
6.0354
6.03638
6.039
6.04206
6.04838
6.05494
6.06779
6.08113
6.1076
6.13765
6.20195
6.29196
6.50505
6.80339
7.05782
7.50287
7.90958
8.5986
8.87056
8.94809
8.96775
8.97229
13.6248
11.9341
10.869
9.85376
9.30595
8.79512
8.50818
8.21965
8.05055
7.87189
7.76774
7.65767
7.5784
7.4695
7.39101
7.28655
7.21277
7.11639
7.04899
6.96177
6.90119
6.8233
6.76945
6.70056
6.65299
6.5921
6.54939
6.49311
6.4488
6.38153
6.31936
6.28504
6.25027
6.2285
6.20305
6.18638
6.16618
6.15279
6.13642
6.12554
6.1122
6.10333
6.09247
6.08527
6.07649
6.07073
6.0638
6.05937
6.05422
6.05114
6.04782
6.0455
6.04246
6.04047
6.03811
6.03677
6.03551
6.03513
6.03543
6.03645
6.03903
6.04219
6.0484
6.05518
6.06783
6.08163
6.1078
6.13897
6.20312
6.29669
6.50834
6.80214
7.0648
7.50207
7.91944
8.58323
8.86269
8.94563
8.96709
8.97209
-13.7447
-11.9396
-10.7107
-9.37158
-8.56117
-7.66928
-7.10731
-6.45544
-6.04044
-5.55843
-5.26506
-4.93955
-4.70204
-4.37371
-4.13818
-3.82671
-3.60907
-3.32816
-3.13412
-2.8863
-2.71599
-2.49948
-2.35094
-2.16232
-2.03258
-1.867
-1.75072
-1.59713
-1.47507
-1.288
-1.11288
-1.01462
-0.912692
-0.847636
-0.769888
-0.718017
-0.653864
-0.610574
-0.556531
-0.519942
-0.474141
-0.443123
-0.404304
-0.378076
-0.345362
-0.323431
-0.296369
-0.278637
-0.257439
-0.244361
-0.229619
-0.218767
-0.203655
-0.192771
-0.178324
-0.168206
-0.155119
-0.146072
-0.134512
-0.126584
-0.116542
-0.109737
-0.101256
-0.0957466
-0.0893301
-0.0860838
-0.084195
-0.0877645
-0.10222
-0.13635
-0.226849
-0.373438
-0.528362
-0.815317
-1.11834
-1.62793
-1.8435
-1.90755
-1.92414
-1.92799
-13.8169
-11.9165
-10.7151
-9.35044
-8.56443
-7.65608
-7.11091
-6.44597
-6.04312
-5.55089
-5.26635
-4.93603
-4.70568
-4.37
-4.14122
-3.82297
-3.61161
-3.32469
-3.13628
-2.8832
-2.71785
-2.49677
-2.35255
-2.15997
-2.03401
-1.86503
-1.75222
-1.59587
-1.47767
-1.28752
-1.1098
-1.01477
-0.91122
-0.848146
-0.768855
-0.718511
-0.653032
-0.611007
-0.555835
-0.520313
-0.473552
-0.443438
-0.403802
-0.378337
-0.344933
-0.323638
-0.295997
-0.278778
-0.257116
-0.244429
-0.229465
-0.218939
-0.203488
-0.192915
-0.178152
-0.168326
-0.154958
-0.146174
-0.134368
-0.12667
-0.116414
-0.109805
-0.101138
-0.095784
-0.0892043
-0.0860306
-0.0839777
-0.08733
-0.101434
-0.134096
-0.224606
-0.373105
-0.523081
-0.814675
-1.11007
-1.63969
-1.84956
-1.90945
-1.92464
-1.92815
-13.9651
-11.8655
-10.7261
-9.30615
-8.57259
-7.62837
-7.11931
-6.42602
-6.04939
-5.53505
-5.26948
-4.92852
-4.71354
-4.36202
-4.14785
-3.81495
-3.61717
-3.31728
-3.14103
-2.8766
-2.72193
-2.49098
-2.3561
-2.15496
-2.03718
-1.86082
-1.75546
-1.5931
-1.48316
-1.28655
-1.10343
-1.01527
-0.908132
-0.849308
-0.766668
-0.719613
-0.651265
-0.611968
-0.554356
-0.521136
-0.472299
-0.444135
-0.402736
-0.378919
-0.344021
-0.324101
-0.295211
-0.279098
-0.256436
-0.24459
-0.229136
-0.219309
-0.203127
-0.193229
-0.177785
-0.16859
-0.154616
-0.146398
-0.134061
-0.12686
-0.116141
-0.109957
-0.100889
-0.0958717
-0.0889435
-0.0859336
-0.0835452
-0.0864665
-0.0999062
-0.129529
-0.220044
-0.372714
-0.512136
-0.813881
-1.09244
-1.66424
-1.86161
-1.91314
-1.92562
-1.92844
-14.1973
-11.7761
-10.7483
-9.23442
-8.58919
-7.58326
-7.13508
-6.39341
-6.06117
-5.50926
-5.27563
-4.91598
-4.72686
-4.34855
-4.15923
-3.80153
-3.62683
-3.30493
-3.14931
-2.86562
-2.72907
-2.48136
-2.3623
-2.14662
-2.04269
-1.85377
-1.76098
-1.58822
-1.49211
-1.28505
-1.09326
-1.01652
-0.903115
-0.851426
-0.76306
-0.72157
-0.648339
-0.613664
-0.551904
-0.522586
-0.470222
-0.445364
-0.400969
-0.379945
-0.342513
-0.324925
-0.293916
-0.279682
-0.255325
-0.244897
-0.228583
-0.219936
-0.202516
-0.193766
-0.177169
-0.169046
-0.154046
-0.146789
-0.13355
-0.127192
-0.115688
-0.110226
-0.100479
-0.0960371
-0.0885273
-0.085813
-0.0829015
-0.0851834
-0.0977324
-0.122527
-0.212997
-0.372853
-0.494699
-0.814014
-1.06308
-1.70377
-1.87951
-1.91839
-1.92698
-1.92885
-14.5264
-11.631
-10.7899
-9.12794
-8.62022
-7.51584
-7.1626
-6.34443
-6.08174
-5.47074
-5.28682
-4.89662
-4.74775
-4.32753
-4.17735
-3.78079
-3.64237
-3.28594
-3.16271
-2.84875
-2.74067
-2.46659
-2.37237
-2.13381
-2.0516
-1.84288
-1.76971
-1.58029
-1.50551
-1.28294
-1.07849
-1.01925
-0.895632
-0.855015
-0.757581
-0.7248
-0.643873
-0.616447
-0.548156
-0.52496
-0.467048
-0.447378
-0.39827
-0.381631
-0.340213
-0.326288
-0.291952
-0.280673
-0.253659
-0.245442
-0.227726
-0.220916
-0.20156
-0.194618
-0.176216
-0.169779
-0.153167
-0.14742
-0.132765
-0.127731
-0.114995
-0.110667
-0.0998589
-0.0963264
-0.0879204
-0.0857014
-0.0820512
-0.0834906
-0.0950698
-0.1129
-0.203175
-0.374513
-0.469363
-0.816958
-1.01805
-1.7619
-1.90287
-1.92485
-1.92862
-1.92933
-14.9713
-11.4037
-10.8644
-8.97531
-8.67512
-7.41838
-7.20872
-6.27324
-6.11625
-5.41515
-5.30628
-4.86762
-4.77951
-4.29572
-4.20534
-3.74974
-3.66665
-3.25763
-3.18376
-2.82366
-2.75891
-2.44464
-2.38822
-2.11476
-2.06558
-1.82658
-1.7831
-1.56777
-1.52482
-1.28011
-1.05791
-1.02456
-0.884832
-0.860879
-0.749518
-0.729958
-0.63727
-0.620868
-0.542608
-0.528726
-0.462346
-0.450571
-0.394274
-0.38431
-0.336815
-0.32847
-0.289067
-0.282296
-0.251244
-0.246369
-0.226434
-0.222399
-0.20011
-0.195931
-0.174785
-0.170921
-0.151855
-0.148409
-0.131598
-0.12858
-0.113967
-0.111369
-0.0989486
-0.096812
-0.0870672
-0.0856483
-0.0809984
-0.0813934
-0.0921582
-0.100375
-0.190112
-0.379234
-0.433918
-0.825762
-0.951318
-1.84414
-1.931
-1.93203
-1.93037
-1.92984
-15.5589
-11.0553
-10.9928
-8.75912
-8.76829
-7.27905
-7.28388
-6.17091
-6.17253
-5.33588
-5.33893
-4.8246
-4.8271
-4.24817
-4.24793
-3.70379
-3.70396
-3.21591
-3.21625
-2.78675
-2.78713
-2.41238
-2.41275
-2.08673
-2.08716
-1.80245
-1.80336
-1.54837
-1.55221
-1.27638
-1.02979
-1.03412
-0.869405
-0.870243
-0.737786
-0.738045
-0.627618
-0.627765
-0.534487
-0.534595
-0.455463
-0.455547
-0.388427
-0.388492
-0.331854
-0.331896
-0.284879
-0.284891
-0.247783
-0.247899
-0.224507
-0.224614
-0.197937
-0.197924
-0.172666
-0.172672
-0.14992
-0.149934
-0.129879
-0.129893
-0.112459
-0.112465
-0.0976283
-0.0976031
-0.0858822
-0.0857256
-0.079745
-0.0788824
-0.0893495
-0.0845904
-0.173073
-0.389332
-0.384987
-0.845218
-0.853892
-1.95861
-1.96256
-1.93933
-1.93208
-1.93033
-16.3266
-10.5292
-11.2081
-8.45323
-8.9214
-7.07996
-7.40376
-6.02401
-6.26235
-5.22302
-5.39228
-4.76091
-4.89795
-4.17748
-4.31229
-3.63607
-3.76081
-3.15466
-3.26595
-2.73266
-2.83036
-2.36511
-2.45035
-2.04566
-2.12014
-1.76691
-1.83386
-1.51861
-1.59079
-1.27148
-0.991632
-1.05045
-0.847358
-0.884941
-0.720749
-0.750561
-0.613546
-0.638402
-0.522634
-0.543635
-0.445413
-0.463214
-0.379895
-0.394945
-0.324627
-0.337207
-0.278813
-0.288974
-0.242834
-0.250373
-0.221643
-0.227902
-0.1947
-0.200928
-0.169537
-0.175336
-0.147076
-0.152264
-0.12736
-0.131906
-0.110256
-0.114156
-0.0957168
-0.0988633
-0.0842358
-0.0860369
-0.0782879
-0.0759193
-0.0871509
-0.0650771
-0.150925
-0.408256
-0.317473
-0.882737
-0.712625
-2.11712
-1.99521
-1.94598
-1.93357
-1.93075
-17.3263
-9.74412
-11.5608
-8.01842
-9.16691
-6.79426
-7.59178
-5.81238
-6.40328
-5.06183
-5.47765
-4.66649
-5.00311
-4.07258
-4.4091
-3.53632
-3.8469
-3.06472
-3.34143
-2.65333
-2.89612
-2.29583
-2.50754
-1.98542
-2.17024
-1.71456
-1.87966
-1.47336
-1.64503
-1.26501
-0.939931
-1.07726
-0.815688
-0.907714
-0.695955
-0.769754
-0.593003
-0.654666
-0.505312
-0.557447
-0.430725
-0.474928
-0.36743
-0.404814
-0.314087
-0.345359
-0.270006
-0.29531
-0.235741
-0.254298
-0.217381
-0.232771
-0.189886
-0.205439
-0.164923
-0.179363
-0.142895
-0.155799
-0.123664
-0.134969
-0.107032
-0.116742
-0.0929431
-0.100836
-0.0819334
-0.0867315
-0.0766166
-0.0724132
-0.0862854
-0.0412478
-0.121918
-0.441104
-0.223718
-0.94967
-0.508373
-2.33669
-2.02495
-1.95117
-1.93467
-1.93105
-18.6295
-8.58329
-12.1281
-7.39619
-9.55348
-6.38198
-7.88311
-5.50617
-6.62172
-4.83056
-5.61233
-4.52637
-5.15916
-3.91722
-4.55448
-3.38944
-3.97691
-2.93262
-3.4557
-2.53695
-2.99579
-2.19426
-2.59428
-1.89707
-2.24613
-1.63755
-1.94847
-1.40515
-1.7215
-1.25649
-0.869866
-1.12016
-0.769997
-0.942762
-0.659854
-0.799085
-0.563031
-0.67948
-0.480033
-0.578515
-0.409295
-0.492806
-0.34926
-0.419898
-0.298751
-0.357859
-0.257251
-0.305121
-0.225597
-0.260517
-0.211098
-0.240041
-0.182803
-0.212261
-0.158173
-0.18549
-0.1368
-0.161195
-0.118287
-0.139658
-0.102354
-0.120722
-0.0889512
-0.103929
-0.0787292
-0.0880687
-0.0747515
-0.0682267
-0.0878146
-0.0124286
-0.0834009
-0.495435
-0.0922489
-1.0633
-0.213344
-2.64185
-2.04517
-1.95405
-1.93525
-1.93121
18.6295
8.58329
12.1281
7.3962
9.55348
6.38198
7.88311
5.50617
6.62173
4.83056
5.61233
4.52637
5.15917
3.91722
4.55449
3.38944
3.97691
2.93262
3.4557
2.53695
2.99579
2.19426
2.59428
1.89707
2.24613
1.63755
1.94847
1.40515
1.7215
1.25649
0.869865
1.12016
0.769996
0.942762
0.659853
0.799084
0.56303
0.67948
0.480032
0.578515
0.409295
0.492806
0.349259
0.419898
0.29875
0.357859
0.25725
0.30512
0.225596
0.260517
0.211098
0.240041
0.182803
0.212261
0.158173
0.18549
0.1368
0.161195
0.118286
0.139658
0.102354
0.120722
0.0889511
0.103929
0.078729
0.0880687
0.0747516
0.0682266
0.0878151
0.0124273
0.0834015
0.495447
0.0922505
1.06333
0.213351
2.64192
2.04522
1.9541
1.9353
1.93126
17.3263
9.74413
11.5608
8.01842
9.16691
6.79427
7.59179
5.81239
6.40329
5.06183
5.47766
4.66649
5.00311
4.07259
4.4091
3.53632
3.84691
3.06473
3.34143
2.65333
2.89612
2.29584
2.50755
1.98542
2.17025
1.71457
1.87966
1.47336
1.64504
1.26502
0.939933
1.07726
0.81569
0.907716
0.695957
0.769756
0.593004
0.654668
0.505314
0.557449
0.430727
0.47493
0.367432
0.404816
0.314088
0.34536
0.270007
0.295312
0.235742
0.2543
0.217383
0.232772
0.189888
0.205441
0.164924
0.179364
0.142897
0.1558
0.123665
0.13497
0.107033
0.116744
0.0929441
0.100837
0.0819344
0.0867325
0.0766177
0.0724141
0.0862868
0.041248
0.12192
0.441115
0.223723
0.949695
0.508387
2.33675
2.025
1.95122
1.93472
1.9311
16.3266
10.5292
11.2082
8.45324
8.92142
7.07997
7.40377
6.02402
6.26236
5.22303
5.39229
4.76092
4.89796
4.17749
4.3123
3.63608
3.76082
3.15467
3.26596
2.73266
2.83037
2.36512
2.45036
2.04566
2.12015
1.76692
1.83387
1.51862
1.5908
1.27149
0.991637
1.05046
0.847363
0.884946
0.720753
0.750565
0.61355
0.638406
0.522637
0.543639
0.445417
0.463218
0.379898
0.394948
0.32463
0.33721
0.278815
0.288977
0.242837
0.250375
0.221646
0.227905
0.194702
0.200931
0.16954
0.175338
0.147078
0.152266
0.127362
0.131909
0.110258
0.114158
0.0957188
0.0988653
0.0842377
0.0860388
0.0782897
0.075921
0.087153
0.0650785
0.150929
0.408266
0.317481
0.88276
0.712644
2.11718
1.99526
1.94603
1.93361
1.9308
15.5589
11.0553
10.9928
8.75914
8.7683
7.27906
7.28389
6.17092
6.17254
5.33589
5.33894
4.82461
4.82711
4.24818
4.24794
3.7038
3.70397
3.21592
3.21626
2.78676
2.78714
2.41239
2.41276
2.08674
2.08716
1.80246
1.80337
1.54837
1.55222
1.27639
1.0298
1.03413
0.86941
0.870248
0.737791
0.738049
0.627623
0.627769
0.534492
0.534599
0.455467
0.455551
0.388431
0.388496
0.331857
0.3319
0.284883
0.284895
0.247786
0.247903
0.224511
0.224617
0.19794
0.197927
0.172669
0.172675
0.149923
0.149937
0.129882
0.129896
0.112462
0.112468
0.0976306
0.0976054
0.0858844
0.0857277
0.0797471
0.0788845
0.0893519
0.0845925
0.173078
0.389343
0.384997
0.84524
0.853915
1.95866
1.96261
1.93938
1.93213
1.93038
14.9713
11.4037
10.8644
8.97532
8.67514
7.4184
7.20873
6.27325
6.11626
5.41517
5.30629
4.86763
4.77952
4.29573
4.20535
3.74975
3.66666
3.25764
3.18377
2.82367
2.75892
2.44465
2.38823
2.11476
2.06559
1.82658
1.78311
1.56778
1.52483
1.28011
1.05792
1.02456
0.884838
0.860885
0.749523
0.729963
0.637275
0.620872
0.542613
0.528731
0.46235
0.450575
0.394278
0.384314
0.336819
0.328474
0.289071
0.282299
0.251247
0.246372
0.226437
0.222402
0.200113
0.195934
0.174789
0.170924
0.151858
0.148412
0.1316
0.128582
0.113969
0.111371
0.0989511
0.0968144
0.0870695
0.0856506
0.0810007
0.0813956
0.0921608
0.100378
0.190117
0.379244
0.433929
0.825784
0.951343
1.84418
1.93105
1.93208
1.93042
1.92989
14.5264
11.631
10.7899
9.12796
8.62023
7.51585
7.16261
6.34444
6.08175
5.47076
5.28684
4.89664
4.74777
4.32755
4.17736
3.7808
3.64239
3.28595
3.16273
2.84876
2.74068
2.4666
2.37238
2.13382
2.05161
1.84289
1.76972
1.5803
1.50552
1.28295
1.0785
1.01926
0.895638
0.855021
0.757586
0.724805
0.643878
0.616452
0.548161
0.524965
0.467052
0.447382
0.398274
0.381635
0.340217
0.326292
0.291955
0.280677
0.253663
0.245445
0.227729
0.220919
0.201564
0.194621
0.176219
0.169782
0.15317
0.147423
0.132768
0.127734
0.114997
0.11067
0.0998614
0.0963289
0.0879227
0.0857038
0.0820535
0.083493
0.0950725
0.112903
0.203181
0.374524
0.469375
0.81698
1.01808
1.76194
1.90292
1.92489
1.92866
1.92938
14.1973
11.7761
10.7483
9.23443
8.5892
7.58327
7.13509
6.39342
6.06118
5.50927
5.27564
4.91599
4.72687
4.34857
4.15924
3.80154
3.62684
3.30494
3.14932
2.86563
2.72908
2.48137
2.36231
2.14663
2.0427
1.85378
1.76099
1.58823
1.49212
1.28506
1.09327
1.01653
0.903121
0.851432
0.763066
0.721575
0.648344
0.613669
0.551908
0.52259
0.470227
0.445369
0.400973
0.379949
0.342517
0.324929
0.293919
0.279686
0.255329
0.244901
0.228586
0.219939
0.202519
0.193769
0.177172
0.169049
0.154049
0.146791
0.133553
0.127194
0.11569
0.110228
0.100482
0.0960395
0.0885296
0.0858153
0.0829039
0.0851858
0.0977352
0.122531
0.213003
0.372863
0.494712
0.814036
1.06311
1.70381
1.87955
1.91843
1.92703
1.9289
13.9651
11.8655
10.7261
9.30617
8.57261
7.62838
7.11932
6.42603
6.0494
5.53506
5.26949
4.92853
4.71355
4.36203
4.14786
3.81496
3.61718
3.31729
3.14104
2.87661
2.72194
2.49099
2.35611
2.15497
2.03719
1.86082
1.75547
1.5931
1.48316
1.28656
1.10344
1.01527
0.908138
0.849314
0.766673
0.719618
0.65127
0.611973
0.55436
0.52114
0.472304
0.444139
0.40274
0.378922
0.344025
0.324105
0.295215
0.279101
0.256439
0.244593
0.229139
0.219312
0.20313
0.193232
0.177788
0.168593
0.154619
0.146401
0.134064
0.126863
0.116143
0.10996
0.100892
0.0958741
0.0889459
0.0859359
0.0835475
0.086469
0.099909
0.129533
0.22005
0.372724
0.51215
0.813902
1.09247
1.66428
1.86166
1.91319
1.92567
1.92849
13.8169
11.9165
10.7151
9.35045
8.56444
7.6561
7.11092
6.44598
6.04313
5.5509
5.26636
4.93604
4.70569
4.37001
4.14123
3.82298
3.61162
3.3247
3.13629
2.88321
2.71785
2.49677
2.35256
2.15998
2.03402
1.86504
1.75222
1.59588
1.47768
1.28753
1.10981
1.01478
0.911226
0.848151
0.76886
0.718516
0.653037
0.611011
0.555839
0.520317
0.473556
0.443441
0.403806
0.378341
0.344936
0.323642
0.296001
0.278781
0.257119
0.244432
0.229468
0.218942
0.20349
0.192918
0.178155
0.168329
0.154961
0.146176
0.13437
0.126673
0.116416
0.109808
0.10114
0.0957863
0.0892066
0.0860328
0.0839799
0.0873324
0.101436
0.1341
0.224612
0.373116
0.523095
0.814697
1.1101
1.63973
1.8496
1.9095
1.92469
1.9282
13.7447
11.9396
10.7107
9.37159
8.56118
7.66929
7.10732
6.45545
6.04045
5.55844
5.26507
4.93956
4.70205
4.37372
4.13819
3.82672
3.60908
3.32817
3.13413
2.88631
2.716
2.49949
2.35095
2.16233
2.03258
1.867
1.75073
1.59714
1.47507
1.288
1.11288
1.01463
0.912697
0.847641
0.769892
0.718022
0.653869
0.610578
0.556535
0.519946
0.474145
0.443127
0.404307
0.378079
0.345365
0.323434
0.296372
0.27864
0.257442
0.244363
0.229622
0.218769
0.203658
0.192774
0.178326
0.168209
0.155121
0.146074
0.134514
0.126587
0.116544
0.109739
0.101258
0.0957488
0.0893321
0.0860859
0.0841971
0.0877668
0.102223
0.136354
0.226855
0.373448
0.528376
0.815339
1.11836
1.62797
1.84354
1.9076
1.92418
1.92804
-13.6283
-11.939
-10.8758
-9.8643
-9.32064
-8.81779
-8.53993
-8.26879
-8.11826
-7.96954
-7.86698
-7.73122
-7.63556
-7.51092
-7.42396
-7.31166
-7.23355
-7.13294
-7.06313
-6.97343
-6.91137
-6.8319
-6.77709
-6.70712
-6.65889
-6.59722
-6.55401
-6.49713
-6.45237
-6.38447
-6.32174
-6.28712
-6.25206
-6.23012
-6.20447
-6.18767
-6.16732
-6.15383
-6.13734
-6.12638
-6.11294
-6.10401
-6.09307
-6.08582
-6.07698
-6.07119
-6.06421
-6.05974
-6.05456
-6.05145
-6.0481
-6.04577
-6.04271
-6.0407
-6.03832
-6.03696
-6.03568
-6.03529
-6.03557
-6.03658
-6.03914
-6.0423
-6.0485
-6.05527
-6.06791
-6.0817
-6.10787
-6.13903
-6.20318
-6.29674
-6.50838
-6.80218
-7.06483
-7.5021
-7.91946
-8.58324
-8.86271
-8.94565
-8.96711
-8.9721
-13.6958
-11.914
-10.8738
-9.84559
-9.31901
-8.80879
-8.53966
-8.26397
-8.11819
-7.96769
-7.86831
-7.72961
-7.63672
-7.50941
-7.42498
-7.31029
-7.23445
-7.13171
-7.06392
-6.97232
-6.91206
-6.83091
-6.7777
-6.70625
-6.65942
-6.59649
-6.55456
-6.49664
-6.45329
-6.38426
-6.32062
-6.28714
-6.25154
-6.23027
-6.20411
-6.18781
-6.16704
-6.15395
-6.13712
-6.12648
-6.11276
-6.10409
-6.09292
-6.08589
-6.07686
-6.07123
-6.06411
-6.05977
-6.05448
-6.05146
-6.04806
-6.0458
-6.04267
-6.04071
-6.03828
-6.03696
-6.03564
-6.03527
-6.03554
-6.03652
-6.03912
-6.04217
-6.04848
-6.05503
-6.06787
-6.08121
-6.10767
-6.13771
-6.202
-6.29201
-6.50509
-6.80342
-7.05785
-7.50289
-7.9096
-8.59862
-8.87057
-8.94811
-8.96777
-8.9723
-13.8347
-11.8593
-10.8712
-9.80681
-9.31672
-8.79014
-8.53966
-8.25395
-8.11831
-7.9638
-7.87121
-7.72618
-7.63926
-7.50619
-7.4272
-7.30737
-7.23643
-7.12908
-7.06567
-6.96996
-6.9136
-6.82881
-6.77903
-6.7044
-6.66061
-6.59491
-6.55574
-6.49557
-6.45524
-6.38384
-6.31829
-6.28724
-6.25044
-6.23061
-6.20336
-6.18813
-6.16646
-6.15422
-6.13665
-6.1267
-6.11238
-6.10427
-6.09261
-6.08603
-6.07661
-6.07134
-6.06389
-6.05984
-6.0543
-6.05149
-6.04798
-6.04586
-6.04258
-6.04074
-6.03819
-6.03696
-6.03557
-6.03521
-6.03548
-6.03639
-6.03908
-6.04192
-6.04844
-6.05454
-6.0678
-6.08019
-6.10733
-6.13502
-6.1998
-6.28237
-6.4984
-6.80643
-7.04324
-7.50522
-7.88846
-8.63067
-8.88621
-8.95288
-8.96903
-8.97268
-14.0525
-11.7651
-10.8717
-9.74506
-9.3159
-8.76046
-8.54106
-8.23792
-8.11918
-7.95743
-7.87621
-7.72041
-7.64364
-7.5008
-7.43106
-7.30249
-7.23986
-7.12469
-7.06871
-6.96603
-6.91627
-6.8253
-6.78136
-6.70131
-6.66266
-6.59227
-6.55777
-6.49371
-6.45844
-6.38318
-6.31457
-6.28757
-6.24867
-6.23125
-6.20213
-6.1887
-6.1655
-6.15471
-6.13588
-6.1271
-6.11175
-6.1046
-6.09209
-6.08629
-6.07618
-6.07153
-6.06355
-6.05996
-6.05402
-6.05154
-6.04784
-6.04598
-6.04243
-6.04081
-6.03805
-6.03696
-6.03546
-6.03514
-6.0354
-6.03619
-6.03903
-6.04152
-6.04843
-6.05377
-6.06777
-6.07858
-6.10696
-6.13085
-6.19688
-6.26738
-6.48802
-6.81228
-7.01962
-7.5107
-7.85295
-8.6822
-8.90941
-8.95968
-8.9708
-8.97321
-14.3619
-11.6151
-10.8816
-9.6554
-9.32012
-8.71733
-8.54582
-8.21452
-8.12177
-7.94784
-7.88419
-7.71149
-7.65066
-7.4925
-7.43727
-7.29498
-7.2454
-7.11794
-7.07362
-6.95998
-6.92058
-6.81992
-6.78513
-6.69657
-6.66599
-6.58819
-6.56098
-6.4907
-6.46323
-6.38226
-6.3092
-6.28838
-6.24603
-6.23236
-6.20028
-6.18967
-6.16404
-6.15551
-6.1347
-6.12776
-6.11079
-6.10513
-6.09131
-6.08671
-6.07554
-6.07186
-6.06302
-6.06018
-6.0536
-6.05165
-6.04762
-6.04615
-6.04221
-6.04092
-6.03785
-6.03698
-6.0353
-6.03503
-6.03529
-6.03591
-6.039
-6.04095
-6.04848
-6.05265
-6.06787
-6.07626
-6.10677
-6.12499
-6.19378
-6.24639
-6.4735
-6.8228
-6.98466
-7.52214
-7.79796
-8.7578
-8.93968
-8.96804
-8.97291
-8.97384
-14.7811
-11.3846
-10.9111
-9.53012
-9.33505
-8.65695
-8.55696
-8.18158
-8.12761
-7.93384
-7.89654
-7.6981
-7.66158
-7.48007
-7.44696
-7.28375
-7.25404
-7.10786
-7.0813
-6.95095
-6.92735
-6.8119
-6.79106
-6.68951
-6.67121
-6.58209
-6.56591
-6.48597
-6.47017
-6.38102
-6.30173
-6.29004
-6.24225
-6.2342
-6.19756
-6.19124
-6.1619
-6.1568
-6.13297
-6.12882
-6.10938
-6.10599
-6.09015
-6.08741
-6.0746
-6.0724
-6.06226
-6.06056
-6.05299
-6.05183
-6.0473
-6.04643
-6.04187
-6.04109
-6.03756
-6.03703
-6.03508
-6.03491
-6.03518
-6.03553
-6.03901
-6.04015
-6.04866
-6.05109
-6.06824
-6.07307
-6.10708
-6.11711
-6.19134
-6.21842
-6.45409
-6.84083
-6.93467
-7.54404
-7.71561
-8.86453
-8.97609
-8.97735
-8.97519
-8.9745
-15.3362
-11.0372
-10.9769
-9.35739
-9.3693
-8.57344
-8.57912
-8.13579
-8.13904
-7.91359
-7.91533
-7.67822
-7.6783
-7.46171
-7.46186
-7.26719
-7.26735
-7.09299
-7.09314
-6.93766
-6.93779
-6.80009
-6.80021
-6.67911
-6.67925
-6.57307
-6.57339
-6.47868
-6.48004
-6.37938
-6.29156
-6.29315
-6.23687
-6.23719
-6.19363
-6.19373
-6.15879
-6.15885
-6.13045
-6.13049
-6.10733
-6.10735
-6.08848
-6.0885
-6.07323
-6.07325
-6.06115
-6.06116
-6.05212
-6.05215
-6.04684
-6.04686
-6.04139
-6.04138
-6.03715
-6.03714
-6.03479
-6.03477
-6.03506
-6.03503
-6.03911
-6.03905
-6.04908
-6.04894
-6.0691
-6.0687
-6.10835
-6.10666
-6.19077
-6.18211
-6.42864
-6.87057
-6.86406
-7.58345
-7.59417
-9.01275
-9.01692
-8.98679
-8.9774
-8.97514
-16.0633
-10.5203
-11.1052
-9.11941
-9.43586
-8.45788
-8.61924
-8.07213
-8.15962
-7.88424
-7.94367
-7.64886
-7.70368
-7.43468
-7.48455
-7.24284
-7.28764
-7.07114
-7.11119
-6.91815
-6.95375
-6.78277
-6.81421
-6.66387
-6.69155
-6.5598
-6.58467
-6.46755
-6.49399
-6.37723
-6.27782
-6.29858
-6.22924
-6.24193
-6.18796
-6.19762
-6.15428
-6.16203
-6.1268
-6.13309
-6.10434
-6.10947
-6.08604
-6.0902
-6.07126
-6.07458
-6.05957
-6.06213
-6.0509
-6.05269
-6.04616
-6.0475
-6.04069
-6.04184
-6.03656
-6.03734
-6.03441
-6.03462
-6.03495
-6.03436
-6.03939
-6.03756
-6.04991
-6.04598
-6.07078
-6.06273
-6.11127
-6.09278
-6.19392
-6.13559
-6.39537
-6.91825
-6.76442
-7.65121
-7.41642
-9.21754
-9.05911
-8.9954
-8.97933
-8.97568
-17.012
-9.7582
-11.3362
-8.78934
-9.55419
-8.29674
-8.68771
-7.98308
-8.19472
-7.8415
-7.98618
-7.60552
-7.74202
-7.39489
-7.5189
-7.20702
-7.31838
-7.03904
-7.13858
-6.88949
-6.97797
-6.75735
-6.83549
-6.6415
-6.71023
-6.54025
-6.60163
-6.45067
-6.51366
-6.37439
-6.25927
-6.30761
-6.21832
-6.24933
-6.17974
-6.20363
-6.14773
-6.16693
-6.12148
-6.13709
-6.10001
-6.11273
-6.08251
-6.09283
-6.06839
-6.07665
-6.05728
-6.06365
-6.04915
-6.05355
-6.04516
-6.04847
-6.03967
-6.04256
-6.03574
-6.03769
-6.0339
-6.03447
-6.03487
-6.03346
-6.03993
-6.03549
-6.05139
-6.04187
-6.07378
-6.0545
-6.11687
-6.07411
-6.20345
-6.07634
-6.35158
-6.993
-6.62315
-7.76383
-7.15723
-9.50072
-9.09752
-9.0021
-8.98077
-8.97608
-18.251
-8.64287
-11.7322
-8.32681
-9.75343
-8.06967
-8.8
-7.85739
-8.25241
-7.77885
-8.04971
-7.54149
-7.7997
-7.33626
-7.57069
-7.15427
-7.36475
-6.99177
-7.1799
-6.84732
-7.01455
-6.71998
-6.86764
-6.60863
-6.73846
-6.51145
-6.62708
-6.42523
-6.54142
-6.37058
-6.23417
-6.32214
-6.20258
-6.26076
-6.16777
-6.21283
-6.13817
-6.17441
-6.11372
-6.1432
-6.09367
-6.1177
-6.07734
-6.09685
-6.06421
-6.07983
-6.05396
-6.066
-6.04664
-6.05493
-6.0437
-6.04993
-6.03819
-6.04366
-6.03457
-6.03827
-6.03322
-6.03432
-6.03487
-6.03225
-6.04092
-6.03262
-6.05389
-6.03611
-6.07883
-6.04301
-6.12667
-6.04857
-6.22324
-6.00101
-6.29315
-7.10821
-6.42146
-7.94635
-6.78005
-9.89379
-9.12365
-9.00587
-8.98155
-8.97632
)
;

boundaryField
{
    F1_1
    {
        type            calculated;
        value           nonuniform List<scalar> 
80
(
18.9533
7.97435
11.9807
8.04197
9.87708
7.90582
8.86904
7.71592
8.28996
7.55255
7.90448
7.49066
7.75974
7.2881
7.56017
7.11149
7.36675
6.95446
7.18741
6.8149
7.02423
6.69188
6.87784
6.58434
6.74842
6.49048
6.63684
6.40689
6.55315
6.36567
6.21826
6.32864
6.19197
6.26578
6.1596
6.21686
6.13161
6.1777
6.10839
6.1459
6.08933
6.1199
6.07381
6.09863
6.06134
6.08122
6.05167
6.067
6.0449
6.05543
6.04258
6.05049
6.0371
6.04406
6.03371
6.03841
6.03269
6.03407
6.03478
6.03141
6.04145
6.03081
6.05538
6.03263
6.08191
6.03621
6.1328
6.03368
6.23623
5.95877
6.25961
7.17789
6.30267
8.05884
6.55652
10.1224
9.1323
9.00688
8.98176
8.97638
)
;
    }
    F1_2
    {
        type            calculated;
        value           nonuniform List<scalar> 
80
(
-19.3674
-7.89178
-12.477
-7.02949
-9.78934
-6.13823
-8.05988
-5.32497
-6.7543
-4.69418
-5.69461
-4.44266
-5.25242
-3.8245
-4.64176
-3.30198
-4.0551
-2.85404
-3.5245
-2.46775
-3.05582
-2.13387
-2.64653
-1.84455
-2.29184
-1.59171
-1.9898
-1.3642
-1.76627
-1.25166
-0.829551
-1.14648
-0.742999
-0.963996
-0.638457
-0.816814
-0.545256
-0.694473
-0.465041
-0.591245
-0.39659
-0.503612
-0.338492
-0.429021
-0.28967
-0.365431
-0.249714