/*--------------------------------*- C++ -*----------------------------------*\
| =========                 |                                                 |
| \\      /  F ield         | OpenFOAM: The Open Source CFD Toolbox           |
|  \\    /   O peration     | Version:  5.x                                   |
|   \\  /    A nd           | Web:      www.OpenFOAM.org                      |
|    \\/     M anipulation  |                                                 |
\*---------------------------------------------------------------------------*/
FoamFile
{
    version     2.0;
    format      ascii;
    class       volScalarField;
    location    "4.6";
    object      T;
}
// * * * * * * * * * * * * * * * * * * * * * * * * * * * * * * * * * * * * * //

dimensions      [0 0 0 1 0 0 0];

internalField   nonuniform List<scalar> 
3200
(
2.08483
2.43603
2.45606
2.60091
2.61009
2.68241
2.68722
2.72908
2.73195
2.75845
2.76021
2.77553
2.77687
2.79359
2.79495
2.8109
2.81218
2.82685
2.82802
2.84128
2.84233
2.85416
2.85509
2.86555
2.86637
2.87558
2.87631
2.8846
2.88533
2.89411
2.90182
2.90237
2.90735
2.90772
2.91152
2.91181
2.91485
2.91508
2.91756
2.91775
2.91976
2.91992
2.92156
2.92169
2.92301
2.92311
2.92417
2.92424
2.92503
2.92508
2.92555
2.92559
2.92607
2.9261
2.92647
2.92649
2.92669
2.9267
2.92667
2.92665
2.92628
2.92623
2.92533
2.92522
2.92342
2.92319
2.9196
2.91911
2.9112
2.90982
2.88734
2.84811
2.84374
2.77998
2.77247
2.6532
2.64824
2.64762
2.64749
2.64746
2.26032
2.52902
2.57087
2.68676
2.70633
2.76417
2.77443
2.80779
2.8139
2.83497
2.83871
2.85099
2.85386
2.86709
2.86997
2.8826
2.88531
2.89694
2.89941
2.90992
2.91214
2.92152
2.92349
2.93178
2.93352
2.94082
2.94237
2.94897
2.95054
2.95781
2.96428
2.96548
2.96945
2.97024
2.97326
2.97387
2.97628
2.97677
2.97873
2.97913
2.98073
2.98106
2.98236
2.98262
2.98368
2.98389
2.98472
2.98488
2.98551
2.98562
2.986
2.98608
2.98645
2.98653
2.98682
2.98687
2.98702
2.98704
2.98701
2.98698
2.98668
2.98657
2.98586
2.98561
2.98417
2.98369
2.98081
2.97974
2.9733
2.97025
2.95061
2.9185
2.90914
2.85832
2.8425
2.74985
2.73939
2.73767
2.7373
2.73723
2.42506
2.63108
2.68273
2.77646
2.80105
2.84783
2.86072
2.8876
2.89526
2.91217
2.91687
2.92684
2.93042
2.941
2.9446
2.9547
2.95808
2.96739
2.97048
2.97889
2.98166
2.98917
2.99164
2.99827
3.00045
3.00629
3.00824
3.01354
3.01552
3.02154
3.02696
3.02847
3.03168
3.03267
3.03509
3.03585
3.03779
3.0384
3.03997
3.04047
3.04175
3.04216
3.0432
3.04353
3.04437
3.04464
3.04531
3.04551
3.04601
3.04615
3.04645
3.04656
3.04685
3.04695
3.04718
3.04724
3.04736
3.04738
3.04736
3.04731
3.04708
3.04694
3.04636
3.04606
3.04489
3.04428
3.04194
3.04059
3.03527
3.03134
3.01437
2.98797
2.9762
2.93525
2.91561
2.84321
2.83019
2.82766
2.82711
2.82699
2.58155
2.73932
2.7929
2.86892
2.89487
2.93284
2.94644
2.96818
2.97624
2.98987
2.99482
3.00293
3.00671
3.01518
3.01897
3.02707
3.03062
3.03809
3.04133
3.04808
3.051
3.05702
3.05961
3.06494
3.06723
3.07192
3.07397
3.07824
3.08034
3.0853
3.0898
3.0914
3.094
3.09504
3.09699
3.09779
3.09935
3.09999
3.10125
3.10178
3.1028
3.10323
3.10407
3.10442
3.10509
3.10537
3.10591
3.10612
3.10652
3.10667
3.10691
3.10702
3.10726
3.10736
3.10754
3.10761
3.10771
3.10773
3.10771
3.10766
3.10747
3.10732
3.10685
3.10653
3.10559
3.10494
3.10303
3.10159
3.09718
3.09296
3.07851
3.05686
3.04443
3.01134
2.99083
2.9342
2.92058
2.91757
2.91689
2.91674
2.73174
2.85173
2.90217
2.96339
2.98822
3.01884
3.03184
3.0493
3.057
3.06791
3.07265
3.0792
3.08281
3.08956
3.09316
3.09962
3.103
3.10896
3.11205
3.11743
3.12021
3.12501
3.12748
3.13173
3.13391
3.13766
3.13961
3.14304
3.14504
3.14907
3.15275
3.1543
3.15639
3.15738
3.15894
3.1597
3.16094
3.16156
3.16256
3.16306
3.16388
3.16429
3.16496
3.16529
3.16583
3.16609
3.16652
3.16672
3.16704
3.16718
3.16738
3.16749
3.16768
3.16777
3.16792
3.16798
3.16806
3.16807
3.16806
3.16801
3.16786
3.16771
3.16734
3.16703
3.16627
3.16565
3.1641
3.16272
3.15909
3.15498
3.14294
3.12538
3.11348
3.08692
3.06749
3.02346
3.01053
3.00739
3.00665
3.00649
2.87712
2.96692
3.01101
3.05931
3.08134
3.10553
3.11707
3.13082
3.13764
3.14621
3.1504
3.15559
3.15879
3.16406
3.16724
3.17229
3.17528
3.17994
3.18267
3.18688
3.18934
3.1931
3.19528
3.19861
3.20053
3.20347
3.20519
3.20789
3.20967
3.21286
3.21579
3.21716
3.21881
3.21969
3.22092
3.22159
3.22256
3.2231
3.22389
3.22433
3.22498
3.22534
3.22586
3.22615
3.22658
3.22681
3.22714
3.22732
3.22757
3.2277
3.22785
3.22795
3.2281
3.22818
3.22829
3.22835
3.22841
3.22842
3.22841
3.22837
3.22825
3.22812
3.22782
3.22755
3.22695
3.2264
3.22517
3.22393
3.22101
3.21732
3.20759
3.19368
3.18312
3.16222
3.14514
3.11149
3.1001
3.09712
3.09639
3.09623
3.01892
3.08393
3.11968
3.15629
3.17436
3.19273
3.2022
3.21261
3.2182
3.22467
3.22811
3.23206
3.23468
3.23865
3.24125
3.24505
3.24749
3.251
3.25323
3.25641
3.25841
3.26125
3.26303
3.26553
3.26711
3.26932
3.27074
3.27277
3.27423
3.27666
3.27889
3.28002
3.28127
3.28199
3.28292
3.28347
3.2842
3.28464
3.28524
3.2856
3.28608
3.28638
3.28677
3.28701
3.28733
3.28752
3.28777
3.28792
3.28811
3.28821
3.28833
3.28841
3.28852
3.28858
3.28867
3.28871
3.28876
3.28877
3.28876
3.28873
3.28864
3.28853
3.28831
3.28808
3.28763
3.28717
3.28624
3.28522
3.28296
3.27991
3.27241
3.26184
3.25317
3.23736
3.22345
3.19862
3.18933
3.18676
3.18611
3.18597
3.15811
3.20212
3.22831
3.25401
3.26738
3.28029
3.28729
3.2946
3.29873
3.30326
3.3058
3.30858
3.31052
3.31329
3.31521
3.31786
3.31966
3.32211
3.32376
3.32598
3.32746
3.32944
3.33075
3.3325
3.33367
3.33521
3.33626
3.33768
3.33876
3.34047
3.34204
3.34287
3.34375
3.34428
3.34493
3.34534
3.34585
3.34618
3.34659
3.34686
3.3472
3.34742
3.34769
3.34787
3.34809
3.34823
3.34841
3.34852
3.34865
3.34872
3.34881
3.34886
3.34894
3.34899
3.34905
3.34908
3.34911
3.34912
3.34911
3.34909
3.34902
3.34895
3.34879
3.34863
3.34831
3.34797
3.34731
3.34655
3.34494
3.34267
3.33735
3.32992
3.32351
3.31243
3.3022
3.28513
3.27829
3.27631
3.27581
3.27569
3.29555
3.32102
3.33697
3.35222
3.36041
3.36808
3.37238
3.37671
3.37924
3.38193
3.38348
3.38514
3.38632
3.38796
3.38913
3.3907
3.39181
3.39326
3.39426
3.39557
3.39648
3.39765
3.39846
3.39949
3.4002
3.40112
3.40176
3.4026
3.40327
3.40428
3.40521
3.40572
3.40625
3.40657
3.40695
3.4072
3.40751
3.40771
3.40795
3.40812
3.40832
3.40845
3.40861
3.40872
3.40885
3.40894
3.40904
3.40911
3.40919
3.40923
3.40928
3.40932
3.40936
3.40939
3.40943
3.40945
3.40947
3.40947
3.40947
3.40945
3.40941
3.40937
3.40927
3.40917
3.40898
3.40878
3.40838
3.40792
3.40695
3.40556
3.40238
3.39797
3.39404
3.38747
3.38122
3.37123
3.36705
3.36581
3.36549
3.36542
3.43196
3.4403
3.44565
3.45071
3.45347
3.45601
3.45746
3.4589
3.45975
3.46064
3.46116
3.46171
3.46211
3.46265
3.46305
3.46357
3.46394
3.46442
3.46476
3.46519
3.46549
3.46588
3.46615
3.4665
3.46674
3.46704
3.46725
3.46753
3.46776
3.46809
3.4684
3.46857
3.46875
3.46886
3.46898
3.46907
3.46917
3.46924
3.46932
3.46937
3.46944
3.46948
3.46954
3.46957
3.46962
3.46965
3.46968
3.4697
3.46973
3.46974
3.46976
3.46977
3.46979
3.4698
3.46981
3.46982
3.46982
3.46982
3.46982
3.46982
3.4698
3.46979
3.46976
3.46972
3.46966
3.46959
3.46946
3.4693
3.46898
3.46851
3.46745
3.46599
3.46467
3.46249
3.46039
3.4571
3.4557
3.45527
3.45517
3.45514
3.43137
3.44027
3.44645
3.45312
3.4572
3.46164
3.46447
3.46771
3.4698
3.4722
3.47368
3.4753
3.47649
3.47813
3.47931
3.48086
3.48196
3.48336
3.48433
3.48556
3.48642
3.4875
3.48825
3.48919
3.48984
3.49066
3.49125
3.49201
3.49263
3.49356
3.49443
3.49493
3.49543
3.49576
3.49615
3.49641
3.49673
3.49695
3.49722
3.4974
3.49763
3.49778
3.49798
3.49811
3.49827
3.49838
3.49852
3.49861
3.49871
3.49878
3.49885
3.49891
3.49898
3.49904
3.49911
3.49916
3.49922
3.49927
3.49933
3.49937
3.49942
3.49945
3.49949
3.49952
3.49955
3.49957
3.49958
3.49956
3.49949
3.49932
3.49886
3.49813
3.49735
3.49592
3.4944
3.49187
3.49079
3.49046
3.49038
3.49036
3.29374
3.32093
3.33933
3.35945
3.37158
3.38498
3.39339
3.40318
3.40939
3.41663
3.42102
3.42591
3.42947
3.4344
3.43792
3.4426
3.44586
3.45008
3.45299
3.45671
3.45926
3.46251
3.46473
3.46757
3.46951
3.472
3.47374
3.47604
3.47787
3.48068
3.48331
3.48478
3.48631
3.48728
3.48845
3.48923
3.49019
3.49084
3.49165
3.4922
3.49289
3.49335
3.49394
3.49433
3.49482
3.49515
3.49555
3.49582
3.49614
3.49633
3.49656
3.49672
3.49695
3.49711
3.49733
3.49748
3.49767
3.49781
3.49798
3.4981
3.49825
3.49835
3.49848
3.49856
3.49866
3.49871
3.49874
3.49868
3.49847
3.49796
3.4966
3.4944
3.49208
3.48777
3.48323
3.47557
3.47234
3.47138
3.47114
3.47108
3.15503
3.20194
3.23215
3.26611
3.28591
3.30852
3.32225
3.33879
3.34894
3.36118
3.36835
3.37658
3.38238
3.39073
3.39649
3.4044
3.40973
3.41686
3.42161
3.4279
3.43207
3.43756
3.4412
3.44599
3.44916
3.45336
3.4562
3.4601
3.46307
3.46781
3.47224
3.47463
3.47721
3.4788
3.48077
3.48204
3.48367
3.48473
3.4861
3.48699
3.48816
3.48892
3.4899
3.49054
3.49137
3.49191
3.4926
3.49303
3.49357
3.49389
3.49426
3.49453
3.49491
3.49518
3.49555
3.49579
3.49613
3.49635
3.49664
3.49683
3.49709
3.49726
3.49747
3.49761
3.49777
3.49785
3.4979
3.49781
3.49746
3.49663
3.49437
3.49067
3.48689
3.47963
3.4722
3.45908
3.4538
3.45228
3.45189
3.4518
3.01444
3.08362
3.12481
3.17333
3.20013
3.23241
3.251
3.27466
3.2884
3.30593
3.31563
3.32734
3.33519
3.34716
3.35497
3.3663
3.37352
3.38374
3.39017
3.39918
3.40482
3.41269
3.41761
3.42447
3.42877
3.43478
3.43863
3.44418
3.44821
3.45495
3.46124
3.46448
3.46815
3.4703
3.47312
3.47484
3.47717
3.4786
3.48057
3.48178
3.48344
3.48447
3.48588
3.48675
3.48794
3.48867
3.48965
3.49024
3.49101
3.49144
3.49197
3.49233
3.49288
3.49324
3.49377
3.4941
3.49458
3.49488
3.4953
3.49556
3.49593
3.49615
3.49646
3.49665
3.49688
3.49699
3.49707
3.49695
3.49647
3.49537
3.4922
3.48694
3.48184
3.47149
3.46139
3.44228
3.43511
3.43312
3.43262
3.43251
2.87108
2.96642
3.01718
3.08142
3.11413
3.15685
3.17955
3.21092
3.22772
3.251
3.26284
3.27826
3.28784
3.30376
3.3133
3.32837
3.33719
3.35076
3.35862
3.37059
3.37748
3.38794
3.39395
3.40305
3.4083
3.41629
3.42098
3.42833
3.43323
3.44211
3.45037
3.4543
3.45915
3.46177
3.46551
3.46761
3.4707
3.47245
3.47506
3.47654
3.47875
3.48001
3.48188
3.48294
3.48452
3.48541
3.48672
3.48744
3.48846
3.48899
3.48969
3.49013
3.49086
3.4913
3.492
3.49241
3.49304
3.49341
3.49397
3.49429
3.49478
3.49505
3.49546
3.49568
3.496
3.49613
3.49624
3.49611
3.4955
3.49418
3.49011
3.48321
3.477
3.46335
3.45094
3.42501
3.41621
3.41391
3.41335
3.41322
2.72391
2.851
2.90901
2.99077
3.02772
3.08209
3.10775
3.14777
3.16677
3.19652
3.2099
3.22941
3.24024
3.26061
3.27142
3.29069
3.30067
3.31802
3.32691
3.3422
3.35001
3.36336
3.37016
3.38179
3.38773
3.39792
3.40323
3.41258
3.4181
3.42929
3.43967
3.44409
3.45024
3.4532
3.45797
3.46034
3.46429
3.46627
3.4696
3.47128
3.4741
3.47552
3.47792
3.47912
3.48114
3.48214
3.48381
3.48462
3.48594
3.48653
3.48742
3.48791
3.48885
3.48935
3.49025
3.49071
3.49152
3.49193
3.49265
3.49301
3.49363
3.49394
3.49447
3.49472
3.49512
3.49528
3.49543
3.49528
3.49457
3.49311
3.48814
3.47945
3.47245
3.45515
3.44103
3.40704
3.39705
3.39462
3.39405
3.39392
2.57166
2.73835
2.7999
2.90191
2.94062
3.00848
3.03537
3.08546
3.10539
3.14269
3.15671
3.18091
3.19225
3.21784
3.2292
3.25338
3.26386
3.28561
3.29495
3.31412
3.32231
3.33904
3.34619
3.36076
3.36699
3.37976
3.38532
3.39698
3.40274
3.41651
3.42921
3.43381
3.44145
3.44455
3.45052
3.45301
3.45796
3.46004
3.46421
3.46597
3.46951
3.471
3.474
3.47526
3.47779
3.47884
3.48094
3.48179
3.48344
3.48406
3.48516
3.48568
3.48686
3.48738
3.48851
3.48899
3.49001
3.49044
3.49134
3.49172
3.4925
3.49282
3.49348
3.49375
3.49426
3.49442
3.49462
3.49448
3.49366
3.49218
3.48631
3.47563
3.46832
3.44683
3.43191
3.38812
3.37759
3.37527
3.37474
3.37462
2.41273
2.6299
2.68916
2.81559
2.85236
2.93651
2.96207
3.02435
3.04332
3.0898
3.10312
3.13292
3.1437
3.17564
3.18646
3.21661
3.22659
3.2537
3.26259
3.28647
3.29426
3.31511
3.32191
3.34006
3.34599
3.36187
3.36717
3.38161
3.38705
3.40376
3.41908
3.42341
3.43285
3.43579
3.44321
3.44558
3.45174
3.45372
3.45891
3.46059
3.46499
3.46641
3.47015
3.47135
3.4745
3.4755
3.47811
3.47893
3.48098
3.48158
3.48293
3.48342
3.48489
3.48539
3.48679
3.48726
3.48852
3.48893
3.49005
3.49041
3.49138
3.49169
3.49251
3.49277
3.49341
3.49356
3.49383
3.49371
3.49278
3.49142
3.48467
3.47167
3.46475
3.43825
3.42395
3.36787
3.3578
3.35584
3.35541
3.35532
2.24512
2.52776
2.57573
2.73285
2.76219
2.86688
2.8873
2.96498
2.98014
3.03823
3.04887
3.08569
3.09429
3.13429
3.14295
3.18066
3.18864
3.22252
3.22963
3.25946
3.2657
3.29174
3.29718
3.31985
3.32459
3.34442
3.34864
3.3666
3.37092
3.39108
3.40938
3.4128
3.4245
3.42685
3.43611
3.438
3.44569
3.44727
3.45376
3.4551
3.4606
3.46173
3.4664
3.46736
3.47129
3.4721
3.47536
3.47601
3.47858
3.47906
3.48073
3.48112
3.48297
3.48337
3.48512
3.48549
3.48707
3.4874
3.48879
3.48908
3.49029
3.49054
3.49157
3.49177
3.49257
3.4927
3.49306
3.49296
3.49192
3.49087
3.48329
3.46746
3.46197
3.42918
3.41766
3.34578
3.33768
3.33635
3.33607
3.33601
2.06621
2.43502
2.45794
2.65522
2.66902
2.80063
2.81023
2.9081
2.91525
2.98856
2.99356
3.03959
3.04364
3.09419
3.09828
3.14589
3.14965
3.1924
3.19576
3.2334
3.23634
3.2692
3.27176
3.30035
3.30259
3.32758
3.32957
3.35214
3.35415
3.37846
3.40028
3.40186
3.41653
3.41764
3.42929
3.43018
3.43988
3.44062
3.44881
3.44944
3.45638
3.45691
3.4628
3.46325
3.46822
3.4686
3.47271
3.47302
3.47627
3.47649
3.47858
3.47877
3.4811
3.48128
3.48349
3.48367
3.48566
3.48582
3.48758
3.48771
3.48924
3.48936
3.49065
3.49075
3.49177
3.49183
3.4923
3.49226
3.49106
3.49059
3.48224
3.46285
3.46028
3.41926
3.41378
3.32114
3.3173
3.31681
3.31672
3.3167
2.06621
2.43501
2.45794
2.65522
2.66902
2.80063
2.81023
2.9081
2.91525
2.98856
2.99356
3.03959
3.04363
3.09419
3.09828
3.14589
3.14965
3.1924
3.19576
3.2334
3.23634
3.26919
3.27176
3.30035
3.30259
3.32758
3.32957
3.35214
3.35415
3.37846
3.40028
3.40186
3.41653
3.41764
3.42929
3.43018
3.43988
3.44062
3.44881
3.44944
3.45638
3.45691
3.4628
3.46325
3.46822
3.4686
3.47271
3.47302
3.47627
3.47649
3.47858
3.47877
3.48109
3.48128
3.48349
3.48367
3.48566
3.48582
3.48757
3.48771
3.48924
3.48936
3.49065
3.49075
3.49177
3.49183
3.4923
3.49226
3.49106
3.49059
3.48224
3.46284
3.46028
3.41925
3.41378
3.32113
3.3173
3.31681
3.31671
3.31669
2.24512
2.52776
2.57573
2.73285
2.76219
2.86688
2.8873
2.96498
2.98014
3.03823
3.04886
3.08569
3.09429
3.13429
3.14295
3.18066
3.18864
3.22252
3.22963
3.25946
3.2657
3.29174
3.29718
3.31984
3.32459
3.34442
3.34864
3.3666
3.37092
3.39108
3.40938
3.4128
3.4245
3.42685
3.43611
3.438
3.44569
3.44727
3.45376
3.4551
3.4606
3.46173
3.4664
3.46736
3.47129
3.4721
3.47536
3.47601
3.47858
3.47906
3.48073
3.48112
3.48297
3.48337
3.48512
3.48549
3.48707
3.4874
3.48879
3.48908
3.49029
3.49054
3.49157
3.49177
3.49257
3.4927
3.49306
3.49296
3.49192
3.49087
3.48329
3.46746
3.46197
3.42918
3.41765
3.34578
3.33768
3.33634
3.33606
3.336
2.41273
2.6299
2.68916
2.81559
2.85236
2.93651
2.96207
3.02435
3.04332
3.0898
3.10312
3.13292
3.1437
3.17564
3.18646
3.21661
3.22659
3.2537
3.26258
3.28647
3.29426
3.31511
3.32191
3.34006
3.34599
3.36187
3.36717
3.38161
3.38705
3.40376
3.41908
3.42341
3.43285
3.43579
3.44321
3.44558
3.45174
3.45372
3.45891
3.46059
3.46499
3.46641
3.47015
3.47135
3.4745
3.4755
3.47811
3.47893
3.48098
3.48158
3.48293
3.48342
3.48489
3.48539
3.48679
3.48726
3.48852
3.48893
3.49005
3.49041
3.49138
3.49169
3.49251
3.49277
3.49341
3.49356
3.49383
3.49371
3.49278
3.49142
3.48467
3.47167
3.46475
3.43825
3.42395
3.36787
3.3578
3.35583
3.35541
3.35531
2.57166
2.73835
2.7999
2.90191
2.94062
3.00848
3.03537
3.08546
3.10539
3.14269
3.15671
3.1809
3.19225
3.21784
3.2292
3.25338
3.26386
3.28561
3.29494
3.31411
3.32231
3.33904
3.34619
3.36076
3.36699
3.37975
3.38532
3.39697
3.40274
3.41651
3.42921
3.43381
3.44145
3.44455
3.45052
3.45301
3.45796
3.46004
3.46421
3.46597
3.46951
3.471
3.474
3.47526
3.47779
3.47884
3.48094
3.48179
3.48344
3.48406
3.48516
3.48568
3.48686
3.48738
3.48851
3.48899
3.49001
3.49044
3.49134
3.49172
3.4925
3.49282
3.49348
3.49375
3.49426
3.49442
3.49462
3.49448
3.49366
3.49218
3.48631
3.47563
3.46832
3.44683
3.43191
3.38812
3.37759
3.37526
3.37474
3.37462
2.72391
2.851
2.90901
2.99077
3.02772
3.08209
3.10775
3.14777
3.16677
3.19652
3.2099
3.22941
3.24024
3.26061
3.27142
3.29069
3.30067
3.31802
3.32691
3.3422
3.35001
3.36336
3.37016
3.38179
3.38773
3.39792
3.40323
3.41258
3.4181
3.42929
3.43967
3.44409
3.45024
3.4532
3.45797
3.46034
3.46429
3.46627
3.4696
3.47128
3.4741
3.47552
3.47792
3.47912
3.48114
3.48214
3.48381
3.48462
3.48594
3.48653
3.48742
3.48791
3.48885
3.48935
3.49025
3.49071
3.49152
3.49193
3.49265
3.49301
3.49363
3.49394
3.49447
3.49472
3.49512
3.49528
3.49543
3.49528
3.49457
3.49311
3.48814
3.47945
3.47245
3.45515
3.44102
3.40704
3.39705
3.39462
3.39405
3.39392
2.87108
2.96642
3.01718
3.08142
3.11412
3.15685
3.17955
3.21092
3.22771
3.251
3.26284
3.27826
3.28784
3.30376
3.3133
3.32837
3.33719
3.35076
3.35862
3.37059
3.37748
3.38794
3.39395
3.40305
3.4083
3.41629
3.42098
3.42833
3.43323
3.44211
3.45037
3.4543
3.45915
3.46177
3.46551
3.46761
3.4707
3.47245
3.47506
3.47654
3.47875
3.48001
3.48188
3.48294
3.48452
3.48541
3.48672
3.48744
3.48846
3.48899
3.48969
3.49013
3.49086
3.4913
3.492
3.49241
3.49304
3.49341
3.49397
3.49429
3.49477
3.49505
3.49546
3.49568
3.496
3.49613
3.49624
3.49611
3.4955
3.49418
3.49011
3.48321
3.477
3.46335
3.45093
3.425
3.41621
3.41391
3.41335
3.41322
3.01444
3.08362
3.12481
3.17333
3.20013
3.23241
3.251
3.27466
3.2884
3.30593
3.31563
3.32734
3.33519
3.34716
3.35497
3.3663
3.37352
3.38374
3.39016
3.39918
3.40482
3.41269
3.41761
3.42447
3.42877
3.43478
3.43863
3.44418
3.44821
3.45495
3.46124
3.46447
3.46815
3.4703
3.47312
3.47484
3.47717
3.4786
3.48057
3.48178
3.48344
3.48447
3.48588
3.48675
3.48794
3.48867
3.48965
3.49024
3.49101
3.49144
3.49197
3.49233
3.49288
3.49324
3.49377
3.4941
3.49458
3.49488
3.4953
3.49556
3.49593
3.49615
3.49646
3.49665
3.49688
3.49699
3.49707
3.49695
3.49647
3.49537
3.4922
3.48694
3.48184
3.47149
3.46139
3.44228
3.43511
3.43312
3.43262
3.43251
3.15503
3.20194
3.23215
3.26611
3.28591
3.30852
3.32225
3.33879
3.34894
3.36118
3.36835
3.37658
3.38238
3.39073
3.39649
3.4044
3.40973
3.41686
3.42161
3.4279
3.43207
3.43756
3.4412
3.44599
3.44916
3.45336
3.4562
3.4601
3.46307
3.46781
3.47224
3.47463
3.47721
3.4788
3.48077
3.48204
3.48367
3.48473
3.4861
3.48699
3.48816
3.48892
3.4899
3.49054
3.49137
3.49191
3.4926
3.49303
3.49357
3.49389
3.49426
3.49453
3.49491
3.49518
3.49555
3.49579
3.49612
3.49635
3.49664
3.49683
3.49709
3.49726
3.49747
3.49761
3.49777
3.49785
3.4979
3.49781
3.49746
3.49663
3.49437
3.49067
3.48689
3.47963
3.4722
3.45908
3.4538
3.45227
3.45189
3.4518
3.29374
3.32093
3.33933
3.35945
3.37158
3.38498
3.39339
3.40318
3.40939
3.41663
3.42102
3.42591
3.42946
3.4344
3.43792
3.4426
3.44586
3.45008
3.45299
3.45671
3.45926
3.46251
3.46473
3.46757
3.46951
3.472
3.47374
3.47604
3.47787
3.48068
3.48331
3.48478
3.48631
3.48728
3.48845
3.48923
3.49019
3.49084
3.49165
3.4922
3.49289
3.49335
3.49394
3.49433
3.49482
3.49515
3.49555
3.49582
3.49614
3.49633
3.49656
3.49672
3.49695
3.49711
3.49733
3.49748
3.49767
3.49781
3.49798
3.4981
3.49825
3.49835
3.49848
3.49856
3.49866
3.49871
3.49874
3.49868
3.49847
3.49796
3.4966
3.4944
3.49208
3.48777
3.48323
3.47557
3.47234
3.47138
3.47114
3.47108
3.43137
3.44027
3.44645
3.45312
3.4572
3.46164
3.46447
3.46771
3.4698
3.4722
3.47368
3.4753
3.47649
3.47813
3.47931
3.48086
3.48196
3.48335
3.48433
3.48556
3.48642
3.4875
3.48825
3.48919
3.48984
3.49066
3.49125
3.49201
3.49263
3.49356
3.49443
3.49493
3.49543
3.49576
3.49615
3.49641
3.49673
3.49695
3.49722
3.4974
3.49763
3.49778
3.49798
3.49811
3.49827
3.49838
3.49852
3.49861
3.49871
3.49878
3.49885
3.49891
3.49898
3.49904
3.49911
3.49916
3.49922
3.49927
3.49933
3.49937
3.49942
3.49945
3.49949
3.49952
3.49955
3.49957
3.49958
3.49956
3.49949
3.49932
3.49886
3.49813
3.49735
3.49592
3.4944
3.49187
3.49079
3.49046
3.49038
3.49036
3.43194
3.44027
3.44562
3.45066
3.45339
3.4559
3.4573
3.45865
3.45941
3.46015
3.46067
3.46134
3.46182
3.46244
3.46288
3.46344
3.46383
3.46433
3.46469
3.46513
3.46544
3.46584
3.46612
3.46646
3.46671
3.46701
3.46723
3.46751
3.46774
3.46808
3.46839
3.46856
3.46874
3.46885
3.46898
3.46906
3.46916
3.46923
3.46931
3.46937
3.46944
3.46948
3.46953
3.46957
3.46961
3.46964
3.46968
3.4697
3.46973
3.46974
3.46976
3.46977
3.46979
3.4698
3.46981
3.46982
3.46982
3.46982
3.46982
3.46982
3.4698
3.46979
3.46976
3.46972
3.46966
3.46959
3.46946
3.4693
3.46898
3.46851
3.46745
3.46599
3.46467
3.46249
3.46039
3.4571
3.4557
3.45527
3.45517
3.45514
3.29549
3.32094
3.33687
3.35206
3.36019
3.36774
3.3719
3.37597
3.37823
3.38046
3.38199
3.38403
3.38547
3.38734
3.38864
3.39033
3.3915
3.39301
3.39405
3.3954
3.39633
3.39752
3.39834
3.39939
3.40012
3.40104
3.40169
3.40254
3.40321
3.40423
3.40518
3.40569
3.40622
3.40655
3.40693
3.40718
3.40749
3.40769
3.40794
3.4081
3.40831
3.40844
3.4086
3.40871
3.40885
3.40893
3.40904
3.4091
3.40918
3.40923
3.40928
3.40931
3.40936
3.40939
3.40943
3.40945
3.40946
3.40947
3.40947
3.40945
3.40941
3.40937
3.40927
3.40917
3.40898
3.40878
3.40838
3.40792
3.40695
3.40555
3.40238
3.39797
3.39404
3.38747
3.38122
3.37123
3.36705
3.36581
3.36549
3.36542
3.15803
3.202
3.22814
3.25374
3.26701
3.27972
3.28651
3.29337
3.29704
3.3008
3.3033
3.30675
3.30909
3.31226
3.31438
3.31723
3.31914
3.3217
3.32341
3.32569
3.3272
3.32922
3.33056
3.33234
3.33352
3.33508
3.33614
3.33758
3.33867
3.34039
3.34198
3.34282
3.34371
3.34424
3.3449
3.34531
3.34582
3.34615
3.34657
3.34684
3.34718
3.3474
3.34768
3.34785
3.34808
3.34822
3.3484
3.34851
3.34864
3.34871
3.3488
3.34886
3.34893
3.34898
3.34904
3.34908
3.34911
3.34912
3.34911
3.34909
3.34902
3.34894
3.34879
3.34862
3.3483
3.34797
3.34731
3.34655
3.34494
3.34267
3.33735
3.32992
3.32351
3.31243
3.3022
3.28513
3.27828
3.27631
3.27581
3.27569
3.0188
3.08376
3.11944
3.15592
3.17386
3.19194
3.20111
3.2109
3.21586
3.22118
3.22457
3.22951
3.23268
3.23721
3.2401
3.24418
3.24677
3.25043
3.25274
3.256
3.25806
3.26095
3.26276
3.26531
3.2669
3.26914
3.27057
3.27263
3.27411
3.27656
3.27881
3.27995
3.28121
3.28194
3.28287
3.28342
3.28416
3.28461
3.28521
3.28557
3.28606
3.28635
3.28675
3.28699
3.28731
3.28751
3.28776
3.28791
3.2881
3.2882
3.28832
3.2884
3.28851
3.28857
3.28866
3.28871
3.28875
3.28877
3.28876
3.28872
3.28863
3.28853
3.2883
3.28808
3.28763
3.28717
3.28624
3.28522
3.28296
3.27991
3.27241
3.26184
3.25317
3.23736
3.22345
3.19862
3.18933
3.18675
3.18611
3.18596
2.87697
2.96669
3.01071
3.05884
3.0807
3.10452
3.11569
3.12861
3.13466
3.14165
3.14578
3.15234
3.15622
3.16224
3.16576
3.17118
3.17435
3.17921
3.18203
3.18636
3.18888
3.19272
3.19493
3.19831
3.20026
3.20324
3.20498
3.20771
3.2095
3.21273
3.21569
3.21707
3.21873
3.21962
3.22085
3.22153
3.22251
3.22306
3.22385
3.2243
3.22494
3.22531
3.22583
3.22613
3.22655
3.22679
3.22713
3.22731
3.22756
3.22768
3.22784
3.22794
3.22808
3.22817
3.22828
3.22834
3.2284
3.22842
3.2284
3.22836
3.22824
3.22811
3.22782
3.22755
3.22695
3.2264
3.22517
3.22393
3.221
3.21732
3.20759
3.19368
3.18312
3.16222
3.14514
3.11149
3.1001
3.09712
3.09639
3.09623
2.73156
2.85146
2.90181
2.96281
2.98746
3.01759
3.03019
3.0466
3.05342
3.06223
3.06689
3.07528
3.07967
3.08736
3.09135
3.09828
3.10186
3.10807
3.11127
3.1168
3.11965
3.12455
3.12706
3.13137
3.13358
3.13738
3.13935
3.14282
3.14484
3.14891
3.15263
3.15418
3.15629
3.15729
3.15886
3.15963
3.16088
3.1615
3.16251
3.16301
3.16384
3.16425
3.16493
3.16526
3.1658
3.16607
3.1665
3.1667
3.16702
3.16717
3.16737
3.16747
3.16766
3.16776
3.1679
3.16797
3.16805
3.16807
3.16805
3.16801
3.16785
3.16771
3.16733
3.16703
3.16627
3.16565
3.1641
3.16272
3.15908
3.15498
3.14294
3.12538
3.11348
3.08692
3.06749
3.02346
3.01053
3.00739
3.00665
3.00649
2.58135
2.739
2.79249
2.86824
2.894
2.93138
2.94455
2.96498
2.97211
2.98297
2.98785
2.99838
3.00298
3.01264
3.01682
3.02551
3.02927
3.03705
3.04041
3.04735
3.05033
3.05648
3.05911
3.06452
3.06684
3.0716
3.07367
3.07799
3.0801
3.08511
3.08965
3.09127
3.09389
3.09494
3.0969
3.09771
3.09927
3.09992
3.10119
3.10172
3.10276
3.10319
3.10403
3.10438
3.10506
3.10534
3.10588
3.1061
3.1065
3.10665
3.1069
3.10701
3.10725
3.10734
3.10753
3.1076
3.1077
3.10772
3.1077
3.10765
3.10746
3.10731
3.10685
3.10653
3.10558
3.10493
3.10303
3.10159
3.09718
3.09295
3.07851
3.05686
3.04442
3.01134
2.99083
2.9342
2.92057
2.91757
2.91689
2.91674
2.42484
2.63071
2.68227
2.77567
2.80007
2.84613
2.85861
2.88389
2.89064
2.90395
2.90858
2.92172
2.9261
2.93813
2.94211
2.95294
2.95651
2.96621
2.9694
2.97805
2.98089
2.98855
2.99106
2.99779
3
3.00592
3.00789
3.01324
3.01524
3.02132
3.02679
3.02832
3.03155
3.03255
3.03499
3.03575
3.0377
3.03832
3.0399
3.04041
3.0417
3.0421
3.04316
3.04349
3.04434
3.0446
3.04528
3.04548
3.04598
3.04612
3.04643
3.04654
3.04684
3.04693
3.04716
3.04722
3.04735
3.04737
3.04735
3.0473
3.04707
3.04693
3.04635
3.04605
3.04489
3.04427
3.04193
3.04058
3.03527
3.03134
3.01437
2.98797
2.9762
2.93525
2.91561
2.84321
2.83019
2.82766
2.82711
2.82698
2.26009
2.5286
2.57038
2.68585
2.70528
2.76222
2.77216
2.80354
2.80892
2.82529
2.82897
2.8454
2.84891
2.86394
2.86713
2.88065
2.88351
2.89563
2.89818
2.90898
2.91126
2.92082
2.92283
2.93124
2.93301
2.9404
2.94197
2.94864
2.95022
2.95756
2.9641
2.9653
2.96931
2.9701
2.97314
2.97375
2.97619
2.97668
2.97866
2.97906
2.98067
2.981
2.98231
2.98258
2.98364
2.98385
2.98469
2.98485
2.98548
2.98559
2.98597
2.98606
2.98643
2.98651
2.9868
2.98685
2.98701
2.98702
2.987
2.98697
2.98667
2.98656
2.98585
2.98561
2.98417
2.98368
2.9808
2.97973
2.9733
2.97024
2.9506
2.91849
2.90914
2.85831
2.8425
2.74984
2.73939
2.73766
2.7373
2.73723
2.0846
2.43555
2.45555
2.59988
2.60899
2.68019
2.68486
2.72423
2.72675
2.74712
2.74886
2.76961
2.77126
2.79023
2.79173
2.8088
2.81014
2.82543
2.82663
2.84026
2.84133
2.8534
2.85435
2.86496
2.86579
2.87511
2.87585
2.88423
2.88497
2.89384
2.90161
2.90217
2.90719
2.90756
2.91139
2.91168
2.91475
2.91498
2.91747
2.91766
2.9197
2.91985
2.92151
2.92163
2.92297
2.92307
2.92413
2.92421
2.925
2.92505
2.92553
2.92557
2.92604
2.92608
2.92645
2.92647
2.92667
2.92668
2.92665
2.92664
2.92627
2.92622
2.92532
2.92521
2.92341
2.92318
2.9196
2.9191
2.9112
2.90981
2.88734
2.84811
2.84373
2.77998
2.77246
2.65319
2.64824
2.64762
2.64749
2.64746
)
;

boundaryField
{
    F1_1
    {
        type            fixedValue;
        value           nonuniform List<scalar> 
80
(
1.99007
2.39616
2.39616
2.5607
2.5607
2.64288
2.64288
2.6905
2.6905
2.72069
2.72069
2.73807
2.73807
2.75715
2.75715
2.77534
2.77534
2.79208
2.79208
2.80721
2.80721
2.8207
2.8207
2.83263
2.83263
2.84312
2.84312
2.85256
2.85256
2.86228
2.87072
2.87072
2.87639
2.87639
2.88072
2.88072
2.8842
2.8842
2.88702
2.88702
2.88932
2.88932
2.89119
2.89119
2.89271
2.89271
2.89391
2.89391
2.8948
2.8948
2.89534
2.89534
2.89588
2.89588
2.8963
2.8963
2.89653
2.89653
2.89649
2.89649
2.89607
2.89607
2.89506
2.89506
2.89301
2.89301
2.88894
2.88894
2.88002
2.88002
2.85604
2.81222
2.81222
2.73968
2.73968
2.60258
2.60258
2.60258
2.60258
2.60258
)
;
    }
    F1_2
    {
        type            fixedValue;
        value           nonuniform List<scalar> 
80
(
1.96937
2.39556
2.39556
2.62007
2.62007
2.76993
2.76993
2.88148
2.88148
2.96509
2.96509
3.01737
3.01737
3.07507
3.07507
3.12938
3.12938
3.17813
3.17813
3.22106
3.22106
3.25852
3.25852
3.29113
3.29113
3.31962
3.31962
3.34532
3.34532
3.3722
3.39613
3.39613
3.41282
3.41282
3.4261
3.4261
3.43715
3.43715
3.44648
3.44648
3.45439
3.45439
3.46111
3.46111
3.46677
3.46677
3.47146
3.47146
3.47517
3.47517
3.47754
3.47754
3.4802
3.4802
3.48272
3.48272
3.485
3.485
3.487
3.487
3.48874
3.48874
3.49022
3.49022
3.49138
3.49138
3.49193
3.49193
3.49061
3.49061
3.48193
3.4602
3.4602
3.41358
3.41358
3.30704
3.30704
3.30704
3.30704
3.30704
)
;
    }
    F1_3
    {
        type            fixedValue;
        value           nonuniform List<scalar> 
80
(
1.96937
2.39555
2.39555
2.62007
2.62007
2.76993
2.76993
2.88148
2.88148
2.96509
2.96509
3.01737
3.01737
3.07507
3.07507
3.12937
3.12937
3.17813
3.17813
3.22106
3.22106
3.25852
3.25852
3.29113
3.29113
3.31962
3.31962
3.34532
3.34532
3.3722
3.39613
3.39613
3.41282
3.41282
3.4261
3.4261
3.43715
3.43715
3.44648
3.44648
3.45439
3.45439
3.46111
3.46111
3.46677
3.46677
3.47146
3.47146
3.47517
3.47517
3.47754
3.47754
3.4802
3.4802
3.48272
3.48272
3.48499
3.48499
3.487
3.487
3.48874
3.48874
3.49022
3.49022
3.49138
3.49138
3.49193
3.49193
3.49061
3.49061
3.48193
3.4602
3.4602
3.41358
3.41358
3.30704
3.30704
3.30704
3.30704
3.30704
)
;
    }
    F1_4
    {
        type            fixedValue;
        value           nonuniform List<scalar> 
80
(
1.98983
2.39564
2.39564
2.5596
2.5596
2.64051
2.64051
2.68531
2.68531
2.70842
2.70842
2.73209
2.73209
2.75373
2.75373
2.77318
2.77318
2.79061
2.79061
2.80615
2.80615
2.81991
2.81991
2.83202
2.83202
2.84264
2.84264
2.85218
2.85218
2.86199
2.87051
2.87051
2.87622
2.87622
2.88059
2.88059
2.88409
2.88409
2.88693
2.88693
2.88925
2.88925
2.89113
2.89113
2.89266
2.89266
2.89387
2.89387
2.89477
2.89477
2.89531
2.89531
2.89586
2.89586
2.89628
2.89628
2.89651
2.89651
2.89648
2.89648
2.89606
2.89606
2.89505
2.89505
2.893
2.893
2.88893
2.88893
2.88002
2.88002
2.85604
2.81222
2.81222
2.73968
2.73968
2.60258
2.60258
2.60258
2.60258
2.60258
)
;
    }
    F2_1
    {
        type            fixedValue;
        value           uniform 3.5;
    }
    F2_2
    {
        type            fixedValue;
        value           uniform 3.5;
    }
    F2_3
    {
        type            fixedValue;
        value           uniform 3.5;
    }
    F2_4
    {
        type            fixedValue;
        value           uniform 3.5;
    }
    defaultFaces
    {
        type            empty;
    }
}


// ************************************************************************* //
