/*--------------------------------*- C++ -*----------------------------------*\
| =========                 |                                                 |
| \\      /  F ield         | OpenFOAM: The Open Source CFD Toolbox           |
|  \\    /   O peration     | Version:  5.x                                   |
|   \\  /    A nd           | Web:      www.OpenFOAM.org                      |
|    \\/     M anipulation  |                                                 |
\*---------------------------------------------------------------------------*/
FoamFile
{
    version     2.0;
    format      ascii;
    class       volScalarField;
    location    "12.5";
    object      gradTy;
}
// * * * * * * * * * * * * * * * * * * * * * * * * * * * * * * * * * * * * * //

dimensions      [0 -1 0 1 0 0 0];

internalField   nonuniform List<scalar> 
2048
(
-26.4237
-26.3961
-26.3417
-26.2621
-26.1593
-26.0359
-25.8946
-25.7383
-25.5698
-25.3916
-25.2061
-25.0155
-24.8216
-24.6263
-24.431
-24.2369
-24.0453
-23.857
-23.6728
-23.4933
-23.3189
-23.15
-22.9868
-22.8296
-22.6785
-22.5339
-22.3961
-22.2652
-22.1419
-22.0264
-21.9194
-21.8215
-21.7335
-21.6561
-21.5904
-21.5374
-21.498
-21.4737
-21.4654
-21.4746
-21.5024
-21.5501
-21.619
-21.7101
-21.8245
-21.9629
-22.1257
-22.3129
-22.5237
-22.7567
-23.0097
-23.2793
-23.5613
-23.8505
-24.1406
-24.4253
-24.6977
-24.9511
-25.1796
-25.3778
-25.5412
-25.6667
-25.7515
-25.7944
-26.446
-26.4178
-26.3622
-26.2808
-26.176
-26.0503
-25.9068
-25.7483
-25.5776
-25.3975
-25.2103
-25.0181
-24.8229
-24.6263
-24.4299
-24.235
-24.0426
-23.8537
-23.669
-23.4892
-23.3145
-23.1453
-22.982
-22.8245
-22.6733
-22.5285
-22.3903
-22.2592
-22.1355
-22.0196
-21.912
-21.8136
-21.7248
-21.6467
-21.5802
-21.5262
-21.486
-21.4606
-21.4514
-21.4595
-21.4863
-21.533
-21.601
-21.6913
-21.8051
-21.9432
-22.1061
-22.2937
-22.5057
-22.7406
-22.9962
-23.2693
-23.5556
-23.8496
-24.1451
-24.4352
-24.7129
-24.9713
-25.2041
-25.4058
-25.5721
-25.6994
-25.7856
-25.829
-26.4887
-26.4592
-26.4012
-26.3165
-26.2077
-26.0777
-25.9297
-25.7669
-25.5923
-25.4085
-25.218
-25.0229
-24.825
-24.6262
-24.4278
-24.2312
-24.0374
-23.8473
-23.6618
-23.4813
-23.3061
-23.1365
-22.9728
-22.8151
-22.6635
-22.5182
-22.3796
-22.2479
-22.1234
-22.0066
-21.8982
-21.7985
-21.7085
-21.629
-21.5609
-21.5052
-21.4632
-21.4359
-21.4247
-21.4309
-21.4557
-21.5006
-21.5668
-21.6556
-21.7682
-21.9056
-22.0685
-22.2571
-22.4711
-22.7095
-22.9701
-23.2499
-23.5442
-23.8477
-24.1534
-24.4542
-24.7422
-25.0101
-25.2511
-25.4595
-25.6309
-25.762
-25.8504
-25.895
-26.55
-26.5186
-26.4569
-26.3673
-26.2526
-26.1163
-25.962
-25.793
-25.6127
-25.4237
-25.2285
-25.0293
-24.8278
-24.6258
-24.4246
-24.2255
-24.0298
-23.8382
-23.6514
-23.47
-23.2942
-23.1241
-22.9599
-22.8018
-22.6497
-22.5038
-22.3645
-22.2319
-22.1065
-21.9886
-21.8787
-21.7775
-21.6857
-21.6041
-21.5337
-21.4757
-21.4311
-21.4012
-21.3873
-21.3907
-21.4127
-21.4548
-21.5184
-21.6049
-21.7157
-21.852
-22.0147
-22.2044
-22.4212
-22.6644
-22.932
-23.2211
-23.5272
-23.8442
-24.1649
-24.481
-24.7841
-25.0657
-25.3185
-25.5365
-25.7151
-25.8512
-25.9429
-25.9889
-26.6284
-26.5944
-26.528
-26.4317
-26.3093
-26.1647
-26.002
-25.8252
-25.6376
-25.4422
-25.2412
-25.0369
-24.8309
-24.6248
-24.4201
-24.2181
-24.0199
-23.8263
-23.6381
-23.4556
-23.2791
-23.1085
-22.9439
-22.7852
-22.6325
-22.486
-22.3458
-22.2122
-22.0856
-21.9662
-21.8547
-21.7515
-21.6573
-21.5732
-21.5
-21.4389
-21.3911
-21.3579
-21.3405
-21.3403
-21.3588
-21.3974
-21.4577
-21.5412
-21.6494
-21.784
-21.9462
-22.137
-22.3569
-22.6057
-22.882
-23.1829
-23.5039
-23.8386
-24.1787
-24.5151
-24.8377
-25.137
-25.4049
-25.6349
-25.8225
-25.9647
-26.0601
-26.1079
-26.723
-26.6858
-26.6131
-26.5085
-26.3763
-26.2213
-26.0485
-25.8622
-25.666
-25.463
-25.2554
-25.0451
-24.8339
-24.6232
-24.4144
-24.2088
-24.0077
-23.8119
-23.6221
-23.4385
-23.2612
-23.0901
-22.925
-22.7658
-22.6125
-22.4652
-22.3241
-22.1894
-22.0614
-21.9404
-21.8268
-21.7213
-21.6245
-21.5373
-21.4608
-21.3961
-21.3445
-21.3073
-21.2858
-21.2814
-21.2957
-21.33
-21.3861
-21.4658
-21.5708
-21.703
-21.8641
-22.0556
-22.2788
-22.5338
-22.82
-23.1348
-23.4738
-23.83
-24.1942
-24.5556
-24.9023
-25.2234
-25.5095
-25.7536
-25.9513
-26.1003
-26.1997
-26.2493
-26.8331
-26.7918
-26.7115
-26.5965
-26.4523
-26.285
-26.1002
-25.9028
-25.6969
-25.4853
-25.2703
-25.0536
-24.8365
-24.6205
-24.4071
-24.1976
-23.9932
-23.795
-23.6035
-23.4188
-23.2409
-23.0693
-22.9039
-22.7442
-22.5902
-22.4421
-22.2999
-22.1639
-22.0344
-21.9117
-21.7959
-21.6878
-21.5879
-21.4973
-21.4169
-21.3482
-21.2923
-21.2506
-21.2244
-21.2153
-21.2246
-21.254
-21.3053
-21.3804
-21.4813
-21.6103
-21.7695
-21.9612
-22.1871
-22.4486
-22.7455
-23.0761
-23.4359
-23.8176
-24.2106
-24.602
-24.9777
-25.3246
-25.6317
-25.8917
-26.1003
-26.2562
-26.3595
-26.4108
-26.9584
-26.912
-26.8223
-26.6948
-26.5363
-26.3543
-26.1556
-25.9458
-25.7291
-25.5083
-25.2854
-25.0618
-24.8384
-24.6168
-24.3983
-24.1844
-23.9765
-23.7756
-23.5823
-23.3967
-23.2183
-23.0465
-22.8808
-22.7207
-22.5661
-22.4171
-22.2738
-22.1365
-22.0055
-21.8808
-21.7628
-21.6518
-21.5485
-21.454
-21.3694
-21.2961
-21.2354
-21.1888
-21.1575
-21.1431
-21.1469
-21.1708
-21.2165
-21.2861
-21.3821
-21.5069
-21.6634
-21.8543
-22.0824
-22.3499
-22.6581
-23.0058
-23.3892
-23.8003
-24.227
-24.6539
-25.0637
-25.4405
-25.7714
-26.0484
-26.2683
-26.4307
-26.5374
-26.5901
-27.0987
-27.0461
-26.945
-26.8024
-26.627
-26.4281
-26.2136
-25.99
-25.7617
-25.5313
-25.3003
-25.0694
-24.8396
-24.6119
-24.3878
-24.1691
-23.9573
-23.7537
-23.5588
-23.3724
-23.1938
-23.0221
-22.8563
-22.6959
-22.5406
-22.3906
-22.2461
-22.1075
-21.9749
-21.8483
-21.7279
-21.6139
-21.507
-21.4083
-21.319
-21.2407
-21.1749
-21.1229
-21.0861
-21.0659
-21.0638
-21.0815
-21.1209
-21.1844
-21.2745
-21.3941
-21.5467
-21.7356
-21.9648
-22.2377
-22.557
-22.9229
-23.3323
-23.7769
-24.2427
-24.711
-25.1606
-25.5715
-25.9286
-26.2236
-26.4542
-26.6223
-26.7314
-26.7849
-27.254
-27.194
-27.0792
-26.9185
-26.7233
-26.5049
-26.2727
-26.0342
-25.7937
-25.5536
-25.3144
-25.0764
-24.8398
-24.6057
-24.3756
-24.1516
-23.9357
-23.7293
-23.5328
-23.3459
-23.1676
-22.9963
-22.8307
-22.6701
-22.5141
-22.363
-22.2173
-22.0774
-21.9432
-21.8148
-21.6919
-21.5747
-21.4639
-21.3607
-21.2664
-21.1827
-21.1114
-21.0537
-21.0111
-20.9848
-20.9763
-20.9873
-21.0198
-21.0763
-21.1596
-21.273
-21.4203
-21.6059
-21.8347
-22.1117
-22.4415
-22.8262
-23.2638
-23.7459
-24.2567
-24.7733
-25.2689
-25.7185
-26.1041
-26.4172
-26.6574
-26.8293
-26.9394
-26.9928
-27.4246
-27.3557
-27.2243
-27.0424
-26.8241
-26.5833
-26.3317
-26.0772
-25.8243
-25.5745
-25.3275
-25.0824
-24.8391
-24.5982
-24.3617
-24.132
-23.9116
-23.7022
-23.5044
-23.3175
-23.1399
-22.9694
-22.8044
-22.6436
-22.4869
-22.3346
-22.1876
-22.0463
-21.9109
-21.7807
-21.6554
-21.5349
-21.42
-21.3118
-21.2121
-21.1228
-21.0456
-20.982
-20.9333
-20.9007
-20.8854
-20.8892
-20.9142
-20.963
-21.0386
-21.1446
-21.2853
-21.4659
-21.6924
-21.9717
-22.3108
-22.7142
-23.1818
-23.7058
-24.268
-24.8405
-25.3895
-25.8827
-26.2986
-26.6291
-26.8768
-27.0502
-27.1592
-27.2115
-27.6111
-27.5313
-27.3803
-27.1731
-26.928
-26.6621
-26.3891
-26.1178
-25.8525
-25.5936
-25.3394
-25.0877
-24.8376
-24.5897
-24.3461
-24.11
-23.8848
-23.6724
-23.4735
-23.2871
-23.1109
-22.942
-22.7777
-22.6169
-22.4593
-22.3057
-22.1572
-22.0147
-21.8781
-21.7464
-21.6188
-21.495
-21.3757
-21.2622
-21.1566
-21.0613
-20.978
-20.9083
-20.8535
-20.8143
-20.7921
-20.7883
-20.8052
-20.8455
-20.9126
-21.0101
-21.1428
-21.3164
-21.5385
-21.8178
-22.164
-22.5854
-23.0845
-23.6545
-24.2753
-24.9129
-25.5235
-26.0657
-26.5135
-26.8597
-27.1117
-27.2833
-27.3885
-27.4383
-27.8141
-27.7212
-27.5467
-27.3098
-27.0337
-26.7397
-26.4435
-26.1548
-25.8775
-25.6105
-25.35
-25.0922
-24.8354
-24.5801
-24.3288
-24.0857
-23.8551
-23.6397
-23.4401
-23.255
-23.081
-22.9142
-22.7512
-22.5904
-22.4318
-22.2765
-22.1263
-21.9827
-21.8452
-21.7124
-21.5826
-21.4554
-21.3315
-21.2123
-21.1005
-20.9987
-20.9092
-20.8334
-20.7722
-20.7265
-20.6971
-20.6854
-20.6937
-20.725
-20.7827
-20.8706
-20.9938
-21.1586
-21.3736
-21.6498
-22.0006
-22.4383
-22.9697
-23.5898
-24.2771
-24.9903
-25.6727
-26.2699
-26.7502
-27.1094
-27.3613
-27.5267
-27.625
-27.6706
-28.0343
-27.9258
-27.7234
-27.4517
-27.14
-26.8146
-26.4934
-26.1869
-25.8985
-25.6247
-25.3593
-25.0962
-24.833
-24.5699
-24.3099
-24.0589
-23.8225
-23.604
-23.4041
-23.2211
-23.0504
-22.8866
-22.7252
-22.5644
-22.4045
-22.247
-22.0949
-21.9503
-21.8124
-21.6789
-21.5473
-21.4167
-21.2878
-21.1625
-21.0439
-20.9355
-20.8395
-20.7575
-20.6902
-20.6379
-20.6012
-20.5813
-20.5805
-20.6022
-20.6499
-20.7273
-20.8395
-20.9934
-21.1986
-21.4682
-21.8197
-22.2711
-22.8348
-23.5091
-24.2716
-25.0731
-25.8394
-26.498
-27.0108
-27.3784
-27.6243
-27.7783
-27.8662
-27.9057
-28.273
-28.1457
-27.9104
-27.5978
-27.2452
-26.8851
-26.5374
-26.2131
-25.9147
-25.6363
-25.3676
-25.1001
-24.8306
-24.5593
-24.2896
-24.0294
-23.7868
-23.5651
-23.3654
-23.1855
-23.0194
-22.8595
-22.7001
-22.5393
-22.3777
-22.2174
-22.063
-21.9176
-21.78
-21.6464
-21.5132
-21.3792
-21.2451
-21.1131
-20.9872
-20.8718
-20.7693
-20.6811
-20.6078
-20.5492
-20.5052
-20.4768
-20.4665
-20.4781
-20.5151
-20.5812
-20.6812
-20.8222
-21.0145
-21.2734
-21.621
-22.0824
-22.6774
-23.4092
-24.2562
-25.1614
-26.0266
-26.7537
-27.2973
-27.667
-27.8997
-28.0362
-28.1094
-28.1408
-28.5312
-28.3815
-28.1074
-27.7469
-27.3475
-26.9496
-26.574
-26.232
-25.9256
-25.6449
-25.3753
-25.1043
-24.8286
-24.5488
-24.268
-23.9972
-23.7476
-23.5227
-23.3236
-23.1482
-22.9882
-22.8335
-22.6765
-22.5155
-22.3517
-22.1878
-22.0303
-21.8844
-21.748
-21.6152
-21.4807
-21.3433
-21.2039
-21.0644
-20.9304
-20.8078
-20.6988
-20.6045
-20.5256
-20.4609
-20.4097
-20.3725
-20.3524
-20.3534
-20.3794
-20.4335
-20.52
-20.6464
-20.8228
-21.0661
-21.404
-21.8704
-22.4947
-23.2865
-24.228
-25.2552
-26.2381
-27.0414
-27.6124
-27.9754
-28.1857
-28.2977
-28.3518
-28.373
-28.8104
-28.6339
-28.3144
-27.8979
-27.4452
-27.0065
-26.6018
-26.2423
-25.9305
-25.6509
-25.3828
-25.1094
-24.8277
-24.5389
-24.245
-23.9617
-23.7047
-23.4766
-23.2785
-23.1091
-22.9572
-22.8092
-22.6547
-22.4933
-22.327
-22.1581
-21.9966
-21.8507
-21.7166
-21.5857
-21.4503
-21.3094
-21.1644
-21.0166
-20.8737
-20.7437
-20.6281
-20.528
-20.4438
-20.3735
-20.3152
-20.2691
-20.2386
-20.2287
-20.2435
-20.2852
-20.3573
-20.4674
-20.625
-20.8473
-21.1689
-21.6336
-22.2838
-23.1369
-24.1826
-25.3545
-26.4789
-27.3665
-27.9586
-28.3032
-28.4805
-28.5604
-28.5908
-28.5998
-29.1122
-28.9034
-28.5316
-28.0494
-27.5359
-27.0542
-26.6196
-26.2429
-25.9288
-25.6542
-25.3911
-25.1158
-24.8281
-24.5304
-24.2211
-23.9227
-23.6581
-23.4266
-23.2298
-23.0684
-22.9267
-22.7871
-22.6353
-22.473
-22.3037
-22.1281
-21.9612
-21.816
-21.6859
-21.5585
-21.4222
-21.2778
-21.1272
-20.9699
-20.8169
-20.6795
-20.5575
-20.4516
-20.3629
-20.2876
-20.2225
-20.1671
-20.1257
-20.1046
-20.1082
-20.1374
-20.1941
-20.2868
-20.4231
-20.6186
-20.9157
-21.3706
-22.0422
-22.956
-24.1143
-25.4588
-26.7559
-27.7355
-28.3384
-28.6497
-28.7817
-28.8214
-28.8237
-28.8184
-29.4384
-29.1906
-28.7591
-28.2001
-27.6169
-27.0914
-26.626
-26.2321
-25.9201
-25.6554
-25.4013
-25.1241
-24.8304
-24.5244
-24.1961
-23.8792
-23.6075
-23.3725
-23.1768
-23.0258
-22.8972
-22.7682
-22.6186
-22.4549
-22.2827
-22.0979
-21.9235
-21.7802
-21.6561
-21.5339
-21.3968
-21.2487
-21.0928
-20.9244
-20.7599
-20.6153
-20.487
-20.3755
-20.2832
-20.2036
-20.1322
-20.067
-20.0141
-19.9815
-19.9742
-19.9911
-20.0315
-20.1062
-20.2192
-20.3814
-20.6451
-21.08
-21.7674
-22.739
-24.0157
-25.5671
-27.0778
-28.1562
-28.7543
-29.0135
-29.0864
-29.0779
-29.0478
-29.0266
-29.7912
-29.4956
-28.9977
-28.3482
-27.685
-27.117
-26.6205
-26.2084
-25.904
-25.6547
-25.4147
-25.1349
-24.8345
-24.5222
-24.1704
-23.8302
-23.5531
-23.3143
-23.1187
-22.9814
-22.8691
-22.7535
-22.6049
-22.4389
-22.2646
-22.0673
-21.8824
-21.7427
-21.6272
-21.5129
-21.3744
-21.2222
-21.0619
-20.8803
-20.702
-20.5512
-20.4169
-20.2996
-20.2048
-20.1218
-20.0447
-19.9692
-19.9041
-19.8595
-19.842
-19.8473
-19.8704
-19.9271
-20.016
-20.1379
-20.3579
-20.7605
-21.4578
-22.4812
-23.8763
-25.6774
-27.4567
-28.6376
-29.2078
-29.3923
-29.3914
-29.3267
-29.2607
-29.2223
-30.1732
-29.8178
-29.2487
-28.4919
-27.7358
-27.1307
-26.6024
-26.1694
-25.8803
-25.6526
-25.4335
-25.1482
-24.8403
-24.5261
-24.1441
-23.7739
-23.4952
-23.2521
-23.0544
-22.9352
-22.8426
-22.7444
-22.5944
-22.4249
-22.2506
-22.0362
-21.8362
-21.7033
-21.5993
-21.4964
-21.3549
-21.198
-21.0355
-20.8376
-20.6425
-20.4875
-20.3472
-20.2236
-20.128
-20.0428
-19.9607
-19.8742
-19.7957
-19.7388
-19.7122
-19.707
-19.7112
-19.7509
-19.8166
-19.8901
-20.0558
-20.4106
-21.1125
-22.1786
-23.6821
-25.7864
-27.909
-29.1899
-29.6998
-29.7825
-29.6927
-29.565
-29.4603
-29.4036
-30.5874
-30.1555
-29.5145
-28.6293
-27.7637
-27.1331
-26.572
-26.1124
-25.8491
-25.6495
-25.4605
-25.1641
-24.8467
-24.539
-24.1172
-23.7076
-23.4349
-23.1863
-22.9821
-22.8872
-22.8181
-22.7427
-22.5871
-22.4122
-22.2428
-22.0045
-21.7829
-21.6616
-21.5726
-21.4859
-21.3384
-21.1757
-21.0151
-20.7964
-20.5802
-20.4244
-20.2783
-20.147
-20.0531
-19.9668
-19.8811
-19.7822
-19.689
-19.6192
-19.585
-19.5716
-19.5541
-19.5788
-19.6248
-19.6404
-19.7407
-20.0281
-20.7319
-21.8289
-23.4139
-25.8882
-28.457
-29.8242
-30.2292
-30.1796
-29.9862
-29.7897
-29.6445
-29.5692
-31.0379
-30.5049
-29.7995
-28.7583
-27.7609
-27.1266
-26.5301
-26.0332
-25.8113
-25.6451
-25.4998
-25.182
-24.8517
-24.5657
-24.09
-23.6269
-23.3741
-23.1178
-22.8992
-22.8382
-22.7954
-22.7512
-22.5825
-22.3993
-22.244
-21.972
-21.7193
-21.6176
-21.5467
-21.4835
-21.3246
-21.154
-21.0029
-20.7567
-20.5129
-20.3629
-20.2105
-20.0691
-19.9805
-19.894
-19.8065
-19.6935
-19.5841
-19.5003
-19.4608
-19.4425
-19.3986
-19.4116
-19.4451
-19.3908
-19.4157
-19.6098
-20.3183
-21.4329
-23.0459
-25.9738
-29.132
-30.552
-30.793
-30.5776
-30.2674
-29.9981
-29.8118
-29.7181
-31.5301
-30.8592
-30.1105
-28.8767
-27.7166
-27.116
-26.4785
-25.9259
-25.7686
-25.6386
-25.5571
-25.2005
-24.8514
-24.6128
-24.0625
-23.5257
-23.3163
-23.0479
-22.8019
-22.7891
-22.7738
-22.7736
-22.5799
-22.3838
-22.2584
-21.9387
-21.6411
-21.572
-21.521
-21.4922
-21.3127
-21.1312
-21.0021
-20.7184
-20.4379
-20.3043
-20.1443
-19.9886
-19.9108
-19.8245
-19.7382
-19.6082
-19.4809
-19.3815
-19.3396
-19.3219
-19.2433
-19.2493
-19.2833
-19.143
-19.0852
-19.1505
-19.8758
-20.9965
-22.5431
-26.0295
-29.9769
-31.3838
-31.385
-30.9694
-30.5317
-30.188
-29.9612
-29.8497
-32.0714
-31.2065
-30.4589
-28.9822
-27.6156
-27.1094
-26.42
-25.7818
-25.7248
-25.6273
-25.6407
-25.2175
-24.8397
-24.6906
-24.0348
-23.3945
-23.2671
-22.9787
-22.6844
-22.7424
-22.7517
-22.8153
-22.5776
-22.3616
-22.2926
-21.9046
-21.5425
-21.5264
-21.4942
-21.5163
-21.3016
-21.1038
-21.0176
-20.6815
-20.3508
-20.2511
-20.0806
-19.9034
-19.845
-19.758
-19.6774
-19.5264
-19.3792
-19.2618
-19.2212
-19.213
-19.0859
-19.0911
-19.1468
-18.8972
-18.7561
-18.6419
-19.4108
-20.5337
-21.8588
-26.0346
-31.0516
-32.3274
-31.9954
-31.3465
-30.7745
-30.3572
-30.0919
-29.9638
-32.6722
-31.5278
-30.8619
-29.0725
-27.4365
-27.1205
-26.3591
-25.5882
-25.6866
-25.606
-25.7626
-25.2295
-24.8067
-24.8135
-24.0069
-23.22
-23.2354
-22.913
-22.5383
-22.7023
-22.7255
-22.8841
-22.5734
-22.3264
-22.3557
-21.8694
-21.415
-21.4845
-21.4635
-21.562
-21.2894
-21.067
-21.0563
-20.6457
-20.2454
-20.2069
-20.0203
-19.8106
-19.7847
-19.6938
-19.626
-19.4478
-19.2791
-19.1401
-19.1048
-19.1202
-18.9227
-18.9351
-19.0454
-18.6519
-18.4384
-18.0707
-18.9318
-20.0709
-20.9308
-25.9592
-32.4381
-33.385
-32.61
-31.7
-30.992
-30.5045
-30.2036
-30.0605
-33.3474
-31.7936
-31.3458
-29.1453
-27.1496
-27.1698
-26.3016
-25.3269
-25.6656
-25.5649
-25.9395
-25.2314
-24.7376
-25.0023
-23.9784
-22.9828
-23.2345
-22.8547
-22.3514
-22.6763
-22.6888
-22.9911
-22.5638
-22.2686
-22.4613
-21.833
-21.2474
-21.4523
-21.4239
-21.6384
-21.2735
-21.0133
-21.1283
-20.6106
-20.1129
-20.1776
-19.9647
-19.7057
-19.7327
-19.6305
-19.5865
-19.3719
-19.1808
-19.0145
-18.9891
-19.05
-18.7483
-18.7773
-18.9926
-18.4016
-18.1479
-17.4166
-18.4489
-19.6518
-19.6776
-25.7601
-34.2495
-34.5486
-33.2102
-32.0204
-31.1805
-30.6288
-30.2965
-30.1404
-34.118
-31.9598
-31.949
-29.1986
-26.7135
-27.2879
-26.255
-24.9718
-25.6805
-25.4878
-26.1955
-25.2162
-24.6109
-25.2861
-23.949
-22.6561
-23.2843
-22.8089
-22.1065
-22.6764
-22.6306
-23.1519
-22.5442
-22.1742
-22.628
-21.7949
-21.0238
-21.4403
-21.3669
-21.758
-21.2501
-20.932
-21.2479
-20.5755
-19.9413
-20.1718
-19.9152
-19.5825
-19.6933
-19.5652
-19.5625
-19.2974
-19.0848
-18.8832
-18.8715
-19.0119
-18.555
-18.6116
-19.0067
-18.1353
-17.908
-16.6496
-17.9731
-19.3443
-17.9931
-25.3771
-36.6387
-35.7943
-33.7728
-32.2988
-31.3376
-30.73
-30.3712
-30.2042
-35.0134
-31.9619
-32.7266
-29.23
-26.0723
-27.5184
-26.2287
-24.4861
-25.7605
-25.3484
-26.5639
-25.1742
-24.396
-25.7049
-23.9176
-22.2029
-23.4127
-22.7818
-21.7791
-22.7217
-22.5339
-23.3887
-22.5082
-22.0237
-22.8817
-21.7539
-20.7231
-21.4649
-21.2789
-21.9386
-21.214
-20.8079
-21.4347
-20.5392
-19.7139
-20.2021
-19.8736
-19.4321
-19.673
-19.4936
-19.5587
-19.2223
-18.9923
-18.7438
-18.7481
-19.0193
-18.3326
-18.4284
-19.1131
-17.8338
-17.7538
-15.7267
-17.5145
-19.2485
-15.7411
-24.7268
-39.8116
-37.0738
-34.2709
-32.5273
-31.4618
-30.8085
-30.4284
-30.2528
-36.0745
-31.7087
-33.7558
-29.2372
-25.1503
-27.9219
-26.2339
-23.8195
-25.9498
-25.1064
-27.091
-25.0933
-24.0508
-26.3131
-23.8829
-21.5735
-23.6588
-22.781
-21.3359
-22.8409
-22.372
-23.7316
-22.4474
-21.7898
-23.2574
-21.7084
-20.3171
-21.5511
-21.1388
-22.2044
-21.1585
-20.6202
-21.7155
-20.4999
-19.4087
-20.2859
-19.8415
-19.2427
-19.6816
-19.4088
-19.582
-19.1435
-18.9051
-18.5935
-18.6123
-19.0905
-18.0674
-18.2139
-19.3465
-17.4655
-17.7366
-14.5883
-17.0795
-19.507
-12.7487
-23.6963
-44.0418
-38.304
-34.6765
-32.7002
-31.5528
-30.865
-30.4694
-30.2875
-37.3573
-31.0741
-35.1426
-29.2176
-23.8481
-28.5809
-26.2835
-22.9033
-26.3127
-24.7022
-27.8392
-24.9574
-23.5183
-27.1826
-23.8423
-20.7024
-24.076
-22.8154
-20.7315
-23.076
-22.1059
-24.2219
-22.3512
-21.4359
-23.8017
-21.6555
-19.7684
-21.735
-20.9153
-22.5888
-21.0748
-20.3407
-22.1258
-20.4549
-18.9963
-20.4473
-19.8205
-18.998
-19.7333
-19.3004
-19.6417
-19.0559
-18.8263
-18.4296
-18.4545
-19.2507
-17.742
-17.9485
-19.7546
-16.9818
-17.9293
-13.1539
-16.6677
-20.3162
-8.79995
-22.1348
-49.6876
-39.3538
-34.9631
-32.8145
-31.6115
-30.9011
-30.4953
-30.3094
-38.9366
-29.8875
-37.029
-29.1676
-22.0357
-29.605
-26.3916
-21.6463
-26.9404
-24.0497
-28.8921
-24.7464
-22.7229
-28.4069
-23.7922
-19.5035
-24.7342
-22.8942
-19.9045
-23.4857
-21.6781
-24.9136
-22.2052
-20.9137
-24.5758
-21.5903
-19.0263
-22.0652
-20.5608
-23.1337
-20.9504
-19.9322
-22.7122
-20.3998
-18.4382
-20.7174
-19.811
-18.6766
-19.8484
-19.1535
-19.751
-18.9522
-18.76
-18.2488
-18.2602
-19.5331
-17.3347
-17.605
-20.4015
-16.3111
-18.4337
-11.3168
-16.2665
-21.9389
-3.62784
-19.8441
-57.213
-40.0274
-35.1109
-32.8703
-31.6396
-30.9183
-30.5077
-30.3198
)
;

boundaryField
{
    left
    {
        type            calculated;
        value           nonuniform List<scalar> 
32
(
-26.4237
-26.446
-26.4887
-26.55
-26.6284
-26.723
-26.8331
-26.9584
-27.0987
-27.254
-27.4246
-27.6111
-27.8141
-28.0343
-28.273
-28.5312
-28.8104
-29.1122
-29.4384
-29.7912
-30.1732
-30.5874
-31.0379
-31.5301
-32.0714
-32.6722
-33.3474
-34.118
-35.0134
-36.0745
-37.3573
-38.9366
)
;
    }
    right
    {
        type            calculated;
        value           nonuniform List<scalar> 
32
(
-25.7944
-25.829
-25.895
-25.9889
-26.1079
-26.2493
-26.4108
-26.5901
-26.7849
-26.9928
-27.2115
-27.4383
-27.6706
-27.9057
-28.1408
-28.373
-28.5998
-28.8184
-29.0266
-29.2223
-29.4036
-29.5692
-29.7181
-29.8497
-29.9638
-30.0605
-30.1404
-30.2042
-30.2528
-30.2875
-30.3094
-30.3198
)
;
    }
    interface
    {
        type            calculated;
        value           nonuniform List<scalar> 
64
(
-39.8111
-29.1316
-38.1174
-29.1344
-20.9838
-30.2238
-26.4621
-20.9195
-27.3338
-23.6488
-29.5066
-24.6193
-22.2488
-29.121
-23.7642
-18.81
-25.1336
-22.9458
-19.4265
-23.7425
-21.4151
-25.3173
-22.1178
-20.6037
-25.029
-21.5539
-18.5995
-22.2737
-20.3436
-23.452
-20.8762
-19.6903
-23.0559
-20.369
-18.1171
-20.884
-19.809
-18.4937
-19.9247
-19.0683
-19.82
-18.8951
-18.7305
-18.1537
-18.1517
-19.7096
-17.1075
-17.4099
-20.7937
-15.9182
-18.7786
-10.2825
-16.0661
-22.9911
-0.699142
-18.4884
-61.5108
-40.2412
-35.1483
-32.8839
-31.6464
-30.9224
-30.5106
-30.3222
)
;
    }
    bottom
    {
        type            calculated;
        value           nonuniform List<scalar> 
64
(
-26.4179
-26.3905
-26.3364
-26.2572
-26.1549
-26.0321
-25.8914
-25.7357
-25.5677
-25.39
-25.205
-25.0148
-24.8213
-24.6263
-24.4312
-24.2374
-24.046
-23.8579
-23.6738
-23.4944
-23.3201
-23.1512
-22.988
-22.8309
-22.6799
-22.5354
-22.3975
-22.2668
-22.1435
-22.0282
-21.9213
-21.8236
-21.7357
-21.6586
-21.5931
-21.5403
-21.5012
-21.4771
-21.4691
-21.4785
-21.5066
-21.5546
-21.6237
-21.715
-21.8296
-21.9681
-22.1309
-22.3179
-22.5283
-22.7609
-23.0132
-23.2819
-23.5628
-23.8507
-24.1395
-24.4227
-24.6937
-24.9459
-25.1732
-25.3705
-25.5332
-25.6581
-25.7427
-25.7853
)
;
    }
    defaultFaces
    {
        type            empty;
    }
}


// ************************************************************************* //
