/*--------------------------------*- C++ -*----------------------------------*\
| =========                 |                                                 |
| \\      /  F ield         | OpenFOAM: The Open Source CFD Toolbox           |
|  \\    /   O peration     | Version:  5.x                                   |
|   \\  /    A nd           | Web:      www.OpenFOAM.org                      |
|    \\/     M anipulation  |                                                 |
\*---------------------------------------------------------------------------*/
FoamFile
{
    version     2.0;
    format      ascii;
    class       volScalarField;
    location    "12.5";
    object      gradTx;
}
// * * * * * * * * * * * * * * * * * * * * * * * * * * * * * * * * * * * * * //

dimensions      [0 -1 0 1 0 0 0];

internalField   nonuniform List<scalar> 
2048
(
0.00630486
0.018734
0.0306381
0.0417193
0.0517487
0.060577
0.0681337
0.0744168
0.0794758
0.0833937
0.0862702
0.0882096
0.0893139
0.08968
0.0894003
0.0885639
0.0872577
0.0855651
0.0835641
0.081323
0.0788978
0.0763289
0.0736414
0.0708454
0.0679385
0.0649088
0.0617365
0.0583963
0.0548572
0.0510832
0.0470342
0.0426664
0.0379347
0.0327946
0.027204
0.0211255
0.0145267
0.00738162
-0.000329453
-0.00861814
-0.017486
-0.0269206
-0.0368908
-0.0473389
-0.0581736
-0.06926
-0.080411
-0.0913795
-0.101854
-0.111462
-0.119781
-0.126358
-0.130752
-0.132569
-0.131511
-0.127415
-0.120276
-0.110247
-0.0976148
-0.0827645
-0.0661292
-0.04815
-0.0292468
-0.00980735
0.0187882
0.055817
0.0912549
0.124203
0.153976
0.180133
0.202475
0.221008
0.235896
0.247395
0.255813
0.261462
0.264646
0.265652
0.264751
0.262207
0.258276
0.253208
0.247236
0.240565
0.233362
0.225747
0.217793
0.209529
0.200946
0.192005
0.182649
0.1728
0.162367
0.151243
0.139309
0.126434
0.112483
0.097322
0.0808259
0.0628828
0.0433969
0.0222901
-0.000496188
-0.0249985
-0.0512243
-0.0791417
-0.108663
-0.139627
-0.171768
-0.204698
-0.237867
-0.270551
-0.301825
-0.330579
-0.355543
-0.375355
-0.388669
-0.394286
-0.391293
-0.37919
-0.357959
-0.328071
-0.29041
-0.24615
-0.196607
-0.143108
-0.0869047
-0.0291381
0.0311396
0.0924815
0.151104
0.205482
0.254468
0.297347
0.333821
0.363947
0.388037
0.406556
0.420034
0.429001
0.433959
0.435371
0.433677
0.429305
0.422676
0.414204
0.404279
0.393245
0.381381
0.368886
0.355876
0.34239
0.328407
0.313858
0.298645
0.282641
0.265696
0.247636
0.22826
0.207353
0.184686
0.160037
0.133197
0.103981
0.0722303
0.037817
0.000642268
-0.0393588
-0.0822077
-0.127865
-0.176207
-0.226987
-0.2798
-0.33403
-0.388806
-0.442951
-0.494957
-0.542981
-0.58489
-0.618377
-0.641129
-0.651069
-0.646605
-0.626857
-0.591796
-0.542249
-0.479766
-0.406386
-0.324371
-0.23596
-0.143223
-0.048009
0.043599
0.129424
0.211271
0.286935
0.35479
0.413865
0.463814
0.504809
0.537377
0.562243
0.580193
0.591988
0.598318
0.599815
0.597068
0.590655
0.58116
0.569164
0.55522
0.539822
0.523364
0.506122
0.488249
0.469784
0.450684
0.430842
0.410116
0.38833
0.365279
0.340722
0.314381
0.285949
0.255102
0.221525
0.184922
0.145034
0.101644
0.0545748
0.00368576
-0.0511213
-0.109893
-0.172602
-0.23911
-0.309121
-0.382126
-0.457329
-0.533578
-0.609291
-0.682397
-0.750322
-0.810034
-0.858195
-0.891411
-0.906585
-0.901322
-0.874284
-0.825427
-0.756007
-0.668376
-0.565588
-0.45097
-0.327743
-0.198792
-0.0666104
0.0563821
0.167266
0.272717
0.369765
0.456277
0.531058
0.593787
0.64484
0.685057
0.715495
0.737242
0.751301
0.758547
0.759752
0.755631
0.746899
0.734296
0.718579
0.700481
0.680658
0.659633
0.637756
0.615206
0.592009
0.568082
0.54327
0.517381
0.490196
0.461459
0.430865
0.398058
0.362634
0.324167
0.282237
0.236461
0.186507
0.1321
0.0730154
0.00907422
-0.0598618
-0.133878
-0.212979
-0.297045
-0.38577
-0.478586
-0.574574
-0.672359
-0.770006
-0.864917
-0.953789
-1.03264
-1.09698
-1.14216
-1.16385
-1.15867
-1.12469
-1.06184
-0.971936
-0.858324
-0.72531
-0.577479
-0.419131
-0.253973
-0.0850557
0.0696939
0.206596
0.336336
0.455065
0.560111
0.650097
0.724827
0.785016
0.831934
0.867071
0.89187
0.907588
0.915264
0.915774
0.909926
0.898549
0.882536
0.862835
0.840386
0.816032
0.790434
0.764022
0.736985
0.709312
0.680857
0.651403
0.620705
0.588505
0.554505
0.518347
0.47959
0.437726
0.392213
0.342518
0.288163
0.228741
0.163928
0.0934584
0.0171159
-0.0652819
-0.153873
-0.248719
-0.349752
-0.4567
-0.568993
-0.685651
-0.805151
-0.925273
-1.04295
-1.15415
-1.2539
-1.3364
-1.39552
-1.42542
-1.42142
-1.38084
-1.30357
-1.19213
-1.05118
-0.886618
-0.704537
-0.510463
-0.308916
-0.103385
0.0837383
0.247993
0.402996
0.543872
0.66737
0.771998
0.857827
0.92608
0.97862
1.01748
1.04454
1.06129
1.06892
1.06834
1.0604
1.04602
1.02624
1.00224
0.975181
0.946142
0.915946
0.885097
0.853775
0.821899
0.789229
0.755464
0.720306
0.683466
0.644625
0.603376
0.559198
0.511463
0.459494
0.402628
0.340282
0.271981
0.197355
0.116114
0.0280082
-0.0671895
-0.169685
-0.279623
-0.397026
-0.521702
-0.653138
-0.790367
-0.931806
-1.07504
-1.21662
-1.35182
-1.4746
-1.57772
-1.65325
-1.69347
-1.69203
-1.6452
-1.5528
-1.4183
-1.2481
-1.05013
-0.83238
-0.601752
-0.363562
-0.121567
0.098727
0.292053
0.473574
0.6372
0.779065
0.897659
0.993512
1.06857
1.1255
1.16703
1.19551
1.21269
1.21982
1.21778
1.20741
1.18965
1.16571
1.13702
1.10504
1.07112
1.03628
1.0011
0.965724
0.929946
0.893391
0.855649
0.816364
0.775242
0.731967
0.686104
0.637045
0.584024
0.5262
0.462759
0.393002
0.316387
0.232519
0.141097
0.0418542
-0.0654845
-0.181205
-0.305566
-0.438715
-0.580592
-0.7308
-0.888469
-1.05205
-1.21907
-1.38577
-1.54685
-1.69515
-1.82183
-1.9168
-1.96995
-1.97274
-1.92004
-1.8115
-1.65185
-1.44984
-1.21607
-0.960859
-0.692707
-0.417659
-0.139505
0.114886
0.339409
0.54898
0.736071
0.896166
1.02788
1.13246
1.21285
1.27278
1.31582
1.34487
1.36192
1.36817
1.36438
1.35125
1.32973
1.30119
1.26735
1.23008
1.19104
1.15151
1.11213
1.07295
1.03361
0.993523
0.952134
0.909035
0.863956
0.816633
0.766628
0.713239
0.655535
0.592472
0.523053
0.446448
0.362059
0.269487
0.168447
0.0586748
-0.0601472
-0.188401
-0.326487
-0.474722
-0.63322
-0.801766
-0.979664
-1.16552
-1.35693
-1.55002
-1.73899
-1.91563
-2.06928
-2.18731
-2.25661
-2.26573
-2.20756
-2.08147
-1.89393
-1.6568
-1.38423
-1.08944
-0.782733
-0.470763
-0.157036
0.132461
0.39074
0.630179
0.841536
1.01962
1.16339
1.27511
1.3591
1.42043
1.46375
1.49256
1.50899
1.5141
1.50835
1.49219
1.46652
1.43288
1.39339
1.35036
1.30592
1.26164
1.21821
1.17556
1.13304
1.0898
1.04509
0.998453
0.949699
0.898681
0.844997
0.787846
0.726084
0.658416
0.583616
0.500705
0.409042
0.308261
0.198133
0.0784192
-0.0512291
-0.191306
-0.342388
-0.505002
-0.679484
-0.865847
-1.06365
-1.27178
-1.48808
-1.70876
-1.92772
-2.13577
-2.32031
-2.46571
-2.55507
-2.57312
-2.50997
-2.3645
-2.14547
-1.86904
-1.55401
-1.21723
-0.870949
-0.522255
-0.17394
0.151724
0.446794
0.718212
0.954694
1.15037
1.30482
1.42177
1.50734
1.5683
1.61058
1.63836
1.65382
1.65766
1.64987
1.63049
1.60027
1.56098
1.51521
1.4659
1.41573
1.36663
1.31937
1.27364
1.2284
1.18241
1.1347
1.08474
1.03253
0.978126
0.921221
0.860895
0.795731
0.724114
0.644528
0.555824
0.457341
0.348796
0.230064
0.100974
-0.0388445
-0.190014
-0.353328
-0.52957
-0.719331
-0.922894
-1.14015
-1.37038
-1.61187
-1.86119
-2.11222
-2.35499
-2.57483
-2.75265
-2.86685
-2.89709
-2.82959
-2.66235
-2.40723
-2.08628
-1.72442
-1.34294
-0.956199
-0.571355
-0.189944
0.172979
0.508397
0.81421
1.0767
1.28935
1.45275
1.57263
1.65742
1.71601
1.75589
1.78195
1.79624
1.79887
1.78912
1.76641
1.73125
1.68567
1.63291
1.57667
1.52037
1.4664
1.41559
1.36726
1.31983
1.27156
1.22114
1.16802
1.11248
1.05494
0.995269
0.932384
0.864514
0.789632
0.705858
0.61184
0.50693
0.391002
0.264101
0.12617
-0.0231631
-0.184672
-0.359418
-0.548492
-0.752767
-0.972816
-1.2089
-1.46086
-1.7276
-2.00637
-2.29145
-2.57236
-2.83243
-3.04856
-3.19338
-3.23996
-3.16897
-2.9769
-2.67982
-2.30784
-1.894
-1.46494
-1.03708
-0.617147
-0.204732
0.196563
0.576461
0.919406
1.20879
1.43748
1.60766
1.72775
1.80904
1.86304
1.89913
1.9229
1.93604
1.93775
1.92629
1.90024
1.85972
1.80712
1.74654
1.68262
1.61971
1.56084
1.50684
1.45651
1.40752
1.35748
1.30464
1.24842
1.18954
1.12906
1.06707
1.00229
0.932456
0.855032
0.767674
0.668772
0.557756
0.434755
0.300059
0.153789
-0.00440242
-0.175469
-0.360812
-0.561885
-0.779862
-1.01559
-1.26975
-1.5428
-1.83455
-2.14326
-2.46412
-2.78668
-3.09236
-3.35358
-3.53602
-3.60418
-3.53094
-3.31017
-2.96364
-2.53267
-2.06088
-1.58123
-1.11197
-0.658612
-0.21796
0.222858
0.651999
1.03515
1.35226
1.59569
1.76995
1.88706
1.96175
2.00871
2.03959
2.06068
2.07297
2.07426
2.06159
2.03232
1.98598
1.92552
1.85614
1.78365
1.71357
1.64976
1.59306
1.54147
1.49167
1.44044
1.38544
1.32604
1.2637
1.20036
1.13652
1.07056
0.999573
0.92038
0.830049
0.726639
0.609748
0.4799
0.337718
0.18357
0.0171785
-0.162633
-0.357696
-0.569911
-0.800752
-1.05129
-1.32259
-1.61587
-1.93202
-2.27073
-2.62876
-2.99641
-3.35349
-3.66754
-3.89599
-3.99247
-3.91881
-3.66444
-3.25893
-2.75921
-2.22268
-1.68949
-1.17909
-0.694671
-0.229272
0.25229
0.736126
1.16291
1.50851
1.76486
1.93993
2.05037
2.11495
2.15216
2.17643
2.19473
2.20674
2.20843
2.19525
2.16303
2.11038
2.04105
1.96176
1.87963
1.80171
1.73296
1.67418
1.62227
1.57251
1.52074
1.46384
1.40103
1.33486
1.26868
1.20348
1.13715
1.06587
0.985748
0.893077
0.785459
0.662815
0.526259
0.376823
0.215214
0.0412852
-0.146413
-0.350282
-0.57277
-0.815633
-1.08006
-1.36744
-1.67984
-2.0194
-2.38762
-2.78371
-3.19969
-3.61433
-3.98991
-4.27434
-4.40778
-4.33644
-4.04229
-3.56567
-2.98536
-2.37654
-1.78712
-1.23655
-0.724235
-0.238315
0.285341
0.830067
1.30428
1.67902
1.94585
2.11777
2.21739
2.26793
2.2924
2.30871
2.32439
2.33711
2.34024
2.32758
2.29286
2.23327
2.15389
2.06342
1.97042
1.88383
1.81016
1.75013
1.69902
1.65029
1.59875
1.54021
1.47354
1.40292
1.33377
1.26778
1.20199
1.13137
1.05122
0.95688
0.845258
0.716848
0.573634
0.417094
0.248387
0.0675932
-0.127079
-0.338788
-0.570686
-0.824765
-1.10214
-1.40441
-1.73458
-2.09618
-2.49281
-2.92719
-3.3944
-3.87299
-4.31973
-4.67186
-4.85334
-4.7885
-4.44677
-3.88351
-3.20836
-2.51909
-1.8713
-1.28245
-0.746265
-0.244767
0.322561
0.935147
1.46098
1.86542
2.13946
2.30346
2.38772
2.41985
2.42827
2.43533
2.44903
2.46385
2.4697
2.4589
2.42239
2.35508
2.26419
2.16119
2.05586
1.95956
1.88103
1.82084
1.7719
1.72527
1.67487
1.61501
1.54374
1.46769
1.39533
1.32922
1.26504
1.19606
1.1169
1.02163
0.906069
0.771719
0.621818
0.458234
0.282721
0.0957513
-0.104908
-0.323432
-0.563895
-0.82846
-1.11787
-1.43373
-1.78014
-2.16202
-2.58524
-3.05729
-3.57813
-4.12724
-4.6556
-5.08889
-5.33269
-5.28067
-4.88146
-4.21165
-3.42467
-2.64642
-1.93906
-1.31495
-0.759832
-0.24835
0.364587
1.05279
1.63483
2.06946
2.34635
2.49679
2.5609
2.56981
2.55846
2.55511
2.568
2.58682
2.5968
2.58955
2.55234
2.47622
2.37207
2.25515
2.13578
2.02847
1.94518
1.88623
1.84113
1.79772
1.74952
1.68879
1.61181
1.5289
1.45297
1.38759
1.32627
1.25992
1.18289
1.08755
0.967935
0.827262
0.670597
0.499933
0.317818
0.125384
-0.0801728
-0.304409
-0.552636
-0.827081
-1.12768
-1.45573
-1.81668
-2.21682
-2.66396
-3.17205
-3.74823
-4.37447
-4.99557
-5.52515
-5.84957
-5.81996
-5.35065
-4.54861
-3.62979
-2.75418
-1.98738
-1.3324
-0.764175
-0.248854
0.412185
1.18448
1.82774
2.29309
2.56707
2.69728
2.73649
2.71689
2.68152
2.66671
2.68069
2.70602
2.72145
2.71991
2.68366
2.59713
2.47754
2.34544
2.21002
2.09003
2.00211
1.94626
1.90703
1.86788
1.82318
1.76228
1.67797
1.58616
1.50618
1.44267
1.38574
1.32293
1.2493
1.15498
1.0309
0.883265
0.719772
0.541876
0.353244
0.156093
-0.0531422
-0.28188
-0.537128
-0.821032
-1.1321
-1.47081
-1.84454
-2.26071
-2.72822
-3.26949
-3.90185
-4.61181
-5.33721
-5.97944
-6.40786
-6.41519
-5.85949
-4.89194
-3.81812
-2.83754
-2.01337
-1.33339
-0.758762
-0.246152
0.466313
1.33175
2.04163
2.53858
2.8019
2.90405
2.91413
2.86014
2.79579
2.76867
2.78658
2.82164
2.84346
2.85032
2.81754
2.71823
2.58047
2.43233
2.27846
2.14359
2.05126
2.00092
1.97003
1.93588
1.89629
1.83644
1.74249
1.63897
1.55433
1.49425
1.44357
1.38496
1.31622
1.22438
1.095
0.939439
0.769177
0.583757
0.388528
0.187456
-0.0240688
-0.255953
-0.51756
-0.810755
-1.13175
-1.47944
-1.86417
-2.2942
-2.77748
-3.3476
-4.03591
-4.83622
-5.67768
-6.44921
-7.01136
-7.07748
-6.41417
-5.23784
-3.98281
-2.8914
-2.01439
-1.31692
-0.743332
-0.240211
0.528235
1.4961
2.27837
2.80866
3.05084
3.1157
3.09369
2.99869
2.89944
2.85936
2.88524
2.9342
2.9624
2.98101
2.95562
2.83985
2.68047
2.51629
2.34104
2.18838
2.0919
2.05024
2.03077
2.00174
1.96927
1.91251
1.80563
1.68662
1.59667
1.54215
1.50007
1.44581
1.3837
1.29641
1.16026
0.995376
0.81871
0.625288
0.42315
0.219026
0.00681162
-0.226666
-0.49407
-0.796723
-1.12738
-1.4821
-1.87609
-2.31817
-2.81145
-3.40442
-4.14718
-5.0446
-6.01382
-6.9301
-7.66347
-7.82111
-7.02217
-5.58051
-4.11555
-2.91048
-1.98821
-1.28243
-0.717921
-0.231097
0.599702
1.67892
2.53959
3.10677
3.31341
3.33011
3.27549
3.13176
2.99038
2.93696
2.97641
3.04471
3.07747
3.11208
3.10017
2.96218
2.77675
2.59811
2.39776
2.22344
2.12319
2.09434
2.09018
2.06519
2.04242
1.99218
1.86769
1.72817
1.63226
1.58623
1.55579
1.50508
1.4517
1.37205
1.22663
1.05049
0.868392
0.666206
0.45653
0.250333
0.0392814
-0.193967
-0.466733
-0.779432
-1.11988
-1.47921
-1.88083
-2.33401
-2.83015
-3.43804
-4.23219
-5.23393
-6.34259
-7.41525
-8.36667
-8.66448
-7.69244
-5.91142
-4.20654
-2.88963
-1.93324
-1.22992
-0.682881
-0.218977
0.683241
1.88138
2.8265
3.43743
3.58851
3.54416
3.4606
3.25872
3.06622
2.99943
3.05993
3.15489
3.18727
3.24329
3.25434
3.08516
2.86798
2.6791
2.44871
2.24761
2.14409
2.1334
2.14963
2.12558
2.11585
2.07775
1.92894
1.76239
1.65999
1.62642
1.61162
1.56209
1.52005
1.45269
1.29398
1.10395
0.918439
0.706279
0.488007
0.280881
0.0731377
-0.157703
-0.435541
-0.759386
-1.11031
-1.4711
-1.87885
-2.34373
-2.8339
-3.44664
-4.28724
-5.40147
-6.66153
-7.89452
-9.12176
-9.63153
-8.43569
-6.21823
-4.2445
-2.82411
-1.84868
-1.15995
-0.638862
-0.204106
0.78259
2.10425
3.13951
3.8068
3.87417
3.75339
3.6513
3.37905
3.12421
3.04445
3.13582
3.26749
3.28953
3.37397
3.42262
3.20831
2.95194
2.76135
2.49404
2.25943
2.15334
2.16763
2.21114
2.18168
2.18933
2.17238
1.98955
1.78771
1.67856
1.66267
1.66903
1.61574
1.58832
1.54036
1.36201
1.15455
0.969379
0.745306
0.516816
0.310162
0.108183
-0.117592
-0.400394
-0.737083
-1.10002
-1.45792
-1.87036
-2.3501
-2.82332
-3.42851
-4.30824
-5.54481
-6.96965
-8.35349
-9.92678
-10.7535
-9.26457
-6.48344
-4.21683
-2.71
-1.73467
-1.07366
-0.586786
-0.186818
0.903344
2.34764
3.47773
4.22345
4.16724
3.95149
3.85165
3.49227
3.16115
3.06941
3.20413
3.38675
3.38073
3.50271
3.61133
3.33052
3.02528
2.84812
2.53393
2.25715
2.14947
2.19728
2.27768
2.2314
2.2622
2.28041
2.04952
1.80213
1.68646
1.69499
1.73023
1.66431
1.65576
1.63797
1.43013
1.20059
1.02221
0.783095
0.542053
0.337662
0.14421
-0.0732069
-0.361087
-0.712977
-1.0907
-1.43954
-1.85512
-2.35688
-2.79925
-3.38215
-4.2906
-5.66199
-7.26863
-8.77236
-10.7755
-12.0712
-10.1938
-6.68265
-4.11003
-2.54469
-1.59241
-0.972723
-0.527799
-0.167501
1.05385
2.61078
3.83832
4.6994
4.46291
4.12972
4.06834
3.59781
3.17333
3.07139
3.26482
3.51904
3.45557
3.62712
3.82945
3.44975
3.08303
2.94433
2.56845
2.23863
2.13074
2.22249
2.35357
2.27151
2.33309
2.40777
2.10845
1.80319
1.68203
1.72332
1.79855
1.70521
1.72113
1.74968
1.49736
1.23966
1.0786
0.819423
0.56264
0.362894
0.180975
-0.0239546
-0.317311
-0.687423
-1.08458
-1.41552
-1.83221
-2.36912
-2.76265
-3.30634
-4.22896
-5.75129
-7.56449
-9.12462
-11.6556
-13.6381
-11.2404
-6.7824
-3.91052
-2.32733
-1.42422
-0.859307
-0.463211
-0.146585
1.24648
2.89152
4.21555
5.25159
4.75421
4.27612
4.31172
3.69466
3.15647
3.04716
3.31749
3.67363
3.50635
3.74336
4.08948
3.56261
3.1181
3.05731
2.59738
2.20129
2.09518
2.24313
2.44501
2.29716
2.3997
2.56261
2.1653
1.78792
1.66346
1.74743
1.8788
1.73467
1.78251
1.88131
1.56212
1.2685
1.14121
0.853962
0.577283
0.385436
0.218161
0.0309543
-0.268666
-0.660588
-1.08458
-1.38496
-1.79969
-2.39349
-2.71438
-3.20034
-4.11699
-5.81097
-7.86978
-9.37565
-12.5456
-15.5238
-12.4233
-6.73757
-3.60579
-2.05934
-1.23348
-0.735926
-0.394422
-0.124509
1.49923
3.18594
4.59955
5.9036
5.0312
4.37459
4.59722
3.78089
3.10566
2.9933
3.36091
3.86379
3.52223
3.84569
4.40872
3.66387
3.1206
3.19762
2.61988
2.14213
2.04066
2.25852
2.56075
2.30147
2.45848
2.75591
2.21801
1.75287
1.62888
1.76667
1.97784
1.74734
1.83706
2.04096
1.62197
1.28263
1.21404
0.886157
0.584431
0.404991
0.255322
0.0925376
-0.214694
-0.632326
-1.09456
-1.34648
-1.7541
-2.43888
-2.65488
-3.06416
-3.94707
-5.83854
-8.20642
-9.48115
-13.4122
-17.8184
-13.7636
-6.4882
-3.18622
-1.74482
-1.02454
-0.605324
-0.322854
-0.101709
1.83791
3.48767
4.97487
6.688
5.28013
4.40374
4.94705
3.85292
3.01547
2.90632
3.39244
4.10807
3.48825
3.92583
4.81068
3.74578
3.07712
3.38018
2.63397
2.05774
1.96493
2.26703
2.713
2.27484
2.50428
3.00245
2.26296
1.69412
1.5765
1.77969
2.10526
1.73581
1.88076
2.23965
1.67329
1.27614
1.30289
0.915043
0.582233
0.421473
0.291813
0.162087
-0.154932
-0.601992
-1.11963
-1.29816
-1.69003
-2.51695
-2.5837
-2.89892
-3.71002
-5.82968
-8.60915
-9.38565
-14.2058
-20.6382
-15.2833
-5.95597
-2.64744
-1.39075
-0.802482
-0.470324
-0.249883
-0.0785956
2.29876
3.78719
5.31848
7.64909
5.48224
4.33564
5.39228
3.90444
2.87997
2.78289
3.40708
4.43196
3.38427
3.97222
5.32687
3.7973
2.96983
3.62568
2.63594
1.94434
1.86584
2.26549
2.91843
2.20427
2.52985
3.32177
2.29429
1.6074
1.50479
1.78393
2.27417
1.69007
1.90807
2.49215
1.7109
1.2413
1.41593
0.938998
0.568518
0.435107
0.326689
0.241226
-0.0890121
-0.568201
-1.16651
-1.23751
-1.59935
-2.64301
-2.49885
-2.70739
-3.39485
-5.7766
-9.12969
-9.02094
-14.8557
-24.1316
-17.0051
-5.04011
-1.99351
-1.00696
-0.572819
-0.333677
-0.176779
-0.0555389
2.93166
4.07095
5.59765
8.84619
5.61242
4.1343
5.97534
3.92505
2.69307
2.62028
3.39631
4.86983
3.18373
3.96917
5.99876
3.80313
2.7755
3.96215
2.61934
1.79797
1.74157
2.24842
3.19949
2.07257
2.5254
3.73945
2.30303
1.48828
1.4127
1.77504
2.50223
1.59684
1.91152
2.81795
1.72756
1.16819
1.56437
0.955403
0.540779
0.446571
0.358586
0.331991
-0.0167981
-0.528509
-1.24391
-1.1615
-1.47049
-2.83702
-2.39594
-2.49463
-2.98872
-5.66577
-9.84147
-8.30473
-15.2644
-28.4862
-18.9508
-3.61293
-1.24083
-0.605811
-0.341144
-0.197921
-0.104666
-0.0328602
3.80394
4.32039
5.76726
10.3574
5.63765
3.75412
6.75288
3.89849
2.4488
2.4168
3.3466
5.46719
2.85224
3.8959
6.8801
3.74262
2.46443
4.42686
2.57393
1.61473
1.59094
2.20708
3.58587
1.85741
2.47801
4.28849
2.27599
1.3325
1.29998
1.74604
2.81278
1.43884
1.88136
3.24232
1.71342
1.04429
1.76324
0.960216
0.496189
0.457146
0.385569
0.436938
0.0614215
-0.479021
-1.36298
-1.06666
-1.28749
-3.12477
-2.26705
-2.26885
-2.47694
-5.47507
-10.8451
-7.13949
-15.3012
-33.9369
-21.1393
-1.51516
-0.422853
-0.201266
-0.112736
-0.0652788
-0.0344927
-0.0108263
)
;

boundaryField
{
    left
    {
        type            calculated;
        value           uniform 0;
    }
    right
    {
        type            calculated;
        value           uniform 0;
    }
    interface
    {
        type            calculated;
        value           nonuniform List<scalar> 
64
(
3.80394
4.32039
5.76726
10.3574
5.63765
3.75412
6.75288
3.89849
2.4488
2.4168
3.3466
5.46719
2.85224
3.8959
6.8801
3.74262
2.46443
4.42686
2.57393
1.61473
1.59094
2.20708
3.58587
1.85741
2.47801
4.28849
2.27599
1.3325
1.29998
1.74604
2.81278
1.43884
1.88136
3.24232
1.71342
1.04429
1.76324
0.960216
0.496189
0.457146
0.385569
0.436938
0.0614215
-0.479021
-1.36298
-1.06666
-1.28749
-3.12477
-2.26705
-2.26885
-2.47694
-5.47507
-10.8451
-7.13949
-15.3012
-33.9369
-21.1393
-1.51516
-0.422853
-0.201266
-0.112736
-0.0652788
-0.0344927
-0.0108263
)
;
    }
    bottom
    {
        type            calculated;
        value           nonuniform List<scalar> 
64
(
0.00630486
0.018734
0.0306381
0.0417193
0.0517487
0.060577
0.0681337
0.0744168
0.0794758
0.0833937
0.0862702
0.0882096
0.0893139
0.08968
0.0894003
0.0885639
0.0872577
0.0855651
0.0835641
0.081323
0.0788978
0.0763289
0.0736414
0.0708454
0.0679385
0.0649088
0.0617365
0.0583963
0.0548572
0.0510832
0.0470342
0.0426664
0.0379347
0.0327946
0.027204
0.0211255
0.0145267
0.00738162
-0.000329453
-0.00861814
-0.017486
-0.0269206
-0.0368908
-0.0473389
-0.0581736
-0.06926
-0.080411
-0.0913795
-0.101854
-0.111462
-0.119781
-0.126358
-0.130752
-0.132569
-0.131511
-0.127415
-0.120276
-0.110247
-0.0976148
-0.0827645
-0.0661292
-0.04815
-0.0292468
-0.00980735
)
;
    }
    defaultFaces
    {
        type            empty;
    }
}


// ************************************************************************* //
