/*--------------------------------*- C++ -*----------------------------------*\
| =========                 |                                                 |
| \\      /  F ield         | OpenFOAM: The Open Source CFD Toolbox           |
|  \\    /   O peration     | Version:  5.x                                   |
|   \\  /    A nd           | Web:      www.OpenFOAM.org                      |
|    \\/     M anipulation  |                                                 |
\*---------------------------------------------------------------------------*/
FoamFile
{
    version     2.0;
    format      ascii;
    class       volScalarField;
    location    "12.5";
    object      T;
}
// * * * * * * * * * * * * * * * * * * * * * * * * * * * * * * * * * * * * * //

dimensions      [0 0 0 1 0 0 0];

internalField   nonuniform List<scalar> 
2048
(
9.81021
9.8104
9.81079
9.81136
9.8121
9.81298
9.81399
9.81511
9.81631
9.81759
9.81892
9.82029
9.82168
9.82308
9.82448
9.82587
9.82725
9.8286
9.82992
9.83121
9.83246
9.83368
9.83485
9.83598
9.83706
9.8381
9.83909
9.84003
9.84091
9.84174
9.84251
9.84321
9.84384
9.8444
9.84487
9.84525
9.84553
9.8457
9.84576
9.84569
9.84549
9.84515
9.84465
9.84399
9.84317
9.84218
9.84101
9.83966
9.83815
9.83648
9.83467
9.83274
9.83072
9.82865
9.82658
9.82454
9.82259
9.82078
9.81915
9.81773
9.81656
9.81567
9.81506
9.81475
9.43876
9.43934
9.4405
9.4422
9.44438
9.44701
9.45001
9.45334
9.45692
9.46071
9.46465
9.4687
9.47282
9.47697
9.48112
9.48524
9.48932
9.49332
9.49723
9.50104
9.50475
9.50833
9.5118
9.51514
9.51835
9.52142
9.52435
9.52713
9.52975
9.5322
9.53448
9.53656
9.53843
9.54007
9.54147
9.5426
9.54343
9.54395
9.54413
9.54394
9.54335
9.54234
9.54088
9.53894
9.53651
9.53357
9.53012
9.52614
9.52166
9.51671
9.51133
9.5056
9.4996
9.49345
9.48728
9.48122
9.47543
9.47004
9.46518
9.46096
9.45748
9.45482
9.45301
9.4521
9.08311
9.08408
9.086
9.0888
9.09242
9.09676
9.10171
9.10719
9.11309
9.11931
9.12579
9.13244
9.1392
9.146
9.1528
9.15955
9.16622
9.17276
9.17916
9.1854
9.19145
9.19731
9.20298
9.20844
9.21368
9.2187
9.22349
9.22803
9.23232
9.23633
9.24006
9.24347
9.24654
9.24924
9.25154
9.2534
9.25479
9.25566
9.25597
9.25568
9.25474
9.25311
9.25074
9.2476
9.24365
9.23886
9.23321
9.22671
9.21937
9.21124
9.2024
9.19296
9.18308
9.17293
9.16273
9.15272
9.14314
9.13423
9.1262
9.11924
9.1135
9.1091
9.10612
9.10462
8.74234
8.7437
8.74639
8.75031
8.75535
8.76139
8.76829
8.77589
8.78406
8.79268
8.80163
8.81081
8.82013
8.82951
8.83888
8.84817
8.85733
8.86633
8.87512
8.88368
8.89199
8.90003
8.90781
8.91529
8.92249
8.92938
8.93595
8.94219
8.94809
8.95361
8.95873
8.96343
8.96767
8.9714
8.97459
8.97718
8.97912
8.98036
8.98083
8.98047
8.97923
8.97704
8.97384
8.96957
8.96418
8.95763
8.94989
8.94095
8.93085
8.91963
8.9074
8.89431
8.88058
8.86646
8.85225
8.83829
8.82493
8.8125
8.8013
8.79161
8.78363
8.77752
8.77339
8.7713
8.41562
8.41738
8.42084
8.4259
8.4324
8.44016
8.44899
8.45871
8.46914
8.48012
8.4915
8.50316
8.51498
8.52687
8.53872
8.55048
8.56206
8.57343
8.58452
8.59532
8.60579
8.61593
8.62572
8.63515
8.64422
8.65291
8.6612
8.66908
8.67652
8.6835
8.68998
8.69594
8.70131
8.70607
8.71013
8.71346
8.71596
8.71758
8.71824
8.71787
8.71637
8.71368
8.70972
8.7044
8.69766
8.68944
8.67971
8.66843
8.65564
8.6414
8.62584
8.60913
8.59156
8.57344
8.55519
8.53723
8.52004
8.50405
8.48967
8.47723
8.467
8.45918
8.4539
8.45125
8.10216
8.10434
8.10862
8.11485
8.12284
8.13235
8.14315
8.155
8.16768
8.181
8.19478
8.20887
8.22314
8.23747
8.25176
8.26591
8.27984
8.29349
8.3068
8.31975
8.3323
8.34445
8.35618
8.36748
8.37835
8.38876
8.3987
8.40816
8.41709
8.42548
8.43329
8.44047
8.44697
8.45273
8.45767
8.46173
8.46482
8.46686
8.46774
8.46739
8.4657
8.46258
8.45793
8.45165
8.44366
8.43387
8.42223
8.40871
8.39332
8.37612
8.35725
8.33693
8.31549
8.29332
8.27094
8.2489
8.22779
8.20817
8.19054
8.17532
8.16283
8.1533
8.14688
8.14365
7.80126
7.80388
7.80901
7.81647
7.82601
7.83733
7.85013
7.86413
7.87907
7.89471
7.91087
7.92736
7.94403
7.96076
7.97742
7.9939
8.01011
8.02597
8.04143
8.05644
8.07099
8.08507
8.09865
8.11175
8.12434
8.13641
8.14794
8.15892
8.1693
8.17906
8.18816
8.19654
8.20414
8.2109
8.21672
8.22153
8.22522
8.2277
8.22885
8.22857
8.22675
8.22327
8.21801
8.21086
8.20171
8.19045
8.17701
8.16133
8.14342
8.12332
8.10117
8.07723
8.05187
8.02557
7.99895
7.97269
7.94754
7.92417
7.90321
7.88517
7.8704
7.85915
7.85159
7.84779
7.51225
7.51534
7.52138
7.53014
7.54129
7.55448
7.56935
7.58553
7.60274
7.6207
7.63921
7.65806
7.67711
7.69618
7.71516
7.73391
7.75234
7.77034
7.78787
7.80488
7.82134
7.83726
7.85263
7.86744
7.88169
7.89536
7.90843
7.92087
7.93265
7.94374
7.95409
7.96365
7.97234
7.98009
7.98681
7.99237
7.99669
7.99964
8.0011
8.00095
7.99906
7.99529
7.98951
7.98158
7.97136
7.95874
7.9436
7.92586
7.9055
7.88256
7.85716
7.82958
7.80023
7.76968
7.73867
7.70804
7.67867
7.65143
7.62705
7.60612
7.58905
7.57609
7.5674
7.56304
7.23452
7.23811
7.24513
7.25527
7.26813
7.28328
7.30025
7.31866
7.33816
7.35844
7.37928
7.40047
7.42184
7.44322
7.46447
7.48545
7.50603
7.52611
7.54563
7.56455
7.58285
7.60053
7.61761
7.63406
7.64991
7.66511
7.67966
7.69352
7.70666
7.71904
7.73062
7.74133
7.7511
7.75984
7.76745
7.77379
7.77876
7.78222
7.78402
7.78405
7.78215
7.77816
7.77194
7.76333
7.75215
7.73827
7.72154
7.70185
7.67914
7.65341
7.62479
7.59355
7.56013
7.52519
7.48961
7.45439
7.42062
7.38934
7.36144
7.33757
7.31818
7.30352
7.29372
7.28881
6.96749
6.97163
6.9797
6.99132
7.006
7.02318
7.04235
7.06303
7.08482
7.10742
7.13057
7.15406
7.17772
7.20138
7.22486
7.24801
7.27069
7.29279
7.31423
7.33498
7.35504
7.37441
7.39311
7.41115
7.42852
7.4452
7.46118
7.4764
7.49085
7.50449
7.51726
7.52911
7.53995
7.54968
7.55819
7.56533
7.57097
7.57496
7.57716
7.57742
7.57556
7.57144
7.56486
7.55566
7.54363
7.5286
7.51039
7.48885
7.46389
7.43546
7.40365
7.36871
7.33114
7.29166
7.25129
7.21125
7.17285
7.13736
7.10581
7.07895
7.05725
7.04091
7.03003
7.02459
6.7106
6.71534
6.72456
6.73778
6.7544
6.77373
6.79517
6.81816
6.84228
6.86717
6.89261
6.91837
6.94429
6.97017
6.99585
7.02113
7.04586
7.06991
7.09321
7.11572
7.13745
7.15842
7.17868
7.19823
7.21706
7.23518
7.25252
7.26907
7.28479
7.29964
7.31358
7.32654
7.33845
7.34917
7.35859
7.36654
7.37288
7.37744
7.38007
7.3806
7.37885
7.37466
7.36781
7.35811
7.34533
7.32927
7.3097
7.28644
7.25933
7.22828
7.19333
7.15469
7.11286
7.06867
7.02327
6.97814
6.93485
6.89494
6.85962
6.82974
6.80574
6.78777
6.77585
6.76992
6.46334
6.46875
6.47923
6.49419
6.51288
6.53448
6.55827
6.58363
6.61007
6.63725
6.66494
6.69294
6.72107
6.74915
6.77698
6.80436
6.83108
6.85703
6.88211
6.9063
6.92962
6.95213
6.97386
6.99486
7.01511
7.03459
7.05327
7.07109
7.08803
7.10406
7.11913
7.1332
7.14615
7.15787
7.16821
7.17699
7.18405
7.18921
7.1923
7.19315
7.19158
7.18738
7.18035
7.17024
7.15682
7.13984
7.11905
7.09419
7.06506
7.03149
6.99345
6.9511
6.90494
6.85584
6.80514
6.75459
6.70611
6.66156
6.62237
6.58944
6.56318
6.54366
6.53077
6.52437
6.22523
6.23137
6.24324
6.2601
6.28102
6.30502
6.33126
6.35901
6.38779
6.41723
6.44714
6.47732
6.50764
6.53788
6.56783
6.59726
6.62595
6.65373
6.68053
6.70632
6.73114
6.75509
6.77823
6.80061
6.82222
6.84303
6.86299
6.88204
6.90016
6.91733
6.93351
6.94865
6.96265
6.97537
6.98664
6.99627
7.00407
7.00985
7.01344
7.01466
7.01331
7.00917
7.00203
6.99162
6.97766
6.95988
6.93798
6.91167
6.88065
6.84469
6.80365
6.75761
6.70701
6.65281
6.59651
6.54018
6.48617
6.43673
6.39355
6.35759
6.32915
6.30817
6.2944
6.28759
5.99579
6.00275
6.01616
6.0351
6.05842
6.08497
6.11373
6.14394
6.17504
6.20671
6.23877
6.27111
6.30355
6.33593
6.36798
6.39944
6.43004
6.45961
6.48804
6.51535
6.54159
6.5669
6.59138
6.61507
6.63799
6.66009
6.68129
6.70153
6.72078
6.73904
6.75629
6.77249
6.78753
6.80125
6.81347
6.82396
6.83252
6.83896
6.84308
6.8447
6.84361
6.83961
6.83244
6.8218
6.80741
6.78895
6.76608
6.73845
6.70571
6.66749
6.62356
6.57386
6.51876
6.45925
6.39701
6.33448
6.27455
6.21997
6.17271
6.13374
6.10325
6.08095
6.0664
6.05924
5.77458
5.78247
5.79759
5.81881
5.84473
5.87396
5.90535
5.93803
5.97144
6.00529
6.03946
6.07387
6.10842
6.14289
6.17702
6.21048
6.24297
6.27427
6.30427
6.333
6.36058
6.38716
6.41289
6.43785
6.46204
6.48538
6.50778
6.52916
6.54949
6.56881
6.5871
6.60434
6.62041
6.63515
6.64832
6.65969
6.66903
6.67614
6.68081
6.68286
6.6821
6.67829
6.67115
6.66039
6.64566
6.62664
6.60293
6.57414
6.53983
6.49953
6.45284
6.39954
6.33989
6.27485
6.20631
6.13711
6.0708
6.01079
5.95937
5.9175
5.88511
5.86165
5.84646
5.83902
5.56119
5.5701
5.58713
5.61086
5.6396
5.67167
5.70578
5.74096
5.77665
5.8126
5.8488
5.88524
5.92183
5.95837
5.99457
6.03002
6.06436
6.09733
6.12884
6.15891
6.18771
6.21548
6.2424
6.26857
6.29397
6.31853
6.3421
6.36458
6.38595
6.40626
6.42556
6.44382
6.46092
6.47667
6.49082
6.50309
6.51322
6.52101
6.52626
6.52877
6.52837
6.5248
6.51778
6.50697
6.49201
6.47253
6.44812
6.41832
6.38262
6.34042
6.29114
6.23435
6.17011
6.09936
6.02411
5.94769
5.87447
5.80873
5.75311
5.70847
5.67439
5.64999
5.63432
5.62667
5.3552
5.36528
5.38442
5.41093
5.44271
5.47779
5.5147
5.55241
5.59032
5.62829
5.66642
5.70482
5.74342
5.782
5.82026
5.8577
5.89385
5.92846
5.96139
5.9927
6.02263
6.05148
6.07953
6.10686
6.13344
6.15919
6.18391
6.20744
6.22978
6.25104
6.27132
6.29057
6.30869
6.32548
6.34062
6.35379
6.36473
6.37322
6.37905
6.38206
6.38205
6.37878
6.37194
6.36116
6.34605
6.32622
6.30125
6.27059
6.23368
6.18981
6.13814
6.07799
6.00917
5.9325
5.85014
5.76586
5.68512
5.61331
5.5535
5.50629
5.4708
5.44569
5.42971
5.42195
5.15622
5.16761
5.18912
5.2187
5.25379
5.29203
5.33182
5.37205
5.41212
5.45201
5.49197
5.53226
5.57281
5.61341
5.65373
5.69317
5.73111
5.76729
5.80159
5.83404
5.86498
5.89482
5.92392
5.95236
5.9801
6.00703
6.03287
6.0574
6.08065
6.10281
6.12401
6.14425
6.16339
6.18122
6.19737
6.21147
6.22323
6.23242
6.23885
6.24235
6.24277
6.23985
6.23325
6.22258
6.20741
6.18734
6.16192
6.13057
6.09264
6.04732
5.99351
5.93019
5.85681
5.77407
5.68415
5.59128
5.50228
5.42407
5.36013
5.31064
5.27406
5.24853
5.23243
5.22465
4.96389
4.97677
5.0009
5.03388
5.07256
5.11411
5.15685
5.19962
5.24175
5.28342
5.32509
5.36719
5.40965
5.45224
5.49465
5.5361
5.57581
5.61352
5.6491
5.68259
5.71442
5.74515
5.77524
5.80475
5.83361
5.86172
5.88868
5.91416
5.93825
5.96123
5.98333
6.00453
6.02467
6.04357
6.06077
6.07579
6.08837
6.09828
6.1053
6.10932
6.11018
6.10766
6.10137
6.09087
6.07571
6.05549
6.02975
5.99785
5.9591
5.91259
5.85693
5.79066
5.71281
5.62387
5.52596
5.42363
5.32548
5.24052
5.17261
5.1212
5.08393
5.05829
5.04227
5.03457
4.77783
4.79241
4.81945
4.85621
4.89878
4.94377
4.98953
5.03483
5.07891
5.1222
5.16543
5.20928
5.25361
5.29814
5.34268
5.38619
5.42763
5.46683
5.50364
5.53803
5.57063
5.60213
5.63315
5.6637
5.69365
5.72296
5.75104
5.77741
5.80226
5.82598
5.84895
5.87109
5.89223
5.91222
5.93049
5.94644
5.95985
5.97048
5.97809
5.98262
5.98395
5.98187
5.97595
5.9657
5.95062
5.93033
5.90438
5.87207
5.83269
5.78528
5.72808
5.65915
5.57695
5.48173
5.37541
5.26262
5.15424
5.06218
4.99055
4.93772
4.9002
4.87477
4.85904
4.85154
4.59772
4.61422
4.64447
4.68542
4.73224
4.78076
4.82961
4.87744
4.92331
4.96805
5.01267
5.05821
5.10436
5.15079
5.19752
5.24315
5.28627
5.32691
5.3649
5.40007
5.43329
5.46544
5.49736
5.5289
5.55991
5.59044
5.61968
5.64687
5.67238
5.69677
5.72058
5.74364
5.76576
5.78688
5.80627
5.82314
5.83738
5.84873
5.85692
5.86195
5.86376
5.86216
5.85668
5.84672
5.83178
5.81149
5.78546
5.75287
5.71302
5.66501
5.60663
5.53541
5.44899
5.34748
5.23242
5.10799
4.98801
4.88855
4.81362
4.75994
4.72267
4.69781
4.68259
4.67537
4.42319
4.44193
4.47566
4.5213
4.57275
4.62484
4.67681
4.7272
4.77468
4.82065
4.86646
4.91366
4.96161
5.00983
5.05886
5.10671
5.15143
5.19349
5.23262
5.26842
5.3021
5.33477
5.36755
5.40008
5.43209
5.46391
5.49434
5.52227
5.54835
5.57328
5.59792
5.6219
5.64495
5.66727
5.68783
5.7056
5.72065
5.73274
5.74147
5.747
5.7493
5.74823
5.74323
5.73364
5.71888
5.69865
5.67265
5.63987
5.59971
5.55143
5.49228
5.41917
5.32872
5.22097
5.09699
4.95951
4.82622
4.71912
4.64149
4.58767
4.55119
4.52725
4.51276
4.50591
4.25393
4.27528
4.31272
4.36361
4.42014
4.47575
4.5309
4.5839
4.63273
4.67972
4.72647
4.77534
4.82506
4.87494
4.92641
4.97664
5.02282
5.06626
5.10654
5.14278
5.17678
5.20979
5.24345
5.27696
5.30987
5.34308
5.3748
5.40336
5.42988
5.45524
5.4807
5.5056
5.52952
5.5531
5.57492
5.59354
5.60941
5.62224
5.63149
5.63749
5.64026
5.63978
5.63534
5.62617
5.6116
5.59147
5.56563
5.53275
5.49239
5.44419
5.38468
5.31022
5.21589
5.10205
4.96918
4.81699
4.6682
4.55338
4.47388
4.42073
4.38563
4.36296
4.34938
4.343
4.0896
4.11406
4.15536
4.21217
4.27432
4.33324
4.39162
4.44734
4.49721
4.54497
4.59235
4.64297
4.69446
4.74577
4.7999
4.85272
4.90016
4.94497
4.98645
5.02291
5.05706
5.0902
5.1248
5.1593
5.19297
5.22772
5.26086
5.28989
5.31673
5.34234
5.36868
5.3945
5.41918
5.44414
5.46731
5.4867
5.50339
5.51699
5.52668
5.53314
5.53638
5.53652
5.5327
5.52401
5.50967
5.48964
5.46411
5.43119
5.39067
5.34296
5.28353
5.20832
5.11025
4.99052
4.8492
4.68031
4.51316
4.39079
4.31055
4.25902
4.22586
4.20481
4.19231
4.18647
3.92988
3.95811
4.00324
4.06679
4.13523
4.19701
4.25871
4.31738
4.36784
4.41616
4.46376
4.51629
4.5696
4.62194
4.67906
4.73479
4.78314
4.82933
4.87214
4.90852
4.94268
4.97569
5.01134
5.04687
5.08107
5.11756
5.15233
5.18161
5.20865
5.23431
5.26162
5.28838
5.31363
5.34012
5.36482
5.38482
5.40233
5.41676
5.42681
5.4337
5.43736
5.4382
5.43507
5.42692
5.41279
5.39284
5.3678
5.33486
5.29415
5.24739
5.18846
5.11331
5.01152
4.88616
4.73739
4.54943
4.36016
4.23087
4.15133
4.10243
4.07181
4.05267
4.04141
4.03617
3.77441
3.80734
3.856
3.92729
4.00285
4.06676
4.13191
4.19389
4.24434
4.29306
4.34032
4.39508
4.45029
4.50307
4.56364
4.62274
4.67144
4.71908
4.76345
4.79935
4.83341
4.86593
4.90286
4.93948
4.97384
5.01239
5.04909
5.07828
5.10544
5.13084
5.15929
5.18705
5.21258
5.24083
5.26726
5.28763
5.306
5.32133
5.3316
5.33892
5.34294
5.34457
5.34219
5.33466
5.32071
5.30076
5.27648
5.24351
5.20244
5.15717
5.09912
5.02502
4.91939
4.78863
4.63425
4.42439
4.20806
4.07313
3.99611
3.95093
3.92338
3.90642
3.89652
3.89194
3.62283
3.66178
3.71319
3.79351
3.8773
3.94208
4.01093
4.07682
4.12639
4.17546
4.22161
4.27914
4.33641
4.38871
4.45339
4.51651
4.56472
4.61395
4.66026
4.69511
4.72905
4.76059
4.79915
4.837
4.87094
4.91199
4.95102
4.97965
5.00689
5.03163
5.0615
5.09035
5.11571
5.14605
5.1745
5.19487
5.21414
5.23053
5.24082
5.24857
5.25287
5.25539
5.25384
5.24699
5.23319
5.2131
5.18991
5.15686
5.11512
5.07203
5.01511
4.94338
4.83351
4.69745
4.54052
4.3054
4.05541
3.91717
3.84486
3.80449
3.7805
3.76594
3.75751
3.75361
3.47472
3.52158
3.57428
3.66531
3.75877
3.82254
3.89548
3.9662
4.01363
4.06325
4.10717
4.16828
4.22791
4.27835
4.34809
4.41612
4.46259
4.51364
4.56251
4.59551
4.62946
4.65928
4.70003
4.73931
4.77196
4.81613
4.85808
4.88545
4.91286
4.93635
4.96806
4.99816
5.02267
5.05556
5.08645
5.10625
5.12653
5.14419
5.15422
5.16245
5.16688
5.17043
5.16977
5.16372
5.15001
5.12952
5.10793
5.0747
5.03172
4.99174
4.93596
4.86839
4.75351
4.61194
4.45722
4.19281
3.9004
3.7627
3.69764
3.66313
3.64312
3.63111
3.6242
3.62102
3.32964
3.38707
3.43862
3.54253
3.64762
3.70754
3.78524
3.86213
3.90565
3.95637
3.99647
4.06238
4.12485
4.17139
4.24753
4.32172
4.36458
4.41788
4.47021
4.50019
4.53452
4.5616
4.60536
4.64638
4.67645
4.72464
4.77028
4.79536
4.82322
4.84462
4.87883
4.91041
4.93308
4.96918
5.00307
5.02147
5.04295
5.06219
5.07154
5.08038
5.08471
5.0895
5.08978
5.08466
5.07097
5.04967
5.0304
4.99686
4.95174
4.91612
4.86115
4.80018
4.67898
4.53115
4.38567
4.08721
3.74073
3.60961
3.55461
3.52688
3.51115
3.5018
3.49645
3.49399
3.18701
3.25884
3.30536
3.42505
3.54439
3.59637
3.67988
3.76488
3.80189
3.85488
3.88886
3.96135
4.02736
4.0671
4.15149
4.23357
4.27016
4.32638
4.38346
4.40875
4.44422
4.46706
4.51502
4.55826
4.5839
4.63732
4.68771
4.70901
4.73794
4.75604
4.79368
4.82711
4.8465
4.88673
4.92438
4.9402
4.96317
4.98445
4.99251
5.00221
5.00611
5.01242
5.01365
5.00964
4.99589
4.97319
4.95722
4.92321
4.87463
4.84512
4.79002
4.73903
4.6095
4.45372
4.3276
3.98948
3.57349
3.45807
3.41598
3.39578
3.38451
3.37788
3.37409
3.37235
3.04618
3.13779
3.1734
3.31272
3.44984
3.48811
3.57904
3.67484
3.70169
3.759
3.78358
3.86513
3.93576
3.96462
4.0598
4.15208
4.17864
4.23882
4.30246
4.32067
4.35865
4.3751
4.42891
4.47508
4.49368
4.554
4.61054
4.62597
4.65705
4.67011
4.71252
4.74831
4.76242
4.80804
4.85048
4.86203
4.88698
4.91092
4.91684
4.92782
4.9308
4.93902
4.94117
4.9385
4.92465
4.89963
4.88836
4.85367
4.7997
4.7788
4.72174
4.6854
4.54469
4.37786
4.28516
3.90084
3.39497
3.30863
3.28207
3.26986
3.26314
3.25919
3.25695
3.25592
2.90633
3.0252
3.04134
3.20543
3.36501
3.3816
3.48232
3.59263
3.60415
3.66916
3.67968
3.77374
3.85053
3.86287
3.97227
4.07787
4.08923
4.15489
4.22757
4.23532
4.27803
4.28504
4.347
4.3971
4.40505
4.47454
4.53906
4.54566
4.5807
4.58628
4.63527
4.67418
4.68023
4.73298
4.78155
4.78652
4.81419
4.84162
4.84419
4.85713
4.85848
4.86918
4.87213
4.8711
4.85716
4.8285
4.82383
4.78827
4.72618
4.71742
4.65528
4.64002
4.48418
4.30111
4.26107
3.82295
3.20055
3.16234
3.1532
3.14913
3.14691
3.14561
3.14487
3.14453
)
;

boundaryField
{
    left
    {
        type            zeroGradient;
    }
    right
    {
        type            zeroGradient;
    }
    interface
    {
        type            fixedValue;
        value           nonuniform List<scalar> 
64
(
2.83482
2.97288
2.97288
3.1531
3.32732
3.32732
3.4348
3.55507
3.55507
3.62669
3.62669
3.72952
3.81057
3.81057
3.9296
4.0441
4.0441
4.11369
4.19271
4.19271
4.23959
4.23959
4.30728
4.36008
4.36008
4.43584
4.50571
4.50571
4.5442
4.5442
4.59778
4.63882
4.63882
4.69641
4.74903
4.74903
4.77862
4.8084
4.8084
4.82288
4.82288
4.83525
4.8385
4.8385
4.82456
4.7931
4.7931
4.757
4.68884
4.68884
4.62156
4.62156
4.45533
4.25982
4.25982
3.78975
3.09007
3.09007
3.09007
3.09007
3.09007
3.09007
3.09007
3.09007
)
;
    }
    bottom
    {
        type            fixedValue;
        value           uniform 10;
    }
    defaultFaces
    {
        type            empty;
    }
}


// ************************************************************************* //
