/*--------------------------------*- C++ -*----------------------------------*\
| =========                 |                                                 |
| \\      /  F ield         | OpenFOAM: The Open Source CFD Toolbox           |
|  \\    /   O peration     | Version:  5.x                                   |
|   \\  /    A nd           | Web:      www.OpenFOAM.org                      |
|    \\/     M anipulation  |                                                 |
\*---------------------------------------------------------------------------*/
FoamFile
{
    version     2.0;
    format      ascii;
    class       volScalarField;
    location    "9";
    object      gradTy;
}
// * * * * * * * * * * * * * * * * * * * * * * * * * * * * * * * * * * * * * //

dimensions      [0 -1 0 1 0 0 0];

internalField   nonuniform List<scalar> 
6300
(
32284.1
32252.2
32220.3
32188.1
32155.7
32123
32090
32056.5
32022.5
31988
31952.9
31917.3
31881
31844.2
31806.7
0.05348
0.15994
0.264865
0.367121
0.465413
0.558247
0.643906
0.720472
0.785892
0.838099
0.8752
0.895731
0.898937
0.885055
0.855501
0.0896874
0.268267
0.444403
0.616266
0.781748
0.938373
1.08326
1.21315
1.32447
1.41357
1.47703
1.51207
1.51715
1.49243
1.44028
0.12669
0.37904
0.628214
0.871795
1.10694
1.33024
1.53763
1.7244
1.88527
2.0147
2.10726
2.15838
2.16514
2.12725
2.04787
0.164721
0.49299
0.817616
1.13576
1.44397
1.738
2.01261
2.26153
2.47753
2.65268
2.77894
2.84905
2.85779
2.80355
2.6899
0.203924
0.61058
1.0135
1.40965
1.79519
2.16518
2.51327
2.83158
3.11062
3.33954
3.50676
3.60107
3.61341
3.53925
3.38147
0.244318
0.731907
1.21615
1.69415
2.16197
2.61424
3.04371
3.44089
3.79381
4.0881
4.30748
4.43506
4.45551
4.35858
4.14378
0.285761
0.856576
1.42504
1.98881
2.54429
3.0861
3.60644
4.09445
4.53563
4.91155
5.2
5.37616
5.41499
5.29575
5.00905
0.327907
0.983593
1.63864
2.29176
2.94027
3.57943
4.2015
4.79483
5.34271
5.82244
6.20481
6.45455
6.53252
6.40035
6.02916
0.370183
1.11125
1.85416
2.5993
3.34561
4.08983
4.82531
5.54065
6.21793
6.83069
7.34222
7.70469
7.86014
7.74388
7.29078
0.411759
1.23705
2.06746
2.90565
3.75305
4.60895
5.46923
6.32454
7.15765
7.94015
8.62865
9.16175
9.4593
9.42394
8.93812
0.451562
1.35774
2.27296
3.2028
4.15199
5.12368
6.11813
7.13061
8.14798
9.14358
10.0704
10.8542
11.3908
11.5534
11.1905
0.48831
1.46938
2.46384
3.48059
4.52844
5.61565
6.74898
7.93177
9.16007
10.4157
11.655
12.7932
13.695
14.2046
14.2644
0.520604
1.56765
2.63241
3.72728
4.86552
6.06148
7.33038
8.68743
10.1448
11.7042
13.3405
14.9676
16.3881
17.296
17.7821
0.547056
1.64821
2.77087
3.93058
5.1449
6.43436
7.82364
9.34276
11.0274
12.9159
15.0349
17.3472
19.5878
20.7864
18.2012
31771.9
31739.8
31707.4
31674.6
31641.5
31608.2
31574.6
31540.7
31506.6
31472.3
31437.8
31403.1
31368.4
31333.5
31298.5
31263.4
31228.4
31193.3
31158.2
31123.1
31088
31053
31018.1
30983.1
30948.2
30913.4
30878.6
30843.9
30809.2
30774.6
30740
30705.6
30671.2
30637
30602.8
30568.8
30534.8
30501
30467.2
30433.6
30400
30366.5
30333.1
30299.9
30266.6
30233.5
30200.5
30167.7
30134.9
30102.2
30069.7
30037.3
30004.9
29972.7
29940.6
29908.6
29876.6
29844.8
29813
29781.3
29749.7
29718.2
29686.8
29655.6
29624.4
29593.3
29562.3
29531.4
29500.6
29469.9
29439.3
29408.7
29378.2
29347.7
29317.3
29287
29256.7
29226.5
29196.4
29166.3
29136.2
29106.2
29076.2
29046.1
29016.1
28986
28955.8
28925.5
28895.2
28864.7
0.81644
0.774126
0.727291
0.678151
0.628561
0.579762
0.532255
0.485815
0.439673
0.392802
0.344266
0.293542
0.24076
0.186799
0.133223
0.0820641
0.0354866
-0.00459156
-0.0368459
-0.0607937
-0.0768964
-0.0865018
-0.0916399
-0.0947084
-0.0980991
-0.103827
-0.113222
-0.126726
-0.143847
-0.163266
-0.183088
-0.201199
-0.215655
-0.225037
-0.228703
-0.226896
-0.220704
-0.211861
-0.202465
-0.194616
-0.190071
-0.189951
-0.194551
-0.203296
-0.214838
-0.227301
-0.238613
-0.246874
-0.250692
-0.249421
-0.24326
-0.23321
-0.220894
-0.208276
-0.197327
-0.189694
-0.186419
-0.187764
-0.193161
-0.201316
-0.210427
-0.218509
-0.223738
-0.224773
-0.220974
-0.212503
-0.200274
-0.185781
-0.170827
-0.1572
-0.14635
-0.139118
-0.135554
-0.134871
-0.135535
-0.135478
-0.132418
-0.124214
-0.109208
-0.0865017
-0.0561249
-0.0190938
0.0226502
0.0664026
0.108944
0.146855
0.176873
0.196262
0.203146
0.19676
1.37157
1.29741
1.21583
1.13098
1.04635
0.964219
0.885384
0.809196
0.73391
0.65727
0.577197
0.492444
0.403071
0.310647
0.218128
0.129427
0.0487535
-0.0201449
-0.0746673
-0.113846
-0.138542
-0.151325
-0.15608
-0.157393
-0.159842
-0.167278
-0.182229
-0.205516
-0.236146
-0.271517
-0.307909
-0.341178
-0.367524
-0.38418
-0.3899
-0.385167
-0.372086
-0.354022
-0.335023
-0.319149
-0.309795
-0.309123
-0.317705
-0.334416
-0.356632
-0.380692
-0.402558
-0.418535
-0.425926
-0.42349
-0.411631
-0.392304
-0.368657
-0.344495
-0.323632
-0.309254
-0.30338
-0.306519
-0.317573
-0.33402
-0.352358
-0.36872
-0.379567
-0.382306
-0.37572
-0.36015
-0.337395
-0.310378
-0.282616
-0.257603
-0.23819
-0.226056
-0.221367
-0.222671
-0.22706
-0.230591
-0.228893
-0.217851
-0.194268
-0.15637
-0.104121
-0.0393074
0.0345748
0.112623
0.188971
0.25735
0.311734
0.347031
0.359723
0.348359
1.94352
1.83141
1.70906
1.58349
1.46054
1.34393
1.2347
1.13128
1.0301
0.926683
0.816869
0.698003
0.569781
0.434637
0.297539
0.165237
0.045069
-0.0563939
-0.134578
-0.187749
-0.217335
-0.227704
-0.225468
-0.218436
-0.214398
-0.2199
-0.239227
-0.273726
-0.321609
-0.378289
-0.437219
-0.491121
-0.533339
-0.559061
-0.566145
-0.555451
-0.530639
-0.497521
-0.463075
-0.434288
-0.417008
-0.414965
-0.429147
-0.457602
-0.495762
-0.537238
-0.574979
-0.602555
-0.615305
-0.611122
-0.590753
-0.557612
-0.517159
-0.47596
-0.440596
-0.416563
-0.407359
-0.413873
-0.434213
-0.464
-0.49713
-0.526868
-0.54707
-0.553264
-0.543402
-0.518139
-0.480653
-0.436045
-0.390443
-0.349941
-0.319545
-0.302272
-0.298551
-0.306026
-0.319819
-0.333235
-0.33882
-0.329548
-0.29994
-0.246904
-0.170207
-0.0725799
0.0405004
0.161293
0.280476
0.387996
0.47408
0.530351
0.550939
0.533381
2.54032
2.38013
2.20694
2.03222
1.8656
1.71301
1.57566
1.45013
1.32951
1.2053
1.06957
0.917028
0.746456
0.561435
0.370043
0.18357
0.0144465
-0.126167
-0.230508
-0.295614
-0.323802
-0.322238
-0.301762
-0.275171
-0.255215
-0.252615
-0.274377
-0.322662
-0.394407
-0.48182
-0.573772
-0.657887
-0.722911
-0.760781
-0.767993
-0.746065
-0.701153
-0.642932
-0.582976
-0.532861
-0.502278
-0.497445
-0.520035
-0.566815
-0.630117
-0.699163
-0.762036
-0.807923
-0.829069
-0.82206
-0.788265
-0.733451
-0.666732
-0.599022
-0.54124
-0.502519
-0.488701
-0.501318
-0.537248
-0.589164
-0.646785
-0.698749
-0.73474
-0.747341
-0.733257
-0.693728
-0.634165
-0.563143
-0.490924
-0.427725
-0.382001
-0.35897
-0.35961
-0.380283
-0.413117
-0.447156
-0.470138
-0.470526
-0.439349
-0.37151
-0.26643
-0.128104
0.0353208
0.212283
0.388774
0.549511
0.679359
0.765056
0.797086
0.771331
3.17196
2.94755
2.707
2.46927
2.25044
2.06013
1.89959
1.76191
1.63409
1.50048
1.34649
1.16201
0.943932
0.697403
0.435456
0.176918
-0.0572341
-0.248177
-0.382939
-0.456646
-0.473114
-0.444006
-0.386864
-0.322351
-0.271043
-0.250252
-0.271334
-0.337817
-0.444645
-0.578819
-0.721609
-0.852146
-0.951585
-1.00665
-1.0118
-0.969779
-0.890832
-0.790843
-0.68871
-0.603307
-0.550469
-0.540437
-0.576091
-0.652235
-0.756204
-0.869975
-0.973553
-1.04892
-1.08337
-1.07157
-1.01604
-0.926432
-0.817731
-0.707789
-0.614434
-0.552614
-0.531977
-0.555189
-0.61726
-0.706113
-0.804582
-0.89363
-0.95609
-0.979844
-0.959753
-0.898162
-0.804174
-0.691965
-0.578413
-0.480344
-0.411776
-0.381581
-0.39182
-0.437028
-0.504677
-0.576998
-0.633991
-0.656956
-0.631551
-0.549739
-0.410527
-0.21977
0.0106486
0.263953
0.519761
0.755506
0.948217
1.07704
1.12644
1.08935
3.85249
3.5382
3.203
2.8791
2.59419
2.36437
2.1906
2.05945
1.94701
1.82502
1.6673
1.45535
1.18237
0.855565
0.495958
0.135143
-0.191139
-0.451092
-0.623291
-0.700104
-0.688057
-0.606144
-0.482583
-0.350518
-0.242928
-0.187593
-0.202917
-0.294875
-0.455508
-0.66341
-0.887095
-1.09119
-1.24416
-1.32441
-1.32354
-1.24666
-1.11081
-0.941843
-0.770353
-0.626863
-0.537019
-0.517644
-0.573843
-0.697586
-0.868178
-1.05547
-1.2257
-1.34882
-1.40429
-1.38405
-1.2929
-1.1469
-0.970515
-0.792668
-0.642217
-0.543404
-0.512108
-0.553103
-0.658704
-0.809212
-0.975945
-1.1268
-1.23317
-1.27548
-1.24601
-1.14925
-1.00042
-0.822716
-0.643606
-0.490477
-0.386292
-0.345965
-0.373673
-0.461456
-0.589505
-0.728912
-0.846841
-0.913038
-0.904978
-0.810621
-0.628847
-0.368548
-0.0469766
0.312017
0.679639
1.02347
1.30907
1.5034
1.58036
1.52714
4.60428
4.15896
3.68271
3.23276
2.85861
2.58787
2.42025
2.33004
2.27369
2.20098
2.06622
1.83655
1.49833
1.06095
0.558194
0.0436352
-0.420565
-0.780375
-1.001
-1.07152
-1.00361
-0.828258
-0.590552
-0.343441
-0.139569
-0.0231873
-0.0241478
-0.153043
-0.398308
-0.725275
-1.08079
-1.40386
-1.64144
-1.75898
-1.74473
-1.60848
-1.37849
-1.09647
-0.811681
-0.57317
-0.422096
-0.386026
-0.474334
-0.675474
-0.956112
-1.26552
-1.54566
-1.74617
-1.83422
-1.79865
-1.64872
-1.41114
-1.1254
-0.838095
-0.595639
-0.436967
-0.38814
-0.457982
-0.635478
-0.888944
-1.17018
-1.424
-1.60252
-1.67447
-1.62916
-1.4753
-1.23824
-0.955489
-0.671384
-0.43013
-0.268847
-0.212375
-0.269016
-0.427899
-0.657976
-0.911752
-1.13418
-1.27605
-1.30267
-1.19738
-0.960244
-0.605557
-0.158488
0.347661
0.873775
1.37529
1.80137
2.09876
2.22173
2.14535
5.46746
4.82427
4.12453
3.47725
2.97409
2.66288
2.53841
2.55187
2.6239
2.66627
2.6018
2.37406
1.95709
1.36045
0.637426
-0.120395
-0.800314
-1.31008
-1.59488
-1.64229
-1.47389
-1.14016
-0.712066
-0.274104
0.0897743
0.310188
0.338845
0.156358
-0.223457
-0.746028
-1.32123
-1.83961
-2.21158
-2.38335
-2.34158
-2.10529
-1.72109
-1.25509
-0.786369
-0.39357
-0.141571
-0.075305
-0.212347
-0.538887
-1.00261
-1.51773
-1.98031
-2.30544
-2.44217
-2.37792
-2.13074
-1.74475
-1.28253
-0.818939
-0.428412
-0.172352
-0.0932877
-0.207834
-0.502856
-0.928691
-1.40387
-1.82965
-2.12531
-2.24233
-2.1686
-1.92116
-1.54187
-1.0902
-0.637453
-0.254622
-0.000472224
0.0841005
-0.0171258
-0.291819
-0.692316
-1.13973
-1.53754
-1.805
-1.89032
-1.77399
-1.46091
-0.975595
-0.355074
0.354555
1.10334
1.83573
2.47899
2.94528
3.15016
3.04114
6.52146
5.57112
4.49094
3.5142
2.81306
2.46891
2.45797
2.68937
3.01681
3.2854
3.37247
3.18405
2.67458
1.84193
0.76676
-0.39661
-1.42508
-2.16376
-2.53059
-2.52382
-2.18222
-1.58797
-0.847788
-0.0980879
0.525703
0.919692
1.00588
0.74991
0.156958
-0.690991
-1.6435
-2.48621
-3.07001
-3.31523
-3.21852
-2.81511
-2.1815
-1.41762
-0.651734
-0.0112213
0.406407
0.528177
0.322513
-0.204753
-0.975116
-1.84557
-2.61291
-3.13598
-3.33954
-3.22061
-2.81264
-2.18812
-1.44163
-0.694573
-0.0675477
0.347137
0.480366
0.302202
-0.181858
-0.897389
-1.70866
-2.4227
-2.90532
-3.08485
-2.95819
-2.55689
-1.94969
-1.22648
-0.502832
0.106192
0.512097
0.64813
0.48456
0.0254207
-0.659095
-1.43912
-2.12859
-2.59623
-2.76837
-2.63389
-2.20961
-1.54032
-0.679971
0.305069
1.3565
2.42454
3.41143
4.16821
4.53063
4.37921
7.93639
6.50505
4.709
3.15471
2.13778
1.79494
2.02851
2.68854
3.49447
4.16594
4.53983
4.45637
3.85741
2.67264
1.0231
-0.867082
-2.46716
-3.55292
-4.00429
-3.88753
-3.25437
-2.24593
-0.997215
0.259234
1.29254
1.97243
2.16562
1.82871
0.904567
-0.48539
-2.12389
-3.50564
-4.41598
-4.73949
-4.53714
-3.8564
-2.82948
-1.58306
-0.336559
0.692077
1.38042
1.60316
1.32047
0.479441
-0.803487
-2.32191
-3.59726
-4.42661
-4.70131
-4.47952
-3.80639
-2.80712
-1.60154
-0.39736
0.599088
1.27193
1.50243
1.25273
0.472461
-0.728213
-2.15348
-3.34898
-4.12179
-4.36829
-4.14325
-3.48912
-2.52457
-1.36339
-0.203146
0.759504
1.41329
1.64359
1.41187
0.667206
-0.488335
-1.86891
-3.03909
-3.81299
-4.08794
-3.91109
-3.31111
-2.38019
-1.18441
0.15998
1.58574
3.13022
4.67523
5.95903
6.65104
6.46114
10.0981
7.9626
4.58016
2.02418
0.492277
0.29061
0.984724
2.47754
4.16573
5.47495
6.36578
6.47099
5.88382
4.17261
1.62595
-1.75531
-4.24984
-5.85559
-6.29611
-5.99483
-4.86694
-3.24989
-1.15778
0.937874
2.56832
3.72599
4.08872
3.75313
2.32294
0.0781131
-2.974
-5.20392
-6.607
-6.92098
-6.54465
-5.39618
-3.79357
-1.74863
0.292339
1.8854
3.02488
3.40597
3.12245
1.79996
-0.292748
-3.14828
-5.22384
-6.51592
-6.77803
-6.38836
-5.26977
-3.72319
-1.75943
0.198985
1.73172
2.83368
3.21598
2.96729
1.73216
-0.235616
-2.92917
-4.88391
-6.09614
-6.33073
-5.94621
-4.86833
-3.3826
-1.49895
0.381086
1.85759
2.92428
3.30439
3.07781
1.90066
0.00647379
-2.60166
-4.52022
-5.74822
-6.05809
-5.7976
-4.88918
-3.60144
-1.90286
-0.102282
1.64405
3.83512
6.31518
8.60204
10.0414
9.90269
13.8898
11.1992
3.25487
-0.572753
-3.06417
-2.50243
-1.20894
1.98521
5.38272
7.38642
9.32301
9.48263
9.52883
6.87562
3.43063
-3.92044
-7.31238
-9.83619
-9.65612
-9.29245
-7.18391
-4.93792
-1.32346
2.28642
4.52488
6.62426
7.01739
7.25375
4.91441
1.8041
-5.00808
-8.09284
-10.3663
-10.0965
-9.66405
-7.58992
-5.39462
-1.90846
1.56622
3.73187
5.76142
6.16582
6.42053
4.2296
1.31646
-5.09782
-7.97863
-10.0884
-9.79329
-9.34686
-7.34944
-5.24
-1.90964
1.40831
3.48469
5.43174
5.83816
6.10233
4.04689
1.3021
-4.76874
-7.48806
-9.4783
-9.18466
-8.74762
-6.83483
-4.81362
-1.62931
1.54641
3.54582
5.42397
5.83881
6.11258
4.16666
1.52936
-4.32737
-6.99577
-9.00557
-8.84957
-8.61713
-7.01344
-5.41431
-2.76819
-0.28642
1.06192
4.1239
8.23333
12.4654
15.7042
16.1736
21.0051
21.9007
-4.08954
-5.10919
-11.0161
-6.34852
-6.13936
1.20014
8.6068
9.39453
14.8391
12.6576
17.061
10.7188
10.8601
-11.7867
-11.625
-17.7104
-13.2805
-15.1027
-9.69883
-8.59656
-1.48254
5.60981
6.68171
11.9795
10.1718
14.4634
8.61606
8.86078
-12.4096
-12.15
-17.788
-13.5063
-15.1474
-9.95813
-8.85451
-2.05178
4.7251
5.7743
10.8382
9.1412
13.2403
7.69922
7.96728
-12.1355
-11.8437
-17.1239
-13.0265
-14.5388
-9.5904
-8.51494
-2.04198
4.40551
5.42388
10.2483
8.66519
12.5776
7.35427
7.62934
-11.4345
-11.1421
-16.1492
-12.2451
-13.6741
-8.95744
-7.91948
-1.7473
4.40564
5.40865
10.0308
8.57637
12.3437
7.42827
7.68823
-10.6443
-10.4197
-15.3817
-11.7511
-13.4112
-9.13114
-8.73486
-3.39684
1.16158
-1.98785
2.90434
9.97483
17.7592
25.355
29.6044
30.9171
71.3058
-47.4024
-2.61832
-34.1989
-3.77542
-21.3376
0.318389
21.3622
4.6969
31.3366
6.35034
40.067
5.22571
51.1044
-52.4972
-6.94193
-40.7264
-7.90208
-31.3182
-6.01944
-20.9121
-1.61037
17.6027
2.75325
27.5668
4.54334
36.273
3.54525
46.8993
-50.8144
-7.7145
-39.494
-8.38726
-30.4666
-6.44292
-20.5211
-2.15784
16.1319
2.03565
25.6507
3.77024
33.9421
2.80368
43.9522
-48.5415
-7.68517
-37.6629
-8.18176
-29.034
-6.25437
-19.5622
-2.13761
15.2207
1.88235
24.2918
3.57866
32.2083
2.74397
41.8046
-45.9731
-7.16484
-35.6523
-7.62588
-27.4502
-5.78275
-18.4186
-1.83758
14.6808
2.05985
23.3881
3.79454
31.078
3.23731
40.6203
-43.6834
-6.37491
-34.131
-7.03405
-26.7593
-5.65612
-19.1715
-2.90285
13.7089
-16.6175
-1.45196
10.6884
23.3243
39.8248
66.3738
28831.1
28794.3
28757.5
28720.6
28683.6
28646.7
28609.8
28573
28536.3
28499.7
28463.2
28426.8
28390.5
28354.3
28318.1
0.175637
0.136694
0.086558
0.0309836
-0.0241753
-0.0737612
-0.113825
-0.141832
-0.156627
-0.158238
-0.147614
-0.126367
-0.0965467
-0.0604644
-0.0205795
0.310328
0.240223
0.150302
0.0512018
-0.0464419
-0.133465
-0.203053
-0.251023
-0.275661
-0.277298
-0.257809
-0.220129
-0.167862
-0.104996
-0.0357142
0.473636
0.363568
0.223227
0.0699634
-0.0793291
-0.210604
-0.313899
-0.383547
-0.417694
-0.417484
-0.386194
-0.328477
-0.249777
-0.155944
-0.0529952
0.681838
0.517186
0.309073
0.084755
-0.130233
-0.315722
-0.458391
-0.551572
-0.594083
-0.588749
-0.541008
-0.457806
-0.346825
-0.216006
-0.0733181
0.957061
0.714268
0.411125
0.0902177
-0.210637
-0.463658
-0.652372
-0.770267
-0.818317
-0.802419
-0.731281
-0.614916
-0.463711
-0.287938
-0.0975889
1.33076
0.971701
0.530941
0.0756293
-0.338874
-0.6759
-0.91717
-1.05881
-1.1065
-1.07133
-0.966779
-0.806865
-0.605165
-0.374447
-0.126688
1.84931
1.31083
0.66531
0.0202339
-0.544588
-0.983898
-1.2816
-1.44129
-1.47754
-1.40962
-1.25764
-1.0406
-0.775636
-0.477997
-0.161402
2.58337
1.75701
0.799237
-0.115416
-0.87581
-1.4335
-1.78404
-1.94721
-1.95276
-1.83197
-1.61356
-1.32226
-0.978783
-0.600503
-0.202324
3.64441
2.33459
0.890047
-0.405321
-1.40973
-2.09027
-2.47384
-2.61074
-2.55432
-2.35194
-2.04237
-1.65608
-1.21674
-0.742908
-0.249716
5.21366
3.04691
0.831681
-0.986182
-2.26752
-3.04401
-3.4103
-3.46759
-3.30183
-2.97911
-2.5479
-2.04296
-1.48917
-0.904679
-0.303347
7.58876
3.80773
0.375948
-2.10356
-3.63017
-4.40794
-4.65576
-4.5475
-4.20628
-3.71477
-3.12717
-2.47869
-1.7923
-1.08329
-0.36234
11.2206
4.21929
-1.03205
-4.17385
-5.74164
-6.30182
-6.2573
-5.86037
-5.26102
-4.54653
-3.76731
-2.95231
-2.11804
-1.27385
-0.425059
16.4505
2.88088
-4.5496
-7.81812
-8.86074
-8.80039
-8.21125
-7.37567
-6.43087
-5.44302
-4.44324
-3.44521
-2.45371
-1.46901
-0.489104
20.9004
-4.59669
-12.2291
-13.6883
-13.0828
-11.8277
-10.4117
-9.00019
-7.64379
-6.35142
-5.11743
-3.93157
-2.78257
-1.65939
-0.55145
0.565424
1.70412
2.86687
4.07144
5.33847
6.69325
8.16827
9.807
11.6695
13.8403
16.4362
19.5959
23.3546
26.8685
24.0393
0.576143
1.73664
2.92232
4.15197
5.44772
6.83728
8.35742
10.0597
12.021
14.3631
17.2958
21.2216
27.0425
37.2283
60.2019
0.581162
1.75166
2.94723
4.18659
5.49181
6.89062
8.42005
10.1327
12.1081
14.476
17.4665
21.5348
27.7073
38.6861
62.7758
0.580506
1.74926
2.94174
4.17549
5.47092
6.85326
8.35546
10.0231
11.9225
14.1563
16.8892
20.3902
25.0553
31.1135
36.0236
0.574471
1.73039
2.9076
4.12154
5.38966
6.73265
8.17603
9.75244
11.5048
13.4897
15.7778
18.4363
21.4444
24.4143
26.1008
0.56359
1.69673
2.84795
4.02996
5.25642
6.54234
7.9042
9.35964
10.9256
12.6127
14.4086
16.2369
17.8537
18.6171
16.9748
0.548569
1.65052
2.76693
3.9075
5.08189
6.29929
7.56738
8.89007
10.2624
11.66
13.0172
14.184
14.8522
14.4892
12.6827
0.530208
1.59426
2.66912
3.76157
4.8775
6.02102
7.19265
8.38602
9.58164
10.7355
11.7582
12.4774
12.566
11.3635
7.14972
0.50932
1.5305
2.5591
3.59932
4.65396
5.72324
6.80283
7.8804
8.92987
9.90203
10.71
11.2089
11.1761
10.329
8.62064
0.486668
1.46159
2.44102
3.42706
4.42024
5.4183
6.41442
7.39429
8.33178
9.1826
9.87633
10.3097
10.3517
9.89261
9.00254
0.462914
1.38955
2.31834
3.24985
4.18312
5.11471
6.03728
6.93762
7.79388
8.57225
9.22351
9.68229
9.87538
9.75545
9.39411
0.438602
1.316
2.19378
3.07142
3.94718
4.81738
5.67559
6.51154
7.31009
8.05015
8.70435
9.23937
9.61641
9.78593
9.65792
0.414151
1.2422
2.06931
2.8943
3.7151
4.52839
5.32934
6.11145
6.8669
7.5877
8.26793
8.90616
9.50153
10.023
10.3224
0.389876
1.16904
1.94632
2.7201
3.48822
4.24797
4.99618
5.72988
6.44778
7.1534
7.86069
8.60271
9.43795
10.4144
11.2499
0.366011
1.09719
1.82577
2.54981
3.26716
3.97555
4.67309
5.35927
6.03719
6.71793
7.42933
8.23451
9.27631
10.9036
14.1008
0.342732
1.02714
1.70837
2.38418
3.05231
3.71068
4.35789
4.9944
5.62463
6.26117
6.93283
7.70199
8.70809
10.3025
13.5677
0.320183
0.959313
1.59472
2.22387
2.84425
3.45355
4.05013
4.63387
5.20769
5.78002
6.36863
7.00493
7.73127
8.54128
8.9575
0.298491
0.89407
1.48542
2.06965
2.64387
3.20525
3.75128
4.28024
4.79177
5.28756
5.7713
6.24533
6.69633
7.05349
7.13515
0.277774
0.831765
1.38105
1.92239
2.45241
2.9676
3.4643
3.93871
4.38677
4.80346
5.1807
5.50171
5.72656
5.75699
5.33728
0.258138
0.772726
1.2822
1.78299
2.27126
2.74279
3.19277
3.61548
4.00357
4.34674
4.62915
4.82486
4.89179
4.77307
4.46114
0.239674
0.717238
1.18938
1.65228
2.10173
2.53294
2.9402
3.31629
3.65155
3.93222
4.13781
4.23742
4.18593
3.92331
3.3647
0.222449
0.665511
1.10299
1.53091
1.94486
2.33972
2.70926
3.04545
3.33744
3.56982
3.72007
3.75492
3.62669
3.27909
2.73222
0.206499
0.617659
1.02323
1.41924
1.80124
2.16408
2.50147
2.80531
3.06471
3.26445
3.38246
3.38564
3.21979
2.77325
1.69341
0.191824
0.573686
0.950126
1.31729
1.67092
2.00612
2.31698
2.59602
2.83342
3.01582
3.1246
3.13375
3.00782
2.7072
2.25668
0.178388
0.533479
0.883459
1.22473
1.5534
1.86507
2.15457
2.41564
2.64033
2.8183
2.93593
2.97565
2.91714
2.74525
2.47152
0.166123
0.49682
0.822836
1.14093
1.44769
1.73939
2.01191
2.26052
2.47968
2.66269
2.80136
2.88577
2.90518
2.85403
2.75911
0.154933
0.46341
0.76771
1.06501
1.35243
1.62704
1.88585
2.12586
2.34412
2.53786
2.70447
2.84103
2.94222
2.9932
2.94697
0.144707
0.432901
0.717445
0.995941
1.26607
1.52566
1.77285
2.00629
2.2256
2.43188
2.62843
2.82086
3.01412
3.19986
3.32986
0.135328
0.404927
0.671379
0.932684
1.18702
1.4329
1.66938
1.89655
2.11612
2.33264
2.55526
2.8001
3.09123
3.44523
3.74891
0.126684
0.379137
0.628886
0.874264
1.11385
1.34665
1.57239
1.79207
2.00875
2.22918
2.46664
2.74719
3.12469
3.72554
4.90674
0.118674
0.355225
0.589428
0.819867
1.04539
1.26529
1.47962
1.68966
1.89878
2.11387
2.34812
2.62695
3.00305
3.60282
4.80189
0.111217
0.332943
0.552583
0.768885
0.980832
1.1878
1.38982
1.5879
1.78467
1.98526
2.19862
2.43916
2.72609
3.06393
3.30111
0.104252
0.312108
0.518056
0.720926
0.91973
1.11376
1.30274
1.48704
1.66792
1.84778
2.03025
2.21914
2.41378
2.59494
2.70612
0.0977355
0.2926
0.485665
0.675791
0.861942
1.04322
1.21892
1.38857
1.55186
1.70848
1.85743
1.99515
2.11081
2.17453
2.10303
0.0916403
0.274342
0.455314
0.633418
0.807536
0.976553
1.13931
1.29451
1.44043
1.57451
1.6924
1.78646
1.84393
1.84804
1.80203
0.085947
0.257286
0.426954
0.593813
0.756673
0.914231
1.06496
1.20688
1.33723
1.45179
1.54392
1.60319
1.6141
1.55635
1.40273
0.0806391
0.24139
0.400545
0.556985
0.709492
0.856654
0.996711
1.12729
1.24499
1.34464
1.41827
1.45351
1.43195
1.33123
1.16125
0.0756976
0.226603
0.37602
0.522889
0.666024
0.804011
0.935046
1.05666
1.16528
1.25557
1.31928
1.34327
1.30476
1.15423
0.730816
0.0710962
0.212849
0.353266
0.491387
0.626131
0.756199
0.879925
0.995042
1.09831
1.18496
1.24788
1.27644
1.25537
1.16674
1.02137
0.0667999
0.200024
0.332107
0.462232
0.589487
0.712791
0.830784
0.941655
1.04288
1.13084
1.20034
1.24408
1.25289
1.21864
1.14177
0.0627646
0.187992
0.312307
0.43507
0.555587
0.673073
0.786592
0.894968
0.996658
1.08955
1.17068
1.23598
1.28033
1.30014
1.30678
0.0589386
0.176595
0.293586
0.409468
0.523794
0.636112
0.745972
0.852928
0.956551
1.05642
1.15203
1.24242
1.32483
1.39078
1.41367
0.0552666
0.165659
0.275636
0.384949
0.493396
0.60086
0.70737
0.813206
0.919056
1.02625
1.13701
1.25441
1.38075
1.51134
1.62218
0.0516924
0.155012
0.258149
0.361033
0.463682
0.566271
0.66924
0.773478
0.880629
0.993604
1.1174
1.26019
1.43374
1.64563
1.83848
0.0481639
0.144492
0.240838
0.337281
0.434012
0.531421
0.630232
0.731731
0.838162
0.953451
1.08459
1.24462
1.4601
1.79314
2.41995
0.0446354
0.133959
0.223462
0.313331
0.403874
0.4956
0.58936
0.68656
0.78955
0.902296
1.03172
1.19056
1.40482
1.73665
2.37108
0.0410703
0.123304
0.205832
0.288915
0.372915
0.45837
0.546101
0.637374
0.734165
0.839567
0.958416
1.09803
1.2679
1.47005
1.62931
0.037441
0.112443
0.187819
0.263863
0.340947
0.419562
0.500385
0.58436
0.672804
0.767506
0.870699
0.984501
1.10857
1.23323
1.33101
0.0337284
0.101324
0.169343
0.238092
0.307918
0.379223
0.452483
0.528246
0.607103
0.689554
0.775621
0.863849
0.948828
1.01508
1.01916
0.0299199
0.0899115
0.15036
0.211574
0.273864
0.337531
0.402846
0.469987
0.53891
0.609095
0.679049
0.74546
0.802101
0.840117
0.860184
0.0260061
0.0781825
0.130848
0.184312
0.238855
0.294697
0.351945
0.410493
0.469846
0.528802
0.584942
0.633863
0.668313
0.677624
0.644371
0.0219785
0.0661149
0.110781
0.156302
0.202946
0.250889
0.300144
0.350446
0.401061
0.45047
0.495854
0.53232
0.55199
0.544697
0.514376
0.0178265
0.0536799
0.0901238
0.127513
0.166137
0.206174
0.24762
0.290185
0.333119
0.374938
0.412964
0.442447
0.454395
0.427767
0.291687
0.0135356
0.0408358
0.0688108
0.0978692
0.12835
0.160482
0.194322
0.229672
0.265955
0.302044
0.336011
0.364758
0.383596
0.386852
0.379623
0.00908603
0.0275238
0.0467468
0.067239
0.0894196
0.113608
0.13998
0.168514
0.198929
0.230631
0.262689
0.293956
0.323622
0.353222
0.392594
0.00445227
0.0136672
0.023803
0.0354383
0.0490969
0.0652205
0.0841406
0.106054
0.131016
0.158975
0.189923
0.22427
0.263701
0.312811
0.380981
-0.000396741
-0.000827945
-0.000180909
0.00223471
0.00706517
0.014894
0.0262259
0.0414823
0.0610254
0.0852488
0.114801
0.151062
0.197065
0.259171
0.350569
-0.00549701
-0.016071
-0.0253915
-0.0326438
-0.0370461
-0.037862
-0.0344102
-0.0260621
-0.01221
0.00782802
0.0350265
0.0710944
0.119255
0.185197
0.275251
-0.0108886
-0.0321838
-0.0520368
-0.0694995
-0.0836453
-0.0935783
-0.0984426
-0.0974242
-0.0897359
-0.0745593
-0.0509003
-0.0172633
0.0291052
0.094488
0.199162
-0.0166147
-0.0492972
-0.0803404
-0.108657
-0.133167
-0.152811
-0.166556
-0.173414
-0.172457
-0.162831
-0.143749
-0.114454
-0.0742401
-0.0234961
0.0267784
-0.0227202
-0.067548
-0.110536
-0.150454
-0.186066
-0.216137
-0.239448
-0.254825
-0.261192
-0.257663
-0.243684
-0.219219
-0.184888
-0.141143
-0.0794565
-0.0292509
-0.0870754
-0.142863
-0.19524
-0.24281
-0.284154
-0.317847
-0.342488
-0.356793
-0.359746
-0.350893
-0.330827
-0.302063
-0.271235
-0.259167
-0.0362514
-0.108016
-0.177557
-0.243362
-0.303874
-0.357482
-0.402526
-0.437325
-0.460271
-0.470021
-0.465882
-0.448465
-0.420663
-0.388286
-0.355001
-0.0437643
-0.1305
-0.214845
-0.295157
-0.369729
-0.436754
-0.494316
-0.540389
-0.572907
-0.589936
-0.590084
-0.573309
-0.54243
-0.505958
-0.485327
-0.0518272
-0.154644
-0.25493
-0.350937
-0.440821
-0.522595
-0.59408
-0.652863
-0.696293
-0.721568
-0.726032
-0.707938
-0.668072
-0.612621
-0.554437
-0.0604716
-0.180545
-0.297986
-0.410968
-0.517544
-0.615578
-0.702659
-0.775993
-0.832283
-0.867645
-0.87764
-0.85768
-0.804529
-0.721173
-0.632242
-0.06972
-0.208272
-0.344136
-0.475445
-0.600195
-0.716164
-0.820783
-0.910954
-0.982801
-1.03133
-1.05004
-1.03046
-0.961956
-0.83359
-0.653359
-0.0795851
-0.237864
-0.393449
-0.544474
-0.688941
-0.824628
-0.948935
-1.05864
-1.1495
-1.21573
-1.24903
-1.23722
-1.16095
-0.982016
-0.583719
-0.0900687
-0.269326
-0.445929
-0.618055
-0.783781
-0.940993
-1.08723
-1.21939
-1.33332
-1.42297
-1.47934
-1.48873
-1.43122
-1.28277
-1.0482
-0.101163
-0.302631
-0.501515
-0.696078
-0.884531
-1.06498
-1.23528
-1.39282
-1.53397
-1.65334
-1.74226
-1.7867
-1.76464
-1.64334
-1.36689
-0.112854
-0.337728
-0.560103
-0.778341
-0.990837
-1.196
-1.39221
-1.5776
-1.74976
-1.90484
-2.03606
-2.13085
-2.16697
-2.11163
-1.95333
-0.125126
-0.374559
-0.621561
-0.864591
-1.10223
-1.33325
-1.55663
-1.77158
-1.9774
-2.17292
-2.35514
-2.51573
-2.63281
-2.65143
-2.42916
-0.137964
-0.413077
-0.685776
-0.954581
-1.21823
-1.47579
-1.7269
-1.97191
-2.21219
-2.45023
-2.68924
-2.93083
-3.16702
-3.35849
-3.41084
-0.15137
-0.45327
-0.752695
-1.04815
-1.33844
-1.62282
-1.9014
-2.17551
-2.44852
-2.72686
-3.02153
-3.34968
-3.73227
-4.16216
-4.38411
-0.165358
-0.495181
-0.822366
-1.14532
-1.46274
-1.77389
-2.07898
-2.37987
-2.68116
-2.99214
-3.33056
-3.73072
-4.26466
-5.11021
-6.81851
-0.179967
-0.538923
-0.894977
-1.24632
-1.5914
-1.92916
-2.25949
-2.58396
-2.90705
-3.23836
-3.59672
-4.01885
-4.58064
-5.45912
-7.14316
-0.195255
-0.58468
-0.970858
-1.35167
-1.72513
-2.08958
-2.44407
-2.789
-3.12723
-3.46579
-3.81859
-4.20999
-4.67669
-5.24862
-5.79208
-0.211296
-0.632691
-1.05046
-1.46213
-1.86512
-2.25692
-2.63528
-2.99869
-3.34717
-3.68333
-4.01364
-4.34882
-4.69964
-5.05787
-5.34834
-0.228169
-0.683216
-1.13432
-1.5786
-2.01287
-2.43358
-2.83686
-3.21876
-3.57566
-3.90491
-4.20531
-4.47679
-4.71745
-4.91418
-5.01997
-0.245938
-0.736481
-1.2229
-1.70202
-2.17005
-2.62235
-3.05329
-3.45617
-3.82336
-4.14654
-4.41705
-4.62617
-4.76575
-4.83363
-4.86253
-0.264632
-0.79261
-1.31655
-1.83315
-2.33815
-2.82595
-3.28919
-3.71837
-4.10162
-4.42473
-4.67141
-4.82383
-4.86383
-4.78015
-4.60397
-0.284218
-0.851542
-1.4153
-1.97232
-2.51819
-3.04661
-3.54875
-4.01246
-4.42164
-4.756
-4.99123
-5.09956
-5.0478
-4.79091
-4.33325
-0.304575
-0.91295
-1.51873
-2.11924
-2.71034
-3.28553
-3.835
-4.3444
-4.79363
-5.15609
-5.39916
-5.48647
-5.37421
-4.94107
-3.4789
-0.325472
-0.976162
-1.6258
-2.2727
-2.91353
-3.5423
-4.14906
-4.71812
-5.22589
-5.63909
-5.91525
-6.01197
-5.92346
-5.80584
-6.44096
-0.346546
-1.0401
-1.73478
-2.43038
-3.12509
-3.81435
-4.48932
-5.13439
-5.72381
-6.21725
-6.55596
-6.6661
-6.49291
-6.14787
-6.47144
-0.367297
-1.10326
-1.84312
-2.58869
-3.34042
-4.09634
-4.85033
-5.58931
-6.28839
-6.90285
-7.35538
-7.51699
-7.18172
-6.02557
-3.3963
-0.387097
-1.16372
-1.94749
-2.74272
-3.55285
-4.37965
-5.22177
-6.07195
-6.91171
-7.70091
-8.35684
-8.71292
-8.44057
-6.92627
-3.21236
-0.405213
-1.2192
-2.04389
-2.8864
-3.7537
-4.65233
-5.5876
-6.5618
-7.57016
-8.59152
-9.56653
-10.3453
-10.5619
-9.35446
-4.91094
-0.420854
-1.26726
-2.12793
-3.01285
-3.93278
-4.89957
-5.92641
-7.02795
-8.21956
-9.51431
-10.9125
-12.3679
-13.6721
-14.0299
-10.3445
-0.433228
-1.30542
-2.19513
-3.11499
-4.07933
-5.10509
-6.21333
-7.43153
-8.79735
-10.3652
-12.2188
-14.4956
-17.4396
-21.5132
-27.5861
-11.3206
-25.8193
-24.3997
-20.8386
-17.5315
-14.7591
-12.4374
-10.4506
-8.70649
-7.138
-5.69689
-4.34763
-3.06307
-1.82149
-0.604496
-111.211
-57.9922
-37.4308
-27.2747
-21.2198
-17.103
-14.0347
-11.59
-9.54191
-7.75787
-6.15482
-4.67727
-3.28576
-1.95036
-0.646694
-123.644
-67.4864
-43.236
-30.8626
-23.5622
-18.7189
-15.1988
-12.454
-10.194
-8.25206
-6.52561
-4.94716
-3.46948
-2.05719
-0.681756
-67.9288
-54.8225
-40.7934
-30.9276
-24.1981
-19.416
-15.8246
-12.9812
-10.6251
-8.59663
-6.79361
-5.14707
-3.60779
-2.13841
-0.708541
-47.9549
-42.7996
-35.4596
-28.8145
-23.4818
-19.2862
-15.9308
-13.1701
-10.8287
-8.78463
-6.95295
-5.2725
-3.69756
-2.1922
-0.726444
-30.4593
-32.2938
-29.6431
-25.7901
-21.9758
-18.573
-15.624
-13.068
-10.8257
-8.82515
-7.00726
-5.32465
-3.73901
-2.21848
-0.735413
-22.4727
-24.9027
-24.6615
-22.7388
-20.1841
-17.5447
-15.0441
-12.748
-10.6548
-8.73883
-6.96763
-5.30947
-3.73525
-2.21873
-0.735885
-12.4887
-19.3665
-20.8477
-20.1264
-18.4511
-16.42
-14.3224
-12.287
-10.361
-8.55194
-6.84949
-5.23599
-3.69143
-2.19559
-0.728669
-15.074
-17.5779
-18.5634
-18.1766
-16.9652
-15.3415
-13.5573
-11.75
-9.98589
-8.29103
-6.6696
-5.11462
-3.61377
-2.15236
-0.714798
-15.7368
-16.8438
-17.232
-16.7995
-15.7655
-14.3744
-12.8085
-11.183
-9.5627
-7.97911
-6.44355
-4.95567
-3.50873
-2.09257
-0.695394
-16.3676
-16.609
-16.4705
-15.8401
-14.8139