/*--------------------------------*- C++ -*----------------------------------*\
| =========                 |                                                 |
| \\      /  F ield         | OpenFOAM: The Open Source CFD Toolbox           |
|  \\    /   O peration     | Version:  5.x                                   |
|   \\  /    A nd           | Web:      www.OpenFOAM.org                      |
|    \\/     M anipulation  |                                                 |
\*---------------------------------------------------------------------------*/
FoamFile
{
    version     2.0;
    format      ascii;
    class       volScalarField;
    location    "9";
    object      gradTx;
}
// * * * * * * * * * * * * * * * * * * * * * * * * * * * * * * * * * * * * * //

dimensions      [0 -1 0 1 0 0 0];

internalField   nonuniform List<scalar> 
6300
(
-31.8752
-31.9461
-32.0872
-32.2972
-32.5737
-32.9135
-33.3125
-33.7651
-34.2646
-34.8029
-35.3706
-35.9574
-36.552
-37.1432
-37.7204
-31.8043
-31.8759
-32.0184
-32.2306
-32.5103
-32.8544
-33.2588
-33.7182
-34.2258
-34.7735
-35.3517
-35.9495
-36.5553
-37.1572
-37.7438
-31.6617
-31.7347
-31.88
-32.0966
-32.3825
-32.735
-33.1503
-33.6231
-34.147
-34.7136
-35.313
-35.9336
-36.5626
-37.1866
-37.7926
-31.4463
-31.5211
-31.6704
-31.8933
-32.1882
-32.5529
-32.9841
-33.477
-34.0254
-34.6209
-35.2532
-35.9094
-36.575
-37.2341
-37.8709
-31.156
-31.2332
-31.3873
-31.6179
-31.9241
-32.3043
-32.7561
-33.2755
-33.8567
-34.4916
-35.1693
-35.8757
-36.5938
-37.3039
-37.9858
-30.7886
-30.8683
-31.0277
-31.2669
-31.586
-31.9843
-32.4605
-33.0121
-33.6342
-34.3195
-35.0568
-35.8305
-36.6205
-37.402
-38.1477
-30.3415
-30.4236
-30.5882
-30.8362
-31.1686
-31.5863
-32.0897
-32.6781
-33.3487
-34.0955
-34.9078
-35.7691
-36.6556
-37.5358
-38.3721
-29.8124
-29.8964
-30.0654
-30.3211
-30.6659
-31.1025
-31.6339
-32.262
-32.987
-33.8059
-34.7098
-35.6825
-36.6969
-37.7137
-38.6803
-29.1992
-29.2843
-29.456
-29.717
-30.0713
-30.5241
-31.0813
-31.7489
-32.5316
-33.4311
-34.4432
-35.5541
-36.736
-37.9418
-39.1004
-28.5009
-28.5857
-28.7573
-29.0195
-29.3782
-29.8413
-30.4185
-31.1208
-31.9594
-32.9438
-34.0777
-35.3548
-36.7511
-38.2171
-39.6643
-27.7177
-27.8003
-27.9679
-28.2255
-28.5807
-29.0444
-29.6305
-30.3563
-31.2416
-32.3068
-33.5692
-35.0362
-36.6968
-38.5112
-40.3927
-26.8521
-26.93
-27.0887
-27.3339
-27.6749
-28.1251
-28.7029
-29.4324
-30.3438
-31.4728
-32.8561
-34.5241
-36.489
-38.7383
-41.2429
-25.9084
-25.9789
-26.1229
-26.3465
-26.6599
-27.0783
-27.6236
-28.3265
-29.2286
-30.3844
-31.8586
-33.7158
-35.9976
-38.7115
-41.9473
-24.8944
-24.9545
-25.0775
-25.2693
-25.5398
-25.9046
-26.3868
-27.0213
-27.8599
-28.9778
-30.4787
-32.4841
-35.0775
-38.1689
-41.5917
-23.8202
-23.8671
-23.9633
-24.1133
-24.3257
-24.6134
-24.9976
-25.512
-26.2118
-27.1887
-28.5953
-30.6681
-33.6692
-37.3175
-37.9452
-38.2302
-38.6706
-39.0869
-39.477
-39.8401
-40.176
-40.4853
-40.7684
-41.0255
-41.2566
-41.461
-41.6379
-41.7861
-41.9049
-41.9944
-42.0552
-42.0894
-42.1
-42.0906
-42.0657
-42.0294
-41.9855
-41.937
-41.8856
-41.8319
-41.7753
-41.7142
-41.6467
-41.571
-41.4855
-41.3896
-41.2837
-41.1691
-41.0482
-40.9237
-40.7985
-40.6752
-40.5556
-40.4405
-40.3297
-40.2221
-40.1155
-40.0077
-39.8965
-39.78
-39.6573
-39.5285
-39.3947
-39.2578
-39.1202
-38.9845
-38.853
-38.7273
-38.608
-38.4948
-38.3864
-38.2809
-38.1759
-38.0693
-37.9594
-37.8451
-37.7264
-37.6045
-37.4811
-37.3585
-37.2391
-37.1253
-37.0184
-36.9193
-36.8277
-36.7426
-36.6625
-36.5854
-36.5098
-36.4347
-36.3599
-36.2865
-36.2168
-36.1538
-36.1013
-36.0635
-36.044
-36.0458
-36.0706
-36.1186
-36.188
-36.2755
-36.3762
-36.4839
-36.5916
-38.2605
-38.7055
-39.1245
-39.5159
-39.8791
-40.2145
-40.5231
-40.8057
-41.0631
-41.295
-41.5008
-41.6791
-41.8283
-41.9473
-42.0355
-42.0936
-42.1235
-42.1286
-42.1131
-42.082
-42.0403
-41.9922
-41.9412
-41.889
-41.8362
-41.7816
-41.7233
-41.6587
-41.5851
-41.5005
-41.4041
-41.2961
-41.1783
-41.0533
-40.9247
-40.7958
-40.6698
-40.549
-40.4343
-40.3253
-40.2204
-40.1172
-40.0127
-39.904
-39.7889
-39.6661
-39.5358
-39.3992
-39.2587
-39.1174
-38.9785
-38.8447
-38.718
-38.5992
-38.4878
-38.3823
-38.28
-38.1783
-38.0742
-37.9656
-37.8513
-37.7312
-37.6067
-37.4799
-37.3537
-37.2313
-37.1151
-37.0072
-36.9084
-36.8183
-36.7355
-36.658
-36.5833
-36.5091
-36.4341
-36.3579
-36.2813
-36.207
-36.1385
-36.0803
-36.0371
-36.0134
-36.0127
-36.0373
-36.0876
-36.1619
-36.2566
-36.3662
-36.4837
-36.6015
-38.3236
-38.7776
-39.2021
-39.5955
-39.9581
-40.2916
-40.5981
-40.8795
-41.1372
-41.3711
-41.5802
-41.7621
-41.9142
-42.034
-42.12
-42.1725
-42.1934
-42.1868
-42.1581
-42.1137
-42.0602
-42.0032
-41.9469
-41.8934
-41.8429
-41.7934
-41.7417
-41.6835
-41.6149
-41.5326
-41.4352
-41.3228
-41.1977
-41.0639
-40.9259
-40.7889
-40.6571
-40.5337
-40.4198
-40.3149
-40.2165
-40.1209
-40.0237
-39.9208
-39.8088
-39.6858
-39.552
-39.4092
-39.2608
-39.1113
-38.965
-38.8262
-38.6973
-38.5797
-38.4725
-38.3733
-38.2786
-38.184
-38.0856
-37.9801
-37.8657
-37.7424
-37.612
-37.4778
-37.3437
-37.2143
-37.0932
-36.9831
-36.885
-36.7983
-36.7209
-36.6495
-36.5803
-36.5098
-36.4354
-36.3561
-36.273
-36.1889
-36.1085
-36.0376
-35.9826
-35.9495
-35.9432
-35.9671
-36.022
-36.1065
-36.2162
-36.3447
-36.4833
-36.6223
-38.4245
-38.8924
-39.3243
-39.7193
-40.0792
-40.4077
-40.7091
-40.9875
-41.2454
-41.4831
-41.6986
-41.888
-42.0465
-42.1692
-42.253
-42.2968
-42.303
-42.2767
-42.2255
-42.1587
-42.0852
-42.0133
-41.9484
-41.8935
-41.848
-41.8085
-41.7692
-41.7234
-41.6643
-41.5866
-41.4877
-41.3677
-41.2299
-41.0802
-40.9259
-40.7744
-40.6325
-40.5045
-40.3924
-40.295
-40.2084
-40.1267
-40.0431
-39.9507
-39.8444
-39.7212
-39.5812
-39.4272
-39.2646
-39.1003
-38.9411
-38.7931
-38.6606
-38.5451
-38.4455
-38.3579
-38.2768
-38.1953
-38.1072
-38.0073
-37.8929
-37.7638
-37.623
-37.4753
-37.3272
-37.1853
-37.0554
-36.9415
-36.8451
-36.765
-36.6977
-36.6378
-36.5792
-36.516
-36.4436
-36.3601
-36.2661
-36.1655
-36.0648
-35.9721
-35.8966
-35.8469
-35.8304
-35.8521
-35.9139
-36.0146
-36.149
-36.3086
-36.4821
-36.6566
-38.5719
-39.059
-39.4996
-39.8937
-40.2456
-40.5626
-40.8532
-41.125
-41.3827
-41.627
-41.8546
-42.0586
-42.2302
-42.3607
-42.4433
-42.4755
-42.4594
-42.4023
-42.3157
-42.213
-42.1082
-42.013
-41.9357
-41.8801
-41.8446
-41.8232
-41.8062
-41.7823
-41.7403
-41.6713
-41.5706
-41.4381
-41.2793
-41.1032
-40.9216
-40.7463
-40.5876
-40.4526
-40.3439
-40.2596
-40.1933
-40.1354
-40.0749
-40.0008
-39.9044
-39.7809
-39.6304
-39.4576
-39.2711
-39.0818
-38.9008
-38.7378
-38.5994
-38.4878
-38.4012
-38.3334
-38.2753
-38.2162
-38.1458
-38.0556
-37.9411
-37.8023
-37.6437
-37.4734
-37.3016
-37.139
-36.9947
-36.8748
-36.7816
-36.7132
-36.6637
-36.6243
-36.5848
-36.5353
-36.468
-36.3789
-36.2686
-36.1423
-36.0093
-35.882
-35.7734
-35.6967
-35.6626
-35.6791
-35.75
-35.8742
-36.0454
-36.2525
-36.4796
-36.7086
-38.7799
-39.2924
-39.7418
-40.1289
-40.4623
-40.7556
-41.0245
-41.2829
-41.5392
-41.795
-42.0445
-42.2758
-42.4732
-42.6209
-42.7064
-42.7235
-42.6747
-42.5706
-42.4289
-42.2706
-42.1172
-41.9868
-41.892
-41.8377
-41.821
-41.8315
-41.8533
-41.8674
-41.8553
-41.8019
-41.699
-41.5466
-41.3534
-41.1343
-40.9082
-40.6942
-40.5087
-40.3627
-40.2603
-40.1982
-40.1659
-40.148
-40.1263
-40.0828
-40.0032
-39.8795
-39.7117
-39.5076
-39.2816
-39.0513
-38.8347
-38.6473
-38.4993
-38.3946
-38.3297
-38.2949
-38.2753
-38.2536
-38.2126
-38.1388
-38.0244
-37.8694
-37.6813
-37.4735
-37.2628
-37.0664
-36.8987
-36.7696
-36.6826
-36.6343
-36.6152
-36.6109
-36.6048
-36.5802
-36.5239
-36.4285
-36.2941
-36.1285
-35.9459
-35.7646
-35.6045
-35.4848
-35.422
-35.4279
-35.5093
-35.6659
-35.8903
-36.1673
-36.4746
-36.7851
-39.0698
-39.6169
-40.0735
-40.4416
-40.7366
-40.9836
-41.2111
-41.4436
-41.6964
-41.9721
-42.2607
-42.5416
-42.7877
-42.9708
-43.0679
-43.0667
-42.9695
-42.7932
-42.5658
-42.3213
-42.093
-41.9095
-41.7898
-41.7411
-41.7581
-41.8236
-41.9113
-41.9903
-42.0295
-42.0037
-41.8985
-41.7141
-41.4647
-41.1755
-40.8773
-40.6011
-40.3729
-40.21
-40.1189
-40.0937
-40.1178
-40.1662
-40.2091
-40.2169
-40.1657
-40.0417
-39.8451
-39.5894
-39.2983
-39.001
-38.7267
-38.4999
-38.337
-38.2438
-38.215
-38.2345
-38.2784
-38.3186
-38.3269
-38.2804
-38.1662
-37.9841
-37.7472
-37.4777
-37.2036
-36.9523
-36.7472
-36.6039
-36.5277
-36.5133
-36.5452
-36.6004
-36.6513
-36.6707
-36.636
-36.5341
-36.3645
-36.1393
-35.8807
-35.6167
-35.3775
-35.1912
-35.0821
-35.0682
-35.1601
-35.36
-35.6596
-36.0386
-36.4649
-36.8974
-39.4748
-40.0718
-40.5327
-40.8595
-41.0799
-41.2399
-41.3904
-41.5752
-41.8205
-42.1307
-42.4881
-42.8577
-43.1929
-43.4446
-43.5709
-43.5481
-43.3782
-43.0892
-42.7277
-42.3483
-42.0044
-41.7402
-41.5852
-41.5501
-41.6255
-41.7835
-41.982
-42.1705
-42.2975
-42.3198
-42.2123
-41.9751
-41.6332
-41.2296
-40.8149
-40.4389
-40.1429
-39.9542
-39.8824
-39.9182
-40.0348
-40.1922
-40.3422
-40.436
-40.4327
-40.3086
-40.0637
-39.722
-39.3239
-38.9176
-38.5501
-38.2604
-38.0742
-38.0006
-38.0306
-38.1388
-38.287
-38.4295
-38.52
-38.5195
-38.4055
-38.1781
-37.8597
-37.4889
-37.1113
-36.7717
-36.5069
-36.3414
-36.2839
-36.3255
-36.4418
-36.5958
-36.7434
-36.8392
-36.8448
-36.7373
-36.5151
-36.1983
-35.823
-35.4333
-35.0741
-34.7866
-34.6053
-34.556
-34.6555
-34.9106
-35.3144
-35.8418
-36.4461
-37.0632
-40.0457
-40.7228
-41.1849
-41.4305
-41.5104
-41.5097
-41.5205
-41.6195
-41.8513
-42.2211
-42.6981
-43.2231
-43.7184
-44.099
-44.2887
-44.2412
-43.9583
-43.4897
-42.9152
-42.3244
-41.8011
-41.4138
-41.208
-41.1999
-41.3738
-41.685
-42.0672
-42.4393
-42.7162
-42.8227
-42.7128
-42.3869
-41.8908
-41.2994
-40.6967
-40.1616
-39.7585
-39.5299
-39.4909
-39.6262
-39.8932
-40.2289
-40.5564
-40.795
-40.8737
-40.7492
-40.4219
-39.9356
-39.3613
-38.7784
-38.2617
-37.8719
-37.6493
-37.6081
-37.7336
-37.9855
-38.3036
-38.6154
-38.844
-38.922
-38.8082
-38.503
-38.0477
-37.5097
-36.9646
-36.4832
-36.1235
-35.9237
-35.8973
-36.0302
-36.2839
-36.6006
-36.91
-37.1375
-37.2166
-37.1056
-36.8017
-36.3415
-35.7863
-35.2058
-34.6673
-34.2291
-33.9383
-33.8295
-33.927
-34.2469
-34.7914
-35.5342
-36.4089
-37.312
-40.8594
-41.6833
-42.1491
-42.24
-42.0572
-41.7627
-41.5236
-41.4726
-41.6832
-42.1572
-42.8388
-43.6313
-44.4093
-45.0282
-45.3479
-45.2733
-44.8058
-44.0427
-43.1263
-42.2031
-41.4019
-40.8261
-40.5459
-40.5879
-40.9243
-41.4846
-42.1666
-42.8453
-43.3804
-43.6371
-43.5246
-43.0435
-42.2857
-41.3856
-40.4812
-39.6944
-39.1227
-38.8325
-38.8485
-39.1444
-39.6529
-40.2772
-40.8985
-41.3844
-41.6073
-41.4818
-41.009
-40.2762
-39.4109
-38.5439
-37.7903
-37.2426
-36.9632
-36.9757
-37.2547
-37.7366
-38.3295
-38.921
-39.385
-39.6007
-39.4867
-39.0438
-38.3549
-37.5408
-36.7259
-36.0196
-35.5097
-35.2562
-35.2812
-35.5611
-36.0353
-36.6158
-37.1945
-37.6494
-37.8623
-37.7515
-37.3134
-36.6216
-35.7858
-34.918
-34.116
-33.4596
-33.0091
-32.8059
-32.8781
-33.2598
-33.983
-35.0364
-36.3311
-37.6934
-42.0254
-43.1594
-43.6532
-43.4439
-42.7648
-41.9358
-41.256
-40.9489
-41.136
-41.7943
-42.8197
-44.0606
-45.329
-46.3884
-46.9749
-46.8714
-46.0789
-44.8163
-43.3473
-41.9063
-40.6781
-39.8125
-39.4201
-39.5518
-40.1525
-41.1088
-42.2709
-43.458
-44.4453
-44.9832
-44.8671
-44.0987
-42.8857
-41.4776
-40.0966
-38.9172
-38.0815
-37.6942
-37.8032
-38.3564
-39.246
-40.3295
-41.4359
-42.3522
-42.8427
-42.7145
-41.9704
-40.8076
-39.4628
-38.1461
-37.0227
-36.2267
-35.8571
-35.9592
-36.4836
-37.328
-38.3576
-39.4101
-40.2835
-40.7542
-40.6386
-39.9389
-38.8423
-37.5732
-36.331
-35.273
-34.527
-34.1874
-34.2981
-34.8123
-35.6336
-36.6336
-37.6572
-38.5099
-38.9741
-38.869
-38.1902
-37.1092
-35.8315
-34.5353
-33.355
-32.3936
-31.7238
-31.3857
-31.3836
-31.781
-32.699
-34.1911
-36.1557
-38.2953
-43.6698
-45.5562
-46.1695
-45.3255
-43.6889
-41.8938
-40.4513
-39.7134
-39.9103
-40.9027
-42.4902
-44.4502
-46.5497
-48.4294
-49.5956
-49.4617
-48.0288
-45.8872
-43.5279
-41.3032
-39.432
-38.1175
-37.5397
-37.8402
-38.8685
-40.4369
-42.3391
-44.3585
-46.1573
-47.2713
-47.1489
-45.794
-43.7663
-41.5309
-39.4215
-37.6452
-36.3947
-35.841
-36.1184
-37.084
-38.5596
-40.3491
-42.247
-43.9331
-44.9689
-44.8343
-43.5346
-41.6011
-39.4744
-37.47
-35.7834
-34.5967
-34.0715
-34.3349
-35.2515
-36.6526
-38.3526
-40.1569
-41.7621
-42.7518
-42.6316
-41.4058
-39.5781
-37.5666
-35.6709
-34.0772
-32.9589
-32.4704
-32.7337
-33.6214
-34.9744
-36.6175
-38.3661
-39.9297
-40.9057
-40.8125
-39.6463
-37.8803
-35.9035
-33.9858
-32.2789
-30.9076
-29.9609
-29.4817
-29.3138
-29.5524
-30.5884
-32.6654
-35.7285
-39.2822
-45.7797
-49.7809
-50.7793
-48.3494
-44.8451
-41.3448
-38.6316
-37.1317
-37.5391
-39.1542
-41.6244
-44.6389
-48.087
-51.4978
-54.0884
-53.9224
-50.9992
-47.2718
-43.5144
-40.1913
-37.3841
-35.3615
-34.3948
-35.0804
-36.8067
-39.2844
-42.2383
-45.5769
-48.8553
-51.3396
-51.2055
-48.4583
-44.9461
-41.4028
-38.2668
-35.6159
-33.7044
-32.7911
-33.4424
-35.0774
-37.4213
-40.2125
-43.3631
-46.4504
-48.7806
-48.6319
-46.0116
-42.6726
-39.3098
-36.3362
-33.8245
-32.0143
-31.1505
-31.7699
-33.3219
-35.5469
-38.1972
-41.1906
-44.127
-46.3478
-46.2166
-43.7393
-40.5785
-37.3932
-34.5761
-32.1967
-30.4837
-29.671
-30.2702
-31.7605
-33.8974
-36.4494
-39.3417
-42.1955
-44.3769
-44.301
-41.9661
-38.9547
-35.8907
-33.1326
-30.7196
-28.81
-27.5248
-27.1294
-26.6587
-26.1756
-26.9787
-29.7196
-34.595
-40.9861
-47.3071
-58.3181
-60.2959
-52.9083
-46.0045
-39.6676
-35.0661
-31.8034
-33.4289
-36.1744
-39.9748
-44.2032
-49.6781
-55.7472
-62.5509
-62.3533
-55.1277
-48.6997
-42.8754
-38.3366
-34.2065
-31.0849
-28.8705
-30.8222
-33.6631
-37.4459
-41.5837
-46.8821
-52.6969
-59.1782
-59.0252
-52.2239
-46.1708
-40.6882
-36.4136
-32.5219
-29.5769
-27.488
-29.35
-32.0498
-35.6389
-39.5582
-44.5705
-50.058
-56.1618
-55.9884
-49.5233
-43.7787
-38.5845
-34.5374
-30.8552
-28.069
-26.0936
-27.8617
-30.4234
-33.8284
-37.5479
-42.3065
-47.5224
-53.3306
-53.1798
-47.0572
-41.614
-36.6898
-32.8511
-29.3564
-26.7122
-24.8384
-26.5236
-28.9683
-32.2228
-35.7912
-40.3727
-45.4295
-51.0985
-51.0426
-45.2601
-40.1048
-35.4374
-31.7824
-28.4355
-25.8133
-23.8074
-24.8856
-24.0214
-20.9467
-20.5786
-23.7003
-31.2787
-44.1222
-41.1891
-79.8945
-83.1912
-56.6612
-46.3323
-35.4928
-29.5732
-19.4363
-27.7059
-31.6755
-37.7088
-41.9726
-50.4136
-58.939
-81.095
-80.9045
-58.1076
-49.2584
-40.3851
-35.8933
-29.5768
-25.5019
-17.3472
-25.2833
-29.1631
-35.0962
-39.2577
-47.4439
-55.5784
-76.5704
-76.4185
-54.9123
-46.5737
-38.2341
-34.009
-28.0644
-24.2168
-16.4955
-24.0511
-27.7416
-33.381
-37.3299
-45.0935
-52.7781
-72.5823
-72.4051
-51.9975
-44.0919
-36.2076
-32.2129
-26.5959
-22.9562
-15.6459
-22.8108
-26.3106
-31.6573
-35.4021
-42.7637
-50.0649
-68.8943
-68.7423
-49.397
-41.9021
-34.4231
-30.6309
-25.2912
-21.8316
-14.8809
-21.6831
-25.0102
-30.0961
-33.674
-40.7194
-47.782
-66.0639
-66.0305
-47.651
-40.5524
-33.5262
-29.9886
-25.108
-21.9288
-15.6491
-25.4386
-24.5674
-11.8204
-9.15293
-11.2634
-20.3807
-50.2365
-36.7015
-36.8027
-36.8753
-36.9139
-36.9167
-36.8857
-36.8254
-36.7429
-36.6463
-36.5441
-36.4446
-36.3554
-36.2827
-36.2315
-36.2051
-36.7213
-36.8313
-36.9093
-36.9496
-36.9507
-36.9148
-36.8477
-36.7571
-36.6519
-36.5414
-36.4344
-36.3389
-36.2613
-36.2067
-36.1786
-36.7635
-36.8917
-36.981
-37.0246
-37.0215
-36.9753
-36.8935
-36.7857
-36.6627
-36.5351
-36.4128
-36.3044
-36.2168
-36.1555
-36.124
-36.8329
-36.9913
-37.0983
-37.1464
-37.1353
-37.0715
-36.9653
-36.8297
-36.6781
-36.5235
-36.3772
-36.2489
-36.1462
-36.0746
-36.0379
-36.9387
-37.1422
-37.2746
-37.3272
-37.302
-37.2099
-37.0665
-36.8895
-36.6966
-36.5036
-36.3238
-36.1679
-36.0443
-35.9588
-35.9151
-37.0952
-37.364
-37.5307
-37.5857
-37.5358
-37.3996
-37.2011
-36.9654
-36.7153
-36.4704
-36.2463
-36.0547
-35.9044
-35.8011
-35.7486
-37.3258
-37.6881
-37.8986
-37.9489
-37.8559
-37.6516
-37.3731
-37.0555
-36.7288
-36.4165
-36.1363
-35.9004
-35.7173
-35.5926
-35.5295
-37.6685
-38.1639
-38.4268
-38.4555
-38.2873
-37.9779
-37.584
-37.1547
-36.7278
-36.3307
-35.9818
-35.6931
-35.4719
-35.3226
-35.2474
-38.1872
-38.8721
-39.1892
-39.1588
-38.8601
-38.3886
-37.8305
-37.2514
-36.6971
-36.1966
-35.7672
-35.4184
-35.1547
-34.9784
-34.8901
-38.9943
-39.948
-40.2992
-40.1305
-39.6054
-38.8861
-38.0977
-37.3234
-36.6126
-35.9915
-35.4721
-35.0583
-34.7502
-34.5461
-34.4446
-40.2987
-41.6264
-41.9291
-41.4586
-40.545
-39.4527
-38.3509
-37.3319
-36.4383
-35.6847
-35.0714
-34.5927
-34.2416
-34.0114
-33.8975
-42.5219
-44.33
-44.3323
-43.2297
-41.6633
-40.0289
-38.5213
-37.2149
-36.1241
-35.2376
-34.536
-33.9996
-33.6119
-33.3603
-33.2366
-46.604
-48.8393
-47.8404
-45.4647
-42.8494
-40.4783
-38.4905
-36.8824
-35.6056
-34.6056
-33.8353
-33.2579
-32.8462
-32.5814
-32.4519
-54.9265
-56.5826
-52.7255
-47.9393
-43.7912
-40.5446
-38.0799
-36.2186
-34.8103
-33.7439
-32.9418
-32.3503
-31.9335
-31.6673
-31.5377
-74.5233
-69.8394
-58.5394
-49.7759
-43.8317
-39.8289
-37.0658
-35.102
-33.6729
-32.618
-31.8375
-31.2683
-30.87
-30.6168
-30.4938
-22.7925
-22.8254
-22.8924
-22.9967
-23.1435
-23.3415
-23.605
-23.9587
-24.4471
-25.1552
-26.2598
-28.1593
-31.8075
-39.3689
-53.256
-21.8355
-21.8546
-21.8931
-21.9522
-22.0334
-22.1396
-22.2762
-22.4531
-22.6903
-23.0316
-23.5866
-24.6747
-27.4395
-36.9334
-79.2158
-20.8652
-20.8702
-20.8797
-20.8922
-20.9058
-20.9167
-20.9196
-20.9057
-20.8609
-20.7596
-20.5444
-20.037
-18.4685
-11.7361
25.4713
-19.8915
-19.8828
-19.864
-19.8317
-19.78
-19.6994
-19.5745
-19.3798
-19.0708
-18.5662
-17.7043
-16.1407
-13.1468
-7.70962
-3.8483
-18.9237
-18.9025
-18.8578
-18.7846
-18.6743
-18.5129
-18.2781
-17.9332
-17.4166
-16.6207
-15.3495
-13.2319
-9.53237
-2.59595
13.4763
-17.9707
-17.9386
-17.8714
-17.7633
-17.6041
-17.3775
-17.0581
-16.6058
-15.9564
-15.0054
-13.5822
-11.4185
-8.16506
-3.82928
-1.99159
-17.0401
-16.9989
-16.9135
-16.7775
-16.5806
-16.3064
-15.9303
-15.4153
-14.7057
-13.7182
-12.3293
-10.361
-7.54891
-3.32841
4.93785
-16.1382
-16.0899
-15.9906
-15.8342
-15.6109
-15.3062
-14.8991
-14.3599
-13.6481
-12.7097
-11.4789
-9.88934
-7.91068
-5.63719
-3.51347
-15.2697
-15.2165
-15.1074
-14.9372
-14.6978
-14.3771
-13.9595
-13.4245
-12.7479
-11.9044
-10.8777
-9.68786
-8.47714
-7.84195
-10.4898
-14.4383
-14.3818
-14.2666
-14.0885
-13.841
-13.5155
-13.1014
-12.5874
-11.9634
-11.2263
-10.3899
-9.50088
-8.64392
-7.76676
-5.05394
-13.6462
-13.5878
-13.4695
-13.2879
-13.0384
-12.7153
-12.3128
-11.8267
-11.2576
-10.6173
-9.93846
-9.29169
-8.82472
-8.96628
-11.9849
-12.8946
-12.8356
-12.7163
-12.5345
-12.2869
-11.9704
-11.5824
-11.1236
-10.6012
-10.035
-9.46482
-8.95765
-8.58295
-8.16782
-5.50288
-12.184
-12.1252
-12.0066
-11.8267
-11.5834
-11.275
-10.901
-10.4646
-9.97542
-9.4554
-8.94745
-8.53164
-8.36925
-8.93169
-12.6791
-11.5143
-11.4563
-11.3396
-11.163
-10.9252
-10.6251
-10.2631
-9.84227
-9.37104
-8.86745
-8.3661
-7.92965
-7.65222
-7.48376
-5.31949
-10.8849
-10.8281
-10.7141
-10.5418
-10.3102
-10.0184
-9.66611
-9.25493
-8.78916
-8.27797
-7.73969
-7.21726
-6.85953
-7.42175
-13.5947
-10.295
-10.2398
-10.129
-9.96183
-9.73708
-9.45354
-9.11004
-8.70552
-8.23883
-7.70733
-7.10228
-6.3905
-5.428
-3.46339
4.06987
-9.74335
-9.69011
-9.58322
-9.42185
-9.20479
-8.93038
-8.59635
-8.19932
-7.73351
-7.1878
-6.539
-5.73788
-4.69241
-3.37209
-3.26024
-9.22872
-9.17769
-9.07524
-8.92056
-8.71234
-8.44863
-8.12643
-7.74089
-7.2837
-6.73988
-6.08152
-5.25497
-4.14771
-2.44153
1.41814
-8.74955
-8.70101
-8.60356
-8.45647
-8.25846
-8.00753
-7.70052
-7.33225
-6.89408
-6.37153
-5.74086
-4.96702
-4.01894
-3.0064
-3.15351
-8.30411
-8.2583
-8.16639
-8.02776
-7.84134
-7.6054
-7.31717
-6.97216
-6.56308
-6.07828
-5.49964
-4.80009
-3.93497
-2.76592
-0.387437
-7.8905
-7.84762
-7.76168
-7.63225
-7.45862
-7.2396
-6.97328
-6.65659
-6.2847
-5.85021
-5.34243
-4.74816
-4.0621
-3.36528
-3.40904
-7.50668
-7.46687
-7.38719
-7.26747
-7.10746
-6.90668
-6.66438
-6.37937
-6.04981
-5.67306
-5.2453
-4.75999
-4.19674
-3.45028
-1.87521
-7.15053
-7.11384
-7.04051
-6.9307
-6.78462
-6.6026
-6.38517
-6.1331
-5.84773
-5.53135
-5.18818
-4.82597
-4.45862
-4.11067
-3.8329
-6.81988
-6.78626
-6.7192
-6.61914
-6.48675
-6.32315
-6.13002
-5.91
-5.6672
-5.40826
-5.14431
-4.89555
-4.70706
-4.72227
-5.59744
-6.5126
-6.48192
-6.42085
-6.33004
-6.21059
-6.06422
-5.89359
-5.70273
-5.49789
-5.2887
-5.0899
-4.92329
-4.81407
-4.73662
-4.16568
-6.22666
-6.1987
-6.14316
-6.06085
-5.95314
-5.82218
-5.67121
-5.5052
-5.33164
-5.16193
-5.01318
-4.91121
-4.89906
-5.09361
-6.14096
-5.96015
-5.93466
-5.88408
-5.80933
-5.71187
-5.59404
-5.45931
-5.31292
-5.16276
-5.02063
-4.904
-4.83678
-4.84053
-4.85834
-4.20421
-5.71137
-5.68805
-5.64183
-5.57358
-5.48478
-5.37766
-5.25553
-5.1233
-4.98831
-4.86164
-4.76054
-4.71308
-4.77226
-5.08965
-6.45202
-5.47881
-5.45737
-5.41488
-5.35214
-5.27044
-5.17172
-5.05878
-4.93563
-4.8081
-4.68494
-4.57985
-4.51537
-4.52469
-4.59523
-4.03095
-5.26116
-5.24134
-5.20203
-5.14388
-5.06794
-4.97569
-4.86915
-4.75103
-4.6249
-4.4957
-4.37099
-4.26644
-4.23465
-4.54159
-6.83244
-5.05729
-5.03887
-5.00228
-4.948
-4.87679
-4.7896
-4.6876
-4.572
-4.44385
-4.30336
-4.14817
-3.967
-3.7094
-3.11019
-0.547046
-4.86624
-4.84905
-4.81483
-4.76391
-4.69675
-4.61383
-4.51551
-4.40172
-4.27139
-4.12125
-3.94343
-3.72065
-3.42142
-3.04256
-3.15889
-4.68716
-4.67107
-4.63899
-4.59113
-4.52769
-4.44878
-4.35419
-4.24295
-4.11271
-3.9584
-3.76992
-3.52744
-3.18876
-2.631
-1.23868
-4.51928
-4.50421
-4.47414
-4.42918
-4.36939
-4.29465
-4.20444
-4.09741
-3.97078
-3.81931
-3.63395
-3.40105
-3.10826
-2.79894
-2.96387
-4.36188
-4.34779
-4.31967
-4.27756
-4.2215
-4.1513
-4.0664
-3.96551
-3.84612
-3.70376
-3.53104
-3.31628
-3.03927
-2.63748
-1.72034
-4.21429
-4.20115
-4.17491
-4.13567
-4.08345
-4.01817
-3.93948
-3.84648
-3.73744
-3.60933
-3.45733
-3.27478
-3.05695
-2.83386
-2.9226
-4.07585
-4.06362
-4.03923
-4.0028
-3.95448
-3.89439
-3.82252
-3.73861
-3.64203
-3.53151
-3.40487
-3.25781
-3.0783
-2.81362
-2.16574
-3.94593
-3.93456
-3.91192
-3.87821
-3.83372
-3.77882
-3.71395
-3.63958
-3.55631
-3.46493
-3.36661
-3.26339
-3.15884
-3.05944
-2.97918
-3.82394
-3.81335
-3.79232
-3.76113
-3.72022
-3.67021
-3.61198
-3.54675
-3.47626
-3.40318
-3.33179
-3.26991
-3.23584
-3.29191
-3.73661
-3.70931
-3.69942
-3.6798
-3.65082
-3.61305
-3.56733
-3.51491
-3.45759
-3.39804
-3.34029
-3.29038
-3.25715
-3.25026
-3.25444
-3.01725
-3.60158
-3.59226
-3.57381
-3.54665
-3.51142
-3.46913
-3.42126
-3.37
-3.31861
-3.27196
-3.23742
-3.22611
-3.25704
-3.38451
-3.91827
-3.50035
-3.49147
-3.47391
-3.44809
-3.41471
-3.37483
-3.33
-3.28254
-3.23589
-3.19527
-3.16835
-3.16577
-3.1968
-3.23239
-2.93642
-3.40531
-3.39672
-3.37975
-3.35481
-3.32255
-3.28398
-3.24058
-3.19452
-3.14903
-3.10906
-3.08242
-3.08211
-3.1334
-3.31047
-4.00205
-3.31624
-3.30783
-3.29116
-3.26662
-3.23479
-3.19651
-3.15304
-3.10613
-3.05836
-3.01363
-2.97822
-2.96265
-2.98268
-3.03121
-2.76105
-3.23305
-3.22468
-3.20807
-3.18353
-3.15151
-3.11268
-3.06791
-3.01836
-2.96559
-2.91176
-2.86027
-2.8185
-2.81221
-2.97319
-4.11883
-3.1557
-3.14726
-3.13051
-3.10564
-3.073
-3.033
-2.98612
-2.93286
-2.87359
-2.80828
-2.73558
-2.64973
-2.52559
-2.23133
-0.959955
-3.08422
-3.07565
-3.05859
-3.03318
-2.99962
-2.95811
-2.90878
-2.85154
-2.78581
-2.70995
-2.62004
-2.50758
-2.35713
-2.16797
-2.22995
-3.01872
-3.00996
-2.9925
-2.96641
-2.93179
-2.88868
-2.83695
-2.77614
-2.7051
-2.6214
-2.52019
-2.39183
-2.21558
-1.93015
-1.22667
-2.95932
-2.95034
-2.93241
-2.90558
-2.86988
-2.82525
-2.77144
-2.70785
-2.63319
-2.54504
-2.43921
-2.30936
-2.14986
-1.9826
-2.05072
-2.90618
-2.89695
-2.87852
-2.85093
-2.81418
-2.76821
-2.71276
-2.64729
-2.57067
-2.48097
-2.37494
-2.24749
-2.08955
-1.87154
-1.4033
-2.85946
-2.84997
-2.83102
-2.80266
-2.76491
-2.71776
-2.66106
-2.59447
-2.51727
-2.42826
-2.32558
-2.20681
-2.07098
-1.9342
-1.94907
-2.81935
-2.80958
-2.79008
-2.76092
-2.72219
-2.67396
-2.61626
-2.54903
-2.47208
-2.38506
-2.28739
-2.17801
-2.05308
-1.89149
-1.5617
-2.78605
-2.77597
-2.75587
-2.72585
-2.68609
-2.63676
-2.5781
-2.51037
-2.43391
-2.34926
-2.25737
-2.16003
-2.06066
-1.96554
-1.88837
-2.75976
-2.74934
-2.72855
-2.69758
-2.65664
-2.60606
-2.54625
-2.47779
-2.40146
-2.31852
-2.23114
-2.14349
-2.06532
-2.02708
-2.16125
-2.74074
-2.72991
-2.70834
-2.67624
-2.63391
-2.58179
-2.52044
-2.45068
-2.3736
-2.29088
-2.20511
-2.12038
-2.04225
-1.96885
-1.81046
-2.72926
-2.71795
-2.69546
-2.66202
-2.618
-2.56393
-2.5005
-2.42866
-2.34969
-2.26539
-2.17837
-2.09271
-2.01593
-1.9696
-2.06612
-2.72564
-2.71378
-2.6902
-2.65516
-2.60909
-2.55258
-2.48642
-2.41161
-2.3295
-2.24179
-2.15069
-2.0589
-1.96847
-1.87112
-1.67428
-2.73028
-2.71777
-2.69291
-2.65598
-2.60745
-2.54796
-2.47834
-2.39966
-2.31322
-2.22057
-2.12352
-2.02416
-1.92584
-1.84168
-1.85989
-2.74361
-2.73036
-2.70401
-2.66487
-2.61344
-2.55039
-2.47658
-2.39311
-2.30126
-2.20243
-2.09797
-1.98871
-1.87338
-1.74112
-1.52326
-2.76617
-2.75206
-2.724
-2.68232
-2.62752
-2.56029
-2.48155
-2.39241
-2.29417
-2.18821
-2.07577
-1.95749
-1.83271
-1.69997
-1.56988
-2.79854
-2.78347
-2.75347
-2.70889
-2.65024
-2.57821
-2.49375
-2.39803
-2.29244
-2.17851
-2.05766
-1.93078
-1.79758
-1.65694
-1.51883
-2.84139
-2.82524
-2.79309
-2.74526
-2.68225
-2.60478
-2.51379
-2.41053
-2.29653
-2.17362
-2.04374
-1.90849
-1.76765
-1.61211
-1.37889
-2.89548
-2.87814
-2.84361
-2.79218
-2.72433
-2.64074
-2.54236
-2.43049
-2.30682
-2.17359
-2.03356
-1.89009
-1.74792
-1.62119
-1.59937
-2.96162
-2.943
-2.90588
-2.85053
-2.77735
-2.68699
-2.58032
-2.45865
-2.32378
-2.1783
-2.02577
-1.87081
-1.7175
-1.55739
-1.28201
-3.0407
-3.02071
-2.98083
-2.92125
-2.84233
-2.74456
-2.62872
-2.49598
-2.34811
-2.18791
-2.0197
-1.85038
-1.6918
-1.57361
-1.63843
-3.13368
-3.11225
-3.06946
-3.00543
-2.9204
-2.8147
-2.68888
-2.54382
-2.38103
-2.20308
-2.01442
-1.82251
-1.63807
-1.4627
-1.1746
-3.24155
-3.21864
-3.17284
-3.10422
-3.01284
-2.89883
-2.7624
-2.604
-2.42449
-2.2257
-2.0114
-1.78945
-1.57804
-1.43003
-1.55823
-3.36534
-3.34093
-3.2921
-3.21882
-3.121
-2.99853
-2.85121
-2.67884
-2.48135
-2.25911
-2.01369
-1.7491
-1.474
-1.20553
-0.983126
-3.50609
-3.48019
-3.42835
-3.35046
-3.2463
-3.11549
-2.95741
-2.77114
-2.5554
-2.30864
-2.02931
-1.71605
-1.36538
-0.949011
-0.253454
-3.66483
-3.63748
-3.58271
-3.50036
-3.39012
-3.2514
-3.08321
-2.88391
-2.651
-2.3808
-2.06849
-1.709
-1.30237
-0.886347
-0.767118
-3.84258
-3.81382
-3.75623
-3.66964
-3.55372
-3.40778
-3.23061
-3.02005
-2.7725
-2.48221
-2.14044
-1.73471
-1.24591
-0.617552
0.528596
-4.04032
-4.01019
-3.94989
-3.85931
-3.73817
-3.58587
-3.40121
-3.18188
-2.9237
-2.61938
-2.25683
-1.8181
-1.28636
-0.708312
-0.636002
-4.25899
-4.22751
-4.16459
-4.0702
-3.94426
-3.78645
-3.59589
-3.37069
-3.10695
-2.79699
-2.42612
-1.9661
-1.35898
-0.447844
1.50607
-4.49952
-4.4667
-4.40114
-4.30301
-4.17251
-4.00976
-3.81464
-3.58629
-3.3223
-3.01692
-2.65733
-2.21625
-1.64274
-0.911501
-0.733348
-4.76285
-4.72862
-4.66032
-4.55832
-4.42316
-4.25558
-4.05646
-3.82663
-3.56641
-3.2745
-2.94514
-2.55838
-2.03605
-0.99105
2.8895
-5.04997
-5.0142
-4.94292
-4.83666
-4.69632
-4.5233
-4.31962
-4.0881
-3.83252
-3.55809
-3.27281
-2.99466
-2.79232
-3.03971
-6.11222
-5.36193
-5.32446
-5.24982
-5.13867
-4.99219
-4.81232
-4.60213
-4.36626
-4.11174
-3.84922
-3.59555
-3.37831
-3.23627
-3.12648
-1.92808
-5.69991
-5.66054
-5.58208
-5.46522
-5.31124
-5.12242
-4.90247
-4.6574
-4.39651
-4.13422
-3.89298
-3.70975
-3.65784
-3.96921
-5.92916
-6.06525
-6.02377
-5.94101
-5.81754
-5.65451
-5.45412
-5.22028
-4.95951
-4.68227
-4.40462
-4.15013
-3.94998
-3.82715
-3.66706
-2.27375
-6.4594
-6.41566
-6.32823
-6.19735
-6.02373
-5.80907
-5.55679
-5.27307
-4.96831
-4.65893
-4.36954
-4.13653
-4.02233
-4.22131
-5.90035
-6.88393
-6.8379
-6.74563
-6.60684
-6.42145
-6.19015
-5.91513
-5.60124
-5.25757
-4.89935
-4.54982
-4.24057
-4.00004
-3.74771
-2.44326
-7.34044
-7.29226
-7.19535
-7.04868
-6.85107
-6.60161
-6.30047
-5.95009
-5.55694
-5.13375
-4.70213
-4.29688
-3.98593
-4.00476
-5.6213
-7.8304
-7.78047
-7.67961
-7.52591
-7.3167
-7.04896
-6.72
-6.32865
-5.87719
-5.37401
-4.83613
-4.28771
-3.74282
-3.15226
-2.38085
-8.35504
-8.30405
-8.20059
-8.04169
-7.82297
-7.53882
-7.18286
-6.74896
-6.23336
-5.63836
-4.97745
-4.27609
-3.53143
-2.42533
1.39534
-8.91509
-8.86408
-8.76007
-8.59901
-8.37469
-8.07857
-7.69984
-7.226
-6.64466
-5.94848
-5.14687
-4.29455
-3.57105
-3.58351
-6.95729
-9.51058
-9.46091
-9.35916
-9.20028
-8.97628
-8.67568
-8.28289
-7.7777
-7.13573
-6.33181
-5.3515
-4.22356
-3.09957
-2.40743
-2.87068
-10.1406
-10.0939
-9.99792
-9.84677
-9.63107
-9.33683
-8.94399
-8.42438
-7.73928
-6.83764
-5.65864
-4.14983
-2.3282
-0.428998
0.894262
-10.8029
-10.7612
-10.675
-10.5381
-10.3404
-10.0665
-9.69313
-9.18599
-8.49321
-7.53608
-6.19483
-4.29333
-1.61069
1.9494
5.57817
-11.4942
-11.4595
-11.3872
-11.2716
-11.1027
-10.8651
-10.5352
-10.0765
-9.43071
-8.50129
-7.12009
-4.97929
-1.50254
4.28012
12.7821
-12.2097
-12.1838
-12.1296
-12.0421
-11.9127
-11.7278
-11.4668
-11.0969
-10.5652
-9.78022
-8.57285
-6.59301
-2.99571
4.72243
25.8902
-146.568
-88.056
-61.5439
-48.8749
-42.0891
-38.0364
-35.4034
-33.5884
-32.2875
-31.3342
-30.6315
-30.1199
-29.762
-29.5346
-29.4241
-182.359
-82.3947
-54.662
-43.9704
-38.6069
-35.4209
-33.3243
-31.8553
-30.7864
-29.9933
-29.4025
-28.9691
-28.6641
-28.4696
-28.3749
47.0793
-26.5725
-35.946
-35.3657
-33.6127
-32.0488
-30.8092
-29.8444
-29.094
-28.5117
-28.0644
-27.729
-27.4896
-27.3354
-27.2599
-6.98485
-15.388
-24.1422
-27.5755
-28.4872
-28.4514
-28.1035
-27.6846
-27.2849
-26.9363
-26.6485
-26.4223
-26.2558
-26.1465
-26.0924
26.0333
-3.95967
-16.0335
-21.5364
-24.0198
-25.0708
-25.4469
-25.5115
-25.4402
-25.3188
-25.1897
-25.0741
-24.9823
-24.9193
-24.8874
-1.36674
-4.97523
-12.488
-17.5941
-20.547
-22.1589
-23.0067
-23.4328
-23.6303
-23.7065
-23.7217
-23.7095
-23.6889
-23.6706
-23.6602
11.5653
-3.27947
-10.6138
-15.147
-18.0055
-19.7776
-20.8594
-21.513
-21.9045
-22.1367
-22.2727
-22.3506
-22.3939
-22.4163
-22.4258
-3.02001
-6.79928
-10.6848
-13.8629
-16.2186
-17.8756
-19.0094
-19.7751
-20.2893
-20.6339
-20.8639
-21.0158
-21.1133
-21.1711
-21.198
-14.9807
-10.2453
-11.2471
-13.1498
-14.9168
-16.337