/*--------------------------------*- C++ -*----------------------------------*\
| =========                 |                                                 |
| \\      /  F ield         | OpenFOAM: The Open Source CFD Toolbox           |
|  \\    /   O peration     | Version:  5.x                                   |
|   \\  /    A nd           | Web:      www.OpenFOAM.org                      |
|    \\/     M anipulation  |                                                 |
\*---------------------------------------------------------------------------*/
FoamFile
{
    version     2.0;
    format      ascii;
    class       volScalarField;
    location    "9";
    object      T;
}
// * * * * * * * * * * * * * * * * * * * * * * * * * * * * * * * * * * * * * //

dimensions      [0 0 0 1 0 0 0];

internalField   nonuniform List<scalar> 
6300
(
322.841
322.522
322.202
321.88
321.556
321.229
320.898
320.562
320.222
319.877
319.526
319.17
318.807
318.439
318.064
322.841
322.523
322.204
321.882
321.559
321.232
320.902
320.567
320.227
319.883
319.532
319.176
318.813
318.444
318.07
322.842
322.525
322.207
321.887
321.565
321.24
320.91
320.577
320.238
319.894
319.544
319.188
318.825
318.456
318.081
322.843
322.528
322.212
321.895
321.575
321.251
320.924
320.591
320.254
319.911
319.562
319.206
318.843
318.474
318.099
322.844
322.533
322.22
321.905
321.587
321.266
320.941
320.611
320.276
319.934
319.586
319.231
318.868
318.499
318.122
322.846
322.538
322.229
321.918
321.603
321.286
320.964
320.637
320.304
319.964
319.617
319.263
318.901
318.53
318.152
322.848
322.545
322.24
321.933
321.623
321.31
320.991
320.668
320.338
320.001
319.656
319.303
318.941
318.57
318.19
322.851
322.553
322.253
321.951
321.647
321.338
321.025
320.705
320.379
320.046
319.703
319.351
318.99
318.618
318.235
322.854
322.562
322.268
321.973
321.674
321.371
321.064
320.75
320.429
320.099
319.76
319.41
319.049
318.676
318.29
322.858
322.572
322.286
321.997
321.705
321.41
321.109
320.801
320.486
320.162
319.827
319.481
319.12
318.746
318.356
322.862
322.584
322.306
322.025
321.741
321.453
321.16
320.861
320.553
320.236
319.907
319.564
319.206
318.83
318.436
322.866
322.597
322.327
322.055
321.781
321.502
321.218
320.928
320.629
320.321
320
319.664
319.309
318.934
318.535
322.871
322.611
322.351
322.089
321.824
321.556
321.282
321.003
320.716
320.419
320.108
319.781
319.434
319.061
318.66
322.876
322.627
322.377
322.125
321.871
321.614
321.353
321.086
320.813
320.529
320.233
319.92
319.583
319.218
318.82
322.881
322.643
322.404
322.163
321.921
321.677
321.429
321.177
320.919
320.653
320.375
320.081
319.762
319.407
319.015
317.716
317.395
317.071
316.744
316.413
316.08
315.744
315.405
315.064
314.721
314.377
314.03
313.683
313.334
312.984
312.634
312.283
311.933
311.582
311.231
310.881
310.531
310.181
309.832
309.483
309.134
308.787
308.439
308.092
307.746
307.401
307.056
306.713
306.37
306.029
305.688
305.349
305.01
304.673
304.336
304.001
303.666
303.332
302.999
302.667
302.336
302.006
301.677
301.35
301.023
300.698
300.373
300.05
299.728
299.407
299.086
298.767
298.448
298.131
297.814
297.498
297.183
296.869
296.556
296.244
295.934
295.624
295.315
295.007
294.7
294.393
294.087
293.782
293.477
293.174
292.87
292.568
292.265
291.964
291.663
291.362
291.062
290.761
290.461
290.16
289.859
289.557
289.254
288.951
288.646
317.721
317.401
317.076
316.748
316.418
316.084
315.747
315.408
315.067
314.724
314.379
314.032
313.684
313.335
312.985
312.635
312.284
311.933
311.582
311.231
310.88
310.53
310.18
309.831
309.482
309.134
308.786
308.438
308.091
307.745
307.4
307.055
306.712
306.369
306.027
305.687
305.347
305.009
304.672
304.335
303.999
303.665
303.331
302.998
302.666
302.335
302.005
301.676
301.348
301.021
300.696
300.372
300.049
299.726
299.405
299.085
298.766
298.447
298.129
297.812
297.497
297.182
296.868
296.555
296.243
295.932
295.623
295.314
295.006
294.699
294.392
294.086
293.781
293.477
293.173
292.869
292.567
292.265
291.963
291.662
291.362
291.062
290.762
290.461
290.161
289.86
289.558
289.256
288.952
288.648
317.732
317.411
317.086
316.757
316.426
316.092
315.754
315.415
315.073
314.729
314.384
314.036
313.688
313.338
312.987
312.636
312.284
311.932
311.581
311.23
310.879
310.529
310.179
309.83
309.481
309.132
308.784
308.437
308.09
307.743
307.397
307.052
306.709
306.366
306.024
305.684
305.344
305.006
304.669
304.332
303.997
303.662
303.328
302.995
302.663
302.332
302.001
301.672
301.345
301.018
300.693
300.369
300.046
299.724
299.403
299.083
298.763
298.445
298.127
297.81
297.494
297.179
296.865
296.552
296.24
295.929
295.62
295.311
295.003
294.696
294.39
294.084
293.779
293.475
293.171
292.868
292.565
292.263
291.962
291.661
291.361
291.061
290.762
290.462
290.162
289.862
289.561
289.258
288.955
288.65
317.749
317.426
317.1
316.771
316.438
316.103
315.765
315.425
315.082
314.737
314.391
314.042
313.692
313.341
312.99
312.637
312.285
311.932
311.58
311.228
310.877
310.527
310.177
309.828
309.479
309.13
308.782
308.434
308.087
307.74
307.394
307.048
306.704
306.361
306.019
305.679
305.34
305.002
304.665
304.329
303.993
303.659
303.324
302.991
302.659
302.327
301.997
301.667
301.339
301.013
300.688
300.364
300.041
299.72
299.399
299.079
298.76
298.441
298.123
297.806
297.489
297.174
296.86
296.547
296.236
295.925
295.616
295.307
295
294.693
294.387
294.082
293.777
293.472
293.168
292.865
292.562
292.26
291.959
291.659
291.36
291.061
290.762
290.464
290.165
289.865
289.565
289.263
288.959
288.655
317.771
317.447
317.12
316.789
316.455
316.118
315.779
315.438
315.094
314.748
314.4
314.05
313.699
313.346
312.993
312.639
312.285
311.931
311.578
311.226
310.875
310.524
310.175
309.825
309.477
309.128
308.779
308.431
308.083
307.735
307.389
307.043
306.698
306.355
306.013
305.673
305.334
304.996
304.66
304.324
303.989
303.654
303.32
302.986
302.653
302.321
301.99
301.66
301.332
301.006
300.681
300.358
300.035
299.714
299.394
299.074
298.755
298.436
298.118
297.8
297.484
297.168
296.854
296.541
296.229
295.919
295.61
295.302
294.996
294.689
294.384
294.078
293.773
293.469
293.164
292.861
292.558
292.256
291.956
291.656
291.358
291.06
290.763
290.466
290.168
289.87
289.57
289.269
288.966
288.661
317.799
317.474
317.145
316.812
316.476
316.137
315.797
315.454
315.108
314.761
314.412
314.061
313.707
313.353
312.997
312.641
312.285
311.93
311.575
311.222
310.871
310.521
310.171
309.822
309.474
309.125
308.777
308.428
308.079
307.73
307.382
307.035
306.69
306.346
306.004
305.664
305.326
304.989
304.653
304.318
303.983
303.649
303.314
302.98
302.646
302.313
301.981
301.651
301.323
300.997
300.672
300.349
300.028
299.708
299.388
299.069
298.75
298.431
298.112
297.794
297.477
297.16
296.845
296.532
296.221
295.911
295.603
295.296
294.99
294.685
294.38
294.075
293.769
293.465
293.16
292.856
292.553
292.251
291.951
291.652
291.354
291.058
290.763
290.468
290.173
289.876
289.578
289.278
288.975
288.67
317.834
317.506
317.174
316.839
316.5
316.16
315.817
315.473
315.126
314.778
314.427
314.073
313.718
313.36
313.002
312.643
312.284
311.926
311.571
311.217
310.865
310.515
310.167
309.819
309.471
309.123
308.774
308.424
308.074
307.724
307.374
307.026
306.679
306.335
305.993
305.653
305.316
304.98
304.646
304.312
303.978
303.643
303.308
302.973
302.638
302.303
301.97
301.639
301.311
300.984
300.661
300.339
300.019
299.7
299.382
299.063
298.744
298.425
298.106
297.786
297.468
297.15
296.835
296.521
296.21
295.901
295.594
295.289
294.984
294.68
294.376
294.071
293.766
293.46
293.154
292.849
292.545
292.243
291.943
291.645
291.349
291.056
290.763
290.471
290.178
289.885
289.589
289.291
288.989
288.683
317.877
317.545
317.209
316.869
316.528
316.185
315.84
315.495
315.147
314.798
314.445
314.09
313.731
313.37
313.007
312.644
312.281
311.921
311.563
311.208
310.857
310.508
310.161
309.815
309.469
309.122
308.773
308.422
308.07
307.717
307.364
307.013
306.665
306.319
305.978
305.639
305.304
304.97
304.638
304.305
303.972
303.638
303.303
302.966
302.629
302.292
301.957
301.624
301.295
300.969
300.646
300.326
300.009
299.692
299.375
299.058
298.74
298.42
298.099
297.778
297.457
297.138
296.821
296.507
296.196
295.888
295.583
295.28
294.977
294.675
294.372
294.068
293.762
293.455
293.148
292.841
292.536
292.233
291.932
291.636
291.342
291.051
290.762
290.474
290.186
289.897
289.604
289.308
289.007
288.701
317.927
317.59
317.248
316.903
316.557
316.211
315.866
315.519
315.172
314.822
314.468
314.11
313.748
313.382
313.013
312.643
312.275
311.911
311.551
311.196
310.845
310.499
310.155
309.812
309.468
309.122
308.774
308.421
308.066
307.709
307.353
306.998
306.646
306.299
305.958
305.621
305.288
304.958
304.63
304.3
303.969
303.635
303.299
302.959
302.619
302.278
301.94
301.604
301.274
300.948
300.628
300.311
299.996
299.683
299.37
299.054
298.737
298.416
298.093
297.769
297.444
297.122
296.803
296.488
296.177
295.872
295.569
295.27
294.971
294.671
294.37
294.067
293.76
293.451
293.141
292.831
292.523
292.218
291.917
291.621
291.33
291.043
290.76
290.478
290.196
289.912
289.625
289.333
289.033
288.726
317.986
317.641
317.291
316.939
316.587
316.238
315.891
315.546
315.2
314.851
314.497
314.137
313.77
313.397
313.02
312.641
312.265
311.894
311.531
311.176
310.828
310.486
310.147
309.81
309.471
309.128
308.779
308.425
308.065
307.702
307.338
306.977
306.621
306.272
305.931
305.597
305.269
304.945
304.622
304.298
303.97
303.637
303.298
302.955
302.609
302.262
301.917
301.578
301.246
300.921
300.604
300.291
299.983
299.675
299.367
299.054
298.738
298.416
298.089
297.759
297.429
297.101
296.778
296.462
296.153
295.85
295.552
295.258
294.965
294.67
294.372
294.069
293.762
293.449
293.134
292.818
292.505
292.197
291.895
291.6
291.313
291.031
290.755
290.481
290.208
289.933
289.654
289.367
289.07
288.761
318.057
317.701
317.338
316.973
316.614
316.261
315.915
315.573
315.232
314.888
314.536
314.174
313.801
313.418
313.028
312.635
312.247
311.867
311.5
311.145
310.802
310.467
310.138
309.81
309.479
309.141
308.794
308.436
308.069
307.696
307.32
306.948
306.585
306.233
305.893
305.565
305.245
304.93
304.617
304.3
303.977
303.646
303.305
302.955
302.599
302.241
301.887
301.542
301.207
300.884
300.571
300.267
299.968
299.669
299.368
299.061
298.746
298.422
298.089
297.751
297.41
297.073
296.744
296.426
296.118
295.82
295.53
295.245
294.961
294.673
294.38
294.079
293.77
293.452
293.128
292.802
292.48
292.166
291.862
291.569
291.286
291.013
290.746
290.484
290.223
289.961
289.693
289.416
289.124
288.813
318.145
317.771
317.385
317.002
316.63
316.274
315.932
315.6
315.27
314.934
314.588
314.226
313.847
313.45
313.04
312.624
312.216
311.823
311.451
311.098
310.763
310.441
310.127
309.815
309.497
309.167
308.823
308.462
308.083
307.692
307.295
306.906
306.532
306.177
305.84
305.52
305.213
304.913
304.615
304.311
303.997
303.669
303.325
302.965
302.593
302.215
301.845
301.49
301.152
300.832
300.527
300.235
299.951
299.667
299.379
299.08
298.768
298.441
298.098
297.745
297.386
297.034
296.696
296.375
296.07
295.78
295.502
295.231
294.961
294.685
294.4
294.102
293.79
293.463
293.124
292.781
292.444
292.12
291.813
291.522
291.246
290.984
290.731
290.485
290.24
289.996
289.747
289.486
289.203
288.891
318.259
317.86
317.429
317.014
316.623
316.267
315.934
315.623
315.316
314.997
314.663
314.303
313.919
313.502
313.061
312.6
312.162
311.75
311.374
311.025
310.704
310.402
310.115
309.829
309.53
309.215
308.875
308.511
308.116
307.697
307.26
306.844
306.453
306.095
305.762
305.457
305.169
304.895
304.622
304.338
304.038
303.714
303.368
302.991
302.593
302.178
301.783
301.411
301.072
300.756
300.466
300.193
299.932
299.673
299.403
299.118
298.811
298.481
298.124
297.746
297.352
296.976
296.623
296.299
295.999
295.723
295.463
295.215
294.968
294.711
294.439
294.146
293.831
293.49
293.128
292.75
292.39
292.051
291.741
291.453
291.188
290.941
290.708
290.482
290.256
290.038
289.82
289.588
289.324
289.011
318.422
317.995
317.45
316.99
316.569
316.224
315.908
315.639
315.377
315.082
314.775
314.416
314.038
313.588
313.109
312.545
312.069
311.627
311.258
310.912
310.619
310.342
310.101
309.861
309.587
309.3
308.963
308.607
308.182
307.728
307.195
306.745
306.325
305.975
305.647
305.368
305.105
304.875
304.647
304.386
304.112
303.792
303.453
303.049
302.619
302.113
301.686
301.288
300.956
300.645
300.38
300.131
299.913
299.696
299.448
299.189
298.884
298.563
298.179
297.771
297.291
296.884
296.506
296.191
295.895
295.643
295.405
295.198
294.991
294.756
294.509
294.219
293.912
293.546
293.155
292.694
292.304
291.94
291.636
291.35
291.106
290.876
290.676
290.479
290.261
290.078
289.912
289.735
289.517
289.214
318.679
318.298
317.347
316.912
316.403
316.14
315.812
315.647
315.488
315.185
314.96
314.556
314.26
313.716
313.278
312.365
311.929
311.396
311.108
310.723
310.51
310.23
310.085
309.941
309.664
309.455
309.079
308.801
308.288
307.874
307.012
306.601
306.097
305.824
305.46
305.258
304.992
304.854
304.717
304.453
304.255
303.897
303.632
303.145
302.753
301.936
301.546
301.069
300.811
300.466
300.274
300.022
299.892
299.761
299.511
299.323
298.984
298.733
298.271
297.899
297.123
296.753
296.3
296.054
295.726
295.544
295.304
295.18
295.056
294.819
294.639
294.317
294.078
293.638
293.282
292.537
292.181
291.743
291.505
291.184
291.006
290.766
290.64
290.505
290.216
290.096
290.019
289.943
289.831
289.603
288.311
287.943
287.574
287.205
286.836
286.467
286.098
285.731
285.364
284.998
284.633
284.269
283.906
283.543
283.181
288.312
287.944
287.575
287.206
286.836
286.467
286.098
285.73
285.363
284.997
284.632
284.268
283.905
283.543
283.181
288.314
287.946
287.576
287.206
286.836
286.466
286.096
285.728
285.36
284.994
284.63
284.266
283.904
283.542
283.181
288.318
287.949
287.578
287.207
286.835
286.464
286.094
285.725
285.357
284.991
284.627
284.264
283.902
283.541
283.18
288.324
287.953
287.581
287.207
286.834
286.461
286.09
285.72
285.352
284.986
284.622
284.26
283.899
283.539
283.18
288.331
287.959
287.584
287.208
286.833
286.458
286.085
285.714
285.345
284.979
284.616
284.254
283.895
283.536
283.179
288.343
287.967
287.589
287.209
286.83
286.452
286.077
285.705
285.336
284.97
284.607
284.247
283.889
283.533
283.178
288.358
287.978
287.595
287.21
286.826
286.444
286.066
285.692
285.323
284.958
284.596
284.238
283.883
283.529
283.176
288.38
287.993
287.602
287.21
286.819
286.432
286.051
285.676
285.306
284.942
284.582
284.227
283.874
283.523
283.174
288.41
288.014
287.611
287.208
286.808
286.415
286.03
285.653
285.284
284.921
284.564
284.212
283.863
283.517
283.172
288.453
288.04
287.62
287.202
286.791
286.391
286.002
285.624
285.255
284.895
284.541
284.193
283.85
283.509
283.169
288.514
288.074
287.627
287.188
286.763
286.355
285.962
285.584
285.218
284.862
284.513
284.171
283.833
283.499
283.166
288.604
288.116
287.628
287.159
286.718
286.302
285.909
285.533
285.171
284.821
284.479
284.144
283.814
283.487
283.162
288.738
288.159
287.607
287.104
286.648
286.229
285.837
285.467
285.113
284.771
284.438
284.112
283.791
283.473
283.158
288.933
288.174
287.537
287.003
286.541
286.126
285.744
285.385
285.042
284.712
284.39
284.075
283.765
283.458
283.152
322.886
322.658
322.43
322.2
321.97
321.737
321.503
321.265
321.024
320.776
320.521
320.251
319.957
319.615
319.17
322.891
322.672
322.454
322.235
322.015
321.794
321.572
321.348
321.123
320.895
320.662
320.423
320.169
319.874
319.43
322.896
322.687
322.478
322.269
322.06
321.851
321.642
321.433
321.224
321.016
320.809
320.605
320.408
320.235
320.173
322.901
322.702
322.503
322.304
322.106
321.909
321.712
321.517
321.325
321.136
320.953
320.782
320.631
320.519
320.476
322.905
322.716
322.527
322.339
322.152
321.966
321.781
321.6
321.423
321.252
321.09
320.945
320.826
320.754
320.774
322.91
322.73
322.551
322.373
322.196
322.021
321.849
321.68
321.516
321.361
321.216
321.089
320.988
320.926
320.911
322.915
322.744
322.575
322.406
322.239
322.075
321.913
321.756
321.605
321.462
321.33
321.215
321.123
321.064
321.057
322.919
322.758
322.597
322.438
322.281
322.126
321.975
321.828
321.687
321.555
321.433
321.325
321.235
321.167
321.123
322.924
322.771
322.619
322.469
322.321
322.175
322.033
321.896
321.764
321.641
321.526
321.423
321.333
321.254
321.176
322.928
322.783
322.64
322.498
322.358
322.221
322.088
321.959
321.836
321.72
321.612
321.512
321.422
321.339
321.266
322.932
322.795
322.66
322.526
322.394
322.265
322.14
322.019
321.903
321.794
321.691
321.595
321.505
321.419
321.326
322.935
322.807
322.679
322.552
322.428
322.307
322.189
322.075
321.966
321.863
321.765
321.674
321.586
321.502
321.423
322.939
322.817
322.697
322.577
322.46
322.346
322.234
322.127
322.025
321.928
321.836
321.749
321.665
321.582
321.487
322.942
322.827
322.713
322.601
322.49
322.382
322.277
322.177
322.081
321.989
321.903
321.822
321.745
321.669
321.595
322.946
322.837
322.729
322.623
322.518
322.416
322.318
322.223
322.133
322.047
321.967
321.892
321.823
321.755
321.674
322.948
322.846
322.744
322.643
322.544
322.448
322.355
322.266
322.181
322.101
322.027
321.959
321.899
321.851
321.83
322.951
322.854
322.757
322.662
322.569
322.478
322.39
322.306
322.226
322.152
322.083
322.021
321.968
321.927
321.9
322.954
322.862
322.77
322.68
322.592
322.506
322.423
322.343
322.268
322.198
322.133
322.076
322.028
321.993
321.979
322.956
322.869
322.782
322.697
322.613
322.532
322.453
322.378
322.306
322.24
322.179
322.125
322.079
322.044
322.019
322.958
322.875
322.793
322.712
322.633
322.555
322.481
322.409
322.341
322.278
322.22
322.168
322.124
322.089
322.068
322.96
322.882
322.804
322.726
322.651
322.577
322.506
322.438
322.373
322.312
322.256
322.205
322.161
322.124
322.094
322.962
322.887
322.813
322.74
322.668
322.598
322.53
322.464
322.402
322.343
322.289
322.238
322.193
322.154
322.124
322.964
322.893
322.822
322.752
322.683
322.616
322.551
322.489
322.429
322.372
322.318
322.268
322.221
322.179
322.139
322.966
322.898
322.83
322.763
322.698
322.634
322.571
322.511
322.453
322.398
322.345
322.295
322.247
322.201
322.153
322.967
322.902
322.838
322.774
322.711
322.65
322.59
322.532
322.476
322.422
322.37
322.32
322.272
322.224
322.177
322.969
322.907
322.845
322.784
322.724
322.665
322.607
322.551
322.497
322.445
322.394
322.344
322.296
322.246
322.194
322.97
322.911
322.851
322.793
322.735
322.679
322.623
322.57
322.517
322.466
322.417
322.368
322.32
322.271
322.223
322.971
322.914
322.858
322.802
322.746
322.692
322.639
322.587
322.536
322.487
322.439
322.392
322.345
322.296
322.243
322.973
322.918
322.863
322.81
322.756
322.704
322.653
322.603
322.554
322.507
322.461
322.415
322.37
322.325
322.278
322.974
322.921
322.869
322.817
322.766
322.716
322.666
322.618
322.571
322.526
322.482
322.438
322.396
322.354
322.305
322.975
322.924
322.874
322.824
322.775
322.727
322.679
322.633
322.588
322.544
322.502
322.461
322.422
322.387
322.36
322.976
322.927
322.879
322.831
322.783
322.737
322.691
322.646
322.603
322.561
322.521
322.482
322.446
322.414
322.385
322.977
322.93
322.883
322.837
322.791
322.746
322.702
322.659
322.617
322.577
322.538
322.502
322.468
322.438
322.415
322.977
322.932
322.887
322.843
322.799
322.755
322.713
322.671
322.631
322.592
322.554
322.519
322.486
322.457
322.43
322.978
322.935
322.891
322.848
322.806
322.764
322.723
322.682
322.643
322.606
322.569
322.535
322.503
322.474
322.45
322.979
322.937
322.895
322.853
322.812
322.772
322.732
322.693
322.655
322.618
322.583
322.549
322.517
322.488
322.461
322.98
322.939
322.898
322.858
322.818
322.779
322.74
322.703
322.666
322.63
322.595
322.562
322.53
322.5
322.474
322.98
322.941
322.902
322.863
322.824
322.786
322.748
322.712
322.676
322.641
322.606
322.573
322.541
322.51
322.48
322.981
322.943
322.905
322.867
322.829
322.792
322.756
322.72
322.685
322.651
322.617
322.584
322.552
322.519
322.486
322.981
322.944
322.907
322.871
322.834
322.799
322.763
322.728
322.694
322.66
322.627
322.594
322.562
322.529
322.497
322.982
322.946
322.91
322.875
322.839
322.804
322.77
322.736
322.702
322.669
322.637
322.605
322.572
322.54
322.505
322.982
322.948
322.913
322.878
322.844
322.81
322.776
322.743
322.711
322.678
322.647
322.615
322.583
322.551
322.519
322.983
322.949
322.915
322.881
322.848
322.815
322.782
322.75
322.718
322.687
322.656
322.625
322.595
322.563
322.528
322.983
322.95
322.917
322.884
322.852
322.82
322.788
322.757
322.726
322.696
322.666
322.636
322.606
322.576
322.546
322.984
322.952
322.919
322.887
322.856
322.824
322.793
322.763
322.733
322.704
322.675
322.646
322.618
322.59
322.559
322.984
322.953
322.921
322.89
322.859
322.829
322.798
322.769
322.74
322.711
322.684
322.657
322.631
322.606
322.586
322.985
322.954
322.923
322.893
322.862
322.833
322.803
322.774
322.746
322.719
322.692
322.666
322.642
322.619
322.598
322.985
322.955
322.925
322.895
322.865
322.836
322.808
322.78
322.752
322.725
322.7
322.675
322.652
322.631
322.613
322.985
322.956
322.926
322.897
322.868
322.84
322.812
322.784
322.757
322.731
322.707
322.683
322.66
322.64
322.621
322.985
322.956
322.928
322.899
322.87
322.843
322.815
322.788
322.762
322.737
322.713
322.689
322.668
322.648
322.63
322.986
322.957
322.929
322.9
322.873
322.845
322.818
322.792
322.766
322.742
322.718
322.695
322.674
322.654
322.635
322.986
322.958
322.93
322.902
322.874
322.847
322.821
322.795
322.77
322.746
322.722
322.7
322.679
322.659
322.641
322.986
322.958
322.931
322.903
322.876
322.849
322.823
322.798
322.773
322.749
322.726
322.704
322.683
322.663
322.644
322.986
322.959
322.931
322.904
322.877
322.851
322.825
322.8
322.776
322.752
322.729
322.707
322.686
322.666
322.646
322.986
322.959
322.932
322.905
322.878
322.852
322.827
322.802
322.778
322.754
322.732
322.71
322.689
322.669
322.65
322.986
322.959
322.932
322.905
322.879
322.853
322.827
322.803
322.779
322.756
322.734
322.712
322.692
322.672
322.652
322.986
322.959
322.932
322.905
322.879
322.853
322.828
322.803
322.78
322.757
322.735
322.714
322.694
322.674
322.656
322.986
322.959
322.932
322.905
322.879
322.853
322.828
322.803
322.78
322.757
322.735
322.715
322.695
322.676
322.658
322.986
322.959
322.932
322.905
322.878
322.853
322.827
322.803
322.779
322.757
322.735
322.715
322.696
322.678
322.661
322.986
322.959
322.931
322.904
322.877
322.851
322.826
322.802
322.778
322.756
322.735
322.714
322.695
322.678
322.661
322.986
322.958
322.93
322.903
322.876
322.85
322.825
322.8
322.777
322.754
322.733
322.713
322.694
322.677
322.661
322.986
322.957
322.929
322.902
322.874
322.848
322.822
322.798
322.774
322.752
322.731
322.711
322.692
322.675
322.66
322.986
322.957
322.928
322.9
322.872
322.845
322.819
322.794
322.771
322.748
322.727
322.708
322.689
322.673
322.657
322.985
322.956
322.926
322.897
322.869
322.842
322.816
322.79
322.766
322.744
322.723
322.703
322.685
322.669
322.654
322.985
322.954
322.924
322.895
322.866
322.838
322.811
322.785
322.761
322.738
322.717
322.698
322.68
322.664
322.649
322.984
322.953
322.922
322.892
322.862
322.833
322.806
322.779
322.755
322.732
322.711
322.692
322.674
322.659
322.645
322.984
322.951
322.919
322.888
322.857
322.828
322.799
322.772
322.747
322.724
322.703
322.684
322.667
322.652
322.638
322.983
322.95
322.916
322.884
322.852
322.821
322.792
322.764
322.738
322.715
322.693
322.674
322.658
322.645
322.634
322.982
322.947
322.913
322.879
322.846
322.814
322.784
322.755
322.728
322.704
322.682
322.663
322.648
322.636
322.629
322.982
322.945
322.909
322.873
322.839
322.806
322.774
322.744
322.716
322.691
322.669
322.65
322.634
322.624
322.617
322.981
322.942
322.904
322.867
322.831
322.796
322.763
322.732
322.703
322.676
322.653
322.633
322.618
322.608
322.606
322.98
322.939
322.9
322.86
322.822
322.786
322.751
322.718
322.687
322.659
322.635
322.614
322.598
322.588
322.584
322.979
322.936
322.894
322.853
322.813
322.774
322.737
322.702
322.67
322.64
322.614
322.591
322.574
322.564
322.565
322.977
322.933
322.888
322.845
322.802
322.761
322.722
322.685
322.65
322.618
322.59
322.565
322.545
322.532
322.527
322.976
322.929
322.882
322.835
322.79
322.747
322.705
322.666
322.629
322.594
322.563
322.536
322.512
322.495
322.492
322.975
322.924
322.874
322.825
322.778
322.732
322.687
322.645
322.605
322.568
322.534
322.503
322.474
322.447
322.414
322.973
322.92
322.867
322.815
322.764
322.715
322.668
322.623
322.58
322.541
322.503
322.469
322.436
322.404
322.373
322.971
322.915
322.858
322.803
322.749
322.697
322.646
322.599
322.553
322.511
322.471
322.433
322.396
322.36
322.317
322.97
322.909
322.849
322.79
322.733
322.677
322.624
322.573
322.525
322.479
322.436
322.396
322.357
322.32
322.284
322.968
322.903
322.839
322.777
322.715
322.656
322.599
322.545
322.494
322.446
322.401
322.358
322.318
322.278
322.233
322.966
322.897
322.829
322.762
322.697
322.633
322.573
322.515
322.461
322.41
322.363
322.319
322.278
322.239
322.203
322.963
322.89
322.817
322.746
322.676
322.609
322.544
322.483
322.425
322.372
322.323
322.278
322.237
322.198
322.157
322.961
322.883
322.805
322.729
322.655
322.583
322.514
322.448
322.387
322.331
322.28
322.234
322.194
322.159
322.131
322.958
322.875
322.792
322.711
322.631
322.554
322.48
322.411
322.345
322.286
322.233
322.186
322.147
322.116
322.099
322.955
322.866
322.778
322.691
322.606
322.524
322.445
322.37
322.3
322.237
322.181
322.134
322.095
322.062
322.023
322.952
322.857
322.763
322.67
322.579
322.491
322.406
322.325
322.25
322.182
322.123
322.075
322.039
322.013
321.991
322.949
322.848
322.747
322.648
322.55
322.455
322.364
322.276
322.195
322.122
322.058
322.009
321.975
321.962
321.967
322.946
322.838
322.731
322.625
322.52
322.418
322.319
322.224
322.135
322.054
321.984
321.93
321.898
321.898
321.937
322.942
322.828
322.713
322.6
322.488
322.378
322.271
322.167
322.069
321.979
321.899
321.836
321.799
321.806
321.885
322.939
322.817
322.695
322.574
322.454
322.336
322.22
322.107
321.998
321.895
321.802
321.724
321.67
321.664
321.765
289.138
288.076
287.377
286.845
286.399
286.003
285.639
285.295
284.967
284.649
284.34
284.037
283.738
283.441
283.147
288.763
287.735
287.115
286.641
286.236
285.869
285.528
285.203
284.89
284.587
284.291
283.999
283.711
283.426
283.142
287.284
287.109
286.753
286.39
286.046
285.718
285.405
285.102
284.808
284.52
284.237
283.959
283.683
283.409
283.136
286.702
286.61
286.395
286.127
285.843
285.557
285.274
284.995
284.72
284.45
284.182
283.917
283.653
283.391
283.13
286.152
286.196
286.073
285.875
285.642
285.395
285.141
284.886
284.631
284.377
284.124
283.873
283.623
283.373
283.124
285.903
285.897
285.804
285.647
285.452
285.236
285.009
284.776
284.54
284.303
284.066
283.829
283.592
283.355
283.118
285.645
285.657
285.579
285.445
285.276
285.085
284.88
284.668
284.45
284.23
284.007
283.784
283.56
283.336
283.112
285.529
285.482
285.393
285.268
285.115
284.943
284.758
284.563
284.362
284.157
283.95
283.74
283.529
283.318
283.106
285.436
285.335
285.232
285.11
284.969
284.811
284.642
284.463
284.278
284.087
283.893
283.697
283.499
283.3
283.1
285.277
285.189
285.083
284.965
284.833
284.688
284.532
284.367
284.196
284.019
283.839
283.655
283.469
283.282
283.094
285.174
285.054
284.944
284.83
284.706
284.572
284.428
284.277
284.118
283.954
283.786
283.614
283.44
283.265
283.088
285.005
284.912
284.809
284.701
284.586
284.462
284.33
284.191
284.044
283.892
283.736
283.575
283.413
283.248
283.083
284.895
284.777
284.677
284.577
284.472
284.359
284.238
284.109
283.974
283.833
283.688
283.538
283.386
283.233
283.078
284.708
284.629
284.545
284.457
284.363
284.261
284.15
284.032
283.908
283.777
283.642
283.503
283.361
283.218
283.073
284.574
284.484
284.415
284.342
284.26
284.168
284.068
283.96
283.845
283.725
283.599
283.47
283.338
283.203
283.068
284.312
284.324
284.289
284.233
284.163
284.082
283.992
283.893
283.787
283.676
283.559
283.439
283.316
283.19
283.064
284.195
284.199
284.177
284.133
284.074
284.002
283.921
283.83
283.733
283.63
283.522
283.41
283.295
283.178
283.059
284.066
284.091
284.079
284.044
283.993
283.93
283.856
283.773
283.683
283.588
283.487
283.383
283.275
283.166
283.055
284.002
284.009
283.997
283.967
283.922
283.864
283.796
283.72
283.637
283.549
283.455
283.358
283.258
283.155
283.052
283.927
283.939
283.928
283.9
283.859
283.806
283.743
283.673
283.596
283.513
283.426
283.335
283.241
283.145
283.049
283.888
283.886
283.871
283.843
283.804
283.754
283.695
283.63
283.558
283.48
283.399
283.314
283.226
283.136
283.046
283.844
283.841
283.823
283.794
283.755
283.708
283.653
283.591
283.523
283.451
283.374
283.294
283.212
283.128
283.043
283.823
283.807
283.783
283.752
283.713
283.667
283.615
283.556
283.492
283.424
283.352
283.277
283.199
283.12
283.04
283.806
283.777
283.749
283.715
283.676
283.631
283.581
283.525
283.464
283.4
283.332
283.261
283.188
283.113
283.038
283.776
283.748
283.717
283.682
283.643
283.599
283.55
283.497
283.439
283.378
283.314
283.247
283.178
283.107
283.036
283.756
283.722
283.688
283.653
283.613
283.57
283.523
283.472
283.417
283.359
283.297
283.234
283.168
283.102
283.034
283.725
283.694
283.661
283.625
283.586
283.544
283.499
283.449
283.397
283.341
283.283
283.222
283.16
283.097
283.032
283.705
283.669
283.635
283.6
283.562
283.521
283.477
283.429
283.379
283.325
283.27
283.212
283.152
283.092
283.031
283.672
283.642
283.61
283.576
283.54
283.5
283.457
283.411
283.363
283.311
283.258
283.203
283.146
283.088
283.029
283.65
283.617
283.587
283.555
283.519
283.481
283.439
283.395
283.348
283.299
283.248
283.194
283.14
283.084
283.028
283.608
283.591
283.565
283.535
283.501
283.464
283.424
283.381
283.336
283.288
283.238
283.187
283.135
283.081
283.027
283.589
283.571
283.547
283.518
283.485
283.449
283.41
283.368
283.324
283.278
283.23
283.181
283.13
283.078
283.026
283.572
283.555
283.531
283.503
283.471
283.436
283.398
283.358
283.315
283.27
283.223
283.175
283.126
283.076
283.025
283.563
283.543
283.519
283.491
283.46
283.426
283.388
283.349
283.307
283.263
283.217
283.17
283.123
283.074
283.025
283.555
283.534
283.51
283.482
283.451
283.417
283.38
283.341
283.3
283.257
283.212
283.166
283.12
283.072
283.024
283.551
283.529
283.503
283.475
283.444
283.41
283.373
283.335
283.294
283.252
283.208
283.163
283.117
283.071
283.024
283.548
283.525
283.498
283.47