/*--------------------------------*- C++ -*----------------------------------*\
| =========                 |                                                 |
| \\      /  F ield         | OpenFOAM: The Open Source CFD Toolbox           |
|  \\    /   O peration     | Version:  5.x                                   |
|   \\  /    A nd           | Web:      www.OpenFOAM.org                      |
|    \\/     M anipulation  |                                                 |
\*---------------------------------------------------------------------------*/
FoamFile
{
    version     2.0;
    format      ascii;
    class       volScalarField;
    location    "2.4";
    object      gradTy;
}
// * * * * * * * * * * * * * * * * * * * * * * * * * * * * * * * * * * * * * //

dimensions      [0 -1 0 1 0 0 0];

internalField   nonuniform List<scalar> 
6300
(
32285.2
32255.6
32225.8
32195.9
32165.7
32135.3
32104.5
32073.2
32041.5
32009.3
31976.6
31943.2
31909.3
31874.8
31839.8
0.0516936
0.154601
0.256044
0.354946
0.450077
0.540019
0.623147
0.697647
0.761577
0.812988
0.850099
0.871539
0.876612
0.865563
0.839761
0.0866734
0.259262
0.42952
0.59571
0.755827
0.907523
1.04807
1.17438
1.28307
1.37071
1.43407
1.47055
1.47871
1.45877
1.41297
0.122414
0.36626
0.607076
0.842563
1.07002
1.2862
1.48726
1.66874
1.82566
1.95276
2.04495
2.09793
2.10898
2.07787
2.00766
0.159136
0.476289
0.789963
1.09745
1.39548
1.67999
1.94604
2.18768
2.39807
2.56972
2.69506
2.76724
2.7814
2.73608
2.63473
0.196979
0.589796
0.979038
1.36181
1.73445
2.09226
2.42923
2.73787
3.00922
3.23301
3.39832
3.49459
3.51331
3.45031
3.30841
0.235963
0.706881
1.17458
1.63629
2.08827
2.52538
2.94075
3.32537
3.66792
3.95479
4.17063
4.29949
4.32696
4.24347
4.04871
0.275956
0.827181
1.37613
1.92052
2.45694
2.98025
3.48302
3.95495
4.3823
4.74762
5.02993
5.20577
5.25159
5.14789
4.88602
0.316636
0.949765
1.58222
2.21273
2.83873
3.45565
4.05614
4.62912
5.15873
5.62347
5.9957
6.2421
6.32573
6.21047
5.8693
0.357462
1.07302
1.79026
2.50946
3.2296
3.94749
4.6568
5.34666
6.00004
6.59185
7.08731
7.44118
7.59872
7.4989
7.08044
0.397653
1.19461
1.99633
2.80527
3.62272
4.44792
5.2769
6.1007
6.90293
7.65657
8.32049
8.83656
9.12899
9.10589
8.6562
0.436194
1.31144
2.19517
3.09258
4.00809
4.94458
5.9022
6.87634
7.85441
8.81102
9.70149
10.4555
10.9747
11.1394
10.8065
0.471872
1.41981
2.38032
3.3618
4.3725
5.42013
6.51098
7.64805
8.82738
10.0316
11.2189
12.3092
13.175
13.6711
13.745
0.503361
1.51559
2.54452
3.60182
4.69998
5.85247
7.07358
8.37749
9.7755
11.2689
12.8334
14.3873
15.7456
16.6262
17.1354
0.529344
1.59469
2.68033
3.80097
4.97315
6.21621
7.55338
9.01287
10.6282
12.4352
14.4582
16.6613
18.7946
19.9561
17.6344
31807.1
31777
31746.6
31715.8
31684.8
31653.4
31621.7
31589.8
31557.7
31525.3
31492.8
31460
31427.2
31394.1
31361
31327.7
31294.4
31261.1
31227.6
31194.2
31160.8
31127.3
31093.8
31060.3
31026.8
30993.3
30959.8
30926.3
30892.7
30859.2
30825.7
30792.2
30758.7
30725.3
30691.9
30658.5
30625.2
30591.8
30558.5
30525.3
30492
30458.8
30425.5
30392.3
30359.1
30325.9
30292.8
30259.7
30226.6
30193.6
30160.6
30127.7
30094.8
30061.9
30029
29996.2
29963.4
29930.6
29897.9
29865.2
29832.5
29799.8
29767.2
29734.6
29702.1
29669.7
29637.3
29604.9
29572.6
29540.4
29508.1
29475.9
29443.8
29411.6
29379.6
29347.5
29315.5
29283.5
29251.6
29219.7
29187.9
29156
29124.2
29092.3
29060.4
29028.5
28996.4
28964.3
28932.1
28899.7
0.804872
0.766798
0.72454
0.680214
0.63559
0.591859
0.549509
0.508343
0.467648
0.42646
0.383898
0.339464
0.29327
0.246127
0.199488
0.155241
0.115396
0.0817237
0.0554366
0.0369498
0.0257877
0.0206397
0.0195544
0.0202386
0.0204122
0.018161
0.0122319
0.00222065
-0.0113801
-0.0272865
-0.0436679
-0.0584891
-0.0698878
-0.0765166
-0.0777865
-0.0739729
-0.0661688
-0.0561002
-0.0458364
-0.0374445
-0.0326445
-0.0325193
-0.0373307
-0.0464721
-0.0585717
-0.0717327
-0.0838694
-0.0930786
-0.0979749
-0.0979305
-0.0931775
-0.0847611
-0.0743561
-0.0639799
-0.055651
-0.0510469
-0.0512182
-0.0564057
-0.0659931
-0.0786083
-0.09236
-0.105169
-0.115131
-0.120852
-0.121675
-0.117784
-0.110155
-0.100367
-0.0903153
-0.0818709
-0.0765343
-0.0751472
-0.0777044
-0.0833025
-0.0902363
-0.0962347
-0.0987986
-0.0955855
-0.0847775
-0.0653754
-0.037384
-0.00187049
0.0390998
0.082638
0.125298
0.163414
0.193482
0.212556
0.218606
0.210778
1.35135
1.28441
1.2106
1.1339
1.05761
0.983928
0.913631
0.846134
0.779809
0.712539
0.642368
0.568113
0.489811
0.408914
0.32817
0.251222
0.181983
0.123929
0.079445
0.0493766
0.032843
0.0273508
0.0291726
0.0339233
0.0372419
0.0354696
0.0262192
0.00874187
-0.0159739
-0.0454003
-0.0759429
-0.10361
-0.124757
-0.136748
-0.138436
-0.130353
-0.114613
-0.0945527
-0.0741702
-0.0574591
-0.0477447
-0.0471257
-0.0561127
-0.0735302
-0.096711
-0.12196
-0.145212
-0.162761
-0.17192
-0.171479
-0.161897
-0.14521
-0.124663
-0.104162
-0.0876138
-0.0782686
-0.0781682
-0.0877878
-0.105939
-0.129961
-0.156176
-0.180537
-0.199351
-0.209917
-0.210988
-0.202948
-0.187716
-0.168381
-0.148648
-0.132181
-0.121941
-0.119627
-0.125314
-0.137341
-0.152492
-0.166445
-0.174424
-0.17194
-0.155496
-0.12313
-0.0747582
-0.0122603
0.0606431
0.138713
0.215668
0.284789
0.339609
0.374649
0.386107
0.372381
1.91362
1.81199
1.70091
1.58704
1.47595
1.3712
1.2738
1.18232
1.09341
1.00288
0.906812
0.802684
0.69019
0.571582
0.451491
0.336209
0.232578
0.146706
0.0828118
0.0424329
0.024121
0.0236551
0.0347011
0.0498011
0.0615359
0.0636827
0.0521917
0.0258272
-0.0136415
-0.0617617
-0.112211
-0.157973
-0.192657
-0.211664
-0.213003
-0.197601
-0.16912
-0.13331
-0.0970566
-0.0672362
-0.0495845
-0.0477355
-0.0625894
-0.0921235
-0.131706
-0.174895
-0.214597
-0.244359
-0.259523
-0.25802
-0.240682
-0.211049
-0.174737
-0.138486
-0.109039
-0.0920132
-0.0909571
-0.106721
-0.137271
-0.177997
-0.2225
-0.263737
-0.295289
-0.312503
-0.313268
-0.298318
-0.271037
-0.236821
-0.202135
-0.173385
-0.155794
-0.152449
-0.163659
-0.186749
-0.216344
-0.245132
-0.264992
-0.26828
-0.249023
-0.203822
-0.132364
-0.037528
0.0748492
0.196491
0.317415
0.426849
0.514305
0.570784
0.589951
0.569104
2.49913
2.35319
2.19525
2.03619
1.88518
1.74787
1.62546
1.51479
1.40937
1.30121
1.18286
1.04931
0.899376
0.73639
0.567888
0.404421
0.257601
0.137835
0.0523178
0.00371292
-0.0102992
0.00338205
0.0343915
0.0705243
0.0996359
0.111534
0.0995808
0.0617813
0.0011476
-0.0747715
-0.155229
-0.228293
-0.283134
-0.312026
-0.311678
-0.28369
-0.234183
-0.172712
-0.110684
-0.0594954
-0.0286738
-0.0242987
-0.0479327
-0.0962531
-0.161514
-0.232859
-0.298305
-0.346986
-0.371132
-0.367372
-0.337182
-0.286515
-0.22473
-0.163022
-0.112585
-0.082771
-0.0795345
-0.104372
-0.153958
-0.220601
-0.293539
-0.360893
-0.411884
-0.438783
-0.438185
-0.411456
-0.36435
-0.305946
-0.247082
-0.198526
-0.169142
-0.164319
-0.184903
-0.226796
-0.281364
-0.33668
-0.379428
-0.397088
-0.379911
-0.322327
-0.223635
-0.0880565
0.0757126
0.255302
0.435708
0.600552
0.733609
0.820644
0.851415
0.82143
3.11727
2.91169
2.6912
2.47377
2.27468
2.10308
1.96024
1.83969
1.72925
1.6142
1.4808
1.3195
1.12736
0.909138
0.677029
0.448656
0.24366
0.0796373
-0.0313369
-0.0848288
-0.0846068
-0.0418527
0.0266945
0.101348
0.162514
0.193718
0.184178
0.130605
0.0379354
-0.0812597
-0.208906
-0.324871
-0.410992
-0.45451
-0.45017
-0.400785
-0.316491
-0.212933
-0.108721
-0.0224449
0.0303009
0.0394517
0.0022526
-0.0760087
-0.182581
-0.299339
-0.406175
-0.484965
-0.522951
-0.514805
-0.463192
-0.378015
-0.274636
-0.171354
-0.0864571
-0.0352818
-0.0277099
-0.0664085
-0.146106
-0.254165
-0.372641
-0.481633
-0.563197
-0.60468
-0.600753
-0.553958
-0.473956
-0.375754
-0.277207
-0.196082
-0.147139
-0.139622
-0.175481
-0.248606
-0.345321
-0.446341
-0.530005
-0.576071
-0.568998
-0.500037
-0.368031
-0.179189
0.0537857
0.312928
0.5764
0.820021
1.01918
1.15152
1.20036
1.15804
3.78126
3.49168
3.18275
2.88498
2.62461
2.41692
2.26292
2.15003
2.05579
1.95361
1.81888
1.63412
1.39289
1.10188
0.780782
0.459222
0.170711
-0.0549596
-0.197776
-0.250729
-0.220173
-0.124241
0.010192
0.151581
0.268523
0.334561
0.33217
0.255711
0.112905
-0.0755953
-0.279421
-0.464441
-0.600217
-0.665932
-0.653546
-0.568173
-0.42656
-0.254118
-0.0809539
0.0628654
0.152029
0.169921
0.111542
-0.0150218
-0.189008
-0.380135
-0.554459
-0.681731
-0.741227
-0.724862
-0.637563
-0.495754
-0.324433
-0.153243
-0.0118011
0.0749655
0.0907133
0.030563
-0.0974456
-0.272759
-0.46543
-0.641899
-0.772256
-0.835995
-0.825081
-0.744308
-0.609795
-0.446088
-0.282269
-0.147322
-0.0655082
-0.0524865
-0.11242
-0.23647
-0.403097
-0.581014
-0.734739
-0.831591
-0.847216
-0.768547
-0.594281
-0.333886
-0.00583403
0.364308
0.745668
1.10351
1.40094
1.60261
1.68056
1.62101
4.51213
4.09954
3.65824
3.24236
2.89872
2.65347
2.50645
2.43352
2.39375
2.33992
2.22901
2.03004
1.73011
1.33793
0.885197
0.422186
0.00725989
-0.308877
-0.493633
-0.536898
-0.449891
-0.262089
-0.0163412
0.237001
0.44782
0.573924
0.586803
0.476338
0.253654
-0.0478812
-0.37704
-0.674943
-0.890356
-0.989845
-0.962047
-0.816572
-0.581049
-0.296373
-0.0109573
0.226852
0.376357
0.410192
0.318988
0.114222
-0.170784
-0.485157
-0.770531
-0.97613
-1.06878
-1.0371
-0.890464
-0.656029
-0.374077
-0.0923298
0.14155
0.287443
0.318393
0.225213
0.0192973
-0.266396
-0.581584
-0.868601
-1.07728
-1.17484
-1.15004
-1.01208
-0.787708
-0.516618
-0.245788
-0.0220826
0.115152
0.139675
0.0429397
-0.163049
-0.44464
-0.750544
-1.02139
-1.2041
-1.26123
-1.17473
-0.944571
-0.586022
-0.126077
0.39952
0.948791
1.47396
1.92061
2.23183
2.35877
2.27471
5.34762
4.74869
4.09706
3.49569
3.03114
2.74862
2.64331
2.66931
2.752
2.80842
2.76593
2.57136
2.20015
1.66117
1.0044
0.315897
-0.298459
-0.751997
-0.993249
-1.01067
-0.824772
-0.483392
-0.0538276
0.383636
0.74909
0.976312
1.01904
0.858539
0.507931
0.0195883
-0.51969
-1.00426
-1.34745
-1.49708
-1.44003
-1.19467
-0.806351
-0.339721
0.12756
0.517967
0.767217
0.830486
0.689931
0.358978
-0.110308
-0.631974
-1.10152
-1.43322
-1.57539
-1.51493
-1.26983
-0.884769
-0.423467
0.0374699
0.42156
0.665394
0.724777
0.582162
0.250877
-0.2176
-0.738346
-1.20815
-1.54235
-1.68994
-1.63799
-1.4043
-1.03294
-0.586811
-0.141483
0.227637
0.458083
0.506415
0.355592
0.0192089
-0.451199
-0.970581
-1.43499
-1.75744
-1.8821
-1.78781
-1.47975
-0.984182
-0.340872
0.40063
1.18661
1.95744
2.63529
3.12641
3.34077
3.22236
6.36249
5.47356
4.46327
3.55182
2.9013
2.58853
2.59113
2.82349
3.14811
3.41938
3.52186
3.36703
2.9118
2.15399
1.16932
0.102821
-0.835768
-1.50082
-1.81519
-1.77726
-1.42356
-0.8317
-0.102705
0.63395
1.2494
1.64436
1.74389
1.51448
0.960524
0.160385
-0.741151
-1.53717
-2.08331
-2.30196
-2.18921
-1.77867
-1.14445
-0.384038
0.376745
1.01231
1.42586
1.54425
1.33501
0.802898
0.0255583
-0.853882
-1.63104
-2.16328
-2.37382
-2.25866
-1.85081
-1.22333
-0.472376
0.277886
0.903494
1.30891
1.42199
1.21075
0.679971
-0.0935783
-0.968511
-1.74299
-2.27621
-2.4924
-2.38771
-1.9948
-1.38587
-0.655895
0.0725247
0.677007
1.06322
1.1599
0.935416
0.394431
-0.387262
-1.2698
-2.05303
-2.59564
-2.81825
-2.70872
-2.28498
-1.5951
-0.697071
0.337677
1.44624
2.57482
3.61884
4.4195
4.80196
4.63904
7.71741
6.37296
4.6868
3.23178
2.28469
1.97409
2.20801
2.84484
3.62104
4.27341
4.64832
4.59531
4.05914
2.97351
1.45206
-0.294455
-1.76698
-2.75465
-3.14446
-2.99857
-2.36531
-1.3775
-0.16263
1.05879
2.06718
2.73782
2.9424
2.63776
1.7676
0.44717
-1.11458
-2.42992
-3.2908
-3.58406
-3.36726
-2.68478
-1.6643
-0.428923
0.806206
1.82634
2.50949
2.72978
2.445
1.59991
0.308412
-1.22312
-2.51328
-3.35663
-3.64129
-3.42392
-2.7481
-1.73975
-0.520332
0.697757
1.70246
2.37335
2.58619
2.29943
1.4586
0.17639
-1.34337
-2.6253
-3.46661
-3.75698
-3.5525
-2.8964
-1.91316
-0.722781
0.464959
1.44065
2.08523
2.27584
1.97096
1.11624
-0.178131
-1.71207
-3.01756
-3.89465
-4.2327
-4.08209
-3.47345
-2.50575
-1.25015
0.16843
1.67704
3.314
4.95281
6.31483
7.04851
6.84543
9.77972
7.76477
4.57763
2.18005
0.751033
0.57517
1.2445
2.66542
4.27229
5.52698
6.39098
6.51933
5.99771
4.42063
2.05886
-1.08628
-3.39639
-4.86942
-5.24517
-4.92174
-3.81761
-2.2503
-0.232002
1.79036
3.37133
4.50239
4.87416
4.57539
3.22304
1.08144
-1.84289
-3.97711
-5.31571
-5.60068
-5.21595
-4.07766
-2.49362
-0.473496
1.54522
3.12561
4.25958
4.64257
4.36182
3.03968
0.936878
-1.93997
-4.03896
-5.35454
-5.63176
-5.24938
-4.12427
-2.56017
-0.566422
1.42485
2.98205
4.09731
4.46978
4.1859
2.87278
0.78838
-2.06078
-4.14214
-5.45041
-5.73417
-5.36767
-4.26916
-2.73875
-0.78592
1.1627
2.68102
3.76093
4.10521
3.79825
2.47108
0.375949
-2.48333
-4.59902
-5.9699
-6.35085
-6.11502
-5.179
-3.83095
-2.03794
-0.13045
1.72305
4.05052
6.68542
9.11503
10.644
10.4961
13.4017
10.8473
3.33388
-0.265294
-2.5871
-2.04104
-0.801398
2.21817
5.43068
7.34313
9.19299
9.37934
9.45614
6.99772
3.79374
-3.08056
-6.23122
-8.56426
-8.35273
-7.96912
-5.9369
-3.77254
-0.307242
3.15755
5.32334
7.36033
7.77149
8.03018
5.815
2.84281
-3.70895
-6.67001
-8.85789
-8.58168
-8.14978
-6.11243
-3.95094
-0.516063
2.91541
5.06768
7.09108
7.51113
7.7782
5.60361
2.67994
-3.77698
-6.6928
-8.84771
-8.57209
-8.14444
-6.13261
-3.99932
-0.60899
2.77698
4.898
6.89085
7.29845
7.55444
5.39758
2.50157
-3.88384
-6.77228
-8.90952
-8.64779
-8.23695
-6.26389
-4.17264
-0.843039
2.48004
4.55266
6.49591
6.8723
7.0946
4.93175
2.03038
-4.3254
-7.25299
-9.47064
-9.35713
-9.15625
-7.47782
-5.79691
-2.99054
-0.351545
1.08656
4.34439
8.71371
13.2122
16.6544
17.1532
20.259
21.0793
-3.54042
-4.54854
-10.0547
-5.65599
-5.4105
1.49306
8.46114
9.24939
14.3904
12.3971
16.5652
10.6484
10.8138
-10.437
-10.2435
-15.9234
-11.7082
-13.3906
-8.24657
-7.16826
-0.381856
6.3952
7.46074
12.5594
10.8883
15.0472
9.49697
9.75867
-10.7458
-10.4764
-15.9485
-11.787
-13.3956
-8.32613
-7.24209
-0.553873
6.12749
7.19517
12.2313
10.5998
14.7104
9.24604
9.51072
-10.7133
-10.4425
-15.841
-11.7315
-13.3209
-8.31604
-7.2488
-0.645461
5.95046
6.99832
11.967
10.3452
14.3973
8.98656
9.23932
-10.7427
-10.4843
-15.8233
-11.7763
-13.356
-8.42897
-7.38993
-0.890918
5.59786
6.61041
11.487
9.86111
13.8254
8.45571
8.65903
-11.1042
-10.9294
-16.3283
-12.4893
-14.3252
-9.7803
-9.38356
-3.70215
1.1566
-2.17038
3.03752
10.5558
18.8302
26.9029
31.4185
29.9994
67.911
-44.4104
-2.34984
-31.7834
-3.28843
-19.6055
0.676663
20.3922
4.88959
29.8632
6.54421
38.1988
5.54269
48.6754
-48.6705
-5.79568
-37.5287
-6.56848
-28.6393
-4.69874
-18.7807
-0.440051
17.8604
3.79355
27.5099
5.613
36.0488
4.81301
46.5811
-47.6933
-6.01145
-36.9078
-6.6798
-28.254
-4.79698
-18.5993
-0.57789
17.4272
3.61214
26.9767
5.42399
35.4348
4.64276
45.8494
-47.158
-6.02429
-36.5215
-6.68032
-27.9887
-4.82499
-18.4659
-0.666932
17.1175
3.45698
26.5377
5.22603
34.8709
4.42436
45.1195
-46.7437
-6.13192
-36.2489
-6.79834
-27.8407
-4.99144
-18.4657
-0.920189
16.6053
3.10774
25.8454
4.80368
34.0009
3.958
44.0429
-46.5906
-6.57643
-36.486
-7.44667
-28.6798
-6.10672
-20.5777
-3.22673
14.4546
-17.7153
-1.59398
11.3112
24.741
42.2757
70.486
28864
28825
28785.9
28746.6
28707.4
28668.2
28629
28589.9
28551
28512.1
28473.3
28434.7
28396.1
28357.7
28319.2
0.187404
0.145258
0.0914226
0.031973
-0.0269003
-0.0797412
-0.122373
-0.15212
-0.167767
-0.169353
-0.1579
-0.135127
-0.103219
-0.0646379
-0.0220004
0.330511
0.254818
0.158395
0.0524834
-0.0516622
-0.144343
-0.218351
-0.269266
-0.295289
-0.296792
-0.27578
-0.235388
-0.179456
-0.112232
-0.0381732
0.503696
0.38517
0.234911
0.0712789
-0.0878418
-0.227577
-0.337383
-0.411273
-0.447305
-0.446721
-0.413024
-0.351174
-0.266976
-0.166658
-0.0566328
0.724052
0.547254
0.324802
0.0855642
-0.143406
-0.340737
-0.492328
-0.591135
-0.635935
-0.629761
-0.578418
-0.489308
-0.370613
-0.230793
-0.0783324
1.01497
0.754987
0.431476
0.0895779
-0.23061
-0.499639
-0.70006
-0.825003
-0.87554
-0.857971
-0.781577
-0.657026
-0.495377
-0.307567
-0.104236
1.40978
1.02624
0.556528
0.0718772
-0.368978
-0.727149
-0.983271
-1.13328
-1.18325
-1.145
-1.03289
-0.861841
-0.6463
-0.399863
-0.135281
1.9577
1.38365
0.696509
0.0103743
-0.590037
-1.05671
-1.3726
-1.54158
-1.57918
-1.5059
-1.34315
-1.11114
-0.828119
-0.510304
-0.172305
2.73381
1.85414
0.83547
-0.136862
-0.944839
-1.53706
-1.90884
-2.08127
-2.08599
-1.95627
-1.72266
-1.41146
-1.04473
-0.640928
-0.215939
3.8566
2.46364
0.928076
-0.448464
-1.51541
-2.23785
-2.64443
-2.78866
-2.72724
-2.51053
-2.17976
-1.76732
-1.29839
-0.792741
-0.266463
5.51879
3.21573
0.86166
-1.06967
-2.43048
-3.2545
-3.64238
-3.70169
-3.52376
-3.17887
-2.71851
-2.17966
-1.58878
-0.965181
-0.323633
8.03682
4.01884
0.372517
-2.26139
-3.88234
-4.7073
-4.96891
-4.85195
-4.48724
-3.96265
-3.33577
-2.64403
-1.91187
-1.15557
-0.386519
11.89
4.45036
-1.129
-4.46604
-6.13019
-6.72344
-6.674
-6.24994
-5.6106
-4.84873
-4.01788
-3.1488
-2.2591
-1.35872
-0.453387
17.4411
3.02153
-4.87276
-8.34356
-9.4489
-9.38224
-8.7537
-7.86321
-6.85648
-5.80379
-4.73819
-3.67421
-2.61698
-1.56684
-0.521688
22.164
-4.93284
-13.04
-14.5865
-13.9396
-12.6029
-11.0954
-9.59269
-8.14833
-6.77174
-5.45688
-4.19287
-2.96779
-1.76996
-0.588214
0.547607
1.65025
2.77565
3.9406
5.16459
6.47148
7.89191
9.46683
11.2529
13.3296
15.8064
18.8129
22.3779
25.7053
23.1037
0.558553
1.68344
2.8322
4.0226
5.27558
6.61732
8.08251
9.71985
11.6018
13.8434
16.6426
20.3783
25.8965
35.5088
57.1496
0.564096
1.70005
2.85983
4.06116
5.32496
6.67744
8.15359
9.80303
11.701
13.97
16.8282
20.7059
26.572
36.9586
59.6023
0.564249
1.70013
2.8586
4.05635
5.31275
6.6517
8.10434
9.71367
11.5425
13.6877
16.3056
19.6522
24.1068
29.8906
34.5704
0.559278
1.68451
2.83011
4.01081
5.24324
6.54702
7.9463
9.47192
11.1644
13.0771
15.277
17.8287
20.7167
23.5842
25.2532
0.549671
1.65476
2.77725
3.92936
5.12418
6.37602
7.70053
9.11435
10.6334
12.2673
14.0043
15.7716
17.3401
18.1089
16.6207
0.536077
1.61291
2.70383
3.81825
4.96553
6.15456
7.39273
8.68372
10.0227
11.3861
12.7108
13.8532
14.5188
14.2011
12.5204
0.519231
1.5613
2.61409
3.68433
4.77791
5.89898
7.04825
8.21978
9.39501
10.5318
11.5442
12.2662
12.3807
11.2402
7.12405
0.499882
1.50225
2.51223
3.5342
4.5712
5.62383
6.68832
7.75327
8.79406
9.76381
10.5793
11.1012
11.1144
10.3459
8.7638
0.478727
1.43791
2.40206
3.37365
4.35364
5.34044
6.32809
7.30353
8.24241
9.10297
9.81829
10.2896
10.3909
10.0165
9.23231
0.456369
1.37013
2.28673
3.20725
4.13138
5.05649
5.97634
6.87919
7.74515
8.54298
9.22675
9.73484
9.99786
9.97177
9.73434
0.433301
1.30038
2.16869
3.03837
3.90844
4.77619
5.63642
6.48046
7.29522
8.06221
8.7572
9.3503
9.80556
10.0738
10.0568
0.409903
1.22978
2.0497
2.86922
3.68712
4.50114
5.30775
6.1021
6.87846
7.63147
8.35842
9.06148
9.7432
10.3738
10.8009
0.38646
1.15914
1.931
2.7012
3.4685
4.23125
4.98761
5.73625
6.47794
7.21883
7.97624
8.7875
9.71638
10.8151
11.7896
0.363185
1.08907
1.81345
2.5352
3.25305
3.96581
4.67285
5.37523
6.07799
6.79474
7.55668
8.43188
9.57165
11.3426
14.7762
0.340247
1.02005
1.69775
2.37191
3.04114
3.70435
4.36134
5.01395
5.66835
6.3393
7.05848
7.89256
8.98861
10.7157
14.2103
0.317792
0.952486
1.5845
2.21204
2.83341
3.44723
4.05287
4.65144
5.24724
5.85037
6.48051
7.17133
7.9674
8.86121
9.34837
0.295957
0.886789
1.47436
2.05647
2.63095
3.19578
3.74934
4.29087
4.82106
5.3427
5.86041
6.37703
6.87834
7.28918
7.41966
0.274876
0.82336
1.36801
1.9062
2.4352
2.95216
3.45417
3.93818
4.40085
4.83776
5.24109
5.59339
5.85212
5.91186
5.49775
0.254676
0.762593
1.26616
1.76233
2.24781
2.71894
3.1715
3.60031
3.99853
4.35616
4.65722
4.87475
4.96411
4.86364
4.56193
0.235473
0.704849
1.16945
1.62588
2.07039
2.49863
2.90534
3.28371
3.62442
3.91386
4.13136
4.24513
4.20795
3.95517
3.39049
0.217362
0.650422
1.07842
1.49772
1.90427
2.29328
2.65886
2.99327
3.28592
3.52153
3.67756
3.72037
3.60151
3.26333
2.72404
0.200406
0.599514
0.99343
1.37843
1.75033
2.10422
2.43402
2.73186
2.98703
3.18449
3.30239
3.30788
3.1474
2.71117
1.65459
0.184635
0.552212
0.914639
1.26823
1.6089
1.93189
2.2314
2.50008
2.72824
2.90272
3.00529
3.01068
2.88478
2.58983
2.14946
0.17004
0.508489
0.841984
1.16702
1.47977
1.77587
2.05019
2.29645
2.50675
2.67089
2.77569
2.80465
2.73958
2.56947
2.31538
0.15658
0.468209
0.775206
1.07435
1.3622
1.63498
1.88847
2.11781
2.31732
2.48028
2.59878
2.66393
2.66734
2.60746
2.5122
0.144182
0.431146
0.713887
0.989526
1.25509
1.5075
1.74353
1.95989
2.15328
2.32055
2.45895
2.5661
2.63907
2.67003
2.63139
0.132759
0.397019
0.657504
0.911703
1.15713
1.39139
1.61226
1.81795
2.00739
2.18089
2.34082
2.49202
2.63999
2.78094
2.87785
0.12221
0.365515
0.605489
0.839976
1.06694
1.28459
1.49155
1.68728
1.87259
2.05068
2.22876
2.4202
2.64581
2.92246
3.16939
0.112437
0.336326
0.557289
0.773477
0.983225
1.1852
1.37866
1.56386
1.7428
1.92049
2.10743
2.32468
2.61619
3.08465
4.01511
0.103348
0.30917
0.512408
0.711455
0.904912
1.09174
1.27152
1.44481
1.61389
1.78389
1.96508
2.1776
2.46372
2.92603
3.87496
0.094865
0.283812
0.470441
0.653319
0.831207
1.00319
1.16888
1.32869
1.48435
1.63955
1.80097
1.97943
2.18891
2.42952
2.56713
0.086927
0.260065
0.431082
0.598653
0.761609
0.91902
1.07032
1.21547
1.35514
1.49089
1.62506
1.75972
1.8925
2.00456
2.04609
0.0794868
0.237794
0.394118
0.547198
0.695868
0.8391
0.976047
1.10607
1.22868
1.34334
1.44881
1.54136
1.6105
1.62859
1.52146
0.0725104
0.216901
0.35941
0.498809
0.633908
0.763551
0.886592
1.00181
1.10774
1.20219
1.28155
1.33926
1.36396
1.33961
1.26394
0.0659722
0.197317
0.326864
0.453412
0.575743
0.692594
0.802575
0.904032
0.994765
1.07155
1.12933
1.16009
1.1515
1.0863
0.937729
0.059851
0.178984
0.296405
0.410946
0.52139
0.626413
0.724487
0.813706
0.891491
0.954107
0.995905
1.00825
0.978384
0.890879
0.750982
0.0541253
0.161842
0.267948
0.37133
0.470808
0.565066
0.652556
0.731329
0.798762
0.851134
0.882944
0.885728
0.845306
0.731857
0.450353
0.0487709
0.145821
0.241385
0.334431
0.423855
0.508424
0.586686
0.656835
0.716502
0.76245
0.790151
0.793227
0.762952
0.689554
0.57973
0.0437586
0.130834
0.216573
0.300051
0.380279
0.456168
0.526458
0.58963
0.643779
0.686449
0.714469
0.723898
0.710555
0.672556
0.617669
0.0390538
0.116776
0.193335
0.26793
0.339723
0.407807
0.47118
0.528699
0.579035
0.620633
0.65171
0.670395
0.675292
0.667299
0.655015
0.0346174
0.103528
0.171462
0.23776
0.301746
0.362724
0.419975
0.472765
0.52037
0.562132
0.597566
0.626479
0.648994
0.665036
0.672043
0.0304067
0.0909591
0.150729
0.2092
0.265864
0.320235
0.371876
0.420441
0.465771
0.508038
0.547963
0.58702
0.627205
0.669061
0.7058
0.0263779
0.0789352
0.130901
0.181898
0.231578
0.279649
0.325918
0.370371
0.413308
0.45558
0.498975
0.546789
0.604271
0.676658
0.750929
0.0224875
0.0673235
0.111749
0.155515
0.198415
0.24032
0.28123
0.321363
0.361318
0.402352
0.446931
0.499858
0.571001
0.682964
0.896179
0.0186943
0.0559984
0.0930572
0.129736
0.165947
0.201688
0.237087
0.272487
0.308586
0.346674
0.389101
0.44029
0.5094
0.618978
0.839663
0.0149602
0.0448452
0.0746323
0.104284
0.133812
0.163299
0.192949
0.223134
0.254482
0.287994
0.3252
0.368291
0.419713
0.477858
0.508076
0.0112511
0.0337615
0.0563034
0.0789233
0.101708
0.124804
0.148446
0.17298
0.198884
0.226759
0.257222
0.290521
0.325372
0.356152
0.370724
0.00753685
0.0226572
0.0379229
0.0534514
0.069391
0.0859347
0.10333
0.121882
0.141926
0.163736
0.187287
0.211684
0.233873
0.24572
0.225973
0.00379077
0.0114532
0.0193622
0.0276972
0.0366592
0.0464788
0.0574175
0.0697559
0.083749
0.0995123
0.116774
0.134392
0.149568
0.15724
0.153828
-1.09526e-05
7.91703e-05
0.000507925
0.00151051
0.00333588
0.00625065
0.0105384
0.016487
0.0243503
0.034257
0.0460233
0.0588049
0.0704857
0.0764693
0.065425
-0.00389
-0.0115288
-0.0187428
-0.0252446
-0.0307402
-0.0349263
-0.0374887
-0.0381052
-0.0364601
-0.0322819
-0.0254237
-0.0160083
-0.0046311
0.00753389
0.0196405
-0.0078667
-0.0234305
-0.038486
-0.0526956
-0.0657222
-0.0772266
-0.0868618
-0.094262
-0.0990231
-0.100675
-0.0986387
-0.0921756
-0.0802866
-0.0613525
-0.0310396
-0.0119608
-0.035684
-0.0588148
-0.0809656
-0.101758
-0.120821
-0.137782
-0.152246
-0.163739
-0.171621
-0.174921
-0.172103
-0.160827
-0.138133
-0.103776
-0.0161921
-0.0483478
-0.0798224
-0.110177
-0.138991
-0.16587
-0.190433
-0.212287
-0.230958
-0.245743
-0.255444
-0.257898
-0.249289
-0.223008
-0.165453
-0.0205819
-0.0614836
-0.101606
-0.140454
-0.177566
-0.212524
-0.24496
-0.274534
-0.300868
-0.323391
-0.340992
-0.351369
-0.350018
-0.329592
-0.285625
-0.0251533
-0.0751594
-0.124274
-0.171935
-0.217632
-0.260926
-0.301471
-0.339025
-0.373421
-0.404451
-0.431549
-0.452979
-0.463985
-0.452517
-0.387687
-0.029933
-0.0894535
-0.14795
-0.204779
-0.259365
-0.311233
-0.360056
-0.405706
-0.448304
-0.488237
-0.526035
-0.561823
-0.593551
-0.61249
-0.598906
-0.0349522
-0.104458
-0.172781
-0.239178
-0.302982
-0.363652
-0.420841
-0.474501
-0.525034
-0.5735
-0.621911
-0.673478
-0.731992
-0.79504
-0.808426
-0.0402479
-0.120283
-0.198949
-0.275376
-0.348774
-0.418485
-0.484072
-0.545465
-0.603193
-0.658796
-0.715591
-0.780302
-0.867275
-1.01207
-1.32598
-0.0458633
-0.137058
-0.22667
-0.313676
-0.397124
-0.476178
-0.550213
-0.61897
-0.682824
-0.74326
-0.803767
-0.87166
-0.962399
-1.11165
-1.41464
-0.0518473
-0.154933
-0.256198
-0.354446
-0.448523
-0.537354
-0.620016
-0.695877
-0.764824
-0.827671
-0.886808
-0.947148
-1.01689
-1.10445
-1.18996
-0.0582539
-0.174072
-0.287819
-0.398111
-0.503564
-0.602811
-0.69454
-0.777581
-0.851057
-0.914653
-0.969008
-1.0161
-1.05899
-1.09866
-1.12416
-0.0651393
-0.194648
-0.321839
-0.445136
-0.562914
-0.673486
-0.775095
-0.865924
-0.944147
-1.00805
-1.05625
-1.08798
-1.10332
-1.1027
-1.08419
-0.0725588
-0.216834
-0.358563
-0.495991
-0.627265
-0.750384
-0.863135
-0.963019
-1.04718
-1.11235
-1.15491
-1.17123
-1.15874
-1.11917
-1.06689
-0.0805634
-0.240786
-0.398274
-0.551119
-0.697278
-0.83448
-0.960107
-1.07103
-1.1634
-1.23235
-1.27181
-1.27448
-1.23295
-1.14447
-1.02478
-0.0891956
-0.266638
-0.441207
-0.61089
-0.77351
-0.926612
-1.06729
-1.19193
-1.29587
-1.37282
-1.41424
-1.40841
-1.33978
-1.19143
-0.97441
-0.0984867
-0.294485
-0.487531
-0.675564
-0.856352
-1.02737
-1.1856
-1.32721
-1.44707
-1.53798
-1.58949
-1.58595
-1.50197
-1.28608
-0.778229
-0.108455
-0.324381
-0.537338
-0.745268
-0.945977
-1.13701
-1.31545
-1.4776
-1.61838
-1.73049
-1.80297
-1.81937
-1.75574
-1.58348
-1.31025
-0.119106
-0.35634
-0.590633
-0.819987
-1.04232
-1.25539
-1.45662
-1.64281
-1.8096
-1.95051
-2.05541
-2.10834
-2.08497
-1.95101
-1.65305
-0.130434
-0.39034
-0.647359
-0.89958
-1.1451
-1.38199
-1.60823
-1.82151
-2.0188
-2.19553
-2.34394
-2.45029
-2.49099
-2.43243
-2.26559
-0.142432
-0.426344
-0.707416
-0.983827
-1.25387
-1.51599
-1.76884
-2.0113
-2.24227
-2.46021
-2.66168
-2.83785
-2.96594
-2.98904
-2.75974
-0.155092
-0.464319
-0.77071
-1.0725
-1.36813
-1.65641
-1.93668
-2.20907
-2.4748
-2.73632
-2.99699
-3.25878
-3.51379
-3.72095
-3.77844
-0.168416
-0.504264
-0.8372
-1.16544
-1.48751
-1.8024
-2.10998
-2.41148
-2.71025
-3.01301
-3.33154
-3.68443
-4.09488
-4.55679
-4.80037
-0.182425
-0.54623
-0.906947
-1.26268
-1.61186
-1.95346
-2.28752
-2.61577
-2.94292
-3.27876
-3.64221
-4.07012
-4.64022
-5.54426
-7.37412
-0.197158
-0.59034
-0.980153
-1.36448
-1.74146
-2.10977
-2.46908
-2.82082
-3.16956
-3.52534
-3.90811
-4.35708
-4.95366
-5.88881
-7.69333
-0.212679
-0.63679
-1.05717
-1.47137
-1.87708
-2.27233
-2.65589
-3.02795
-3.39131
-3.75317
-4.12806
-4.54152
-5.032
-5.62962
-6.18376
-0.229065
-0.685832
-1.13848
-1.58416
-2.01997
-2.44301
-2.85068
-3.24114
-3.61409
-3.97197
-4.32121
-4.67246
-5.03595
-5.40063
-5.68325
-0.246399
-0.737737
-1.22461
-1.7038
-2.17171
-2.62437
-3.05744
-3.46647
-3.84732
-4.19677
-4.51296
-4.79492
-5.03906
-5.22863
-5.3081
-0.264746
-0.792738
-1.31609
-1.83127
-2.33405
-2.81932
-3.28088
-3.71137
-4.10237
-4.44466
-4.72847
-4.94364
-5.08007
-5.13309
-5.13371
-0.284134
-0.850957
-1.41325
-1.96735
-2.50855
-3.03074
-3.52589
-3.98368
-4.39126
-4.73316
-4.99164
-5.14705
-5.17902
-5.07393
-4.86307
-0.304524
-0.912319
-1.51611
-2.11237
-2.69626
-3.26094
-3.79684
-4.29087
-4.72573
-5.0796
-5.32638
-5.43618
-5.37313
-5.08824
-4.58256
-0.325785
-0.976464
-1.62418
-2.26598
-2.8973
-3.51111
-4.09685
-4.63913
-5.11645
-5.50041
-5.75625
-5.84533
-5.7213
-5.25588
-3.69782
-0.347664
-1.04266
-1.73637
-2.42687
-3.11049
-3.78078
-4.42705
-5.0325
-5.57201
-6.01017
-6.30192
-6.40249
-6.30655
-6.1823
-6.86695
-0.369773
-1.10976
-1.85078
-2.59252
-3.33294
-4.06713
-4.78558
-5.47165
-6.09793
-6.62159
-6.98035
-7.09609
-6.91148
-6.54697
-6.90096
-0.391575
-1.17613
-1.96469
-2.75909
-3.55972
-4.3644
-5.16659
-5.95231
-6.69511
-7.34753
-7.82752
-7.99827
-7.64132
-6.41266
-3.61744
-0.412398
-1.23973
-2.07454
-2.92132
-3.78367
-4.6634
-5.55901
-6.46277
-7.35505
-8.1932
-8.88944
-9.26689
-8.97652
-7.36619
-3.41703
-0.431459
-1.29813
-2.17606
-3.07275
-3.99555
-4.95136
-5.94578
-6.9812
-8.05256
-9.13741
-10.1727
-10.9993
-11.2284
-9.9439
-5.22002
-0.447914
-1.34871
-2.26456
-3.20603
-4.1845
-5.21251
-6.30405
-7.47466
-8.74068
-10.116
-11.601
-13.1465
-14.5312
-14.9101
-10.9925
-0.460919
-1.38883
-2.33526
-3.31362
-4.33905
-5.42952
-6.6074
-7.90185
-9.35289
-11.0184
-12.9872
-15.4055
-18.5326
-22.8599
-29.3119
-12.0909
-27.4975
-25.9799
-22.1891
-18.6704
-15.7211
-13.2512
-11.1371
-9.28058
-7.61029
-6.07497
-4.63689
-3.26726
-1.94307
-0.644871
-118.318
-61.7038
-39.832
-29.0305
-22.592
-18.2146
-14.9515
-12.351
-10.1714
-8.27178
-6.56401
-4.98915
-3.50534
-2.0809
-0.690011
-131.517
-71.7829
-45.9962
-32.8421
-25.0822
-19.9342
-16.1917
-13.2725
-10.8676
-8.80005
-6.96075
-5.27816
-3.7022
-2.19541
-0.727603
-72.1841
-58.2873
-43.3877
-32.9076
-25.7587
-20.6776
-16.8603
-13.8367
-11.3296
-9.16978
-7.24864
-5.4931
-3.85102
-2.28285
-0.756444
-50.9221
-45.4881
-37.7099
-30.6599
-24.9991
-20.5432
-16.9777
-14.0422
-11.5505
-9.37371
-7.42153
-5.62925
-3.94851
-2.34128
-0.775896
-32.3236
-34.3167
-31.5263
-27.4474
-23.4027
-19.7907
-16.6574
-13.9394
-11.5528
-9.42161
-7.48335
-5.68795
-3.99493
-2.37064
-0.785909
-23.8434
-26.4672
-26.2376
-24.2111
-21.5059
-18.7055
-16.0488
-13.6065
-11.3777
-9.33552
-7.44595
-5.67553
-3.99362
-2.37253
-0.786953
-13.2656
-20.5993
-22.1966
-21.4462
-19.6751
-17.5205
-15.2913
-13.1252
-11.073
-9.14343
-7.32578
-5.60165
-3.95007
-2.34976
-0.77989
-16.0192
-18.7148
-19.786
-19.39
-18.1105
-16.3875
-14.4899
-12.5647
-10.6832
-8.87357
-7.14066
-5.47739
-3.8709
-2.30584