/*--------------------------------*- C++ -*----------------------------------*\
| =========                 |                                                 |
| \\      /  F ield         | OpenFOAM: The Open Source CFD Toolbox           |
|  \\    /   O peration     | Version:  5.x                                   |
|   \\  /    A nd           | Web:      www.OpenFOAM.org                      |
|    \\/     M anipulation  |                                                 |
\*---------------------------------------------------------------------------*/
FoamFile
{
    version     2.0;
    format      ascii;
    class       volScalarField;
    location    "5.6";
    object      gradTy;
}
// * * * * * * * * * * * * * * * * * * * * * * * * * * * * * * * * * * * * * //

dimensions      [0 -1 0 1 0 0 0];

internalField   nonuniform List<scalar> 
3200
(
18.2501
8.63644
11.7307
8.31303
9.75049
8.04045
8.79466
7.79342
8.24231
7.6015
7.87689
7.51803
7.72848
7.31817
7.53041
7.14016
7.33932
6.98077
7.16254
6.83863
7.00195
6.713
6.85809
6.60293
6.73096
6.50676
6.62104
6.42136
6.53638
6.3672
6.23199
6.31918
6.20064
6.25832
6.16613
6.2108
6.13677
6.1727
6.11254
6.14176
6.09268
6.11649
6.07651
6.09583
6.06352
6.07897
6.05339
6.06529
6.04616
6.05435
6.04327
6.04941
6.03784
6.04322
6.03429
6.03791
6.03299
6.03403
6.0347
6.03203
6.04078
6.03244
6.05379
6.03596
6.07874
6.04289
6.12662
6.04846
6.22323
6.00088
6.29319
7.10869
6.4216
7.94726
6.78046
9.89543
9.12498
9.00716
8.98283
8.9776
17.0105
9.75242
11.333
8.77702
9.5477
8.27063
8.67441
7.92593
8.16513
7.68568
7.83272
7.56486
7.67701
7.36963
7.48175
7.18941
7.29471
7.02615
7.12229
6.87968
6.96608
6.74966
6.82643
6.63533
6.70311
6.53523
6.59589
6.44655
6.5089
6.37098
6.25688
6.30479
6.21626
6.24701
6.178
6.20169
6.14626
6.1653
6.12024
6.13572
6.09897
6.11157
6.08164
6.09186
6.06766
6.07584
6.05668
6.06298
6.04865
6.053
6.04472
6.04798
6.03931
6.04215
6.03545
6.03736
6.03367
6.0342
6.03469
6.03325
6.03979
6.03533
6.05128
6.04174
6.07369
6.0544
6.11681
6.07403
6.20344
6.07626
6.35166
6.99342
6.62338
7.76464
7.15778
9.50219
9.09883
9.00338
8.98203
8.97734
16.0611
10.5148
11.1008
9.10793
9.4268
8.43355
8.60023
8.01892
8.11667
7.74477
7.80512
7.59646
7.6423
7.40428
7.44924
7.22272
7.26503
7.05691
7.09556
6.90754
6.9423
6.77457
6.80546
6.65735
6.68465
6.55452
6.57911
6.46324
6.48941
6.37379
6.27526
6.29584
6.22709
6.23967
6.18615
6.19573
6.15276
6.16044
6.12552
6.13175
6.10327
6.10835
6.08514
6.08926
6.07051
6.0738
6.05895
6.06148
6.05038
6.05215
6.0457
6.04703
6.04032
6.04145
6.03626
6.03702
6.03417
6.03437
6.03476
6.03416
6.03924
6.0374
6.04979
6.04586
6.07069
6.06263
6.1112
6.09271
6.1939
6.13554
6.39547
6.91863
6.76472
7.65195
7.41707
9.2189
9.06041
8.99667
8.98059
8.97694
15.3335
11.032
10.9717
9.34636
9.35837
8.55007
8.55596
8.08474
8.08699
7.78658
7.78828
7.61788
7.61894
7.42761
7.42758
7.24529
7.24535
7.07779
7.0779
6.9265
6.92661
6.79154
6.79165
6.67236
6.6725
6.56763
6.56794
6.47425
6.4756
6.37591
6.28888
6.29046
6.23466
6.23497
6.19178
6.19188
6.15724
6.15729
6.12914
6.12918
6.10622
6.10625
6.08755
6.08757
6.07246
6.07248
6.06052
6.06052
6.05159
6.05162
6.04637
6.04639
6.04101
6.041
6.03683
6.03682
6.03454
6.03453
6.03486
6.03483
6.03896
6.0389
6.04896
6.04882
6.069
6.06861
6.10828
6.10659
6.19075
6.18209
6.42875
6.87093
6.86441
7.58416
7.59489
9.01402
9.01819
8.98805
8.97866
8.9764
14.778
11.3794
10.9052
9.5193
9.32276
8.63402
8.53078
8.13163
8.06942
7.8163
7.77833
7.63244
7.60328
7.44329
7.41322
7.26055
7.23239
7.09197
7.06629
6.93939
6.91633
6.80309
6.78261
6.68259
6.66454
6.57653
6.56054
6.48146
6.46582
6.37752
6.29896
6.28737
6.23999
6.23201
6.19568
6.18941
6.16032
6.15526
6.13164
6.12752
6.10826
6.1049
6.08922
6.08649
6.07382
6.07164
6.06161
6.05993
6.05245
6.05131
6.04683
6.04598
6.04148
6.04072
6.03724
6.03672
6.03483
6.03467
6.03498
6.03534
6.03885
6.04
6.04853
6.05097
6.06814
6.07297
6.10702
6.11705
6.19132
6.21842
6.45422
6.84117
6.93506
7.54472
7.71637
8.86574
8.97735
8.97861
8.97645
8.97576
14.3585
11.6099
10.8752
9.64467
9.30684
8.69456
8.51744
8.16503
8.05949
7.83741
7.77269
7.64233
7.59284
7.45377
7.40376
7.27084
7.22391
7.10156
7.05874
6.94813
6.90965
6.81094
6.77676
6.68953
6.65938
6.58255
6.55565
6.48613
6.45895
6.37875
6.30635
6.28572
6.24374
6.23018
6.19837
6.18786
6.16244
6.15398
6.13336
6.12647
6.10966
6.10405
6.09036
6.08581
6.07475
6.07111
6.06237
6.05956
6.05305
6.05112
6.04715
6.0457
6.04181
6.04054
6.03753
6.03667
6.03504
6.03479
6.03509
6.03572
6.03884
6.0408
6.04835
6.05254
6.06777
6.07617
6.10671
6.12494
6.19377
6.2464
6.47364
6.82313
6.98507
7.52281
7.79875
8.75897
8.94092
8.9693
8.97417
8.9751
14.0489
11.7598
10.865
9.73432
9.3019
8.73768
8.5111
8.18856
8.05422
7.85222
7.76967
7.64899
7.586
7.46069
7.39762
7.27768
7.21845
7.10797
7.05389
6.95398
6.90539
6.8162
6.77303
6.6942
6.65608
6.58657
6.55248
6.48911
6.4542
6.37966
6.31168
6.28492
6.24635
6.22908
6.20021
6.1869
6.16389
6.15319
6.13452
6.12582
6.11061
6.10352
6.09114
6.08539
6.07539
6.07079
6.06289
6.05934
6.05347
6.05102
6.04736
6.04553
6.04203
6.04044
6.03773
6.03666
6.0352
6.0349
6.0352
6.036
6.03887
6.04138
6.0483
6.05366
6.06767
6.07849
6.10689
6.1308
6.19686
6.26741
6.48817
6.8126
7.02005
7.51137
7.85376
8.68334
8.91064
8.96093
8.97206
8.97447
13.8309
11.854
10.8643
9.79605
9.30223
8.7673
8.50861
8.20456
8.05166
7.86226
7.76818
7.65333
7.58164
7.46512
7.39375
7.2821
7.21504
7.11212
7.05088
6.95778
6.90275
6.81963
6.77072
6.69723
6.65405
6.58917
6.55047
6.49095
6.45103
6.38031
6.31536
6.28459
6.24811
6.22845
6.20143
6.18632
6.16484
6.15271
6.13529
6.12543
6.11124
6.1032
6.09165
6.08513
6.07581
6.0706
6.06323
6.05922
6.05375
6.05097
6.0475
6.04542
6.04218
6.04038
6.03787
6.03666
6.03531
6.03498
6.03528
6.0362
6.03892
6.04178
6.04832
6.05443
6.0677
6.0801
6.10726
6.13497
6.19978
6.2824
6.49855
6.80674
7.04367
7.50588
7.88928
8.63179
8.88743
8.95413
8.97029
8.97394
13.6919
11.9087
10.8667
9.8348
9.3042
8.78588
8.50793
8.21452
8.05055
7.86849
7.76752
7.65595
7.57908
7.46774
7.39149
7.28473
7.21307
7.1146
7.04915
6.96006
6.90123
6.82168
6.7694
6.69905
6.65288
6.59073
6.54929
6.492
6.44909
6.38072
6.31767
6.28449
6.2492
6.22811
6.20217
6.18601
6.16542
6.15244
6.13576
6.12521
6.11162
6.10302
6.09196
6.08499
6.07606
6.07049
6.06344
6.05916
6.05392
6.05095
6.04759
6.04536
6.04227
6.04034
6.03795
6.03666
6.03539
6.03503
6.03533
6.03633
6.03896
6.04203
6.04835
6.05492
6.06777
6.08112
6.1076
6.13766
6.20199
6.29205
6.50525
6.80374
7.05829
7.50355
7.91043
8.59972
8.87179
8.94935
8.96902
8.97356
13.6243
11.9337
10.8687
9.85349
9.30568
8.79483
8.50786
8.2193
8.05017
7.87147
7.76729
7.65719
7.57789
7.46896
7.39045
7.28596
7.21216
7.11576
7.04835
6.96113
6.90054
6.82264
6.7688
6.6999
6.65234
6.59146
6.54875
6.49248
6.44818
6.38093
6.31878
6.28447
6.24972
6.22796
6.20253
6.18587
6.16569
6.15232
6.13598
6.12511
6.11179
6.10295
6.09211
6.08493
6.07618
6.07044
6.06354
6.05913
6.054
6.05094
6.04763
6.04533
6.04231
6.04033
6.03799
6.03667
6.03542
6.03506
6.03536
6.03639
6.03898
6.04215
6.04837
6.05515
6.06782
6.08162
6.1078
6.13898
6.20317
6.29678
6.50853
6.80249
7.06528
7.50275
7.92029
8.58434
8.86392
8.94689
8.96836
8.97336
-13.7567
-11.9513
-10.7223
-9.3831
-8.57267
-7.68078
-7.11881
-6.46692
-6.05188
-5.56981
-5.27638
-4.95077
-4.71318
-4.3847
-4.14906
-3.83741
-3.61962
-3.33849
-3.14429
-2.89623
-2.72574
-2.50897
-2.36025
-2.17136
-2.04143
-1.87558
-1.7591
-1.60522
-1.4829
-1.29541
-1.11987
-1.02136
-0.919141
-0.853889
-0.775889
-0.723841
-0.659456
-0.616
-0.561739
-0.524995
-0.47899
-0.447828
-0.408819
-0.382457
-0.349568
-0.327515
-0.300295
-0.282457
-0.261125
-0.247961
-0.23312
-0.222191
-0.206969
-0.196003
-0.181442
-0.171242
-0.158044
-0.148917
-0.137251
-0.129248
-0.119105
-0.112228
-0.10365
-0.0980712
-0.0915603
-0.0882432
-0.0862546
-0.0897417
-0.104067
-0.138059
-0.228296
-0.374579
-0.529289
-0.815958
-1.11878
-1.62812
-1.84359
-1.90761
-1.92419
-1.92804
-13.8289
-11.9282
-10.7267
-9.36195
-8.57593
-7.66759
-7.12242
-6.45745
-6.05457
-5.56227
-5.27767
-4.94725
-4.71682
-4.38099
-4.1521
-3.83366
-3.62216
-3.33502
-3.14645
-2.89313
-2.72759
-2.50626
-2.36186
-2.16901
-2.04287
-1.87361
-1.7606
-1.60396
-1.48551
-1.29493
-1.11679
-1.02151
-0.917666
-0.854401
-0.774854
-0.724337
-0.658621
-0.616435
-0.56104
-0.525368
-0.478399
-0.448144
-0.408315
-0.38272
-0.349136
-0.327723
-0.299921
-0.282598
-0.2608
-0.24803
-0.232965
-0.222364
-0.2068
-0.196148
-0.181269
-0.171363
-0.157882
-0.14902
-0.137106
-0.129335
-0.118975
-0.112297
-0.103531
-0.0981094
-0.0914334
-0.088191
-0.0860364
-0.0893089
-0.103281
-0.13581
-0.226054
-0.374243
-0.524011
-0.815312
-1.11052
-1.63988
-1.84964
-1.90951
-1.9247
-1.9282
-13.9771
-11.8772
-10.7377
-9.31766
-8.58409
-7.63988
-7.13081
-6.4375
-6.06084
-5.54642
-5.2808
-4.93974
-4.72468
-4.37301
-4.15873
-3.82563
-3.62773
-3.3276
-3.1512
-2.88652
-2.73169
-2.50047
-2.36541
-2.16399
-2.04603
-1.86939
-1.76385
-1.60118
-1.49101
-1.29397
-1.1104
-1.02201
-0.91457
-0.855568
-0.77266
-0.725444
-0.656848
-0.6174
-0.559555
-0.526195
-0.477141
-0.448845
-0.407244
-0.383304
-0.34822
-0.328189
-0.29913
-0.28292
-0.260115
-0.248192
-0.232633
-0.222737
-0.206436
-0.196463
-0.180898
-0.171629
-0.157537
-0.149246
-0.136796
-0.129526
-0.118699
-0.11245
-0.10328
-0.0981988
-0.0911702
-0.0880961
-0.085602
-0.088449
-0.101753
-0.131253
-0.221496
-0.373843
-0.513072
-0.814511
-1.09289
-1.66441
-1.8617
-1.9132
-1.92567
-1.92849
-14.2094
-11.7878
-10.7598
-9.24592
-8.60068
-7.59477
-7.14659
-6.40489
-6.07262
-5.52063
-5.28695
-4.9272
-4.73801
-4.35954
-4.17012
-3.81221
-3.63739
-3.31525
-3.15949
-2.87553
-2.73884
-2.49083
-2.37162
-2.15564
-2.05156
-1.86233
-1.76939
-1.5963
-1.49999
-1.29246
-1.10021
-1.02327
-0.909539
-0.857694
-0.769041
-0.727409
-0.653911
-0.619104
-0.557094
-0.527652
-0.475055
-0.450081
-0.405468
-0.384337
-0.346703
-0.329018
-0.297827
-0.283508
-0.258997
-0.248501
-0.232076
-0.223368
-0.205821
-0.197004
-0.180277
-0.172088
-0.156961
-0.14964
-0.13628
-0.129861
-0.118242
-0.112722
-0.102865
-0.0983671
-0.0907497
-0.087979
-0.0849549
-0.0871717
-0.099579
-0.124268
-0.214454
-0.373969
-0.495645
-0.814632
-1.06353
-1.70392
-1.87958
-1.91844
-1.92703
-1.9289
-14.5385
-11.6426
-10.8014
-9.13944
-8.63171
-7.52735
-7.17411
-6.35592
-6.0932
-5.48211
-5.29816
-4.90784
-4.75892
-4.33852
-4.18826
-3.79146
-3.65295
-3.29625
-3.17291
-2.85865
-2.75045
-2.47605
-2.38171
-2.14282
-2.06049
-1.85143
-1.77813
-1.58835
-1.51342
-1.29035
-1.0854
-1.02601
-0.902037
-0.861296
-0.763545
-0.730651
-0.64943
-0.621899
-0.553332
-0.530038
-0.471867
-0.452104
-0.402755
-0.386031
-0.344391
-0.330389
-0.295851
-0.284505
-0.25732
-0.249049
-0.231212
-0.224354
-0.204858
-0.197863
-0.179316
-0.172827
-0.156074
-0.150277
-0.135488
-0.130405
-0.117541
-0.113168
-0.102238
-0.0986612
-0.0901364
-0.0878729
-0.084099
-0.0854877
-0.0969141
-0.114663
-0.204639
-0.375609
-0.470325
-0.817557
-1.01852
-1.76202
-1.90294
-1.9249
-1.92867
-1.92938
-14.9835
-11.4153
-10.8759
-8.98679
-8.6866
-7.4299
-7.22023
-6.28472
-6.12772
-5.42652
-5.31762
-4.87883
-4.79069
-4.30669
-4.21626
-3.76039
-3.67725
-3.26791
-3.19398
-2.83353
-2.76871
-2.45408
-2.39758
-2.12374
-2.07449
-1.8351
-1.79155
-1.57582
-1.53278
-1.28752
-1.06478
-1.03134
-0.891208
-0.867181
-0.755457
-0.73583
-0.642803
-0.626338
-0.547762
-0.533821
-0.467144
-0.455314
-0.39874
-0.388725
-0.340975
-0.332583
-0.29295
-0.286137
-0.254888
-0.249982
-0.229911
-0.225848
-0.203396
-0.199185
-0.177874
-0.173978
-0.154751
-0.151274
-0.134308
-0.131262
-0.116502
-0.113877
-0.101317
-0.0991543
-0.0892737
-0.0878283
-0.0830376
-0.083403
-0.0939971
-0.102169
-0.191585
-0.3803
-0.434906
-0.826332
-0.951809
-1.84422
-1.93105
-1.93208
-1.93042
-1.92989
-15.5712
-11.0668
-11.0043
-8.77059
-8.77976
-7.29056
-7.2954
-6.1824
-6.18401
-5.34723
-5.35028
-4.8358
-4.8383
-4.25912
-4.25889
-3.71442
-3.7146
-3.22617
-3.22651
-2.79659
-2.79697
-2.42178
-2.42216
-2.09568
-2.09611
-1.81094
-1.81185
-1.55638
-1.56023
-1.28379
-1.03659
-1.04093
-0.875738
-0.876578
-0.743688
-0.743947
-0.633117
-0.633264
-0.539608
-0.539716
-0.46023
-0.460315
-0.392864
-0.39293
-0.335986
-0.336029
-0.288737
-0.288749
-0.251405
-0.251522
-0.227971
-0.228078
-0.201207
-0.201193
-0.175737
-0.175743
-0.152798
-0.152813
-0.132574
-0.132588
-0.114979
-0.114985
-0.0999821
-0.0999572
-0.0880745
-0.0879184
-0.0817708
-0.08091
-0.0911778
-0.0864267
-0.17456
-0.390355
-0.386014
-0.845746
-0.854417
-1.95865
-1.9626
-1.93937
-1.93213
-1.93038
-16.339
-10.5407
-11.2196
-8.46468
-8.93286
-7.09147
-7.41528
-6.03549
-6.27385
-5.23436
-5.40365
-4.77209
-4.90918
-4.18841
-4.32329
-3.64667
-3.77149
-3.16487
-3.27625
-2.74245
-2.84026
-2.37446
-2.45981
-2.05455
-2.12915
-1.77534
-1.84241
-1.52657
-1.5989
-1.2789
-0.998342
-1.05731
-0.85363
-0.891326
-0.726596
-0.75651
-0.618995
-0.643945
-0.527707
-0.548797
-0.450135
-0.468019
-0.38429
-0.399417
-0.328721
-0.34137
-0.282634
-0.292856
-0.246424
-0.254011
-0.225086
-0.231389
-0.197944
-0.20422
-0.172582
-0.178428
-0.149929
-0.155162
-0.13003
-0.13462
-0.112753
-0.116695
-0.0980487
-0.101235
-0.0864072
-0.0882491
-0.0802934
-0.0779727
-0.08896
-0.0669696
-0.152429
-0.409217
-0.318559
-0.883202
-0.713204
-2.11708
-1.99523
-1.94602
-1.93361
-1.93079
-17.3388
-9.75541
-11.5723
-8.02985
-9.17835
-6.80578
-7.60331
-5.82386
-6.4148
-5.07314
-5.48906
-4.67765
-5.01439
-4.08347
-4.42015
-3.54686
-3.85765
-3.07487
-3.35181
-2.66304
-2.9061
-2.30511
-2.51709
-1.99423
-2.17933
-1.72291
-1.88829
-1.48124
-1.65326
-1.27243
-0.946516
-1.0842
-0.82187
-0.914174
-0.701722
-0.775774
-0.598376
-0.660276
-0.510315
-0.562671
-0.435381
-0.479791
-0.371764
-0.409339
-0.318123
-0.349569
-0.273774
-0.299232
-0.239285
-0.257962
-0.220794
-0.236292
-0.193094
-0.208765
-0.16793
-0.182488
-0.145711
-0.158728
-0.126299
-0.137712
-0.109495
-0.119309
-0.0952431
-0.103235
-0.0840741
-0.0889727
-0.0785915
-0.074504
-0.0880622
-0.0432153
-0.123446
-0.441976
-0.224893
-0.950044
-0.509035
-2.33655
-2.02495
-1.9512
-1.93472
-1.9311
-18.6423
-8.59443
-12.1396
-7.40766
-9.56497
-6.39357
-7.89471
-5.5177
-6.63335
-4.84191
-5.62384
-4.53756
-5.17058
-3.9281
-4.56569
-3.39996
-3.98782
-2.94273
-3.46626
-2.54662
-3.00594
-2.20347
-2.604
-1.90582
-2.2554
-1.64583
-1.95729
-1.41295
-1.72995
-1.26395
-0.876319
-1.12726
-0.776084
-0.949373
-0.665535
-0.805244
-0.568323
-0.685218
-0.484958
-0.583858
-0.413877
-0.497778
-0.353522
-0.424522
-0.302719
-0.362158
-0.260958
-0.309117
-0.229087
-0.264235
-0.214478
-0.243625
-0.185967
-0.215648
-0.161134
-0.188674
-0.13957
-0.164179
-0.120876
-0.142452
-0.104774
-0.123336
-0.0912091
-0.106375
-0.0808286
-0.0903575
-0.0766837
-0.0703753
-0.0895414
-0.0144988
-0.084963
-0.496181
-0.0935584
-1.06354
-0.214133
-2.64156
-2.04515
-1.95408
-1.93529
-1.93125
18.6423
8.59443
12.1396
7.40766
9.56497
6.39357
7.89471
5.5177
6.63335
4.84191
5.62384
4.53756
5.17058
3.9281
4.56569
3.39996
3.98782
2.94273
3.46626
2.54662
3.00594
2.20347
2.604
1.90582
2.2554
1.64583
1.95729
1.41295
1.72995
1.26395
0.876317
1.12726
0.776083
0.949373
0.665534
0.805243
0.568322
0.685218
0.484957
0.583857
0.413876
0.497777
0.353521
0.424521
0.302719
0.362158
0.260957
0.309117
0.229086
0.264234
0.214477
0.243625
0.185967
0.215648
0.161134
0.188673
0.139569
0.164179
0.120876
0.142452
0.104774
0.123336
0.0912089
0.106375
0.0808283
0.0903575
0.0766835
0.0703755
0.089541
0.0144996
0.0849626
0.496175
0.093558
1.06353
0.21413
2.64153
2.04513
1.95406
1.93527
1.93122
17.3388
9.75542
11.5723
8.02985
9.17836
6.80579
7.60332
5.82387
6.41481
5.07315
5.48906
4.67765
5.01439
4.08347
4.42016
3.54686
3.85766
3.07487
3.35182
2.66305
2.9061
2.30511
2.51709
1.99423
2.17933
1.72291
1.8883
1.48124
1.65327
1.27243
0.946518
1.0842
0.821871
0.914176
0.701723
0.775776
0.598378
0.660277
0.510316
0.562672
0.435383
0.479792
0.371765
0.40934
0.318124
0.34957
0.273775
0.299233
0.239286
0.257963
0.220795
0.236293
0.193095
0.208766
0.167931
0.182489
0.145712
0.158729
0.126299
0.137713
0.109496
0.119309
0.0952438
0.103236
0.0840748
0.0889735
0.0785921
0.0745048
0.0880626
0.0432163
0.123446
0.441972
0.224892
0.950033
0.50903
2.33652
2.02493
1.95118
1.93469
1.93108
16.339
10.5407
11.2197
8.46469
8.93287
7.09148
7.41529
6.0355
6.27386
5.23437
5.40366
4.7721
4.90919
4.18841
4.32329
3.64667
3.7715
3.16488
3.27626
2.74246
2.84027
2.37447
2.45981
2.05456
2.12915
1.77535
1.84242
1.52657
1.59891
1.2789
0.998346
1.05732
0.853634
0.89133
0.7266
0.756514
0.618998
0.643948
0.52771
0.5488
0.450138
0.468022
0.384293
0.399419
0.328723
0.341373
0.282636
0.292859
0.246426
0.254014
0.225088
0.231391
0.197946
0.204222
0.172584
0.17843
0.149931
0.155164
0.130032
0.134622
0.112754
0.116696
0.0980503
0.101237
0.0864087
0.0882506
0.0802947
0.0779741
0.088961
0.0669708
0.152429
0.409213
0.318557
0.883192
0.713196
2.11706
1.9952
1.946
1.93359
1.93077
15.5712
11.0668
11.0044
8.7706
8.77977
7.29057
7.29541
6.18241
6.18402
5.34724
5.35029
4.83581
4.83831
4.25913
4.2589
3.71443
3.7146
3.22617
3.22652
2.7966
2.79698
2.42179
2.42216
2.09569
2.09611
1.81095
1.81186
1.55638
1.56024
1.2838
1.0366
1.04094
0.875743
0.876582
0.743693
0.743951
0.633121
0.633268
0.539612
0.53972
0.460234
0.460318
0.392867
0.392933
0.335989
0.336032
0.28874
0.288751
0.251407
0.251525
0.227974
0.228081
0.201209
0.201196
0.175739
0.175745
0.1528
0.152815
0.132576
0.13259
0.114981
0.114987
0.0999839
0.099959
0.0880762
0.0879201
0.0817723
0.0809115
0.091179
0.0864279
0.17456
0.390352
0.386011
0.845737
0.854408
1.95862
1.96257
1.93935
1.9321
1.93035
14.9835
11.4153
10.8759
8.9868
8.68661
7.42991
7.22024
6.28473
6.12773
5.42653
5.31763
4.87884
4.7907
4.3067
4.21627
3.7604
3.67726
3.26792
3.19399
2.83354
2.76872
2.45408
2.39759
2.12375
2.0745
1.83511
1.79155
1.57582
1.53279
1.28753
1.06479
1.03134
0.891213
0.867186
0.755462
0.735834
0.642808
0.626342
0.547766
0.533825
0.467148
0.455317
0.398743
0.388728
0.340978
0.332586
0.292953
0.28614
0.254891
0.249985
0.229914
0.22585
0.203399
0.199188
0.177876
0.17398
0.154753
0.151276
0.134311
0.131264
0.116504
0.113879
0.101319
0.0991562
0.0892755
0.0878301
0.0830392
0.0834045
0.0939984
0.10217
0.191585
0.380297
0.434902
0.826323
0.951798
1.8442
1.93103
1.93206
1.93039
1.92987
14.5385
11.6426
10.8015
9.13945
8.63172
7.52736
7.17412
6.35593
6.09321
5.48212
5.29817
4.90785
4.75893
4.33853
4.18827
3.79147
3.65296
3.29625
3.17292
2.85866
2.75046
2.47606
2.38172
2.14283
2.06049
1.85144
1.77814
1.58836
1.51343
1.29036
1.08541
1.02602
0.902042
0.861301
0.76355
0.730656
0.649434
0.621903
0.553336
0.530042
0.47187
0.452108
0.402759
0.386035
0.344394
0.330392
0.295854
0.284508
0.257323
0.249052
0.231215
0.224357
0.204861
0.197866
0.179318
0.17283
0.156077
0.150279
0.13549
0.130407
0.117543
0.11317
0.10224
0.0986632
0.0901383
0.0878747
0.0841007
0.0854893
0.0969154
0.114664
0.204639
0.375607
0.470322
0.817548
1.01851
1.762
1.90291
1.92487
1.92864
1.92936
14.2094
11.7878
10.7598
9.24593
8.60069
7.59478
7.1466
6.40491
6.07263
5.52064
5.28696
4.92721
4.73802
4.35955
4.17013
3.81222
3.6374
3.31526
3.1595
2.87554
2.73885
2.49084
2.37163
2.15565
2.05156
1.86234
1.76939
1.5963
1.49999
1.29247
1.10021
1.02328
0.909545
0.8577
0.769046
0.727414
0.653915
0.619109
0.557098
0.527656
0.475059
0.450085
0.405472
0.38434
0.346707
0.329021
0.29783
0.283511
0.259
0.248504
0.232079
0.223371
0.205824
0.197007
0.18028
0.172091
0.156963
0.149642
0.136282
0.129863
0.118244
0.112724
0.102867
0.098369
0.0907516
0.0879808
0.0849566
0.0871733
0.0995803
0.124269
0.214453
0.373967
0.495641
0.814624
1.06352
1.7039
1.87956
1.91842
1.92701
1.92887
13.9771
11.8772
10.7377
9.31767
8.5841
7.63989
7.13083
6.43751
6.06085
5.54643
5.28081
4.93975
4.72469
4.37302
4.15874
3.82564
3.62774
3.32761
3.15121
2.88653
2.73169
2.50047
2.36542
2.164
2.04604
1.8694
1.76385
1.60118
1.49102
1.29397
1.1104
1.02202
0.914575
0.855573
0.772665
0.725449
0.656852
0.617404
0.559559
0.526199
0.477145
0.448849
0.407247
0.383308
0.348223
0.328192
0.299133
0.282923
0.260118
0.248195
0.232636
0.22274
0.206439
0.196466
0.180901
0.171631
0.157539
0.149248
0.136798
0.129528
0.118701
0.112452
0.103281
0.0982007
0.091172
0.0880978
0.0856037
0.0884506
0.101755
0.131254
0.221496
0.373841
0.513068
0.814503
1.09288
1.6644
1.86167
1.91317
1.92565
1.92847
13.8289
11.9282
10.7267
9.36196
8.57594
7.6676
7.12243
6.45746
6.05458
5.56228
5.27768
4.94726
4.71683
4.381
4.15211
3.83366
3.62217
3.33502
3.14645
2.89314
2.7276
2.50626
2.36187
2.16902
2.04287
1.87361
1.7606
1.60397
1.48552
1.29494
1.11679
1.02152
0.917671
0.854406
0.774858
0.724342
0.658625
0.616439
0.561044
0.525372
0.478402
0.448148
0.408318
0.382723
0.34914
0.327726
0.299924
0.282601
0.260803
0.248033
0.232968
0.222367
0.206803
0.19615
0.181271
0.171365
0.157884
0.149022
0.137108
0.129337
0.118977
0.112298
0.103533
0.0981112
0.0914352
0.0881926
0.086038
0.0893104
0.103282
0.135811
0.226054
0.37424
0.524007
0.815304
1.1105
1.63986
1.84962
1.90949
1.92467
1.92817
13.7567
11.9513
10.7223
9.38311
8.57268
7.68079
7.11882
6.46693
6.05189
5.56982
5.27639
4.95078
4.71319
4.38471
4.14906
3.83741
3.61963
3.3385
3.1443
2.89623
2.72575
2.50898
2.36025
2.17137
2.04143
1.87558
1.7591
1.60522
1.48291
1.29541
1.11987
1.02137
0.919146
0.853893
0.775893
0.723845
0.659459
0.616004
0.561742
0.524999
0.478994
0.447831
0.408822
0.38246
0.349571
0.327517
0.300298
0.282459
0.261128
0.247964
0.233123
0.222193
0.206971
0.196005
0.181444
0.171244
0.158046
0.148919
0.137253
0.12925
0.119107
0.112229
0.103652
0.0980729
0.0915619
0.0882448
0.0862561
0.089743
0.104068
0.13806
0.228295
0.374577
0.529285
0.81595
1.11876
1.6281
1.84356
1.90759
1.92416
1.92802
-13.6278
-11.9387
-10.8755
-9.86403
-9.32037
-8.8175
-8.53963
-8.26846
-8.11791
-7.96915
-7.86656
-7.73076
-7.63507
-7.5104
-7.42341
-7.31108
-7.23296
-7.13233
-7.0625
-6.97278
-6.91072
-6.83125
-6.77644
-6.70647
-6.65824
-6.59658
-6.55337
-6.4965
-6.45175
-6.38387
-6.32116
-6.28655
-6.25151
-6.22958
-6.20394
-6.18716
-6.16683
-6.15336
-6.1369
-6.12595
-6.11254
-6.10363
-6.09271
-6.08549
-6.07668
-6.0709
-6.06394
-6.0595
-6.05434
-6.05125
-6.04792
-6.0456
-6.04256
-6.04056
-6.0382
-6.03686
-6.03559
-6.03522
-6.03551
-6.03653
-6.0391
-6.04226
-6.04847
-6.05524
-6.0679
-6.08169
-6.10787
-6.13904
-6.20322
-6.29682
-6.50857
-6.80252
-7.06531
-7.50277
-7.92031
-8.58436
-8.86394
-8.94691
-8.96838
-8.97337
-13.6954
-11.9136
-10.8735
-9.84531
-9.31874
-8.8085
-8.53936
-8.26363
-8.11783
-7.9673
-7.86789
-7.72915
-7.63623
-7.50889
-7.42443
-7.30971
-7.23386
-7.13109
-7.06329
-6.97168
-6.91142
-6.83026
-6.77704
-6.7056
-6.65878
-6.59584
-6.55392
-6.49601
-6.45267
-6.38366
-6.32004
-6.28657
-6.25099
-6.22973
-6.20359
-6.1873
-6.16655
-6.15348
-6.13667
-6.12605
-6.11236
-6.10371
-6.09257
-6.08555
-6.07655
-6.07094
-6.06384
-6.05953
-6.05426
-6.05126
-6.04788
-6.04563
-6.04252
-6.04057
-6.03816
-6.03686
-6.03556
-6.03519
-6.03548
-6.03646
-6.03908
-6.04214
-6.04845
-6.05501
-6.06785
-6.0812
-6.10767
-6.13772
-6.20204
-6.2921
-6.50529
-6.80377
-7.05832
-7.50357
-7.91046
-8.59974
-8.8718
-8.94937
-8.96904
-8.97357
-13.8342
-11.8589
-10.8709
-9.80654
-9.31646
-8.78986
-8.53936
-8.25361
-8.11795
-7.96341
-7.87079
-7.72571
-7.63877
-7.50566
-7.42665
-7.30679
-7.23583
-7.12846
-7.06504
-6.96932
-6.91295
-6.82815
-6.77838
-6.70375
-6.65996
-6.59426
-6.55511
-6.49495
-6.45462
-6.38324
-6.3177
-6.28667
-6.24989
-6.23007
-6.20284
-6.18762
-6.16597
-6.15375
-6.1362
-6.12627
-6.11198
-6.10389
-6.09225
-6.08569
-6.0763
-6.07105
-6.06363
-6.05959
-6.05408
-6.05129
-6.04779
-6.04569
-6.04243
-6.04061
-6.03808
-6.03685
-6.03549
-6.03514
-6.03542
-6.03634
-6.03904
-6.04189
-6.04842
-6.05452
-6.06779
-6.08018
-6.10733
-6.13503
-6.19984
-6.28245
-6.49859
-6.80677
-7.0437
-7.5059
-7.8893
-8.63181
-8.88745
-8.95415
-8.97031
-8.97396
-14.0521
-11.7647
-10.8714
-9.74478
-9.31563
-8.76017
-8.54076
-8.23758
-8.11882
-7.95704
-7.87579
-7.71995
-7.64315
-7.50028
-7.43051
-7.30191
-7.23926
-7.12407
-7.06808
-6.96538
-6.91562
-6.82465
-6.78071
-6.70066
-6.66201
-6.59162
-6.55713
-6.49308
-6.45782
-6.38258
-6.31399
-6.287
-6.24811
-6.23071
-6.20161
-6.18819
-6.16501
-6.15423
-6.13543
-6.12667
-6.11135
-6.10421
-6.09174
-6.08595
-6.07587
-6.07124
-6.06329
-6.05972
-6.0538
-6.05134
-6.04765
-6.0458
-6.04228
-6.04067
-6.03794
-6.03685
-6.03537
-6.03506
-6.03534
-6.03614
-6.03899
-6.04149
-6.0484
-6.05375
-6.06775
-6.07857
-6.10696
-6.13086
-6.19692
-6.26746
-6.48821
-6.81263
-7.02008
-7.51139
-7.85378
-8.68336
-8.91065
-8.96095
-8.97207
-8.97449
-14.3614
-11.6148
-10.8813
-9.65513
-9.31986
-8.71704
-8.54552
-8.21418
-8.12141
-7.94744
-7.88378
-7.71102
-7.65017
-7.49196
-7.43672
-7.29439
-7.24479
-7.11731
-7.07299
-6.95933
-6.91993
-6.81926
-6.78448
-6.69591
-6.66534
-6.58755
-6.56034
-6.49007
-6.46261
-6.38165
-6.30862
-6.2878
-6.24548
-6.23181
-6.19976
-6.18916
-6.16356
-6.15503
-6.13426
-6.12732
-6.11039
-6.10474
-6.09095
-6.08637
-6.07523
-6.07157
-6.06276
-6.05994
-6.05338
-6.05144
-6.04744
-6.04598
-6.04206
-6.04078
-6.03773
-6.03687
-6.03521
-6.03496
-6.03524
-6.03586
-6.03896
-6.04091
-6.04845
-6.05263
-6.06785
-6.07625
-6.10677
-6.125
-6.19382
-6.24645
-6.47368
-6.82316
-6.9851
-7.52283
-7.79877
-8.75899
-8.94094
-8.96931
-8.97419
-8.97511
-14.7806
-11.3843
-10.9108
-9.52985
-9.33478
-8.65666
-8.55666
-8.18123
-8.12725
-7.93344
-7.89612
-7.69762
-7.66109
-7.47953
-7.44641
-7.28316
-7.25344
-7.10723
-7.08067
-6.9503
-6.9267
-6.81124
-6.7904
-6.68885
-6.67055
-6.58144
-6.56526
-6.48534
-6.46954
-6.38041
-6.30115
-6.28947
-6.24169
-6.23365
-6.19704
-6.19073
-6.16142
-6.15632
-6.13253
-6.12838
-6.10898
-6.1056
-6.0898
-6.08706
-6.07429
-6.0721
-6.062
-6.06031
-6.05277
-6.05162
-6.04712
-6.04625
-6.04173
-6.04095
-6.03744
-6.03692
-6.035
-6.03483
-6.03512
-6.03547
-6.03897
-6.04011
-6.04863
-6.05107
-6.06822
-6.07305
-6.10708
-6.11711
-6.19137
-6.21847
-6.45426
-6.8412
-6.93509
-7.54475
-7.7164
-8.86576
-8.97737
-8.97862
-8.97646
-8.97578
-15.3357
-11.0369
-10.9766
-9.35713
-9.36903
-8.57315
-8.57883
-8.13543
-8.13868
-7.91317
-7.91491
-7.67774
-7.67781
-7.46116
-7.46131
-7.26659
-7.26675
-7.09235
-7.0925
-6.93701
-6.93714
-6.79943
-6.79955
-6.67845
-6.67859
-6.57243
-6.57274
-6.47805
-6.47941
-6.37877
-6.29099
-6.29258
-6.23632
-6.23663
-6.19311
-6.19321
-6.15831
-6.15836
-6.13001
-6.13005
-6.10693
-6.10696
-6.08813
-6.08815
-6.07293
-6.07294
-6.0609
-6.06091
-6.05191
-6.05194
-6.04665
-6.04668
-6.04125
-6.04124
-6.03703
-6.03702
-6.03471
-6.03469
-6.035
-6.03497
-6.03908
-6.03901
-6.04905
-6.04892
-6.06908
-6.06868
-6.10835
-6.10666
-6.19081
-6.18214
-6.42879
-6.87096
-6.86444
-7.58418
-7.59491
-9.01404
-9.01821
-8.98807
-8.97868
-8.97641
-16.0627
-10.52
-11.1048
-9.11915
-9.43559
-8.45757
-8.61895
-8.07176
-8.15927
-7.88382
-7.94326
-7.64837
-7.7032
-7.43411
-7.484
-7.24222
-7.28704
-7.0705
-7.11055
-6.91748
-6.95309
-6.7821
-6.81355
-6.66321
-6.69089
-6.55915
-6.58402
-6.46692
-6.49335
-6.37662
-6.27724
-6.298
-6.22869
-6.24137
-6.18744
-6.1971
-6.1538
-6.16154
-6.12636
-6.13264
-6.10395
-6.10907
-6.0857
-6.08985
-6.07096
-6.07427
-6.05932
-6.06187
-6.05069
-6.05247
-6.04598
-6.04731
-6.04055
-6.04169
-6.03646
-6.03722
-6.03433
-6.03454
-6.03489
-6.0343
-6.03935
-6.03752
-6.04989
-6.04595
-6.07077
-6.06271
-6.11127
-6.09277
-6.19396
-6.13559
-6.39551
-6.91866
-6.76475
-7.65198
-7.41709
-9.21892
-9.06042
-8.99668
-8.98061
-8.97696
-17.0114
-9.75796
-11.3359
-8.78909
-9.55393
-8.29642
-8.68742
-7.98269
-8.19437
-7.84107
-7.98578
-7.605
-7.74154
-7.39431
-7.51836
-7.20639
-7.31778
-7.03838
-7.13793
-6.88881
-6.9773
-6.75668
-6.83482
-6.64084
-6.70956
-6.5396
-6.60097
-6.45004
-6.51302
-6.37378
-6.25869
-6.30702
-6.21777
-6.24877
-6.17923
-6.2031
-6.14726
-6.16643
-6.12105
-6.13663
-6.09962
-6.11231
-6.08217
-6.09246
-6.0681
-6.07633
-6.05704
-6.06338
-6.04895
-6.05333
-6.04499
-6.04828
-6.03954
-6.0424
-6.03564
-6.03756
-6.03382
-6.03438
-6.03482
-6.0334
-6.0399
-6.03545
-6.05137
-6.04184
-6.07377
-6.05448
-6.11687
-6.0741
-6.20349
-6.07632
-6.3517
-6.99345
-6.62341
-7.76466
-7.1578
-9.50221
-9.09885
-9.00339
-8.98205
-8.97736
-18.2502
-8.64264
-11.7319
-8.32653
-9.75314
-8.06931
-8.79969
-7.85695
-8.25204
-7.77837
-8.0493
-7.54092
-7.79921
-7.33563
-7.57013
-7.1536
-7.36413
-6.99107
-7.17923
-6.84661
-7.01385
-6.71928
-6.86694
-6.60794
-6.73776
-6.51078
-6.62639
-6.42458
-6.54075
-6.36994
-6.23359
-6.32153
-6.20203
-6.26017
-6.16726
-6.21227
-6.13769
-6.17389
-6.11328
-6.14271
-6.09329
-6.11726
-6.07701
-6.09646
-6.06392
-6.07948
-6.05372
-6.06571
-6.04644
-6.05469
-6.04352
-6.04971
-6.03805
-6.04348
-6.03446
-6.03813
-6.03314
-6.03421
-6.03482
-6.03218
-6.04088
-6.03256
-6.05387
-6.03607
-6.07881
-6.04298
-6.12667
-6.04853
-6.22328
-6.00094
-6.29323
-7.10872
-6.42164
-7.94728
-6.78048
-9.89545
-9.125
-9.00718
-8.98285
-8.97761
)
;

boundaryField
{
    F1_1
    {
        type            calculated;
        value           nonuniform List<scalar> 
80
(
18.9524
7.97412
11.9803
8.04166
9.87676
7.90541
8.86871
7.71542
8.28957
7.55197
7.90399
7.49005
7.7592
7.28742
7.55957
7.11077
7.36609
6.95372
7.18671
6.81416
7.0235
6.69115
6.87711
6.58363
6.74769
6.48979
6.63613
6.40623
6.55245
6.36502
6.21767
6.32801
6.19141
6.26517
6.15907
6.21629
6.13113
6.17717
6.10795
6.14539
6.08894
6.11945
6.07346
6.09822
6.06105
6.08086
6.05143
6.06669
6.04469
6.05517
6.0424
6.05026
6.03696
6.04387
6.0336
6.03825
6.03261
6.03395
6.03473
6.03132
6.0414
6.03075
6.05534
6.03258
6.08189
6.03617
6.1328
6.03364
6.23627
5.95868
6.25967
7.17844
6.30279
8.05984
6.55688
10.1242
9.13367
9.0082
8.98307
8.97769
)
;
    }
    F1_2
    {
        type            calculated;
        value           nonuniform List<scalar> 
80
(
-19.3803
-7.90285
-12.4886
-7.04099
-9.80088
-6.14989
-8.07154
-5.33656
-6.766
-4.70557
-5.70621
-4.45389
-5.26394
-3.83541
-4.65308
-3.31251
-4.06614
-2.86415
-3.53519
-2.47741
-3.06611
-2.14307
-2.65638
-1.85328
-2.30124
-1.59997
-1.99876
-1.37197
-1.77487
-1.25916
-0.835943
-1.1537
-0.749044
-0.970711
-0.6441
-0.82307
-0.550512
-0.700299
-0.46993
-0.59667
-0.401136
-0.508658
-0.34272
-0.433712
-0.293606
-0.369789
-0.25339
-0.315132
-0.223098
-0.268088