/*--------------------------------*- C++ -*----------------------------------*\
| =========                 |                                                 |
| \\      /  F ield         | OpenFOAM: The Open Source CFD Toolbox           |
|  \\    /   O peration     | Version:  5.x                                   |
|   \\  /    A nd           | Web:      www.OpenFOAM.org                      |
|    \\/     M anipulation  |                                                 |
\*---------------------------------------------------------------------------*/
FoamFile
{
    version     2.0;
    format      ascii;
    class       volScalarField;
    location    "5.6";
    object      T;
}
// * * * * * * * * * * * * * * * * * * * * * * * * * * * * * * * * * * * * * //

dimensions      [0 0 0 1 0 0 0];

internalField   nonuniform List<scalar> 
3200
(
2.08488
2.43606
2.45609
2.60094
2.61011
2.68244
2.68725
2.72911
2.73198
2.75849
2.76025
2.77558
2.77692
2.79364
2.79501
2.81096
2.81224
2.82691
2.82808
2.84134
2.84239
2.85423
2.85516
2.86561
2.86643
2.87564
2.87637
2.88466
2.88539
2.89417
2.90187
2.90242
2.9074
2.90777
2.91157
2.91186
2.9149
2.91513
2.9176
2.91779
2.9198
2.91995
2.92159
2.92172
2.92304
2.92314
2.92419
2.92427
2.92505
2.9251
2.92557
2.92561
2.92608
2.92611
2.92648
2.9265
2.9267
2.9267
2.92667
2.92665
2.92629
2.92623
2.92534
2.92522
2.92342
2.92319
2.9196
2.91911
2.9112
2.90981
2.88732
2.84808
2.8437
2.77991
2.77239
2.65308
2.64812
2.6475
2.64737
2.64734
2.26036
2.52905
2.5709
2.68678
2.70636
2.76419
2.77446
2.80783
2.81393
2.835
2.83875
2.85104
2.8539
2.86713
2.87002
2.88265
2.88536
2.89699
2.89946
2.90997
2.91219
2.92157
2.92355
2.93184
2.93358
2.94087
2.94243
2.94902
2.95059
2.95786
2.96433
2.96553
2.9695
2.97028
2.9733
2.97391
2.97632
2.97681
2.97877
2.97917
2.98077
2.98109
2.98239
2.98265
2.9837
2.98391
2.98474
2.98491
2.98553
2.98564
2.98601
2.9861
2.98647
2.98654
2.98683
2.98688
2.98703
2.98705
2.98702
2.98698
2.98669
2.98657
2.98586
2.98562
2.98418
2.98369
2.98081
2.97974
2.9733
2.97024
2.95059
2.91847
2.9091
2.85826
2.84243
2.74974
2.73929
2.73756
2.7372
2.73712
2.42509
2.63111
2.68275
2.77648
2.80107
2.84785
2.86074
2.88763
2.89528
2.91221
2.91691
2.92687
2.93046
2.94104
2.94464
2.95475
2.95813
2.96744
2.97052
2.97894
2.98171
2.98922
2.99168
2.99832
3.0005
3.00634
3.00829
3.01359
3.01556
3.02159
3.02701
3.02852
3.03172
3.03271
3.03513
3.03589
3.03782
3.03844
3.04
3.0405
3.04178
3.04219
3.04323
3.04356
3.0444
3.04466
3.04532
3.04553
3.04602
3.04616
3.04647
3.04657
3.04687
3.04696
3.04719
3.04725
3.04737
3.04739
3.04736
3.04732
3.04708
3.04694
3.04636
3.04606
3.04489
3.04428
3.04194
3.04059
3.03527
3.03134
3.01436
2.98795
2.97617
2.9352
2.91555
2.84312
2.8301
2.82756
2.82701
2.82689
2.58158
2.73934
2.79292
2.86894
2.89489
2.93286
2.94646
2.9682
2.97627
2.9899
2.99485
3.00297
3.00674
3.01522
3.019
3.02711
3.03066
3.03813
3.04137
3.04812
3.05104
3.05707
3.05966
3.06498
3.06727
3.07197
3.07401
3.07829
3.08038
3.08534
3.08984
3.09144
3.09404
3.09508
3.09703
3.09782
3.09938
3.10002
3.10128
3.1018
3.10283
3.10326
3.10409
3.10444
3.10511
3.10539
3.10592
3.10614
3.10653
3.10668
3.10693
3.10704
3.10727
3.10737
3.10755
3.10762
3.10771
3.10773
3.10771
3.10766
3.10747
3.10732
3.10685
3.10653
3.10559
3.10494
3.10303
3.10159
3.09718
3.09295
3.0785
3.05684
3.0444
3.01129
2.99078
2.93412
2.92049
2.91749
2.91681
2.91666
2.73176
2.85175
2.90218
2.96341
2.98824
3.01885
3.03186
3.04932
3.05702
3.06794
3.07267
3.07923
3.08284
3.08959
3.09319
3.09965
3.10304
3.10899
3.11208
3.11747
3.12024
3.12505
3.12752
3.13177
3.13395
3.13769
3.13965
3.14307
3.14508
3.14911
3.15279
3.15433
3.15642
3.15741
3.15897
3.15973
3.16097
3.16158
3.16259
3.16309
3.16391
3.16431
3.16498
3.16531
3.16585
3.16611
3.16654
3.16674
3.16705
3.16719
3.16739
3.1675
3.16769
3.16778
3.16792
3.16798
3.16806
3.16808
3.16806
3.16802
3.16786
3.16772
3.16734
3.16703
3.16627
3.16565
3.1641
3.16272
3.15908
3.15498
3.14293
3.12536
3.11345
3.08688
3.06745
3.0234
3.01046
3.00732
3.00658
3.00642
2.87714
2.96693
3.01102
3.05933
3.08135
3.10554
3.11708
3.13084
3.13765
3.14622
3.15042
3.15561
3.15881
3.16409
3.16727
3.17232
3.17531
3.17997
3.1827
3.18691
3.18937
3.19313
3.19531
3.19863
3.20056
3.2035
3.20522
3.20791
3.20969
3.21289
3.21582
3.21719
3.21884
3.21972
3.22094
3.22161
3.22259
3.22313
3.22391
3.22435
3.225
3.22535
3.22588
3.22617
3.22659
3.22682
3.22716
3.22733
3.22758
3.22771
3.22786
3.22796
3.2281
3.22818
3.2283
3.22835
3.22841
3.22843
3.22841
3.22837
3.22825
3.22812
3.22783
3.22755
3.22695
3.2264
3.22517
3.22393
3.22101
3.21732
3.20759
3.19366
3.1831
3.16219
3.1451
3.11144
3.10004
3.09706
3.09634
3.09617
3.01893
3.08394
3.11969
3.1563
3.17437
3.19274
3.20221
3.21263
3.21821
3.22469
3.22813
3.23208
3.2347
3.23866
3.24127
3.24507
3.24752
3.25102
3.25326
3.25643
3.25844
3.26127
3.26305
3.26556
3.26713
3.26935
3.27076
3.27279
3.27426
3.27668
3.27891
3.28004
3.28129
3.28201
3.28293
3.28349
3.28422
3.28466
3.28525
3.28561
3.2861
3.28639
3.28679
3.28702
3.28734
3.28753
3.28778
3.28793
3.28812
3.28822
3.28834
3.28841
3.28852
3.28859
3.28867
3.28872
3.28876
3.28877
3.28876
3.28873
3.28864
3.28853
3.28831
3.28808
3.28763
3.28717
3.28624
3.28522
3.28296
3.27991
3.27241
3.26183
3.25316
3.23734
3.22342
3.19858
3.18928
3.18671
3.18607
3.18592
3.15812
3.20213
3.22832
3.25401
3.26739
3.2803
3.2873
3.29461
3.29874
3.30327
3.30581
3.30859
3.31053
3.3133
3.31522
3.31787
3.31968
3.32213
3.32378
3.32599
3.32747
3.32945
3.33077
3.33252
3.33368
3.33523
3.33627
3.3377
3.33878
3.34048
3.34205
3.34289
3.34377
3.3443
3.34494
3.34535
3.34586
3.34619
3.3466
3.34687
3.34721
3.34742
3.3477
3.34788
3.3481
3.34824
3.34841
3.34852
3.34865
3.34873
3.34881
3.34887
3.34894
3.34899
3.34905
3.34908
3.34912
3.34912
3.34912
3.34909
3.34903
3.34895
3.34879
3.34863
3.34831
3.34797
3.34731
3.34655
3.34494
3.34267
3.33735
3.32991
3.3235
3.31242
3.30218
3.2851
3.27825
3.27628
3.27578
3.27566
3.29555
3.32102
3.33697
3.35222
3.36042
3.36809
3.37238
3.37672
3.37925
3.38193
3.38349
3.38514
3.38633
3.38797
3.38914
3.39071
3.39182
3.39327
3.39427
3.39558
3.39649
3.39766
3.39847
3.3995
3.40021
3.40113
3.40177
3.40261
3.40328
3.40429
3.40522
3.40573
3.40625
3.40658
3.40696
3.40721
3.40751
3.40772
3.40796
3.40812
3.40832
3.40846
3.40862
3.40873
3.40886
3.40894
3.40905
3.40911
3.40919
3.40924
3.40929
3.40932
3.40937
3.4094
3.40943
3.40945
3.40947
3.40947
3.40947
3.40945
3.40942
3.40937
3.40927
3.40917
3.40898
3.40878
3.40838
3.40792
3.40695
3.40555
3.40238
3.39796
3.39403
3.38746
3.38121
3.37122
3.36703
3.36579
3.36547
3.3654
3.43196
3.4403
3.44565
3.45071
3.45347
3.45601
3.45746
3.4589
3.45975
3.46064
3.46116
3.46171
3.46211
3.46265
3.46305
3.46357
3.46394
3.46442
3.46476
3.46519
3.4655
3.46589
3.46616
3.4665
3.46674
3.46704
3.46726
3.46754
3.46776
3.4681
3.4684
3.46858
3.46875
3.46886
3.46899
3.46907
3.46917
3.46924
3.46932
3.46937
3.46944
3.46949
3.46954
3.46958
3.46962
3.46965
3.46968
3.4697
3.46973
3.46975
3.46976
3.46977
3.46979
3.4698
3.46981
3.46982
3.46982
3.46982
3.46982
3.46982
3.46981
3.46979
3.46976
3.46972
3.46966
3.46959
3.46946
3.4693
3.46898
3.46851
3.46745
3.46599
3.46467
3.46249
3.46039
3.4571
3.45569
3.45527
3.45516
3.45513
3.43131
3.44022
3.44639
3.45306
3.45714
3.46158
3.46441
3.46765
3.46974
3.47214
3.47362
3.47524
3.47644
3.47807
3.47926
3.48081
3.4819
3.4833
3.48428
3.48552
3.48637
3.48745
3.4882
3.48914
3.48979
3.49062
3.49121
3.49197
3.49259
3.49352
3.4944
3.49489
3.4954
3.49573
3.49612
3.49638
3.4967
3.49692
3.49719
3.49738
3.4976
3.49776
3.49796
3.49809
3.49825
3.49836
3.4985
3.49859
3.49869
3.49876
3.49883
3.49889
3.49896
3.49902
3.49909
3.49914
3.49921
3.49926
3.49931
3.49935
3.4994
3.49944
3.49948
3.49951
3.49954
3.49956
3.49957
3.49955
3.49948
3.49931
3.49886
3.49813
3.49735
3.49592
3.4944
3.49187
3.49079
3.49046
3.49038
3.49036
3.29356
3.32076
3.33916
3.35928
3.37141
3.3848
3.39321
3.40301
3.40922
3.41646
3.42085
3.42574
3.4293
3.43423
3.43776
3.44244
3.4457
3.44993
3.45283
3.45656
3.45911
3.46237
3.46459
3.46743
3.46938
3.47187
3.47361
3.47592
3.47775
3.48057
3.48321
3.48468
3.48621
3.48719
3.48836
3.48914
3.49011
3.49076
3.49157
3.49212
3.49282
3.49328
3.49387
3.49426
3.49476
3.49509
3.4955
3.49576
3.49608
3.49628
3.4965
3.49667
3.4969
3.49706
3.49728
3.49743
3.49763
3.49777
3.49794
3.49806
3.49821
3.49832
3.49845
3.49853
3.49863
3.49868
3.49871
3.49865
3.49844
3.49793
3.49658
3.49438
3.49207
3.48776
3.48323
3.47556
3.47234
3.47138
3.47114
3.47108
3.15473
3.20165
3.23186
3.26582
3.28562
3.30823
3.32196
3.3385
3.34865
3.3609
3.36807
3.3763
3.3821
3.39045
3.39622
3.40414
3.40946
3.4166
3.42135
3.42765
3.43182
3.43733
3.44096
3.44576
3.44894
3.45315
3.45599
3.45989
3.46288
3.46762
3.47206
3.47446
3.47705
3.47864
3.48062
3.48189
3.48353
3.48459
3.48597
3.48687
3.48804
3.4888
3.48979
3.49043
3.49127
3.49181
3.4925
3.49294
3.49348
3.4938
3.49417
3.49444
3.49483
3.4951
3.49547
3.49572
3.49605
3.49628
3.49657
3.49677
3.49702
3.49719
3.49741
3.49755
3.49771
3.49779
3.49785
3.49776
3.49741
3.49659
3.49433
3.49064
3.48687
3.47961
3.47219
3.45908
3.4538
3.45227
3.45189
3.4518
3.01402
3.08321
3.12441
3.17293
3.19972
3.23201
3.2506
3.27426
3.288
3.30553
3.31524
3.32695
3.3348
3.34677
3.35459
3.36593
3.37315
3.38337
3.38981
3.39883
3.40448
3.41236
3.41729
3.42415
3.42846
3.43448
3.43833
3.4439
3.44793
3.45469
3.461
3.46424
3.46792
3.47008
3.47291
3.47463
3.47697
3.47841
3.48038
3.4816
3.48327
3.48431
3.48572
3.4866
3.48779
3.48852
3.48951
3.4901
3.49088
3.49132
3.49185
3.49221
3.49277
3.49313
3.49366
3.494
3.49448
3.49478
3.49521
3.49547
3.49584
3.49607
3.49638
3.49656
3.4968
3.49691
3.49699
3.49689
3.4964
3.49531
3.49215
3.4869
3.48181
3.47147
3.46137
3.44228
3.4351
3.43312
3.43262
3.43251
2.87054
2.9659
3.01666
3.0809
3.11361
3.15633
3.17903
3.21041
3.2272
3.25048
3.26233
3.27775
3.28734
3.30326
3.31281
3.32789
3.33671
3.3503
3.35816
3.37014
3.37704
3.38751
3.39353
3.40265
3.40791
3.4159
3.42061
3.42797
3.43288
3.44177
3.45006
3.454
3.45886
3.46149
3.46524
3.46735
3.47045
3.47221
3.47483
3.47632
3.47854
3.4798
3.48168
3.48275
3.48433
3.48523
3.48654
3.48727
3.4883
3.48883
3.48953
3.48997
3.49071
3.49116
3.49186
3.49227
3.49291
3.49328
3.49385
3.49417
3.49466
3.49494
3.49535
3.49558
3.4959
3.49604
3.49615
3.49602
3.49542
3.49411
3.49005
3.48316
3.47695
3.46332
3.45092
3.425
3.41621
3.41391
3.41335
3.41322
2.72325
2.85036
2.90838
2.99014
3.02709
3.08146
3.10712
3.14714
3.16614
3.19589
3.20927
3.22879
3.23963
3.26
3.27082
3.2901
3.30009
3.31745
3.32635
3.34166
3.34947
3.36284
3.36965
3.3813
3.38725
3.39745
3.40277
3.41213
3.41766
3.42888
3.43929
3.44372
3.44988
3.45285
3.45764
3.46002
3.46398
3.46597
3.46932
3.471
3.47384
3.47526
3.47767
3.47888
3.4809
3.48192
3.4836
3.48441
3.48573
3.48634
3.48723
3.48773
3.48867
3.48917
3.49007
3.49054
3.49136
3.49178
3.4925
3.49286
3.49349
3.4938
3.49434
3.49459
3.495
3.49516
3.49531
3.49518
3.49447
3.49301
3.48806
3.47939
3.4724
3.45512
3.441
3.40704
3.39705
3.39462
3.39405
3.39392
2.57087
2.73759
2.79914
2.90117
2.93988
3.00773
3.03463
3.08471
3.10465
3.14195
3.15597
3.18018
3.19153
3.21713
3.22849
3.25268
3.26317
3.28494
3.29428
3.31347
3.32167
3.33843
3.34558
3.36017
3.36642
3.3792
3.38478
3.39645
3.40222
3.41602
3.42876
3.43337
3.44103
3.44415
3.45013
3.45263
3.4576
3.45968
3.46387
3.46564
3.46919
3.47069
3.4737
3.47497
3.47752
3.47858
3.48068
3.48154
3.4832
3.48383
3.48494
3.48546
3.48664
3.48717
3.4883
3.4888
3.48982
3.49026
3.49116
3.49154
3.49233
3.49266
3.49333
3.4936
3.49411
3.49428
3.49449
3.49435
3.49354
3.49206
3.48621
3.47556
3.46826
3.44679
3.43188
3.38811
3.37758
3.37526
3.37474
3.37462
2.41182
2.62902
2.68829
2.81473
2.8515
2.93565
2.96121
3.02349
3.04246
3.08895
3.10227
3.13208
3.14286
3.17482
3.18564
3.21581
3.2258
3.25293
3.26182
3.28573
3.29353
3.3144
3.32121
3.33938
3.34532
3.36123
3.36654
3.38101
3.38646
3.40321
3.41856
3.4229
3.43237
3.43532
3.44277
3.44514
3.45132
3.45331
3.45852
3.46021
3.46463
3.46606
3.46981
3.47102
3.47419
3.47519
3.47782
3.47864
3.48071
3.48131
3.48267
3.48316
3.48465
3.48515
3.48656
3.48703
3.4883
3.48872
3.48984
3.49021
3.49119
3.4915
3.49234
3.49259
3.49324
3.4934
3.49368
3.49356
3.49264
3.49129
3.48456
3.47159
3.46468
3.43821
3.42391
3.36786
3.35779
3.35583
3.35541
3.35531
2.24409
2.52678
2.57475
2.73187
2.76122
2.86591
2.88632
2.964
2.97917
3.03727
3.0479
3.08473
3.09334
3.13336
3.14202
3.17975
3.18774
3.22164
3.22876
3.25862
3.26487
3.29094
3.29638
3.31908
3.32383
3.34369
3.34793
3.36592
3.37025
3.39045
3.40879
3.41222
3.42396
3.42632
3.4356
3.4375
3.44522
3.4468
3.45332
3.45466
3.46019
3.46133
3.46602
3.46698
3.47094
3.47175
3.47503
3.47569
3.47827
3.47875
3.48043
3.48083
3.48269
3.48309
3.48485
3.48523
3.48682
3.48715
3.48856
3.48885
3.49007
3.49033
3.49137
3.49157
3.49238
3.49251
3.49288
3.49279
3.49176
3.49072
3.48317
3.46737
3.46188
3.42913
3.41761
3.34577
3.33768
3.33634
3.33606
3.336
2.06505
2.43392
2.45685
2.65413
2.66793
2.79953
2.80914
2.90701
2.91416
2.98748
2.99249
3.03852
3.04257
3.09315
3.09724
3.14488
3.14864
3.19143
3.19478
3.23246
3.23541
3.2683
3.27087
3.2995
3.30174
3.32678
3.32877
3.35138
3.35339
3.37776
3.39963
3.40122
3.41593
3.41704
3.42873
3.42963
3.43935
3.4401
3.44832
3.44895
3.45592
3.45646
3.46238
3.46283
3.46782
3.4682
3.47235
3.47265
3.47592
3.47615
3.47825
3.47844
3.48078
3.48097
3.4832
3.48338
3.48539
3.48554
3.48732
3.48746
3.489
3.48912
3.49043
3.49053
3.49156
3.49162
3.49211
3.49207
3.49088
3.49042
3.4821
3.46275
3.46018
3.4192
3.41373
3.32113
3.3173
3.31681
3.31671
3.31669
2.06505
2.43392
2.45684
2.65413
2.66793
2.79953
2.80914
2.90701
2.91416
2.98748
2.99249
3.03852
3.04257
3.09315
3.09724
3.14488
3.14864
3.19143
3.19478
3.23246
3.23541
3.2683
3.27087
3.2995
3.30174
3.32677
3.32877
3.35138
3.35339
3.37776
3.39963
3.40122
3.41593
3.41704
3.42873
3.42963
3.43935
3.4401
3.44832
3.44895
3.45592
3.45646
3.46238
3.46283
3.46782
3.4682
3.47235
3.47265
3.47592
3.47615
3.47825
3.47844
3.48078
3.48097
3.4832
3.48338
3.48539
3.48554
3.48732
3.48746
3.489
3.48912
3.49043
3.49053
3.49156
3.49162
3.49211
3.49207
3.49088
3.49042
3.4821
3.46275
3.46018
3.41921
3.41373
3.32113
3.3173
3.31681
3.31672
3.31669
2.24409
2.52678
2.57475
2.73187
2.76122
2.8659
2.88632
2.964
2.97917
3.03727
3.0479
3.08473
3.09334
3.13336
3.14202
3.17975
3.18774
3.22164
3.22876
3.25862
3.26486
3.29094
3.29638
3.31908
3.32383
3.34369
3.34793
3.36592
3.37024
3.39045
3.40879
3.41222
3.42396
3.42632
3.4356
3.4375
3.44521
3.4468
3.45332
3.45466
3.46019
3.46133
3.46602
3.46698
3.47094
3.47175
3.47503
3.47569
3.47827
3.47875
3.48043
3.48083
3.48269
3.48309
3.48485
3.48523
3.48682
3.48715
3.48856
3.48885
3.49007
3.49033
3.49137
3.49157
3.49238
3.49251
3.49288
3.49279
3.49176
3.49072
3.48317
3.46737
3.46188
3.42913
3.41762
3.34577
3.33768
3.33635
3.33607
3.33601
2.41182
2.62902
2.68829
2.81472
2.85149
2.93565
2.96121
3.02349
3.04246
3.08895
3.10227
3.13207
3.14286
3.17482
3.18564
3.21581
3.2258
3.25293
3.26182
3.28572
3.29353
3.3144
3.32121
3.33938
3.34532
3.36123
3.36653
3.381
3.38646
3.40321
3.41856
3.4229
3.43237
3.43532
3.44276
3.44514
3.45132
3.45331
3.45852
3.46021
3.46463
3.46606
3.46981
3.47102
3.47418
3.47519
3.47782
3.47864
3.48071
3.48131
3.48267
3.48316
3.48465
3.48515
3.48656
3.48703
3.4883
3.48872
3.48984
3.49021
3.49119
3.4915
3.49234
3.49259
3.49324
3.4934
3.49368
3.49356
3.49264
3.49128
3.48456
3.47159
3.46468
3.43821
3.42391
3.36786
3.3578
3.35584
3.35541
3.35532
2.57087
2.73759
2.79914
2.90116
2.93988
3.00773
3.03462
3.08471
3.10464
3.14195
3.15597
3.18018
3.19153
3.21713
3.22849
3.25268
3.26317
3.28494
3.29428
3.31347
3.32167
3.33843
3.34558
3.36017
3.36642
3.3792
3.38478
3.39645
3.40222
3.41602
3.42876
3.43337
3.44103
3.44415
3.45013
3.45263
3.45759
3.45968
3.46387
3.46564
3.46919
3.47069
3.4737
3.47497
3.47752
3.47858
3.48068
3.48154
3.4832
3.48383
3.48493
3.48546
3.48664
3.48717
3.4883
3.4888
3.48982
3.49026
3.49116
3.49154
3.49233
3.49266
3.49333
3.4936
3.49411
3.49428
3.49449
3.49435
3.49354
3.49206
3.48621
3.47556
3.46826
3.44679
3.43188
3.38811
3.37759
3.37527
3.37474
3.37462
2.72325
2.85036
2.90838
2.99014
3.02709
3.08146
3.10711
3.14714
3.16614
3.19589
3.20927
3.22879
3.23963
3.26
3.27082
3.2901
3.30009
3.31745
3.32635
3.34166
3.34947
3.36284
3.36965
3.3813
3.38725
3.39745
3.40277
3.41213
3.41766
3.42888
3.43929
3.44372
3.44988
3.45285
3.45764
3.46002
3.46398
3.46597
3.46932
3.471
3.47384
3.47526
3.47767
3.47888
3.4809
3.48192
3.4836
3.48441
3.48573
3.48634
3.48723
3.48772
3.48867
3.48917
3.49007
3.49054
3.49136
3.49178
3.4925
3.49286
3.49349
3.4938
3.49433
3.49459
3.495
3.49516
3.49531
3.49518
3.49447
3.49301
3.48806
3.47939
3.4724
3.45512
3.441
3.40704
3.39705
3.39462
3.39405
3.39392
2.87054
2.9659
3.01666
3.0809
3.11361
3.15633
3.17903
3.21041
3.2272
3.25048
3.26233
3.27775
3.28734
3.30326
3.31281
3.32789
3.33671
3.3503
3.35816
3.37014
3.37704
3.38751
3.39353
3.40265
3.40791
3.4159
3.42061
3.42797
3.43288
3.44177
3.45006
3.454
3.45886
3.46149
3.46524
3.46735
3.47045
3.47221
3.47483
3.47631
3.47854
3.4798
3.48168
3.48275
3.48433
3.48523
3.48654
3.48727
3.4883
3.48883
3.48953
3.48997
3.49071
3.49116
3.49186
3.49227
3.49291
3.49328
3.49385
3.49417
3.49466
3.49494
3.49535
3.49558
3.4959
3.49604
3.49615
3.49602
3.49542
3.49411
3.49005
3.48316
3.47695
3.46332
3.45092
3.425
3.41621
3.41391
3.41335
3.41322
3.01402
3.08321
3.12441
3.17293
3.19972
3.23201
3.2506
3.27426
3.288
3.30553
3.31524
3.32695
3.3348
3.34677
3.35459
3.36593
3.37315
3.38337
3.38981
3.39883
3.40448
3.41236
3.41729
3.42415
3.42846
3.43448
3.43833
3.4439
3.44793
3.45469
3.461
3.46424
3.46792
3.47008
3.47291
3.47463
3.47697
3.47841
3.48038
3.4816
3.48327
3.48431
3.48572
3.4866
3.48779
3.48852
3.48951
3.4901
3.49088
3.49132
3.49185
3.49221
3.49277
3.49313
3.49366
3.494
3.49448
3.49478
3.49521
3.49547
3.49584
3.49607
3.49638
3.49656
3.4968
3.49691
3.49699
3.49689
3.4964
3.49531
3.49215
3.48691
3.48181
3.47147
3.46137
3.44228
3.43511
3.43312
3.43262
3.43251
3.15473
3.20165
3.23186
3.26582
3.28562
3.30823
3.32196
3.3385
3.34865
3.3609
3.36807
3.3763
3.3821
3.39045
3.39622
3.40414
3.40946
3.4166
3.42135
3.42765
3.43182
3.43733
3.44096
3.44576
3.44894
3.45315
3.45599
3.45989
3.46288
3.46762
3.47206
3.47446
3.47705
3.47864
3.48062
3.48189
3.48353
3.48459
3.48597
3.48687
3.48804
3.4888
3.48979
3.49043
3.49127
3.49181
3.4925
3.49294
3.49348
3.4938
3.49417
3.49444
3.49483
3.4951
3.49547
3.49572
3.49605
3.49628
3.49657
3.49677
3.49702
3.49719
3.49741
3.49755
3.49771
3.49779
3.49785
3.49776
3.49741
3.49659
3.49433
3.49064
3.48687
3.47961
3.47219
3.45908
3.4538
3.45227
3.45189
3.4518
3.29356
3.32076
3.33916
3.35928
3.37141
3.3848
3.39321
3.40301
3.40922
3.41646
3.42085
3.42574
3.4293
3.43423
3.43776
3.44244
3.4457
3.44993
3.45283
3.45656
3.45911
3.46237
3.46459
3.46743
3.46938
3.47187
3.47361
3.47592
3.47775
3.48057
3.48321
3.48468
3.48621
3.48719
3.48836
3.48914
3.49011
3.49076
3.49157
3.49212
3.49282
3.49328
3.49387
3.49426
3.49476
3.49509
3.4955
3.49576
3.49608
3.49628
3.4965
3.49667
3.4969
3.49706
3.49728
3.49743
3.49763
3.49777
3.49794
3.49806
3.49821
3.49832
3.49845
3.49853
3.49863
3.49868
3.49871
3.49865
3.49844
3.49793
3.49658
3.49438
3.49207
3.48776
3.48323
3.47556
3.47234
3.47138
3.47114
3.47108
3.43131
3.44022
3.44639
3.45306
3.45714
3.46158
3.46441
3.46765
3.46974
3.47214
3.47362
3.47524
3.47644
3.47807
3.47926
3.48081
3.4819
3.4833
3.48428
3.48552
3.48637
3.48745
3.4882
3.48914
3.48979
3.49062
3.49121
3.49197
3.49259
3.49352
3.4944
3.49489
3.4954
3.49573
3.49612
3.49638
3.4967
3.49692
3.49719
3.49738
3.4976
3.49776
3.49796
3.49809
3.49825
3.49836
3.4985
3.49859
3.49869
3.49876
3.49883
3.49889
3.49896
3.49902
3.49909
3.49914
3.49921
3.49926
3.49931
3.49935
3.4994
3.49944
3.49948
3.49951
3.49954
3.49956
3.49957
3.49955
3.49948
3.49931
3.49886
3.49813
3.49735
3.49592
3.4944
3.49187
3.49079
3.49046
3.49038
3.49036
3.43194
3.44028
3.44562
3.45066
3.4534
3.4559
3.4573
3.45865
3.45941
3.46015
3.46067
3.46134
3.46183
3.46245
3.46288
3.46344
3.46384
3.46434
3.46469
3.46513
3.46545
3.46584
3.46612
3.46647
3.46671
3.46702
3.46723
3.46752
3.46774
3.46808
3.46839
3.46857
3.46874
3.46885
3.46898
3.46906
3.46917
3.46923
3.46932
3.46937
3.46944
3.46948
3.46954
3.46957
3.46962
3.46965
3.46968
3.4697
3.46973
3.46974
3.46976
3.46977
3.46979
3.4698
3.46981
3.46982
3.46982
3.46982
3.46982
3.46982
3.4698
3.46979
3.46976
3.46972
3.46966
3.46959
3.46946
3.4693
3.46898
3.46851
3.46745
3.46599
3.46466
3.46249
3.46039
3.4571
3.45569
3.45527
3.45516
3.45513
3.2955
3.32095
3.33687
3.35206
3.3602
3.36775
3.37191
3.37598
3.37823
3.38047
3.382
3.38404
3.38547
3.38735
3.38865
3.39034
3.3915
3.39302
3.39406
3.39541
3.39634
3.39753
3.39835
3.3994
3.40013
3.40105
3.4017
3.40255
3.40322
3.40424
3.40518
3.4057
3.40623
3.40656
3.40694
3.40719
3.4075
3.4077
3.40795
3.40811
3.40831
3.40845
3.40861
3.40872
3.40885
3.40894
3.40904
3.40911
3.40918
3.40923
3.40928
3.40932
3.40936
3.40939
3.40943
3.40945
3.40947
3.40947
3.40947
3.40945
3.40941
3.40937
3.40927
3.40917
3.40898
3.40878
3.40838
3.40792
3.40695
3.40555
3.40238
3.39796
3.39403
3.38746
3.38121
3.37122
3.36703
3.36579
3.36547
3.3654
3.15804
3.202
3.22815
3.25375
3.26702
3.27973
3.28651
3.29338
3.29705
3.30081
3.30331
3.30676
3.3091
3.31227
3.3144
3.31725
3.31916
3.32172
3.32342
3.3257
3.32722
3.32924
3.33058
3.33235
3.33353
3.3351
3.33616
3.3376
3.33869
3.34041
3.34199
3.34284
3.34372
3.34426
3.34491
3.34532
3.34583
3.34616
3.34658
3.34685
3.34719
3.34741
3.34768
3.34786
3.34809
3.34823
3.3484
3.34851
3.34864
3.34872
3.3488
3.34886
3.34894
3.34899
3.34905
3.34908
3.34911
3.34912
3.34911
3.34909
3.34902
3.34895
3.34879
3.34862
3.3483
3.34797
3.34731
3.34655
3.34494
3.34267
3.33735
3.32991
3.3235
3.31242
3.30218
3.2851
3.27825
3.27628
3.27578
3.27566
3.01881
3.08377
3.11945
3.15593
3.17387
3.19195
3.20112
3.21091
3.21587
3.2212
3.22458
3.22953
3.2327
3.23723
3.24011
3.2442
3.24679
3.25045
3.25276
3.25602
3.25808
3.26097
3.26279
3.26533
3.26693
3.26917
3.2706
3.27265
3.27413
3.27658
3.27883
3.27997
3.28123
3.28195
3.28288
3.28344
3.28418
3.28462
3.28522
3.28559
3.28607
3.28637
3.28676
3.287
3.28732
3.28752
3.28777
3.28792
3.2881
3.28821
3.28833
3.2884
3.28851
3.28858
3.28867
3.28871
3.28876
3.28877
3.28876
3.28873
3.28863
3.28853
3.2883
3.28808
3.28763
3.28717
3.28624
3.28522
3.28296
3.2799
3.2724
3.26183
3.25315
3.23734
3.22342
3.19858
3.18928
3.18671
3.18607
3.18592
2.877
2.96671
3.01072
3.05885
3.08071
3.10453
3.1157
3.12863
3.13468
3.14167
3.1458
3.15236
3.15624
3.16226
3.16579
3.17121
3.17437
3.17923
3.18206
3.18639
3.18891
3.19274
3.19496
3.19834
3.20029
3.20327
3.20501
3.20773
3.20953
3.21276
3.21571
3.2171
3.21876
3.21964
3.22088
3.22155
3.22253
3.22308
3.22387
3.22432
3.22496
3.22532
3.22585
3.22614
3.22657
3.2268
3.22714
3.22732
3.22757
3.22769
3.22785
3.22794
3.22809
3.22817
3.22829
3.22834
3.2284
3.22842
3.22841
3.22837
3.22824
3.22812
3.22782
3.22755
3.22695
3.2264
3.22517
3.22393
3.221
3.21732
3.20758
3.19366
3.1831
3.16219
3.1451
3.11144
3.10004
3.09706
3.09634
3.09617
2.73159
2.85148
2.90183
2.96283
2.98747
3.01761
3.03021
3.04662
3.05344
3.06225
3.06691
3.07531
3.07969
3.08739
3.09138
3.09831
3.10189
3.1081
3.1113
3.11684
3.11968
3.12458
3.1271
3.13141
3.13362
3.13742
3.13939
3.14285
3.14488
3.14894
3.15266
3.15421
3.15632
3.15732
3.15889
3.15966
3.16091
3.16152
3.16254
3.16304
3.16386
3.16427
3.16495
3.16528
3.16582
3.16608
3.16651
3.16672
3.16704
3.16718
3.16738
3.16748
3.16767
3.16776
3.16791
3.16797
3.16805
3.16807
3.16805
3.16801
3.16785
3.16771
3.16734
3.16703
3.16627
3.16565
3.1641
3.16272
3.15908
3.15498
3.14293
3.12536
3.11345
3.08688
3.06745
3.0234
3.01046
3.00732
3.00658
3.00642
2.58138
2.73902
2.79251
2.86826
2.89401
2.93139
2.94457
2.965
2.97213
2.983
2.98787
2.99841
3.00302
3.01267
3.01686
3.02555
3.02931
3.03709
3.04045
3.04739
3.05037
3.05652
3.05916
3.06456
3.06688
3.07164
3.07371
3.07803
3.08014
3.08515
3.08969
3.09131
3.09393
3.09497
3.09693
3.09774
3.09931
3.09995
3.10122
3.10175
3.10278
3.10321
3.10405
3.1044
3.10508
3.10536
3.1059
3.10611
3.10651
3.10666
3.10691
3.10702
3.10726
3.10735
3.10754
3.1076
3.1077
3.10772
3.1077
3.10766
3.10746
3.10731
3.10685
3.10653
3.10558
3.10493
3.10303
3.10159
3.09718
3.09295
3.0785
3.05684
3.0444
3.01129
2.99077
2.93412
2.92049
2.91749
2.91681
2.91666
2.42487
2.63074
2.68229
2.77569
2.80009
2.84615
2.85863
2.88391
2.89067
2.90398
2.90861
2.92175
2.92614
2.93817
2.94215
2.95298
2.95656
2.96625
2.96945
2.9781
2.98094
2.9886
2.9911
2.99784
3.00005
3.00597
3.00794
3.01329
3.01529
3.02137
3.02684
3.02836
3.03159
3.03259
3.03503
3.03579
3.03774
3.03836
3.03994
3.04044
3.04173
3.04213
3.04318
3.04351
3.04436
3.04463
3.0453
3.0455
3.046
3.04614
3.04644
3.04655
3.04685
3.04694
3.04717
3.04723
3.04736
3.04738
3.04735
3.04731
3.04707
3.04693
3.04635
3.04605
3.04489
3.04427
3.04193
3.04058
3.03526
3.03133
3.01435
2.98794
2.97616
2.9352
2.91555
2.84312
2.8301
2.82756
2.82701
2.82689
2.26013
2.52862
2.57041
2.68587
2.7053
2.76224
2.77219
2.80357
2.80895
2.82532
2.82901
2.84544
2.84895
2.86399
2.86718
2.8807
2.88356
2.89568
2.89824
2.90904
2.91131
2.92088
2.92288
2.9313
2.93306
2.94046
2.94203
2.94869
2.95027
2.95761
2.96414
2.96535
2.96935
2.97014
2.97319
2.9738
2.97623
2.97672
2.9787
2.9791
2.9807
2.98103
2.98234
2.9826
2.98366
2.98387
2.98471
2.98487
2.9855
2.98561
2.98599
2.98607
2.98645
2.98652
2.98681
2.98686
2.98702
2.98703
2.98701
2.98697
2.98668
2.98656
2.98585
2.98561
2.98417
2.98368
2.9808
2.97973
2.9733
2.97024
2.95059
2.91846
2.9091
2.85825
2.84243
2.74974
2.73929
2.73756
2.7372
2.73712
2.08465
2.43558
2.45558
2.5999
2.60901
2.68022
2.68488
2.72426
2.72678
2.74716
2.74889
2.76965
2.77131
2.79028
2.79179
2.80885
2.8102
2.82549
2.82669
2.84032
2.84139
2.85346
2.85441
2.86502
2.86586
2.87518
2.87592
2.88429
2.88503
2.89389
2.90166
2.90222
2.90724
2.90761
2.91144
2.91173
2.9148
2.91503
2.91752
2.91771
2.91973
2.91989
2.92154
2.92166
2.923
2.9231
2.92415
2.92423
2.92502
2.92507
2.92554
2.92558
2.92606
2.92609
2.92646
2.92648
2.92668
2.92669
2.92666
2.92664
2.92627
2.92622
2.92533
2.92521
2.92341
2.92318
2.9196
2.9191
2.91119
2.90981
2.88732
2.84807
2.8437
2.77991
2.77239
2.65307
2.64812
2.64749
2.64737
2.64734
)
;

boundaryField
{
    F1_1
    {
        type            fixedValue;
        value           nonuniform List<scalar> 
80
(
1.99012
2.39619
2.39619
2.56073
2.56073
2.64291
2.64291
2.69053
2.69053
2.72073
2.72073
2.73813
2.73813
2.75721
2.75721
2.77541
2.77541
2.79214
2.79214
2.80727
2.80727
2.82077
2.82077
2.8327
2.8327
2.84319
2.84319
2.85262
2.85262
2.86234
2.87078
2.87078
2.87644
2.87644
2.88078
2.88078
2.88424
2.88424
2.88706
2.88706
2.88936
2.88936
2.89123
2.89123
2.89274
2.89274
2.89393
2.89393
2.89483
2.89483
2.89536
2.89536
2.89589
2.89589
2.89631
2.89631
2.89653
2.89653
2.8965
2.8965
2.89608
2.89608
2.89506
2.89506
2.89301
2.89301
2.88894
2.88894
2.88002
2.88002
2.85603
2.81218
2.81218
2.73961
2.73961
2.60246
2.60246
2.60246
2.60246
2.60246
)
;
    }
    F1_2
    {
        type            fixedValue;
        value           nonuniform List<scalar> 
80
(
1.96815
2.3944
2.3944
2.61892
2.61892
2.76878
2.76878
2.88033
2.88033
2.96396
2.96396
3.01625
3.01625
3.07397
3.07397
3.12831
3.12831
3.17711
3.17711
3.22008
3.22008
3.25758
3.25758
3.29023
3.29023
3.31878
3.31878
3.34452
3.34452
3.37146
3.39545
3.39545
3.41219
3.41219
3.42551
3.42551
3.4366
3.4366
3.44597
3.44597
3.45392
3.45392
3.46066
3.46066
3.46635
3.46635
3.47108
3.47108
3.47481
3.47481
3.4772
3.4772
3.47987
3.47987
3.48242
3.48242
3.48471
3.48471
3.48673
3.48673
3.48849
3.48849
3.48999
3.48999
3.49116
3.49116
3.49173
3.49173
3.49043
3.49043
3.48178
3.4601
3.4601
3.41353
3.41353
3.30704
3.30704
3.30704
3.30704
3.30704
)
;
    }
    F1_3
    {
        type            fixedValue;
        value           nonuniform List<scalar> 
80
(
1.96815
2.3944
2.3944
2.61892
2.61892
2.76878
2.76878
2.88033
2.88033
2.96395
2.96395
3.01625
3.01625
3.07397
3.07397
3.12831
3.12831
3.17711
3.17711
3.22008
3.22008
3.25758
3.25758
3.29023
3.29023
3.31877
3.31877
3.34452
3.34452
3.37146
3.39545
3.39545
3.41218
3.41218
3.42551
3.42551
3.4366
3.4366
3.44597
3.44597
3.45392
3.45392
3.46066
3.46066
3.46635
3.46635
3.47108
3.47108
3.47481
3.47481
3.4772
3.4772
3.47987
3.47987
3.48242
3.48242
3.48471
3.48471
3.48673
3.48673
3.48849
3.48849
3.48999
3.48999
3.49116
3.49116
3.49173
3.49173
3.49043
3.49043
3.48178
3.4601
3.4601
3.41353
3.41353
3.30704
3.30704
3.30704
3.30704
3.30704
)
;
    }
    F1_4
    {
        type            fixedValue;
        value           nonuniform List<scalar> 
80
(
1.98989
2.39567
2.39567
2.55962
2.55962
2.64054
2.64054
2.68534
2.68534
2.70846
2.70846
2.73214
2.73214
2.75378
2.75378
2.77324
2.77324
2.79067
2.79067
2.80621
2.80621
2.81998
2.81998
2.83208
2.83208
2.84271
2.84271
2.85224
2.85224
2.86205
2.87057
2.87057
2.87628
2.87628
2.88064
2.88064
2.88414
2.88414
2.88697
2.88697
2.88929
2.88929
2.89117
2.89117
2.89269
2.89269
2.8939
2.8939
2.89479
2.89479
2.89533
2.89533
2.89587
2.89587
2.89629
2.89629
2.89652
2.89652
2.89648
2.89648
2.89607
2.89607
2.89505
2.89505
2.893
2.893
2.88893
2.88893
2.88001
2.88001
2.85602
2.81218
2.81218
2.73961
2.73961
2.60245
2.60245
2.60245
2.60245
2.60245
)
;
    }
    F2_1
    {
        type            fixedValue;
        value           uniform 3.5;
    }
    F2_2
    {
        type            fixedValue;
        value           uniform 3.5;
    }
    F2_3
    {
        type            fixedValue;
        value           uniform 3.5;
    }
    F2_4
    {
        type            fixedValue;
        value           uniform 3.5;
    }
    defaultFaces
    {
        type            empty;
    }
}


// ************************************************************************* //
