/*--------------------------------*- C++ -*----------------------------------*\
| =========                 |                                                 |
| \\      /  F ield         | OpenFOAM: The Open Source CFD Toolbox           |
|  \\    /   O peration     | Version:  5.x                                   |
|   \\  /    A nd           | Web:      www.OpenFOAM.org                      |
|    \\/     M anipulation  |                                                 |
\*---------------------------------------------------------------------------*/
FoamFile
{
    version     2.0;
    format      ascii;
    class       volScalarField;
    location    "0.2";
    object      T;
}
// * * * * * * * * * * * * * * * * * * * * * * * * * * * * * * * * * * * * * //

dimensions      [0 0 0 1 0 0 0];

internalField   nonuniform List<scalar> 
6300
(
322.842
322.527
322.21
321.892
321.572
321.249
320.923
320.593
320.258
319.919
319.576
319.227
318.872
318.513
318.149
322.843
322.528
322.212
321.895
321.575
321.253
320.927
320.597
320.263
319.924
319.581
319.232
318.878
318.518
318.154
322.843
322.53
322.215
321.899
321.581
321.259
320.935
320.606
320.273
319.935
319.591
319.243
318.888
318.529
318.164
322.844
322.533
322.22
321.906
321.589
321.27
320.947
320.619
320.287
319.95
319.607
319.259
318.905
318.545
318.179
322.846
322.537
322.227
321.915
321.601
321.284
320.963
320.638
320.307
319.971
319.63
319.282
318.927
318.566
318.2
322.847
322.542
322.235
321.927
321.616
321.302
320.984
320.661
320.333
319.999
319.658
319.311
318.956
318.595
318.226
322.85
322.548
322.246
321.941
321.634
321.324
321.009
320.69
320.364
320.032
319.693
319.347
318.992
318.63
318.259
322.852
322.556
322.258
321.958
321.656
321.35
321.04
320.724
320.402
320.073
319.737
319.391
319.036
318.672
318.299
322.855
322.564
322.272
321.978
321.682
321.381
321.076
320.765
320.448
320.123
319.789
319.445
319.09
318.725
318.348
322.858
322.574
322.288
322.001
321.711
321.417
321.118
320.813
320.501
320.181
319.851
319.509
319.155
318.788
318.407
322.862
322.585
322.307
322.027
321.744
321.457
321.166
320.868
320.563
320.249
319.924
319.586
319.234
318.865
318.479
322.866
322.597
322.327
322.055
321.781
321.502
321.22
320.931
320.634
320.328
320.01
319.678
319.329
318.96
318.569
322.87
322.61
322.349
322.086
321.821
321.553
321.28
321.001
320.715
320.419
320.111
319.788
319.445
319.078
318.684
322.875
322.624
322.373
322.12
321.865
321.607
321.346
321.079
320.805
320.523
320.228
319.917
319.584
319.224
318.832
322.88
322.639
322.398
322.156
321.912
321.666
321.417
321.164
320.905
320.638
320.361
320.068
319.751
319.401
319.015
317.811
317.5
317.187
316.871
316.552
316.232
315.909
315.585
315.259
314.932
314.604
314.276
313.946
313.617
313.287
312.957
312.627
312.298
311.97
311.642
311.315
310.988
310.663
310.338
310.015
309.691
309.369
309.047
308.727
308.406
308.087
307.768
307.451
307.134
306.817
306.502
306.187
305.873
305.559
305.246
304.933
304.62
304.308
303.996
303.684
303.372
303.06
302.749
302.438
302.126
301.815
301.504
301.193
300.882
300.57
300.258
299.946
299.633
299.32
299.006
298.692
298.377
298.062
297.746
297.43
297.114
296.797
296.479
296.161
295.842
295.523
295.203
294.882
294.56
294.238
293.915
293.592
293.268
292.943
292.619
292.293
291.967
291.64
291.312
290.983
290.652
290.321
289.987
289.652
289.316
317.815
317.505
317.191
316.874
316.556
316.235
315.912
315.587
315.261
314.934
314.606
314.277
313.947
313.617
313.287
312.957
312.627
312.298
311.969
311.641
311.314
310.988
310.662
310.338
310.014
309.691
309.368
309.047
308.726
308.406
308.086
307.767
307.45
307.133
306.816
306.501
306.186
305.872
305.559
305.246
304.933
304.62
304.308
303.996
303.684
303.372
303.06
302.749
302.438
302.126
301.815
301.504
301.193
300.882
300.571
300.259
299.946
299.634
299.32
299.006
298.692
298.377
298.062
297.747
297.431
297.114
296.798
296.48
296.162
295.843
295.524
295.204
294.883
294.561
294.239
293.916
293.592
293.268
292.944
292.619
292.294
291.968
291.641
291.313
290.985
290.654
290.323
289.989
289.654
289.318
317.825
317.513
317.199
316.882
316.562
316.241
315.917
315.592
315.266
314.938
314.609
314.279
313.949
313.618
313.287
312.957
312.626
312.297
311.967
311.639
311.312
310.986
310.66
310.336
310.012
309.689
309.367
309.045
308.724
308.404
308.084
307.766
307.448
307.131
306.815
306.499
306.185
305.871
305.558
305.245
304.932
304.62
304.308
303.996
303.684
303.372
303.06
302.749
302.437
302.126
301.815
301.505
301.194
300.883
300.572
300.26
299.948
299.635
299.322
299.008
298.693
298.379
298.063
297.748
297.432
297.116
296.799
296.482
296.164
295.845
295.526
295.205
294.884
294.563
294.24
293.917
293.593
293.269
292.945
292.621
292.295
291.97
291.644
291.316
290.988
290.658
290.327
289.994
289.659
289.322
317.839
317.527
317.211
316.893
316.572
316.25
315.925
315.599
315.272
314.943
314.613
314.283
313.951
313.62
313.288
312.956
312.625
312.295
311.965
311.637
311.309
310.983
310.658
310.334
310.01
309.687
309.365
309.043
308.722
308.401
308.082
307.763
307.445
307.128
306.812
306.497
306.183
305.87
305.557
305.244
304.932
304.62
304.307
303.995
303.683
303.371
303.059
302.748
302.437
302.126
301.815
301.505
301.195
300.884
300.573
300.262
299.95
299.637
299.324
299.01
298.695
298.38
298.065
297.749
297.434
297.117
296.801
296.484
296.166
295.848
295.529
295.208
294.887
294.565
294.242
293.919
293.595
293.271
292.947
292.622
292.298
291.973
291.647
291.321
290.993
290.664
290.334
290.001
289.666
289.329
317.858
317.544
317.227
316.908
316.586
316.262
315.936
315.609
315.28
314.95
314.619
314.288
313.955
313.622
313.289
312.956
312.623
312.292
311.962
311.633
311.305
310.979
310.654
310.33
310.007
309.684
309.362
309.04
308.719
308.398
308.078
307.759
307.441
307.124
306.808
306.494
306.18
305.867
305.555
305.243
304.931
304.619
304.307
303.995
303.683
303.371
303.059
302.747
302.436
302.125
301.815
301.506
301.196
300.886
300.576
300.264
299.953
299.64
299.326
299.012
298.697
298.382
298.067
297.751
297.435
297.12
296.804
296.487
296.17
295.852
295.533
295.212
294.891
294.568
294.245
293.921
293.597
293.272
292.948
292.624
292.3
291.976
291.652
291.327
291.001
290.673
290.343
290.011
289.676
289.339
317.883
317.567
317.248
316.926
316.602
316.276
315.949
315.62
315.291
314.96
314.627
314.294
313.959
313.624
313.289
312.954
312.62
312.288
311.956
311.627
311.3
310.974
310.65
310.326
310.004
309.681
309.359
309.037
308.716
308.394
308.073
307.754
307.435
307.118
306.803
306.489
306.176
305.865
305.553
305.242
304.931
304.62
304.308
303.995
303.682
303.37
303.057
302.745
302.434
302.124
301.815
301.506
301.197
300.888
300.579
300.268
299.957
299.644
299.33
299.016
298.7
298.384
298.069
297.753
297.437
297.122
296.807
296.491
296.175
295.857
295.538
295.218
294.896
294.573
294.248
293.924
293.598
293.274
292.949
292.625
292.302
291.98
291.657
291.334
291.01
290.684
290.356
290.025
289.69
289.352
317.913
317.595
317.273
316.948
316.621
316.293
315.964
315.634
315.303
314.971
314.637
314.302
313.965
313.628
313.29
312.952
312.616
312.281
311.949
311.619
311.292
310.967
310.644
310.322
310
309.678
309.357
309.034
308.712
308.39
308.068
307.747
307.428
307.111
306.796
306.483
306.171
305.861
305.552
305.242
304.932
304.621
304.309
303.996
303.682
303.368
303.055
302.743
302.432
302.122
301.814
301.506
301.199
300.892
300.583
300.274
299.963
299.65
299.336
299.02
298.703
298.387
298.07
297.754
297.439
297.125
296.81
296.496
296.181
295.864
295.546
295.225
294.903
294.578
294.253
293.926
293.6
293.274
292.949
292.626
292.304
291.983
291.663
291.343
291.022
290.699
290.373
290.043
289.709
289.37
317.95
317.628
317.301
316.973
316.643
316.312
315.981
315.65
315.318
314.984
314.649
314.312
313.973
313.632
313.29
312.949
312.609
312.272
311.938
311.608
311.281
310.958
310.636
310.316
309.997
309.676
309.355
309.032
308.709
308.384
308.061
307.738
307.418
307.1
306.786
306.474
306.165
305.857
305.55
305.242
304.934
304.623
304.311
303.997
303.682
303.366
303.052
302.738
302.427
302.118
301.811
301.506
301.201
300.896
300.59
300.282
299.971
299.658
299.343
299.025
298.707
298.388
298.071
297.754
297.44
297.126
296.814
296.502
296.189
295.874
295.556
295.236
294.912
294.586
294.258
293.929
293.6
293.272
292.947
292.624
292.304
291.986
291.669
291.353
291.036
290.717
290.395
290.067
289.734
289.394
317.994
317.666
317.334
317
316.666
316.332
315.999
315.667
315.335
315.001
314.665
314.325
313.983
313.637
313.29
312.944
312.599
312.258
311.922
311.592
311.267
310.946
310.628
310.311
309.994
309.676
309.355
309.032
308.706
308.379
308.052
307.726
307.404
307.086
306.772
306.463
306.157
305.853
305.549
305.245
304.938
304.629
304.316
304
303.682
303.364
303.046
302.731
302.419
302.111
301.806
301.504
301.203
300.902
300.599
300.293
299.983
299.67
299.352
299.032
298.71
298.389
298.069
297.752
297.438
297.127
296.818
296.509
296.199
295.887
295.571
295.251
294.926
294.596
294.264
293.931
293.598
293.267
292.94
292.618
292.3
291.986
291.674
291.364
291.054
290.741
290.423
290.1
289.768
289.427
318.046
317.71
317.37
317.028
316.688
316.351
316.017
315.685
315.354
315.022
314.685
314.344
313.997
313.645
313.29
312.936
312.584
312.238
311.899
311.569
311.246
310.93
310.617
310.306
309.994
309.679
309.36
309.035
308.706
308.374
308.041
307.71
307.384
307.065
306.753
306.447
306.145
305.847
305.55
305.25
304.947
304.639
304.325
304.006
303.684
303.36
303.038
302.719
302.407
302.1
301.798
301.501
301.206
300.91
300.612
300.31
300.001
299.687
299.366
299.04
298.713
298.387
298.064
297.746
297.433
297.125
296.82
296.517
296.213
295.905
295.592
295.272
294.945
294.611
294.272
293.931
293.592
293.257
292.928
292.606
292.291
291.982
291.677
291.376
291.074
290.771
290.461
290.144
289.814
289.472
318.109
317.762
317.408
317.054
316.706
316.365
316.031
315.703
315.376
315.048
314.713
314.37
314.018
313.658
313.291
312.924
312.561
312.207
311.865
311.536
311.218
310.908
310.605
310.303
309.999
309.69
309.372
309.046
308.711
308.37
308.027
307.687
307.356
307.035
306.724
306.423
306.13
305.841
305.553
305.262
304.964
304.658
304.343
304.018
303.687
303.354
303.023
302.7
302.385
302.08
301.784
301.495
301.209
300.923
300.632
300.335
300.029
299.712
299.386
299.052
298.715
298.38
298.051
297.731
297.42
297.117
296.821
296.526
296.231
295.931
295.622
295.303
294.973
294.632
294.283
293.93
293.58
293.237
292.904
292.583
292.272
291.971
291.677
291.387
291.098
290.808
290.512
290.204
289.88
289.535
318.187
317.823
317.447
317.074
316.713
316.368
316.038
315.718
315.402
315.082
314.753
314.41
314.053
313.679
313.295
312.905
312.524
312.159
311.813
311.486
311.176
310.879
310.591
310.304
310.013
309.712
309.397
309.068
308.724
308.369
308.008
307.654
307.313
306.989
306.682
306.39
306.109
305.835
305.561
305.282
304.993
304.69
304.373
304.04
303.695
303.344
302.999
302.667
302.35
302.048
301.761
301.484
301.212
300.941
300.663
300.374
300.071
299.751
299.416
299.068
298.713
298.364
298.026
297.704
297.396
297.102
296.817
296.537
296.257
295.968
295.668
295.351
295.017
294.665
294.299
293.925
293.558
293.203
292.865
292.544
292.24
291.949
291.67
291.396
291.124
290.854
290.578
290.288
289.974
289.627
318.291
317.901
317.481
317.077
316.697
316.351
316.03
315.729
315.435
315.131
314.813
314.472
314.11
313.718
313.305
312.875
312.466
312.084
311.735
311.412
311.116
310.838
310.574
310.313
310.04
309.753
309.444
309.114
308.755
308.375
307.979
307.601
307.246
306.921
306.619
306.34
306.078
305.827
305.578
305.317
305.042
304.744
304.425
304.078
303.71
303.325
302.957
302.611
302.293
301.996
301.723
301.464
301.216
300.968
300.708
300.433
300.135
299.814
299.465
299.093
298.704
298.331
297.979
297.655
297.352
297.072
296.805
296.55
296.293
296.023
295.736
295.424
295.086
294.718
294.324
293.912
293.517
293.143
292.801
292.482
292.188
291.912
291.653
291.401
291.149
290.906
290.664
290.407
290.114
289.767
318.442
318.025
317.492
317.044
316.633
316.298
315.991
315.733
315.481
315.199
314.906
314.566
314.21
313.787
313.339
312.814
312.371
311.96
311.619
311.3
311.031
310.776
310.556
310.337
310.088
309.827
309.522
309.2
308.816
308.406
307.924
307.516
307.136
306.819
306.521
306.268
306.029
305.819
305.611
305.373
305.123
304.83
304.519
304.147
303.75
303.282
302.885
302.514
302.204
301.912
301.663
301.427
301.22
301.013
300.776
300.526
300.232
299.919
299.545
299.144
298.67
298.268
297.891
297.575
297.276
297.021
296.778
296.564
296.349
296.102
295.841
295.531
295.202
294.805
294.378
293.873
293.443
293.04
292.702
292.382
292.11
291.851
291.627
291.406
291.162
290.957
290.772
290.576
290.334
289.998
318.685
318.313
317.383
316.958
316.461
316.204
315.885
315.725
315.572
315.282
315.067
314.685
314.405
313.894
313.485
312.634
312.229
311.737
311.471
311.118
310.923
310.667
310.535
310.404
310.153
309.964
309.626
309.375
308.914
308.541
307.763
307.392
306.936
306.69
306.36
306.177
305.936
305.811
305.686
305.447
305.266
304.94
304.699
304.253
303.892
303.136
302.775
302.331
302.09
301.766
301.586
301.348
301.225
301.101
300.862
300.682
300.356
300.113
299.664
299.299
298.534
298.168
297.715
297.47
297.138
296.953
296.708
296.58
296.451
296.203
296.013
295.669
295.412
294.935
294.545
293.726
293.332
292.843
292.577
292.214
292.012
291.74
291.597
291.445
291.117
290.981
290.895
290.811
290.687
290.435
288.944
288.536
288.126
287.715
287.304
286.892
286.479
286.068
285.656
285.246
284.836
284.427
284.019
283.611
283.204
288.946
288.537
288.127
287.716
287.304
286.891
286.479
286.067
285.655
285.245
284.835
284.426
284.018
283.611
283.204
288.949
288.541
288.13
287.718
287.305
286.891
286.478
286.066
285.654
285.243
284.833
284.425
284.017
283.61
283.203
288.956
288.546
288.134
287.72
287.305
286.891
286.477
286.063
285.651
285.24
284.831
284.422
284.015
283.609
283.203
288.964
288.553
288.139
287.723
287.306
286.89
286.474
286.06
285.647
285.236
284.826
284.419
284.012
283.607
283.202
288.976
288.563
288.146
287.727
287.307
286.888
286.47
286.054
285.641
285.23
284.821
284.414
284.009
283.605
283.201
288.993
288.575
288.154
287.731
287.307
286.885
286.464
286.047
285.632
285.221
284.813
284.407
284.004
283.602
283.2
289.014
288.592
288.165
287.735
287.306
286.879
286.456
286.036
285.621
285.21
284.802
284.398
283.997
283.597
283.199
289.043
288.613
288.177
287.739
287.303
286.87
286.443
286.021
285.605
285.194
284.789
284.387
283.988
283.592
283.197
289.081
288.641
288.192
287.742
287.296
286.856
286.424
286
285.584
285.174
284.771
284.372
283.978
283.586
283.195
289.135
288.676
288.208
287.741
287.282
286.833
286.396
285.971
285.555
285.148
284.748
284.354
283.964
283.577
283.192
289.209
288.721
288.223
287.732
287.257
286.799
286.358
285.932
285.518
285.115
284.72
284.331
283.948
283.567
283.189
289.316
288.774
288.231
287.709
287.215
286.748
286.305
285.88
285.471
285.073
284.685
284.304
283.928
283.555
283.185
289.472
288.83
288.217
287.656
287.145
286.674
286.232
285.813
285.411
285.022
284.643
284.271
283.904
283.541
283.18
289.696
288.857
288.149
287.554
287.036
286.569
286.137
285.729
285.339
284.961
284.594
284.233
283.877
283.525
283.175
322.885
322.654
322.423
322.191
321.958
321.723
321.486
321.247
321.003
320.754
320.498
320.228
319.935
319.596
319.16
322.889
322.667
322.445
322.223
322
321.776
321.551
321.325
321.096
320.866
320.631
320.39
320.135
319.841
319.406
322.894
322.681
322.468
322.256
322.043
321.83
321.617
321.404
321.191
320.98
320.769
320.562
320.361
320.183
320.112
322.898
322.695
322.491
322.288
322.086
321.884
321.683
321.483
321.286
321.093
320.905
320.729
320.571
320.452
320.4
322.903
322.708
322.514
322.321
322.128
321.937
321.748
321.561
321.378
321.202
321.035
320.882
320.756
320.674
320.679
322.907
322.722
322.537
322.353
322.17
321.989
321.811
321.636
321.467
321.304
321.153
321.018
320.909
320.836
320.809
322.912
322.735
322.559
322.384
322.211
322.039
321.871
321.708
321.55
321.4
321.261
321.137
321.036
320.966
320.945
322.916
322.748
322.58
322.414
322.25
322.088
321.929
321.775
321.627
321.487
321.357
321.241
321.142
321.063
321.007
322.92
322.76
322.601
322.443
322.287
322.134
321.984
321.839
321.7
321.568
321.445
321.333
321.233
321.144
321.057
322.924
322.772
322.62
322.47
322.322
322.177
322.036
321.899
321.767
321.642
321.525
321.417
321.317
321.225
321.142
322.927
322.783
322.639
322.496
322.356
322.218
322.084
321.955
321.83
321.712
321.6
321.494
321.395
321.299
321.198
322.931
322.793
322.656
322.521
322.387
322.257
322.13
322.007
321.889
321.776
321.669
321.568
321.471
321.378
321.289
322.934
322.803
322.673
322.544
322.417
322.293
322.173
322.056
321.944
321.837
321.735
321.639
321.545
321.452
321.349
322.937
322.812
322.688
322.566
322.445
322.327
322.213
322.102
321.996
321.894
321.798
321.707
321.62
321.534
321.451
322.94
322.821
322.703
322.586
322.471
322.359
322.25
322.145
322.044
321.948
321.858
321.773
321.693
321.615
321.525
322.943
322.829
322.717
322.605
322.496
322.389
322.285
322.185
322.089
321.999
321.913
321.835
321.764
321.704
321.671
322.946
322.837
322.729
322.623
322.518
322.416
322.317
322.222
322.131
322.045
321.965
321.892
321.828
321.775
321.737
322.948
322.844
322.741
322.639
322.539
322.442
322.347
322.256
322.169
322.087
322.012
321.943
321.883
321.836
321.81
322.95
322.851
322.752
322.654
322.559
322.465
322.375
322.287
322.204
322.126
322.053
321.988
321.93
321.883
321.846
322.952
322.857
322.762
322.668
322.576
322.487
322.4
322.316
322.236
322.16
322.09
322.027
321.971
321.924
321.891
322.954
322.862
322.771
322.681
322.593
322.506
322.423
322.342
322.265
322.191
322.123
322.06
322.004
321.955
321.913
322.956
322.867
322.78
322.693
322.608
322.525
322.444
322.365
322.29
322.219
322.152
322.09
322.033
321.982
321.94
322.957
322.872
322.787
322.704
322.622
322.541
322.463
322.387
322.314
322.244
322.178
322.116
322.058
322.003
321.953
322.959
322.876
322.795
322.714
322.634
322.556
322.48
322.406
322.335
322.267
322.201
322.139
322.079
322.022
321.964
322.96
322.88
322.801
322.723
322.646
322.57
322.496
322.424
322.354
322.287
322.222
322.16
322.1
322.041
321.984
322.961
322.884
322.807
322.731
322.656
322.583
322.51
322.44
322.372
322.306
322.242
322.18
322.119
322.059
321.998
322.962
322.887
322.813
322.739
322.666
322.594
322.524
322.455
322.388
322.323
322.26
322.199
322.138
322.079
322.02
322.963
322.89
322.818
322.746
322.675
322.605
322.536
322.469
322.403
322.34
322.277
322.217
322.157
322.097
322.035
322.964
322.893
322.822
322.752
322.683
322.614
322.547
322.482
322.417
322.355
322.294
322.234
322.176
322.118
322.061
322.965
322.896
322.827
322.758
322.69
322.623
322.558
322.493
322.431
322.369
322.309
322.251
322.195
322.139
322.08
322.966
322.898
322.831
322.763
322.697
322.632
322.567
322.504
322.443
322.382
322.324
322.267
322.213
322.161
322.117
322.967
322.9
322.834
322.768
322.703
322.639
322.576
322.514
322.454
322.395
322.337
322.282
322.229
322.179
322.133
322.967
322.902
322.837
322.773
322.709
322.646
322.584
322.523
322.464
322.406
322.349
322.295
322.243
322.195
322.152
322.968
322.904
322.84
322.777
322.714
322.652
322.591
322.531
322.473
322.416
322.36
322.307
322.255
322.207
322.161
322.969
322.906
322.843
322.781
322.719
322.658
322.598
322.539
322.481
322.424
322.37
322.316
322.266
322.217
322.173
322.969
322.907
322.845
322.784
322.723
322.663
322.604
322.545
322.488
322.432
322.378
322.325
322.274
322.225
322.178
322.969
322.908
322.848
322.787
322.727
322.668
322.609
322.551
322.495
322.439
322.385
322.332
322.281
322.232
322.185
322.97
322.91
322.849
322.79
322.73
322.672
322.614
322.557
322.5
322.445
322.391
322.339
322.287
322.237
322.188
322.97
322.911
322.851
322.792
322.734
322.675
322.618
322.561
322.506
322.451
322.397
322.344
322.292
322.242
322.191
322.971
322.912
322.853
322.794
322.736
322.679
322.622
322.566
322.51
322.456
322.402
322.349
322.297
322.246
322.195
322.971
322.912
322.854
322.796
322.739
322.682
322.625
322.569
322.514
322.46
322.406
322.354
322.302
322.25
322.199
322.971
322.913
322.855
322.798
322.741
322.684
322.628
322.573
322.518
322.464
322.41
322.358
322.306
322.254
322.203
322.971
322.914
322.857
322.799
322.743
322.686
322.631
322.576
322.521
322.467
322.414
322.361
322.31
322.258
322.207
322.971
322.914
322.857
322.801
322.744
322.688
322.633
322.578
322.524
322.47
322.417
322.365
322.313
322.262
322.212
322.972
322.915
322.858
322.802
322.746
322.69
322.635
322.58
322.526
322.473
322.42
322.368
322.317
322.266
322.215
322.972
322.915
322.859
322.803
322.747
322.692
322.637
322.582
322.528
322.475
322.422
322.371
322.32
322.27
322.221
322.972
322.916
322.859
322.804
322.748
322.693
322.638
322.584
322.53
322.477
322.425
322.373
322.322
322.273
322.224
322.972
322.916
322.86
322.804
322.749
322.694
322.639
322.585
322.531
322.478
322.426
322.375
322.324
322.275
322.227
322.972
322.916
322.86
322.805
322.749
322.694
322.64
322.586
322.532
322.479
322.427
322.376
322.326
322.276
322.228
322.972
322.916
322.86
322.805
322.749
322.695
322.64
322.586
322.533
322.48
322.428
322.377
322.327
322.277
322.228
322.972
322.916
322.86
322.805
322.75
322.695
322.64
322.586
322.533
322.48
322.428
322.377
322.327
322.277
322.229
322.972
322.916
322.86
322.805
322.749
322.695
322.64
322.586
322.533
322.48
322.428
322.377
322.327
322.277
322.229
322.972
322.916
322.86
322.804
322.749
322.694
322.64
322.586
322.532
322.48
322.428
322.377
322.326
322.277
322.228
322.972
322.916
322.86
322.804
322.749
322.694
322.639
322.585
322.531
322.479
322.427
322.376
322.326
322.276
322.228
322.972
322.916
322.859
322.803
322.748
322.693
322.638
322.584
322.53
322.477
322.425
322.374
322.324
322.275
322.227
322.972
322.915
322.859
322.803
322.747
322.691
322.636
322.582
322.528
322.475
322.423
322.372
322.322
322.273
322.225
322.972
322.915
322.858
322.802
322.746
322.69
322.635
322.58
322.526
322.473
322.421
322.37
322.319
322.27
322.222
322.971
322.914
322.857
322.801
322.744
322.688
322.633
322.578
322.524
322.47
322.418
322.366
322.316
322.267
322.22
322.971
322.914
322.856
322.799
322.742
322.686
322.63
322.575
322.521
322.467
322.414
322.362
322.312
322.262
322.214
322.971
322.913
322.855
322.798
322.74
322.684
322.627
322.572
322.517
322.463
322.41
322.358
322.306
322.257
322.209
322.971
322.912
322.854
322.796
322.738
322.681
322.624
322.568
322.513
322.459
322.405
322.353
322.301
322.249
322.197
322.97
322.911
322.852
322.794
322.735
322.678
322.621
322.564
322.509
322.454
322.4
322.347
322.295
322.243
322.191
322.97
322.91
322.851
322.791
322.733
322.674
322.617
322.56
322.504
322.449
322.394
322.341
322.288
322.236
322.183
322.97
322.909
322.849
322.789
322.729
322.67
322.612
322.555
322.498
322.443
322.388
322.335
322.282
322.229
322.177
322.969
322.908
322.847
322.786
322.726
322.666
322.607
322.549
322.492
322.437
322.382
322.328
322.275
322.222
322.17
322.969
322.906
322.844
322.783
322.722
322.661
322.602
322.543
322.486
322.43
322.375
322.321
322.268
322.216
322.165
322.968
322.905
322.842
322.779
322.717
322.656
322.595
322.536
322.478
322.422
322.367
322.313
322.26
322.209
322.158
322.968
322.903
322.839
322.775
322.712
322.65
322.589
322.529
322.47
322.413
322.358
322.304
322.252
322.202
322.154
322.967
322.901
322.836
322.771
322.706
322.643
322.581
322.52
322.461
322.403
322.348
322.294
322.243
322.195
322.149
322.966
322.899
322.832
322.766
322.7
322.636
322.572
322.511
322.451
322.392
322.337
322.283
322.232
322.185
322.14
322.965
322.897
322.828
322.76
322.693
322.627
322.563
322.5
322.439
322.38
322.324
322.27
322.22
322.173
322.131
322.965
322.894
322.824
322.754
322.685
322.618
322.552
322.488
322.426
322.366
322.309
322.255
322.204
322.158
322.115
322.964
322.891
322.819
322.747
322.677
322.608
322.54
322.475
322.411
322.35
322.292
322.237
322.186
322.14
322.102
322.963
322.888
322.813
322.74
322.667
322.597
322.527
322.46
322.395
322.333
322.273
322.217
322.165
322.117
322.075
322.961
322.884
322.807
322.732
322.657
322.584
322.513
322.444
322.377
322.313
322.252
322.194
322.14
322.09
322.051
322.96
322.88
322.801
322.723
322.646
322.57
322.497
322.426
322.358
322.292
322.229
322.169
322.112
322.056
321.997
322.959
322.876
322.794
322.713
322.633
322.555
322.48
322.407
322.336
322.269
322.204
322.142
322.083
322.025
321.969
322.957
322.871
322.786
322.702
322.62
322.539
322.461
322.385
322.313
322.243
322.177
322.114
322.053
321.993
321.93
322.955
322.866
322.777
322.69
322.604
322.521
322.44
322.362
322.287
322.216
322.148
322.084
322.022
321.963
321.907
322.953
322.86
322.768
322.677
322.588
322.501
322.417
322.336
322.259
322.186
322.117
322.052
321.99
321.931
321.87
322.951
322.854
322.758
322.663
322.57
322.479
322.392
322.308
322.229
322.154
322.084
322.018
321.957
321.9
321.847
322.949
322.847
322.747
322.647
322.55
322.456
322.365
322.278
322.195
322.118
322.047
321.981
321.921
321.866
321.811
322.947
322.84
322.735
322.63
322.529
322.43
322.334
322.243
322.158
322.078
322.006
321.94
321.882
321.831
321.789
322.944
322.832
322.721
322.612
322.505
322.401
322.301
322.206
322.116
322.034
321.96
321.894
321.838
321.791
321.76
322.941
322.824
322.707
322.592
322.479
322.37
322.264
322.164
322.07
321.984
321.908
321.842
321.787
321.74
321.691
322.938
322.814
322.692
322.57
322.451
322.336
322.224
322.118
322.019
321.928
321.848
321.782
321.73
321.691
321.66
322.935
322.804
322.675
322.547
322.421
322.299
322.18
322.067
321.961
321.865
321.78
321.712
321.663
321.638
321.635
322.931
322.794
322.658
322.522
322.389
322.259
322.133
322.012
321.897
321.793
321.701
321.628
321.581
321.569
321.603
322.928
322.783
322.639
322.496
322.355
322.217
322.082
321.951
321.827
321.712
321.609
321.526
321.473
321.469
321.546
322.924
322.772
322.62
322.469
322.32
322.172
322.027
321.886
321.75
321.622
321.504
321.404
321.331
321.312
321.412
289.93
288.76
287.985
287.39
286.889
286.441
286.027
285.636
285.26
284.897
284.542
284.193
283.849
283.508
283.169
289.531
288.399
287.709
287.177
286.718
286.301
285.911
285.54
285.181
284.832
284.491
284.154
283.822
283.492
283.164
287.939
287.73
287.324
286.911
286.518
286.143
285.783
285.434
285.095
284.762
284.435
284.112
283.793
283.475
283.158
287.316
287.197
286.944
286.633
286.305
285.974
285.646
285.323
285.004
284.689
284.377
284.069
283.762
283.456
283.152
286.734
286.758
286.603
286.367
286.093
285.803
285.506
285.208
284.91
284.613
284.317
284.023
283.73
283.438
283.146
286.472
286.442
286.319
286.126
285.893
285.636
285.368
285.093
284.815
284.536
284.256
283.977
283.697
283.418
283.139
286.203
286.191
286.083
285.914
285.708
285.478
285.233
284.98
284.721
284.459
284.195
283.93
283.665
283.399
283.133
286.083
286.008
285.888
285.729
285.54
285.33
285.105
284.871
284.629
284.384
284.135
283.884
283.632
283.38
283.127
285.988
285.855
285.72
285.563
285.386
285.192
284.984
284.766
284.541
284.31
284.076
283.839
283.601
283.361
283.12
285.826
285.705
285.566
285.413
285.245
285.063
284.869
284.666
284.455
284.239
284.019
283.795
283.57
283.342
283.114
285.72
285.566
285.422
285.272
285.113
284.942
284.761
284.571
284.374
284.171
283.964
283.753
283.539
283.324
283.108
285.548
285.42
285.282
285.139
284.988
284.828
284.659
284.481
284.297
284.106
283.911
283.712
283.511
283.307
283.102
285.436
285.282
285.146
285.011
284.869
284.72
284.562
284.396
284.223
284.044
283.861
283.673
283.483
283.291
283.097
285.246
285.13
285.01
284.887
284.757
284.618
284.471
284.316
284.154
283.986
283.813
283.636
283.457
283.275
283.092
285.108
284.981
284.876
284.767
284.649
284.522
284.385
284.241
284.089
283.931
283.768
283.602
283.432
283.26
283.087
284.838
284.816
284.745
284.654
284.548
284.432
284.305
284.17
284.028
283.88
283.726
283.569
283.408
283.246
283.082
284.717
284.686
284.629
284.55
284.455
284.348
284.231
284.104
283.971
283.831
283.687
283.538
283.387
283.233
283.078
284.583
284.574
284.527
284.457
284.371
284.272
284.162
284.044
283.918
283.787
283.65
283.51
283.366
283.22
283.074
284.516
284.487
284.441
284.376
284.296
284.203
284.1
283.988
283.87
283.745
283.616
283.483
283.347
283.209
283.07
284.435
284.413
284.368
284.305
284.229
284.141
284.043
283.937
283.825
283.707
283.585
283.458
283.329
283.198
283.066
284.393
284.356
284.307
284.244
284.17
284.085
283.992
283.891
283.784
283.672
283.556
283.436
283.313
283.189
283.063
284.344
284.307
284.255
284.191
284.117
284.035
283.945
283.849
283.747
283.64
283.529
283.415
283.298
283.18
283.06
284.321
284.269
284.211
284.145
284.071
283.991
283.904
283.811
283.713
283.611
283.505
283.396
283.284
283.171
283.057
284.301
284.236
284.171
284.103
284.03
283.951
283.866
283.776
283.682
283.584
283.483
283.378
283.272
283.164
283.055
284.265
284.202
284.135
284.065
283.992
283.914
283.832
283.745
283.654
283.56
283.462
283.362
283.26
283.157
283.052
284.241
284.169
284.1
284.03
283.957
283.881
283.8
283.716
283.628
283.537
283.444
283.348
283.25
283.15
283.05
284.201
284.135
284.066
283.997
283.925
283.85
283.771
283.69
283.605
283.517
283.427
283.334
283.24
283.144
283.048
284.175
284.102
284.033
283.965
283.894
283.821
283.745
283.665
283.583
283.498
283.411
283.322
283.231
283.139
283.046
284.13
284.065
284
283.934
283.865
283.794
283.72
283.643
283.563
283.481
283.397
283.311
283.223
283.134
283.045
284.097
284.03
283.968
283.904
283.838
283.769
283.697
283.623
283.545
283.466
283.384
283.3
283.216
283.13
283.043
284.032
283.99
283.936
283.876
283.813
283.746
283.677
283.604
283.529
283.451
283.372
283.291
283.209
283.126
283.042
284.004
283.959
283.908
283.851
283.79
283.725
283.658
283.587
283.514
283.439
283.361
283.283
283.203
283.122
283.041
283.972
283.932
283.884
283.829
283.77
283.707
283.64
283.572
283.5
283.427
283.352
283.275
283.197
283.119
283.04
283.956
283.912
283.863
283.809
283.751
283.69
283.625
283.558
283.488
283.416
283.343
283.268
283.192
283.116
283.039
283.938
283.895
283.846
283.793
283.736
283.675
283.612
283.546
283.477
283.407
283.335
283.262
283.188
283.113
283.038
283.928
283.882
283.832
283.779
283.722
283.662
283.6
283.535
283.468
283.399
283.328
283.257
283.184
283.111
283.037
283.918
283.871
283.821
283.767
283.711
283.651
283.589