/*--------------------------------*- C++ -*----------------------------------*\
| =========                 |                                                 |
| \\      /  F ield         | OpenFOAM: The Open Source CFD Toolbox           |
|  \\    /   O peration     | Version:  5.x                                   |
|   \\  /    A nd           | Web:      www.OpenFOAM.org                      |
|    \\/     M anipulation  |                                                 |
\*---------------------------------------------------------------------------*/
FoamFile
{
    version     2.0;
    format      ascii;
    class       volScalarField;
    location    "17.7";
    object      gradTy;
}
// * * * * * * * * * * * * * * * * * * * * * * * * * * * * * * * * * * * * * //

dimensions      [0 -1 0 1 0 0 0];

internalField   nonuniform List<scalar> 
6300
(
32284.1
32252.1
32220.1
32187.9
32155.4
32122.6
32089.5
32055.9
32021.8
31987.3
31952.1
31916.4
31880.1
31843.2
31805.7
0.0533405
0.159525
0.264187
0.366196
0.464266
0.556908
0.64241
0.718859
0.784205
0.836381
0.873495
0.894076
0.897365
0.883586
0.854147
0.0894537
0.267573
0.443265
0.614714
0.779823
0.936127
1.08076
1.21045
1.32166
1.41072
1.47421
1.50935
1.51458
1.49006
1.43812
0.126356
0.378048
0.626588
0.869579
1.10419
1.32703
1.53406
1.72057
1.88129
2.01068
2.10332
2.15461
2.16163
2.12404
2.04499
0.164279
0.491677
0.815466
1.13283
1.44034
1.73377
2.00791
2.2565
2.47232
2.64746
2.77387
2.84426
2.8534
2.79963
2.68647
0.203365
0.608917
1.01078
1.40594
1.7906
2.15984
2.50734
2.82526
3.10411
3.33307
3.50055
3.59532
3.60826
3.53481
3.37773
0.243628
0.729855
1.21279
1.68957
2.15631
2.60767
3.03644
3.43316
3.7859
4.08031
4.30012
4.42839
4.44974
4.35382
4.14006
0.284924
0.85409
1.42097
1.98327
2.53743
3.07815
3.59765
4.08514
4.52617
4.90232
5.19142
5.36857
5.40869
5.2909
5.00566
0.326906
0.980614
1.63376
2.28511
2.93205
3.56989
4.19098
4.78371
5.33146
5.81158
6.19484
6.44595
6.52566
6.39545
6.02627
0.368994
1.10771
1.84836
2.59139
3.33583
4.07847
4.81276
5.52741
6.20456
6.81783
7.33051
7.69471
7.85233
7.7385
7.28801
0.410356
1.23288
2.06061
2.89631
3.74146
4.59546
5.45431
6.30875
7.14167
7.92474
8.61457
9.14964
9.44951
9.41662
8.9336
0.449916
1.35284
2.26491
3.19179
4.13831
5.1077
6.10037
7.11171
8.12873
9.12483
10.053
10.8387
11.3771
11.5404
11.1779
0.486389
1.46366
2.45442
3.46768
4.51233
5.59675
6.72784
7.9091
9.13671
10.3926
11.6331
12.7727
13.6745
14.1789
14.2244
0.518372
1.56099
2.62144
3.71219
4.84663
6.03918
7.30525
8.66018
10.1163
11.6756
13.3127
14.9409
16.3591
17.2485
17.6692
0.544478
1.64051
2.75816
3.91305
5.12284
6.40816
7.79385
9.31009
10.9928
12.8804
14.9999
17.3141
19.5548
20.7269
17.9701
31770.8
31738.6
31706.2
31673.4
31640.2
31606.8
31573.1
31539.2
31505.1
31470.7
31436.2
31401.5
31366.7
31331.7
31296.7
31261.6
31226.5
31191.4
31156.2
31121.1
31086
31051
31016
30981
30946.1
30911.3
30876.4
30841.7
30807
30772.4
30737.8
30703.4
30669
30634.8
30600.6
30566.6
30532.6
30498.8
30465.1
30431.5
30397.9
30364.5
30331.2
30297.9
30264.7
30231.7
30198.7
30165.9
30133.2
30100.6
30068.1
30035.7
30003.5
29971.3
29939.3
29907.3
29875.4
29843.7
29812
29780.3
29748.8
29717.4
29686.1
29654.8
29623.7
29592.7
29561.8
29531
29500.2
29469.5
29438.9
29408.4
29377.9
29347.5
29317.2
29286.9
29256.6
29226.5
29196.4
29166.3
29136.3
29106.3
29076.3
29046.2
29016.2
28986.1
28955.9
28925.7
28895.3
28864.9
0.815192
0.772976
0.726233
0.677174
0.627648
0.578891
0.531397
0.484937
0.438735
0.391762
0.343079
0.292162
0.239143
0.184906
0.131023
0.0795317
0.0326046
-0.0078331
-0.040451
-0.0647618
-0.0812239
-0.0911836
-0.0966705
-0.100082
-0.103809
-0.109868
-0.119583
-0.133397
-0.150813
-0.170507
-0.19058
-0.208912
-0.223556
-0.233088
-0.236863
-0.235121
-0.228944
-0.220066
-0.21058
-0.202584
-0.197835
-0.197454
-0.201738
-0.210117
-0.221249
-0.233268
-0.24411
-0.251884
-0.255209
-0.253443
-0.246787
-0.236245
-0.223437
-0.210323
-0.198869
-0.19072
-0.186914
-0.187715
-0.192559
-0.200156
-0.208716
-0.216261
-0.220981
-0.221541
-0.217309
-0.208452
-0.195884
-0.1811
-0.1659
-0.152069
-0.141053
-0.133688
-0.130024
-0.129273
-0.129898
-0.129832
-0.126792
-0.118637
-0.103707
-0.0810994
-0.050841
-0.0139427
0.0276594
0.0712666
0.113665
0.151438
0.181326
0.200595
0.207369
0.20088
1.36959
1.29561
1.21418
1.12947
1.04494
0.962883
0.884071
0.80785
0.732465
0.655652
0.575329
0.490248
0.400473
0.307579
0.214535
0.125268
0.0440004
-0.025507
-0.0806426
-0.120431
-0.145728
-0.159103
-0.164439
-0.166325
-0.169336
-0.177325
-0.192816
-0.216625
-0.247753
-0.28359
-0.320407
-0.354054
-0.38072
-0.397632
-0.403541
-0.39892
-0.385871
-0.367752
-0.348608
-0.332493
-0.322798
-0.321689
-0.329737
-0.345827
-0.367347
-0.390653
-0.411722
-0.426877
-0.433436
-0.43017
-0.417488
-0.397345
-0.372885
-0.347903
-0.326206
-0.310971
-0.304212
-0.30644
-0.316561
-0.332067
-0.34947
-0.364923
-0.374907
-0.376844
-0.36953
-0.353313
-0.329996
-0.302498
-0.274332
-0.248985
-0.2293
-0.216951
-0.212099
-0.213289
-0.217614
-0.221132
-0.219469
-0.208512
-0.18506
-0.147334
-0.0952898
-0.0307071
0.0429298
0.120728
0.19683
0.264974
0.31914
0.354238
0.366748
0.355218
1.94093
1.82907
1.70695
1.58157
1.45877
1.34226
1.23307
1.12959
1.02827
0.924611
0.814439
0.6951
0.566295
0.430469
0.292609
0.159486
0.0384599
-0.0638771
-0.142935
-0.196969
-0.227402
-0.2386
-0.237177
-0.230946
-0.227697
-0.233979
-0.254071
-0.289314
-0.337911
-0.39526
-0.454802
-0.509247
-0.551928
-0.578022
-0.585381
-0.574855
-0.550099
-0.516915
-0.482274
-0.453155
-0.435399
-0.432735
-0.446155
-0.473718
-0.510874
-0.551259
-0.58785
-0.614247
-0.625812
-0.620456
-0.598934
-0.56466
-0.523083
-0.480755
-0.444238
-0.419015
-0.408571
-0.413798
-0.432809
-0.461246
-0.493031
-0.521461
-0.540421
-0.545468
-0.534571
-0.508399
-0.47013
-0.424859
-0.378705
-0.337749
-0.306984
-0.289418
-0.285473
-0.292792
-0.306494
-0.319892
-0.325528
-0.316381
-0.286967
-0.234186
-0.157794
-0.0605097
0.0522074
0.172632
0.291455
0.398637
0.484412
0.540406
0.560747
0.542967
2.53731
2.37747
2.20459
2.03012
1.86369
1.71122
1.57391
1.44831
1.32751
1.20297
1.06677
0.913592
0.742233
0.556289
0.363864
0.176282
0.00600664
-0.13577
-0.241262
-0.307493
-0.336774
-0.336273
-0.316838
-0.291272
-0.272335
-0.270746
-0.293509
-0.342776
-0.415466
-0.50377
-0.596538
-0.681379
-0.747021
-0.785391
-0.792975
-0.771283
-0.726462
-0.668177
-0.607988
-0.557457
-0.526264
-0.520623
-0.542206
-0.587795
-0.64975
-0.717328
-0.778658
-0.822973
-0.842555
-0.834019
-0.798743
-0.742493
-0.674362
-0.605238
-0.546007
-0.505775
-0.490366
-0.501305
-0.535483
-0.585603
-0.641424
-0.691636
-0.725969
-0.737049
-0.72161
-0.680904
-0.620344
-0.548493
-0.475592
-0.411837
-0.365662
-0.34227
-0.342629
-0.3631
-0.395815
-0.429826
-0.452877
-0.453434
-0.422524
-0.355038
-0.250385
-0.112535
0.0503866
0.226842
0.402844
0.563127
0.692569
0.777913
0.80964
0.783623
3.16883
2.9449
2.70476
2.46734
2.24873
2.05854
1.89803
1.76025
1.6322
1.49819
1.34359
1.15828
0.939184
0.691446
0.428145
0.168158
-0.0674852
-0.259915
-0.396126
-0.471227
-0.489032
-0.461212
-0.405327
-0.342056
-0.29199
-0.272449
-0.294783
-0.362506
-0.470539
-0.605853
-0.749691
-0.881157
-0.981386
-1.03709
-1.04272
-1.00102
-0.922214
-0.82218
-0.719794
-0.63391
-0.580338
-0.569306
-0.603689
-0.678306
-0.78053
-0.892393
-0.99397
-1.06731
-1.09979
-1.08609
-1.02876
-0.937432
-0.827071
-0.715474
-0.620416
-0.556793
-0.534219
-0.555347
-0.615202
-0.701751
-0.797896
-0.884675
-0.945001
-0.966819
-0.945032
-0.881999
-0.786818
-0.67364
-0.559309
-0.460611
-0.391532
-0.360919
-0.370822
-0.415778
-0.483268
-0.555543
-0.612616
-0.6358
-0.610748
-0.529412
-0.390777
-0.200664
0.0290773
0.281704
0.536868
0.772028
0.964229
1.09263
1.14168
1.10431
3.84962
3.53599
3.20131
2.87778
2.59312
2.36341
2.18964
2.05836
1.94563
1.82314
1.66467
1.45168
1.1774
0.849023
0.487662
0.124978
-0.203204
-0.465016
-0.638989
-0.71747
-0.70699
-0.626567
-0.504452
-0.373824
-0.267692
-0.21385
-0.230698
-0.324189
-0.486328
-0.695662
-0.920661
-1.12591
-1.27986
-1.36091
-1.36064
-1.28418
-1.14854
-0.979568
-0.80784
-0.663833
-0.573155
-0.552593
-0.607235
-0.729063
-0.89743
-1.08227
-1.24994
-1.37051
-1.42352
-1.40098
-1.30772
-1.15978
-0.981559
-0.801896
-0.649558
-0.548701
-0.51514
-0.553622
-0.65648
-0.804082
-0.967851
-1.11581
-1.21948
-1.25938
-1.22785
-1.12939
-0.979207
-0.800446
-0.620514
-0.466732
-0.362009
-0.321225
-0.348541
-0.436005
-0.563831
-0.70315
-0.821158
-0.887623
-0.880023
-0.786298
-0.605295
-0.345857
-0.0251876
0.332914
0.699699
1.04279
1.32777
1.5216
1.59819
1.5447
4.60209
4.15764
3.68204
3.23254
2.85865
2.58801
2.42036
2.33
2.27332
2.20002
2.06436
1.83341
1.49353
1.05412
0.549091
0.0321188
-0.434493
-0.796606
-1.01936
-1.09182
-1.02567
-0.851959
-0.615837
-0.370318
-0.168098
-0.0534579
-0.0562465
-0.187022
-0.434158
-0.762913
-1.12007
-1.44455
-1.68332
-1.80181
-1.78828
-1.65254
-1.42286
-1.14093
-0.855966
-0.616962
-0.465004
-0.427586
-0.514036
-0.712802
-0.990611
-1.29687
-1.57372
-1.77099
-1.85602
-1.81773
-1.66542
-1.42575
-1.13812
-0.848969
-0.604567
-0.443701
-0.39232
-0.459195
-0.633328
-0.883132
-1.16058
-1.41071
-1.58581
-1.6548
-1.60703
-1.45125
-1.21275
-0.92894
-0.644061
-0.402208
-0.240415
-0.183467
-0.239648
-0.398107
-0.627847
-0.881443
-1.10392
-1.2461
-1.27332
-1.16886
-0.93276
-0.579225
-0.133355
0.371621
0.896653
1.39723
1.82255
2.11939
2.242
2.16543
5.46626
4.82421
4.12524
3.47844
2.97562
2.66453
2.54006
2.55341
2.62513
2.66688
2.60137
2.37208
1.95301
1.35375
0.627731
-0.133252
-0.81626
-1.32887
-1.61617
-1.66575
-1.49924
-1.16722
-0.740756
-0.304463
0.0576105
0.276031
0.302505
0.117705
-0.264455
-0.789274
-1.36651
-1.88662
-2.25998
-2.43283
-2.39188
-2.1562
-1.77243
-1.30665
-0.837912
-0.444747
-0.191914
-0.124211
-0.259101
-0.582721
-1.04282
-1.55382
-2.01211
-2.3331
-2.4661
-2.39867
-2.14889
-1.76081
-1.29684
-0.83161
-0.439286
-0.18104
-0.0992138
-0.210315
-0.50121
-0.922379
-1.39263
-1.81363
-2.10496
-2.21834
-2.14176
-1.89224
-1.51153
-1.05897
-0.60565
-0.222398
0.0321566
0.117198
0.0165257
-0.257566
-0.657509
-1.10455
-1.50231
-1.77012
-1.85622
-1.741
-1.42932
-0.945556
-0.326633
0.381448
1.12882
1.86003
2.50237
2.96806
3.17264
3.06356
6.52116
5.57242
4.49308
3.51665
2.81604
2.47222
2.46146
2.69294
3.02028
3.28837
3.37436
3.18413
2.67202
1.83594
0.756739
-0.410897
-1.4434
-2.18558
-2.55529
-2.55085
-2.21114
-1.6185
-0.879825
-0.131731
0.490178
0.881921
0.96549
0.706629
0.110676
-0.740153
-1.69522
-2.54001
-3.12537
-3.37174
-3.27588
-2.87312
-2.24007
-1.47665
-0.711029
-0.0704563
0.347764
0.470898
0.267605
-0.256104
-1.02175
-1.88665
-2.64823
-3.16589
-3.36481
-3.24219
-2.83152
-2.20515
-1.45739
-0.709263
-0.0809296
0.335663
0.471709
0.297467
-0.181496
-0.890942
-1.69562
-2.40329
-2.88034
-3.05542
-2.92553
-2.52214
-1.91379
-1.1901
-0.466337
0.142739
0.548826
0.685293
0.522424
0.0641997
-0.619352
-1.39861
-2.08781
-2.55583
-2.72899
-2.59606
-2.17369
-1.50651
-0.648297
0.334691
1.38428
2.4508
3.43658
4.19271
4.55493
4.40372
7.93571
6.50755
4.71288
3.15781
2.14144
1.79946
2.03377
2.69451
3.5009
4.17224
4.54523
4.45978
3.8576
2.66826
1.01312
-0.883129
-2.48858
-3.57864
-4.03319
-3.91875
-3.28725
-2.28008
-1.03246
0.222708
1.25419
1.93158
2.12158
1.78096
0.852829
-0.54093
-2.18273
-3.56695
-4.47893
-4.80346
-4.60181
-3.92167
-2.89544
-1.64981
-0.404082
0.624021
1.31237
1.53606
1.25571
0.418901
-0.857749
-2.36828
-3.6356
-4.45767
-4.72655
-4.5005
-3.82477
-2.82427
-1.61848
-0.41441
0.582333
1.25636
1.48945
1.24405
0.470116
-0.722374
-2.1383
-3.32504
-4.09054
-4.33168
-4.10313
-3.44718
-2.48212
-1.32135
-0.161868
0.800177
1.45375
1.68443
1.45363
0.710439
-0.443376
-1.82236
-2.99183
-3.76614
-4.04253
-3.86791
-3.2706
-2.34255
-1.14963
0.192033
1.61534
3.15784
4.70149
5.98459
6.67658
6.48733
10.0902
7.96394
4.58861
2.02867
0.495681
0.295359
0.991189
2.48604
4.17594
5.48581
6.37634
6.47959
5.88877
4.17136
1.61672
-1.77409
-4.27594
-5.88683
-6.33043
-6.0312
-4.90434
-3.28792
-1.19594
0.899254
2.52807
3.68308
4.04174
3.70132
2.26548
0.0154761
-3.04117
-5.27393
-6.6784
-6.9929
-6.61673
-5.46862
-3.86674
-1.8231
0.21624
1.80775
2.94606
3.32705
3.04512
1.72728
-0.356964
-3.20011
-5.26414
-6.54602
-6.80097
-6.40636
-5.2857
-3.739
-1.77708
0.178989
1.71031
2.81199
3.19622
2.9517
1.72445
-0.232061
-2.91099
-4.85339
-6.05581
-6.28429
-5.89617
-4.81734
-3.33228
-1.45074
0.426913
1.90181
2.96764
3.3481
3.1227
1.94797
0.0568473
-2.54782
-4.46487
-5.69343
-6.00555
-5.74841
-4.84378
-3.56
-1.86517
-0.0681821
1.67475
3.86323
6.3416
8.62767
10.0672
9.92979
13.841
11.1736
3.27153
-0.559889
-3.05852
-2.4968
-1.20168
1.99668
5.39826
7.40329
9.34119
9.49895
9.54228
6.88011
3.42442
-3.94511
-7.34628
-9.87593
-9.69735
-9.33542
-7.2264
-4.98055
-1.36406
2.24738
4.48425
6.58133
6.96859
7.19909
4.85053
1.73344
-5.086
-8.17366
-10.4474
-10.1769
-9.74326
-7.66899
-5.47419
-1.9902
1.48143
3.64409
5.6703
6.07265
6.32623
4.13926
1.23664
-5.15386
-8.01899
-10.1132
-9.81074
-9.35774
-7.36011
-5.25167
-1.92724
1.38402
3.45699
5.40074
5.80838
6.0745
4.02894
1.29853
-4.74428
-7.4473
-9.42357
-9.12482
-8.68383
-6.77245
-4.75338
-1.57455
1.59566
3.59251
5.46848
5.88421
6.15878
4.21711
1.58457
-4.26342
-6.92934
-8.9404
-8.78829
-8.56129
-6.96295
-5.36935
-2.72781
-0.250554
1.09257
4.15117
8.25861
12.4897
15.7287
16.2001
20.7725
21.6604
-4.14274
-5.1083
-11.0176
-6.34359
-6.13483
1.21493
8.63172
9.41755
14.8695
12.6832
17.0918
10.7316
10.8681
-11.8305
-11.6716
-17.7649
-13.3283
-15.1554
-9.7455
-8.64691
-1.52491
5.57488
6.64171
11.9417
10.1212
14.4107
8.54225
8.78281
-12.5046
-12.2454
-17.8801
-13.596
-15.2323
-10.0429
-8.93806
-2.13949
4.63154
5.67692
10.7329
9.03249
13.1217
7.58179
7.85281
-12.1841
-11.884
-17.1314
-13.0373
-14.5334
-9.59408
-8.51537
-2.05845
4.3722
5.38974
10.2015
8.62436
12.5261
7.31962
7.59896
-11.3869
-11.0877
-16.0674
-12.1701
-13.5889
-8.88264
-7.84453
-1.68593
4.45406
5.45729
10.072
8.62358
12.3863
7.48113
7.74253
-10.5612
-10.3368
-15.3023
-11.6789
-13.3489
-9.07531
-8.68774
-3.35388
1.20023
-1.9599
2.92878
9.99753
17.7805
25.3756
29.6263
30.1521
70.5593
-47.3501
-2.5635
-34.2256
-3.76236
-21.3514
0.336423
21.4136
4.71229
31.3969
6.37066
40.1481
5.22781
51.1942
-52.6309
-6.99385
-40.8167
-7.93952
-31.3969
-6.05624
-20.987
-1.6538
17.5899
2.70338
27.5558
4.47512
36.2498
3.437
46.8325
-50.9504
-7.82995
-39.5959
-8.48953
-30.5502
-6.53515
-20.6009
-2.24911
16.0266
1.93454
25.5246
3.65528
33.7832
2.65657
43.7125
-48.4998
-7.7606
-37.6015
-8.21405
-28.9761
-6.26875
-19.5237
-2.15181
15.1553
1.85884
24.2021
3.55082
32.0935
2.71073
41.6413
-45.7999
-7.12674
-35.4938
-7.56055
-27.3138
-5.71074
-18.3092
-1.77053
14.7094
2.12149
23.4066
3.85892
31.0954
3.30532
40.6343
-43.5396
-6.27074
-34.0324
-6.94691
-26.6952
-5.59186
-19.1288
-2.85711
13.7595
-16.6027
-1.4329
10.7079
23.342
39.8382
66.378
28831.3
28794.5
28757.7
28720.7
28683.8
28646.8
28610
28573.2
28536.4
28499.8
28463.3
28426.9
28390.6
28354.3
28318.1
0.179647
0.140584
0.0903188
0.0345976
-0.0207324
-0.0705185
-0.110814
-0.139086
-0.154178
-0.156113
-0.14584
-0.124966
-0.0955333
-0.0598516
-0.0203745
0.317013
0.246717
0.156589
0.0572515
-0.0406719
-0.128026
-0.198
-0.246413
-0.271546
-0.273729
-0.254829
-0.217774
-0.16616
-0.103967
-0.0353697
0.482996
0.37268
0.232069
0.078491
-0.0711813
-0.202913
-0.306747
-0.377018
-0.411866
-0.412428
-0.381973
-0.325141
-0.247366
-0.154486
-0.0525074
0.693869
0.52894
0.320517
0.0958243
-0.119632
-0.305696
-0.449058
-0.543046
-0.58647
-0.582145
-0.535494
-0.45345
-0.343678
-0.214103
-0.0726813
0.97176
0.728694
0.425236
0.10392
-0.197473
-0.451183
-0.640743
-0.759637
-0.808825
-0.794186
-0.724409
-0.609488
-0.45979
-0.285569
-0.096796
1.34811
0.988841
0.547811
0.0920944
-0.322997
-0.660819
-0.903094
-1.04593
-1.09501
-1.06137
-0.958467
-0.800303
-0.600427
-0.371584
-0.12573
1.86928
1.33075
0.685072
0.0396441
-0.525791
-0.966002
-1.26488
-1.426
-1.4639
-1.3978
-1.24779
-1.03283
-0.770031
-0.474612
-0.16027
2.60593
1.77978
0.822087
-0.0927983
-0.85381
-1.41252
-1.76443
-1.92929
-1.93679
-1.81816
-1.60206
-1.3132
-0.972253
-0.596562
-0.201007
3.66948
2.36038
0.916289
-0.379114
-1.38413
-2.06583
-2.45102
-2.58993
-2.53581
-2.33597
-2.02911
-1.64565
-1.20922
-0.738377
-0.248202
5.24113
3.07596
0.861806
-0.955815
-2.23778
-3.01564
-3.3839
-3.44359
-3.28056
-2.96081
-2.53274
-2.03106
-1.48061
-0.899524
-0.301625
7.61846
3.84054
0.410787
-2.06817
-3.59553
-4.37506
-4.62533
-4.51999
-4.18202
-3.69398
-3.10999
-2.46523
-1.78264
-1.07748
-0.3604
11.2523
4.25694
-0.991026
-4.13211
-5.70113
-6.26373
-6.22237
-5.82903
-5.23354
-4.52309
-3.74802
-2.93724
-2.10724
-1.26736
-0.422893
16.4839
2.92595
-4.49971
-7.76813
-8.81313
-8.75636
-8.17139
-7.34024
-6.40001
-5.41681
-4.42175
-3.42846
-2.44173
-1.46182
-0.486705
20.9362
-4.53727
-12.1656
-13.6276
-13.0269
-11.7772
-10.3666
-8.96051
-7.60947
-6.32241
-5.09371
-3.91312
-2.76939
-1.65148
-0.548815
0.5625
1.69539
2.85242
4.05146
5.31322
6.66311
8.13373
9.76872
11.6283
13.7973
16.3928
19.5552
23.323
26.8423
23.8647
0.57288
1.72688
2.90616
4.12957
5.41931
6.80321
8.31813
10.0158
11.9732
14.3122
17.2429
21.1696
27.0041
37.2509
60.3746
0.577535
1.7408
2.92924
4.16159
5.46001
6.8523
8.3756
10.0826
12.053
14.4167
17.4037
21.4688
27.6427
38.6627
62.9991
0.576495
1.73725
2.92179
4.14771
5.43547
6.81038
8.30546
9.96637
11.8597
14.0882
16.8168
20.3134
24.9709
31.0202
35.9994
0.570059
1.71717
2.88561
4.09084
5.35038
6.68494
8.12012
9.68869
11.4338
13.4123
15.6954
18.3507
21.3559
24.3178
26.0193
0.558765
1.68226
2.82385
3.99624
5.21314
6.48956
7.84207
9.2884
10.8457
12.5249
14.3147
16.1395
17.7562
18.5201
16.8884
0.543326
1.63478
2.74067
3.87069
5.03449
6.24127
7.49875
8.81094
10.1731
11.5613
12.9106
14.0725
14.741
14.3844
12.5957
0.52455
1.57727
2.64072
3.72166
4.82595
5.95766
7.11732
8.29863
9.48228
10.6247
11.6372
12.3492
12.4363
11.2434
7.0703
0.503261
1.51229
2.52862
3.55638
4.5983
5.65455
6.72073
7.78452
8.81995
9.77812
10.5728
11.0604
11.0205
10.1723
8.46686
0.480233
1.44223
2.40857
3.38125
4.36067
5.34447
6.32569
7.28995
8.21108
9.04491
9.72144
10.1382
10.1658
9.69643
8.80598
0.456139
1.36915
2.28411
3.20142
4.11996
5.03611
5.94233
6.82519
7.66266
8.42075
9.05028
9.48618
9.65598
9.51291
9.12456
0.431535
1.29472
2.15802
3.02073
3.8809
4.73461
5.57512
6.39185
7.16922
7.88568
8.5134
9.01877
9.36329
9.49955
9.34536
0.406852
1.2202
2.03232
2.8418
3.6463
4.44224
5.22439
5.98578
6.71795
7.41212
8.06132
8.6629
9.21507
9.6877
9.93765
0.382414
1.14655
1.90847
2.66631
3.41765
4.15943
4.88804
5.59993
6.29302
6.96968
7.64221
8.34121
9.12192
10.0303
10.7997
0.358459
1.07442
1.78744
2.49533
3.19564
3.88575
4.56328
5.22711
5.87945
6.53005
7.20463
7.96268
8.94
10.4694
13.4897
0.335168
1.00434
1.66998
2.32962
2.98071
3.62079
4.24803
4.86226
5.46706
6.07373
6.70903
7.43182
8.37465
9.87292
12.9622
0.312685
0.936714
1.55669
2.16986
2.77342
3.36475
3.94181
4.50395
5.05337
5.5975
6.15265
6.74811
7.42353
8.17155
8.5327
0.291133
0.871899
1.44814
2.01676
2.57462
3.11862
3.64595
4.15447
4.64333
5.11361
5.56825
6.00886
6.42197
6.73879
6.78378
0.270623
0.810228
1.34487
1.87113
2.38544
2.88408
3.36316
3.81864
4.2462
4.64058
4.99359
5.28871
5.48726
5.4948
5.06686
0.251254
0.752004
1.24742
1.7338
2.20715
2.66311
3.09674
3.50221
3.87212
4.19626
4.45913
4.63561
4.68519
4.55321
4.23177
0.233107
0.697479
1.15626
1.60551
2.04093
2.45765
2.84989
3.21046
3.52981
3.79449
3.98468
4.07063
4.00919
3.74319
3.19264
0.216239
0.646836
1.07172
1.48683
1.88771
2.26918
2.62504
2.94734
3.22546
3.44445
3.5826
3.60801
3.47524
3.13078
2.5938
0.200676
0.60016
0.993963
1.37805
1.74795
2.09851
2.42348
2.71491
2.96218
3.15055
3.25881
3.25525
3.08829
2.65207
1.61295
0.186412
0.557428
0.922956
1.27911
1.62162
1.94561
2.24522
2.51314
2.73981
2.91228
3.01266
3.01596
2.88833
2.59203
2.15072
0.173403
0.518508
0.858459
1.18964
1.50816
1.80963
2.08897
2.34003
2.55507
2.72409
2.83392
2.86761
2.8055
2.63268
2.35884
0.161575
0.483167
0.80005
1.10898
1.40653
1.68901
1.95235
2.19192
2.4023
2.57699
2.70804
2.78578
2.79956
2.74348
2.64265
0.15083
0.451095
0.747165
1.03621
1.31536
1.58169
1.83225
2.06408
2.27431
2.4602
2.6192
2.74835
2.84214
2.88536
2.83041
0.141054
0.421937
0.699159
0.970318
1.23309
1.48533
1.72515
1.95125
2.16321
2.3621
2.55108
2.73548
2.91984
3.09542
3.21474
0.132127
0.395322
0.655362
0.910246
1.15815
1.39757
1.62759
1.84824
2.06119
2.27087
2.48614
2.72265
3.00362
3.34454
3.6327
0.123937
0.370896
0.615147
0.855021
1.08909
1.31636
1.53653
1.75056
1.96145
2.17575
2.40645
2.67894
3.04577
3.63029
4.78204
0.116382
0.348351
0.577971
0.803827
1.02476
1.24006
1.44975
1.65508
1.85933
2.06924
2.29774
2.56973
2.93673
3.52214
4.69134
0.109381
0.327435
0.543409
0.756051
0.964342
1.16765
1.36599
1.56034
1.75327
1.94982
2.15883
2.39452
2.67603
3.00858
3.24678
0.102869
0.307965
0.511161
0.711296
0.907382
1.09871
1.28499
1.46658
1.6447
1.82176
2.00138
2.1875
2.37989
2.56053
2.67505
0.0968047
0.289814
0.481039
0.669354
0.853725
1.03326
1.20726
1.37523
1.53687
1.69191
1.83942
1.97613
2.09189
2.15839
2.09616
0.0911569
0.2729
0.452938
0.630149
0.803426
0.971663
1.13371
1.28827
1.43364
1.56729
1.68497
1.77931
1.83811
1.84564
1.80628
0.085905
0.257171
0.426801
0.593676
0.756626
0.914363
1.06537
1.20768
1.33854
1.45375
1.54672
1.60717
1.61992
1.56547
1.41868
0.0810307
0.242579
0.402575
0.559929
0.713446
0.861737
1.00306
1.13505
1.2543
1.35565
1.43107
1.46815
1.44841
1.3494
1.18146
0.0765124
0.229065
0.380185
0.528846
0.673895
0.81395
0.947228
1.07127
1.18251
1.27555
1.34203
1.3686
1.33195
1.1812
0.750422
0.0723215
0.216547
0.359502
0.50027
0.637812
0.770869
0.897809
1.01638
1.12335
1.21389
1.28072
1.31294
1.29473
1.20747
1.06249
0.0684204
0.204911
0.340337
0.473935
0.604844
0.732035
0.854198
0.969558
1.0756
1.16868
1.24345
1.2923
1.30546
1.27382
1.19594
0.0647624
0.194015
0.322442
0.449466
0.574457
0.696694
0.815312
0.9292
1.03686
1.1362
1.22417
1.29643
1.3473
1.37228
1.38271
0.0612935
0.183691
0.305522
0.42641
0.545981
0.663868
0.77971
0.893163
1.00391
1.11161
1.21581
1.31542
1.40713
1.48085
1.50556
0.057956
0.173762
0.289257
0.404268
0.518676
0.63246
0.745766
0.859011
0.973057
1.08945
1.21064
1.3399
1.47944
1.62346
1.74502
0.0546923
0.164047
0.273329
0.382545
0.491804
0.601386
0.711864
0.824302
0.94058
1.06395
1.19988
1.35725
1.54864
1.78166
1.99113
0.0514492
0.154384
0.257446
0.360793
0.464707
0.569689
0.676602
0.786926
0.903183
1.02972
1.17422
1.35096
1.58895
1.95621
2.64675
0.0481812
0.144631
0.241365
0.338647
0.43687
0.53665
0.638972
0.745431
0.858647
0.983019
1.12617
1.30215
1.53948
1.90627
2.60417
0.0448523
0.134682
0.224904
0.315847
0.407951
0.501847
0.59847
0.699242
0.806366
0.923275
1.05534
1.21072
1.4001
1.62639
1.80938
0.0414369
0.12446
0.207943
0.292241
0.377789
0.46515
0.555085
0.648645
0.747289
0.853006
0.968313
1.09569
1.2351
1.37657
1.49066
0.0379181
0.113918
0.190415
0.267767
0.346367
0.426666
0.509184
0.594517
0.6833
0.776078
0.872904
0.972306
1.06868
1.14577
1.15749
0.0342858
0.103031
0.172295
0.242426
0.313766
0.386641
0.461329
0.537993
0.616539
0.696338
0.775708
0.851027
0.915636
0.960354
0.986985
0.0305333
0.0917823
0.153573
0.216246
0.280099
0.345358
0.412103
0.480163
0.548907
0.616898
0.681325
0.737185
0.77641
0.787505
0.752685
0.026654
0.080158
0.134239
0.189245
0.245458
0.303042
0.361964
0.421858
0.481799
0.539933
0.592892
0.634897
0.656721
0.646542
0.609294
0.0226388
0.0681329
0.114263
0.161407
0.209864
0.259797
0.311151
0.363521
0.415945
0.466564
0.512067
0.546625
0.559256
0.524377
0.355968
0.0184734
0.0556662
0.0935831
0.132659
0.173246
0.215566
0.259633
0.305149
0.351344
0.396748
0.438845
0.47358
0.494785
0.494942
0.480093
0.0141372
0.0426966
0.0720986
0.10286
0.135425
0.170121
0.207109
0.246305
0.287295
0.32923
0.370735
0.409932
0.444931
0.475929
0.511251
0.00960298
0.0291422
0.0496702
0.0718095
0.0961233
0.123087
0.153052
0.186215
0.222589
0.262011
0.304229
0.3492
0.397856
0.453915
0.527555
0.00483742
0.0149011
0.0261233
0.0392492
0.0549824
0.0739675
0.0967748
0.123896
0.155769
0.19285
0.235812
0.285911
0.345641
0.419692
0.516298
-0.000198104
-0.000144336
0.00125442
0.00487846
0.0115838
0.0221946
0.0375022
0.0582796
0.0853308
0.119607
0.16244
0.215934
0.283481
0.369809
0.47779
-0.00554607
-0.0161237
-0.0251595
-0.0316317
-0.0345266
-0.0328394
-0.0255683
-0.0116935
0.00987625
0.0404236
0.0816644
0.136201
0.20828
0.304889
0.437264
-0.0112513
-0.0331735
-0.0533535
-0.0706258
-0.0838187
-0.0917507
-0.093224
-0.0870097
-0.0718119
-0.0461853
-0.0083427
0.0442851
0.116047
0.215132
0.355372
-0.0173595
-0.0514332
-0.0835666
-0.112453
-0.136764
-0.155147
-0.166218
-0.168564
-0.160741
-0.141276
-0.108616
-0.0609171
0.00484204
0.0967985
0.248459
-0.0239158
-0.07104
-0.116035
-0.157456
-0.193825
-0.22362
-0.245271
-0.257178
-0.257755
-0.24553
-0.219332
-0.17866
-0.124554
-0.0629945
-0.0240344
-0.0309634
-0.0921256
-0.150984
-0.205967
-0.255452
-0.297747
-0.331089
-0.353659
-0.363659
-0.359486
-0.340099
-0.305729
-0.259126
-0.207091
-0.156674
-0.0385417
-0.114811
-0.188624
-0.258297
-0.322071
-0.378093
-0.424387
-0.458869
-0.479405
-0.484007
-0.47127
-0.441292
-0.397468
-0.350064
-0.325725
-0.0466853
-0.139202
-0.22914
-0.314721
-0.394074
-0.465192
-0.525888
-0.573762
-0.606216
-0.620568
-0.614413
-0.586469
-0.538296
-0.477017
-0.414796
-0.0554217
-0.165384
-0.272681
-0.37547
-0.471796
-0.559529
-0.636292
-0.699364
-0.745596
-0.771368
-0.772687
-0.745693
-0.688223
-0.604624
-0.521291
-0.0647703
-0.193415
-0.319353
-0.440708
-0.555484
-0.661485
-0.756203
-0.836659
-0.899185
-0.939147
-0.950623
-0.92608
-0.856293
-0.732047
-0.560417
-0.0747409
-0.223327
-0.369207
-0.510514
-0.645265
-0.771275
-0.886018
-0.986404
-1.06844
-1.12671
-1.15357
-1.13789
-1.06218
-0.892373
-0.525201
-0.0853336
-0.255117
-0.422237
-0.584872
-0.741116
-0.888889
-1.0258
-1.14889
-1.25421
-1.33608
-1.38606
-1.39138
-1.33342
-1.18976
-0.96445
-0.09654
-0.288757
-0.47838
-0.66367
-0.842848
-1.01405
-1.17518
-1.32373
-1.45624
-1.5676
-1.64957
-1.6888
-1.66416
-1.54384
-1.27224
-0.108346
-0.324197
-0.537534
-0.746711
-0.950122
-1.14619
-1.33331
-1.50969
-1.67298
-1.81952
-1.94276
-2.03058
-2.06135
-2.00299
-1.84389
-0.120736
-0.361383
-0.599575
-0.833756
-1.0625
-1.28455
-1.49889
-1.70473
-1.90135
-2.08762
-2.26056
-2.41199
-2.52042
-2.5321
-2.30821
-0.1337
-0.400273
-0.664401
-0.92458
-1.17952
-1.42826
-1.67038
-1.90618
-2.13692
-2.36496
-2.59329
-2.82325
-3.04669
-3.2248
-3.26506
-0.147238
-0.440861
-0.731971
-1.01904
-1.30083
-1.57657
-1.84625
-2.11113
-2.37437
-2.64211
-2.92488
-3.23904
-3.60444
-4.01322
-4.21553
-0.161368
-0.483196
-0.802342
-1.11718
-1.42636
-1.72908
-2.02547
-2.31722
-2.6087
-2.90882
-3.23466
-3.61924
-4.13207
-4.94502
-6.59222
-0.176128
-0.527392
-0.875709
-1.21923
-1.55637
-1.88599
-2.2079
-2.52349
-2.83702
-3.15768
-3.50364
-3.91038
-4.45129
-5.29747
-6.92022
-0.191577
-0.573633
-0.952403
-1.32573
-1.69159
-2.04826
-2.39471
-2.7312
-3.06038
-3.38898
-3.73042
-4.10835
-4.55852
-5.11064
-5.63809
-0.207789
-0.622158
-1.03287
-1.43742
-1.8332
-2.21764
-2.58844
-2.94398
-3.28414
-3.61136
-3.93186
-4.25614
-4.59495
-4.94095
-5.22166
-0.224839
-0.67322
-1.11763
-1.55519
-1.98267
-2.39649
-2.79275
-3.16745
-3.5169
-3.83839
-4.13068
-4.39383
-4.62638
-4.81659
-4.92121
-0.242791
-0.727038
-1.20715
-1.67995
-2.14163
-2.58754
-3.01205
-3.40844
-3.76908
-4.08569
-4.34974
-4.55278
-4.68722
-4.75168
-4.77854
-0.26167
-0.783727
-1.30175
-1.81244
-2.31154
-2.79346
-3.25086
-3.67425
-4.05184
-4.3695
-4.61117
-4.75938
-4.79665
-4.71287
-4.54148
-0.281441
-0.843217
-1.40144
-1.95296
-2.49338
-3.01642
-3.51328
-3.97188
-4.37621
-4.70609
-4.93748
-5.04301
-4.99013
-4.73491
-4.28229
-0.30198
-0.905172
-1.50579
-2.10121
-2.68728
-3.25756
-3.80228
-4.30719
-4.75227
-5.11107
-5.35121
-5.43665
-5.32414
-4.89404
-3.44569
-0.323051
-0.968911
-1.61376
-2.25594
-2.89214
-3.51644
-4.11894
-4.68403
-5.18825
-5.59846
-5.87238
-5.96774
-5.87869
-5.76028
-6.38897
-0.344292
-1.03335
-1.72358
-2.41482
-3.10527
-3.79045
-4.46158
-5.10315
-5.68952
-6.18051
-6.51754
-6.6269
-6.45362
-6.1077
-6.42285
-0.3652
-1.09698
-1.83271
-2.57424
-3.32205
-4.07423
-4.82475
-5.5606
-6.25702
-6.86946
-7.3208
-7.48233
-7.14846
-5.99604
-3.37665
-0.385145
-1.15788
-1.93781
-2.72929
-3.5358
-4.35917
-5.1981
-6.04544
-6.88283
-7.67028
-8.32533
-8.68178
-8.41174
-6.90311
-3.20123
-0.403396
-1.21377
-2.03489
-2.87391
-3.73785
-4.6333
-5.56562
-6.53719
-7.54333
-8.56306
-9.53723
-10.3163
-10.5352
-9.33327
-4.90119
-0.419161
-1.2622
-2.11954
-3.00121
-3.91801
-4.88181
-5.90589
-7.00493
-8.1944
-9.48746
-10.8846
-12.3398
-13.6452
-14.0066
-10.3306
-0.431649
-1.3007
-2.1873
-3.10413
-4.06553
-5.08848
-6.19409
-7.40987
-8.77353
-10.3396
-12.1917
-14.4674
-17.4107
-21.4838
-27.5551
-11.2491
-25.7311
-24.3182
-20.7663
-17.4675
-14.7025
-12.3876
-10.4071
-8.66903
-7.10643
-5.67113
-4.32763
-3.0488
-1.81294
-0.601645
-110.999
-57.8594
-37.3307
-27.1922
-21.1491
-17.0415
-13.9808
-11.5432
-9.50171
-7.72405
-6.12726
-4.65589
-3.27051
-1.94122
-0.643648
-123.417
-67.3414
-43.1277
-30.7741
-23.4867
-18.6533
-15.1415
-12.4041
-10.1512
-8.21608
-6.49629
-4.92442
-3.45327
-2.04747
-0.678518
-67.7874
-54.6975
-40.6884
-30.8378
-24.12
-19.3474
-15.7643
-12.9287
-10.5799
-8.55859
-6.76261
-5.12302
-3.59064
-2.12813
-0.705115
-47.8431
-42.6919
-35.3613
-28.726
-23.4025
-19.2154
-15.868
-13.1151
-10.7812
-8.74462
-6.92031
-5.24716
-3.67949
-2.18136
-0.722834
-30.3702
-32.1999
-29.5511
-25.7034
-21.8958
-18.5004
-15.5589
-13.0106
-10.7761
-8.78324
-6.97303
-5.29806
-3.72004
-2.2071
-0.731623
-22.3967
-24.818
-24.5736
-22.6528
-20.1029
-17.47
-14.9768
-12.6883
-10.6031
-8.69503
-6.93182
-5.28165
-3.7154
-2.20682
-0.731918
-12.4374
-19.2871
-20.7603
-20.0391
-18.3677
-16.3427
-14.2524
-12.2248
-10.307
-8.50624
-6.81212
-5.20694
-3.6707
-2.18316
-0.724527
-14.9957
-17.4899
-18.471
-18.0851
-16.8781
-15.2609
-13.4843
-11.6852
-9.92961
-8.2434
-6.63066
-5.08437
-3.59218
-2.13942
-0.710486
-15.6435
-16.7436
-17.1308
-16.7015
-15.6733
-14.2896
-12.732
-11.1153
-9.50405
-7.92954
-6.40305
-4.92422
-3.48629
-2.07913
-0.690914
-16.2491
-16.4925