/*--------------------------------*- C++ -*----------------------------------*\
| =========                 |                                                 |
| \\      /  F ield         | OpenFOAM: The Open Source CFD Toolbox           |
|  \\    /   O peration     | Version:  5.x                                   |
|   \\  /    A nd           | Web:      www.OpenFOAM.org                      |
|    \\/     M anipulation  |                                                 |
\*---------------------------------------------------------------------------*/
FoamFile
{
    version     2.0;
    format      ascii;
    class       volScalarField;
    location    "5.7";
    object      gradTx;
}
// * * * * * * * * * * * * * * * * * * * * * * * * * * * * * * * * * * * * * //

dimensions      [0 -1 0 1 0 0 0];

internalField   nonuniform List<scalar> 
6300
(
-31.3434
-31.4142
-31.5551
-31.7646
-32.0406
-32.3799
-32.7781
-33.2299
-33.7286
-34.2661
-34.833
-35.4191
-36.0132
-36.6043
-37.1818
-31.2727
-31.3441
-31.4865
-31.6983
-31.9774
-32.3209
-32.7246
-33.1832
-33.6899
-34.2367
-34.814
-35.4111
-36.0164
-36.618
-37.2047
-31.1305
-31.2034
-31.3484
-31.5646
-31.85
-32.2019
-32.6163
-33.0883
-33.6112
-34.1768
-34.7752
-35.3949
-36.0232
-36.6468
-37.2527
-30.9157
-30.9904
-31.1394
-31.3619
-31.6563
-32.0203
-32.4506
-32.9426
-33.4899
-34.0842
-34.7153
-35.3703
-36.0349
-36.6933
-37.3298
-30.6262
-30.7032
-30.8571
-31.0873
-31.393
-31.7725
-32.2234
-32.7416
-33.3216
-33.9551
-34.6313
-35.3362
-36.0528
-36.7618
-37.443
-30.2597
-30.3393
-30.4985
-30.7373
-31.0558
-31.4534
-31.9288
-32.4791
-33.0998
-33.7834
-34.5188
-35.2905
-36.0785
-36.8583
-37.6027
-29.8138
-29.8958
-30.0602
-30.3079
-30.6397
-31.0567
-31.5592
-32.1463
-32.8153
-33.56
-34.37
-35.2287
-36.1125
-36.9901
-37.8243
-29.286
-29.37
-29.5388
-29.7943
-30.1386
-30.5746
-31.105
-31.7318
-32.455
-33.2715
-34.1726
-35.1419
-36.1526
-37.1657
-38.1289
-28.6742
-28.7594
-28.931
-29.1918
-29.5459
-29.9982
-30.5546
-31.2209
-32.0016
-32.8984
-33.907
-35.0137
-36.1906
-37.3911
-38.5446
-27.9774
-28.0623
-28.234
-28.4963
-28.855
-29.3179
-29.8944
-30.5956
-31.4323
-32.4137
-33.5435
-34.8152
-36.205
-37.6635
-39.103
-27.1958
-27.2786
-27.4465
-27.7044
-28.06
-28.5239
-29.1098
-29.8348
-30.7183
-31.7805
-33.0382
-34.4987
-36.1509
-37.955
-39.8252
-26.3315
-26.4098
-26.569
-26.815
-27.1569
-27.6079
-28.1861
-28.9154
-29.8257
-30.9519
-32.3303
-33.9907
-35.9448
-38.1804
-40.6689
-25.3891
-25.4601
-25.6049
-25.8298
-26.1447
-26.5648
-27.1115
-27.8153
-28.7172
-29.871
-31.3404
-33.1889
-35.4573
-38.1531
-41.3683
-24.3757
-24.4365
-24.5609
-24.7546
-25.0275
-25.395
-25.88
-26.5169
-27.357
-28.4746
-29.9716
-31.9674
-34.5426
-37.607
-41.0056
-23.3017
-23.3496
-23.4475
-23.6002
-23.8159
-24.1078
-24.4965
-25.0155
-25.7194
-26.6987
-28.1039
-30.1669
-33.1398
-36.7296
-37.308
-37.6922
-38.1338
-38.5516
-38.9437
-39.3092
-39.6482
-39.9611
-40.2483
-40.5102
-40.7468
-40.9574
-41.1412
-41.2972
-41.4248
-41.5238
-41.5952
-41.641
-41.6639
-41.6679
-41.657
-41.6356
-41.6073
-41.575
-41.5404
-41.504
-41.4652
-41.4224
-41.3738
-41.3173
-41.2515
-41.1757
-41.0902
-40.9964
-40.8966
-40.7935
-40.6898
-40.5882
-40.4903
-40.397
-40.3079
-40.2217
-40.1366
-40.0499
-39.9596
-39.8636
-39.7612
-39.6523
-39.5379
-39.4201
-39.3011
-39.1837
-39.07
-38.9616
-38.8591
-38.7622
-38.6695
-38.579
-38.4884
-38.3954
-38.2982
-38.1959
-38.0885
-37.977
-37.8631
-37.7494
-37.6381
-37.5316
-37.4315
-37.3383
-37.2521
-37.1716
-37.0954
-37.0216
-36.9485
-36.8753
-36.8017
-36.729
-36.6594
-36.5961
-36.5431
-36.5045
-36.4841
-36.4851
-36.509
-36.5562
-36.6251
-36.7121
-36.8123
-36.9195
-37.0267
-37.7221
-38.1681
-38.5886
-38.982
-39.3476
-39.6859
-39.998
-40.2848
-40.5468
-40.7842
-40.9961
-41.1812
-41.3382
-41.4659
-41.5637
-41.6323
-41.6738
-41.6913
-41.6892
-41.6723
-41.6455
-41.6131
-41.5784
-41.5431
-41.5076
-41.4709
-41.431
-41.3851
-41.3307
-41.2659
-41.1896
-41.1022
-41.0052
-40.9014
-40.7942
-40.687
-40.5828
-40.4838
-40.3908
-40.3036
-40.2204
-40.1386
-40.0553
-39.9675
-39.873
-39.7705
-39.66
-39.5429
-39.4216
-39.299
-39.1783
-39.0624
-38.953
-38.8511
-38.7561
-38.6663
-38.5792
-38.4918
-38.4014
-38.3056
-38.2033
-38.0944
-37.9802
-37.863
-37.7457
-37.6313
-37.5225
-37.4213
-37.3284
-37.2436
-37.1655
-37.0919
-37.0204
-36.9488
-36.8756
-36.8005
-36.7245
-36.6502
-36.5812
-36.5223
-36.4782
-36.4534
-36.4518
-36.4755
-36.5251
-36.5988
-36.693
-36.8022
-36.9194
-37.0368
-37.7841
-38.2391
-38.6649
-39.0602
-39.4253
-39.7616
-40.0715
-40.3569
-40.6192
-40.8584
-41.0733
-41.262
-41.4216
-41.55
-41.6456
-41.7086
-41.7412
-41.7471
-41.7319
-41.702
-41.6636
-41.6225
-41.5825
-41.546
-41.5129
-41.4814
-41.448
-41.4087
-41.3594
-41.2969
-41.2196
-41.1279
-41.0238
-40.9113
-40.7949
-40.6797
-40.5699
-40.4685
-40.3766
-40.2935
-40.2169
-40.1429
-40.0671
-39.9852
-39.8939
-39.7913
-39.6774
-39.5541
-39.4248
-39.294
-39.1661
-39.0451
-38.9338
-38.8331
-38.7424
-38.6591
-38.5796
-38.4996
-38.4149
-38.3223
-38.2199
-38.1078
-37.9878
-37.863
-37.7377
-37.6162
-37.5024
-37.3989
-37.3068
-37.2255
-37.1528
-37.0853
-37.0194
-36.9513
-36.8786
-36.8003
-36.7175
-36.6331
-36.552
-36.48
-36.4238
-36.3894
-36.382
-36.4048
-36.459
-36.5429
-36.6523
-36.7806
-36.919
-37.0579
-37.8836
-38.3522
-38.7854
-39.1822
-39.5444
-39.8756
-40.1803
-40.4626
-40.7248
-40.9675
-41.1886
-41.3845
-41.5503
-41.6814
-41.7745
-41.829
-41.8469
-41.8333
-41.796
-41.7438
-41.6859
-41.63
-41.5818
-41.5441
-41.5161
-41.4946
-41.4737
-41.4467
-41.407
-41.3492
-41.2705
-41.1713
-41.0547
-40.9266
-40.7941
-40.6647
-40.545
-40.4394
-40.3495
-40.2743
-40.2097
-40.1498
-40.0877
-40.0165
-39.931
-39.8282
-39.7082
-39.5738
-39.4303
-39.2847
-39.1439
-39.0139
-38.8991
-38.8008
-38.7178
-38.6464
-38.5807
-38.5141
-38.4399
-38.353
-38.2506
-38.1327
-38.002
-37.8636
-37.7241
-37.59
-37.4674
-37.36
-37.2696
-37.1949
-37.1324
-37.0766
-37.0212
-36.9604
-36.8896
-36.8067
-36.7126
-36.6113
-36.5093
-36.4151
-36.3379
-36.2865
-36.2685
-36.2889
-36.35
-36.4502
-36.5844
-36.7442
-36.9179
-37.0926
-38.029
-38.5165
-38.9582
-39.354
-39.7081
-40.0278
-40.3216
-40.597
-40.8587
-41.1076
-41.3404
-41.5504
-41.7289
-41.8674
-41.9593
-42.0021
-41.9979
-41.954
-41.8816
-41.7941
-41.7052
-41.6265
-41.5663
-41.528
-41.5102
-41.5068
-41.5083
-41.5032
-41.4806
-41.4315
-41.3511
-41.2397
-41.1023
-40.9481
-40.7888
-40.6359
-40.4999
-40.3875
-40.3015
-40.2397
-40.1957
-40.1599
-40.1212
-40.0684
-39.993
-39.8901
-39.7596
-39.6064
-39.439
-39.2685
-39.106
-38.9611
-38.8404
-38.7463
-38.6767
-38.6254
-38.5832
-38.5393
-38.483
-38.406
-38.3036
-38.1759
-38.0272
-37.8659
-37.7024
-37.5474
-37.4101
-37.2968
-37.2097
-37.1468
-37.1022
-37.067
-37.0309
-36.9838
-36.9179
-36.8291
-36.7182
-36.5904
-36.4554
-36.3257
-36.2146
-36.1355
-36.0995
-36.1145
-36.1845
-36.3083
-36.4798
-36.6875
-36.9154
-37.1451
-38.2343
-38.747
-39.1972
-39.5859
-39.9215
-40.2175
-40.4895
-40.7513
-41.0112
-41.2711
-41.5251
-41.7617
-41.9653
-42.1206
-42.2151
-42.2428
-42.2061
-42.1157
-41.9889
-41.8465
-41.7098
-41.5965
-41.5191
-41.4825
-41.4836
-41.5122
-41.5523
-41.5852
-41.5923
-41.5588
-41.4765
-41.3454
-41.174
-40.9773
-40.774
-40.583
-40.4206
-40.2978
-40.2185
-40.1793
-40.1698
-40.1744
-40.1748
-40.153
-40.0946
-39.9915
-39.8437
-39.6592
-39.4523
-39.2407
-39.0426
-38.8733
-38.7434
-38.6564
-38.6091
-38.5914
-38.5883
-38.5822
-38.5558
-38.4954
-38.3932
-38.249
-38.0706
-37.8714
-37.6685
-37.4793
-37.3184
-37.1957
-37.1148
-37.0723
-37.0585
-37.0588
-37.0563
-37.0342
-36.979
-36.8835
-36.7478
-36.5798
-36.394
-36.2091
-36.0454
-35.9224
-35.8569
-35.8609
-35.9413
-36.0979
-36.323
-36.6014
-36.9104
-37.2226
-38.5207
-39.0676
-39.5249
-39.8946
-40.1919
-40.4418
-40.6724
-40.9081
-41.164
-41.443
-41.7352
-42.0203
-42.2716
-42.4614
-42.567
-42.5764
-42.4918
-42.3299
-42.1186
-41.891
-41.6805
-41.515
-41.4134
-41.3827
-41.4176
-41.5009
-41.6068
-41.7042
-41.7625
-41.7566
-41.6721
-41.5093
-41.2823
-41.0161
-40.7414
-40.4888
-40.2844
-40.1454
-40.0779
-40.0762
-40.1236
-40.195
-40.2604
-40.2903
-40.2604
-40.1573
-39.9807
-39.7444
-39.4723
-39.1935
-38.9376
-38.729
-38.5844
-38.5095
-38.4988
-38.5362
-38.5975
-38.6542
-38.6777
-38.645
-38.543
-38.3716
-38.1436
-37.8821
-37.6149
-37.3702
-37.1715
-37.0344
-36.9645
-36.9563
-36.9942
-37.0546
-37.1098
-37.132
-37.0983
-36.9957
-36.8237
-36.5947
-36.3312
-36.062
-35.8175
-35.6267
-35.5139
-35.4974
-35.5883
-35.7885
-36.0896
-36.4712
-36.9006
-37.3363
-38.9212
-39.5175
-39.9788
-40.3074
-40.5307
-40.694
-40.848
-41.0358
-41.2838
-41.5961
-41.9556
-42.3276
-42.6665
-42.9236
-43.0577
-43.0454
-42.8888
-42.6156
-42.2717
-41.9111
-41.5865
-41.3416
-41.2055
-41.1887
-41.2818
-41.4573
-41.6733
-41.8797
-42.0253
-42.0673
-41.9807
-41.7657
-41.4469
-41.0671
-40.6768
-40.3255
-40.0541
-39.8899
-39.8425
-39.9025
-40.043
-40.224
-40.3971
-40.5135
-40.5319
-40.4286
-40.2038
-39.8812
-39.5017
-39.1136
-38.7641
-38.4926
-38.3249
-38.2701
-38.3192
-38.4465
-38.6134
-38.7737
-38.8805
-38.8945
-38.7927
-38.5753
-38.265
-37.9008
-37.529
-37.1948
-36.9356
-36.7763
-36.7254
-36.774
-36.8974
-37.0579
-37.2108
-37.3101
-37.3168
-37.2078
-36.9817
-36.659
-36.2766
-35.8791
-35.5124
-35.2184
-35.032
-34.9794
-35.0777
-35.3337
-35.7403
-36.2721
-36.8817
-37.5042
-39.4863
-40.1617
-40.6241
-40.872
-40.9559
-40.9597
-40.9749
-41.0772
-41.3108
-41.6812
-42.158
-42.6828
-43.1792
-43.563
-43.7592
-43.7223
-43.4538
-43.0031
-42.4488
-41.8794
-41.3778
-41.0116
-40.8258
-40.8363
-41.0276
-41.3554
-41.7538
-42.1427
-42.4374
-42.5632
-42.4744
-42.1713
-41.6995
-41.1333
-40.5563
-40.0469
-39.6694
-39.4663
-39.4524
-39.6126
-39.9043
-40.2643
-40.6157
-40.8776
-40.9785
-40.8751
-40.5676
-40.1
-39.5434
-38.9779
-38.4785
-38.1066
-37.9027
-37.8811
-38.027
-38.2998
-38.6387
-38.9703
-39.217
-39.3104
-39.2089
-38.9128
-38.4639
-37.9305
-37.389
-36.9112
-36.556
-36.3619
-36.3428
-36.4842
-36.7468
-37.0722
-37.3889
-37.6213
-37.7019
-37.5885
-37.2786
-36.8095
-36.2435
-35.6518
-35.1025
-34.6552
-34.3572
-34.2441
-34.3402
-34.6617
-35.2109
-35.9607
-36.8442
-37.7561
-40.292
-41.1126
-41.5784
-41.673
-41.4965
-41.2091
-40.9764
-40.9295
-41.1412
-41.6133
-42.2912
-43.0793
-43.8539
-44.4725
-44.7967
-44.7326
-44.2815
-43.5398
-42.6478
-41.7502
-40.9742
-40.4221
-40.1633
-40.2239
-40.5768
-41.1519
-41.8481
-42.5415
-43.0927
-43.368
-43.2769
-42.8199
-42.0881
-41.2151
-40.3382
-39.5786
-39.0338
-38.7699
-38.8119
-39.1333
-39.6673
-40.3168
-40.9632
-41.4734
-41.7195
-41.6153
-41.1619
-40.4468
-39.5979
-38.7468
-38.0094
-37.4787
-37.218
-37.2509
-37.5522
-38.0576
-38.6745
-39.2891
-39.7741
-40.007
-39.9054
-39.47
-38.7847
-37.9716
-37.1569
-36.4513
-35.944
-35.6957
-35.7289
-36.0195
-36.506
-37.0989
-37.6884
-38.1509
-38.3663
-38.2521
-37.8047
-37.0994
-36.2476
-35.3632
-34.5459
-33.8766
-33.4164
-33.2074
-33.2778
-33.662
-34.3923
-35.4569
-36.7656
-38.1426
-41.4475
-42.5745
-43.0674
-42.8646
-42.1968
-41.38
-40.7106
-40.4094
-40.5966
-41.2494
-42.2655
-43.4953
-44.7534
-45.8062
-46.3933
-46.3002
-45.528
-44.2928
-42.8549
-41.446
-40.2483
-39.4101
-39.0409
-39.1908
-39.8059
-40.7739
-41.9466
-43.1449
-44.1455
-44.7006
-44.6063
-43.8642
-42.6802
-41.3023
-39.9513
-38.8011
-37.9935
-37.6333
-37.7687
-38.348
-39.2638
-40.3739
-41.507
-42.4495
-42.9647
-42.8585
-42.1331
-40.9862
-39.6555
-38.3521
-37.2425
-36.4619
-36.1104
-36.2341
-36.7832
-37.655
-38.7134
-39.7945
-40.694
-41.1853
-41.0824
-40.3873
-39.2891
-38.0152
-36.7676
-35.7057
-34.9592
-34.6239
-34.7442
-35.2729
-36.1117
-37.1303
-38.1709
-39.0362
-39.5054
-39.3954
-38.7021
-37.6001
-36.2983
-34.9781
-33.7761
-32.7968
-32.1139
-31.7681
-31.7634
-32.164
-33.0921
-34.6014
-36.5888
-38.7527
-43.0786
-44.9495
-45.5584
-44.7264
-43.1116
-41.3389
-39.9145
-39.1863
-39.3815
-40.3626
-41.9322
-43.8708
-45.9486
-47.8106
-48.9695
-48.846
-47.4411
-45.3378
-43.0206
-40.8376
-39.0047
-37.7231
-37.1708
-37.4881
-38.5267
-40.1014
-42.0083
-44.033
-45.84
-46.9682
-46.8687
-45.5447
-43.5515
-41.351
-39.2751
-37.5302
-36.3091
-35.7829
-36.0865
-37.0782
-38.5804
-40.3978
-42.325
-44.0409
-45.1048
-44.9934
-43.711
-41.7903
-39.6737
-37.6785
-36.0017
-34.8272
-34.3186
-34.6046
-35.5495
-36.9835
-38.7196
-40.5614
-42.2018
-43.2191
-43.1121
-41.8847
-40.0465
-38.0207
-36.111
-34.506
-33.382
-32.896
-33.1716
-34.0796
-35.4584
-37.1298
-38.906
-40.4916
-41.4785
-41.3784
-40.1881
-38.3886
-36.3754
-34.4228
-32.6855
-31.2899
-30.3261
-29.8373
-29.6653
-29.9063
-30.955
-33.0573
-36.1575
-39.7534
-45.1752
-49.1413
-50.1238
-47.7163
-44.2549
-40.7965
-38.1157
-36.6338
-37.0347
-38.6285
-41.0677
-44.046
-47.4544
-50.8276
-53.3926
-53.2369
-50.3602
-46.6908
-42.993
-39.7251
-36.9676
-34.9858
-34.0487
-34.7467
-36.4757
-38.9507
-41.9003
-45.2345
-48.512
-51.0036
-50.8946
-48.1889
-44.7212
-41.2204
-38.1223
-35.5053
-33.6238
-32.7376
-33.4136
-35.073
-37.4432
-40.2636
-43.4474
-46.571
-48.9375
-48.8145
-46.2081
-42.8764
-39.5172
-36.5462
-34.0375
-32.2335
-31.3824
-32.0264
-33.6116
-35.8769
-38.5734
-41.6183
-44.6068
-46.8719
-46.755
-44.2617
-41.0739
-37.8592
-35.0153
-32.6135
-30.8861
-30.0711
-30.6881
-32.2083
-34.3837
-36.9782
-39.9154
-42.8093
-45.0168
-44.9311
-42.5512
-39.4846
-36.365
-33.5576
-31.1027
-29.1609
-27.8543
-27.45
-26.9725
-26.4854
-27.3004
-30.0764
-35.0121
-41.4812
-46.6965
-57.6279
-59.5664
-52.2228
-45.3961
-39.1356
-34.5909
-31.3702
-32.9702
-35.6771
-39.4269
-43.6022
-49.011
-55.0085
-61.7336
-61.5463
-54.421
-48.0846
-42.3466
-37.8777
-33.8134
-30.7441
-28.5721
-30.5208
-33.3505
-37.1167
-41.2385
-46.5178
-52.3158
-58.7841
-58.6595
-51.9306
-45.9386
-40.5098
-36.2766
-32.4212
-29.5054
-27.4428
-29.3244
-32.0444
-35.6579
-39.606
-44.6565
-50.1914
-56.3549
-56.2115
-49.7494
-44.0021
-38.8016
-34.7482
-31.0584
-28.2676
-26.2932
-28.0929
-30.694
-34.1496
-37.9254
-42.7564
-48.0533
-53.9544
-53.82
-47.6387
-42.1401
-37.1634
-33.2832
-29.7496
-27.0765
-25.1842
-26.9039
-29.3936
-32.7053
-36.3332
-40.9868
-46.1154
-51.8571
-51.7874
-45.9032
-40.6568
-35.9049
-32.1848
-28.7806
-26.1174
-24.0831
-25.168
-24.2936
-21.189
-20.8219
-23.9852
-31.6586
-44.6612
-40.5794
-79.0702
-82.3599
-55.9689
-45.7201
-35.0048
-29.16
-19.1649
-27.3119
-31.2243
-37.1733
-41.3822
-49.72
-58.1419
-80.0285
-79.8464
-57.3461
-48.6168
-39.8728
-35.4479
-29.2267
-25.2101
-17.1619
-25.0261
-28.8767
-34.7709
-38.9099
-47.0542
-55.1542
-76.0586
-75.9347
-54.6111
-46.3452
-38.0776
-33.8872
-27.9837
-24.1587
-16.468
-24.0283
-27.7289
-33.3908
-37.3608
-45.168
-52.9065
-72.8541
-72.7076
-52.2614
-44.3405
-36.434
-32.4266
-26.7845
-23.1264
-15.7692
-23.0052
-26.5459
-31.9611
-35.7578
-43.2234
-50.6297
-69.7281
-69.5923
-50.0326
-42.4544
-34.8885
-31.052
-25.6464
-22.1423
-15.096
-22.0107
-25.3953
-30.5717
-34.2108
-41.3745
-48.5384
-67.0657
-67.0165
-48.3367
-41.1169
-33.9589
-30.3572
-25.3913
-22.1678
-15.8203
-25.7076
-24.8271
-11.9513
-9.25968
-11.3993
-20.6311
-50.8589
-37.1358
-37.2358
-37.3069
-37.3436
-37.3442
-37.3105
-37.2474
-37.1619
-37.0622
-36.9572
-36.8551
-36.7637
-36.6893
-36.6368
-36.6098
-37.1559
-37.2647
-37.3413
-37.3797
-37.3784
-37.3398
-37.2697
-37.1759
-37.0676
-36.9541
-36.8445
-36.7466
-36.6672
-36.6114
-36.5826
-37.1985
-37.3259
-37.4137
-37.4554
-37.4498
-37.4007
-37.3156
-37.2045
-37.078
-36.9472
-36.8219
-36.711
-36.6215
-36.5589
-36.5267
-37.2688
-37.4265
-37.5322
-37.5783
-37.5646
-37.4975
-37.3876
-37.2482
-37.0928
-36.9346
-36.785
-36.6539
-36.5489
-36.4759
-36.4384
-37.3757
-37.579
-37.7103
-37.7608
-37.7327
-37.6368
-37.4892
-37.3078
-37.1104
-36.9132
-36.7296
-36.5705
-36.4444
-36.3572
-36.3126
-37.534
-37.8033
-37.9692
-38.0219
-37.9686
-37.8279
-37.6244
-37.3833
-37.1279
-36.8781
-36.6495
-36.4542
-36.301
-36.1957
-36.1422
-37.7673
-38.1311
-38.3412
-38.389
-38.2917
-38.0819
-37.7971
-37.4729
-37.1398
-36.8216
-36.5361
-36.2958
-36.1094
-35.9825
-35.9182
-38.1142
-38.6125
-38.8753
-38.901
-38.7274
-38.4108
-38.0089
-37.5714
-37.1367
-36.7324
-36.3773
-36.0835
-35.8584
-35.7064
-35.6299
-38.6394
-39.3293
-39.6467
-39.6121
-39.3059
-38.825
-38.2564
-37.6671
-37.1031
-36.594
-36.1572
-35.8024
-35.5342
-35.3549
-35.2651
-39.4566
-40.4184
-40.7699
-40.5948
-40.059
-39.3266
-38.5247
-37.7373
-37.0146
-36.3832
-35.8551
-35.4344
-35.1211
-34.9137
-34.8104
-40.7779
-42.118
-42.4197
-41.9383
-41.0084
-39.8979
-38.7782
-37.7427
-36.8347
-36.0689
-35.4456
-34.9591
-34.6021
-34.3682
-34.2524
-43.0301
-44.8558
-44.8525
-43.7302
-42.1384
-40.4785
-38.9474
-37.6206
-36.5126
-35.612
-34.8992
-34.3541
-33.9601
-33.7044
-33.5786
-47.1656
-49.4228
-48.4042
-45.9914
-43.3367
-40.93
-38.9122
-37.2796
-35.983
-34.9674
-34.1848
-33.5981
-33.1797
-32.9106
-32.779
-55.5965
-57.2657
-53.3503
-48.4947
-44.2867
-40.9928
-38.4917
-36.6025
-35.1725
-34.0895
-33.2746
-32.6737
-32.2499
-31.9794
-31.8476
-75.4454
-70.6924
-59.2362
-50.3506
-44.3227
-40.2626
-37.4592
-35.4661
-34.0151
-32.9435
-32.1504
-31.5719
-31.1669
-30.9095
-30.7843
-22.2734
-22.3074
-22.3767
-22.4844
-22.6356
-22.8391
-23.109
-23.4699
-23.9657
-24.6805
-25.789
-27.6829
-31.2911
-38.6947
-52.1334
-21.315
-21.3354
-21.3767
-21.4398
-21.5264
-21.6396
-21.7845
-21.9711
-22.2192
-22.5725
-23.1394
-24.2354
-26.9803
-36.2914
-77.9059
-20.3426
-20.3491
-20.3616
-20.3789
-20.3989
-20.4181
-20.4312
-20.4297
-20.3997
-20.316
-20.1223
-19.644
-18.12
-11.4438
25.3268
-19.3656
-19.3587
-19.3433
-19.3163
-19.2719
-19.2008
-19.088
-18.9081
-18.6176
-18.1357
-17.3027
-15.7789
-12.8471
-7.497
-3.79743
-18.3935
-18.3742
-18.3332
-18.2658
-18.1635
-18.0127
-17.7914
-17.4635
-16.9683
-16.1993
-14.9623
-12.8901
-9.25504
-2.40596
13.549
-17.4349
-17.4047
-17.3415
-17.2395
-17.0889
-16.8736
-16.5688
-16.1351
-15.5092
-14.5879
-13.2021
-11.0861
-7.89461
-3.63871
-1.92411
-16.4974
-16.4582
-16.3768
-16.2472
-16.0591
-15.7967
-15.4358
-14.9403
-14.2554
-13.299
-11.9491
-10.0288
-7.27328
-3.10655
5.16713
-15.5873
-15.541
-15.4457
-15.2956
-15.0811
-14.7882
-14.3964
-13.877
-13.1902
-12.2834
-11.0922
-9.55151
-7.63196
-5.42622
-3.36882
-14.7093
-14.6579
-14.5527
-14.3886
-14.1577
-13.8485
-13.4457
-12.9299
-12.2778
-11.4654
-10.478
-9.3374
-8.18942
-7.64263
-10.4755
-13.867
-13.8123
-13.7007
-13.5282
-13.2886
-12.9738
-12.5737
-12.0776
-11.4767
-10.7691
-9.97014
-9.12848
-8.32943
-7.51182
-4.77616
-13.0629
-13.0061
-12.891
-12.7144
-12.4719
-12.1583
-11.7683
-11.2982
-10.7499
-10.1363
-9.49201
-8.89005
-8.48236
-8.71272
-11.9492
-12.2983
-12.2406
-12.124
-11.9464
-11.7047
-11.3961
-11.0185
-10.5732
-10.0684
-9.52486
-8.98456
-8.51675
-8.19228
-7.82575
-5.08732
-11.5739
-11.516
-11.3996
-11.2229
-10.9841
-10.6818
-10.3158
-9.88962
-9.41378
-8.91126
-8.42684
-8.04398
-7.93145
-8.58566
-12.6051
-10.8896
-10.8323
-10.717
-10.5426
-10.3078
-10.0118
-9.6549
-9.24062
-8.77781
-8.28518
-7.79865
-7.38355
-7.13823
-7.00832
-4.75951
-10.2453
-10.1888
-10.0755
-9.90424
-9.67407
-9.38403
-9.03397
-8.62539
-8.16262
-7.65492
-7.12095
-6.60528
-6.26494
-6.90215
-13.5056
-9.64018
-9.58501
-9.47422
-9.30693
-9.08199
-8.79805
-8.45377
-8.04786
-7.57871
-7.04299
-6.43062
-5.70534
-4.71288
-2.65247
5.34005
-9.07347
-9.01989
-8.91227
-8.74974
-8.53095
-8.25404
-7.91646
-7.51432
-7.0411
-6.48439
-5.81877
-4.99102
-3.90254
-2.52198
-2.44001
-8.54404
-8.49236
-8.38854
-8.23169
-8.02034
-7.75226
-7.42404
-7.03024
-6.56156
-6.0015
-5.31961
-4.45787
-3.29514
-1.48937
2.63057
-8.05058
-8.0011
-7.90172
-7.75157
-7.5492
-7.2923
-6.97726
-6.59822
-6.14557
-5.60329
-4.94544
-4.13384
-3.1344
-2.06347
-2.23002
-7.59155
-7.54456
-7.45022
-7.3078
-7.116
-6.87281
-6.575
-6.21742
-5.79189
-5.28544
-4.67814
-3.94034
-3.02342
-1.77788
0.769037
-7.16523
-7.12097
-7.0322
-6.89838
-6.71858
-6.49133
-6.21431
-5.8839
-5.49451
-5.03772
-4.50157
-3.87134
-3.14076
-2.39565
-2.43699
-6.76972
-6.72837
-6.64554
-6.52096
-6.35419
-6.1445
-5.89079
-5.59143
-5.24401
-4.8452
-4.39042
-3.87214
-3.26831
-2.46693
-0.781373
-6.40301
-6.36465
-6.28794
-6.17293
-6.01967
-5.82831
-5.59906
-5.33241
-5.02929
-4.69166
-4.32346
-3.93246
-3.53315
-3.15186
-2.84402
-6.06301
-6.02763
-5.95703
-5.85153
-5.71171
-5.5385
-5.3334
-5.0988
-4.83864
-4.55944
-4.27245
-3.99864
-3.78559
-3.78542
-4.6921
-5.74765
-5.71515
-5.65042
-5.55404
-5.42701
-5.27092
-5.08829
-4.88303
-4.6613
-4.43273
-4.21238
-4.02275
-3.89031
-3.78887
-3.16902
-5.45494
-5.42513
-5.36587
-5.27791
-5.16256
-5.02186
-4.85898
-4.6788
-4.48879
-4.3004
-4.13107
-4.00726
-3.97359
-4.15198
-5.21473
-5.18299
-5.15564
-5.10131
-5.02089
-4.91579
-4.78828
-4.64178
-4.48147
-4.31524
-4.15495
-4.01824
-3.92927
-3.90974
-3.90058
-3.1947
-4.93012
-4.90494
-4.85496
-4.78107
-4.68467
-4.56797
-4.43423
-4.28835
-4.13765
-3.99322
-3.87235
-3.80315
-3.83879
-4.13266
-5.48672
-4.69482
-4.67152
-4.62531
-4.55695
-4.46773
-4.35956
-4.23521
-4.09867
-3.95577
-3.81523
-3.69067
-3.60434
-3.58861
-3.62816
-3.01522
-4.47576
-4.4541
-4.41109
-4.34739
-4.26403
-4.16246
-4.04472
-3.91349
-3.77236
-3.62622
-3.48254
-3.35661
-3.30014
-3.57643
-5.82043
-4.27181
-4.25157
-4.21132
-4.15156
-4.07303
-3.97668
-3.86368
-3.73527
-3.5925
-3.4356
-3.26216
-3.06074
-2.78068
-2.1579
0.416552
-4.082
-4.063
-4.02517
-3.96885
-3.89447
-3.80254
-3.69342
-3.56709
-3.42253
-3.25654
-3.06131
-2.81956
-2.49931
-2.09439
-2.15779
-3.90544
-3.88757
-3.85193
-3.79874
-3.72818
-3.64039
-3.53518
-3.41164
-3.26751
-3.09788
-2.89286
-2.63297
-2.27682
-1.70533
-0.328678
-3.74136
-3.72454
-3.69097
-3.64074
-3.57393
-3.49043
-3.38973
-3.27058
-3.13029
-2.96386
-2.7626
-2.5133
-2.20395
-1.87512
-1.98974
-3.58902
-3.57321
-3.54163
-3.49433
-3.43134
-3.35246
-3.25718
-3.14425
-3.0113
-2.85411
-2.66576
-2.43543
-2.14468
-1.73665
-0.851728
-3.44773
-3.43289
-3.40326
-3.3589
-3.29983
-3.22597
-3.13694
-3.0319
-2.90921
-2.76607
-2.59814
-2.3996
-2.16691
-1.92907
-1.97665
-3.31681
-3.30291
-3.27518
-3.23373
-3.17866
-3.11007
-3.02789
-2.93187
-2.82139
-2.69533
-2.55184
-2.38754
-2.1928
-1.92302
-1.31663
-3.19559
-3.1826
-3.1567
-3.11807
-3.06696
-3.00365
-2.92852
-2.84195
-2.74445
-2.63675
-2.52007
-2.3967
-2.27088
-2.15044
-2.05234
-3.08346
-3.07131
-3.04712
-3.01115
-2.96377
-2.90552
-2.83714
-2.75968
-2.67466
-2.58447
-2.49302
-2.40763
-2.34528
-2.3621
-2.71937
-2.97982
-2.96842
-2.94578
-2.91221
-2.86819
-2.81448
-2.75214
-2.68272
-2.60854
-2.53312
-2.46182
-2.40263
-2.36476
-2.33709
-2.10837
-2.88415
-2.8734
-2.85209
-2.82056
-2.7794
-2.72949
-2.6721
-2.60912
-2.54334
-2.47896
-2.42228
-2.3829
-2.37722
-2.45144
-2.86361
-2.79599
-2.78578
-2.76554
-2.73566
-2.69675
-2.64974
-2.596
-2.53752
-2.47723
-2.41952
-2.3708
-2.33982
-2.33428
-2.33088
-2.05784
-2.71496
-2.70517
-2.68574
-2.65708
-2.61977
-2.57473
-2.52325
-2.46722
-2.4094
-2.35389
-2.30705
-2.27915
-2.2899
-2.39733
-2.90871
-2.6408
-2.63128
-2.61242
-2.58454
-2.54822
-2.50423
-2.4537
-2.39822
-2.34
-2.28231
-2.23018
-2.19171
-2.17845
-2.18303
-1.93367
-2.57328
-2.56394
-2.54539
-2.51793
-2.48203
-2.43831
-2.38765
-2.33116
-2.27028
-2.20692
-2.14389
-2.08682
-2.05467
-2.14488
-2.96562
-2.5123
-2.50303
-2.48459
-2.45723
-2.4213
-2.37727
-2.3257
-2.2672
-2.20233
-2.13135
-2.05352
-1.96467
-1.84596
-1.59921
-0.627715
-2.45781
-2.44852
-2.43003
-2.40252
-2.36624
-2.32151
-2.2686
-2.2077
-2.13866
-2.06058
-1.97083
-1.8633
-1.72623
-1.55665
-1.55419
-2.40981
-2.40044
-2.38177
-2.35393
-2.31711
-2.27146
-2.21709
-2.15389
-2.08133
-1.99794
-1.90054
-1.78248
-1.6291
-1.39787
-0.879068
-2.36835
-2.35885
-2.33991
-2.31163
-2.27413
-2.2275
-2.17174
-2.10664
-2.03154
-1.94507
-1.84465
-1.72621
-1.58608
-1.43863
-1.44289
-2.33352
-2.32386
-2.30458
-2.27577
-2.23753
-2.18992
-2.13292
-2.06635
-1.98969
-1.90192
-1.8013
-1.68502
-1.54818
-1.37387
-1.04691
-2.30543
-2.29558
-2.27591
-2.2465
-2.20747
-2.15888
-2.10078
-2.0331
-1.95558
-1.86774
-1.76885
-1.65815
-1.53631
-1.41499
-1.38608
-2.28422
-2.27414
-2.25402
-2.22395
-2.18406
-2.13448
-2.07534
-2.00671
-1.92867
-1.84126
-1.74463
-1.63903
-1.52411
-1.39181
-1.17685
-2.27005
-2.2597
-2.23907
-2.20825
-2.16742
-2.11676
-2.0565
-1.98689
-1.90829
-1.82122
-1.72665
-1.62641
-1.52401
-1.4259
-1.34615
-2.26309
-2.25244
-2.23121
-2.19954
-2.15763
-2.10573
-2.04417
-1.97335
-1.89382
-1.80642
-1.71263
-1.61533
-1.52094
-1.44713
-1.45984
-2.26355
-2.25255
-2.23064
-2.19797
-2.1548
-2.10144
-2.0383
-1.96589
-1.88484
-1.79609
-1.70107
-1.60225
-1.50361
-1.40817
-1.28889
-2.27168
-2.26027
-2.23755
-2.20372
-2.15906
-2.10396
-2.0389
-1.96443
-1.88124
-1.79012
-1.69218
-1.58907
-1.48407
-1.38567
-1.32813
-2.28775
-2.27586
-2.2522
-2.217
-2.17059
-2.11343
-2.04605
-1.96907
-1.88315
-1.78893
-1.68688
-1.57725
-1.45996
-1.33471
-1.19817
-2.31209
-2.29965
-2.2749
-2.23809
-2.18962
-2.13001
-2.05988
-1.97993
-1.89086
-1.79318
-1.68688
-1.57075
-1.4414
-1.29148
-1.10227
-2.3451
-2.33201
-2.30598
-2.2673
-2.21641
-2.15391
-2.08055
-1.99715
-1.90457
-1.80345
-1.69371
-1.57347
-1.43714
-1.27547
-1.11699
-2.38721
-2.37338
-2.34586
-2.305
-2.25128
-2.18539
-2.1082
-2.02075
-1.92423
-1.81972
-1.70784
-1.5874
-1.45048
-1.25717
-0.779306
-2.43895
-2.42426
-2.39504
-2.35164
-2.29461
-2.22472
-2.14298
-2.05069
-1.94944
-1.84112
-1.72792
-1.61277
-1.50301
-1.43639
-1.66053
-2.50091
-2.48524
-2.45407
-2.40777
-2.3469
-2.2723
-2.18511
-2.08685
-1.97957
-1.86592
-1.74938
-1.63442
-1.52559
-1.41365
-1.14639
-2.57377
-2.557
-2.52363
-2.47402
-2.40874
-2.32863
-2.23492
-2.1293
-2.01414
-1.89275
-1.76975
-1.65181
-1.55035
-1.49869
-1.6829
-2.65829
-2.6403
-2.60449
-2.55116
-2.48088
-2.39443
-2.29302
-2.17839
-2.05305
-1.9207
-1.7866
-1.65778
-1.54052
-1.4199
-1.11091
-2.75531
-2.736
-2.6975
-2.6401
-2.56424
-2.47063
-2.36032
-2.23491
-2.09684
-1.94987
-1.79981
-1.65571
-1.53302
-1.47188
-1.67792
-2.86576
-2.84503
-2.80366
-2.74186
-2.65995
-2.55844
-2.43812
-2.30023
-2.14681
-1.98118
-1.80888
-1.63878
-1.48278
-1.33829
-1.0343
-2.9906
-2.96839
-2.92403
-2.8576
-2.76928
-2.65932
-2.52812
-2.37635
-2.20526
-2.01714
-1.81643
-1.61207
-1.42454
-1.31543
-1.54448
-3.13088
-3.10716
-3.05971
-2.98855
-2.89365
-2.77496
-2.6324
-2.46591
-2.27554
-2.06184
-1.82652
-1.57367
-1.31185
-1.0577
-0.848715
-3.28765
-3.2624
-3.21188
-3.13599
-3.03454
-2.90718
-2.75332
-2.57204
-2.36202
-2.12157
-1.84879
-1.5415
-1.19383
-0.76857
-0.00777468
-3.46194
-3.43521
-3.38167
-3.30118
-3.19342
-3.0578
-2.89328
-2.69813
-2.46964
-2.20376
-1.89503
-1.53737
-1.12971
-0.712431
-0.629257
-3.65482
-3.62663
-3.57019
-3.48532
-3.37166
-3.2285
-3.05452
-2.84739
-2.60322
-2.3157
-1.97525
-1.56797
-1.07226
-0.424257
0.797849
-3.86727
-3.83767
-3.77845
-3.68946
-3.5704
-3.42061
-3.23878
-3.02238
-2.7669
-2.46442
-2.10189
-1.65996
-1.12059
-0.534746
-0.502589
-4.10027
-4.0693
-4.00738
-3.91447
-3.79047
-3.63498
-3.44703
-3.22453
-2.96321
-2.65483
-2.28366
-1.81964
-1.20119
-0.260716
1.79559
-4.35479
-4.32244
-4.25782
-4.16109
-4.03242
-3.87189
-3.67929
-3.45362
-3.19222
-2.88886
-2.52991
-2.08656
-1.50541
-0.76156
-0.614842
-4.63177
-4.59798
-4.53057
-4.42989
-4.29649
-4.13108
-3.93451
-3.70753
-3.45036
-3.16149
-2.83477
-2.44918
-1.92262
-0.847719
3.21325
-4.93221
-4.89687
-4.82642
-4.72143
-4.58279
-4.41191
-4.21084
-3.98242
-3.7305
-3.46042
-3.1805
-2.9097
-2.72063
-3.00753
-6.26977
-5.25721
-5.22013
-5.14628
-5.03632
-4.89147
-4.71371
-4.50617
-4.27361
-4.02327
-3.76618
-3.51991
-3.31347
-3.18811
-3.10111
-1.88701
-5.60795
-5.56893
-5.4912
-5.37544
-5.223
-5.0362
-4.81886
-4.57716
-4.32072
-4.06443
-3.83164
-3.66093
-3.62895
-3.97741
-6.04077
-5.98579
-5.94462
-5.86252
-5.74004
-5.57841
-5.37988
-5.14848
-4.89095
-4.61805
-4.34637
-4.10026
-3.91203
-3.8056
-3.66281
-2.24778
-6.39221
-6.34874
-6.26186
-6.13184
-5.95942
-5.74638
-5.49625
-5.2154
-4.91455
-4.61054
-4.3287
-4.10633
-4.0075
-4.23172
-5.97931
-6.82881
-6.783
-6.69118
-6.55307
-6.36865
-6.13864
-5.86534
-5.55375
-5.21322
-4.85933
-4.51582
-4.21484
-3.98506
-3.74275
-2.41731
-7.29722
-7.24921
-7.15263
-7.00646
-6.80953
-6.56097
-6.26101
-5.91219
-5.52117
-5.10091
-4.6734
-4.2739
-3.97132
-4.00596
-5.67661
-7.79897
-7.74915
-7.6485
-7.49509
-7.28627
-7.01899
-6.69059
-6.29994
-5.84941
-5.34754
-4.81154
-4.26565
-3.72339
-3.13308
-2.35438
-8.33532
-8.28438
-8.18101
-8.02221
-7.80358
-7.51945
-7.1634
-6.72928
-6.21331
-5.61785
-4.95654
-4.25487
-3.50883
-2.39103
1.50858
-8.90703
-8.85602
-8.752
-8.59088
-8.36637
-8.06986
-7.69043
-7.21544
-6.6324
-5.93391
-5.12956
-4.27492
-3.55245
-3.5808
-7.04182
-9.51415
-9.46446
-9.36263
-9.20355
-8.97916
-8.67784
-8.2838
-7.77663
-7.13167
-6.32347
-5.33751
-4.20319
-3.07464
-2.38682
-2.87434
-10.1558
-10.1091
-10.013
-9.86158
-9.64537
-9.35019
-8.95574
-8.4335
-7.7443
-6.83646
-5.6485
-4.12743
-2.29074
-0.376675
0.954518
-10.8298
-10.7881
-10.7018
-10.5646
-10.3664
-10.0915
-9.71642
-9.20632
-8.50875
-7.544
-6.19081
-4.27087
-1.56053
2.0382
5.70775
-11.5328
-11.4981
-11.4258
-11.31
-11.1407
-10.9023
-10.5709
-10.1093
-9.45873
-8.52128
-7.12669
-4.96322
-1.4472
4.40385
13.0092
-12.2599
-12.2341
-12.18
-12.0926
-11.963
-11.7777
-11.5156
-11.1436
-10.6079
-9.81601
-8.59651
-6.59486
-2.95538
4.85674
26.2865
-148.43
-89.1446
-62.2748
-49.4322
-42.5519
-38.4414
-35.7699
-33.9274
-32.6061
-31.6376
-30.9232
-30.4029
-30.0388
-29.8074
-29.6949
-184.763
-83.4092
-55.2955
-44.4569
-39.0184
-35.7864
-33.6584
-32.1666
-31.0803
-30.2738
-29.6728
-29.2315
-28.921
-28.7229
-28.6264
47.8739
-26.813
-36.3196
-35.7314
-33.9527
-32.3647
-31.1052
-30.124
-29.3603
-28.7672
-28.3114
-27.9694
-27.7251
-27.5678
-27.4907
-6.9782
-15.481
-24.3538
-27.8328
-28.7545
-28.715
-28.3586
-27.9304
-27.5217
-27.1653
-26.8708
-26.6393
-26.4689
-26.357
-26.3015
26.5327
-3.89202
-16.1337
-21.71
-24.2239
-25.2851
-25.662
-25.7232
-25.6469
-25.5203
-25.3865
-25.2668
-25.1719
-25.1068
-25.0738
-1.28692
-4.93031
-12.5422
-17.7139
-20.7021
-22.3305
-23.1845
-23.6114
-23.8069
-23.8802
-23.8923
-23.8772
-23.8543
-23.8344
-23.8232
11.8525
-3.21282
-10.6454
-15.2342
-18.1245
-19.9137
-21.0036
-21.6602
-22.0518
-22.2828
-22.4168
-22.4929
-22.5345
-22.5559
-22.5647
-2.97529
-6.79597
-10.7233
-13.9339
-16.3117
-17.9823
-19.1237
-19.8929
-20.4082
-20.7525
-20.9816
-21.1325
-21.2289
-21.2859
-21.3124
-15.15
-10.3052
-11.2991
-13.2119
-14.99
-16.4185
-17.5022
-18.3019
-18.8834
-19.3023
-19.6008