/*--------------------------------*- C++ -*----------------------------------*\
| =========                 |                                                 |
| \\      /  F ield         | OpenFOAM: The Open Source CFD Toolbox           |
|  \\    /   O peration     | Version:  5.x                                   |
|   \\  /    A nd           | Web:      www.OpenFOAM.org                      |
|    \\/     M anipulation  |                                                 |
\*---------------------------------------------------------------------------*/
FoamFile
{
    version     2.0;
    format      ascii;
    class       volScalarField;
    location    "5.7";
    object      gradTy;
}
// * * * * * * * * * * * * * * * * * * * * * * * * * * * * * * * * * * * * * //

dimensions      [0 -1 0 1 0 0 0];

internalField   nonuniform List<scalar> 
6300
(
32284.4
32253
32221.6
32190
32158.1
32126
32093.4
32060.5
32027
31993
31958.5
31923.4
31887.7
31851.4
31814.5
0.0533429
0.159525
0.264169
0.366144
0.464161
0.556733
0.642153
0.718518
0.783792
0.835928
0.873054
0.893725
0.897203
0.883735
0.854741
0.0894464
0.267543
0.443192
0.61457
0.779573
0.935738
1.0802
1.20972
1.32077
1.40971
1.47317
1.50842
1.51392
1.48988
1.43865
0.126349
0.378016
0.6265
0.869389
1.10384
1.32647
1.53323
1.71944
1.87987
2.00902
2.10154
2.1529
2.16023
2.12328
2.04519
0.164283
0.491671
0.815406
1.13264
1.43994
1.73306
2.0068
2.25492
2.47027
2.64497
2.77108
2.84141
2.85084
2.79779
2.68586
0.203393
0.60898
1.01081
1.40584
1.79023
2.15904
2.50598
2.8232
3.10129
3.32951
3.49639
3.59084
3.60392
3.5312
3.37558
0.243704
0.730049
1.21301
1.68967
2.15608
2.60689
3.03488
3.4306
3.78219
4.0754
4.29412
4.42163
4.44279
4.34751
4.13539
0.285077
0.854503
1.42152
1.98373
2.53755
3.07758
3.59604
4.08214
4.52148
4.89579
5.18308
5.35877
5.39813
5.28067
4.99721
0.327176
0.981368
1.63483
2.28621
2.9328
3.56982
4.18957
4.78042
5.3258
5.80319
6.18364
6.43225
6.5103
6.37985
6.01246
0.369437
1.10897
1.85021
2.59347
3.33762
4.07934
4.81199
5.52419
6.19813
6.80755
7.31607
7.67633
7.83099
7.71604
7.26708
0.411045
1.23485
2.06359
2.89983
3.74487
4.59794
5.45485
6.30624
7.13497
7.91282
8.59677
9.12605
9.42133
9.38631
8.90445
0.450939
1.35579
2.26946
3.19738
4.14412
5.11269
6.10323
7.11095
8.12271
9.112
10.0322
10.8098
11.342
11.5034
11.1439
0.487855
1.46793
2.4611
3.4761
4.52154
5.60546
6.73444
7.91163
9.13295
10.3803
11.6102
12.739
13.6335
14.1412
14.2069
0.520409
1.56696
2.6309
3.72439
4.86047
6.05318
7.31746
8.66817
10.1172
11.666
13.2895
14.9026
16.3115
17.2201
17.735
0.547228
1.64861
2.77113
3.9301
5.14277
6.42932
7.81404
9.32643
11.0016
12.8772
14.9791
17.2702
19.4894
20.6898
18.2231
31780.1
31748.5
31716.5
31684.2
31651.6
31618.7
31585.5
31552
31518.4
31484.5
31450.4
31416.2
31381.8
31347.3
31312.7
31278.1
31243.4
31208.7
31173.9
31139.2
31104.5
31069.8
31035.1
31000.5
30965.9
30931.3
30896.8
30862.3
30827.8
30793.4
30759.1
30724.8
30690.6
30656.4
30622.4
30588.4
30554.6
30520.8
30487.1
30453.5
30419.9
30386.4
30353
30319.7
30286.4
30253.2
30220.1
30187.1
30154.2
30121.4
30088.7
30056.1
30023.6
29991.2
29958.9
29926.6
29894.4
29862.3
29830.3
29798.3
29766.4
29734.7
29703
29671.4
29639.9
29608.4
29577.1
29545.9
29514.8
29483.7
29452.7
29421.7
29390.8
29360
29329.3
29298.6
29267.9
29237.4
29206.8
29176.4
29146
29115.6
29085.2
29054.8
29024.4
28993.9
28963.3
28932.7
28902
28871.2
0.816314
0.774654
0.728536
0.680169
0.631399
0.583467
0.536879
0.491422
0.446342
0.400628
0.353355
0.304003
0.252694
0.200288
0.148323
0.0987913
0.0538194
0.015288
-0.0155086
-0.0381076
-0.0529789
-0.0614673
-0.0655904
-0.0677271
-0.0702488
-0.0751514
-0.0837488
-0.0964771
-0.112844
-0.131535
-0.150671
-0.168151
-0.182048
-0.190958
-0.194252
-0.192182
-0.185837
-0.176956
-0.167632
-0.159962
-0.155697
-0.155948
-0.161002
-0.17027
-0.182393
-0.195481
-0.207452
-0.216396
-0.220917
-0.220367
-0.214954
-0.205687
-0.194205
-0.182487
-0.172519
-0.165958
-0.163849
-0.166449
-0.173178
-0.182717
-0.19324
-0.202733
-0.209348
-0.211724
-0.209212
-0.201973
-0.190931
-0.177596
-0.16379
-0.151319
-0.141644
-0.135603
-0.133239
-0.133741
-0.135541
-0.136533
-0.134394
-0.126949
-0.112512
-0.0901739
-0.0599674
-0.0229279
0.0189701
0.0629779
0.105825
0.144039
0.174308
0.193853
0.200771
0.194281
1.37098
1.29792
1.21753
1.13396
1.05069
0.969978
0.892642
0.818055
0.744501
0.669756
0.591768
0.5093
0.422399
0.332602
0.242812
0.156873
0.0789223
0.0126385
-0.0394334
-0.0763616
-0.0990198
-0.109971
-0.113072
-0.112874
-0.113913
-0.120003
-0.133645
-0.155646
-0.185012
-0.219157
-0.254384
-0.28658
-0.311974
-0.327828
-0.332918
-0.32774
-0.314406
-0.296281
-0.277411
-0.261847
-0.252971
-0.252934
-0.262287
-0.279888
-0.303089
-0.328208
-0.351183
-0.368302
-0.376859
-0.375613
-0.364978
-0.346928
-0.32464
-0.301949
-0.282697
-0.270092
-0.266162
-0.271408
-0.284705
-0.303494
-0.324221
-0.342966
-0.356144
-0.361123
-0.356671
-0.343129
-0.322317
-0.29719
-0.271305
-0.248191
-0.230721
-0.220581
-0.217918
-0.221237
-0.227571
-0.232904
-0.232786
-0.223039
-0.200413
-0.163112
-0.111105
-0.0462145
0.0280055
0.106572
0.183524
0.252498
0.307376
0.342992
0.355775
0.344252
1.94235
1.83179
1.71116
1.5874
1.46635
1.35171
1.24453
1.14328
1.04446
0.943645
0.836728
0.721076
0.596376
0.465008
0.331858
0.20356
0.0873332
-0.0103655
-0.0850522
-0.13505
-0.161803
-0.16966
-0.165183
-0.156117
-0.150179
-0.153854
-0.171379
-0.204079
-0.25017
-0.305088
-0.362332
-0.414672
-0.455506
-0.480064
-0.486238
-0.474907
-0.449739
-0.416545
-0.382295
-0.353965
-0.337382
-0.336261
-0.351562
-0.381307
-0.420891
-0.463889
-0.503214
-0.532406
-0.546788
-0.544248
-0.52555
-0.494142
-0.455528
-0.416331
-0.38318
-0.361612
-0.355142
-0.364651
-0.388206
-0.421366
-0.45794
-0.491105
-0.514633
-0.523995
-0.517112
-0.494648
-0.459815
-0.417777
-0.374731
-0.336838
-0.309151
-0.294701
-0.293893
-0.304306
-0.320961
-0.337042
-0.344966
-0.337597
-0.309372
-0.257158
-0.180729
-0.0828722
0.0308419
0.152545
0.272766
0.381301
0.46823
0.525054
0.545819
0.528027
2.53828
2.38018
2.20928
2.03696
1.87279
1.72269
1.58788
1.46502
1.34729
1.22632
1.09426
0.945881
0.779951
0.59998
0.413912
0.232861
0.0690594
-0.0665115
-0.16623
-0.227215
-0.251802
-0.247116
-0.223909
-0.194864
-0.172612
-0.16777
-0.18727
-0.233239
-0.302626
-0.387682
-0.477351
-0.559343
-0.622486
-0.658784
-0.664776
-0.642008
-0.596639
-0.538339
-0.478666
-0.429175
-0.399539
-0.395949
-0.420049
-0.468565
-0.533784
-0.604867
-0.669842
-0.717846
-0.741091
-0.736156
-0.704431
-0.651737
-0.587263
-0.522012
-0.466988
-0.431396
-0.421115
-0.43767
-0.477882
-0.534322
-0.596571
-0.653122
-0.693522
-0.710259
-0.699993
-0.663976
-0.607689
-0.539814
-0.470734
-0.410788
-0.368516
-0.349174
-0.353709
-0.378385
-0.415173
-0.452924
-0.479168
-0.482187
-0.452876
-0.386073
-0.281212
-0.142367
0.0221703
0.200646
0.378831
0.54121
0.672427
0.759031
0.791376
0.765288
3.16869
2.94701
2.70944
2.47477
2.25897
2.07163
1.91402
1.77934
1.6548
1.52493
1.37531
1.19594
0.983734
0.74372
0.488731
0.237309
0.0101203
-0.174301
-0.303197
-0.371812
-0.383973
-0.35126
-0.291062
-0.223847
-0.169996
-0.146654
-0.165063
-0.228702
-0.332538
-0.463654
-0.603445
-0.731181
-0.828147
-0.881166
-0.884753
-0.841678
-0.762185
-0.662134
-0.560396
-0.475819
-0.42421
-0.415787
-0.453397
-0.531795
-0.638252
-0.754659
-0.860929
-0.938958
-0.97599
-0.966659
-0.913525
-0.826313
-0.720133
-0.61298
-0.522828
-0.464748
-0.44846
-0.476635
-0.544201
-0.638924
-0.743419
-0.838405
-0.906495
-0.935416
-0.919961
-0.862501
-0.772258
-0.66359
-0.553591
-0.459292
-0.394869
-0.369269
-0.384524
-0.435026
-0.508003
-0.585378
-0.646819
-0.673335
-0.650374
-0.569799
-0.430637
-0.238866
-0.00658262
0.249155
0.507644
0.745977
0.940852
1.07113
1.12106
1.08349
3.84746
3.53674
3.20541
2.8854
2.60418
2.37775
2.20712
2.07906
1.96998
1.85197
1.69918
1.49328
1.22754
0.909011
0.558401
0.206845
-0.110422
-0.362064
-0.526988
-0.597724
-0.580785
-0.495007
-0.368341
-0.233609
-0.123473
-0.0654436
-0.0777514
-0.166306
-0.323196
-0.527161
-0.746929
-0.947358
-1.09712
-1.17476
-1.17195
-1.09382
-0.957363
-0.788387
-0.617445
-0.475016
-0.386721
-0.369367
-0.428035
-0.554646
-0.728419
-0.919074
-1.09271
-1.21913
-1.27768
-1.26026
-1.17171
-1.02822
-0.854426
-0.679486
-0.532505
-0.437936
-0.411797
-0.458892
-0.57143
-0.72947
-0.903973
-1.06243
-1.17588
-1.22449
-1.20042
-1.10824
-0.963367
-0.789291
-0.613849
-0.464779
-0.365321
-0.33054
-0.36459
-0.459307
-0.594506
-0.740782
-0.864766
-0.935735
-0.930841
-0.837899
-0.655828
-0.393712
-0.0691208
0.293691
0.66547
1.01331
1.30229
1.4989
1.57673
1.52282
4.59675
4.15617
3.68507
3.24017
2.87051
2.6035
2.43893
2.35143
2.29801
2.22908
2.0995
1.87678
1.54737
1.12048
0.629413
0.126987
-0.325486
-0.674723
-0.886437
-0.949911
-0.876754
-0.69766
-0.457265
-0.207984
-0.00194366
0.117021
0.119325
-0.00553965
-0.246099
-0.567945
-0.918294
-1.23653
-1.46997
-1.58424
-1.56765
-1.42999
-1.1994
-0.917507
-0.633472
-0.396293
-0.247113
-0.21351
-0.304869
-0.509615
-0.794308
-1.10803
-1.39249
-1.59707
-1.68877
-1.65632
-1.50904
-1.27381
-0.990386
-0.705757
-0.466731
-0.312606
-0.2697
-0.34693
-0.533157
-0.796326
-1.08765
-1.35127
-1.53868
-1.6182
-1.57899
-1.42988
-1.19653
-0.91697
-0.636138
-0.398833
-0.242648
-0.192699
-0.257301
-0.425299
-0.665063
-0.928293
-1.15906
-1.30738
-1.3381
-1.23435
-0.996292
-0.638531
-0.186706
0.325306
0.857757
1.36541
1.79671
2.09771
2.22212
2.14471
5.4563
4.81958
4.12704
3.48661
2.98904
2.68177
2.55973
2.57472
2.64836
2.69352
2.63395
2.41387
2.00755
1.42434
0.716764
-0.0248276
-0.689233
-1.18544
-1.45938
-1.49888
-1.3253
-0.988621
-0.559019
-0.120128
0.244939
0.467443
0.499485
0.321791
-0.051989
-0.567725
-1.13594
-1.64787
-2.01446
-2.1822
-2.13775
-1.90001
-1.51537
-1.04975
-0.582069
-0.190892
0.0588868
0.122253
-0.0184661
-0.349498
-0.818429
-1.33917
-1.80735
-2.1376
-2.27866
-2.21778
-1.97304
-1.58882
-1.12811
-0.666386
-0.278728
-0.0271462
0.045366
-0.0780342
-0.384112
-0.82266
-1.31123
-1.74989
-2.05683
-2.18291
-2.11583
-1.87281
-1.49626
-1.04649
-0.595761
-0.216083
0.0329963
0.110086
-0.00112904
-0.287956
-0.701837
-1.16256
-1.57207
-1.8484
-1.93901
-1.82421
-1.50914
-1.0188
-0.390963
0.327487
1.08576
1.82745
2.47879
2.95084
3.15812
3.04754
6.50474
5.56345
4.49405
3.52737
2.83353
2.4933
2.48325
2.71354
3.03971
3.30876
3.39953
3.21913
2.72244
1.90726
0.853076
-0.287815
-1.29522
-2.01625
-2.36997
-2.35469
-2.00877
-1.41343
-0.674187
0.0739955
0.697072
1.09209
1.18162
0.931441
0.346494
-0.491987
-1.43466
-2.26854
-2.84536
-3.08576
-2.98622
-2.58161
-1.94801
-1.185
-0.420548
0.218073
0.633273
0.751852
0.541942
0.00914982
-0.76799
-1.64602
-2.42086
-2.95059
-3.15939
-3.04403
-2.63795
-2.01398
-1.26734
-0.520391
0.105192
0.516142
0.642516
0.453888
-0.044336
-0.776981
-1.60672
-2.33818
-2.83544
-3.0258
-2.90604
-2.50804
-1.90144
-1.17738
-0.453089
0.154717
0.556295
0.684018
0.507914
0.0323367
-0.67117
-1.47057
-2.17688
-2.65683
-2.83573
-2.70246
-2.27435
-1.59709
-0.725685
0.272339
1.33767
2.41963
3.4191
4.18525
4.55188
4.39813
7.91077
6.49199
4.71333
3.17534
2.16882
1.82937
2.06067
2.71433
3.51328
4.18074
4.55555
4.47984
3.89595
2.73431
1.11422
-0.743058
-2.3136
-3.37604
-3.81194
-3.6867
-3.05143
-2.04549
-0.802282
0.448226
1.47757
2.15657
2.35292
2.0231
1.11001
-0.266265
-1.8901
-3.25944
-4.16077
-4.4789
-4.27406
-3.59299
-2.56707
-1.32239
-0.077883
0.948711
1.63474
1.85442
1.56725
0.719606
-0.572316
-2.10152
-3.38737
-4.22576
-4.50696
-4.28894
-3.61665
-2.61584
-1.40705
-0.199664
0.798145
1.46918
1.69323
1.4316
0.632974
-0.59151
-2.04376
-3.26375
-4.056
-4.31529
-4.09691
-3.44367
-2.47579
-1.30864
-0.142684
0.822471
1.47393
1.69545
1.44819
0.680836
-0.502428
-1.91263
-3.10765
-3.89879
-4.18198
-4.0053
-3.39832
-2.45494
-1.24271
0.120311
1.56568
3.13068
4.69544
5.99508
6.69507
6.5019
10.0589
7.93886
4.58658
2.05858
0.543569
0.343494
1.02984
2.50588
4.17619
5.47412
6.36031
6.47232
5.9014
4.22149
1.71691
-1.61124
-4.06367
-5.63812
-6.06199
-5.7532
-4.62793
-3.01926
-0.940944
1.14088
2.76249
3.91602
4.28183
3.95461
2.54048
0.315872
-2.71207
-4.92434
-6.31604
-6.62519
-6.24774
-5.10101
-3.50122
-1.4596
0.578516
2.1697
3.30767
3.6868
3.39957
2.06976
-0.03501
-2.90751
-4.99828
-6.30333
-6.57344
-6.18806
-5.06848
-3.51721
-1.54481
0.422816
1.9616
3.06585
3.44329
3.18252
1.92349
-0.0780821
-2.8153
-4.80528
-6.04403
-6.29264
-5.914
-4.83238
-3.33712
-1.43818
0.456854
1.94193
3.01065
3.38191
3.13736
1.92824
-0.00690199
-2.66458
-4.62003
-5.87218
-6.19043
-5.92776
-5.00667
-3.6999
-1.97683
-0.150242
1.62153
3.84214
6.35373
8.66854
10.1246
9.9824
13.8381
11.1584
3.27275
-0.514911
-2.97421
-2.4186
-1.13814
2.01768
5.37531
7.36041
9.27987
9.44822
9.50375
6.89619
3.5055
-3.74051
-7.07808
-9.55711
-9.36712
-8.99549
-6.90058
-4.6694
-1.08472
2.49619
4.7214
6.80973
7.20865
7.45122
5.13796
2.05474
-4.70867
-7.77093
-10.0303
-9.76024
-9.32927
-7.26152
-5.07169
-1.59184
1.87843
4.04324
6.07326
6.47868
6.73314
4.5358
1.60775
-4.83923
-7.7407
-9.87125
-9.58389
-9.14447
-7.142
-5.02505
-1.67573
1.66277
3.75074
5.70906
6.11233
6.3709
4.2832
1.49465
-4.66291
-7.4286
-9.4579
-9.17322
-8.74343
-6.81675
-4.77974
-1.56213
1.64671
3.66093
5.55167
5.95513
6.21551
4.22107
1.52906
-4.42775
-7.14515
-9.19039
-9.03537
-8.79835
-7.17037
-5.54427
-2.85995
-0.34179
1.03108
4.13463
8.29551
12.5789
15.8556
16.3279
20.9849
21.8602
-3.95585
-5.00321
-10.833
-6.22428
-6.00659
1.23886
8.55084
9.34122
14.721
12.5866
16.9409
10.6986
10.8457
-11.498
-11.3288
-17.3196
-12.9339
-14.7194
-9.36953
-8.26864
-1.22317
5.80365
6.87735
12.1361
10.3605
14.6281
8.84414
9.09299
-12.035
-11.7738
-17.3868
-13.1272
-14.7678
-9.59793
-8.49988
-1.71034
5.0581
6.11077
11.1782
9.48783
13.5972
8.05398
8.31768
-11.8766
-11.5933
-16.921
-12.8134
-14.3517
-9.38041
-8.30758
-1.79114
4.70343
5.72649
10.5915
8.98967
12.9378
7.65207
7.91869
-11.3948
-11.1124
-16.2039
-12.2628
-13.7284
-8.95999
-7.92247
-1.67348
4.55679
5.55768
10.2344
8.73432
12.5406
7.51838
7.76634
-10.8557
-10.6382
-15.677
-11.9984
-13.6719
-9.33133
-8.91243
-3.50367
1.11593
-2.05166
2.90382
10.06
17.9378
25.6243
29.922
31.1242
71.0141
-46.854
-2.60733
-33.7235
-3.70637
-20.9943
0.3649
21.1182
4.71402
30.9835
6.38186
39.6382
5.30111
50.5736
-51.673
-6.7084
-40.023
-7.6131
-30.7172
-5.71885
-20.427
-1.33358
17.6847
3.00797
27.5933
4.8114
36.2806
3.86425
46.9151
-50.1605
-7.31664
-38.9587
-7.99639
-30.0122
-6.06957
-20.1225
-1.79712
16.4698
2.39836
26.0158
4.14664
34.3625
3.21147
44.4884
-48.4002
-7.36477
-37.5565
-7.91133
-28.9316
-6.00375
-19.4277
-1.87384
15.6243
2.17106
24.7873
3.87617
32.8028
3.02663
42.5393
-46.344
-7.05656
-35.9558
-7.56578
-27.6893
-5.72986
-18.5688
-1.75697
14.9981
2.16212
23.8124
3.8733
31.5793
3.22749
41.1772
-44.412
-6.56135
-34.7159
-7.25377
-27.205
-5.84448
-19.4655
-3.0106
13.7874
-16.8306
-1.49511
10.7863
23.5729
40.2734
67.1476
28837.2
28800
28762.7
28725.3
28688
28650.6
28613.3
28576.1
28539
28502
28465.1
28428.3
28391.5
28354.9
28318.3
0.172901
0.133528
0.0828719
0.0267582
-0.0288861
-0.0788393
-0.119104
-0.147119
-0.161716
-0.162929
-0.151723
-0.129737
-0.0990488
-0.0620057
-0.0211007
0.30578
0.234911
0.144056
0.0439879
-0.0545235
-0.1422
-0.212144
-0.260127
-0.284418
-0.285361
-0.264863
-0.225905
-0.172146
-0.10763
-0.0366028
0.467592
0.356309
0.214482
0.0596862
-0.090972
-0.22327
-0.327126
-0.396809
-0.43045
-0.429222
-0.396454
-0.336868
-0.255993
-0.159763
-0.0542831
0.674749
0.508243
0.297871
0.0712416
-0.145785
-0.332785
-0.476282
-0.569532
-0.611352
-0.60462
-0.55486
-0.46912
-0.355196
-0.221144
-0.0750498
0.949628
0.704032
0.397505
0.0731841
-0.230631
-0.485811
-0.675689
-0.793686
-0.840808
-0.823048
-0.749244
-0.629557
-0.474524
-0.294567
-0.0998219
1.32406
0.96074
0.514919
0.0546097
-0.364121
-0.704148
-0.946981
-1.08872
-1.13515
-1.09752
-0.98951
-0.825338
-0.618777
-0.382779
-0.129492
1.84496
1.29994
0.646812
-0.00555264
-0.576323
-1.01969
-1.31937
-1.47906
-1.51355
-1.44237
-1.28594
-1.06351
-0.792466
-0.488277
-0.164859
2.5839
1.74727
0.777938
-0.147312
-0.915936
-1.47891
-1.83177
-1.99462
-1.99762
-1.87249
-1.64836
-1.35029
-0.999301
-0.613006
-0.206523
3.6537
2.32732
0.864998
-0.445687
-1.46119
-2.14825
-2.53418
-2.67001
-2.60981
-2.40162
-2.08471
-1.68998
-1.24144
-0.757921
-0.254751
5.23785
3.04334
0.800458
-1.03922
-2.33488
-3.11871
-3.4867
-3.54143
-3.37001
-3.03945
-2.59887
-2.0835
-1.51857
-0.922484
-0.309309
7.63765
3.8078
0.332767
-2.17676
-3.72038
-4.50499
-4.75246
-4.63899
-4.28934
-3.78731
-3.18782
-2.52656
-1.82683
-1.10414
-0.369308
11.3096
4.21765
-1.10029
-4.28014
-5.86485
-6.42841
-6.37915
-5.9727
-5.36104
-4.63263
-3.83854
-3.0081
-2.15806
-1.29793
-0.433094
16.5983
2.85344
-4.67124
-7.97858
-9.03041
-8.96462
-8.363
-7.51162
-6.54948
-5.54362
-4.52559
-3.50922
-2.49939
-1.49641
-0.498232
21.0969
-4.7317
-12.4595
-13.9325
-13.3136
-12.0366
-10.5966
-9.16127
-7.78164
-6.46678
-5.21096
-4.00379
-2.83389
-1.69007
-0.56166
0.566028
1.70581
2.86928
4.07392
5.34005
6.69258
8.16349
9.79561
11.6482
13.8045
16.3795
19.5094
23.2263
26.699
23.9666
0.57723
1.73978
2.92715
4.15786
5.45369
6.84197
8.3589
10.0554
12.0071
14.3345
17.2446
21.1346
26.8913
36.9398
59.5924
0.582814
1.75651
2.95494
4.19657
5.50315
6.90201
8.42964
10.1379
12.1052
14.4598
17.4294
21.4639
27.5772
38.4238
62.1305
0.582799
1.75605
2.95274
4.19018
5.48852
6.87263
8.37496
10.0404
11.9344
14.1581
16.8744
20.3501
24.9791
30.988
35.8245
0.57747
1.73932
2.92224
4.1415
5.41433
6.76114
8.20703
9.78414
11.5346
13.5141
15.7921
18.4348
21.4234
24.3778
26.0533
0.567343
1.70795
2.8665
4.0556
5.28878
6.58083
7.94798
9.40749
10.9758
12.663
14.4562
16.2789
17.8898
18.657
17.0491
0.553104
1.66411
2.78956
3.9391
5.12234
6.34838
7.62478
8.95524
10.3346
11.7381
13.0999
14.27
14.9414
14.5852
12.7964
0.535531
1.61026
2.69587
3.7992
4.92618
6.08095
7.26404
8.46904
9.67645
10.8422
11.8767
12.6075
12.7064
11.5081
7.26306
0.515411
1.54884
2.58988
3.64286
4.71073
5.79386
6.88806
7.98117
9.04728
10.0373
10.8644
11.3837
11.3721
10.5468
8.86934
0.493483
1.48213
2.4756
3.47619
4.48468
5.49907
6.51284
7.51205
8.47093
9.34557
10.0659
10.5287
10.6027
10.1772
9.31861
0.470383
1.41209
2.35636
3.30404
4.25451
5.20471
6.14774
7.07093
7.95306
8.76098
9.44617
9.94367
10.1802
10.1083
9.80353
0.446631
1.34025
2.23475
3.12996
4.02454
4.91531
5.79641
6.65831
7.48671
8.2616
8.95674
9.53981
9.97203
10.2009
10.1245
0.422629
1.26782
2.11263
2.9563
3.79721
4.63263
5.45841
6.26894
7.05751
7.8176
8.54513
9.24069
9.90497
10.5055
10.8859
0.398675
1.19564
1.99132
2.78455
3.57369
4.35664
5.131
5.8948
6.64808
7.39619
8.15569
8.96326
9.88213
10.9631
11.9023
0.374992
1.12434
1.87171
2.61563
3.35447
4.0866
4.81091
5.52795
6.24222
6.96687
7.73284
8.60851
9.74669
11.5189
14.9737
0.351753
1.05441
1.7545
2.45024
3.1399
3.82199
4.49588
5.16301
5.82915
6.50883
7.23379
8.07144
9.1709
10.9063
14.4271
0.329102
0.986264
1.64029
2.28908
2.93058
3.56305
4.18553
4.79873
5.40668
6.01931
6.65648
7.35252
8.15344
9.0538
9.54916
0.307174
0.920296
1.52972
2.13296
2.72753
3.31106
3.88162
4.4381
4.98093
5.51274
6.03825
6.56074
7.06688
7.48251
7.61709
0.286097
0.85689
1.42345
1.98288
2.53213
3.06808
3.58746
4.08693
4.56284
5.01053
5.4221
5.78029
6.04314
6.10636
5.69693
0.265992
0.796422
1.32214
1.83984
2.34597
2.83659
3.30714
3.75212
4.16433
4.5334
4.84302
5.06604
5.15801
5.05841
4.7594
0.246967
0.739224
1.22639
1.70484
2.17059
2.61903
3.04457
3.44007
3.79577
4.09753
4.32405
4.4428
4.40589
4.14894
3.57903
0.229104
0.685562
1.13669
1.57867
2.00723
2.41736
2.80286
3.15566
3.46465
3.71391
3.87992
3.92764
3.80658
3.45677
2.89914
0.212458
0.635601
1.05335
1.46181
1.85667
2.23279
2.58386
2.90167
3.17501
3.38811
3.51793
3.52968
3.36613
2.90894
1.78393
0.197043
0.589388
0.976441
1.35442
1.71911
2.06562
2.38797
2.67854
2.92722
3.12014
3.23794
3.25344
3.12959
2.82486
2.36517
0.182836
0.546852
0.90584
1.25624
1.59418
1.91522
2.21414
2.48452
2.71815
2.90434
3.02899
3.074
3.01866
2.84839
2.57879
0.16978
0.507808
0.8412
1.16673
1.48098
1.78019
2.06015
2.31601
2.54202
2.73128
2.87535
2.96425
2.98754
2.94093
2.85349
0.157789
0.471985
0.782019
1.08507
1.37823
1.65853
1.9229
2.16823
2.39143
2.5896
2.76005
2.90006
3.00498
3.06183
3.02816
0.146758
0.439053
0.727692
1.01026
1.28442
1.54794
1.79888
2.03582
2.25824
2.46718
2.66591
2.86025
3.05582
3.24561
3.38272
0.136575
0.408662
0.677581
0.94131
1.19799
1.44609
1.6846
1.9135
2.13444
2.35185
2.57484
2.81962
3.11069
3.466
3.77817
0.127132
0.380473
0.631078
0.877253
1.11754
1.3509
1.577
1.79673
2.01308
2.23267
2.46864
2.74687
3.12097
3.71639
4.88528
0.118331
0.354185
0.587653
0.817291
1.04191
1.26075
1.47382
1.68232
1.88951
2.10212
2.33312
2.60758
2.97758
3.56858
4.75604
0.110093
0.329557
0.546894
0.760821
0.970288
1.17464
1.37383
1.56884
1.76218
1.95882
2.16744
2.40198
2.68076
3.00661
3.22385
0.102356
0.306408
0.508506
0.707454
0.902232
1.0921
1.27676
1.45653
1.63258
1.80721
1.9838
2.16567
2.3513
2.5201
2.61442
0.0950801
0.284618
0.47231
0.656989
0.837592
1.01321
1.18311
1.34681
1.50398
1.65427
1.7965
1.92679
2.03355
2.08536
1.99597
0.0882367
0.264114
0.438211
0.609362
0.776426
0.938281
1.09378
1.24163
1.38019
1.50693
1.61754
1.70428
1.75399
1.74872
1.68924
0.081808
0.24485
0.406163
0.564579
0.718888
0.867785
1.00977
1.14293
1.26462
1.37082
1.45516
1.50752
1.51263
1.44977
1.28898
0.0757796
0.226788
0.376132
0.522656
0.665117
0.802104
0.931893
1.05221
1.15983
1.24992
1.31502
1.3436
1.3185
1.21884
1.05285
0.0701347
0.209886
0.348064
0.483562
0.615159
0.741433
0.860611
0.970329
1.06724
1.1464
1.20027
1.21698
1.17617
1.03402
0.649264
0.0648511
0.194079
0.321864
0.447185
0.568907
0.685702
0.795915
0.897358
0.986991
1.06045
1.11135
1.13035
1.10423
1.01769
0.880257
0.0598985
0.179276
0.297381
0.413314
0.526087
0.634554
0.737324
0.832606
0.917998
0.990192
1.0446
1.07507
1.07428
1.03673
0.967067
0.0552382
0.165361
0.274413
0.381648
0.486266
0.587377
0.68395
0.77474
0.858191
0.932308
0.994507
1.04154
1.06988
1.07812
1.07733
0.050825
0.152193
0.252712
0.351807
0.448893
0.543366
0.634608
0.721989
0.804889
0.882726
0.954972
1.02101
1.07947
1.1258
1.1444
0.046609
0.139618
0.232005
0.32337
0.413344
0.501612
0.587964
0.67237
0.755124
0.837053
0.919776
1.00579
1.09751
1.19278
1.27492
0.0425392
0.127479
0.212014
0.295908
0.378991
0.461204
0.542687
0.623917
0.705956
0.790856
0.882324
0.986639
1.11313
1.26892
1.41606
0.0385667
0.115626
0.192474
0.269019
0.345253
0.421317
0.497602
0.574923
0.654825
0.740126
0.835981
0.952128
1.10843
1.35111
1.80902
0.0346473
0.103922
0.17315
0.242354
0.311646
0.381292
0.451814
0.524158
0.599967
0.682095
0.775579
0.889767
1.0438
1.28389
1.74968
0.0307432
0.0922537
0.15385
0.215637
0.277803
0.340671
0.40478
0.471005
0.540744
0.616206
0.700833
0.799772
0.919464
1.06
1.16107
0.0268236
0.0805297
0.134423
0.188665
0.243484
0.299202
0.356293
0.415432
0.477571
0.54398
0.616178
0.695402
0.78069
0.863579
0.92232
0.0228646
0.0686796
0.114759
0.161303
0.20855
0.256795
0.306399
0.357795
0.411454
0.467761
0.526673
0.586857
0.643621
0.68397
0.672416
0.0188472
0.0566494
0.0947777
0.13346
0.172935
0.213458
0.255277
0.298606
0.343519
0.389757
0.436315
0.480718
0.517986
0.540443
0.546349
0.0147562
0.0443962
0.0744181
0.105073
0.136604
0.169232
0.203123
0.238334
0.274686
0.311555
0.347479
0.379563
0.402668
0.408441
0.381145
0.0105777
0.0318812
0.0536243
0.0760865
0.0995225
0.124141
0.150068
0.177285
0.205515
0.234031
0.261336
0.284669
0.299414
0.299433
0.28632
0.00629778
0.0190642
0.0323366
0.0464314
0.0616295
0.0781532
0.0961322
0.11555
0.136164
0.157369
0.177973
0.195763
0.206412
0.199567
0.140021
0.00190035
0.00589894
0.0104831
0.0160175
0.0228255
0.0311668
0.0412106
0.0530015
0.0664213
0.0811439
0.0965857
0.111839
0.125581
0.13632
0.146855
-0.00263333
-0.00766989
-0.0120252
-0.0152735
-0.017034
-0.0169903
-0.0149108
-0.0106629
-0.00420887
0.00443893
0.0153509
0.0289848
0.0468582
0.0732343
0.120609
-0.00732568
-0.0217089
-0.0352971
-0.0475908
-0.0581372
-0.06655
-0.0725251
-0.0758442
-0.0763454
-0.0738195
-0.0677538
-0.0567914
-0.0377473
-0.00441153
0.0504125
-0.0122032
-0.036297
-0.0594631
-0.0811145
-0.100713
-0.117792
-0.131971
-0.142968
-0.150567
-0.154517
-0.154239
-0.148158
-0.132255
-0.0969559
-0.019227
-0.0172967
-0.0515266
-0.0846763
-0.116057
-0.145031
-0.171036
-0.193614
-0.212436
-0.227308
-0.238134
-0.244732
-0.246324
-0.240206
-0.21894
-0.169124
-0.0226414
-0.0675037
-0.111113
-0.152665
-0.191402
-0.226651
-0.257855
-0.284632
-0.306842
-0.324667
-0.338683
-0.349819
-0.358653
-0.360722
-0.317474
-0.0282773
-0.0843482
-0.138975
-0.19122
-0.240189
-0.285064
-0.325157
-0.359986
-0.389406
-0.413829
-0.434613
-0.454891
-0.481772
-0.533942
-0.674879
-0.0342483
-0.102193
-0.168487
-0.232044
-0.29181
-0.34679
-0.396105
-0.439082
-0.475424
-0.505499
-0.530873
-0.555354
-0.587302
-0.645487
-0.775075
-0.0406015
-0.121182
-0.199895
-0.275495
-0.346746
-0.412441
-0.471442
-0.522773
-0.56578
-0.600418
-0.627735
-0.650607
-0.674583
-0.707412
-0.749343
-0.0473863
-0.141466
-0.23346
-0.32196
-0.405535
-0.482731
-0.552095
-0.612233
-0.661934
-0.700405
-0.727664
-0.745074
-0.755693
-0.762983
-0.763198
-0.0546517
-0.163195
-0.269448
-0.371841
-0.468747
-0.558451
-0.639145
-0.70893
-0.765874
-0.808163
-0.834414
-0.844237
-0.839092
-0.823442
-0.806917
-0.0624438
-0.186514
-0.308112
-0.425528
-0.536952
-0.640421
-0.733762
-0.814533
-0.879978
-0.927044
-0.952559
-0.953778
-0.929766
-0.88449
-0.83183
-0.0708032
-0.211546
-0.349677
-0.483372
-0.610676
-0.729416
-0.8371
-0.93077
-1.00683
-1.06088
-1.08756
-1.08082
-1.03519
-0.950648
-0.847445
-0.0797613
-0.238391
-0.394318
-0.545651
-0.690341
-0.826083
-0.950161
-1.05922
-1.14897
-1.2137
-1.24576
-1.23487
-1.16763
-1.02975
-0.830915
-0.0893386
-0.267111
-0.442148
-0.612537
-0.776213
-0.930843
-1.07364
-1.20108
-1.30846
-1.3892
-1.43378
-1.42803
-1.3491
-1.15118
-0.692871
-0.0995431
-0.29773
-0.493202
-0.684081
-0.868363
-1.04381
-1.20778
-1.35687
-1.48645
-1.58979
-1.65675
-1.672
-1.61319
-1.45343
-1.19887
-0.110372
-0.330233
-0.547443
-0.760201
-0.966642
-1.16475
-1.35223
-1.5262
-1.68266
-1.81563
-1.91562
-1.96738
-1.94738
-1.8215
-1.5342
-0.121811
-0.364576
-0.604772
-0.840705
-1.0707
-1.29307
-1.50607
-1.70767
-1.89517
-2.06438
-2.20796
-2.31261
-2.35507
-2.30166
-2.14185
-0.133847
-0.400701
-0.665058
-0.925329
-1.18004
-1.4279
-1.66782
-1.89892
-2.12038
-2.33091
-2.52733
-2.701
-2.82934
-2.85571
-2.63309
-0.146465
-0.438558
-0.72818
-1.01381
-1.29414
-1.56824
-1.83568
-2.09685
-2.35317
-2.60724
-2.8625
-3.12086
-3.37441
-3.58265
-3.64659
-0.159663
-0.478131
-0.794072
-1.10596
-1.41258
-1.71318
-2.0079
-2.29815
-2.5875
-2.88273
-3.19549
-3.54406
-3.95095
-4.40978
-4.65535
-0.173456
-0.519457
-0.862773
-1.20178
-1.53517
-1.86222
-2.1832
-2.50008
-2.81775
-3.14603
-3.50363
-3.92674
-4.4914
-5.38501
-7.18656
-0.187881
-0.562647
-0.934463
-1.30149
-1.66217
-2.01547
-2.36133
-2.70146
-3.04063
-3.38896
-3.76625
-4.21112
-4.80339
-5.72971
-7.50747
-0.202997
-0.607886
-1.00947
-1.40561
-1.79429
-2.17387
-2.54344
-2.9035
-3.25713
-3.61176
-3.98195
-4.39312
-4.88341
-5.48311
-6.04728
-0.218878
-0.655415
-1.08827
-1.5149
-1.93274
-2.33923
-2.73214
-3.11
-3.47294
-3.82374
-4.16916
-4.52017
-4.88744
-5.26116
-5.56148
-0.235606
-0.705502
-1.17138
-1.6303
-2.07905
-2.51401
-2.93127
-3.32687
-3.69716
-4.03946
-4.35249
-4.63593
-4.88698
-5.09019
-5.19215
-0.253248
-0.758382
-1.2593
-1.75278
-2.23494
-2.70107
-3.14545
-3.56129
-3.94081
-4.27549
-4.55637
-4.77416
-4.91973
-4.98951
-5.01566
-0.271834
-0.814186
-1.3524
-1.8831
-2.40194
-2.90323
-3.37945
-3.82094
-4.2156
-4.54889
-4.80404
-4.96253
-5.00512
-4.91911
-4.73421
-0.291335
-0.87286
-1.45072
-2.02165
-2.58114
-3.12279
-3.63756
-4.11309
-4.53299
-4.87652
-5.11884
-5.23139
-5.17981
-4.91738
-4.44821
-0.311631
-0.934082
-1.55383
-2.16814
-2.77274
-3.361
-3.92292
-4.44388
-4.90342
-5.27444
-5.52375
-5.61421
-5.50092
-5.05923
-3.563
-0.332487
-0.997178
-1.66073
-2.32137
-2.97567
-3.6175
-4.23671
-4.8173
-5.3353
-5.75689
-6.03895
-6.13852
-6.05008
-5.93339
-6.58734
-0.353541
-1.06106
-1.76964
-2.47901
-3.18725
-3.8897
-4.57731
-5.23419
-5.83414
-6.33622
-6.68087
-6.79338
-6.61884
-6.27236
-6.61379
-0.374287
-1.12422
-1.878
-2.63742
-3.40285
-4.17221
-4.93925
-5.69059
-6.40092
-7.02487
-7.48399
-7.64759
-7.30701
-6.13355
-3.46206
-0.39409
-1.18469
-1.98245
-2.79165
-3.6157
-4.45633
-5.31207
-6.17547
-7.0277
-7.82796
-8.49233
-8.85191
-8.57356
-7.03498
-3.26354
-0.412209
-1.24021
-2.07894
-2.93555
-3.81705
-4.72996
-5.67957
-6.66809
-7.69055
-8.7254
-9.71233
-10.4992
-10.7153
-9.48698
-4.97865
-0.427842
-1.28826
-2.16302
-3.06218
-3.99657
-4.97809
-6.02004
-7.13712
-8.3448
-9.65612
-11.0712
-12.543
-13.86
-14.2168
-10.4778
-0.440188
-1.32635
-2.23014
-3.16434
-4.14334
-5.18425
-6.30832
-7.54325
-8.92706
-10.5147
-12.3908
-14.6941
-17.6715
-21.7909
-27.9327
-11.5509
-26.2432
-24.798
-21.1829
-17.8257
-15.0109
-12.653
-10.6343
-8.86143
-7.26638
-5.80026
-4.42707
-3.11934
-1.85507
-0.615658
-112.806
-58.8548
-38.0077
-27.7085
-21.5668
-17.3896
-14.2748
-11.7919
-9.71076
-7.89694
-6.26633
-4.76271
-3.34615
-1.98635
-0.658653
-125.406
-68.4771
-43.8925
-31.347
-23.9435
-19.0304
-15.4578
-12.6706
-10.3744
-8.40026
-6.64419
-5.0379
-3.53355
-2.09534
-0.69443
-68.9219
-55.6378
-41.4166
-31.4147
-24.5909
-19.7401
-16.0954
-13.2082
-10.8144
-8.75213
-6.91804
-5.24227
-3.675
-2.17843
-0.721833
-48.6716
-43.4491
-36.0108
-29.2752
-23.8682
-19.6123
-16.2068
-13.4033
-11.024
-8.94554
-7.08193
-5.37128
-3.76734
-2.23377
-0.740253
-30.932
-32.7991
-30.117
-26.2131
-22.346
-18.8939
-15.9002
-13.3039
-11.0246
-8.98976
-7.13958
-5.42618
-3.81082
-2.26128
-0.749637
-22.8327
-25.3082
-25.0715
-23.1256
-20.5355
-17.8571
-15.3177
-12.9841
-10.8555
-8.90571
-7.10223
-5.41298
-3.80857
-2.26248
-0.750428
-12.7022
-19.7009
-21.213
-20.4853
-18.7863
-16.7238
-14.5921
-12.5221
-10.5621
-8.72005
-6.98554
-5.34086
-3.76582
-2.24002
-0.743446
-15.3533
-17.9036
-18.9098
-18.5195
-17.2894
-15.6387
-13.8236
-11.9837
-10.1869
-8.45966
-6.80647
-5.22035
-3.68888
-2.19726
-0.729737
-16.0442
-17.1787
-17.5764
-17.137
-16.0845
-14.6677
-13.0722
-11.4154
-9.76326