/*--------------------------------*- C++ -*----------------------------------*\
| =========                 |                                                 |
| \\      /  F ield         | OpenFOAM: The Open Source CFD Toolbox           |
|  \\    /   O peration     | Version:  5.x                                   |
|   \\  /    A nd           | Web:      www.OpenFOAM.org                      |
|    \\/     M anipulation  |                                                 |
\*---------------------------------------------------------------------------*/
FoamFile
{
    version     2.0;
    format      ascii;
    class       volScalarField;
    location    "4.5";
    object      T;
}
// * * * * * * * * * * * * * * * * * * * * * * * * * * * * * * * * * * * * * //

dimensions      [0 0 0 1 0 0 0];

internalField   nonuniform List<scalar> 
2048
(
9.81021
9.8104
9.81079
9.81136
9.8121
9.81298
9.81399
9.81511
9.81631
9.81759
9.81892
9.82029
9.82168
9.82308
9.82448
9.82587
9.82725
9.8286
9.82992
9.83121
9.83246
9.83367
9.83485
9.83598
9.83706
9.8381
9.83909
9.84003
9.84091
9.84174
9.84251
9.84321
9.84384
9.8444
9.84487
9.84525
9.84553
9.8457
9.84576
9.84569
9.84549
9.84514
9.84465
9.84399
9.84317
9.84217
9.841
9.83966
9.83815
9.83648
9.83466
9.83273
9.83072
9.82865
9.82657
9.82454
9.82259
9.82078
9.81915
9.81773
9.81656
9.81566
9.81505
9.81475
9.43876
9.43934
9.4405
9.44219
9.44438
9.44701
9.45001
9.45333
9.45692
9.46071
9.46465
9.4687
9.47282
9.47697
9.48112
9.48524
9.48931
9.49331
9.49723
9.50104
9.50474
9.50833
9.5118
9.51514
9.51835
9.52142
9.52435
9.52712
9.52974
9.5322
9.53447
9.53655
9.53842
9.54006
9.54146
9.54259
9.54343
9.54395
9.54412
9.54393
9.54334
9.54233
9.54087
9.53893
9.5365
9.53356
9.53011
9.52613
9.52165
9.5167
9.51132
9.50559
9.49959
9.49344
9.48727
9.48121
9.47542
9.47003
9.46517
9.46095
9.45748
9.45481
9.453
9.45209
9.08311
9.08408
9.086
9.0888
9.09242
9.09675
9.10171
9.10719
9.11308
9.11931
9.12579
9.13244
9.13919
9.146
9.1528
9.15955
9.16622
9.17276
9.17916
9.18539
9.19145
9.19731
9.20297
9.20843
9.21367
9.21869
9.22348
9.22802
9.23231
9.23633
9.24005
9.24346
9.24653
9.24923
9.25153
9.25339
9.25478
9.25565
9.25596
9.25567
9.25473
9.2531
9.25073
9.24759
9.24364
9.23884
9.2332
9.22669
9.21936
9.21123
9.20239
9.19295
9.18306
9.17291
9.16272
9.15271
9.14313
9.13422
9.12618
9.11922
9.11348
9.10909
9.10611
9.10461
8.74234
8.7437
8.74638
8.7503
8.75535
8.76139
8.76828
8.77588
8.78406
8.79268
8.80163
8.81081
8.82013
8.82951
8.83887
8.84816
8.85733
8.86632
8.87511
8.88367
8.89198
8.90003
8.9078
8.91529
8.92248
8.92937
8.93594
8.94218
8.94808
8.9536
8.95872
8.96342
8.96766
8.97139
8.97458
8.97717
8.97911
8.98034
8.98081
8.98046
8.97921
8.97702
8.97382
8.96955
8.96416
8.95761
8.94987
8.94093
8.93083
8.91961
8.90738
8.89429
8.88056
8.86644
8.85223
8.83827
8.82491
8.81248
8.80128
8.79159
8.78361
8.7775
8.77337
8.77129
8.41561
8.41737
8.42084
8.4259
8.43239
8.44015
8.44899
8.45871
8.46914
8.48012
8.4915
8.50316
8.51498
8.52686
8.53872
8.55047
8.56206
8.57342
8.58451
8.59531
8.60578
8.61592
8.62571
8.63515
8.64421
8.6529
8.66119
8.66906
8.67651
8.68348
8.68997
8.69592
8.7013
8.70605
8.71012
8.71344
8.71594
8.71756
8.71822
8.71785
8.71635
8.71366
8.70969
8.70438
8.69764
8.68942
8.67968
8.66841
8.65562
8.64138
8.62581
8.60911
8.59153
8.57342
8.55516
8.53721
8.52002
8.50403
8.48965
8.47721
8.46698
8.45916
8.45388
8.45122
8.10216
8.10433
8.10861
8.11484
8.12283
8.13235
8.14315
8.155
8.16768
8.181
8.19477
8.20887
8.22314
8.23747
8.25175
8.2659
8.27983
8.29348
8.3068
8.31974
8.3323
8.34444
8.35617
8.36747
8.37834
8.38875
8.39869
8.40814
8.41708
8.42547
8.43328
8.44045
8.44695
8.45271
8.45765
8.46171
8.4648
8.46683
8.46772
8.46736
8.46568
8.46255
8.4579
8.45162
8.44363
8.43384
8.4222
8.40868
8.39329
8.37609
8.35722
8.3369
8.31546
8.29329
8.27091
8.24888
8.22776
8.20814
8.19051
8.17529
8.1628
8.15328
8.14685
8.14362
7.80126
7.80387
7.809
7.81647
7.826
7.83732
7.85013
7.86413
7.87907
7.89471
7.91086
7.92735
7.94403
7.96075
7.97741
7.99389
8.0101
8.02596
8.04142
8.05643
8.07098
8.08506
8.09864
8.11174
8.12433
8.1364
8.14793
8.1589
8.16929
8.17905
8.18814
8.19652
8.20412
8.21088
8.2167
8.22151
8.2252
8.22767
8.22882
8.22854
8.22672
8.22324
8.21798
8.21083
8.20168
8.19042
8.17698
8.1613
8.14338
8.12328
8.10114
8.0772
8.05184
8.02554
7.99892
7.97266
7.9475
7.92414
7.90318
7.88514
7.87037
7.85913
7.85156
7.84776
7.51225
7.51533
7.52138
7.53013
7.54129
7.55448
7.56934
7.58553
7.60273
7.6207
7.6392
7.65806
7.6771
7.69618
7.71515
7.73391
7.75233
7.77033
7.78786
7.80487
7.82133
7.83725
7.85262
7.86743
7.88167
7.89534
7.90841
7.92085
7.93264
7.94372
7.95407
7.96363
7.97232
7.98007
7.98678
7.99235
7.99666
7.99961
8.00107
8.00092
7.99902
7.99525
7.98947
7.98154
7.97133
7.9587
7.94356
7.92582
7.90546
7.88252
7.85712
7.82955
7.80019
7.76965
7.73863
7.708
7.67863
7.65139
7.62701
7.60609
7.58901
7.57606
7.56737
7.56301
7.23452
7.23811
7.24512
7.25526
7.26813
7.28327
7.30025
7.31866
7.33815
7.35843
7.37927
7.40046
7.42183
7.44321
7.46446
7.48544
7.50602
7.5261
7.54562
7.56454
7.58284
7.60052
7.61759
7.63405
7.64989
7.6651
7.67964
7.6935
7.70664
7.71902
7.73059
7.7413
7.75108
7.75982
7.76742
7.77376
7.77873
7.78218
7.78399
7.78401
7.78211
7.77812
7.7719
7.76329
7.75211
7.73823
7.7215
7.70181
7.67909
7.65337
7.62475
7.59351
7.56009
7.52515
7.48957
7.45435
7.42058
7.38931
7.3614
7.33753
7.31814
7.30349
7.29368
7.28878
6.96748
6.97162
6.97969
6.99131
7.00599
7.02318
7.04235
7.06302
7.08482
7.10741
7.13056
7.15405
7.17771
7.20137
7.22485
7.248
7.27068
7.29278
7.31422
7.33497
7.35503
7.3744
7.3931
7.41113
7.4285
7.44519
7.46116
7.47639
7.49083
7.50447
7.51724
7.52908
7.53992
7.54966
7.55816
7.5653
7.57094
7.57493
7.57713
7.57738
7.57552
7.5714
7.56482
7.55561
7.54358
7.52855
7.51034
7.48881
7.46384
7.43541
7.4036
7.36867
7.33109
7.29162
7.25125
7.21121
7.17281
7.13732
7.10577
7.07891
7.05721
7.04088
7.02999
7.02456
6.71059
6.71533
6.72456
6.73778
6.75439
6.77373
6.79516
6.81816
6.84227
6.86717
6.8926
6.91836
6.94428
6.97017
6.99584
7.02112
7.04585
7.0699
7.0932
7.11571
7.13744
7.15841
7.17866
7.19821
7.21705
7.23516
7.25251
7.26905
7.28477
7.29962
7.31355
7.32652
7.33842
7.34914
7.35855
7.36651
7.37284
7.3774
7.38003
7.38056
7.37881
7.37461
7.36777
7.35806
7.34529
7.32922
7.30966
7.2864
7.25928
7.22823
7.19328
7.15464
7.11282
7.06862
7.02323
6.97809
6.93481
6.89489
6.85958
6.8297
6.8057
6.78773
6.77581
6.76988
6.46334
6.46874
6.47922
6.49418
6.51287
6.53448
6.55827
6.58362
6.61006
6.63725
6.66493
6.69293
6.72106
6.74915
6.77697
6.80435
6.83107
6.85702
6.8821
6.90629
6.92961
6.95212
6.97385
6.99484
7.01509
7.03457
7.05325
7.07107
7.08801
7.10404
7.11911
7.13317
7.14612
7.15784
7.16817
7.17696
7.18401
7.18917
7.19226
7.19311
7.19153
7.18734
7.1803
7.17019
7.15677
7.13979
7.11899
7.09414
7.06501
7.03144
6.9934
6.95105
6.90489
6.85579
6.8051
6.75454
6.70607
6.66152
6.62232
6.5894
6.56314
6.54362
6.53073
6.52433
6.22522
6.23136
6.24323
6.26009
6.28101
6.30501
6.33125
6.35901
6.38778
6.41723
6.44713
6.47732
6.50763
6.53787
6.56782
6.59725
6.62594
6.65372
6.68052
6.7063
6.73113
6.75508
6.77822
6.80059
6.8222
6.84301
6.86297
6.88202
6.90014
6.9173
6.93348
6.94862
6.96262
6.97533
6.9866
6.99623
7.00403
7.00981
7.0134
7.01461
7.01326
7.00913
7.00198
6.99156
6.97761
6.95982
6.93793
6.91161
6.8806
6.84463
6.80359
6.75755
6.70696
6.65275
6.59646
6.54013
6.48612
6.43669
6.39351
6.35754
6.32911
6.30813
6.29436
6.28755
5.99578
6.00275
6.01616
6.03509
6.05841
6.08496
6.11372
6.14393
6.17503
6.2067
6.23877
6.2711
6.30354
6.33592
6.36797
6.39943
6.43003
6.4596
6.48803
6.51533
6.54158
6.56689
6.59136
6.61506
6.63797
6.66007
6.68127
6.7015
6.72075
6.73901
6.75627
6.77246
6.7875
6.80122
6.81343
6.82392
6.83248
6.83891
6.84303
6.84465
6.84356
6.83956
6.83238
6.82175
6.80736
6.78889
6.76602
6.7384
6.70565
6.66744
6.6235
6.5738
6.51871
6.45919
6.39696
6.33443
6.2745
6.21992
6.17266
6.1337
6.1032
6.0809
6.06636
6.05919
5.77458
5.78246
5.79758
5.8188
5.84472
5.87395
5.90534
5.93803
5.97143
6.00528
6.03945
6.07386
6.10841
6.14288
6.17701
6.21047
6.24296
6.27425
6.30426
6.33299
6.36056
6.38714
6.41288
6.43784
6.46202
6.48536
6.50776
6.52914
6.54947
6.56878
6.58707
6.60431
6.62038
6.63511
6.64828
6.65965
6.66899
6.67609
6.68076
6.68281
6.68205
6.67823
6.6711
6.66033
6.64561
6.62658
6.60287
6.57408
6.53977
6.49947
6.45278
6.39948
6.33983
6.2748
6.20626
6.13706
6.07075
6.01074
5.95932
5.91745
5.88506
5.8616
5.84642
5.83897
5.56118
5.5701
5.58712
5.61086
5.63959
5.67166
5.70577
5.74096
5.77664
5.81259
5.84879
5.88523
5.92182
5.95836
5.99456
6.03001
6.06435
6.09732
6.12883
6.15889
6.18769
6.21546
6.24238
6.26855
6.29395
6.31851
6.34208
6.36455
6.38592
6.40623
6.42553
6.44379
6.46088
6.47663
6.49078
6.50304
6.51318
6.52097
6.52621
6.52872
6.52832
6.52475
6.51773
6.50691
6.49195
6.47247
6.44806
6.41826
6.38255
6.34036
6.29108
6.23429
6.17005
6.0993
6.02406
5.94763
5.87442
5.80868
5.75306
5.70842
5.67434
5.64994
5.63427
5.62662
5.35519
5.36527
5.38441
5.41092
5.44271
5.47778
5.51469
5.5524
5.59031
5.62828
5.66641
5.70481
5.74341
5.78199
5.82025
5.85769
5.89384
5.92844
5.96138
5.99269
6.02261
6.05147
6.07951
6.10684
6.13342
6.15917
6.18389
6.20741
6.22975
6.25101
6.27128
6.29054
6.30866
6.32544
6.34058
6.35375
6.36469
6.37317
6.379
6.38201
6.38199
6.37872
6.37188
6.3611
6.34599
6.32616
6.30118
6.27053
6.23362
6.18974
6.13808
6.07793
6.00911
5.93244
5.85008
5.7658
5.68506
5.61326
5.55345
5.50624
5.47075
5.44565
5.42966
5.4219
5.15622
5.16761
5.18911
5.2187
5.25378
5.29202
5.33181
5.37205
5.41211
5.452
5.49196
5.53225
5.5728
5.61339
5.65372
5.69315
5.7311
5.76728
5.80157
5.83402
5.86496
5.89481
5.9239
5.95234
5.98008
6.00701
6.03285
6.05737
6.08062
6.10277
6.12398
6.14422
6.16335
6.18118
6.19733
6.21142
6.22318
6.23237
6.2388
6.2423
6.24271
6.23979
6.23319
6.22252
6.20734
6.18727
6.16185
6.1305
6.09258
6.04725
5.99345
5.93012
5.85675
5.77401
5.68409
5.59122
5.50222
5.42401
5.36008
5.31059
5.27402
5.24848
5.23238
5.2246
4.96388
4.97676
5.0009
5.03388
5.07255
5.1141
5.15684
5.19961
5.24174
5.28341
5.32508
5.36718
5.40964
5.45222
5.49463
5.53608
5.57579
5.61351
5.64909
5.68257
5.7144
5.74513
5.77522
5.80473
5.83359
5.86169
5.88865
5.91413
5.93821
5.96119
5.9833
6.00449
6.02463
6.04353
6.06072
6.07574
6.08832
6.09823
6.10525
6.10926
6.11012
6.1076
6.10131
6.09081
6.07565
6.05543
6.02969
5.99779
5.95904
5.91253
5.85687
5.7906
5.71275
5.62381
5.5259
5.42357
5.32543
5.24047
5.17256
5.12115
5.08389
5.05824
5.04222
5.03453
4.77783
4.7924
4.81945
4.8562
4.89877
4.94376
4.98953
5.03483
5.0789
5.12219
5.16542
5.20927
5.2536
5.29813
5.34267
5.38617
5.42761
5.46681
5.50362
5.53801
5.57061
5.60211
5.63313
5.66368
5.69363
5.72293
5.75101
5.77737
5.80222
5.82594
5.84891
5.87105
5.89219
5.91218
5.93045
5.9464
5.9598
5.97043
5.97804
5.98257
5.9839
5.98181
5.97589
5.96563
5.95055
5.93026
5.90432
5.87201
5.83262
5.78521
5.72801
5.65909
5.57688
5.48167
5.37535
5.26256
5.15418
5.06213
4.9905
4.93767
4.90015
4.87472
4.859
4.85149
4.59771
4.61422
4.64446
4.68542
4.73223
4.78075
4.8296
4.87743
4.92331
4.96804
5.01266
5.0582
5.10435
5.15077
5.1975
5.24313
5.28625
5.32689
5.36488
5.40005
5.43326
5.46542
5.49733
5.52888
5.55989
5.59042
5.61964
5.64683
5.67234
5.69673
5.72054
5.7436
5.76572
5.78684
5.80623
5.8231
5.83733
5.84868
5.85686
5.8619
5.8637
5.8621
5.85662
5.84666
5.83171
5.81143
5.7854
5.7528
5.71295
5.66494
5.60657
5.53534
5.44892
5.34741
5.23236
5.10793
4.98796
4.8885
4.81357
4.75989
4.72262
4.69776
4.68255
4.67533
4.42319
4.44193
4.47566
4.52129
4.57274
4.62483
4.6768
4.72719
4.77467
4.82064
4.86645
4.91365
4.96159
5.00982
5.05884
5.10669
5.15141
5.19346
5.23259
5.26839
5.30208
5.33474
5.36753
5.40006
5.43206
5.46388
5.4943
5.52223
5.5483
5.57324
5.59787
5.62186
5.64491
5.66722
5.68778
5.70555
5.72061
5.73269
5.74142
5.74695
5.74924
5.74817
5.74317
5.73358
5.71881
5.69858
5.67259
5.63981
5.59965
5.55136
5.49221
5.41911
5.32865
5.2209
5.09693
4.95945
4.82617
4.71907
4.64144
4.58762
4.55114
4.52721
4.51271
4.50587
4.25393
4.27528
4.31272
4.36361
4.42014
4.47574
4.53089
4.58389
4.63273
4.67971
4.72646
4.77532
4.82504
4.87492
4.92639
4.97662
5.0228
5.06624
5.10652
5.14276
5.17676
5.20976
5.24343
5.27694
5.30985
5.34305
5.37476
5.40332
5.42983
5.45519
5.48066
5.50556
5.52948
5.55306
5.57487
5.59349
5.60937
5.62219
5.63144
5.63744
5.64021
5.63972
5.63527
5.6261
5.61154
5.5914
5.56557
5.53269
5.49232
5.44413
5.38462
5.31015
5.21582
5.10198
4.96912
4.81693
4.66814
4.55332
4.47383
4.42069
4.38558
4.36292
4.34933
4.34295
4.08961
4.11406
4.15536
4.21216
4.27432
4.33323
4.39161
4.44733
4.49721
4.54496
4.59234
4.64295
4.69445
4.74575
4.79988
4.8527
4.90013
4.94494
4.98642
5.02288
5.05703
5.09017
5.12477
5.15927
5.19294
5.22768
5.26082
5.28984
5.31668
5.3423
5.36864
5.39446
5.41913
5.44409
5.46727
5.48665
5.50334
5.51694
5.52664
5.53309
5.53632
5.53647
5.53264
5.52395
5.5096
5.48957
5.46404
5.43112
5.3906
5.34289
5.28346
5.20826
5.11018
4.99046
4.84914
4.68025
4.5131
4.39074
4.3105
4.25897
4.22582
4.20476
4.19227
4.18643
3.92989
3.95811
4.00325
4.06678
4.13522
4.197
4.2587
4.31737
4.36784
4.41615
4.46375
4.51628
4.56958
4.62192
4.67904
4.73477
4.78311
4.82931
4.87211
4.90849
4.94265
4.97566
5.01131
5.04684
5.08104
5.11752
5.15229
5.18156
5.2086
5.23426
5.26157
5.28834
5.31359
5.34008
5.36477
5.38477
5.40229
5.41671
5.42676
5.43365
5.43731
5.43815
5.43501
5.42686
5.41273
5.39277
5.36774
5.3348
5.29409
5.24732
5.18839
5.11324
5.01146
4.8861
4.73733
4.54937
4.36011
4.23082
4.15128
4.10239
4.07176
4.05262
4.04137
4.03613
3.77442
3.80735
3.856
3.92729
4.00284
4.06674
4.1319
4.19389
4.24433
4.29305
4.34031
4.39507
4.45027
4.50305
4.56361
4.62271
4.67141
4.71905
4.76342
4.79931
4.83337
4.8659
4.90283
4.93946
4.97381
5.01235
5.04904
5.07822
5.10538
5.13079
5.15924
5.187
5.21253
5.24079
5.26721
5.28758
5.30595
5.32129
5.33156
5.33887
5.34289
5.34452
5.34214
5.3346
5.32065
5.3007
5.27641
5.24344
5.20238
5.15711
5.09905
5.02495
4.91933
4.78857
4.63419
4.42434
4.20801
4.07308
3.99606
3.95088
3.92333
3.90638
3.89648
3.8919
3.62284
3.6618
3.7132
3.79351
3.87729
3.94207
4.01092
4.07682
4.12638
4.17546
4.2216
4.27912
4.33639
4.38869
4.45337
4.51648
4.56469
4.61391
4.66023
4.69508
4.72902
4.76056
4.79912
4.83697
4.8709
4.91194
4.95097
4.97959
5.00683
5.03158
5.06144
5.0903
5.11566
5.14601
5.17445
5.19482
5.21409
5.23049
5.24078
5.24853
5.25282
5.25534
5.25378
5.24693
5.23313
5.21304
5.18985
5.1568
5.11505
5.07197
5.01504
4.94332
4.83345
4.69739
4.54047
4.30534
4.05536
3.91712
3.84482
3.80445
3.78046
3.7659
3.75747
3.75358
3.47475
3.5216
3.5743
3.66531
3.75876
3.82252
3.89547
3.9662
4.01363
4.06325
4.10716
4.16826
4.22789
4.27832
4.34807
4.41609
4.46256
4.51361
4.56248
4.59547
4.62942
4.65925
4.7
4.73928
4.77192
4.81609
4.85802
4.88538
4.91279
4.93629
4.96801
4.99811
5.02262
5.05552
5.0864
5.10621
5.12649
5.14415
5.15419
5.16242
5.16684
5.17039
5.16972
5.16367
5.14995
5.12946
5.10788
5.07464
5.03166
4.99168
4.9359
4.86833
4.75345
4.61188
4.45717
4.19276
3.90035
3.76266
3.6976
3.66309
3.64308
3.63107
3.62416
3.62099
3.32966
3.38711
3.43865
3.54253
3.64761
3.70752
3.78524
3.86214
3.90565
3.95636
3.99646
4.06236
4.12482
4.17136
4.2475
4.32169
4.36455
4.41785
4.47018
4.50016
4.53448
4.56157
4.60533
4.64635
4.67642
4.7246
4.77022
4.79529
4.82315
4.84456
4.87878
4.91036
4.93304
4.96914
5.00303
5.02144
5.04291
5.06216
5.07151
5.08035
5.08468
5.08946
5.08973
5.08461
5.07091
5.04962
5.03035
4.99681
4.95169
4.91607
4.8611
4.80013
4.67892
4.53109
4.38562
4.08717
3.74069
3.60957
3.55457
3.52684
3.51111
3.50177
3.49641
3.49396
3.18704
3.25889
3.3054
3.42505
3.54437
3.59635
3.67988
3.76489
3.80191
3.85488
3.88886
3.96132
4.02733
4.06707
4.15146
4.23354
4.27012
4.32634
4.38343
4.40871
4.44418
4.46703
4.51498
4.55823
4.58387
4.63727
4.68765
4.70895
4.73787
4.75598
4.79363
4.82706
4.84646
4.8867
4.92435
4.94016
4.96314
4.98442
4.99249
5.00219
5.00608
5.01239
5.01361
5.0096
4.99584
4.97314
4.95717
4.92316
4.87458
4.84507
4.78997
4.73898
4.60945
4.45367
4.32755
3.98944
3.57345
3.45804
3.41595
3.39575
3.38449
3.37785
3.37406
3.37232
3.04622
3.13786
3.17346
3.31273
3.44981
3.48808
3.57904
3.67486
3.70172
3.759
3.78358
3.86511
3.93573
3.96459
4.05977
4.15206
4.17861
4.23879
4.30243
4.32064
4.35862
4.37507
4.42888
4.47505
4.49365
4.55396
4.61049
4.62592
4.65699
4.67006
4.71246
4.74827
4.76238
4.80802
4.85045
4.86201
4.88696
4.9109
4.91682
4.9278
4.93077
4.939
4.94114
4.93846
4.92461
4.89958
4.88832
4.85363
4.79967
4.77876
4.72171
4.68536
4.54464
4.37781
4.28512
3.90081
3.39494
3.30861
3.28204
3.26983
3.26311
3.25917
3.25693
3.2559
2.90638
3.02529
3.04143
3.20544
3.36498
3.38157
3.48233
3.59267
3.60419
3.66917
3.67969
3.77371
3.85049
3.86283
3.97224
4.07785
4.08921
4.15486
4.22755
4.2353
4.27801
4.28502
4.34698
4.39707
4.40501
4.4745
4.53903
4.54563
4.58067
4.58625
4.63522
4.67415
4.6802
4.73296
4.78154
4.78651
4.81418
4.84161
4.84418
4.85712
4.85847
4.86917
4.87211
4.87108
4.85713
4.82847
4.8238
4.78824
4.72616
4.7174
4.65526
4.64
4.48415
4.30107
4.26104
3.82292
3.20053
3.16233
3.15318
3.14911
3.14689
3.14559
3.14485
3.14451
)
;

boundaryField
{
    left
    {
        type            zeroGradient;
    }
    right
    {
        type            zeroGradient;
    }
    interface
    {
        type            fixedValue;
        value           nonuniform List<scalar> 
64
(
2.83484
2.97287
2.97287
3.15311
3.32733
3.32733
3.43479
3.55505
3.55505
3.62668
3.62668
3.72951
3.81055
3.81055
3.92957
4.04406
4.04406
4.11365
4.19266
4.19266
4.23954
4.23954
4.30724
4.36005
4.36005
4.43579
4.50562
4.50562
4.54412
4.54412
4.59771
4.63877
4.63877
4.69636
4.74898
4.74898
4.77857
4.80836
4.80836
4.82283
4.82283
4.8352
4.83844
4.83844
4.8245
4.79304
4.79304
4.75694
4.68877
4.68877
4.62149
4.62149
4.45527
4.25976
4.25976
3.78969
3.09003
3.09003
3.09003
3.09003
3.09003
3.09003
3.09003
3.09003
)
;
    }
    bottom
    {
        type            fixedValue;
        value           uniform 10;
    }
    defaultFaces
    {
        type            empty;
    }
}


// ************************************************************************* //
