/*--------------------------------*- C++ -*----------------------------------*\
| =========                 |                                                 |
| \\      /  F ield         | OpenFOAM: The Open Source CFD Toolbox           |
|  \\    /   O peration     | Version:  5.x                                   |
|   \\  /    A nd           | Web:      www.OpenFOAM.org                      |
|    \\/     M anipulation  |                                                 |
\*---------------------------------------------------------------------------*/
FoamFile
{
    version     2.0;
    format      ascii;
    class       volScalarField;
    location    "8.3001";
    object      gradTx;
}
// * * * * * * * * * * * * * * * * * * * * * * * * * * * * * * * * * * * * * //

dimensions      [0 -1 0 1 0 0 0];

internalField   nonuniform List<scalar> 
6300
(
-31.8398
-31.9107
-32.0519
-32.2619
-32.5384
-32.8783
-33.2774
-33.7301
-34.2297
-34.7681
-35.336
-35.9228
-36.5175
-37.1089
-37.6862
-31.7688
-31.8405
-31.9831
-32.1953
-32.4751
-32.8192
-33.2237
-33.6832
-34.1909
-34.7387
-35.317
-35.9149
-36.5209
-37.1229
-37.7096
-31.6263
-31.6993
-31.8447
-32.0613
-32.3473
-32.6998
-33.1152
-33.5881
-34.1121
-34.6788
-35.2783
-35.8991
-36.5282
-37.1523
-37.7584
-31.4108
-31.4857
-31.635
-31.8579
-32.1529
-32.5177
-32.949
-33.442
-33.9905
-34.5862
-35.2185
-35.8748
-36.5405
-37.1998
-37.8367
-31.1205
-31.1977
-31.3518
-31.5825
-31.8888
-32.2691
-32.721
-33.2405
-33.8218
-34.4569
-35.1347
-35.8412
-36.5594
-37.2696
-37.9516
-30.753
-30.8327
-30.9921
-31.2315
-31.5506
-31.949
-32.4254
-32.9771
-33.5994
-34.2848
-35.0222
-35.796
-36.5861
-37.3677
-38.1136
-30.3058
-30.3879
-30.5526
-30.8007
-31.1332
-31.551
-32.0546
-32.6431
-33.3139
-34.0608
-34.8732
-35.7347
-36.6212
-37.5016
-38.338
-29.7765
-29.8606
-30.0297
-30.2855
-30.6304
-31.0672
-31.5987
-32.227
-32.9523
-33.7712
-34.6753
-35.6481
-36.6627
-37.6795
-38.6462
-29.1632
-29.2483
-29.4201
-29.6812
-30.0357
-30.4887
-31.0462
-31.714
-32.4969
-33.3966
-34.4088
-35.5198
-36.7018
-37.9077
-39.0663
-28.4646
-28.5495
-28.7212
-28.9836
-29.3425
-29.8058
-30.3833
-31.0859
-31.9248
-32.9093
-34.0435
-35.3206
-36.7171
-38.1831
-39.6303
-27.6812
-27.7639
-27.9316
-28.1894
-28.5449
-29.0089
-29.5953
-30.3214
-31.207
-32.2725
-33.5351
-35.0022
-36.6628
-38.4773
-40.3592
-26.8152
-26.8932
-27.052
-27.2975
-27.6388
-28.0894
-28.6676
-29.3975
-30.3094
-31.4386
-32.8222
-34.4901
-36.4546
-38.704
-41.2104
-25.8711
-25.9417
-26.0859
-26.3097
-26.6235
-27.0424
-27.5882
-28.2916
-29.1943
-30.3505
-31.8247
-33.681
-35.9608
-38.6727
-41.9133
-24.8565
-24.9167
-25.0399
-25.2321
-25.5031
-25.8684
-26.3513
-26.9865
-27.8258
-28.9442
-30.4448
-32.4476
-35.0327
-38.1088
-41.5283
-23.7816
-23.8287
-23.9251
-24.0756
-24.2885
-24.577
-24.962
-25.4773
-26.178
-27.1557
-28.5619
-30.6294
-33.607
-37.1862
-37.7007
-38.1962
-38.6368
-39.0532
-39.4435
-39.8068
-40.143
-40.4526
-40.736
-40.9934
-41.2249
-41.4298
-41.6071
-41.7558
-41.8753
-41.9654
-42.027
-42.0621
-42.0735
-42.0652
-42.0412
-42.0061
-41.9634
-41.9161
-41.866
-41.8136
-41.7584
-41.6987
-41.6328
-41.5586
-41.4747
-41.3805
-41.2762
-41.1634
-41.0442
-40.9215
-40.7981
-40.6766
-40.5588
-40.4455
-40.3365
-40.2306
-40.1258
-40.0196
-39.91
-39.795
-39.6738
-39.5463
-39.4138
-39.2781
-39.1416
-39.0069
-38.8763
-38.7515
-38.6329
-38.5204
-38.4126
-38.3076
-38.2031
-38.0968
-37.9871
-37.873
-37.7544
-37.6325
-37.509
-37.3863
-37.2668
-37.1526
-37.0455
-36.9461
-36.8541
-36.7687
-36.6881
-36.6107
-36.5347
-36.4591
-36.3839
-36.3101
-36.2399
-36.1765
-36.1237
-36.0855
-36.0656
-36.0671
-36.0915
-36.1392
-36.2083
-36.2955
-36.396
-36.5033
-36.6108
-38.2265
-38.6716
-39.0909
-39.4824
-39.8458
-40.1815
-40.4903
-40.7732
-41.0309
-41.2633
-41.4695
-41.6482
-41.798
-41.9176
-42.0065
-42.0653
-42.0961
-42.102
-42.0875
-42.0575
-42.0169
-41.97
-41.9202
-41.8693
-41.8178
-41.7647
-41.7078
-41.6447
-41.5726
-41.4897
-41.3949
-41.2886
-41.1725
-41.0494
-40.9225
-40.7954
-40.6713
-40.5523
-40.4393
-40.3321
-40.2291
-40.1276
-40.0247
-39.9176
-39.804
-39.6827
-39.5537
-39.4184
-39.2791
-39.1389
-39.001
-38.8682
-38.7423
-38.6243
-38.5136
-38.4086
-38.3069
-38.2056
-38.1018
-37.9935
-37.8793
-37.7593
-37.6348
-37.5079
-37.3816
-37.259
-37.1426
-37.0344
-36.9352
-36.8448
-36.7616
-36.6837
-36.6086
-36.534
-36.4586
-36.3819
-36.3049
-36.2302
-36.1613
-36.1026
-36.059
-36.0349
-36.0339
-36.0582
-36.1082
-36.1822
-36.2766
-36.3859
-36.5032
-36.6207
-38.2895
-38.7437
-39.1684
-39.562
-39.9248
-40.2585
-40.5652
-40.847
-41.1049
-41.3393
-41.5487
-41.7311
-41.8837
-42.0041
-42.0909
-42.1441
-42.1658
-42.1601
-42.1323
-42.0891
-42.0367
-41.9808
-41.9257
-41.8735
-41.8244
-41.7763
-41.726
-41.6693
-41.6023
-41.5216
-41.4258
-41.3152
-41.1919
-41.0598
-40.9237
-40.7885
-40.6586
-40.537
-40.4249
-40.3218
-40.2252
-40.1314
-40.0359
-39.9346
-39.8241
-39.7027
-39.5702
-39.4287
-39.2815
-39.133
-38.9878
-38.8499
-38.7219
-38.605
-38.4985
-38.3999
-38.3057
-38.2116
-38.1135
-38.0082
-37.8939
-37.7707
-37.6403
-37.5059
-37.3718
-37.2421
-37.1207
-37.0103
-36.9118
-36.8248
-36.747
-36.6752
-36.6056
-36.5347
-36.4598
-36.3801
-36.2966
-36.212
-36.1312
-36.0599
-36.0045
-35.971
-35.9643
-35.9879
-36.0425
-36.1267
-36.2362
-36.3644
-36.5027
-36.6415
-38.3904
-38.8585
-39.2905
-39.6858
-40.0459
-40.3745
-40.6762
-40.9549
-41.2131
-41.4511
-41.667
-41.8569
-42.0158
-42.1391
-42.2235
-42.2681
-42.2751
-42.2497
-42.1996
-42.1338
-42.0615
-41.9907
-41.9271
-41.8735
-41.8293
-41.7912
-41.7534
-41.709
-41.6515
-41.5755
-41.4782
-41.3599
-41.2239
-41.076
-40.9235
-40.774
-40.6339
-40.5079
-40.3977
-40.3021
-40.2174
-40.1375
-40.0555
-39.9649
-39.8601
-39.7384
-39.5997
-39.4471
-39.2857
-39.1224
-38.9642
-38.8172
-38.6855
-38.5708
-38.4719
-38.3849
-38.3042
-38.2232
-38.1354
-38.0358
-37.9215
-37.7925
-37.6515
-37.5037
-37.3554
-37.2133
-37.0831
-36.9688
-36.872
-36.7915
-36.7238
-36.6636
-36.6045
-36.5408
-36.468
-36.384
-36.2895
-36.1885
-36.0873
-35.9942
-35.9183
-35.8683
-35.8514
-35.8727
-35.9343
-36.0347
-36.1688
-36.3282
-36.5015
-36.6758
-38.5379
-39.0251
-39.4658
-39.8601
-40.2122
-40.5294
-40.8203
-41.0923
-41.3502
-41.5948
-41.8227
-42.0271
-42.1992
-42.3302
-42.4135
-42.4464
-42.4311
-42.375
-42.2894
-42.1878
-42.0841
-41.9901
-41.9141
-41.8598
-41.8257
-41.8056
-41.7901
-41.7677
-41.7273
-41.6599
-41.5608
-41.4302
-41.2731
-41.0989
-40.9192
-40.7458
-40.5891
-40.456
-40.3493
-40.2669
-40.2025
-40.1465
-40.0877
-40.0153
-39.9205
-39.7986
-39.6495
-39.4779
-39.2926
-39.1044
-38.9244
-38.7624
-38.6247
-38.5139
-38.428
-38.3608
-38.3033
-38.2446
-38.1745
-38.0845
-37.9702
-37.8314
-37.6726
-37.5021
-37.3301
-37.1672
-37.0225
-36.9023
-36.8087
-36.7399
-36.6899
-36.6501
-36.6101
-36.5602
-36.4924
-36.4029
-36.292
-36.1652
-36.0318
-35.9039
-35.795
-35.7178
-35.6833
-35.6995
-35.7701
-35.8941
-36.0651
-36.272
-36.499
-36.7277
-38.7458
-39.2585
-39.708
-40.0953
-40.4288
-40.7223
-40.9915
-41.25
-41.5066
-41.7626
-42.0124
-42.244
-42.4418
-42.5901
-42.6761
-42.694
-42.646
-42.5428
-42.4021
-42.245
-42.0927
-41.9636
-41.87
-41.817
-41.8017
-41.8136
-41.8368
-41.8524
-41.8419
-41.7901
-41.6889
-41.5384
-41.347
-41.1298
-40.9057
-40.6937
-40.5102
-40.3662
-40.2659
-40.2057
-40.1755
-40.1595
-40.1397
-40.098
-40.02
-39.8979
-39.7314
-39.5287
-39.3038
-39.0745
-38.8589
-38.6724
-38.5252
-38.4212
-38.3571
-38.3229
-38.3039
-38.2826
-38.242
-38.1684
-38.0541
-37.899
-37.7107
-37.5027
-37.2917
-37.0948
-36.9268
-36.7972
-36.7097
-36.661
-36.6414
-36.6367
-36.6301
-36.6051
-36.5483
-36.4523
-36.3174
-36.1513
-35.9682
-35.7864
-35.6258
-35.5057
-35.4424
-35.4481
-35.5292
-35.6856
-35.9099
-36.1867
-36.4939
-36.8043
-39.0357
-39.583
-40.0397
-40.4079
-40.7031
-40.9503
-41.178
-41.4107
-41.6636
-41.9395
-42.2283
-42.5095
-42.7559
-42.9394
-43.037
-43.0365
-42.9401
-42.7648
-42.5386
-42.2952
-42.0681
-41.8859
-41.7674
-41.7201
-41.7384
-41.8053
-41.8944
-41.9749
-42.0157
-41.9915
-41.8881
-41.7055
-41.4579
-41.1707
-40.8746
-40.6005
-40.3744
-40.2137
-40.1246
-40.1015
-40.1278
-40.1782
-40.223
-40.2327
-40.1832
-40.0609
-39.8657
-39.6112
-39.3213
-39.025
-38.7516
-38.5256
-38.3635
-38.2711
-38.243
-38.2631
-38.3077
-38.3484
-38.357
-38.3108
-38.1966
-38.0145
-37.7772
-37.5075
-37.2328
-36.9811
-36.7755
-36.6316
-36.5549
-36.54
-36.5715
-36.6262
-36.6767
-36.6956
-36.6604
-36.5579
-36.3878
-36.162
-35.9027
-35.6382
-35.3984
-35.2117
-35.1022
-35.088
-35.1797
-35.3794
-35.6789
-36.0579
-36.4841
-36.9166
-39.4407
-40.0378
-40.4988
-40.8258
-41.0465
-41.2066
-41.3573
-41.5422
-41.7876
-42.0978
-42.4553
-42.825
-43.1604
-43.4125
-43.5392
-43.5171
-43.3481
-43.0601
-42.6998
-42.3217
-41.9791
-41.7162
-41.5625
-41.5287
-41.6054
-41.7647
-41.9646
-42.1546
-42.2831
-42.307
-42.2013
-41.966
-41.6261
-41.2245
-40.812
-40.4382
-40.1444
-39.9579
-39.8883
-39.9264
-40.0453
-40.2049
-40.357
-40.4528
-40.4513
-40.3288
-40.0854
-39.7449
-39.3478
-38.9425
-38.5758
-38.2869
-38.1014
-38.0286
-38.0593
-38.1682
-38.3171
-38.4602
-38.5511
-38.5509
-38.4369
-38.2093
-37.8906
-37.5192
-37.1411
-36.8008
-36.5353
-36.3693
-36.3111
-36.3522
-36.4681
-36.6217
-36.7688
-36.8641
-36.8692
-36.7611
-36.5382
-36.2207
-35.8448
-35.4543
-35.0945
-34.8066
-34.6248
-34.5752
-34.6746
-34.9296
-35.3334
-35.8609
-36.4653
-37.0825
-40.0116
-40.6888
-41.151
-41.3968
-41.477
-41.4764
-41.4874
-41.5865
-41.8183
-42.188
-42.6649
-43.1898
-43.6852
-44.0659
-44.256
-44.2092
-43.9272
-43.4598
-42.8866
-42.2971
-41.7753
-41.3894
-41.1849
-41.1782
-41.3533
-41.6658
-42.0492
-42.4227
-42.7011
-42.8092
-42.7011
-42.3771
-41.8832
-41.2939
-40.6935
-40.1607
-39.7599
-39.5336
-39.4971
-39.6348
-39.9042
-40.2423
-40.5721
-40.813
-40.8936
-40.7708
-40.4449
-39.9598
-39.3864
-38.8042
-38.2882
-37.8991
-37.6772
-37.6368
-37.7631
-38.0158
-38.3348
-38.6473
-38.8765
-38.9548
-38.841
-38.5354
-38.0796
-37.5408
-36.9948
-36.5126
-36.152
-35.9515
-35.9245
-36.0569
-36.3101
-36.6264
-36.9355
-37.1625
-37.2411
-37.1294
-36.8248
-36.3638
-35.8077
-35.2264
-34.6872
-34.2484
-33.9571
-33.848
-33.9454
-34.2653
-34.81
-35.553
-36.4281
-37.3314
-40.8253
-41.6491
-42.115
-42.2063
-42.0238
-41.7296
-41.4907
-41.4398
-41.6503
-42.124
-42.8052
-43.5974
-44.375
-44.9939
-45.3138
-45.2399
-44.7734
-44.0117
-43.0969
-42.1753
-41.3757
-40.8014
-40.5226
-40.5659
-40.9034
-41.4648
-42.148
-42.8278
-43.3643
-43.6226
-43.512
-43.033
-42.2774
-41.3796
-40.4776
-39.6932
-39.124
-38.8363
-38.8549
-39.1533
-39.6645
-40.2914
-40.9154
-41.4037
-41.6289
-41.5052
-41.0338
-40.302
-39.4374
-38.5709
-37.8177
-37.2704
-36.9917
-37.0049
-37.2848
-37.7678
-38.3618
-38.9543
-39.4191
-39.6352
-39.5211
-39.0778
-38.388
-37.5729
-36.7567
-36.0492
-35.5383
-35.2838
-35.3081
-35.5876
-36.0614
-36.6417
-37.2201
-37.6747
-37.8871
-37.7756
-37.3365
-36.6437
-35.8068
-34.9379
-34.1351
-33.478
-33.027
-32.8235
-32.8957
-33.2775
-34.001
-35.0549
-36.3503
-37.7132
-41.9917
-43.1248
-43.6182
-43.4098
-42.7317
-41.9031
-41.2235
-40.9165
-41.1035
-41.7612
-42.7858
-44.0258
-45.2934
-46.3523
-46.9389
-46.836
-46.0448
-44.784
-43.3169
-41.8779
-40.6515
-39.7877
-39.3968
-39.5296
-40.1313
-41.0885
-42.2514
-43.4395
-44.428
-44.9674
-44.8532
-44.087
-42.8765
-41.4711
-40.0926
-38.9158
-38.0827
-37.6979
-37.8097
-38.3656
-39.2581
-40.3447
-41.4542
-42.3734
-42.8665
-42.7404
-41.9975
-40.8355
-39.491
-38.1743
-37.0509
-36.255
-35.8858
-35.9888
-36.5142
-37.36
-38.3911
-39.445
-40.3197
-40.7911
-40.6755
-39.975
-38.877
-37.6062
-36.3623
-35.3026
-34.5552
-34.2146
-34.3245
-34.8383
-35.6595
-36.6595
-37.6831
-38.5356
-38.9994
-38.8935
-38.2135
-37.1311
-35.8519
-34.5544
-33.373
-32.4108
-31.7404
-31.4021
-31.3999
-31.7976
-32.7163
-34.2092
-36.175
-38.3156
-43.6385
-45.5228
-46.1323
-45.289
-43.656
-41.862
-40.4199
-39.6822
-39.8787
-40.8701
-42.4562
-44.4146
-46.5125
-48.3909
-49.5567
-49.4235
-47.9924
-45.8533
-43.4965
-41.2744
-39.4054
-38.0929
-37.5168
-37.8183
-38.8472
-40.4161
-42.3187
-44.3387
-46.1383
-47.2536
-47.1333
-45.7811
-43.7562
-41.5238
-39.4172
-37.6435
-36.3957
-35.8446
-36.1248
-37.0934
-38.5722
-40.3652
-42.2668
-43.9567
-44.9959
-44.8636
-43.565
-41.6316
-39.5045
-37.4995
-35.8123
-34.6252
-34.1001
-34.3643
-35.2823
-36.6852
-38.3873
-40.194
-41.8012
-42.7922
-42.6719
-41.4447
-39.6148
-37.6008
-35.7026
-34.1065
-32.9863
-32.4965
-32.7591
-33.6466
-34.9998
-36.6433
-38.3925
-39.9563
-40.9322
-40.838
-39.6701
-37.902
-35.9233
-34.0038
-32.2955
-30.9231
-29.9758
-29.4964
-29.3285
-29.5675
-30.6044
-32.6828
-35.7478
-39.3035
-45.7565
-49.76
-50.7419
-48.3044
-44.8095
-41.314
-38.6022
-37.1026
-37.5093
-39.1227
-41.5906
-44.6024
-48.0475
-51.4558
-54.0451
-53.8799
-50.9598
-47.236
-43.4822
-40.1624
-37.3581
-35.3378
-34.373
-35.0593
-36.7857
-39.2631
-42.2168
-45.5552
-48.8338
-51.3191
-51.1873
-48.4436
-44.935
-41.3952
-38.2623
-35.6142
-33.7052
-32.7944
-33.4484
-35.0864
-37.4338
-40.229
-43.3844
-46.477
-48.8122
-48.6663
-46.0464
-42.7066
-39.3422
-36.3669
-33.8535
-32.0421
-31.1778
-31.7982
-33.3522
-35.5797
-38.2331
-41.23
-44.1699
-46.3935
-46.2624
-43.7824
-40.6177
-37.4285
-34.6077
-32.225
-30.5095
-29.6951
-30.2938
-31.7843
-33.922
-36.4751
-39.3687
-42.2237
-44.4057
-44.3286
-41.9908
-38.9762
-35.9093
-33.1489
-30.7342
-28.8233
-27.5375
-27.142
-26.6713
-26.1885
-26.9926
-29.7356
-34.6141
-41.009
-47.2873
-58.3563
-60.2958
-52.8505
-45.9579
-39.6341
-35.038
-31.7781
-33.402
-36.145
-39.9418
-44.1662
-49.6357
-55.7002
-62.4998
-62.3034
-55.0843
-48.6621
-42.8429
-38.3082
-34.1817
-31.0631
-28.8514
-30.8028
-33.6428
-37.4243
-41.5609
-46.858
-52.6719
-59.1531
-59.0028
-52.2073
-46.159
-40.6807
-36.4093
-32.5203
-29.5776
-27.4907
-29.3552
-32.0579
-35.6506
-39.5743
-44.5925
-50.0877
-56.2013
-56.0316
-49.5646
-43.8171
-38.6196
-34.5693
-30.8839
-28.0951
-26.1177
-27.8877
-30.4521
-33.8608
-37.5842
-42.3481
-47.5702
-53.3856
-53.2351
-47.1058
-41.6561
-36.7257
-32.8821
-29.3828
-26.7352
-24.8587
-26.5442
-28.9901
-32.2462
-35.8164
-40.4005
-45.4601
-51.1321
-51.0748
-45.2861
-40.1257
-35.454
-31.7962
-28.4472
-25.8236
-23.8171
-24.8957
-24.0315
-20.9564
-20.589
-23.7132
-31.2966
-44.1481
-41.0097
-80.0781
-83.4363
-56.6746
-46.2977
-35.4649
-29.5497
-19.4207
-27.6833
-31.6496
-37.6776
-41.9369
-50.3672
-58.8859
-81.0288
-80.8398
-58.0614
-49.2197
-40.3542
-35.866
-29.5538
-25.4824
-17.335
-25.2665
-29.1442
-35.0742
-39.2339
-47.4166
-55.549
-76.5364
-76.3873
-54.8951
-46.5621
-38.2283
-34.0057
-28.0638
-24.2175
-16.4972
-24.0551
-27.7477
-33.3909
-37.3433
-45.1139
-52.8079
-72.6382
-72.4652
-52.0464
-44.1359
-36.2447
-32.2463
-26.6232
-22.9796
-15.6612
-22.8332
-26.3365
-31.6885
-35.4371
-42.8063
-50.116
-68.9687
-68.8172
-49.4505
-41.9467
-34.4577
-30.6607
-25.314
-21.8505
-14.893
-21.6997
-25.0289
-30.118
-33.6979
-40.7475
-47.8146
-66.1089
-66.0739
-47.6768
-40.5715
-33.5389
-29.9987
-25.1156
-21.9353
-15.6543
-25.4469
-24.5755
-11.8251
-9.1574
-11.2697
-20.3929
-50.2677
-36.7204
-36.8212
-36.8934
-36.9317
-36.9341
-36.9027
-36.842
-36.7591
-36.6621
-36.5596
-36.4598
-36.3704
-36.2975
-36.2461
-36.2196
-36.7402
-36.8498
-36.9274
-36.9674
-36.968
-36.9318
-36.8643
-36.7732
-36.6676
-36.5568
-36.4495
-36.3538
-36.276
-36.2213
-36.1931
-36.7823
-36.9103
-36.9992
-37.0424
-37.0388
-36.9923
-36.91
-36.8018
-36.6784
-36.5504
-36.4278
-36.3191
-36.2314
-36.1699
-36.1383
-36.8518
-37.0098
-37.1165
-37.1641
-37.1527
-37.0884
-36.9817
-36.8457
-36.6937
-36.5387
-36.3921
-36.2635
-36.1605
-36.0887
-36.052
-36.9576
-37.1608
-37.2928
-37.345
-37.3194
-37.2267
-37.0828
-36.9054
-36.712
-36.5185
-36.3383
-36.1822
-36.0583
-35.9726
-35.9288
-37.1142
-37.3827
-37.549
-37.6035
-37.5532
-37.4164
-37.2174
-36.981
-36.7304
-36.4851
-36.2605
-36.0686
-35.918
-35.8145
-35.7619
-37.3449
-37.7069
-37.9171
-37.9669
-37.8733
-37.6684
-37.3892
-37.0709
-36.7436
-36.4308
-36.1501
-35.9138
-35.7304
-35.6055
-35.5423
-37.6877
-38.1829
-38.4455
-38.4736
-38.3048
-37.9946
-37.6
-37.1699
-36.7423
-36.3445
-35.9951
-35.7059
-35.4844
-35.3349
-35.2596
-38.2068
-38.8916
-39.2083
-39.1773
-38.8777
-38.4053
-37.8462
-37.2663
-36.7111
-36.2099
-35.7799
-35.4305
-35.1665
-34.9899
-34.9015
-39.0144
-39.9682
-40.319
-40.1494
-39.6233
-38.9028
-38.1133
-37.3378
-36.626
-36.0041
-35.484
-35.0696
-34.761
-34.5567
-34.455
-40.3198
-41.6478
-41.9499
-41.4782
-40.5632
-39.4694
-38.3661
-37.3458
-36.4511
-35.6965
-35.0823
-34.603
-34.2514
-34.0209
-33.9069
-42.5447
-44.3532
-44.3546
-43.2503
-41.6818
-40.0455
-38.5361
-37.2281
-36.136
-35.2483
-34.5458
-34.0087
-33.6205
-33.3686
-33.2447
-46.6299
-48.8657
-47.865
-45.4865
-42.8683
-40.4947
-38.5046
-36.8947
-35.6163
-34.6151
-33.8438
-33.2656
-32.8534
-32.5883
-32.4586
-54.9586
-56.6146
-52.7532
-47.9624
-43.8102
-40.5602
-38.0929
-36.2296
-34.8196
-33.7519
-32.9487
-32.3565
-31.939
-31.6726
-31.5427
-74.5694
-69.8807
-58.5709
-49.7996
-43.8499
-39.8431
-37.0772
-35.1113
-33.6805
-32.6241
-31.8426
-31.2727
-30.8737
-30.6202
-30.497
-22.7532
-22.7862
-22.8536
-22.9584
-23.1058
-23.3046
-23.5691
-23.9239
-24.4136
-25.1232
-26.2287
-28.1238
-31.7338
-39.1071
-52.4325
-21.7953
-21.8146
-21.8535
-21.9131
-21.995
-22.1022
-22.24
-22.4182
-22.6569
-23.0002
-23.558
-24.6481
-27.3892
-36.6576
-78.3754
-20.8241
-20.8293
-20.8391
-20.8523
-20.8667
-20.8787
-20.8828
-20.8705
-20.8275
-20.7284
-20.5168
-20.0181
-18.4647
-11.6683
25.3988
-19.8492
-19.8408
-19.8224
-19.7908
-19.74
-19.6606
-19.5372
-19.3442
-19.0372
-18.5349
-17.6757
-16.1176
-13.1386
-7.69508
-3.88427
-18.8802
-18.8592
-18.815
-18.7425
-18.6332
-18.4731
-18.2398
-17.8969
-17.3827
-16.5895
-15.3213
-13.2075
-9.5169
-2.58318
13.4919
-17.9258
-17.8938
-17.8272
-17.7198
-17.5616
-17.3364
-17.0187
-16.5685
-15.9218
-14.9739
-13.5544
-11.3947
-8.14783
-3.81761
-1.98702
-16.9936
-16.9526
-16.8676
-16.7325
-16.5366
-16.2638
-15.8895
-15.3767
-14.67
-13.6859
-12.3011
-10.3376
-7.53139
-3.31575
4.95272
-16.0898
-16.0418
-15.943
-15.7873
-15.5651
-15.2618
-14.8565
-14.3197
-13.6108
-12.6761
-11.4498
-9.86568
-7.89384
-5.62824
-3.5125
-15.2194
-15.1664
-15.0578
-14.8884
-14.6499
-14.3307
-13.9148
-13.3821
-12.7085
-11.8688
-10.8469
-9.66309
-8.46032
-7.8366
-10.5083
-14.3859
-14.3296
-14.2148
-14.0374
-13.7909
-13.4667
-13.0543
-12.5425
-11.9214
-11.188
-10.3564
-9.47369
-8.62472
-7.75641
-5.04285
-13.5915
-13.5333
-13.4154
-13.2344
-12.9857
-12.6638
-12.2629
-11.7788
-11.2123
-10.5755
-9.90136
-9.26087
-8.80256
-8.9576
-12.0094
-12.8375
-12.7786
-12.6597
-12.4784
-12.2315
-11.9159
-11.5292
-11.0722
-10.5521
-9.98895
-9.42297
-8.92154
-8.55446
-8.14713
-5.4724
-12.1244
-12.0657
-11.9474
-11.7679
-11.5251
-11.2174
-10.8445
-10.4093
-9.92194
-9.40433
-8.89978
-8.48894
-8.33432
-8.91119
-12.7005
-11.4521
-11.3942
-11.2776
-11.1013
-10.8638
-10.5643
-10.2029
-9.78284
-9.31273
-8.81067
-8.31152
-7.87841
-7.60621
-7.44438
-5.26875
-10.8201
-10.7633
-10.6493
-10.4772
-10.2457
-9.95404
-9.60202
-9.19113
-8.72572
-8.21501
-7.6774
-7.15616
-6.80147
-7.37599
-13.6171
-10.2275
-10.1723
-10.0615
-9.89423
-9.6694
-9.38575
-9.04207
-8.63729
-8.17019
-7.63806
-7.03195
-6.31826
-5.35145
-3.37246
4.2317
-9.67318
-9.61989
-9.51287
-9.35131
-9.13397
-8.85916
-8.52457
-8.12676
-7.65984
-7.1125
-6.46121
-5.65617
-4.60435
-3.27525
-3.16961
-9.15594
-9.10481
-9.00216
-8.84715
-8.63846
-8.3741
-8.05101
-7.66425
-7.20536
-6.65914
-5.99728
-5.16547
-4.04984
-2.32837
1.57236
-8.67422
-8.62554
-8.52782
-8.38029
-8.18165
-7.92986
-7.62168
-7.25184
-6.81156
-6.2861
-5.6514
-4.8719
-3.91608
-2.8948
-3.04624
-8.22633
-8.18036
-8.08811
-7.94894
-7.76176
-7.52479
-7.2352
-6.88838
-6.47693
-5.98896
-5.40609
-4.70081
-3.8278
-2.6468
-0.241024
-7.8104
-7.76733
-7.681
-7.55096
-7.37647
-7.1563
-6.88847
-6.56984
-6.19545
-5.75775
-5.24582
-4.64621
-3.95344
-3.24929
-3.29354
-7.42439
-7.38437
-7.30426
-7.18388
-7.02294
-6.82093
-6.57706
-6.29005
-5.95798
-5.5781
-5.14647
-4.65635
-4.08702
-3.33199
-1.73857
-7.0662
-7.02929
-6.95551
-6.845
-6.69794
-6.51466
-6.29562
-6.04156
-5.75375
-5.43443
-5.08777
-4.72151
-4.34961
-3.99683
-3.71467
-6.73368
-6.69983
-6.6323
-6.53151
-6.39814
-6.23326
-6.03853
-5.81655
-5.57142
-5.30977
-5.04272
-4.79062
-4.59894
-4.61258
-5.49452
-6.4247
-6.39377
-6.33222
-6.24068
-6.12024
-5.9726
-5.80039
-5.60765
-5.4006
-5.18888
-4.98731
-4.81779
-4.70573
-4.62528
-4.04658
-6.13721
-6.10901
-6.05299
-5.96996
-5.86126
-5.72904
-5.57654
-5.40871
-5.23305
-5.06098
-4.90968
-4.80511
-4.79058
-4.98392
-6.03638
-5.86934
-5.84361
-5.79256
-5.71708
-5.61865
-5.49959
-5.36337
-5.21522
-5.06305
-4.91868
-4.79964
-4.72991
-4.73112
-4.74589
-4.08354
-5.61936
-5.59581
-5.54911
-5.48016
-5.39041
-5.28208
-5.1585
-5.02458
-4.88764
-4.75882
-4.65539
-4.60549
-4.66228
-4.978
-6.34359
-5.38578
-5.36411
-5.32116
-5.25772
-5.17509
-5.0752
-4.96085
-4.83605
-4.70664
-4.58137
-4.47398
-4.40702
-4.41367
-4.48098
-3.90946
-5.16727
-5.14722
-5.10746
-5.04863
-4.97178
-4.87839
-4.77049
-4.65075
-4.52279
-4.39153
-4.26454
-4.15745
-4.12295
-4.42752
-6.72028
-4.9627
-4.94406
-4.90702
-4.85209
-4.77999
-4.6917
-4.58836
-4.47121
-4.34127
-4.19876
-4.04129
-3.85752
-3.59682
-2.99328
-0.421099
-4.77111
-4.7537
-4.71905
-4.6675
-4.59948
-4.51548
-4.41587
-4.30057
-4.1685
-4.0164
-3.83636
-3.61104
-3.30879
-2.9261
-3.03721
-4.59165
-4.57535
-4.54285
-4.49437
-4.4301
-4.35015
-4.2543
-4.1416
-4.00969
-3.85349
-3.66289
-3.41802
-3.07665
-2.51594
-1.12127
-4.42353
-4.40826
-4.37779
-4.33223
-4.27163
-4.19588
-4.10446
-3.99601
-3.86777
-3.71449
-3.52714
-3.29205
-2.99688
-2.68484
-2.84535
-4.26605
-4.25177
-4.22325
-4.18056
-4.12371
-4.05254
-3.96646
-3.86421
-3.74327
-3.59918
-3.42458
-3.20784
-2.92885
-2.5255
-1.60917
-4.11851
-4.10518
-4.07857
-4.03876
-3.98578
-3.91957
-3.83974
-3.74542
-3.63487
-3.5051
-3.3513
-3.16689
-2.94722
-2.72233
-2.80769
-3.98027
-3.96786
-3.9431
-3.90612
-3.85708
-3.79608
-3.72311
-3.63792
-3.53987
-3.42773
-3.29933
-3.15045
-2.96926
-2.70363
-2.05808
-3.85068
-3.83913
-3.81614
-3.7819
-3.73671
-3.68093
-3.61499
-3.53938
-3.45469
-3.36169
-3.2616
-3.15648
-3.04998
-2.94869
-2.86689
-3.72913
-3.71838
-3.69701
-3.66532
-3.62373
-3.57288
-3.51362
-3.44718
-3.3753
-3.30061
-3.22741
-3.16349
-3.1271
-3.18016
-3.61856
-3.61508
-3.60503
-3.58509
-3.55563
-3.51721
-3.47069
-3.41728
-3.35879
-3.29788
-3.23854
-3.18679
-3.15143
-3.14214
-3.14395
-2.90742
-3.50805
-3.49857
-3.47982
-3.4522
-3.41636
-3.3733
-3.3245
-3.27212
-3.21941
-3.17121
-3.13483
-3.1213
-3.1495
-3.2732
-3.7986
-3.40762
-3.39859
-3.38074
-3.3545
-3.32055
-3.27994
-3.23423
-3.18572
-3.13783
-3.09572
-3.06702
-3.06224
-3.09057
-3.12341
-2.82907
-3.31348
-3.30477
-3.28753
-3.26218
-3.22939
-3.19015
-3.14594
-3.09891
-3.05228
-3.01095
-2.98264
-2.98021
-3.02854
-3.20075
-3.88004
-3.22543
-3.21689
-3.19998
-3.17506
-3.14273
-3.10384
-3.05963
-3.01185
-2.96307
-2.91716
-2.88033
-2.86295
-2.88051
-2.92589
-2.65707
-3.14334
-3.13485
-3.11801
-3.09313
-3.06066
-3.02126
-2.97583
-2.92552
-2.8719
-2.81711
-2.76454
-2.72147
-2.71319
-2.86917
-3.99243
-3.06718
-3.05864
-3.04166
-3.01648
-2.98342
-2.94291
-2.89544
-2.84152
-2.78157
-2.71555
-2.64219
-2.55585
-2.43183
-2.14064
-0.889711
-2.99698
-2.98831
-2.97105
-2.94534
-2.91139
-2.86942
-2.81956
-2.76176
-2.69547
-2.61911
-2.52887
-2.41643
-2.26661
-2.07853
-2.13578
-2.93283
-2.92397
-2.90632
-2.87995
-2.84497
-2.80143
-2.74922
-2.68791
-2.6164
-2.53235
-2.43101
-2.30299
-2.12797
-1.846
-1.15512
-2.87485
-2.86578
-2.84767
-2.82057
-2.78452
-2.73948
-2.68523
-2.62117
-2.54607
-2.45761
-2.35172
-2.22222
-2.06365
-1.89737
-1.96054
-2.82321
-2.81389
-2.79529
-2.76743
-2.73035
-2.68397
-2.62807
-2.56212
-2.48506
-2.39501
-2.28885
-2.16166
-2.0047
-1.78933
-1.33083
-2.77805
-2.76848
-2.74936
-2.72073
-2.68265
-2.63509
-2.57792
-2.51081
-2.43309
-2.34362
-2.24061
-2.1218
-1.98634
-1.85008
-1.86112
-2.73958
-2.72972
-2.71005
-2.68063
-2.64156
-2.59291
-2.53471
-2.4669
-2.38933
-2.30165
-2.20337
-2.09352
-1.96857
-1.80846
-1.48679
-2.70798
-2.69781
-2.67754
-2.64727
-2.60715
-2.55738
-2.49818
-2.42981
-2.3526
-2.26708
-2.1742
-2.07577
-1.97524
-1.87896
-1.80079
-2.68346
-2.67294
-2.65199
-2.62076
-2.57947
-2.52844
-2.46806
-2.39888
-2.32167
-2.23764
-2.1489
-2.05951
-1.97899
-1.93683
-2.06023
-2.66626
-2.65535
-2.63362
-2.60126
-2.55859
-2.506
-2.44407
-2.37354
-2.2955
-2.21151
-2.12407
-2.03713
-1.95613
-1.87966
-1.72335
-2.65667
-2.64529
-2.62264
-2.58896
-2.54461
-2.49009
-2.42607
-2.35346
-2.27348
-2.1878
-2.09891
-2.01065
-1.93015
-1.87787
-1.95937
-2.65501
-2.64308
-2.61935
-2.58409
-2.53771
-2.48079
-2.41407
-2.33853
-2.25543
-2.16636
-2.07334
-1.97882
-1.8846
-1.78312
-1.59
-2.66165
-2.64908
-2.62409
-2.58697
-2.53817
-2.47831
-2.40821
-2.32888
-2.24156
-2.14768
-2.04884
-1.94679
-1.84414
-1.75194
-1.74799
-2.67704
-2.66374
-2.63728
-2.59798
-2.54633
-2.48297
-2.40878
-2.3248
-2.23225
-2.13247
-2.02661
-1.9152
-1.79643
-1.65942
-1.44502
-2.70169
-2.68755
-2.65941
-2.6176
-2.56263
-2.49519
-2.41617
-2.32669
-2.22801
-2.12149
-2.00826
-1.88874
-1.76143
-1.6206
-1.45088
-2.73619
-2.72109
-2.69104
-2.64638
-2.58762
-2.51546
-2.43085
-2.33498
-2.22924
-2.11518
-1.99431
-1.86771
-1.73585
-1.60178
-1.50149
-2.7812
-2.76504
-2.73285
-2.68498
-2.62192
-2.5444
-2.45338
-2.35014
-2.23625
-2.11363
-1.98437
-1.85035
-1.71182
-1.55944
-1.3194
-2.83746
-2.82012
-2.78558
-2.73414
-2.66629
-2.58272
-2.48442
-2.37271
-2.24936
-2.11672
-1.97774
-1.83615
-1.69742
-1.57793
-1.57899
-2.90578
-2.88716
-2.85006
-2.79472
-2.72159
-2.63131
-2.52479
-2.40337
-2.26895
-2.12422
-1.97294
-1.81999
-1.66968
-1.51267
-1.23053
-2.98705
-2.96707
-2.92721
-2.86768
-2.78883
-2.69118
-2.57553
-2.44308
-2.29571
-2.13628
-1.96933
-1.80199
-1.64661
-1.53427
-1.61631
-3.08221
-3.0608
-3.01804
-2.95407
-2.86913
-2.76356
-2.63794
-2.49319
-2.33085
-2.15359
-1.966
-1.77572
-1.59365
-1.42085
-1.12852
-3.19225
-3.16936
-3.12361
-3.05505
-2.96377
-2.8499
-2.71366
-2.55551
-2.37637
-2.1781
-1.96455
-1.74376
-1.53427
-1.39038
-1.53224
-3.3182
-3.29382
-3.24504
-3.17183
-3.07412
-2.95177
-2.80461
-2.63244
-2.43518
-2.21323
-1.96815
-1.70396
-1.42935
-1.16144
-0.939634
-3.46111
-3.43524
-3.38345
-3.30564
-3.20158
-3.07089
-2.91295
-2.7268
-2.51116
-2.26444
-1.98502
-1.67141
-1.31978
-0.900464
-0.192841
-3.62199
-3.59467
-3.53996
-3.45769
-3.34756
-3.20895
-3.04088
-2.84166
-2.60874
-2.33838
-2.02565
-1.6653
-1.25721
-0.839666
-0.72536
-3.80186
-3.77313
-3.7156
-3.62912
-3.51331
-3.3675
-3.19044
-2.97994
-2.73233
-2.44176
-2.09935
-1.69235
-1.20124
-0.568251
0.592513
-4.00169
-3.9716
-3.91138
-3.82091
-3.69991
-3.54777
-3.36324
-3.14399
-2.88577
-2.58116
-2.21791
-1.77781
-1.2438
-0.66332
-0.59711
-4.22243
-4.191
-4.12817
-4.03392
-3.90816
-3.75053
-3.56017
-3.33512
-3.07143
-2.7613
-2.38986
-1.92852
-1.31864
-0.401228
1.5731
-4.465
-4.43223
-4.36679
-4.26883
-4.13854
-3.97604
-3.78119
-3.55311
-3.28934
-2.98404
-2.62424
-2.18238
-1.60706
-0.873076
-0.700784
-4.73034
-4.69617
-4.628
-4.5262
-4.39129
-4.22404
-4.02529
-3.79588
-3.5361
-3.24463
-2.91562
-2.52894
-2.00566
-0.954838
2.96036
-5.01941
-4.98372
-4.91259
-4.80656
-4.66653
-4.4939
-4.29071
-4.05976
-3.80488
-3.53129
-3.24706
-2.97036
-2.77063
-3.02573
-6.13481
-5.33328
-5.2959
-5.22143
-5.11053
-4.96441
-4.78501
-4.5754
-4.34027
-4.08667
-3.82535
-3.57328
-3.35834
-3.21976
-3.11465
-1.91367
-5.67312
-5.63384
-5.55556
-5.43899
-5.28541
-5.0971
-4.87783
-4.63361
-4.37383
-4.11299
-3.87372
-3.69329
-3.64566
-3.96457
-5.94452
-6.04025
-5.99886
-5.91631
-5.79314
-5.63053
-5.4307
-5.19759
-4.93775
-4.66172
-4.38567
-4.13331
-3.93604
-3.81702
-3.66096
-2.26418
-6.43612
-6.39248
-6.30526
-6.17469
-6.00151
-5.78743
-5.5359
-5.25315
-4.94965
-4.64189
-4.35464
-4.12445
-4.0141
-4.21895
-5.91219
-6.86231
-6.81638
-6.72432
-6.58584
-6.4009
-6.17018
-5.89591
-5.58298
-5.24053
-4.88388
-4.53634
-4.22964
-3.99229
-3.74331
-2.43761
-7.3204
-7.27232
-7.17561
-7.02926
-6.83208
-6.58318
-6.28276
-5.9333
-5.54129
-5.11953
-4.6897
-4.28668
-3.97856
-4.0015
-5.62781
-7.81188
-7.76205
-7.66139
-7.50798
-7.29918
-7.03197
-6.70368
-6.31316
-5.86273
-5.36079
-4.82443
-4.27781
-3.73492
-3.14623
-2.37578
-8.33797
-8.28708
-8.1838
-8.02518
-7.80684
-7.52318
-7.16781
-6.73464
-6.21992
-5.62597
-4.9663
-4.26636
-3.52309
-2.41716
1.41132
-8.89942
-8.84849
-8.74464
-8.58385
-8.35987
-8.06418
-7.68598
-7.21276
-6.63214
-5.93679
-5.13614
-4.285
-3.56311
-3.57875
-6.96328
-9.49623
-9.44664
-9.34504
-9.1864
-8.96271
-8.66249
-8.27014
-7.76546
-7.12405
-6.32073
-5.34106
-4.21387
-3.09096
-2.40081
-2.8678
-10.1275
-10.0809
-9.98506
-9.83412
-9.61869
-9.32478
-8.93232
-8.41311
-7.72841
-6.82713
-5.64842
-4.13978
-2.31827
-0.419302
0.903405
-10.7911
-10.7495
-10.6633
-10.5266
-10.3292
-10.0555
-9.68252
-9.17568
-8.48316
-7.52619
-6.18489
-4.28298
-1.59938
1.9624
5.59319
-11.4836
-11.4489
-11.3768
-11.2613
-11.0926
-10.8553
-10.5257
-10.0672
-9.42157
-8.49216
-7.11068
-4.96902
-1.49033
4.29617
12.8044
-12.2001
-12.1743
-12.1203
-12.0329
-11.9037
-11.7191
-11.4583
-11.0887
-10.5571
-9.77208
-8.56436
-6.58355
-2.98394
4.73987
25.9241
-146.667
-88.1106
-61.577
-48.8972
-42.1051
-38.0484
-35.4127
-33.5956
-32.293
-31.3385
-30.6348
-30.1224
-29.7639
-29.5362
-29.4255
-182.497
-82.4455
-54.689
-43.988
-38.6195
-35.4301
-33.3311
-31.8603
-30.7899
-29.9955
-29.4039
-28.9697
-28.6642
-28.4694
-28.3744
47.1403
-26.5758
-35.957
-35.3757
-33.6206
-32.0546
-30.8133
-29.8469
-29.0952
-28.5118
-28.0637
-27.7276
-27.4877
-27.3332
-27.2575
-6.9782
-15.3831
-24.1433
-27.5786
-28.4903
-28.4535
-28.1044
-27.6844
-27.2836
-26.9342
-26.6456
-26.4188
-26.2519
-26.1423
-26.088
26.0781
-3.94377
-16.0275
-21.5341
-24.0185
-25.0694
-25.4449
-25.5086
-25.4364
-25.3142
-25.1845
-25.0684
-24.9762
-24.9129
-24.8808
-1.35513
-4.96147
-12.4791
-17.5882
-20.5424
-22.1544
-23.0018
-23.4272
-23.6239
-23.6995
-23.7141
-23.7014
-23.6804
-23.6619
-23.6514
11.5996
-3.26303
-10.6032
-15.1388
-17.9982
-19.7703
-20.8517
-21.5047
-21.8956
-22.1272
-22.2626
-22.3401
-22.383
-22.4053
-22.4146
-3.00798
-6.78849
-10.675
-13.8535
-16.2092
-17.8658
-18.9991
-19.7641
-20.2777
-20.6217
-20.8513
-21.0028
-21.1
-21.1576
-21.1844
-14.9902
-10.2404
-11.2384
-13.1396
-14.9055