/*--------------------------------*- C++ -*----------------------------------*\
| =========                 |                                                 |
| \\      /  F ield         | OpenFOAM: The Open Source CFD Toolbox           |
|  \\    /   O peration     | Version:  5.x                                   |
|   \\  /    A nd           | Web:      www.OpenFOAM.org                      |
|    \\/     M anipulation  |                                                 |
\*---------------------------------------------------------------------------*/
FoamFile
{
    version     2.0;
    format      ascii;
    class       volScalarField;
    location    "3.5";
    object      gradTx;
}
// * * * * * * * * * * * * * * * * * * * * * * * * * * * * * * * * * * * * * //

dimensions      [0 -1 0 1 0 0 0];

internalField   nonuniform List<scalar> 
3200
(
45.2303
3.70988
1.64743
1.53892
0.813895
0.770319
0.465743
0.446294
0.292941
0.281848
0.170191
0.166052
0.179917
0.18006
0.172361
0.171521
0.158793
0.157682
0.143644
0.142469
0.128289
0.127128
0.113438
0.112352
0.0999247
0.0990468
0.0899781
0.0899807
0.0950135
0.164732
0.0825373
0.0553562
0.0535316
0.041806
0.0409799
0.0333847
0.0328256
0.0270999
0.0266694
0.0220979
0.0217503
0.0179988
0.0177103
0.0145538
0.014306
0.011533
0.0113055
0.00863834
0.00839885
0.00526172
0.00513116
0.0051501
0.00510365
0.00404758
0.00393488
0.00228423
0.00211835
-0.000198277
-0.000436946
-0.00381465
-0.00417898
-0.00947263
-0.01008
-0.0191801
-0.0203297
-0.0381991
-0.04087
-0.0840171
-0.0929269
-0.23852
-0.616613
-0.435683
-0.680677
-0.711997
-1.26657
-1.24099
-0.0557232
-0.00751966
-0.00152349
-52.9562
47.9128
3.10353
1.5761
1.35338
0.773103
0.680071
0.435435
0.393848
0.270991
0.247425
0.159739
0.150902
0.160297
0.160493
0.154507
0.152737
0.142697
0.140345
0.129235
0.126746
0.115516
0.113056
0.102217
0.099918
0.0901022
0.0882581
0.0812707
0.08144
0.0883074
0.13735
0.0766331
0.0517012
0.0476377
0.0381237
0.0363521
0.0302972
0.0291082
0.0245608
0.0236468
0.0200196
0.0192819
0.0163061
0.0156939
0.0131897
0.012664
0.010463
0.00997997
0.00786136
0.00735591
0.00490782
0.00463041
0.00460026
0.00449868
0.00366508
0.00342624
0.00211722
0.001765
-7.58344e-05
-0.000583159
-0.00327079
-0.00404609
-0.00826581
-0.00956087
-0.0168402
-0.019302
-0.0337114
-0.039497
-0.0750411
-0.0949336
-0.226875
-0.517143
-0.414339
-0.601227
-0.665712
-1.08362
-1.03005
-0.121687
-0.0208707
-0.00438082
-54.7512
50.5785
2.57501
1.45258
1.18215
0.712821
0.595888
0.397005
0.344652
0.245069
0.215567
0.146134
0.135023
0.141045
0.141172
0.136484
0.134284
0.126293
0.123358
0.114482
0.111372
0.102392
0.0993189
0.0906546
0.0877846
0.0799609
0.0776752
0.072277
0.0726314
0.0799143
0.114357
0.0692975
0.0472114
0.0419618
0.0341317
0.0318957
0.0270152
0.0255251
0.0218764
0.0207328
0.0178258
0.0169031
0.0145189
0.0137532
0.0117466
0.0110889
0.0093242
0.00871985
0.00701986
0.00639066
0.00446709
0.00411976
0.00405327
0.00392298
0.00325878
0.00296039
0.00191192
0.00147119
-6.73645e-06
-0.000642162
-0.00280343
-0.00377542
-0.00717597
-0.00880232
-0.0146929
-0.0177963
-0.0295686
-0.0369337
-0.0666911
-0.0924583
-0.208897
-0.433396
-0.381406
-0.526674
-0.60529
-0.919534
-0.853311
-0.155349
-0.0308486
-0.00672264
-56.5462
53.2235
2.11203
1.29499
1.01887
0.638443
0.514983
0.352714
0.297347
0.216344
0.185306
0.130195
0.11846
0.122029
0.122045
0.118363
0.116063
0.109687
0.106609
0.0994981
0.096233
0.0890329
0.0858058
0.0788605
0.0758493
0.0695981
0.0672167
0.0630532
0.0635457
0.0704348
0.0945451
0.061043
0.0420482
0.0363892
0.029916
0.0275451
0.0235976
0.0220283
0.0190918
0.0178893
0.0155526
0.0145828
0.0126669
0.0118622
0.0102495
0.00955816
0.00813904
0.00750355
0.00613552
0.00547719
0.0039633
0.00359787
0.00350882
0.00336862
0.00283783
0.00252453
0.00168231
0.00121885
2.86574e-05
-0.000640132
-0.00238363
-0.0034076
-0.00615708
-0.00787318
-0.0126571
-0.0159439
-0.0256021
-0.0334746
-0.0585007
-0.0863562
-0.186596
-0.360708
-0.340584
-0.454787
-0.535443
-0.770663
-0.701837
-0.166073
-0.0368116
-0.00832007
-58.3408
55.8471
1.70315
1.11575
0.859763
0.553787
0.435631
0.304147
0.251067
0.185621
0.156009
0.112522
0.101284
0.103155
0.103065
0.100186
0.0980047
0.0929497
0.0900218
0.0843604
0.0812516
0.0755145
0.0724415
0.0669092
0.0640438
0.0590805
0.0568297
0.0536433
0.0542041
0.0602665
0.0770374
0.0522082
0.0363516
0.0308492
0.0255361
0.0232576
0.0200848
0.0185863
0.0162378
0.0150911
0.0132248
0.0123003
0.0107705
0.0100035
0.00871563
0.00805652
0.00692255
0.00631656
0.0052228
0.00459794
0.00341357
0.00306492
0.0029664
0.00282988
0.00240817
0.00210982
0.00143754
0.000995579
4.31912e-05
-0.000595114
-0.0019926
-0.00297074
-0.00517951
-0.00682131
-0.0106812
-0.0138366
-0.0217069
-0.0293294
-0.0501972
-0.0773586
-0.161341
-0.29579
-0.294388
-0.384241
-0.459413
-0.633955
-0.569041
-0.160536
-0.0387439
-0.00905031
-60.1353
58.4506
1.33792
0.923261
0.702657
0.461619
0.356812
0.252444
0.205282
0.153464
0.127267
0.0935595
0.0835834
0.0843598
0.0841973
0.0819811
0.0800618
0.0761272
0.073544
0.0691208
0.0663755
0.0618896
0.0591756
0.0548512
0.0523222
0.0484545
0.04648
0.0440835
0.0446426
0.0496699
0.0611937
0.0430146
0.0302409
0.0253016
0.0210349
0.0190059
0.0165051
0.0151783
0.0133358
0.0123218
0.0108593
0.0100421
0.00884361
0.00816559
0.00715658
0.00657388
0.00568493
0.00514909
0.00429131
0.00374107
0.00283041
0.00252195
0.0024255
0.00230254
0.00197357
0.00171006
0.00118354
0.000792718
4.51586e-05
-0.00051973
-0.00161835
-0.00248466
-0.00422461
-0.0056807
-0.00873344
-0.0115407
-0.0178217
-0.0246543
-0.0416418
-0.0660882
-0.134067
-0.236306
-0.244543
-0.314283
-0.379409
-0.506824
-0.449989
-0.143531
-0.0369921
-0.00888849
-61.9294
61.0364
1.0069
0.723009
0.546368
0.364002
0.277976
0.198453
0.159683
0.120283
0.0988248
0.0736475
0.0654533
0.0656024
0.0654118
0.0637647
0.0621996
0.0592508
0.0571398
0.0538142
0.051569
0.0481939
0.0459742
0.0427215
0.0406542
0.0377528
0.0361473
0.0344054
0.0349022
0.0388135
0.0465381
0.0336047
0.0238167
0.0197271
0.0164443
0.014773
0.0128785
0.0117909
0.0104006
0.00957047
0.00846801
0.0077991
0.00689592
0.00634096
0.00558049
0.0051035
0.0044332
0.00399449
0.00334753
0.00289861
0.00222316
0.00197051
0.00188565
0.00178342
0.00153635
0.0013208
0.000924118
0.000604121
3.98167e-05
-0.000422997
-0.00125339
-0.00196362
-0.00328105
-0.00447622
-0.00679548
-0.00910585
-0.0139143
-0.0195731
-0.0327881
-0.0530765
-0.105423
-0.180582
-0.192237
-0.24451
-0.296913
-0.387063
-0.340922
-0.118529
-0.032103
-0.00789226
-63.7232
63.608
0.701531
0.518467
0.390308
0.262531
0.19888
0.142832
0.11411
0.0863845
0.0705318
0.0530562
0.0469894
0.0468586
0.0466846
0.0455451
0.0443929
0.042341
0.0407843
0.0384644
0.0368078
0.0344521
0.0328142
0.0305444
0.0290196
0.0269993
0.0258201
0.0246379
0.0250254
0.0278045
0.0327089
0.024069
0.0171647
0.0141203
0.0117891
0.0105491
0.00921956
0.0084157
0.0074431
0.00683001
0.0060594
0.00556551
0.00493431
0.00452457
0.00399306
0.00364086
0.0031722
0.00284822
0.00239582
0.00206521
0.00159898
0.00141234
0.00134649
0.0012701
0.00109785
0.000938794
0.000661618
0.000425293
3.04132e-05
-0.00031156
-0.000893232
-0.0014183
-0.00234238
-0.00322676
-0.00485786
-0.00657104
-0.00997295
-0.0141895
-0.0236514
-0.0387825
-0.0758665
-0.127398
-0.138307
-0.174731
-0.212908
-0.272755
-0.238905
-0.088089
-0.0247253
-0.00618437
-65.5168
66.169
0.413949
0.311729
0.234234
0.158496
0.11948
0.0861181
0.0684969
0.052011
0.0423039
0.0320087
0.0282883
0.0281166
0.0279961
0.0273261
0.0266222
0.0254114
0.0244594
0.0230881
0.0220746
0.0206816
0.0196795
0.0183375
0.0174049
0.0162122
0.015493
0.0148075
0.0150529
0.0167105
0.0194214
0.0144639
0.0103582
0.00848501
0.00709032
0.00632875
0.00553962
0.00504721
0.00447119
0.00409587
0.00363972
0.00333741
0.00296384
0.00271305
0.00239846
0.00218287
0.00190542
0.00170709
0.00143924
0.00123723
0.000963629
0.000849346
0.000807749
0.000760609
0.000658828
0.000561505
0.000397482
0.000252805
1.88921e-05
-0.000190535
-0.000535337
-0.000857007
-0.00140529
-0.00194743
-0.00291695
-0.00396868
-0.00599899
-0.00859618
-0.014288
-0.0236103
-0.045732
-0.0758385
-0.0833561
-0.104883
-0.128036
-0.162194
-0.141566
-0.0541505
-0.0155546
-0.00393574
-67.3102
68.7237
0.136832
0.104002
0.0780887
0.0529914
0.0398542
0.0287746
0.0228385
0.0173664
0.0140995
0.0106982
0.00944515
0.00937258
0.00932966
0.00910849
0.00887189
0.00847154
0.00815136
0.00769753
0.00735659
0.00689552
0.0065584
0.00611423
0.00580054
0.00540609
0.00516456
0.00493995
0.00502384
0.00557437
0.00644071
0.00482467
0.00346248
0.00283057
0.00236621
0.00210952
0.00184782
0.00168207
0.00149126
0.00136496
0.0012139
0.00111218
0.000988471
0.000904085
0.000799909
0.000727366
0.000635475
0.000568736
0.000480023
0.000412112
0.0003219
0.000283439
0.000269227
0.0002533
0.000219622
0.000186881
0.000132569
8.38843e-05
6.39087e-06
-6.40956e-05
-0.000178366
-0.000286649
-0.00046844
-0.000651
-0.000972754
-0.00132717
-0.00200235
-0.00287904
-0.00477927
-0.00792617
-0.015278
-0.0251829
-0.0278449
-0.0349694
-0.0427232
-0.0538242
-0.0468992
-0.0182593
-0.00530486
-0.00135005
-69.1034
68.7216
0.150706
0.128308
0.107388
0.0851598
0.0726547
0.0606968
0.0532926
0.0448319
0.0387106
0.0309532
0.028138
0.0282407
0.0281318
0.0272895
0.0263862
0.0248643
0.0236738
0.0220257
0.0208296
0.0192707
0.0181736
0.0167852
0.0158383
0.0146916
0.0140123
0.0134159
0.0137003
0.0153451
0.0178886
0.0135525
0.00992832
0.00826301
0.00706009
0.00639785
0.00572294
0.00529219
0.00479075
0.00445449
0.00404597
0.00376668
0.00342108
0.00318135
0.00287971
0.00266524
0.00238704
0.00217843
0.00189147
0.00166212
0.00134941
0.00123885
0.00125277
0.00125222
0.00121789
0.00117887
0.00111132
0.00105768
0.000982368
0.000926586
0.000851967
0.0007961
0.000719218
0.00065443
0.000551899
0.000437555
0.000209936
-0.00013727
-0.000964644
-0.00252324
-0.0063582
-0.0119905
-0.0152695
-0.0222708
-0.0297267
-0.0406995
-0.0362707
-0.0141742
-0.00412267
-0.00104946
-69.8068
66.1623
0.455484
0.384863
0.322216
0.25509
0.217942
0.181908
0.15992
0.134402
0.116197
0.0926621
0.0842972
0.0847307
0.0844246
0.0818711
0.0791832
0.0745797
0.0710398
0.0660589
0.0625034
0.0577936
0.0545325
0.0503379
0.0475229
0.044056
0.0420335
0.0402125
0.0410466
0.0459994
0.0539409
0.040629
0.0297066
0.0247706
0.0211587
0.0191941
0.0171591
0.0158794
0.0143657
0.0133664
0.0121328
0.0113027
0.010259
0.00954654
0.00863565
0.00799829
0.00715835
0.00653845
0.00567212
0.00498971
0.00404015
0.00371157
0.0037589
0.00375803
0.00365388
0.00353775
0.00333341
0.00317391
0.00294634
0.00278052
0.00255516
0.00238915
0.00215718
0.00196481
0.00165618
0.00131721
0.000634602
-0.000392592
-0.00286467
-0.00747864
-0.0190027
-0.0360656
-0.0456595
-0.066794
-0.0890395
-0.122714
-0.109519
-0.0420407
-0.0120889
-0.0030595
-69.4203
63.5957
0.770439
0.641101
0.537224
0.423822
0.363185
0.302558
0.266689
0.22368
0.193897
0.153764
0.140104
0.14125
0.140807
0.136458
0.132057
0.124253
0.118463
0.110035
0.104223
0.0962586
0.0909288
0.0838354
0.0792336
0.0733628
0.0700467
0.066903
0.0682283
0.0765342
0.0908435
0.06761
0.0492456
0.0412252
0.0351914
0.0319932
0.0285651
0.0264761
0.0239201
0.0222877
0.0202035
0.0188474
0.0170838
0.0159197
0.0143807
0.0133395
0.0119209
0.0109084
0.00944546
0.00832804
0.00670609
0.00616929
0.006267
0.00626801
0.00609038
0.00590021
0.00555374
0.0052929
0.00490787
0.00463688
0.00425602
0.00398488
0.0035936
0.00327988
0.00276171
0.00221064
0.00107309
-0.000590083
-0.00467898
-0.0121576
-0.0314256
-0.0604393
-0.0755877
-0.111273
-0.147895
-0.206604
-0.184938
-0.0684061
-0.0192182
-0.00480767
-69.0337
61.017
1.10264
0.896319
0.752613
0.590443
0.508428
0.422217
0.373743
0.312428
0.272011
0.213807
0.19532
0.197834
0.197347
0.191047
0.185067
0.173845
0.165993
0.153907
0.14603
0.134618
0.127396
0.117233
0.110995
0.102567
0.0980532
0.0934148
0.0951308
0.106829
0.129248
0.0943964
0.0683709
0.0576005
0.0491109
0.0448016
0.0399176
0.0370915
0.0334376
0.0312272
0.0282452
0.0264084
0.0238847
0.022308
0.0201059
0.0186959
0.0166673
0.0152964
0.0132051
0.0116866
0.00932869
0.00860169
0.00877903
0.00878521
0.00852746
0.00826898
0.00777072
0.00741693
0.00686491
0.0064977
0.00595256
0.00558547
0.00502697
0.00460318
0.00386861
0.00312759
0.00153266
-0.000690483
-0.00635764
-0.0163649
-0.0434585
-0.0853675
-0.104694
-0.155714
-0.205867
-0.293709
-0.264152
-0.0920777
-0.0249563
-0.00613566
-68.647
58.4218
1.45955
1.14903
0.968741
0.753858
0.653839
0.540367
0.481311
0.400341
0.350836
0.272262
0.249695
0.254537
0.254118
0.245624
0.238287
0.223303
0.213692
0.19761
0.187977
0.172811
0.16398
0.150475
0.142844
0.131616
0.126065
0.119673
0.121634
0.136695
0.169944
0.12083
0.0868863
0.0738848
0.0628633
0.0576332
0.051188
0.0477403
0.0428976
0.0401977
0.0362412
0.0339971
0.0306478
0.0287214
0.0257996
0.0240772
0.0213876
0.0197134
0.0169419
0.0150789
0.0118861
0.010998
0.011298
0.0113131
0.0109647
0.0106475
0.00998202
0.00954899
0.00881466
0.00836573
0.00764206
0.00719382
0.00645505
0.00593901
0.00497586
0.00407878
0.00201744
-0.000653033
-0.00786259
-0.0198886
-0.0548986
-0.111199
-0.132533
-0.200189
-0.262331
-0.385509
-0.349066
-0.111551
-0.0287624
-0.00691058
-68.26
55.8064
1.84916
1.39654
1.18625
0.912678
0.799788
0.656341
0.589756
0.486996
0.430825
0.328476
0.302974
0.311451
0.311213
0.300154
0.291812
0.272546
0.261649
0.241056
0.230147
0.21075
0.200752
0.183481
0.174838
0.160437
0.15411
0.145596
0.147614
0.165834
0.213934
0.146657
0.104564
0.0900901
0.0763843
0.0705136
0.0623387
0.058445
0.0522721
0.0492187
0.044169
0.0416301
0.0373543
0.0351749
0.0314456
0.0294973
0.0260673
0.0241744
0.0206425
0.0185245
0.0143515
0.0133469
0.0138285
0.0138556
0.0134007
0.01304
0.0121841
0.0116932
0.0107531
0.0102449
0.00932067
0.0088139
0.00787433
0.00729283
0.00608058
0.00507665
0.0025267
-0.000433904
-0.00917475
-0.0224928
-0.0654869
-0.138428
-0.158518
-0.244885
-0.316353
-0.483693
-0.442023
-0.124835
-0.030131
-0.00703686
-67.8729
53.1677
2.28007
1.63435
1.40629
1.06507
0.94696
0.76924
0.699648
0.571787
0.51266
0.381617
0.354893
0.368713
0.368741
0.354576
0.345775
0.321454
0.309995
0.284115
0.272656
0.248313
0.237815
0.216142
0.207062
0.188936
0.182243
0.171099
0.172946
0.193779
0.26254
0.171478
0.121138
0.106265
0.0895921
0.0834864
0.0733184
0.0692411
0.061522
0.0583198
0.0519965
0.0493329
0.0439771
0.0416905
0.0370205
0.0349769
0.0306859
0.0287012
0.0242867
0.0220524
0.0166903
0.0156365
0.0163773
0.0164175
0.0158332
0.0154525
0.0143718
0.0138556
0.0126744
0.0121408
0.0109827
0.0104514
0.00927943
0.00867202
0.0071771
0.0061365
0.00305252
1.65748e-05
-0.0103037
-0.0239097
-0.074877
-0.167771
-0.181852
-0.290176
-0.366539
-0.590237
-0.545999
-0.129219
-0.0286351
-0.00646951
-67.4855
50.5044
2.76139
1.85546
1.63086
1.20854
1.09652
0.877814
0.81187
0.653829
0.597372
0.430585
0.405192
0.426528
0.426837
0.408783
0.400359
0.369848
0.358918
0.326597
0.31568
0.285322
0.275325
0.248301
0.239648
0.216977
0.210555
0.196083
0.197518
0.219806
0.317539
0.194669
0.136293
0.122512
0.102378
0.0966221
0.0840548
0.0801833
0.0705916
0.067546
0.059678
0.0571437
0.0504774
0.0483018
0.0424906
0.0405467
0.0352124
0.0333254
0.0278439
0.0257057
0.018857
0.0178545
0.0189543
0.0190046
0.0182577
0.0178931
0.0165371
0.0160447
0.0145701
0.0140619
0.0126199
0.0121148
0.0106621
0.0100869
0.00825561
0.00727824
0.00357658
0.000758592
-0.011301
-0.023832
-0.0825897
-0.200267
-0.201416
-0.336745
-0.410832
-0.707498
-0.664877
-0.120956
-0.0240024
-0.00522767
-67.0979
47.8174
3.30264
2.04932
1.86334
1.3396
1.25034
0.980279
0.927777
0.731807
0.686498
0.473897
0.453621
0.485183
0.485668
0.462606
0.455827
0.417459
0.408697
0.368223
0.359483
0.321518
0.313517
0.279724
0.272795
0.244369
0.239189
0.220431
0.221258
0.242816
0.381364
0.215282
0.149665
0.139014
0.114588
0.110031
0.0944438
0.0913545
0.0793997
0.0769655
0.0671464
0.06512
0.0567984
0.0550588
0.0478063
0.0462524
0.0396012
0.0380936
0.0312677
0.0295475
0.0207899
0.0199885
0.0215735
0.0216238
0.0206672
0.0203737
0.0186681
0.0182734
0.0164272
0.0160206
0.0142198
0.0138162
0.0120099
0.0115522
0.00930015
0.00852914
0.00406547
0.00187046
-0.0122792
-0.021905
-0.0879453
-0.237422
-0.215612
-0.385764
-0.446221
-0.83833
-0.803806
-0.094813
-0.0162425
-0.00340673
-66.7101
45.1113
3.91318
2.20048
2.10934
1.45328
1.41139
1.07404
1.04942
0.80376
0.782316
0.509517
0.499977
0.545082
0.54544
0.515777
0.512559
0.463886
0.459745
0.408579
0.404455
0.356515
0.352741
0.310073
0.306802
0.270832
0.268366
0.243995
0.244168
0.261148
0.457374
0.231877
0.160838
0.156067
0.126005
0.123881
0.104333
0.102881
0.0878273
0.0866807
0.0743035
0.0733486
0.0628565
0.0620367
0.0528944
0.0521623
0.0437847
0.0430749
0.0344875
0.0336712
0.0224049
0.0220273
0.0242542
0.0242835
0.0230503
0.0229109
0.0207469
0.0205603
0.018227
0.0180352
0.015764
0.015574
0.0133039
0.0130894
0.0102857
0.00992795
0.00446383
0.00346074
-0.0134382
-0.0177211
-0.0899629
-0.281429
-0.222129
-0.439169
-0.468342
-0.986226
-0.969713
-0.0434532
-0.00585327
-0.00118472
-66.3223
45.1112
3.91317
2.20048
2.10933
1.45328
1.4114
1.07404
1.04942
0.803761
0.782317
0.509518
0.499978
0.545084
0.545441
0.515778
0.51256
0.463887
0.459746
0.408581
0.404456
0.356516
0.352742
0.310074
0.306803
0.270832
0.268367
0.243996
0.244169
0.261149
0.457376
0.231878
0.160839
0.156068
0.126006
0.123881
0.104334
0.102882
0.087828
0.0866815
0.0743042
0.0733493
0.0628572
0.0620374
0.0528949
0.0521629
0.0437852
0.0430754
0.0344879
0.0336716
0.0224051
0.0220275
0.0242546
0.0242838
0.0230507
0.0229113
0.0207473
0.0205607
0.0182275
0.0180356
0.0157644
0.0155744
0.0133044
0.0130899
0.0102862
0.00992851
0.00446478
0.00346177
-0.0134356
-0.0177182
-0.0899535
-0.281403
-0.22211
-0.439138
-0.46831
-0.986174
-0.969663
-0.0434508
-0.00585294
-0.00118477
-66.3225
47.8174
3.30263
2.04931
1.86334
1.3396
1.25034
0.98028
0.927779
0.731809
0.6865
0.473899
0.453622
0.485185
0.485669
0.462607
0.455828
0.41746
0.408698
0.368224
0.359484
0.321519
0.313518
0.279725
0.272796
0.24437
0.23919
0.220432
0.221259
0.242818
0.381366
0.215283
0.149666
0.139015
0.114589
0.110031
0.0944445
0.0913553
0.0794004
0.0769662
0.0671471
0.0651207
0.0567991
0.0550595
0.0478068
0.046253
0.0396017
0.0380941
0.0312681
0.0295479
0.0207902
0.0199887
0.0215738
0.0216241
0.0206675
0.020374
0.0186685
0.0182738
0.0164276
0.016021
0.0142202
0.0138166
0.0120103
0.0115526
0.00930066
0.0085297
0.00406635
0.00187153
-0.0122769
-0.0219018
-0.0879363
-0.237401
-0.215594
-0.385736
-0.446191
-0.838285
-0.803764
-0.0948078
-0.0162416
-0.00340661
-66.7103
50.5044
2.76138
1.85546
1.63086
1.20854
1.09652
0.877816
0.811872
0.65383
0.597374
0.430586
0.405193
0.426529
0.426838
0.408784
0.40036
0.369849
0.358919
0.326598
0.315681
0.285323
0.275326
0.248301
0.239649
0.216978
0.210556
0.196084
0.197519
0.219807
0.317541
0.194671
0.136294
0.122513
0.102378
0.0966228
0.0840555
0.0801839
0.0705923
0.0675467
0.0596786
0.0571443
0.050478
0.0483024
0.0424911
0.0405472
0.0352128
0.0333258
0.0278443
0.025706
0.0188572
0.0178547
0.0189545
0.0190049
0.0182581
0.0178935
0.0165375
0.0160451
0.0145704
0.0140623
0.0126203
0.0121152
0.0106625
0.0100873
0.00825607
0.00727876
0.00357737
0.000759622
-0.0112989
-0.0238288
-0.0825814
-0.200248
-0.201399
-0.336722
-0.410805
-0.70746
-0.664842
-0.120949
-0.024001
-0.0052273
-67.0981
53.1677
2.28006
1.63435
1.40629
1.06507
0.94696
0.769241
0.699649
0.571788
0.512661
0.381618
0.354894
0.368714
0.368742
0.354577
0.345776
0.321455
0.309996
0.284115
0.272657
0.248314
0.237816
0.216143
0.207063
0.188936
0.182244
0.1711
0.172947
0.19378
0.262541
0.171479
0.121139
0.106266
0.0895928
0.0834871
0.0733191
0.0692417
0.0615226
0.0583204
0.051997
0.0493334
0.0439776
0.041691
0.0370209
0.0349774
0.0306863
0.0287016
0.024287
0.0220527
0.0166905
0.0156367
0.0163775
0.0164177
0.0158335
0.0154527
0.0143721
0.0138559
0.0126748
0.0121411
0.0109831
0.0104518
0.00927976
0.00867237
0.00717751
0.00613697
0.00305321
1.75232e-05
-0.0103018
-0.0239067
-0.0748696
-0.167756
-0.181837
-0.290156
-0.366516
-0.590205
-0.54597
-0.129212
-0.0286334
-0.00646893
-67.4857
55.8063
1.84915
1.39654
1.18625
0.912678
0.799789
0.656342
0.589757
0.486997
0.430825
0.328477
0.302974
0.311451
0.311214
0.300155
0.291813
0.272546
0.26165
0.241057
0.230147
0.21075
0.200753
0.183482
0.174838
0.160438
0.154111
0.145597
0.147615
0.165835
0.213935
0.146658
0.104565
0.0900908
0.0763849
0.0705142
0.0623392
0.0584455
0.0522726
0.0492192
0.0441694
0.0416306
0.0373547
0.0351753
0.031446
0.0294977
0.0260677
0.0241747
0.0206428
0.0185247
0.0143517
0.0133471
0.0138287
0.0138558
0.013401
0.0130402
0.0121844
0.0116935
0.0107534
0.0102451
0.00932094
0.00881418
0.00787461
0.00729313
0.00608092
0.00507705
0.00252729
-0.000433067
-0.00917315
-0.02249
-0.0654805
-0.138416
-0.158505
-0.244868
-0.316332
-0.483667
-0.441999
-0.124828
-0.0301292
-0.00703614
-67.873
58.4218
1.45954
1.14903
0.96874
0.753858
0.65384
0.540368
0.481312
0.400342
0.350837
0.272262
0.249695
0.254537
0.254119
0.245624
0.238287
0.223303
0.213692
0.197611
0.187978
0.172811
0.163981
0.150475
0.142845
0.131616
0.126065
0.119673
0.121635
0.136696
0.169945
0.120831
0.0868869
0.0738853
0.0628638
0.0576337
0.0511884
0.0477407
0.042898
0.0401981
0.0362416
0.0339974
0.0306482
0.0287218
0.0258
0.0240775
0.0213878
0.0197136
0.0169421
0.0150791
0.0118863
0.0109981
0.0112981
0.0113132
0.0109648
0.0106476
0.00998222
0.0095492
0.00881487
0.00836595
0.00764228
0.00719404
0.00645528
0.00593925
0.00497614
0.00407911
0.00201792
-0.000652327
-0.00786125
-0.0198862
-0.0548933
-0.111189
-0.132522
-0.200175
-0.262314
-0.385488
-0.349047
-0.111545
-0.0287607
-0.0069098
-68.2602
61.017
1.10263
0.896318
0.752612
0.590443
0.508429
0.422218
0.373744
0.312429
0.272011
0.213808
0.19532
0.197834
0.197347
0.191048
0.185067
0.173845
0.165993
0.153907
0.14603
0.134619
0.127396
0.117234
0.110996
0.102568
0.0980536
0.0934152
0.0951312
0.10683
0.129249
0.0943971
0.0683715
0.057601
0.0491113
0.044802
0.0399179
0.0370918
0.0334379
0.0312275
0.0282455
0.0264087
0.023885
0.0223082
0.0201062
0.0186961
0.0166675
0.0152966
0.0132052
0.0116868
0.00932881
0.00860178
0.00877913
0.00878533
0.00852759
0.00826913
0.00777087
0.00741709
0.00686508
0.00649787
0.00595272
0.00558564
0.00502715
0.00460337
0.00386883
0.00312785
0.00153303
-0.000689924
-0.00635659
-0.016363
-0.0434543
-0.0853599
-0.104686
-0.155703
-0.205854
-0.293692
-0.264138
-0.0920724
-0.0249548
-0.00613491
-68.6471
63.5957
0.770434
0.641099
0.537224
0.423822
0.363186
0.302558
0.266689
0.22368
0.193897
0.153764
0.140105
0.141251
0.140808
0.136458
0.132057
0.124253
0.118464
0.110035
0.104224
0.0962589
0.090929
0.0838357
0.0792338
0.073363
0.070047
0.0669032
0.0682285
0.0765345
0.090844
0.0676105
0.049246
0.0412255
0.0351917
0.0319934
0.0285653
0.0264763
0.0239203
0.0222879
0.0202037
0.0188475
0.017084
0.0159199
0.0143809
0.0133397
0.0119211
0.0109085
0.00944559
0.00832815
0.00670618
0.00616935
0.00626707
0.0062681
0.00609048
0.00590031
0.00555385
0.00529301
0.00490798
0.004637
0.00425614
0.003985
0.00359372
0.00328001
0.00276186
0.00221082
0.00107335
-0.00058968
-0.00467823
-0.0121562
-0.0314226
-0.060434
-0.0755817
-0.111265
-0.147886
-0.206593
-0.184928
-0.0684022
-0.019217
-0.00480703
-69.0338
66.1623
0.45548
0.384863
0.322216
0.25509
0.217943
0.181908
0.15992
0.134402
0.116197
0.0926622
0.0842973
0.0847309
0.0844248
0.0818713
0.0791834
0.0745799
0.07104
0.0660591
0.0625036
0.0577937
0.0545326
0.050338
0.047523
0.0440562
0.0420336
0.0402127
0.0410468
0.0459996
0.0539412
0.0406293
0.0297069
0.0247707
0.0211588
0.0191942
0.0171592
0.0158795
0.0143658
0.0133665
0.0121329
0.0113028
0.0102591
0.00954664
0.00863574
0.00799838
0.00715844
0.00653853
0.00567219
0.00498978
0.0040402
0.0037116
0.00375894
0.00375808
0.00365393
0.00353781
0.00333347
0.00317397
0.0029464
0.00278059
0.00255523
0.00238922
0.00215725
0.00196489
0.00165627
0.00131732
0.000634761
-0.00039235
-0.00286422
-0.00747781
-0.0190009
-0.0360624
-0.0456558
-0.0667894
-0.089034
-0.122708
-0.109513
-0.0420383
-0.0120881
-0.00305906
-69.4203
68.7216
0.150705
0.128307
0.107388
0.0851598
0.0726548
0.0606969
0.0532927
0.044832
0.0387106
0.0309533
0.028138
0.0282408
0.0281318
0.0272896
0.0263862
0.0248644
0.0236739
0.0220257
0.0208297
0.0192707
0.0181737
0.0167852
0.0158383
0.0146916
0.0140123
0.013416
0.0137004
0.0153452
0.0178887
0.0135526
0.0099284
0.00826307
0.00706014
0.0063979
0.00572299
0.00529223
0.00479079
0.00445452
0.00404601
0.00376671
0.00342112
0.00318138
0.00287974
0.00266527
0.00238707
0.00217846
0.00189149
0.00166214
0.00134942
0.00123886
0.00125278
0.00125224
0.00121791
0.00117888
0.00111134
0.0010577
0.000982389
0.000926607
0.000851988
0.000796121
0.00071924
0.000654454
0.000551927
0.00043759
0.000209988
-0.00013719
-0.000964495
-0.00252296
-0.00635761
-0.0119894
-0.0152682
-0.0222692
-0.0297249
-0.0406973
-0.0362688
-0.0141734
-0.00412242
-0.0010493
-69.8068
68.7233
0.136666
0.103726
0.0776976
0.0523871
0.0390022
0.0274555
0.0210455
0.0149638
0.0125469
0.0118812
0.011529
0.0109744
0.0105362
0.00992317
0.0094784
0.0088983
0.0084823
0.00794216
0.00755368
0.00704767
0.00668501
0.00621566
0.00588732
0.00547799
0.0052279
0.0049951
0.00507618
0.00562807
0.00649991
0.00486749
0.0034918
0.0028537
0.0023849
0.00212583
0.00186181
0.00169463
0.00150223
0.0013749
0.00122264
0.00112013
0.000995482
0.000910462
0.000805517
0.000732448
0.000639902
0.000572695
0.000483371
0.000414999
0.000324184
0.00028549
0.000271252
0.00025529
0.000221511
0.000188677
0.000134219
8.54239e-05
7.78283e-06
-6.28083e-05
-0.000177212
-0.000285588
-0.000467493
-0.000650132
-0.000971982
-0.00132646
-0.00200172
-0.00287846
-0.00477873
-0.00792562
-0.0152774
-0.0251822
-0.0278443
-0.0349689
-0.0427227
-0.0538237
-0.0468988
-0.0182591
-0.0053048
-0.00135
-69.1034
66.1678
0.413452
0.3109
0.233064
0.156684
0.116933
0.082161
0.0631235
0.0447449
0.0375707
0.035631
0.0345951
0.0329187
0.0316155
0.0297628
0.0284406
0.0266884
0.0254519
0.0238204
0.0226657
0.0211373
0.0200593
0.0186413
0.0176652
0.0164276
0.015683
0.0149727
0.0152097
0.0168714
0.0195999
0.0145922
0.0104459
0.00855433
0.00714632
0.00637769
0.00558155
0.00508489
0.00450408
0.0041257
0.00366594
0.00336128
0.00298486
0.00273218
0.00241528
0.00219812
0.00191869
0.00171897
0.00144928
0.00124589
0.000970467
0.000855493
0.000813823
0.000766581
0.000664496
0.000566894
0.000402429
0.000257425
2.30662e-05
-0.000186672
-0.000531877
-0.000853821
-0.00140245
-0.00194483
-0.00291464
-0.00396656
-0.0059971
-0.00859442
-0.0142863
-0.0236087
-0.0457301
-0.0758362
-0.0833543
-0.104881
-0.128034
-0.162192
-0.141565
-0.05415
-0.0155544
-0.0039356
-67.3102
63.6059
0.700704
0.517086
0.388373
0.259516
0.194665
0.136237
0.105175
0.0740779
0.0623851
0.0593447
0.0576869
0.0548481
0.0527169
0.0495812
0.0474201
0.0444578
0.0424373
0.0396796
0.0377928
0.0352089
0.0334472
0.0310494
0.0294536
0.0273575
0.0261368
0.0249125
0.0252863
0.0280721
0.0330094
0.0242824
0.0173098
0.0142356
0.0118822
0.0106307
0.00928932
0.00847853
0.00749784
0.00687977
0.00610304
0.00560531
0.0049693
0.00455648
0.00402105
0.00366629
0.0031943
0.00286804
0.00241253
0.00207967
0.00161033
0.00142256
0.00135662
0.00128006
0.0011073
0.000947784
0.00066986
0.000432999
3.73638e-05
-0.000305118
-0.000887472
-0.00141299
-0.00233765
-0.00322242
-0.00485401
-0.0065675
-0.0099698
-0.0141866
-0.0236487
-0.0387798
-0.0758634
-0.127394
-0.138304
-0.174729
-0.212905
-0.272752
-0.238903
-0.0880882
-0.024725
-0.00618418
-65.5168
61.0335
1.00575
0.721077
0.543687
0.359789
0.27214
0.189219
0.147228
0.102635
0.0868535
0.0830032
0.080826
0.0767492
0.0738585
0.0693608
0.0664317
0.0621897
0.0594522
0.0555041
0.0529478
0.0492476
0.0468606
0.0434253
0.041262
0.0382524
0.0365907
0.0347884
0.0352663
0.0391867
0.0469654
0.0339025
0.0240178
0.0198881
0.0165739
0.0148872
0.0129759
0.011879
0.0104771
0.00964018
0.00852899
0.00785487
0.00694481
0.00638569
0.0056196
0.00513915
0.00446407
0.00402229
0.00337087
0.0029189
0.00223893
0.00198475
0.00189983
0.00179739
0.00154957
0.00133341
0.000935644
0.000614921
4.95339e-05
-0.000413969
-0.00124534
-0.00195618
-0.00327445
-0.00447013
-0.0067901
-0.00910089
-0.0139099
-0.019569
-0.0327843
-0.0530727
-0.105419
-0.180576
-0.192233
-0.244506
-0.29691
-0.38706
-0.340919
-0.118528
-0.0321027
-0.00789204
-63.7232
58.4469
1.33645
0.920776
0.699262
0.456211
0.349426
0.240563
0.189386
0.130039
0.110845
0.106595
0.104041
0.098603
0.0950645
0.0890777
0.0854959
0.0798615
0.0765157
0.0712729
0.0681486
0.0632339
0.060316
0.0557505
0.0531042
0.0490935
0.0470503
0.044573
0.0451087
0.050147
0.0617551
0.0433955
0.0304956
0.0255079
0.0212006
0.0191528
0.0166299
0.0152916
0.0134338
0.0124116
0.0109375
0.0101139
0.0089063
0.00822318
0.00720673
0.00661981
0.00572452
0.00518492
0.00432124
0.00376726
0.0028505
0.00254017
0.00244374
0.00232053
0.00199056
0.00172629
0.00119834
0.000806627
5.76265e-05
-0.000508106
-0.00160803
-0.00247508
-0.00421614
-0.00567287
-0.00872654
-0.0115343
-0.017816
-0.0246491
-0.041637
-0.0660834
-0.134062
-0.236299
-0.244538
-0.314279
-0.379405
-0.506819
-0.449985
-0.14353
-0.0369918
-0.00888826
-61.9294
55.8427
1.70137
1.11271
0.855698
0.547183
0.426795
0.289601
0.23187
0.155838
0.134238
0.130119
0.127372
0.120381
0.116369
0.108698
0.104642
0.0974418
0.0936551
0.0869571
0.0834211
0.0771405
0.0738374
0.0679989
0.0650011
0.0598558
0.0575272
0.0542372
0.054771
0.0608445
0.0777435
0.0526701
0.0366569
0.0311006
0.0257369
0.0234373
0.0202365
0.018725
0.016357
0.0152011
0.0133199
0.0123883
0.0108468
0.010074
0.00877669
0.0081128
0.00697074
0.00636052
0.00525922
0.00463012
0.0034378
0.00308703
0.00298872
0.00285193
0.00242893
0.00212971
0.00145558
0.00101262
5.83857e-05
-0.000580876
-0.00198002
-0.00295901
-0.0051692
-0.00681172
-0.0106728
-0.0138288
-0.0217
-0.0293229
-0.0501913
-0.0773527
-0.161335
-0.295781
-0.294382
-0.384236
-0.459408
-0.633949
-0.569036
-0.160535
-0.0387435
-0.0090501
-60.1353
53.2183
2.10996
1.29138
1.0142
0.63063
0.504837
0.33546
0.275086
0.179459
0.156933
0.153588
0.150872
0.14204
0.137819
0.128175
0.123915
0.114886
0.110911
0.102515
0.0988035
0.090928
0.0874602