/*--------------------------------*- C++ -*----------------------------------*\
| =========                 |                                                 |
| \\      /  F ield         | OpenFOAM: The Open Source CFD Toolbox           |
|  \\    /   O peration     | Version:  5.x                                   |
|   \\  /    A nd           | Web:      www.OpenFOAM.org                      |
|    \\/     M anipulation  |                                                 |
\*---------------------------------------------------------------------------*/
FoamFile
{
    version     2.0;
    format      ascii;
    class       volScalarField;
    location    "3.5";
    object      gradTy;
}
// * * * * * * * * * * * * * * * * * * * * * * * * * * * * * * * * * * * * * //

dimensions      [0 -1 0 1 0 0 0];

internalField   nonuniform List<scalar> 
3200
(
18.2362
8.62808
11.7202
8.30556
9.74155
8.03392
8.78688
7.78786
8.23564
7.59681
7.87129
7.5138
7.7234
7.31485
7.52615
7.13768
7.33593
6.97904
7.15998
6.83753
7.00014
6.71241
6.85691
6.60272
6.7303
6.5068
6.62077
6.42154
6.53637
6.36742
6.23216
6.31938
6.20069
6.25846
6.16604
6.21083
6.13658
6.17262
6.11224
6.14157
6.09231
6.1162
6.07607
6.09546
6.06301
6.07854
6.05282
6.0648
6.04554
6.05379
6.0426
6.04881
6.03709
6.04256
6.03345
6.03716
6.03208
6.0332
6.03372
6.03111
6.03976
6.03145
6.05277
6.03495
6.07775
6.04188
6.12567
6.04751
6.22228
6.00011
6.29223
7.10662
6.42049
7.94385
6.77869
9.88937
9.11998
9.00232
8.97803
8.9728
16.9972
9.74337
11.3229
8.76913
9.53902
8.26376
8.66687
7.92006
8.15866
7.6807
7.82726
7.56041
7.67212
7.36605
7.47767
7.18667
7.29149
7.02417
7.11987
6.87836
6.96438
6.74888
6.82534
6.63496
6.7025
6.53514
6.59564
6.44664
6.50889
6.37114
6.25702
6.30494
6.2163
6.24709
6.17792
6.20167
6.14608
6.16517
6.11996
6.13549
6.0986
6.11125
6.0812
6.09147
6.06716
6.07538
6.05612
6.06245
6.04803
6.05241
6.04405
6.04735
6.03857
6.04145
6.03463
6.03658
6.03276
6.03334
6.03372
6.03232
6.03878
6.03433
6.05026
6.04072
6.0727
6.05339
6.11585
6.07307
6.20248
6.07541
6.35059
6.9915
6.62198
7.76152
7.15551
9.49671
9.09391
8.99858
8.97726
8.97259
16.0484
10.5053
11.0909
9.09974
9.41829
8.42644
8.59285
8.01283
8.11034
7.7396
7.79975
7.59188
7.63754
7.40054
7.4453
7.21982
7.26193
7.05477
7.09325
6.90609
6.94069
6.77367
6.80444
6.65689
6.68409
6.55437
6.57889
6.46328
6.48941
6.37392
6.27539
6.29597
6.22713
6.23973
6.18609
6.19569
6.15259
6.16029
6.12524
6.1315
6.10291
6.10801
6.08471
6.08885
6.07001
6.07332
6.05839
6.06094
6.04976
6.05155
6.04504
6.04638
6.03958
6.04073
6.03545
6.03622
6.03327
6.03349
6.0338
6.03321
6.03823
6.0364
6.04877
6.04484
6.06969
6.06163
6.11024
6.09174
6.19294
6.13463
6.39433
6.9168
6.7631
7.64901
7.41445
9.21381
9.05553
8.99188
8.97583
8.97218
15.3212
11.0221
10.9619
9.33796
9.34997
8.5428
8.54868
8.07851
8.08076
7.78127
7.78297
7.61321
7.61427
7.42376
7.42373
7.24227
7.24234
7.07555
7.07565
6.92494
6.92505
6.79055
6.79067
6.67183
6.67196
6.56742
6.56773
6.47426
6.4756
6.37602
6.289
6.29057
6.2347
6.23501
6.19172
6.19182
6.15707
6.15712
6.12888
6.12891
6.10587
6.1059
6.08713
6.08715
6.07198
6.07199
6.05997
6.05997
6.05098
6.05101
6.04571
6.04574
6.04028
6.04027
6.03603
6.03602
6.03365
6.03364
6.0339
6.03387
6.03796
6.0379
6.04794
6.0478
6.068
6.0676
6.10731
6.10562
6.18978
6.18112
6.42756
6.86915
6.86264
7.58131
7.59203
9.00921
9.01338
8.98328
8.9739
8.97164
14.766
11.3694
10.8955
9.51075
9.31442
8.62663
8.52356
8.12528
8.06324
7.81089
7.77304
7.62771
7.59866
7.43936
7.40942
7.25745
7.22942
7.08965
7.06409
6.93777
6.91481
6.80205
6.78165
6.682
6.66402
6.57629
6.56034
6.48144
6.46582
6.37761
6.29906
6.28747
6.24003
6.23203
6.19562
6.18934
6.16016
6.15509
6.13138
6.12725
6.10791
6.10455
6.0888
6.08606
6.07333
6.07114
6.06106
6.05937
6.05184
6.05069
6.04617
6.04531
6.04076
6.03998
6.03644
6.03591
6.03394
6.03378
6.03403
6.03438
6.03785
6.03899
6.04751
6.04995
6.06713
6.07197
6.10603
6.11607
6.19033
6.21741
6.45297
6.83942
6.93318
7.54194
7.71335
8.86114
8.97259
8.97384
8.97169
8.971
14.3467
11.5997
10.8655
9.63601
9.29853
8.68708
8.51026
8.15861
8.05334
7.83193
7.76742
7.63755
7.58827
7.44979
7.4
7.26768
7.22097
7.09919
7.05656
6.94646
6.90815
6.80985
6.77581
6.68892
6.65887
6.58228
6.55545
6.48609
6.45895
6.37882
6.30645
6.28581
6.24377
6.23019
6.19832
6.18777
6.16228
6.1538
6.1331
6.12619
6.10931
6.10369
6.08994
6.08537
6.07427
6.07061
6.06182
6.059
6.05244
6.0505
6.04649
6.04503
6.04109
6.0398
6.03673
6.03585
6.03416
6.03389
6.03414
6.03475
6.03784
6.03979
6.04733
6.05152
6.06676
6.07517
6.10572
6.12395
6.19277
6.24536
6.47236
6.8214
6.98311
7.52006
7.79561
8.75452
8.93621
8.96455
8.96942
8.97034
14.0373
11.7496
10.8553
9.72559
9.2936
8.73015
8.50394
8.18209
8.04808
7.84669
7.76441
7.64418
7.58144
7.45667
7.39388
7.27449
7.21553
7.10556
7.05173
6.95228
6.9039
6.81509
6.77209
6.69356
6.65558
6.58628
6.55228
6.48905
6.45419
6.37972
6.31177
6.285
6.24639
6.22909
6.20016
6.18681
6.16373
6.15299
6.13427
6.12553
6.11027
6.10315
6.09072
6.08495
6.0749
6.07028
6.06234
6.05878
6.05286
6.0504
6.0467
6.04485
6.04131
6.03969
6.03693
6.03583
6.03432
6.03399
6.03425
6.03503
6.03787
6.04037
6.04728
6.05264
6.06666
6.07748
6.1059
6.12981
6.19586
6.26634
6.48686
6.81088
7.01804
7.50864
7.85055
8.67898
8.90597
8.95619
8.9673
8.96971
13.8194
11.8437
10.8546
9.78726
9.29394
8.75973
8.50146
8.19806
8.04553
7.8567
7.76292
7.6485
7.5771
7.46107
7.39002
7.27888
7.21213
7.10968
7.04873
6.95605
6.90126
6.81849
6.76979
6.69657
6.65354
6.58887
6.55027
6.49088
6.45102
6.38037
6.31544
6.28466
6.24815
6.22845
6.20138
6.18623
6.16468
6.15251
6.13503
6.12514
6.11089
6.10283
6.09123
6.08469
6.07532
6.07009
6.06268
6.05865
6.05314
6.05034
6.04684
6.04474
6.04145
6.03962
6.03707
6.03583
6.03443
6.03407
6.03433
6.03523
6.03792
6.04077
6.0473
6.05341
6.06669
6.07909
6.10627
6.13398
6.19877
6.28131
6.49722
6.80503
7.04163
7.50316
7.88602
8.62751
8.8828
8.9494
8.96554
8.96919
13.6805
11.8983
10.857
9.82598
9.29592
8.77828
8.50078
8.20799
8.04443
7.8629
7.76227
7.65111
7.57454
7.46368
7.38777
7.2815
7.21016
7.11215
7.047
6.95832
6.89974
6.82053
6.76846
6.69838
6.65237
6.59042
6.54909
6.49193
6.44908
6.38078
6.31774
6.28456
6.24923
6.22811
6.20212
6.18591
6.16526
6.15224
6.1355
6.12492
6.11127
6.10265
6.09154
6.08455
6.07558
6.06998
6.06289
6.05858
6.05331
6.05032
6.04693
6.04467
6.04154
6.03959
6.03715
6.03583
6.03451
6.03412
6.03439
6.03536
6.03796
6.04102
6.04733
6.0539
6.06676
6.08012
6.10661
6.13667
6.20097
6.29095
6.50391
6.80202
7.05622
7.50083
7.90715
8.59548
8.86717
8.94463
8.96428
8.9688
13.6129
11.9233
10.859
9.84466
9.2974
8.78722
8.50072
8.21276
8.04405
7.86587
7.76203
7.65234
7.57336
7.46489
7.38673
7.28272
7.20926
7.1133
7.04621
6.95938
6.89905
6.82149
6.76786
6.69923
6.65184
6.59114
6.54855
6.4924
6.44817
6.38098
6.31885
6.28454
6.24975
6.22796
6.20247
6.18577
6.16553
6.15212
6.13572
6.12482
6.11145
6.10257
6.09169
6.08448
6.0757
6.06993
6.06299
6.05855
6.0534
6.05031
6.04697
6.04464
6.04158
6.03957
6.03719
6.03583
6.03454
6.03415
6.03442
6.03542
6.03798
6.04114
6.04735
6.05413
6.0668
6.08061
6.10681
6.13799
6.20214
6.29567
6.50719
6.80078
7.0632
7.50004
7.91699
8.58013
8.85932
8.94218
8.96362
8.9686
-13.6918
-11.8886
-10.6608
-9.3227
-8.51282
-7.62145
-7.05983
-6.40842
-5.99377
-5.51225
-5.21923
-4.89417
-4.65705
-4.32932
-4.09427
-3.78351
-3.56642
-3.28629
-3.09286
-2.84587
-2.67619
-2.46055
-2.31266
-2.12493
-1.99585
-1.8312
-1.71563
-1.56305
-1.44189
-1.25633
-1.08274
-0.985424
-0.884569
-0.820256
-0.743475
-0.692297
-0.629065
-0.586439
-0.533283
-0.497334
-0.452389
-0.421987
-0.383989
-0.358348
-0.326412
-0.30503
-0.278685
-0.261446
-0.240867
-0.228187
-0.213919
-0.203435
-0.188861
-0.178383
-0.164502
-0.1548
-0.142278
-0.133642
-0.122635
-0.115107
-0.105599
-0.0991806
-0.0912171
-0.0860844
-0.0801767
-0.0773105
-0.075954
-0.0799599
-0.0951006
-0.129969
-0.221905
-0.370249
-0.52655
-0.815573
-1.12038
-1.63264
-1.84933
-1.91372
-1.93039
-1.93426
-13.7639
-11.8655
-10.6653
-9.30158
-8.51609
-7.60827
-7.06343
-6.39896
-5.99645
-5.50472
-5.22052
-4.89067
-4.66069
-4.32562
-4.09731
-3.77978
-3.56896
-3.28284
-3.09501
-2.84279
-2.67804
-2.45785
-2.31426
-2.1226
-1.99729
-1.82924
-1.71711
-1.56181
-1.44447
-1.25586
-1.0797
-0.985573
-0.883114
-0.820762
-0.742457
-0.692785
-0.628247
-0.586866
-0.5326
-0.4977
-0.451813
-0.422296
-0.383499
-0.358604
-0.325994
-0.305233
-0.278325
-0.261583
-0.240555
-0.228254
-0.213771
-0.203602
-0.1887
-0.178523
-0.164338
-0.154916
-0.142126
-0.13374
-0.122498
-0.115188
-0.105478
-0.0992445
-0.0911059
-0.0861172
-0.0800568
-0.0772518
-0.0757411
-0.0795159
-0.0943128
-0.127688
-0.21965
-0.369932
-0.521241
-0.814942
-1.11208
-1.64447
-1.85542
-1.91563
-1.9309
-1.93442
-13.912
-11.8146
-10.6762
-9.25734
-8.52427
-7.58058
-7.07184
-6.37904
-6.00272
-5.4889
-5.22365
-4.88318
-4.66854
-4.31766
-4.10393
-3.77178
-3.57451
-3.27546
-3.09975
-2.83622
-2.68212
-2.45209
-2.3178
-2.11762
-2.00044
-1.82506
-1.72034
-1.55905
-1.44992
-1.2549
-1.07338
-0.986062
-0.880062
-0.821912
-0.740301
-0.693875
-0.626509
-0.587814
-0.531149
-0.49851
-0.450587
-0.422982
-0.382458
-0.359174
-0.325107
-0.305686
-0.277562
-0.261897
-0.239897
-0.228412
-0.213455
-0.203962
-0.188354
-0.178826
-0.163986
-0.155169
-0.1418
-0.133954
-0.122207
-0.115368
-0.10522
-0.0993869
-0.0908708
-0.086195
-0.0798086
-0.0771431
-0.0753183
-0.0786325
-0.0927832
-0.123064
-0.215062
-0.369573
-0.510236
-0.814172
-1.09437
-1.66914
-1.86754
-1.91933
-1.93187
-1.93471
-14.144
-11.7254
-10.6985
-9.18569
-8.54088
-7.53551
-7.08761
-6.34647
-6.0145
-5.46316
-5.2298
-4.87067
-4.68185
-4.30424
-4.1153
-3.75841
-3.58415
-3.26316
-3.10801
-2.82528
-2.68924
-2.44252
-2.32398
-2.10933
-2.00593
-1.81806
-1.72584
-1.55421
-1.45881
-1.25341
-1.06331
-0.987307
-0.875104
-0.824009
-0.736745
-0.695809
-0.62363
-0.589488
-0.528743
-0.499938
-0.448554
-0.424189
-0.380734
-0.360181
-0.323639
-0.306492
-0.276306
-0.262467
-0.238824
-0.228713
-0.212923
-0.20457
-0.187768
-0.179345
-0.163397
-0.155608
-0.141256
-0.134328
-0.121722
-0.115684
-0.104792
-0.0996389
-0.0904843
-0.0863433
-0.0794135
-0.0770026
-0.0746918
-0.0773173
-0.0906098
-0.115972
-0.207975
-0.369769
-0.492701
-0.814352
-1.06488
-1.70887
-1.88552
-1.9246
-1.93324
-1.93511
-14.4728
-11.5804
-10.7401
-9.07933
-8.57193
-7.46816
-7.11513
-6.29754
-6.03507
-5.4247
-5.241
-4.85136
-4.70273
-4.28327
-4.1334
-3.73774
-3.59967
-3.24423
-3.12139
-2.80849
-2.7008
-2.42783
-2.33402
-2.09659
-2.01481
-1.80725
-1.73452
-1.54634
-1.47211
-1.25131
-1.04868
-0.990008
-0.86771
-0.82756
-0.731343
-0.699
-0.619237
-0.592233
-0.525065
-0.502275
-0.445446
-0.426166
-0.378098
-0.361832
-0.3214
-0.307825
-0.2744
-0.263435
-0.237213
-0.229246
-0.212099
-0.20552
-0.186851
-0.180168
-0.162485
-0.156313
-0.140418
-0.134931
-0.120977
-0.116196
-0.104136
-0.100053
-0.0898995
-0.0866052
-0.0788396
-0.0768599
-0.0738694
-0.075577
-0.087955
-0.106217
-0.198097
-0.37152
-0.467217
-0.817376
-1.01965
-1.7673
-1.909
-1.93108
-1.93487
-1.93559
-14.9172
-11.3535
-10.8146
-8.92685
-8.62685
-7.37079
-7.16125
-6.22642
-6.06957
-5.36919
-5.26045
-4.82242
-4.73445
-4.25154
-4.16134
-3.70678
-3.6239
-3.21602
-3.14238
-2.7835
-2.71899
-2.40599
-2.34981
-2.07765
-2.02873
-1.79105
-1.74783
-1.53392
-1.49128
-1.2485
-1.02829
-0.995261
-0.857037
-0.833361
-0.723393
-0.704094
-0.61274
-0.59659
-0.519618
-0.50598
-0.440842
-0.4293
-0.374196
-0.364455
-0.318092
-0.309956
-0.2716
-0.265017
-0.234876
-0.230149
-0.210855
-0.206957
-0.185459
-0.181435
-0.161116
-0.15741
-0.139167
-0.135877
-0.119868
-0.117001
-0.103164
-0.100713
-0.0890425
-0.0870481
-0.0780363
-0.0767595
-0.0728609
-0.0734115
-0.0850663
-0.0935172
-0.184958
-0.376381
-0.431555
-0.826315
-0.952598
-1.84996
-1.93726
-1.9383
-1.93663
-1.9361
-15.5042
-11.0055
-10.9431
-8.71088
-8.72003
-7.23157
-7.23639
-6.1242
-6.12582
-5.29003
-5.29308
-4.77949
-4.78199
-4.20411
-4.20387
-3.66096
-3.66113
-3.17445
-3.17479
-2.74675
-2.74712
-2.37388
-2.37426
-2.04978
-2.05021
-1.76708
-1.76798
-1.51465
-1.51846
-1.24479
-1.00043
-1.00473
-0.841789
-0.84262
-0.711823
-0.712078
-0.603242
-0.603387
-0.511645
-0.51175
-0.4341
-0.434182
-0.368484
-0.368548
-0.313259
-0.313301
-0.267534
-0.267546
-0.231526
-0.23164
-0.208999
-0.209102
-0.18337
-0.183357
-0.159085
-0.159091
-0.13732
-0.137334
-0.118236
-0.118248
-0.101739
-0.101744
-0.0878006
-0.0877738
-0.0769254
-0.0767658
-0.071676
-0.0708033
-0.0823071
-0.0774996
-0.167821
-0.386692
-0.38231
-0.845993
-0.854706
-1.96502
-1.96898
-1.94562
-1.93834
-1.93658
-16.2712
-10.4801
-11.1584
-8.40526
-8.87312
-7.03263
-7.35622
-5.97744
-6.21558
-5.17733
-5.34639
-4.71593
-4.85275
-4.13358
-4.26812
-3.59343
-3.71786
-3.11341
-3.22435
-2.69287
-2.79021
-2.32684
-2.4117
-2.00893
-2.08304
-1.73176
-1.79831
-1.48511
-1.55675
-1.23992
-0.962633
-1.0209
-0.819999
-0.857153
-0.695018
-0.724432
-0.589391
-0.613865
-0.500003
-0.520637
-0.424253
-0.441701
-0.360147
-0.37486
-0.306218
-0.318482
-0.261641
-0.27152
-0.226736
-0.234044
-0.206238
-0.212284
-0.180257
-0.186253
-0.156087
-0.161647
-0.134606
-0.139558
-0.115842
-0.120159
-0.0996564
-0.103335
-0.0860041
-0.0889343
-0.0753889
-0.0769711
-0.0703241
-0.0677017
-0.0802018
-0.057678
-0.145543
-0.405933
-0.314342
-0.88387
-0.712748
-2.12433
-2.00178
-1.9523
-1.93982
-1.93699
-17.2699
-9.6959
-11.5109
-7.97082
-9.11856
-6.74714
-7.54417
-5.76601
-6.3564
-5.01635
-5.43169
-4.62169
-4.95776
-4.02892
-4.36474
-3.49395
-3.80375
-3.02376
-3.29961
-2.61384
-2.85574
-2.25788
-2.46867
-1.94902
-2.13289
-1.67974
-1.84384
-1.44018
-1.61059
-1.23348
-0.911419
-1.04744
-0.788693
-0.879664
-0.670558
-0.743371
-0.569166
-0.629883
-0.482987
-0.53421
-0.40986
-0.453185
-0.347964
-0.384511
-0.295945
-0.326433
-0.253083
-0.277685
-0.219865
-0.237857
-0.202126
-0.216993
-0.175626
-0.190598
-0.151663
-0.165509
-0.130614
-0.142931
-0.112329
-0.123065
-0.0966085
-0.105769
-0.0833994
-0.090756
-0.0732492
-0.0775074
-0.0688129
-0.0639967
-0.0794989
-0.0334421
-0.116365
-0.439254
-0.219929
-0.951372
-0.507482
-2.34501
-2.03166
-1.9575
-1.94092
-1.93728
-18.5714
-8.53612
-12.0776
-7.34881
-9.50472
-6.33486
-7.83507
-5.45979
-6.5744
-4.78511
-5.56595
-4.48156
-5.11332
-3.87362
-4.50959
-3.3472
-3.93319
-2.89184
-3.4133
-2.49767
-2.95482
-2.15653
-2.55481
-1.86092
-2.20819
-1.603
-1.91204
-1.37226
-1.6863
-1.2248
-0.841853
-1.08974
-0.743371
-0.914151
-0.634795
-0.772166
-0.53952
-0.654182
-0.458025
-0.554784
-0.388738
-0.470591
-0.330092
-0.399147
-0.280893
-0.338519
-0.240592
-0.287131
-0.209948
-0.243804
-0.195976
-0.223937
-0.168728
-0.197088
-0.145115
-0.17131
-0.124723
-0.148011
-0.107153
-0.127449
-0.0921271
-0.109455
-0.0795977
-0.0935644
-0.0702318
-0.078555
-0.0671404
-0.059473
-0.0812531
-0.00404223
-0.0775844
-0.494262
-0.0874847
-1.06589
-0.210961
-2.65173
-2.05198
-1.9604
-1.9415
-1.93744
18.5714
8.53613
12.0776
7.34882
9.50473
6.33487
7.83508
5.4598
6.57441
4.78511
5.56596
4.48157
5.11333
3.87363
4.5096
3.3472
3.93319
2.89184
3.41331
2.49768
2.95482
2.15653
2.55481
1.86092
2.2082
1.603
1.91204
1.37226
1.6863
1.2248
0.841851
1.08974
0.743369
0.914151
0.634793
0.772165
0.539518
0.654182
0.458023
0.554783
0.388737
0.47059
0.33009
0.399147
0.280891
0.338519
0.24059
0.28713
0.209947
0.243804
0.195975
0.223937
0.168728
0.197088
0.145115
0.17131
0.124723
0.148011
0.107153
0.127449
0.0921266
0.109455
0.0795972
0.0935648
0.0702311
0.0785555
0.0671391
0.0594743
0.0812496
0.00404745
0.0775796
0.494222
0.0874759
1.06581
0.210933
2.65157
2.05186
1.96028
1.94139
1.93732
17.2699
9.69593
11.5109
7.97084
9.11858
6.74716
7.54419
5.76602
6.35642
5.01637
5.4317
4.62171
4.95778
4.02893
4.36476
3.49396
3.80376
3.02377
3.29963
2.61385
2.85575
2.25789
2.46868
1.94903
2.1329
1.67975
1.84385
1.44019
1.6106
1.23348
0.911425
1.04745
0.788698
0.87967
0.670562
0.743377
0.56917
0.629888
0.482991
0.534214
0.409863
0.453189
0.347967
0.384514
0.295948
0.326436
0.253086
0.277688
0.219868
0.23786
0.202129
0.216996
0.175629
0.190601
0.151665
0.165512
0.130616
0.142934
0.112331
0.123067
0.0966103
0.105771
0.0834009
0.0907579
0.0732503
0.0775092
0.0688133
0.0639984
0.079497
0.0334451
0.116358
0.439219
0.219911
0.951302
0.507437
2.34487
2.03154
1.95738
1.9408
1.93717
16.2712
10.4801
11.1584
8.40529
8.87315
7.03266
7.35625
5.97746
6.2156
5.17736
5.34641
4.71595
4.85277
4.1336
4.26814
3.59345
3.71788
3.11343
3.22437
2.69288
2.79023
2.32686
2.41172
2.00895
2.08305
1.73178
1.79833
1.48512
1.55677
1.23993
0.962645
1.02091
0.820009
0.857164
0.695028
0.724442
0.5894
0.613874
0.500011
0.520645
0.424261
0.441709
0.360154
0.374867
0.306224
0.318489
0.261647
0.271526
0.226742
0.23405
0.206243
0.21229
0.180262
0.186258
0.156092
0.161652
0.13461
0.139562
0.115846
0.120163
0.0996601
0.103339
0.0860074
0.0889376
0.0753916
0.076974
0.0703259
0.0677039
0.0802012
0.0576794
0.145534
0.405902
0.314317
0.883805
0.712693
2.1242
2.00166
1.95218
1.9397
1.93687
15.5043
11.0055
10.9431
8.71091
8.72006
7.2316
7.23642
6.12423
6.12585
5.29006
5.29311
4.77952
4.78201
4.20413
4.20389
3.66098
3.66116
3.17447
3.17481
2.74677
2.74714
2.3739
2.37428
2.0498
2.05022
1.7671
1.768
1.51467
1.51848
1.24481
1.00045
1.00474
0.841802
0.842633
0.711835
0.71209
0.603253
0.603398
0.511655
0.51176
0.434109
0.434192
0.368492
0.368556
0.313267
0.313308
0.267541
0.267553
0.231533
0.231647
0.209006
0.209109
0.183377
0.183363
0.159091
0.159097
0.137326
0.137339
0.11824
0.118253
0.101744
0.101748
0.0878044
0.0877776
0.0769287
0.076769
0.0716782
0.0708056
0.0823069
0.0774995
0.167811
0.386663
0.382281
0.845932
0.854643
1.9649
1.96886
1.9455
1.93822
1.93646
14.9172
11.3535
10.8147
8.92689
8.62689
7.37082
7.16128
6.22645
6.0696
5.36922
5.26048
4.82245
4.73448
4.25156
4.16137
3.7068
3.62392
3.21604
3.1424
2.78352
2.71901
2.40601
2.34983
2.07767
2.02875
1.79107
1.74785
1.53393
1.49129
1.24852
1.02831
0.995276
0.85705
0.833374
0.723405
0.704107
0.612752
0.596601
0.519629
0.50599
0.440852
0.42931
0.374205
0.364464
0.3181
0.309964
0.271608
0.265025
0.234883
0.230157
0.210862
0.206964
0.185465
0.181441
0.161122
0.157416
0.139172
0.135882
0.119873
0.117006
0.103169
0.100718
0.0890466
0.0870521
0.0780398
0.0767628
0.0728633
0.0734136
0.0850661
0.0935159
0.184948
0.376353
0.431523
0.826256
0.952531
1.84984
1.93715
1.93818
1.93651
1.93598
14.4728
11.5805
10.7402
9.07937
8.57197
7.46819
7.11517
6.29757
6.0351
5.42473
5.24103
4.85139
4.70276
4.2833
4.13342
3.73776
3.5997
3.24426
3.12141
2.80851
2.70083
2.42785
2.33404
2.09662
2.01483
1.80727
1.73454
1.54636
1.47212
1.25133
1.04869
0.990023
0.867724
0.827573
0.731356
0.699012
0.619249
0.592244
0.525076
0.502286
0.445456
0.426176
0.378107
0.361841
0.321409
0.307833
0.274408
0.263443
0.23722
0.229253
0.212106
0.205527
0.186858
0.180175
0.162491
0.156319
0.140424
0.134937
0.120982
0.116201
0.104141
0.100058
0.0899037
0.0866093
0.0788432
0.0768632
0.073872
0.075579
0.0879547
0.106214
0.198086
0.371494
0.467183
0.817318
1.01958
1.76719
1.90888
1.93097
1.93475
1.93547
14.144
11.7254
10.6985
9.18573
8.54091
7.53555
7.08765
6.3465
6.01453
5.46319
5.22983
4.8707
4.68188
4.30426
4.11533
3.75843
3.58418
3.26318
3.10803
2.8253
2.68926
2.44254
2.324
2.10935
2.00595
1.81808
1.72586
1.55423
1.45883
1.25342
1.06332
0.987322
0.875118
0.824023
0.736758
0.695822
0.623642
0.5895
0.528754
0.499949
0.448564
0.424199
0.380743
0.36019
0.323648
0.306501
0.276314
0.262475
0.238831
0.228721
0.212931
0.204577
0.187775
0.179351
0.163403
0.155614
0.141261
0.134334
0.121727
0.115689
0.104796
0.0996435
0.0904886
0.0863473
0.0794171
0.0770059
0.0746943
0.0773191
0.0906094
0.115969
0.207963
0.369743
0.492666
0.814294
1.06481
1.70877
1.8854
1.92448
1.93312
1.93499
13.912
11.8147
10.6763
9.25738
8.5243
7.58061
7.07187
6.37907
6.00275
5.48893
5.22368
4.88321
4.66857
4.31769
4.10396
3.77181
3.57454
3.27548
3.09977
2.83624
2.68214
2.45212
2.31782
2.11764
2.00046
1.82508
1.72036
1.55907
1.44994
1.25492
1.0734
0.986077
0.880076
0.821926
0.740314
0.693887
0.62652
0.587826
0.53116
0.498521
0.450597
0.422991
0.382468
0.359183
0.325115
0.305695
0.27757
0.261904
0.239905
0.228419
0.213462
0.203968
0.188361
0.178832
0.163992
0.155175
0.141805
0.13396
0.122212
0.115373
0.105224
0.0993914
0.090875
0.086199
0.0798122
0.0771463
0.0753208
0.0786342
0.0927827
0.12306
0.21505
0.369548
0.5102
0.814115
1.0943
1.66904
1.86742
1.91921
1.93176
1.93459
13.7639
11.8656
10.6653
9.30161
8.51612
7.6083
7.06346
6.39899
5.99648
5.50475
5.22055
4.89069
4.66071
4.32565
4.09734
3.7798
3.56898
3.28286
3.09503
2.84281
2.67806
2.45787
2.31428
2.12262
1.99731
1.82926
1.71713
1.56182
1.44449
1.25588
1.07972
0.985587
0.883127
0.820774
0.742469
0.692797
0.628258
0.586876
0.53261
0.49771
0.451822
0.422305
0.383508
0.358613
0.326002
0.305241
0.278332
0.261591
0.240562
0.228261
0.213778
0.203608
0.188706
0.178529
0.164344
0.154922
0.142131
0.133745
0.122503
0.115193
0.105482
0.0992488
0.0911099
0.0861211
0.0800603
0.0772549
0.0757435
0.0795173
0.0943121
0.127684
0.219637
0.369906
0.521204
0.814885
1.11201
1.64436
1.85531
1.91551
1.93078
1.9343
13.6918
11.8886
10.6609
9.32273
8.51285
7.62147
7.05986
6.40845
5.99379
5.51228
5.21925
4.8942
4.65708
4.32934
4.09429
3.78354
3.56645
3.28631
3.09288
2.84589
2.67621
2.46057
2.31268
2.12495
1.99587
1.83121
1.71564
1.56307
1.44191
1.25635
1.08276
0.985437
0.884581
0.820268
0.743486
0.692308
0.629075
0.586449
0.533292
0.497344
0.452398
0.421996
0.383997
0.358356
0.326419
0.305038
0.278692
0.261453
0.240873
0.228193
0.213925
0.203441
0.188867
0.178389
0.164507
0.154806
0.142283
0.133647
0.12264
0.115111
0.105603
0.0991847
0.091221
0.086088
0.08018
0.0773134
0.0759562
0.0799611
0.0950998
0.129965
0.221892
0.370224
0.526513
0.815517
1.12031
1.63254
1.84922
1.9136
1.93027
1.93414
-13.6164
-11.9283
-10.8658
-9.85515
-9.31203
-8.80979
-8.53235
-8.26171
-8.11151
-7.96317
-7.86092
-7.72561
-7.6303
-7.50614
-7.41954
-7.30771
-7.22994
-7.12978
-7.06027
-6.97096
-6.90918
-6.83004
-6.77545
-6.70576
-6.65769
-6.59623
-6.55314
-6.49639
-6.45171
-6.38389
-6.32121
-6.28659
-6.25152
-6.22955
-6.20386
-6.18703
-6.16665
-6.15314
-6.13661
-6.12563
-6.11217
-6.10323
-6.09227
-6.08501
-6.07617
-6.07036
-6.06337
-6.0589
-6.05371
-6.0506
-6.04724
-6.04489
-6.04181
-6.03978
-6.03738
-6.03601
-6.0347
-6.03429
-6.03454
-6.03554
-6.03809
-6.04124
-6.04744
-6.05421
-6.06687
-6.08068
-6.10687
-6.13804
-6.20219
-6.29571
-6.50723
-6.8008
-7.06322
-7.50005
-7.91701
-8.58013
-8.85932
-8.94218
-8.96362
-8.96861
-13.684
-11.9033
-10.8638
-9.83645
-9.31039
-8.80081
-8.53208
-8.2569
-8.11143
-7.96133
-7.86224
-7.72401
-7.63145
-7.50464
-7.42055
-7.30635
-7.23084
-7.12855
-7.06107
-6.96987
-6.90987
-6.82906
-6.77606
-6.70489
-6.65823
-6.59549
-6.55368
-6.49591
-6.45263
-6.38369
-6.32009
-6.28661
-6.251
-6.2297
-6.20351
-6.18718
-6.16637
-6.15326
-6.13639
-6.12573
-6.11199
-6.10331
-6.09212
-6.08508
-6.07604
-6.07041
-6.06327
-6.05893
-6.05363
-6.05061
-6.0472
-6.04492
-6.04177
-6.0398
-6.03734
-6.036
-6.03466
-6.03427
-6.03451
-6.03548
-6.03807
-6.04111
-6.04742
-6.05398
-6.06683
-6.08018
-6.10667
-6.13672
-6.20102
-6.29099
-6.50395
-6.80205
-7.05625
-7.50085
-7.90716
-8.59549
-8.86718
-8.94464
-8.96428
-8.96881
-13.8227
-11.8486
-10.8612
-9.79771
-9.30811
-8.78218
-8.53207
-8.2469
-8.11155
-7.95745
-7.86513
-7.72059
-7.63398
-7.50143
-7.42277
-7.30344
-7.23281
-7.12594
-7.06281
-6.96752
-6.9114
-6.82697
-6.77739
-6.70305
-6.65941
-6.59392
-6.55487
-6.49484
-6.45459
-6.38327
-6.31776
-6.28672
-6.2499
-6.23005
-6.20276
-6.1875
-6.16579
-6.15353
-6.13592
-6.12596
-6.11161
-6.10349
-6.09181
-6.08522
-6.07579
-6.07052
-6.06306
-6.059
-6.05345
-6.05063
-6.04711
-6.04499
-6.04168
-6.03983
-6.03726
-6.036
-6.03459
-6.03421
-6.03446
-6.03535
-6.03802
-6.04086
-6.04738
-6.05349
-6.06676
-6.07916
-6.10633
-6.13403
-6.19882
-6.28135
-6.49726
-6.80505
-7.04165
-7.50318
-7.88603
-8.62752
-8.8828
-8.94941
-8.96554
-8.96919
-14.0404
-11.7545
-10.8617
-9.73601
-9.30727
-8.75253
-8.53347
-8.2309
-8.11242
-7.9511
-7.87012
-7.71485
-7.63835
-7.49607
-7.42661
-7.29859
-7.23623
-7.12157
-7.06584
-6.96361
-6.91406
-6.82348
-6.77972
-6.69997
-6.66146
-6.59129
-6.5569
-6.49299
-6.45778
-6.38262
-6.31405
-6.28705
-6.24813
-6.23069
-6.20153
-6.18808
-6.16483
-6.15401
-6.13515
-6.12636
-6.11098
-6.10381
-6.09129
-6.08548
-6.07537
-6.07071
-6.06271
-6.05913
-6.05317
-6.05069
-6.04697
-6.0451
-6.04153
-6.0399
-6.03712
-6.03601
-6.03448
-6.03414
-6.03437
-6.03515
-6.03798
-6.04046
-6.04737
-6.05272
-6.06673
-6.07755
-6.10596
-6.12986
-6.1959
-6.26638
-6.4869
-6.8109
-7.01806
-7.50865
-7.85056
-8.67899
-8.90597
-8.9562
-8.96731
-8.96972
-14.3496
-11.6046
-10.8715
-9.64643
-9.31149
-8.70946
-8.53821
-8.20755
-8.115
-7.94154
-7.87808
-7.70596
-7.64535
-7.4878
-7.4328
-7.29111
-7.24174
-7.11485
-7.07073
-6.95759
-6.91836
-6.81812
-6.78348
-6.69525
-6.66478
-6.58724
-6.5601
-6.48999
-6.46258
-6.3817
-6.30869
-6.28787
-6.24549
-6.2318
-6.19968
-6.18905
-6.16337
-6.15482
-6.13397
-6.12702
-6.11002
-6.10435
-6.09051
-6.08591
-6.07472
-6.07104
-6.06219
-6.05935
-6.05275
-6.05079
-6.04675
-6.04528
-6.04131
-6.04001
-6.03691
-6.03603
-6.03431
-6.03404
-6.03427
-6.03487
-6.03794
-6.03989
-6.04742
-6.0516
-6.06683
-6.07524
-6.10578
-6.12401
-6.19282
-6.24541
-6.47239
-6.82143
-6.98314
-7.52008
-7.79563
-8.75452
-8.93622
-8.96455
-8.96942
-8.97034
-14.7686
-11.3743
-10.9011
-9.52125
-9.32638
-8.64916
-8.54933
-8.17468
-8.12083
-7.92758
-7.89038
-7.69261
-7.65623
-7.47543
-7.44245
-7.27994
-7.25036
-7.10482
-7.07838
-6.94861
-6.92511
-6.81014
-6.78939
-6.68822
-6.66999
-6.58116
-6.56503
-6.48529
-6.46951
-6.38048
-6.30123
-6.28954
-6.24171
-6.23365
-6.19696
-6.19063
-6.16123
-6.15612
-6.13224
-6.12808
-6.10861
-6.10522
-6.08936
-6.0866
-6.07378
-6.07158
-6.06143
-6.05972
-6.05214
-6.05098
-6.04644
-6.04556
-6.04098
-6.04019
-6.03662
-6.03608
-6.03409
-6.03392
-6.03415
-6.0345
-6.03795
-6.03909
-6.0476
-6.05004
-6.0672
-6.07204
-6.10609
-6.11613
-6.19038
-6.21746
-6.45301
-6.83945
-6.9332
-7.54196
-7.71336
-8.86114
-8.97259
-8.97385
-8.97169
-8.97101
-15.3234
-11.0271
-10.9668
-9.34868
-9.36058
-8.56577
-8.57144
-8.12897
-8.13223
-7.90738
-7.90912
-7.67281
-7.67289
-7.45715
-7.4573
-7.26346
-7.26362
-7.09003
-7.09017
-6.93539
-6.93551
-6.79839
-6.79851
-6.67788
-6.67802
-6.57218
-6.5725
-6.47802
-6.47938
-6.37886
-6.29108
-6.29266
-6.23634
-6.23665
-6.19303
-6.19313
-6.15812
-6.15817
-6.12972
-6.12976
-6.10655
-6.10658
-6.08768
-6.0877
-6.07242
-6.07243
-6.06033
-6.06033
-6.05128
-6.05131
-6.04597
-6.046
-6.0405
-6.04049
-6.03621
-6.0362
-6.0338
-6.03379
-6.03403
-6.034
-6.03806
-6.038
-6.04802
-6.04789
-6.06807
-6.06767
-6.10736
-6.10568
-6.18982
-6.18117
-6.42759
-6.86918
-6.86267
-7.58133
-7.59204
-9.00922
-9.01338
-8.98328
-8.9739
-8.97164
-16.05
-10.5105
-11.0949
-9.11091
-9.42705
-8.45035
-8.61149
-8.06545
-8.15276
-7.87812
-7.93737
-7.64356
-7.69818
-7.43023
-7.4799
-7.23921
-7.28382
-7.06829
-7.10816
-6.91596
-6.95141
-6.78115
-6.81247
-6.6627
-6.69029
-6.55896
-6.58376
-6.46692
-6.49332
-6.37673
-6.27735
-6.2981
-6.22871
-6.24141
-6.18735
-6.19703
-6.15361
-6.16137
-6.12606
-6.13237
-6.10357
-6.1087
-6.08524
-6.08941
-6.07044
-6.07377
-6.05874
-6.0613
-6.05005
-6.05185
-6.0453
-6.04665
-6.0398
-6.04095
-6.03562
-6.03641
-6.03342
-6.03364
-6.03391
-6.03333
-6.03833
-6.0365
-6.04886
-6.04492
-6.06976
-6.0617
-6.11029
-6.0918
-6.19298
-6.13468
-6.39437
-6.91683
-6.76313
-7.64902
-7.41447
-9.21381
-9.05554
-8.99188
-8.97583
-8.97219
-16.9982
-9.74889
-11.3258
-8.78114
-9.54523
-8.28943
-8.67982
-7.97658
-8.18776
-7.83551
-7.97975
-7.60037
-7.73638
-7.39061
-7.51411
-7.20356
-7.31444
-7.03633
-7.13543
-6.88744
-6.97554
-6.75585
-6.83367
-6.64043
-6.70891
-6.53949
-6.60069
-6.4501
-6.51298
-6.37391
-6.25881
-6.30715
-6.21779
-6.24883
-6.17913
-6.20306
-6.14705
-6.16628
-6.12074
-6.13638
-6.09923
-6.11197
-6.08171
-6.09205
-6.06757
-6.07585
-6.05645
-6.06283
-6.0483
-6.05272
-6.0443
-6.04763
-6.03878
-6.04168
-6.0348
-6.03677
-6.0329
-6.0335
-6.03384
-6.03245
-6.03887
-6.03444
-6.05034
-6.04081
-6.07276
-6.05346
-6.1159
-6.07313
-6.20252
-6.07546
-6.35063
-6.99152
-6.62201
-7.76153
-7.15553
-9.49671
-9.09391
-8.99858
-8.97727
-8.97259
-18.2363
-8.63426
-11.7215
-8.319
-9.7442
-8.06265
-8.79189
-7.85114
-8.2453
-7.77303
-8.04307
-7.53656
-7.79384
-7.33221
-7.56569
-7.15104
-7.36061
-6.98928
-7.17658
-6.84547
-7.01197
-6.71865
-6.86571
-6.60769
-6.73706
-6.51079
-6.62609
-6.42473
-6.54071
-6.37014
-6.23374
-6.3217
-6.20205
-6.26028
-6.16715
-6.21228
-6.13747
-6.17379
-6.11297
-6.1425
-6.09289
-6.11696
-6.07654
-6.09607
-6.06339
-6.07903
-6.05313
-6.06519
-6.0458
-6.0541
-6.04284
-6.04909
-6.03728
-6.0428
-6.03361
-6.03736
-6.03221
-6.03336
-6.03383
-6.03125
-6.03985
-6.03156
-6.05284
-6.03504
-6.07781
-6.04195
-6.12572
-6.04758
-6.22232
-6.00016
-6.29226
-7.10664
-6.42052
-7.94386
-6.77871
-9.88937
-9.11998
-9.00232
-8.97803
-8.9728
)
;

boundaryField
{
    F1_1
    {
        type            calculated;
        value           nonuniform List<scalar> 
80
(
18.9382
7.96617
11.9696
8.03444
9.86767
7.89909
8.86079
7.71006
8.28277
7.54746
7.89831
7.48595
7.75402
7.28426
7.5552
7.10846
7.36261
6.95215
7.18407
6.8132
7.02163
6.69068
6.87589
6.58352
6.74702
6.48991
6.63585
6.40647
6.55246
6.36528
6.21786
6.32824
6.19146
6.26534
6.15899
6.21636
6.13093
6.17712
6.10766
6.14523
6.08857
6.11919
6.07303
6.09788
6.06055
6.08045
6.05087
6.06622
6.04407
6.05463
6.04173
6.04968
6.03621
6.04323
6.03276
6.03752
6.03168
6.03313
6.03374
6.03041
6.04038
6.02977
6.05433
6.03157
6.08091
6.03515
6.13186
6.03269
6.23532
5.95795
6.25877
7.17626
6.30184
8.05623
6.55539
10.1178
9.12862
9.00332
8.97822
8.97285
)
;
    }
    F1_2
    {
        type            calculated;
        value           nonuniform List<scalar> 
80
(
-19.3082
-7.8451
-12.4261
-6.98211
-9.74021
-6.09099
-8.01147
-5.27847
-6.70659
-4.64863
-5.64787
-4.39774
-5.20617
-3.78085
-4.59644
-3.25971
-4.01094
-2.81325
-3.48165
-2.4285
-3.01441
-2.0962
-2.60661
-1.80846
-2.25346
-1.55724
-1.95292
-1.33141
-1.73055
-1.21979
-0.801756
-1.11563
-0.716527
-0.934982
-0.613539
-0.789513
-0.521882
-0.668809
-0.443169
-0.567164
-0.376167
-0.481064