/*--------------------------------*- C++ -*----------------------------------*\
| =========                 |                                                 |
| \\      /  F ield         | OpenFOAM: The Open Source CFD Toolbox           |
|  \\    /   O peration     | Version:  5.x                                   |
|   \\  /    A nd           | Web:      www.OpenFOAM.org                      |
|    \\/     M anipulation  |                                                 |
\*---------------------------------------------------------------------------*/
FoamFile
{
    version     2.0;
    format      ascii;
    class       volScalarField;
    location    "3.5";
    object      T;
}
// * * * * * * * * * * * * * * * * * * * * * * * * * * * * * * * * * * * * * //

dimensions      [0 0 0 1 0 0 0];

internalField   nonuniform List<scalar> 
3200
(
2.08603
2.437
2.45702
2.60175
2.61091
2.68314
2.68794
2.72971
2.73257
2.759
2.76076
2.77602
2.77736
2.79401
2.79537
2.81125
2.81252
2.82713
2.82829
2.84149
2.84254
2.85432
2.85525
2.86567
2.86648
2.87566
2.87639
2.88466
2.88539
2.89416
2.90186
2.90241
2.9074
2.90777
2.91158
2.91186
2.91492
2.91515
2.91763
2.91781
2.91983
2.91999
2.92163
2.92176
2.92309
2.92319
2.92424
2.92432
2.92511
2.92516
2.92563
2.92567
2.92615
2.92618
2.92655
2.92658
2.92678
2.92679
2.92676
2.92675
2.92638
2.92633
2.92543
2.92532
2.92352
2.92329
2.9197
2.9192
2.91129
2.90991
2.88744
2.84825
2.84387
2.78018
2.77267
2.65352
2.64857
2.64795
2.64782
2.6478
2.26137
2.5299
2.57173
2.68751
2.70707
2.76482
2.77507
2.80837
2.81446
2.83547
2.8392
2.85144
2.85429
2.86747
2.87034
2.88292
2.88561
2.89719
2.89965
2.91011
2.91232
2.92166
2.92363
2.93189
2.93362
2.9409
2.94245
2.94902
2.95059
2.95785
2.96433
2.96552
2.9695
2.97028
2.97331
2.97392
2.97634
2.97683
2.97879
2.97919
2.9808
2.98112
2.98243
2.98269
2.98374
2.98396
2.98479
2.98495
2.98558
2.98569
2.98607
2.98615
2.98653
2.9866
2.98689
2.98695
2.98711
2.98712
2.9871
2.98706
2.98677
2.98666
2.98595
2.9857
2.98426
2.98377
2.98089
2.97982
2.97339
2.97033
2.9507
2.91861
2.90926
2.85849
2.84269
2.75013
2.73969
2.73796
2.7376
2.73752
2.42598
2.63187
2.68348
2.77713
2.80169
2.84841
2.86128
2.88811
2.89575
2.91262
2.9173
2.92723
2.93081
2.94134
2.94492
2.95498
2.95835
2.96761
2.97069
2.97906
2.98182
2.9893
2.99176
2.99837
3.00053
3.00636
3.0083
3.01359
3.01557
3.02158
3.027
3.02851
3.03172
3.03271
3.03514
3.0359
3.03784
3.03845
3.04002
3.04052
3.04181
3.04221
3.04326
3.04359
3.04443
3.0447
3.04537
3.04557
3.04607
3.04621
3.04651
3.04662
3.04692
3.04701
3.04725
3.04731
3.04744
3.04746
3.04744
3.04739
3.04716
3.04701
3.04644
3.04613
3.04497
3.04435
3.04201
3.04066
3.03534
3.03141
3.01445
2.98808
2.97631
2.93541
2.91578
2.84345
2.83045
2.82792
2.82737
2.82725
2.58234
2.74001
2.79355
2.86951
2.89543
2.93335
2.94693
2.96862
2.97667
2.99026
2.9952
3.00328
3.00704
3.01548
3.01925
3.02732
3.03085
3.03828
3.04151
3.04823
3.05114
3.05714
3.05972
3.06502
3.0673
3.07198
3.07402
3.07829
3.08038
3.08533
3.08983
3.09144
3.09404
3.09508
3.09703
3.09783
3.09939
3.10003
3.1013
3.10182
3.10285
3.10328
3.10412
3.10447
3.10515
3.10542
3.10596
3.10617
3.10657
3.10672
3.10697
3.10708
3.10732
3.10742
3.1076
3.10767
3.10777
3.10779
3.10777
3.10773
3.10754
3.10739
3.10692
3.1066
3.10565
3.105
3.10309
3.10166
3.09724
3.09302
3.07859
3.05695
3.04453
3.01147
2.99098
2.93441
2.9208
2.9178
2.91712
2.91697
2.7324
2.85231
2.90272
2.96389
2.98869
3.01927
3.03225
3.04968
3.05736
3.06824
3.07296
3.0795
3.08309
3.08981
3.0934
3.09983
3.1032
3.10912
3.1122
3.11756
3.12033
3.12511
3.12757
3.1318
3.13397
3.13771
3.13966
3.14308
3.14508
3.1491
3.15278
3.15432
3.15642
3.15741
3.15897
3.15973
3.16098
3.16159
3.1626
3.1631
3.16392
3.16433
3.165
3.16533
3.16587
3.16614
3.16657
3.16677
3.16709
3.16723
3.16743
3.16754
3.16773
3.16782
3.16797
3.16803
3.16811
3.16813
3.16811
3.16807
3.16792
3.16777
3.1674
3.16709
3.16633
3.16571
3.16416
3.16277
3.15914
3.15504
3.143
3.12546
3.11357
3.08703
3.06762
3.02364
3.01072
3.00759
3.00685
3.00668
2.87766
2.9674
3.01145
3.05972
3.08172
3.10588
3.1174
3.13113
3.13793
3.14648
3.15066
3.15583
3.15901
3.16427
3.16743
3.17247
3.17544
3.18008
3.1828
3.18699
3.18943
3.19318
3.19535
3.19866
3.20058
3.20351
3.20523
3.20792
3.20969
3.21288
3.21581
3.21719
3.21884
3.21972
3.22094
3.22162
3.22259
3.22313
3.22393
3.22437
3.22501
3.22537
3.2259
3.22619
3.22661
3.22685
3.22718
3.22736
3.22761
3.22773
3.22789
3.22799
3.22814
3.22822
3.22833
3.22839
3.22845
3.22847
3.22846
3.22841
3.22829
3.22817
3.22787
3.2276
3.227
3.22644
3.22522
3.22398
3.22105
3.21737
3.20764
3.19374
3.18319
3.16231
3.14525
3.11163
3.10025
3.09728
3.09655
3.09639
3.01934
3.08431
3.12003
3.15661
3.17466
3.19301
3.20246
3.21285
3.21843
3.22488
3.22831
3.23225
3.23486
3.23881
3.2414
3.24518
3.24762
3.25111
3.25333
3.25649
3.25849
3.26131
3.26309
3.26558
3.26715
3.26936
3.27077
3.2728
3.27426
3.27668
3.27891
3.28004
3.28129
3.28201
3.28294
3.28349
3.28422
3.28467
3.28526
3.28562
3.28611
3.2864
3.2868
3.28704
3.28736
3.28755
3.2878
3.28795
3.28814
3.28824
3.28836
3.28844
3.28855
3.28861
3.2887
3.28875
3.28879
3.28881
3.2888
3.28876
3.28867
3.28857
3.28834
3.28812
3.28766
3.28721
3.28627
3.28525
3.28299
3.27994
3.27245
3.26189
3.25323
3.23744
3.22354
3.19873
3.18944
3.18688
3.18623
3.18609
3.15841
3.20239
3.22856
3.25423
3.26759
3.28049
3.28748
3.29477
3.29889
3.30341
3.30594
3.30871
3.31064
3.3134
3.31531
3.31795
3.31975
3.32219
3.32383
3.32604
3.32751
3.32948
3.33079
3.33254
3.33369
3.33524
3.33628
3.3377
3.33878
3.34048
3.34205
3.34289
3.34377
3.3443
3.34494
3.34535
3.34587
3.34619
3.34661
3.34688
3.34722
3.34743
3.34771
3.34789
3.34811
3.34825
3.34843
3.34854
3.34867
3.34874
3.34883
3.34888
3.34896
3.34901
3.34907
3.3491
3.34914
3.34915
3.34914
3.34912
3.34905
3.34897
3.34882
3.34865
3.34833
3.34799
3.34733
3.34658
3.34497
3.3427
3.33738
3.32996
3.32355
3.31248
3.30226
3.28521
3.27837
3.2764
3.2759
3.27578
3.29572
3.32118
3.33712
3.35235
3.36054
3.3682
3.37249
3.37681
3.37934
3.38202
3.38357
3.38522
3.3864
3.38803
3.3892
3.39076
3.39186
3.3933
3.39431
3.39561
3.39651
3.39768
3.39848
3.39951
3.40022
3.40113
3.40177
3.40261
3.40328
3.40429
3.40522
3.40573
3.40625
3.40658
3.40696
3.40721
3.40752
3.40772
3.40796
3.40813
3.40833
3.40846
3.40862
3.40873
3.40886
3.40895
3.40906
3.40912
3.4092
3.40925
3.4093
3.40933
3.40938
3.40941
3.40944
3.40946
3.40948
3.40949
3.40948
3.40947
3.40943
3.40938
3.40929
3.40919
3.409
3.40879
3.4084
3.40793
3.40697
3.40557
3.4024
3.39799
3.39406
3.3875
3.38126
3.37128
3.3671
3.36586
3.36554
3.36547
3.43202
3.44035
3.4457
3.45075
3.45351
3.45605
3.4575
3.45893
3.45978
3.46067
3.46119
3.46174
3.46213
3.46267
3.46307
3.46358
3.46395
3.46443
3.46477
3.4652
3.46551
3.46589
3.46616
3.4665
3.46674
3.46704
3.46726
3.46754
3.46776
3.46809
3.4684
3.46858
3.46875
3.46886
3.46899
3.46907
3.46917
3.46924
3.46932
3.46938
3.46944
3.46949
3.46954
3.46958
3.46962
3.46965
3.46968
3.46971
3.46973
3.46975
3.46977
3.46978
3.46979
3.4698
3.46981
3.46982
3.46983
3.46983
3.46983
3.46982
3.46981
3.46979
3.46976
3.46973
3.46967
3.4696
3.46947
3.46931
3.46899
3.46852
3.46746
3.466
3.46468
3.4625
3.4604
3.45712
3.45571
3.45529
3.45518
3.45516
3.43163
3.44053
3.4467
3.45336
3.45744
3.46188
3.4647
3.46795
3.47003
3.47243
3.47391
3.47552
3.47672
3.47835
3.47953
3.48108
3.48217
3.48356
3.48454
3.48577
3.48662
3.48769
3.48844
3.48937
3.49002
3.49084
3.49142
3.49218
3.49279
3.49372
3.49458
3.49507
3.49558
3.4959
3.49628
3.49654
3.49685
3.49707
3.49733
3.49751
3.49774
3.49789
3.49808
3.49821
3.49837
3.49848
3.49861
3.49869
3.4988
3.49886
3.49893
3.49898
3.49906
3.49911
3.49918
3.49923
3.49929
3.49933
3.49939
3.49942
3.49947
3.4995
3.49954
3.49957
3.4996
3.49961
3.49962
3.4996
3.49952
3.49935
3.49889
3.49815
3.49736
3.49592
3.49439
3.49185
3.49076
3.49043
3.49035
3.49033
3.29453
3.3217
3.34008
3.36019
3.3723
3.38569
3.3941
3.40389
3.41009
3.41733
3.42171
3.42659
3.43014
3.43506
3.43858
3.44325
3.4465
3.45071
3.4536
3.45732
3.45985
3.4631
3.46531
3.46813
3.47006
3.47253
3.47426
3.47656
3.47837
3.48116
3.48376
3.48522
3.48673
3.4877
3.48885
3.48961
3.49057
3.4912
3.492
3.49254
3.49321
3.49367
3.49424
3.49462
3.4951
3.49542
3.49582
3.49608
3.49639
3.49658
3.49679
3.49695
3.49717
3.49732
3.49753
3.49768
3.49787
3.498
3.49816
3.49827
3.49842
3.49851
3.49863
3.49871
3.4988
3.49884
3.49886
3.4988
3.49857
3.49805
3.49667
3.49445
3.49211
3.48777
3.4832
3.4755
3.47225
3.47129
3.47104
3.47099
3.15635
3.20322
3.2334
3.26733
3.28712
3.30971
3.32344
3.33997
3.35011
3.36234
3.36949
3.37771
3.38351
3.39184
3.39759
3.40548
3.41079
3.41791
3.42264
3.42891
3.43306
3.43854
3.44215
3.44692
3.45008
3.45426
3.45708
3.46095
3.4639
3.4686
3.47299
3.47536
3.47791
3.47948
3.48143
3.48268
3.48429
3.48533
3.48668
3.48756
3.4887
3.48944
3.49041
3.49104
3.49185
3.49237
3.49304
3.49346
3.49398
3.49429
3.49465
3.49491
3.49528
3.49554
3.49589
3.49613
3.49645
3.49666
3.49694
3.49712
3.49736
3.49752
3.49772
3.49785
3.498
3.49807
3.49811
3.49801
3.49764
3.49679
3.49449
3.49075
3.48694
3.47962
3.47215
3.45896
3.45365
3.45212
3.45173
3.45164
3.01629
3.08541
3.12656
3.17504
3.20182
3.23408
3.25266
3.2763
3.29004
3.30755
3.31724
3.32893
3.33677
3.34871
3.3565
3.36782
3.37501
3.3852
3.39161
3.40059
3.40621
3.41405
3.41895
3.42578
3.43005
3.43603
3.43986
3.44537
3.44937
3.45606
3.46229
3.4655
3.46913
3.47126
3.47404
3.47574
3.47803
3.47945
3.48138
3.48257
3.4842
3.48521
3.48659
3.48744
3.4886
3.48931
3.49027
3.49084
3.49159
3.49201
3.49252
3.49287
3.4934
3.49375
3.49425
3.49457
3.49503
3.49532
3.49572
3.49597
3.49631
3.49652
3.49681
3.49698
3.4972
3.4973
3.49735
3.49723
3.49672
3.49559
3.49237
3.48706
3.4819
3.47148
3.46132
3.44211
3.4349
3.43291
3.43241
3.43229
2.87347
2.96871
3.01943
3.08362
3.1163
3.159
3.18168
3.21304
3.22982
3.25307
3.2649
3.2803
3.28987
3.30575
3.31528
3.33031
3.33911
3.35264
3.36048
3.37241
3.37928
3.38969
3.39567
3.40473
3.40996
3.4179
3.42256
3.42986
3.43473
3.44353
3.45172
3.45562
3.46041
3.463
3.4667
3.46877
3.47182
3.47354
3.47611
3.47756
3.47973
3.48096
3.48279
3.48383
3.48537
3.48624
3.48751
3.48821
3.48921
3.48972
3.4904
3.49082
3.49153
3.49195
3.49262
3.49302
3.49362
3.49397
3.4945
3.49481
3.49527
3.49553
3.49591
3.49612
3.49641
3.49653
3.49661
3.49646
3.49583
3.49447
3.49034
3.48335
3.47708
3.46334
3.45085
3.42478
3.41594
3.41363
3.41307
3.41294
2.72684
2.8538
2.91175
2.99345
3.03038
3.08472
3.11036
3.15035
3.16933
3.19905
3.21242
3.2319
3.24271
3.26305
3.27384
3.29306
3.30302
3.32032
3.32918
3.34442
3.3522
3.3655
3.37227
3.38384
3.38976
3.39989
3.40517
3.41445
3.41993
3.43103
3.44132
3.4457
3.45178
3.45471
3.45942
3.46176
3.46565
3.4676
3.47088
3.47252
3.47529
3.47669
3.47903
3.4802
3.48217
3.48315
3.48478
3.48557
3.48685
3.48742
3.48828
3.48876
3.48966
3.49014
3.491
3.49145
3.49222
3.49262
3.4933
3.49364
3.49423
3.49452
3.49502
3.49525
3.49562
3.49576
3.49588
3.49572
3.49496
3.49347
3.48841
3.47962
3.47256
3.45514
3.44092
3.40677
3.39672
3.39428
3.39371
3.39358
2.57513
2.74164
2.80313
2.90508
2.94376
3.01159
3.03846
3.08851
3.10842
3.14569
3.15969
3.18385
3.19518
3.22072
3.23205
3.25618
3.26663
3.28832
3.29763
3.31674
3.3249
3.34157
3.34868
3.36318
3.36938
3.38207
3.38761
3.39918
3.4049
3.41856
3.43116
3.43571
3.44327
3.44634
3.45223
3.45469
3.45956
3.46161
3.46571
3.46744
3.47091
3.47237
3.47531
3.47654
3.47901
3.48004
3.48208
3.48291
3.48451
3.48512
3.48618
3.48668
3.48782
3.48832
3.4894
3.48987
3.49084
3.49125
3.4921
3.49247
3.4932
3.49351
3.49413
3.49438
3.49485
3.49499
3.49515
3.49499
3.49412
3.4926
3.48664
3.47583
3.46845
3.44681
3.4318
3.38779
3.3772
3.37486
3.37433
3.37422
2.41675
2.63369
2.69289
2.81923
2.85598
2.94009
2.96563
3.02787
3.04682
3.09325
3.10656
3.13631
3.14707
3.17896
3.18976
3.21984
3.22979
3.25683
3.26569
3.28949
3.29725
3.31802
3.32479
3.34285
3.34875
3.36455
3.36981
3.38415
3.38956
3.40614
3.42131
3.4256
3.43494
3.43785
3.44518
3.44752
3.45359
3.45553
3.46064
3.46229
3.46661
3.468
3.47166
3.47283
3.47591
3.47689
3.47943
3.48022
3.48221
3.48279
3.4841
3.48458
3.486
3.48648
3.48782
3.48827
3.48948
3.48987
3.49093
3.49128
3.49219
3.49249
3.49326
3.4935
3.49409
3.49423
3.49444
3.4943
3.49331
3.49192
3.48505
3.47189
3.46491
3.43822
3.42383
3.36747
3.35734
3.35537
3.35494
3.35485
2.2497
2.53204
2.57997
2.73697
2.7663
2.87093
2.89133
2.96896
2.98411
3.04214
3.05276
3.08953
3.09812
3.13805
3.14669
3.18431
3.19227
3.22606
3.23314
3.26288
3.26909
3.29503
3.30044
3.323
3.32772
3.34744
3.35164
3.36948
3.37377
3.39376
3.4119
3.41529
3.42687
3.42919
3.43833
3.4402
3.44777
3.44933
3.45571
3.45703
3.46243
3.46354
3.46811
3.46905
3.47289
3.47367
3.47685
3.47748
3.47998
3.48044
3.48205
3.48243
3.48421
3.4846
3.48628
3.48663
3.48815
3.48846
3.48979
3.49006
3.49121
3.49145
3.49241
3.4926
3.49334
3.49345
3.49375
3.49364
3.49252
3.49145
3.48373
3.46771
3.46216
3.42913
3.41754
3.3453
3.33716
3.33582
3.33554
3.33548
2.07136
2.43977
2.46267
2.65982
2.67361
2.80515
2.81475
2.91255
2.91969
2.99293
2.99792
3.04388
3.04792
3.09839
3.10246
3.14996
3.15372
3.19635
3.19969
3.23721
3.24014
3.27286
3.27541
3.30387
3.30609
3.33095
3.33293
3.35535
3.35735
3.38147
3.40308
3.40465
3.41917
3.42026
3.43177
3.43265
3.4422
3.44294
3.45098
3.4516
3.45842
3.45894
3.4647
3.46514
3.46999
3.47036
3.47437
3.47467
3.47782
3.47803
3.48006
3.48024
3.48248
3.48267
3.48479
3.48496
3.48686
3.48701
3.48869
3.48882
3.49026
3.49037
3.49159
3.49168
3.49262
3.49267
3.49307
3.49302
3.49172
3.49125
3.48273
3.46311
3.46051
3.41919
3.41368
3.32057
3.31671
3.31622
3.31612
3.3161
2.07136
2.43977
2.46267
2.65982
2.67361
2.80514
2.81475
2.91255
2.91969
2.99292
2.99792
3.04387
3.04792
3.09838
3.10246
3.14996
3.15372
3.19635
3.19969
3.23721
3.24014
3.27286
3.27541
3.30387
3.30609
3.33095
3.33293
3.35535
3.35735
3.38146
3.40308
3.40465
3.41917
3.42026
3.43177
3.43265
3.4422
3.44294
3.45098
3.4516
3.45841
3.45894
3.4647
3.46514
3.46999
3.47036
3.47437
3.47467
3.47782
3.47803
3.48006
3.48024
3.48248
3.48266
3.48479
3.48496
3.48686
3.48701
3.48869
3.48882
3.49026
3.49037
3.49159
3.49168
3.49262
3.49267
3.49307
3.49302
3.49172
3.49125
3.48273
3.46311
3.46052
3.41919
3.41369
3.32058
3.31672
3.31623
3.31613
3.31611
2.2497
2.53204
2.57996
2.73697
2.7663
2.87093
2.89133
2.96896
2.98411
3.04214
3.05276
3.08953
3.09812
3.13805
3.14669
3.18431
3.19227
3.22605
3.23314
3.26288
3.26909
3.29503
3.30044
3.323
3.32772
3.34744
3.35164
3.36948
3.37377
3.39376
3.4119
3.41529
3.42687
3.42919
3.43833
3.4402
3.44777
3.44933
3.45571
3.45703
3.46243
3.46354
3.46811
3.46905
3.47289
3.47367
3.47685
3.47748
3.47997
3.48044
3.48205
3.48243
3.48421
3.4846
3.48628
3.48663
3.48814
3.48846
3.48979
3.49006
3.49121
3.49145
3.49241
3.4926
3.49334
3.49345
3.49375
3.49364
3.49252
3.49145
3.48373
3.46771
3.46217
3.42914
3.41755
3.34531
3.33717
3.33583
3.33555
3.33549
2.41675
2.63369
2.69289
2.81923
2.85598
2.94009
2.96563
3.02787
3.04682
3.09325
3.10655
3.13631
3.14707
3.17896
3.18976
3.21984
3.22979
3.25683
3.26568
3.28948
3.29725
3.31802
3.32479
3.34285
3.34875
3.36455
3.36981
3.38415
3.38956
3.40613
3.42131
3.4256
3.43494
3.43785
3.44518
3.44752
3.45358
3.45553
3.46064
3.46229
3.46661
3.468
3.47166
3.47283
3.47591
3.47689
3.47943
3.48022
3.48221
3.48279
3.4841
3.48458
3.486
3.48648
3.48782
3.48827
3.48947
3.48987
3.49093
3.49128
3.49219
3.49249
3.49326
3.4935
3.49409
3.49422
3.49444
3.4943
3.49331
3.49192
3.48506
3.47189
3.46492
3.43822
3.42384
3.36747
3.35735
3.35538
3.35495
3.35486
2.57513
2.74164
2.80313
2.90508
2.94376
3.01158
3.03846
3.08851
3.10842
3.14569
3.15969
3.18385
3.19518
3.22072
3.23205
3.25618
3.26663
3.28832
3.29763
3.31673
3.32489
3.34157
3.34868
3.36318
3.36938
3.38207
3.38761
3.39918
3.4049
3.41856
3.43116
3.43571
3.44327
3.44634
3.45223
3.45468
3.45956
3.46161
3.46571
3.46744
3.47091
3.47237
3.47531
3.47654
3.47901
3.48004
3.48208
3.48291
3.48451
3.48512
3.48618
3.48668
3.48782
3.48832
3.4894
3.48987
3.49084
3.49125
3.4921
3.49247
3.4932
3.49351
3.49413
3.49438
3.49485
3.49499
3.49515
3.49499
3.49412
3.4926
3.48664
3.47583
3.46845
3.44681
3.4318
3.38779
3.3772
3.37487
3.37434
3.37422
2.72684
2.8538
2.91175
2.99345
3.03038
3.08472
3.11036
3.15035
3.16933
3.19905
3.21242
3.2319
3.24271
3.26304
3.27383
3.29306
3.30302
3.32031
3.32918
3.34442
3.3522
3.3655
3.37227
3.38384
3.38975
3.39989
3.40517
3.41445
3.41993
3.43103
3.44132
3.4457
3.45178
3.45471
3.45942
3.46176
3.46565
3.4676
3.47088
3.47252
3.47529
3.47669
3.47903
3.4802
3.48217
3.48315
3.48478
3.48557
3.48684
3.48742
3.48828
3.48876
3.48966
3.49014
3.491
3.49145
3.49222
3.49262
3.4933
3.49364
3.49423
3.49452
3.49502
3.49525
3.49562
3.49576
3.49588
3.49572
3.49496
3.49347
3.48841
3.47963
3.47256
3.45514
3.44093
3.40677
3.39673
3.39429
3.39372
3.39359
2.87347
2.96871
3.01942
3.08361
3.1163
3.159
3.18168
3.21304
3.22981
3.25307
3.2649
3.2803
3.28987
3.30575
3.31528
3.33031
3.33911
3.35264
3.36048
3.3724
3.37927
3.38969
3.39567
3.40473
3.40996
3.41789
3.42256
3.42986
3.43473
3.44353
3.45172
3.45561
3.46041
3.463
3.4667
3.46877
3.47182
3.47354
3.47611
3.47756
3.47973
3.48096
3.48279
3.48383
3.48537
3.48624
3.48751
3.48821
3.48921
3.48972
3.4904
3.49082
3.49153
3.49195
3.49262
3.49302
3.49362
3.49397
3.4945
3.49481
3.49527
3.49553
3.49591
3.49612
3.49641
3.49653
3.49661
3.49646
3.49583
3.49447
3.49034
3.48336
3.47708
3.46334
3.45085
3.42479
3.41595
3.41363
3.41307
3.41294
3.01629
3.08541
3.12656
3.17504
3.20182
3.23408
3.25266
3.2763
3.29003
3.30755
3.31724
3.32893
3.33677
3.34871
3.3565
3.36782
3.37501
3.3852
3.39161
3.40059
3.40621
3.41405
3.41895
3.42578
3.43005
3.43603
3.43986
3.44537
3.44937
3.45606
3.46229
3.4655
3.46913
3.47126
3.47404
3.47574
3.47803
3.47945
3.48138
3.48257
3.4842
3.48521
3.48659
3.48744
3.4886
3.48931
3.49027
3.49084
3.49159
3.49201
3.49252
3.49287
3.4934
3.49375
3.49425
3.49457
3.49503
3.49532
3.49572
3.49597
3.49631
3.49652
3.49681
3.49698
3.4972
3.4973
3.49735
3.49723
3.49672
3.49559
3.49237
3.48706
3.4819
3.47149
3.46132
3.44212
3.43491
3.43291
3.43241
3.4323
3.15635
3.20322
3.23339
3.26733
3.28712
3.30971
3.32344
3.33997
3.3501
3.36233
3.36949
3.37771
3.3835
3.39184
3.39759
3.40548
3.41079
3.41791
3.42264
3.42891
3.43306
3.43854
3.44215
3.44692
3.45008
3.45426
3.45708
3.46095
3.4639
3.4686
3.47299
3.47536
3.47791
3.47948
3.48143
3.48268
3.48429
3.48533
3.48668
3.48756
3.4887
3.48944
3.49041
3.49104
3.49185
3.49237
3.49304
3.49346
3.49398
3.49429
3.49465
3.49491
3.49528
3.49554
3.49589
3.49613
3.49645
3.49666
3.49694
3.49712
3.49736
3.49752
3.49772
3.49785
3.498
3.49807
3.49811
3.49801
3.49764
3.49679
3.4945
3.49075
3.48694
3.47962
3.47215
3.45896
3.45366
3.45212
3.45173
3.45164
3.29453
3.3217
3.34008
3.36018
3.3723
3.38569
3.3941
3.40388
3.41009
3.41733
3.42171
3.42659
3.43014
3.43506
3.43858
3.44325
3.4465
3.45071
3.4536
3.45732
3.45985
3.46309
3.46531
3.46813
3.47006
3.47253
3.47426
3.47656
3.47837
3.48116
3.48376
3.48522
3.48673
3.4877
3.48885
3.48961
3.49056
3.4912
3.492
3.49254
3.49321
3.49367
3.49424
3.49462
3.4951
3.49542
3.49582
3.49608
3.49639
3.49658
3.49679
3.49695
3.49717
3.49732
3.49753
3.49768
3.49787
3.498
3.49816
3.49827
3.49842
3.49851
3.49863
3.49871
3.4988
3.49884
3.49886
3.4988
3.49857
3.49805
3.49667
3.49445
3.49211
3.48777
3.48321
3.4755
3.47225
3.47129
3.47105
3.47099
3.43163
3.44053
3.4467
3.45336
3.45744
3.46188
3.4647
3.46795
3.47003
3.47243
3.47391
3.47552
3.47672
3.47835
3.47953
3.48108
3.48217
3.48356
3.48454
3.48577
3.48662
3.48769
3.48844
3.48937
3.49002
3.49084
3.49142
3.49218
3.49279
3.49372
3.49458
3.49507
3.49558
3.4959
3.49628
3.49654
3.49685
3.49707
3.49733
3.49751
3.49774
3.49789
3.49808
3.49821
3.49837
3.49848
3.49861
3.49869
3.4988
3.49886
3.49893
3.49898
3.49906
3.49911
3.49918
3.49923
3.49929
3.49933
3.49939
3.49942
3.49947
3.4995
3.49954
3.49957
3.4996
3.49961
3.49962
3.4996
3.49952
3.49935
3.49889
3.49815
3.49736
3.49592
3.49439
3.49185
3.49076
3.49043
3.49035
3.49033
3.432
3.44033
3.44567
3.4507
3.45344
3.45594
3.45734
3.45869
3.45944
3.46018
3.4607
3.46137
3.46185
3.46247
3.4629
3.46346
3.46385
3.46435
3.4647
3.46514
3.46545
3.46585
3.46612
3.46647
3.46671
3.46702
3.46723
3.46752
3.46774
3.46808
3.46839
3.46857
3.46874
3.46885
3.46898
3.46906
3.46917
3.46923
3.46932
3.46937
3.46944
3.46948
3.46954
3.46958
3.46962
3.46965
3.46968
3.46971
3.46973
3.46975
3.46976
3.46978
3.46979
3.4698
3.46981
3.46982
3.46983
3.46983
3.46983
3.46982
3.46981
3.46979
3.46976
3.46973
3.46967
3.4696
3.46947
3.46931
3.46899
3.46852
3.46746
3.466
3.46468
3.4625
3.4604
3.45712
3.45571
3.45529
3.45518
3.45516
3.29567
3.32111
3.33702
3.3522
3.36032
3.36786
3.37202
3.37608
3.37833
3.38055
3.38208
3.38412
3.38554
3.38741
3.38871
3.39039
3.39155
3.39305
3.39409
3.39544
3.39636
3.39755
3.39837
3.39941
3.40013
3.40106
3.4017
3.40255
3.40322
3.40424
3.40518
3.4057
3.40623
3.40656
3.40694
3.40719
3.4075
3.4077
3.40795
3.40812
3.40832
3.40845
3.40862
3.40872
3.40886
3.40894
3.40905
3.40912
3.40919
3.40924
3.40929
3.40933
3.40937
3.4094
3.40944
3.40946
3.40948
3.40949
3.40948
3.40947
3.40943
3.40938
3.40929
3.40919
3.409
3.40879
3.4084
3.40793
3.40697
3.40557
3.4024
3.39799
3.39406
3.3875
3.38126
3.37128
3.3671
3.36586
3.36554
3.36547
3.15832
3.20226
3.22839
3.25397
3.26723
3.27992
3.2867
3.29355
3.29721
3.30096
3.30345
3.30689
3.30922
3.31237
3.31449
3.31733
3.31923
3.32178
3.32348
3.32575
3.32726
3.32927
3.3306
3.33237
3.33355
3.33511
3.33616
3.3376
3.33869
3.34041
3.34199
3.34283
3.34372
3.34426
3.34491
3.34532
3.34584
3.34617
3.34659
3.34686
3.3472
3.34742
3.3477
3.34787
3.3481
3.34824
3.34842
3.34853
3.34866
3.34873
3.34882
3.34888
3.34896
3.34901
3.34907
3.3491
3.34913
3.34914
3.34914
3.34911
3.34905
3.34897
3.34881
3.34865
3.34833
3.34799
3.34733
3.34657
3.34497
3.3427
3.33738
3.32996
3.32355
3.31248
3.30226
3.28521
3.27837
3.2764
3.2759
3.27578
3.01922
3.08413
3.11979
3.15624
3.17416
3.19222
3.20137
3.21114
3.2161
3.22141
3.22478
3.22971
3.23286
3.23738
3.24025
3.24432
3.24689
3.25054
3.25284
3.25609
3.25813
3.26101
3.26282
3.26535
3.26695
3.26918
3.2706
3.27266
3.27413
3.27658
3.27883
3.27997
3.28123
3.28196
3.28289
3.28344
3.28418
3.28463
3.28523
3.2856
3.28609
3.28638
3.28678
3.28702
3.28734
3.28753
3.28779
3.28794
3.28813
3.28823
3.28835
3.28843
3.28854
3.28861
3.28869
3.28874
3.28879
3.2888
3.28879
3.28876
3.28867
3.28856
3.28834
3.28812
3.28766
3.28721
3.28627
3.28525
3.28299
3.27994
3.27245
3.26189
3.25323
3.23743
3.22354
3.19873
3.18944
3.18688
3.18623
3.18609
2.87751
2.96717
3.01116
3.05925
3.08108
3.10487
3.11603
3.12893
3.13497
3.14193
3.14605
3.15259
3.15645
3.16245
3.16596
3.17136
3.17451
3.17935
3.18216
3.18647
3.18898
3.1928
3.19501
3.19837
3.20032
3.20328
3.20502
3.20774
3.20953
3.21275
3.21571
3.21709
3.21876
3.21964
3.22088
3.22156
3.22254
3.22309
3.22389
3.22433
3.22498
3.22534
3.22587
3.22616
3.22659
3.22683
3.22716
3.22734
3.2276
3.22772
3.22788
3.22798
3.22812
3.22821
3.22832
3.22838
3.22844
3.22846
3.22845
3.22841
3.22829
3.22816
3.22787
3.22759
3.22699
3.22644
3.22521
3.22398
3.22105
3.21737
3.20764
3.19374
3.18319
3.16231
3.14525
3.11163
3.10025
3.09728
3.09655
3.09639
2.73222
2.85204
2.90236
2.96331
2.98793
3.01803
3.03061
3.04699
3.0538
3.06258
3.06722
3.07559
3.07996
3.08763
3.09159
3.09849
3.10206
3.10824
3.11142
3.11693
3.11977
3.12465
3.12715
3.13145
3.13365
3.13743
3.1394
3.14286
3.14488
3.14894
3.15265
3.15421
3.15632
3.15732
3.15889
3.15966
3.16092
3.16154
3.16255
3.16306
3.16389
3.16429
3.16497
3.1653
3.16585
3.16611
3.16654
3.16675
3.16707
3.16721
3.16741
3.16752
3.16771
3.16781
3.16796
3.16802
3.1681
3.16812
3.16811
3.16806
3.16791
3.16777
3.16739
3.16709
3.16633
3.1657
3.16416
3.16277
3.15914
3.15503
3.143
3.12546
3.11356
3.08703
3.06762
3.02364
3.01072
3.00758
3.00685
3.00668
2.58214
2.73969
2.79314
2.86883
2.89456
2.93189
2.94504
2.96544
2.97255
2.98338
2.98824
2.99874
3.00333
3.01294
3.01711
3.02576
3.0295
3.03725
3.04059
3.0475
3.05047
3.0566
3.05922
3.06461
3.06692
3.07166
3.07372
3.07803
3.08014
3.08514
3.08969
3.0913
3.09393
3.09497
3.09694
3.09775
3.09932
3.09997
3.10124
3.10177
3.10281
3.10324
3.10408
3.10443
3.10512
3.10539
3.10593
3.10615
3.10655
3.1067
3.10695
3.10706
3.10731
3.1074
3.10759
3.10766
3.10776
3.10778
3.10777
3.10772
3.10753
3.10738
3.10692
3.10659
3.10565
3.105
3.10309
3.10165
3.09724
3.09302
3.07858
3.05695
3.04453
3.01147
2.99098
2.93441
2.9208
2.9178
2.91712
2.91697
2.42576
2.6315
2.68302
2.77634
2.80072
2.84672
2.85918
2.88441
2.89115
2.90443
2.90904
2.92213
2.9265
2.93848
2.94245
2.95323
2.95679
2.96644
2.96962
2.97823
2.98106
2.98868
2.99118
2.99789
3.00009
3.00599
3.00795
3.0133
3.01529
3.02137
3.02683
3.02836
3.03159
3.03259
3.03503
3.0358
3.03775
3.03837
3.03996
3.04046
3.04175
3.04216
3.04322
3.04355
3.0444
3.04466
3.04534
3.04554
3.04604
3.04619
3.04649
3.0466
3.0469
3.047
3.04723
3.0473
3.04743
3.04744
3.04743
3.04738
3.04715
3.04701
3.04643
3.04613
3.04496
3.04435
3.04201
3.04066
3.03534
3.03141
3.01445
2.98807
2.97631
2.93541
2.91578
2.84345
2.83045
2.82792
2.82737
2.82725
2.26114
2.52948
2.57124
2.68661
2.70602
2.76288
2.77281
2.80413
2.80949
2.82582
2.82949
2.84587
2.84937
2.86434
2.86751
2.88098
2.88383
2.89589
2.89843
2.90918
2.91145
2.92097
2.92297
2.93135
2.93311
2.94048
2.94205
2.9487
2.95028
2.95761
2.96414
2.96534
2.96935
2.97014
2.97319
2.97381
2.97625
2.97674
2.97872
2.97912
2.98074
2.98106
2.98238
2.98264
2.98371
2.98392
2.98476
2.98492
2.98555
2.98566
2.98605
2.98613
2.98651
2.98658
2.98688
2.98693
2.98709
2.98711
2.98709
2.98705
2.98676
2.98665
2.98594
2.9857
2.98426
2.98377
2.98089
2.97982
2.97338
2.97033
2.9507
2.91861
2.90926
2.85849
2.84269
2.75013
2.73969
2.73796
2.7376
2.73752
2.08579
2.43652
2.45651
2.60072
2.60981
2.68093
2.68558
2.72488
2.7274
2.74772
2.74944
2.77012
2.77177
2.79067
2.79217
2.80915
2.8105
2.82571
2.82691
2.84048
2.84155
2.85356
2.85451
2.86508
2.86591
2.8752
2.87594
2.8843
2.88503
2.89389
2.90166
2.90221
2.90724
2.90761
2.91145
2.91174
2.91481
2.91505
2.91754
2.91773
2.91977
2.91992
2.92158
2.92171
2.92305
2.92315
2.92421
2.92429
2.92508
2.92513
2.92561
2.92565
2.92613
2.92616
2.92654
2.92656
2.92677
2.92677
2.92675
2.92673
2.92637
2.92632
2.92543
2.92531
2.92351
2.92328
2.91969
2.91919
2.91129
2.9099
2.88744
2.84824
2.84387
2.78018
2.77267
2.65352
2.64857
2.64795
2.64782
2.6478
)
;

boundaryField
{
    F1_1
    {
        type            fixedValue;
        value           nonuniform List<scalar> 
80
(
1.99134
2.39717
2.39717
2.56157
2.56157
2.64364
2.64364
2.69116
2.69116
2.72126
2.72126
2.73859
2.73859
2.75759
2.75759
2.77571
2.77571
2.79237
2.79237
2.80743
2.80743
2.82087
2.82087
2.83275
2.83275
2.84321
2.84321
2.85262
2.85262
2.86233
2.87077
2.87077
2.87644
2.87644
2.88078
2.88078
2.88426
2.88426
2.88709
2.88709
2.88939
2.88939
2.89127
2.89127
2.89279
2.89279
2.89399
2.89399
2.89489
2.89489
2.89542
2.89542
2.89597
2.89597
2.89639
2.89639
2.89662
2.89662
2.89659
2.89659
2.89618
2.89618
2.89516
2.89516
2.89311
2.89311
2.88904
2.88904
2.88012
2.88012
2.85615
2.81236
2.81236
2.7399
2.7399
2.60293
2.60293
2.60293
2.60293
2.60293
)
;
    }
    F1_2
    {
        type            fixedValue;
        value           nonuniform List<scalar> 
80
(
1.97481
2.40054
2.40054
2.6249
2.6249
2.77468
2.77468
2.88615
2.88615
2.96967
2.96967
3.02188
3.02188
3.07947
3.07947
3.13366
3.13366
3.18228
3.18228
3.22506
3.22506
3.26237
3.26237
3.29482
3.29482
3.32316
3.32316
3.34869
3.34869
3.37536
3.39907
3.39907
3.41558
3.41558
3.4287
3.4287
3.43959
3.43959
3.44876
3.44876
3.45653
3.45653
3.4631
3.4631
3.46863
3.46863
3.4732
3.4732
3.47679
3.47679
3.47909
3.47909
3.48166
3.48166
3.48408
3.48408
3.48625
3.48625
3.48816
3.48816
3.48981
3.48981
3.4912
3.4912
3.49228
3.49228
3.49273
3.49273
3.49131
3.49131
3.48245
3.46046
3.46046
3.4135
3.4135
3.30642
3.30642
3.30642
3.30642
3.30642
)
;
    }
    F1_3
    {
        type            fixedValue;
        value           nonuniform List<scalar> 
80
(
1.9748
2.40053
2.40053
2.6249
2.6249
2.77468
2.77468
2.88615
2.88615
2.96967
2.96967
3.02188
3.02188
3.07947
3.07947
3.13365
3.13365
3.18228
3.18228
3.22506
3.22506
3.26237
3.26237
3.29482
3.29482
3.32316
3.32316
3.34869
3.34869
3.37536
3.39907
3.39907
3.41558
3.41558
3.4287
3.4287
3.43959
3.43959
3.44876
3.44876
3.45653
3.45653
3.4631
3.4631
3.46863
3.46863
3.4732
3.4732
3.47679
3.47679
3.47909
3.47909
3.48166
3.48166
3.48408
3.48408
3.48625
3.48625
3.48816
3.48816
3.48981
3.48981
3.4912
3.4912
3.49228
3.49228
3.49273
3.49273
3.49131
3.49131
3.48245
3.46047
3.46047
3.41351
3.41351
3.30643
3.30643
3.30643
3.30643
3.30643
)
;
    }
    F1_4
    {
        type            fixedValue;
        value           nonuniform List<scalar> 
80
(
1.9911
2.39666
2.39666
2.56047
2.56047
2.64128
2.64128
2.68599
2.68599
2.70904
2.70904
2.73263
2.73263
2.75418
2.75418
2.77355
2.77355
2.7909
2.7909
2.80638
2.80638
2.82008
2.82008
2.83214
2.83214
2.84273
2.84273
2.85225
2.85225
2.86205
2.87056
2.87056
2.87627
2.87627
2.88065
2.88065
2.88415
2.88415
2.887
2.887
2.88932
2.88932
2.89121
2.89121
2.89274
2.89274
2.89395
2.89395
2.89486
2.89486
2.8954
2.8954
2.89595
2.89595
2.89637
2.89637
2.89661
2.89661
2.89658
2.89658
2.89617
2.89617
2.89515
2.89515
2.8931
2.8931
2.88903
2.88903
2.88011
2.88011
2.85614
2.81236
2.81236
2.73989
2.73989
2.60293
2.60293
2.60293
2.60293
2.60293
)
;
    }
    F2_1
    {
        type            fixedValue;
        value           uniform 3.5;
    }
    F2_2
    {
        type            fixedValue;
        value           uniform 3.5;
    }
    F2_3
    {
        type            fixedValue;
        value           uniform 3.5;
    }
    F2_4
    {
        type            fixedValue;
        value           uniform 3.5;
    }
    defaultFaces
    {
        type            empty;
    }
}


// ************************************************************************* //
