/*--------------------------------*- C++ -*----------------------------------*\
| =========                 |                                                 |
| \\      /  F ield         | OpenFOAM: The Open Source CFD Toolbox           |
|  \\    /   O peration     | Version:  5.x                                   |
|   \\  /    A nd           | Web:      www.OpenFOAM.org                      |
|    \\/     M anipulation  |                                                 |
\*---------------------------------------------------------------------------*/
FoamFile
{
    version     2.0;
    format      ascii;
    class       volScalarField;
    location    "9";
    object      gradTy;
}
// * * * * * * * * * * * * * * * * * * * * * * * * * * * * * * * * * * * * * //

dimensions      [0 -1 0 1 0 0 0];

internalField   nonuniform List<scalar> 
2048
(
-26.4237
-26.3961
-26.3417
-26.262
-26.1592
-26.0358
-25.8946
-25.7383
-25.5697
-25.3915
-25.206
-25.0154
-24.8216
-24.6262
-24.4309
-24.2368
-24.0452
-23.8569
-23.6727
-23.4932
-23.3188
-23.1499
-22.9867
-22.8295
-22.6784
-22.5338
-22.396
-22.2651
-22.1418
-22.0263
-21.9193
-21.8214
-21.7334
-21.656
-21.5903
-21.5372
-21.4979
-21.4735
-21.4653
-21.4745
-21.5023
-21.55
-21.6189
-21.71
-21.8244
-21.9629
-22.1257
-22.3128
-22.5236
-22.7567
-23.0096
-23.2793
-23.5613
-23.8504
-24.1406
-24.4252
-24.6976
-24.9511
-25.1796
-25.3777
-25.5412
-25.6666
-25.7515
-25.7943
-26.446
-26.4177
-26.3621
-26.2808
-26.1759
-26.0503
-25.9067
-25.7482
-25.5776
-25.3974
-25.2102
-25.018
-24.8228
-24.6262
-24.4298
-24.2349
-24.0425
-23.8536
-23.669
-23.4891
-23.3144
-23.1453
-22.9819
-22.8245
-22.6732
-22.5284
-22.3902
-22.2591
-22.1354
-22.0194
-21.9119
-21.8134
-21.7247
-21.6466
-21.5801
-21.5261
-21.4859
-21.4605
-21.4512
-21.4594
-21.4861
-21.5329
-21.6009
-21.6912
-21.805
-21.9431
-22.106
-22.2937
-22.5056
-22.7405
-22.9962
-23.2693
-23.5555
-23.8495
-24.145
-24.4352
-24.7129
-24.9713
-25.2041
-25.4058
-25.572
-25.6994
-25.7855
-25.829
-26.4887
-26.4592
-26.4011
-26.3164
-26.2076
-26.0776
-25.9297
-25.7669
-25.5922
-25.4084
-25.2179
-25.0228
-24.825
-24.6261
-24.4277
-24.2311
-24.0373
-23.8473
-23.6617
-23.4812
-23.306
-23.1365
-22.9727
-22.815
-22.6634
-22.5181
-22.3795
-22.2478
-22.1233
-22.0065
-21.898
-21.7984
-21.7084
-21.6289
-21.5607
-21.5051
-21.463
-21.4358
-21.4246
-21.4308
-21.4556
-21.5005
-21.5667
-21.6555
-21.7681
-21.9055
-22.0684
-22.257
-22.471
-22.7094
-22.9701
-23.2498
-23.5442
-23.8476
-24.1534
-24.4541
-24.7421
-25.01
-25.251
-25.4595
-25.6309
-25.7619
-25.8504
-25.895
-26.5499
-26.5185
-26.4569
-26.3673
-26.2526
-26.1163
-25.9619
-25.793
-25.6126
-25.4236
-25.2285
-25.0293
-24.8278
-24.6257
-24.4245
-24.2255
-24.0297
-23.8381
-23.6513
-23.4699
-23.2941
-23.124
-22.9599
-22.8017
-22.6496
-22.5038
-22.3644
-22.2319
-22.1064
-21.9885
-21.8786
-21.7774
-21.6856
-21.604
-21.5336
-21.4756
-21.431
-21.4011
-21.3872
-21.3905
-21.4126
-21.4547
-21.5183
-21.6048
-21.7156
-21.8519
-22.0146
-22.2043
-22.4212
-22.6643
-22.9319
-23.221
-23.5271
-23.8441
-24.1648
-24.481
-24.784
-25.0656
-25.3184
-25.5364
-25.715
-25.8512
-25.9428
-25.9889
-26.6283
-26.5944
-26.5279
-26.4317
-26.3092
-26.1646
-26.002
-25.8251
-25.6376
-25.4421
-25.2412
-25.0369
-24.8309
-24.6248
-24.4201
-24.2181
-24.0198
-23.8263
-23.6381
-23.4556
-23.279
-23.1084
-22.9438
-22.7851
-22.6324
-22.4859
-22.3457
-22.2122
-22.0855
-21.9662
-21.8546
-21.7514
-21.6572
-21.5731
-21.4999
-21.4388
-21.391
-21.3578
-21.3404
-21.3402
-21.3587
-21.3973
-21.4576
-21.5411
-21.6493
-21.7839
-21.9461
-22.1369
-22.3568
-22.6057
-22.8819
-23.1828
-23.5038
-23.8385
-24.1787
-24.515
-24.8376
-25.137
-25.4049
-25.6349
-25.8224
-25.9646
-26.06
-26.1079
-26.7229
-26.6857
-26.6131
-26.5085
-26.3762
-26.2213
-26.0485
-25.8621
-25.666
-25.4629
-25.2553
-25.0451
-24.8338
-24.6231
-24.4143
-24.2088
-24.0077
-23.8119
-23.6221
-23.4385
-23.2612
-23.0901
-22.925
-22.7658
-22.6125
-22.4652
-22.324
-22.1893
-22.0613
-21.9403
-21.8268
-21.7212
-21.6244
-21.5372
-21.4607
-21.396
-21.3444
-21.3072
-21.2857
-21.2813
-21.2956
-21.3299
-21.386
-21.4657
-21.5707
-21.7029
-21.864
-22.0556
-22.2787
-22.5337
-22.8199
-23.1347
-23.4737
-23.8299
-24.1942
-24.5555
-24.9023
-25.2234
-25.5095
-25.7536
-25.9513
-26.1003
-26.1996
-26.2493
-26.8331
-26.7918
-26.7115
-26.5965
-26.4523
-26.2849
-26.1001
-25.9028
-25.6968
-25.4853
-25.2703
-25.0535
-24.8364
-24.6205
-24.4071
-24.1976
-23.9932
-23.795
-23.6034
-23.4188
-23.2408
-23.0693
-22.9038
-22.7442
-22.5902
-22.4421
-22.2999
-22.1639
-22.0344
-21.9116
-21.7959
-21.6877
-21.5879
-21.4972
-21.4169
-21.3481
-21.2922
-21.2505
-21.2243
-21.2152
-21.2245
-21.2539
-21.3052
-21.3803
-21.4812
-21.6102
-21.7694
-21.9611
-22.187
-22.4485
-22.7454
-23.076
-23.4359
-23.8175
-24.2105
-24.6019
-24.9777
-25.3245
-25.6317
-25.8916
-26.1003
-26.2562
-26.3594
-26.4108
-26.9584
-26.912
-26.8223
-26.6947
-26.5363
-26.3543
-26.1556
-25.9458
-25.729
-25.5083
-25.2854
-25.0617
-24.8384
-24.6168
-24.3982
-24.1843
-23.9765
-23.7756
-23.5823
-23.3967
-23.2183
-23.0465
-22.8808
-22.7207
-22.5661
-22.4171
-22.2738
-22.1365
-22.0055
-21.8808
-21.7627
-21.6517
-21.5485
-21.454
-21.3694
-21.296
-21.2353
-21.1887
-21.1574
-21.143
-21.1468
-21.1707
-21.2164
-21.286
-21.382
-21.5068
-21.6633
-21.8542
-22.0823
-22.3499
-22.658
-23.0058
-23.3891
-23.8002
-24.2269
-24.6538
-25.0637
-25.4404
-25.7713
-26.0484
-26.2682
-26.4307
-26.5373
-26.5901
-27.0986
-27.0461
-26.945
-26.8024
-26.627
-26.428
-26.2136
-25.99
-25.7617
-25.5313
-25.3003
-25.0694
-24.8396
-24.6118
-24.3878
-24.1691
-23.9573
-23.7537
-23.5588
-23.3724
-23.1938
-23.0221
-22.8563
-22.6959
-22.5406
-22.3906
-22.2461
-22.1075
-21.9749
-21.8484
-21.7279
-21.6139
-21.507
-21.4082
-21.319
-21.2407
-21.1748
-21.1228
-21.086
-21.0658
-21.0637
-21.0814
-21.1208
-21.1843
-21.2744
-21.394
-21.5466
-21.7355
-21.9647
-22.2376
-22.5569
-22.9229
-23.3323
-23.7768
-24.2426
-24.711
-25.1606
-25.5715
-25.9286
-26.2236
-26.4542
-26.6222
-26.7313
-26.7848
-27.2539
-27.194
-27.0791
-26.9185
-26.7233
-26.5048
-26.2727
-26.0342
-25.7937
-25.5536
-25.3144
-25.0763
-24.8398
-24.6057
-24.3756
-24.1516
-23.9357
-23.7293
-23.5328
-23.346
-23.1676
-22.9963
-22.8308
-22.6701
-22.5141
-22.3631
-22.2174
-22.0774
-21.9433
-21.8149
-21.6919
-21.5748
-21.4639
-21.3606
-21.2663
-21.1827
-21.1113
-21.0536
-21.011
-20.9847
-20.9762
-20.9872
-21.0197
-21.0762
-21.1595
-21.2729
-21.4202
-21.6058
-21.8346
-22.1116
-22.4414
-22.8261
-23.2637
-23.7458
-24.2566
-24.7732
-25.2689
-25.7184
-26.104
-26.4171
-26.6573
-26.8293
-26.9393
-26.9928
-27.4246
-27.3556
-27.2243
-27.0424
-26.824
-26.5833
-26.3317
-26.0772
-25.8243
-25.5745
-25.3275
-25.0824
-24.8391
-24.5982
-24.3617
-24.132
-23.9116
-23.7023
-23.5045
-23.3176
-23.14
-22.9695
-22.8045
-22.6437
-22.487
-22.3347
-22.1877
-22.0465
-21.911
-21.7808
-21.6555
-21.535
-21.42
-21.3118
-21.2121
-21.1227
-21.0455
-20.9819
-20.9332
-20.9006
-20.8853
-20.8891
-20.9141
-20.9629
-21.0385
-21.1445
-21.2852
-21.4658
-21.6923
-21.9717
-22.3107
-22.7141
-23.1818
-23.7057
-24.2679
-24.8405
-25.3894
-25.8826
-26.2985
-26.629
-26.8767
-27.0502
-27.1591
-27.2114
-27.6111
-27.5313
-27.3802
-27.1731
-26.9279
-26.6621
-26.3891
-26.1178
-25.8525
-25.5936
-25.3394
-25.0877
-24.8376
-24.5897
-24.3461
-24.1101
-23.8848
-23.6725
-23.4736
-23.2873
-23.1111
-22.9421
-22.7779
-22.6171
-22.4595
-22.3059
-22.1574
-22.0149
-21.8783
-21.7466
-21.6189
-21.4951
-21.3757
-21.2622
-21.1566
-21.0613
-20.978
-20.9083
-20.8534
-20.8142
-20.792
-20.7882
-20.8051
-20.8454
-20.9125
-21.01
-21.1427
-21.3163
-21.5384
-21.8177
-22.1639
-22.5853
-23.0844
-23.6544
-24.2752
-24.9128
-25.5234
-26.0656
-26.5134
-26.8597
-27.1117
-27.2832
-27.3885
-27.4382
-27.8141
-27.7212
-27.5467
-27.3098
-27.0337
-26.7397
-26.4435
-26.1548
-25.8775
-25.6105
-25.35
-25.0922
-24.8355
-24.5802
-24.3289
-24.0858
-23.8553
-23.6399
-23.4403
-23.2552
-23.0812
-22.9144
-22.7514
-22.5906
-22.432
-22.2767
-22.1266
-21.9829
-21.8454
-21.7126
-21.5828
-21.4556
-21.3316
-21.2124
-21.1005
-20.9987
-20.9092
-20.8333
-20.7721
-20.7264
-20.697
-20.6853
-20.6936
-20.7249
-20.7826
-20.8705
-20.9937
-21.1585
-21.3735
-21.6497
-22.0005
-22.4382
-22.9696
-23.5897
-24.277
-24.9902
-25.6726
-26.2698
-26.7501
-27.1093
-27.3612
-27.5266
-27.625
-27.6705
-28.0343
-27.9258
-27.7234
-27.4517
-27.14
-26.8146
-26.4934
-26.1869
-25.8985
-25.6248
-25.3593
-25.0963
-24.833
-24.57
-24.3101
-24.059
-23.8227
-23.6043
-23.4044
-23.2213
-23.0507
-22.8868
-22.7254
-22.5646
-22.4047
-22.2473
-22.0952
-21.9506
-21.8128
-21.6792
-21.5475
-21.4169
-21.288
-21.1626
-21.044
-20.9355
-20.8395
-20.7574
-20.6901
-20.6378
-20.6011
-20.5812
-20.5804
-20.6021
-20.6498
-20.7272
-20.8394
-20.9933
-21.1985
-21.4681
-21.8196
-22.2711
-22.8348
-23.509
-24.2715
-25.073
-25.8393
-26.4979
-27.0107
-27.3783
-27.6243
-27.7783
-27.8661
-27.9056
-28.273
-28.1457
-27.9104
-27.5978
-27.2452
-26.8851
-26.5374
-26.2131
-25.9148
-25.6363
-25.3677
-25.1002
-24.8306
-24.5594
-24.2898
-24.0296
-23.787
-23.5654
-23.3657
-23.1858
-23.0197
-22.8598
-22.7004
-22.5396
-22.378
-22.2178
-22.0634
-21.918
-21.7804
-21.6468
-21.5135
-21.3794
-21.2454
-21.1132
-20.9873
-20.8718
-20.7693
-20.6811
-20.6077
-20.5491
-20.5051
-20.4767
-20.4665
-20.478
-20.515
-20.5811
-20.6811
-20.8221
-21.0145
-21.2733
-21.6209
-22.0823
-22.6773
-23.4091
-24.2562
-25.1613
-26.0265
-26.7536
-27.2973
-27.6669
-27.8996
-28.0361
-28.1093
-28.1407
-28.5312
-28.3816
-28.1074
-27.7469
-27.3476
-26.9496
-26.5741
-26.232
-25.9257
-25.645
-25.3753
-25.1044
-24.8287
-24.5489
-24.2681
-23.9974
-23.7479
-23.523
-23.324
-23.1485
-22.9886
-22.8339
-22.6769
-22.5159
-22.3521
-22.1882
-22.0308
-21.8849
-21.7485
-21.6157
-21.4811
-21.3436
-21.2041
-21.0646
-20.9306
-20.8079
-20.6988
-20.6045
-20.5255
-20.4608
-20.4096
-20.3724
-20.3523
-20.3533
-20.3793
-20.4334
-20.5199
-20.6463
-20.8227
-21.066
-21.404
-21.8703
-22.4946
-23.2864
-24.2279
-25.2551
-26.238
-27.0413
-27.6123
-27.9753
-28.1856
-28.2976
-28.3517
-28.3729
-28.8104
-28.6339
-28.3144
-27.8979
-27.4452
-27.0065
-26.6019
-26.2424
-25.9306
-25.651
-25.3829
-25.1095
-24.8278
-24.539
-24.2453
-23.962
-23.7051
-23.477
-23.279
-23.1096
-22.9576
-22.8096
-22.6552
-22.4937
-22.3274
-22.1586
-21.9972
-21.8513
-21.7172
-21.5863
-21.4508
-21.3098
-21.1647
-21.0168
-20.8739
-20.7438
-20.6282
-20.528
-20.4438
-20.3735
-20.3152
-20.269
-20.2385
-20.2286
-20.2434
-20.2851
-20.3572
-20.4673
-20.625
-20.8473
-21.1688
-21.6336
-22.2838
-23.1369
-24.1825
-25.3544
-26.4789
-27.3664
-27.9585
-28.3031
-28.4804
-28.5603
-28.5907
-28.5997
-29.1122
-28.9035
-28.5316
-28.0495
-27.5359
-27.0543
-26.6196
-26.243
-25.9289
-25.6544
-25.3913
-25.1159
-24.8283
-24.5306
-24.2213
-23.923
-23.6585
-23.4271
-23.2303
-23.0689
-22.9273
-22.7876
-22.6358
-22.4735
-22.3043
-22.1287
-21.962
-21.8168
-21.6867
-21.5592
-21.4228
-21.2783
-21.1276
-20.9702
-20.8172
-20.6796
-20.5576
-20.4516
-20.3629
-20.2875
-20.2225
-20.167
-20.1257
-20.1046
-20.1081
-20.1374
-20.194
-20.2867
-20.423
-20.6185
-20.9156
-21.3706
-22.0421
-22.956
-24.1143
-25.4587
-26.7558
-27.7354
-28.3384
-28.6497
-28.7816
-28.8213
-28.8236
-28.8183
-29.4384
-29.1907
-28.7591
-28.2001
-27.617
-27.0914
-26.6261
-26.2322
-25.9203
-25.6555
-25.4014
-25.1243
-24.8305
-24.5246
-24.1964
-23.8796
-23.608
-23.3731
-23.1774
-23.0265
-22.8979
-22.7688
-22.6191
-22.4554
-22.2833
-22.0987
-21.9244
-21.7811
-21.657
-21.5348
-21.3976
-21.2493
-21.0933
-20.9248
-20.7602
-20.6155
-20.4871
-20.3756
-20.2831
-20.2035
-20.1321
-20.0669
-20.0141
-19.9814
-19.9741
-19.991
-20.0315
-20.1061
-20.2191
-20.3814
-20.645
-21.08
-21.7674
-22.7389
-24.0157
-25.567
-27.0778
-28.1562
-28.7542
-29.0135
-29.0863
-29.0778
-29.0477
-29.0266
-29.7913
-29.4957
-28.9977
-28.3483
-27.6851
-27.1171
-26.6206
-26.2085
-25.9042
-25.6549
-25.4148
-25.135
-24.8347
-24.5225
-24.1708
-23.8307
-23.5536
-23.315
-23.1194
-22.9822
-22.8698
-22.7542
-22.6055
-22.4395
-22.2652
-22.0682
-21.8834
-21.7438
-21.6283
-21.5139
-21.3752
-21.2229
-21.0625
-20.8808
-20.7024
-20.5515
-20.417
-20.2996
-20.2047
-20.1218
-20.0446
-19.9692
-19.904
-19.8595
-19.842
-19.8472
-19.8703
-19.927
-20.016
-20.1379
-20.3579
-20.7605
-21.4578
-22.4812
-23.8763
-25.6774
-27.4567
-28.6376
-29.2078
-29.3922
-29.3913
-29.3266
-29.2607
-29.2222
-30.1732
-29.8179
-29.2488
-28.492
-27.7359
-27.1308
-26.6026
-26.1696
-25.8805
-25.6528
-25.4337
-25.1484
-24.8405
-24.5264
-24.1445
-23.7745
-23.4959
-23.2529
-23.0552
-22.936
-22.8435
-22.7452
-22.5951
-22.4256
-22.2514
-22.0372
-21.8374
-21.7046
-21.6006
-21.4976
-21.3559
-21.1988
-21.0362
-20.8382
-20.6429
-20.4878
-20.3474
-20.2236
-20.1279
-20.0427
-19.9607
-19.8742
-19.7957
-19.7388
-19.7122
-19.707
-19.7112
-19.7509
-19.8166
-19.8901
-20.0558
-20.4106
-21.1125
-22.1786
-23.6821
-25.7863
-27.9089
-29.1898
-29.6997
-29.7824
-29.6926
-29.5649
-29.4602
-29.4035
-30.5874
-30.1556
-29.5146
-28.6295
-27.7638
-27.1333
-26.5722
-26.1126
-25.8494
-25.6497
-25.4607
-25.1643
-24.847
-24.5393
-24.1177
-23.7082
-23.4356
-23.1872
-22.9831
-22.8883
-22.819
-22.7436
-22.5879
-22.4129
-22.2436
-22.0055
-21.7842
-21.6631
-21.5741
-21.4873
-21.3396
-21.1766
-21.0159
-20.797
-20.5806
-20.4248
-20.2785
-20.1471
-20.053
-19.9667
-19.881
-19.7822
-19.6891
-19.6192
-19.585
-19.5715
-19.5541
-19.5788
-19.6248
-19.6404
-19.7407
-20.0281
-20.732
-21.829
-23.4139
-25.8881
-28.457
-29.8242
-30.2292
-30.1795
-29.9861
-29.7896
-29.6444
-29.5692
-31.038
-30.505
-29.7996
-28.7585
-27.761
-27.1268
-26.5303
-26.0334
-25.8115
-25.6454
-25.5
-25.1822
-24.852
-24.566
-24.0905
-23.6276
-23.3749
-23.1188
-22.9003
-22.8393
-22.7965
-22.7522
-22.5834
-22.4001
-22.2449
-21.9731
-21.7207
-21.6193
-21.5484
-21.4851
-21.3259
-21.1551
-21.0038
-20.7574
-20.5135
-20.3633
-20.2107
-20.0692
-19.9804
-19.8939
-19.8065
-19.6935
-19.5842
-19.5004
-19.4609
-19.4425
-19.3985
-19.4116
-19.4452
-19.3908
-19.4158
-19.6098
-20.3184
-21.4329
-23.0459
-25.9738
-29.132
-30.5519
-30.793
-30.5776
-30.2673
-29.9981
-29.8118
-29.7181
-31.5302
-30.8593
-30.1106
-28.8768
-27.7168
-27.1162
-26.4787
-25.9261
-25.7689
-25.6389
-25.5574
-25.2008
-24.8517
-24.6132
-24.0631
-23.5264
-23.3172
-23.049
-22.8031
-22.7903
-22.7751
-22.7747
-22.5808
-22.3846
-22.2593
-21.9399
-21.6427
-21.5739
-21.5229
-21.4939
-21.3142
-21.1323
-21.0031
-20.7192
-20.4385
-20.3048
-20.1446
-19.9887
-19.9107
-19.8244
-19.7382
-19.6082
-19.481
-19.3816
-19.3397
-19.3219
-19.2433
-19.2493
-19.2834
-19.143
-19.0853
-19.1506
-19.8759
-20.9965
-22.5432
-26.0295
-29.9769
-31.3837
-31.385
-30.9693
-30.5316
-30.1879
-29.9611
-29.8497
-32.0715
-31.2066
-30.459
-28.9823
-27.6158
-27.1096
-26.4203
-25.7821
-25.7251
-25.6276
-25.641
-25.2178
-24.84
-24.691
-24.0354
-23.3953
-23.2681
-22.9798
-22.6857
-22.7437
-22.753
-22.8165
-22.5786
-22.3625
-22.2935
-21.9058
-21.5442
-21.5284
-21.4963
-21.5181
-21.3032
-21.105
-21.0186
-20.6823
-20.3514
-20.2516
-20.0809
-19.9035
-19.8449
-19.7579
-19.6774
-19.5264
-19.3793
-19.262
-19.2213
-19.213
-19.0859
-19.0911
-19.1468
-18.8973
-18.7562
-18.642
-19.4109
-20.5338
-21.8589
-26.0347
-31.0516
-32.3274
-31.9954
-31.3465
-30.7745
-30.3572
-30.0919
-29.9638
-32.6723
-31.5279
-30.862
-29.0726
-27.4367
-27.1207
-26.3594
-25.5885
-25.6869
-25.6063
-25.7629
-25.2298
-24.807
-24.8139
-24.0074
-23.2208
-23.2363
-22.9141
-22.5396
-22.7036
-22.7268
-22.8853
-22.5744
-22.3273
-22.3567
-21.8706
-21.4168
-21.4865
-21.4656
-21.564
-21.2911
-21.0683
-21.0574
-20.6465
-20.246
-20.2074
-20.0206
-19.8107
-19.7847
-19.6938
-19.626
-19.4478
-19.2792
-19.1402
-19.1049
-19.1202
-18.9227
-18.9351
-19.0455
-18.652
-18.4386
-18.0708
-18.9319
-20.071
-20.9309
-25.9592
-32.4382
-33.385
-32.61
-31.7
-30.992
-30.5045
-30.2036
-30.0605
-33.3475
-31.7937
-31.3459
-29.1455
-27.1498
-27.17
-26.3018
-25.3272
-25.6659
-25.5652
-25.9398
-25.2317
-24.7379
-25.0026
-23.9789
-22.9836
-23.2355
-22.8558
-22.3526
-22.6776
-22.69
-22.9922
-22.5649
-22.2694
-22.4622
-21.8342
-21.249
-21.4541
-21.4259
-21.6403
-21.2752
-21.0146
-21.1294
-20.6113
-20.1134
-20.178
-19.965
-19.7058
-19.7327
-19.6304
-19.5865
-19.3719
-19.1809
-19.0146
-18.9892
-19.0501
-18.7483
-18.7773
-18.9927
-18.4017
-18.148
-17.4167
-18.449
-19.6519
-19.6777
-25.7601
-34.2495
-34.5486
-33.2102
-32.0204
-31.1805
-30.6288
-30.2965
-30.1404
-34.1181
-31.9598
-31.9491
-29.1987
-26.7137
-27.2881
-26.2552
-24.972
-25.6807
-25.4881
-26.1957
-25.2164
-24.6111
-25.2863
-23.9494
-22.6569
-23.2851
-22.8098
-22.1075
-22.6775
-22.6317
-23.1529
-22.5452
-22.1751
-22.6288
-21.7959
-21.0251
-21.4418
-21.3686
-21.7596
-21.2517
-20.9332
-21.2491
-20.5761
-19.9416
-20.1722
-19.9155
-19.5826
-19.6934
-19.5652
-19.5625
-19.2973
-19.0849
-18.8833
-18.8716
-19.012
-18.5551
-18.6116
-19.0068
-18.1354
-17.9081
-16.6496
-17.9732
-19.3443
-17.9932
-25.3771
-36.6387
-35.7943
-33.7728
-32.2988
-31.3376
-30.73
-30.3712
-30.2042
-35.0134
-31.9619
-32.7266
-29.23
-26.0724
-27.5185
-26.2288
-24.4863
-25.7606
-25.3486
-26.564
-25.1744
-24.3962
-25.705
-23.918
-22.2036
-23.4132
-22.7825
-21.7798
-22.7224
-22.5346
-23.3893
-22.5091
-22.0245
-22.8825
-21.7547
-20.724
-21.4657
-21.2799
-21.9397
-21.2153
-20.8089
-21.4359
-20.5396
-19.7138
-20.2022
-19.8737
-19.4323
-19.6732
-19.4937
-19.5587
-19.2222
-18.9922
-18.7437
-18.7481
-19.0193
-18.3326
-18.4284
-19.1131
-17.8337
-17.7538
-15.7266
-17.5145
-19.2485
-15.741
-24.7268
-39.8116
-37.0738
-34.2709
-32.5273
-31.4618
-30.8084
-30.4284
-30.2528
-36.0746
-31.7087
-33.7558
-29.2372
-25.1504
-27.9219
-26.2339
-23.8195
-25.9497
-25.1064
-27.0909
-25.0933
-24.0509
-26.313
-23.883
-21.5741
-23.659
-22.7813
-21.336
-22.8409
-22.3721
-23.7318
-22.4481
-21.7907
-23.2582
-21.7088
-20.3171
-21.5506
-21.1387
-22.2048
-21.1594
-20.6209
-21.7168
-20.5
-19.4079
-20.2855
-19.8413
-19.2427
-19.6819
-19.409
-19.5821
-19.1433
-18.9048
-18.5932
-18.6122
-19.0905
-18.0674
-18.2138
-19.3463
-17.4652
-17.7363
-14.5881
-17.0793
-19.5069
-12.7486
-23.6961
-44.0417
-38.304
-34.6765
-32.7002
-31.5528
-30.865
-30.4693
-30.2874
-37.3573
-31.0741
-35.1424
-29.2174
-23.8479
-28.5807
-26.2834
-22.9032
-26.3124
-24.7019
-27.839
-24.9572
-23.5183
-27.1822
-23.8422
-20.7027
-24.0756
-22.8152
-20.7309
-23.0751
-22.1051
-24.2215
-22.3515
-21.4369
-23.8024
-21.6554
-19.7672
-21.7326
-20.9136
-22.5879
-21.075
-20.3412
-22.1273
-20.4546
-18.9946
-20.4463
-19.8199
-18.9979
-19.7339
-19.3007
-19.6419
-19.0555
-18.8257
-18.4289
-18.4541
-19.2506
-17.742
-17.9482
-19.7542
-16.9812
-17.9287
-13.1533
-16.6672
-20.3158
-8.79959
-22.1344
-49.6874
-39.3536
-34.9629
-32.8143
-31.6113
-30.9009
-30.4952
-30.3092
-38.9366
-29.8873
-37.0288
-29.1673
-22.0356
-29.6047
-26.3914
-21.646
-26.9401
-24.0494
-28.8918
-24.7461
-22.7229
-28.4062
-23.7919
-19.504
-24.7336
-22.8937
-19.9038
-23.4845
-21.677
-24.9133
-22.2054
-20.9147
-24.5761
-21.5898
-19.025
-22.0624
-20.5587
-23.1329
-20.9505
-19.9323
-22.7138
-20.3992
-18.436
-20.7164
-19.8103
-18.6763
-19.849
-19.1538
-19.7511
-18.9517
-18.7593
-18.2481
-18.2597
-19.5329
-17.3346
-17.6046
-20.4009
-16.3103
-18.433
-11.3161
-16.266
-21.9384
-3.62742
-19.8437
-57.2127
-40.0272
-35.1107
-32.8701
-31.6394
-30.9181
-30.5074
-30.3196
)
;

boundaryField
{
    left
    {
        type            calculated;
        value           nonuniform List<scalar> 
32
(
-26.4237
-26.446
-26.4887
-26.5499
-26.6283
-26.7229
-26.8331
-26.9584
-27.0986
-27.2539
-27.4246
-27.6111
-27.8141
-28.0343
-28.273
-28.5312
-28.8104
-29.1122
-29.4384
-29.7913
-30.1732
-30.5874
-31.038
-31.5302
-32.0715
-32.6723
-33.3475
-34.1181
-35.0134
-36.0746
-37.3573
-38.9366
)
;
    }
    right
    {
        type            calculated;
        value           nonuniform List<scalar> 
32
(
-25.7943
-25.829
-25.895
-25.9889
-26.1079
-26.2493
-26.4108
-26.5901
-26.7848
-26.9928
-27.2114
-27.4382
-27.6705
-27.9056
-28.1407
-28.3729
-28.5997
-28.8183
-29.0266
-29.2222
-29.4035
-29.5692
-29.7181
-29.8497
-29.9638
-30.0605
-30.1404
-30.2042
-30.2528
-30.2874
-30.3092
-30.3196
)
;
    }
    interface
    {
        type            calculated;
        value           nonuniform List<scalar> 
64
(
-39.8111
-29.1316
-38.1172
-29.1341
-20.9837
-30.2235
-26.4619
-20.9193
-27.3335
-23.6486
-29.5063
-24.6191
-22.2488
-29.1202
-23.7639
-18.8108
-25.133
-22.9455
-19.4261
-23.7416
-21.4143
-25.3175
-22.1181
-20.6046
-25.0288
-21.5533
-18.5988
-22.2715
-20.342
-23.4521
-20.8765
-19.6904
-23.0576
-20.3684
-18.1151
-20.8834
-19.8086
-18.4934
-19.9253
-19.0685
-19.8199
-18.8947
-18.7299
-18.1532
-18.1514
-19.7094
-17.1074
-17.4095
-20.7933
-15.9175
-18.778
-10.2819
-16.0656
-22.9906
-0.698813
-18.488
-61.5105
-40.241
-35.1481
-32.8837
-31.6462
-30.9222
-30.5104
-30.3221
)
;
    }
    bottom
    {
        type            calculated;
        value           nonuniform List<scalar> 
64
(
-26.4179
-26.3904
-26.3364
-26.2572
-26.1549
-26.0321
-25.8914
-25.7357
-25.5677
-25.39
-25.2049
-25.0147
-24.8212
-24.6262
-24.4312
-24.2373
-24.0459
-23.8578
-23.6737
-23.4943
-23.32
-23.1511
-22.988
-22.8308
-22.6798
-22.5353
-22.3974
-22.2667
-22.1434
-22.0281
-21.9212
-21.8235
-21.7356
-21.6585
-21.593
-21.5401
-21.5011
-21.477
-21.469
-21.4784
-21.5065
-21.5545
-21.6236
-21.7149
-21.8295
-21.968
-22.1308
-22.3178
-22.5283
-22.7608
-23.0131
-23.2818
-23.5628
-23.8506
-24.1394
-24.4226
-24.6936
-24.9458
-25.1732
-25.3704
-25.5332
-25.6581
-25.7426
-25.7853
)
;
    }
    defaultFaces
    {
        type            empty;
    }
}


// ************************************************************************* //
