/*--------------------------------*- C++ -*----------------------------------*\
| =========                 |                                                 |
| \\      /  F ield         | OpenFOAM: The Open Source CFD Toolbox           |
|  \\    /   O peration     | Version:  5.x                                   |
|   \\  /    A nd           | Web:      www.OpenFOAM.org                      |
|    \\/     M anipulation  |                                                 |
\*---------------------------------------------------------------------------*/
FoamFile
{
    version     2.0;
    format      ascii;
    class       volScalarField;
    location    "9";
    object      gradTx;
}
// * * * * * * * * * * * * * * * * * * * * * * * * * * * * * * * * * * * * * //

dimensions      [0 -1 0 1 0 0 0];

internalField   nonuniform List<scalar> 
2048
(
0.00630496
0.0187343
0.0306385
0.0417199
0.0517494
0.0605778
0.0681346
0.0744178
0.0794768
0.0833947
0.0862712
0.0882107
0.089315
0.0896811
0.0894014
0.088565
0.0872588
0.0855663
0.0835653
0.0813243
0.078899
0.0763302
0.0736426
0.0708465
0.0679396
0.0649098
0.0617376
0.0583973
0.0548581
0.0510842
0.0470351
0.0426672
0.0379354
0.032795
0.0272042
0.0211254
0.0145264
0.00738096
-0.000330398
-0.00861935
-0.0174874
-0.0269223
-0.0368925
-0.0473408
-0.0581756
-0.069262
-0.080413
-0.0913815
-0.101856
-0.111464
-0.119782
-0.12636
-0.130754
-0.13257
-0.131512
-0.127416
-0.120277
-0.110248
-0.0976155
-0.082765
-0.0661296
-0.0481502
-0.0292468
-0.00980737
0.0187885
0.0558178
0.0912562
0.124205
0.153978
0.180136
0.202478
0.221011
0.235899
0.247398
0.255816
0.261465
0.264649
0.265655
0.264754
0.26221
0.25828
0.253212
0.24724
0.240568
0.233365
0.22575
0.217797
0.209533
0.200949
0.192009
0.182652
0.172803
0.16237
0.151246
0.139312
0.126437
0.112485
0.0973234
0.0808266
0.0628827
0.0433959
0.0222883
-0.000498872
-0.025002
-0.0512285
-0.0791465
-0.108669
-0.139632
-0.171774
-0.204703
-0.237873
-0.270556
-0.301831
-0.330585
-0.355548
-0.37536
-0.388674
-0.39429
-0.391297
-0.379193
-0.357962
-0.328074
-0.290412
-0.246152
-0.196608
-0.143109
-0.0869049
-0.0291381
0.0311401
0.0924829
0.151106
0.205485
0.254472
0.297351
0.333826
0.363951
0.388041
0.406561
0.420039
0.429006
0.433963
0.435375
0.433682
0.429309
0.422681
0.414209
0.404284
0.393251
0.381387
0.368892
0.355882
0.342395
0.328412
0.313863
0.29865
0.282646
0.265701
0.247641
0.228265
0.207357
0.18469
0.16004
0.133199
0.103981
0.0722292
0.0378144
0.000638192
-0.0393642
-0.0822143
-0.127873
-0.176215
-0.226996
-0.279809
-0.334039
-0.388815
-0.44296
-0.494966
-0.54299
-0.584899
-0.618385
-0.641137
-0.651076
-0.646611
-0.626862
-0.591801
-0.542253
-0.479769
-0.406389
-0.324373
-0.235961
-0.143223
-0.0480089
0.0435997
0.129426
0.211273
0.286938
0.354794
0.41387
0.46382
0.504815
0.537383
0.562249
0.580199
0.591993
0.598324
0.599821
0.597073
0.590661
0.581166
0.56917
0.555227
0.539829
0.523371
0.50613
0.488256
0.469791
0.450691
0.430849
0.410123
0.388337
0.365286
0.340729
0.314389
0.285956
0.255109
0.22153
0.184925
0.145036
0.101644
0.054572
0.0036808
-0.0511283
-0.109902
-0.172612
-0.239121
-0.309133
-0.382138
-0.457342
-0.533591
-0.609304
-0.68241
-0.750334
-0.810046
-0.858206
-0.891421
-0.906595
-0.90133
-0.874292
-0.825433
-0.756013
-0.66838
-0.565592
-0.450973
-0.327744
-0.198792
-0.0666103
0.0563831
0.167268
0.27272
0.369769
0.456283
0.531064
0.593793
0.644848
0.685064
0.715502
0.737249
0.751308
0.758554
0.759758
0.755637
0.746905
0.734303
0.718586
0.700489
0.680667
0.659641
0.637765
0.615215
0.592018
0.56809
0.543278
0.51739
0.490205
0.461469
0.430876
0.398069
0.362645
0.324176
0.282245
0.236467
0.18651
0.1321
0.0730131
0.00906901
-0.0598698
-0.133888
-0.212991
-0.297059
-0.385785
-0.478602
-0.57459
-0.672375
-0.770022
-0.864933
-0.953804
-1.03265
-1.09699
-1.14217
-1.16387
-1.15868
-1.1247
-1.06185
-0.971943
-0.858329
-0.725315
-0.577482
-0.419133
-0.253974
-0.0850556
0.069695
0.206598
0.33634
0.455071
0.560118
0.650104
0.724835
0.785024
0.831942
0.867078
0.891877
0.907594
0.91527
0.915779
0.909931
0.898554
0.882542
0.862842
0.840394
0.816041
0.790444
0.764032
0.736995
0.709322
0.680867
0.651413
0.620716
0.588517
0.554518
0.518361
0.479605
0.437741
0.392226
0.34253
0.288172
0.228748
0.163931
0.0934575
0.0171112
-0.0652902
-0.153884
-0.248733
-0.349768
-0.456718
-0.569012
-0.68567
-0.80517
-0.925292
-1.04297
-1.15417
-1.25391
-1.33642
-1.39553
-1.42543
-1.42143
-1.38086
-1.30358
-1.19214
-1.05119
-0.886623
-0.70454
-0.510465
-0.308916
-0.103385
0.0837396
0.247996
0.403001
0.543878
0.667377
0.772006
0.857836
0.926088
0.978628
1.01749
1.04454
1.0613
1.06892
1.06834
1.0604
1.04602
1.02625
1.00224
0.975189
0.946151
0.915956
0.885107
0.853785
0.821909
0.789239
0.755475
0.720318
0.68348
0.644641
0.603395
0.559218
0.511484
0.459513
0.402646
0.340297
0.271991
0.197361
0.116115
0.0280049
-0.0671975
-0.169697
-0.279639
-0.397044
-0.521722
-0.653159
-0.790389
-0.931828
-1.07506
-1.21664
-1.35184
-1.47462
-1.57774
-1.65327
-1.69349
-1.69204
-1.64521
-1.55281
-1.41831
-1.24811
-1.05014
-0.832384
-0.601754
-0.363562
-0.121567
0.0987286
0.292057
0.473579
0.637207
0.779072
0.897668
0.993521
1.06858
1.12551
1.16704
1.19551
1.2127
1.21982
1.21778
1.20741
1.18965
1.16571
1.13702
1.10505
1.07113
1.03629
1.00112
0.965735
0.929956
0.893401
0.85566
0.816378
0.775259
0.731987
0.686128
0.637071
0.584051
0.526227
0.462784
0.393023
0.316404
0.232531
0.141103
0.0418531
-0.0654914
-0.181217
-0.305582
-0.438735
-0.580613
-0.730823
-0.888493
-1.05208
-1.21909
-1.3858
-1.54687
-1.69518
-1.82185
-1.91682
-1.96997
-1.97276
-1.92006
-1.81151
-1.65186
-1.44985
-1.21607
-0.960864
-0.692709
-0.417659
-0.139504
0.114888
0.339413
0.548985
0.736078
0.896174
1.02789
1.13247
1.21286
1.27278
1.31582
1.34488
1.36192
1.36817
1.36438
1.35124
1.32972
1.30119
1.26736
1.23008
1.19105
1.15152
1.11214
1.07297
1.03362
0.993533
0.952145
0.909049
0.863975
0.816658
0.766658
0.713274
0.655571
0.592508
0.523087
0.446478
0.362083
0.269504
0.168457
0.058677
-0.0601523
-0.188412
-0.326503
-0.474742
-0.633244
-0.801791
-0.97969
-1.16555
-1.35696
-1.55005
-1.73902
-1.91566
-2.0693
-2.18733
-2.25663
-2.26575
-2.20757
-2.08149
-1.89394
-1.65681
-1.38423
-1.08945
-0.782736
-0.470763
-0.157036
0.132463
0.390745
0.630184
0.841543
1.01963
1.1634
1.27512
1.35911
1.42044
1.46375
1.49256
1.50899
1.51409
1.50834
1.49218
1.46651
1.43287
1.39338
1.35036
1.30593
1.26165
1.21822
1.17557
1.13305
1.08981
1.0451
0.998467
0.94972
0.898711
0.845035
0.78789
0.726131
0.658464
0.583661
0.500745
0.409075
0.308286
0.198149
0.0784257
-0.0512316
-0.191316
-0.342404
-0.505024
-0.679509
-0.865874
-1.06368
-1.27181
-1.48811
-1.70879
-1.92774
-2.1358
-2.32033
-2.46573
-2.55509
-2.57314
-2.50998
-2.36451
-2.14548
-1.86905
-1.55402
-1.21724
-0.870952
-0.522256
-0.17394
0.151726
0.446799
0.718217
0.954701
1.15038
1.30483
1.42178
1.50735
1.5683
1.61058
1.63836
1.65381
1.65765
1.64986
1.63048
1.60026
1.56097
1.5152
1.46589
1.41573
1.36663
1.31938
1.27365
1.2284
1.18242
1.1347
1.08476
1.03255
0.978161
0.921268
0.860951
0.795792
0.724175
0.644587
0.555878
0.457386
0.348831
0.230088
0.100986
-0.0388436
-0.190023
-0.353345
-0.529592
-0.719356
-0.922922
-1.14018
-1.37041
-1.6119
-1.86122
-2.11225
-2.35502
-2.57486
-2.75267
-2.86687
-2.89711
-2.82961
-2.66237
-2.40725
-2.08629
-1.72442
-1.34295
-0.956202
-0.571356
-0.189943
0.172981
0.508402
0.814215
1.07671
1.28936
1.45275
1.57264
1.65743
1.71601
1.75589
1.78194
1.79623
1.79886
1.7891
1.76639
1.73122
1.68564
1.63289
1.57666
1.52037
1.46641
1.4156
1.36727
1.31983
1.27156
1.22114
1.16803
1.1125
1.05498
0.995326
0.932454
0.864591
0.789709
0.705933
0.611908
0.506989
0.391049
0.264134
0.126188
-0.0231581
-0.184679
-0.359434
-0.548514
-0.752793
-0.972845
-1.20894
-1.46089
-1.72763
-2.00641
-2.29148
-2.5724
-2.83246
-3.04859
-3.19341
-3.23998
-3.16898
-2.97692
-2.67983
-2.30786
-1.89401
-1.46494
-1.03708
-0.617148
-0.204731
0.196566
0.576466
0.919411
1.20879
1.43749
1.60766
1.72776
1.80905
1.86304
1.89913
1.92289
1.93603
1.93772
1.92626
1.90021
1.85968
1.80709
1.74651
1.6826
1.61971
1.56084
1.50685
1.45651
1.40752
1.35748
1.30463
1.24842
1.18957
1.12911
1.06714
1.00237
0.932552
0.85513
0.767768
0.668858
0.557832
0.434816
0.300104
0.153815
-0.00439277
-0.175474
-0.360827
-0.561907
-0.779888
-1.01562
-1.26978
-1.54284
-1.83458
-2.1433
-2.46416
-2.78672
-3.09239
-3.35361
-3.53604
-3.6042
-3.53096
-3.31019
-2.96365
-2.53268
-2.06089
-1.58123
-1.11197
-0.658613
-0.21796
0.222861
0.652004
1.03515
1.35226
1.59569
1.76996
1.88706
1.96175
2.0087
2.03958
2.06067
2.07294
2.07423
2.06154
2.03227
1.98593
1.92548
1.85611
1.78363
1.71357
1.64977
1.59307
1.54148
1.49166
1.44042
1.38542
1.32604
1.26372
1.20042
1.1366
1.07067
0.999691
0.9205
0.830165
0.726746
0.609842
0.479977
0.337775
0.183606
0.0171934
-0.162635
-0.357711
-0.569933
-0.800778
-1.05132
-1.32263
-1.61591
-1.93206
-2.27077
-2.6288
-2.99644
-3.35352
-3.66757
-3.89601
-3.99249
-3.91883
-3.66445
-3.25894
-2.75922
-2.22269
-1.68949
-1.17909
-0.694672
-0.229271
0.252293
0.736131
1.16291
1.50851
1.76486
1.93994
2.05037
2.11495
2.15215
2.17642
2.19471
2.20671
2.20838
2.19519
2.16296
2.11031
2.04099
1.96171
1.8796
1.8017
1.73296
1.67419
1.62227
1.5725
1.52072
1.46381
1.40102
1.33489
1.26874
1.20358
1.13728
1.06602
0.985895
0.893218
0.78559
0.662931
0.526356
0.376895
0.21526
0.0413059
-0.146413
-0.350296
-0.572792
-0.815659
-1.08009
-1.36747
-1.67988
-2.01944
-2.38766
-2.78375
-3.19973
-3.61436
-3.98994
-4.27437
-4.4078
-4.33646
-4.0423
-3.56568
-2.98537
-2.37655
-1.78713
-1.23655
-0.724237
-0.238316
0.285344
0.830071
1.30428
1.67903
1.94585
2.11777
2.21739
2.26792
2.29239
2.30869
2.32437
2.33707
2.34018
2.32751
2.29277
2.23318
2.15381
2.06336
1.97039
1.88382
1.81017
1.75015
1.69902
1.65027
1.59871
1.54016
1.47351
1.40294
1.33384
1.2679
1.20215
1.13154
1.0514
0.957051
0.845416
0.71699
0.573753
0.417185
0.248444
0.0676198
-0.127078
-0.338803
-0.570708
-0.82479
-1.10217
-1.40444
-1.73462
-2.09622
-2.49285
-2.92723
-3.39444
-3.87303
-4.31976
-4.67188
-4.85336
-4.78852
-4.44678
-3.88352
-3.20837
-2.51909
-1.87131
-1.28245
-0.746267
-0.244768
0.322564
0.935151
1.46098
1.86542
2.13945
2.30345
2.38771
2.41984
2.42825
2.43531
2.449
2.4638
2.46963
2.4588
2.42228
2.35496
2.26409
2.16111
2.05581
1.95955
1.88104
1.82086
1.7719
1.72524
1.6748
1.61493
1.54368
1.4677
1.39542
1.32937
1.26523
1.19627
1.11711
1.02183
0.906258
0.771889
0.621962
0.458345
0.282792
0.0957838
-0.104905
-0.323447
-0.563918
-0.828484
-1.11789
-1.43376
-1.78017
-2.16207
-2.58528
-3.05733
-3.57817
-4.12727
-4.65562
-5.08891
-5.33271
-5.28068
-4.88147
-4.21166
-3.42468
-2.64643
-1.93906
-1.31496
-0.759834
-0.248351
0.36459
1.05279
1.63483
2.06945
2.34635
2.49678
2.56089
2.5698
2.55845
2.55508
2.56796
2.58676
2.59671
2.58943
2.5522
2.47607
2.37194
2.25504
2.13571
2.02845
1.94519
1.88626
1.84114
1.79769
1.74943
1.68868
1.61172
1.52889
1.45306
1.38777
1.32651
1.26018
1.18314
1.08779
0.968158
0.827465
0.670771
0.500066
0.317903
0.125422
-0.0801697
-0.304427
-0.55266
-0.827103
-1.1277
-1.45576
-1.81672
-2.21686
-2.66401
-3.1721
-3.74827
-4.3745
-4.99559
-5.52517
-5.84958
-5.81998
-5.35066
-4.54862
-3.6298
-2.75419
-1.98739
-1.3324
-0.764177
-0.248855
0.412187
1.18448
1.82774
2.29308
2.56706
2.69727
2.73648
2.71687
2.6815
2.66668
2.68065
2.70595
2.72135
2.71977
2.68348
2.59695
2.47738
2.34531
2.20994
2.09001
2.00214
1.94631
1.90705
1.86783
1.82306
1.76213
1.67785
1.58614
1.50628
1.44288
1.38602
1.32323
1.24959
1.15526
1.03116
0.883505
0.71998
0.542036
0.353345
0.156136
-0.0531404
-0.281902
-0.537154
-0.821052
-1.13212
-1.47084
-1.84458
-2.26076
-2.72828
-3.26954
-3.90189
-4.61184
-5.33724
-5.97946
-6.40787
-6.4152
-5.85949
-4.89195
-3.81813
-2.83755
-2.01338
-1.33339
-0.758765
-0.246153
0.466315
1.33175
2.04163
2.53856
2.80189
2.90403
2.91411
2.86011
2.79577
2.76864
2.78653
2.82156
2.84334
2.85014
2.81733
2.71801
2.58027
2.43217
2.27836
2.14356
2.05129
2.00098
1.97006
1.93583
1.89613
1.83622
1.74232
1.63893
1.55446
1.4945
1.44391
1.38533
1.31656
1.2247
1.0953
0.939719
0.769423
0.583948
0.388646
0.187503
-0.0240704
-0.255981
-0.517589
-0.810773
-1.13176
-1.47947
-1.86421
-2.29426
-2.77754
-3.34765
-4.03595
-4.83626
-5.6777
-6.44923
-7.01137
-7.07748
-6.41417
-5.23784
-3.98281
-2.89141
-2.01439
-1.31692
-0.743335
-0.240212
0.528236
1.49609
2.27836
2.80864
3.05082
3.11568
3.09366
2.99866
2.89942
2.85933
2.88519
2.93411
2.96226
2.98081
2.95537
2.83958
2.68022
2.5161
2.34092
2.18835
2.09196
2.05033
2.03082
2.00168
1.96907
1.91222
1.8054
1.68656
1.59681
1.54245
1.50048
1.44624
1.3841
1.29678
1.1606
0.995701
0.819
0.625515
0.423288
0.219077
0.0068045
-0.226702
-0.494104
-0.796738
-1.12739
-1.48212
-1.87613
-2.31823
-2.81152
-3.40448
-4.14722
-5.04463
-6.01384
-6.93011
-7.66347
-7.8211
-7.02216
-5.58051
-4.11555
-2.91049
-1.98822
-1.28244
-0.717926
-0.231099
0.599702
1.67891
2.53958
3.10674
3.31338
3.33008
3.27545
3.13173
2.99035
2.93693
2.97635
3.04462
3.07731
3.11184
3.09987
2.96186
2.77647
2.59788
2.39761
2.22341
2.12326
2.09446
2.09026
2.06512
2.04217
1.99181
1.86738
1.72807
1.63242
1.58659
1.55627
1.50558
1.45216
1.37247
1.22702
1.05087
0.868731
0.666473
0.456689
0.250385
0.0392663
-0.194015
-0.466775
-0.779443
-1.11987
-1.47922
-1.88087
-2.33408
-2.83023
-3.4381
-4.23224
-5.23396
-6.34261
-7.41526
-8.36667
-8.66447
-7.69243
-5.91142
-4.20654
-2.88964
-1.93325
-1.22993
-0.682886
-0.218979
0.683239
1.88137
2.82648
3.4374
3.58847
3.54412
3.46056
3.25868
3.06619
2.99939
3.05987
3.15479
3.18709
3.24301
3.25399
3.08479
2.86764
2.67883
2.44853
2.24757
2.14418
2.13355
2.14974
2.12551
2.11553
2.07729
1.92854
1.76226
1.66017
1.62684
1.61219
1.56268
1.52057
1.45316
1.29442
1.10438
0.918832
0.706592
0.48819
0.280934
0.073112
-0.157766
-0.435593
-0.759394
-1.11029
-1.4711
-1.87889
-2.34381
-2.83399
-3.44671
-4.28729
-5.4015
-6.66154
-7.89452
-9.12175
-9.63151
-8.43568
-6.21822
-4.2445
-2.82411
-1.84869
-1.15996
-0.638867
-0.204109
0.782587
2.10423
3.13948
3.80676
3.87412
3.75334
3.65125
3.379
3.12417
3.04441
3.13576
3.26738
3.28934
3.37365
3.42221
3.20788
2.95155
2.76104
2.49384
2.25939
2.15346
2.16782
2.21129
2.18162
2.18896
2.17181
1.98905
1.78753
1.67876
1.66316
1.66969
1.61642
1.58891
1.54089
1.36248
1.15503
0.969829
0.745669
0.517024
0.310214
0.108145
-0.117672
-0.400458
-0.737088
-1.09999
-1.45791
-1.8704
-2.35019
-2.82342
-3.42859
-4.30829
-5.54484
-6.96966
-8.35349
-9.92676
-10.7535
-9.26455
-6.48343
-4.21683
-2.71
-1.73467
-1.07366
-0.586792
-0.186821
0.90334
2.34762
3.47769
4.22339
4.16718
3.95143
3.85159
3.49221
3.16111
3.06937
3.20407
3.38664
3.38052
3.50236
3.61086
3.33003
3.02484
2.84776
2.53369
2.2571
2.14961
2.19751
2.27788
2.23135
2.26177
2.27972
2.0489
1.80189
1.68669
1.69555
1.73099
1.66508
1.65642
1.63856
1.43065
1.20111
1.02271
0.783512
0.542289
0.337712
0.144158
-0.0733072
-0.361166
-0.71298
-1.09066
-1.43952
-1.85516
-2.35698
-2.79936
-3.38223
-4.29064
-5.66201
-7.26864
-8.77235
-10.7755
-12.0712
-10.1938
-6.68263
-4.11003
-2.54469
-1.59242
-0.972729
-0.527806
-0.167505
1.05385
2.61075
3.83828
4.69934
4.46284
4.12965
4.06826
3.59774
3.17329
3.07135
3.26476
3.51892
3.45534
3.62673
3.82891
3.4492
3.08254
2.94393
2.56818
2.23857
2.1309
2.22276
2.35382
2.27147
2.33259
2.40696
2.10771
1.80288
1.68228
1.72395
1.79941
1.70608
1.72187
1.75034
1.49792
1.24022
1.07917
0.819896
0.562906
0.362941
0.180911
-0.024075
-0.317407
-0.687424
-1.08453
-1.41548
-1.83225
-2.36922
-2.76278
-3.30643
-4.22901
-5.75131
-7.56449
-9.1246
-11.6555
-13.6381
-11.2404
-6.78238
-3.91051
-2.32733
-1.42422
-0.859313
-0.463218
-0.146587
1.24647
2.89149
4.21549
5.25151
4.75413
4.27604
4.31163
3.69458
3.15642
3.04712
3.31743
3.67351
3.50612
3.74293
4.08887
3.562
3.11757
3.05687
2.59709
2.20122
2.09537
2.24344
2.4453
2.29715
2.39915
2.56169
2.16445
1.78756
1.66371
1.74811
1.87976
1.73563
1.78332
1.88206
1.56271
1.26909
1.14183
0.854486
0.577578
0.385482
0.218087
0.0308167
-0.268781
-0.660591
-1.08451
-1.3849
-1.79972
-2.39361
-2.71451
-3.20044
-4.11704
-5.81099
-7.86977
-9.37562
-12.5456
-15.5237
-12.4233
-6.73754
-3.60579
-2.05934
-1.23348
-0.735931
-0.394429
-0.124511
1.49923
3.18591
4.59949
5.90351
5.03111
4.3745
4.59713
3.78081
3.10561
2.99327
3.36085
3.86367
3.522
3.84523
4.40803
3.66321
3.12004
3.19714
2.61956
2.14206
2.04086
2.25885
2.56107
2.30147
2.4579
2.75491
2.21707
1.75245
1.62913
1.76738
1.97888
1.74837
1.83795
2.04182
1.6226
1.28323
1.2147
0.886719
0.584751
0.40504
0.255247
0.0923907
-0.214826
-0.632333
-1.09449
-1.34641
-1.75413
-2.43899
-2.65502
-3.06427
-3.94712
-5.83856
-8.20641
-9.48111
-13.4122
-17.8183
-13.7635
-6.48817
-3.18622
-1.74482
-1.02454
-0.60533
-0.32286
-0.101709
1.83791
3.48764
4.9748
6.6879
5.28003
4.40365
4.94695
3.85284
3.01541
2.90628
3.39238
4.10794
3.48802
3.92535
4.80992
3.74508
3.07655
3.37968
2.63366
2.05766
1.96514
2.26736
2.71332
2.27485
2.50369
3.0014
2.26198
1.69365
1.57672
1.78039
2.10634
1.73689
1.88173
2.24065
1.67396
1.27673
1.30356
0.91562
0.582571
0.42153
0.291749
0.161946
-0.155075
-0.60201
-1.11957
-1.29808
-1.69005
-2.51706
-2.58385
-2.89903
-3.71006
-5.8297
-8.60915
-9.38561
-14.2058
-20.6381
-15.2833
-5.95594
-2.64744
-1.39075
-0.802483
-0.47033
-0.249886
-0.0785936
2.29876
3.78717
5.31842
7.64898
5.48213
4.33555
5.39217
3.90436
2.87992
2.78287
3.40701
4.43182
3.38406
3.97172
5.32602
3.79658
2.96927
3.62517
2.63564
1.94427
1.86604
2.26577
2.9187
2.20429
2.52929
3.32076
2.29335
1.60691
1.50494
1.78456
2.27524
1.69113
1.90912
2.49337
1.71161
1.24184
1.41657
0.939546
0.568857
0.435184
0.326658
0.241116
-0.0891555
-0.568236
-1.16648
-1.23744
-1.59936
-2.64311
-2.49899
-2.7075
-3.3949
-5.77662
-9.12969
-9.0209
-14.8556
-24.1315
-17.0051
-5.04008
-1.99351
-1.00696
-0.572819
-0.333681
-0.176779
-0.0555345
2.93167
4.07095
5.5976
8.84608
5.61232
4.13421
5.97523
3.92498
2.69303
2.62026
3.39624
4.86966
3.18354
3.96867
5.99783
3.80242
2.77499
3.96166
2.61909
1.79792
1.74173
2.2486
3.19964
2.07256
2.52494
3.73859
2.30225
1.48782
1.41272
1.7755
2.50321
1.59781
1.91267
2.81947
1.72834
1.16863
1.56494
0.955856
0.541093
0.446685
0.358619
0.331951
-0.0169214
-0.528572
-1.24393
-1.16146
-1.47049
-2.83708
-2.39604
-2.49474
-2.98878
-5.66581
-9.84148
-8.30469
-15.2644
-28.4861
-18.9507
-3.61291
-1.24082
-0.60581
-0.341145
-0.197925
-0.104664
-0.0328545
3.80397
4.32041
5.76722
10.3573
5.63756
3.75404
6.75277
3.89843
2.44876
2.41678
3.3465
5.46699
2.85208
3.89543
6.87908
3.74195
2.46402
4.42641
2.57378
1.61472
1.59102
2.20708
3.5858
1.85733
2.47773
4.28794
2.27557
1.33212
1.29978
1.74622
2.81354
1.4396
1.88261
3.24428
1.7143
1.04458
1.76365
0.960474
0.496438
0.457323
0.38571
0.437025
0.0613505
-0.479126
-1.36309
-1.06666
-1.28746
-3.12477
-2.26709
-2.26893
-2.477
-5.47513
-10.8451
-7.13947
-15.3012
-33.9369
-21.1393
-1.51516
-0.422852
-0.201266
-0.112736
-0.0652803
-0.03449
-0.0108222
)
;

boundaryField
{
    left
    {
        type            calculated;
        value           uniform 0;
    }
    right
    {
        type            calculated;
        value           uniform 0;
    }
    interface
    {
        type            calculated;
        value           nonuniform List<scalar> 
64
(
3.80397
4.32041
5.76722
10.3573
5.63756
3.75404
6.75277
3.89843
2.44876
2.41678
3.3465
5.46699
2.85208
3.89543
6.87908
3.74195
2.46402
4.42641
2.57378
1.61472
1.59102
2.20708
3.5858
1.85733
2.47773
4.28794
2.27557
1.33212
1.29978
1.74622
2.81354
1.4396
1.88261
3.24428
1.7143
1.04458
1.76365
0.960474
0.496438
0.457323
0.38571
0.437025
0.0613505
-0.479126
-1.36309
-1.06666
-1.28746
-3.12477
-2.26709
-2.26893
-2.477
-5.47513
-10.8451
-7.13947
-15.3012
-33.9369
-21.1393
-1.51516
-0.422852
-0.201266
-0.112736
-0.0652803
-0.03449
-0.0108222
)
;
    }
    bottom
    {
        type            calculated;
        value           nonuniform List<scalar> 
64
(
0.00630496
0.0187343
0.0306385
0.0417199
0.0517494
0.0605778
0.0681346
0.0744178
0.0794768
0.0833947
0.0862712
0.0882107
0.089315
0.0896811
0.0894014
0.088565
0.0872588
0.0855663
0.0835653
0.0813243
0.078899
0.0763302
0.0736426
0.0708465
0.0679396
0.0649098
0.0617376
0.0583973
0.0548581
0.0510842
0.0470351
0.0426672
0.0379354
0.032795
0.0272042
0.0211254
0.0145264
0.00738096
-0.000330398
-0.00861935
-0.0174874
-0.0269223
-0.0368925
-0.0473408
-0.0581756
-0.069262
-0.080413
-0.0913815
-0.101856
-0.111464
-0.119782
-0.12636
-0.130754
-0.13257
-0.131512
-0.127416
-0.120277
-0.110248
-0.0976155
-0.082765
-0.0661296
-0.0481502
-0.0292468
-0.00980737
)
;
    }
    defaultFaces
    {
        type            empty;
    }
}


// ************************************************************************* //
