/*--------------------------------*- C++ -*----------------------------------*\
| =========                 |                                                 |
| \\      /  F ield         | OpenFOAM: The Open Source CFD Toolbox           |
|  \\    /   O peration     | Version:  5.x                                   |
|   \\  /    A nd           | Web:      www.OpenFOAM.org                      |
|    \\/     M anipulation  |                                                 |
\*---------------------------------------------------------------------------*/
FoamFile
{
    version     2.0;
    format      ascii;
    class       volScalarField;
    location    "9";
    object      T;
}
// * * * * * * * * * * * * * * * * * * * * * * * * * * * * * * * * * * * * * //

dimensions      [0 0 0 1 0 0 0];

internalField   nonuniform List<scalar> 
2048
(
9.81021
9.8104
9.81079
9.81136
9.8121
9.81298
9.81399
9.81511
9.81631
9.81759
9.81892
9.82029
9.82168
9.82308
9.82448
9.82587
9.82725
9.8286
9.82992
9.83121
9.83246
9.83368
9.83485
9.83598
9.83706
9.8381
9.83909
9.84003
9.84092
9.84174
9.84251
9.84321
9.84385
9.8444
9.84487
9.84525
9.84553
9.8457
9.84576
9.84569
9.84549
9.84515
9.84465
9.84399
9.84317
9.84218
9.84101
9.83966
9.83815
9.83648
9.83467
9.83274
9.83072
9.82865
9.82658
9.82454
9.82259
9.82078
9.81915
9.81773
9.81656
9.81567
9.81506
9.81475
9.43876
9.43935
9.4405
9.4422
9.44438
9.44701
9.45001
9.45334
9.45692
9.46071
9.46465
9.4687
9.47282
9.47697
9.48112
9.48525
9.48932
9.49332
9.49723
9.50104
9.50475
9.50834
9.5118
9.51514
9.51835
9.52142
9.52435
9.52713
9.52975
9.5322
9.53448
9.53656
9.53843
9.54007
9.54147
9.5426
9.54344
9.54396
9.54413
9.54394
9.54335
9.54234
9.54088
9.53894
9.53651
9.53357
9.53012
9.52614
9.52166
9.51671
9.51133
9.5056
9.4996
9.49345
9.48728
9.48122
9.47543
9.47004
9.46518
9.46096
9.45749
9.45482
9.45301
9.4521
9.08311
9.08408
9.086
9.08881
9.09242
9.09676
9.10171
9.10719
9.11309
9.11932
9.12579
9.13244
9.1392
9.146
9.1528
9.15956
9.16622
9.17277
9.17916
9.1854
9.19145
9.19732
9.20298
9.20844
9.21368
9.2187
9.22349
9.22803
9.23232
9.23634
9.24006
9.24347
9.24654
9.24924
9.25154
9.25341
9.25479
9.25566
9.25597
9.25568
9.25474
9.25311
9.25075
9.24761
9.24365
9.23886
9.23322
9.22671
9.21937
9.21124
9.2024
9.19297
9.18308
9.17293
9.16273
9.15272
9.14314
9.13423
9.1262
9.11924
9.1135
9.1091
9.10613
9.10463
8.74234
8.74371
8.74639
8.75031
8.75536
8.7614
8.76829
8.77589
8.78406
8.79268
8.80163
8.81081
8.82013
8.82951
8.83888
8.84817
8.85734
8.86633
8.87512
8.88368
8.89199
8.90004
8.90781
8.9153
8.92249
8.92938
8.93595
8.9422
8.94809
8.95361
8.95874
8.96344
8.96767
8.97141
8.9746
8.97719
8.97913
8.98036
8.98083
8.98048
8.97924
8.97704
8.97384
8.96957
8.96418
8.95763
8.94989
8.94096
8.93085
8.91963
8.9074
8.89432
8.88058
8.86646
8.85225
8.83829
8.82493
8.8125
8.8013
8.79161
8.78363
8.77752
8.77339
8.77131
8.41562
8.41738
8.42085
8.4259
8.4324
8.44016
8.449
8.45872
8.46915
8.48013
8.49151
8.50317
8.51499
8.52687
8.53873
8.55048
8.56207
8.57343
8.58452
8.59532
8.6058
8.61593
8.62573
8.63516
8.64423
8.65291
8.6612
8.66908
8.67652
8.6835
8.68999
8.69594
8.70132
8.70607
8.71014
8.71346
8.71597
8.71759
8.71825
8.71787
8.71638
8.71369
8.70972
8.70441
8.69767
8.68945
8.67971
8.66844
8.65565
8.64141
8.62584
8.60914
8.59156
8.57345
8.55519
8.53724
8.52004
8.50405
8.48967
8.47723
8.467
8.45919
8.45391
8.45125
8.10216
8.10434
8.10862
8.11485
8.12284
8.13236
8.14316
8.15501
8.16769
8.181
8.19478
8.20888
8.22315
8.23748
8.25176
8.26591
8.27984
8.29349
8.30681
8.31975
8.33231
8.34446
8.35619
8.36749
8.37835
8.38876
8.39871
8.40816
8.4171
8.42549
8.4333
8.44048
8.44698
8.45274
8.45768
8.46174
8.46483
8.46686
8.46775
8.4674
8.46571
8.46259
8.45794
8.45166
8.44366
8.43388
8.42224
8.40872
8.39332
8.37612
8.35725
8.33694
8.31549
8.29333
8.27095
8.24891
8.22779
8.20817
8.19054
8.17532
8.16283
8.1533
8.14688
8.14365
7.80126
7.80388
7.80901
7.81647
7.82601
7.83733
7.85014
7.86414
7.87908
7.89472
7.91087
7.92736
7.94404
7.96077
7.97742
7.9939
8.01011
8.02597
8.04143
8.05645
8.071
8.08507
8.09866
8.11175
8.12434
8.13642
8.14795
8.15893
8.16931
8.17907
8.18817
8.19655
8.20415
8.21091
8.21673
8.22154
8.22523
8.22771
8.22886
8.22858
8.22676
8.22328
8.21802
8.21087
8.20172
8.19046
8.17702
8.16134
8.14342
8.12332
8.10118
8.07724
8.05187
8.02558
7.99895
7.9727
7.94754
7.92417
7.90322
7.88517
7.8704
7.85916
7.8516
7.8478
7.51226
7.51534
7.52139
7.53014
7.5413
7.55449
7.56935
7.58554
7.60274
7.62071
7.63921
7.65807
7.67711
7.69619
7.71517
7.73392
7.75234
7.77035
7.78787
7.80488
7.82135
7.83727
7.85263
7.86744
7.88169
7.89536
7.90843
7.92088
7.93266
7.94375
7.9541
7.96366
7.97235
7.9801
7.98681
7.99238
7.9967
7.99965
8.00111
8.00096
7.99907
7.9953
7.98952
7.98159
7.97137
7.95875
7.94361
7.92587
7.90551
7.88256
7.85717
7.82959
7.80024
7.76969
7.73868
7.70804
7.67867
7.65143
7.62705
7.60612
7.58905
7.5761
7.5674
7.56304
7.23453
7.23812
7.24514
7.25527
7.26814
7.28328
7.30026
7.31867
7.33816
7.35844
7.37928
7.40047
7.42184
7.44323
7.46448
7.48545
7.50603
7.52612
7.54564
7.56456
7.58286
7.60054
7.61761
7.63407
7.64991
7.66512
7.67967
7.69353
7.70667
7.71905
7.73062
7.74134
7.75111
7.75985
7.76746
7.77381
7.77877
7.78223
7.78404
7.78406
7.78216
7.77817
7.77195
7.76334
7.75216
7.73828
7.72155
7.70186
7.67914
7.65342
7.6248
7.59355
7.56013
7.5252
7.48961
7.4544
7.42063
7.38935
7.36144
7.33757
7.31819
7.30353
7.29372
7.28882
6.96749
6.97163
6.9797
6.99133
7.006
7.02319
7.04236
7.06304
7.08483
7.10743
7.13057
7.15407
7.17773
7.20138
7.22486
7.24801
7.27069
7.29279
7.31424
7.33499
7.35505
7.37442
7.39312
7.41115
7.42852
7.44521
7.46118
7.47641
7.49086
7.5045
7.51727
7.52912
7.53996
7.54969
7.5582
7.56534
7.57098
7.57498
7.57718
7.57743
7.57557
7.57145
7.56487
7.55567
7.54364
7.52861
7.5104
7.48886
7.4639
7.43546
7.40365
7.36872
7.33114
7.29167
7.2513
7.21126
7.17286
7.13737
7.10581
7.07896
7.05725
7.04092
7.03003
7.0246
6.7106
6.71535
6.72457
6.73779
6.7544
6.77374
6.79518
6.81817
6.84228
6.86718
6.89261
6.91838
6.94429
6.97018
6.99585
7.02113
7.04586
7.06991
7.09321
7.11572
7.13745
7.15843
7.17868
7.19823
7.21707
7.23518
7.25253
7.26908
7.2848
7.29965
7.31359
7.32655
7.33846
7.34918
7.3586
7.36655
7.37289
7.37745
7.38008
7.38061
7.37887
7.37467
7.36783
7.35812
7.34535
7.32928
7.30972
7.28646
7.25934
7.22829
7.19334
7.1547
7.11287
7.06868
7.02328
6.97814
6.93486
6.89494
6.85963
6.82975
6.80574
6.78778
6.77586
6.76993
6.46335
6.46875
6.47924
6.4942
6.51288
6.53449
6.55828
6.58363
6.61008
6.63726
6.66495
6.69295
6.72108
6.74916
6.77699
6.80436
6.83109
6.85704
6.88212
6.90631
6.92963
6.95213
6.97387
6.99486
7.01511
7.0346
7.05327
7.0711
7.08804
7.10406
7.11914
7.1332
7.14616
7.15788
7.16822
7.177
7.18406
7.18922
7.19232
7.19317
7.19159
7.1874
7.18036
7.17026
7.15684
7.13985
7.11906
7.0942
7.06507
7.0315
6.99346
6.95111
6.90495
6.85585
6.80515
6.7546
6.70612
6.66157
6.62238
6.58945
6.56319
6.54367
6.53078
6.52438
6.22523
6.23137
6.24325
6.26011
6.28102
6.30503
6.33126
6.35902
6.38779
6.41724
6.44714
6.47733
6.50764
6.53788
6.56784
6.59727
6.62595
6.65374
6.68053
6.70632
6.73115
6.7551
6.77824
6.80061
6.82222
6.84303
6.86299
6.88205
6.90016
6.91733
6.93351
6.94865
6.96266
6.97538
6.98665
6.99628
7.00408
7.00987
7.01346
7.01467
7.01332
7.00919
7.00205
6.99163
6.97767
6.95989
6.93799
6.91168
6.88066
6.8447
6.80366
6.75762
6.70702
6.65282
6.59652
6.54018
6.48618
6.43674
6.39356
6.35759
6.32916
6.30818
6.29441
6.2876
5.99579
6.00276
6.01617
6.03511
6.05843
6.08497
6.11374
6.14394
6.17504
6.20671
6.23878
6.27111
6.30356
6.33593
6.36798
6.39944
6.43004
6.45961
6.48805
6.51535
6.54159
6.5669
6.59138
6.61507
6.63799
6.66009
6.68129
6.70153
6.72078
6.73904
6.7563
6.7725
6.78754
6.80126
6.81348
6.82397
6.83254
6.83897
6.84309
6.84471
6.84363
6.83963
6.83245
6.82182
6.80743
6.78896
6.7661
6.73847
6.70572
6.66751
6.62357
6.57387
6.51877
6.45926
6.39702
6.33449
6.27456
6.21998
6.17272
6.13375
6.10326
6.08095
6.06641
6.05925
5.77459
5.78247
5.79759
5.81881
5.84473
5.87397
5.90536
5.93804
5.97145
6.00529
6.03946
6.07388
6.10842
6.14289
6.17702
6.21048
6.24297
6.27426
6.30427
6.333
6.36057
6.38716
6.41289
6.43785
6.46203
6.48538
6.50778
6.52916
6.54949
6.56881
6.5871
6.60435
6.62042
6.63515
6.64833
6.6597
6.66905
6.67615
6.68083
6.68288
6.68212
6.6783
6.67117
6.6604
6.64568
6.62665
6.60295
6.57416
6.53984
6.49954
6.45285
6.39955
6.3399
6.27486
6.20632
6.13712
6.07081
6.0108
5.95938
5.91751
5.88512
5.86166
5.84647
5.83903
5.56119
5.57011
5.58713
5.61087
5.6396
5.67168
5.70578
5.74097
5.77665
5.81261
5.8488
5.88524
5.92183
5.95837
5.99457
6.03002
6.06436
6.09733
6.12884
6.1589
6.18771
6.21547
6.2424
6.26857
6.29397
6.31853
6.3421
6.36457
6.38594
6.40626
6.42556
6.44382
6.46092
6.47668
6.49083
6.5031
6.51324
6.52103
6.52627
6.52879
6.52839
6.52482
6.5178
6.50699
6.49202
6.47254
6.44814
6.41834
6.38263
6.34044
6.29115
6.23436
6.17012
6.09937
6.02412
5.9477
5.87448
5.80874
5.75312
5.70848
5.6744
5.65
5.63433
5.62668
5.3552
5.36528
5.38442
5.41094
5.44272
5.4778
5.5147
5.55241
5.59032
5.62829
5.66643
5.70483
5.74342
5.782
5.82026
5.8577
5.89385
5.92845
5.96138
5.99269
6.02262
6.05148
6.07952
6.10685
6.13344
6.15919
6.1839
6.20743
6.22977
6.25103
6.27131
6.29057
6.30869
6.32548
6.34063
6.3538
6.36475
6.37324
6.37907
6.38208
6.38206
6.3788
6.37196
6.36117
6.34607
6.32624
6.30126
6.27061
6.2337
6.18982
6.13816
6.078
6.00918
5.93251
5.85015
5.76587
5.68513
5.61332
5.55351
5.5063
5.47081
5.4457
5.42972
5.42196
5.15623
5.16762
5.18913
5.21871
5.2538
5.29203
5.33182
5.37206
5.41213
5.45201
5.49197
5.53226
5.57281
5.61341
5.65373
5.69316
5.73111
5.76729
5.80158
5.83403
5.86497
5.89481
5.92391
5.95235
5.98009
6.00702
6.03286
6.05739
6.08064
6.10279
6.12401
6.14425
6.16339
6.18122
6.19738
6.21148
6.22324
6.23244
6.23887
6.24237
6.24278
6.23987
6.23327
6.2226
6.20742
6.18735
6.16193
6.13058
6.09266
6.04733
5.99353
5.9302
5.85682
5.77409
5.68416
5.59129
5.50229
5.42408
5.36014
5.31065
5.27408
5.24854
5.23244
5.22466
4.96389
4.97677
5.00091
5.03389
5.07257
5.11411
5.15686
5.19962
5.24176
5.28342
5.32509
5.36719
5.40965
5.45223
5.49464
5.53609
5.5758
5.61351
5.64909
5.68257
5.7144
5.74514
5.77523
5.80473
5.83359
5.8617
5.88866
5.91414
5.93823
5.96121
5.98332
6.00452
6.02467
6.04357
6.06077
6.07579
6.08838
6.09829
6.10532
6.10934
6.1102
6.10768
6.10139
6.09089
6.07573
6.05551
6.02977
5.99787
5.95912
5.91261
5.85695
5.79067
5.71283
5.62389
5.52597
5.42364
5.32549
5.24053
5.17262
5.12121
5.08395
5.0583
5.04228
5.03459
4.77784
4.79241
4.81946
4.85621
4.89879
4.94377
4.98954
5.03484
5.07892
5.12221
5.16544
5.20928
5.25361
5.29814
5.34268
5.38618
5.42761
5.46681
5.50362
5.53801
5.57061
5.60212
5.63314
5.66368
5.69363
5.72293
5.75101
5.77738
5.80223
5.82596
5.84893
5.87108
5.89223
5.91222
5.9305
5.94645
5.95986
5.9705
5.97811
5.98264
5.98397
5.98189
5.97597
5.96571
5.95064
5.93035
5.9044
5.87209
5.83271
5.78529
5.72809
5.65917
5.57696
5.48174
5.37542
5.26263
5.15425
5.06219
4.99057
4.93773
4.90021
4.87478
4.85906
4.85155
4.59772
4.61423
4.64447
4.68543
4.73224
4.78076
4.82961
4.87744
4.92332
4.96805
5.01267
5.05821
5.10436
5.15078
5.19751
5.24314
5.28625
5.32689
5.36488
5.40005
5.43326
5.46542
5.49734
5.52888
5.55989
5.59042
5.61964
5.64684
5.67235
5.69674
5.72055
5.74363
5.76575
5.78688
5.80627
5.82315
5.83739
5.84874
5.85693
5.86197
5.86378
5.86218
5.8567
5.84674
5.8318
5.81151
5.78548
5.75288
5.71304
5.66502
5.60665
5.53542
5.449
5.34749
5.23244
5.10801
4.98803
4.88856
4.81364
4.75995
4.72268
4.69782
4.68261
4.67538
4.4232
4.44194
4.47566
4.5213
4.57275
4.62484
4.67681
4.7272
4.77468
4.82065
4.86646
4.91366
4.9616
5.00982
5.05885
5.1067
5.15141
5.19346
5.23259
5.26839
5.30207
5.33474
5.36752
5.40006
5.43206
5.46388
5.4943
5.52223
5.5483
5.57325
5.59789
5.62188
5.64494
5.66726
5.68782
5.7056
5.72066
5.73275
5.74149
5.74702
5.74932
5.74825
5.74325
5.73366
5.7189
5.69867
5.67267
5.63989
5.59973
5.55144
5.49229
5.41919
5.32873
5.22098
5.097
4.95952
4.82624
4.71913
4.6415
4.58768
4.5512
4.52727
4.51277
4.50593
4.25394
4.27529
4.31273
4.36361
4.42015
4.47575
4.5309
4.5839
4.63273
4.67971
4.72647
4.77534
4.82505
4.87493
4.9264
4.97662
5.0228
5.06623
5.10651
5.14275
5.17675
5.20976
5.24342
5.27693
5.30984
5.34305
5.37476
5.40331
5.42983
5.45519
5.48067
5.50557
5.5295
5.55309
5.57491
5.59354
5.60942
5.62225
5.6315
5.63751
5.64028
5.6398
5.63535
5.62618
5.61162
5.59149
5.56565
5.53277
5.49241
5.44421
5.3847
5.31023
5.2159
5.10206
4.9692
4.817
4.66821
4.55339
4.47389
4.42075
4.38564
4.36298
4.34939
4.34301
4.08961
4.11406
4.15537
4.21217
4.27433
4.33324
4.39162
4.44734
4.49721
4.54497
4.59235
4.64296
4.69446
4.74575
4.79988
4.8527
4.90013
4.94493
4.98641
5.02287
5.05702
5.09016
5.12476
5.15927
5.19294
5.22767
5.26081
5.28983
5.31667
5.34229
5.36864
5.39447
5.41915
5.44412
5.46731
5.4867
5.5034
5.51701
5.5267
5.53316
5.5364
5.53654
5.53272
5.52403
5.50968
5.48965
5.46413
5.4312
5.39068
5.34297
5.28354
5.20834
5.11026
4.99054
4.84922
4.68032
4.51317
4.39081
4.31056
4.25903
4.22588
4.20482
4.19232
4.18649
3.92988
3.95811
4.00324
4.06679
4.13523
4.19701
4.25871
4.31738
4.36784
4.41616
4.46376
4.51629
4.56959
4.62193
4.67904
4.73477
4.7831
4.82929
4.87209
4.90847
4.94263
4.97565
5.0113
5.04683
5.08103
5.11751
5.15227
5.18154
5.20858
5.23425
5.26157
5.28834
5.3136
5.3401
5.36481
5.38481
5.40234
5.41677
5.42683
5.43372
5.43738
5.43822
5.43509
5.42694
5.41281
5.39285
5.36782
5.33488
5.29417
5.2474
5.18847
5.11332
5.01153
4.88617
4.7374
4.54944
4.36017
4.23088
4.15134
4.10244
4.07182
4.05268
4.04142
4.03619
3.77441
3.80734
3.856
3.92729
4.00285
4.06675
4.1319
4.19389
4.24433
4.29305
4.34031
4.39508
4.45028
4.50306
4.56361
4.62271
4.6714
4.71904
4.7634
4.79929
4.83335
4.86588
4.90282
4.93944
4.9738
5.01234
5.04902
5.0782
5.10536
5.13077
5.15923
5.187
5.21254
5.24081
5.26724
5.28762
5.306
5.32135
5.33162
5.33894
5.34296
5.34459
5.34221
5.33467
5.32073
5.30078
5.2765
5.24352
5.20246
5.15719
5.09913
5.02503
4.9194
4.78864
4.63426
4.4244
4.20807
4.07314
3.99612
3.95094
3.92339
3.90643
3.89654
3.89196
3.62283
3.66178
3.71319
3.79351
3.8773
3.94208
4.01092
4.07682
4.12638
4.17546
4.2216
4.27913
4.3364
4.38869
4.45337
4.51647
4.56468
4.6139
4.66021
4.69505
4.72899
4.76053
4.7991
4.83695
4.87089
4.91192
4.95094
4.97956
5.0068
5.03155
5.06143
5.0903
5.11567
5.14602
5.17448
5.19486
5.21414
5.23054
5.24084
5.24859
5.25289
5.25541
5.25385
5.24701
5.23321
5.21312
5.18993
5.15687
5.11513
5.07205
5.01512
4.94339
4.83352
4.69746
4.54054
4.30541
4.05542
3.91718
3.84487
3.8045
3.78052
3.76595
3.75752
3.75363
3.47473
3.52158
3.57429
3.66531
3.75877
3.82253
3.89547
3.96619
4.01362
4.06324
4.10716
4.16827
4.2279
4.27833
4.34807
4.41608
4.46254
4.51359
4.56245
4.59545
4.62939
4.65922
4.69998
4.73926
4.7719
4.81607
4.85799
4.88535
4.91276
4.93626
4.96799
4.9981
5.02262
5.05554
5.08643
5.10624
5.12653
5.1442
5.15424
5.16247
5.1669
5.17045
5.16979
5.16374
5.15003
5.12954
5.10795
5.07472
5.03173
4.99175
4.93597
4.8684
4.75352
4.61195
4.45723
4.19282
3.90041
3.76271
3.69766
3.66314
3.64313
3.63112
3.62421
3.62103
3.32964
3.38707
3.43863
3.54253
3.64762
3.70753
3.78524
3.86213
3.90564
3.95636
3.99646
4.06237
4.12483
4.17137
4.2475
4.32168
4.36453
4.41782
4.47015
4.50013
4.53445
4.56154
4.6053
4.64633
4.67639
4.72457
4.77019
4.79525
4.82311
4.84453
4.87875
4.91035
4.93303
4.96915
5.00305
5.02147
5.04295
5.0622
5.07156
5.08041
5.08473
5.08952
5.08979
5.08468
5.07098
5.04969
5.03042
4.99688
4.95176
4.91613
4.86116
4.80019
4.67899
4.53116
4.38568
4.08723
3.74074
3.60962
3.55462
3.52689
3.51116
3.50181
3.49646
3.49401
3.18701
3.25885
3.30536
3.42505
3.54439
3.59636
3.67988
3.76487
3.80189
3.85487
3.88885
3.96134
4.02735
4.06709
4.15146
4.23353
4.2701
4.32632
4.38339
4.40868
4.44415
4.46699
4.51496
4.5582
4.58384
4.63724
4.68761
4.70891
4.73783
4.75594
4.7936
4.82704
4.84644
4.8867
4.92436
4.94019
4.96317
4.98446
4.99253
5.00223
5.00613
5.01244
5.01366
5.00965
4.99591
4.9732
4.95724
4.92322
4.87464
4.84513
4.79003
4.73904
4.60951
4.45374
4.32761
3.9895
3.5735
3.45809
3.416
3.39579
3.38453
3.37789
3.3741
3.37237
3.04618
3.13779
3.1734
3.31272
3.44984
3.4881
3.57903
3.67483
3.70169
3.75899
3.78357
3.86512
3.93575
3.9646
4.05977
4.15204
4.17859
4.23876
4.30239
4.3206
4.35858
4.37503
4.42885
4.47502
4.49362
4.55392
4.61045
4.62587
4.65694
4.67002
4.71243
4.74824
4.76236
4.80801
4.85047
4.86202
4.88699
4.91093
4.91686
4.92784
4.93081
4.93904
4.94119
4.93851
4.92467
4.89964
4.88837
4.85369
4.79972
4.77881
4.72176
4.68541
4.5447
4.37787
4.28518
3.90086
3.39498
3.30865
3.28208
3.26987
3.26315
3.25921
3.25696
3.25594
2.90633
3.0252
3.04134
3.20543
3.36501
3.3816
3.48232
3.59263
3.60415
3.66915
3.67967
3.77373
3.85051
3.86286
3.97225
4.07783
4.08918
4.15483
4.22751
4.23526
4.27797
4.28498
4.34694
4.39703
4.40498
4.47446
4.53898
4.54557
4.58061
4.58619
4.63518
4.67412
4.68016
4.73295
4.78155
4.78652
4.81419
4.84163
4.84421
4.85715
4.8585
4.8692
4.87215
4.87112
4.85718
4.82852
4.82385
4.78829
4.7262
4.71744
4.65529
4.64004
4.4842
4.30113
4.26109
3.82296
3.20056
3.16236
3.15321
3.14915
3.14692
3.14562
3.14488
3.14454
)
;

boundaryField
{
    left
    {
        type            zeroGradient;
    }
    right
    {
        type            zeroGradient;
    }
    interface
    {
        type            fixedValue;
        value           nonuniform List<scalar> 
64
(
2.83482
2.97288
2.97288
3.1531
3.32732
3.32732
3.43479
3.55506
3.55506
3.62668
3.62668
3.72951
3.81055
3.81055
3.92957
4.04405
4.04405
4.11363
4.19264
4.19264
4.23953
4.23953
4.30722
4.36003
4.36003
4.43577
4.5056
4.5056
4.5441
4.5441
4.5977
4.63876
4.63876
4.69637
4.74901
4.74901
4.77861
4.80841
4.80841
4.8229
4.8229
4.83526
4.83851
4.83851
4.82458
4.79312
4.79312
4.75702
4.68885
4.68885
4.62157
4.62157
4.45534
4.25983
4.25983
3.78976
3.09008
3.09008
3.09008
3.09008
3.09008
3.09008
3.09008
3.09008
)
;
    }
    bottom
    {
        type            fixedValue;
        value           uniform 10;
    }
    defaultFaces
    {
        type            empty;
    }
}


// ************************************************************************* //
