/*--------------------------------*- C++ -*----------------------------------*\
| =========                 |                                                 |
| \\      /  F ield         | OpenFOAM: The Open Source CFD Toolbox           |
|  \\    /   O peration     | Version:  5.x                                   |
|   \\  /    A nd           | Web:      www.OpenFOAM.org                      |
|    \\/     M anipulation  |                                                 |
\*---------------------------------------------------------------------------*/
FoamFile
{
    version     2.0;
    format      ascii;
    class       volScalarField;
    location    "4";
    object      gradTx;
}
// * * * * * * * * * * * * * * * * * * * * * * * * * * * * * * * * * * * * * //

dimensions      [0 -1 0 1 0 0 0];

internalField   nonuniform List<scalar> 
6300
(
-30.5223
-30.5923
-30.7316
-30.9389
-31.2118
-31.5474
-31.9415
-32.3887
-32.8824
-33.4147
-33.9766
-34.5578
-35.1476
-35.735
-36.3098
-30.4523
-30.523
-30.6638
-30.8732
-31.1493
-31.4891
-31.8884
-32.3422
-32.8438
-33.3853
-33.9573
-34.5493
-35.1501
-35.7478
-36.3316
-30.3119
-30.3839
-30.5273
-30.7411
-31.0233
-31.3712
-31.7811
-32.2481
-32.7655
-33.3254
-33.9181
-34.5323
-35.1555
-35.7748
-36.3773
-30.0995
-30.1733
-30.3207
-30.5406
-30.8316
-31.1915
-31.617
-32.1035
-32.6449
-33.233
-33.8576
-34.5064
-35.1652
-35.8185
-36.451
-29.8133
-29.8895
-30.0415
-30.2691
-30.5711
-30.9462
-31.3919
-31.9042
-32.4776
-33.1041
-33.773
-34.4706
-35.1803
-35.8832
-36.5594
-29.4512
-29.5298
-29.6871
-29.9231
-30.2378
-30.6306
-31.1002
-31.644
-32.2573
-32.9329
-33.6598
-34.4229
-35.2025
-35.9747
-36.7128
-29.0106
-29.0916
-29.254
-29.4986
-29.8264
-30.2382
-30.7345
-31.3143
-31.9749
-32.7105
-33.5105
-34.3588
-35.2323
-36.1003
-36.9262
-28.489
-28.572
-28.7388
-28.991
-29.3311
-29.7616
-30.2852
-30.9039
-31.6178
-32.4236
-33.313
-34.2697
-35.2676
-36.2682
-37.2205
-27.8846
-27.9687
-28.1382
-28.3958
-28.7454
-29.1919
-29.7411
-30.3985
-31.1688
-32.0535
-33.0482
-34.1396
-35.3003
-36.4845
-37.6232
-27.1963
-27.2801
-27.4497
-27.7087
-28.0628
-28.5197
-29.0887
-29.7804
-30.6056
-31.5732
-32.6869
-33.9402
-35.3096
-36.7466
-38.1654
-26.4242
-26.5059
-26.6718
-26.9265
-27.2777
-27.7356
-28.3137
-29.0289
-29.9001
-30.9471
-32.1863
-33.6247
-35.2513
-37.0271
-38.8678
-25.5704
-25.6477
-25.8051
-26.0481
-26.3858
-26.8312
-27.4019
-28.1214
-29.0189
-30.1288
-31.4865
-33.1212
-35.044
-37.243
-39.6896
-24.6394
-24.7096
-24.8528
-25.0752
-25.3865
-25.8015
-26.3414
-27.036
-27.9256
-29.0627
-30.51
-32.3295
-34.5608
-37.2113
-40.3708
-23.6383
-23.6985
-23.8216
-24.0134
-24.2835
-24.647
-25.1264
-25.7556
-26.5847
-27.6867
-29.1615
-31.126
-33.6587
-36.6708
-40.0113
-22.577
-22.6245
-22.7218
-22.8733
-23.0874
-23.3767
-23.7618
-24.2754
-24.9711
-25.938
-27.3233
-29.3544
-32.2772
-35.8021
-36.374
-36.8187
-37.2599
-37.6783
-38.072
-38.4403
-38.7831
-39.1009
-39.3942
-39.6634
-39.9084
-40.1287
-40.3235
-40.4918
-40.6331
-40.7473
-40.8353
-40.899
-40.9413
-40.9659
-40.9768
-40.9783
-40.9739
-40.9663
-40.9573
-40.9473
-40.9355
-40.9204
-40.9002
-40.8728
-40.8368
-40.7914
-40.7369
-40.6748
-40.6071
-40.5365
-40.4658
-40.3973
-40.3329
-40.273
-40.2175
-40.1648
-40.1129
-40.0594
-40.0019
-39.9386
-39.8683
-39.7912
-39.7083
-39.6214
-39.5329
-39.4455
-39.3612
-39.2817
-39.2074
-39.138
-39.072
-39.0074
-38.9418
-38.8728
-38.7985
-38.7181
-38.6314
-38.5396
-38.4444
-38.3482
-38.2536
-38.1628
-38.0772
-37.9978
-37.9243
-37.8555
-37.7899
-37.7256
-37.6609
-37.5949
-37.5276
-37.46
-37.3947
-37.335
-37.2849
-37.2488
-37.2307
-37.2338
-37.2599
-37.3092
-37.3803
-37.4697
-37.5724
-37.6819
-37.7914
-36.8473
-37.2928
-37.7139
-38.1088
-38.4771
-38.8193
-39.1363
-39.4291
-39.6983
-39.9441
-40.1656
-40.3616
-40.5309
-40.6722
-40.7852
-40.8704
-40.9299
-40.9669
-40.9856
-40.9906
-40.9869
-40.9785
-40.9685
-40.9589
-40.9498
-40.9402
-40.928
-40.9106
-40.8853
-40.8503
-40.8044
-40.7481
-40.6828
-40.6113
-40.5367
-40.4625
-40.3917
-40.3262
-40.2669
-40.2133
-40.1636
-40.1153
-40.0652
-40.0104
-39.9485
-39.8782
-39.7996
-39.714
-39.6236
-39.5315
-39.4409
-39.3544
-39.274
-39.2004
-39.133
-39.07
-39.0089
-38.9466
-38.8802
-38.8074
-38.727
-38.6389
-38.5443
-38.4457
-38.346
-38.2481
-38.155
-38.0684
-37.9893
-37.9173
-37.8509
-37.7879
-37.726
-37.6627
-37.5968
-37.5277
-37.4568
-37.3866
-37.321
-37.2647
-37.2229
-37.2002
-37.2005
-37.2262
-37.2779
-37.3539
-37.4506
-37.5623
-37.682
-37.8017
-36.9068
-37.3611
-37.7873
-38.184
-38.5517
-38.8918
-39.2066
-39.498
-39.7673
-40.0147
-40.2392
-40.4385
-40.6103
-40.7523
-40.863
-40.9427
-40.9934
-41.0191
-41.0249
-41.0172
-41.0022
-40.9853
-40.9705
-40.9598
-40.9532
-40.9488
-40.9432
-40.9323
-40.9121
-40.8794
-40.8327
-40.7722
-40.7
-40.6199
-40.5365
-40.4546
-40.3783
-40.3107
-40.2526
-40.2035
-40.1606
-40.1202
-40.0778
-40.029
-39.9704
-39.9001
-39.8182
-39.7264
-39.6282
-39.528
-39.4302
-39.3388
-39.2566
-39.1844
-39.1215
-39.0653
-39.012
-38.9572
-38.8968
-38.8272
-38.7468
-38.6554
-38.5549
-38.4486
-38.3408
-38.2358
-38.1376
-38.0488
-37.9705
-37.902
-37.8411
-37.7845
-37.7281
-37.6684
-37.6029
-37.5305
-37.4524
-37.3717
-37.2933
-37.2236
-37.1691
-37.1363
-37.1305
-37.1551
-37.2113
-37.2975
-37.4096
-37.5406
-37.6819
-37.8235
-37.0023
-37.4699
-37.9031
-38.3013
-38.6661
-39.0011
-39.3107
-39.5988
-39.868
-40.1187
-40.349
-40.5553
-40.7329
-40.8774
-40.9856
-41.0569
-41.0932
-41.0997
-41.0839
-41.0545
-41.0204
-40.9893
-40.9666
-40.9549
-40.9535
-40.9592
-40.9661
-40.9675
-40.9568
-40.9289
-40.8809
-40.8131
-40.7287
-40.6333
-40.5341
-40.4385
-40.3527
-40.2812
-40.2256
-40.1846
-40.1541
-40.1281
-40.0996
-40.0618
-40.0092
-39.9389
-39.8509
-39.7481
-39.6358
-39.5209
-39.4103
-39.3101
-39.2245
-39.155
-39.1003
-39.0563
-39.0172
-38.9761
-38.9263
-38.8627
-38.7823
-38.685
-38.5738
-38.4537
-38.3314
-38.2137
-38.1065
-38.0139
-37.9373
-37.8757
-37.8253
-37.7804
-37.7349
-37.6825
-37.6187
-37.5414
-37.4515
-37.3532
-37.2532
-37.1604
-37.0841
-37.0336
-37.0165
-37.0384
-37.1013
-37.2039
-37.3411
-37.504
-37.6812
-37.8592
-37.1422
-37.6282
-38.0697
-38.4668
-38.8235
-39.1471
-39.4458
-39.727
-39.9955
-40.2521
-40.4935
-40.7134
-40.9033
-41.0549
-41.1617
-41.2213
-41.236
-41.2127
-41.1626
-41.0987
-41.0345
-40.9812
-40.9469
-40.935
-40.944
-40.9678
-40.9969
-41.0202
-41.0265
-41.0073
-40.9577
-40.878
-40.7731
-40.6522
-40.5267
-40.4081
-40.3066
-40.229
-40.1777
-40.1506
-40.1411
-40.1396
-40.1349
-40.1157
-40.0734
-40.0032
-39.9049
-39.7833
-39.6472
-39.5074
-39.3753
-39.2604
-39.1693
-39.1044
-39.0635
-39.0402
-39.0252
-39.0073
-38.9758
-38.9223
-38.8419
-38.7347
-38.6052
-38.4619
-38.3153
-38.1763
-38.0543
-37.9557
-37.8827
-37.8332
-37.8011
-37.7774
-37.7514
-37.7129
-37.6538
-37.5702
-37.4627
-37.3369
-37.2028
-37.0731
-36.9618
-36.8824
-36.8465
-36.8624
-36.934
-37.0604
-37.2353
-37.4469
-37.6792
-37.9132
-37.3401
-37.8507
-38.3005
-38.6904
-39.0288
-39.329
-39.6061
-39.8738
-40.1403
-40.4073
-40.6693
-40.9149
-41.1291
-41.2968
-41.406
-41.4507
-41.4334
-41.3646
-41.2612
-41.1437
-41.0327
-40.9459
-40.8951
-40.8853
-40.9133
-40.9688
-41.0363
-41.0972
-41.1332
-41.1295
-41.0781
-40.9791
-40.8407
-40.678
-40.5092
-40.3533
-40.2262
-40.1388
-40.095
-40.0911
-40.1166
-40.156
-40.1908
-40.203
-40.178
-40.1078
-39.9923
-39.8396
-39.6639
-39.4831
-39.3154
-39.1764
-39.0764
-39.0192
-39.0012
-39.0123
-39.0372
-39.0579
-39.057
-39.0204
-38.9402
-38.8164
-38.6566
-38.4747
-38.2881
-38.1143
-37.9685
-37.8605
-37.794
-37.7655
-37.7649
-37.7775
-37.7858
-37.7726
-37.7243
-37.6334
-37.5001
-37.3326
-37.1459
-36.9592
-36.7934
-36.6686
-36.6019
-36.6059
-36.6876
-36.847
-37.0763
-37.3599
-37.6747
-37.9927
-37.617
-38.1609
-38.6174
-38.9886
-39.2893
-39.5441
-39.7804
-40.0222
-40.2845
-40.5699
-40.8688
-41.1616
-41.4221
-41.6233
-41.743
-41.7696
-41.7052
-41.5663
-41.3802
-41.1793
-40.9963
-40.8586
-40.7846
-40.7812
-40.8428
-40.9528
-41.0854
-41.2102
-41.2969
-41.3205
-41.2672
-41.1368
-40.9436
-40.7124
-40.4733
-40.2569
-40.0888
-39.9861
-39.9548
-39.9891
-40.0723
-40.179
-40.2794
-40.3437
-40.3477
-40.2776
-40.1335
-39.9289
-39.6878
-39.4398
-39.2142
-39.0361
-38.9219
-38.8774
-38.8971
-38.9645
-39.055
-39.1397
-39.1896
-39.1813
-39.1013
-38.9497
-38.7396
-38.4943
-38.2423
-38.0122
-37.8279
-37.7055
-37.6506
-37.6573
-37.7097
-37.7837
-37.8509
-37.8828
-37.8561
-37.7574
-37.5864
-37.3558
-37.0889
-36.8152
-36.566
-36.3709
-36.2551
-36.2375
-36.3293
-36.5327
-36.8392
-37.2278
-37.6652
-38.109
-38.0051
-38.5972
-39.0575
-39.3882
-39.6162
-39.7859
-39.9469
-40.1415
-40.3955
-40.713
-41.0774
-41.4549
-41.8006
-42.0672
-42.2145
-42.2195
-42.0844
-41.8364
-41.5204
-41.1894
-40.8949
-40.6798
-40.5725
-40.5833
-40.703
-40.9042
-41.1458
-41.3784
-41.5514
-41.6225
-41.5671
-41.3852
-41.1015
-40.758
-40.4048
-40.091
-39.8572
-39.7304
-39.7202
-39.8169
-39.994
-40.2111
-40.4199
-40.5713
-40.624
-40.5541
-40.3617
-40.0706
-39.7218
-39.364
-39.0448
-38.8036
-38.6668
-38.6434
-38.7242
-38.8832
-39.0812
-39.2714
-39.406
-39.4452
-39.3655
-39.1671
-38.8732
-38.5234
-38.1649
-37.8438
-37.5982
-37.4534
-37.4182
-37.4833
-37.6233
-37.7997
-37.9667
-38.0772
-38.0914
-37.9856
-37.7584
-37.4312
-37.0416
-36.6357
-36.2604
-35.9589
-35.7669
-35.7115
-35.8102
-36.0699
-36.4836
-37.0252
-37.6463
-38.2807
-38.5539
-39.2233
-39.6845
-39.9359
-40.0271
-40.0403
-40.065
-40.1755
-40.415
-40.7889
-41.2675
-41.7939
-42.2931
-42.6832
-42.8908
-42.8712
-42.6264
-42.2043
-41.6823
-41.1469
-40.6793
-40.3458
-40.1904
-40.2289
-40.4458
-40.7976
-41.2194
-41.6323
-41.9526
-42.1066
-42.0492
-41.7804
-41.3454
-40.8176
-40.2798
-39.8099
-39.4716
-39.3071
-39.3314
-39.5292
-39.8581
-40.2551
-40.6431
-40.9409
-41.0769
-41.0072
-40.732
-40.2954
-39.7687
-39.2327
-38.7628
-38.421
-38.2483
-38.2592
-38.4387
-38.7457
-39.1186
-39.483
-39.76
-39.88
-39.8006
-39.5221
-39.0871
-38.5649
-38.0336
-37.5665
-37.2232
-37.0435
-37.0411
-37.2014
-37.4841
-37.8293
-38.1638
-38.4101
-38.4993
-38.3883
-38.0744
-37.5963
-37.0177
-36.4118
-35.8485
-35.3889
-35.0819
-34.9635
-35.0591
-35.3852
-35.944
-36.7078
-37.6083
-38.538
-39.3381
-40.1495
-40.6136
-40.7146
-40.5504
-40.2782
-40.0599
-40.0238
-40.2412
-40.7141
-41.3887
-42.1721
-42.943
-43.5622
-43.8943
-43.8476
-43.4236
-42.7164
-41.8637
-41.0069
-40.2708
-39.7555
-39.5292
-39.6177
-39.9943
-40.5902
-41.306
-42.0196
-42.5935
-42.8954
-42.8358
-42.415
-41.7229
-40.8916
-40.0571
-39.3395
-38.8358
-38.6119
-38.6928
-39.0525
-39.6245
-40.3119
-40.9961
-41.5436
-41.8259
-41.7561
-41.3348
-40.6497
-39.8293
-39.0059
-38.2965
-37.7949
-37.5655
-37.6321
-37.9696
-38.513
-39.1684
-39.8205
-40.3398
-40.6018
-40.5224
-40.1022
-39.4264
-38.6195
-37.8099
-37.1106
-36.6127
-36.378
-36.4297
-36.7431
-37.255
-37.874
-38.4877
-38.9691
-39.1957
-39.0827
-38.627
-37.9057
-37.0332
-36.1264
-35.2873
-34.5993
-34.1249
-33.9074
-33.9759
-34.3654
-35.1087
-36.1937
-37.5282
-38.9324
-40.4647
-41.5758
-42.0659
-41.8752
-41.2295
-40.4387
-39.7925
-39.5071
-39.6999
-40.3488
-41.3537
-42.5684
-43.8116
-44.8548
-45.4433
-45.3675
-44.6286
-43.4382
-42.051
-40.6935
-39.5443
-38.749
-38.4149
-38.5919
-39.2269
-40.2103
-41.3961
-42.6081
-43.6261
-44.2048
-44.1426
-43.4403
-42.3011
-40.9702
-39.666
-38.5612
-37.7969
-37.4779
-37.6527
-38.2704
-39.2245
-40.3734
-41.5461
-42.5283
-43.0819
-43.0112
-42.3175
-41.1989
-39.894
-38.6152
-37.5306
-36.7771
-36.4562
-36.615
-37.2038
-38.119
-39.2228
-40.3492
-41.2902
-41.8153
-41.7348
-41.0503
-39.9543
-38.678
-37.4273
-36.3648
-35.6229
-35.3
-35.4413
-35.9987
-36.8715
-37.9264
-39.0018
-39.8951
-40.3806
-40.2708
-39.5618
-38.4328
-37.0979
-35.7432
-34.5087
-33.5017
-32.798
-32.4394
-32.4303
-32.8361
-33.7813
-35.3202
-37.3474
-39.5549
-42.0576
-43.8963
-44.4987
-43.691
-42.1179
-40.3909
-39.0056
-38.3021
-38.5019
-39.471
-41.0165
-42.9239
-44.9683
-46.8022
-47.9491
-47.8425
-46.484
-44.4436
-42.1955
-40.08
-38.3085
-37.0783
-36.5649
-36.9065
-37.9582
-39.5388
-41.4484
-43.4761
-45.2912
-46.4374
-46.3712
-45.0946
-43.1556
-41.0105
-38.9877
-37.2926
-36.1171
-35.6327
-35.975
-37.0038
-38.5439
-40.4009
-42.3703
-44.13
-45.237
-45.1634
-43.9119
-42.0164
-39.921
-37.945
-36.2879
-35.1361
-34.656
-34.9788
-35.9681
-37.4532
-39.2449
-41.1445
-42.8395
-43.9006
-43.8167
-42.5911
-40.7418
-38.6995
-36.7736
-35.157
-34.0299
-33.5533
-33.8539
-34.7998
-36.2258
-37.9493
-39.7777
-41.4083
-42.4227
-42.3213
-41.1015
-39.2562
-37.1909
-35.1868
-33.4022
-31.9672
-30.9742
-30.4678
-30.2872
-30.5301
-31.5986
-33.7433
-36.9066
-40.576
-44.1081
-47.9972
-48.9622
-46.6092
-43.2279
-39.8513
-37.237
-35.7965
-36.1962
-37.7632
-40.1584
-43.0824
-46.4281
-49.7392
-52.2599
-52.1205
-49.3213
-45.7484
-42.1494
-38.9713
-36.2933
-34.3756
-33.4837
-34.1985
-35.928
-38.3939
-41.3304
-44.6506
-47.9194
-50.416
-50.343
-47.703
-44.3067
-40.8746
-37.8379
-35.2756
-33.4419
-32.5974
-33.3085
-35.0012
-37.4067
-40.2666
-43.4963
-46.6717
-49.0922
-49.0117
-46.4339
-43.1216
-39.7759
-36.8157
-34.3176
-32.5279
-31.6996
-32.3826
-34.0187
-36.3455
-39.1117
-42.2343
-45.3016
-47.6346
-47.5425
-45.0299
-41.8069
-38.5533
-35.6745
-33.2441
-31.5003
-30.6872
-31.3371
-32.9096
-35.1515
-37.8208
-40.8386
-43.8084
-46.0713
-45.9824
-43.5415
-40.3962
-37.1958
-34.3141
-31.7923
-29.7959
-28.4495
-28.0269
-27.534
-27.035
-27.8664
-30.6995
-35.737
-42.3394
-45.5989
-56.309
-58.2037
-51.0086
-44.331
-38.2141
-33.7785
-30.641
-32.2099
-34.8628
-38.5391
-42.6338
-47.9379
-53.8147
-60.4014
-60.2286
-53.273
-47.0908
-41.4971
-37.1427
-33.1834
-30.196
-28.0889
-30.0296
-32.8374
-36.5713
-40.6602
-45.8992
-51.6596
-58.0949
-58.0111
-51.4007
-45.5095
-40.1695
-36.0049
-32.2096
-29.3423
-27.3222
-29.2283
-31.9723
-35.6153
-39.5999
-44.7005
-50.3005
-56.549
-56.4559
-50.0135
-44.2749
-39.0756
-35.0211
-31.3271
-28.5352
-26.5666
-28.4142
-31.0743
-34.6053
-38.465
-43.4036
-48.821
-54.8608
-54.7538
-48.4915
-42.9162
-37.867
-33.9297
-30.3425
-27.6301
-25.7145
-27.4915
-30.0553
-33.4617
-37.1902
-41.9686
-47.2265
-53.1061
-53.0303
-46.9958
-41.6155
-36.7415
-32.9231
-29.4257
-26.6886
-24.5945
-25.6871
-24.7895
-21.6237
-21.2513
-24.4811
-32.3139
-45.5857
-39.6091
-77.315
-80.5353
-54.6632
-44.6272
-34.1558
-28.451
-18.7082
-26.6626
-30.489
-36.3173
-40.444
-48.6229
-56.8683
-78.2768
-78.1043
-56.1113
-47.586
-39.0604
-34.7452
-28.6741
-24.7486
-16.8654
-24.6122
-28.4133
-34.2377
-38.334
-46.3967
-54.4284
-75.1613
-75.0779
-54.0625
-45.9189
-37.7719
-33.6401
-27.8074
-24.0228
-16.393
-23.9417
-27.6488
-33.332
-37.3262
-45.1856
-52.9955
-73.1376
-73.0431
-52.5798
-44.6516
-36.7266
-32.7076
-27.0373
-23.357
-15.9384
-23.2758
-26.8759
-32.3917
-36.2646
-43.8832
-51.4443
-70.9381
-70.8289
-50.9635
-43.2676
-35.5797
-31.6806
-26.1811
-22.6126
-15.4243
-22.5128
-25.9877
-31.308
-35.0475
-42.4077
-49.7494
-68.7163
-68.6585
-49.5079
-42.1057
-34.7669
-31.0699
-25.964
-22.6551
-16.1504
-26.213
-25.3113
-12.1902
-9.44882
-11.6346
-21.0583
-51.9133
-37.9025
-38.0043
-38.0764
-38.1134
-38.1135
-38.0786
-38.0137
-37.926
-37.8238
-37.7162
-37.6118
-37.5182
-37.442
-37.3883
-37.3607
-37.9231
-38.0338
-38.1115
-38.1502
-38.1484
-38.1085
-38.0364
-37.9402
-37.8292
-37.713
-37.6008
-37.5006
-37.4194
-37.3623
-37.3328
-37.9667
-38.0963
-38.1854
-38.2274
-38.2212
-38.1705
-38.0832
-37.9692
-37.8397
-37.7057
-37.5776
-37.4641
-37.3725
-37.3084
-37.2755
-38.0386
-38.1991
-38.3064
-38.3528
-38.3382
-38.2691
-38.1564
-38.0136
-37.8545
-37.6925
-37.5395
-37.4054
-37.2981
-37.2233
-37.185
-38.148
-38.3548
-38.4882
-38.539
-38.5096
-38.4111
-38.2598
-38.074
-37.8721
-37.6703
-37.4825
-37.3199
-37.1909
-37.1017
-37.0561
-38.3098
-38.5839
-38.7523
-38.8053
-38.7501
-38.6058
-38.3973
-38.1506
-37.8894
-37.6339
-37.4002
-37.2005
-37.0439
-36.9363
-36.8816
-38.5481
-38.9184
-39.1319
-39.1797
-39.0796
-38.8646
-38.5731
-38.2415
-37.9009
-37.5756
-37.2837
-37.0381
-36.8476
-36.7179
-36.6522
-38.9023
-39.4097
-39.6769
-39.702
-39.5238
-39.1997
-38.7887
-38.3414
-37.897
-37.4838
-37.1208
-36.8206
-36.5905
-36.4352
-36.3571
-39.4383
-40.1411
-40.4639
-40.4274
-40.1137
-39.6218
-39.0405
-38.4381
-37.8618
-37.3415
-36.8952
-36.5326
-36.2586
-36.0754
-35.9836
-40.2723
-41.2526
-41.6099
-41.4298
-40.8816
-40.133
-39.3133
-38.5088
-37.7703
-37.1252
-36.5857
-36.1559
-35.8358
-35.6238
-35.5184
-41.6206
-42.9869
-43.2933
-42.8004
-41.8498
-40.715
-39.571
-38.5131
-37.5855
-36.8032
-36.1664
-35.6694
-35.3048
-35.0657
-34.9475
-43.9192
-45.7811
-45.7758
-44.6284
-43.0021
-41.3063
-39.7423
-38.3871
-37.2553
-36.3354
-35.6072
-35.0505
-34.648
-34.3868
-34.2583
-48.1403
-50.4422
-49.4002
-46.9353
-44.2236
-41.7656
-39.7047
-38.0373
-36.7131
-35.6758
-34.8765
-34.2772
-33.8498
-33.575
-33.4405
-56.7464
-58.4474
-54.4476
-49.4887
-45.1914
-41.8277
-39.2736
-37.3443
-35.884
-34.7779
-33.9456
-33.3318
-32.899
-32.6227
-32.4881
-77.0088
-72.153
-60.4539
-51.3805
-45.2256
-41.0799
-38.2174
-36.1823
-34.7005
-33.6062
-32.7962
-32.2054
-31.7917
-31.5287
-31.4009
-21.5608
-21.5947
-21.6638
-21.7712
-21.9219
-22.1245
-22.3931
-22.7517
-23.2436
-23.9514
-25.0466
-26.913
-30.4592
-37.7126
-50.8459
-20.6134
-20.634
-20.6756
-20.7391
-20.8264
-20.9405
-21.0864
-21.2741
-21.5232
-21.8766
-22.4413
-23.5271
-26.2318
-35.3658
-76.1985
-19.6518
-19.6588
-19.6721
-19.6907
-19.7125
-19.7342
-19.7508
-19.754
-19.7303
-19.6552
-19.4743
-19.0171
-17.5395
-11.0058
25.045
-18.6855
-18.6792
-18.6651
-18.6401
-18.5986
-18.5317
-18.4246
-18.2526
-17.9732
-17.5075
-16.699
-15.2159
-12.3582
-7.14293
-3.62808
-17.7237
-17.7051
-17.6658
-17.601
-17.5025
-17.3572
-17.1434
-16.826
-16.3455
-15.5977
-14.3924
-12.3693
-8.81418
-2.0983
13.6203
-16.7748
-16.7454
-16.6842
-16.5853
-16.4391
-16.2302
-15.9342
-15.5126
-14.9035
-14.0058
-12.6539
-10.5865
-7.46518
-3.3049
-1.69609
-15.8463
-15.808
-15.7288
-15.6025
-15.4193
-15.1637
-14.8122
-14.3295
-13.6621
-12.7295
-11.4121
-9.5358
-6.83771
-2.73896
5.47482
-14.9444
-14.8992
-14.806
-14.6593
-14.4499
-14.1639
-13.7815
-13.2747
-12.6048
-11.7204
-10.5586
-9.05581
-7.18296
-5.03002
-3.02021
-14.074
-14.0237
-13.9206
-13.7598
-13.5337
-13.2311
-12.8372
-12.3332
-11.6964
-10.904
-9.94189
-8.83285
-7.72274
-7.22103
-10.1195
-13.2387
-13.1848
-13.0752
-12.9057
-12.6706
-12.3617
-11.9696
-11.4839
-10.8963
-10.2055
-9.42731
-8.61066
-7.84008
-7.05016
-4.31513
-12.4408
-12.3848
-12.2713
-12.0974
-11.8587
-11.5502
-11.1669
-10.7054
-10.1679
-9.56764
-8.9395
-8.35653
-7.97089
-8.22942
-11.5279
-11.6818
-11.6247
-11.5095
-11.334
-11.0954
-10.7908
-10.4185
-9.97977
-9.48303
-8.94927
-8.42036
-7.96541
-7.65439
-7.29702
-4.52906
-10.9624
-10.9051
-10.7897
-10.6146
-10.378
-10.0785
-9.71618
-9.2945
-8.82397
-8.32756
-7.84991
-7.47438
-7.37013
-8.03802
-12.1101
-10.283
-10.2259
-10.1113
-9.93782
-9.70435
-9.40997
-9.05514
-8.6432
-8.18294
-7.69286
-7.2086
-6.79501
-6.5497
-6.41436
-4.12161
-9.64317
-9.58685
-9.4737
-9.3028
-9.07303
-8.78344
-8.43381
-8.0255
-7.56265
-7.05418
-6.51824
-5.99883
-5.65295
-6.2883
-12.9383
-9.04252
-8.98728
-8.8763
-8.70872
-8.4833
-8.19864
-7.85328
-7.44573
-6.9741
-6.43462
-5.81647
-5.08219
-4.07482
-1.98483
6.09606
-8.48029
-8.42644
-8.31827
-8.15484
-7.93475
-7.65604
-7.31599
-6.9105
-6.43271
-5.86973
-5.19538
-4.35522
-3.24856
-1.84113
-1.72687
-7.95551
-7.90338
-7.79865
-7.64036
-7.42695
-7.15609
-6.82418
-6.42553
-5.95054
-5.38222
-4.6895
-3.81336
-2.6312
-0.798831
3.35753
-7.46697
-7.41689
-7.31627
-7.1642
-6.95911
-6.69857
-6.37877
-5.99363
-5.53321
-4.98115
-4.31103
-3.48407
-2.46541
-1.36986
-1.49964
-7.01326
-6.96553
-6.86968
-6.72491
-6.52982
-6.28225
-5.97877
-5.61404
-5.17957
-4.66213
-4.04151
-3.28794
-2.35307
-1.08941
1.46363
-6.59274
-6.54763
-6.45711
-6.32059
-6.13703
-5.90479
-5.62137
-5.28292
-4.8836
-4.41478
-3.86437
-3.21775
-2.46907
-1.70384
-1.71067
-6.20359
-6.16129
-6.07654
-5.94899
-5.77807
-5.56292
-5.30222
-4.99411
-4.63594
-4.22415
-3.75408
-3.21848
-2.59662
-1.78157
-0.108775
-5.84385
-5.80449
-5.72573
-5.60755
-5.44989
-5.25271
-5.01604
-4.7401
-4.42555
-4.07405
-3.68934
-3.27915
-2.85836
-2.45445
-2.1261
-5.5115
-5.47508
-5.40235
-5.29357
-5.14919
-4.96997
-4.75718
-4.51295
-4.24086
-3.94705
-3.64233
-3.34722
-3.10841
-3.07433
-3.91538
-5.20447
-5.17092
-5.10404
-5.00435
-4.87272
-4.71058
-4.52019
-4.30519
-4.07129
-3.82766
-3.5887
-3.37622
-3.21635
-3.08595
-2.46453
-4.92079
-4.88994
-4.82857
-4.73735
-4.61748
-4.47084
-4.30035
-4.11058
-3.90854
-3.70507
-3.51671
-3.36874
-3.30385
-3.43805
-4.40631
-4.65856
-4.6302
-4.57385
-4.49029
-4.38087
-4.24769
-4.09395
-3.92452
-3.74682
-3.57202
-3.41671
-3.30361
-3.25314
-3.21044
-2.51627
-4.41607
-4.38994
-4.33806
-4.26123
-4.16081
-4.03885
-3.89847
-3.74426
-3.58312
-3.42548
-3.28744
-3.19502
-3.19708
-3.43473
-4.64837
-4.19177
-4.1676
-4.11963
-4.0486
-3.95573
-3.84286
-3.71262
-3.56884
-3.41703
-3.26538
-3.12653
-3.02085
-2.97746
-2.98078
-2.38058
-3.98428
-3.96183
-3.91725
-3.85116
-3.76458
-3.65895
-3.53622
-3.39904
-3.25087
-3.09641
-2.94263
-2.80347
-2.72542
-2.94549
-4.93865
-3.79241
-3.77147
-3.72983
-3.668
-3.58671
-3.48694
-3.3699
-3.2369
-3.08912
-2.92701
-2.74861
-2.54368
-2.2664
-1.67842
0.668084
-3.61511
-3.59551
-3.55648
-3.49838
-3.42169
-3.32696
-3.2147
-3.08506
-2.93736
-2.76895
-2.57304
-2.33416
-2.02318
-1.63214
-1.64458
-3.45146
-3.43307
-3.39641
-3.3417
-3.26923
-3.1792
-3.07159
-2.9458
-2.8
-2.63004
-2.42735
-2.17474
-1.83557
-1.30528
-0.0705894
-3.30062
-3.28335
-3.2489
-3.1974
-3.12898
-3.04367
-2.94115
-2.82046
-2.67944
-2.51388
-2.31635
-2.07545
-1.78072
-1.46722
-1.53442
-3.1618
-3.1456
-3.11325
-3.06487
-3.00051
-2.92012
-2.82336
-2.70927
-2.57597
-2.41996
-2.2355
-2.01357
-1.73893
-1.36441
-0.586993
-3.03426
-3.01908
-2.98878
-2.94346
-2.88319
-2.80798
-2.71761
-2.61146
-2.48828
-2.34584
-2.18068
-1.98832
-1.76653
-1.54104
-1.55759
-2.91729
-2.90309
-2.87477
-2.83245
-2.77628
-2.7064
-2.62286
-2.52552
-2.41399
-2.28751
-2.1448
-1.98354
-1.79671
-1.54925
-1.02808
-2.8102
-2.79694
-2.77051
-2.73108
-2.67892
-2.61434
-2.5377
-2.44945
-2.35011
-2.24047
-2.12182
-1.99654
-1.86901
-1.74721
-1.64821
-2.71235
-2.69996
-2.6753
-2.63859
-2.59021
-2.53067
-2.46064
-2.3811
-2.29342
-2.19971
-2.10348
-2.01114
-1.93734
-1.92903
-2.19958
-2.62314
-2.61153
-2.58847
-2.55423
-2.50928
-2.45429
-2.39022
-2.31843
-2.24094
-2.16074
-2.08244
-2.01289
-1.96021
-1.91687
-1.71647
-2.542
-2.53109
-2.50942
-2.47733
-2.43535
-2.38426
-2.32518
-2.25976
-2.19035
-2.12048
-2.05537
-2.00294
-1.97663
-2.01348
-2.31654
-2.46846
-2.45813
-2.43763
-2.40732
-2.36776
-2.31978
-2.26458
-2.20386
-2.14011
-2.07692
-2.01951
-1.97488
-1.94921
-1.92492
-1.69339
-2.40212
-2.39225
-2.37268
-2.34376
-2.30605
-2.26035
-2.20782
-2.1501
-2.0895
-2.02939
-1.97479
-1.93367
-1.92087
-1.97999
-2.34313
-2.34266
-2.33313
-2.31425
-2.28633
-2.24989
-2.20567
-2.15469
-2.09835
-2.03857
-1.97804
-1.92075
-1.87282
-1.8426
-1.82365
-1.61266
-2.28982
-2.28054
-2.26211
-2.23483
-2.19916
-2.15571
-2.10531
-2.04902
-1.98818
-1.92447
-1.86021
-1.79969
-1.75653
-1.80043
-2.36807
-2.24345
-2.2343
-2.21613
-2.18919
-2.15384
-2.11058
-2.06003
-2.00287
-1.93979
-1.87128
-1.79711
-1.71451
-1.61002
-1.41325
-0.698522
-2.20345
-2.19435
-2.17627
-2.14939
-2.11403
-2.07055
-2.01936
-1.96085
-1.89519
-1.82205
-1.73988
-1.64455
-1.52762
-1.38557
-1.35178
-2.16978
-2.16067
-2.14252
-2.11551
-2.07987
-2.03587
-1.9838
-1.92381
-1.8558
-1.7791
-1.6918
-1.58961
-1.46267
-1.28252
-0.91157
-2.14246
-2.13326
-2.11494
-2.08763
-2.05152
-2.00683
-1.95374
-1.89234
-1.82247
-1.74351
-1.65409
-1.55186
-1.43469
-1.31182
-1.28373
-2.12154
-2.11221
-2.09361
-2.06587
-2.02915
-1.98363
-1.92948
-1.86678
-1.79546
-1.7152
-1.62527
-1.52449
-1.41067
-1.27516
-1.05236
-2.10711
-2.0976
-2.07865
-2.05036
-2.01289
-1.96643
-1.91115
-1.84721
-1.77468
-1.6936
-1.60401
-1.50618
-1.40173
-1.299
-1.25027
-2.0993
-2.08957
-2.07018
-2.04123
-2.0029
-1.95537
-1.89886
-1.8336
-1.75984
-1.67794
-1.58846
-1.49249
-1.39158
-1.28524
-1.14842
-2.09825
-2.08826
-2.06835
-2.03864
-1.9993
-1.95055
-1.89266
-1.8259
-1.75068
-1.66753
-1.57745
-1.48222
-1.3852
-1.29254
-1.21745
-2.10414
-2.09385
-2.07333
-2.04273
-2.00224
-1.9521
-1.89261
-1.8241
-1.74701
-1.66196
-1.57001
-1.47321
-1.37582
-1.28752
-1.23434
-2.11719
-2.10654
-2.08533
-2.0537
-2.01188
-1.96015
-1.89883
-1.82827
-1.74889
-1.66118
-1.56594
-1.46461
-1.36013
-1.25802
-1.16673
-2.13764
-2.12659
-2.10457
-2.07176
-2.02842
-1.97487
-1.91147
-1.83858
-1.75654
-1.66564
-1.5661
-1.45822
-1.34279
-1.22093
-1.08329
-2.16577
-2.15425
-2.1313
-2.09713
-2.05206
-1.99644
-1.93069
-1.85524
-1.77036
-1.67612
-1.57205
-1.45706
-1.32994
-1.19471
-1.09649
-2.20192
-2.18984
-2.16582
-2.13009
-2.08301
-2.02503
-1.95667
-1.87844
-1.7907
-1.69341
-1.58559
-1.46434
-1.32272
-1.14274
-0.849265
-2.24645
-2.23374
-2.20848
-2.17094
-2.12154
-2.06085
-1.98951
-1.90825
-1.81767
-1.71802
-1.60846
-1.48576
-1.34215
-1.16952
-1.04735
-2.2998
-2.28637
-2.25967
-2.22002
-2.16792
-2.10405
-2.02924
-1.94452
-1.85095
-1.74951
-1.64046
-1.52172
-1.38173
-1.16124
-0.511507
-2.36248
-2.34821
-2.31985
-2.27775
-2.22248
-2.15484
-2.07587
-1.98693
-1.88971
-1.78627
-1.67919
-1.57242
-1.47722
-1.451
-1.86112
-2.43507
-2.41984
-2.38956
-2.34463
-2.28564
-2.21349
-2.12942
-2.03509
-1.93278
-1.82557
-1.7177
-1.6151
-1.5248
-1.43777
-1.15887
-2.51824
-2.50192
-2.46946
-2.42126
-2.35794
-2.28043
-2.19008
-2.08879
-1.97926
-1.86533
-1.75255
-1.64924
-1.5701
-1.55782
-1.84499
-2.61273
-2.5952
-2.56029
-2.50839
-2.44008
-2.35629
-2.25834
-2.14821
-2.02878
-1.90428
-1.78082
-1.66658
-1.56895
-1.46997
-1.14847
-2.71941
-2.70053
-2.66292
-2.6069
-2.53298
-2.44197
-2.33506
-2.21409
-2.08182
-1.94251
-1.80267
-1.67238
-1.56875
-1.5367
-1.81106
-2.8392
-2.81887
-2.77834
-2.71784
-2.63775
-2.53868
-2.42155
-2.28781
-2.13975
-1.98109
-1.81789
-1.65967
-1.51882
-1.39072
-1.08178
-2.97309
-2.95125
-2.90763
-2.84237
-2.75569
-2.64792
-2.51957
-2.37146
-2.20503
-2.02283
-1.82964
-1.63488
-1.46002
-1.37041
-1.64672
-3.12214
-3.09874
-3.05194
-2.98178
-2.88828
-2.77146
-2.6313
-2.46784
-2.28125
-2.0722
-1.84248
-1.59626
-1.34202
-1.09605
-0.894789
-3.28745
-3.26246
-3.21246
-3.13738
-3.03706
-2.91118
-2.75921
-2.58027
-2.37306
-2.1359
-1.86678
-1.5632
-1.21826
-0.790733
-0.00309449
-3.4701
-3.44355
-3.3904
-3.31051
-3.20357
-3.06903
-2.90585
-2.71232
-2.48568
-2.22179
-1.915
-1.55884
-1.15185
-0.735577
-0.669947
-3.67119
-3.64311
-3.58691
-3.5024
-3.38925
-3.24675
-3.07356
-2.86735
-2.62414
-2.33748
-1.99749
-1.58978
-1.09189
-0.437009
0.814286
-3.89175
-3.8622
-3.80305
-3.71419
-3.59531
-3.44576
-3.2642
-3.04808
-2.79277
-2.49019
-2.12698
-1.68335
-1.14094
-0.552714
-0.538684
-4.13284
-4.10183
-4.03982
-3.94681
-3.82266
-3.667
-3.47882
-3.25601
-2.99421
-2.685
-2.31232
-1.84552
-1.22178
-0.269779
1.82423
-4.39545
-4.36298
-4.29812
-4.20104
-4.0719
-3.91079
-3.7175
-3.491
-3.22858
-2.92388
-2.56301
-2.11667
-1.53058
-0.780011
-0.643167
-4.6806
-4.6466
-4.57879
-4.47751
-4.34332
-4.17694
-3.97922
-3.75094
-3.49228
-3.20175
-2.87305
-2.48485
-1.9536
-0.864161
3.26894
-4.98934
-4.95371
-4.88269
-4.77684
-4.63708
-4.46483
-4.26216
-4.03195
-3.77813
-3.50611
-3.22439
-2.95238
-2.76423
-3.06208
-6.39383
-5.32282
-5.28537
-5.21077
-5.0997
-4.95339
-4.77383
-4.56421
-4.32935
-4.0766
-3.81718
-3.569
-3.36165
-3.23736
-3.15327
-1.92525
-5.68229
-5.64281
-5.56416
-5.44703
-5.29277
-5.10372
-4.88377
-4.63917
-4.37968
-4.12046
-3.88522
-3.71325
-3.68257
-4.03897
-6.13886
-6.06917
-6.02746
-5.94425
-5.82012
-5.65629
-5.45504
-5.22044
-4.95931
-4.68258
-4.40706
-4.1575
-3.96671
-3.85896
-3.71407
-2.27576
-6.485
-6.4409
-6.35274
-6.22079
-6.04578
-5.82951
-5.57552
-5.29028
-4.98461
-4.67562
-4.38896
-4.16248
-4.06114
-4.28751
-6.06188
-6.93145
-6.88491
-6.79164
-6.65132
-6.46393
-6.23015
-5.9523
-5.63541
-5.28895
-4.92867
-4.57862
-4.27134
-4.03573
-3.78615
-2.43217
-7.41019
-7.36138
-7.26318
-7.11455
-6.91426
-6.6614
-6.35616
-6.00108
-5.60285
-5.1746
-4.73856
-4.33041
-4.02003
-4.05189
-5.75017
-7.92281
-7.87212
-7.76972
-7.61362
-7.40109
-7.12901
-6.79461
-6.39669
-5.9376
-5.42594
-4.87911
-4.32158
-3.76663
-3.16059
-2.35958
-8.47061
-8.41876
-8.31354
-8.15187
-7.92925
-7.63987
-7.27715
-6.83477
-6.30884
-5.70168
-5.02709
-4.31095
-3.54872
-2.40485
1.58725
-9.0544
-9.00245
-8.89653
-8.73243
-8.50375
-8.20165
-7.815
-7.33086
-6.73646
-6.02422
-5.20393
-4.33231
-3.59583
-3.62722
-7.17115
-9.67423
-9.62362
-9.51988
-9.35783
-9.1292
-8.82214
-8.42052
-7.9035
-7.24591
-6.42179
-5.4164
-4.25983
-3.1097
-2.41056
-2.9131
-10.3292
-10.2816
-10.1837
-10.0294
-9.80911
-9.50826
-9.10616
-8.57373
-7.87098
-6.94525
-5.73384
-4.18286
-2.31035
-0.359606
0.995939
-11.0171
-10.9746
-10.8867
-10.7469
-10.5449
-10.2647
-9.8823
-9.3622
-8.65088
-7.66707
-6.28711
-4.32919
-1.5653
2.10447
5.8463
-11.7346
-11.6992
-11.6256
-11.5076
-11.335
-11.092
-10.7541
-10.2835
-9.62
-8.66398
-7.24171
-5.03525
-1.44929
4.51828
13.2951
-12.4766
-12.4503
-12.3952
-12.3061
-12.174
-11.9851
-11.7179
-11.3386
-10.7923
-9.98465
-8.74088
-6.6993
-2.98717
4.981
26.8389
-151.525
-90.9894
-63.5524
-50.4395
-43.4148
-39.2183
-36.4908
-34.6096
-33.2604
-32.2713
-31.5417
-31.0102
-30.6383
-30.402
-30.287
-188.65
-85.13
-56.4216
-45.3561
-39.8046
-36.5056
-34.3333
-32.8103
-31.7012
-30.8775
-30.2636
-29.8129
-29.4956
-29.2932
-29.1946
48.9825
-27.3194
-37.0387
-36.4436
-34.6302
-33.0103
-31.725
-30.7234
-29.9436
-29.3378
-28.8721
-28.5227
-28.2731
-28.1123
-28.0335
-7.04467
-15.7473
-24.8186
-28.3769
-29.3213
-29.2825
-28.9195
-28.4825
-28.0651
-27.7009
-27.3999
-27.1632
-26.9889
-26.8744
-26.8177
27.1519
-3.91996
-16.4269
-22.1255
-24.6951
-25.78
-26.1653
-26.2278
-26.1496
-26.0199
-25.8828
-25.7603
-25.663
-25.5963
-25.5625
-1.25425
-4.98561
-12.7632
-18.047
-21.0998
-22.7632
-23.6352
-24.0707
-24.2698
-24.3441
-24.3557
-24.3397
-24.3159
-24.2953
-24.2837
12.1326
-3.24208
-10.8314
-15.5177
-18.4693
-20.2959
-21.4082
-22.0777
-22.4767
-22.7116
-22.8476
-22.9246
-22.9665
-22.9879
-22.9968
-3.00542
-6.90569
-10.9154
-14.193
-16.62
-18.3246
-19.4886
-20.2726
-20.7975
-21.1477
-21.3806
-21.5336
-21.6314
-21.6891
-21.716
-15.435
-10.4939
-11.5079
-13.459
-15.2722
-16.7286