/*--------------------------------*- C++ -*----------------------------------*\
| =========                 |                                                 |
| \\      /  F ield         | OpenFOAM: The Open Source CFD Toolbox           |
|  \\    /   O peration     | Version:  5.x                                   |
|   \\  /    A nd           | Web:      www.OpenFOAM.org                      |
|    \\/     M anipulation  |                                                 |
\*---------------------------------------------------------------------------*/
FoamFile
{
    version     2.0;
    format      ascii;
    class       volScalarField;
    location    "4";
    object      gradTy;
}
// * * * * * * * * * * * * * * * * * * * * * * * * * * * * * * * * * * * * * //

dimensions      [0 -1 0 1 0 0 0];

internalField   nonuniform List<scalar> 
6300
(
32284.8
32254.3
32223.6
32192.9
32161.8
32130.5
32098.8
32066.7
32034.1
32000.9
31967.3
31933
31898.2
31862.7
31826.7
0.0527296
0.157694
0.26115
0.361988
0.458946
0.550564
0.635171
0.710902
0.775761
0.827745
0.865023
0.886182
0.890504
0.878237
0.850779
0.0884126
0.264457
0.438101
0.607556
0.770758
0.925295
1.06836
1.19678
1.30708
1.39573
1.4594
1.49544
1.50234
1.48033
1.4317
0.12488
0.373628
0.619255
0.859393
1.09126
1.31152
1.51623
1.70079
1.86009
1.98873
2.08146
2.13387
2.14316
2.10908
2.03476
0.162359
0.485922
0.8059
1.1195
1.42336
1.71331
1.98425
2.23008
2.44377
2.61763
2.74386
2.81544
2.82735
2.77809
2.67119
0.200993
0.601801
0.99892
1.38937
1.76938
2.13411
2.47739
2.79152
3.06729
3.29416
3.4609
3.55667
3.57272
3.50474
3.3556
0.240804
0.72137
1.19861
1.66967
2.13068
2.57637
2.99967
3.39132
3.7397
4.03083
4.24893
4.37764
4.40214
4.31256
4.10859
0.281659
0.844264
1.4045
1.96002
2.50729
3.04103
3.5536
4.03442
4.46937
4.84053
5.12637
5.30281
5.34562
5.2348
4.96139
0.323229
0.969528
1.6151
2.25863
2.89744
3.52686
4.1393
4.72338
5.26283
5.73557
6.11323
6.36161
6.44277
6.31962
5.96436
0.36496
1.09552
1.82775
2.56195
3.29701
4.02966
4.75337
5.45699
6.12302
6.72571
7.22939
7.58763
7.74424
7.63657
7.20162
0.406052
1.21983
2.03845
2.86441
3.699
4.5414
5.38754
6.2282
7.04655
7.81488
8.49099
9.01529
9.31001
9.28081
8.81363
0.445466
1.33932
2.24181
3.15826
4.09316
5.04943
6.0272
7.02174
8.02011
8.99627
9.90445
10.6725
11.1997
11.363
11.0155
0.481962
1.45016
2.43121
3.43367
4.46596
5.53597
6.65012
7.81145
9.01591
10.2457
11.458
12.5707
13.4532
13.9561
14.0254
0.514179
1.54817
2.59921
3.67925
4.80106
5.97839
7.22588
8.55804
9.98644
11.5125
13.1112
14.6992
16.0863
16.9828
17.4955
0.540771
1.62911
2.73821
3.88308
5.08063
6.35067
7.71696
9.20841
10.8594
12.7066
14.7752
17.0285
19.2101
20.3933
17.9947
31793.1
31762.2
31731
31699.4
31667.5
31635.3
31602.8
31570.1
31537.2
31504
31470.6
31437.1
31403.4
31369.6
31335.6
31301.6
31267.5
31233.4
31199.3
31165.1
31131
31096.8
31062.7
31028.5
30994.4
30960.3
30926.2
30892.1
30858
30824
30789.9
30756
30722
30688.2
30654.4
30620.6
30586.9
30553.3
30519.7
30486.2
30452.7
30419.2
30385.8
30352.4
30319.1
30285.9
30252.7
30219.6
30186.5
30153.5
30120.6
30087.8
30055
30022.3
29989.7
29957.1
29924.6
29892.1
29859.6
29827.3
29795
29762.7
29730.6
29698.5
29666.5
29634.6
29602.8
29571
29539.3
29507.7
29476.1
29444.6
29413.1
29381.7
29350.3
29319
29287.8
29256.6
29225.5
29194.4
29163.4
29132.3
29101.3
29070.3
29039.3
29008.2
28977
28945.7
28914.4
28882.9
0.814028
0.774051
0.729736
0.683251
0.636411
0.590437
0.545828
0.502382
0.459363
0.415785
0.370743
0.323727
0.274855
0.224964
0.175552
0.128561
0.0860614
0.0498816
0.0212739
0.000675385
-0.0123905
-0.0192571
-0.0219158
-0.02271
-0.0239724
-0.0276636
-0.0350712
-0.0466166
-0.0618064
-0.0793393
-0.0973546
-0.11378
-0.126717
-0.134787
-0.13738
-0.134763
-0.12803
-0.118922
-0.109525
-0.101929
-0.0978749
-0.0984618
-0.103963
-0.113775
-0.126527
-0.140312
-0.153036
-0.16278
-0.168143
-0.168481
-0.164006
-0.155745
-0.145354
-0.134834
-0.126188
-0.121085
-0.120573
-0.1249
-0.133465
-0.144919
-0.157396
-0.168844
-0.177381
-0.181623
-0.18091
-0.17541
-0.166066
-0.15442
-0.142326
-0.131619
-0.123781
-0.119656
-0.119267
-0.121769
-0.125538
-0.128402
-0.127968
-0.121995
-0.108749
-0.0872892
-0.0576437
-0.0208694
0.0210136
0.0651909
0.108313
0.14682
0.177319
0.196959
0.203783
0.196982
1.36688
1.29669
1.21936
1.13898
1.05895
0.981509
0.907455
0.836184
0.766025
0.694804
0.620515
0.541945
0.459139
0.373592
0.288134
0.206515
0.132765
0.0704634
0.022077
-0.0115094
-0.0311801
-0.0394731
-0.0401935
-0.0378229
-0.0368226
-0.0409395
-0.052625
-0.0726592
-0.10005
-0.132233
-0.165555
-0.195953
-0.21971
-0.234134
-0.238039
-0.231942
-0.217965
-0.199471
-0.180496
-0.165076
-0.156574
-0.15712
-0.167245
-0.185781
-0.210054
-0.236358
-0.260606
-0.279068
-0.289029
-0.289249
-0.280157
-0.263755
-0.243256
-0.222533
-0.205466
-0.195288
-0.194035
-0.202192
-0.2186
-0.24064
-0.264684
-0.286741
-0.303158
-0.311261
-0.309797
-0.29912
-0.28109
-0.258721
-0.235637
-0.215429
-0.201014
-0.194088
-0.194773
-0.201508
-0.211225
-0.219784
-0.222605
-0.215388
-0.194789
-0.158954
-0.107843
-0.0433155
0.0309899
0.109971
0.187523
0.257124
0.312506
0.34837
0.361048
0.349018
1.93605
1.82966
1.71346
1.59428
1.47785
1.36779
1.26517
1.16848
1.07431
0.978341
0.876554
0.766371
0.64748
0.522202
0.395303
0.273257
0.163103
0.0711307
0.00169393
-0.0436048
-0.0662226
-0.0704604
-0.0627866
-0.0508246
-0.0421635
-0.0431743
-0.0580123
-0.0879622
-0.131243
-0.183336
-0.237814
-0.287535
-0.325986
-0.348474
-0.352945
-0.340309
-0.314244
-0.280554
-0.246189
-0.218098
-0.202082
-0.201824
-0.218255
-0.24936
-0.290497
-0.335201
-0.376345
-0.407438
-0.423782
-0.423266
-0.406677
-0.377507
-0.341321
-0.30481
-0.27467
-0.256486
-0.253793
-0.267453
-0.295477
-0.333325
-0.374689
-0.412615
-0.440767
-0.454535
-0.451812
-0.433282
-0.402229
-0.363921
-0.324677
-0.290771
-0.267338
-0.25744
-0.261447
-0.276836
-0.298466
-0.319318
-0.331591
-0.327946
-0.302664
-0.252517
-0.177264
-0.0797492
0.0343233
0.156896
0.278267
0.387982
0.475878
0.533241
0.553963
0.535464
2.52921
2.37675
2.21184
2.04565
1.88756
1.74337
1.61433
1.49715
1.3852
1.27026
1.14468
1.00334
0.845017
0.673147
0.495481
0.322871
0.167256
0.0393433
-0.0534525
-0.108366
-0.127738
-0.118606
-0.0915609
-0.0590795
-0.0335835
-0.0255046
-0.0416457
-0.0840757
-0.149754
-0.231015
-0.316929
-0.395354
-0.45526
-0.488767
-0.492494
-0.468022
-0.421515
-0.362619
-0.302856
-0.253742
-0.224908
-0.222508
-0.248145
-0.298504
-0.365815
-0.439182
-0.506569
-0.557057
-0.582822
-0.580438
-0.551325
-0.501372
-0.439865
-0.377924
-0.326667
-0.295388
-0.29001
-0.31204
-0.358216
-0.420957
-0.489649
-0.552573
-0.599093
-0.621563
-0.616596
-0.585482
-0.53382
-0.470473
-0.406033
-0.351036
-0.314174
-0.30077
-0.311733
-0.343178
-0.386826
-0.431203
-0.463495
-0.471658
-0.44634
-0.382231
-0.278735
-0.140021
0.0254222
0.205555
0.385801
0.550266
0.68322
0.770882
0.803359
0.776356
3.15603
2.94179
2.71208
2.48534
2.27724
2.09716
1.94639
1.8183
1.70037
1.57748
1.43553
1.26473
1.06206
0.832428
0.58837
0.348
0.131505
-0.0430257
-0.163164
-0.224321
-0.230315
-0.192564
-0.12818
-0.0572929
5.90755e-05
0.0270232
0.0125583
-0.0467305
-0.145847
-0.272015
-0.406849
-0.529863
-0.622569
-0.671966
-0.672671
-0.627491
-0.546649
-0.445955
-0.344214
-0.260207
-0.209692
-0.202842
-0.242461
-0.323259
-0.432437
-0.551797
-0.661152
-0.742301
-0.782421
-0.776124
-0.726007
-0.641897
-0.539059
-0.435677
-0.349919
-0.297015
-0.286781
-0.32188
-0.397122
-0.50004
-0.612933
-0.716174
-0.792066
-0.82812
-0.819047
-0.767285
-0.682254
-0.578612
-0.473804
-0.385199
-0.327244
-0.309021
-0.332533
-0.391958
-0.474141
-0.560498
-0.630146
-0.663586
-0.645877
-0.56866
-0.430922
-0.238782
-0.00463233
0.254052
0.516058
0.757923
0.955781
1.08798
1.1384
1.09969
3.83012
3.52911
3.20803
2.89821
2.62655
2.40874
2.2458
2.1248
2.02268
1.91214
1.7679
1.57202
1.31792
1.01247
0.675934
0.338736
0.0353092
-0.203737
-0.357829
-0.41973
-0.395906
-0.304897
-0.174186
-0.0360381
0.0774368
0.139185
0.131285
0.0479417
-0.10301
-0.300563
-0.513817
-0.708042
-0.85227
-0.925311
-0.918954
-0.838341
-0.700401
-0.530831
-0.360063
-0.218477
-0.13163
-0.11629
-0.177512
-0.307178
-0.484428
-0.678852
-0.856381
-0.98666
-1.04889
-1.03494
-0.949671
-0.809423
-0.639068
-0.468082
-0.32589
-0.237228
-0.218301
-0.273942
-0.396203
-0.564786
-0.750141
-0.91918
-1.04243
-1.09968
-1.08299
-0.997017
-0.857507
-0.688449
-0.518258
-0.375245
-0.283112
-0.257189
-0.30163
-0.407975
-0.555453
-0.71386
-0.848941
-0.929172
-0.931107
-0.842239
-0.661449
-0.39804
-0.0700191
0.297757
0.675312
1.02894
1.32287
1.52284
1.60179
1.54644
4.57313
4.14533
3.6878
3.25612
2.89833
2.6413
2.48482
2.40411
2.35712
2.29533
2.1746
1.96314
1.6477
1.23727
0.764433
0.280822
-0.153615
-0.486806
-0.685273
-0.738607
-0.65827
-0.474428
-0.23093
0.0207174
0.229272
0.351613
0.358618
0.23994
0.00690034
-0.306533
-0.648219
-0.958251
-1.18452
-1.29302
-1.2722
-1.13178
-0.899739
-0.617468
-0.333929
-0.0979611
0.0493641
0.080474
-0.0140431
-0.222615
-0.511727
-0.830276
-1.11969
-1.32905
-1.42511
-1.3965
-1.25254
-1.02034
-0.740022
-0.459063
-0.224813
-0.0770621
-0.0424805
-0.130105
-0.328614
-0.605413
-0.910875
-1.18816
-1.38786
-1.47774
-1.44673
-1.30386
-1.07533
-0.799942
-0.523597
-0.292043
-0.14366
-0.104048
-0.181603
-0.364774
-0.62104
-0.900818
-1.14673
-1.30751
-1.3471
-1.24819
-1.01095
-0.650347
-0.192663
0.327369
0.869003
1.38589
1.82525
2.13191
2.25852
2.1793
5.42392
4.80435
4.13034
3.50761
3.02504
2.72907
2.61474
2.63488
2.71284
2.76339
2.71196
2.50397
2.11424
1.55193
0.868422
0.152077
-0.488359
-0.963907
-1.22174
-1.25
-1.06971
-0.729896
-0.299445
0.139494
0.50522
0.73009
0.766899
0.596584
0.232541
-0.271857
-0.828242
-1.32912
-1.68639
-1.84701
-1.79772
-1.5572
-1.17145
-0.705978
-0.239335
0.150154
0.397662
0.458095
0.31362
-0.0221204
-0.496683
-1.0237
-1.49832
-1.83462
-1.98091
-1.92419
-1.68253
-1.3006
-0.841945
-0.382827
0.000775307
0.246024
0.309274
0.173363
-0.148328
-0.604805
-1.11223
-1.56888
-1.89147
-2.0299
-1.9716
-1.7341
-1.36066
-0.912838
-0.464465
-0.0891031
0.152401
0.217789
0.0904925
-0.216332
-0.652786
-1.13656
-1.5671
-1.86037
-1.96252
-1.85334
-1.53811
-1.04246
-0.405102
0.325853
1.09831
1.85443
2.51871
3.00021
3.21162
3.09868
6.45941
5.54177
4.49904
3.55728
2.88301
2.55525
2.55103
2.78238
3.108
3.37831
3.47476
3.30648
2.8293
2.0411
1.01967
-0.0860038
-1.06057
-1.75456
-2.08881
-2.06176
-1.71092
-1.11591
-0.380221
0.363656
0.98396
1.37934
1.4734
1.23216
0.660248
-0.162362
-1.08824
-1.90685
-2.47146
-2.70332
-2.59866
-2.19179
-1.55803
-0.796223
-0.0336936
0.602669
1.0153
1.13073
0.916649
0.378226
-0.406157
-1.29264
-2.07617
-2.61387
-2.8291
-2.71823
-2.31458
-1.69137
-0.944593
-0.197904
0.425539
0.831136
0.947768
0.744302
0.226002
-0.530884
-1.38673
-2.14269
-2.6603
-2.86539
-2.75454
-2.36012
-1.75312
-1.02657
-0.300228
0.306561
0.702037
0.817063
0.621084
0.118753
-0.616409
-1.44896
-2.18516
-2.68844
-2.88226
-2.75522
-2.32507
-1.63864
-0.752342
0.26456
1.35112
2.45521
3.47536
4.25745
4.63176
4.47492
7.84466
6.45929
4.72231
3.22174
2.24197
1.91554
2.14806
2.79412
3.58281
4.24359
4.61874
4.55379
3.99222
2.86608
1.29221
-0.512907
-2.03687
-3.06325
-3.47623
-3.33979
-2.70379
-1.70457
-0.472826
0.76572
1.78655
2.46243
2.66269
2.34384
1.44892
0.0957873
-1.50275
-2.8504
-3.73577
-4.04426
-3.83485
-3.15315
-2.12906
-0.887563
0.353569
1.3773
2.06083
2.27781
1.98667
1.1327
-0.168661
-1.70991
-3.00807
-3.85751
-4.14696
-3.93392
-3.26287
-2.26014
-1.04717
0.164436
1.16394
1.8323
2.04714
1.76855
0.943843
-0.314509
-1.80513
-3.05976
-3.8792
-4.1559
-3.94583
-3.2923
-2.31779
-1.14002
0.036124
1.00648
1.65549
1.86415
1.59279
0.78909
-0.439818
-1.90009
-3.13865
-3.96215
-4.26405
-4.0936
-3.48107
-2.52265
-1.28765
0.102958
1.57871
3.17691
4.77483
6.10196
6.81684
6.61991
9.95635
7.8831
4.60516
2.13619
0.660109
0.47091
1.14957
2.60043
4.24178
5.52016
6.39643
6.51619
5.9681
4.33576
1.89771
-1.34473
-3.72974
-5.2553
-5.65487
-5.3373
-4.21975
-2.62813
-0.575303
1.48122
3.08582
4.23033
4.59944
4.285
2.89735
0.707233
-2.2786
-4.45972
-5.83089
-6.13106
-5.75124
-4.60766
-3.01327
-0.978466
1.05379
2.64174
3.77808
4.15651
3.86707
2.5313
0.41418
-2.47731
-4.58622
-5.90766
-6.18847
-5.80925
-4.68889
-3.13174
-1.1479
0.832112
2.37909
3.48643
3.85698
3.57909
2.28605
0.23625
-2.56344
-4.60357
-5.87974
-6.1474
-5.77578
-4.68674
-3.17523
-1.25117
0.668741
2.16906
3.24297
3.60241
3.33101
2.07167
0.0698989
-2.67055
-4.68983
-5.98698
-6.32603
-6.06858
-5.13516
-3.80497
-2.04705
-0.18123
1.63001
3.89904
6.46432
8.82813
10.3149
10.1701
13.667
11.0417
3.3231
-0.379152
-2.7749
-2.22347
-0.960879
2.13242
5.4234
7.37578
9.26352
9.44031
9.50529
6.96566
3.66153
-3.4113
-6.66024
-9.06884
-8.86622
-8.48681
-6.41844
-4.21587
-0.683135
2.84745
5.04757
7.11478
7.52049
7.77155
5.5013
2.46447
-4.21327
-7.23544
-9.46829
-9.19709
-8.76749
-6.71138
-4.53171
-1.06575
2.39377
4.55645
6.5867
6.99688
7.25416
5.05499
2.11207
-4.37167
-7.29837
-9.45635
-9.18049
-8.75186
-6.74391
-4.61781
-1.24317
2.12331
4.22728
6.20149
6.60049
6.85142
4.71792
1.86682
-4.41557
-7.24749
-9.33255
-9.05949
-8.63884
-6.68956
-4.62677
-1.35638
1.90555
3.94562
5.85929
6.24901
6.49186
4.42333
1.6433
-4.4795
-7.28084
-9.39147
-9.24696
-9.01696
-7.36059
-5.70319
-2.96177
-0.386769
1.02217
4.19467
8.44418
12.8175
16.1626
16.6448
20.6892
21.535
-3.74223
-4.77588
-10.4539
-5.94197
-5.7076
1.37974
8.53261
9.32445
14.5944
12.5254
16.7931
10.6964
10.8522
-10.9843
-10.8009
-16.6426
-12.3322
-14.0685
-8.81046
-7.71912
-0.787941
6.12949
7.20068
12.3918
10.6642
14.8888
9.20905
9.46458
-11.412
-11.1479
-16.7116
-12.4913
-14.126
-8.9931
-7.90251
-1.14386
5.60114
6.66176
11.7281
10.0573
14.1785
8.6496
8.90865
-11.3882
-11.1176
-16.5098
-12.3926
-13.9688
-8.96916
-7.90186
-1.32679
5.23241
6.26226
11.1847
9.55715
13.5572
8.18306
8.43836
-11.2365
-10.9669
-16.1811
-12.1841
-13.7032
-8.85585
-7.81732
-1.44945
4.90176
5.90413
10.67
9.10703
12.981
7.79948
8.03027
-11.0714
-10.8664
-16.0434
-12.291
-14.0193
-9.58747
-9.16241
-3.63678
1.08685
-2.12518
2.93909
10.2455
18.287
26.1329
30.5193
30.675
69.646
-45.716
-2.48243
-32.8039
-3.4984
-20.32
0.535267
20.8043
4.82745
30.496
6.48876
39.0086
5.42685
49.7152
-50.2623
-6.26172
-38.8315
-7.08718
-29.7179
-5.1983
-19.6275
-0.868671
17.8344
3.42552
27.636
5.24122
36.2727
4.37472
46.8996
-49.0487
-6.66306
-38.0391
-7.3491
-29.2249
-5.4487
-19.4301
-1.19713
16.9992
3.00402
26.5763
4.78275
35.004
3.91489
45.3111
-48.0168
-6.7769
-37.2517
-7.40088
-28.6496
-5.52662
-19.1119
-1.38234
16.309
2.69701
25.6052
4.41503
33.7671
3.54667
43.7142
-46.7725
-6.78515
-36.2893
-7.36122
-27.9308
-5.53317
-18.6779
-1.51433
15.6045
2.44724
24.5983
4.13966
32.5141
3.38549
42.2596
-45.4618
-6.69902
-35.5506
-7.43993
-27.8895
-6.04168
-19.9639
-3.15442
13.9902
-17.1879
-1.54272
10.9903
24.0407
41.0868
68.5175
28848.2
28810.3
28772.2
28734.1
28695.9
28657.8
28619.7
28581.8
28543.9
28506.1
28468.4
28430.9
28393.4
28356
28318.7
0.175023
0.134752
0.0830155
0.0257512
-0.0309987
-0.0819107
-0.12291
-0.151386
-0.16615
-0.16724
-0.155645
-0.133038
-0.101544
-0.0635589
-0.0216281
0.309549
0.237092
0.14432
0.0422107
-0.0582521
-0.147608
-0.218826
-0.267594
-0.292155
-0.292864
-0.271672
-0.231625
-0.176461
-0.110311
-0.0375122
0.473529
0.359803
0.21501
0.0570696
-0.096571
-0.231407
-0.337158
-0.407984
-0.441987
-0.440369
-0.406538
-0.345318
-0.262355
-0.16371
-0.0556209
0.683676
0.513588
0.298854
0.0676359
-0.153688
-0.344285
-0.490409
-0.585192
-0.627435
-0.620086
-0.56879
-0.480751
-0.363929
-0.226554
-0.0768815
0.962803
0.71202
0.399185
0.068312
-0.241525
-0.501628
-0.694997
-0.814933
-0.862473
-0.843746
-0.767784
-0.644967
-0.486056
-0.301694
-0.102232
1.34337
0.972493
0.51755
0.0479504
-0.379092
-0.7257
-0.973012
-1.11706
-1.16377
-1.12464
-1.01363
-0.845272
-0.633632
-0.391934
-0.132584
1.87325
1.317
0.650549
-0.0149815
-0.597101
-1.04907
-1.35428
-1.51652
-1.55091
-1.47739
-1.31682
-1.08886
-0.811264
-0.499825
-0.168752
2.62547
1.77168
0.782591
-0.161352
-0.945283
-1.51919
-1.87853
-2.04384
-2.04594
-1.91721
-1.68738
-1.38207
-1.02274
-0.627348
-0.21135
3.71522
2.36163
0.869459
-0.467763
-1.50352
-2.20389
-2.5968
-2.73436
-2.67178
-2.4581
-2.13343
-1.72931
-1.27025
-0.77548
-0.260648
5.32988
3.09023
0.80141
-1.07562
-2.39714
-3.19607
-3.57044
-3.62502
-3.44873
-3.10998
-2.65891
-2.13149
-1.55348
-0.943669
-0.316408
7.7769
3.86798
0.32158
-2.23896
-3.81333
-4.61279
-4.86389
-4.74654
-4.38812
-3.87417
-3.26073
-2.58425
-1.8685
-1.1293
-0.377723
11.5222
4.28331
-1.14408
-4.38848
-6.00438
-6.57785
-6.52577
-6.10912
-5.48305
-4.73783
-3.92559
-3.07627
-2.20695
-1.32732
-0.442902
16.9182
2.88719
-4.79257
-8.16649
-9.23785
-9.16843
-8.55219
-7.68112
-6.6971
-5.6685
-4.62753
-3.58827
-2.55571
-1.53013
-0.509461
21.5076
-4.86051
-12.7468
-14.247
-13.6121
-12.3058
-10.8334
-9.36605
-7.9557
-6.61155
-5.32772
-4.09358
-2.89748
-1.72802
-0.574273
0.55947
1.686
2.83579
4.02601
5.2766
6.61198
8.06349
9.6731
11.4988
13.6222
16.1557
19.2322
22.882
26.2884
23.614
0.570686
1.72001
2.89373
4.11002
5.39028
6.76131
8.25862
9.93207
11.8559
14.148
17.0113
20.8348
26.4864
36.3384
58.5345
0.576382
1.73708
2.92211
4.14961
5.44095
6.82296
8.33144
10.0172
11.9572
14.2772
17.2003
21.1679
27.1738
37.8162
61.0412
0.57657
1.73725
2.921
4.14487
5.42866
6.79681
8.28117
9.92575
11.7948
13.9875
16.6638
20.0857
24.6412
30.5561
35.3303
0.571526
1.72139
2.89205
4.09853
5.35781
6.68996
8.11965
9.67843
11.4077
13.362
15.6096
18.2162
21.1649
24.0879
25.7705
0.561751
1.69111
2.83821
4.01552
5.23637
6.51538
7.8685
9.31274
10.8643
12.5329
14.3062
16.1093
17.7064
18.481
16.9376
0.547911
1.6485
2.76342
3.90227
5.07456
6.28933
7.55409
8.87254
10.2396
11.6311
12.9822
14.1454
14.819
14.4841
12.7489
0.53076
1.59594
2.67201
3.7658
4.88326
6.02859
7.20242
8.39859
9.59799
10.7573
11.7886
12.5216
12.6321
11.4596
7.25363
0.511067
1.53583
2.56831
3.61289
4.67263
5.74806
6.83525
7.9224
8.98421
9.97256
10.8021
11.3301
11.3363
10.5415
8.91211
0.489545
1.47038
2.45619
3.44946
4.4511
5.45938
6.46811
7.46382
8.42145
9.2981
10.0251
10.501
10.5966
10.2032
9.38657
0.466815
1.40146
2.33892
3.28022
4.22496
5.17039
6.11002
7.0317
7.91494
8.72759
9.42238
9.93593
10.1967
10.1588
9.90045
0.443379
1.33059
2.21897
3.10859
3.99837
4.88545
5.76441
6.62627
7.45748
8.23894
8.94558
9.54644
10.0042
10.2674
10.2338
0.419628
1.25892
2.09817
2.93685
3.77364
4.60616
5.43068
6.24215
7.03456
7.80226
8.54225
9.25638
9.94672
10.582
11.0059
0.395852
1.18728
1.97778
2.76643
3.5519
4.33242
5.10603
5.87127
6.62882
7.38485
8.15688
8.98285
9.92754
11.0435
12.0272
0.372268
1.11628
1.85867
2.59823
3.33359
4.06349
4.7872
5.50572
6.22416
6.95633
7.73406
8.62688
9.78945
11.5967
15.1049
0.349048
1.04641
1.74154
2.43293
3.1191
3.79887
4.47197
5.14025
5.80997
6.49618
7.23131
8.08362
9.20365
10.9689
14.5403
0.326339
0.978082
1.62702
2.27127
2.90904
3.53888
4.1601
4.7738
5.38434
6.00207
6.64722
7.35443
8.1698
9.08678
9.593
0.304279
0.91171
1.51575
2.1141
2.70451
3.28487
3.85348
4.40953
4.95373
5.48893
6.02002
6.55016
7.0654
7.48994
7.63092
0.283003
0.847697
1.40842
1.96246
2.50697
3.03902
3.55558
4.05351
4.52937
4.97867
5.39349
5.75625
6.024
6.09001
5.6753
0.26264
0.786439
1.30575
1.81743
2.31808
2.80393
3.27062
3.71281
4.12347
4.49235
4.80312
5.02834
5.1227
5.02394
4.72192
0.243305
0.728299
1.20839
1.68007
2.13948
2.58216
3.00268
3.39403
3.7466
4.04639
4.27216
4.39131
4.35551
4.09904
3.52492
0.225092
0.67357
1.11686
1.55123
1.97251
2.37579
2.755
3.10218
3.40638
3.65184
3.81526
3.86188
3.74159
3.39474
2.84086
0.208063
0.622447
1.03152
1.43148
1.81803
2.18614
2.52957
2.84019
3.10696
3.31428
3.43949
3.44838
3.285
2.83423
1.7337
0.192246
0.575012
0.952528
1.32104
1.67637
2.01364
2.32693
2.60866
2.84883
3.03376
3.14449
3.15453
3.028
2.72494
2.2702
0.177627
0.531223
0.879788
1.21976
1.54725
1.85781
2.14621
2.406
2.62905
2.80479
2.91943
2.95553
2.8936
2.72101
2.45713
0.164159
0.49093
0.813017
1.12716
1.42989
1.71738
1.98535
2.22888
2.44215
2.61825
2.74891
2.82463
2.83605
2.78047
2.68666
0.151767
0.45389
0.751765
1.0425
1.32311
1.5905
1.84148
2.07277
2.28107
2.46327
2.61657
2.73839
2.82503
2.86651
2.82901
0.140354
0.419803
0.695475
0.964866
1.22551
1.47504
1.71131
1.93262
2.13812
2.32837
2.5061
2.67658
2.8454
3.00741
3.12099
0.129817
0.38834
0.643551
0.893314
1.13563
1.36878
1.59152
1.80347
2.00578
2.20217
2.40067
2.61595
2.87053
3.18194
3.45763
0.120052
0.35918
0.595414
0.826935
1.05213
1.26977
1.47923
1.68103
1.87756
2.07453
2.2836
2.52804
2.85621
3.3813
4.41905
0.110964
0.332032
0.550551
0.764952
0.973893
1.17643
1.37227
1.56226
1.74905
1.93848
2.142
2.38198
2.70517
3.22468
4.28118
0.102476
0.306655
0.508552
0.706766
0.900107
1.08774
1.2694
1.44571
1.61872
1.79266
1.97509
2.17817
2.41782
2.69517
2.86558
0.0945243
0.282866
0.469113
0.651967
0.830292
1.00321
1.17024
1.33147
1.48776
1.64096
1.79385
1.94899
2.1043
2.23994
2.30221
0.0870647
0.260533
0.432033
0.600318
0.764236
0.922779
1.07512
1.22066
1.35896
1.4895
1.61105
1.71972
1.80445
1.83569
1.7335
0.0800654
0.239567
0.39719
0.551707
0.701919
0.846657
0.984743
1.1149
1.23554
1.3443
1.4372
1.5071
1.54175
1.52413
1.45317
0.0735035
0.219909
0.364508
0.506089
0.643409
0.775161
0.899876
1.01576
1.12038
1.21013
1.27933
1.31897
1.31537
1.24964
1.09356
0.0673599
0.201507
0.333926
0.463433
0.588773
0.708559
0.82115
0.924452
1.01557
1.09025
1.14201
1.16089
1.13214
1.03791
0.884733
0.0616147
0.184306
0.305371
0.423676
0.538
0.64696
0.748883
0.841613
0.92218
0.986295
1.02753
1.03588
0.994411
0.867123
0.538676
0.0562439
0.168238
0.278735
0.386688
0.49096
0.590255
0.68301
0.76723
0.840227
0.898242
0.935901
0.945495
0.916286
0.836045
0.712698
0.051217
0.15321
0.253869
0.352261
0.447381
0.538098
0.623074
0.700652
0.76869
0.824337
0.863776
0.882066
0.873614
0.834914
0.772273
0.0464969
0.139111
0.23058
0.320111
0.406868
0.489935
0.568283
0.640709
0.70577
0.761701
0.80635
0.837223
0.851962
0.850422
0.842306
0.042041
0.125811
0.20864
0.289893
0.368922
0.445057
0.517613
0.585891
0.649201
0.706911
0.758507
0.803599
0.84163
0.870514
0.88182
0.0378029
0.113165
0.187798
0.261226
0.332991
0.402673
0.469925
0.534533
0.596533
0.656382
0.715194
0.774897
0.837667
0.902831
0.959187
0.0337348
0.101028
0.167797
0.233718
0.298513
0.361984
0.42408
0.484998
0.545372
0.606585
0.671279
0.744081
0.83206
0.941287
1.04753
0.0297901
0.0892558
0.148387
0.206997
0.26496
0.322259
0.379063
0.435852
0.493641
0.554385
0.621749
0.702746
0.811717
0.981839
1.3042
0.0259258
0.0777182
0.129344
0.18073
0.231874
0.282886
0.334066
0.386021
0.43987
0.497603
0.56277
0.642002
0.748932
0.916694
1.24677
0.0221034
0.0662987
0.11047
0.154637
0.198886
0.243404
0.288539
0.334886
0.383416
0.435672
0.49404
0.562043
0.643924
0.738863
0.800795
0.0182899
0.0548982
0.091601
0.128493
0.165718
0.203501
0.242179
0.282245
0.324388
0.36951
0.418636
0.472465
0.529871
0.583981
0.618362
0.0144572
0.043434
0.0726048
0.102121
0.132169
0.162985
0.194866
0.228173
0.263303
0.300582
0.339983
0.380421
0.418127
0.442821
0.426954
0.0105818
0.0318373
0.053372
0.0753849
0.0980933
0.121736
0.14657
0.172845
0.200737
0.230195
0.260624
0.290291
0.315436
0.32985
0.330818
0.0066434
0.0200487
0.0338105
0.0481706
0.0633745
0.0796681
0.0972834
0.116405
0.137096
0.159147
0.181808
0.203317
0.220212
0.226232
0.208123
0.00262343
0.0080145
0.0138369
0.0203749
0.0279051
0.0366894
0.0469592
0.0588853
0.0725199
0.0876892
0.103805
0.119561
0.132557
0.139385
0.140319
-0.00149596
-0.00431732
-0.00663019
-0.0081053
-0.00842933
-0.00731374
-0.00450682
0.000188836
0.00688952
0.0155862
0.0260643
0.0377363
0.049198
0.0566454
0.046459
-0.00573308
-0.0170003
-0.0276758
-0.0373803
-0.0457576
-0.0524842
-0.057276
-0.0598904
-0.0601162
-0.0577423
-0.0524927
-0.0439295
-0.0313603
-0.0138368
0.0100583
-0.0101076
-0.0300924
-0.0493926
-0.0675723
-0.0842265
-0.0989913
-0.111549
-0.121619
-0.128917
-0.133056
-0.133338
-0.128364
-0.115346
-0.0887325
-0.0354357
-0.0146414
-0.0436581
-0.0718843
-0.0988192
-0.124002
-0.147024
-0.167542
-0.185263
-0.1999
-0.211036
-0.217822
-0.218371
-0.208761
-0.182145
-0.13279
-0.0193594
-0.0577709
-0.0952696
-0.131279
-0.165271
-0.19679
-0.225468
-0.251038
-0.273304
-0.292027
-0.306624
-0.315419
-0.313972
-0.291332
-0.220144
-0.0242903
-0.0725156
-0.119686
-0.165135
-0.208253
-0.248521
-0.285545
-0.3191
-0.349156
-0.375871
-0.399441
-0.419566
-0.433884
-0.434218
-0.403657
-0.0294671
-0.0879911
-0.145295
-0.200605
-0.253208
-0.302497
-0.348024
-0.389582
-0.427319
-0.461887
-0.494636
-0.527731
-0.56349
-0.598541
-0.585686
-0.0349281
-0.104312
-0.172287
-0.237951
-0.30046
-0.359079
-0.413251
-0.46271
-0.507671
-0.549154
-0.589577
-0.63403
-0.69357
-0.796113
-1.03134
-0.0407168
-0.121608
-0.200881
-0.277482
-0.350407
-0.418743
-0.481743
-0.538951
-0.590429
-0.637145
-0.681707
-0.729835
-0.793769
-0.901518
-1.12561
-0.0468812
-0.140027
-0.231328
-0.319563
-0.403537
-0.482107
-0.554249
-0.619163
-0.676482
-0.726619
-0.771347
-0.814649
-0.863521
-0.926103
-0.991708
-0.0534727
-0.159726
-0.263901
-0.3646
-0.460413
-0.549929
-0.631766
-0.704641
-0.767513
-0.819839
-0.861963
-0.895578
-0.923737
-0.948565
-0.962375
-0.0605441
-0.180867
-0.298886
-0.413025
-0.521657
-0.623078
-0.715499
-0.797056
-0.865859
-0.920133
-0.958476
-0.980281
-0.986251
-0.978662
-0.960909
-0.068146
-0.203608
-0.336561
-0.465271
-0.587903
-0.702471
-0.806771
-0.898319
-0.974286
-1.03148
-1.06646
-1.07597
-1.05817
-1.0158
-0.963069
-0.0763239
-0.228088
-0.37718
-0.521734
-0.659746
-0.788988
-0.906892
-1.0104
-1.09574
-1.15824
-1.19213
-1.19061
-1.14712
-1.06014
-0.947567
-0.0851145
-0.254424
-0.420949
-0.582737
-0.737675
-0.883373
-1.01701
-1.13508
-1.23305
-1.30488
-1.34237
-1.33439
-1.26628
-1.12223
-0.912669
-0.094543
-0.282692
-0.468003
-0.648494
-0.822015
-0.986131
-1.13793
-1.2737
-1.3885
-1.47535
-1.52418
-1.51991
-1.43816
-1.2298
-0.742553
-0.104622
-0.312929
-0.518404
-0.719087
-0.912881
-1.09744
-1.26997
-1.4269
-1.56334
-1.67221
-1.74286
-1.75923
-1.69796
-1.53103
-1.26539
-0.115351
-0.34513
-0.57213
-0.794461
-1.01016
-1.2171
-1.41283
-1.59431
-1.75733
-1.8956
-1.99923
-2.05245
-2.03113
-1.90081
-1.60666
-0.126721
-0.37926
-0.629096
-0.874439
-1.11351
-1.34453
-1.56559
-1.77454
-1.9685
-2.14305
-2.29058
-2.39744
-2.44
-2.38433
-2.22056
-0.138718
-0.415267
-0.689179
-0.958768
-1.22246
-1.47886
-1.72676
-1.96517
-2.19315
-2.40926
-2.61018
-2.78706
-2.91706
-2.94293
-2.71638
-0.151329
-0.453103
-0.752262
-1.04719
-1.33648
-1.61909
-1.89452
-2.16305
-2.42602
-2.68602
-2.94645
-3.20925
-3.46642
-3.67682
-3.73918
-0.164554
-0.492755
-0.818282
-1.13952
-1.45513
-1.7643
-2.06705
-2.36477
-2.66097
-2.96246
-3.28106
-3.63533
-4.04826
-4.51351
-4.76152
-0.178408
-0.534263
-0.887282
-1.23574
-1.57824
-1.91396
-2.24309
-2.56755
-2.89222
-3.22701
-3.5909
-4.02067
-4.59375
-5.50106
-7.33224
-0.192928
-0.577738
-0.959444
-1.33611
-1.70607
-2.06819
-2.42235
-2.77018
-3.11645
-3.47136
-3.85497
-4.30649
-4.90713
-5.84701
-7.65406
-0.208175
-0.623368
-1.0351
-1.44113
-1.83933
-2.22795
-2.606
-2.97389
-3.33466
-3.69576
-4.07188
-4.48875
-4.98492
-5.59075
-6.15719
-0.224223
-0.671398
-1.11473
-1.55158
-1.97924
-2.39506
-2.79668
-3.18254
-3.55264
-3.90971
-4.26049
-4.61592
-4.98655
-5.36184
-5.65951
-0.241155
-0.722095
-1.19885
-1.6684
-2.12737
-2.57202
-2.99832
-3.40212
-3.77965
-4.12804
-4.44585
-4.73253
-4.98493
-5.18682
-5.28318
-0.259036
-0.775695
-1.28799
-1.79256
-2.28543
-2.76172
-3.21556
-3.63995
-4.02689
-4.36759
-4.65282
-4.87294
-5.01838
-5.08506
-5.10487
-0.277897
-0.832327
-1.38247
-1.92485
-2.45499
-2.96702
-3.45325
-3.90378
-4.30621
-4.64567
-4.90499
-5.06519
-5.10651
-5.01585
-4.82376
-0.297705
-0.89193
-1.48236
-2.06563
-2.63711
-3.19022
-3.71573
-4.201
-4.62927
-4.97938
-5.22599
-5.33998
-5.28628
-5.01706
-4.53561
-0.318337
-0.95417
-1.5872
-2.2146
-2.83199
-3.43259
-4.00616
-4.53778
-5.00659
-5.38496
-5.63908
-5.7312
-5.61572
-5.16564
-3.63927
-0.339552
-1.01835
-1.69595
-2.37052
-3.03852
-3.69371
-4.3257
-4.91818
-5.4467
-5.87681
-6.16464
-6.26659
-6.17752
-6.06163
-6.73748
-0.360977
-1.08337
-1.8068
-2.53099
-3.25396
-3.97093
-4.67267
-5.34297
-5.95514
-6.46746
-6.81928
-6.93462
-6.75793
-6.4078
-6.76478
-0.382095
-1.14766
-1.91713
-2.6923
-3.47354
-4.25873
-5.04146
-5.80813
-6.5329
-7.16955
-7.63813
-7.80544
-7.45879
-6.26286
-3.53765
-0.402258
-1.20924
-2.02349
-2.84938
-3.69037
-4.54822
-5.42141
-6.30235
-7.17186
-7.98832
-8.66618
-9.03317
-8.74942
-7.17989
-3.3314
-0.420709
-1.26577
-2.12176
-2.99596
-3.8955
-4.82704
-5.79595
-6.8045
-7.84763
-8.90333
-9.9101
-10.7128
-10.933
-9.6795
-5.07951
-0.436627
-1.3147
-2.20739
-3.12495
-4.0784
-5.07989
-6.14296
-7.28263
-8.51464
-9.8523
-11.2957
-12.7968
-14.1399
-14.5031
-10.688
-0.449197
-1.35348
-2.27575
-3.229
-4.22793
-5.28996
-6.43677
-7.69661
-9.10827
-10.7278
-12.6413
-14.9906
-18.0272
-22.2282
-28.4917
-11.8287
-26.8274
-25.3462
-21.6506
-18.2196
-15.3431
-12.9334
-10.8705
-9.05863
-7.42838
-5.92978
-4.52607
-3.18917
-1.89662
-0.629455
-115.238
-60.1298
-38.8344
-28.3133
-22.0392
-17.7718
-14.5896
-12.0528
-9.92617
-8.07257
-6.406
-4.86906
-3.42098
-2.03081
-0.673402
-128.099
-69.9504
-44.8402
-32.0268
-24.4651
-19.4468
-15.7975
-12.9501
-10.6041
-8.58685
-6.79218
-5.15035
-3.61255
-2.14225
-0.709983
-70.3858
-56.8273
-42.3065
-32.0931
-25.1248
-20.1709
-16.4484
-13.4993
-11.0537
-8.94654
-7.07219
-5.35938
-3.75726
-2.22726
-0.738022
-49.6955
-44.3723
-36.7815
-29.9058
-24.3855
-20.04
-16.5623
-13.6989
-11.2682
-9.14453
-7.24002
-5.49153
-3.85186
-2.28396
-0.756897
-31.5733
-33.4919
-30.7598
-26.7773
-22.8304
-19.3063
-16.2495
-13.5978
-11.2695
-9.19033
-7.29948
-5.54808
-3.89663
-2.31228
-0.766558
-23.3023
-25.8412
-25.6064
-23.6238
-20.9817
-18.2481
-15.6554
-13.2722
-11.0976
-9.10534
-7.26209
-5.53522
-3.89479
-2.31378
-0.76746
-12.9646
-20.1165
-21.6668
-20.9284
-19.1964
-17.0919
-14.9156
-12.8016
-10.7993
-8.91682
-7.14385
-5.46231
-3.85169
-2.29118
-0.760441
-15.6668
-18.2817
-19.3165
-18.9229
-17.6697
-15.9857
-14.1326
-12.2535
-10.4176
-8.65225
-6.96211
-5.34014
-3.77376
-2.24791
-0.746574
-16.3735
-17.5442
-17.958
-17.5142
-16.4422
-14.9967
-13.3678