/*--------------------------------*- C++ -*----------------------------------*\
| =========                 |                                                 |
| \\      /  F ield         | OpenFOAM: The Open Source CFD Toolbox           |
|  \\    /   O peration     | Version:  5.x                                   |
|   \\  /    A nd           | Web:      www.OpenFOAM.org                      |
|    \\/     M anipulation  |                                                 |
\*---------------------------------------------------------------------------*/
FoamFile
{
    version     2.0;
    format      ascii;
    class       volScalarField;
    location    "4";
    object      T;
}
// * * * * * * * * * * * * * * * * * * * * * * * * * * * * * * * * * * * * * //

dimensions      [0 0 0 1 0 0 0];

internalField   nonuniform List<scalar> 
6300
(
322.847
322.542
322.236
321.927
321.617
321.303
320.986
320.664
320.338
320.007
319.67
319.327
318.979
318.624
318.264
322.848
322.543
322.237
321.93
321.62
321.307
320.99
320.669
320.343
320.012
319.676
319.333
318.985
318.63
318.27
322.849
322.545
322.241
321.935
321.626
321.314
320.999
320.679
320.354
320.023
319.687
319.345
318.996
318.642
318.281
322.85
322.548
322.246
321.942
321.635
321.325
321.011
320.693
320.369
320.04
319.705
319.363
319.015
318.66
318.298
322.851
322.553
322.253
321.952
321.648
321.34
321.029
320.713
320.391
320.063
319.729
319.388
319.039
318.684
318.322
322.853
322.558
322.262
321.964
321.664
321.36
321.051
320.738
320.418
320.092
319.76
319.419
319.071
318.715
318.352
322.855
322.565
322.273
321.98
321.683
321.383
321.078
320.768
320.452
320.129
319.798
319.459
319.111
318.754
318.389
322.858
322.573
322.286
321.998
321.706
321.411
321.111
320.805
320.493
320.173
319.845
319.507
319.159
318.801
318.434
322.861
322.582
322.301
322.019
321.733
321.444
321.15
320.849
320.542
320.226
319.901
319.565
319.218
318.859
318.488
322.864
322.592
322.319
322.043
321.764
321.482
321.194
320.9
320.598
320.288
319.967
319.634
319.288
318.928
318.553
322.868
322.604
322.338
322.07
321.799
321.525
321.245
320.958
320.664
320.36
320.045
319.717
319.373
319.012
318.632
322.872
322.616
322.359
322.1
321.838
321.573
321.302
321.024
320.739
320.444
320.137
319.814
319.474
319.114
318.729
322.877
322.63
322.383
322.133
321.881
321.626
321.365
321.099
320.824
320.54
320.243
319.93
319.597
319.239
318.852
322.882
322.645
322.408
322.169
321.928
321.683
321.435
321.181
320.92
320.649
320.366
320.066
319.743
319.393
319.01
322.887
322.661
322.435
322.207
321.977
321.745
321.51
321.27
321.024
320.77
320.505
320.224
319.918
319.578
319.202
317.929
317.62
317.308
316.992
316.673
316.351
316.027
315.7
315.37
315.038
314.705
314.37
314.033
313.695
313.356
313.016
312.675
312.334
311.993
311.651
311.31
310.968
310.627
310.286
309.944
309.603
309.262
308.921
308.58
308.24
307.9
307.56
307.221
306.882
306.544
306.206
305.87
305.533
305.197
304.862
304.527
304.193
303.858
303.525
303.192
302.859
302.527
302.196
301.865
301.536
301.207
300.878
300.551
300.224
299.897
299.571
299.246
298.921
298.597
298.273
297.95
297.628
297.306
296.986
296.666
296.346
296.028
295.71
295.393
295.077
294.761
294.446
294.132
293.817
293.504
293.191
292.878
292.567
292.255
291.944
291.634
291.323
291.013
290.703
290.392
290.081
289.769
289.457
289.143
288.829
317.934
317.625
317.312
316.996
316.677
316.355
316.03
315.703
315.373
315.041
314.707
314.372
314.035
313.696
313.357
313.017
312.676
312.334
311.993
311.651
311.31
310.968
310.627
310.285
309.944
309.603
309.262
308.921
308.58
308.239
307.899
307.559
307.22
306.881
306.543
306.206
305.869
305.532
305.197
304.861
304.526
304.192
303.858
303.524
303.191
302.858
302.526
302.195
301.864
301.535
301.206
300.877
300.55
300.223
299.896
299.57
299.245
298.92
298.596
298.272
297.949
297.627
297.305
296.984
296.664
296.345
296.027
295.709
295.393
295.076
294.761
294.445
294.131
293.817
293.503
293.19
292.878
292.566
292.255
291.944
291.633
291.323
291.013
290.703
290.393
290.082
289.77
289.458
289.144
288.83
317.945
317.635
317.322
317.006
316.686
316.363
316.038
315.71
315.379
315.047
314.712
314.376
314.038
313.699
313.359
313.018
312.677
312.335
311.993
311.651
311.31
310.968
310.626
310.285
309.944
309.602
309.261
308.92
308.579
308.238
307.898
307.558
307.218
306.879
306.541
306.204
305.867
305.531
305.195
304.86
304.525
304.191
303.856
303.523
303.189
302.856
302.524
302.193
301.862
301.532
301.203
300.875
300.548
300.221
299.895
299.569
299.244
298.919
298.594
298.27
297.947
297.625
297.303
296.982
296.662
296.343
296.025
295.707
295.391
295.075
294.759
294.444
294.129
293.815
293.501
293.188
292.876
292.564
292.253
291.943
291.633
291.323
291.014
290.704
290.394
290.084
289.773
289.461
289.147
288.833
317.961
317.651
317.337
317.019
316.698
316.375
316.048
315.72
315.388
315.055
314.72
314.383
314.044
313.704
313.363
313.021
312.678
312.336
311.993
311.651
311.309
310.967
310.626
310.285
309.943
309.602
309.261
308.919
308.578
308.237
307.896
307.555
307.216
306.876
306.538
306.201
305.864
305.528
305.193
304.858
304.523
304.189
303.854
303.52
303.187
302.854
302.521
302.189
301.859
301.529
301.2
300.872
300.545
300.218
299.892
299.567
299.241
298.916
298.592
298.267
297.944
297.621
297.299
296.978
296.658
296.339
296.021
295.704
295.388
295.072
294.757
294.442
294.127
293.813
293.499
293.186
292.873
292.561
292.251
291.941
291.631
291.323
291.014
290.706
290.397
290.087
289.777
289.465
289.152
288.837
317.984
317.672
317.356
317.037
316.715
316.39
316.063
315.733
315.401
315.066
314.73
314.391
314.051
313.71
313.367
313.024
312.68
312.336
311.993
311.65
311.308
310.966
310.625
310.284
309.943
309.602
309.26
308.918
308.576
308.235
307.893
307.552
307.212
306.872
306.534
306.197
305.861
305.525
305.19
304.856
304.521
304.187
303.852
303.518
303.183
302.85
302.517
302.185
301.854
301.524
301.195
300.868
300.541
300.215
299.889
299.564
299.238
298.913
298.588
298.264
297.94
297.616
297.294
296.973
296.653
296.334
296.017
295.7
295.384
295.069
294.754
294.439
294.124
293.81
293.495
293.182
292.869
292.558
292.247
291.938
291.629
291.321
291.014
290.707
290.4
290.092
289.782
289.471
289.158
288.843
318.012
317.698
317.381
317.06
316.736
316.41
316.081
315.75
315.416
315.081
314.743
314.403
314.061
313.717
313.372
313.027
312.682
312.337
311.992
311.649
311.307
310.965
310.624
310.283
309.943
309.602
309.26
308.918
308.575
308.232
307.889
307.547
307.206
306.867
306.528
306.192
305.856
305.521
305.187
304.853
304.519
304.184
303.849
303.514
303.179
302.845
302.511
302.178
301.847
301.517
301.189
300.862
300.536
300.211
299.886
299.561
299.235
298.91
298.584
298.259
297.934
297.61
297.287
296.966
296.646
296.328
296.011
295.695
295.38
295.065
294.75
294.436
294.121
293.806
293.491
293.177
292.864
292.552
292.242
291.933
291.626
291.32
291.015
290.71
290.404
290.098
289.79
289.48
289.168
288.852
318.047
317.731
317.411
317.087
316.761
316.432
316.102
315.769
315.435
315.098
314.759
314.417
314.073
313.726
313.379
313.031
312.683
312.336
311.99
311.646
311.304
310.963
310.623
310.283
309.943
309.602
309.26
308.917
308.574
308.229
307.885
307.541
307.199
306.859
306.521
306.184
305.85
305.516
305.183
304.85
304.517
304.182
303.847
303.511
303.175
302.839
302.503
302.17
301.838
301.508
301.181
300.855
300.53
300.206
299.882
299.558
299.233
298.907
298.58
298.254
297.927
297.602
297.278
296.956
296.637
296.319
296.003
295.689
295.375
295.061
294.747
294.433
294.117
293.802
293.486
293.171
292.857
292.544
292.234
291.926
291.62
291.317
291.014
290.712
290.41
290.107
289.801
289.493
289.181
288.865
318.088
317.769
317.445
317.118
316.789
316.458
316.126
315.792
315.457
315.119
314.778
314.434
314.087
313.737
313.386
313.034
312.682
312.332
311.985
311.64
311.299
310.959
310.621
310.283
309.944
309.604
309.262
308.919
308.573
308.226
307.879
307.533
307.189
306.848
306.51
306.175
305.842
305.511
305.18
304.849
304.516
304.182
303.846
303.508
303.17
302.831
302.494
302.159
301.826
301.496
301.17
300.846
300.523
300.201
299.879
299.556
299.231
298.905
298.577
298.248
297.919
297.592
297.266
296.944
296.624
296.308
295.994
295.681
295.369
295.057
294.745
294.43
294.115
293.798
293.48
293.163
292.847
292.533
292.223
291.916
291.612
291.312
291.013
290.716
290.418
290.119
289.817
289.511
289.2
288.883
318.138
317.814
317.484
317.152
316.819
316.485
316.151
315.817
315.482
315.144
314.802
314.456
314.106
313.751
313.394
313.036
312.68
312.326
311.976
311.631
311.29
310.953
310.618
310.283
309.947
309.609
309.268
308.922
308.574
308.223
307.872
307.522
307.176
306.833
306.495
306.162
305.832
305.504
305.177
304.848
304.518
304.184
303.847
303.507
303.165
302.822
302.481
302.143
301.81
301.48
301.156
300.834
300.515
300.197
299.878
299.556
299.232
298.904
298.574
298.242
297.909
297.578
297.25
296.927
296.608
296.293
295.982
295.673
295.364
295.055
294.744
294.43
294.114
293.794
293.474
293.153
292.834
292.518
292.207
291.901
291.6
291.304
291.01
290.719
290.428
290.135
289.838
289.536
289.226
288.909
318.197
317.865
317.528
317.188
316.849
316.512
316.178
315.845
315.511
315.174
314.832
314.484
314.129
313.769
313.403
313.037
312.673
312.313
311.961
311.615
311.277
310.944
310.615
310.285
309.954
309.619
309.278
308.93
308.577
308.221
307.863
307.507
307.156
306.811
306.474
306.144
305.818
305.496
305.175
304.852
304.524
304.191
303.852
303.508
303.16
302.811
302.464
302.122
301.786
301.458
301.136
300.82
300.506
300.194
299.879
299.561
299.237
298.908
298.574
298.236
297.897
297.56
297.229
296.903
296.585
296.273
295.966
295.663
295.36
295.056
294.748
294.435
294.116
293.793
293.467
293.14
292.816
292.496
292.184
291.879
291.582
291.291
291.005
290.722
290.44
290.156
289.867
289.571
289.264
288.945
318.267
317.924
317.574
317.223
316.876
316.536
316.202
315.873
315.544
315.211
314.872
314.522
314.162
313.792
313.415
313.035
312.658
312.291
311.934
311.59
311.256
310.931
310.61
310.291
309.967
309.637
309.297
308.947
308.587
308.22
307.85
307.484
307.126
306.779
306.443
306.118
305.801
305.488
305.176
304.86
304.538
304.207
303.865
303.514
303.156
302.796
302.44
302.091
301.753
301.426
301.109
300.801
300.496
300.193
299.886
299.573
299.251
298.919
298.578
298.231
297.881
297.535
297.197
296.869
296.553
296.246
295.947
295.652
295.358
295.061
294.758
294.447
294.126
293.797
293.461
293.124
292.79
292.464
292.149
291.846
291.554
291.271
290.995
290.724
290.455
290.184
289.907
289.621
289.319
288.998
318.354
317.994
317.622
317.253
316.894
316.551
316.221
315.901
315.583
315.259
314.925
314.575
314.209
313.826
313.429
313.027
312.632
312.252
311.891
311.549
311.223
310.91
310.605
310.301
309.99
309.668
309.331
308.977
308.606
308.223
307.833
307.45
307.081
306.73
306.397
306.081
305.776
305.479
305.182
304.879
304.565
304.237
303.892
303.53
303.156
302.777
302.404
302.045
301.703
301.379
301.071
300.775
300.485
300.197
299.902
299.597
299.278
298.943
298.592
298.229
297.861
297.499
297.151
296.82
296.506
296.207
295.92
295.64
295.361
295.076
294.781
294.472
294.148
293.809
293.458
293.102
292.753
292.417
292.099
291.797
291.512
291.24
290.979
290.724
290.471
290.219
289.963
289.693
289.4
289.078
318.466
318.082
317.666
317.266
316.89
316.546
316.225
315.925
315.629
315.322
314.999
314.652
314.281
313.879
313.452
313.008
312.584
312.186
311.821
311.483
311.172
310.878
310.599
310.32
310.029
309.721
309.389
309.033
308.645
308.234
307.805
307.395
307.009
306.656
306.328
306.026
305.74
305.468
305.197
304.913
304.614
304.29
303.943
303.565
303.165
302.747
302.348
301.973
301.629
301.31
301.016
300.738
300.473
300.21
299.934
299.643
299.328
298.991
298.624
298.236
297.83
297.443
297.08
296.747
296.437
296.152
295.883
295.627
295.372
295.105
294.823
294.519
294.193
293.838
293.463
293.07
292.696
292.345
292.023
291.725
291.451
291.195
290.954
290.721
290.487
290.262
290.037
289.797
289.525
289.202
318.627
318.215
317.689
317.245
316.839
316.506
316.202
315.943
315.691
315.406
315.11
314.764
314.399
313.965
313.502
312.958
312.499
312.071
311.714
311.379
311.095
310.826
310.591
310.358
310.091
309.81
309.481
309.133
308.716
308.272
307.748
307.305
306.892
306.546
306.222
305.946
305.685
305.457
305.23
304.97
304.697
304.377
304.037
303.632
303.199
302.689
302.258
301.856
301.52
301.204
300.936
300.682
300.461
300.239
299.987
299.721
299.41
299.08
298.687
298.267
297.772
297.354
296.964
296.639
296.333
296.073
295.827
295.613
295.399
295.155
294.898
294.597
294.278
293.898
293.491
293.012
292.607
292.229
291.914
291.617
291.365
291.126
290.92
290.716
290.492
290.303
290.132
289.949
289.724
289.411
318.88
318.513
317.592
317.171
316.681
316.427
316.111
315.953
315.8
315.508
315.291
314.903
314.617
314.093
313.67
312.788
312.368
311.853
311.575
311.202
310.996
310.724
310.583
310.443
310.173
309.969
309.602
309.33
308.829
308.423
307.576
307.172
306.675
306.407
306.046
305.846
305.582
305.446
305.309
305.047
304.848
304.491
304.226
303.738
303.343
302.519
302.125
301.643
301.381
301.03
300.836
300.58
300.447
300.314
300.059
299.866
299.519
299.262
298.788
298.404
297.605
297.224
296.756
296.503
296.163
295.975
295.727
295.598
295.47
295.223
295.036
294.701
294.452
293.994
293.623
292.849
292.479
292.024
291.777
291.444
291.259
291.012
290.882
290.742
290.445
290.321
290.242
290.163
290.048
289.812
288.482
288.102
287.722
287.341
286.959
286.578
286.198
285.818
285.439
285.062
284.685
284.309
283.935
283.56
283.187
288.483
288.103
287.722
287.341
286.959
286.578
286.197
285.817
285.438
285.06
284.684
284.308
283.934
283.56
283.187
288.485
288.105
287.723
287.341
286.959
286.577
286.195
285.815
285.436
285.058
284.682
284.307
283.933
283.559
283.186
288.489
288.108
287.725
287.342
286.958
286.575
286.193
285.812
285.432
285.055
284.678
284.304
283.93
283.558
283.186
288.495
288.112
287.728
287.342
286.957
286.572
286.189
285.807
285.427
285.049
284.674
284.3
283.927
283.556
283.185
288.503
288.118
287.731
287.343
286.955
286.568
286.183
285.8
285.42
285.042
284.667
284.294
283.923
283.553
283.184
288.514
288.126
287.736
287.344
286.952
286.562
286.175
285.791
285.41
285.032
284.658
284.287
283.918
283.55
283.183
288.53
288.137
287.741
287.344
286.947
286.553
286.163
285.778
285.396
285.02
284.647
284.277
283.91
283.545
283.182
288.551
288.153
287.749
287.343
286.94
286.541
286.148
285.76
285.379
285.003
284.632
284.265
283.901
283.54
283.18
288.582
288.173
287.757
287.341
286.928
286.523
286.126
285.737
285.356
284.981
284.613
284.25
283.89
283.533
283.177
288.626
288.2
287.766
287.334
286.91
286.497
286.096
285.705
285.325
284.954
284.589
284.23
283.876
283.524
283.175
288.689
288.235
287.773
287.319
286.88
286.459
286.054
285.664
285.287
284.919
284.56
284.207
283.859
283.514
283.171
288.781
288.277
287.772
287.289
286.834
286.405
285.998
285.611
285.238
284.876
284.524
284.179
283.839
283.502
283.167
288.919
288.32
287.75
287.231
286.76
286.328
285.924
285.542
285.177
284.824
284.481
284.145
283.815
283.487
283.162
289.12
288.335
287.677
287.126
286.649
286.221
285.827
285.457
285.104
284.763
284.432
284.107
283.787
283.471
283.157
322.892
322.677
322.46
322.243
322.025
321.805
321.582
321.357
321.127
320.892
320.648
320.391
320.11
319.782
319.356
322.897
322.691
322.484
322.277
322.069
321.861
321.651
321.439
321.225
321.009
320.788
320.56
320.317
320.035
319.61
322.902
322.705
322.509
322.312
322.115
321.918
321.72
321.523
321.325
321.128
320.932
320.738
320.552
320.388
320.331
322.907
322.72
322.533
322.346
322.16
321.974
321.79
321.606
321.424
321.246
321.074
320.913
320.77
320.665
320.627
322.911
322.734
322.557
322.381
322.205
322.031
321.858
321.688
321.522
321.361
321.21
321.073
320.962
320.897
320.92
322.916
322.748
322.581
322.415
322.249
322.086
321.925
321.767
321.615
321.469
321.335
321.216
321.123
321.067
321.057
322.921
322.762
322.605
322.448
322.293
322.139
321.989
321.843
321.703
321.57
321.448
321.342
321.257
321.205
321.203
322.925
322.776
322.627
322.48
322.334
322.191
322.051
321.915
321.785
321.663
321.551
321.452
321.37
321.308
321.269
322.93
322.789
322.649
322.511
322.374
322.24
322.109
321.983
321.863
321.749
321.645
321.55
321.468
321.396
321.323
322.934
322.801
322.67
322.54
322.412
322.287
322.165
322.047
321.935
321.829
321.731
321.641
321.559
321.484
321.418
322.938
322.813
322.69
322.568
322.448
322.331
322.217
322.108
322.003
321.904
321.812
321.725
321.644
321.566
321.48
322.942
322.825
322.709
322.595
322.482
322.373
322.267
322.164
322.067
321.975
321.888
321.806
321.729
321.653
321.583
322.945
322.836
322.727
322.62
322.515
322.412
322.313
322.218
322.127
322.041
321.961
321.884
321.811
321.737
321.65
322.949
322.846
322.744
322.644
322.545
322.45
322.357
322.268
322.184
322.105
322.03
321.961
321.894
321.83
321.766
322.952
322.855
322.76
322.666
322.574
322.484
322.398
322.316
322.238
322.165
322.097
322.034
321.977
321.921
321.851
322.955
322.864
322.775
322.687
322.601
322.517
322.437
322.36
322.288
322.221
322.159
322.104
322.058
322.023
322.018
322.958
322.873
322.789
322.706
322.626
322.548
322.473
322.401
322.335
322.273
322.217
322.169
322.13
322.104
322.093
322.96
322.881
322.802
322.725
322.649
322.576
322.506
322.44
322.378
322.321
322.27
322.227
322.194
322.174
322.178
322.963
322.888
322.814
322.742
322.671
322.603
322.537
322.475
322.417
322.364
322.318
322.278
322.248
322.229
322.22
322.965
322.895
322.826
322.757
322.691
322.627
322.565
322.507
322.453
322.404
322.36
322.323
322.294
322.276
322.272
322.967
322.901
322.836
322.772
322.71
322.649
322.592
322.537
322.486
322.439
322.398
322.362
322.333
322.313
322.299
322.969
322.907
322.846
322.785
322.727
322.67
322.615
322.564
322.516
322.471
322.431
322.396
322.367
322.344
322.331
322.971
322.912
322.855
322.798
322.742
322.689
322.637
322.589
322.543
322.5
322.461
322.426
322.396
322.369
322.346
322.972
322.917
322.863
322.809
322.757
322.706
322.658
322.611
322.567
322.526
322.488
322.454
322.421
322.391
322.36
322.974
322.922
322.871
322.82
322.77
322.722
322.676
322.632
322.59
322.551
322.514
322.479
322.446
322.415
322.384
322.975
322.926
322.878
322.83
322.783
322.737
322.693
322.651
322.611
322.573
322.537
322.503
322.47
322.437
322.401
322.977
322.93
322.884
322.839
322.794
322.751
322.709
322.669
322.631
322.594
322.559
322.526
322.493
322.461
322.429
322.978
322.934
322.89
322.847
322.805
322.764
322.724
322.686
322.649
322.614
322.581
322.548
322.517
322.484
322.448
322.979
322.937
322.896
322.855
322.815
322.776
322.738
322.701
322.666
322.633
322.601
322.571
322.541
322.511
322.481
322.98
322.94
322.901
322.862
322.824
322.787
322.751
322.716
322.683
322.651
322.621
322.592
322.565
322.538
322.506
322.981
322.943
322.906
322.869
322.832
322.797
322.762
322.729
322.698
322.668
322.639
322.613
322.588
322.567
322.555
322.982
322.946
322.91
322.875
322.84
322.806
322.773
322.742
322.712
322.683
322.656
322.632
322.61
322.591
322.577
322.983
322.948
322.914
322.88
322.847
322.815
322.784
322.754
322.725
322.698
322.672
322.649
322.629
322.612
322.603
322.983
322.951
322.918
322.886
322.854
322.823
322.793
322.764
322.737
322.711
322.686
322.664
322.645
322.629
322.615
322.984
322.953
322.921
322.89
322.86
322.83
322.802
322.774
322.747
322.722
322.699
322.678
322.659
322.643
322.631
322.985
322.955
322.924
322.895
322.866
322.837
322.809
322.783
322.757
322.733
322.71
322.689
322.67
322.654
322.64
322.985
322.956
322.927
322.899
322.871
322.843
322.817
322.791
322.766
322.743
322.72
322.7
322.681
322.664
322.65
322.986
322.958
322.93
322.902
322.875
322.849
322.823
322.798
322.774
322.751
322.729
322.709
322.689
322.671
322.654
322.986
322.959
322.932
322.906
322.88
322.854
322.829
322.805
322.781
322.759
322.737
322.717
322.697
322.678
322.659
322.987
322.961
322.935
322.909
322.884
322.859
322.834
322.811
322.788
322.766
322.745
322.724
322.705
322.685
322.666
322.987
322.962
322.937
322.912
322.887
322.863
322.839
322.816
322.794
322.773
322.752
322.732
322.712
322.692
322.671
322.988
322.963
322.938
322.914
322.89
322.867
322.844
322.822
322.8
322.779
322.758
322.738
322.719
322.699
322.68
322.988
322.964
322.94
322.917
322.893
322.87
322.848
322.826
322.805
322.784
322.764
322.745
322.726
322.707
322.686
322.988
322.965
322.942
322.919
322.896
322.874
322.852
322.83
322.81
322.79
322.77
322.751
322.733
322.714
322.696
322.989
322.966
322.943
322.92
322.898
322.876
322.855
322.834
322.814
322.795
322.776
322.757
322.74
322.722
322.704
322.989
322.966
322.944
322.922
322.9
322.879
322.858
322.838
322.818
322.799
322.781
322.763
322.746
322.731
322.718
322.989
322.967
322.945
322.923
322.902
322.881
322.861
322.841
322.821
322.803
322.785
322.768
322.752
322.738
322.724
322.989
322.967
322.946
322.925
322.904
322.883
322.863
322.843
322.824
322.806
322.789
322.772
322.757
322.743
322.731
322.989
322.968
322.947
322.926
322.905
322.885
322.865
322.845
322.827
322.809
322.792
322.776
322.761
322.747
322.735
322.989
322.968
322.947
322.926
322.906
322.886
322.866
322.847
322.829
322.811
322.795
322.779
322.764
322.751
322.739
322.989
322.968
322.948
322.927
322.906
322.887
322.867
322.848
322.83
322.813
322.796
322.781
322.766
322.753
322.74
322.989
322.969
322.948
322.927
322.907
322.887
322.868
322.849
322.831
322.814
322.798
322.782
322.768
322.754
322.742
322.989
322.969
322.948
322.927
322.907
322.887
322.868
322.849
322.831
322.814
322.798
322.783
322.768
322.755
322.743
322.989
322.968
322.948
322.927
322.907
322.887
322.868
322.849
322.831
322.814
322.798
322.783
322.769
322.755
322.743
322.989
322.968
322.947
322.927
322.906
322.886
322.867
322.848
322.83
322.813
322.797
322.782
322.768
322.755
322.743
322.989
322.968
322.947
322.926
322.905
322.885
322.866
322.847
322.829
322.812
322.796
322.781
322.767
322.754
322.742
322.989
322.968
322.946
322.925
322.904
322.884
322.864
322.845
322.827
322.81
322.794
322.778
322.764
322.752
322.741
322.989
322.967
322.945
322.924
322.903
322.882
322.862
322.843
322.825
322.807
322.791
322.775
322.761
322.749
322.738
322.989
322.966
322.944
322.922
322.901
322.88
322.859
322.84
322.821
322.804
322.787
322.771
322.757
322.745
322.734
322.988
322.966
322.943
322.92
322.898
322.877
322.856
322.836
322.817
322.799
322.782
322.767
322.752
322.739
322.729
322.988
322.965
322.941
322.918
322.896
322.874
322.853
322.832
322.813
322.794
322.777
322.761
322.746
322.731
322.717
322.988
322.963
322.939
322.916
322.893
322.87
322.848
322.827
322.808
322.789
322.771
322.754
322.739
322.724
322.71
322.987
322.962
322.937
322.913
322.889
322.866
322.843
322.822
322.802
322.782
322.764
322.747
322.731
322.716
322.7
322.987
322.961
322.935
322.91
322.885
322.861
322.838
322.816
322.795
322.775
322.757
322.739
322.723
322.708
322.694
322.986
322.959
322.932
322.906
322.88
322.855
322.831
322.809
322.787
322.767
322.748
322.731
322.715
322.7
322.684
322.986
322.957
322.929
322.902
322.875
322.849
322.824
322.801
322.779
322.758
322.739
322.722
322.706
322.691
322.678
322.985
322.955
322.926
322.897
322.869
322.842
322.816
322.792
322.769
322.748
322.728
322.711
322.696
322.682
322.668
322.984
322.953
322.922
322.892
322.863
322.834
322.807
322.782
322.758
322.736
322.717
322.699
322.685
322.672
322.663
322.984
322.951
322.918
322.886
322.856
322.826
322.797
322.771
322.746
322.723
322.703
322.686
322.672
322.661
322.656
322.983
322.948
322.914
322.88
322.848
322.816
322.786
322.758
322.732
322.708
322.687
322.67
322.656
322.647
322.642
322.982
322.945
322.909
322.873
322.839
322.805
322.774
322.744
322.716
322.691
322.67
322.652
322.638
322.63
322.629
322.981
322.942
322.903
322.866
322.829
322.794
322.76
322.728
322.699
322.673
322.649
322.63
322.616
322.607
322.605
322.979
322.938
322.897
322.857
322.818
322.781
322.745
322.711
322.68
322.651
322.626
322.605
322.589
322.581
322.584
322.978
322.934
322.891
322.848
322.807
322.767
322.728
322.692
322.659
322.628
322.6
322.577
322.558
322.546
322.542
322.977
322.93
322.884
322.838
322.794
322.751
322.711
322.672
322.636
322.602
322.571
322.545
322.522
322.505
322.504
322.975
322.925
322.876
322.828
322.78
322.735
322.691
322.65
322.61
322.574
322.54
322.51
322.481
322.454
322.42
322.973
322.92
322.868
322.816
322.766
322.717
322.67
322.626
322.584
322.544
322.507
322.473
322.44
322.408
322.377
322.972
322.915
322.859
322.804
322.75
322.698
322.648
322.6
322.555
322.512
322.472
322.435
322.398
322.361
322.317
322.97
322.909
322.849
322.79
322.733
322.677
322.624
322.573
322.524
322.479
322.436
322.396
322.357
322.319
322.283
322.968
322.903
322.839
322.776
322.714
322.655
322.598
322.543
322.492
322.444
322.398
322.356
322.315
322.275
322.229
322.965
322.896
322.828
322.76
322.695
322.631
322.57
322.512
322.457
322.406
322.359
322.315
322.273
322.234
322.198
322.963
322.889
322.816
322.744
322.673
322.605
322.54
322.478
322.42
322.366
322.317
322.271
322.23
322.191
322.149
322.96
322.881
322.803
322.726
322.651
322.578
322.508
322.442
322.38
322.323
322.272
322.226
322.185
322.15
322.122
322.958
322.873
322.789
322.707
322.626
322.548
322.473
322.403
322.337
322.276
322.223
322.176
322.136
322.105
322.088
322.955
322.864
322.775
322.686
322.6
322.516
322.436
322.36
322.289
322.225
322.169
322.121
322.082
322.049
322.01
322.952
322.855
322.759
322.665
322.572
322.482
322.395
322.314
322.237
322.169
322.109
322.06
322.024
321.998
321.976
322.948
322.845
322.743
322.641
322.542
322.445
322.352
322.263
322.18
322.106
322.042
321.991
321.958
321.945
321.951
322.945
322.835
322.725
322.617
322.51
322.406
322.305
322.209
322.118
322.036
321.965
321.91
321.878
321.878
321.92
322.941
322.824
322.707
322.592
322.477
322.365
322.255
322.15
322.05
321.957
321.876
321.812
321.776
321.784
321.866
322.938
322.813
322.689
322.565
322.442
322.321
322.203
322.087
321.976
321.871
321.776
321.696
321.642
321.637
321.742
289.33
288.232
287.51
286.961
286.502
286.093
285.717
285.363
285.025
284.698
284.38
284.067
283.759
283.454
283.151
288.942
287.878
287.239
286.75
286.332
285.954
285.602
285.267
284.946
284.633
284.328
284.028
283.732
283.438
283.146
287.409
287.23
286.863
286.489
286.134
285.797
285.474
285.162
284.86
284.564
284.273
283.986
283.702
283.421
283.14
286.807
286.713
286.492
286.216
285.924
285.63
285.338
285.051
284.769
284.49
284.215
283.942
283.672
283.402
283.134
286.236
286.283
286.158
285.955
285.715
285.461
285.2
284.937
284.675
284.414
284.155
283.897
283.64
283.383
283.128
285.978
285.973
285.879
285.718
285.518
285.296
285.062
284.823
284.581
284.338
284.094
283.851
283.607
283.364
283.121
285.71
285.725
285.645
285.508
285.335
285.139
284.929
284.711
284.487
284.261
284.033
283.804
283.575
283.345
283.115
285.59
285.542
285.452
285.324
285.168
284.992
284.801
284.602
284.396
284.186
283.973
283.758
283.542
283.326
283.109
285.494
285.39
285.284
285.16
285.015
284.854
284.68
284.497
284.307
284.113
283.914
283.713
283.511
283.307
283.102
285.329
285.238
285.13
285.009
284.873
284.725
284.566
284.398
284.222
284.042
283.857
283.669
283.479
283.288
283.096
285.221
285.097
284.985
284.868
284.741
284.604
284.458
284.303
284.141
283.974
283.802
283.627
283.449
283.27
283.09
285.044
284.949
284.843
284.733
284.616
284.49
284.355
284.213
284.064
283.909
283.749
283.586
283.421
283.253
283.084
284.929
284.807
284.705
284.603
284.496
284.381
284.258
284.127
283.99
283.847
283.699
283.547
283.393
283.236
283.079
284.734
284.652
284.566
284.477
284.382
284.278
284.166
284.047
283.92
283.788
283.651
283.51
283.367
283.221
283.074
284.592
284.5
284.43
284.356
284.273
284.181
284.08
283.971
283.855
283.733
283.606
283.475
283.342
283.206
283.069
284.316
284.332
284.297
284.241
284.171
284.09
283.999
283.9
283.794
283.681
283.564
283.443
283.318
283.192
283.064
284.192
284.198
284.178
284.136
284.077
284.006
283.924
283.834
283.736
283.633
283.524
283.412
283.296
283.179
283.06
284.055
284.084
284.075
284.042
283.992
283.929
283.855
283.773
283.683
283.588
283.487
283.383
283.276
283.166
283.056
283.987
283.996
283.987
283.959
283.915
283.859
283.792
283.717
283.635
283.546
283.453
283.356
283.257
283.155
283.052
283.905
283.922
283.913
283.888
283.848
283.796
283.735
283.666
283.59
283.508
283.422
283.332
283.239
283.144
283.048
283.863
283.864
283.852
283.826
283.788
283.74
283.684
283.62
283.549
283.473
283.393
283.309
283.223
283.134
283.045
283.814
283.815
283.8
283.773
283.736
283.691
283.637
283.578
283.512
283.441
283.366
283.288
283.208
283.125
283.042
283.791
283.777
283.756
283.727
283.69
283.646
283.596
283.54
283.478
283.412
283.342
283.269
283.194
283.117
283.039
283.771
283.744
283.717
283.686
283.649
283.606
283.558
283.505
283.447
283.386
283.32
283.252
283.182
283.11
283.037
283.736
283.71
283.681
283.648
283.612
283.57
283.525
283.474
283.42
283.361
283.3
283.236
283.17
283.103
283.034
283.713
283.679
283.647
283.614
283.578
283.538
283.494
283.446
283.394
283.34
283.282
283.222
283.16
283.096
283.032
283.675
283.646
283.615
283.582
283.546
283.508
283.466
283.42
283.371
283.32
283.265
283.209
283.15
283.091
283.03
283.65
283.615
283.583
283.551
283.517
283.48
283.44
283.397
283.351
283.302
283.25
283.197
283.142
283.085
283.029
283.608
283.581
283.552
283.522
283.49
283.455
283.417
283.376
283.332
283.285
283.237
283.186
283.134
283.081
283.027
283.578
283.548
283.522
283.495
283.464
283.431
283.395
283.356
283.314
283.27
283.224
283.176
283.127
283.077
283.026
283.52
283.512
283.493
283.469
283.441
283.41
283.376
283.339
283.299
283.257
283.213
283.167
283.121
283.073
283.024
283.494
283.484
283.468
283.446
283.42
283.391
283.358
283.323
283.285
283.245
283.203
283.16
283.115
283.069
283.023
283.467
283.461
283.446
283.426
283.402
283.374
283.343
283.309
283.273
283.234
283.194
283.153
283.11
283.066
283.022
283.453
283.443
283.429
283.409
283.386
283.359
283.329
283.297
283.262
283.225
283.186
283.146
283.105
283.064
283.021
283.438
283.429
283.414
283.395
283.372
283.346
283.317
283.286
283.252
283.217
283.18
283.141
283.101
283.061
283.02
283.431
283.418
283.403
283.383
283.361
283.335
283.307
283.277
283.244
283.21
283.174
283.136
283.098
283.059
283.02
283.423
283.41
283.394