/*--------------------------------*- C++ -*----------------------------------*\
| =========                 |                                                 |
| \\      /  F ield         | OpenFOAM: The Open Source CFD Toolbox           |
|  \\    /   O peration     | Version:  5.x                                   |
|   \\  /    A nd           | Web:      www.OpenFOAM.org                      |
|    \\/     M anipulation  |                                                 |
\*---------------------------------------------------------------------------*/
FoamFile
{
    version     2.0;
    format      ascii;
    class       volScalarField;
    location    "0.2";
    object      gradTx;
}
// * * * * * * * * * * * * * * * * * * * * * * * * * * * * * * * * * * * * * //

dimensions      [0 -1 0 1 0 0 0];

internalField   nonuniform List<scalar> 
3200
(
47.021
2.49948
0.916694
0.837003
0.378928
0.351913
0.176525
0.165441
0.0803847
0.0749153
0.0298625
0.0275031
0.0165394
0.0157349
0.00792171
0.00743288
0.0034608
0.00322212
0.0014585
0.00135442
0.000623189
0.000580229
0.000282407
0.000264757
0.000139446
0.000131886
7.54819e-05
7.2196e-05
4.81135e-05
7.12556e-05
2.9647e-05
1.54055e-05
1.45021e-05
9.50264e-06
9.17342e-06
6.48393e-06
6.28407e-06
4.2092e-06
4.02597e-06
1.72024e-06
1.4789e-06
-1.98605e-06
-2.37569e-06
-8.24362e-06
-8.88682e-06
-1.84744e-05
-1.94422e-05
-3.32159e-05
-3.43367e-05
-4.66347e-05
-4.96517e-05
-0.000108984
-0.000115761
-0.000218514
-0.000230904
-0.000423356
-0.000446873
-0.000814426
-0.00085987
-0.00157315
-0.00166347
-0.0030922
-0.00328302
-0.00634901
-0.0068057
-0.0143361
-0.0156918
-0.0385917
-0.0442241
-0.138732
-0.39815
-0.300451
-0.54884
-0.580656
-1.13697
-1.11635
-0.0500217
-0.00673593
-0.0013607
-48.2018
49.4837
2.07823
0.900664
0.736842
0.3678
0.309928
0.168582
0.14486
0.0768431
0.0651988
0.0294485
0.0244202
0.015406
0.0136782
0.00749904
0.00646403
0.00331144
0.00280522
0.00140141
0.00118038
0.000597435
0.000506153
0.000268666
0.000231173
0.00013135
0.000115308
7.05089e-05
6.35975e-05
4.54805e-05
5.94488e-05
2.7923e-05
1.48771e-05
1.28625e-05
8.79025e-06
8.08326e-06
5.93455e-06
5.50932e-06
3.85849e-06
3.4692e-06
1.63472e-06
1.12201e-06
-1.63338e-06
-2.46047e-06
-7.11807e-06
-8.48137e-06
-1.60716e-05
-1.81186e-05
-2.89787e-05
-3.13886e-05
-4.16528e-05
-4.80821e-05
-9.50409e-05
-0.000109436
-0.000191308
-0.000217668
-0.000371034
-0.000421078
-0.000714107
-0.000810868
-0.0013801
-0.00157267
-0.00271558
-0.00312362
-0.00558956
-0.00657255
-0.0126996
-0.0156585
-0.0347641
-0.0474175
-0.133999
-0.334869
-0.289255
-0.4823
-0.548107
-0.968683
-0.925573
-0.10915
-0.0186922
-0.00391257
-50.4913
51.9371
1.71504
0.844292
0.645079
0.344361
0.271409
0.15604
0.126152
0.0711221
0.0565157
0.0278454
0.0215322
0.0140085
0.0118249
0.0068868
0.00559433
0.00306457
0.00243148
0.00130095
0.00102419
0.000553794
0.000439436
0.000247715
0.000200753
0.000120257
0.000100182
6.41869e-05
5.55917e-05
4.16551e-05
4.95721e-05
2.55078e-05
1.39288e-05
1.13227e-05
7.95356e-06
7.05985e-06
5.32233e-06
4.78912e-06
3.46107e-06
2.97357e-06
1.49795e-06
8.55972e-07
-1.35898e-06
-2.39383e-06
-6.12948e-06
-7.83301e-06
-1.39019e-05
-1.64552e-05
-2.50992e-05
-2.81474e-05
-3.68516e-05
-4.49225e-05
-8.24615e-05
-0.000100481
-0.000166441
-0.000199486
-0.000323069
-0.000385817
-0.000622056
-0.00074344
-0.00120291
-0.00144475
-0.00236988
-0.00288365
-0.0048925
-0.00613724
-0.0111965
-0.0149874
-0.0312112
-0.047675
-0.124745
-0.281558
-0.268598
-0.42095
-0.50147
-0.819063
-0.765839
-0.139252
-0.0276232
-0.00600546
-52.7826
54.3784
1.40006
0.761244
0.557542
0.311934
0.234699
0.140175
0.108537
0.0638516
0.0484548
0.0253847
0.0187238
0.012422
0.0101038
0.00614342
0.00478662
0.00274947
0.00208392
0.00116999
0.000878676
0.00049756
0.000377126
0.000221707
0.000172255
0.000107076
8.59574e-05
5.69225e-05
4.79256e-05
3.70398e-05
4.10669e-05
2.26377e-05
1.26423e-05
9.82892e-06
7.02734e-06
6.07814e-06
4.66745e-06
4.10552e-06
3.0334e-06
2.52032e-06
1.32929e-06
6.53733e-07
-1.13274e-06
-2.22093e-06
-5.22663e-06
-7.01571e-06
-1.18825e-05
-1.45596e-05
-2.14605e-05
-2.4699e-05
-3.20998e-05
-4.06135e-05
-7.07155e-05
-8.96732e-05
-0.000142994
-0.000177806
-0.000277731
-0.000343848
-0.000534962
-0.000662921
-0.0010351
-0.00129032
-0.00204195
-0.00258549
-0.00422869
-0.00555269
-0.00975004
-0.0138267
-0.0276633
-0.0455288
-0.112349
-0.235132
-0.241406
-0.36256
-0.445443
-0.684381
-0.629133
-0.148775
-0.0329555
-0.00743401
-55.0755
56.8071
1.12443
0.660957
0.471823
0.27288
0.198777
0.121876
0.0915191
0.0554689
0.0407517
0.0223003
0.0159281
0.0106975
0.00846704
0.00530885
0.00401679
0.0023863
0.00175167
0.00101737
0.000739262
0.000432377
0.00031734
0.000192118
0.000144887
9.24283e-05
7.22751e-05
4.89943e-05
4.04438e-05
3.19036e-05
3.35366e-05
1.94698e-05
1.10876e-05
8.34816e-06
6.03552e-06
5.12172e-06
3.98347e-06
3.44644e-06
2.58632e-06
2.0966e-06
1.14131e-06
4.96614e-07
-9.35199e-07
-1.97296e-06
-4.37624e-06
-6.0804e-06
-9.9591e-06
-1.25052e-05
-1.79828e-05
-2.11008e-05
-2.73243e-05
-3.54674e-05
-5.94603e-05
-7.75477e-05
-0.000120376
-0.000153631
-0.000233912
-0.000297085
-0.000450706
-0.000573019
-0.000872561
-0.00111677
-0.00172349
-0.00224478
-0.00357995
-0.00485623
-0.00831353
-0.0122825
-0.0239671
-0.0414434
-0.0977553
-0.193442
-0.209686
-0.305777
-0.383253
-0.561556
-0.509507
-0.143736
-0.0346773
-0.00808747
-57.3696
59.2238
0.880293
0.549838
0.386617
0.228927
0.16305
0.101787
0.0747927
0.0462832
0.0332407
0.0187611
0.0131097
0.00887129
0.00688308
0.00441076
0.00326945
0.00198916
0.00142793
0.000849318
0.00060311
0.000360803
0.000258908
0.00015998
0.000118148
7.67446e-05
5.89087e-05
4.05963e-05
3.30535e-05
2.6426e-05
2.66973e-05
1.61087e-05
9.32428e-06
6.86187e-06
4.99514e-06
4.18007e-06
3.27963e-06
2.80375e-06
2.12695e-06
1.69351e-06
9.4202e-07
3.71502e-07
-7.54068e-07
-1.67185e-06
-3.55701e-06
-5.06253e-06
-8.09597e-06
-1.03424e-05
-1.46118e-05
-1.73925e-05
-2.249e-05
-2.97105e-05
-4.84792e-05
-6.4482e-05
-9.82152e-05
-0.000127671
-0.000190919
-0.000246882
-0.000367966
-0.000476362
-0.000712731
-0.000929351
-0.0014094
-0.00187278
-0.00293553
-0.00407517
-0.00686088
-0.010436
-0.0200502
-0.0358216
-0.0816227
-0.154994
-0.17483
-0.249803
-0.317098
-0.448018
-0.402494
-0.128448
-0.0331021
-0.00794339
-59.6648
61.63
0.660677
0.432145
0.301288
0.181377
0.127205
0.0803842
0.0581787
0.0365205
0.0258217
0.0148923
0.0102535
0.00697012
0.00533122
0.00346862
0.00253495
0.00156813
0.00110856
0.000670323
0.000468524
0.000284685
0.000201131
0.000126037
9.1736e-05
6.03323e-05
4.57171e-05
3.18672e-05
2.57018e-05
2.0727e-05
2.03426e-05
1.2624e-05
7.40257e-06
5.36131e-06
3.91886e-06
3.24658e-06
2.56225e-06
2.17191e-06
1.65991e-06
1.30476e-06
7.36407e-07
2.68987e-07
-5.8177e-07
-1.33329e-06
-2.75556e-06
-3.98723e-06
-6.27004e-06
-8.10581e-06
-1.13103e-05
-1.36034e-05
-1.75854e-05
-2.3511e-05
-3.76397e-05
-5.07481e-05
-7.62867e-05
-0.000100437
-0.000148331
-0.000194222
-0.000285948
-0.000374864
-0.000554098
-0.000731927
-0.00109677
-0.00147784
-0.00228964
-0.00323049
-0.00538023
-0.00835311
-0.0158962
-0.0290131
-0.0644171
-0.118737
-0.137817
-0.194189
-0.248454
-0.341598
-0.304672
-0.10603
-0.0287216
-0.00705345
-61.9607
64.0277
0.459351
0.310636
0.215598
0.131259
0.0911192
0.0580425
0.041583
0.0263518
0.0184388
0.0107905
0.0073579
0.00501492
0.00379817
0.00249653
0.00180742
0.00113064
0.000791193
0.000483721
0.000334557
0.000205399
0.000143617
9.08379e-05
6.54757e-05
4.34173e-05
3.26162e-05
2.29094e-05
1.8361e-05
1.48875e-05
1.43198e-05
9.06185e-06
5.36529e-06
3.84431e-06
2.81664e-06
2.31726e-06
1.83581e-06
1.54712e-06
1.18823e-06
9.25774e-07
5.2747e-07
1.82092e-07
-4.13846e-07
-9.68915e-07
-1.96375e-06
-2.8728e-06
-4.46643e-06
-5.82019e-06
-8.05299e-06
-9.75595e-06
-1.26147e-05
-1.69988e-05
-2.6865e-05
-3.65495e-05
-5.44612e-05
-7.23166e-05
-0.000105913
-0.000139846
-0.00020421
-0.000269973
-0.000395837
-0.000527441
-0.0007841
-0.00106652
-0.00163985
-0.00233921
-0.00386946
-0.00609161
-0.0115265
-0.0213248
-0.0464783
-0.0839278
-0.0993508
-0.138699
-0.178298
-0.240427
-0.213356
-0.0787741
-0.0221175
-0.00552747
-64.2573
66.4192
0.27067
0.187044
0.129535
0.0794165
0.0547882
0.0350685
0.0249667
0.0159136
0.0110643
0.00653351
0.0044292
0.00302311
0.00227553
0.00150512
0.00108341
0.000682417
0.000474585
0.00029212
0.000200746
0.000124029
8.6173e-05
5.48143e-05
3.92745e-05
2.61739e-05
1.95582e-05
1.38019e-05
1.10193e-05
8.96267e-06
8.51183e-06
5.45333e-06
3.24947e-06
2.31298e-06
1.6968e-06
1.38986e-06
1.10362e-06
9.26702e-07
7.13856e-07
5.5311e-07
3.16927e-07
1.05412e-07
-2.47847e-07
-5.87679e-07
-1.17682e-06
-1.7331e-06
-2.67557e-06
-3.50351e-06
-4.82238e-06
-5.8689e-06
-7.59128e-06
-1.02786e-05
-1.61149e-05
-2.20452e-05
-3.26719e-05
-4.36111e-05
-6.35459e-05
-8.43366e-05
-0.000122535
-0.000162836
-0.000237573
-0.000318256
-0.000470843
-0.00064415
-0.000985919
-0.00141598
-0.00233304
-0.00370467
-0.00698758
-0.0130309
-0.0280644
-0.0500266
-0.0599543
-0.0832291
-0.107272
-0.142856
-0.126368
-0.0484136
-0.0139126
-0.00351811
-66.5542
68.8068
0.0894081
0.0624466
0.0432096
0.0265803
0.0182835
0.0117293
0.00832565
0.00532126
0.00368859
0.0021875
0.00147889
0.00101003
0.000758001
0.000502869
0.00036099
0.000228126
0.000158185
9.76804e-05
6.69224e-05
4.14712e-05
2.87269e-05
1.83221e-05
1.30905e-05
8.74468e-06
6.51785e-06
4.60978e-06
3.6737e-06
2.99232e-06
2.82433e-06
1.82032e-06
1.08813e-06
7.72106e-07
5.66723e-07
4.63224e-07
3.68214e-07
3.0865e-07
2.38094e-07
1.83989e-07
1.05703e-07
3.45139e-08
-8.25598e-08
-1.96919e-07
-3.92069e-07
-5.7922e-07
-8.91199e-07
-1.16967e-06
-1.60598e-06
-1.95882e-06
-2.53426e-06
-3.43912e-06
-5.37132e-06
-7.36716e-06
-1.08905e-05
-1.4573e-05
-2.11829e-05
-2.8182e-05
-4.08491e-05
-5.44176e-05
-7.92075e-05
-0.000106378
-0.000157021
-0.000215412
-0.000328998
-0.000474046
-0.000779648
-0.00124314
-0.0023414
-0.00438252
-0.0093835
-0.0166228
-0.0200401
-0.0277458
-0.0358022
-0.0473884
-0.0418543
-0.0163228
-0.00474459
-0.00120702
-68.8514
68.8327
0.0888644
0.0652499
0.0471765
0.0300245
0.0210927
0.0135914
0.0096361
0.0061116
0.00420582
0.00247174
0.001655
0.0011147
0.000826522
0.00053827
0.000379206
0.000231887
0.000155159
9.00327e-05
5.75687e-05
3.17128e-05
1.92425e-05
9.79509e-06
5.35483e-06
2.11906e-06
6.11059e-07
-5.03748e-07
-1.14131e-06
-1.88813e-06
-2.5716e-06
-2.15561e-06
-1.79014e-06
-1.63529e-06
-1.54857e-06
-1.51302e-06
-1.49295e-06
-1.4869e-06
-1.48782e-06
-1.48914e-06
-1.49059e-06
-1.48854e-06
-1.48139e-06
-1.47277e-06
-1.45622e-06
-1.43733e-06
-1.40127e-06
-1.35854e-06
-1.27644e-06
-1.18654e-06
-1.04237e-06
-1.02811e-06
-1.13584e-06
-1.21281e-06
-1.29977e-06
-1.37091e-06
-1.48713e-06
-1.64425e-06
-1.9914e-06
-2.55764e-06
-3.90449e-06
-6.24259e-06
-1.1968e-05
-2.23548e-05
-4.83893e-05
-9.76518e-05
-0.000224436
-0.000477981
-0.0011555
-0.00260046
-0.00631616
-0.0120879
-0.0159623
-0.0243045
-0.0332921
-0.0466884
-0.0418635
-0.0163688
-0.00475998
-0.00120952
-68.9187
66.497
0.268925
0.195545
0.141509
0.089758
0.0632326
0.0406419
0.0288991
0.0182762
0.0126154
0.00738182
0.00495642
0.00333592
0.0024811
0.00161075
0.00113798
0.000693395
0.000465406
0.000269041
0.000172609
9.47042e-05
5.7672e-05
2.92233e-05
1.60403e-05
6.30175e-06
1.82585e-06
-1.52553e-06
-3.41654e-06
-5.665e-06
-7.75727e-06
-6.46388e-06
-5.36141e-06
-4.90268e-06
-4.64323e-06
-4.53803e-06
-4.47782e-06
-4.45993e-06
-4.46295e-06
-4.46695e-06
-4.47151e-06
-4.46546e-06
-4.44385e-06
-4.41825e-06
-4.36834e-06
-4.31228e-06
-4.20366e-06
-4.07677e-06
-3.8292e-06
-3.5614e-06
-3.12155e-06
-3.07906e-06
-3.40836e-06
-3.63764e-06
-3.89954e-06
-4.11056e-06
-4.45947e-06
-4.92497e-06
-5.96552e-06
-7.64224e-06
-1.16754e-05
-1.85957e-05
-3.57252e-05
-6.64532e-05
-0.000144271
-0.000289915
-0.000668365
-0.00141722
-0.00343632
-0.00771153
-0.0188683
-0.0363432
-0.0477121
-0.0728922
-0.0997051
-0.1408
-0.126422
-0.0485528
-0.0139582
-0.0035263
-66.7564
64.1575
0.456055
0.325117
0.235798
0.148522
0.10525
0.0672871
0.0481413
0.0302607
0.0210223
0.0121894
0.00823303
0.00553224
0.00414092
0.00267063
0.00189812
0.0011479
0.000775567
0.000444795
0.00028741
0.000156363
9.59543e-05
4.8155e-05
2.66596e-05
1.03147e-05
3.02078e-06
-2.59142e-06
-5.66844e-06
-9.44234e-06
-1.30738e-05
-1.07618e-05
-8.90523e-06
-8.16071e-06
-7.73044e-06
-7.55995e-06
-7.45962e-06
-7.43067e-06
-7.43653e-06
-7.44329e-06
-7.45162e-06
-7.44186e-06
-7.40536e-06
-7.36356e-06
-7.27953e-06
-7.18811e-06
-7.00552e-06
-6.79856e-06
-6.38152e-06
-5.94192e-06
-5.18369e-06
-5.11402e-06
-5.68369e-06
-6.05994e-06
-6.50017e-06
-6.8436e-06
-7.42627e-06
-8.18215e-06
-9.91447e-06
-1.26342e-05
-1.93357e-05
-3.05506e-05
-5.89614e-05
-0.000108712
-0.000237534
-0.000473044
-0.00109785
-0.00230636
-0.00562839
-0.0125503
-0.031174
-0.0608533
-0.078921
-0.121428
-0.165562
-0.237147
-0.213534
-0.0790114
-0.0221914
-0.0055418
-64.5945
61.8118
0.655218
0.453109
0.330086
0.205593
0.147113
0.0932271
0.067373
0.0419301
0.0294372
0.0168181
0.0114717
0.00768569
0.00581159
0.00370811
0.00266153
0.00159006
0.00108603
0.000614844
0.000401992
0.000215697
0.000134058
6.62233e-05
3.7192e-05
1.4033e-05
4.19018e-06
-3.7351e-06
-7.87747e-06
-1.32158e-05
-1.86206e-05
-1.50368e-05
-1.24017e-05
-1.14039e-05
-1.08051e-05
-1.05769e-05
-1.04362e-05
-1.03976e-05
-1.04075e-05
-1.04171e-05
-1.04304e-05
-1.04174e-05
-1.03652e-05
-1.03087e-05
-1.0189e-05
-1.00655e-05
-9.80626e-06
-9.52663e-06
-8.93263e-06
-8.33313e-06
-7.21638e-06
-7.1215e-06
-7.96473e-06
-8.47764e-06
-9.10267e-06
-9.56521e-06
-1.03846e-05
-1.13994e-05
-1.38244e-05
-1.74695e-05
-2.68232e-05
-4.18343e-05
-8.13817e-05
-0.000147882
-0.000326686
-0.000640896
-0.00150462
-0.00311213
-0.00767894
-0.0169257
-0.0430478
-0.0858457
-0.109172
-0.169921
-0.230346
-0.33733
-0.305107
-0.106371
-0.0288203
-0.00707389
-62.4334
59.4578
0.871747
0.578055
0.424545
0.260117
0.188873
0.118112
0.0866444
0.0531242
0.0378908
0.0211785
0.014665
0.00977591
0.00750223
0.00471096
0.00343176
0.00201334
0.00139793
0.000776264
0.000516679
0.000271536
0.000172065
8.29994e-05
4.76556e-05
1.73112e-05
5.34101e-06
-4.99759e-06
-1.00178e-05
-1.69734e-05
-2.45161e-05
-1.92675e-05
-1.58288e-05
-1.46278e-05
-1.3862e-05
-1.35874e-05
-1.34054e-05
-1.33591e-05
-1.33749e-05
-1.33874e-05
-1.34073e-05
-1.33918e-05
-1.33226e-05
-1.32536e-05
-1.30958e-05
-1.29455e-05
-1.26048e-05
-1.22643e-05
-1.1481e-05
-1.07421e-05
-9.20552e-06
-9.0888e-06
-1.02561e-05
-1.0888e-05
-1.17088e-05
-1.22699e-05
-1.33331e-05
-1.45588e-05
-1.7686e-05
-2.208e-05
-3.40953e-05
-5.21591e-05
-0.000102776
-0.000182658
-0.000410638
-0.000787169
-0.00188249
-0.00380111
-0.00954571
-0.0206325
-0.054269
-0.111642
-0.137952
-0.218459
-0.293304
-0.443121
-0.403374
-0.128897
-0.0332202
-0.00796943
-60.2734
57.0936
1.11149
0.697547
0.519585
0.311032
0.230719
0.14151
0.10607
0.0636412
0.0464471
0.0251594
0.0178153
0.0117784
0.0092275
0.00566307
0.00421508
0.00240936
0.00171361
0.000925354
0.000632286
0.000322418
0.000210239
9.79536e-05
5.81318e-05
1.99709e-05
6.50096e-06
-6.43199e-06
-1.2054e-05
-2.06909e-05
-3.09093e-05
-2.34177e-05
-1.91614e-05
-1.78301e-05
-1.68954e-05
-1.65902e-05
-1.6365e-05
-1.63137e-05
-1.63377e-05
-1.63527e-05
-1.63818e-05
-1.63648e-05
-1.62765e-05
-1.61986e-05
-1.59987e-05
-1.58293e-05
-1.53995e-05
-1.50157e-05
-1.40237e-05
-1.31793e-05
-1.11344e-05
-1.10013e-05
-1.25653e-05
-1.32869e-05
-1.43217e-05
-1.49511e-05
-1.62722e-05
-1.76404e-05
-2.14975e-05
-2.63898e-05
-4.11391e-05
-6.12097e-05
-0.000123065
-0.000211633
-0.000488922
-0.000905188
-0.00222852
-0.00433902
-0.0112031
-0.0234454
-0.064559
-0.138714
-0.164598
-0.267264
-0.353308
-0.556548
-0.511076
-0.144286
-0.0348064
-0.00811795
-58.115
54.7176
1.38092
0.807786
0.616025
0.356962
0.273049
0.16286
0.125865
0.0732146
0.0552208
0.0286166
0.0209399
0.013662
0.0110104
0.00654228
0.00502193
0.00276681
0.00203733
0.00105721
0.000750397
0.000366429
0.00024913
0.000110397
6.88008e-05
2.17808e-05
7.73003e-06
-8.11048e-06
-1.39372e-05
-2.43253e-05
-3.79933e-05
-2.74287e-05
-2.23711e-05
-2.10116e-05
-1.98988e-05
-1.95849e-05
-1.93122e-05
-1.92596e-05
-1.92948e-05
-1.93117e-05
-1.93533e-05
-1.93361e-05
-1.92257e-05
-1.91441e-05
-1.88958e-05
-1.87188e-05
-1.81876e-05
-1.77866e-05
-1.65556e-05
-1.56597e-05
-1.29825e-05
-1.28416e-05
-1.49035e-05
-1.56687e-05
-1.69463e-05
-1.76002e-05
-1.9206e-05
-2.06199e-05
-2.52681e-05
-3.03098e-05
-4.7986e-05
-6.8621e-05
-0.000142365
-0.000233202
-0.000561974
-0.000987504
-0.00254436
-0.00468907
-0.0126504
-0.0251126
-0.0735494
-0.167759
-0.188214
-0.316783
-0.40868
-0.679988
-0.631686
-0.149401
-0.0330843
-0.00746676
-55.9584
52.3293
1.68728
0.902991
0.715366
0.396054
0.316582
0.181403
0.146391
0.0814786
0.0644026
0.031356
0.02408
0.0153843
0.0128865
0.00731725
0.00586917
0.00306996
0.00237623
0.00116508
0.000873772
0.000400957
0.000289722
0.000119397
7.99937e-05
2.24281e-05
9.13782e-06
-1.01347e-05
-1.55996e-05
-2.78058e-05
-4.60254e-05
-3.1208e-05
-2.54258e-05
-2.41771e-05
-2.28645e-05
-2.25723e-05
-2.22442e-05
-2.21954e-05
-2.22453e-05
-2.22625e-05
-2.23213e-05
-2.23057e-05
-2.21685e-05
-2.2091e-05
-2.17845e-05
-2.1617e-05
-2.09646e-05
-2.0585e-05
-1.90684e-05
-1.82058e-05
-1.4724e-05
-1.45887e-05
-1.7288e-05
-1.80244e-05
-1.95902e-05
-2.02061e-05
-2.21432e-05
-2.34669e-05
-2.90235e-05
-3.3729e-05
-5.4733e-05
-7.39429e-05
-0.000161071
-0.00024541
-0.000631534
-0.0010252
-0.00283819
-0.00480897
-0.0139237
-0.0253509
-0.0807343
-0.199804
-0.207554
-0.367828
-0.45694
-0.81629
-0.769725
-0.139896
-0.0277371
-0.0060367
-53.8042
49.9294
2.03858
0.974583
0.820218
0.425747
0.362519
0.196077
0.168236
0.0879164
0.0742982
0.0331083
0.027313
0.0168861
0.0149093
0.00794281
0.00678334
0.00329642
0.00274186
0.00123944
0.00100695
0.000422329
0.000333664
0.000123644
9.22706e-05
2.14757e-05
1.09095e-05
-1.26511e-05
-1.69479e-05
-3.10209e-05
-5.53531e-05
-3.46133e-05
-2.82914e-05
-2.73381e-05
-2.57828e-05
-2.55545e-05
-2.51574e-05
-2.51194e-05
-2.51885e-05
-2.52032e-05
-2.52852e-05
-2.52734e-05
-2.51028e-05
-2.5041e-05
-2.46612e-05
-2.45278e-05
-2.37239e-05
-2.34219e-05
-2.15482e-05
-2.085e-05
-1.63258e-05
-1.62165e-05
-1.97444e-05
-2.03402e-05
-2.22657e-05
-2.27528e-05
-2.50999e-05
-2.61405e-05
-3.2813e-05
-3.65004e-05
-6.15724e-05
-7.65842e-05
-0.000179991
-0.000245711
-0.000701222
-0.00100681
-0.00312742
-0.00464578
-0.015111
-0.0238415
-0.0854003
-0.236362
-0.220846
-0.421788
-0.494464
-0.968921
-0.931179
-0.109702
-0.0187734
-0.00393628
-51.6526
47.5207
2.44354
1.01008
0.934952
0.442406
0.412789
0.20536
0.192323
0.0917833
0.0853837
0.0334922
0.0307727
0.0180802
0.0171596
0.00835313
0.00780559
0.0034138
0.00315241
0.00126656
0.00115716
0.000425264
0.000383604
0.000121263
0.000106539
1.82958e-05
1.33453e-05
-1.58742e-05
-1.78539e-05
-3.37988e-05
-6.64528e-05
-3.74281e-05
-3.09335e-05
-3.05152e-05
-2.86404e-05
-2.85356e-05
-2.80475e-05
-2.80301e-05
-2.81235e-05
-2.8131e-05
-2.82447e-05
-2.82395e-05
-2.80255e-05
-2.79965e-05
-2.75204e-05
-2.74579e-05
-2.64552e-05
-2.63137e-05
-2.3973e-05
-2.36393e-05
-1.7744e-05
-1.76919e-05
-2.23105e-05
-2.2595e-05
-2.49911e-05
-2.52178e-05
-2.81029e-05
-2.85838e-05
-3.6722e-05
-3.84195e-05
-6.88369e-05
-7.57249e-05
-0.000200533
-0.000230585
-0.000777389
-0.000916483
-0.00344265
-0.00412738
-0.0163751
-0.0202293
-0.086521
-0.279653
-0.225538
-0.480956
-0.516001
-1.14215
-1.12408
-0.0503015
-0.00676657
-0.00136962
-49.5043
47.508
2.4445
1.01197
0.936874
0.444095
0.414442
0.206365
0.193282
0.0922726
0.085842
0.0336776
0.0309441
0.0181905
0.0172658
0.00842663
0.00787674
0.00346245
0.00319957
0.00130112
0.00119097
0.000453848
0.000411889
0.000147797
0.000132984
4.44224e-05
3.95087e-05
1.13286e-05
9.75577e-06
7.49838e-07
-1.82417e-06
-2.35751e-06
-2.71122e-06
-2.72885e-06
-2.72556e-06
-2.72719e-06
-2.76024e-06
-2.76847e-06
-2.93134e-06
-2.94814e-06
-3.1911e-06
-3.20943e-06
-3.40995e-06
-3.42287e-06
-3.5327e-06
-3.53966e-06
-3.59681e-06
-3.59563e-06
-3.51612e-06
-3.48743e-06
-2.83981e-06
-2.8497e-06
-3.7224e-06
-3.79101e-06
-4.57079e-06
-4.68924e-06
-6.634e-06
-7.03306e-06
-1.41789e-05
-1.57607e-05
-4.44311e-05
-5.11006e-05
-0.000172533
-0.000202046
-0.000739714
-0.000877167
-0.00337468
-0.00405385
-0.0162044
-0.020037
-0.0859672
-0.278214
-0.224528
-0.47954
-0.514548
-1.14017
-1.12216
-0.0502162
-0.00675558
-0.00136288
-49.515
49.9181
2.03948
0.976212
0.821912
0.427264
0.36396
0.19701
0.169072
0.088381
0.0746969
0.0332912
0.0274657
0.0169886
0.0150029
0.00801036
0.00684589
0.00334122
0.0027835
0.00127113
0.00103702
0.000448248
0.000358945
0.000147526
0.000115962
4.49221e-05
3.44403e-05
1.17905e-05
8.42783e-06
1.09688e-06
-1.43591e-06
-2.06354e-06
-2.38974e-06
-2.43022e-06
-2.43248e-06
-2.43634e-06
-2.46368e-06
-2.48119e-06
-2.60983e-06
-2.64532e-06
-2.83654e-06
-2.87526e-06
-3.03347e-06
-3.06084e-06
-3.14832e-06
-3.16307e-06
-3.2076e-06
-3.20486e-06
-3.13862e-06
-3.07931e-06
-2.58932e-06
-2.61076e-06
-3.2854e-06
-3.43067e-06
-4.06298e-06
-4.31893e-06
-5.91158e-06
-6.77738e-06
-1.26555e-05
-1.60961e-05
-3.97714e-05
-5.43147e-05
-0.000154992
-0.00021955
-0.000667634
-0.000969665
-0.00306686
-0.00457312
-0.014958
-0.0236405
-0.0848745
-0.235157
-0.219895
-0.420536
-0.493139
-0.967204
-0.929574
-0.109515
-0.0187448
-0.00391877
-51.6623
52.3193
1.68811
0.904381
0.716842
0.397394
0.317827
0.182249
0.147114
0.081906
0.0647478
0.031529
0.0242149
0.0154774
0.0129683
0.007378
0.00592365
0.00311031
0.00241263
0.00119355
0.000900216
0.000424062
0.000312023
0.000140568
0.000100926
4.31715e-05
2.9994e-05
1.15351e-05
7.30027e-06
1.26726e-06
-1.11163e-06
-1.77913e-06
-2.08065e-06
-2.13455e-06
-2.14126e-06
-2.14654e-06
-2.16952e-06
-2.19147e-06
-2.29398e-06
-2.33821e-06
-2.48996e-06
-2.5382e-06
-2.66417e-06
-2.69836e-06
-2.76877e-06
-2.78719e-06
-2.82205e-06
-2.81835e-06
-2.76229e-06
-2.68978e-06
-2.31926e-06
-2.34657e-06
-2.87081e-06
-3.05218e-06
-3.57207e-06
-3.89726e-06
-5.22193e-06
-6.32567e-06
-1.12389e-05
-1.56342e-05
-3.55088e-05
-5.41273e-05
-0.000139019
-0.000221884
-0.000601887
-0.000991036
-0.00278461
-0.0047399
-0.0137871
-0.0251524
-0.0802509
-0.198796
-0.206686
-0.366732
-0.455756
-0.814816
-0.768391
-0.139655
-0.0276977
-0.00601599
-53.8126
54.7089
1.38165
0.808959
0.61729
0.358123
0.274111
0.163607
0.126484
0.0735965
0.0555163
0.0287743
0.0210575
0.0137445
0.0110809
0.00659569
0.00506873
0.00280232
0.00206869
0.00108222
0.000773277
0.000386615
0.000268465
0.000128817
8.69664e-05
3.98014e-05
2.58764e-05
1.07626e-05
6.28082e-06
1.30632e-06
-8.45391e-07
-1.5068e-06
-1.7821e-06
-1.84204e-06
-1.85178e-06
-1.8578e-06
-1.8772e-06
-1.9003e-06
-1.9822e-06
-2.02852e-06
-2.14922e-06
-2.19972e-06
-2.3003e-06
-2.33619e-06
-2.39302e-06
-2.41234e-06
-2.43964e-06
-2.43547e-06
-2.38795e-06
-2.31339e-06
-2.03413e-06
-2.06333e-06
-2.47105e-06
-2.66139e-06
-3.09061e-06
-3.43759e-06
-4.54441e-06
-5.72584e-06
-9.85107e-06
-1.45651e-05
-3.13247e-05
-5.13325e-05
-0.000123237
-0.000212504
-0.00053621
-0.000956908
-0.00249759
-0.00462566
-0.0125301
-0.0249255
-0.073118
-0.166922
-0.187445
-0.315838
-0.407645
-0.678741
-0.630584
-0.14914
-0.0330399
-0.00744816
-55.9658
57.0863
1.1121
0.698517
0.520646
0.312013
0.231608
0.142151
0.10659
0.0639717
0.0466955
0.025298
0.0179155
0.0118496
0.00928698
0.00570876
0.00425445
0.00243976
0.00174006
0.00094674
0.000651638
0.000339609
0.000226613
0.000113589
7.35231e-05
3.52514e-05
2.19076e-05
9.61267e-06
5.31227e-06
1.24624e-06
-6.29911e-07
-1.24744e-06
-1.49256e-06
-1.55262e-06
-1.5639e-06
-1.57007e-06
-1.58629e-06
-1.60836e-06
-1.67336e-06
-1.71737e-06
-1.81277e-06
-1.86073e-06
-1.94054e-06
-1.97472e-06
-2.02028e-06
-2.03867e-06
-2.05989e-06
-2.05567e-06
-2.01585e-06
-1.94625e-06
-1.73744e-06
-1.76572e-06
-2.08095e-06
-2.26215e-06
-2.61391e-06
-2.94932e-06
-3.86678e-06
-5.01217e-06
-8.44692e-06
-1.30255e-05
-2.70357e-05
-4.65033e-05
-0.000106857
-0.000193908
-0.000467036
-0.000878624
-0.00218859
-0.00428289
-0.0110993
-0.0232767
-0.0641863
-0.138029
-0.163936
-0.266467
-0.352428
-0.555514
-0.510179
-0.14403
-0.0347611
-0.00810361
-58.1212
59.4519
0.872253
0.578835
0.425407
0.260919
0.189594
0.118642
0.0870672
0.0533992
0.0380932
0.0212952
0.0147477
0.009835
0.00755085
0.00474866
0.00346386
0.00203844
0.00141953
0.000793908
0.000532519
0.000285674
0.000185476
9.58256e-05
6.02639e-05
2.98361e-05
1.79824e-05
8.18517e-06
4.36074e-06
1.11083e-06
-4.57371e-07
-1.00074e-06
-1.21063e-06
-1.26605e-06
-1.27745e-06
-1.28326e-06
-1.29649e-06
-1.31602e-06
-1.36668e-06
-1.40546e-06
-1.4795e-06
-1.52176e-06
-1.58393e-06
-1.61411e-06
-1.64993e-06
-1.66616e-06
-1.68237e-06
-1.67844e-06
-1.64597e-06
-1.58559e-06
-1.43196e-06
-1.45731e-06
-1.69707e-06
-1.85707e-06
-2.13911e-06
-2.43935e-06
-3.18249e-06
-4.2104e-06
-7.00322e-06
-1.11187e-05
-2.25498e-05
-4.00764e-05
-8.94927e-05
-0.000168018
-0.000392655
-0.000764989
-0.00184951
-0.00375353
-0.00945926
-0.0204878
-0.0539594
-0.111096
-0.137404
-0.217808
-0.292582
-0.44229
-0.402662
-0.128664
-0.0331774
-0.00795967
-60.2785
61.8072
0.655611
0.453707
0.330754
0.206216
0.14767
0.0936418
0.0677007
0.0421467
0.0295943
0.0169108
0.0115364
0.00773219
0.00584942
0.00373762
0.00268645
0.00160971
0.00110282
0.000628656
0.000414322
0.000226738
0.0001445
7.622e-05
4.70089e-05
2.37891e-05
1.40451e-05
6.55447e-06
3.40789e-06
9.1856e-07
-3.19798e-07
-7.65427e-07
-9.34986e-07
-9.81959e-07
-9.92236e-07
-9.97228e-07
-1.00754e-06
-1.02355e-06
-1.06155e-06
-1.0932e-06
-1.14856e-06
-1.18306e-06
-1.22969e-06
-1.25437e-06
-1.28144e-06
-1.29471e-06
-1.30665e-06
-1.30329e-06
-1.27804e-06
-1.22941e-06
-1.11991e-06
-1.1409e-06
-1.31708e-06
-1.44794e-06
-1.66465e-06
-1.91301e-06
-2.48884e-06
-3.341e-06
-5.51181e-06
-8.92815e-06
-1.78381e-05
-3.24064e-05
-7.10334e-05
-0.000136412
-0.000312641
-0.000623373
-0.00147874
-0.0030741
-0.00761061
-0.016809
-0.0428045
-0.0854288
-0.108742
-0.169416
-0.229784
-0.336692
-0.304566
-0.106176
-0.0287833
-0.00706819
-62.4373
64.1542
0.456335
0.32554
0.236273
0.148967
0.105646
0.0675847
0.0483749
0.0304167
0.0211345
0.0122566
0.00827954
0.00556574
0.00416797
0.00269181
0.0019159
0.00116201
0.000787557
0.000454706
0.000296224
0.000164273
0.000103419
5.53068e-05
3.36776e-05
1.72913e-05
1.00723e-05
4.77847e-06
2.44569e-06
6.84559e-07
-2.09255e-07
-5.39594e-07
-6.64275e-07
-6.99896e-07
-7.08007e-07
-7.11837e-07
-7.19228e-07
-7.31063e-07
-7.57523e-07
-7.80846e-07
-8.19291e-07
-8.44706e-07
-8.77173e-07
-8.95385e-07
-9.14344e-07
-9.24127e-07
-9.32324e-07
-9.29769e-07
-9.11703e-07
-8.76259e-07
-8.03106e-07
-8.18747e-07
-9.3946e-07
-1.03602e-06
-1.18974e-06
-1.37465e-06
-1.78576e-06
-2.42124e-06
-3.97468e-06
-6.52495e-06
-1.29144e-05
-2.38006e-05
-5.15595e-05
-0.000100476
-0.000227467
-0.000460383
-0.00107924
-0.00227865
-0.00557894
-0.0124649
-0.0309989
-0.0605595
-0.0786127
-0.121067
-0.16516
-0.236695
-0.213154
-0.0788637
-0.0221628
-0.00553932
-64.5973
66.495
0.269092
0.195797
0.141794
0.0900244
0.0634694
0.040821
0.0290391
0.0183703
0.0126827
0.00742253
0.00498445
0.00335613
0.00249734
0.00162349
0.00114864
0.000701887
0.0004726
0.000275005
0.000177901
9.94596e-05
6.2154e-05
3.35188e-05
2.02536e-05
1.0491e-05
6.06172e-06
2.90468e-06
1.47275e-06
4.21909e-07
-1.17909e-07
-3.2084e-07
-3.97128e-07
-4.19326e-07
-4.24507e-07
-4.26912e-07
-4.31361e-07
-4.38611e-07
-4.54233e-07
-4.68487e-07
-4.91144e-07
-5.06676e-07
-5.25843e-07
-5.36986e-07
-5.48223e-07
-5.54206e-07
-5.58997e-07
-5.574e-07
-5.46545e-07
-5.25042e-07
-4.83097e-07
-4.9273e-07
-5.63212e-07
-6.22292e-07
-7.14191e-07
-8.28014e-07
-1.07486e-06
-1.46649e-06
-2.40068e-06
-3.97344e-06
-7.82119e-06
-1.45394e-05
-3.12797e-05
-6.14934e-05
-0.000138216
-0.000282259
-0.000657135
-0.00140037
-0.00340638
-0.00765948
-0.0187628
-0.0361684
-0.0475265
-0.0726757
-0.0994639
-0.140531
-0.126196
-0.0484605
-0.0139401
-0.00352595
-66.7581
68.8321
0.0889201
0.0653338
0.0472714
0.0301132
0.0211716
0.0136512
0.00968274
0.00614305
0.00422826
0.00248537
0.00166437
0.00112145
0.000831938
0.000542523
0.00038276
0.000234722
0.000157557
9.20238e-05
5.93335e-05
3.32994e-05
2.0737e-05
1.12277e-05
6.75969e-06
3.51601e-06
2.02385e-06
9.74386e-07
4.9188e-07
1.42479e-07
-3.80317e-08
-1.06455e-07
-1.32136e-07
-1.39673e-07
-1.41452e-07
-1.42272e-07
-1.43758e-07
-1.46198e-07
-1.51365e-07
-1.56158e-07
-1.63644e-07
-1.68866e-07
-1.75205e-07
-1.78954e-07
-1.82677e-07
-1.8469e-07
-1.86266e-07
-1.85723e-07
-1.82102e-07
-1.74899e-07
-1.61234e-07
-1.64486e-07
-1.87666e-07
-2.07541e-07
-2.38127e-07
-2.76536e-07
-3.58873e-07
-4.91102e-07
-8.02946e-07
-1.33416e-06
-2.61948e-06
-4.88941e-06
-1.04853e-05
-2.06984e-05
-4.63682e-05
-9.50896e-05
-0.000220682
-0.000472324
-0.00114547
-0.00258298
-0.00628089
-0.0120299
-0.0159004
-0.0242324
-0.0332117
-0.046599
-0.0417886
-0.0163371
-0.00475381
-0.00120987
-68.9193
68.8074
0.0893511
0.0623522
0.0430936
0.0264454
0.018121
0.0115038
0.00801159
0.00486979
0.00339178
0.00241573
0.00186966
0.00128183
0.000942236
0.000607854
0.0004269
0.000264352
0.000180264
0.000109173
7.34153e-05
4.42608e-05
2.97776e-05
1.80843e-05
1.22201e-05
7.34913e-06
4.85159e-06
2.69085e-06
1.50825e-06
3.434e-07
-4.2216e-07
-7.55725e-07
-9.49603e-07
-1.04133e-06
-1.12216e-06
-1.17153e-06
-1.22849e-06
-1.2679e-06
-1.31888e-06
-1.35978e-06
-1.42134e-06
-1.48062e-06
-1.58245e-06
-1.68728e-06
-1.872e-06
-2.05255e-06
-2.35449e-06
-2.60714e-06
-2.97934e-06
-3.24973e-06
-3.6838e-06
-4.57985e-06
-6.63111e-06
-8.70574e-06
-1.23068e-05
-1.60377e-05
-2.27038e-05
-2.97534e-05
-4.25042e-05
-5.61673e-05
-8.11337e-05
-0.000108506
-0.000159528
-0.000218357
-0.000332775
-0.000478828
-0.000786399
-0.00125251
-0.00235626
-0.00440569
-0.00942581
-0.0166882
-0.0201052
-0.027815
-0.035875
-0.0474642
-0.0419164
-0.0163484
-0.00475025
-0.00120725
-68.8508
66.421
0.270499
0.18676
0.129188
0.079012
0.0543021
0.0343928
0.0240261
0.0145469
0.0101587
0.007233
0.00561328
0.00383764
0.00282818
0.00181864
0.00128088
0.000790548
0.000540726
0.000326406
0.000220192
0.000132331
8.93146e-05
5.40793e-05
3.66616e-05
2.19787e-05
1.45596e-05
8.0455e-06
4.53278e-06
1.02052e-06
-1.27855e-06
-2.26968e-06
-2.85135e-06
-3.12344e-06
-3.36713e-06
-3.51383e-06
-3.68581e-06