/*--------------------------------*- C++ -*----------------------------------*\
| =========                 |                                                 |
| \\      /  F ield         | OpenFOAM: The Open Source CFD Toolbox           |
|  \\    /   O peration     | Version:  5.x                                   |
|   \\  /    A nd           | Web:      www.OpenFOAM.org                      |
|    \\/     M anipulation  |                                                 |
\*---------------------------------------------------------------------------*/
FoamFile
{
    version     2.0;
    format      ascii;
    class       volScalarField;
    location    "0.2";
    object      gradTy;
}
// * * * * * * * * * * * * * * * * * * * * * * * * * * * * * * * * * * * * * //

dimensions      [0 -1 0 1 0 0 0];

internalField   nonuniform List<scalar> 
3200
(
15.584
9.06228
11.0276
9.20149
9.94928
9.17568
9.49904
9.12853
9.27786
9.10862
9.17238
9.11281
9.13963
9.10336
9.11751
9.10051
9.10705
9.09972
9.10253
9.09946
9.10064
9.09933
9.09984
9.09924
9.09948
9.09918
9.09931
9.09914
9.09921
9.09912
9.09908
9.09911
9.09908
9.09909
9.09907
9.09908
9.09907
9.09908
9.09907
9.09907
9.09907
9.09907
9.09907
9.09906
9.09908
9.09907
9.09911
9.09908
9.09915
9.0991
9.0992
9.09911
9.09935
9.09915
9.09965
9.09925
9.1002
9.09944
9.10127
9.0998
9.10333
9.10044
9.10736
9.10147
9.11549
9.10241
9.13313
9.09847
9.17495
9.04887
9.18957
9.75377
9.23276
10.4631
9.45393
12.262
11.5715
11.4662
11.4444
11.4398
14.7519
9.82856
10.8297
9.46655
9.87009
9.29371
9.46757
9.19129
9.27112
9.14497
9.17912
9.13489
9.14927
9.12223
9.12972
9.11706
9.12053
9.11508
9.11657
9.11429
9.11492
9.11394
9.11422
9.11377
9.1139
9.11367
9.11374
9.11362
9.11366
9.11359
9.11355
9.11356
9.11354
9.11355
9.11353
9.11354
9.11353
9.11353
9.11352
9.11353
9.11352
9.11352
9.11353
9.11352
9.11354
9.11353
9.11356
9.11354
9.1136
9.11357
9.11365
9.1136
9.11378
9.11367
9.11404
9.11383
9.11454
9.11414
9.1155
9.11472
9.11736
9.11581
9.12097
9.11781
9.12825
9.12115
9.14395
9.12467
9.18085
9.10742
9.25079
9.69038
9.41005
10.3298
9.80598
11.9194
11.5585
11.4732
11.4541
11.45
14.1164
10.3568
10.7255
9.65975
9.82903
9.38041
9.45289
9.23838
9.27127
9.17342
9.18755
9.1531
9.15907
9.13818
9.1412
9.1314
9.13281
9.12859
9.1292
9.12744
9.12769
9.12694
9.12705
9.1267
9.12675
9.12658
9.12661
9.12651
9.12653
9.12647
9.12644
9.12644
9.12643
9.12643
9.12642
9.12642
9.12641
9.12641
9.12641
9.12641
9.12641
9.12641
9.12641
9.12641
9.12642
9.12641
9.12644
9.12643
9.12648
9.12646
9.12652
9.1265
9.12665
9.1266
9.12689
9.1268
9.12735
9.12719
9.12825
9.12793
9.12997
9.12934
9.13334
9.13203
9.14015
9.13713
9.15489
9.14629
9.1904
9.15573
9.29865
9.65442
9.5379
10.2531
10.0512
11.6746
11.5334
11.4765
11.4621
11.4589
13.6309
10.719
10.6779
9.80237
9.81157
9.44497
9.44841
9.27415
9.27525
9.19588
9.19643
9.16816
9.16841
9.1516
9.15162
9.14371
9.14373
9.14032
9.14033
9.1389
9.13891
9.1383
9.1383
9.13802
9.13802
9.13788
9.13788
9.1378
9.13781
9.13776
9.13772
9.13773
9.13771
9.13771
9.1377
9.1377
9.13769
9.13769
9.13769
9.13769
9.13769
9.13769
9.13769
9.13769
9.1377
9.1377
9.13772
9.13772
9.13775
9.13775
9.1378
9.1378
9.13792
9.13792
9.13815
9.13815
9.13859
9.13859
9.13945
9.13944
9.1411
9.14108
9.14433
9.14428
9.1509
9.15068
9.16531
9.1642
9.20153
9.19536
9.33648
9.63594
9.63104
10.2118
10.2221
11.4993
11.5038
11.4769
11.4685
11.4665
13.2615
10.9655
10.6626
9.90848
9.80801
9.49344
9.44976
9.3015
9.28104
9.21366
9.20497
9.18054
9.1769
9.16279
9.1608
9.15412
9.15321
9.15032
9.14993
9.14872
9.14856
9.14804
9.14796
9.14773
9.14769
9.14758
9.14756
9.14749
9.14748
9.14744
9.14741
9.14741
9.1474
9.14739
9.14739
9.14738
9.14738
9.14738
9.14737
9.14737
9.14737
9.14737
9.14737
9.14737
9.14738
9.14738
9.1474
9.14741
9.14744
9.14744
9.14748
9.1475
9.14759
9.14762
9.14782
9.14787
9.14825
9.14836
9.14909
9.14929
9.1507
9.1511
9.15386
9.15466
9.16033
9.16205
9.17477
9.179
9.21284
9.22754
9.36647
9.62822
9.69935
10.192
10.3411
11.3738
11.4743
11.4755
11.4735
11.4729
12.9833
11.1314
10.6645
9.98732
9.81186
9.5298
9.454
9.32234
9.2873
9.2276
9.21265
9.19056
9.18428
9.17193
9.1686
9.16272
9.16119
9.15863
9.15797
9.1569
9.15662
9.15616
9.15604
9.15583
9.15577
9.15567
9.15564
9.15558
9.15557
9.15553
9.1555
9.15549
9.15548
9.15548
9.15547
9.15547
9.15546
9.15546
9.15546
9.15546
9.15546
9.15546
9.15546
9.15546
9.15547
9.15547
9.15549
9.15549
9.15552
9.15553
9.15557
9.15559
9.15568
9.15572
9.1559
9.15599
9.15633
9.1565
9.15715
9.1575
9.15874
9.15942
9.16187
9.16325
9.16833
9.17138
9.18299
9.19103
9.22335
9.25318
9.39004
9.62671
9.74938
10.1847
10.4234
11.2844
11.4476
11.473
11.4773
11.4781
12.7786
11.241
10.6739
10.045
9.81882
9.55665
9.45917
9.33793
9.29312
9.23827
9.21911
9.19842
9.19035
9.17914
9.17493
9.16957
9.16762
9.16527
9.16443
9.16345
9.16309
9.16267
9.16251
9.16232
9.16225
9.16216
9.16212
9.16207
9.16205
9.16201
9.16198
9.16198
9.16196
9.16196
9.16195
9.16195
9.16195
9.16194
9.16194
9.16194
9.16194
9.16194
9.16194
9.16194
9.16195
9.16195
9.16197
9.16198
9.162
9.16202
9.16205
9.16208
9.16216
9.16222
9.16238
9.1625
9.1628
9.16303
9.16362
9.16406
9.1652
9.16607
9.16833
9.1701
9.17481
9.17878
9.18977
9.2005
9.23239
9.27299
9.40811
9.62832
9.7855
10.1838
10.4795
11.2218
11.4252
11.4702
11.4801
11.4822
12.6349
11.311
10.6848
10.0854
9.82606
9.57564
9.46397
9.34906
9.29791
9.24603
9.22412
9.20423
9.195
9.1845
9.17972
9.17468
9.17247
9.17025
9.1693
9.16836
9.16796
9.16756
9.16738
9.1672
9.16712
9.16703
9.16699
9.16694
9.16692
9.16688
9.16686
9.16685
9.16684
9.16683
9.16683
9.16682
9.16682
9.16682
9.16681
9.16681
9.16681
9.16681
9.16681
9.16682
9.16682
9.16683
9.16684
9.16685
9.16687
9.16689
9.16692
9.16695
9.16703
9.1671
9.16725
9.16738
9.16767
9.16793
9.16849
9.16899
9.17007
9.17106
9.1732
9.17523
9.17972
9.1843
9.19495
9.20754
9.2395
9.28745
9.42126
9.63101
9.81058
10.1858
10.5165
11.1795
11.408
11.4676
11.4821
11.4853
12.5434
11.3522
10.6937
10.1112
9.83176
9.58781
9.46758
9.35625
9.30129
9.25109
9.22754
9.20808
9.19815
9.18805
9.18294
9.17809
9.17571
9.17357
9.17255
9.17164
9.17121
9.17082
9.17063
9.17046
9.17037
9.17029
9.17024
9.1702
9.17017
9.17014
9.17011
9.1701
9.17009
9.17008
9.17008
9.17008
9.17007
9.17007
9.17007
9.17007
9.17006
9.17006
9.17007
9.17007
9.17007
9.17008
9.17009
9.1701
9.17012
9.17014
9.17017
9.17021
9.17028
9.17036
9.1705
9.17064
9.17092
9.1712
9.17174
9.17228
9.17332
9.17439
9.17646
9.17864
9.18301
9.18797
9.19846
9.21221
9.24439
9.29692
9.42986
9.63345
9.82642
10.1882
10.5389
11.1534
11.3964
11.4657
11.4833
11.4873
12.499
11.3712
10.6986
10.1237
9.83485
9.59376
9.4695
9.35977
9.30303
9.2536
9.22927
9.20999
9.19973
9.18983
9.18456
9.17979
9.17734
9.17523
9.17418
9.17328
9.17284
9.17246
9.17226
9.17209
9.172
9.17192
9.17187
9.17182
9.1718
9.17176
9.17174
9.17173
9.17172
9.17171
9.17171
9.1717
9.1717
9.1717
9.1717
9.17169
9.17169
9.17169
9.17169
9.1717
9.1717
9.17171
9.17172
9.17173
9.17175
9.17177
9.1718
9.17184
9.17191
9.17199
9.17213
9.17228
9.17255
9.17284
9.17337
9.17393
9.17495
9.17605
9.17809
9.18035
9.18467
9.1898
9.20023
9.21454
9.24688
9.3016
9.43411
9.63485
9.83409
10.1897
10.5495
11.1409
11.3906
11.4646
11.4839
11.4883
-12.2293
-11.1221
-10.4403
-9.81812
-9.49689
-9.2192
-9.07526
-8.94804
-8.88259
-8.8261
-8.79848
-8.77683
-8.76542
-8.75458
-8.74888
-8.74383
-8.7413
-8.73921
-8.7382
-8.73741
-8.73704
-8.73678
-8.73666
-8.73658
-8.73655
-8.73654
-8.73654
-8.73655
-8.73656
-8.73659
-8.73662
-8.73663
-8.73665
-8.73666
-8.73668
-8.73669
-8.73671
-8.73672
-8.73674
-8.73675
-8.73677
-8.73678
-8.7368
-8.73681
-8.73683
-8.73684
-8.73686
-8.73687
-8.73688
-8.73689
-8.7369
-8.73691
-8.73693
-8.73694
-8.73695
-8.73697
-8.73698
-8.737
-8.73702
-8.73705
-8.7371
-8.73717
-8.73734
-8.73762
-8.7383
-8.73956
-8.74277
-8.74903
-8.76573
-8.80059
-8.89165
-9.04275
-9.21002
-9.52873
-9.87501
-10.4662
-10.7164
-10.7908
-10.81
-10.8145
-12.2725
-11.1038
-10.4365
-9.80449
-9.49344
-9.212
-9.07265
-8.94353
-8.88013
-8.82278
-8.79604
-8.77419
-8.76315
-8.7521
-8.74658
-8.74144
-8.73899
-8.73686
-8.73588
-8.73509
-8.73474
-8.73447
-8.73435
-8.73427
-8.73425
-8.73423
-8.73423
-8.73424
-8.73426
-8.73428
-8.73431
-8.73432
-8.73434
-8.73436
-8.73437
-8.73439
-8.7344
-8.73442
-8.73443
-8.73445
-8.73446
-8.73448
-8.73449
-8.73451
-8.73452
-8.73453
-8.73455
-8.73456
-8.73458
-8.73459
-8.7346
-8.73461
-8.73462
-8.73463
-8.73465
-8.73466
-8.73468
-8.73469
-8.73472
-8.73474
-8.73479
-8.73486
-8.73503
-8.73529
-8.73597
-8.73717
-8.74034
-8.74631
-8.7627
-8.79606
-8.88699
-9.03989
-9.20179
-9.52551
-9.86314
-10.4778
-10.7215
-10.791
-10.8086
-10.8127
-12.3614
-11.0643
-10.43
-9.77645
-9.48709
-9.19727
-9.06769
-8.93435
-8.87532
-8.81608
-8.79122
-8.7689
-8.75864
-8.74715
-8.74199
-8.73666
-8.73437
-8.73218
-8.73127
-8.73045
-8.73012
-8.72984
-8.72974
-8.72966
-8.72963
-8.72962
-8.72962
-8.72963
-8.72964
-8.72967
-8.7297
-8.72971
-8.72973
-8.72974
-8.72976
-8.72977
-8.72979
-8.7298
-8.72982
-8.72983
-8.72985
-8.72986
-8.72988
-8.72989
-8.72991
-8.72992
-8.72994
-8.72995
-8.72996
-8.72997
-8.72998
-8.72999
-8.73001
-8.73002
-8.73003
-8.73004
-8.73006
-8.73008
-8.7301
-8.73013
-8.73018
-8.73024
-8.73041
-8.73065
-8.73132
-8.7324
-8.7355
-8.74088
-8.75671
-8.78695
-8.87761
-9.03446
-9.18491
-9.51961
-9.83811
-10.5023
-10.7315
-10.7914
-10.8058
-10.8091
-12.5013
-10.9969
-10.4228
-9.73225
-9.47907
-9.17428
-9.06095
-8.92016
-8.86844
-8.80584
-8.78409
-8.76089
-8.75193
-8.73967
-8.73513
-8.72947
-8.72746
-8.72515
-8.72435
-8.72349
-8.7232
-8.72291
-8.72282
-8.72274
-8.72272
-8.7227
-8.7227
-8.72272
-8.72273
-8.72275
-8.72278
-8.7228
-8.72282
-8.72283
-8.72285
-8.72286
-8.72288
-8.72289
-8.72291
-8.72292
-8.72294
-8.72295
-8.72297
-8.72298
-8.723
-8.72301
-8.72302
-8.72303
-8.72305
-8.72306
-8.72307
-8.72308
-8.72309
-8.7231
-8.72312
-8.72313
-8.72315
-8.72316
-8.72319
-8.72321
-8.72326
-8.72332
-8.72348
-8.72368
-8.72435
-8.72526
-8.72827
-8.73273
-8.74785
-8.77314
-8.86333
-9.02709
-9.15848
-9.51224
-9.79719
-10.5421
-10.7464
-10.7915
-10.8015
-10.8037
-12.7003
-10.8912
-10.4189
-9.66897
-9.47141
-9.14178
-9.05338
-8.90037
-8.8599
-8.79181
-8.77485
-8.7501
-8.74313
-8.72964
-8.72605
-8.71987
-8.71828
-8.71577
-8.71514
-8.71422
-8.71399
-8.71368
-8.71361
-8.71352
-8.71351
-8.71349
-8.7135
-8.71351
-8.71352
-8.71355
-8.71358
-8.71359
-8.71361
-8.71362
-8.71364
-8.71365
-8.71367
-8.71368
-8.7137
-8.71371
-8.71373
-8.71374
-8.71376
-8.71377
-8.71379
-8.7138
-8.71382
-8.71382
-8.71384
-8.71385
-8.71386
-8.71387
-8.71389
-8.71389
-8.71391
-8.71392
-8.71394
-8.71395
-8.71398
-8.714
-8.71405
-8.71409
-8.71426
-8.71441
-8.71507
-8.71573
-8.71869
-8.72187
-8.73631
-8.75447
-8.84387
-9.01881
-9.121
-9.50552
-9.73581
-10.6016
-10.7657
-10.7912
-10.7956
-10.7964
-12.9707
-10.7307
-10.4248
-9.582
-9.46737
-9.09778
-9.04649
-8.87404
-8.85039
-8.77359
-8.76374
-8.7364
-8.73236
-8.71697
-8.71482
-8.70781
-8.70687
-8.70404
-8.70368
-8.70264
-8.70251
-8.70216
-8.70212
-8.70203
-8.70202
-8.702
-8.702
-8.70202
-8.70202
-8.70206
-8.70209
-8.7021
-8.70212
-8.70213
-8.70215
-8.70216
-8.70218
-8.70219
-8.70221
-8.70222
-8.70224
-8.70225
-8.70227
-8.70228
-8.7023
-8.70231
-8.70233
-8.70233
-8.70235
-8.70236
-8.70237
-8.70238
-8.7024
-8.7024
-8.70242
-8.70243
-8.70245
-8.70246
-8.70249
-8.7025
-8.70256
-8.70258
-8.70276
-8.70283
-8.70351
-8.70384
-8.70682
-8.70828
-8.72235
-8.73068
-8.81875
-9.01126
-9.07006
-9.50288
-9.64694
-10.6872
-10.7885
-10.7897
-10.7878
-10.7872
-13.3298
-10.4915
-10.4508
-9.4643
-9.47186
-9.03919
-9.04255
-8.83972
-8.84094
-8.75053
-8.75117
-8.71955
-8.71984
-8.70152
-8.70155
-8.69325
-8.69328
-8.68995
-8.68996
-8.68875
-8.68876
-8.68836
-8.68836
-8.68825
-8.68825
-8.68824
-8.68824
-8.68825
-8.68825
-8.68829
-8.68833
-8.68833
-8.68836
-8.68836
-8.68839
-8.68839
-8.68842
-8.68842
-8.68845
-8.68845
-8.68848
-8.68848
-8.68851
-8.68851
-8.68854
-8.68854
-8.68857
-8.68857
-8.68859
-8.68859
-8.68861
-8.68861
-8.68863
-8.68863
-8.68866
-8.68866
-8.68869
-8.68869
-8.68873
-8.68872
-8.68879
-8.68879
-8.68898
-8.68896
-8.6897
-8.68956
-8.69275
-8.69191
-8.70635
-8.70143
-8.78723
-9.00688
-9.002
-9.5097
-9.52016
-10.8084
-10.8134
-10.7865
-10.7781
-10.7761
-13.8015
-10.1392
-10.5133
-9.30519
-9.49232
-8.96127
-9.04496
-8.79518
-8.83311
-8.72167
-8.73772
-8.69922
-8.70585
-8.6831
-8.68636
-8.67609
-8.67755
-8.67344
-8.67403
-8.67253
-8.67275
-8.67225
-8.67232
-8.67219
-8.67221
-8.67219
-8.67219
-8.67221
-8.6722
-8.67225
-8.67229
-8.67228
-8.67232
-8.67231
-8.67235
-8.67234
-8.67238
-8.67237
-8.67241
-8.6724
-8.67244
-8.67243
-8.67247
-8.67246
-8.6725
-8.67249
-8.67252
-8.67252
-8.67255
-8.67254
-8.67257
-8.67256
-8.67259
-8.67258
-8.67262
-8.67261
-8.67265
-8.67264
-8.67268
-8.67267
-8.67275
-8.67271
-8.67294
-8.67277
-8.67364
-8.67287
-8.67655
-8.67265
-8.68885
-8.6663
-8.74811
-9.00931
-8.91127
-9.53434
-9.34019
-10.979
-10.8377
-10.7805
-10.7661
-10.7629
-14.4191
-9.62403
-10.6378
-9.08858
-9.53987
-8.85682
-9.05884
-8.73703
-8.82917
-8.68551
-8.72427
-8.67483
-8.6908
-8.66135
-8.66944
-8.65617
-8.65976
-8.65445
-8.65588
-8.65395
-8.65446
-8.65382
-8.65399
-8.65381
-8.65386
-8.65384
-8.65383
-8.65386
-8.65385
-8.65389
-8.65395
-8.65393
-8.65398
-8.65396
-8.654
-8.65399
-8.65403
-8.65402
-8.65406
-8.65405
-8.65409
-8.65407
-8.65412
-8.6541
-8.65415
-8.65413
-8.65418
-8.65416
-8.6542
-8.65419
-8.65422
-8.6542
-8.65424
-8.65423
-8.65427
-8.65425
-8.6543
-8.65428
-8.65434
-8.6543
-8.65441
-8.65431
-8.65461
-8.65424
-8.65534
-8.65369
-8.65836
-8.65029
-8.67062
-8.62468
-8.69955
-9.02392
-8.78947
-9.58956
-9.08478
-11.2189
-10.8566
-10.7709
-10.7517
-10.7475
-15.2277
-8.87513
-10.8636
-8.79021
-9.63125
-8.71502
-9.09184
-8.66022
-8.83266
-8.63986
-8.7122
-8.64561
-8.67538
-8.63586
-8.65114
-8.63332
-8.64006
-8.63293
-8.63559
-8.63299
-8.63395
-8.63309
-8.6334
-8.63316
-8.63324
-8.63321
-8.63321
-8.63325
-8.63322
-8.63327
-8.63334
-8.6333
-8.63336
-8.63333
-8.63339
-8.63336
-8.63342
-8.63339
-8.63345
-8.63342
-8.63348
-8.63345
-8.63351
-8.63348
-8.63354
-8.6335
-8.63356
-8.63353
-8.63359
-8.63356
-8.6336
-8.63358
-8.63363
-8.6336
-8.63366
-8.63362
-8.63369
-8.63365
-8.63373
-8.63366
-8.6338
-8.63363
-8.63403
-8.63337
-8.63487
-8.632
-8.63841
-8.62451
-8.65277
-8.57595
-8.63877
-9.05874
-8.6241
-9.69494
-8.7217
-11.5567
-10.8625
-10.7567
-10.7348
-10.7301
15.2356
8.88092
10.8711
8.79319
9.6364
8.71633
9.09475
8.66094
8.83425
8.64042
8.71316
8.64619
8.67614
8.63637
8.65176
8.63378
8.6406
8.63335
8.63607
8.63339
8.63439
8.63347
8.63381
8.63351
8.63362
8.63353
8.63356
8.63354
8.63355
8.63355
8.63355
8.63355
8.63355
8.63355
8.63356
8.63355
8.63356
8.63356
8.63356
8.63356
8.63357
8.63356
8.63357
8.63357
8.63358
8.63357
8.63358
8.63358
8.63358
8.63358
8.63359
8.63358
8.63359
8.63358
8.6336
8.63359
8.6336
8.63359
8.63362
8.63358
8.63367
8.63353
8.63386
8.63325
8.63467
8.63186
8.63812
8.62438
8.65229
8.57598
8.63812
9.05616
8.62301
9.69065
8.71944
11.5496
10.8566
10.751
10.7291
10.7246
14.4267
9.63008
10.6447
9.09212
9.54455
8.85862
9.06148
8.73804
8.83064
8.6862
8.72517
8.67546
8.69153
8.6619
8.67004
8.65665
8.66028
8.65489
8.65634
8.65435
8.65489
8.6542
8.65439
8.65417
8.65423
8.65416
8.65418
8.65416
8.65417
8.65417
8.65417
8.65417
8.65417
8.65417
8.65418
8.65417
8.65418
8.65418
8.65418
8.65418
8.65419
8.65418
8.65419
8.65419
8.65419
8.65419
8.6542
8.6542
8.6542
8.6542
8.6542
8.6542
8.65421
8.65421
8.65421
8.65421
8.65422
8.65421
8.65424
8.65421
8.65428
8.6542
8.65445
8.6541
8.65514
8.65353
8.65809
8.6501
8.67017
8.62452
8.69876
9.02161
8.78796
9.58565
9.08193
11.2124
10.8508
10.7652
10.746
10.742
13.809
10.1454
10.5198
9.30911
9.49669
8.96341
9.04744
8.79639
8.8345
8.72247
8.7386
8.69988
8.70656
8.68366
8.68695
8.67659
8.67806
8.6739
8.67449
8.67295
8.67317
8.67264
8.67272
8.67255
8.67257
8.67252
8.67253
8.67252
8.67252
8.67252
8.67252
8.67252
8.67253
8.67252
8.67253
8.67253
8.67253
8.67253
8.67253
8.67253
8.67254
8.67254
8.67254
8.67254
8.67255
8.67254
8.67255
8.67255
8.67255
8.67255
8.67256
8.67255
8.67256
8.67256
8.67256
8.67256
8.67257
8.67257
8.67259
8.67258
8.67263
8.67259
8.67279
8.67263
8.67344
8.67269
8.67629
8.67243
8.68843
8.666
8.74721
9.00718
8.90947
9.53067
9.33694
10.973
10.8319
10.7749
10.7604
10.7572
13.337
10.4978
10.457
9.46848
9.47603
9.04157
9.04493
8.84108
8.84231
8.75141
8.75205
8.72025
8.72055
8.70212
8.70214
8.69377
8.6938
8.69042
8.69043
8.68918
8.68919
8.68876
8.68876
8.68862
8.68863
8.68859
8.68859
8.68858
8.68858
8.68858
8.68858
8.68858
8.68858
8.68858
8.68858
8.68858
8.68859
8.68859
8.68859
8.68859
8.68859
8.68859
8.6886
8.6886
8.6886
8.6886
8.6886
8.6886
8.68861
8.68861
8.68861
8.68861
8.68862
8.68862
8.68862
8.68862
8.68863
8.68863
8.68864
8.68864
8.68868
8.68868
8.68884
8.68882
8.68952
8.68938
8.6925
8.69166
8.70594
8.70104
8.78626
9.00488
9.00001
9.5062
9.51665
10.8027
10.8077
10.7808
10.7724
10.7704
12.9778
10.737
10.4308
9.58635
9.4714
9.10033
9.04881
8.8755
8.85173
8.77452
8.76461
8.73712
8.73307
8.71757
8.71541
8.70834
8.70739
8.70452
8.70414
8.70308
8.70294
8.70257
8.70253
8.70241
8.70239
8.70236
8.70235
8.70234
8.70234
8.70234
8.70235
8.70235
8.70235
8.70235
8.70235
8.70235
8.70235
8.70235
8.70236
8.70236
8.70236
8.70236
8.70236
8.70236
8.70237
8.70237
8.70237
8.70237
8.70238
8.70238
8.70238
8.70238
8.70238
8.70238
8.70239
8.70239
8.70239
8.7024
8.70241
8.70241
8.70245
8.70247
8.70262
8.70269
8.70334
8.70365
8.70658
8.70801
8.72193
8.7302
8.81773
9.00933
9.06793
9.49948
9.64324
10.6817
10.7829
10.7841
10.7822
10.7816
12.7073
10.8975
10.4248
9.67343
9.47536
9.14445
9.05567
8.9019
8.86122
8.79277
8.77572
8.75084
8.74382
8.73025
8.72663
8.7204
8.71879
8.71625
8.71561
8.71466
8.71442
8.71409
8.71401
8.7139
8.71388
8.71385
8.71384
8.71383
8.71383
8.71383
8.71383
8.71383
8.71383
8.71384
8.71384
8.71384
8.71384
8.71384
8.71384
8.71384
8.71385
8.71385
8.71385
8.71385
8.71385
8.71385
8.71386
8.71386
8.71386
8.71386
8.71386
8.71387
8.71387
8.71387
8.71387
8.71387
8.71388
8.71388
8.71389
8.7139
8.71394
8.71397
8.71412
8.71426
8.71489
8.71554
8.71844
8.72158
8.73588
8.75392
8.84279
9.01692
9.11876
9.50218
9.73198
10.5963
10.76
10.7856
10.7899
10.7907
12.5082
11.0033
10.4286
9.73678
9.48296
9.17702
9.06322
8.92174
8.86976
8.80683
8.78496
8.76163
8.75262
8.74029
8.73571
8.73
8.72797
8.72562
8.72481
8.72392
8.72363
8.72332
8.72322
8.72312
8.72308
8.72305
8.72304
8.72304
8.72303
8.72303
8.72303
8.72304
8.72304
8.72304
8.72304
8.72304
8.72304
8.72304
8.72305
8.72305
8.72305
8.72305
8.72305
8.72305
8.72306
8.72306
8.72306
8.72306
8.72306
8.72307
8.72307
8.72307
8.72307
8.72307
8.72308
8.72308
8.72308
8.72309
8.7231
8.72311
8.72315
8.72319
8.72334
8.72353
8.72416
8.72505
8.72801
8.73243
8.74741
8.77254
8.86222
9.02522
9.15617
9.50893
9.79328
10.5369
10.7408
10.7859
10.7959
10.798
12.3683
11.0706
10.4358
9.78103
9.49095
9.20007
9.06995
8.93597
8.87664
8.81708
8.79208
8.76964
8.75932
8.74776
8.74256
8.73719
8.73487
8.73265
8.73172
8.73088
8.73054
8.73025
8.73013
8.73003
8.73
8.72997
8.72996
8.72995
8.72995
8.72995
8.72995
8.72995
8.72995
8.72995
8.72995
8.72995
8.72996
8.72996
8.72996
8.72996
8.72996
8.72996
8.72997
8.72997
8.72997
8.72997
8.72997
8.72997
8.72998
8.72998
8.72998
8.72998
8.72998
8.72999
8.72999
8.72999
8.73
8.73
8.73001
8.73003
8.73006
8.73011
8.73026
8.73049
8.73113
8.73219
8.73524
8.74056
8.75626
8.78631
8.87647
9.03261
9.18255
9.51631
9.83415
10.4971
10.726
10.7857
10.8002
10.8034
12.2794
11.1101
10.4423
9.8091
9.49728
9.21484
9.07491
8.94517
8.88145
8.8238
8.79692
8.77494
8.76384
8.75272
8.74716
8.74198
8.73949
8.73734
8.73634
8.73553
8.73516
8.73487
8.73475
8.73465
8.73461
8.73458
8.73457
8.73456
8.73456
8.73456
8.73456
8.73456
8.73456
8.73457
8.73457
8.73457
8.73457
8.73457
8.73457
8.73457
8.73458
8.73458
8.73458
8.73458
8.73458
8.73459
8.73459
8.73459
8.73459
8.73459
8.73459
8.7346
8.7346
8.7346
8.7346
8.73461
8.73461
8.73461
8.73463
8.73464
8.73468
8.73474
8.73488
8.73513
8.73579
8.73696
8.74008
8.74599
8.76225
8.7954
8.88584
9.03805
9.1994
9.52222
9.85914
10.4727
10.716
10.7853
10.803
10.807
12.2361
11.1284
10.446
9.82274
9.50072
9.22205
9.07752
8.94969
8.88391
8.82713
8.79936
8.77759
8.76611
8.7552
8.74946
8.74437
8.74181
8.73969
8.73866
8.73785
8.73747
8.73719
8.73706
8.73696
8.73692
8.73689
8.73688
8.73687
8.73687
8.73687
8.73687
8.73687
8.73687
8.73688
8.73688
8.73688
8.73688
8.73688
8.73688
8.73688
8.73689
8.73689
8.73689
8.73689
8.73689
8.7369
8.7369
8.7369
8.7369
8.7369
8.7369
8.73691
8.73691
8.73691
8.73691
8.73692
8.73692
8.73693
8.73694
8.73695
8.73699
8.73705
8.7372
8.73746
8.73812
8.73935
8.74251
8.74871
8.76527
8.79992
8.89049
9.04091
9.20762
9.52545
9.871
10.4611
10.7109
10.7851
10.8044
10.8088
-12.4927
-11.3654
-10.6934
-10.1198
-9.83201
-9.59255
-9.4699
-9.36307
-9.30971
-9.26599
-9.24196
-9.21774
-9.20454
-9.19215
-9.18569
-9.18001
-9.17715
-9.17474
-9.17355
-9.17256
-9.17208
-9.17168
-9.17148
-9.17132
-9.17124
-9.17117
-9.17114
-9.17112
-9.17111
-9.17111
-9.17112
-9.17113
-9.17114
-9.17115
-9.17116
-9.17117
-9.17118
-9.1712
-9.17121
-9.17122
-9.17124
-9.17125
-9.17127
-9.17129
-9.17131
-9.17133
-9.17136
-9.17138
-9.17142
-9.17144
-9.17149
-9.17154
-9.17162
-9.17171
-9.17187
-9.17203
-9.17232
-9.17262
-9.17317
-9.17375
-9.17479
-9.17591
-9.17798
-9.18027
-9.18463
-9.18981
-9.20033
-9.21474
-9.24727
-9.30227
-9.43536
-9.63683
-9.83663
-10.1931
-10.5535
-11.1458
-11.3958
-11.47
-11.4892
-11.4936
-12.5371
-11.3464
-10.6885
-10.1073
-9.82889
-9.58661
-9.46793
-9.35954
-9.30789
-9.26372
-9.24046
-9.21577
-9.20295
-9.19033
-9.18407
-9.1783
-9.17552
-9.17308
-9.17192
-9.17092
-9.17045
-9.17005
-9.16986
-9.16969
-9.16961
-9.16954
-9.16951
-9.16949
-9.16948
-9.16948
-9.16949
-9.1695
-9.16951
-9.16952
-9.16953
-9.16954
-9.16956
-9.16957
-9.16958
-9.1696
-9.16961
-9.16963
-9.16964
-9.16966
-9.16968
-9.1697
-9.16973
-9.16975
-9.16979
-9.16982
-9.16986
-9.16991
-9.16999
-9.17008
-9.17024
-9.1704
-9.17069
-9.17099
-9.17154
-9.1721
-9.17317
-9.17425
-9.17635
-9.17856
-9.18298
-9.18798
-9.19857
-9.21241
-9.24478
-9.29757
-9.4311
-9.63543
-9.82895
-10.1916
-10.5429
-11.1583
-11.4017
-11.471
-11.4886
-11.4927
-12.6285
-11.3051
-10.6796
-10.0816
-9.82315
-9.57445
-9.46423
-9.35234
-9.30433
-9.25914
-9.23751
-9.21178
-9.1998
-9.18668
-9.18083
-9.17486
-9.17227
-9.16974
-9.16867
-9.16764
-9.1672
-9.16678
-9.1666
-9.16643
-9.16636
-9.16629
-9.16626
-9.16624
-9.16623
-9.16623
-9.16624
-9.16625
-9.16626
-9.16627
-9.16628
-9.16629
-9.16631
-9.16632
-9.16633
-9.16634
-9.16636
-9.16637
-9.16639
-9.16641
-9.16643
-9.16645
-9.16648
-9.1665
-9.16654
-9.16656
-9.16661
-9.16665
-9.16674
-9.16682
-9.16699
-9.16714
-9.16744
-9.16772
-9.16829
-9.16881
-9.16991
-9.17092
-9.17309
-9.17515
-9.17969
-9.18431
-9.19506
-9.20773
-9.23989
-9.28808
-9.42249
-9.63301
-9.81309
-10.1892
-10.5205
-11.1845
-11.4133
-11.473
-11.4874
-11.4907
-12.7722
-11.2352
-10.6686
-10.0412
-9.81584
-9.55548
-9.45927
-9.34119
-9.29922
-9.25215
-9.23323
-9.2057
-9.19513
-9.18117
-9.17602
-9.16969
-9.16741
-9.16474
-9.1638
-9.16271
-9.16233
-9.16189
-9.16173
-9.16155
-9.16149
-9.16141
-9.16139
-9.16136
-9.16136
-9.16136
-9.16137
-9.16137
-9.16139
-9.16139
-9.16141
-9.16142
-9.16143
-9.16144
-9.16146
-9.16147
-9.16149
-9.1615
-9.16152
-9.16153
-9.16156
-9.16157
-9.1616
-9.16162
-9.16167
-9.16169
-9.16174
-9.16177
-9.16187
-9.16194
-9.16212
-9.16225
-9.16257
-9.16281
-9.16343
-9.16388
-9.16505
-9.16593
-9.16822
-9.17002
-9.17478
-9.17879
-9.18987
-9.20068
-9.23277
-9.27357
-9.40931
-9.63034
-9.78798
-10.1872
-10.4834
-11.2268
-11.4305
-11.4755
-11.4855
-11.4876
-12.9768
-11.1256
-10.6591
-9.98355
-9.80876
-9.52868
-9.45386
-9.3256
-9.2929
-9.24256
-9.22781
-9.19742
-9.18906
-9.17373
-9.16967
-9.16277
-9.16098
-9.15807
-9.15733
-9.15615
-9.15585
-9.15537
-9.15525
-9.15505
-9.155
-9.15492
-9.1549
-9.15488
-9.15487
-9.15487
-9.15488
-9.15489
-9.1549
-9.15491
-9.15492
-9.15493
-9.15495
-9.15496
-9.15498
-9.15498
-9.155
-9.15501
-9.15504
-9.15505
-9.15507
-9.15509
-9.15512
-9.15514
-9.15518
-9.1552
-9.15525
-9.15528
-9.15539
-9.15544
-9.15564
-9.15574
-9.15609
-9.15628
-9.15695
-9.15731
-9.15858
-9.15927
-9.16177
-9.16316
-9.16829
-9.17138
-9.18309
-9.19119
-9.22372
-9.25371
-9.39121
-9.62877
-9.75179
-10.1881
-10.4272
-11.2895
-11.4529
-11.4783
-11.4827
-11.4835
-13.2549
-10.9597
-10.6571
-9.90481
-9.80474
-9.49241
-9.4493
-9.30481
-9.28588
-9.23009
-9.22153
-9.18674
-9.18174
-9.16429
-9.16188
-9.15406
-9.153
-9.14973
-9.14929
-9.14796
-9.14778
-9.14725
-9.14717
-9.14695
-9.14692
-9.14683
-9.14682
-9.14679
-9.14678
-9.14678
-9.14679
-9.1468
-9.14681
-9.14682
-9.14684
-9.14684
-9.14686
-9.14687
-9.14689
-9.14689
-9.14692
-9.14692
-9.14695
-9.14695
-9.14699
-9.14699
-9.14704
-9.14704
-9.1471
-9.14711
-9.14717
-9.14718
-9.1473
-9.14734
-9.14756
-9.14762
-9.14802
-9.14813
-9.14889
-9.1491
-9.15054
-9.15094
-9.15375
-9.15456
-9.16029
-9.16203
-9.17487
-9.17913
-9.21321
-9.22799
-9.3676
-9.63035
-9.70167
-10.1955
-10.3448
-11.3791
-11.4796
-11.4808
-11.4789
-11.4783
-13.6242
-10.7132
-10.6721
-9.79887
-9.80806
-9.44409
-9.44749
-9.27761
-9.27892
-9.21427
-9.21483
-9.17336
-9.17339
-9.15269
-9.15274
-9.1435
-9.14353
-9.13968
-9.13969
-9.13813
-9.13814
-9.1375
-9.13751
-9.13724
-9.13724
-9.13714
-9.13714
-9.1371
-9.1371
-9.1371
-9.13711
-9.13711
-9.13713
-9.13713
-9.13716
-9.13716
-9.13718
-9.13718
-9.13721
-9.13721
-9.13724
-9.13724
-9.13727
-9.13727
-9.13731
-9.13731
-9.13736
-9.13736
-9.13742
-9.13742
-9.13749
-9.13749
-9.13763
-9.13763
-9.13789
-9.13789
-9.13837
-9.13836
-9.13926
-9.13925
-9.14095
-9.14093
-9.14423
-9.14417
-9.15087
-9.15065
-9.16542
-9.1643
-9.2019
-9.19572
-9.33756
-9.63816
-9.63325
-10.2154
-10.2258
-11.5048
-11.5092
-11.4823
-11.4739
-11.4719
-14.1096
-10.3511
-10.7194
-9.6565
-9.82517
-9.37981
-9.45134
-9.24217
-9.27322
-9.19439
-9.20835
-9.1568
-9.16436
-9.13871
-9.14242
-9.131
-9.13265
-9.12789
-9.12858
-9.12665
-9.12693
-9.12615
-9.12626
-9.12594
-9.12598
-9.12585
-9.12587
-9.12582
-9.12582
-9.12582
-9.12584
-9.12584
-9.12586
-9.12586
-9.12589
-9.12588
-9.12591
-9.1259
-9.12594
-9.12593
-9.12597
-9.12596
-9.126
-9.12599
-9.12604
-9.12603
-9.12609
-9.12607
-9.12615
-9.12614
-9.12622
-9.12619
-9.12637
-9.12632
-9.12664
-9.12655
-9.12714
-9.12696
-9.12807
-9.12773
-9.12983
-9.12918
-9.13325
-9.13192
-9.14013
-9.13709
-9.15502
-9.14635
-9.19079
-9.15596
-9.29967
-9.65678
-9.53993
-10.2569
-10.0546
-11.6803
-11.5389
-11.4819
-11.4675
-11.4643
-14.7449
-9.82292
-10.8231
-9.46369
-9.86573
-9.29354
-9.46515
-9.1957
-9.2705
-9.16931
-9.20303
-9.13633
-9.15512
-9.12198
-9.13113
-9.11638
-9.12043
-9.11428
-9.11597
-9.11348
-9.11416
-9.11315
-9.11343
-9.11301
-9.11312
-9.11295
-9.11299
-9.11293
-9.11294
-9.11294
-9.11296
-9.11295
-9.11298
-9.11297
-9.11301
-9.11299
-9.11303
-9.11302
-9.11306
-9.11304
-9.11309
-9.11307
-9.11312
-9.1131
-9.11316
-9.11314
-9.11321
-9.11318
-9.11328
-9.11324
-9.11335
-9.11328
-9.11351
-9.11338
-9.1138
-9.11357
-9.11433
-9.11391
-9.11533
-9.11452
-9.11722
-9.11565
-9.12089
-9.11769
-9.12825
-9.12108
-9.14409
-9.12468
-9.18128
-9.10748
-9.25171
-9.69295
-9.41182
-10.3339
-9.80908
-11.9254
-11.5641
-11.4786
-11.4595
-11.4553
-15.5768
-9.05686
-11.0204
-9.19924
-9.94419
-9.17621
-9.49537
-9.13404
-9.27348
-9.13737
-9.2003
-9.11093
-9.14647
-9.102
-9.11927
-9.09945
-9.10707
-9.09879
-9.10196
-9.0986
-9.09989
-9.09852
-9.09905
-9.09848
-9.09869
-9.09846
-9.09855
-9.09847
-9.09849
-9.09847
-9.09851
-9.09849
-9.09853
-9.09851
-9.09856
-9.09853
-9.09858
-9.09855
-9.09861
-9.09858
-9.09864
-9.0986
-9.09867
-9.09863
-9.09871
-9.09866
-9.09877
-9.09871
-9.09884
-9.09876
-9.09891
-9.09879
-9.09909
-9.09886
-9.09941
-9.09898
-9.1
-9.0992
-9.10111
-9.09959
-9.10321
-9.10027
-9.10729
-9.10133
-9.11551
-9.1023
-9.1333
-9.0984
-9.17545
-9.04872
-9.19038
-9.75664
-9.23415
-10.4674
-9.45656
-12.2685
-11.5771
-11.4716
-11.4498
-11.4451
)
;

boundaryField
{
    F1_1
    {
        type            calculated;
        value           nonuniform List<scalar> 
80
(
16.056
8.60907
11.1557
9.04779
10.0006
9.10746
9.51995
9.09258
9.2834
9.08818
9.16961
9.1007
9.13494
9.09312
9.11128
9.09165
9.10003
9.09157
9.09517
9.09162
9.09314
9.09162
9.09228
9.09158
9.09189
9.09154
9.0917
9.09151
9.09161
9.09151
9.09146
9.0915
9.09146
9.09148
9.09146
9.09147
9.09145
9.09146
9.09145
9.09145
9.09145
9.09145
9.09145
9.09145
9.09147
9.09145
9.0915
9.09145
9.09154
9.09148
9.0916
9.09147
9.09176
9.0915
9.09207
9.09156
9.09266
9.09168
9.0938
9.09191
9.09599
9.09229
9.10026
9.09276
9.10894
9.0923
9.12785
9.08409
9.17322
9.01681
9.15513
9.79381
9.12956
10.547
9.24639
12.462
11.5738
11.4616
11.4391
11.4344
)
;
    }
    F1_2
    {
        type            calculated;
        value           nonuniform List<scalar> 
80
(
-15.6864
-8.43181
-11.0079
-8.61694
-9.6904
-8.63315
-9.11428
-8.6164
-8.83679
-8.61434
-8.70674
-8.62968
-8.66769
-8.62212
-8.64171
-8.62114
-8.62978
-8.62153
-8.62494
-8.62193
-8.62316
-8.62216
-8.62256
-8.62228
-8.62238
-8.62235
-8.62234
-8.62239
-8.62235
-8.62241
-8.62248
-8.62243
-8.62251
-8.62246
-8.62253
-8.62249
-8.62256
-8.62252
-8.62259
-8.62255
-8.62262
-8.62258
-8.62265
-8.62261
-8.62268
-8.62264
-8.62271
-8.62267
-8.62273
-8.6227
-8.62274
-8.62271
-8.62277
-8.62273
-8.6228
-8.62275
-8.62283
-8.62278
-8.62287
-8.62278
-8.62295
-8.62273
-8.6232
-8.62237
-8.62413
-8.62052
-8.62804
-8.61074
-8.64412
-8.54973
-8.60491
-9.0824
-8.52865
-9.76312
-8.50848
-11.7543
-10.861
-10.7483
-10.7257
-10.7209
)
;
    }
    F1_3
    {
        type            calculated;
        value           nonuniform List<scalar> 
80
(
15.6945
8.43743
11.0157
8.61959
9.69584
8.63417
9.11735
8.61695
8.83846
8.61481
8.70771
8.63023
8.66845
8.62261
8.64234
8.62158
8.63031
8.62194
8.62542
8.62232
8.62359
8.62253
8.62296
8.62262
8.62276
8.62266
8.6227
8.62267
8.62268
8.62268
8.62268
8.62268
8.62269
8.62268
8.62269
8.62268
8.62269
8.62269
8.6227
8.62269
8.6227
8.62269
8.6227
8.6227
8.62271
8.6227
8.62271
8.62271
8.62271
8.62271
8.62272
8.62271
8.62272
8.62272
8.62273
8.62272
8.62273
8.62272
8.62275
8.6227
8.62281
8.62263
8.62302
8.62225
8.62391
8.62039
8.62774
8.61063
8.64361
8.54985
8.60433
9.07966
8.5278