/*--------------------------------*- C++ -*----------------------------------*\
| =========                 |                                                 |
| \\      /  F ield         | OpenFOAM: The Open Source CFD Toolbox           |
|  \\    /   O peration     | Version:  5.x                                   |
|   \\  /    A nd           | Web:      www.OpenFOAM.org                      |
|    \\/     M anipulation  |                                                 |
\*---------------------------------------------------------------------------*/
FoamFile
{
    version     2.0;
    format      ascii;
    class       volScalarField;
    location    "0.2";
    object      T;
}
// * * * * * * * * * * * * * * * * * * * * * * * * * * * * * * * * * * * * * //

dimensions      [0 0 0 1 0 0 0];

internalField   nonuniform List<scalar> 
3200
(
2.23244
2.46966
2.48239
2.56133
2.56609
2.59922
2.60128
2.61687
2.61783
2.62491
2.62532
2.6279
2.62807
2.62955
2.62964
2.63034
2.63038
2.63069
2.63071
2.63083
2.63084
2.6309
2.6309
2.63092
2.63093
2.63094
2.63094
2.63095
2.63095
2.63095
2.63095
2.63095
2.63095
2.63095
2.63096
2.63096
2.63096
2.63096
2.63096
2.63096
2.63096
2.63096
2.63096
2.63096
2.63096
2.63096
2.63095
2.63095
2.63095
2.63095
2.63095
2.63095
2.63094
2.63093
2.63091
2.63091
2.63087
2.63087
2.63079
2.63078
2.63063
2.63061
2.63032
2.63029
2.62969
2.62961
2.62825
2.62804
2.6244
2.62361
2.61052
2.5838
2.58048
2.52891
2.52241
2.41522
2.41078
2.41022
2.4101
2.41008
2.38356
2.56481
2.59139
2.65488
2.66507
2.69166
2.69606
2.70852
2.71055
2.7162
2.71707
2.71914
2.71951
2.72069
2.72088
2.72144
2.72152
2.72177
2.7218
2.72191
2.72192
2.72197
2.72197
2.72199
2.722
2.72201
2.72201
2.72201
2.72201
2.72202
2.72202
2.72202
2.72202
2.72202
2.72202
2.72202
2.72202
2.72202
2.72202
2.72202
2.72202
2.72202
2.72202
2.72202
2.72202
2.72202
2.72202
2.72202
2.72202
2.72202
2.72201
2.72201
2.722
2.722
2.72199
2.72198
2.72195
2.72194
2.72188
2.72186
2.72174
2.7217
2.72147
2.72139
2.72091
2.72073
2.71964
2.71916
2.71616
2.71442
2.70276
2.68094
2.67384
2.63271
2.61903
2.53584
2.52647
2.52492
2.5246
2.52453
2.52748
2.66623
2.69898
2.75066
2.76349
2.78509
2.79063
2.8007
2.80325
2.80781
2.8089
2.81059
2.81105
2.81199
2.81223
2.81268
2.81279
2.81299
2.81304
2.81312
2.81314
2.81317
2.81318
2.8132
2.8132
2.81321
2.81321
2.81322
2.81322
2.81322
2.81322
2.81322
2.81323
2.81323
2.81323
2.81323
2.81323
2.81323
2.81323
2.81323
2.81323
2.81323
2.81323
2.81323
2.81323
2.81323
2.81323
2.81322
2.81322
2.81322
2.81322
2.81322
2.81321
2.81321
2.81319
2.81319
2.81316
2.81315
2.8131
2.81307
2.81298
2.81293
2.81274
2.81264
2.81225
2.81203
2.81113
2.81053
2.80801
2.80576
2.79554
2.77761
2.76868
2.73551
2.71853
2.6536
2.64195
2.63968
2.63918
2.63908
2.66589
2.77195
2.8059
2.84807
2.86165
2.87927
2.88512
2.89328
2.89597
2.89967
2.90082
2.90221
2.90269
2.90345
2.9037
2.90406
2.90418
2.90434
2.90439
2.90446
2.90448
2.90451
2.90451
2.90453
2.90453
2.90454
2.90454
2.90454
2.90454
2.90455
2.90455
2.90455
2.90455
2.90455
2.90455
2.90455
2.90455
2.90455
2.90455
2.90455
2.90455
2.90455
2.90455
2.90455
2.90455
2.90455
2.90455
2.90455
2.90455
2.90455
2.90454
2.90454
2.90454
2.90453
2.90452
2.90452
2.9045
2.90448
2.90444
2.90442
2.90434
2.90429
2.90413
2.90403
2.90371
2.90347
2.90274
2.90209
2.89997
2.89754
2.88874
2.87402
2.86459
2.83777
2.82005
2.76933
2.75714
2.75445
2.75384
2.75371
2.8001
2.88061
2.91254
2.9467
2.95972
2.97399
2.9796
2.98618
2.98875
2.99173
2.99283
2.99396
2.99442
2.99503
2.99527
2.99556
2.99567
2.9958
2.99584
2.9959
2.99592
2.99594
2.99595
2.99596
2.99596
2.99597
2.99597
2.99597
2.99598
2.99598
2.99598
2.99598
2.99598
2.99598
2.99598
2.99598
2.99598
2.99598
2.99598
2.99598
2.99598
2.99598
2.99598
2.99598
2.99598
2.99598
2.99598
2.99598
2.99598
2.99598
2.99598
2.99597
2.99597
2.99597
2.99596
2.99595
2.99593
2.99592
2.99589
2.99586
2.9958
2.99575
2.99563
2.99553
2.99527
2.99504
2.99444
2.99381
2.99204
2.98967
2.98227
2.97032
2.9613
2.93975
2.92297
2.88359
2.87202
2.86922
2.86856
2.86841
2.93112
2.99126
3.01915
3.04624
3.05781
3.06913
3.07412
3.07931
3.08159
3.08394
3.08492
3.08582
3.08623
3.0867
3.08692
3.08715
3.08724
3.08734
3.08739
3.08743
3.08745
3.08747
3.08747
3.08748
3.08749
3.08749
3.08749
3.08749
3.08749
3.0875
3.0875
3.0875
3.0875
3.0875
3.0875
3.0875
3.0875
3.0875
3.0875
3.0875
3.0875
3.0875
3.0875
3.0875
3.0875
3.0875
3.0875
3.0875
3.0875
3.0875
3.08749
3.08749
3.08749
3.08749
3.08748
3.08747
3.08746
3.08745
3.08742
3.0874
3.08735
3.08731
3.08721
3.08712
3.08692
3.08671
3.08623
3.08567
3.08423
3.08209
3.07606
3.06659
3.05858
3.04161
3.02687
2.99681
2.98662
2.98396
2.98331
2.98317
3.05976
3.10324
3.12583
3.14645
3.15596
3.16459
3.16868
3.17263
3.1745
3.17628
3.17708
3.17777
3.17811
3.17846
3.17864
3.17881
3.17889
3.17897
3.179
3.17904
3.17905
3.17906
3.17907
3.17908
3.17908
3.17908
3.17908
3.17909
3.17909
3.17909
3.17909
3.17909
3.17909
3.17909
3.17909
3.17909
3.17909
3.17909
3.17909
3.17909
3.17909
3.17909
3.17909
3.17909
3.17909
3.17909
3.17909
3.17909
3.17909
3.17909
3.17909
3.17909
3.17908
3.17908
3.17908
3.17907
3.17906
3.17905
3.17903
3.17901
3.17898
3.17894
3.17887
3.17879
3.17864
3.17847
3.1781
3.17763
3.17651
3.17473
3.17007
3.16286
3.15629
3.14344
3.13144
3.10928
3.10097
3.09868
3.0981
3.09797
3.18669
3.21608
3.23263
3.24714
3.25419
3.26027
3.2633
3.26607
3.26746
3.26871
3.2693
3.26979
3.27004
3.27029
3.27042
3.27054
3.2706
3.27065
3.27068
3.2707
3.27071
3.27072
3.27072
3.27073
3.27073
3.27073
3.27073
3.27073
3.27074
3.27074
3.27074
3.27074
3.27074
3.27074
3.27074
3.27074
3.27074
3.27074
3.27074
3.27074
3.27074
3.27074
3.27074
3.27074
3.27074
3.27074
3.27074
3.27074
3.27074
3.27074
3.27074
3.27073
3.27073
3.27073
3.27073
3.27072
3.27072
3.27071
3.2707
3.27068
3.27066
3.27063
3.27058
3.27052
3.27041
3.27029
3.27003
3.26968
3.26887
3.26755
3.26423
3.25915
3.25429
3.24529
3.23646
3.22124
3.21513
3.21336
3.21291
3.21281
3.31246
3.32945
3.33953
3.34816
3.35248
3.3561
3.35796
3.35961
3.36046
3.3612
3.36156
3.36185
3.36201
3.36215
3.36223
3.36231
3.36234
3.36237
3.36239
3.3624
3.36241
3.36242
3.36242
3.36242
3.36242
3.36242
3.36242
3.36242
3.36243
3.36243
3.36243
3.36243
3.36243
3.36243
3.36243
3.36243
3.36243
3.36243
3.36243
3.36243
3.36243
3.36243
3.36243
3.36243
3.36243
3.36243
3.36243
3.36243
3.36243
3.36243
3.36242
3.36242
3.36242
3.36242
3.36242
3.36242
3.36241
3.36241
3.3624
3.36239
3.36238
3.36236
3.36233
3.3623
3.36223
3.36216
3.362
3.36178
3.3613
3.36048
3.35849
3.35548
3.3525
3.34716
3.34177
3.33287
3.32913
3.32803
3.32774
3.32768
3.43756
3.44312
3.4465
3.44937
3.45082
3.45202
3.45265
3.4532
3.45348
3.45373
3.45385
3.45395
3.454
3.45405
3.45408
3.4541
3.45411
3.45412
3.45413
3.45413
3.45413
3.45414
3.45414
3.45414
3.45414
3.45414
3.45414
3.45414
3.45414
3.45414
3.45414
3.45414
3.45414
3.45414
3.45414
3.45414
3.45414
3.45414
3.45414
3.45414
3.45414
3.45414
3.45414
3.45414
3.45414
3.45414
3.45414
3.45414
3.45414
3.45414
3.45414
3.45414
3.45414
3.45414
3.45414
3.45414
3.45414
3.45413
3.45413
3.45413
3.45412
3.45412
3.45411
3.4541
3.45407
3.45405
3.454
3.45392
3.45376
3.45349
3.45282
3.45182
3.45082
3.44905
3.44724
3.44431
3.44305
3.44268
3.44258
3.44256
3.43891
3.44437
3.44779
3.45089
3.45251
3.4539
3.45462
3.45525
3.45558
3.45587
3.456
3.45611
3.45617
3.45622
3.45625
3.45628
3.45629
3.4563
3.45631
3.45631
3.45631
3.45631
3.45631
3.45631
3.45631
3.45631
3.45631
3.45631
3.45631
3.45631
3.45631
3.45631
3.45631
3.45631
3.45631
3.45631
3.45631
3.45631
3.45631
3.45631
3.45631
3.45631
3.45631
3.45631
3.45631
3.45631
3.45631
3.45631
3.45631
3.45631
3.45631
3.45631
3.45631
3.45631
3.45631
3.45631
3.45631
3.45631
3.45631
3.45631
3.45631
3.45631
3.45631
3.45631
3.45631
3.4563
3.45628
3.45625
3.45617
3.45599
3.45554
3.45478
3.45394
3.45235
3.45061
3.44768
3.44642
3.44605
3.44595
3.44593
3.31651
3.33319
3.3434
3.35275
3.35755
3.36172
3.36387
3.36579
3.36676
3.36761
3.36803
3.36835
3.36852
3.36868
3.36877
3.36885
3.36888
3.36891
3.36893
3.36894
3.36895
3.36895
3.36895
3.36895
3.36895
3.36895
3.36895
3.36895
3.36895
3.36895
3.36895
3.36895
3.36895
3.36895
3.36895
3.36895
3.36895
3.36895
3.36895
3.36895
3.36895
3.36895
3.36895
3.36895
3.36895
3.36895
3.36895
3.36895
3.36895
3.36895
3.36895
3.36895
3.36895
3.36895
3.36895
3.36895
3.36895
3.36895
3.36895
3.36895
3.36895
3.36895
3.36894
3.36894
3.36893
3.36891
3.36886
3.36877
3.36852
3.368
3.36663
3.36436
3.36186
3.35707
3.35189
3.34299
3.33925
3.33814
3.33785
3.33779
3.19346
3.22229
3.23906
3.2548
3.26264
3.26965
3.27317
3.27638
3.27798
3.27941
3.28008
3.28063
3.28091
3.28118
3.28132
3.28145
3.28151
3.28156
3.28159
3.28161
3.28162
3.28162
3.28163
3.28163
3.28163
3.28163
3.28163
3.28163
3.28163
3.28163
3.28163
3.28163
3.28163
3.28163
3.28163
3.28163
3.28163
3.28163
3.28162
3.28162
3.28162
3.28162
3.28162
3.28162
3.28162
3.28162
3.28162
3.28162
3.28162
3.28162
3.28162
3.28162
3.28162
3.28162
3.28162
3.28162
3.28162
3.28162
3.28162
3.28162
3.28162
3.28161
3.28161
3.2816
3.28159
3.28156
3.28148
3.28133
3.28091
3.28007
3.2778
3.27398
3.2699
3.26184
3.25335
3.23813
3.23199
3.23023
3.22978
3.22967
3.06928
3.11191
3.1348
3.15722
3.16781
3.17778
3.18252
3.1871
3.18926
3.19129
3.1922
3.19297
3.19335
3.19374
3.19393
3.19411
3.1942
3.19427
3.1943
3.19433
3.19434
3.19435
3.19436
3.19436
3.19436
3.19436
3.19436
3.19436
3.19436
3.19436
3.19436
3.19436
3.19436
3.19436
3.19436
3.19436
3.19436
3.19436
3.19436
3.19435
3.19435
3.19435
3.19435
3.19435
3.19435
3.19435
3.19435
3.19435
3.19435
3.19435
3.19435
3.19435
3.19435
3.19435
3.19435
3.19435
3.19435
3.19435
3.19435
3.19434
3.19434
3.19434
3.19433
3.19433
3.1943
3.19426
3.19415
3.19395
3.19338
3.19226
3.18908
3.18367
3.17816
3.16668
3.15513
3.13295
3.12462
3.12231
3.12173
3.1216
2.94343
3.00235
3.03061
3.06016
3.07306
3.08617
3.09195
3.09798
3.10061
3.10329
3.1044
3.10541
3.10587
3.10639
3.10662
3.10686
3.10696
3.10706
3.1071
3.10714
3.10715
3.10717
3.10717
3.10717
3.10718
3.10718
3.10718
3.10718
3.10717
3.10717
3.10717
3.10717
3.10717
3.10717
3.10717
3.10717
3.10717
3.10717
3.10717
3.10717
3.10717
3.10716
3.10716
3.10716
3.10716
3.10716
3.10716
3.10716
3.10716
3.10716
3.10716
3.10716
3.10716
3.10716
3.10716
3.10716
3.10716
3.10716
3.10715
3.10715
3.10715
3.10715
3.10714
3.10713
3.1071
3.10705
3.10691
3.10667
3.10596
3.10461
3.10053
3.09344
3.08673
3.0716
3.0574
3.02729
3.01707
3.0144
3.01374
3.0136
2.81527
2.89408
2.92642
2.96384
2.97838
2.99494
3.00145
3.00909
3.01206
3.01545
3.0167
3.01797
3.01849
3.01915
3.01941
3.01971
3.01983
3.01996
3.02
3.02005
3.02006
3.02008
3.02009
3.02009
3.02009
3.02009
3.02009
3.02009
3.02009
3.02009
3.02009
3.02009
3.02009
3.02009
3.02008
3.02008
3.02008
3.02008
3.02008
3.02008
3.02008
3.02008
3.02008
3.02008
3.02008
3.02008
3.02007
3.02007
3.02007
3.02007
3.02007
3.02007
3.02007
3.02007
3.02007
3.02007
3.02007
3.02007
3.02007
3.02006
3.02006
3.02006
3.02005
3.02004
3.02
3.01995
3.01978
3.01951
3.01866
3.01717
3.0122
3.0033
2.99574
2.97657
2.96041
2.92092
2.9093
2.90649
2.90582
2.90568
2.68402
2.78774
2.82211
2.86852
2.88371
2.90421
2.91102
2.9205
2.9236
2.92782
2.92913
2.93068
2.93122
2.93205
2.93232
2.9327
2.93282
2.93298
2.93303
2.93309
2.9331
2.93312
2.93313
2.93313
2.93313
2.93314
2.93314
2.93313
2.93313
2.93313
2.93313
2.93313
2.93313
2.93313
2.93313
2.93313
2.93312
2.93312
2.93312
2.93312
2.93312
2.93312
2.93312
2.93312
2.93312
2.93312
2.93311
2.93311
2.93311
2.93311
2.93311
2.93311
2.93311
2.93311
2.93311
2.93311
2.93311
2.93311
2.9331
2.9331
2.9331
2.9331
2.93309
2.93307
2.93303
2.93297
2.93277
2.93251
2.93151
2.92999
2.92415
2.91322
2.90533
2.88154
2.86447
2.81354
2.8013
2.7986
2.79799
2.79785
2.54868
2.68425
2.71741
2.77455
2.78894
2.81416
2.8206
2.8323
2.83524
2.84044
2.84168
2.84358
2.84409
2.84512
2.84538
2.84585
2.84596
2.84616
2.8462
2.84627
2.84629
2.84631
2.84632
2.84633
2.84633
2.84633
2.84633
2.84633
2.84633
2.84632
2.84632
2.84632
2.84632
2.84632
2.84632
2.84632
2.84631
2.84631
2.84631
2.84631
2.84631
2.84631
2.84631
2.84631
2.84631
2.84631
2.8463
2.8463
2.8463
2.8463
2.8463
2.8463
2.8463
2.8463
2.8463
2.8463
2.84629
2.84629
2.84629
2.84629
2.84629
2.84628
2.84627
2.84626
2.84621
2.84616
2.84592
2.84567
2.84453
2.84314
2.83646
2.82316
2.8157
2.78638
2.77001
2.70475
2.69304
2.69076
2.69026
2.69015
2.40799
2.58496
2.61185
2.68241
2.69387
2.72499
2.73012
2.7446
2.74694
2.75339
2.75437
2.7567
2.7571
2.75839
2.75859
2.75918
2.75927
2.75951
2.75955
2.75964
2.75965
2.75968
2.75968
2.75969
2.75969
2.75969
2.75969
2.75969
2.75969
2.75969
2.75968
2.75968
2.75968
2.75968
2.75968
2.75968
2.75968
2.75968
2.75967
2.75967
2.75967
2.75967
2.75967
2.75967
2.75967
2.75967
2.75966
2.75966
2.75966
2.75966
2.75966
2.75966
2.75966
2.75966
2.75966
2.75966
2.75965
2.75965
2.75965
2.75965
2.75964
2.75964
2.75963
2.75962
2.75956
2.75952
2.75924
2.75905
2.75773
2.75667
2.74919
2.73303
2.72711
2.69085
2.67766
2.59396
2.58454
2.58299
2.58267
2.5826
2.2603
2.49177
2.50465
2.59278
2.59815
2.63702
2.63943
2.65756
2.65866
2.66673
2.6672
2.67008
2.67027
2.67189
2.67199
2.67273
2.67277
2.67307
2.67308
2.67319
2.6732
2.67324
2.67324
2.67325
2.67325
2.67325
2.67325
2.67325
2.67325
2.67325
2.67324
2.67324
2.67324
2.67324
2.67324
2.67324
2.67323
2.67323
2.67323
2.67323
2.67323
2.67323
2.67323
2.67323
2.67322
2.67322
2.67322
2.67322
2.67322
2.67322
2.67322
2.67322
2.67321
2.67321
2.67321
2.67321
2.67321
2.67321
2.6732
2.6732
2.6732
2.6732
2.67318
2.67317
2.6731
2.67308
2.67276
2.67267
2.67112
2.67065
2.66247
2.64268
2.63991
2.59459
2.58831
2.48037
2.4759
2.47534
2.47523
2.4752
2.25962
2.49118
2.50407
2.59237
2.59776
2.63678
2.6392
2.65742
2.65853
2.66665
2.66711
2.67002
2.67021
2.67183
2.67193
2.67268
2.67272
2.67302
2.67304
2.67315
2.67316
2.6732
2.6732
2.67321
2.67321
2.67322
2.67322
2.67322
2.67322
2.67322
2.67322
2.67322
2.67322
2.67322
2.67322
2.67322
2.67322
2.67322
2.67322
2.67322
2.67322
2.67322
2.67322
2.67322
2.67322
2.67322
2.67322
2.67322
2.67322
2.67322
2.67322
2.67322
2.67322
2.67322
2.67322
2.67322
2.67321
2.67321
2.67321
2.67321
2.67321
2.67321
2.67319
2.67319
2.67312
2.6731
2.67278
2.67269
2.67116
2.67069
2.66256
2.64287
2.64011
2.59492
2.58866
2.4809
2.47644
2.47588
2.47576
2.47574
2.40739
2.58442
2.61133
2.68204
2.69353
2.72477
2.72992
2.74447
2.74683
2.75331
2.7543
2.75664
2.75704
2.75834
2.75855
2.75914
2.75923
2.75947
2.75951
2.7596
2.75961
2.75964
2.75965
2.75966
2.75966
2.75966
2.75966
2.75966
2.75966
2.75966
2.75966
2.75966
2.75966
2.75966
2.75966
2.75966
2.75966
2.75966
2.75966
2.75966
2.75966
2.75966
2.75966
2.75966
2.75966
2.75966
2.75966
2.75966
2.75966
2.75966
2.75966
2.75966
2.75966
2.75966
2.75966
2.75966
2.75966
2.75966
2.75966
2.75966
2.75965
2.75965
2.75964
2.75963
2.75957
2.75953
2.75927
2.75908
2.75777
2.75671
2.74928
2.7332
2.72729
2.69114
2.67798
2.59442
2.58502
2.58347
2.58315
2.58308
2.54815
2.68378
2.71696
2.77422
2.78865
2.81396
2.82043
2.83218
2.83514
2.84037
2.84162
2.84352
2.84404
2.84507
2.84533
2.84581
2.84593
2.84612
2.84617
2.84624
2.84626
2.84628
2.84629
2.8463
2.8463
2.8463
2.8463
2.8463
2.8463
2.8463
2.8463
2.8463
2.8463
2.8463
2.8463
2.8463
2.8463
2.8463
2.8463
2.8463
2.8463
2.8463
2.8463
2.8463
2.8463
2.8463
2.8463
2.8463
2.8463
2.8463
2.8463
2.8463
2.8463
2.8463
2.8463
2.8463
2.8463
2.8463
2.8463
2.8463
2.84629
2.84629
2.84628
2.84627
2.84622
2.84617
2.84594
2.8457
2.84456
2.84318
2.83654
2.8233
2.81587
2.78663
2.77029
2.70515
2.69345
2.69118
2.69068
2.69058
2.68357
2.78733
2.82173
2.86822
2.88346
2.90404
2.91087
2.9204
2.92352
2.92776
2.92907
2.93063
2.93118
2.93201
2.93228
2.93267
2.93279
2.93295
2.933
2.93306
2.93308
2.9331
2.9331
2.93311
2.93311
2.93311
2.93311
2.93311
2.93311
2.93311
2.93311
2.93311
2.93311
2.93311
2.93311
2.93311
2.93311
2.93311
2.93311
2.93311
2.93311
2.93311
2.93311
2.93311
2.93311
2.93311
2.93311
2.93311
2.93311
2.93311
2.93311
2.93311
2.93311
2.93311
2.93311
2.93311
2.93311
2.93311
2.93311
2.93311
2.93311
2.9331
2.93309
2.93308
2.93304
2.93299
2.93279
2.93252
2.93154
2.93003
2.92423
2.91334
2.90548
2.88176
2.86472
2.81388
2.80166
2.79897
2.79835
2.79822
2.81489
2.89373
2.9261
2.96359
2.97817
2.99479
3.00133
3.009
3.01199
3.0154
3.01666
3.01793
3.01845
3.01911
3.01938
3.01969
3.0198
3.01993
3.01998
3.02002
3.02004
3.02006
3.02006
3.02007
3.02007
3.02007
3.02007
3.02007
3.02007
3.02007
3.02007
3.02007
3.02007
3.02007
3.02007
3.02007
3.02007
3.02007
3.02007
3.02007
3.02007
3.02007
3.02007
3.02007
3.02007
3.02007
3.02007
3.02007
3.02007
3.02007
3.02007
3.02007
3.02007
3.02007
3.02007
3.02007
3.02007
3.02007
3.02007
3.02007
3.02007
3.02007
3.02006
3.02005
3.02001
3.01996
3.01979
3.01953
3.01868
3.0172
3.01226
3.0034
2.99587
2.97675
2.96063
2.9212
2.90961
2.9068
2.90613
2.90599
2.94312
3.00207
3.03035
3.05995
3.07289
3.08604
3.09185
3.09791
3.10055
3.10325
3.10436
3.10538
3.10584
3.10636
3.10659
3.10684
3.10694
3.10704
3.10708
3.10712
3.10713
3.10715
3.10715
3.10716
3.10716
3.10716
3.10716
3.10716
3.10716
3.10716
3.10716
3.10716
3.10716
3.10716
3.10716
3.10716
3.10716
3.10716
3.10716
3.10716
3.10716
3.10716
3.10716
3.10716
3.10716
3.10716
3.10716
3.10716
3.10716
3.10716
3.10716
3.10716
3.10716
3.10716
3.10716
3.10716
3.10716
3.10716
3.10716
3.10716
3.10716
3.10715
3.10715
3.10714
3.10711
3.10706
3.10692
3.10668
3.10598
3.10464
3.10058
3.09353
3.08684
3.07175
3.05758
3.02752
3.01732
3.01465
3.014
3.01385
3.06904
3.11168
3.1346
3.15706
3.16767
3.17768
3.18244
3.18704
3.18921
3.19126
3.19217
3.19295
3.19332
3.19372
3.19391
3.19409
3.19418
3.19425
3.19429
3.19432
3.19433
3.19434
3.19434
3.19435
3.19435
3.19435
3.19435
3.19435
3.19435
3.19435
3.19435
3.19435
3.19435
3.19435
3.19435
3.19435
3.19435
3.19435
3.19435
3.19435
3.19435
3.19435
3.19435
3.19435
3.19435
3.19435
3.19435
3.19435
3.19435
3.19435
3.19435
3.19435
3.19435
3.19435
3.19435
3.19435
3.19435
3.19435
3.19435
3.19435
3.19435
3.19434
3.19434
3.19433
3.19431
3.19427
3.19416
3.19396
3.1934
3.19228
3.18912
3.18374
3.17824
3.1668
3.15527
3.13313
3.12481
3.12251
3.12193
3.1218
3.19329
3.22213
3.23892
3.25469
3.26255
3.26958
3.27311
3.27634
3.27795
3.27938
3.28006
3.28061
3.28089
3.28117
3.28131
3.28144
3.2815
3.28155
3.28158
3.2816
3.28161
3.28161
3.28162
3.28162
3.28162
3.28162
3.28162
3.28162
3.28162
3.28162
3.28162
3.28162
3.28162
3.28162
3.28162
3.28162
3.28162
3.28162
3.28162
3.28162
3.28162
3.28162
3.28162
3.28162
3.28162
3.28162
3.28162
3.28162
3.28162
3.28162
3.28162
3.28162
3.28162
3.28162
3.28162
3.28162
3.28162
3.28162
3.28162
3.28162
3.28162
3.28162
3.28161
3.28161
3.28159
3.28156
3.28148
3.28133
3.28092
3.28009
3.27783
3.27403
3.26996
3.26192
3.25345
3.23825
3.23213
3.23037
3.22992
3.22981
3.31641
3.3331
3.34331
3.35268
3.35749
3.36168
3.36384
3.36576
3.36674
3.3676
3.36801
3.36834
3.36851
3.36868
3.36876
3.36884
3.36888
3.36891
3.36892
3.36894
3.36894
3.36895
3.36895
3.36895
3.36895
3.36895
3.36895
3.36895
3.36895
3.36895
3.36895
3.36895
3.36895
3.36895
3.36895
3.36895
3.36895
3.36895
3.36895
3.36895
3.36895
3.36895
3.36895
3.36895
3.36895
3.36895
3.36895
3.36895
3.36895
3.36895
3.36895
3.36895
3.36895
3.36895
3.36895
3.36895
3.36895
3.36895
3.36895
3.36895
3.36895
3.36895
3.36894
3.36894
3.36893
3.36891
3.36887
3.36877
3.36852
3.36801
3.36665
3.36439
3.3619
3.35712
3.35195
3.34307
3.33933
3.33822
3.33794
3.33787
3.43887
3.44434
3.44776
3.45087
3.45249
3.45388
3.45461
3.45525
3.45558
3.45586
3.456
3.45611
3.45617
3.45622
3.45625
3.45628
3.45629
3.4563
3.4563
3.45631
3.45631
3.45631
3.45631
3.45631
3.45631
3.45631
3.45631
3.45631
3.45631
3.45631
3.45631
3.45631
3.45631
3.45631
3.45631
3.45631
3.45631
3.45631
3.45631
3.45631
3.45631
3.45631
3.45631
3.45631
3.45631
3.45631
3.45631
3.45631
3.45631
3.45631
3.45631
3.45631
3.45631
3.45631
3.45631
3.45631
3.45631
3.45631
3.45631
3.45631
3.45631
3.45631
3.45631
3.45631
3.45631
3.4563
3.45628
3.45625
3.45617
3.45599
3.45554
3.45479
3.45395
3.45237
3.45063
3.44771
3.44645
3.44607
3.44598
3.44595
3.43759
3.44315
3.44653
3.44939
3.45084
3.45203
3.45265
3.45318
3.45345
3.45367
3.45379
3.45391
3.45398
3.45404
3.45407
3.4541
3.45411
3.45412
3.45413
3.45414
3.45414
3.45414
3.45414
3.45414
3.45414
3.45414
3.45414
3.45414
3.45414
3.45414
3.45414
3.45414
3.45414
3.45414
3.45414
3.45414
3.45414
3.45414
3.45414
3.45414
3.45414
3.45414
3.45414
3.45414
3.45414
3.45414
3.45414
3.45414
3.45414
3.45414
3.45414
3.45414
3.45414
3.45414
3.45414
3.45414
3.45414
3.45413
3.45413
3.45413
3.45412
3.45412
3.45411
3.4541
3.45407
3.45405
3.454
3.45392
3.45376
3.45348
3.45282
3.45181
3.45081
3.44903
3.44722
3.44429
3.44303
3.44265
3.44255
3.44253
3.31256
3.32954
3.33961
3.34822
3.35252
3.35612
3.35795
3.35956
3.36036
3.36101
3.36137
3.36174
3.36193
3.36212
3.36222
3.3623
3.36234
3.36238
3.3624
3.36241
3.36242
3.36243
3.36243
3.36243
3.36243
3.36243
3.36243
3.36244
3.36244
3.36244
3.36244
3.36244
3.36243
3.36243
3.36243
3.36243
3.36243
3.36243
3.36243
3.36243
3.36243
3.36243
3.36243
3.36243
3.36243
3.36243
3.36243
3.36243
3.36243
3.36243
3.36243
3.36243
3.36243
3.36243
3.36242
3.36242
3.36242
3.36241
3.3624
3.3624
3.36238
3.36236
3.36233
3.3623
3.36223
3.36216
3.362
3.36178
3.36129
3.36047
3.35847
3.35545
3.35246
3.34711
3.34171
3.3328
3.32906
3.32795
3.32766
3.3276
3.18685
3.21622
3.23276
3.24724
3.25426
3.2603
3.26329
3.26599
3.26729
3.26839
3.26898
3.26959
3.26992
3.27023
3.27039
3.27053
3.2706
3.27066
3.27069
3.27072
3.27073
3.27074
3.27074
3.27075
3.27075
3.27075
3.27075
3.27075
3.27075
3.27075
3.27075
3.27075
3.27075
3.27075
3.27075
3.27075
3.27075
3.27075
3.27075
3.27075
3.27075
3.27075
3.27075
3.27075
3.27075
3.27075
3.27075
3.27075
3.27075
3.27074
3.27074
3.27074
3.27074
3.27074
3.27073
3.27073
3.27072
3.27072
3.2707
3.27069
3.27066
3.27063
3.27058
3.27053
3.27042
3.27029
3.27002
3.26968
3.26886
3.26753
3.2642
3.25911
3.25423
3.2452
3.23636
3.22112
3.215
3.21323
3.21278
3.21268
3.05999
3.10344
3.12601
3.14659
3.15606
3.16463
3.16867
3.17251
3.17427
3.17583
3.17662
3.1775
3.17794
3.17839
3.1786
3.1788
3.1789
3.17899
3.17903
3.17906
3.17908
3.17909
3.1791
3.1791
3.17911
3.17911
3.17911
3.17911
3.17911
3.17911
3.17911
3.17911
3.17911
3.17911
3.17911
3.17911
3.17911
3.17911
3.17911
3.17911
3.17911
3.17911
3.17911
3.1791
3.1791
3.1791
3.1791
3.1791
3.1791
3.1791
3.1791
3.1791
3.17909
3.17909
3.17908
3.17908
3.17907
3.17906
3.17904
3.17902
3.17898
3.17894
3.17887
3.1788
3.17864
3.17847
3.1781
3.17763
3.1765
3.17471
3.17003
3.16279
3.1562
3.14332
3.1313
3.10911
3.10079
3.09849
3.09791
3.09778
2.9314
2.99152
3.01938
3.04642
3.05794
3.06919
3.0741
3.07917
3.08131
3.08335
3.08431
3.08548
3.08601
3.08661
3.08687
3.08714
3.08725
3.08737
3.08742
3.08746
3.08748
3.0875
3.08751
3.08752
3.08752
3.08752
3.08752
3.08753
3.08753
3.08753
3.08753
3.08752
3.08752
3.08752
3.08752
3.08752
3.08752
3.08752
3.08752
3.08752
3.08752
3.08752
3.08752
3.08752
3.08752
3.08752
3.08751
3.08751
3.08751
3.08751
3.08751
3.08751
3.0875
3.0875
3.08749
3.08748
3.08747
3.08746
3.08743
3.08741
3.08736
3.08731
3.08722
3.08712
3.08692
3.08671
3.08623
3.08566
3.08421
3.08206
3.07601
3.0665
3.05847
3.04146
3.02669
2.99658
2.98639
2.98372
2.98307
2.98292
2.80045
2.88093
2.91283
2.94692
2.95989
2.97406
2.97959
2.986
2.98841
2.99098
2.99207
2.99355
2.99416
2.99491
2.99521
2.99555
2.99568
2.99582
2.99588
2.99594
2.99596
2.99598
2.99599
2.996
2.99601
2.99601
2.99601
2.99601
2.99601
2.99601
2.99601
2.99601
2.99601
2.99601
2.99601
2.99601
2.99601
2.99601
2.99601
2.99601
2.99601
2.99601
2.996
2.996
2.996
2.996
2.996
2.996
2.996
2.996
2.99599
2.99599
2.99599
2.99598
2.99597
2.99596
2.99595
2.99593
2.9959
2.99587
2.99581
2.99576
2.99564
2.99553
2.99527
2.99504
2.99443
2.9938
2.99202
2.98964
2.9822
2.97021
2.96116
2.93956
2.92276
2.88332
2.87173
2.86892
2.86826
2.86811
2.66631
2.77233
2.80624
2.84832
2.86185
2.87934
2.88512
2.89307
2.89559
2.89875
2.89988
2.90174
2.90238
2.90332
2.90363
2.90406
2.90419
2.90437
2.90443
2.9045
2.90453
2.90456
2.90457
2.90458
2.90458
2.90459
2.90459
2.90459
2.90459
2.90459
2.90459
2.90459
2.90459
2.90459
2.90459
2.90459
2.90458
2.90458
2.90458
2.90458
2.90458
2.90458
2.90458
2.90458
2.90458
2.90458
2.90457
2.90457
2.90457
2.90457
2.90457
2.90456
2.90456
2.90455
2.90454
2.90453
2.90451
2.9045
2.90445
2.90443
2.90435
2.9043
2.90414
2.90403
2.90371
2.90347
2.90273
2.90208
2.89995
2.8975
2.88866
2.87389
2.86444
2.83755
2.8198
2.769
2.75679
2.7541
2.75349
2.75336
2.52796
2.66666
2.69939
2.75094
2.76372
2.78517
2.79064
2.80045
2.80283
2.80669
2.80777
2.81009
2.81069
2.81186
2.81215
2.81268
2.81281
2.81303
2.81309
2.81318
2.8132
2.81323
2.81324
2.81326
2.81326
2.81327
2.81327
2.81327
2.81327
2.81327
2.81327
2.81327
2.81327
2.81327
2.81327
2.81327
2.81327
2.81327
2.81326
2.81326
2.81326
2.81326
2.81326
2.81326
2.81326
2.81326
2.81325
2.81325
2.81325
2.81325
2.81324
2.81324
2.81323
2.81323
2.81321
2.81321
2.81318
2.81317
2.81311
2.81309
2.81299
2.81294
2.81275
2.81265
2.81226
2.81203
2.81113
2.81052
2.80798
2.80572
2.79545
2.77745
2.7685
2.73525
2.71824
2.65322
2.64155
2.63928
2.63878
2.63868
2.38412
2.5653
2.59185
2.65519
2.66534
2.69174
2.69609
2.70823
2.71013
2.71486
2.71572
2.71861
2.71909
2.72055
2.72078
2.72144
2.72154
2.72182
2.72186
2.72197
2.72199
2.72203
2.72204
2.72206
2.72206
2.72207
2.72207
2.72207
2.72207
2.72207
2.72207
2.72207
2.72207
2.72207
2.72207
2.72207
2.72207
2.72207
2.72206
2.72206
2.72206
2.72206
2.72206
2.72206
2.72206
2.72206
2.72205
2.72205
2.72205
2.72205
2.72204
2.72204
2.72203
2.72203
2.72201
2.722
2.72197
2.72196
2.72189
2.72187
2.72175
2.72171
2.72148
2.7214
2.72091
2.72073
2.71963
2.71915
2.71613
2.71438
2.70266
2.68076
2.67364
2.63241
2.6187
2.5354
2.52601
2.52447
2.52414
2.52407
2.23307
2.47021
2.48293
2.56166
2.56641
2.5993
2.60134
2.61653
2.61742
2.62331
2.62371
2.62736
2.62759
2.62942
2.62953
2.63035
2.6304
2.63075
2.63077
2.63091
2.63091
2.63097
2.63097
2.631
2.631
2.63101
2.63101
2.63101
2.63101
2.63101
2.63101
2.63101
2.63101
2.63101
2.63101
2.63101
2.631
2.631
2.631
2.631
2.631
2.631
2.631
2.631
2.63099
2.63099
2.63099
2.63099
2.63098
2.63098
2.63098
2.63097
2.63096
2.63096
2.63094
2.63093
2.63089
2.63089
2.63081
2.6308
2.63065
2.63063
2.63033
2.63029
2.62969
2.62961
2.62824
2.62802
2.62436
2.62357
2.61042
2.58359
2.58026
2.52857
2.52206
2.41471
2.41027
2.4097
2.40959
2.40957
)
;

boundaryField
{
    F1_1
    {
        type            fixedValue;
        value           nonuniform List<scalar> 
80
(
2.15265
2.42751
2.42751
2.51721
2.51721
2.55495
2.55495
2.5728
2.5728
2.58095
2.58095
2.58391
2.58391
2.58564
2.58564
2.58646
2.58646
2.58681
2.58681
2.58696
2.58696
2.58702
2.58702
2.58705
2.58705
2.58707
2.58707
2.58708
2.58708
2.58708
2.58708
2.58708
2.58709
2.58709
2.58709
2.58709
2.58709
2.58709
2.58709
2.58709
2.58709
2.58709
2.58709
2.58709
2.58709
2.58709
2.58709
2.58709
2.58708
2.58708
2.58708
2.58708
2.58706
2.58706
2.58704
2.58704
2.587
2.587
2.58691
2.58691
2.58674
2.58674
2.58641
2.58641
2.58572
2.58572
2.58419
2.58419
2.58008
2.58008
2.56625
2.53624
2.53624
2.47747
2.47747
2.35405
2.35405
2.35405
2.35405
2.35405
)
;
    }
    F1_2
    {
        type            fixedValue;
        value           nonuniform List<scalar> 
80
(
2.18273
2.45091
2.45091
2.55133
2.55133
2.59573
2.59573
2.61653
2.61653
2.62582
2.62582
2.62914
2.62914
2.63103
2.63103
2.63188
2.63188
2.63223
2.63223
2.63236
2.63236
2.6324
2.6324
2.63242
2.63242
2.63242
2.63242
2.63242
2.63242
2.63241
2.63241
2.63241
2.63241
2.63241
2.6324
2.6324
2.6324
2.6324
2.6324
2.6324
2.63239
2.63239
2.63239
2.63239
2.63239
2.63239
2.63238
2.63238
2.63238
2.63238
2.63238
2.63238
2.63238
2.63238
2.63238
2.63238
2.63237
2.63237
2.63237
2.63237
2.63236
2.63236
2.63234
2.63234
2.63226
2.63226
2.63189
2.63189
2.63016
2.63016
2.62168
2.59944
2.59944
2.54785
2.54785
2.42355
2.42355
2.42355
2.42355
2.42355
)
;
    }
    F1_3
    {
        type            fixedValue;
        value           nonuniform List<scalar> 
80
(
2.18202
2.45029
2.45029
2.55091
2.55091
2.59549
2.59549
2.61639
2.61639
2.62573
2.62573
2.62907
2.62907
2.63097
2.63097
2.63183
2.63183
2.63219
2.63219
2.63232
2.63232
2.63236
2.63236
2.63238
2.63238
2.63238
2.63238
2.63238
2.63238
2.63238
2.63238
2.63238
2.63238
2.63238
2.63238
2.63238
2.63238
2.63238
2.63238
2.63238
2.63238
2.63238
2.63238
2.63238
2.63238
2.63238
2.63238
2.63238
2.63238
2.63238
2.63238
2.63238
2.63238
2.63238
2.63238
2.63238
2.63238
2.63238
2.63238
2.63238
2.63237
2.63237
2.63235
2.63235
2.63228
2.63228
2.63192
2.63192
2.63021
2.63021
2.62178
2.59964
2.59964
2.5482
2.5482
2.42411
2.42411
2.42411
2.42411
2.42411
)
;
    }
    F1_4
    {
        type            fixedValue;
        value           nonuniform List<scalar> 
80
(
2.15331
2.42808
2.42808
2.51756
2.51756
2.55503
2.55503
2.57243
2.57243
2.57916
2.57916
2.58339
2.58339
2.58551
2.58551
2.58647
2.58647
2.58687
2.58687
2.58704
2.58704
2.5871
2.5871
2.58713
2.58713
2.58714
2.58714
2.58715
2.58715
2.58715
2.58715
2.58715
2.58714
2.58714
2.58714
2.58714
2.58714
2.58714
2.58714
2.58714
2.58713
2.58713
2.58713
2.58713
2.58713
2.58713
2.58712
2.58712
2.58711
2.58711
2.58711
2.58711
2.58709
2.58709
2.58707
2.58707
2.58702
2.58702
2.58693
2.58693
2.58675
2.58675
2.58642
2.58642
2.58573
2.58573
2.58418
2.58418
2.58004
2.58004
2.56613
2.53601
2.53601
2.47711
2.47711
2.35351
2.35351
2.35351
2.35351
2.35351
)
;
    }
    F2_1
    {
        type            fixedValue;
        value           uniform 3.5;
    }
    F2_2
    {
        type            fixedValue;
        value           uniform 3.5;
    }
    F2_3
    {
        type            fixedValue;
        value           uniform 3.5;
    }
    F2_4
    {
        type            fixedValue;
        value           uniform 3.5;
    }
    defaultFaces
    {
        type            empty;
    }
}


// ************************************************************************* //
