/*--------------------------------*- C++ -*----------------------------------*\
| =========                 |                                                 |
| \\      /  F ield         | OpenFOAM: The Open Source CFD Toolbox           |
|  \\    /   O peration     | Version:  5.x                                   |
|   \\  /    A nd           | Web:      www.OpenFOAM.org                      |
|    \\/     M anipulation  |                                                 |
\*---------------------------------------------------------------------------*/
FoamFile
{
    version     2.0;
    format      ascii;
    class       volScalarField;
    location    "2.4999";
    object      T;
}
// * * * * * * * * * * * * * * * * * * * * * * * * * * * * * * * * * * * * * //

dimensions      [0 0 0 1 0 0 0];

internalField   nonuniform List<scalar> 
6300
(
322.852
322.554
322.256
321.956
321.654
321.348
321.039
320.726
320.409
320.086
319.758
319.424
319.084
318.739
318.388
322.852
322.555
322.258
321.958
321.657
321.352
321.044
320.731
320.414
320.091
319.763
319.43
319.09
318.745
318.393
322.853
322.557
322.261
321.963
321.663
321.359
321.052
320.74
320.424
320.102
319.775
319.441
319.102
318.756
318.404
322.854
322.561
322.266
321.97
321.672
321.37
321.065
320.755
320.439
320.119
319.792
319.459
319.12
318.774
318.421
322.855
322.565
322.273
321.98
321.684
321.385
321.082
320.774
320.46
320.141
319.816
319.483
319.144
318.798
318.445
322.857
322.57
322.282
321.992
321.7
321.404
321.104
320.798
320.487
320.17
319.846
319.515
319.175
318.829
318.474
322.859
322.577
322.293
322.007
321.719
321.427
321.13
320.829
320.521
320.206
319.884
319.553
319.214
318.867
318.511
322.862
322.584
322.306
322.025
321.742
321.454
321.162
320.865
320.561
320.249
319.93
319.601
319.262
318.914
318.555
322.865
322.593
322.32
322.046
321.768
321.487
321.2
320.908
320.608
320.301
319.984
319.658
319.32
318.97
318.609
322.868
322.603
322.337
322.069
321.798
321.524
321.244
320.958
320.664
320.362
320.05
319.726
319.389
319.038
318.673
322.872
322.615
322.356
322.096
321.833
321.566
321.293
321.015
320.729
320.433
320.126
319.807
319.472
319.12
318.75
322.876
322.627
322.377
322.126
321.871
321.613
321.349
321.08
320.802
320.515
320.216
319.903
319.572
319.22
318.846
322.88
322.641
322.4
322.158
321.913
321.665
321.412
321.153
320.886
320.61
320.321
320.016
319.692
319.343
318.967
322.885
322.656
322.425
322.193
321.959
321.721
321.48
321.233
320.979
320.716
320.441
320.149
319.835
319.494
319.122
322.89
322.671
322.451
322.23
322.007
321.782
321.553
321.32
321.082
320.835
320.578
320.304
320.007
319.676
319.31
318.061
317.76
317.455
317.147
316.836
316.522
316.205
315.886
315.564
315.24
314.914
314.586
314.257
313.926
313.595
313.262
312.928
312.594
312.26
311.925
311.59
311.255
310.92
310.585
310.25
309.914
309.578
309.243
308.907
308.572
308.236
307.901
307.566
307.231
306.897
306.563
306.229
305.896
305.562
305.229
304.897
304.564
304.231
303.899
303.567
303.235
302.904
302.573
302.242
301.912
301.582
301.252
300.923
300.595
300.266
299.938
299.61
299.282
298.955
298.628
298.301
297.975
297.649
297.324
296.999
296.675
296.351
296.028
295.705
295.383
295.061
294.739
294.418
294.097
293.777
293.457
293.137
292.818
292.499
292.181
291.863
291.545
291.227
290.908
290.59
290.271
289.951
289.63
289.308
288.985
318.066
317.765
317.46
317.152
316.84
316.526
316.209
315.889
315.567
315.243
314.917
314.589
314.259
313.928
313.596
313.263
312.929
312.595
312.26
311.926
311.591
311.255
310.92
310.585
310.25
309.914
309.579
309.243
308.907
308.571
308.236
307.9
307.565
307.231
306.896
306.562
306.229
305.895
305.562
305.229
304.896
304.564
304.231
303.899
303.567
303.235
302.903
302.572
302.241
301.911
301.581
301.252
300.923
300.594
300.266
299.938
299.61
299.282
298.955
298.627
298.301
297.974
297.648
297.323
296.998
296.674
296.35
296.027
295.705
295.382
295.06
294.739
294.418
294.097
293.776
293.456
293.136
292.817
292.499
292.18
291.862
291.545
291.227
290.909
290.591
290.272
289.952
289.631
289.31
288.987
318.077
317.775
317.469
317.161
316.849
316.534
316.216
315.896
315.573
315.248
314.922
314.593
314.263
313.931
313.599
313.265
312.931
312.596
312.261
311.926
311.591
311.256
310.921
310.585
310.25
309.914
309.579
309.243
308.907
308.571
308.235
307.9
307.564
307.23
306.895
306.561
306.228
305.894
305.561
305.229
304.896
304.563
304.231
303.898
303.566
303.234
302.902
302.571
302.24
301.91
301.58
301.251
300.922
300.593
300.265
299.937
299.609
299.281
298.954
298.626
298.299
297.973
297.647
297.321
296.996
296.672
296.349
296.026
295.703
295.381
295.059
294.738
294.416
294.096
293.775
293.455
293.135
292.816
292.497
292.179
291.862
291.544
291.227
290.91
290.592
290.274
289.955
289.634
289.312
288.99
318.093
317.79
317.484
317.174
316.861
316.545
316.227
315.906
315.583
315.257
314.929
314.6
314.269
313.936
313.603
313.268
312.933
312.597
312.262
311.926
311.591
311.256
310.921
310.586
310.25
309.915
309.579
309.243
308.907
308.57
308.234
307.898
307.563
307.228
306.893
306.559
306.226
305.893
305.56
305.228
304.895
304.563
304.23
303.897
303.565
303.232
302.9
302.569
302.238
301.907
301.578
301.249
300.92
300.592
300.264
299.936
299.608
299.28
298.952
298.625
298.297
297.97
297.644
297.319
296.994
296.67
296.346
296.024
295.701
295.379
295.058
294.736
294.415
294.094
293.773
293.453
293.133
292.814
292.495
292.178
291.861
291.544
291.228
290.912
290.595
290.277
289.959
289.639
289.317
288.994
318.115
317.811
317.503
317.192
316.878
316.561
316.241
315.919
315.595
315.269
314.94
314.609
314.277
313.943
313.608
313.272
312.935
312.599
312.263
311.927
311.591
311.256
310.921
310.586
310.251
309.916
309.58
309.243
308.907
308.57
308.233
307.896
307.56
307.225
306.891
306.557
306.224
305.892
305.559
305.227
304.895
304.562
304.229
303.896
303.563
303.23
302.897
302.566
302.234
301.904
301.575
301.246
300.918
300.59
300.263
299.935
299.607
299.279
298.951
298.622
298.295
297.967
297.641
297.315
296.99
296.666
296.343
296.021
295.699
295.377
295.056
294.735
294.413
294.092
293.77
293.45
293.13
292.81
292.492
292.175
291.859
291.544
291.229
290.914
290.598
290.282
289.965
289.645
289.324
289.001
318.143
317.837
317.528
317.215
316.899
316.58
316.259
315.936
315.611
315.283
314.953
314.621
314.287
313.951
313.614
313.276
312.938
312.6
312.263
311.926
311.591
311.256
310.921
310.587
310.252
309.917
309.581
309.244
308.907
308.569
308.231
307.894
307.557
307.221
306.887
306.554
306.221
305.889
305.558
305.226
304.894
304.562
304.229
303.895
303.561
303.227
302.894
302.561
302.23
301.9
301.571
301.243
300.915
300.588
300.261
299.934
299.606
299.278
298.949
298.62
298.291
297.963
297.636
297.31
296.985
296.661
296.339
296.017
295.696
295.375
295.054
294.733
294.411
294.089
293.767
293.446
293.125
292.806
292.488
292.171
291.856
291.542
291.229
290.917
290.603
290.289
289.973
289.655
289.334
289.01
318.177
317.869
317.557
317.242
316.924
316.603
316.281
315.956
315.63
315.301
314.969
314.636
314.299
313.961
313.621
313.281
312.94
312.6
312.262
311.925
311.589
311.255
310.922
310.588
310.254
309.919
309.583
309.246
308.907
308.568
308.228
307.89
307.552
307.216
306.881
306.549
306.217
305.887
305.557
305.226
304.895
304.563
304.229
303.894
303.559
303.224
302.889
302.556
302.224
301.894
301.565
301.238
300.912
300.586
300.26
299.934
299.606
299.277
298.947
298.617
298.287
297.957
297.629
297.302
296.978
296.655
296.333
296.013
295.693
295.373
295.053
294.731
294.409
294.086
293.763
293.441
293.119
292.799
292.481
292.165
291.852
291.54
291.23
290.92
290.61
290.299
289.985
289.668
289.348
289.024
318.219
317.907
317.592
317.273
316.952
316.629
316.305
315.979
315.652
315.322
314.989
314.654
314.315
313.973
313.629
313.285
312.941
312.599
312.259
311.921
311.586
311.253
310.921
310.59
310.257
309.923
309.587
309.249
308.909
308.567
308.225
307.884
307.545
307.208
306.874
306.542
306.212
305.884
305.556
305.227
304.897
304.565
304.231
303.894
303.557
303.219
302.882
302.547
302.215
301.885
301.558
301.232
300.908
300.585
300.261
299.935
299.608
299.278
298.947
298.614
298.281
297.95
297.62
297.292
296.968
296.646
296.326
296.008
295.69
295.372
295.053
294.731
294.409
294.084
293.759
293.434
293.11
292.789
292.471
292.156
291.844
291.536
291.229
290.924
290.618
290.311
290.001
289.687
289.368
289.043
318.268
317.952
317.631
317.307
316.982
316.656
316.331
316.005
315.678
315.348
315.014
314.676
314.334
313.988
313.639
313.289
312.94
312.594
312.252
311.914
311.58
311.25
310.921
310.593
310.263
309.931
309.595
309.255
308.912
308.567
308.221
307.876
307.534
307.196
306.862
306.532
306.206
305.881
305.556
305.231
304.902
304.57
304.235
303.896
303.555
303.214
302.873
302.536
302.202
301.872
301.547
301.225
300.904
300.584
300.263
299.939
299.612
299.281
298.947
298.611
298.275
297.939
297.607
297.278
296.954
296.634
296.317
296.002
295.688
295.372
295.055
294.734
294.41
294.083
293.754
293.425
293.098
292.774
292.455
292.141
291.832
291.528
291.227
290.928
290.629
290.328
290.023
289.713
289.395
289.069
318.326
318.002
317.674
317.343
317.012
316.684
316.358
316.033
315.707
315.378
315.045
314.705
314.358
314.006
313.649
313.291
312.935
312.584
312.239
311.901
311.57
311.243
310.92
310.597
310.272
309.943
309.607
309.266
308.919
308.567
308.214
307.864
307.517
307.177
306.844
306.518
306.196
305.877
305.558
305.237
304.912
304.581
304.244
303.901
303.554
303.206
302.86
302.518
302.183
301.854
301.532
301.214
300.899
300.585
300.269
299.948
299.621
299.289
298.951
298.609
298.266
297.925
297.588
297.258
296.935
296.617
296.305
295.996
295.687
295.376
295.061
294.741
294.415
294.084
293.75
293.414
293.081
292.753
292.433
292.12
291.814
291.516
291.222
290.932
290.642
290.35
290.054
289.749
289.434
289.107
318.395
318.061
317.72
317.378
317.04
316.708
316.383
316.061
315.74
315.416
315.084
314.743
314.392
314.031
313.662
313.291
312.923
312.564
312.215
311.878
311.552
311.233
310.919
310.605
310.288
309.963
309.629
309.285
308.931
308.57
308.205
307.845
307.492
307.149
306.818
306.496
306.182
305.873
305.563
305.25
304.93
304.601
304.261
303.912
303.555
303.196
302.84
302.492
302.154
301.827
301.509
301.2
300.894
300.589
300.28
299.965
299.64
299.305
298.96
298.609
298.255
297.904
297.561
297.228
296.906
296.594
296.289
295.989
295.689
295.385
295.075
294.757
294.428
294.09
293.746
293.4
293.057
292.722
292.399
292.087
291.787
291.496
291.213
290.934
290.657
290.379
290.095
289.801
289.491
289.162
318.48
318.13
317.767
317.407
317.058
316.723
316.402
316.089
315.779
315.464
315.138
314.797
314.44
314.065
313.678
313.285
312.899
312.528
312.175
311.841
311.522
311.216
310.917
310.618
310.313
309.997
309.666
309.318
308.954
308.576
308.192
307.815
307.451
307.105
306.777
306.463
306.162
305.868
305.574
305.273
304.962
304.635
304.292
303.933
303.56
303.181
302.809
302.45
302.109
301.785
301.476
301.179
300.888
300.598
300.302
299.995
299.672
299.334
298.98
298.612
298.239
297.872
297.519
297.182
296.863
296.559
296.266
295.981
295.696
295.404
295.102
294.786
294.454
294.106
293.746
293.38
293.021
292.675
292.348
292.038
291.745
291.465
291.197
290.935
290.675
290.416
290.152
289.875
289.575
289.244
318.591
318.217
317.812
317.421
317.055
316.719
316.407
316.115
315.826
315.527
315.212
314.874
314.512
314.119
313.703
313.269
312.855
312.466
312.11
311.779
311.475
311.187
310.914
310.641
310.355
310.053
309.727
309.376
308.995
308.591
308.168
307.765
307.385
307.037
306.713
306.414
306.132
305.863
305.594
305.312
305.015
304.693
304.348
303.972
303.573
303.157
302.759
302.384
302.04
301.721
301.426
301.148
300.882
300.617
300.339
300.046
299.728
299.388
299.017
298.624
298.213
297.821
297.451
297.113
296.798
296.508
296.234
295.972
295.711
295.438
295.15
294.838
294.503
294.139
293.753
293.35
292.965
292.603
292.272
291.965
291.683
291.419
291.172
290.932
290.692
290.46
290.229
289.983
289.703
289.371
318.749
318.347
317.834
317.402
317.006
316.682
316.386
316.134
315.888
315.611
315.322
314.985
314.629
314.205
313.754
313.223
312.774
312.356
312.008
311.681
311.403
311.14
310.91
310.681
310.419
310.144
309.821
309.479
309.07
308.632
308.117
307.681
307.273
306.933
306.613
306.341
306.082
305.857
305.632
305.374
305.103
304.785
304.447
304.044
303.613
303.105
302.674
302.273
301.937
301.621
301.353
301.098
300.875
300.653
300.399
300.132
299.818
299.485
299.087
298.661
298.16
297.736
297.34
297.009
296.698
296.433
296.182
295.963
295.744
295.494
295.231
294.923
294.595
294.204
293.786
293.293
292.875
292.486
292.161
291.855
291.595
291.35
291.137
290.928
290.697
290.503
290.326
290.139
289.907
289.586
318.997
318.639
317.741
317.33
316.853
316.606
316.299
316.144
315.995
315.712
315.5
315.122
314.844
314.332
313.919
313.06
312.65
312.147
311.875
311.511
311.309
311.044
310.906
310.768
310.504
310.304
309.944
309.677
309.185
308.786
307.953
307.554
307.065
306.8
306.444
306.247
305.986
305.851
305.716
305.456
305.259
304.905
304.642
304.156
303.763
302.941
302.549
302.066
301.805
301.454
301.259
301.002
300.868
300.735
300.478
300.284
299.934
299.675
299.196
298.808
297.997
297.61
297.134
296.877
296.53
296.338
296.085
295.954
295.822
295.569
295.378
295.034
294.779
294.307
293.925
293.127
292.746
292.276
292.022
291.678
291.488
291.232
291.098
290.955
290.648
290.52
290.439
290.359
290.24
289.998
288.629
288.24
287.849
287.458
287.066
286.675
286.284
285.894
285.505
285.118
284.731
284.345
283.96
283.576
283.192
288.631
288.241
287.85
287.458
287.066
286.675
286.284
285.893
285.504
285.116
284.73
284.344
283.959
283.575
283.192
288.633
288.243
287.851
287.458
287.066
286.674
286.282
285.891
285.502
285.114
284.728
284.342
283.958
283.574
283.191
288.637
288.246
287.853
287.459
287.065
286.672
286.279
285.888
285.498
285.11
284.724
284.339
283.956
283.573
283.191
288.643
288.25
287.856
287.46
287.064
286.669
286.275
285.883
285.493
285.105
284.719
284.335
283.953
283.571
283.19
288.652
288.257
287.859
287.461
287.062
286.665
286.269
285.876
285.486
285.098
284.713
284.33
283.948
283.568
283.189
288.663
288.265
287.864
287.462
287.059
286.659
286.261
285.867
285.476
285.088
284.704
284.322
283.943
283.565
283.188
288.68
288.277
287.87
287.462
287.055
286.65
286.25
285.854
285.462
285.075
284.692
284.312
283.935
283.56
283.187
288.702
288.293
287.878
287.462
287.048
286.638
286.234
285.836
285.444
285.058
284.677
284.3
283.926
283.555
283.185
288.734
288.314
287.887
287.459
287.036
286.62
286.212
285.812
285.42
285.036
284.658
284.284
283.914
283.548
283.182
288.779
288.342
287.896
287.453
287.017
286.593
286.181
285.78
285.39
285.008
284.633
284.265
283.9
283.539
283.179
288.844
288.378
287.904
287.438
286.987
286.555
286.139
285.738
285.35
284.972
284.603
284.241
283.883
283.528
283.176
288.94
288.422
287.904
287.407
286.94
286.499
286.082
285.683
285.3
284.929
284.567
284.212
283.862
283.516
283.172
289.081
288.467
287.881
287.349
286.865
286.42
286.005
285.613
285.238
284.876
284.523
284.178
283.838
283.501
283.167
289.288
288.482
287.806
287.241
286.751
286.312
285.907
285.526
285.163
284.813
284.472
284.138
283.81
283.484
283.161
322.895
322.686
322.476
322.266
322.054
321.84
321.625
321.406
321.183
320.954
320.718
320.468
320.195
319.876
319.461
322.9
322.7
322.5
322.299
322.098
321.895
321.691
321.486
321.279
321.069
320.854
320.633
320.397
320.123
319.709
322.905
322.714
322.524
322.333
322.142
321.951
321.759
321.568
321.377
321.186
320.996
320.808
320.627
320.468
320.415
322.909
322.729
322.548
322.367
322.187
322.007
321.828
321.65
321.474
321.302
321.135
320.979
320.841
320.74
320.704
322.914
322.743
322.571
322.401
322.231
322.062
321.895
321.73
321.569
321.414
321.268
321.136
321.029
320.967
320.992
322.919
322.757
322.595
322.434
322.274
322.116
321.96
321.808
321.66
321.52
321.39
321.276
321.187
321.134
321.126
322.923
322.77
322.618
322.466
322.316
322.168
322.023
321.882
321.747
321.619
321.501
321.399
321.319
321.269
321.269
322.928
322.784
322.64
322.498
322.357
322.219
322.084
321.953
321.828
321.71
321.602
321.507
321.429
321.371
321.335
322.932
322.796
322.661
322.528
322.396
322.267
322.141
322.019
321.904
321.795
321.694
321.604
321.525
321.457
321.388
322.936
322.809
322.682
322.557
322.433
322.313
322.195
322.082
321.975
321.873
321.779
321.693
321.615
321.544
321.481
322.94
322.82
322.702
322.584
322.469
322.356
322.247
322.141
322.041
321.947
321.858
321.776
321.699
321.624
321.542
322.944
322.832
322.72
322.61
322.502
322.397
322.295
322.197
322.104
322.016
321.933
321.855
321.781
321.71
321.643
322.947
322.842
322.738
322.635
322.534
322.436
322.341
322.25
322.163
322.081
322.004
321.932
321.863
321.792
321.71
322.951
322.852
322.754
322.658
322.564
322.472
322.384
322.299
322.219
322.143
322.072
322.007
321.944
321.883
321.824
322.954
322.861
322.77
322.68
322.592
322.506
322.424
322.345
322.271
322.202
322.137
322.079
322.025
321.973
321.907
322.957
322.87
322.785
322.7
322.618
322.538
322.462
322.389
322.32
322.257
322.199
322.147
322.104
322.073
322.071
322.959
322.878
322.798
322.72
322.643
322.568
322.497
322.429
322.366
322.308
322.255
322.21
322.175
322.152
322.144
322.962
322.886
322.811
322.737
322.665
322.596
322.529
322.466
322.408
322.354
322.307
322.267
322.237
322.221
322.227
322.964
322.893
322.823
322.754
322.687
322.622
322.559
322.501
322.446
322.397
322.353
322.317
322.29
322.274
322.268
322.967
322.9
322.834
322.769
322.706
322.645
322.587
322.532
322.481
322.435
322.395
322.361
322.335
322.319
322.319
322.969
322.906
322.844
322.783
322.724
322.667
322.612
322.561
322.513
322.47
322.431
322.398
322.373
322.355
322.345
322.97
322.912
322.853
322.796
322.741
322.687
322.636
322.587
322.542
322.501
322.464
322.432
322.405
322.386
322.375
322.972
322.917
322.862
322.808
322.756
322.705
322.657
322.611
322.568
322.528
322.493
322.461
322.433
322.41
322.39
322.974
322.922
322.87
322.819
322.77
322.722
322.676
322.633
322.592
322.554
322.519
322.487
322.458
322.431
322.403
322.975
322.926
322.877
322.83
322.783
322.738
322.694
322.653
322.614
322.577
322.543
322.511
322.481
322.453
322.426
322.977
322.93
322.884
322.839
322.795
322.752
322.711
322.671
322.634
322.598
322.565
322.534
322.504
322.474
322.442
322.978
322.934
322.89
322.848
322.806
322.765
322.726
322.688
322.652
322.619
322.586
322.556
322.526
322.497
322.468
322.979
322.937
322.896
322.855
322.816
322.777
322.74
322.704
322.67
322.637
322.606
322.577
322.548
322.519
322.486
322.98
322.941
322.901
322.863
322.825
322.788
322.753
322.719
322.686
322.655
322.626
322.597
322.57
322.543
322.516
322.981
322.944
322.906
322.87
322.834
322.799
322.765
322.732
322.701
322.672
322.644
322.617
322.592
322.568
322.539
322.982
322.946
322.911
322.876
322.841
322.808
322.776
322.745
322.715
322.687
322.661
322.636
322.614
322.595
322.584
322.983
322.949
322.915
322.881
322.849
322.817
322.786
322.757
322.728
322.702
322.677
322.654
322.634
322.617
322.604
322.984
322.951
322.919
322.887
322.855
322.825
322.795
322.767
322.74
322.715
322.691
322.67
322.651
322.636
322.627
322.984
322.953
322.922
322.891
322.862
322.832
322.804
322.777
322.751
322.727
322.704
322.683
322.666
322.651
322.639
322.985
322.955
322.925
322.896
322.867
322.839
322.812
322.786
322.761
322.737
322.715
322.696
322.678
322.663
322.653
322.986
322.957
322.928
322.9
322.872
322.845
322.819
322.794
322.77
322.747
322.726
322.706
322.688
322.673
322.66
322.986
322.958
322.931
322.903
322.877
322.851
322.825
322.801
322.778
322.755
322.734
322.715
322.697
322.682
322.668
322.987
322.96
322.933
322.907
322.881
322.856
322.831
322.807
322.785
322.763
322.742
322.723
322.705
322.688
322.673
322.987
322.961
322.935
322.91
322.885
322.86
322.836
322.813
322.791
322.77
322.749
322.73
322.712
322.694
322.676
322.987
322.962
322.937
322.912
322.888
322.864
322.841
322.818
322.797
322.776
322.756
322.736
322.718
322.7
322.682
322.988
322.963
322.939
322.915
322.891
322.868
322.845
322.823
322.802
322.781
322.761
322.742
322.724
322.705
322.686
322.988
322.964
322.94
322.917
322.894
322.871
322.849
322.827
322.806
322.786
322.767
322.748
322.729
322.711
322.693
322.988
322.965
322.942
322.919
322.896
322.874
322.852
322.831
322.811
322.791
322.772
322.753
322.735
322.717
322.698
322.989
322.966
322.943
322.92
322.898
322.877
322.855
322.835
322.814
322.795
322.776
322.758
322.74
322.722
322.705
322.989
322.966
322.944
322.922
322.9
322.879
322.858
322.837
322.818
322.799
322.78
322.762
322.745
322.728
322.711
322.989
322.967
322.945
322.923
322.902
322.881
322.86
322.84
322.821
322.802
322.784
322.766
322.75
322.734
322.721
322.989
322.967
322.946
322.924
322.903
322.882
322.862
322.842
322.823
322.804
322.787
322.77
322.754
322.739
322.725
322.989
322.968
322.946
322.925
322.904
322.883
322.863
322.844
322.825
322.807
322.789
322.773
322.757
322.742
322.73
322.989
322.968
322.947
322.925
322.905
322.884
322.864
322.845
322.826
322.808
322.791
322.775
322.759
322.745
322.732
322.989
322.968
322.947
322.926
322.905
322.885
322.865
322.846
322.827
322.81
322.792
322.776
322.761
322.747
322.733
322.989
322.968
322.947
322.926
322.905
322.885
322.865
322.846
322.828
322.81
322.793
322.777
322.762
322.748
322.734
322.989
322.968
322.947
322.926
322.905
322.885
322.865
322.846
322.828
322.81
322.793
322.777
322.762
322.748
322.735
322.989
322.968
322.947
322.926
322.905
322.885
322.865
322.846
322.827
322.81
322.793
322.777
322.762
322.748
322.735
322.989
322.968
322.946
322.925
322.904
322.884
322.864
322.845
322.826
322.809
322.792
322.776
322.761
322.747
322.734
322.989
322.967
322.946
322.924
322.903
322.883
322.863
322.843
322.825
322.807
322.79
322.774
322.759
322.746
322.733
322.989
322.967
322.945
322.923
322.902
322.881
322.861
322.841
322.823
322.805
322.788
322.772
322.757
322.744
322.732
322.989
322.966
322.944
322.922
322.9
322.879
322.859
322.839
322.82
322.802
322.784
322.768
322.754
322.74
322.728
322.989
322.966
322.943
322.92
322.898
322.877
322.856
322.836
322.816
322.798
322.781
322.764
322.749
322.736
322.725
322.988
322.965
322.942
322.919
322.896
322.874
322.853
322.832
322.812
322.794
322.776
322.759
322.744
322.73
322.719
322.988
322.964
322.94
322.916
322.893
322.871
322.849
322.828
322.808
322.788
322.77
322.753
322.737
322.723
322.712
322.988
322.963
322.938
322.914
322.89
322.867
322.845
322.823
322.802
322.783
322.764
322.746
322.73
322.713
322.697
322.987
322.962
322.936
322.911
322.887
322.863
322.84
322.818
322.796
322.776
322.757
322.739
322.721
322.705
322.689
322.987
322.96
322.934
322.908
322.883
322.858
322.834
322.812
322.79
322.769
322.749
322.731
322.713
322.695
322.677
322.986
322.959
322.931
322.905
322.878
322.853
322.828
322.805
322.782
322.761
322.741
322.722
322.704
322.686
322.67
322.986
322.957
322.929
322.901
322.873
322.847
322.822
322.797
322.774
322.752
322.732
322.712
322.694
322.677
322.659
322.985
322.955
322.925
322.896
322.868
322.84
322.814
322.789
322.765
322.742
322.722
322.702
322.684
322.668
322.652
322.984
322.953
322.922
322.892
322.862
322.833
322.806
322.779
322.755
322.732
322.711
322.691
322.674
322.658
322.642
322.984
322.951
322.918
322.886
322.855
322.825
322.796
322.769
322.743
322.72
322.698
322.679
322.662
322.648
322.636
322.983
322.948
322.914
322.88
322.848
322.816
322.786
322.757
322.731
322.706
322.684
322.665
322.649
322.636
322.629
322.982
322.945
322.909
322.874
322.839
322.806
322.774
322.744
322.716
322.691
322.668
322.649
322.633
322.622
322.614
322.981
322.942
322.904
322.867
322.83
322.795
322.762
322.73
322.7
322.674
322.65
322.63
322.614
322.604
322.601
322.98
322.939
322.898
322.859
322.82
322.783
322.748
322.714
322.683
322.654
322.629
322.608
322.591
322.581
322.576
322.978
322.935
322.892
322.85
322.809
322.77
322.732
322.696
322.663
322.633
322.605
322.582
322.565
322.554
322.555
322.977
322.931
322.886
322.841
322.797
322.755
322.715
322.677
322.641
322.609
322.579
322.553
322.533
322.519
322.513
322.975
322.927
322.878
322.831
322.785
322.74
322.697
322.656
322.618
322.582
322.55
322.521
322.496
322.478
322.475
322.974
322.922
322.87
322.82
322.771
322.723
322.677
322.634
322.592
322.554
322.518
322.486
322.455
322.426
322.39
322.972
322.917
322.862
322.808
322.756
322.705
322.656
322.609
322.565
322.524
322.485
322.448
322.414
322.38
322.347
322.97
322.911
322.853
322.795
322.739
322.685
322.633
322.583
322.536
322.491
322.45
322.41
322.372
322.333
322.287
322.968
322.905
322.843
322.782
322.722
322.664
322.608
322.555
322.505
322.457
322.413
322.37
322.33
322.29
322.252
322.966
322.899
322.832
322.767
322.703
322.641
322.582
322.525
322.472
322.422
322.374
322.33
322.288
322.245
322.199
322.964
322.892
322.821
322.751
322.683
322.617
322.554
322.493
322.437
322.383
322.334
322.288
322.245
322.204
322.167
322.962
322.885
322.809
322.734
322.661
322.591
322.523
322.459
322.399
322.343
322.291
322.244
322.201
322.161
322.118
322.959
322.877
322.796
322.716
322.638
322.563
322.49
322.422
322.358
322.299
322.245
322.198
322.156
322.119
322.09
322.956
322.869
322.782
322.697
322.613
322.532
322.455
322.382
322.314
322.251
322.195
322.147
322.106
322.073
322.056
322.953
322.86
322.767
322.676
322.586
322.5
322.417
322.338
322.265
322.199
322.14
322.091
322.051
322.017
321.976
322.95
322.85
322.751
322.653
322.558
322.465
322.375
322.291
322.212
322.141
322.079
322.029
321.991
321.964
321.941
322.947
322.84
322.734
322.63
322.527
322.427
322.331
322.239
322.154
322.076
322.01
321.958
321.923
321.91
321.916
322.943
322.83
322.717
322.605
322.495
322.387
322.283
322.183
322.09
322.005
321.931
321.875
321.842
321.842
321.884
322.939
322.818
322.698
322.579
322.461
322.345
322.232
322.123
322.02
321.924
321.841
321.775
321.737
321.744
321.829
322.936
322.807
322.679
322.551
322.425
322.3
322.178
322.059
321.944
321.836
321.738
321.656
321.6
321.594
321.701
289.504
288.378
287.636
287.073
286.6
286.18
285.794
285.43
285.082
284.746
284.419
284.098
283.781
283.467
283.156
289.106
288.015
287.358
286.856
286.426
286.038
285.676
285.332
285.001
284.68
284.366
284.057
283.753
283.451
283.15
287.535
287.351
286.973
286.589
286.224
285.877
285.545
285.225
284.913
284.609
284.31
284.015
283.723
283.433
283.144
286.917
286.82
286.593
286.31
286.009
285.706
285.406
285.111
284.82
284.534
284.25
283.97
283.691
283.414
283.138
286.334
286.381
286.251
286.042
285.795
285.533
285.265
284.994
284.725
284.456
284.189
283.923
283.659
283.395
283.132
286.07
286.063
285.965
285.799
285.593
285.364
285.124
284.877
284.628
284.377
284.127
283.876
283.625
283.375
283.125
285.796
285.81
285.727
285.585
285.406
285.204
284.987
284.762
284.532
284.299
284.064
283.828
283.592
283.355
283.118
285.673
285.623
285.529
285.396
285.235
285.053
284.857
284.651
284.439
284.222
284.003
283.781
283.559
283.336
283.112
285.575
285.467
285.357
285.228
285.078
284.912
284.733
284.544
284.348
284.147
283.942
283.735
283.526
283.316
283.105
285.406
285.311
285.199
285.074
284.934
284.78
284.616
284.442
284.261
284.074
283.884
283.69
283.494
283.297
283.099
285.297
285.168
285.051
284.929
284.798
284.656
284.505
284.345
284.178
284.005
283.827
283.647
283.464
283.279
283.093
285.116
285.016
284.906
284.791
284.67
284.539
284.4
284.252
284.098
283.938
283.773
283.605
283.434
283.261
283.087
284.998
284.871
284.765
284.659
284.547
284.428
284.3
284.165
284.023
283.875
283.722
283.565
283.406
283.244
283.082
284.798
284.712
284.623
284.53
284.43
284.322
284.206
284.082
283.951
283.815
283.673
283.527
283.379
283.228
283.076
284.653
284.556
284.483
284.405
284.319
284.223
284.118
284.005
283.884
283.758
283.627
283.491
283.353
283.213
283.071
284.37
284.384
284.346
284.287
284.214
284.129
284.035
283.932
283.821
283.705
283.583
283.458
283.329
283.198
283.066
284.243
284.247
284.224
284.179
284.117
284.043
283.958
283.864
283.762
283.655
283.543
283.426
283.306
283.185
283.062
284.102
284.13
284.118
284.082
284.03
283.964
283.887
283.801
283.708
283.609
283.505
283.396
283.285
283.172
283.057
284.031
284.039
284.028
283.998
283.951
283.892
283.822
283.743
283.658
283.566
283.469
283.369
283.266
283.16
283.054
283.947
283.962
283.952
283.924
283.882
283.827
283.763
283.691
283.612
283.527
283.437
283.344
283.247
283.149
283.05
283.904
283.902
283.888
283.86
283.82
283.77
283.71
283.643
283.569
283.49
283.407
283.32
283.231
283.139
283.047
283.853
283.852
283.834
283.805
283.766
283.718
283.662
283.599
283.531
283.457
283.38
283.299
283.215
283.13
283.043
283.829
283.812
283.788
283.757
283.718
283.672
283.619
283.56
283.496
283.427
283.355
283.279
283.201
283.121
283.041
283.808
283.777
283.748
283.714
283.675
283.63
283.58
283.524
283.464
283.4
283.332
283.261
283.188
283.113
283.038
283.771
283.742
283.71
283.675
283.636
283.593
283.545
283.492
283.435
283.375
283.311
283.245
283.176
283.106
283.036
283.746
283.709
283.675
283.639
283.601
283.558
283.512
283.462
283.409
283.352
283.292
283.229
283.165
283.1
283.033
283.706
283.674
283.64
283.605
283.567
283.527
283.483
283.435
283.385
283.331
283.274
283.216
283.155
283.094
283.031
283.679
283.64
283.606
283.572
283.536
283.497
283.456
283.411
283.362
283.312
283.258
283.203
283.146
283.088
283.03
283.633
283.604
283.573
283.541
283.507
283.47
283.431
283.388
283.342
283.294
283.244
283.192
283.138
283.083
283.028
283.6
283.568
283.54
283.511
283.48
283.445
283.408
283.367
283.324
283.279
283.231
283.181
283.131
283.079
283.026
283.536
283.528
283.509
283.483
283.454
283.422
283.387
283.348
283.307
283.264
283.219
283.172
283.124
283.075
283.025
283.507
283.497
283.481
283.458
283.431
283.401
283.368
283.331
283.292
283.251
283.208
283.164
283.118
283.071
283.024
283.476
283.471
283.457
283.436
283.411
283.382
283.351
283.316
283.279
283.24
283.199
283.156
283.112
283.068
283.023
283.461
283.451
283.437
283.417
283.393
283.366
283.335
283.302
283.267
283.229
283.19
283.149
283.107
283.065
283.022
283.443
283.435
283.42
283.401
283.378
283.352
283.322
283.29
283.256
283.22
283.182
283.143
283.103
283.062
283.021
283.435
283.422
283.407
283.388
283.365
283.339
283.311
283.28
283.247
283.212
283.176
283.138
283.099
283.06
283.02
283.425