/*--------------------------------*- C++ -*----------------------------------*\
| =========                 |                                                 |
| \\      /  F ield         | OpenFOAM: The Open Source CFD Toolbox           |
|  \\    /   O peration     | Version:  5.x                                   |
|   \\  /    A nd           | Web:      www.OpenFOAM.org                      |
|    \\/     M anipulation  |                                                 |
\*---------------------------------------------------------------------------*/
FoamFile
{
    version     2.0;
    format      ascii;
    class       volScalarField;
    location    "4.2";
    object      gradTy;
}
// * * * * * * * * * * * * * * * * * * * * * * * * * * * * * * * * * * * * * //

dimensions      [0 -1 0 1 0 0 0];

internalField   nonuniform List<scalar> 
3200
(
18.2497
8.63581
11.73
8.31257
9.7499
8.04019
8.7942
7.79335
8.24205
7.60161
7.87683
7.51823
7.72852
7.31853
7.5306
7.14065
7.33967
6.98137
7.16301
6.8393
7.00253
6.71374
6.85875
6.60372
6.73168
6.50758
6.62182
6.4222
6.53719
6.36805
6.23281
6.32002
6.20141
6.25914
6.16682
6.21156
6.13739
6.1734
6.11307
6.14238
6.09312
6.11703
6.07686
6.09628
6.06378
6.07933
6.05358
6.06556
6.0463
6.05455
6.04337
6.04957
6.0379
6.04333
6.0343
6.03797
6.03298
6.03405
6.03465
6.03201
6.04071
6.03239
6.0537
6.0359
6.07865
6.04282
6.1265
6.04839
6.22305
6.00086
6.29295
7.10779
6.42123
7.94568
6.77969
9.89262
9.12267
9.00492
8.98062
8.97538
17.01
9.75178
11.3324
8.77651
9.54712
8.27029
8.67397
7.92579
8.16488
7.68571
7.83266
7.56499
7.67706
7.36991
7.48195
7.18983
7.29505
7.02668
7.12275
6.8803
6.96665
6.75035
6.82707
6.63607
6.70381
6.53601
6.59664
6.44735
6.50969
6.37179
6.25767
6.3056
6.21701
6.24779
6.17869
6.20242
6.14688
6.16596
6.12078
6.1363
6.09941
6.11207
6.082
6.09227
6.06794
6.07617
6.05688
6.06322
6.04879
6.05317
6.04483
6.04812
6.03937
6.04224
6.03547
6.0374
6.03365
6.03421
6.03465
6.03323
6.03972
6.03527
6.0512
6.04167
6.0736
6.05431
6.11669
6.07394
6.20326
6.07618
6.35137
6.99262
6.62287
7.76322
7.15679
9.49967
9.09658
9.00119
8.97985
8.97517
16.0606
10.5142
11.1001
9.1074
9.42624
8.43318
8.59982
8.01874
8.11644
7.74477
7.80508
7.59656
7.64237
7.40453
7.44945
7.22311
7.26538
7.0574
7.09603
6.90814
6.94287
6.77524
6.80611
6.65808
6.68536
6.55529
6.57986
6.46404
6.4902
6.37459
6.27605
6.29663
6.22784
6.24043
6.18685
6.19645
6.15339
6.16109
6.12606
6.13232
6.10373
6.10883
6.08552
6.08966
6.0708
6.07411
6.05916
6.06171
6.05053
6.05231
6.04582
6.04715
6.04038
6.04153
6.03629
6.03705
6.03416
6.03437
6.03472
6.03412
6.03917
6.03734
6.04971
6.04578
6.0706
6.06254
6.11109
6.0926
6.19374
6.13541
6.39515
6.91789
6.7641
7.65063
7.41591
9.21657
9.05818
8.99448
8.97842
8.97477
15.333
11.0313
10.9711
9.34582
9.35783
8.54968
8.55557
8.08453
8.08678
7.78654
7.78824
7.61796
7.61902
7.42784
7.42781
7.24565
7.24572
7.07827
7.07838
6.92707
6.92718
6.79219
6.7923
6.67307
6.67321
6.56839
6.5687
6.47504
6.47638
6.37671
6.28967
6.29125
6.23541
6.23572
6.19248
6.19258
6.15787
6.15792
6.1297
6.12973
6.10669
6.10672
6.08794
6.08796
6.07276
6.07278
6.06074
6.06075
6.05175
6.05178
6.04649
6.04651
6.04108
6.04107
6.03686
6.03685
6.03453
6.03452
6.03482
6.03479
6.0389
6.03884
6.04888
6.04874
6.06891
6.06851
6.10816
6.10648
6.19059
6.18192
6.42841
6.87022
6.86372
7.5829
7.59362
9.01183
9.01599
8.98587
8.97649
8.97423
14.7775
11.3788
10.9046
9.51875
9.32223
8.63361
8.5304
8.13139
8.06922
7.81624
7.77829
7.63251
7.60336
7.4435
7.41345
7.2609
7.23275
7.09243
7.06677
6.93995
6.9169
6.80373
6.78327
6.68329
6.66525
6.57728
6.56129
6.48224
6.4666
6.37832
6.29974
6.28815
6.24074
6.23275
6.19638
6.1901
6.16096
6.15589
6.1322
6.12807
6.10873
6.10537
6.0896
6.08687
6.07412
6.07193
6.06184
6.06014
6.05261
6.05146
6.04695
6.04609
6.04156
6.04078
6.03727
6.03675
6.03482
6.03466
6.03494
6.0353
6.03879
6.03993
6.04845
6.05089
6.06805
6.07288
6.1069
6.11693
6.19115
6.21823
6.45385
6.84049
6.9343
7.5435
7.71503
8.86365
8.97518
8.97644
8.97428
8.97359
14.3579
11.6093
10.8746
9.6441
9.30631
8.69413
8.51706
8.16478
8.05929
7.83733
7.77265
7.64239
7.59294
7.45397
7.40399
7.27117
7.22428
7.10201
7.05922
6.94868
6.91023
6.81157
6.77741
6.69023
6.66009
6.58329
6.55641
6.48691
6.45973
6.37954
6.30714
6.2865
6.24449
6.23092
6.19908
6.18854
6.16308
6.1546
6.13392
6.12701
6.11014
6.10451
6.09075
6.08618
6.07506
6.0714
6.0626
6.05977
6.05322
6.05128
6.04727
6.04581
6.04189
6.04061
6.03756
6.0367
6.03504
6.03478
6.03506
6.03568
6.03878
6.04073
6.04827
6.05245
6.06767
6.07607
6.10659
6.12481
6.19359
6.24619
6.47325
6.82247
6.98428
7.5216
7.79736
8.75695
8.93878
8.96713
8.972
8.97293
14.0483
11.7592
10.8644
9.73375
9.30137
8.73725
8.51073
8.1883
8.05402
7.85214
7.76964
7.64903
7.58609
7.46088
7.39785
7.27801
7.21882
7.10841
7.05437
6.95453
6.90596
6.81683
6.77368
6.69489
6.65679
6.58731
6.55323
6.48988
6.45498
6.38044
6.31246
6.28569
6.2471
6.22982
6.20092
6.18758
6.16453
6.1538
6.13509
6.12636
6.11109
6.10397
6.09153
6.08575
6.0757
6.07107
6.06312
6.05955
6.05364
6.05117
6.04748
6.04564
6.04211
6.0405
6.03777
6.03668
6.0352
6.03488
6.03516
6.03596
6.03881
6.04131
6.04822
6.05357
6.06758
6.07839
6.10677
6.13066
6.19669
6.26718
6.48777
6.81194
7.01923
7.51017
7.85233
8.68136
8.90851
8.95877
8.96989
8.9723
13.8303
11.8534
10.8637
9.79547
9.3017
8.76687
8.50823
8.2043
8.05146
7.86217
7.76814
7.65338
7.58173
7.4653
7.39398
7.28242
7.21541
7.11256
7.05136
6.95832
6.90332
6.82025
6.77137
6.69792
6.65475
6.58991
6.55122
6.49172
6.45181
6.38109
6.31614
6.28536
6.24886
6.22918
6.20214
6.18701
6.16548
6.15332
6.13585
6.12596
6.11172
6.10365
6.09204
6.0855
6.07612
6.07088
6.06346
6.05943
6.05392
6.05112
6.04763
6.04552
6.04226
6.04044
6.0379
6.03668
6.03531
6.03496
6.03524
6.03616
6.03886
6.04171
6.04824
6.05434
6.06761
6.08
6.10714
6.13483
6.1996
6.28216
6.49814
6.80609
7.04284
7.5047
7.88783
8.62985
8.88532
8.95198
8.96813
8.97178
13.6913
11.9081
10.8661
9.83422
9.30367
8.78543
8.50755
8.21425
8.05035
7.86839
7.76748
7.65599
7.57917
7.46792
7.39172
7.28505
7.21343
7.11503
7.04963
6.9606
6.9018
6.8223
6.77005
6.69974
6.65358
6.59146
6.55004
6.49277
6.44987
6.38151
6.31845
6.28526
6.24995
6.22884
6.20288
6.18669
6.16606
6.15305
6.13632
6.12574
6.1121
6.10347
6.09236
6.08535
6.07637
6.07077
6.06368
6.05936
6.05409
6.05109
6.04771
6.04546
6.04235
6.0404
6.03799
6.03668
6.03538
6.03501
6.0353
6.03628
6.0389
6.04196
6.04827
6.05483
6.06767
6.08102
6.10748
6.13752
6.20181
6.2918
6.50483
6.80309
7.05745
7.50237
7.90897
8.5978
8.86969
8.9472
8.96686
8.97139
13.6237
11.9331
10.8681
9.85291
9.30515
8.79439
8.50749
8.21903
8.04997
7.87137
7.76725
7.65722
7.57799
7.46913
7.39069
7.28627
7.21253
7.11619
7.04883
6.96166
6.90111
6.82326
6.76944
6.70059
6.65305
6.59219
6.5495
6.49325
6.44895
6.38171
6.31956
6.28524
6.25047
6.22869
6.20323
6.18655
6.16633
6.15293
6.13654
6.12564
6.11228
6.10339
6.0925
6.08529
6.07649
6.07072
6.06378
6.05933
6.05417
6.05108
6.04775
6.04543
6.04239
6.04039
6.03803
6.03668
6.03542
6.03504
6.03533
6.03635
6.03892
6.04208
6.04829
6.05507
6.06772
6.08151
6.10768
6.13884
6.20298
6.29652
6.50812
6.80184
7.06443
7.50157
7.91882
8.58244
8.86183
8.94475
8.9662
8.97119
-13.734
-11.9292
-10.7006
-9.3616
-8.55126
-7.65944
-7.09753
-6.44573
-6.03079
-5.54888
-5.25558
-4.93016
-4.69274
-4.36454
-4.12912
-3.81781
-3.60029
-3.31955
-3.12566
-2.87802
-2.70786
-2.49154
-2.34315
-2.15473
-2.02513
-1.85975
-1.74363
-1.59026
-1.46839
-1.28164
-1.10683
-1.00877
-0.907059
-0.842152
-0.764596
-0.712862
-0.648889
-0.605727
-0.551854
-0.515387
-0.469748
-0.438846
-0.40018
-0.374061
-0.341491
-0.319661
-0.29273
-0.275089
-0.254003
-0.240997
-0.226341
-0.215555
-0.20054
-0.189729
-0.175383
-0.16534
-0.152353
-0.143379
-0.131918
-0.124062
-0.114114
-0.107378
-0.0989901
-0.0935488
-0.0872246
-0.0840483
-0.0822587
-0.0859114
-0.1005
-0.134776
-0.225562
-0.372499
-0.527686
-0.815022
-1.11835
-1.62837
-1.84412
-1.90823
-1.92483
-1.92869
-13.8062
-11.9062
-10.705
-9.34046
-8.55453
-7.64625
-7.10113
-6.43626
-6.03347
-5.54134
-5.25687
-4.92665
-4.69638
-4.36083
-4.13216
-3.81406
-3.60283
-3.31609
-3.12781
-2.87493
-2.70971
-2.48883
-2.34476
-2.15238
-2.02657
-1.85779
-1.74513
-1.58901
-1.47099
-1.28116
-1.10377
-1.00892
-0.90559
-0.842661
-0.763566
-0.713354
-0.648059
-0.606159
-0.551161
-0.515757
-0.469162
-0.43916
-0.399681
-0.374322
-0.341064
-0.319868
-0.292361
-0.275229
-0.253682
-0.241065
-0.226189
-0.215726
-0.200374
-0.189873
-0.175213
-0.165459
-0.152194
-0.143481
-0.131775
-0.124147
-0.113987
-0.107446
-0.0988737
-0.0935855
-0.0871
-0.0839941
-0.0820422
-0.0854751
-0.0997136
-0.132517
-0.223317
-0.37217
-0.522401
-0.814383
-1.11008
-1.64014
-1.85018
-1.91013
-1.92534
-1.92884
-13.9544
-11.8552
-10.716
-9.29618
-8.56269
-7.61854
-7.10952
-6.41631
-6.03974
-5.5255
-5.26
-4.91914
-4.70423
-4.35286
-4.13878
-3.80605
-3.60839
-3.30868
-3.13255
-2.86833
-2.71379
-2.48305
-2.3483
-2.14737
-2.02973
-1.85358
-1.74836
-1.58623
-1.47647
-1.28019
-1.0974
-1.00941
-0.902509
-0.843821
-0.761385
-0.714454
-0.646298
-0.607117
-0.549687
-0.516578
-0.467914
-0.439855
-0.39862
-0.374901
-0.340157
-0.320329
-0.291579
-0.275548
-0.253006
-0.241226
-0.225862
-0.216095
-0.200016
-0.190184
-0.174848
-0.165721
-0.151855
-0.143703
-0.131471
-0.124335
-0.113717
-0.107596
-0.0986273
-0.0936715
-0.0868416
-0.083895
-0.0816116
-0.0846078
-0.0981857
-0.127939
-0.21875
-0.371786
-0.511446
-0.813595
-1.09244
-1.66471
-1.86225
-1.91382
-1.92631
-1.92914
-14.1866
-11.7658
-10.7381
-9.22446
-8.57929
-7.57343
-7.1253
-6.38371
-6.05152
-5.49972
-5.26614
-4.9066
-4.71755
-4.33939
-4.15016
-3.79263
-3.61804
-3.29635
-3.14083
-2.85736
-2.72093
-2.47344
-2.35449
-2.13904
-2.03523
-1.84655
-1.75388
-1.58137
-1.48541
-1.27869
-1.08725
-1.01067
-0.897503
-0.845934
-0.757787
-0.716406
-0.64338
-0.608809
-0.547243
-0.518023
-0.465846
-0.44108
-0.39686
-0.375924
-0.338656
-0.32115
-0.290291
-0.276129
-0.251903
-0.241532
-0.225313
-0.216719
-0.19941
-0.190718
-0.174237
-0.166175
-0.15129
-0.144091
-0.130965
-0.124664
-0.113269
-0.107862
-0.098222
-0.093834
-0.0864294
-0.0837708
-0.0809712
-0.0833185
-0.0960119
-0.120919
-0.211696
-0.371937
-0.493991
-0.81374
-1.06306
-1.70428
-1.88016
-1.91907
-1.92767
-1.92954
-14.5156
-11.6207
-10.7798
-9.118
-8.61032
-7.50602
-7.15281
-6.33474
-6.07209
-5.46121
-5.27734
-4.88725
-4.73844
-4.31838
-4.16827
-3.77191
-3.63357
-3.27737
-3.15423
-2.84051
-2.73251
-2.45869
-2.36455
-2.12625
-2.04413
-1.83567
-1.7626
-1.57345
-1.49878
-1.27658
-1.07251
-1.01339
-0.890037
-0.849514
-0.752322
-0.719628
-0.638928
-0.611584
-0.543509
-0.520391
-0.462683
-0.443086
-0.394173
-0.377603
-0.336367
-0.322507
-0.288338
-0.277116
-0.250247
-0.242075
-0.224461
-0.217693
-0.198462
-0.191566
-0.173292
-0.166903
-0.150418
-0.144718
-0.130188
-0.125199
-0.112583
-0.108299
-0.0976081
-0.0941186
-0.0858287
-0.0836536
-0.0801261
-0.0816166
-0.0933507
-0.111266
-0.201863
-0.373617
-0.468629
-0.816702
-1.018
-1.76245
-1.90354
-1.92553
-1.92931
-1.93002
-14.9604
-11.3935
-10.8543
-8.96539
-8.66523
-7.40857
-7.19893
-6.26355
-6.10659
-5.40563
-5.29678
-4.85826
-4.77018
-4.28658
-4.19624
-3.74087
-3.65783
-3.24907
-3.17525
-2.81543
-2.75073
-2.43675
-2.38039
-2.10722
-2.0581
-1.81939
-1.77597
-1.56095
-1.51806
-1.27376
-1.05197
-1.01868
-0.879262
-0.855365
-0.744281
-0.724773
-0.632345
-0.615992
-0.53798
-0.524144
-0.458
-0.446268
-0.390194
-0.380272
-0.332986
-0.32468
-0.285469
-0.278731
-0.247845
-0.242997
-0.223178
-0.219168
-0.197022
-0.19287
-0.171873
-0.168037
-0.149118
-0.145699
-0.129031
-0.12604
-0.111565
-0.108994
-0.0967077
-0.0945966
-0.0849847
-0.0835918
-0.0790816
-0.0795061
-0.0904433
-0.0987065
-0.188785
-0.378367
-0.433146
-0.825535
-0.951215
-1.84476
-1.93169
-1.93272
-1.93106
-1.93053
-15.5479
-11.0452
-10.9827
-8.74923
-8.7584
-7.26925
-7.27408
-6.16124
-6.16286
-5.32637
-5.32942
-4.81525
-4.81775
-4.23905
-4.23882
-3.69495
-3.69512
-3.20738
-3.20772
-2.77855
-2.77893
-2.40452
-2.4049
-2.07922
-2.07965
-1.79529
-1.7962
-1.54157
-1.54541
-1.27003
-1.0239
-1.02823
-0.863869
-0.864706
-0.73258
-0.732837
-0.622722
-0.622868
-0.529886
-0.529993
-0.451142
-0.451226
-0.384372
-0.384437
-0.328048
-0.32809
-0.281303
-0.281315
-0.244404
-0.244521
-0.221265
-0.221371
-0.194864
-0.194851
-0.169769
-0.169776
-0.147199
-0.147213
-0.127328
-0.127342
-0.110073
-0.110078
-0.0954016
-0.095376
-0.0838132
-0.083656
-0.0778408
-0.0769761
-0.087644
-0.0828752
-0.171728
-0.38851
-0.384158
-0.845037
-0.853717
-1.95933
-1.96328
-1.94002
-1.93277
-1.93101
-16.3155
-10.5192
-11.198
-8.44338
-8.9115
-7.07017
-7.39394
-6.01435
-6.25266
-5.21354
-5.38275
-4.75158
-4.88857
-4.16839
-4.30314
-3.62726
-3.75194
-3.14617
-3.25738
-2.7245
-2.82212
-2.3573
-2.44245
-2.03819
-2.11259
-1.7598
-1.82666
-1.51185
-1.58392
-1.26514
-0.985814
-1.04452
-0.841871
-0.879368
-0.715586
-0.74532
-0.608691
-0.633473
-0.518072
-0.539003
-0.441129
-0.458864
-0.375875
-0.390862
-0.320855
-0.333376
-0.275267
-0.285377
-0.239484
-0.246981
-0.218419
-0.224639
-0.191648
-0.197835
-0.166664
-0.172419
-0.144377
-0.149523
-0.124831
-0.129337
-0.107891
-0.111751
-0.0935105
-0.096618
-0.0821866
-0.0839474
-0.0764029
-0.0739859
-0.085463
-0.0633
-0.149554
-0.407498
-0.316561
-0.882627
-0.712341
-2.11796
-1.99595
-1.94668
-1.93425
-1.93143
-17.315
-9.73427
-11.5507
-8.00861
-9.15699
-6.7845
-7.58195
-5.80275
-6.39355
-5.05238
-5.4681
-4.65719
-4.99369
-4.06353
-4.3999
-3.52756
-3.83797
-3.05629
-3.3328
-2.64523
-2.88782
-2.28808
-2.49959
-1.97802
-2.16263
-1.70751
-1.87239
-1.46667
-1.63807
-1.25867
-0.934208
-1.07127
-0.81027
-0.902084
-0.690854
-0.764459
-0.588206
-0.649686
-0.500805
-0.552766
-0.426494
-0.470533
-0.363461
-0.400689
-0.310362
-0.341489
-0.266504
-0.29168
-0.23243
-0.250884
-0.214182
-0.229478
-0.186866
-0.202316
-0.162082
-0.176416
-0.140229
-0.153028
-0.121167
-0.13237
-0.104697
-0.114309
-0.0907665
-0.0985624
-0.079913
-0.0846119
-0.0747607
-0.0704406
-0.0846282
-0.0393887
-0.120514
-0.440442
-0.222684
-0.949671
-0.50793
-2.33771
-2.02571
-1.95186
-1.93535
-1.93173
-18.6176
-8.57341
-12.1176
-7.3862
-9.54329
-6.37199
-7.87299
-5.49632
-6.61171
-4.82091
-5.6025
-4.51688
-5.14944
-3.90799
-4.54497
-3.38053
-3.96766
-2.92405
-3.44676
-2.52873
-2.98719
-2.1864
-2.58602
-1.88957
-2.23824
-1.63041
-1.94092
-1.39838
-1.71424
-1.24998
-0.864125
-1.11392
-0.764541
-0.936907
-0.654713
-0.793578
-0.558198
-0.674301
-0.475493
-0.573647
-0.405034
-0.488234
-0.345263
-0.415607
-0.295
-0.353836
-0.253724
-0.301351
-0.222258
-0.256985
-0.207857
-0.236623
-0.179754
-0.209015
-0.15531
-0.182426
-0.134115
-0.158312
-0.115773
-0.136952
-0.100005
-0.118187
-0.0867627
-0.101559
-0.0767
-0.0858529
-0.0728921
-0.0661499
-0.086166
-0.0104183
-0.081917
-0.494891
-0.0910155
-1.06346
-0.212657
-2.64312
-2.04594
-1.95475
-1.93594
-1.93189
18.6176
8.57342
12.1176
7.38621
9.5433
6.372
7.87299
5.49632
6.61171
4.82091
5.6025
4.51688
5.14944
3.90799
4.54498
3.38053
3.96766
2.92405
3.44676
2.52873
2.98719
2.1864
2.58602
1.88957
2.23824
1.63041
1.94092
1.39838
1.71424
1.24998
0.864123
1.11392
0.764539
0.936906
0.654712
0.793577
0.558196
0.6743
0.475491
0.573646
0.405033
0.488233
0.345262
0.415606
0.294999
0.353835
0.253723
0.30135
0.222256
0.256984
0.207856
0.236622
0.179753
0.209014
0.155309
0.182425
0.134114
0.158312
0.115772
0.136952
0.100005
0.118187
0.0867619
0.101558
0.0766991
0.0858523
0.0728913
0.0661492
0.0861653
0.010417
0.0819159
0.494897
0.0910141
1.06348
0.212658
2.64318
2.04599
1.9548
1.93598
1.93193
17.315
9.73428
11.5507
8.00862
9.157
6.7845
7.58195
5.80276
6.39356
5.05238
5.46811
4.6572
4.99369
4.06354
4.3999
3.52757
3.83797
3.05629
3.33281
2.64523
2.88782
2.28809
2.49959
1.97802
2.16263
1.70752
1.87239
1.46667
1.63807
1.25867
0.934209
1.07127
0.810271
0.902086
0.690855
0.76446
0.588207
0.649688
0.500806
0.552768
0.426495
0.470534
0.363461
0.40069
0.310362
0.34149
0.266504
0.291681
0.23243
0.250885
0.214183
0.229478
0.186867
0.202316
0.162083
0.176417
0.14023
0.153029
0.121167
0.132371
0.104697
0.11431
0.0907668
0.098563
0.0799134
0.0846123
0.0747609
0.0704408
0.0846284
0.0393883
0.120514
0.440447
0.222685
0.949686
0.507936
2.33775
2.02575
1.9519
1.93539
1.93177
16.3155
10.5192
11.198
8.44339
8.91152
7.07019
7.39396
6.01436
6.25267
5.21355
5.38276
4.75159
4.88858
4.1684
4.30315
3.62727
3.75194
3.14618
3.25739
2.72451
2.82213
2.35731
2.44246
2.0382
2.1126
1.7598
1.82667
1.51186
1.58393
1.26514
0.985818
1.04452
0.841875
0.879372
0.71559
0.745324
0.608695
0.633476
0.518075
0.539006
0.441132
0.458867
0.375878
0.390865
0.320857
0.333379
0.275269
0.285379
0.239486
0.246983
0.218421
0.224641
0.19165
0.197837
0.166666
0.172421
0.144379
0.149525
0.124833
0.129338
0.107892
0.111753
0.093512
0.0966195
0.0821878
0.0839487
0.076404
0.0739869
0.0854639
0.0633006
0.149556
0.407503
0.316564
0.882641
0.712352
2.11801
1.99599
1.94672
1.93429
1.93147
15.5479
11.0452
10.9827
8.74925
8.75841
7.26926
7.27409
6.16125
6.16287
5.32639
5.32943
4.81526
4.81776
4.23906
4.23883
3.69496
3.69513
3.20739
3.20773
2.77856
2.77894
2.40453
2.40491
2.07923
2.07966
1.7953
1.79621
1.54157
1.54541
1.27003
1.02391
1.02823
0.863874
0.864711
0.732584
0.732842
0.622727
0.622873
0.52989
0.529997
0.451146
0.45123
0.384375
0.38444
0.328051
0.328094
0.281306
0.281318
0.244407
0.244523
0.221268
0.221373
0.194867
0.194853
0.169772
0.169778
0.147201
0.147215
0.12733
0.127344
0.110075
0.11008
0.0954034
0.0953778
0.0838148
0.0836576
0.0778422
0.0769775
0.0876453
0.0828764
0.17173
0.388515
0.384163
0.845051
0.853731
1.95937
1.96331
1.94006
1.9328
1.93105
14.9604
11.3935
10.8543
8.9654
8.66524
7.40859
7.19894
6.26357
6.1066
5.40565
5.29679
4.85827
4.77019
4.28659
4.19625
3.74088
3.65784
3.24908
3.17526
2.81544
2.75074
2.43676
2.3804
2.10722
2.05811
1.81939
1.77597
1.56095
1.51807
1.27376
1.05198
1.01869
0.879268
0.85537
0.744286
0.724778
0.63235
0.615996
0.537984
0.524149
0.458004
0.446272
0.390198
0.380275
0.33299
0.324683
0.285472
0.278735
0.247848
0.243
0.223181
0.219171
0.197025
0.192873
0.171876
0.168039
0.14912
0.145702
0.129033
0.126042
0.111567
0.108996
0.0967097
0.0945986
0.0849865
0.0835936
0.0790832
0.0795076
0.0904449
0.098708
0.188788
0.378372
0.433152
0.825549
0.951231
1.84479
1.93173
1.93276
1.9311
1.93057
14.5156
11.6208
10.7798
9.11802
8.61034
7.50604
7.15283
6.33475
6.0721
5.46122
5.27735
4.88727
4.73845
4.3184
4.16828
3.77192
3.63358
3.27738
3.15424
2.84052
2.73252
2.4587
2.36456
2.12626
2.04414
1.83568
1.76261
1.57345
1.49879
1.27659
1.07252
1.0134
0.890043
0.84952
0.752328
0.719633
0.638933
0.611589
0.543514
0.520395
0.462688
0.443091
0.394177
0.377607
0.336371
0.322511
0.288341
0.27712
0.25025
0.242078
0.224465
0.217696
0.198465
0.191569
0.173295
0.166906
0.150421
0.14472
0.13019
0.125201
0.112585
0.108301
0.0976102
0.0941206
0.0858305
0.0836555
0.0801278
0.0816182
0.0933523
0.111268
0.201866
0.373622
0.468636
0.816716
1.01802
1.76248
1.90358
1.92557
1.92934
1.93006
14.1866
11.7658
10.7382
9.22447
8.57931
7.57345
7.12531
6.38372
6.05153
5.49973
5.26616
4.90662
4.71756
4.33941
4.15017
3.79265
3.61805
3.29636
3.14084
2.85737
2.72094
2.47345
2.3545
2.13905
2.03524
1.84655
1.75389
1.58138
1.48541
1.2787
1.08726
1.01067
0.897509
0.84594
0.757792
0.716411
0.643385
0.608814
0.547248
0.518028
0.46585
0.441084
0.396864
0.375928
0.33866
0.321153
0.290294
0.276133
0.251906
0.241535
0.225316
0.216722
0.199413
0.190721
0.17424
0.166177
0.151292
0.144094
0.130968
0.124666
0.113271
0.107864
0.0982241
0.093836
0.0864313
0.0837726
0.0809729
0.0833202
0.0960136
0.120921
0.211699
0.371943
0.493999
0.813754
1.06307
1.70431
1.8802
1.91911
1.92771
1.92958
13.9544
11.8552
10.716
9.2962
8.56271
7.61856
7.10954
6.41633
6.03975
5.52551
5.26001
4.91915
4.70424
4.35287
4.13879
3.80606
3.6084
3.30869
3.13256
2.86834
2.7138
2.48306
2.34831
2.14738
2.02973
1.85359
1.74837
1.58624
1.47647
1.2802
1.09741
1.00942
0.902515
0.843826
0.76139
0.714459
0.646302
0.607122
0.549691
0.516582
0.467918
0.439859
0.398623
0.374905
0.340161
0.320332
0.291582
0.275551
0.25301
0.241229
0.225865
0.216098
0.200019
0.190187
0.174851
0.165724
0.151858
0.143706
0.131474
0.124337
0.11372
0.107598
0.0986293
0.0936734
0.0868435
0.0838968
0.0816133
0.0846095
0.0981874
0.127941
0.218754
0.371791
0.511454
0.813609
1.09246
1.66475
1.86229
1.91386
1.92635
1.92917
13.8062
11.9062
10.705
9.34047
8.55454
7.64626
7.10114
6.43627
6.03349
5.54135
5.25688
4.92666
4.69639
4.36084
4.13217
3.81407
3.60284
3.3161
3.12782
2.87494
2.70972
2.48884
2.34476
2.15239
2.02658
1.8578
1.74513
1.58901
1.471
1.28117
1.10377
1.00893
0.905595
0.842666
0.763571
0.713359
0.648064
0.606163
0.551165
0.515761
0.469166
0.439163
0.399684
0.374325
0.341067
0.319871
0.292364
0.275232
0.253685
0.241068
0.226191
0.215729
0.200377
0.189875
0.175215
0.165462
0.152197
0.143483
0.131777
0.124149
0.113989
0.107448
0.0988756
0.0935873
0.0871018
0.0839957
0.0820438
0.0854767
0.0997153
0.132519
0.22332
0.372175
0.522409
0.814397
1.1101
1.64018
1.85022
1.91017
1.92538
1.92888
13.734
11.9292
10.7006
9.36161
8.55127
7.65945
7.09754
6.44574
6.0308
5.54889
5.25559
4.93017
4.69275
4.36455
4.12913
3.81782
3.6003
3.31956
3.12566
2.87803
2.70787
2.49155
2.34316
2.15474
2.02514
1.85976
1.74364
1.59027
1.4684
1.28164
1.10684
1.00878
0.907064
0.842156
0.7646
0.712866
0.648893
0.605731
0.551858
0.515391
0.469752
0.43885
0.400183
0.374064
0.341494
0.319664
0.292733
0.275091
0.254006
0.241
0.226344
0.215558
0.200543
0.189732
0.175385
0.165342
0.152355
0.143382
0.13192
0.124064
0.114116
0.10738
0.0989919
0.0935505
0.0872262
0.0840498
0.0822602
0.0859129
0.100502
0.134779
0.225566
0.372505
0.527695
0.815037
1.11837
1.62841
1.84416
1.90827
1.92487
1.92873
-13.6272
-11.9381
-10.8749
-9.86344
-9.31983
-8.81704
-8.53923
-8.26814
-8.11765
-7.96897
-7.86645
-7.73073
-7.63512
-7.51053
-7.42362
-7.31137
-7.2333
-7.13274
-7.06296
-6.97331
-6.91128
-6.83185
-6.77708
-6.70715
-6.65894
-6.59731
-6.55412
-6.49726
-6.45252
-6.38465
-6.32194
-6.28732
-6.25226
-6.23031
-6.20465
-6.18783
-6.16747
-6.15397
-6.13746
-6.12648
-6.11302
-6.10407
-6.0931
-6.08584
-6.07698
-6.07117
-6.06417
-6.0597
-6.05451
-6.05139
-6.04804
-6.0457
-6.04263
-6.04061
-6.03823
-6.03687
-6.03559
-6.0352
-6.03547
-6.03648
-6.03904
-6.04219
-6.04839
-6.05515
-6.0678
-6.08158
-6.10774
-6.1389
-6.20303
-6.29657
-6.50816
-6.80188
-7.06446
-7.5016
-7.91884
-8.58245
-8.86184
-8.94476
-8.96621
-8.97121
-13.6948
-11.913
-10.8728
-9.84473
-9.3182
-8.80804
-8.53896
-8.26332
-8.11758
-7.96712
-7.86778
-7.72913
-7.63628
-7.50903
-7.42463
-7.31
-7.2342
-7.13151
-7.06376
-6.9722
-6.91198
-6.83087
-6.77768
-6.70628
-6.65948
-6.59657
-6.55466
-6.49678
-6.45345
-6.38444
-6.32081
-6.28734
-6.25174
-6.23046
-6.20429
-6.18798
-6.16719
-6.15409
-6.13724
-6.12658
-6.11284
-6.10415
-6.09296
-6.0859
-6.07686
-6.07122
-6.06407
-6.05973
-6.05442
-6.0514
-6.048
-6.04573
-6.04259
-6.04063
-6.03819
-6.03687
-6.03555
-6.03517
-6.03544
-6.03641
-6.03901
-6.04207
-6.04837
-6.05492
-6.06775
-6.08109
-6.10754
-6.13758
-6.20186
-6.29185
-6.50487
-6.80312
-7.05748
-7.50239
-7.90899
-8.59782
-8.8697
-8.94722
-8.96687
-8.97141
-13.8336
-11.8583
-10.8703
-9.80595
-9.31591
-8.7894
-8.53895
-8.2533
-8.1177
-7.96323
-7.87068
-7.7257
-7.63881
-7.50581
-7.42685
-7.30708
-7.23617
-7.12888
-7.0655
-6.96984
-6.91351
-6.82877
-6.77902
-6.70443
-6.66066
-6.59499
-6.55585
-6.49571
-6.4554
-6.38402
-6.31848
-6.28744
-6.25064
-6.2308
-6.20354
-6.1883
-6.16661
-6.15436
-6.13677
-6.1268
-6.11245
-6.10433
-6.09264
-6.08605
-6.0766
-6.07133
-6.06386
-6.0598
-6.05425
-6.05143
-6.04791
-6.04579
-6.0425
-6.04066
-6.0381
-6.03687
-6.03548
-6.03512
-6.03538
-6.03629
-6.03897
-6.04181
-6.04833
-6.05443
-6.06768
-6.08007
-6.1072
-6.13489
-6.19965
-6.2822
-6.49818
-6.80612
-7.04287
-7.50472
-7.88785
-8.62987
-8.88534
-8.95199
-8.96814
-8.97179
-14.0515
-11.7641
-10.8708
-9.74421
-9.31509
-8.75972
-8.54036
-8.23728
-8.11857
-7.95687
-7.87568
-7.71994
-7.64319
-7.50042
-7.43071
-7.30221
-7.23961
-7.1245
-7.06854
-6.96591
-6.91618
-6.82526
-6.78135
-6.70134
-6.66271
-6.59236
-6.55788
-6.49385
-6.45859
-6.38336
-6.31477
-6.28777
-6.24886
-6.23144
-6.20231
-6.18888
-6.16565
-6.15484
-6.13599
-6.1272
-6.11182
-6.10465
-6.09213
-6.08631
-6.07618
-6.07152
-6.06351
-6.05992
-6.05396
-6.05148
-6.04777
-6.0459
-6.04235
-6.04073
-6.03797
-6.03687
-6.03536
-6.03504
-6.0353
-6.03609
-6.03892
-6.04141
-6.04832
-6.05366
-6.06765
-6.07846
-6.10684
-6.13072
-6.19674
-6.26722
-6.48781
-6.81197
-7.01926
-7.5102
-7.85235
-8.68138
-8.90853
-8.95879
-8.9699
-8.97232
-14.3608
-11.6142
-10.8806
-9.65456
-9.31931
-8.71659
-8.54511
-8.21389
-8.12116
-7.94729
-7.88366
-7.71102
-7.65022
-7.49212
-7.43692
-7.2947
-7.24514
-7.11775
-7.07345
-6.95986
-6.92049
-6.81988
-6.78512
-6.6966
-6.66604
-6.58828
-6.56108
-6.49084
-6.46339
-6.38244
-6.3094
-6.28858
-6.24623
-6.23255
-6.20046
-6.18985
-6.16419
-6.15565
-6.13481
-6.12786
-6.11086
-6.10519
-6.09134
-6.08674
-6.07554
-6.07185
-6.06299
-6.06014
-6.05354
-6.05159
-6.04755
-6.04608
-6.04213
-6.04083
-6.03776
-6.03689
-6.0352
-6.03494
-6.03519
-6.03581
-6.03889
-6.04084
-6.04836
-6.05254
-6.06775
-6.07615
-6.10665
-6.12487
-6.19364
-6.24624
-6.47329
-6.8225
-6.98431
-7.52163
-7.79738
-8.75696
-8.93879
-8.96715
-8.97202
-8.97294
-14.7801
-11.3837
-10.9102
-9.52928
-9.33424
-8.65622
-8.55625
-8.18096
-8.127
-7.93329
-7.896
-7.69763
-7.66113
-7.4797
-7.44661
-7.28348
-7.25378
-7.10767
-7.08113
-6.95085
-6.92726
-6.81187
-6.79104
-6.68954
-6.67125
-6.58219
-6.56601
-6.48612
-6.47032
-6.3812
-6.30194
-6.29025
-6.24245
-6.2344
-6.19774
-6.19142
-6.16205
-6.15695
-6.13308
-6.12892
-6.10945
-6.10606
-6.09018
-6.08743
-6.07459
-6.07238
-6.06222
-6.06052
-6.05293
-6.05177
-6.04723
-6.04636
-6.0418
-6.04101
-6.03747
-6.03694
-6.03498
-6.03482
-6.03508
-6.03543
-6.0389
-6.04004
-6.04855
-6.05098
-6.06812
-6.07295
-6.10696
-6.11699
-6.1912
-6.21828
-6.45389
-6.84052
-6.93433
-7.54352
-7.71505
-8.86366
-8.97519
-8.97645
-8.97429
-8.9736
-15.3351
-11.0363
-10.976
-9.35657
-9.36848
-8.57273
-8.57841
-8.13517
-8.13843
-7.91304
-7.91478
-7.67777
-7.67784
-7.46135
-7.4615
-7.26693
-7.26709
-7.09281
-7.09296
-6.93757
-6.9377
-6.80007
-6.80019
-6.67916
-6.6793
-6.57318
-6.57349
-6.47883
-6.48019
-6.37957
-6.29177
-6.29336
-6.23707
-6.23739
-6.19381
-6.19391
-6.15894
-6.159
-6.13056
-6.1306
-6.10739
-6.10742
-6.0885
-6.08853
-6.07322
-6.07324
-6.06112
-6.06112
-6.05207
-6.05209
-6.04677
-6.04679
-6.04131
-6.0413
-6.03706
-6.03705
-6.03469
-6.03468
-6.03496
-6.03493
-6.03901
-6.03895
-6.04897
-6.04883
-6.06898
-6.06858
-6.10823
-6.10654
-6.19064
-6.18197
-6.42845
-6.87025
-6.86375
-7.58292
-7.59364
-9.01184
-9.01601
-8.98589
-8.9765
-8.97424
-16.0622
-10.5194
-11.1042
-9.11861
-9.43503
-8.45718
-8.61852
-8.07153
-8.159
-7.88371
-7.94312
-7.64842
-7.70322
-7.43433
-7.48418
-7.24258
-7.28737
-7.07098
-7.11101
-6.91806
-6.95364
-6.78276
-6.81419
-6.66392
-6.69159
-6.55991
-6.58477
-6.4677
-6.49413
-6.37743
-6.27803
-6.29879
-6.22944
-6.24213
-6.18814
-6.19781
-6.15443
-6.16218
-6.1269
-6.13321
-6.10441
-6.10954
-6.08607
-6.09024
-6.07124
-6.07458
-6.05953
-6.06209
-6.05084
-6.05263
-6.04609
-6.04744
-6.04061
-6.04176
-6.03648
-6.03725
-6.03431
-6.03453
-6.03485
-6.03426
-6.03928
-6.03745
-6.0498
-6.04587
-6.07067
-6.06262
-6.11115
-6.09266
-6.19379
-6.13547
-6.39519
-6.91792
-6.76413
-7.65066
-7.41594
-9.21658
-9.05819
-8.9945
-8.97843
-8.97479
-17.0109
-9.75732
-11.3352
-8.78857
-9.55335
-8.29606
-8.68697
-7.9825
-8.19409
-7.84099
-7.98562
-7.6051
-7.74154
-7.39457
-7.51852
-7.20679
-7.3181
-7.03889
-7.13838
-6.88942
-6.97785
-6.75736
-6.83545
-6.64157
-6.71026
-6.54038
-6.60172
-6.45084
-6.5138
-6.37459
-6.25948
-6.30782
-6.21852
-6.24954
-6.17992
-6.20382
-6.14787
-6.16709
-6.12158
-6.13722
-6.10006
-6.11281
-6.08252
-6.09287
-6.06837
-6.07665
-6.05724
-6.06362
-6.04909
-6.0535
-6.04509
-6.04841
-6.03959
-6.04248
-6.03565
-6.0376
-6.0338
-6.03438
-6.03477
-6.03336
-6.03983
-6.03539
-6.05128
-6.04177
-6.07367
-6.05439
-6.11675
-6.074
-6.20331
-6.07624
-6.35141
-6.99265
-6.6229
-7.76324
-7.15681
-9.49968
-9.09659
-9.0012
-8.97987
-8.97519
-18.2498
-8.64201
-11.7312
-8.32606
-9.75255
-8.06902
-8.79923
-7.85684
-8.25176
-7.77835
-8.04912
-7.54109
-7.79919
-7.33596
-7.57029
-7.15407
-7.36444
-6.99165
-7.17968
-6.84728
-7.01442
-6.72001
-6.86759
-6.60872
-6.73848
-6.5116
-6.62717
-6.42542
-6.54156
-6.37079
-6.2344
-6.32236
-6.20279
-6.26098
-6.16795
-6.21303
-6.13831
-6.17459
-6.11381
-6.14334
-6.09372
-6.1178
-6.07735
-6.0969
-6.06418
-6.07984
-6.05391
-6.06598
-6.04658
-6.05488
-6.04363
-6.04987
-6.0381
-6.04359
-6.03448
-6.03818
-6.03312
-6.03423
-6.03477
-6.03216
-6.04081
-6.03251
-6.05378
-6.036
-6.07871
-6.0429
-6.12655
-6.04846
-6.22309
-6.00092
-6.29299
-7.10782
-6.42127
-7.9457
-6.77972
-9.89262
-9.12268
-9.00494
-8.98063
-8.9754
)
;

boundaryField
{
    F1_1
    {
        type            calculated;
        value           nonuniform List<scalar> 
80
(
18.9521
7.97351
11.9797
8.04123
9.87617
7.9052
8.86825
7.71541
8.2893
7.55214
7.90394
7.49029
7.75925
7.28782
7.55977
7.11131
7.36645
6.95436
7.18719
6.81488
7.0241
6.69193
6.87779
6.58445
6.74844
6.49065
6.63693
6.4071
6.55329
6.36589
6.2185
6.32888
6.19219
6.26601
6.15978
6.21709
6.13176
6.1779
6.10849
6.14605
6.08938
6.12001
6.07382
6.09869
6.06132
6.08124
6.05162
6.06699
6.04483
6.05539
6.04251
6.05043
6.03702
6.04399
6.03362
6.03832
6.03259
6.03398
6.03468
6.03131
6.04134
6.03071
6.05526
6.03253
6.08179
6.0361
6.13268
6.03358
6.23608
5.95869
6.25946
7.17747
6.3025
8.05814
6.55623
10.1212
9.13131
9.00593
8.98081
8.97544
)
;
    }
    F1_2
    {
        type            calculated;
        value           nonuniform List<scalar> 
80
(
-19.3551
-7.88178
-12.4663
-7.01928
-9.77889
-6.12801
-8.04949
-5.31489
-6.744
-4.68432
-5.68451
-4.43295
-5.24242
-3.81508
-4.63197
-3.29288
-4.04558
-2.8453
-3.51529
-2.45937
-3.04696
-2.12587
-2.63802
-1.83692
-2.2837
-1.58445
-1.98202
-1.35732
-1.75876
-1.24499
-0.823737
-1.14004
-0.737464
-0.957949
-0.633241
-0.811128
-0.540352
-0.689125
-0.460435
-0.586218
-0.392268
-0.498891
-0.334438
-0.424591
-0.285866
-0.361277
-0.246136