/*--------------------------------*- C++ -*----------------------------------*\
| =========                 |                                                 |
| \\      /  F ield         | OpenFOAM: The Open Source CFD Toolbox           |
|  \\    /   O peration     | Version:  5.x                                   |
|   \\  /    A nd           | Web:      www.OpenFOAM.org                      |
|    \\/     M anipulation  |                                                 |
\*---------------------------------------------------------------------------*/
FoamFile
{
    version     2.0;
    format      ascii;
    class       volScalarField;
    location    "4.2";
    object      T;
}
// * * * * * * * * * * * * * * * * * * * * * * * * * * * * * * * * * * * * * //

dimensions      [0 0 0 1 0 0 0];

internalField   nonuniform List<scalar> 
3200
(
2.08494
2.43612
2.45615
2.60099
2.61017
2.68248
2.68729
2.72913
2.732
2.7585
2.76026
2.77557
2.77691
2.79362
2.79498
2.81093
2.8122
2.82687
2.82803
2.84129
2.84233
2.85417
2.85509
2.86555
2.86637
2.87557
2.8763
2.88458
2.88531
2.89409
2.9018
2.90235
2.90733
2.9077
2.9115
2.91179
2.91484
2.91507
2.91755
2.91773
2.91976
2.91991
2.92156
2.92168
2.92302
2.92311
2.92417
2.92425
2.92503
2.92509
2.92556
2.9256
2.92607
2.92611
2.92647
2.9265
2.9267
2.92671
2.92667
2.92666
2.92629
2.92624
2.92534
2.92523
2.92343
2.9232
2.91961
2.91912
2.91122
2.90983
2.88736
2.84814
2.84377
2.78003
2.77252
2.65328
2.64833
2.6477
2.64758
2.64755
2.26041
2.5291
2.57095
2.68683
2.7064
2.76423
2.77449
2.80785
2.81395
2.83501
2.83875
2.85103
2.85389
2.86712
2.87
2.88263
2.88533
2.89695
2.89942
2.90993
2.91214
2.92152
2.92349
2.93178
2.93352
2.94081
2.94236
2.94895
2.95052
2.95779
2.96427
2.96546
2.96943
2.97022
2.97324
2.97385
2.97627
2.97676
2.97872
2.97912
2.98073
2.98105
2.98236
2.98262
2.98368
2.98389
2.98473
2.98489
2.98551
2.98562
2.986
2.98609
2.98646
2.98653
2.98682
2.98687
2.98703
2.98705
2.98702
2.98698
2.98669
2.98658
2.98587
2.98562
2.98418
2.9837
2.98082
2.97975
2.97332
2.97026
2.95062
2.91852
2.90917
2.85836
2.84255
2.74992
2.73947
2.73774
2.73738
2.7373
2.42514
2.63115
2.6828
2.77652
2.80111
2.84788
2.86077
2.88765
2.8953
2.91221
2.91691
2.92687
2.93045
2.94102
2.94462
2.95472
2.9581
2.9674
2.97049
2.97889
2.98167
2.98917
2.99164
2.99827
3.00044
3.00629
3.00823
3.01353
3.01551
3.02153
3.02695
3.02846
3.03167
3.03265
3.03508
3.03584
3.03778
3.03839
3.03996
3.04046
3.04175
3.04215
3.0432
3.04353
3.04437
3.04464
3.04531
3.04551
3.04601
3.04615
3.04646
3.04656
3.04686
3.04695
3.04718
3.04725
3.04737
3.04739
3.04737
3.04732
3.04709
3.04694
3.04637
3.04606
3.0449
3.04429
3.04195
3.0406
3.03528
3.03135
3.01439
2.988
2.97623
2.93529
2.91565
2.84327
2.83026
2.82773
2.82717
2.82705
2.58162
2.73938
2.79296
2.86898
2.89493
2.93289
2.94649
2.96822
2.97628
2.9899
2.99486
3.00296
3.00674
3.01521
3.01899
3.02709
3.03064
3.0381
3.04134
3.04809
3.051
3.05703
3.05961
3.06494
3.06722
3.07192
3.07396
3.07824
3.08033
3.08529
3.08979
3.09139
3.09399
3.09503
3.09698
3.09778
3.09934
3.09998
3.10124
3.10177
3.1028
3.10323
3.10407
3.10441
3.10509
3.10537
3.10591
3.10612
3.10652
3.10667
3.10692
3.10703
3.10727
3.10736
3.10755
3.10761
3.10771
3.10773
3.10772
3.10767
3.10748
3.10733
3.10686
3.10654
3.1056
3.10495
3.10304
3.1016
3.09719
3.09297
3.07853
3.05688
3.04445
3.01137
2.99087
2.93425
2.92063
2.91763
2.91695
2.9168
2.7318
2.85178
2.90222
2.96344
2.98826
3.01888
3.03188
3.04934
3.05704
3.06794
3.07268
3.07923
3.08284
3.08958
3.09318
3.09964
3.10302
3.10897
3.11205
3.11744
3.12021
3.12502
3.12748
3.13173
3.13391
3.13765
3.1396
3.14303
3.14503
3.14906
3.15274
3.15428
3.15638
3.15737
3.15893
3.15969
3.16093
3.16155
3.16256
3.16306
3.16388
3.16429
3.16496
3.16529
3.16583
3.16609
3.16652
3.16673
3.16704
3.16719
3.16739
3.16749
3.16768
3.16777
3.16792
3.16798
3.16806
3.16808
3.16806
3.16802
3.16786
3.16772
3.16735
3.16704
3.16628
3.16566
3.16411
3.16273
3.15909
3.15499
3.14295
3.1254
3.1135
3.08695
3.06753
3.02351
3.01058
3.00744
3.0067
3.00654
2.87717
2.96696
3.01105
3.05935
3.08137
3.10556
3.1171
3.13085
3.13766
3.14623
3.15042
3.15561
3.15881
3.16408
3.16726
3.17231
3.17529
3.17995
3.18268
3.18689
3.18934
3.1931
3.19528
3.1986
3.20053
3.20346
3.20519
3.20788
3.20966
3.21285
3.21578
3.21715
3.21881
3.21968
3.22091
3.22158
3.22256
3.2231
3.22389
3.22433
3.22497
3.22533
3.22586
3.22615
3.22658
3.22681
3.22715
3.22733
3.22757
3.2277
3.22786
3.22795
3.2281
3.22818
3.22829
3.22835
3.22841
3.22843
3.22841
3.22837
3.22825
3.22812
3.22783
3.22756
3.22696
3.2264
3.22518
3.22394
3.22101
3.21733
3.2076
3.19369
3.18314
3.16224
3.14517
3.11152
3.10014
3.09716
3.09643
3.09627
3.01895
3.08397
3.11971
3.15632
3.17439
3.19276
3.20222
3.21263
3.21822
3.22469
3.22813
3.23208
3.23469
3.23866
3.24126
3.24506
3.2475
3.25101
3.25324
3.25641
3.25842
3.26125
3.26303
3.26553
3.26711
3.26932
3.27073
3.27277
3.27423
3.27665
3.27889
3.28001
3.28127
3.28199
3.28291
3.28346
3.2842
3.28464
3.28524
3.2856
3.28608
3.28638
3.28677
3.28701
3.28733
3.28752
3.28777
3.28792
3.28811
3.28821
3.28833
3.28841
3.28852
3.28859
3.28867
3.28872
3.28876
3.28878
3.28877
3.28873
3.28864
3.28853
3.28831
3.28809
3.28763
3.28718
3.28624
3.28522
3.28296
3.27991
3.27242
3.26185
3.25319
3.23738
3.22347
3.19865
3.18936
3.18679
3.18614
3.186
3.15814
3.20214
3.22834
3.25403
3.2674
3.28031
3.28731
3.29461
3.29874
3.30327
3.30581
3.30859
3.31053
3.31329
3.31521
3.31787
3.31967
3.32212
3.32376
3.32598
3.32746
3.32944
3.33075
3.3325
3.33366
3.33521
3.33625
3.33768
3.33876
3.34046
3.34203
3.34287
3.34375
3.34428
3.34493
3.34533
3.34585
3.34617
3.34659
3.34686
3.3472
3.34741
3.34769
3.34787
3.34809
3.34823
3.34841
3.34852
3.34865
3.34872
3.34881
3.34886
3.34894
3.34899
3.34905
3.34908
3.34912
3.34912
3.34912
3.34909
3.34903
3.34895
3.34879
3.34863
3.34831
3.34797
3.34731
3.34655
3.34495
3.34268
3.33736
3.32993
3.32352
3.31245
3.30221
3.28515
3.27831
3.27634
3.27583
3.27572
3.29556
3.32103
3.33698
3.35223
3.36042
3.3681
3.37239
3.37672
3.37925
3.38193
3.38349
3.38514
3.38633
3.38796
3.38914
3.39071
3.39181
3.39326
3.39427
3.39558
3.39648
3.39765
3.39846
3.39949
3.4002
3.40112
3.40176
3.4026
3.40326
3.40427
3.40521
3.40572
3.40624
3.40657
3.40695
3.4072
3.40751
3.40771
3.40795
3.40812
3.40832
3.40845
3.40861
3.40872
3.40885
3.40894
3.40904
3.40911
3.40919
3.40923
3.40928
3.40932
3.40936
3.40939
3.40943
3.40945
3.40947
3.40947
3.40947
3.40945
3.40942
3.40937
3.40928
3.40917
3.40898
3.40878
3.40839
3.40792
3.40696
3.40556
3.40238
3.39797
3.39404
3.38748
3.38123
3.37124
3.36706
3.36583
3.36551
3.36543
3.43196
3.4403
3.44566
3.45071
3.45347
3.45602
3.45746
3.4589
3.45975
3.46064
3.46116
3.46171
3.46211
3.46265
3.46305
3.46357
3.46394
3.46442
3.46476
3.46519
3.4655
3.46588
3.46615
3.4665
3.46674
3.46704
3.46725
3.46753
3.46776
3.46809
3.4684
3.46857
3.46875
3.46886
3.46898
3.46907
3.46917
3.46924
3.46932
3.46937
3.46944
3.46948
3.46954
3.46957
3.46962
3.46965
3.46968
3.4697
3.46973
3.46974
3.46976
3.46977
3.46979
3.4698
3.46981
3.46982
3.46982
3.46982
3.46982
3.46982
3.46981
3.46979
3.46976
3.46972
3.46966
3.46959
3.46946
3.4693
3.46898
3.46851
3.46746
3.46599
3.46467
3.46249
3.46039
3.45711
3.4557
3.45528
3.45517
3.45514
3.43142
3.44033
3.4465
3.45317
3.45725
3.46169
3.46452
3.46776
3.46985
3.47225
3.47372
3.47534
3.47654
3.47817
3.47936
3.48091
3.482
3.4834
3.48437
3.48561
3.48646
3.48754
3.48829
3.48922
3.48988
3.4907
3.49128
3.49205
3.49266
3.49359
3.49446
3.49496
3.49546
3.49579
3.49618
3.49644
3.49675
3.49697
3.49724
3.49742
3.49765
3.49781
3.498
3.49813
3.49829
3.4984
3.49854
3.49862
3.49873
3.4988
3.49887
3.49892
3.499
3.49905
3.49912
3.49917
3.49924
3.49928
3.49934
3.49938
3.49943
3.49946
3.4995
3.49953
3.49956
3.49958
3.49959
3.49957
3.4995
3.49932
3.49887
3.49814
3.49736
3.49592
3.4944
3.49187
3.49079
3.49046
3.49038
3.49036
3.2939
3.32109
3.33949
3.3596
3.37173
3.38512
3.39353
3.40333
3.40954
3.41678
3.42116
3.42605
3.4296
3.43454
3.43806
3.44274
3.44599
3.45021
3.45311
3.45683
3.45938
3.46263
3.46485
3.46768
3.46962
3.47211
3.47384
3.47615
3.47797
3.48078
3.4834
3.48487
3.4864
3.48737
3.48853
3.48931
3.49027
3.49091
3.49172
3.49227
3.49295
3.49342
3.494
3.49439
3.49488
3.4952
3.49561
3.49587
3.49619
3.49638
3.49661
3.49677
3.49699
3.49715
3.49737
3.49752
3.49771
3.49785
3.49802
3.49814
3.49829
3.49839
3.49852
3.4986
3.49869
3.49874
3.49877
3.49871
3.49849
3.49798
3.49662
3.49441
3.49209
3.48778
3.48323
3.47556
3.47233
3.47137
3.47113
3.47107
3.15529
3.2022
3.2324
3.26636
3.28616
3.30876
3.32249
3.33903
3.34918
3.36142
3.36859
3.37681
3.38261
3.39096
3.39671
3.40463
3.40995
3.41708
3.42182
3.42811
3.43227
3.43776
3.44139
3.44618
3.44934
3.45354
3.45638
3.46027
3.46324
3.46797
3.47239
3.47478
3.47735
3.47894
3.4809
3.48217
3.48379
3.48485
3.48622
3.48711
3.48827
3.48902
3.49
3.49064
3.49147
3.492
3.49269
3.49312
3.49366
3.49397
3.49434
3.49461
3.49499
3.49525
3.49562
3.49586
3.49619
3.49641
3.4967
3.4969
3.49715
3.49731
3.49753
3.49766
3.49782
3.4979
3.49795
3.49786
3.4975
3.49667
3.4944
3.49069
3.48691
3.47964
3.4722
3.45907
3.45378
3.45226
3.45187
3.45178
3.01481
3.08398
3.12517
3.17368
3.20047
3.23275
3.25134
3.275
3.28874
3.30627
3.31596
3.32767
3.33552
3.34748
3.35528
3.36662
3.37382
3.38404
3.39046
3.39947
3.4051
3.41297
3.41788
3.42473
3.42903
3.43503
3.43888
3.44442
3.44844
3.45517
3.46145
3.46468
3.46835
3.47049
3.4733
3.47502
3.47734
3.47877
3.48073
3.48194
3.4836
3.48462
3.48603
3.48689
3.48808
3.4888
3.48978
3.49036
3.49113
3.49156
3.49209
3.49244
3.49299
3.49335
3.49387
3.49421
3.49468
3.49498
3.49539
3.49565
3.49601
3.49624
3.49654
3.49672
3.49695
3.49706
3.49713
3.49702
3.49653
3.49542
3.49224
3.48698
3.48186
3.4715
3.46139
3.44227
3.43509
3.4331
3.4326
3.43249
2.87156
2.96689
3.01764
3.08187
3.11457
3.15729
3.17999
3.21136
3.22815
3.25143
3.26326
3.27868
3.28826
3.30417
3.31371
3.32877
3.33758
3.35115
3.359
3.37096
3.37785
3.38829
3.3943
3.4034
3.40864
3.41661
3.4213
3.42864
3.43353
3.44239
3.45064
3.45456
3.4594
3.46202
3.46575
3.46784
3.47093
3.47267
3.47527
3.47675
3.47895
3.4802
3.48207
3.48313
3.4847
3.48558
3.48688
3.4876
3.48862
3.48914
3.48984
3.49027
3.491
3.49144
3.49213
3.49254
3.49317
3.49353
3.49409
3.4944
3.49488
3.49516
3.49556
3.49578
3.49609
3.49622
3.49633
3.49619
3.49558
3.49425
3.49017
3.48325
3.47703
3.46336
3.45094
3.42498
3.41618
3.41388
3.41332
3.41319
2.7245
2.85157
2.90957
2.99132
3.02827
3.08263
3.10829
3.1483
3.1673
3.19704
3.21042
3.22992
3.24075
3.26111
3.27192
3.29118
3.30115
3.31849
3.32738
3.34266
3.35045
3.3638
3.37059
3.38221
3.38814
3.39832
3.40362
3.41295
3.41847
3.42964
3.44
3.44441
3.45054
3.4535
3.45826
3.46062
3.46456
3.46654
3.46986
3.47153
3.47434
3.47576
3.47814
3.47934
3.48135
3.48235
3.48401
3.48482
3.48613
3.48672
3.4876
3.48809
3.48902
3.48952
3.49041
3.49087
3.49167
3.49208
3.49279
3.49315
3.49376
3.49407
3.49459
3.49484
3.49524
3.49539
3.49553
3.49539
3.49466
3.4932
3.48821
3.4795
3.47249
3.45517
3.44103
3.40702
3.39701
3.39459
3.39401
3.39389
2.57235
2.73902
2.80055
2.90256
2.94127
3.00912
3.03601
3.08609
3.10602
3.14331
3.15733
3.18151
3.19286
3.21844
3.22979
3.25396
3.26443
3.28617
3.2955
3.31465
3.32284
3.33956
3.34669
3.36125
3.36748
3.38022
3.38578
3.39742
3.40317
3.41692
3.4296
3.43419
3.44182
3.44491
3.45086
3.45335
3.45828
3.46035
3.46451
3.46626
3.46979
3.47128
3.47426
3.47552
3.47804
3.47909
3.48117
3.48202
3.48366
3.48428
3.48537
3.48589
3.48706
3.48758
3.4887
3.48918
3.49019
3.49062
3.4915
3.49188
3.49265
3.49298
3.49363
3.49389
3.49439
3.49455
3.49475
3.4946
3.49377
3.49228
3.48639
3.47569
3.46836
3.44685
3.43191
3.38809
3.37755
3.37522
3.3747
3.37458
2.41354
2.63067
2.68992
2.81633
2.8531
2.93725
2.9628
3.02508
3.04404
3.09051
3.10383
3.13362
3.1444
3.17633
3.18714
3.21728
3.22725
3.25434
3.26322
3.28709
3.29488
3.31571
3.3225
3.34062
3.34655
3.36242
3.3677
3.38212
3.38756
3.40424
3.41952
3.42385
3.43327
3.43621
3.44361
3.44597
3.45211
3.45408
3.45926
3.46093
3.46532
3.46673
3.47045
3.47165
3.47479
3.47579
3.47839
3.47919
3.48124
3.48183
3.48317
3.48366
3.48513
3.48562
3.48701
3.48747
3.48873
3.48914
3.49024
3.4906
3.49156
3.49187
3.49268
3.49293
3.49356
3.49372
3.49397
3.49385
3.49291
3.49154
3.48477
3.47173
3.46481
3.43827
3.42395
3.36783
3.35775
3.35579
3.35536
3.35527
2.24604
2.52863
2.57659
2.73369
2.76304
2.86772
2.88813
2.9658
2.98096
3.03904
3.04967
3.08648
3.09509
3.13507
3.14372
3.18141
3.18939
3.22324
3.23035
3.26016
3.26639
3.29241
3.29784
3.32049
3.32523
3.34503
3.34925
3.36718
3.37149
3.39162
3.40989
3.4133
3.42498
3.42732
3.43655
3.43844
3.44611
3.44768
3.45415
3.45548
3.46097
3.4621
3.46675
3.4677
3.47162
3.47242
3.47567
3.47632
3.47887
3.47934
3.48101
3.4814
3.48323
3.48363
3.48536
3.48573
3.4873
3.48763
3.48901
3.4893
3.4905
3.49074
3.49176
3.49196
3.49275
3.49287
3.49322
3.49312
3.49206
3.49101
3.4834
3.46754
3.46203
3.4292
3.41766
3.34573
3.33763
3.33629
3.33601
3.33595
2.06724
2.43598
2.4589
2.65616
2.66996
2.80156
2.81117
2.90902
2.91617
2.98947
2.99447
3.04048
3.04452
3.09506
3.09914
3.14673
3.15049
3.19322
3.19657
3.23418
3.23712
3.26994
3.2725
3.30106
3.3033
3.32826
3.33025
3.35279
3.3548
3.37907
3.40084
3.40242
3.41706
3.41816
3.42979
3.43068
3.44034
3.44109
3.44925
3.44987
3.45679
3.45732
3.46319
3.46364
3.46858
3.46896
3.47306
3.47336
3.47659
3.47681
3.47889
3.47907
3.48139
3.48158
3.48377
3.48394
3.48592
3.48608
3.48782
3.48795
3.48947
3.48958
3.49087
3.49096
3.49196
3.49202
3.49248
3.49244
3.49122
3.49075
3.48236
3.46293
3.46035
3.41928
3.41379
3.32108
3.31724
3.31675
3.31665
3.31663
2.06724
2.43598
2.4589
2.65616
2.66996
2.80156
2.81116
2.90902
2.91617
2.98947
2.99447
3.04047
3.04452
3.09506
3.09914
3.14673
3.15049
3.19322
3.19657
3.23418
3.23712
3.26994
3.2725
3.30106
3.3033
3.32826
3.33025
3.35279
3.3548
3.37907
3.40084
3.40242
3.41706
3.41816
3.42979
3.43068
3.44034
3.44109
3.44924
3.44987
3.45679
3.45732
3.46319
3.46364
3.46858
3.46896
3.47305
3.47336
3.47659
3.47681
3.47889
3.47907
3.48139
3.48158
3.48377
3.48394
3.48592
3.48608
3.48782
3.48795
3.48947
3.48958
3.49087
3.49096
3.49196
3.49202
3.49248
3.49244
3.49122
3.49075
3.48236
3.46293
3.46035
3.41927
3.41379
3.32107
3.31723
3.31675
3.31665
3.31663
2.24604
2.52863
2.57659
2.73369
2.76304
2.86772
2.88813
2.9658
2.98096
3.03904
3.04967
3.08648
3.09509
3.13507
3.14372
3.18141
3.18939
3.22324
3.23035
3.26016
3.26639
3.29241
3.29784
3.32049
3.32523
3.34503
3.34925
3.36718
3.37149
3.39162
3.40989
3.4133
3.42498
3.42732
3.43655
3.43844
3.4461
3.44768
3.45415
3.45548
3.46097
3.4621
3.46675
3.4677
3.47162
3.47242
3.47567
3.47632
3.47887
3.47934
3.48101
3.4814
3.48323
3.48363
3.48536
3.48573
3.4873
3.48763
3.48901
3.4893
3.49049
3.49074
3.49176
3.49196
3.49275
3.49287
3.49322
3.49312
3.49206
3.49101
3.4834
3.46754
3.46203
3.4292
3.41766
3.34573
3.33762
3.33629
3.33601
3.33595
2.41354
2.63067
2.68992
2.81633
2.8531
2.93725
2.9628
3.02508
3.04404
3.09051
3.10383
3.13362
3.1444
3.17633
3.18714
3.21728
3.22725
3.25434
3.26322
3.28708
3.29487
3.3157
3.3225
3.34062
3.34655
3.36241
3.3677
3.38212
3.38756
3.40424
3.41952
3.42385
3.43327
3.43621
3.44361
3.44597
3.45211
3.45408
3.45926
3.46093
3.46532
3.46673
3.47045
3.47165
3.47479
3.47579
3.47838
3.47919
3.48124
3.48183
3.48317
3.48366
3.48513
3.48562
3.48701
3.48747
3.48873
3.48914
3.49024
3.4906
3.49156
3.49187
3.49268
3.49293
3.49356
3.49372
3.49397
3.49385
3.49291
3.49154
3.48477
3.47173
3.46481
3.43827
3.42395
3.36783
3.35775
3.35578
3.35536
3.35526
2.57235
2.73902
2.80055
2.90256
2.94127
3.00912
3.03601
3.08609
3.10602
3.14331
3.15733
3.18151
3.19286
3.21844
3.22979
3.25395
3.26443
3.28617
3.2955
3.31465
3.32283
3.33956
3.34669
3.36125
3.36748
3.38022
3.38578
3.39742
3.40317
3.41692
3.4296
3.43419
3.44182
3.44491
3.45086
3.45335
3.45828
3.46035
3.46451
3.46626
3.46979
3.47128
3.47426
3.47552
3.47804
3.47909
3.48117
3.48202
3.48366
3.48428
3.48537
3.48589
3.48706
3.48758
3.4887
3.48918
3.49019
3.49062
3.4915
3.49188
3.49265
3.49298
3.49363
3.49389
3.49439
3.49455
3.49475
3.4946
3.49377
3.49228
3.48639
3.47569
3.46836
3.44685
3.43191
3.38809
3.37754
3.37522
3.37469
3.37458
2.7245
2.85157
2.90957
2.99132
3.02827
3.08263
3.10829
3.1483
3.1673
3.19704
3.21042
3.22992
3.24075
3.26111
3.27192
3.29118
3.30115
3.31849
3.32738
3.34266
3.35045
3.36379
3.37059
3.38221
3.38814
3.39832
3.40362
3.41295
3.41847
3.42964
3.44
3.44441
3.45054
3.4535
3.45826
3.46062
3.46456
3.46654
3.46986
3.47153
3.47434
3.47576
3.47814
3.47934
3.48135
3.48235
3.48401
3.48482
3.48613
3.48672
3.4876
3.48809
3.48902
3.48952
3.49041
3.49087
3.49167
3.49208
3.49279
3.49315
3.49376
3.49407
3.49459
3.49484
3.49524
3.49539
3.49553
3.49539
3.49466
3.4932
3.48821
3.4795
3.47249
3.45517
3.44103
3.40701
3.39701
3.39458
3.39401
3.39388
2.87156
2.96689
3.01764
3.08187
3.11457
3.15729
3.17999
3.21136
3.22815
3.25142
3.26326
3.27868
3.28826
3.30417
3.31371
3.32877
3.33758
3.35115
3.359
3.37096
3.37785
3.38829
3.3943
3.40339
3.40864
3.41661
3.4213
3.42864
3.43353
3.44239
3.45064
3.45456
3.4594
3.46202
3.46575
3.46784
3.47093
3.47267
3.47527
3.47675
3.47895
3.4802
3.48207
3.48312
3.4847
3.48558
3.48688
3.4876
3.48862
3.48914
3.48984
3.49027
3.491
3.49144
3.49213
3.49254
3.49317
3.49353
3.49409
3.4944
3.49488
3.49516
3.49556
3.49578
3.49609
3.49622
3.49633
3.49619
3.49558
3.49425
3.49017
3.48325
3.47703
3.46336
3.45093
3.42498
3.41618
3.41388
3.41331
3.41319
3.01481
3.08398
3.12517
3.17368
3.20047
3.23275
3.25134
3.275
3.28874
3.30627
3.31596
3.32767
3.33552
3.34748
3.35528
3.36662
3.37382
3.38404
3.39046
3.39947
3.4051
3.41297
3.41788
3.42473
3.42903
3.43503
3.43888
3.44442
3.44844
3.45517
3.46145
3.46468
3.46835
3.47049
3.4733
3.47502
3.47734
3.47877
3.48073
3.48194
3.4836
3.48462
3.48603
3.48689
3.48807
3.4888
3.48978
3.49036
3.49113
3.49156
3.49209
3.49244
3.49299
3.49335
3.49387
3.49421
3.49468
3.49498
3.49539
3.49565
3.49601
3.49624
3.49654
3.49672
3.49695
3.49706
3.49713
3.49702
3.49653
3.49542
3.49224
3.48698
3.48186
3.4715
3.46139
3.44226
3.43508
3.4331
3.4326
3.43249
3.15529
3.2022
3.2324
3.26636
3.28616
3.30876
3.32249
3.33903
3.34918
3.36142
3.36859
3.37681
3.38261
3.39096
3.39671
3.40462
3.40994
3.41708
3.42182
3.42811
3.43227
3.43776
3.44139
3.44618
3.44934
3.45354
3.45638
3.46027
3.46324
3.46797
3.47239
3.47478
3.47735
3.47894
3.4809
3.48217
3.48379
3.48485
3.48622
3.48711
3.48827
3.48902
3.49
3.49064
3.49147
3.492
3.49269
3.49312
3.49366
3.49397
3.49434
3.49461
3.49499
3.49525
3.49562
3.49586
3.49619
3.49641
3.4967
3.4969
3.49715
3.49731
3.49753
3.49766
3.49782
3.4979
3.49795
3.49786
3.4975
3.49667
3.4944
3.49069
3.48691
3.47964
3.4722
3.45907
3.45378
3.45226
3.45187
3.45178
3.2939
3.32109
3.33949
3.3596
3.37173
3.38512
3.39353
3.40333
3.40953
3.41678
3.42116
3.42605
3.4296
3.43454
3.43806
3.44274
3.44599
3.45021
3.45311
3.45683
3.45938
3.46263
3.46485
3.46768
3.46962
3.47211
3.47384
3.47615
3.47797
3.48078
3.4834
3.48487
3.4864
3.48737
3.48853
3.48931
3.49027
3.49091
3.49172
3.49227
3.49295
3.49342
3.494
3.49439
3.49488
3.4952
3.49561
3.49587
3.49619
3.49638
3.49661
3.49677
3.49699
3.49715
3.49737
3.49752
3.49771
3.49785
3.49802
3.49814
3.49829
3.49839
3.49852
3.4986
3.49869
3.49874
3.49877
3.49871
3.49849
3.49798
3.49662
3.49441
3.49209
3.48778
3.48323
3.47556
3.47233
3.47137
3.47113
3.47107
3.43142
3.44033
3.4465
3.45317
3.45725
3.46169
3.46452
3.46776
3.46985
3.47225
3.47372
3.47534
3.47654
3.47817
3.47936
3.48091
3.482
3.4834
3.48437
3.48561
3.48646
3.48754
3.48829
3.48922
3.48988
3.4907
3.49128
3.49205
3.49266
3.49359
3.49446
3.49496
3.49546
3.49579
3.49618
3.49644
3.49675
3.49697
3.49724
3.49742
3.49765
3.49781
3.498
3.49813
3.49829
3.4984
3.49854
3.49862
3.49873
3.4988
3.49887
3.49892
3.499
3.49905
3.49912
3.49917
3.49924
3.49928
3.49934
3.49938
3.49943
3.49946
3.4995
3.49953
3.49956
3.49958
3.49959
3.49957
3.4995
3.49932
3.49887
3.49814
3.49736
3.49592
3.4944
3.49187
3.49079
3.49046
3.49038
3.49036
3.43195
3.44028
3.44562
3.45066
3.4534
3.4559
3.4573
3.45865
3.45941
3.46015
3.46067
3.46134
3.46183
3.46245
3.46288
3.46344
3.46383
3.46433
3.46469
3.46513
3.46544
3.46584
3.46612
3.46646
3.46671
3.46701
3.46723
3.46751
3.46774
3.46808
3.46839
3.46856
3.46874
3.46885
3.46898
3.46906
3.46916
3.46923
3.46931
3.46937
3.46943
3.46948
3.46953
3.46957
3.46961
3.46964
3.46968
3.4697
3.46973
3.46974
3.46976
3.46977
3.46979
3.4698
3.46981
3.46982
3.46982
3.46982
3.46982
3.46982
3.4698
3.46979
3.46976
3.46972
3.46966
3.46959
3.46946
3.4693
3.46898
3.46851
3.46746
3.46599
3.46467
3.46249
3.46039
3.45711
3.4557
3.45528
3.45517
3.45514
3.29551
3.32096
3.33688
3.35207
3.3602
3.36776
3.37191
3.37598
3.37824
3.38047
3.382
3.38404
3.38547
3.38734
3.38864
3.39033
3.3915
3.39301
3.39405
3.3954
3.39633
3.39752
3.39834
3.39939
3.40012
3.40104
3.40169
3.40254
3.40321
3.40423
3.40517
3.40569
3.40622
3.40655
3.40693
3.40718
3.40749
3.40769
3.40794
3.4081
3.4083
3.40844
3.4086
3.40871
3.40885
3.40893
3.40904
3.4091
3.40918
3.40923
3.40928
3.40931
3.40936
3.40939
3.40943
3.40945
3.40947
3.40947
3.40947
3.40945
3.40941
3.40937
3.40927
3.40917
3.40898
3.40878
3.40838
3.40792
3.40696
3.40556
3.40238
3.39797
3.39404
3.38748
3.38123
3.37124
3.36706
3.36583
3.36551
3.36543
3.15805
3.20202
3.22817
3.25377
3.26703
3.27974
3.28652
3.29339
3.29706
3.30081
3.30331
3.30676
3.3091
3.31226
3.31439
3.31724
3.31915
3.3217
3.32341
3.32569
3.3272
3.32922
3.33056
3.33234
3.33352
3.33508
3.33614
3.33758
3.33867
3.34039
3.34197
3.34282
3.3437
3.34424
3.34489
3.3453
3.34582
3.34615
3.34657
3.34684
3.34718
3.3474
3.34768
3.34785
3.34808
3.34822
3.3484
3.34851
3.34864
3.34871
3.3488
3.34886
3.34894
3.34898
3.34904
3.34908
3.34911
3.34912
3.34911
3.34909
3.34902
3.34895
3.34879
3.34863
3.34831
3.34797
3.34731
3.34655
3.34495
3.34267
3.33736
3.32993
3.32352
3.31244
3.30221
3.28515
3.27831
3.27633
3.27583
3.27572
3.01884
3.08379
3.11947
3.15595
3.17389
3.19197
3.20113
3.21092
3.21588
3.2212
3.22459
3.22953
3.2327
3.23723
3.24011
3.24419
3.24678
3.25043
3.25274
3.256
3.25806
3.26095
3.26276
3.26531
3.2669
3.26914
3.27057
3.27263
3.2741
3.27655
3.2788
3.27994
3.2812
3.28193
3.28286
3.28342
3.28416
3.2846
3.2852
3.28557
3.28606
3.28635
3.28675
3.28699
3.28731
3.28751
3.28776
3.28791
3.2881
3.2882
3.28832
3.2884
3.28851
3.28858
3.28866
3.28871
3.28876
3.28877
3.28876
3.28873
3.28864
3.28853
3.28831
3.28808
3.28763
3.28718
3.28624
3.28522
3.28296
3.27991
3.27242
3.26185
3.25318
3.23738
3.22347
3.19865
3.18936
3.18679
3.18614
3.186
2.87702
2.96674
3.01075
3.05888
3.08073
3.10455
3.11572
3.12864
3.13469
3.14167
3.1458
3.15236
3.15624
3.16226
3.16578
3.1712
3.17436
3.17921
3.18204
3.18637
3.18888
3.19272
3.19493
3.19831
3.20026
3.20323
3.20498
3.2077
3.2095
3.21272
3.21568
3.21706
3.21873
3.21961
3.22084
3.22152
3.22251
3.22305
3.22385
3.22429
3.22494
3.2253
3.22583
3.22613
3.22655
3.22679
3.22713
3.22731
3.22756
3.22769
3.22784
3.22794
3.22809
3.22817
3.22829
3.22834
3.2284
3.22842
3.22841
3.22837
3.22825
3.22812
3.22782
3.22755
3.22695
3.2264
3.22517
3.22394
3.22101
3.21733
3.2076
3.19369
3.18313
3.16224
3.14517
3.11152
3.10014
3.09716
3.09643
3.09627
2.73162
2.85151
2.90186
2.96286
2.9875
3.01764
3.03023
3.04664
3.05346
3.06226
3.06692
3.07531
3.07969
3.08739
3.09137
3.0983
3.10187
3.10808
3.11128
3.11681
3.11965
3.12455
3.12706
3.13137
3.13358
3.13738
3.13935
3.14281
3.14484
3.1489
3.15261
3.15417
3.15628
3.15728
3.15885
3.15962
3.16087
3.16149
3.16251
3.16301
3.16384
3.16425
3.16492
3.16526
3.1658
3.16607
3.1665
3.16671
3.16703
3.16717
3.16737
3.16748
3.16767
3.16776
3.16791
3.16797
3.16805
3.16807
3.16806
3.16801
3.16786
3.16771
3.16734
3.16703
3.16627
3.16565
3.16411
3.16272
3.15909
3.15499
3.14295
3.1254
3.1135
3.08695
3.06752
3.02351
3.01058
3.00744
3.0067
3.00654
2.58142
2.73906
2.79255
2.8683
2.89405
2.93142
2.94459
2.96502
2.97215
2.98301
2.98788
2.99841
3.00301
3.01266
3.01684
3.02553
3.02928
3.03706
3.04042
3.04735
3.05034
3.05648
3.05911
3.06452
3.06684
3.07159
3.07366
3.07798
3.08009
3.0851
3.08964
3.09126
3.09388
3.09492
3.09689
3.0977
3.09926
3.09991
3.10119
3.10171
3.10275
3.10318
3.10403
3.10438
3.10506
3.10534
3.10588
3.1061
3.1065
3.10665
3.1069
3.10701
3.10725
3.10735
3.10754
3.1076
3.1077
3.10772
3.10771
3.10766
3.10747
3.10732
3.10685
3.10653
3.10559
3.10494
3.10303
3.1016
3.09719
3.09296
3.07852
3.05688
3.04445
3.01137
2.99087
2.93425
2.92063
2.91763
2.91695
2.9168
2.42492
2.63078
2.68234
2.77573
2.80013
2.84618
2.85866
2.88394
2.89069
2.904
2.90862
2.92175
2.92613
2.93816
2.94214
2.95296
2.95653
2.96622
2.96942
2.97806
2.9809
2.98855
2.99106
2.99779
3
3.00591
3.00788
3.01323
3.01523
3.02131
3.02678
3.0283
3.03154
3.03253
3.03497
3.03574
3.03769
3.03831
3.0399
3.0404
3.04169
3.0421
3.04315
3.04349
3.04434
3.0446
3.04528
3.04548
3.04599
3.04613
3.04643
3.04654
3.04684
3.04693
3.04717
3.04723
3.04736
3.04738
3.04736
3.04731
3.04708
3.04694
3.04636
3.04606
3.04489
3.04428
3.04194
3.04059
3.03528
3.03135
3.01438
2.98799
2.97622
2.93529
2.91565
2.84327
2.83026
2.82772
2.82717
2.82705
2.26018
2.52868
2.57046
2.68592
2.70535
2.76228
2.77222
2.80359
2.80897
2.82533
2.82902
2.84544
2.84895
2.86398
2.86716
2.88068
2.88354
2.89564
2.8982
2.90899
2.91126
2.92082
2.92283
2.93124
2.93301
2.94039
2.94196
2.94862
2.95021
2.95755
2.96408
2.96528
2.96929
2.97008
2.97313
2.97374
2.97618
2.97667
2.97865
2.97905
2.98066
2.98099
2.98231
2.98257
2.98364
2.98385
2.98469
2.98486
2.98548
2.9856
2.98598
2.98606
2.98644
2.98651
2.98681
2.98686
2.98702
2.98703
2.98701
2.98697
2.98668
2.98657
2.98586
2.98562
2.98418
2.98369
2.98081
2.97974
2.97331
2.97026
2.95062
2.91852
2.90917
2.85836
2.84255
2.74992
2.73947
2.73774
2.73738
2.7373
2.0847
2.43564
2.45564
2.59996
2.60906
2.68026
2.68492
2.72429
2.72681
2.74718
2.74891
2.76965
2.7713
2.79027
2.79177
2.80882
2.81017
2.82544
2.82665
2.84027
2.84134
2.8534
2.85435
2.86496
2.86579
2.8751
2.87584
2.88422
2.88496
2.89382
2.90159
2.90215
2.90717
2.90754
2.91138
2.91166
2.91474
2.91497
2.91746
2.91765
2.91969
2.91984
2.9215
2.92163
2.92297
2.92307
2.92413
2.92421
2.925
2.92506
2.92553
2.92557
2.92605
2.92609
2.92646
2.92648
2.92668
2.92669
2.92666
2.92665
2.92628
2.92623
2.92534
2.92522
2.92342
2.92319
2.91961
2.91911
2.91121
2.90982
2.88736
2.84814
2.84377
2.78003
2.77252
2.65328
2.64833
2.6477
2.64758
2.64755
)
;

boundaryField
{
    F1_1
    {
        type            fixedValue;
        value           nonuniform List<scalar> 
80
(
1.99018
2.39625
2.39625
2.56078
2.56078
2.64295
2.64295
2.69055
2.69055
2.72074
2.72074
2.73812
2.73812
2.75718
2.75718
2.77537
2.77537
2.7921
2.7921
2.80721
2.80721
2.82071
2.82071
2.83262
2.83262
2.84311
2.84311
2.85255
2.85255
2.86226
2.8707
2.8707
2.87637
2.87637
2.88071
2.88071
2.88418
2.88418
2.887
2.887
2.88931
2.88931
2.89119
2.89119
2.89271
2.89271
2.89391
2.89391
2.89481
2.89481
2.89535
2.89535
2.89589
2.89589
2.89631
2.89631
2.89654
2.89654
2.8965
2.8965
2.89608
2.89608
2.89507
2.89507
2.89302
2.89302
2.88895
2.88895
2.88004
2.88004
2.85606
2.81226
2.81226
2.73974
2.73974
2.60267
2.60267
2.60267
2.60267
2.60267
)
;
    }
    F1_2
    {
        type            fixedValue;
        value           nonuniform List<scalar> 
80
(
1.97046
2.39657
2.39657
2.62106
2.62106
2.77091
2.77091
2.88245
2.88245
2.96604
2.96604
3.01831
3.01831
3.07598
3.07598
3.13026
3.13026
3.17899
3.17899
3.22188
3.22188
3.25931
3.25931
3.29188
3.29188
3.32034
3.32034
3.346
3.346
3.37284
3.39672
3.39672
3.41337
3.41337
3.42662
3.42662
3.43764
3.43764
3.44694
3.44694
3.45483
3.45483
3.46151
3.46151
3.46715
3.46715
3.47182
3.47182
3.47551
3.47551
3.47787
3.47787
3.48051
3.48051
3.48301
3.48301
3.48527
3.48527
3.48725
3.48725
3.48898
3.48898
3.49044
3.49044
3.49159
3.49159
3.49212
3.49212
3.49078
3.49078
3.48206
3.46028
3.46028
3.4136
3.4136
3.30697
3.30697
3.30697
3.30697
3.30697
)
;
    }
    F1_3
    {
        type            fixedValue;
        value           nonuniform List<scalar> 
80
(
1.97046
2.39657
2.39657
2.62106
2.62106
2.77091
2.77091
2.88245
2.88245
2.96604
2.96604
3.01831
3.01831
3.07598
3.07598
3.13026
3.13026
3.17899
3.17899
3.22188
3.22188
3.25931
3.25931
3.29188
3.29188
3.32034
3.32034
3.346
3.346
3.37284
3.39672
3.39672
3.41337
3.41337
3.42662
3.42662
3.43764
3.43764
3.44694
3.44694
3.45483
3.45483
3.46151
3.46151
3.46715
3.46715
3.47182
3.47182
3.47551
3.47551
3.47787
3.47787
3.48051
3.48051
3.48301
3.48301
3.48527
3.48527
3.48725
3.48725
3.48898
3.48898
3.49044
3.49044
3.49159
3.49159
3.49212
3.49212
3.49078
3.49078
3.48206
3.46028
3.46028
3.4136
3.4136
3.30697
3.30697
3.30697
3.30697
3.30697
)
;
    }
    F1_4
    {
        type            fixedValue;
        value           nonuniform List<scalar> 
80
(
1.98994
2.39574
2.39574
2.55968
2.55968
2.64058
2.64058
2.68537
2.68537
2.70847
2.70847
2.73213
2.73213
2.75376
2.75376
2.77321
2.77321
2.79063
2.79063
2.80616
2.80616
2.81991
2.81991
2.83201
2.83201
2.84263
2.84263
2.85217
2.85217
2.86198
2.87049
2.87049
2.8762
2.8762
2.88057
2.88057
2.88407
2.88407
2.88692
2.88692
2.88924
2.88924
2.89113
2.89113
2.89266
2.89266
2.89387
2.89387
2.89478
2.89478
2.89532
2.89532
2.89586
2.89586
2.89629
2.89629
2.89652
2.89652
2.89649
2.89649
2.89607
2.89607
2.89506
2.89506
2.89301
2.89301
2.88894
2.88894
2.88003
2.88003
2.85606
2.81225
2.81225
2.73973
2.73973
2.60267
2.60267
2.60267
2.60267
2.60267
)
;
    }
    F2_1
    {
        type            fixedValue;
        value           uniform 3.5;
    }
    F2_2
    {
        type            fixedValue;
        value           uniform 3.5;
    }
    F2_3
    {
        type            fixedValue;
        value           uniform 3.5;
    }
    F2_4
    {
        type            fixedValue;
        value           uniform 3.5;
    }
    defaultFaces
    {
        type            empty;
    }
}


// ************************************************************************* //
