/*--------------------------------*- C++ -*----------------------------------*\
| =========                 |                                                 |
| \\      /  F ield         | OpenFOAM: The Open Source CFD Toolbox           |
|  \\    /   O peration     | Version:  5.x                                   |
|   \\  /    A nd           | Web:      www.OpenFOAM.org                      |
|    \\/     M anipulation  |                                                 |
\*---------------------------------------------------------------------------*/
FoamFile
{
    version     2.0;
    format      ascii;
    class       volScalarField;
    location    "8.6";
    object      gradTy;
}
// * * * * * * * * * * * * * * * * * * * * * * * * * * * * * * * * * * * * * //

dimensions      [0 -1 0 1 0 0 0];

internalField   nonuniform List<scalar> 
2048
(
-26.4236
-26.3961
-26.3417
-26.262
-26.1592
-26.0358
-25.8946
-25.7383
-25.5697
-25.3915
-25.206
-25.0154
-24.8215
-24.6262
-24.4308
-24.2368
-24.0452
-23.8569
-23.6727
-23.4931
-23.3187
-23.1498
-22.9866
-22.8294
-22.6783
-22.5337
-22.3959
-22.265
-22.1417
-22.0262
-21.9192
-21.8213
-21.7333
-21.656
-21.5903
-21.5372
-21.4979
-21.4735
-21.4653
-21.4744
-21.5023
-21.55
-21.6189
-21.71
-21.8245
-21.9629
-22.1257
-22.3128
-22.5236
-22.7567
-23.0097
-23.2793
-23.5613
-23.8504
-24.1406
-24.4253
-24.6976
-24.9511
-25.1796
-25.3778
-25.5412
-25.6666
-25.7515
-25.7944
-26.446
-26.4177
-26.3621
-26.2808
-26.1759
-26.0503
-25.9067
-25.7482
-25.5775
-25.3974
-25.2102
-25.018
-24.8228
-24.6262
-24.4298
-24.2348
-24.0425
-23.8536
-23.6689
-23.489
-23.3143
-23.1452
-22.9818
-22.8244
-22.6731
-22.5283
-22.3902
-22.259
-22.1353
-22.0194
-21.9119
-21.8134
-21.7247
-21.6466
-21.58
-21.5261
-21.4858
-21.4605
-21.4512
-21.4593
-21.4861
-21.5329
-21.6009
-21.6912
-21.805
-21.9431
-22.106
-22.2937
-22.5056
-22.7405
-22.9962
-23.2693
-23.5556
-23.8496
-24.1451
-24.4352
-24.7129
-24.9713
-25.2041
-25.4058
-25.572
-25.6994
-25.7856
-25.829
-26.4887
-26.4592
-26.4011
-26.3164
-26.2076
-26.0776
-25.9297
-25.7669
-25.5922
-25.4084
-25.2179
-25.0228
-24.8249
-24.6261
-24.4277
-24.231
-24.0372
-23.8472
-23.6616
-23.4811
-23.3059
-23.1364
-22.9726
-22.8149
-22.6633
-22.518
-22.3794
-22.2477
-22.1232
-22.0065
-21.898
-21.7984
-21.7083
-21.6288
-21.5607
-21.505
-21.463
-21.4358
-21.4246
-21.4308
-21.4556
-21.5005
-21.5667
-21.6555
-21.7681
-21.9055
-22.0684
-22.257
-22.4711
-22.7094
-22.9701
-23.2498
-23.5442
-23.8476
-24.1534
-24.4541
-24.7422
-25.01
-25.251
-25.4595
-25.6309
-25.762
-25.8504
-25.895
-26.5499
-26.5185
-26.4569
-26.3672
-26.2526
-26.1162
-25.9619
-25.7929
-25.6126
-25.4236
-25.2285
-25.0292
-24.8277
-24.6257
-24.4245
-24.2254
-24.0296
-23.838
-23.6513
-23.4698
-23.294
-23.1239
-22.9598
-22.8016
-22.6495
-22.5037
-22.3643
-22.2318
-22.1063
-21.9884
-21.8785
-21.7773
-21.6855
-21.6039
-21.5336
-21.4755
-21.4309
-21.4011
-21.3871
-21.3905
-21.4126
-21.4547
-21.5183
-21.6048
-21.7156
-21.8519
-22.0146
-22.2044
-22.4212
-22.6643
-22.932
-23.2211
-23.5271
-23.8441
-24.1649
-24.481
-24.784
-25.0656
-25.3185
-25.5364
-25.7151
-25.8512
-25.9429
-25.9889
-26.6283
-26.5944
-26.5279
-26.4317
-26.3092
-26.1646
-26.0019
-25.8251
-25.6375
-25.4421
-25.2412
-25.0368
-24.8308
-24.6247
-24.42
-24.218
-24.0197
-23.8262
-23.638
-23.4555
-23.2789
-23.1083
-22.9437
-22.785
-22.6323
-22.4858
-22.3456
-22.2121
-22.0854
-21.9661
-21.8545
-21.7513
-21.6572
-21.573
-21.4998
-21.4388
-21.391
-21.3577
-21.3404
-21.3402
-21.3587
-21.3973
-21.4576
-21.5411
-21.6493
-21.7839
-21.9461
-22.1369
-22.3569
-22.6057
-22.882
-23.1829
-23.5039
-23.8385
-24.1787
-24.515
-24.8376
-25.137
-25.4049
-25.6349
-25.8224
-25.9647
-26.0601
-26.1079
-26.7229
-26.6857
-26.6131
-26.5085
-26.3762
-26.2213
-26.0485
-25.8621
-25.666
-25.4629
-25.2553
-25.0451
-24.8338
-24.6231
-24.4142
-24.2087
-24.0076
-23.8118
-23.622
-23.4384
-23.2611
-23.09
-22.9249
-22.7657
-22.6124
-22.465
-22.3239
-22.1892
-22.0612
-21.9402
-21.8267
-21.7211
-21.6243
-21.5371
-21.4606
-21.3959
-21.3443
-21.3071
-21.2857
-21.2813
-21.2955
-21.3299
-21.386
-21.4657
-21.5707
-21.7029
-21.864
-22.0556
-22.2787
-22.5337
-22.8199
-23.1348
-23.4737
-23.83
-24.1942
-24.5555
-24.9023
-25.2234
-25.5095
-25.7536
-25.9513
-26.1003
-26.1997
-26.2493
-26.8331
-26.7918
-26.7115
-26.5965
-26.4523
-26.2849
-26.1001
-25.9027
-25.6968
-25.4852
-25.2702
-25.0535
-24.8364
-24.6204
-24.407
-24.1975
-23.9931
-23.7949
-23.6034
-23.4187
-23.2407
-23.0692
-22.9037
-22.7441
-22.5901
-22.4419
-22.2998
-22.1638
-22.0343
-21.9115
-21.7958
-21.6876
-21.5878
-21.4971
-21.4168
-21.348
-21.2921
-21.2504
-21.2243
-21.2152
-21.2245
-21.2539
-21.3052
-21.3803
-21.4812
-21.6102
-21.7694
-21.9611
-22.1871
-22.4485
-22.7454
-23.076
-23.4359
-23.8175
-24.2105
-24.6019
-24.9777
-25.3246
-25.6317
-25.8916
-26.1003
-26.2562
-26.3595
-26.4108
-26.9584
-26.912
-26.8223
-26.6947
-26.5363
-26.3543
-26.1556
-25.9457
-25.729
-25.5083
-25.2854
-25.0617
-24.8384
-24.6167
-24.3982
-24.1843
-23.9764
-23.7755
-23.5822
-23.3966
-23.2182
-23.0464
-22.8807
-22.7206
-22.566
-22.4169
-22.2736
-22.1364
-22.0053
-21.8807
-21.7626
-21.6516
-21.5484
-21.4539
-21.3693
-21.296
-21.2353
-21.1886
-21.1574
-21.1429
-21.1468
-21.1707
-21.2164
-21.286
-21.382
-21.5068
-21.6633
-21.8542
-22.0823
-22.3499
-22.658
-23.0058
-23.3892
-23.8002
-24.227
-24.6538
-25.0637
-25.4404
-25.7713
-26.0484
-26.2682
-26.4307
-26.5374
-26.5901
-27.0986
-27.0461
-26.945
-26.8023
-26.627
-26.428
-26.2135
-25.9899
-25.7616
-25.5313
-25.3002
-25.0694
-24.8395
-24.6118
-24.3877
-24.169
-23.9572
-23.7536
-23.5587
-23.3723
-23.1937
-23.022
-22.8562
-22.6958
-22.5405
-22.3905
-22.246
-22.1074
-21.9748
-21.8482
-21.7278
-21.6137
-21.5069
-21.4081
-21.3189
-21.2406
-21.1747
-21.1227
-21.086
-21.0658
-21.0637
-21.0814
-21.1208
-21.1843
-21.2744
-21.3941
-21.5466
-21.7355
-21.9647
-22.2377
-22.5569
-22.9229
-23.3323
-23.7768
-24.2427
-24.711
-25.1606
-25.5715
-25.9286
-26.2236
-26.4542
-26.6223
-26.7313
-26.7849
-27.2539
-27.194
-27.0791
-26.9185
-26.7233
-26.5048
-26.2727
-26.0341
-25.7937
-25.5535
-25.3144
-25.0763
-24.8397
-24.6056
-24.3755
-24.1515
-23.9356
-23.7292
-23.5327
-23.3458
-23.1675
-22.9962
-22.8306
-22.67
-22.514
-22.3629
-22.2172
-22.0773
-21.9432
-21.8147
-21.6918
-21.5746
-21.4638
-21.3605
-21.2662
-21.1826
-21.1112
-21.0536
-21.011
-20.9847
-20.9762
-20.9872
-21.0197
-21.0762
-21.1595
-21.2729
-21.4202
-21.6058
-21.8346
-22.1116
-22.4414
-22.8261
-23.2637
-23.7459
-24.2566
-24.7732
-25.2689
-25.7185
-26.104
-26.4171
-26.6573
-26.8293
-26.9393
-26.9928
-27.4246
-27.3556
-27.2243
-27.0423
-26.824
-26.5833
-26.3317
-26.0771
-25.8242
-25.5745
-25.3275
-25.0824
-24.839
-24.5982
-24.3616
-24.1319
-23.9115
-23.7021
-23.5043
-23.3174
-23.1398
-22.9694
-22.8043
-22.6435
-22.4868
-22.3346
-22.1875
-22.0463
-21.9108
-21.7806
-21.6553
-21.5349
-21.4199
-21.3117
-21.212
-21.1226
-21.0454
-20.9818
-20.9332
-20.9005
-20.8853
-20.8891
-20.9141
-20.9629
-21.0385
-21.1445
-21.2852
-21.4658
-21.6923
-21.9717
-22.3107
-22.7141
-23.1818
-23.7057
-24.2679
-24.8405
-25.3894
-25.8826
-26.2986
-26.6291
-26.8768
-27.0502
-27.1591
-27.2114
-27.6111
-27.5312
-27.3802
-27.1731
-26.9279
-26.6621
-26.3891
-26.1177
-25.8524
-25.5936
-25.3393
-25.0876
-24.8375
-24.5896
-24.346
-24.11
-23.8847
-23.6724
-23.4735
-23.2871
-23.1109
-22.9419
-22.7777
-22.6169
-22.4593
-22.3057
-22.1572
-22.0147
-21.8781
-21.7464
-21.6188
-21.495
-21.3756
-21.2621
-21.1565
-21.0612
-20.9779
-20.9082
-20.8533
-20.8142
-20.792
-20.7882
-20.8051
-20.8454
-20.9125
-21.01
-21.1427
-21.3163
-21.5384
-21.8177
-22.164
-22.5853
-23.0845
-23.6544
-24.2752
-24.9128
-25.5234
-26.0657
-26.5134
-26.8597
-27.1117
-27.2832
-27.3885
-27.4382
-27.814
-27.7212
-27.5467
-27.3098
-27.0337
-26.7397
-26.4435
-26.1547
-25.8774
-25.6104
-25.3499
-25.0922
-24.8354
-24.5801
-24.3288
-24.0857
-23.8551
-23.6397
-23.4402
-23.255
-23.0811
-22.9142
-22.7512
-22.5904
-22.4318
-22.2765
-22.1263
-21.9827
-21.8452
-21.7124
-21.5826
-21.4554
-21.3314
-21.2122
-21.1004
-20.9987
-20.9091
-20.8332
-20.7721
-20.7264
-20.697
-20.6853
-20.6936
-20.7249
-20.7826
-20.8705
-20.9937
-21.1585
-21.3735
-21.6497
-22.0005
-22.4382
-22.9696
-23.5897
-24.277
-24.9903
-25.6726
-26.2698
-26.7501
-27.1093
-27.3612
-27.5266
-27.625
-27.6706
-28.0343
-27.9258
-27.7234
-27.4517
-27.14
-26.8145
-26.4934
-26.1869
-25.8984
-25.6247
-25.3593
-25.0962
-24.833
-24.5699
-24.31
-24.0589
-23.8226
-23.6041
-23.4042
-23.2212
-23.0505
-22.8866
-22.7252
-22.5644
-22.4045
-22.2471
-22.095
-21.9504
-21.8125
-21.679
-21.5473
-21.4167
-21.2878
-21.1624
-21.0438
-20.9354
-20.8394
-20.7574
-20.6901
-20.6378
-20.6011
-20.5812
-20.5804
-20.6021
-20.6498
-20.7272
-20.8394
-20.9933
-21.1985
-21.4681
-21.8196
-22.2711
-22.8348
-23.509
-24.2715
-25.073
-25.8394
-26.4979
-27.0107
-27.3783
-27.6243
-27.7783
-27.8661
-27.9056
-28.273
-28.1457
-27.9104
-27.5977
-27.2451
-26.885
-26.5374
-26.2131
-25.9147
-25.6362
-25.3676
-25.1001
-24.8306
-24.5593
-24.2897
-24.0295
-23.7868
-23.5652
-23.3655
-23.1856
-23.0195
-22.8596
-22.7002
-22.5394
-22.3778
-22.2176
-22.0631
-21.9177
-21.7801
-21.6465
-21.5132
-21.3792
-21.2452
-21.1131
-20.9871
-20.8717
-20.7692
-20.681
-20.6077
-20.5491
-20.5051
-20.4766
-20.4664
-20.478
-20.515
-20.5811
-20.6811
-20.8221
-21.0145
-21.2733
-21.6209
-22.0823
-22.6774
-23.4091
-24.2562
-25.1613
-26.0265
-26.7536
-27.2973
-27.6669
-27.8996
-28.0361
-28.1093
-28.1407
-28.5312
-28.3815
-28.1074
-27.7469
-27.3475
-26.9496
-26.574
-26.232
-25.9256
-25.6449
-25.3753
-25.1043
-24.8286
-24.5488
-24.268
-23.9973
-23.7477
-23.5229
-23.3237
-23.1483
-22.9883
-22.8337
-22.6766
-22.5156
-22.3519
-22.188
-22.0305
-21.8846
-21.7482
-21.6154
-21.4808
-21.3434
-21.2039
-21.0644
-20.9304
-20.8078
-20.6987
-20.6044
-20.5255
-20.4608
-20.4095
-20.3724
-20.3523
-20.3533
-20.3793
-20.4334
-20.5199
-20.6463
-20.8227
-21.066
-21.404
-21.8703
-22.4946
-23.2864
-24.2279
-25.2551
-26.238
-27.0413
-27.6124
-27.9753
-28.1856
-28.2976
-28.3517
-28.373
-28.8104
-28.6339
-28.3144
-27.8979
-27.4452
-27.0065
-26.6018
-26.2424
-25.9305
-25.6509
-25.3829
-25.1094
-24.8277
-24.5389
-24.2451
-23.9619
-23.7049
-23.4768
-23.2787
-23.1093
-22.9574
-22.8094
-22.6549
-22.4935
-22.3272
-22.1583
-21.9969
-21.851
-21.7169
-21.586
-21.4505
-21.3096
-21.1645
-21.0166
-20.8738
-20.7437
-20.6281
-20.5279
-20.4437
-20.3734
-20.3151
-20.269
-20.2385
-20.2286
-20.2434
-20.2851
-20.3572
-20.4673
-20.625
-20.8473
-21.1688
-21.6336
-22.2838
-23.1369
-24.1825
-25.3544
-26.4789
-27.3664
-27.9585
-28.3031
-28.4804
-28.5603
-28.5908
-28.5997
-29.1122
-28.9034
-28.5316
-28.0495
-27.5359
-27.0542
-26.6196
-26.2429
-25.9289
-25.6543
-25.3912
-25.1158
-24.8282
-24.5305
-24.2212
-23.9228
-23.6583
-23.4268
-23.23
-23.0686
-22.927
-22.7874
-22.6355
-22.4732
-22.304
-22.1284
-21.9616
-21.8164
-21.6863
-21.5588
-21.4225
-21.278
-21.1273
-20.97
-20.817
-20.6795
-20.5575
-20.4516
-20.3629
-20.2875
-20.2224
-20.167
-20.1256
-20.1045
-20.1081
-20.1373
-20.194
-20.2867
-20.423
-20.6185
-20.9156
-21.3706
-22.0421
-22.956
-24.1143
-25.4587
-26.7558
-27.7355
-28.3384
-28.6497
-28.7816
-28.8214
-28.8236
-28.8184
-29.4384
-29.1907
-28.7591
-28.2001
-27.6169
-27.0914
-26.6261
-26.2322
-25.9202
-25.6554
-25.4013
-25.1242
-24.8304
-24.5245
-24.1963
-23.8794
-23.6078
-23.3728
-23.1771
-23.0262
-22.8976
-22.7685
-22.6189
-22.4551
-22.283
-22.0983
-21.924
-21.7807
-21.6566
-21.5344
-21.3972
-21.249
-21.093
-20.9246
-20.76
-20.6154
-20.487
-20.3755
-20.2831
-20.2035
-20.1321
-20.0669
-20.0141
-19.9814
-19.9741
-19.991
-20.0315
-20.1061
-20.2191
-20.3814
-20.645
-21.08
-21.7674
-22.739
-24.0157
-25.567
-27.0778
-28.1562
-28.7542
-29.0135
-29.0864
-29.0778
-29.0478
-29.0266
-29.7912
-29.4956
-28.9977
-28.3482
-27.685
-27.117
-26.6205
-26.2084
-25.9041
-25.6548
-25.4148
-25.135
-24.8346
-24.5224
-24.1706
-23.8305
-23.5534
-23.3147
-23.1191
-22.9818
-22.8695
-22.7539
-22.6052
-22.4392
-22.2649
-22.0678
-21.883
-21.7434
-21.6278
-21.5135
-21.3748
-21.2225
-21.0621
-20.8805
-20.7022
-20.5514
-20.4169
-20.2996
-20.2047
-20.1217
-20.0446
-19.9692
-19.904
-19.8595
-19.842
-19.8472
-19.8703
-19.927
-20.016
-20.1379
-20.3579
-20.7605
-21.4578
-22.4812
-23.8763
-25.6774
-27.4567
-28.6376
-29.2078
-29.3922
-29.3913
-29.3267
-29.2607
-29.2222
-30.1732
-29.8179
-29.2487
-28.492
-27.7358
-27.1307
-26.6025
-26.1695
-25.8804
-25.6527
-25.4336
-25.1483
-24.8404
-24.5262
-24.1443
-23.7743
-23.4956
-23.2525
-23.0549
-22.9357
-22.8431
-22.7448
-22.5948
-22.4252
-22.2511
-22.0368
-21.8369
-21.7041
-21.6001
-21.4971
-21.3555
-21.1984
-21.0358
-20.8379
-20.6428
-20.4876
-20.3473
-20.2236
-20.1279
-20.0427
-19.9607
-19.8741
-19.7956
-19.7388
-19.7121
-19.707
-19.7112
-19.7509
-19.8166
-19.8901
-20.0558
-20.4106
-21.1125
-22.1786
-23.6821
-25.7863
-27.9089
-29.1899
-29.6997
-29.7824
-29.6927
-29.5649
-29.4602
-29.4036
-30.5874
-30.1555
-29.5146
-28.6294
-27.7638
-27.1332
-26.5721
-26.1125
-25.8493
-25.6496
-25.4606
-25.1642
-24.8469
-24.5392
-24.1175
-23.7079
-23.4353
-23.1869
-22.9827
-22.8879
-22.8187
-22.7433
-22.5876
-22.4125
-22.2433
-22.0051
-21.7837
-21.6626
-21.5735
-21.4868
-21.3391
-21.1761
-21.0155
-20.7968
-20.5805
-20.4247
-20.2784
-20.147
-20.053
-19.9667
-19.881
-19.7821
-19.689
-19.6192
-19.585
-19.5715
-19.5541
-19.5788
-19.6248
-19.6404
-19.7407
-20.0281
-20.7319
-21.8289
-23.4139
-25.8881
-28.457
-29.8242
-30.2292
-30.1795
-29.9862
-29.7896
-29.6444
-29.5692
-31.0379
-30.505
-29.7996
-28.7584
-27.761
-27.1267
-26.5302
-26.0333
-25.8114
-25.6453
-25.4999
-25.1821
-24.8519
-24.5659
-24.0903
-23.6273
-23.3746
-23.1184
-22.8999
-22.8389
-22.7961
-22.7519
-22.5831
-22.3997
-22.2445
-21.9727
-21.7202
-21.6188
-21.5478
-21.4845
-21.3254
-21.1546
-21.0034
-20.7571
-20.5133
-20.3632
-20.2106
-20.0692
-19.9804
-19.8939
-19.8065
-19.6934
-19.5842
-19.5003
-19.4608
-19.4424
-19.3985
-19.4116
-19.4452
-19.3908
-19.4157
-19.6098
-20.3184
-21.4329
-23.0459
-25.9738
-29.132
-30.5519
-30.793
-30.5776
-30.2673
-29.9981
-29.8118
-29.7181
-31.5302
-30.8592
-30.1106
-28.8768
-27.7167
-27.1161
-26.4786
-25.9261
-25.7688
-25.6388
-25.5573
-25.2007
-24.8516
-24.6131
-24.0629
-23.5261
-23.3169
-23.0486
-22.8027
-22.79
-22.7747
-22.7743
-22.5805
-22.3843
-22.2589
-21.9394
-21.6422
-21.5733
-21.5224
-21.4933
-21.3137
-21.1318
-21.0027
-20.7189
-20.4383
-20.3047
-20.1445
-19.9886
-19.9107
-19.8243
-19.7381
-19.6082
-19.4809
-19.3815
-19.3397
-19.3219
-19.2432
-19.2493
-19.2833
-19.143
-19.0853
-19.1506
-19.8759
-20.9965
-22.5432
-26.0295
-29.9769
-31.3837
-31.385
-30.9693
-30.5316
-30.1879
-29.9611
-29.8497
-32.0715
-31.2066
-30.459
-28.9823
-27.6157
-27.1095
-26.4202
-25.782
-25.725
-25.6275
-25.641
-25.2178
-24.8399
-24.6909
-24.0352
-23.395
-23.2677
-22.9794
-22.6853
-22.7433
-22.7527
-22.8161
-22.5783
-22.3621
-22.2931
-21.9053
-21.5437
-21.5279
-21.4957
-21.5175
-21.3027
-21.1045
-21.0181
-20.682
-20.3513
-20.2514
-20.0808
-19.9035
-19.8448
-19.7579
-19.6773
-19.5264
-19.3793
-19.2619
-19.2212
-19.213
-19.0859
-19.0911
-19.1468
-18.8973
-18.7562
-18.642
-19.4109
-20.5338
-21.8588
-26.0346
-31.0516
-32.3274
-31.9954
-31.3465
-30.7745
-30.3572
-30.0918
-29.9638
-32.6723
-31.5279
-30.862
-29.0726
-27.4366
-27.1206
-26.3593
-25.5884
-25.6868
-25.6062
-25.7628
-25.2298
-24.8069
-24.8138
-24.0072
-23.2205
-23.236
-22.9138
-22.5392
-22.7033
-22.7265
-22.885
-22.5742
-22.327
-22.3563
-21.8702
-21.4162
-21.486
-21.4651
-21.5634
-21.2907
-21.0677
-21.0569
-20.6462
-20.2459
-20.2073
-20.0206
-19.8107
-19.7846
-19.6937
-19.6259
-19.4478
-19.2792
-19.1401
-19.1049
-19.1202
-18.9227
-18.9351
-19.0454
-18.652
-18.4385
-18.0708
-18.9318
-20.071
-20.9309
-25.9592
-32.4381
-33.385
-32.61
-31.7
-30.9919
-30.5044
-30.2036
-30.0605
-33.3475
-31.7937
-31.3459
-29.1455
-27.1497
-27.1699
-26.3017
-25.3271
-25.6658
-25.5652
-25.9397
-25.2317
-24.7378
-25.0025
-23.9788
-22.9833
-23.2352
-22.8554
-22.3522
-22.6772
-22.6897
-22.9919
-22.5647
-22.2692
-22.4619
-21.8337
-21.2483
-21.4536
-21.4255
-21.6397
-21.2748
-21.0141
-21.1289
-20.611
-20.1133
-20.1779
-19.9649
-19.7058
-19.7327
-19.6304
-19.5865
-19.3718
-19.1809
-19.0146
-18.9892
-19.0501
-18.7483
-18.7773
-18.9926
-18.4016
-18.148
-17.4167
-18.449
-19.6519
-19.6777
-25.7601
-34.2495
-34.5486
-33.2102
-32.0204
-31.1805
-30.6288
-30.2965
-30.1404
-34.1181
-31.9598
-31.9491
-29.1987
-26.7137
-27.288
-26.2551
-24.9719
-25.6806
-25.488
-26.1956
-25.2164
-24.6111
-25.2863
-23.9493
-22.6565
-23.2848
-22.8095
-22.107
-22.6771
-22.6313
-23.1525
-22.5451
-22.1749
-22.6287
-21.7954
-21.0243
-21.4411
-21.3681
-21.759
-21.2513
-20.9327
-21.2485
-20.5757
-19.9415
-20.172
-19.9154
-19.5827
-19.6933
-19.5651
-19.5624
-19.2972
-19.0848
-18.8832
-18.8716
-19.012
-18.5551
-18.6116
-19.0067
-18.1353
-17.9081
-16.6496
-17.9732
-19.3443
-17.9931
-25.3771
-36.6387
-35.7943
-33.7728
-32.2988
-31.3376
-30.73
-30.3712
-30.2042
-35.0135
-31.9619
-32.7266
-29.23
-26.0724
-27.5185
-26.2288
-24.4862
-25.7606
-25.3485
-26.564
-25.1744
-24.3962
-25.7051
-23.9178
-22.2032
-23.4129
-22.7821
-21.7791
-22.7219
-22.534
-23.3888
-22.5089
-22.0245
-22.8825
-21.7541
-20.7229
-21.4648
-21.2792
-21.9389
-21.215
-20.8085
-21.4353
-20.5392
-19.7137
-20.202
-19.8736
-19.4324
-19.6732
-19.4937
-19.5587
-19.2221
-18.9921
-18.7435
-18.7481
-19.0194
-18.3326
-18.4284
-19.113
-17.8337
-17.7538
-15.7266
-17.5144
-19.2485
-15.741
-24.7268
-39.8117
-37.0738
-34.271
-32.5273
-31.4619
-30.8085
-30.4284
-30.2528
-36.0746
-31.7087
-33.7558
-29.2372
-25.1504
-27.9219
-26.2339
-23.8194
-25.9497
-25.1063
-27.0909
-25.0933
-24.0509
-26.3131
-23.8828
-21.5735
-23.6586
-22.7808
-21.3351
-22.84
-22.3712
-23.7309
-22.4478
-21.7907
-23.2583
-21.7081
-20.3155
-21.549
-21.1376
-22.2036
-21.1588
-20.6205
-21.716
-20.4994
-19.4078
-20.2852
-19.8412
-19.243
-19.6821
-19.4091
-19.5821
-19.1431
-18.9047
-18.593
-18.6122
-19.0907
-18.0675
-18.2139
-19.3464
-17.4652
-17.7364
-14.5881
-17.0793
-19.5069
-12.7485
-23.6963
-44.0418
-38.3041
-34.6766
-32.7003
-31.5529
-30.8651
-30.4694
-30.2876
-37.3573
-31.074
-35.1425
-29.2175
-23.848
-28.5808
-26.2834
-22.903
-26.3123
-24.7018
-27.8389
-24.9572
-23.5183
-27.1824
-23.8419
-20.7018
-24.0749
-22.8143
-20.7293
-23.0735
-22.1034
-24.2199
-22.3509
-21.4371
-23.8028
-21.6544
-19.7646
-21.7299
-20.9114
-22.5859
-21.0739
-20.3405
-22.1261
-20.4537
-18.9943
-20.4456
-19.8196
-18.9982
-19.7342
-19.301
-19.642
-19.0554
-18.8255
-18.4287
-18.4542
-19.251
-17.7423
-17.9484
-19.7543
-16.9812
-17.9288
-13.1534
-16.6673
-20.3158
-8.79961
-22.1347
-49.6877
-39.354
-34.9633
-32.8147
-31.6116
-30.9012
-30.4955
-30.3096
-38.9366
-29.8874
-37.0289
-29.1669
-22.035
-29.6042
-26.3912
-21.6459
-26.94
-24.0492
-28.8917
-24.7461
-22.7229
-28.4066
-23.7922
-19.504
-24.7339
-22.8941
-19.9058
-23.4864
-21.679
-24.9155
-22.2047
-20.9133
-24.5748
-21.5916
-19.0286
-22.0659
-20.56
-23.1345
-20.9491
-19.9325
-22.7133
-20.4007
-18.4374
-20.7173
-19.8105
-18.6756
-19.8482
-19.1534
-19.7504
-18.9521
-18.7595
-18.2483
-18.2592
-19.5322
-17.3338
-17.6042
-20.4007
-16.31
-18.4326
-11.3157
-16.2657
-21.9382
-3.62725
-19.843
-57.2119
-40.0265
-35.1099
-32.8694
-31.6387
-30.9173
-30.5067
-30.3188
)
;

boundaryField
{
    left
    {
        type            calculated;
        value           nonuniform List<scalar> 
32
(
-26.4236
-26.446
-26.4887
-26.5499
-26.6283
-26.7229
-26.8331
-26.9584
-27.0986
-27.2539
-27.4246
-27.6111
-27.814
-28.0343
-28.273
-28.5312
-28.8104
-29.1122
-29.4384
-29.7912
-30.1732
-30.5874
-31.0379
-31.5302
-32.0715
-32.6723
-33.3475
-34.1181
-35.0135
-36.0746
-37.3573
-38.9366
)
;
    }
    right
    {
        type            calculated;
        value           nonuniform List<scalar> 
32
(
-25.7944
-25.829
-25.895
-25.9889
-26.1079
-26.2493
-26.4108
-26.5901
-26.7849
-26.9928
-27.2114
-27.4382
-27.6706
-27.9056
-28.1407
-28.373
-28.5997
-28.8184
-29.0266
-29.2222
-29.4036
-29.5692
-29.7181
-29.8497
-29.9638
-30.0605
-30.1404
-30.2042
-30.2528
-30.2876
-30.3096
-30.3188
)
;
    }
    interface
    {
        type            calculated;
        value           nonuniform List<scalar> 
64
(
-39.8111
-29.1317
-38.1174
-29.1332
-20.9825
-30.2225
-26.4615
-20.9192
-27.3335
-23.6483
-29.5061
-24.6191
-22.2488
-29.1206
-23.7648
-18.8118
-25.1345
-22.9472
-19.432
-23.7476
-21.4205
-25.324
-22.1174
-20.6016
-25.0259
-21.5581
-18.6093
-22.2821
-20.3475
-23.4579
-20.8752
-19.6916
-23.058
-20.3725
-18.1183
-20.8861
-19.8092
-18.4914
-19.9232
-19.0673
-19.8184
-18.8955
-18.7307
-18.1538
-18.1503
-19.7075
-17.1054
-17.4084
-20.7927
-15.9168
-18.7769
-10.2809
-16.065
-22.9902
-0.698424
-18.4863
-61.5085
-40.239
-35.1461
-32.8817
-31.6442
-30.9202
-30.5084
-30.32
)
;
    }
    bottom
    {
        type            calculated;
        value           nonuniform List<scalar> 
64
(
-26.4179
-26.3904
-26.3364
-26.2572
-26.1549
-26.0321
-25.8914
-25.7357
-25.5677
-25.39
-25.2049
-25.0147
-24.8212
-24.6262
-24.4311
-24.2373
-24.0459
-23.8577
-23.6736
-23.4942
-23.3199
-23.151
-22.9879
-22.8307
-22.6797
-22.5352
-22.3974
-22.2666
-22.1433
-22.028
-21.9211
-21.8234
-21.7356
-21.6584
-21.5929
-21.5401
-21.5011
-21.4769
-21.469
-21.4784
-21.5065
-21.5545
-21.6236
-21.7149
-21.8295
-21.968
-22.1308
-22.3178
-22.5283
-22.7608
-23.0131
-23.2819
-23.5628
-23.8506
-24.1394
-24.4227
-24.6937
-24.9459
-25.1732
-25.3705
-25.5332
-25.6581
-25.7427
-25.7853
)
;
    }
    defaultFaces
    {
        type            empty;
    }
}


// ************************************************************************* //
