/*--------------------------------*- C++ -*----------------------------------*\
| =========                 |                                                 |
| \\      /  F ield         | OpenFOAM: The Open Source CFD Toolbox           |
|  \\    /   O peration     | Version:  5.x                                   |
|   \\  /    A nd           | Web:      www.OpenFOAM.org                      |
|    \\/     M anipulation  |                                                 |
\*---------------------------------------------------------------------------*/
FoamFile
{
    version     2.0;
    format      ascii;
    class       volScalarField;
    location    "8.3";
    object      gradTx;
}
// * * * * * * * * * * * * * * * * * * * * * * * * * * * * * * * * * * * * * //

dimensions      [0 -1 0 1 0 0 0];

internalField   nonuniform List<scalar> 
3200
(
45.2116
3.71173
1.64867
1.54012
0.814937
0.771351
0.466725
0.447269
0.293827
0.282721
0.170835
0.166692
0.180697
0.180846
0.173154
0.172313
0.159531
0.158414
0.144289
0.143106
0.128819
0.12765
0.113845
0.11275
0.100208
0.099321
0.0901449
0.0901385
0.0950675
0.164736
0.0824894
0.0552486
0.0534204
0.0416727
0.0408455
0.0332483
0.0326895
0.026973
0.0265435
0.0219856
0.0216391
0.0179005
0.017613
0.0144656
0.0142185
0.0114509
0.0112239
0.00856194
0.00832326
0.00520131
0.00507055
0.00506967
0.00502206
0.00395733
0.00384429
0.00219413
0.00202871
-0.000277429
-0.000514807
-0.00387207
-0.00423441
-0.00950036
-0.0101055
-0.0191781
-0.0203261
-0.0381857
-0.0408585
-0.0840571
-0.0929818
-0.238837
-0.617569
-0.436415
-0.681926
-0.7133
-1.26871
-1.24308
-0.0558171
-0.00753233
-0.00152606
-52.9456
47.896
3.10511
1.57724
1.35446
0.774046
0.680995
0.436317
0.394716
0.271787
0.248194
0.160332
0.151487
0.160987
0.161195
0.155216
0.153442
0.14336
0.140996
0.129817
0.127311
0.115997
0.113517
0.102587
0.100268
0.090362
0.0884983
0.0814256
0.0815759
0.0883591
0.137354
0.0765906
0.0516091
0.0475379
0.0380061
0.0362323
0.0301757
0.0289872
0.024447
0.0235351
0.0199186
0.0191832
0.0162176
0.0156074
0.0131105
0.012586
0.0103893
0.00990727
0.00779289
0.00728913
0.00485259
0.00457475
0.00452937
0.00442539
0.00358492
0.00334535
0.00203674
0.0016855
-0.000147018
-0.000651604
-0.00332306
-0.00409412
-0.00829197
-0.00958221
-0.0168399
-0.0192986
-0.0337008
-0.0394908
-0.0750782
-0.0950039
-0.227181
-0.517945
-0.415036
-0.602323
-0.666918
-1.08546
-1.03179
-0.121892
-0.0209058
-0.0043882
-54.7417
50.5637
2.57634
1.4536
1.1831
0.713662
0.596704
0.397785
0.345416
0.245774
0.216238
0.146669
0.135548
0.141649
0.141791
0.137109
0.134904
0.12688
0.123929
0.114998
0.111867
0.10282
0.0997224
0.0909855
0.0880902
0.0801941
0.0778839
0.0724174
0.0727479
0.0799621
0.114361
0.0692604
0.0471332
0.0418738
0.0340291
0.0317903
0.0269083
0.0254189
0.0217759
0.0206348
0.0177363
0.0168165
0.0144404
0.0136772
0.0116764
0.0110203
0.00925909
0.00865594
0.0069594
0.00633229
0.0044175
0.00406964
0.00399142
0.00385816
0.00318846
0.00288917
0.00184104
0.00140153
-6.97314e-05
-0.000701733
-0.00285007
-0.00381677
-0.00719989
-0.00882024
-0.0146938
-0.0177933
-0.0295604
-0.0369313
-0.0667258
-0.0925361
-0.209182
-0.434069
-0.382049
-0.527628
-0.606379
-0.921094
-0.854749
-0.155611
-0.0309006
-0.00673397
-56.5378
53.2107
2.11313
1.29588
1.01969
0.639178
0.515691
0.353391
0.298007
0.216956
0.185883
0.130667
0.118921
0.12255
0.12258
0.118904
0.116599
0.110197
0.107103
0.0999475
0.09666
0.089406
0.0861533
0.0791498
0.0761121
0.0698028
0.0673957
0.0631772
0.0636445
0.0704777
0.0945492
0.0610113
0.0419825
0.0363131
0.0298279
0.0274541
0.0235052
0.0219367
0.0190047
0.0178047
0.0154749
0.0145081
0.0125987
0.0117965
0.0101885
0.00949883
0.00808255
0.00744832
0.00608312
0.00542695
0.00391973
0.00355374
0.00345565
0.00331237
0.00277717
0.00246293
0.00162099
0.00115882
-2.60232e-05
-0.000691216
-0.00242436
-0.00344277
-0.00617833
-0.00788815
-0.0126586
-0.0159414
-0.0255959
-0.0334748
-0.0585327
-0.0864348
-0.186853
-0.361269
-0.341158
-0.455607
-0.536401
-0.771973
-0.703021
-0.166353
-0.0368737
-0.00833409
-58.3336
55.8363
1.70405
1.11651
0.860459
0.554413
0.436231
0.304721
0.251624
0.186139
0.156494
0.112927
0.101678
0.103594
0.103518
0.100643
0.0984575
0.0933815
0.0904383
0.0847418
0.0816117
0.0758316
0.0727342
0.0671555
0.0642649
0.0592553
0.0569799
0.0537496
0.0542864
0.0603037
0.0770412
0.0521817
0.0362974
0.0307849
0.0254622
0.0231808
0.0200069
0.0185091
0.0161641
0.0150199
0.0131589
0.0122373
0.0107127
0.00994802
0.0086639
0.0080064
0.0068747
0.00626993
0.00517847
0.00455564
0.00337629
0.00302711
0.00292168
0.00278226
0.00235704
0.00205779
0.00138573
0.000945006
-3.10799e-06
-0.000637988
-0.00202723
-0.00300009
-0.0051978
-0.00683364
-0.0106829
-0.0138346
-0.0217023
-0.0293311
-0.0502259
-0.0774329
-0.161564
-0.296251
-0.294885
-0.384931
-0.460232
-0.635034
-0.570002
-0.160807
-0.0388091
-0.00906556
-60.1291
58.4417
1.33863
0.923884
0.703226
0.462133
0.357304
0.252915
0.205737
0.153889
0.127662
0.093894
0.0839092
0.084718
0.0845675
0.082355
0.0804317
0.0764808
0.0738841
0.0694335
0.0666693
0.0621499
0.0594144
0.0550537
0.0525024
0.0485985
0.0466023
0.0441713
0.0447091
0.0497009
0.0611971
0.0429931
0.0301974
0.0252491
0.0209748
0.0189432
0.0164415
0.0151153
0.0132755
0.0122637
0.0108054
0.00999068
0.00879622
0.00812031
0.0071142
0.00653293
0.00564577
0.005111
0.00425506
0.00370658
0.00279965
0.00249073
0.00238907
0.00226357
0.00193186
0.00166755
0.00114122
0.000751484
7.27194e-06
-0.000554591
-0.00164677
-0.00250842
-0.00423975
-0.0056906
-0.0087351
-0.0115391
-0.0178184
-0.0246568
-0.0416667
-0.0661541
-0.134254
-0.236674
-0.244955
-0.314845
-0.380083
-0.507688
-0.450749
-0.143773
-0.0370545
-0.00890347
-61.9244
61.0295
1.00744
0.723494
0.546811
0.364403
0.278359
0.198819
0.160037
0.120613
0.0991314
0.0739097
0.0657083
0.0658804
0.0656994
0.0640553
0.062487
0.059526
0.057404
0.0540577
0.0517971
0.0483969
0.0461595
0.0428795
0.040794
0.0378653
0.036242
0.0344742
0.0349535
0.0388379
0.0465409
0.0335882
0.0237834
0.0196864
0.0163977
0.0147244
0.0128291
0.0117421
0.0103538
0.00952537
0.00842605
0.0077592
0.00685902
0.00630579
0.00554749
0.00507167
0.00440273
0.0039649
0.00331934
0.00287185
0.00219907
0.00194604
0.0018574
0.00175312
0.00150397
0.00128778
0.00089124
0.000572136
1.0353e-05
-0.000449985
-0.00127554
-0.00198196
-0.00329293
-0.00448381
-0.00679694
-0.00910469
-0.0139121
-0.0195756
-0.0328083
-0.0531308
-0.10557
-0.180864
-0.192561
-0.244946
-0.29744
-0.387724
-0.341498
-0.118729
-0.0321571
-0.00790556
-63.7193
63.6031
0.701909
0.518814
0.390625
0.262819
0.199154
0.143094
0.114362
0.0866204
0.0707504
0.0532446
0.0471725
0.0470569
0.04689
0.0457526
0.044598
0.0425376
0.0409728
0.0386385
0.0369706
0.0345973
0.0329464
0.0306575
0.0291193
0.0270799
0.0258876
0.0246872
0.0250618
0.0278221
0.032711
0.0240573
0.0171411
0.0140913
0.011756
0.0105144
0.00918435
0.00838084
0.00740965
0.00679785
0.00602941
0.00553705
0.00490793
0.00449947
0.00396948
0.00361813
0.00315043
0.0028271
0.00237569
0.00204613
0.0015817
0.00139478
0.00132635
0.00124846
0.00107477
0.000915232
0.000638157
0.000402491
9.37245e-06
-0.000330774
-0.000909069
-0.00143132
-0.00235091
-0.00323213
-0.00485899
-0.00657026
-0.00997151
-0.0141917
-0.0236663
-0.0388228
-0.0759726
-0.127597
-0.13854
-0.175043
-0.213285
-0.27322
-0.239308
-0.0882376
-0.0247669
-0.0061948
-65.514
66.1661
0.414173
0.311937
0.234424
0.158669
0.119644
0.0862753
0.0686483
0.0521526
0.0424349
0.0321221
0.0283984
0.0282355
0.0281193
0.0274505
0.0267452
0.0255294
0.0245725
0.0231926
0.0221722
0.0207688
0.0197587
0.0184054
0.0174646
0.0162606
0.0155334
0.0148372
0.0150746
0.0167211
0.0194227
0.0144569
0.0103442
0.00846765
0.00707049
0.00630796
0.00551852
0.00502631
0.00445112
0.00407659
0.00362173
0.00332035
0.00294801
0.002698
0.00238431
0.00216924
0.00189236
0.00169443
0.00142716
0.00122579
0.000953228
0.000838772
0.000795683
0.000747623
0.000644991
0.000547376
0.000383414
0.000239141
6.27032e-06
-0.000202039
-0.000544845
-0.000864794
-0.00141042
-0.00195064
-0.00291766
-0.00396823
-0.00599819
-0.00859763
-0.0142971
-0.0236351
-0.045796
-0.075957
-0.0834967
-0.105069
-0.128262
-0.162471
-0.141805
-0.0542419
-0.0155808
-0.00394237
-67.3085
68.7227
0.136906
0.104071
0.0781522
0.053049
0.0399089
0.028827
0.0228889
0.0174136
0.0141431
0.0107361
0.00948194
0.00941221
0.0093707
0.00914996
0.00891288
0.00851088
0.00818903
0.00773239
0.00738911
0.0069246
0.0065848
0.0061369
0.00582044
0.00542226
0.00517802
0.00494986
0.00503109
0.00557792
0.00644115
0.00482236
0.00345782
0.00282479
0.00235961
0.00210259
0.00184079
0.00167511
0.00148457
0.00135854
0.0012079
0.00110649
0.000983194
0.00089907
0.00079519
0.000722824
0.000631121
0.000564517
0.000475999
0.000408302
0.000318428
0.000279909
0.000265207
0.000248972
0.000215012
0.000182173
0.000127881
7.93324e-05
2.18415e-06
-6.79262e-05
-0.000181536
-0.000289241
-0.000470154
-0.000652065
-0.000972995
-0.00132702
-0.00200209
-0.00287955
-0.00478236
-0.00793455
-0.0152994
-0.0252223
-0.0278918
-0.0350315
-0.0427986
-0.0539162
-0.0469785
-0.0182901
-0.0053138
-0.00135233
-69.1028
68.7146
0.150884
0.128426
0.107467
0.0852101
0.0726952
0.0607371
0.0533354
0.0448801
0.038761
0.0310044
0.0281933
0.0283066
0.0282051
0.0273717
0.026474
0.0249585
0.023772
0.0221283
0.0209349
0.0193789
0.0182836
0.0168971
0.0159516
0.0148068
0.0141303
0.0135406
0.0138389
0.0155184
0.0181057
0.0137287
0.0100715
0.00839213
0.00718093
0.00651461
0.00583598
0.00540287
0.00489863
0.00456035
0.00414916
0.00386784
0.00351941
0.0032774
0.00297244
0.00275514
0.00247254
0.00225983
0.00196609
0.00173026
0.00140773
0.00129497
0.00131283
0.00131465
0.00128195
0.00124339
0.00117558
0.00112144
0.00104508
0.000988408
0.000912471
0.000855641
0.000777525
0.00071202
0.000608884
0.000494792
0.000268771
-7.46392e-05
-0.000891851
-0.00243059
-0.00621708
-0.0117852
-0.0150693
-0.0220551
-0.0294901
-0.0404343
-0.0360478
-0.0140878
-0.00409763
-0.00104318
-69.8075
66.1414
0.45602
0.385217
0.322453
0.255241
0.218063
0.182029
0.160048
0.134547
0.116348
0.0928154
0.0844628
0.0849284
0.0846445
0.0821177
0.0794466
0.0748623
0.0713343
0.0663668
0.0628194
0.0581183
0.0548625
0.0506736
0.0478626
0.0444017
0.0423874
0.0405862
0.0414615
0.046519
0.0545958
0.0411573
0.0301353
0.0251577
0.021521
0.0195443
0.0174981
0.0162115
0.0146892
0.013684
0.0124423
0.0116062
0.010554
0.00983473
0.00891383
0.00826805
0.00741482
0.00678274
0.00589595
0.00519425
0.00421482
0.0038797
0.00393913
0.00394534
0.00384608
0.00373133
0.00352621
0.0033652
0.00313446
0.002966
0.00273665
0.00256778
0.00233207
0.00213757
0.00182709
0.00148886
0.000811013
-0.000204962
-0.00264669
-0.00720185
-0.01858
-0.0354469
-0.0450599
-0.0661474
-0.0883298
-0.121916
-0.108846
-0.0417847
-0.0120155
-0.00304119
-69.4223
63.5607
0.77135
0.641687
0.537617
0.42407
0.363386
0.302759
0.266902
0.223922
0.194149
0.154019
0.14038
0.14158
0.141174
0.136869
0.132496
0.124724
0.118954
0.110549
0.10475
0.0967999
0.0914787
0.084395
0.0797998
0.0739388
0.070636
0.0675247
0.0689169
0.0773989
0.0919465
0.0684894
0.0499573
0.0418696
0.0357947
0.0325768
0.0291299
0.0270295
0.0244592
0.0228171
0.0207192
0.0193532
0.0175752
0.0164001
0.0148442
0.0137893
0.0123483
0.0113159
0.00981843
0.00866936
0.00699614
0.00644865
0.00656757
0.00658027
0.00641085
0.0062229
0.00587509
0.00561176
0.00522136
0.00494603
0.00455843
0.0042826
0.00388499
0.00356777
0.00304642
0.00249652
0.00136679
-0.000278243
-0.00431697
-0.0117002
-0.0307233
-0.0593988
-0.0745915
-0.110196
-0.146713
-0.205264
-0.183805
-0.0679899
-0.0191015
-0.00477893
-69.0371
60.968
1.10395
0.897133
0.75316
0.590784
0.508706
0.422497
0.374041
0.312768
0.272364
0.214163
0.195703
0.198296
0.197859
0.191624
0.185681
0.174506
0.16668
0.154626
0.146767
0.135376
0.128165
0.118017
0.111788
0.103374
0.0988769
0.0942832
0.0960887
0.108036
0.130817
0.0956245
0.0693617
0.0585011
0.0499542
0.0456186
0.0407079
0.0378664
0.0341921
0.0319684
0.0289669
0.0271168
0.0245724
0.0229808
0.0207546
0.019326
0.0172654
0.0158676
0.013727
0.0121655
0.00973246
0.00899097
0.00920028
0.0092225
0.00897638
0.00872089
0.0082206
0.00786343
0.00730368
0.00693058
0.00637575
0.00600231
0.0054347
0.00500615
0.00426691
0.00352738
0.0019432
-0.000255757
-0.00585346
-0.0157329
-0.0424804
-0.0838899
-0.103306
-0.154208
-0.204215
-0.291813
-0.262537
-0.091518
-0.0248049
-0.00609905
-68.6517
58.3588
1.4613
1.15007
0.969439
0.754287
0.654191
0.540726
0.481692
0.400779
0.351292
0.272718
0.250184
0.255134
0.254776
0.246367
0.239075
0.224153
0.214574
0.198536
0.188925
0.173786
0.16497
0.151482
0.143863
0.132652
0.127122
0.120786
0.122855
0.13824
0.172008
0.122402
0.0881501
0.0750401
0.0639453
0.0586834
0.0522032
0.0487367
0.043867
0.041151
0.0371687
0.0349082
0.0315316
0.029587
0.0266332
0.024888
0.0221561
0.0204491
0.0176124
0.0156965
0.0124011
0.0114953
0.0118405
0.0118755
0.0115423
0.0112287
0.0105604
0.0101232
0.00937857
0.00892243
0.00818585
0.00772982
0.00697888
0.00645698
0.00548744
0.00459207
0.00254422
-9.72927e-05
-0.00721864
-0.0190908
-0.053651
-0.109261
-0.130762
-0.198255
-0.260214
-0.383036
-0.346939
-0.110874
-0.028588
-0.00686942
-68.2661
55.7294
1.85141
1.39777
1.1871
0.913187
0.800211
0.656778
0.590219
0.487534
0.431382
0.329031
0.303566
0.312184
0.312015
0.301065
0.292775
0.273587
0.262727
0.242189
0.231304
0.211942
0.201961
0.184713
0.176082
0.161703
0.155399
0.146952
0.149089
0.167709
0.216533
0.148567
0.106093
0.0914987
0.0777032
0.071797
0.0635781
0.0596631
0.0534559
0.0503842
0.0453016
0.0427443
0.0384335
0.0362335
0.0324635
0.0304896
0.0270059
0.0250758
0.0214611
0.0192827
0.0149743
0.0139496
0.0144932
0.0145433
0.0141075
0.0137507
0.012891
0.0123954
0.0114419
0.0109255
0.00998476
0.00946916
0.00851393
0.00792576
0.00670504
0.00570288
0.00316903
0.000240401
-0.00839374
-0.0215412
-0.0639796
-0.135996
-0.156378
-0.242524
-0.313778
-0.480616
-0.43934
-0.124078
-0.0299484
-0.00699506
-67.8803
53.0766
2.28286
1.63576
1.40729
1.06565
0.947449
0.769754
0.70019
0.572427
0.513321
0.382269
0.355584
0.369585
0.369685
0.355657
0.346911
0.322688
0.311268
0.285455
0.274022
0.249724
0.239243
0.217599
0.208531
0.190431
0.183762
0.172696
0.174663
0.19597
0.26573
0.173711
0.122921
0.107925
0.0911456
0.0850033
0.0747809
0.0706814
0.0629195
0.0596981
0.0533336
0.0506506
0.0452511
0.042943
0.038222
0.0361516
0.0317935
0.0297701
0.0252524
0.0229542
0.0174162
0.0163412
0.0171656
0.0172305
0.0166696
0.016293
0.0152072
0.0146859
0.0134879
0.0129457
0.0117667
0.0112261
0.0100343
0.00941988
0.00791393
0.006875
0.00380967
0.000806361
-0.00938826
-0.0228198
-0.0731249
-0.164796
-0.179363
-0.287388
-0.363518
-0.58652
-0.5427
-0.128438
-0.0284617
-0.00643119
-67.4943
50.3993
2.76483
1.85701
1.632
1.20917
1.09707
0.878406
0.81249
0.654574
0.598137
0.431332
0.405976
0.427542
0.427921
0.410038
0.401666
0.371277
0.360384
0.328147
0.317255
0.286953
0.276972
0.249982
0.241341
0.218702
0.212301
0.197918
0.199464
0.222293
0.321398
0.197207
0.138317
0.124424
0.104163
0.0983729
0.0857389
0.0818463
0.0722015
0.0691377
0.0612185
0.0586658
0.0519451
0.049749
0.0438746
0.0419052
0.0364879
0.0345641
0.028955
0.0267553
0.0196795
0.0186569
0.0198685
0.0199428
0.0192244
0.0188636
0.0175007
0.0170035
0.0155077
0.0149913
0.0135232
0.0130092
0.0115317
0.0109497
0.00910418
0.00812823
0.00444787
0.00166003
-0.0102532
-0.0226235
-0.0806155
-0.19668
-0.198609
-0.333528
-0.407383
-0.703097
-0.660877
-0.120225
-0.0238572
-0.00519682
-67.108
47.6983
3.30681
2.05094
1.86463
1.34027
1.25095
0.980947
0.928469
0.732662
0.687368
0.474737
0.45449
0.486347
0.486887
0.464039
0.457301
0.419087
0.410354
0.369985
0.361265
0.323369
0.315381
0.281632
0.274712
0.246324
0.24116
0.222503
0.223414
0.245566
0.385999
0.218091
0.151913
0.141177
0.116601
0.112016
0.0963474
0.0932415
0.0812205
0.0787717
0.0688888
0.0668477
0.0584583
0.0567023
0.0493711
0.0477969
0.0410427
0.0395057
0.0325213
0.0307516
0.0217009
0.0208833
0.022617
0.022687
0.0217649
0.0214744
0.0197598
0.0193611
0.0174883
0.0170751
0.0152415
0.0148309
0.0129933
0.0125301
0.0102597
0.00948968
0.00505044
0.00287877
-0.0110999
-0.0206021
-0.0857831
-0.233129
-0.212536
-0.382111
-0.442374
-0.833192
-0.798992
-0.0942419
-0.0161443
-0.00338673
-66.7216
44.978
3.91822
2.20209
2.11079
1.45397
1.41205
1.07479
1.05018
0.80473
0.783293
0.510446
0.50092
0.546405
0.546789
0.517395
0.514196
0.465717
0.461589
0.410557
0.406442
0.358589
0.354821
0.312208
0.308941
0.273017
0.270559
0.246305
0.246515
0.264107
0.462933
0.234905
0.163292
0.158484
0.12824
0.126104
0.106454
0.104993
0.0898567
0.0887033
0.0762456
0.0752838
0.0647063
0.0638788
0.0546375
0.0538959
0.0453889
0.0446652
0.0358791
0.0350392
0.023393
0.0230078
0.0254321
0.0254708
0.0242803
0.0241422
0.0219663
0.0217778
0.0194107
0.0192157
0.016903
0.0167097
0.0144
0.0141829
0.0113553
0.010998
0.00556236
0.00456986
-0.0121255
-0.0163536
-0.0876639
-0.276296
-0.218856
-0.435065
-0.464142
-0.980286
-0.963928
-0.0431921
-0.0058179
-0.00117782
-66.3351
44.978
3.91822
2.20209
2.11078
1.45397
1.41205
1.07479
1.05018
0.80473
0.783293
0.510447
0.50092
0.546405
0.546789
0.517395
0.514196
0.465717
0.461589
0.410557
0.406442
0.35859
0.354821
0.312208
0.308942
0.273017
0.270559
0.246306
0.246515
0.264107
0.462934
0.234906
0.163293
0.158484
0.12824
0.126104
0.106454
0.104994
0.089857
0.0887035
0.0762458
0.075284
0.0647065
0.063879
0.0546377
0.053896
0.045389
0.0446654
0.0358792
0.0350393
0.023393
0.0230078
0.0254322
0.0254709
0.0242804
0.0241423
0.0219664
0.0217779
0.0194108
0.0192158
0.0169032
0.0167098
0.0144001
0.014183
0.0113554
0.0109981
0.00556246
0.00456996
-0.0121254
-0.0163535
-0.0876639
-0.276296
-0.218856
-0.435066
-0.464143
-0.980286
-0.963928
-0.0431921
-0.0058179
-0.00117784
-66.3351
47.6982
3.30681
2.05094
1.86463
1.34027
1.25095
0.980947
0.928469
0.732662
0.687368
0.474737
0.45449
0.486347
0.486887
0.464039
0.457301
0.419087
0.410354
0.369985
0.361265
0.323369
0.315381
0.281632
0.274712
0.246324
0.24116
0.222503
0.223415
0.245566
0.385999
0.218091
0.151914
0.141177
0.116601
0.112017
0.0963477
0.0932417
0.0812207
0.078772
0.068889
0.0668479
0.0584585
0.0567026
0.0493713
0.0477971
0.0410428
0.0395058
0.0325214
0.0307517
0.0217009
0.0208834
0.0226171
0.022687
0.021765
0.0214745
0.0197599
0.0193613
0.0174884
0.0170752
0.0152416
0.014831
0.0129934
0.0125302
0.0102598
0.00948978
0.00505054
0.00287887
-0.0110998
-0.0206021
-0.0857831
-0.233129
-0.212536
-0.382111
-0.442375
-0.833192
-0.798992
-0.0942419
-0.0161443
-0.00338671
-66.7216
50.3993
2.76483
1.85701
1.632
1.20917
1.09707
0.878406
0.81249
0.654574
0.598137
0.431332
0.405976
0.427542
0.427921
0.410038
0.401666
0.371277
0.360384
0.328147
0.317255
0.286953
0.276972
0.249982
0.241342
0.218702
0.212302
0.197918
0.199465
0.222294
0.321399
0.197207
0.138317
0.124424
0.104163
0.0983732
0.0857392
0.0818466
0.0722017
0.069138
0.0612187
0.058666
0.0519453
0.0497492
0.0438748
0.0419054
0.0364881
0.0345643
0.0289551
0.0267554
0.0196796
0.018657
0.0198686
0.0199429
0.0192245
0.0188637
0.0175009
0.0170036
0.0155078
0.0149914
0.0135233
0.0130093
0.0115318
0.0109498
0.00910428
0.00812832
0.00444796
0.00166011
-0.0102532
-0.0226234
-0.0806156
-0.19668
-0.19861
-0.333529
-0.407384
-0.703098
-0.660877
-0.120225
-0.0238572
-0.00519676
-67.108
53.0766
2.28286
1.63576
1.40729
1.06565
0.947449
0.769754
0.70019
0.572427
0.513321
0.382269
0.355584
0.369585
0.369685
0.355657
0.346911
0.322688
0.311268
0.285455
0.274022
0.249724
0.239243
0.217599
0.208531
0.190431
0.183763
0.172696
0.174663
0.195971
0.26573
0.173712
0.122921
0.107926
0.0911459
0.0850035
0.0747811
0.0706816
0.0629197
0.0596983
0.0533338
0.0506508
0.0452513
0.0429431
0.0382222
0.0361517
0.0317937
0.0297702
0.0252525
0.0229543
0.0174162
0.0163413
0.0171657
0.0172306
0.0166697
0.016293
0.0152072
0.014686
0.013488
0.0129457
0.0117668
0.0112262
0.0100344
0.00941996
0.00791401
0.00687508
0.00380974
0.000806435
-0.0093882
-0.0228198
-0.073125
-0.164796
-0.179363
-0.287389
-0.363519
-0.58652
-0.5427
-0.128438
-0.0284617
-0.00643109
-67.4943
55.7293
1.8514
1.39777
1.1871
0.913187
0.800211
0.656778
0.590219
0.487534
0.431382
0.329031
0.303566
0.312184
0.312015
0.301065
0.292775
0.273587
0.262727
0.242189
0.231304
0.211943
0.201961
0.184713
0.176082
0.161703
0.155399
0.146953
0.149089
0.167709
0.216533
0.148567
0.106093
0.0914989
0.0777034
0.0717972
0.0635783
0.0596633
0.0534561
0.0503844
0.0453017
0.0427444
0.0384337
0.0362337
0.0324636
0.0304897
0.027006
0.025076
0.0214612
0.0192828
0.0149744
0.0139496
0.0144932
0.0145433
0.0141076
0.0137508
0.0128911
0.0123955
0.011442
0.0109256
0.00998483
0.00946923
0.008514
0.00792583
0.0067051
0.00570295
0.00316909
0.000240461
-0.00839369
-0.0215412
-0.0639797
-0.135996
-0.156378
-0.242524
-0.313778
-0.480616
-0.43934
-0.124078
-0.0299484
-0.00699494
-67.8803
58.3588
1.4613
1.15007
0.969439
0.754286
0.654191
0.540726
0.481692
0.400779
0.351292
0.272718
0.250184
0.255134
0.254776
0.246367
0.239075
0.224153
0.214574
0.198536
0.188925
0.173786
0.16497
0.151482
0.143863
0.132652
0.127122
0.120786
0.122855
0.13824
0.172008
0.122403
0.0881504
0.0750404
0.0639455
0.0586836
0.0522034
0.0487368
0.0438672
0.0411511
0.0371688
0.0349083
0.0315317
0.0295871
0.0266333
0.0248881
0.0221562
0.0204492
0.0176125
0.0156965
0.0124012
0.0114953
0.0118405
0.0118755
0.0115424
0.0112288
0.0105605
0.0101233
0.00937863
0.00892249
0.00818591
0.00772988
0.00697894
0.00645704
0.0054875
0.00459212
0.00254427
-9.72469e-05
-0.0072186
-0.0190908
-0.0536511
-0.109261
-0.130762
-0.198255
-0.260214
-0.383036
-0.346939
-0.110874
-0.028588
-0.00686929
-68.2661
60.968
1.10395
0.897133
0.75316
0.590784
0.508706
0.422497
0.374041
0.312768
0.272364
0.214163
0.195703
0.198296
0.197859
0.191624
0.185681
0.174506
0.16668
0.154626
0.146767
0.135377
0.128166
0.118017
0.111788
0.103374
0.0988771
0.0942834
0.0960888
0.108036
0.130818
0.0956247
0.0693619
0.0585013
0.0499543
0.0456187
0.0407081
0.0378665
0.0341922
0.0319685
0.028967
0.0271169
0.0245725
0.0229809
0.0207547
0.0193261
0.0172655
0.0158677
0.0137271
0.0121655
0.0097325
0.008991
0.00920031
0.00922253
0.00897642
0.00872094
0.00822065
0.00786348
0.00730373
0.00693063
0.0063758
0.00600236
0.00543474
0.00500619
0.00426696
0.00352743
0.00194324
-0.000255724
-0.00585344
-0.0157329
-0.0424805
-0.08389
-0.103307
-0.154208
-0.204216
-0.291813
-0.262537
-0.091518
-0.0248049
-0.00609893
-68.6517
63.5607
0.771349
0.641687
0.537617
0.424069
0.363386
0.302759
0.266902
0.223922
0.194149
0.154019
0.14038
0.14158
0.141174
0.136869
0.132496
0.124724
0.118954
0.110549
0.10475
0.0968
0.0914787
0.0843951
0.0797998
0.0739389
0.070636
0.0675248
0.068917
0.077399
0.0919467
0.0684896
0.0499575
0.0418697
0.0357948
0.0325769
0.02913
0.0270296
0.0244593
0.0228171
0.0207193
0.0193533
0.0175753
0.0164002
0.0148443
0.0137893
0.0123483
0.0113159
0.00981847
0.0086694
0.00699617
0.00644867
0.00656759
0.00658029
0.00641088
0.00622293
0.00587512
0.0056118
0.0052214
0.00494607
0.00455846
0.00428263
0.00388502
0.0035678
0.00304645
0.00249654
0.00136682
-0.000278222
-0.00431696
-0.0117002
-0.0307233
-0.0593989
-0.0745916
-0.110196
-0.146714
-0.205264
-0.183805
-0.0679899
-0.0191015
-0.00477883
-69.0371
66.1414
0.456019
0.385217
0.322453
0.25524
0.218063
0.182029
0.160048
0.134547
0.116348
0.0928154
0.0844628
0.0849285
0.0846445
0.0821177
0.0794466
0.0748624
0.0713344
0.0663668
0.0628194
0.0581183
0.0548625
0.0506736
0.0478627
0.0444018
0.0423874
0.0405862
0.0414616
0.0465191
0.0545959
0.0411575
0.0301354
0.0251577
0.0215211
0.0195444
0.0174982
0.0162115
0.0146893
0.013684
0.0124423
0.0116062
0.010554
0.00983476
0.00891386
0.00826808
0.00741485
0.00678277
0.00589597
0.00519427
0.00421483
0.00387971
0.00393914
0.00394536
0.0038461
0.00373135
0.00352623
0.00336522
0.00313448
0.00296602
0.00273667
0.0025678
0.00233209
0.00213759
0.00182711
0.00148887
0.000811027
-0.00020495
-0.00264668
-0.00720186
-0.01858
-0.035447
-0.04506
-0.0661475
-0.0883299
-0.121916
-0.108846
-0.0417847
-0.0120155
-0.00304111
-69.4223
68.7146
0.150883
0.128426
0.107467
0.08521
0.0726952
0.060737
0.0533354
0.0448801
0.038761
0.0310044
0.0281933
0.0283066
0.0282051
0.0273717
0.026474
0.0249585
0.023772
0.0221283
0.020935
0.0193789
0.0182836
0.0168971
0.0159516
0.0148068
0.0141303
0.0135406
0.0138389
0.0155185
0.0181058
0.0137287
0.0100715
0.00839215
0.00718095
0.00651462
0.005836
0.00540289
0.00489864
0.00456036
0.00414917
0.00386785
0.00351942
0.00327741
0.00297245
0.00275515
0.00247255
0.00225984
0.00196609
0.00173027
0.00140774
0.00129498
0.00131283
0.00131466
0.00128195
0.00124339
0.00117559
0.00112144
0.00104509
0.000988413
0.000912477
0.000855647
0.000777531
0.000712026
0.000608889
0.000494797
0.000268776
-7.46359e-05
-0.00089185
-0.00243059
-0.00621709
-0.0117852
-0.0150693
-0.0220552
-0.0294901
-0.0404344
-0.0360478
-0.0140878
-0.00409763
-0.00104315
-69.8075
68.7223
0.136739
0.103793
0.0777588
0.0524418
0.0390531
0.0275025
0.0210891
0.0150022
0.0125849
0.011923
0.011573
0.0110198
0.0105817
0.00996781
0.00952183
0.00893946
0.00852142
0.00797815
0.00758714
0.00707749
0.00671204
0.00623885
0.00590766
0.00549452
0.00524168
0.00500527
0.00508366
0.00563182
0.00650055
0.0048653
0.00348721
0.00284795
0.0023783
0.00211889
0.00185475
0.00168764
0.00149551
0.00136845
0.00121662
0.00111442
0.000990184
0.000905432
0.000800792
0.000727906
0.000635556
0.00056849
0.000479369
0.000411214
0.000320741
0.000281995
0.000267278
0.000251014
0.000216964
0.000184037
0.000129606
8.09502e-05
3.65814e-06
-6.65549e-05
-0.000180296
-0.000288093
-0.00046912
-0.000651111
-0.000972138
-0.00132623
-0.00200138
-0.00287889
-0.00478175
-0.00793394
-0.0152988
-0.0252216
-0.0278913
-0.0350311
-0.0427984
-0.053916
-0.0469783
-0.0182901
-0.00531378
-0.00135228
-69.1028
66.1648
0.413671
0.311103
0.233248
0.156848
0.117086
0.0823021
0.0632541
0.04486
0.0376844
0.0357565
0.0347271
0.0330549
0.0317521
0.0298967
0.028571
0.0268118
0.0255693
0.0239283
0.0227662
0.0212267
0.0201404
0.0187109
0.0177262
0.0164772
0.0157244
0.0150032
0.0152322
0.0168826
0.0196018
0.0145856
0.0104321
0.00853705
0.0071265
0.00635687
0.00556038
0.00506392
0.00448392
0.00410634
0.00364786
0.00334414
0.00296897
0.00271709
0.0024011
0.00218449
0.00190566
0.00170635
0.00143727
0.00123453
0.000960154
0.000845023
0.000801894
0.000753754
0.000650845
0.00055297
0.000388585
0.000243996
1.06908e-05
-0.000197924
-0.000541127
-0.00086135
-0.00140732
-0.00194777
-0.00291509
-0.00396585
-0.00599605
-0.00859564
-0.0142953
-0.0236333
-0.0457941
-0.0759548
-0.0834951
-0.105068
-0.128261
-0.16247
-0.141805
-0.0542417
-0.0155807
-0.00394226
-67.3085
63.601
0.701073
0.517424
0.388678
0.259789
0.194919
0.136472
0.105393
0.0742689
0.062574
0.0595541
0.057907
0.0550751
0.0529446
0.0498044
0.0476374
0.0446635
0.0426331
0.0398594
0.0379603
0.0353578
0.0335826
0.0311651
0.0295554
0.0274399
0.0262058
0.0249631
0.0253238
0.0280907
0.0330125
0.0242714
0.0172866
0.0142068
0.0118491
0.0105959
0.009254
0.00844353
0.00746424
0.00684745
0.00607292
0.00557672
0.00494282
0.00453131
0.00399744
0.00364357
0.00317257
0.002847
0.00239251
0.00206072
0.00159319
0.00140517
0.00133671
0.00125868
0.00108452
0.000924561
0.000646771
0.000410588
1.67342e-05
-0.000323911
-0.000902879
-0.00142558
-0.00234575
-0.00322736
-0.00485471
-0.0065663
-0.00996795
-0.0141884
-0.0236633
-0.0388198
-0.0759694
-0.127593
-0.138538
-0.175041
-0.213283
-0.273219
-0.239308
-0.0882373
-0.0247668
-0.00619463
-65.514
61.0266
1.00628
0.721549
0.544115
0.360169
0.272496
0.189548
0.147534
0.102901
0.0871165
0.0832968
0.0811342
0.0770673
0.0741776
0.0696732
0.0667362
0.0624774
0.0597266
0.0557555
0.0531825
0.0494558
0.0470504
0.043587
0.0414048
0.0383675
0.0366876
0.0348589
0.0353192
0.0392125
0.0469697
0.0338869
0.0239849
0.0198476
0.0165274
0.0148385
0.0129264
0.0118299
0.01043
0.00959487
0.00848683
0.0078148
0.00690777
0.00635041
0.00558656
0.00510732
0.00443366
0.0039928
0.00334284
0.00289233
0.00221505
0.00196053
0.0018719
0.00176745
0.00151763
0.00130086
0.000903289
0.000583484
2.06467e-05
-0.000440367
-0.00126688
-0.00197391
-0.00328572
-0.00447712
-0.00679095
-0.00909914
-0.0139071
-0.019571
-0.032804
-0.0531266
-0.105566
-0.180858
-0.192558
-0.244944
-0.297438
-0.387723
-0.341497
-0.118729
-0.032157
-0.00790538
-63.7193
58.438
1.33715
0.921381
0.699811
0.456698
0.349884
0.240986
0.189779
0.130379
0.111181
0.106973
0.104438
0.0990125
0.0954751
0.0894793
0.0858878
0.080231
0.0768689
0.0715956
0.0684509
0.0635009
0.0605605
0.0559576
0.0532884
0.0492407
0.0471753
0.0446631
0.0451773
0.0501798
0.0617604
0.0433752
0.0304525
0.0254557
0.0211405
0.01909
0.0165661
0.0152284
0.0133732
0.0123532
0.0108833
0.0100623
0.00885872
0.00817777
0.0071643
0.00657884
0.00568543
0.00514696
0.00428519
0.003733
0.00281999
0.00250925
0.00240772
0.00228203
0.00194941
0.00168439
0.00115669
0.000766097
2.04824e-05
-0.000542207
-0.00163567
-0.00249805
-0.0042305
-0.00568198
-0.00872743
-0.011532
-0.017812
-0.0246508
-0.0416612
-0.0661487
-0.134248
-0.236667
-0.24495
-0.314842
-0.380081
-0.507686
-0.450748
-0.143773
-0.0370543
-0.00890329
-61.9243
55.8318
1.70225
1.11345
0.85637
0.547775
0.427355
0.290116
0.232352
0.156248
0.134645
0.130583
0.127857
0.120882
0.116871
0.109189
0.105122
0.0978929
0.0940876
0.0873506
0.0837915
0.0774656
0.0741371
0.0682508
0.0652271
0.0600345
0.0576809
0.0543463
0.0548558
0.0608839
0.0777497
0.0526449
0.0366032
0.0310366
0.025663
0.0233604
0.0201583
0.0186475
0.016283
0.0151295
0.0132538
0.012325
0.0107888
0.0100184
0.0087249
0.00806267
0.006923
0.00631404
0.00521514
0.0045881
0.00340084
0.00304959
0.00294451
0.00280488
0.00237848
0.00207842
0.00140461
0.000962906
1.29961e-05
-0.000622821
-0.0020137
-0.00298739
-0.00518653
-0.00682309
-0.0106735
-0.0138258
-0.0216946
-0.0293238
-0.0502193
-0.0774264
-0.161557
-0.296242
-0.294879
-0.384927
-0.460229
-0.635032
-0.57
-0.160806
-0.038809
-0.0090654
-60.1291
53.2055
2.11104
1.29224
1.01499
0.631326
0.505499
0.336067
0.275659
0.179938
0.157408
0.154139
0.151446
0.142633
0.138414
0.128755
0.124483
0.115418
0.111424
0.102978
0.0992427
0.0913104
0.087816
0.0804296