/*--------------------------------*- C++ -*----------------------------------*\
| =========                 |                                                 |
| \\      /  F ield         | OpenFOAM: The Open Source CFD Toolbox           |
|  \\    /   O peration     | Version:  5.x                                   |
|   \\  /    A nd           | Web:      www.OpenFOAM.org                      |
|    \\/     M anipulation  |                                                 |
\*---------------------------------------------------------------------------*/
FoamFile
{
    version     2.0;
    format      ascii;
    class       volScalarField;
    location    "8.3";
    object      T;
}
// * * * * * * * * * * * * * * * * * * * * * * * * * * * * * * * * * * * * * //

dimensions      [0 0 0 1 0 0 0];

internalField   nonuniform List<scalar> 
3200
(
2.08501
2.43615
2.45618
2.60102
2.61019
2.68251
2.68733
2.72918
2.73205
2.75857
2.76033
2.77565
2.77699
2.79372
2.79508
2.81103
2.81231
2.82699
2.82815
2.84142
2.84246
2.8543
2.85523
2.86568
2.8665
2.8757
2.87643
2.88472
2.88545
2.89422
2.90192
2.90247
2.90745
2.90782
2.91161
2.9119
2.91494
2.91517
2.91764
2.91782
2.91983
2.91999
2.92162
2.92175
2.92307
2.92317
2.92422
2.92429
2.92507
2.92513
2.92559
2.92563
2.9261
2.92613
2.9265
2.92652
2.92672
2.92672
2.92669
2.92667
2.9263
2.92625
2.92535
2.92524
2.92343
2.9232
2.91961
2.91912
2.91121
2.90982
2.88732
2.84806
2.84368
2.77987
2.77235
2.653
2.64804
2.64742
2.64729
2.64726
2.26047
2.52913
2.57098
2.68685
2.70643
2.76426
2.77452
2.80789
2.814
2.83507
2.83882
2.8511
2.85396
2.8672
2.87008
2.88272
2.88543
2.89706
2.89953
2.91004
2.91226
2.92164
2.92361
2.9319
2.93364
2.94093
2.94249
2.94908
2.95064
2.95791
2.96438
2.96557
2.96954
2.97033
2.97334
2.97395
2.97636
2.97685
2.9788
2.9792
2.9808
2.98112
2.98242
2.98268
2.98373
2.98394
2.98477
2.98493
2.98555
2.98566
2.98603
2.98612
2.98648
2.98656
2.98684
2.98689
2.98705
2.98706
2.98703
2.987
2.9867
2.98659
2.98587
2.98563
2.98419
2.9837
2.98082
2.97975
2.97331
2.97025
2.95059
2.91845
2.90909
2.85822
2.8424
2.74968
2.73922
2.73749
2.73713
2.73705
2.42519
2.63118
2.68282
2.77654
2.80113
2.84791
2.8608
2.88769
2.89534
2.91226
2.91696
2.92693
2.93052
2.9411
2.9447
2.95481
2.95819
2.96749
2.97058
2.97899
2.98177
2.98928
2.99174
2.99837
3.00055
3.00639
3.00834
3.01364
3.01561
3.02163
3.02705
3.02856
3.03176
3.03275
3.03517
3.03592
3.03786
3.03847
3.04003
3.04053
3.04181
3.04221
3.04325
3.04358
3.04442
3.04468
3.04535
3.04555
3.04604
3.04618
3.04648
3.04659
3.04688
3.04697
3.0472
3.04726
3.04738
3.0474
3.04738
3.04733
3.04709
3.04695
3.04637
3.04607
3.0449
3.04429
3.04195
3.0406
3.03527
3.03134
3.01436
2.98794
2.97615
2.93517
2.91551
2.84306
2.83004
2.8275
2.82695
2.82683
2.58166
2.73941
2.79298
2.869
2.89494
2.93291
2.94651
2.96825
2.97631
2.98995
2.9949
3.00301
3.00679
3.01527
3.01905
3.02716
3.03071
3.03818
3.04142
3.04817
3.05109
3.05712
3.0597
3.06503
3.06732
3.07201
3.07406
3.07833
3.08042
3.08538
3.08987
3.09148
3.09407
3.09511
3.09706
3.09785
3.09941
3.10005
3.10131
3.10183
3.10285
3.10328
3.10411
3.10446
3.10513
3.10541
3.10594
3.10615
3.10655
3.1067
3.10694
3.10705
3.10729
3.10738
3.10756
3.10763
3.10773
3.10774
3.10772
3.10768
3.10748
3.10733
3.10686
3.10654
3.1056
3.10495
3.10304
3.1016
3.09719
3.09296
3.0785
3.05683
3.04438
3.01127
2.99074
2.93407
2.92044
2.91744
2.91675
2.9166
2.73183
2.8518
2.90223
2.96345
2.98828
3.01889
3.0319
3.04937
3.05707
3.06798
3.07271
3.07927
3.08288
3.08963
3.09323
3.0997
3.10308
3.10903
3.11212
3.11751
3.12029
3.12509
3.12756
3.13181
3.13399
3.13773
3.13968
3.14311
3.14511
3.14914
3.15282
3.15436
3.15645
3.15743
3.15899
3.15975
3.16099
3.1616
3.16261
3.16311
3.16392
3.16433
3.165
3.16532
3.16586
3.16612
3.16655
3.16675
3.16707
3.16721
3.16741
3.16751
3.1677
3.16779
3.16793
3.16799
3.16807
3.16809
3.16807
3.16802
3.16787
3.16772
3.16735
3.16704
3.16628
3.16566
3.16411
3.16272
3.15909
3.15498
3.14293
3.12536
3.11344
3.08686
3.06742
3.02336
3.01042
3.00728
3.00654
3.00637
2.8772
2.96698
3.01106
3.05937
3.08138
3.10558
3.11711
3.13087
3.13769
3.14626
3.15045
3.15565
3.15885
3.16412
3.1673
3.17236
3.17534
3.18
3.18273
3.18695
3.1894
3.19316
3.19534
3.19867
3.20059
3.20353
3.20525
3.20794
3.20972
3.21291
3.21584
3.21721
3.21886
3.21974
3.22096
3.22163
3.2226
3.22314
3.22393
3.22437
3.22501
3.22537
3.22589
3.22618
3.2266
3.22684
3.22717
3.22735
3.22759
3.22772
3.22787
3.22797
3.22811
3.22819
3.22831
3.22836
3.22842
3.22843
3.22842
3.22838
3.22826
3.22813
3.22783
3.22756
3.22696
3.2264
3.22518
3.22394
3.22101
3.21732
3.20758
3.19366
3.18309
3.16217
3.14508
3.1114
3.10001
3.09703
3.0963
3.09614
3.01898
3.08398
3.11972
3.15633
3.1744
3.19277
3.20224
3.21265
3.21824
3.22471
3.22815
3.2321
3.23472
3.23869
3.24129
3.2451
3.24754
3.25105
3.25328
3.25646
3.25846
3.2613
3.26308
3.26558
3.26716
3.26937
3.27078
3.27282
3.27428
3.2767
3.27893
3.28006
3.28131
3.28203
3.28295
3.2835
3.28423
3.28468
3.28527
3.28563
3.28611
3.2864
3.2868
3.28703
3.28735
3.28754
3.28779
3.28794
3.28812
3.28823
3.28834
3.28842
3.28853
3.28859
3.28868
3.28872
3.28877
3.28878
3.28877
3.28874
3.28864
3.28854
3.28831
3.28809
3.28763
3.28718
3.28624
3.28522
3.28296
3.27991
3.2724
3.26182
3.25315
3.23733
3.2234
3.19855
3.18925
3.18668
3.18604
3.18589
3.15815
3.20215
3.22834
3.25403
3.26741
3.28032
3.28732
3.29463
3.29876
3.30329
3.30583
3.30861
3.31055
3.31332
3.31524
3.31789
3.3197
3.32215
3.3238
3.32601
3.32749
3.32947
3.33079
3.33254
3.3337
3.33524
3.33629
3.33771
3.33879
3.3405
3.34207
3.3429
3.34378
3.34431
3.34496
3.34536
3.34587
3.3462
3.34661
3.34688
3.34722
3.34743
3.34771
3.34788
3.34811
3.34825
3.34842
3.34853
3.34866
3.34873
3.34882
3.34887
3.34895
3.349
3.34906
3.34909
3.34912
3.34913
3.34912
3.3491
3.34903
3.34895
3.34879
3.34863
3.34831
3.34797
3.34731
3.34655
3.34495
3.34267
3.33735
3.32991
3.32349
3.31241
3.30217
3.28508
3.27823
3.27626
3.27576
3.27564
3.29557
3.32104
3.33699
3.35223
3.36043
3.3681
3.37239
3.37673
3.37926
3.38194
3.3835
3.38516
3.38634
3.38798
3.38915
3.39072
3.39183
3.39328
3.39429
3.3956
3.3965
3.39767
3.39848
3.39951
3.40022
3.40114
3.40178
3.40262
3.40329
3.4043
3.40523
3.40574
3.40626
3.40659
3.40697
3.40722
3.40752
3.40772
3.40797
3.40813
3.40833
3.40846
3.40862
3.40873
3.40886
3.40895
3.40905
3.40912
3.40919
3.40924
3.40929
3.40932
3.40937
3.4094
3.40943
3.40945
3.40947
3.40948
3.40947
3.40946
3.40942
3.40937
3.40928
3.40918
3.40898
3.40878
3.40839
3.40792
3.40696
3.40556
3.40238
3.39796
3.39403
3.38745
3.3812
3.37121
3.36702
3.36578
3.36546
3.36539
3.43197
3.44031
3.44566
3.45071
3.45347
3.45602
3.45746
3.4589
3.45975
3.46064
3.46117
3.46172
3.46212
3.46266
3.46305
3.46357
3.46394
3.46442
3.46476
3.4652
3.4655
3.46589
3.46616
3.4665
3.46674
3.46705
3.46726
3.46754
3.46776
3.4681
3.46841
3.46858
3.46875
3.46886
3.46899
3.46907
3.46917
3.46924
3.46932
3.46938
3.46944
3.46949
3.46954
3.46958
3.46962
3.46965
3.46968
3.46971
3.46973
3.46975
3.46976
3.46977
3.46979
3.4698
3.46981
3.46982
3.46982
3.46983
3.46982
3.46982
3.46981
3.46979
3.46976
3.46972
3.46966
3.46959
3.46946
3.4693
3.46898
3.46851
3.46745
3.46599
3.46466
3.46249
3.46038
3.45709
3.45569
3.45526
3.45515
3.45513
3.43127
3.44019
3.44636
3.45303
3.45711
3.46155
3.46438
3.46762
3.46971
3.47211
3.47359
3.47521
3.47641
3.47804
3.47923
3.48078
3.48188
3.48328
3.48425
3.48549
3.48635
3.48743
3.48818
3.48912
3.48977
3.4906
3.49118
3.49195
3.49257
3.4935
3.49438
3.49488
3.49539
3.49571
3.4961
3.49637
3.49669
3.49691
3.49718
3.49736
3.49759
3.49775
3.49794
3.49808
3.49824
3.49835
3.49849
3.49858
3.49868
3.49875
3.49883
3.49888
3.49896
3.49901
3.49908
3.49914
3.4992
3.49925
3.49931
3.49935
3.4994
3.49943
3.49948
3.4995
3.49954
3.49955
3.49956
3.49955
3.49947
3.4993
3.49885
3.49812
3.49735
3.49592
3.4944
3.49188
3.49079
3.49047
3.49038
3.49036
3.29347
3.32067
3.33907
3.35919
3.37132
3.38471
3.39312
3.40292
3.40913
3.41637
3.42076
3.42565
3.42921
3.43414
3.43767
3.44236
3.44562
3.44984
3.45275
3.45648
3.45903
3.46229
3.46452
3.46736
3.4693
3.4718
3.47354
3.47586
3.47769
3.48051
3.48315
3.48463
3.48616
3.48714
3.48831
3.4891
3.49006
3.49072
3.49153
3.49208
3.49278
3.49325
3.49383
3.49423
3.49472
3.49506
3.49547
3.49573
3.49606
3.49625
3.49648
3.49664
3.49687
3.49704
3.49726
3.49741
3.49761
3.49775
3.49792
3.49804
3.4982
3.4983
3.49843
3.49851
3.49861
3.49866
3.49869
3.49864
3.49843
3.49792
3.49657
3.49438
3.49206
3.48776
3.48323
3.47557
3.47235
3.47139
3.47114
3.47109
3.15457
3.2015
3.23171
3.26567
3.28547
3.30808
3.32181
3.33835
3.3485
3.36074
3.36791
3.37615
3.38195
3.3903
3.39607
3.40399
3.40932
3.41646
3.42121
3.42752
3.43169
3.4372
3.44084
3.44564
3.44882
3.45303
3.45588
3.45978
3.46277
3.46752
3.47197
3.47437
3.47696
3.47856
3.48054
3.48182
3.48346
3.48452
3.4859
3.4868
3.48797
3.48874
3.48973
3.49038
3.49122
3.49176
3.49245
3.49289
3.49343
3.49375
3.49413
3.4944
3.49479
3.49506
3.49543
3.49568
3.49602
3.49624
3.49654
3.49674
3.49699
3.49716
3.49738
3.49752
3.49769
3.49777
3.49782
3.49774
3.49739
3.49657
3.49432
3.49063
3.48686
3.47961
3.47219
3.45909
3.45381
3.45229
3.4519
3.45181
3.0138
3.083
3.1242
3.17271
3.19951
3.23179
3.25038
3.27404
3.28779
3.30532
3.31502
3.32674
3.33459
3.34657
3.35438
3.36573
3.37295
3.38318
3.38962
3.39864
3.40429
3.41218
3.41711
3.42398
3.42829
3.43432
3.43818
3.44375
3.44778
3.45455
3.46087
3.46411
3.4678
3.46996
3.4728
3.47452
3.47687
3.47831
3.48029
3.48151
3.48318
3.48422
3.48564
3.48652
3.48772
3.48845
3.48944
3.49004
3.49082
3.49125
3.49179
3.49215
3.49271
3.49307
3.49361
3.49395
3.49443
3.49473
3.49516
3.49543
3.4958
3.49603
3.49634
3.49653
3.49677
3.49688
3.49696
3.49685
3.49638
3.49528
3.49213
3.48689
3.4818
3.47147
3.46138
3.44229
3.43512
3.43314
3.43264
3.43253
2.87026
2.96562
3.01639
3.08063
3.11334
3.15606
3.17875
3.21013
3.22692
3.25021
3.26205
3.27748
3.28707
3.30299
3.31255
3.32763
3.33646
3.35005
3.35791
3.3699
3.37681
3.38728
3.3933
3.40243
3.40769
3.41569
3.4204
3.42777
3.43269
3.44159
3.44989
3.45383
3.4587
3.46134
3.4651
3.46721
3.47032
3.47208
3.4747
3.4762
3.47842
3.47969
3.48157
3.48265
3.48424
3.48513
3.48645
3.48718
3.48821
3.48875
3.48946
3.4899
3.49064
3.49109
3.49179
3.49221
3.49285
3.49322
3.49379
3.49411
3.49461
3.49489
3.4953
3.49553
3.49585
3.49599
3.49611
3.49598
3.49538
3.49407
3.49002
3.48315
3.47694
3.46332
3.45092
3.42502
3.41623
3.41393
3.41337
3.41324
2.72291
2.85003
2.90805
2.98981
3.02676
3.08112
3.10678
3.1468
3.1658
3.19556
3.20894
3.22846
3.2393
3.25968
3.2705
3.28978
3.29977
3.31714
3.32605
3.34136
3.34918
3.36256
3.36937
3.38103
3.38698
3.3972
3.40252
3.41189
3.41743
3.42866
3.43908
3.44352
3.44969
3.45267
3.45746
3.45985
3.46382
3.46582
3.46917
3.47085
3.4737
3.47513
3.47754
3.47875
3.48079
3.4818
3.48349
3.48431
3.48563
3.48624
3.48713
3.48763
3.48858
3.48909
3.48999
3.49046
3.49128
3.4917
3.49242
3.49279
3.49342
3.49374
3.49427
3.49453
3.49494
3.4951
3.49526
3.49513
3.49442
3.49297
3.48802
3.47937
3.47239
3.45512
3.44101
3.40706
3.39707
3.39465
3.39408
3.39395
2.57047
2.7372
2.79875
2.90077
2.93948
3.00734
3.03423
3.08431
3.10425
3.14156
3.15558
3.17978
3.19114
3.21674
3.22811
3.25231
3.2628
3.28458
3.29392
3.31312
3.32133
3.33809
3.34525
3.35985
3.3661
3.3789
3.38448
3.39617
3.40195
3.41576
3.42852
3.43313
3.44081
3.44393
3.44993
3.45243
3.4574
3.4595
3.4637
3.46547
3.46903
3.47053
3.47355
3.47483
3.47738
3.47844
3.48056
3.48142
3.48308
3.48371
3.48482
3.48535
3.48654
3.48707
3.48821
3.4887
3.48973
3.49017
3.49108
3.49146
3.49225
3.49258
3.49326
3.49353
3.49405
3.49421
3.49443
3.4943
3.49349
3.49201
3.48618
3.47553
3.46824
3.44679
3.43189
3.38814
3.37762
3.3753
3.37477
3.37466
2.41136
2.62857
2.68784
2.81427
2.85104
2.93519
2.96075
3.02303
3.042
3.08849
3.10181
3.13162
3.14241
3.17438
3.1852
3.21538
3.22537
3.25251
3.26141
3.28532
3.29313
3.31402
3.32083
3.33902
3.34496
3.36089
3.36619
3.38068
3.38614
3.40291
3.41828
3.42263
3.43211
3.43507
3.44253
3.44491
3.4511
3.45309
3.45832
3.46001
3.46444
3.46587
3.46964
3.47085
3.47402
3.47504
3.47767
3.47849
3.48057
3.48117
3.48254
3.48304
3.48452
3.48503
3.48645
3.48692
3.4882
3.48862
3.48975
3.49012
3.4911
3.49142
3.49225
3.49251
3.49316
3.49332
3.49361
3.49349
3.49258
3.49123
3.48452
3.47156
3.46466
3.43821
3.42392
3.3679
3.35783
3.35587
3.35545
3.35536
2.24356
2.52626
2.57424
2.73136
2.76071
2.86539
2.8858
2.96348
2.97865
3.03675
3.04738
3.08422
3.09283
3.13286
3.14152
3.17926
3.18725
3.22117
3.22829
3.25817
3.26441
3.2905
3.29595
3.31867
3.32342
3.3433
3.34754
3.36555
3.36988
3.39011
3.40848
3.41191
3.42367
3.42603
3.43533
3.43723
3.44497
3.44656
3.45309
3.45444
3.45998
3.46112
3.46582
3.46679
3.47076
3.47157
3.47486
3.47552
3.47812
3.4786
3.48029
3.48068
3.48255
3.48295
3.48472
3.4851
3.4867
3.48704
3.48845
3.48874
3.48997
3.49023
3.49127
3.49148
3.4923
3.49243
3.4928
3.49272
3.49169
3.49066
3.48312
3.46734
3.46186
3.42913
3.41762
3.34581
3.33773
3.33639
3.33611
3.33605
2.06445
2.43335
2.45628
2.65356
2.66735
2.79895
2.80856
2.90643
2.91358
2.9869
2.99191
3.03795
3.042
3.09259
3.09668
3.14433
3.1481
3.1909
3.19426
3.23196
3.2349
3.26781
3.27038
3.29904
3.30128
3.32634
3.32833
3.35097
3.35298
3.37738
3.39928
3.40087
3.41561
3.41672
3.42843
3.42933
3.43908
3.43983
3.44806
3.4487
3.45569
3.45623
3.46216
3.46261
3.46762
3.468
3.47216
3.47247
3.47575
3.47597
3.47809
3.47827
3.48063
3.48082
3.48306
3.48324
3.48526
3.48541
3.4872
3.48734
3.48889
3.48901
3.49033
3.49042
3.49146
3.49152
3.49202
3.49198
3.49081
3.49035
3.48204
3.46272
3.46015
3.41921
3.41374
3.32118
3.31735
3.31686
3.31676
3.31674
2.06445
2.43335
2.45628
2.65355
2.66735
2.79895
2.80856
2.90643
2.91358
2.9869
2.99191
3.03795
3.042
3.09259
3.09668
3.14433
3.1481
3.1909
3.19426
3.23196
3.2349
3.26781
3.27038
3.29904
3.30128
3.32634
3.32833
3.35097
3.35298
3.37738
3.39928
3.40087
3.41561
3.41672
3.42843
3.42933
3.43908
3.43983
3.44806
3.4487
3.45569
3.45623
3.46216
3.46261
3.46762
3.468
3.47216
3.47247
3.47575
3.47597
3.47809
3.47827
3.48063
3.48082
3.48306
3.48324
3.48526
3.48541
3.4872
3.48734
3.48889
3.48901
3.49033
3.49042
3.49146
3.49152
3.49202
3.49198
3.49081
3.49035
3.48204
3.46272
3.46015
3.41921
3.41374
3.32118
3.31735
3.31686
3.31676
3.31674
2.24356
2.52626
2.57424
2.73136
2.7607
2.86539
2.8858
2.96348
2.97865
3.03675
3.04738
3.08422
3.09283
3.13285
3.14152
3.17926
3.18725
3.22117
3.22829
3.25817
3.26441
3.2905
3.29595
3.31867
3.32342
3.3433
3.34754
3.36555
3.36988
3.39011
3.40848
3.41191
3.42367
3.42603
3.43533
3.43723
3.44497
3.44656
3.45309
3.45444
3.45998
3.46112
3.46582
3.46679
3.47076
3.47157
3.47486
3.47552
3.47812
3.4786
3.48029
3.48068
3.48255
3.48295
3.48472
3.4851
3.4867
3.48704
3.48845
3.48874
3.48997
3.49023
3.49127
3.49148
3.4923
3.49243
3.4928
3.49272
3.49169
3.49066
3.48312
3.46734
3.46186
3.42913
3.41762
3.34581
3.33773
3.33639
3.33611
3.33605
2.41136
2.62857
2.68784
2.81427
2.85104
2.93519
2.96075
3.02303
3.042
3.08849
3.10181
3.13162
3.14241
3.17438
3.1852
3.21538
3.22537
3.25251
3.26141
3.28532
3.29313
3.31402
3.32083
3.33902
3.34496
3.36089
3.36619
3.38068
3.38614
3.40291
3.41828
3.42263
3.43211
3.43507
3.44253
3.44491
3.4511
3.45309
3.45832
3.46001
3.46444
3.46587
3.46964
3.47085
3.47402
3.47504
3.47767
3.47849
3.48057
3.48117
3.48254
3.48304
3.48452
3.48503
3.48645
3.48692
3.4882
3.48862
3.48975
3.49012
3.4911
3.49142
3.49225
3.49251
3.49316
3.49332
3.49361
3.49349
3.49258
3.49123
3.48452
3.47156
3.46466
3.43821
3.42392
3.3679
3.35783
3.35587
3.35545
3.35536
2.57047
2.7372
2.79875
2.90077
2.93948
3.00734
3.03423
3.08431
3.10425
3.14156
3.15558
3.17978
3.19114
3.21674
3.22811
3.25231
3.2628
3.28458
3.29392
3.31312
3.32133
3.33809
3.34525
3.35985
3.3661
3.3789
3.38448
3.39617
3.40195
3.41576
3.42852
3.43313
3.44081
3.44393
3.44993
3.45243
3.4574
3.4595
3.4637
3.46547
3.46903
3.47053
3.47355
3.47482
3.47738
3.47844
3.48056
3.48142
3.48308
3.48371
3.48482
3.48535
3.48654
3.48707
3.48821
3.4887
3.48973
3.49017
3.49108
3.49146
3.49225
3.49258
3.49326
3.49353
3.49405
3.49421
3.49443
3.49429
3.49349
3.49201
3.48618
3.47553
3.46824
3.44679
3.43189
3.38814
3.37762
3.3753
3.37477
3.37466
2.72291
2.85003
2.90805
2.98981
3.02676
3.08112
3.10678
3.1468
3.1658
3.19555
3.20894
3.22846
3.23929
3.25968
3.2705
3.28978
3.29977
3.31714
3.32605
3.34136
3.34918
3.36255
3.36937
3.38103
3.38698
3.3972
3.40252
3.41189
3.41743
3.42866
3.43908
3.44352
3.44969
3.45267
3.45746
3.45985
3.46382
3.46582
3.46917
3.47085
3.4737
3.47513
3.47754
3.47875
3.48079
3.4818
3.48349
3.48431
3.48563
3.48624
3.48713
3.48763
3.48858
3.48909
3.48999
3.49046
3.49128
3.4917
3.49242
3.49279
3.49342
3.49374
3.49427
3.49453
3.49494
3.4951
3.49526
3.49513
3.49442
3.49297
3.48802
3.47937
3.47239
3.45512
3.44101
3.40706
3.39707
3.39465
3.39408
3.39395
2.87026
2.96562
3.01639
3.08063
3.11334
3.15606
3.17875
3.21013
3.22692
3.25021
3.26205
3.27748
3.28707
3.30299
3.31255
3.32763
3.33646
3.35005
3.35791
3.3699
3.37681
3.38728
3.3933
3.40243
3.40769
3.41569
3.4204
3.42777
3.43269
3.44159
3.44989
3.45383
3.4587
3.46134
3.4651
3.46721
3.47032
3.47208
3.4747
3.4762
3.47842
3.47969
3.48157
3.48265
3.48424
3.48513
3.48645
3.48718
3.48821
3.48875
3.48945
3.4899
3.49064
3.49109
3.49179
3.49221
3.49285
3.49322
3.49379
3.49411
3.49461
3.49489
3.4953
3.49553
3.49585
3.49599
3.49611
3.49598
3.49538
3.49407
3.49002
3.48315
3.47694
3.46332
3.45092
3.42502
3.41623
3.41393
3.41337
3.41324
3.0138
3.083
3.1242
3.17271
3.19951
3.23179
3.25038
3.27404
3.28779
3.30532
3.31502
3.32674
3.33459
3.34657
3.35438
3.36573
3.37295
3.38318
3.38962
3.39864
3.40429
3.41218
3.41711
3.42398
3.42829
3.43432
3.43818
3.44375
3.44778
3.45455
3.46087
3.46411
3.4678
3.46996
3.4728
3.47452
3.47687
3.47831
3.48029
3.48151
3.48318
3.48422
3.48564
3.48652
3.48772
3.48845
3.48944
3.49004
3.49082
3.49125
3.49179
3.49215
3.49271
3.49307
3.49361
3.49395
3.49443
3.49473
3.49516
3.49543
3.4958
3.49603
3.49634
3.49653
3.49677
3.49688
3.49696
3.49685
3.49638
3.49528
3.49213
3.48689
3.4818
3.47147
3.46138
3.44229
3.43512
3.43314
3.43264
3.43253
3.15457
3.2015
3.23171
3.26567
3.28547
3.30808
3.32181
3.33835
3.3485
3.36074
3.36791
3.37615
3.38195
3.3903
3.39607
3.40399
3.40932
3.41646
3.42121
3.42752
3.43169
3.4372
3.44084
3.44564
3.44882
3.45303
3.45588
3.45978
3.46277
3.46752
3.47197
3.47437
3.47696
3.47856
3.48054
3.48182
3.48346
3.48452
3.4859
3.4868
3.48797
3.48874
3.48973
3.49038
3.49121
3.49176
3.49245
3.49289
3.49343
3.49375
3.49413
3.4944
3.49479
3.49506
3.49543
3.49568
3.49602
3.49624
3.49654
3.49674
3.49699
3.49716
3.49738
3.49752
3.49769
3.49777
3.49782
3.49774
3.49739
3.49657
3.49432
3.49063
3.48686
3.47961
3.47219
3.45909
3.45381
3.45229
3.4519
3.45181
3.29347
3.32067
3.33907
3.35919
3.37132
3.38471
3.39312
3.40292
3.40913
3.41637
3.42076
3.42565
3.42921
3.43414
3.43767
3.44236
3.44562
3.44984
3.45275
3.45648
3.45903
3.46229
3.46452
3.46736
3.4693
3.4718
3.47354
3.47586
3.47769
3.48051
3.48315
3.48463
3.48616
3.48714
3.48831
3.4891
3.49006
3.49072
3.49153
3.49208
3.49278
3.49325
3.49383
3.49423
3.49472
3.49506
3.49547
3.49573
3.49606
3.49625
3.49648
3.49664
3.49687
3.49704
3.49726
3.49741
3.49761
3.49775
3.49792
3.49804
3.4982
3.4983
3.49843
3.49851
3.49861
3.49866
3.49869
3.49864
3.49843
3.49792
3.49657
3.49438
3.49206
3.48776
3.48323
3.47557
3.47235
3.47139
3.47114
3.47109
3.43127
3.44019
3.44636
3.45303
3.45711
3.46155
3.46438
3.46762
3.46971
3.47211
3.47359
3.47521
3.47641
3.47804
3.47923
3.48078
3.48188
3.48328
3.48425
3.48549
3.48635
3.48743
3.48818
3.48912
3.48977
3.4906
3.49118
3.49195
3.49257
3.4935
3.49438
3.49488
3.49539
3.49571
3.4961
3.49637
3.49669
3.49691
3.49718
3.49736
3.49759
3.49775
3.49794
3.49808
3.49824
3.49835
3.49849
3.49858
3.49868
3.49875
3.49883
3.49888
3.49896
3.49901
3.49908
3.49914
3.4992
3.49925
3.49931
3.49935
3.4994
3.49943
3.49948
3.4995
3.49954
3.49955
3.49956
3.49955
3.49947
3.4993
3.49885
3.49812
3.49735
3.49592
3.4944
3.49188
3.49079
3.49047
3.49038
3.49036
3.43195
3.44028
3.44562
3.45066
3.4534
3.45591
3.45731
3.45866
3.45941
3.46016
3.46067
3.46135
3.46183
3.46245
3.46289
3.46345
3.46384
3.46434
3.46469
3.46514
3.46545
3.46585
3.46612
3.46647
3.46671
3.46702
3.46724
3.46752
3.46775
3.46808
3.4684
3.46857
3.46874
3.46885
3.46898
3.46907
3.46917
3.46924
3.46932
3.46937
3.46944
3.46948
3.46954
3.46957
3.46962
3.46965
3.46968
3.4697
3.46973
3.46974
3.46976
3.46977
3.46979
3.4698
3.46981
3.46982
3.46982
3.46982
3.46982
3.46982
3.46981
3.46979
3.46976
3.46972
3.46966
3.46959
3.46946
3.4693
3.46898
3.46851
3.46745
3.46599
3.46466
3.46249
3.46038
3.45709
3.45569
3.45526
3.45515
3.45513
3.29552
3.32097
3.33688
3.35208
3.36021
3.36776
3.37192
3.37599
3.37824
3.38048
3.38201
3.38405
3.38548
3.38736
3.38866
3.39035
3.39152
3.39303
3.39407
3.39542
3.39635
3.39754
3.39836
3.39941
3.40014
3.40106
3.40171
3.40256
3.40323
3.40425
3.40519
3.40571
3.40624
3.40656
3.40695
3.4072
3.4075
3.40771
3.40795
3.40812
3.40832
3.40845
3.40861
3.40872
3.40885
3.40894
3.40905
3.40911
3.40919
3.40923
3.40928
3.40932
3.40936
3.40939
3.40943
3.40945
3.40947
3.40947
3.40947
3.40945
3.40942
3.40937
3.40928
3.40917
3.40898
3.40878
3.40838
3.40792
3.40695
3.40555
3.40238
3.39796
3.39403
3.38745
3.3812
3.3712
3.36702
3.36578
3.36546
3.36539
3.15807
3.20203
3.22817
3.25377
3.26704
3.27975
3.28653
3.2934
3.29707
3.30082
3.30333
3.30678
3.30912
3.31229
3.31442
3.31727
3.31918
3.32173
3.32344
3.32572
3.32724
3.32926
3.3306
3.33237
3.33355
3.33512
3.33617
3.33761
3.3387
3.34042
3.34201
3.34285
3.34373
3.34427
3.34492
3.34533
3.34585
3.34617
3.34659
3.34686
3.3472
3.34742
3.34769
3.34787
3.34809
3.34823
3.34841
3.34852
3.34865
3.34872
3.34881
3.34887
3.34894
3.34899
3.34905
3.34908
3.34912
3.34912
3.34912
3.34909
3.34903
3.34895
3.34879
3.34863
3.34831
3.34797
3.34731
3.34655
3.34494
3.34267
3.33735
3.32991
3.32349
3.31241
3.30216
3.28508
3.27823
3.27626
3.27576
3.27564
3.01886
3.08381
3.11948
3.15596
3.1739
3.19198
3.20115
3.21093
3.2159
3.22122
3.22461
3.22955
3.23272
3.23726
3.24014
3.24423
3.24682
3.25047
3.25279
3.25605
3.25811
3.261
3.26281
3.26535
3.26695
3.26919
3.27062
3.27268
3.27415
3.2766
3.27885
3.27999
3.28125
3.28197
3.2829
3.28346
3.28419
3.28464
3.28524
3.2856
3.28609
3.28638
3.28678
3.28701
3.28733
3.28753
3.28778
3.28792
3.28811
3.28821
3.28833
3.28841
3.28852
3.28859
3.28867
3.28872
3.28876
3.28878
3.28877
3.28873
3.28864
3.28853
3.28831
3.28809
3.28763
3.28718
3.28624
3.28522
3.28296
3.27991
3.2724
3.26182
3.25315
3.23733
3.2234
3.19855
3.18925
3.18668
3.18604
3.18589
2.87705
2.96675
3.01076
3.05889
3.08074
3.10456
3.11573
3.12866
3.13471
3.1417
3.14583
3.1524
3.15627
3.1623
3.16582
3.17125
3.17441
3.17927
3.1821
3.18643
3.18894
3.19278
3.195
3.19837
3.20033
3.2033
3.20504
3.20776
3.20956
3.21278
3.21574
3.21712
3.21878
3.21967
3.2209
3.22157
3.22255
3.2231
3.22389
3.22433
3.22498
3.22534
3.22586
3.22616
3.22658
3.22681
3.22715
3.22733
3.22758
3.2277
3.22786
3.22795
3.2281
3.22818
3.2283
3.22835
3.22841
3.22843
3.22841
3.22837
3.22825
3.22812
3.22783
3.22755
3.22695
3.2264
3.22517
3.22394
3.22101
3.21732
3.20758
3.19365
3.18309
3.16217
3.14508
3.1114
3.1
3.09702
3.0963
3.09613
2.73165
2.85153
2.90188
2.96288
2.98752
3.01765
3.03025
3.04666
3.05349
3.06229
3.06695
3.07535
3.07974
3.08744
3.09142
3.09836
3.10194
3.10814
3.11134
3.11688
3.11972
3.12463
3.12714
3.13145
3.13366
3.13745
3.13943
3.14289
3.14491
3.14898
3.15269
3.15424
3.15635
3.15735
3.15891
3.15968
3.16093
3.16155
3.16256
3.16306
3.16388
3.16429
3.16496
3.16529
3.16584
3.1661
3.16653
3.16673
3.16705
3.16719
3.16739
3.1675
3.16768
3.16778
3.16792
3.16798
3.16806
3.16808
3.16806
3.16802
3.16786
3.16772
3.16734
3.16704
3.16628
3.16565
3.16411
3.16272
3.15909
3.15498
3.14293
3.12535
3.11344
3.08686
3.06742
3.02336
3.01042
3.00728
3.00654
3.00637
2.58146
2.73909
2.79257
2.86831
2.89407
2.93145
2.94462
2.96505
2.97218
2.98305
2.98792
2.99846
3.00307
3.01272
3.01691
3.0256
3.02936
3.03714
3.0405
3.04744
3.05042
3.05657
3.0592
3.06461
3.06693
3.07168
3.07375
3.07807
3.08018
3.08519
3.08973
3.09134
3.09396
3.095
3.09697
3.09777
3.09933
3.09998
3.10125
3.10177
3.10281
3.10323
3.10408
3.10442
3.1051
3.10538
3.10592
3.10613
3.10653
3.10668
3.10692
3.10703
3.10727
3.10737
3.10755
3.10762
3.10772
3.10773
3.10771
3.10767
3.10747
3.10732
3.10686
3.10654
3.10559
3.10494
3.10303
3.1016
3.09718
3.09295
3.0785
3.05683
3.04438
3.01127
2.99074
2.93407
2.92044
2.91744
2.91675
2.9166
2.42497
2.63081
2.68236
2.77575
2.80015
2.84621
2.85869
2.88397
2.89073
2.90404
2.90867
2.92181
2.9262
2.93823
2.94221
2.95304
2.95662
2.96631
2.96951
2.97815
2.981
2.98865
2.99116
2.9979
3.0001
3.00602
3.00799
3.01334
3.01534
3.02141
3.02688
3.0284
3.03163
3.03262
3.03506
3.03583
3.03777
3.03839
3.03997
3.04047
3.04175
3.04216
3.04321
3.04354
3.04438
3.04465
3.04532
3.04552
3.04602
3.04616
3.04646
3.04657
3.04686
3.04696
3.04719
3.04725
3.04737
3.04739
3.04737
3.04732
3.04708
3.04694
3.04637
3.04606
3.0449
3.04428
3.04194
3.04059
3.03527
3.03134
3.01435
2.98793
2.97615
2.93517
2.91551
2.84306
2.83004
2.8275
2.82695
2.82683
2.26024
2.52871
2.57049
2.68595
2.70537
2.76231
2.77225
2.80363
2.80901
2.82538
2.82907
2.84551
2.84902
2.86406
2.86724
2.88077
2.88363
2.89575
2.8983
2.9091
2.91138
2.92094
2.92295
2.93136
2.93313
2.94051
2.94209
2.94875
2.95033
2.95767
2.96419
2.96539
2.9694
2.97019
2.97323
2.97384
2.97627
2.97676
2.97873
2.97913
2.98073
2.98106
2.98237
2.98263
2.98369
2.9839
2.98473
2.9849
2.98552
2.98563
2.98601
2.98609
2.98646
2.98654
2.98683
2.98688
2.98703
2.98705
2.98702
2.98698
2.98669
2.98658
2.98586
2.98562
2.98418
2.98369
2.98081
2.97974
2.9733
2.97024
2.95059
2.91845
2.90908
2.85822
2.84239
2.74967
2.73921
2.73749
2.73712
2.73705
2.08477
2.43567
2.45567
2.59998
2.60909
2.68029
2.68496
2.72433
2.72686
2.74724
2.74897
2.76972
2.77138
2.79036
2.79186
2.80893
2.81028
2.82556
2.82677
2.84039
2.84147
2.85353
2.85448
2.86509
2.86593
2.87524
2.87598
2.88435
2.88509
2.89395
2.90172
2.90227
2.90729
2.90766
2.91149
2.91177
2.91484
2.91507
2.91755
2.91774
2.91977
2.91992
2.92157
2.92169
2.92303
2.92313
2.92418
2.92426
2.92504
2.92509
2.92557
2.92561
2.92608
2.92611
2.92648
2.9265
2.9267
2.92671
2.92667
2.92666
2.92629
2.92624
2.92534
2.92523
2.92342
2.9232
2.91961
2.91911
2.9112
2.90981
2.88732
2.84806
2.84368
2.77987
2.77235
2.653
2.64804
2.64742
2.64729
2.64726
)
;

boundaryField
{
    F1_1
    {
        type            fixedValue;
        value           nonuniform List<scalar> 
80
(
1.99025
2.39628
2.39628
2.56081
2.56081
2.64299
2.64299
2.69061
2.69061
2.72081
2.72081
2.7382
2.7382
2.75729
2.75729
2.77548
2.77548
2.79222
2.79222
2.80735
2.80735
2.82085
2.82085
2.83277
2.83277
2.84326
2.84326
2.85269
2.85269
2.8624
2.87084
2.87084
2.87649
2.87649
2.88082
2.88082
2.88429
2.88429
2.8871
2.8871
2.88939
2.88939
2.89126
2.89126
2.89277
2.89277
2.89396
2.89396
2.89485
2.89485
2.89538
2.89538
2.89592
2.89592
2.89633
2.89633
2.89655
2.89655
2.89651
2.89651
2.89609
2.89609
2.89507
2.89507
2.89302
2.89302
2.88895
2.88895
2.88003
2.88003
2.85603
2.81217
2.81217
2.73957
2.73957
2.60237
2.60237
2.60237
2.60237
2.60237
)
;
    }
    F1_2
    {
        type            fixedValue;
        value           nonuniform List<scalar> 
80
(
1.96752
2.3938
2.3938
2.61832
2.61832
2.76817
2.76817
2.87972
2.87972
2.96335
2.96335
3.01565
3.01565
3.07338
3.07338
3.12774
3.12774
3.17655
3.17655
3.21954
3.21954
3.25707
3.25707
3.28975
3.28975
3.31832
3.31832
3.34409
3.34409
3.37106
3.39508
3.39508
3.41185
3.41185
3.4252
3.4252
3.43631
3.43631
3.4457
3.4457
3.45367
3.45367
3.46043
3.46043
3.46614
3.46614
3.47088
3.47088
3.47462
3.47462
3.47703
3.47703
3.47971
3.47971
3.48227
3.48227
3.48457
3.48457
3.4866
3.4866
3.48837
3.48837
3.48988
3.48988
3.49106
3.49106
3.49164
3.49164
3.49035
3.49035
3.48172
3.46007
3.46007
3.41354
3.41354
3.30709
3.30709
3.30709
3.30709
3.30709
)
;
    }
    F1_3
    {
        type            fixedValue;
        value           nonuniform List<scalar> 
80
(
1.96752
2.3938
2.3938
2.61832
2.61832
2.76817
2.76817
2.87972
2.87972
2.96334
2.96334
3.01565
3.01565
3.07338
3.07338
3.12774
3.12774
3.17655
3.17655
3.21954
3.21954
3.25707
3.25707
3.28975
3.28975
3.31831
3.31831
3.34409
3.34409
3.37106
3.39508
3.39508
3.41185
3.41185
3.4252
3.4252
3.43631
3.43631
3.4457
3.4457
3.45367
3.45367
3.46043
3.46043
3.46614
3.46614
3.47088
3.47088
3.47462
3.47462
3.47703
3.47703
3.47971
3.47971
3.48227
3.48227
3.48457
3.48457
3.4866
3.4866
3.48837
3.48837
3.48988
3.48988
3.49106
3.49106
3.49164
3.49164
3.49035
3.49035
3.48172
3.46007
3.46007
3.41354
3.41354
3.30709
3.30709
3.30709
3.30709
3.30709
)
;
    }
    F1_4
    {
        type            fixedValue;
        value           nonuniform List<scalar> 
80
(
1.99002
2.39577
2.39577
2.55971
2.55971
2.64062
2.64062
2.68542
2.68542
2.70853
2.70853
2.73221
2.73221
2.75386
2.75386
2.77332
2.77332
2.79075
2.79075
2.80629
2.80629
2.82005
2.82005
2.83216
2.83216
2.84278
2.84278
2.85231
2.85231
2.86212
2.87062
2.87062
2.87633
2.87633
2.88069
2.88069
2.88418
2.88418
2.88701
2.88701
2.88932
2.88932
2.8912
2.8912
2.89272
2.89272
2.89392
2.89392
2.89482
2.89482
2.89535
2.89535
2.89589
2.89589
2.89631
2.89631
2.89654
2.89654
2.8965
2.8965
2.89608
2.89608
2.89506
2.89506
2.89302
2.89302
2.88894
2.88894
2.88002
2.88002
2.85602
2.81217
2.81217
2.73957
2.73957
2.60237
2.60237
2.60237
2.60237
2.60237
)
;
    }
    F2_1
    {
        type            fixedValue;
        value           uniform 3.5;
    }
    F2_2
    {
        type            fixedValue;
        value           uniform 3.5;
    }
    F2_3
    {
        type            fixedValue;
        value           uniform 3.5;
    }
    F2_4
    {
        type            fixedValue;
        value           uniform 3.5;
    }
    defaultFaces
    {
        type            empty;
    }
}


// ************************************************************************* //
