/*--------------------------------*- C++ -*----------------------------------*\
| =========                 |                                                 |
| \\      /  F ield         | OpenFOAM: The Open Source CFD Toolbox           |
|  \\    /   O peration     | Version:  5.x                                   |
|   \\  /    A nd           | Web:      www.OpenFOAM.org                      |
|    \\/     M anipulation  |                                                 |
\*---------------------------------------------------------------------------*/
FoamFile
{
    version     2.0;
    format      ascii;
    class       volScalarField;
    location    "4.8";
    object      gradTy;
}
// * * * * * * * * * * * * * * * * * * * * * * * * * * * * * * * * * * * * * //

dimensions      [0 -1 0 1 0 0 0];

internalField   nonuniform List<scalar> 
6300
(
32284.5
32253.6
32222.5
32191.2
32159.8
32128
32095.8
32063.2
32030.1
31996.5
31962.3
31927.6
31892.3
31856.3
31819.8
0.0531579
0.158973
0.26326
0.364895
0.462599
0.554894
0.640086
0.716287
0.781476
0.833622
0.870869
0.891786
0.895642
0.882685
0.854329
0.0891345
0.266612
0.441658
0.61246
0.776928
0.932618
1.07669
1.20592
1.3168
1.40574
1.46939
1.50504
1.51117
1.48799
1.43783
0.125905
0.376691
0.624314
0.866376
1.10006
1.32199
1.52816
1.71392
1.8741
2.00321
2.09596
2.14786
2.15606
2.12032
2.04379
0.163701
0.489933
0.812533
1.12868
1.43494
1.72712
2.00004
2.24753
2.46246
2.63704
2.76339
2.83437
2.84491
2.79346
2.68359
0.202667
0.606808
1.00721
1.40085
1.78392
2.15151
2.49736
2.81369
3.09117
3.31912
3.48617
3.58133
3.59574
3.52501
3.37204
0.242827
0.727423
1.20865
1.6836
2.14838
2.59763
3.0242
3.41872
3.7694
4.06211
4.28086
4.40906
4.43171
4.33881
4.13
0.284044
0.851406
1.41636
1.97654
2.52835
3.06645
3.5831
4.06759
4.50562
4.87906
5.16609
5.34233
5.38325
5.26854
4.98914
0.325987
0.977795
1.62886
2.27785
2.92205
3.55671
4.17417
4.76291
5.30644
5.78242
6.16213
6.41094
6.49043
6.36301
6.00048
0.368094
1.10493
1.84345
2.58394
3.32529
4.06417
4.79398
5.50344
6.17482
6.78208
7.2891
7.64889
7.80456
7.69264
7.24929
0.409558
1.23037
2.05607
2.88918
3.73099
4.5807
5.43416
6.28205
7.10733
7.88199
8.56332
9.091
9.38633
9.35375
8.87773
0.449327
1.35093
2.26127
3.18572
4.12881
5.0935
6.07991
7.08327
8.0905
9.07525
9.99125
10.7655
11.296
11.4582
11.1032
0.486147
1.46277
2.45237
3.46362
4.50502
5.58457
6.70874
7.88063
9.09616
10.3373
11.5609
12.6838
13.5738
14.0793
14.1454
0.518642
1.56161
2.62183
3.71136
4.84311
6.03102
7.28986
8.63436
10.0762
11.6169
13.2314
14.835
16.2354
17.1383
17.65
0.545449
1.64322
2.76197
3.91688
5.12506
6.40652
7.78533
9.29073
10.9575
12.8229
14.9125
17.1893
19.3936
20.5855
18.1431
31785.8
31754.5
31722.8
31690.8
31658.5
31625.9
31593
31559.9
31526.5
31492.9
31459.1
31425.2
31391.1
31356.9
31322.6
31288.2
31253.8
31219.3
31184.8
31150.3
31115.9
31081.4
31046.9
31012.5
30978.1
30943.7
30909.4
30875
30840.7
30806.4
30772.2
30738
30703.9
30669.9
30636
30602.1
30568.3
30534.5
30500.9
30467.3
30433.7
30400.2
30366.8
30333.4
30300.1
30266.9
30233.7
30200.7
30167.7
30134.8
30102
30069.2
30036.6
30004.1
29971.6
29939.2
29906.8
29874.5
29842.3
29810.2
29778.1
29746.1
29714.2
29682.4
29650.7
29619
29587.5
29556
29524.7
29493.3
29462.1
29430.9
29399.8
29368.7
29337.7
29306.8
29275.9
29245
29214.3
29183.6
29152.9
29122.2
29091.6
29060.9
29030.3
28999.5
28968.7
28937.9
28906.9
28875.8
0.816587
0.775611
0.730223
0.682618
0.634632
0.587499
0.541725
0.497102
0.452886
0.408078
0.361761
0.313421
0.263177
0.21188
0.16105
0.112658
0.0688063
0.0313513
0.00156873
-0.0200912
-0.0341026
-0.0418074
-0.045214
-0.0466884
-0.0485876
-0.0528949
-0.0609154
-0.0730807
-0.0888999
-0.107067
-0.125709
-0.14274
-0.156246
-0.164833
-0.16788
-0.165647
-0.159226
-0.150356
-0.141128
-0.133635
-0.129624
-0.130199
-0.135639
-0.145345
-0.15795
-0.171551
-0.184057
-0.193551
-0.19863
-0.198647
-0.193809
-0.185134
-0.174268
-0.1632
-0.153926
-0.148108
-0.146795
-0.150239
-0.157851
-0.1683
-0.179741
-0.190144
-0.197645
-0.200872
-0.19917
-0.192704
-0.182405
-0.169797
-0.156715
-0.144978
-0.136055
-0.13079
-0.129216
-0.13051
-0.133081
-0.134796
-0.133307
-0.126409
-0.112401
-0.0903608
-0.0603205
-0.023326
0.0186286
0.0627666
0.105785
0.144175
0.174591
0.194226
0.201155
0.194586
1.37133
1.29943
1.22028
1.138
1.05604
0.97666
0.900671
0.827456
0.755323
0.682072
0.605669
0.524889
0.439777
0.351853
0.263989
0.179988
0.103939
0.0394782
-0.0108853
-0.0462422
-0.0674734
-0.0771342
-0.079063
-0.0777851
-0.0778083
-0.0829221
-0.0956104
-0.116672
-0.145117
-0.178372
-0.21276
-0.24419
-0.268915
-0.284217
-0.288889
-0.283435
-0.269975
-0.251872
-0.233169
-0.21791
-0.209469
-0.209986
-0.22
-0.238349
-0.26237
-0.288361
-0.312242
-0.330286
-0.339778
-0.339472
-0.329787
-0.31271
-0.291433
-0.269812
-0.251707
-0.240338
-0.237739
-0.244405
-0.259197
-0.279529
-0.301814
-0.3221
-0.33677
-0.343175
-0.34007
-0.327802
-0.308209
-0.284268
-0.259567
-0.237661
-0.221443
-0.212602
-0.211278
-0.21595
-0.223609
-0.23019
-0.231192
-0.222387
-0.200491
-0.163685
-0.111937
-0.047087
0.027274
0.106113
0.183409
0.252732
0.307905
0.343707
0.356528
0.344876
1.94263
1.83376
1.71491
1.593
1.47381
1.36103
1.25571
1.15635
1.05947
0.960703
0.855982
0.742697
0.620535
0.491851
0.361478
0.235982
0.122504
0.027426
-0.0448254
-0.0926084
-0.117377
-0.123464
-0.117397
-0.106873
-0.0995613
-0.101903
-0.118107
-0.149487
-0.194265
-0.2479
-0.303924
-0.355147
-0.395005
-0.41876
-0.424328
-0.412602
-0.387256
-0.3541
-0.320097
-0.292212
-0.276263
-0.275946
-0.292203
-0.323032
-0.363801
-0.408056
-0.448679
-0.479187
-0.494883
-0.493651
-0.476263
-0.446184
-0.40895
-0.371215
-0.339644
-0.319797
-0.315201
-0.326731
-0.35243
-0.387811
-0.426632
-0.462011
-0.48767
-0.499044
-0.494039
-0.473327
-0.440151
-0.399719
-0.358279
-0.322041
-0.296095
-0.283484
-0.284602
-0.296986
-0.315591
-0.333521
-0.343105
-0.337126
-0.309961
-0.25844
-0.182337
-0.0844646
0.0295482
0.151753
0.272584
0.381732
0.469179
0.52634
0.547199
0.529226
2.53828
2.38245
2.21395
2.04409
1.88236
1.73465
1.60219
1.48166
1.36634
1.24791
1.11863
0.973292
0.810686
0.634282
0.451943
0.274671
0.114571
-0.0174966
-0.114001
-0.172116
-0.194185
-0.187299
-0.16215
-0.131339
-0.107415
-0.100925
-0.118754
-0.163013
-0.230662
-0.313992
-0.402004
-0.482474
-0.544286
-0.579496
-0.584675
-0.561385
-0.51579
-0.457552
-0.398219
-0.349334
-0.32055
-0.318042
-0.343428
-0.393404
-0.460217
-0.532984
-0.599687
-0.64942
-0.674368
-0.6711
-0.641015
-0.589966
-0.527189
-0.463747
-0.410699
-0.377297
-0.369443
-0.388655
-0.43172
-0.491139
-0.556406
-0.615918
-0.659139
-0.678496
-0.670626
-0.636798
-0.582542
-0.516617
-0.449496
-0.391601
-0.351539
-0.334594
-0.341699
-0.369059
-0.408541
-0.448865
-0.477424
-0.482368
-0.454496
-0.388591
-0.284079
-0.145079
0.0200307
0.199377
0.378586
0.541986
0.67407
0.761253
0.793792
0.767465
3.16809
2.94939
2.71496
2.48345
2.27073
2.08631
1.93146
1.79948
1.67768
1.55075
1.40441
1.22875
1.0207
0.785253
0.535107
0.288624
0.0662614
-0.113639
-0.238467
-0.303543
-0.312697
-0.277446
-0.215069
-0.145898
-0.0901789
-0.0649417
-0.0813548
-0.142873
-0.244491
-0.373356
-0.510962
-0.636681
-0.731893
-0.783492
-0.786035
-0.742306
-0.662545
-0.562598
-0.461315
-0.377525
-0.327016
-0.319988
-0.359259
-0.439549
-0.548075
-0.66666
-0.775146
-0.855361
-0.8945
-0.887178
-0.835969
-0.750648
-0.646402
-0.541322
-0.453478
-0.398021
-0.38472
-0.416245
-0.487471
-0.586058
-0.694477
-0.793293
-0.864979
-0.897162
-0.884601
-0.829692
-0.741743
-0.635242
-0.527431
-0.435486
-0.373699
-0.351075
-0.369633
-0.423677
-0.500279
-0.581154
-0.645747
-0.674864
-0.6538
-0.574333
-0.435482
-0.243292
-0.00998648
0.247199
0.507352
0.747334
0.943616
1.07485
1.12515
1.08727
3.84585
3.539
3.21173
2.89576
2.61834
2.39535
2.22781
2.10262
1.99641
1.88154
1.7324
1.53083
1.27017
0.95738
0.61299
0.267833
-0.043204
-0.2891
-0.44899
-0.515511
-0.495166
-0.406671
-0.277785
-0.141104
-0.0290644
0.0310017
0.0209795
-0.0650088
-0.2191
-0.420152
-0.637055
-0.83484
-0.982321
-1.05815
-1.05405
-0.975134
-0.838391
-0.669588
-0.499245
-0.357811
-0.270893
-0.255284
-0.316044
-0.445055
-0.621467
-0.814901
-0.991334
-1.12047
-1.18155
-1.16647
-1.08006
-0.9386
-0.766835
-0.594093
-0.449636
-0.358057
-0.335465
-0.386678
-0.503835
-0.666829
-0.84639
-1.00975
-1.12771
-1.18027
-1.15956
-1.07017
-0.927668
-0.755759
-0.582525
-0.435951
-0.339471
-0.308258
-0.346469
-0.445814
-0.585865
-0.736889
-0.865156
-0.939622
-0.9372
-0.845586
-0.663694
-0.400709
-0.0743922
0.290749
0.665159
1.01561
1.30682
1.505
1.58347
1.52915
4.59353
4.158
3.69225
3.25255
2.88757
2.62451
2.46316
2.37839
2.32761
2.26168
2.13588
1.91802
1.59469
1.17501
0.69197
0.197897
-0.246486
-0.588422
-0.793979
-0.852583
-0.775789
-0.594074
-0.351747
-0.100844
0.106873
0.227853
0.232685
0.110904
-0.126107
-0.444145
-0.790702
-1.10546
-1.33595
-1.44795
-1.4298
-1.29126
-1.06043
-0.778824
-0.495568
-0.259618
-0.11211
-0.0806318
-0.174572
-0.382327
-0.670373
-0.987644
-1.27565
-1.48359
-1.57831
-1.54849
-1.40346
-1.17021
-0.888694
-0.606154
-0.369668
-0.21877
-0.179947
-0.262169
-0.454209
-0.723759
-1.02165
-1.29158
-1.48464
-1.5689
-1.53343
-1.38714
-1.15594
-0.87819
-0.599238
-0.364287
-0.211262
-0.165478
-0.235278
-0.409337
-0.655652
-0.925394
-1.16204
-1.3151
-1.34904
-1.24684
-1.00868
-0.649327
-0.194706
0.320944
0.857463
1.36916
1.80399
2.1075
2.23299
2.15503
5.45056
4.82059
4.13532
3.5018
3.01007
2.70722
2.5882
2.6052
2.68059
2.72801
2.67192
2.45706
2.05795
1.48385
0.786833
0.0563966
-0.597307
-1.08415
-1.3506
-1.38465
-1.20752
-0.868781
-0.438079
0.00158534
0.367689
0.591938
0.626693
0.452728
0.0835401
-0.427092
-0.990166
-1.49744
-1.86023
-2.02517
-1.97894
-1.74034
-1.35559
-0.89047
-0.4238
-0.0340971
0.213727
0.274595
0.130767
-0.204005
-0.677219
-1.20255
-1.6753
-2.00977
-2.15444
-2.09645
-1.8539
-1.47133
-1.01205
-0.551921
-0.166473
0.0818841
0.149855
0.0204594
-0.292984
-0.739896
-1.23719
-1.68412
-1.99823
-2.12996
-2.06689
-1.8264
-1.45127
-1.00235
-0.552596
-0.174657
0.0713685
0.143737
0.0260433
-0.268813
-0.691708
-1.16156
-1.57929
-1.86209
-1.95692
-1.84387
-1.52817
-1.03513
-0.402909
0.321081
1.0855
1.83337
2.49022
2.96631
3.17545
3.06409
6.49493
5.56297
4.50404
3.54705
2.86073
2.52526
2.51737
2.74795
3.07381
3.34338
3.43659
3.26143
2.77318
1.9697
0.929806
-0.195612
-1.18843
-1.89724
-2.24191
-2.22082
-1.87198
-1.27594
-0.537338
0.20992
0.832756
1.22887
1.32124
1.07565
0.496845
-0.334547
-1.27
-2.09753
-2.66943
-2.90652
-2.80514
-2.39988
-1.76652
-1.00438
-0.24123
0.3957
0.808752
0.924557
0.711036
0.173643
-0.60904
-1.4932
-2.27411
-2.80926
-3.02243
-2.91019
-2.50601
-1.88295
-1.13666
-0.390166
0.23411
0.642273
0.763842
0.568098
0.0604167
-0.683499
-1.52527
-2.26794
-2.77447
-2.97154
-2.85584
-2.45954
-1.85285
-1.12774
-0.40254
0.20492
0.604058
0.726638
0.542474
0.0560814
-0.660149
-1.47276
-2.19084
-2.67977
-2.86412
-2.73271
-2.30305
-1.62136
-0.743258
0.262986
1.33738
2.42865
3.43673
4.20951
4.57939
4.42454
7.89382
6.48827
4.72615
3.2028
2.20647
1.87178
2.10322
2.75351
3.54807
4.21272
4.58771
4.51663
3.94232
2.79597
1.19592
-0.638583
-2.18854
-3.23474
-3.65993
-3.52898
-2.89245
-1.88841
-0.64909
0.597395
1.62428
2.30317
2.50242
2.17837
1.27385
-0.0921806
-1.70529
-3.06574
-3.96078
-4.27531
-4.06896
-3.38791
-2.36295
-1.11976
0.123054
1.14784
1.83178
2.04871
1.75765
0.904472
-0.394762
-1.93259
-3.22681
-4.07246
-4.35902
-4.14437
-3.47333
-2.47204
-1.26158
-0.0524525
0.945869
1.61533
1.83473
1.5649
0.753972
-0.486217
-1.95606
-3.1918
-3.99635
-4.26349
-4.0489
-3.39564
-2.42496
-1.25327
-0.0829485
0.884468
1.53498
1.75124
1.49411
0.711937
-0.489801
-1.92011
-3.13236
-3.93601
-4.22603
-4.05101
-3.44084
-2.49043
-1.26813
0.106771
1.56499
3.14376
4.72213
6.03296
6.73902
6.5444
10.0281
7.92641
4.60398
2.09963
0.599721
0.403345
1.08607
2.55135
4.20942
5.49915
6.38117
6.49645
5.9352
4.27556
1.79963
-1.49134
-3.91408
-5.46651
-5.87885
-5.5652
-4.44218
-2.83973
-0.771199
1.30106
2.91685
4.06814
4.43709
4.11694
2.71538
0.505942
-2.50446
-4.70421
-6.08813
-6.39422
-6.01639
-4.87122
-3.2737
-1.23464
0.801232
2.39077
3.52723
3.90433
3.61364
2.27757
0.163038
-2.72281
-4.82553
-6.14077
-6.4174
-6.0358
-4.91625
-3.36238
-1.38462
0.588773
2.13114
3.23642
3.61008
3.34083
2.06562
0.0417258
-2.72398
-4.73662
-5.99211
-6.24918
-5.87365
-4.78882
-3.28657
-1.37685
0.528806
2.02033
3.09122
3.45749
3.20178
1.97195
0.00967119
-2.68144
-4.66228
-5.93188
-6.2576
-5.99594
-5.0686
-3.751
-2.01272
-0.169362
1.61911
3.85967
6.39305
8.72759
10.1959
10.0526
13.779
11.1196
3.30128
-0.451342
-2.88444
-2.33093
-1.05788
2.07161
5.40118
7.37267
9.27873
9.45049
9.50974
6.93061
3.57696
-3.59437
-6.89291
-9.34006
-9.14326
-8.76698
-6.68233
-4.46227
-0.898719
2.66199
4.87827
6.95962
7.36404
7.61271
5.3202
2.25741
-4.47104
-7.51752
-9.7676
-9.49806
-9.06884
-7.006
-4.82033
-1.34501
2.12207
4.28607
6.31609
6.72151
6.97492
4.77161
1.83146
-4.64077
-7.5583
-9.70472
-9.42367
-8.98995
-6.98464
-4.86319
-1.5014
1.85061
3.94577
5.91099
6.31119
6.56527
4.45535
1.63783
-4.57636
-7.37177
-9.42561
-9.14583
-8.7198
-6.78314
-4.73493
-1.49461
1.73689
3.76188
5.66207
6.05936
6.31214
4.28668
1.55865
-4.46557
-7.21638
-9.2869
-9.13497
-8.89943
-7.25836
-5.61735
-2.90856
-0.366325
1.02252
4.15432
8.35087
12.6702
15.9742
16.45
20.8741
21.7352
-3.86067
-4.90392
-10.6699
-6.10151
-5.87515
1.30373
8.54853
9.34038
14.6736
12.5666
16.8835
10.701
10.8517
-11.2743
-11.0978
-17.021
-12.6662
-14.4289
-9.11753
-8.01954
-1.02222
5.95883
7.03393
12.2658
10.5152
14.7677
9.03417
9.28734
-11.7397
-11.4777
-17.0754
-12.8319
-14.4738
-9.31775
-8.22414
-1.44359
5.31927
6.37421
11.4443
9.75751
13.8738
8.32661
8.58598
-11.6776
-11.4015
-16.7643
-12.6499
-14.2072
-9.22035
-8.15017
-1.60417
4.92226
5.94741
10.8391
9.22261
13.1938
7.86395
8.12506
-11.3518
-11.0748
-16.2196
-12.2531
-13.7413
-8.93811
-7.89996
-1.59972
4.68229
5.68309
10.3971
8.86924
12.7031
7.61305
7.8541
-10.9634
-10.75
-15.8422
-12.1327
-13.8269
-9.44812
-9.02133
-3.56444
1.09783
-2.08351
2.91627
10.1325
18.0756
25.8254
30.158
30.9733
70.4795
-46.3787
-2.55588
-33.3351
-3.61823
-20.7022
0.442851
20.9902
4.77041
30.7847
6.43422
39.3787
5.3538
50.2072
-51.067
-6.51659
-39.4994
-7.37699
-30.2746
-5.48247
-20.0688
-1.1192
17.7633
3.20693
27.6301
5.02499
36.3059
4.13062
46.9642
-49.6611
-6.99657
-38.5509
-7.68727
-29.6641
-5.77594
-19.8135
-1.51304
16.7395
2.68429
26.3059
4.44084
34.6917
3.52387
44.8972
-48.2877
-7.12123
-37.4676
-7.70508
-28.8447
-5.81247
-19.3188
-1.6753
15.9192
2.38463
25.1425
4.09114
33.2191
3.22485
43.0383
-46.5699
-6.96752
-36.1309
-7.50279
-27.8196
-5.66868
-18.6397
-1.67592
15.2353
2.25989
24.1228
3.96065
31.9471
3.26492
41.5962
-44.8638
-6.64196
-35.0702
-7.34772
-27.4973
-5.94487
-19.6669
-3.07426
13.8587
-16.9713
-1.51447
10.8665
23.7579
40.5963
67.6931
28841.5
28804
28766.4
28728.8
28691.1
28653.4
28615.8
28578.3
28540.9
28503.6
28466.4
28429.3
28392.3
28355.3
28318.4
0.173022
0.133337
0.0822951
0.0257663
-0.0302748
-0.0805652
-0.121076
-0.149226
-0.16384
-0.164952
-0.153537
-0.131249
-0.100185
-0.0627098
-0.0213393
0.306082
0.234656
0.143109
0.0422981
-0.0569194
-0.145191
-0.215566
-0.263782
-0.288097
-0.28886
-0.267997
-0.228514
-0.174101
-0.10884
-0.0370127
0.468295
0.35614
0.213228
0.0572737
-0.094476
-0.227684
-0.332189
-0.402216
-0.435885
-0.43438
-0.401063
-0.340698
-0.25886
-0.161536
-0.0548829
0.676197
0.508387
0.296393
0.0680502
-0.150569
-0.338877
-0.483287
-0.577005
-0.618844
-0.611709
-0.561175
-0.474353
-0.359105
-0.223558
-0.075866
0.952345
0.70482
0.395909
0.0691074
-0.23697
-0.493965
-0.685073
-0.80367
-0.850775
-0.832437
-0.757573
-0.636434
-0.479648
-0.297725
-0.100888
1.32882
0.962636
0.513315
0.0494429
-0.37245
-0.714933
-0.959365
-1.10182
-1.14815
-1.10969
-1.00024
-0.83416
-0.625327
-0.386806
-0.13085
1.85293
1.30357
0.645263
-0.0122059
-0.587339
-1.03395
-1.33563
-1.4961
-1.53029
-1.45792
-1.29955
-1.07463
-0.800691
-0.493321
-0.166557
2.59677
1.75343
0.776345
-0.15621
-0.930762
-1.49789
-1.85309
-2.01665
-2.019
-1.89213
-1.66541
-1.36413
-1.00948
-0.619227
-0.208615
3.67412
2.33697
0.862863
-0.45825
-1.48163
-2.17376
-2.5622
-2.69841
-2.63693
-2.42619
-2.10582
-1.70699
-1.25387
-0.76549
-0.257291
5.27
3.05749
0.796361
-1.05805
-2.36378
-3.15334
-3.52355
-3.57785
-3.40411
-3.06988
-2.6247
-2.10411
-1.53354
-0.931563
-0.31235
7.68832
3.82673
0.323203
-2.20652
-3.76212
-4.55229
-4.8008
-4.68535
-4.33175
-3.82451
-3.21899
-2.5512
-1.84461
-1.11487
-0.372896
11.3894
4.23821
-1.12358
-4.32905
-5.92585
-6.4929
-6.44201
-6.03098
-5.41304
-4.67741
-3.87555
-3.03707
-2.17883
-1.31041
-0.437258
16.7215
2.86058
-4.72642
-8.06013
-9.11927
-9.05143
-8.44336
-7.5835
-6.61203
-5.59651
-4.56874
-3.54268
-2.52323
-1.51068
-0.502984
21.2568
-4.79076
-12.5823
-14.0657
-13.4396
-12.1502
-10.6965
-9.24762
-7.85504
-6.52784
-5.26022
-4.04168
-2.86072
-1.70608
-0.566983
0.564284
1.70053
2.86027
4.06089
5.32253
6.66989
8.13468
9.75937
11.6027
13.7472
16.3068
19.4164
23.1068
26.551
23.8394
0.575562
1.73472
2.91853
4.14536
5.43686
6.82009
8.33101
10.02
11.9623
14.2771
17.17
21.0347
26.7505
36.7201
59.1933
0.581262
1.7518
2.94692
4.18495
5.48748
6.88165
8.40365
10.1049
12.0632
14.4057
17.3583
21.3678
27.4401
38.2074
61.7231
0.581398
1.7518
2.94551
4.17973
5.47448
6.85444
8.35183
10.0111
11.8974
14.1107
16.8129
20.2688
24.8708
30.8465
35.6618
0.576251
1.73563
2.91598
4.13249
5.40231
6.74568
8.18756
9.75984
11.5043
13.4762
15.7443
18.3746
21.3494
24.2954
25.9783
0.566329
1.70489
2.86134
4.04824
5.27906
6.56852
7.93275
9.38892
10.9534
12.6359
14.4239
16.2412
17.849
18.6229
17.0467
0.552309
1.66173
2.78557
3.93349
5.11509
6.33945
7.61412
8.94281
10.3204
11.7223
13.083
14.2532
14.928
14.5825
12.818
0.534956
1.60855
2.69306
3.79537
4.92144
6.07544
7.25798
8.46277
9.67046
10.8372
11.8741
12.6092
12.7152
11.5273
7.28794
0.515048
1.54778
2.58821
3.64074
4.70839
5.79163
6.88641
7.98074
9.04898
10.0424
10.8748
11.4017
11.401
10.591
8.93601
0.493312
1.48166
2.47496
3.47562
4.48451
5.49981
6.51515
7.51685
8.47945
9.3595
10.0875
10.5608
10.6488
10.2414
9.40474
0.470374
1.41212
2.3566
3.30478
4.2562
5.20795
6.15339
7.08011
7.96728
8.78223
9.47701
9.98733
10.2406
10.1901
9.91341
0.446748
1.34067
2.23566
3.13171
4.02764
4.92048
5.80462
6.67085
7.50528
8.28843
8.99466
9.59239
10.0435
10.2957
10.246
0.422827
1.26848
2.11398
2.95871
3.80124
4.63906
5.4683
6.28366
7.0789
7.84804
8.58769
9.29929
9.98441
10.6111
11.0221
0.398906
1.1964
1.99285
2.78723
3.57812
4.36361
5.1416
5.91045
6.67065
7.42813
8.20019
9.02458
9.9659
11.0763
12.0499
0.375205
1.12505
1.87315
2.61819
3.35874
4.09337
4.82125
5.54325
6.2643
6.99809
7.77635
8.66867
9.82999
11.6364
15.1479
0.351896
1.05491
1.75558
2.45228
3.14346
3.82782
4.505
5.17671
5.8491
6.53716
7.27331
8.12596
9.24612
11.0124
14.5885
0.329126
0.986406
1.64075
2.29022
2.93291
3.56727
4.19254
4.80969
5.42302
6.04284
6.68938
7.39748
8.21355
9.13163
9.63961
0.307033
0.919935
1.52933
2.13285
2.72815
3.31303
3.88572
4.44532
4.99245
5.52995
6.0627
6.59401
7.11015
7.53565
7.67761
0.285749
0.855901
1.42198
1.98119
2.53062
3.06727
3.588
4.08961
4.56858
5.02036
5.43703
5.80107
6.06971
6.13658
5.72331
0.265402
0.794695
1.31941
1.83633
2.34199
2.83255
3.30356
3.74962
4.1636
4.53516
4.84791
5.07439
5.16937
5.07094
4.76986
0.246104
0.73667
1.22225
1.69928
2.16384
2.6114
3.03646
3.43192
3.78807
4.0908
4.31871
4.43904
4.40336
4.14602
3.57096
0.227947
0.682113
1.13102
1.57089
1.9975
2.40589
2.78991
3.14152
3.44965
3.69839
3.86422
3.91204
3.79128
3.44176
2.88368
0.21099
0.631209
1.04607
1.45171
1.84382
2.21731
2.56588
2.88132
3.15247
3.36357
3.49167
3.50212
3.33807
2.88233
1.76528
0.195255
0.584029
0.967516
1.34194
1.70308
2.04605
2.36485
2.65187
2.897
3.0864
3.20084
3.21338
3.08743
2.78214
2.32293
0.180728
0.540521
0.895262
1.24138
1.57496
1.89156
2.1859
2.45153
2.68023
2.86131
2.98078
3.02082
2.96134
2.78886
2.52147
0.167357
0.500521
0.829
1.14953
1.45865
1.75253
2.0269
2.27684
2.49653
2.679
2.81588
2.89739
2.91372
2.86151
2.76983
0.155061
0.463777
0.768258
1.06562
1.35291
1.62705
1.88488
2.12317
2.33868
2.52836
2.68944
2.81925
2.9137
2.96158
2.92552
0.143742
0.429976
0.71246
0.988713
1.2563
1.5129
1.75644
1.98531
2.19878
2.3976
2.58472
2.76567
2.94605
3.11996
3.24341
0.133293
0.39878
0.660992
0.917826
1.16733
1.40784
1.63819
1.85816
2.06907
2.27496
2.48431
2.71249
2.98291
3.31338
3.60497
0.123607
0.369859
0.613261
0.852032
1.08461
1.30982
1.52717
1.7373
1.94286
2.14993
2.37084
2.62999
2.9781
3.53383
4.6291
0.114589
0.34292
0.568749
0.790544
1.00701
1.21728
1.42116
1.61963
1.81561
2.0153
2.23082
2.48572
2.82911
3.37963
4.49366
0.106159
0.317719
0.527041
0.732759
0.933728
1.12917
1.31891
1.50371
1.68579
1.8697
2.06347
2.28003
2.53632
2.83412
3.02355
0.0982568
0.294075
0.487838
0.678275
0.864285
1.04504
1.22011
1.38967
1.55471
1.71725
1.88031
2.04677
2.21471
2.36389
2.4387
0.0908376
0.271861
0.450948
0.62687
0.7985
0.964855
1.12514
1.27879
1.42538
1.56447
1.69481
1.81249
1.90615
1.94535
1.84717
0.0838717
0.250994
0.416258
0.57845
0.736383
0.888892
1.0348
1.1728
1.30127
1.41776
1.51811
1.59491
1.63544
1.62222
1.55489
0.0773382
0.231418
0.383705
0.532993
0.678039
0.817523
0.949946
1.07345
1.1855
1.28228
1.35779
1.40252
1.40206
1.33668
1.17731
0.0712196
0.213089
0.353239
0.490485
0.623563
0.751063
0.871295
0.982072
1.08034
1.16158
1.21886
1.24153
1.21379
1.11643
0.956665
0.0654973
0.195956
0.324794
0.450875
0.572968
0.689658
0.799219
0.899387
0.987018
1.05752
1.10398
1.11557
1.07386
0.939525
0.586202
0.0601477
0.179952
0.298265
0.414041
0.52613
0.633213
0.733673
0.825419
0.905599
0.970178
1.01333
1.02664
0.99828
0.914709
0.784554
0.0551402
0.164984
0.273503
0.379771
0.482776
0.581373
0.674187
0.759493
0.835026
0.897724
0.943425
0.966652
0.961052
0.922255
0.85583
0.0504367
0.150937
0.250309
0.34777
0.44249
0.533555
0.619924
0.700365
0.773377
0.837084
0.889137
0.926699
0.946893
0.949001
0.943282
0.0459932
0.137676
0.228444
0.317678
0.404749
0.489007
0.569785
0.646406
0.718202
0.784551
0.844925
0.898823
0.945309
0.981201
0.994875
0.0417616
0.125052
0.207647
0.289094
0.368967
0.446882
0.522543
0.595809
0.666819
0.736182
0.805224
0.876109
0.951099
1.02885
1.09573
0.0376924
0.112913
0.18765
0.261609
0.334551
0.406331
0.476973
0.546789
0.616592
0.68805
0.76426
0.850561
0.954993
1.08406
1.20745
0.0337379
0.101113
0.168196
0.234835
0.300947
0.366578
0.431985
0.497789
0.565229
0.63663
0.716302
0.812442
0.941798
1.14324
1.5244
0.0298541
0.0895168
0.149055
0.208431
0.267685
0.326988
0.386732
0.447663
0.511127
0.579482
0.656926
0.751273
0.878566
1.07764
1.4666
0.0260028
0.0780092
0.13003
0.182117
0.234393
0.2871
0.340662
0.395791
0.453639
0.516035
0.585826
0.667245
0.765506
0.880216
0.959176
0.0221515
0.0664936
0.110962
0.155676
0.20081
0.246625
0.293513
0.34204
0.393005
0.447468
0.506666
0.571539
0.641045
0.70764
0.752576
0.018274
0.0548922
0.0917276
0.128948
0.166758
0.205414
0.245234
0.286606
0.329954
0.375625
0.423581
0.472634
0.518625
0.550128
0.536225
0.0143484
0.0431418
0.0722286
0.101816
0.132126
0.1634
0.195886
0.229811
0.265301
0.302207
0.33975
0.37587
0.406282
0.424167
0.427291
0.0103563
0.0311897
0.0523853
0.0741857
0.0968311
0.120552
0.145547
0.171938
0.199675
0.22836
0.256919
0.283084
0.302656
0.308474
0.2863
0.00628109
0.0189878
0.0321253
0.0459731
0.060795
0.0768258
0.0942465
0.113139
0.133403
0.154612
0.175763
0.194891
0.208593
0.212233
0.206697
0.00210623
0.00648844
0.0113753
0.0170884
0.0239248
0.0321412
0.0419322
0.0533966
0.0664849
0.0809147
0.0960233
0.110478
0.121532
0.122377
0.0894733
-0.00218583
-0.00635953
-0.00994556
-0.012572
-0.0138982
-0.0136301
-0.0115363
-0.00746452
-0.00135479
0.00675703
0.0167498
0.028437
0.0415737
0.0559683
0.0736746
-0.0066147
-0.0196139
-0.0319298
-0.0431311
-0.0528231
-0.0606629
-0.0663708
-0.0697322
-0.0705752
-0.0686963
-0.0636892
-0.0545985
-0.0392469
-0.0127299
0.0376249
-0.0112028
-0.0333409
-0.0546852
-0.0747342
-0.093029
-0.10917
-0.122827
-0.13374
-0.141676
-0.146311
-0.146953
-0.14197
-0.127809
-0.0979701
-0.0460714
-0.015976
-0.0476176
-0.0783372
-0.107552
-0.134726
-0.159395
-0.181182
-0.199808
-0.21506
-0.22669
-0.234111
-0.235703
-0.227247
-0.198516
-0.124393
-0.0209643
-0.0625328
-0.103032
-0.141782
-0.178157
-0.211615
-0.241726
-0.268209
-0.290951
-0.30998
-0.325307
-0.336401
-0.340751
-0.330571
-0.290687
-0.0262018
-0.0781893
-0.128938
-0.177657
-0.22361
-0.266152
-0.304781
-0.3392
-0.36941
-0.39583
-0.419429
-0.44177
-0.46433
-0.483237
-0.455654
-0.0317277
-0.0947041
-0.156252
-0.215449
-0.271425
-0.323402
-0.370754
-0.413105
-0.450492
-0.483629
-0.514414
-0.546974
-0.590431
-0.668169
-0.856956
-0.0375856
-0.112209
-0.185196
-0.255475
-0.322014
-0.383858
-0.440192
-0.490451
-0.534515
-0.573052
-0.608155
-0.644597
-0.692709
-0.775964
-0.953528
-0.0438233
-0.13085
-0.216018
-0.298093
-0.375858
-0.448136
-0.513843
-0.572091
-0.622366
-0.66485
-0.700953
-0.734103
-0.770566
-0.818247
-0.871705
-0.0504909
-0.15078
-0.248985
-0.343701
-0.433508
-0.51697
-0.592668
-0.65926
-0.715619
-0.76107
-0.79579
-0.821295
-0.840618
-0.8565
-0.863147
-0.0576393
-0.172155
-0.284372
-0.392716
-0.495559
-0.591191
-0.677809
-0.753529
-0.816438
-0.864734
-0.897016
-0.912769
-0.913045
-0.901152
-0.883466
-0.0653169
-0.195126
-0.322445
-0.445549
-0.562614
-0.671666
-0.770513
-0.856688
-0.927396
-0.979509
-1.00971
-1.01498
-0.993911
-0.949814
-0.896669
-0.0735664
-0.219826
-0.363442
-0.502571
-0.635231
-0.759222
-0.87201
-0.970583
-1.05126
-1.10949
-1.13971
-1.13548
-1.09076
-1.00475
-0.896469
-0.0824219
-0.24636
-0.407554
-0.564083
-0.713865
-0.854552
-0.983373
-1.0969
-1.19071
-1.25892
-1.29362
-1.28408
-1.21627
-1.07514
-0.870723
-0.0919059
-0.274797
-0.454903
-0.630276
-0.79881
-0.95812
-1.10535
-1.2369
-1.34791
-1.43163
-1.47825
-1.47313
-1.39269
-1.18948
-0.71691
-0.102029
-0.305169
-0.505537
-0.701217
-0.890157
-1.07007
-1.23822
-1.39115
-1.52408
-1.63009
-1.69879
-1.7145
-1.65434
-1.49088
-1.23063
-0.112788
-0.337463
-0.559426
-0.776834
-0.987772
-1.19017
-1.38167
-1.55928
-1.71892
-1.85444
-1.95614
-2.00853
-1.98774
-1.85948
-1.56859
-0.124173
-0.37164
-0.616475
-0.85694
-1.09131
-1.31785
-1.53475
-1.73989
-1.93051
-2.10228
-2.24773
-2.35337
-2.39575
-2.34103
-2.1789
-0.136168
-0.407643
-0.676557
-0.941277
-1.20028
-1.45223
-1.69598
-1.93059
-2.15518
-2.36839
-2.56696
-2.74214
-2.87119
-2.89715
-2.6723
-0.14876
-0.445424
-0.739551
-1.02958
-1.31416
-1.59229
-1.86354
-2.12823
-2.38775
-2.64467
-2.90243
-3.16293
-3.41821
-3.62744
-3.69054
-0.161948
-0.484965
-0.805389
-1.12166
-1.4325
-1.73714
-2.03566
-2.32947
-2.6221
-2.92036
-3.23598
-3.58735
-3.99721
-4.4592
-4.70598
-0.175745
-0.526304
-0.874113
-1.21751
-1.55514
-1.88624
-2.21104
-2.53152
-2.85255
-3.18399
-3.54469
-3.97113
-4.54
-5.4404
-7.25649
-0.19019
-0.569553
-0.9459
-1.31735
-1.68231
-2.0397
-2.38943
-2.73319
-3.07575
-3.42729
-3.80774
-4.256
-4.85255
-5.78571
-7.57792
-0.20534
-0.614894
-1.02108
-1.42171
-1.81474
-2.19847
-2.57195
-2.93568
-3.29272
-3.65051
-4.0237
-4.43787
-4.93135
-5.53443
-6.10009
-0.221271
-0.662572
-1.10012
-1.53135
-1.95362
-2.36434
-2.76124
-3.14282
-3.50915
-3.86303
-4.2112
-4.56466
-4.93403
-5.30915
-5.60882
-0.238063
-0.712853
-1.18355
-1.6472
-2.10051
-2.53982
-2.96117
-3.36054
-3.73423
-4.0795
-4.39502
-4.68039
-4.93271
-5.13623
-5.23708
-0.255784
-0.765971
-1.27188
-1.77023
-2.25712
-2.72776
-3.17637
-3.59608
-3.97904
-4.31662
-4.59976
-4.81907
-4.96525
-5.03461
-5.05949
-0.274464
-0.822057
-1.36545
-1.90123
-2.425
-2.93099
-3.41163
-3.85715
-4.25534
-4.59154
-4.84883
-5.00851
-5.05114
-4.96385
-4.77666
-0.294072
-0.881055
-1.46431
-2.04056
-2.60522
-3.15183
-3.67127
-4.15107
-4.5747
-4.92125
-5.16569
-5.27923
-5.22723
-4.96246
-4.48877
-0.314487
-0.942637
-1.56804
-2.18793
-2.79798
-3.39152
-3.95843
-4.48398
-4.94757
-5.32186
-5.57343
-5.6649
-5.55107
-5.10618
-3.59703
-0.335472
-1.00612
-1.67561
-2.34213
-3.00221
-3.64969
-4.2743
-4.85994
-5.38243
-5.8077
-6.09234
-6.19315
-6.1048
-5.989
-6.65316
-0.356659
-1.07042
-1.78522
-2.50079
-3.2152
-3.92373
-4.61724
-5.27973
-5.88479
-6.39118
-6.7389
-6.85275
-6.67762
-6.33022
-6.67954
-0.37754
-1.13398
-1.8943
-2.66026
-3.43226
-4.20818
-4.98171
-5.73938
-6.45567
-7.08484
-7.54787
-7.71304
-7.37009
-6.18762
-3.49419
-0.397474
-1.19486
-1.99944
-2.81554
-3.64658
-4.4943
-5.3572
-6.22777
-7.08704
-7.89386
-8.56367
-8.92619
-8.64557
-7.09433
-3.29143
-0.415714
-1.25074
-2.09659
-2.96043
-3.84933
-4.76986
-5.72734
-6.72399
-7.7548
-8.79803
-9.79286
-10.5859
-10.8034
-9.56469
-5.01921
-0.43145
-1.29912
-2.18123
-3.08792
-4.0301
-5.01975
-6.07027
-7.19648
-8.41394
-9.73578
-11.1621
-12.6454
-13.9725
-14.3314
-10.5615
-0.443876
-1.33745
-2.2488
-3.19077
-4.17789
-5.22737
-6.36063
-7.60559
-9.00057
-10.6009
-12.4919
-14.8133
-17.814
-21.9653
-28.1546
-11.6705
-26.4873
-25.0269
-21.3784
-17.9907
-15.1502
-12.7707
-10.7335
-8.94433
-7.33452
-5.85476
-4.46875
-3.14874
-1.87257
-0.62147
-113.804
-59.3803
-38.3499
-27.9599
-21.7637
-17.5492
-14.4065
-11.9012
-9.80112
-7.97068
-6.32501
-4.80742
-3.37762
-2.00505
-0.664858
-126.511
-69.0835
-44.284
-31.6288
-24.1604
-19.204
-15.5997
-12.7876
-10.4706
-8.4785
-6.7063
-5.08512
-3.56674
-2.11506
-0.700967
-69.5257
-56.1285
-41.7846
-31.6959
-24.8128
-19.9196
-16.2427
-13.3299
-10.9145
-8.8336
-6.98269
-5.29142
-3.70954
-2.19894
-0.728635
-49.0961
-43.8313
-36.3301
-29.5369
-24.0833
-19.7905
-16.3552
-13.5269
-11.1262
-9.02892
-7.14823
-5.42174
-3.80283
-2.25485
-0.747246
-31.2001
-33.0871
-30.384
-26.4476
-22.5476
-19.0658
-16.0461
-13.4268
-11.1271
-9.07382
-7.20666
-5.47735
-3.84686
-2.28271
-0.756748
-23.0299
-25.5304
-25.2942
-23.3331
-20.7215
-18.0203
-15.4588
-13.1047
-10.957
-8.98944
-7.16934
-5.46434
-3.84481
-2.28405
-0.757591
-12.8119
-19.8742
-21.4022
-20.6702
-18.9575
-16.8777
-14.7275
-12.6393
-10.6616
-8.80269
-7.05208
-5.39194
-3.80196
-2.26156
-0.750602
-15.4836
-18.0614
-19.0797
-18.6882
-17.4485
-15.784
-13.9532
-12.097
-10.2838
-8.54068
-6.87199
-5.27082
-3.72466
-2.21862
-0.736838
-16.1812
-17.3314
-17.7361
-17.2951
-16.2345
-14.8058
-13.1964
-11.5248
-9.85744
-8.22694