/*--------------------------------*- C++ -*----------------------------------*\
| =========                 |                                                 |
| \\      /  F ield         | OpenFOAM: The Open Source CFD Toolbox           |
|  \\    /   O peration     | Version:  5.x                                   |
|   \\  /    A nd           | Web:      www.OpenFOAM.org                      |
|    \\/     M anipulation  |                                                 |
\*---------------------------------------------------------------------------*/
FoamFile
{
    version     2.0;
    format      ascii;
    class       volScalarField;
    location    "7.2";
    object      gradTy;
}
// * * * * * * * * * * * * * * * * * * * * * * * * * * * * * * * * * * * * * //

dimensions      [0 -1 0 1 0 0 0];

internalField   nonuniform List<scalar> 
2048
(
-26.4236
-26.396
-26.3416
-26.2619
-26.1591
-26.0357
-25.8945
-25.7382
-25.5696
-25.3914
-25.2059
-25.0153
-24.8215
-24.6261
-24.4308
-24.2367
-24.0451
-23.8568
-23.6726
-23.4931
-23.3187
-23.1498
-22.9866
-22.8294
-22.6783
-22.5337
-22.3959
-22.265
-22.1417
-22.0262
-21.9192
-21.8213
-21.7333
-21.656
-21.5903
-21.5372
-21.4979
-21.4735
-21.4653
-21.4744
-21.5022
-21.55
-21.6189
-21.71
-21.8244
-21.9628
-22.1256
-22.3128
-22.5236
-22.7566
-23.0096
-23.2793
-23.5613
-23.8504
-24.1406
-24.4252
-24.6976
-24.9511
-25.1795
-25.3777
-25.5412
-25.6666
-25.7515
-25.7943
-26.4459
-26.4176
-26.362
-26.2807
-26.1758
-26.0502
-25.9066
-25.7481
-25.5775
-25.3973
-25.2101
-25.0179
-24.8227
-24.6261
-24.4297
-24.2348
-24.0424
-23.8535
-23.6688
-23.489
-23.3143
-23.1451
-22.9818
-22.8243
-22.6731
-22.5283
-22.3901
-22.259
-22.1353
-22.0194
-21.9119
-21.8134
-21.7247
-21.6466
-21.58
-21.5261
-21.4858
-21.4605
-21.4512
-21.4593
-21.4861
-21.5329
-21.6008
-21.6912
-21.805
-21.9431
-22.106
-22.2936
-22.5056
-22.7405
-22.9962
-23.2693
-23.5555
-23.8495
-24.145
-24.4352
-24.7129
-24.9713
-25.2041
-25.4058
-25.572
-25.6994
-25.7855
-25.829
-26.4886
-26.4591
-26.401
-26.3163
-26.2075
-26.0775
-25.9296
-25.7668
-25.5921
-25.4083
-25.2178
-25.0227
-24.8249
-24.626
-24.4276
-24.231
-24.0372
-23.8471
-23.6616
-23.4811
-23.3059
-23.1363
-22.9726
-22.8149
-22.6633
-22.518
-22.3794
-22.2477
-22.1232
-22.0065
-21.898
-21.7984
-21.7083
-21.6288
-21.5607
-21.505
-21.463
-21.4358
-21.4246
-21.4308
-21.4556
-21.5005
-21.5667
-21.6555
-21.7681
-21.9055
-22.0684
-22.257
-22.471
-22.7094
-22.9701
-23.2498
-23.5442
-23.8476
-24.1534
-24.4541
-24.7421
-25.01
-25.251
-25.4595
-25.6309
-25.7619
-25.8504
-25.895
-26.5498
-26.5184
-26.4568
-26.3672
-26.2525
-26.1162
-25.9618
-25.7929
-25.6125
-25.4235
-25.2284
-25.0291
-24.8277
-24.6256
-24.4244
-24.2254
-24.0296
-23.838
-23.6512
-23.4698
-23.294
-23.1239
-22.9597
-22.8016
-22.6495
-22.5036
-22.3643
-22.2317
-22.1063
-21.9884
-21.8785
-21.7773
-21.6855
-21.6039
-21.5336
-21.4755
-21.4309
-21.4011
-21.3871
-21.3905
-21.4126
-21.4547
-21.5183
-21.6048
-21.7156
-21.8519
-22.0146
-22.2043
-22.4212
-22.6643
-22.9319
-23.221
-23.5271
-23.8441
-24.1648
-24.481
-24.784
-25.0656
-25.3184
-25.5364
-25.715
-25.8512
-25.9428
-25.9889
-26.6283
-26.5943
-26.5278
-26.4316
-26.3091
-26.1645
-26.0019
-25.825
-25.6375
-25.442
-25.2411
-25.0367
-24.8307
-24.6247
-24.42
-24.2179
-24.0197
-23.8261
-23.6379
-23.4554
-23.2789
-23.1083
-22.9436
-22.785
-22.6323
-22.4858
-22.3456
-22.212
-22.0854
-21.9661
-21.8545
-21.7513
-21.6572
-21.573
-21.4998
-21.4388
-21.391
-21.3577
-21.3404
-21.3402
-21.3587
-21.3973
-21.4576
-21.541
-21.6493
-21.7839
-21.9461
-22.1369
-22.3568
-22.6057
-22.8819
-23.1828
-23.5038
-23.8385
-24.1787
-24.515
-24.8376
-25.137
-25.4049
-25.6349
-25.8224
-25.9647
-26.06
-26.1079
-26.7229
-26.6856
-26.613
-26.5084
-26.3761
-26.2212
-26.0484
-25.8621
-25.6659
-25.4628
-25.2552
-25.045
-24.8337
-24.623
-24.4142
-24.2086
-24.0075
-23.8117
-23.6219
-23.4383
-23.261
-23.0899
-22.9248
-22.7656
-22.6123
-22.465
-22.3239
-22.1892
-22.0612
-21.9402
-21.8266
-21.7211
-21.6243
-21.5371
-21.4606
-21.3959
-21.3443
-21.3071
-21.2857
-21.2813
-21.2955
-21.3299
-21.386
-21.4657
-21.5707
-21.7029
-21.864
-22.0556
-22.2787
-22.5337
-22.8199
-23.1347
-23.4737
-23.8299
-24.1942
-24.5555
-24.9023
-25.2234
-25.5095
-25.7536
-25.9513
-26.1003
-26.1996
-26.2493
-26.833
-26.7917
-26.7114
-26.5964
-26.4522
-26.2849
-26.1
-25.9027
-25.6967
-25.4852
-25.2702
-25.0534
-24.8363
-24.6204
-24.4069
-24.1974
-23.9931
-23.7948
-23.6033
-23.4186
-23.2407
-23.0691
-22.9037
-22.744
-22.59
-22.4419
-22.2997
-22.1637
-22.0342
-21.9115
-21.7958
-21.6876
-21.5878
-21.4971
-21.4168
-21.348
-21.2921
-21.2504
-21.2243
-21.2152
-21.2245
-21.2539
-21.3052
-21.3803
-21.4812
-21.6102
-21.7694
-21.9611
-22.1871
-22.4485
-22.7454
-23.076
-23.4359
-23.8175
-24.2105
-24.6019
-24.9777
-25.3245
-25.6317
-25.8916
-26.1003
-26.2562
-26.3594
-26.4108
-26.9583
-26.9119
-26.8222
-26.6947
-26.5362
-26.3542
-26.1555
-25.9457
-25.729
-25.5082
-25.2853
-25.0616
-24.8383
-24.6166
-24.3981
-24.1842
-23.9763
-23.7754
-23.5821
-23.3965
-23.2181
-23.0463
-22.8806
-22.7205
-22.5659
-22.4169
-22.2736
-22.1363
-22.0053
-21.8806
-21.7626
-21.6516
-21.5484
-21.4539
-21.3693
-21.296
-21.2353
-21.1886
-21.1574
-21.143
-21.1468
-21.1707
-21.2164
-21.286
-21.382
-21.5069
-21.6633
-21.8542
-22.0823
-22.3499
-22.658
-23.0058
-23.3892
-23.8002
-24.227
-24.6538
-25.0637
-25.4404
-25.7713
-26.0484
-26.2682
-26.4307
-26.5374
-26.5901
-27.0985
-27.046
-26.9449
-26.8023
-26.6269
-26.428
-26.2135
-25.9899
-25.7616
-25.5312
-25.3002
-25.0693
-24.8394
-24.6117
-24.3876
-24.1689
-23.9571
-23.7535
-23.5586
-23.3722
-23.1936
-23.0219
-22.8561
-22.6957
-22.5404
-22.3904
-22.2459
-22.1073
-21.9747
-21.8481
-21.7277
-21.6137
-21.5068
-21.4081
-21.3189
-21.2406
-21.1747
-21.1228
-21.086
-21.0658
-21.0637
-21.0814
-21.1208
-21.1843
-21.2744
-21.3941
-21.5466
-21.7356
-21.9647
-22.2377
-22.5569
-22.9229
-23.3323
-23.7768
-24.2427
-24.711
-25.1606
-25.5715
-25.9286
-26.2236
-26.4542
-26.6223
-26.7314
-26.7849
-27.2539
-27.1939
-27.0791
-26.9184
-26.7232
-26.5048
-26.2726
-26.0341
-25.7936
-25.5535
-25.3143
-25.0762
-24.8397
-24.6055
-24.3754
-24.1515
-23.9355
-23.7291
-23.5326
-23.3457
-23.1674
-22.9961
-22.8305
-22.6698
-22.5139
-22.3628
-22.2171
-22.0772
-21.9431
-21.8146
-21.6917
-21.5746
-21.4638
-21.3605
-21.2662
-21.1826
-21.1112
-21.0536
-21.011
-20.9847
-20.9762
-20.9872
-21.0197
-21.0762
-21.1595
-21.2729
-21.4203
-21.6058
-21.8346
-22.1117
-22.4414
-22.8262
-23.2637
-23.7459
-24.2567
-24.7733
-25.2689
-25.7185
-26.1041
-26.4171
-26.6573
-26.8293
-26.9393
-26.9928
-27.4245
-27.3556
-27.2242
-27.0423
-26.824
-26.5833
-26.3316
-26.0771
-25.8242
-25.5744
-25.3274
-25.0823
-24.839
-24.5981
-24.3615
-24.1318
-23.9114
-23.702
-23.5042
-23.3173
-23.1397
-22.9692
-22.8042
-22.6434
-22.4867
-22.3344
-22.1874
-22.0462
-21.9107
-21.7805
-21.6552
-21.5348
-21.4198
-21.3116
-21.2119
-21.1226
-21.0454
-20.9819
-20.9332
-20.9006
-20.8853
-20.8892
-20.9141
-20.9629
-21.0385
-21.1446
-21.2853
-21.4658
-21.6923
-21.9717
-22.3107
-22.7141
-23.1818
-23.7057
-24.2679
-24.8405
-25.3894
-25.8827
-26.2986
-26.6291
-26.8768
-27.0502
-27.1592
-27.2115
-27.611
-27.5312
-27.3802
-27.173
-26.9279
-26.6621
-26.389
-26.1177
-25.8524
-25.5935
-25.3393
-25.0876
-24.8375
-24.5895
-24.3459
-24.1099
-23.8846
-23.6722
-23.4733
-23.287
-23.1108
-22.9418
-22.7776
-22.6167
-22.4591
-22.3055
-22.157
-22.0146
-21.8779
-21.7462
-21.6186
-21.4949
-21.3755
-21.262
-21.1565
-21.0612
-20.9779
-20.9082
-20.8534
-20.8142
-20.792
-20.7882
-20.8051
-20.8455
-20.9126
-21.0101
-21.1427
-21.3164
-21.5384
-21.8177
-22.164
-22.5854
-23.0845
-23.6545
-24.2752
-24.9128
-25.5235
-26.0657
-26.5135
-26.8597
-27.1117
-27.2833
-27.3885
-27.4383
-27.814
-27.7211
-27.5466
-27.3098
-27.0337
-26.7397
-26.4434
-26.1547
-25.8774
-25.6104
-25.3499
-25.0921
-24.8353
-24.58
-24.3287
-24.0856
-23.855
-23.6396
-23.44
-23.2548
-23.0809
-22.9141
-22.751
-22.5902
-22.4316
-22.2763
-22.1262
-21.9825
-21.845
-21.7122
-21.5825
-21.4553
-21.3313
-21.2122
-21.1004
-20.9986
-20.9091
-20.8333
-20.7721
-20.7264
-20.697
-20.6853
-20.6936
-20.7249
-20.7826
-20.8706
-20.9938
-21.1586
-21.3736
-21.6498
-22.0006
-22.4383
-22.9697
-23.5898
-24.2771
-24.9903
-25.6727
-26.2699
-26.7502
-27.1094
-27.3613
-27.5267
-27.6251
-27.6706
-28.0343
-27.9258
-27.7234
-27.4517
-27.1399
-26.8145
-26.4934
-26.1869
-25.8984
-25.6247
-25.3593
-25.0962
-24.8329
-24.5698
-24.3099
-24.0588
-23.8224
-23.6039
-23.404
-23.221
-23.0503
-22.8864
-22.725
-22.5642
-22.4043
-22.2469
-22.0948
-21.9502
-21.8123
-21.6788
-21.5471
-21.4166
-21.2877
-21.1624
-21.0438
-20.9354
-20.8395
-20.7574
-20.6901
-20.6379
-20.6012
-20.5812
-20.5805
-20.6022
-20.6498
-20.7273
-20.8395
-20.9934
-21.1986
-21.4682
-21.8197
-22.2712
-22.8349
-23.5091
-24.2716
-25.0731
-25.8394
-26.498
-27.0108
-27.3784
-27.6243
-27.7784
-27.8662
-27.9057
-28.2729
-28.1457
-27.9103
-27.5977
-27.2451
-26.8851
-26.5374
-26.2131
-25.9147
-25.6362
-25.3676
-25.1001
-24.8305
-24.5592
-24.2896
-24.0294
-23.7867
-23.565
-23.3653
-23.1854
-23.0192
-22.8594
-22.7
-22.5392
-22.3776
-22.2173
-22.0629
-21.9175
-21.7799
-21.6463
-21.513
-21.3791
-21.245
-21.113
-20.9871
-20.8717
-20.7692
-20.681
-20.6078
-20.5492
-20.5052
-20.4767
-20.4665
-20.4781
-20.5151
-20.5812
-20.6812
-20.8223
-21.0146
-21.2734
-21.621
-22.0825
-22.6775
-23.4092
-24.2563
-25.1614
-26.0266
-26.7537
-27.2974
-27.667
-27.8997
-28.0362
-28.1094
-28.1408
-28.5312
-28.3815
-28.1074
-27.7469
-27.3475
-26.9496
-26.5741
-26.232
-25.9257
-25.645
-25.3753
-25.1043
-24.8286
-24.5487
-24.2679
-23.9971
-23.7475
-23.5226
-23.3235
-23.1481
-22.9881
-22.8334
-22.6764
-22.5154
-22.3516
-22.1877
-22.0302
-21.8843
-21.7479
-21.6151
-21.4806
-21.3432
-21.2038
-21.0643
-20.9304
-20.8078
-20.6987
-20.6045
-20.5256
-20.4609
-20.4097
-20.3725
-20.3524
-20.3534
-20.3794
-20.4335
-20.5201
-20.6465
-20.8229
-21.0662
-21.4041
-21.8705
-22.4948
-23.2865
-24.228
-25.2552
-26.2381
-27.0414
-27.6125
-27.9754
-28.1857
-28.2978
-28.3519
-28.3731
-28.8104
-28.6339
-28.3144
-27.8979
-27.4452
-27.0065
-26.6019
-26.2424
-25.9306
-25.6509
-25.3829
-25.1094
-24.8277
-24.5389
-24.245
-23.9617
-23.7047
-23.4766
-23.2785
-23.1091
-22.9571
-22.8091
-22.6546
-22.4932
-22.3269
-22.158
-21.9965
-21.8506
-21.7166
-21.5857
-21.4502
-21.3094
-21.1643
-21.0165
-20.8737
-20.7437
-20.6281
-20.528
-20.4439
-20.3735
-20.3153
-20.2691
-20.2387
-20.2288
-20.2436
-20.2853
-20.3574
-20.4675
-20.6251
-20.8475
-21.169
-21.6338
-22.2839
-23.137
-24.1827
-25.3545
-26.479
-27.3665
-27.9587
-28.3033
-28.4806
-28.5605
-28.5909
-28.5998
-29.1122
-28.9034
-28.5316
-28.0495
-27.5359
-27.0543
-26.6196
-26.243
-25.9289
-25.6543
-25.3912
-25.1158
-24.8281
-24.5304
-24.2211
-23.9227
-23.6581
-23.4266
-23.2298
-23.0683
-22.9267
-22.7871
-22.6352
-22.4729
-22.3037
-22.1281
-21.9612
-21.8161
-21.6859
-21.5585
-21.4222
-21.2778
-21.1272
-20.9699
-20.817
-20.6795
-20.5575
-20.4517
-20.363
-20.2876
-20.2226
-20.1672
-20.1258
-20.1047
-20.1083
-20.1375
-20.1942
-20.2869
-20.4232
-20.6188
-20.9159
-21.3708
-22.0423
-22.9562
-24.1145
-25.4589
-26.756
-27.7356
-28.3385
-28.6498
-28.7818
-28.8215
-28.8238
-28.8185
-29.4384
-29.1906
-28.7591
-28.2001
-27.617
-27.0915
-26.6262
-26.2323
-25.9203
-25.6555
-25.4014
-25.1242
-24.8304
-24.5244
-24.1962
-23.8793
-23.6076
-23.3726
-23.1768
-23.0258
-22.8972
-22.7682
-22.6185
-22.4548
-22.2827
-22.098
-21.9236
-21.7803
-21.6561
-21.534
-21.3969
-21.2487
-21.0928
-20.9245
-20.7599
-20.6154
-20.4871
-20.3756
-20.2832
-20.2036
-20.1322
-20.0671
-20.0142
-19.9816
-19.9743
-19.9913
-20.0317
-20.1063
-20.2194
-20.3817
-20.6453
-21.0803
-21.7676
-22.7392
-24.0159
-25.5672
-27.078
-28.1563
-28.7544
-29.0136
-29.0865
-29.078
-29.0479
-29.0267
-29.7912
-29.4956
-28.9977
-28.3483
-27.6851
-27.1171
-26.6206
-26.2086
-25.9042
-25.6549
-25.4148
-25.135
-24.8346
-24.5223
-24.1705
-23.8303
-23.5532
-23.3144
-23.1188
-22.9815
-22.8691
-22.7535
-22.6049
-22.4389
-22.2646
-22.0674
-21.8825
-21.7429
-21.6273
-21.513
-21.3745
-21.2222
-21.0619
-20.8804
-20.7021
-20.5514
-20.417
-20.2997
-20.2048
-20.1219
-20.0448
-19.9694
-19.9042
-19.8597
-19.8422
-19.8475
-19.8706
-19.9273
-20.0162
-20.1382
-20.3582
-20.7608
-21.458
-22.4814
-23.8765
-25.6776
-27.4569
-28.6378
-29.208
-29.3924
-29.3915
-29.3268
-29.2609
-29.2224
-30.1732
-29.8179
-29.2488
-28.492
-27.7359
-27.1308
-26.6026
-26.1697
-25.8805
-25.6529
-25.4337
-25.1484
-24.8404
-24.5262
-24.1442
-23.7741
-23.4953
-23.2523
-23.0545
-22.9353
-22.8427
-22.7444
-22.5945
-22.4249
-22.2507
-22.0364
-21.8365
-21.7036
-21.5996
-21.4966
-21.3551
-21.1981
-21.0356
-20.8378
-20.6427
-20.4876
-20.3474
-20.2237
-20.1281
-20.0429
-19.9609
-19.8744
-19.7959
-19.739
-19.7124
-19.7072
-19.7115
-19.7512
-19.8169
-19.8904
-20.0561
-20.4109
-21.1127
-22.1789
-23.6823
-25.7866
-27.9091
-29.1901
-29.6999
-29.7826
-29.6929
-29.5651
-29.4604
-29.4037
-30.5874
-30.1556
-29.5146
-28.6295
-27.7639
-27.1333
-26.5723
-26.1127
-25.8494
-25.6498
-25.4607
-25.1643
-24.8469
-24.5392
-24.1174
-23.7078
-23.4351
-23.1866
-22.9823
-22.8875
-22.8182
-22.7429
-22.5872
-22.4122
-22.2429
-22.0047
-21.7832
-21.662
-21.573
-21.4863
-21.3387
-21.1758
-21.0153
-20.7966
-20.5804
-20.4247
-20.2785
-20.1472
-20.0532
-19.9669
-19.8812
-19.7824
-19.6893
-19.6194
-19.5853
-19.5718
-19.5544
-19.5791
-19.6252
-19.6407
-19.7411
-20.0284
-20.7323
-21.8292
-23.4142
-25.8884
-28.4572
-29.8244
-30.2294
-30.1798
-29.9864
-29.7898
-29.6446
-29.5694
-31.038
-30.505
-29.7996
-28.7585
-27.7611
-27.1269
-26.5304
-26.0335
-25.8116
-25.6454
-25.5001
-25.1822
-24.8519
-24.5659
-24.0902
-23.6271
-23.3744
-23.1181
-22.8995
-22.8385
-22.7956
-22.7514
-22.5827
-22.3994
-22.2441
-21.9722
-21.7197
-21.6181
-21.5472
-21.484
-21.3249
-21.1543
-21.0031
-20.7569
-20.5132
-20.3632
-20.2107
-20.0693
-19.9806
-19.8941
-19.8067
-19.6937
-19.5844
-19.5006
-19.4611
-19.4427
-19.3989
-19.4119
-19.4455
-19.3912
-19.4161
-19.6102
-20.3187
-21.4332
-23.0462
-25.9741
-29.1322
-30.5522
-30.7932
-30.5778
-30.2676
-29.9983
-29.812
-29.7183
-31.5302
-30.8593
-30.1107
-28.8769
-27.7168
-27.1162
-26.4788
-25.9262
-25.7689
-25.6389
-25.5574
-25.2008
-24.8517
-24.6131
-24.0628
-23.5259
-23.3166
-23.0483
-22.8023
-22.7895
-22.7742
-22.7739
-22.5801
-22.3839
-22.2586
-21.939
-21.6417
-21.5727
-21.5217
-21.4928
-21.3132
-21.1314
-21.0024
-20.7187
-20.4383
-20.3047
-20.1446
-19.9888
-19.9109
-19.8246
-19.7383
-19.6084
-19.4812
-19.3818
-19.3399
-19.3222
-19.2436
-19.2496
-19.2837
-19.1434
-19.0857
-19.151
-19.8762
-20.9968
-22.5434
-26.0298
-29.9772
-31.384
-31.3852
-30.9695
-30.5318
-30.1882
-29.9614
-29.8499
-32.0715
-31.2066
-30.459
-28.9824
-27.6158
-27.1097
-26.4203
-25.7821
-25.7251
-25.6277
-25.6411
-25.2179
-24.84
-24.6909
-24.0351
-23.3948
-23.2675
-22.9791
-22.6848
-22.7428
-22.7522
-22.8157
-22.5779
-22.3618
-22.2928
-21.9049
-21.5431
-21.5273
-21.4951
-21.517
-21.3022
-21.1041
-21.0179
-20.6818
-20.3512
-20.2514
-20.0809
-19.9036
-19.8451
-19.7581
-19.6775
-19.5266
-19.3795
-19.2622
-19.2215
-19.2133
-19.0862
-19.0915
-19.1472
-18.8977
-18.7565
-18.6424
-19.4112
-20.5341
-21.8591
-26.0349
-31.0518
-32.3276
-31.9956
-31.3467
-30.7747
-30.3574
-30.092
-29.9639
-32.6723
-31.5279
-30.8621
-29.0727
-27.4368
-27.1208
-26.3594
-25.5886
-25.687
-25.6063
-25.7629
-25.2299
-24.807
-24.8138
-24.0072
-23.2203
-23.2358
-22.9134
-22.5388
-22.7028
-22.726
-22.8845
-22.5737
-22.3266
-22.356
-21.8698
-21.4157
-21.4853
-21.4645
-21.5628
-21.2901
-21.0674
-21.0566
-20.646
-20.2458
-20.2072
-20.0206
-19.8108
-19.7848
-19.6939
-19.6261
-19.448
-19.2794
-19.1404
-19.1051
-19.1205
-18.923
-18.9354
-19.0458
-18.6523
-18.4389
-18.0711
-18.9322
-20.0713
-20.9312
-25.9594
-32.4383
-33.3852
-32.6102
-31.7002
-30.9921
-30.5046
-30.2038
-30.0606
-33.3476
-31.7937
-31.346
-29.1455
-27.1498
-27.1701
-26.3019
-25.3272
-25.6659
-25.5653
-25.9398
-25.2318
-24.7379
-25.0026
-23.9787
-22.9831
-23.235
-22.8551
-22.3519
-22.6768
-22.6893
-22.9915
-22.5643
-22.2688
-22.4616
-21.8334
-21.2479
-21.4531
-21.4248
-21.6391
-21.2743
-21.0137
-21.1286
-20.6109
-20.1133
-20.1779
-19.965
-19.7059
-19.7328
-19.6305
-19.5866
-19.372
-19.181
-19.0148
-18.9894
-19.0503
-18.7486
-18.7776
-18.9929
-18.4019
-18.1483
-17.417
-18.4492
-19.6521
-19.6779
-25.7603
-34.2496
-34.5488
-33.2104
-32.0205
-31.1806
-30.6289
-30.2966
-30.1405
-34.1181
-31.9599
-31.9491
-29.1987
-26.7138
-27.2881
-26.2552
-24.972
-25.6807
-25.4881
-26.1957
-25.2165
-24.6112
-25.2864
-23.9492
-22.6563
-23.2846
-22.8093
-22.1068
-22.6769
-22.6311
-23.1523
-22.5447
-22.1745
-22.6283
-21.7951
-21.0241
-21.4408
-21.3676
-21.7586
-21.2508
-20.9324
-21.2482
-20.5756
-19.9415
-20.172
-19.9154
-19.5827
-19.6934
-19.5653
-19.5625
-19.2974
-19.085
-18.8833
-18.8718
-19.0122
-18.5553
-18.6118
-19.0069
-18.1356
-17.9083
-16.6498
-17.9734
-19.3445
-17.9933
-25.3772
-36.6388
-35.7944
-33.7728
-32.2988
-31.3377
-30.7301
-30.3712
-30.2042
-35.0135
-31.962
-32.7267
-29.2301
-26.0724
-27.5185
-26.2288
-24.4862
-25.7606
-25.3485
-26.5641
-25.1745
-24.3963
-25.7052
-23.9178
-22.203
-23.4128
-22.782
-21.7792
-22.7219
-22.534
-23.3888
-22.5086
-22.0241
-22.8821
-21.754
-20.723
-21.4649
-21.2791
-21.9387
-21.2145
-20.8083
-21.435
-20.5392
-19.7139
-20.202
-19.8736
-19.4323
-19.6731
-19.4937
-19.5587
-19.2222
-18.9922
-18.7437
-18.7482
-19.0195
-18.3327
-18.4285
-19.1131
-17.8338
-17.7539
-15.7267
-17.5146
-19.2486
-15.7412
-24.7268
-39.8116
-37.0738
-34.2709
-32.5273
-31.4618
-30.8084
-30.4284
-30.2528
-36.0746
-31.7088
-33.7559
-29.2372
-25.1504
-27.9218
-26.2339
-23.8193
-25.9496
-25.1063
-27.0909
-25.0933
-24.051
-26.3133
-23.8828
-21.5733
-23.6586
-22.7809
-21.3354
-22.8405
-22.3717
-23.7313
-22.4477
-21.7903
-23.2578
-21.7082
-20.3162
-21.5499
-21.138
-22.2038
-21.1586
-20.6203
-21.7156
-20.4995
-19.4081
-20.2853
-19.8412
-19.2428
-19.6818
-19.4089
-19.5819
-19.1431
-18.9047
-18.593
-18.6122
-19.0906
-18.0674
-18.2138
-19.3463
-17.4651
-17.7363
-14.588
-17.0793
-19.5069
-12.7486
-23.6961
-44.0416
-38.3039
-34.6764
-32.7001
-31.5526
-30.8648
-30.4692
-30.2873
-37.3574
-31.0742
-35.1425
-29.2175
-23.8479
-28.5806
-26.2832
-22.9028
-26.3121
-24.7016
-27.8389
-24.9572
-23.5183
-27.1827
-23.842
-20.7017
-24.0752
-22.8146
-20.7302
-23.0748
-22.1046
-24.221
-22.3511
-21.4365
-23.8022
-21.6548
-19.7661
-21.7318
-20.9128
-22.5868
-21.0741
-20.3406
-22.1258
-20.454
-18.995
-20.4458
-19.8196
-18.9979
-19.7335
-19.3005
-19.6415
-19.0553
-18.8255
-18.4286
-18.454
-19.2506
-17.7419
-17.948
-19.7539
-16.9809
-17.9284
-13.1531
-16.6671
-20.3156
-8.79955
-22.1343
-49.6872
-39.3535
-34.9628
-32.8142
-31.6111
-30.9007
-30.495
-30.3091
-38.9367
-29.8875
-37.0288
-29.1673
-22.0355
-29.6045
-26.3912
-21.6457
-26.9398
-24.0491
-28.8917
-24.7461
-22.7228
-28.4069
-23.7918
-19.5027
-24.7332
-22.8932
-19.9029
-23.484
-21.6764
-24.9126
-22.205
-20.9143
-24.576
-21.5892
-19.0236
-22.0614
-20.5577
-23.1315
-20.9495
-19.9318
-22.7119
-20.3987
-18.4366
-20.7158
-19.8101
-18.6765
-19.8487
-19.1536
-19.7507
-18.9514
-18.7591
-18.2477
-18.2596
-19.533
-17.3345
-17.6045
-20.4007
-16.31
-18.4327
-11.316
-16.2658
-21.9382
-3.6274
-19.8436
-57.2124
-40.0271
-35.1105
-32.87
-31.6392
-30.9179
-30.5073
-30.3195
)
;

boundaryField
{
    left
    {
        type            calculated;
        value           nonuniform List<scalar> 
32
(
-26.4236
-26.4459
-26.4886
-26.5498
-26.6283
-26.7229
-26.833
-26.9583
-27.0985
-27.2539
-27.4245
-27.611
-27.814
-28.0343
-28.2729
-28.5312
-28.8104
-29.1122
-29.4384
-29.7912
-30.1732
-30.5874
-31.038
-31.5302
-32.0715
-32.6723
-33.3476
-34.1181
-35.0135
-36.0746
-37.3574
-38.9367
)
;
    }
    right
    {
        type            calculated;
        value           nonuniform List<scalar> 
32
(
-25.7943
-25.829
-25.895
-25.9889
-26.1079
-26.2493
-26.4108
-26.5901
-26.7849
-26.9928
-27.2115
-27.4383
-27.6706
-27.9057
-28.1408
-28.3731
-28.5998
-28.8185
-29.0267
-29.2224
-29.4037
-29.5694
-29.7183
-29.8499
-29.9639
-30.0606
-30.1405
-30.2042
-30.2528
-30.2873
-30.3091
-30.3195
)
;
    }
    interface
    {
        type            calculated;
        value           nonuniform List<scalar> 
64
(
-39.8112
-29.1317
-38.1172
-29.1342
-20.9837
-30.2235
-26.4618
-20.919
-27.3334
-23.6483
-29.5064
-24.6191
-22.2487
-29.121
-23.7638
-18.8094
-25.1327
-22.9449
-19.4251
-23.7411
-21.4137
-25.3166
-22.1177
-20.6043
-25.0289
-21.5527
-18.5972
-22.2705
-20.3409
-23.4505
-20.8756
-19.69
-23.0556
-20.3679
-18.1158
-20.8827
-19.8084
-18.4937
-19.925
-19.0685
-19.8196
-18.8945
-18.7298
-18.1528
-18.1513
-19.7096
-17.1073
-17.4094
-20.7931
-15.9173
-18.7778
-10.2819
-16.0655
-22.9905
-0.698858
-18.4879
-61.5103
-40.2409
-35.148
-32.8836
-31.6461
-30.9221
-30.5103
-30.3221
)
;
    }
    bottom
    {
        type            calculated;
        value           nonuniform List<scalar> 
64
(
-26.4178
-26.3903
-26.3363
-26.2571
-26.1548
-26.032
-25.8913
-25.7356
-25.5676
-25.3899
-25.2048
-25.0146
-24.8211
-24.6261
-24.431
-24.2372
-24.0458
-23.8577
-23.6736
-23.4942
-23.3199
-23.151
-22.9878
-22.8307
-22.6797
-22.5352
-22.3974
-22.2666
-22.1433
-22.028
-21.9212
-21.8234
-21.7356
-21.6584
-21.5929
-21.5401
-21.5011
-21.4769
-21.469
-21.4784
-21.5065
-21.5545
-21.6236
-21.7149
-21.8295
-21.968
-22.1308
-22.3178
-22.5283
-22.7608
-23.0131
-23.2818
-23.5627
-23.8506
-24.1394
-24.4226
-24.6936
-24.9458
-25.1732
-25.3704
-25.5332
-25.6581
-25.7426
-25.7853
)
;
    }
    defaultFaces
    {
        type            empty;
    }
}


// ************************************************************************* //
