/*--------------------------------*- C++ -*----------------------------------*\
| =========                 |                                                 |
| \\      /  F ield         | OpenFOAM: The Open Source CFD Toolbox           |
|  \\    /   O peration     | Version:  5.x                                   |
|   \\  /    A nd           | Web:      www.OpenFOAM.org                      |
|    \\/     M anipulation  |                                                 |
\*---------------------------------------------------------------------------*/
FoamFile
{
    version     2.0;
    format      ascii;
    class       volScalarField;
    location    "7.2";
    object      T;
}
// * * * * * * * * * * * * * * * * * * * * * * * * * * * * * * * * * * * * * //

dimensions      [0 0 0 1 0 0 0];

internalField   nonuniform List<scalar> 
2048
(
9.81021
9.8104
9.81079
9.81136
9.8121
9.81298
9.81399
9.81511
9.81632
9.81759
9.81892
9.82029
9.82168
9.82308
9.82448
9.82587
9.82725
9.8286
9.82992
9.83121
9.83246
9.83368
9.83485
9.83598
9.83706
9.8381
9.83909
9.84003
9.84092
9.84174
9.84251
9.84321
9.84385
9.8444
9.84487
9.84525
9.84553
9.8457
9.84576
9.84569
9.84549
9.84515
9.84465
9.84399
9.84317
9.84218
9.84101
9.83966
9.83815
9.83648
9.83467
9.83274
9.83072
9.82865
9.82658
9.82454
9.82259
9.82078
9.81915
9.81773
9.81656
9.81567
9.81506
9.81475
9.43876
9.43935
9.4405
9.4422
9.44439
9.44701
9.45002
9.45334
9.45692
9.46071
9.46465
9.4687
9.47282
9.47698
9.48113
9.48525
9.48932
9.49332
9.49723
9.50105
9.50475
9.50834
9.51181
9.51515
9.51835
9.52142
9.52435
9.52713
9.52975
9.53221
9.53448
9.53656
9.53843
9.54007
9.54147
9.5426
9.54344
9.54396
9.54413
9.54394
9.54335
9.54234
9.54088
9.53894
9.53651
9.53358
9.53012
9.52614
9.52166
9.51671
9.51133
9.5056
9.4996
9.49345
9.48728
9.48122
9.47543
9.47004
9.46518
9.46096
9.45749
9.45482
9.45301
9.4521
9.08311
9.08409
9.086
9.08881
9.09243
9.09676
9.10172
9.10719
9.11309
9.11932
9.1258
9.13245
9.1392
9.14601
9.15281
9.15956
9.16622
9.17277
9.17917
9.1854
9.19146
9.19732
9.20299
9.20844
9.21369
9.21871
9.22349
9.22804
9.23233
9.23634
9.24006
9.24347
9.24654
9.24924
9.25154
9.25341
9.25479
9.25566
9.25597
9.25568
9.25474
9.25311
9.25075
9.24761
9.24365
9.23886
9.23322
9.22671
9.21937
9.21124
9.2024
9.19297
9.18308
9.17293
9.16273
9.15272
9.14314
9.13423
9.1262
9.11924
9.1135
9.1091
9.10613
9.10463
8.74235
8.74371
8.74639
8.75031
8.75536
8.7614
8.76829
8.7759
8.78407
8.79269
8.80164
8.81082
8.82014
8.82952
8.83888
8.84818
8.85734
8.86634
8.87513
8.88369
8.892
8.90004
8.90782
8.9153
8.9225
8.92939
8.93596
8.9422
8.94809
8.95362
8.95874
8.96344
8.96768
8.97141
8.9746
8.97719
8.97913
8.98037
8.98084
8.98048
8.97924
8.97705
8.97384
8.96957
8.96418
8.95763
8.94989
8.94096
8.93085
8.91963
8.9074
8.89432
8.88058
8.86646
8.85225
8.83829
8.82493
8.8125
8.8013
8.79161
8.78363
8.77752
8.77339
8.77131
8.41562
8.41739
8.42085
8.42591
8.43241
8.44017
8.449
8.45872
8.46915
8.48013
8.49151
8.50317
8.51499
8.52688
8.53874
8.55049
8.56208
8.57344
8.58453
8.59533
8.6058
8.61594
8.62573
8.63517
8.64423
8.65292
8.66121
8.66909
8.67653
8.68351
8.68999
8.69595
8.70132
8.70608
8.71014
8.71346
8.71597
8.71759
8.71825
8.71787
8.71638
8.71369
8.70972
8.70441
8.69767
8.68945
8.67971
8.66844
8.65565
8.64141
8.62584
8.60914
8.59156
8.57345
8.55519
8.53724
8.52004
8.50405
8.48967
8.47723
8.467
8.45919
8.45391
8.45125
8.10217
8.10435
8.10863
8.11486
8.12285
8.13236
8.14316
8.15501
8.16769
8.18101
8.19479
8.20888
8.22315
8.23749
8.25177
8.26592
8.27985
8.2935
8.30682
8.31976
8.33232
8.34447
8.35619
8.3675
8.37836
8.38877
8.39872
8.40817
8.41711
8.4255
8.4333
8.44048
8.44698
8.45274
8.45769
8.46174
8.46483
8.46687
8.46775
8.4674
8.46571
8.46259
8.45794
8.45166
8.44367
8.43388
8.42224
8.40872
8.39332
8.37612
8.35725
8.33694
8.31549
8.29333
8.27095
8.24891
8.2278
8.20817
8.19054
8.17532
8.16283
8.1533
8.14688
8.14365
7.80127
7.80389
7.80902
7.81648
7.82602
7.83734
7.85014
7.86415
7.87908
7.89473
7.91088
7.92737
7.94405
7.96077
7.97743
7.99391
8.01012
8.02598
8.04144
8.05646
8.07101
8.08508
8.09867
8.11176
8.12435
8.13643
8.14796
8.15894
8.16932
8.17908
8.18817
8.19655
8.20416
8.21091
8.21674
8.22154
8.22524
8.22771
8.22886
8.22858
8.22676
8.22328
8.21802
8.21087
8.20172
8.19046
8.17702
8.16134
8.14342
8.12332
8.10118
8.07724
8.05187
8.02558
7.99895
7.9727
7.94754
7.92417
7.90322
7.88517
7.8704
7.85916
7.8516
7.8478
7.51227
7.51535
7.52139
7.53015
7.54131
7.5545
7.56936
7.58555
7.60275
7.62072
7.63922
7.65808
7.67712
7.6962
7.71518
7.73393
7.75235
7.77036
7.78789
7.80489
7.82136
7.83728
7.85265
7.86746
7.88171
7.89538
7.90844
7.92089
7.93267
7.94376
7.95411
7.96367
7.97236
7.98011
7.98682
7.99239
7.99671
7.99965
8.00111
8.00096
7.99907
7.9953
7.98952
7.98159
7.97137
7.95875
7.94361
7.92587
7.90551
7.88256
7.85717
7.82959
7.80024
7.76969
7.73868
7.70804
7.67867
7.65143
7.62705
7.60612
7.58905
7.5761
7.5674
7.56304
7.23454
7.23813
7.24514
7.25528
7.26815
7.28329
7.30027
7.31868
7.33817
7.35845
7.37929
7.40048
7.42185
7.44324
7.46449
7.48547
7.50605
7.52613
7.54565
7.56457
7.58287
7.60056
7.61763
7.63409
7.64993
7.66513
7.67968
7.69354
7.70668
7.71906
7.73063
7.74135
7.75112
7.75986
7.76746
7.77381
7.77878
7.78223
7.78404
7.78406
7.78216
7.77817
7.77195
7.76334
7.75216
7.73828
7.72155
7.70186
7.67914
7.65342
7.6248
7.59355
7.56013
7.5252
7.48961
7.4544
7.42063
7.38935
7.36144
7.33757
7.31818
7.30353
7.29372
7.28882
6.9675
6.97164
6.97971
6.99134
7.00601
7.0232
7.04237
7.06305
7.08484
7.10744
7.13058
7.15408
7.17774
7.2014
7.22488
7.24803
7.27071
7.29281
7.31425
7.33501
7.35506
7.37443
7.39313
7.41117
7.42854
7.44523
7.4612
7.47643
7.49088
7.50451
7.51728
7.52913
7.53997
7.5497
7.55821
7.56535
7.57099
7.57498
7.57718
7.57743
7.57558
7.57145
7.56487
7.55567
7.54364
7.52861
7.5104
7.48886
7.4639
7.43546
7.40365
7.36872
7.33114
7.29167
7.2513
7.21126
7.17286
7.13736
7.10581
7.07896
7.05725
7.04092
7.03003
7.0246
6.71062
6.71536
6.72458
6.7378
6.75441
6.77375
6.79519
6.81818
6.84229
6.86719
6.89263
6.91839
6.94431
6.97019
6.99587
7.02115
7.04588
7.06993
7.09323
7.11574
7.13747
7.15845
7.1787
7.19825
7.21709
7.2352
7.25255
7.2691
7.28481
7.29966
7.3136
7.32657
7.33847
7.34919
7.35861
7.36656
7.3729
7.37746
7.38008
7.38061
7.37887
7.37467
7.36783
7.35812
7.34535
7.32928
7.30971
7.28645
7.25934
7.22829
7.19334
7.1547
7.11287
7.06868
7.02328
6.97814
6.93486
6.89494
6.85963
6.82975
6.80574
6.78778
6.77586
6.76992
6.46336
6.46876
6.47925
6.49421
6.51289
6.5345
6.55829
6.58365
6.61009
6.63727
6.66496
6.69296
6.72109
6.74918
6.77701
6.80438
6.83111
6.85706
6.88214
6.90633
6.92965
6.95215
6.97389
6.99488
7.01513
7.03462
7.05329
7.07112
7.08806
7.10408
7.11916
7.13322
7.14617
7.15789
7.16823
7.17701
7.18407
7.18923
7.19232
7.19317
7.19159
7.1874
7.18036
7.17026
7.15684
7.13985
7.11906
7.0942
7.06507
7.0315
6.99346
6.95111
6.90494
6.85584
6.80515
6.7546
6.70612
6.66157
6.62237
6.58945
6.56319
6.54367
6.53078
6.52438
6.22524
6.23139
6.24326
6.26012
6.28103
6.30504
6.33127
6.35903
6.38781
6.41725
6.44716
6.47735
6.50766
6.5379
6.56786
6.59729
6.62597
6.65376
6.68056
6.70634
6.73117
6.75512
6.77826
6.80064
6.82225
6.84306
6.86302
6.88207
6.90019
6.91735
6.93353
6.94867
6.96267
6.97539
6.98666
6.99629
7.00409
7.00987
7.01346
7.01468
7.01332
7.00919
7.00204
6.99163
6.97767
6.95989
6.93799
6.91168
6.88066
6.8447
6.80366
6.75761
6.70702
6.65281
6.59652
6.54018
6.48617
6.43674
6.39356
6.35759
6.32916
6.30818
6.29441
6.2876
5.99581
6.00277
6.01618
6.03512
6.05844
6.08498
6.11375
6.14396
6.17506
6.20673
6.23879
6.27113
6.30358
6.33595
6.368
6.39946
6.43007
6.45964
6.48807
6.51538
6.54162
6.56693
6.59141
6.6151
6.63802
6.66012
6.68132
6.70155
6.72081
6.73907
6.75632
6.77252
6.78756
6.80128
6.81349
6.82398
6.83254
6.83898
6.8431
6.84471
6.84363
6.83963
6.83245
6.82182
6.80743
6.78896
6.76609
6.73846
6.70572
6.6675
6.62357
6.57386
6.51877
6.45925
6.39702
6.33449
6.27455
6.21997
6.17271
6.13375
6.10325
6.08095
6.06641
6.05924
5.7746
5.78249
5.7976
5.81883
5.84475
5.87398
5.90537
5.93805
5.97146
6.00531
6.03948
6.0739
6.10844
6.14291
6.17704
6.21051
6.24299
6.27429
6.3043
6.33303
6.36061
6.38719
6.41293
6.43789
6.46207
6.48541
6.50781
6.52919
6.54952
6.56883
6.58713
6.60437
6.62044
6.63517
6.64834
6.65971
6.66905
6.67616
6.68083
6.68288
6.68212
6.6783
6.67117
6.6604
6.64568
6.62665
6.60294
6.57415
6.53984
6.49954
6.45284
6.39955
6.33989
6.27486
6.20632
6.13712
6.07081
6.01079
5.95938
5.9175
5.88511
5.86165
5.84647
5.83902
5.56121
5.57012
5.58715
5.61088
5.63961
5.67169
5.7058
5.74098
5.77667
5.81262
5.84882
5.88526
5.92185
5.9584
5.99459
6.03005
6.06439
6.09736
6.12887
6.15894
6.18774
6.21551
6.24243
6.2686
6.294
6.31856
6.34214
6.36461
6.38598
6.40629
6.42559
6.44385
6.46095
6.4767
6.49085
6.50311
6.51324
6.52103
6.52628
6.52879
6.52839
6.52482
6.5178
6.50698
6.49202
6.47254
6.44813
6.41833
6.38262
6.34043
6.29115
6.23435
6.17012
6.09936
6.02412
5.94769
5.87448
5.80873
5.75312
5.70847
5.6744
5.64999
5.63432
5.62667
5.35521
5.36529
5.38444
5.41095
5.44273
5.47781
5.51472
5.55242
5.59034
5.62831
5.66644
5.70484
5.74344
5.78202
5.82028
5.85773
5.89388
5.92848
5.96142
5.99273
6.02266
6.05152
6.07956
6.10689
6.13348
6.15923
6.18394
6.20747
6.22981
6.25107
6.27134
6.2906
6.30872
6.3255
6.34064
6.35381
6.36476
6.37324
6.37907
6.38208
6.38206
6.37879
6.37195
6.36117
6.34606
6.32624
6.30126
6.2706
6.23369
6.18981
6.13815
6.078
6.00917
5.93251
5.85014
5.76586
5.68512
5.61332
5.55351
5.50629
5.47081
5.4457
5.42971
5.42195
5.15624
5.16763
5.18914
5.21872
5.25381
5.29204
5.33183
5.37207
5.41214
5.45203
5.49199
5.53228
5.57283
5.61343
5.65376
5.69319
5.73114
5.76732
5.80162
5.83407
5.86501
5.89486
5.92395
5.95239
5.98013
6.00706
6.03291
6.05743
6.08068
6.10284
6.12404
6.14428
6.16341
6.18124
6.1974
6.21149
6.22325
6.23244
6.23887
6.24237
6.24278
6.23986
6.23327
6.22259
6.20742
6.18735
6.16192
6.13057
6.09265
6.04732
5.99352
5.93019
5.85682
5.77408
5.68416
5.59128
5.50228
5.42407
5.36014
5.31064
5.27407
5.24853
5.23243
5.22465
4.96391
4.97679
5.00092
5.0339
5.07258
5.11412
5.15687
5.19964
5.24177
5.28344
5.32511
5.36721
5.40967
5.45226
5.49467
5.53613
5.57584
5.61355
5.64913
5.68262
5.71445
5.74519
5.77527
5.80478
5.83364
5.86175
5.88871
5.91419
5.93828
5.96126
5.98336
6.00456
6.0247
6.0436
6.06079
6.07581
6.08839
6.0983
6.10532
6.10933
6.1102
6.10767
6.10138
6.09088
6.07572
6.0555
6.02976
5.99786
5.95911
5.9126
5.85694
5.79067
5.71282
5.62388
5.52596
5.42363
5.32548
5.24052
5.17261
5.12121
5.08394
5.05829
5.04227
5.03458
4.77785
4.79243
4.81947
4.85623
4.8988
4.94378
4.98955
5.03485
5.07893
5.12222
5.16545
5.2093
5.25363
5.29817
5.34271
5.38622
5.42765
5.46686
5.50367
5.53806
5.57066
5.60217
5.63319
5.66373
5.69368
5.72299
5.75107
5.77744
5.80229
5.82601
5.84898
5.87112
5.89226
5.91225
5.93052
5.94647
5.95987
5.9705
5.97811
5.98264
5.98397
5.98188
5.97597
5.96571
5.95063
5.93034
5.90439
5.87208
5.8327
5.78528
5.72808
5.65916
5.57695
5.48173
5.37541
5.26263
5.15424
5.06218
4.99056
4.93772
4.9002
4.87477
4.85905
4.85154
4.59773
4.61424
4.64449
4.68544
4.73226
4.78078
4.82962
4.87745
4.92333
4.96806
5.01269
5.05823
5.10439
5.15081
5.19754
5.24317
5.28629
5.32694
5.36493
5.4001
5.43332
5.46548
5.49739
5.52894
5.55994
5.59048
5.61971
5.6469
5.67241
5.69679
5.7206
5.74367
5.76578
5.78691
5.80629
5.82316
5.8374
5.84875
5.85693
5.86197
5.86377
5.86218
5.85669
5.84673
5.83179
5.8115
5.78547
5.75287
5.71302
5.66501
5.60663
5.53541
5.44899
5.34748
5.23243
5.10799
4.98802
4.88855
4.81362
4.75994
4.72267
4.69781
4.6826
4.67537
4.42321
4.44195
4.47568
4.52131
4.57276
4.62485
4.67683
4.72721
4.77469
4.82066
4.86648
4.91368
4.96163
5.00985
5.05888
5.10674
5.15145
5.19351
5.23265
5.26844
5.30213
5.3348
5.36758
5.40012
5.43212
5.46394
5.49437
5.5223
5.54837
5.57331
5.59794
5.62193
5.64498
5.66729
5.68785
5.70562
5.72067
5.73275
5.74149
5.74702
5.74931
5.74824
5.74324
5.73365
5.71889
5.69865
5.67266
5.63987
5.59972
5.55143
5.49227
5.41917
5.32871
5.22097
5.09699
4.95951
4.82622
4.71912
4.64149
4.58767
4.55119
4.52725
4.51276
4.50591
4.25395
4.2753
4.31274
4.36363
4.42016
4.47577
4.53091
4.58391
4.63275
4.67973
4.72648
4.77536
4.82508
4.87496
4.92643
4.97666
5.02285
5.06629
5.10657
5.14281
5.17681
5.20982
5.24348
5.277
5.30991
5.34311
5.37483
5.40339
5.4299
5.45526
5.48073
5.50563
5.52954
5.55312
5.57494
5.59356
5.60943
5.62226
5.6315
5.63751
5.64028
5.63979
5.63534
5.62617
5.61161
5.59147
5.56564
5.53276
5.49239
5.44419
5.38468
5.31022
5.21588
5.10204
4.96918
4.81699
4.6682
4.55338
4.47388
4.42073
4.38563
4.36296
4.34938
4.343
4.08962
4.11408
4.15538
4.21218
4.27434
4.33325
4.39163
4.44735
4.49722
4.54498
4.59237
4.64298
4.69448
4.74579
4.79992
4.85274
4.90018
4.94499
4.98647
5.02294
5.05709
5.09023
5.12483
5.15933
5.193
5.22774
5.26088
5.28991
5.31675
5.34237
5.36871
5.39453
5.4192
5.44416
5.46733
5.48672
5.50341
5.51701
5.5267
5.53316
5.53639
5.53653
5.53271
5.52402
5.50967
5.48964
5.46411
5.43119
5.39066
5.34295
5.28352
5.20832
5.11025
4.99052
4.8492
4.68031
4.51316
4.39079
4.31055
4.25902
4.22586
4.20481
4.19231
4.18647
3.9299
3.95812
4.00326
4.0668
4.13524
4.19702
4.25872
4.31739
4.36785
4.41617
4.46377
4.51631
4.56961
4.62196
4.67908
4.73481
4.78316
4.82936
4.87216
4.90854
4.9427
4.97572
5.01137
5.0469
5.0811
5.11759
5.15236
5.18163
5.20867
5.23433
5.26164
5.2884
5.31365
5.34014
5.36483
5.38483
5.40235
5.41677
5.42682
5.43371
5.43737
5.43821
5.43508
5.42692
5.41279
5.39284
5.3678
5.33486
5.29415
5.24738
5.18845
5.1133
5.01152
4.88616
4.73738
4.54942
4.36016
4.23087
4.15133
4.10243
4.0718
4.05267
4.04141
4.03617
3.77442
3.80736
3.85601
3.9273
4.00286
4.06676
4.13191
4.1939
4.24434
4.29307
4.34033
4.3951
4.4503
4.50309
4.56365
4.62276
4.67146
4.7191
4.76347
4.79937
4.83343
4.86596
4.90289
4.93951
4.97387
5.01242
5.0491
5.07829
5.10545
5.13086
5.15931
5.18707
5.2126
5.24085
5.26727
5.28764
5.30601
5.32135
5.33162
5.33893
5.34295
5.34458
5.3422
5.33466
5.32071
5.30076
5.27648
5.2435
5.20244
5.15716
5.09911
5.02501
4.91938
4.78862
4.63424
4.42439
4.20805
4.07313
3.9961
3.95092
3.92337
3.90642
3.89652
3.89194
3.62284
3.66179
3.7132
3.79353
3.87731
3.94209
4.01093
4.07683
4.12639
4.17547
4.22162
4.27915
4.33642
4.38873
4.45341
4.51652
4.56474
4.61396
4.66028
4.69513
4.72907
4.76061
4.79918
4.83703
4.87097
4.91201
4.95103
4.97966
5.0069
5.03165
5.06151
5.09037
5.11573
5.14607
5.17451
5.19488
5.21415
5.23054
5.24084
5.24858
5.25288
5.25539
5.25384
5.24699
5.23319
5.2131
5.18991
5.15685
5.11511
5.07202
5.01509
4.94337
4.8335
4.69744
4.54052
4.30539
4.0554
3.91716
3.84485
3.80448
3.7805
3.76594
3.7575
3.75361
3.47474
3.52159
3.5743
3.66532
3.75878
3.82254
3.89548
3.9662
4.01364
4.06326
4.10718
4.16829
4.22793
4.27836
4.34811
4.41614
4.4626
4.51366
4.56253
4.59553
4.62948
4.65931
4.70006
4.73934
4.77198
4.81615
4.85809
4.88545
4.91286
4.93636
4.96807
4.99817
5.02269
5.05558
5.08646
5.10626
5.12654
5.1442
5.15424
5.16247
5.16689
5.17044
5.16977
5.16372
5.15001
5.12952
5.10793
5.0747
5.03171
4.99172
4.93595
4.86838
4.7535
4.61193
4.45721
4.1928
3.90039
3.76269
3.69764
3.66312
3.64311
3.63111
3.6242
3.62102
3.32965
3.38708
3.43864
3.54255
3.64763
3.70754
3.78525
3.86214
3.90565
3.95637
3.99647
4.06239
4.12486
4.1714
4.24754
4.32174
4.3646
4.4179
4.47023
4.50021
4.53454
4.56162
4.60539
4.64641
4.67648
4.72466
4.77029
4.79536
4.82322
4.84463
4.87884
4.91043
4.9331
4.9692
5.00308
5.02149
5.04296
5.0622
5.07156
5.0804
5.08472
5.08951
5.08978
5.08466
5.07096
5.04967
5.03039
4.99685
4.95173
4.91611
4.86114
4.80017
4.67896
4.53113
4.38566
4.08721
3.74073
3.60961
3.5546
3.52687
3.51114
3.5018
3.49644
3.49399
3.18702
3.25886
3.30537
3.42506
3.5444
3.59637
3.67988
3.76488
3.8019
3.85488
3.88887
3.96135
4.02737
4.06712
4.15151
4.23358
4.27017
4.32639
4.38348
4.40877
4.44424
4.46708
4.51504
4.55828
4.58392
4.63734
4.68772
4.70902
4.73794
4.75604
4.79369
4.82712
4.84651
4.88675
4.92439
4.94021
4.96318
4.98446
4.99253
5.00222
5.00612
5.01243
5.01365
5.00964
4.99589
4.97318
4.95721
4.9232
4.87462
4.8451
4.79001
4.73901
4.60949
4.45371
4.32759
3.98948
3.57348
3.45807
3.41598
3.39577
3.38451
3.37787
3.37408
3.37235
3.04619
3.13781
3.17341
3.31273
3.44985
3.48811
3.57904
3.67484
3.7017
3.759
3.78358
3.86514
3.93577
3.96463
4.05981
4.1521
4.17866
4.23883
4.30248
4.32069
4.35867
4.37512
4.42893
4.4751
4.4937
4.55402
4.61056
4.62598
4.65705
4.67013
4.71252
4.74832
4.76243
4.80806
4.85049
4.86205
4.887
4.91093
4.91685
4.92783
4.93081
4.93903
4.94118
4.9385
4.92465
4.89962
4.88835
4.85367
4.79969
4.77879
4.72173
4.68539
4.54468
4.37785
4.28516
3.90084
3.39497
3.30863
3.28206
3.26985
3.26313
3.25919
3.25695
3.25592
2.90634
3.02521
3.04135
3.20544
3.36502
3.38161
3.48233
3.59264
3.60416
3.66917
3.67969
3.77375
3.85054
3.86288
3.97229
4.07789
4.08925
4.15491
4.2276
4.23535
4.27806
4.28507
4.34702
4.39712
4.40507
4.47456
4.53909
4.54569
4.58072
4.58631
4.63528
4.6742
4.68025
4.733
4.78157
4.78654
4.8142
4.84163
4.8442
4.85714
4.85849
4.86919
4.87214
4.87111
4.85716
4.8285
4.82383
4.78826
4.72618
4.71742
4.65527
4.64001
4.48417
4.30111
4.26107
3.82295
3.20054
3.16234
3.1532
3.14913
3.14691
3.14561
3.14487
3.14453
)
;

boundaryField
{
    left
    {
        type            zeroGradient;
    }
    right
    {
        type            zeroGradient;
    }
    interface
    {
        type            fixedValue;
        value           nonuniform List<scalar> 
64
(
2.83484
2.97289
2.97289
3.15311
3.32733
3.32733
3.4348
3.55507
3.55507
3.62669
3.62669
3.72953
3.81058
3.81058
3.92961
4.04411
4.04411
4.1137
4.19271
4.19271
4.2396
4.2396
4.3073
4.36011
4.36011
4.43585
4.50569
4.50569
4.54419
4.54419
4.59778
4.63883
4.63883
4.69642
4.74904
4.74904
4.77862
4.80841
4.80841
4.82289
4.82289
4.83525
4.8385
4.8385
4.82456
4.7931
4.7931
4.75699
4.68883
4.68883
4.62154
4.62154
4.45532
4.25981
4.25981
3.78974
3.09007
3.09007
3.09007
3.09007
3.09007
3.09007
3.09007
3.09007
)
;
    }
    bottom
    {
        type            fixedValue;
        value           uniform 10;
    }
    defaultFaces
    {
        type            empty;
    }
}


// ************************************************************************* //
