/*--------------------------------*- C++ -*----------------------------------*\
| =========                 |                                                 |
| \\      /  F ield         | OpenFOAM: The Open Source CFD Toolbox           |
|  \\    /   O peration     | Version:  5.x                                   |
|   \\  /    A nd           | Web:      www.OpenFOAM.org                      |
|    \\/     M anipulation  |                                                 |
\*---------------------------------------------------------------------------*/
FoamFile
{
    version     2.0;
    format      ascii;
    class       volScalarField;
    location    "16.9";
    object      gradTx;
}
// * * * * * * * * * * * * * * * * * * * * * * * * * * * * * * * * * * * * * //

dimensions      [0 -1 0 1 0 0 0];

internalField   nonuniform List<scalar> 
2048
(
0.00630496
0.0187345
0.030639
0.0417206
0.0517504
0.0605791
0.0681362
0.0744196
0.079479
0.0833971
0.0862739
0.0882136
0.0893181
0.0896843
0.0894047
0.0885683
0.087262
0.0855693
0.0835681
0.0813268
0.0789012
0.076332
0.073644
0.0708474
0.06794
0.0649096
0.0617367
0.0583957
0.0548558
0.0510812
0.0470315
0.0426631
0.037931
0.0327904
0.0271995
0.0211209
0.0145221
0.00737698
-0.000333965
-0.00862246
-0.01749
-0.0269245
-0.0368943
-0.0473422
-0.0581766
-0.0692627
-0.0804135
-0.0913818
-0.101856
-0.111464
-0.119782
-0.12636
-0.130753
-0.13257
-0.131512
-0.127416
-0.120277
-0.110248
-0.0976156
-0.0827651
-0.0661296
-0.0481503
-0.0292469
-0.00980739
0.0187885
0.0558184
0.0912577
0.124207
0.153982
0.18014
0.202482
0.221017
0.235905
0.247406
0.255824
0.261474
0.264659
0.265665
0.264764
0.26222
0.258289
0.253221
0.247248
0.240576
0.233372
0.225756
0.217801
0.209536
0.20095
0.192008
0.182649
0.172798
0.162363
0.151237
0.139301
0.126425
0.112472
0.0973095
0.0808126
0.062869
0.043383
0.0222764
-0.000509588
-0.0250113
-0.0512364
-0.079153
-0.108674
-0.139636
-0.171777
-0.204706
-0.237875
-0.270557
-0.301831
-0.330585
-0.355548
-0.37536
-0.388674
-0.39429
-0.391297
-0.379193
-0.357962
-0.328074
-0.290413
-0.246152
-0.196608
-0.143109
-0.0869051
-0.0291382
0.0311402
0.0924839
0.151108
0.205488
0.254477
0.297358
0.333833
0.363961
0.388052
0.406573
0.420052
0.429021
0.433979
0.435392
0.433698
0.429326
0.422697
0.414225
0.404299
0.393263
0.381398
0.368901
0.355889
0.3424
0.328414
0.313863
0.298646
0.282638
0.26569
0.247626
0.228247
0.207337
0.184667
0.160017
0.133175
0.103958
0.0722073
0.0377943
0.000620203
-0.0393799
-0.0822276
-0.127884
-0.176224
-0.227003
-0.279814
-0.334043
-0.388817
-0.442962
-0.494967
-0.54299
-0.584899
-0.618385
-0.641137
-0.651076
-0.646611
-0.626863
-0.591801
-0.542253
-0.479769
-0.406389
-0.324373
-0.235961
-0.143224
-0.0480091
0.0435999
0.129427
0.211277
0.286944
0.354802
0.413879
0.463831
0.504828
0.537398
0.562266
0.580219
0.592014
0.598347
0.599844
0.597097
0.590685
0.58119
0.569193
0.555248
0.539848
0.523387
0.506143
0.488266
0.469799
0.450694
0.430848
0.410117
0.388326
0.36527
0.340708
0.314363
0.285926
0.255076
0.221496
0.184891
0.145002
0.101612
0.0545433
0.00365516
-0.0511506
-0.109921
-0.172628
-0.239133
-0.309143
-0.382146
-0.457347
-0.533595
-0.609306
-0.682411
-0.750334
-0.810046
-0.858206
-0.891421
-0.906595
-0.90133
-0.874292
-0.825434
-0.756013
-0.668381
-0.565592
-0.450973
-0.327745
-0.198793
-0.0666105
0.0563834
0.16727
0.272725
0.369776
0.456292
0.531076
0.593808
0.644865
0.685084
0.715524
0.737274
0.751336
0.758584
0.759789
0.755669
0.746937
0.734334
0.718615
0.700516
0.680691
0.659663
0.637783
0.615229
0.592028
0.568095
0.543278
0.517383
0.490191
0.461448
0.430848
0.398035
0.362605
0.324133
0.2822
0.236422
0.186466
0.132059
0.072975
0.00903516
-0.0598991
-0.133913
-0.213012
-0.297075
-0.385797
-0.478611
-0.574596
-0.67238
-0.770025
-0.864935
-0.953805
-1.03265
-1.09699
-1.14217
-1.16387
-1.15868
-1.1247
-1.06185
-0.971944
-0.85833
-0.725316
-0.577483
-0.419134
-0.253974
-0.0850559
0.0696954
0.206601
0.336346
0.455079
0.56013
0.650119
0.724853
0.785045
0.831967
0.867107
0.891909
0.90763
0.915308
0.915819
0.909972
0.898595
0.882582
0.86288
0.840429
0.816072
0.790471
0.764055
0.737013
0.709335
0.680874
0.651413
0.620708
0.5885
0.554492
0.518326
0.479561
0.43769
0.392172
0.342473
0.288114
0.228692
0.163878
0.0934093
0.0170684
-0.0653271
-0.153915
-0.248758
-0.349789
-0.456734
-0.569023
-0.685679
-0.805176
-0.925296
-1.04297
-1.15417
-1.25391
-1.33642
-1.39553
-1.42543
-1.42143
-1.38086
-1.30358
-1.19214
-1.05119
-0.886624
-0.704541
-0.510466
-0.308917
-0.103385
0.0837402
0.247999
0.403008
0.543889
0.667392
0.772024
0.857858
0.926114
0.978658
1.01753
1.04458
1.06134
1.06897
1.06839
1.06045
1.04607
1.0263
1.00229
0.975232
0.94619
0.91599
0.885136
0.853808
0.821926
0.78925
0.755477
0.72031
0.683461
0.64461
0.603352
0.559164
0.511421
0.459445
0.402574
0.340225
0.271922
0.197296
0.116056
0.0279523
-0.0672426
-0.169734
-0.279669
-0.397069
-0.521741
-0.653173
-0.790399
-0.931835
-1.07507
-1.21664
-1.35184
-1.47462
-1.57774
-1.65327
-1.69349
-1.69204
-1.64522
-1.55282
-1.41832
-1.24811
-1.05014
-0.832386
-0.601756
-0.363563
-0.121567
0.0987293
0.292061
0.473588
0.63722
0.77909
0.897689
0.993547
1.06861
1.12555
1.16708
1.19556
1.21275
1.21988
1.21784
1.20747
1.18971
1.16578
1.13708
1.1051
1.07118
1.03633
1.00115
0.965764
0.929978
0.893415
0.855664
0.81637
0.775237
0.73195
0.686076
0.637006
0.583975
0.526143
0.462696
0.392935
0.316319
0.232451
0.141031
0.04179
-0.0655454
-0.181262
-0.305618
-0.438764
-0.580636
-0.73084
-0.888505
-1.05208
-1.2191
-1.3858
-1.54687
-1.69518
-1.82185
-1.91682
-1.96997
-1.97276
-1.92006
-1.81151
-1.65187
-1.44985
-1.21608
-0.960866
-0.692711
-0.41766
-0.139505
0.114889
0.339418
0.548996
0.736093
0.896194
1.02792
1.1325
1.2129
1.27283
1.31587
1.34493
1.36199
1.36824
1.36445
1.35132
1.3298
1.30126
1.26742
1.23014
1.19111
1.15157
1.11218
1.073
1.03365
0.993552
0.952153
0.909042
0.863951
0.816615
0.766596
0.713195
0.655479
0.592407
0.522981
0.446372
0.361981
0.269409
0.168372
0.0586022
-0.0602158
-0.188465
-0.326546
-0.474776
-0.63327
-0.801811
-0.979705
-1.16556
-1.35696
-1.55005
-1.73902
-1.91566
-2.0693
-2.18734
-2.25663
-2.26575
-2.20758
-2.08149
-1.89394
-1.65681
-1.38424
-1.08945
-0.782738
-0.470765
-0.157036
0.132464
0.39075
0.630197
0.841561
1.01965
1.16343
1.27515
1.35915
1.42049
1.46381
1.49262
1.50906
1.51417
1.50843
1.49227
1.4666
1.43296
1.39346
1.35043
1.306
1.2617
1.21827
1.17562
1.13309
1.08983
1.04511
0.998462
0.949695
0.898661
0.844962
0.787797
0.726021
0.658343
0.583535
0.50062
0.408955
0.308175
0.198048
0.0783385
-0.0513053
-0.191377
-0.342453
-0.505063
-0.679539
-0.865897
-1.0637
-1.27182
-1.48812
-1.70879
-1.92775
-2.1358
-2.32033
-2.46573
-2.55509
-2.57314
-2.50999
-2.36452
-2.14548
-1.86905
-1.55402
-1.21724
-0.870954
-0.522257
-0.17394
0.151728
0.446806
0.718232
0.954722
1.15041
1.30486
1.42182
1.5074
1.56836
1.61065
1.63843
1.6539
1.65774
1.64996
1.63058
1.60036
1.56107
1.5153
1.46598
1.41581
1.3667
1.31944
1.2737
1.22844
1.18245
1.13472
1.08476
1.03253
0.978106
0.921184
0.86084
0.795661
0.724032
0.644438
0.55573
0.457245
0.348701
0.229971
0.100885
-0.0389282
-0.190092
-0.3534
-0.529636
-0.71939
-0.922948
-1.1402
-1.37042
-1.61191
-1.86123
-2.11225
-2.35502
-2.57486
-2.75268
-2.86687
-2.89712
-2.82961
-2.66238
-2.40725
-2.08629
-1.72443
-1.34295
-0.956204
-0.571357
-0.189944
0.172983
0.50841
0.814232
1.07673
1.28939
1.45279
1.57269
1.65748
1.71607
1.75597
1.78203
1.79633
1.79897
1.78922
1.76651
1.73135
1.68577
1.63301
1.57676
1.52046
1.46648
1.41566
1.36732
1.31988
1.27161
1.22117
1.16804
1.11248
1.05492
0.995229
0.932325
0.864437
0.789541
0.705759
0.611736
0.506825
0.390898
0.264
0.126073
-0.023254
-0.184757
-0.359497
-0.548563
-0.752831
-0.972875
-1.20896
-1.4609
-1.72765
-2.00642
-2.29149
-2.5724
-2.83247
-3.04859
-3.19341
-3.23999
-3.16899
-2.97693
-2.67984
-2.30786
-1.89402
-1.46495
-1.03708
-0.61715
-0.204732
0.196568
0.576476
0.91943
1.20882
1.43753
1.60771
1.72781
1.80911
1.86311
1.89921
1.92298
1.93613
1.93784
1.92639
1.90035
1.85983
1.80723
1.74664
1.68272
1.61981
1.56092
1.50692
1.45658
1.40758
1.35753
1.30467
1.24843
1.18954
1.12904
1.06703
1.00222
0.932373
0.854933
0.767565
0.668659
0.557642
0.434643
0.299951
0.153685
-0.00450043
-0.175561
-0.360896
-0.561961
-0.779932
-1.01566
-1.26981
-1.54285
-1.8346
-2.14331
-2.46416
-2.78672
-3.0924
-3.35362
-3.53605
-3.60422
-3.53097
-3.3102
-2.96366
-2.53269
-2.06089
-1.58124
-1.11197
-0.658615
-0.21796
0.222864
0.652015
1.03518
1.35229
1.59573
1.77001
1.88712
1.96182
2.00878
2.03967
2.06078
2.07306
2.07437
2.0617
2.03243
1.9861
1.92564
1.85625
1.78375
1.71368
1.64985
1.59314
1.54155
1.49173
1.44049
1.38547
1.32606
1.2637
1.20034
1.13648
1.07049
0.999483
0.920272
0.829931
0.726516
0.609626
0.479781
0.337603
0.18346
0.0170737
-0.162731
-0.357787
-0.569993
-0.800826
-1.05136
-1.32265
-1.61593
-1.93208
-2.27078
-2.62881
-2.99645
-3.35353
-3.66758
-3.89603
-3.99251
-3.91884
-3.66446
-3.25895
-2.75923
-2.2227
-1.6895
-1.17909
-0.694674
-0.229272
0.252297
0.736144
1.16294
1.50854
1.76491
1.93999
2.05044
2.11502
2.15224
2.17652
2.19482
2.20685
2.20854
2.19537
2.16315
2.1105
2.04118
1.96188
1.87975
1.80182
1.73306
1.67427
1.62235
1.57258
1.5208
1.46388
1.40106
1.33487
1.26866
1.20344
1.13708
1.06578
0.985632
0.892949
0.785328
0.662686
0.526134
0.376702
0.215098
0.0411739
-0.146518
-0.350378
-0.572857
-0.815712
-1.08013
-1.36751
-1.6799
-2.01946
-2.38767
-2.78376
-3.19974
-3.61437
-3.98995
-4.27438
-4.40781
-4.33648
-4.04232
-3.56569
-2.98538
-2.37656
-1.78713
-1.23656
-0.724239
-0.238316
0.285348
0.830087
1.30431
1.67907
1.94591
2.11783
2.21746
2.268
2.29248
2.3088
2.3245
2.33722
2.34036
2.32771
2.29299
2.23341
2.15402
2.06355
1.97055
1.88395
1.81027
1.75024
1.69911
1.65036
1.59881
1.54025
1.47357
1.40293
1.33376
1.26774
1.20192
1.13127
1.0511
0.956743
0.845119
0.716714
0.573505
0.41697
0.248265
0.0674756
-0.127191
-0.338891
-0.570778
-0.824847
-1.10221
-1.40448
-1.73465
-2.09624
-2.49287
-2.92724
-3.39445
-3.87304
-4.31978
-4.6719
-4.85338
-4.78854
-4.4468
-3.88354
-3.20839
-2.5191
-1.87131
-1.28246
-0.74627
-0.244769
0.322569
0.935169
1.46102
1.86547
2.13951
2.30352
2.38779
2.41993
2.42835
2.43543
2.44914
2.46397
2.46983
2.45903
2.42252
2.35522
2.26433
2.16132
2.05599
1.95969
1.88115
1.82095
1.77199
1.72535
1.67492
1.61504
1.54376
1.4677
1.39533
1.32918
1.26497
1.19595
1.11677
1.02148
0.905923
0.77158
0.621686
0.458107
0.282595
0.0956276
-0.105026
-0.323542
-0.563994
-0.828546
-1.11795
-1.4338
-1.78021
-2.16209
-2.5853
-3.05735
-3.57818
-4.12729
-4.65564
-5.08893
-5.33273
-5.28071
-4.88149
-4.21168
-3.42469
-2.64644
-1.93907
-1.31496
-0.759836
-0.248352
0.364595
1.05281
1.63487
2.0695
2.34641
2.49686
2.56097
2.5699
2.55855
2.55521
2.56811
2.58694
2.59693
2.58969
2.55248
2.47636
2.37221
2.25528
2.13591
2.0286
1.9453
1.88635
1.84123
1.7978
1.74957
1.68882
1.61183
1.52891
1.45297
1.38756
1.32621
1.25982
1.18275
1.0874
0.967781
0.827121
0.670466
0.499806
0.317689
0.125254
-0.0802988
-0.304527
-0.55274
-0.82717
-1.12776
-1.4558
-1.81676
-2.21689
-2.66403
-3.17211
-3.74829
-4.37452
-4.99562
-5.5252
-5.84961
-5.82001
-5.35068
-4.54864
-3.62981
-2.7542
-1.98739
-1.33241
-0.76418
-0.248856
0.412194
1.1845
1.82778
2.29313
2.56713
2.69735
2.73657
2.71697
2.68161
2.66681
2.68081
2.70614
2.72159
2.72005
2.6838
2.59728
2.47768
2.34558
2.21015
2.09017
2.00225
1.9464
1.90714
1.86796
1.82322
1.7623
1.67798
1.58618
1.50619
1.44266
1.38569
1.32282
1.24915
1.15481
1.03074
0.883124
0.719646
0.541752
0.353114
0.155957
-0.0532766
-0.282007
-0.537239
-0.821124
-1.13218
-1.47089
-1.84462
-2.26079
-2.72829
-3.26955
-3.9019
-4.61186
-5.33727
-5.97949
-6.4079
-6.41523
-5.85952
-4.89198
-3.81815
-2.83756
-2.01339
-1.3334
-0.758768
-0.246155
0.466323
1.33177
2.04167
2.53863
2.80196
2.90412
2.91421
2.86022
2.79589
2.76877
2.7867
2.82177
2.8436
2.85046
2.81768
2.71837
2.58061
2.43247
2.2786
2.14373
2.05141
2.00107
1.97016
1.93597
1.89632
1.83643
1.74248
1.63899
1.55436
1.49426
1.44354
1.38487
1.31606
1.2242
1.09484
0.939301
0.769059
0.583641
0.388399
0.187314
-0.0242131
-0.256091
-0.517677
-0.81085
-1.13183
-1.47952
-1.86425
-2.29428
-2.77756
-3.34766
-4.03597
-4.83628
-5.67773
-6.44926
-7.01141
-7.07752
-6.41421
-5.23787
-3.98283
-2.89142
-2.0144
-1.31693
-0.743339
-0.240214
0.528245
1.49612
2.27841
2.80871
3.0509
3.11578
3.09377
2.99877
2.89954
2.85947
2.88537
2.93434
2.96254
2.98115
2.95577
2.83999
2.6806
2.51642
2.34117
2.18853
2.09207
2.05042
2.03093
2.00182
1.96928
1.91246
1.8056
1.68664
1.59672
1.54219
1.50007
1.44573
1.38354
1.29622
1.16009
0.995245
0.818606
0.625185
0.423024
0.218877
0.00665581
-0.226816
-0.494197
-0.796819
-1.12746
-1.48218
-1.87618
-2.31826
-2.81153
-3.40449
-4.14724
-5.04465
-6.01388
-6.93016
-7.66352
-7.82115
-7.0222
-5.58054
-4.11557
-2.9105
-1.98823
-1.28244
-0.717929
-0.231101
0.599712
1.67895
2.53963
3.10682
3.31347
3.33018
3.27557
3.13185
2.99048
2.93707
2.97653
3.04485
3.07761
3.11221
3.10031
2.96231
2.77688
2.59824
2.39788
2.22359
2.12338
2.09454
2.09037
2.06528
2.0424
1.99209
1.86762
1.72819
1.63234
1.58631
1.55582
1.50502
1.45153
1.37184
1.22645
1.05037
0.868308
0.666122
0.456411
0.250177
0.0391119
-0.194135
-0.46687
-0.779529
-1.11995
-1.47929
-1.88093
-2.33411
-2.83024
-3.43811
-4.23225
-5.23399
-6.34264
-7.41531
-8.36672
-8.66452
-7.69248
-5.91145
-4.20657
-2.88965
-1.93326
-1.22993
-0.68289
-0.218981
0.683251
1.88141
2.82654
3.43748
3.58857
3.54423
3.46068
3.25881
3.06632
2.99954
3.06006
3.15504
3.18741
3.24342
3.25447
3.08528
2.86809
2.67921
2.44882
2.24776
2.14429
2.13363
2.14985
2.12569
2.11578
2.0776
1.92881
1.7624
1.6601
1.62654
1.61171
1.56207
1.51987
1.45247
1.2938
1.10385
0.918383
0.706222
0.487898
0.280718
0.0729518
-0.157892
-0.435693
-0.759483
-1.11038
-1.47118
-1.87895
-2.34384
-2.83401
-3.44672
-4.2873
-5.40152
-6.66158
-7.89457
-9.12181
-9.63157
-8.43573
-6.21826
-4.24453
-2.82412
-1.8487
-1.15996
-0.638872
-0.204111
0.7826
2.10427
3.13954
3.80685
3.87423
3.75346
3.65137
3.37913
3.1243
3.04457
3.13595
3.26764
3.28968
3.37409
3.42273
3.20841
2.95204
2.76144
2.49413
2.25958
2.15357
2.16791
2.21142
2.1818
2.18922
2.17214
1.98936
1.7877
1.6787
1.66286
1.6692
1.61577
1.58814
1.54011
1.36181
1.15447
0.969357
0.745284
0.516722
0.30999
0.107978
-0.117806
-0.400562
-0.73718
-1.10008
-1.45799
-1.87046
-2.35023
-2.82344
-3.4286
-4.3083
-5.54487
-6.9697
-8.35354
-9.92683
-10.7535
-9.2646
-6.48347
-4.21685
-2.71002
-1.73468
-1.07367
-0.586796
-0.186823
0.903353
2.34766
3.47776
4.22349
4.1673
3.95155
3.85172
3.49235
3.16124
3.06953
3.20427
3.38691
3.38088
3.50283
3.61143
3.3306
3.02535
2.84818
2.534
2.25729
2.14972
2.19761
2.27803
2.23155
2.26203
2.28006
2.04923
1.80209
1.68664
1.69526
1.7305
1.6644
1.65558
1.63769
1.42991
1.20052
1.02223
0.783116
0.54198
0.337483
0.143984
-0.0734521
-0.361276
-0.713073
-1.09076
-1.43961
-1.85523
-2.35703
-2.79939
-3.38224
-4.29066
-5.66203
-7.26867
-8.7724
-10.7756
-12.0713
-10.1938
-6.68267
-4.11005
-2.5447
-1.59242
-0.972733
-0.527811
-0.167507
1.05386
2.61079
3.83835
4.69945
4.46297
4.12978
4.0684
3.59788
3.17342
3.0715
3.26497
3.51921
3.45571
3.62722
3.82952
3.4498
3.08307
2.94437
2.56849
2.23876
2.13101
2.22288
2.354
2.27169
2.33285
2.40729
2.10804
1.8031
1.68225
1.72367
1.79893
1.70538
1.72095
1.74937
1.49713
1.23962
1.07867
0.819496
0.562593
0.362709
0.180726
-0.0242361
-0.317524
-0.687517
-1.08462
-1.41557
-1.83233
-2.36928
-2.7628
-3.30644
-4.22902
-5.75133
-7.56452
-9.12466
-11.6556
-13.6382
-11.2404
-6.78242
-3.91054
-2.32734
-1.42423
-0.859316
-0.463223
-0.146591
1.24649
2.89153
4.21557
5.25162
4.75425
4.27617
4.31177
3.69472
3.15655
3.04727
3.31764
3.67382
3.5065
3.74345
4.08953
3.56263
3.1181
3.05731
2.59739
2.2014
2.09547
2.24358
2.44554
2.29739
2.39938
2.56197
2.16476
1.78778
1.66371
1.74787
1.87932
1.73494
1.78234
1.88096
1.56186
1.26848
1.14133
0.854091
0.577268
0.385248
0.21789
0.0306321
-0.268907
-0.660681
-1.08461
-1.38499
-1.7998
-2.39367
-2.71454
-3.20045
-4.11705
-5.811
-7.8698
-9.37567
-12.5456
-15.5238
-12.4234
-6.73758
-3.60581
-2.05936
-1.23349
-0.735934
-0.394433
-0.124515
1.49924
3.18595
4.59957
5.90363
5.03124
4.37463
4.59727
3.78094
3.10573
2.99341
3.36107
3.864
3.52238
3.84577
4.40875
3.66385
3.12056
3.19757
2.61985
2.14223
2.04096
2.25905
2.5614
2.30176
2.45809
2.75512
2.21733
1.75267
1.62915
1.76721
1.97852
1.74772
1.8369
2.04057
1.62168
1.28263
1.21421
0.88634
0.584449
0.404806
0.255032
0.0921729
-0.214964
-0.632419
-1.09458
-1.3465
-1.75422
-2.43907
-2.65506
-3.06428
-3.94713
-5.83857
-8.20644
-9.48117
-13.4123
-17.8184
-13.7636
-6.48821
-3.18624
-1.74483
-1.02455
-0.605332
-0.322864
-0.101714
1.83793
3.48768
4.97487
6.68802
5.28016
4.40377
4.94709
3.85296
3.01553
2.90642
3.39261
4.1083
3.48841
3.92589
4.81069
3.74573
3.07704
3.3801
2.63392
2.05781
1.96524
2.26762
2.71377
2.27519
2.50382
3.0015
2.26215
1.69386
1.57677
1.78032
2.1061
1.73631
1.88062
2.23922
1.67298
1.27616
1.30309
0.91527
0.582284
0.421299
0.291511
0.161682
-0.155229
-0.602087
-1.11965
-1.29816
-1.69015
-2.51716
-2.5839
-2.89904
-3.71007
-5.8297
-8.60916
-9.38565
-14.2058
-20.6382
-15.2833
-5.95598
-2.64746
-1.39075
-0.802487
-0.470331
-0.249891
-0.0785993
2.29878
3.7872
5.31849
7.64911
5.48226
4.33566
5.39231
3.90447
2.88003
2.78299
3.40725
4.43222
3.38444
3.97227
5.32686
3.79723
2.96971
3.62556
2.63585
1.94439
1.86614
2.26613
2.91932
2.20469
2.52933
3.32068
2.2934
1.6071
1.50502
1.78462
2.27517
1.69068
1.90794
2.49169
1.71056
1.24133
1.41613
0.939243
0.568592
0.434959
0.326392
0.24079
-0.0893265
-0.568301
-1.16654
-1.2375
-1.59946
-2.64323
-2.49905
-2.70751
-3.39491
-5.77661
-9.12968
-9.02093
-14.8557
-24.1316
-17.0051
-5.04011
-1.99352
-1.00697
-0.572823
-0.333682
-0.176784
-0.0555409
2.93169
4.07097
5.59766
8.84621
5.61244
4.13431
5.97536
3.92508
2.69312
2.62037
3.39649
4.87012
3.1839
3.96922
5.99875
3.80305
2.77536
3.962
2.61925
1.79802
1.74181
2.24907
3.20048
2.07304
2.52486
3.73828
2.30213
1.48798
1.41283
1.77572
2.50335
1.59751
1.91142
2.81749
1.7272
1.16821
1.56454
0.955617
0.540855
0.446469
0.358319
0.331545
-0.0171116
-0.528617
-1.24397
-1.1615
-1.47059
-2.83724
-2.39612
-2.49475
-2.98878
-5.66578
-9.84145
-8.30471
-15.2645
-28.4863
-18.9508
-3.61293
-1.24083
-0.605814
-0.341147
-0.197925
-0.104669
-0.0328606
3.80398
4.32043
5.76727
10.3574
5.63767
3.75412
6.7529
3.89851
2.44885
2.41687
3.34677
5.46751
2.85241
3.89595
6.88012
3.74257
2.46431
4.42671
2.57387
1.61479
1.59109
2.20768
3.58692
1.85789
2.47749
4.28734
2.27525
1.33227
1.29992
1.74664
2.81395
1.43951
1.88127
3.24187
1.71306
1.04428
1.7633
0.960319
0.496228
0.457118
0.38537
0.436515
0.0611421
-0.479143
-1.3631
-1.06668
-1.28757
-3.12497
-2.26719
-2.26894
-2.47701
-5.47508
-10.845
-7.13947
-15.3013
-33.937
-21.1394
-1.51516
-0.422855
-0.201267
-0.112737
-0.06528
-0.0344931
-0.0108258
)
;

boundaryField
{
    left
    {
        type            calculated;
        value           uniform 0;
    }
    right
    {
        type            calculated;
        value           uniform 0;
    }
    interface
    {
        type            calculated;
        value           nonuniform List<scalar> 
64
(
3.80398
4.32043
5.76727
10.3574
5.63767
3.75412
6.7529
3.89851
2.44885
2.41687
3.34677
5.46751
2.85241
3.89595
6.88012
3.74257
2.46431
4.42671
2.57387
1.61479
1.59109
2.20768
3.58692
1.85789
2.47749
4.28734
2.27525
1.33227
1.29992
1.74664
2.81395
1.43951
1.88127
3.24187
1.71306
1.04428
1.7633
0.960319
0.496228
0.457118
0.38537
0.436515
0.0611421
-0.479143
-1.3631
-1.06668
-1.28757
-3.12497
-2.26719
-2.26894
-2.47701
-5.47508
-10.845
-7.13947
-15.3013
-33.937
-21.1394
-1.51516
-0.422855
-0.201267
-0.112737
-0.06528
-0.0344931
-0.0108258
)
;
    }
    bottom
    {
        type            calculated;
        value           nonuniform List<scalar> 
64
(
0.00630496
0.0187345
0.030639
0.0417206
0.0517504
0.0605791
0.0681362
0.0744196
0.079479
0.0833971
0.0862739
0.0882136
0.0893181
0.0896843
0.0894047
0.0885683
0.087262
0.0855693
0.0835681
0.0813268
0.0789012
0.076332
0.073644
0.0708474
0.06794
0.0649096
0.0617367
0.0583957
0.0548558
0.0510812
0.0470315
0.0426631
0.037931
0.0327904
0.0271995
0.0211209
0.0145221
0.00737698
-0.000333965
-0.00862246
-0.01749
-0.0269245
-0.0368943
-0.0473422
-0.0581766
-0.0692627
-0.0804135
-0.0913818
-0.101856
-0.111464
-0.119782
-0.12636
-0.130753
-0.13257
-0.131512
-0.127416
-0.120277
-0.110248
-0.0976156
-0.0827651
-0.0661296
-0.0481503
-0.0292469
-0.00980739
)
;
    }
    defaultFaces
    {
        type            empty;
    }
}


// ************************************************************************* //
