/*--------------------------------*- C++ -*----------------------------------*\
| =========                 |                                                 |
| \\      /  F ield         | OpenFOAM: The Open Source CFD Toolbox           |
|  \\    /   O peration     | Version:  5.x                                   |
|   \\  /    A nd           | Web:      www.OpenFOAM.org                      |
|    \\/     M anipulation  |                                                 |
\*---------------------------------------------------------------------------*/
FoamFile
{
    version     2.0;
    format      ascii;
    class       volScalarField;
    location    "8.6";
    object      gradTx;
}
// * * * * * * * * * * * * * * * * * * * * * * * * * * * * * * * * * * * * * //

dimensions      [0 -1 0 1 0 0 0];

internalField   nonuniform List<scalar> 
3200
(
45.2116
3.71172
1.64866
1.54012
0.814935
0.771349
0.466724
0.447269
0.293827
0.282721
0.170835
0.166692
0.180697
0.180846
0.173154
0.172312
0.159531
0.158414
0.144289
0.143106
0.128819
0.127649
0.113844
0.112749
0.100207
0.0993199
0.0901437
0.0901373
0.0950659
0.164733
0.0824878
0.0552473
0.0534192
0.0416715
0.0408444
0.0332472
0.0326884
0.0269721
0.0265425
0.0219847
0.0216382
0.0178997
0.0176122
0.0144649
0.0142178
0.0114503
0.0112233
0.00856142
0.00832275
0.00520096
0.00507021
0.00506927
0.00502167
0.00395695
0.00384392
0.0021938
0.00202838
-0.000277706
-0.000515079
-0.00387229
-0.00423462
-0.00950052
-0.0101056
-0.0191782
-0.0203262
-0.0381859
-0.0408588
-0.0840577
-0.0929824
-0.238839
-0.617574
-0.436419
-0.681932
-0.713306
-1.26872
-1.24309
-0.0558175
-0.00753238
-0.00152607
-52.9455
47.896
3.1051
1.57723
1.35445
0.774045
0.680993
0.436316
0.394716
0.271787
0.248194
0.160332
0.151487
0.160987
0.161195
0.155216
0.153442
0.14336
0.140995
0.129817
0.12731
0.115996
0.113516
0.102587
0.100267
0.0903611
0.0884973
0.0814245
0.0815747
0.0883576
0.137351
0.0765891
0.0516079
0.0475368
0.038005
0.0362313
0.0301747
0.0289862
0.0244462
0.0235342
0.0199178
0.0191824
0.0162169
0.0156067
0.0131098
0.0125853
0.0103887
0.00990672
0.00779242
0.00728868
0.00485226
0.00457444
0.00452903
0.00442504
0.00358458
0.00334502
0.00203643
0.0016852
-0.000147268
-0.000651845
-0.00332326
-0.00409431
-0.00829212
-0.00958235
-0.0168401
-0.0192987
-0.033701
-0.0394911
-0.0750787
-0.0950046
-0.227183
-0.51795
-0.415039
-0.602329
-0.666924
-1.08547
-1.0318
-0.121893
-0.020906
-0.00438824
-54.7417
50.5637
2.57633
1.4536
1.18309
0.71366
0.596702
0.397784
0.345416
0.245774
0.216238
0.146669
0.135548
0.141649
0.141791
0.137109
0.134904
0.12688
0.123929
0.114998
0.111867
0.10282
0.0997217
0.0909847
0.0880894
0.0801933
0.077883
0.0724164
0.0727468
0.0799608
0.114359
0.0692591
0.0471321
0.0418728
0.0340282
0.0317894
0.0269075
0.0254181
0.0217751
0.020634
0.0177356
0.0168158
0.0144398
0.0136766
0.0116758
0.0110198
0.00925859
0.00865546
0.00695898
0.0063319
0.00441721
0.00406936
0.00399111
0.00385785
0.00318816
0.00288888
0.00184077
0.00140127
-6.99543e-05
-0.000701944
-0.00285025
-0.00381694
-0.00720003
-0.00882037
-0.0146939
-0.0177935
-0.0295606
-0.0369315
-0.0667262
-0.0925367
-0.209183
-0.434073
-0.382052
-0.527633
-0.606384
-0.921101
-0.854755
-0.155612
-0.0309008
-0.00673402
-56.5377
53.2107
2.11313
1.29587
1.01969
0.639176
0.51569
0.353391
0.298007
0.216956
0.185883
0.130667
0.118921
0.12255
0.12258
0.118904
0.116599
0.110197
0.107102
0.0999471
0.0966596
0.0894054
0.0861527
0.0791492
0.0761114
0.0698021
0.0673949
0.0631764
0.0636436
0.0704765
0.0945475
0.0610101
0.0419815
0.0363122
0.0298271
0.0274533
0.0235045
0.021936
0.019004
0.0178041
0.0154743
0.0145075
0.0125981
0.011796
0.010188
0.00949836
0.00808211
0.00744791
0.00608276
0.00542662
0.00391947
0.00355349
0.00345539
0.00331211
0.00277691
0.00246268
0.00162075
0.0011586
-2.62175e-05
-0.000691398
-0.00242451
-0.00344291
-0.00617845
-0.00788826
-0.0126587
-0.0159415
-0.025596
-0.033475
-0.0585331
-0.0864354
-0.186855
-0.361272
-0.341161
-0.45561
-0.536405
-0.771979
-0.703026
-0.166354
-0.0368739
-0.00833416
-58.3336
55.8363
1.70404
1.11651
0.860457
0.554412
0.43623
0.304721
0.251624
0.186139
0.156494
0.112927
0.101678
0.103594
0.103518
0.100643
0.0984573
0.0933813
0.0904381
0.0847415
0.0816113
0.0758312
0.0727337
0.067155
0.0642643
0.0592547
0.0569792
0.0537489
0.0542856
0.0603027
0.0770398
0.0521807
0.0362966
0.0307842
0.0254615
0.0231801
0.0200063
0.0185085
0.0161636
0.0150194
0.0131584
0.0122368
0.0107122
0.00994757
0.00866349
0.008006
0.00687433
0.00626958
0.00517816
0.00455536
0.00337607
0.0030269
0.00292146
0.00278203
0.00235682
0.00205757
0.00138554
0.00094482
-3.273e-06
-0.000638141
-0.00202737
-0.00300021
-0.0051979
-0.00683373
-0.010683
-0.0138347
-0.0217025
-0.0293313
-0.0502263
-0.0774335
-0.161566
-0.296253
-0.294887
-0.384934
-0.460236
-0.635039
-0.570006
-0.160808
-0.0388094
-0.00906563
-60.1291
58.4418
1.33863
0.923882
0.703225
0.462132
0.357303
0.252914
0.205737
0.153889
0.127662
0.093894
0.0839092
0.084718
0.0845674
0.0823549
0.0804316
0.0764807
0.0738839
0.0694332
0.066669
0.0621496
0.059414
0.0550533
0.0525019
0.048598
0.0466017
0.0441707
0.0447084
0.0497001
0.061196
0.0429923
0.0301967
0.0252485
0.0209743
0.0189427
0.016441
0.0151148
0.0132751
0.0122633
0.0108049
0.00999027
0.00879584
0.00811994
0.00711386
0.0065326
0.00564546
0.00511071
0.0042548
0.00370635
0.00279946
0.00249055
0.00238889
0.00226338
0.00193168
0.00166737
0.00114106
0.000751332
7.13658e-06
-0.000554715
-0.00164688
-0.00250851
-0.00423984
-0.00569067
-0.00873517
-0.0115392
-0.0178185
-0.0246569
-0.0416669
-0.0661546
-0.134255
-0.236676
-0.244957
-0.314848
-0.380086
-0.507692
-0.450752
-0.143774
-0.0370548
-0.00890354
-61.9243
61.0296
1.00744
0.723493
0.54681
0.364403
0.278358
0.198819
0.160037
0.120613
0.0991314
0.0739097
0.0657083
0.0658804
0.0656994
0.0640552
0.0624869
0.0595259
0.0574038
0.0540575
0.0517969
0.0483966
0.0461592
0.0428792
0.0407936
0.0378649
0.0362416
0.0344738
0.034953
0.0388372
0.0465401
0.0335875
0.0237829
0.0196859
0.0163973
0.0147239
0.0128287
0.0117417
0.0103534
0.00952503
0.00842572
0.00775888
0.00685872
0.00630551
0.00554723
0.00507142
0.00440249
0.00396468
0.00331914
0.00287167
0.00219893
0.00194591
0.00185726
0.00175297
0.00150383
0.00128765
0.000891115
0.000572018
1.02475e-05
-0.000450082
-0.00127562
-0.00198203
-0.00329299
-0.00448387
-0.00679699
-0.00910475
-0.0139121
-0.0195758
-0.0328085
-0.0531312
-0.105571
-0.180865
-0.192563
-0.244948
-0.297442
-0.387727
-0.3415
-0.11873
-0.0321573
-0.00790562
-63.7193
63.6031
0.701907
0.518813
0.390624
0.262818
0.199153
0.143094
0.114362
0.0866204
0.0707504
0.0532446
0.0471725
0.0470569
0.0468899
0.0457525
0.0445979
0.0425376
0.0409727
0.0386384
0.0369704
0.0345971
0.0329461
0.0306572
0.029119
0.0270796
0.0258873
0.0246869
0.0250614
0.0278216
0.0327104
0.0240568
0.0171408
0.014091
0.0117557
0.0105141
0.00918407
0.00838057
0.00740939
0.00679761
0.00602918
0.00553682
0.00490772
0.00449927
0.00396929
0.00361795
0.00315026
0.00282695
0.00237555
0.002046
0.0015816
0.00139468
0.00132625
0.00124835
0.00107467
0.000915136
0.000638067
0.000402407
9.29702e-06
-0.000330843
-0.000909129
-0.00143138
-0.00235095
-0.00323218
-0.00485903
-0.0065703
-0.00997157
-0.0141918
-0.0236665
-0.0388231
-0.0759732
-0.127598
-0.138541
-0.175044
-0.213286
-0.273222
-0.23931
-0.0882382
-0.0247671
-0.00619484
-65.514
66.1661
0.414172
0.311936
0.234423
0.158668
0.119644
0.0862752
0.0686483
0.0521525
0.0424349
0.0321221
0.0283984
0.0282355
0.0281193
0.0274505
0.0267452
0.0255294
0.0245724
0.0231926
0.0221721
0.0207687
0.0197586
0.0184053
0.0174644
0.0162605
0.0155332
0.014837
0.0150744
0.0167208
0.0194224
0.0144566
0.010344
0.00846745
0.00707031
0.00630778
0.00551835
0.00502615
0.00445097
0.00407644
0.00362159
0.00332022
0.00294788
0.00269788
0.00238419
0.00216914
0.00189226
0.00169433
0.00142708
0.00122572
0.000953166
0.000838714
0.000795622
0.000747563
0.000644931
0.000547319
0.00038336
0.00023909
6.22503e-06
-0.000202081
-0.000544881
-0.000864827
-0.00141045
-0.00195066
-0.00291768
-0.00396826
-0.00599823
-0.00859769
-0.0142972
-0.0236353
-0.0457964
-0.0759577
-0.0834974
-0.10507
-0.128263
-0.162472
-0.141807
-0.0542423
-0.0155809
-0.0039424
-67.3085
68.7227
0.136906
0.104071
0.078152
0.0530489
0.0399088
0.028827
0.0228889
0.0174136
0.0141431
0.0107361
0.00948194
0.00941221
0.0093707
0.00914995
0.00891286
0.00851086
0.00818901
0.00773236
0.00738908
0.00692456
0.00658476
0.00613685
0.00582039
0.00542221
0.00517796
0.0049498
0.00503101
0.00557783
0.00644103
0.00482226
0.00345775
0.00282472
0.00235955
0.00210253
0.00184073
0.00167505
0.00148452
0.00135849
0.00120785
0.00110645
0.000983151
0.000899029
0.000795152
0.000722788
0.000631087
0.000564485
0.000475971
0.000408277
0.000318407
0.000279889
0.000265187
0.000248952
0.000214992
0.000182154
0.000127864
7.93156e-05
2.16905e-06
-6.794e-05
-0.000181548
-0.000289251
-0.000470163
-0.000652074
-0.000973003
-0.00132703
-0.00200211
-0.00287957
-0.0047824
-0.00793461
-0.0152996
-0.0252225
-0.0278921
-0.0350318
-0.042799
-0.0539166
-0.0469788
-0.0182903
-0.00531384
-0.00135234
-69.1028
68.7146
0.150884
0.128426
0.107467
0.08521
0.0726951
0.060737
0.0533354
0.0448801
0.038761
0.0310045
0.0281934
0.0283067
0.0282052
0.0273719
0.0264742
0.0249587
0.0237723
0.0221285
0.0209352
0.0193792
0.0182839
0.0168974
0.0159519
0.0148071
0.0141306
0.0135409
0.0138393
0.0155189
0.0181063
0.0137292
0.0100718
0.00839246
0.00718124
0.0065149
0.00583627
0.00540314
0.00489889
0.0045606
0.00414941
0.00386808
0.00351964
0.00327762
0.00297265
0.00275535
0.00247273
0.00226001
0.00196625
0.00173041
0.00140786
0.00129509
0.00131295
0.00131478
0.00128208
0.00124351
0.00117571
0.00112156
0.0010452
0.000988525
0.000912584
0.000855751
0.000777631
0.000712124
0.000608986
0.000494894
0.000268877
-7.45251e-05
-0.000891715
-0.00243041
-0.00621681
-0.0117848
-0.015069
-0.0220548
-0.0294897
-0.040434
-0.0360475
-0.0140877
-0.0040976
-0.00104317
-69.8075
66.1413
0.456021
0.385217
0.322453
0.25524
0.218063
0.182029
0.160048
0.134547
0.116349
0.0928157
0.0844631
0.0849288
0.084645
0.0821182
0.0794472
0.074863
0.0713351
0.0663676
0.0628202
0.0581192
0.0548633
0.0506745
0.0478636
0.0444027
0.0423883
0.0405872
0.0414626
0.0465204
0.0545975
0.0411587
0.0301364
0.0251587
0.0215219
0.0195452
0.017499
0.0162123
0.01469
0.0136847
0.012443
0.0116069
0.0105547
0.00983539
0.00891446
0.00826866
0.00741539
0.00678328
0.00589644
0.00519469
0.00421519
0.00388005
0.0039395
0.00394573
0.00384647
0.00373172
0.00352659
0.00336557
0.00313482
0.00296635
0.00273699
0.00256811
0.00233239
0.00213788
0.0018274
0.00148916
0.00081133
-0.00020462
-0.00264628
-0.00720133
-0.0185792
-0.0354458
-0.0450588
-0.0661463
-0.0883287
-0.121915
-0.108845
-0.0417844
-0.0120154
-0.00304116
-69.4223
63.5607
0.771351
0.641687
0.537617
0.424069
0.363385
0.302758
0.266902
0.223922
0.19415
0.15402
0.14038
0.141581
0.141174
0.13687
0.132497
0.124725
0.118955
0.11055
0.104751
0.0968013
0.0914801
0.0843965
0.0798013
0.0739404
0.0706375
0.0675264
0.0689187
0.0774012
0.0919494
0.0684917
0.0499592
0.0418713
0.0357962
0.0325783
0.0291314
0.0270309
0.0244605
0.0228183
0.0207205
0.0193544
0.0175764
0.0164012
0.0148453
0.0137903
0.0123492
0.0113168
0.00981924
0.0086701
0.00699676
0.00644924
0.00656819
0.00658091
0.0064115
0.00622355
0.00587572
0.00561238
0.00522196
0.00494662
0.00455899
0.00428315
0.00388552
0.00356829
0.00304693
0.00249703
0.00136732
-0.000277675
-0.0043163
-0.0116993
-0.0307219
-0.0593968
-0.0745896
-0.110194
-0.146711
-0.205262
-0.183803
-0.0679893
-0.0191014
-0.00477889
-69.0371
60.9679
1.10395
0.897133
0.753159
0.590783
0.508705
0.422497
0.374041
0.312768
0.272365
0.214164
0.195704
0.198297
0.19786
0.191625
0.185682
0.174507
0.166681
0.154628
0.146769
0.135378
0.128167
0.118019
0.11179
0.103376
0.0988792
0.0942856
0.0960913
0.108039
0.130822
0.0956277
0.0693643
0.0585034
0.0499563
0.0456206
0.0407099
0.0378683
0.0341939
0.0319702
0.0289687
0.0271185
0.024574
0.0229824
0.0207561
0.0193274
0.0172668
0.0158689
0.0137281
0.0121665
0.00973333
0.00899179
0.00920116
0.0092234
0.00897729
0.0087218
0.00822149
0.0078643
0.00730452
0.0069314
0.00637654
0.00600308
0.00543544
0.00500688
0.00426763
0.0035281
0.00194394
-0.000254966
-0.00585252
-0.0157317
-0.0424786
-0.0838871
-0.103304
-0.154205
-0.204213
-0.29181
-0.262535
-0.0915172
-0.0248047
-0.00609899
-68.6517
58.3587
1.4613
1.15007
0.969438
0.754286
0.65419
0.540726
0.481692
0.40078
0.351292
0.272719
0.250185
0.255135
0.254777
0.246369
0.239077
0.224155
0.214576
0.198538
0.188927
0.173788
0.164972
0.151485
0.143866
0.132655
0.127125
0.120789
0.122858
0.138244
0.172013
0.122407
0.0881534
0.0750431
0.063948
0.058686
0.0522058
0.0487391
0.0438694
0.0411533
0.0371709
0.0349103
0.0315336
0.0295889
0.0266351
0.0248898
0.0221578
0.0204507
0.0176139
0.0156978
0.0124023
0.0114963
0.0118416
0.0118767
0.0115435
0.0112299
0.0105616
0.0101244
0.00937965
0.00892348
0.00818686
0.00773081
0.00697983
0.00645792
0.00548836
0.00459298
0.00254517
-9.62822e-05
-0.00721744
-0.0190893
-0.0536487
-0.109257
-0.130759
-0.198252
-0.260211
-0.383033
-0.346936
-0.110873
-0.0285878
-0.00686936
-68.2661
55.7292
1.85141
1.39777
1.1871
0.913186
0.80021
0.656777
0.590218
0.487534
0.431383
0.329032
0.303567
0.312185
0.312017
0.301067
0.292777
0.27359
0.26273
0.242191
0.231307
0.211946
0.201964
0.184716
0.176085
0.161706
0.155403
0.146956
0.149093
0.167714
0.21654
0.148572
0.106097
0.0915023
0.0777065
0.0718003
0.0635812
0.0596662
0.0534588
0.0503871
0.0453043
0.0427469
0.038436
0.036236
0.0324658
0.0304918
0.027008
0.0250778
0.0214629
0.0192843
0.0149756
0.0139509
0.0144946
0.0145447
0.0141089
0.0137522
0.0128924
0.0123967
0.0114433
0.0109268
0.00998599
0.00947037
0.00851509
0.0079269
0.00670615
0.005704
0.00317018
0.000241626
-0.00839229
-0.0215394
-0.0639767
-0.135991
-0.156374
-0.24252
-0.313774
-0.480612
-0.439336
-0.124077
-0.0299481
-0.00699499
-67.8803
53.0765
2.28287
1.63576
1.40729
1.06565
0.947448
0.769754
0.70019
0.572428
0.513321
0.38227
0.355586
0.369587
0.369687
0.35566
0.346913
0.322691
0.311271
0.285459
0.274026
0.249728
0.239247
0.217603
0.208535
0.190435
0.183766
0.1727
0.174668
0.195976
0.265738
0.173717
0.122925
0.10793
0.0911495
0.0850071
0.0747845
0.070685
0.0629229
0.0597014
0.0533368
0.0506538
0.0452541
0.0429459
0.0382247
0.0361542
0.031796
0.0297724
0.0252545
0.0229561
0.0174177
0.0163427
0.0171673
0.0172322
0.0166713
0.0162946
0.0152088
0.0146875
0.0134895
0.0129472
0.0117682
0.0112276
0.0100357
0.00942123
0.00791525
0.00687632
0.00381103
0.000807794
-0.00938656
-0.0228178
-0.0731216
-0.16479
-0.179358
-0.287384
-0.363513
-0.586515
-0.542695
-0.128437
-0.0284615
-0.00643112
-67.4943
50.3991
2.76483
1.85701
1.632
1.20917
1.09707
0.878405
0.812489
0.654575
0.598138
0.431333
0.405977
0.427544
0.427923
0.410041
0.401669
0.371281
0.360387
0.328151
0.317259
0.286957
0.276976
0.249987
0.241346
0.218707
0.212306
0.197923
0.199469
0.2223
0.321408
0.197213
0.138322
0.124429
0.104167
0.0983773
0.0857431
0.0818504
0.0722054
0.0691416
0.0612221
0.0586694
0.0519486
0.0497524
0.0438777
0.0419083
0.0364908
0.0345669
0.0289574
0.0267576
0.0196813
0.0186586
0.0198705
0.0199448
0.0192263
0.0188656
0.0175026
0.0170054
0.0155095
0.0149931
0.0135248
0.0130109
0.0115333
0.0109513
0.0091057
0.00812975
0.00444944
0.00166166
-0.0102513
-0.0226212
-0.0806117
-0.196673
-0.198604
-0.333523
-0.407378
-0.703091
-0.660872
-0.120225
-0.023857
-0.00519676
-67.108
47.698
3.30682
2.05094
1.86463
1.34027
1.25095
0.980946
0.928468
0.732663
0.687369
0.474738
0.454491
0.486349
0.48689
0.464042
0.457305
0.419091
0.410358
0.36999
0.36127
0.323374
0.315386
0.281637
0.274717
0.246329
0.241166
0.222508
0.22342
0.245573
0.386011
0.218098
0.151919
0.141182
0.116606
0.112021
0.0963522
0.0932462
0.0812249
0.0787761
0.0688929
0.0668518
0.0584622
0.0567062
0.0493747
0.0478004
0.0410459
0.0395088
0.032524
0.0307542
0.0217028
0.0208852
0.0226192
0.0226892
0.0217671
0.0214766
0.0197619
0.0193633
0.0174904
0.0170771
0.0152434
0.0148327
0.0129951
0.0125319
0.0102614
0.0094914
0.00505221
0.00288059
-0.0110977
-0.0205997
-0.0857789
-0.233121
-0.21253
-0.382104
-0.442368
-0.833184
-0.798985
-0.0942411
-0.0161442
-0.00338669
-66.7216
44.9777
3.91823
2.20209
2.11078
1.45396
1.41205
1.07479
1.05018
0.80473
0.783293
0.510448
0.500922
0.546407
0.546792
0.517399
0.5142
0.465721
0.461594
0.410562
0.406447
0.358595
0.354826
0.312214
0.308947
0.273023
0.270565
0.246312
0.246521
0.264115
0.462948
0.234913
0.163299
0.15849
0.128246
0.126109
0.106459
0.104999
0.0898616
0.0887082
0.0762502
0.0752884
0.0647106
0.0638831
0.0546414
0.0538998
0.0453924
0.0446688
0.0358821
0.0350422
0.0233951
0.0230099
0.0254346
0.0254733
0.0242828
0.0241447
0.0219687
0.0217802
0.0194129
0.019218
0.0169052
0.0167118
0.014402
0.0141849
0.0113572
0.0109999
0.00556433
0.00457185
-0.012123
-0.016351
-0.0876595
-0.276286
-0.21885
-0.435058
-0.464135
-0.980278
-0.96392
-0.0431918
-0.00581786
-0.00117781
-66.3351
44.9777
3.91823
2.20209
2.11078
1.45396
1.41205
1.07479
1.05018
0.80473
0.783293
0.510448
0.500922
0.546407
0.546792
0.517399
0.5142
0.465721
0.461594
0.410563
0.406447
0.358595
0.354827
0.312214
0.308947
0.273023
0.270565
0.246312
0.246521
0.264115
0.462949
0.234914
0.163299
0.15849
0.128246
0.126109
0.106459
0.104999
0.0898619
0.0887085
0.0762505
0.0752886
0.0647108
0.0638833
0.0546416
0.0539
0.0453926
0.0446689
0.0358823
0.0350423
0.0233951
0.0230099
0.0254346
0.0254734
0.0242829
0.0241448
0.0219688
0.0217803
0.0194131
0.0192181
0.0169053
0.0167119
0.0144021
0.014185
0.0113573
0.011
0.00556444
0.00457196
-0.0121229
-0.0163509
-0.0876594
-0.276286
-0.21885
-0.435058
-0.464135
-0.980277
-0.963919
-0.0431917
-0.00581785
-0.00117782
-66.3351
47.698
3.30682
2.05094
1.86463
1.34027
1.25094
0.980946
0.928468
0.732663
0.687369
0.474738
0.454491
0.486349
0.48689
0.464042
0.457305
0.419091
0.410358
0.36999
0.36127
0.323374
0.315386
0.281637
0.274717
0.24633
0.241166
0.222509
0.22342
0.245573
0.386012
0.218098
0.15192
0.141183
0.116606
0.112022
0.0963524
0.0932464
0.0812252
0.0787764
0.0688932
0.066852
0.0584624
0.0567064
0.0493749
0.0478006
0.041046
0.039509
0.0325242
0.0307543
0.0217029
0.0208853
0.0226193
0.0226893
0.0217672
0.0214767
0.019762
0.0193634
0.0174905
0.0170772
0.0152435
0.0148329
0.0129952
0.012532
0.0102615
0.0094915
0.00505231
0.00288069
-0.0110976
-0.0205996
-0.0857789
-0.233121
-0.21253
-0.382104
-0.442368
-0.833184
-0.798984
-0.094241
-0.0161442
-0.00338667
-66.7216
50.3991
2.76483
1.85701
1.632
1.20917
1.09707
0.878405
0.812489
0.654575
0.598138
0.431333
0.405977
0.427544
0.427923
0.410041
0.401669
0.371281
0.360387
0.328151
0.31726
0.286957
0.276976
0.249987
0.241346
0.218707
0.212307
0.197923
0.19947
0.2223
0.321409
0.197214
0.138322
0.124429
0.104167
0.0983776
0.0857434
0.0818507
0.0722057
0.0691418
0.0612223
0.0586696
0.0519488
0.0497526
0.0438779
0.0419085
0.0364909
0.034567
0.0289575
0.0267577
0.0196814
0.0186587
0.0198705
0.0199449
0.0192264
0.0188657
0.0175028
0.0170055
0.0155096
0.0149932
0.0135249
0.013011
0.0115334
0.0109514
0.0091058
0.00812984
0.00444953
0.00166175
-0.0102512
-0.0226211
-0.0806117
-0.196673
-0.198604
-0.333523
-0.407378
-0.703091
-0.660871
-0.120224
-0.023857
-0.00519669
-67.108
53.0765
2.28286
1.63576
1.40729
1.06565
0.947448
0.769754
0.70019
0.572428
0.513321
0.38227
0.355586
0.369587
0.369687
0.35566
0.346913
0.322691
0.311271
0.285459
0.274026
0.249728
0.239247
0.217603
0.208535
0.190435
0.183767
0.1727
0.174668
0.195976
0.265739
0.173717
0.122926
0.10793
0.0911498
0.0850074
0.0747848
0.0706852
0.0629231
0.0597016
0.053337
0.0506539
0.0452542
0.042946
0.0382249
0.0361544
0.0317961
0.0297725
0.0252546
0.0229562
0.0174178
0.0163428
0.0171674
0.0172323
0.0166714
0.0162947
0.0152089
0.0146876
0.0134895
0.0129473
0.0117683
0.0112276
0.0100358
0.00942131
0.00791533
0.0068764
0.00381111
0.000807867
-0.00938649
-0.0228177
-0.0731216
-0.16479
-0.179358
-0.287384
-0.363513
-0.586515
-0.542695
-0.128436
-0.0284614
-0.00643101
-67.4943
55.7292
1.85141
1.39777
1.1871
0.913186
0.80021
0.656777
0.590218
0.487534
0.431383
0.329032
0.303567
0.312185
0.312017
0.301067
0.292777
0.27359
0.26273
0.242192
0.231307
0.211946
0.201964
0.184716
0.176085
0.161707
0.155403
0.146956
0.149093
0.167714
0.21654
0.148572
0.106097
0.0915025
0.0777067
0.0718005
0.0635814
0.0596663
0.053459
0.0503872
0.0453044
0.0427471
0.0384362
0.0362361
0.0324659
0.0304919
0.0270081
0.0250779
0.021463
0.0192844
0.0149757
0.0139509
0.0144946
0.0145447
0.014109
0.0137522
0.0128925
0.0123968
0.0114433
0.0109269
0.00998607
0.00947044
0.00851516
0.00792697
0.00670622
0.00570407
0.00317025
0.000241686
-0.00839224
-0.0215394
-0.0639768
-0.135991
-0.156374
-0.24252
-0.313774
-0.480611
-0.439336
-0.124077
-0.0299481
-0.00699485
-67.8803
58.3587
1.4613
1.15007
0.969438
0.754286
0.65419
0.540726
0.481692
0.40078
0.351292
0.272719
0.250185
0.255135
0.254777
0.246369
0.239077
0.224155
0.214577
0.198538
0.188927
0.173789
0.164973
0.151485
0.143866
0.132655
0.127125
0.120789
0.122858
0.138245
0.172013
0.122407
0.0881536
0.0750433
0.0639482
0.0586862
0.0522059
0.0487393
0.0438695
0.0411534
0.037171
0.0349105
0.0315337
0.0295891
0.0266352
0.0248899
0.0221579
0.0204508
0.017614
0.0156979
0.0124023
0.0114964
0.0118417
0.0118767
0.0115435
0.0112299
0.0105616
0.0101244
0.00937971
0.00892354
0.00818692
0.00773087
0.00697989
0.00645798
0.00548841
0.00459304
0.00254522
-9.62368e-05
-0.00721741
-0.0190893
-0.0536487
-0.109257
-0.130759
-0.198252
-0.260211
-0.383032
-0.346936
-0.110873
-0.0285877
-0.00686921
-68.2661
60.9679
1.10395
0.897133
0.753159
0.590783
0.508705
0.422497
0.374041
0.312768
0.272365
0.214164
0.195704
0.198297
0.19786
0.191625
0.185682
0.174507
0.166681
0.154628
0.146769
0.135379
0.128168
0.118019
0.11179
0.103376
0.0988793
0.0942857
0.0960914
0.10804
0.130822
0.0956279
0.0693645
0.0585036
0.0499565
0.0456208
0.04071
0.0378684
0.0341941
0.0319703
0.0289688
0.0271186
0.0245741
0.0229825
0.0207562
0.0193275
0.0172668
0.0158689
0.0137282
0.0121666
0.00973336
0.00899182
0.00920119
0.00922344
0.00897733
0.00872184
0.00822154
0.00786435
0.00730457
0.00693145
0.00637659
0.00600313
0.00543549
0.00500692
0.00426767
0.00352814
0.00194397
-0.000254933
-0.0058525
-0.0157317
-0.0424786
-0.0838872
-0.103304
-0.154205
-0.204213
-0.29181
-0.262535
-0.0915171
-0.0248046
-0.00609885
-68.6517
63.5607
0.771349
0.641687
0.537616
0.424069
0.363385
0.302758
0.266902
0.223922
0.19415
0.15402
0.14038
0.141581
0.141174
0.13687
0.132497
0.124725
0.118956
0.11055
0.104751
0.0968014
0.0914802
0.0843966
0.0798014
0.0739405
0.0706376
0.0675265
0.0689188
0.0774013
0.0919496
0.0684919
0.0499593
0.0418714
0.0357963
0.0325784
0.0291314
0.027031
0.0244606
0.0228184
0.0207205
0.0193545
0.0175764
0.0164013
0.0148453
0.0137903
0.0123493
0.0113168
0.00981928
0.00867014
0.00699679
0.00644926
0.00656822
0.00658094
0.00641153
0.00622358
0.00587575
0.00561242
0.005222
0.00494665
0.00455902
0.00428318
0.00388555
0.00356832
0.00304696
0.00249705
0.00136734
-0.000277654
-0.00431629
-0.0116993
-0.030722
-0.0593969
-0.0745897
-0.110194
-0.146712
-0.205262
-0.183803
-0.0679892
-0.0191013
-0.00477877
-69.0371
66.1413
0.45602
0.385217
0.322453
0.25524
0.218063
0.182029
0.160048
0.134547
0.116349
0.0928157
0.0844631
0.0849288
0.084645
0.0821182
0.0794472
0.0748631
0.0713351
0.0663676
0.0628202
0.0581192
0.0548634
0.0506745
0.0478636
0.0444027
0.0423884
0.0405872
0.0414627
0.0465205
0.0545976
0.0411588
0.0301365
0.0251587
0.021522
0.0195453
0.017499
0.0162123
0.0146901
0.0136848
0.0124431
0.011607
0.0105547
0.00983543
0.0089145
0.00826869
0.00741542
0.00678331
0.00589646
0.00519471
0.00421521
0.00388006
0.00393951
0.00394574
0.00384649
0.00373174
0.00352661
0.00336559
0.00313484
0.00296637
0.00273701
0.00256813
0.00233241
0.0021379
0.00182742
0.00148918
0.000811345
-0.000204609
-0.00264628
-0.00720134
-0.0185792
-0.0354458
-0.0450588
-0.0661463
-0.0883287
-0.121915
-0.108845
-0.0417843
-0.0120153
-0.00304108
-69.4223
68.7146
0.150884
0.128426
0.107467
0.08521
0.0726951
0.060737
0.0533354
0.0448801
0.038761
0.0310045
0.0281934
0.0283067
0.0282052
0.0273719
0.0264742
0.0249587
0.0237723
0.0221285
0.0209352
0.0193792
0.0182839
0.0168974
0.0159519
0.0148071
0.0141306
0.0135409
0.0138393
0.0155189
0.0181063
0.0137292
0.0100719
0.00839248
0.00718125
0.00651492
0.00583628
0.00540316
0.0048989
0.00456061
0.00414942
0.00386809
0.00351965
0.00327763
0.00297267
0.00275536
0.00247274
0.00226002
0.00196626
0.00173041
0.00140786
0.00129509
0.00131296
0.00131479
0.00128208
0.00124352
0.00117572
0.00112157
0.00104521
0.000988531
0.00091259
0.000855757
0.000777637
0.00071213
0.000608991
0.000494899
0.000268882
-7.45219e-05
-0.000891715
-0.00243042
-0.00621682
-0.0117848
-0.015069
-0.0220548
-0.0294897
-0.0404339
-0.0360475
-0.0140877
-0.00409759
-0.00104313
-69.8075
68.7223
0.136738
0.103793
0.0777586
0.0524417
0.0390531
0.0275025
0.021089
0.0150022
0.0125849
0.011923
0.011573
0.0110198
0.0105817
0.0099678
0.00952182
0.00893944
0.0085214
0.00797812
0.00758711
0.00707745
0.006712
0.0062388
0.00590761
0.00549447
0.00524162
0.0050052
0.00508358
0.00563172
0.00650044
0.0048652
0.00348713
0.00284788
0.00237824
0.00211883
0.0018547
0.00168759
0.00149546
0.0013684
0.00121657
0.00111438
0.000990141
0.000905391
0.000800753
0.000727869
0.000635522
0.000568459
0.000479341
0.000411189
0.00032072
0.000281975
0.000267257
0.000250994
0.000216944
0.000184017
0.000129587
8.09333e-05
3.64289e-06
-6.65688e-05
-0.000180308
-0.000288104
-0.00046913
-0.000651119
-0.000972145
-0.00132624
-0.00200139
-0.0028789
-0.00478179
-0.007934
-0.0152989
-0.0252218
-0.0278915
-0.0350314
-0.0427987
-0.0539164
-0.0469787
-0.0182902
-0.00531382
-0.00135229
-69.1028
66.1648
0.41367
0.311102
0.233247
0.156848
0.117086
0.082302
0.0632541
0.0448599
0.0376844
0.0357565
0.0347271
0.0330549
0.0317521
0.0298967
0.0285709
0.0268118
0.0255692
0.0239283
0.0227661
0.0212266
0.0201403
0.0187107
0.0177261
0.016477
0.0157242
0.015003
0.015232
0.0168823
0.0196015
0.0145853
0.0104318
0.00853685
0.00712632
0.00635669
0.00556021
0.00506376
0.00448377
0.00410619
0.00364772
0.00334401
0.00296884
0.00271697
0.00240099
0.00218438
0.00190555
0.00170626
0.00143718
0.00123446
0.000960091
0.000844964
0.000801833
0.000753693
0.000650785
0.000552912
0.000388531
0.000243945
1.0645e-05
-0.000197966
-0.000541164
-0.000861382
-0.00140735
-0.0019478
-0.00291511
-0.00396588
-0.00599609
-0.0085957
-0.0142954
-0.0236335
-0.0457945
-0.0759555
-0.0834958
-0.105069
-0.128262
-0.162471
-0.141806
-0.0542421
-0.0155809
-0.00394229
-67.3085
63.601
0.701072
0.517422
0.388677
0.259788
0.194919
0.136472
0.105393
0.0742689
0.0625739
0.0595541
0.057907
0.0550751
0.0529446
0.0498044
0.0476374
0.0446634
0.042633
0.0398593
0.0379601
0.0353576
0.0335824
0.0311648
0.0295552
0.0274397
0.0262055
0.0249628
0.0253235
0.0280902
0.0330119
0.0242709
0.0172862
0.0142064
0.0118487
0.0105956
0.00925372
0.00844326
0.00746398
0.00684721
0.00607268
0.00557649
0.00494261
0.0045311
0.00399724
0.00364339
0.0031724
0.00284684
0.00239237
0.00206059
0.00159309
0.00140507
0.00133661
0.00125858
0.00108442
0.000924464
0.00064668
0.000410503
1.6658e-05
-0.000323981
-0.000902939
-0.00142563
-0.00234579
-0.0032274
-0.00485475
-0.00656634
-0.00996801
-0.0141885
-0.0236634
-0.0388201
-0.07597
-0.127594
-0.138539
-0.175042
-0.213285
-0.273221
-0.239309
-0.0882379
-0.024767
-0.00619468
-65.514
61.0267
1.00628
0.721547
0.544113
0.360168
0.272496
0.189547
0.147534
0.102901
0.0871165
0.0832968
0.0811342
0.0770673
0.0741775
0.0696731
0.0667361
0.0624773
0.0597264
0.0557553
0.0531823
0.0494555
0.0470501
0.0435866
0.0414045
0.0383671
0.0366872
0.0348585
0.0353187
0.0392119
0.0469688
0.0338863
0.0239843
0.0198471
0.016527
0.0148381
0.012926
0.0118295
0.0104297
0.00959453
0.0084865
0.00781448
0.00690747
0.00635013
0.00558629
0.00510707
0.00443343
0.00399258
0.00334264
0.00289215
0.00221491
0.00196039
0.00187176
0.00176731
0.00151749
0.00130073
0.000903163
0.000583365
2.05401e-05
-0.000440465
-0.00126697
-0.00197398
-0.00328578
-0.00447718
-0.00679101
-0.0090992
-0.0139072
-0.0195711
-0.0328042
-0.053127
-0.105567
-0.18086
-0.192559
-0.244946
-0.29744
-0.387725
-0.341499
-0.11873
-0.0321572
-0.00790544
-63.7193
58.4381
1.33714
0.921379
0.69981
0.456697
0.349883
0.240985
0.189779
0.130379
0.111181
0.106973
0.104438
0.0990125
0.095475
0.0894792
0.0858877
0.0802309
0.0768687
0.0715953
0.0684506
0.0635005
0.0605601
0.0559572
0.0532879
0.0492402
0.0471748
0.0446626
0.0451766
0.0501789
0.0617593
0.0433743
0.0304519
0.0254551
0.02114
0.0190894
0.0165656
0.0152279
0.0133728
0.0123527
0.0108829
0.0100619
0.00885834
0.0081774
0.00716395
0.00657851
0.00568513
0.00514667
0.00428493
0.00373277
0.00281981
0.00250907
0.00240754
0.00228185
0.00194923
0.00168422
0.00115653
0.000765944
2.03455e-05
-0.000542333
-0.00163578
-0.00249815
-0.00423059
-0.00568206
-0.0087275
-0.0115321
-0.0178121
-0.024651
-0.0416615
-0.0661492
-0.134249
-0.236669
-0.244953
-0.314845
-0.380084
-0.50769
-0.450751
-0.143774
-0.0370546
-0.00890335
-61.9243
55.8319
1.70224
1.11344
0.856368
0.547774
0.427354
0.290115
0.232352
0.156248
0.134645
0.130583
0.127857
0.120882
0.116871
0.109189
0.105122
0.0978927
0.0940874
0.0873503
0.0837911
0.0774652
0.0741366
0.0682503
0.0652265
0.0600339
0.0576802
0.0543456
0.054855
0.0608829
0.0777484
0.0526439
0.0366024
0.0310358
0.0256623
0.0233597
0.0201577
0.0186469
0.0162825
0.0151289
0.0132533
0.0123245
0.0107883
0.010018
0.00872447
0.00806226
0.00692263
0.00631369
0.00521483
0.00458781
0.00340061
0.00304938
0.00294428
0.00280466
0.00237826
0.00207821
0.00140441
0.000962718
1.28292e-05
-0.000622975
-0.00201384
-0.00298751
-0.00518663
-0.00682318
-0.0106736
-0.0138259
-0.0216947
-0.029324
-0.0502196
-0.0774269
-0.161559
-0.296244
-0.294881
-0.384931
-0.460233
-0.635037
-0.570004
-0.160808
-0.0388093
-0.00906547
-60.1291
53.2056
2.11103
1.29224
1.01499
0.631324
0.505498
0.336067
0.275659
0.179938
0.157408
0.154139
0.151446
0.142633
0.138414
0.128754
0.124482
0.115418
0.111423
0.102978
0.0992423
0.0913099
0.0878154
0.080429