/*--------------------------------*- C++ -*----------------------------------*\
| =========                 |                                                 |
| \\      /  F ield         | OpenFOAM: The Open Source CFD Toolbox           |
|  \\    /   O peration     | Version:  5.x                                   |
|   \\  /    A nd           | Web:      www.OpenFOAM.org                      |
|    \\/     M anipulation  |                                                 |
\*---------------------------------------------------------------------------*/
FoamFile
{
    version     2.0;
    format      ascii;
    class       volScalarField;
    location    "8.6";
    object      gradTy;
}
// * * * * * * * * * * * * * * * * * * * * * * * * * * * * * * * * * * * * * //

dimensions      [0 -1 0 1 0 0 0];

internalField   nonuniform List<scalar> 
3200
(
18.2484
8.63563
11.7296
8.31224
9.74959
8.03966
8.79383
7.79261
8.2415
7.60068
7.87608
7.5172
7.72766
7.31733
7.52958
7.13932
7.33848
6.97994
7.1617
6.83781
7.00112
6.71221
6.85727
6.60218
6.73017
6.50605
6.62029
6.4207
6.53565
6.36656
6.23146
6.31858
6.20015
6.25778
6.16567
6.2103
6.13636
6.17224
6.11216
6.14134
6.09233
6.1161
6.0762
6.09548
6.06323
6.07865
6.05312
6.065
6.04592
6.05409
6.04303
6.04915
6.03762
6.04299
6.03409
6.03769
6.03281
6.03383
6.03453
6.03184
6.04062
6.03226
6.05364
6.0358
6.0786
6.04274
6.12649
6.04831
6.22314
6.0007
6.29312
7.10894
6.42159
7.94781
6.78062
9.89658
9.12589
9.00803
8.98369
8.97845
17.0089
9.75155
11.332
8.77623
9.54685
8.26985
8.67361
7.92515
8.16435
7.68489
7.83193
7.56406
7.67621
7.36882
7.48094
7.18859
7.2939
7.02534
7.12147
6.87888
6.96528
6.74889
6.82564
6.63459
6.70235
6.53452
6.59516
6.44589
6.50821
6.37036
6.25634
6.30422
6.21576
6.24649
6.17755
6.20121
6.14585
6.16486
6.11986
6.13532
6.09862
6.1112
6.08132
6.09153
6.06737
6.07554
6.05641
6.0627
6.0484
6.05274
6.04448
6.04774
6.03909
6.04192
6.03525
6.03714
6.03348
6.03401
6.03452
6.03307
6.03963
6.03516
6.05114
6.04159
6.07356
6.05425
6.11668
6.07389
6.20334
6.07612
6.35162
6.99362
6.62345
7.76512
7.15806
9.50321
9.09972
9.00424
8.98288
8.9782
16.0596
10.5139
11.0998
9.10711
9.42595
8.43277
8.59943
8.01814
8.11589
7.74398
7.80433
7.59566
7.6415
7.40347
7.44843
7.22191
7.26421
7.0561
7.09475
6.90675
6.9415
6.7738
6.80468
6.65661
6.6839
6.55381
6.57839
6.46257
6.48873
6.37317
6.27471
6.29527
6.22658
6.23915
6.18569
6.19526
6.15234
6.16001
6.12513
6.13136
6.10291
6.10798
6.08482
6.08893
6.07021
6.0735
6.05868
6.0612
6.05013
6.05189
6.04546
6.04679
6.0401
6.04122
6.03606
6.03681
6.03398
6.03418
6.03458
6.03398
6.03908
6.03724
6.04965
6.04571
6.07055
6.06249
6.11108
6.09257
6.19381
6.13542
6.39545
6.91881
6.76484
7.6524
7.41743
9.21983
9.06129
8.99752
8.98145
8.97779
15.3322
11.031
10.9707
9.34552
9.35754
8.54928
8.55517
8.08396
8.08621
7.78579
7.78749
7.61708
7.61814
7.42681
7.42678
7.24448
7.24454
7.07698
7.07709
6.9257
6.92581
6.79076
6.79087
6.67161
6.67175
6.56692
6.56723
6.47358
6.47492
6.37529
6.28833
6.2899
6.23415
6.23446
6.19131
6.19141
6.15681
6.15686
6.12875
6.12879
6.10586
6.10589
6.08723
6.08725
6.07216
6.07218
6.06024
6.06025
6.05134
6.05137
6.04613
6.04615
6.04079
6.04078
6.03663
6.03662
6.03435
6.03434
6.03469
6.03466
6.0388
6.03874
6.04881
6.04867
6.06887
6.06847
6.10816
6.10647
6.19066
6.18198
6.42874
6.87108
6.86457
7.58457
7.59531
9.01489
9.01906
8.98891
8.97951
8.97725
14.7767
11.3784
10.9042
9.51845
9.32193
8.63323
8.52999
8.13085
8.06865
7.81551
7.77754
7.63165
7.60248
7.44249
7.41242
7.25975
7.23158
7.09117
7.06549
6.9386
6.91554
6.80232
6.78184
6.68184
6.66379
6.57582
6.55983
6.48079
6.46515
6.37691
6.2984
6.28682
6.23947
6.2315
6.19521
6.18895
6.15989
6.15484
6.13125
6.12714
6.1079
6.10455
6.08889
6.08617
6.07352
6.07134
6.06133
6.05965
6.05219
6.05105
6.04659
6.04574
6.04126
6.0405
6.03703
6.03652
6.03464
6.03448
6.0348
6.03517
6.03869
6.03984
6.04838
6.05083
6.068
6.07284
6.10689
6.11693
6.19122
6.21833
6.45422
6.84131
6.93524
7.54512
7.71683
8.86656
8.9782
8.97946
8.9773
8.97661
14.3572
11.6089
10.8742
9.64381
9.30601
8.69376
8.51665
8.16425
8.05872
7.83663
7.7719
7.64154
7.59205
7.45297
7.40296
7.27003
7.22311
7.10076
7.05794
6.94734
6.90886
6.81016
6.77599
6.68878
6.65864
6.58183
6.55495
6.48546
6.45829
6.37813
6.30579
6.28517
6.24322
6.22967
6.1979
6.18739
6.16201
6.15356
6.13296
6.12609
6.1093
6.1037
6.09003
6.08549
6.07445
6.07082
6.06209
6.05929
6.05279
6.05087
6.04691
6.04547
6.04159
6.04032
6.03732
6.03647
6.03485
6.03461
6.03492
6.03555
6.03868
6.04064
6.0482
6.05239
6.06763
6.07604
6.10658
6.12482
6.19367
6.24633
6.47364
6.82327
6.98527
7.5232
7.79923
8.75976
8.94176
8.97015
8.97502
8.97595
14.0477
11.7588
10.8641
9.73346
9.30107
8.73689
8.51032
8.18779
8.05345
7.85144
7.76889
7.6482
7.5852
7.45989
7.39682
7.27688
7.21765
7.10716
7.05309
6.95319
6.9046
6.81543
6.77226
6.69345
6.65535
6.58586
6.55177
6.48844
6.45354
6.37904
6.31111
6.28437
6.24583
6.22858
6.19974
6.18644
6.16345
6.15277
6.13413
6.12544
6.11025
6.10317
6.09081
6.08507
6.07508
6.07049
6.06261
6.05907
6.05321
6.05077
6.04712
6.04529
6.04181
6.04022
6.03752
6.03646
6.03501
6.03471
6.03502
6.03583
6.03871
6.04122
6.04815
6.05351
6.06753
6.07835
6.10677
6.13068
6.19677
6.26734
6.48818
6.81273
7.02026
7.51175
7.85426
8.6841
8.91147
8.96178
8.97291
8.97532
13.8297
11.853
10.8633
9.79518
9.3014
8.76651
8.50782
8.20379
8.05088
7.86148
7.7674
7.65255
7.58085
7.46432
7.39295
7.2813
7.21424
7.11132
7.05008
6.95699
6.90196
6.81885
6.76996
6.69648
6.65331
6.58846
6.54977
6.49028
6.45038
6.37969
6.31479
6.28404
6.24759
6.22795
6.20096
6.18587
6.16441
6.15229
6.13489
6.12505
6.11087
6.10285
6.09132
6.08481
6.0755
6.0703
6.06295
6.05895
6.05349
6.05072
6.04726
6.04518
6.04195
6.04016
6.03766
6.03646
6.03512
6.03479
6.0351
6.03603
6.03875
6.04162
6.04817
6.05428
6.06756
6.07997
6.10713
6.13486
6.19969
6.28234
6.49856
6.80687
7.04389
7.50626
7.88979
8.63254
8.88826
8.95498
8.97114
8.97479
13.6907
11.9076
10.8657
9.83392
9.30337
8.78508
8.50714
8.21374
8.04978
7.86771
7.76674
7.65517
7.57829
7.46694
7.39069
7.28393
7.21227
7.1138
7.04835
6.95927
6.90044
6.8209
6.76863
6.6983
6.65214
6.59002
6.54859
6.49133
6.44844
6.38011
6.3171
6.28394
6.24868
6.22761
6.2017
6.18555
6.16498
6.15202
6.13536
6.12483
6.11125
6.10267
6.09163
6.08467
6.07576
6.0702
6.06316
6.05888
6.05366
6.0507
6.04735
6.04512
6.04204
6.04013
6.03774
6.03646
6.03519
6.03484
6.03516
6.03616
6.0388
6.04187
6.0482
6.05477
6.06763
6.08099
6.10748
6.13755
6.2019
6.29199
6.50527
6.80387
7.05851
7.50393
7.91095
8.60046
8.87261
8.9502
8.96987
8.97441
13.6231
11.9327
10.8677
9.85262
9.30485
8.79403
8.50708
8.21852
8.04939
7.87069
7.7665
7.6564
7.5771
7.46816
7.38965
7.28516
7.21136
7.11496
7.04756
6.96033
6.89975
6.82187
6.76803
6.69916
6.65161
6.59074
6.54805
6.49181
6.44753
6.38032
6.31821
6.28392
6.2492
6.22746
6.20205
6.18541
6.16526
6.1519
6.13558
6.12473
6.11143
6.1026
6.09178
6.08461
6.07588
6.07015
6.06326
6.05886
6.05375
6.05069
6.04739
6.04509
6.04208
6.04011
6.03778
6.03646
6.03523
6.03487
6.03519
6.03622
6.03882
6.04199
6.04822
6.05501
6.06768
6.08148
6.10768
6.13887
6.20308
6.29672
6.50856
6.80262
7.0655
7.50313
7.92081
8.58507
8.86474
8.94774
8.96921
8.97421
-13.763
-11.9575
-10.7285
-9.38927
-8.57887
-7.68702
-7.12507
-6.4732
-6.05816
-5.57606
-5.28261
-4.95696
-4.71933
-4.39078
-4.15508
-3.84333
-3.62547
-3.34422
-3.14993
-2.90174
-2.73115
-2.51425
-2.36542
-2.17639
-2.04634
-1.88034
-1.76375
-1.6097
-1.48724
-1.2995
-1.12372
-1.02507
-0.922677
-0.857309
-0.779162
-0.727009
-0.662485
-0.618932
-0.564541
-0.527705
-0.481578
-0.45033
-0.411207
-0.384765
-0.351771
-0.329645
-0.302331
-0.284429
-0.263017
-0.249803
-0.234902
-0.223927
-0.20864
-0.197625
-0.182997
-0.172749
-0.159486
-0.150313
-0.138585
-0.130539
-0.120338
-0.113419
-0.104787
-0.0991692
-0.0926056
-0.089249
-0.0872045
-0.0906447
-0.104894
-0.138803
-0.228874
-0.374956
-0.529513
-0.815962
-1.11861
-1.62771
-1.84307
-1.90707
-1.92364
-1.92749
-13.8352
-11.9344
-10.7329
-9.36813
-8.58213
-7.67383
-7.12868
-6.46373
-6.06084
-5.56852
-5.2839
-4.95344
-4.72297
-4.38707
-4.15812
-3.83958
-3.62801
-3.34075
-3.15209
-2.89864
-2.73301
-2.51153
-2.36703
-2.17403
-2.04778
-1.87837
-1.76525
-1.60844
-1.48985
-1.29903
-1.12064
-1.02522
-0.921199
-0.857823
-0.778124
-0.727506
-0.661649
-0.619367
-0.563841
-0.528079
-0.480985
-0.450647
-0.410702
-0.385029
-0.351338
-0.329854
-0.301956
-0.28457
-0.262691
-0.249872
-0.234746
-0.224101
-0.20847
-0.19777
-0.182823
-0.17287
-0.159323
-0.150416
-0.138439
-0.130626
-0.120207
-0.113489
-0.104668
-0.0992078
-0.092478
-0.0891971
-0.0869858
-0.0902129
-0.104109
-0.136557
-0.226634
-0.374618
-0.524238
-0.815314
-1.11035
-1.63946
-1.84912
-1.90896
-1.92414
-1.92764
-13.9835
-11.8834
-10.7438
-9.32384
-8.59029
-7.64612
-7.13708
-6.44378
-6.06711
-5.55267
-5.28703
-4.94593
-4.73083
-4.37909
-4.16476
-3.83155
-3.63358
-3.33333
-3.15685
-2.89203
-2.73711
-2.50574
-2.37059
-2.16901
-2.05096
-1.87415
-1.7685
-1.60566
-1.49536
-1.29806
-1.11424
-1.02572
-0.918098
-0.858992
-0.775926
-0.728615
-0.659871
-0.620335
-0.562352
-0.528908
-0.479724
-0.45135
-0.409627
-0.385615
-0.350419
-0.330321
-0.301162
-0.284893
-0.262003
-0.250034
-0.234413
-0.224475
-0.208104
-0.198087
-0.18245
-0.173137
-0.158976
-0.150643
-0.138127
-0.130818
-0.11993
-0.113643
-0.104414
-0.099298
-0.0922132
-0.0891033
-0.0865502
-0.089355
-0.102581
-0.132007
-0.222078
-0.374214
-0.513304
-0.814508
-1.09272
-1.66398
-1.86117
-1.91265
-1.92512
-1.92794
-14.2157
-11.794
-10.766
-9.25209
-8.60687
-7.60101
-7.15285
-6.41117
-6.0789
-5.52688
-5.29319
-4.93339
-4.74416
-4.36562
-4.17615
-3.81813
-3.64325
-3.32098
-3.16514
-2.88103
-2.74426
-2.4961
-2.3768
-2.16066
-2.05648
-1.86708
-1.77405
-1.60077
-1.50435
-1.29656
-1.10403
-1.02698
-0.913059
-0.861123
-0.772301
-0.730584
-0.656928
-0.622043
-0.559884
-0.530368
-0.477632
-0.452589
-0.407846
-0.38665
-0.348897
-0.331153
-0.299854
-0.285483
-0.26088
-0.250344
-0.233853
-0.225109
-0.207486
-0.19863
-0.181826
-0.173598
-0.158397
-0.151038
-0.137608
-0.131154
-0.119469
-0.113916
-0.103997
-0.0994677
-0.0917902
-0.0889879
-0.085901
-0.0880809
-0.100407
-0.125031
-0.21504
-0.374332
-0.495886
-0.814621
-1.06338
-1.70347
-1.87905
-1.91789
-1.92648
-1.92834
-14.5449
-11.6488
-10.8076
-9.14561
-8.63789
-7.5336
-7.18037
-6.3622
-6.09948
-5.48836
-5.30439
-4.91402
-4.76508
-4.34459
-4.19429
-3.79738
-3.65882
-3.30196
-3.17857
-2.86415
-2.75588
-2.48131
-2.3869
-2.14782
-2.06542
-1.85617
-1.7828
-1.59282
-1.5178
-1.29445
-1.08921
-1.02973
-0.905544
-0.864732
-0.766793
-0.733833
-0.652437
-0.624844
-0.556113
-0.53276
-0.474435
-0.454618
-0.405125
-0.38835
-0.346576
-0.332528
-0.29787
-0.286483
-0.259196
-0.250894
-0.232985
-0.226098
-0.206518
-0.199492
-0.18086
-0.17434
-0.157505
-0.151678
-0.136811
-0.131701
-0.118764
-0.114364
-0.103366
-0.0997641
-0.091173
-0.0888846
-0.0850418
-0.0864017
-0.0977406
-0.11544
-0.205231
-0.37596
-0.470581
-0.817534
-1.01838
-1.76154
-1.90239
-1.92434
-1.92811
-1.92882
-14.9899
-11.4214
-10.882
-8.99296
-8.69278
-7.43614
-7.22649
-6.29101
-6.134
-5.43277
-5.32386
-4.88501
-4.79685
-4.31275
-4.2223
-3.7663
-3.68312
-3.27362
-3.19965
-2.83901
-2.77416
-2.45932
-2.40278
-2.12873
-2.07944
-1.83983
-1.79623
-1.58027
-1.53718
-1.29161
-1.06856
-1.03506
-0.894697
-0.870628
-0.75869
-0.739023
-0.645796
-0.629293
-0.550529
-0.536553
-0.469699
-0.457836
-0.401097
-0.391051
-0.343149
-0.334729
-0.294958
-0.288121
-0.256755
-0.251829
-0.231677
-0.227597
-0.205049
-0.200819
-0.17941
-0.175495
-0.156174
-0.15268
-0.135625
-0.132561
-0.117718
-0.115078
-0.102439
-0.100261
-0.0903045
-0.0888443
-0.0839752
-0.0843239
-0.0948208
-0.102966
-0.192185
-0.380632
-0.435183
-0.82629
-0.951696
-1.8437
-1.93049
-1.93152
-1.92986
-1.92933
-15.5776
-11.0729
-11.0105
-8.77676
-8.78593
-7.29682
-7.30165
-6.18868
-6.1903
-5.35348
-5.35653
-4.84197
-4.84447
-4.26518
-4.26494
-3.72031
-3.72049
-3.23186
-3.2322
-2.80206
-2.80244
-2.427
-2.42738
-2.10065
-2.10107
-1.81564
-1.81655
-1.56081
-1.56467
-1.28788
-1.04033
-1.04467
-0.879201
-0.880042
-0.746898
-0.747157
-0.636088
-0.636235
-0.542355
-0.542463
-0.462766
-0.462851
-0.395203
-0.395268
-0.338143
-0.338186
-0.290729
-0.290741
-0.253257
-0.253375
-0.229728
-0.229836
-0.202849
-0.202835
-0.177262
-0.177268
-0.154211
-0.154225
-0.13388
-0.133894
-0.116186
-0.116192
-0.101095
-0.10107
-0.0890969
-0.0889411
-0.0827006
-0.0818409
-0.0919956
-0.08725
-0.175171
-0.39066
-0.386322
-0.845674
-0.854342
-1.95807
-1.96202
-1.93881
-1.93156
-1.92982
-16.3455
-10.5467
-11.2257
-8.47084
-8.93902
-7.09774
-7.42153
-6.04178
-6.28014
-5.2406
-5.4099
-4.77826
-4.91537
-4.19445
-4.32936
-3.65254
-3.77741
-3.17054
-3.28197
-2.74788
-2.84575
-2.37965
-2.46506
-2.05948
-2.13414
-1.78001
-1.84715
-1.53097
-1.60339
-1.28299
-1.00202
-1.06108
-0.857055
-0.894818
-0.729772
-0.759746
-0.621934
-0.646941
-0.530424
-0.551567
-0.452643
-0.470577
-0.386603
-0.401775
-0.330853
-0.343545
-0.284604
-0.294863
-0.248256
-0.255872
-0.22683
-0.23316
-0.199571
-0.205875
-0.174092
-0.179965
-0.151326
-0.156586
-0.131321
-0.135937
-0.113945
-0.117911
-0.0991482
-0.102357
-0.0874173
-0.089282
-0.0812114
-0.078918
-0.089767
-0.0678276
-0.153054
-0.409482
-0.318914
-0.883086
-0.713187
-2.11643
-1.99464
-1.94546
-1.93305
-1.93023
-17.3454
-9.76143
-11.5784
-8.03602
-9.18449
-6.81206
-7.60956
-5.83016
-6.4211
-5.07938
-5.49532
-4.6838
-5.0206
-4.08949
-4.42626
-3.5527
-3.8636
-3.08049
-3.35757
-2.66844
-2.91163
-2.31025
-2.52238
-1.99911
-2.18437
-1.72754
-1.89308
-1.48559
-1.65782
-1.27652
-0.950124
-1.08802
-0.825241
-0.917709
-0.704849
-0.77905
-0.60127
-0.663309
-0.512989
-0.565476
-0.437848
-0.482381
-0.374038
-0.411728
-0.32022
-0.35177
-0.275711
-0.301261
-0.241088
-0.259838
-0.222519
-0.238082
-0.194699
-0.210439
-0.169416
-0.184043
-0.147086
-0.160169
-0.127569
-0.139044
-0.110667
-0.12054
-0.0963238
-0.104372
-0.0850663
-0.090021
-0.0794919
-0.0754701
-0.0888506
-0.0441191
-0.124089
-0.442184
-0.225317
-0.949861
-0.509105
-2.3358
-2.02435
-1.95063
-1.93415
-1.93054
-18.6489
-8.6004
-12.1457
-7.41387
-9.57112
-6.39992
-7.90099
-5.52404
-6.63969
-4.84817
-5.63016
-4.54373
-5.17686
-3.93412
-4.57188
-3.40579
-3.99386
-2.94834
-3.47211
-2.55198
-3.01157
-2.20858
-2.60939
-1.91066
-2.26054
-1.6504
-1.96217
-1.41725
-1.73462
-1.26806
-0.879841
-1.13117
-0.779391
-0.952988
-0.668603
-0.808594
-0.57116
-0.68832
-0.487577
-0.586726
-0.416292
-0.500426
-0.355747
-0.426963
-0.304769
-0.364405
-0.262852
-0.311184
-0.230852
-0.266135
-0.216177
-0.245446
-0.18754
-0.217353
-0.162588
-0.190258
-0.140912
-0.165646
-0.122115
-0.143808
-0.105916
-0.124589
-0.0922606
-0.107532
-0.0817921
-0.0914267
-0.0775545
-0.0713685
-0.0902952
-0.0154593
-0.0856257
-0.496296
-0.0940752
-1.06324
-0.214319
-2.64066
-2.04452
-1.95349
-1.93471
-1.93067
18.6489
8.6004
12.1457
7.41387
9.57112
6.39991
7.90098
5.52404
6.63969
4.84817
5.63016
4.54373
5.17686
3.93412
4.57188
3.40579
3.99386
2.94834
3.47211
2.55198
3.01157
2.20857
2.60939
1.91066
2.26054
1.6504
1.96217
1.41725
1.73462
1.26806
0.87984
1.13117
0.779389
0.952987
0.668602
0.808593
0.57116
0.68832
0.487576
0.586725
0.416291
0.500425
0.355746
0.426962
0.304769
0.364405
0.262851
0.311184
0.230852
0.266135
0.216177
0.245446
0.18754
0.217353
0.162588
0.190258
0.140912
0.165646
0.122115
0.143808
0.105916
0.124589
0.0922605
0.107532
0.081792
0.0914267
0.0775543
0.0713686
0.090295
0.0154593
0.0856254
0.496296
0.094075
1.06324
0.214319
2.64065
2.04452
1.95349
1.93471
1.93067
17.3454
9.76143
11.5784
8.03602
9.18449
6.81207
7.60956
5.83016
6.4211
5.07938
5.49533
4.6838
5.0206
4.08949
4.42626
3.5527
3.8636
3.0805
3.35757
2.66844
2.91163
2.31025
2.52238
1.99912
2.18438
1.72754
1.89308
1.48559
1.65782
1.27652
0.950126
1.08802
0.825243
0.917711
0.70485
0.779052
0.601271
0.663311
0.51299
0.565478
0.43785
0.482382
0.374039
0.411729
0.320221
0.351771
0.275712
0.301262
0.241089
0.259839
0.22252
0.238083
0.194699
0.21044
0.169417
0.184044
0.147087
0.16017
0.12757
0.139045
0.110668
0.120541
0.0963245
0.104372
0.0850669
0.0900217
0.0794924
0.0754706
0.088851
0.0441196
0.124089
0.442185
0.225318
0.949861
0.509105
2.33579
2.02435
1.95063
1.93415
1.93054
16.3455
10.5467
11.2258
8.47085
8.93903
7.09775
7.42154
6.04179
6.28015
5.24061
5.40991
4.77827
4.91538
4.19445
4.32937
3.65254
3.77741
3.17055
3.28198
2.74789
2.84576
2.37966
2.46506
2.05949
2.13415
1.78002
1.84715
1.53098
1.60339
1.28299
1.00203
1.06109
0.857059
0.894822
0.729776
0.75975
0.621937
0.646944
0.530427
0.55157
0.452646
0.470579
0.386605
0.401778
0.330855
0.343547
0.284606
0.294865
0.248258
0.255874
0.226832
0.233162
0.199573
0.205877
0.174093
0.179967
0.151328
0.156588
0.131323
0.135938
0.113947
0.117912
0.0991495
0.102359
0.0874185
0.0892832
0.0812125
0.078919
0.0897679
0.0678284
0.153054
0.409483
0.318915
0.883087
0.713187
2.11643
1.99464
1.94545
1.93305
1.93023
15.5776
11.0729
11.0105
8.77676
8.78594
7.29683
7.30166
6.18869
6.19031
5.35349
5.35653
4.84198
4.84448
4.26519
4.26495
3.72032
3.72049
3.23186
3.23221
2.80207
2.80244
2.42701
2.42738
2.10065
2.10108
1.81565
1.81656
1.56082
1.56468
1.28789
1.04033
1.04468
0.879206
0.880046
0.746902
0.747161
0.636092
0.636239
0.542358
0.542466
0.462769
0.462854
0.395206
0.395271
0.338146
0.338189
0.290732
0.290743
0.253259
0.253377
0.229731
0.229838
0.202851
0.202837
0.177264
0.17727
0.154213
0.154227
0.133882
0.133896
0.116187
0.116193
0.101096
0.101071
0.0890982
0.0889424
0.0827018
0.0818421
0.0919967
0.0872509
0.175172
0.390661
0.386323
0.845675
0.854343
1.95807
1.96202
1.93881
1.93156
1.92982
14.9899
11.4215
10.882
8.99297
8.69279
7.43615
7.2265
6.29101
6.13401
5.43277
5.32387
4.88502
4.79686
4.31276
4.22231
3.76631
3.68313
3.27363
3.19966
2.83902
2.77417
2.45933
2.40279
2.12874
2.07945
1.83983
1.79624
1.58028
1.53719
1.29162
1.06856
1.03507
0.894702
0.870633
0.758694
0.739027
0.6458
0.629297
0.550532
0.536556
0.469702
0.457839
0.4011
0.391054
0.343151
0.334732
0.29496
0.288123
0.256757
0.251831
0.23168
0.227599
0.205051
0.200822
0.179412
0.175498
0.156176
0.152682
0.135627
0.132563
0.11772
0.115079
0.10244
0.100263
0.0903059
0.0888457
0.0839765
0.0843252
0.0948219
0.102967
0.192186
0.380633
0.435184
0.826291
0.951697
1.8437
1.93049
1.93152
1.92986
1.92933
14.5449
11.6488
10.8076
9.14562
8.6379
7.53361
7.18038
6.3622
6.09949
5.48837
5.3044
4.91403
4.76508
4.3446
4.1943
3.79738
3.65883
3.30197
3.17858
2.86415
2.75589
2.48132
2.38691
2.14783
2.06543
1.85618
1.78281
1.59283
1.5178
1.29445
1.08921
1.02973
0.905549
0.864736
0.766798
0.733838
0.652441
0.624848
0.556116
0.532764
0.474438
0.454621
0.405128
0.388353
0.346579
0.332531
0.297873
0.286485
0.259199
0.250896
0.232987
0.226101
0.20652
0.199494
0.180862
0.174342
0.157507
0.15168
0.136813
0.131703
0.118766
0.114366
0.103367
0.0997657
0.0911745
0.0888861
0.0850431
0.086403
0.0977418
0.115441
0.205233
0.375961
0.470582
0.817535
1.01839
1.76154
1.90239
1.92434
1.92811
1.92882
14.2157
11.794
10.766
9.2521
8.60688
7.60102
7.15286
6.41118
6.07891
5.52689
5.2932
4.9334
4.74417
4.36563
4.17616
3.81813
3.64326
3.32098
3.16515
2.88104
2.74427
2.49611
2.37681
2.16066
2.05649
1.86709
1.77405
1.60078
1.50435
1.29656
1.10404
1.02699
0.913064
0.861127
0.772305
0.730588
0.656932
0.622047
0.559888
0.530372
0.477635
0.452592
0.407849
0.386653
0.3489
0.331155
0.299857
0.285485
0.260883
0.250347
0.233855
0.225111
0.207488
0.198632
0.181828
0.1736
0.158399
0.15104
0.13761
0.131156
0.119471
0.113918
0.103999
0.0994692
0.0917917
0.0889893
0.0859023
0.0880822
0.100408
0.125032
0.215042
0.374333
0.495887
0.814623
1.06338
1.70347
1.87905
1.91789
1.92648
1.92834
13.9835
11.8834
10.7438
9.32384
8.59029
7.64613
7.13708
6.44379
6.06712
5.55268
5.28704
4.94594
4.73084
4.3791
4.16476
3.83156
3.63359
3.33334
3.15686
2.89204
2.73711
2.50574
2.37059
2.16902
2.05096
1.87415
1.76851
1.60566
1.49536
1.29807
1.11424
1.02572
0.918103
0.858997
0.77593
0.728619
0.659875
0.620339
0.562356
0.528911
0.479727
0.451353
0.40963
0.385618
0.350422
0.330324
0.301164
0.284896
0.262006
0.250037
0.234415
0.224478
0.208107
0.198089
0.182452
0.173139
0.158978
0.150645
0.138129
0.13082
0.119931
0.113645
0.104416
0.0992995
0.0922146
0.0891047
0.0865515
0.0893563
0.102583
0.132008
0.22208
0.374215
0.513305
0.814509
1.09273
1.66398
1.86117
1.91265
1.92512
1.92794
13.8352
11.9344
10.7329
9.36814
8.58213
7.67384
7.12868
6.46373
6.06085
5.56853
5.28391
4.95345
4.72298
4.38708
4.15813
3.83959
3.62802
3.34076
3.1521
2.89865
2.73302
2.51154
2.36704
2.17404
2.04779
1.87837
1.76525
1.60845
1.48986
1.29904
1.12064
1.02522
0.921204
0.857827
0.778128
0.72751
0.661653
0.619371
0.563844
0.528082
0.480988
0.45065
0.410704
0.385032
0.351341
0.329857
0.301958
0.284573
0.262693
0.249874
0.234749
0.224103
0.208472
0.197772
0.182825
0.172872
0.159325
0.150418
0.138441
0.130627
0.120209
0.11349
0.104669
0.0992093
0.0924794
0.0891985
0.0869871
0.0902142
0.10411
0.136559
0.226636
0.374619
0.524239
0.815316
1.11035
1.63946
1.84913
1.90897
1.92414
1.92764
13.763
11.9575
10.7285
9.38928
8.57887
7.68703
7.12508
6.4732
6.05816
5.57607
5.28262
4.95697
4.71933
4.39079
4.15508
3.84334
3.62548
3.34423
3.14994
2.90175
2.73116
2.51426
2.36543
2.1764
2.04635
1.88035
1.76375
1.60971
1.48724
1.29951
1.12372
1.02507
0.922682
0.857313
0.779165
0.727013
0.662489
0.618935
0.564544
0.527708
0.481581
0.450333
0.41121
0.384768
0.351774
0.329647
0.302333
0.284431
0.26302
0.249805
0.234904
0.223929
0.208642
0.197627
0.182999
0.17275
0.159487
0.150315
0.138587
0.13054
0.120339
0.113421
0.104789
0.0991706
0.0926069
0.0892502
0.0872057
0.0906459
0.104896
0.138805
0.228876
0.374958
0.529515
0.815963
1.11861
1.62771
1.84307
1.90707
1.92364
1.92749
-13.6266
-11.9376
-10.8746
-9.86315
-9.31954
-8.8167
-8.53884
-8.26768
-8.11713
-7.96837
-7.86578
-7.72997
-7.63428
-7.5096
-7.42261
-7.31027
-7.23215
-7.13152
-7.06169
-6.97199
-6.90993
-6.83047
-6.77567
-6.70572
-6.6575
-6.59586
-6.55267
-6.49582
-6.45109
-6.38325
-6.32058
-6.286
-6.25099
-6.22907
-6.20346
-6.1867
-6.16639
-6.15294
-6.13649
-6.12557
-6.11217
-6.10327
-6.09238
-6.08516
-6.07637
-6.0706
-6.06366
-6.05923
-6.05408
-6.051
-6.04768
-6.04536
-6.04233
-6.04034
-6.03799
-6.03666
-6.0354
-6.03503
-6.03533
-6.03636
-6.03894
-6.0421
-6.04832
-6.0551
-6.06776
-6.08156
-6.10774
-6.13893
-6.20313
-6.29677
-6.5086
-6.80265
-7.06553
-7.50316
-7.92084
-8.5851
-8.86476
-8.94776
-8.96924
-8.97423
-13.6942
-11.9126
-10.8725
-9.84444
-9.3179
-8.8077
-8.53857
-8.26285
-8.11705
-7.96652
-7.86711
-7.72836
-7.63544
-7.50809
-7.42362
-7.30891
-7.23305
-7.13029
-7.06249
-6.97088
-6.91062
-6.82948
-6.77627
-6.70485
-6.65803
-6.59512
-6.55322
-6.49533
-6.45202
-6.38304
-6.31946
-6.28601
-6.25046
-6.22922
-6.20311
-6.18684
-6.16612
-6.15306
-6.13627
-6.12566
-6.11199
-6.10335
-6.09223
-6.08523
-6.07625
-6.07065
-6.06356
-6.05926
-6.054
-6.05101
-6.04764
-6.04539
-6.04229
-6.04036
-6.03795
-6.03665
-6.03537
-6.03501
-6.0353
-6.03629
-6.03891
-6.04198
-6.0483
-6.05486
-6.06771
-6.08106
-6.10754
-6.13761
-6.20195
-6.29204
-6.50531
-6.8039
-7.05854
-7.50396
-7.91098
-8.60048
-8.87263
-8.95022
-8.96989
-8.97443
-13.833
-11.8579
-10.87
-9.80566
-9.31562
-8.78906
-8.53857
-8.25283
-8.11717
-7.96263
-7.87001
-7.72493
-7.63797
-7.50486
-7.42585
-7.30598
-7.23502
-7.12765
-7.06424
-6.96852
-6.91215
-6.82737
-6.77761
-6.70299
-6.65921
-6.59354
-6.5544
-6.49427
-6.45397
-6.38262
-6.31713
-6.28611
-6.24937
-6.22956
-6.20236
-6.18716
-6.16553
-6.15333
-6.1358
-6.12589
-6.11161
-6.10353
-6.09192
-6.08537
-6.07599
-6.07075
-6.06335
-6.05932
-6.05382
-6.05103
-6.04755
-6.04546
-6.0422
-6.04039
-6.03787
-6.03665
-6.03529
-6.03495
-6.03524
-6.03616
-6.03887
-6.04173
-6.04827
-6.05437
-6.06765
-6.08004
-6.1072
-6.13492
-6.19974
-6.28239
-6.49861
-6.80691
-7.04392
-7.50629
-7.88981
-8.63256
-8.88828
-8.955
-8.97116
-8.97481
-14.0508
-11.7637
-10.8705
-9.74391
-9.31479
-8.75937
-8.53997
-8.2368
-8.11804
-7.95626
-7.87501
-7.71916
-7.64236
-7.49947
-7.4297
-7.3011
-7.23845
-7.12326
-7.06727
-6.96458
-6.91482
-6.82387
-6.77993
-6.6999
-6.66127
-6.5909
-6.55642
-6.4924
-6.45716
-6.38196
-6.31342
-6.28644
-6.24759
-6.2302
-6.20113
-6.18773
-6.16458
-6.15381
-6.13503
-6.12628
-6.11098
-6.10385
-6.0914
-6.08562
-6.07557
-6.07095
-6.063
-6.05945
-6.05354
-6.05109
-6.04741
-6.04557
-6.04205
-6.04045
-6.03773
-6.03665
-6.03518
-6.03487
-6.03516
-6.03597
-6.03883
-6.04133
-6.04825
-6.0536
-6.06761
-6.07843
-6.10683
-6.13074
-6.19682
-6.26739
-6.48822
-6.81276
-7.02029
-7.51178
-7.85428
-8.68412
-8.91149
-8.9618
-8.97293
-8.97534
-14.3601
-11.6138
-10.8803
-9.65427
-9.31902
-8.71624
-8.54473
-8.2134
-8.12063
-7.94666
-7.88299
-7.71023
-7.64938
-7.49116
-7.43591
-7.29358
-7.24398
-7.1165
-7.07218
-6.95853
-6.91913
-6.81848
-6.7837
-6.69516
-6.66459
-6.58683
-6.55963
-6.48939
-6.46194
-6.38103
-6.30805
-6.28725
-6.24496
-6.2313
-6.19928
-6.18869
-6.16312
-6.15461
-6.13386
-6.12694
-6.11002
-6.10439
-6.09062
-6.08605
-6.07493
-6.07127
-6.06248
-6.05966
-6.05312
-6.05119
-6.04719
-6.04574
-6.04183
-6.04055
-6.03753
-6.03667
-6.03502
-6.03477
-6.03506
-6.03568
-6.03879
-6.04075
-6.0483
-6.05248
-6.06771
-6.07611
-6.10665
-6.12488
-6.19373
-6.24638
-6.47369
-6.8233
-6.9853
-7.52323
-7.79926
-8.75978
-8.94178
-8.97017
-8.97504
-8.97597
-14.7793
-11.3833
-10.9098
-9.52899
-9.33394
-8.65586
-8.55587
-8.18045
-8.12647
-7.93265
-7.89534
-7.69683
-7.6603
-7.47872
-7.4456
-7.28235
-7.25263
-7.10641
-7.07986
-6.9495
-6.9259
-6.81045
-6.78962
-6.68809
-6.6698
-6.58072
-6.56455
-6.48466
-6.46887
-6.37979
-6.30059
-6.28891
-6.24118
-6.23314
-6.19657
-6.19026
-6.16098
-6.1559
-6.13213
-6.12799
-6.10862
-6.10524
-6.08947
-6.08673
-6.07399
-6.0718
-6.06172
-6.06003
-6.05252
-6.05137
-6.04688
-6.04602
-6.0415
-6.04073
-6.03724
-6.03672
-6.0348
-6.03465
-6.03494
-6.0353
-6.03881
-6.03995
-6.04848
-6.05092
-6.06808
-6.07291
-6.10695
-6.11699
-6.19127
-6.21838
-6.45426
-6.84134
-6.93527
-7.54515
-7.71686
-8.86658
-8.97822
-8.97948
-8.97732
-8.97663
-15.3343
-11.0359
-10.9757
-9.35629
-9.36819
-8.57235
-8.57803
-8.13465
-8.1379
-7.91239
-7.91413
-7.67694
-7.67701
-7.46035
-7.4605
-7.26577
-7.26593
-7.09154
-7.09168
-6.9362
-6.93633
-6.79864
-6.79877
-6.6777
-6.67784
-6.57171
-6.57202
-6.47737
-6.47873
-6.37815
-6.29042
-6.29201
-6.23581
-6.23612
-6.19264
-6.19274
-6.15788
-6.15793
-6.12962
-6.12965
-6.10657
-6.1066
-6.0878
-6.08782
-6.07263
-6.07264
-6.06062
-6.06063
-6.05166
-6.05169
-6.04641
-6.04643
-6.04102
-6.04101
-6.03683
-6.03682
-6.03452
-6.0345
-6.03482
-6.03479
-6.03891
-6.03885
-6.0489
-6.04877
-6.06894
-6.06854
-6.10822
-6.10653
-6.19071
-6.18204
-6.42879
-6.87111
-6.8646
-7.5846
-7.59533
-9.01491
-9.01908
-8.98893
-8.97954
-8.97727
-16.0612
-10.519
-11.1039
-9.11833
-9.43474
-8.45679
-8.61816
-8.07097
-8.15848
-7.88303
-7.94247
-7.64757
-7.7024
-7.4333
-7.48319
-7.2414
-7.28622
-7.06968
-7.10974
-6.91668
-6.95228
-6.78132
-6.81276
-6.66245
-6.69013
-6.55843
-6.58329
-6.46624
-6.49266
-6.376
-6.27669
-6.29743
-6.22818
-6.24085
-6.18698
-6.19662
-6.15338
-6.1611
-6.12597
-6.13224
-6.10359
-6.1087
-6.08537
-6.08951
-6.07066
-6.07397
-6.05905
-6.06159
-6.05044
-6.05221
-6.04574
-6.04707
-6.04033
-6.04146
-6.03625
-6.03701
-6.03414
-6.03435
-6.03472
-6.03412
-6.03919
-6.03735
-6.04974
-6.0458
-6.07063
-6.06257
-6.11114
-6.09264
-6.19386
-6.13547
-6.39549
-6.91884
-6.76487
-7.65242
-7.41746
-9.21985
-9.06131
-8.99755
-8.98147
-8.97782
-17.0098
-9.75708
-11.3349
-8.78829
-9.55307
-8.29564
-8.68662
-7.98191
-8.19358
-7.84027
-7.985
-7.6042
-7.74074
-7.39349
-7.51755
-7.20557
-7.31696
-7.03756
-7.13711
-6.88801
-6.97649
-6.7559
-6.83402
-6.64009
-6.7088
-6.53889
-6.60024
-6.44937
-6.51232
-6.37315
-6.25815
-6.30644
-6.21727
-6.24824
-6.17877
-6.20261
-6.14684
-6.16599
-6.12066
-6.13623
-6.09927
-6.11194
-6.08185
-6.09213
-6.0678
-6.07602
-6.05677
-6.0631
-6.0487
-6.05307
-6.04475
-6.04803
-6.03932
-6.04217
-6.03544
-6.03735
-6.03364
-6.03418
-6.03465
-6.03322
-6.03974
-6.03528
-6.05122
-6.04169
-6.07363
-6.05433
-6.11674
-6.07396
-6.20339
-6.07617
-6.35166
-6.99365
-6.62348
-7.76514
-7.15809
-9.50323
-9.09975
-9.00426
-8.9829
-8.97822
-18.2485
-8.64183
-11.7308
-8.32574
-9.75223
-8.06851
-8.79886
-7.85614
-8.25123
-7.77754
-8.04848
-7.54008
-7.79839
-7.33478
-7.56929
-7.15275
-7.36328
-6.99023
-7.17838
-6.84579
-7.01301
-6.71848
-6.86612
-6.60717
-6.73696
-6.51006
-6.62563
-6.42391
-6.54002
-6.3693
-6.23305
-6.32092
-6.20153
-6.25962
-6.1668
-6.21176
-6.13727
-6.17343
-6.1129
-6.14229
-6.09294
-6.11688
-6.07669
-6.09611
-6.06363
-6.07916
-6.05345
-6.06542
-6.0462
-6.05442
-6.04329
-6.04946
-6.03783
-6.04324
-6.03426
-6.03791
-6.03296
-6.03401
-6.03465
-6.03199
-6.04072
-6.03239
-6.05372
-6.03591
-6.07867
-6.04282
-6.12655
-6.04838
-6.22318
-6.00076
-6.29316
-7.10896
-6.42163
-7.94784
-6.78065
-9.8966
-9.12591
-9.00805
-8.98372
-8.97848
)
;

boundaryField
{
    F1_1
    {
        type            calculated;
        value           nonuniform List<scalar> 
80
(
18.9506
7.97333
11.9791
8.04085
9.87582
7.9046
8.86785
7.71458
8.28873
7.55112
7.90315
7.48919
7.75836
7.28655
7.55871
7.10991
7.36523
6.95286
7.18584
6.81332
7.02265
6.69034
6.87627
6.58286
6.74688
6.48907
6.63534
6.40555
6.5517
6.36437
6.21713
6.32739
6.19091
6.26461
6.15862
6.21577
6.13071
6.17669
6.10757
6.14496
6.08859
6.11905
6.07315
6.09786
6.06076
6.08053
6.05117
6.06639
6.04445
6.0549
6.04216
6.05
6.03674
6.04363
6.0334
6.03802
6.03242
6.03374
6.03455
6.03112
6.04124
6.03057
6.05519
6.03241
6.08174
6.03601
6.13267
6.03347
6.23617
5.95848
6.25959
7.17871
6.30273
8.06043
6.55697
10.1254
9.13458
9.00907
8.98394
8.97855
)
;
    }
    F1_2
    {
        type            calculated;
        value           nonuniform List<scalar> 
80
(
-19.3871
-7.90881
-12.4948
-7.04725
-9.80705
-6.15628
-8.07785
-5.34294
-6.7724
-4.71187
-5.71258
-4.46009
-5.27028
-3.84146
-4.65933
-3.31835
-4.07225
-2.86976
-3.54111
-2.48277
-3.07181
-2.14817
-2.66184
-1.85811
-2.30645
-1.60453
-2.00371
-1.37625
-1.77962
-1.26329
-0.839423
-1.15766
-0.752318
-0.97438
-0.647138
-0.826468
-0.55332
-0.703446
-0.472521
-0.599579
-0.403523
-0.511344
-0.344917
-0.436187
-0.29563