/*--------------------------------*- C++ -*----------------------------------*\
| =========                 |                                                 |
| \\      /  F ield         | OpenFOAM: The Open Source CFD Toolbox           |
|  \\    /   O peration     | Version:  5.x                                   |
|   \\  /    A nd           | Web:      www.OpenFOAM.org                      |
|    \\/     M anipulation  |                                                 |
\*---------------------------------------------------------------------------*/
FoamFile
{
    version     2.0;
    format      ascii;
    class       volScalarField;
    location    "0.5001";
    object      gradTx;
}
// * * * * * * * * * * * * * * * * * * * * * * * * * * * * * * * * * * * * * //

dimensions      [0 -1 0 1 0 0 0];

internalField   nonuniform List<scalar> 
6300
(
-29.8214
-29.8878
-30.02
-30.2166
-30.4754
-30.7936
-31.167
-31.5906
-32.0579
-32.5614
-33.0922
-33.6406
-34.1961
-34.7483
-35.287
-29.7548
-29.8218
-29.9554
-30.1541
-30.4159
-30.7381
-31.1167
-31.5466
-32.0215
-32.5338
-33.0745
-33.6333
-34.1994
-34.7615
-35.3089
-29.6209
-29.6892
-29.8254
-30.0282
-30.296
-30.626
-31.0148
-31.4574
-31.9476
-32.4777
-33.0383
-33.6185
-34.2064
-34.7892
-35.3547
-29.4185
-29.4886
-29.6285
-29.8372
-30.1135
-30.455
-30.8588
-31.3203
-31.8336
-32.3909
-32.9824
-33.596
-34.2181
-34.8338
-35.4282
-29.1457
-29.218
-29.3624
-29.5785
-29.8654
-30.2216
-30.6448
-31.1312
-31.6754
-32.2698
-32.904
-33.5648
-34.2361
-34.8996
-35.5362
-28.8004
-28.8751
-29.0245
-29.2488
-29.5478
-29.9211
-30.3673
-30.8841
-31.4669
-32.1086
-32.7988
-33.5229
-34.2617
-34.9922
-35.6885
-28.3802
-28.4571
-28.6115
-28.8441
-29.1557
-29.5473
-30.0192
-30.5707
-31.1992
-31.8988
-32.6596
-33.466
-34.2955
-35.1186
-35.8997
-27.8828
-27.9616
-28.1202
-28.36
-28.6834
-29.093
-29.5913
-30.1803
-30.86
-31.6275
-32.4746
-33.3857
-34.3355
-35.2867
-36.19
-27.3063
-27.3862
-27.5473
-27.7922
-28.1247
-28.5496
-29.0725
-29.6988
-30.433
-31.2765
-32.2254
-33.2666
-34.3737
-35.5025
-36.586
-26.6496
-26.7293
-26.8904
-27.1366
-27.4734
-27.9082
-28.45
-29.1092
-29.8963
-30.8199
-31.8837
-33.0812
-34.3901
-35.7634
-37.1178
-25.9131
-25.9907
-26.1482
-26.3901
-26.7238
-27.1594
-27.7099
-28.3916
-29.2229
-30.223
-31.4079
-32.7844
-34.3419
-36.0428
-37.8055
-25.0988
-25.172
-25.3212
-25.5517
-25.8722
-26.2954
-26.8385
-27.524
-28.3805
-29.4411
-30.7403
-32.3062
-34.1501
-36.2601
-38.609
-24.2109
-24.2773
-24.4127
-24.623
-24.9178
-25.3114
-25.8243
-26.4854
-27.3338
-28.4203
-29.8057
-31.55
-33.6918
-36.2382
-39.2765
-23.2566
-23.3132
-23.429
-23.6095
-23.8643
-24.2077
-24.6618
-25.2592
-26.0486
-27.1006
-28.5119
-30.3959
-32.8287
-35.7244
-38.9365
-22.2454
-22.2896
-22.3802
-22.5217
-22.7219
-22.9932
-23.3556
-23.8408
-24.5006
-25.4212
-26.7454
-28.6929
-31.5023
-34.894
-35.4274
-35.7625
-36.173
-36.5608
-36.9241
-37.2622
-37.5752
-37.8635
-38.1277
-38.3682
-38.5852
-38.7782
-38.9465
-39.0894
-39.2064
-39.2976
-39.3639
-39.4074
-39.431
-39.4383
-39.4336
-39.4209
-39.404
-39.3856
-39.3676
-39.3506
-39.3341
-39.3169
-39.2973
-39.2735
-39.2443
-39.2091
-39.1683
-39.1232
-39.076
-39.0291
-38.9854
-38.9472
-38.9159
-38.8924
-38.8762
-38.866
-38.8599
-38.8556
-38.8506
-38.8433
-38.8327
-38.8187
-38.8024
-38.7855
-38.7701
-38.7588
-38.7534
-38.7553
-38.7648
-38.7814
-38.8033
-38.8285
-38.8542
-38.878
-38.8979
-38.9127
-38.9222
-38.9272
-38.9292
-38.9304
-38.933
-38.9387
-38.9488
-38.9635
-38.9822
-39.0033
-39.0247
-39.0441
-39.0594
-39.0695
-39.0741
-39.0744
-39.0729
-39.0731
-39.0795
-39.0968
-39.1293
-39.1806
-39.253
-39.347
-39.4612
-39.5922
-39.735
-39.8831
-40.0292
-35.7908
-36.2055
-36.5959
-36.9603
-37.2983
-37.6106
-37.898
-38.1616
-38.4021
-38.6197
-38.8137
-38.9831
-39.1267
-39.2435
-39.3333
-39.3968
-39.4361
-39.4543
-39.4557
-39.4451
-39.4271
-39.4061
-39.3851
-39.3662
-39.3499
-39.3352
-39.3205
-39.3034
-39.2815
-39.2531
-39.2173
-39.1746
-39.1265
-39.0755
-39.0249
-38.9778
-38.9372
-38.905
-38.882
-38.8677
-38.8604
-38.8577
-38.8566
-38.8542
-38.8483
-38.8377
-38.8224
-38.8035
-38.7833
-38.7646
-38.7504
-38.7431
-38.7445
-38.7549
-38.7737
-38.799
-38.8278
-38.8571
-38.8838
-38.9054
-38.9205
-38.9289
-38.9316
-38.9306
-38.9287
-38.9285
-38.9325
-38.9422
-38.9579
-38.9789
-39.003
-39.0277
-39.0499
-39.0671
-39.0774
-39.0803
-39.0771
-39.0704
-39.0643
-39.0639
-39.0748
-39.1021
-39.1502
-39.2219
-39.3179
-39.4369
-39.5752
-39.7273
-39.8858
-40.0426
-35.8499
-36.2729
-36.6681
-37.0342
-37.3715
-37.6816
-37.9666
-38.2286
-38.469
-38.6879
-38.8844
-39.0567
-39.2024
-39.3195
-39.4068
-39.4646
-39.495
-39.5018
-39.4905
-39.4671
-39.4378
-39.408
-39.3818
-39.3613
-39.3468
-39.3366
-39.3277
-39.3164
-39.2989
-39.2725
-39.2357
-39.1888
-39.1339
-39.0747
-39.0155
-38.9611
-38.9153
-38.881
-38.8592
-38.8492
-38.8484
-38.8533
-38.8596
-38.863
-38.8603
-38.8498
-38.8313
-38.8067
-38.7792
-38.7529
-38.7322
-38.7207
-38.7207
-38.7332
-38.7571
-38.7895
-38.8267
-38.864
-38.8971
-38.9225
-38.9381
-38.9439
-38.9413
-38.9335
-38.9244
-38.9182
-38.9183
-38.927
-38.945
-38.9709
-39.002
-39.0342
-39.0631
-39.0847
-39.0959
-39.0956
-39.0848
-39.0669
-39.0471
-39.0321
-39.0291
-39.0451
-39.0859
-39.1556
-39.2556
-39.3846
-39.5385
-39.7103
-39.8911
-40.0705
-35.9444
-36.3802
-36.7821
-37.1494
-37.4836
-37.7885
-38.0682
-38.3268
-38.5666
-38.7882
-38.99
-39.1685
-39.3194
-39.4384
-39.5228
-39.5718
-39.5877
-39.5756
-39.5427
-39.4976
-39.4492
-39.4048
-39.3702
-39.3478
-39.3375
-39.3361
-39.3385
-39.3383
-39.3295
-39.3071
-39.2688
-39.2146
-39.1479
-39.0739
-38.9996
-38.932
-38.8772
-38.8392
-38.8197
-38.8175
-38.8286
-38.8473
-38.8669
-38.8808
-38.8839
-38.8734
-38.8493
-38.8143
-38.7735
-38.7335
-38.701
-38.6817
-38.6794
-38.6954
-38.7281
-38.7735
-38.8256
-38.8772
-38.9217
-38.9537
-38.9702
-38.971
-38.9587
-38.9383
-38.9162
-38.8988
-38.8918
-38.8987
-38.9206
-38.9556
-38.9993
-39.0455
-39.0871
-39.1172
-39.131
-39.1258
-39.1028
-39.0661
-39.0231
-38.983
-38.9561
-38.9523
-38.9801
-39.0456
-39.1514
-39.2965
-39.4758
-39.6803
-39.8981
-40.1153
-36.0827
-36.5362
-36.9459
-37.3118
-37.638
-37.9315
-38.2003
-38.4517
-38.6903
-38.917
-39.129
-39.32
-39.4821
-39.6072
-39.6895
-39.7267
-39.7209
-39.6792
-39.6124
-39.5332
-39.4546
-39.3879
-39.3409
-39.3172
-39.3155
-39.3304
-39.353
-39.3728
-39.3795
-39.365
-39.3246
-39.2588
-39.1723
-39.0739
-38.9743
-38.8848
-38.8148
-38.771
-38.7557
-38.7667
-38.798
-38.8402
-38.8825
-38.9144
-38.9274
-38.917
-38.8831
-38.8303
-38.767
-38.7036
-38.651
-38.6183
-38.6119
-38.6336
-38.6812
-38.7483
-38.8251
-38.9008
-38.9645
-39.0075
-39.0252
-39.0171
-38.988
-38.9459
-38.9012
-38.8647
-38.8454
-38.849
-38.8774
-38.9278
-38.9932
-39.0636
-39.1274
-39.1735
-39.1932
-39.182
-39.1405
-39.0746
-38.9948
-38.9148
-38.8497
-38.8139
-38.8201
-38.8775
-38.9907
-39.1592
-39.3766
-39.6312
-39.906
-40.1815
-36.2779
-36.7551
-37.1725
-37.5313
-37.8394
-38.1098
-38.3573
-38.5949
-38.8309
-39.0671
-39.2981
-39.5131
-39.6978
-39.8377
-39.9213
-39.9432
-39.9057
-39.8191
-39.6998
-39.5678
-39.443
-39.3425
-39.2781
-39.2548
-39.2698
-39.3136
-39.3717
-39.4263
-39.4604
-39.46
-39.4174
-39.3328
-39.2142
-39.0756
-38.9347
-38.8095
-38.7151
-38.662
-38.6538
-38.687
-38.7518
-38.8331
-38.9133
-38.9752
-39.0049
-38.9946
-38.9443
-38.8618
-38.7607
-38.6584
-38.5724
-38.5176
-38.5039
-38.5348
-38.6066
-38.709
-38.8267
-38.9419
-39.0371
-39.0982
-39.1172
-39.0939
-39.036
-38.9572
-38.8748
-38.806
-38.7658
-38.7637
-38.8028
-38.8785
-38.9801
-39.0912
-39.1933
-39.2678
-39.3
-39.2818
-39.2132
-39.103
-38.9669
-38.8254
-38.7009
-38.615
-38.5864
-38.6289
-38.7503
-38.9512
-39.224
-39.5526
-39.9131
-40.2761
-36.5504
-37.0596
-37.4834
-37.8236
-38.0949
-38.3209
-38.5283
-38.7403
-38.9714
-39.2243
-39.4901
-39.7496
-39.978
-40.1492
-40.242
-40.2453
-40.1613
-40.006
-39.8057
-39.592
-39.3963
-39.2451
-39.1565
-39.1372
-39.1825
-39.2766
-39.3953
-39.5097
-39.591
-39.6159
-39.5709
-39.4561
-39.2849
-39.0808
-38.8728
-38.6899
-38.5563
-38.4885
-38.4923
-38.5622
-38.682
-38.8278
-38.9709
-39.0828
-39.1402
-39.1301
-39.0523
-38.92
-38.7564
-38.5899
-38.449
-38.3577
-38.332
-38.3774
-38.4881
-38.6478
-38.832
-39.0121
-39.1591
-39.2496
-39.2702
-39.2207
-39.1142
-38.9741
-38.8286
-38.7065
-38.6315
-38.6194
-38.6752
-38.7922
-38.9531
-39.1321
-39.2988
-39.4229
-39.4795
-39.4541
-39.346
-39.1686
-38.9467
-38.7114
-38.4965
-38.3337
-38.2502
-38.2665
-38.3953
-38.6396
-38.9911
-39.4282
-39.9162
-40.4107
-36.9314
-37.487
-37.9143
-38.2151
-38.4156
-38.5587
-38.6925
-38.858
-39.0801
-39.3631
-39.6909
-40.031
-40.3404
-40.5735
-40.6916
-40.6729
-40.5195
-40.2577
-39.931
-39.5903
-39.2855
-39.0578
-38.9349
-38.9269
-39.0252
-39.2043
-39.4251
-39.6407
-39.8032
-39.8725
-39.825
-39.6607
-39.403
-39.0919
-38.7751
-38.4992
-38.303
-38.2122
-38.236
-38.3655
-38.5752
-38.8265
-39.0735
-39.2689
-39.3731
-39.3632
-39.239
-39.0237
-38.7566
-38.4848
-38.2544
-38.1037
-38.058
-38.1263
-38.2993
-38.5513
-38.8437
-39.13
-39.3627
-39.5019
-39.5243
-39.4297
-39.2412
-38.9986
-38.7491
-38.539
-38.4068
-38.3775
-38.4596
-38.6428
-38.9001
-39.1907
-39.4658
-39.6754
-39.7772
-39.7454
-39.5785
-39.2985
-38.9455
-38.5683
-38.2171
-37.9382
-37.7701
-37.7422
-37.874
-38.1737
-38.6348
-39.2303
-39.91
-40.6041
-37.4687
-38.0991
-38.527
-38.7509
-38.8186
-38.8097
-38.8109
-38.894
-39.1011
-39.4372
-39.874
-40.3565
-40.8126
-41.1633
-41.3382
-41.2944
-41.0338
-40.6029
-40.0762
-39.5371
-39.0637
-38.7198
-38.5479
-38.5633
-38.7517
-39.072
-39.4625
-39.8483
-40.15
-40.2973
-40.2474
-40.0001
-39.5982
-39.1115
-38.6187
-38.194
-37.898
-37.7711
-37.8278
-38.0536
-38.4084
-38.8319
-39.2506
-39.5865
-39.7707
-39.761
-39.5573
-39.202
-38.7638
-38.3204
-37.9454
-37.6986
-37.6202
-37.7245
-37.9968
-38.397
-38.8644
-39.3253
-39.7011
-39.9226
-39.9469
-39.774
-39.4464
-39.0332
-38.613
-38.2597
-38.0338
-37.9754
-38.0984
-38.387
-38.7992
-39.2716
-39.7271
-40.0834
-40.267
-40.2315
-39.9737
-39.5337
-38.9791
-38.3876
-37.8337
-37.3829
-37.0879
-36.988
-37.1109
-37.4754
-38.0848
-38.9112
-39.883
-40.8872
-38.2348
-39.0026
-39.4333
-39.5114
-39.3317
-39.046
-38.8112
-38.7515
-38.936
-39.3664
-39.991
-40.72
-41.4364
-42.0064
-42.2996
-42.228
-41.7932
-41.0862
-40.2394
-39.3893
-38.6554
-38.1342
-37.8911
-37.9509
-38.2884
-38.8385
-39.5068
-40.1772
-40.719
-41.0065
-40.9542
-40.5622
-39.9157
-39.14
-38.3645
-37.7036
-37.2497
-37.0658
-37.1761
-37.5563
-38.1431
-38.8445
-39.547
-40.1227
-40.4478
-40.4383
-40.0944
-39.4999
-38.7785
-38.058
-37.4517
-37.0513
-36.9197
-37.0808
-37.5106
-38.146
-38.8948
-39.6431
-40.2622
-40.6274
-40.6539
-40.3415
-39.7747
-39.0782
-38.3808
-37.7971
-37.4197
-37.3122
-37.4986
-37.9535
-38.6115
-39.3769
-40.1312
-40.74
-41.0725
-41.0378
-40.6312
-39.9337
-39.066
-38.1525
-37.3019
-36.6034
-36.1248
-35.913
-35.9999
-36.4242
-37.2221
-38.3826
-39.8093
-41.3129
-39.333
-40.3911
-40.8472
-40.6431
-39.9971
-39.2089
-38.5592
-38.2573
-38.4166
-39.0158
-39.9578
-41.1012
-42.2712
-43.2479
-43.7861
-43.6846
-42.9447
-41.7706
-40.4076
-39.0739
-37.941
-37.1482
-36.7983
-36.9387
-37.5191
-38.4351
-39.5483
-40.6912
-41.6545
-42.2051
-42.1505
-41.491
-40.4194
-39.1684
-37.9455
-36.9154
-36.2126
-35.9372
-36.1361
-36.7616
-37.7129
-38.8557
-40.0265
-41.02
-41.6069
-41.5976
-40.9924
-39.9808
-38.7921
-37.6314
-36.6619
-36.0173
-35.7977
-36.0505
-36.7286
-37.7319
-38.9261
-40.1473
-41.1891
-41.8201
-41.849
-41.2754
-40.2902
-39.1245
-37.9852
-37.0374
-36.417
-36.2259
-36.5123
-37.2277
-38.2692
-39.4981
-40.7448
-41.7946
-42.4067
-42.3798
-41.7077
-40.5786
-39.2191
-37.8267
-36.5509
-35.5071
-34.7774
-34.4076
-34.4032
-34.8349
-35.8373
-37.4706
-39.6248
-41.9751
-40.883
-42.6461
-43.2117
-42.4109
-40.8671
-39.1722
-37.8062
-37.0986
-37.2638
-38.1715
-39.6342
-41.4442
-43.3844
-45.1205
-46.194
-46.0603
-44.7214
-42.7269
-40.5337
-38.4694
-36.7368
-35.5245
-34.9994
-35.2928
-36.2666
-37.7479
-39.5471
-41.464
-43.1847
-44.2752
-44.2179
-43.0135
-41.1818
-39.1563
-37.2492
-35.6561
-34.5603
-34.1257
-34.4821
-35.4978
-37.0073
-38.8268
-40.7615
-42.5031
-43.6246
-43.6155
-42.4759
-40.7169
-38.7656
-36.93
-35.4043
-34.3714
-33.9957
-34.4081
-35.4785
-37.043
-38.9186
-40.9103
-42.7077
-43.8801
-43.9118
-42.8024
-41.0659
-39.1329
-37.314
-35.8064
-34.7962
-34.4522
-34.9084
-36.0325
-37.6571
-39.594
-41.6419
-43.4796
-44.661
-44.6507
-43.4421
-41.5553
-39.4194
-37.3331
-35.466
-33.9584
-32.9118
-32.3759
-32.1784
-32.4238
-33.544
-35.8083
-39.1579
-43.0511
-42.8754
-46.625
-47.5436
-45.2482
-41.9544
-38.6618
-36.1051
-34.6827
-35.0418
-36.5278
-38.8104
-41.5995
-44.7912
-47.9474
-50.3403
-50.1716
-47.4419
-43.9695
-40.4742
-37.3872
-34.7834
-32.9114
-32.022
-32.6674
-34.2831
-36.6034
-39.3763
-42.5197
-45.6223
-47.9986
-47.9374
-45.4395
-42.2235
-38.9739
-36.101
-33.6808
-31.956
-31.1754
-31.8789
-33.5233
-35.8555
-38.6321
-41.7749
-44.8794
-47.2709
-47.2615
-44.8515
-41.7304
-38.5726
-35.7826
-33.4373
-31.7792
-31.0593
-31.8183
-33.5171
-35.9065
-38.7442
-41.9535
-45.1264
-47.5829
-47.6184
-45.2323
-42.1251
-38.9769
-36.195
-33.859
-32.2164
-31.5262
-32.3427
-34.1167
-36.5953
-39.5298
-42.842
-46.1096
-48.6312
-48.6474
-46.1532
-42.8905
-39.5482
-36.5238
-33.8631
-31.7461
-30.3105
-29.857
-29.3156
-28.7528
-29.6031
-32.5834
-37.9079
-44.8998
-44.3228
-54.6802
-56.5033
-49.523
-43.0394
-37.0917
-32.7701
-29.7014
-31.1967
-33.7369
-37.2573
-41.1751
-46.249
-51.8732
-58.1752
-57.9706
-51.2321
-45.2449
-39.8268
-35.6092
-31.7764
-28.8834
-26.8346
-28.6448
-31.2854
-34.807
-38.6721
-43.6344
-49.106
-55.2321
-55.1657
-48.8999
-43.314
-38.2494
-34.3011
-30.7046
-27.9921
-26.0883
-27.921
-30.5585
-34.0641
-37.9101
-42.844
-48.2826
-54.3747
-54.3647
-48.2515
-42.7969
-37.8505
-33.9949
-30.4813
-27.8361
-25.9938
-27.8752
-30.5614
-34.1247
-38.0348
-43.0495
-48.5769
-54.7723
-54.8121
-48.701
-43.2437
-38.2936
-34.4339
-30.9136
-28.2649
-26.4309
-28.3984
-31.1863
-34.8769
-38.9221
-44.1061
-49.8138
-56.2095
-56.2588
-49.9711
-44.3402
-39.2193
-35.1906
-31.4772
-28.5523
-26.2951
-27.4646
-26.4836
-23.0466
-22.5952
-25.9824
-34.2569
-48.2982
-38.514
-75.0256
-78.1405
-53.0831
-43.3526
-33.1799
-27.6312
-18.1479
-25.8467
-29.5348
-35.1316
-39.0859
-46.9146
-54.8227
-75.3797
-75.1782
-53.9405
-45.7008
-37.4505
-33.2773
-27.4159
-23.6396
-16.0902
-23.4267
-27.0188
-32.5162
-36.3879
-44.0158
-51.6475
-71.3827
-71.3213
-51.3813
-43.6535
-35.9174
-31.9948
-26.4553
-22.8636
-15.6207
-22.8042
-26.3439
-31.7827
-35.6214
-43.1865
-50.7448
-70.2658
-70.2562
-50.703
-43.1318
-35.5575
-31.7147
-26.2749
-22.7367
-15.5661
-22.7736
-26.3427
-31.8436
-35.7347
-43.4072
-51.0655
-70.8258
-70.8632
-51.228
-43.632
-36.0398
-32.1843
-26.7132
-23.1403
-15.8615
-23.2728
-26.9559
-32.6478
-36.6745
-44.6161
-52.5274
-72.9265
-72.9954
-52.8433
-45.0555
-37.3177
-33.4034
-27.9557
-24.3972
-17.3453
-28.1689
-27.1882
-13.0414
-10.0595
-12.3439
-22.3014
-54.9308
-40.1783
-40.3182
-40.4248
-40.4921
-40.5185
-40.5058
-40.4592
-40.3864
-40.2961
-40.1976
-40.1
-40.0114
-39.9387
-39.8872
-39.8605
-40.2023
-40.3516
-40.4639
-40.5331
-40.5574
-40.5395
-40.4855
-40.4037
-40.3041
-40.1966
-40.0908
-39.9954
-39.9173
-39.8622
-39.8338
-40.2529
-40.4218
-40.5461
-40.6187
-40.6384
-40.6093
-40.5393
-40.4389
-40.3199
-40.1938
-40.0713
-39.9618
-39.873
-39.8105
-39.7784
-40.3354
-40.5366
-40.6799
-40.7572
-40.7683
-40.7198
-40.6233
-40.4927
-40.3427
-40.1872
-40.0387
-39.9075
-39.8021
-39.7285
-39.6907
-40.4593
-40.709
-40.8797
-40.9618
-40.9575
-40.8783
-40.7413
-40.5658
-40.3708
-40.1735
-39.9885
-39.8274
-39.6993
-39.6105
-39.565
-40.6401
-40.9604
-41.1681
-41.2527
-41.2215
-41.0945
-40.8977
-40.6582
-40.4011
-40.1475
-39.9142
-39.7143
-39.557
-39.4489
-39.3939
-40.9026
-41.3242
-41.5796
-41.6592
-41.5813
-41.3804
-41.0966
-40.7682
-40.4278
-40.1009
-39.8066
-39.5584
-39.3655
-39.2341
-39.1675
-41.2878
-41.8541
-42.1667
-42.2233
-42.064
-41.749
-41.34
-40.8902
-40.4409
-40.0216
-39.6526
-39.3469
-39.1126
-38.9542
-38.8745
-41.8645
-42.6375
-43.0099
-43.003
-42.7023
-42.2115
-41.6241
-41.0116
-40.4237
-39.8919
-39.4353
-39.064
-38.7834
-38.5957
-38.5017
-42.7542
-43.8213
-44.2324
-44.0764
-43.5304
-42.7707
-41.9332
-41.1083
-40.3501
-39.6871
-39.1324
-38.6904
-38.3612
-38.1432
-38.0347
-44.1836
-45.6609
-46.022
-45.5396
-44.5722
-43.4075
-42.2293
-41.1384
-40.1812
-39.3738
-38.7167
-38.2038
-37.8276
-37.5811
-37.4591
-46.611
-48.6167
-48.6551
-47.4875
-45.8114
-44.0576
-42.4382
-41.0345
-39.8625
-38.9101
-38.1565
-37.5805
-37.1643
-36.8942
-36.7614
-51.0604
-53.5397
-52.4938
-49.944
-47.1281
-44.5732
-42.4312
-40.6989
-39.3239
-38.2474
-37.4185
-36.7973
-36.3546
-36.07
-35.9307
-60.1291
-61.988
-57.8363
-52.6662
-48.1835
-44.6759
-42.0144
-40.0057
-38.4866
-37.337
-36.4727
-35.8356
-35.3867
-35.1002
-34.9606
-81.494
-76.4474
-64.1977
-54.7009
-48.2637
-43.9323
-40.9446
-38.8228
-37.2797
-36.1412
-35.2993
-34.6856
-34.2562
-33.9833
-33.8507
-21.2777
-21.3087
-21.372
-21.4705
-21.6092
-21.7963
-22.0455
-22.3802
-22.8422
-23.5117
-24.5543
-26.3416
-29.7527
-36.7527
-49.4755
-20.3762
-20.3943
-20.4308
-20.4868
-20.5638
-20.6649
-20.7951
-20.9639
-21.1904
-21.5164
-22.0452
-23.0763
-25.6698
-34.469
-73.8478
-19.4621
-19.4669
-19.476
-19.4882
-19.5016
-19.513
-19.5176
-19.5073
-19.4694
-19.3802
-19.1872
-18.7261
-17.278
-10.9493
23.8541
-18.5444
-18.5363
-18.5188
-18.4886
-18.4405
-18.3658
-18.2501
-18.0698
-17.7837
-17.3158
-16.5151
-15.0611
-12.2764
-7.2035
-3.69863
-17.6322
-17.6122
-17.5701
-17.5013
-17.3978
-17.2468
-17.0274
-16.7057
-16.2241
-15.4822
-14.2966
-12.32
-8.86469
-2.36873
12.7466
-16.7336
-16.7032
-16.6398
-16.5379
-16.388
-16.1751
-15.8756
-15.4523
-14.8452
-13.9567
-12.6272
-10.6055
-7.56548
-3.51957
-1.87816
-15.856
-15.8169
-15.7361
-15.6075
-15.4217
-15.1633
-14.8097
-14.3263
-13.6615
-12.7373
-11.4385
-9.59788
-6.96571
-3.00058
4.84213
-15.0053
-14.9595
-14.8652
-14.7169
-14.5055
-14.2176
-13.8336
-13.3262
-12.6576
-11.7779
-10.6257
-9.1398
-7.2925
-5.1743
-3.19917
-14.1863
-14.1356
-14.0317
-13.8698
-13.6423
-13.3383
-12.943
-12.4378
-11.8003
-11.0074
-10.0446
-8.93247
-7.80835
-7.24859
-9.87025
-13.4024
-13.3483
-13.2382
-13.0681
-12.8321
-12.5222
-12.1287
-11.6411
-11.0506
-10.3547
-9.56715
-8.73322
-7.93321
-7.11352
-4.49818
-12.6558
-12.5997
-12.4861
-12.312
-12.073
-11.7639
-11.3794
-10.9158
-10.3739
-9.76543
-9.12168
-8.51023
-8.07265
-8.22537
-11.1765
-11.9479
-11.891
-11.776
-11.6007
-11.3624
-11.0578
-10.685
-10.2445
-9.74341
-9.20044
-8.65362
-8.16627
-7.80312
-7.39382
-4.78177
-11.2794
-11.2223
-11.1074
-10.9331
-10.6975
-10.399
-10.0372
-9.61508
-9.14178
-8.63795
-8.14407
-7.73584
-7.56659
-8.09189
-11.6985
-10.6502
-10.5936
-10.4799
-10.3078
-10.0762
-9.78388
-9.43121
-9.02102
-8.56115
-8.06834
-7.57486
-7.13922
-6.84871
-6.65009
-4.49628
-10.0602
-10.0045
-9.89266
-9.72376
-9.49669
-9.2105
-8.86495
-8.46124
-8.00318
-7.499
-6.96528
-6.44161
-6.06799
-6.56599
-12.425
-9.50855
-9.45413
-9.34484
-9.17986
-8.95805
-8.67815
-8.33887
-7.93899
-7.47704
-6.94997
-6.34852
-5.63955
-4.683
-2.75885
4.5023
-8.99452
-8.94166
-8.8355
-8.67521
-8.45955
-8.18681
-7.85466
-7.45964
-6.99591
-6.45239
-5.80621
-5.00917
-3.97098
-2.65786
-2.45601
-8.517
-8.46598
-8.36353
-8.20881
-8.00047
-7.73651
-7.41389
-7.02778
-6.56998
-6.02587
-5.36844
-4.54602
-3.45096
-1.78502
1.90281
-8.07469
-8.0258
-7.92764
-7.77941
-7.5798
-7.32673
-7.01701
-6.64549
-6.20376
-5.67783
-5.04503
-4.27194
-3.32849
-2.31615
-2.35768
-7.66611
-7.61962
-7.52631
-7.38549
-7.19602
-6.95607
-6.66281
-6.31174
-5.89578
-5.40379
-4.8188
-4.1159
-3.25499
-2.11532
0.115942
-7.2896
-7.24573
-7.15774
-7.02514
-6.84707
-6.62222
-6.34852
-6.02284
-5.64038
-5.1941
-4.67423
-4.06932
-3.37619
-2.67242
-2.62732
-6.94334
-6.90225
-6.81993
-6.69613
-6.5304
-6.32206
-6.07012
-5.77313
-5.42906
-5.03528
-4.58847
-4.08374
-3.50591
-2.772
-1.33346
-6.62539
-6.58717
-6.51071
-6.39601
-6.24308
-6.05196
-5.82278
-5.55588
-5.25204
-4.91306
-4.54271
-4.14863
-3.74519
-3.3608
-3.04988
-6.33377
-6.29841
-6.22781
-6.12221
-5.98206
-5.80806
-5.60141
-5.36404
-5.0992
-4.81238
-4.5132
-4.21975
-3.97239
-3.89847
-4.55212
-6.06647
-6.0339
-5.96899
-5.87219
-5.7443
-5.58661
-5.40114
-5.19106
-4.96139
-4.72004
-4.47947
-4.25858
-4.08032
-3.93079
-3.38993
-5.82156
-5.79163
-5.73208
-5.64352
-5.52701
-5.38422
-5.21772
-5.03146
-4.83146
-4.62693
-4.43185
-4.26751
-4.16945
-4.23478
-4.974
-5.59719
-5.56971
-5.51509
-5.43403
-5.32773
-5.19805
-5.0478
-4.88116
-4.70443
-4.52701
-4.36266
-4.23013
-4.1463
-4.07068
-3.48081
-5.39168
-5.36641
-5.31621
-5.24183
-5.14446
-5.02595
-4.88901
-4.73763
-4.57766
-4.41778
-4.27115
-4.15863
-4.11864
-4.2636
-5.17215
-5.20348
-5.18018
-5.13391
-5.06536
-4.97563
-4.8664
-4.74003
-4.59984
-4.45058
-4.29911
-4.15571
-4.03649
-3.96371
-3.92615
-3.41747
-5.03123
-5.00967
-4.96684
-4.90334
-4.82012
-4.71853
-4.60039
-4.46811
-4.32481
-4.17459
-4.02326
-3.88181
-3.7855
-3.91578
-5.39005
-4.87373
-4.8537
-4.81389
-4.75479
-4.67713
-4.58191
-4.47034
-4.3438
-4.20362
-4.0506
-3.88371
-3.69549
-3.45114
-2.972
-1.16312
-4.72989
-4.71123
-4.67411
-4.61889
-4.54611
-4.45641
-4.35045
-4.22872
-4.09109
-3.93601
-3.75874
-3.54787
-3.281
-2.95153
-2.90692
-4.59877
-4.58135
-4.54665
-4.49494
-4.42659
-4.34195
-4.24129
-4.12445
-3.99045
-3.83659
-3.65687
-3.43884
-3.15554
-2.73316
-1.80304
-4.47951
-4.46322
-4.43076
-4.38232
-4.31813
-4.23839
-4.14311
-4.03185
-3.90336
-3.75489
-3.58138
-3.37486
-3.12785
-2.86728
-2.87355
-4.37132
-4.3561
-4.32574
-4.2804
-4.22024
-4.14539
-4.05579
-3.95099
-3.8299
-3.69034
-3.52857
-3.3387
-3.11078
-2.81601
-2.24832
-4.27346
-4.25924
-4.23088
-4.18852
-4.13232
-4.0624
-3.97877
-3.8812
-3.76903
-3.64098
-3.49503
-3.32868
-3.14133
-2.95418
-2.93256
-4.18523
-4.17197
-4.14551
-4.10602
-4.05367
-3.98868
-3.9112
-3.82132
-3.71894
-3.60381
-3.47543
-3.33295
-3.17296
-2.9773
-2.61052
-4.10598
-4.09361
-4.06896
-4.0322
-3.98357
-3.92339
-3.85201
-3.76987
-3.67748
-3.57559
-3.46539
-3.34909
-3.23056
-3.11916
-3.02866
-4.03508
-4.02354
-4.00057
-3.96637
-3.92125
-3.86563
-3.80006
-3.7253
-3.64238
-3.55289
-3.45936
-3.36648
-3.28441
-3.24642
-3.38575
-3.97195
-3.96118
-3.93975
-3.90789
-3.86598
-3.81453
-3.75426
-3.68615
-3.61162
-3.53274
-3.45265
-3.37608
-3.30887
-3.25045
-3.10289
-3.91606
-3.90597
-3.88591
-3.85615
-3.81709
-3.76932
-3.71365
-3.65122
-3.58363
-3.51319
-3.44326
-3.37889
-3.32843
-3.31629
-3.45791
-3.86694
-3.85744
-3.83858
-3.81063
-3.77401
-3.72935
-3.67749
-3.61963
-3.55739
-3.49304
-3.42978
-3.37175
-3.32259
-3.27527
-3.11577
-3.82417
-3.81518
-3.79732
-3.77088
-3.73628
-3.69413
-3.64527
-3.59084
-3.53236
-3.47191
-3.41242
-3.35818
-3.31668
-3.31205
-3.46201
-3.78741
-3.77883
-3.76178
-3.73655
-3.70354
-3.66333
-3.61669
-3.56462
-3.50845
-3.44987
-3.39117
-3.33547
-3.28637
-3.24138
-3.09749
-3.75637
-3.7481
-3.73169
-3.70738
-3.67556
-3.63675
-3.59162
-3.54102
-3.48597
-3.42768
-3.36759
-3.30788
-3.25443
-3.23931
-3.45159
-3.73083
-3.7228
-3.70684
-3.68319
-3.65219
-3.61431
-3.57011
-3.52027
-3.46551
-3.40649
-3.34351
-3.27567
-3.19707
-3.07922
-2.7389
-3.71063
-3.70275
-3.68709
-3.66386
-3.63336
-3.59601
-3.55228
-3.50269
-3.44776
-3.3878
-3.32258
-3.25065
-3.16817
-3.07354
-3.00774
-3.69566
-3.68786
-3.67235
-3.64933
-3.61906
-3.5819
-3.53826
-3.48859
-3.43327
-3.37251
-3.30606
-3.23267
-3.14894
-3.04774
-2.88725
-3.68586
-3.67808
-3.6626
-3.63958
-3.60929
-3.57204
-3.5282
-3.47817
-3.42232
-3.36094
-3.2941
-3.22159
-3.14306
-3.063
-3.00261
-3.68123
-3.6734
-3.65782
-3.63465
-3.60412
-3.56652
-3.52219
-3.47154
-3.41497
-3.35291
-3.28585
-3.2144
-3.13946
-3.06452
-2.98477
-3.6818
-3.67387
-3.65808
-3.63459
-3.60361
-3.56541
-3.52034
-3.46878
-3.41118
-3.34812
-3.28041
-3.20934
-3.13708
-3.06927
-3.00648
-3.68763
-3.67955
-3.66345
-3.63949
-3.60787
-3.56885
-3.52275
-3.46996
-3.41094
-3.34632
-3.27705
-3.20483
-3.13282
-3.07044
-3.03625
-3.69883
-3.69055
-3.67404
-3.64947
-3.61702
-3.57695
-3.52957
-3.47523
-3.41435
-3.34749
-3.27551
-3.19988
-3.1231
-3.05194
-2.99428
-3.71555
-3.70701
-3.69
-3.66467
-3.63121
-3.58989
-3.54099
-3.4848
-3.42167
-3.35197
-3.27626
-3.19543
-3.1107
-3.02395
-2.9141
-3.73796
-3.72911
-3.7115
-3.68527
-3.65063
-3.60786
-3.55721
-3.49896
-3.43331
-3.36039
-3.28032
-3.1934
-3.10091
-3.01192
-2.96633
-3.76628
-3.75707
-3.73874
-3.71146
-3.67546
-3.63104
-3.57848
-3.51801
-3.44974
-3.37354
-3.2889
-3.19493
-3.08992
-2.96965
-2.78185
-3.80075
-3.79112
-3.77196
-3.74346
-3.70591
-3.65964
-3.60499
-3.54224
-3.47145
-3.39229
-3.30372
-3.20384
-3.09074
-2.97418
-2.93482
-3.84168
-3.83155
-3.81141
-3.78151
-3.74217
-3.69381
-3.6369
-3.57181
-3.49873
-3.41732
-3.32616
-3.22163
-3.09519
-2.92499
-2.59625
-3.8894
-3.87869
-3.85742
-3.82587
-3.78445
-3.7337
-3.67423
-3.60668
-3.53155
-3.44889
-3.35764
-3.25435
-3.13123
-2.9858
-2.9271
-3.94432
-3.93293
-3.91033
-3.87685
-3.83298
-3.77939
-3.71694
-3.64658
-3.56936
-3.48617
-3.39726
-3.30053
-3.18398
-2.98628
-2.3231
-4.0069
-3.99473
-3.97057
-3.9348
-3.88801
-3.83102
-3.7649
-3.69101
-3.61107
-3.52718
-3.44205
-3.36018
-3.2943
-3.30991
-3.80096
-4.07772
-4.06462
-4.03863
-4.00017
-3.94989
-3.88874
-3.81801
-3.73942
-3.65529
-3.5688
-3.48436
-3.40842
-3.34924
-3.30327
-3.08102
-4.15739
-4.14323
-4.11512
-4.07351
-4.01909
-3.95289
-3.87633
-3.79142
-3.70092
-3.60875
-3.52052
-3.44472
-3.3962
-3.41894
-3.73078
-4.24667
-4.2313
-4.20077
-4.15551
-4.09624
-4.02399
-3.94023
-3.84707
-3.74748
-3.64572
-3.54781
-3.46177
-3.39489
-3.33375
-3.07662
-4.3464
-4.32967
-4.2964
-4.24702
-4.18217
-4.10284
-4.01043
-3.90695
-3.79531
-3.67977
-3.56663
-3.46522
-3.39078
-3.38455
-3.6488
-4.45752
-4.43929
-4.40301
-4.34904
-4.27794
-4.19056
-4.08809
-3.97226
-3.84561
-3.71193
-3.57705
-3.44965
-3.34047
-3.24743
-3.0031
-4.58108
-4.56123
-4.52168
-4.46272
-4.38479
-4.28852
-4.1748
-4.04486
-3.90054
-3.7447
-3.58204
-3.42112
-3.28014
-3.21526
-3.45649
-4.7182
-4.69663
-4.65362
-4.58935
-4.50414
-4.39838
-4.27254
-4.12722
-3.96326
-3.78195
-3.5856
-3.37845
-3.16812
-2.97041
-2.8121
-4.87008
-4.84672
-4.80009
-4.73031
-4.63755
-4.52196
-4.38359
-4.22231
-4.03779
-3.82941
-3.59643
-3.3377
-3.04848
-2.69808
-2.05948
-5.03796
-5.01276
-4.96242
-4.88701
-4.78661
-4.66115
-4.51031
-4.33332
-4.12865
-3.89374
-3.62489
-3.31785
-2.97247
-2.62576
-2.56814
-5.22314
-5.19605
-5.14194
-5.06086
-4.95285
-4.81774
-4.65499
-4.46334
-4.24028
-3.98141
-3.67963
-3.32432
-2.89852
-2.35257
-1.33538
-5.42691
-5.39791
-5.33997
-5.25321
-5.1377
-4.99332
-4.81954
-4.61495
-4.37656
-4.09867
-3.77133
-3.37946
-2.90912
-2.40649
-2.37142
-5.65063
-5.61966
-5.55783
-5.46533
-5.34238
-5.18911
-5.00527
-4.78983
-4.54007
-4.25003
-3.90762
-3.48879
-2.94328
-2.13558
-0.411157
-5.89566
-5.86264
-5.79678
-5.69839
-5.56793
-5.40592
-5.21275
-4.98833
-4.73133
-4.43757
-4.09675
-3.68582
-3.16061
-2.50114
-2.33402
-6.16342
-6.12825
-6.05813
-5.95353
-5.8152
-5.64417
-5.44173
-5.20927
-4.94792
-4.65758
-4.33436
-3.96194
-3.47226
-2.52467
0.936786
-6.45543
-6.41793
-6.34322
-6.2319
-6.08499
-5.90406
-5.69137
-5.45008
-5.18446
-4.90024
-4.60595
-4.31921
-4.10296
-4.29381
-7.00505
-6.77328
-6.73327
-6.65356
-6.53481
-6.37823
-6.18581
-5.96068
-5.70761
-5.43373
-5.14972
-4.87209
-4.6273
-4.45198
-4.31262
-3.21597
-7.11874
-7.07601
-6.99083
-6.86381
-6.69617
-6.49009
-6.24922
-5.97941
-5.68985
-5.39459
-5.11527
-4.88688
-4.77696
-4.99619
-6.69277
-7.49369
-7.44807
-7.35697
-7.22084
-7.04065
-6.81838
-6.55767
-6.26478
-5.94977
-5.62823
-5.32293
-5.06399
-4.87425
-4.65382
-3.32277
-7.90016
-7.85153
-7.75423
-7.6083
-7.41417
-7.17318
-6.88833
-6.56533
-6.21408
-5.85042
-5.49826
-5.19284
-4.99366
-5.08272
-6.52987
-8.34022
-8.28863
-8.18509
-8.02906
-7.82007
-7.55829
-7.24531
-6.88535
-6.48686
-6.06449
-5.64101
-5.24773
-4.91371
-4.56851
-3.24275
-8.81596
-8.76163
-8.65225
-8.48644
-8.26248
-7.9788
-7.63476
-7.23197
-6.77608
-6.27919
-5.76266
-5.2613
-4.84227
-4.73523
-6.15843
-9.32926
-9.27272
-9.15844
-8.98404
-8.74621
-8.44107
-8.06488
-7.61533
-7.09363
-6.50741
-5.87365
-5.21753
-4.55492
-3.8393
-2.94107
-9.88166
-9.82376
-9.70621
-9.52553
-9.27654
-8.95253
-8.54579
-8.04866
-7.45586
-6.76852
-6.00007
-5.17811
-4.30508
-3.07018
0.89905
-10.4741
-10.4161
-10.2977
-10.1143
-9.85881
-9.52131
-9.08932
-8.5483
-7.88361
-7.08583
-6.16354
-5.17402
-4.30721
-4.19989
-7.55543
-11.1067
-11.0501
-10.9341
-10.7531
-10.4979
-10.1556
-9.70844
-9.1337
-8.40366
-7.48949
-6.3736
-5.08459
-3.78259
-2.92486
-3.29105
-11.7785
-11.7253
-11.6156
-11.4432
-11.1973
-10.8624
-10.4161
-9.8268
-9.05145
-8.03311
-6.70377
-5.00405
-2.95009
-0.799904
0.718089
-12.4872
-12.4394
-12.3406
-12.1841
-11.9584
-11.6466
-11.2228
-10.649
-9.86788
-8.79258
-7.29104
-5.16937
-2.18504
1.76407
5.78045
-13.2289
-13.1888
-13.1056
-12.9728
-12.7793
-12.5083
-12.1336
-11.615
-10.8885
-9.84794
-8.30886
-5.93364
-2.09059
4.28134
13.631
-13.9982
-13.968
-13.9049
-13.8034
-13.654
-13.4418
-13.1442
-12.7253
-12.127
-11.2494
-9.90721
-7.71713
-3.7529
4.73076
27.9734
-159.98
-96.3044
-67.506
-53.7612
-46.4068
-42.0186
-39.1702
-37.208
-35.8024
-34.773
-34.0145
-33.4623
-33.0762
-32.8309
-32.7116
-198.526
-90.1363
-60.06
-48.4692
-42.6587
-39.2096
-36.9414
-35.3532
-34.198
-33.341
-32.703
-32.2348
-31.9055
-31.6955
-31.5932
50.3167
-29.5836
-39.7773
-39.1631
-37.2706
-35.5803
-34.2405
-33.1975
-32.3864
-31.7569
-31.2734
-30.9108
-30.6519
-30.4852
-30.4035
-8.01649
-17.4381
-27.0006
-30.7447
-31.742
-31.7076
-31.3331
-30.8808
-30.4485
-30.0713
-29.7596
-29.5146
-29.3342
-29.2157
-29.157
27.1096
-5.19489
-18.265
-24.2338
-26.9295
-28.071
-28.4797
-28.5499
-28.4723
-28.3401
-28.1994
-28.0734
-27.9732
-27.9045
-27.8696
-2.24933
-6.30875
-14.4615
-19.9957
-23.1963
-24.9432
-25.8612
-26.3216
-26.5338
-26.6145
-26.629
-26.6141
-26.5904
-26.5696
-26.5579
11.2606
-4.57997
-12.4769
-17.3781
-20.4726
-22.3907
-23.5604
-24.2655
-24.6864
-24.9347
-25.0789
-25.1607
-25.2054
-25.2283
-25.2378
-4.28115
-8.36754
-12.5733
-16.0152
-18.5656
-20.3578
-21.582
-22.4067
-22.9588
-23.3272
-23.572
-23.7328
-23.8354
-23.8961
-23.9243
-16.9864
-12.0721
-13.2009
-15.2713
-17.185
-18.7191
-19.881
-20.737
-21.3585