/*--------------------------------*- C++ -*----------------------------------*\
| =========                 |                                                 |
| \\      /  F ield         | OpenFOAM: The Open Source CFD Toolbox           |
|  \\    /   O peration     | Version:  5.x                                   |
|   \\  /    A nd           | Web:      www.OpenFOAM.org                      |
|    \\/     M anipulation  |                                                 |
\*---------------------------------------------------------------------------*/
FoamFile
{
    version     2.0;
    format      ascii;
    class       volScalarField;
    location    "14";
    object      gradTy;
}
// * * * * * * * * * * * * * * * * * * * * * * * * * * * * * * * * * * * * * //

dimensions      [0 -1 0 1 0 0 0];

internalField   nonuniform List<scalar> 
2048
(
-26.4236
-26.3961
-26.3417
-26.262
-26.1592
-26.0358
-25.8946
-25.7383
-25.5697
-25.3915
-25.206
-25.0154
-24.8215
-24.6262
-24.4309
-24.2368
-24.0452
-23.8569
-23.6727
-23.4932
-23.3188
-23.1498
-22.9866
-22.8294
-22.6784
-22.5338
-22.3959
-22.2651
-22.1417
-22.0263
-21.9193
-21.8214
-21.7333
-21.656
-21.5903
-21.5372
-21.4979
-21.4735
-21.4653
-21.4745
-21.5023
-21.55
-21.6189
-21.71
-21.8245
-21.9629
-22.1257
-22.3128
-22.5236
-22.7567
-23.0096
-23.2793
-23.5613
-23.8504
-24.1406
-24.4252
-24.6976
-24.9511
-25.1796
-25.3777
-25.5412
-25.6666
-25.7515
-25.7943
-26.446
-26.4177
-26.3621
-26.2808
-26.1759
-26.0503
-25.9067
-25.7482
-25.5776
-25.3974
-25.2102
-25.018
-24.8228
-24.6262
-24.4298
-24.2349
-24.0425
-23.8536
-23.6689
-23.489
-23.3144
-23.1452
-22.9818
-22.8244
-22.6732
-22.5283
-22.3902
-22.2591
-22.1353
-22.0194
-21.9119
-21.8134
-21.7247
-21.6466
-21.58
-21.5261
-21.4859
-21.4605
-21.4512
-21.4594
-21.4862
-21.5329
-21.6009
-21.6912
-21.805
-21.9431
-22.106
-22.2937
-22.5056
-22.7405
-22.9962
-23.2693
-23.5555
-23.8495
-24.145
-24.4352
-24.7129
-24.9713
-25.2041
-25.4058
-25.572
-25.6994
-25.7855
-25.829
-26.4887
-26.4592
-26.4011
-26.3164
-26.2076
-26.0776
-25.9297
-25.7669
-25.5922
-25.4084
-25.2179
-25.0228
-24.825
-24.6261
-24.4277
-24.231
-24.0373
-23.8472
-23.6617
-23.4811
-23.306
-23.1364
-22.9727
-22.8149
-22.6633
-22.5181
-22.3794
-22.2477
-22.1232
-22.0065
-21.898
-21.7984
-21.7084
-21.6288
-21.5607
-21.5051
-21.463
-21.4358
-21.4246
-21.4308
-21.4556
-21.5005
-21.5667
-21.6555
-21.7681
-21.9055
-22.0684
-22.257
-22.4711
-22.7094
-22.9701
-23.2498
-23.5442
-23.8476
-24.1534
-24.4541
-24.7421
-25.01
-25.251
-25.4595
-25.6309
-25.7619
-25.8504
-25.895
-26.5499
-26.5185
-26.4569
-26.3672
-26.2526
-26.1162
-25.9619
-25.793
-25.6126
-25.4236
-25.2285
-25.0292
-24.8278
-24.6257
-24.4245
-24.2254
-24.0297
-23.8381
-23.6513
-23.4699
-23.294
-23.124
-22.9598
-22.8016
-22.6495
-22.5037
-22.3644
-22.2318
-22.1064
-21.9885
-21.8786
-21.7774
-21.6855
-21.604
-21.5336
-21.4756
-21.431
-21.4011
-21.3872
-21.3905
-21.4126
-21.4547
-21.5183
-21.6048
-21.7156
-21.8519
-22.0146
-22.2044
-22.4212
-22.6643
-22.9319
-23.221
-23.5271
-23.8441
-24.1648
-24.481
-24.784
-25.0656
-25.3184
-25.5364
-25.7151
-25.8512
-25.9428
-25.9889
-26.6283
-26.5944
-26.5279
-26.4317
-26.3092
-26.1646
-26.0019
-25.8251
-25.6375
-25.4421
-25.2412
-25.0368
-24.8308
-24.6248
-24.42
-24.218
-24.0198
-23.8262
-23.638
-23.4555
-23.279
-23.1084
-22.9437
-22.785
-22.6324
-22.4858
-22.3457
-22.2121
-22.0854
-21.9661
-21.8545
-21.7513
-21.6572
-21.5731
-21.4999
-21.4388
-21.391
-21.3578
-21.3404
-21.3402
-21.3587
-21.3973
-21.4576
-21.5411
-21.6493
-21.7839
-21.9461
-22.1369
-22.3569
-22.6057
-22.8819
-23.1829
-23.5038
-23.8385
-24.1787
-24.515
-24.8376
-25.137
-25.4049
-25.6349
-25.8224
-25.9647
-26.06
-26.1079
-26.7229
-26.6857
-26.6131
-26.5085
-26.3762
-26.2213
-26.0485
-25.8621
-25.666
-25.4629
-25.2553
-25.0451
-24.8338
-24.6231
-24.4143
-24.2087
-24.0076
-23.8118
-23.622
-23.4384
-23.2611
-23.09
-22.9249
-22.7657
-22.6124
-22.4651
-22.3239
-22.1892
-22.0612
-21.9402
-21.8267
-21.7212
-21.6243
-21.5371
-21.4606
-21.3959
-21.3444
-21.3072
-21.2857
-21.2813
-21.2956
-21.3299
-21.3861
-21.4657
-21.5707
-21.7029
-21.864
-22.0556
-22.2787
-22.5337
-22.8199
-23.1348
-23.4737
-23.8299
-24.1942
-24.5555
-24.9023
-25.2234
-25.5095
-25.7536
-25.9513
-26.1003
-26.1996
-26.2493
-26.8331
-26.7918
-26.7115
-26.5965
-26.4523
-26.2849
-26.1001
-25.9028
-25.6968
-25.4852
-25.2702
-25.0535
-24.8364
-24.6205
-24.407
-24.1975
-23.9932
-23.7949
-23.6034
-23.4187
-23.2408
-23.0692
-22.9038
-22.7441
-22.5901
-22.442
-22.2998
-22.1638
-22.0343
-21.9115
-21.7958
-21.6877
-21.5878
-21.4972
-21.4168
-21.348
-21.2921
-21.2504
-21.2243
-21.2152
-21.2245
-21.2539
-21.3052
-21.3803
-21.4812
-21.6102
-21.7694
-21.9611
-22.1871
-22.4485
-22.7454
-23.076
-23.4359
-23.8175
-24.2105
-24.6019
-24.9777
-25.3245
-25.6317
-25.8916
-26.1003
-26.2562
-26.3594
-26.4108
-26.9584
-26.912
-26.8223
-26.6947
-26.5363
-26.3543
-26.1556
-25.9458
-25.729
-25.5083
-25.2854
-25.0617
-24.8384
-24.6167
-24.3982
-24.1843
-23.9764
-23.7755
-23.5823
-23.3966
-23.2182
-23.0464
-22.8807
-22.7206
-22.566
-22.417
-22.2737
-22.1364
-22.0054
-21.8807
-21.7627
-21.6517
-21.5484
-21.4539
-21.3693
-21.296
-21.2353
-21.1887
-21.1574
-21.143
-21.1468
-21.1707
-21.2164
-21.286
-21.382
-21.5069
-21.6633
-21.8542
-22.0823
-22.3499
-22.658
-23.0058
-23.3892
-23.8002
-24.227
-24.6538
-25.0637
-25.4404
-25.7713
-26.0484
-26.2682
-26.4307
-26.5374
-26.5901
-27.0986
-27.0461
-26.945
-26.8024
-26.627
-26.428
-26.2136
-25.99
-25.7617
-25.5313
-25.3002
-25.0694
-24.8395
-24.6118
-24.3877
-24.169
-23.9572
-23.7536
-23.5587
-23.3723
-23.1937
-23.022
-22.8562
-22.6958
-22.5405
-22.3905
-22.246
-22.1074
-21.9748
-21.8483
-21.7278
-21.6138
-21.5069
-21.4082
-21.3189
-21.2406
-21.1748
-21.1228
-21.086
-21.0658
-21.0637
-21.0814
-21.1208
-21.1843
-21.2744
-21.3941
-21.5466
-21.7356
-21.9647
-22.2377
-22.5569
-22.9229
-23.3323
-23.7768
-24.2427
-24.711
-25.1606
-25.5715
-25.9286
-26.2236
-26.4542
-26.6223
-26.7314
-26.7849
-27.2539
-27.194
-27.0791
-26.9185
-26.7233
-26.5048
-26.2727
-26.0342
-25.7937
-25.5535
-25.3144
-25.0763
-24.8397
-24.6056
-24.3755
-24.1516
-23.9357
-23.7292
-23.5327
-23.3459
-23.1675
-22.9962
-22.8306
-22.67
-22.514
-22.3629
-22.2172
-22.0773
-21.9432
-21.8148
-21.6919
-21.5747
-21.4639
-21.3606
-21.2663
-21.1827
-21.1113
-21.0536
-21.011
-20.9847
-20.9762
-20.9872
-21.0197
-21.0762
-21.1595
-21.2729
-21.4203
-21.6058
-21.8346
-22.1117
-22.4414
-22.8261
-23.2637
-23.7459
-24.2567
-24.7733
-25.2689
-25.7185
-26.1041
-26.4171
-26.6573
-26.8293
-26.9393
-26.9928
-27.4246
-27.3556
-27.2243
-27.0424
-26.824
-26.5833
-26.3317
-26.0772
-25.8243
-25.5745
-25.3275
-25.0824
-24.8391
-24.5982
-24.3616
-24.1319
-23.9115
-23.7022
-23.5043
-23.3175
-23.1398
-22.9694
-22.8043
-22.6436
-22.4868
-22.3346
-22.1876
-22.0463
-21.9109
-21.7807
-21.6554
-21.5349
-21.4199
-21.3117
-21.212
-21.1227
-21.0455
-20.9819
-20.9332
-20.9006
-20.8853
-20.8892
-20.9141
-20.9629
-21.0385
-21.1446
-21.2853
-21.4658
-21.6923
-21.9717
-22.3107
-22.7141
-23.1818
-23.7057
-24.2679
-24.8405
-25.3894
-25.8826
-26.2986
-26.6291
-26.8768
-27.0502
-27.1591
-27.2115
-27.6111
-27.5313
-27.3802
-27.1731
-26.9279
-26.6621
-26.3891
-26.1178
-25.8525
-25.5936
-25.3394
-25.0877
-24.8376
-24.5897
-24.3461
-24.11
-23.8848
-23.6724
-23.4735
-23.2872
-23.111
-22.942
-22.7777
-22.6169
-22.4593
-22.3057
-22.1573
-22.0148
-21.8781
-21.7465
-21.6188
-21.495
-21.3757
-21.2622
-21.1566
-21.0612
-20.9779
-20.9083
-20.8534
-20.8142
-20.792
-20.7882
-20.8051
-20.8455
-20.9125
-21.0101
-21.1427
-21.3164
-21.5384
-21.8177
-22.164
-22.5854
-23.0845
-23.6545
-24.2752
-24.9128
-25.5235
-26.0657
-26.5134
-26.8597
-27.1117
-27.2833
-27.3885
-27.4383
-27.8141
-27.7212
-27.5467
-27.3098
-27.0337
-26.7397
-26.4435
-26.1548
-25.8775
-25.6105
-25.35
-25.0922
-24.8354
-24.5801
-24.3288
-24.0857
-23.8552
-23.6398
-23.4402
-23.2551
-23.0811
-22.9143
-22.7513
-22.5904
-22.4318
-22.2765
-22.1264
-21.9828
-21.8453
-21.7125
-21.5827
-21.4555
-21.3315
-21.2123
-21.1005
-20.9987
-20.9092
-20.8333
-20.7721
-20.7264
-20.697
-20.6853
-20.6936
-20.7249
-20.7826
-20.8706
-20.9937
-21.1585
-21.3735
-21.6498
-22.0005
-22.4382
-22.9697
-23.5898
-24.2771
-24.9903
-25.6727
-26.2698
-26.7502
-27.1094
-27.3612
-27.5266
-27.625
-27.6706
-28.0343
-27.9258
-27.7235
-27.4517
-27.14
-26.8146
-26.4934
-26.187
-25.8985
-25.6248
-25.3593
-25.0963
-24.833
-24.5699
-24.31
-24.0589
-23.8226
-23.6041
-23.4042
-23.2212
-23.0505
-22.8867
-22.7253
-22.5645
-22.4046
-22.2471
-22.0951
-21.9505
-21.8126
-21.6791
-21.5474
-21.4168
-21.2879
-21.1625
-21.0439
-20.9355
-20.8395
-20.7574
-20.6901
-20.6379
-20.6011
-20.5812
-20.5805
-20.6022
-20.6498
-20.7273
-20.8395
-20.9934
-21.1986
-21.4682
-21.8197
-22.2711
-22.8348
-23.5091
-24.2716
-25.0731
-25.8394
-26.498
-27.0107
-27.3784
-27.6243
-27.7783
-27.8662
-27.9057
-28.273
-28.1458
-27.9104
-27.5978
-27.2452
-26.8851
-26.5375
-26.2131
-25.9148
-25.6363
-25.3676
-25.1002
-24.8306
-24.5594
-24.2897
-24.0296
-23.7869
-23.5653
-23.3655
-23.1856
-23.0195
-22.8597
-22.7003
-22.5395
-22.3779
-22.2177
-22.0632
-21.9178
-21.7803
-21.6466
-21.5134
-21.3793
-21.2453
-21.1132
-20.9872
-20.8718
-20.7693
-20.6811
-20.6078
-20.5492
-20.5051
-20.4767
-20.4665
-20.4781
-20.5151
-20.5812
-20.6812
-20.8222
-21.0145
-21.2734
-21.621
-22.0824
-22.6774
-23.4092
-24.2562
-25.1614
-26.0266
-26.7537
-27.2973
-27.667
-27.8997
-28.0362
-28.1093
-28.1407
-28.5312
-28.3816
-28.1074
-27.7469
-27.3476
-26.9496
-26.5741
-26.232
-25.9257
-25.645
-25.3753
-25.1044
-24.8287
-24.5489
-24.2681
-23.9973
-23.7477
-23.5229
-23.3238
-23.1484
-22.9884
-22.8338
-22.6767
-22.5157
-22.352
-22.1881
-22.0307
-21.8848
-21.7484
-21.6155
-21.481
-21.3435
-21.2041
-21.0645
-20.9305
-20.8079
-20.6988
-20.6045
-20.5255
-20.4609
-20.4096
-20.3725
-20.3523
-20.3534
-20.3794
-20.4335
-20.52
-20.6464
-20.8228
-21.0661
-21.4041
-21.8704
-22.4947
-23.2865
-24.228
-25.2552
-26.2381
-27.0414
-27.6124
-27.9754
-28.1857
-28.2977
-28.3518
-28.373
-28.8104
-28.6339
-28.3145
-27.8979
-27.4452
-27.0065
-26.6019
-26.2424
-25.9306
-25.651
-25.3829
-25.1095
-24.8278
-24.539
-24.2452
-23.9619
-23.705
-23.4769
-23.2788
-23.1094
-22.9575
-22.8095
-22.655
-22.4936
-22.3273
-22.1584
-21.997
-21.8511
-21.7171
-21.5862
-21.4506
-21.3097
-21.1646
-21.0168
-20.8739
-20.7438
-20.6282
-20.528
-20.4438
-20.3735
-20.3152
-20.2691
-20.2386
-20.2287
-20.2435
-20.2852
-20.3573
-20.4674
-20.6251
-20.8474
-21.1689
-21.6337
-22.2839
-23.137
-24.1826
-25.3545
-26.479
-27.3665
-27.9586
-28.3032
-28.4805
-28.5604
-28.5908
-28.5998
-29.1122
-28.9035
-28.5316
-28.0495
-27.536
-27.0543
-26.6196
-26.243
-25.929
-25.6544
-25.3913
-25.1159
-24.8282
-24.5306
-24.2213
-23.9229
-23.6584
-23.427
-23.2302
-23.0688
-22.9271
-22.7875
-22.6356
-22.4733
-22.3041
-22.1286
-21.9618
-21.8166
-21.6865
-21.559
-21.4227
-21.2782
-21.1275
-20.9701
-20.8172
-20.6796
-20.5576
-20.4517
-20.3629
-20.2876
-20.2225
-20.1671
-20.1257
-20.1046
-20.1082
-20.1375
-20.1941
-20.2868
-20.4231
-20.6187
-20.9158
-21.3707
-22.0423
-22.9561
-24.1144
-25.4588
-26.7559
-27.7355
-28.3385
-28.6498
-28.7817
-28.8214
-28.8237
-28.8184
-29.4384
-29.1907
-28.7591
-28.2002
-27.617
-27.0915
-26.6262
-26.2323
-25.9203
-25.6555
-25.4014
-25.1243
-24.8305
-24.5246
-24.1964
-23.8795
-23.6079
-23.3729
-23.1772
-23.0263
-22.8977
-22.7686
-22.619
-22.4552
-22.2831
-22.0985
-21.9242
-21.781
-21.6568
-21.5346
-21.3974
-21.2492
-21.0931
-20.9247
-20.7601
-20.6155
-20.4872
-20.3756
-20.2832
-20.2035
-20.1322
-20.067
-20.0142
-19.9815
-19.9742
-19.9912
-20.0316
-20.1062
-20.2193
-20.3815
-20.6452
-21.0802
-21.7675
-22.7391
-24.0158
-25.5672
-27.0779
-28.1563
-28.7543
-29.0136
-29.0865
-29.0779
-29.0479
-29.0267
-29.7913
-29.4957
-28.9978
-28.3483
-27.6851
-27.1171
-26.6206
-26.2085
-25.9042
-25.6549
-25.4149
-25.135
-24.8347
-24.5224
-24.1707
-23.8306
-23.5535
-23.3148
-23.1193
-22.982
-22.8696
-22.754
-22.6053
-22.4393
-22.2651
-22.068
-21.8833
-21.7437
-21.6281
-21.5138
-21.3751
-21.2227
-21.0623
-20.8807
-20.7023
-20.5515
-20.417
-20.2996
-20.2048
-20.1218
-20.0447
-19.9693
-19.9041
-19.8596
-19.8421
-19.8473
-19.8705
-19.9272
-20.0161
-20.138
-20.3581
-20.7607
-21.4579
-22.4813
-23.8764
-25.6775
-27.4568
-28.6377
-29.2079
-29.3923
-29.3914
-29.3268
-29.2608
-29.2223
-30.1732
-29.8179
-29.2488
-28.492
-27.7359
-27.1308
-26.6026
-26.1696
-25.8805
-25.6529
-25.4337
-25.1484
-24.8405
-24.5263
-24.1444
-23.7744
-23.4957
-23.2527
-23.0551
-22.9359
-22.8433
-22.745
-22.5949
-22.4253
-22.2512
-22.037
-21.8373
-21.7045
-21.6005
-21.4975
-21.3557
-21.1986
-21.036
-20.8381
-20.643
-20.4878
-20.3474
-20.2237
-20.128
-20.0428
-19.9608
-19.8743
-19.7958
-19.7389
-19.7123
-19.7071
-19.7113
-19.751
-19.8168
-19.8903
-20.056
-20.4108
-21.1126
-22.1788
-23.6822
-25.7865
-27.909
-29.19
-29.6998
-29.7825
-29.6928
-29.565
-29.4603
-29.4037
-30.5874
-30.1556
-29.5146
-28.6295
-27.7639
-27.1333
-26.5722
-26.1127
-25.8494
-25.6497
-25.4607
-25.1643
-24.847
-24.5393
-24.1176
-23.7081
-23.4355
-23.1871
-22.983
-22.8881
-22.8189
-22.7435
-22.5877
-22.4126
-22.2434
-22.0054
-21.7842
-21.663
-21.574
-21.4872
-21.3394
-21.1764
-21.0157
-20.797
-20.5807
-20.4249
-20.2785
-20.1471
-20.0531
-19.9667
-19.8811
-19.7823
-19.6892
-19.6193
-19.5852
-19.5717
-19.5542
-19.579
-19.625
-19.6406
-19.7409
-20.0283
-20.7321
-21.8291
-23.4141
-25.8883
-28.4571
-29.8243
-30.2293
-30.1797
-29.9863
-29.7897
-29.6445
-29.5693
-31.038
-30.505
-29.7996
-28.7585
-27.7611
-27.1269
-26.5304
-26.0335
-25.8116
-25.6454
-25.5001
-25.1822
-24.852
-24.566
-24.0905
-23.6275
-23.3749
-23.1187
-22.9003
-22.8392
-22.7964
-22.7521
-22.5832
-22.3998
-22.2446
-21.9731
-21.7208
-21.6194
-21.5484
-21.4851
-21.3257
-21.1548
-21.0036
-20.7573
-20.5136
-20.3634
-20.2108
-20.0692
-19.9805
-19.8939
-19.8066
-19.6936
-19.5844
-19.5005
-19.461
-19.4426
-19.3987
-19.4118
-19.4454
-19.3911
-19.416
-19.61
-20.3186
-21.4331
-23.0461
-25.974
-29.1321
-30.5521
-30.7931
-30.5777
-30.2675
-29.9982
-29.8119
-29.7182
-31.5302
-30.8593
-30.1107
-28.8769
-27.7168
-27.1162
-26.4788
-25.9262
-25.7689
-25.639
-25.5575
-25.2008
-24.8517
-24.6132
-24.0631
-23.5264
-23.3172
-23.049
-22.8032
-22.7904
-22.7751
-22.7747
-22.5806
-22.3843
-22.2591
-21.94
-21.643
-21.5741
-21.5231
-21.4941
-21.3141
-21.132
-21.0029
-20.7192
-20.4387
-20.305
-20.1447
-19.9887
-19.9108
-19.8244
-19.7382
-19.6084
-19.4812
-19.3818
-19.3398
-19.322
-19.2434
-19.2495
-19.2836
-19.1433
-19.0856
-19.1509
-19.8761
-20.9967
-22.5433
-26.0297
-29.9771
-31.3839
-31.3851
-30.9695
-30.5318
-30.1881
-29.9613
-29.8498
-32.0715
-31.2066
-30.459
-28.9824
-27.6159
-27.1097
-26.4204
-25.7822
-25.7252
-25.6277
-25.6412
-25.2179
-24.84
-24.691
-24.0355
-23.3954
-23.2682
-22.9799
-22.6859
-22.7439
-22.7533
-22.8167
-22.5784
-22.3621
-22.2932
-21.906
-21.5448
-21.5291
-21.4968
-21.5186
-21.3032
-21.1048
-21.0184
-20.6824
-20.3517
-20.2519
-20.0811
-19.9036
-19.8449
-19.7579
-19.6774
-19.5266
-19.3796
-19.2622
-19.2214
-19.2131
-19.086
-19.0914
-19.1471
-18.8977
-18.7565
-18.6423
-19.4112
-20.534
-21.8591
-26.0348
-31.0517
-32.3275
-31.9955
-31.3467
-30.7747
-30.3574
-30.092
-29.9639
-32.6723
-31.5279
-30.8621
-29.0727
-27.4369
-27.1208
-26.3595
-25.5887
-25.6871
-25.6065
-25.7631
-25.23
-24.807
-24.8139
-24.0076
-23.2211
-23.2366
-22.9145
-22.5401
-22.7042
-22.7274
-22.8858
-22.5743
-22.3268
-22.3563
-21.871
-21.4179
-21.4876
-21.4667
-21.5649
-21.2913
-21.068
-21.0572
-20.6467
-20.2465
-20.2079
-20.0209
-19.8107
-19.7847
-19.6938
-19.626
-19.4481
-19.2797
-19.1406
-19.1051
-19.1203
-18.9229
-18.9353
-19.0459
-18.6524
-18.439
-18.0712
-18.9322
-20.0712
-20.9311
-25.9594
-32.4383
-33.3852
-32.6102
-31.7002
-30.9921
-30.5046
-30.2038
-30.0607
-33.3475
-31.7938
-31.346
-29.1456
-27.15
-27.1702
-26.3021
-25.3275
-25.6662
-25.5655
-25.9401
-25.2319
-24.738
-25.0027
-23.9792
-22.9841
-23.236
-22.8564
-22.3536
-22.6785
-22.691
-22.9931
-22.5649
-22.2689
-22.4617
-21.8348
-21.2508
-21.456
-21.4277
-21.6419
-21.2757
-21.0144
-21.1293
-20.6117
-20.1142
-20.1788
-19.9654
-19.7058
-19.7327
-19.6304
-19.5865
-19.3722
-19.1815
-19.0152
-18.9895
-19.0502
-18.7484
-18.7776
-18.9932
-18.4022
-18.1485
-17.4172
-18.4493
-19.6522
-19.678
-25.7604
-34.2497
-34.5488
-33.2104
-32.0206
-31.1807
-30.629
-30.2967
-30.1406
-34.1181
-31.9599
-31.9492
-29.1989
-26.714
-27.2884
-26.2555
-24.9724
-25.6812
-25.4885
-26.1962
-25.2167
-24.6113
-25.2865
-23.9498
-22.6576
-23.2859
-22.8109
-22.109
-22.6791
-22.6333
-23.1544
-22.5454
-22.1744
-22.6282
-21.7969
-21.028
-21.4447
-21.3714
-21.7623
-21.2527
-20.9332
-21.249
-20.5766
-19.9428
-20.1733
-19.9162
-19.5826
-19.6933
-19.5651
-19.5624
-19.2978
-19.0857
-18.8841
-18.8721
-19.0121
-18.5551
-18.6119
-19.0074
-18.136
-17.9087
-16.6503
-17.9736
-19.3447
-17.9935
-25.3774
-36.6389
-35.7945
-33.773
-32.299
-31.3379
-30.7302
-30.3714
-30.2044
-35.0134
-31.962
-32.7267
-29.2303
-26.0728
-27.5189
-26.2293
-24.4869
-25.7613
-25.3492
-26.5647
-25.1748
-24.3964
-25.7053
-23.9186
-22.2047
-23.4145
-22.7842
-21.7821
-22.7248
-22.5369
-23.3917
-22.5096
-22.0237
-22.8816
-21.7561
-20.7282
-21.47
-21.2842
-21.9438
-21.217
-20.8091
-21.436
-20.5404
-19.7156
-20.2039
-19.8747
-19.4323
-19.6731
-19.4935
-19.5586
-19.2228
-18.9934
-18.7448
-18.7487
-19.0194
-18.3326
-18.4287
-19.1139
-17.8346
-17.7547
-15.7275
-17.5151
-19.2489
-15.7415
-24.7271
-39.8119
-37.074
-34.2712
-32.5276
-31.4621
-30.8087
-30.4287
-30.2531
-36.0746
-31.7088
-33.7559
-29.2375
-25.151
-27.9225
-26.2346
-23.8203
-25.9506
-25.1073
-27.0919
-25.0939
-24.0512
-26.3134
-23.8839
-21.5758
-23.6608
-22.7837
-21.3393
-22.8444
-22.3755
-23.7353
-22.4489
-21.7896
-23.2569
-21.7108
-20.3232
-21.5569
-21.1448
-22.2109
-21.162
-20.6213
-21.7169
-20.5012
-19.4105
-20.288
-19.8429
-19.2427
-19.6818
-19.4088
-19.5818
-19.1441
-18.9064
-18.5948
-18.613
-19.0906
-18.0673
-18.2142
-19.3475
-17.4663
-17.7375
-14.5893
-17.0801
-19.5074
-12.7491
-23.6966
-44.042
-38.3043
-34.6768
-32.7005
-31.5531
-30.8653
-30.4697
-30.2878
-37.3573
-31.0742
-35.1425
-29.2179
-23.8487
-28.5815
-26.2843
-22.9043
-26.3136
-24.7032
-27.8403
-24.958
-23.5186
-27.1827
-23.8433
-20.705
-24.0781
-22.8185
-20.7355
-23.0799
-22.1098
-24.2265
-22.3527
-21.4354
-23.8006
-21.658
-19.7756
-21.7413
-20.922
-22.5965
-21.0787
-20.3418
-22.1274
-20.4562
-18.9982
-20.4497
-19.8221
-18.9979
-19.7337
-19.3004
-19.6414
-19.0567
-18.8279
-18.4311
-18.4553
-19.2507
-17.7419
-17.9487
-19.7557
-16.9828
-17.9304
-13.155
-16.6684
-20.3165
-8.80037
-22.1351
-49.6879
-39.3541
-34.9634
-32.8148
-31.6118
-30.9014
-30.4957
-30.3097
-38.9366
-29.8875
-37.0289
-29.1678
-22.0365
-29.6055
-26.3924
-21.6473
-26.9413
-24.0507
-28.8932
-24.7469
-22.7232
-28.4067
-23.7931
-19.5064
-24.7361
-22.8971
-19.9086
-23.4893
-21.6817
-24.9186
-22.2065
-20.9129
-24.5739
-21.5925
-19.0341
-22.0712
-20.5672
-23.142
-20.9539
-19.9326
-22.7136
-20.4009
-18.44
-20.72
-19.8127
-18.6762
-19.8489
-19.1535
-19.7505
-18.953
-18.7617
-18.2504
-18.261
-19.5329
-17.3345
-17.6051
-20.4027
-16.3119
-18.4347
-11.3179
-16.2671
-21.9391
-3.62824
-19.8443
-57.2132
-40.0278
-35.1112
-32.8707
-31.64
-30.9186
-30.508
-30.3201
)
;

boundaryField
{
    left
    {
        type            calculated;
        value           nonuniform List<scalar> 
32
(
-26.4236
-26.446
-26.4887
-26.5499
-26.6283
-26.7229
-26.8331
-26.9584
-27.0986
-27.2539
-27.4246
-27.6111
-27.8141
-28.0343
-28.273
-28.5312
-28.8104
-29.1122
-29.4384
-29.7913
-30.1732
-30.5874
-31.038
-31.5302
-32.0715
-32.6723
-33.3475
-34.1181
-35.0134
-36.0746
-37.3573
-38.9366
)
;
    }
    right
    {
        type            calculated;
        value           nonuniform List<scalar> 
32
(
-25.7943
-25.829
-25.895
-25.9889
-26.1079
-26.2493
-26.4108
-26.5901
-26.7849
-26.9928
-27.2115
-27.4383
-27.6706
-27.9057
-28.1407
-28.373
-28.5998
-28.8184
-29.0267
-29.2223
-29.4037
-29.5693
-29.7182
-29.8498
-29.9639
-30.0607
-30.1406
-30.2044
-30.2531
-30.2878
-30.3097
-30.3201
)
;
    }
    interface
    {
        type            calculated;
        value           nonuniform List<scalar> 
64
(
-39.8111
-29.1317
-38.1172
-29.1346
-20.9845
-30.2243
-26.4628
-20.9204
-27.3346
-23.6497
-29.5076
-24.6197
-22.249
-29.1207
-23.765
-18.8129
-25.1351
-22.9483
-19.4303
-23.7458
-21.4184
-25.3223
-22.1187
-20.6027
-25.0266
-21.5558
-18.6074
-22.2791
-20.3493
-23.4602
-20.8791
-19.6902
-23.0572
-20.3699
-18.1188
-20.8865
-19.8107
-18.493
-19.9252
-19.0683
-19.8193
-18.8959
-18.7321
-18.1552
-18.1525
-19.7093
-17.1072
-17.4099
-20.7949
-15.9189
-18.7795
-10.2836
-16.0666
-22.9912
-0.699553
-18.4886
-61.5109
-40.2414
-35.1486
-32.8842
-31.6467
-30.9227
-30.5109
-30.3225
)
;
    }
    bottom
    {
        type            calculated;
        value           nonuniform List<scalar> 
64
(
-26.4178
-26.3904
-26.3364
-26.2572
-26.1549
-26.0321
-25.8914
-25.7357
-25.5677
-25.39
-25.2049
-25.0147
-24.8212
-24.6262
-24.4311
-24.2373
-24.0459
-23.8577
-23.6737
-23.4943
-23.3199
-23.1511
-22.9879
-22.8307
-22.6797
-22.5352
-22.3974
-22.2667
-22.1434
-22.028
-21.9212
-21.8235
-21.7356
-21.6585
-21.593
-21.5401
-21.5011
-21.477
-21.469
-21.4784
-21.5065
-21.5545
-21.6236
-21.715
-21.8295
-21.968
-22.1308
-22.3178
-22.5283
-22.7608
-23.0131
-23.2819
-23.5628
-23.8506
-24.1394
-24.4227
-24.6936
-24.9458
-25.1732
-25.3704
-25.5332
-25.6581
-25.7426
-25.7853
)
;
    }
    defaultFaces
    {
        type            empty;
    }
}


// ************************************************************************* //
