/*--------------------------------*- C++ -*----------------------------------*\
| =========                 |                                                 |
| \\      /  F ield         | OpenFOAM: The Open Source CFD Toolbox           |
|  \\    /   O peration     | Version:  5.x                                   |
|   \\  /    A nd           | Web:      www.OpenFOAM.org                      |
|    \\/     M anipulation  |                                                 |
\*---------------------------------------------------------------------------*/
FoamFile
{
    version     2.0;
    format      ascii;
    class       volScalarField;
    location    "14";
    object      gradTx;
}
// * * * * * * * * * * * * * * * * * * * * * * * * * * * * * * * * * * * * * //

dimensions      [0 -1 0 1 0 0 0];

internalField   nonuniform List<scalar> 
2048
(
0.00630499
0.0187344
0.0306387
0.0417201
0.0517498
0.0605783
0.0681352
0.0744185
0.0794777
0.0833958
0.0862724
0.088212
0.0893164
0.0896825
0.0894028
0.0885665
0.0872602
0.0855677
0.0835665
0.0813254
0.0788999
0.0763309
0.0736431
0.0708467
0.0679396
0.0649095
0.0617369
0.0583963
0.0548568
0.0510826
0.0470332
0.0426651
0.0379332
0.0327927
0.0272019
0.0211232
0.0145244
0.00737914
-0.000331961
-0.00862063
-0.0174884
-0.026923
-0.036893
-0.0473411
-0.0581757
-0.0692619
-0.0804129
-0.0913812
-0.101856
-0.111464
-0.119782
-0.12636
-0.130753
-0.13257
-0.131512
-0.127416
-0.120277
-0.110248
-0.0976156
-0.0827651
-0.0661297
-0.0481503
-0.029247
-0.00980741
0.0187886
0.0558181
0.0912567
0.124206
0.15398
0.180137
0.202479
0.221013
0.235901
0.247401
0.255819
0.261469
0.264654
0.26566
0.264759
0.262215
0.258284
0.253216
0.247243
0.240572
0.233368
0.225753
0.217798
0.209533
0.200949
0.192007
0.18265
0.1728
0.162366
0.151241
0.139306
0.126431
0.112478
0.0973166
0.0808198
0.0628761
0.0433898
0.0222828
-0.000503591
-0.0250058
-0.0512315
-0.0791487
-0.10867
-0.139633
-0.171774
-0.204703
-0.237873
-0.270556
-0.30183
-0.330584
-0.355547
-0.375359
-0.388673
-0.39429
-0.391296
-0.379193
-0.357962
-0.328074
-0.290413
-0.246152
-0.196609
-0.143109
-0.0869053
-0.0291383
0.0311402
0.0924834
0.151107
0.205486
0.254473
0.297353
0.333829
0.363955
0.388046
0.406566
0.420045
0.429013
0.43397
0.435383
0.433689
0.429317
0.422688
0.414216
0.404291
0.393256
0.381392
0.368896
0.355884
0.342397
0.328412
0.313862
0.298647
0.282641
0.265695
0.247633
0.228256
0.207347
0.184679
0.160028
0.133187
0.10397
0.0722189
0.0378052
0.000630208
-0.0393708
-0.0822195
-0.127877
-0.176218
-0.226998
-0.27981
-0.334039
-0.388814
-0.442959
-0.494965
-0.542988
-0.584898
-0.618384
-0.641136
-0.651075
-0.646611
-0.626862
-0.591801
-0.542253
-0.479769
-0.40639
-0.324373
-0.235962
-0.143224
-0.0480093
0.0435999
0.129426
0.211275
0.28694
0.354797
0.413873
0.463824
0.50482
0.537389
0.562256
0.580208
0.592003
0.598334
0.599831
0.597084
0.590672
0.581177
0.569181
0.555237
0.539837
0.523378
0.506135
0.48826
0.469793
0.45069
0.430847
0.410118
0.38833
0.365277
0.340718
0.314375
0.285941
0.255093
0.221513
0.184908
0.14502
0.101629
0.0545587
0.0036693
-0.0511378
-0.109909
-0.172618
-0.239125
-0.309136
-0.382139
-0.457342
-0.533591
-0.609303
-0.682408
-0.750332
-0.810044
-0.858204
-0.891419
-0.906594
-0.90133
-0.874292
-0.825433
-0.756013
-0.668381
-0.565593
-0.450974
-0.327745
-0.198793
-0.0666108
0.0563834
0.167269
0.272722
0.369772
0.456286
0.531069
0.593799
0.644855
0.685073
0.715512
0.73726
0.75132
0.758567
0.759772
0.755651
0.74692
0.734317
0.718599
0.700501
0.680678
0.659651
0.637772
0.61522
0.59202
0.56809
0.543275
0.517384
0.490196
0.461456
0.430861
0.398052
0.362625
0.324155
0.282223
0.236445
0.186489
0.132081
0.0729954
0.00905367
-0.0598825
-0.133898
-0.212999
-0.297064
-0.385788
-0.478603
-0.57459
-0.672374
-0.77002
-0.864931
-0.953802
-1.03265
-1.09699
-1.14217
-1.16386
-1.15868
-1.1247
-1.06185
-0.971944
-0.85833
-0.725316
-0.577483
-0.419134
-0.253975
-0.0850562
0.0696954
0.2066
0.336342
0.455073
0.560122
0.650109
0.724842
0.785033
0.831953
0.867091
0.891891
0.90761
0.915287
0.915798
0.90995
0.898573
0.882561
0.86286
0.840411
0.816055
0.790456
0.764041
0.737001
0.709325
0.680866
0.651409
0.620708
0.588505
0.554503
0.518342
0.479583
0.437716
0.3922
0.342503
0.288145
0.228721
0.163906
0.093435
0.0170916
-0.0653065
-0.153897
-0.248743
-0.349775
-0.456722
-0.569014
-0.685671
-0.805169
-0.92529
-1.04297
-1.15417
-1.25391
-1.33641
-1.39553
-1.42543
-1.42143
-1.38086
-1.30358
-1.19214
-1.05119
-0.886624
-0.704542
-0.510466
-0.308918
-0.103385
0.0837401
0.247997
0.403003
0.543882
0.667382
0.772012
0.857844
0.926099
0.978641
1.01751
1.04456
1.06132
1.06894
1.06836
1.06043
1.04605
1.02627
1.00227
0.975209
0.946169
0.915971
0.885118
0.853793
0.821913
0.789239
0.75547
0.720309
0.683466
0.644623
0.603372
0.559191
0.511454
0.459481
0.402612
0.340263
0.271959
0.19733
0.116087
0.0279807
-0.0672178
-0.169713
-0.279651
-0.397053
-0.521728
-0.653162
-0.79039
-0.931827
-1.07506
-1.21664
-1.35184
-1.47461
-1.57773
-1.65327
-1.69348
-1.69204
-1.64521
-1.55281
-1.41831
-1.24811
-1.05014
-0.832386
-0.601756
-0.363565
-0.121568
0.0987291
0.292059
0.473582
0.637211
0.779078
0.897675
0.993531
1.06859
1.12553
1.16706
1.19554
1.21272
1.21985
1.21781
1.20743
1.18968
1.16574
1.13705
1.10507
1.07115
1.03631
1.00113
0.965745
0.929961
0.893401
0.855654
0.816367
0.775242
0.731965
0.686101
0.637039
0.584015
0.526188
0.462743
0.392982
0.316364
0.232494
0.141069
0.0418239
-0.065516
-0.181237
-0.305597
-0.438746
-0.580621
-0.730828
-0.888495
-1.05208
-1.21909
-1.3858
-1.54687
-1.69517
-1.82184
-1.91681
-1.96996
-1.97276
-1.92005
-1.81151
-1.65186
-1.44985
-1.21608
-0.960866
-0.692712
-0.417662
-0.139506
0.114888
0.339415
0.548988
0.736082
0.89618
1.0279
1.13248
1.21288
1.2728
1.31584
1.3449
1.36195
1.3682
1.36441
1.35128
1.32976
1.30122
1.26739
1.23011
1.19108
1.15154
1.11216
1.07298
1.03363
0.993532
0.952138
0.909036
0.863956
0.816632
0.766626
0.713236
0.655529
0.592463
0.523039
0.44643
0.362036
0.26946
0.168418
0.0586424
-0.0601815
-0.188436
-0.326522
-0.474756
-0.633253
-0.801797
-0.979693
-1.16555
-1.35695
-1.55005
-1.73901
-1.91566
-2.0693
-2.18733
-2.25662
-2.26574
-2.20757
-2.08149
-1.89394
-1.65681
-1.38423
-1.08945
-0.782738
-0.470766
-0.157037
0.132464
0.390746
0.630187
0.841548
1.01964
1.16341
1.27513
1.35913
1.42046
1.46378
1.49259
1.50902
1.51413
1.50838
1.49222
1.46655
1.43291
1.39342
1.35039
1.30596
1.26167
1.21824
1.17559
1.13306
1.08981
1.04509
0.998452
0.949698
0.898681
0.844998
0.787847
0.726083
0.658411
0.583605
0.500689
0.409021
0.308236
0.198103
0.0783856
-0.0512657
-0.191344
-0.342427
-0.505041
-0.679521
-0.865881
-1.06368
-1.27181
-1.48811
-1.70879
-1.92774
-2.1358
-2.32033
-2.46572
-2.55508
-2.57313
-2.50998
-2.36451
-2.14548
-1.86905
-1.55402
-1.21724
-0.870955
-0.522259
-0.173941
0.151727
0.446801
0.718221
0.954706
1.15039
1.30484
1.42179
1.50737
1.56832
1.61061
1.63839
1.65385
1.65769
1.6499
1.63052
1.6003
1.56101
1.51525
1.46593
1.41577
1.36666
1.3194
1.27366
1.22841
1.18242
1.13469
1.08474
1.03253
0.978128
0.921227
0.860901
0.795736
0.724115
0.644523
0.555814
0.457324
0.348773
0.230035
0.10094
-0.0388829
-0.190055
-0.353371
-0.529612
-0.719371
-0.922931
-1.14018
-1.37041
-1.6119
-1.86122
-2.11225
-2.35501
-2.57485
-2.75267
-2.86686
-2.89711
-2.82961
-2.66237
-2.40725
-2.08629
-1.72443
-1.34295
-0.956205
-0.571359
-0.189945
0.172982
0.508404
0.814218
1.07671
1.28937
1.45276
1.57266
1.65745
1.71604
1.75592
1.78198
1.79627
1.7989
1.78915
1.76644
1.73128
1.6857
1.63294
1.57671
1.52041
1.46644
1.41562
1.36728
1.31984
1.27156
1.22113
1.16802
1.11247
1.05495
0.995279
0.932399
0.864528
0.789641
0.705862
0.611836
0.506919
0.390984
0.264075
0.126136
-0.0232026
-0.184716
-0.359464
-0.548537
-0.75281
-0.972857
-1.20894
-1.46089
-1.72763
-2.00641
-2.29148
-2.57239
-2.83246
-3.04858
-3.1934
-3.23997
-3.16898
-2.97692
-2.67983
-2.30786
-1.89401
-1.46495
-1.03708
-0.617152
-0.204734
0.196567
0.576468
0.919414
1.2088
1.4375
1.60767
1.72777
1.80907
1.86307
1.89916
1.92293
1.93607
1.93777
1.92631
1.90027
1.85974
1.80715
1.74657
1.68265
1.61975
1.56088
1.50687
1.45653
1.40752
1.35747
1.30462
1.2484
1.18954
1.12907
1.06709
1.00231
0.932482
0.855053
0.767688
0.668778
0.557754
0.434743
0.300038
0.153757
-0.00444255
-0.175516
-0.360862
-0.561934
-0.779909
-1.01564
-1.26979
-1.54284
-1.83459
-2.1433
-2.46415
-2.78671
-3.09238
-3.3536
-3.53604
-3.6042
-3.53096
-3.31019
-2.96365
-2.53268
-2.06089
-1.58123
-1.11198
-0.658617
-0.217962
0.222862
0.652005
1.03516
1.35227
1.5957
1.76997
1.88708
1.96178
2.00874
2.03962
2.06072
2.073
2.07429
2.0616
2.03233
1.986
1.92554
1.85617
1.78368
1.71362
1.6498
1.59309
1.5415
1.49167
1.44042
1.38541
1.32602
1.26369
1.20037
1.13655
1.0706
0.999613
0.920415
0.830076
0.726656
0.609756
0.479897
0.337703
0.183542
0.0171383
-0.162682
-0.35775
-0.569965
-0.800802
-1.05134
-1.32264
-1.61592
-1.93206
-2.27077
-2.62879
-2.99644
-3.35351
-3.66756
-3.89601
-3.99249
-3.91882
-3.66445
-3.25894
-2.75922
-2.22269
-1.6895
-1.17909
-0.694677
-0.229274
0.252294
0.736133
1.16292
1.50851
1.76487
1.93995
2.05039
2.11498
2.15219
2.17646
2.19476
2.20677
2.20845
2.19527
2.16304
2.11038
2.04106
1.96178
1.87966
1.80176
1.73301
1.67422
1.62229
1.5725
1.52071
1.4638
1.401
1.33485
1.26869
1.20352
1.1372
1.06593
0.9858
0.893119
0.785491
0.662836
0.526268
0.376817
0.215191
0.0412456
-0.146465
-0.350339
-0.572828
-0.815688
-1.08011
-1.36749
-1.67989
-2.01944
-2.38766
-2.78375
-3.19972
-3.61435
-3.98993
-4.27436
-4.40779
-4.33645
-4.0423
-3.56568
-2.98537
-2.37655
-1.78713
-1.23656
-0.724242
-0.238318
0.285345
0.830072
1.30429
1.67903
1.94586
2.11778
2.21741
2.26795
2.29243
2.30874
2.32442
2.33713
2.34025
2.32759
2.29286
2.23327
2.15389
2.06344
1.97045
1.88387
1.81021
1.75018
1.69904
1.65027
1.5987
1.54015
1.47349
1.4029
1.33379
1.26783
1.20207
1.13145
1.05129
0.95694
0.845307
0.716887
0.573659
0.4171
0.24837
0.0675545
-0.127134
-0.338851
-0.570748
-0.824823
-1.10219
-1.40446
-1.73463
-2.09623
-2.49285
-2.92723
-3.39443
-3.87302
-4.31975
-4.67187
-4.85335
-4.78851
-4.44678
-3.88352
-3.20837
-2.5191
-1.87131
-1.28246
-0.746273
-0.244771
0.322564
0.935151
1.46098
1.86542
2.13946
2.30347
2.38773
2.41987
2.42829
2.43536
2.44906
2.46387
2.46971
2.45889
2.42237
2.35506
2.26418
2.16119
2.05588
1.95961
1.88109
1.82089
1.77192
1.72525
1.67479
1.61491
1.54366
1.46766
1.39536
1.3293
1.26514
1.19616
1.11699
1.02171
0.906139
0.771778
0.621861
0.458254
0.282712
0.0957136
-0.104966
-0.323501
-0.563963
-0.828521
-1.11792
-1.43378
-1.78019
-2.16208
-2.58529
-3.05733
-3.57816
-4.12726
-4.65561
-5.0889
-5.33269
-5.28067
-4.88146
-4.21166
-3.42468
-2.64643
-1.93906
-1.31496
-0.759839
-0.248354
0.36459
1.05279
1.63483
2.06945
2.34635
2.4968
2.56091
2.56983
2.55849
2.55514
2.56802
2.58684
2.5968
2.58953
2.55231
2.47618
2.37204
2.25513
2.13579
2.02852
1.94524
1.8863
1.84116
1.79769
1.74942
1.68866
1.6117
1.52886
1.45301
1.38769
1.32641
1.26006
1.18301
1.08766
0.968027
0.827345
0.670664
0.49997
0.317818
0.125347
-0.0802365
-0.304485
-0.552709
-0.827144
-1.12774
-1.45578
-1.81674
-2.21688
-2.66402
-3.1721
-3.74827
-4.37449
-4.99558
-5.52516
-5.84957
-5.81997
-5.35065
-4.54861
-3.6298
-2.75419
-1.98739
-1.33241
-0.764183
-0.248859
0.412187
1.18448
1.82774
2.29308
2.56706
2.69728
2.7365
2.7169
2.68154
2.66674
2.68071
2.70603
2.72144
2.71987
2.6836
2.59707
2.47749
2.34541
2.21002
2.09008
2.00219
1.94634
1.90707
1.86783
1.82304
1.76211
1.67783
1.58611
1.50623
1.44281
1.38592
1.32311
1.24945
1.15511
1.03102
0.883377
0.719868
0.541935
0.353255
0.156057
-0.0532128
-0.281966
-0.537208
-0.821096
-1.13215
-1.47087
-1.84461
-2.26078
-2.72828
-3.26953
-3.90188
-4.61183
-5.33722
-5.97944
-6.40785
-6.41518
-5.85948
-4.89195
-3.81813
-2.83755
-2.01338
-1.3334
-0.758771
-0.246157
0.466314
1.33174
2.04162
2.53856
2.80189
2.90405
2.91413
2.86015
2.79582
2.76869
2.7866
2.82164
2.84344
2.85026
2.81745
2.71814
2.58039
2.43228
2.27845
2.14364
2.05135
2.00102
1.97008
1.93582
1.89611
1.8362
1.7423
1.63891
1.55441
1.49443
1.44381
1.38518
1.3164
1.22453
1.09515
0.939584
0.769307
0.583844
0.388552
0.187419
-0.0241491
-0.256051
-0.517647
-0.81082
-1.1318
-1.4795
-1.86424
-2.29428
-2.77755
-3.34765
-4.03594
-4.83624
-5.67768
-6.44921
-7.01135
-7.07747
-6.41416
-5.23784
-3.98281
-2.89141
-2.0144
-1.31693
-0.743342
-0.240216
0.528235
1.49609
2.27835
2.80864
3.05082
3.11569
3.09369
2.99869
2.89946
2.85938
2.88527
2.9342
2.96237
2.98093
2.95551
2.83972
2.68036
2.51621
2.34102
2.18843
2.09201
2.05038
2.03085
2.00167
1.96903
1.91218
1.80538
1.68654
1.59677
1.54239
1.50038
1.44609
1.38391
1.29659
1.16043
0.995559
0.818883
0.625409
0.42319
0.218988
0.00671807
-0.22678
-0.494167
-0.796787
-1.12743
-1.48216
-1.87617
-2.31826
-2.81153
-3.40447
-4.14721
-5.04461
-6.01382
-6.93009
-7.66345
-7.82109
-7.02215
-5.58051
-4.11555
-2.91049
-1.98822
-1.28244
-0.717932
-0.231103
0.5997
1.67891
2.53957
3.10674
3.31338
3.33009
3.27548
3.13177
2.9904
2.93699
2.97643
3.04471
3.07742
3.11196
3.10002
2.96201
2.77661
2.598
2.39771
2.22349
2.12333
2.09452
2.0903
2.06511
2.0421
1.99175
1.86736
1.72807
1.63239
1.58655
1.55618
1.50542
1.45194
1.37224
1.22683
1.05072
0.868618
0.666367
0.456587
0.250292
0.0391699
-0.194105
-0.466841
-0.779491
-1.11991
-1.47927
-1.88092
-2.33412
-2.83024
-3.4381
-4.23222
-5.23394
-6.34258
-7.41523
-8.36664
-8.66445
-7.69242
-5.91141
-4.20654
-2.88964
-1.93325
-1.22993
-0.682893
-0.218984
0.683236
1.88136
2.82647
3.43739
3.58847
3.54414
3.46058
3.25872
3.06623
2.99946
3.05996
3.15489
3.18721
3.24314
3.25414
3.08495
2.86779
2.67895
2.44864
2.24765
2.14425
2.13363
2.1498
2.1255
2.11543
2.07718
1.9285
1.76226
1.66016
1.62682
1.61213
1.5625
1.52031
1.4529
1.2942
1.10423
0.918729
0.706491
0.488085
0.280836
0.0730023
-0.157871
-0.435665
-0.759438
-1.11033
-1.47115
-1.87895
-2.34385
-2.83401
-3.4467
-4.28727
-5.40146
-6.66151
-7.89449
-9.12172
-9.63149
-8.43567
-6.21821
-4.2445
-2.82411
-1.84869
-1.15996
-0.638874
-0.204114
0.782583
2.10422
3.13946
3.80674
3.87412
3.75335
3.65127
3.37904
3.12422
3.04448
3.13585
3.26749
3.28946
3.37378
3.42235
3.20805
2.95171
2.76115
2.49393
2.25947
2.15353
2.16794
2.2114
2.1816
2.18881
2.17163
1.98899
1.78755
1.67876
1.66319
1.66968
1.61624
1.58861
1.54057
1.36224
1.15488
0.969747
0.74558
0.516918
0.310111
0.108017
-0.1178
-0.400537
-0.737124
-1.10001
-1.45795
-1.87047
-2.35025
-2.82345
-3.42858
-4.30827
-5.5448
-6.96961
-8.35345
-9.92673
-10.7534
-9.26453
-6.48342
-4.21682
-2.71
-1.73468
-1.07366
-0.586799
-0.186826
0.903333
2.34761
3.47767
4.22337
4.16718
3.95144
3.85161
3.49225
3.16116
3.06944
3.20417
3.38677
3.38065
3.50249
3.611
3.3302
3.025
2.84785
2.53378
2.25719
2.14969
2.19768
2.27805
2.23135
2.26153
2.27942
2.0488
1.80193
1.68672
1.69565
1.73106
1.66492
1.65608
1.63818
1.43037
1.20098
1.02267
0.783444
0.542183
0.337605
0.144004
-0.0734678
-0.361255
-0.713001
-1.09066
-1.43956
-1.85524
-2.35706
-2.7994
-3.38223
-4.29062
-5.66196
-7.26858
-8.77231
-10.7755
-12.0712
-10.1938
-6.68263
-4.11003
-2.54469
-1.59242
-0.972731
-0.527814
-0.167511
1.05384
2.61073
3.83824
4.6993
4.46283
4.12966
4.06828
3.59777
3.17333
3.07141
3.26487
3.51907
3.45548
3.62684
3.82903
3.44935
3.08269
2.944
2.56826
2.23866
2.131
2.22301
2.3541
2.27149
2.33225
2.40648
2.10752
1.80294
1.68233
1.72415
1.79962
1.70595
1.72146
1.74987
1.4976
1.24012
1.07918
0.819862
0.562802
0.362831
0.180721
-0.0242846
-0.317511
-0.687423
-1.0845
-1.41551
-1.83235
-2.36934
-2.76283
-3.30643
-4.22898
-5.75125
-7.56441
-9.12456
-11.6555
-13.638
-11.2403
-6.78238
-3.91051
-2.32733
-1.42422
-0.859314
-0.463227
-0.146595
1.24646
2.89147
4.21545
5.25145
4.75411
4.27605
4.31164
3.69461
3.15646
3.04719
3.31755
3.67369
3.50627
3.74303
4.08895
3.56213
3.11769
3.05689
2.59713
2.20131
2.09548
2.2438
2.44575
2.29722
2.39866
2.56093
2.16412
1.78763
1.6638
1.74847
1.88017
1.73556
1.78285
1.88148
1.56235
1.26902
1.14194
0.854509
0.57748
0.38537
0.217848
0.0305355
-0.268909
-0.660557
-1.08443
-1.38491
-1.79985
-2.39377
-2.7146
-3.20044
-4.11701
-5.81091
-7.86967
-9.37556
-12.5455
-15.5237
-12.4233
-6.73753
-3.60578
-2.05934
-1.23348
-0.735932
-0.394438
-0.12452
1.49921
3.18588
4.59943
5.90342
5.03108
4.3745
4.59712
3.78083
3.10565
2.99333
3.361
3.86388
3.52216
3.8453
4.40805
3.6633
3.12012
3.19708
2.61956
2.14214
2.04098
2.25937
2.56177
2.30163
2.45721
2.75376
2.21653
1.75253
1.62925
1.76795
1.97959
1.74842
1.83741
2.04109
1.62216
1.28322
1.21493
0.886827
0.584663
0.40493
0.254941
0.0920067
-0.214988
-0.632254
-1.09432
-1.34638
-1.75429
-2.43923
-2.65515
-3.06427
-3.94709
-5.83845
-8.20627
-9.48104
-13.4121
-17.8183
-13.7635
-6.48816
-3.18621
-1.74482
-1.02454
-0.60533
-0.32287
-0.10172
1.83789
3.4876
4.97472
6.68778
5.27998
4.40364
4.94693
3.85284
3.01545
2.90634
3.39256
4.10821
3.4882
3.92537
4.80984
3.7451
3.07657
3.37951
2.63357
2.05774
1.96526
2.2681
2.71437
2.27515
2.50273
2.99969
2.26113
1.69373
1.57688
1.78125
2.10748
1.73711
1.88111
2.23972
1.67342
1.2768
1.30398
0.915853
0.582499
0.421427
0.291354
0.161416
-0.15529
-0.60187
-1.11929
-1.29799
-1.69024
-2.51738
-2.58403
-2.89903
-3.71004
-5.82956
-8.60896
-9.38552
-14.2057
-20.6381
-15.2832
-5.95593
-2.64744
-1.39074
-0.802484
-0.470329
-0.249897
-0.0786063
2.29872
3.78712
5.31832
7.64881
5.48205
4.33553
5.39212
3.90434
2.87995
2.78291
3.40723
4.43216
3.38426
3.97168
5.3258
3.7965
2.96921
3.62484
2.63545
1.94433
1.86617
2.26679
2.92024
2.2048
2.528
3.31827
2.29205
1.60699
1.50512
1.7858
2.27699
1.69161
1.90841
2.49217
1.71095
1.24202
1.41726
0.939958
0.56881
0.435097
0.326146
0.240385
-0.0894463
-0.568016
-1.16603
-1.23726
-1.59959
-2.64356
-2.49925
-2.70751
-3.39489
-5.77645
-9.12943
-9.02078
-14.8556
-24.1314
-17.005
-5.04007
-1.99351
-1.00696
-0.57282
-0.333681
-0.176791
-0.0555481
2.93162
4.07088
5.59746
8.84583
5.6122
4.13418
5.97514
3.92494
2.69304
2.62029
3.3965
4.87011
3.18378
3.96854
5.99742
3.8022
2.77482
3.96111
2.61875
1.79797
1.74184
2.25
3.20185
2.07338
2.52321
3.73505
2.30034
1.4879
1.41292
1.77724
2.50578
1.59865
1.91184
2.81793
1.72749
1.16895
1.56597
0.956516
0.541077
0.446626
0.357955
0.330946
-0.0173202
-0.528248
-1.24326
-1.16114
-1.47076
-2.8377
-2.39642
-2.49475
-2.98877
-5.66558
-9.84113
-8.30454
-15.2643
-28.486
-18.9507
-3.6129
-1.24082
-0.60581
-0.341145
-0.197924
-0.104675
-0.032867
3.80389
4.32033
5.76704
10.3569
5.63739
3.75399
6.75264
3.89836
2.44877
2.41679
3.34683
5.46757
2.85237
3.89519
6.87842
3.74154
2.46372
4.42557
2.57324
1.61475
1.5911
2.20894
3.58889
1.85857
2.47546
4.28299
2.27282
1.33221
1.29997
1.74858
2.81721
1.44095
1.88164
3.24225
1.7132
1.04507
1.76516
0.961474
0.496461
0.457309
0.384854
0.435652
0.0608022
-0.47867
-1.36213
-1.06616
-1.28779
-3.12561
-2.26761
-2.26896
-2.47701
-5.47483
-10.8446
-7.13927
-15.3011
-33.9367
-21.1392
-1.51515
-0.422852
-0.201266
-0.112737
-0.0652797
-0.0344962
-0.0108291
)
;

boundaryField
{
    left
    {
        type            calculated;
        value           uniform 0;
    }
    right
    {
        type            calculated;
        value           uniform 0;
    }
    interface
    {
        type            calculated;
        value           nonuniform List<scalar> 
64
(
3.80389
4.32033
5.76704
10.3569
5.63739
3.75399
6.75264
3.89836
2.44877
2.41679
3.34683
5.46757
2.85237
3.89519
6.87842
3.74154
2.46372
4.42557
2.57324
1.61475
1.5911
2.20894
3.58889
1.85857
2.47546
4.28299
2.27282
1.33221
1.29997
1.74858
2.81721
1.44095
1.88164
3.24225
1.7132
1.04507
1.76516
0.961474
0.496461
0.457309
0.384854
0.435652
0.0608022
-0.47867
-1.36213
-1.06616
-1.28779
-3.12561
-2.26761
-2.26896
-2.47701
-5.47483
-10.8446
-7.13927
-15.3011
-33.9367
-21.1392
-1.51515
-0.422852
-0.201266
-0.112737
-0.0652797
-0.0344962
-0.0108291
)
;
    }
    bottom
    {
        type            calculated;
        value           nonuniform List<scalar> 
64
(
0.00630499
0.0187344
0.0306387
0.0417201
0.0517498
0.0605783
0.0681352
0.0744185
0.0794777
0.0833958
0.0862724
0.088212
0.0893164
0.0896825
0.0894028
0.0885665
0.0872602
0.0855677
0.0835665
0.0813254
0.0788999
0.0763309
0.0736431
0.0708467
0.0679396
0.0649095
0.0617369
0.0583963
0.0548568
0.0510826
0.0470332
0.0426651
0.0379332
0.0327927
0.0272019
0.0211232
0.0145244
0.00737914
-0.000331961
-0.00862063
-0.0174884
-0.026923
-0.036893
-0.0473411
-0.0581757
-0.0692619
-0.0804129
-0.0913812
-0.101856
-0.111464
-0.119782
-0.12636
-0.130753
-0.13257
-0.131512
-0.127416
-0.120277
-0.110248
-0.0976156
-0.0827651
-0.0661297
-0.0481503
-0.029247
-0.00980741
)
;
    }
    defaultFaces
    {
        type            empty;
    }
}


// ************************************************************************* //
