/*--------------------------------*- C++ -*----------------------------------*\
| =========                 |                                                 |
| \\      /  F ield         | OpenFOAM: The Open Source CFD Toolbox           |
|  \\    /   O peration     | Version:  5.x                                   |
|   \\  /    A nd           | Web:      www.OpenFOAM.org                      |
|    \\/     M anipulation  |                                                 |
\*---------------------------------------------------------------------------*/
FoamFile
{
    version     2.0;
    format      ascii;
    class       volScalarField;
    location    "3.2001";
    object      T;
}
// * * * * * * * * * * * * * * * * * * * * * * * * * * * * * * * * * * * * * //

dimensions      [0 0 0 1 0 0 0];

internalField   nonuniform List<scalar> 
6300
(
322.85
322.549
322.247
321.943
321.637
321.328
321.015
320.698
320.376
320.049
319.717
319.379
319.035
318.686
318.33
322.85
322.55
322.248
321.945
321.64
321.331
321.019
320.702
320.381
320.055
319.723
319.385
319.041
318.692
318.336
322.851
322.552
322.252
321.95
321.646
321.338
321.027
320.712
320.392
320.066
319.734
319.397
319.053
318.703
318.347
322.852
322.555
322.257
321.957
321.655
321.35
321.04
320.726
320.407
320.082
319.752
319.415
319.071
318.721
318.365
322.853
322.559
322.264
321.967
321.667
321.364
321.057
320.746
320.428
320.105
319.776
319.439
319.096
318.745
318.388
322.855
322.565
322.273
321.979
321.683
321.383
321.079
320.77
320.456
320.134
319.806
319.471
319.127
318.776
318.418
322.857
322.571
322.284
321.995
321.703
321.407
321.107
320.801
320.489
320.171
319.844
319.51
319.167
318.815
318.455
322.86
322.579
322.297
322.013
321.725
321.435
321.139
320.838
320.53
320.214
319.89
319.557
319.215
318.862
318.499
322.863
322.588
322.312
322.033
321.752
321.467
321.177
320.881
320.578
320.267
319.946
319.615
319.273
318.919
318.553
322.866
322.598
322.329
322.057
321.783
321.504
321.221
320.931
320.634
320.328
320.012
319.684
319.342
318.987
318.618
322.87
322.61
322.348
322.084
321.818
321.547
321.271
320.989
320.699
320.4
320.089
319.765
319.426
319.07
318.696
322.874
322.622
322.369
322.114
321.856
321.594
321.328
321.055
320.774
320.483
320.18
319.862
319.527
319.171
318.793
322.879
322.636
322.392
322.147
321.899
321.647
321.39
321.128
320.858
320.578
320.285
319.977
319.648
319.295
318.914
322.884
322.651
322.417
322.182
321.945
321.704
321.459
321.209
320.952
320.686
320.407
320.111
319.793
319.448
319.07
322.889
322.667
322.444
322.22
321.994
321.765
321.534
321.298
321.056
320.806
320.545
320.268
319.967
319.632
319.261
317.999
317.695
317.387
317.075
316.76
316.443
316.122
315.799
315.474
315.146
314.817
314.485
314.153
313.819
313.483
313.147
312.81
312.473
312.135
311.797
311.459
311.121
310.783
310.444
310.106
309.768
309.43
309.091
308.753
308.415
308.077
307.74
307.403
307.066
306.73
306.394
306.058
305.723
305.389
305.054
304.72
304.387
304.053
303.72
303.387
303.055
302.723
302.392
302.061
301.731
301.401
301.072
300.743
300.415
300.087
299.76
299.433
299.107
298.781
298.455
298.13
297.806
297.482
297.158
296.836
296.514
296.193
295.872
295.552
295.232
294.913
294.595
294.277
293.959
293.642
293.325
293.009
292.693
292.378
292.063
291.749
291.434
291.12
290.806
290.491
290.176
289.86
289.543
289.226
288.907
318.005
317.7
317.392
317.08
316.765
316.447
316.126
315.803
315.477
315.149
314.819
314.488
314.155
313.82
313.484
313.148
312.811
312.473
312.135
311.797
311.459
311.121
310.783
310.444
310.106
309.768
309.43
309.091
308.753
308.415
308.077
307.739
307.402
307.065
306.729
306.393
306.058
305.723
305.388
305.054
304.72
304.386
304.053
303.72
303.387
303.054
302.722
302.391
302.06
301.73
301.4
301.071
300.743
300.414
300.087
299.76
299.433
299.106
298.78
298.454
298.129
297.805
297.481
297.157
296.835
296.513
296.192
295.871
295.551
295.232
294.913
294.594
294.276
293.958
293.641
293.324
293.008
292.692
292.377
292.063
291.748
291.434
291.12
290.806
290.492
290.177
289.861
289.545
289.227
288.908
318.016
317.71
317.401
317.089
316.773
316.455
316.133
315.809
315.483
315.155
314.824
314.492
314.158
313.823
313.487
313.15
312.812
312.474
312.136
311.798
311.459
311.121
310.783
310.444
310.106
309.768
309.429
309.091
308.753
308.414
308.076
307.738
307.401
307.064
306.727
306.392
306.056
305.722
305.387
305.053
304.719
304.385
304.052
303.719
303.386
303.053
302.721
302.389
302.058
301.728
301.398
301.069
300.741
300.413
300.086
299.758
299.432
299.105
298.779
298.453
298.128
297.803
297.479
297.155
296.833
296.511
296.19
295.869
295.549
295.23
294.911
294.593
294.274
293.957
293.639
293.323
293.006
292.691
292.376
292.062
291.748
291.434
291.121
290.807
290.493
290.179
289.864
289.547
289.23
288.911
318.032
317.726
317.416
317.102
316.786
316.466
316.144
315.819
315.492
315.163
314.832
314.499
314.164
313.828
313.491
313.153
312.814
312.475
312.136
311.798
311.459
311.121
310.783
310.444
310.106
309.768
309.429
309.091
308.752
308.413
308.075
307.736
307.399
307.062
306.725
306.39
306.054
305.72
305.386
305.052
304.718
304.384
304.051
303.717
303.384
303.051
302.718
302.386
302.055
301.725
301.396
301.067
300.739
300.411
300.084
299.757
299.43
299.103
298.777
298.451
298.125
297.8
297.476
297.152
296.829
296.508
296.187
295.867
295.547
295.228
294.909
294.591
294.273
293.955
293.637
293.32
293.004
292.688
292.374
292.06
291.746
291.434
291.121
290.809
290.496
290.182
289.868
289.552
289.234
288.915
318.054
317.747
317.435
317.121
316.803
316.482
316.159
315.833
315.505
315.175
314.842
314.508
314.172
313.834
313.496
313.156
312.816
312.476
312.137
311.798
311.459
311.121
310.782
310.445
310.106
309.768
309.429
309.09
308.751
308.412
308.073
307.734
307.396
307.058
306.722
306.386
306.052
305.718
305.384
305.05
304.717
304.383
304.049
303.715
303.381
303.048
302.715
302.383
302.051
301.721
301.392
301.063
300.736
300.409
300.082
299.755
299.428
299.101
298.774
298.448
298.121
297.796
297.471
297.147
296.825
296.503
296.183
295.863
295.544
295.225
294.907
294.588
294.27
293.952
293.634
293.317
293
292.685
292.37
292.057
291.744
291.433
291.122
290.811
290.499
290.187
289.873
289.558
289.241
288.922
318.082
317.773
317.46
317.143
316.824
316.501
316.177
315.85
315.52
315.189
314.855
314.519
314.182
313.842
313.501
313.16
312.818
312.477
312.137
311.797
311.458
311.12
310.782
310.445
310.107
309.769
309.43
309.091
308.75
308.41
308.07
307.73
307.391
307.054
306.717
306.382
306.048
305.715
305.382
305.049
304.715
304.382
304.048
303.713
303.378
303.044
302.71
302.377
302.046
301.716
301.387
301.059
300.732
300.406
300.079
299.753
299.426
299.099
298.772
298.444
298.117
297.791
297.465
297.141
296.819
296.498
296.178
295.859
295.54
295.222
294.904
294.586
294.267
293.949
293.63
293.312
292.995
292.68
292.365
292.052
291.741
291.431
291.122
290.813
290.504
290.194
289.882
289.567
289.251
288.931
318.117
317.805
317.49
317.17
316.848
316.524
316.198
315.87
315.539
315.207
314.872
314.534
314.194
313.852
313.508
313.164
312.82
312.477
312.135
311.795
311.456
311.118
310.782
310.445
310.108
309.771
309.432
309.091
308.75
308.408
308.067
307.725
307.385
307.047
306.711
306.376
306.043
305.711
305.379
305.047
304.715
304.381
304.047
303.711
303.375
303.039
302.704
302.37
302.038
301.708
301.38
301.053
300.728
300.402
300.077
299.751
299.425
299.097
298.769
298.44
298.111
297.784
297.457
297.133
296.81
296.49
296.171
295.853
295.536
295.219
294.902
294.584
294.265
293.945
293.626
293.307
292.988
292.672
292.358
292.046
291.736
291.428
291.122
290.816
290.51
290.203
289.893
289.58
289.264
288.944
318.159
317.844
317.524
317.201
316.876
316.55
316.222
315.892
315.561
315.228
314.891
314.552
314.209
313.863
313.516
313.168
312.821
312.475
312.131
311.79
311.452
311.116
310.781
310.446
310.111
309.774
309.435
309.094
308.751
308.407
308.062
307.719
307.377
307.038
306.702
306.368
306.037
305.707
305.377
305.047
304.716
304.382
304.047
303.71
303.372
303.033
302.696
302.361
302.028
301.698
301.371
301.046
300.722
300.399
300.076
299.751
299.425
299.096
298.766
298.436
298.105
297.775
297.447
297.122
296.799
296.48
296.163
295.847
295.532
295.217
294.9
294.582
294.263
293.942
293.62
293.299
292.979
292.662
292.347
292.036
291.728
291.424
291.121
290.82
290.518
290.215
289.909
289.599
289.283
288.963
318.208
317.888
317.563
317.235
316.906
316.577
316.248
315.918
315.587
315.253
314.916
314.574
314.228
313.878
313.525
313.171
312.819
312.469
312.123
311.782
311.445
311.111
310.779
310.448
310.115
309.78
309.441
309.099
308.753
308.405
308.056
307.709
307.365
307.024
306.689
306.357
306.028
305.702
305.376
305.049
304.719
304.386
304.05
303.71
303.368
303.026
302.685
302.347
302.013
301.684
301.358
301.036
300.716
300.397
300.076
299.753
299.427
299.098
298.766
298.431
298.096
297.763
297.432
297.106
296.784
296.466
296.152
295.84
295.528
295.216
294.901
294.584
294.263
293.94
293.615
293.29
292.966
292.647
292.331
292.021
291.716
291.416
291.119
290.823
290.528
290.231
289.93
289.624
289.31
288.989
318.266
317.939
317.606
317.271
316.937
316.605
316.275
315.946
315.616
315.284
314.946
314.603
314.252
313.896
313.535
313.173
312.813
312.458
312.109
311.768
311.433
311.104
310.777
310.452
310.123
309.791
309.453
309.109
308.758
308.404
308.049
307.695
307.347
307.005
306.669
306.341
306.017
305.697
305.376
305.054
304.728
304.395
304.057
303.713
303.366
303.017
302.67
302.328
301.992
301.663
301.341
301.024
300.71
300.396
300.08
299.76
299.435
299.104
298.767
298.427
298.086
297.747
297.412
297.084
296.763
296.448
296.138
295.832
295.526
295.218
294.906
294.589
294.267
293.94
293.609
293.278
292.949
292.625
292.308
291.999
291.698
291.403
291.113
290.827
290.541
290.253
289.96
289.66
289.349
289.026
318.336
317.998
317.653
317.307
316.964
316.629
316.299
315.974
315.65
315.321
314.986
314.641
314.285
313.92
313.547
313.172
312.8
312.437
312.085
311.744
311.414
311.092
310.775
310.458
310.138
309.811
309.474
309.127
308.769
308.405
308.038
307.675
307.319
306.975
306.641
306.317
306.002
305.69
305.38
305.065
304.744
304.413
304.072
303.722
303.365
303.005
302.648
302.299
301.961
301.634
301.317
301.007
300.702
300.398
300.089
299.775
299.451
299.117
298.774
298.425
298.072
297.724
297.383
297.052
296.732
296.422
296.12
295.823
295.525
295.225
294.918
294.603
294.278
293.944
293.604
293.262
292.924
292.593
292.274
291.966
291.67
291.383
291.104
290.829
290.556
290.281
290.001
289.71
289.404
289.08
318.422
318.068
317.701
317.336
316.982
316.644
316.318
316.002
315.688
315.369
315.039
314.694
314.333
313.954
313.563
313.165
312.775
312.4
312.043
311.705
311.383
311.073
310.771
310.47
310.162
309.843
309.509
309.159
308.791
308.41
308.023
307.643
307.277
306.928
306.598
306.283
305.979
305.684
305.388
305.086
304.773
304.446
304.102
303.741
303.367
302.988
302.615
302.256
301.914
301.59
301.281
300.984
300.694
300.404
300.109
299.802
299.481
299.144
298.791
298.425
298.054
297.689
297.338
297.005
296.687
296.386
296.096
295.812
295.53
295.242
294.943
294.63
294.302
293.958
293.602
293.241
292.887
292.546
292.223
291.917
291.628
291.353
291.088
290.829
290.573
290.317
290.057
289.783
289.487
289.16
318.534
318.155
317.745
317.35
316.979
316.639
316.323
316.027
315.735
315.432
315.114
314.771
314.405
314.008
313.587
313.148
312.729
312.336
311.976
311.642
311.334
311.044
310.767
310.491
310.203
309.898
309.569
309.216
308.831
308.423
307.997
307.591
307.208
306.857
306.531
306.231
305.947
305.676
305.406
305.123
304.824
304.501
304.155
303.778
303.378
302.961
302.562
302.187
301.843
301.523
301.228
300.95
300.685
300.42
300.143
299.85
299.534
299.195
298.826
298.435
298.026
297.636
297.269
296.933
296.62
296.332
296.061
295.802
295.543
295.273
294.988
294.679
294.349
293.989
293.608
293.21
292.83
292.473
292.147
291.844
291.566
291.306
291.063
290.825
290.589
290.36
290.132
289.889
289.613
289.286
318.693
318.287
317.767
317.33
316.929
316.601
316.301
316.046
315.797
315.516
315.224
314.883
314.523
314.094
313.638
313.101
312.647
312.224
311.872
311.541
311.26
310.994
310.762
310.531
310.267
309.989
309.663
309.317
308.904
308.463
307.944
307.504
307.094
306.751
306.428
306.154
305.895
305.668
305.441
305.183
304.91
304.591
304.252
303.848
303.415
302.906
302.475
302.073
301.737
301.421
301.152
300.897
300.675
300.453
300.2
299.933
299.62
299.288
298.892
298.469
297.971
297.549
297.155
296.827
296.518
296.256
296.007
295.79
295.573
295.326
295.066
294.761
294.437
294.051
293.638
293.152
292.741
292.357
292.036
291.735
291.479
291.237
291.028
290.821
290.594
290.402
290.228
290.043
289.815
289.497
318.943
318.581
317.672
317.257
316.774
316.524
316.213
316.056
315.905
315.618
315.404
315.021
314.739
314.221
313.804
312.934
312.519
312.011
311.736
311.368
311.164
310.895
310.756
310.617
310.35
310.148
309.785
309.515
309.019
308.616
307.776
307.375
306.882
306.615
306.256
306.058
305.795
305.659
305.523
305.262
305.064
304.708
304.444
303.957
303.563
302.739
302.346
301.863
301.601
301.25
301.055
300.798
300.665
300.532
300.275
300.082
299.733
299.474
298.997
298.611
297.805
297.421
296.948
296.692
296.349
296.159
295.908
295.778
295.648
295.397
295.209
294.868
294.616
294.151
293.774
292.987
292.612
292.149
291.899
291.56
291.372
291.121
290.989
290.847
290.546
290.42
290.34
290.26
290.143
289.904
288.555
288.171
287.785
287.399
287.013
286.627
286.241
285.856
285.472
285.089
284.708
284.327
283.947
283.568
283.189
288.557
288.172
287.786
287.399
287.012
286.626
286.24
285.855
285.471
285.088
284.707
284.326
283.946
283.568
283.189
288.559
288.173
287.787
287.4
287.012
286.625
286.238
285.853
285.469
285.086
284.705
284.324
283.945
283.567
283.189
288.563
288.176
287.789
287.4
287.011
286.623
286.236
285.85
285.465
285.082
284.701
284.321
283.943
283.565
283.188
288.569
288.181
287.791
287.401
287.01
286.62
286.232
285.845
285.46
285.077
284.696
284.317
283.94
283.563
283.188
288.577
288.187
287.795
287.402
287.008
286.616
286.226
285.838
285.452
285.07
284.69
284.312
283.936
283.561
283.187
288.588
288.195
287.799
287.402
287.005
286.61
286.218
285.828
285.442
285.06
284.681
284.304
283.93
283.557
283.186
288.604
288.207
287.805
287.403
287.001
286.602
286.206
285.815
285.429
285.047
284.669
284.295
283.923
283.553
283.184
288.626
288.222
287.813
287.402
286.993
286.589
286.19
285.798
285.411
285.03
284.654
284.282
283.914
283.547
283.182
288.658
288.243
287.821
287.399
286.982
286.571
286.168
285.774
285.388
285.008
284.635
284.267
283.902
283.54
283.18
288.702
288.27
287.831
287.393
286.963
286.544
286.138
285.742
285.357
284.98
284.611
284.247
283.888
283.532
283.177
288.766
288.306
287.838
287.378
286.933
286.506
286.096
285.701
285.318
284.945
284.581
284.223
283.871
283.521
283.173
288.86
288.349
287.837
287.348
286.886
286.451
286.039
285.646
285.268
284.902
284.545
284.195
283.85
283.509
283.169
288.999
288.393
287.815
287.289
286.812
286.373
285.964
285.577
285.207
284.849
284.502
284.161
283.826
283.494
283.165
289.203
288.408
287.74
287.182
286.699
286.266
285.866
285.491
285.133
284.787
284.451
284.122
283.798
283.478
283.159
322.894
322.682
322.469
322.256
322.041
321.824
321.606
321.384
321.158
320.926
320.686
320.433
320.156
319.833
319.413
322.899
322.696
322.493
322.289
322.085
321.88
321.673
321.465
321.255
321.042
320.824
320.6
320.361
320.083
319.664
322.903
322.71
322.517
322.324
322.13
321.936
321.742
321.548
321.354
321.16
320.967
320.777
320.593
320.432
320.377
322.908
322.725
322.541
322.358
322.175
321.992
321.811
321.63
321.452
321.277
321.108
320.949
320.809
320.707
320.67
322.913
322.739
322.565
322.392
322.219
322.048
321.879
321.712
321.548
321.391
321.242
321.108
321
320.936
320.96
322.918
322.753
322.589
322.425
322.263
322.103
321.945
321.79
321.64
321.498
321.366
321.25
321.159
321.105
321.096
322.922
322.767
322.612
322.458
322.306
322.156
322.008
321.865
321.728
321.598
321.478
321.374
321.292
321.241
321.24
322.927
322.78
322.634
322.49
322.347
322.207
322.069
321.937
321.809
321.69
321.58
321.483
321.403
321.344
321.306
322.931
322.793
322.656
322.52
322.387
322.255
322.127
322.004
321.886
321.775
321.673
321.581
321.501
321.431
321.36
322.935
322.806
322.677
322.55
322.424
322.302
322.182
322.067
321.958
321.854
321.759
321.671
321.591
321.518
321.454
322.939
322.817
322.697
322.577
322.46
322.345
322.234
322.127
322.025
321.929
321.839
321.755
321.676
321.6
321.516
322.943
322.829
322.715
322.604
322.494
322.387
322.283
322.183
322.088
321.999
321.914
321.835
321.76
321.686
321.618
322.946
322.839
322.733
322.629
322.526
322.426
322.329
322.237
322.148
322.065
321.986
321.912
321.841
321.77
321.685
322.95
322.85
322.75
322.652
322.556
322.463
322.373
322.287
322.205
322.128
322.055
321.988
321.924
321.861
321.8
322.953
322.859
322.766
322.674
322.585
322.498
322.414
322.334
322.258
322.187
322.121
322.061
322.006
321.952
321.885
322.956
322.868
322.781
322.695
322.611
322.53
322.452
322.377
322.307
322.242
322.183
322.13
322.086
322.053
322.05
322.959
322.876
322.795
322.714
322.636
322.56
322.487
322.418
322.354
322.294
322.241
322.194
322.158
322.134
322.125
322.961
322.884
322.808
322.732
322.659
322.588
322.52
322.456
322.396
322.341
322.293
322.252
322.221
322.203
322.209
322.964
322.891
322.82
322.749
322.681
322.614
322.551
322.491
322.435
322.385
322.34
322.302
322.274
322.257
322.251
322.966
322.898
322.831
322.765
322.7
322.638
322.579
322.523
322.471
322.423
322.382
322.347
322.32
322.304
322.302
322.968
322.904
322.841
322.779
322.719
322.66
322.605
322.552
322.503
322.458
322.419
322.385
322.359
322.34
322.328
322.97
322.91
322.851
322.792
322.736
322.681
322.628
322.579
322.532
322.49
322.452
322.419
322.392
322.371
322.36
322.972
322.915
322.859
322.805
322.751
322.699
322.65
322.603
322.559
322.518
322.482
322.449
322.42
322.396
322.375
322.973
322.92
322.868
322.816
322.765
322.717
322.67
322.625
322.583
322.544
322.508
322.475
322.445
322.417
322.388
322.975
322.925
322.875
322.826
322.779
322.732
322.688
322.646
322.606
322.568
322.533
322.5
322.469
322.44
322.412
322.976
322.929
322.882
322.836
322.791
322.747
322.705
322.665
322.626
322.59
322.556
322.524
322.492
322.462
322.428
322.978
322.933
322.888
322.845
322.802
322.76
322.72
322.682
322.645
322.611
322.578
322.546
322.515
322.485
322.455
322.979
322.936
322.894
322.853
322.812
322.773
322.735
322.698
322.663
322.63
322.598
322.568
322.538
322.508
322.474
322.98
322.94
322.9
322.86
322.822
322.784
322.748
322.713
322.68
322.648
322.618
322.589
322.561
322.533
322.506
322.981
322.943
322.905
322.867
322.831
322.795
322.761
322.727
322.696
322.666
322.637
322.61
322.584
322.559
322.529
322.982
322.945
322.909
322.874
322.839
322.805
322.772
322.741
322.71
322.682
322.655
322.63
322.607
322.587
322.576
322.983
322.948
322.914
322.88
322.846
322.814
322.783
322.753
322.724
322.697
322.671
322.648
322.627
322.61
322.597
322.983
322.95
322.917
322.885
322.853
322.822
322.792
322.764
322.736
322.71
322.686
322.665
322.646
322.63
322.622
322.984
322.952
322.921
322.89
322.86
322.83
322.801
322.774
322.748
322.723
322.7
322.679
322.661
322.646
322.634
322.985
322.954
322.924
322.895
322.866
322.837
322.81
322.783
322.758
322.734
322.712
322.692
322.674
322.659
322.649
322.985
322.956
322.927
322.899
322.871
322.844
322.817
322.792
322.767
322.744
322.723
322.703
322.685
322.67
322.656
322.986
322.958
322.93
322.903
322.876
322.849
322.824
322.799
322.776
322.753
322.732
322.713
322.695
322.679
322.666
322.986
322.959
322.933
322.906
322.88
322.855
322.83
322.806
322.783
322.761
322.741
322.721
322.703
322.686
322.67
322.987
322.961
322.935
322.909
322.884
322.86
322.836
322.812
322.79
322.769
322.748
322.729
322.71
322.692
322.674
322.987
322.962
322.937
322.912
322.888
322.864
322.841
322.818
322.796
322.775
322.755
322.736
322.717
322.699
322.681
322.988
322.963
322.939
322.915
322.891
322.868
322.845
322.823
322.802
322.781
322.761
322.742
322.723
322.705
322.686
322.988
322.964
322.941
322.917
322.894
322.871
322.849
322.828
322.807
322.787
322.767
322.748
322.73
322.711
322.693
322.988
322.965
322.942
322.919
322.897
322.875
322.853
322.832
322.812
322.792
322.773
322.754
322.736
322.718
322.699
322.989
322.966
322.943
322.921
322.899
322.877
322.856
322.836
322.816
322.796
322.778
322.759
322.742
322.724
322.707
322.989
322.967
322.945
322.923
322.901
322.88
322.859
322.839
322.82
322.801
322.782
322.765
322.748
322.731
322.713
322.989
322.967
322.946
322.924
322.903
322.882
322.862
322.842
322.823
322.804
322.787
322.769
322.753
322.738
322.726
322.989
322.968
322.946
322.925
322.904
322.884
322.864
322.845
322.826
322.808
322.79
322.774
322.758
322.744
322.731
322.989
322.968
322.947
322.926
322.906
322.885
322.866
322.847
322.828
322.81
322.793
322.777
322.762
322.748
322.736
322.989
322.968
322.948
322.927
322.907
322.887
322.867
322.848
322.83
322.813
322.796
322.78
322.765
322.752
322.739
322.99
322.969
322.948
322.927
322.907
322.888
322.868
322.85
322.831
322.814
322.798
322.782
322.767
322.754
322.742
322.99
322.969
322.948
322.928
322.908
322.888
322.869
322.85
322.832
322.815
322.799
322.783
322.769
322.756
322.743
322.99
322.969
322.948
322.928
322.908
322.888
322.869
322.851
322.833
322.816
322.799
322.784
322.77
322.756
322.744
322.99
322.969
322.948
322.928
322.908
322.888
322.869
322.85
322.833
322.816
322.799
322.784
322.77
322.757
322.744
322.99
322.969
322.948
322.927
322.907
322.887
322.868
322.85
322.832
322.815
322.799
322.784
322.769
322.756
322.744
322.989
322.968
322.947
322.927
322.906
322.887
322.867
322.849
322.831
322.814
322.797
322.782
322.768
322.755
322.743
322.989
322.968
322.947
322.926
322.905
322.885
322.866
322.847
322.829
322.812
322.795
322.78
322.766
322.754
322.742
322.989
322.967
322.946
322.925
322.904
322.883
322.864
322.845
322.826
322.809
322.793
322.778
322.764
322.751
322.74
322.989
322.967
322.945
322.923
322.902
322.881
322.861
322.842
322.823
322.806
322.789
322.774
322.76
322.747
322.737
322.989
322.966
322.944
322.922
322.9
322.879
322.858
322.839
322.82
322.802
322.785
322.769
322.755
322.742
322.731
322.988
322.965
322.942
322.92
322.897
322.876
322.855
322.835
322.815
322.797
322.78
322.764
322.749
322.735
322.725
322.988
322.964
322.941
322.917
322.894
322.872
322.851
322.83
322.81
322.792
322.774
322.757
322.742
322.727
322.711
322.988
322.963
322.939
322.915
322.891
322.868
322.846
322.825
322.805
322.785
322.767
322.75
322.734
322.718
322.704
322.987
322.962
322.936
322.912
322.887
322.864
322.841
322.819
322.798
322.779
322.76
322.742
322.726
322.71
322.693
322.987
322.96
322.934
322.908
322.883
322.859
322.835
322.812
322.791
322.771
322.752
322.734
322.717
322.701
322.686
322.986
322.959
322.931
322.904
322.878
322.853
322.828
322.805
322.783
322.762
322.743
322.725
322.708
322.692
322.676
322.986
322.957
322.928
322.9
322.873
322.846
322.821
322.797
322.774
322.753
322.733
322.715
322.699
322.683
322.669
322.985
322.955
322.925
322.895
322.867
322.839
322.813
322.788
322.764
322.742
322.722
322.704
322.688
322.673
322.659
322.984
322.952
322.921
322.89
322.86
322.831
322.804
322.777
322.753
322.73
322.71
322.692
322.677
322.664
322.653
322.983
322.95
322.917
322.884
322.853
322.822
322.793
322.766
322.74
322.717
322.696
322.678
322.664
322.652
322.646
322.982
322.947
322.912
322.878
322.845
322.812
322.782
322.753
322.726
322.702
322.68
322.662
322.648
322.638
322.632
322.981
322.944
322.907
322.871
322.836
322.802
322.769
322.739
322.711
322.685
322.662
322.643
322.629
322.62
322.619
322.98
322.941
322.901
322.863
322.826
322.79
322.755
322.723
322.693
322.666
322.642
322.622
322.607
322.597
322.594
322.979
322.937
322.895
322.855
322.815
322.777
322.74
322.706
322.673
322.644
322.618
322.596
322.58
322.571
322.573
322.978
322.933
322.889
322.845
322.803
322.762
322.723
322.686
322.652
322.62
322.592
322.568
322.548
322.535
322.531
322.976
322.929
322.882
322.835
322.79
322.747
322.705
322.666
322.629
322.594
322.563
322.535
322.512
322.495
322.493
322.975
322.924
322.874
322.824
322.776
322.73
322.685
322.643
322.603
322.566
322.532
322.5
322.471
322.443
322.408
322.973
322.919
322.865
322.813
322.762
322.712
322.664
322.619
322.576
322.536
322.498
322.463
322.429
322.397
322.365
322.971
322.913
322.856
322.8
322.745
322.692
322.642
322.593
322.547
322.504
322.463
322.425
322.387
322.349
322.305
322.969
322.907
322.847
322.787
322.728
322.672
322.617
322.565
322.516
322.47
322.426
322.385
322.346
322.307
322.27
322.967
322.901
322.836
322.772
322.71
322.649
322.591
322.536
322.483
322.434
322.388
322.345
322.304
322.262
322.216
322.965
322.894
322.825
322.756
322.69
322.625
322.563
322.504
322.448
322.396
322.348
322.303
322.261
322.221
322.184
322.962
322.887
322.813
322.74
322.668
322.599
322.533
322.47
322.411
322.356
322.306
322.26
322.218
322.178
322.136
322.96
322.879
322.8
322.722
322.645
322.571
322.5
322.433
322.37
322.313
322.26
322.213
322.172
322.137
322.108
322.957
322.871
322.786
322.702
322.62
322.541
322.465
322.393
322.326
322.265
322.211
322.163
322.123
322.091
322.074
322.954
322.862
322.771
322.682
322.594
322.509
322.427
322.35
322.279
322.213
322.156
322.108
322.068
322.035
321.995
322.951
322.853
322.755
322.66
322.566
322.474
322.386
322.303
322.226
322.156
322.096
322.046
322.009
321.983
321.96
322.948
322.843
322.739
322.636
322.535
322.437
322.342
322.252
322.168
322.092
322.027
321.976
321.942
321.929
321.935
322.944
322.832
322.721
322.611
322.503
322.397
322.295
322.197
322.105
322.021
321.949
321.894
321.862
321.862
321.904
322.94
322.821
322.703
322.586
322.47
322.356
322.245
322.137
322.036
321.942
321.86
321.795
321.758
321.766
321.849
322.937
322.81
322.684
322.559
322.434
322.312
322.191
322.074
321.961
321.855
321.759
321.678
321.623
321.617
321.724
289.416
288.304
287.572
287.016
286.55
286.136
285.755
285.396
285.053
284.722
284.399
284.082
283.77
283.461
283.153
289.023
287.945
287.297
286.802
286.378
285.995
285.638
285.299
284.973
284.656
284.346
284.042
283.742
283.444
283.148
287.47
287.289
286.917
286.538
286.178
285.836
285.508
285.193
284.885
284.585
284.291
284
283.712
283.426
283.142
286.86
286.765
286.541
286.261
285.965
285.667
285.371
285.08
284.794
284.511
284.232
283.955
283.681
283.408
283.136
286.283
286.33
286.203
285.996
285.754
285.495
285.231
284.965
284.699
284.434
284.171
283.909
283.649
283.389
283.13
286.022
286.016
285.92
285.757
285.554
285.329
285.092
284.849
284.603
284.357
284.11
283.863
283.616
283.369
283.123
285.75
285.765
285.684
285.545
285.369
285.17
284.957
284.735
284.509
284.279
284.048
283.816
283.583
283.35
283.117
285.629
285.58
285.488
285.358
285.2
285.021
284.828
284.625
284.416
284.203
283.987
283.769
283.55
283.33
283.11
285.532
285.426
285.318
285.191
285.045
284.881
284.705
284.519
284.326
284.129
283.927
283.724
283.518
283.311
283.104
285.365
285.272
285.162
285.039
284.901
284.751
284.589
284.418
284.24
284.057
283.87
283.679
283.486
283.292
283.098
285.256
285.13
285.015
284.896
284.767
284.628
284.479
284.322
284.158
283.988
283.814
283.636
283.456
283.274
283.092
285.077
284.979
284.872
284.76
284.64
284.512
284.376
284.231
284.079
283.922
283.76
283.595
283.427
283.257
283.086
284.96
284.836
284.732
284.628
284.519
284.402
284.277
284.144
284.005
283.859
283.709
283.555
283.399
283.24
283.08
284.762
284.679
284.592
284.501
284.403
284.298
284.184
284.063
283.934
283.8
283.661
283.518
283.372
283.224
283.075
284.619
284.525
284.453
284.378
284.293
284.2
284.097
283.986
283.868
283.744
283.615
283.483
283.347
283.209
283.07
284.339
284.354
284.318
284.261
284.19
284.107
284.015
283.914
283.806
283.692
283.572
283.449
283.323
283.195
283.065
284.213
284.219
284.198
284.154
284.094
284.022
283.939
283.847
283.748
283.642
283.532
283.418
283.301
283.181
283.061
284.074
284.103
284.093
284.059
284.008
283.944
283.869
283.785
283.694
283.597
283.495
283.389
283.28
283.169
283.056
284.005
284.014
284.004
283.975
283.93
283.873
283.805
283.728
283.644
283.555
283.46
283.362
283.26
283.157
283.052
283.922
283.938
283.929
283.903
283.862
283.809
283.747
283.676
283.599
283.516
283.428
283.337
283.243
283.146
283.049
283.879
283.879
283.866
283.84
283.801
283.752
283.694
283.629
283.557
283.48
283.399
283.314
283.226
283.136
283.046
283.829
283.829
283.813
283.786
283.748
283.701
283.647
283.586
283.519
283.448
283.372
283.293
283.211
283.127
283.043
283.805
283.79
283.768
283.738
283.701
283.656
283.605
283.547
283.485
283.418
283.347
283.273
283.197
283.119
283.04
283.785
283.756
283.728
283.696
283.659
283.615
283.566
283.512
283.454
283.391
283.325
283.255
283.184
283.111
283.037
283.749
283.722
283.691
283.658
283.621
283.578
283.532
283.481
283.425
283.366
283.304
283.239
283.172
283.104
283.035
283.725
283.69
283.657
283.623
283.586
283.545
283.5
283.452
283.399
283.344
283.285
283.224
283.162
283.098
283.033
283.685
283.655
283.623
283.589
283.553
283.514
283.471
283.425
283.376
283.323
283.268
283.211
283.152
283.092
283.031
283.659
283.623
283.59
283.558
283.523
283.485
283.445
283.401
283.354
283.305
283.253
283.199
283.143
283.086
283.029
283.615
283.587
283.558
283.527
283.495
283.459
283.42
283.379
283.335
283.288
283.239
283.188
283.135
283.082
283.027
283.584
283.553
283.527
283.499
283.468
283.435
283.398
283.359
283.317
283.272
283.226
283.178
283.128
283.077
283.026
283.522
283.515
283.496
283.472
283.444
283.412
283.378
283.341
283.301
283.259
283.214
283.168
283.121
283.073
283.024
283.495
283.485
283.469
283.448
283.422
283.392
283.36
283.324
283.286
283.246
283.204
283.16
283.115
283.07
283.023
283.466
283.46
283.446
283.427
283.402
283.374
283.343
283.309
283.273
283.235
283.195
283.153
283.11
283.066
283.022
283.451
283.442
283.428
283.408
283.385
283.359
283.329
283.296
283.262
283.225
283.186
283.146
283.105
283.064
283.021
283.435
283.426
283.412
283.393
283.371
283.345
283.316
283.285
283.252
283.216
283.179
283.141
283.101
283.061
283.02
283.427
283.415
283.4
283.381
283.358
283.333
283.305
283.275
283.243
283.209
283.173
283.136
283.098
283.059
283.02
283.418
283.406
283.39