/*--------------------------------*- C++ -*----------------------------------*\
| =========                 |                                                 |
| \\      /  F ield         | OpenFOAM: The Open Source CFD Toolbox           |
|  \\    /   O peration     | Version:  5.x                                   |
|   \\  /    A nd           | Web:      www.OpenFOAM.org                      |
|    \\/     M anipulation  |                                                 |
\*---------------------------------------------------------------------------*/
FoamFile
{
    version     2.0;
    format      ascii;
    class       volScalarField;
    location    "5.7";
    object      gradTx;
}
// * * * * * * * * * * * * * * * * * * * * * * * * * * * * * * * * * * * * * //

dimensions      [0 -1 0 1 0 0 0];

internalField   nonuniform List<scalar> 
3200
(
45.2096
3.71203
1.64879
1.54024
0.814985
0.771395
0.466737
0.447279
0.293824
0.282717
0.170829
0.166686
0.18069
0.180839
0.173151
0.17231
0.159534
0.158417
0.144299
0.143117
0.128837
0.127667
0.113868
0.112774
0.100237
0.0993505
0.0901796
0.090174
0.0951151
0.164827
0.0825394
0.0552896
0.0534608
0.0417096
0.0408822
0.0332823
0.0327234
0.0270044
0.0265747
0.0220143
0.0216676
0.0179267
0.017639
0.0144892
0.0142419
0.0114718
0.0112445
0.00857948
0.00834047
0.00521346
0.00508257
0.00508372
0.0050362
0.00397152
0.00385846
0.00220758
0.00204209
-0.000265207
-0.00050269
-0.00386137
-0.00422382
-0.00949114
-0.0100963
-0.0191694
-0.0203174
-0.0381742
-0.0408463
-0.0840321
-0.0929537
-0.238759
-0.617365
-0.43627
-0.681707
-0.713073
-1.26835
-1.24273
-0.0558015
-0.00753022
-0.00152563
-52.947
47.8942
3.10536
1.57736
1.35456
0.774093
0.681033
0.436329
0.394725
0.271785
0.248191
0.160327
0.151482
0.160981
0.161189
0.155213
0.15344
0.143362
0.140999
0.129826
0.12732
0.116011
0.113533
0.102608
0.10029
0.0903877
0.0885249
0.0814565
0.0816086
0.0884032
0.137429
0.0766368
0.0516465
0.047574
0.0380393
0.036265
0.0302063
0.0290173
0.0244752
0.0235628
0.0199444
0.0192086
0.0162411
0.0156305
0.0131317
0.0126068
0.0104081
0.00992557
0.00780871
0.00730425
0.0048638
0.0045857
0.00454184
0.00443802
0.0035976
0.00335799
0.00204881
0.00169741
-0.000136014
-0.000640824
-0.0033134
-0.0040847
-0.00828362
-0.00957402
-0.0168321
-0.0192905
-0.0336905
-0.039479
-0.0750557
-0.0949748
-0.227107
-0.517775
-0.414899
-0.60213
-0.666709
-1.08515
-1.0315
-0.121858
-0.0209
-0.00438698
-54.743
50.5621
2.57655
1.45371
1.18318
0.713706
0.596737
0.397797
0.345423
0.245772
0.216235
0.146664
0.135544
0.141644
0.141786
0.137106
0.134902
0.126881
0.123932
0.115006
0.111876
0.102833
0.0997366
0.0910035
0.0881094
0.0802166
0.0779075
0.0724445
0.0727774
0.0800019
0.114424
0.0693021
0.0471668
0.0419056
0.0340586
0.0318191
0.0269354
0.0254454
0.0218008
0.0206592
0.0177592
0.0168389
0.0144612
0.0136975
0.0116952
0.0110386
0.00927574
0.00867196
0.00697344
0.00634546
0.00442763
0.00407944
0.00400235
0.00386929
0.00319964
0.00290029
0.00185172
0.001412
-5.99787e-05
-0.000692259
-0.00284149
-0.00380849
-0.00719246
-0.008813
-0.0146868
-0.0177861
-0.0295512
-0.0369201
-0.0667057
-0.0925074
-0.209114
-0.433926
-0.381923
-0.527459
-0.60619
-0.920833
-0.85451
-0.155567
-0.030892
-0.0067321
-56.5389
53.2094
2.1133
1.29598
1.01977
0.639218
0.515719
0.353403
0.298013
0.216955
0.185881
0.130663
0.118917
0.122545
0.122576
0.118901
0.116597
0.110198
0.107105
0.0999535
0.0966677
0.0894169
0.0861657
0.0791653
0.0761288
0.0698221
0.0674162
0.0632007
0.0636706
0.0705127
0.094601
0.0610479
0.042012
0.0363406
0.0298535
0.0274789
0.0235287
0.0219596
0.0190263
0.0178258
0.0154947
0.0145274
0.0126168
0.011814
0.0102048
0.00951459
0.00809701
0.00746213
0.00609533
0.00543825
0.00392867
0.00356233
0.00346508
0.00332201
0.00278686
0.00247255
0.00163025
0.00116788
-1.75427e-05
-0.000683028
-0.00241688
-0.00343561
-0.00617184
-0.00788185
-0.0126525
-0.015935
-0.0255878
-0.0334646
-0.058515
-0.0864078
-0.186792
-0.36115
-0.341046
-0.455461
-0.536235
-0.771754
-0.702824
-0.166306
-0.0368633
-0.00833178
-58.3346
55.8352
1.70418
1.1166
0.860522
0.554448
0.436255
0.304732
0.251629
0.186139
0.156492
0.112924
0.101675
0.10359
0.103514
0.100641
0.0984562
0.0933825
0.0904407
0.0847469
0.0816182
0.0758408
0.0727448
0.0671685
0.0642791
0.0592716
0.0569974
0.0537695
0.0543088
0.0603336
0.0770834
0.052213
0.0363227
0.0308083
0.0254839
0.0232018
0.0200268
0.0185284
0.0161825
0.0150377
0.0131757
0.0122536
0.010728
0.00996282
0.00867773
0.00801969
0.00688696
0.00628157
0.00518882
0.00456514
0.00338397
0.00303445
0.00292963
0.0027904
0.00236523
0.00206591
0.00139358
0.000952658
4.08541e-06
-0.000631072
-0.00202088
-0.00299403
-0.00519228
-0.0068283
-0.0106777
-0.0138291
-0.0216954
-0.0293222
-0.0502106
-0.0774086
-0.161512
-0.296153
-0.294788
-0.384808
-0.46009
-0.634853
-0.569842
-0.160762
-0.0387983
-0.00906304
-60.1299
58.4408
1.33874
0.923956
0.703278
0.462163
0.357323
0.252923
0.205741
0.153889
0.12766
0.0938914
0.0839063
0.0847149
0.0845646
0.0823531
0.0804307
0.0764816
0.073886
0.0694376
0.0666747
0.0621574
0.059423
0.0550643
0.052514
0.0486118
0.0466166
0.0441876
0.0447276
0.0497255
0.0612306
0.0430189
0.0302182
0.0252683
0.0209926
0.0189603
0.0164578
0.0151311
0.0132905
0.0122783
0.0108191
0.010004
0.00880876
0.00813239
0.00712553
0.00654377
0.00565581
0.00512049
0.00426354
0.00371431
0.00280599
0.00249678
0.00239556
0.00227022
0.00193855
0.00167419
0.00114765
0.000757737
1.3168e-05
-0.000548939
-0.00164156
-0.00250346
-0.00423521
-0.00568621
-0.0087308
-0.0115346
-0.0178127
-0.0246493
-0.0416539
-0.0661333
-0.13421
-0.236597
-0.244875
-0.314745
-0.379967
-0.507543
-0.450622
-0.143733
-0.0370441
-0.00890099
-61.925
61.0288
1.00752
0.72355
0.546852
0.364427
0.278374
0.198826
0.16004
0.120613
0.0991301
0.0739077
0.065706
0.065878
0.0656972
0.0640538
0.0624862
0.0595266
0.0574055
0.0540608
0.0518013
0.0484026
0.0461663
0.0428877
0.040803
0.0378756
0.0362532
0.0344869
0.0349681
0.0388571
0.0465664
0.0336083
0.0237998
0.0197013
0.0164116
0.0147377
0.0128418
0.0117543
0.0103655
0.00953666
0.00843676
0.00776953
0.00686878
0.00631518
0.00555631
0.0050801
0.00441054
0.00397226
0.00332594
0.00287784
0.00220405
0.00195078
0.00186244
0.00175829
0.00150918
0.00129295
0.000896243
0.000576995
1.49447e-05
-0.000445593
-0.00127147
-0.00197811
-0.00328938
-0.00448039
-0.00679357
-0.00910109
-0.0139076
-0.0195696
-0.0327982
-0.053114
-0.105536
-0.180804
-0.192499
-0.244868
-0.297349
-0.387613
-0.341402
-0.118696
-0.0321481
-0.00790337
-63.7198
63.6025
0.701965
0.518854
0.390654
0.262836
0.199165
0.143099
0.114365
0.0866204
0.0707495
0.0532431
0.0471709
0.0470552
0.0468884
0.0457515
0.0445975
0.042538
0.040974
0.0386407
0.0369736
0.0346014
0.0329512
0.0306633
0.0291257
0.0270873
0.0258956
0.0246963
0.0250723
0.0278358
0.0327288
0.0240717
0.0171529
0.014102
0.0117659
0.0105239
0.00919341
0.00838959
0.00741799
0.00680591
0.00603707
0.00554442
0.00491491
0.00450616
0.00397578
0.00362414
0.00315602
0.00283235
0.00238041
0.0020504
0.00158528
0.00139818
0.00132995
0.00125215
0.00107848
0.000918916
0.000641731
0.00040596
1.26551e-05
-0.000327638
-0.000906162
-0.00142857
-0.00234837
-0.00322969
-0.00485657
-0.00656766
-0.00996829
-0.0141874
-0.0236591
-0.0388105
-0.0759478
-0.127555
-0.138495
-0.174987
-0.21322
-0.273142
-0.239241
-0.0882128
-0.02476
-0.00619307
-65.5144
66.1658
0.414207
0.311961
0.234441
0.158679
0.119651
0.0862785
0.0686498
0.0521526
0.0424343
0.0321213
0.0283975
0.0282345
0.0281183
0.0274499
0.0267449
0.0255297
0.0245731
0.023194
0.022174
0.0207713
0.0197616
0.0184089
0.0174685
0.016265
0.0155382
0.0148427
0.015081
0.0167294
0.0194333
0.0144655
0.0103513
0.00847404
0.00707644
0.00631366
0.00552395
0.00503157
0.00445613
0.00408142
0.00362632
0.00332477
0.0029522
0.00270201
0.00238809
0.00217285
0.00189571
0.00169757
0.00143
0.00122835
0.00095538
0.000840817
0.000797839
0.000749837
0.00064722
0.000549586
0.000385559
0.000241221
8.24103e-06
-0.000200158
-0.000543099
-0.000863145
-0.0014089
-0.00194917
-0.00291621
-0.00396666
-0.00599625
-0.00859499
-0.0142927
-0.0236277
-0.0457811
-0.0759321
-0.0834695
-0.105036
-0.128223
-0.162424
-0.141766
-0.0542267
-0.0155765
-0.00394127
-67.3087
68.7226
0.136918
0.104079
0.0781579
0.0530524
0.0399111
0.0288281
0.0228894
0.0174136
0.014143
0.0107358
0.00948161
0.00941186
0.00937039
0.00914975
0.00891277
0.00851096
0.00818925
0.00773283
0.00738971
0.00692542
0.00658577
0.00613806
0.00582174
0.00542373
0.00517963
0.00495168
0.0050332
0.00558067
0.00644466
0.00482524
0.00346018
0.00282692
0.00236159
0.00210449
0.0018426
0.00167686
0.00148624
0.00136015
0.00120943
0.00110797
0.000984589
0.000900407
0.00079645
0.000724025
0.000632238
0.000565565
0.000476944
0.000409154
0.000319146
0.000280591
0.000265926
0.000249709
0.000215755
0.000182909
0.000128597
8.00259e-05
2.84125e-06
-6.72994e-05
-0.000180954
-0.000288691
-0.000469645
-0.000651575
-0.00097251
-0.0013265
-0.00200145
-0.00287866
-0.00478089
-0.00793203
-0.0152945
-0.025214
-0.0278827
-0.0350204
-0.0427856
-0.0539007
-0.0469652
-0.018285
-0.00531232
-0.00135195
-69.1029
68.7152
0.150877
0.128424
0.107468
0.0852128
0.0726979
0.0607387
0.0533359
0.0448791
0.0387591
0.0310016
0.0281896
0.0283018
0.0281993
0.0273649
0.0264664
0.02495
0.023763
0.0221186
0.0209249
0.0193684
0.0182728
0.016886
0.0159403
0.0147953
0.0141185
0.0135281
0.0138252
0.0155013
0.0180844
0.0137115
0.0100575
0.00837962
0.00716931
0.00650345
0.00582527
0.00539246
0.00488858
0.00455056
0.00413972
0.00385866
0.00351059
0.00326885
0.00296428
0.00274729
0.00246515
0.00225285
0.00195974
0.0017245
0.00140285
0.00129032
0.00130792
0.0013096
0.00127684
0.00123829
0.00117058
0.00111652
0.00104032
0.000983764
0.000907989
0.000851274
0.0007733
0.000707878
0.000604813
0.000490706
0.000264545
-7.91986e-05
-0.000897294
-0.0024377
-0.00622822
-0.0118016
-0.0150852
-0.0220719
-0.0295079
-0.0404531
-0.0360633
-0.0140938
-0.00409937
-0.00104362
-69.8074
66.143
0.456
0.385213
0.322457
0.255249
0.218072
0.182034
0.16005
0.134544
0.116343
0.0928068
0.0844519
0.0849139
0.0846273
0.0820971
0.0794238
0.0748369
0.0713072
0.0663377
0.0627891
0.0580867
0.05483
0.0506403
0.0478288
0.0443672
0.042352
0.0405489
0.0414203
0.0464677
0.0545314
0.0411056
0.0300935
0.0251202
0.0214862
0.0195108
0.017466
0.0161802
0.0146591
0.0136546
0.012414
0.0115787
0.0105275
0.00980908
0.00888935
0.00824449
0.00739265
0.00676177
0.00587692
0.00517697
0.0042002
0.00386576
0.0039244
0.00393019
0.00383075
0.00371605
0.0035112
0.00335047
0.00312018
0.00295206
0.00272321
0.00255468
0.0023194
0.00212514
0.00181488
0.0014766
0.000798342
-0.000218618
-0.00266298
-0.00722309
-0.0186133
-0.0354963
-0.0451076
-0.0661979
-0.0883833
-0.121973
-0.108893
-0.0418024
-0.0120206
-0.00304249
-69.4222
63.5635
0.771316
0.64168
0.537624
0.424084
0.3634
0.302767
0.266905
0.223916
0.19414
0.154005
0.140362
0.141556
0.141145
0.136835
0.132458
0.124682
0.118909
0.1105
0.1047
0.0967472
0.0914246
0.0843395
0.0797433
0.0738812
0.070577
0.0674627
0.0688484
0.0773135
0.0918381
0.0684033
0.0498881
0.0418072
0.0357367
0.032521
0.0290764
0.0269774
0.024409
0.0227681
0.0206721
0.0193073
0.0175312
0.0163574
0.0148034
0.01375
0.0123113
0.0112809
0.00978671
0.00864052
0.00697187
0.0064255
0.00654301
0.00655501
0.00638529
0.00619742
0.00585008
0.0055872
0.00519757
0.0049228
0.00453603
0.00426076
0.00386387
0.00354706
0.00302609
0.00247611
0.0013457
-0.00030093
-0.00434403
-0.0117353
-0.0307787
-0.0594819
-0.0746708
-0.11028
-0.146802
-0.205359
-0.183883
-0.0680186
-0.0191096
-0.00478098
-69.0368
60.9719
1.1039
0.897125
0.75317
0.590804
0.508726
0.422509
0.374045
0.31276
0.272351
0.214143
0.195678
0.198262
0.197819
0.191576
0.185628
0.174446
0.166616
0.154558
0.146696
0.135303
0.12809
0.117939
0.111709
0.103293
0.0987945
0.0941966
0.0959935
0.107917
0.130663
0.0955042
0.0692653
0.0584138
0.0498731
0.0455405
0.0406331
0.0377935
0.0341218
0.0318999
0.0289009
0.0270525
0.0245107
0.0229209
0.0206976
0.0192709
0.0172137
0.0158186
0.0136826
0.012125
0.00969866
0.00895869
0.00916587
0.00918711
0.00894057
0.0086852
0.00818559
0.00782903
0.00727038
0.00689805
0.00634441
0.00597173
0.00540516
0.00497716
0.00423847
0.00349885
0.00191372
-0.000287362
-0.00589113
-0.0157813
-0.0425577
-0.0840079
-0.103417
-0.154325
-0.20434
-0.291947
-0.262649
-0.0915566
-0.0248154
-0.00610166
-68.6513
58.3638
1.46123
1.15006
0.969453
0.754313
0.654217
0.540741
0.481698
0.40077
0.351274
0.272692
0.250152
0.25509
0.254725
0.246305
0.239007
0.224077
0.214493
0.198448
0.188834
0.173691
0.164873
0.151382
0.143761
0.132548
0.127016
0.120675
0.122734
0.138088
0.171805
0.122249
0.0880271
0.0749281
0.0638412
0.0585829
0.0521071
0.0486429
0.0437767
0.0410628
0.0370839
0.0348255
0.0314523
0.0295099
0.0265599
0.0248172
0.0220897
0.0203859
0.0175554
0.0156443
0.012358
0.011454
0.0117962
0.01183
0.0114962
0.0111828
0.0105154
0.010079
0.00933577
0.00888057
0.00814558
0.00769048
0.00694093
0.00641971
0.00545091
0.00455544
0.00250641
-0.000137659
-0.00726674
-0.0191519
-0.0537496
-0.109416
-0.130903
-0.198406
-0.260374
-0.38321
-0.347086
-0.110921
-0.0286001
-0.00687237
-68.2657
55.7354
1.85132
1.39777
1.18712
0.91322
0.800244
0.656795
0.590226
0.487521
0.431361
0.328999
0.303527
0.312129
0.311953
0.300989
0.292692
0.273493
0.262628
0.242081
0.231193
0.211826
0.201842
0.184591
0.175958
0.161576
0.15527
0.146817
0.148942
0.167524
0.216277
0.14838
0.105944
0.0913621
0.0775763
0.0716742
0.0634607
0.0595484
0.0533456
0.0502764
0.045198
0.0426431
0.0383367
0.0361392
0.0323739
0.0304028
0.0269248
0.0249984
0.0213915
0.0192186
0.0149222
0.0138996
0.0144389
0.0144875
0.0140512
0.0136946
0.0128361
0.0123412
0.0113897
0.0108743
0.00993559
0.00942104
0.00846761
0.00788021
0.00666046
0.00565821
0.00312293
0.000191483
-0.00845206
-0.0216139
-0.0640987
-0.13619
-0.156549
-0.242709
-0.313973
-0.480832
-0.439525
-0.124131
-0.029961
-0.00699806
-67.8797
53.0838
2.28275
1.63576
1.40731
1.06569
0.94749
0.769774
0.7002
0.572411
0.513296
0.382231
0.355539
0.36952
0.369612
0.355567
0.346813
0.322577
0.311151
0.285328
0.273891
0.249586
0.239103
0.217454
0.208384
0.190281
0.18361
0.172536
0.174492
0.195754
0.265416
0.173492
0.122747
0.107764
0.0909962
0.0848581
0.0746424
0.0705457
0.0627893
0.0595704
0.0532114
0.0505309
0.0451369
0.0428313
0.0381163
0.0360489
0.0316979
0.0296782
0.0251703
0.0228779
0.0173554
0.0162827
0.0171013
0.0171646
0.0166029
0.0162265
0.0151422
0.0146218
0.0134262
0.0128851
0.0117087
0.0111692
0.00997969
0.00936604
0.00786135
0.00682234
0.00375535
0.000749154
-0.0094566
-0.0229029
-0.0732634
-0.165034
-0.179562
-0.287607
-0.363748
-0.586781
-0.542927
-0.128492
-0.0284737
-0.00643395
-67.4936
50.4076
2.76469
1.85701
1.63203
1.20922
1.09712
0.878428
0.812502
0.654554
0.598109
0.431287
0.405924
0.427466
0.427837
0.409933
0.401553
0.371148
0.360249
0.328
0.317104
0.286794
0.27681
0.249815
0.241172
0.218529
0.212126
0.197734
0.19927
0.222048
0.321019
0.196958
0.13812
0.124238
0.103991
0.0982051
0.0855794
0.0816895
0.0720516
0.0689902
0.0610777
0.0585273
0.0518136
0.04962
0.0437529
0.0417864
0.0363778
0.0344576
0.0288606
0.0266665
0.0196107
0.0185902
0.0197939
0.0198667
0.0191473
0.0187867
0.0174258
0.0169294
0.0154366
0.0149213
0.0134564
0.0129434
0.0114688
0.0108876
0.00904366
0.00806763
0.00438538
0.00159486
-0.0103315
-0.0227153
-0.0807717
-0.196967
-0.198835
-0.333781
-0.407648
-0.703404
-0.661152
-0.120276
-0.0238672
-0.00519906
-67.1073
47.7077
3.30664
2.05095
1.86467
1.34033
1.25101
0.980971
0.928485
0.732637
0.687337
0.474686
0.454433
0.48626
0.486793
0.463918
0.457175
0.418939
0.410202
0.369817
0.361094
0.323188
0.315198
0.281442
0.274521
0.246128
0.240962
0.222296
0.223199
0.245294
0.385543
0.217815
0.151694
0.140967
0.116408
0.111826
0.0961672
0.0930633
0.081051
0.0786042
0.0687296
0.0666905
0.0583096
0.0565556
0.0492336
0.0476616
0.0409183
0.0393842
0.0324148
0.0306496
0.0216247
0.0208088
0.0225319
0.0226006
0.0216775
0.0213871
0.019675
0.019277
0.0174079
0.0169955
0.015166
0.0147562
0.0129222
0.0124596
0.0101913
0.00942124
0.00497981
0.00280606
-0.0111879
-0.0207007
-0.0859542
-0.233473
-0.212784
-0.382398
-0.442671
-0.833548
-0.799323
-0.0942812
-0.0161511
-0.00338819
-66.7207
44.9885
3.918
2.20212
2.11082
1.45403
1.41212
1.07481
1.0502
0.804699
0.783258
0.510388
0.500859
0.546305
0.546686
0.517257
0.514056
0.46555
0.46142
0.410369
0.406252
0.358386
0.354616
0.311995
0.308728
0.272798
0.270339
0.246074
0.24628
0.263815
0.462386
0.234609
0.163054
0.158249
0.128025
0.12589
0.106253
0.104794
0.089668
0.0885155
0.0760683
0.0751074
0.0645407
0.0637142
0.0544844
0.0537439
0.0452506
0.0445283
0.035761
0.0349232
0.0233103
0.0229259
0.0253361
0.0253742
0.0241824
0.0240444
0.0218716
0.0216835
0.0193211
0.0191266
0.0168189
0.016626
0.0143208
0.014104
0.0112791
0.0109218
0.00548359
0.00449014
-0.0122236
-0.0164563
-0.0878459
-0.276708
-0.21912
-0.435388
-0.464471
-0.980695
-0.964325
-0.0432101
-0.00582035
-0.00117834
-66.3341
44.9885
3.918
2.20212
2.11082
1.45403
1.41212
1.07481
1.0502
0.804699
0.783259
0.510388
0.500859
0.546305
0.546686
0.517258
0.514056
0.46555
0.46142
0.410369
0.406252
0.358386
0.354617
0.311995
0.308728
0.272798
0.270339
0.246075
0.246281
0.263815
0.462387
0.234609
0.163054
0.158249
0.128026
0.12589
0.106253
0.104794
0.0896682
0.0885157
0.0760686
0.0751076
0.064541
0.0637144
0.0544846
0.0537441
0.0452507
0.0445285
0.0357612
0.0349233
0.0233104
0.022926
0.0253362
0.0253743
0.0241825
0.0240445
0.0218717
0.0216836
0.0193212
0.0191267
0.0168191
0.0166261
0.0143209
0.0141041
0.0112792
0.0109219
0.00548375
0.00449031
-0.0122232
-0.0164559
-0.0878444
-0.276703
-0.219117
-0.435382
-0.464464
-0.980681
-0.964311
-0.0432094
-0.00582026
-0.00117833
-66.3342
47.7076
3.30663
2.05095
1.86467
1.34033
1.25101
0.980972
0.928485
0.732638
0.687337
0.474686
0.454433
0.48626
0.486794
0.463918
0.457175
0.418939
0.410202
0.369818
0.361095
0.323188
0.315198
0.281442
0.274521
0.246128
0.240963
0.222296
0.223199
0.245295
0.385544
0.217816
0.151695
0.140967
0.116408
0.111826
0.0961675
0.0930636
0.0810513
0.0786045
0.0687299
0.0666907
0.0583098
0.0565558
0.0492338
0.0476618
0.0409185
0.0393844
0.032415
0.0306497
0.0216247
0.0208089
0.0225319
0.0226007
0.0216776
0.0213872
0.0196751
0.0192771
0.0174081
0.0169957
0.0151661
0.0147563
0.0129223
0.0124598
0.0101914
0.00942135
0.00497996
0.00280624
-0.0111876
-0.0207002
-0.0859527
-0.23347
-0.21278
-0.382392
-0.442665
-0.833536
-0.799311
-0.0942798
-0.0161509
-0.00338814
-66.7208
50.4076
2.76468
1.85701
1.63203
1.20922
1.09712
0.878428
0.812502
0.654555
0.598109
0.431288
0.405924
0.427466
0.427837
0.409933
0.401554
0.371148
0.360249
0.328
0.317105
0.286794
0.27681
0.249815
0.241173
0.21853
0.212127
0.197735
0.199271
0.222048
0.321019
0.196959
0.13812
0.124238
0.103991
0.0982054
0.0855797
0.0816897
0.0720519
0.0689905
0.0610779
0.0585276
0.0518138
0.0496202
0.0437531
0.0417865
0.036378
0.0344578
0.0288607
0.0266666
0.0196108
0.0185903
0.019794
0.0198668
0.0191474
0.0187868
0.0174259
0.0169296
0.0154367
0.0149214
0.0134565
0.0129435
0.0114689
0.0108877
0.00904376
0.00806774
0.00438552
0.00159503
-0.0103311
-0.0227148
-0.0807703
-0.196964
-0.198831
-0.333776
-0.407642
-0.703394
-0.661143
-0.120274
-0.0238669
-0.00519895
-67.1073
53.0838
2.28275
1.63576
1.40731
1.06569
0.94749
0.769775
0.7002
0.572412
0.513296
0.382231
0.355539
0.36952
0.369612
0.355567
0.346813
0.322577
0.311151
0.285328
0.273892
0.249586
0.239103
0.217454
0.208385
0.190282
0.18361
0.172536
0.174492
0.195754
0.265417
0.173493
0.122747
0.107765
0.0909965
0.0848583
0.0746426
0.0705459
0.0627895
0.0595706
0.0532116
0.0505311
0.045137
0.0428315
0.0381165
0.036049
0.031698
0.0296783
0.0251704
0.022878
0.0173555
0.0162827
0.0171013
0.0171647
0.016603
0.0162265
0.0151423
0.0146219
0.0134263
0.0128852
0.0117088
0.0111693
0.00997977
0.00936612
0.00786143
0.00682243
0.00375547
0.000749303
-0.00945632
-0.0229025
-0.0732623
-0.165031
-0.179559
-0.287603
-0.363743
-0.586772
-0.542919
-0.12849
-0.0284732
-0.0064338
-67.4936
55.7354
1.85131
1.39776
1.18712
0.91322
0.800244
0.656795
0.590226
0.487522
0.431361
0.328999
0.303527
0.312129
0.311953
0.300989
0.292692
0.273493
0.262628
0.242082
0.231193
0.211826
0.201842
0.184591
0.175958
0.161576
0.15527
0.146817
0.148942
0.167524
0.216278
0.14838
0.105944
0.0913623
0.0775765
0.0716744
0.0634609
0.0595486
0.0533458
0.0502766
0.0451982
0.0426433
0.0383369
0.0361394
0.0323741
0.030403
0.0269249
0.0249985
0.0213916
0.0192187
0.0149222
0.0138996
0.0144389
0.0144876
0.0140512
0.0136946
0.0128361
0.0123413
0.0113898
0.0108744
0.00993567
0.00942112
0.00846768
0.00788028
0.00666053
0.00565829
0.00312303
0.000191612
-0.00845183
-0.0216135
-0.0640977
-0.136188
-0.156546
-0.242705
-0.313969
-0.480825
-0.439519
-0.124129
-0.0299605
-0.00699788
-67.8798
58.3638
1.46123
1.15006
0.969453
0.754313
0.654217
0.540741
0.481698
0.40077
0.351274
0.272692
0.250152
0.25509
0.254725
0.246305
0.239007
0.224077
0.214493
0.198448
0.188834
0.173691
0.164873
0.151382
0.143761
0.132548
0.127016
0.120675
0.122734
0.138088
0.171805
0.122249
0.0880273
0.0749284
0.0638414
0.0585831
0.0521072
0.048643
0.0437769
0.0410629
0.037084
0.0348256
0.0314524
0.02951
0.02656
0.0248173
0.0220898
0.020386
0.0175555
0.0156443
0.0123581
0.0114541
0.0117962
0.01183
0.0114963
0.0111828
0.0105155
0.010079
0.00933583
0.00888064
0.00814564
0.00769054
0.00694099
0.00641977
0.00545097
0.0045555
0.00250649
-0.000137552
-0.00726655
-0.0191515
-0.0537487
-0.109414
-0.130901
-0.198403
-0.26037
-0.383205
-0.347081
-0.110919
-0.0285996
-0.00687218
-68.2657
60.9719
1.1039
0.897124
0.75317
0.590804
0.508726
0.422509
0.374045
0.312761
0.272351
0.214143
0.195678
0.198262
0.197819
0.191576
0.185628
0.174446
0.166617
0.154558
0.146696
0.135303
0.12809
0.117939
0.111709
0.103293
0.0987946
0.0941967
0.0959936
0.107917
0.130663
0.0955045
0.0692655
0.058414
0.0498732
0.0455406
0.0406332
0.0377936
0.0341219
0.0319
0.028901
0.0270526
0.0245108
0.022921
0.0206976
0.019271
0.0172138
0.0158186
0.0136827
0.012125
0.0096987
0.00895872
0.0091659
0.00918715
0.00894061
0.00868524
0.00818564
0.00782907
0.00727043
0.00689809
0.00634445
0.00597177
0.0054052
0.0049772
0.00423851
0.0034989
0.00191378
-0.000287279
-0.00589098
-0.015781
-0.042557
-0.0840066
-0.103415
-0.154323
-0.204337
-0.291942
-0.262645
-0.0915552
-0.024815
-0.00610149
-68.6514
63.5635
0.771314
0.64168
0.537624
0.424084
0.3634
0.302767
0.266905
0.223916
0.19414
0.154005
0.140362
0.141556
0.141145
0.136835
0.132458
0.124682
0.118909
0.1105
0.1047
0.0967473
0.0914247
0.0843396
0.0797434
0.0738813
0.0705771
0.0674628
0.0688485
0.0773137
0.0918383
0.0684035
0.0498882
0.0418073
0.0357368
0.0325211
0.0290765
0.0269775
0.0244091
0.0227682
0.0206721
0.0193074
0.0175312
0.0163574
0.0148035
0.01375
0.0123114
0.0112809
0.00978675
0.00864056
0.00697189
0.00642552
0.00654303
0.00655503
0.00638532
0.00619745
0.00585011
0.00558723
0.0051976
0.00492284
0.00453606
0.00426079
0.0038639
0.00354709
0.00302612
0.00247614
0.00134574
-0.000300871
-0.00434393
-0.0117351
-0.0307782
-0.0594809
-0.0746696
-0.110278
-0.1468
-0.205356
-0.18388
-0.0680176
-0.0191093
-0.00478083
-69.0368
66.143
0.455999
0.385213
0.322457
0.255249
0.218072
0.182034
0.16005
0.134544
0.116343
0.0928069
0.0844519
0.0849139
0.0846274
0.0820972
0.0794239
0.074837
0.0713073
0.0663378
0.0627891
0.0580867
0.0548301
0.0506404
0.0478288
0.0443672
0.042352
0.0405489
0.0414204
0.0464678
0.0545315
0.0411057
0.0300936
0.0251202
0.0214862
0.0195109
0.0174661
0.0161803
0.0146591
0.0136546
0.012414
0.0115787
0.0105276
0.00980912
0.00888938
0.00824453
0.00739268
0.0067618
0.00587694
0.00517699
0.00420022
0.00386578
0.00392442
0.00393021
0.00383077
0.00371606
0.00351122
0.00335048
0.0031202
0.00295208
0.00272323
0.00255469
0.00231942
0.00212516
0.0018149
0.00147662
0.000798367
-0.000218584
-0.00266292
-0.00722298
-0.0186131
-0.0354958
-0.0451069
-0.0661969
-0.088382
-0.121971
-0.108891
-0.0418018
-0.0120204
-0.00304239
-69.4222
68.7152
0.150877
0.128424
0.107468
0.0852128
0.0726979
0.0607387
0.053336
0.0448791
0.0387591
0.0310016
0.0281896
0.0283018
0.0281994
0.0273649
0.0264664
0.02495
0.023763
0.0221186
0.0209249
0.0193684
0.0182728
0.016886
0.0159403
0.0147953
0.0141185
0.0135281
0.0138252
0.0155014
0.0180844
0.0137115
0.0100576
0.00837964
0.00716933
0.00650346
0.00582529
0.00539247
0.00488859
0.00455057
0.00413974
0.00385867
0.0035106
0.00326887
0.00296429
0.0027473
0.00246516
0.00225285
0.00195975
0.00172451
0.00140286
0.00129033
0.00130792
0.00130961
0.00127684
0.0012383
0.00117059
0.00111653
0.00104033
0.000983769
0.000907995
0.00085128
0.000773305
0.000707883
0.000604818
0.000490712
0.000264553
-7.91876e-05
-0.000897274
-0.00243766
-0.00622813
-0.0118014
-0.015085
-0.0220716
-0.0295075
-0.0404525
-0.0360628
-0.0140936
-0.0040993
-0.00104359
-69.8074
68.7222
0.13675
0.103801
0.0777646
0.0524453
0.0390554
0.0275037
0.0210896
0.0150023
0.0125847
0.0119227
0.0115726
0.0110194
0.0105813
0.00996754
0.00952169
0.00893951
0.00852162
0.00797857
0.00758773
0.0070783
0.00671301
0.00624001
0.00590896
0.005496
0.0052433
0.00500711
0.00508579
0.0056346
0.00650411
0.00486821
0.00348959
0.0028501
0.00238031
0.00212081
0.00185658
0.00168941
0.00149719
0.00137007
0.00121816
0.00111591
0.000991593
0.000906783
0.000802064
0.000729118
0.000636684
0.000569549
0.000480323
0.000412075
0.000321467
0.000282684
0.000268003
0.00025176
0.000217714
0.000184781
0.000130328
8.1651e-05
4.32228e-06
-6.59212e-05
-0.000179707
-0.000287536
-0.000468605
-0.000650615
-0.000971646
-0.0013257
-0.00200073
-0.00287799
-0.00478026
-0.0079314
-0.0152938
-0.0252132
-0.0278821
-0.0350199
-0.0427853
-0.0539004
-0.046965
-0.0182849
-0.00531228
-0.0013519
-69.1029
66.1645
0.413705
0.311127
0.233265
0.156859
0.117093
0.0823055
0.0632558
0.0448602
0.0376839
0.0357555
0.0347259
0.0330536
0.031751
0.0298959
0.0285705
0.0268119
0.0255699
0.0239296
0.0227679
0.0212291
0.0201433
0.0187144
0.0177302
0.0164816
0.0157292
0.0150087
0.0152386
0.016891
0.0196125
0.0145943
0.0104392
0.00854351
0.00713251
0.00636263
0.00556587
0.00506922
0.00448898
0.00411121
0.0036525
0.00334861
0.0029732
0.00272114
0.00240492
0.00218813
0.00190904
0.00170953
0.00144013
0.00123712
0.000962328
0.000847088
0.000804072
0.000755991
0.000653097
0.000555202
0.000390752
0.000246098
1.26827e-05
-0.000196023
-0.000539361
-0.00085968
-0.00140578
-0.00194628
-0.00291362
-0.00396427
-0.00599409
-0.00859297
-0.0142908
-0.0236258
-0.045779
-0.0759297
-0.0834677
-0.105035
-0.128222
-0.162423
-0.141765
-0.0542264
-0.0155764
-0.00394115
-67.3087
63.6004
0.701131
0.517464
0.388708
0.259806
0.194931
0.136478
0.105396
0.0742693
0.0625732
0.0595524
0.057905
0.055073
0.0529427
0.0498031
0.0476367
0.0446637
0.0426341
0.0398615
0.0379632
0.0353619
0.0335874
0.0311709
0.0295619
0.0274474
0.0262139
0.0249723
0.0253344
0.0281046
0.0330305
0.0242859
0.0172984
0.0142175
0.0118591
0.0106055
0.00926315
0.00845238
0.00747266
0.00685559
0.00608064
0.00558416
0.00494986
0.00453807
0.0040038
0.00364964
0.00317821
0.0028523
0.00239728
0.00206503
0.0015968
0.0014086
0.00134034
0.00126241
0.00108828
0.000928284
0.000650382
0.000414094
2.00524e-05
-0.000320741
-0.000899938
-0.0014228
-0.00234318
-0.00322488
-0.00485226
-0.00656367
-0.00996469
-0.014184
-0.0236559
-0.0388074
-0.0759444
-0.127551
-0.138492
-0.174985
-0.213218
-0.273141
-0.23924
-0.0882124
-0.0247598
-0.0061929
-65.5144
61.0259
1.00636
0.721605
0.544156
0.360193
0.272512
0.189555
0.147538
0.102901
0.0871155
0.0832944
0.0811314
0.0770644
0.0741749
0.0696714
0.0667351
0.0624778
0.059728
0.0557585
0.0531866
0.0494615
0.0470571
0.0435952
0.0414139
0.0383778
0.0366989
0.0348718
0.035334
0.0392319
0.0469954
0.0339072
0.0240014
0.0198626
0.0165414
0.0148519
0.0129392
0.0118423
0.0104418
0.00960627
0.00849764
0.00782522
0.00691763
0.00635989
0.00559546
0.00511583
0.00444156
0.00400024
0.00334951
0.00289838
0.00222008
0.00196531
0.00187699
0.00177268
0.00152289
0.00130608
0.000908344
0.000588395
2.52881e-05
-0.000435927
-0.00126277
-0.00197001
-0.00328213
-0.00447366
-0.00678754
-0.00909548
-0.0139026
-0.0195649
-0.0327938
-0.0531096
-0.105531
-0.180798
-0.192494
-0.244865
-0.297346
-0.387611
-0.3414
-0.118695
-0.0321479
-0.00790317
-63.7198
58.4371
1.33726
0.921454
0.699864
0.456728
0.349904
0.240995
0.189784
0.130379
0.111179
0.10697
0.104434
0.0990087
0.0954716
0.089477
0.0858864
0.0802315
0.0768707
0.0715995
0.0684562
0.0635083
0.0605692
0.0559682
0.0533001
0.0492541
0.0471898
0.0446796
0.0451961
0.0502046
0.0617942
0.0434012
0.0304736
0.025475
0.0211585
0.0191073
0.0165825
0.0152443
0.0133884
0.0123679
0.0108972
0.0100757
0.00887139
0.00818996
0.00717573
0.0065898
0.00569558
0.00515654
0.00429375
0.00374081
0.0028264
0.00251536
0.00241428
0.00228876
0.00195618
0.0016911
0.00116319
0.000772417
2.64425e-05
-0.000536493
-0.0016304
-0.00249304
-0.0042259
-0.00567754
-0.00872307
-0.0115273
-0.0178062
-0.0246432
-0.0416483
-0.0661276
-0.134204
-0.236589
-0.24487
-0.314741
-0.379963
-0.50754
-0.45062
-0.143732
-0.0370439
-0.00890079
-61.925
55.8307
1.70239
1.11353
0.856434
0.547811
0.42738
0.290127
0.232359
0.156249
0.134643
0.130579
0.127852
0.120877
0.116867
0.109186
0.10512
0.0978935
0.0940898
0.0873555
0.0837979
0.0774748
0.0741477
0.0682639
0.0652414
0.060051
0.0576985
0.0543664
0.0548785
0.060914
0.0777924
0.0526765
0.0366287
0.0310602
0.0256849
0.0233816
0.0201784
0.0186671
0.0163015
0.0151475
0.0132707
0.0123414
0.0108042
0.0100333
0.00873886
0.00807609
0.00693538
0.00632579
0.00522559
0.00459769
0.00340859
0.00305701
0.00295254
0.00281311
0.00238675
0.00208663
0.00141254
0.000970639
2.02679e-05
-0.000615828
-0.00200728
-0.00298127
-0.00518094
-0.00681767
-0.0106682
-0.0138202
-0.0216876
-0.0293147
-0.0502038
-0.0774018
-0.161504
-0.296144
-0.294782
-0.384804
-0.460086
-0.63485
-0.569839
-0.160761
-0.0387981
-0.00906287
-60.1299
53.2042
2.11121
1.29234
1.01507
0.631367
0.505528
0.33608
0.275666
0.179938
0.157406
0.154134
0.15144
0.142628
0.138408
0.128751
0.12448
0.115419
0.111426
0.102984
0.0992502
0.0913214
0.0878285
0.0804451
0.0772694
0.0707344
0.0682464