/*--------------------------------*- C++ -*----------------------------------*\
| =========                 |                                                 |
| \\      /  F ield         | OpenFOAM: The Open Source CFD Toolbox           |
|  \\    /   O peration     | Version:  5.x                                   |
|   \\  /    A nd           | Web:      www.OpenFOAM.org                      |
|    \\/     M anipulation  |                                                 |
\*---------------------------------------------------------------------------*/
FoamFile
{
    version     2.0;
    format      ascii;
    class       volScalarField;
    location    "1";
    object      gradTx;
}
// * * * * * * * * * * * * * * * * * * * * * * * * * * * * * * * * * * * * * //

dimensions      [0 -1 0 1 0 0 0];

internalField   nonuniform List<scalar> 
6300
(
-29.3797
-29.447
-29.5808
-29.7799
-30.0421
-30.3645
-30.743
-31.1727
-31.6471
-32.1588
-32.699
-33.2579
-33.8253
-34.3907
-34.9441
-29.3125
-29.3803
-29.5155
-29.7167
-29.9819
-30.3082
-30.6919
-31.1278
-31.6099
-32.1303
-32.6802
-33.2495
-33.8273
-34.4026
-34.9646
-29.1772
-29.2463
-29.3841
-29.5894
-29.8604
-30.1946
-30.5883
-31.0369
-31.5341
-32.0722
-32.6419
-33.2324
-33.8318
-34.4276
-35.0076
-28.9727
-29.0437
-29.1851
-29.3962
-29.6757
-30.0213
-30.4299
-30.8972
-31.4173
-31.9824
-32.5827
-33.2064
-33.8398
-34.4683
-35.077
-28.6973
-28.7704
-28.9163
-29.1347
-29.4247
-29.7848
-30.2128
-30.7048
-31.2555
-31.8573
-32.5001
-33.1706
-33.8528
-34.5287
-35.1792
-28.3487
-28.4241
-28.575
-28.8015
-29.1035
-29.4806
-29.9314
-30.4535
-31.0425
-31.6913
-32.3896
-33.1229
-33.8722
-34.6145
-35.3243
-27.9246
-28.0023
-28.1581
-28.3928
-28.7073
-29.1024
-29.5787
-30.1353
-30.7695
-31.4758
-32.2442
-33.0591
-33.8984
-34.7326
-35.5266
-27.4227
-27.5022
-27.6622
-27.9041
-28.2302
-28.6432
-29.1456
-29.7393
-30.4245
-31.1981
-32.0521
-32.971
-33.9296
-34.891
-35.8062
-26.8412
-26.9218
-27.0842
-27.3311
-27.6662
-28.0944
-28.6211
-29.2518
-29.9909
-30.84
-31.795
-32.843
-33.9579
-35.0955
-36.1895
-26.179
-26.2593
-26.4217
-26.6698
-27.0091
-27.447
-27.9924
-28.6558
-29.4474
-30.3759
-31.4449
-32.6482
-33.9633
-35.3436
-36.7065
-25.4364
-25.5147
-25.6734
-25.9172
-26.2534
-26.6919
-27.2459
-27.9314
-28.7668
-29.7712
-30.9605
-32.3414
-33.9034
-35.609
-37.3771
-24.6156
-24.6895
-24.8399
-25.0722
-25.3952
-25.8213
-26.3677
-27.0569
-27.9172
-28.9816
-30.2844
-31.8535
-33.6999
-35.8119
-38.1621
-23.7207
-23.7876
-23.9243
-24.1365
-24.4338
-24.8304
-25.3467
-26.0114
-26.8635
-27.9535
-29.3418
-31.0881
-33.2307
-35.7764
-38.8115
-22.7588
-22.816
-22.9331
-23.1157
-23.373
-23.7196
-24.1771
-24.7784
-25.5716
-26.6271
-28.0411
-29.9263
-32.3581
-35.2514
-38.4604
-21.7395
-21.7844
-21.8764
-22.02
-22.2229
-22.4976
-22.8639
-23.3532
-24.0174
-24.9421
-26.2692
-28.2176
-31.0242
-34.411
-34.9587
-35.4343
-35.8594
-36.2629
-36.6431
-36.9991
-37.331
-37.6392
-37.9244
-38.1868
-38.4266
-38.6431
-38.8358
-39.0037
-39.1463
-39.2637
-39.3567
-39.4272
-39.4781
-39.513
-39.5359
-39.5507
-39.5611
-39.5697
-39.5783
-39.5873
-39.596
-39.6032
-39.607
-39.6055
-39.5974
-39.5821
-39.5599
-39.5322
-39.5011
-39.4692
-39.4391
-39.4133
-39.3932
-39.3796
-39.3721
-39.3694
-39.3693
-39.3694
-39.3676
-39.3618
-39.3511
-39.3355
-39.316
-39.2944
-39.2729
-39.2539
-39.2395
-39.231
-39.2289
-39.2325
-39.2402
-39.2497
-39.2585
-39.264
-39.2644
-39.2583
-39.2458
-39.2276
-39.2054
-39.1815
-39.1583
-39.1377
-39.1211
-39.109
-39.1008
-39.0953
-39.0904
-39.0839
-39.0742
-39.0598
-39.0409
-39.0185
-38.9953
-38.9748
-38.9614
-38.9597
-38.9742
-39.0083
-39.0642
-39.1424
-39.2415
-39.3579
-39.4867
-39.6214
-39.7546
-35.4613
-35.8905
-36.2966
-36.6778
-37.0338
-37.365
-37.6724
-37.9571
-38.2195
-38.4599
-38.6776
-38.8714
-39.0401
-39.1827
-39.2988
-39.3891
-39.4555
-39.5013
-39.5303
-39.5474
-39.5572
-39.5637
-39.5699
-39.5778
-39.5876
-39.5984
-39.6082
-39.6146
-39.6151
-39.6079
-39.5921
-39.568
-39.5373
-39.5024
-39.4666
-39.4332
-39.405
-39.384
-39.371
-39.3655
-39.3657
-39.369
-39.3725
-39.3733
-39.369
-39.3583
-39.3413
-39.3192
-39.2943
-39.2693
-39.2474
-39.2311
-39.222
-39.2208
-39.2266
-39.2376
-39.2508
-39.2632
-39.2717
-39.2736
-39.2678
-39.254
-39.2333
-39.2079
-39.1807
-39.1545
-39.1319
-39.1147
-39.1033
-39.0971
-39.0944
-39.0925
-39.0888
-39.0807
-39.0664
-39.0457
-39.0198
-38.9913
-38.9645
-38.9444
-38.9364
-38.9458
-38.9768
-39.032
-39.1123
-39.2163
-39.3401
-39.4782
-39.6233
-39.7671
-35.5174
-35.955
-36.3659
-36.7488
-37.1041
-37.4333
-37.7385
-38.0216
-38.2841
-38.5259
-38.7463
-38.9432
-39.1142
-39.2573
-39.3711
-39.4559
-39.5137
-39.5484
-39.565
-39.5697
-39.5684
-39.5666
-39.5679
-39.5746
-39.5867
-39.6023
-39.6183
-39.6307
-39.636
-39.6309
-39.6141
-39.5859
-39.5484
-39.5052
-39.4608
-39.4199
-39.3866
-39.3635
-39.3518
-39.3507
-39.3576
-39.3687
-39.3798
-39.3865
-39.3854
-39.3749
-39.3547
-39.3267
-39.2943
-39.2616
-39.233
-39.2123
-39.2019
-39.2027
-39.2136
-39.2318
-39.2534
-39.2738
-39.2886
-39.2943
-39.2888
-39.2721
-39.2458
-39.2132
-39.1783
-39.1456
-39.1186
-39.0998
-39.0901
-39.0884
-39.0921
-39.0974
-39.1
-39.0959
-39.0823
-39.0582
-39.0246
-38.9849
-38.9445
-38.9098
-38.8881
-38.8863
-38.9102
-38.9637
-39.0481
-39.1622
-39.3017
-39.4596
-39.6269
-39.7933
-35.6076
-36.0579
-36.4755
-36.8596
-37.212
-37.5361
-37.8361
-38.116
-38.3781
-38.623
-38.8488
-39.0522
-39.2286
-39.3739
-39.4851
-39.5616
-39.6053
-39.6214
-39.617
-39.6005
-39.5807
-39.5648
-39.5584
-39.5638
-39.5807
-39.6057
-39.6335
-39.6575
-39.6717
-39.671
-39.6527
-39.6173
-39.5678
-39.5098
-39.4501
-39.396
-39.3535
-39.3268
-39.3176
-39.3245
-39.3435
-39.3688
-39.3935
-39.4109
-39.4159
-39.4053
-39.3794
-39.3408
-39.2949
-39.2482
-39.2075
-39.1788
-39.1659
-39.1702
-39.19
-39.2212
-39.2578
-39.2926
-39.3188
-39.331
-39.3262
-39.3041
-39.2676
-39.2217
-39.1731
-39.1284
-39.0934
-39.072
-39.0654
-39.0719
-39.0876
-39.1061
-39.1207
-39.1247
-39.1133
-39.0841
-39.0381
-38.9796
-38.916
-38.8564
-38.811
-38.7898
-38.801
-38.8506
-38.9411
-39.0715
-39.2365
-39.4272
-39.6316
-39.8357
-35.74
-36.2079
-36.6332
-37.0161
-37.3606
-37.6735
-37.9629
-38.2359
-38.4971
-38.7474
-38.9837
-39.1999
-39.3879
-39.5397
-39.6493
-39.7143
-39.7369
-39.724
-39.6863
-39.6364
-39.5871
-39.5497
-39.5318
-39.5367
-39.5631
-39.6052
-39.654
-39.6988
-39.729
-39.7363
-39.7163
-39.6691
-39.5997
-39.5169
-39.4316
-39.3553
-39.2977
-39.2652
-39.2603
-39.2809
-39.3206
-39.3699
-39.4178
-39.4536
-39.4687
-39.4583
-39.4224
-39.3657
-39.2967
-39.2262
-39.165
-39.1226
-39.1054
-39.1153
-39.1501
-39.2032
-39.2649
-39.3239
-39.3693
-39.3924
-39.3884
-39.357
-39.3028
-39.2344
-39.1622
-39.0972
-39.0486
-39.0228
-39.0216
-39.0425
-39.0788
-39.1206
-39.1566
-39.1758
-39.1698
-39.1341
-39.0695
-38.9818
-38.8816
-38.7824
-38.6992
-38.6464
-38.6364
-38.6784
-38.7767
-38.9308
-39.1342
-39.375
-39.6364
-39.8987
-35.9277
-36.419
-36.852
-37.2279
-37.5545
-37.8447
-38.1131
-38.3728
-38.6319
-38.8919
-39.1476
-39.3882
-39.5993
-39.7663
-39.8777
-39.9281
-39.9196
-39.8625
-39.7731
-39.6712
-39.5767
-39.5065
-39.4723
-39.4788
-39.523
-39.5953
-39.6806
-39.7611
-39.8194
-39.8413
-39.8191
-39.753
-39.651
-39.5275
-39.4005
-39.2881
-39.2058
-39.1641
-39.1666
-39.21
-39.2839
-39.3732
-39.4599
-39.5263
-39.5583
-39.5481
-39.4955
-39.4085
-39.301
-39.1908
-39.0955
-39.0305
-39.0058
-39.0249
-39.0841
-39.1729
-39.2758
-39.3748
-39.452
-39.4931
-39.49
-39.4427
-39.3588
-39.2524
-39.141
-39.0422
-38.9713
-38.9382
-38.9461
-38.9909
-39.062
-39.1434
-39.2165
-39.2632
-39.269
-39.2259
-39.1339
-39.0019
-38.8456
-38.6853
-38.5434
-38.4412
-38.3971
-38.4248
-38.532
-38.7189
-38.978
-39.293
-39.6399
-39.9896
-36.1907
-36.7138
-37.1532
-37.5107
-37.8008
-38.0471
-38.276
-38.5106
-38.7652
-39.0425
-39.3334
-39.6189
-39.8741
-40.0729
-40.1941
-40.2265
-40.1724
-40.0475
-39.8781
-39.6956
-39.5313
-39.4116
-39.3545
-39.3665
-39.4426
-39.5666
-39.714
-39.8556
-39.9622
-40.0099
-39.9854
-39.8887
-39.7334
-39.5436
-39.3485
-39.1776
-39.0556
-38.9993
-39.0144
-39.0952
-39.2254
-39.3805
-39.5312
-39.6486
-39.709
-39.699
-39.6184
-39.4807
-39.3096
-39.1339
-38.9827
-38.8804
-38.8433
-38.8769
-38.9755
-39.1223
-39.2927
-39.4572
-39.5868
-39.6574
-39.6556
-39.5811
-39.4473
-39.2778
-39.1015
-38.9473
-38.8396
-38.7945
-38.8173
-38.9016
-39.0303
-39.178
-39.3144
-39.4096
-39.4388
-39.3878
-39.256
-39.0569
-38.8152
-38.5618
-38.3303
-38.1521
-38.0542
-38.0567
-38.1721
-38.4031
-38.7412
-39.1648
-39.6391
-40.1199
-36.5602
-37.1293
-37.5721
-37.8904
-38.1103
-38.2744
-38.4306
-38.6195
-38.8658
-39.1736
-39.527
-39.8934
-40.23
-40.4912
-40.6384
-40.6497
-40.5271
-40.2967
-40.002
-39.6937
-39.4216
-39.2269
-39.137
-39.1621
-39.2932
-39.5044
-39.7561
-40.0007
-40.1898
-40.2827
-40.2557
-40.1088
-39.8658
-39.5673
-39.2618
-38.9967
-38.8113
-38.7318
-38.7676
-38.9094
-39.1313
-39.3941
-39.6507
-39.8533
-39.9614
-39.9515
-39.8237
-39.6014
-39.3249
-39.0419
-38.7995
-38.6366
-38.579
-38.6357
-38.7974
-39.038
-39.318
-39.5902
-39.8065
-39.9262
-39.9258
-39.805
-39.5873
-39.3131
-39.0301
-38.7854
-38.6178
-38.5531
-38.5999
-38.7484
-38.9714
-39.2287
-39.4717
-39.6508
-39.724
-39.6658
-39.4749
-39.1734
-38.8012
-38.4069
-38.0404
-37.7475
-37.5664
-37.5261
-37.6457
-37.933
-38.3812
-38.9633
-39.629
-40.3087
-37.0837
-37.7268
-38.17
-38.4118
-38.4999
-38.5133
-38.5381
-38.6457
-38.8777
-39.2392
-39.7018
-40.2109
-40.6945
-41.0738
-41.2785
-41.2656
-41.0369
-40.6387
-40.1453
-39.6399
-39.2005
-38.8912
-38.7542
-38.805
-39.0288
-39.384
-39.8083
-40.2259
-40.5562
-40.7284
-40.6988
-40.4675
-40.0781
-39.6013
-39.1172
-38.701
-38.4145
-38.2987
-38.3683
-38.6085
-38.9785
-39.4167
-39.8484
-40.1941
-40.3837
-40.3741
-40.1654
-39.8005
-39.3496
-38.8919
-38.502
-38.2413
-38.1502
-38.2434
-38.506
-38.897
-39.3546
-39.804
-40.1653
-40.3682
-40.3693
-40.1685
-39.809
-39.3609
-38.9038
-38.5124
-38.248
-38.1512
-38.2363
-38.4876
-38.8631
-39.2999
-39.721
-40.0447
-40.1981
-40.1351
-39.8529
-39.3917
-38.819
-38.2118
-37.6444
-37.1816
-36.8756
-36.7652
-36.8776
-37.231
-37.8283
-38.6413
-39.5985
-40.5872
-37.833
-38.6122
-39.0579
-39.1547
-38.9969
-38.7356
-38.5264
-38.4927
-38.703
-39.1591
-39.8096
-40.565
-41.3091
-41.908
-42.2318
-42.1923
-41.7908
-41.118
-40.306
-39.4908
-38.7924
-38.3073
-38.1011
-38.1989
-38.5751
-39.1642
-39.8705
-40.5767
-41.1506
-41.4647
-41.4325
-41.0542
-40.4163
-39.6461
-38.8749
-38.2189
-37.7722
-37.5988
-37.7233
-38.121
-38.7275
-39.449
-40.17
-40.76
-41.0931
-41.0838
-40.732
-40.1235
-39.3842
-38.6442
-38.0189
-37.6017
-37.4563
-37.6074
-38.03
-38.6599
-39.4034
-40.1445
-40.7525
-41.1008
-41.1036
-40.7608
-40.1581
-39.4219
-38.6828
-38.0565
-37.6367
-37.4876
-37.6331
-38.048
-38.6667
-39.3935
-40.1105
-40.6838
-40.9836
-40.92
-40.4886
-39.7705
-38.8862
-37.9592
-37.0976
-36.3899
-35.9031
-35.6834
-35.7623
-36.1775
-36.9646
-38.1117
-39.5225
-41.0085
-38.911
-39.9779
-40.4481
-40.2641
-39.6431
-38.8828
-38.2621
-37.9883
-38.1744
-38.799
-39.7662
-40.9355
-42.1327
-43.1385
-43.7082
-43.6402
-42.9356
-41.7977
-40.4712
-39.1738
-38.0773
-37.3217
-37.0105
-37.1919
-37.8152
-38.7755
-39.9329
-41.1182
-42.1192
-42.6998
-42.6649
-42.0149
-40.9453
-39.6924
-38.4668
-37.4358
-36.7362
-36.4701
-36.6852
-37.333
-38.311
-39.4823
-40.6804
-41.6961
-42.2959
-42.2866
-41.6686
-40.6352
-39.4198
-38.2316
-37.2364
-36.5706
-36.3359
-36.5803
-37.2556
-38.2596
-39.4556
-40.6769
-41.7136
-42.3312
-42.3358
-41.7274
-40.6997
-39.4871
-38.2994
-37.3033
-36.6359
-36.3995
-36.6422
-37.3151
-38.3144
-39.5015
-40.7067
-41.7168
-42.2924
-42.2343
-41.537
-40.3887
-39.0149
-37.6123
-36.3292
-35.28
-34.5458
-34.1716
-34.1626
-34.5887
-35.5822
-37.202
-39.3381
-41.6669
-40.4369
-42.2028
-42.7804
-42.0027
-40.4896
-38.8293
-37.4978
-36.8219
-37.0141
-37.9457
-39.4316
-41.2657
-43.2321
-44.9971
-46.1028
-46.0048
-44.7044
-42.7491
-40.5944
-38.5674
-36.8714
-35.6962
-35.2108
-35.5483
-36.5703
-38.1032
-39.9554
-41.925
-43.6935
-44.8213
-44.7831
-43.5799
-41.7387
-39.6994
-37.7787
-36.1755
-35.0764
-34.6486
-35.0243
-36.0697
-37.6164
-39.4772
-41.4536
-43.2315
-44.3757
-44.3663
-43.2038
-41.4089
-39.4167
-37.5412
-35.9799
-34.9189
-34.5257
-34.933
-36.0079
-37.5831
-39.4717
-41.4752
-43.2783
-44.4444
-44.4508
-43.2978
-41.5075
-39.5166
-37.6401
-36.0769
-35.0144
-34.6214
-35.0319
-36.1118
-37.6919
-39.583
-41.5841
-43.3752
-44.5137
-44.4687
-43.235
-41.3312
-39.1849
-37.0931
-35.224
-33.7165
-32.6701
-32.1336
-31.9367
-32.1826
-33.2981
-35.549
-38.8759
-42.7399
-42.4023
-46.1388
-47.0643
-44.8002
-41.5483
-38.3023
-35.7897
-34.4054
-34.789
-36.2943
-38.5956
-41.4055
-44.6213
-47.8051
-50.2306
-50.101
-47.4163
-43.9878
-40.5339
-37.4844
-34.9155
-33.0776
-32.2261
-32.9194
-34.5897
-36.971
-39.8091
-43.0215
-46.1908
-48.6219
-48.5792
-46.0637
-42.8177
-39.5356
-36.6336
-34.1895
-32.4502
-31.67
-32.3992
-34.0848
-36.4697
-39.3057
-42.5132
-45.6794
-48.117
-48.1069
-45.6496
-42.4669
-39.2459
-36.3985
-34.0029
-32.3059
-31.5629
-32.3243
-34.0401
-36.4553
-39.3223
-42.5623
-45.7606
-48.2275
-48.2358
-45.7858
-42.6044
-39.3813
-36.5299
-34.1295
-32.4287
-31.6863
-32.4577
-34.1884
-36.6214
-39.5063
-42.7635
-45.9734
-48.439
-48.4149
-45.8977
-42.623
-39.2763
-36.253
-33.5981
-31.4888
-30.06
-29.607
-29.073
-28.5245
-29.3791
-32.3467
-37.6401
-44.5862
-43.8299
-54.1229
-55.941
-49.0197
-42.5985
-36.7191
-32.4569
-29.4428
-30.9489
-33.4965
-37.0272
-40.9606
-46.0565
-51.705
-58.0379
-57.8766
-51.1991
-45.263
-39.8912
-35.7094
-31.9068
-29.0388
-27.0171
-28.8835
-31.5856
-35.1811
-39.1237
-44.1805
-49.7511
-55.9851
-55.9363
-49.5996
-43.9488
-38.8247
-34.8295
-31.1886
-28.4429
-26.5183
-28.3968
-31.0933
-34.6737
-38.5993
-43.6325
-49.1765
-55.3835
-55.3717
-49.1404
-43.5802
-38.5373
-34.6052
-31.0203
-28.3191
-26.434
-28.3415
-31.0653
-34.677
-38.6359
-43.7097
-49.2963
-55.5511
-55.5608
-49.3272
-43.7614
-38.7109
-34.7704
-31.1746
-28.4631
-26.5712
-28.5022
-31.2538
-34.8998
-38.8936
-44.0109
-49.6434
-55.9496
-55.9507
-49.6512
-44.0182
-38.9017
-34.8825
-31.1864
-28.2815
-26.0451
-27.1967
-26.2303
-22.8456
-22.4175
-25.795
-34.0243
-47.9814
-38.0681
-74.3106
-77.4016
-52.5182
-42.8683
-32.807
-27.327
-17.9712
-25.6089
-29.2831
-34.8789
-38.8418
-46.6961
-54.6195
-75.1965
-75.0358
-53.9141
-45.7259
-37.5347
-33.3883
-27.5526
-23.7812
-16.2092
-23.6443
-27.2952
-32.8914
-36.8342
-44.5996
-52.3564
-72.3958
-72.3481
-52.1482
-44.3218
-36.4885
-32.5152
-26.8989
-23.2534
-15.8903
-23.2166
-26.829
-32.3809
-36.2983
-44.0164
-51.7194
-71.6052
-71.5929
-51.6652
-43.9489
-36.2295
-32.3121
-26.7656
-23.157
-15.8442
-23.1832
-26.812
-32.399
-36.3444
-44.1187
-51.8701
-71.8678
-71.8764
-51.9073
-44.1763
-36.4423
-32.5145
-26.9462
-23.3174
-15.9513
-23.3649
-27.0312
-32.6776
-36.6629
-44.5162
-52.3433
-72.5392
-72.5593
-52.4447
-44.6694
-36.9468
-33.0468
-27.6354
-24.1116
-17.1514
-27.836
-26.8693
-12.9086
-9.97547
-12.2569
-22.1603
-54.6032
-39.89
-40.0158
-40.1091
-40.1642
-40.1791
-40.1561
-40.1002
-40.0191
-39.9215
-39.8168
-39.7141
-39.6214
-39.5456
-39.4921
-39.4644
-39.9132
-40.0483
-40.1473
-40.2041
-40.2171
-40.1888
-40.1254
-40.0354
-39.9285
-39.8148
-39.7039
-39.6043
-39.5232
-39.4661
-39.4366
-39.962
-40.1167
-40.2276
-40.2878
-40.296
-40.2564
-40.177
-40.0684
-39.9421
-39.8098
-39.6822
-39.5687
-39.4768
-39.4123
-39.3791
-40.042
-40.2287
-40.3585
-40.4232
-40.4227
-40.3637
-40.2578
-40.1189
-39.9616
-39.8
-39.6464
-39.5112
-39.4027
-39.3271
-39.2883
-40.1625
-40.3976
-40.5545
-40.6237
-40.6077
-40.5179
-40.3714
-40.1876
-39.9854
-39.782
-39.5919
-39.4268
-39.2957
-39.2049
-39.1585
-40.3392
-40.6444
-40.838
-40.9094
-40.8663
-40.7286
-40.5222
-40.2745
-40.0102
-39.7505
-39.5123
-39.3084
-39.1482
-39.0381
-38.9821
-40.5969
-41.0027
-41.2434
-41.3095
-41.2194
-41.0077
-40.7144
-40.3777
-40.0302
-39.6974
-39.3982
-39.1461
-38.9505
-38.8171
-38.7496
-40.9766
-41.5262
-41.8233
-41.8658
-41.694
-41.3681
-40.9497
-40.4918
-40.0355
-39.6105
-39.2368
-38.9273
-38.6902
-38.5301
-38.4495
-41.5472
-42.3019
-42.6577
-42.6361
-42.3227
-41.8211
-41.2243
-40.6039
-40.0093
-39.4721
-39.0109
-38.6361
-38.3528
-38.1634
-38.0685
-42.4298
-43.4764
-43.8695
-43.6981
-43.1394
-42.369
-41.5225
-40.6902
-39.9257
-39.2575
-38.6985
-38.2532
-37.9215
-37.7019
-37.5926
-43.851
-45.3042
-45.6455
-45.1474
-44.1676
-42.9928
-41.8064
-40.7085
-39.7456
-38.9334
-38.2724
-37.7564
-37.3779
-37.1299
-37.0071
-46.2672
-48.2436
-48.2607
-47.0781
-45.3908
-43.6282
-42.0015
-40.5918
-39.4147
-38.458
-37.7009
-37.1221
-36.7038
-36.4323
-36.2988
-50.6985
-53.1419
-52.0753
-49.5131
-46.6888
-44.1273
-41.9797
-40.2424
-38.8631
-37.7829
-36.9509
-36.3273
-35.8826
-35.5967
-35.4568
-59.7306
-61.5501
-57.3852
-52.2098
-47.7236
-44.2125
-41.5473
-39.5349
-38.0123
-36.8595
-35.9925
-35.3532
-34.9025
-34.6149
-34.4747
-81.0027
-75.9428
-63.7056
-54.217
-47.783
-43.4513
-40.4618
-38.3374
-36.7915
-35.6503
-34.806
-34.1903
-33.7593
-33.4854
-33.3523
-20.7639
-20.7956
-20.8604
-20.9611
-21.1028
-21.2936
-21.5471
-21.8866
-22.3538
-23.0284
-24.0753
-25.8644
-29.27
-36.2438
-48.8786
-19.8548
-19.8736
-19.9117
-19.97
-20.0503
-20.1553
-20.2902
-20.4646
-20.6973
-21.0299
-21.5655
-22.6024
-25.1979
-33.9826
-73.2791
-18.9326
-18.9382
-18.9489
-18.9637
-18.9804
-18.9962
-19.006
-19.0019
-18.9713
-18.8905
-18.7073
-18.2583
-16.8284
-10.5361
24.1565
-18.0063
-17.9991
-17.9833
-17.9558
-17.9113
-17.8411
-17.7312
-17.5578
-17.2799
-16.822
-16.0335
-14.5955
-11.8358
-6.81134
-3.43914
-17.085
-17.0659
-17.0256
-16.9596
-16.8598
-16.7137
-16.5004
-16.1861
-15.7136
-14.9828
-13.8107
-11.8506
-8.41605
-1.93857
13.2128
-16.1769
-16.1474
-16.0858
-15.9867
-15.8406
-15.6327
-15.3396
-14.9241
-14.3267
-13.45
-12.1347
-10.1297
-7.10939
-3.08859
-1.52267
-15.2892
-15.2511
-15.172
-15.0462
-14.8642
-14.6109
-14.2637
-13.7885
-13.1336
-12.2218
-10.9376
-9.11371
-6.49746
-2.53307
5.38718
-14.428
-14.383
-14.2904
-14.1448
-13.9372
-13.6542
-13.2767
-12.7774
-12.119
-11.2519
-10.1153
-8.64785
-6.82165
-4.72387
-2.76453
-13.5979
-13.5479
-13.4456
-13.2863
-13.0624
-12.7631
-12.374
-11.8767
-11.2493
-10.4692
-9.52265
-8.43105
-7.33436
-6.81771
-9.55755
-12.8024
-12.749
-12.6404
-12.4726
-12.2398
-11.9343
-11.5465
-11.0664
-10.4855
-9.802
-9.03064
-8.21769
-7.44421
-6.64927
-3.99786
-12.0438
-11.9884
-11.8761
-11.7039
-11.4677
-11.1625
-10.783
-10.3259
-9.79278
-9.19576
-8.56741
-7.97687
-7.56888
-7.76912
-10.8564
-11.3236
-11.2672
-11.1532
-10.9796
-10.7435
-10.442
-10.0733
-9.6382
-9.14436
-8.61118
-8.07784
-7.60921
-7.27108
-6.88319
-4.20861
-10.6425
-10.5859
-10.4717
-10.2985
-10.0646
-9.76828
-9.40944
-8.9912
-8.52316
-8.02662
-7.54322
-7.15084
-7.00777
-7.58421
-11.3582
-10.0007
-9.94432
-9.831
-9.65961
-9.42886
-9.13782
-8.78676
-8.37868
-7.92165
-7.43283
-6.94531
-6.51927
-6.24471
-6.06369
-3.84558
-9.39785
-9.34224
-9.23052
-9.06177
-8.83489
-8.54892
-8.20357
-7.80004
-7.34211
-6.83804
-6.3046
-5.78239
-5.41662
-5.95664
-12.0806
-8.83351
-8.779
-8.66951
-8.50418
-8.28184
-8.00114
-7.66068
-7.25905
-6.7945
-6.26352
-5.65598
-4.93678
-3.95939
-1.97071
5.58605
-8.30691
-8.25381
-8.14715
-7.98606
-7.7692
-7.49473
-7.16014
-6.76164
-6.29291
-5.74205
-5.08478
-4.27035
-3.20432
-1.85008
-1.65959
-7.81706
-7.76568
-7.66247
-7.50654
-7.29642
-7.02996
-6.70386
-6.31288
-5.84824
-5.29434
-4.62258
-3.77853
-2.64926
-0.919895
2.93153
-7.36276
-7.3134
-7.21428
-7.06451
-6.86265
-6.60648
-6.29249
-5.91515
-5.46541
-4.92836
-4.27989
-3.48466
-2.51077
-1.46183
-1.51354
-6.9426
-6.89556
-6.80112
-6.65851
-6.46647
-6.223
-5.92499
-5.56757
-5.14308
-4.6396
-4.03899
-3.31472
-2.42426
-1.23791
1.09893
-6.55498
-6.51049
-6.42126
-6.2867
-6.10587
-5.87726
-5.5986
-5.26642
-4.87549
-4.41814
-3.8838
-3.26005
-2.54307
-1.81134
-1.76596
-6.1981
-6.15636
-6.07274
-5.94689
-5.77829
-5.56614
-5.30925
-5.00593
-4.65386
-4.25001
-3.79056
-3.26999
-2.67195
-1.90655
-0.39722
-5.87007
-5.83118
-5.75338
-5.63662
-5.48082
-5.28595
-5.05199
-4.77916
-4.46806
-4.12033
-3.73962
-3.33357
-2.91691
-2.51674
-2.18947
-5.56889
-5.53287
-5.46094
-5.3533
-5.21034
-5.03274
-4.8216
-4.5788
-4.30756
-4.01339
-3.70613
-3.40439
-3.15025
-3.07465
-3.75803
-5.29257
-5.25935
-5.19313
-5.09435
-4.96377
-4.80266
-4.61303
-4.39805
-4.16281
-3.9154
-3.66863
-3.44202
-3.25945
-3.10385
-2.53454
-5.03915
-5.0086
-4.94779
-4.85732
-4.73825
-4.59225
-4.42191
-4.23123
-4.02637
-3.81681
-3.61698
-3.44893
-3.34976
-3.41866
-4.1896
-4.8068
-4.77872
-4.72288
-4.64
-4.53127
-4.39858
-4.24476
-4.07409
-3.89305
-3.7113
-3.5431
-3.40787
-3.3232
-3.24428
-2.62392
-4.59379
-4.56794
-4.51659
-4.44046
-4.34078
-4.21942
-4.07914
-3.92401
-3.76005
-3.59623
-3.44617
-3.33155
-3.29248
-3.44415
-4.39104
-4.39857
-4.37471
-4.32733
-4.25711
-4.16519
-4.05324
-3.92368
-3.77991
-3.6268
-3.47143
-3.32446
-3.20261
-3.12916
-3.09006
-2.55553
-4.21976
-4.19766
-4.15377
-4.08867
-4.00334
-3.89913
-3.77791
-3.64212
-3.49497
-3.34064
-3.18515
-3.03991
-2.94181
-3.07824
-4.61673
-4.05611
-4.03558
-3.99475
-3.93412
-3.85443
-3.75668
-3.6421
-3.51207
-3.36794
-3.21049
-3.03856
-2.84431
-2.59144
-2.09099
-0.197949
-3.90657
-3.88742
-3.84932
-3.79263
-3.71788
-3.62574
-3.51684
-3.39165
-3.25
-3.09021
-2.90729
-2.68926
-2.41282
-2.06893
-2.02096
-3.77014
-3.75225
-3.71661
-3.6635
-3.59325
-3.50626
-3.40273
-3.28249
-3.14448
-2.98583
-2.80023
-2.57462
-2.28087
-1.83948
-0.863734
-3.64597
-3.62923
-3.59588
-3.54608
-3.48009
-3.39808
-3.30004
-3.18551
-3.05312
-2.89999
-2.72078
-2.50712
-2.25127
-1.97917
-1.98414
-3.53323
-3.51758
-3.48637
-3.43974
-3.37787
-3.30086
-3.20865
-3.10075
-2.976
-2.83209
-2.66507
-2.46875
-2.23276
-1.92454
-1.32712
-3.43119
-3.41656
-3.3874
-3.34381
-3.28598
-3.21403
-3.12796
-3.02752
-2.912
-2.78005
-2.62953
-2.45778
-2.26423
-2.06878
-2.04457
-3.33913
-3.32547
-3.29825
-3.25759
-3.20372
-3.13682
-3.05709
-2.96459
-2.85923
-2.74072
-2.60855
-2.46177
-2.29683
-2.09216
-1.70418
-3.25636
-3.24362
-3.21823
-3.18038
-3.13031
-3.06836
-2.99491
-2.91041
-2.81541
-2.7107
-2.59753
-2.4782
-2.35683
-2.24089
-2.14396
-3.18226
-3.17037
-3.1467
-3.11145
-3.06497
-3.00769
-2.94022
-2.86334
-2.77816
-2.68636
-2.59062
-2.49586
-2.41289
-2.37444
-2.52075
-3.11624
-3.10512
-3.08301
-3.05015
-3.00694
-2.95393
-2.89188
-2.82185
-2.74534
-2.66456
-2.58285
-2.50518
-2.43783
-2.37775
-2.22008
-3.05775
-3.04732
-3.0266
-2.99586
-2.95554
-2.90626
-2.8489
-2.78467
-2.7153
-2.64323
-2.57207
-2.50718
-2.45754
-2.44684
-2.59765
-3.00631
-2.99648
-2.97696
-2.94803
-2.91016
-2.86401
-2.8105
-2.7509
-2.68694
-2.6211
-2.55676
-2.4984
-2.45004
-2.40181
-2.2307
-2.96152
-2.95218
-2.93365
-2.90622
-2.87035
-2.8267
-2.77616
-2.71995
-2.65973
-2.59772
-2.5371
-2.48252
-2.44225
-2.44013
-2.60291
-2.92302
-2.91408
-2.89634
-2.87009
-2.83576
-2.79398
-2.74557
-2.69162
-2.63355
-2.5732
-2.51306
-2.45654
-2.40778
-2.36194
-2.20666
-2.89053
-2.88189
-2.86475
-2.83937
-2.80615
-2.76567
-2.71864
-2.66598
-2.60878
-2.54836
-2.4863
-2.425
-2.3711
-2.35774
-2.59292
-2.86386
-2.85543
-2.8387
-2.8139
-2.7814
-2.74171
-2.69543
-2.64329
-2.58606
-2.52446
-2.45882
-2.38814
-2.30609
-2.17892
-1.80334
-2.84285
-2.83454
-2.81805
-2.79358
-2.76147
-2.72214
-2.67611
-2.62396
-2.5662
-2.50318
-2.43464
-2.35901
-2.27223
-2.17056
-2.10105
-2.82741
-2.81915
-2.80275
-2.77838
-2.74635
-2.70703
-2.66086
-2.60832
-2.54981
-2.48554
-2.41521
-2.33744
-2.24852
-2.1378
-1.95566
-2.81751
-2.80924
-2.79278
-2.76831
-2.7361
-2.69648
-2.64986
-2.59664
-2.53723
-2.47191
-2.40074
-2.32344
-2.23976
-2.15258
-2.08765
-2.81317
-2.80481
-2.78818
-2.76342
-2.7308
-2.69062
-2.64324
-2.58907
-2.52856
-2.46215
-2.39032
-2.3137
-2.23324
-2.14983
-2.05422
-2.81445
-2.80594
-2.78901
-2.76381
-2.73056
-2.68956
-2.64114
-2.58573
-2.5238
-2.45596
-2.38305
-2.30645
-2.22858
-2.15347
-2.08383
-2.82143
-2.81273
-2.79541
-2.7696
-2.73552
-2.69345
-2.64372
-2.58673
-2.52296
-2.45309
-2.37813
-2.29989
-2.22181
-2.15124
-2.10476
-2.83427
-2.82532
-2.80749
-2.78093
-2.74583
-2.70247
-2.65115
-2.59224
-2.52618
-2.45355
-2.3753
-2.29304
-2.20964
-2.1302
-2.06285
-2.85314
-2.84388
-2.82545
-2.79799
-2.7617
-2.71683
-2.66367
-2.60254
-2.53376
-2.45773
-2.37507
-2.28679
-2.19453
-2.09867
-1.97874
-2.87823
-2.86862
-2.8495
-2.82099
-2.78332
-2.73675
-2.68154
-2.61796
-2.54618
-2.46634
-2.37853
-2.28312
-2.18172
-2.08176
-2.02408
-2.90981
-2.89979
-2.87986
-2.85016
-2.81094
-2.76248
-2.70505
-2.63887
-2.56401
-2.48027
-2.38708
-2.28344
-2.16771
-2.03341
-1.82575
-2.94815
-2.93766
-2.9168
-2.88575
-2.84479
-2.79425
-2.73445
-2.66563
-2.58782
-2.50057
-2.40269
-2.29198
-2.16639
-2.03392
-1.98028
-2.99358
-2.98256
-2.96064
-2.92804
-2.88511
-2.83225
-2.76991
-2.69846
-2.618
-2.52807
-2.42701
-2.31068
-2.16966
-1.9776
-1.60959
-3.04648
-3.03483
-3.01169
-2.97731
-2.93213
-2.87666
-2.81153
-2.73734
-2.65456
-2.56312
-2.46173
-2.34634
-2.20818
-2.04139
-1.9639
-3.10728
-3.09491
-3.07035
-3.03391
-2.9861
-2.9276
-2.85925
-2.78202
-2.69695
-2.60489
-2.50597
-2.39764
-2.26638
-2.04108
-1.29287
-3.17647
-3.16327
-3.13706
-3.09822
-3.04732
-2.9852
-2.91294
-2.83196
-2.744
-2.65124
-2.55656
-2.46469
-2.3897
-2.40185
-2.94032
-3.25465
-3.24049
-3.21237
-3.1707
-3.11615
-3.04965
-2.97253
-2.88656
-2.79419
-2.69875
-2.60499
-2.51985
-2.45231
-2.39511
-2.13249
-3.34249
-3.32722
-3.29691
-3.25196
-3.19309
-3.1213
-3.03807
-2.94544
-2.84633
-2.74492
-2.64726
-2.56262
-2.50754
-2.52903
-2.87431
-3.44074
-3.42423
-3.39142
-3.34271
-3.27881
-3.20073
-3.10995
-3.00863
-2.8999
-2.78829
-2.6803
-2.58469
-2.50943
-2.43614
-2.13252
-3.55028
-3.53238
-3.49678
-3.44385
-3.3742
-3.28879
-3.18898
-3.07681
-2.95529
-2.82895
-2.70458
-2.59245
-2.50977
-2.50123
-2.79971
-3.67206
-3.65266
-3.614
-3.5564
-3.48037
-3.38667
-3.27642
-3.1513
-3.01386
-2.86808
-2.72016
-2.57961
-2.45844
-2.35121
-2.0628
-3.80715
-3.78613
-3.7442
-3.68159
-3.59864
-3.49587
-3.37402
-3.23418
-3.07806
-2.90851
-2.73044
-2.55314
-2.39726
-2.32509
-2.60388
-3.95667
-3.93396
-3.8886
-3.82073
-3.73051
-3.61816
-3.48394
-3.32819
-3.15143
-2.95467
-2.74
-2.51165
-2.27776
-2.05337
-1.86855
-4.12179
-4.09734
-4.04847
-3.97521
-3.87757
-3.75547
-3.60866
-3.43662
-3.23851
-3.01311
-2.7589
-2.47383
-2.15148
-1.7523
-1.00893
-4.30373
-4.27752
-4.22511
-4.14646
-4.04146
-3.90977
-3.75072
-3.563
-3.34438
-3.09137
-2.79905
-2.46174
-2.07839
-1.68835
-1.6285
-4.5037
-4.47573
-4.4198
-4.33585
-4.22371
-4.08293
-3.91254
-3.71067
-3.47396
-3.19678
-2.87028
-2.48146
-2.00976
-1.39329
-0.219083
-4.72293
-4.69321
-4.6338
-4.54466
-4.42569
-4.27649
-4.09607
-3.88239
-3.6315
-3.33626
-2.98462
-2.55857
-2.0415
-1.4837
-1.46347
-4.96265
-4.93117
-4.86827
-4.77404
-4.64852
-4.49157
-4.30255
-4.0798
-3.81967
-3.51474
-3.15048
-2.69874
-2.10134
-1.19906
0.76774
-5.22408
-5.19079
-5.12435
-5.02499
-4.89303
-4.72877
-4.5323
-4.30302
-4.03882
-3.73428
-3.37694
-2.9399
-2.37274
-1.65193
-1.50096
-5.50847
-5.47329
-5.40314
-5.29843
-5.15982
-4.98821
-4.78469
-4.55034
-4.28584
-3.99033
-3.65859
-3.2713
-2.75068
-1.70748
2.19372
-5.81715
-5.77993
-5.70578
-5.59527
-5.44939
-5.26967
-5.05834
-4.81847
-4.55425
-4.27141
-3.97869
-3.69514
-3.49138
-3.74616
-6.85333
-6.15153
-6.11209
-6.03353
-5.91652
-5.76232
-5.57296
-5.35167
-5.10337
-4.83547
-4.55922
-4.29227
-4.06347
-3.91351
-3.80274
-2.61368
-6.51316
-6.47129
-6.38784
-6.26348
-6.09953
-5.89829
-5.66364
-5.40176
-5.12237
-4.84044
-4.57926
-4.37694
-4.30833
-4.60683
-6.55529
-6.90374
-6.85923
-6.77041
-6.6378
-6.4625
-6.24671
-5.99438
-5.7122
-5.41093
-5.10715
-4.82524
-4.59746
-4.44814
-4.26404
-2.84852
-7.32509
-7.27782
-7.18328
-7.04162
-6.85346
-6.62038
-6.34574
-6.03578
-5.7011
-5.35857
-5.03354
-4.76343
-4.61201
-4.77531
-6.42375
-7.77914
-7.7291
-7.62874
-7.47762
-7.27549
-7.0228
-6.72152
-6.37642
-5.99664
-5.59773
-5.20361
-4.8469
-4.55725
-4.25417
-2.88377
-8.26781
-8.21521
-8.10932
-7.94893
-7.73252
-7.45883
-7.12763
-6.74104
-6.30536
-5.83347
-5.3476
-4.88371
-4.51174
-4.47313
-6.06602
-8.7929
-8.73819
-8.62764
-8.45901
-8.22922
-7.93469
-7.5721
-7.13965
-6.63913
-6.07883
-5.47623
-4.85658
-4.23462
-3.55804
-2.68549
-9.35585
-9.29984
-9.18616
-9.01146
-8.77077
-8.45772
-8.06498
-7.58543
-7.01433
-6.35344
-5.61658
-4.83093
-3.99529
-2.77804
1.2985
-9.95757
-9.90143
-9.78695
-9.60961
-9.36246
-9.03597
-8.61806
-8.09468
-7.4518
-6.68069
-5.79065
-4.83986
-4.02088
-3.98276
-7.51427
-10.5982
-10.5434
-10.4313
-10.2561
-10.0091
-9.67762
-9.24429
-8.68683
-7.97821
-7.09039
-6.00672
-4.75712
-3.50425
-2.70908
-3.15501
-11.2766
-11.2252
-11.1192
-10.9524
-10.7144
-10.3899
-9.95664
-9.38384
-8.62897
-7.63593
-6.3378
-4.67655
-2.66994
-0.574086
0.893902
-11.9907
-11.9447
-11.8493
-11.6981
-11.4798
-11.1775
-10.7658
-10.2072
-9.44499
-8.39314
-6.92081
-4.83579
-1.89787
1.99639
5.96162
-12.7367
-12.6982
-12.6182
-12.4901
-12.3033
-12.0409
-11.677
-11.1719
-10.462
-9.44212
-7.92898
-5.58731
-1.79023
4.51706
13.7823
-13.5094
-13.4805
-13.4202
-13.3229
-13.1793
-12.9746
-12.6862
-12.2787
-11.6942
-10.8334
-9.51218
-7.34949
-3.4261
4.98307
28.0365
-159.189
-95.7155
-66.9799
-53.2568
-45.9097
-41.5231
-38.6736
-36.7093
-35.3013
-34.2695
-33.5088
-32.9548
-32.5672
-32.3209
-32.2012
-197.853
-89.5679
-59.5315
-47.9559
-42.1506
-38.7024
-36.4331
-34.8428
-33.6852
-32.8259
-32.1858
-31.7158
-31.3852
-31.1742
-31.0714
50.7513
-29.0818
-39.2631
-38.6475
-36.7545
-35.0629
-33.7209
-32.6755
-31.8619
-31.23
-30.7444
-30.3801
-30.1199
-29.9523
-29.8702
-7.67491
-16.9639
-26.4926
-30.2259
-31.2183
-31.1804
-30.8026
-30.3472
-29.9121
-29.5324
-29.2186
-28.9719
-28.7902
-28.6708
-28.6118
27.6936
-4.67822
-17.7464
-23.7077
-26.3973
-27.5337
-27.9381
-28.0047
-27.9239
-27.789
-27.6462
-27.5184
-27.417
-27.3474
-27.3121
-1.80785
-5.79654
-13.9355
-19.4612
-22.6546
-24.3953
-25.3082
-25.7643
-25.973
-26.0509
-26.0632
-26.0465
-26.0216
-26
-25.9879
11.9063
-4.03145
-11.9391
-16.8344
-19.9207
-21.8315
-22.9953
-23.6956
-24.1128
-24.3582
-24.5001
-24.5802
-24.6238
-24.6459
-24.6551
-3.76345
-7.84147
-12.0346
-15.4636
-18.0031
-19.7865
-21.004
-21.8235
-22.3717
-22.7372
-22.9798
-23.1391
-23.2407
-23.3006
-23.3285
-16.6042
-11.5703
-12.6607
-14.7105
-16.6102
-18.1343
-19.2889
-20.1397