/*--------------------------------*- C++ -*----------------------------------*\
| =========                 |                                                 |
| \\      /  F ield         | OpenFOAM: The Open Source CFD Toolbox           |
|  \\    /   O peration     | Version:  5.x                                   |
|   \\  /    A nd           | Web:      www.OpenFOAM.org                      |
|    \\/     M anipulation  |                                                 |
\*---------------------------------------------------------------------------*/
FoamFile
{
    version     2.0;
    format      ascii;
    class       volScalarField;
    location    "1";
    object      gradTy;
}
// * * * * * * * * * * * * * * * * * * * * * * * * * * * * * * * * * * * * * //

dimensions      [0 -1 0 1 0 0 0];

internalField   nonuniform List<scalar> 
6300
(
32285.3
32256
32226.5
32196.9
32167
32136.9
32106.3
32075.4
32044
32012.2
31979.7
31946.8
31913.2
31879.1
31844.4
0.0507496
0.151785
0.251388
0.348496
0.441899
0.530199
0.611794
0.684898
0.747594
0.797961
0.834241
0.855079
0.859787
0.848602
0.822867
0.0851147
0.254601
0.421802
0.585006
0.742241
0.891196
1.02918
1.15315
1.25979
1.34569
1.40766
1.44315
1.45074
1.43061
1.38501
0.120221
0.3597
0.596205
0.827476
1.05085
1.26315
1.46057
1.63873
1.7927
1.91731
2.00753
2.05911
2.06937
2.03808
1.96824
0.15629
0.467772
0.775842
1.07784
1.37055
1.64997
1.91124
2.14849
2.35498
2.52333
2.64605
2.7164
2.72956
2.68409
2.58339
0.193458
0.579258
0.961554
1.3375
1.70352
2.05496
2.38592
2.68902
2.95541
3.17499
3.33695
3.43089
3.4484
3.38534
3.24449
0.231745
0.694249
1.15361
1.60711
2.05107
2.48045
2.88847
3.26627
3.60267
3.88426
4.09589
4.22181
4.2478
4.1644
3.97128
0.271017
0.812384
1.35154
1.88626
2.41319
2.92729
3.42125
3.88492
4.30474
4.66352
4.94054
5.11266
5.15663
5.05318
4.79375
0.310955
0.932737
1.5539
2.17321
2.78816
3.39429
3.98434
4.54742
5.06788
5.52453
5.89009
6.1317
6.21288
6.09797
5.76026
0.351023
1.05371
1.7581
2.46452
3.17197
3.87735
4.57443
5.25253
5.89484
6.47664
6.96363
7.31117
7.46524
7.36559
6.95169
0.390448
1.17299
1.96029
2.75481
3.55786
4.36872
5.18352
5.99344
6.78233
7.52358
8.17663
8.68414
8.97134
8.94754
8.50306
0.428226
1.28752
2.15525
3.03659
3.93593
4.85617
5.79749
6.75538
7.71748
8.65875
9.5352
10.2775
10.7885
10.9502
10.6212
0.463159
1.39364
2.3366
3.30037
4.29313
5.32255
6.39489
7.51314
8.67348
9.85877
11.028
12.102
12.9552
13.4438
13.5157
0.493935
1.48727
2.49714
3.53516
4.61368
5.74604
6.9464
8.22884
9.60453
11.0749
12.616
14.1475
15.4865
16.3539
16.8519
0.519253
1.56435
2.62957
3.72945
4.88039
6.10153
7.41586
8.85129
10.4409
12.2204
14.2137
16.3856
18.4895
19.6332
17.3305
31812.2
31782.4
31752.4
31722
31691.3
31660.3
31629
31597.5
31565.8
31533.8
31501.7
31469.4
31437
31404.4
31371.7
31338.9
31306.1
31273.2
31240.2
31207.3
31174.3
31141.4
31108.4
31075.4
31042.4
31009.4
30976.4
30943.4
30910.4
30877.4
30844.4
30811.4
30778.5
30745.5
30712.6
30679.8
30646.9
30614.1
30581.3
30548.5
30515.7
30482.8
30450
30417.2
30384.4
30351.6
30318.8
30286.1
30253.3
30220.6
30187.9
30155.1
30122.5
30089.8
30057.1
30024.4
29991.7
29959
29926.3
29893.5
29860.8
29828.1
29795.4
29762.7
29730
29697.4
29664.8
29632.2
29599.6
29567
29534.4
29501.8
29469.3
29436.7
29404.1
29371.6
29339.1
29306.6
29274.1
29241.6
29209.2
29176.7
29144.2
29111.7
29079.1
29046.5
29013.8
28980.9
28948
28914.9
0.788196
0.75042
0.70853
0.664609
0.620405
0.577092
0.535153
0.494396
0.454119
0.413375
0.371299
0.327404
0.281805
0.235311
0.189364
0.145835
0.106716
0.0737698
0.048202
0.0304365
0.0200178
0.0156663
0.0154686
0.0171723
0.0185339
0.0176665
0.0133301
0.00511661
-0.00650243
-0.0202789
-0.0344271
-0.0469599
-0.0560581
-0.0604069
-0.0594342
-0.0534155
-0.0434281
-0.0311703
-0.0186778
-0.00798477
-0.000785045
0.0018516
-0.000339042
-0.00676939
-0.0161015
-0.0264829
-0.0358774
-0.0424299
-0.0447967
-0.0423815
-0.0354356
-0.025012
-0.0127831
-0.000757504
0.00905865
0.0150003
0.0160268
0.0119038
0.00324877
-0.00856978
-0.0216686
-0.0339804
-0.0436186
-0.049207
-0.0501139
-0.0465498
-0.0395167
-0.0306207
-0.0217806
-0.0148806
-0.0114224
-0.0122318
-0.0172683
-0.0255726
-0.0353658
-0.0442901
-0.0497539
-0.0493255
-0.0411095
-0.0240492
0.00188353
0.0356264
0.0750916
0.117343
0.158867
0.195919
0.224912
0.242822
0.247555
0.238218
1.32385
1.25749
1.18436
1.10839
1.03285
0.959887
0.890287
0.823468
0.757831
0.691292
0.621926
0.548575
0.471286
0.391501
0.311946
0.23623
0.168232
0.111399
0.0681077
0.0392146
0.0238746
0.0196515
0.0228898
0.0292812
0.0345352
0.0350461
0.0284527
0.0140002
-0.0073622
-0.033174
-0.0599268
-0.0837206
-0.100991
-0.109167
-0.107129
-0.0954082
-0.0760867
-0.0524459
-0.0284166
-0.00792706
0.00574897
0.0105405
0.00593425
-0.00692928
-0.0254455
-0.0460021
-0.064626
-0.0777008
-0.0826134
-0.0782089
-0.0649801
-0.0449701
-0.0214169
0.00179425
0.0207823
0.0323217
0.0343904
0.0265243
0.00991425
-0.0127844
-0.0379079
-0.0614317
-0.0796882
-0.0900125
-0.0911956
-0.0836691
-0.0694008
-0.05153
-0.0338061
-0.0199227
-0.0128484
-0.0142615
-0.0241779
-0.040841
-0.0609037
-0.0798873
-0.0928479
-0.0951344
-0.0831068
-0.0547012
-0.00977233
0.0498068
0.120274
0.196303
0.271489
0.338967
0.392117
0.425315
0.434643
0.418423
1.87496
1.77427
1.66426
1.55152
1.44153
1.33781
1.24138
1.15081
1.06281
0.973245
0.878262
0.775388
0.664332
0.547331
0.428972
0.315485
0.213645
0.129505
0.0672591
0.0284569
0.0117057
0.0128774
0.0257573
0.0430171
0.0573582
0.0626495
0.0548887
0.0328325
-0.00181376
-0.0447107
-0.0896812
-0.129866
-0.15901
-0.172619
-0.168751
-0.148325
-0.114941
-0.0742539
-0.0330278
0.00197568
0.0251134
0.0328022
0.0241409
0.00109661
-0.0318028
-0.0682528
-0.101311
-0.124669
-0.133787
-0.126681
-0.104225
-0.0699629
-0.0294883
0.0104994
0.0433065
0.0633577
0.0671386
0.0538166
0.0254292
-0.0134241
-0.0563661
-0.0963824
-0.127094
-0.143894
-0.144731
-0.130408
-0.104384
-0.0721381
-0.0402117
-0.0150697
-0.00196251
-0.0039563
-0.0212824
-0.0511242
-0.0879056
-0.124068
-0.151224
-0.161467
-0.148601
-0.10906
-0.0424394
0.0483922
0.157529
0.276555
0.39529
0.502725
0.588125
0.642253
0.658585
0.634296
2.44898
2.30446
2.14811
1.99068
1.8412
1.70527
1.58406
1.47445
1.37006
1.26302
1.14598
1.014
0.865959
0.705138
0.539003
0.377992
0.233593
0.116107
0.0326758
-0.0140297
-0.0262475
-0.0107321
0.0223419
0.0609801
0.093236
0.109071
0.101931
0.0698152
0.0156349
-0.0532435
-0.126311
-0.191893
-0.239386
-0.261229
-0.254204
-0.219892
-0.164306
-0.096832
-0.0286744
0.0289678
0.0667249
0.0786071
0.0630561
0.0233087
-0.0330544
-0.0953972
-0.151977
-0.192155
-0.208339
-0.197276
-0.16049
-0.103924
-0.0368817
0.02952
0.0841728
0.117796
0.124486
0.102773
0.0559831
-0.00820899
-0.0790718
-0.144768
-0.194568
-0.2208
-0.220136
-0.194036
-0.148364
-0.0923253
-0.0368866
0.00707563
0.0306315
0.0283911
-0.000399184
-0.051448
-0.11583
-0.18125
-0.233982
-0.261106
-0.252532
-0.202438
-0.109991
0.0205983
0.180527
0.357212
0.535348
0.698199
0.829153
0.913606
0.941012
0.906688
3.05518
2.8517
2.63353
2.41841
2.2214
2.05153
1.91006
1.7906
1.68117
1.56722
1.43522
1.27579
1.08601
0.870628
0.641686
0.416611
0.214816
0.0537045
-0.05476
-0.106145
-0.104103
-0.0595928
0.010947
0.0881659
0.152792
0.188606
0.18497
0.138597
0.0542743
-0.0557203
-0.1737
-0.279951
-0.356682
-0.391393
-0.378938
-0.322085
-0.230782
-0.120388
-0.00917523
0.0845959
0.145595
0.163912
0.136808
0.0694379
-0.0257078
-0.130856
-0.226282
-0.294212
-0.322155
-0.304938
-0.245269
-0.153003
-0.0433879
0.0654223
0.155284
0.210975
0.222691
0.187794
0.11155
0.00656343
-0.109268
-0.216096
-0.296032
-0.33649
-0.332227
-0.285902
-0.207329
-0.111706
-0.0170913
0.0585505
0.100318
0.0989174
0.0524848
-0.0326206
-0.142309
-0.256748
-0.353657
-0.412189
-0.416287
-0.356839
-0.232499
-0.0494723
0.179373
0.435756
0.6974
0.93959
1.13713
1.26709
1.31232
1.26484
3.70656
3.42011
3.11458
2.82008
2.56251
2.35694
2.20436
2.09236
1.99879
1.89744
1.76401
1.5813
1.34298
1.05567
0.73884
0.421745
0.137495
-0.0844711
-0.22435
-0.275156
-0.243073
-0.145896
-0.0100257
0.133525
0.253875
0.324985
0.329585
0.26206
0.129911
-0.0466705
-0.237953
-0.410495
-0.534468
-0.589461
-0.567591
-0.473875
-0.324739
-0.145116
0.0354448
0.187418
0.285928
0.314621
0.268533
0.155554
-0.00397277
-0.180333
-0.340203
-0.45388
-0.501029
-0.473764
-0.377024
-0.227103
-0.0487775
0.128567
0.275552
0.367432
0.387967
0.332303
0.20845
0.0368944
-0.15249
-0.32621
-0.454411
-0.516644
-0.504956
-0.424271
-0.290914
-0.129701
0.0299564
0.158738
0.2321
0.234226
0.160996
0.0215471
-0.162002
-0.357544
-0.528646
-0.641701
-0.671589
-0.604723
-0.439548
-0.185551
0.138541
0.506706
0.887448
1.24527
1.54241
1.7426
1.81713
1.75167
4.42391
4.01599
3.57975
3.16861
2.82877
2.58605
2.44026
2.3676
2.32767
2.27387
2.16381
1.96694
1.67054
1.28326
0.836414
0.379627
-0.0294717
-0.340806
-0.522159
-0.563479
-0.475732
-0.287869
-0.0420115
0.21234
0.425907
0.557184
0.5781
0.478622
0.269568
-0.0164196
-0.329163
-0.610954
-0.811562
-0.898192
-0.859686
-0.705456
-0.462586
-0.171187
0.121238
0.367229
0.526797
0.573009
0.496578
0.308684
0.0419864
-0.253577
-0.520669
-0.709379
-0.787097
-0.742675
-0.585401
-0.342153
-0.0528017
0.235379
0.475119
0.626571
0.66291
0.574946
0.373978
0.0928318
-0.218337
-0.501943
-0.70786
-0.80332
-0.777116
-0.63857
-0.414689
-0.145538
0.121387
0.338652
0.466386
0.477976
0.36479
0.139151
-0.164488
-0.493591
-0.787278
-0.991024
-1.06626
-0.994209
-0.774534
-0.422594
0.0342236
0.559526
1.11049
1.63831
2.08729
2.39909
2.5235
2.43295
5.24455
4.6527
4.00879
3.41449
2.9552
2.6756
2.57089
2.59574
2.67653
2.73138
2.68865
2.49592
2.12901
1.59669
0.948345
0.268887
-0.337167
-0.784262
-1.02156
-1.03761
-0.852502
-0.513301
-0.0861744
0.349941
0.716488
0.948356
1.00003
0.853017
0.520053
0.0523962
-0.464909
-0.92829
-1.25276
-1.3871
-1.31841
-1.06466
-0.670304
-0.198725
0.273903
0.671497
0.930902
1.008
0.885121
0.575281
0.129495
-0.367847
-0.814033
-1.12474
-1.24909
-1.17414
-0.917631
-0.523645
-0.055194
0.411887
0.80176
1.05141
1.11678
0.980244
0.654892
0.191926
-0.323952
-0.789633
-1.12045
-1.26528
-1.21114
-0.975843
-0.603743
-0.158262
0.28424
0.647403
0.867831
0.901317
0.730437
0.369
-0.130381
-0.680704
-1.17549
-1.52545
-1.67308
-1.59631
-1.30002
-0.810689
-0.168736
0.575367
1.36685
2.14484
2.82971
3.32538
3.53942
3.41413
6.24241
5.36441
4.36648
3.46597
2.82294
2.51332
2.51498
2.74338
3.06277
3.32945
3.42955
3.27579
2.82571
2.07725
1.10514
0.0525003
-0.873703
-1.52976
-1.83952
-1.80132
-1.45111
-0.865283
-0.143217
0.587787
1.20107
1.59907
1.70813
1.49524
0.964547
0.192749
-0.67827
-1.44563
-1.96772
-2.16834
-2.04359
-1.62633
-0.989206
-0.227762
0.534629
1.17476
1.59753
1.73097
1.54288
1.03763
0.291222
-0.555808
-1.30252
-1.80853
-1.9981
-1.8671
-1.44789
-0.812429
-0.0556776
0.699511
1.33025
1.74154
1.86134
1.65735
1.13389
0.367124
-0.501941
-1.27162
-1.80097
-2.01386
-1.90612
-1.51022
-0.898574
-0.166803
0.561234
1.16159
1.53837
1.61885
1.37039
0.797398
-0.0229988
-0.947874
-1.77229
-2.35131
-2.60308
-2.51457
-2.1035
-1.4186
-0.518834
0.522924
1.64255
2.78538
3.84447
4.65709
5.04387
4.8741
7.57618
6.24892
4.58403
3.14681
2.21067
1.90287
2.1326
2.76004
3.52494
4.16745
4.53606
4.4824
3.95214
2.87994
1.37794
-0.345881
-1.79918
-2.77386
-3.15846
-3.01425
-2.38893
-1.41337
-0.213054
0.99523
1.99573
2.66593
2.8799
2.59516
1.7563
0.476032
-1.04086
-2.31611
-3.14557
-3.41809
-3.18997
-2.50461
-1.48711
-0.258152
0.97142
1.99104
2.68081
2.91693
2.65734
1.84723
0.597821
-0.888262
-2.13766
-2.94804
-3.2088
-2.97517
-2.28961
-1.27595
-0.0539884
1.16626
2.17468
2.85133
3.07207
2.79442
1.96313
0.689533
-0.823157
-2.09981
-2.93729
-3.22429
-3.01619
-2.35541
-1.36651
-0.170102
1.02196
1.99758
2.63546
2.80992
2.47756
1.58195
0.234728
-1.35979
-2.72257
-3.64846
-4.02315
-3.89735
-3.30137
-2.33599
-1.07349
0.35821
1.88466
3.54625
5.21379
6.60164
7.34933
7.14049
9.60797
7.61973
4.4739
2.10626
0.693802
0.518519
1.1776
2.57881
4.16343
5.39993
6.2507
6.3754
5.85905
4.30162
1.97025
-1.13375
-3.41376
-4.86761
-5.23881
-4.91989
-3.831
-2.28503
-0.294272
1.70197
3.26611
4.38987
4.76989
4.49309
3.18374
1.10012
-1.75137
-3.82848
-5.12538
-5.38877
-4.99476
-3.86114
-2.2895
-0.289413
1.71056
3.28231
4.41737
4.81672
4.56457
3.2894
1.24521
-1.56159
-3.60504
-4.87909
-5.13148
-4.73413
-3.60386
-2.03954
-0.0499146
1.93794
3.49675
4.61752
5.00038
4.72864
3.42919
1.35611
-1.4844
-3.56055
-4.86643
-5.14783
-4.77828
-3.67326
-2.13342
-0.167302
1.79422
3.31976
4.39973
4.73065
4.39567
3.01668
0.848447
-2.10554
-4.30206
-5.73944
-6.16398
-5.95726
-5.03127
-3.68131
-1.87196
0.056816
1.93187
4.29815
6.98534
9.46739
11.0315
10.8824
13.1763
10.6573
3.24292
-0.309841
-2.60452
-2.0672
-0.845998
2.13356
5.30325
7.18791
9.01093
9.19157
9.26516
6.83783
3.67521
-3.10807
-6.21795
-8.52028
-8.31286
-7.93422
-5.93119
-3.79709
-0.383304
3.03103
5.17073
7.18491
7.60577
7.87798
5.72621
2.83001
-3.57697
-6.46431
-8.59343
-8.30608
-7.86458
-5.84841
-3.70885
-0.32049
3.06636
5.20243
7.2134
7.65468
7.94496
5.83898
2.99073
-3.33417
-6.18042
-8.2814
-7.98988
-7.54859
-5.54324
-3.41567
-0.0433683
3.32737
5.44954
7.44623
7.87124
8.14267
6.00919
3.12768
-3.24641
-6.13063
-8.27097
-8.00886
-7.59958
-5.61739
-3.51431
-0.158027
3.19415
5.28342
7.24252
7.61013
7.81706
5.58778
2.59355
-3.94212
-6.97477
-9.28894
-9.21389
-9.05294
-7.37176
-5.68827
-2.84261
-0.167453
1.27148
4.58784
9.05235
13.655
17.1807
17.6981
19.9272
20.7433
-3.54926
-4.53773
-9.98093
-5.63766
-5.40155
1.41461
8.2936
9.06471
14.1363
12.162
16.2727
10.4329
10.594
-10.372
-10.1849
-15.7869
-11.6334
-13.2876
-8.22001
-7.15181
-0.473014
6.19567
7.25622
12.2744
10.6558
14.7535
9.34076
9.61552
-10.4708
-10.192
-15.5412
-11.4454
-13.0019
-8.01339
-6.92646
-0.349386
6.22331
7.30273
12.2698
10.7101
14.776
9.45742
9.74259
-10.116
-9.82908
-15.129
-11.0641
-12.6154
-7.65876
-6.58432
-0.0347006
6.51462
7.58291
12.5381
10.9632
15.0196
9.66621
9.92844
-10.034
-9.77208
-15.1353
-11.082
-12.6861
-7.7358
-6.7
-0.14305
6.41248
7.43433
12.3768
10.7208
14.7464
9.26022
9.43818
-10.8232
-10.6822
-16.279
-12.3875
-14.3378
-9.71567
-9.36892
-3.56797
1.38831
-2.09219
3.22473
10.9211
19.3945
27.6626
32.2943
29.5229
66.9807
-43.8984
-2.34979
-31.4487
-3.29266
-19.4311
0.60641
20.0806
4.75017
29.4091
6.37122
37.6104
5.38827
47.9374
-48.0949
-5.8142
-37.0999
-6.58936
-28.3187
-4.74832
-18.5844
-0.546777
17.4375
3.64393
26.9224
5.47562
35.3252
4.76617
45.7219
-46.6901
-5.81476
-36.0897
-6.44524
-27.5641
-4.56012
-18.0501
-0.372131
17.2904
3.80447
26.7245
5.66419
35.12
5.00558
45.5006
-45.9092
-5.43417
-35.464
-6.05275
-27.0558
-4.18593
-17.6394
-0.0278048
17.5924
4.11682
27.0309
5.94335
35.4444
5.23388
45.8499
-45.9479
-5.31655
-35.5625
-6.01187
-27.2143
-4.22067
-17.8395
-0.129386
17.5959
3.93614
27.0097
5.64658
35.3693
4.77313
45.7123
-47.0866
-6.12973
-36.9347
-7.15139
-29.0895
-5.90552
-20.9061
-3.07942
15.0909
-18.1228
-1.56331
11.6723
25.4308
43.3822
72.2513
28878.4
28838.4
28798.3
28758.1
28717.9
28677.7
28637.6
28597.5
28557.5
28517.7
28477.9
28438.2
28398.7
28359.2
28319.7
0.212955
0.168473
0.112094
0.0499967
-0.0115193
-0.0668945
-0.111871
-0.143717
-0.161191
-0.164332
-0.154177
-0.132477
-0.10146
-0.0636373
-0.021676
0.373384
0.29372
0.192947
0.0824988
-0.0261642
-0.123159
-0.201133
-0.255576
-0.284647
-0.288718
-0.269831
-0.231179
-0.176677
-0.110657
-0.0376633
0.564395
0.440126
0.283521
0.113259
-0.0524388
-0.198409
-0.313895
-0.392781
-0.433078
-0.436042
-0.405237
-0.34572
-0.263405
-0.164647
-0.0559841
0.803414
0.618862
0.387742
0.139447
-0.0984498
-0.304151
-0.463263
-0.568583
-0.618849
-0.617138
-0.56936
-0.48306
-0.366579
-0.228544
-0.0776111
1.11431
0.844156
0.509129
0.155224
-0.176669
-0.456496
-0.666436
-0.799449
-0.856606
-0.844309
-0.772012
-0.650587
-0.491311
-0.30534
-0.103529
1.53115
1.13432
0.649387
0.148982
-0.306966
-0.678743
-0.946548
-1.10619
-1.16383
-1.13149
-1.0238
-0.855971
-0.642741
-0.397978
-0.134694
2.10426
1.51259
0.805126
0.0982833
-0.52144
-1.00497
-1.33484
-1.51493
-1.56104
-1.49403
-1.33574
-1.10676
-0.825709
-0.50914
-0.171963
2.91049
2.00667
0.960261
-0.0395183
-0.872096
-1.48486
-1.87292
-2.05768
-2.07137
-1.94788
-1.71836
-1.40964
-1.0442
-0.640914
-0.215984
4.07107
2.6433
1.06877
-0.344501
-1.44254
-2.18946
-2.61429
-2.77151
-2.71889
-2.50778
-2.1802
-1.76923
-1.30054
-0.794335
-0.267043
5.7831
3.42651
1.01589
-0.964745
-2.36409
-3.21613
-3.62328
-3.69517
-3.5249
-3.18415
-2.72546
-2.18654
-1.59442
-0.968843
-0.324898
8.37038
4.26327
0.532698
-2.16648
-3.833
-4.68768
-4.96754
-4.86098
-4.50141
-3.97848
-3.35095
-2.65705
-1.92176
-1.16172
-0.388604
12.3243
4.72326
-0.982237
-4.4012
-6.11392
-6.73407
-6.69824
-6.2798
-5.6413
-4.87741
-4.04281
-3.16896
-2.27384
-1.3677
-0.456397
18.0172
3.28793
-4.7837
-8.34241
-9.48758
-9.43654
-8.81158
-7.91868
-6.90659
-5.84706
-4.77395
-3.70214
-2.63696
-1.57883
-0.525685
22.865
-4.80479
-13.0979
-14.6972
-14.0576
-12.713
-11.1929
-9.67679
-8.21933
-6.83033
-5.50379
-4.22871
-2.99305
-1.78498
-0.5932
0.536962
1.61825
2.72207
3.86506
5.06652
6.35006
7.74598
9.29478
11.0524
13.0974
15.5382
18.5026
22.0196
25.3028
22.7336
0.547462
1.65009
2.77636
3.94388
5.17335
6.49068
7.9302
9.54005
11.3918
13.5991
16.3573
20.0407
25.4845
34.9707
56.3338
0.552613
1.66553
2.80202
3.97967
5.21917
6.54646
7.99616
9.61734
11.4843
13.7181
16.5339
20.3565
26.1422
36.3911
58.7476
0.552426
1.66458
2.79912
3.97253
5.20403
6.51725
7.94305
9.52397
11.3221
13.4331
16.0113
19.3091
23.7005
29.4039
34.0175
0.547167
1.64811
2.76921
3.92507
5.13214
6.40988
7.78224
9.27978
10.9426
12.8237
14.9889
17.5022
20.3479
23.1739
24.8152
0.537319
1.61764
2.71519
3.84205
5.0112
6.23683
7.53451
8.92082
10.4117
12.0168
13.7249
15.4644
17.0092
17.7667
16.2958
0.523527
1.57521
2.64082
3.72967
4.85104
6.01377
7.22526
8.48929
9.80133
11.1385
12.439
13.5618
14.2173
13.9071
12.2549
0.506522
1.52313
2.5503
3.59472
4.66219
5.75687
6.87953
8.02446
9.17359
10.2857
11.2767
11.9837
12.0959
10.9794
6.9543
0.487047
1.4637
2.44784
3.44376
4.45447
5.48056
6.51838
7.55675
8.57159
9.51702
10.3115
10.8186
10.8277
10.0716
8.51724
0.465796
1.39908
2.3372
3.28255
4.23607
5.19614
6.15686
7.10541
8.01785
8.85322
9.54598
9.99951
10.091
9.7181
8.9493
0.443375
1.3311
2.22154
3.11568
4.01314
4.91127
5.80383
6.67917
7.51765
8.2885
8.94664
9.43186
9.67682
9.63961
9.39611
0.420276
1.26126
2.10333
2.94652
3.78978
4.6303
5.46279
6.27856
7.06446
7.8021
8.46743
9.03112
9.45866
9.70445
9.68055
0.396882
1.19066
1.98434
2.77734
3.56833
4.35492
5.1334
5.89871
6.64483
7.36596
8.05884
8.72499
9.36678
9.95663
10.3502
0.37348
1.12014
1.86583
2.60956
3.34996
4.0852
4.81318
5.53223
6.24258
6.94949
7.66888
8.43584
9.31103
10.3452
11.2641
0.350285
1.05032
1.74868
2.44411
3.13519
3.82053
4.49921
5.17183
5.84276
6.52441
7.24593
8.07161
9.14492
10.814
14.0565
0.327467
0.981656
1.63358
2.28169
2.92444
3.56053
4.18946
4.81265
5.43553
6.07168
6.75072
7.53547
8.56517
10.1902
13.493
0.30517
0.914572
1.52115
2.12301
2.71832
3.30551
3.88374
4.4537
5.01914
5.58922
6.18215
6.8293
7.57205
8.40145
8.83302
0.283525
0.849454
1.41201
1.9689
2.51787
3.05676
3.58378
4.09793
4.59957
5.09094
5.576
6.0568
6.51883
6.88905
6.98473
0.262661
0.786687
1.3068
1.82031
2.32443
2.81626
3.29279
3.7509
4.18716
4.59708
4.97286
5.2974
5.52943
5.56739
5.14781
0.242698
0.726642
1.20619
1.67826
2.13956
2.58641
3.01461
3.41907
3.79309
4.12698
4.40535
4.60229
4.67488
4.56354
4.25546
0.223745
0.669658
1.11078
1.54372
1.96473
2.36953
2.75296
3.10841
3.42692
3.69548
3.89443
3.99358
3.9481
3.69635
3.14573
0.205889
0.616006
1.02107
1.41746
1.80117
2.16752
2.51075
2.82345
3.09547
3.31236
3.45284
3.48537
3.36462
3.03677
2.51815
0.18919
0.56587
0.937382
1.30003
1.64969
1.98157
2.28978
2.56676
2.80234
2.98233
3.08628
3.08365
2.92499
2.5097
1.52328
0.173672
0.519329
0.859863
1.19163
1.51058
1.81209
2.09052
2.33884
2.54784
2.70514
2.79375
2.79033
2.66361
2.37928
1.95908
0.159326
0.476352
0.788445
1.09213
1.38362
1.65864
1.9122
2.13826
2.32928
2.47568
2.56518
2.58265
2.51173
2.34324
2.09892
0.146111
0.436806
0.722876
1.00111
1.2681
1.52011
1.753
1.96204
2.14175
2.28575
2.38667
2.43639
2.42765
2.35989
2.25914
0.13396
0.400475
0.662757
0.91792
1.16299
1.39488
1.61038
1.8062
1.97904
2.12579
2.24374
2.33076
2.3846
2.39949
2.35401
0.122786
0.36709
0.607589
0.841748
1.06705
1.28105
1.48146
1.66635
1.83448
1.98584
2.12232
2.24821
2.36863
2.48105
2.55369
0.112494
0.336351
0.556831
0.771737
0.978978
1.17667
1.36333
1.53815
1.70159
1.85625
2.0083
2.16947
2.35827
2.59028
2.79736
0.102988
0.307962
0.509952
0.707059
0.897548
1.07998
1.25343
1.41788
1.57483
1.72851
1.88797
2.0716
2.31793
2.71686
3.51682
0.0941799
0.281648
0.466471
0.646988
0.821727
0.989536
1.14981
1.30282
1.45037
1.59678
1.75089
1.93022
2.17166
2.56501
3.38284
0.0859924
0.257176
0.425986
0.590939
0.75073
0.904344
1.05123
1.19159
1.32673
1.45974
1.59631
1.74573
1.91995
2.11841
2.22176
0.0783625
0.234357
0.388185
0.538485
0.684035
0.823836
0.95722
1.08399
1.20459
1.32024
1.43285
1.54405
1.65143
1.73792
1.75913
0.0712411
0.213047
0.35284
0.489336
0.621343
0.747798
0.867813
0.980694
1.0859
1.18288
1.2704
1.34507
1.39743
1.4028
1.29536
0.0645906
0.193137
0.31979
0.443314
0.562516
0.676245
0.783376
0.882741
0.972962
1.05209
1.1169
1.16159
1.17611
1.14604
1.06857
0.0583819
0.174547
0.288917
0.4003
0.507498
0.609285
0.704345
0.791153
0.867739
0.931275
0.97738
0.999101
0.985765
0.92222
0.784615
0.05259
0.157206
0.260125
0.3602
0.456248
0.547007
0.631058
0.706677
0.771594
0.822581
0.854815
0.860975
0.830311
0.749851
0.623785
0.0471909
0.141046
0.233311
0.322902
0.408678
0.489398
0.563637
0.629647
0.685138
0.726925
0.750373
0.748438
0.709455
0.609168
0.370718
0.0421587
0.125991
0.20836
0.28826
0.364627
0.436299
0.501941
0.559934
0.608213
0.644019
0.663573
0.661644
0.631188
0.564445
0.466957
0.0374642
0.111956
0.185128
0.256075
0.323843
0.387396
0.445565
0.496978
0.53996
0.572414
0.591707
0.594675
0.578132
0.541087
0.491254
0.0330739
0.0988378
0.163445
0.226104
0.285994
0.34224
0.393891
0.439888
0.47903
0.50996
0.53119
0.541268
0.539328
0.526621
0.51045
0.0289509
0.0865257
0.143117
0.198061
0.25068
0.300281
0.346152
0.387566
0.423814
0.454254
0.478429
0.496221
0.508014
0.514575
0.516071
0.0250556
0.0748983
0.123936
0.171635
0.217467
0.26092
0.301514
0.338842
0.37264
0.402911
0.430111
0.455354
0.480346
0.50606
0.528193
0.0213472
0.0638315
0.105688
0.14651
0.185912
0.223549
0.259151
0.292577
0.323925
0.35371
0.383162
0.414673
0.452191
0.500047
0.551061
0.0177854
0.0532021
0.0881607
0.122374
0.155586
0.187598
0.218304
0.247761
0.276303
0.304749
0.334795
0.369832
0.416871
0.491857
0.636494
0.0143312
0.0428919
0.0711529
0.0989359
0.126098
0.152558
0.17833
0.203588
0.228756
0.254684
0.282971
0.316668
0.362156
0.435313
0.586773
0.0109481
0.0327907
0.0544789
0.0759311
0.0971009
0.117998
0.138719
0.159481
0.180687
0.20299
0.227398
0.255325
0.288238
0.324409
0.337579
0.00760233
0.0227976
0.0379701
0.0531242
0.0682951
0.0835652
0.0990811
0.115072
0.13186
0.149841
0.169387
0.19053
0.212068
0.229492
0.23364
0.00426339
0.0128209
0.0214751
0.030307
0.0394224
0.0489633
0.0591164
0.0701132
0.0822092
0.0956091
0.110274
0.125469
0.138762
0.143805
0.124329
0.000903293
0.00277734
0.00485745
0.00729363
0.0102552
0.0139379
0.0185674
0.024393
0.0316555
0.0405025
0.0507964
0.0617323
0.0711936
0.0751499
0.0701211
-0.00250358
-0.00740914
-0.0120073
-0.0160843
-0.0194124
-0.0217446
-0.0228113
-0.022324
-0.0199972
-0.015607
-0.00912422
-0.00097669
0.00745139
0.0127392
0.00575745
-0.00598103
-0.0178092
-0.0292342
-0.0399825
-0.0497718
-0.0583062
-0.0652694
-0.0703188
-0.0730826
-0.0731694
-0.0702001
-0.0638792
-0.0541083
-0.0411486
-0.026177
-0.00955158
-0.0284895
-0.0469317
-0.0645475
-0.0810039
-0.0959603
-0.109058
-0.119902
-0.128029
-0.132855
-0.133605
-0.129178
-0.117883
-0.0964336
-0.0547912
-0.0132371
-0.0395147
-0.0652041
-0.0899193
-0.11328
-0.134907
-0.154415
-0.171376
-0.185269
-0.195376
-0.200606
-0.19925
-0.188711
-0.165744
-0.130587
-0.0170594
-0.0509491
-0.0841548
-0.116234
-0.146761
-0.17533
-0.201543
-0.224983
-0.245144
-0.261287
-0.272187
-0.275704
-0.268174
-0.243522
-0.189869
-0.0210414
-0.0628595
-0.10389
-0.143629
-0.181607
-0.217393
-0.250603
-0.280875
-0.307815
-0.330847
-0.348902
-0.359837
-0.359534
-0.341447
-0.302128
-0.0252078
-0.0753185
-0.124524
-0.172251
-0.217978
-0.261252
-0.301708
-0.339087
-0.373208
-0.403871
-0.430572
-0.451782
-0.463255
-0.454125
-0.396285
-0.0295865
-0.088408
-0.146187
-0.202267
-0.256059
-0.307072
-0.354959
-0.399572
-0.441012
-0.479657
-0.516068
-0.550502
-0.581297
-0.600644
-0.590254
-0.0342099
-0.102224
-0.169032
-0.233878
-0.296077
-0.355071
-0.410493
-0.46227
-0.510769
-0.557009
-0.602951
-0.651766
-0.707306
-0.76783
-0.783482
-0.039116
-0.116879
-0.193246
-0.267331
-0.338328
-0.405559
-0.46857
-0.527258
-0.582108
-0.634582
-0.687856
-0.748378
-0.829876
-0.9662
-1.26243
-0.044349
-0.132505
-0.219048
-0.302937
-0.383201
-0.45899
-0.529659
-0.594924
-0.655112
-0.711618
-0.767747
-0.830445
-0.914397
-1.05355
-1.33923
-0.049959
-0.149256
-0.246697
-0.341067
-0.431192
-0.515986
-0.594515
-0.666131
-0.730691
-0.788935
-0.843097
-0.897778
-0.96061
-1.03919
-1.11323
-0.0560012
-0.1673
-0.276485
-0.382151
-0.482896
-0.577345
-0.664187
-0.742255
-0.810675
-0.869108
-0.918112
-0.959478
-0.995915
-1.02802
-1.04515
-0.0625335
-0.186813
-0.308724
-0.426661
-0.538984
-0.644001
-0.739968
-0.825098
-0.897614
-0.955852
-0.998457
-1.02463
-1.03426
-1.0273
-1.0009
-0.0696139
-0.207977
-0.343729
-0.47508
-0.600157
-0.716956
-0.823291
-0.916722
-0.994491
-1.05348
-1.09024
-1.1013
-1.08415
-1.04012
-0.982233
-0.0772964
-0.230957
-0.381797
-0.527867
-0.667091
-0.797195
-0.915593
-1.01924
-1.10444
-1.16657
-1.1999
-1.1976
-1.15273
-1.06258
-0.941355
-0.0856284
-0.255899
-0.423187
-0.585418
-0.740373
-0.885578
-1.01816
-1.1346
-1.23042
-1.29968
-1.33434
-1.32349
-1.25278
-1.10667
-0.895374
-0.0946469
-0.282918
-0.468096
-0.648035
-0.820439
-0.982748
-1.13195
-1.26431
-1.37488
-1.45684
-1.5004
-1.491
-1.40523
-1.19607
-0.717877
-0.104378
-0.31209
-0.516651
-0.715896
-0.907532
-1.08904
-1.25747
-1.40917
-1.53924
-1.64071
-1.70328
-1.71157
-1.6434
-1.47233
-1.20537
-0.114835
-0.343454
-0.568908
-0.789054
-1.00168
-1.20442
-1.39463
-1.56909
-1.7235
-1.85163
-1.9439
-1.98529
-1.95305
-1.81522
-1.52224
-0.126026
-0.377023
-0.624861
-0.867449
-1.1027
-1.32853
-1.54276
-1.74295
-1.92603
-2.08749
-2.21989
-2.31018
-2.33609
-2.26591
-2.0905
-0.13795
-0.412791
-0.684471
-0.95095
-1.21029
-1.46072
-1.70066
-1.92873
-2.14361
-2.34358
-2.52517
-2.67983
-2.78591
-2.78972
-2.55284
-0.150613
-0.450759
-0.747703
-1.03942
-1.32409
-1.60022
-1.86684
-2.1237
-2.37159
-2.61248
-2.84921
-3.08326
-3.30681
-3.48076
-3.50869
-0.164026
-0.490959
-0.814573
-1.1328
-1.44384
-1.74636
-2.03981
-2.32493
-2.60446
-2.88432
-3.17517
-3.49405
-3.86224
-4.27326
-4.47235
-0.178219
-0.53347
-0.885194
-1.23119
-1.56953
-1.89882
-2.21861
-2.53007
-2.83715
-3.14859
-3.48171
-3.87068
-4.38799
-5.21305
-6.90107
-0.193239
-0.578435
-0.959805
-1.33491
-1.70152
-2.0579
-2.40322
-2.73829
-3.06686
-3.39785
-3.74952
-4.15827
-4.70013
-5.55366
-7.21443
-0.209153
-0.626063
-1.03878
-1.44453
-1.84063
-2.2247
-2.59498
-2.95106
-3.29493
-3.6328
-3.97777
-4.35349
-4.79593
-5.33383
-5.82873
-0.22604
-0.676608
-1.12261
-1.56087
-1.98813
-2.40109
-2.79663
-3.17234
-3.52722
-3.86288
-4.18474
-4.50244
-4.82554
-5.14399
-5.3791
-0.243977
-0.730334
-1.21181
-1.68487
-2.14558
-2.58959
-3.01209
-3.40811
-3.77291
-4.10259
-4.39466
-4.64773
-4.85845
-5.01214
-5.06063
-0.263026
-0.787455
-1.30687
-1.81745
-2.31466
-2.79304
-3.24596
-3.66561
-4.04303
-4.36846
-4.63172
-4.8225
-4.93104
-4.95344
-4.9192
-0.283204
-0.848064
-1.40807
-1.95932
-2.49684
-3.01419
-3.50298
-3.95246
-4.34929
-4.67756
-4.91917
-5.05444
-5.0635
-4.93411
-4.70088
-0.304461
-0.912046
-1.51537
-2.11073
-2.69304
-3.2552
-3.78732
-4.2759
-4.70319
-5.04689
-5.2805
-5.37403
-5.29212
-4.98687
-4.45677
-0.326646
-0.978993
-1.62821
-2.2712
-2.90325
-3.5171
-4.10191
-4.64192
-5.11518
-5.49269
-5.73914
-5.81546
-5.6758
-5.19572
-3.6417
-0.34949
-1.04812
-1.74538
-2.43929
-3.1261
-3.79918
-4.44763
-5.05434
-5.59367
-6.02954
-6.31591
-6.40684
-6.29584
-6.15035
-6.8055
-0.37258
-1.11819
-1.86488
-2.61233
-3.35849
-4.09838
-4.82237
-5.51355
-6.14405
-6.67021
-7.02839
-7.13838
-6.93981
-6.54913
-6.85705
-0.395356
-1.18753
-1.98385
-2.78627
-3.59524
-4.40864
-5.2199
-6.01493
-6.7669
-7.42753
-7.91319
-8.08412
-7.71722
-6.463
-3.62681
-0.417119
-1.25398
-2.0986
-2.95565
-3.82892
-4.72039
-5.62872
-6.54624
-7.45319
-8.30637
-9.01648
-9.40327
-9.1109
-7.47562
-3.46433
-0.437058
-1.31506
-2.20471
-3.11379
-4.04996
-5.02043
-6.03116
-7.08489
-8.17683
-9.28454
-10.3443
-11.194
-11.4372
-10.1383
-5.32779
-0.454302
-1.36804
-2.29733
-3.25312
-4.24718
-5.29253
-6.40374
-7.59702
-8.88952
-10.2961
-11.8179
-13.4057
-14.8343
-15.2396
-11.2503
-0.467982
-1.41021
-2.37156
-3.36587
-4.40879
-5.5189
-6.71933
-8.04025
-9.52304
-11.2276
-13.2456
-15.7281
-18.942
-23.3926
-30.0277
-12.0901
-27.8073
-26.2832
-22.4412
-18.8746
-15.8868
-13.3863
-11.2474
-9.37027
-7.68241
-6.13165
-4.67963
-3.29712
-1.96073
-0.650714
-120.36
-62.6717
-40.3998
-29.4115
-22.8687
-18.4252
-15.1164
-12.482
-10.2759
-8.35465
-6.62847
-5.0374
-3.53888
-2.10066
-0.696541
-133.805
-72.9412
-46.6807
-33.2945
-25.4047
-20.1757
-16.3783
-13.4191
-10.9836
-8.89144
-7.03148
-5.33091
-3.73876
-2.21692
-0.734705
-73.3052
-59.1807
-44.0209
-33.3606
-26.0931
-20.9319
-17.0581
-13.9926
-11.4531
-9.26697
-7.32381
-5.54912
-3.88982
-2.30567
-0.763975
-51.6371
-46.139
-38.2363
-31.0705
-25.3187
-20.7942
-17.1766
-14.2008
-11.6771
-9.47379
-7.49916
-5.68722
-3.9887
-2.36493
-0.783705
-32.716
-34.7672
-31.9399
-27.7984
-23.6919
-20.0266
-16.8493
-14.0951
-11.6785
-9.52185
-7.56154
-5.74655
-4.03567
-2.39465
-0.793843
-24.1021
-26.783
-26.556
-24.502
-21.7589
-18.9201
-16.2283
-13.7551
-11.4994
-9.43359
-7.52301
-5.7336
-4.03413
-2.39646
-0.794867
-13.3943
-20.8182
-22.4409
-21.6842
-19.8922
-17.7116
-15.4555
-13.264
-11.1885
-9.23753
-7.40036
-5.65818
-3.98967
-2.37321
-0.787658