/*--------------------------------*- C++ -*----------------------------------*\
| =========                 |                                                 |
| \\      /  F ield         | OpenFOAM: The Open Source CFD Toolbox           |
|  \\    /   O peration     | Version:  5.x                                   |
|   \\  /    A nd           | Web:      www.OpenFOAM.org                      |
|    \\/     M anipulation  |                                                 |
\*---------------------------------------------------------------------------*/
FoamFile
{
    version     2.0;
    format      ascii;
    class       volScalarField;
    location    "1";
    object      T;
}
// * * * * * * * * * * * * * * * * * * * * * * * * * * * * * * * * * * * * * //

dimensions      [0 0 0 1 0 0 0];

internalField   nonuniform List<scalar> 
6300
(
322.853
322.559
322.264
321.968
321.669
321.367
321.061
320.752
320.438
320.119
319.795
319.465
319.13
318.788
318.442
322.854
322.56
322.266
321.97
321.672
321.37
321.065
320.756
320.443
320.124
319.8
319.471
319.135
318.794
318.447
322.854
322.562
322.269
321.975
321.677
321.377
321.074
320.766
320.453
320.135
319.811
319.482
319.147
318.805
318.458
322.855
322.565
322.274
321.982
321.686
321.388
321.086
320.78
320.468
320.151
319.828
319.5
319.164
318.823
318.475
322.857
322.569
322.281
321.991
321.699
321.403
321.103
320.798
320.489
320.173
319.852
319.523
319.188
318.846
318.498
322.858
322.575
322.29
322.003
321.714
321.421
321.124
320.822
320.515
320.202
319.881
319.554
319.219
318.876
318.527
322.86
322.581
322.3
322.018
321.733
321.444
321.151
320.852
320.548
320.237
319.918
319.592
319.257
318.914
318.562
322.863
322.589
322.313
322.035
321.755
321.471
321.182
320.888
320.587
320.279
319.963
319.638
319.304
318.96
318.606
322.866
322.597
322.327
322.056
321.781
321.502
321.219
320.93
320.634
320.33
320.017
319.694
319.36
319.015
318.658
322.869
322.607
322.344
322.079
321.811
321.539
321.262
320.979
320.689
320.39
320.081
319.761
319.428
319.082
318.721
322.873
322.618
322.363
322.105
321.844
321.58
321.31
321.035
320.752
320.46
320.156
319.84
319.51
319.162
318.797
322.877
322.631
322.383
322.134
321.882
321.626
321.365
321.099
320.824
320.54
320.245
319.935
319.608
319.261
318.891
322.881
322.644
322.406
322.166
321.923
321.677
321.426
321.17
320.906
320.633
320.347
320.046
319.725
319.381
319.01
322.886
322.659
322.43
322.2
321.968
321.732
321.493
321.249
320.998
320.737
320.465
320.177
319.867
319.529
319.162
322.891
322.674
322.456
322.236
322.015
321.792
321.565
321.335
321.098
320.854
320.599
320.329
320.035
319.708
319.347
318.119
317.822
317.521
317.217
316.911
316.601
316.288
315.973
315.656
315.337
315.016
314.693
314.369
314.043
313.716
313.389
313.06
312.731
312.402
312.073
311.743
311.414
311.084
310.754
310.424
310.094
309.764
309.434
309.104
308.774
308.444
308.115
307.785
307.456
307.127
306.798
306.469
306.141
305.813
305.485
305.157
304.828
304.5
304.172
303.844
303.516
303.188
302.861
302.533
302.206
301.879
301.552
301.225
300.898
300.571
300.244
299.917
299.59
299.262
298.935
298.608
298.281
297.954
297.627
297.301
296.974
296.648
296.322
295.996
295.67
295.344
295.018
294.693
294.367
294.041
293.716
293.391
293.066
292.741
292.416
292.092
291.767
291.442
291.117
290.791
290.464
290.137
289.808
289.479
289.148
318.124
317.827
317.526
317.222
316.915
316.605
316.292
315.977
315.659
315.34
315.018
314.695
314.37
314.044
313.717
313.39
313.061
312.732
312.403
312.073
311.743
311.414
311.084
310.754
310.424
310.095
309.764
309.434
309.104
308.774
308.444
308.114
307.785
307.455
307.126
306.798
306.469
306.141
305.813
305.485
305.157
304.828
304.5
304.172
303.844
303.516
303.188
302.86
302.533
302.206
301.878
301.551
301.225
300.898
300.571
300.244
299.917
299.59
299.263
298.935
298.608
298.281
297.954
297.627
297.3
296.974
296.648
296.322
295.996
295.67
295.344
295.018
294.693
294.367
294.041
293.716
293.39
293.065
292.741
292.416
292.092
291.767
291.442
291.117
290.792
290.466
290.138
289.81
289.48
289.15
318.135
317.837
317.535
317.231
316.923
316.612
316.299
315.983
315.665
315.345
315.023
314.7
314.374
314.048
313.72
313.391
313.062
312.733
312.403
312.073
311.744
311.414
311.084
310.755
310.425
310.095
309.765
309.434
309.104
308.774
308.444
308.114
307.784
307.454
307.125
306.797
306.468
306.14
305.812
305.484
305.157
304.829
304.5
304.172
303.844
303.516
303.188
302.86
302.532
302.205
301.878
301.551
301.224
300.898
300.571
300.244
299.917
299.59
299.263
298.935
298.608
298.28
297.953
297.626
297.3
296.973
296.647
296.321
295.995
295.67
295.344
295.018
294.692
294.367
294.041
293.715
293.39
293.065
292.74
292.416
292.092
291.768
291.443
291.119
290.794
290.468
290.141
289.813
289.484
289.153
318.151
317.852
317.55
317.244
316.935
316.624
316.31
315.993
315.674
315.354
315.031
314.706
314.38
314.052
313.724
313.394
313.064
312.734
312.404
312.074
311.744
311.414
311.085
310.755
310.425
310.095
309.765
309.435
309.104
308.773
308.443
308.113
307.783
307.453
307.124
306.796
306.468
306.14
305.812
305.484
305.157
304.829
304.501
304.172
303.844
303.515
303.187
302.859
302.531
302.204
301.877
301.551
301.224
300.898
300.571
300.245
299.918
299.59
299.263
298.935
298.607
298.28
297.952
297.625
297.298
296.972
296.646
296.321
295.995
295.67
295.344
295.018
294.692
294.366
294.04
293.714
293.389
293.064
292.739
292.415
292.091
291.768
291.445
291.121
290.797
290.472
290.146
289.818
289.489
289.158
318.172
317.872
317.569
317.262
316.952
316.639
316.324
316.006
315.687
315.365
315.041
314.715
314.388
314.059
313.729
313.398
313.067
312.735
312.405
312.074
311.744
311.414
311.085
310.755
310.426
310.096
309.766
309.435
309.104
308.773
308.442
308.111
307.781
307.451
307.122
306.794
306.466
306.139
305.812
305.485
305.157
304.829
304.501
304.172
303.843
303.514
303.186
302.857
302.53
302.202
301.876
301.55
301.224
300.898
300.572
300.245
299.918
299.591
299.263
298.935
298.607
298.278
297.951
297.623
297.297
296.971
296.645
296.32
295.995
295.669
295.344
295.018
294.692
294.366
294.039
293.713
293.387
293.062
292.737
292.414
292.091
291.769
291.447
291.125
290.802
290.478
290.153
289.826
289.497
289.165
318.2
317.898
317.593
317.284
316.972
316.658
316.341
316.023
315.702
315.379
315.054
314.726
314.397
314.066
313.734
313.402
313.069
312.736
312.405
312.074
311.743
311.414
311.085
310.756
310.427
310.097
309.767
309.436
309.104
308.772
308.44
308.109
307.778
307.448
307.119
306.791
306.464
306.138
305.811
305.485
305.158
304.83
304.502
304.173
303.843
303.513
303.184
302.855
302.527
302.2
301.874
301.548
301.223
300.898
300.573
300.247
299.92
299.592
299.264
298.935
298.606
298.277
297.948
297.621
297.294
296.968
296.643
296.319
295.994
295.67
295.345
295.019
294.692
294.365
294.038
293.711
293.384
293.058
292.734
292.411
292.089
291.769
291.448
291.129
290.808
290.486
290.163
289.837
289.508
289.176
318.233
317.929
317.621
317.31
316.996
316.68
316.362
316.042
315.72
315.396
315.07
314.741
314.409
314.076
313.741
313.406
313.071
312.737
312.403
312.072
311.742
311.413
311.085
310.757
310.429
310.1
309.769
309.438
309.105
308.772
308.438
308.105
307.774
307.443
307.114
306.787
306.462
306.136
305.812
305.486
305.16
304.832
304.504
304.174
303.843
303.512
303.181
302.851
302.523
302.196
301.871
301.547
301.223
300.899
300.575
300.25
299.923
299.595
299.265
298.935
298.604
298.274
297.945
297.617
297.29
296.965
296.641
296.318
295.994
295.671
295.346
295.02
294.693
294.365
294.036
293.708
293.38
293.053
292.729
292.406
292.086
291.768
291.45
291.133
290.816
290.497
290.176
289.851
289.523
289.191
318.274
317.966
317.655
317.34
317.023
316.705
316.386
316.065
315.742
315.417
315.089
314.758
314.424
314.088
313.749
313.41
313.072
312.735
312.4
312.068
311.739
311.411
311.085
310.759
310.432
310.104
309.774
309.441
309.107
308.771
308.436
308.101
307.767
307.436
307.108
306.782
306.458
306.135
305.812
305.489
305.164
304.837
304.507
304.176
303.843
303.51
303.177
302.846
302.517
302.191
301.866
301.544
301.222
300.901
300.578
300.254
299.928
299.599
299.268
298.936
298.603
298.27
297.939
297.61
297.284
296.96
296.638
296.316
295.995
295.673
295.349
295.023
294.695
294.365
294.034
293.703
293.373
293.045
292.72
292.399
292.08
291.765
291.451
291.139
290.826
290.511
290.194
289.872
289.544
289.211
318.322
318.01
317.693
317.374
317.053
316.732
316.411
316.09
315.767
315.442
315.113
314.78
314.443
314.102
313.758
313.414
313.07
312.73
312.393
312.061
311.732
311.407
311.084
310.761
310.437
310.111
309.781
309.447
309.111
308.772
308.432
308.093
307.757
307.425
307.097
306.773
306.452
306.133
305.814
305.494
305.17
304.844
304.514
304.18
303.844
303.507
303.171
302.837
302.507
302.181
301.859
301.54
301.222
300.904
300.584
300.262
299.936
299.606
299.273
298.937
298.6
298.264
297.931
297.601
297.274
296.952
296.633
296.315
295.997
295.677
295.355
295.03
294.7
294.368
294.033
293.698
293.364
293.033
292.707
292.386
292.071
291.759
291.451
291.144
290.838
290.53
290.218
289.899
289.574
289.239
318.379
318.06
317.735
317.409
317.083
316.759
316.437
316.117
315.795
315.471
315.143
314.808
314.467
314.119
313.768
313.416
313.065
312.719
312.38
312.047
311.722
311.401
311.083
310.766
310.446
310.123
309.794
309.458
309.117
308.772
308.426
308.082
307.742
307.408
307.081
306.76
306.444
306.131
305.818
305.502
305.182
304.857
304.525
304.187
303.846
303.502
303.161
302.823
302.492
302.167
301.848
301.533
301.221
300.909
300.595
300.275
299.95
299.619
299.281
298.939
298.596
298.254
297.917
297.585
297.26
296.94
296.625
296.313
296.001
295.686
295.367
295.041
294.71
294.373
294.032
293.69
293.35
293.015
292.687
292.367
292.054
291.749
291.448
291.15
290.853
290.554
290.25
289.938
289.615
289.279
318.447
318.117
317.78
317.443
317.109
316.782
316.461
316.144
315.828
315.508
315.181
314.845
314.499
314.143
313.78
313.415
313.053
312.699
312.356
312.025
311.703
311.39
311.081
310.773
310.461
310.143
309.815
309.477
309.13
308.775
308.418
308.064
307.718
307.382
307.056
306.741
306.432
306.128
305.825
305.517
305.202
304.879
304.544
304.201
303.849
303.496
303.145
302.801
302.467
302.144
301.83
301.524
301.221
300.918
300.611
300.297
299.973
299.639
299.295
298.944
298.59
298.239
297.894
297.56
297.236
296.922
296.615
296.311
296.008
295.701
295.386
295.062
294.728
294.384
294.032
293.679
293.329
292.986
292.655
292.336
292.029
291.731
291.441
291.155
290.871
290.586
290.295
289.993
289.674
289.337
318.53
318.184
317.827
317.471
317.127
316.797
316.48
316.172
315.866
315.555
315.233
314.898
314.546
314.177
313.796
313.409
313.029
312.664
312.317
311.987
311.674
311.373
311.079
310.786
310.486
310.176
309.851
309.51
309.153
308.782
308.405
308.036
307.679
307.34
307.018
306.71
306.415
306.126
305.837
305.542
305.236
304.915
304.578
304.224
303.857
303.485
303.118
302.765
302.428
302.108
301.802
301.508
301.22
300.932
300.638
300.332
300.012
299.674
299.32
298.953
298.58
298.212
297.858
297.521
297.199
296.893
296.598
296.31
296.021
295.726
295.419
295.098
294.759
294.404
294.037
293.663
293.295
292.942
292.607
292.289
291.988
291.702
291.426
291.157
290.891
290.625
290.354
290.07
289.762
289.422
318.639
318.269
317.87
317.485
317.123
316.792
316.485
316.196
315.911
315.616
315.306
314.973
314.616
314.229
313.82
313.392
312.985
312.602
312.251
311.926
311.627
311.344
311.075
310.807
310.527
310.231
309.911
309.567
309.194
308.797
308.383
307.988
307.615
307.274
306.957
306.664
306.387
306.123
305.859
305.583
305.291
304.975
304.636
304.266
303.874
303.464
303.073
302.704
302.365
302.049
301.758
301.483
301.22
300.957
300.681
300.389
300.073
299.734
299.364
298.971
298.56
298.167
297.797
297.457
297.141
296.848
296.572
296.308
296.044
295.767
295.474
295.157
294.816
294.444
294.049
293.637
293.242
292.872
292.532
292.217
291.928
291.657
291.403
291.156
290.91
290.672
290.434
290.182
289.895
289.555
318.794
318.398
317.892
317.465
317.075
316.755
316.463
316.214
315.972
315.699
315.414
315.081
314.731
314.314
313.869
313.347
312.905
312.493
312.15
311.828
311.555
311.297
311.071
310.846
310.59
310.32
310.003
309.668
309.267
308.839
308.334
307.906
307.507
307.174
306.86
306.593
306.34
306.119
305.898
305.646
305.38
305.068
304.737
304.341
303.917
303.418
302.994
302.599
302.268
301.957
301.691
301.44
301.219
300.999
300.747
300.481
300.169
299.837
299.441
299.016
298.515
298.09
297.693
297.36
297.047
296.781
296.528
296.306
296.085
295.831
295.564
295.25
294.916
294.516
294.088
293.584
293.156
292.756
292.422
292.108
291.841
291.588
291.37
291.154
290.916
290.717
290.536
290.343
290.106
289.776
319.037
318.684
317.799
317.394
316.924
316.68
316.377
316.224
316.077
315.797
315.589
315.216
314.942
314.438
314.031
313.185
312.781
312.286
312.019
311.66
311.462
311.201
311.066
310.931
310.672
310.476
310.124
309.862
309.38
308.99
308.174
307.784
307.305
307.045
306.696
306.503
306.248
306.116
305.983
305.729
305.536
305.189
304.931
304.455
304.069
303.262
302.876
302.401
302.144
301.797
301.605
301.351
301.219
301.087
300.833
300.64
300.293
300.034
299.557
299.17
298.36
297.972
297.494
297.236
296.887
296.694
296.438
296.305
296.172
295.916
295.722
295.371
295.111
294.629
294.238
293.42
293.029
292.546
292.284
291.93
291.734
291.47
291.332
291.184
290.868
290.736
290.653
290.57
290.448
290.2
288.783
288.383
287.983
287.581
287.179
286.778
286.376
285.976
285.576
285.177
284.78
284.383
283.987
283.592
283.197
288.784
288.384
287.983
287.582
287.179
286.777
286.376
285.975
285.575
285.176
284.779
284.382
283.986
283.592
283.197
288.787
288.387
287.985
287.582
287.179
286.776
286.374
285.973
285.573
285.174
284.776
284.38
283.985
283.591
283.197
288.792
288.39
287.987
287.583
287.179
286.775
286.372
285.97
285.569
285.17
284.773
284.377
283.983
283.589
283.196
288.799
288.396
287.991
287.584
287.178
286.772
286.368
285.965
285.564
285.165
284.768
284.373
283.98
283.587
283.196
288.808
288.403
287.995
287.586
287.177
286.769
286.362
285.958
285.557
285.158
284.762
284.368
283.976
283.585
283.195
288.821
288.412
288.001
287.588
287.175
286.763
286.354
285.949
285.547
285.148
284.753
284.36
283.97
283.581
283.194
288.839
288.425
288.008
287.589
287.171
286.755
286.343
285.936
285.534
285.135
284.741
284.351
283.963
283.577
283.192
288.863
288.443
288.017
287.59
287.164
286.743
286.328
285.919
285.516
285.118
284.726
284.338
283.953
283.571
283.19
288.897
288.466
288.027
287.588
287.153
286.725
286.306
285.895
285.492
285.096
284.707
284.322
283.942
283.564
283.188
288.944
288.496
288.038
287.583
287.135
286.699
286.275
285.863
285.461
285.068
284.683
284.303
283.927
283.555
283.185
289.012
288.534
288.048
287.569
287.106
286.661
286.233
285.821
285.422
285.033
284.652
284.279
283.91
283.545
283.181
289.112
288.581
288.049
287.539
287.059
286.606
286.176
285.766
285.371
284.989
284.616
284.25
283.889
283.532
283.177
289.259
288.629
288.028
287.481
286.984
286.526
286.099
285.695
285.309
284.935
284.572
284.215
283.864
283.517
283.172
289.472
288.647
287.953
287.372
286.869
286.417
286
285.608
285.233
284.872
284.52
284.176
283.836
283.5
283.167
322.896
322.689
322.48
322.271
322.061
321.849
321.635
321.418
321.197
320.971
320.737
320.49
320.22
319.904
319.495
322.901
322.702
322.503
322.304
322.104
321.903
321.701
321.497
321.291
321.083
320.871
320.652
320.419
320.148
319.739
322.905
322.716
322.527
322.337
322.147
321.957
321.767
321.577
321.387
321.198
321.01
320.824
320.644
320.487
320.434
322.91
322.73
322.55
322.37
322.191
322.012
321.834
321.657
321.483
321.312
321.146
320.991
320.855
320.754
320.718
322.915
322.744
322.573
322.403
322.234
322.066
321.9
321.736
321.576
321.422
321.276
321.146
321.039
320.977
321.001
322.919
322.757
322.596
322.436
322.276
322.119
321.964
321.812
321.665
321.526
321.396
321.283
321.194
321.141
321.132
322.924
322.771
322.618
322.467
322.318
322.17
322.025
321.885
321.75
321.622
321.505
321.403
321.323
321.273
321.272
322.928
322.784
322.64
322.498
322.357
322.219
322.084
321.954
321.829
321.711
321.604
321.509
321.431
321.372
321.336
322.932
322.796
322.661
322.527
322.395
322.266
322.14
322.018
321.902
321.793
321.693
321.603
321.524
321.456
321.388
322.936
322.808
322.681
322.555
322.431
322.31
322.193
322.079
321.971
321.87
321.775
321.689
321.611
321.54
321.478
322.94
322.819
322.7
322.582
322.466
322.353
322.243
322.137
322.036
321.941
321.852
321.77
321.693
321.618
321.537
322.943
322.83
322.718
322.607
322.498
322.392
322.29
322.191
322.097
322.008
321.925
321.846
321.772
321.701
321.635
322.947
322.84
322.735
322.631
322.529
322.43
322.334
322.242
322.154
322.071
321.993
321.92
321.85
321.78
321.699
322.95
322.85
322.751
322.653
322.558
322.465
322.375
322.289
322.208
322.131
322.059
321.992
321.928
321.867
321.807
322.953
322.859
322.766
322.674
322.585
322.498
322.414
322.334
322.258
322.187
322.121
322.061
322.005
321.952
321.886
322.956
322.868
322.78
322.694
322.61
322.529
322.45
322.375
322.305
322.239
322.18
322.126
322.081
322.047
322.041
322.958
322.875
322.793
322.713
322.634
322.557
322.484
322.414
322.348
322.288
322.234
322.186
322.148
322.122
322.111
322.961
322.883
322.806
322.73
322.655
322.584
322.515
322.45
322.389
322.333
322.283
322.24
322.207
322.187
322.189
322.963
322.89
322.817
322.745
322.676
322.608
322.543
322.482
322.425
322.373
322.327
322.287
322.257
322.237
322.228
322.965
322.896
322.827
322.76
322.694
322.631
322.57
322.512
322.458
322.409
322.366
322.328
322.299
322.28
322.274
322.967
322.902
322.837
322.773
322.711
322.651
322.594
322.539
322.488
322.442
322.4
322.364
322.335
322.313
322.299
322.969
322.907
322.846
322.786
322.727
322.67
322.616
322.564
322.515
322.471
322.43
322.395
322.365
322.342
322.327
322.971
322.912
322.854
322.797
322.741
322.687
322.636
322.586
322.54
322.497
322.458
322.422
322.391
322.364
322.341
322.972
322.917
322.861
322.807
322.754
322.703
322.654
322.607
322.562
322.521
322.482
322.446
322.414
322.383
322.352
322.973
322.921
322.868
322.817
322.766
322.718
322.67
322.625
322.582
322.542
322.504
322.469
322.435
322.403
322.373
322.975
322.924
322.875
322.825
322.777
322.731
322.686
322.642
322.601
322.562
322.525
322.489
322.456
322.422
322.387
322.976
322.928
322.88
322.833
322.788
322.743
322.7
322.658
322.618
322.58
322.544
322.509
322.476
322.443
322.411
322.977
322.931
322.886
322.841
322.797
322.754
322.712
322.672
322.634
322.597
322.562
322.528
322.495
322.462
322.427
322.978
322.934
322.89
322.848
322.805
322.764
322.724
322.686
322.649
322.613
322.579
322.547
322.515
322.484
322.453
322.979
322.937
322.895
322.854
322.813
322.774
322.735
322.698
322.662
322.628
322.596
322.564
322.535
322.506
322.473
322.98
322.939
322.899
322.859
322.82
322.782
322.745
322.709
322.675
322.642
322.611
322.581
322.554
322.529
322.512
322.98
322.941
322.903
322.864
322.827
322.79
322.754
322.72
322.686
322.655
322.625
322.597
322.571
322.548
322.53
322.981
322.943
322.906
322.869
322.833
322.797
322.763
322.729
322.697
322.666
322.637
322.61
322.586
322.565
322.549
322.982
322.945
322.909
322.873
322.838
322.804
322.77
322.738
322.707
322.677
322.649
322.622
322.598
322.577
322.559
322.982
322.947
322.912
322.877
322.843
322.81
322.777
322.746
322.715
322.686
322.658
322.633
322.609
322.588
322.571
322.983
322.949
322.914
322.881
322.848
322.815
322.783
322.753
322.723
322.694
322.667
322.642
322.618
322.596
322.577
322.983
322.95
322.917
322.884
322.852
322.82
322.789
322.759
322.73
322.702
322.675
322.649
322.626
322.603
322.584
322.984
322.951
322.919
322.887
322.855
322.824
322.794
322.764
322.736
322.708
322.681
322.656
322.632
322.609
322.587
322.984
322.952
322.921
322.889
322.858
322.828
322.798
322.769
322.741
322.714
322.687
322.662
322.637
322.614
322.59
322.984
322.953
322.922
322.892
322.861
322.831
322.802
322.774
322.746
322.719
322.692
322.667
322.642
322.618
322.595
322.985
322.954
322.924
322.894
322.864
322.835
322.806
322.778
322.75
322.723
322.697
322.672
322.647
322.623
322.598
322.985
322.955
322.925
322.895
322.866
322.837
322.809
322.781
322.754
322.727
322.701
322.676
322.651
322.627
322.603
322.985
322.956
322.926
322.897
322.868
322.84
322.811
322.784
322.757
322.731
322.705
322.68
322.655
322.631
322.607
322.985
322.956
322.927
322.898
322.87
322.842
322.814
322.787
322.76
322.734
322.709
322.684
322.659
322.636
322.612
322.986
322.957
322.928
322.899
322.871
322.843
322.816
322.789
322.762
322.737
322.712
322.687
322.663
322.64
322.616
322.986
322.957
322.929
322.9
322.872
322.845
322.817
322.791
322.765
322.739
322.714
322.69
322.666
322.644
322.623
322.986
322.957
322.929
322.901
322.873
322.846
322.819
322.792
322.766
322.741
322.716
322.692
322.669
322.647
322.626
322.986
322.958
322.929
322.902
322.874
322.847
322.82
322.793
322.768
322.742
322.718
322.694
322.671
322.649
322.628
322.986
322.958
322.93
322.902
322.874
322.847
322.82
322.794
322.768
322.743
322.719
322.695
322.673
322.651
322.63
322.986
322.958
322.93
322.902
322.875
322.847
322.821
322.795
322.769
322.744
322.72
322.696
322.673
322.652
322.63
322.986
322.958
322.93
322.902
322.875
322.847
322.821
322.795
322.769
322.744
322.72
322.696
322.674
322.652
322.631
322.986
322.958
322.93
322.902
322.874
322.847
322.82
322.794
322.769
322.744
322.72
322.696
322.674
322.652
322.631
322.986
322.957
322.929
322.901
322.874
322.846
322.82
322.793
322.768
322.743
322.719
322.695
322.673
322.651
322.63
322.986
322.957
322.929
322.901
322.873
322.845
322.819
322.792
322.766
322.742
322.717
322.694
322.672
322.65
322.63
322.986
322.957
322.928
322.9
322.872
322.844
322.817
322.791
322.765
322.74
322.715
322.692
322.67
322.648
322.628
322.985
322.956
322.927
322.899
322.87
322.843
322.815
322.788
322.762
322.737
322.713
322.689
322.667
322.646
322.626
322.985
322.956
322.926
322.897
322.869
322.841
322.813
322.786
322.76
322.734
322.71
322.686
322.664
322.643
322.623
322.985
322.955
322.925
322.896
322.867
322.838
322.81
322.783
322.756
322.73
322.706
322.682
322.659
322.639
322.62
322.985
322.954
322.924
322.894
322.865
322.835
322.807
322.779
322.752
322.726
322.701
322.677
322.654
322.633
322.613
322.984
322.953
322.923
322.892
322.862
322.832
322.803
322.775
322.748
322.721
322.696
322.671
322.648
322.626
322.607
322.984
322.952
322.921
322.89
322.859
322.829
322.799
322.77
322.743
322.716
322.69
322.664
322.64
322.617
322.592
322.984
322.951
322.919
322.887
322.855
322.825
322.794
322.765
322.737
322.709
322.683
322.657
322.632
322.608
322.584
322.983
322.95
322.917
322.884
322.852
322.82
322.789
322.759
322.73
322.702
322.675
322.649
322.624
322.599
322.574
322.983
322.948
322.914
322.881
322.847
322.815
322.783
322.753
322.723
322.695
322.667
322.641
322.616
322.591
322.567
322.982
322.947
322.912
322.877
322.843
322.809
322.777
322.746
322.715
322.686
322.659
322.632
322.607
322.582
322.557
322.982
322.945
322.909
322.873
322.837
322.803
322.77
322.738
322.707
322.677
322.649
322.623
322.598
322.574
322.551
322.981
322.943
322.905
322.868
322.832
322.796
322.762
322.729
322.697
322.667
322.639
322.612
322.588
322.564
322.541
322.98
322.941
322.902
322.863
322.825
322.788
322.753
322.719
322.686
322.656
322.627
322.601
322.577
322.555
322.536
322.979
322.938
322.897
322.857
322.818
322.78
322.743
322.708
322.674
322.643
322.614
322.588
322.564
322.545
322.529
322.978
322.935
322.893
322.851
322.81
322.77
322.732
322.695
322.661
322.628
322.599
322.572
322.549
322.531
322.516
322.977
322.932
322.888
322.844
322.801
322.76
322.72
322.681
322.645
322.612
322.581
322.554
322.532
322.514
322.504
322.976
322.929
322.882
322.837
322.792
322.748
322.706
322.666
322.628
322.593
322.562
322.534
322.511
322.493
322.481
322.975
322.926
322.877
322.828
322.781
322.735
322.691
322.649
322.61
322.573
322.539
322.51
322.485
322.468
322.461
322.974
322.922
322.87
322.819
322.77
322.721
322.675
322.631
322.589
322.55
322.514
322.482
322.455
322.435
322.422
322.972
322.917
322.863
322.809
322.757
322.706
322.657
322.61
322.566
322.525
322.486
322.452
322.421
322.397
322.387
322.971
322.913
322.855
322.799
322.743
322.69
322.638
322.589
322.542
322.497
322.456
322.418
322.382
322.348
322.307
322.969
322.908
322.847
322.787
322.729
322.672
322.617
322.565
322.515
322.468
322.424
322.382
322.343
322.304
322.267
322.967
322.902
322.838
322.775
322.713
322.653
322.595
322.539
322.487
322.437
322.39
322.345
322.302
322.259
322.21
322.965
322.896
322.828
322.761
322.695
322.632
322.571
322.512
322.456
322.404
322.354
322.307
322.262
322.218
322.177
322.963
322.89
322.818
322.747
322.677
322.609
322.545
322.483
322.424
322.369
322.317
322.268
322.221
322.176
322.126
322.961
322.883
322.806
322.731
322.657
322.585
322.516
322.451
322.389
322.331
322.277
322.227
322.18
322.136
322.095
322.959
322.876
322.794
322.714
322.635
322.559
322.486
322.417
322.351
322.291
322.235
322.184
322.137
322.093
322.048
322.956
322.868
322.781
322.696
322.612
322.531
322.453
322.38
322.311
322.247
322.189
322.137
322.092
322.053
322.021
322.953
322.86
322.767
322.676
322.587
322.501
322.418
322.339
322.266
322.199
322.139
322.087
322.042
322.007
321.987
322.95
322.851
322.752
322.655
322.56
322.468
322.379
322.295
322.217
322.146
322.084
322.031
321.987
321.95
321.907
322.947
322.841
322.736
322.632
322.531
322.432
322.337
322.247
322.164
322.088
322.022
321.968
321.927
321.898
321.873
322.944
322.831
322.719
322.609
322.5
322.394
322.292
322.195
322.105
322.023
321.952
321.896
321.858
321.842
321.847
322.94
322.82
322.701
322.583
322.467
322.354
322.244
322.138
322.039
321.949
321.872
321.811
321.775
321.773
321.815
322.936
322.809
322.682
322.557
322.433
322.311
322.192
322.077
321.968
321.868
321.779
321.709
321.668
321.673
321.758
322.932
322.797
322.663
322.529
322.396
322.265
322.137
322.012
321.891
321.778
321.675
321.588
321.528
321.519
321.627
289.696
288.542
287.782
287.202
286.716
286.284
285.886
285.511
285.152
284.805
284.466
284.135
283.807
283.483
283.161
289.291
288.174
287.5
286.983
286.54
286.14
285.766
285.411
285.07
284.738
284.413
284.094
283.779
283.466
283.155
287.69
287.497
287.108
286.712
286.335
285.977
285.634
285.303
284.98
284.665
284.356
284.051
283.748
283.448
283.149
287.061
286.958
286.722
286.428
286.117
285.804
285.493
285.188
284.886
284.589
284.296
284.005
283.716
283.429
283.143
286.468
286.511
286.375
286.156
285.9
285.628
285.35
285.069
284.79
284.511
284.234
283.958
283.683
283.41
283.137
286.2
286.189
286.084
285.91
285.695
285.457
285.207
284.951
284.692
284.432
284.171
283.91
283.65
283.39
283.13
285.923
285.932
285.842
285.693
285.506
285.294
285.069
284.835
284.595
284.352
284.108
283.862
283.616
283.37
283.123
285.799
285.743
285.642
285.502
285.332
285.142
284.937
284.722
284.5
284.274
284.045
283.815
283.583
283.35
283.117
285.7
285.585
285.468
285.331
285.174
284.999
284.811
284.613
284.408
284.198
283.984
283.768
283.55
283.33
283.11
285.53
285.428
285.309
285.175
285.027
284.866
284.693
284.51
284.32
284.125
283.925
283.723
283.518
283.311
283.104
285.419
285.283
285.159
285.03
284.89
284.741
284.581
284.412
284.236
284.054
283.868
283.679
283.486
283.292
283.098
285.237
285.13
285.013
284.891
284.761
284.622
284.475
284.319
284.156
283.987
283.814
283.636
283.456
283.275
283.092
285.119
284.985
284.87
284.757
284.637
284.51
284.374
284.23
284.08
283.923
283.761
283.596
283.428
283.257
283.086
284.918
284.825
284.728
284.627
284.519
284.404
284.279
284.147
284.008
283.862
283.712
283.558
283.4
283.241
283.081
284.773
284.668
284.587
284.502
284.407
284.303
284.19
284.068
283.94
283.805
283.665
283.522
283.375
283.226
283.075
284.488
284.495
284.449
284.383
284.302
284.209
284.106
283.995
283.876
283.751
283.621
283.487
283.35
283.211
283.07
284.36
284.357
284.327
284.274
284.204
284.122
284.029
283.926
283.817
283.701
283.58
283.455
283.328
283.197
283.066
284.219
284.239
284.22
284.176
284.116
284.042
283.957
283.863
283.762
283.655
283.542
283.426
283.306
283.185
283.062
284.148
284.148
284.129
284.091
284.037
283.969
283.892
283.805
283.711
283.611
283.507
283.398
283.286
283.173
283.058
284.063
284.07
284.053
284.017
283.967
283.904
283.832
283.752
283.665
283.572
283.474
283.372
283.268
283.162
283.054
284.019
284.01
283.989
283.953
283.905
283.846
283.779
283.703
283.622
283.535
283.444
283.349
283.251
283.151
283.051
283.968
283.959
283.934
283.897
283.85
283.794
283.73
283.66
283.583
283.502
283.416
283.327
283.235
283.142
283.047
283.944
283.919
283.888
283.848
283.801
283.747
283.687
283.62
283.548
283.471
283.391
283.307
283.221
283.133
283.045
283.922
283.884
283.847
283.805
283.758
283.705
283.647
283.584
283.515
283.443
283.367
283.289
283.208
283.125
283.042
283.885
283.848
283.808
283.765
283.719
283.667
283.611
283.551
283.486
283.418
283.346
283.272
283.196
283.118
283.039
283.86
283.815
283.772
283.729
283.682
283.632
283.578
283.52
283.459
283.394
283.327
283.257
283.185
283.111
283.037
283.818
283.779
283.737
283.694
283.648
283.6
283.548
283.493
283.434
283.373
283.309
283.243
283.175
283.105
283.035
283.791
283.744
283.702
283.66
283.616
283.57
283.52
283.468
283.412
283.354
283.293
283.23
283.165
283.1
283.033
283.744
283.706
283.668
283.628
283.586
283.542
283.495
283.444
283.391
283.336
283.278
283.218
283.157
283.095
283.032
283.71
283.669
283.634
283.597
283.558
283.516
283.471
283.423
283.373
283.32
283.264
283.208
283.149
283.09
283.03
283.643
283.628
283.601
283.569
283.532
283.492
283.449
283.404
283.355
283.305
283.252
283.198
283.142
283.086
283.029
283.613
283.596
283.572
283.542
283.508
283.471
283.43
283.386
283.34
283.291
283.241
283.189
283.136
283.082
283.027
283.58
283.568
283.547
283.519
283.487
283.451
283.412
283.37
283.326
283.279
283.231
283.181
283.13
283.079
283.026
283.564
283.547
283.526
283.499
283.468
283.434
283.396
283.356
283.313
283.268
283.222
283.174
283.125
283.075
283.025
283.545
283.53
283.508
283.482
283.452
283.418
283.382
283.343
283.302
283.259
283.214
283.168
283.121
283.073
283.024
283.536
283.517
283.494
283.468
283.438
283.405
283.37
283.332
283.292
283.25
283.207
283.162
283.117
283.07
283.023
283.525
283.506
283.482