/*--------------------------------*- C++ -*----------------------------------*\
| =========                 |                                                 |
| \\      /  F ield         | OpenFOAM: The Open Source CFD Toolbox           |
|  \\    /   O peration     | Version:  5.x                                   |
|   \\  /    A nd           | Web:      www.OpenFOAM.org                      |
|    \\/     M anipulation  |                                                 |
\*---------------------------------------------------------------------------*/
FoamFile
{
    version     2.0;
    format      ascii;
    class       volScalarField;
    location    "2.2";
    object      gradTy;
}
// * * * * * * * * * * * * * * * * * * * * * * * * * * * * * * * * * * * * * //

dimensions      [0 -1 0 1 0 0 0];

internalField   nonuniform List<scalar> 
3200
(
17.987
8.5192
11.562
8.21222
9.61877
7.95376
8.6869
7.71826
8.15211
7.53465
7.79999
7.45455
7.65718
7.26205
7.46651
7.09034
7.28233
6.93657
7.11176
6.79959
6.95684
6.67883
6.81824
6.57335
6.69608
6.48143
6.59078
6.39986
6.50995
6.34812
6.21787
6.30198
6.18689
6.24311
6.15263
6.19663
6.12329
6.15895
6.09902
6.12807
6.07929
6.10282
6.06353
6.08232
6.05125
6.0659
6.04208
6.05297
6.03592
6.04306
6.03375
6.0387
6.02978
6.03366
6.02775
6.02973
6.02795
6.02734
6.03108
6.02681
6.03847
6.02863
6.05267
6.03349
6.07868
6.04165
6.12741
6.04837
6.22453
6.00192
6.29465
7.10808
6.42261
7.94407
6.77948
9.8898
9.12052
9.00288
8.9786
8.97337
16.7659
9.61802
11.1722
8.66705
9.42126
8.17788
8.57046
7.84639
8.07761
7.61565
7.75734
7.49949
7.60748
7.31147
7.41948
7.13769
7.23919
6.98021
7.07287
6.83906
6.92224
6.71402
6.78779
6.60438
6.66934
6.50862
6.56666
6.42388
6.48358
6.35159
6.24174
6.28795
6.20199
6.23196
6.16423
6.18756
6.13264
6.15153
6.10665
6.12204
6.0855
6.09796
6.06854
6.07849
6.05522
6.06297
6.04514
6.05089
6.03813
6.04192
6.03497
6.0376
6.03092
6.03296
6.02853
6.02957
6.02823
6.02789
6.03068
6.0284
6.03711
6.03186
6.04983
6.03957
6.07333
6.05341
6.11735
6.07411
6.20456
6.07727
6.35286
6.99307
6.62389
7.76199
7.15628
9.49722
9.09448
8.99917
8.97785
8.97318
15.8308
10.3688
10.9449
8.99153
9.30367
8.33658
8.49871
7.93633
8.03086
7.67252
7.73068
7.52982
7.57396
7.34475
7.38805
7.16972
7.21049
7.0098
7.04705
6.86586
6.89931
6.73794
6.76762
6.62548
6.65164
6.52706
6.55058
6.43981
6.46487
6.35417
6.25938
6.27921
6.21245
6.22471
6.17219
6.18163
6.13905
6.14667
6.11188
6.11808
6.08976
6.09478
6.07198
6.07598
6.05795
6.06107
6.04725
6.04956
6.03967
6.04122
6.03581
6.03687
6.0317
6.03251
6.02909
6.0295
6.02846
6.02832
6.03049
6.02955
6.03632
6.03416
6.04812
6.04389
6.07013
6.06182
6.11157
6.09289
6.1949
6.13651
6.39648
6.91844
6.76487
7.64967
7.41522
9.21438
9.05613
8.99249
8.97644
8.9728
15.1141
10.878
10.8187
9.22541
9.23727
8.45013
8.45595
8.00001
8.00223
7.71273
7.71439
7.55035
7.55138
7.36713
7.3671
7.19139
7.19145
7.02988
7.02997
6.88407
6.88417
6.75423
6.75433
6.63985
6.63998
6.53958
6.53988
6.4503
6.4516
6.35613
6.27243
6.27394
6.21976
6.22006
6.17768
6.17777
6.14345
6.1435
6.11547
6.1155
6.09269
6.09271
6.07434
6.07436
6.05983
6.05985
6.04871
6.04872
6.04076
6.04079
6.03638
6.0364
6.03225
6.03224
6.02949
6.02948
6.02866
6.02865
6.03042
6.03039
6.03588
6.03582
6.04714
6.047
6.06831
6.06791
6.10853
6.10685
6.19165
6.18301
6.42963
6.87083
6.86431
7.58211
7.59282
9.00983
9.014
8.98391
8.97453
8.97227
14.567
11.2203
10.7539
9.39509
9.20285
8.53198
8.43167
8.04537
7.98528
7.74132
7.70474
7.5643
7.53622
7.38215
7.35318
7.20604
7.17889
7.04349
7.01874
6.89646
6.87425
6.76531
6.74564
6.64964
6.63234
6.54808
6.53277
6.45717
6.4422
6.35761
6.28207
6.27089
6.2249
6.21711
6.18147
6.17529
6.14648
6.14146
6.11794
6.11385
6.0947
6.09139
6.07597
6.07332
6.06114
6.05907
6.04974
6.0482
6.04153
6.04054
6.03678
6.03609
6.03263
6.03208
6.02979
6.0295
6.02883
6.02891
6.03042
6.03101
6.03566
6.03702
6.04661
6.04924
6.06735
6.07235
6.10719
6.11735
6.19215
6.21929
6.45499
6.84112
6.93478
7.54283
7.71416
8.8618
8.97324
8.97449
8.97234
8.97165
14.1537
11.4473
10.7248
9.51814
9.18759
8.59101
8.41885
8.0777
7.9757
7.76162
7.69926
7.57376
7.52611
7.39218
7.34401
7.2159
7.17066
7.05269
7.01142
6.90484
6.8678
6.77284
6.74
6.65628
6.62738
6.55382
6.52809
6.46161
6.43558
6.35873
6.28915
6.26924
6.2285
6.21528
6.18409
6.17373
6.14856
6.14017
6.11963
6.11279
6.09609
6.09054
6.0771
6.07267
6.06204
6.05859
6.05045
6.04788
6.04208
6.0404
6.03706
6.03589
6.0329
6.03199
6.03
6.02954
6.02897
6.02911
6.03046
6.03146
6.03558
6.03789
6.04636
6.05086
6.06692
6.0756
6.10682
6.12526
6.19454
6.24724
6.47433
6.82311
6.98467
7.52103
7.79645
8.75521
8.93688
8.96521
8.97008
8.971
13.8488
11.595
10.7151
9.60616
9.18299
8.63309
8.41281
8.10048
7.97062
7.77586
7.69631
7.58011
7.51946
7.39879
7.33803
7.22245
7.16536
7.05884
7.00672
6.91046
6.86367
6.77788
6.7364
6.66074
6.62421
6.55766
6.52503
6.46443
6.43101
6.35957
6.29424
6.26842
6.23101
6.21418
6.18587
6.17275
6.14998
6.13936
6.12078
6.11213
6.09703
6.09002
6.07786
6.07227
6.06265
6.0583
6.05094
6.0477
6.04245
6.04032
6.03725
6.03577
6.03308
6.03194
6.03016
6.02957
6.02908
6.02927
6.03051
6.03179
6.03556
6.03851
6.04627
6.05202
6.06678
6.07795
6.10697
6.13114
6.1976
6.26821
6.4888
6.81259
7.01957
7.50965
7.8514
8.6797
8.90665
8.95687
8.96798
8.97039
13.634
11.6877
10.7145
9.66678
9.18348
8.662
8.41046
8.11597
7.96815
7.78551
7.69485
7.58426
7.51523
7.40302
7.33427
7.22667
7.16204
7.06281
7.00379
6.9141
6.86111
6.78116
6.73417
6.66364
6.62225
6.56014
6.5231
6.46617
6.42795
6.36016
6.29775
6.26807
6.2327
6.21353
6.18705
6.17217
6.15091
6.13887
6.12154
6.11174
6.09765
6.08971
6.07836
6.07203
6.06306
6.05812
6.05126
6.0476
6.04271
6.04029
6.03737
6.03569
6.03321
6.03191
6.03027
6.02961
6.02916
6.02938
6.03056
6.03203
6.03558
6.03894
6.04625
6.05282
6.06679
6.07958
6.10731
6.13532
6.20049
6.28317
6.49914
6.80674
7.04314
7.50421
7.88689
8.62825
8.88349
8.95009
8.96622
8.96987
13.4972
11.7416
10.717
9.70483
9.18552
8.68013
8.40985
8.12561
7.96708
7.79149
7.69419
7.58676
7.51274
7.40552
7.33207
7.22918
7.16011
7.06518
7.0021
6.91628
6.85964
6.78312
6.73289
6.66538
6.62112
6.56162
6.52197
6.46717
6.42609
6.36054
6.29995
6.26796
6.23374
6.21318
6.18776
6.17184
6.15147
6.13859
6.122
6.11151
6.09802
6.08953
6.07867
6.07189
6.06331
6.05803
6.05146
6.04754
6.04287
6.04027
6.03745
6.03565
6.03328
6.0319
6.03033
6.02963
6.02921
6.02945
6.0306
6.03217
6.0356
6.03921
6.04627
6.05332
6.06684
6.08061
6.10764
6.13801
6.20268
6.29281
6.50581
6.80374
7.05772
7.50191
7.90803
8.59624
8.86788
8.94533
8.96496
8.96949
13.4306
11.7663
10.7191
9.7232
9.18702
8.68888
8.40981
8.13024
7.96671
7.79436
7.69395
7.58793
7.51158
7.40668
7.33105
7.23036
7.15923
7.06629
7.00133
6.9173
6.85897
6.78404
6.73231
6.6662
6.62061
6.56231
6.52145
6.46762
6.4252
6.36073
6.30101
6.26793
6.23423
6.21303
6.1881
6.1717
6.15173
6.13847
6.12221
6.11142
6.0982
6.08945
6.07881
6.07183
6.06343
6.05799
6.05156
6.04752
6.04294
6.04027
6.03749
6.03563
6.03332
6.03189
6.03037
6.02964
6.02924
6.02949
6.03062
6.03224
6.03562
6.03934
6.04628
6.05357
6.06688
6.08111
6.10783
6.13934
6.20385
6.29752
6.50909
6.8025
7.06469
7.50112
7.91788
8.58088
8.86003
8.94287
8.96431
8.9693
-13.1927
-11.4151
-10.2044
-8.88422
-8.08535
-7.2065
-6.65334
-6.01263
-5.6054
-5.13339
-4.84664
-4.5293
-4.29836
-3.97991
-3.75209
-3.45167
-3.24239
-2.97316
-2.78783
-2.55202
-2.39058
-2.18621
-2.04659
-1.87014
-1.74935
-1.59605
-1.48905
-1.3487
-1.23816
-1.07016
-0.914099
-0.827237
-0.738145
-0.681799
-0.615157
-0.571095
-0.517149
-0.481086
-0.436536
-0.40667
-0.369698
-0.344919
-0.31427
-0.293786
-0.268548
-0.251815
-0.231423
-0.218205
-0.202599
-0.193071
-0.182484
-0.174807
-0.16427
-0.156794
-0.147026
-0.140299
-0.131754
-0.125959
-0.11871
-0.113852
-0.107862
-0.103939
-0.0992625
-0.096472
-0.0936687
-0.0930593
-0.0947763
-0.101188
-0.119939
-0.158421
-0.257059
-0.41319
-0.575238
-0.872459
-1.18401
-1.70599
-1.92673
-1.99232
-2.00929
-2.01324
-13.2639
-11.3925
-10.2089
-8.86345
-8.08863
-7.19354
-6.65691
-6.00336
-5.60806
-5.12605
-4.84793
-4.5259
-4.30192
-3.97634
-3.75505
-3.44808
-3.24484
-2.96985
-2.7899
-2.54909
-2.39234
-2.18366
-2.0481
-1.86795
-1.75069
-1.59423
-1.49042
-1.34753
-1.24049
-1.06971
-0.91135
-0.827344
-0.73685
-0.682225
-0.614265
-0.571501
-0.516443
-0.481434
-0.435955
-0.40696
-0.369214
-0.345158
-0.313865
-0.293978
-0.268208
-0.251961
-0.231135
-0.218299
-0.202353
-0.19311
-0.182363
-0.174917
-0.164143
-0.156881
-0.146899
-0.140365
-0.131637
-0.126009
-0.118606
-0.113889
-0.10777
-0.10396
-0.0991771
-0.0964622
-0.0935701
-0.0929552
-0.0945769
-0.100683
-0.119137
-0.156001
-0.254745
-0.412938
-0.569814
-0.871867
-1.17557
-1.71802
-1.93291
-1.99424
-2.00979
-2.01338
-13.41
-11.3425
-10.2199
-8.81994
-8.0968
-7.16633
-6.66524
-5.98383
-5.61426
-5.11062
-4.85104
-4.51865
-4.30961
-3.96866
-3.76149
-3.44039
-3.25021
-2.96279
-2.79445
-2.54284
-2.39622
-2.17822
-2.05144
-1.86328
-1.75363
-1.59033
-1.49337
-1.34496
-1.24539
-1.06878
-0.905647
-0.827728
-0.734136
-0.683198
-0.612378
-0.572409
-0.514944
-0.482208
-0.434721
-0.407606
-0.368187
-0.345689
-0.313006
-0.294406
-0.267487
-0.25229
-0.230525
-0.218515
-0.201836
-0.193206
-0.182107
-0.175156
-0.16387
-0.15707
-0.146627
-0.140512
-0.131389
-0.126123
-0.118387
-0.113973
-0.107577
-0.10401
-0.098999
-0.0964492
-0.0933697
-0.0927504
-0.0941866
-0.0996714
-0.117587
-0.151094
-0.250038
-0.412723
-0.558567
-0.871192
-1.15757
-1.74312
-1.94521
-1.99797
-2.01075
-2.01364
-13.639
-11.2548
-10.2421
-8.74943
-8.11335
-7.12202
-6.68085
-5.9519
-5.62589
-5.08549
-4.85713
-4.50653
-4.32264
-3.95569
-3.77255
-3.42752
-3.25953
-2.95102
-2.80238
-2.53244
-2.403
-2.16918
-2.05727
-1.85551
-1.75875
-1.58382
-1.49842
-1.34047
-1.25339
-1.06734
-0.896554
-0.828756
-0.729731
-0.68498
-0.609269
-0.574029
-0.512465
-0.483581
-0.432679
-0.408749
-0.366488
-0.34663
-0.311586
-0.295168
-0.266298
-0.25288
-0.229524
-0.218915
-0.200994
-0.193397
-0.181681
-0.175564
-0.163413
-0.1574
-0.146176
-0.140774
-0.130979
-0.126329
-0.118026
-0.114128
-0.107261
-0.104109
-0.0987123
-0.0964471
-0.09306
-0.0924523
-0.0936226
-0.0981508
-0.1154
-0.143555
-0.242768
-0.413165
-0.540632
-0.871547
-1.12757
-1.78355
-1.96347
-2.00327
-2.01207
-2.01399
-13.9634
-11.1123
-10.2837
-8.64475
-8.14418
-7.05578
-6.70806
-5.90393
-5.64617
-5.04794
-4.86818
-4.4878
-4.34305
-3.93542
-3.79015
-3.40763
-3.27452
-2.93291
-2.81521
-2.51646
-2.414
-2.1553
-2.06674
-1.84357
-1.76703
-1.57376
-1.5064
-1.33316
-1.26539
-1.0653
-0.88336
-0.83105
-0.723169
-0.688014
-0.604552
-0.576712
-0.508687
-0.485842
-0.429564
-0.410631
-0.363896
-0.348183
-0.309423
-0.29643
-0.264491
-0.253868
-0.228012
-0.219606
-0.199737
-0.19375
-0.181027
-0.176209
-0.162705
-0.157933
-0.145486
-0.141204
-0.130356
-0.126673
-0.117481
-0.114394
-0.106788
-0.104288
-0.0982905
-0.0964796
-0.0926283
-0.0920721
-0.0929127
-0.0961097
-0.112764
-0.133162
-0.232637
-0.41531
-0.514542
-0.874881
-1.08156
-1.84299
-1.98731
-2.0098
-2.01366
-2.01439
-14.4019
-10.889
-10.3577
-8.4946
-8.19861
-6.95998
-6.75358
-5.83416
-5.68013
-4.99373
-4.88731
-4.4597
-4.37403
-3.90472
-3.81728
-3.37781
-3.2979
-2.90589
-2.83532
-2.49268
-2.4313
-2.13466
-2.08162
-1.8258
-1.78002
-1.55869
-1.51865
-1.32167
-1.2827
-1.06257
-0.864999
-0.835584
-0.713713
-0.692994
-0.597621
-0.581012
-0.503111
-0.489449
-0.424961
-0.413631
-0.360067
-0.350661
-0.306231
-0.29845
-0.26183
-0.255465
-0.225799
-0.220754
-0.197921
-0.194369
-0.180053
-0.177198
-0.161642
-0.158768
-0.144464
-0.141891
-0.129439
-0.12723
-0.116684
-0.114832
-0.106102
-0.104598
-0.0976915
-0.096584
-0.0920545
-0.0916255
-0.0920975
-0.0935189
-0.109967
-0.119593
-0.219164
-0.420776
-0.477993
-0.884342
-1.01335
-1.9271
-2.016
-2.01705
-2.01534
-2.0148
-14.9811
-10.5465
-10.485
-8.28185
-8.29081
-6.82297
-6.8277
-5.73385
-5.73544
-4.91637
-4.91935
-4.41798
-4.42042
-3.8588
-3.85855
-3.33366
-3.33382
-2.86605
-2.86637
-2.45769
-2.45804
-2.10431
-2.10466
-1.79967
-1.80005
-1.53639
-1.5372
-1.30388
-1.30728
-1.05895
-0.839929
-0.843833
-0.700223
-0.700972
-0.58755
-0.587775
-0.494972
-0.495096
-0.418237
-0.418325
-0.354475
-0.354543
-0.301575
-0.301626
-0.25796
-0.257994
-0.222601
-0.222612
-0.195331
-0.195415
-0.178616
-0.178691
-0.160068
-0.160056
-0.142966
-0.142968
-0.128107
-0.128114
-0.115532
-0.115538
-0.105118
-0.105115
-0.0968514
-0.096816
-0.0913066
-0.0911328
-0.0912335
-0.0903163
-0.10743
-0.102415
-0.201596
-0.432004
-0.427464
-0.904881
-0.91372
-2.04419
-2.04818
-2.02438
-2.01696
-2.01517
-15.7377
-10.0292
-10.6981
-7.98068
-8.44216
-6.62711
-6.94583
-5.58977
-5.82365
-4.80618
-4.97161
-4.35617
-4.48942
-3.79047
-3.92086
-3.26854
-3.38849
-2.80753
-2.91382
-2.40637
-2.49898
-2.05983
-2.13994
-1.76135
-1.83068
-1.50355
-1.56515
-1.27664
-1.34196
-1.05417
-0.805955
-0.857997
-0.680971
-0.71353
-0.572943
-0.598268
-0.483123
-0.503829
-0.40844
-0.425582
-0.346329
-0.360549
-0.294799
-0.306552
-0.252341
-0.261939
-0.217984
-0.225559
-0.191643
-0.197135
-0.176502
-0.180928
-0.157745
-0.162022
-0.14078
-0.144634
-0.126173
-0.129495
-0.113869
-0.116653
-0.10371
-0.105956
-0.0956735
-0.0972586
-0.0903362
-0.0906201
-0.0904005
-0.0863827
-0.105769
-0.0810588
-0.178768
-0.452617
-0.357643
-0.944147
-0.769213
-2.20631
-2.08145
-2.03105
-2.01834
-2.01545
-16.7228
-9.25684
-11.0467
-7.55241
-8.68462
-6.34595
-7.131
-5.38215
-5.96196
-4.64872
-5.05516
-4.26445
-4.59175
-3.689
-4.01452
-3.17258
-3.47124
-2.72155
-2.98585
-2.33108
-2.56123
-1.9946
-2.1936
-1.70513
-1.8772
-1.45518
-1.60712
-1.23527
-1.39078
-1.04783
-0.759982
-0.881336
-0.653344
-0.733024
-0.551705
-0.614388
-0.465846
-0.517213
-0.394146
-0.436699
-0.334446
-0.369757
-0.284923
-0.314118
-0.244169
-0.268027
-0.211305
-0.230166
-0.186377
-0.199897
-0.173381
-0.184267
-0.15432
-0.165006
-0.137584
-0.147188
-0.123362
-0.13163
-0.111463
-0.118392
-0.101687
-0.107291
-0.0940136
-0.0980344
-0.0890695
-0.0901198
-0.0897109
-0.0815049
-0.105862
-0.0547971
-0.148884
-0.48797
-0.260552
-1.01386
-0.560213
-2.43089
-2.11173
-2.03619
-2.0193
-2.0156
-18.0066
-8.11435
-11.6067
-6.93918
-9.06601
-5.93993
-7.41761
-5.08145
-6.17607
-4.42255
-5.18667
-4.12807
-4.74335
-3.53847
-4.15494
-3.03105
-3.59599
-2.59507
-3.0947
-2.22044
-2.6554
-1.8988
-2.2748
-1.62253
-1.94752
-1.38388
-1.67008
-1.17283
-1.45957
-1.03931
-0.69766
-0.918671
-0.613426
-0.762975
-0.52072
-0.638971
-0.440581
-0.537584
-0.373232
-0.453616
-0.317065
-0.383776
-0.270488
-0.325652
-0.232245
-0.277338
-0.201599
-0.237276
-0.178814
-0.204257
-0.16876
-0.189236
-0.149263
-0.169508
-0.132901
-0.151073
-0.11926
-0.134894
-0.107964
-0.121068
-0.0987615
-0.109371
-0.0916504
-0.0993186
-0.0873899
-0.0896661
-0.08932
-0.0753118
-0.108958
-0.022716
-0.109185
-0.545965
-0.124215
-1.13182
-0.258221
-2.74305
-2.13224
-2.03896
-2.01971
-2.01557
18.0066
8.11439
11.6068
6.9392
9.06603
5.93995
7.41763
5.08147
6.17609
4.42256
5.18669
4.12809
4.74337
3.53848
4.15495
3.03106
3.596
2.59508
3.09471
2.22045
2.65541
1.89881
2.27481
1.62255
1.94753
1.38389
1.67009
1.17284
1.45958
1.03933
0.697677
0.918686
0.613442
0.76299
0.520735
0.638986
0.440594
0.537598
0.373244
0.453629
0.317075
0.383787
0.270496
0.325662
0.232252
0.277346
0.201605
0.237283
0.178819
0.204263
0.168765
0.189241
0.149267
0.169513
0.132904
0.151077
0.119263
0.134897
0.107966
0.12107
0.0987635
0.109373
0.091652
0.0993204
0.087391
0.0896677
0.0893202
0.0753132
0.108957
0.0227178
0.109182
0.54595
0.12421
1.1318
0.258211
2.74299
2.13219
2.03891
2.01967
2.01551
16.7228
9.25687
11.0467
7.55243
8.68463
6.34596
7.13101
5.38216
5.96197
4.64873
5.05517
4.26445
4.59175
3.68901
4.01452
3.17259
3.47125
2.72155
2.98585
2.33108
2.56124
1.99461
2.1936
1.70514
1.87721
1.45519
1.60713
1.23528
1.39079
1.04785
0.759996
0.88135
0.653358
0.733038
0.551719
0.614402
0.465858
0.517225
0.394157
0.436711
0.334456
0.369768
0.284932
0.314127
0.244177
0.268035
0.211311
0.230172
0.186382
0.199902
0.173386
0.184273
0.154324
0.165011
0.137588
0.147192
0.123366
0.131634
0.111466
0.118396
0.10169
0.107294
0.0940164
0.0980373
0.0890719
0.0901225
0.0897125
0.0815072
0.105862
0.0547992
0.148882
0.487958
0.260546
1.01383
0.5602
2.43084
2.11168
2.03614
2.01926
2.01555
15.7377
10.0292
10.6981
7.98069
8.44216
6.62711
6.94583
5.58978
5.82365
4.80618
4.97162
4.35617
4.48942
3.79047
3.92086
3.26855
3.38849
2.80753
2.91382
2.40637
2.49899
2.05983
2.13994
1.76135
1.83069
1.50356
1.56516
1.27665
1.34196
1.05418
0.805967
0.858009
0.680983
0.713543
0.572955
0.598281
0.483135
0.503841
0.408451
0.425593
0.346338
0.360559
0.294807
0.306561
0.252348
0.261947
0.21799
0.225566
0.191649
0.19714
0.176507
0.180934
0.15775
0.162027
0.140784
0.144638
0.126177
0.129499
0.113872
0.116657
0.103713
0.105959
0.0956767
0.0972619
0.090339
0.0906231
0.0904027
0.0863853
0.10577
0.0810605
0.178766
0.452607
0.357635
0.944126
0.769197
2.20627
2.08141
2.03101
2.0183
2.01541
14.9811
10.5466
10.485
8.28186
8.29082
6.82298
6.82771
5.73386
5.73545
4.91637
4.91935
4.41799
4.42042
3.8588
3.85856
3.33366
3.33382
2.86605
2.86637
2.45769
2.45805
2.10431
2.10466
1.79967
1.80006
1.5364
1.53721
1.30389
1.30729
1.05896
0.839941
0.843846
0.700236
0.700986
0.587563
0.587788
0.494984
0.495108
0.418248
0.418336
0.354484
0.354552
0.301583
0.301635
0.257967
0.258001
0.222607
0.222618
0.195336
0.195421
0.178621
0.178696
0.160072
0.16006
0.14297
0.142972
0.12811
0.128117
0.115535
0.115541
0.105121
0.105118
0.0968539
0.0968186
0.0913088
0.091135
0.091235
0.0903178
0.10743
0.102415
0.201593
0.431994
0.427454
0.90486
0.913699
2.04414
2.04813
2.02434
2.01692
2.01513
14.4019
10.889
10.3577
8.49462
8.19862
6.96
6.7536
5.83417
5.68014
4.99374
4.88732
4.45971
4.37404
3.90473
3.81729
3.37782
3.29791
2.90589
2.83533
2.49269
2.43131
2.13467
2.08163
1.82581
1.78003
1.5587
1.51866
1.32168
1.28271
1.06258
0.865013
0.835598
0.713727
0.693008
0.597635
0.581026
0.503123
0.489461
0.424972
0.413642
0.360077
0.350671
0.30624
0.298459
0.261838
0.255472
0.225806
0.22076
0.197926
0.194374
0.180057
0.177203
0.161646
0.158772
0.144467
0.141895
0.129443
0.127233
0.116687
0.114835
0.106104
0.1046
0.0976935
0.096586
0.0920561
0.091627
0.0920983
0.0935196
0.109966
0.119592
0.219159
0.420766
0.477981
0.884321
1.01332
1.92706
2.01595
2.017
2.0153
2.01476
13.9634
11.1123
10.2837
8.64477
8.1442
7.0558
6.70807
5.90394
5.64618
5.04796
4.86819
4.48781
4.34306
3.93544
3.79016
3.40764
3.27453
2.93292
2.81522
2.51647
2.41401
2.15531
2.06675
1.84358
1.76704
1.57377
1.50642
1.33317
1.2654
1.06532
0.883375
0.831065
0.723184
0.688029
0.604566
0.576726
0.5087
0.485855
0.429575
0.410643
0.363906
0.348193
0.309432
0.296438
0.264498
0.253875
0.228018
0.219613
0.199742
0.193755
0.181032
0.176214
0.162709
0.157937
0.145489
0.141208
0.130359
0.126676
0.117483
0.114396
0.10679
0.10429
0.0982922
0.0964813
0.0926296
0.0920733
0.0929133
0.0961099
0.112763
0.13316
0.232631
0.415299
0.514529
0.87486
1.08154
1.84295
1.98726
2.00976
2.01361
2.01435
13.639
11.2548
10.2422
8.74946
8.11337
7.12204
6.68087
5.95192
5.62591
5.0855
4.85715
4.50654
4.32265
3.9557
3.77256
3.42754
3.25954
2.95104
2.80239
2.53245
2.40302
2.16919
2.05728
1.85552
1.75876
1.58383
1.49844
1.34048
1.25341
1.06735
0.896569
0.828771
0.729746
0.684995
0.609283
0.574043
0.512478
0.483594
0.432691
0.408761
0.366498
0.346641
0.311595
0.295177
0.266306
0.252888
0.229531
0.218922
0.201
0.193402
0.181686
0.175569
0.163417
0.157404
0.146179
0.140777
0.130982
0.126331
0.118028
0.114131
0.107263
0.104111
0.098714
0.0964486
0.0930612
0.0924533
0.093623
0.0981509
0.115399
0.143553
0.242763
0.413155
0.540618
0.871527
1.12755
1.78351
1.96343
2.00323
2.01203
2.01395
13.41
11.3425
10.22
8.81996
8.09682
7.16635
6.66526
5.98385
5.61428
5.11063
4.85106
4.51866
4.30962
3.96867
3.7615
3.4404
3.25023
2.96281
2.79446
2.54285
2.39623
2.17823
2.05145
1.86329
1.75364
1.59035
1.49339
1.34497
1.2454
1.0688
0.905663
0.827744
0.734152
0.683213
0.612393
0.572424
0.514958
0.482222
0.434733
0.407618
0.368198
0.345699
0.313016
0.294415
0.267495
0.252297
0.230532
0.218521
0.201842
0.193211
0.182112
0.175161
0.163874
0.157074
0.146631
0.140516
0.131392
0.126126
0.118389
0.113976
0.107579
0.104013
0.0990008
0.0964509
0.0933711
0.0927515
0.0941872
0.0996716
0.117586
0.151091
0.250033
0.412713
0.558553
0.871171
1.15754
1.74309
1.94517
1.99792
2.0107
2.01359
13.2639
11.3925
10.2089
8.86347
8.08865
7.19356
6.65693
6.00337
5.60808
5.12607
4.84795
4.52592
4.30194
3.97635
3.75506
3.44809
3.24485
2.96986
2.78991
2.5491
2.39235
2.18367
2.04812
1.86796
1.7507
1.59424
1.49043
1.34754
1.2405
1.06972
0.911366
0.82736
0.736866
0.68224
0.61428
0.571515
0.516457
0.481447
0.435967
0.406972
0.369225
0.345168
0.313875
0.293987
0.268216
0.251969
0.231142
0.218306
0.202359
0.193115
0.182369
0.174922
0.164147
0.156885
0.146903
0.140369
0.13164
0.126012
0.118609
0.113892
0.107773
0.103963
0.0991792
0.0964641
0.0935718
0.0929565
0.0945778
0.100683
0.119137
0.155999
0.254739
0.412929
0.569801
0.871848
1.17555
1.71798
1.93287
1.9942
2.00975
2.01334
13.1927
11.4151
10.2045
8.88424
8.08537
7.20651
6.65335
6.01264
5.60541
5.13341
4.84666
4.52931
4.29837
3.97992
3.7521
3.45168
3.2424
2.97317
2.78784
2.55203
2.39059
2.18622
2.0466
1.87015
1.74937
1.59606
1.48906
1.34871
1.23818
1.07018
0.914115
0.827253
0.738161
0.681815
0.615172
0.571109
0.517163
0.4811
0.436548
0.406682
0.369709
0.34493
0.314279
0.293795
0.268556
0.251823
0.23143
0.218212
0.202605
0.193077
0.182489
0.174812
0.164275
0.156799
0.14703
0.140303
0.131757
0.125962
0.118713
0.113855
0.107865
0.103942
0.0992649
0.0964742
0.0936706
0.0930609
0.0947775
0.101189
0.119939
0.158419
0.257054
0.413181
0.575225
0.87244
1.18398
1.70595
1.92669
1.99227
2.00925
2.0132
-13.434
-11.7711
-10.7256
-9.73325
-9.20103
-8.7105
-8.44014
-8.17725
-8.03158
-7.88803
-7.78916
-7.6584
-7.56628
-7.44623
-7.36245
-7.25421
-7.17892
-7.08192
-7.01463
-6.9282
-6.86845
-6.792
-6.73934
-6.67219
-6.62595
-6.56691
-6.52556
-6.47115
-6.42831
-6.36324
-6.303
-6.26963
-6.23568
-6.21432
-6.18921
-6.1727
-6.1526
-6.13925
-6.1229
-6.11203
-6.09873
-6.08994
-6.07924
-6.07222
-6.06376
-6.05829
-6.05182
-6.04776
-6.04315
-6.04046
-6.03766
-6.03579
-6.03346
-6.03202
-6.03048
-6.02974
-6.02933
-6.02957
-6.03069
-6.0323
-6.03567
-6.03938
-6.04632
-6.0536
-6.06691
-6.08114
-6.10786
-6.13937
-6.20388
-6.29756
-6.50914
-6.80256
-7.06477
-7.50121
-7.91798
-8.581
-8.86016
-8.943
-8.96444
-8.96943
-13.5005
-11.7464
-10.7235
-9.71486
-9.19938
-8.70171
-8.43986
-8.17258
-8.03151
-7.88625
-7.79045
-7.65687
-7.56741
-7.44479
-7.36344
-7.25291
-7.1798
-7.08074
-7.01541
-6.92714
-6.86913
-6.79106
-6.73992
-6.67136
-6.62647
-6.5662
-6.52608
-6.4707
-6.4292
-6.36305
-6.30192
-6.26966
-6.23518
-6.21447
-6.18887
-6.17284
-6.15233
-6.13938
-6.12268
-6.11213
-6.09856
-6.09002
-6.07909
-6.07228
-6.06364
-6.05833
-6.05172
-6.04778
-6.04308
-6.04046
-6.03762
-6.03581
-6.03342
-6.03203
-6.03044
-6.02973
-6.0293
-6.02953
-6.03067
-6.03223
-6.03565
-6.03925
-6.04631
-6.05336
-6.06687
-6.08064
-6.10767
-6.13805
-6.20271
-6.29285
-6.50587
-6.80381
-7.0578
-7.502
-7.90813
-8.59636
-8.86801
-8.94546
-8.9651
-8.96962
-13.6373
-11.6925
-10.7209
-9.67677
-9.19704
-8.68351
-8.43981
-8.16287
-8.03162
-7.88252
-7.79326
-7.65358
-7.56987
-7.44171
-7.36561
-7.25011
-7.18173
-7.07823
-7.01711
-6.92488
-6.87061
-6.78904
-6.74121
-6.66959
-6.6276
-6.5647
-6.52723
-6.46969
-6.43108
-6.36266
-6.2997
-6.26978
-6.23413
-6.21482
-6.18815
-6.17317
-6.15177
-6.13965
-6.12222
-6.11236
-6.09818
-6.0902
-6.07879
-6.07241
-6.06339
-6.05843
-6.05152
-6.04783
-6.04292
-6.04048
-6.03754
-6.03585
-6.03335
-6.03204
-6.03038
-6.02971
-6.02924
-6.02946
-6.03063
-6.03208
-6.03563
-6.03898
-6.04629
-6.05286
-6.06682
-6.07961
-6.10734
-6.13535
-6.20052
-6.28321
-6.49919
-6.80681
-7.04321
-7.50431
-7.88699
-8.62837
-8.88362
-8.95022
-8.96635
-8.97
-13.8519
-11.5997
-10.7212
-9.61613
-9.19607
-8.65453
-8.44111
-8.14735
-8.03247
-7.8764
-7.79811
-7.64807
-7.57413
-7.43656
-7.36937
-7.24544
-7.18507
-7.07402
-7.02006
-6.92111
-6.8732
-6.78569
-6.74346
-6.66663
-6.62958
-6.56218
-6.52917
-6.46792
-6.43416
-6.36206
-6.29616
-6.27013
-6.23243
-6.21547
-6.18696
-6.17376
-6.15083
-6.14014
-6.12146
-6.11275
-6.09756
-6.09051
-6.07828
-6.07265
-6.06298
-6.0586
-6.0512
-6.04794
-6.04266
-6.04051
-6.03742
-6.03593
-6.03322
-6.03206
-6.03027
-6.02967
-6.02916
-6.02935
-6.03058
-6.03185
-6.03561
-6.03856
-6.04631
-6.05206
-6.06682
-6.07798
-6.107
-6.13117
-6.19763
-6.26825
-6.48885
-6.81266
-7.01964
-7.50975
-7.8515
-8.67983
-8.90678
-8.957
-8.96811
-8.97052
-14.1566
-11.452
-10.7306
-9.52811
-9.19999
-8.61245
-8.44564
-8.12469
-8.03497
-7.86719
-7.80584
-7.63953
-7.58095
-7.42861
-7.3754
-7.23825
-7.19044
-7.06754
-7.02482
-6.9153
-6.87737
-6.78052
-6.7471
-6.6621
-6.63278
-6.55829
-6.53226
-6.46506
-6.43878
-6.36121
-6.29102
-6.27095
-6.2299
-6.21658
-6.18517
-6.17474
-6.14941
-6.14096
-6.1203
-6.11342
-6.09661
-6.09104
-6.07751
-6.07306
-6.06237
-6.0589
-6.0507
-6.04812
-6.04228
-6.04059
-6.03723
-6.03605
-6.03304
-6.03212
-6.03011
-6.02964
-6.02905
-6.02919
-6.03053
-6.03152
-6.03563
-6.03793
-6.0464
-6.0509
-6.06695
-6.07563
-6.10685
-6.12529
-6.19458
-6.24728
-6.47438
-6.82318
-6.98474
-7.52112
-7.79655
-8.75533
-8.93701
-8.96534
-8.97021
-8.97113
-14.5695
-11.225
-10.7592
-9.40514
-9.2143
-8.55355
-8.45635
-8.0928
-8.04061
-7.85373
-7.81778
-7.62669
-7.59153
-7.41671
-7.3848
-7.22748
-7.19884
-7.05786
-7.03226
-6.90664
-6.88391
-6.77283
-6.7528
-6.65534
-6.63779
-6.55247
-6.53699
-6.46057
-6.44545
-6.36007
-6.28389
-6.27261
-6.22626
-6.21842
-6.18253
-6.17631
-6.14731
-6.14226
-6.1186
-6.11448
-6.09522
-6.09188
-6.07638
-6.07372
-6.06146
-6.05938
-6.04999
-6.04844
-6.04173
-6.04073
-6.03695
-6.03625
-6.03277
-6.03221
-6.02989
-6.0296
-6.02892
-6.02899
-6.03049
-6.03107
-6.03571
-6.03707
-6.04665
-6.04928
-6.06738
-6.07238
-6.10722
-6.11738
-6.19218
-6.21933
-6.45504
-6.84119
-6.93485
-7.54293
-7.71426
-8.86193
-8.97337
-8.97462
-8.97247
-8.97178
-15.1163
-10.8828
-10.8234
-9.23566
-9.24742
-8.47212
-8.47773
-8.04847
-8.05166
-7.83424
-7.83593
-7.60763
-7.6077
-7.39909
-7.39924
-7.21158
-7.21173
-7.04358
-7.04371
-6.89387
-6.89399
-6.7615
-6.76161
-6.64538
-6.64552
-6.54386
-6.54416
-6.45362
-6.45493
-6.35856
-6.27415
-6.27568
-6.22109
-6.22139
-6.17872
-6.17881
-6.14426
-6.14431
-6.11611
-6.11614
-6.09319
-6.09322
-6.07474
-6.07476
-6.06015
-6.06016
-6.04896
-6.04897
-6.04096
-6.04098
-6.03655
-6.03656
-6.03238
-6.03238
-6.0296
-6.02959
-6.02875
-6.02873
-6.03048
-6.03045
-6.03593
-6.03587
-6.04717
-6.04703
-6.06834
-6.06794
-6.10856
-6.10688
-6.19169
-6.18304
-6.42968
-6.8709
-6.86438
-7.58221
-7.59291
-9.00996
-9.01413
-8.98404
-8.97466
-8.9724
-15.8324
-10.3737
-10.9488
-9.00222
-9.31205
-8.35948
-8.51653
-7.98685
-8.07154
-7.80601
-7.8633
-7.57944
-7.63224
-7.37314
-7.42119
-7.18818
-7.23136
-7.02257
-7.06117
-6.87511
-6.90938
-6.74487
-6.77508
-6.63078
-6.65732
-6.53117
-6.55497
-6.44301
-6.46832
-6.35658
-6.26099
-6.28099
-6.21372
-6.22607
-6.17319
-6.18268
-6.13983
-6.1475
-6.1125
-6.11874
-6.09025
-6.0953
-6.07236
-6.07639
-6.05825
-6.06139
-6.04749
-6.04982
-6.03986
-6.04142
-6.03597
-6.03704
-6.03183
-6.03265
-6.02919
-6.0296
-6.02854
-6.0284
-6.03055
-6.02961
-6.03637
-6.03421
-6.04816
-6.04393
-6.07016
-6.06185
-6.1116
-6.09292
-6.19493
-6.13654
-6.39653
-6.91851
-6.76493
-7.64977
-7.41532
-9.21451
-9.05626
-8.99262
-8.97657
-8.97293
-16.7669
-9.6233
-11.175
-8.67853
-9.42718
-8.20246
-8.5828
-7.90067
-8.10543
-7.76487
-7.90433
-7.5378
-7.66925
-7.33491
-7.45439
-7.15373
-7.26109
-6.99168
-7.08762
-6.84754
-6.93273
-6.72046
-6.79554
-6.60935
-6.67523
-6.51249
-6.57122
-6.42691
-6.4872
-6.35396
-6.2432
-6.28979
-6.20317
-6.23337
-6.16517
-6.18866
-6.13338
-6.15239
-6.10724
-6.12272
-6.08597
-6.09849
-6.0689
-6.07891
-6.05551
-6.06331
-6.04536
-6.05116
-6.03831
-6.04213
-6.03513
-6.03777
-6.03104
-6.0331
-6.02862
-6.02968
-6.0283
-6.02797
-6.03074
-6.02846
-6.03716
-6.03191
-6.04986
-6.03961
-6.07336
-6.05345
-6.11738
-6.07413
-6.20459
-6.0773
-6.3529
-6.99315
-6.62395
-7.76209
-7.15637
-9.49736
-9.09461
-8.9993
-8.97798
-8.97331
-17.9872
-8.5251
-11.5632
-8.22506
-9.62128
-7.98125
-8.69159
-7.77903
-8.16116
-7.70454
-7.96561
-7.47625
-7.72492
-7.27854
-7.50442
-7.10297
-7.30589
-6.94617
-7.12753
-6.80697
-6.96799
-6.68456
-6.82645
-6.57784
-6.7023
-6.48495
-6.59559
-6.40262
-6.51382
-6.35043
-6.21912
-6.30393
-6.18796
-6.2446
-6.15349
-6.19779
-6.12397
-6.15985
-6.09956
-6.12879
-6.07971
-6.10338
-6.06387
-6.08277
-6.05151
-6.06625
-6.04229
-6.05324
-6.03609
-6.04328
-6.0339
-6.03888
-6.02989
-6.03381
-6.02784
-6.02985
-6.02802
-6.02743
-6.03113
-6.02688
-6.03851
-6.02869
-6.0527
-6.03353
-6.07871
-6.04168
-6.12744
-6.0484
-6.22456
-6.00194
-6.29469
-7.10816
-6.42267
-7.94418
-6.77955
-9.88996
-9.12066
-9.00301
-8.97873
-8.9735
)
;

boundaryField
{
    F1_1
    {
        type            calculated;
        value           nonuniform List<scalar> 
80
(
18.6788
7.86711
11.8068
7.94625
9.74182
7.8223
8.75864
7.64285
8.19774
7.487
7.82617
7.4277
7.68686
7.23251
7.49469
7.0621
7.30822
6.91055
7.13512
6.77608
6.97764
6.65787
6.83656
6.55488
6.71215
6.46522
6.60524
6.38543
6.52539
6.34613
6.20413
6.31059
6.17795
6.24987
6.14575
6.20211
6.11773
6.16342
6.09448
6.13172
6.0756
6.10575
6.06056
6.08464
6.0489
6.06767
6.04028
6.05423
6.03462
6.04376
6.03303
6.03936
6.02911
6.03409
6.02729
6.02984
6.0278
6.02702
6.03134
6.02588
6.03931
6.02674
6.05443
6.02993
6.08201
6.03477
6.13374
6.03344
6.23767
5.95973
6.26128
7.17766
6.3041
8.0563
6.55619
10.1182
9.12915
9.00387
8.97878
8.97341
)
;
    }
    F1_2
    {
        type            calculated;
        value           nonuniform List<scalar> 
80
(
-18.7334
-7.43362
-11.9511
-6.57765
-9.2986
-5.69978
-7.59142
-4.90342
-6.30592
-4.28908
-5.26692
-4.04651
-4.83386
-3.44856
-4.23915
-2.9467
-3.67095
-2.51975
-3.16016
-2.15458
-2.71205
-1.84178
-2.32366
-1.57337
-1.98982
-1.34139
-1.70785
-1.13531
-1.49982
-1.03442
-0.661776
-0.941555
-0.589807
-0.781092
-0.502324
-0.653803
-0.425569
-0.549866
-0.360804
-0.463815
-0.306736
-0.392229
-0.261912
-0.33261
-0.225165
-0.282962