/*--------------------------------*- C++ -*----------------------------------*\
| =========                 |                                                 |
| \\      /  F ield         | OpenFOAM: The Open Source CFD Toolbox           |
|  \\    /   O peration     | Version:  5.x                                   |
|   \\  /    A nd           | Web:      www.OpenFOAM.org                      |
|    \\/     M anipulation  |                                                 |
\*---------------------------------------------------------------------------*/
FoamFile
{
    version     2.0;
    format      ascii;
    class       volScalarField;
    location    "2.2";
    object      gradTx;
}
// * * * * * * * * * * * * * * * * * * * * * * * * * * * * * * * * * * * * * //

dimensions      [0 -1 0 1 0 0 0];

internalField   nonuniform List<scalar> 
3200
(
45.5602
3.6551
1.61713
1.50992
0.794299
0.751338
0.451937
0.432864
0.283274
0.272488
0.164471
0.16047
0.174001
0.174152
0.16688
0.166077
0.153819
0.152742
0.139053
0.137902
0.123952
0.122808
0.109294
0.108224
0.0959815
0.0951187
0.0862383
0.0862355
0.0911019
0.15818
0.0793991
0.0536342
0.0519068
0.0408986
0.0401209
0.0329506
0.0324173
0.0268804
0.0264575
0.0218776
0.0215235
0.0176225
0.0173189
0.0139455
0.0136802
0.0106989
0.0104578
0.00766906
0.00742848
0.00439715
0.00425641
0.00392615
0.00385884
0.00264031
0.00251885
0.000821821
0.000655362
-0.00162784
-0.00186157
-0.00515381
-0.0055097
-0.0106859
-0.0112826
-0.0202422
-0.0213786
-0.039076
-0.0417295
-0.0846353
-0.0935171
-0.238703
-0.616433
-0.435305
-0.679904
-0.711231
-1.26638
-1.24082
-0.0557152
-0.00751849
-0.0015232
-52.9549
48.2068
3.0573
1.54782
1.32777
0.755001
0.663281
0.422781
0.381997
0.262137
0.239221
0.154381
0.145839
0.155019
0.155233
0.149581
0.147888
0.138219
0.135938
0.125105
0.122667
0.11162
0.109196
0.0984978
0.096231
0.0865619
0.0847492
0.0779045
0.0780564
0.0846839
0.131889
0.0737254
0.0500549
0.0462055
0.0372685
0.0356004
0.0298833
0.0287488
0.0243514
0.0234535
0.0198201
0.0190687
0.0159751
0.0153308
0.0126556
0.0120926
0.00972745
0.00921582
0.0070022
0.00649402
0.00412272
0.00382371
0.00352356
0.0033782
0.00241538
0.00215789
0.000811758
0.000458272
-0.00135632
-0.0018532
-0.00447327
-0.00523066
-0.00935737
-0.0106296
-0.0177974
-0.0202314
-0.0345039
-0.0402525
-0.0756038
-0.0954361
-0.22704
-0.516993
-0.413994
-0.600571
-0.665069
-1.08342
-1.02991
-0.121669
-0.0208674
-0.00437997
-54.7501
50.837
2.53636
1.42694
1.15973
0.696464
0.581178
0.385639
0.334295
0.237124
0.208432
0.14124
0.130499
0.136396
0.136551
0.132124
0.13002
0.122323
0.119478
0.110822
0.107777
0.0989444
0.0959164
0.0873652
0.0845354
0.0768289
0.0745819
0.0692914
0.0696188
0.0766432
0.109813
0.0666722
0.0456827
0.0407077
0.0333477
0.0312418
0.0266326
0.0252107
0.0216824
0.020559
0.0176475
0.0167078
0.0142299
0.0134243
0.0112816
0.0105775
0.00868227
0.00804228
0.00626747
0.00563442
0.00376564
0.0033913
0.00311505
0.00293054
0.00216249
0.00184074
0.000762216
0.000319849
-0.00113732
-0.00175973
-0.00386708
-0.00481669
-0.00814285
-0.00974062
-0.0155419
-0.0186104
-0.0302726
-0.0375913
-0.067193
-0.0928841
-0.209043
-0.433272
-0.3811
-0.52612
-0.604752
-0.919332
-0.853184
-0.155326
-0.0308438
-0.0067213
-56.5452
53.4467
2.08012
1.27237
0.999531
0.624012
0.502288
0.342732
0.288428
0.209374
0.179185
0.125841
0.114495
0.118004
0.118052
0.114575
0.112376
0.106235
0.103251
0.0963165
0.0931188
0.0860375
0.0828583
0.0760045
0.0730356
0.0668782
0.064537
0.0604542
0.0609139
0.0675571
0.0907906
0.0587331
0.0406701
0.0353053
0.0292167
0.0269833
0.0232543
0.021757
0.0189173
0.0177361
0.0153962
0.0144085
0.0124181
0.0115715
0.00985028
0.00911031
0.0075872
0.00691445
0.00548738
0.00482455
0.00334902
0.00295519
0.00270312
0.00250646
0.00189199
0.00155408
0.000687432
0.000222214
-0.000951545
-0.00160669
-0.00330706
-0.00430753
-0.00699735
-0.00868342
-0.0133955
-0.0166456
-0.026215
-0.0340386
-0.0589385
-0.0867133
-0.186723
-0.360606
-0.340317
-0.454326
-0.534997
-0.770475
-0.701727
-0.166047
-0.0368057
-0.00831838
-58.34
56.0354
1.67727
1.09641
0.843447
0.54141
0.424913
0.295615
0.243552
0.179669
0.150864
0.108764
0.0978969
0.0997513
0.0996949
0.096976
0.0948902
0.0900208
0.0871822
0.0816618
0.0786172
0.0729753
0.069948
0.0644891
0.0616641
0.0567755
0.0545623
0.0514358
0.0519622
0.0578078
0.07398
0.0502344
0.0351495
0.0299319
0.0249314
0.0227845
0.0197868
0.0183569
0.0160859
0.0149595
0.013091
0.0121496
0.0105608
0.00975393
0.00838002
0.00767473
0.00645841
0.00581708
0.00467699
0.00404744
0.00288934
0.00251361
0.00228919
0.00209932
0.00161063
0.00128878
0.000596771
0.000153094
-0.000786361
-0.00141169
-0.00277491
-0.00373067
-0.00589189
-0.00750507
-0.0113076
-0.014428
-0.0222272
-0.0298028
-0.0505689
-0.077653
-0.161448
-0.295707
-0.294163
-0.383864
-0.45905
-0.633787
-0.568948
-0.160511
-0.0387376
-0.00904843
-60.1345
58.6042
1.3175
0.907336
0.689329
0.451388
0.348052
0.245411
0.19915
0.148562
0.123077
0.0904374
0.0807905
0.0815753
0.0814449
0.0793521
0.0775165
0.0737262
0.0712217
0.0669088
0.0642202
0.0598092
0.0571357
0.0528691
0.0503757
0.0465663
0.0446247
0.0422717
0.0427981
0.0476457
0.0587665
0.0413894
0.0292342
0.0245498
0.0205319
0.0186197
0.0162565
0.0149904
0.0132087
0.0122128
0.0107488
0.00991663
0.00867236
0.00795923
0.00688324
0.00625984
0.00530687
0.00473991
0.00384641
0.0032917
0.00239855
0.00206616
0.00187406
0.00170431
0.00132277
0.00103846
0.000496333
0.000103954
-0.000633612
-0.00118706
-0.00225894
-0.00310549
-0.00480825
-0.00623905
-0.0092468
-0.0120231
-0.0182482
-0.0250394
-0.0419465
-0.0663242
-0.134155
-0.236241
-0.244359
-0.313983
-0.379121
-0.506683
-0.449912
-0.143508
-0.0369861
-0.00888662
-61.9288
61.1556
0.991476
0.710581
0.536012
0.355985
0.271165
0.192953
0.154922
0.116452
0.0955755
0.0711918
0.0632673
0.0634365
0.0632739
0.0617184
0.0602215
0.0573807
0.055334
0.0520914
0.0498927
0.0465741
0.0443876
0.0411786
0.0391405
0.0362829
0.034704
0.0329928
0.0334614
0.037233
0.0446931
0.0323357
0.0230202
0.019141
0.0160482
0.014473
0.0126824
0.0116445
0.0103002
0.00948476
0.00838135
0.00770028
0.00676283
0.00617921
0.00536854
0.00485832
0.00414009
0.003676
0.00300247
0.00254967
0.00188548
0.00161324
0.0014582
0.00131793
0.00103118
0.000798591
0.000390035
6.87445e-05
-0.000488117
-0.000941585
-0.0017519
-0.00244598
-0.00373542
-0.00490989
-0.00719523
-0.00948026
-0.0142465
-0.0198712
-0.0330253
-0.0532572
-0.105491
-0.180532
-0.192095
-0.244282
-0.296694
-0.386951
-0.340861
-0.11851
-0.0320977
-0.00789058
-63.7227
63.6929
0.690751
0.509575
0.382915
0.256774
0.194015
0.138888
0.110713
0.083639
0.0682152
0.0512882
0.0454208
0.0453113
0.045159
0.0440828
0.0429807
0.0410039
0.0394946
0.0372326
0.0356103
0.0332943
0.0316809
0.0294417
0.0279385
0.0259487
0.0247889
0.023627
0.023993
0.026673
0.0314126
0.0231605
0.0165887
0.0137007
0.0115037
0.0103349
0.00907808
0.00831093
0.0073705
0.00676831
0.00599712
0.00549428
0.00483927
0.0044084
0.00384197
0.00346528
0.0029633
0.00262064
0.00214985
0.00181625
0.00135685
0.00115574
0.00104186
0.000937534
0.000737528
0.000565874
0.000280348
4.30537e-05
-0.000346673
-0.000681758
-0.00124944
-0.00176258
-0.00266713
-0.00353623
-0.00514362
-0.00683809
-0.0102104
-0.0144018
-0.0238209
-0.0389101
-0.0759148
-0.127363
-0.138206
-0.174571
-0.212754
-0.272673
-0.238861
-0.0880746
-0.0247211
-0.00618304
-65.5164
66.2199
0.407577
0.306389
0.229799
0.15503
0.116561
0.0837457
0.0664597
0.0503603
0.0409154
0.0309424
0.0273441
0.0271881
0.0270813
0.0264484
0.0257752
0.0246087
0.0236857
0.0223486
0.0213561
0.0199866
0.0189995
0.0176756
0.0167562
0.0155815
0.0148742
0.0142002
0.0144321
0.0160307
0.0186519
0.013918
0.01001
0.00823283
0.00691813
0.0062002
0.00545419
0.00498426
0.0044273
0.00405865
0.0036022
0.00329443
0.00290682
0.00264311
0.00230792
0.00207736
0.00178025
0.00157051
0.00129185
0.00108796
0.000817982
0.00069484
0.000625226
0.000561049
0.00044283
0.000337793
0.000168805
2.35291e-05
-0.000207353
-0.000412569
-0.000749107
-0.00106348
-0.00160021
-0.002133
-0.00308849
-0.00412876
-0.00614154
-0.0087233
-0.0143896
-0.0236863
-0.0457609
-0.075818
-0.0832956
-0.104788
-0.127944
-0.162144
-0.14154
-0.0541416
-0.015552
-0.00393487
-67.3099
68.7407
0.134724
0.102222
0.0766106
0.0518342
0.038881
0.0279829
0.0221596
0.0168156
0.0136369
0.0103419
0.00912996
0.00906306
0.0090248
0.00881589
0.00858959
0.00820387
0.00789344
0.00745095
0.00711707
0.00666379
0.00633172
0.00589357
0.00558433
0.00519584
0.00495827
0.0047374
0.00481672
0.00534766
0.00618556
0.00464262
0.00334595
0.00274643
0.00230866
0.00206666
0.00181925
0.00166107
0.00147657
0.00135252
0.00120136
0.00109781
0.000969462
0.000880734
0.000769745
0.000692168
0.00059378
0.000523205
0.000430925
0.000362372
0.00027329
0.000231848
0.000208426
0.000186777
0.000147655
0.000112317
5.63576e-05
7.47026e-06
-6.90231e-05
-0.000138093
-0.00024963
-0.000355459
-0.000533427
-0.000712839
-0.00102995
-0.00138051
-0.00204988
-0.00292137
-0.00481317
-0.00795142
-0.0152877
-0.0251761
-0.0278247
-0.0349378
-0.0426929
-0.0538077
-0.0468904
-0.0182563
-0.00530397
-0.00134975
-69.1033
68.7702
0.148583
0.126559
0.10594
0.083982
0.0716059
0.0597386
0.0523862
0.0439849
0.0379216
0.0302534
0.0274425
0.0274676
0.0273064
0.0264114
0.0254786
0.0239289
0.0227233
0.0210616
0.0198589
0.0182952
0.0171964
0.0158077
0.0148598
0.0137091
0.0130157
0.0123758
0.0125564
0.0139348
0.0161411
0.0121528
0.00881561
0.00727604
0.00615441
0.00553505
0.00490262
0.00449974
0.00403221
0.00372012
0.00334307
0.00308694
0.00277238
0.00255612
0.00228686
0.002098
0.00185685
0.00167985
0.00144172
0.00125609
0.00100731
0.000914058
0.000910594
0.000900359
0.000862188
0.000824534
0.000763749
0.000716817
0.000652369
0.000605153
0.000542528
0.000495442
0.000430049
0.000373
0.000279517
0.000169464
-5.66781e-05
-0.000411455
-0.0012658
-0.00288533
-0.00687449
-0.0127125
-0.0159469
-0.0229683
-0.030474
-0.0415204
-0.0369564
-0.0144392
-0.00419946
-0.00106903
-69.7989
66.3082
0.449065
0.379621
0.317875
0.251563
0.214797
0.179036
0.157201
0.131861
0.113829
0.0905662
0.0822143
0.0824103
0.0819486
0.079236
0.0764606
0.0717732
0.0681885
0.0631667
0.0595915
0.0548671
0.051601
0.0474055
0.0445877
0.0411092
0.039045
0.0370947
0.0376215
0.0417715
0.0486713
0.0364326
0.0263751
0.0218116
0.0184433
0.0166058
0.0146988
0.0135019
0.0120905
0.0111631
0.0100245
0.00926325
0.00831331
0.00767057
0.00685744
0.0062962
0.00556808
0.00504207
0.00432313
0.00377085
0.00301575
0.00273863
0.00273211
0.00270225
0.0025866
0.00247458
0.00229074
0.00215121
0.00195647
0.00181612
0.00162701
0.0014871
0.00128986
0.0011205
0.000839254
0.000513075
-0.000164849
-0.00121434
-0.00376675
-0.00856113
-0.0205494
-0.0382414
-0.047689
-0.0688854
-0.0912801
-0.125185
-0.111587
-0.0428265
-0.012314
-0.00311654
-69.3966
63.8389
0.759576
0.632376
0.529994
0.417963
0.35795
0.297776
0.262157
0.219446
0.189947
0.150283
0.136645
0.13738
0.136682
0.132064
0.12752
0.119574
0.113712
0.105215
0.0993707
0.0913814
0.0860434
0.078949
0.0743427
0.0684534
0.0650705
0.0617152
0.0625424
0.069499
0.0819682
0.0606259
0.0437155
0.0362999
0.0306715
0.0276798
0.024467
0.0225131
0.0201299
0.0186148
0.0166911
0.0154475
0.0138423
0.0127921
0.0114182
0.0105013
0.00927147
0.00841224
0.00719809
0.00629392
0.00500524
0.00455254
0.00455471
0.00450773
0.00431103
0.00412767
0.00381613
0.00358796
0.00325854
0.00302919
0.00270966
0.0024812
0.00214868
0.0018726
0.00140091
0.000870877
-0.000258037
-0.00195698
-0.00617788
-0.013949
-0.0339959
-0.0640998
-0.0789607
-0.114754
-0.151625
-0.21075
-0.188424
-0.0696837
-0.0195758
-0.00489729
-68.9942
61.3577
1.08708
0.884139
0.742501
0.582284
0.50111
0.415536
0.367397
0.306504
0.266472
0.20896
0.190501
0.192408
0.191572
0.18489
0.178716
0.167293
0.159342
0.147158
0.139237
0.127791
0.120557
0.110394
0.10415
0.0956983
0.0910959
0.0861695
0.0872193
0.0970075
0.116619
0.0846433
0.0606772
0.0507176
0.0427949
0.0387635
0.0341856
0.0315422
0.0281352
0.0260836
0.0233312
0.0216467
0.0193495
0.0179272
0.0159612
0.0147194
0.0129605
0.011797
0.010061
0.00883268
0.00696155
0.0063485
0.00637954
0.00631947
0.0060352
0.00578615
0.00533844
0.00502902
0.00455687
0.00424611
0.00378891
0.00347968
0.00300547
0.00263275
0.00196511
0.00125284
-0.000328222
-0.00259854
-0.00844677
-0.0188456
-0.0470398
-0.0905672
-0.109395
-0.160579
-0.21108
-0.299572
-0.269117
-0.0937954
-0.0254205
-0.00625004
-68.5917
58.8602
1.43894
1.13345
0.955754
0.743445
0.644448
0.5318
0.47315
0.392729
0.343698
0.266076
0.243544
0.247547
0.246698
0.237697
0.230124
0.214874
0.205143
0.188932
0.179246
0.164033
0.15519
0.141684
0.134047
0.122791
0.117136
0.110386
0.111548
0.124125
0.153336
0.108342
0.0770801
0.065055
0.0547639
0.04987
0.0438278
0.0406027
0.0360872
0.0335812
0.0299293
0.0278712
0.0248226
0.0230846
0.0204759
0.0189589
0.0166262
0.0152052
0.0129041
0.0113976
0.0088679
0.00811905
0.00820839
0.00814056
0.00775834
0.00745296
0.0068556
0.00647696
0.00584909
0.00546924
0.00486257
0.00448509
0.0038585
0.00340498
0.00253138
0.00166983
-0.000370556
-0.00309669
-0.0105333
-0.0230299
-0.0594697
-0.118022
-0.138533
-0.206431
-0.269014
-0.39315
-0.355603
-0.113629
-0.0292969
-0.00703943
-68.189
56.3426
1.82302
1.37765
1.17039
0.900077
0.788336
0.645907
0.579775
0.4777
0.42207
0.32099
0.295527
0.302882
0.302153
0.290449
0.281841
0.262237
0.251205
0.230447
0.219477
0.200023
0.190011
0.172741
0.164091
0.149661
0.143221
0.134288
0.135423
0.150579
0.193025
0.131494
0.0927154
0.0793248
0.0665184
0.0610239
0.0533586
0.0497161
0.0439599
0.0411258
0.0364647
0.0341363
0.0302441
0.0282778
0.0249478
0.0232317
0.0202562
0.0186494
0.015716
0.014004
0.0107035
0.00985652
0.010044
0.00997471
0.0094789
0.00913194
0.00836449
0.00793534
0.00713184
0.00670188
0.00592748
0.00550087
0.004705
0.00419441
0.00309753
0.00213434
-0.000385101
-0.00340605
-0.012417
-0.026256
-0.0710143
-0.146997
-0.165776
-0.252493
-0.324484
-0.493195
-0.450266
-0.127156
-0.0306904
-0.00716816
-67.7861
53.802
2.24779
1.61233
1.38756
1.05037
0.933453
0.756964
0.687841
0.560816
0.502262
0.372881
0.3462
0.358543
0.358048
0.343079
0.334
0.309259
0.297658
0.271573
0.260051
0.235637
0.225124
0.203455
0.194369
0.176214
0.169409
0.15779
0.158739
0.175945
0.236876
0.153738
0.107337
0.0935732
0.0779822
0.0722663
0.0627299
0.0589155
0.0517171
0.0487447
0.0429081
0.0404652
0.0355897
0.0335267
0.0293561
0.0275559
0.0238324
0.0221474
0.0184798
0.0166747
0.0124415
0.0115532
0.0118905
0.0118265
0.0111941
0.0108283
0.00986042
0.00940926
0.0084002
0.00794884
0.00697899
0.00653192
0.00554057
0.00500775
0.00365878
0.00266154
-0.000379152
-0.00347537
-0.0141071
-0.0282448
-0.0813091
-0.178258
-0.190299
-0.299144
-0.376084
-0.601703
-0.556133
-0.131617
-0.0291662
-0.00659036
-67.383
51.2371
2.72224
1.83059
1.60923
1.19185
1.08096
0.863731
0.798227
0.641196
0.585289
0.420666
0.395314
0.414719
0.414525
0.395477
0.386789
0.355759
0.344694
0.312119
0.301143
0.270698
0.260687
0.233669
0.225012
0.202316
0.195791
0.180792
0.181407
0.199565
0.286495
0.174517
0.120656
0.107897
0.089053
0.0836634
0.0718742
0.068252
0.0593069
0.0564798
0.0492172
0.0468928
0.0408241
0.0388611
0.0336707
0.0319582
0.0273281
0.0257258
0.02117
0.0194433
0.0140463
0.0132014
0.0137537
0.0137017
0.0128993
0.0125495
0.0113364
0.0109062
0.00964688
0.00921715
0.00801018
0.00758532
0.00635834
0.00585427
0.00420647
0.00327098
-0.000370481
-0.00324275
-0.0156564
-0.0286758
-0.0898475
-0.212915
-0.210949
-0.347069
-0.421735
-0.721056
-0.677157
-0.123195
-0.0244471
-0.00532554
-66.9797
48.6486
3.25572
2.02204
1.83875
1.32108
1.23272
0.964432
0.912277
0.717534
0.672669
0.462883
0.442639
0.471683
0.471759
0.447463
0.440474
0.401463
0.392593
0.351804
0.343017
0.304945
0.296933
0.263151
0.25622
0.227773
0.222516
0.203172
0.203377
0.220438
0.344076
0.192974
0.132334
0.122467
0.0995879
0.0953186
0.0806938
0.0778033
0.0666537
0.0643941
0.0553303
0.0534718
0.0458958
0.0443261
0.0378476
0.0364785
0.0307038
0.0294234
0.023748
0.0223597
0.0154698
0.0147944
0.0156418
0.0156077
0.0145872
0.014306
0.0127817
0.012437
0.0108611
0.0105173
0.00901075
0.00867146
0.00714781
0.00674715
0.00472624
0.00398924
-0.000392015
-0.0026279
-0.0171808
-0.02718
-0.0959089
-0.25257
-0.226074
-0.39745
-0.458398
-0.854136
-0.818581
-0.0965645
-0.0165432
-0.00347077
-66.5762
46.0411
3.85746
2.17147
2.08165
1.43315
1.39168
1.05649
1.03203
0.787881
0.766648
0.497521
0.487996
0.529809
0.529971
0.498761
0.495444
0.445965
0.441773
0.390213
0.386067
0.337993
0.334214
0.291563
0.288291
0.252307
0.249807
0.224774
0.224676
0.237052
0.412654
0.207816
0.141984
0.137559
0.109381
0.10739
0.0890462
0.0876871
0.0736469
0.0725825
0.061157
0.0602812
0.0507288
0.049989
0.0418215
0.0411765
0.033901
0.033298
0.0261556
0.0254971
0.0166454
0.0163272
0.017566
0.017554
0.0162464
0.016113
0.0141807
0.0140178
0.0120268
0.0118646
0.00996535
0.00980568
0.00789303
0.0077055
0.00519529
0.00485389
-0.000498754
-0.00151975
-0.0188867
-0.0233343
-0.0984519
-0.299549
-0.233283
-0.452246
-0.481668
-1.00446
-0.98746
-0.0442538
-0.00596148
-0.00120719
-66.1727
46.0411
3.85746
2.17147
2.08165
1.43315
1.39168
1.05649
1.03204
0.787883
0.76665
0.497523
0.487998
0.529809
0.529972
0.498761
0.495444
0.445965
0.441773
0.390213
0.386066
0.337993
0.334213
0.291562
0.28829
0.252306
0.249806
0.224773
0.224675
0.237051
0.412652
0.207815
0.141984
0.137559
0.109381
0.107391
0.0890471
0.0876881
0.073648
0.0725837
0.0611583
0.0602825
0.05073
0.0499903
0.0418227
0.0411777
0.0339021
0.0332991
0.0261565
0.025498
0.016646
0.0163279
0.0175666
0.0175546
0.0162469
0.0161135
0.0141812
0.0140183
0.0120272
0.011865
0.00996568
0.00980601
0.00789335
0.00770584
0.0051957
0.00485431
-0.000498073
-0.00151903
-0.0188852
-0.0233327
-0.0984482
-0.29954
-0.233276
-0.452236
-0.481657
-1.00444
-0.98744
-0.0442529
-0.00596153
-0.00120741
-66.1728
48.6486
3.25572
2.02203
1.83875
1.32109
1.23272
0.964434
0.912279
0.717536
0.67267
0.462884
0.442641
0.471684
0.471759
0.447464
0.440474
0.401463
0.392593
0.351804
0.343017
0.304945
0.296933
0.263151
0.256219
0.227773
0.222515
0.203172
0.203376
0.220437
0.344074
0.192972
0.132334
0.122467
0.0995884
0.0953192
0.0806946
0.0778042
0.0666547
0.0643952
0.0553315
0.0534729
0.0458969
0.0443272
0.0378487
0.0364796
0.0307047
0.0294243
0.0237488
0.0223605
0.0154704
0.014795
0.0156423
0.0156082
0.0145877
0.0143064
0.0127821
0.0124373
0.0108614
0.0105176
0.00901104
0.00867175
0.0071481
0.00674745
0.00472661
0.00398963
-0.000391414
-0.0026272
-0.0171795
-0.0271784
-0.0959054
-0.252562
-0.226068
-0.397441
-0.458389
-0.854118
-0.818564
-0.0965627
-0.0165431
-0.00347183
-66.5763
51.237
2.72224
1.83058
1.60923
1.19186
1.08096
0.863732
0.798228
0.641198
0.585291
0.420667
0.395315
0.41472
0.414525
0.395477
0.386789
0.355759
0.344694
0.312119
0.301143
0.270698
0.260687
0.233668
0.225011
0.202315
0.195791
0.180791
0.181406
0.199564
0.286494
0.174516
0.120656
0.107897
0.0890535
0.0836639
0.071875
0.0682528
0.0593078
0.0564808
0.0492182
0.0468938
0.0408251
0.0388622
0.0336717
0.0319592
0.0273289
0.0257266
0.0211708
0.019444
0.0140469
0.0132019
0.0137541
0.0137022
0.0128997
0.0125499
0.0113367
0.0109065
0.00964719
0.00921745
0.00801045
0.00758559
0.00635861
0.00585455
0.0042068
0.00327135
-0.000369942
-0.00324209
-0.0156553
-0.0286743
-0.0898442
-0.212908
-0.210944
-0.347061
-0.421726
-0.721041
-0.677144
-0.123193
-0.0244466
-0.00532706
-66.9798
53.802
2.24779
1.61233
1.38756
1.05037
0.933455
0.756966
0.687843
0.560817
0.502263
0.372882
0.346201
0.358544
0.358048
0.34308
0.334
0.309259
0.297658
0.271573
0.260051
0.235637
0.225124
0.203455
0.194369
0.176213
0.169408
0.15779
0.158738
0.175944
0.236875
0.153737
0.107338
0.0935734
0.0779827
0.0722668
0.0627306
0.0589162
0.0517179
0.0487456
0.042909
0.0404661
0.0355906
0.0335276
0.0293569
0.0275568
0.0238332
0.0221482
0.0184805
0.0166753
0.012442
0.0115536
0.0118909
0.0118269
0.0111945
0.0108287
0.00986074
0.00940957
0.00840048
0.00794911
0.00697924
0.00653216
0.00554081
0.005008
0.00365907
0.00266188
-0.000378679
-0.00347477
-0.0141061
-0.0282434
-0.0813062
-0.178253
-0.190294
-0.299137
-0.376076
-0.60169
-0.556122
-0.131615
-0.0291652
-0.00659186
-67.3831
56.3426
1.82302
1.37765
1.17039
0.900078
0.788337
0.645908
0.579777
0.477701
0.422071
0.32099
0.295528
0.302883
0.302153
0.290449
0.281841
0.262237
0.251205
0.230447
0.219477
0.200023
0.19001
0.17274
0.164091
0.149661
0.143221
0.134288
0.135422
0.150579
0.193024
0.131493
0.0927156
0.0793251
0.0665188
0.0610244
0.0533591
0.0497167
0.0439606
0.0411265
0.0364655
0.0341371
0.0302449
0.0282786
0.0249485
0.0232325
0.0202569
0.01865
0.0157166
0.0140046
0.0107039
0.00985693
0.0100444
0.00997505
0.00947922
0.00913225
0.00836477
0.00793561
0.00713209
0.00670212
0.0059277
0.00550108
0.00470522
0.00419463
0.00309778
0.00213464
-0.000384697
-0.00340553
-0.0124162
-0.0262548
-0.0710118
-0.146992
-0.165772
-0.252488
-0.324477
-0.493185
-0.450257
-0.127154
-0.030689
-0.00716935
-67.7862
58.8602
1.43894
1.13344
0.955754
0.743446
0.64445
0.531801
0.473151
0.39273
0.343699
0.266076
0.243545
0.247548
0.246699
0.237697
0.230124
0.214874
0.205143
0.188932
0.179246
0.164033
0.155189
0.141683
0.134047
0.12279
0.117135
0.110386
0.111548
0.124124
0.153335
0.108341
0.0770803
0.0650553
0.0547642
0.0498704
0.0438283
0.0406032
0.0360877
0.0335818
0.02993
0.0278718
0.0248232
0.0230853
0.0204765
0.0189595
0.0166268
0.0152058
0.0129046
0.011398
0.00886825
0.00811939
0.0082087
0.00814084
0.00775861
0.00745321
0.00685583
0.00647718
0.00584929
0.00546943
0.00486275
0.00448526
0.00385868
0.00340517
0.00253159
0.00167008
-0.000370225
-0.00309625
-0.0105326
-0.0230289
-0.0594676
-0.118018
-0.13853
-0.206426
-0.269008
-0.393142
-0.355596
-0.113627
-0.0292953
-0.00704023
-68.1891
61.3577
1.08708
0.884132
0.742501
0.582285
0.501111
0.415537
0.367398
0.306505
0.266473
0.20896
0.190502
0.192408
0.191573
0.18489
0.178716
0.167293
0.159342
0.147158
0.139237
0.127791
0.120557
0.110394
0.10415
0.0956981
0.0910956
0.0861691
0.0872188
0.0970072
0.116619
0.0846428
0.0606774
0.0507178
0.0427952
0.0387638
0.034186
0.0315426
0.0281357
0.0260841
0.0233317
0.0216472
0.01935
0.0179277
0.0159617
0.0147199
0.0129609
0.0117974
0.0100614
0.00883302
0.00696182
0.00634877
0.00637978
0.00631969
0.0060354
0.00578634
0.00533862
0.00502919
0.00455702
0.00424626
0.00378905
0.00347982
0.00300561
0.00263289
0.00196527
0.00125303
-0.000327966
-0.0025982
-0.00844624
-0.0188448
-0.0470381
-0.0905646
-0.109392
-0.160576
-0.211075
-0.299566
-0.269112
-0.0937935
-0.0254188
-0.00625045
-68.5918
63.8389
0.759575
0.632371
0.529994
0.417963
0.35795
0.297777
0.262157
0.219447
0.189947
0.150283
0.136645
0.13738
0.136682
0.132064
0.12752
0.119574
0.113712
0.105215
0.0993706
0.0913813
0.0860433
0.0789488
0.0743426
0.0684532
0.0650703
0.0617149
0.0625421
0.0694988
0.0819678
0.0606256
0.0437157
0.0363
0.0306716
0.0276801
0.0244673
0.0225134
0.0201302
0.0186152
0.0166915
0.0154478
0.0138426
0.0127925
0.0114186
0.0105017
0.00927179
0.00841254
0.00719836
0.00629416
0.00500543
0.00455273
0.00455488
0.00450788
0.00431117
0.0041278
0.00381626
0.00358808
0.00325865
0.0030293
0.00270976
0.00248129
0.00214878
0.00187271
0.00140103
0.000871014
-0.000257856
-0.00195674
-0.00617751
-0.0139485
-0.0339948
-0.0640979
-0.0789588
-0.114752
-0.151622
-0.210746
-0.18842
-0.0696823
-0.0195744
-0.00489741
-68.9943
66.3082
0.449064
0.379618
0.317875
0.251563
0.214798
0.179036
0.157201
0.131862
0.11383
0.0905664
0.0822145
0.0824105
0.0819487
0.0792361
0.0764606
0.0717732
0.0681885
0.0631667
0.0595915
0.054867
0.0516009
0.0474054
0.0445876
0.0411091
0.0390449
0.0370945
0.0376213
0.0417714
0.0486711
0.0364324
0.0263752
0.0218117
0.0184434
0.016606
0.014699
0.0135021
0.0120907
0.0111633
0.0100247
0.00926347
0.00831352
0.00767078
0.00685765
0.0062964
0.00556827
0.00504225
0.00432329
0.00377099
0.00301587
0.00273875
0.00273221
0.00270234
0.00258668
0.00247466
0.00229082
0.00215128
0.00195653
0.00181619
0.00162707
0.00148716
0.00128992
0.00112056
0.000839322
0.000513156
-0.000164742
-0.00121419
-0.00376653
-0.0085608
-0.0205487
-0.0382403
-0.0476878
-0.0688839
-0.0912782
-0.125183
-0.111585
-0.0428256
-0.012313
-0.0031165
-69.3966
68.7702
0.148583
0.126558
0.10594
0.0839821
0.071606
0.0597387
0.0523864
0.043985
0.0379217
0.0302535
0.0274426
0.0274676
0.0273064
0.0264115
0.0254786
0.0239289
0.0227233
0.0210616
0.0198589
0.0182951
0.0171964
0.0158076
0.0148598
0.013709
0.0130156
0.0123757
0.0125563
0.0139347
0.016141
0.0121527
0.00881563
0.00727607
0.00615445
0.00553509
0.00490267
0.0044998
0.00403228
0.00372018
0.00334314
0.00308701
0.00277245
0.00255619
0.00228692
0.00209807
0.00185692
0.00167991
0.00144177
0.00125613
0.00100734
0.000914095
0.000910627
0.000900388
0.000862216
0.00082456
0.000763773
0.00071684
0.00065239
0.000605173
0.000542547
0.000495461
0.000430068
0.00037302
0.000279539
0.00016949
-5.66431e-05
-0.000411407
-0.00126573
-0.00288522
-0.00687425
-0.0127121
-0.0159465
-0.0229678
-0.0304733
-0.0415195
-0.0369557
-0.0144389
-0.00419907
-0.00106898
-69.7989
68.7403
0.134567
0.101959
0.0762371
0.0512551
0.0380627
0.0267131
0.0204314
0.0144969
0.0121381
0.0114845
0.0111423
0.0106096
0.0101895
0.00960237
0.00917517
0.00861609
0.00821325
0.00768758
0.00730788
0.00681125
0.00645454
0.00599205
0.00566861
0.00526564
0.0050197
0.00479069
0.00486705
0.00539883
0.00624155
0.00468277
0.00337302
0.00276749
0.00232536
0.00208104
0.00183137
0.00167181
0.00148581
0.00136081
0.00120857
0.00110431
0.000975153
0.000885889
0.000774264
0.000696257
0.000597341
0.000526391
0.000433622
0.000364698
0.000275128
0.000233492
0.000210038
0.00018835
0.000149128
0.0001137
5.76002e-05
8.60679e-06
-6.80298e-05
-0.000137203
-0.000248874
-0.000354799
-0.00053289
-0.000712392
-0.00102962
-0.00138027
-0.00204977
-0.00292137
-0.00481335
-0.0079518
-0.0152885
-0.0251774
-0.0278259
-0.0349391
-0.0426943
-0.0538091
-0.0468917
-0.0182568
-0.00530414
-0.00134979
-69.1033
66.2187
0.407107
0.305603
0.228682
0.153294
0.114115
0.0799369
0.0612805
0.0433477
0.0363461
0.034441
0.0334345
0.0318245
0.0305753
0.0288008
0.0275309
0.0258421
0.0246447
0.023057
0.0219284
0.0204282
0.0193679
0.0179707
0.0170091
0.0157907
0.0150585
0.0143599
0.014583
0.0161841
0.0188207
0.0140384
0.0100909
0.00829593
0.00696817
0.00624333
0.00549049
0.00501648
0.00445499
0.00408352
0.0036238
0.00331395
0.00292388
0.00265858
0.00232147
0.00208963
0.00179093
0.00158007
0.00129993
0.00109494
0.000823484
0.000699766
0.000630061
0.000565769
0.000447249
0.000341942
0.000172531
2.69399e-05
-0.000204375
-0.000409898
-0.00074684
-0.0010615
-0.0015986
-0.00213166
-0.00308751
-0.00412804
-0.00614121
-0.0087233
-0.0143902
-0.0236875
-0.0457633
-0.0758218
-0.0832993
-0.104792
-0.127948
-0.162149
-0.141544
-0.054143
-0.0155525
-0.00393497
-67.3099
63.6909
0.689971
0.508264
0.381067
0.253885
0.189967
0.13254
0.102101
0.0717615
0.0603505
0.0573618
0.055751
0.053025
0.0509823
0.0479792
0.0459035
0.0430486
0.041092
0.0384082
0.0365639
0.0340278
0.032295
0.029932
0.02836
0.0262965
0.025096
0.0238924
0.0242439
0.026928
0.0316968
0.0233606
0.0167227
0.0138057
0.0115869
0.0104067
0.00913846
0.00836465
0.00741658
0.00680978
0.00603307
0.00552683
0.00486766
0.0044342
0.00386452
0.00348574
0.00298107
0.00263659
0.00216331
0.0018279
0.00136598
0.00116393
0.00104992
0.000945408
0.000744891
0.000572796
0.000286553
4.87434e-05
-0.000341716
-0.000677302
-0.00124567
-0.00175927
-0.00266445
-0.00353399
-0.00514199
-0.00683689
-0.0102099
-0.0144018
-0.0238218
-0.038912
-0.0759188
-0.127369
-0.138212
-0.174578
-0.212761
-0.27268
-0.238867
-0.0880769
-0.0247219
-0.00618317
-65.5164
61.1528
0.990389
0.708745
0.533452
0.351947
0.26556
0.184065
0.142918
0.0994185
0.0840183
0.0802277
0.0781125
0.0741986
0.0714281
0.0671207
0.0643076
0.0602195
0.0575687
0.0537261
0.0512275
0.0475955
0.0452475
0.041862
0.0397308
0.036768
0.035134
0.0333628
0.0338117
0.0375887
0.0450972
0.032615
0.0232057
0.0192875
0.016164
0.0145736
0.0127666
0.0117198
0.0103645
0.00954286
0.00843156
0.00774589
0.0068025
0.00621536
0.00540004
0.004887
0.00416491
0.00369837
0.00302127
0.00256603
0.00189817
0.00162466
0.00146948
0.00132897
0.00104148
0.000808297
0.000398712
7.67224e-05
-0.000481188
-0.000935336
-0.00174663
-0.00244134
-0.00373168
-0.00490674
-0.00719295
-0.00947858
-0.0142457
-0.0198712
-0.0330265
-0.0532598
-0.105497
-0.180541
-0.192104
-0.244291
-0.296704
-0.386961
-0.34087
-0.118513
-0.0320986
-0.00789073
-63.7226
58.6006
1.31611
0.904975
0.686089
0.446206
0.34096
0.233976
0.18383
0.125952
0.107222
0.103027
0.100546
0.0953268
0.0919357
0.086203
0.0827631
0.0773334
0.0740936
0.0689907
0.0659368
0.0611123
0.058242
0.0537423
0.0511353
0.0471867
0.0451778
0.0427448
0.0432467
0.0481003
0.0592974
0.0417466
0.0294691
0.0247376
0.0206798
0.0187492
0.0163644
0.0150873
0.0132912
0.0122876
0.0108131
0.00997535
0.00872321
0.00800577
0.00692362
0.00629677
0.0053387
0.00476874
0.00387052
0.0033128
0.00241471
0.00208076
0.00188858
0.00171854
0.00133601
0.00105097
0.00050747
0.000114235
-0.000624725
-0.001179
-0.00225219
-0.00309951
-0.00480346
-0.00623498
-0.00924388
-0.012021
-0.0182472
-0.0250393
-0.0419481
-0.0663274
-0.134162
-0.236252
-0.24437
-0.313995
-0.379133
-0.506696
-0.449924
-0.143512
-0.0369871
-0.00888675
-61.9286
56.031
1.67559
1.09352
0.839568
0.535081
0.41643
0.281615
0.225052
0.15092
0.129845
0.125758
0.12309
0.116382
0.112537
0.105194
0.101299
0.0943602
0.0906935
0.084174
0.0807175
0.0745516
0.0713022
0.0655474
0.062594
0.0575283
0.0552389
0.0520097
0.0525079
0.0583585
0.0746478
0.0506674
0.0354307
0.0301607
0.0251104
0.0229429
0.0199178
0.0184755
0.0161861
0.0150512
0.0131693
0.0122215
0.0106227
0.00981094
0.00842918
0.00771999
0.00649717
0.00585244
0.00470634
0.00407338
0.00290884
0.00253135
0.00230695
0.00211676
0.0016268
0.00130412
0.000610348
0.000165702
-0.000775538
-0.00140181
-0.00276669
-0.00372332
-0.00588607
-0.00750006
-0.011304
-0.0144253
-0.022226
-0.0298027
-0.0505709
-0.0776568
-0.161457
-0.295722
-0.294177
-0.383878
-0.459065
-0.633804
-0.568962
-0.160515
-0.0387386
-0.00904853
-60.1344
53.4417
2.07817
1.26894
0.995072