/*--------------------------------*- C++ -*----------------------------------*\
| =========                 |                                                 |
| \\      /  F ield         | OpenFOAM: The Open Source CFD Toolbox           |
|  \\    /   O peration     | Version:  5.x                                   |
|   \\  /    A nd           | Web:      www.OpenFOAM.org                      |
|    \\/     M anipulation  |                                                 |
\*---------------------------------------------------------------------------*/
FoamFile
{
    version     2.0;
    format      ascii;
    class       volScalarField;
    location    "2.2";
    object      T;
}
// * * * * * * * * * * * * * * * * * * * * * * * * * * * * * * * * * * * * * //

dimensions      [0 0 0 1 0 0 0];

internalField   nonuniform List<scalar> 
3200
(
2.1051
2.45091
2.47061
2.61263
2.6216
2.69206
2.69674
2.73725
2.74003
2.76558
2.76727
2.78203
2.78332
2.79943
2.80074
2.81611
2.81734
2.8315
2.83262
2.8454
2.84641
2.8578
2.85869
2.86872
2.86951
2.87832
2.87902
2.88695
2.88765
2.89606
2.90346
2.904
2.90883
2.90919
2.91292
2.9132
2.91621
2.91644
2.9189
2.91909
2.92109
2.92124
2.92285
2.92297
2.92425
2.92434
2.92532
2.92539
2.92608
2.92613
2.92652
2.92655
2.92691
2.92694
2.92718
2.92719
2.92726
2.92726
2.9271
2.92707
2.92658
2.92652
2.92551
2.92539
2.92349
2.92325
2.91958
2.91908
2.91112
2.90973
2.88725
2.84809
2.84372
2.7801
2.77259
2.65346
2.64851
2.64789
2.64776
2.64773
2.27806
2.54263
2.58379
2.69741
2.71656
2.77291
2.78289
2.81519
2.82109
2.8414
2.84501
2.85684
2.8596
2.87234
2.87512
2.8873
2.88991
2.90112
2.9035
2.91363
2.91577
2.92479
2.92669
2.93464
2.93631
2.9433
2.94479
2.95109
2.95259
2.95956
2.96578
2.96693
2.97079
2.97155
2.97451
2.97511
2.9775
2.97799
2.97994
2.98033
2.98192
2.98224
2.98352
2.98377
2.98478
2.98498
2.98575
2.9859
2.98645
2.98655
2.98687
2.98693
2.98722
2.98727
2.98746
2.98749
2.98754
2.98753
2.98741
2.98735
2.98696
2.98683
2.98602
2.98576
2.98424
2.98374
2.98079
2.97971
2.97323
2.97017
2.95053
2.91847
2.90913
2.85841
2.84262
2.75007
2.73963
2.73791
2.73754
2.73747
2.44042
2.64327
2.69406
2.78597
2.81003
2.85561
2.86815
2.89418
2.90158
2.91789
2.92242
2.93201
2.93547
2.94565
2.94913
2.95887
2.96213
2.9711
2.97408
2.98218
2.98485
2.99208
2.99444
3.00081
3.0029
3.0085
3.01036
3.01542
3.01732
3.02309
3.0283
3.02976
3.03287
3.03383
3.0362
3.03695
3.03887
3.03947
3.04103
3.04153
3.0428
3.0432
3.04422
3.04454
3.04535
3.0456
3.04622
3.0464
3.04685
3.04697
3.04722
3.04731
3.04753
3.0476
3.04775
3.04778
3.04783
3.04781
3.04771
3.04764
3.04733
3.04716
3.04651
3.04618
3.04496
3.04432
3.04193
3.04056
3.03521
3.03127
3.01431
2.98795
2.9762
2.93534
2.91572
2.8434
2.8304
2.82787
2.82732
2.8272
2.59467
2.75
2.80268
2.87724
2.90264
2.93964
2.95286
2.97391
2.98171
2.99485
2.99963
3.00744
3.01108
3.01924
3.02288
3.03069
3.03412
3.04132
3.04444
3.05095
3.05375
3.05955
3.06204
3.06715
3.06934
3.07384
3.0758
3.07989
3.08189
3.08664
3.09097
3.09251
3.09504
3.09605
3.09796
3.09874
3.10028
3.10092
3.10217
3.10269
3.10371
3.10413
3.10496
3.10529
3.10594
3.1062
3.1067
3.10689
3.10725
3.10738
3.10758
3.10767
3.10785
3.10792
3.10804
3.10808
3.10811
3.1081
3.10802
3.10794
3.10769
3.10751
3.10699
3.10664
3.10565
3.10498
3.10302
3.10157
3.09713
3.0929
3.07846
3.05684
3.04443
3.01141
2.99093
2.93436
2.92075
2.91775
2.91707
2.91692
2.7427
2.86084
2.91043
2.97048
2.99478
3.02462
3.03727
3.05418
3.06162
3.07215
3.07671
3.08302
3.0865
3.093
3.09647
3.10269
3.10596
3.1117
3.11467
3.11986
3.12254
3.12716
3.12953
3.13361
3.1357
3.13929
3.14115
3.14443
3.14635
3.15021
3.15375
3.15523
3.15726
3.15823
3.15976
3.16051
3.16173
3.16234
3.16334
3.16384
3.16465
3.16505
3.16571
3.16603
3.16655
3.1668
3.16719
3.16738
3.16766
3.16778
3.16795
3.16803
3.16818
3.16824
3.16834
3.16837
3.1684
3.16839
3.16832
3.16825
3.16804
3.16787
3.16745
3.16712
3.16632
3.16568
3.1641
3.1627
3.15904
3.15493
3.1429
3.12536
3.11348
3.08698
3.06758
3.0236
3.01068
3.00755
3.00681
3.00664
2.88601
2.97441
3.01776
3.06514
3.08669
3.11028
3.1215
3.13482
3.14141
3.14968
3.15372
3.15872
3.1618
3.16688
3.16994
3.17481
3.1777
3.18219
3.18482
3.18888
3.19124
3.19486
3.19695
3.20015
3.20199
3.2048
3.20645
3.20903
3.21073
3.21379
3.21661
3.21793
3.21953
3.22039
3.22159
3.22225
3.22321
3.22375
3.22453
3.22497
3.22561
3.22596
3.22648
3.22676
3.22716
3.22738
3.22769
3.22786
3.22808
3.22819
3.22832
3.22839
3.22851
3.22856
3.22864
3.22867
3.22869
3.22868
3.22862
3.22856
3.2284
3.22825
3.22792
3.22762
3.22699
3.22642
3.22517
3.22392
3.22097
3.21729
3.20756
3.19366
3.18312
3.16226
3.14521
3.1116
3.10022
3.09724
3.09652
3.09636
3.02578
3.08978
3.12493
3.16084
3.17853
3.19644
3.20564
3.21573
3.22114
3.22738
3.23069
3.2345
3.23702
3.24084
3.24335
3.24701
3.24937
3.25275
3.2549
3.25796
3.25989
3.26262
3.26433
3.26674
3.26825
3.27036
3.27172
3.27366
3.27506
3.27739
3.27953
3.28062
3.28183
3.28253
3.28344
3.28398
3.28471
3.28515
3.28574
3.28609
3.28657
3.28686
3.28725
3.28748
3.28779
3.28797
3.2882
3.28834
3.2885
3.28859
3.28869
3.28875
3.28884
3.28888
3.28894
3.28896
3.28898
3.28897
3.28893
3.28888
3.28875
3.28863
3.28838
3.28814
3.28766
3.28719
3.28624
3.28521
3.28293
3.27988
3.27238
3.26183
3.25318
3.2374
3.22351
3.1987
3.18942
3.18685
3.18621
3.18606
3.16299
3.20631
3.23206
3.25726
3.27035
3.28294
3.28975
3.29683
3.30083
3.30519
3.30765
3.31032
3.31219
3.31485
3.3167
3.31926
3.321
3.32336
3.32495
3.32709
3.32851
3.33042
3.33168
3.33336
3.33448
3.33596
3.33695
3.33832
3.33935
3.34099
3.34249
3.3433
3.34415
3.34467
3.3453
3.3457
3.34621
3.34654
3.34695
3.34721
3.34755
3.34776
3.34803
3.3482
3.34842
3.34855
3.34871
3.34881
3.34893
3.34899
3.34906
3.34911
3.34917
3.3492
3.34924
3.34926
3.34927
3.34926
3.34923
3.3492
3.34911
3.34902
3.34884
3.34867
3.34833
3.34798
3.34731
3.34654
3.34493
3.34265
3.33733
3.32991
3.32351
3.31246
3.30224
3.28519
3.27835
3.27638
3.27588
3.27576
3.29846
3.32354
3.33922
3.35417
3.3622
3.36968
3.37385
3.37805
3.3805
3.38309
3.38459
3.38618
3.38732
3.3889
3.39003
3.39155
3.39261
3.39401
3.39498
3.39624
3.39711
3.39824
3.39901
3.40001
3.40069
3.40157
3.40218
3.40299
3.40362
3.40459
3.40549
3.40598
3.40649
3.4068
3.40718
3.40742
3.40772
3.40792
3.40817
3.40833
3.40853
3.40866
3.40882
3.40892
3.40905
3.40913
3.40923
3.40929
3.40936
3.4094
3.40944
3.40947
3.4095
3.40952
3.40954
3.40956
3.40956
3.40956
3.40954
3.40952
3.40947
3.40941
3.40931
3.4092
3.409
3.40878
3.40838
3.40791
3.40694
3.40554
3.40237
3.39796
3.39404
3.38748
3.38124
3.37127
3.36709
3.36585
3.36553
3.36546
3.43293
3.44114
3.4464
3.45136
3.45406
3.45654
3.45795
3.45934
3.46017
3.46102
3.46153
3.46206
3.46244
3.46297
3.46335
3.46385
3.4642
3.46467
3.46499
3.46541
3.46571
3.46608
3.46634
3.46667
3.4669
3.46719
3.46739
3.46766
3.46788
3.4682
3.46849
3.46866
3.46883
3.46894
3.46906
3.46914
3.46924
3.46931
3.46939
3.46944
3.46951
3.46955
3.46961
3.46964
3.46968
3.46971
3.46974
3.46976
3.46979
3.4698
3.46981
3.46982
3.46983
3.46984
3.46985
3.46985
3.46985
3.46985
3.46985
3.46984
3.46982
3.4698
3.46977
3.46973
3.46967
3.46959
3.46946
3.4693
3.46898
3.46851
3.46745
3.46599
3.46467
3.4625
3.4604
3.45711
3.45571
3.45529
3.45518
3.45515
3.43412
3.4429
3.44898
3.45555
3.45958
3.46395
3.46674
3.46993
3.47198
3.47432
3.47577
3.47735
3.47851
3.4801
3.48124
3.48274
3.48379
3.48513
3.48606
3.48724
3.48805
3.48907
3.48977
3.49065
3.49125
3.49202
3.49256
3.49326
3.49381
3.49465
3.49543
3.49586
3.49631
3.49659
3.49692
3.49715
3.49741
3.49759
3.49782
3.49797
3.49815
3.49828
3.49843
3.49853
3.49866
3.49874
3.49884
3.49891
3.49899
3.49903
3.49909
3.49913
3.49918
3.49922
3.49926
3.4993
3.49934
3.49937
3.49941
3.49943
3.49946
3.49948
3.4995
3.49952
3.49953
3.49953
3.49953
3.49949
3.4994
3.4992
3.49871
3.49793
3.49712
3.49564
3.49407
3.49148
3.49037
3.49004
3.48995
3.48993
3.30202
3.3288
3.34693
3.36676
3.37872
3.39192
3.4002
3.40982
3.41592
3.42301
3.4273
3.43206
3.43552
3.44031
3.44372
3.44823
3.45136
3.45541
3.45818
3.46172
3.46414
3.46721
3.4693
3.47195
3.47376
3.47606
3.47766
3.47977
3.48142
3.48395
3.48629
3.48759
3.48893
3.48977
3.49077
3.49143
3.49224
3.49278
3.49345
3.4939
3.49446
3.49483
3.49529
3.49559
3.49597
3.49622
3.49653
3.49673
3.49696
3.4971
3.49726
3.49738
3.49754
3.49765
3.49779
3.4979
3.49802
3.49811
3.49822
3.49829
3.49838
3.49844
3.49851
3.49855
3.4986
3.4986
3.49858
3.49848
3.4982
3.49763
3.49615
3.4938
3.49138
3.48691
3.48225
3.4744
3.47109
3.47011
3.46986
3.4698
3.16885
3.21505
3.2448
3.27828
3.2978
3.32008
3.3336
3.34986
3.35981
3.3718
3.37881
3.38683
3.39247
3.40057
3.40614
3.41378
3.41889
3.42573
3.43027
3.43625
3.4402
3.44539
3.44881
3.45329
3.45624
3.46013
3.46275
3.4663
3.469
3.47325
3.4772
3.47932
3.48157
3.48295
3.48464
3.48571
3.48708
3.48797
3.4891
3.48983
3.49077
3.49137
3.49215
3.49265
3.49329
3.4937
3.49422
3.49454
3.49494
3.49517
3.49544
3.49563
3.4959
3.49608
3.49633
3.49649
3.49671
3.49685
3.49703
3.49715
3.49731
3.4974
3.49752
3.49759
3.49766
3.49768
3.49763
3.49748
3.49702
3.49608
3.49362
3.48967
3.48572
3.4782
3.47056
3.45712
3.45172
3.45016
3.44976
3.44967
3.03382
3.10195
3.14253
3.19036
3.21678
3.24859
3.26689
3.29015
3.30363
3.3208
3.33028
3.34169
3.34933
3.36093
3.36849
3.37942
3.38636
3.39615
3.40229
3.41087
3.41621
3.42365
3.42827
3.43468
3.43869
3.44425
3.4478
3.45287
3.45652
3.46257
3.46818
3.47104
3.47425
3.47611
3.47853
3.47998
3.48194
3.48314
3.48476
3.48575
3.48709
3.48791
3.48903
3.4897
3.49062
3.49118
3.49192
3.49236
3.49292
3.49324
3.49362
3.49387
3.49426
3.49451
3.49486
3.49509
3.4954
3.49559
3.49585
3.49601
3.49623
3.49636
3.49653
3.49662
3.49673
3.49675
3.49669
3.49649
3.49585
3.4946
3.49115
3.48555
3.48021
3.46949
3.4591
3.43953
3.43219
3.43015
3.42965
3.42953
2.89607
2.98995
3.03996
3.1033
3.13554
3.17764
3.19998
3.23082
3.2473
3.27009
3.28167
3.2967
3.30602
3.32146
3.33069
3.34523
3.3537
3.36671
3.37422
3.38561
3.39214
3.40201
3.40766
3.41618
3.42107
3.42846
3.43278
3.4395
3.44393
3.45191
3.45927
3.46274
3.46698
3.46925
3.47245
3.47423
3.47684
3.47829
3.48044
3.48165
3.48344
3.48444
3.48592
3.48675
3.48797
3.48864
3.48963
3.49016
3.49092
3.4913
3.49181
3.49212
3.49263
3.49293
3.4934
3.49368
3.49409
3.49432
3.49467
3.49487
3.49516
3.49532
3.49555
3.49566
3.4958
3.49583
3.49576
3.49552
3.49471
3.49321
3.48876
3.48141
3.47491
3.46077
3.44801
3.42145
3.41245
3.41009
3.40952
3.40939
2.75455
2.8797
2.93686
3.01747
3.0539
3.10748
3.13273
3.17207
3.19071
3.21984
3.23291
3.25194
3.26247
3.28222
3.29268
3.31127
3.32087
3.33749
3.34599
3.36054
3.36793
3.38054
3.38694
3.39781
3.40334
3.41278
3.41767
3.42621
3.43121
3.44127
3.45051
3.45442
3.45978
3.46235
3.46644
3.46845
3.47177
3.47342
3.47617
3.47753
3.47981
3.48095
3.48284
3.48378
3.48533
3.4861
3.48736
3.48796
3.48893
3.48936
3.49
3.49035
3.491
3.49135
3.49195
3.49226
3.49279
3.49305
3.4935
3.49372
3.49409
3.49427
3.49457
3.49469
3.49488
3.49491
3.49484
3.49457
3.49359
3.49194
3.48649
3.47724
3.46992
3.45199
3.43747
3.40267
3.39244
3.38996
3.38937
3.38924
2.60803
2.77217
2.83281
2.9334
2.97157
3.03844
3.06491
3.11414
3.13369
3.17022
3.18392
3.20751
3.21854
3.24336
3.25435
3.27767
3.28775
3.30859
3.31751
3.33575
3.34352
3.35932
3.36603
3.37966
3.38547
3.39728
3.40241
3.41306
3.41828
3.43066
3.44197
3.44603
3.4527
3.45539
3.4605
3.46261
3.46677
3.46851
3.47194
3.47338
3.47624
3.47743
3.47979
3.48078
3.48273
3.48353
3.48511
3.48575
3.48696
3.48742
3.48821
3.48857
3.48939
3.48976
3.49051
3.49084
3.4915
3.49178
3.49234
3.49257
3.49304
3.49323
3.49359
3.49373
3.49396
3.49399
3.49392
3.49365
3.49251
3.49082
3.48438
3.473
3.46535
3.44308
3.42774
3.38291
3.37213
3.36975
3.36921
3.36909
2.45493
2.66877
2.72716
2.85183
2.88808
2.97102
2.99618
3.05739
3.076
3.12151
3.13453
3.16358
3.17406
3.20505
3.21551
3.2446
3.25419
3.28017
3.28866
3.31138
3.31877
3.33845
3.34484
3.36182
3.36734
3.38205
3.38692
3.40013
3.40506
3.42009
3.43371
3.43754
3.44578
3.44833
3.45468
3.4567
3.46187
3.46352
3.4678
3.46917
3.47272
3.47386
3.47681
3.47774
3.48017
3.48094
3.48291
3.48351
3.48502
3.48546
3.48643
3.48678
3.4878
3.48815
3.48909
3.4894
3.49023
3.49049
3.49119
3.49141
3.49199
3.49217
3.49263
3.49276
3.49305
3.49309
3.49301
3.49276
3.49145
3.48989
3.48246
3.4686
3.46137
3.43389
3.41919
3.36179
3.35148
3.34947
3.34903
3.34894
2.29328
2.57159
2.61885
2.77379
2.80272
2.9059
2.92599
3.00234
3.01722
3.0741
3.08449
3.12038
3.12875
3.16755
3.17593
3.2123
3.21998
3.25244
3.25924
3.28762
3.29354
3.31812
3.32323
3.34443
3.34885
3.36721
3.3711
3.38753
3.39144
3.40957
3.42585
3.42887
3.43908
3.44112
3.44904
3.45065
3.45711
3.45843
3.46378
3.46487
3.46931
3.47022
3.4739
3.47465
3.47768
3.4783
3.48075
3.48124
3.48313
3.48347
3.48468
3.48495
3.48624
3.48651
3.4877
3.48795
3.48898
3.48919
3.49006
3.49024
3.49096
3.49111
3.49168
3.49178
3.49215
3.49218
3.49211
3.49192
3.49039
3.4892
3.4808
3.46394
3.4582
3.4242
3.41236
3.33879
3.3305
3.32913
3.32884
3.32878
2.12048
2.48364
2.50622
2.70078
2.71439
2.8441
2.85356
2.94975
2.95676
3.02854
3.03342
3.07829
3.08222
3.13127
3.13522
3.18114
3.18477
3.22574
3.22894
3.26476
3.26755
3.29856
3.30097
3.32772
3.3298
3.35295
3.35478
3.37543
3.37725
3.39913
3.41851
3.41991
3.43271
3.43367
3.44365
3.44441
3.45255
3.45318
3.45992
3.46043
3.46604
3.46646
3.47111
3.47146
3.47529
3.47558
3.47868
3.47891
3.4813
3.48146
3.48296
3.48309
3.48472
3.48485
3.48634
3.48646
3.48776
3.48786
3.48896
3.48905
3.48996
3.49003
3.49075
3.4908
3.49127
3.49128
3.49122
3.49113
3.48933
3.4888
3.47948
3.45884
3.45616
3.41362
3.40799
3.31317
3.30924
3.30875
3.30865
3.30863
2.12048
2.48363
2.50622
2.70078
2.71439
2.8441
2.85355
2.94975
2.95676
3.02853
3.03342
3.07829
3.08222
3.13127
3.13522
3.18114
3.18476
3.22574
3.22894
3.26476
3.26755
3.29856
3.30097
3.32772
3.3298
3.35295
3.35478
3.37542
3.37725
3.39913
3.41851
3.41991
3.43271
3.43367
3.44365
3.44441
3.45255
3.45317
3.45992
3.46043
3.46603
3.46646
3.47111
3.47146
3.47529
3.47558
3.47868
3.47891
3.4813
3.48146
3.48296
3.48309
3.48472
3.48485
3.48634
3.48646
3.48776
3.48786
3.48896
3.48905
3.48996
3.49003
3.49075
3.4908
3.49127
3.49128
3.49122
3.49113
3.48933
3.4888
3.47948
3.45884
3.45616
3.41362
3.40799
3.31318
3.30925
3.30875
3.30865
3.30863
2.29327
2.57159
2.61885
2.77379
2.80272
2.9059
2.92599
3.00234
3.01722
3.07409
3.08449
3.12038
3.12875
3.16755
3.17593
3.2123
3.21997
3.25244
3.25923
3.28762
3.29354
3.31812
3.32323
3.34443
3.34885
3.36721
3.3711
3.38753
3.39144
3.40957
3.42585
3.42887
3.43908
3.44112
3.44904
3.45065
3.45711
3.45843
3.46377
3.46487
3.46931
3.47021
3.4739
3.47465
3.47768
3.4783
3.48075
3.48124
3.48313
3.48347
3.48468
3.48495
3.48624
3.48651
3.4877
3.48794
3.48898
3.48919
3.49006
3.49024
3.49096
3.49111
3.49168
3.49178
3.49215
3.49218
3.49211
3.49192
3.49039
3.4892
3.4808
3.46394
3.4582
3.4242
3.41236
3.33879
3.3305
3.32913
3.32885
3.32879
2.45493
2.66877
2.72716
2.85183
2.88808
2.97102
2.99617
3.05739
3.076
3.12151
3.13453
3.16358
3.17406
3.20505
3.21551
3.2446
3.25419
3.28017
3.28866
3.31138
3.31877
3.33845
3.34484
3.36182
3.36734
3.38205
3.38692
3.40013
3.40506
3.42009
3.43371
3.43754
3.44578
3.44833
3.45468
3.45669
3.46187
3.46352
3.4678
3.46917
3.47272
3.47386
3.47681
3.47774
3.48017
3.48094
3.48291
3.48351
3.48502
3.48546
3.48643
3.48678
3.4878
3.48815
3.48909
3.4894
3.49023
3.49049
3.49119
3.49141
3.49199
3.49217
3.49263
3.49276
3.49305
3.49309
3.49301
3.49276
3.49145
3.48989
3.48246
3.4686
3.46137
3.4339
3.41919
3.36179
3.35148
3.34947
3.34904
3.34894
2.60803
2.77217
2.83281
2.9334
2.97156
3.03844
3.06491
3.11414
3.13369
3.17022
3.18392
3.20751
3.21854
3.24336
3.25434
3.27767
3.28774
3.30859
3.31751
3.33575
3.34352
3.35932
3.36603
3.37966
3.38546
3.39728
3.40241
3.41306
3.41828
3.43066
3.44197
3.44603
3.4527
3.45539
3.4605
3.46261
3.46677
3.4685
3.47194
3.47338
3.47623
3.47743
3.47979
3.48078
3.48273
3.48353
3.48511
3.48575
3.48696
3.48742
3.48821
3.48857
3.48939
3.48975
3.49051
3.49084
3.4915
3.49178
3.49234
3.49257
3.49304
3.49323
3.49359
3.49373
3.49396
3.49399
3.49392
3.49365
3.49251
3.49082
3.48438
3.473
3.46535
3.44308
3.42774
3.38291
3.37213
3.36975
3.36921
3.36909
2.75455
2.8797
2.93686
3.01747
3.0539
3.10748
3.13273
3.17207
3.19071
3.21984
3.23291
3.25194
3.26247
3.28222
3.29268
3.31127
3.32087
3.33749
3.34599
3.36054
3.36793
3.38054
3.38694
3.39781
3.40334
3.41278
3.41767
3.42621
3.43121
3.44127
3.45051
3.45441
3.45978
3.46235
3.46643
3.46845
3.47177
3.47342
3.47617
3.47753
3.47981
3.48095
3.48284
3.48378
3.48533
3.4861
3.48736
3.48796
3.48893
3.48936
3.49
3.49035
3.491
3.49135
3.49195
3.49226
3.49279
3.49305
3.4935
3.49372
3.49409
3.49427
3.49457
3.49469
3.49488
3.49491
3.49484
3.49457
3.49359
3.49194
3.48649
3.47724
3.46992
3.45199
3.43747
3.40268
3.39244
3.38996
3.38937
3.38924
2.89607
2.98995
3.03996
3.10329
3.13554
3.17764
3.19998
3.23082
3.2473
3.27009
3.28167
3.2967
3.30602
3.32146
3.33069
3.34522
3.3537
3.36671
3.37422
3.38561
3.39214
3.40201
3.40766
3.41618
3.42107
3.42846
3.43278
3.43949
3.44393
3.45191
3.45927
3.46274
3.46698
3.46925
3.47245
3.47423
3.47683
3.47829
3.48044
3.48165
3.48344
3.48444
3.48592
3.48675
3.48797
3.48864
3.48963
3.49016
3.49092
3.4913
3.49181
3.49212
3.49263
3.49293
3.4934
3.49368
3.49409
3.49432
3.49467
3.49487
3.49516
3.49532
3.49555
3.49566
3.4958
3.49583
3.49576
3.49552
3.49471
3.49321
3.48876
3.48141
3.47491
3.46077
3.44801
3.42146
3.41245
3.41009
3.40952
3.40939
3.03382
3.10195
3.14253
3.19036
3.21678
3.24859
3.26689
3.29014
3.30363
3.3208
3.33028
3.34169
3.34933
3.36093
3.36848
3.37942
3.38636
3.39615
3.40229
3.41087
3.41621
3.42365
3.42827
3.43468
3.43869
3.44425
3.44779
3.45287
3.45652
3.46257
3.46818
3.47104
3.47425
3.47611
3.47853
3.47998
3.48194
3.48314
3.48476
3.48575
3.48709
3.48791
3.48903
3.4897
3.49062
3.49118
3.49192
3.49236
3.49292
3.49324
3.49362
3.49387
3.49426
3.49451
3.49486
3.49509
3.4954
3.49559
3.49585
3.49601
3.49623
3.49636
3.49653
3.49662
3.49673
3.49675
3.49669
3.49649
3.49585
3.4946
3.49115
3.48555
3.48021
3.46949
3.4591
3.43953
3.43219
3.43015
3.42965
3.42953
3.16885
3.21505
3.2448
3.27828
3.2978
3.32008
3.3336
3.34986
3.35981
3.3718
3.37881
3.38683
3.39247
3.40057
3.40614
3.41378
3.41889
3.42573
3.43027
3.43625
3.4402
3.44539
3.44881
3.45329
3.45624
3.46013
3.46275
3.4663
3.469
3.47325
3.4772
3.47932
3.48157
3.48295
3.48464
3.48571
3.48708
3.48797
3.4891
3.48983
3.49077
3.49137
3.49215
3.49265
3.49329
3.4937
3.49422
3.49454
3.49494
3.49517
3.49544
3.49563
3.4959
3.49608
3.49633
3.49649
3.49671
3.49685
3.49703
3.49715
3.49731
3.4974
3.49752
3.49759
3.49766
3.49768
3.49763
3.49748
3.49702
3.49608
3.49362
3.48968
3.48572
3.4782
3.47056
3.45713
3.45172
3.45016
3.44976
3.44967
3.30202
3.3288
3.34693
3.36676
3.37872
3.39192
3.4002
3.40982
3.41592
3.42301
3.4273
3.43206
3.43552
3.44031
3.44372
3.44823
3.45136
3.45541
3.45818
3.46172
3.46414
3.46721
3.4693
3.47195
3.47376
3.47606
3.47766
3.47977
3.48142
3.48395
3.48629
3.48759
3.48893
3.48977
3.49077
3.49143
3.49224
3.49278
3.49345
3.4939
3.49445
3.49483
3.49529
3.49559
3.49597
3.49622
3.49653
3.49673
3.49696
3.4971
3.49726
3.49738
3.49754
3.49765
3.49779
3.4979
3.49802
3.49811
3.49822
3.49829
3.49838
3.49844
3.49851
3.49855
3.4986
3.4986
3.49858
3.49848
3.4982
3.49763
3.49615
3.4938
3.49138
3.48691
3.48225
3.4744
3.47109
3.47011
3.46986
3.4698
3.43412
3.4429
3.44898
3.45555
3.45958
3.46395
3.46674
3.46993
3.47198
3.47432
3.47577
3.47735
3.47851
3.4801
3.48124
3.48274
3.48379
3.48513
3.48606
3.48724
3.48805
3.48907
3.48977
3.49065
3.49125
3.49202
3.49256
3.49326
3.49381
3.49465
3.49543
3.49586
3.49631
3.49659
3.49692
3.49714
3.49741
3.49759
3.49782
3.49797
3.49815
3.49828
3.49843
3.49853
3.49866
3.49874
3.49884
3.49891
3.49899
3.49903
3.49909
3.49913
3.49918
3.49922
3.49926
3.4993
3.49934
3.49937
3.49941
3.49943
3.49946
3.49948
3.4995
3.49952
3.49953
3.49953
3.49953
3.49949
3.4994
3.4992
3.49871
3.49793
3.49712
3.49564
3.49407
3.49148
3.49037
3.49004
3.48995
3.48993
3.43291
3.44112
3.44637
3.45131
3.45399
3.45644
3.4578
3.45911
3.45984
3.46056
3.46106
3.46171
3.46217
3.46277
3.46319
3.46373
3.46411
3.46459
3.46493
3.46536
3.46566
3.46604
3.4663
3.46664
3.46687
3.46716
3.46737
3.46764
3.46786
3.46818
3.46848
3.46865
3.46882
3.46893
3.46905
3.46914
3.46924
3.4693
3.46939
3.46944
3.46951
3.46955
3.4696
3.46964
3.46968
3.46971
3.46974
3.46976
3.46978
3.4698
3.46981
3.46982
3.46983
3.46984
3.46985
3.46985
3.46985
3.46985
3.46985
3.46984
3.46982
3.4698
3.46977
3.46973
3.46967
3.46959
3.46946
3.4693
3.46898
3.46851
3.46745
3.46599
3.46467
3.46249
3.4604
3.45711
3.45571
3.45529
3.45518
3.45515
3.29841
3.32346
3.33912
3.35402
3.36199
3.36935
3.3734
3.37735
3.37953
3.38168
3.38316
3.38513
3.3865
3.38831
3.38956
3.39119
3.39232
3.39377
3.39478
3.39608
3.39697
3.39812
3.39891
3.39992
3.40061
3.4015
3.40212
3.40293
3.40357
3.40455
3.40546
3.40596
3.40647
3.40679
3.40716
3.40741
3.40771
3.40791
3.40816
3.40832
3.40852
3.40865
3.40881
3.40892
3.40904
3.40913
3.40922
3.40928
3.40935
3.40939
3.40944
3.40946
3.4095
3.40952
3.40954
3.40955
3.40956
3.40956
3.40954
3.40952
3.40947
3.40941
3.40931
3.4092
3.409
3.40878
3.40838
3.40791
3.40694
3.40554
3.40237
3.39796
3.39404
3.38748
3.38124
3.37127
3.36709
3.36585
3.36553
3.36546
3.1629
3.20619
3.2319
3.25701
3.27
3.2824
3.289
3.29566
3.29921
3.30283
3.30525
3.30857
3.31082
3.31387
3.31592
3.31867
3.32051
3.32297
3.32462
3.32681
3.32828
3.33022
3.33151
3.33321
3.33434
3.33584
3.33685
3.33823
3.33928
3.34092
3.34245
3.34326
3.34412
3.34464
3.34528
3.34568
3.34619
3.34652
3.34693
3.3472
3.34753
3.34775
3.34802
3.34819
3.34841
3.34854
3.34871
3.34881
3.34892
3.34899
3.34906
3.3491
3.34916
3.3492
3.34924
3.34926
3.34927
3.34926
3.34923
3.34919
3.34911
3.34902
3.34884
3.34866
3.34833
3.34798
3.34731
3.34654
3.34492
3.34265
3.33733
3.32991
3.32351
3.31245
3.30224
3.28519
3.27835
3.27638
3.27588
3.27576
3.02566
3.08961
3.1247
3.16049
3.17805
3.19568
3.2046
3.21409
3.21889
3.22403
3.2273
3.23205
3.23511
3.23947
3.24225
3.24619
3.24868
3.25221
3.25444
3.25758
3.25956
3.26234
3.26408
3.26653
3.26806
3.2702
3.27157
3.27354
3.27495
3.2773
3.27946
3.28056
3.28178
3.28249
3.2834
3.28395
3.28468
3.28512
3.28571
3.28607
3.28656
3.28685
3.28724
3.28747
3.28778
3.28796
3.28819
3.28833
3.28849
3.28858
3.28868
3.28875
3.28883
3.28888
3.28894
3.28896
3.28898
3.28897
3.28893
3.28887
3.28875
3.28863
3.28838
3.28814
3.28766
3.28719
3.28624
3.2852
3.28293
3.27988
3.27238
3.26182
3.25317
3.23739
3.2235
3.1987
3.18942
3.18685
3.18621
3.18606
2.88586
2.97419
3.01747
3.06469
3.08608
3.10931
3.12018
3.13271
3.13856
3.1453
3.14928
3.15561
3.15934
3.16514
3.16853
3.17376
3.17681
3.18149
3.18422
3.18839
3.19081
3.1945
3.19664
3.19988
3.20175
3.2046
3.20627
3.20887
3.21059
3.21368
3.21652
3.21786
3.21947
3.22033
3.22154
3.2222
3.22317
3.22371
3.2245
3.22494
3.22558
3.22594
3.22646
3.22674
3.22715
3.22737
3.22768
3.22785
3.22807
3.22818
3.22831
3.22839
3.2285
3.22856
3.22863
3.22866
3.22868
3.22867
3.22862
3.22856
3.2284
3.22825
3.22792
3.22762
3.22699
3.22642
3.22517
3.22392
3.22097
3.21728
3.20756
3.19366
3.18312
3.16226
3.14521
3.11159
3.10021
3.09724
3.09651
3.09635
2.74253
2.86057
2.91009
2.96993
2.99405
3.02343
3.03569
3.0516
3.05819
3.06669
3.07118
3.07926
3.08349
3.0909
3.09474
3.10142
3.10487
3.11086
3.11394
3.11927
3.12201
3.12673
3.12914
3.13328
3.1354
3.13904
3.14093
3.14424
3.14618
3.15007
3.15364
3.15514
3.15718
3.15816
3.1597
3.16045
3.16169
3.1623
3.16331
3.1638
3.16462
3.16503
3.16569
3.16601
3.16653
3.16678
3.16718
3.16736
3.16765
3.16777
3.16794
3.16802
3.16817
3.16824
3.16833
3.16837
3.16839
3.16838
3.16832
3.16824
3.16804
3.16787
3.16745
3.16712
3.16632
3.16568
3.1641
3.1627
3.15904
3.15493
3.1429
3.12536
3.11348
3.08697
3.06757
3.02359
3.01068
3.00754
3.0068
3.00664
2.59447
2.74969
2.80229
2.87659
2.9018
2.93824
2.95105
2.97085
2.97775
2.98823
2.99293
3.00307
3.00751
3.01681
3.02084
3.02921
3.03283
3.04034
3.04357
3.05026
3.05313
3.05905
3.06158
3.06677
3.06899
3.07355
3.07553
3.07966
3.08168
3.08648
3.09084
3.0924
3.09494
3.09596
3.09789
3.09868
3.10023
3.10087
3.10213
3.10265
3.10368
3.1041
3.10493
3.10527
3.10592
3.10618
3.10668
3.10688
3.10723
3.10736
3.10757
3.10766
3.10784
3.10791
3.10804
3.10807
3.10811
3.10809
3.10801
3.10794
3.10768
3.10751
3.10698
3.10664
3.10564
3.10497
3.10302
3.10157
3.09713
3.0929
3.07846
3.05684
3.04442
3.0114
2.99092
2.93435
2.92075
2.91775
2.91707
2.91691
2.4402
2.64292
2.69362
2.78521
2.8091
2.85399
2.86613
2.89063
2.89716
2.91
2.91446
2.92711
2.93133
2.94292
2.94676
2.95719
2.96064
2.96999
2.97307
2.9814
2.98413
2.9915
2.99391
3.00038
3.00249
3.00816
3.01004
3.01517
3.01708
3.0229
3.02816
3.02963
3.03276
3.03373
3.03612
3.03688
3.0388
3.03941
3.04098
3.04148
3.04276
3.04316
3.04419
3.04451
3.04533
3.04558
3.0462
3.04639
3.04683
3.04695
3.04721
3.04729
3.04752
3.04759
3.04774
3.04778
3.04782
3.04781
3.04771
3.04763
3.04732
3.04715
3.04651
3.04618
3.04495
3.04432
3.04193
3.04056
3.03521
3.03127
3.0143
2.98794
2.97619
2.93533
2.91571
2.84339
2.83039
2.82786
2.82731
2.82719
2.27783
2.54222
2.58331
2.69654
2.71556
2.77105
2.78072
2.81112
2.81632
2.83211
2.83566
2.85148
2.85486
2.86934
2.87241
2.88545
2.88821
2.89988
2.90235
2.91276
2.91495
2.92415
2.92608
2.93416
2.93585
2.94292
2.94443
2.9508
2.95232
2.95935
2.96562
2.96678
2.97067
2.97144
2.97442
2.97502
2.97743
2.97792
2.97988
2.98028
2.98187
2.9822
2.98348
2.98374
2.98475
2.98495
2.98573
2.98588
2.98644
2.98654
2.98685
2.98692
2.98721
2.98726
2.98745
2.98748
2.98753
2.98753
2.9874
2.98734
2.98695
2.98682
2.98602
2.98576
2.98424
2.98374
2.98079
2.97971
2.97323
2.97017
2.95052
2.91847
2.90912
2.85841
2.84261
2.75006
2.73962
2.73789
2.73753
2.73746
2.10487
2.45045
2.47012
2.61164
2.62055
2.68994
2.69448
2.73261
2.73505
2.75471
2.75637
2.77635
2.77795
2.79622
2.79767
2.81412
2.81542
2.83015
2.83131
2.84445
2.84548
2.85709
2.858
2.86819
2.86899
2.87791
2.87862
2.88663
2.88733
2.89582
2.90329
2.90383
2.9087
2.90906
2.91282
2.9131
2.91613
2.91636
2.91884
2.91903
2.92104
2.92119
2.92281
2.92293
2.92422
2.92431
2.92529
2.92536
2.92606
2.92611
2.92651
2.92654
2.9269
2.92693
2.92717
2.92718
2.92725
2.92725
2.92709
2.92707
2.92658
2.92652
2.92551
2.92539
2.92349
2.92325
2.91958
2.91908
2.91112
2.90973
2.88724
2.84808
2.84371
2.78009
2.77259
2.65345
2.6485
2.64787
2.64775
2.64772
)
;

boundaryField
{
    F1_1
    {
        type            fixedValue;
        value           nonuniform List<scalar> 
80
(
2.01167
2.41155
2.41155
2.57288
2.57288
2.65293
2.65293
2.69902
2.69902
2.72813
2.72813
2.74487
2.74487
2.76325
2.76325
2.78079
2.78079
2.79693
2.79693
2.81151
2.81151
2.8245
2.8245
2.83595
2.83595
2.84599
2.84599
2.85502
2.85502
2.86432
2.87244
2.87244
2.87794
2.87794
2.88219
2.88219
2.88562
2.88562
2.88843
2.88843
2.89071
2.89071
2.89255
2.89255
2.894
2.894
2.89511
2.89511
2.89591
2.89591
2.89636
2.89636
2.89677
2.89677
2.89704
2.89704
2.89712
2.89712
2.89694
2.89694
2.89639
2.89639
2.89524
2.89524
2.89308
2.89308
2.88892
2.88892
2.87993
2.87993
2.85594
2.8122
2.8122
2.73982
2.73982
2.60287
2.60287
2.60287
2.60287
2.60287
)
;
    }
    F1_2
    {
        type            fixedValue;
        value           nonuniform List<scalar> 
80
(
2.02671
2.44638
2.44638
2.66782
2.66782
2.81553
2.81553
2.92516
2.92516
3.00703
3.00703
3.05799
3.05799
3.11397
3.11397
3.16636
3.16636
3.21309
3.21309
3.25395
3.25395
3.28931
3.28931
3.31982
3.31982
3.34621
3.34621
3.36972
3.36972
3.39394
3.41519
3.41519
3.42975
3.42975
3.44113
3.44113
3.45042
3.45042
3.45811
3.45811
3.4645
3.4645
3.4698
3.4698
3.47416
3.47416
3.4777
3.4777
3.48043
3.48043
3.48213
3.48213
3.48399
3.48399
3.4857
3.4857
3.48718
3.48718
3.48844
3.48844
3.48948
3.48948
3.49031
3.49031
3.49085
3.49085
3.49078
3.49078
3.48878
3.48878
3.47906
3.45595
3.45595
3.40761
3.40761
3.29857
3.29857
3.29857
3.29857
3.29857
)
;
    }
    F1_3
    {
        type            fixedValue;
        value           nonuniform List<scalar> 
80
(
2.02671
2.44638
2.44638
2.66782
2.66782
2.81553
2.81553
2.92516
2.92516
3.00703
3.00703
3.05799
3.05799
3.11397
3.11397
3.16636
3.16636
3.21309
3.21309
3.25395
3.25395
3.28931
3.28931
3.31982
3.31982
3.34621
3.34621
3.36972
3.36972
3.39394
3.41519
3.41519
3.42975
3.42975
3.44113
3.44113
3.45042
3.45042
3.45811
3.45811
3.4645
3.4645
3.4698
3.4698
3.47416
3.47416
3.4777
3.4777
3.48043
3.48043
3.48213
3.48213
3.48399
3.48399
3.4857
3.4857
3.48718
3.48718
3.48844
3.48844
3.48948
3.48948
3.49031
3.49031
3.49085
3.49085
3.49078
3.49078
3.48878
3.48878
3.47907
3.45595
3.45595
3.40761
3.40761
3.29857
3.29857
3.29857
3.29857
3.29857
)
;
    }
    F1_4
    {
        type            fixedValue;
        value           nonuniform List<scalar> 
80
(
2.01143
2.41106
2.41106
2.57182
2.57182
2.65067
2.65067
2.69406
2.69406
2.71635
2.71635
2.73915
2.73915
2.75999
2.75999
2.77874
2.77874
2.79555
2.79555
2.81052
2.81052
2.82377
2.82377
2.83539
2.83539
2.84556
2.84556
2.85468
2.85468
2.86408
2.87227
2.87227
2.8778
2.8778
2.88208
2.88208
2.88554
2.88554
2.88836
2.88836
2.89066
2.89066
2.89251
2.89251
2.89397
2.89397
2.89509
2.89509
2.89589
2.89589
2.89634
2.89634
2.89676
2.89676
2.89703
2.89703
2.89711
2.89711
2.89694
2.89694
2.89638
2.89638
2.89524
2.89524
2.89308
2.89308
2.88891
2.88891
2.87993
2.87993
2.85594
2.81219
2.81219
2.73981
2.73981
2.60286
2.60286
2.60286
2.60286
2.60286
)
;
    }
    F2_1
    {
        type            fixedValue;
        value           uniform 3.5;
    }
    F2_2
    {
        type            fixedValue;
        value           uniform 3.5;
    }
    F2_3
    {
        type            fixedValue;
        value           uniform 3.5;
    }
    F2_4
    {
        type            fixedValue;
        value           uniform 3.5;
    }
    defaultFaces
    {
        type            empty;
    }
}


// ************************************************************************* //
