/*--------------------------------*- C++ -*----------------------------------*\
| =========                 |                                                 |
| \\      /  F ield         | OpenFOAM: The Open Source CFD Toolbox           |
|  \\    /   O peration     | Version:  5.x                                   |
|   \\  /    A nd           | Web:      www.OpenFOAM.org                      |
|    \\/     M anipulation  |                                                 |
\*---------------------------------------------------------------------------*/
FoamFile
{
    version     2.0;
    format      ascii;
    class       volScalarField;
    location    "13.5";
    object      T;
}
// * * * * * * * * * * * * * * * * * * * * * * * * * * * * * * * * * * * * * //

dimensions      [0 0 0 1 0 0 0];

internalField   nonuniform List<scalar> 
6300
(
322.84
322.521
322.201
321.878
321.554
321.226
320.894
320.559
320.218
319.872
319.521
319.164
318.801
318.432
318.057
322.841
322.522
322.202
321.881
321.557
321.229
320.899
320.563
320.223
319.878
319.527
319.17
318.807
318.438
318.063
322.842
322.524
322.206
321.886
321.563
321.237
320.907
320.573
320.234
319.889
319.539
319.182
318.819
318.45
318.074
322.843
322.527
322.211
321.893
321.572
321.248
320.92
320.588
320.25
319.906
319.556
319.2
318.837
318.468
318.092
322.844
322.532
322.218
321.903
321.585
321.264
320.938
320.607
320.271
319.929
319.581
319.225
318.862
318.492
318.115
322.846
322.537
322.227
321.916
321.601
321.283
320.96
320.633
320.299
319.959
319.612
319.257
318.894
318.524
318.146
322.848
322.544
322.239
321.931
321.621
321.307
320.988
320.664
320.334
319.996
319.651
319.297
318.934
318.563
318.183
322.851
322.552
322.252
321.949
321.644
321.335
321.021
320.701
320.375
320.041
319.698
319.346
318.983
318.611
318.228
322.854
322.561
322.267
321.971
321.672
321.368
321.06
320.746
320.424
320.094
319.755
319.404
319.043
318.669
318.283
322.857
322.572
322.284
321.995
321.703
321.407
321.105
320.797
320.482
320.157
319.822
319.475
319.114
318.739
318.349
322.861
322.583
322.304
322.023
321.738
321.45
321.156
320.856
320.548
320.23
319.901
319.558
319.2
318.824
318.429
322.866
322.596
322.326
322.053
321.778
321.499
321.214
320.923
320.624
320.316
319.994
319.658
319.303
318.927
318.527
322.87
322.61
322.349
322.087
321.821
321.552
321.278
320.999
320.711
320.413
320.102
319.775
319.427
319.054
318.652
322.875
322.625
322.375
322.123
321.868
321.611
321.349
321.082
320.807
320.523
320.227
319.913
319.576
319.211
318.812
322.881
322.642
322.402
322.161
321.918
321.673
321.425
321.172
320.913
320.647
320.369
320.074
319.754
319.4
319.007
317.709
317.388
317.063
316.736
316.405
316.071
315.735
315.396
315.054
314.711
314.366
314.02
313.672
313.323
312.973
312.622
312.271
311.92
311.569
311.218
310.867
310.517
310.167
309.818
309.469
309.12
308.772
308.425
308.078
307.732
307.386
307.042
306.698
306.356
306.014
305.674
305.335
304.996
304.659
304.323
303.987
303.653
303.319
302.987
302.655
302.324
301.995
301.666
301.339
301.013
300.688
300.364
300.041
299.719
299.398
299.079
298.76
298.441
298.124
297.808
297.492
297.178
296.865
296.552
296.241
295.93
295.621
295.312
295.005
294.698
294.392
294.086
293.781
293.477
293.173
292.87
292.568
292.266
291.965
291.664
291.363
291.063
290.763
290.462
290.162
289.861
289.559
289.256
288.953
288.648
317.714
317.393
317.068
316.74
316.409
316.075
315.738
315.399
315.057
314.714
314.369
314.022
313.673
313.324
312.974
312.623
312.271
311.92
311.569
311.218
310.867
310.517
310.167
309.817
309.468
309.12
308.771
308.424
308.077
307.731
307.385
307.041
306.697
306.354
306.013
305.672
305.333
304.995
304.658
304.321
303.986
303.651
303.318
302.985
302.653
302.323
301.993
301.664
301.337
301.011
300.686
300.362
300.039
299.718
299.397
299.077
298.758
298.44
298.123
297.807
297.491
297.177
296.863
296.551
296.239
295.929
295.62
295.311
295.004
294.697
294.391
294.085
293.78
293.476
293.172
292.869
292.567
292.265
291.964
291.663
291.363
291.063
290.763
290.463
290.163
289.862
289.56
289.257
288.954
288.649
317.725
317.403
317.078
316.749
316.417
316.083
315.745
315.405
315.063
314.719
314.373
314.026
313.676
313.326
312.975
312.624
312.272
311.92
311.568
311.217
310.866
310.515
310.165
309.816
309.467
309.118
308.77
308.422
308.075
307.728
307.383
307.038
306.694
306.351
306.01
305.669
305.33
304.992
304.655
304.319
303.983
303.649
303.315
302.982
302.65
302.32
301.99
301.661
301.334
301.008
300.683
300.359
300.036
299.715
299.394
299.075
298.756
298.438
298.12
297.804
297.488
297.174
296.86
296.548
296.236
295.926
295.617
295.309
295.001
294.695
294.389
294.083
293.779
293.474
293.171
292.868
292.565
292.264
291.962
291.662
291.362
291.063
290.763
290.464
290.164
289.864
289.562
289.26
288.957
288.652
317.741
317.419
317.093
316.763
316.43
316.094
315.756
315.415
315.072
314.727
314.38
314.031
313.681
313.33
312.978
312.625
312.272
311.92
311.567
311.215
310.864
310.513
310.163
309.814
309.465
309.116
308.768
308.42
308.072
307.725
307.379
307.034
306.689
306.346
306.005
305.664
305.325
304.988
304.651
304.315
303.98
303.645
303.311
302.978
302.646
302.315
301.985
301.656
301.328
301.002
300.678
300.354
300.032
299.711
299.391
299.071
298.752
298.434
298.117
297.8
297.484
297.169
296.856
296.543
296.232
295.922
295.613
295.305
294.998
294.692
294.386
294.081
293.776
293.472
293.168
292.865
292.563
292.261
291.96
291.66
291.361
291.062
290.764
290.465
290.166
289.867
289.566
289.264
288.961
288.656
317.764
317.44
317.112
316.781
316.447
316.11
315.77
315.428
315.084
314.738
314.389
314.039
313.688
313.335
312.981
312.627
312.273
311.919
311.565
311.213
310.861
310.511
310.161
309.811
309.462
309.114
308.765
308.417
308.068
307.721
307.374
307.028
306.683
306.34
305.998
305.658
305.319
304.982
304.645
304.31
303.975
303.64
303.306
302.973
302.64
302.309
301.978
301.649
301.321
300.995
300.671
300.348
300.026
299.705
299.386
299.066
298.748
298.429
298.112
297.795
297.478
297.163
296.849
296.537
296.226
295.916
295.608
295.3
294.994
294.688
294.383
294.078
293.773
293.468
293.164
292.861
292.559
292.257
291.957
291.657
291.359
291.061
290.764
290.467
290.17
289.872
289.572
289.271
288.968
288.663
317.792
317.466
317.137
316.803
316.467
316.128
315.787
315.444
315.099
314.751
314.401
314.05
313.696
313.341
312.985
312.629
312.273
311.917
311.562
311.209
310.857
310.507
310.157
309.808
309.459
309.111
308.762
308.413
308.064
307.715
307.367
307.02
306.675
306.331
305.989
305.649
305.311
304.974
304.639
304.304
303.969
303.635
303.301
302.967
302.633
302.301
301.969
301.64
301.312
300.986
300.662
300.339
300.019
299.699
299.38
299.061
298.742
298.424
298.106
297.788
297.471
297.155
296.841
296.528
296.217
295.908
295.601
295.294
294.988
294.683
294.379
294.074
293.769
293.464
293.16
292.856
292.553
292.252
291.952
291.653
291.356
291.06
290.765
290.47
290.174
289.878
289.58
289.28
288.977
288.672
317.827
317.499
317.166
316.83
316.492
316.151
315.808
315.463
315.117
314.768
314.416
314.063
313.707
313.349
312.99
312.63
312.271
311.914
311.558
311.204
310.852
310.502
310.153
309.805
309.457
309.108
308.759
308.409
308.059
307.709
307.359
307.01
306.664
306.319
305.977
305.638
305.301
304.965
304.631
304.297
303.963
303.629
303.294
302.96
302.625
302.291
301.958
301.628
301.299
300.974
300.65
300.329
300.01
299.691
299.373
299.055
298.737
298.418
298.099
297.781
297.462
297.146
296.83
296.517
296.207
295.898
295.592
295.287
294.982
294.679
294.375
294.07
293.765
293.46
293.155
292.85
292.546
292.244
291.944
291.647
291.351
291.057
290.765
290.473
290.18
289.887
289.591
289.293
288.991
288.685
317.869
317.537
317.201
316.861
316.519
316.176
315.831
315.485
315.138
314.788
314.435
314.079
313.72
313.358
312.995
312.631
312.269
311.908
311.55
311.195
310.843
310.494
310.147
309.801
309.454
309.107
308.758
308.407
308.054
307.701
307.349
306.998
306.649
306.304
305.962
305.624
305.288
304.955
304.623
304.291
303.958
303.624
303.289
302.952
302.615
302.279
301.944
301.612
301.283
300.958
300.636
300.316
299.999
299.683
299.367
299.05
298.732
298.413
298.093
297.772
297.452
297.133
296.817
296.503
296.193
295.886
295.581
295.278
294.976
294.674
294.371
294.067
293.762
293.456
293.149
292.842
292.537
292.234
291.934
291.637
291.344
291.053
290.764
290.476
290.188
289.899
289.607
289.31
289.009
288.703
317.919
317.582
317.24
316.895
316.549
316.202
315.856
315.51
315.162
314.812
314.458
314.099
313.737
313.37
313.001
312.631
312.263
311.898
311.537
311.182
310.831
310.485
310.141
309.797
309.453
309.107
308.758
308.406
308.051
307.694
307.337
306.982
306.63
306.283
305.942
305.605
305.273
304.943
304.614
304.285
303.954
303.621
303.284
302.946
302.605
302.265
301.927
301.592
301.262
300.937
300.617
300.301
299.987
299.674
299.361
299.046
298.729
298.409
298.087
297.763
297.439
297.117
296.799
296.484
296.174
295.869
295.567
295.268
294.969
294.67
294.37
294.066
293.76
293.452
293.142
292.832
292.524
292.219
291.919
291.623
291.332
291.046
290.762
290.48
290.198
289.915
289.628
289.335
289.035
288.728
317.978
317.634
317.283
316.931
316.579
316.229
315.882
315.536
315.19
314.841
314.487
314.126
313.759
313.385
313.008
312.629
312.252
311.881
311.518
311.162
310.814
310.471
310.133
309.795
309.456
309.112
308.764
308.409
308.049
307.686
307.322
306.96
306.604
306.256
305.915
305.581
305.253
304.929
304.606
304.282
303.954
303.622
303.284
302.941
302.595
302.248
301.904
301.566
301.234
300.91
300.593
300.281
299.973
299.666
299.358
299.046
298.73
298.409
298.083
297.754
297.424
297.097
296.774
296.459
296.15
295.848
295.55
295.257
294.964
294.669
294.372
294.069
293.762
293.45
293.135
292.82
292.507
292.198
291.897
291.602
291.315
291.034
290.757
290.484
290.211
289.936
289.656
289.37
289.073
288.764
318.049
317.693
317.33
316.965
316.605
316.252
315.906
315.564
315.222
314.877
314.525
314.163
313.79
313.407
313.016
312.623
312.234
311.854
311.486
311.131
310.787
310.453
310.123
309.795
309.463
309.125
308.778
308.42
308.053
307.679
307.303
306.931
306.568
306.216
305.877
305.548
305.228
304.914
304.6
304.284
303.962
303.631
303.29
302.941
302.585
302.228
301.874
301.529
301.195
300.873
300.561
300.257
299.958
299.66
299.36
299.053
298.739
298.415
298.083
297.745
297.405
297.069
296.741
296.423
296.116
295.818
295.529
295.244
294.96
294.673
294.38
294.08
293.771
293.453
293.129
292.804
292.482
292.168
291.864
291.571
291.289
291.015
290.749
290.487
290.226
289.964
289.696
289.419
289.126
288.816
318.137
317.764
317.377
316.994
316.621
316.265
315.923
315.59
315.26
314.924
314.578
314.216
313.836
313.439
313.028
312.611
312.203
311.81
311.437
311.084
310.748
310.426
310.112
309.8
309.481
309.151
308.807
308.445
308.067
307.675
307.279
306.889
306.515
306.16
305.823
305.503
305.196
304.897
304.599
304.295
303.981
303.653
303.309
302.95
302.578
302.201
301.832
301.477
301.14
300.82
300.516
300.225
299.941
299.658
299.37
299.072
298.76
298.434
298.092
297.739
297.381
297.03
296.692
296.372
296.067
295.778
295.501
295.23
294.96
294.685
294.401
294.103
293.791
293.464
293.126
292.783
292.446
292.123
291.815
291.524
291.249
290.987
290.734
290.487
290.243
289.999
289.75
289.489
289.206
288.894
318.251
317.852
317.421
317.006
316.615
316.258
315.925
315.613
315.306
314.987
314.653
314.293
313.908
313.49
313.049
312.588
312.149
311.737
311.36
311.011
310.689
310.387
310.1
309.813
309.514
309.199
308.859
308.495
308.099
307.68
307.243
306.826
306.435
306.077
305.745
305.439
305.151
304.878
304.605
304.321
304.021
303.698
303.351
302.976
302.578
302.164
301.769
301.398
301.059
300.745
300.455
300.182
299.922
299.664
299.394
299.11
298.803
298.474
298.118
297.74
297.347
296.972
296.619
296.297
295.998
295.722
295.462
295.215
294.968
294.711
294.44
294.147
293.833
293.492
293.13
292.753
292.392
292.054
291.743
291.456
291.191
290.944
290.711
290.485
290.259
290.041
289.823
289.591
289.328
289.015
318.414
317.987
317.442
316.982
316.56
316.215
315.899
315.63
315.368
315.072
314.765
314.405
314.027
313.576
313.097
312.533
312.056
311.613
311.244
310.897
310.604
310.327
310.085
309.845
309.571
309.283
308.946
308.589
308.164
307.711
307.177
306.726
306.307
305.957
305.629
305.35
305.087
304.857
304.629
304.368
304.095
303.775
303.436
303.033
302.603
302.098
301.672
301.275
300.944
300.633
300.369
300.12
299.902
299.686
299.439
299.18
298.876
298.555
298.173
297.765
297.286
296.881
296.504
296.189
295.893
295.643
295.405
295.198
294.992
294.757
294.51
294.22
293.914
293.548
293.157
292.697
292.307
291.943
291.639
291.353
291.11
290.879
290.679
290.482
290.265
290.082
289.915
289.739
289.52
289.218
318.67
318.289
317.339
316.903
316.395
316.131
315.803
315.638
315.478
315.175
314.95
314.546
314.25
313.705
313.266
312.351
311.916
311.382
311.094
310.708
310.495
310.214
310.069
309.925
309.647
309.438
309.062
308.783
308.27
307.856
306.993
306.582
306.078
305.806
305.441
305.239
304.973
304.835
304.698
304.435
304.236
303.879
303.615
303.128
302.736
301.921
301.532
301.056
300.799
300.454
300.263
300.012
299.881
299.751
299.502
299.314
298.975
298.725
298.264
297.893
297.119
296.75
296.298
296.053
295.725
295.544
295.305
295.181
295.057
294.82
294.641
294.319
294.08
293.641
293.285
292.541
292.185
291.747
291.509
291.188
291.01
290.77
290.644
290.509
290.22
290.099
290.023
289.947
289.835
289.607
288.312
287.945
287.576
287.207
286.838
286.469
286.1
285.732
285.365
284.999
284.634
284.269
283.906
283.543
283.181
288.313
287.946
287.577
287.207
286.838
286.468
286.099
285.731
285.364
284.998
284.633
284.269
283.905
283.543
283.181
288.316
287.947
287.578
287.208
286.837
286.467
286.098
285.729
285.362
284.995
284.631
284.267
283.904
283.542
283.181
288.32
287.95
287.58
287.208
286.837
286.465
286.095
285.726
285.358
284.992
284.627
284.264
283.902
283.541
283.18
288.325
287.955
287.582
287.209
286.836
286.463
286.091
285.721
285.353
284.987
284.623
284.26
283.899
283.539
283.18
288.333
287.961
287.586
287.21
286.834
286.459
286.086
285.715
285.346
284.98
284.617
284.255
283.895
283.537
283.179
288.345
287.969
287.591
287.211
286.832
286.454
286.079
285.706
285.337
284.971
284.608
284.248
283.89
283.533
283.178
288.36
287.981
287.597
287.212
286.828
286.446
286.068
285.694
285.324
284.959
284.597
284.239
283.883
283.529
283.176
288.382
287.996
287.605
287.212
286.821
286.434
286.053
285.678
285.308
284.943
284.583
284.227
283.875
283.524
283.174
288.412
288.016
287.613
287.21
286.811
286.418
286.033
285.655
285.286
284.923
284.565
284.213
283.864
283.517
283.172
288.455
288.043
287.623
287.204
286.793
286.393
286.004
285.626
285.257
284.896
284.543
284.194
283.85
283.509
283.169
288.517
288.077
287.63
287.191
286.766
286.357
285.965
285.586
285.22
284.863
284.515
284.172
283.834
283.499
283.166
288.608
288.12
287.631
287.163
286.721
286.305
285.911
285.535
285.173
284.822
284.48
284.145
283.815
283.487
283.162
288.742
288.162
287.61
287.108
286.651
286.232
285.84
285.47
285.115
284.773
284.44
284.113
283.792
283.474
283.158
288.937
288.178
287.54
287.007
286.545
286.13
285.748
285.388
285.045
284.714
284.392
284.076
283.766
283.458
283.153
322.886
322.657
322.428
322.198
321.966
321.733
321.498
321.26
321.018
320.77
320.514
320.244
319.95
319.607
319.161
322.89
322.671
322.452
322.232
322.011
321.79
321.567
321.343
321.117
320.888
320.655
320.415
320.161
319.866
319.421
322.895
322.686
322.476
322.267
322.057
321.847
321.637
321.427
321.218
321.009
320.801
320.597
320.4
320.227
320.165
322.9
322.7
322.501
322.301
322.102
321.904
321.707
321.511
321.318
321.129
320.946
320.774
320.622
320.51
320.468
322.905
322.715
322.525
322.336
322.147
321.961
321.776
321.593
321.416
321.244
321.082
320.936
320.817
320.745
320.764
322.91
322.729
322.549
322.37
322.192
322.016
321.842
321.673
321.509
321.352
321.208
321.08
320.978
320.916
320.902
322.914
322.743
322.572
322.403
322.235
322.069
321.907
321.749
321.597
321.453
321.321
321.205
321.113
321.054
321.046
322.919
322.756
322.595
322.434
322.276
322.12
321.968
321.82
321.679
321.546
321.423
321.315
321.225
321.156
321.112
322.923
322.769
322.616
322.465
322.315
322.168
322.025
321.887
321.755
321.631
321.516
321.412
321.321
321.242
321.165
322.927
322.782
322.637
322.494
322.353
322.214
322.08
321.95
321.826
321.709
321.6
321.5
321.409
321.327
321.254
322.931
322.793
322.657
322.521
322.388
322.258
322.131
322.009
321.892
321.782
321.678
321.581
321.491
321.404
321.312
322.935
322.804
322.675
322.547
322.422
322.299
322.179
322.064
321.954
321.85
321.751
321.659
321.571
321.486
321.407
322.938
322.815
322.693
322.572
322.453
322.337
322.225
322.116
322.012
321.914
321.821
321.733
321.648
321.564
321.469
322.942
322.825
322.709
322.595
322.483
322.373
322.267
322.165
322.067
321.974
321.887
321.804
321.725
321.649
321.574
322.945
322.834
322.725
322.616
322.51
322.407
322.306
322.21
322.118
322.031
321.949
321.873
321.801
321.732
321.651
322.948
322.843
322.739
322.637
322.536
322.438
322.343
322.252
322.165
322.084
322.007
321.938
321.876
321.825
321.801
322.95
322.851
322.753
322.655
322.56
322.467
322.378
322.291
322.21
322.133
322.062
321.997
321.942
321.899
321.869
322.953
322.859
322.765
322.673
322.583
322.495
322.409
322.328
322.25
322.178
322.111
322.051
322.001
321.962
321.945
322.955
322.866
322.777
322.689
322.603
322.52
322.439
322.361
322.288
322.219
322.155
322.099
322.05
322.012
321.983
322.957
322.872
322.788
322.704
322.623
322.543
322.466
322.392
322.322
322.256
322.195
322.14
322.093
322.055
322.03
322.959
322.878
322.798
322.718
322.64
322.564
322.491
322.42
322.353
322.289
322.23
322.176
322.129
322.089
322.055
322.961
322.884
322.807
322.731
322.657
322.584
322.514
322.446
322.381
322.319
322.262
322.209
322.16
322.118
322.084
322.963
322.889
322.816
322.743
322.672
322.602
322.535
322.469
322.407
322.347
322.29
322.237
322.188
322.141
322.099
322.965
322.894
322.824
322.754
322.686
322.619
322.554
322.491
322.431
322.372
322.316
322.263
322.212
322.163
322.111
322.966
322.898
322.831
322.765
322.699
322.635
322.572
322.512
322.453
322.396
322.341
322.288
322.236
322.185
322.135
322.967
322.903
322.838
322.774
322.711
322.65
322.589
322.531
322.473
322.418
322.364
322.311
322.259
322.207
322.151
322.969
322.907
322.845
322.783
322.723
322.663
322.605
322.548
322.493
322.439
322.386
322.335
322.283
322.231
322.179
322.97
322.91
322.851
322.792
322.734
322.676
322.62
322.565
322.512
322.459
322.408
322.358
322.307
322.255
322.199
322.971
322.914
322.856
322.8
322.744
322.688
322.634
322.581
322.529
322.479
322.429
322.381
322.332
322.283
322.233
322.972
322.917
322.862
322.807
322.753
322.7
322.647
322.596
322.546
322.497
322.45
322.403
322.358
322.312
322.26
322.973
322.92
322.867
322.814
322.762
322.71
322.66
322.61
322.562
322.515
322.47
322.425
322.383
322.344
322.313
322.974
322.923
322.871
322.82
322.77
322.72
322.672
322.624
322.577
322.532
322.488
322.446
322.407
322.371
322.338
322.975
322.925
322.876
322.827
322.778
322.73
322.683
322.637
322.592
322.548
322.506
322.466
322.428
322.394
322.368
322.976
322.928
322.88
322.832
322.785
322.739
322.693
322.648
322.605
322.562
322.522
322.483
322.447
322.413
322.383
322.977
322.93
322.884
322.838
322.792
322.747
322.703
322.66
322.617
322.576
322.536
322.499
322.463
322.43
322.403
322.977
322.932
322.887
322.843
322.799
322.755
322.712
322.67
322.629
322.589
322.55
322.513
322.477
322.444
322.413
322.978
322.934
322.891
322.848
322.805
322.762
322.721
322.68
322.639
322.6
322.562
322.525
322.49
322.457
322.426
322.979
322.936
322.894
322.852
322.811
322.769
322.729
322.689
322.65
322.611
322.574
322.537
322.501
322.467
322.433
322.979
322.938
322.897
322.856
322.816
322.776
322.736
322.697
322.659
322.621
322.584
322.548
322.512
322.476
322.439
322.98
322.94
322.9
322.86
322.821
322.782
322.744
322.706
322.668
322.631
322.595
322.559
322.523
322.487
322.45
322.981
322.942
322.903
322.864
322.826
322.788
322.751
322.714
322.677
322.641
322.605
322.569
322.534
322.497
322.458
322.981
322.943
322.905
322.868
322.831
322.794
322.757
322.721
322.685
322.65
322.615
322.58
322.545
322.509
322.473
322.982
322.945
322.908
322.871
322.835
322.799
322.763
322.728
322.693
322.659
322.625
322.591
322.557
322.521
322.483
322.982
322.946
322.91
322.875
322.839
322.804
322.769
322.735
322.701
322.668
322.635
322.602
322.569
322.536
322.502
322.982
322.947
322.912
322.878
322.843
322.809
322.775
322.742
322.709
322.677
322.645
322.613
322.582
322.551
322.516
322.983
322.949
322.914
322.88
322.847
322.813
322.78
322.748
322.716
322.685
322.654
322.624
322.595
322.568
322.545
322.983
322.95
322.916
322.883
322.85
322.818
322.786
322.754
322.723
322.693
322.663
322.635
322.607
322.582
322.558
322.984
322.951
322.918
322.886
322.853
322.822
322.79
322.759
322.729
322.7
322.671
322.644
322.618
322.594
322.574
322.984
322.952
322.92
322.888
322.856
322.825
322.795
322.765
322.735
322.706
322.679
322.652
322.627
322.604
322.583
322.984
322.953
322.921
322.89
322.859
322.829
322.799
322.769
322.74
322.712
322.686
322.66
322.635
322.613
322.593
322.984
322.953
322.922
322.892
322.861
322.831
322.802
322.773
322.745
322.718
322.691
322.666
322.642
322.62
322.598
322.985
322.954
322.924
322.893
322.864
322.834
322.805
322.777
322.749
322.722
322.696
322.672
322.648
322.626
322.605
322.985
322.955
322.925
322.895
322.865
322.836
322.808
322.78
322.753
322.726
322.701
322.676
322.653
322.63
322.608
322.985
322.955
322.925
322.896
322.867
322.838
322.81
322.783
322.756
322.73
322.705
322.68
322.657
322.634
322.611
322.985
322.956
322.926
322.897
322.868
322.84
322.812
322.785
322.758
322.733
322.708
322.684
322.66
322.638
322.616
322.985
322.956
322.927
322.898
322.869
322.841
322.813
322.786
322.76
322.735
322.71
322.687
322.664
322.641
322.619
322.985
322.956
322.927
322.898
322.869
322.842
322.814
322.787
322.762
322.737
322.712
322.689
322.667
322.645
322.624
322.985
322.956
322.927
322.898
322.87
322.842
322.815
322.788
322.762
322.738
322.714
322.691
322.669
322.648
322.627
322.985
322.956
322.927
322.898
322.869
322.842
322.814
322.788
322.763
322.738
322.715
322.692
322.671
322.65
322.631
322.985
322.956
322.926
322.897
322.869
322.841
322.814
322.788
322.762
322.738
322.715
322.692
322.672
322.652
322.633
322.985
322.955
322.926
322.897
322.868
322.84
322.813
322.786
322.761
322.737
322.714
322.692
322.672
322.653
322.636
322.985
322.955
322.925
322.895
322.866
322.838
322.811
322.784
322.759
322.735
322.712
322.691
322.671
322.652
322.636
322.985
322.954
322.924
322.894
322.864
322.836
322.808
322.782
322.756
322.732
322.71
322.688
322.669
322.651
322.634
322.984
322.953
322.922
322.892
322.862
322.833
322.805
322.778
322.753
322.729
322.706
322.685
322.666
322.648
322.632
322.984
322.952
322.92
322.889
322.859
322.829
322.801
322.774
322.748
322.724
322.701
322.681
322.662
322.644
322.628
322.984
322.951
322.918
322.886
322.855
322.825
322.796
322.768
322.742
322.718
322.695
322.675
322.656
322.64
322.625
322.983
322.949
322.916
322.883
322.851
322.82
322.79
322.762
322.735
322.71
322.688
322.668
322.65
322.634
322.619
322.982
322.947
322.913
322.879
322.846
322.814
322.783
322.754
322.727
322.702
322.679
322.659
322.642
322.627
322.615
322.982
322.945
322.91
322.874
322.84
322.807
322.775
322.745
322.717
322.691
322.668
322.648
322.632
322.619
322.61
322.981
322.943
322.906
322.869
322.833
322.799
322.766
322.735
322.706
322.679
322.656
322.635
322.619
322.607
322.599
322.98
322.941
322.901
322.863
322.826
322.79
322.755
322.723
322.692
322.665
322.64
322.62
322.603
322.592
322.588
322.979
322.938
322.897
322.856
322.817
322.779
322.743
322.709
322.677
322.648
322.623
322.601
322.584
322.573
322.568
322.978
322.934
322.891
322.849
322.808
322.768
322.73
322.694
322.66
322.63
322.602
322.579
322.561
322.55
322.549
322.977
322.931
322.885
322.841
322.797
322.755
322.715
322.677
322.641
322.609
322.579
322.554
322.533
322.519
322.513
322.976
322.927
322.879
322.832
322.786
322.741
322.699
322.658
322.621
322.585
322.553
322.525
322.5
322.482
322.478
322.974
322.923
322.872
322.822
322.773
322.726
322.681
322.638
322.598
322.56
322.525
322.493
322.463
322.436
322.402
322.973
322.918
322.864
322.811
322.76
322.71
322.662
322.616
322.573
322.532
322.494
322.459
322.426
322.393
322.362
322.971
322.913
322.856
322.8
322.745
322.692
322.641
322.592
322.546
322.503
322.462
322.424
322.387
322.35
322.307
322.969
322.908
322.847
322.787
322.729
322.673
322.619
322.567
322.518
322.472
322.429
322.388
322.349
322.31
322.275
322.967
322.902
322.837
322.774
322.712
322.652
322.594
322.539
322.488
322.439
322.393
322.35
322.31
322.269
322.225
322.965
322.896
322.827
322.759
322.693
322.629
322.568
322.51
322.455
322.404
322.356
322.312
322.27
322.231
322.195
322.963
322.889
322.816
322.744
322.673
322.605
322.54
322.478
322.42
322.366
322.316
322.271
322.229
322.19
322.149
322.96
322.882
322.804
322.727
322.652
322.579
322.509
322.443
322.382
322.325
322.273
322.227
322.187
322.152
322.123
322.958
322.874
322.79
322.709
322.628
322.551
322.476
322.406
322.34
322.28
322.227
322.18
322.14
322.109
322.091
322.955
322.865
322.777
322.689
322.603
322.52
322.441
322.365
322.295
322.231
322.175
322.128
322.089
322.056
322.016
322.952
322.857
322.762
322.668
322.577
322.488
322.402
322.321
322.245
322.177
322.118
322.069
322.033
322.007
321.984
322.949
322.847
322.746
322.646
322.548
322.452
322.36
322.272
322.191
322.117
322.053
322.003
321.969
321.955
321.96
322.946
322.837
322.729
322.623
322.518
322.415
322.315
322.22
322.131
322.049
321.979
321.924
321.892
321.891
321.931
322.942
322.827
322.712
322.598
322.486
322.375
322.267
322.163
322.065
321.974
321.894
321.831
321.794
321.8
321.878
322.939
322.816
322.694
322.573
322.452
322.333
322.217
322.103
321.994
321.891
321.797
321.719
321.665
321.658
321.758
289.142
288.08
287.381
286.849
286.403
286.007
285.642
285.298
284.97
284.652
284.342
284.038
283.739
283.442
283.147
288.768
287.74
287.12
286.646
286.24
285.874
285.531
285.206
284.893
284.59
284.293
284.001
283.712
283.426
283.142
287.291
287.115
286.759
286.396
286.051
285.723
285.409
285.106
284.811
284.523
284.24
283.961
283.684
283.41
283.136
286.71
286.617
286.401
286.133
285.849
285.562
285.279
284.999
284.724
284.453
284.184
283.919
283.655
283.392
283.131
286.16
286.203
286.08
285.881
285.648
285.4
285.146
284.89
284.635
284.38
284.127
283.875
283.624
283.374
283.125
285.912
285.905
285.811
285.654
285.458
285.242
285.014
284.781
284.544
284.307
284.069
283.831
283.593
283.356
283.119
285.654
285.666
285.587
285.453
285.283
285.091
284.886
284.673
284.455
284.234
284.011
283.787
283.562
283.337
283.112
285.538
285.491
285.401
285.276
285.123
284.95
284.764
284.569
284.367
284.162
283.953
283.743
283.531
283.319
283.106
285.446
285.344
285.241
285.118
284.976
284.819
284.648
284.469
284.283
284.092
283.897
283.7
283.501
283.301
283.1
285.288
285.199
285.093
284.974
284.841
284.696
284.539
284.374
284.202
284.024
283.842
283.658
283.471
283.283
283.095
285.185
285.065
284.955
284.839
284.715
284.58
284.436
284.283
284.124
283.959
283.79
283.618
283.443
283.266
283.089
285.017
284.923
284.82
284.711
284.596
284.471
284.338
284.198
284.05
283.897
283.74
283.579
283.415
283.25
283.083
284.907
284.789
284.689
284.588
284.482
284.368
284.246
284.117
283.981
283.839
283.692
283.542
283.389
283.234
283.078
284.722
284.642
284.558
284.469
284.374
284.271
284.159
284.041
283.915
283.783
283.647
283.507
283.364
283.219
283.073
284.589
284.499
284.429
284.355
284.272
284.179
284.078
283.969
283.853
283.731
283.605
283.474
283.341
283.205
283.069
284.329
284.341
284.304
284.246
284.176
284.094
284.002
283.902
283.795
283.682
283.565
283.443
283.319
283.192
283.064
284.213
284.216
284.192
284.148
284.087
284.014
283.932
283.84
283.742
283.637
283.528
283.414
283.298
283.18
283.06
284.086
284.109
284.096
284.06
284.008
283.943
283.867
283.783
283.692
283.595
283.493
283.387
283.279
283.168
283.056
284.023
284.028
284.015
283.984
283.937
283.878
283.809
283.731
283.647
283.556
283.461
283.363
283.261
283.157
283.053
283.949
283.96
283.947
283.918
283.874
283.82
283.756
283.684
283.605
283.521
283.432
283.34
283.245
283.148
283.049
283.911
283.907
283.891
283.861
283.82
283.769
283.709
283.641
283.568
283.489
283.406
283.319
283.23
283.139
283.046
283.868
283.863
283.844
283.813
283.773
283.723
283.667
283.603
283.534
283.46
283.382
283.3
283.216
283.13
283.044
283.847
283.829
283.804
283.772
283.731
283.683
283.629
283.569
283.503
283.433
283.36
283.283
283.204
283.123
283.041
283.83
283.801
283.77
283.736
283.695
283.648
283.596
283.538
283.476
283.41
283.34
283.267
283.193
283.116
283.039
283.801
283.772
283.74
283.703
283.662
283.617
283.566
283.511
283.451
283.388
283.322
283.253
283.182
283.11
283.037
283.782
283.747
283.712
283.674
283.634
283.589
283.54
283.486
283.43
283.369
283.306
283.241
283.173
283.105
283.035
283.752
283.72
283.685
283.648
283.608
283.563
283.516
283.465
283.41
283.352
283.292
283.229
283.165
283.1
283.033
283.733
283.696
283.661
283.624
283.584
283.541
283.495
283.445
283.392
283.337
283.279
283.219
283.158
283.095
283.032
283.703
283.671
283.637
283.601
283.562
283.521
283.476
283.428
283.377
283.323
283.268
283.21
283.151
283.091
283.03
283.682
283.648
283.615
283.581
283.543
283.502
283.459
283.412
283.363
283.311
283.258
283.202
283.145
283.088
283.029
283.643
283.623
283.595
283.562
283.526
283.486
283.444
283.399
283.351
283.301
283.249
283.195
283.14
283.085
283.028
283.626
283.605
283.578
283.546
283.511
283.472
283.431
283.387
283.34
283.292
283.241
283.189
283.136
283.082
283.027
283.61
283.59
283.564
283.533
283.498
283.46
283.42
283.376
283.331
283.284
283.234
283.184
283.132
283.08
283.027
283.603
283.58
283.553
283.522
283.487
283.45
283.41
283.368
283.323
283.277
283.229
283.179
283.129
283.078
283.026
283.596
283.572
283.544
283.513
283.479
283.442
283.403
283.361
283.317
283.271
283.224
283.176
283.126
283.076
283.025
283.593
283.567
283.538
283.507
283.472
283.436
283.396
283.355
283.312
283.267
283.22
283.173
283.124
283.075
283.025
283.591
283.564