/*--------------------------------*- C++ -*----------------------------------*\
| =========                 |                                                 |
| \\      /  F ield         | OpenFOAM: The Open Source CFD Toolbox           |
|  \\    /   O peration     | Version:  5.x                                   |
|   \\  /    A nd           | Web:      www.OpenFOAM.org                      |
|    \\/     M anipulation  |                                                 |
\*---------------------------------------------------------------------------*/
FoamFile
{
    version     2.0;
    format      ascii;
    class       volScalarField;
    location    "6.7";
    object      T;
}
// * * * * * * * * * * * * * * * * * * * * * * * * * * * * * * * * * * * * * //

dimensions      [0 0 0 1 0 0 0];

internalField   nonuniform List<scalar> 
3200
(
2.08496
2.43611
2.45614
2.60099
2.61016
2.68248
2.6873
2.72915
2.73203
2.75854
2.7603
2.77562
2.77697
2.79369
2.79505
2.81101
2.81228
2.82696
2.82813
2.84139
2.84244
2.85427
2.8552
2.86566
2.86648
2.87568
2.87641
2.8847
2.88543
2.8942
2.9019
2.90246
2.90743
2.9078
2.9116
2.91189
2.91493
2.91516
2.91762
2.91781
2.91982
2.91998
2.92161
2.92174
2.92306
2.92316
2.92421
2.92428
2.92507
2.92512
2.92559
2.92562
2.92609
2.92613
2.92649
2.92651
2.92671
2.92672
2.92668
2.92666
2.92629
2.92624
2.92535
2.92523
2.92343
2.9232
2.91961
2.91911
2.9112
2.90982
2.88732
2.84807
2.84369
2.77988
2.77236
2.65302
2.64807
2.64744
2.64732
2.64729
2.26043
2.5291
2.57095
2.68683
2.7064
2.76423
2.7745
2.80786
2.81397
2.83504
2.83879
2.85108
2.85394
2.86718
2.87006
2.8827
2.8854
2.89703
2.8995
2.91002
2.91224
2.92162
2.92359
2.93188
2.93362
2.94091
2.94247
2.94906
2.95063
2.95789
2.96436
2.96556
2.96953
2.97031
2.97333
2.97394
2.97635
2.97684
2.97879
2.97919
2.98079
2.98111
2.98241
2.98267
2.98372
2.98393
2.98476
2.98492
2.98554
2.98565
2.98603
2.98611
2.98648
2.98655
2.98684
2.98689
2.98704
2.98706
2.98703
2.98699
2.9867
2.98658
2.98587
2.98562
2.98418
2.98369
2.98081
2.97975
2.97331
2.97025
2.95059
2.91846
2.90909
2.85823
2.84241
2.7497
2.73924
2.73751
2.73715
2.73707
2.42515
2.63115
2.68279
2.77652
2.8011
2.84788
2.86078
2.88766
2.89532
2.91224
2.91694
2.92691
2.9305
2.94107
2.94468
2.95478
2.95817
2.96747
2.97056
2.97897
2.98175
2.98926
2.99172
2.99836
3.00053
3.00638
3.00832
3.01362
3.0156
3.02162
3.02703
3.02854
3.03175
3.03273
3.03515
3.03591
3.03785
3.03846
3.04002
3.04052
3.0418
3.0422
3.04324
3.04357
3.04441
3.04467
3.04534
3.04554
3.04603
3.04617
3.04648
3.04658
3.04688
3.04697
3.0472
3.04726
3.04738
3.0474
3.04737
3.04733
3.04709
3.04695
3.04637
3.04606
3.0449
3.04428
3.04194
3.04059
3.03527
3.03134
3.01436
2.98794
2.97616
2.93518
2.91552
2.84308
2.83006
2.82752
2.82697
2.82685
2.58163
2.73938
2.79295
2.86897
2.89492
2.93289
2.94649
2.96823
2.9763
2.98993
2.99488
3.003
3.00678
3.01525
3.01903
3.02714
3.03069
3.03816
3.0414
3.04816
3.05107
3.0571
3.05969
3.06501
3.0673
3.07199
3.07404
3.07831
3.08041
3.08536
3.08986
3.09147
3.09406
3.0951
3.09705
3.09784
3.0994
3.10004
3.1013
3.10182
3.10285
3.10327
3.10411
3.10445
3.10513
3.1054
3.10594
3.10615
3.10654
3.10669
3.10694
3.10705
3.10728
3.10738
3.10756
3.10762
3.10772
3.10774
3.10772
3.10767
3.10748
3.10733
3.10686
3.10654
3.10559
3.10494
3.10304
3.1016
3.09718
3.09296
3.0785
3.05683
3.04439
3.01128
2.99075
2.93409
2.92046
2.91745
2.91677
2.91662
2.7318
2.85178
2.90221
2.96343
2.98826
3.01888
3.03189
3.04935
3.05705
3.06796
3.0727
3.07926
3.08287
3.08962
3.09322
3.09968
3.10306
3.10902
3.11211
3.11749
3.12027
3.12508
3.12754
3.13179
3.13397
3.13772
3.13967
3.1431
3.1451
3.14913
3.15281
3.15435
3.15644
3.15743
3.15898
3.15974
3.16098
3.1616
3.1626
3.1631
3.16392
3.16432
3.16499
3.16532
3.16586
3.16612
3.16655
3.16675
3.16706
3.1672
3.1674
3.16751
3.16769
3.16778
3.16793
3.16799
3.16807
3.16809
3.16807
3.16802
3.16787
3.16772
3.16735
3.16704
3.16628
3.16566
3.16411
3.16272
3.15909
3.15498
3.14293
3.12536
3.11345
3.08687
3.06743
3.02337
3.01043
3.00729
3.00655
3.00639
2.87718
2.96696
3.01104
3.05935
3.08137
3.10556
3.1171
3.13086
3.13767
3.14625
3.15044
3.15564
3.15883
3.16411
3.16729
3.17234
3.17533
3.17999
3.18272
3.18693
3.18939
3.19315
3.19533
3.19866
3.20058
3.20352
3.20524
3.20793
3.20971
3.21291
3.21583
3.21721
3.21885
3.21973
3.22095
3.22163
3.2226
3.22314
3.22393
3.22437
3.22501
3.22536
3.22589
3.22618
3.2266
3.22683
3.22716
3.22734
3.22759
3.22771
3.22787
3.22796
3.22811
3.22819
3.2283
3.22836
3.22842
3.22843
3.22842
3.22838
3.22825
3.22813
3.22783
3.22756
3.22696
3.2264
3.22517
3.22394
3.22101
3.21732
3.20758
3.19366
3.18309
3.16218
3.14509
3.11141
3.10002
3.09704
3.09631
3.09615
3.01896
3.08397
3.11971
3.15632
3.17439
3.19276
3.20223
3.21264
3.21823
3.2247
3.22814
3.23209
3.23471
3.23868
3.24128
3.24509
3.24753
3.25104
3.25327
3.25645
3.25845
3.26129
3.26307
3.26557
3.26715
3.26936
3.27077
3.27281
3.27427
3.27669
3.27893
3.28005
3.2813
3.28202
3.28294
3.2835
3.28423
3.28467
3.28526
3.28562
3.28611
3.2864
3.28679
3.28703
3.28735
3.28754
3.28779
3.28793
3.28812
3.28822
3.28834
3.28842
3.28853
3.28859
3.28868
3.28872
3.28877
3.28878
3.28877
3.28873
3.28864
3.28854
3.28831
3.28809
3.28763
3.28718
3.28624
3.28522
3.28296
3.27991
3.2724
3.26182
3.25315
3.23733
3.22341
3.19856
3.18926
3.18669
3.18605
3.1859
3.15814
3.20214
3.22833
3.25403
3.2674
3.28031
3.28731
3.29462
3.29875
3.30328
3.30583
3.30861
3.31054
3.31331
3.31523
3.31789
3.31969
3.32214
3.32379
3.326
3.32749
3.32946
3.33078
3.33253
3.33369
3.33524
3.33628
3.33771
3.33879
3.34049
3.34206
3.3429
3.34378
3.34431
3.34495
3.34536
3.34587
3.3462
3.34661
3.34688
3.34721
3.34743
3.34771
3.34788
3.3481
3.34824
3.34842
3.34853
3.34866
3.34873
3.34881
3.34887
3.34895
3.349
3.34905
3.34909
3.34912
3.34913
3.34912
3.34909
3.34903
3.34895
3.34879
3.34863
3.34831
3.34797
3.34731
3.34655
3.34494
3.34267
3.33735
3.32991
3.3235
3.31241
3.30217
3.28509
3.27824
3.27627
3.27576
3.27565
3.29556
3.32103
3.33698
3.35223
3.36042
3.3681
3.37239
3.37672
3.37925
3.38194
3.3835
3.38515
3.38634
3.38797
3.38915
3.39072
3.39182
3.39327
3.39428
3.39559
3.3965
3.39767
3.39847
3.39951
3.40022
3.40114
3.40177
3.40262
3.40328
3.40429
3.40523
3.40574
3.40626
3.40659
3.40697
3.40722
3.40752
3.40772
3.40796
3.40813
3.40833
3.40846
3.40862
3.40873
3.40886
3.40895
3.40905
3.40912
3.40919
3.40924
3.40929
3.40932
3.40937
3.4094
3.40943
3.40945
3.40947
3.40948
3.40947
3.40946
3.40942
3.40937
3.40928
3.40917
3.40898
3.40878
3.40838
3.40792
3.40695
3.40555
3.40238
3.39796
3.39403
3.38745
3.3812
3.37121
3.36702
3.36578
3.36547
3.36539
3.43197
3.4403
3.44566
3.45071
3.45347
3.45602
3.45746
3.4589
3.45975
3.46064
3.46117
3.46171
3.46211
3.46266
3.46305
3.46357
3.46394
3.46442
3.46476
3.4652
3.4655
3.46589
3.46616
3.4665
3.46674
3.46704
3.46726
3.46754
3.46776
3.4681
3.46841
3.46858
3.46875
3.46886
3.46899
3.46907
3.46917
3.46924
3.46932
3.46938
3.46944
3.46949
3.46954
3.46958
3.46962
3.46965
3.46968
3.46971
3.46973
3.46975
3.46976
3.46977
3.46979
3.4698
3.46981
3.46982
3.46982
3.46983
3.46982
3.46982
3.46981
3.46979
3.46976
3.46972
3.46966
3.46959
3.46946
3.4693
3.46898
3.46851
3.46745
3.46599
3.46466
3.46249
3.46038
3.45709
3.45569
3.45527
3.45516
3.45513
3.43128
3.4402
3.44637
3.45304
3.45712
3.46156
3.46439
3.46763
3.46972
3.47212
3.4736
3.47522
3.47642
3.47805
3.47924
3.48079
3.48189
3.48328
3.48426
3.4855
3.48636
3.48743
3.48818
3.48912
3.48978
3.4906
3.49119
3.49196
3.49257
3.49351
3.49438
3.49488
3.49539
3.49572
3.49611
3.49637
3.49669
3.49691
3.49718
3.49737
3.4976
3.49775
3.49795
3.49808
3.49824
3.49836
3.49849
3.49858
3.49869
3.49875
3.49883
3.49888
3.49896
3.49901
3.49909
3.49914
3.4992
3.49925
3.49931
3.49935
3.4994
3.49943
3.49948
3.49951
3.49954
3.49956
3.49957
3.49955
3.49948
3.4993
3.49885
3.49813
3.49735
3.49592
3.4944
3.49188
3.49079
3.49047
3.49038
3.49036
3.2935
3.3207
3.3391
3.35922
3.37134
3.38474
3.39315
3.40294
3.40916
3.4164
3.42079
3.42568
3.42924
3.43417
3.4377
3.44238
3.44564
3.44987
3.45278
3.4565
3.45906
3.46232
3.46454
3.46738
3.46933
3.47182
3.47356
3.47588
3.47771
3.48053
3.48317
3.48464
3.48618
3.48716
3.48833
3.48911
3.49008
3.49073
3.49155
3.4921
3.49279
3.49326
3.49384
3.49424
3.49473
3.49507
3.49548
3.49574
3.49606
3.49626
3.49649
3.49665
3.49688
3.49704
3.49726
3.49742
3.49761
3.49775
3.49793
3.49805
3.4982
3.4983
3.49843
3.49852
3.49862
3.49867
3.4987
3.49864
3.49843
3.49792
3.49657
3.49438
3.49206
3.48776
3.48323
3.47557
3.47234
3.47139
3.47114
3.47108
3.15462
3.20155
3.23176
3.26572
3.28552
3.30812
3.32186
3.3384
3.34855
3.36079
3.36796
3.37619
3.382
3.39035
3.39612
3.40404
3.40936
3.41651
3.42126
3.42756
3.43173
3.43724
3.44088
3.44568
3.44885
3.45307
3.45592
3.45982
3.46281
3.46755
3.472
3.4744
3.47699
3.47859
3.48057
3.48184
3.48348
3.48454
3.48592
3.48682
3.48799
3.48876
3.48975
3.49039
3.49123
3.49177
3.49246
3.4929
3.49345
3.49377
3.49414
3.49441
3.4948
3.49507
3.49544
3.49569
3.49603
3.49625
3.49655
3.49674
3.497
3.49717
3.49739
3.49753
3.4977
3.49778
3.49783
3.49775
3.4974
3.49658
3.49432
3.49063
3.48686
3.47961
3.47219
3.45908
3.45381
3.45228
3.4519
3.45181
3.01387
3.08307
3.12426
3.17278
3.19958
3.23186
3.25045
3.27411
3.28786
3.30539
3.31509
3.3268
3.33466
3.34663
3.35444
3.36579
3.37301
3.38324
3.38968
3.3987
3.40435
3.41224
3.41716
3.42403
3.42834
3.43437
3.43822
3.44379
3.44783
3.45459
3.46091
3.46415
3.46784
3.47
3.47283
3.47456
3.4769
3.47834
3.48032
3.48154
3.48321
3.48425
3.48567
3.48654
3.48774
3.48847
3.48946
3.49006
3.49084
3.49127
3.49181
3.49217
3.49273
3.49309
3.49362
3.49396
3.49444
3.49475
3.49517
3.49544
3.49581
3.49604
3.49635
3.49654
3.49678
3.49689
3.49697
3.49686
3.49638
3.49529
3.49213
3.4869
3.4818
3.47147
3.46137
3.44229
3.43512
3.43313
3.43264
3.43252
2.87035
2.96571
3.01648
3.08072
3.11342
3.15615
3.17884
3.21022
3.22701
3.2503
3.26214
3.27757
3.28716
3.30308
3.31263
3.32771
3.33654
3.35013
3.35799
3.36998
3.37688
3.38735
3.39337
3.4025
3.40776
3.41576
3.42047
3.42783
3.43275
3.44165
3.44994
3.45388
3.45875
3.46138
3.46514
3.46725
3.47036
3.47212
3.47474
3.47623
3.47846
3.47972
3.48161
3.48268
3.48427
3.48516
3.48648
3.48721
3.48824
3.48877
3.48948
3.48992
3.49066
3.49111
3.49181
3.49223
3.49287
3.49324
3.4938
3.49413
3.49462
3.4949
3.49532
3.49555
3.49587
3.496
3.49612
3.49599
3.4954
3.49408
3.49003
3.48315
3.47695
3.46332
3.45092
3.42501
3.41622
3.41392
3.41336
3.41324
2.72301
2.85013
2.90815
2.98991
3.02686
3.08123
3.10689
3.14691
3.16591
3.19566
3.20904
3.22856
3.2394
3.25978
3.2706
3.28988
3.29987
3.31724
3.32614
3.34145
3.34927
3.36264
3.36946
3.38111
3.38706
3.39728
3.4026
3.41197
3.4175
3.42873
3.43915
3.44358
3.44975
3.45273
3.45752
3.4599
3.46387
3.46586
3.46921
3.4709
3.47374
3.47517
3.47758
3.47879
3.48082
3.48184
3.48352
3.48434
3.48566
3.48627
3.48716
3.48766
3.48861
3.48911
3.49002
3.49049
3.4913
3.49172
3.49245
3.49281
3.49344
3.49376
3.49429
3.49455
3.49496
3.49512
3.49528
3.49514
3.49443
3.49298
3.48803
3.47938
3.47239
3.45512
3.44101
3.40705
3.39707
3.39464
3.39407
3.39394
2.57059
2.73732
2.79888
2.9009
2.93961
3.00746
3.03435
3.08444
3.10437
3.14168
3.1557
3.17991
3.19126
3.21686
3.22823
3.25243
3.26291
3.28469
3.29404
3.31323
3.32143
3.3382
3.34535
3.35995
3.3662
3.37899
3.38457
3.39625
3.40203
3.41584
3.42859
3.43321
3.44088
3.44399
3.44999
3.45249
3.45746
3.45955
3.46375
3.46552
3.46908
3.47058
3.4736
3.47487
3.47742
3.47848
3.48059
3.48146
3.48312
3.48375
3.48486
3.48538
3.48657
3.4871
3.48824
3.48873
3.48975
3.49019
3.4911
3.49149
3.49227
3.49261
3.49328
3.49355
3.49407
3.49423
3.49445
3.49431
3.4935
3.49203
3.48619
3.47554
3.46824
3.44679
3.43188
3.38813
3.37761
3.37529
3.37476
3.37465
2.41151
2.62871
2.68798
2.81442
2.85119
2.93534
2.96089
3.02318
3.04214
3.08863
3.10196
3.13176
3.14255
3.17452
3.18534
3.21552
3.2255
3.25264
3.26154
3.28545
3.29326
3.31414
3.32095
3.33913
3.34508
3.36099
3.3663
3.38078
3.38624
3.403
3.41836
3.42271
3.43219
3.43515
3.4426
3.44498
3.45117
3.45316
3.45838
3.46007
3.4645
3.46593
3.46969
3.4709
3.47407
3.47509
3.47772
3.47854
3.48061
3.48121
3.48258
3.48307
3.48456
3.48507
3.48648
3.48695
3.48823
3.48865
3.48978
3.49014
3.49113
3.49144
3.49228
3.49254
3.49319
3.49335
3.49363
3.49351
3.4926
3.49124
3.48453
3.47157
3.46466
3.43821
3.42392
3.36789
3.35782
3.35586
3.35544
3.35534
2.24373
2.52643
2.5744
2.73152
2.76087
2.86555
2.88596
2.96365
2.97881
3.03691
3.04755
3.08438
3.09299
3.13301
3.14168
3.17941
3.1874
3.22132
3.22843
3.25831
3.26455
3.29064
3.29609
3.3188
3.32355
3.34342
3.34766
3.36566
3.36999
3.39021
3.40858
3.41201
3.42376
3.42612
3.43541
3.43732
3.44504
3.44663
3.45316
3.4545
3.46004
3.46118
3.46588
3.46685
3.47081
3.47162
3.47491
3.47557
3.47816
3.47864
3.48033
3.48073
3.48259
3.48299
3.48476
3.48514
3.48674
3.48707
3.48848
3.48878
3.49
3.49026
3.4913
3.49151
3.49232
3.49245
3.49283
3.49274
3.49171
3.49068
3.48313
3.46735
3.46187
3.42913
3.41762
3.3458
3.33771
3.33638
3.3361
3.33604
2.06464
2.43353
2.45646
2.65374
2.66754
2.79914
2.80874
2.90662
2.91376
2.98709
2.99209
3.03813
3.04218
3.09277
3.09686
3.1445
3.14827
3.19107
3.19442
3.23212
3.23506
3.26797
3.27053
3.29918
3.30142
3.32647
3.32847
3.3511
3.35311
3.3775
3.39939
3.40098
3.41571
3.41682
3.42852
3.42942
3.43916
3.43991
3.44814
3.44878
3.45576
3.4563
3.46222
3.46268
3.46768
3.46806
3.47222
3.47253
3.4758
3.47603
3.47814
3.47832
3.48068
3.48087
3.4831
3.48328
3.48529
3.48545
3.48723
3.48737
3.48892
3.48904
3.49036
3.49045
3.49149
3.49155
3.49204
3.49201
3.49083
3.49037
3.48205
3.46272
3.46016
3.41921
3.41374
3.32117
3.31733
3.31685
3.31675
3.31673
2.06464
2.43353
2.45646
2.65374
2.66754
2.79914
2.80874
2.90661
2.91376
2.98709
2.99209
3.03813
3.04218
3.09277
3.09685
3.1445
3.14827
3.19107
3.19442
3.23211
3.23506
3.26797
3.27053
3.29918
3.30142
3.32647
3.32847
3.3511
3.35311
3.3775
3.39939
3.40098
3.41571
3.41682
3.42852
3.42942
3.43916
3.43991
3.44814
3.44877
3.45576
3.4563
3.46222
3.46268
3.46768
3.46806
3.47222
3.47253
3.4758
3.47603
3.47814
3.47832
3.48068
3.48087
3.4831
3.48328
3.48529
3.48545
3.48723
3.48737
3.48892
3.48904
3.49036
3.49045
3.49149
3.49155
3.49204
3.49201
3.49083
3.49037
3.48205
3.46272
3.46016
3.41921
3.41374
3.32117
3.31733
3.31685
3.31675
3.31673
2.24373
2.52643
2.5744
2.73152
2.76087
2.86555
2.88596
2.96365
2.97881
3.03691
3.04755
3.08438
3.09299
3.13301
3.14168
3.17941
3.1874
3.22132
3.22843
3.25831
3.26455
3.29064
3.29609
3.3188
3.32355
3.34342
3.34766
3.36566
3.36999
3.39021
3.40858
3.41201
3.42376
3.42612
3.43541
3.43732
3.44504
3.44663
3.45316
3.4545
3.46004
3.46118
3.46588
3.46685
3.47081
3.47162
3.47491
3.47557
3.47816
3.47864
3.48033
3.48073
3.48259
3.48299
3.48476
3.48514
3.48674
3.48707
3.48848
3.48878
3.49
3.49026
3.4913
3.49151
3.49232
3.49245
3.49283
3.49274
3.49171
3.49068
3.48313
3.46735
3.46187
3.42913
3.41762
3.3458
3.33771
3.33638
3.3361
3.33604
2.4115
2.62871
2.68798
2.81442
2.85118
2.93533
2.96089
3.02318
3.04214
3.08863
3.10195
3.13176
3.14255
3.17452
3.18534
3.21552
3.2255
3.25264
3.26154
3.28545
3.29326
3.31414
3.32095
3.33913
3.34507
3.36099
3.3663
3.38078
3.38624
3.403
3.41836
3.42271
3.43219
3.43515
3.4426
3.44498
3.45117
3.45316
3.45838
3.46007
3.4645
3.46593
3.46969
3.4709
3.47407
3.47509
3.47772
3.47854
3.48061
3.48121
3.48258
3.48307
3.48456
3.48507
3.48648
3.48695
3.48823
3.48865
3.48978
3.49014
3.49113
3.49144
3.49228
3.49254
3.49319
3.49335
3.49363
3.49351
3.4926
3.49124
3.48453
3.47157
3.46466
3.43821
3.42392
3.36789
3.35782
3.35586
3.35544
3.35534
2.57059
2.73732
2.79888
2.9009
2.93961
3.00746
3.03435
3.08444
3.10437
3.14168
3.1557
3.17991
3.19126
3.21686
3.22823
3.25243
3.26291
3.28469
3.29404
3.31323
3.32143
3.3382
3.34535
3.35995
3.3662
3.37899
3.38457
3.39625
3.40203
3.41584
3.42859
3.43321
3.44088
3.44399
3.44999
3.45249
3.45746
3.45955
3.46375
3.46552
3.46908
3.47058
3.4736
3.47487
3.47742
3.47848
3.48059
3.48146
3.48312
3.48375
3.48486
3.48538
3.48657
3.4871
3.48823
3.48873
3.48975
3.49019
3.4911
3.49149
3.49227
3.49261
3.49328
3.49355
3.49407
3.49423
3.49445
3.49431
3.4935
3.49203
3.48619
3.47554
3.46824
3.44679
3.43188
3.38813
3.37761
3.37529
3.37476
3.37465
2.72301
2.85013
2.90815
2.98991
3.02686
3.08123
3.10688
3.14691
3.16591
3.19566
3.20904
3.22856
3.2394
3.25978
3.2706
3.28988
3.29987
3.31724
3.32614
3.34145
3.34927
3.36264
3.36946
3.38111
3.38706
3.39728
3.4026
3.41197
3.4175
3.42873
3.43915
3.44358
3.44975
3.45273
3.45752
3.4599
3.46387
3.46586
3.46921
3.4709
3.47374
3.47517
3.47758
3.47879
3.48082
3.48184
3.48352
3.48434
3.48566
3.48627
3.48716
3.48766
3.48861
3.48911
3.49002
3.49048
3.4913
3.49172
3.49245
3.49281
3.49344
3.49376
3.49429
3.49455
3.49496
3.49512
3.49528
3.49514
3.49443
3.49298
3.48803
3.47938
3.47239
3.45512
3.44101
3.40705
3.39707
3.39464
3.39407
3.39394
2.87035
2.96571
3.01648
3.08072
3.11342
3.15614
3.17884
3.21022
3.22701
3.2503
3.26214
3.27757
3.28716
3.30308
3.31263
3.32771
3.33654
3.35012
3.35799
3.36998
3.37688
3.38735
3.39337
3.40249
3.40776
3.41576
3.42047
3.42783
3.43275
3.44165
3.44994
3.45388
3.45875
3.46138
3.46514
3.46725
3.47036
3.47212
3.47474
3.47623
3.47846
3.47972
3.48161
3.48268
3.48427
3.48516
3.48648
3.4872
3.48824
3.48877
3.48948
3.48992
3.49066
3.49111
3.49181
3.49223
3.49287
3.49324
3.4938
3.49413
3.49462
3.4949
3.49532
3.49555
3.49587
3.496
3.49612
3.49599
3.4954
3.49408
3.49003
3.48315
3.47695
3.46332
3.45092
3.42501
3.41622
3.41392
3.41336
3.41324
3.01387
3.08307
3.12426
3.17278
3.19958
3.23186
3.25045
3.27411
3.28785
3.30539
3.31509
3.3268
3.33466
3.34663
3.35444
3.36579
3.37301
3.38324
3.38968
3.3987
3.40435
3.41224
3.41716
3.42403
3.42834
3.43437
3.43822
3.44379
3.44783
3.45459
3.46091
3.46415
3.46784
3.47
3.47283
3.47456
3.4769
3.47834
3.48032
3.48154
3.48321
3.48425
3.48567
3.48654
3.48774
3.48847
3.48946
3.49006
3.49084
3.49127
3.49181
3.49217
3.49273
3.49309
3.49362
3.49396
3.49444
3.49475
3.49517
3.49544
3.49581
3.49604
3.49635
3.49654
3.49678
3.49689
3.49697
3.49686
3.49638
3.49529
3.49213
3.4869
3.4818
3.47147
3.46137
3.44229
3.43512
3.43313
3.43264
3.43252
3.15462
3.20155
3.23176
3.26572
3.28552
3.30812
3.32186
3.3384
3.34855
3.36079
3.36796
3.37619
3.382
3.39035
3.39612
3.40404
3.40936
3.41651
3.42126
3.42756
3.43173
3.43724
3.44088
3.44568
3.44885
3.45307
3.45592
3.45982
3.46281
3.46755
3.472
3.4744
3.47699
3.47859
3.48057
3.48184
3.48348
3.48454
3.48592
3.48682
3.48799
3.48876
3.48975
3.49039
3.49123
3.49177
3.49246
3.4929
3.49345
3.49377
3.49414
3.49441
3.4948
3.49507
3.49544
3.49569
3.49603
3.49625
3.49655
3.49674
3.497
3.49717
3.49739
3.49753
3.4977
3.49778
3.49783
3.49775
3.4974
3.49658
3.49432
3.49063
3.48686
3.47961
3.47219
3.45908
3.45381
3.45228
3.4519
3.45181
3.2935
3.3207
3.3391
3.35922
3.37134
3.38474
3.39315
3.40294
3.40916
3.4164
3.42079
3.42568
3.42924
3.43417
3.4377
3.44238
3.44564
3.44987
3.45278
3.4565
3.45906
3.46232
3.46454
3.46738
3.46933
3.47182
3.47356
3.47588
3.47771
3.48053
3.48317
3.48464
3.48618
3.48716
3.48833
3.48911
3.49008
3.49073
3.49155
3.4921
3.49279
3.49326
3.49384
3.49424
3.49473
3.49507
3.49548
3.49574
3.49606
3.49626
3.49649
3.49665
3.49688
3.49704
3.49726
3.49742
3.49761
3.49775
3.49793
3.49805
3.4982
3.4983
3.49843
3.49852
3.49862
3.49867
3.4987
3.49864
3.49843
3.49792
3.49657
3.49438
3.49206
3.48776
3.48323
3.47557
3.47234
3.47139
3.47114
3.47109
3.43128
3.4402
3.44637
3.45304
3.45712
3.46156
3.46439
3.46763
3.46972
3.47212
3.4736
3.47522
3.47642
3.47805
3.47924
3.48079
3.48189
3.48328
3.48426
3.4855
3.48636
3.48743
3.48818
3.48912
3.48978
3.4906
3.49119
3.49196
3.49257
3.49351
3.49438
3.49488
3.49539
3.49572
3.49611
3.49637
3.49669
3.49691
3.49718
3.49737
3.4976
3.49775
3.49795
3.49808
3.49824
3.49836
3.49849
3.49858
3.49869
3.49875
3.49883
3.49888
3.49896
3.49901
3.49909
3.49914
3.4992
3.49925
3.49931
3.49935
3.4994
3.49943
3.49948
3.49951
3.49954
3.49956
3.49957
3.49955
3.49948
3.4993
3.49885
3.49813
3.49735
3.49592
3.4944
3.49188
3.49079
3.49047
3.49038
3.49036
3.43195
3.44028
3.44562
3.45066
3.4534
3.4559
3.4573
3.45865
3.45941
3.46015
3.46067
3.46135
3.46183
3.46245
3.46289
3.46345
3.46384
3.46434
3.46469
3.46514
3.46545
3.46585
3.46612
3.46647
3.46671
3.46702
3.46724
3.46752
3.46774
3.46808
3.46839
3.46857
3.46874
3.46885
3.46898
3.46907
3.46917
3.46923
3.46932
3.46937
3.46944
3.46948
3.46954
3.46957
3.46962
3.46965
3.46968
3.4697
3.46973
3.46974
3.46976
3.46977
3.46979
3.4698
3.46981
3.46982
3.46982
3.46982
3.46982
3.46982
3.4698
3.46979
3.46976
3.46972
3.46966
3.46959
3.46946
3.4693
3.46898
3.46851
3.46745
3.46599
3.46466
3.46249
3.46038
3.45709
3.45569
3.45527
3.45516
3.45513
3.29551
3.32096
3.33688
3.35207
3.3602
3.36776
3.37191
3.37599
3.37824
3.38047
3.38201
3.38405
3.38548
3.38735
3.38865
3.39034
3.39151
3.39302
3.39407
3.39542
3.39635
3.39754
3.39836
3.39941
3.40013
3.40106
3.40171
3.40256
3.40323
3.40425
3.40519
3.40571
3.40623
3.40656
3.40695
3.4072
3.4075
3.4077
3.40795
3.40811
3.40832
3.40845
3.40861
3.40872
3.40885
3.40894
3.40904
3.40911
3.40919
3.40923
3.40928
3.40932
3.40936
3.40939
3.40943
3.40945
3.40947
3.40947
3.40947
3.40945
3.40942
3.40937
3.40927
3.40917
3.40898
3.40878
3.40838
3.40792
3.40695
3.40555
3.40238
3.39796
3.39403
3.38745
3.3812
3.37121
3.36702
3.36578
3.36546
3.36539
3.15805
3.20202
3.22816
3.25376
3.26703
3.27974
3.28653
3.29339
3.29707
3.30082
3.30332
3.30677
3.30911
3.31228
3.31441
3.31726
3.31917
3.32173
3.32344
3.32571
3.32723
3.32925
3.33059
3.33237
3.33355
3.33511
3.33617
3.33761
3.3387
3.34042
3.342
3.34284
3.34373
3.34427
3.34492
3.34533
3.34584
3.34617
3.34659
3.34686
3.3472
3.34741
3.34769
3.34787
3.34809
3.34823
3.34841
3.34852
3.34865
3.34872
3.34881
3.34886
3.34894
3.34899
3.34905
3.34908
3.34911
3.34912
3.34912
3.34909
3.34903
3.34895
3.34879
3.34863
3.34831
3.34797
3.34731
3.34655
3.34494
3.34267
3.33735
3.32991
3.32349
3.31241
3.30217
3.28509
3.27824
3.27627
3.27576
3.27565
3.01884
3.08379
3.11947
3.15595
3.17388
3.19197
3.20114
3.21092
3.21589
3.22121
3.2246
3.22954
3.23271
3.23725
3.24013
3.24422
3.24681
3.25046
3.25278
3.25604
3.2581
3.26099
3.2628
3.26535
3.26694
3.26918
3.27061
3.27267
3.27414
3.27659
3.27884
3.27998
3.28124
3.28197
3.2829
3.28345
3.28419
3.28463
3.28523
3.28559
3.28608
3.28638
3.28677
3.28701
3.28733
3.28752
3.28777
3.28792
3.28811
3.28821
3.28833
3.28841
3.28852
3.28858
3.28867
3.28871
3.28876
3.28877
3.28876
3.28873
3.28864
3.28853
3.28831
3.28808
3.28763
3.28717
3.28624
3.28522
3.28296
3.27991
3.2724
3.26182
3.25315
3.23733
3.22341
3.19856
3.18926
3.18669
3.18605
3.1859
2.87703
2.96674
3.01075
3.05888
3.08073
3.10455
3.11572
3.12865
3.1347
3.14169
3.14582
3.15238
3.15626
3.16228
3.16581
3.17123
3.1744
3.17926
3.18208
3.18642
3.18893
3.19277
3.19499
3.19836
3.20031
3.20329
3.20503
3.20775
3.20955
3.21277
3.21573
3.21711
3.21877
3.21966
3.22089
3.22157
3.22255
3.22309
3.22388
3.22433
3.22497
3.22533
3.22586
3.22615
3.22658
3.22681
3.22715
3.22733
3.22757
3.2277
3.22786
3.22795
3.2281
3.22818
3.22829
3.22835
3.22841
3.22842
3.22841
3.22837
3.22825
3.22812
3.22782
3.22755
3.22695
3.2264
3.22517
3.22393
3.22101
3.21732
3.20758
3.19366
3.18309
3.16218
3.14509
3.11141
3.10002
3.09704
3.09631
3.09615
2.73163
2.85151
2.90186
2.96286
2.9875
3.01764
3.03023
3.04665
3.05347
3.06227
3.06693
3.07533
3.07972
3.08742
3.09141
3.09834
3.10192
3.10813
3.11133
3.11686
3.11971
3.12461
3.12712
3.13144
3.13365
3.13744
3.13941
3.14288
3.1449
3.14897
3.15268
3.15423
3.15634
3.15734
3.15891
3.15967
3.16092
3.16154
3.16255
3.16305
3.16388
3.16429
3.16496
3.16529
3.16583
3.16609
3.16652
3.16673
3.16705
3.16719
3.16739
3.16749
3.16768
3.16777
3.16792
3.16798
3.16806
3.16808
3.16806
3.16801
3.16786
3.16772
3.16734
3.16703
3.16627
3.16565
3.1641
3.16272
3.15908
3.15498
3.14293
3.12536
3.11344
3.08687
3.06743
3.02337
3.01043
3.00729
3.00655
3.00639
2.58143
2.73906
2.79254
2.86829
2.89404
2.93143
2.9446
2.96503
2.97216
2.98303
2.9879
2.99844
3.00305
3.0127
3.01689
3.02558
3.02934
3.03712
3.04048
3.04742
3.05041
3.05655
3.05919
3.0646
3.06691
3.07167
3.07374
3.07806
3.08017
3.08517
3.08971
3.09133
3.09395
3.09499
3.09695
3.09776
3.09932
3.09997
3.10124
3.10176
3.1028
3.10323
3.10407
3.10442
3.10509
3.10537
3.10591
3.10612
3.10652
3.10667
3.10692
3.10703
3.10727
3.10736
3.10755
3.10761
3.10771
3.10773
3.10771
3.10766
3.10747
3.10732
3.10685
3.10653
3.10559
3.10494
3.10303
3.10159
3.09718
3.09295
3.0785
3.05683
3.04439
3.01128
2.99075
2.93409
2.92046
2.91745
2.91677
2.91662
2.42493
2.63078
2.68234
2.77572
2.80013
2.84618
2.85867
2.88395
2.89071
2.90402
2.90865
2.92179
2.92617
2.93821
2.94219
2.95302
2.95659
2.96629
2.96949
2.97813
2.98098
2.98863
2.99114
2.99788
3.00008
3.006
3.00797
3.01332
3.01532
3.0214
3.02687
3.02839
3.03162
3.03261
3.03505
3.03582
3.03776
3.03838
3.03996
3.04046
3.04174
3.04215
3.0432
3.04353
3.04438
3.04464
3.04531
3.04551
3.04601
3.04615
3.04646
3.04656
3.04686
3.04695
3.04718
3.04724
3.04737
3.04739
3.04736
3.04732
3.04708
3.04694
3.04636
3.04606
3.04489
3.04428
3.04194
3.04059
3.03527
3.03134
3.01435
2.98793
2.97615
2.93518
2.91552
2.84308
2.83006
2.82752
2.82697
2.82685
2.2602
2.52867
2.57046
2.68592
2.70534
2.76228
2.77223
2.80361
2.80899
2.82536
2.82905
2.84548
2.84899
2.86403
2.86722
2.88075
2.88361
2.89572
2.89828
2.90908
2.91135
2.92092
2.92293
2.93134
2.93311
2.94049
2.94207
2.94873
2.95031
2.95765
2.96418
2.96538
2.96938
2.97017
2.97321
2.97382
2.97625
2.97675
2.97872
2.97912
2.98072
2.98105
2.98236
2.98262
2.98368
2.98389
2.98473
2.98489
2.98551
2.98562
2.986
2.98609
2.98646
2.98653
2.98682
2.98687
2.98703
2.98704
2.98702
2.98698
2.98669
2.98657
2.98586
2.98562
2.98418
2.98369
2.98081
2.97974
2.9733
2.97024
2.95059
2.91845
2.90909
2.85823
2.8424
2.74969
2.73924
2.73751
2.73715
2.73707
2.08472
2.43563
2.45563
2.59995
2.60906
2.68026
2.68493
2.7243
2.72683
2.74721
2.74894
2.7697
2.77135
2.79033
2.79183
2.8089
2.81025
2.82553
2.82674
2.84037
2.84144
2.85351
2.85445
2.86507
2.8659
2.87522
2.87596
2.88433
2.88507
2.89393
2.9017
2.90225
2.90727
2.90764
2.91147
2.91176
2.91482
2.91505
2.91754
2.91773
2.91976
2.91991
2.92156
2.92168
2.92302
2.92312
2.92417
2.92425
2.92503
2.92509
2.92556
2.9256
2.92607
2.92611
2.92647
2.92649
2.92669
2.9267
2.92667
2.92665
2.92628
2.92623
2.92534
2.92522
2.92342
2.92319
2.9196
2.91911
2.9112
2.90981
2.88732
2.84806
2.84368
2.77988
2.77236
2.65302
2.64807
2.64744
2.64731
2.64729
)
;

boundaryField
{
    F1_1
    {
        type            fixedValue;
        value           nonuniform List<scalar> 
80
(
1.9902
2.39625
2.39625
2.56078
2.56078
2.64296
2.64296
2.69058
2.69058
2.72078
2.72078
2.73817
2.73817
2.75726
2.75726
2.77546
2.77546
2.79219
2.79219
2.80732
2.80732
2.82082
2.82082
2.83274
2.83274
2.84323
2.84323
2.85267
2.85267
2.86238
2.87082
2.87082
2.87648
2.87648
2.88081
2.88081
2.88427
2.88427
2.88709
2.88709
2.88938
2.88938
2.89125
2.89125
2.89276
2.89276
2.89395
2.89395
2.89484
2.89484
2.89537
2.89537
2.89591
2.89591
2.89632
2.89632
2.89655
2.89655
2.89651
2.89651
2.89609
2.89609
2.89507
2.89507
2.89302
2.89302
2.88895
2.88895
2.88002
2.88002
2.85603
2.81217
2.81217
2.73958
2.73958
2.6024
2.6024
2.6024
2.6024
2.6024
)
;
    }
    F1_2
    {
        type            fixedValue;
        value           nonuniform List<scalar> 
80
(
1.96772
2.39399
2.39399
2.61851
2.61851
2.76836
2.76836
2.87991
2.87991
2.96354
2.96354
3.01584
3.01584
3.07357
3.07357
3.12792
3.12792
3.17673
3.17673
3.21971
3.21971
3.25723
3.25723
3.2899
3.2899
3.31846
3.31846
3.34422
3.34422
3.37119
3.39519
3.39519
3.41195
3.41195
3.42529
3.42529
3.4364
3.4364
3.44578
3.44578
3.45374
3.45374
3.4605
3.4605
3.46621
3.46621
3.47094
3.47094
3.47468
3.47468
3.47708
3.47708
3.47976
3.47976
3.48231
3.48231
3.48461
3.48461
3.48664
3.48664
3.48841
3.48841
3.48991
3.48991
3.49109
3.49109
3.49166
3.49166
3.49037
3.49037
3.48174
3.46007
3.46007
3.41353
3.41353
3.30708
3.30708
3.30708
3.30708
3.30708
)
;
    }
    F1_3
    {
        type            fixedValue;
        value           nonuniform List<scalar> 
80
(
1.96772
2.39399
2.39399
2.61851
2.61851
2.76836
2.76836
2.87991
2.87991
2.96354
2.96354
3.01584
3.01584
3.07357
3.07357
3.12792
3.12792
3.17673
3.17673
3.21971
3.21971
3.25723
3.25723
3.2899
3.2899
3.31846
3.31846
3.34422
3.34422
3.37119
3.39519
3.39519
3.41195
3.41195
3.42529
3.42529
3.4364
3.4364
3.44578
3.44578
3.45374
3.45374
3.4605
3.4605
3.46621
3.46621
3.47094
3.47094
3.47468
3.47468
3.47708
3.47708
3.47976
3.47976
3.48231
3.48231
3.48461
3.48461
3.48664
3.48664
3.48841
3.48841
3.48991
3.48991
3.49109
3.49109
3.49166
3.49166
3.49037
3.49037
3.48174
3.46007
3.46007
3.41354
3.41354
3.30708
3.30708
3.30708
3.30708
3.30708
)
;
    }
    F1_4
    {
        type            fixedValue;
        value           nonuniform List<scalar> 
80
(
1.98997
2.39573
2.39573
2.55967
2.55967
2.64059
2.64059
2.68539
2.68539
2.70851
2.70851
2.73219
2.73219
2.75383
2.75383
2.77329
2.77329
2.79072
2.79072
2.80626
2.80626
2.82003
2.82003
2.83213
2.83213
2.84275
2.84275
2.85229
2.85229
2.86209
2.8706
2.8706
2.87631
2.87631
2.88067
2.88067
2.88416
2.88416
2.887
2.887
2.88931
2.88931
2.89119
2.89119
2.89271
2.89271
2.89391
2.89391
2.89481
2.89481
2.89535
2.89535
2.89589
2.89589
2.8963
2.8963
2.89653
2.89653
2.89649
2.89649
2.89608
2.89608
2.89506
2.89506
2.89301
2.89301
2.88894
2.88894
2.88002
2.88002
2.85602
2.81217
2.81217
2.73958
2.73958
2.6024
2.6024
2.6024
2.6024
2.6024
)
;
    }
    F2_1
    {
        type            fixedValue;
        value           uniform 3.5;
    }
    F2_2
    {
        type            fixedValue;
        value           uniform 3.5;
    }
    F2_3
    {
        type            fixedValue;
        value           uniform 3.5;
    }
    F2_4
    {
        type            fixedValue;
        value           uniform 3.5;
    }
    defaultFaces
    {
        type            empty;
    }
}


// ************************************************************************* //
