/*--------------------------------*- C++ -*----------------------------------*\
| =========                 |                                                 |
| \\      /  F ield         | OpenFOAM: The Open Source CFD Toolbox           |
|  \\    /   O peration     | Version:  5.x                                   |
|   \\  /    A nd           | Web:      www.OpenFOAM.org                      |
|    \\/     M anipulation  |                                                 |
\*---------------------------------------------------------------------------*/
FoamFile
{
    version     2.0;
    format      ascii;
    class       volScalarField;
    location    "1";
    object      gradTy;
}
// * * * * * * * * * * * * * * * * * * * * * * * * * * * * * * * * * * * * * //

dimensions      [0 -1 0 1 0 0 0];

internalField   nonuniform List<scalar> 
2048
(
-26.5304
-26.5039
-26.4516
-26.375
-26.2763
-26.1579
-26.0227
-25.8734
-25.7128
-25.5435
-25.3678
-25.1879
-25.0057
-24.8229
-24.641
-24.4612
-24.2847
-24.1123
-23.9449
-23.7829
-23.6269
-23.477
-23.3337
-23.197
-23.0673
-22.9445
-22.8291
-22.7211
-22.621
-22.5291
-22.4457
-22.3714
-22.3068
-22.2524
-22.2091
-22.1777
-22.159
-22.154
-22.1637
-22.1892
-22.2316
-22.2919
-22.3712
-22.4704
-22.5905
-22.732
-22.8953
-23.0804
-23.2865
-23.5125
-23.7561
-24.0144
-24.2835
-24.5584
-24.8337
-25.1032
-25.3608
-25.6001
-25.8157
-26.0025
-26.1566
-26.2747
-26.3546
-26.3949
-26.5519
-26.5247
-26.4711
-26.3928
-26.2921
-26.1715
-26.034
-25.8825
-25.7198
-25.5485
-25.3711
-25.1897
-25.0061
-24.8221
-24.6391
-24.4584
-24.2812
-24.1082
-23.9403
-23.778
-23.6216
-23.4716
-23.3281
-23.1913
-23.0613
-22.9384
-22.8227
-22.7145
-22.6141
-22.5218
-22.4381
-22.3633
-22.2981
-22.2432
-22.1992
-22.167
-22.1475
-22.1417
-22.1506
-22.1752
-22.2167
-22.2762
-22.3546
-22.4532
-22.5727
-22.714
-22.8774
-23.0629
-23.2701
-23.4978
-23.7438
-24.0053
-24.2783
-24.5578
-24.838
-25.1126
-25.3751
-25.619
-25.8386
-26.0287
-26.1853
-26.3053
-26.3864
-26.4272
-26.5929
-26.5644
-26.5085
-26.4268
-26.3221
-26.1972
-26.0553
-25.8995
-25.7328
-25.5579
-25.3772
-25.1929
-25.0067
-24.8204
-24.6354
-24.4531
-24.2744
-24.1003
-23.9315
-23.7685
-23.6117
-23.4613
-23.3175
-23.1803
-23.0501
-22.9268
-22.8108
-22.7021
-22.6011
-22.5082
-22.4236
-22.348
-22.2818
-22.2257
-22.1804
-22.1469
-22.1259
-22.1185
-22.1258
-22.1487
-22.1885
-22.2463
-22.3232
-22.4205
-22.539
-22.6796
-22.843
-23.0294
-23.2386
-23.4694
-23.7201
-23.9877
-24.2681
-24.5563
-24.846
-25.1304
-25.4025
-25.6552
-25.8824
-26.0788
-26.2403
-26.3636
-26.4469
-26.4888
-26.6517
-26.6213
-26.5618
-26.4753
-26.3647
-26.2335
-26.0852
-25.9233
-25.7509
-25.5709
-25.3856
-25.1971
-25.0073
-24.8178
-24.63
-24.4452
-24.2646
-24.0889
-23.9189
-23.755
-23.5976
-23.4467
-23.3024
-23.1649
-23.0343
-22.9105
-22.7939
-22.6846
-22.5829
-22.489
-22.4034
-22.3265
-22.2589
-22.2011
-22.1541
-22.1185
-22.0955
-22.0858
-22.0908
-22.1113
-22.1487
-22.2041
-22.2788
-22.374
-22.4909
-22.6306
-22.7939
-22.9814
-23.193
-23.4282
-23.6853
-23.9615
-24.2527
-24.5535
-24.857
-25.1557
-25.4417
-25.7072
-25.9454
-26.1507
-26.3188
-26.4469
-26.533
-26.5764
-26.7271
-26.6942
-26.6299
-26.5368
-26.4185
-26.279
-26.1224
-25.9526
-25.773
-25.5865
-25.3954
-25.2018
-25.0075
-24.814
-24.6228
-24.4351
-24.252
-24.0744
-23.9029
-23.7379
-23.5797
-23.4283
-23.2836
-23.1457
-23.0146
-22.8903
-22.773
-22.6629
-22.5602
-22.4653
-22.3783
-22.2998
-22.2304
-22.1706
-22.1213
-22.0832
-22.0575
-22.0451
-22.0471
-22.0646
-22.0989
-22.1513
-22.223
-22.3156
-22.4303
-22.5685
-22.7313
-22.9198
-23.1343
-23.3747
-23.6396
-23.9267
-24.2317
-24.5487
-24.8703
-25.1877
-25.4918
-25.7738
-26.0261
-26.2425
-26.4189
-26.5527
-26.6423
-26.6873
-26.8181
-26.782
-26.7115
-26.6101
-26.482
-26.3323
-26.1656
-25.9863
-25.7981
-25.604
-25.4062
-25.2068
-25.0072
-24.8091
-24.6137
-24.4225
-24.2366
-24.0567
-23.8836
-23.7176
-23.5586
-23.4067
-23.2616
-23.1232
-22.9915
-22.8666
-22.7486
-22.6376
-22.5339
-22.4376
-22.3492
-22.2689
-22.1973
-22.1351
-22.0831
-22.0421
-22.0132
-21.9975
-21.996
-22.0099
-22.0405
-22.0891
-22.1573
-22.2465
-22.3583
-22.4944
-22.6563
-22.8455
-23.0629
-23.3089
-23.5829
-23.8828
-24.2043
-24.5412
-24.8851
-25.2257
-25.5523
-25.8545
-26.1237
-26.3532
-26.5391
-26.6791
-26.7725
-26.8191
-26.9243
-26.884
-26.8059
-26.6942
-26.5543
-26.3921
-26.2135
-26.0232
-25.8252
-25.6226
-25.4174
-25.2114
-25.0061
-24.8028
-24.6028
-24.4077
-24.2185
-24.0362
-23.8614
-23.6942
-23.5346
-23.3822
-23.2368
-23.098
-22.9658
-22.8402
-22.7214
-22.6094
-22.5045
-22.4069
-22.3167
-22.2344
-22.1604
-22.0955
-22.0404
-21.9961
-21.9637
-21.9442
-21.9387
-21.9484
-21.9748
-22.0191
-22.083
-22.1682
-22.2765
-22.4097
-22.57
-22.7592
-22.9792
-23.231
-23.5148
-23.8291
-24.1698
-24.5302
-24.9007
-25.2692
-25.6227
-25.9489
-26.2376
-26.482
-26.678
-26.8245
-26.9214
-26.9697
-27.0451
-26.9999
-26.9124
-26.7882
-26.634
-26.4573
-26.2648
-26.0621
-25.8534
-25.6415
-25.4284
-25.2155
-25.004
-24.795
-24.59
-24.3905
-24.1978
-24.0129
-23.8363
-23.6681
-23.508
-23.3553
-23.2097
-23.0706
-22.9378
-22.8115
-22.6918
-22.5788
-22.4727
-22.3737
-22.2817
-22.1972
-22.1206
-22.0526
-21.9942
-21.9462
-21.9098
-21.8861
-21.8762
-21.8814
-21.903
-21.9425
-22.0015
-22.0819
-22.1858
-22.3154
-22.4731
-22.6616
-22.8834
-23.1408
-23.4348
-23.7647
-24.1271
-24.5146
-24.9163
-25.3178
-25.703
-26.057
-26.3679
-26.6282
-26.8347
-26.9872
-27.0873
-27.1369
-27.1806
-27.1293
-27.0305
-26.8912
-26.7203
-26.5267
-26.3184
-26.1019
-25.8816
-25.6601
-25.4389
-25.2188
-25.0007
-24.7857
-24.5753
-24.3711
-24.1745
-23.9869
-23.8085
-23.6395
-23.4791
-23.3264
-23.1807
-23.0414
-22.9081
-22.781
-22.6604
-22.5464
-22.4391
-22.3386
-22.2448
-22.1579
-22.0785
-22.0073
-21.9451
-21.8931
-21.8525
-21.8243
-21.8097
-21.8099
-21.8262
-21.8603
-21.9138
-21.9888
-22.0875
-22.2124
-22.3666
-22.5533
-22.776
-23.0381
-23.3421
-23.6887
-24.0749
-24.4933
-24.9312
-25.3712
-25.7934
-26.1792
-26.5146
-26.7915
-27.0081
-27.1659
-27.2682
-27.3185
-27.3309
-27.2721
-27.1597
-27.0026
-26.8119
-26.5989
-26.373
-26.1416
-25.9091
-25.6777
-25.4483
-25.2211
-24.9963
-24.775
-24.5587
-24.3493
-24.1486
-23.9581
-23.7781
-23.6085
-23.4482
-23.2959
-23.1504
-23.0109
-22.8771
-22.7492
-22.6276
-22.5125
-22.4041
-22.3021
-22.2065
-22.1172
-22.0348
-21.96
-21.8939
-21.8376
-21.7924
-21.7594
-21.7398
-21.7347
-21.7454
-21.7736
-21.821
-21.8899
-21.9826
-22.102
-22.2515
-22.435
-22.6572
-22.9228
-23.2362
-23.5998
-24.0118
-24.4649
-24.9445
-25.4293
-25.8944
-26.3163
-26.6782
-26.972
-27.1975
-27.359
-27.4621
-27.5124
-27.4962
-27.4285
-27.2997
-27.1215
-26.9078
-26.6726
-26.4273
-26.1799
-25.9349
-25.6939
-25.4566
-25.2223
-24.9908
-24.7628
-24.5401
-24.3251
-24.12
-23.9266
-23.7452
-23.5754
-23.4157
-23.2641
-23.119
-22.9795
-22.8451
-22.7163
-22.5936
-22.4776
-22.3681
-22.2648
-22.1674
-22.0756
-21.9901
-21.9115
-21.8411
-21.7803
-21.7303
-21.6923
-21.6675
-21.6568
-21.6616
-21.6834
-21.7243
-21.7863
-21.8723
-21.9851
-22.1287
-22.3075
-22.5273
-22.7947
-23.1163
-23.4967
-23.9363
-24.4279
-24.9551
-25.492
-26.0068
-26.4694
-26.8597
-27.1698
-27.4022
-27.565
-27.6671
-27.7163
-27.6772
-27.5987
-27.4504
-27.2471
-27.0067
-26.7466
-26.48
-26.2157
-25.9582
-25.708
-25.4634
-25.2225
-24.9843
-24.7494
-24.5198
-24.2986
-24.0888
-23.8923
-23.7098
-23.5403
-23.3817
-23.2315
-23.0872
-22.9476
-22.8126
-22.6827
-22.5589
-22.4418
-22.3315
-22.2271
-22.1279
-22.0337
-21.9448
-21.8622
-21.7873
-21.7217
-21.6667
-21.6236
-21.5934
-21.5769
-21.5755
-21.5907
-21.6244
-21.6791
-21.7576
-21.8629
-21.9991
-22.1715
-22.387
-22.6539
-22.9816
-23.3781
-23.8464
-24.3804
-24.9619
-25.5593
-26.1317
-26.6401
-27.0601
-27.385
-27.6214
-27.7824
-27.881
-27.9278
-27.8744
-27.783
-27.6113
-27.3786
-27.1075
-26.8193
-26.5296
-26.2479
-25.9783
-25.7198
-25.4688
-25.2218
-24.977
-24.7348
-24.4977
-24.2697
-24.0547
-23.8552
-23.6718
-23.5033
-23.3467
-23.1983
-23.0551
-22.9157
-22.7799
-22.6486
-22.5235
-22.4055
-22.2945
-22.1893
-22.0886
-21.9919
-21.8995
-21.8126
-21.7329
-21.6622
-21.6022
-21.5539
-21.5181
-21.4958
-21.4879
-21.4961
-21.5223
-21.5691
-21.6394
-21.7363
-21.8639
-22.0281
-22.2367
-22.5003
-22.8315
-23.2425
-23.7401
-24.3203
-24.9635
-25.6313
-26.2707
-26.8305
-27.281
-27.618
-27.8543
-28.0095
-28.1017
-28.1445
-28.0888
-27.9819
-27.7826
-27.5152
-27.2087
-26.8893
-26.5747
-26.2753
-25.9944
-25.729
-25.4729
-25.2204
-24.9692
-24.7195
-24.4741
-24.2384
-24.0177
-23.8152
-23.6313
-23.4645
-23.3108
-23.1651
-23.0234
-22.8841
-22.7473
-22.6143
-22.4875
-22.3688
-22.2575
-22.1518
-22.0498
-21.9506
-21.8546
-21.763
-21.6782
-21.6024
-21.5371
-21.4835
-21.4423
-21.414
-21.3996
-21.4004
-21.4188
-21.4573
-21.5189
-21.6065
-21.7242
-21.8783
-22.0774
-22.3343
-22.6654
-23.0883
-23.6152
-24.2451
-24.958
-25.7082
-26.426
-27.0434
-27.5243
-27.8691
-28.0999
-28.2444
-28.3267
-28.3638
-28.3214
-28.1959
-27.9638
-27.6559
-27.3089
-26.9551
-26.6141
-26.2967
-26.0057
-25.7353
-25.4758
-25.2188
-24.9613
-24.7037
-24.4489
-24.2045
-23.9777
-23.772
-23.5881
-23.4241
-23.2744
-23.1323
-22.9925
-22.8532
-22.7151
-22.5798
-22.4511
-22.3317
-22.2207
-22.1151
-22.0119
-21.9102
-21.8104
-21.7139
-21.6235
-21.5423
-21.4718
-21.413
-21.3664
-21.3323
-21.3111
-21.3044
-21.3145
-21.3443
-21.3968
-21.4745
-21.5812
-21.7233
-21.9102
-22.1563
-22.4829
-22.9141
-23.4691
-24.1518
-24.9432
-25.7899
-26.6004
-27.282
-27.792
-28.1387
-28.357
-28.4851
-28.5537
-28.5832
-28.5734
-28.4257
-28.1551
-27.7997
-27.4064
-27.0149
-26.6461
-26.311
-26.0118
-25.7388
-25.478
-25.2174
-24.9539
-24.6879
-24.4225
-24.1679
-23.9345
-23.7257
-23.5421
-23.382
-23.2378
-23.1003
-22.9627
-22.8234
-22.6836
-22.5453
-22.414
-22.2942
-22.1842
-22.0793
-21.9753
-21.8711
-21.7674
-21.6654
-21.5691
-21.4823
-21.4066
-21.3427
-21.2909
-21.251
-21.2231
-21.2086
-21.2101
-21.2309
-21.274
-21.3414
-21.436
-21.5645
-21.7362
-21.9671
-22.2837
-22.7182
-23.2993
-24.037
-24.916
-25.8767
-26.7974
-27.5506
-28.0864
-28.4269
-28.6243
-28.7294
-28.78
-28.8
-28.8462
-28.6719
-28.3564
-27.9455
-27.4992
-27.0673
-26.6696
-26.3169
-26.0119
-25.7395
-25.48
-25.2167
-24.9472
-24.6726
-24.3948
-24.1283
-23.8879
-23.6759
-23.4931
-23.3384
-23.2013
-23.0698
-22.9346
-22.7951
-22.6531
-22.5107
-22.3761
-22.2562
-22.1481
-22.0449
-21.9403
-21.8337
-21.7259
-21.6179
-21.515
-21.4226
-21.3417
-21.2728
-21.216
-21.1706
-21.1361
-21.1135
-21.106
-21.1176
-21.1514
-21.2083
-21.2899
-21.4032
-21.557
-21.7676
-22.0677
-22.4993
-23.1031
-23.8969
-24.8724
-25.9684
-27.0219
-27.8543
-28.41
-28.7334
-28.8998
-28.9747
-29.0032
-29.0116
-29.1415
-28.9352
-28.5677
-28.0919
-27.5853
-27.1107
-26.6831
-26.3132
-26.0056
-25.7377
-25.4826
-25.2173
-24.9419
-24.6587
-24.3661
-24.0854
-23.8377
-23.6225
-23.4407
-23.2931
-23.1653
-23.0414
-22.9086
-22.7684
-22.6241
-22.4762
-22.337
-22.2177
-22.1127
-22.0123
-21.9073
-21.7981
-21.6863
-21.5714
-21.4612
-21.3632
-21.2774
-21.2035
-21.1423
-21.0916
-21.0505
-21.0197
-21.0028
-21.0048
-21.0296
-21.076
-21.1439
-21.241
-21.3745
-21.5591
-21.8352
-22.2561
-22.8781
-23.7271
-24.8072
-26.0645
-27.2801
-28.1993
-28.7653
-29.0575
-29.1814
-29.2186
-29.2207
-29.2158
-29.4611
-29.2161
-28.7894
-28.2374
-27.6619
-27.1438
-26.6857
-26.2985
-25.9924
-25.7337
-25.4869
-25.2197
-24.9382
-24.647
-24.3366
-24.0383
-23.7839
-23.5654
-23.3845
-23.2463
-23.1302
-23.0158
-22.885
-22.7438
-22.5971
-22.4415
-22.2961
-22.1782
-22.0781
-21.9821
-21.8765
-21.7646
-21.649
-21.5262
-21.4076
-21.3044
-21.2136
-21.1351
-21.0699
-21.0144
-20.9668
-20.9275
-20.9007
-20.893
-20.9093
-20.9458
-20.999
-21.0793
-21.1907
-21.3433
-21.5867
-21.9873
-22.6221
-23.5233
-24.713
-26.1639
-27.5804
-28.5927
-29.1545
-29.3979
-29.4665
-29.4583
-29.4301
-29.4102
-29.8072
-29.5147
-29.0221
-28.3805
-27.7257
-27.1655
-26.6765
-26.2711
-25.972
-25.7278
-25.4944
-25.2243
-24.9363
-24.639
-24.3063
-23.9862
-23.7266
-23.5045
-23.3238
-23.1979
-23.0964
-22.9941
-22.8643
-22.7211
-22.5727
-22.4068
-22.2526
-22.1376
-22.0444
-21.9547
-21.8481
-21.7332
-21.6145
-21.4823
-21.3539
-21.246
-21.1508
-21.0676
-20.9992
-20.9394
-20.8855
-20.8372
-20.8001
-20.7821
-20.791
-20.8185
-20.8561
-20.9197
-21.0082
-21.122
-21.3232
-21.6916
-22.3334
-23.2809
-24.5802
-26.2648
-27.934
-29.0432
-29.5792
-29.7525
-29.7518
-29.691
-29.6291
-29.593
-30.1822
-29.8304
-29.2672
-28.5194
-27.7727
-27.1755
-26.6551
-26.2289
-25.9442
-25.7207
-25.507
-25.2315
-24.9359
-24.6367
-24.2756
-23.9273
-23.6662
-23.4402
-23.2575
-23.148
-23.0643
-22.9774
-22.8465
-22.7002
-22.5521
-22.3719
-22.2051
-22.0955
-22.0117
-21.9311
-21.8224
-21.7038
-21.5837
-21.4399
-21.2995
-21.1884
-21.0889
-21.0008
-20.9303
-20.8668
-20.807
-20.7494
-20.701
-20.6722
-20.6751
-20.6953
-20.7155
-20.7633
-20.8298
-20.8973
-21.0461
-21.3678
-22.0112
-22.9961
-24.3954
-26.3639
-28.3564
-29.5604
-30.0401
-30.118
-30.0339
-29.9139
-29.8156
-29.7624
-30.5894
-30.1615
-29.527
-28.652
-27.7971
-27.1745
-26.6216
-26.1692
-25.9092
-25.7124
-25.5276
-25.2411
-24.9362
-24.643
-24.2444
-23.859
-23.6035
-23.3727
-23.1841
-23.0967
-23.034
-22.9676
-22.8317
-22.6806
-22.5368
-22.3366
-22.1519
-22.0517
-21.98
-21.9125
-21.7992
-21.676
-21.5575
-21.3989
-21.2435
-21.1318
-21.0283
-20.9347
-20.8635
-20.7969
-20.7318
-20.6641
-20.6036
-20.5628
-20.562
-20.5775
-20.5775
-20.6112
-20.6591
-20.6711
-20.7572
-21.0139
-21.6561
-22.6667
-24.1407
-26.4555
-28.8687
-30.1548
-30.5365
-30.4902
-30.3087
-30.1241
-29.9878
-29.9171
-31.0327
-30.5043
-29.8057
-28.7765
-27.7913
-27.1647
-26.5769
-26.0879
-25.8678
-25.7031
-25.5601
-25.2526
-24.935
-24.6622
-24.2129
-23.7774
-23.5405
-23.3028
-23.1013
-23.0445
-23.0056
-22.9669
-22.8195
-22.6609
-22.5293
-22.3011
-22.0905
-22.0063
-21.9493
-21.9005
-21.7783
-21.649
-21.5376
-21.3594
-21.1846
-21.0767
-20.9691
-20.8687
-20.7992
-20.73
-20.6602
-20.5818
-20.5081
-20.4532
-20.4519
-20.4669
-20.4413
-20.4641
-20.5004
-20.4456
-20.4595
-20.6269
-21.27
-22.2933
-23.7918
-26.531
-29.5001
-30.8373
-31.0653
-30.8633
-30.5721
-30.3192
-30.1443
-30.0563
-31.5175
-30.852
-30.1102
-28.8904
-27.7448
-27.1508
-26.5228
-25.9793
-25.8217
-25.6918
-25.61
-25.2649
-24.9288
-24.7008
-24.1813
-23.6767
-23.4802
-23.2318
-23.0055
-22.9926
-22.9784
-22.9788
-22.8092
-22.6392
-22.5333
-22.2651
-22.0173
-21.9599
-21.919
-21.8975
-21.7592
-21.6212
-21.5263
-21.3213
-21.1207
-21.024
-20.9118
-20.8022
-20.7377
-20.6662
-20.5928
-20.5027
-20.4147
-20.3424
-20.3447
-20.3659
-20.3056
-20.322
-20.359
-20.2221
-20.1571
-20.2022
-20.8569
-21.8812
-23.3158
-26.5771
-30.2914
-31.6178
-31.6209
-31.2308
-30.8198
-30.497
-30.284
-30.1793
-32.0511
-31.1929
-30.4515
-28.9917
-27.6424
-27.1408
-26.462
-25.8349
-25.7746
-25.6759
-25.6853
-25.2759
-24.9116
-24.7683
-24.1495
-23.5481
-23.4279
-23.1616
-22.8916
-22.9431
-22.951
-23.0081
-22.7995
-22.6117
-22.5541
-22.2286
-21.9274
-21.9137
-21.8881
-21.907
-21.7411
-21.5901
-21.527
-21.2845
-21.0488
-20.9754
-20.8568
-20.7339
-20.6797
-20.6054
-20.5302
-20.4269
-20.3237
-20.2287
-20.2404
-20.2779
-20.1679
-20.184
-20.2422
-20.0008
-19.8562
-19.732
-20.4227
-21.4436
-22.669
-26.574
-31.2987
-32.5037
-32.1939
-31.5847
-31.0474
-30.6554
-30.4063
-30.2859
-32.6441
-31.5082
-30.8468
-29.0779
-27.4632
-27.1481
-26.3988
-25.6425
-25.7332
-25.6505
-25.7975
-25.282
-24.8742
-24.8784
-24.1174
-23.379
-23.3919
-23.0947
-22.7519
-22.8998
-22.9202
-23.0616
-22.7883
-22.5731
-22.5997
-22.1914
-21.8139
-21.8707
-21.8544
-21.9337
-21.7224
-21.5521
-21.545
-21.2488
-20.9645
-20.9332
-20.8046
-20.6621
-20.6262
-20.5475
-20.4732
-20.3545
-20.2361
-20.1098
-20.1383
-20.2079
-20.0242
-20.0481
-20.1591
-19.7801
-19.5662
-19.2042
-19.9756
-21.0047
-21.7934
-26.4928
-32.5997
-33.4973
-32.7712
-31.9165
-31.2512
-30.7933
-30.5108
-30.3762
-33.3109
-31.7685
-31.3219
-29.1468
-27.178
-27.1928
-26.3389
-25.3842
-25.7086
-25.6061
-25.9628
-25.2786
-24.8024
-25.0507
-24.0847
-23.1516
-23.3845
-23.0348
-22.5752
-22.8695
-22.8803
-23.149
-22.7726
-22.5151
-22.6814
-22.1532
-21.6673
-21.8359
-21.8139
-21.9849
-21.7009
-21.5016
-21.5875
-21.2136
-20.8618
-20.9014
-20.7561
-20.5842
-20.5788
-20.4918
-20.4226
-20.2852
-20.153
-19.9825
-20.0371
-20.1633
-19.8687
-19.9107
-20.1227
-19.5546
-19.3017
-18.5999
-19.5251
-20.6052
-20.613
-26.2921
-34.3009
-34.5911
-33.3351
-32.2173
-31.428
-30.9097
-30.5977
-30.4508
-34.0726
-31.9303
-31.9148
-29.1961
-26.7462
-27.3049
-26.2896
-25.0346
-25.719
-25.5272
-26.2043
-25.2587
-24.6759
-25.3128
-24.0509
-22.8406
-23.424
-22.9862
-22.3459
-22.8632
-22.8216
-23.2845
-22.7481
-22.4257
-22.8153
-22.1133
-21.4747
-21.8179
-21.7598
-22.0703
-21.6738
-21.4306
-21.6651
-21.1783
-20.7323
-20.8858
-20.7118
-20.4964
-20.5401
-20.4372
-20.3797
-20.2187
-20.0766
-19.8429
-19.9346
-20.1543
-19.6931
-19.7658
-20.1505
-19.3139
-19.0845
-17.8916
-19.0816
-20.3081
-19.0289
-25.9137
-36.547
-35.7626
-33.8638
-32.4787
-31.5753
-31.0044
-30.6675
-30.5104
-34.9584
-31.9297
-32.6798
-29.2235
-26.1126
-27.5272
-26.2599
-24.5582
-25.7929
-25.3882
-26.5542
-25.2132
-24.4656
-25.7026
-24.0148
-22.4118
-23.5364
-22.9547
-22.0418
-22.898
-22.7286
-23.4873
-22.709
-22.2883
-23.0233
-22.0706
-21.2186
-21.8299
-21.6812
-22.2039
-21.6367
-21.3278
-21.7922
-21.1416
-20.5646
-20.8949
-20.6726
-20.3935
-20.514
-20.3818
-20.3464
-20.1538
-20.0103
-19.6855
-19.8274
-20.1957
-19.4862
-19.6045
-20.2666
-19.0396
-18.947
-17.0394
-18.6546
-20.2066
-16.9149
-25.2773
-39.5327
-36.9666
-34.3321
-32.6933
-31.6917
-31.0778
-30.721
-30.5558
-36.0087
-31.6765
-33.6933
-29.2265
-25.2032
-27.9192
-26.2606
-23.9057
-25.9731
-25.1504
-27.0569
-25.1299
-24.1317
-26.2714
-23.9747
-21.8189
-23.7582
-22.9467
-21.6325
-22.9999
-22.5778
-23.7843
-22.6479
-22.0795
-23.3354
-22.0231
-20.8756
-21.8922
-21.5613
-22.4047
-21.584
-21.1777
-21.9886
-21.1017
-20.3435
-20.9407
-20.639
-20.2685
-20.5059
-20.3225
-20.3251
-20.0886
-19.9591
-19.5039
-19.7099
-20.3076
-19.2329
-19.414
-20.5043
-18.7016
-18.937
-15.9883
-18.2506
-20.433
-14.1109
-24.2739
-43.5165
-38.1247
-34.7135
-32.8558
-31.777
-31.1306
-30.7592
-30.5881
-37.2791
-31.0458
-35.0599
-29.2021
-23.9202
-28.562
-26.3039
-23.0105
-26.3221
-24.7561
-27.7727
-24.9934
-23.6201
-27.0875
-23.9277
-21.0008
-24.1388
-22.9699
-21.0766
-23.2067
-22.3341
-24.212
-22.5546
-21.7681
-23.7914
-21.9676
-20.4149
-22.0343
-21.3749
-22.699
-21.5082
-20.9598
-22.2805
-21.0557
-20.049
-21.0396
-20.6113
-20.1118
-20.5241
-20.2545
-20.3196
-20.0199
-19.9301
-19.2896
-19.5736
-20.5172
-18.9138
-19.1763
-20.9092
-18.2539
-19.1222
-14.6636
-17.8694
-21.1698
-10.4172
-22.7579
-48.838
-39.1135
-34.9829
-32.9631
-31.832
-31.1643
-30.7835
-30.6086
-38.8439
-29.8687
-36.9203
-29.1464
-22.1365
-29.5634
-26.4035
-21.784
-26.9289
-24.1226
-28.7822
-24.784
-22.8596
-28.2397
-23.8697
-19.8782
-24.7442
-23.0329
-20.3194
-23.5726
-21.9471
-24.8193
-22.4166
-21.3128
-24.4433
-21.8994
-19.7964
-22.2978
-21.0857
-23.1214
-21.3999
-20.6466
-22.7026
-20.9997
-19.6554
-21.2138
-20.5888
-19.9108
-20.5798
-20.1709
-20.3349
-19.9426
-19.9334
-19.033
-19.4066
-20.8606
-18.504
-18.8668
-21.5425
-17.6288
-19.5975
-12.9669
-17.5
-22.6613
-5.58787
-20.5377
-55.9364
-39.7482
-35.122
-33.0156
-31.8585
-31.1803
-30.795
-30.6183
)
;

boundaryField
{
    left
    {
        type            calculated;
        value           nonuniform List<scalar> 
32
(
-26.5304
-26.5519
-26.5929
-26.6517
-26.7271
-26.8181
-26.9243
-27.0451
-27.1806
-27.3309
-27.4962
-27.6772
-27.8744
-28.0888
-28.3214
-28.5734
-28.8462
-29.1415
-29.4611
-29.8072
-30.1822
-30.5894
-31.0327
-31.5175
-32.0511
-32.6441
-33.3109
-34.0726
-34.9584
-36.0087
-37.2791
-38.8439
)
;
    }
    right
    {
        type            calculated;
        value           nonuniform List<scalar> 
32
(
-26.3949
-26.4272
-26.4888
-26.5764
-26.6873
-26.8191
-26.9697
-27.1369
-27.3185
-27.5124
-27.7163
-27.9278
-28.1445
-28.3638
-28.5832
-28.8
-29.0116
-29.2158
-29.4102
-29.593
-29.7624
-29.9171
-30.0563
-30.1793
-30.2859
-30.3762
-30.4508
-30.5104
-30.5558
-30.5881
-30.6086
-30.6183
)
;
    }
    interface
    {
        type            calculated;
        value           nonuniform List<scalar> 
64
(
-39.7104
-29.1194
-37.9941
-29.1101
-21.1016
-30.1691
-26.4691
-21.0753
-27.3097
-23.7339
-29.3719
-24.6584
-22.407
-28.9123
-23.8374
-19.2296
-25.1125
-23.0754
-19.8827
-23.8033
-21.7104
-25.1748
-22.3347
-21.0433
-24.8256
-21.8615
-19.442
-22.4659
-20.9101
-23.3697
-21.3362
-20.4624
-22.951
-20.9685
-19.4302
-21.3228
-20.5788
-19.7975
-20.6186
-20.1242
-20.3485
-19.901
-19.9445
-18.8926
-19.3135
-21.0709
-18.2731
-18.6905
-21.9251
-17.2619
-19.9215
-12.0115
-17.316
-23.6306
-2.8555
-19.2245
-59.9917
-39.9497
-35.1571
-33.0284
-31.8649
-31.1841
-30.7978
-30.6207
)
;
    }
    bottom
    {
        type            calculated;
        value           nonuniform List<scalar> 
64
(
-26.5249
-26.4985
-26.4465
-26.3703
-26.2722
-26.1544
-26.0197
-25.871
-25.711
-25.5422
-25.3669
-25.1875
-25.0056
-24.8231
-24.6415
-24.4619
-24.2856
-24.1134
-23.9461
-23.7842
-23.6282
-23.4785
-23.3352
-23.1986
-23.0688
-22.9461
-22.8307
-22.7229
-22.6228
-22.531
-22.4477
-22.3735
-22.309
-22.2548
-22.2117
-22.1805
-22.162
-22.1572
-22.1672
-22.1929
-22.2355
-22.296
-22.3755
-22.4749
-22.5951
-22.7367
-22.9
-23.0849
-23.2908
-23.5163
-23.7593
-24.0167
-24.2848
-24.5586
-24.8326
-25.1008
-25.357
-25.5952
-25.8098
-25.9957
-26.1491
-26.2668
-26.3464
-26.3865
)
;
    }
    defaultFaces
    {
        type            empty;
    }
}


// ************************************************************************* //
