/*--------------------------------*- C++ -*----------------------------------*\
| =========                 |                                                 |
| \\      /  F ield         | OpenFOAM: The Open Source CFD Toolbox           |
|  \\    /   O peration     | Version:  5.x                                   |
|   \\  /    A nd           | Web:      www.OpenFOAM.org                      |
|    \\/     M anipulation  |                                                 |
\*---------------------------------------------------------------------------*/
FoamFile
{
    version     2.0;
    format      ascii;
    class       volScalarField;
    location    "1";
    object      gradTx;
}
// * * * * * * * * * * * * * * * * * * * * * * * * * * * * * * * * * * * * * //

dimensions      [0 -1 0 1 0 0 0];

internalField   nonuniform List<scalar> 
2048
(
0.00606647
0.0180173
0.029457
0.0400808
0.0496494
0.0580266
0.065139
0.0709826
0.0756069
0.0790949
0.0815469
0.0830674
0.0837591
0.0837193
0.0830409
0.0818131
0.0801225
0.0780522
0.0756796
0.0730734
0.0702903
0.0673732
0.0643501
0.0612355
0.0580324
0.0547347
0.0513293
0.0477977
0.0441167
0.0402586
0.0361913
0.0318795
0.0272856
0.0223713
0.0170995
0.011435
0.00534626
-0.00119383
-0.0082072
-0.0157088
-0.0237043
-0.0321866
-0.0411312
-0.0504897
-0.0601827
-0.0700916
-0.0800498
-0.0898353
-0.0991666
-0.107704
-0.115059
-0.120816
-0.124564
-0.125938
-0.124658
-0.120569
-0.113663
-0.104078
-0.092078
-0.0780199
-0.0623059
-0.0453473
-0.0275353
-0.00923157
0.0180869
0.0537025
0.0877595
0.119353
0.147768
0.172591
0.193619
0.210854
0.224456
0.234685
0.241848
0.246258
0.248222
0.248028
0.245949
0.242248
0.237182
0.230997
0.223927
0.216175
0.207913
0.199266
0.190317
0.181107
0.171643
0.161905
0.151853
0.141432
0.130573
0.119193
0.107199
0.0944827
0.0809335
0.0664364
0.05088
0.03416
0.0161825
-0.00313408
-0.0238555
-0.0460279
-0.069671
-0.0947679
-0.121251
-0.148983
-0.177737
-0.207169
-0.236792
-0.265954
-0.293821
-0.319381
-0.341468
-0.358828
-0.370213
-0.374505
-0.370849
-0.358769
-0.338237
-0.30968
-0.273912
-0.232019
-0.185225
-0.134767
-0.0818123
-0.0274251
0.0299982
0.0890315
0.145387
0.197549
0.24432
0.285023
0.319353
0.347359
0.369353
0.385798
0.397227
0.404171
0.407135
0.406587
0.40297
0.39671
0.388229
0.377936
0.366218
0.353418
0.33982
0.325632
0.310985
0.295942
0.280506
0.26464
0.248274
0.231317
0.213656
0.195156
0.17566
0.154992
0.132965
0.109388
0.0840755
0.056854
0.0275682
-0.0039171
-0.037713
-0.0739009
-0.112521
-0.153559
-0.196918
-0.242394
-0.289636
-0.338106
-0.387029
-0.435353
-0.481713
-0.524432
-0.561557
-0.590957
-0.610491
-0.618221
-0.612654
-0.592952
-0.559068
-0.511752
-0.452432
-0.382996
-0.305544
-0.222169
-0.134809
-0.0451813
0.0420333
0.124688
0.203418
0.276038
0.340859
0.396954
0.443969
0.482062
0.511759
0.533784
0.548924
0.557943
0.56154
0.560349
0.554966
0.545971
0.533941
0.519452
0.503052
0.48523
0.466386
0.446809
0.426672
0.406048
0.384929
0.363249
0.340909
0.31778
0.293708
0.268507
0.241959
0.213817
0.183815
0.151682
0.117158
0.0800011
0.0399937
-0.00305268
-0.0492968
-0.0988605
-0.151816
-0.208165
-0.267805
-0.330493
-0.395791
-0.463004
-0.531114
-0.598705
-0.663913
-0.724394
-0.777373
-0.819771
-0.848439
-0.86049
-0.853673
-0.826716
-0.779544
-0.7133
-0.63015
-0.532924
-0.424714
-0.308521
-0.187076
-0.0626808
0.0544057
0.161288
0.262804
0.356014
0.438708
0.509744
0.568785
0.616194
0.652803
0.679666
0.697875
0.708437
0.712237
0.710057
0.702621
0.690643
0.674858
0.656012
0.634826
0.61195
0.587907
0.563066
0.537635
0.51168
0.485166
0.457992
0.430019
0.401087
0.371002
0.339531
0.306395
0.271273
0.233814
0.193664
0.150484
0.103961
0.0538191
-0.000184394
-0.0582572
-0.120568
-0.187234
-0.25829
-0.333657
-0.413085
-0.49609
-0.581874
-0.669228
-0.756429
-0.841142
-0.920367
-0.990457
-1.04728
-1.08651
-1.10412
-1.09691
-1.06306
-1.00246
-0.91674
-0.80901
-0.683256
-0.543737
-0.394456
-0.238951
-0.0800286
0.0673191
0.199413
0.324429
0.438558
0.539037
0.624549
0.694879
0.750719
0.793329
0.824191
0.844753
0.856279
0.859825
0.856281
0.846468
0.831216
0.81141
0.787979
0.761843
0.733831
0.704605
0.674612
0.644079
0.613049
0.581435
0.549086
0.515822
0.481451
0.445749
0.408445
0.369195
0.327599
0.283214
0.235593
0.184313
0.128993
0.0692977
0.00493443
-0.0643545
-0.138791
-0.218548
-0.303719
-0.394272
-0.48999
-0.590393
-0.694638
-0.801394
-0.9087
-1.01381
-1.11307
-1.20191
-1.27502
-1.32669
-1.35146
-1.34494
-1.30456
-1.23016
-1.12403
-0.990485
-0.834988
-0.663215
-0.480292
-0.290577
-0.0972618
0.0809756
0.239638
0.389151
0.524695
0.642911
0.742376
0.823133
0.886372
0.933939
0.967862
0.990006
1.0019
1.00473
0.99945
0.986927
0.968077
0.943935
0.915635
0.884328
0.851056
0.816637
0.781599
0.746167
0.710327
0.673918
0.636716
0.598495
0.55904
0.518113
0.475409
0.430526
0.382971
0.332198
0.277656
0.218831
0.155273
0.0865954
0.0124593
-0.0674404
-0.153384
-0.245614
-0.344301
-0.449495
-0.561048
-0.678538
-0.801143
-0.927496
-1.05548
-1.18202
-1.30286
-1.41247
-1.50417
-1.57061
-1.60456
-1.60004
-1.55352
-1.4647
-1.33678
-1.17565
-0.988706
-0.783372
-0.566048
-0.341902
-0.114353
0.0955846
0.282551
0.457838
0.615427
0.75133
0.864112
0.954262
1.02369
1.07502
1.11097
1.13388
1.14556
1.14724
1.13989
1.12433
1.10154
1.07271
1.03919
1.00244
0.963742
0.924106
0.884133
0.844023
0.803666
0.762779
0.721045
0.678188
0.633987
0.588212
0.540539
0.490505
0.437516
0.3809
0.319986
0.254163
0.182912
0.105805
0.022469
-0.0674447
-0.164278
-0.268355
-0.379948
-0.499216
-0.626122
-0.760351
-0.901178
-1.0473
-1.19656
-1.34566
-1.4898
-1.62249
-1.73554
-1.81961
-1.86522
-1.86434
-1.81206
-1.70793
-1.55629
-1.36523
-1.14461
-0.904072
-0.651453
-0.392692
-0.13121
0.111369
0.328778
0.531387
0.711764
0.865251
0.990547
1.08883
1.16301
1.21674
1.2536
1.27647
1.28737
1.28755
1.27784
1.25895
1.23188
1.19794
1.15882
1.11628
1.07195
1.02706
0.982281
0.937748
0.893195
0.848169
0.802222
0.755031
0.706394
0.656124
0.603904
0.549208
0.491318
0.429411
0.362672
0.290383
0.211964
0.12696
0.0349773
-0.0643644
-0.17147
-0.286759
-0.410629
-0.543373
-0.685105
-0.835665
-0.994501
-1.16047
-1.33154
-1.50434
-1.67365
-1.83203
-1.96963
-2.07474
-2.13507
-2.13984
-2.08225
-1.96156
-1.78367
-1.5596
-1.30254
-1.02482
-0.735956
-0.442534
-0.147684
0.128572
0.37899
0.610754
0.814743
0.985612
1.12239
1.22728
1.30453
1.35912
1.39567
1.41768
1.42734
1.42576
1.41348
1.39103
1.35931
1.31983
1.27463
1.2259
1.17569
1.1255
1.07608
1.02742
0.97904
0.930236
0.880394
0.82914
0.776336
0.721896
0.665541
0.606676
0.544431
0.477793
0.405773
0.327533
0.242443
0.150042
0.0499426
-0.0582544
-0.175015
-0.300871
-0.436364
-0.581954
-0.737932
-0.904335
-1.08086
-1.26665
-1.45994
-1.6575
-1.8539
-2.04083
-2.20665
-2.33686
-2.41562
-2.42854
-2.36616
-2.22724
-2.0198
-1.75884
-1.46193
-1.14479
-0.818736
-0.490852
-0.163568
0.147462
0.433927
0.696966
0.925447
1.11334
1.26027
1.36991
1.44825
1.50195
1.53692
1.55731
1.56537
1.56189
1.54699
1.52079
1.48407
1.43855
1.3867
1.33131
1.27492
1.21939
1.16552
1.11311
1.06133
1.00914
0.95571
0.900622
0.843866
0.78554
0.72545
0.662922
0.596884
0.526087
0.449326
0.365627
0.274325
0.174991
0.0672759
-0.0492199
-0.175021
-0.310784
-0.457225
-0.614996
-0.784586
-0.966258
-1.16001
-1.36541
-1.58115
-1.8044
-2.02979
-2.24832
-2.44649
-2.60656
-2.70828
-2.73248
-2.66599
-2.50668
-2.26541
-1.9627
-1.62185
-1.26278
-0.898715
-0.536916
-0.178605
0.168337
0.494403
0.79114
1.04502
1.24934
1.40476
1.51691
1.59402
1.6449
1.67694
1.69502
1.70128
1.69597
1.67851
1.64846
1.60638
1.55424
1.49511
1.43247
1.36956
1.30865
1.25059
1.19488
1.14019
1.08505
1.02833
0.96958
0.909014
0.847038
0.783603
0.717933
0.648691
0.574323
0.493357
0.404659
0.30756
0.201714
0.0868475
-0.0374097
-0.171637
-0.316635
-0.473327
-0.642586
-0.825107
-1.02138
-1.23177
-1.45636
-1.69454
-1.94417
-2.20033
-2.45364
-2.68876
-2.88422
-3.01439
-3.05383
-2.98412
-2.80163
-2.52109
-2.17056
-1.78097
-1.37726
-0.974581
-0.579871
-0.192501
0.191533
0.561322
0.894493
1.17467
1.39454
1.55632
1.66831
1.74156
1.78743
1.81518
1.83039
1.83486
1.82796
1.80819
1.7743
1.72649
1.66706
1.59988
1.52933
1.45948
1.39316
1.33126
1.27279
1.21577
1.15816
1.09845
1.03612
0.971787
0.906335
0.839942
0.771682
0.699855
0.622526
0.537887
0.444615
0.342078
0.230086
0.108493
-0.0230098
-0.165049
-0.318596
-0.484825
-0.664859
-0.859596
-1.06974
-1.296
-1.53913
-1.79943
-2.07582
-2.36431
-2.65563
-2.93271
-3.16996
-3.33519
-3.3949
-3.32324
-3.11401
-2.78724
-2.38145
-1.93753
-1.48638
-1.04482
-0.618763
-0.204932
0.217425
0.635683
1.00836
1.31568
1.54983
1.71535
1.82405
1.8904
1.92887
1.95094
1.96289
1.96582
1.95784
1.93621
1.89861
1.84465
1.77716
1.70106
1.62179
1.5445
1.47276
1.40746
1.34692
1.28826
1.22871
1.16627
1.10036
1.03217
0.963341
0.894382
0.824124
0.750371
0.670722
0.582944
0.485474
0.37779
0.259959
0.13202
-0.00623829
-0.155476
-0.31687
-0.491903
-0.681991
-0.888215
-1.11141
-1.35264
-1.61343
-1.8952
-2.1983
-2.52034
-2.85282
-3.17729
-3.46359
-3.67183
-3.75823
-3.68646
-3.446
-3.06411
-2.59393
-2.08932
-1.58796
-1.10777
-0.652582
-0.215562
0.246435
0.71859
1.13419
1.46943
1.7161
1.88213
1.98394
2.03996
2.06838
2.08339
2.09194
2.09391
2.08558
2.0628
2.02172
1.96116
1.8847
1.79867
1.70972
1.62438
1.54724
1.47912
1.41735
1.35783
1.29696
1.23206
1.16241
1.0901
1.01792
0.946811
0.87521
0.800236
0.718945
0.628567
0.527216
0.414592
0.291164
0.15721
0.0126596
-0.143161
-0.311677
-0.494766
-0.694193
-0.911188
-1.1466
-1.40176
-1.67907
-1.98127
-2.31053
-2.66687
-3.04348
-3.42106
-3.7646
-4.02528
-4.1466
-4.07744
-3.80006
-3.35171
-2.80605
-2.23366
-1.67957
-1.16166
-0.680309
-0.224063
0.279041
0.811254
1.27355
1.63738
1.89417
2.05682
2.14768
2.18951
2.20497
2.2116
2.21693
2.21885
2.21118
2.18819
2.14409
2.07636
1.98983
1.89272
1.79298
1.69887
1.61635
1.54618
1.48421
1.42471
1.36321
1.29612
1.22241
1.14551
1.0699
0.997095
0.92489
0.849444
0.767237
0.674818
0.569825
0.452365
0.323517
0.183825
0.0334152
-0.128365
-0.303252
-0.493629
-0.701699
-0.928796
-1.17557
-1.44349
-1.73596
-2.05719
-2.41146
-2.8022
-3.2256
-3.66224
-4.07205
-4.39625
-4.56306
-4.50058
-4.17908
-3.64976
-3.01524
-2.3674
-1.75855
-1.2047
-0.700969
-0.230129
0.315786
0.914989
1.42815
1.82113
2.08483
2.23941
2.31485
2.33824
2.3375
2.33451
2.33719
2.34041
2.33462
2.31268
2.26623
2.19061
2.09268
1.98324
1.87141
1.76761
1.6798
1.60856
1.54763
1.48913
1.4278
1.35884
1.28051
1.19824
1.11902
1.04508
0.973127
0.89799
0.815652
0.721792
0.613291
0.490973
0.356822
0.211614
0.055739
-0.111366
-0.291832
-0.488706
-0.704755
-0.941374
-1.19871
-1.47809
-1.78414
-2.12264
-2.50011
-2.92457
-3.3969
-3.89869
-4.38458
-4.78505
-5.01091
-4.96124
-4.58647
-3.95753
-3.21819
-2.4869
-1.82214
-1.23518
-0.713689
-0.2335
0.357306
1.0312
1.59979
2.0224
2.28872
2.42969
2.48501
2.48525
2.46469
2.45092
2.45211
2.45845
2.45587
2.43659
2.38882
2.30429
2.19332
2.0703
1.94485
1.83021
1.73722
1.6662
1.60781
1.55131
1.4911
1.42069
1.33687
1.24808
1.16498
1.09059
1.01991
0.945861
0.864252
0.769631
0.65761
0.530255
0.390874
0.240316
0.0793226
-0.0924547
-0.277656
-0.480196
-0.703603
-0.949302
-1.21647
-1.50591
-1.8238
-2.17754
-2.57559
-3.03212
-3.5549
-4.12796
-4.70036
-5.19139
-5.49368
-5.46606
-5.02632
-4.27368
-3.4107
-2.58804
-1.86749
-1.25153
-0.717759
-0.233979
0.404361
1.16138
1.79035
2.24312
2.50637
2.62715
2.65768
2.62961
2.58511
2.55956
2.56108
2.57296
2.57486
2.56025
2.51271
2.4178
2.29176
2.15401
2.01313
1.88618
1.78817
1.71906
1.66505
1.61147
1.55349
1.48229
1.39168
1.29475
1.20738
1.13347
1.06528
0.993029
0.913101
0.818545
0.702784
0.570012
0.425476
0.269666
0.103839
-0.0719303
-0.260954
-0.468278
-0.698464
-0.952997
-1.22943
-1.52736
-1.85525
-2.22204
-2.63721
-3.12301
-3.69692
-4.34734
-5.01706
-5.6141
-6.01501
-6.02335
-5.50353
-4.59596
-3.58754
-2.66632
-1.8919
-1.25244
-0.712675
-0.231447
0.457906
1.30703
2.00173
2.48552
2.73807
2.83091
2.83249
2.77039
2.69712
2.65898
2.66359
2.68412
2.69138
2.68395
2.63903
2.53151
2.38785
2.23459
2.07615
1.93493
1.83214
1.76713
1.71974
1.66974
1.61537
1.54442
1.44517
1.33781
1.24571
1.17356
1.10936
1.03942
0.962252
0.868845
0.748811
0.609994
0.460443
0.299404
0.128939
-0.0501006
-0.241948
-0.453092
-0.689519
-0.952908
-1.23826
-1.54292
-1.8789
-2.25659
-2.68446
-3.19536
-3.82008
-4.55394
-5.33194
-6.05078
-6.57846
-6.64361
-6.02398
-4.92082
-3.74225
-2.71693
-1.89286
-1.23696
-0.698191
-0.225872
0.519198
1.46965
2.23577
2.75229
2.98377
3.03958
3.00929
2.9067
2.79894
2.74759
2.75922
2.79244
2.80504
2.80793
2.7693
2.64573
2.48119
2.31245
2.13382
1.97576
1.86848
1.81044
1.77244
1.72614
1.67706
1.60813
1.49757
1.37669
1.27938
1.2107
1.15239
1.0849
1.01173
0.920989
0.795679
0.649865
0.49563
0.32928
0.154248
-0.0272792
-0.220848
-0.434742
-0.676884
-0.949499
-1.24378
-1.55307
-1.89521
-2.28204
-2.71711
-3.24734
-3.92136
-4.74484
-5.64201
-6.49728
-7.18723
-7.34029
-6.5948
-5.24287
-3.86706
-2.73491
-1.8683
-1.20457
-0.67434
-0.217316
0.589982
1.65065
2.4941
3.04681
3.24302
3.25104
3.18834
3.03778
2.8885
2.82363
2.84768
2.89888
2.91507
2.93224
2.90563
2.76062
2.57106
2.38827
2.18614
2.00779
1.89644
1.84911
1.824
1.78048
1.73882
1.67482
1.54911
1.41064
1.30763
1.24479
1.19483
1.12919
1.06148
0.975647
0.843345
0.68917
0.530964
0.359061
0.179357
-0.00378254
-0.197853
-0.413283
-0.660585
-0.943242
-1.24699
-1.55824
-1.90462
-2.29972
-2.73517
-3.27718
-3.99755
-4.91722
-5.94433
-6.94713
-7.84362
-8.13077
-7.22451
-5.55412
-3.95277
-2.71541
-1.81671
-1.15526
-0.641445
-0.205935
0.672771
1.8512
2.77791
3.37353
3.51471
3.46221
3.37068
3.16297
2.96348
2.88512
2.92885
3.0051
3.02018
3.05665
3.05098
2.87613
2.65614
2.46324
2.23317
2.02996
1.9151
1.88329
1.87564
1.83222
1.80071
1.74642
1.60002
1.43862
1.32958
1.27579
1.23741
1.17182
1.11135
1.0338
0.891702
0.727276
0.566494
0.388535
0.20381
0.0200755
-0.173157
-0.388728
-0.640524
-0.93459
-1.2491
-1.55874
-1.90747
-2.31152
-2.73897
-3.28317
-4.04522
-5.06848
-6.2365
-7.39075
-8.54836
-9.03758
-7.92331
-5.84301
-3.98874
-2.65397
-1.73732
-1.08955
-0.600113
-0.191966
0.771284
2.07207
3.0876
3.73851
3.79692
3.66868
3.55846
3.28175
3.02117
2.9298
3.00272
3.11375
3.11823
3.18051
3.20954
2.99181
2.73438
2.53923
2.27505
2.04095
1.92335
1.91319
1.92917
1.88033
1.86253
1.82554
1.65046
1.45935
1.34418
1.30365
1.28128
1.212
1.16103
1.09689
0.940533
0.763305
0.602463
0.41751
0.227084
0.0439942
-0.146954
-0.361055
-0.61645
-0.923951
-1.25169
-1.5547
-1.9038
-2.3201
-2.72912
-3.26371
-4.06061
-5.19639
-6.51749
-7.81459
-9.29957
-10.0901
-8.70325
-6.09312
-3.96311
-2.54688
-1.63026
-1.00851
-0.551209
-0.17572
0.891078
2.31343
3.42229
4.15018
4.0865
3.86422
3.75564
3.39363
3.05846
2.95515
3.06934
3.22891
3.20589
3.30247
3.38727
3.10664
2.80262
2.61921
2.31193
2.03915
1.91989
1.93902
1.98722
1.92306
1.9237
1.91582
1.70039
1.47114
1.35027
1.32839
1.3282
1.24849
1.20994
1.16698
0.989441
0.796033
0.639413
0.445802
0.248571
0.0677024
-0.119445
-0.330224
-0.587917
-0.911637
-1.25678
-1.54597
-1.89318
-2.32909
-2.70642
-3.21737
-4.0395
-5.29912
-6.78874
-8.20004
-10.0914
-11.3269
-9.57843
-6.28149
-3.86318
-2.39166
-1.49665
-0.913723
-0.495806
-0.157563
1.04045
2.57455
3.77918
4.62039
4.37876
4.04022
3.96869
3.49803
3.0717
2.95838
3.12866
3.3567
3.27815
3.42023
3.59255
3.21871
2.85623
2.70767
2.34387
2.02259
1.9032
1.96092
2.05361
1.95766
1.98301
2.02222
1.74948
1.47194
1.34653
1.34995
1.38076
1.27942
1.25715
1.24702
1.03775
0.82378
0.67833
0.473213
0.26754
0.0909847
-0.0908509
-0.296202
-0.554246
-0.89779
-1.26705
-1.53201
-1.87446
-2.34334
-2.6718
-3.14298
-3.97703
-5.37512
-7.05571
-8.52223
-10.9119
-12.7981
-10.5651
-6.37665
-3.67611
-2.18751
-1.33865
-0.807204
-0.435131
-0.137896
1.23165
2.85337
4.15259
5.16578
4.66679
4.18492
4.20772
3.59394
3.05668
2.9364
3.18028
3.50602
3.32776
3.53018
3.83716
3.32489
2.88858
2.8113
2.37065
1.98891
1.8716
1.97878
2.13377
1.98003
2.03852
2.15155
1.79686
1.45927
1.33157
1.36816
1.44272
1.30202
1.30122
1.34117
1.08437
0.844261
0.720824
0.49948
0.283108
0.113719
-0.0614255
-0.259008
-0.514487
-0.882274
-1.28609
-1.51181
-1.84537
-2.36939
-2.62607
-3.03976
-3.86741
-5.42283
-7.32992
-8.74871
-11.7412
-14.5691
-11.6814
-6.33608
-3.39011
-1.93575
-1.15944
-0.691319
-0.370503
-0.117132
1.48255
3.14608
4.53278
5.80958
4.94084
4.2825
4.48776
3.67948
3.00862
2.88593
3.22303
3.68955
3.34441
3.62686
4.1373
3.42028
2.89049
2.93978
2.3915
1.93534
1.82322
1.992
2.2354
1.98426
2.08719
2.31305
1.84079
1.43018
1.30399
1.38251
1.51937
1.31232
1.34007
1.4552
1.1276
0.854418
0.769378
0.524199
0.294199
0.135927
-0.0314704
-0.218758
-0.467384
-0.864523
-1.31871
-1.48378
-1.80216
-2.41592
-2.56966
-2.90758
-3.70376
-5.44003
-7.63163
-8.83806
-12.5474
-16.7248
-12.9477
-6.10328
-2.99605
-1.6402
-0.963102
-0.568646
-0.303261
-0.0956831
1.81873
3.44645
4.90448
6.58386
5.18735
4.31197
4.83048
3.75112
2.92213
2.80368
3.25434
3.92506
3.31395
3.70247
4.51508
3.49766
2.84951
3.10682
2.40464
1.85867
1.75621
1.99912
2.36914
1.96214
2.12466
2.5191
1.87825
1.38135
1.26248
1.39191
1.6181
1.30481
1.37076
1.59699
1.16492
0.850225
0.827651
0.546718
0.299505
0.15784
-0.00135293
-0.175733
-0.41136
-0.843331
-1.37126
-1.44563
-1.73901
-2.49442
-2.5021
-2.74731
-3.47776
-5.42281
-7.99298
-8.73847
-13.2838
-19.3742
-14.3853
-5.60434
-2.48978
-1.30742
-0.754403
-0.441836
-0.234699
-0.0739357
2.2761
3.74516
5.24495
7.53224
5.38784
4.24592
5.26624
3.80269
2.79138
2.68656
3.26941
4.23694
3.21723
3.7461
5.00005
3.54669
2.74911
3.33142
2.40664
1.75537
1.66877
1.99734
2.54957
1.90249
2.1448
2.78614
1.90433
1.30909
1.206
1.39437
1.74898
1.272
1.38929
1.77708
1.19268
0.826469
0.900845
0.565975
0.297444
0.179982
0.0284755
-0.130447
-0.344511
-0.816577
-1.45219
-1.39435
-1.64738
-2.62004
-2.42143
-2.56125
-3.17952
-5.36408
-8.46188
-8.38633
-13.8836
-22.6569
-16.0165
-4.74411
-1.87503
-0.946667
-0.538529
-0.313473
-0.16602
-0.0522409
2.90407
4.0289
5.52184
8.71312
5.51759
4.04908
5.83651
3.82406
2.61032
2.53204
3.26004
4.65803
3.02901
3.743
5.63119
3.55303
2.56779
3.63938
2.39165
1.62168
1.55949
1.98182
2.79625
1.79046
2.1394
3.13566
1.91157
1.20957
1.13398
1.38645
1.92555
1.20388
1.39027
2.0094
1.20574
0.776515
0.99614
0.580289
0.286135
0.203261
0.0574588
-0.0837327
-0.264635
-0.780881
-1.57245
-1.32609
-1.51526
-2.81257
-2.32337
-2.35374
-2.7975
-5.25146
-9.10647
-7.70507
-14.2546
-26.7489
-17.8627
-3.40197
-1.16721
-0.569549
-0.32074
-0.185943
-0.0982826
-0.0309039
3.76936
4.27942
5.69061
10.2034
5.54402
3.67678
6.59665
3.79934
2.37298
2.3387
3.2132
5.23184
2.71657
3.67365
6.45896
3.49732
2.27812
4.06498
2.35031
1.45382
1.4276
1.94481
3.13506
1.60675
2.09764
3.59543
1.88897
1.07899
1.04655
1.36267
2.16568
1.08741
1.36676
2.312
1.19705
0.692065
1.12319
0.587098
0.263377
0.22908
0.0849143
-0.036816
-0.169293
-0.731183
-1.74612
-1.23619
-1.32628
-3.09769
-2.20022
-2.13195
-2.31855
-5.06456
-10.02
-6.60412
-14.2732
-31.8706
-19.9433
-1.42734
-0.397797
-0.18922
-0.105999
-0.0613298
-0.0323832
-0.0101796
)
;

boundaryField
{
    left
    {
        type            calculated;
        value           uniform 0;
    }
    right
    {
        type            calculated;
        value           uniform 0;
    }
    interface
    {
        type            calculated;
        value           nonuniform List<scalar> 
64
(
3.76936
4.27942
5.69061
10.2034
5.54402
3.67678
6.59665
3.79934
2.37298
2.3387
3.2132
5.23184
2.71657
3.67365
6.45896
3.49732
2.27812
4.06498
2.35031
1.45382
1.4276
1.94481
3.13506
1.60675
2.09764
3.59543
1.88897
1.07899
1.04655
1.36267
2.16568
1.08741
1.36676
2.312
1.19705
0.692065
1.12319
0.587098
0.263377
0.22908
0.0849143
-0.036816
-0.169293
-0.731183
-1.74612
-1.23619
-1.32628
-3.09769
-2.20022
-2.13195
-2.31855
-5.06456
-10.02
-6.60412
-14.2732
-31.8706
-19.9433
-1.42734
-0.397797
-0.18922
-0.105999
-0.0613298
-0.0323832
-0.0101796
)
;
    }
    bottom
    {
        type            calculated;
        value           nonuniform List<scalar> 
64
(
0.00606647
0.0180173
0.029457
0.0400808
0.0496494
0.0580266
0.065139
0.0709826
0.0756069
0.0790949
0.0815469
0.0830674
0.0837591
0.0837193
0.0830409
0.0818131
0.0801225
0.0780522
0.0756796
0.0730734
0.0702903
0.0673732
0.0643501
0.0612355
0.0580324
0.0547347
0.0513293
0.0477977
0.0441167
0.0402586
0.0361913
0.0318795
0.0272856
0.0223713
0.0170995
0.011435
0.00534626
-0.00119383
-0.0082072
-0.0157088
-0.0237043
-0.0321866
-0.0411312
-0.0504897
-0.0601827
-0.0700916
-0.0800498
-0.0898353
-0.0991666
-0.107704
-0.115059
-0.120816
-0.124564
-0.125938
-0.124658
-0.120569
-0.113663
-0.104078
-0.092078
-0.0780199
-0.0623059
-0.0453473
-0.0275353
-0.00923157
)
;
    }
    defaultFaces
    {
        type            empty;
    }
}


// ************************************************************************* //
