/*--------------------------------*- C++ -*----------------------------------*\
| =========                 |                                                 |
| \\      /  F ield         | OpenFOAM: The Open Source CFD Toolbox           |
|  \\    /   O peration     | Version:  5.x                                   |
|   \\  /    A nd           | Web:      www.OpenFOAM.org                      |
|    \\/     M anipulation  |                                                 |
\*---------------------------------------------------------------------------*/
FoamFile
{
    version     2.0;
    format      ascii;
    class       volScalarField;
    location    "1";
    object      T;
}
// * * * * * * * * * * * * * * * * * * * * * * * * * * * * * * * * * * * * * //

dimensions      [0 0 0 1 0 0 0];

internalField   nonuniform List<scalar> 
2048
(
9.80944
9.80963
9.81
9.81055
9.81125
9.8121
9.81307
9.81414
9.81529
9.8165
9.81776
9.81905
9.82035
9.82166
9.82297
9.82426
9.82553
9.82676
9.82796
9.82913
9.83025
9.83132
9.83235
9.83334
9.83427
9.83515
9.83598
9.83675
9.83747
9.83813
9.83873
9.83926
9.83973
9.84012
9.84043
9.84065
9.84078
9.84082
9.84075
9.84056
9.84025
9.83982
9.83925
9.83853
9.83767
9.83665
9.83548
9.83415
9.83267
9.83105
9.82931
9.82746
9.82553
9.82356
9.8216
9.81967
9.81783
9.81612
9.81458
9.81324
9.81214
9.81129
9.81072
9.81043
9.43649
9.43706
9.43817
9.4398
9.4419
9.44442
9.44729
9.45047
9.45388
9.45748
9.46122
9.46504
9.46891
9.4728
9.47666
9.48048
9.48423
9.4879
9.49145
9.49489
9.49821
9.50139
9.50443
9.50734
9.51009
9.5127
9.51515
9.51745
9.51957
9.52153
9.5233
9.52488
9.52625
9.52741
9.52833
9.529
9.52939
9.5295
9.5293
9.52876
9.52786
9.52658
9.5249
9.52279
9.52024
9.51724
9.51377
9.50984
9.50546
9.50065
9.49548
9.48998
9.48426
9.47841
9.47256
9.46683
9.46135
9.45626
9.45167
9.4477
9.44442
9.44191
9.44021
9.43935
9.07943
9.08037
9.08221
9.08491
9.08839
9.09255
9.09729
9.10253
9.10815
9.11407
9.1202
9.12648
9.13283
9.1392
9.14554
9.1518
9.15794
9.16393
9.16975
9.17537
9.18079
9.18599
9.19097
9.19571
9.20022
9.20448
9.20849
9.21224
9.21571
9.21891
9.22181
9.2244
9.22666
9.22856
9.23008
9.23118
9.23185
9.23205
9.23173
9.23087
9.22942
9.22735
9.22462
9.2212
9.21705
9.21215
9.20648
9.20005
9.19288
9.185
9.17649
9.16745
9.15802
9.14837
9.1387
9.12923
9.12017
9.11176
9.10418
9.09762
9.09221
9.08807
9.08527
9.08386
8.73734
8.73865
8.74123
8.74501
8.74986
8.75566
8.76227
8.76953
8.77733
8.78553
8.79401
8.80268
8.81145
8.82023
8.82896
8.83757
8.84602
8.85426
8.86225
8.86998
8.87741
8.88455
8.89138
8.89789
8.90407
8.90991
8.91542
8.92057
8.92535
8.92975
8.93374
8.93731
8.94042
8.94305
8.94516
8.94671
8.94766
8.94796
8.94757
8.94642
8.94448
8.94168
8.93797
8.93331
8.92764
8.92094
8.91317
8.90434
8.89447
8.8836
8.87183
8.8593
8.84621
8.83279
8.81932
8.80611
8.79348
8.78175
8.77119
8.76206
8.75454
8.74879
8.7449
8.74294
8.40938
8.41108
8.41442
8.41929
8.42554
8.433
8.44147
8.45077
8.46073
8.47118
8.48197
8.49298
8.50411
8.51524
8.5263
8.5372
8.54788
8.55829
8.56838
8.57813
8.5875
8.5965
8.6051
8.6133
8.62109
8.62846
8.6354
8.6419
8.64794
8.65349
8.65855
8.66307
8.66702
8.67037
8.67307
8.67508
8.67632
8.67676
8.67632
8.67494
8.67255
8.66909
8.66448
8.65866
8.65157
8.64316
8.63339
8.62224
8.60975
8.59596
8.58099
8.56501
8.54826
8.53105
8.51376
8.49677
8.48053
8.46545
8.45189
8.44017
8.43053
8.42317
8.41821
8.41571
8.09478
8.09688
8.10101
8.10702
8.11472
8.12387
8.13423
8.14558
8.15769
8.17037
8.18345
8.19677
8.21021
8.22364
8.23697
8.25009
8.26294
8.27545
8.28757
8.29926
8.3105
8.32128
8.33158
8.34141
8.35074
8.35958
8.3679
8.37569
8.38294
8.38962
8.39571
8.40116
8.40595
8.41001
8.41331
8.41577
8.41734
8.41794
8.41749
8.41593
8.41316
8.4091
8.40366
8.39678
8.38835
8.37833
8.36664
8.35328
8.33825
8.3216
8.30346
8.28404
8.26362
8.24258
8.22139
8.20055
8.18062
8.16211
8.14549
8.13116
8.1194
8.11043
8.10439
8.10135
7.79283
7.79536
7.80032
7.80753
7.81672
7.82762
7.83992
7.85334
7.86762
7.88252
7.89786
7.91346
7.92917
7.94486
7.96041
7.9757
7.99066
8.0052
8.01927
8.03283
8.04587
8.05835
8.07029
8.08167
8.09249
8.10273
8.11239
8.12144
8.12986
8.13763
8.14471
8.15108
8.15668
8.16146
8.16536
8.1683
8.17021
8.17101
8.1706
8.1689
8.16581
8.16122
8.15505
8.14718
8.13751
8.12597
8.11248
8.09699
8.07949
8.06005
8.03878
8.01591
7.99178
7.96683
7.94163
7.91683
7.89309
7.87106
7.85131
7.83432
7.82041
7.80984
7.80272
7.79915
7.50287
7.50586
7.5117
7.52017
7.53093
7.54365
7.55794
7.57347
7.58993
7.60706
7.62464
7.64249
7.66044
7.67835
7.69607
7.71348
7.73049
7.747
7.76296
7.77833
7.79308
7.80721
7.82071
7.83358
7.84582
7.85742
7.86836
7.87861
7.88817
7.897
7.90506
7.91232
7.91873
7.92423
7.92873
7.93217
7.93445
7.93548
7.93515
7.93337
7.93002
7.92498
7.91814
7.90938
7.89858
7.88562
7.87042
7.85289
7.83302
7.81084
7.78647
7.76014
7.73223
7.70328
7.67394
7.64501
7.61732
7.59164
7.56868
7.54898
7.53291
7.52073
7.51255
7.50845
7.22427
7.22775
7.23455
7.24436
7.25679
7.2714
7.28775
7.30542
7.32409
7.34345
7.36326
7.38334
7.40349
7.42357
7.44343
7.46292
7.48192
7.50035
7.51814
7.53524
7.55163
7.56733
7.58233
7.59664
7.61024
7.62314
7.63531
7.64674
7.65739
7.66724
7.67626
7.6844
7.69161
7.69782
7.70295
7.7069
7.70957
7.71086
7.71066
7.70885
7.70531
7.69989
7.69247
7.68291
7.67106
7.6568
7.63999
7.62053
7.59837
7.57352
7.54607
7.51627
7.48452
7.45143
7.4178
7.38456
7.35273
7.32327
7.29699
7.27453
7.25629
7.2425
7.23329
7.22867
6.95646
6.96047
6.9683
6.97956
6.99376
7.01036
7.02883
7.04871
7.0696
7.09119
7.11322
7.13549
7.15782
7.18004
7.20199
7.22351
7.24447
7.26476
7.2843
7.30307
7.32104
7.33824
7.35467
7.37035
7.38526
7.39942
7.41278
7.42533
7.43704
7.44789
7.45784
7.46684
7.47485
7.48178
7.48753
7.49201
7.49511
7.4967
7.49667
7.49488
7.4912
7.48548
7.47756
7.46729
7.4545
7.43903
7.42072
7.39945
7.3751
7.34765
7.31717
7.28387
7.24821
7.21085
7.17272
7.13496
7.09878
7.06535
7.03566
7.01039
6.98997
6.97462
6.96439
6.95928
6.69887
6.70348
6.71243
6.72526
6.74135
6.76005
6.78073
6.80286
6.82599
6.8498
6.87402
6.89846
6.92294
6.94727
6.97128
6.9948
7.01766
7.03975
7.06099
7.08135
7.10083
7.11946
7.13726
7.15424
7.17042
7.18578
7.20029
7.21392
7.22666
7.23847
7.24933
7.25919
7.26798
7.27563
7.28202
7.28705
7.2906
7.29252
7.2927
7.29098
7.28723
7.28127
7.27294
7.26205
7.24842
7.23186
7.21217
7.18919
7.16276
7.1328
7.09933
7.06254
7.02288
6.98109
6.93824
6.8957
6.85493
6.81736
6.78414
6.75603
6.73345
6.71657
6.70537
6.69979
6.45099
6.45625
6.46644
6.48098
6.4991
6.52002
6.543
6.56742
6.59281
6.61882
6.64522
6.67179
6.69838
6.72479
6.75083
6.77631
6.80103
6.82488
6.84776
6.86964
6.89056
6.91054
6.92964
6.94788
6.96527
6.98179
6.9974
7.01208
7.02581
7.03855
7.0503
7.06099
7.07057
7.07894
7.08599
7.09158
7.0956
7.09789
7.09831
7.09672
7.09295
7.08682
7.07816
7.06674
7.05237
7.03482
7.01388
6.98931
6.96092
6.92856
6.89216
6.85188
6.80814
6.76175
6.71394
6.66632
6.62069
6.57877
6.5419
6.51094
6.48625
6.4679
6.45579
6.44978
6.21233
6.21832
6.22988
6.24627
6.26658
6.28985
6.31522
6.34199
6.36964
6.39784
6.42637
6.45504
6.48371
6.51217
6.54021
6.56761
6.59416
6.61971
6.64416
6.6675
6.68977
6.71104
6.73137
6.75081
6.76936
6.787
6.80369
6.81938
6.83406
6.84771
6.86031
6.87182
6.88218
6.89128
6.89899
6.90517
6.90968
6.91236
6.91307
6.91164
6.90791
6.90168
6.89276
6.88091
6.8659
6.84748
6.8254
6.79938
6.76916
6.73451
6.69528
6.65152
6.60363
6.55246
6.49941
6.44637
6.39556
6.34906
6.30845
6.27464
6.24791
6.22819
6.21526
6.20885
5.98242
5.98922
6.00229
6.02073
6.0434
6.06916
6.09701
6.12616
6.15608
6.18644
6.21705
6.24778
6.27848
6.30896
6.33899
6.36829
6.39663
6.42383
6.44979
6.47451
6.49806
6.52054
6.54204
6.56263
6.5823
6.60102
6.61874
6.63541
6.651
6.66551
6.67895
6.69127
6.7024
6.71223
6.72062
6.7274
6.73242
6.73552
6.73655
6.73533
6.73169
6.72543
6.71632
6.70411
6.68856
6.66938
6.64629
6.61896
6.58706
6.55027
6.5083
6.46111
6.40901
6.35288
6.29427
6.23543
6.17907
6.12775
6.08331
6.04668
6.01802
5.99706
5.9834
5.97667
5.76081
5.76851
5.78327
5.80396
5.82919
5.85759
5.88801
5.91958
5.95175
5.98422
6.01686
6.04959
6.0823
6.11477
6.14676
6.17795
6.20804
6.23684
6.26425
6.29027
6.31501
6.33862
6.36124
6.38292
6.40367
6.42345
6.44217
6.45977
6.47624
6.49158
6.50582
6.51893
6.53083
6.5414
6.55047
6.55788
6.56343
6.56697
6.56834
6.56737
6.56387
6.55763
6.54841
6.53594
6.51993
6.50011
6.47613
6.44763
6.41421
6.37543
6.33087
6.28032
6.22397
6.16268
6.09818
6.0331
5.97076
5.91434
5.86602
5.82666
5.79621
5.77417
5.75991
5.75291
5.54708
5.5558
5.57243
5.5956
5.6236
5.65479
5.68787
5.7219
5.7563
5.79081
5.82541
5.86009
5.89475
5.92919
5.96313
5.99619
6.02801
6.05837
6.08716
6.1144
6.14025
6.16491
6.18857
6.2113
6.23309
6.2539
6.2736
6.2921
6.30939
6.32553
6.34055
6.35443
6.3671
6.37841
6.38818
6.39622
6.40232
6.40633
6.40807
6.40737
6.40405
6.39789
6.38863
6.37597
6.3596
6.33923
6.31449
6.28498
6.25021
6.20962
6.16264
6.10882
6.04819
5.98157
5.91081
5.83898
5.77017
5.70838
5.65611
5.61415
5.58213
5.5592
5.54448
5.53729
5.34081
5.35067
5.3694
5.3953
5.42631
5.46045
5.49629
5.53279
5.56936
5.60584
5.64231
5.67888
5.71545
5.75184
5.78772
5.82265
5.85618
5.88805
5.91816
5.94653
5.97339
5.99903
6.02366
6.04739
6.0702
6.09201
6.11266
6.13202
6.15011
6.16699
6.18276
6.1974
6.21083
6.22289
6.23338
6.24206
6.24873
6.25321
6.25534
6.25495
6.25186
6.24583
6.23659
6.22381
6.20717
6.18635
6.16098
6.13059
6.09465
6.05247
6.00325
5.94631
5.88142
5.80929
5.73189
5.6527
5.57685
5.50938
5.45317
5.40881
5.37546
5.35187
5.33686
5.32956
5.14161
5.15277
5.17383
5.20277
5.23703
5.27429
5.31296
5.35194
5.39062
5.42897
5.46721
5.50559
5.54404
5.58234
5.62018
5.65699
5.69219
5.72553
5.75689
5.78631
5.81409
5.8406
5.86615
5.89084
5.91463
5.93744
5.95903
5.97922
5.99803
6.01562
6.03211
6.04749
6.06167
6.0745
6.08572
6.09505
6.10229
6.10727
6.1098
6.10975
6.10691
6.10107
6.09191
6.07908
6.06224
6.04107
6.01518
5.98407
5.94713
5.90358
5.85238
5.79249
5.72338
5.64561
5.56115
5.47393
5.39034
5.31686
5.25678
5.21027
5.17591
5.15191
5.1368
5.12948
4.9491
4.96174
4.98539
5.01769
5.05549
5.09601
5.13759
5.17906
5.21977
5.25985
5.29975
5.33988
5.38016
5.42035
5.46016
5.49887
5.53572
5.57048
5.60303
5.6334
5.66198
5.68928
5.7157
5.74131
5.76606
5.78986
5.81238
5.83335
5.85284
5.87108
5.88826
5.90437
5.91929
5.9329
5.94487
5.95486
5.96268
5.96816
5.97111
5.9714
5.96886
5.96325
5.95423
5.94142
5.92445
5.903
5.87672
5.84503
5.80728
5.76261
5.70969
5.64708
5.57383
5.4903
5.39839
5.30233
5.21016
5.13035
5.06654
5.01824
4.98321
4.95911
4.94408
4.93684
4.76293
4.77724
4.80377
4.83979
4.88144
4.92536
4.96991
5.01387
5.05649
5.09816
5.13958
5.18139
5.22346
5.2655
5.30733
5.34797
5.38644
5.42259
5.45627
5.48747
5.51674
5.54472
5.57196
5.59846
5.62414
5.64894
5.6724
5.69411
5.71421
5.73303
5.75088
5.7677
5.78337
5.79777
5.81052
5.82117
5.82958
5.83556
5.83894
5.83959
5.83737
5.83203
5.82321
5.81048
5.79343
5.77179
5.74522
5.71307
5.6747
5.62918
5.57484
5.5098
5.43253
5.34318
5.24344
5.1376
5.03583
4.94935
4.88206
4.83241
4.79715
4.77326
4.7585
4.75144
4.58273
4.59896
4.62866
4.66883
4.71467
4.76207
4.80966
4.85611
4.90049
4.94358
4.98635
5.0298
5.07362
5.11746
5.16136
5.204
5.24404
5.28154
5.31631
5.34822
5.37805
5.40661
5.43463
5.462
5.48857
5.51441
5.53882
5.5612
5.58184
5.60119
5.61968
5.6372
5.65358
5.66881
5.68236
5.69368
5.70267
5.70917
5.71296
5.71399
5.71211
5.70709
5.69852
5.68593
5.66885
5.64707
5.62032
5.58784
5.549
5.50293
5.44752
5.38039
5.29925
5.20407
5.09621
4.97947
4.86682
4.77339
4.70298
4.65254
4.61752
4.59416
4.57987
4.57308
4.40818
4.42661
4.45976
4.50456
4.55497
4.6059
4.65657
4.70554
4.7515
4.7958
4.83974
4.88479
4.93033
4.97589
5.02196
5.06669
5.10823
5.14703
5.18286
5.21535
5.24561
5.27461
5.30339
5.33161
5.35903
5.38595
5.41137
5.43436
5.45545
5.47522
5.49435
5.51256
5.52964
5.54573
5.56013
5.57209
5.58166
5.58868
5.59288
5.59429
5.59277
5.5881
5.57985
5.56746
5.55038
5.52849
5.50168
5.46897
5.42981
5.3835
5.3274
5.25858
5.17374
5.07281
4.95664
4.8277
4.70255
4.60194
4.52899
4.47841
4.44413
4.42164
4.40803
4.40159
4.23893
4.25995
4.29678
4.34676
4.4022
4.45659
4.51039
4.56193
4.60923
4.65454
4.69939
4.74606
4.7933
4.84044
4.88882
4.93579
4.9787
5.01879
5.05568
5.08858
5.11912
5.14842
5.17797
5.20704
5.23523
5.26331
5.2898
5.31331
5.33476
5.35486
5.37463
5.39353
5.41125
5.42826
5.44355
5.45612
5.46628
5.47383
5.47842
5.4802
5.47905
5.47479
5.4669
5.45477
5.43769
5.41573
5.38898
5.35613
5.31675
5.27053
5.21415
5.14412
5.05576
4.94923
4.8248
4.68209
4.54237
4.43449
4.35978
4.30984
4.27684
4.25555
4.2428
4.2368
4.07464
4.09875
4.1394
4.19523
4.25623
4.31389
4.37087
4.42509
4.47343
4.5195
4.56498
4.61334
4.66229
4.71078
4.76168
4.81108
4.85517
4.89653
4.93452
4.96762
4.9983
5.02773
5.05809
5.08802
5.11685
5.14622
5.1739
5.1978
5.2195
5.2398
5.26024
5.27984
5.29812
5.31613
5.33239
5.34552
5.35625
5.36434
5.36929
5.37144
5.37067
5.36685
5.35939
5.34758
5.33051
5.30847
5.28193
5.24897
5.20943
5.16369
5.10743
5.0368
4.94505
4.83312
4.70084
4.54251
4.38552
4.27054
4.19511
4.14669
4.11552
4.09574
4.08401
4.07852
3.915
3.94285
3.9873
4.04979
4.11699
4.1775
4.23775
4.29486
4.3438
4.39044
4.43615
4.48635
4.53705
4.58654
4.64025
4.69239
4.73733
4.77997
4.81918
4.85222
4.88291
4.91222
4.9435
4.97432
5.0036
5.03443
5.06347
5.08757
5.10944
5.12977
5.15095
5.17127
5.18997
5.20908
5.22643
5.24
5.25131
5.25998
5.26524
5.26775
5.26736
5.26402
5.25704
5.24565
5.22855
5.20637
5.18024
5.14721
5.10745
5.06264
5.00691
4.9364
4.84131
4.72425
4.58506
4.4089
4.2311
4.10957
4.0348
3.98885
3.96006
3.94208
3.93151
3.92658
3.75965
3.79216
3.8401
3.91026
3.98449
4.0471
4.11075
4.17112
4.22006
4.26711
4.31251
4.36488
4.41741
4.46732
4.52429
4.57959
4.62487
4.66885
4.70949
4.74209
4.77269
4.80157
4.83397
4.86574
4.89515
4.92771
4.95834
4.98238
5.00434
5.02446
5.04653
5.06761
5.08651
5.1069
5.12548
5.13933
5.15122
5.16052
5.16601
5.16888
5.16885
5.16605
5.1596
5.14873
5.13154
5.10913
5.08367
5.05055
5.01044
4.96706
4.91222
4.84278
4.74425
4.62229
4.47793
4.28129
4.07799
3.95113
3.87872
3.83625
3.81036
3.79442
3.78513
3.78082
3.60821
3.6467
3.69738
3.77647
3.85881
3.92231
3.98959
4.0538
4.1019
4.14932
4.19366
4.2487
4.30323
4.3527
4.41354
4.47261
4.51745
4.56288
4.6053
4.63696
4.66745
4.69545
4.72929
4.76213
4.79117
4.82583
4.8584
4.88198
4.904
4.92359
4.94676
4.96868
4.98745
5.00934
5.02936
5.04323
5.05574
5.06575
5.07135
5.0746
5.0749
5.07268
5.06681
5.0566
5.03924
5.01641
4.992
4.95874
4.91795
4.87668
4.82296
4.75582
4.6535
4.52676
4.3801
4.15985
3.92482
3.79481
3.72681
3.68887
3.66632
3.65263
3.64472
3.64106
3.46029
3.50662
3.5586
3.64827
3.74015
3.80267
3.87398
3.94291
3.98897
4.03693
4.07915
4.13765
4.19445
4.24216
4.30779
4.37146
4.41467
4.46178
4.50654
4.53652
4.56702
4.59349
4.62927
4.66335
4.69128
4.72857
4.76356
4.7861
4.80825
4.82685
4.85146
4.87433
4.89247
4.91621
4.93794
4.95144
4.96464
4.97549
4.98102
4.98468
4.98527
4.9837
4.97844
4.96909
4.95142
4.92788
4.90505
4.87156
4.82955
4.79126
4.73869
4.67552
4.56869
4.43703
4.2925
4.04492
3.76985
3.64031
3.57913
3.54668
3.52787
3.51659
3.5101
3.50711
3.31541
3.37225
3.42311
3.52551
3.62886
3.68762
3.76361
3.83857
3.88083
3.92988
3.96844
4.03158
4.0911
4.13514
4.2068
4.27624
4.31611
4.36529
4.41319
4.44043
4.47128
4.49531
4.53375
4.56935
4.59507
4.63574
4.67379
4.69444
4.71696
4.73389
4.76045
4.78446
4.80123
4.82729
4.85113
4.8637
4.8777
4.88956
4.89479
4.89892
4.89972
4.89888
4.89423
4.88602
4.86788
4.84317
4.8227
4.78883
4.74475
4.71064
4.6589
4.60196
4.48943
4.35218
4.21636
3.93706
3.61091
3.48752
3.43578
3.40971
3.39492
3.38614
3.38111
3.3788
3.17303
3.24415
3.29006
3.40806
3.52544
3.57643
3.65813
3.741
3.77696
3.82823
3.86092
3.9304
3.99332
4.03094
4.11039
4.18719
4.22122
4.2731
4.32533
4.3483
4.38018
4.40045
4.4426
4.48013
4.50205
4.54715
4.58912
4.60666
4.63003
4.64435
4.6736
4.69901
4.71335
4.74242
4.76889
4.77969
4.79471
4.80784
4.8124
4.81714
4.81803
4.81803
4.81395
4.80726
4.78843
4.76188
4.74486
4.7104
4.66298
4.63473
4.58294
4.53537
4.41532
4.27094
4.15324
3.83708
3.44521
3.33656
3.29696
3.27797
3.26738
3.26114
3.25758
3.25595
3.03247
3.12322
3.15837
3.29578
3.43066
3.4682
3.55719
3.65059
3.67669
3.73217
3.75582
3.83404
3.90138
3.9287
4.01835
4.10467
4.12938
4.18492
4.24311
4.25966
4.29379
4.30839
4.35572
4.39577
4.41168
4.46263
4.50966
4.52237
4.54746
4.5578
4.59079
4.61798
4.62841
4.66142
4.69121
4.6991
4.71547
4.73023
4.73361
4.73917
4.73996
4.74097
4.73734
4.7327
4.71294
4.68356
4.6715
4.63621
4.58361
4.5636
4.51005
4.47618
4.34594
4.1916
4.10516
3.74615
3.26926
3.18794
3.16294
3.15146
3.14515
3.14144
3.13934
3.13837
2.89293
3.01072
3.02666
3.18855
3.34552
3.36181
3.46042
3.56795
3.57915
3.64211
3.65223
3.74252
3.81573
3.82741
3.93053
4.02925
4.03982
4.10045
4.16685
4.17389
4.21228
4.2185
4.27306
4.31648
4.32327
4.38203
4.43563
4.44106
4.46934
4.47376
4.51193
4.54144
4.54591
4.58415
4.61816
4.62156
4.63979
4.65666
4.65813
4.66489
4.66529
4.66754
4.66414
4.66225
4.64129
4.60769
4.60266
4.56624
4.50586
4.49748
4.43923
4.42503
4.28097
4.1119
4.07459
3.66586
3.07863
3.04263
3.03403
3.0302
3.02811
3.02689
3.0262
3.02588
)
;

boundaryField
{
    left
    {
        type            zeroGradient;
    }
    right
    {
        type            zeroGradient;
    }
    interface
    {
        type            fixedValue;
        value           nonuniform List<scalar> 
64
(
2.82186
2.9587
2.9587
3.13659
3.308
3.308
3.4133
3.53057
3.53057
3.6
3.6
3.69882
3.77615
3.77615
3.8885
3.99564
3.99564
4.06002
4.13228
4.13228
4.17451
4.17451
4.2343
4.28015
4.28015
4.34442
4.40255
4.40255
4.43374
4.43374
4.47573
4.50695
4.50695
4.54895
4.58592
4.58592
4.6056
4.624
4.624
4.63171
4.63171
4.63485
4.63143
4.63143
4.60976
4.57303
4.57303
4.53585
4.46961
4.46961
4.40653
4.40653
4.25278
4.0722
4.0722
3.63368
2.97273
2.97273
2.97273
2.97273
2.97273
2.97273
2.97273
2.97273
)
;
    }
    bottom
    {
        type            fixedValue;
        value           uniform 10;
    }
    defaultFaces
    {
        type            empty;
    }
}


// ************************************************************************* //
