/*--------------------------------*- C++ -*----------------------------------*\
| =========                 |                                                 |
| \\      /  F ield         | OpenFOAM: The Open Source CFD Toolbox           |
|  \\    /   O peration     | Version:  5.x                                   |
|   \\  /    A nd           | Web:      www.OpenFOAM.org                      |
|    \\/     M anipulation  |                                                 |
\*---------------------------------------------------------------------------*/
FoamFile
{
    version     2.0;
    format      ascii;
    class       volScalarField;
    location    "0.0999";
    object      gradTx;
}
// * * * * * * * * * * * * * * * * * * * * * * * * * * * * * * * * * * * * * //

dimensions      [0 -1 0 1 0 0 0];

internalField   nonuniform List<scalar> 
6300
(
-35.8286
-35.8848
-35.9963
-36.1616
-36.3782
-36.6425
-36.9498
-37.2942
-37.6683
-38.0633
-38.4691
-38.8746
-39.268
-39.6376
-39.9725
-35.7618
-35.8187
-35.9318
-36.0997
-36.32
-36.5891
-36.9025
-37.2545
-37.6375
-38.0427
-38.4599
-38.8774
-39.2828
-39.6636
-40.0081
-35.6275
-35.686
-35.8023
-35.9753
-36.2026
-36.4812
-36.8068
-37.1737
-37.5746
-38.0006
-38.4409
-38.883
-39.3133
-39.7175
-40.0822
-35.424
-35.4847
-35.6057
-35.7859
-36.0235
-36.316
-36.6595
-37.0487
-37.4768
-37.9346
-38.4106
-38.8911
-39.3605
-39.802
-40.199
-35.1493
-35.2128
-35.3395
-35.5287
-35.7793
-36.0895
-36.4562
-36.875
-37.3395
-37.8405
-38.3661
-38.9009
-39.4266
-39.9224
-40.3666
-34.8008
-34.8673
-35.0002
-35.1997
-35.4653
-35.7962
-36.1908
-36.6457
-37.1556
-37.7121
-38.3027
-38.9105
-39.5135
-40.0854
-40.5971
-34.3752
-34.4447
-34.5841
-34.7941
-35.0756
-35.4291
-35.8549
-36.3514
-36.9154
-37.5396
-38.2123
-38.9151
-39.6222
-40.2998
-40.9073
-33.8698
-33.9419
-34.087
-34.3068
-34.6035
-34.9797
-35.4379
-35.9798
-36.6049
-37.309
-38.0821
-38.9059
-39.7511
-40.575
-41.3212
-33.2818
-33.3557
-33.5049
-33.7322
-34.0416
-34.438
-34.9273
-35.515
-36.2054
-36.9994
-37.8914
-38.8657
-39.8917
-40.9185
-41.8697
-32.6095
-32.6839
-32.8345
-33.0654
-33.3824
-33.7934
-34.3081
-34.9375
-35.6925
-36.5819
-37.6085
-38.7641
-40.022
-41.3282
-42.5878
-31.8527
-31.9255
-32.0737
-32.3023
-32.6191
-33.0351
-33.5644
-34.2245
-35.0353
-36.0172
-37.1869
-38.5504
-40.0943
-41.7749
-43.4991
-31.0128
-31.0818
-31.2225
-31.4409
-31.7466
-32.1534
-32.6799
-33.3509
-34.1973
-35.2551
-36.5615
-38.1464
-40.0204
-42.1687
-44.5593
-30.0941
-30.1562
-30.2835
-30.4823
-30.7632
-31.142
-31.6411
-32.2921
-33.1381
-34.2346
-35.648
-37.4436
-39.6625
-42.3109
-45.4846
-29.1033
-29.1556
-29.263
-29.4318
-29.6722
-30.0004
-30.4406
-31.0288
-31.8186
-32.8878
-34.3428
-36.3079
-38.8657
-41.918
-45.2961
-28.0505
-28.09
-28.1715
-28.2998
-28.4838
-28.7374
-29.0825
-29.5544
-30.2104
-31.1459
-32.5183
-34.5703
-37.5648
-41.189
-41.5908
-40.2428
-40.4498
-40.6189
-40.7488
-40.8394
-40.8917
-40.9077
-40.8891
-40.8381
-40.7559
-40.6438
-40.5022
-40.3319
-40.1334
-39.908
-39.6577
-39.3854
-39.0948
-38.7906
-38.4776
-38.1607
-37.8445
-37.5326
-37.2277
-36.9313
-36.6439
-36.3649
-36.0936
-35.8289
-35.5699
-35.3166
-35.0696
-34.8301
-34.6004
-34.3828
-34.1798
-33.9939
-33.8265
-33.6786
-33.5502
-33.4404
-33.3479
-33.2708
-33.2075
-33.1564
-33.117
-33.0892
-33.0737
-33.072
-33.0859
-33.1172
-33.1673
-33.2373
-33.3273
-33.4366
-33.5636
-33.7062
-33.8622
-34.0292
-34.2054
-34.3895
-34.581
-34.7804
-34.9885
-35.2066
-35.436
-35.6775
-35.9312
-36.1965
-36.4716
-36.7542
-37.0411
-37.3295
-37.6164
-37.8999
-38.1791
-38.4543
-38.7274
-39.0011
-39.2793
-39.5657
-39.8642
-40.1777
-40.5077
-40.854
-41.2147
-41.5855
-41.9607
-42.333
-42.6945
-40.2853
-40.4968
-40.6682
-40.7985
-40.888
-40.9384
-40.9521
-40.9315
-40.8788
-40.7957
-40.6831
-40.5414
-40.3707
-40.171
-39.9434
-39.6895
-39.4123
-39.1158
-38.805
-38.4855
-38.1628
-37.8418
-37.5267
-37.2201
-36.9236
-36.6373
-36.3602
-36.0908
-35.8276
-35.5694
-35.3156
-35.067
-34.8249
-34.592
-34.3711
-34.1652
-33.9771
-33.8087
-33.6611
-33.534
-33.4265
-33.3367
-33.2622
-33.2009
-33.1511
-33.1117
-33.0827
-33.0652
-33.0609
-33.0721
-33.1011
-33.1498
-33.2194
-33.3103
-33.4215
-33.5512
-33.697
-33.856
-34.0255
-34.2031
-34.3874
-34.5781
-34.7757
-34.9816
-35.1975
-35.4252
-35.666
-35.9203
-36.1875
-36.4656
-36.7519
-37.0428
-37.3345
-37.6238
-37.908
-38.1861
-38.4582
-38.7266
-38.9945
-39.2663
-39.5468
-39.8406
-40.1512
-40.4808
-40.8297
-41.1956
-41.5743
-41.9592
-42.3425
-42.7151
-40.3739
-40.5938
-40.7695
-40.9001
-40.9868
-41.0325
-41.0408
-41.0154
-40.9593
-40.8745
-40.7616
-40.6202
-40.4492
-40.2479
-40.016
-39.7549
-39.4675
-39.1584
-38.8338
-38.5004
-38.1651
-37.8341
-37.5123
-37.2026
-36.9064
-36.6229
-36.3503
-36.0856
-35.8262
-35.5697
-35.3151
-35.063
-34.8152
-34.5752
-34.3468
-34.1344
-33.9416
-33.7711
-33.624
-33.5002
-33.3978
-33.3141
-33.2456
-33.189
-33.1418
-33.1024
-33.0709
-33.0488
-33.0386
-33.0436
-33.0674
-33.1128
-33.1816
-33.2743
-33.3898
-33.5258
-33.6786
-33.8443
-34.0191
-34.1999
-34.3848
-34.5735
-34.767
-34.9676
-35.1784
-35.4021
-35.6411
-35.8965
-36.1676
-36.4524
-36.747
-37.0466
-37.3462
-37.6409
-37.9271
-38.2028
-38.4685
-38.7267
-38.9818
-39.2399
-39.5074
-39.7906
-40.0947
-40.4232
-40.7768
-41.1537
-41.5489
-41.9548
-42.3616
-42.7581
-40.5136
-40.7467
-40.9282
-41.0579
-41.1383
-41.1745
-41.1728
-41.1388
-41.0772
-40.9903
-40.8782
-40.7391
-40.5698
-40.3675
-40.1302
-39.8582
-39.5545
-39.2248
-38.8771
-38.5205
-38.1643
-37.8168
-37.4844
-37.1705
-36.8759
-36.5988
-36.335
-36.0797
-35.8276
-35.5748
-35.3192
-35.0611
-34.8033
-34.5506
-34.3092
-34.0852
-33.8841
-33.7099
-33.5642
-33.4463
-33.3533
-33.2806
-33.2229
-33.175
-33.1325
-33.0932
-33.0572
-33.0266
-33.0056
-32.9996
-33.0139
-33.0531
-33.1202
-33.2162
-33.3394
-33.4863
-33.6516
-33.8293
-34.0136
-34.1999
-34.3856
-34.5702
-34.7559
-34.9467
-35.1476
-35.3636
-35.5989
-35.8556
-36.1335
-36.4296
-36.7389
-37.0543
-37.368
-37.6728
-37.9629
-38.2354
-38.4904
-38.7313
-38.9646
-39.199
-39.4438
-39.7083
-40.0006
-40.3259
-40.6865
-41.0808
-41.503
-41.9433
-42.3891
-42.8254
-40.7146
-40.9662
-41.1543
-41.2795
-41.3469
-41.3656
-41.3459
-41.2975
-41.2275
-41.139
-41.031
-40.899
-40.7363
-40.5363
-40.2937
-40.0072
-39.6796
-39.3184
-38.9349
-38.5422
-38.1538
-37.7815
-37.4338
-37.1152
-36.8256
-36.5609
-36.3139
-36.0756
-35.8372
-35.5916
-35.3348
-35.0671
-34.7926
-34.519
-34.2557
-34.0125
-33.7979
-33.6179
-33.4747
-33.3671
-33.2902
-33.2366
-33.1975
-33.1642
-33.1299
-33.0908
-33.0468
-33.0018
-32.9624
-32.9374
-32.9355
-32.9641
-33.0282
-33.1293
-33.2653
-33.4304
-33.6166
-33.8144
-34.0146
-34.21
-34.3965
-34.5737
-34.7455
-34.9188
-35.1021
-35.3041
-35.532
-35.7898
-36.078
-36.3927
-36.7262
-37.0678
-37.4056
-37.7282
-38.0262
-38.2946
-38.5332
-38.747
-38.9457
-39.142
-39.3502
-39.5842
-39.856
-40.1745
-40.5439
-40.9633
-41.4257
-41.9186
-42.4243
-42.9218
-40.9926
-41.2692
-41.4635
-41.5771
-41.6194
-41.606
-41.555
-41.4826
-41.4002
-41.3121
-41.2153
-41.1006
-40.955
-40.7651
-40.5201
-40.2153
-39.8536
-39.4455
-39.0077
-38.5602
-38.1233
-37.7143
-37.3455
-37.0227
-36.7445
-36.5033
-36.2864
-36.0785
-35.8645
-35.6321
-35.3743
-35.0912
-34.7896
-34.4816
-34.1827
-33.9084
-33.6721
-33.4829
-33.3445
-33.2543
-33.2045
-33.1828
-33.1748
-33.1662
-33.1457
-33.1068
-33.0496
-32.9802
-32.91
-32.8532
-32.8242
-32.835
-32.8937
-33.003
-33.1595
-33.3544
-33.5749
-33.8057
-34.0321
-34.2422
-34.4293
-34.5935
-34.7411
-34.884
-35.0368
-35.214
-35.428
-35.6861
-35.9897
-36.3334
-36.7057
-37.0904
-37.4684
-37.8213
-38.1342
-38.3981
-38.6125
-38.7848
-38.9299
-39.0671
-39.218
-39.4034
-39.6416
-39.9464
-40.3254
-40.779
-41.2994
-41.8697
-42.465
-43.0544
-41.3713
-41.6826
-41.8814
-41.9701
-41.9654
-41.8947
-41.7895
-41.6774
-41.577
-41.4943
-41.4225
-41.3443
-41.2358
-41.072
-40.8321
-40.5056
-40.095
-39.6165
-39.0962
-38.5655
-38.0555
-37.5927
-37.1951
-36.8706
-36.6155
-36.4165
-36.2522
-36.0971
-35.9256
-35.7167
-35.4584
-35.1505
-34.8044
-34.4405
-34.0838
-33.7593
-33.4884
-33.2852
-33.1553
-33.0943
-33.0893
-33.1204
-33.1641
-33.1969
-33.1995
-33.161
-33.0813
-32.9712
-32.8498
-32.7405
-32.6666
-32.6479
-32.6974
-32.8194
-33.0089
-33.2521
-33.5283
-33.8132
-34.0827
-34.3167
-34.5043
-34.6454
-34.7516
-34.8427
-34.9433
-35.0779
-35.2667
-35.5226
-35.8487
-36.2376
-36.6718
-37.126
-37.5703
-37.9748
-38.3145
-38.5745
-38.753
-38.8622
-38.9251
-38.9717
-39.0344
-39.1444
-39.3287
-39.608
-39.9953
-40.494
-41.096
-41.7792
-42.5077
-43.235
-41.8873
-42.2497
-42.4499
-42.4901
-42.3995
-42.2272
-42.0283
-41.8504
-41.724
-41.6571
-41.6359
-41.6292
-41.5947
-41.4872
-41.2685
-40.9169
-40.435
-39.8489
-39.2015
-38.5433
-37.9229
-37.3807
-36.9439
-36.623
-36.4111
-36.2855
-36.2112
-36.1463
-36.0479
-35.8802
-35.6222
-35.2734
-34.8539
-34.3983
-33.9479
-33.543
-33.2171
-32.9924
-32.8773
-32.8645
-32.9331
-33.0512
-33.1807
-33.2826
-33.3241
-33.286
-33.1685
-32.9902
-32.7838
-32.5881
-32.4408
-32.3737
-32.4075
-32.5494
-32.7916
-33.1124
-33.4793
-33.853
-34.1937
-34.4676
-34.6551
-34.7565
-34.7918
-34.7955
-34.8083
-34.8705
-35.0151
-35.2637
-35.6226
-36.0813
-36.6133
-37.1795
-37.7327
-38.2241
-38.6117
-38.8695
-38.9944
-39.0064
-38.9434
-38.8521
-38.7813
-38.7765
-38.8763
-39.1109
-39.5008
-40.0557
-40.7702
-41.6175
-42.5459
-43.4824
-42.5958
-43.042
-43.2411
-43.1907
-42.9443
-42.5918
-42.2311
-41.9444
-41.7811
-41.7504
-41.8255
-41.9518
-42.0569
-42.0615
-41.8954
-41.5161
-40.9257
-40.1706
-39.3244
-38.469
-37.6806
-37.0206
-36.5299
-36.2233
-36.088
-36.0865
-36.1632
-36.2505
-36.2775
-36.1818
-35.9251
-35.5069
-34.9643
-34.358
-33.7561
-33.2228
-32.8099
-32.5523
-32.4624
-32.5283
-32.7166
-32.977
-33.2486
-33.4669
-33.5749
-33.5375
-33.3548
-33.0614
-32.7142
-32.3772
-32.111
-31.9652
-31.9728
-32.1457
-32.4716
-32.9168
-33.4305
-33.9505
-34.4107
-34.7522
-34.939
-34.9714
-34.886
-34.7428
-34.6096
-34.551
-34.62
-34.8518
-35.2581
-35.824
-36.5096
-37.2553
-37.9871
-38.6254
-39.0978
-39.3574
-39.399
-39.2592
-39.0021
-38.7021
-38.4317
-38.2557
-38.2271
-38.3868
-38.7647
-39.3827
-40.2477
-41.3332
-42.566
-43.8277
-43.5799
-44.1817
-44.3833
-44.1658
-43.6351
-42.9616
-42.3218
-41.8559
-41.6428
-41.6877
-41.9384
-42.3027
-42.6618
-42.8807
-42.829
-42.4194
-41.6543
-40.6248
-39.4623
-38.3008
-37.2563
-36.4205
-35.8548
-35.5818
-35.5773
-35.7809
-36.1063
-36.4486
-36.6915
-36.7234
-36.469
-35.9281
-35.1755
-34.3205
-33.4753
-32.7386
-32.1893
-31.881
-31.8337
-32.0268
-32.4072
-32.898
-33.4049
-33.822
-34.0469
-34.0103
-33.7122
-33.222
-32.6414
-32.0759
-31.619
-31.3466
-31.311
-31.5322
-31.9903
-32.6329
-33.3828
-34.1442
-34.8083
-35.2691
-35.4546
-35.3647
-35.0719
-34.6835
-34.311
-34.0547
-33.9967
-34.1942
-34.669
-35.3988
-36.3237
-37.3547
-38.3794
-39.2681
-39.8923
-40.1609
-40.0656
-39.6812
-39.1225
-38.5084
-37.9449
-37.5206
-37.3043
-37.3451
-37.6786
-38.3496
-39.4024
-40.831
-42.5378
-44.3241
-44.9575
-45.8892
-46.121
-45.5846
-44.5243
-43.2766
-42.1566
-41.3983
-41.1285
-41.3252
-41.8847
-42.6587
-43.4672
-44.0884
-44.2774
-43.8349
-42.7644
-41.2716
-39.6008
-37.9665
-36.5342
-35.4349
-34.7625
-34.5583
-34.7724
-35.306
-36.0315
-36.7972
-37.4171
-37.6855
-37.4338
-36.6631
-35.5433
-34.2779
-33.0478
-31.9942
-31.2316
-30.8437
-30.869
-31.2662
-31.9498
-32.8072
-33.7024
-34.4656
-34.9074
-34.8717
-34.3585
-33.5243
-32.5583
-31.6294
-30.8723
-30.398
-30.2899
-30.588
-31.2538
-32.2046
-33.3286
-34.4882
-35.5084
-36.1922
-36.3761
-36.0592
-35.4041
-34.6089
-33.8524
-33.2796
-33.0119
-33.1426
-33.718
-34.6973
-35.9891
-37.4669
-38.9708
-40.2942
-41.2009
-41.49
-41.1492
-40.3548
-39.3223
-38.2409
-37.2563
-36.4839
-36.0084
-35.8788
-36.1027
-36.762
-38.0106
-39.9226
-42.3884
-45.0665
-46.8637
-48.5962
-48.957
-47.7503
-45.6767
-43.4015
-41.4651
-40.2324
-39.9385
-40.437
-41.5193
-42.9627
-44.5408
-45.9174
-46.6348
-46.1547
-44.4836
-42.1761
-39.6884
-37.3437
-35.3354
-33.838
-33.0001
-32.9368
-33.5125
-34.561
-35.9052
-37.3633
-38.6569
-39.4048
-39.1548
-37.91
-36.1294
-34.1937
-32.3749
-30.8401
-29.7435
-29.2209
-29.3788
-30.1034
-31.2531
-32.6733
-34.2018
-35.5841
-36.4681
-36.4329
-35.479
-34.0283
-32.4329
-30.9463
-29.7289
-28.9323
-28.6941
-29.1244
-30.1168
-31.537
-33.2334
-35.0431
-36.7028
-37.8453
-38.0283
-37.2495
-35.9463
-34.4861
-33.1366
-32.0715
-31.4591
-31.4563
-32.1904
-33.55
-35.3908
-37.5448
-39.8254
-41.9229
-43.4009
-43.7279
-42.887
-41.3718
-39.5921
-37.8331
-36.2609
-35.0175
-34.2121
-33.9
-33.8959
-34.3214
-35.6585
-38.2111
-41.9268
-46.2349
-49.285
-53.2689
-54.0408
-51.1562
-47.1125
-43.033
-39.7552
-37.7103
-37.6034
-38.7048
-40.6314
-43.0705
-45.9032
-48.6949
-50.7165
-50.19
-47.1199
-43.3414
-39.5718
-36.2388
-33.4039
-31.2944
-30.1263
-30.3998
-31.577
-33.3961
-35.6219
-38.1736
-40.6907
-42.57
-42.3179
-39.9375
-36.9482
-33.9502
-31.302
-29.0636
-27.4379
-26.6272
-27.082
-28.3385
-30.1775
-32.3947
-34.9238
-37.4328
-39.3654
-39.3302
-37.3276
-34.7529
-32.1619
-29.8863
-27.9897
-26.6722
-26.1451
-26.8606
-28.3735
-30.4815
-32.9852
-35.8242
-38.6525
-40.8906
-41.0755
-39.2049
-36.7231
-34.2117
-32.018
-30.2177
-29.0341
-28.7138
-29.7668
-31.7138
-34.3456
-37.4438
-40.9468
-44.4466
-47.2606
-47.649
-45.5972
-42.7698
-39.8317
-37.1556
-34.7903
-32.9186
-31.7027
-31.4748
-31.0669
-30.5636
-31.5513
-34.8194
-40.6063
-48.1972
-51.0912
-62.5532
-64.3765
-56.2182
-48.5897
-41.5021
-36.2639
-32.3925
-33.5245
-35.7812
-39.0025
-42.6096
-47.3233
-52.5803
-58.4671
-57.8882
-50.7772
-44.4955
-38.8282
-34.4192
-30.4305
-27.3984
-25.1801
-26.5657
-28.7223
-31.6514
-34.8764
-39.0422
-43.6523
-48.8146
-48.5568
-42.853
-37.7904
-33.213
-29.6485
-26.414
-23.9674
-22.2203
-23.6401
-25.7445
-28.5682
-31.6788
-35.6878
-40.1258
-45.1116
-45.0759
-40.0154
-35.5149
-31.4494
-28.2923
-25.4271
-23.2839
-21.8163
-23.4577
-25.7828
-28.8663
-32.2645
-36.632
-41.4638
-46.9049
-47.0946
-42.0519
-37.553
-33.4888
-30.3407
-27.4826
-25.3718
-23.9987
-26.0605
-28.8957
-32.6329
-36.7636
-42.0764
-47.961
-54.6161
-55.0862
-49.4257
-44.328
-39.6941
-36.0298
-32.6076
-29.873
-27.7681
-29.3052
-28.3717
-24.6544
-24.1559
-27.7954
-36.6821
-51.756
-44.6389
-85.704
-89.075
-60.5074
-49.2799
-37.3014
-30.7992
-19.8658
-27.8229
-31.4656
-36.8159
-40.5534
-47.9597
-55.5581
-75.5282
-74.9933
-53.2415
-44.7665
-36.2745
-31.9965
-26.0819
-22.3335
-15.0473
-21.625
-24.76
-29.4864
-32.7831
-39.2794
-45.8289
-62.8764
-62.6498
-44.8562
-37.9438
-31.0263
-27.5284
-22.6378
-19.4968
-13.2599
-19.2204
-22.1234
-26.5562
-29.6807
-35.8473
-42.0451
-58.1058
-58.0747
-41.9113
-35.6638
-29.4401
-26.2883
-21.834
-18.9307
-13.0178
-19.0783
-22.1085
-26.8073
-30.1581
-36.7826
-43.4103
-60.4949
-60.6618
-44.1268
-37.7668
-31.4544
-28.2528
-23.677
-20.6521
-14.3413
-21.2445
-24.7825
-30.3575
-34.3848
-42.386
-50.3695
-70.8812
-71.3539
-52.4451
-45.2189
-38.16
-34.5541
-29.4333
-25.9185
-18.5862
-30.6901
-29.6814
-14.1067
-10.7985
-13.2112
-23.8431
-58.6705
-43.0688
-43.4408
-43.7635
-44.0304
-44.2389
-44.3908
-44.4914
-44.5482
-44.5704
-44.5675
-44.549
-44.5231
-44.4972
-44.4768
-44.4656
-43.1007
-43.4827
-43.8115
-44.0803
-44.2867
-44.4332
-44.5259
-44.5734
-44.5857
-44.5733
-44.5461
-44.513
-44.4814
-44.4572
-44.444
-43.1675
-43.5702
-43.9118
-44.1843
-44.3859
-44.5206
-44.5965
-44.6244
-44.6162
-44.5841
-44.5392
-44.4912
-44.4482
-44.4161
-44.3991
-43.2746
-43.7113
-44.0731
-44.3507
-44.5434
-44.6579
-44.7059
-44.7019
-44.661
-44.5978
-44.5253
-44.4544
-44.3937
-44.3498
-44.3267
-43.4318
-43.9197
-44.3106
-44.5936
-44.7704
-44.8527
-44.8581
-44.8067
-44.7184
-44.6109
-44.4997
-44.397
-44.3123
-44.2521
-44.221
-43.6551
-44.2176
-44.648
-44.9341
-45.0831
-45.1154
-45.0579
-44.9391
-44.7851
-44.618
-44.4556
-44.3116
-44.1959
-44.1152
-44.0738
-43.9704
-44.64
-45.1214
-45.4032
-45.5037
-45.4585
-45.3097
-45.0971
-44.855
-44.6103
-44.3831
-44.1877
-44.0341
-43.9285
-43.8749
-44.4199
-45.2429
-45.786
-46.0449
-46.0608
-45.8962
-45.6157
-45.275
-44.9177
-44.5751
-44.2685
-44.0119
-43.8139
-43.6797
-43.6119
-45.075
-46.1179
-46.7264
-46.9207
-46.7892
-46.4404
-45.9722
-45.4599
-44.9558
-44.4937
-44.0938
-43.7672
-43.5197
-43.3539
-43.2709
-46.0622
-47.419
-48.0727
-48.1133
-47.7257
-47.0947
-46.3631
-45.6265
-44.9419
-44.3402
-43.8356
-43.4332
-43.1335
-42.9351
-42.8364
-47.6182
-49.4152
-50.0235
-49.7253
-48.8965
-47.8399
-46.7492
-45.731
-44.8351
-44.0793
-43.4649
-42.9862
-42.6357
-42.4063
-42.2929
-50.2234
-52.5919
-52.8721
-51.8594
-50.2867
-48.6099
-47.0531
-45.7031
-44.5782
-43.6668
-42.9482
-42.4008
-42.0064
-41.7511
-41.6257
-54.9554
-57.8477
-57.0033
-54.5441
-51.7732
-49.251
-47.1404
-45.4403
-44.0974
-43.0515
-42.2501
-41.6523
-41.2278
-40.9556
-40.8227
-64.5557
-66.8286
-62.735
-57.5273
-53.0019
-49.4719
-46.8079
-44.8103
-43.3096
-42.1813
-41.3382
-40.7201
-40.2865
-40.0107
-39.8766
-87.1572
-82.168
-69.5699
-59.8134
-53.2252
-48.8178
-45.7998
-43.6734
-42.1392
-41.0159
-40.191
-39.5934
-39.1773
-38.9139
-38.7862
-27.0404
-27.0661
-27.1191
-27.2024
-27.322
-27.487
-27.7128
-28.0255
-28.4718
-29.1405
-30.2149
-32.1051
-35.7858
-43.4623
-57.7617
-26.0977
-26.1098
-26.1346
-26.1732
-26.2277
-26.3016
-26.4009
-26.5368
-26.7308
-27.03
-27.5485
-28.6147
-31.3859
-40.9207
-83.7046
-25.1401
-25.1383
-25.1341
-25.1265
-25.1135
-25.0921
-25.0575
-25.0015
-24.9111
-24.7616
-24.4963
-23.9338
-22.2814
-15.2818
22.7306
-24.1775
-24.162
-24.1296
-24.0771
-23.9989
-23.8858
-23.7227
-23.4845
-23.127
-22.5686
-21.645
-20.0029
-16.8845
-11.1752
-6.69751
-23.2193
-23.1912
-23.1329
-23.0394
-22.9023
-22.708
-22.4342
-22.0446
-21.4775
-20.6247
-19.2879
-17.0897
-13.2821
-6.21065
9.85793
-22.2743
-22.2352
-22.1543
-22.0258
-21.8395
-21.5794
-21.2204
-20.7225
-20.0214
-19.0127
-17.5248
-15.2865
-11.9415
-7.49189
-5.45606
-21.3505
-21.3023
-21.2029
-21.0462
-20.8219
-20.5137
-20.0974
-19.536
-18.7744
-17.7295
-16.2788
-14.2447
-11.3633
-7.09456
1.09636
-20.4542
-20.3988
-20.2853
-20.1078
-19.8567
-19.5175
-19.0695
-18.4835
-17.7194
-16.7244
-15.4343
-13.7844
-11.7439
-9.41858
-7.26162
-19.5904
-19.5299
-19.4064
-19.2148
-18.9469
-18.5912
-18.132
-17.5496
-16.8203
-15.9206
-14.836
-13.5883
-12.3177
-11.623
-14.1928
-18.763
-18.699
-18.5691
-18.3691
-18.0926
-17.7312
-17.2748
-16.7125
-16.0353
-15.2415
-14.3473
-13.4014
-12.4866
-11.5574
-8.80836
-17.9743
-17.9084
-17.775
-17.5709
-17.2917
-16.9319
-16.486
-15.9505
-15.3269
-14.6287
-13.8909
-13.1862
-12.6609
-12.7526
-15.7544
-17.2259
-17.1591
-17.0244
-16.8195
-16.5414
-16.1871
-15.7544
-15.2447
-14.6661
-14.0399
-13.4082
-12.8398
-12.4019
-11.9238
-9.17128
-16.5184
-16.4516
-16.3172
-16.1135
-15.8388
-15.4915
-15.0714
-14.5822
-14.0344
-13.4514
-12.878
-12.3962
-12.1661
-12.6716
-16.4252
-15.8521
-15.7858
-15.6528
-15.4517
-15.1815
-14.8413
-14.4315
-13.9557
-13.4231
-12.8528
-12.281
-11.7714
-11.4147
-11.1607
-8.86049
-15.2264
-15.1612
-15.0303
-14.8329
-14.5678
-14.2344
-13.8326
-13.3642
-12.834
-12.252
-11.6376
-11.0341
-10.5876
-11.0681
-17.2533
-14.641
-14.5771
-14.4491
-14.2559
-13.9967
-13.6702
-13.2753
-12.8112
-12.2769
-11.6705
-10.9836
-10.1816
-9.11232
-7.01102
0.769621
-14.0948
-14.0327
-13.908
-13.72
-13.4674
-13.1486
-12.7614
-12.3025
-11.7663
-11.1419
-10.4063
-9.50878
-8.34971
-6.89584
-6.63868
-13.5868
-13.5266
-13.406
-13.2239
-12.9792
-12.6699
-12.2929
-11.8433
-11.3131
-10.6874
-9.93863
-9.01177
-7.78792
-5.9475
-1.93412
-13.1157
-13.0578
-12.9417
-12.7667
-12.5313
-12.2335
-11.8702
-11.436
-10.9225
-10.3155
-9.59167
-8.71538
-7.65048
-6.50616
-6.49466
-12.6799
-12.6246
-12.5137
-12.3465
-12.122
-11.8381
-11.4922
-11.0796
-10.5932
-10.0217
-9.34775
-8.54446
-7.56439
-6.27605
-3.80257
-12.2778
-12.2253
-12.1201
-11.9616
-11.7492
-11.4814
-11.1562
-10.7705
-10.3194
-9.79613
-9.19081
-8.49088
-7.68861
-6.86683
-6.75201
-11.9074
-11.8579
-11.7587
-11.6097
-11.4103
-11.1601
-10.858
-10.5027
-10.0923
-9.62462
-9.09672
-8.50298
-7.82264
-6.96446
-5.33582
-11.5669
-11.5204
-11.4275
-11.2881
-11.1024
-10.8704
-10.5925
-10.2691
-9.90148
-9.49203
-9.04552
-8.56985
-8.07637
-7.59491
-7.18698
-11.254
-11.2106
-11.1239
-10.9942
-10.8221
-10.6084
-10.3544
-10.0624
-9.73622
-9.38232
-9.01173
-8.64371
-8.31797
-8.17195
-8.81058
-10.9668
-10.9264
-10.8457
-10.7254
-10.5663
-10.3699
-10.1385
-9.87552
-9.58678
-9.28133
-8.97329
-8.68284
-8.4309
-8.20163
-7.54146
-10.7032
-10.6656
-10.5906
-10.4791
-10.3321
-10.1516
-9.94031
-9.70269
-9.44552
-9.17929
-8.9198
-8.68986
-8.52425
-8.5281
-9.26069
-10.4613
-10.4263
-10.3566
-10.2531
-10.117
-9.95036
-9.75635
-9.53959
-9.30716
-9.06974
-8.84293
-8.64683
-8.49605
-8.34598
-7.63111
-10.2394
-10.2067
-10.1417
-10.0453
-9.91871
-9.76399
-9.58414
-9.38357
-9.16888
-8.95
-8.74188
-8.567
-8.46349
-8.55359
-9.47196
-10.0358
-10.0052
-9.94443
-9.85421
-9.73576
-9.59092
-9.42228
-9.23356
-9.03015
-8.81999
-8.61491
-8.43226
-8.29263
-8.1835
-7.55642
-9.84911
-9.82039
-9.76329
-9.67846
-9.56696
-9.43025
-9.27037
-9.09
-8.89278
-8.68365
-8.46957
-8.26233
-8.09677
-8.17062
-9.70749
-9.67808
-9.65101
-9.59715
-9.51703
-9.41148
-9.28159
-9.1287
-8.95439
-8.76036
-8.54796
-8.31668
-8.0582
-7.73087
-7.13928
-5.09189
-9.52159
-9.496
-9.44502
-9.36909
-9.26878
-9.14481
-8.99794
-8.82877
-8.6374
-8.42263
-8.17992
-7.89665
-7.54477
-7.1166
-6.99471
-9.37865
-9.35439
-9.30604
-9.23391
-9.13838
-9.01989
-8.87874
-8.71486
-8.52741
-8.31395
-8.06858
-7.77756
-7.40795
-6.87893
-5.79259
-9.24835
-9.22532
-9.17941
-9.11083
-9.01984
-8.90669
-8.77141
-8.61363
-8.43222
-8.22471
-7.9862
-7.7079
-7.37816
-7.02601
-6.96114
-9.12985
-9.10799
-9.06438
-8.99919
-8.91263
-8.80484
-8.6758
-8.52515
-8.35192
-8.15426
-7.92874
-7.66884
-7.36027
-6.97127
-6.2811
-9.02237
-9.00161
-8.96021
-8.8983
-8.8161
-8.71376
-8.59134
-8.44868
-8.28533
-8.10043
-7.89243
-7.65849
-7.39456
-7.12337
-7.02923
-8.92515
-8.90546
-8.86616
-8.80744
-8.72951
-8.63265
-8.51706
-8.38295
-8.23049
-8.05993
-7.87141
-7.66389
-7.43024
-7.15017
-6.67944
-8.8375
-8.8188
-8.78151
-8.72584
-8.65207
-8.56057
-8.4518
-8.32632
-8.185
-8.02918
-7.86086
-7.68234
-7.49448
-7.30703
-7.13865
-8.75871
-8.74095
-8.70556
-8.65276
-8.58293
-8.49655
-8.39429
-8.27708
-8.14637
-8.0044
-7.85467
-7.7022
-7.55475
-7.44826
-7.53247
-8.68817
-8.67127
-8.63762
-8.58748
-8.52128
-8.43961
-8.34333
-8.23362
-8.11234
-7.9823
-7.84764
-7.71349
-7.58289
-7.45465
-7.2245
-8.62527
-8.60916
-8.57708
-8.52933
-8.46638
-8.38891
-8.29786
-8.1946
-8.08118
-7.96069
-7.83754
-7.71725
-7.60569
-7.52939
-7.61984
-8.5695
-8.55407
-8.52338
-8.47773
-8.41761
-8.34372
-8.25706
-8.15904
-8.05174
-7.93823
-7.82273
-7.70985
-7.60032
-7.4859
-7.2431
-8.52037
-8.50554
-8.47604
-8.43217
-8.37442
-8.30349
-8.22034
-8.12633
-8.02341
-7.91444
-7.80338
-7.69504
-7.59464
-7.52914
-7.63521
-8.4775
-8.46316
-8.43465
-8.39225
-8.33643
-8.26785
-8.18737
-8.09621
-7.99609
-7.88941
-7.77941
-7.66963
-7.56104
-7.45082
-7.22624
-8.44053
-8.4266
-8.39889
-8.35767
-8.30336
-8.23656
-8.15802
-8.06876
-7.97013
-7.86398
-7.75257
-7.63833
-7.52487
-7.4495
-7.63829
-8.40919
-8.39558
-8.3685
-8.32819
-8.27503
-8.20953
-8.13233
-8.04422
-7.94622
-7.8395
-7.72498
-7.60143
-7.45857
-7.26233
-6.80022
-8.38328
-8.36991
-8.3433
-8.30366
-8.25133
-8.18675
-8.11042
-8.02299
-7.92519
-7.81775
-7.70095
-7.57287
-7.42567
-7.2574
-7.12435
-8.36261
-8.34942
-8.32315
-8.28398
-8.23222
-8.16823
-8.09245
-8.00541
-7.90766
-7.79982
-7.68204
-7.55256
-7.40372
-7.22564
-6.9676
-8.34709
-8.33401
-8.30795
-8.26908
-8.21766
-8.15402
-8.07854
-7.99168
-7.89398
-7.78611
-7.66854
-7.54064
-7.39843
-7.24703
-7.12175
-8.33664
-8.32361
-8.29766
-8.25893
-8.20766
-8.14415
-8.06876
-7.98191
-7.8842
-7.77643
-7.65951
-7.53363
-7.39584
-7.2479
-7.07998
-8.33121
-8.3182
-8.29225
-8.25353
-8.20224
-8.13867
-8.06315
-7.97613
-7.87824
-7.77043
-7.654
-7.52987
-7.39665
-7.26024
-7.13201
-8.33081
-8.31776
-8.29174
-8.25289
-8.20143
-8.13761
-8.06177
-7.97434
-7.87599
-7.76775
-7.6511
-7.5274
-7.39602
-7.26451
-7.14732
-8.33546
-8.32233
-8.29615
-8.25707
-8.20527
-8.14103
-8.06467
-7.97659
-7.87743
-7.76822
-7.6504
-7.52524
-7.39181
-7.25643
-7.13034
-8.34521
-8.33196
-8.30555
-8.2661
-8.21384
-8.14901
-8.07193
-7.98296
-7.88269
-7.772
-7.65208
-7.5238
-7.38531
-7.23949
-7.0765
-8.36016
-8.34675
-8.32001
-8.28009
-8.22721
-8.16164
-8.08367
-7.99364
-7.89202
-7.77949
-7.65686
-7.52444
-7.38022
-7.23208
-7.11521
-8.38041
-8.36679
-8.33963
-8.29912
-8.24548
-8.17901
-8.10001
-8.0088
-7.90576
-7.79131
-7.66573
-7.52823
-7.3742
-7.20058
-6.96842
-8.40611
-8.39222
-8.36456
-8.32331
-8.26875
-8.20121
-8.12105
-8.02862
-7.92426
-7.80818
-7.68017
-7.53847
-7.37813
-7.20732
-7.097
-8.43743
-8.42322
-8.39493
-8.35277
-8.2971
-8.2283
-8.14685
-8.05318
-7.94771
-7.83065
-7.70139
-7.55664
-7.38566
-7.16966
-6.81385
-8.47461
-8.46
-8.43093
-8.38767
-8.33063
-8.26032
-8.17734
-8.08236
-7.97605
-7.85892
-7.73064
-7.588
-7.4208
-7.2267
-7.10259
-8.51791
-8.50281
-8.47279
-8.42817
-8.36944
-8.29726
-8.2124
-8.11584
-8.00871
-7.89223
-7.76715
-7.63137
-7.47097
-7.23272
-6.58777
-8.56767
-8.55198
-8.5208
-8.4745
-8.41368
-8.33911
-8.25181
-8.1531
-8.04469
-7.92883
-7.80835
-7.6868
-7.57152
-7.51878
-7.87221
-8.6243
-8.60789
-8.5753
-8.52695
-8.46351
-8.38591
-8.29536
-8.19353
-8.08266
-7.96592
-7.84759
-7.73282
-7.62497
-7.52033
-7.25679
-8.68829
-8.67103
-8.63674
-8.5859
-8.51925
-8.4378
-8.34296
-8.23664
-8.12153
-8.00142
-7.88161
-7.76897
-7.6725
-7.62979
-7.83302
-8.76022
-8.74195
-8.70567
-8.65186
-8.5813
-8.4951
-8.39474
-8.28229
-8.16067
-8.034
-7.90793
-7.78883
-7.67899
-7.56603
-7.27787
-8.8408
-8.82136
-8.78274
-8.72545
-8.65027
-8.55832
-8.45112
-8.33073
-8.20011
-8.06346
-7.92667
-7.79719
-7.68396
-7.62149
-7.78633
-8.93082
-8.91004
-8.86876
-8.80746
-8.72693
-8.62824
-8.51284
-8.38269
-8.24053
-8.09032
-7.93759
-7.78919
-7.64996
-7.51667
-7.24796
-9.0312
-9.00893
-8.96464
-8.89883
-8.81223
-8.70585
-8.581
-8.43939
-8.28335
-8.11621
-7.94275
-7.76974
-7.60814
-7.50345
-7.64982
-9.14298
-9.11905
-9.07144
-9.00061
-8.90729
-8.79237
-8.65699
-8.50251
-8.33067
-8.14378
-7.94485
-7.73728
-7.52311
-7.31345
-7.12915
-9.26731
-9.24155
-9.1903
-9.11401
-9.01335
-8.88918
-8.74242
-8.57408
-8.38523
-8.17698
-7.95022
-7.70432
-7.43126
-7.1034
-6.53192
-9.40543
-9.37769
-9.32249
-9.24029
-9.13177
-8.99773
-8.839
-8.65629
-8.45006
-8.2203
-7.96614
-7.68513
-7.37378
-7.06015
-6.97603
-9.5587
-9.52883
-9.46936
-9.38081
-9.26391
-9.1195
-8.94839
-8.75121
-8.528
-8.27785
-7.99797
-7.68192
-7.31419
-6.8551
-6.02655
-9.72861
-9.69642
-9.63235
-9.53698
-9.41115
-9.25584
-9.07206
-8.86057
-8.62143
-8.35331
-8.05216
-7.70949
-7.31436
-6.90421
-6.86141
-9.91675
-9.88204
-9.81298
-9.71024
-9.57483
-9.408
-9.21113
-8.9855
-8.73176
-8.44899
-8.13242
-7.7684
-7.32126
-6.6958
-5.41027
-10.1248
-10.0874
-10.0129
-9.90213
-9.7563
-9.57704
-9.36631
-9.1263
-8.85903
-8.5654
-8.24285
-7.87993
-7.44826
-6.94335
-6.82908
-10.3548
-10.3143
-10.2339
-10.1143
-9.95696
-9.76395
-9.53795
-9.28239
-9.00135
-8.69915
-8.37856
-8.03407
-7.62239
-6.91716
-4.5099
-10.6087
-10.5649
-10.4779
-10.3485
-10.1783
-9.96979
-9.72625
-9.45252
-9.15513
-8.84293
-8.52808
-8.22973
-7.99659
-8.07046
-9.90583
-10.8887
-10.8414
-10.7472
-10.6069
-10.4223
-10.1959
-9.93165
-9.63543
-9.31594
-8.98581
-8.66336
-8.37495
-8.1538
-7.99792
-7.29428
-11.1975
-11.1463
-11.0442
-10.8921
-10.6913
-10.4443
-10.1553
-9.83084
-9.4809
-9.12063
-8.77224
-8.46831
-8.26188
-8.30322
-9.32821
-11.5375
-11.4822
-11.3719
-11.2068
-10.9882
-10.7179
-10.3998
-10.0403
-9.64981
-9.24448
-8.84749
-8.48881
-8.19415
-7.92287
-7.04505
-11.9116
-11.8522
-11.7332
-11.5547
-11.3168
-11.0207
-10.6691
-10.2675
-9.82581
-9.35984
-8.89342
-8.45973
-8.10646
-7.96127
-8.68162
-12.3228
-12.2593
-12.1318
-11.9395
-11.6817
-11.3579
-10.9691
-10.519
-10.0154
-9.47284
-8.91393
-8.36974
-7.87062
-7.39625
-6.39404
-12.7736
-12.7064
-12.571
-12.3657
-12.0882
-11.7362
-11.3079
-10.804
-10.229
-9.59451
-8.92159
-8.24346
-7.61407
-7.19552
-7.77185
-13.2669
-13.1966
-13.0545
-12.8378
-12.5424
-12.1633
-11.6953
-11.1345
-10.4807
-9.74026
-8.93029
-8.07843
-7.2077
-6.30187
-5.29258
-13.8045
-13.7322
-13.5855
-13.3603
-13.0505
-12.6479
-12.1431
-11.5261
-10.7894
-9.93169
-8.96559
-7.92169
-6.82244
-5.47813
-2.16412
-14.3879
-14.315
-14.1665
-13.9372
-13.6187
-13.1994
-12.6648
-11.9973
-11.1788
-10.1959
-9.05244
-7.79874
-6.60422
-6.02048
-8.21803
-15.0174
-14.9457
-14.7994
-14.5717
-14.2525
-13.8269
-13.2747
-12.5695
-11.6792
-10.5689
-9.21348
-7.63012
-5.95894
-4.63004
-4.41676
-15.6921
-15.6239
-15.4841
-15.2654
-14.9559
-14.5381
-13.9868
-13.2667
-12.3291
-11.1097
-9.53039
-7.51801
-5.07319
-2.46375
-0.518371
-16.4094
-16.3472
-16.219
-16.0175
-15.7301
-15.3378
-14.8121
-14.111
-13.1713
-11.8979
-10.1456
-7.70182
-4.29911
0.164626
4.67979
-17.1654
-17.1115
-17.0003
-16.8247
-16.5727
-16.2256
-15.755
-15.117
-14.2421
-13.0157
-11.2387
-8.54711
-4.25928
2.75795
12.9618
-17.954
-17.9109
-17.8217
-17.6804
-17.4767
-17.1948
-16.8099
-16.2836
-15.5535
-14.5131
-12.9643
-10.4963
-6.1123
3.13867
28.2774
-169.928
-103.191
-73.2193
-58.991
-51.4211
-46.9365
-44.05
-42.0795
-40.6806
-39.6648
-38.922
-38.3849
-38.0113
-37.775
-37.6604
-209.011
-96.7624
-65.5934
-53.6091
-47.6317
-44.1106
-41.8169
-40.2269
-39.0818
-38.2401
-37.6186
-37.1658
-36.8491
-36.648
-36.5503
48.7631
-34.0187
-44.635
-44.0458
-42.1299
-40.4268
-39.0892
-38.0588
-37.2655
-36.6557
-36.1911
-35.8453
-35.5999
-35.4425
-35.3656
-10.9762
-21.3856
-31.4504
-35.3948
-36.4742
-36.4839
-36.1424
-35.7198
-35.3153
-34.9636
-34.6745
-34.4484
-34.2827
-34.1742
-34.1207
24.0545
-8.98899
-22.5094
-28.7251
-31.5559
-32.7797
-33.2463
-33.362
-33.322
-33.2216
-33.1075
-33.0029
-32.9191
-32.8612
-32.8319
-5.67747
-10.1481
-18.6352
-24.3986
-27.7483
-29.5965
-30.5886
-31.1063
-31.3644
-31.4826
-31.5275
-31.5366
-31.5308
-31.5219
-31.5162
7.52501
-8.51594
-16.6471
-21.7411
-24.9786
-27.0034
-28.2552
-29.025
-29.4979
-29.7882
-29.966
-30.0741
-30.1382
-30.174
-30.1899
-8.11935
-12.3747
-16.7629
-20.366
-23.0465
-24.9429
-26.2514
-27.1445
-27.7522
-28.1658
-28.4468
-28.6358
-28.7591
-28.8335
-28.8685
-20.8843
-16.1389
-17.4187
-19.6249
-21.6543
-23.2865
-24.5312
-25.4566