/*--------------------------------*- C++ -*----------------------------------*\
| =========                 |                                                 |
| \\      /  F ield         | OpenFOAM: The Open Source CFD Toolbox           |
|  \\    /   O peration     | Version:  5.x                                   |
|   \\  /    A nd           | Web:      www.OpenFOAM.org                      |
|    \\/     M anipulation  |                                                 |
\*---------------------------------------------------------------------------*/
FoamFile
{
    version     2.0;
    format      ascii;
    class       volScalarField;
    location    "17.6001";
    object      gradTx;
}
// * * * * * * * * * * * * * * * * * * * * * * * * * * * * * * * * * * * * * //

dimensions      [0 -1 0 1 0 0 0];

internalField   nonuniform List<scalar> 
6300
(
-31.9523
-32.023
-32.1638
-32.3732
-32.649
-32.9879
-33.3859
-33.8374
-34.3357
-34.8728
-35.4392
-36.0247
-36.6181
-37.2081
-37.7842
-31.8816
-31.953
-32.0952
-32.3068
-32.5857
-32.929
-33.3324
-33.7906
-34.297
-34.8434
-35.4203
-36.0168
-36.6214
-37.2221
-37.8075
-31.7394
-31.8122
-31.9571
-32.1731
-32.4582
-32.8098
-33.224
-33.6956
-34.2182
-34.7835
-35.3816
-36.0009
-36.6286
-37.2513
-37.8561
-31.5245
-31.5992
-31.748
-31.9702
-32.2643
-32.628
-33.0581
-33.5497
-34.0968
-34.6909
-35.3217
-35.9765
-36.6407
-37.2985
-37.9341
-31.235
-31.3119
-31.4656
-31.6955
-32.0008
-32.38
-32.8305
-33.3485
-33.9282
-34.5617
-35.2378
-35.9427
-36.6593
-37.368
-38.0486
-30.8686
-30.948
-31.1069
-31.3454
-31.6634
-32.0605
-32.5355
-33.0855
-33.7061
-34.3897
-35.1252
-35.8973
-36.6856
-37.4656
-38.21
-30.4227
-30.5045
-30.6686
-30.9157
-31.247
-31.6633
-32.1653
-32.752
-33.4208
-34.1657
-34.9761
-35.8355
-36.7203
-37.5989
-38.4337
-29.8951
-29.9788
-30.1472
-30.4019
-30.7454
-31.1806
-31.7103
-32.3365
-33.0595
-33.8762
-34.778
-35.7485
-36.761
-37.7759
-38.7409
-29.2837
-29.3685
-29.5394
-29.7993
-30.1522
-30.6034
-31.1587
-31.8241
-32.6045
-33.5015
-34.5112
-35.6197
-36.7993
-38.003
-39.1598
-28.5875
-28.6719
-28.8427
-29.1037
-29.4608
-29.922
-30.497
-31.1968
-32.0328
-33.0143
-34.1454
-35.4197
-36.8134
-38.277
-39.7222
-27.807
-27.8891
-28.0558
-28.312
-28.6654
-29.1269
-29.7105
-30.4334
-31.3156
-32.3775
-33.6365
-35.1001
-36.7576
-38.5693
-40.4491
-26.9443
-27.0217
-27.1793
-27.423
-27.762
-28.2097
-28.7846
-29.5107
-30.4186
-31.5437
-32.9229
-34.5866
-36.5472
-38.7934
-41.2977
-26.0042
-26.0741
-26.2168
-26.4387
-26.7498
-27.1653
-27.7073
-28.4064
-29.3044
-30.4556
-31.9246
-33.7757
-36.0503
-38.7577
-41.9964
-24.9942
-25.0536
-25.1753
-25.3651
-25.6331
-25.9946
-26.473
-27.1032
-27.9369
-29.0494
-30.5437
-32.5397
-35.1169
-38.1838
-41.5979
-23.9247
-23.9709
-24.0656
-24.2135
-24.4229
-24.707
-25.0869
-25.5963
-26.2905
-27.2612
-28.6598
-30.7184
-33.6829
-37.2375
-37.714
-38.2929
-38.7326
-39.148
-39.5374
-39.8998
-40.2351
-40.5438
-40.8262
-41.0827
-41.3131
-41.5167
-41.6927
-41.8399
-41.9577
-42.0458
-42.1052
-42.1378
-42.1465
-42.1351
-42.1079
-42.0692
-42.0227
-41.9714
-41.917
-41.8601
-41.8
-41.7354
-41.6642
-41.5846
-41.495
-41.3949
-41.2847
-41.1657
-41.0402
-40.9111
-40.7812
-40.6533
-40.529
-40.4093
-40.294
-40.1818
-40.071
-39.959
-39.8438
-39.7236
-39.5974
-39.4653
-39.3285
-39.1888
-39.0487
-38.9109
-38.7775
-38.6501
-38.5295
-38.4152
-38.306
-38.2
-38.0949
-37.9884
-37.8789
-37.7653
-37.6477
-37.5271
-37.4053
-37.2845
-37.1673
-37.0557
-36.9513
-36.8548
-36.7659
-36.6837
-36.6065
-36.5324
-36.4599
-36.3878
-36.3162
-36.2459
-36.1792
-36.1192
-36.0698
-36.0349
-36.0183
-36.023
-36.0505
-36.1011
-36.1731
-36.2631
-36.3662
-36.4762
-36.5863
-38.3232
-38.7673
-39.1856
-39.5763
-39.9388
-40.2735
-40.5815
-40.8635
-41.1203
-41.3516
-41.5566
-41.7341
-41.8824
-42.0003
-42.0872
-42.1439
-42.1722
-42.1754
-42.1579
-42.1246
-42.0804
-42.0297
-41.9758
-41.9206
-41.8646
-41.8067
-41.7448
-41.6764
-41.5988
-41.5102
-41.4096
-41.2973
-41.175
-41.0455
-40.9121
-40.7786
-40.6479
-40.5224
-40.403
-40.2894
-40.18
-40.0725
-39.9637
-39.851
-39.7321
-39.6058
-39.4722
-39.3325
-39.1893
-39.0456
-38.9045
-38.7688
-38.6404
-38.5203
-38.4078
-38.3015
-38.1988
-38.0968
-37.9929
-37.8847
-37.7711
-37.6521
-37.5289
-37.4037
-37.2795
-37.1591
-37.0453
-36.9399
-36.8437
-36.7564
-36.6765
-36.6019
-36.5302
-36.4592
-36.3873
-36.3141
-36.2407
-36.1695
-36.1041
-36.0489
-36.0086
-35.9878
-35.99
-36.0173
-36.0702
-36.1471
-36.2443
-36.3563
-36.4762
-36.5962
-38.3861
-38.8393
-39.2629
-39.6557
-40.0177
-40.3506
-40.6565
-40.9374
-41.1945
-41.4279
-41.6363
-41.8174
-41.9686
-42.0874
-42.1723
-42.2233
-42.2426
-42.2342
-42.2034
-42.1569
-42.1009
-42.0412
-41.9821
-41.9256
-41.8718
-41.819
-41.7636
-41.7017
-41.6291
-41.5428
-41.441
-41.3242
-41.1947
-41.0562
-40.9135
-40.7717
-40.6352
-40.5069
-40.3883
-40.2787
-40.1757
-40.0756
-39.9742
-39.8672
-39.7513
-39.6248
-39.4876
-39.3418
-39.1907
-39.0386
-38.8902
-38.7495
-38.619
-38.5
-38.3917
-38.2917
-38.1964
-38.1017
-38.0034
-37.8983
-37.7846
-37.6624
-37.5334
-37.4009
-37.2688
-37.1416
-37.0229
-36.9153
-36.8199
-36.7361
-36.6616
-36.5933
-36.5271
-36.4597
-36.3885
-36.3124
-36.2325
-36.1515
-36.0742
-36.0064
-35.9544
-35.9241
-35.9207
-35.9473
-36.0048
-36.0919
-36.2041
-36.3349
-36.4759
-36.6172
-38.4867
-38.9537
-39.3849
-39.7792
-40.1386
-40.4665
-40.7675
-41.0454
-41.3029
-41.5401
-41.7551
-41.9439
-42.1016
-42.2234
-42.306
-42.3485
-42.3531
-42.325
-42.2718
-42.2027
-42.1268
-42.0521
-41.9845
-41.9265
-41.8778
-41.8348
-41.7919
-41.7423
-41.6792
-41.5974
-41.4941
-41.3696
-41.2273
-41.0728
-40.9137
-40.7574
-40.6105
-40.4777
-40.3607
-40.2584
-40.1671
-40.0808
-39.9927
-39.8962
-39.7859
-39.6591
-39.5156
-39.3586
-39.1933
-39.0265
-38.8651
-38.7153
-38.5811
-38.4643
-38.3635
-38.2751
-38.1933
-38.1117
-38.0236
-37.9242
-37.8105
-37.6826
-37.5432
-37.3973
-37.2512
-37.1117
-36.9843
-36.8731
-36.7795
-36.7023
-36.6381
-36.5813
-36.5258
-36.4658
-36.3967
-36.3163
-36.2256
-36.1282
-36.0307
-35.9411
-35.8687
-35.8219
-35.8082
-35.8326
-35.8971
-36.0003
-36.1371
-36.2991
-36.475
-36.6517
-38.6337
-39.1199
-39.5598
-39.9533
-40.3047
-40.6213
-40.9115
-41.183
-41.4404
-41.6844
-41.9117
-42.1152
-42.2862
-42.4158
-42.4974
-42.5283
-42.5107
-42.4518
-42.3631
-42.2582
-42.1509
-42.053
-41.9729
-41.9142
-41.8755
-41.8506
-41.83
-41.8023
-41.7562
-41.683
-41.5778
-41.4408
-41.2772
-41.0963
-40.9097
-40.7294
-40.5657
-40.4256
-40.3118
-40.2224
-40.1512
-40.0886
-40.0234
-39.9449
-39.8444
-39.7172
-39.5632
-39.3874
-39.1981
-39.0064
-38.8233
-38.6584
-38.5183
-38.4054
-38.3176
-38.2489
-38.1902
-38.1308
-38.0603
-37.9705
-37.8569
-37.7193
-37.5623
-37.3939
-37.2243
-37.0642
-36.9226
-36.8056
-36.7154
-36.65
-36.6037
-36.5674
-36.5312
-36.485
-36.421
-36.3353
-36.2282
-36.1052
-35.9756
-35.8514
-35.7459
-35.6721
-35.6409
-35.6602
-35.7336
-35.8603
-36.034
-36.2433
-36.4728
-36.704
-38.8411
-39.3528
-39.8014
-40.188
-40.5209
-40.8139
-41.0827
-41.3409
-41.5972
-41.8529
-42.1023
-42.3333
-42.5303
-42.6774
-42.762
-42.7779
-42.7276
-42.6217
-42.4779
-42.3173
-42.1613
-42.0282
-41.9305
-41.8731
-41.8532
-41.8602
-41.8784
-41.8886
-41.8724
-41.8147
-41.7073
-41.5502
-41.3521
-41.128
-40.8968
-40.6776
-40.4868
-40.3355
-40.2278
-40.1604
-40.1229
-40.0999
-40.0733
-40.0252
-39.9414
-39.8138
-39.6424
-39.4353
-39.2066
-38.9739
-38.7553
-38.566
-38.4164
-38.3103
-38.2442
-38.2083
-38.188
-38.1658
-38.1248
-38.0513
-37.9378
-37.7841
-37.5977
-37.3921
-37.1839
-36.9902
-36.8255
-36.6994
-36.6155
-36.5704
-36.5546
-36.5537
-36.5508
-36.5296
-36.4767
-36.3848
-36.2539
-36.0918
-35.9126
-35.7346
-35.5777
-35.461
-35.401
-35.4097
-35.4936
-35.6526
-35.8794
-36.1586
-36.4681
-36.7809
-39.1302
-39.6764
-40.1323
-40.4999
-40.7946
-41.0415
-41.269
-41.5016
-41.7546
-42.0306
-42.3194
-42.6004
-42.8464
-43.0291
-43.1254
-43.1231
-43.0244
-42.8462
-42.6167
-42.3697
-42.1388
-41.9525
-41.8299
-41.7782
-41.7919
-41.854
-41.9381
-42.0132
-42.0483
-42.018
-41.9082
-41.7188
-41.4643
-41.1699
-40.8664
-40.5848
-40.3511
-40.1827
-40.0859
-40.0551
-40.0737
-40.1166
-40.1542
-40.1571
-40.1013
-39.9733
-39.7732
-39.5144
-39.2207
-38.9212
-38.6449
-38.4164
-38.252
-38.1574
-38.1272
-38.1455
-38.1885
-38.228
-38.236
-38.1898
-38.0764
-37.8959
-37.6608
-37.3939
-37.1226
-36.8744
-36.6726
-36.5326
-36.4598
-36.4487
-36.484
-36.5426
-36.597
-36.6199
-36.5887
-36.4905
-36.3245
-36.103
-35.8479
-35.5874
-35.3514
-35.1683
-35.0621
-35.0508
-35.1452
-35.3475
-35.6492
-36.0304
-36.4588
-36.8934
-39.5341
-40.1303
-40.5905
-40.9168
-41.1371
-41.2971
-41.4479
-41.633
-41.8789
-42.1898
-42.5479
-42.9179
-43.2535
-43.5051
-43.6308
-43.607
-43.4356
-43.1446
-42.7808
-42.3989
-42.0522
-41.7852
-41.6272
-41.589
-41.6612
-41.8158
-42.0108
-42.1954
-42.3182
-42.3359
-42.2236
-41.9813
-41.6341
-41.2249
-40.8047
-40.423
-40.1213
-39.9267
-39.8489
-39.8787
-39.9894
-40.1409
-40.2851
-40.3735
-40.3652
-40.2368
-39.9883
-39.6436
-39.2432
-38.835
-38.4658
-38.1746
-37.987
-37.9119
-37.9404
-38.0471
-38.1939
-38.3354
-38.4254
-38.425
-38.3118
-38.086
-37.77
-37.4021
-37.0279
-36.6918
-36.4307
-36.269
-36.2151
-36.2602
-36.38
-36.5375
-36.6886
-36.788
-36.7973
-36.6936
-36.4753
-36.1624
-35.791
-35.4049
-35.0491
-34.7649
-34.5864
-34.5398
-34.6417
-34.8989
-35.3048
-35.8341
-36.4404
-37.0595
-40.1037
-40.7798
-41.2413
-41.4865
-41.5664
-41.5658
-41.5772
-41.677
-41.9098
-42.2808
-42.759
-43.2852
-43.7814
-44.1623
-44.3518
-44.3034
-44.0188
-43.548
-42.971
-42.3773
-41.851
-41.4607
-41.2519
-41.2409
-41.4117
-41.7197
-42.0983
-42.4667
-42.7393
-42.8411
-42.7261
-42.3947
-41.893
-41.2959
-40.6873
-40.1463
-39.7371
-39.5024
-39.4571
-39.586
-39.8464
-40.1755
-40.4965
-40.729
-40.8022
-40.6731
-40.3421
-39.8531
-39.2768
-38.6925
-38.1746
-37.7837
-37.5599
-37.5172
-37.6409
-37.8908
-38.2071
-38.5172
-38.7448
-38.8225
-38.7095
-38.4062
-37.9538
-37.4194
-36.8783
-36.4013
-36.0458
-35.8502
-35.8277
-35.9643
-36.2215
-36.5417
-36.8546
-37.0857
-37.1687
-37.0618
-36.7621
-36.3062
-35.7552
-35.1787
-34.6439
-34.209
-33.9211
-33.8148
-33.9145
-34.2364
-34.7827
-35.5271
-36.4035
-37.3084
-40.9156
-41.7383
-42.2035
-42.2943
-42.1117
-41.8175
-41.5792
-41.5294
-41.7416
-42.2175
-42.9011
-43.6957
-44.4753
-45.0953
-45.4152
-45.3397
-44.8703
-44.1045
-43.1851
-42.2586
-41.454
-40.875
-40.5919
-40.6309
-40.9646
-41.522
-42.2008
-42.8757
-43.4065
-43.6584
-43.5404
-43.0534
-42.2895
-41.3832
-40.4727
-39.6797
-39.1018
-38.8053
-38.8147
-39.1036
-39.6048
-40.2215
-40.8354
-41.314
-41.5306
-41.4
-40.9235
-40.1885
-39.3219
-38.4543
-37.7004
-37.1522
-36.8719
-36.8828
-37.1597
-37.639
-38.2291
-38.8179
-39.2799
-39.4947
-39.3814
-38.9409
-38.2557
-37.4463
-36.6366
-35.9356
-35.4308
-35.1819
-35.2112
-35.4949
-35.9725
-36.5562
-37.1383
-37.5968
-37.8137
-37.7074
-37.274
-36.5871
-35.756
-34.8926
-34.0946
-33.4416
-32.994
-32.7932
-32.8674
-33.2507
-33.9752
-35.0298
-36.3258
-37.6896
-42.08
-43.212
-43.7045
-43.4956
-42.8174
-41.9888
-41.3098
-41.0044
-41.1938
-41.8549
-42.8835
-44.1276
-45.399
-46.4605
-47.0479
-46.9435
-46.1484
-44.8823
-43.4093
-41.9643
-40.7322
-39.8632
-39.4678
-39.5969
-40.1953
-41.1493
-42.3087
-43.4924
-44.4754
-45.0081
-44.8859
-44.1109
-42.8911
-41.4765
-40.089
-38.9033
-38.0614
-37.6675
-37.7697
-38.3154
-39.1968
-40.2717
-41.369
-42.2763
-42.759
-42.6249
-41.8773
-40.7131
-39.3684
-38.0526
-36.9302
-36.1348
-35.7648
-35.8654
-36.387
-37.2276
-38.2529
-39.3011
-40.1709
-40.6395
-40.5244
-39.8279
-38.7364
-37.4736
-36.2384
-35.1872
-34.4474
-34.1132
-34.2283
-34.7461
-35.5705
-36.5733
-37.5999
-38.4558
-38.9241
-38.8239
-38.1508
-37.0756
-35.8035
-34.5123
-33.3364
-32.3785
-31.7116
-31.3757
-31.3752
-31.7736
-32.6924
-34.185
-36.1503
-38.2908
-43.7247
-45.6078
-46.2158
-45.3718
-43.7389
-41.9447
-40.5029
-39.7668
-39.9669
-40.9632
-42.5554
-44.5204
-46.6249
-48.5085
-49.6768
-49.5417
-48.1049
-45.958
-43.5932
-41.3634
-39.4876
-38.1692
-37.5885
-37.887
-38.9139
-40.4811
-42.3815
-44.3982
-46.1928
-47.301
-47.1716
-45.8089
-43.7733
-41.5307
-39.4146
-37.6321
-36.3756
-35.8156
-36.0861
-37.0438
-38.5104
-40.2895
-42.176
-43.8502
-44.8753
-44.7335
-43.4309
-41.4977
-39.3734
-37.3723
-35.689
-34.5046
-33.9801
-34.2418
-35.1548
-36.5505
-38.2439
-40.0411
-41.6396
-42.6249
-42.5046
-41.2836
-39.4637
-37.4614
-35.5752
-33.9904
-32.8798
-32.3976
-32.6653
-33.5561
-34.9113
-36.5564
-38.3071
-39.8732
-40.853
-40.7655
-39.6065
-37.8479
-35.8781
-33.9663
-32.2641
-30.8964
-29.9525
-29.4752
-29.3084
-29.5473
-30.5831
-32.6597
-35.7225
-39.2762
-45.841
-49.8459
-50.8235
-48.3827
-44.8885
-41.3923
-38.6799
-37.1816
-37.5932
-39.2137
-41.6904
-44.7123
-48.1686
-51.5868
-54.1823
-54.0146
-51.0837
-47.3477
-43.5825
-40.253
-37.4403
-35.4131
-34.4432
-35.128
-36.8547
-39.3329
-42.2868
-45.6239
-48.8984
-51.3761
-51.2332
-48.4756
-44.9539
-41.4025
-38.2598
-35.6033
-33.6867
-32.768
-33.4127
-35.0396
-37.3737
-40.1528
-43.2887
-46.3589
-48.6719
-48.5137
-45.8925
-42.5574
-39.2009
-36.2343
-33.7293
-31.9244
-31.0632
-31.6805
-33.2274
-35.4446
-38.0853
-41.0672
-43.9915
-46.2021
-46.0701
-43.6017
-40.4535
-37.2821
-34.4781
-32.1105
-30.4075
-29.6022
-30.2052
-31.6973
-33.8349
-36.3873
-39.28
-42.1349
-44.319
-44.25
-41.9255
-38.9244
-35.8694
-33.1182
-30.7103
-28.8041
-27.5214
-27.1278
-26.6575
-26.1734
-26.975
-29.7143
-34.5878
-40.9772
-47.3664
-58.4562
-60.3873
-52.924
-46.0307
-39.7057
-35.1074
-31.846
-33.4784
-36.2313
-40.0402
-44.2787
-49.7672
-55.8498
-62.6669
-62.4665
-55.2218
-48.7793
-42.9446
-38.3983
-34.2617
-31.1344
-28.915
-30.869
-33.7131
-37.4998
-41.6401
-46.9398
-52.7515
-59.2248
-59.0601
-52.2426
-46.1773
-40.6857
-36.4051
-32.5092
-29.561
-27.4688
-29.3249
-32.0172
-35.5961
-39.5024
-44.4961
-49.9578
-56.0272
-55.8405
-49.3822
-43.6479
-38.4669
-34.4315
-30.7617
-27.9852
-26.0172
-27.7807
-30.3347
-33.7288
-37.4353
-42.1765
-47.3709
-53.1529
-52.9998
-46.8988
-41.4768
-36.5738
-32.7524
-29.2738
-26.6423
-24.7787
-26.4648
-28.9087
-32.1613
-35.728
-40.3076
-45.3623
-51.0297
-50.9822
-45.2188
-40.0786
-35.4231
-31.7758
-28.4338
-25.8142
-23.8099
-24.8908
-24.0263
-20.948
-20.5768
-23.6956
-31.2701
-44.1082
-41.0299
-80.2203
-83.5991
-56.7666
-46.3717
-35.5309
-29.6091
-19.4632
-27.7504
-31.728
-37.7713
-42.0452
-50.5104
-59.055
-81.2567
-81.062
-58.2048
-49.3357
-40.4512
-35.9536
-29.63
-25.5484
-17.377
-25.3281
-29.2144
-35.1575
-39.3239
-47.5185
-55.6518
-76.6323
-76.4671
-54.9262
-46.5746
-38.2251
-33.9962
-28.0503
-24.2026
-16.4844
-24.0329
-27.7179
-33.3469
-37.2861
-45.0295
-52.6816
-72.3915
-72.1983
-51.8295
-43.9415
-36.0833
-32.1024
-26.5077
-22.8816
-15.598
-22.7426
-26.2322
-31.563
-35.2957
-42.6329
-49.9041
-68.6502
-68.4944
-49.2184
-41.7525
-34.3079
-30.533
-25.2173
-21.7714
-14.8438
-21.6333
-24.9557
-30.0354
-33.6102
-40.651
-47.7074
-65.9699
-65.9452
-47.6148
-40.5349
-33.5252
-29.9938
-25.1168
-21.9384
-15.6558
-25.4549
-24.5831
-11.8245
-9.15298
-11.2607
-20.373
-50.2135
-36.6986
-36.8024
-36.8776
-36.9186
-36.9238
-36.895
-36.8368
-36.7562
-36.6613
-36.5606
-36.4624
-36.3743
-36.3024
-36.2517
-36.2255
-36.7186
-36.8311
-36.9117
-36.9544
-36.9579
-36.9243
-36.8592
-36.7705
-36.667
-36.5581
-36.4524
-36.358
-36.2812
-36.2272
-36.1993
-36.7608
-36.8917
-36.9835
-37.0297
-37.0289
-36.985
-36.9054
-36.7996
-36.6783
-36.5523
-36.4313
-36.324
-36.2373
-36.1765
-36.1453
-36.8305
-36.9915
-37.1011
-37.1517
-37.1431
-37.0816
-36.9776
-36.8441
-36.6944
-36.5414
-36.3965
-36.2693
-36.1674
-36.0964
-36.06
-36.9366
-37.1427
-37.2777
-37.3329
-37.3103
-37.2206
-37.0795
-36.9047
-36.7137
-36.5224
-36.344
-36.1893
-36.0666
-35.9817
-35.9383
-37.0934
-37.3649
-37.5342
-37.5919
-37.5447
-37.411
-37.215
-36.9815
-36.7335
-36.4904
-36.2678
-36.0775
-35.928
-35.8254
-35.7732
-37.3242
-37.6892
-37.9025
-37.9556
-37.8654
-37.6639
-37.3879
-37.0727
-36.7483
-36.4379
-36.1593
-35.9247
-35.7427
-35.6187
-35.5559
-37.6671
-38.1652
-38.431
-38.4627
-38.2976
-37.9911
-37.6001
-37.1734
-36.7489
-36.3538
-36.0067
-35.7194
-35.4993
-35.3507
-35.2759
-38.1858
-38.8734
-39.1936
-39.1665
-38.8711
-38.4029
-37.8479
-37.2718
-36.72
-36.2218
-35.7943
-35.4469
-35.1845
-35.0089
-34.921
-38.9925
-39.949
-40.3036
-40.1385
-39.6173
-38.9017
-38.1168
-37.3457
-36.6377
-36.0191
-35.5017
-35.0896
-34.7827
-34.5794
-34.4783
-40.2959
-41.6266
-41.9331
-41.4669
-40.5578
-39.4698
-38.372
-37.3565
-36.4661
-35.7151
-35.104
-34.627
-34.2772
-34.0479
-33.9344
-42.5171
-44.3283
-44.3353
-43.2381
-41.6771
-40.0478
-38.5448
-37.2424
-36.1549
-35.2713
-34.572
-34.0374
-33.6511
-33.4004
-33.2771
-46.5953
-48.8342
-47.8418
-45.4732
-42.8646
-40.4996
-38.5169
-36.9132
-35.64
-34.6431
-33.8752
-33.2997
-32.8894
-32.6256
-32.4965
-54.9101
-56.5716
-52.7244
-47.9482
-43.8087
-40.569
-38.11
-36.2535
-34.849
-33.7857
-32.9861
-32.3966
-31.9812
-31.716
-31.5868
-74.4903
-69.8178
-58.5358
-49.7866
-43.8528
-39.8578
-37.1007
-35.1418
-33.7166
-32.6648
-31.8868
-31.3196
-30.9227
-30.6705
-30.548
-22.9021
-22.9341
-22.9996
-23.1015
-23.245
-23.4389
-23.6976
-24.0457
-24.5279
-25.2292
-26.326
-28.2108
-31.8025
-39.121
-52.3043
-21.9501
-21.9683
-22.0052
-22.0616
-22.1393
-22.2411
-22.3724
-22.5431
-22.7732
-23.1071
-23.6549
-24.7343
-27.4581
-36.6571
-78.2205
-20.9855
-20.9896
-20.9972
-21.007
-21.0167
-21.0229
-21.0199
-20.9992
-20.9465
-20.8365
-20.6133
-20.1031
-18.5388
-11.7085
25.3413
-20.0181
-20.0085
-19.9877
-19.9524
-19.8967
-19.811
-19.6798
-19.4775
-19.1598
-18.645
-17.7719
-16.1989
-13.2057
-7.73726
-3.89313
-19.0573
-19.0351
-18.9883
-18.912
-18.7975
-18.6307
-18.3891
-18.036
-17.5099
-16.7028
-15.4187
-13.2874
-9.57972
-2.62993
13.4384
-18.112
-18.0787
-18.0095
-17.8982
-17.7346
-17.5023
-17.1757
-16.7148
-16.055
-15.0916
-13.6541
-11.4743
-8.206
-3.85191
-1.9773
-17.1897
-17.1474
-17.0599
-16.9208
-16.7194
-16.4393
-16.0558
-15.5316
-14.8108
-13.8097
-12.4048
-10.4179
-7.58687
-3.35131
4.90001
-16.2968
-16.2475
-16.1461
-15.9865
-15.7588
-15.4482
-15.0335
-14.4849
-13.7612
-12.8082
-11.5595
-9.94795
-7.94328
-5.63927
-3.4833
-15.4381
-15.3839
-15.2728
-15.0996
-14.8558
-14.5294
-14.1043
-13.5598
-12.871
-12.0122
-10.9659
-9.75108
-8.50764
-7.82436
-10.3694
-14.6171
-14.5597
-14.4426
-14.2616
-14.0101
-13.6792
-13.2581
-12.7348
-12.0989
-11.3462
-10.4895
-9.57405
-8.68301
-7.76757
-5.05719
-13.836
-13.7768
-13.6569
-13.4727
-13.2196
-12.8917
-12.4827
-11.9881
-11.4078
-10.7526
-10.0539
-9.38007
-8.87534
-8.95727
-11.8283
-13.0959
-13.0363
-12.9156
-12.7317
-12.4811
-12.1604
-11.7669
-11.3008
-10.7687
-10.1892
-9.60094
-9.06868
-8.66027
-8.21008
-5.58718
-12.3974
-12.338
-12.2184
-12.0369
-11.7913
-11.4797
-11.1015
-10.6593
-10.1625
-9.63196
-9.1091
-8.6713
-8.4742
-8.97172
-12.5305
-11.74
-11.6816
-11.5642
-11.3866
-11.1473
-10.8452
-10.4804
-10.0559
-9.57976
-9.06937
-8.55819
-8.10676
-7.80578
-7.60744
-5.49423
-11.1231
-11.0662
-10.9519
-10.7791
-10.5469
-10.2542
-9.90087
-9.48832
-9.02081
-8.50733
-7.96578
-7.43776
-7.06608
-7.57293
-13.4414
-10.5458
-10.4907
-10.38
-10.213
-9.98849
-9.70535
-9.36246
-8.95892
-8.49377
-7.96479
-7.36399
-6.66018
-5.71628
-3.81509
3.40226
-10.0068
-9.95379
-9.84737
-9.68676
-9.47081
-9.19798
-8.86618
-8.4723
-8.01106
-7.47212
-6.83374
-6.04935
-5.03127
-3.74903
-3.6081
-9.50458
-9.45395
-9.35233
-9.19896
-8.99264
-8.73157
-8.413
-8.03247
-7.5823
-7.04851
-6.40489
-5.6008
-4.5297
-2.89038
0.787277
-9.03751
-8.98953
-8.89323
-8.74793
-8.55248
-8.30509
-8.00284
-7.64101
-7.21162
-6.70117
-6.08748
-5.33767
-4.42272
-3.44725
-3.57124
-8.60378
-8.55865
-8.46815
-8.33172
-8.14841
-7.9167
-7.63408
-7.29647
-6.89722
-6.42553
-5.86461
-5.18923
-4.35778
-3.24059
-0.984264
-8.20138
-8.1593
-8.07497
-7.94806
-7.77796
-7.56366
-7.30349
-6.99475
-6.63312
-6.21186
-5.72123
-5.14917
-4.49128
-3.825
-3.86196
-7.82821
-7.78927
-7.71137
-7.5944
-7.43821
-7.24247
-7.00663
-6.72977
-6.41042
-6.04637
-5.63439
-5.16872
-4.6306
-3.92105
-2.43035
-7.48207
-7.44631
-7.37489
-7.26799
-7.12592
-6.94912
-6.73826
-6.49431
-6.21877
-5.91416
-5.58485
-5.23858
-4.88896
-4.55957
-4.29846
-7.16076
-7.12812
-7.06305
-6.966
-6.83774
-6.67944
-6.49288
-6.28077
-6.04731
-5.79911
-5.54708
-5.31078
-5.13327
-5.15067
-5.98523
-6.86213
-6.83245
-6.77342
-6.6857
-6.57043
-6.42938
-6.26524
-6.08207
-5.88608
-5.68673
-5.4984
-5.34216
-5.24224
-5.17428
-4.63835
-6.5841
-6.55717
-6.5037
-6.42452
-6.32102
-6.19536
-6.05081
-5.89228
-5.72719
-5.56668
-5.42743
-5.33442
-5.32903
-5.52288
-6.53245
-6.32478
-6.30033
-6.25184
-6.18023
-6.087
-5.97446
-5.84608
-5.70706
-5.56513
-5.43188
-5.32436
-5.26585
-5.27744
-5.30499
-4.69105
-6.08244
-6.06017
-6.01604
-5.95096
-5.86639
-5.76456
-5.64876
-5.52384
-5.39704
-5.27922
-5.18725
-5.14858
-5.21479
-5.53259
-6.85986
-5.85557
-5.83518
-5.7948
-5.73523
-5.65777
-5.56435
-5.45776
-5.34195
-5.2227
-5.1086
-5.01314
-4.95848
-4.97743
-5.05915
-4.53245
-5.64285
-5.62409
-5.58689
-5.53193
-5.46024
-5.37331
-5.27315
-5.16246
-5.04479
-4.92504
-4.81071
-4.71728
-4.69646
-5.00824
-7.25715
-5.44316
-5.4258
-5.39132
-5.34024
-5.27328
-5.19144
-5.09588
-4.98782
-4.86834
-4.73771
-4.59376
-4.42565
-4.18453
-3.61209
-1.12449
-5.25554
-5.2394
-5.20729
-5.15957
-5.09667
-5.01912
-4.92727
-4.82111
-4.69962
-4.55965
-4.39359
-4.18472
-3.90269
-3.54589
-3.68338
-5.07912
-5.06408
-5.03411
-4.98943
-4.93025
-4.85671
-4.76861
-4.66505
-4.54373
-4.39972
-4.22314
-3.99461
-3.67278
-3.13645
-1.77506
-4.91315
-4.89913
-4.87116
-4.82936
-4.77381
-4.70442
-4.62069
-4.52133
-4.40362
-4.2624
-4.08878
-3.86929
-3.59183
-3.29994
-3.48395
-4.75692
-4.74387
-4.71782
-4.67884
-4.62698
-4.56209
-4.48363
-4.39036
-4.27982
-4.14758
-3.98628
-3.78422
-3.52091
-3.13294
-2.22574
-4.60976
-4.59764
-4.57345
-4.53728
-4.48921
-4.42918
-4.35685
-4.27139
-4.1711
-4.05295
-3.91209
-3.74168
-3.53658
-3.32651
-3.43235
-4.47102
-4.45979
-4.43739
-4.40399
-4.35974
-4.3048
-4.2392
-4.16272
-4.07477
-3.9741
-3.85844
-3.72323
-3.55569
-3.30069
-2.65093
-4.34009
-4.32969
-4.30899
-4.27823
-4.23771
-4.18784
-4.1291
-4.06203
-3.98728
-3.90567
-3.81836
-3.72724
-3.63556
-3.54899
-3.47974
-4.21639
-4.20674
-4.18759
-4.15924
-4.12217
-4.07704
-4.02478
-3.96668
-3.90456
-3.84119
-3.78092
-3.73165
-3.71187
-3.78527
-4.26042
-4.09939
-4.09039
-4.07258
-4.04632
-4.01223
-3.9712
-3.92453
-3.87411
-3.82273
-3.77456
-3.73585
-3.7156
-3.72347
-3.74254
-3.50709
-3.98863
-3.98017
-3.96343
-3.93885
-3.90712
-3.86928
-3.82688
-3.78221
-3.73867
-3.70136
-3.67795
-3.68002
-3.7273
-3.87655
-4.45416
-3.88377
-3.87569
-3.85973
-3.83635
-3.80625
-3.77053
-3.73082
-3.68953
-3.65028
-3.61852
-3.60238
-3.61305
-3.66031
-3.71307
-3.41308
-3.78452
-3.77668
-3.7612
-3.73851
-3.70928
-3.67455
-3.63585
-3.59543
-3.55669
-3.52484
-3.50818
-3.52067
-3.58951
-3.79457
-4.55286
-3.69071
-3.68298
-3.66769
-3.64521
-3.61613
-3.58134
-3.54208
-3.50018
-3.45832
-3.42061
-3.39375
-3.38915
-3.42413
-3.49186
-3.21855
-3.60228
-3.59453
-3.57917
-3.55649
-3.52696
-3.49122
-3.45015
-3.4049
-3.35706
-3.30885
-3.26387
-3.23016
-3.23599
-3.42599
-4.69505
-3.51923
-3.51136
-3.49573
-3.47254
-3.44211
-3.40482
-3.36111
-3.31144
-3.25607
-3.19484
-3.12617
-3.0437
-2.91998
-2.61075
-1.2307
-3.44166
-3.4336
-3.41754
-3.39363
-3.36202
-3.32287
-3.27623
-3.22192
-3.15916
-3.08601
-2.99805
-2.8859
-2.73279
-2.53913
-2.63006
-3.36968
-3.36138
-3.34482
-3.32006
-3.28717
-3.24612
-3.19669
-3.13827
-3.06946
-2.98746
-2.88674
-2.75654
-2.57377
-2.26987
-1.49699
-3.30347
-3.2949
-3.27779
-3.25215
-3.21799
-3.17519
-3.12339
-3.06182
-2.98894
-2.90191
-2.79592
-2.66369
-2.49885
-2.3263
-2.42271
-3.24321
-3.23436
-3.21667
-3.19017
-3.15482
-3.11051
-3.05688
-2.99324
-2.91824
-2.82954
-2.72331
-2.59349
-2.4293
-2.19593
-1.67264
-3.1891
-3.17996
-3.16169
-3.13433
-3.09788
-3.05229
-2.99734
-2.93255
-2.85706
-2.76934
-2.66708
-2.54715
-2.4078
-2.26689
-2.30186
-3.14135
-3.13189
-3.11302
-3.0848
-3.0473
-3.00057
-2.94462
-2.87931
-2.80436
-2.71926
-2.62312
-2.51429
-2.3874
-2.2157
-1.83972
-3.10016
-3.09037
-3.07085
-3.04172
-3.00312
-2.95527
-2.89839
-2.83276
-2.75873
-2.67683
-2.58799
-2.49399
-2.3981
-2.30638
-2.23206
-3.06577
-3.05561
-3.03536
-3.0052
-2.96538
-2.91624
-2.85825
-2.79205
-2.71856
-2.63921
-2.55645
-2.47499
-2.40591
-2.38496
-2.57276
-3.03845
-3.02785
-3.00676
-2.9754
-2.93411
-2.88335
-2.82381
-2.75641
-2.68246
-2.60397
-2.52402
-2.4474
-2.38029
-2.31858
-2.14528
-3.01848
-3.00738
-2.9853
-2.9525
-2.9094
-2.85658
-2.79484
-2.7253
-2.64953
-2.56975
-2.48926
-2.41321
-2.35093
-2.32969
-2.496
-3.00623
-2.99453
-2.97128
-2.93677
-2.89145
-2.83599
-2.77128
-2.69854
-2.61938
-2.53602
-2.45143
-2.36944
-2.29309
-2.21054
-1.98955
-3.00211
-2.98972
-2.96508
-2.92853
-2.88055
-2.82183
-2.75331
-2.67623
-2.59215
-2.50313
-2.4118
-2.32178
-2.23954
-2.18753
-2.30224
-3.00659
-2.9934
-2.96717
-2.92823
-2.8771
-2.81447
-2.7413
-2.65877
-2.56837
-2.47186
-2.37127
-2.2687
-2.16499
-2.04875
-1.80728
-3.02024
-3.00613
-2.97808
-2.93641
-2.88163
-2.81444
-2.73578
-2.64678
-2.54882
-2.44342
-2.33212
-2.21642
-2.09915
-1.99691
-2.0319
-3.04369
-3.02856
-2.99845
-2.9537
-2.89478
-2.82239
-2.73743
-2.64102
-2.53445
-2.41909
-2.29602
-2.16523
-2.02289
-1.84977
-1.54457
-3.07764
-3.06138
-3.02901
-2.98082
-2.91729
-2.83907
-2.74704
-2.64231
-2.52619
-2.4001
-2.26529
-2.12205
-1.96799
-1.79436
-1.58149
-3.12289
-3.1054
-3.07054
-3.0186
-2.94999
-2.86534
-2.76548
-2.65151
-2.52484
-2.38718
-2.24042
-2.0864
-1.92668
-1.7662
-1.64736
-3.18029
-3.16147
-3.12395
-3.06795
-2.99385
-2.90218
-2.79372
-2.66953
-2.53113
-2.38056
-2.2206
-2.05469
-1.88592
-1.7091
-1.45388
-3.25075
-3.23053
-3.19018
-3.12988
-3.0499
-2.95068
-2.83287
-2.69744
-2.54587
-2.38048
-2.20491
-2.02498
-1.85074
-1.70646
-1.70269
-3.33526
-3.31358
-3.27028
-3.20546
-3.11931
-3.01209
-2.88426
-2.73655
-2.57021
-2.38747
-2.19225
-1.99132
-1.79475
-1.60622
-1.32934
-3.43482
-3.41165
-3.36532
-3.29587
-3.20335
-3.08783
-2.94947
-2.78859
-2.60594
-2.40312
-2.18357
-1.95463
-1.7332
-1.56733
-1.64455
-3.55048
-3.5258
-3.47642
-3.40231
-3.30336
-3.17943
-3.03031
-2.85576
-2.65567
-2.43038
-2.1814
-1.91273
-1.63305
-1.35961
-1.13252
-3.68328
-3.6571
-3.60471
-3.52598
-3.42071
-3.28852
-3.1288
-2.94067
-2.72291
-2.4741
-2.19292
-1.87848
-1.52857
-1.11971
-0.462762
-3.83425
-3.80662
-3.75128
-3.6681
-3.55676
-3.41672
-3.24703
-3.04616
-2.81172
-2.54031
-2.22752
-1.86887
-1.46502
-1.05209
-0.914761
-4.00442
-3.97536
-3.9172
-3.82977
-3.71275
-3.56552
-3.38693
-3.17495
-2.92619
-2.63526
-2.29396
-1.89066
-1.40777
-0.793086
0.306608
-4.19476
-4.16433
-4.10344
-4.01198
-3.88972
-3.7361
-3.55001
-3.32927
-3.06997
-2.76518
-2.40345
-1.96773
-1.44205
-0.870887
-0.778411
-4.40624
-4.37445
-4.3109
-4.21559
-4.08847
-3.92924
-3.73714
-3.51039
-3.24532
-2.93465
-2.56433
-2.10728
-1.50791
-0.616263
1.27088
-4.63979
-4.60664
-4.54041
-4.4413
-4.30951
-4.14521
-3.94833
-3.71812
-3.45235
-3.14555
-2.78543
-2.34565
-1.77676
-1.05295
-0.853297
-4.89637
-4.86178
-4.79277
-4.6897
-4.55313
-4.38381
-4.18266
-3.95055
-3.68787
-3.39348
-3.06185
-2.67368
-2.15319
-1.12564
2.64518
-5.17698
-5.14083
-5.06878
-4.96136
-4.81948
-4.64452
-4.4385
-4.20421
-3.94542
-3.66726
-3.37753
-3.09361
-2.88174
-3.10337
-6.05772
-5.48269
-5.44481
-5.36935
-5.25696
-5.10881
-4.9268
-4.71396
-4.47488
-4.21643
-3.94907
-3.68918
-3.4635
-3.30927
-3.18337
-1.99222
-5.8147
-5.7749
-5.69558
-5.5774
-5.42164
-5.2305
-5.00766
-4.75899
-4.49363
-4.22569
-3.97708
-3.78379
-3.7171
-4.00312
-5.89786
-6.17435
-6.13243
-6.04878
-5.92394
-5.75904
-5.55622
-5.3193
-5.05468
-4.77263
-4.48889
-4.22657
-4.01615
-3.88002
-3.70569
-2.32096
-6.56312
-6.51893
-6.43059
-6.29831
-6.12277
-5.90561
-5.65016
-5.36249
-5.0528
-4.73723
-4.44
-4.19692
-4.06945
-4.24883
-5.88284
-6.98258
-6.9361
-6.84291
-6.70271
-6.5154
-6.2816
-6.00341
-5.68558
-5.33705
-4.97282
-4.61585
-4.29741
-4.04579
-3.78181
-2.47903
-7.43432
-7.3857
-7.28788
-7.13983
-6.94033
-6.68841
-6.38419
-6.03001
-5.63221
-5.20336
-4.76493
-4.35151
-4.0307
-4.03617
-5.62366
-7.91983
-7.86946
-7.76773
-7.61269
-7.40165
-7.13155
-6.79966
-6.40472
-5.94892
-5.44057
-4.89663
-4.3413
-3.78904
-3.19192
-2.41754
-8.44031
-8.3889
-8.2846
-8.12443
-7.90398
-7.61761
-7.2589
-6.82168
-6.30214
-5.7025
-5.03625
-4.32895
-3.57852
-2.47076
1.32634
-8.99649
-8.94508
-8.84028
-8.67803
-8.45209
-8.15391
-7.77267
-7.29583
-6.71097
-6.01069
-5.20437
-4.34656
-3.61616
-3.61718
-6.95678
-9.58837
-9.53834
-9.43584
-9.27585
-9.05037
-8.7479
-8.35284
-7.84498
-7.19995
-6.39253
-5.40825
-4.2757
-3.14587
-2.44514
-2.89517
-10.215
-10.168
-10.0713
-9.91916
-9.70211
-9.40618
-9.01133
-8.4894
-7.80169
-6.89719
-5.7151
-4.20294
-2.37758
-0.473977
0.853923
-10.8742
-10.8322
-10.7454
-10.6075
-10.4086
-10.1332
-9.75808
-9.24893
-8.55399
-7.59461
-6.25116
-4.34769
-1.66362
1.89699
5.52518
-11.5627
-11.5276
-11.4548
-11.3383
-11.1683
-10.9293
-10.5979
-10.1375
-9.48991
-8.55876
-7.17612
-5.03453
-1.55837
4.22102
12.716
-12.2754
-12.2492
-12.1946
-12.1063
-11.9758
-11.7897
-11.5273
-11.156
-10.6228
-9.83646
-8.62812
-6.64816
-3.0526
4.65921
25.8062
-146.467
-88.0188
-61.5414
-48.8909
-42.1162
-38.0711
-35.4439
-33.6335
-32.3363
-31.3862
-30.6859
-30.1762
-29.8198
-29.5934
-29.4833
-182.17
-82.3634
-54.6717
-43.9962
-38.6418
-35.4621
-33.3706
-31.9058
-30.8405
-30.0503
-29.4619
-29.0304
-28.7269
-28.5333
-28.439
46.8981
-26.6285
-35.9853
-35.4062
-33.6572
-32.0975
-30.862
-29.9008
-29.1537
-28.5741
-28.1291
-27.7956
-27.5575
-27.4043
-27.3292
-7.05463
-15.4559
-24.1989
-27.6286
-28.5411
-28.5078
-28.1629
-27.7472
-27.3504
-27.0045
-26.7189
-26.4945
-26.3294
-26.221
-26.1673
25.8928
-4.04592
-16.1022
-21.5992
-24.0818
-25.1344
-25.5131
-25.5805
-25.5119
-25.393
-25.2661
-25.1523
-25.0618
-24.9997
-24.9682
-1.435
-5.0543
-12.5606
-17.663
-20.6155
-22.229
-23.0793
-23.5082
-23.7083
-23.787
-23.8043
-23.7938
-23.7745
-23.7571
-23.7471
11.4439
-3.36337
-10.6884
-15.2197
-18.0793
-19.8536
-20.9383
-21.5947
-21.989
-22.2237
-22.3618
-22.4414
-22.4859
-22.5093
-22.5192
-3.08759
-6.86845
-10.7563
-13.9374
-16.2966
-17.9572
-19.0945
-19.8634
-20.3805
-20.7276
-20.9598
-21.1134
-21.2121
-21.2708
-21.2981
-14.9935
-10.2992
-11.3151
-13.2259
-14.999
-16.4241
-17.5066