/*--------------------------------*- C++ -*----------------------------------*\
| =========                 |                                                 |
| \\      /  F ield         | OpenFOAM: The Open Source CFD Toolbox           |
|  \\    /   O peration     | Version:  5.x                                   |
|   \\  /    A nd           | Web:      www.OpenFOAM.org                      |
|    \\/     M anipulation  |                                                 |
\*---------------------------------------------------------------------------*/
FoamFile
{
    version     2.0;
    format      ascii;
    class       volScalarField;
    location    "1.5";
    object      gradTx;
}
// * * * * * * * * * * * * * * * * * * * * * * * * * * * * * * * * * * * * * //

dimensions      [0 -1 0 1 0 0 0];

internalField   nonuniform List<scalar> 
3200
(
46.2487
3.51031
1.54765
1.44439
0.755061
0.713695
0.425688
0.407355
0.263792
0.253497
0.151264
0.147387
0.158017
0.158041
0.150428
0.149659
0.138568
0.137636
0.126278
0.125354
0.114503
0.113626
0.103427
0.102615
0.0932726
0.0926087
0.0856304
0.0857193
0.0909667
0.157092
0.0782677
0.0509354
0.049074
0.036398
0.035494
0.0269495
0.0263228
0.0199149
0.019443
0.0145537
0.0141949
0.0104908
0.0102197
0.00742831
0.00722329
0.00510514
0.00494685
0.00327613
0.003144
0.00163295
0.00154828
0.00104087
0.000978345
1.51259e-05
-8.13456e-05
-0.00142753
-0.00156491
-0.00349896
-0.00370487
-0.00667855
-0.00700956
-0.0119077
-0.0124834
-0.0212179
-0.0223391
-0.0398951
-0.0425447
-0.0854827
-0.0943966
-0.240194
-0.61988
-0.437559
-0.682751
-0.71414
-1.27035
-1.24469
-0.0558898
-0.00754201
-0.00152822
-52.8521
48.8201
2.93582
1.48194
1.26997
0.718256
0.629942
0.398591
0.359389
0.244365
0.222488
0.142148
0.13387
0.140871
0.140826
0.134898
0.133277
0.124529
0.122557
0.113568
0.111609
0.103014
0.101155
0.0930776
0.0913573
0.0839793
0.0825874
0.0772416
0.0775847
0.0844685
0.13095
0.0726151
0.0477113
0.0435786
0.0333243
0.0313887
0.024585
0.0232529
0.0181665
0.0171647
0.0132862
0.0125249
0.00958668
0.00901122
0.00679675
0.00636166
0.00468084
0.00434483
0.00301836
0.00273865
0.00155019
0.00137015
0.00095223
0.000818485
5.52479e-05
-0.000149512
-0.00121875
-0.00151066
-0.00304885
-0.00348676
-0.00585442
-0.00655906
-0.0104655
-0.0116933
-0.018683
-0.0210849
-0.0352467
-0.0409877
-0.0763716
-0.0962769
-0.22845
-0.519878
-0.416108
-0.603102
-0.667725
-1.08686
-1.03313
-0.122051
-0.0209326
-0.00439445
-54.658
51.3755
2.4353
1.36657
1.10915
0.662922
0.551918
0.363813
0.314462
0.221217
0.193822
0.130152
0.119744
0.124011
0.12385
0.119198
0.117182
0.110221
0.10776
0.100578
0.0981306
0.0912558
0.0889332
0.0824731
0.0803255
0.0744459
0.0727236
0.0686247
0.069188
0.076387
0.109001
0.0656268
0.0436583
0.03833
0.0299199
0.0274802
0.0220038
0.0203354
0.0162567
0.0150034
0.0118958
0.0109437
0.00858951
0.0078698
0.00609523
0.00555103
0.00420368
0.00378333
0.0027194
0.0023703
0.00142751
0.00120194
0.000852641
0.000684216
7.33973e-05
-0.000182742
-0.00104075
-0.00140627
-0.00264254
-0.00319125
-0.00509666
-0.00598035
-0.0091303
-0.0106726
-0.0163316
-0.0193603
-0.0309351
-0.0382449
-0.0678795
-0.0936666
-0.210335
-0.435682
-0.383026
-0.528347
-0.607128
-0.922287
-0.855861
-0.155814
-0.0309401
-0.00674329
-56.4638
53.9114
1.99704
1.21875
0.955899
0.594187
0.476985
0.32349
0.271294
0.195439
0.166611
0.116028
0.105034
0.107331
0.107057
0.103395
0.101288
0.0957345
0.0931546
0.0874003
0.0848304
0.0793158
0.0768767
0.0716958
0.0694424
0.0647455
0.0629542
0.059821
0.0605258
0.0672893
0.0900943
0.0577836
0.0389412
0.0332064
0.0262785
0.0236951
0.0192723
0.0175161
0.0142356
0.0129182
0.0104208
0.0094201
0.00752829
0.00677187
0.00534558
0.00477356
0.00369028
0.00324836
0.00239246
0.00202628
0.00127654
0.00103905
0.000746185
0.000568007
7.76872e-05
-0.00019158
-0.000882196
-0.0012668
-0.00226353
-0.00284128
-0.00437964
-0.00531087
-0.00785934
-0.00948715
-0.0140854
-0.0172938
-0.0267942
-0.0346092
-0.0595414
-0.0874209
-0.187873
-0.362607
-0.342024
-0.456253
-0.537075
-0.772975
-0.703937
-0.16657
-0.0369206
-0.00834523
-58.2694
56.4269
1.61014
1.05033
0.806609
0.515677
0.403508
0.27912
0.229078
0.167783
0.140273
0.100324
0.0897952
0.0907562
0.0904012
0.0875319
0.085534
0.0811311
0.0786774
0.0740958
0.0716488
0.0672529
0.06493
0.060801
0.0586567
0.0549284
0.053238
0.0508634
0.051621
0.0575504
0.0733931
0.049403
0.0337014
0.028132
0.0224651
0.0199852
0.0164358
0.0147595
0.0121377
0.0108817
0.00888739
0.00793354
0.00642286
0.00570186
0.00456272
0.00401745
0.00315197
0.00273065
0.00204649
0.00169809
0.00110543
0.000878697
0.000635468
0.000464604
7.34258e-05
-0.000183285
-0.000735641
-0.00110262
-0.0019011
-0.00245273
-0.00368678
-0.00457658
-0.00662514
-0.00818285
-0.0118948
-0.0149756
-0.0227206
-0.0302887
-0.0510853
-0.0782722
-0.16244
-0.297343
-0.29563
-0.385495
-0.460819
-0.635859
-0.570745
-0.161017
-0.0388583
-0.0090773
-60.0748
58.9234
1.26467
0.869267
0.659215
0.430023
0.330526
0.23178
0.187315
0.138778
0.114435
0.0834442
0.0740986
0.0742363
0.0738484
0.0716363
0.069878
0.0664514
0.0642866
0.0607068
0.0585457
0.0551074
0.0530556
0.0498266
0.0479339
0.0450294
0.0435487
0.0417803
0.0425092
0.0474154
0.0582863
0.0406918
0.0280575
0.0230629
0.0185255
0.0163196
0.0135258
0.0120422
0.00998646
0.00887601
0.00731356
0.00647043
0.00528687
0.00464955
0.00375695
0.00327492
0.00259654
0.00222404
0.00168756
0.0013801
0.000920003
0.000719289
0.000522136
0.000370288
6.40365e-05
-0.000162926
-0.000596296
-0.000920995
-0.00154839
-0.00203674
-0.00300758
-0.00379586
-0.00541051
-0.00679232
-0.00972939
-0.0124708
-0.0186541
-0.0254392
-0.0423736
-0.0668443
-0.134977
-0.237544
-0.245572
-0.315319
-0.380574
-0.508348
-0.451338
-0.143961
-0.0371013
-0.0089147
-61.8799
61.4031
0.951664
0.680801
0.512594
0.339186
0.257517
0.182271
0.145717
0.108809
0.0888661
0.0657009
0.0580244
0.0577392
0.0573704
0.0557242
0.0542904
0.0517224
0.0499535
0.0472617
0.0454944
0.0429066
0.0412283
0.0387985
0.0372514
0.035073
0.0338706
0.0325971
0.0332303
0.0370422
0.0443189
0.0317831
0.0221091
0.0179765
0.0144939
0.0126786
0.0105646
0.00934903
0.00779859
0.00688956
0.00571198
0.00502189
0.00412989
0.00360826
0.00293545
0.00254089
0.00202942
0.00172448
0.00131986
0.00106856
0.00072446
0.000559976
0.000407224
0.000282376
5.16838e-05
-0.000134114
-0.000461127
-0.000727103
-0.00120112
-0.00160134
-0.0023356
-0.00298201
-0.00420514
-0.00533955
-0.00757179
-0.0098283
-0.0145635
-0.0201836
-0.0333604
-0.0536698
-0.106136
-0.181526
-0.193045
-0.245321
-0.297827
-0.388229
-0.341944
-0.118885
-0.0321976
-0.00791533
-63.6847
63.8693
0.662985
0.488234
0.366186
0.244683
0.184255
0.131218
0.104137
0.0781621
0.0634275
0.0473394
0.0416558
0.0412468
0.0409449
0.039805
0.0387493
0.0369625
0.0356581
0.0337803
0.0324762
0.0306696
0.029431
0.027735
0.0265938
0.0250772
0.024195
0.0233374
0.0238243
0.0265306
0.0311447
0.0227607
0.0159398
0.0128651
0.0103966
0.00905061
0.00756837
0.00667016
0.00558596
0.00491471
0.00409169
0.00358219
0.00295878
0.00257364
0.00210337
0.00181204
0.00145447
0.00122928
0.000946351
0.000761005
0.00052194
0.00040038
0.000291379
0.000198874
3.76988e-05
-9.95003e-05
-0.000328266
-0.000524766
-0.00085669
-0.00115248
-0.00166707
-0.00214503
-0.00300329
-0.00384283
-0.00541319
-0.00708665
-0.0104376
-0.0146257
-0.0240619
-0.0392091
-0.0763785
-0.128063
-0.138888
-0.175314
-0.213564
-0.273577
-0.239621
-0.0883532
-0.0247981
-0.00620231
-65.4893
66.3256
0.391181
0.293564
0.219759
0.147739
0.110699
0.079128
0.0625131
0.0470676
0.0380442
0.0285628
0.0250773
0.0247512
0.024554
0.0238833
0.0232384
0.022184
0.0213864
0.0202763
0.0194784
0.01841
0.0176521
0.0166491
0.0159511
0.0150559
0.0145183
0.0140238
0.0143294
0.0159429
0.0184909
0.0136762
0.00962121
0.00772995
0.00625493
0.00542872
0.0045495
0.0039994
0.00335745
0.00294656
0.00245944
0.00214759
0.00177861
0.00154288
0.00126452
0.0010862
0.000874519
0.000736676
0.000569159
0.000455796
0.00031487
0.000240417
0.000175004
0.000118247
2.2872e-05
-6.11133e-05
-0.000196599
-0.000316926
-0.000513637
-0.000694811
-0.000999944
-0.00129279
-0.00180215
-0.00231685
-0.00325046
-0.00427789
-0.0062781
-0.00885797
-0.0145349
-0.0238674
-0.0460401
-0.0762344
-0.0837057
-0.105234
-0.128431
-0.162683
-0.141991
-0.054313
-0.0156003
-0.00394708
-67.2936
68.7759
0.129302
0.0979433
0.0732637
0.0493981
0.0369261
0.026441
0.0208438
0.015717
0.01268
0.00954698
0.00837307
0.00825105
0.00818254
0.00796108
0.0077443
0.0073957
0.00712742
0.00676005
0.00649165
0.00613796
0.00588301
0.00555102
0.00531624
0.0050202
0.00483969
0.00467815
0.00478222
0.005318
0.0061318
0.00456171
0.00321646
0.00257857
0.00208776
0.00180935
0.00151787
0.00133272
0.0011201
0.000981838
0.000820527
0.000715595
0.000593409
0.00051409
0.000421909
0.000361907
0.000291802
0.000245419
0.000189936
0.000151806
0.000105233
8.0173e-05
5.83616e-05
3.92408e-05
7.66027e-06
-2.06002e-05
-6.54812e-05
-0.000105977
-0.000171161
-0.000232143
-0.000333284
-0.000431871
-0.000600776
-0.000774106
-0.00108397
-0.00143022
-0.00209544
-0.00296632
-0.0048617
-0.00801204
-0.0153809
-0.0253143
-0.0279616
-0.0350865
-0.0428552
-0.0539866
-0.04704
-0.0183141
-0.00532044
-0.00135392
-69.0979
68.8731
0.141267
0.119898
0.100012
0.0788517
0.0669264
0.0554962
0.0484444
0.0404396
0.0347185
0.0275413
0.024855
0.0247248
0.0244736
0.0235305
0.0225974
0.0210896
0.0199312
0.018351
0.0172152
0.0157479
0.0147215
0.0134295
0.0125479
0.0114755
0.0108144
0.0101657
0.0102003
0.0111373
0.0127507
0.009487
0.00674798
0.00547348
0.00452771
0.00400116
0.00345965
0.00311511
0.00271664
0.00245271
0.00213706
0.00192557
0.00167019
0.00149838
0.00129005
0.00114897
0.000976242
0.0008565
0.000705342
0.000595825
0.000457147
0.000397611
0.000374819
0.000356077
0.000322107
0.000294725
0.000256065
0.000228358
0.000192762
0.000167625
0.000135193
0.00010994
7.28002e-05
3.47295e-05
-3.6556e-05
-0.000135645
-0.000356693
-0.000726736
-0.00163826
-0.00338853
-0.00771118
-0.0140174
-0.0173387
-0.024661
-0.0324957
-0.0440042
-0.0391049
-0.015275
-0.00444183
-0.00113039
-69.7582
66.6171
0.426967
0.359636
0.300089
0.236187
0.200761
0.166315
0.145372
0.121228
0.104215
0.082445
0.0744635
0.07418
0.0734492
0.0705916
0.0678157
0.0632555
0.0598111
0.0550359
0.0516593
0.0472266
0.0441755
0.0402725
0.0376519
0.0344104
0.0324432
0.0304701
0.0305654
0.0333854
0.038448
0.0284406
0.0201858
0.0164077
0.0135667
0.0120044
0.0103714
0.0093478
0.00814484
0.00736048
0.00640729
0.00577873
0.00500746
0.00449685
0.00386769
0.00344839
0.0029268
0.00257093
0.00211451
0.00178878
0.00136838
0.00119146
0.0011244
0.00106894
0.000966152
0.000884716
0.000767839
0.000685466
0.000577937
0.000503232
0.000405348
0.000330347
0.000218483
0.000105559
-0.000108519
-0.000402023
-0.00106408
-0.00215851
-0.00488117
-0.0100626
-0.0230541
-0.0421712
-0.0518558
-0.073962
-0.0973396
-0.132668
-0.118071
-0.0453049
-0.0130245
-0.00329537
-69.2746
64.3541
0.722249
0.599065
0.500346
0.392388
0.33456
0.276596
0.242432
0.201735
0.173903
0.136799
0.123766
0.123655
0.122512
0.117651
0.113107
0.105379
0.099746
0.0916666
0.0861474
0.0786516
0.0736651
0.0670658
0.0627821
0.0572957
0.0540736
0.0506932
0.0508229
0.0555456
0.0647503
0.0473257
0.033446
0.0273056
0.0225557
0.0200116
0.0172598
0.0155886
0.0135572
0.0122759
0.0106654
0.00963841
0.00833506
0.00750077
0.0064376
0.00575253
0.00487129
0.00428991
0.00351892
0.00298592
0.00227021
0.00198123
0.00187381
0.00178399
0.00160963
0.0014764
0.00127848
0.00114382
0.000962008
0.00083996
0.000674757
0.000552385
0.000364345
0.000180559
-0.000177194
-0.000653552
-0.00175408
-0.00352504
-0.00802558
-0.0164241
-0.0381514
-0.0707016
-0.0858752
-0.123211
-0.161704
-0.223328
-0.199363
-0.0737147
-0.020705
-0.00517812
-68.791
62.0797
1.03377
0.837522
0.700981
0.54659
0.46837
0.385931
0.339757
0.281731
0.243967
0.190194
0.172555
0.173174
0.171726
0.164702
0.15853
0.147421
0.139782
0.128198
0.120717
0.109979
0.103222
0.0937688
0.0879627
0.0800927
0.0757126
0.0707782
0.0708991
0.0775294
0.0921214
0.0660719
0.0463989
0.03815
0.0314583
0.0280288
0.0241066
0.0218455
0.0189411
0.0172059
0.0149015
0.0135105
0.0116452
0.010515
0.00899349
0.00806557
0.00680473
0.00601736
0.00491456
0.00419106
0.00315551
0.00276424
0.00262302
0.00250293
0.00225194
0.00207112
0.00178702
0.00160444
0.00134404
0.00117874
0.000942738
0.00077731
0.000510263
0.000262728
-0.00024094
-0.000879937
-0.00241708
-0.00478219
-0.0110138
-0.0222519
-0.0528151
-0.0999258
-0.119007
-0.172412
-0.225141
-0.317407
-0.284719
-0.0992179
-0.026886
-0.00660823
-68.3072
59.7897
1.36856
1.0736
0.902341
0.697754
0.602359
0.493824
0.437564
0.360923
0.314676
0.242148
0.220617
0.222781
0.221169
0.211723
0.204154
0.189329
0.17998
0.164569
0.155421
0.141151
0.13289
0.120329
0.113229
0.102753
0.0973768
0.0906642
0.0907184
0.0991988
0.121123
0.0845669
0.0588982
0.0489349
0.040233
0.0360682
0.0308893
0.0281303
0.0242803
0.0221608
0.019103
0.0174034
0.0149276
0.0135467
0.0115272
0.0103934
0.00872056
0.00775866
0.00629611
0.00540965
0.00401581
0.00353795
0.0033721
0.0032278
0.00289211
0.00267062
0.00229207
0.00206873
0.00172275
0.0015208
0.00120829
0.00100667
0.000655717
0.000355435
-0.000299014
-0.00107015
-0.00304672
-0.00588442
-0.0138014
-0.0273063
-0.0668159
-0.130269
-0.150763
-0.221637
-0.286993
-0.416481
-0.376184
-0.120193
-0.030985
-0.00744268
-67.8233
57.4806
1.73415
1.30474
1.10505
0.844564
0.736884
0.599635
0.536195
0.438907
0.386445
0.292067
0.267738
0.272545
0.27093
0.258675
0.250074
0.231023
0.220425
0.200694
0.190336
0.172087
0.162735
0.146676
0.138635
0.125214
0.119099
0.110283
0.110205
0.120336
0.152472
0.102631
0.0707733
0.059673
0.0488294
0.0441513
0.0375781
0.0344616
0.0295531
0.0271558
0.0232527
0.0213297
0.0181685
0.0166059
0.0140274
0.0127446
0.0106096
0.00952157
0.00765597
0.00664976
0.00484042
0.00430008
0.00412122
0.00396122
0.00352856
0.00327723
0.00279167
0.00253864
0.00209633
0.00186786
0.00146991
0.00124246
0.000799548
0.000462683
-0.000352092
-0.00121183
-0.0036416
-0.00678313
-0.016365
-0.0313197
-0.0798575
-0.162329
-0.180502
-0.271079
-0.346275
-0.52234
-0.476272
-0.134495
-0.0324576
-0.00757872
-67.3393
55.1496
2.13866
1.5267
1.31021
0.985275
0.872605
0.702506
0.636192
0.515108
0.459898
0.339192
0.313699
0.322572
0.321124
0.305487
0.296419
0.272386
0.261243
0.236451
0.225571
0.202672
0.192853
0.172707
0.164261
0.147387
0.140933
0.129558
0.129288
0.140598
0.187107
0.119983
0.0818229
0.0704052
0.0571832
0.0523139
0.0441323
0.0408681
0.0347287
0.0322143
0.0273262
0.0253085
0.0213481
0.0197085
0.0164782
0.0151323
0.0124589
0.0113175
0.00898309
0.00792349
0.00561542
0.00504884
0.00487068
0.00470663
0.00415879
0.0038942
0.00328286
0.00301696
0.0024621
0.00222241
0.00172532
0.00148745
0.000939622
0.000589502
-0.000402976
-0.00129032
-0.00420764
-0.00742382
-0.0187132
-0.0339891
-0.0915402
-0.196957
-0.207341
-0.321132
-0.401518
-0.637077
-0.588181
-0.139206
-0.0308445
-0.00696799
-66.8551
52.7952
2.5907
1.73286
1.51973
1.11751
1.01064
0.801239
0.738392
0.588685
0.535982
0.382516
0.358294
0.373021
0.371894
0.352045
0.343371
0.313241
0.302614
0.271659
0.261295
0.232742
0.223392
0.198276
0.190231
0.16915
0.16297
0.148394
0.147915
0.15946
0.226299
0.136182
0.0918085
0.0812146
0.0652075
0.0606135
0.0504939
0.0473936
0.039763
0.0373714
0.0312883
0.0293684
0.024438
0.0228777
0.0188564
0.0175756
0.0142492
0.0131634
0.0102611
0.00924891
0.00632206
0.0057833
0.00562085
0.00546867
0.0047789
0.0045262
0.00376127
0.00350785
0.00281614
0.00258808
0.00197107
0.0017455
0.00107235
0.000742546
-0.00045761
-0.00128718
-0.0047613
-0.00774111
-0.0209013
-0.0349665
-0.101307
-0.235383
-0.230041
-0.372516
-0.450547
-0.763184
-0.716085
-0.13029
-0.0258528
-0.00563109
-66.3709
50.4184
3.09926
1.91326
1.73683
1.23796
1.15279
0.894125
0.844082
0.658394
0.616109
0.420679
0.401339
0.424112
0.423422
0.398165
0.391191
0.353325
0.344807
0.306051
0.297754
0.26205
0.254568
0.223169
0.216728
0.190322
0.18535
0.166673
0.166066
0.176119
0.271781
0.150559
0.100449
0.0922461
0.0727803
0.0691391
0.0565793
0.0541049
0.0445921
0.0426804
0.0350878
0.0335525
0.0273966
0.0261488
0.021128
0.0201038
0.0159525
0.0150845
0.0114656
0.0106529
0.00693461
0.00650409
0.00637206
0.00625364
0.00538286
0.00518001
0.0042204
0.00401739
0.00315259
0.00297024
0.00220194
0.00202219
0.00119196
0.000931001
-0.000526561
-0.00117776
-0.00533425
-0.00765069
-0.0230524
-0.0338521
-0.108361
-0.279381
-0.246825
-0.426472
-0.490187
-0.903669
-0.865528
-0.102119
-0.0174936
-0.00367049
-65.8866
48.0233
3.67327
2.05329
1.96685
1.34187
1.30191
0.978683
0.955213
0.72238
0.702373
0.451808
0.442709
0.476153
0.475943
0.443564
0.440256
0.392245
0.388219
0.339233
0.335318
0.290238
0.286708
0.247071
0.244031
0.210645
0.208284
0.184236
0.183799
0.189361
0.325953
0.1621
0.10742
0.103734
0.0797256
0.0780269
0.0622664
0.0611027
0.0491218
0.0482212
0.0386492
0.0379257
0.0301626
0.0295745
0.0232431
0.0227604
0.0175274
0.0171184
0.0125602
0.0121753
0.00741715
0.00721442
0.0071243
0.00707028
0.00596156
0.00586552
0.00465051
0.00455464
0.00346279
0.00337685
0.0024101
0.00232573
0.00128947
0.00116797
-0.000627223
-0.000927582
-0.0059803
-0.00703633
-0.0253869
-0.0301883
-0.111554
-0.331517
-0.255116
-0.48506
-0.515828
-1.06221
-1.04397
-0.0467957
-0.00630363
-0.00127719
-65.4024
48.0233
3.67323
2.05327
1.96684
1.34186
1.3019
0.978679
0.95521
0.722378
0.702371
0.451806
0.442707
0.476148
0.475937
0.443557
0.440249
0.392237
0.388211
0.339227
0.335311
0.290234
0.286704
0.24707
0.244031
0.210647
0.208287
0.184242
0.183805
0.189371
0.325974
0.162112
0.10743
0.103745
0.0797348
0.078036
0.0622739
0.0611101
0.0491278
0.0482271
0.0386541
0.0379304
0.0301666
0.0295783
0.0232463
0.0227636
0.01753
0.0171209
0.0125622
0.0121773
0.00741851
0.00721576
0.00712555
0.00707152
0.00596261
0.00586656
0.00465137
0.0045555
0.00346352
0.00337758
0.00241077
0.00232641
0.00129023
0.00116876
-0.000626045
-0.000926343
-0.00597803
-0.00703394
-0.0253825
-0.0301838
-0.111548
-0.331513
-0.255119
-0.485092
-0.515865
-1.06232
-1.04408
-0.0468008
-0.00630521
-0.00127864
-65.4021
50.4184
3.09924
1.91324
1.73681
1.23795
1.15279
0.894122
0.844079
0.658392
0.616106
0.420677
0.401337
0.424108
0.423417
0.398159
0.391184
0.353318
0.3448
0.306045
0.297748
0.262046
0.254564
0.223168
0.216728
0.190324
0.185352
0.166678
0.166072
0.176128
0.271799
0.15057
0.100459
0.0922557
0.0727886
0.0691472
0.0565861
0.0541114
0.0445975
0.0426856
0.0350922
0.0335567
0.0274001
0.0261522
0.0211309
0.0201066
0.0159549
0.0150867
0.0114675
0.0106547
0.00693584
0.0065053
0.00637318
0.00625473
0.0053838
0.00518092
0.00422117
0.00401815
0.00315324
0.00297088
0.00220253
0.0020228
0.00119263
0.000931727
-0.000525523
-0.00117658
-0.00533226
-0.00764844
-0.0230486
-0.033848
-0.108356
-0.279378
-0.246829
-0.4265
-0.490223
-0.903766
-0.865623
-0.10213
-0.0174967
-0.00367686
-65.8863
52.7952
2.59068
1.73284
1.51971
1.11751
1.01064
0.801236
0.73839
0.588683
0.535981
0.382514
0.358292
0.373017
0.371889
0.35204
0.343366
0.313235
0.302608
0.271654
0.26129
0.232738
0.223389
0.198275
0.19023
0.169152
0.162973
0.148399
0.14792
0.159469
0.226314
0.136192
0.0918176
0.0812232
0.0652149
0.0606207
0.0505
0.0473994
0.039768
0.0373761
0.0312923
0.0293722
0.0244412
0.0228808
0.018859
0.0175781
0.0142513
0.0131654
0.0102628
0.00925046
0.0063232
0.00578442
0.00562188
0.00546964
0.00477976
0.00452702
0.00376199
0.00350853
0.00281673
0.00258867
0.00197161
0.00174605
0.00107296
0.000743218
-0.000456689
-0.00128609
-0.00475956
-0.00773904
-0.020898
-0.0349629
-0.101302
-0.235381
-0.230046
-0.37254
-0.450582
-0.763264
-0.716164
-0.130305
-0.0258556
-0.00564028
-66.3706
55.1495
2.13865
1.52668
1.3102
0.98527
0.872602
0.702503
0.63619
0.515107
0.459897
0.339191
0.313698
0.322569
0.32112
0.305483
0.296415
0.272381
0.261238
0.236447
0.225567
0.202669
0.192851
0.172706
0.164261
0.147389
0.140936
0.129562
0.129293
0.140607
0.18712
0.119991
0.0818311
0.0704127
0.0571898
0.0523202
0.0441377
0.0408731
0.034733
0.0322184
0.0273297
0.0253118
0.0213509
0.0197112
0.0164806
0.0151345
0.0124608
0.0113193
0.00898459
0.00792486
0.00561644
0.00504985
0.0048716
0.00470749
0.00415957
0.00389493
0.0032835
0.00301758
0.00246264
0.00222294
0.00172581
0.00148795
0.000940163
0.000590109
-0.000402169
-0.00128934
-0.00420614
-0.00742196
-0.0187104
-0.033986
-0.0915366
-0.196955
-0.207346
-0.321152
-0.401549
-0.637143
-0.588245
-0.139221
-0.0308458
-0.00697734
-66.8549
57.4806
1.73414
1.30471
1.10504
0.844559
0.736881
0.599633
0.536194
0.438906
0.386444
0.292066
0.267737
0.272542
0.270927
0.258671
0.25007
0.231019
0.220421
0.200691
0.190332
0.172084
0.162733
0.146675
0.138635
0.125215
0.119101
0.110287
0.110209
0.120343
0.152482
0.102639
0.0707804
0.0596795
0.0488351
0.0441566
0.0375828
0.0344659
0.0295568
0.0271593
0.0232558
0.0213326
0.0181709
0.0166083
0.0140295
0.0127465
0.0106113
0.00952311
0.00765728
0.00665094
0.00484132
0.00430096
0.00412201
0.00396195
0.00352923
0.00327786
0.00279223
0.00253917
0.0020968
0.00186832
0.00147034
0.0012429
0.000800017
0.000463213
-0.000351403
-0.00121097
-0.00364033
-0.00678153
-0.0163627
-0.0313172
-0.0798546
-0.162328
-0.180507
-0.271096
-0.346303
-0.522394
-0.476323
-0.134509
-0.0324572
-0.00758661
-67.3391
59.7897
1.36855
1.07357
0.902334
0.697751
0.602356
0.493822
0.437563
0.360922
0.314676
0.242147
0.220616
0.222779
0.221166
0.21172
0.204151
0.189325
0.179976
0.164566
0.155419
0.141149
0.132889
0.120329
0.113229
0.102754
0.0973786
0.0906669
0.0907218
0.0992047
0.121131
0.0845728
0.0589041
0.0489403
0.0402377
0.0360725
0.0308931
0.0281338
0.0242834
0.0221637
0.0191055
0.0174057
0.0149296
0.0135486
0.0115289
0.010395
0.00872194
0.00775993
0.00629721
0.00541063
0.00401656
0.00353869
0.00337276
0.0032284
0.00289266
0.00267114
0.00229254
0.00206917
0.00172315
0.00152118
0.00120865
0.00100703
0.000656107
0.000355878
-0.000298446
-0.00106944
-0.00304569
-0.0058831
-0.0137996
-0.0273043
-0.0668136
-0.130269
-0.150767
-0.221651
-0.287016
-0.416523
-0.376225
-0.120206
-0.030983
-0.0074484
-67.8232
62.0797
1.03376
0.837501
0.700975
0.546587
0.468369
0.38593
0.339757
0.281731
0.243966
0.190193
0.172554
0.173173
0.171724
0.1647
0.158527
0.147418
0.139779
0.128195
0.120715
0.109977
0.103221
0.0937684
0.0879629
0.0800936
0.0757139
0.0707803
0.0709017
0.077534
0.0921274
0.0660765
0.0464037
0.0381542
0.031462
0.0280322
0.0241096
0.0218482
0.0189435
0.0172081
0.0149035
0.0135123
0.0116468
0.0105165
0.00899481
0.00806679
0.00680582
0.00601836
0.00491544
0.00419183
0.00315611
0.00276481
0.00262353
0.00250339
0.00225237
0.00207153
0.00178738
0.00160479
0.00134435
0.00117904
0.00094302
0.000777598
0.00051057
0.000263077
-0.000240496
-0.000879376
-0.00241628
-0.00478117
-0.0110124
-0.0222505
-0.0528135
-0.0999256
-0.11901
-0.172423
-0.225159
-0.31744
-0.28475
-0.0992283
-0.0268831
-0.00661175
-68.3071
64.3541
0.72224
0.599048
0.500342
0.392385
0.334559
0.276595
0.242431
0.201734
0.173903
0.136799
0.123765
0.123654
0.12251
0.11765
0.113106
0.105377
0.0997442
0.0916649
0.0861459
0.0786505
0.0736643
0.0670655
0.0627821
0.0572963
0.0540746
0.0506947
0.0508247
0.0555489
0.0647545
0.047329
0.0334494
0.0273087
0.0225583
0.020014
0.0172619
0.0155906
0.0135589
0.0122775
0.0106668
0.00963969
0.00833621
0.00750182
0.00643855
0.0057534
0.00487206
0.00429063
0.00351954
0.00298647
0.00227064
0.00198164
0.00187417
0.00178432
0.00160994
0.00147669
0.00127875
0.00114406
0.000962232
0.000840174
0.00067496
0.000552591
0.000364565
0.000180811
-0.000176877
-0.000653148
-0.00175351
-0.00352431
-0.00802462
-0.016423
-0.0381503
-0.0707016
-0.0858779
-0.123219
-0.161717
-0.22335
-0.199385
-0.0737224
-0.0207018
-0.00517981
-68.7909
66.6171
0.426961
0.359625
0.300087
0.236186
0.20076
0.166314
0.145372
0.121228
0.104214
0.0824447
0.0744632
0.0741793
0.0734483
0.0705906
0.0678146
0.0632543
0.05981
0.0550349
0.0516584
0.0472259
0.044175
0.0402723
0.0376519
0.0344107
0.0324438
0.030471
0.0305664
0.0333874
0.0384505
0.0284425
0.0201879
0.0164095
0.0135683
0.0120059
0.0103727
0.00934897
0.00814587
0.00736142
0.00640813
0.0057795
0.00500815
0.00449748
0.00386826
0.00344891
0.00292726
0.00257136
0.00211489
0.00178911
0.00136864
0.00119171
0.00112461
0.00106913
0.000966336
0.000884887
0.000767996
0.000685612
0.00057807
0.00050336
0.000405469
0.000330471
0.000218615
0.00010571
-0.000108329
-0.00040178
-0.00106375
-0.00215808
-0.00488061
-0.010062
-0.0230534
-0.0421713
-0.0518575
-0.0739669
-0.0973477
-0.132682
-0.118084
-0.0453096
-0.013022
-0.00329584
-69.2746
68.8731
0.141264
0.119894
0.100011
0.0788513
0.0669262
0.0554961
0.0484443
0.0404396
0.0347184
0.0275412
0.0248549
0.0247246
0.0244733
0.0235301
0.022597
0.0210892
0.0199308
0.0183507
0.0172149
0.0157477
0.0147213
0.0134294
0.0125479
0.0114756
0.0108146
0.0101659
0.0102007
0.0111379
0.0127516
0.00948764
0.00674866
0.00547408
0.00452823
0.00400164
0.00346008
0.00311549
0.00271698
0.00245302
0.00213734
0.00192582
0.00167041
0.00149859
0.00129024
0.00114914
0.000976396
0.000856641
0.000705468
0.000595934
0.00045723
0.000397692
0.00037489
0.000356141
0.000322167
0.000294781
0.000256116
0.000228406
0.000192806
0.000167667
0.000135233
0.000109981
7.28439e-05
3.47796e-05
-3.64931e-05
-0.000135565
-0.000356582
-0.000726593
-0.00163807
-0.00338834
-0.00771097
-0.0140174
-0.0173393
-0.0246626
-0.0324984
-0.0440086
-0.0391091
-0.0152766
-0.00444075
-0.00113037
-69.7582
68.7755
0.129164
0.0977103
0.072929
0.0488754
0.036183
0.0252808
0.0192582
0.013581
0.011299
0.0106044
0.0102331
0.00967985
0.00925807
0.00868665
0.00828389
0.00777456
0.00742044
0.0069755
0.00666424
0.00626981
0.00599163
0.00563662
0.00538843
0.00507875
0.00489039
0.00472125
0.00482237
0.00535823
0.00617558
0.00459309
0.00323773
0.00259523
0.00210116
0.001821
0.00152781
0.0013416
0.00112778
0.000988739
0.000826496
0.000720943
0.000598005
0.000518182
0.000425388
0.000364964
0.000294334
0.000247591
0.000191666
0.000153228
0.000106279
8.10415e-05
5.91329e-05
3.99358e-05
8.23077e-06
-2.01265e-05
-6.51418e-05
-0.000105735
-0.000171047
-0.000232122
-0.000333384
-0.000432063
-0.000601096
-0.000774531
-0.00108456
-0.00143095
-0.00209643
-0.00296758
-0.00486352
-0.00801464
-0.0153852
-0.0253207
-0.0279677
-0.0350927
-0.0428616
-0.0539933
-0.0470454
-0.0183162
-0.00532128
-0.00135409
-69.0978
66.3246
0.390766
0.292865
0.218759
0.146172
0.108478
0.0756476
0.0577611
0.0406074
0.0338338
0.0318006
0.0307068
0.0290345
0.0277804
0.0260534
0.0248561
0.0233176
0.0222651
0.0209213
0.0199961
0.0188048
0.017978
0.0169056
0.0161677
0.0152314
0.0146704
0.0141529
0.0144497
0.0160635
0.0186228
0.0137703
0.00968479
0.00777989
0.00629506
0.00546366
0.00457928
0.00402604
0.00338049
0.00296727
0.00247734
0.00216363
0.00179239
0.00155515
0.00127495
0.00109537
0.000882107
0.000743196
0.000574345
0.000460065
0.000318
0.000243019
0.000177316
0.000120333
2.45821e-05
-5.9691e-05
-0.000195583
-0.000316199
-0.000513295
-0.000694744
-0.00100024
-0.00129337
-0.00180311
-0.00231813
-0.00325222
-0.00428009
-0.00628106
-0.00886176
-0.0145403
-0.0238751
-0.0460531
-0.0762536
-0.083724
-0.105252
-0.12845
-0.162703
-0.142008
-0.0543193
-0.0156027
-0.0039475
-67.2935
63.8676
0.662294
0.487069
0.36453
0.242075
0.18058
0.125418
0.0962355
0.0672193
0.0561796
0.0529599
0.0512043
0.0483732
0.0463224
0.0433996
0.0414426
0.0388417
0.0371217
0.0348505
0.0333388
0.0313253
0.0299742
0.0281611
0.0269548
0.0253688
0.0244485
0.0235519
0.0240244
0.026731
0.0313668
0.0229171
0.016045
0.0129481
0.0104632
0.00910884
0.00761792
0.00671458
0.00562429
0.00494924
0.00412147
0.00360895
0.0029817
0.00259412
0.00212072
0.00182734
0.00146709
0.00124016
0.000954977
0.000768131
0.000527129
0.000404708
0.00029523
0.000202358
4.05454e-05
-9.71241e-05
-0.000326576
-0.00052355
-0.000856125
-0.00115237
-0.00166757
-0.00214598
-0.00300489
-0.00384494
-0.00541612
-0.0070903
-0.0104425
-0.014632
-0.0240709
-0.0392219
-0.0764
-0.128096
-0.138918
-0.175345
-0.213597
-0.27361
-0.239649
-0.0883634
-0.0248017
-0.00620284
-65.489
61.4007
0.950702
0.67917
0.510302
0.335542
0.25243
0.17415
0.134705
0.0931133
0.0782137
0.0740618
0.0717461
0.0676818
0.0649003
0.0607082
0.0580557
0.0543313
0.0520011
0.0487499
0.046702
0.0438195
0.0419889
0.0393922
0.037757
0.0354795
0.0342255
0.0328961
0.0335096
0.0373216
0.0446347
0.0320013
0.0222547
0.0180925
0.0145868
0.0127602
0.0106337
0.00941127
0.00785212
0.00693794
0.00575357
0.00505939
0.00416192
0.00363697
0.00295969
0.00256236
0.00204705
0.00173974
0.0013319
0.00107856
0.000731666
0.000566016
0.000412611
0.000287268
5.56618e-05
-0.000130774
-0.00045877
-0.000725388
-0.00120033
-0.00160116
-0.00233632
-0.00298333
-0.00420739
-0.00534249
-0.00757588
-0.00983337
-0.0145704
-0.0201923
-0.033373
-0.0536875
-0.106166
-0.181572
-0.193087
-0.245364
-0.297872
-0.388277
-0.341984
-0.118899
-0.0322022
-0.00791578
-63.6843
58.9203
1.26344
0.867169
0.656315
0.425347
0.324091
0.221332
0.173262
0.117941
0.0998195
0.0950919
0.0923594
0.0869407
0.0835363
0.0779566
0.074713
0.0697662
0.0669183
0.0626017
0.0600989
0.0562718
0.0540343
0.0505848
0.0485847
0.045549
0.0440052
0.0421624
0.0428669
0.0477724
0.058701
0.0409707
0.028242
0.0232114
0.0186442
0.0164244
0.0136143
0.0121224
0.0100551
0.00893833
0.00736687
0.00651874
0.00532792
0.00468654
0.00378802
0.00330259
0.00261912
0.00224373
0.00170297
0.00139301
0.000929165
0.000727026
0.000529055
0.000376608
6.91375e-05
-0.000158606
-0.000593283
-0.000918768
-0.0015474
-0.00203649
-0.00300852
-0.00379753
-0.00541341
-0.00679607
-0.00973467
-0.0124773
-0.018663
-0.0254502
-0.0423896
-0.0668665
-0.135015
-0.237605
-0.245626
-0.315374
-0.380632
-0.50841
-0.45139
-0.143978
-0.0371063
-0.00891495
-61.8794
56.4232
1.60865
1.04776
0.803139
0.509968
0.395815
0.266329
0.212112
0.141283
0.120891
0.116044
0.113082
0.106121
0.102261
0.0951134
0.0914402
0.0851186
0.0818953
0.0763818
0.0735495
0.0686607
0.0661283
0.0617192
0.0594535
0.0555584
0.0537966
0.0513265
0.0520561
0.0579827
0.0739146
0.049741
0.0339223
0.0283129
0.0226088
0.0201135
0.0165434
0.0148577
0.0122211
0.010958
0.00895227
0.00799276
0.00647281
0.00574722
0.00460052
0.00405141