/*--------------------------------*- C++ -*----------------------------------*\
| =========                 |                                                 |
| \\      /  F ield         | OpenFOAM: The Open Source CFD Toolbox           |
|  \\    /   O peration     | Version:  5.x                                   |
|   \\  /    A nd           | Web:      www.OpenFOAM.org                      |
|    \\/     M anipulation  |                                                 |
\*---------------------------------------------------------------------------*/
FoamFile
{
    version     2.0;
    format      ascii;
    class       volScalarField;
    location    "1.3";
    object      gradTx;
}
// * * * * * * * * * * * * * * * * * * * * * * * * * * * * * * * * * * * * * //

dimensions      [0 -1 0 1 0 0 0];

internalField   nonuniform List<scalar> 
3200
(
46.5381
3.44408
1.51553
1.414
0.735528
0.694807
0.411128
0.393098
0.25228
0.24225
0.143646
0.139901
0.150054
0.15013
0.144128
0.14353
0.13497
0.134251
0.125497
0.124761
0.115843
0.115077
0.105633
0.104827
0.094897
0.0941292
0.0852782
0.0851275
0.0868311
0.147073
0.0716661
0.0442551
0.042401
0.0297846
0.0289023
0.0208015
0.0202232
0.0145326
0.014125
0.0100647
0.00977417
0.00688
0.00667304
0.00461218
0.00446403
0.00297865
0.00286953
0.00174287
0.0016569
0.000718516
0.000657546
0.000143001
8.64948e-05
-0.000738147
-0.000821681
-0.00199404
-0.00211688
-0.00387536
-0.00406712
-0.00687666
-0.0071948
-0.0119482
-0.0125131
-0.0211335
-0.0222477
-0.0397463
-0.0423969
-0.0854052
-0.0943446
-0.240609
-0.621368
-0.438773
-0.684769
-0.716217
-1.2731
-1.24737
-0.0560106
-0.00755826
-0.00153175
-52.7617
49.0776
2.88023
1.45151
1.2431
0.700092
0.613159
0.385298
0.346744
0.233925
0.212607
0.135093
0.127098
0.133789
0.133858
0.129197
0.127938
0.121187
0.119666
0.112733
0.111171
0.1041
0.102477
0.0949936
0.0932863
0.0854402
0.0838264
0.0769835
0.0768052
0.080649
0.122602
0.0665404
0.0417127
0.0376033
0.0274038
0.0255149
0.0190629
0.0178334
0.0133143
0.0124489
0.00922637
0.00860973
0.00631297
0.00587369
0.00423811
0.00392365
0.00274451
0.00251287
0.00161863
0.00143643
0.000695435
0.000565756
0.000149976
2.95019e-05
-0.000624775
-0.000802185
-0.00173404
-0.00199518
-0.00339438
-0.0038023
-0.00603997
-0.00671734
-0.0105092
-0.0117142
-0.0186138
-0.0210009
-0.0351182
-0.0408617
-0.0763057
-0.0962681
-0.228858
-0.521126
-0.417254
-0.604867
-0.66961
-1.08925
-1.03536
-0.122316
-0.0209777
-0.00440463
-54.577
51.6016
2.38904
1.33869
1.08559
0.646423
0.537157
0.351904
0.303369
0.211915
0.185218
0.123763
0.11371
0.117792
0.117778
0.114132
0.112568
0.107196
0.105298
0.0997523
0.0978002
0.0921393
0.0901093
0.0841218
0.0819897
0.0757337
0.0737327
0.0684234
0.0683236
0.072946
0.10206
0.0601699
0.0383458
0.0330531
0.0246941
0.0223135
0.0171185
0.0155783
0.0119525
0.0108696
0.0082859
0.00751451
0.00567325
0.00512375
0.00381242
0.00341903
0.00247337
0.00218358
0.00146654
0.00123891
0.000648277
0.000485767
0.000145479
-5.80591e-06
-0.000530209
-0.000752254
-0.00150069
-0.00182778
-0.00295296
-0.0034642
-0.00526567
-0.00611529
-0.00917365
-0.0106875
-0.0162748
-0.019285
-0.0308252
-0.0381386
-0.0678256
-0.0936865
-0.21072
-0.43673
-0.384075
-0.529878
-0.608806
-0.924338
-0.857714
-0.156152
-0.0310066
-0.0067587
-56.3923
54.1063
1.959
1.194
0.935537
0.579568
0.464203
0.313047
0.261716
0.187321
0.159224
0.11038
0.0997608
0.101961
0.101847
0.0989854
0.097352
0.0930669
0.0910755
0.0866278
0.0845774
0.0800317
0.0778992
0.0730948
0.0708572
0.0658567
0.0637713
0.0596558
0.0596544
0.0642663
0.0843631
0.0530008
0.0343211
0.0286291
0.0217486
0.0192278
0.0150308
0.0134093
0.0104912
0.00935256
0.0072748
0.00646386
0.00498331
0.00440565
0.0033511
0.00293753
0.00217681
0.00187214
0.00129545
0.00105644
0.000584343
0.00041321
0.000133725
-2.58954e-05
-0.000447497
-0.00068104
-0.00128403
-0.00162831
-0.00253601
-0.00307442
-0.00452942
-0.00542488
-0.00789996
-0.00949793
-0.0140389
-0.017228
-0.0267014
-0.0345206
-0.0594987
-0.0874581
-0.188223
-0.363479
-0.342956
-0.457564
-0.538536
-0.774709
-0.705467
-0.166932
-0.0369999
-0.008364
-58.2074
56.5911
1.57939
1.02905
0.789398
0.503096
0.392688
0.270203
0.220991
0.160879
0.134064
0.0954712
0.0853012
0.0862264
0.0860278
0.0837917
0.0822435
0.0788465
0.0769521
0.0734071
0.0714539
0.0678267
0.065795
0.0619642
0.0598343
0.0558629
0.053891
0.0507246
0.0508021
0.05497
0.0687298
0.0453281
0.0297803
0.0242557
0.0186315
0.016212
0.0128425
0.0112945
0.00896086
0.00787506
0.00621468
0.00544156
0.00425856
0.00370784
0.00286513
0.00247082
0.00186273
0.00157225
0.00111136
0.000883757
0.000508688
0.000345273
0.000117445
-3.52483e-05
-0.000372092
-0.00059485
-0.00107757
-0.00140618
-0.00213375
-0.00264791
-0.00381554
-0.00467129
-0.00666139
-0.00819071
-0.0118572
-0.0149197
-0.0226439
-0.0302164
-0.0510526
-0.0783174
-0.162746
-0.298059
-0.296433
-0.386594
-0.462058
-0.637297
-0.57199
-0.161368
-0.0389417
-0.00909743
-60.0223
59.0571
1.24047
0.851694
0.645133
0.419596
0.321663
0.224433
0.180707
0.133109
0.109379
0.0794282
0.0704003
0.0705387
0.0702923
0.0685721
0.0672103
0.0645665
0.0628949
0.0601225
0.0583969
0.055557
0.0537619
0.0507648
0.0488845
0.0457888
0.0440585
0.0416643
0.0417873
0.0452925
0.0545869
0.0373444
0.0248414
0.019889
0.0153887
0.0132365
0.0105835
0.00921323
0.00738239
0.00642222
0.00512052
0.00443699
0.00350963
0.00302274
0.00236207
0.00201344
0.00153657
0.00127974
0.000918393
0.000717364
0.000424846
0.000280161
9.83906e-05
-3.70153e-05
-0.000301065
-0.000498092
-0.000877151
-0.00116797
-0.00173995
-0.00219521
-0.00311412
-0.00387232
-0.00544129
-0.00679805
-0.00969966
-0.012425
-0.0185925
-0.0253818
-0.0423493
-0.0668903
-0.135234
-0.238116
-0.246237
-0.316211
-0.381588
-0.509505
-0.452325
-0.144275
-0.0371809
-0.00893423
-61.8369
61.5068
0.933426
0.667054
0.501636
0.330998
0.250614
0.176528
0.140582
0.104387
0.084946
0.0625507
0.0551348
0.0548683
0.0546176
0.0533395
0.0522294
0.0502482
0.0488821
0.0467957
0.0453839
0.0432449
0.0417762
0.03952
0.0379828
0.03566
0.0342526
0.032504
0.0326384
0.0353854
0.0415087
0.0291738
0.0196027
0.0155064
0.012054
0.0102831
0.00827493
0.00715206
0.00577059
0.00498443
0.00400283
0.00344327
0.00274402
0.00234545
0.00184724
0.00156183
0.00120214
0.000991882
0.000719384
0.000554954
0.000335325
0.000216739
7.7673e-05
-3.34553e-05
-0.000232565
-0.000393914
-0.000680151
-0.00091843
-0.00135076
-0.00172392
-0.00241911
-0.00304092
-0.0042297
-0.00534363
-0.00754927
-0.00979271
-0.0145164
-0.0201401
-0.0333432
-0.053711
-0.10634
-0.181964
-0.193566
-0.246012
-0.298616
-0.389116
-0.342694
-0.119144
-0.0322666
-0.00793251
-63.6513
63.9432
0.650263
0.478383
0.358354
0.238794
0.179318
0.1271
0.10047
0.0749985
0.0606332
0.0450757
0.039585
0.0391988
0.0389853
0.0381012
0.0372841
0.0359056
0.0348982
0.0334417
0.0323997
0.0309055
0.0298214
0.0282461
0.0271121
0.0254944
0.0244605
0.0232689
0.0233859
0.0253448
0.0291714
0.0208948
0.014147
0.0110998
0.00865367
0.00734071
0.0059324
0.00510256
0.00413615
0.00355555
0.00286921
0.00245601
0.00196712
0.00167281
0.00132445
0.00111369
0.00086215
0.000706882
0.000516344
0.000395004
0.000241949
0.000154299
5.5988e-05
-2.62345e-05
-0.000165454
-0.000284632
-0.000484985
-0.000661055
-0.000963896
-0.00123972
-0.00172703
-0.00218684
-0.00302113
-0.00384557
-0.00539741
-0.00706125
-0.0104043
-0.0145953
-0.0240506
-0.0392413
-0.0765258
-0.128372
-0.139262
-0.175806
-0.214128
-0.274204
-0.240148
-0.0885462
-0.0248512
-0.00621567
-65.4654
66.3699
0.383669
0.287643
0.215058
0.144191
0.107734
0.0766516
0.0603134
0.0451673
0.0363697
0.0271993
0.0238321
0.0235233
0.0233808
0.022861
0.0223619
0.0215485
0.0209324
0.020071
0.0194334
0.0185493
0.0178859
0.0169541
0.0162604
0.0153053
0.0146746
0.0139817
0.0140604
0.0152307
0.0173199
0.0125561
0.00854454
0.00667048
0.00520918
0.00440323
0.00356773
0.00305947
0.00248712
0.00213167
0.00172533
0.0014724
0.00118296
0.0010028
0.000796562
0.000667546
0.000518603
0.000423554
0.000310746
0.000236503
0.000146091
9.24022e-05
3.37673e-05
-1.66326e-05
-9.90585e-05
-0.000172026
-0.00029073
-0.000398559
-0.000578077
-0.000747035
-0.00103604
-0.00131778
-0.00181297
-0.00231843
-0.00324111
-0.00426267
-0.00625826
-0.00883995
-0.0145285
-0.0238878
-0.0461292
-0.0764182
-0.0839311
-0.105528
-0.128769
-0.163057
-0.142304
-0.0544317
-0.0156337
-0.00395553
-67.2793
68.7906
0.126818
0.0959682
0.0716963
0.0482128
0.0359372
0.0256146
0.0201107
0.0150832
0.0121222
0.00909164
0.00795752
0.00784192
0.0077919
0.00762033
0.00745258
0.00718364
0.00697641
0.00669128
0.00647677
0.00618405
0.00596085
0.00565239
0.00541906
0.00510315
0.00489133
0.00466395
0.00469155
0.00508047
0.00574361
0.00418826
0.00285741
0.00222535
0.00173917
0.00146759
0.00119059
0.00101951
0.000829914
0.000710305
0.000575723
0.000490614
0.000394755
0.000334133
0.000265825
0.000222412
0.000173079
0.000141095
0.000103733
7.87563e-05
4.88455e-05
3.07738e-05
1.12821e-05
-5.68881e-06
-3.29888e-05
-5.75443e-05
-9.68735e-05
-0.000133166
-0.00019266
-0.000249532
-0.000345334
-0.000440185
-0.000604402
-0.000774623
-0.00108088
-0.00142515
-0.00208886
-0.00296035
-0.00485963
-0.00801903
-0.0154107
-0.0253754
-0.0280369
-0.0351845
-0.0429678
-0.0541108
-0.0471436
-0.0183542
-0.0053318
-0.0013568
-69.0931
68.9148
0.13708
0.116002
0.0965126
0.075837
0.0642062
0.053089
0.0462521
0.0385236
0.0330229
0.0261463
0.0235567
0.0233873
0.0231175
0.0221832
0.021271
0.0198072
0.0186852
0.0171574
0.0160595
0.0146412
0.0136481
0.0123963
0.0115391
0.0104905
0.00983253
0.00915951
0.00910594
0.00980156
0.011104
0.00817294
0.00570885
0.00455591
0.0036908
0.00320845
0.00271328
0.00240078
0.00204351
0.00181017
0.00153591
0.0013555
0.00114241
0.0010023
0.000836962
0.000728182
0.000599527
0.000513729
0.00041019
0.000338642
0.000251799
0.000212608
0.000192936
0.000178392
0.000155408
0.000138113
0.00011506
9.90798e-05
7.91536e-05
6.50089e-05
4.63769e-05
3.03646e-05
4.21332e-06
-2.71275e-05
-9.15091e-05
-0.000188265
-0.000410886
-0.000790847
-0.00173248
-0.00354549
-0.00802529
-0.0145561
-0.0179668
-0.0254987
-0.0335505
-0.0453661
-0.0402995
-0.0157407
-0.00457684
-0.00116456
-69.7292
66.7421
0.414325
0.347943
0.289587
0.227151
0.1926
0.159097
0.138793
0.115483
0.0991248
0.0782683
0.0705741
0.0701667
0.0693799
0.0665496
0.0638357
0.0594087
0.0560726
0.0514557
0.0481918
0.0439073
0.0409553
0.0371737
0.0346254
0.0314565
0.0294988
0.0274544
0.0272885
0.0293812
0.0334823
0.0245009
0.0170748
0.0136568
0.0110576
0.00962635
0.00813299
0.00720456
0.00612596
0.00543251
0.0046043
0.00406814
0.0034246
0.00300816
0.00250887
0.00218556
0.00179706
0.00154207
0.00122944
0.00101667
0.000753591
0.000637132
0.000578686
0.000535593
0.00046607
0.000414639
0.000344957
0.000297451
0.000237275
0.000195247
0.00013906
9.15299e-05
1.28729e-05
-8.00381e-05
-0.000273212
-0.000559741
-0.00122634
-0.00235005
-0.00516254
-0.0105297
-0.0239937
-0.0437929
-0.0537353
-0.0764748
-0.1005
-0.136773
-0.121678
-0.0466859
-0.0134203
-0.00339495
-69.1876
64.5627
0.700902
0.579568
0.482832
0.377355
0.320956
0.264581
0.231458
0.192167
0.16541
0.129866
0.117302
0.116963
0.115726
0.110913
0.106471
0.0989686
0.0935134
0.0857018
0.080367
0.073122
0.0682975
0.0619035
0.0577383
0.0523758
0.0491703
0.0456759
0.0453827
0.048883
0.0563869
0.0407691
0.0282823
0.0227266
0.0183792
0.0160482
0.0135314
0.0120156
0.0101942
0.00906137
0.00766205
0.00678603
0.00569858
0.00501816
0.00417445
0.00364622
0.00298984
0.00257325
0.00204513
0.00169709
0.00124981
0.0010596
0.000964073
0.000894093
0.000776229
0.000692099
0.000574146
0.000496493
0.000394809
0.000326176
0.0002315
0.000154032
2.21788e-05
-0.000128869
-0.000451121
-0.000915955
-0.00202345
-0.00384161
-0.00849028
-0.0171898
-0.0397081
-0.073423
-0.0889909
-0.127398
-0.166959
-0.230232
-0.205449
-0.0759613
-0.021334
-0.0053345
-68.646
62.3722
1.0033
0.810217
0.676437
0.525604
0.449319
0.369142
0.324376
0.268356
0.232051
0.180549
0.163545
0.1638
0.162219
0.155266
0.149233
0.13845
0.131052
0.119852
0.112622
0.102243
0.0957056
0.0865472
0.0809022
0.0732117
0.0688563
0.0637724
0.0633285
0.0682287
0.0802216
0.0569159
0.039216
0.0317509
0.0256227
0.0224798
0.0188921
0.016841
0.0142368
0.0127028
0.0107006
0.009514
0.00795773
0.00703606
0.00582864
0.00511313
0.004174
0.00360977
0.00285436
0.00238212
0.00173625
0.00147873
0.00134886
0.00125491
0.00108541
0.000971257
0.000802022
0.000696767
0.000551252
0.000458352
0.000323423
0.000218862
3.23795e-05
-0.000170738
-0.000623226
-0.00124636
-0.00279202
-0.00521982
-0.0116557
-0.0232968
-0.0549739
-0.103778
-0.123331
-0.178273
-0.232465
-0.327209
-0.293406
-0.102241
-0.0277025
-0.00680768
-68.1042
60.1667
1.32836
1.03851
0.87074
0.670884
0.577849
0.472297
0.417753
0.343763
0.299306
0.229856
0.209102
0.210715
0.208933
0.199588
0.192189
0.177802
0.168747
0.153849
0.145007
0.131215
0.123223
0.111055
0.104152
0.0939184
0.0885755
0.0816876
0.0810652
0.0872963
0.105476
0.0728441
0.0497447
0.0407258
0.0327504
0.0289327
0.0241944
0.0216916
0.0182394
0.0163655
0.0137089
0.012259
0.0101935
0.0090673
0.00746483
0.00659055
0.00534452
0.00465517
0.00365329
0.003075
0.00220784
0.00189338
0.0017328
0.00161932
0.00139289
0.0012531
0.00102776
0.000899034
0.00070591
0.0005925
0.000414371
0.000287184
4.34223e-05
-0.000202471
-0.000788366
-0.00153973
-0.00352515
-0.0064375
-0.0146127
-0.0286018
-0.0695535
-0.1353
-0.156254
-0.229174
-0.296346
-0.429323
-0.387652
-0.123854
-0.0319255
-0.00766726
-67.5624
57.9425
1.68346
1.26193
1.06634
0.811906
0.706894
0.573423
0.51192
0.417999
0.36757
0.277223
0.253772
0.257773
0.255955
0.243838
0.235432
0.216946
0.206683
0.187609
0.177597
0.15996
0.150913
0.135357
0.12754
0.114435
0.108362
0.0993577
0.0985336
0.105893
0.132772
0.0883979
0.0597161
0.049664
0.0397163
0.0354267
0.0294113
0.0265839
0.0221824
0.0200629
0.0166719
0.0150316
0.0123944
0.01112
0.00907405
0.00808485
0.0064945
0.00571466
0.00443659
0.0037806
0.00265818
0.00230265
0.00211561
0.00198898
0.00169756
0.00153898
0.00125016
0.00110437
0.000857788
0.000729607
0.000503584
0.000360443
5.4775e-05
-0.000220398
-0.000946708
-0.00178356
-0.00422102
-0.00744444
-0.0173367
-0.0328276
-0.0831397
-0.168611
-0.187094
-0.280301
-0.357589
-0.538415
-0.490777
-0.13859
-0.0334424
-0.00780744
-67.0205
55.6971
2.07648
1.47633
1.26433
0.94697
0.837095
0.671685
0.607396
0.490506
0.437442
0.321923
0.297351
0.305071
0.303398
0.287947
0.279087
0.255769
0.244978
0.221014
0.210498
0.188369
0.17887
0.159356
0.151147
0.134676
0.128272
0.116707
0.115682
0.123718
0.16293
0.103332
0.0689491
0.0586041
0.0464613
0.041995
0.0345054
0.0315438
0.0260384
0.0238152
0.0195687
0.0178475
0.0145438
0.0132066
0.0106436
0.00960563
0.00761414
0.00679601
0.00519657
0.00450626
0.00307888
0.00270614
0.00249691
0.00236611
0.00199772
0.00183083
0.00146748
0.00131432
0.00100542
0.000871079
0.000589848
0.000440536
6.51774e-05
-0.000220032
-0.00110042
-0.00196316
-0.00488522
-0.00818434
-0.0198362
-0.0356598
-0.0953179
-0.204599
-0.214943
-0.332059
-0.414685
-0.656636
-0.606075
-0.143442
-0.0317798
-0.00717844
-66.4785
53.429
2.51587
1.67522
1.46655
1.07376
0.969537
0.76592
0.704993
0.560474
0.509824
0.362994
0.339647
0.352755
0.351401
0.331803
0.323328
0.2941
0.28381
0.253889
0.243872
0.21628
0.207235
0.18291
0.175091
0.154522
0.148395
0.133642
0.132476
0.140306
0.197055
0.117268
0.0772284
0.0676233
0.0529056
0.0486903
0.039424
0.0366109
0.0297679
0.0276533
0.0223686
0.0207308
0.0166183
0.0153456
0.0121551
0.0111674
0.00868925
0.00791086
0.00592199
0.00526306
0.00345857
0.00310418
0.00287613
0.00275378
0.00229074
0.00213141
0.00167713
0.00153121
0.00114664
0.00101895
0.000671254
0.00053006
7.22837e-05
-0.000195569
-0.00125458
-0.00206014
-0.00553406
-0.00858981
-0.0221684
-0.0367377
-0.105509
-0.244539
-0.238516
-0.385191
-0.4654
-0.786547
-0.737846
-0.134253
-0.0266363
-0.00580149
-65.9365
51.1392
3.01042
1.84887
1.67617
1.18902
1.10598
0.854465
0.805952
0.626702
0.586067
0.399135
0.380495
0.401027
0.400145
0.375224
0.368411
0.331684
0.323436
0.285978
0.277959
0.243459
0.23622
0.205813
0.199554
0.173798
0.168872
0.150043
0.148919
0.154948
0.236659
0.129624
0.084299
0.0768549
0.0589368
0.0555945
0.0440907
0.0418453
0.0333138
0.0316234
0.0250275
0.0237178
0.0185831
0.0175653
0.0135819
0.012792
0.00969905
0.00907667
0.00659622
0.00606755
0.00378153
0.00349837
0.00325233
0.00315625
0.00257264
0.00244478
0.00187527
0.00175842
0.00127821
0.00117622
0.000744866
0.000632687
7.21362e-05
-0.000139133
-0.00141862
-0.00205012
-0.00619934
-0.00857403
-0.0244603
-0.0356467
-0.112888
-0.290277
-0.255977
-0.440974
-0.50647
-0.931239
-0.891801
-0.105223
-0.0180234
-0.00378199
-65.3946
48.8316
3.5689
1.98299
1.8984
1.28815
1.24918
0.934911
0.91216
0.687402
0.668178
0.428556
0.419786
0.450169
0.449862
0.417933
0.414701
0.368139
0.364242
0.316899
0.313115
0.269556
0.266142
0.227759
0.224805
0.192251
0.189915
0.165745
0.165085
0.166574
0.283834
0.139524
0.0898632
0.0865141
0.0643926
0.0628327
0.0483938
0.0473377
0.036592
0.0357957
0.0274801
0.0268627
0.0203877
0.0199079
0.0148846
0.0145122
0.0106129
0.0103196
0.00719453
0.00694441
0.0040257
0.00389239
0.00362382
0.0035795
0.00283742
0.00277691
0.00205619
0.00200103
0.00139532
0.00134731
0.000806208
0.000753731
5.83827e-05
-3.96121e-05
-0.00160828
-0.00189909
-0.00693529
-0.00801744
-0.0269396
-0.0319127
-0.116259
-0.344477
-0.264662
-0.50153
-0.533161
-1.09449
-1.07563
-0.0482172
-0.00649439
-0.00131636
-64.8528
48.8315
3.56885
1.98297
1.89837
1.28814
1.24917
0.934899
0.912148
0.687391
0.668167
0.428547
0.419778
0.450155
0.449848
0.417919
0.414688
0.368128
0.364231
0.316895
0.313111
0.269559
0.266146
0.227769
0.224816
0.192265
0.18993
0.165762
0.165103
0.166595
0.283873
0.139544
0.0898786
0.0865292
0.0644044
0.0628442
0.048403
0.0473468
0.0365993
0.0358028
0.0274859
0.0268685
0.0203923
0.0199124
0.0148882
0.0145158
0.0106157
0.0103224
0.00719662
0.00694645
0.00402702
0.00389368
0.00362497
0.00358064
0.00283834
0.00277783
0.00205693
0.00200176
0.00139595
0.00134795
0.000806841
0.000754377
5.92556e-05
-3.86946e-05
-0.00160661
-0.0018973
-0.00693146
-0.00801331
-0.0269305
-0.031903
-0.116238
-0.344437
-0.264641
-0.501532
-0.533167
-1.09457
-1.07571
-0.048221
-0.00649629
-0.00131845
-64.8528
51.1391
3.01039
1.84884
1.67615
1.18901
1.10596
0.854454
0.805941
0.626692
0.586057
0.399127
0.380487
0.401016
0.400133
0.375212
0.368399
0.331674
0.323427
0.285973
0.277956
0.243461
0.236224
0.205821
0.199563
0.173811
0.168886
0.150059
0.148935
0.154967
0.236692
0.129643
0.0843132
0.0768682
0.0589475
0.0556047
0.044099
0.0418533
0.0333204
0.0316297
0.0250327
0.0237228
0.0185873
0.0175693
0.0135852
0.0127951
0.00970157
0.0090791
0.00659809
0.00606933
0.00378271
0.00349953
0.00325336
0.00315724
0.00257346
0.00244559
0.00187593
0.00175907
0.00127877
0.00117678
0.000745428
0.000633279
7.29082e-05
-0.000138264
-0.00141714
-0.00204838
-0.00619597
-0.00857002
-0.0244523
-0.0356372
-0.112869
-0.290244
-0.255959
-0.440975
-0.50648
-0.93131
-0.891872
-0.105232
-0.0180268
-0.00379151
-65.3945
53.429
2.51584
1.67519
1.46653
1.07374
0.969526
0.76591
0.704984
0.560466
0.509816
0.362987
0.33964
0.352745
0.351391
0.331792
0.323318
0.294092
0.283802
0.253885
0.24387
0.216282
0.207239
0.182918
0.1751
0.154533
0.148408
0.133656
0.13249
0.140324
0.197082
0.117284
0.0772416
0.0676352
0.0529152
0.0486994
0.0394316
0.036618
0.0297739
0.0276589
0.0223734
0.0207353
0.016622
0.0153492
0.0121581
0.0111702
0.00869156
0.00791303
0.0059237
0.00526464
0.00345966
0.00310524
0.00287708
0.00275467
0.0022915
0.00213213
0.00167774
0.00153179
0.00114715
0.00101946
0.000671763
0.000530604
7.29722e-05
-0.000194759
-0.00125328
-0.00205851
-0.00553111
-0.00858605
-0.0221614
-0.0367289
-0.105492
-0.244512
-0.2385
-0.385191
-0.465412
-0.786605
-0.737905
-0.134264
-0.0266385
-0.00581525
-65.9364
55.697
2.07646
1.4763
1.26431
0.94696
0.837086
0.671677
0.607389
0.490499
0.437435
0.321917
0.297345
0.305063
0.303389
0.287938
0.279078
0.255762
0.244972
0.221011
0.210496
0.188371
0.178873
0.159362
0.151154
0.134686
0.128282
0.116719
0.115695
0.123735
0.162953
0.103347
0.0689611
0.0586146
0.0464699
0.0420029
0.0345121
0.0315501
0.0260437
0.0238202
0.0195729
0.0178515
0.0145472
0.0132098
0.0106463
0.00960813
0.00761622
0.00679793
0.00519811
0.00450766
0.00307988
0.0027071
0.00249776
0.0023669
0.0019984
0.00183147
0.00146803
0.00131485
0.00100588
0.000871537
0.000590301
0.000441026
6.57833e-05
-0.000219299
-0.00109928
-0.00196168
-0.00488266
-0.00818093
-0.0198303
-0.0356518
-0.0953033
-0.204576
-0.21493
-0.332059
-0.414696
-0.656683
-0.606123
-0.143453
-0.0317794
-0.0071924
-66.4784
57.9425
1.68344
1.2619
1.06633
0.811897
0.706887
0.573416
0.511914
0.417993
0.367565
0.277218
0.253767
0.257766
0.255948
0.24383
0.235425
0.21694
0.206678
0.187606
0.177595
0.159962
0.150916
0.135362
0.127547
0.114443
0.108371
0.0993678
0.0985446
0.105908
0.13279
0.0884102
0.0597266
0.049673
0.0397237
0.0354335
0.029417
0.0265892
0.022187
0.0200672
0.0166756
0.015035
0.0123973
0.0111227
0.00907638
0.008087
0.00649631
0.00571632
0.00443794
0.0037818
0.00265906
0.00230349
0.00211634
0.00198965
0.00169816
0.00153954
0.00125064
0.00110482
0.000858191
0.000730005
0.000503978
0.00036087
5.52953e-05
-0.000219758
-0.000945745
-0.00178227
-0.00421886
-0.00744147
-0.0173316
-0.0328207
-0.0831273
-0.168593
-0.187084
-0.280301
-0.3576
-0.538452
-0.490815
-0.1386
-0.0334391
-0.00781912
-67.0204
60.1666
1.32835
1.03848
0.870729
0.670877
0.577844
0.472292
0.417749
0.343758
0.299302
0.229852
0.209098
0.21071
0.208926
0.199581
0.192184
0.177797
0.168743
0.153846
0.145006
0.131216
0.123225
0.111059
0.104157
0.0939252
0.088583
0.0816959
0.0810741
0.0873082
0.10549
0.0728541
0.0497536
0.0407333
0.0327565
0.0289383
0.0241992
0.021696
0.0182432
0.016369
0.0137119
0.0122618
0.010196
0.00906954
0.00746677
0.00659233
0.00534603
0.00465655
0.00365443
0.003076
0.00220858
0.00189408
0.00173341
0.00161988
0.00139338
0.00125356
0.00102816
0.000899412
0.000706248
0.000592832
0.000414699
0.000287541
4.38534e-05
-0.000201934
-0.000787573
-0.00153865
-0.00352339
-0.00643502
-0.0146086
-0.028596
-0.0695433
-0.135286
-0.156245
-0.229174
-0.296356
-0.429352
-0.387682
-0.123863
-0.03192
-0.00767564
-67.5623
62.3722
1.00328
0.810193
0.67643
0.525599
0.449315
0.369138
0.324373
0.268352
0.232047
0.180545
0.163542
0.163796
0.162215
0.155262
0.149228
0.138447
0.131049
0.119851
0.112621
0.102244
0.0957075
0.0865506
0.0809064
0.073217
0.0688621
0.0637788
0.0633354
0.068238
0.0802328
0.0569238
0.039223
0.0317568
0.0256275
0.0224842
0.0188958
0.0168445
0.0142398
0.0127055
0.010703
0.00951619
0.00795965
0.00703782
0.00583016
0.00511452
0.00417519
0.00361084
0.00285527
0.00238291
0.00173684
0.00147929
0.00134934
0.00125534
0.0010858
0.000971616
0.000802338
0.000697064
0.000551519
0.000458614
0.000323683
0.000219144
3.2718e-05
-0.000170313
-0.000622608
-0.00124551
-0.00279065
-0.00521786
-0.0116526
-0.0232923
-0.0549661
-0.103767
-0.123325
-0.178273
-0.232473
-0.327231
-0.293429
-0.102248
-0.0276958
-0.00681273
-68.1042
64.5627
0.700891
0.579549
0.482827
0.377351
0.320953
0.264579
0.231456
0.192165
0.165407
0.129864
0.1173
0.11696
0.115723
0.11091
0.106468
0.0989659
0.0935112
0.0857006
0.0803665
0.0731226
0.0682989
0.0619059
0.0577414
0.0523795
0.0491744
0.0456804
0.0453875
0.0488897
0.0563947
0.0407747
0.0282874
0.0227308
0.0183827
0.0160513
0.0135341
0.0120181
0.0101963
0.00906331
0.00766375
0.00678759
0.00569995
0.00501942
0.00417555
0.00364722
0.0029907
0.00257402
0.00204579
0.00169765
0.00125024
0.00106
0.000964415
0.000894398
0.000776506
0.000692355
0.000574373
0.000496705
0.000395002
0.000326364
0.000231687
0.000154235
2.24221e-05
-0.000128562
-0.000450678
-0.000915336
-0.00202247
-0.0038402
-0.00848803
-0.0171866
-0.0397026
-0.0734158
-0.0889865
-0.127398
-0.166964
-0.230247
-0.205465
-0.0759667
-0.0213274
-0.00533681
-68.6459
66.7421
0.414317
0.347931
0.289584
0.227149
0.192598
0.159095
0.138792
0.115481
0.0991234
0.0782668
0.0705727
0.0701648
0.0693778
0.0665475
0.0638337
0.059407
0.0560713
0.0514549
0.0481915
0.0439077
0.0409561
0.0371751
0.0346272
0.0314587
0.0295012
0.027457
0.0272913
0.0293852
0.0334869
0.0245043
0.0170779
0.0136593
0.0110597
0.0096282
0.00813459
0.00720601
0.00612723
0.00543367
0.00460532
0.00406907
0.00342542
0.00300891
0.00250952
0.00218616
0.00179758
0.00154253
0.00122983
0.001017
0.000753845
0.000637374
0.00057889
0.000535774
0.000466236
0.000414791
0.000345093
0.000297579
0.000237391
0.000195361
0.000139173
9.16526e-05
1.30193e-05
-7.98527e-05
-0.000272947
-0.000559368
-0.00122576
-0.0023492
-0.0051612
-0.0105278
-0.0239904
-0.0437887
-0.0537328
-0.0764751
-0.100504
-0.136782
-0.121687
-0.0466892
-0.0134153
-0.0033955
-69.1876
68.9148
0.137077
0.115997
0.0965115
0.0758362
0.0642056
0.0530884
0.0462515
0.0385231
0.0330225
0.0261458
0.0235563
0.0233867
0.0231168
0.0221825
0.0212703
0.0198067
0.0186848
0.0171571
0.0160593
0.0146413
0.0136484
0.0123967
0.0115396
0.0104912
0.00983334
0.00916038
0.00910686
0.00980289
0.0111055
0.00817404
0.00570988
0.00455674
0.00369149
0.00320906
0.00271381
0.00240126
0.00204393
0.00181055
0.00153624
0.00135581
0.00114268
0.00100254
0.000837179
0.000728379
0.000599698
0.000513882
0.000410322
0.000338754
0.000251883
0.000212688
0.000193003
0.000178451
0.000155463
0.000138164
0.000115105
9.91219e-05
7.9192e-05
6.50464e-05
4.64143e-05
3.04054e-05
4.26201e-06
-2.70657e-05
-9.14207e-05
-0.000188141
-0.000410692
-0.000790565
-0.00173204
-0.00354485
-0.00802419
-0.0145547
-0.017966
-0.0254988
-0.0335517
-0.045369
-0.0403026
-0.0157418
-0.00457481
-0.00116447
-69.7292
68.7903
0.126689
0.0957509
0.0713827
0.0477208
0.0352357
0.0245157
0.0186056
0.0130519
0.0108088
0.0100996
0.00972908
0.00920165
0.00881445
0.00830876
0.00796338
0.00754079
0.00725151
0.00689229
0.00663693
0.00630556
0.00606047
0.00573059
0.0054849
0.00515668
0.00493787
0.00470392
0.00472919
0.00511871
0.00578565
0.0042186
0.00287802
0.00224152
0.00175209
0.00147873
0.00119993
0.00102773
0.000836847
0.000716402
0.000580838
0.000495082
0.000398458
0.000337323
0.000268395
0.000224576
0.000174769
0.000142477
0.000104758
7.95476e-05
4.93691e-05
3.11544e-05
1.15492e-05
-5.50409e-06
-3.29215e-05
-5.75619e-05
-9.7002e-05
-0.000133373
-0.000192967
-0.000249913
-0.000345815
-0.000440744
-0.000605077
-0.000775403
-0.00108183
-0.00142627
-0.00209029
-0.00296215
-0.00486217
-0.00802264
-0.0154167
-0.0253843
-0.0280455
-0.0351934
-0.042977
-0.0541206
-0.0471516
-0.0183573
-0.0053331
-0.00135705
-69.093
66.3689
0.383283
0.286991
0.214121
0.142716
0.105637
0.073355
0.0558031
0.0390237
0.0323653
0.0302856
0.0291938
0.0275996
0.0264483
0.02492
0.0238934
0.0226171
0.0217574
0.0206727
0.0199138
0.0189132
0.0181847
0.0171883
0.016458
0.0154656
0.0148142
0.0141015
0.0141731
0.0153453
0.0174466
0.012647
0.00860618
0.00671894
0.00524787
0.00443664
0.00359573
0.00308412
0.00250789
0.00214997
0.00174066
0.0014858
0.00119406
0.00101238
0.000804263
0.000674039
0.000523667
0.000427702
0.000313816
0.000238878
0.000147656
9.35429e-05
3.45675e-05
-1.60773e-05
-9.88577e-05
-0.000172078
-0.000291116
-0.000399179
-0.000579
-0.000748177
-0.00103748
-0.00131946
-0.00181499
-0.00232077
-0.00324396
-0.00426603
-0.00626256
-0.00884532
-0.0145361
-0.0238986
-0.0461473
-0.0764452
-0.0839569
-0.105555
-0.128797
-0.163086
-0.142328
-0.0544409
-0.0156374
-0.00395613
-67.2791
63.9416
0.649621
0.477296
0.356803
0.23634
0.175849
0.121607
0.0929708
0.0645916
0.0537395
0.050433
0.0486794
0.0459806
0.0440979
0.0415118
0.0398337
0.037677
0.0362723
0.0344401
0.0332002
0.0315097
0.0303195
0.0286352
0.0274413
0.0257609
0.0246931
0.0234678
0.0235734
0.0255353
0.0293847
0.021046
0.014249
0.0111805
0.00871796
0.00739639
0.00597896
0.00514366
0.00417072
0.00358606
0.00289471
0.00247838
0.00198559
0.00168878
0.00133726
0.00112453
0.000870569
0.000713804
0.000521445
0.00039897
0.000244542
0.000156198
5.73182e-05
-2.53038e-05
-0.000165123
-0.000284714
-0.000485632
-0.000662083
-0.000965437
-0.00124162
-0.00172943
-0.00218962
-0.00302451
-0.00384945
-0.00540216
-0.00706684
-0.0104114
-0.0146042
-0.0240631
-0.0392591
-0.0765558
-0.128417
-0.139305
-0.17585
-0.214174
-0.274253
-0.240189
-0.0885612
-0.0248567
-0.00621637
-65.465
61.5046
0.932531
0.665532
0.499489
0.327569
0.245813
0.168836
0.13013
0.08946
0.0748134
0.0705196
0.0682043
0.0643302
0.0617768
0.058068
0.0557939
0.0527072
0.0508046
0.0481836
0.0465044
0.0440859
0.0424737
0.0400622
0.0384439
0.0360315
0.0345782
0.0327813
0.0329
0.0356511
0.041812
0.0293848
0.0197441
0.015619
0.0121436
0.0103611
0.00833992
0.00720966
0.00581886
0.0050272
0.00403845
0.00347463
0.0027698
0.00236785
0.00186511
0.00157703
0.00121389
0.0010016
0.000726494
0.000560524
0.00033892
0.000219395
7.95284e-05
-3.21397e-05
-0.000232109
-0.000394018
-0.000681064
-0.000919859
-0.00135293
-0.00172657
-0.00242248
-0.0030448
-0.00423443
-0.00534904
-0.00755592
-0.00980049
-0.0145264
-0.0201525
-0.0333608
-0.0537356
-0.106382
-0.182028
-0.193626
-0.246074
-0.298681
-0.389186
-0.342752
-0.119164
-0.0322735
-0.00793303
-63.6508
59.0543
1.23933
0.849736
0.642417
0.415196
0.31559
0.214538
0.167371
0.11329
0.0954753
0.0905292
0.0877935
0.0826288
0.0795036
0.0745681
0.0717875
0.0676905
0.0653658
0.0618894
0.059838
0.0566293
0.0546593
0.0514569
0.0494778
0.0462636
0.0444772
0.0420186
0.0421221
0.045632
0.0549853
0.0376142
0.0250204
0.0200333
0.0155031
0.0133369
0.0106667
0.00928742
0.00744422
0.00647733
0.00516614
0.0044774
0.00354265
0.00305163
0.00238494
0.00203304
0.00155159
0.00129228
0.000927477
0.000724562
0.000429405
0.000283574
0.000100764
-3.52993e-05
-0.000300492
-0.000498204
-0.000878339
-0.00116979
-0.00174274
-0.0021986
-0.00311846
-0.00387729
-0.00544738
-0.00680497
-0.0097082
-0.0124349
-0.0186054
-0.0253975
-0.0423717
-0.0669212
-0.135287
-0.238201
-0.246313
-0.316291
-0.381672
-0.509595
-0.452401
-0.1443
-0.0371884
-0.00893435
-61.8363
56.5877
1.57801
1.02666
0.786149
0.497724
0.38543
0.258089
0.204892
0.135671
0.115625
0.110453
0.107482
0.100848
0.0973047
0.0909835
0.087835
0.0826035
0.0799735
0.075538
0.0732175
0.0691226
0.0668936
0.0628021