/*--------------------------------*- C++ -*----------------------------------*\
| =========                 |                                                 |
| \\      /  F ield         | OpenFOAM: The Open Source CFD Toolbox           |
|  \\    /   O peration     | Version:  5.x                                   |
|   \\  /    A nd           | Web:      www.OpenFOAM.org                      |
|    \\/     M anipulation  |                                                 |
\*---------------------------------------------------------------------------*/
FoamFile
{
    version     2.0;
    format      ascii;
    class       volScalarField;
    location    "1.3";
    object      T;
}
// * * * * * * * * * * * * * * * * * * * * * * * * * * * * * * * * * * * * * //

dimensions      [0 0 0 1 0 0 0];

internalField   nonuniform List<scalar> 
3200
(
2.16396
2.48984
2.50837
2.6414
2.64977
2.71495
2.71925
2.75606
2.75856
2.78129
2.78279
2.79566
2.79678
2.81066
2.81179
2.82507
2.82614
2.83857
2.83957
2.85112
2.85205
2.8627
2.86355
2.87327
2.87404
2.88276
2.88345
2.89129
2.89196
2.89997
2.90667
2.90713
2.91109
2.91137
2.91407
2.91427
2.91615
2.91629
2.91761
2.9177
2.91861
2.91868
2.9193
2.91934
2.91976
2.91979
2.92006
2.92008
2.92023
2.92024
2.92031
2.92031
2.92032
2.92032
2.92025
2.92024
2.92005
2.92002
2.91966
2.91962
2.91897
2.9189
2.91778
2.91765
2.91566
2.91542
2.91169
2.91118
2.90315
2.90175
2.87909
2.83961
2.83521
2.77113
2.76359
2.64382
2.63885
2.63822
2.6381
2.63807
2.32923
2.57854
2.61725
2.72369
2.74156
2.7937
2.80288
2.83223
2.83755
2.85562
2.85881
2.86913
2.87152
2.88251
2.88491
2.89543
2.8977
2.90755
2.90967
2.91882
2.92078
2.92923
2.93103
2.93873
2.94036
2.94727
2.94874
2.95497
2.95642
2.96304
2.96868
2.96969
2.97285
2.97345
2.97559
2.976
2.9775
2.97779
2.97883
2.97903
2.97975
2.97989
2.98039
2.98048
2.98081
2.98087
2.98108
2.98112
2.98125
2.98127
2.98132
2.98132
2.98133
2.98133
2.98127
2.98125
2.98109
2.98105
2.98076
2.98067
2.98015
2.97999
2.9791
2.97882
2.97724
2.97672
2.97373
2.97264
2.9661
2.96301
2.94321
2.9109
2.90149
2.85041
2.83452
2.74148
2.73099
2.72925
2.72889
2.72881
2.48451
2.67565
2.72341
2.80952
2.83197
2.87416
2.88569
2.90935
2.91602
2.93054
2.93455
2.94292
2.94592
2.9547
2.95769
2.96611
2.96895
2.97683
2.97948
2.98681
2.98926
2.99602
2.99827
3.00443
3.00647
3.01201
3.01384
3.01885
3.02068
3.02614
3.03088
3.03216
3.03472
3.03546
3.03719
3.0377
3.0389
3.03925
3.04009
3.04034
3.04092
3.04109
3.04149
3.0416
3.04187
3.04195
3.04212
3.04216
3.04226
3.04229
3.04233
3.04234
3.04234
3.04234
3.04229
3.04226
3.04214
3.04208
3.04185
3.04173
3.04132
3.04112
3.0404
3.04005
3.03877
3.03812
3.03569
3.03431
3.02891
3.02494
3.00784
2.98127
2.96943
2.92828
2.90855
2.83585
2.82278
2.82023
2.81968
2.81956
2.63214
2.77849
2.82804
2.89789
2.92159
2.95585
2.96801
2.98715
2.99418
3.00589
3.0101
3.01692
3.02008
3.02712
3.03027
3.03702
3.04
3.04632
3.04911
3.05499
3.05757
3.06299
3.06536
3.0703
3.07244
3.07689
3.07882
3.08285
3.08478
3.08928
3.09322
3.09458
3.09665
3.09744
3.09883
3.09936
3.10033
3.1007
3.10138
3.10164
3.10211
3.10229
3.10261
3.10273
3.10294
3.10302
3.10316
3.10321
3.10329
3.10331
3.10335
3.10335
3.10336
3.10335
3.10331
3.10328
3.10319
3.10312
3.10293
3.10281
3.10248
3.10227
3.10169
3.10132
3.10029
3.0996
3.09762
3.09615
3.09167
3.0874
3.07284
3.05105
3.03855
3.0053
2.98469
2.92783
2.91415
2.91113
2.91045
2.9103
2.77391
2.8852
2.93184
2.98811
3.01078
3.03842
3.05005
3.06544
3.07215
3.08153
3.08556
3.09107
3.09409
3.0997
3.10269
3.10807
3.11092
3.11596
3.11861
3.1233
3.12576
3.13008
3.13234
3.13628
3.13832
3.14187
3.14371
3.14694
3.14879
3.15243
3.15566
3.15697
3.15864
3.15939
3.1605
3.16101
3.16179
3.16214
3.16268
3.16293
3.1633
3.16348
3.16373
3.16385
3.16402
3.16409
3.1642
3.16425
3.16431
3.16434
3.16437
3.16437
3.16438
3.16437
3.16434
3.16431
3.16423
3.16417
3.16402
3.16391
3.16364
3.16344
3.16297
3.16262
3.16179
3.16113
3.15952
3.15811
3.15442
3.15027
3.13814
3.12047
3.1085
3.08181
3.06229
3.01808
3.00509
3.00194
3.0012
3.00103
2.91122
2.9945
3.03526
3.07967
3.09978
3.12162
3.13194
3.14407
3.15001
3.15738
3.16095
3.16532
3.16799
3.17238
3.17502
3.17923
3.18174
3.18569
3.18803
3.1917
3.19387
3.19726
3.19925
3.20233
3.20414
3.20691
3.20854
3.21108
3.21272
3.21561
3.21818
3.21934
3.22066
3.22133
3.2222
3.22266
3.22326
3.22358
3.224
3.22422
3.22451
3.22466
3.22486
3.22497
3.2251
3.22517
3.22525
3.22529
3.22534
3.22537
3.22539
3.22539
3.2254
3.22539
3.22537
3.22534
3.22528
3.22522
3.2251
3.225
3.22479
3.22462
3.22425
3.22394
3.22328
3.22269
3.22142
3.22016
3.21719
3.21347
3.20366
3.18966
3.17904
3.15803
3.14088
3.10708
3.09565
3.09266
3.09193
3.09176
3.04519
3.10549
3.13854
3.17219
3.1887
3.20529
3.21376
3.22294
3.22782
3.23338
3.23631
3.23964
3.24183
3.24512
3.24729
3.25046
3.25251
3.25548
3.2574
3.26016
3.26194
3.26449
3.26612
3.26844
3.26991
3.27201
3.27334
3.27526
3.2766
3.27879
3.28075
3.28171
3.28272
3.28326
3.28392
3.28429
3.28475
3.28501
3.28533
3.2855
3.28573
3.28585
3.286
3.28608
3.28618
3.28624
3.2863
3.28634
3.28638
3.28639
3.28641
3.28642
3.28642
3.28641
3.28639
3.28637
3.28633
3.28628
3.28619
3.28611
3.28595
3.28581
3.28553
3.28527
3.28477
3.28429
3.28332
3.28228
3.27999
3.27691
3.26935
3.25871
3.25
3.23411
3.22013
3.1952
3.18586
3.18328
3.18264
3.18249
3.17676
3.21756
3.24178
3.2654
3.27762
3.28928
3.29555
3.30199
3.3056
3.30949
3.31166
3.314
3.31562
3.31792
3.31952
3.32173
3.32324
3.32532
3.32673
3.32866
3.32997
3.33175
3.33296
3.33458
3.33567
3.33713
3.33811
3.33946
3.34045
3.34199
3.34337
3.34408
3.34478
3.34519
3.34565
3.34592
3.34624
3.34643
3.34666
3.34679
3.34694
3.34703
3.34714
3.3472
3.34727
3.34731
3.34736
3.34738
3.34741
3.34742
3.34743
3.34744
3.34744
3.34744
3.34742
3.34741
3.34738
3.34734
3.34728
3.34722
3.34711
3.347
3.3468
3.34661
3.34626
3.34591
3.34522
3.34445
3.34282
3.34053
3.33517
3.32769
3.32124
3.31011
3.29983
3.28269
3.27581
3.27383
3.27333
3.27321
3.30668
3.3303
3.34505
3.35907
3.36656
3.37349
3.37733
3.38115
3.38336
3.38567
3.387
3.38839
3.38938
3.39074
3.39172
3.39303
3.39395
3.39518
3.39605
3.39719
3.39799
3.39904
3.39978
3.40074
3.40141
3.40227
3.40287
3.40367
3.40428
3.40519
3.40601
3.40645
3.40687
3.40711
3.40739
3.40755
3.40774
3.40786
3.40799
3.40807
3.40817
3.40822
3.40828
3.40832
3.40836
3.40839
3.40841
3.40843
3.40845
3.40845
3.40846
3.40846
3.40846
3.40846
3.40845
3.40844
3.40842
3.4084
3.40837
3.40833
3.40826
3.4082
3.40808
3.40797
3.40776
3.40754
3.40713
3.40666
3.40568
3.40427
3.40107
3.39663
3.39267
3.38607
3.3798
3.36977
3.36557
3.36432
3.364
3.36393
3.43566
3.4434
3.44835
3.45299
3.45552
3.45782
3.45911
3.46038
3.46112
3.46189
3.46233
3.46279
3.46313
3.46358
3.46391
3.46434
3.46465
3.46506
3.46535
3.46573
3.466
3.46635
3.46659
3.46691
3.46714
3.46742
3.46763
3.46789
3.46809
3.4684
3.46867
3.46882
3.46895
3.46904
3.46913
3.46918
3.46925
3.46929
3.46933
3.46936
3.46939
3.46941
3.46943
3.46944
3.46945
3.46946
3.46947
3.46948
3.46948
3.46948
3.46949
3.46949
3.46949
3.46949
3.46948
3.46948
3.46947
3.46947
3.46946
3.46944
3.46942
3.4694
3.46936
3.46932
3.46925
3.46918
3.46904
3.46888
3.46856
3.46808
3.46702
3.46554
3.46421
3.46203
3.45992
3.45661
3.4552
3.45478
3.45467
3.45464
3.44168
3.44979
3.45539
3.46139
3.46504
3.46898
3.47146
3.47429
3.47609
3.47814
3.47939
3.48075
3.48175
3.48309
3.48406
3.48531
3.48619
3.48729
3.48806
3.48901
3.48966
3.49047
3.49103
3.49171
3.49218
3.49276
3.49316
3.49368
3.49407
3.49466
3.49518
3.49547
3.49576
3.49593
3.49612
3.49625
3.4964
3.49649
3.4966
3.49667
3.49675
3.49681
3.49687
3.49691
3.49695
3.49698
3.49701
3.49703
3.49705
3.49706
3.49708
3.49709
3.4971
3.4971
3.49711
3.49712
3.49712
3.49713
3.49713
3.49713
3.49714
3.49714
3.49714
3.49713
3.49713
3.49712
3.49709
3.49704
3.49691
3.49668
3.49611
3.49523
3.49431
3.49268
3.49096
3.48814
3.48693
3.48657
3.48647
3.48645
3.32473
3.34948
3.36616
3.38428
3.39512
3.40699
3.41438
3.4229
3.42826
3.43445
3.43817
3.44228
3.44523
3.44929
3.45217
3.45595
3.45855
3.46189
3.46416
3.46703
3.46898
3.47142
3.47307
3.47514
3.47654
3.47829
3.47949
3.48103
3.48221
3.48397
3.48556
3.48642
3.48727
3.48779
3.48838
3.48875
3.48919
3.48947
3.4898
3.49001
3.49026
3.49042
3.4906
3.49072
3.49086
3.49094
3.49104
3.49109
3.49116
3.4912
3.49123
3.49126
3.49129
3.49131
3.49134
3.49135
3.49137
3.49138
3.4914
3.4914
3.49141
3.49141
3.49141
3.4914
3.49138
3.49135
3.49126
3.49111
3.49075
3.49006
3.48835
3.48568
3.48297
3.47803
3.47292
3.46436
3.46075
3.45969
3.45941
3.45935
3.20678
3.24949
3.27687
3.30745
3.32515
3.34518
3.35725
3.37164
3.38039
3.39086
3.39694
3.40384
3.40867
3.41554
3.42024
3.42663
3.43089
3.43653
3.44024
3.4451
3.44827
3.45241
3.4551
3.4586
3.46088
3.46384
3.46579
3.46841
3.47033
3.47329
3.47597
3.47737
3.4788
3.47964
3.48064
3.48125
3.48199
3.48245
3.48301
3.48336
3.48378
3.48403
3.48435
3.48454
3.48476
3.4849
3.48506
3.48516
3.48527
3.48533
3.48539
3.48543
3.48549
3.48552
3.48557
3.48559
3.48562
3.48564
3.48566
3.48567
3.48569
3.48569
3.48569
3.48568
3.48564
3.48559
3.48544
3.4852
3.48459
3.48348
3.48062
3.47614
3.47172
3.4634
3.45503
3.44038
3.43448
3.43278
3.43235
3.43225
3.08712
3.1501
3.18745
3.23113
3.25509
3.28369
3.30002
3.3206
3.33246
3.34744
3.35566
3.36549
3.37202
3.38187
3.38824
3.3974
3.40316
3.41124
3.41627
3.42323
3.42753
3.43345
3.4371
3.44211
3.44519
3.44943
3.45208
3.45581
3.45841
3.46263
3.46643
3.46832
3.47035
3.4715
3.47292
3.47374
3.47481
3.47543
3.47623
3.4767
3.4773
3.47765
3.4781
3.47835
3.47868
3.47886
3.4791
3.47923
3.47938
3.47946
3.47955
3.47961
3.47969
3.47974
3.4798
3.47983
3.47988
3.4799
3.47993
3.47995
3.47997
3.47997
3.47997
3.47995
3.47991
3.47983
3.47963
3.47931
3.47846
3.47698
3.47296
3.4666
3.46063
3.44877
3.43739
3.41605
3.40804
3.40583
3.40527
3.40515
2.96493
3.05174
3.09776
3.15559
3.18484
3.22268
3.24262
3.26991
3.2844
3.30428
3.31433
3.32727
3.33524
3.34834
3.35613
3.3683
3.37535
3.38608
3.39222
3.40147
3.40672
3.41459
3.41905
3.42569
3.42946
3.43508
3.43832
3.44325
3.44643
3.45198
3.45697
3.45927
3.46195
3.46334
3.46522
3.46623
3.46764
3.4684
3.46947
3.47004
3.47084
3.47126
3.47186
3.47217
3.4726
3.47283
3.47314
3.4733
3.4735
3.4736
3.47372
3.47379
3.4739
3.47395
3.47404
3.47408
3.47414
3.47417
3.47421
3.47423
3.47425
3.47426
3.47426
3.47424
3.47418
3.47408
3.47382
3.47344
3.47236
3.47058
3.46541
3.45705
3.44978
3.43413
3.42015
3.3912
3.38138
3.37881
3.37819
3.37805
2.83925
2.955
3.0076
3.08119
3.11423
3.16238
3.18492
3.21972
3.23611
3.26152
3.27287
3.28925
3.29825
3.31502
3.32384
3.33941
3.34739
3.3611
3.36805
3.37986
3.38581
3.39586
3.40091
3.40939
3.41366
3.42084
3.4245
3.43077
3.43435
3.44136
3.44763
3.4502
3.4536
3.45517
3.45757
3.45871
3.46051
3.46137
3.46273
3.46338
3.4644
3.46488
3.46564
3.46599
3.46654
3.4668
3.46719
3.46737
3.46764
3.46775
3.4679
3.46798
3.46811
3.46818
3.46828
3.46833
3.46841
3.46844
3.46849
3.46852
3.46854
3.46855
3.46855
3.46853
3.46845
3.46835
3.46803
3.46761
3.4663
3.46432
3.45799
3.44746
3.43928
3.41943
3.40352
3.36559
3.35444
3.35173
3.35109
3.35095
2.70893
2.86077
2.91658
3.0084
3.04302
3.1031
3.12672
3.17027
3.18746
3.21932
3.23121
3.25151
3.26094
3.28202
3.29128
3.31081
3.31919
3.33639
3.34369
3.35849
3.36474
3.37733
3.38263
3.39327
3.39774
3.40673
3.41057
3.4184
3.42214
3.43078
3.43843
3.44111
3.44532
3.44697
3.44997
3.45117
3.45342
3.45432
3.45603
3.4567
3.45798
3.45849
3.45944
3.45981
3.4605
3.46077
3.46126
3.46145
3.46178
3.4619
3.46209
3.46217
3.46234
3.46241
3.46254
3.46259
3.46269
3.46272
3.46279
3.46281
3.46285
3.46285
3.46285
3.46283
3.46274
3.46263
3.46225
3.46182
3.46027
3.45825
3.45074
3.43779
3.42924
3.40458
3.38778
3.33892
3.32717
3.32458
3.32399
3.32386
2.57253
2.77037
2.82412
2.9379
2.97077
3.04527
3.06772
3.12186
3.13822
3.17791
3.18921
3.21421
3.22317
3.24949
3.25831
3.28267
3.29064
3.31208
3.31902
3.33747
3.34341
3.35909
3.36414
3.37738
3.38164
3.39284
3.39648
3.4062
3.40973
3.42023
3.42944
3.43196
3.43716
3.43872
3.44245
3.44359
3.44639
3.44725
3.44937
3.45002
3.45161
3.45209
3.45327
3.45362
3.45448
3.45474
3.45535
3.45553
3.45594
3.45606
3.45629
3.45637
3.45658
3.45664
3.45681
3.45686
3.45698
3.45701
3.45709
3.45711
3.45716
3.45716
3.45716
3.45715
3.45704
3.45694
3.45649
3.45608
3.45427
3.45241
3.44372
3.42795
3.41987
3.38943
3.37333
3.31078
3.29954
3.29735
3.29688
3.29677
2.42819
2.68573
2.72923
2.87061
2.89685
2.98952
3.00745
3.07496
3.08804
3.13763
3.14665
3.17755
3.1847
3.21765
3.22471
3.25517
3.26156
3.28834
3.2939
3.31694
3.32169
3.34128
3.34532
3.36186
3.36527
3.37924
3.38216
3.39425
3.39705
3.40974
3.42072
3.42271
3.42915
3.43039
3.43504
3.43595
3.43945
3.44014
3.44278
3.4433
3.44528
3.44567
3.44714
3.44743
3.4485
3.44871
3.44947
3.44961
3.45013
3.45022
3.45051
3.45057
3.45083
3.45089
3.45109
3.45113
3.45128
3.45131
3.45141
3.45142
3.45148
3.45149
3.45149
3.45147
3.45135
3.45127
3.45073
3.45041
3.44828
3.44685
3.43699
3.41782
3.41139
3.37372
3.36075
3.2806
3.27157
3.27007
3.26976
3.2697
2.27353
2.60963
2.63042
2.80793
2.82026
2.93674
2.94518
3.03023
3.0364
3.09897
3.10321
3.14183
3.14519
3.18684
3.19018
3.22864
3.23165
3.26545
3.26807
3.29714
3.29938
3.3241
3.326
3.34687
3.34848
3.3661
3.36747
3.38267
3.38398
3.39933
3.41236
3.41328
3.42135
3.42193
3.42779
3.42822
3.43263
3.43295
3.43629
3.43653
3.43903
3.43922
3.44107
3.44121
3.44256
3.44266
3.44362
3.44369
3.44434
3.44439
3.44475
3.44477
3.44511
3.44513
3.44539
3.44541
3.4456
3.44561
3.44574
3.44574
3.44582
3.44582
3.44582
3.44582
3.44566
3.44563
3.44497
3.44482
3.44227
3.44163
3.43065
3.40719
3.40418
3.35703
3.35087
3.24758
3.2433
3.24276
3.24265
3.24263
2.27353
2.60962
2.63042
2.80792
2.82025
2.93673
2.94517
3.03022
3.03639
3.09896
3.1032
3.14182
3.14518
3.18683
3.19017
3.22862
3.23163
3.26544
3.26806
3.29713
3.29937
3.32408
3.32598
3.34686
3.34846
3.36608
3.36746
3.38266
3.38397
3.39932
3.41235
3.41327
3.42134
3.42193
3.42778
3.42821
3.43262
3.43295
3.43628
3.43653
3.43903
3.43921
3.44107
3.44121
3.44256
3.44266
3.44362
3.44369
3.44434
3.44438
3.44474
3.44477
3.44511
3.44513
3.44539
3.44541
3.4456
3.44561
3.44574
3.44574
3.44582
3.44582
3.44582
3.44582
3.44566
3.44563
3.44497
3.44482
3.44228
3.44163
3.43065
3.40719
3.40419
3.35704
3.35087
3.24758
3.2433
3.24276
3.24265
3.24263
2.42819
2.68572
2.72923
2.87061
2.89684
2.98951
3.00744
3.07495
3.08803
3.13762
3.14664
3.17754
3.18469
3.21764
3.2247
3.25516
3.26154
3.28833
3.29388
3.31692
3.32168
3.34127
3.3453
3.36185
3.36526
3.37923
3.38215
3.39424
3.39704
3.40974
3.42071
3.4227
3.42914
3.43039
3.43504
3.43595
3.43945
3.44013
3.44278
3.4433
3.44528
3.44567
3.44714
3.44742
3.4485
3.4487
3.44947
3.44961
3.45013
3.45022
3.45051
3.45057
3.45083
3.45088
3.45109
3.45113
3.45128
3.4513
3.4514
3.45142
3.45148
3.45149
3.45149
3.45147
3.45135
3.45127
3.45073
3.45041
3.44828
3.44685
3.43699
3.41782
3.4114
3.37372
3.36075
3.28059
3.27156
3.27007
3.26976
3.26969
2.57253
2.77037
2.82411
2.93789
2.97076
3.04526
3.06772
3.12186
3.13822
3.1779
3.1892
3.2142
3.22316
3.24948
3.2583
3.28265
3.29063
3.31206
3.31901
3.33745
3.3434
3.35908
3.36412
3.37737
3.38163
3.39283
3.39647
3.40619
3.40972
3.42022
3.42943
3.43195
3.43715
3.43872
3.44245
3.44359
3.44639
3.44725
3.44937
3.45001
3.4516
3.45209
3.45327
3.45362
3.45448
3.45474
3.45535
3.45553
3.45594
3.45606
3.45629
3.45637
3.45658
3.45664
3.45681
3.45686
3.45697
3.45701
3.45709
3.45711
3.45716
3.45716
3.45716
3.45714
3.45704
3.45694
3.45649
3.45608
3.45427
3.45241
3.44372
3.42796
3.41987
3.38944
3.37333
3.31078
3.29954
3.29735
3.29687
3.29677
2.70893
2.86077
2.91658
3.0084
3.04301
3.10309
3.12672
3.17026
3.18746
3.21931
3.2312
3.2515
3.26094
3.28201
3.29127
3.3108
3.31918
3.33638
3.34368
3.35848
3.36473
3.37732
3.38262
3.39325
3.39773
3.40672
3.41056
3.4184
3.42213
3.43077
3.43842
3.4411
3.44532
3.44696
3.44997
3.45117
3.45342
3.45432
3.45602
3.4567
3.45798
3.45849
3.45943
3.45981
3.4605
3.46077
3.46126
3.46145
3.46178
3.4619
3.46209
3.46217
3.46234
3.46241
3.46254
3.46259
3.46269
3.46272
3.46279
3.46281
3.46285
3.46285
3.46285
3.46283
3.46274
3.46263
3.46225
3.46182
3.46027
3.45825
3.45074
3.43779
3.42925
3.40459
3.38778
3.33892
3.32717
3.32457
3.32399
3.32386
2.83925
2.955
3.00759
3.08119
3.11423
3.16238
3.18492
3.21972
3.23611
3.26152
3.27286
3.28924
3.29824
3.31501
3.32383
3.3394
3.34738
3.36109
3.36805
3.37985
3.3858
3.39585
3.4009
3.40938
3.41365
3.42083
3.42449
3.43077
3.43434
3.44136
3.44762
3.4502
3.45359
3.45517
3.45757
3.45871
3.46051
3.46137
3.46273
3.46337
3.46439
3.46488
3.46563
3.46599
3.46654
3.4668
3.46719
3.46737
3.46764
3.46775
3.4679
3.46798
3.46811
3.46818
3.46828
3.46833
3.46841
3.46844
3.46849
3.46852
3.46854
3.46855
3.46855
3.46853
3.46845
3.46835
3.46803
3.46761
3.4663
3.46432
3.45799
3.44747
3.43928
3.41944
3.40352
3.36559
3.35444
3.35173
3.35109
3.35095
2.96492
3.05174
3.09776
3.15559
3.18483
3.22267
3.24262
3.2699
3.28439
3.30428
3.31432
3.32726
3.33523
3.34834
3.35612
3.36829
3.37534
3.38607
3.39222
3.40146
3.40672
3.41458
3.41904
3.42569
3.42946
3.43508
3.43831
3.44325
3.44642
3.45198
3.45697
3.45926
3.46195
3.46334
3.46522
3.46623
3.46764
3.4684
3.46947
3.47004
3.47084
3.47126
3.47186
3.47217
3.4726
3.47283
3.47314
3.4733
3.4735
3.4736
3.47372
3.47379
3.4739
3.47395
3.47404
3.47408
3.47414
3.47417
3.47421
3.47423
3.47425
3.47426
3.47426
3.47424
3.47418
3.47408
3.47382
3.47344
3.47236
3.47058
3.46541
3.45705
3.44978
3.43413
3.42015
3.3912
3.38138
3.37881
3.37819
3.37805
3.08712
3.1501
3.18744
3.23112
3.25509
3.28368
3.30002
3.3206
3.33246
3.34743
3.35566
3.36549
3.37201
3.38187
3.38824
3.39739
3.40316
3.41124
3.41626
3.42322
3.42753
3.43345
3.4371
3.4421
3.44519
3.44942
3.45207
3.4558
3.45841
3.46263
3.46643
3.46832
3.47035
3.47149
3.47291
3.47374
3.4748
3.47543
3.47623
3.4767
3.4773
3.47765
3.47809
3.47835
3.47868
3.47886
3.4791
3.47922
3.47938
3.47946
3.47955
3.47961
3.47969
3.47974
3.4798
3.47983
3.47988
3.4799
3.47993
3.47995
3.47997
3.47997
3.47997
3.47995
3.47991
3.47983
3.47963
3.47931
3.47846
3.47698
3.47297
3.4666
3.46063
3.44877
3.43739
3.41605
3.40804
3.40583
3.40527
3.40515
3.20678
3.24949
3.27687
3.30744
3.32515
3.34518
3.35725
3.37164
3.38039
3.39085
3.39693
3.40384
3.40866
3.41554
3.42023
3.42663
3.43088
3.43652
3.44023
3.44509
3.44827
3.45241
3.4551
3.4586
3.46087
3.46383
3.46579
3.4684
3.47033
3.47329
3.47597
3.47737
3.4788
3.47964
3.48064
3.48125
3.48199
3.48245
3.48301
3.48335
3.48378
3.48403
3.48435
3.48454
3.48476
3.4849
3.48506
3.48516
3.48527
3.48533
3.48539
3.48543
3.48549
3.48552
3.48557
3.48559
3.48562
3.48564
3.48566
3.48567
3.48569
3.48569
3.48569
3.48568
3.48564
3.48559
3.48544
3.4852
3.48459
3.48348
3.48062
3.47614
3.47172
3.4634
3.45503
3.44038
3.43448
3.43278
3.43235
3.43225
3.32473
3.34948
3.36616
3.38427
3.39512
3.40699
3.41438
3.4229
3.42826
3.43445
3.43817
3.44227
3.44523
3.44929
3.45217
3.45594
3.45855
3.46189
3.46416
3.46703
3.46897
3.47142
3.47307
3.47514
3.47653
3.47829
3.47948
3.48103
3.48221
3.48397
3.48556
3.48642
3.48727
3.48779
3.48837
3.48875
3.48919
3.48947
3.4898
3.49001
3.49026
3.49042
3.4906
3.49072
3.49086
3.49094
3.49103
3.49109
3.49116
3.49119
3.49123
3.49126
3.49129
3.49131
3.49134
3.49135
3.49137
3.49138
3.4914
3.4914
3.49141
3.49141
3.49141
3.4914
3.49138
3.49135
3.49126
3.49111
3.49075
3.49006
3.48835
3.48568
3.48297
3.47803
3.47292
3.46436
3.46075
3.45969
3.45941
3.45935
3.44168
3.44979
3.45539
3.46139
3.46504
3.46898
3.47146
3.47429
3.47609
3.47814
3.47939
3.48075
3.48175
3.48309
3.48406
3.48531
3.48619
3.48729
3.48805
3.48901
3.48966
3.49047
3.49103
3.49171
3.49218
3.49276
3.49316
3.49368
3.49407
3.49466
3.49518
3.49547
3.49575
3.49593
3.49612
3.49625
3.4964
3.49649
3.4966
3.49667
3.49675
3.49681
3.49687
3.49691
3.49695
3.49698
3.49701
3.49703
3.49705
3.49706
3.49708
3.49709
3.4971
3.4971
3.49711
3.49712
3.49712
3.49713
3.49713
3.49713
3.49714
3.49714
3.49714
3.49713
3.49713
3.49712
3.49709
3.49704
3.49691
3.49668
3.49611
3.49523
3.49431
3.49268
3.49096
3.48814
3.48693
3.48657
3.48647
3.48645
3.43565
3.44338
3.44832
3.45295
3.45546
3.45773
3.45898
3.46018
3.46084
3.46148
3.46192
3.46249
3.4629
3.46341
3.46378
3.46424
3.46457
3.465
3.4653
3.46569
3.46596
3.46632
3.46657
3.46689
3.46712
3.46741
3.46761
3.46788
3.46808
3.46839
3.46866
3.46881
3.46895
3.46903
3.46913
3.46918
3.46925
3.46929
3.46933
3.46936
3.46939
3.46941
3.46943
3.46944
3.46945
3.46946
3.46947
3.46948
3.46948
3.46948
3.46949
3.46949
3.46949
3.46949
3.46948
3.46948
3.46948
3.46947
3.46946
3.46944
3.46942
3.4694
3.46936
3.46932
3.46925
3.46918
3.46904
3.46888
3.46856
3.46808
3.46702
3.46554
3.46421
3.46202
3.45991
3.45661
3.4552
3.45478
3.45466
3.45464
3.30664
3.33025
3.34497
3.35895
3.36638
3.37322
3.37695
3.38055
3.38253
3.38446
3.38576
3.38748
3.38868
3.39024
3.39133
3.39274
3.39372
3.395
3.39589
3.39707
3.39789
3.39896
3.3997
3.40068
3.40135
3.40222
3.40283
3.40363
3.40425
3.40517
3.40599
3.40643
3.40685
3.4071
3.40738
3.40755
3.40774
3.40786
3.40799
3.40807
3.40816
3.40822
3.40828
3.40832
3.40836
3.40839
3.40842
3.40843
3.40845
3.40845
3.40846
3.40846
3.40846
3.40846
3.40845
3.40845
3.40843
3.40841
3.40837
3.40833
3.40826
3.4082
3.40808
3.40797
3.40776
3.40754
3.40713
3.40666
3.40568
3.40427
3.40106
3.39662
3.39267
3.38607
3.37979
3.36976
3.36556
3.36431
3.36399
3.36392
3.17669
3.21747
3.24165
3.2652
3.27733
3.28883
3.29492
3.30099
3.30422
3.30745
3.30959
3.3125
3.31446
3.3171
3.31887
3.32125
3.32285
3.32501
3.32648
3.32846
3.3298
3.33161
3.33283
3.33447
3.33557
3.33705
3.33804
3.3394
3.3404
3.34195
3.34334
3.34405
3.34476
3.34517
3.34564
3.34591
3.34623
3.34643
3.34665
3.34678
3.34694
3.34703
3.34714
3.3472
3.34727
3.34731
3.34736
3.34738
3.34741
3.34742
3.34744
3.34744
3.34744
3.34744
3.34743
3.34741
3.34738
3.34734
3.34728
3.34722
3.34711
3.347
3.3468
3.34662
3.34626
3.34591
3.34522
3.34445
3.34282
3.34052
3.33516
3.32768
3.32123
3.3101
3.29981
3.28267
3.27579
3.27381
3.27331
3.27319
3.0451
3.10536
3.13836
3.17191
3.18831
3.20467
3.21289
3.22155
3.2259
3.2305
3.23338
3.23755
3.2402
3.24398
3.24638
3.24979
3.25196
3.25506
3.25704
3.25988
3.26169
3.26428
3.26594
3.26829
3.26978
3.27189
3.27324
3.27517
3.27653
3.27874
3.28071
3.28168
3.28269
3.28324
3.2839
3.28427
3.28473
3.28499
3.28532
3.2855
3.28572
3.28585
3.286
3.28608
3.28618
3.28624
3.28631
3.28634
3.28638
3.2864
3.28641
3.28642
3.28642
3.28641
3.2864
3.28638
3.28633
3.28628
3.28619
3.28611
3.28595
3.28581
3.28553
3.28527
3.28477
3.28429
3.28332
3.28228
3.27998
3.2769
3.26934
3.2587
3.24998
3.23409
3.22011
3.19517
3.18584
3.18326
3.18261
3.18246
2.91111
2.99433
3.03504
3.0793
3.09928
3.12082
3.13084
3.14228
3.14758
3.1536
3.15712
3.16266
3.1659
3.17092
3.17385
3.17838
3.18103
3.18515
3.18757
3.19133
3.19355
3.197
3.19902
3.20214
3.20397
3.20677
3.20841
3.21097
3.21263
3.21554
3.21813
3.2193
3.22063
3.2213
3.22218
3.22263
3.22324
3.22356
3.22399
3.22421
3.22451
3.22466
3.22486
3.22496
3.2251
3.22517
3.22525
3.2253
3.22535
3.22537
3.22539
3.2254
3.2254
3.22539
3.22537
3.22534
3.22528
3.22523
3.22511
3.22501
3.22479
3.22462
3.22425
3.22394
3.22328
3.22269
3.22142
3.22015
3.21718
3.21346
3.20365
3.18964
3.17902
3.15801
3.14085
3.10705
3.09561
3.09262
3.0919
3.09173
2.77377
2.885
2.93157
2.98766
3.01019
3.03744
3.04873
3.06325
3.06922
3.07681
3.08078
3.08786
3.09153
3.09794
3.10126
3.10704
3.11005
3.1153
3.11804
3.12286
3.12537
3.12977
3.13206
3.13605
3.13811
3.14169
3.14355
3.14681
3.14867
3.15235
3.1556
3.15691
3.15859
3.15935
3.16047
3.16099
3.16177
3.16213
3.16267
3.16292
3.1633
3.16347
3.16373
3.16384
3.16402
3.16409
3.1642
3.16425
3.16432
3.16434
3.16437
3.16438
3.16438
3.16437
3.16434
3.16431
3.16423
3.16417
3.16402
3.16391
3.16364
3.16344
3.16297
3.16262
3.16179
3.16113
3.15952
3.1581
3.15441
3.15027
3.13813
3.12045
3.10848
3.08178
3.06226
3.01804
3.00505
3.0019
3.00116
3.00099
2.63199
2.77825
2.82773
2.89737
2.92091
2.95469
2.9665
2.98456
2.9908
3.00016
3.00432
3.01319
3.01705
3.02509
3.02857
3.03582
3.03897
3.04556
3.04844
3.05447
3.0571
3.06262
3.06502
3.07003
3.07219
3.07668
3.07863
3.0827
3.08465
3.08917
3.09314
3.09451
3.0966
3.09739
3.09879
3.09933
3.10031
3.10068
3.10136
3.10163
3.1021
3.10228
3.1026
3.10272
3.10294
3.10302
3.10316
3.10321
3.10329
3.10332
3.10335
3.10336
3.10336
3.10336
3.10332
3.10329
3.10319
3.10312
3.10294
3.10282
3.10248
3.10227
3.10169
3.10132
3.10029
3.0996
3.09761
3.09614
3.09166
3.08739
3.07283
3.05103
3.03852
3.00526
2.98466
2.92778
2.9141
2.91108
2.9104
2.91025
2.48434
2.67537
2.72307
2.80891
2.83121
2.87282
2.88401
2.90634
2.91225
2.92372
2.92766
2.93873
2.9424
2.95242
2.95573
2.96475
2.96776
2.97596
2.9787
2.98622
2.98872
2.9956
2.99789
3.00412
3.00618
3.01177
3.01363
3.01867
3.02051
3.02602
3.03079
3.03208
3.03466
3.03541
3.03714
3.03766
3.03887
3.03923
3.04008
3.04033
3.04091
3.04108
3.04148
3.0416
3.04187
3.04195
3.04212
3.04217
3.04227
3.04229
3.04233
3.04234
3.04235
3.04234
3.04229
3.04227
3.04214
3.04208
3.04185
3.04174
3.04132
3.04112
3.0404
3.04005
3.03877
3.03812
3.03569
3.03431
3.0289
3.02493
3.00782
2.98124
2.9694
2.92824
2.90851
2.83579
2.82272
2.82018
2.81962
2.8195
2.32905
2.57822
2.61688
2.72299
2.74074
2.79216
2.80107
2.82877
2.83348
2.84758
2.85072
2.86456
2.8675
2.88001
2.88266
2.89393
2.89633
2.90658
2.90877
2.91816
2.92017
2.92876
2.93059
2.93838
2.94003
2.94701
2.94849
2.95477
2.95624
2.9629
2.96859
2.9696
2.97279
2.97339
2.97555
2.97596
2.97747
2.97776
2.97881
2.97901
2.97974
2.97988
2.98038
2.98047
2.98081
2.98087
2.98109
2.98112
2.98125
2.98127
2.98132
2.98133
2.98134
2.98133
2.98127
2.98125
2.9811
2.98105
2.98076
2.98067
2.98015
2.98
2.9791
2.97882
2.97724
2.97672
2.97372
2.97263
2.96609
2.963
2.9432
2.91087
2.90146
2.85037
2.83448
2.74142
2.73093
2.72919
2.72883
2.72875
2.16379
2.48948
2.50799
2.6406
2.64892
2.7132
2.71738
2.75213
2.75433
2.77188
2.77335
2.79082
2.79221
2.808
2.80925
2.82346
2.8246
2.83753
2.83856
2.8504
2.85135
2.86219
2.86305
2.87289
2.87367
2.88247
2.88317
2.89107
2.89175
2.89982
2.90656
2.90703
2.91102
2.9113
2.91402
2.91422
2.91612
2.91625
2.91759
2.91768
2.9186
2.91867
2.9193
2.91934
2.91976
2.91979
2.92006
2.92008
2.92024
2.92025
2.92031
2.92031
2.92033
2.92032
2.92025
2.92024
2.92005
2.92003
2.91966
2.91962
2.91898
2.9189
2.91778
2.91765
2.91566
2.91542
2.91169
2.91118
2.90314
2.90174
2.87907
2.83958
2.83518
2.77109
2.76354
2.64375
2.63878
2.63815
2.63803
2.638
)
;

boundaryField
{
    F1_1
    {
        type            fixedValue;
        value           nonuniform List<scalar> 
80
(
2.07471
2.45158
2.45158
2.6027
2.6027
2.67676
2.67676
2.71864
2.71864
2.74453
2.74453
2.75914
2.75914
2.77498
2.77498
2.79014
2.79014
2.80431
2.80431
2.81748
2.81748
2.82963
2.82963
2.84071
2.84071
2.85065
2.85065
2.85958
2.85958
2.86846
2.87579
2.87579
2.8803
2.8803
2.88337
2.88337
2.88553
2.88553
2.88704
2.88704
2.88808
2.88808
2.88879
2.88879
2.88927
2.88927
2.88958
2.88958
2.88976
2.88976
2.88983
2.88983
2.88984
2.88984
2.88976
2.88976
2.88955
2.88955
2.88913
2.88913
2.8884
2.8884
2.88712
2.88712
2.88487
2.88487
2.88063
2.88063
2.87157
2.87157
2.84739
2.8033
2.8033
2.7304
2.7304
2.59273
2.59273
2.59273
2.59273
2.59273
)
;
    }
    F1_2
    {
        type            fixedValue;
        value           nonuniform List<scalar> 
80
(
2.18922
2.57769
2.57769
2.77973
2.77973
2.9124
2.9124
3.00935
3.00935
3.08074
3.08074
3.12462
3.12462
3.17217
3.17217
3.21605
3.21605
3.25462
3.25462
3.28778
3.28778
3.31597
3.31597
3.33979
3.33979
3.35989
3.35989
3.37721
3.37721
3.39423
3.4085
3.4085
3.41769
3.41769
3.42437
3.42437
3.42941
3.42941
3.43322
3.43322
3.43608
3.43608
3.4382
3.4382
3.43975
3.43975
3.44085
3.44085
3.4416
3.4416
3.44201
3.44201
3.44239
3.44239
3.44269
3.44269
3.4429
3.4429
3.44305
3.44305
3.44313
3.44313
3.44314
3.44314
3.44296
3.44296
3.44223
3.44223
3.43938
3.43938
3.42788
3.40162
3.40162
3.34803
3.34803
3.22928
3.22928
3.22928
3.22928
3.22928
)
;
    }
    F1_3
    {
        type            fixedValue;
        value           nonuniform List<scalar> 
80
(
2.18922
2.57768
2.57768
2.77973
2.77973
2.91239
2.91239
3.00934
3.00934
3.08073
3.08073
3.1246
3.1246
3.17215
3.17215
3.21604
3.21604
3.2546
3.2546
3.28776
3.28776
3.31596
3.31596
3.33977
3.33977
3.35987
3.35987
3.3772
3.3772
3.39422
3.4085
3.4085
3.41768
3.41768
3.42436
3.42436
3.4294
3.4294
3.43321
3.43321
3.43608
3.43608
3.4382
3.4382
3.43975
3.43975
3.44085
3.44085
3.4416
3.4416
3.44201
3.44201
3.44239
3.44239
3.44269
3.44269
3.4429
3.4429
3.44305
3.44305
3.44313
3.44313
3.44314
3.44314
3.44296
3.44296
3.44223
3.44223
3.43938
3.43938
3.42788
3.40162
3.40162
3.34804
3.34804
3.22928
3.22928
3.22928
3.22928
3.22928
)
;
    }
    F1_4
    {
        type            fixedValue;
        value           nonuniform List<scalar> 
80
(
2.07454
2.4512
2.4512
2.60185
2.60185
2.67488
2.67488
2.71443
2.71443
2.73433
2.73433
2.75427
2.75427
2.77227
2.77227
2.78849
2.78849
2.80323
2.80323
2.81674
2.81674
2.8291
2.8291
2.84031
2.84031
2.85035
2.85035
2.85935
2.85935
2.8683
2.87568
2.87568
2.88022
2.88022
2.88332
2.88332
2.8855
2.8855
2.88702
2.88702
2.88807
2.88807
2.88879
2.88879
2.88927
2.88927
2.88958
2.88958
2.88976
2.88976
2.88984
2.88984
2.88985
2.88985
2.88977
2.88977
2.88955
2.88955
2.88914
2.88914
2.8884
2.8884
2.88713
2.88713
2.88487
2.88487
2.88063
2.88063
2.87156
2.87156
2.84737
2.80326
2.80326
2.73035
2.73035
2.59266
2.59266
2.59266
2.59266
2.59266
)
;
    }
    F2_1
    {
        type            fixedValue;
        value           uniform 3.5;
    }
    F2_2
    {
        type            fixedValue;
        value           uniform 3.5;
    }
    F2_3
    {
        type            fixedValue;
        value           uniform 3.5;
    }
    F2_4
    {
        type            fixedValue;
        value           uniform 3.5;
    }
    defaultFaces
    {
        type            empty;
    }
}


// ************************************************************************* //
