/*--------------------------------*- C++ -*----------------------------------*\
| =========                 |                                                 |
| \\      /  F ield         | OpenFOAM: The Open Source CFD Toolbox           |
|  \\    /   O peration     | Version:  5.x                                   |
|   \\  /    A nd           | Web:      www.OpenFOAM.org                      |
|    \\/     M anipulation  |                                                 |
\*---------------------------------------------------------------------------*/
FoamFile
{
    version     2.0;
    format      ascii;
    class       volScalarField;
    location    "19.6";
    object      gradTx;
}
// * * * * * * * * * * * * * * * * * * * * * * * * * * * * * * * * * * * * * //

dimensions      [0 -1 0 1 0 0 0];

internalField   nonuniform List<scalar> 
2048
(
0.00630495
0.0187342
0.0306383
0.0417196
0.051749
0.0605774
0.0681342
0.0744173
0.0794763
0.0833942
0.0862707
0.0882102
0.0893145
0.0896806
0.0894009
0.0885645
0.0872582
0.0855657
0.0835647
0.0813236
0.0788983
0.0763295
0.073642
0.0708459
0.067939
0.0649092
0.061737
0.0583968
0.0548577
0.0510837
0.0470347
0.0426669
0.0379351
0.0327949
0.0272043
0.0211256
0.0145268
0.00738159
-0.000329582
-0.00861837
-0.0174863
-0.0269211
-0.0368913
-0.0473396
-0.0581743
-0.0692608
-0.0804119
-0.0913804
-0.101855
-0.111463
-0.119782
-0.126359
-0.130753
-0.13257
-0.131512
-0.127416
-0.120277
-0.110247
-0.0976155
-0.082765
-0.0661296
-0.0481503
-0.0292469
-0.0098074
0.0187884
0.0558175
0.0912555
0.124204
0.153977
0.180135
0.202476
0.22101
0.235897
0.247397
0.255814
0.261464
0.264648
0.265654
0.264753
0.262209
0.258278
0.25321
0.247238
0.240567
0.233363
0.225748
0.217795
0.209531
0.200947
0.192007
0.18265
0.172801
0.162368
0.151245
0.139311
0.126436
0.112484
0.097323
0.0808267
0.0628833
0.0433971
0.0222901
-0.000496534
-0.0249991
-0.0512253
-0.079143
-0.108665
-0.139629
-0.171771
-0.2047
-0.23787
-0.270553
-0.301828
-0.330582
-0.355546
-0.375358
-0.388672
-0.394289
-0.391296
-0.379192
-0.357962
-0.328074
-0.290412
-0.246152
-0.196608
-0.143109
-0.0869052
-0.0291383
0.03114
0.0924824
0.151105
0.205483
0.25447
0.297349
0.333823
0.363949
0.388039
0.406558
0.420037
0.429004
0.433961
0.435373
0.43368
0.429307
0.422679
0.414207
0.404282
0.393248
0.381384
0.368889
0.355878
0.342392
0.328409
0.313861
0.298647
0.282643
0.265699
0.247638
0.228263
0.207355
0.184688
0.160039
0.133199
0.103982
0.0722309
0.0378171
0.000641808
-0.0393598
-0.0822092
-0.127867
-0.176209
-0.22699
-0.279803
-0.334034
-0.38881
-0.442955
-0.494962
-0.542985
-0.584895
-0.618382
-0.641134
-0.651074
-0.646609
-0.626861
-0.5918
-0.542253
-0.479769
-0.406389
-0.324373
-0.235961
-0.143224
-0.0480092
0.0435996
0.129425
0.211272
0.286936
0.354792
0.413867
0.463817
0.504812
0.53738
0.562246
0.580197
0.591991
0.598322
0.599818
0.597071
0.590659
0.581164
0.569168
0.555224
0.539825
0.523367
0.506125
0.488252
0.469787
0.450687
0.430845
0.410119
0.388333
0.365282
0.340726
0.314385
0.285952
0.255106
0.221528
0.184924
0.145036
0.101645
0.0545751
0.00368535
-0.0511225
-0.109895
-0.172605
-0.239113
-0.309125
-0.38213
-0.457334
-0.533584
-0.609297
-0.682403
-0.750328
-0.81004
-0.858201
-0.891417
-0.906592
-0.901328
-0.87429
-0.825432
-0.756012
-0.66838
-0.565592
-0.450973
-0.327745
-0.198793
-0.0666108
0.0563829
0.167267
0.272719
0.369767
0.45628
0.531061
0.59379
0.644844
0.685061
0.715499
0.737246
0.751305
0.758551
0.759756
0.755635
0.746903
0.7343
0.718583
0.700485
0.680663
0.659637
0.63776
0.61521
0.592013
0.568085
0.543273
0.517385
0.4902
0.461463
0.43087
0.398063
0.362639
0.324171
0.282241
0.236464
0.18651
0.132101
0.0730162
0.00907407
-0.059863
-0.13388
-0.212982
-0.297049
-0.385775
-0.478591
-0.57458
-0.672366
-0.770013
-0.864925
-0.953796
-1.03265
-1.09699
-1.14216
-1.16386
-1.15868
-1.1247
-1.06185
-0.971942
-0.858329
-0.725315
-0.577482
-0.419134
-0.253975
-0.0850562
0.0696947
0.206597
0.336338
0.455068
0.560114
0.6501
0.724831
0.78502
0.831939
0.867075
0.891874
0.907592
0.915268
0.915778
0.90993
0.898553
0.88254
0.86284
0.840391
0.816037
0.790439
0.764026
0.736989
0.709316
0.680861
0.651406
0.62071
0.58851
0.554511
0.518353
0.479596
0.437733
0.392219
0.342524
0.288167
0.228745
0.163931
0.0934601
0.0171162
-0.0652828
-0.153875
-0.248722
-0.349757
-0.456706
-0.568999
-0.685658
-0.805158
-0.925281
-1.04296
-1.15416
-1.25391
-1.33641
-1.39553
-1.42543
-1.42143
-1.38085
-1.30358
-1.19214
-1.05119
-0.886623
-0.704541
-0.510466
-0.308917
-0.103385
0.0837393
0.247995
0.402999
0.543875
0.667373
0.772001
0.857831
0.926084
0.978624
1.01749
1.04454
1.0613
1.06892
1.06834
1.0604
1.04602
1.02625
1.00224
0.975186
0.946147
0.915951
0.885101
0.853779
0.821903
0.789232
0.755468
0.72031
0.683471
0.644631
0.603384
0.559207
0.511472
0.459502
0.402636
0.340289
0.271986
0.197359
0.116116
0.0280095
-0.0671899
-0.169687
-0.279627
-0.397031
-0.521708
-0.653145
-0.790375
-0.931814
-1.07505
-1.21663
-1.35183
-1.47461
-1.57773
-1.65326
-1.69348
-1.69204
-1.64521
-1.55281
-1.41831
-1.24811
-1.05014
-0.832385
-0.601756
-0.363564
-0.121568
0.0987282
0.292056
0.473577
0.637203
0.779068
0.897663
0.993516
1.06858
1.12551
1.16704
1.19551
1.2127
1.21982
1.21779
1.20741
1.18965
1.16572
1.13702
1.10504
1.07113
1.03629
1.00111
0.965729
0.929949
0.893394
0.855652
0.816368
0.775248
0.731975
0.686114
0.637056
0.584036
0.526211
0.46277
0.393011
0.316395
0.232526
0.141102
0.0418567
-0.0654841
-0.181207
-0.305569
-0.43872
-0.580598
-0.730807
-0.888477
-1.05206
-1.21908
-1.38578
-1.54686
-1.69517
-1.82184
-1.91681
-1.96996
-1.97275
-1.92005
-1.81151
-1.65186
-1.44985
-1.21607
-0.960865
-0.692711
-0.417661
-0.139505
0.114887
0.339411
0.548982
0.736074
0.896169
1.02789
1.13246
1.21286
1.27278
1.31582
1.34488
1.36192
1.36817
1.36438
1.35125
1.32973
1.30119
1.26736
1.23008
1.19105
1.15152
1.11213
1.07296
1.03361
0.993524
0.952136
0.909038
0.863963
0.816642
0.76664
0.713254
0.65555
0.592487
0.523067
0.446461
0.36207
0.269496
0.168454
0.0586789
-0.0601456
-0.188402
-0.32649
-0.474726
-0.633227
-0.801774
-0.979672
-1.16553
-1.35694
-1.55003
-1.739
-1.91565
-2.06929
-2.18732
-2.25662
-2.26574
-2.20757
-2.08148
-1.89394
-1.65681
-1.38423
-1.08945
-0.782737
-0.470766
-0.157037
0.132462
0.390743
0.630181
0.841539
1.01963
1.16339
1.27511
1.35911
1.42044
1.46375
1.49256
1.50899
1.5141
1.50835
1.49219
1.46652
1.43288
1.39339
1.35036
1.30593
1.26164
1.21822
1.17557
1.13304
1.0898
1.04509
0.998455
0.949705
0.898692
0.845013
0.787865
0.726104
0.658436
0.583634
0.500722
0.409057
0.308273
0.198142
0.0784255
-0.051226
-0.191306
-0.34239
-0.505007
-0.67949
-0.865854
-1.06366
-1.27179
-1.48809
-1.70877
-1.92773
-2.13579
-2.32032
-2.46572
-2.55508
-2.57313
-2.50998
-2.36451
-2.14548
-1.86905
-1.55402
-1.21724
-0.870954
-0.522258
-0.173941
0.151726
0.446797
0.718214
0.954696
1.15038
1.30482
1.42177
1.50735
1.5683
1.61058
1.63836
1.65382
1.65766
1.64987
1.63049
1.60027
1.56098
1.51521
1.4659
1.41573
1.36663
1.31938
1.27364
1.22839
1.18241
1.13469
1.08474
1.03254
0.978139
0.921241
0.860919
0.795757
0.724139
0.644552
0.555847
0.457361
0.348813
0.230077
0.100983
-0.0388395
-0.190013
-0.35333
-0.529574
-0.719337
-0.922901
-1.14015
-1.37039
-1.61188
-1.8612
-2.11223
-2.355
-2.57484
-2.75266
-2.86686
-2.89711
-2.8296
-2.66237
-2.40724
-2.08629
-1.72442
-1.34295
-0.956204
-0.571359
-0.189945
0.17298
0.508399
0.814211
1.0767
1.28935
1.45275
1.57264
1.65742
1.71601
1.7559
1.78195
1.79624
1.79887
1.78912
1.76641
1.73124
1.68566
1.63291
1.57667
1.52037
1.46641
1.4156
1.36726
1.31982
1.27156
1.22113
1.16802
1.11248
1.05496
0.995293
0.932414
0.864547
0.789664
0.70589
0.611869
0.506956
0.391024
0.264119
0.126182
-0.0231558
-0.184669
-0.35942
-0.548496
-0.752772
-0.972823
-1.20891
-1.46087
-1.72761
-2.00639
-2.29146
-2.57238
-2.83245
-3.04857
-3.1934
-3.23997
-3.16898
-2.97691
-2.67983
-2.30785
-1.89401
-1.46495
-1.03708
-0.617151
-0.204733
0.196565
0.576463
0.919407
1.20879
1.43748
1.60766
1.72775
1.80904
1.86304
1.89913
1.9229
1.93604
1.93774
1.92628
1.90023
1.8597
1.80711
1.74653
1.68262
1.61972
1.56084
1.50684
1.45651
1.40751
1.35747
1.30462
1.24841
1.18955
1.12908
1.0671
1.00233
0.932498
0.855074
0.767714
0.668809
0.55779
0.434784
0.300083
0.153805
-0.00439261
-0.175465
-0.360813
-0.561888
-0.779867
-1.0156
-1.26976
-1.54281
-1.83456
-2.14328
-2.46414
-2.7867
-3.09237
-3.3536
-3.53603
-3.6042
-3.53095
-3.31019
-2.96365
-2.53268
-2.06089
-1.58123
-1.11197
-0.658616
-0.217962
0.22286
0.652001
1.03515
1.35226
1.59569
1.76995
1.88706
1.96175
2.00871
2.03959
2.06068
2.07296
2.07425
2.06157
2.0323
1.98596
1.9255
1.85613
1.78364
1.71358
1.64977
1.59306
1.54147
1.49166
1.44042
1.38541
1.32603
1.2637
1.20038
1.13656
1.07061
0.999626
0.920432
0.830098
0.726685
0.609791
0.479938
0.337748
0.183592
0.0171911
-0.162627
-0.357696
-0.569914
-0.800756
-1.0513
-1.3226
-1.61589
-1.93204
-2.27074
-2.62878
-2.99642
-3.3535
-3.66756
-3.896
-3.99248
-3.91882
-3.66445
-3.25894
-2.75922
-2.22269
-1.6895
-1.17909
-0.694676
-0.229273
0.252292
0.736128
1.16291
1.5085
1.76486
1.93993
2.05037
2.11495
2.15216
2.17643
2.19472
2.20673
2.20841
2.19523
2.163
2.11035
2.04103
1.96174
1.87962
1.80171
1.73296
1.67419
1.62226
1.57249
1.52071
1.46381
1.40101
1.33486
1.2687
1.20353
1.13721
1.06594
0.985812
0.893137
0.785516
0.662868
0.526307
0.376862
0.215241
0.041301
-0.146407
-0.350281
-0.572772
-0.815637
-1.08006
-1.36745
-1.67985
-2.01941
-2.38764
-2.78373
-3.1997
-3.61434
-3.98992
-4.27436
-4.40779
-4.33645
-4.0423
-3.56568
-2.98537
-2.37655
-1.78713
-1.23655
-0.72424
-0.238318
0.285343
0.830068
1.30428
1.67902
1.94585
2.11776
2.21739
2.26792
2.29239
2.3087
2.32439
2.3371
2.34022
2.32755
2.29282
2.23323
2.15386
2.0634
1.97041
1.88383
1.81017
1.75014
1.69901
1.65026
1.59871
1.54016
1.47351
1.40292
1.3338
1.26784
1.20206
1.13145
1.0513
0.956953
0.845328
0.716915
0.573695
0.417143
0.248421
0.067612
-0.127072
-0.338788
-0.570688
-0.824767
-1.10214
-1.40442
-1.73459
-2.09619
-2.49283
-2.92721
-3.39441
-3.87301
-4.31975
-4.67187
-4.85335
-4.78851
-4.44678
-3.88352
-3.20837
-2.5191
-1.87131
-1.28246
-0.746271
-0.24477
0.322562
0.935147
1.46098
1.86541
2.13945
2.30345
2.38771
2.41984
2.42826
2.43533
2.44902
2.46383
2.46968
2.45886
2.42234
2.35503
2.26415
2.16116
2.05584
1.95956
1.88104
1.82085
1.77189
1.72524
1.67481
1.61494
1.54369
1.46768
1.39537
1.32929
1.26513
1.19615
1.11699
1.02171
0.906154
0.771801
0.621893
0.458296
0.282762
0.0957729
-0.1049
-0.323433
-0.563898
-0.828461
-1.11787
-1.43373
-1.78015
-2.16204
-2.58525
-3.05731
-3.57814
-4.12725
-4.65561
-5.0889
-5.33269
-5.28067
-4.88147
-4.21166
-3.42468
-2.64643
-1.93906
-1.31496
-0.759837
-0.248353
0.364588
1.05279
1.63483
2.06944
2.34634
2.49678
2.56089
2.56981
2.55846
2.5551
2.56799
2.5868
2.59676
2.5895
2.55228
2.47615
2.37201
2.2551
2.13575
2.02847
1.94519
1.88625
1.84113
1.79768
1.74944
1.68869
1.61173
1.52888
1.45301
1.38768
1.32639
1.26004
1.183
1.08765
0.968035
0.827362
0.670691
0.500009
0.317868
0.125408
-0.0801666
-0.304413
-0.55264
-0.82708
-1.12768
-1.45573
-1.81669
-2.21684
-2.66398
-3.17207
-3.74825
-4.37448
-4.99557
-5.52516
-5.84957
-5.81997
-5.35065
-4.54861
-3.6298
-2.75419
-1.98739
-1.33241
-0.764181
-0.248857
0.412185
1.18447
1.82773
2.29307
2.56705
2.69727
2.73648
2.71688
2.68151
2.6667
2.68068
2.70599
2.72141
2.71985
2.68358
2.59705
2.47746
2.34538
2.20998
2.09003
2.00213
1.94629
1.90703
1.86783
1.82307
1.76215
1.67787
1.58614
1.50623
1.44278
1.38588
1.32307
1.24942
1.1551
1.03102
0.883386
0.719888
0.54197
0.353304
0.156118
-0.0531384
-0.281887
-0.537133
-0.821028
-1.13209
-1.47081
-1.84456
-2.26073
-2.72825
-3.26951
-3.90186
-4.61182
-5.33722
-5.97944
-6.40786
-6.41519
-5.85949
-4.89195
-3.81813
-2.83755
-2.01338
-1.3334
-0.758769
-0.246155
0.466313
1.33174
2.04162
2.53856
2.80188
2.90403
2.91411
2.86012
2.79578
2.76866
2.78656
2.82161
2.84341
2.85024
2.81744
2.71813
2.58037
2.43225
2.27841
2.14359
2.05129
2.00096
1.97004
1.93583
1.89615
1.83626
1.74235
1.63894
1.55441
1.49439
1.44376
1.38514
1.31636
1.22451
1.09514
0.939583
0.769319
0.583874
0.388599
0.187482
-0.0240695
-0.255966
-0.517568
-0.810749
-1.13174
-1.47944
-1.86418
-2.29423
-2.77751
-3.34762
-4.03592
-4.83623
-5.67768
-6.44921
-7.01135
-7.07748
-6.41417
-5.23784
-3.98281
-2.89141
-2.0144
-1.31693
-0.743339
-0.240214
0.528234
1.49609
2.27835
2.80864
3.05081
3.11568
3.09367
2.99867
2.89943
2.85935
2.88523
2.93417
2.96234
2.98092
2.9555
2.83972
2.68035
2.5162
2.34098
2.18837
2.09195
2.0503
2.0308
2.00168
1.9691
1.91228
1.80544
1.68657
1.59677
1.54233
1.5003
1.44603
1.38386
1.29656
1.16041
0.995546
0.818883
0.625432
0.423234
0.219051
0.00680417
-0.226687
-0.494083
-0.796714
-1.12736
-1.48209
-1.8761
-2.3182
-2.81148
-3.40444
-4.14719
-5.0446
-6.01382
-6.9301
-7.66346
-7.8211
-7.02216
-5.58051
-4.11555
-2.91049
-1.98822
-1.28244
-0.717929
-0.231101
0.5997
1.67891
2.53957
3.10674
3.31338
3.33008
3.27546
3.13174
2.99037
2.93695
2.97639
3.04468
3.0774
3.11196
3.10003
2.96202
2.77661
2.598
2.39768
2.22343
2.12325
2.09442
2.09023
2.06512
2.04221
1.99188
1.86744
1.7281
1.63238
1.58646
1.55607
1.50534
1.45189
1.3722
1.2268
1.05069
0.8686
0.666382
0.45663
0.250355
0.0392646
-0.194001
-0.466753
-0.779419
-1.11985
-1.4792
-1.88085
-2.33405
-2.83019
-3.43806
-4.2322
-5.23393
-6.34258
-7.41524
-8.36665
-8.66446
-7.69243
-5.91142
-4.20654
-2.88964
-1.93325
-1.22993
-0.682888
-0.218981
0.683237
1.88136
2.82647
3.43739
3.58847
3.54413
3.46057
3.2587
3.0662
2.99942
3.05991
3.15485
3.18719
3.24316
3.25417
3.08497
2.86781
2.67896
2.44861
2.24759
2.14417
2.1335
2.14971
2.12552
2.11558
2.07738
1.92861
1.7623
1.66014
1.6267
1.61197
1.56241
1.52025
1.45285
1.29416
1.10418
0.918688
0.706495
0.488126
0.280899
0.0731088
-0.157753
-0.435572
-0.75937
-1.11027
-1.47108
-1.87887
-2.34378
-2.83396
-3.44667
-4.28725
-5.40146
-6.66151
-7.8945
-9.12174
-9.63151
-8.43568
-6.21822
-4.2445
-2.82411
-1.84869
-1.15996
-0.638869
-0.20411
0.782585
2.10422
3.13947
3.80675
3.87413
3.75335
3.65126
3.37902
3.12419
3.04444
3.1358
3.26745
3.28945
3.37382
3.42241
3.20808
2.95174
2.76119
2.49392
2.25941
2.15344
2.16776
2.21125
2.18163
2.18902
2.17192
1.98913
1.78757
1.67874
1.66301
1.66945
1.61613
1.58855
1.54053
1.36219
1.15481
0.969672
0.745568
0.516957
0.310173
0.10814
-0.11766
-0.400439
-0.737064
-1.09997
-1.45788
-1.87038
-2.35016
-2.82339
-3.42855
-4.30825
-5.5448
-6.96963
-8.35346
-9.92675
-10.7535
-9.26454
-6.48343
-4.21683
-2.71
-1.73468
-1.07366
-0.586792
-0.186821
0.903338
2.34762
3.47768
4.22339
4.16718
3.95144
3.85161
3.49223
3.16113
3.0694
3.20411
3.38671
3.38064
3.50254
3.61109
3.33025
3.02505
2.84793
2.53378
2.25712
2.14959
2.19744
2.27783
2.23137
2.26185
2.27984
2.04899
1.80194
1.68668
1.69539
1.73074
1.66477
1.65602
1.63815
1.43032
1.20087
1.02255
0.783408
0.542222
0.337667
0.144152
-0.0732972
-0.361149
-0.712956
-1.09064
-1.43949
-1.85514
-2.35695
-2.79933
-3.38219
-4.2906
-5.66197
-7.2686
-8.77232
-10.7755
-12.0712
-10.1938
-6.68263
-4.11003
-2.54469
-1.59242
-0.97273
-0.527805
-0.167503
1.05385
2.61074
3.83827
4.69934
4.46285
4.12966
4.06829
3.59776
3.1733
3.07138
3.2648
3.519
3.45547
3.62693
3.82917
3.44944
3.08276
2.94412
2.56828
2.23859
2.13088
2.22268
2.35376
2.2715
2.33269
2.40712
2.10781
1.80293
1.68228
1.72378
1.79914
1.70576
1.72143
1.74987
1.49755
1.23997
1.07898
0.81979
0.562841
0.362892
0.180902
-0.0240671
-0.317394
-0.687403
-1.08451
-1.41545
-1.83223
-2.36919
-2.76274
-3.30639
-4.22896
-5.75127
-7.56445
-9.12458
-11.6555
-13.6381
-11.2403
-6.78238
-3.91051
-2.32733
-1.42422
-0.859313
-0.463216
-0.146585
1.24647
2.89148
4.21548
5.25151
4.75413
4.27605
4.31166
3.69461
3.15643
3.04715
3.31746
3.67359
3.50625
3.74316
4.08917
3.56226
3.11779
3.05707
2.59719
2.20123
2.09535
2.24334
2.44523
2.29718
2.39928
2.56188
2.16455
1.78759
1.66372
1.74792
1.87947
1.7353
1.78285
1.88153
1.56231
1.26882
1.14163
0.85438
0.57752
0.38543
0.218079
0.030823
-0.268774
-0.660574
-1.0845
-1.38487
-1.79969
-2.39358
-2.71449
-3.20041
-4.11699
-5.81094
-7.86973
-9.37559
-12.5456
-15.5237
-12.4233
-6.73754
-3.60579
-2.05935
-1.23349
-0.735931
-0.394425
-0.124508
1.49923
3.1859
4.59949
5.90351
5.03112
4.37452
4.59716
3.78084
3.10563
2.99329
3.36089
3.86375
3.52213
3.84548
4.40838
3.66349
3.12026
3.19736
2.61967
2.14207
2.04085
2.25873
2.56098
2.30151
2.45807
2.75516
2.21718
1.75245
1.62915
1.76718
1.97856
1.74806
1.83746
2.04123
1.62216
1.28295
1.21447
0.88661
0.584703
0.404986
0.255241
0.0923977
-0.214824
-0.632324
-1.09448
-1.34638
-1.7541
-2.43896
-2.65499
-3.06424
-3.94707
-5.83851
-8.20637
-9.48108
-13.4122
-17.8183
-13.7635
-6.48817
-3.18622
-1.74482
-1.02454
-0.605329
-0.322854
-0.101706
1.83791
3.48763
4.97479
6.6879
5.28004
4.40367
4.94699
3.85287
3.01543
2.90631
3.39241
4.10801
3.48815
3.92562
4.81032
3.74538
3.07676
3.37993
2.63378
2.05767
1.96514
2.26721
2.71317
2.27488
2.50391
3.00175
2.26211
1.69362
1.57674
1.78016
2.10598
1.73659
1.88124
2.24
1.67349
1.27644
1.3033
0.915501
0.582536
0.421478
0.29175
0.161958
-0.155078
-0.602012
-1.11957
-1.29806
-1.69001
-2.51701
-2.58382
-2.89901
-3.71002
-5.82965
-8.6091
-9.38557
-14.2057
-20.6381
-15.2833
-5.95594
-2.64744
-1.39075
-0.802484
-0.470329
-0.24988
-0.0785895
2.29877
3.78716
5.31841
7.64899
5.48214
4.33556
5.39222
3.90439
2.87994
2.78289
3.40703
4.43188
3.38418
3.97203
5.32651
3.7969
2.96946
3.62545
2.63578
1.94428
1.86606
2.26557
2.91846
2.20428
2.52958
3.32127
2.29356
1.60683
1.50494
1.78427
2.2748
1.69086
1.90863
2.49265
1.71113
1.24154
1.41625
0.939404
0.568836
0.435138
0.326673
0.241144
-0.0891601
-0.568257
-1.1665
-1.23742
-1.59932
-2.64304
-2.49895
-2.70748
-3.39487
-5.77658
-9.12964
-9.02086
-14.8556
-24.1315
-17.0051
-5.04008
-1.99351
-1.00696
-0.57282
-0.33368
-0.176774
-0.0555309
2.93168
4.07095
5.59759
8.84609
5.61233
4.13423
5.97528
3.92502
2.69304
2.62029
3.39624
4.86971
3.18363
3.96901
5.99843
3.80278
2.77516
3.96198
2.61928
1.79795
1.74177
2.24832
3.19925
2.07248
2.52532
3.73935
2.30261
1.48771
1.41268
1.77511
2.50262
1.59753
1.9122
2.8187
1.72785
1.16833
1.56452
0.955666
0.541082
0.44665
0.358662
0.33201
-0.0169197
-0.52862
-1.244
-1.16147
-1.47043
-2.83698
-2.39599
-2.49473
-2.98875
-5.66578
-9.84143
-8.30465
-15.2644
-28.4861
-18.9507
-3.61291
-1.24082
-0.605811
-0.341145
-0.197924
-0.10466
-0.0328522
3.80398
4.32042
5.76723
10.3573
5.63757
3.75405
6.75284
3.8985
2.44879
2.41681
3.34649
5.46701
2.85214
3.89581
6.87984
3.74237
2.46417
4.4268
2.57405
1.61479
1.59109
2.20667
3.58515
1.85709
2.47825
4.28909
2.27621
1.332
1.29968
1.74566
2.81271
1.43929
1.88217
3.24344
1.71382
1.04427
1.7631
0.960195
0.496426
0.457307
0.385799
0.43714
0.0613731
-0.479212
-1.36323
-1.06671
-1.28739
-3.12461
-2.267
-2.26893
-2.47699
-5.47511
-10.845
-7.13943
-15.3012
-33.9369
-21.1393
-1.51515
-0.422852
-0.201266
-0.112737
-0.0652798
-0.0344888
-0.0108215
)
;

boundaryField
{
    left
    {
        type            calculated;
        value           uniform 0;
    }
    right
    {
        type            calculated;
        value           uniform 0;
    }
    interface
    {
        type            calculated;
        value           nonuniform List<scalar> 
64
(
3.80398
4.32042
5.76723
10.3573
5.63757
3.75405
6.75284
3.8985
2.44879
2.41681
3.34649
5.46701
2.85214
3.89581
6.87984
3.74237
2.46417
4.4268
2.57405
1.61479
1.59109
2.20667
3.58515
1.85709
2.47825
4.28909
2.27621
1.332
1.29968
1.74566
2.81271
1.43929
1.88217
3.24344
1.71382
1.04427
1.7631
0.960195
0.496426
0.457307
0.385799
0.43714
0.0613731
-0.479212
-1.36323
-1.06671
-1.28739
-3.12461
-2.267
-2.26893
-2.47699
-5.47511
-10.845
-7.13943
-15.3012
-33.9369
-21.1393
-1.51515
-0.422852
-0.201266
-0.112737
-0.0652798
-0.0344888
-0.0108215
)
;
    }
    bottom
    {
        type            calculated;
        value           nonuniform List<scalar> 
64
(
0.00630495
0.0187342
0.0306383
0.0417196
0.051749
0.0605774
0.0681342
0.0744173
0.0794763
0.0833942
0.0862707
0.0882102
0.0893145
0.0896806
0.0894009
0.0885645
0.0872582
0.0855657
0.0835647
0.0813236
0.0788983
0.0763295
0.073642
0.0708459
0.067939
0.0649092
0.061737
0.0583968
0.0548577
0.0510837
0.0470347
0.0426669
0.0379351
0.0327949
0.0272043
0.0211256
0.0145268
0.00738159
-0.000329582
-0.00861837
-0.0174863
-0.0269211
-0.0368913
-0.0473396
-0.0581743
-0.0692608
-0.0804119
-0.0913804
-0.101855
-0.111463
-0.119782
-0.126359
-0.130753
-0.13257
-0.131512
-0.127416
-0.120277
-0.110247
-0.0976155
-0.082765
-0.0661296
-0.0481503
-0.0292469
-0.0098074
)
;
    }
    defaultFaces
    {
        type            empty;
    }
}


// ************************************************************************* //
