/*--------------------------------*- C++ -*----------------------------------*\
| =========                 |                                                 |
| \\      /  F ield         | OpenFOAM: The Open Source CFD Toolbox           |
|  \\    /   O peration     | Version:  5.x                                   |
|   \\  /    A nd           | Web:      www.OpenFOAM.org                      |
|    \\/     M anipulation  |                                                 |
\*---------------------------------------------------------------------------*/
FoamFile
{
    version     2.0;
    format      ascii;
    class       volScalarField;
    location    "1.7";
    object      gradTy;
}
// * * * * * * * * * * * * * * * * * * * * * * * * * * * * * * * * * * * * * //

dimensions      [0 -1 0 1 0 0 0];

internalField   nonuniform List<scalar> 
6300
(
32285.3
32256
32226.5
32196.9
32167
32136.9
32106.4
32075.4
32044
32012.1
31979.7
31946.7
31913.1
31879
31844.3
0.0511729
0.153047
0.253476
0.351395
0.445591
0.534659
0.616993
0.6908
0.754158
0.805138
0.84198
0.863326
0.868487
0.857706
0.832336
0.0858044
0.256665
0.425225
0.589768
0.748312
0.898536
1.03774
1.16288
1.2706
1.35751
1.4204
1.45673
1.46504
1.44556
1.40052
0.121186
0.362588
0.600999
0.834148
1.05936
1.27344
1.47259
1.65238
1.80788
1.93391
2.02542
2.07816
2.08942
2.05901
1.98992
0.157536
0.471502
0.782037
1.08647
1.38155
1.66329
1.92679
2.16616
2.37465
2.54484
2.66923
2.74106
2.7555
2.71112
2.61134
0.194992
0.58385
0.969181
1.34813
1.71708
2.07139
2.40511
2.71084
2.97971
3.20157
3.36559
3.46135
3.48041
3.41864
3.27883
0.233573
0.699725
1.16271
1.61979
2.06727
2.50008
2.91143
3.29239
3.63178
3.91613
4.13024
4.25833
4.28615
4.20421
4.0122
0.273147
0.818768
1.36215
1.90106
2.43212
2.95025
3.44812
3.91553
4.3389
4.70095
4.98093
5.15561
5.20168
5.09985
4.84154
0.313396
0.940051
1.56606
2.19019
2.80989
3.42068
4.01528
4.58273
5.10735
5.56786
5.93691
6.18152
6.26512
6.15198
5.81532
0.353781
1.06198
1.77186
2.48374
3.1966
3.90731
4.60961
5.29277
5.93992
6.52625
7.01735
7.36844
7.52533
7.42762
7.01463
0.393529
1.18223
1.97567
2.77632
3.58545
4.40235
5.22309
6.03882
6.83333
7.5799
8.23782
8.74957
9.04013
9.01852
8.57482
0.431634
1.29775
2.17228
3.06042
3.96656
4.89355
5.84158
6.80611
7.7747
8.72221
9.60448
10.3519
10.8671
11.0315
10.7034
0.466894
1.40484
2.35528
3.32654
4.3268
5.36374
6.4436
7.56937
8.73717
9.92979
11.106
12.1864
13.0448
13.537
13.6109
0.497995
1.49945
2.51747
3.56366
4.65039
5.79102
6.99973
8.29061
9.67484
11.1538
12.7034
14.2429
15.5887
16.461
16.9628
0.523632
1.5775
2.65151
3.76024
4.92009
6.15024
7.47373
8.91851
10.5178
12.3072
14.3108
16.493
18.6064
19.756
17.4502
31811.9
31782.1
31752
31721.5
31690.8
31659.7
31628.3
31596.7
31564.9
31532.9
31500.6
31468.2
31435.6
31402.9
31370
31337.1
31304.1
31271
31237.9
31204.8
31171.7
31138.5
31105.3
31072.1
31038.9
31005.7
30972.4
30939.2
30905.9
30872.7
30839.4
30806.2
30772.9
30739.7
30706.5
30673.4
30640.3
30607.1
30574.1
30541
30507.9
30474.8
30441.7
30408.7
30375.6
30342.5
30309.5
30276.5
30243.5
30210.5
30177.6
30144.7
30111.8
30079
30046.1
30013.3
29980.5
29947.6
29914.8
29882
29849.2
29816.4
29783.7
29751
29718.3
29685.7
29653.1
29620.6
29588
29555.6
29523.1
29490.6
29458.2
29425.8
29393.4
29361
29328.7
29296.4
29264.1
29231.9
29199.7
29167.5
29135.3
29103
29070.7
29038.4
29006
28973.4
28940.8
28908
0.797971
0.76045
0.718799
0.675112
0.63114
0.588061
0.546358
0.505838
0.465791
0.425267
0.383393
0.339677
0.29423
0.247859
0.202003
0.158534
0.119443
0.0864871
0.0608679
0.0429985
0.03241
0.0278059
0.027255
0.0284872
0.0292451
0.027633
0.0224097
0.0131744
0.000414305
-0.0146001
-0.030057
-0.0439419
-0.0544126
-0.0601372
-0.060536
-0.0558862
-0.0472759
-0.0364206
-0.0253762
-0.0161962
-0.0105885
-0.00962902
-0.013578
-0.0218333
-0.033033
-0.0452946
-0.0565488
-0.0649091
-0.0690058
-0.0682237
-0.0628045
-0.0537998
-0.0428878
-0.0320869
-0.0234148
-0.0185467
-0.01853
-0.0236011
-0.033139
-0.0457665
-0.0595877
-0.0725194
-0.0826579
-0.0886097
-0.0897262
-0.0862027
-0.0790283
-0.0697987
-0.0604264
-0.0527942
-0.048409
-0.0481093
-0.0518761
-0.05878
-0.0670799
-0.0744609
-0.0783771
-0.076441
-0.066796
-0.0484155
-0.0212907
0.0135098
0.0539038
0.096973
0.139231
0.176967
0.206629
0.22523
0.230705
0.222182
1.33982
1.27385
1.20109
1.12548
1.05031
0.977726
0.90851
0.842079
0.776823
0.710647
0.641616
0.56856
0.491518
0.411929
0.332519
0.256897
0.188942
0.132098
0.088732
0.0596834
0.0440834
0.0394658
0.0421414
0.0477693
0.0520313
0.0513043
0.0432235
0.0270463
0.00375061
-0.0241617
-0.0531324
-0.0792108
-0.0987885
-0.109262
-0.109498
-0.100033
-0.0829694
-0.0616237
-0.0399667
-0.0219647
-0.0109206
-0.00891851
-0.0164659
-0.0323957
-0.0540594
-0.0777881
-0.0995476
-0.115663
-0.123474
-0.121793
-0.111097
-0.0934283
-0.0720399
-0.0508375
-0.0337258
-0.0239508
-0.0235483
-0.0329865
-0.0510683
-0.0751225
-0.101462
-0.126034
-0.14514
-0.156085
-0.157631
-0.150182
-0.135685
-0.117258
-0.0986406
-0.0835202
-0.0748725
-0.0743957
-0.0821411
-0.0964037
-0.113902
-0.130236
-0.140542
-0.140249
-0.125787
-0.0951465
-0.0482165
0.0131191
0.0851095
0.162461
0.23882
0.307382
0.361594
0.395899
0.406432
0.391556
1.89725
1.79706
1.68754
1.57527
1.46579
1.36259
1.2667
1.17668
1.08923
1.0002
0.905696
0.803245
0.692539
0.575811
0.45765
0.344293
0.242519
0.15838
0.0960597
0.0570857
0.0400284
0.0407123
0.0528679
0.069112
0.0820983
0.085664
0.0757973
0.0512728
0.0138408
-0.0320908
-0.0802622
-0.123728
-0.15616
-0.17301
-0.172313
-0.154999
-0.124707
-0.0871506
-0.0491672
-0.0175857
0.00189795
0.00567463
-0.00715003
-0.0345672
-0.0719768
-0.112981
-0.150536
-0.178238
-0.191473
-0.188205
-0.169288
-0.138273
-0.100783
-0.0635565
-0.0333305
-0.015717
-0.0142549
-0.029784
-0.0602566
-0.101047
-0.145742
-0.18728
-0.219237
-0.236959
-0.238351
-0.224179
-0.197865
-0.164863
-0.131689
-0.104797
-0.0894436
-0.0887174
-0.102899
-0.129247
-0.162285
-0.194574
-0.217855
-0.224348
-0.207965
-0.165228
-0.0957825
-0.00251396
0.108692
0.229473
0.349728
0.458548
0.545309
0.600878
0.618823
0.59638
2.47764
2.33371
2.17793
2.02107
1.87221
1.73694
1.61644
1.50758
1.40394
1.29762
1.18123
1.04982
0.902236
0.741761
0.57587
0.415017
0.270705
0.153246
0.0697744
0.0229324
0.0104309
0.0254439
0.0577114
0.0951503
0.125735
0.13937
0.129481
0.0940888
0.0361728
-0.0367932
-0.114167
-0.184134
-0.23597
-0.262028
-0.259057
-0.228657
-0.176907
-0.113297
-0.0491533
0.00420906
0.0373287
0.0441671
0.0231716
-0.022358
-0.0847271
-0.153151
-0.215724
-0.261659
-0.283248
-0.277164
-0.244913
-0.192459
-0.129162
-0.0662109
-0.0147897
0.0157576
0.0194883
-0.00508025
-0.0546047
-0.12137
-0.194584
-0.262344
-0.313849
-0.341365
-0.341505
-0.315676
-0.269698
-0.212731
-0.155708
-0.109479
-0.0829682
-0.0815887
-0.106153
-0.15247
-0.211759
-0.271898
-0.319354
-0.341398
-0.328105
-0.27378
-0.177663
-0.043986
0.11848
0.297234
0.477093
0.641473
0.773932
0.860031
0.889366
0.857353
3.09029
2.88744
2.66987
2.45538
2.25907
2.09001
1.94943
1.83095
1.72251
1.60953
1.4784
1.3197
1.13049
0.915514
0.686838
0.461922
0.260224
0.0991745
-0.00925706
-0.0606703
-0.058787
-0.014671
0.055108
0.131058
0.193778
0.226949
0.219889
0.169335
0.0801729
-0.0351534
-0.158744
-0.270658
-0.352908
-0.392858
-0.38531
-0.333069
-0.246197
-0.140226
-0.0336286
0.055138
0.110588
0.122723
0.0888037
0.0140801
-0.0887804
-0.201767
-0.304897
-0.380163
-0.414897
-0.403832
-0.34966
-0.262289
-0.157073
-0.0522932
0.0337779
0.0858159
0.0939499
0.0555268
-0.0241601
-0.132438
-0.251317
-0.360847
-0.443041
-0.485226
-0.482089
-0.436223
-0.357386
-0.260717
-0.164216
-0.0857978
-0.0403361
-0.037132
-0.078112
-0.157044
-0.260036
-0.36751
-0.457472
-0.509357
-0.507353
-0.442531
-0.313647
-0.126932
0.104799
0.363387
0.626734
0.870353
1.0693
1.20091
1.24824
1.20348
3.74825
3.46237
3.15739
2.86351
2.6067
2.40207
2.25062
2.13988
2.04763
1.94756
1.81528
1.63351
1.39587
1.10899
0.792391
0.475398
0.191209
-0.0306659
-0.170394
-0.22102
-0.18882
-0.0917411
0.0436167
0.186018
0.304367
0.372457
0.372925
0.300175
0.161843
-0.0216209
-0.220142
-0.399908
-0.530768
-0.592097
-0.575936
-0.487367
-0.343007
-0.168073
0.00755335
0.154023
0.2462
0.267575
0.21317
0.0910097
-0.0782802
-0.264605
-0.434224
-0.557065
-0.612532
-0.592612
-0.502249
-0.357856
-0.184394
-0.0114749
0.131312
0.219054
0.235412
0.175511
0.0474127
-0.128284
-0.321556
-0.498756
-0.629889
-0.694397
-0.684244
-0.604293
-0.470798
-0.308503
-0.146727
-0.0147016
0.0631061
0.0709099
0.00454216
-0.127009
-0.301892
-0.488373
-0.650451
-0.754942
-0.777087
-0.703554
-0.532931
-0.274723
0.0524265
0.42267
0.804769
1.16354
1.46162
1.66314
1.73972
1.67732
4.47235
4.06483
3.62895
3.2183
2.87921
2.63757
2.49319
2.42219
2.38403
2.33197
2.22343
2.02775
1.73216
1.34528
0.898511
0.441637
0.0324606
-0.278796
-0.45984
-0.50064
-0.412281
-0.223934
0.0219806
0.275612
0.487328
0.615338
0.631391
0.525444
0.308497
0.013584
-0.308557
-0.599597
-0.808769
-0.90294
-0.870848
-0.722022
-0.483864
-0.196942
0.0906977
0.331066
0.48374
0.521521
0.435074
0.235774
-0.0432839
-0.351536
-0.630951
-0.831028
-0.918767
-0.882872
-0.73269
-0.495327
-0.210985
0.0726843
0.308061
0.455035
0.486634
0.393648
0.187474
-0.0988737
-0.414994
-0.703056
-0.912734
-1.01113
-0.986967
-0.849518
-0.625735
-0.355593
-0.0864524
0.134416
0.267303
0.285709
0.181012
-0.0346192
-0.32709
-0.644417
-0.926391
-1.11914
-1.18462
-1.10442
-0.87836
-0.521812
-0.0620234
0.464864
1.01637
1.54412
1.99299
2.30525
2.43132
2.34405
5.29998
4.70814
4.06418
3.47004
3.01141
2.73304
2.63015
2.65724
2.74047
2.79771
2.75707
2.56589
2.19988
1.66781
1.01919
0.339194
-0.267292
-0.714435
-0.951241
-0.966249
-0.779727
-0.439028
-0.0107693
0.425559
0.790824
1.01943
1.06553
0.910547
0.567415
0.0879856
-0.441773
-0.917191
-1.25239
-1.39562
-1.33388
-1.08534
-0.694965
-0.226873
0.241886
0.634358
0.886694
0.954324
0.819453
0.495351
0.0337118
-0.480035
-0.94197
-1.26681
-1.40309
-1.33776
-1.08873
-0.700504
-0.236664
0.226325
0.612051
0.857096
0.917197
0.774714
0.442922
-0.0266532
-0.548899
-1.02029
-1.35589
-1.50442
-1.45288
-1.21913
-0.847494
-0.401307
0.0432718
0.410165
0.63629
0.677719
0.517172
0.168366
-0.316548
-0.851413
-1.33086
-1.66663
-1.80199
-1.71534
-1.41172
-0.91759
-0.273118
0.471582
1.26217
2.03828
2.72105
3.21544
3.43012
3.30817
6.30521
5.42647
4.42761
3.52661
2.88398
2.57582
2.57992
2.81147
3.13435
3.40444
3.50747
3.3558
2.90675
2.15818
1.18503
0.130904
-0.796501
-1.45296
-1.76203
-1.72207
-1.36919
-0.780214
-0.0551424
0.677833
1.2911
1.68633
1.78924
1.56657
1.02259
0.234848
-0.653258
-1.43672
-1.97247
-2.18351
-2.06592
-1.65293
-1.01801
-0.257794
0.502894
1.13941
1.55559
1.67869
1.47629
0.952939
0.185696
-0.683196
-1.45046
-1.97416
-2.17779
-2.05724
-1.64527
-1.01464
-0.261184
0.491157
1.11855
1.52541
1.63941
1.42831
0.896706
0.12134
-0.756102
-1.53316
-2.06848
-2.28586
-2.18127
-1.78737
-1.17668
-0.444778
0.284789
0.888547
1.27117
1.3605
1.12436
0.567283
-0.234133
-1.13827
-1.94225
-2.50277
-2.73911
-2.6387
-2.21946
-1.52988
-0.628568
0.412199
1.52878
2.6668
3.72033
4.52839
4.91362
4.74696
7.64707
6.3177
4.65005
3.21104
2.27484
1.9689
2.2021
2.83419
3.60426
4.25176
4.62464
4.57393
4.04493
2.97196
1.46747
-0.25986
-1.71587
-2.69173
-3.07544
-2.92849
-2.29864
-1.31738
-0.1109
1.10248
2.10536
2.77416
2.98177
2.68528
1.82878
0.526221
-1.01545
-2.31298
-3.16014
-3.44464
-3.22337
-2.54016
-1.5215
-0.289433
0.942675
1.96173
2.64648
2.87175
2.59523
1.76169
0.484007
-1.03275
-2.30975
-3.1425
-3.41936
-3.19642
-2.51677
-1.5057
-0.284177
0.93584
1.94255
2.61536
2.82968
2.54338
1.70143
0.416245
-1.10793
-2.39422
-3.23898
-3.53104
-3.32633
-2.66785
-1.6805
-0.484966
0.707392
1.68529
2.3283
2.5119
2.19362
1.31798
-0.00386518
-1.56939
-2.9043
-3.80575
-4.16117
-4.02122
-3.41652
-2.4471
-1.18486
0.243615
1.76446
3.41696
5.07304
6.45013
7.19176
6.98515
9.68872
7.69609
4.54326
2.17142
0.758154
0.585566
1.24984
2.65819
4.25065
5.49455
6.35177
6.48082
5.96644
4.40713
2.07078
-1.04133
-3.32669
-4.78319
-5.15304
-4.83029
-3.73413
-2.1789
-0.176616
1.83025
3.40067
4.52611
4.90017
4.61041
3.27725
1.16189
-1.72924
-3.8378
-5.15812
-5.43414
-5.04606
-3.91048
-2.33236
-0.32119
1.6892
3.26537
4.39897
4.78732
4.51623
3.20995
1.1265
-1.72762
-3.80886
-5.11141
-5.38075
-4.99335
-3.86564
-2.2999
-0.305117
1.68758
3.24724
4.36543
4.74075
4.45846
3.14428
1.05519
-1.80243
-3.89119
-5.20548
-5.49168
-5.12495
-4.02202
-2.48423
-0.520692
1.4387
2.96415
4.04686
4.3859
4.06537
2.71111
0.577204
-2.33268
-4.49059
-5.8951
-6.29659
-6.07304
-5.1388
-3.78602
-1.98057
-0.0580477
1.8105
4.16189
6.82742
9.28692
10.8354
10.6859
13.2718
10.7456
3.31204
-0.248566
-2.54511
-2.00285
-0.773854
2.21705
5.39899
7.29417
9.1275
9.31428
9.39265
6.96127
3.79118
-3.01328
-6.13106
-8.43944
-8.22798
-7.84582
-5.83069
-3.68416
-0.248923
3.18654
5.33675
7.36007
7.77449
8.03807
5.85211
2.91466
-3.56993
-6.49768
-8.65993
-8.37994
-7.94519
-5.91808
-3.76683
-0.351832
3.06097
5.20633
7.22462
7.65248
7.92786
5.77734
2.87874
-3.53548
-6.42933
-8.56819
-8.28789
-7.85639
-5.84533
-3.71197
-0.323114
3.06286
5.18759
7.18519
7.59872
7.85941
5.70296
2.80076
-3.60413
-6.50348
-8.65246
-8.39258
-7.98376
-6.00244
-3.90108
-0.550518
2.79483
4.88051
6.83622
7.20961
7.42562
5.22687
2.27563
-4.17883
-7.16179
-9.42881
-9.33207
-9.14826
-7.46376
-5.77681
-2.94488
-0.281993
1.16122
4.45445
8.87829
13.4354
16.9239
17.4315
20.0501
20.8632
-3.49501
-4.48865
-9.93629
-5.58018
-5.3347
1.50081
8.40027
9.18286
14.2743
12.3038
16.4329
10.5792
10.7451
-10.2941
-10.101
-15.7243
-11.5488
-13.2128
-8.11652
-7.04515
-0.321574
6.39356
7.45559
12.5108
10.866
14.9931
9.50912
9.77528
-10.5325
-10.2599
-15.6786
-11.5487
-13.1374
-8.10449
-7.02118
-0.379359
6.25781
7.33023
12.3404
10.7372
14.8328
9.4219
9.69341
-10.4128
-10.1371
-15.5087
-11.4129
-12.9941
-8.00124
-6.93204
-0.337073
6.25423
7.31092
12.2859
10.6767
14.7409
9.33543
9.59009
-10.4539
-10.1964
-15.5683
-11.5081
-13.1071
-8.15581
-7.1169
-0.572945
5.96477
6.98388
11.904
10.2598
14.263
8.82612
9.01861
-11.024
-10.864
-16.3664
-12.4929
-14.3845
-9.79226
-9.4164
-3.66581
1.25034
-2.15213
3.11909
10.7373
19.123
27.3047
31.8836
29.6868
67.2138
-43.9469
-2.31494
-31.4456
-3.23891
-19.3859
0.691832
20.2092
4.86611
29.5894
6.50938
37.8476
5.52794
48.2334
-48.1504
-5.69639
-37.1207
-6.46176
-28.316
-4.60769
-18.5467
-0.383368
17.7398
3.82283
27.3083
5.64476
35.7864
4.88441
46.2608
-47.1327
-5.82872
-36.4494
-6.4845
-27.8668
-4.60559
-18.282
-0.402329
17.4658
3.7815
26.9775
5.61314
35.4247
4.88136
45.8495
-46.6426
-5.71542
-36.0851
-6.36563
-27.6015
-4.50988
-18.1121
-0.348624
17.4126
3.78904
26.8648
5.5821
35.2558
4.81432
45.6065
-46.5408
-5.78591
-36.0695
-6.47705
-27.6658
-4.67828
-18.2628
-0.589255
17.0786
3.46695
26.4216
5.17512
34.6912
4.31643
44.8976
-46.9634
-6.41447
-36.8071
-7.35429
-28.9592
-6.05112
-20.7974
-3.18699
14.7597
-17.947
-1.5874
11.5
25.1131
42.8822
71.465
28871.9
28832.3
28792.6
28752.9
28713.1
28673.4
28633.7
28594
28554.5
28515.1
28475.8
28436.6
28397.5
28358.5
28319.5
0.197906
0.154617
0.0995252
0.0387702
-0.0213904
-0.0754389
-0.119151
-0.149819
-0.166214
-0.168377
-0.15734
-0.134844
-0.103099
-0.0645998
-0.0219935
0.348165
0.270518
0.171933
0.0637722
-0.0425851
-0.13733
-0.21317
-0.265636
-0.292904
-0.295351
-0.275007
-0.235045
-0.179351
-0.112226
-0.0381805
0.528797
0.407414
0.253969
0.0870193
-0.0753477
-0.218086
-0.330529
-0.406618
-0.444388
-0.445092
-0.412278
-0.350964
-0.267025
-0.166769
-0.056683
0.75708
0.576368
0.349506
0.10568
-0.127742
-0.32914
-0.484244
-0.585922
-0.632937
-0.628354
-0.578047
-0.489508
-0.371019
-0.231141
-0.0784658
1.05668
0.791465
0.461997
0.113931
-0.212167
-0.486494
-0.69139
-0.819894
-0.873088
-0.857343
-0.78205
-0.658004
-0.496401
-0.308311
-0.104505
1.46133
1.07081
0.593079
0.100207
-0.34837
-0.713285
-0.974931
-1.12918
-1.18218
-1.14588
-1.03481
-0.86406
-0.64827
-0.401197
-0.13575
2.02088
1.43735
0.739298
0.0421825
-0.56824
-1.04335
-1.36588
-1.53972
-1.58058
-1.5092
-1.34724
-1.11516
-0.831422
-0.512456
-0.17305
2.81139
1.91842
0.884571
-0.102539
-0.923423
-1.52601
-1.90551
-2.08324
-2.09122
-1.9631
-1.72979
-1.41792
-1.0498
-0.644156
-0.217045
3.95291
2.54035
0.983097
-0.413487
-1.4969
-2.23174
-2.6469
-2.79652
-2.73796
-2.52219
-2.19091
-1.77692
-1.30572
-0.797318
-0.268017
5.64065
3.3069
0.920903
-1.03764
-2.41898
-3.25712
-3.65385
-3.71797
-3.54191
-3.19679
-2.73473
-2.19314
-1.59883
-0.971378
-0.325724
8.19541
4.12569
0.431233
-2.23904
-3.88427
-4.72394
-4.9934
-4.8796
-4.51493
-3.98832
-3.35807
-2.66207
-1.9251
-1.16364
-0.389226
12.1029
4.56915
-1.08264
-4.46543
-6.15517
-6.76099
-6.7162
-6.29208
-5.64988
-4.8835
-4.04714
-3.17199
-2.27585
-1.36884
-0.456769
17.7311
3.13054
-4.86561
-8.38488
-9.50997
-9.44864
-8.81834
-7.92263
-6.90902
-5.84864
-4.77502
-3.70288
-2.63746
-1.57911
-0.525778
22.5212
-4.9124
-13.1256
-14.6985
-14.0512
-12.7053
-11.1859
-9.67107
-8.21491
-6.82703
-5.50141
-4.22706
-2.99198
-1.78438
-0.593007
0.541624
1.63224
2.74543
3.89785
5.10883
6.40202
7.8078
9.36674
11.1349
13.1912
15.6441
18.6218
22.1531
25.4484
22.8675
0.552368
1.66482
2.80096
3.9784
5.2179
6.54543
7.99536
9.61595
11.479
13.6984
16.4702
20.1699
25.6354
35.156
56.5923
0.557754
1.68096
2.8278
4.01586
5.26587
6.60384
8.06443
9.69683
11.5755
13.822
16.652
20.4919
26.3014
36.5889
59.0221
0.557794
1.6807
2.82603
4.01031
5.25277
6.57711
8.01421
9.60669
11.4168
13.5404
16.1324
19.4462
23.8575
29.5863
34.225
0.552751
1.66488
2.79721
3.96436
5.18283
6.47209
7.85609
9.36545
11.0403
12.9336
15.1116
17.6384
20.4986
23.3398
24.9959
0.54311
1.63503
2.74422
3.88279
5.06374
6.30128
7.61095
9.00931
10.5122
12.1292
13.8488
15.599
17.1529
17.9162
16.4454
0.529513
1.59319
2.67083
3.77179
4.90537
6.0804
7.30424
8.58061
9.90478
11.2536
12.5647
13.696
14.3562
14.0443
12.3843
0.512692
1.54165
2.58125
3.63816
4.71824
5.82563
6.96106
8.11872
9.28032
10.4042
11.4056
12.1202
12.2346
11.1086
7.04104
0.493387
1.48274
2.47965
3.48844
4.51215
5.55139
6.60247
7.65411
8.68204
9.63996
10.4456
10.9614
10.9746
10.2155
8.65233
0.472291
1.41859
2.3698
3.32838
4.2953
5.26897
6.24349
7.20599
8.1324
8.98145
9.68704
10.1516
10.2509
9.88093
9.10823
0.450005
1.35103
2.25485
3.16254
4.07378
4.98596
5.8929
6.78296
7.63649
8.42257
9.09583
9.59549
9.85322
9.82602
9.5909
0.427018
1.28152
2.13722
2.99425
3.85161
4.7066
5.55404
6.38532
7.18744
7.94207
8.62522
9.20739
9.65339
9.91551
9.89961
0.40371
1.21119
2.01869
2.82573
3.6311
4.43251
5.22642
6.00797
6.77139
7.51125
8.22474
8.9139
9.5813
10.1981
10.6154
0.380364
1.14084
1.90047
2.6584
3.41335
4.16365
4.90742
5.64323
6.37172
7.09877
7.84121
8.63556
9.54438
10.6194
11.5745
0.357193
1.07109
1.78345
2.49313
3.19884
3.89935
4.59396
5.28359
5.97308
6.67563
7.42165
8.27776
9.39212
11.1239
14.4825
0.334365
1.00239
1.6683
2.33063
2.98797
3.63917
4.28397
4.92407
5.56542
6.22232
6.92569
7.74067
8.81117
10.4986
13.9177
0.312026
0.935182
1.55564
2.17161
2.78136
3.38346
3.97725
4.56372
5.14697
5.73677
6.35226
7.02617
7.80181
8.67105
9.13752
0.29031
0.869846
1.44611
2.01692
2.58007
3.13353
3.67565
4.20561
4.724
5.23343
5.73828
6.24108
6.72749
7.12321
7.24125
0.269349
0.806782
1.34039
1.86755
2.38552
2.89148
3.38251
3.85556
4.30729
4.73329
5.12575
5.4674
5.7162
5.76824
5.35315
0.249269
0.746377
1.23915
1.72456
2.19933
2.65983
3.10187
3.52034
3.90848
4.25645
4.54854
4.75824
4.84158
4.73771
4.4346
0.230182
0.688985
1.14304
1.58897
2.02306
2.44101
2.83762
3.2062
3.53758
3.81846
4.02858
4.13685
4.09699
3.84558
3.2876
0.212182
0.634894
1.05257
1.46162
1.85801
2.23702
2.59284
2.9179
3.20179
3.42962
3.57939
3.61834
3.49936
3.16638
2.63679
0.195331
0.5843
0.968112
1.34307
1.70503
2.04915
2.36946
2.65821
2.90495
3.09502
3.20716
3.20955
3.05035
2.62374
1.59796
0.179658
0.537292
0.889806
1.23355
1.56446
1.87784
2.16799
2.4277
2.64749
2.81455
2.91119
2.91298
2.78708
2.49721
2.0662
0.165155
0.493842
0.817598
1.13294
1.43607
1.72268
1.98769
2.22494
2.42668
2.583
2.68111
2.70512
2.6377
2.46872
2.2198
0.151781
0.453818
0.751239
1.04083
1.31917
1.58252
1.82668
2.04685
2.23744
2.39188
2.50251
2.56078
2.55887
2.49575
2.39859
0.139468
0.417004
0.690321
0.956541
1.21269
1.4557
1.68234
1.88931
2.07332
2.23123
2.36029
2.45826
2.52257
2.54646
2.50552
0.128128
0.383124
0.634337
0.879249
1.11536
1.34025
1.55167
1.74775
1.92735
2.09062
2.23968
2.37915
2.51437
2.64221
2.72817
0.117665
0.351875
0.582736
0.808075
1.02583
1.23417
1.43167
1.61765
1.79275
1.95989
2.12577
2.30301
2.51133
2.76708
2.99575
0.107982
0.322953
0.534975
0.742175
0.942855
1.13563
1.31968
1.49511
1.66369
1.83006
2.004
2.20532
2.47538
2.91078
3.77899
0.0989881
0.296084
0.490567
0.680809
0.865376
1.04317
1.21369
1.37735
1.5362
1.69498
1.86325
2.05992
2.32466
2.75397
3.64038
0.0906073
0.271031
0.449111
0.623393
0.792605
0.955785
1.11246
1.26295
1.40878
1.55333
1.70281
1.86727
2.05969
2.27976
2.40008
0.0827769
0.247608
0.410298
0.569504
0.724033
0.872922
1.01555
1.15181
1.28226
1.40827
1.53199
1.65523
1.77554
1.87486
1.90584
0.0754492
0.225677
0.373908
0.518871
0.659388
0.794414
0.923083
1.04472
1.15883
1.26484
1.36151
1.44525
1.50601
1.51745
1.40918
0.0685886
0.205134
0.339792
0.471333
0.598564
0.720333
0.835504
0.942884
1.04104
1.12791
1.20005
1.25125
1.27075
1.24319
1.16592
0.0621679
0.185905
0.307846
0.426794
0.541542
0.650844
0.753349
0.847464
0.931103
1.00124
1.05314
1.0793
1.06818
1.00349
0.859725
0.056164
0.167926
0.277982
0.385177
0.488309
0.586085
0.677031
0.759331
0.830561
0.887237
0.924125
0.933243
0.902843
0.818718
0.685534
0.0505545
0.151133
0.250111
0.346388
0.438804
0.526079
0.606727
0.678899
0.740139
0.786996
0.814412
0.81465
0.774829
0.668032
0.408762
0.0453143
0.135454
0.224118
0.310287
0.392875
0.470685
0.542321
0.606071
0.659718
0.700271
0.723588
0.723891
0.693343
0.623244
0.519673
0.0404142
0.120803
0.199863
0.276677
0.350273
0.419586
0.483401
0.54027
0.588403
0.62553
0.648761
0.654573
0.639339
0.601713
0.549612
0.0358205
0.107076
0.17717
0.245306
0.310652
0.372314
0.429314
0.480546
0.524744
0.560452
0.586044
0.599886
0.600899
0.590249
0.575906
0.0314949
0.0941588
0.155841
0.215879
0.273594
0.328288
0.379241
0.425717
0.466993
0.502413
0.531502
0.554121
0.570575
0.581365
0.58572
0.0273965
0.0819246
0.135658
0.18807
0.238641
0.286867
0.332285
0.374511
0.413319
0.448782
0.481468
0.512653
0.544201
0.576966
0.605667
0.0234829
0.0702442
0.116396
0.161544
0.205321
0.247404
0.287555
0.325687
0.36198
0.397092
0.432488
0.47095
0.516997
0.575408
0.636806
0.0197118
0.0589891
0.0978328
0.135975
0.173183
0.209289
0.244235
0.278148
0.311473
0.345215
0.381394
0.423995
0.481224
0.571796
0.745089
0.016043
0.0480367
0.0797602
0.111058
0.141814
0.171986
0.201641
0.231026
0.260687
0.291659
0.325855
0.366896
0.422313
0.510759
0.6913
0.0124389
0.0372736
0.0619862
0.0865195
0.110857
0.135049
0.159239
0.183722
0.208998
0.235874
0.265574
0.299829
0.340484
0.385789
0.405759
0.00886516
0.0265969
0.044339
0.0621207
0.080007
0.0981164
0.116642
0.135874
0.156209
0.178139
0.202142
0.228331
0.25544
0.278433
0.286863
0.00529099
0.0159142
0.0266665
0.0376524
0.0490055
0.0609
0.0735613
0.0872662
0.10232
0.118972
0.137202
0.156207
0.173269
0.181205
0.161459
0.00168863
0.00514318
0.0088337
0.012932
0.0176316
0.0231557
0.0297609
0.0377283
0.0473276
0.0587185
0.0717332
0.085444
0.0974447
0.103214
0.0990966
-0.001967
-0.00579065
-0.00928042
-0.0122035
-0.0143116
-0.0153352
-0.0149809
-0.0129372
-0.00890249
-0.00265553
0.00578878
0.0158771
0.0259575
0.0320965
0.0240116
-0.0056989
-0.0169554
-0.0277865
-0.0379027
-0.0470051
-0.0547797
-0.0608916
-0.0649807
-0.0666634
-0.0655494
-0.0612907
-0.0536772
-0.0427854
-0.0291356
-0.0138416
-0.00952862
-0.0284148
-0.0467876
-0.0643041
-0.0806184
-0.0953758
-0.108204
-0.118691
-0.126362
-0.130622
-0.130694
-0.125502
-0.113438
-0.091504
-0.0508024
-0.0134769
-0.0402299
-0.0663822
-0.091539
-0.115311
-0.13731
-0.157138
-0.174355
-0.188424
-0.1986
-0.203749
-0.202096
-0.19094
-0.166901
-0.130055
-0.0175644
-0.0524615
-0.0866674
-0.119734
-0.151232
-0.180749
-0.207882
-0.232203
-0.253189
-0.270064
-0.281526
-0.285284
-0.277384
-0.251191
-0.193536
-0.0218128
-0.0651727
-0.107743
-0.149018
-0.188528
-0.225843
-0.260577
-0.292366
-0.320805
-0.345284
-0.36465
-0.376567
-0.37653
-0.357326
-0.314963
-0.0262454
-0.0784323
-0.129716
-0.179528
-0.227348
-0.272729
-0.315316
-0.354855
-0.39117
-0.424054
-0.452946
-0.47615
-0.488985
-0.479542
-0.417129
-0.0308892
-0.0923185
-0.152712
-0.211421
-0.267862
-0.321555
-0.37217
-0.419581
-0.463919
-0.505595
-0.545193
-0.582932
-0.61691
-0.638543
-0.628007
-0.0357754
-0.106924
-0.176878
-0.244888
-0.310283
-0.372518
-0.43125
-0.486441
-0.538515
-0.58858
-0.638731
-0.692328
-0.753409
-0.819884
-0.837571
-0.0409411
-0.122359
-0.202394
-0.280173
-0.354899
-0.425915
-0.49279
-0.555468
-0.614508
-0.671506
-0.729877
-0.796528
-0.886163
-1.03511
-1.35648
-0.0464297
-0.138753
-0.229478
-0.317578
-0.402092
-0.482188
-0.557245
-0.627021
-0.691921
-0.753481
-0.815275
-0.884771
-0.977733
-1.13059
-1.44118
-0.0522907
-0.156257
-0.258386
-0.357473
-0.452356
-0.54196
-0.625369
-0.701963
-0.771656
-0.835297
-0.895327
-0.956721
-1.02771
-1.11655
-1.2018
-0.0585786
-0.175039
-0.289407
-0.400287
-0.506288
-0.606037
-0.698229
-0.781701
-0.855597
-0.919623
-0.974437
-1.02201
-1.0653
-1.10501
-1.12973
-0.0653507
-0.195273
-0.322851
-0.446493
-0.564562
-0.675365
-0.777145
-0.868092
-0.946394
-1.01035
-1.05858
-1.09028
-1.10538
-1.1039
-1.08285
-0.0726637
-0.217137
-0.359031
-0.496569
-0.627883
-0.750962
-0.863588
-0.963269
-1.04716
-1.11201
-1.1542
-1.17008
-1.15698
-1.11637
-1.0623
-0.0805703
-0.240792
-0.398236
-0.55097
-0.696926
-0.833819
-0.959025
-1.06942
-1.16115
-1.2294
-1.26811
-1.27002
-1.2277
-1.1382
-1.01662
-0.089115
-0.266378
-0.440714
-0.610079
-0.772266
-0.924797
-1.06475
-1.18853
-1.29145
-1.36731
-1.40759
-1.40068
-1.33118
-1.18233
-0.965057
-0.0983315
-0.293997
-0.486646
-0.674174
-0.854315
-1.02451
-1.18172
-1.32212
-1.44057
-1.52992
-1.57984
-1.57482
-1.48978
-1.27397
-0.769573
-0.108241
-0.323713
-0.536136
-0.743403
-0.943272
-1.13325
-1.31038
-1.47095
-1.60989
-1.71994
-1.79024
-1.80453
-1.73919
-1.56603
-1.29267
-0.118851
-0.355546
-0.589207
-0.817772
-1.0391
-1.2509
-1.45055
-1.6348
-1.79929
-1.93755
-2.03957
-2.08954
-2.06349
-1.92769
-1.62979
-0.130163
-0.389488
-0.645818
-0.897168
-1.14156
-1.377
-1.6014
-1.81239
-2.00691
-2.18036
-2.32504
-2.42736
-2.46402
-2.40192
-2.23214
-0.142169
-0.425511
-0.70589
-0.981397
-1.25024
-1.51077
-1.76158
-2.00143
-2.22916
-2.44314
-2.63995
-2.81078
-2.93316
-2.95095
-2.7189
-0.154866
-0.463594
-0.769346
-1.07026
-1.36468
-1.65131
-1.92938
-2.1989
-2.46096
-2.71788
-2.9729
-3.22787
-3.47494
-3.6735
-3.72291
-0.168261
-0.503746
-0.836165
-1.16363
-1.48454
-1.79779
-2.10311
-2.40155
-2.69633
-2.99394
-3.3059
-3.65046
-4.05041
-4.49965
-4.73174
-0.182375
-0.546027
-0.906425
-1.26156
-1.60973
-1.9498
-2.28162
-2.60677
-2.92974
-3.26006
-3.61626
-4.03461
-4.59169
-5.47662
-7.27338
-0.197253
-0.590568
-0.98034
-1.36433
-1.74055
-2.10753
-2.46476
-2.8135
-3.15807
-3.50822
-3.88349
-4.32243
-4.90531
-5.8204
-7.59103
-0.212958
-0.63757
-1.05827
-1.4725
-1.87779
-2.27203
-2.65381
-3.02313
-3.38253
-3.73894
-4.10651
-4.51032
-4.98825
-5.57008
-6.10775
-0.22957
-0.687289
-1.14071
-1.58686
-2.02271
-2.44519
-2.85152
-3.23965
-3.60907
-3.96193
-4.30437
-4.64675
-4.99907
-5.35047
-5.61858
-0.24717
-0.739993
-1.22819
-1.7084
-2.1769
-2.62957
-3.06188
-3.46918
-3.84711
-4.19218
-4.50229
-4.77629
-5.01055
-5.18873
-5.25693
-0.265822
-0.795914
-1.32121
-1.83806
-2.3421
-2.82808
-3.2896
-3.71912
-4.10798
-4.4467
-4.72529
-4.93344
-5.061
-5.10338
-5.09111
-0.285551
-0.855163
-1.42011
-1.97661
-2.51986
-3.04357
-3.53956
-3.9973
-4.40368
-4.74299
-4.99722
-5.14657
-5.17062
-5.05599
-4.8349
-0.306315
-0.917654
-1.52487
-2.12436
-2.71117
-3.27832
-3.81608
-4.31114
-4.74595
-5.09837
-5.342
-5.44672
-5.37656
-5.08253
-4.56463
-0.327975
-0.983007
-1.635
-2.28092
-2.91613
-3.53349
-4.12225
-4.66683
-5.14544
-5.5293
-5.78326
-5.8683
-5.73796
-5.26454
-3.69878
-0.350271
-1.05047
-1.74934
-2.44492
-3.13349
-3.8085
-4.45911
-5.06833
-5.61072
-6.05043
-6.34182
-6.43946
-6.33763
-6.2051
-6.88283
-0.372805
-1.11886
-1.86596
-2.61378
-3.36027
-4.10045
-4.82472
-5.51625
-6.14731
-6.67456
-7.03491
-7.14915
-6.95861
-6.58298
-6.92287
-0.39503
-1.18652
-1.98207
-2.78357
-3.59142
-4.40345
-5.21305
-6.00614
-6.75598
-7.41458
-7.89891
-8.07047
-7.7081
-6.46403
-3.63991
-0.416261
-1.25136
-2.09406
-2.94894
-3.81967
-4.70812
-5.61284
-6.52607
-7.42801
-8.27561
-8.98011
-9.36256
-9.06985
-7.44239
-3.45117
-0.435702
-1.31092
-2.19758
-3.10331
-4.03561
-5.0015
-6.00672
-7.05381
-8.13776
-9.236
-10.2849
-11.1235
-11.3585
-10.0622
-5.28403
-0.452494
-1.36253
-2.28786
-3.23923
-4.2282
-5.26755
-6.37152
-7.55596
-8.83757
-10.2306
-11.7358
-13.3037
-14.7104
-15.1001
-11.1376
-0.46578
-1.40351
-2.36005
-3.34902
-4.38582
-5.48871
-6.68042
-7.99062
-9.45998
-11.1474
-13.1431
-15.5957
-18.7685
-23.1602
-29.7083
-12.151
-27.7437
-26.2165
-22.389
-18.8361
-15.8589
-13.366
-11.2327
-9.35966
-7.67477
-6.12623
-4.67589
-3.29468
-1.95936
-0.650272
-119.627
-62.3519
-40.2307
-29.31
-22.8031
-18.3809
-15.0856
-12.4602
-10.2604
-8.3436
-6.62067
-5.03202
-3.53537
-2.09869
-0.695905
-132.977
-72.5479
-46.4666
-33.166
-25.3222
-20.1203
-16.34
-13.3922
-10.9645
-8.8778
-7.02183
-5.32425
-3.73442
-2.21447
-0.733914
-72.9344
-58.891
-43.8271
-33.2323
-26.0066
-20.8724
-17.0163
-13.9629
-11.4318
-9.25175
-7.31301
-5.54164
-3.88493
-2.3029
-0.763082
-51.4233
-45.9428
-38.0838
-30.959
-25.2387
-20.7368
-17.1352
-14.1709
-11.6554
-9.4581
-7.48794
-5.6794
-3.98356
-2.36202
-0.782764
-32.6208
-34.6463
-31.8306
-27.7104
-23.6244
-19.9759
-16.8116
-14.0672
-11.6579
-9.50673
-7.55061
-5.73888
-4.0306
-2.39177
-0.792909
-24.0526
-26.7117
-26.4833
-24.438
-21.7064
-18.8787
-16.1964
-13.7308
-11.4811
-9.41992
-7.51301
-5.72651
-4.02941
-2.39377
-0.793992
-13.3784
-20.7823
-22.3977
-21.642
-19.8551
-17.6806
-15.4306
-13.2444
-11.1733
-9.226
-7.39179
-5.65204
-3.98555
-2.37085
-0.786887
-16.1439
-18.8725
-19.9587
-19.5622
-18.2728
-16.535
-14.6206