/*--------------------------------*- C++ -*----------------------------------*\
| =========                 |                                                 |
| \\      /  F ield         | OpenFOAM: The Open Source CFD Toolbox           |
|  \\    /   O peration     | Version:  5.x                                   |
|   \\  /    A nd           | Web:      www.OpenFOAM.org                      |
|    \\/     M anipulation  |                                                 |
\*---------------------------------------------------------------------------*/
FoamFile
{
    version     2.0;
    format      ascii;
    class       volScalarField;
    location    "11.7";
    object      gradTx;
}
// * * * * * * * * * * * * * * * * * * * * * * * * * * * * * * * * * * * * * //

dimensions      [0 -1 0 1 0 0 0];

internalField   nonuniform List<scalar> 
6300
(
-31.9063
-31.9771
-32.1181
-32.3277
-32.6037
-32.9431
-33.3414
-33.7934
-34.2923
-34.8299
-35.3969
-35.983
-36.577
-37.1677
-37.7444
-31.8355
-31.907
-32.0494
-32.2612
-32.5404
-32.884
-33.2878
-33.7465
-34.2535
-34.8004
-35.3779
-35.9751
-36.5803
-37.1817
-37.7677
-31.6932
-31.766
-31.9111
-32.1273
-32.4128
-32.7647
-33.1793
-33.6515
-34.1746
-34.7405
-35.3392
-35.9591
-36.5875
-37.2109
-37.8164
-31.478
-31.5527
-31.7018
-31.9242
-32.2186
-32.5827
-33.0132
-33.5054
-34.053
-34.6478
-35.2792
-35.9347
-36.5996
-37.2582
-37.8945
-31.1881
-31.2651
-31.4189
-31.6491
-31.9548
-32.3343
-32.7853
-33.3039
-33.8843
-34.5183
-35.1952
-35.9008
-36.6181
-37.3276
-38.009
-30.8211
-30.9006
-31.0597
-31.2985
-31.6169
-32.0145
-32.4899
-33.0406
-33.6618
-34.3461
-35.0825
-35.8553
-36.6445
-37.4253
-38.1705
-30.3747
-30.4566
-30.6208
-30.8683
-31.2
-31.6168
-32.1193
-32.7067
-33.3763
-34.122
-34.9332
-35.7935
-36.6791
-37.5586
-38.3942
-29.8463
-29.9301
-30.0987
-30.3538
-30.6978
-31.1335
-31.6638
-32.2908
-33.0146
-33.8322
-34.735
-35.7065
-36.7199
-37.7358
-38.7017
-29.234
-29.3189
-29.4901
-29.7504
-30.1038
-30.5556
-31.1116
-31.7779
-32.5592
-33.4573
-34.468
-35.5776
-36.7583
-37.963
-39.1207
-28.5368
-28.6214
-28.7924
-29.0539
-29.4116
-29.8735
-30.4493
-31.1501
-31.9871
-32.9698
-34.1022
-35.3777
-36.7726
-38.2372
-39.6833
-27.755
-27.8373
-28.0043
-28.261
-28.6151
-29.0774
-29.662
-30.386
-31.2695
-32.3328
-33.5933
-35.0585
-36.7174
-38.5301
-40.4101
-26.891
-26.9686
-27.1266
-27.3708
-27.7105
-28.1592
-28.7352
-29.4627
-30.372
-31.4988
-32.88
-34.5459
-36.5088
-38.7561
-41.2579
-25.9493
-26.0194
-26.1626
-26.385
-26.697
-27.1136
-27.6569
-28.3575
-29.2573
-30.4105
-31.8823
-33.7374
-36.0178
-38.7301
-41.961
-24.9374
-24.9971
-25.1193
-25.3098
-25.5788
-25.9415
-26.4214
-27.0533
-27.8891
-29.0042
-30.5024
-32.5063
-35.101
-38.1971
-41.6186
-23.8659
-23.9124
-24.0076
-24.1563
-24.3668
-24.6523
-25.0339
-25.5454
-26.2419
-27.2154
-28.619
-30.6912
-33.7007
-37.3807
-38.0642
-38.2538
-38.6939
-39.1099
-39.4998
-39.8627
-40.1986
-40.5077
-40.7907
-41.0478
-41.2788
-41.4831
-41.6597
-41.8077
-41.9263
-42.0154
-42.0759
-42.1096
-42.1196
-42.1096
-42.0839
-42.0467
-42.0019
-41.9523
-41.8998
-41.8448
-41.7868
-41.7243
-41.6553
-41.5779
-41.4907
-41.393
-41.2852
-41.1686
-41.0457
-40.9191
-40.7917
-40.6663
-40.5445
-40.4273
-40.3144
-40.2046
-40.096
-39.9862
-39.8731
-39.7548
-39.6304
-39.5
-39.3647
-39.2264
-39.0876
-38.9509
-38.8184
-38.6919
-38.5719
-38.4582
-38.3494
-38.2436
-38.1386
-38.0321
-37.9223
-37.8084
-37.6903
-37.569
-37.4464
-37.3247
-37.2064
-37.0937
-36.9881
-36.8902
-36.8
-36.7164
-36.6377
-36.5622
-36.4881
-36.4145
-36.3413
-36.2695
-36.2013
-36.1399
-36.089
-36.0526
-36.0346
-36.0379
-36.0641
-36.1134
-36.1842
-36.273
-36.375
-36.4839
-36.5929
-38.2841
-38.7287
-39.1475
-39.5387
-39.9017
-40.237
-40.5455
-40.8281
-41.0853
-41.3172
-41.5229
-41.701
-41.8501
-41.9688
-42.0567
-42.1144
-42.1438
-42.1483
-42.1322
-42.1004
-42.0577
-42.0087
-41.9566
-41.9033
-41.8492
-41.7933
-41.7336
-41.6674
-41.5921
-41.5058
-41.4076
-41.2977
-41.1779
-41.0509
-40.9201
-40.7891
-40.661
-40.5379
-40.421
-40.3099
-40.2029
-40.0976
-39.9911
-39.8805
-39.7635
-39.639
-39.5071
-39.369
-39.2272
-39.0847
-38.9447
-38.8099
-38.6824
-38.5629
-38.451
-38.3451
-38.2426
-38.1408
-38.0367
-37.9283
-37.8143
-37.6948
-37.5709
-37.445
-37.3198
-37.1984
-37.0834
-36.9768
-36.8793
-36.7906
-36.7093
-36.6332
-36.56
-36.4875
-36.414
-36.3393
-36.2644
-36.1916
-36.1247
-36.068
-36.0263
-36.004
-36.0048
-36.0308
-36.0825
-36.1581
-36.2541
-36.365
-36.4838
-36.6028
-38.347
-38.8007
-39.2249
-39.6181
-39.9807
-40.3141
-40.6205
-40.9019
-41.1595
-41.3934
-41.6024
-41.7842
-41.9362
-42.0557
-42.1415
-42.1936
-42.214
-42.2068
-42.1775
-42.1324
-42.078
-42.02
-41.9626
-41.908
-41.8562
-41.8054
-41.7522
-41.6925
-41.6222
-41.5382
-41.4389
-41.3246
-41.1975
-41.0616
-40.9215
-40.7823
-40.6483
-40.5226
-40.4065
-40.2993
-40.1988
-40.1011
-40.0019
-39.897
-39.7831
-39.6584
-39.523
-39.3787
-39.2289
-39.0781
-38.9309
-38.791
-38.6614
-38.543
-38.4353
-38.3357
-38.2407
-38.146
-38.0477
-37.9424
-37.8283
-37.7056
-37.5759
-37.4425
-37.3095
-37.1811
-37.0612
-36.9524
-36.8557
-36.7704
-36.6945
-36.6246
-36.557
-36.488
-36.4152
-36.3376
-36.2561
-36.1735
-36.0947
-36.0254
-35.9719
-35.9402
-35.9354
-35.9607
-36.017
-36.1028
-36.2138
-36.3436
-36.4834
-36.6237
-38.4476
-38.9152
-39.3469
-39.7418
-40.1016
-40.43
-40.7314
-41.0099
-41.2678
-41.5055
-41.7211
-41.9105
-42.0688
-42.1914
-42.2749
-42.3184
-42.3241
-42.2972
-42.2454
-42.1778
-42.1035
-42.0305
-41.9647
-41.9086
-41.8618
-41.821
-41.7802
-41.7328
-41.672
-41.5926
-41.4918
-41.3698
-41.23
-41.0781
-40.9216
-40.7679
-40.6237
-40.4935
-40.3791
-40.2793
-40.1905
-40.1066
-40.0208
-39.9265
-39.8183
-39.6933
-39.5516
-39.3961
-39.2322
-39.0666
-38.9063
-38.7574
-38.6241
-38.5079
-38.4077
-38.3197
-38.2382
-38.1567
-38.0686
-37.9689
-37.8549
-37.7264
-37.5862
-37.4394
-37.2924
-37.1517
-37.0231
-36.9105
-36.8155
-36.7369
-36.6711
-36.6128
-36.5558
-36.4942
-36.4235
-36.3415
-36.2491
-36.1502
-36.051
-35.96
-35.886
-35.8378
-35.8227
-35.8458
-35.909
-36.011
-36.1467
-36.3076
-36.4823
-36.658
-38.5947
-39.0815
-39.5219
-39.9159
-40.2678
-40.5848
-40.8755
-41.1474
-41.4052
-41.6497
-41.8774
-42.0814
-42.253
-42.3834
-42.4658
-42.4976
-42.4811
-42.4235
-42.3362
-42.2328
-42.127
-42.0308
-41.9526
-41.8958
-41.859
-41.8363
-41.8178
-41.7924
-41.7487
-41.6779
-41.5752
-41.4407
-41.2797
-41.1015
-40.9176
-40.74
-40.5789
-40.4415
-40.3304
-40.2437
-40.1751
-40.1149
-40.0522
-39.9759
-39.8775
-39.7522
-39.6
-39.4257
-39.2379
-39.0474
-38.8653
-38.7014
-38.5621
-38.4498
-38.3626
-38.2944
-38.2359
-38.1767
-38.1062
-38.0162
-37.9022
-37.764
-37.6061
-37.4367
-37.2661
-37.1048
-36.9618
-36.8434
-36.7517
-36.6849
-36.6369
-36.5991
-36.5613
-36.5134
-36.4478
-36.3604
-36.2517
-36.127
-35.9958
-35.87
-35.763
-35.6877
-35.6551
-35.673
-35.7453
-35.8707
-36.0433
-36.2516
-36.48
-36.7101
-38.8022
-39.3145
-39.7637
-40.1508
-40.4842
-40.7776
-41.0467
-41.3053
-41.5619
-41.8179
-42.0677
-42.2991
-42.4966
-42.6443
-42.7297
-42.7465
-42.6972
-42.5926
-42.4502
-42.2911
-42.1368
-42.0054
-41.9095
-41.8541
-41.8361
-41.8453
-41.8656
-41.8782
-41.8643
-41.8091
-41.7042
-41.5498
-41.3543
-41.133
-40.9045
-40.6881
-40.5001
-40.3517
-40.2468
-40.1821
-40.1473
-40.127
-40.103
-40.0572
-39.9756
-39.8499
-39.6804
-39.4748
-39.2474
-39.0159
-38.7983
-38.6099
-38.4611
-38.3556
-38.2902
-38.2548
-38.2348
-38.2129
-38.1719
-38.0982
-37.9842
-37.8298
-37.6426
-37.4359
-37.2265
-37.0314
-36.8652
-36.7377
-36.6522
-36.6056
-36.5881
-36.5856
-36.5811
-36.5582
-36.5036
-36.4099
-36.2773
-36.1134
-35.9325
-35.7529
-35.5944
-35.4762
-35.4148
-35.4221
-35.5048
-35.6627
-35.8884
-36.1666
-36.4751
-36.7868
-39.0915
-39.6384
-40.0948
-40.4629
-40.758
-41.0053
-41.2331
-41.466
-41.7192
-41.9954
-42.2844
-42.5656
-42.8119
-42.9952
-43.0922
-43.0907
-42.9931
-42.8162
-42.5881
-42.3427
-42.1135
-41.929
-41.8082
-41.7584
-41.7742
-41.8383
-41.9246
-42.0021
-42.0395
-42.0118
-41.9046
-41.718
-41.4663
-41.1747
-40.8741
-40.5953
-40.3645
-40.199
-40.1052
-40.0773
-40.0988
-40.1445
-40.1849
-40.1903
-40.1368
-40.0109
-39.8125
-39.5553
-39.2629
-38.9644
-38.6891
-38.4614
-38.2978
-38.2039
-38.1743
-38.1932
-38.2366
-38.2764
-38.2846
-38.2382
-38.1244
-37.9431
-37.7071
-37.4389
-37.1661
-36.9164
-36.713
-36.5714
-36.4969
-36.4842
-36.5178
-36.5747
-36.6275
-36.6486
-36.6157
-36.5156
-36.3478
-36.1244
-35.8675
-35.6053
-35.3676
-35.183
-35.0753
-35.0627
-35.156
-35.3571
-35.6578
-36.038
-36.4655
-36.8992
-39.4957
-40.0924
-40.5532
-40.8801
-41.1008
-41.2611
-41.4121
-41.5974
-41.8434
-42.1542
-42.5123
-42.8825
-43.2182
-43.4701
-43.5964
-43.5734
-43.4031
-43.1135
-42.7511
-42.3709
-42.026
-41.7608
-41.6046
-41.5684
-41.6426
-41.7993
-41.9965
-42.1834
-42.3087
-42.329
-42.2194
-41.9799
-41.6356
-41.2294
-40.8122
-40.4335
-40.1348
-39.9432
-39.8686
-39.9015
-40.0153
-40.1698
-40.3171
-40.4082
-40.4025
-40.2762
-40.0295
-39.6863
-39.287
-38.8797
-38.5114
-38.2208
-38.0339
-37.9595
-37.9887
-38.0961
-38.2436
-38.3856
-38.4758
-38.4753
-38.3617
-38.1351
-37.8179
-37.4485
-37.0726
-36.7348
-36.4719
-36.3083
-36.2526
-36.296
-36.4141
-36.5699
-36.7193
-36.8169
-36.8244
-36.7187
-36.4984
-36.1836
-35.8102
-35.4222
-35.0647
-34.7788
-34.599
-34.551
-34.6518
-34.908
-35.313
-35.8414
-36.4468
-37.065
-40.0656
-40.7424
-41.2044
-41.4501
-41.5304
-41.5302
-41.5417
-41.6415
-41.8742
-42.245
-42.723
-43.2489
-43.745
-44.126
-44.3159
-44.2682
-43.9848
-43.5154
-42.94
-42.3481
-41.8238
-41.4354
-41.2285
-41.2194
-41.3922
-41.7022
-42.083
-42.4537
-42.7288
-42.8333
-42.7212
-42.3928
-41.8942
-41.3001
-40.6946
-40.1567
-39.7507
-39.5191
-39.4771
-39.6093
-39.8732
-40.2056
-40.53
-40.7657
-40.8417
-40.7148
-40.3857
-39.898
-39.3226
-38.7389
-38.2215
-37.8311
-37.6079
-37.5659
-37.6905
-37.9413
-38.2585
-38.5694
-38.7975
-38.8753
-38.7619
-38.4576
-38.0037
-37.4675
-36.9244
-36.4452
-36.0876
-35.8899
-35.8656
-36.0004
-36.2559
-36.5744
-36.8856
-37.115
-37.196
-37.087
-36.7852
-36.3271
-35.7738
-35.1953
-34.6586
-34.222
-33.9326
-33.8251
-33.9238
-34.2447
-34.7902
-35.5339
-36.4097
-37.3138
-40.8778
-41.7015
-42.1673
-42.2583
-42.076
-41.7823
-41.5442
-41.4942
-41.7061
-42.1814
-42.8644
-43.6583
-44.4374
-45.0572
-45.3773
-45.3025
-44.8343
-44.0702
-43.1527
-42.2282
-41.4257
-40.8487
-40.5675
-40.6085
-40.944
-41.5033
-42.1841
-42.8614
-43.3948
-43.6494
-43.5345
-43.0508
-42.2902
-41.3871
-40.4798
-39.69
-39.1153
-38.822
-38.8348
-39.1274
-39.6324
-40.253
-40.8707
-41.353
-41.5729
-41.4448
-40.9701
-40.2361
-39.37
-38.5026
-37.7488
-37.2007
-36.9208
-36.9324
-37.2104
-37.691
-38.2825
-38.8726
-39.3355
-39.5508
-39.437
-38.9953
-38.3082
-37.4964
-36.6841
-35.9804
-35.4732
-35.222
-35.2492
-35.5311
-36.0071
-36.5894
-37.1698
-37.6266
-37.8414
-37.7328
-37.2969
-36.6075
-35.774
-34.9082
-34.1081
-33.4534
-33.0043
-32.8024
-32.8756
-33.2582
-33.9821
-35.0362
-36.3317
-37.695
-42.0418
-43.1758
-43.6698
-43.4606
-42.7819
-41.954
-41.2754
-40.9698
-41.1586
-41.8188
-42.8462
-44.0891
-45.3593
-46.42
-47.0072
-46.9035
-46.1099
-44.8459
-43.3753
-41.9327
-40.703
-39.8361
-39.4427
-39.5735
-40.1736
-41.1292
-42.2904
-43.4764
-44.462
-44.9978
-44.879
-44.1075
-42.8913
-41.4801
-40.0959
-38.9134
-38.0746
-37.6841
-37.7898
-38.3394
-39.2251
-40.3045
-41.4065
-42.3184
-42.805
-42.6739
-41.9279
-40.7642
-39.4193
-38.1029
-36.9798
-36.184
-35.8141
-35.9155
-36.4384
-37.281
-38.3084
-39.3587
-40.2303
-40.6999
-40.5844
-39.8863
-38.7921
-37.5261
-36.2874
-35.2328
-34.4899
-34.1532
-34.2661
-34.7824
-35.6053
-36.6069
-37.6321
-38.4865
-38.9527
-38.8499
-38.1738
-37.0956
-35.8204
-34.5266
-33.3483
-32.3886
-31.7203
-31.3833
-31.382
-31.78
-32.6985
-34.191
-36.1562
-38.2965
-43.6826
-45.5692
-46.1844
-45.3409
-43.704
-41.9101
-40.4693
-39.7333
-39.9324
-40.9273
-42.5175
-44.4804
-46.5828
-48.4647
-49.6321
-49.4977
-48.0631
-45.9192
-43.5575
-41.3308
-39.4577
-38.1418
-37.563
-37.8629
-38.891
-40.4593
-42.3611
-44.3798
-46.1771
-47.2888
-47.1633
-45.8047
-43.7732
-41.5342
-39.4214
-37.6419
-36.3884
-35.8316
-36.1057
-37.0676
-38.5389
-40.3234
-42.2159
-43.8962
-44.9268
-44.7885
-43.4871
-41.5534
-39.4277
-37.4247
-35.7395
-34.5539
-34.0289
-34.2914
-35.2062
-36.6047
-38.3014
-40.1022
-41.704
-42.6914
-42.571
-41.3474
-39.5235
-37.5165
-35.6256
-34.0363
-32.9219
-32.4367
-32.7024
-33.5919
-34.9462
-36.5905
-38.3404
-39.9053
-40.8832
-40.7927
-39.6298
-37.8672
-35.8936
-33.9786
-32.2739
-30.9043
-29.959
-29.4808
-29.3134
-29.5522
-30.5882
-32.6652
-35.7285
-39.2825
-45.7855
-49.7835
-50.7901
-48.3658
-44.859
-41.3589
-38.6475
-37.1497
-37.56
-39.1784
-41.6522
-44.671
-48.1237
-51.5384
-54.1314
-53.9644
-51.0375
-47.3061
-43.5453
-40.2196
-37.4103
-35.3859
-34.418
-35.1037
-36.8306
-39.309
-42.2635
-45.6021
-48.8794
-51.3612
-51.2233
-48.471
-44.954
-41.4065
-38.267
-35.6131
-33.6989
-32.7828
-33.431
-35.0622
-37.4015
-40.187
-43.3307
-46.4097
-48.7315
-48.5779
-45.9568
-42.6193
-39.2592
-36.2887
-33.7801
-31.9723
-31.1097
-31.7281
-33.2777
-35.4988
-38.1445
-41.1323
-44.0625
-46.2781
-46.1462
-43.6731
-40.5184
-37.3399
-34.5293
-32.1558
-30.4479
-29.639
-30.2404
-31.7319
-33.8695
-36.422
-39.3149
-42.1694
-44.3523
-44.2796
-41.9494
-38.9425
-35.8825
-33.1276
-30.717
-28.809
-27.525
-27.1306
-26.6601
-26.1765
-26.979
-29.7193
-34.594
-40.9847
-47.3078
-58.2837
-60.2805
-52.9268
-46.0214
-39.6814
-35.0801
-31.8188
-33.448
-36.1974
-40.0023
-44.2365
-49.7194
-55.7954
-62.605
-62.4056
-55.1704
-48.7355
-42.9067
-38.365
-34.2325
-31.1085
-28.892
-30.8451
-33.688
-37.4732
-41.6129
-46.9128
-52.7272
-59.2061
-59.0479
-52.2384
-46.1789
-40.6913
-36.4133
-32.5191
-29.5722
-27.4814
-29.3407
-32.0371
-35.6216
-39.5349
-44.5385
-50.0137
-56.1009
-55.9207
-49.458
-43.7177
-38.5295
-34.4877
-30.8114
-28.0297
-26.0578
-27.8238
-30.3819
-33.7817
-37.495
-42.2451
-47.4502
-53.2451
-53.0928
-46.9804
-41.5474
-36.6336
-32.8036
-29.3169
-26.6792
-24.8106
-26.4967
-28.9415
-32.1955
-35.7635
-40.3446
-45.4008
-51.0695
-51.0174
-45.2432
-40.0945
-35.4323
-31.7807
-28.4362
-25.8152
-23.8102
-24.8899
-24.0256
-20.9489
-20.5792
-23.6997
-31.2766
-44.1182
-41.2706
-79.772
-83.0362
-56.6395
-46.3406
-35.5031
-29.5838
-19.4457
-27.723
-31.6963
-37.7342
-42.004
-50.4608
-58.996
-81.1717
-80.9782
-58.1508
-49.292
-40.4148
-35.921
-29.6024
-25.5246
-17.3617
-25.3053
-29.1884
-35.127
-39.2914
-47.4827
-55.618
-76.6083
-76.4505
-54.9257
-46.58
-38.2345
-34.007
-28.0609
-24.2127
-16.4919
-24.0449
-27.7332
-33.3681
-37.3127
-45.0672
-52.7364
-72.4954
-72.31
-51.9191
-44.0212
-36.1489
-32.1606
-26.5542
-22.921
-15.6235
-22.779
-26.274
-31.6133
-35.3525
-42.7025
-49.9888
-68.7761
-68.6217
-49.3095
-41.8286
-34.3668
-30.5833
-25.2556
-21.8029
-14.8636
-21.6604
-24.9857
-30.0694
-33.6462
-40.69
-47.7502
-66.0245
-65.995
-47.6364
-40.5458
-33.5266
-29.9918
-25.1133
-21.9346
-15.6534
-25.4485
-24.577
-11.8233
-9.15361
-11.2628
-20.3781
-50.2279
-36.7041
-36.8067
-36.8807
-36.9206
-36.9247
-36.8949
-36.8358
-36.7543
-36.6586
-36.5572
-36.4585
-36.3698
-36.2976
-36.2467
-36.2204
-36.724
-36.8353
-36.9147
-36.9564
-36.9587
-36.9241
-36.8581
-36.7685
-36.6643
-36.5546
-36.4484
-36.3534
-36.2763
-36.222
-36.1941
-36.7661
-36.8959
-36.9865
-37.0315
-37.0297
-36.9847
-36.9041
-36.7974
-36.6753
-36.5486
-36.427
-36.3192
-36.2321
-36.1711
-36.1398
-36.8357
-36.9955
-37.1039
-37.1534
-37.1437
-37.0811
-36.9761
-36.8416
-36.6911
-36.5374
-36.3919
-36.2642
-36.1619
-36.0906
-36.0541
-36.9416
-37.1465
-37.2804
-37.3344
-37.3107
-37.2198
-37.0777
-36.9019
-36.7101
-36.518
-36.3389
-36.1838
-36.0606
-35.9754
-35.9319
-37.0982
-37.3685
-37.5367
-37.5931
-37.5447
-37.4099
-37.2128
-36.9783
-36.7293
-36.4854
-36.2622
-36.0713
-35.9214
-35.8185
-35.7661
-37.3289
-37.6927
-37.9048
-37.9566
-37.8652
-37.6624
-37.3853
-37.069
-36.7435
-36.4323
-36.153
-35.9178
-35.7353
-35.611
-35.5481
-37.6717
-38.1685
-38.4331
-38.4634
-38.297
-37.9892
-37.5969
-37.169
-36.7434
-36.3474
-35.9995
-35.7116
-35.491
-35.3421
-35.2671
-38.1903
-38.8767
-39.1956
-39.167
-38.8701
-38.4005
-37.8441
-37.2666
-36.7137
-36.2145
-35.7861
-35.4381
-35.1751
-34.9992
-34.9111
-38.9971
-39.9525
-40.3056
-40.139
-39.616
-38.8987
-38.1122
-37.3397
-36.6304
-36.0107
-35.4924
-35.0795
-34.772
-34.5684
-34.4671
-40.301
-41.6305
-41.9353
-41.4672
-40.5561
-39.4662
-38.3665
-37.3494
-36.4575
-35.7054
-35.0933
-34.6156
-34.2651
-34.0354
-33.9218
-42.5231
-44.3331
-44.3381
-43.2385
-41.6749
-40.0433
-38.5382
-37.234
-36.145
-35.26
-34.5597
-34.0243
-33.6374
-33.3863
-33.2628
-46.6032
-48.8408
-47.8455
-45.4736
-42.8619
-40.494
-38.509
-36.9033
-35.6284
-34.6301
-33.8611
-33.2848
-32.8738
-32.6096
-32.4804
-54.922
-56.5814
-52.7294
-47.9485
-43.8049
-40.562
-38.1004
-36.2417
-34.8354
-33.7707
-32.97
-32.3797
-31.9636
-31.698
-31.5686
-74.5111
-69.8332
-58.5423
-49.7861
-43.8473
-39.8486
-37.0888
-35.1277
-33.7007
-32.6475
-31.8684
-31.3004
-30.9028
-30.6503
-30.5275
-22.8411
-22.8734
-22.9395
-23.0423
-23.187
-23.3825
-23.6431
-23.9936
-24.4782
-25.1823
-26.2828
-28.1808
-31.8441
-39.4964
-53.6645
-21.8869
-21.9054
-21.9429
-22.0003
-22.0794
-22.1829
-22.3164
-22.4896
-22.7226
-23.0594
-23.6091
-24.692
-27.4643
-37.0659
-79.6142
-20.9199
-20.9243
-20.9326
-20.9434
-20.9546
-20.9627
-20.9621
-20.9442
-20.8949
-20.7885
-20.5673
-20.0514
-18.4715
-11.7709
25.4936
-19.9497
-19.9405
-19.9205
-19.8863
-19.8321
-19.7485
-19.6199
-19.4207
-19.1068
-18.5966
-17.7287
-16.1577
-13.152
-7.7148
-3.81994
-18.986
-18.9641
-18.9182
-18.8431
-18.7302
-18.5655
-18.3267
-17.977
-17.4549
-16.6527
-15.3747
-13.2498
-9.541
-2.60087
13.4625
-18.0374
-18.0045
-17.9361
-17.8261
-17.6641
-17.4341
-17.1105
-16.6531
-15.9976
-15.0395
-13.6083
-11.436
-8.17254
-3.82742
-1.97488
-17.1115
-17.0697
-16.9829
-16.8451
-16.6454
-16.3677
-15.9872
-15.4668
-14.7506
-13.7552
-12.3571
-10.3782
-7.5544
-3.32412
4.93743
-16.2148
-16.1659
-16.0653
-15.9069
-15.681
-15.3728
-14.9611
-14.4164
-13.6976
-12.7507
-11.5093
-9.90698
-7.9127
-5.62052
-3.4766
-15.3519
-15.2981
-15.1878
-15.0158
-14.7737
-14.4496
-14.0275
-13.4868
-12.8031
-11.9506
-10.9124
-9.7079
-8.47776
-7.81397
-10.4017
-14.5265
-14.4694
-14.3531
-14.1732
-13.9233
-13.5945
-13.1762
-12.6567
-12.0257
-11.2795
-10.4311
-9.5266
-8.64951
-7.74942
-5.03652
-13.7407
-13.6819
-13.5625
-13.3793
-13.1276
-12.8016
-12.3953
-11.904
-11.3283
-10.6793
-9.98883
-9.32628
-8.83724
-8.94375
-11.8746
-12.9958
-12.9363
-12.8162
-12.633
-12.3836
-12.0645
-11.6732
-11.2101
-10.6819
-10.1079
-9.52717
-9.00547
-8.61142
-8.17675
-5.53912
-12.2921
-12.2329
-12.1137
-11.9327
-11.688
-11.3776
-11.001
-10.5612
-10.0674
-9.5412
-9.02453
-8.59602
-8.4138
-8.93958
-12.5808
-11.6294
-11.5712
-11.454
-11.2767
-11.038
-10.7366
-10.3728
-9.94972
-9.4755
-8.96783
-8.46068
-8.01553
-7.72454
-7.53894
-5.40343
-11.0072
-10.9504
-10.8361
-10.6634
-10.4314
-10.1389
-9.78588
-9.37374
-8.90679
-8.39412
-7.85379
-7.32798
-6.96211
-7.49242
-13.4907
-10.4246
-10.3694
-10.2586
-10.0914
-9.8667
-9.58326
-9.23996
-8.83584
-8.36985
-7.83961
-7.2368
-6.52939
-5.57732
-3.64872
3.70407
-9.88018
-9.82704
-9.72036
-9.55935
-9.34282
-9.06918
-8.73628
-8.34089
-7.87752
-7.3355
-6.69246
-5.90071
-4.87068
-3.57181
-3.4426
-9.37269
-9.32186
-9.21983
-9.06582
-8.85858
-8.59626
-8.27599
-7.89316
-7.4398
-6.90153
-6.25141
-5.43751
-4.35074
-2.68265
1.07264
-8.90049
-8.85224
-8.7554
-8.60925
-8.41261
-8.16357
-7.85915
-7.49439
-7.06107
-6.54525
-5.9241
-5.16381
-4.23449
-3.24295
-3.37643
-8.4618
-8.41636
-8.3252
-8.18775
-8.00301
-7.76936
-7.4842
-7.14326
-6.73962
-6.26212
-5.69342
-5.0075
-4.16147
-3.02199
-0.713662
-8.05467
-8.01222
-7.92715
-7.79909
-7.62738
-7.41093
-7.14798
-6.83567
-6.46946
-6.04234
-5.54416
-4.96239
-4.29225
-3.61274
-3.65232
-7.67701
-7.63768
-7.55896
-7.44074
-7.28281
-7.08479
-6.84604
-6.56552
-6.24161
-5.87191
-5.45295
-4.97865
-4.42956
-3.7041
-2.17751
-7.32668
-7.29049
-7.21821
-7.10998
-6.96609
-6.78694
-6.57311
-6.32551
-6.04556
-5.73568
-5.4002
-5.04685
-4.68937
-4.35179
-4.08338
-7.00147
-6.96838
-6.90241
-6.804
-6.67387
-6.51317
-6.32364
-6.10796
-5.87029
-5.61726
-5.35985
-5.11792
-4.93538
-4.95145
-5.80276
-6.69925
-6.66912
-6.60916
-6.52004
-6.40288
-6.25943
-6.09235
-5.9057
-5.7057
-5.50188
-5.30878
-5.14776
-5.04348
-4.97106
-4.42002
-6.41796
-6.39057
-6.33616
-6.25556
-6.15016
-6.0221
-5.87464
-5.71272
-5.54378
-5.37906
-5.23543
-5.1382
-5.12945
-5.32302
-6.34777
-6.15571
-6.13078
-6.08135
-6.00832
-5.91318
-5.79825
-5.66699
-5.52462
-5.37894
-5.24162
-5.12986
-5.06721
-5.07495
-5.09777
-4.46649
-5.91077
-5.88802
-5.84295
-5.77644
-5.68996
-5.58573
-5.46707
-5.33884
-5.2083
-5.08642
-4.99021
-4.94735
-5.00997
-5.32674
-6.66727
-5.68163
-5.66077
-5.61944
-5.55844
-5.47907
-5.38326
-5.27379
-5.15467
-5.03166
-4.91341
-4.81352
-4.75425
-4.76852
-4.84473
-4.30164
-5.46699
-5.44775
-5.4096
-5.3532
-5.2796
-5.19027
-5.08724
-4.9732
-4.85171
-4.72768
-4.60863
-4.51009
-4.48407
-4.79277
-7.05601
-5.26571
-5.24787
-5.21244
-5.15992
-5.09106
-5.00681
-4.90835
-4.79691
-4.67354
-4.53849
-4.3895
-4.21557
-3.9672
-3.38346
-0.866218
-5.07683
-5.06022
-5.02716
-4.97801
-4.9132
-4.83324
-4.73849
-4.62892
-4.50348
-4.35899
-4.18772
-3.97274
-3.68323
-3.31685
-3.44397
-4.8995
-4.88399
-4.85307
-4.80697
-4.74588
-4.66994
-4.57894
-4.47195
-4.34667
-4.1981
-4.01629
-3.78169
-3.45267
-2.9075
-1.53483
-4.73295
-4.71846
-4.68955
-4.64634
-4.58889
-4.51711
-4.43049
-4.32771
-4.20604
-4.0603
-3.88154
-3.65623
-3.3722
-3.07279
-3.2474
-4.57647
-4.56295
-4.53597
-4.4956
-4.44186
-4.37459
-4.29326
-4.1966
-4.08214
-3.94543
-3.77912
-3.57156
-3.30243
-2.90888
-1.99916
-4.42939
-4.41681
-4.3917
-4.35416
-4.30423
-4.24186
-4.16669
-4.07787
-3.97369
-3.85113
-3.70537
-3.52966
-3.31907
-3.1034
-3.201
-4.29105
-4.27937
-4.25608
-4.22132
-4.17526
-4.11802
-4.04961
-3.96982
-3.87801
-3.77296
-3.65242
-3.51199
-3.33926
-3.08034
-2.433
-4.16084
-4.15
-4.12844
-4.09635
-4.05406
-4.00194
-3.94045
-3.87011
-3.79155
-3.70555
-3.6133
-3.51676
-3.4193
-3.327
-3.25286
-4.03816
-4.02809
-4.0081
-3.97848
-3.93969
-3.89238
-3.83744
-3.77614
-3.71025
-3.64249
-3.57718
-3.52216
-3.49579
-3.56101
-4.02113
-3.92248
-3.91308
-3.89447
-3.86699
-3.83125
-3.78812
-3.73887
-3.68534
-3.63027
-3.57775
-3.53392
-3.50769
-3.50868
-3.52076
-3.28485
-3.81334
-3.80449
-3.78699
-3.76125
-3.72796
-3.68813
-3.64328
-3.59564
-3.54854
-3.50698
-3.47845
-3.47431
-3.51389
-3.65269
-4.20861
-3.71035
-3.70191
-3.68524
-3.66077
-3.62921
-3.59163
-3.54963
-3.50556
-3.46297
-3.42716
-3.40606
-3.41057
-3.45022
-3.49494
-3.19755
-3.61322
-3.60506
-3.58892
-3.56523
-3.53465
-3.49822
-3.45742
-3.41447
-3.37269
-3.33715
-3.3159
-3.32245
-3.38304
-3.57474
-4.30062
-3.52178
-3.51375
-3.49785
-3.47447
-3.44417
-3.40784
-3.36672
-3.32259
-3.27808
-3.23721
-3.20646
-3.1968
-3.22481
-3.28355
-3.01234
-3.43593
-3.42791
-3.412
-3.38851
-3.3579
-3.3208
-3.27811
-3.23097
-3.18096
-3.13026
-3.08237
-3.04502
-3.04525
-3.22148
-4.43096
-3.35566
-3.34755
-3.33143
-3.30752
-3.27613
-3.23767
-3.19259
-3.14137
-3.08433
-3.02135
-2.95098
-2.86714
-2.7435
-2.44184
-1.11484
-3.28103
-3.27275
-3.25627
-3.23172
-3.19928
-3.15913
-3.11135
-3.05581
-2.99183
-2.9176
-2.82895
-2.71691
-2.56537
-2.37422
-2.45165
-3.21216
-3.20367
-3.18673
-3.16142
-3.1278
-3.08589
-3.03552
-2.97613
-2.90646
-2.82387
-2.72316
-2.59411
-2.41476
-2.12006
-1.38083
-3.1492
-3.14046
-3.12301
-3.09688
-3.06209
-3.01854
-2.96595
-2.90359
-2.83007
-2.74273
-2.63707
-2.50626
-2.34427
-2.17457
-2.25787
-3.09231
-3.08331
-3.06532
-3.03838
-3.00246
-2.95749
-2.90316
-2.83883
-2.76327
-2.67433
-2.56846
-2.44005
-2.27914
-2.05338
-1.55653
-3.04168
-3.0324
-3.01386
-2.9861
-2.94914
-2.90294
-2.84732
-2.78187
-2.70578
-2.6177
-2.51551
-2.39643
-2.25906
-2.12042
-2.14621
-2.99751
-2.98793
-2.96882
-2.94023
-2.90225
-2.85494
-2.79832
-2.7323
-2.65663
-2.57087
-2.4743
-2.36552
-2.23987
-2.07325
-1.71924
-2.96
-2.9501
-2.93035
-2.90088
-2.86184
-2.81342
-2.75586
-2.68944
-2.61449
-2.53155
-2.44157
-2.34633
-2.24915
-2.15618
-2.08082
-2.92937
-2.91911
-2.89866
-2.86819
-2.82794
-2.77826
-2.71957
-2.6525
-2.5779
-2.49713
-2.41251
-2.32849
-2.25551
-2.22686
-2.38998
-2.90588
-2.89519
-2.87393
-2.84229
-2.80061
-2.74934
-2.68912
-2.62079
-2.54561
-2.4654
-2.38303
-2.30298
-2.23111
-2.16435
-1.99831
-2.88981
-2.87863
-2.85641
-2.82338
-2.77995
-2.72666
-2.66429
-2.59386
-2.51682
-2.43519
-2.35196
-2.27179
-2.20318
-2.17075
-2.30527
-2.88151
-2.86976
-2.84639
-2.8117
-2.76613
-2.7103
-2.64506
-2.57153
-2.49121
-2.40608
-2.31877
-2.23259
-2.15013
-2.06121
-1.85177
-2.88138
-2.86895
-2.84426
-2.80759
-2.75944
-2.70048
-2.63159
-2.55393
-2.46896
-2.3785
-2.2848
-2.19081
-2.10158
-2.03534
-2.10654
-2.88988
-2.87668
-2.85043
-2.81146
-2.76027
-2.69756
-2.62422
-2.54141
-2.45052
-2.35316
-2.25105
-2.14572
-2.03708
-1.914
-1.68387
-2.90755
-2.89347
-2.86545
-2.82383
-2.76912
-2.70201
-2.62343
-2.53451
-2.43659
-2.33114
-2.21955
-2.10294
-1.9826
-1.867
-1.82813
-2.93502
-2.91993
-2.88992
-2.8453
-2.78657
-2.71444
-2.62983
-2.53387
-2.4279
-2.31338
-2.19153
-2.06276
-1.92484
-1.7667
-1.53709
-2.97297
-2.95678
-2.92454
-2.87657
-2.81335
-2.73556
-2.64411
-2.54018
-2.42517
-2.3007
-2.16833
-2.02893
-1.88112
-1.71603
-1.49476
-3.02217
-3.00476
-2.97009
-2.91843
-2.85024
-2.76615
-2.66707
-2.55418
-2.42902
-2.29353
-2.15
-2.00096
-1.84941
-1.70436
-1.62911
-3.08346
-3.06475
-3.02744
-2.97179
-2.89817
-2.80718
-2.69963
-2.5767
-2.44004
-2.29193
-2.13551
-1.97475
-1.81318
-1.64421
-1.38074
-3.15776
-3.13766
-3.09755
-3.03762
-2.95818
-2.8597
-2.74288
-2.60877
-2.45901
-2.29612
-2.12405
-1.94909
-1.78209
-1.64966
-1.67634
-3.24601
-3.22446
-3.18142
-3.117
-3.03141
-2.92496
-2.79813
-2.65172
-2.48712
-2.30669
-2.11459
-1.91791
-1.727
-1.54462
-1.26342
-3.34924
-3.3262
-3.28014
-3.2111
-3.11914
-3.00438
-2.86698
-2.70732
-2.52621
-2.32535
-2.10833
-1.88273
-1.66598
-1.50819
-1.60766
-3.46847
-3.44393
-3.39482
-3.32111
-3.22272
-3.09951
-2.95128
-2.77782
-2.57902
-2.35525
-2.10804
-1.84141
-1.56403
-1.29311
-1.06843
-3.60475
-3.57871
-3.52659
-3.44827
-3.34354
-3.21203
-3.05312
-2.86592
-2.64918
-2.40143
-2.12124
-1.80755
-1.45759
-1.04589
-0.373132
-3.75912
-3.73162
-3.67656
-3.59378
-3.48297
-3.34357
-3.17462
-2.97453
-2.74088
-2.47013
-2.15771
-1.79888
-1.39403
-0.979966
-0.850345
-3.93259
-3.90367
-3.84578
-3.75875
-3.64225
-3.49565
-3.31774
-3.10646
-2.85833
-2.56779
-2.22641
-1.82219
-1.33687
-0.716496
0.402261
-4.12614
-4.09585
-4.03524
-3.94419
-3.82245
-3.66946
-3.48404
-3.26399
-3.00525
-2.70075
-2.33875
-1.90181
-1.37351
-0.799115
-0.713998
-4.34074
-4.3091
-4.24583
-4.15094
-4.02437
-3.86579
-3.6744
-3.44838
-3.18394
-2.87364
-2.50315
-2.04487
-1.44216
-0.541948
1.37472
-4.57731
-4.54431
-4.47838
-4.37971
-4.2485
-4.08491
-3.88882
-3.65945
-3.39449
-3.08835
-2.72851
-2.28822
-1.71743
-0.990642
-0.801017
-4.83681
-4.80238
-4.73368
-4.63108
-4.49514
-4.32659
-4.12634
-3.89524
-3.63365
-3.34035
-3.00973
-2.62222
-2.10103
-1.0663
2.75048
-5.12022
-5.08424
-5.01253
-4.90562
-4.76441
-4.5903
-4.3853
-4.15221
-3.89482
-3.61827
-3.33047
-3.04904
-2.84127
-3.07391
-6.07834
-5.42862
-5.39093
-5.31582
-5.20397
-5.05654
-4.87546
-4.66376
-4.42606
-4.1693
-3.90401
-3.64678
-3.42471
-3.27568
-3.15667
-1.96264
-5.76321
-5.72359
-5.64464
-5.52703
-5.37204
-5.18189
-4.96029
-4.71315
-4.4497
-4.18416
-3.93868
-3.74965
-3.68923
-3.98598
-5.90824
-6.12531
-6.08357
-6.00031
-5.87605
-5.71195
-5.51017
-5.27455
-5.01157
-4.73156
-4.45039
-4.19137
-3.98528
-3.85476
-3.68645
-2.29818
-6.51639
-6.47239
-6.38444
-6.25275
-6.07803
-5.86194
-5.60783
-5.32182
-5.01421
-4.70124
-4.40731
-4.16845
-4.04653
-4.23411
-5.88701
-6.93804
-6.89174
-6.79895
-6.65934
-6.47285
-6.24011
-5.96325
-5.64708
-5.30059
-4.93888
-4.58501
-4.27039
-4.02336
-3.76419
-2.46068
-7.39183
-7.3434
-7.24596
-7.0985
-6.89979
-6.64891
-6.34598
-5.9934
-5.59755
-5.17107
-4.73546
-4.32541
-4.00863
-4.0195
-5.61886
-7.87926
-7.82908
-7.72771
-7.57323
-7.36297
-7.09386
-6.7632
-6.36976
-5.91578
-5.40959
-4.86816
-4.31566
-3.76636
-3.17167
-2.39794
-8.40154
-8.35031
-8.24636
-8.08672
-7.867
-7.58157
-7.22401
-6.78818
-6.27028
-5.67258
-5.00855
-4.3037
-3.5556
-2.44819
1.36033
-8.95939
-8.90815
-8.80368
-8.64193
-8.41667
-8.11936
-7.73917
-7.26358
-6.68019
-5.98163
-5.17728
-4.32179
-3.59435
-3.60047
-6.95591
-9.55284
-9.50296
-9.40077
-9.24125
-9.01639
-8.7147
-8.32059
-7.81385
-7.1701
-6.36414
-5.38154
-4.25096
-3.12368
-2.42683
-2.88297
-10.1809
-10.1341
-10.0377
-9.88594
-9.66945
-9.37423
-8.98022
-8.45926
-7.77264
-6.86934
-5.68855
-4.17783
-2.35411
-0.452508
0.873234
-10.8415
-10.7997
-10.713
-10.5756
-10.3772
-10.1024
-9.72802
-9.21971
-8.52566
-7.56723
-6.2247
-4.32206
-1.63862
1.92172
5.55011
-11.5312
-11.4963
-11.4237
-11.3076
-11.138
-10.8996
-10.5689
-10.1091
-9.46229
-8.53185
-7.1498
-5.00853
-1.53209
4.24871
12.7467
-12.2451
-12.2191
-12.1646
-12.0767
-11.9466
-11.761
-11.4992
-11.1285
-10.5959
-9.8101
-8.60214
-6.62219
-3.02583
4.68876
25.8447
-146.524
-88.0425
-61.5475
-48.8879
-42.1078
-38.0592
-35.4294
-33.6169
-32.318
-31.3665
-30.6652
-30.1547
-29.7976
-29.5708
-29.4605
-182.269
-82.3837
-54.6716
-43.9882
-38.6296
-35.447
-33.3533
-31.8867
-30.8198
-30.0283
-29.439
-29.0066
-28.7025
-28.5085
-28.414
46.9853
-26.6046
-35.9702
-35.3909
-33.6402
-32.0788
-30.8416
-29.8789
-29.1304
-28.5496
-28.1037
-27.7694
-27.5308
-27.3772
-27.3019
-7.02137
-15.4255
-24.1749
-27.6069
-28.5195
-28.4853
-28.1393
-27.7224
-27.3244
-26.9774
-26.6909
-26.4658
-26.3001
-26.1914
-26.1375
25.9585
-4.00676
-16.0722
-21.5727
-24.0562
-25.1085
-25.4863
-25.5527
-25.4831
-25.3632
-25.2354
-25.1209
-25.0299
-24.9674
-24.9358
-1.40276
-5.01838
-12.5286
-17.6334
-20.5868
-22.2
-23.0495
-23.4775
-23.6766
-23.7544
-23.7708
-23.7597
-23.7399
-23.7221
-23.712
11.4993
-3.32541
-10.6554
-15.1883
-18.048
-19.8218
-20.9056
-21.5611
-21.9544
-22.1882
-22.3254
-22.4044
-22.4485
-22.4715
-22.4812
-3.05615
-6.83706
-10.7247
-13.9051
-16.2634
-17.9229
-19.0591
-19.8268
-20.3429
-20.6891
-20.9204
-21.0734
-21.1717
-21.23
-21.2572
-14.9859
-10.2746
-11.285
-13.193
-14.9639
-16.3874
-17.4684
-18.2674
-18.8495
-19.2697
-19.5699
-19.7805