/*--------------------------------*- C++ -*----------------------------------*\
| =========                 |                                                 |
| \\      /  F ield         | OpenFOAM: The Open Source CFD Toolbox           |
|  \\    /   O peration     | Version:  5.x                                   |
|   \\  /    A nd           | Web:      www.OpenFOAM.org                      |
|    \\/     M anipulation  |                                                 |
\*---------------------------------------------------------------------------*/
FoamFile
{
    version     2.0;
    format      ascii;
    class       volScalarField;
    location    "1.8";
    object      gradTy;
}
// * * * * * * * * * * * * * * * * * * * * * * * * * * * * * * * * * * * * * //

dimensions      [0 -1 0 1 0 0 0];

internalField   nonuniform List<scalar> 
3200
(
17.7223
8.4256
11.4113
8.12969
9.50658
7.88025
8.59588
7.65217
8.07446
7.47459
7.73204
7.39766
7.59323
7.21283
7.40912
7.04896
7.23235
6.90287
7.06962
6.77296
6.92247
6.65811
6.79102
6.55698
6.67485
6.46765
6.57395
6.38705
6.4958
6.33513
6.20393
6.28829
6.17256
6.22871
6.13896
6.18206
6.11129
6.1451
6.08951
6.11591
6.07276
6.09311
6.06016
6.07556
6.05091
6.06228
6.0444
6.0524
6.0403
6.04528
6.03901
6.0422
6.0367
6.03886
6.03603
6.03648
6.03735
6.03543
6.04141
6.03603
6.0496
6.03882
6.06449
6.04449
6.0911
6.05335
6.14037
6.06065
6.23802
6.01457
6.30849
7.12358
6.43688
7.96062
6.79445
9.90868
9.13842
9.02063
8.99631
8.99107
16.5231
9.50441
11.0294
8.57526
9.3136
8.09914
8.48237
7.77696
8.00203
7.55323
7.69071
7.44113
7.54535
7.26038
7.36407
7.09428
7.19124
6.94445
7.03265
6.81046
6.88956
6.69157
6.7619
6.58662
6.64902
6.49387
6.5503
6.41053
6.46951
6.33835
6.22785
6.27417
6.18773
6.21765
6.15047
6.17332
6.12034
6.13824
6.09662
6.1106
6.07829
6.08907
6.0644
6.07255
6.05409
6.06011
6.04673
6.05097
6.0419
6.04455
6.03987
6.04157
6.03744
6.03857
6.03645
6.03668
6.03733
6.0363
6.04077
6.0379
6.04804
6.04229
6.06148
6.05079
6.08561
6.06531
6.13019
6.08659
6.21795
6.09019
6.36679
7.00835
6.6385
7.77831
7.17177
9.51564
9.11239
9.01696
8.99562
8.99093
15.6047
10.2415
10.8067
8.89316
9.19877
8.25416
8.41245
7.86456
7.95658
7.60845
7.66488
7.47047
7.51307
7.29241
7.33398
7.12494
7.16389
6.97265
7.00811
6.83593
6.86774
6.7143
6.7426
6.60675
6.63189
6.51163
6.5345
6.42606
6.45083
6.34075
6.2455
6.26537
6.19825
6.21048
6.15839
6.16762
6.12655
6.13377
6.10151
6.10714
6.0821
6.08644
6.06732
6.07061
6.0563
6.05873
6.04835
6.05006
6.04304
6.04412
6.04047
6.04116
6.03797
6.03842
6.03678
6.03686
6.03737
6.03694
6.04042
6.03924
6.04712
6.04476
6.05967
6.05527
6.08232
6.07386
6.12435
6.10552
6.20823
6.14963
6.41049
6.93357
6.77972
7.66584
7.43108
9.23249
9.07404
9.01032
8.99425
8.9906
14.9009
10.7415
10.6832
9.12232
9.13399
8.36509
8.3708
7.92658
7.92876
7.64751
7.64911
7.49034
7.49133
7.31396
7.31393
7.1457
7.14575
6.99179
6.99188
6.85323
6.85333
6.72977
6.72987
6.62045
6.62058
6.52367
6.52396
6.43626
6.43756
6.34256
6.25856
6.26005
6.20559
6.20588
6.16385
6.16394
6.13083
6.13088
6.10488
6.10491
6.08473
6.08476
6.06935
6.06937
6.05784
6.05785
6.04949
6.0495
6.04385
6.04386
6.0409
6.04091
6.03835
6.03834
6.03703
6.03702
6.03744
6.03742
6.04024
6.04021
6.0466
6.04653
6.05862
6.05848
6.08045
6.08005
6.12127
6.11958
6.20495
6.19629
6.4437
6.88586
6.87933
7.59821
7.60893
9.02772
9.03189
9.00176
8.99237
8.99011
14.3636
11.0775
10.6199
9.28861
9.10045
8.44505
8.34716
7.97077
7.91229
7.67526
7.63977
7.50384
7.47674
7.32843
7.30061
7.15973
7.13379
7.00477
6.98121
6.865
6.84389
6.74029
6.72153
6.62978
6.61316
6.53182
6.51695
6.44291
6.42813
6.34394
6.2682
6.25697
6.21075
6.20298
6.16764
6.16159
6.13379
6.12904
6.10721
6.10349
6.08656
6.08369
6.07076
6.06859
6.05891
6.05731
6.05029
6.04917
6.04442
6.04373
6.0412
6.04075
6.03863
6.03831
6.03723
6.03716
6.03753
6.03779
6.04018
6.04092
6.04633
6.04782
6.05805
6.0608
6.07946
6.08457
6.1199
6.13015
6.20544
6.2327
6.46911
6.8561
6.94992
7.55889
7.73045
8.87953
8.99111
8.99237
8.99021
8.98952
13.9578
11.3004
10.5915
9.40921
9.08563
8.50274
8.33469
8.00226
7.90298
7.69497
7.63447
7.513
7.46701
7.33809
7.29184
7.16918
7.12597
7.01355
6.97426
6.87296
6.83774
6.74743
6.71612
6.6361
6.60833
6.53732
6.5123
6.44719
6.42149
6.34498
6.27526
6.25529
6.21438
6.20118
6.17025
6.16011
6.13584
6.12787
6.10882
6.10261
6.08782
6.08303
6.07174
6.06811
6.05966
6.05698
6.05086
6.04897
6.04484
6.04366
6.04141
6.04066
6.03882
6.03831
6.03738
6.03727
6.03761
6.03806
6.04018
6.04144
6.04621
6.04875
6.05778
6.06247
6.07902
6.08787
6.11953
6.13812
6.20783
6.26073
6.48849
6.83806
6.9999
7.53707
7.81286
8.77284
8.95474
8.98311
8.98798
8.9889
13.6583
11.4455
10.5821
9.49548
9.08122
8.54386
8.32883
8.02445
7.89805
7.7088
7.63162
7.51915
7.46062
7.34446
7.28613
7.17546
7.12092
7.0194
6.9698
6.87829
6.83381
6.75221
6.71266
6.64033
6.60524
6.54098
6.50926
6.44991
6.41688
6.34575
6.28034
6.25446
6.2169
6.2001
6.17204
6.1592
6.13723
6.12716
6.10992
6.10206
6.08869
6.08263
6.07241
6.06782
6.06018
6.05679
6.05125
6.04887
6.04513
6.04364
6.04156
6.04061
6.03897
6.03833
6.0375
6.03737
6.03769
6.03827
6.04021
6.04182
6.04618
6.04941
6.05767
6.06367
6.07887
6.09025
6.11967
6.14404
6.2109
6.28177
6.50299
6.82752
7.03486
7.52569
7.8679
8.69725
8.92449
8.97477
8.9859
8.98831
13.4474
11.5365
10.5817
9.5549
9.08176
8.57212
8.32656
8.03954
7.89565
7.71817
7.63021
7.52317
7.45655
7.34854
7.28253
7.17951
7.11777
7.0232
6.96702
6.88175
6.83137
6.75531
6.71051
6.64308
6.60332
6.54334
6.50733
6.45157
6.4138
6.3463
6.28384
6.2541
6.2186
6.19947
6.17323
6.15866
6.13815
6.12674
6.11065
6.10174
6.08926
6.08239
6.07286
6.06766
6.06052
6.05668
6.05151
6.04881
6.04533
6.04363
6.04167
6.04059
6.03906
6.03834
6.03758
6.03744
6.03775
6.03841
6.04024
6.04208
6.04618
6.04987
6.05765
6.0645
6.07887
6.09191
6.12001
6.14825
6.2138
6.29678
6.51336
6.82165
7.05847
7.52025
7.90344
8.64575
8.90132
8.968
8.98415
8.98781
13.3129
11.5894
10.5842
9.59221
9.08379
8.58984
8.32597
8.04894
7.89462
7.72398
7.62958
7.52559
7.45415
7.35095
7.28043
7.18192
7.11594
7.02546
6.96542
6.88382
6.82997
6.75718
6.70928
6.64473
6.60221
6.54475
6.5062
6.45252
6.41191
6.34666
6.28603
6.25397
6.21965
6.19913
6.17395
6.15836
6.13871
6.1265
6.11109
6.10156
6.08961
6.08226
6.07313
6.06757
6.06073
6.05663
6.05168
6.04879
6.04545
6.04364
6.04173
6.04057
6.03912
6.03836
6.03763
6.03748
6.03779
6.03851
6.04027
6.04225
6.0462
6.05015
6.05767
6.06502
6.07892
6.09296
6.12034
6.15096
6.21599
6.30645
6.52005
6.81865
7.07308
7.51794
7.92462
8.61371
8.8857
8.96324
8.98291
8.98744
13.2475
11.6136
10.5862
9.61022
9.08528
8.59839
8.32594
8.05344
7.89426
7.72677
7.62935
7.52673
7.45304
7.35206
7.27946
7.18305
7.1151
7.02652
6.96469
6.88479
6.82933
6.75805
6.70872
6.6455
6.60171
6.54541
6.50568
6.45294
6.41102
6.34683
6.28709
6.25394
6.22015
6.19899
6.17429
6.15823
6.13897
6.1264
6.1113
6.10149
6.08977
6.08221
6.07326
6.06753
6.06083
6.05661
6.05175
6.04878
6.04551
6.04364
6.04176
6.04057
6.03915
6.03837
6.03766
6.03751
6.03782
6.03855
6.04029
6.04233
6.04622
6.05029
6.05768
6.06527
6.07896
6.09347
6.12054
6.1523
6.21717
6.31118
6.52333
6.8174
7.08007
7.51716
7.93449
8.59834
8.87784
8.96079
8.98225
8.98725
-12.6863
-10.9441
-9.75836
-8.46683
-7.68646
-6.82972
-6.29158
-5.66982
-5.27549
-4.81961
-4.54324
-4.23824
-4.01692
-3.71252
-3.49534
-3.20975
-3.01136
-2.75691
-2.58227
-2.36079
-2.20963
-2.01894
-1.88909
-1.72558
-1.61405
-1.47305
-1.37506
-1.24715
-1.14703
-0.995718
-0.855885
-0.778482
-0.699714
-0.650218
-0.592114
-0.553956
-0.507601
-0.476843
-0.439172
-0.414133
-0.383436
-0.363061
-0.338135
-0.321656
-0.3016
-0.288456
-0.27265
-0.262525
-0.250736
-0.243623
-0.235851
-0.230316
-0.22285
-0.217648
-0.210984
-0.206487
-0.200905
-0.197208
-0.192708
-0.18978
-0.186298
-0.184129
-0.181724
-0.180527
-0.179801
-0.180689
-0.184436
-0.19248
-0.213775
-0.255072
-0.359308
-0.52252
-0.690388
-0.996712
-1.31641
-1.85083
-2.07679
-2.14392
-2.1613
-2.16534
-12.7561
-10.922
-9.76274
-8.44652
-7.68965
-6.8171
-6.29503
-5.66083
-5.27805
-4.81253
-4.54448
-4.23498
-4.02033
-3.70911
-3.49815
-3.20633
-3.01366
-2.75377
-2.5842
-2.35803
-2.21126
-2.01654
-1.89048
-1.72354
-1.61526
-1.47136
-1.37629
-1.24606
-1.14909
-0.995272
-0.853395
-0.778541
-0.698545
-0.650562
-0.591312
-0.554279
-0.506969
-0.47711
-0.438655
-0.414346
-0.383008
-0.363226
-0.337779
-0.321779
-0.301302
-0.288539
-0.272398
-0.262566
-0.250522
-0.243622
-0.235733
-0.230364
-0.222729
-0.217676
-0.210865
-0.206498
-0.200796
-0.197206
-0.192609
-0.189766
-0.186209
-0.184102
-0.181638
-0.18047
-0.179698
-0.180536
-0.184224
-0.19191
-0.212934
-0.252513
-0.356905
-0.522288
-0.684802
-0.996126
-1.30777
-1.86311
-2.08308
-2.14585
-2.16177
-2.16544
-12.8995
-10.8731
-9.77354
-8.40397
-7.69759
-6.79057
-6.30309
-5.64189
-5.28403
-4.79764
-4.54746
-4.22801
-4.02768
-3.70177
-3.50427
-3.19901
-3.01872
-2.74708
-2.58845
-2.35214
-2.21486
-2.01145
-1.89354
-1.71918
-1.61793
-1.46774
-1.37894
-1.24365
-1.15345
-0.99436
-0.848232
-0.778811
-0.696096
-0.651355
-0.589618
-0.555007
-0.505631
-0.477711
-0.43756
-0.414826
-0.382101
-0.363601
-0.337025
-0.32206
-0.300673
-0.288735
-0.271869
-0.26267
-0.250075
-0.243632
-0.235485
-0.230473
-0.222474
-0.217742
-0.210617
-0.206529
-0.200569
-0.197209
-0.192406
-0.189745
-0.186025
-0.184051
-0.181463
-0.180359
-0.179492
-0.180229
-0.183813
-0.190766
-0.21131
-0.247319
-0.352019
-0.522125
-0.673216
-0.995476
-1.28932
-1.88874
-2.0956
-2.1496
-2.16267
-2.16563
-13.1241
-10.7872
-9.7953
-8.33503
-7.71368
-6.74739
-6.31821
-5.61091
-5.29525
-4.77339
-4.55331
-4.21637
-4.04013
-3.68936
-3.51477
-3.18676
-3.0275
-2.73594
-2.59586
-2.34234
-2.22115
-2.00298
-1.8989
-1.71193
-1.62259
-1.4617
-1.38348
-1.23947
-1.16058
-0.992943
-0.840008
-0.779617
-0.692128
-0.652827
-0.586836
-0.55632
-0.503426
-0.478792
-0.435756
-0.415693
-0.38061
-0.364282
-0.335788
-0.322579
-0.299643
-0.289104
-0.271009
-0.262883
-0.249355
-0.243683
-0.235083
-0.230672
-0.222058
-0.217874
-0.210214
-0.206602
-0.200203
-0.197236
-0.192081
-0.189731
-0.185735
-0.183988
-0.18119
-0.1802
-0.179182
-0.179769
-0.183227
-0.189038
-0.209027
-0.239336
-0.344474
-0.522676
-0.654735
-0.995912
-1.2586
-1.93002
-2.11417
-2.15491
-2.16392
-2.16587
-13.4424
-10.6476
-9.83593
-8.23266
-7.7437
-6.68283
-6.34457
-5.56438
-5.31481
-4.73717
-4.56392
-4.19838
-4.05966
-3.66999
-3.53148
-3.16783
-3.04164
-2.71878
-2.60787
-2.32729
-2.23136
-1.98998
-1.90761
-1.70082
-1.63014
-1.45237
-1.39068
-1.2327
-1.17128
-0.990949
-0.828089
-0.781511
-0.686234
-0.655367
-0.58263
-0.558523
-0.500083
-0.480599
-0.433021
-0.417148
-0.378353
-0.365433
-0.33392
-0.323467
-0.298096
-0.289753
-0.269725
-0.263288
-0.248293
-0.243824
-0.234485
-0.231011
-0.221435
-0.218113
-0.209618
-0.206754
-0.199667
-0.197316
-0.191609
-0.189747
-0.185319
-0.183931
-0.180807
-0.180005
-0.17877
-0.179156
-0.182507
-0.186703
-0.20629
-0.228319
-0.333963
-0.525028
-0.627843
-0.999435
-1.21148
-1.99073
-2.13842
-2.16144
-2.16538
-2.16613
-13.8726
-10.4289
-9.90837
-8.08584
-7.79671
-6.58948
-6.38872
-5.49672
-5.3476
-4.68487
-4.58231
-4.1714
-4.08929
-3.64064
-3.55727
-3.13946
-3.0637
-2.69321
-2.62672
-2.30491
-2.24744
-1.97066
-1.92134
-1.68429
-1.642
-1.43843
-1.40175
-1.2221
-1.18675
-0.988269
-0.811525
-0.785359
-0.677765
-0.65958
-0.576474
-0.562094
-0.495173
-0.483522
-0.429006
-0.419506
-0.375046
-0.367311
-0.331192
-0.324932
-0.295847
-0.290848
-0.267874
-0.264011
-0.246785
-0.244133
-0.233624
-0.231565
-0.220532
-0.21853
-0.208765
-0.207044
-0.198909
-0.197498
-0.190949
-0.189831
-0.184745
-0.183907
-0.180295
-0.179791
-0.178255
-0.178386
-0.181715
-0.183715
-0.203416
-0.213917
-0.319993
-0.530865
-0.590154
-1.00929
-1.14161
-2.07664
-2.16759
-2.16867
-2.16692
-2.16637
-14.4408
-10.0934
-10.033
-7.87781
-7.88657
-6.45598
-6.46061
-5.39944
-5.40102
-4.61023
-4.61311
-4.13134
-4.13367
-3.59675
-3.59651
-3.09747
-3.09762
-2.65553
-2.65583
-2.272
-2.27233
-1.94229
-1.94261
-1.66
-1.66035
-1.41784
-1.41856
-1.20573
-1.20877
-0.98473
-0.788943
-0.792467
-0.665718
-0.66639
-0.567566
-0.567763
-0.488045
-0.48815
-0.423178
-0.423252
-0.370255
-0.37031
-0.327251
-0.327292
-0.292613
-0.29264
-0.265235
-0.265245
-0.244669
-0.244731
-0.232399
-0.232452
-0.21924
-0.219229
-0.207561
-0.207561
-0.197851
-0.197854
-0.19004
-0.190042
-0.183968
-0.183961
-0.179624
-0.179583
-0.177639
-0.177453
-0.180941
-0.179982
-0.200872
-0.195655
-0.301793
-0.542723
-0.538029
-1.03057
-1.03959
-2.19626
-2.20031
-2.17595
-2.16835
-2.16652
-15.183
-9.58652
-10.2416
-7.58333
-8.03412
-6.26517
-6.57524
-5.25974
-5.48622
-4.50393
-4.66338
-4.07199
-4.19969
-3.53146
-3.65576
-3.03557
-3.14928
-2.6002
-2.70035
-2.22376
-2.31048
-1.90073
-1.97523
-1.62442
-1.68844
-1.38753
-1.44394
-1.18075
-1.23989
-0.98007
-0.758392
-0.804792
-0.648574
-0.67718
-0.554692
-0.576624
-0.477715
-0.495375
-0.414738
-0.429109
-0.363327
-0.37502
-0.32157
-0.331025
-0.287972
-0.295512
-0.261478
-0.267281
-0.241704
-0.245802
-0.230655
-0.233846
-0.217394
-0.220369
-0.205864
-0.208439
-0.196376
-0.198495
-0.188789
-0.190466
-0.182918
-0.184157
-0.178749
-0.179419
-0.176919
-0.176341
-0.180311
-0.175342
-0.199339
-0.172905
-0.278165
-0.564368
-0.465976
-1.07115
-0.891623
-2.36194
-2.23411
-2.18252
-2.16951
-2.16655
-16.1492
-8.8297
-10.5828
-7.16457
-8.27054
-5.99127
-6.75498
-5.05843
-5.61985
-4.35202
-4.74375
-3.98393
-4.2976
-3.43451
-3.74484
-2.94436
-3.22749
-2.51894
-2.76799
-2.15303
-2.36852
-1.83983
-2.0249
-1.57227
-1.73116
-1.34296
-1.48212
-1.14289
-1.28378
-0.973893
-0.717118
-0.825225
-0.624036
-0.694014
-0.536036
-0.590317
-0.462716
-0.506525
-0.402487
-0.438165
-0.353289
-0.382324
-0.313357
-0.336845
-0.281291
-0.30003
-0.256109
-0.270555
-0.237532
-0.247624
-0.228156
-0.236005
-0.214749
-0.222186
-0.203459
-0.20988
-0.194308
-0.199584
-0.187056
-0.191234
-0.18149
-0.184594
-0.177605
-0.179356
-0.176095
-0.17502
-0.18001
-0.169515
-0.199794
-0.144859
-0.247269
-0.601361
-0.365748
-1.14308
-0.677626
-2.59149
-2.26481
-2.18749
-2.17021
-2.16642
-17.4084
-7.71015
-11.131
-6.56498
-8.64253
-5.59577
-7.03325
-4.7669
-5.82676
-4.13383
-4.87029
-3.85302
-4.44269
-3.29071
-3.87845
-2.80988
-3.34546
-2.39944
-2.87025
-2.04912
-2.45639
-1.75042
-2.10012
-1.49569
-1.79579
-1.27731
-1.53947
-1.08584
-1.34572
-0.965608
-0.661253
-0.858037
-0.58865
-0.719968
-0.508885
-0.61128
-0.440849
-0.523581
-0.384634
-0.452029
-0.338675
-0.393532
-0.301425
-0.345806
-0.271612
-0.307031
-0.248377
-0.275701
-0.231604
-0.250598
-0.224532
-0.239297
-0.210922
-0.225017
-0.200013
-0.212166
-0.19137
-0.201349
-0.184616
-0.192521
-0.179507
-0.185393
-0.176068
-0.179452
-0.175141
-0.173413
-0.180284
-0.162014
-0.203612
-0.110475
-0.206259
-0.661892
-0.224954
-1.26466
-0.368402
-2.91059
-2.28547
-2.19
-2.17031
-2.16606
17.4083
7.71021
11.1311
6.56503
8.64256
5.59581
7.03329
4.76694
5.82679
4.13387
4.87032
3.85306
4.44272
3.29074
3.87847
2.80991
3.34548
2.39948
2.87028
2.04916
2.45642
1.75046
2.10016
1.49574
1.79583
1.27736
1.53951
1.08588
1.34577
0.965653
0.661292
0.858078
0.588683
0.720005
0.508913
0.611312
0.440872
0.523608
0.384652
0.452051
0.33869
0.39355
0.301437
0.345821
0.271623
0.307044
0.248385
0.275711
0.231611
0.250606
0.224538
0.239304
0.210927
0.225023
0.200017
0.21217
0.191373
0.201352
0.184618
0.192523
0.179508
0.185395
0.176069
0.179453
0.175141
0.173414
0.180283
0.162014
0.203609
0.11047
0.206251
0.661904
0.224939
1.26472
0.368388
2.91079
2.28562
2.19013
2.17044
2.16617
16.1491
8.82974
10.5828
7.1646
8.27056
5.99129
6.755
5.05845
5.61987
4.35205
4.74377
3.98395
4.29763
3.43453
3.74486
2.94439
3.22752
2.51897
2.76802
2.15306
2.36855
1.83986
2.02493
1.57231
1.73119
1.343
1.48216
1.14293
1.28382
0.973937
0.717156
0.825265
0.62407
0.69405
0.536066
0.590348
0.462741
0.506552
0.402508
0.438188
0.353306
0.382344
0.313373
0.336862
0.281304
0.300045
0.25612
0.270567
0.237542
0.247635
0.228165
0.236015
0.214757
0.222195
0.203467
0.209888
0.194315
0.199591
0.187062
0.191241
0.181495
0.1846
0.17761
0.179362
0.1761
0.175025
0.180013
0.169519
0.199795
0.144859
0.247269
0.601376
0.365749
1.14314
0.677644
2.59167
2.26496
2.18763
2.17036
2.16654
15.1829
9.58655
10.2416
7.58334
8.03413
6.26518
6.57526
5.25975
5.48624
4.50395
4.6634
4.072
4.1997
3.53147
3.65577
3.03559
3.14929
2.60022
2.70038
2.22379
2.3105
1.90076
1.97526
1.62445
1.68848
1.38757
1.44398
1.18079
1.23993
0.980111
0.758428
0.80483
0.648608
0.677215
0.554721
0.576655
0.47774
0.495401
0.41476
0.429132
0.363346
0.375039
0.321586
0.331042
0.287987
0.295527
0.26149
0.267294
0.241715
0.245814
0.230665
0.233857
0.217404
0.220379
0.205873
0.208449
0.196384
0.198503
0.188797
0.190474
0.182926
0.184165
0.178757
0.179427
0.176926
0.176348
0.180316
0.175348
0.199343
0.172908
0.278168
0.564383
0.465986
1.0712
0.891661
2.3621
2.23426
2.18266
2.16966
2.16669
14.4408
10.0934
10.033
7.87783
7.88659
6.456
6.46064
5.39946
5.40104
4.61026
4.61313
4.13136
4.13369
3.59677
3.59653
3.0975
3.09764
2.65556
2.65586
2.27203
2.27236
1.94232
1.94264
1.66004
1.66039
1.41787
1.4186
1.20577
1.20881
0.984769
0.78898
0.792505
0.665752
0.666424
0.567595
0.567792
0.48807
0.488175
0.423199
0.423273
0.370272
0.370328
0.327266
0.327308
0.292626
0.292654
0.265246
0.265256
0.244678
0.244741
0.232408
0.232461
0.219248
0.219237
0.207568
0.207568
0.197857
0.197861
0.190046
0.190048
0.183974
0.183966
0.179629
0.179588
0.177643
0.177458
0.180944
0.179985
0.200874
0.195656
0.301795
0.542735
0.538041
1.03062
1.03964
2.1964
2.20045
2.17609
2.1685
2.16667
13.8726
10.4289
9.90839
8.08587
7.79674
6.58951
6.38874
5.49675
5.34762
4.68489
4.58233
4.17142
4.08932
3.64067
3.5573
3.13949
3.06373
2.69324
2.62675
2.30494
2.24747
1.9707
1.92137
1.68433
1.64204
1.43847
1.40179
1.22214
1.18679
0.988309
0.811563
0.785396
0.677799
0.659614
0.576504
0.562123
0.495198
0.483546
0.429027
0.419527
0.375063
0.367328
0.331206
0.324946
0.295859
0.290859
0.267883
0.26402
0.246793
0.244141
0.233631
0.231572
0.220538
0.218536
0.208771
0.20705
0.198914
0.197503
0.190953
0.189835
0.184748
0.18391
0.180298
0.179793
0.178257
0.178388
0.181716
0.183716
0.203415
0.213916
0.319994
0.530874
0.590167
1.00933
1.14166
2.07677
2.16773
2.1688
2.16706
2.16651
13.4424
10.6477
9.83595
8.23269
7.74373
6.68286
6.3446
5.56441
5.31484
4.7372
4.56395
4.19841
4.05968
3.67002
3.53151
3.16786
3.04167
2.71882
2.6079
2.32733
2.23139
1.99002
1.90765
1.70086
1.63018
1.45241
1.39072
1.23275
1.17132
0.99099
0.828128
0.78155
0.686269
0.6554
0.582659
0.558552
0.500108
0.480624
0.433042
0.417168
0.37837
0.365449
0.333934
0.32348
0.298108
0.289764
0.269734
0.263297
0.248301
0.243831
0.234491
0.231017
0.22144
0.218118
0.209622
0.206759
0.199671
0.19732
0.191612
0.18975
0.185321
0.183933
0.180808
0.180007
0.178771
0.179156
0.182507
0.186703
0.206288
0.228317
0.333963
0.525036
0.627857
0.999475
1.21153
1.99085
2.13855
2.16157
2.16552
2.16628
13.1242
10.7872
9.79532
8.33506
7.71371
6.74742
6.31825
5.61095
5.29528
4.77343
4.55334
4.2164
4.04017
3.68939
3.5148
3.18679
3.02753
2.73597
2.5959
2.34237
2.22118
2.00301
1.89893
1.71197
1.62263
1.46174
1.38352
1.23951
1.16062
0.992984
0.840048
0.779656
0.692164
0.652861
0.586866
0.556349
0.503452
0.478816
0.435777
0.415713
0.380628
0.364298
0.335802
0.322592
0.299655
0.289115
0.271018
0.262892
0.249362
0.24369
0.235089
0.230678
0.222063
0.217878
0.210218
0.206606
0.200207
0.197239
0.192084
0.189733
0.185737
0.18399
0.181191
0.180201
0.179182
0.179769
0.183226
0.189037
0.209025
0.239334
0.344475
0.522685
0.654752
0.995951
1.25866
1.93013
2.1143
2.15504
2.16405
2.16602
12.8995
10.8731
9.77357
8.404
7.69762
6.79061
6.30313
5.64192
5.28406
4.79767
4.54749
4.22805
4.02771
3.7018
3.5043
3.19904
3.01875
2.74712
2.58849
2.35217
2.21489
2.01149
1.89358
1.71922
1.61797
1.46778
1.37898
1.2437
1.15349
0.994402
0.848273
0.77885
0.696132
0.651389
0.58965
0.555036
0.505657
0.477736
0.437582
0.414847
0.382119
0.363618
0.33704
0.322074
0.300685
0.288746
0.271879
0.262679
0.250083
0.24364
0.235492
0.230479
0.22248
0.217748
0.210621
0.206533
0.200572
0.197212
0.192409
0.189748
0.186028
0.184053
0.181464
0.180361
0.179492
0.180229
0.183812
0.190765
0.211309
0.247318
0.352021
0.522134
0.673235
0.995517
1.28938
1.88885
2.09573
2.14973
2.1628
2.16577
12.7562
10.922
9.76276
8.44655
7.68968
6.81713
6.29507
5.66086
5.27809
4.81256
4.54451
4.23501
4.02036
3.70914
3.49818
3.20636
3.01369
2.7538
2.58424
2.35806
2.2113
2.01658
1.89052
1.72358
1.6153
1.4714
1.37633
1.2461
1.14914
0.995314
0.853437
0.778581
0.698581
0.650596
0.591344
0.554309
0.506996
0.477135
0.438677
0.414367
0.383026
0.363243
0.337794
0.321793
0.301314
0.288551
0.272409
0.262576
0.25053
0.24363
0.23574
0.230371
0.222735
0.217682
0.210871
0.206503
0.200801
0.19721
0.192613
0.18977
0.186212
0.184105
0.181641
0.180472
0.1797
0.180537
0.184224
0.19191
0.212934
0.252513
0.356908
0.522299
0.684823
0.996169
1.30783
1.86322
2.08321
2.14599
2.1619
2.16558
12.6863
10.9441
9.75838
8.46686
7.6865
6.82976
6.29161
5.66985
5.27552
4.81965
4.54327
4.23827
4.01695
3.71255
3.49537
3.20978
3.01139
2.75694
2.58231
2.36082
2.20967
2.01897
1.88913
1.72562
1.61409
1.4731
1.37511
1.24719
1.14707
0.99576
0.855927
0.778522
0.699751
0.650253
0.592146
0.553986
0.507628
0.476869
0.439195
0.414154
0.383455
0.363079
0.338151
0.321671
0.301613
0.288468
0.272661
0.262535
0.250745
0.243632
0.235859
0.230324
0.222857
0.217655
0.21099
0.206493
0.20091
0.197213
0.192712
0.189784
0.186302
0.184133
0.181727
0.18053
0.179804
0.180691
0.184437
0.192481
0.213776
0.255073
0.359312
0.522532
0.69041
0.996757
1.31648
1.85094
2.07692
2.14406
2.16142
2.16548
-13.2507
-11.6182
-10.5924
-9.61973
-9.09859
-8.61901
-8.35495
-8.09856
-7.95664
-7.81704
-7.72111
-7.59451
-7.50553
-7.38988
-7.30938
-7.20566
-7.13368
-7.04116
-6.97707
-6.89486
-6.83802
-6.76528
-6.71506
-6.65085
-6.60645
-6.54945
-6.50927
-6.456
-6.4137
-6.34898
-6.28878
-6.25539
-6.22137
-6.20007
-6.17522
-6.15906
-6.13969
-6.12704
-6.11186
-6.10198
-6.0902
-6.08258
-6.07358
-6.06781
-6.06107
-6.05682
-6.05193
-6.04893
-6.04564
-6.04375
-6.04186
-6.04065
-6.03923
-6.03843
-6.03771
-6.03755
-6.03785
-6.03858
-6.04031
-6.04234
-6.04623
-6.0503
-6.05769
-6.06528
-6.07897
-6.09348
-6.12056
-6.15232
-6.21721
-6.31123
-6.52342
-6.81752
-7.08022
-7.51736
-7.93471
-8.59861
-8.87813
-8.96109
-8.98255
-8.98755
-13.3161
-11.5939
-10.5903
-9.60171
-9.09696
-8.61042
-8.35467
-8.094
-7.95657
-7.81532
-7.72235
-7.59302
-7.50662
-7.38849
-7.31033
-7.2044
-7.13451
-7.04003
-6.9778
-6.89385
-6.83867
-6.76438
-6.71562
-6.65006
-6.60695
-6.54878
-6.5098
-6.45557
-6.4146
-6.3488
-6.28771
-6.25542
-6.22086
-6.20022
-6.17487
-6.15919
-6.13942
-6.12715
-6.11165
-6.10206
-6.09003
-6.08264
-6.07345
-6.06785
-6.06097
-6.05684
-6.05185
-6.04894
-6.04558
-6.04375
-6.04183
-6.04066
-6.0392
-6.03842
-6.03769
-6.03752
-6.03783
-6.03853
-6.0403
-6.04226
-6.04622
-6.05016
-6.05768
-6.06503
-6.07894
-6.09297
-6.12036
-6.15099
-6.21603
-6.3065
-6.52014
-6.81877
-7.07324
-7.51814
-7.92484
-8.61398
-8.88599
-8.96354
-8.9832
-8.98774
-13.4504
-11.541
-10.5877
-9.56437
-9.09463
-8.59262
-8.35462
-8.08454
-7.95668
-7.81168
-7.72508
-7.58984
-7.50899
-7.38552
-7.3124
-7.20172
-7.13634
-7.03763
-6.97942
-6.8917
-6.84008
-6.76247
-6.71686
-6.64839
-6.60807
-6.54735
-6.51094
-6.45461
-6.4165
-6.34845
-6.2855
-6.25554
-6.21981
-6.20056
-6.17415
-6.15949
-6.13886
-6.12738
-6.1112
-6.10224
-6.08968
-6.08277
-6.07317
-6.06794
-6.06076
-6.05689
-6.05169
-6.04897
-6.04545
-6.04375
-6.04177
-6.04067
-6.03913
-6.03841
-6.03763
-6.03748
-6.03778
-6.03844
-6.04026
-6.0421
-6.0462
-6.04988
-6.05766
-6.06451
-6.07889
-6.09193
-6.12003
-6.14828
-6.21384
-6.29683
-6.51345
-6.82178
-7.05863
-7.52045
-7.90367
-8.64602
-8.90161
-8.9683
-8.98445
-8.9881
-13.6611
-11.4499
-10.5879
-9.50492
-9.09364
-8.5643
-8.35588
-8.06942
-7.9575
-7.80574
-7.72977
-7.5845
-7.51309
-7.38056
-7.31599
-7.19724
-7.13952
-7.03361
-6.98222
-6.88812
-6.84255
-6.75929
-6.71903
-6.64558
-6.61001
-6.54495
-6.51288
-6.45293
-6.4196
-6.34789
-6.28197
-6.2559
-6.2181
-6.20119
-6.17296
-6.16004
-6.13794
-6.12781
-6.11047
-6.10256
-6.0891
-6.08301
-6.07272
-6.06811
-6.06041
-6.057
-6.05142
-6.04902
-6.04525
-6.04375
-6.04166
-6.0407
-6.03904
-6.03839
-6.03755
-6.03741
-6.03772
-6.0383
-6.04023
-6.04184
-6.04619
-6.04942
-6.05768
-6.06368
-6.07888
-6.09027
-6.11969
-6.14406
-6.21094
-6.28182
-6.50308
-6.82765
-7.03501
-7.52589
-7.86812
-8.69753
-8.92479
-8.97507
-8.98619
-8.98861
-13.9604
-11.3048
-10.597
-9.41865
-9.09739
-8.52317
-8.36028
-8.04734
-7.95994
-7.79678
-7.73725
-7.57623
-7.51965
-7.37289
-7.32176
-7.19033
-7.14463
-7.02743
-6.98674
-6.8826
-6.84653
-6.75439
-6.72252
-6.64127
-6.61313
-6.54124
-6.51594
-6.45018
-6.42424
-6.3471
-6.27685
-6.25674
-6.21556
-6.20227
-6.17116
-6.16095
-6.13654
-6.12853
-6.10936
-6.10311
-6.08823
-6.08341
-6.07205
-6.0684
-6.05989
-6.0572
-6.05103
-6.04913
-6.04496
-6.04378
-6.04151
-6.04075
-6.03889
-6.03838
-6.03743
-6.03732
-6.03764
-6.03809
-6.0402
-6.04146
-6.04622
-6.04876
-6.05779
-6.06248
-6.07903
-6.08788
-6.11955
-6.13815
-6.20787
-6.26078
-6.48858
-6.83819
-7.00005
-7.53727
-7.81308
-8.77312
-8.95503
-8.9834
-8.98827
-8.9892
-14.3659
-11.0819
-10.6249
-9.29812
-9.1113
-8.46561
-8.37072
-8.01626
-7.96543
-7.7837
-7.74882
-7.5638
-7.52983
-7.36141
-7.33075
-7.18001
-7.15262
-7.01819
-6.99381
-6.87437
-6.85275
-6.74709
-6.728
-6.63485
-6.618
-6.53567
-6.52063
-6.44585
-6.43094
-6.34604
-6.26973
-6.25842
-6.21191
-6.20408
-6.16853
-6.16244
-6.13448
-6.1297
-6.10774
-6.104
-6.08696
-6.08408
-6.07106
-6.06888
-6.05914
-6.05753
-6.05046
-6.04932
-6.04454
-6.04384
-6.04129
-6.04084
-6.03869
-6.03838
-6.03728
-6.0372
-6.03756
-6.03782
-6.0402
-6.04094
-6.04634
-6.04783
-6.05806
-6.06081
-6.07948
-6.08458
-6.11992
-6.13018
-6.20547
-6.23274
-6.46919
-6.85624
-6.95007
-7.5591
-7.73066
-8.87982
-8.99141
-8.99266
-8.9905
-8.98982
-14.9029
-10.746
-10.6877
-9.13203
-9.14359
-8.38605
-8.39156
-7.97307
-7.97618
-7.76476
-7.76641
-7.54535
-7.54541
-7.34443
-7.34457
-7.16476
-7.1649
-7.00457
-7.0047
-6.86223
-6.86235
-6.73633
-6.73645
-6.62537
-6.6255
-6.52741
-6.52771
-6.43913
-6.44043
-6.34465
-6.26002
-6.26152
-6.20671
-6.207
-6.16472
-6.1648
-6.13151
-6.13155
-6.1054
-6.10543
-6.08513
-6.08515
-6.06965
-6.06967
-6.05806
-6.05807
-6.04965
-6.04966
-6.04396
-6.04398
-6.04099
-6.041
-6.03842
-6.03841
-6.03708
-6.03707
-6.03747
-6.03745
-6.04026
-6.04023
-6.04661
-6.04654
-6.05862
-6.05848
-6.08046
-6.08006
-6.12129
-6.1196
-6.20499
-6.19633
-6.44378
-6.88601
-6.87947
-7.59842
-7.60914
-9.02802
-9.03219
-9.00206
-8.99267
-8.9904
-15.6062
-10.2462
-10.8104
-8.90327
-9.20667
-8.27598
-8.42938
-7.91302
-7.99553
-7.73733
-7.79292
-7.51806
-7.56905
-7.31943
-7.3656
-7.14233
-7.18362
-6.98453
-7.02129
-6.8444
-6.877
-6.72054
-6.74935
-6.61145
-6.63694
-6.51522
-6.53835
-6.42881
-6.45382
-6.34281
-6.24686
-6.26687
-6.19931
-6.21162
-6.15922
-6.16851
-6.1272
-6.13446
-6.102
-6.10767
-6.08248
-6.08685
-6.06761
-6.07092
-6.05651
-6.05895
-6.04851
-6.05022
-6.04315
-6.04424
-6.04056
-6.04125
-6.03803
-6.03849
-6.03682
-6.03691
-6.03739
-6.03697
-6.04043
-6.03926
-6.04713
-6.04477
-6.05967
-6.05527
-6.08233
-6.07387
-6.12437
-6.10553
-6.20827
-6.14966
-6.41057
-6.93372
-6.77985
-7.66606
-7.43128
-9.2328
-9.07434
-9.01061
-8.99454
-8.99089
-16.524
-9.50936
-11.032
-8.58612
-9.31915
-8.12257
-8.49402
-7.82904
-8.02852
-7.69735
-7.83267
-7.47776
-7.60472
-7.2826
-7.39741
-7.10932
-7.21196
-6.95506
-7.04644
-6.81819
-6.89922
-6.69733
-6.76892
-6.59099
-6.65426
-6.49723
-6.5543
-6.41312
-6.47264
-6.34037
-6.22907
-6.27573
-6.18873
-6.21884
-6.15126
-6.17424
-6.12095
-6.13896
-6.09709
-6.11115
-6.07865
-6.08949
-6.06466
-6.07287
-6.05429
-6.06035
-6.04687
-6.05114
-6.04201
-6.04468
-6.03995
-6.04167
-6.0375
-6.03865
-6.03649
-6.03673
-6.03735
-6.03633
-6.04078
-6.03792
-6.04805
-6.0423
-6.06149
-6.0508
-6.08563
-6.06532
-6.13022
-6.0866
-6.21799
-6.09021
-6.36687
-7.00851
-6.63862
-7.77854
-7.17196
-9.51597
-9.11269
-9.01725
-8.99591
-8.99123
-17.7225
-8.43113
-11.4123
-8.14185
-9.50884
-7.90647
-8.60014
-7.71051
-8.08277
-7.63874
-7.89206
-7.4182
-7.65839
-7.22832
-7.44536
-7.0607
-7.25469
-6.91168
-7.08439
-6.77961
-6.93276
-6.66319
-6.79848
-6.5609
-6.6804
-6.47069
-6.57818
-6.3894
-6.49915
-6.3371
-6.20497
-6.28994
-6.17346
-6.22997
-6.13968
-6.18303
-6.11185
-6.14586
-6.08994
-6.1165
-6.07308
-6.09356
-6.0604
-6.0759
-6.05108
-6.06253
-6.04452
-6.05259
-6.04039
-6.04541
-6.03909
-6.04231
-6.03675
-6.03893
-6.03606
-6.03654
-6.03737
-6.03546
-6.04142
-6.03605
-6.04961
-6.03883
-6.0645
-6.0445
-6.09111
-6.05336
-6.1404
-6.06066
-6.23807
-6.01458
-6.30856
-7.12375
-6.43699
-7.96086
-6.79461
-9.90903
-9.13872
-9.02092
-8.99661
-8.99137
)
;

boundaryField
{
    F1_1
    {
        type            calculated;
        value           nonuniform List<scalar> 
80
(
18.4017
7.78538
11.6511
7.86915
9.62682
7.75186
8.66582
7.57873
8.11883
7.42832
7.7574
7.37169
7.62182
7.18441
7.43612
7.02192
7.25703
6.87808
7.09182
6.75061
6.94224
6.63818
6.80853
6.53933
6.69037
6.45202
6.58813
6.37293
6.51117
6.33328
6.19016
6.29695
6.1636
6.23541
6.13214
6.18734
6.10593
6.14925
6.08529
6.11912
6.06948
6.09556
6.05765
6.07739
6.04902
6.06359
6.04302
6.05328
6.03935
6.04573
6.0385
6.04259
6.03626
6.03903
6.03578
6.03638
6.03738
6.03493
6.04182
6.03494
6.05057
6.03678
6.06635
6.0408
6.09451
6.04636
6.14678
6.04561
6.25123
5.97223
6.27506
7.19329
6.31817
8.073
6.57086
10.1373
9.14703
9.02159
8.99647
8.99109
)
;
    }
    F1_2
    {
        type            calculated;
        value           nonuniform List<scalar> 
80
(
-18.1213
-7.04308
-11.4681
-6.21151
-8.8694
-5.36187
-7.20203
-4.59432
-5.95226
-4.00508
-4.94751
-3.77474
-4.52931
-3.20483
-3.95858
-2.72973
-3.41635
-2.32829
-2.93177
-1.98729
-2.50926
-1.69722
-2.1454
-1.45012
-1.83468
-1.23821
-1.57389
-1.05158
-1.38199
-0.960849
-0.629108
-0.878174
-0.567727
-0.735685
-0.492778
-0.623945
-0.42787
-0.533881
-0.374037
-0.460404
-0.330004
-0.400307
-0.294349
-0.351229
-0.265879
-0.311276
-0.243806
-0.278835
-0.228118
-0.252432
-0.222382
-0.241279
-0.208654
-0.226735
-0.197977