/*--------------------------------*- C++ -*----------------------------------*\
| =========                 |                                                 |
| \\      /  F ield         | OpenFOAM: The Open Source CFD Toolbox           |
|  \\    /   O peration     | Version:  5.x                                   |
|   \\  /    A nd           | Web:      www.OpenFOAM.org                      |
|    \\/     M anipulation  |                                                 |
\*---------------------------------------------------------------------------*/
FoamFile
{
    version     2.0;
    format      ascii;
    class       volScalarField;
    location    "14.4";
    object      T;
}
// * * * * * * * * * * * * * * * * * * * * * * * * * * * * * * * * * * * * * //

dimensions      [0 0 0 1 0 0 0];

internalField   nonuniform List<scalar> 
6300
(
322.84
322.521
322.2
321.878
321.553
321.225
320.894
320.558
320.217
319.871
319.52
319.163
318.8
318.431
318.056
322.841
322.522
322.202
321.88
321.556
321.229
320.898
320.563
320.222
319.877
319.526
319.169
318.806
318.437
318.062
322.841
322.524
322.206
321.885
321.562
321.236
320.907
320.572
320.233
319.888
319.538
319.181
318.818
318.448
318.073
322.843
322.527
322.211
321.893
321.572
321.248
320.92
320.587
320.249
319.905
319.555
319.199
318.836
318.466
318.09
322.844
322.532
322.218
321.903
321.584
321.263
320.937
320.607
320.271
319.928
319.58
319.224
318.861
318.491
318.114
322.846
322.537
322.227
321.915
321.601
321.282
320.96
320.632
320.298
319.958
319.611
319.256
318.893
318.522
318.144
322.848
322.544
322.238
321.931
321.62
321.306
320.987
320.663
320.333
319.995
319.65
319.296
318.933
318.562
318.181
322.851
322.552
322.251
321.949
321.644
321.335
321.02
320.701
320.374
320.04
319.697
319.344
318.982
318.61
318.227
322.854
322.561
322.267
321.97
321.671
321.368
321.059
320.745
320.423
320.093
319.753
319.403
319.041
318.667
318.282
322.857
322.571
322.284
321.995
321.702
321.406
321.104
320.796
320.481
320.156
319.821
319.473
319.113
318.737
318.347
322.861
322.583
322.304
322.022
321.738
321.449
321.156
320.855
320.547
320.229
319.9
319.557
319.198
318.822
318.427
322.865
322.596
322.325
322.053
321.777
321.498
321.213
320.923
320.624
320.315
319.993
319.656
319.302
318.926
318.526
322.87
322.61
322.349
322.086
321.821
321.552
321.278
320.998
320.71
320.412
320.101
319.774
319.426
319.053
318.651
322.875
322.625
322.375
322.122
321.868
321.61
321.348
321.081
320.806
320.522
320.226
319.912
319.575
319.209
318.811
322.881
322.641
322.402
322.161
321.918
321.672
321.424
321.171
320.912
320.646
320.367
320.073
319.753
319.398
319.006
317.707
317.386
317.062
316.734
316.403
316.069
315.733
315.394
315.052
314.709
314.364
314.017
313.669
313.32
312.97
312.619
312.268
311.917
311.566
311.215
310.864
310.514
310.164
309.815
309.466
309.117
308.769
308.422
308.075
307.728
307.383
307.039
306.695
306.352
306.011
305.671
305.331
304.993
304.656
304.319
303.984
303.649
303.316
302.983
302.652
302.321
301.991
301.663
301.336
301.01
300.685
300.361
300.038
299.716
299.396
299.076
298.757
298.439
298.122
297.806
297.49
297.176
296.863
296.55
296.239
295.929
295.619
295.311
295.003
294.696
294.39
294.085
293.78
293.476
293.172
292.869
292.567
292.265
291.964
291.663
291.362
291.062
290.762
290.462
290.161
289.86
289.558
289.256
288.952
288.648
317.712
317.391
317.067
316.738
316.407
316.073
315.736
315.397
315.055
314.712
314.366
314.019
313.671
313.321
312.971
312.62
312.269
311.917
311.566
311.215
310.864
310.514
310.164
309.814
309.465
309.116
308.768
308.421
308.074
307.727
307.382
307.037
306.694
306.351
306.009
305.669
305.33
304.991
304.654
304.318
303.983
303.648
303.315
302.982
302.65
302.319
301.99
301.661
301.334
301.008
300.683
300.359
300.037
299.715
299.394
299.075
298.756
298.438
298.121
297.804
297.489
297.174
296.861
296.549
296.237
295.927
295.618
295.31
295.002
294.695
294.389
294.084
293.779
293.475
293.171
292.868
292.566
292.264
291.963
291.662
291.362
291.062
290.762
290.462
290.162
289.861
289.559
289.257
288.953
288.649
317.723
317.402
317.076
316.747
316.416
316.081
315.743
315.403
315.061
314.717
314.371
314.023
313.674
313.324
312.973
312.621
312.269
311.917
311.565
311.214
310.863
310.512
310.162
309.813
309.464
309.115
308.767
308.419
308.072
307.725
307.379
307.034
306.691
306.348
306.006
305.666
305.327
304.988
304.651
304.315
303.98
303.645
303.312
302.979
302.647
302.316
301.987
301.658
301.331
301.005
300.68
300.356
300.034
299.712
299.392
299.072
298.753
298.435
298.118
297.802
297.486
297.172
296.858
296.546
296.235
295.924
295.615
295.307
295
294.693
294.387
294.082
293.777
293.473
293.169
292.866
292.564
292.263
291.962
291.661
291.361
291.062
290.763
290.463
290.163
289.863
289.562
289.26
288.956
288.652
317.74
317.417
317.091
316.761
316.428
316.092
315.754
315.413
315.07
314.725
314.378
314.029
313.679
313.327
312.975
312.623
312.27
311.917
311.564
311.212
310.861
310.51
310.16
309.811
309.462
309.113
308.764
308.416
308.069
307.722
307.375
307.03
306.686
306.343
306.001
305.661
305.322
304.984
304.647
304.311
303.976
303.642
303.308
302.975
302.643
302.312
301.982
301.653
301.325
300.999
300.675
300.351
300.029
299.708
299.388
299.068
298.75
298.432
298.114
297.798
297.482
297.167
296.854
296.541
296.23
295.92
295.611
295.303
294.997
294.69
294.385
294.079
293.775
293.471
293.167
292.864
292.561
292.26
291.959
291.659
291.36
291.061
290.763
290.465
290.166
289.866
289.566
289.264
288.961
288.656
317.762
317.438
317.11
316.779
316.445
316.108
315.768
315.426
315.082
314.735
314.387
314.037
313.685
313.332
312.979
312.624
312.27
311.916
311.563
311.21
310.858
310.508
310.158
309.808
309.459
309.11
308.762
308.413
308.065
307.717
307.37
307.024
306.68
306.336
305.995
305.654
305.316
304.978
304.642
304.306
303.971
303.637
303.303
302.97
302.637
302.305
301.975
301.646
301.318
300.992
300.668
300.345
300.023
299.703
299.383
299.064
298.745
298.427
298.109
297.792
297.476
297.161
296.847
296.535
296.224
295.914
295.606
295.299
294.992
294.686
294.381
294.076
293.772
293.467
293.163
292.86
292.558
292.256
291.956
291.656
291.358
291.061
290.764
290.467
290.169
289.871
289.571
289.27
288.967
288.662
317.791
317.465
317.135
316.802
316.465
316.126
315.785
315.442
315.096
314.749
314.399
314.047
313.694
313.339
312.983
312.626
312.27
311.914
311.56
311.206
310.854
310.504
310.154
309.805
309.456
309.108
308.759
308.41
308.061
307.712
307.364
307.017
306.671
306.327
305.986
305.646
305.308
304.971
304.635
304.3
303.966
303.631
303.297
302.963
302.63
302.297
301.966
301.636
301.309
300.983
300.659
300.337
300.016
299.696
299.377
299.058
298.74
298.422
298.103
297.786
297.469
297.153
296.839
296.526
296.216
295.906
295.599
295.292
294.987
294.682
294.377
294.073
293.768
293.463
293.159
292.855
292.552
292.251
291.951
291.652
291.355
291.059
290.764
290.469
290.174
289.877
289.58
289.279
288.977
288.672
317.826
317.497
317.164
316.828
316.49
316.149
315.806
315.461
315.114
314.765
314.414
314.06
313.704
313.346
312.987
312.628
312.269
311.911
311.555
311.201
310.849
310.498
310.15
309.801
309.453
309.105
308.756
308.406
308.056
307.705
307.355
307.007
306.66
306.316
305.974
305.635
305.297
304.962
304.628
304.294
303.96
303.626
303.291
302.956
302.622
302.288
301.955
301.624
301.296
300.971
300.647
300.326
300.007
299.688
299.37
299.053
298.734
298.416
298.097
297.778
297.46
297.143
296.828
296.515
296.205
295.896
295.59
295.285
294.981
294.677
294.373
294.069
293.764
293.459
293.154
292.849
292.545
292.243
291.943
291.646
291.35
291.057
290.764
290.472
290.18
289.886
289.591
289.292
288.99
288.685
317.868
317.535
317.199
316.859
316.517
316.174
315.829
315.483
315.135
314.785
314.432
314.076
313.717
313.356
312.992
312.629
312.266
311.905
311.547
311.192
310.84
310.491
310.144
309.798
309.451
309.103
308.754
308.403
308.051
307.698
307.345
306.994
306.646
306.3
305.959
305.62
305.285
304.951
304.619
304.287
303.954
303.62
303.285
302.949
302.612
302.276
301.941
301.609
301.28
300.955
300.633
300.313
299.996
299.68
299.364
299.047
298.73
298.41
298.09
297.77
297.45
297.131
296.815
296.501
296.191
295.884
295.579
295.276
294.974
294.673
294.37
294.066
293.761
293.454
293.147
292.841
292.536
292.233
291.933
291.636
291.343
291.052
290.763
290.476
290.188
289.898
289.606
289.31
289.009
288.702
317.918
317.58
317.238
316.893
316.547
316.2
315.854
315.508
315.16
314.809
314.455
314.097
313.734
313.367
312.998
312.628
312.26
311.895
311.534
311.179
310.828
310.482
310.137
309.794
309.45
309.104
308.755
308.402
308.047
307.69
307.333
306.978
306.627
306.28
305.938
305.602
305.269
304.939
304.611
304.281
303.951
303.617
303.281
302.942
302.602
302.262
301.924
301.589
301.259
300.934
300.614
300.298
299.984
299.671
299.358
299.044
298.727
298.407
298.084
297.761
297.437
297.115
296.797
296.482
296.173
295.867
295.566
295.266
294.968
294.669
294.368
294.065
293.759
293.451
293.141
292.831
292.523
292.218
291.918
291.622
291.331
291.045
290.761
290.479
290.198
289.914
289.627
289.334
289.035
288.728
317.977
317.632
317.281
316.929
316.577
316.227
315.88
315.534
315.188
314.839
314.484
314.124
313.756
313.383
313.005
312.626
312.25
311.878
311.515
311.159
310.81
310.468
310.129
309.792
309.452
309.109
308.76
308.406
308.046
307.682
307.318
306.957
306.601
306.252
305.911
305.577
305.249
304.925
304.603
304.278
303.951
303.618
303.28
302.937
302.591
302.245
301.901
301.563
301.231
300.907
300.59
300.278
299.97
299.663
299.355
299.044
298.728
298.406
298.08
297.751
297.422
297.095
296.772
296.457
296.148
295.846
295.549
295.255
294.962
294.668
294.37
294.068
293.761
293.449
293.134
292.819
292.506
292.197
291.896
291.601
291.314
291.033
290.757
290.483
290.21
289.935
289.656
289.369
289.072
288.764
318.048
317.692
317.328
316.963
316.603
316.25
315.903
315.562
315.22
314.875
314.523
314.161
313.788
313.404
313.013
312.62
312.231
311.851
311.483
311.128
310.784
310.449
310.12
309.792
309.46
309.122
308.774
308.417
308.05
307.676
307.299
306.927
306.564
306.213
305.873
305.544
305.224
304.91
304.597
304.28
303.958
303.627
303.286
302.937
302.582
302.224
301.871
301.526
301.192
300.869
300.557
300.254
299.955
299.657
299.357
299.05
298.736
298.413
298.081
297.743
297.403
297.067
296.739
296.421
296.114
295.817
295.527
295.242
294.958
294.672
294.379
294.079
293.769
293.452
293.128
292.803
292.481
292.167
291.863
291.57
291.288
291.015
290.748
290.486
290.225
289.963
289.696
289.418
289.126
288.816
318.135
317.762
317.375
316.992
316.619
316.263
315.92
315.588
315.258
314.922
314.575
314.213
313.834
313.436
313.025
312.608
312.2
311.807
311.434
311.081
310.745
310.423
310.109
309.796
309.478
309.148
308.803
308.442
308.063
307.672
307.275
306.886
306.511
306.156
305.819
305.499
305.192
304.893
304.595
304.291
303.977
303.649
303.306
302.946
302.574
302.198
301.828
301.473
301.136
300.817
300.513
300.222
299.938
299.655
299.367
299.069
298.757
298.431
298.09
297.737
297.379
297.028
296.69
296.37
296.066
295.777
295.499
295.228
294.959
294.684
294.399
294.102
293.79
293.463
293.125
292.782
292.446
292.122
291.815
291.524
291.249
290.986
290.734
290.487
290.242
289.998
289.75
289.489
289.206
288.893
318.25
317.851
317.419
317.004
316.613
316.256
315.923
315.611
315.304
314.985
314.65
314.29
313.905
313.488
313.046
312.585
312.146
311.734
311.357
311.008
310.686
310.384
310.096
309.81
309.511
309.196
308.855
308.491
308.095
307.676
307.239
306.822
306.431
306.073
305.741
305.435
305.147
304.874
304.601
304.317
304.017
303.694
303.348
302.972
302.575
302.16
301.766
301.395
301.056
300.741
300.452
300.179
299.919
299.661
299.391
299.107
298.8
298.472
298.115
297.738
297.345
296.97
296.617
296.295
295.996
295.72
295.46
295.213
294.967
294.71
294.438
294.145
293.832
293.491
293.129
292.752
292.392
292.053
291.743
291.455
291.191
290.943
290.711
290.485
290.259
290.04
289.822
289.591
289.327
289.014
318.413
317.986
317.441
316.98
316.558
316.213
315.896
315.628
315.366
315.07
314.762
314.403
314.024
313.574
313.094
312.53
312.053
311.61
311.24
310.894
310.6
310.323
310.082
309.841
309.567
309.28
308.943
308.586
308.16
307.707
307.173
306.722
306.303
305.953
305.624
305.346
305.083
304.853
304.625
304.364
304.091
303.771
303.432
303.029
302.599
302.095
301.668
301.271
300.94
300.63
300.366
300.117
299.899
299.683
299.436
299.177
298.874
298.553
298.17
297.763
297.284
296.879
296.502
296.187
295.892
295.641
295.404
295.197
294.99
294.755
294.508
294.219
293.913
293.547
293.157
292.697
292.307
291.943
291.639
291.352
291.109
290.879
290.679
290.482
290.264
290.081
289.915
289.738
289.52
289.217
318.669
318.288
317.337
316.902
316.393
316.129
315.801
315.635
315.476
315.173
314.948
314.544
314.247
313.702
313.263
312.348
311.913
311.379
311.091
310.705
310.491
310.211
310.066
309.921
309.644
309.435
309.058
308.779
308.266
307.852
306.989
306.578
306.074
305.801
305.437
305.235
304.969
304.831
304.694
304.431
304.232
303.875
303.61
303.124
302.732
301.917
301.528
301.052
300.795
300.451
300.26
300.008
299.878
299.748
299.499
299.311
298.973
298.722
298.262
297.89
297.117
296.748
296.296
296.051
295.724
295.542
295.303
295.179
295.056
294.818
294.64
294.318
294.079
293.64
293.284
292.54
292.185
291.747
291.509
291.188
291.009
290.769
290.643
290.508
290.219
290.099
290.022
289.946
289.835
289.607
288.312
287.944
287.576
287.207
286.837
286.468
286.1
285.732
285.365
284.998
284.633
284.269
283.906
283.543
283.181
288.313
287.945
287.576
287.207
286.837
286.468
286.099
285.731
285.364
284.997
284.632
284.268
283.905
283.543
283.181
288.315
287.947
287.578
287.207
286.837
286.467
286.097
285.729
285.361
284.995
284.63
284.267
283.904
283.542
283.181
288.319
287.95
287.579
287.208
286.836
286.465
286.095
285.726
285.358
284.992
284.627
284.264
283.902
283.541
283.18
288.325
287.954
287.582
287.209
286.836
286.463
286.091
285.721
285.353
284.987
284.623
284.26
283.899
283.539
283.18
288.333
287.961
287.586
287.21
286.834
286.459
286.086
285.715
285.346
284.98
284.617
284.255
283.895
283.537
283.179
288.344
287.969
287.591
287.211
286.832
286.454
286.078
285.706
285.337
284.971
284.608
284.248
283.89
283.533
283.178
288.36
287.98
287.597
287.212
286.828
286.446
286.068
285.694
285.324
284.959
284.597
284.239
283.883
283.529
283.176
288.382
287.996
287.604
287.212
286.821
286.434
286.053
285.677
285.308
284.943
284.583
284.227
283.875
283.524
283.174
288.412
288.016
287.613
287.21
286.81
286.417
286.032
285.655
285.286
284.923
284.565
284.213
283.864
283.517
283.172
288.455
288.043
287.622
287.204
286.793
286.393
286.004
285.626
285.257
284.896
284.543
284.194
283.85
283.509
283.169
288.517
288.077
287.63
287.191
286.765
286.357
285.965
285.586
285.22
284.863
284.515
284.172
283.834
283.499
283.166
288.607
288.119
287.631
287.162
286.721
286.305
285.911
285.535
285.173
284.822
284.48
284.145
283.815
283.487
283.162
288.742
288.162
287.61
287.108
286.651
286.232
285.84
285.47
285.115
284.773
284.44
284.113
283.792
283.474
283.158
288.937
288.178
287.54
287.007
286.545
286.13
285.748
285.388
285.045
284.714
284.392
284.076
283.766
283.458
283.153
322.886
322.657
322.427
322.197
321.966
321.733
321.497
321.259
321.017
320.769
320.513
320.243
319.949
319.606
319.16
322.89
322.671
322.451
322.231
322.011
321.789
321.566
321.342
321.116
320.887
320.654
320.414
320.16
319.865
319.42
322.895
322.686
322.476
322.266
322.056
321.846
321.636
321.426
321.217
321.008
320.8
320.596
320.399
320.226
320.163
322.9
322.7
322.5
322.301
322.102
321.903
321.706
321.51
321.317
321.127
320.944
320.772
320.621
320.509
320.466
322.905
322.715
322.525
322.335
322.147
321.96
321.775
321.593
321.415
321.243
321.081
320.935
320.815
320.743
320.763
322.91
322.729
322.549
322.369
322.191
322.015
321.842
321.672
321.508
321.351
321.206
321.079
320.977
320.915
320.9
322.914
322.743
322.572
322.402
322.234
322.068
321.906
321.748
321.596
321.452
321.32
321.204
321.112
321.053
321.045
322.919
322.756
322.594
322.434
322.275
322.119
321.967
321.819
321.678
321.544
321.422
321.314
321.223
321.155
321.111
322.923
322.769
322.616
322.464
322.315
322.168
322.025
321.886
321.754
321.629
321.514
321.41
321.319
321.24
321.163
322.927
322.781
322.637
322.493
322.352
322.214
322.079
321.949
321.825
321.708
321.599
321.498
321.407
321.325
321.252
322.931
322.793
322.656
322.521
322.387
322.257
322.13
322.008
321.891
321.78
321.677
321.58
321.489
321.403
321.31
322.935
322.804
322.675
322.547
322.421
322.298
322.178
322.063
321.953
321.848
321.75
321.657
321.569
321.484
321.405
322.938
322.815
322.692
322.571
322.452
322.336
322.223
322.115
322.011
321.912
321.819
321.731
321.646
321.562
321.467
322.941
322.825
322.709
322.594
322.482
322.372
322.266
322.163
322.065
321.973
321.885
321.802
321.723
321.647
321.572
322.945
322.834
322.724
322.616
322.509
322.406
322.305
322.209
322.116
322.029
321.947
321.871
321.799
321.73
321.648
322.947
322.843
322.739
322.636
322.535
322.437
322.342
322.251
322.164
322.082
322.006
321.936
321.873
321.822
321.798
322.95
322.851
322.752
322.655
322.559
322.466
322.376
322.29
322.208
322.131
322.06
321.995
321.94
321.896
321.866
322.953
322.858
322.765
322.672
322.582
322.493
322.408
322.326
322.249
322.176
322.109
322.049
321.998
321.96
321.942
322.955
322.865
322.776
322.688
322.602
322.519
322.437
322.36
322.286
322.217
322.153
322.096
322.047
322.009
321.98
322.957
322.872
322.787
322.704
322.622
322.542
322.464
322.39
322.32
322.253
322.192
322.138
322.09
322.052
322.027
322.959
322.878
322.797
322.718
322.639
322.563
322.489
322.418
322.351
322.287
322.228
322.174
322.126
322.086
322.051
322.961
322.884
322.806
322.73
322.656
322.583
322.512
322.444
322.379
322.317
322.259
322.206
322.157
322.115
322.081
322.963
322.889
322.815
322.742
322.671
322.601
322.533
322.468
322.405
322.345
322.288
322.234
322.184
322.138
322.095
322.964
322.894
322.823
322.754
322.685
322.618
322.553
322.49
322.428
322.37
322.314
322.26
322.209
322.159
322.108
322.966
322.898
322.831
322.764
322.698
322.634
322.571
322.51
322.451
322.393
322.338
322.285
322.233
322.182
322.131
322.967
322.902
322.838
322.773
322.71
322.648
322.588
322.529
322.471
322.416
322.361
322.309
322.256
322.203
322.147
322.969
322.906
322.844
322.782
322.722
322.662
322.604
322.546
322.491
322.437
322.384
322.332
322.28
322.228
322.175
322.97
322.91
322.85
322.791
322.732
322.675
322.618
322.563
322.509
322.457
322.405
322.355
322.304
322.252
322.195
322.971
322.913
322.856
322.799
322.742
322.687
322.632
322.579
322.527
322.476
322.426
322.377
322.329
322.28
322.229
322.972
322.916
322.861
322.806
322.752
322.698
322.646
322.594
322.544
322.495
322.447
322.4
322.354
322.308
322.256
322.973
322.919
322.866
322.813
322.761
322.709
322.658
322.608
322.56
322.513
322.467
322.422
322.38
322.34
322.309
322.974
322.922
322.871
322.819
322.769
322.719
322.67
322.622
322.575
322.529
322.485
322.443
322.403
322.367
322.334
322.975
322.925
322.875
322.826
322.777
322.728
322.681
322.635
322.589
322.545
322.503
322.462
322.425
322.391
322.364
322.976
322.927
322.879
322.831
322.784
322.737
322.691
322.646
322.602
322.56
322.519
322.48
322.443
322.41
322.379
322.977
322.93
322.883
322.837
322.791
322.746
322.701
322.657
322.615
322.573
322.533
322.495
322.459
322.427
322.398
322.977
322.932
322.887
322.842
322.797
322.754
322.71
322.668
322.626
322.586
322.547
322.509
322.474
322.44
322.409
322.978
322.934
322.89
322.847
322.804
322.761
322.719
322.678
322.637
322.598
322.559
322.522
322.486
322.453
322.422
322.979
322.936
322.893
322.851
322.809
322.768
322.727
322.687
322.647
322.609
322.571
322.534
322.498
322.463
322.428
322.979
322.938
322.897
322.855
322.815
322.774
322.735
322.695
322.657
322.619
322.581
322.545
322.508
322.472
322.435
322.98
322.94
322.899
322.859
322.82
322.781
322.742
322.704
322.666
322.629
322.592
322.555
322.519
322.483
322.446
322.98
322.941
322.902
322.863
322.825
322.787
322.749
322.711
322.675
322.638
322.602
322.566
322.53
322.493
322.454
322.981
322.943
322.905
322.867
322.829
322.792
322.755
322.719
322.683
322.647
322.612
322.577
322.541
322.505
322.469
322.981
322.944
322.907
322.87
322.834
322.798
322.762
322.726
322.691
322.657
322.622
322.588
322.553
322.518
322.479
322.982
322.946
322.91
322.874
322.838
322.803
322.768
322.733
322.699
322.665
322.632
322.599
322.566
322.532
322.498
322.982
322.947
322.912
322.877
322.842
322.807
322.773
322.74
322.707
322.674
322.642
322.61
322.579
322.547
322.512
322.983
322.948
322.914
322.88
322.846
322.812
322.779
322.746
322.714
322.682
322.651
322.621
322.592
322.564
322.541
322.983
322.949
322.916
322.882
322.849
322.816
322.784
322.752
322.721
322.69
322.66
322.632
322.604
322.578
322.554
322.983
322.95
322.917
322.885
322.852
322.82
322.789
322.758
322.727
322.697
322.669
322.641
322.615
322.591
322.571
322.984
322.951
322.919
322.887
322.855
322.824
322.793
322.763
322.733
322.704
322.676
322.649
322.624
322.601
322.579
322.984
322.952
322.921
322.889
322.858
322.827
322.797
322.767
322.738
322.71
322.683
322.657
322.632
322.609
322.589
322.984
322.953
322.922
322.891
322.86
322.83
322.8
322.771
322.743
322.715
322.689
322.663
322.639
322.616
322.595
322.985
322.954
322.923
322.893
322.862
322.833
322.804
322.775
322.747
322.72
322.694
322.669
322.645
322.622
322.602
322.985
322.954
322.924
322.894
322.864
322.835
322.806
322.778
322.751
322.724
322.698
322.674
322.65
322.627
322.605
322.985
322.955
322.925
322.895
322.866
322.837
322.809
322.781
322.754
322.728
322.702
322.678
322.654
322.631
322.607
322.985
322.955
322.926
322.896
322.867
322.838
322.81
322.783
322.756
322.73
322.705
322.681
322.658
322.635
322.612
322.985
322.955
322.926
322.897
322.868
322.84
322.812
322.785
322.758
322.733
322.708
322.684
322.661
322.638
322.616
322.985
322.956
322.926
322.897
322.869
322.84
322.813
322.786
322.76
322.735
322.71
322.687
322.664
322.642
322.621
322.985
322.956
322.926
322.897
322.869
322.841
322.813
322.787
322.761
322.736
322.712
322.688
322.666
322.645
322.624
322.985
322.956
322.926
322.897
322.869
322.841
322.813
322.787
322.761
322.736
322.712
322.69
322.668
322.647
322.628
322.985
322.955
322.926
322.897
322.868
322.84
322.813
322.786
322.761
322.736
322.713
322.69
322.669
322.649
322.63
322.985
322.955
322.925
322.896
322.867
322.839
322.811
322.785
322.759
322.735
322.712
322.69
322.669
322.65
322.633
322.985
322.954
322.924
322.895
322.866
322.837
322.81
322.783
322.758
322.733
322.71
322.689
322.669
322.65
322.633
322.985
322.954
322.923
322.893
322.864
322.835
322.807
322.78
322.755
322.731
322.708
322.687
322.667
322.649
322.632
322.984
322.953
322.922
322.891
322.861
322.832
322.804
322.777
322.751
322.727
322.704
322.683
322.664
322.646
322.63
322.984
322.952
322.92
322.889
322.858
322.828
322.8
322.773
322.747
322.722
322.7
322.679
322.66
322.642
322.626
322.983
322.951
322.918
322.886
322.854
322.824
322.795
322.767
322.741
322.716
322.694
322.673
322.655
322.638
322.623
322.983
322.949
322.915
322.882
322.85
322.819
322.789
322.761
322.734
322.709
322.686
322.666
322.648
322.632
322.617
322.982
322.947
322.913
322.878
322.845
322.813
322.782
322.753
322.726
322.7
322.678
322.657
322.64
322.625
322.613
322.982
322.945
322.909
322.874
322.839
322.806
322.774
322.744
322.716
322.69
322.667
322.647
322.63
322.617
322.608
322.981
322.943
322.905
322.869
322.833
322.798
322.765
322.734
322.704
322.678
322.654
322.634
322.617
322.605
322.597
322.98
322.94
322.901
322.863
322.825
322.789
322.754
322.722
322.691
322.664
322.639
322.618
322.602
322.591
322.587
322.979
322.938
322.896
322.856
322.817
322.779
322.742
322.708
322.676
322.647
322.622
322.6
322.583
322.571
322.566
322.978
322.934
322.891
322.849
322.807
322.767
322.729
322.693
322.659
322.629
322.601
322.578
322.56
322.548
322.548
322.977
322.931
322.885
322.84
322.797
322.755
322.714
322.676
322.641
322.608
322.578
322.552
322.532
322.517
322.511
322.976
322.927
322.879
322.832
322.785
322.741
322.698
322.658
322.62
322.584
322.552
322.524
322.499
322.481
322.477
322.974
322.923
322.872
322.822
322.773
322.726
322.681
322.637
322.597
322.559
322.524
322.492
322.462
322.434
322.401
322.973
322.918
322.864
322.811
322.759
322.709
322.661
322.616
322.572
322.532
322.494
322.458
322.425
322.392
322.361
322.971
322.913
322.856
322.8
322.745
322.692
322.641
322.592
322.546
322.502
322.461
322.423
322.386
322.349
322.306
322.969
322.908
322.847
322.787
322.729
322.672
322.618
322.566
322.517
322.471
322.428
322.387
322.348
322.309
322.274
322.967
322.902
322.837
322.774
322.712
322.652
322.594
322.539
322.487
322.438
322.392
322.35
322.309
322.268
322.224
322.965
322.896
322.827
322.759
322.693
322.629
322.568
322.509
322.454
322.403
322.355
322.311
322.269
322.23
322.194
322.963
322.889
322.815
322.743
322.673
322.605
322.54
322.477
322.419
322.365
322.315
322.27
322.229
322.19
322.148
322.96
322.882
322.803
322.726
322.651
322.579
322.509
322.443
322.381
322.324
322.273
322.227
322.186
322.151
322.122
322.958
322.874
322.79
322.708
322.628
322.551
322.476
322.406
322.34
322.28
322.226
322.179
322.14
322.108
322.09
322.955
322.865
322.776
322.689
322.603
322.52
322.44
322.365
322.295
322.231
322.175
322.127
322.088
322.055
322.016
322.952
322.856
322.762
322.668
322.576
322.487
322.402
322.32
322.245
322.177
322.117
322.069
322.032
322.006
321.983
322.949
322.847
322.746
322.646
322.548
322.452
322.36
322.272
322.19
322.116
322.053
322.002
321.969
321.955
321.959
322.946
322.837
322.729
322.622
322.517
322.415
322.315
322.22
322.13
322.049
321.979
321.924
321.892
321.891
321.93
322.942
322.827
322.712
322.598
322.485
322.375
322.267
322.163
322.065
321.974
321.894
321.83
321.793
321.799
321.878
322.939
322.816
322.694
322.572
322.452
322.333
322.216
322.103
321.994
321.891
321.797
321.718
321.664
321.657
321.758
289.142
288.08
287.381
286.849
286.403
286.007
285.642
285.298
284.97
284.652
284.342
284.038
283.739
283.442
283.147
288.768
287.74
287.12
286.646
286.241
285.874
285.531
285.206
284.894
284.59
284.293
284.001
283.712
283.427
283.142
287.291
287.115
286.759
286.396
286.051
285.723
285.409
285.106
284.811
284.523
284.24
283.961
283.684
283.41
283.136
286.71
286.617
286.401
286.133
285.849
285.563
285.279
285
284.724
284.453
284.184
283.919
283.655
283.392
283.131
286.161
286.203
286.08
285.882
285.649
285.4
285.146
284.89
284.635
284.38
284.127
283.875
283.624
283.374
283.125
285.912
285.905
285.812
285.654
285.459
285.242
285.014
284.781
284.544
284.307
284.069
283.831
283.593
283.356
283.119
285.654
285.667
285.587
285.453
285.283
285.092
284.887
284.673
284.455
284.234
284.011
283.787
283.562
283.338
283.113
285.539
285.491
285.402
285.276
285.123
284.951
284.765
284.569
284.368
284.162
283.953
283.743
283.531
283.319
283.106
285.447
285.345
285.241
285.119
284.977
284.819
284.649
284.469
284.283
284.092
283.897
283.7
283.501
283.301
283.1
285.289
285.199
285.094
284.975
284.842
284.696
284.54
284.374
284.202
284.024
283.843
283.658
283.472
283.283
283.095
285.186
285.065
284.955
284.84
284.716
284.581
284.436
284.284
284.124
283.96
283.79
283.618
283.443
283.266
283.089
285.018
284.924
284.821
284.712
284.596
284.472
284.339
284.198
284.051
283.898
283.74
283.579
283.415
283.25
283.083
284.908
284.79
284.69
284.589
284.483
284.369
284.247
284.117
283.981
283.839
283.693
283.542
283.389
283.234
283.078
284.724
284.643
284.559
284.47
284.375
284.272
284.16
284.041
283.915
283.784
283.648
283.507
283.364
283.219
283.073
284.59
284.5
284.43
284.356
284.273
284.18
284.079
283.97
283.854
283.732
283.605
283.474
283.341
283.205
283.069
284.331
284.342
284.305
284.248
284.177
284.095
284.003
283.903
283.796
283.683
283.565
283.444
283.319
283.192
283.064
284.215
284.218
284.194
284.149
284.088
284.016
283.933
283.841
283.742
283.638
283.528
283.415
283.298
283.18
283.06
284.088
284.111
284.098
284.061
284.009
283.944
283.868
283.784
283.693
283.596
283.494
283.388
283.279
283.168
283.056
284.025
284.03
284.017
283.985
283.938
283.879
283.81
283.732
283.647
283.557
283.462
283.363
283.261
283.158
283.053
283.951
283.961
283.949
283.919
283.876
283.821
283.757
283.685
283.606
283.522
283.433
283.34
283.245
283.148
283.049
283.913
283.909
283.893
283.863
283.821
283.77
283.71
283.642
283.569
283.49
283.406
283.32
283.23
283.139
283.046
283.87
283.865
283.846
283.815
283.774
283.725
283.668
283.604
283.535
283.461
283.382
283.301
283.217
283.131
283.044
283.85
283.832
283.806
283.773
283.733
283.685
283.63
283.57
283.504
283.434
283.36
283.283
283.204
283.123
283.041
283.833
283.803
283.773
283.737
283.696
283.65
283.597
283.539
283.477
283.411
283.341
283.268
283.193
283.116
283.039
283.804
283.775
283.742
283.705
283.664
283.618
283.568
283.512
283.453
283.389
283.323
283.254
283.183
283.11
283.037
283.785
283.749
283.714
283.677
283.635
283.59
283.541
283.488
283.431
283.37
283.307
283.241
283.174
283.105
283.035
283.755
283.723
283.688
283.65
283.609
283.565
283.517
283.466
283.411
283.353
283.293
283.23
283.166
283.1
283.033
283.736
283.699
283.663
283.626
283.586
283.543
283.496
283.446
283.394
283.338
283.28
283.22
283.158
283.095
283.032
283.706
283.674
283.64
283.604
283.564
283.522
283.477
283.429
283.378
283.324
283.269
283.211
283.152
283.091
283.031
283.685
283.651
283.618
283.583
283.545
283.504
283.46
283.414
283.364
283.312
283.259
283.203
283.146
283.088
283.029
283.646
283.626
283.598
283.565
283.528
283.488
283.446
283.4
283.352
283.302
283.25
283.196
283.141
283.085
283.028
283.63
283.608
283.581
283.549
283.513
283.474
283.433
283.388
283.342
283.293
283.242
283.19
283.137
283.082
283.027
283.614
283.593
283.566
283.535
283.5
283.462
283.422
283.378
283.333
283.285
283.235
283.185
283.133
283.08
283.027
283.606
283.583
283.556
283.524
283.49
283.452
283.412
283.37
283.325
283.278
283.23
283.18
283.129
283.078
283.026
283.599
283.575
283.547
283.516
283.482
283.444
283.405
283.363
283.318
283.273
283.225
283.176
283.127
283.076
283.025
283.596
283.57
283.541
283.51
283.475
283.438
283.399
283.357
283.313
283.268
283.221
283.173
283.125
283.075
283.025
283.594
283.567
283.537