/*--------------------------------*- C++ -*----------------------------------*\
| =========                 |                                                 |
| \\      /  F ield         | OpenFOAM: The Open Source CFD Toolbox           |
|  \\    /   O peration     | Version:  5.x                                   |
|   \\  /    A nd           | Web:      www.OpenFOAM.org                      |
|    \\/     M anipulation  |                                                 |
\*---------------------------------------------------------------------------*/
FoamFile
{
    version     2.0;
    format      ascii;
    class       volScalarField;
    location    "6";
    object      gradTy;
}
// * * * * * * * * * * * * * * * * * * * * * * * * * * * * * * * * * * * * * //

dimensions      [0 -1 0 1 0 0 0];

internalField   nonuniform List<scalar> 
2048
(
-26.4235
-26.396
-26.3416
-26.2619
-26.1591
-26.0357
-25.8945
-25.7382
-25.5697
-25.3914
-25.206
-25.0153
-24.8215
-24.6262
-24.4308
-24.2368
-24.0451
-23.8569
-23.6727
-23.4932
-23.3188
-23.1498
-22.9866
-22.8294
-22.6784
-22.5338
-22.3959
-22.2651
-22.1417
-22.0263
-21.9193
-21.8214
-21.7334
-21.656
-21.5903
-21.5373
-21.498
-21.4736
-21.4654
-21.4745
-21.5023
-21.5501
-21.6189
-21.7101
-21.8245
-21.9629
-22.1257
-22.3129
-22.5237
-22.7567
-23.0097
-23.2793
-23.5613
-23.8504
-24.1406
-24.4253
-24.6977
-24.9511
-25.1796
-25.3778
-25.5413
-25.6667
-25.7515
-25.7944
-26.4459
-26.4176
-26.362
-26.2807
-26.1758
-26.0502
-25.9066
-25.7481
-25.5775
-25.3973
-25.2101
-25.0179
-24.8227
-24.6262
-24.4298
-24.2348
-24.0424
-23.8536
-23.6689
-23.489
-23.3143
-23.1452
-22.9818
-22.8244
-22.6732
-22.5284
-22.3902
-22.2591
-22.1353
-22.0194
-21.9119
-21.8134
-21.7247
-21.6466
-21.5801
-21.5261
-21.4859
-21.4605
-21.4513
-21.4594
-21.4862
-21.5329
-21.6009
-21.6913
-21.8051
-21.9432
-22.106
-22.2937
-22.5057
-22.7406
-22.9962
-23.2693
-23.5556
-23.8496
-24.1451
-24.4352
-24.7129
-24.9713
-25.2041
-25.4058
-25.5721
-25.6994
-25.7856
-25.829
-26.4886
-26.4591
-26.401
-26.3163
-26.2075
-26.0775
-25.9296
-25.7668
-25.5921
-25.4084
-25.2178
-25.0227
-24.8249
-24.6261
-24.4277
-24.231
-24.0372
-23.8472
-23.6617
-23.4811
-23.3059
-23.1364
-22.9727
-22.8149
-22.6633
-22.5181
-22.3795
-22.2477
-22.1233
-22.0065
-21.898
-21.7984
-21.7084
-21.6289
-21.5608
-21.5051
-21.4631
-21.4358
-21.4247
-21.4308
-21.4557
-21.5005
-21.5667
-21.6555
-21.7682
-21.9055
-22.0684
-22.257
-22.4711
-22.7095
-22.9701
-23.2498
-23.5442
-23.8476
-24.1534
-24.4541
-24.7422
-25.0101
-25.2511
-25.4595
-25.6309
-25.762
-25.8504
-25.895
-26.5498
-26.5184
-26.4568
-26.3672
-26.2525
-26.1162
-25.9618
-25.7929
-25.6125
-25.4236
-25.2284
-25.0292
-24.8277
-24.6256
-24.4244
-24.2254
-24.0296
-23.838
-23.6513
-23.4698
-23.294
-23.124
-22.9598
-22.8016
-22.6495
-22.5037
-22.3644
-22.2318
-22.1064
-21.9885
-21.8786
-21.7774
-21.6856
-21.604
-21.5336
-21.4756
-21.431
-21.4011
-21.3872
-21.3906
-21.4126
-21.4548
-21.5184
-21.6049
-21.7157
-21.8519
-22.0147
-22.2044
-22.4212
-22.6643
-22.932
-23.2211
-23.5271
-23.8442
-24.1649
-24.481
-24.7841
-25.0657
-25.3185
-25.5365
-25.7151
-25.8512
-25.9429
-25.9889
-26.6282
-26.5943
-26.5278
-26.4316
-26.3091
-26.1645
-26.0019
-25.825
-25.6375
-25.442
-25.2411
-25.0368
-24.8308
-24.6247
-24.42
-24.218
-24.0197
-23.8262
-23.638
-23.4555
-23.2789
-23.1083
-22.9437
-22.785
-22.6324
-22.4858
-22.3457
-22.2121
-22.0855
-21.9661
-21.8546
-21.7513
-21.6572
-21.5731
-21.4999
-21.4388
-21.391
-21.3578
-21.3404
-21.3403
-21.3588
-21.3974
-21.4576
-21.5411
-21.6494
-21.784
-21.9461
-22.1369
-22.3569
-22.6057
-22.882
-23.1829
-23.5039
-23.8385
-24.1787
-24.5151
-24.8376
-25.137
-25.4049
-25.6349
-25.8225
-25.9647
-26.0601
-26.1079
-26.7228
-26.6856
-26.613
-26.5084
-26.3761
-26.2212
-26.0484
-25.8621
-25.6659
-25.4628
-25.2552
-25.045
-24.8338
-24.623
-24.4142
-24.2087
-24.0076
-23.8118
-23.622
-23.4384
-23.2611
-23.09
-22.9249
-22.7657
-22.6124
-22.4651
-22.3239
-22.1892
-22.0612
-21.9402
-21.8267
-21.7212
-21.6244
-21.5372
-21.4607
-21.396
-21.3444
-21.3072
-21.2857
-21.2814
-21.2956
-21.33
-21.3861
-21.4658
-21.5708
-21.703
-21.8641
-22.0556
-22.2787
-22.5338
-22.8199
-23.1348
-23.4738
-23.83
-24.1942
-24.5555
-24.9023
-25.2234
-25.5095
-25.7536
-25.9513
-26.1003
-26.1997
-26.2493
-26.833
-26.7917
-26.7114
-26.5964
-26.4522
-26.2848
-26.1
-25.9027
-25.6967
-25.4852
-25.2702
-25.0534
-24.8364
-24.6204
-24.407
-24.1975
-23.9931
-23.7949
-23.6033
-23.4187
-23.2407
-23.0692
-22.9037
-22.7441
-22.5901
-22.4419
-22.2998
-22.1638
-22.0343
-21.9115
-21.7958
-21.6877
-21.5878
-21.4972
-21.4168
-21.3481
-21.2922
-21.2505
-21.2244
-21.2152
-21.2245
-21.254
-21.3052
-21.3803
-21.4812
-21.6102
-21.7695
-21.9611
-22.1871
-22.4485
-22.7455
-23.0761
-23.4359
-23.8176
-24.2106
-24.6019
-24.9777
-25.3246
-25.6317
-25.8917
-26.1003
-26.2562
-26.3595
-26.4108
-26.9583
-26.9119
-26.8222
-26.6946
-26.5362
-26.3542
-26.1555
-25.9457
-25.7289
-25.5082
-25.2853
-25.0616
-24.8383
-24.6167
-24.3981
-24.1842
-23.9763
-23.7755
-23.5822
-23.3966
-23.2182
-23.0464
-22.8807
-22.7206
-22.566
-22.4169
-22.2736
-22.1364
-22.0053
-21.8807
-21.7626
-21.6517
-21.5484
-21.4539
-21.3693
-21.296
-21.2353
-21.1887
-21.1574
-21.143
-21.1469
-21.1707
-21.2164
-21.2861
-21.3821
-21.5069
-21.6633
-21.8542
-22.0824
-22.3499
-22.658
-23.0058
-23.3892
-23.8003
-24.227
-24.6539
-25.0637
-25.4405
-25.7713
-26.0484
-26.2683
-26.4307
-26.5374
-26.5901
-27.0985
-27.046
-26.9449
-26.8023
-26.6269
-26.4279
-26.2134
-25.9899
-25.7615
-25.5312
-25.3001
-25.0693
-24.8394
-24.6117
-24.3876
-24.1689
-23.9572
-23.7536
-23.5586
-23.3722
-23.1937
-23.0219
-22.8562
-22.6958
-22.5405
-22.3905
-22.246
-22.1074
-21.9748
-21.8482
-21.7278
-21.6138
-21.5069
-21.4082
-21.3189
-21.2406
-21.1748
-21.1228
-21.086
-21.0658
-21.0637
-21.0814
-21.1208
-21.1843
-21.2744
-21.3941
-21.5466
-21.7356
-21.9648
-22.2377
-22.557
-22.9229
-23.3323
-23.7768
-24.2427
-24.711
-25.1606
-25.5715
-25.9286
-26.2236
-26.4542
-26.6223
-26.7314
-26.7849
-27.2538
-27.1939
-27.079
-26.9184
-26.7232
-26.5047
-26.2726
-26.034
-25.7936
-25.5534
-25.3143
-25.0762
-24.8396
-24.6055
-24.3755
-24.1515
-23.9356
-23.7291
-23.5326
-23.3458
-23.1674
-22.9961
-22.8306
-22.6699
-22.5139
-22.3629
-22.2172
-22.0772
-21.9431
-21.8147
-21.6918
-21.5746
-21.4638
-21.3606
-21.2663
-21.1827
-21.1113
-21.0536
-21.011
-20.9847
-20.9762
-20.9872
-21.0197
-21.0762
-21.1595
-21.273
-21.4203
-21.6059
-21.8346
-22.1117
-22.4415
-22.8262
-23.2638
-23.7459
-24.2567
-24.7733
-25.2689
-25.7185
-26.1041
-26.4171
-26.6573
-26.8293
-26.9393
-26.9928
-27.4245
-27.3555
-27.2242
-27.0422
-26.8239
-26.5832
-26.3315
-26.077
-25.8241
-25.5743
-25.3273
-25.0823
-24.8389
-24.5981
-24.3615
-24.1318
-23.9114
-23.7021
-23.5042
-23.3174
-23.1397
-22.9693
-22.8043
-22.6435
-22.4868
-22.3345
-22.1875
-22.0462
-21.9108
-21.7806
-21.6553
-21.5348
-21.4199
-21.3117
-21.212
-21.1227
-21.0455
-20.9819
-20.9332
-20.9006
-20.8854
-20.8892
-20.9142
-20.9629
-21.0386
-21.1446
-21.2853
-21.4658
-21.6923
-21.9717
-22.3107
-22.7142
-23.1818
-23.7057
-24.2679
-24.8405
-25.3894
-25.8827
-26.2986
-26.6291
-26.8768
-27.0502
-27.1592
-27.2115
-27.611
-27.5312
-27.3801
-27.173
-26.9278
-26.662
-26.3889
-26.1176
-25.8523
-25.5934
-25.3392
-25.0875
-24.8374
-24.5895
-24.3459
-24.1099
-23.8846
-23.6723
-23.4734
-23.287
-23.1108
-22.9419
-22.7776
-22.6168
-22.4592
-22.3056
-22.1571
-22.0147
-21.878
-21.7463
-21.6187
-21.4949
-21.3756
-21.2621
-21.1566
-21.0612
-20.9779
-20.9083
-20.8534
-20.8142
-20.792
-20.7882
-20.8051
-20.8455
-20.9126
-21.0101
-21.1428
-21.3164
-21.5384
-21.8177
-22.164
-22.5854
-23.0845
-23.6545
-24.2753
-24.9128
-25.5235
-26.0657
-26.5135
-26.8597
-27.1117
-27.2833
-27.3885
-27.4383
-27.8139
-27.7211
-27.5466
-27.3097
-27.0336
-26.7395
-26.4433
-26.1545
-25.8772
-25.6102
-25.3497
-25.092
-24.8353
-24.58
-24.3286
-24.0856
-23.855
-23.6396
-23.44
-23.2549
-23.081
-22.9141
-22.7511
-22.5903
-22.4317
-22.2764
-22.1263
-21.9826
-21.8452
-21.7123
-21.5825
-21.4554
-21.3314
-21.2122
-21.1004
-20.9987
-20.9091
-20.8333
-20.7721
-20.7264
-20.697
-20.6853
-20.6936
-20.7249
-20.7826
-20.8706
-20.9938
-21.1586
-21.3736
-21.6498
-22.0006
-22.4383
-22.9697
-23.5898
-24.2771
-24.9903
-25.6727
-26.2698
-26.7502
-27.1094
-27.3613
-27.5266
-27.625
-27.6706
-28.0342
-27.9257
-27.7233
-27.4516
-27.1398
-26.8144
-26.4932
-26.1867
-25.8982
-25.6245
-25.3591
-25.096
-24.8328
-24.5697
-24.3098
-24.0588
-23.8224
-23.604
-23.4041
-23.221
-23.0504
-22.8865
-22.7251
-22.5643
-22.4044
-22.247
-22.0949
-21.9503
-21.8124
-21.6789
-21.5472
-21.4166
-21.2878
-21.1624
-21.0438
-20.9354
-20.8395
-20.7574
-20.6901
-20.6378
-20.6011
-20.5812
-20.5805
-20.6022
-20.6498
-20.7273
-20.8395
-20.9934
-21.1986
-21.4682
-21.8197
-22.2712
-22.8348
-23.5091
-24.2716
-25.0731
-25.8394
-26.498
-27.0108
-27.3784
-27.6243
-27.7783
-27.8662
-27.9057
-28.2729
-28.1456
-27.9102
-27.5976
-27.245
-26.8848
-26.5372
-26.2128
-25.9144
-25.6359
-25.3673
-25.0999
-24.8303
-24.5591
-24.2895
-24.0293
-23.7867
-23.565
-23.3653
-23.1854
-23.0193
-22.8595
-22.7001
-22.5393
-22.3776
-22.2174
-22.063
-21.9176
-21.78
-21.6464
-21.5131
-21.3792
-21.2451
-21.113
-20.9871
-20.8717
-20.7692
-20.681
-20.6077
-20.5491
-20.5051
-20.4767
-20.4665
-20.4781
-20.5151
-20.5812
-20.6812
-20.8222
-21.0145
-21.2734
-21.621
-22.0824
-22.6774
-23.4092
-24.2563
-25.1614
-26.0266
-26.7537
-27.2973
-27.667
-27.8997
-28.0362
-28.1093
-28.1407
-28.5311
-28.3814
-28.1072
-27.7467
-27.3473
-26.9493
-26.5737
-26.2316
-25.9253
-25.6446
-25.3749
-25.104
-24.8284
-24.5485
-24.2678
-23.997
-23.7475
-23.5227
-23.3236
-23.1481
-22.9882
-22.8335
-22.6765
-22.5155
-22.3517
-22.1878
-22.0304
-21.8845
-21.7481
-21.6153
-21.4807
-21.3433
-21.2039
-21.0643
-20.9304
-20.8078
-20.6987
-20.6044
-20.5255
-20.4608
-20.4096
-20.3724
-20.3523
-20.3534
-20.3794
-20.4335
-20.52
-20.6464
-20.8228
-21.0661
-21.4041
-21.8704
-22.4947
-23.2865
-24.228
-25.2552
-26.2381
-27.0414
-27.6124
-27.9754
-28.1857
-28.2977
-28.3518
-28.373
-28.8103
-28.6338
-28.3143
-27.8977
-27.445
-27.0062
-26.6015
-26.2419
-25.9301
-25.6505
-25.3824
-25.109
-24.8274
-24.5386
-24.2449
-23.9616
-23.7047
-23.4766
-23.2785
-23.1091
-22.9572
-22.8092
-22.6547
-22.4933
-22.327
-22.1581
-21.9967
-21.8508
-21.7167
-21.5859
-21.4503
-21.3095
-21.1644
-21.0166
-20.8737
-20.7437
-20.6281
-20.5279
-20.4437
-20.3734
-20.3152
-20.269
-20.2386
-20.2287
-20.2435
-20.2852
-20.3573
-20.4674
-20.6251
-20.8474
-21.1689
-21.6337
-22.2839
-23.137
-24.1826
-25.3545
-26.479
-27.3665
-27.9586
-28.3032
-28.4805
-28.5604
-28.5908
-28.5998
-29.1121
-28.9033
-28.5314
-28.0492
-27.5356
-27.0539
-26.6192
-26.2424
-25.9284
-25.6538
-25.3907
-25.1154
-24.8278
-24.5301
-24.2209
-23.9226
-23.658
-23.4266
-23.2298
-23.0684
-22.9268
-22.7872
-22.6353
-22.473
-22.3038
-22.1282
-21.9614
-21.8162
-21.6861
-21.5586
-21.4223
-21.2779
-21.1272
-20.9699
-20.817
-20.6795
-20.5575
-20.4516
-20.3628
-20.2875
-20.2225
-20.167
-20.1257
-20.1046
-20.1082
-20.1375
-20.1941
-20.2868
-20.4231
-20.6187
-20.9158
-21.3707
-22.0423
-22.9561
-24.1144
-25.4588
-26.7559
-27.7355
-28.3385
-28.6497
-28.7817
-28.8214
-28.8237
-28.8184
-29.4383
-29.1905
-28.7589
-28.1999
-27.6166
-27.091
-26.6256
-26.2316
-25.9196
-25.6548
-25.4007
-25.1237
-24.83
-24.5241
-24.1959
-23.8791
-23.6075
-23.3725
-23.1768
-23.0259
-22.8973
-22.7683
-22.6186
-22.4549
-22.2828
-22.0981
-21.9238
-21.7805
-21.6564
-21.5342
-21.397
-21.2489
-21.0929
-20.9245
-20.7599
-20.6153
-20.487
-20.3755
-20.2831
-20.2034
-20.1321
-20.0669
-20.0141
-19.9815
-19.9742
-19.9912
-20.0316
-20.1062
-20.2193
-20.3815
-20.6452
-21.0802
-21.7675
-22.7391
-24.0158
-25.5672
-27.0779
-28.1563
-28.7543
-29.0136
-29.0864
-29.0779
-29.0478
-29.0266
-29.7911
-29.4955
-28.9975
-28.348
-27.6847
-27.1166
-26.62
-26.2078
-25.9034
-25.654
-25.4141
-25.1343
-24.8341
-24.5219
-24.1702
-23.8301
-23.5531
-23.3144
-23.1188
-22.9816
-22.8692
-22.7536
-22.605
-22.439
-22.2647
-22.0676
-21.8827
-21.7432
-21.6276
-21.5133
-21.3746
-21.2224
-21.062
-20.8804
-20.7021
-20.5513
-20.4169
-20.2995
-20.2046
-20.1217
-20.0446
-19.9692
-19.904
-19.8595
-19.8421
-19.8474
-19.8705
-19.9272
-20.0161
-20.138
-20.3581
-20.7607
-21.4579
-22.4813
-23.8764
-25.6776
-27.4568
-28.6377
-29.2079
-29.3923
-29.3914
-29.3267
-29.2608
-29.2223
-30.1731
-29.8177
-29.2485
-28.4917
-27.7354
-27.1302
-26.6019
-26.1688
-25.8796
-25.6519
-25.4328
-25.1476
-24.8398
-24.5257
-24.1439
-23.7738
-23.4952
-23.2522
-23.0546
-22.9354
-22.8428
-22.7446
-22.5946
-22.425
-22.2508
-22.0365
-21.8367
-21.7038
-21.5999
-21.4969
-21.3553
-21.1982
-21.0357
-20.8378
-20.6427
-20.4876
-20.3472
-20.2235
-20.1278
-20.0426
-19.9606
-19.8741
-19.7957
-19.7388
-19.7122
-19.7071
-19.7113
-19.751
-19.8168
-19.8903
-20.056
-20.4108
-21.1126
-22.1788
-23.6823
-25.7865
-27.9091
-29.19
-29.6998
-29.7825
-29.6927
-29.565
-29.4603
-29.4036
-30.5873
-30.1554
-29.5144
-28.6291
-27.7633
-27.1326
-26.5714
-26.1117
-25.8483
-25.6487
-25.4597
-25.1635
-24.8462
-24.5386
-24.117
-23.7075
-23.4349
-23.1865
-22.9824
-22.8876
-22.8184
-22.743
-22.5873
-22.4123
-22.243
-22.0048
-21.7834
-21.6623
-21.5732
-21.4865
-21.3389
-21.176
-21.0154
-20.7966
-20.5804
-20.4246
-20.2783
-20.147
-20.0529
-19.9666
-19.8809
-19.7821
-19.6891
-19.6192
-19.5851
-19.5717
-19.5543
-19.579
-19.625
-19.6406
-19.7409
-20.0283
-20.7321
-21.8291
-23.4141
-25.8883
-28.4571
-29.8243
-30.2293
-30.1796
-29.9863
-29.7897
-29.6445
-29.5693
-31.0378
-30.5048
-29.7993
-28.7581
-27.7605
-27.1261
-26.5294
-26.0324
-25.8104
-25.6442
-25.4989
-25.1813
-24.8511
-24.5653
-24.0898
-23.6268
-23.3742
-23.118
-22.8996
-22.8386
-22.7958
-22.7516
-22.5828
-22.3995
-22.2442
-21.9724
-21.7199
-21.6184
-21.5475
-21.4842
-21.3252
-21.1544
-21.0032
-20.757
-20.5132
-20.3631
-20.2106
-20.0691
-19.9803
-19.8938
-19.8064
-19.6934
-19.5842
-19.5004
-19.461
-19.4426
-19.3987
-19.4118
-19.4454
-19.391
-19.4159
-19.61
-20.3186
-21.4331
-23.0461
-25.974
-29.1321
-30.5521
-30.7931
-30.5777
-30.2675
-29.9982
-29.8119
-29.7182
-31.53
-30.8591
-30.1104
-28.8765
-27.7162
-27.1154
-26.4778
-25.925
-25.7677
-25.6377
-25.5562
-25.1998
-24.8509
-24.6124
-24.0623
-23.5256
-23.3164
-23.0482
-22.8023
-22.7896
-22.7743
-22.774
-22.5802
-22.384
-22.2587
-21.9392
-21.6419
-21.573
-21.522
-21.493
-21.3134
-21.1316
-21.0025
-20.7187
-20.4382
-20.3046
-20.1444
-19.9886
-19.9106
-19.8243
-19.738
-19.6081
-19.4809
-19.3816
-19.3398
-19.3221
-19.2435
-19.2495
-19.2835
-19.1432
-19.0855
-19.1508
-19.8761
-20.9967
-22.5434
-26.0297
-29.9771
-31.3839
-31.3851
-30.9694
-30.5317
-30.1881
-29.9613
-29.8498
-32.0714
-31.2064
-30.4588
-28.9819
-27.6152
-27.1089
-26.4193
-25.7809
-25.7238
-25.6264
-25.6398
-25.2168
-24.8391
-24.6902
-24.0346
-23.3945
-23.2673
-22.979
-22.6849
-22.7429
-22.7523
-22.8158
-22.578
-22.3619
-22.2928
-21.9051
-21.5433
-21.5275
-21.4953
-21.5172
-21.3024
-21.1043
-21.0179
-20.6818
-20.3511
-20.2514
-20.0807
-19.9034
-19.8448
-19.7578
-19.6772
-19.5263
-19.3793
-19.2619
-19.2213
-19.2132
-19.0861
-19.0913
-19.147
-18.8975
-18.7564
-18.6422
-19.4111
-20.534
-21.8591
-26.0348
-31.0517
-32.3275
-31.9955
-31.3466
-30.7746
-30.3573
-30.092
-29.9639
-32.6722
-31.5277
-30.8618
-29.0722
-27.4361
-27.1199
-26.3584
-25.5873
-25.6857
-25.605
-25.7616
-25.2288
-24.8061
-24.813
-24.0067
-23.22
-23.2356
-22.9133
-22.5388
-22.7029
-22.7261
-22.8846
-22.5738
-22.3267
-22.356
-21.8699
-21.4159
-21.4856
-21.4647
-21.563
-21.2903
-21.0675
-21.0567
-20.646
-20.2457
-20.2072
-20.0205
-19.8106
-19.7845
-19.6936
-19.6258
-19.4477
-19.2792
-19.1402
-19.105
-19.1204
-18.9229
-18.9353
-19.0457
-18.6522
-18.4387
-18.071
-18.9321
-20.0712
-20.9311
-25.9594
-32.4383
-33.3851
-32.6101
-31.7001
-30.9921
-30.5046
-30.2037
-30.0606
-33.3475
-31.7936
-31.3457
-29.1451
-27.1491
-27.1693
-26.3009
-25.326
-25.6647
-25.564
-25.9386
-25.2308
-24.7371
-25.0018
-23.9782
-22.9828
-23.2347
-22.855
-22.3519
-22.6768
-22.6893
-22.9915
-22.5643
-22.2689
-22.4616
-21.8335
-21.2481
-21.4533
-21.425
-21.6393
-21.2744
-21.0139
-21.1287
-20.6109
-20.1132
-20.1778
-19.9648
-19.7057
-19.7326
-19.6303
-19.5863
-19.3717
-19.1808
-19.0146
-18.9893
-19.0502
-18.7485
-18.7775
-18.9928
-18.4018
-18.1482
-17.4169
-18.4492
-19.6521
-19.6779
-25.7603
-34.2496
-34.5487
-33.2103
-32.0205
-31.1806
-30.6289
-30.2966
-30.1405
-34.118
-31.9597
-31.949
-29.1984
-26.713
-27.2874
-26.2543
-24.9708
-25.6796
-25.4869
-26.1945
-25.2155
-24.6104
-25.2855
-23.9487
-22.6561
-23.2843
-22.8091
-22.1068
-22.6768
-22.631
-23.1523
-22.5447
-22.1746
-22.6283
-21.7952
-21.0243
-21.441
-21.3678
-21.7587
-21.2509
-20.9325
-21.2483
-20.5757
-19.9415
-20.172
-19.9153
-19.5824
-19.6932
-19.565
-19.5623
-19.2972
-19.0848
-18.8832
-18.8717
-19.0122
-18.5552
-18.6118
-19.0069
-18.1355
-17.9082
-16.6498
-17.9734
-19.3446
-17.9934
-25.3772
-36.6387
-35.7944
-33.7728
-32.2989
-31.3377
-30.7301
-30.3713
-30.2042
-35.0135
-31.9618
-32.7266
-29.2297
-26.0716
-27.5179
-26.228
-24.485
-25.7595
-25.3474
-26.5628
-25.1736
-24.3956
-25.7043
-23.9173
-22.2028
-23.4125
-22.7818
-21.7792
-22.7218
-22.534
-23.3887
-22.5086
-22.0241
-22.8821
-21.7541
-20.7231
-21.4649
-21.2791
-21.9388
-21.2146
-20.8083
-21.4351
-20.5392
-19.7138
-20.202
-19.8735
-19.4321
-19.673
-19.4935
-19.5585
-19.222
-18.9921
-18.7435
-18.7482
-19.0196
-18.3328
-18.4285
-19.1132
-17.8339
-17.7539
-15.7268
-17.5146
-19.2487
-15.7413
-24.7269
-39.8116
-37.0738
-34.271
-32.5274
-31.4619
-30.8085
-30.4285
-30.2529
-36.0746
-31.7086
-33.7558
-29.2369
-25.1495
-27.9213
-26.2331
-23.818
-25.9484
-25.1051
-27.0895
-25.0925
-24.0504
-26.3123
-23.8824
-21.5733
-23.6582
-22.7806
-21.3354
-22.8403
-22.3715
-23.7311
-22.4476
-21.7903
-23.2578
-21.7082
-20.3162
-21.5497
-21.1379
-22.2038
-21.1586
-20.6203
-21.7158
-20.4996
-19.408
-20.2854
-19.8411
-19.2426
-19.6817
-19.4088
-19.5818
-19.1431
-18.9047
-18.5929
-18.6122
-19.0908
-18.0676
-18.214
-19.3464
-17.4653
-17.7365
-14.5882
-17.0795
-19.5071
-12.7488
-23.6963
-44.0417
-38.304
-34.6765
-32.7002
-31.5528
-30.865
-30.4694
-30.2875
-37.3574
-31.0739
-35.1425
-29.2172
-23.8469
-28.5802
-26.2823
-22.9012
-26.3107
-24.7002
-27.837
-24.9561
-23.5177
-27.1814
-23.8415
-20.7017
-24.0746
-22.8142
-20.7301
-23.0743
-22.1043
-24.2206
-22.3509
-21.4365
-23.8021
-21.6547
-19.766
-21.7315
-20.9125
-22.5866
-21.074
-20.3405
-22.126
-20.4542
-18.9949
-20.4461
-19.8197
-18.9978
-19.7336
-19.3005
-19.6415
-19.0553
-18.8256
-18.4286
-18.4542
-19.251
-17.7422
-17.9484
-19.7543
-16.9813
-17.9289
-13.1534
-16.6675
-20.316
-8.79993
-22.1347
-49.6874
-39.3537
-34.963
-32.8145
-31.6114
-30.901
-30.4953
-30.3094
-38.9367
-29.8871
-37.029
-29.1671
-22.0343
-29.6043
-26.3902
-21.6437
-26.9381
-24.0474
-28.8895
-24.7449
-22.7223
-28.4054
-23.7913
-19.5028
-24.7325
-22.8927
-19.9029
-23.4835
-21.6761
-24.9122
-22.2048
-20.9143
-24.5758
-21.5891
-19.0235
-22.0611
-20.5574
-23.1314
-20.9494
-19.9317
-22.7122
-20.3988
-18.4365
-20.7162
-19.8102
-18.6762
-19.8487
-19.1536
-19.7507
-18.9514
-18.7592
-18.2476
-18.2599
-19.5334
-17.3349
-17.6049
-20.4011
-16.3104
-18.4332
-11.3163
-16.2662
-21.9387
-3.62784
-19.8439
-57.2126
-40.0273
-35.1108
-32.8703
-31.6396
-30.9182
-30.5076
-30.3197
)
;

boundaryField
{
    left
    {
        type            calculated;
        value           nonuniform List<scalar> 
32
(
-26.4235
-26.4459
-26.4886
-26.5498
-26.6282
-26.7228
-26.833
-26.9583
-27.0985
-27.2538
-27.4245
-27.611
-27.8139
-28.0342
-28.2729
-28.5311
-28.8103
-29.1121
-29.4383
-29.7911
-30.1731
-30.5873
-31.0378
-31.53
-32.0714
-32.6722
-33.3475
-34.118
-35.0135
-36.0746
-37.3574
-38.9367
)
;
    }
    right
    {
        type            calculated;
        value           nonuniform List<scalar> 
32
(
-25.7944
-25.829
-25.895
-25.9889
-26.1079
-26.2493
-26.4108
-26.5901
-26.7849
-26.9928
-27.2115
-27.4383
-27.6706
-27.9057
-28.1407
-28.373
-28.5998
-28.8184
-29.0266
-29.2223
-29.4036
-29.5693
-29.7182
-29.8498
-29.9639
-30.0606
-30.1405
-30.2042
-30.2529
-30.2875
-30.3094
-30.3197
)
;
    }
    interface
    {
        type            calculated;
        value           nonuniform List<scalar> 
64
(
-39.8113
-29.1313
-38.1175
-29.134
-20.9823
-30.2232
-26.4607
-20.9168
-27.3316
-23.6466
-29.504
-24.6179
-22.2483
-29.1194
-23.7633
-18.8096
-25.1319
-22.9444
-19.4252
-23.7407
-21.4135
-25.3164
-22.1176
-20.6042
-25.0286
-21.5525
-18.5974
-22.2702
-20.3408
-23.4505
-20.8755
-19.6898
-23.0559
-20.368
-18.1157
-20.8831
-19.8085
-18.4933
-19.925
-19.0683
-19.8195
-18.8944
-18.7299
-18.1527
-18.1516
-19.7099
-17.1077
-17.4098
-20.7934
-15.9176
-18.7781
-10.2821
-16.0659
-22.991
-0.699239
-18.4883
-61.5104
-40.241
-35.1482
-32.8838
-31.6464
-30.9223
-30.5105
-30.3222
)
;
    }
    bottom
    {
        type            calculated;
        value           nonuniform List<scalar> 
64
(
-26.4177
-26.3903
-26.3363
-26.2571
-26.1548
-26.032
-25.8913
-25.7356
-25.5676
-25.3899
-25.2049
-25.0146
-24.8212
-24.6261
-24.4311
-24.2373
-24.0458
-23.8577
-23.6737
-23.4942
-23.3199
-23.1511
-22.9879
-22.8307
-22.6798
-22.5352
-22.3974
-22.2667
-22.1434
-22.0281
-21.9212
-21.8235
-21.7356
-21.6585
-21.593
-21.5402
-21.5011
-21.477
-21.469
-21.4785
-21.5065
-21.5545
-21.6236
-21.715
-21.8296
-21.968
-22.1308
-22.3178
-22.5283
-22.7609
-23.0132
-23.2819
-23.5628
-23.8506
-24.1394
-24.4227
-24.6937
-24.9459
-25.1732
-25.3705
-25.5332
-25.6581
-25.7427
-25.7853
)
;
    }
    defaultFaces
    {
        type            empty;
    }
}


// ************************************************************************* //
