/*--------------------------------*- C++ -*----------------------------------*\
| =========                 |                                                 |
| \\      /  F ield         | OpenFOAM: The Open Source CFD Toolbox           |
|  \\    /   O peration     | Version:  5.x                                   |
|   \\  /    A nd           | Web:      www.OpenFOAM.org                      |
|    \\/     M anipulation  |                                                 |
\*---------------------------------------------------------------------------*/
FoamFile
{
    version     2.0;
    format      ascii;
    class       volScalarField;
    location    "6";
    object      gradTx;
}
// * * * * * * * * * * * * * * * * * * * * * * * * * * * * * * * * * * * * * //

dimensions      [0 -1 0 1 0 0 0];

internalField   nonuniform List<scalar> 
2048
(
0.00630496
0.018734
0.0306378
0.0417189
0.0517481
0.0605763
0.068133
0.0744161
0.0794751
0.083393
0.0862696
0.0882092
0.0893136
0.0896799
0.0894002
0.0885639
0.0872576
0.0855651
0.0835639
0.0813228
0.0788974
0.0763284
0.0736407
0.0708444
0.0679373
0.0649074
0.0617349
0.0583945
0.0548551
0.051081
0.0470318
0.0426639
0.0379321
0.0327918
0.0272012
0.0211227
0.014524
0.00737892
-0.000332054
-0.00862062
-0.0174883
-0.0269228
-0.0368928
-0.0473408
-0.0581754
-0.0692617
-0.0804126
-0.091381
-0.101856
-0.111464
-0.119782
-0.126359
-0.130753
-0.13257
-0.131512
-0.127416
-0.120277
-0.110248
-0.0976155
-0.082765
-0.0661296
-0.0481502
-0.0292469
-0.00980738
0.0187884
0.055817
0.0912542
0.124202
0.153975
0.180131
0.202473
0.221006
0.235893
0.247393
0.255811
0.261461
0.264646
0.265652
0.264751
0.262207
0.258276
0.253208
0.247236
0.240564
0.23336
0.225745
0.217791
0.209527
0.200943
0.192001
0.182644
0.172794
0.162361
0.151237
0.139302
0.126427
0.112475
0.0973139
0.0808176
0.0628745
0.0433887
0.0222822
-0.000503884
-0.0250058
-0.0512312
-0.0791482
-0.10867
-0.139632
-0.171774
-0.204702
-0.237872
-0.270555
-0.301829
-0.330583
-0.355547
-0.375359
-0.388673
-0.394289
-0.391296
-0.379193
-0.357962
-0.328074
-0.290412
-0.246152
-0.196608
-0.143109
-0.086905
-0.0291382
0.0311399
0.0924815
0.151103
0.20548
0.254466
0.297344
0.333818
0.363943
0.388033
0.406553
0.420032
0.428999
0.433957
0.43537
0.433677
0.429305
0.422676
0.414204
0.404279
0.393244
0.38138
0.368884
0.355873
0.342386
0.328401
0.313852
0.298637
0.282632
0.265687
0.247625
0.228249
0.207341
0.184673
0.160024
0.133184
0.103967
0.0722169
0.037804
0.000629678
-0.0393708
-0.082219
-0.127876
-0.176217
-0.226996
-0.279808
-0.334038
-0.388813
-0.442958
-0.494964
-0.542987
-0.584897
-0.618383
-0.641135
-0.651075
-0.64661
-0.626862
-0.591801
-0.542253
-0.479769
-0.406389
-0.324373
-0.235961
-0.143223
-0.048009
0.0435994
0.129423
0.211269
0.286932
0.354786
0.41386
0.46381
0.504804
0.537372
0.562239
0.58019
0.591985
0.598317
0.599814
0.597067
0.590655
0.581161
0.569164
0.55522
0.539821
0.523362
0.506119
0.488244
0.469778
0.450676
0.430833
0.410105
0.388318
0.365266
0.340708
0.314366
0.285932
0.255085
0.221507
0.184903
0.145015
0.101626
0.0545569
0.00366847
-0.0511378
-0.109909
-0.172617
-0.239123
-0.309134
-0.382137
-0.45734
-0.533588
-0.609301
-0.682406
-0.75033
-0.810042
-0.858203
-0.891418
-0.906593
-0.901329
-0.874291
-0.825432
-0.756012
-0.66838
-0.565592
-0.450973
-0.327744
-0.198792
-0.0666104
0.0563825
0.167266
0.272715
0.369761
0.456273
0.531053
0.593781
0.644835
0.685051
0.71549
0.737238
0.751298
0.758545
0.759751
0.75563
0.746899
0.734297
0.718579
0.700481
0.680658
0.659631
0.637752
0.615201
0.592002
0.568073
0.543259
0.517368
0.490181
0.461442
0.430847
0.398039
0.362613
0.324145
0.282214
0.236438
0.186483
0.132076
0.0729928
0.00905241
-0.0598827
-0.133898
-0.212998
-0.297062
-0.385786
-0.478601
-0.574587
-0.672372
-0.770017
-0.864929
-0.953799
-1.03265
-1.09699
-1.14217
-1.16386
-1.15868
-1.1247
-1.06185
-0.971943
-0.858329
-0.725315
-0.577482
-0.419133
-0.253974
-0.0850557
0.0696942
0.206595
0.336334
0.455062
0.560107
0.650091
0.724821
0.78501
0.831928
0.867065
0.891864
0.907584
0.915261
0.915772
0.909926
0.898549
0.882537
0.862837
0.840387
0.816032
0.790432
0.764018
0.736979
0.709304
0.680847
0.65139
0.62069
0.588488
0.554486
0.518326
0.479567
0.437701
0.392186
0.342491
0.288135
0.228713
0.1639
0.0934314
0.0170898
-0.0653069
-0.153896
-0.248741
-0.349773
-0.45672
-0.569011
-0.685667
-0.805166
-0.925287
-1.04296
-1.15417
-1.25391
-1.33641
-1.39553
-1.42543
-1.42143
-1.38085
-1.30358
-1.19214
-1.05119
-0.886623
-0.70454
-0.510465
-0.308916
-0.103385
0.0837387
0.247993
0.402995
0.54387
0.667366
0.771993
0.857821
0.926073
0.978613
1.01748
1.04453
1.06129
1.06891
1.06833
1.0604
1.04602
1.02624
1.00224
0.975183
0.946143
0.915945
0.885093
0.853769
0.82189
0.789217
0.75545
0.720289
0.683446
0.644603
0.603352
0.559172
0.511435
0.459463
0.402596
0.34025
0.271948
0.197323
0.116082
0.0279781
-0.0672185
-0.169712
-0.279649
-0.397051
-0.521725
-0.653158
-0.790386
-0.931823
-1.07506
-1.21663
-1.35183
-1.47461
-1.57773
-1.65327
-1.69348
-1.69204
-1.64521
-1.55281
-1.41831
-1.24811
-1.05014
-0.832384
-0.601755
-0.363563
-0.121567
0.0987274
0.292054
0.473573
0.637198
0.779062
0.897655
0.993507
1.06857
1.1255
1.16703
1.1955
1.21269
1.21981
1.21778
1.2074
1.18965
1.16571
1.13702
1.10504
1.07112
1.03628
1.0011
0.965718
0.929936
0.893378
0.855632
0.816345
0.77522
0.731942
0.686078
0.637016
0.583992
0.526166
0.462724
0.392966
0.316351
0.232484
0.141063
0.0418203
-0.0655174
-0.181237
-0.305596
-0.438743
-0.580617
-0.730824
-0.88849
-1.05207
-1.21909
-1.38579
-1.54686
-1.69517
-1.82184
-1.91681
-1.96996
-1.97276
-1.92005
-1.81151
-1.65186
-1.44985
-1.21607
-0.960864
-0.69271
-0.41766
-0.139505
0.114886
0.33941
0.54898
0.736071
0.896165
1.02788
1.13245
1.21285
1.27277
1.31581
1.34486
1.36191
1.36816
1.36438
1.35125
1.32973
1.30119
1.26736
1.23008
1.19105
1.15151
1.11213
1.07295
1.0336
0.993508
0.952116
0.909013
0.863933
0.816607
0.766599
0.713208
0.6555
0.592436
0.523015
0.446409
0.36202
0.269448
0.168409
0.0586374
-0.0601837
-0.188436
-0.32652
-0.474753
-0.63325
-0.801793
-0.979688
-1.16554
-1.35695
-1.55004
-1.73901
-1.91565
-2.06929
-2.18733
-2.25662
-2.26574
-2.20757
-2.08148
-1.89394
-1.65681
-1.38423
-1.08945
-0.782736
-0.470764
-0.157036
0.132462
0.390742
0.630181
0.841539
1.01963
1.16339
1.27511
1.3591
1.42043
1.46374
1.49254
1.50898
1.51409
1.50834
1.49219
1.46652
1.43288
1.39339
1.35036
1.30593
1.26164
1.21821
1.17556
1.13303
1.08979
1.04507
0.998429
0.949673
0.898653
0.844967
0.787813
0.726048
0.658377
0.583575
0.500663
0.409
0.30822
0.198092
0.0783789
-0.0512689
-0.191345
-0.342425
-0.505038
-0.679517
-0.865877
-1.06368
-1.27181
-1.4881
-1.70878
-1.92774
-2.13579
-2.32032
-2.46572
-2.55508
-2.57313
-2.50998
-2.36451
-2.14548
-1.86905
-1.55402
-1.21724
-0.870953
-0.522257
-0.17394
0.151725
0.446798
0.718217
0.9547
1.15038
1.30483
1.42177
1.50734
1.56829
1.61057
1.63834
1.6538
1.65764
1.64986
1.63049
1.60027
1.56098
1.51521
1.4659
1.41573
1.36663
1.31937
1.27363
1.22838
1.1824
1.13467
1.08472
1.0325
0.978097
0.921191
0.860862
0.795694
0.724073
0.644485
0.555781
0.457298
0.348753
0.230021
0.100931
-0.0388875
-0.190057
-0.35337
-0.52961
-0.719368
-0.922927
-1.14018
-1.37041
-1.61189
-1.86121
-2.11224
-2.35501
-2.57485
-2.75267
-2.86686
-2.89711
-2.8296
-2.66236
-2.40724
-2.08629
-1.72442
-1.34295
-0.956203
-0.571357
-0.189944
0.17298
0.508402
0.814219
1.07671
1.28936
1.45276
1.57264
1.65742
1.716
1.75588
1.78193
1.79622
1.79885
1.7891
1.7664
1.73124
1.68566
1.63291
1.57667
1.52037
1.4664
1.41559
1.36725
1.31981
1.27154
1.22111
1.16799
1.11245
1.05491
0.995238
0.932351
0.864477
0.78959
0.705815
0.611795
0.506886
0.390959
0.264058
0.126125
-0.023209
-0.184719
-0.359465
-0.548537
-0.752808
-0.972853
-1.20894
-1.46089
-1.72763
-2.0064
-2.29147
-2.57239
-2.83245
-3.04858
-3.1934
-3.23997
-3.16898
-2.97691
-2.67983
-2.30785
-1.89401
-1.46494
-1.03708
-0.617149
-0.204732
0.196566
0.576469
0.919421
1.20881
1.43751
1.60768
1.72777
1.80905
1.86304
1.89911
1.92287
1.93601
1.93772
1.92626
1.90022
1.8597
1.80711
1.74653
1.68262
1.61972
1.56084
1.50684
1.4565
1.4075
1.35746
1.3046
1.24838
1.18951
1.12903
1.06704
1.00226
0.932421
0.854991
0.76763
0.668728
0.557713
0.434713
0.300017
0.153744
-0.00445096
-0.175521
-0.360864
-0.561935
-0.779909
-1.01564
-1.26979
-1.54283
-1.83458
-2.14329
-2.46415
-2.78671
-3.09238
-3.3536
-3.53604
-3.6042
-3.53095
-3.31018
-2.96365
-2.53268
-2.06089
-1.58123
-1.11197
-0.658615
-0.217961
0.222862
0.652011
1.03517
1.35229
1.59572
1.76999
1.88709
1.96177
2.0087
2.03957
2.06065
2.07293
2.07422
2.06155
2.03229
1.98596
1.9255
1.85613
1.78364
1.71358
1.64977
1.59306
1.54147
1.49165
1.44041
1.3854
1.326
1.26366
1.20033
1.13649
1.07053
0.999541
0.920341
0.830006
0.726596
0.609707
0.479861
0.337678
0.183525
0.0171276
-0.162688
-0.357754
-0.569968
-0.800804
-1.05134
-1.32263
-1.61591
-1.93206
-2.27076
-2.62879
-2.99643
-3.35351
-3.66756
-3.89601
-3.99248
-3.91882
-3.66444
-3.25894
-2.75922
-2.22269
-1.68949
-1.17909
-0.694674
-0.229273
0.252295
0.736143
1.16294
1.50855
1.76491
1.93998
2.05041
2.11498
2.15216
2.17641
2.19469
2.20669
2.20837
2.1952
2.16298
2.11034
2.04102
1.96174
1.87962
1.80171
1.73296
1.67419
1.62226
1.57249
1.5207
1.46379
1.40098
1.33482
1.26865
1.20346
1.13713
1.06585
0.985712
0.893036
0.785419
0.662778
0.526225
0.376787
0.215171
0.0412323
-0.146474
-0.350347
-0.572834
-0.815693
-1.08011
-1.36749
-1.67988
-2.01944
-2.38765
-2.78374
-3.19972
-3.61435
-3.98993
-4.27436
-4.40779
-4.33645
-4.04229
-3.56567
-2.98537
-2.37655
-1.78713
-1.23655
-0.724239
-0.238317
0.285348
0.83009
1.30432
1.67908
1.94592
2.11783
2.21745
2.26796
2.2924
2.30868
2.32434
2.33704
2.34016
2.32751
2.2928
2.23322
2.15385
2.06339
1.97041
1.88383
1.81016
1.75014
1.69901
1.65026
1.5987
1.54015
1.47348
1.40288
1.33375
1.26776
1.20198
1.13135
1.05119
0.956842
0.845222
0.716819
0.573609
0.417066
0.248347
0.0675385
-0.127146
-0.338862
-0.570759
-0.824832
-1.1022
-1.40446
-1.73463
-2.09622
-2.49285
-2.92722
-3.39443
-3.87302
-4.31975
-4.67187
-4.85335
-4.7885
-4.44677
-3.88351
-3.20837
-2.51909
-1.87131
-1.28245
-0.74627
-0.244769
0.322569
0.935177
1.46104
1.8655
2.13954
2.30354
2.38779
2.4199
2.42828
2.4353
2.44896
2.46376
2.4696
2.4588
2.4223
2.35501
2.26413
2.16115
2.05584
1.95956
1.88104
1.82085
1.77189
1.72524
1.6748
1.61493
1.54366
1.46764
1.39531
1.32922
1.26504
1.19605
1.11687
1.02159
0.906039
0.771698
0.621804
0.458216
0.282686
0.0956949
-0.104982
-0.323516
-0.563979
-0.828536
-1.11793
-1.43379
-1.78019
-2.16207
-2.58528
-3.05732
-3.57816
-4.12726
-4.65561
-5.0889
-5.33269
-5.28067
-4.88145
-4.21165
-3.42467
-2.64643
-1.93906
-1.31496
-0.759836
-0.248353
0.364598
1.05283
1.6349
2.06955
2.34646
2.49691
2.561
2.56988
2.55848
2.55507
2.56791
2.58671
2.59667
2.58943
2.55223
2.47612
2.37199
2.25509
2.13574
2.02846
1.94519
1.88625
1.84113
1.79769
1.74944
1.68868
1.61171
1.52884
1.45295
1.3876
1.32629
1.25993
1.18287
1.08752
0.967912
0.827254
0.670599
0.499927
0.31779
0.125326
-0.0802552
-0.304505
-0.552732
-0.827167
-1.12775
-1.45579
-1.81674
-2.21687
-2.66401
-3.17209
-3.74827
-4.37449
-4.99558
-5.52516
-5.84957
-5.81996
-5.35064
-4.5486
-3.62979
-2.75418
-1.98738
-1.3324
-0.76418
-0.248857
0.412199
1.18453
1.82783
2.2932
2.56721
2.69743
2.73663
2.71698
2.68155
2.66667
2.68058
2.70587
2.72129
2.71975
2.68351
2.59701
2.47743
2.34535
2.20996
2.09001
2.00213
1.94629
1.90704
1.86784
1.82307
1.76215
1.67785
1.58609
1.50617
1.4427
1.38578
1.32295
1.24929
1.15496
1.03089
0.883272
0.719794
0.541889
0.353225
0.156033
-0.0532345
-0.281991
-0.537239
-0.82113
-1.13218
-1.47088
-1.84461
-2.26077
-2.72827
-3.26953
-3.90188
-4.61184
-5.33723
-5.97945
-6.40785
-6.41517
-5.85947
-4.89193
-3.81812
-2.83754
-2.01338
-1.3334
-0.758768
-0.246156
0.466332
1.33181
2.04174
2.53873
2.80208
2.90424
2.9143
2.86025
2.79583
2.76862
2.78645
2.82146
2.84326
2.85012
2.81736
2.71807
2.58033
2.43222
2.27839
2.14357
2.05128
2.00096
1.97005
1.93583
1.89616
1.83626
1.74233
1.63889
1.55434
1.49431
1.44365
1.38501
1.31622
1.22436
1.095
0.939464
0.769224
0.583793
0.388521
0.187394
-0.0241731
-0.256081
-0.517688
-0.810867
-1.13184
-1.47952
-1.86424
-2.29426
-2.77753
-3.34764
-4.03595
-4.83625
-5.6777
-6.44922
-7.01134
-7.07745
-6.41414
-5.23782
-3.9828
-2.8914
-2.01439
-1.31692
-0.743338
-0.240215
0.528258
1.49617
2.2785
2.80884
3.05105
3.11593
3.0939
2.99883
2.8995
2.8593
2.88508
2.93398
2.96216
2.98077
2.9554
2.83965
2.6803
2.51615
2.34094
2.18834
2.09193
2.0503
2.0308
2.00169
1.96911
1.91228
1.80543
1.68652
1.59669
1.54224
1.50018
1.44589
1.38371
1.2964
1.16026
0.995423
0.818788
0.625353
0.423158
0.218963
0.00669318
-0.226814
-0.494218
-0.79685
-1.12748
-1.48219
-1.87616
-2.31824
-2.81151
-3.40446
-4.14721
-5.04463
-6.01384
-6.9301
-7.66345
-7.82107
-7.02213
-5.58048
-4.11553
-2.91048
-1.98821
-1.28244
-0.717929
-0.231101
0.59973
1.679
2.53974
3.10698
3.31366
3.33038
3.27574
3.13194
2.99045
2.9369
2.97621
3.04445
3.07717
3.11178
3.0999
2.96194
2.77655
2.59794
2.39763
2.2234
2.12323
2.09442
2.09023
2.06513
2.04222
1.99189
1.86743
1.72805
1.6323
1.58636
1.55594
1.5052
1.45173
1.37204
1.22665
1.05057
0.868507
0.666306
0.456557
0.250267
0.0391465
-0.194141
-0.466904
-0.779574
-1.11999
-1.4793
-1.88092
-2.33409
-2.83022
-3.43809
-4.23223
-5.23396
-6.34261
-7.41525
-8.36663
-8.66443
-7.69239
-5.91138
-4.20652
-2.88963
-1.93325
-1.22993
-0.682889
-0.218982
0.683274
1.88148
2.82668
3.43768
3.5888
3.54448
3.4609
3.25893
3.0663
2.99936
3.05971
3.15458
3.18692
3.24294
3.25402
3.08487
2.86773
2.67889
2.44855
2.24755
2.14414
2.13349
2.1497
2.12553
2.11561
2.0774
1.92861
1.76225
1.66005
1.62659
1.61183
1.56225
1.52009
1.45269
1.294
1.10405
0.918597
0.706421
0.488056
0.280813
0.072984
-0.157905
-0.435739
-0.759546
-1.11043
-1.4712
-1.87895
-2.34382
-2.83398
-3.44669
-4.28728
-5.4015
-6.66154
-7.89451
-9.12171
-9.63146
-8.43563
-6.21818
-4.24448
-2.8241
-1.84868
-1.15996
-0.63887
-0.204111
0.78263
2.10436
3.13971
3.80709
3.87451
3.75375
3.65166
3.37929
3.1243
3.04438
3.13556
3.26712
3.28914
3.37355
3.42223
3.20796
2.95164
2.76109
2.49385
2.25936
2.1534
2.16775
2.21124
2.18163
2.18905
2.17195
1.98915
1.78754
1.67865
1.6629
1.66931
1.61596
1.58838
1.54036
1.36204
1.15468
0.969584
0.745496
0.51689
0.31009
0.108009
-0.117824
-0.400621
-0.737263
-1.10015
-1.45802
-1.87046
-2.3502
-2.82341
-3.42857
-4.30828
-5.54485
-6.96966
-8.35347
-9.92672
-10.7534
-9.26449
-6.48338
-4.2168
-2.70999
-1.73467
-1.07366
-0.586793
-0.186822
0.90339
2.34777
3.47796
4.22379
4.16762
3.9519
3.85206
3.49255
3.16126
3.06933
3.20383
3.38633
3.38029
3.50224
3.61088
3.33012
3.02493
2.84781
2.5337
2.25707
2.14954
2.19743
2.27782
2.23137
2.26187
2.27988
2.04903
1.80191
1.68658
1.69527
1.73058
1.66459
1.65584
1.63797
1.43016
1.20075
1.02246
0.783337
0.542156
0.337587
0.144015
-0.0734733
-0.361344
-0.713177
-1.09085
-1.43965
-1.85522
-2.35699
-2.79935
-3.38222
-4.29064
-5.66202
-7.26864
-8.77233
-10.7755
-12.0711
-10.1937
-6.68259
-4.11
-2.54468
-1.59241
-0.972728
-0.527806
-0.167505
1.05391
2.61091
3.83858
4.6998
4.46334
4.13017
4.0688
3.59812
3.17345
3.0713
3.26448
3.51857
3.45509
3.62659
3.82892
3.44929
3.08264
2.94399
2.56818
2.23853
2.13083
2.22267
2.35374
2.27149
2.33272
2.40716
2.10786
1.80292
1.68217
1.72365
1.79897
1.70556
1.72124
1.74969
1.4974
1.23985
1.07891
0.819719
0.562774
0.362817
0.18076
-0.0242553
-0.317599
-0.687644
-1.08475
-1.41563
-1.83232
-2.36923
-2.76276
-3.30642
-4.229
-5.75133
-7.5645
-9.12459
-11.6555
-13.638
-11.2403
-6.78233
-3.91048
-2.32732
-1.42422
-0.859311
-0.463217
-0.146587
1.24654
2.89167
4.21582
5.25204
4.75468
4.27661
4.31225
3.695
3.15658
3.04708
3.31711
3.67311
3.50584
3.74278
4.08888
3.56209
3.11765
3.05692
2.59708
2.20117
2.09529
2.24332
2.44521
2.29716
2.39929
2.56192
2.16462
1.7876
1.66361
1.7478
1.87929
1.73509
1.78265
1.88134
1.56216
1.2687
1.14156
0.854309
0.577448
0.385359
0.217931
0.0306217
-0.268984
-0.660833
-1.08477
-1.38506
-1.79979
-2.39362
-2.7145
-3.20043
-4.11704
-5.81101
-7.86979
-9.3756
-12.5455
-15.5236
-12.4232
-6.73749
-3.60576
-2.05933
-1.23348
-0.73593
-0.394427
-0.12451
1.49931
3.1861
4.59985
5.90411
5.03171
4.3751
4.59782
3.78126
3.10577
2.99322
3.3605
3.8632
3.5217
3.84508
4.40805
3.6633
3.12011
3.19718
2.61955
2.14201
2.04077
2.25872
2.56097
2.30149
2.45807
2.75519
2.21726
1.75249
1.62903
1.76706
1.97838
1.74783
1.83725
2.04102
1.62202
1.28285
1.21443
0.886543
0.584623
0.404919
0.255085
0.0921799
-0.215035
-0.632596
-1.09478
-1.34659
-1.75421
-2.439
-2.655
-3.06426
-3.94712
-5.83858
-8.20644
-9.4811
-13.4121
-17.8182
-13.7634
-6.48812
-3.18619
-1.74481
-1.02454
-0.605328
-0.322857
-0.101708
1.83801
3.48784
4.97519
6.68859
5.28067
4.40427
4.94772
3.85332
3.01556
2.90625
3.39199
4.1074
3.48771
3.9252
4.80993
3.74517
3.07661
3.37971
2.63364
2.05761
1.96505
2.26722
2.71319
2.27486
2.50388
3.00174
2.26219
1.69369
1.57664
1.78006
2.10581
1.73635
1.881
2.23975
1.67335
1.27636
1.30328
0.915446
0.582446
0.421412
0.291583
0.161717
-0.155287
-0.602292
-1.1199
-1.29828
-1.69012
-2.51706
-2.58383
-2.89903
-3.71006
-5.82973
-8.60918
-9.3856
-14.2057
-20.638
-15.2831
-5.9559
-2.64742
-1.39074
-0.802481
-0.470328
-0.249883
-0.0785926
2.29888
3.78737
5.31882
7.64977
5.48281
4.33618
5.39305
3.90489
2.88004
2.78284
3.40658
4.43119
3.38374
3.97159
5.32605
3.79669
2.96932
3.62519
2.63561
1.94422
1.86596
2.26561
2.91854
2.20429
2.52951
3.32116
2.29359
1.60693
1.50487
1.78422
2.27466
1.69062
1.90836
2.49235
1.71099
1.2415
1.41629
0.939379
0.568737
0.435071
0.326488
0.240866
-0.0893629
-0.568537
-1.16686
-1.23765
-1.59942
-2.6431
-2.49896
-2.7075
-3.39491
-5.77666
-9.12973
-9.02089
-14.8556
-24.1313
-17.005
-5.04005
-1.99349
-1.00696
-0.572818
-0.333679
-0.176776
-0.0555342
2.93181
4.07115
5.59801
8.84699
5.61302
4.13484
5.97624
3.92557
2.69311
2.62025
3.39574
4.86891
3.18319
3.96855
5.99788
3.80255
2.77502
3.96165
2.61906
1.79787
1.74165
2.24842
3.19943
2.07254
2.52519
3.73908
2.30254
1.48783
1.41267
1.77515
2.50256
1.59732
1.91188
2.8183
1.72769
1.16834
1.56465
0.955703
0.540981
0.446578
0.358446
0.331674
-0.017118
-0.528892
-1.24438
-1.16168
-1.47053
-2.83706
-2.39601
-2.49474
-2.98878
-5.66586
-9.84154
-8.30469
-15.2643
-28.4859
-18.9506
-3.61289
-1.24081
-0.605807
-0.341144
-0.197923
-0.104663
-0.0328551
3.80415
4.32062
5.76764
10.3583
5.63829
3.75466
6.75399
3.89913
2.44883
2.4168
3.34592
5.46604
2.85167
3.89531
6.87917
3.74213
2.46405
4.42638
2.57373
1.61467
1.59096
2.20687
3.58552
1.85726
2.47801
4.28856
2.27593
1.33212
1.29976
1.74584
2.81281
1.43916
1.88178
3.24289
1.71362
1.04434
1.76335
0.960346
0.49634
0.457227
0.385536
0.436711
0.0611714
-0.479469
-1.36365
-1.06691
-1.28749
-3.12473
-2.26704
-2.26894
-2.47701
-5.47519
-10.8452
-7.13948
-15.3011
-33.9366
-21.1392
-1.51515
-0.422849
-0.201265
-0.112736
-0.0652795
-0.0344902
-0.0108231
)
;

boundaryField
{
    left
    {
        type            calculated;
        value           uniform 0;
    }
    right
    {
        type            calculated;
        value           uniform 0;
    }
    interface
    {
        type            calculated;
        value           nonuniform List<scalar> 
64
(
3.80415
4.32062
5.76764
10.3583
5.63829
3.75466
6.75399
3.89913
2.44883
2.4168
3.34592
5.46604
2.85167
3.89531
6.87917
3.74213
2.46405
4.42638
2.57373
1.61467
1.59096
2.20687
3.58552
1.85726
2.47801
4.28856
2.27593
1.33212
1.29976
1.74584
2.81281
1.43916
1.88178
3.24289
1.71362
1.04434
1.76335
0.960346
0.49634
0.457227
0.385536
0.436711
0.0611714
-0.479469
-1.36365
-1.06691
-1.28749
-3.12473
-2.26704
-2.26894
-2.47701
-5.47519
-10.8452
-7.13948
-15.3011
-33.9366
-21.1392
-1.51515
-0.422849
-0.201265
-0.112736
-0.0652795
-0.0344902
-0.0108231
)
;
    }
    bottom
    {
        type            calculated;
        value           nonuniform List<scalar> 
64
(
0.00630496
0.018734
0.0306378
0.0417189
0.0517481
0.0605763
0.068133
0.0744161
0.0794751
0.083393
0.0862696
0.0882092
0.0893136
0.0896799
0.0894002
0.0885639
0.0872576
0.0855651
0.0835639
0.0813228
0.0788974
0.0763284
0.0736407
0.0708444
0.0679373
0.0649074
0.0617349
0.0583945
0.0548551
0.051081
0.0470318
0.0426639
0.0379321
0.0327918
0.0272012
0.0211227
0.014524
0.00737892
-0.000332054
-0.00862062
-0.0174883
-0.0269228
-0.0368928
-0.0473408
-0.0581754
-0.0692617
-0.0804126
-0.091381
-0.101856
-0.111464
-0.119782
-0.126359
-0.130753
-0.13257
-0.131512
-0.127416
-0.120277
-0.110248
-0.0976155
-0.082765
-0.0661296
-0.0481502
-0.0292469
-0.00980738
)
;
    }
    defaultFaces
    {
        type            empty;
    }
}


// ************************************************************************* //
