/*--------------------------------*- C++ -*----------------------------------*\
| =========                 |                                                 |
| \\      /  F ield         | OpenFOAM: The Open Source CFD Toolbox           |
|  \\    /   O peration     | Version:  5.x                                   |
|   \\  /    A nd           | Web:      www.OpenFOAM.org                      |
|    \\/     M anipulation  |                                                 |
\*---------------------------------------------------------------------------*/
FoamFile
{
    version     2.0;
    format      ascii;
    class       volScalarField;
    location    "6";
    object      T;
}
// * * * * * * * * * * * * * * * * * * * * * * * * * * * * * * * * * * * * * //

dimensions      [0 0 0 1 0 0 0];

internalField   nonuniform List<scalar> 
2048
(
9.81021
9.8104
9.81079
9.81136
9.8121
9.81298
9.81399
9.81511
9.81632
9.81759
9.81892
9.82029
9.82168
9.82308
9.82448
9.82587
9.82725
9.8286
9.82992
9.83121
9.83246
9.83368
9.83485
9.83598
9.83706
9.8381
9.83909
9.84003
9.84092
9.84174
9.84251
9.84321
9.84385
9.8444
9.84487
9.84525
9.84553
9.8457
9.84576
9.84569
9.84549
9.84515
9.84465
9.84399
9.84317
9.84218
9.84101
9.83966
9.83815
9.83648
9.83467
9.83274
9.83072
9.82865
9.82658
9.82454
9.82259
9.82078
9.81915
9.81773
9.81656
9.81567
9.81506
9.81475
9.43876
9.43935
9.44051
9.4422
9.44439
9.44701
9.45002
9.45334
9.45692
9.46071
9.46465
9.4687
9.47282
9.47697
9.48113
9.48525
9.48932
9.49332
9.49723
9.50105
9.50475
9.50834
9.5118
9.51514
9.51835
9.52142
9.52435
9.52713
9.52975
9.5322
9.53448
9.53656
9.53843
9.54007
9.54147
9.5426
9.54343
9.54395
9.54413
9.54394
9.54335
9.54234
9.54088
9.53894
9.53651
9.53357
9.53012
9.52614
9.52166
9.51671
9.51133
9.5056
9.4996
9.49345
9.48728
9.48122
9.47543
9.47004
9.46518
9.46096
9.45748
9.45482
9.45301
9.4521
9.08311
9.08409
9.086
9.08881
9.09243
9.09676
9.10172
9.10719
9.11309
9.11932
9.1258
9.13245
9.1392
9.14601
9.15281
9.15956
9.16622
9.17277
9.17917
9.1854
9.19146
9.19732
9.20298
9.20844
9.21368
9.2187
9.22349
9.22804
9.23232
9.23634
9.24006
9.24347
9.24654
9.24924
9.25154
9.2534
9.25479
9.25566
9.25597
9.25568
9.25474
9.25311
9.25075
9.2476
9.24365
9.23886
9.23321
9.22671
9.21937
9.21124
9.2024
9.19296
9.18308
9.17293
9.16273
9.15272
9.14314
9.13423
9.1262
9.11924
9.1135
9.1091
9.10612
9.10462
8.74235
8.74371
8.74639
8.75031
8.75536
8.7614
8.76829
8.77589
8.78407
8.79269
8.80164
8.81082
8.82014
8.82952
8.83888
8.84817
8.85734
8.86634
8.87513
8.88369
8.892
8.90004
8.90781
8.9153
8.92249
8.92938
8.93596
8.9422
8.94809
8.95361
8.95874
8.96344
8.96767
8.97141
8.9746
8.97719
8.97913
8.98036
8.98083
8.98048
8.97923
8.97704
8.97384
8.96957
8.96418
8.95763
8.94989
8.94095
8.93085
8.91963
8.9074
8.89431
8.88058
8.86646
8.85225
8.83829
8.82493
8.8125
8.8013
8.79161
8.78363
8.77752
8.77339
8.7713
8.41562
8.41739
8.42085
8.42591
8.43241
8.44017
8.449
8.45872
8.46915
8.48013
8.49151
8.50317
8.51499
8.52687
8.53873
8.55049
8.56207
8.57343
8.58453
8.59532
8.6058
8.61594
8.62573
8.63516
8.64423
8.65292
8.66121
8.66908
8.67652
8.6835
8.68999
8.69594
8.70132
8.70607
8.71014
8.71346
8.71597
8.71759
8.71825
8.71787
8.71638
8.71369
8.70972
8.7044
8.69766
8.68945
8.67971
8.66844
8.65565
8.64141
8.62584
8.60914
8.59156
8.57344
8.55519
8.53723
8.52004
8.50405
8.48967
8.47723
8.467
8.45918
8.4539
8.45125
8.10217
8.10435
8.10863
8.11486
8.12285
8.13236
8.14316
8.15501
8.16769
8.18101
8.19479
8.20888
8.22315
8.23748
8.25177
8.26592
8.27985
8.2935
8.30681
8.31976
8.33231
8.34446
8.35619
8.36749
8.37836
8.38877
8.39871
8.40816
8.4171
8.42549
8.4333
8.44048
8.44698
8.45273
8.45768
8.46174
8.46483
8.46686
8.46775
8.46739
8.46571
8.46259
8.45793
8.45165
8.44366
8.43387
8.42223
8.40871
8.39332
8.37612
8.35725
8.33693
8.31549
8.29332
8.27094
8.2489
8.22779
8.20817
8.19054
8.17532
8.16283
8.1533
8.14688
8.14365
7.80127
7.80389
7.80902
7.81648
7.82602
7.83734
7.85014
7.86415
7.87908
7.89473
7.91088
7.92737
7.94404
7.96077
7.97743
7.99391
8.01012
8.02598
8.04144
8.05645
8.071
8.08508
8.09866
8.11176
8.12435
8.13642
8.14796
8.15893
8.16931
8.17907
8.18817
8.19655
8.20415
8.21091
8.21673
8.22154
8.22523
8.22771
8.22886
8.22858
8.22676
8.22328
8.21802
8.21087
8.20171
8.19046
8.17701
8.16134
8.14342
8.12332
8.10117
8.07724
8.05187
8.02557
7.99895
7.9727
7.94754
7.92417
7.90321
7.88517
7.8704
7.85915
7.85159
7.84779
7.51227
7.51535
7.5214
7.53015
7.54131
7.5545
7.56936
7.58555
7.60275
7.62072
7.63922
7.65808
7.67712
7.6962
7.71517
7.73393
7.75235
7.77036
7.78788
7.80489
7.82135
7.83727
7.85264
7.86745
7.8817
7.89537
7.90844
7.92088
7.93266
7.94375
7.9541
7.96366
7.97235
7.9801
7.98681
7.99238
7.9967
7.99965
8.00111
8.00096
7.99906
7.99529
7.98951
7.98158
7.97137
7.95874
7.9436
7.92587
7.9055
7.88256
7.85717
7.82959
7.80023
7.76968
7.73867
7.70804
7.67867
7.65143
7.62705
7.60612
7.58905
7.57609
7.5674
7.56304
7.23454
7.23813
7.24515
7.25529
7.26815
7.28329
7.30027
7.31868
7.33817
7.35845
7.37929
7.40048
7.42185
7.44324
7.46449
7.48546
7.50604
7.52612
7.54565
7.56456
7.58287
7.60055
7.61762
7.63408
7.64992
7.66513
7.67967
7.69353
7.70667
7.71905
7.73063
7.74134
7.75111
7.75985
7.76746
7.7738
7.77877
7.78222
7.78403
7.78406
7.78215
7.77817
7.77195
7.76333
7.75216
7.73828
7.72154
7.70185
7.67914
7.65341
7.62479
7.59355
7.56013
7.5252
7.48961
7.45439
7.42062
7.38934
7.36144
7.33757
7.31818
7.30352
7.29372
7.28881
6.9675
6.97164
6.97972
6.99134
7.00601
7.0232
7.04237
7.06305
7.08484
7.10744
7.13058
7.15408
7.17774
7.20139
7.22487
7.24802
7.2707
7.2928
7.31425
7.335
7.35506
7.37443
7.39313
7.41116
7.42853
7.44522
7.46119
7.47642
7.49087
7.5045
7.51727
7.52912
7.53996
7.5497
7.5582
7.56534
7.57098
7.57497
7.57717
7.57742
7.57557
7.57144
7.56487
7.55566
7.54363
7.5286
7.51039
7.48886
7.46389
7.43546
7.40365
7.36872
7.33114
7.29166
7.25129
7.21125
7.17286
7.13736
7.10581
7.07895
7.05725
7.04091
7.03003
7.02459
6.71062
6.71536
6.72458
6.7378
6.75441
6.77375
6.79519
6.81818
6.84229
6.86719
6.89262
6.91839
6.94431
6.97019
6.99586
7.02114
7.04587
7.06992
7.09322
7.11573
7.13746
7.15844
7.17869
7.19824
7.21708
7.23519
7.25254
7.26909
7.28481
7.29966
7.31359
7.32656
7.33846
7.34918
7.3586
7.36655
7.37289
7.37745
7.38008
7.38061
7.37886
7.37467
7.36782
7.35812
7.34534
7.32927
7.30971
7.28645
7.25934
7.22829
7.19333
7.15469
7.11287
7.06867
7.02328
6.97814
6.93485
6.89494
6.85962
6.82974
6.80574
6.78777
6.77585
6.76992
6.46336
6.46877
6.47925
6.49421
6.5129
6.5345
6.55829
6.58365
6.61009
6.63727
6.66496
6.69296
6.72109
6.74917
6.777
6.80437
6.8311
6.85705
6.88213
6.90632
6.92964
6.95215
6.97388
6.99487
7.01512
7.03461
7.05328
7.07111
7.08805
7.10407
7.11915
7.13321
7.14616
7.15789
7.16822
7.177
7.18406
7.18922
7.19231
7.19316
7.19159
7.18739
7.18035
7.17025
7.15683
7.13985
7.11905
7.09419
7.06506
7.03149
6.99345
6.95111
6.90494
6.85584
6.80515
6.75459
6.70611
6.66156
6.62237
6.58944
6.56318
6.54366
6.53077
6.52438
6.22525
6.23139
6.24326
6.26012
6.28104
6.30504
6.33128
6.35904
6.38781
6.41726
6.44716
6.47735
6.50766
6.5379
6.56785
6.59728
6.62597
6.65375
6.68055
6.70634
6.73116
6.75511
6.77825
6.80063
6.82224
6.84305
6.86301
6.88206
6.90018
6.91734
6.93352
6.94866
6.96266
6.97538
6.98665
6.99628
7.00408
7.00986
7.01345
7.01467
7.01331
7.00918
7.00204
6.99162
6.97767
6.95988
6.93798
6.91167
6.88065
6.84469
6.80365
6.75761
6.70701
6.65281
6.59651
6.54018
6.48617
6.43673
6.39356
6.35759
6.32915
6.30817
6.2944
6.28759
5.99581
6.00277
6.01618
6.03512
6.05844
6.08499
6.11376
6.14396
6.17506
6.20673
6.2388
6.27113
6.30358
6.33595
6.368
6.39946
6.43006
6.45963
6.48806
6.51537
6.54161
6.56692
6.5914
6.61509
6.63801
6.66011
6.6813
6.70154
6.72079
6.73905
6.75631
6.77251
6.78755
6.80127
6.81348
6.82397
6.83254
6.83897
6.84309
6.84471
6.84362
6.83962
6.83244
6.82181
6.80742
6.78896
6.76609
6.73846
6.70571
6.6675
6.62356
6.57386
6.51876
6.45925
6.39701
6.33448
6.27455
6.21997
6.17271
6.13374
6.10325
6.08095
6.0664
6.05924
5.7746
5.78249
5.79761
5.81883
5.84475
5.87398
5.90538
5.93806
5.97147
6.00531
6.03948
6.0739
6.10844
6.14291
6.17704
6.2105
6.24299
6.27429
6.30429
6.33302
6.3606
6.38718
6.41291
6.43787
6.46206
6.4854
6.5078
6.52918
6.54951
6.56882
6.58712
6.60436
6.62043
6.63516
6.64833
6.65971
6.66905
6.67615
6.68082
6.68287
6.68211
6.6783
6.67116
6.6604
6.64567
6.62664
6.60294
6.57415
6.53983
6.49953
6.45284
6.39954
6.33989
6.27486
6.20632
6.13711
6.0708
6.01079
5.95937
5.9175
5.88511
5.86165
5.84646
5.83902
5.56121
5.57013
5.58715
5.61089
5.63962
5.6717
5.7058
5.74099
5.77668
5.81263
5.84882
5.88527
5.92186
5.9584
5.99459
6.03005
6.06438
6.09735
6.12886
6.15893
6.18773
6.2155
6.24242
6.26859
6.29399
6.31855
6.34212
6.3646
6.38596
6.40628
6.42558
6.44384
6.46093
6.47669
6.49084
6.5031
6.51324
6.52103
6.52627
6.52879
6.52838
6.52481
6.51779
6.50698
6.49201
6.47253
6.44813
6.41833
6.38262
6.34042
6.29114
6.23435
6.17011
6.09936
6.02412
5.94769
5.87447
5.80873
5.75311
5.70847
5.67439
5.64999
5.63432
5.62667
5.35522
5.3653
5.38444
5.41096
5.44274
5.47782
5.51473
5.55244
5.59035
5.62832
5.66645
5.70485
5.74344
5.78203
5.82028
5.85772
5.89388
5.92848
5.96141
5.99272
6.02265
6.0515
6.07955
6.10688
6.13346
6.15921
6.18393
6.20745
6.22979
6.25106
6.27133
6.29059
6.30871
6.32549
6.34063
6.3538
6.36475
6.37324
6.37907
6.38207
6.38206
6.37879
6.37195
6.36117
6.34606
6.32623
6.30125
6.2706
6.23369
6.18981
6.13814
6.07799
6.00917
5.9325
5.85014
5.76586
5.68512
5.61331
5.5535
5.50629
5.4708
5.44569
5.42971
5.42195
5.15625
5.16764
5.18915
5.21873
5.25382
5.29206
5.33185
5.37209
5.41216
5.45204
5.492
5.53229
5.57284
5.61343
5.65376
5.69319
5.73114
5.76732
5.80161
5.83406
5.865
5.89484
5.92394
5.95238
5.98012
6.00705
6.03289
6.05742
6.08067
6.10282
6.12403
6.14427
6.1634
6.18123
6.19739
6.21148
6.22324
6.23244
6.23886
6.24237
6.24278
6.23986
6.23326
6.22259
6.20741
6.18734
6.16192
6.13057
6.09264
6.04732
5.99352
5.93019
5.85681
5.77407
5.68415
5.59128
5.50228
5.42407
5.36013
5.31064
5.27407
5.24853
5.23243
5.22465
4.96391
4.97679
5.00093
5.03391
5.07259
5.11414
5.15689
5.19966
5.24179
5.28346
5.32512
5.36722
5.40968
5.45226
5.49468
5.53612
5.57583
5.61354
5.64912
5.68261
5.71444
5.74517
5.77526
5.80477
5.83363
5.86174
5.8887
5.91417
5.93826
5.96124
5.98335
6.00454
6.02469
6.04358
6.06078
6.0758
6.08838
6.09829
6.10532
6.10933
6.11019
6.10767
6.10138
6.09088
6.07572
6.0555
6.02975
5.99785
5.95911
5.9126
5.85693
5.79066
5.71281
5.62387
5.52596
5.42363
5.32548
5.24052
5.17261
5.1212
5.08394
5.05829
5.04227
5.03457
4.77786
4.79243
4.81948
4.85624
4.89881
4.9438
4.98957
5.03487
5.07896
5.12224
5.16547
5.20932
5.25365
5.29817
5.34271
5.38622
5.42765
5.46685
5.50366
5.53805
5.57064
5.60215
5.63317
5.66372
5.69367
5.72297
5.75105
5.77742
5.80227
5.82599
5.84896
5.87111
5.89225
5.91224
5.93051
5.94646
5.95987
5.9705
5.97811
5.98264
5.98397
5.98188
5.97596
5.9657
5.95062
5.93033
5.90439
5.87208
5.83269
5.78528
5.72808
5.65915
5.57695
5.48173
5.37541
5.26262
5.15424
5.06218
4.99056
4.93772
4.9002
4.87477
4.85905
4.85154
4.59774
4.61425
4.6445
4.68545
4.73227
4.7808
4.82965
4.87748
4.92336
4.96809
5.01271
5.05825
5.1044
5.15082
5.19755
5.24318
5.28629
5.32693
5.36492
5.40009
5.4333
5.46546
5.49738
5.52892
5.55993
5.59046
5.61969
5.64688
5.67239
5.69678
5.72059
5.74366
5.76577
5.7869
5.80628
5.82316
5.83739
5.84874
5.85693
5.86197
5.86377
5.86218
5.85669
5.84673
5.83178
5.8115
5.78547
5.75287
5.71302
5.66501
5.60663
5.53541
5.44899
5.34747
5.23242
5.10799
4.98801
4.88855
4.81362
4.75994
4.72267
4.69781
4.68259
4.67537
4.42322
4.44196
4.47569
4.52133
4.57278
4.62488
4.67686
4.72725
4.77473
4.8207
4.86651
4.9137
4.96165
5.00987
5.05889
5.10674
5.15145
5.19351
5.23264
5.26843
5.30212
5.33478
5.36757
5.4001
5.4321
5.46392
5.49435
5.52228
5.54835
5.57329
5.59792
5.62191
5.64496
5.66728
5.68784
5.70561
5.72067
5.73275
5.74149
5.74702
5.74931
5.74824
5.74324
5.73365
5.71888
5.69865
5.67265
5.63987
5.59971
5.55143
5.49227
5.41917
5.32871
5.22097
5.09699
4.95951
4.82622
4.71912
4.64149
4.58767
4.55119
4.52725
4.51276
4.50591
4.25396
4.27531
4.31276
4.36365
4.42018
4.4758
4.53095
4.58395
4.63279
4.67977
4.72652
4.77539
4.8251
4.87498
4.92644
4.97667
5.02284
5.06628
5.10656
5.1428
5.1768
5.2098
5.24347
5.27698
5.30989
5.34309
5.37481
5.40336
5.42988
5.45524
5.48071
5.50561
5.52953
5.55311
5.57493
5.59355
5.60943
5.62226
5.6315
5.63751
5.64028
5.63979
5.63534
5.62617
5.61161
5.59147
5.56563
5.53275
5.49239
5.44419
5.38468
5.31021
5.21588
5.10204
4.96918
4.81699
4.6682
4.55337
4.47388
4.42073
4.38563
4.36296
4.34938
4.343
4.08963
4.11409
4.15539
4.21221
4.27437
4.33328
4.39167
4.4474
4.49727
4.54503
4.59241
4.64302
4.69451
4.7458
4.79993
4.85275
4.90018
4.94499
4.98646
5.02292
5.05707
5.09021
5.12481
5.15932
5.19299
5.22772
5.26086
5.28988
5.31672
5.34234
5.36869
5.39451
5.41919
5.44414
5.46732
5.48671
5.50341
5.51701
5.5267
5.53316
5.53639
5.53654
5.53271
5.52402
5.50967
5.48964
5.46411
5.43119
5.39066
5.34295
5.28352
5.20832
5.11024
4.99052
4.8492
4.68031
4.51315
4.39079
4.31055
4.25902
4.22586
4.20481
4.19231
4.18647
3.92991
3.95814
4.00327
4.06682
4.13527
4.19706
4.25876
4.31744
4.36791
4.41623
4.46382
4.51635
4.56965
4.62198
4.67909
4.73482
4.78316
4.82935
4.87215
4.90853
4.94269
4.9757
5.01135
5.04688
5.08109
5.11757
5.15233
5.1816
5.20864
5.23431
5.26162
5.28839
5.31364
5.34013
5.36482
5.38482
5.40235
5.41678
5.42683
5.43372
5.43738
5.43822
5.43508
5.42693
5.41279
5.39284
5.3678
5.33486
5.29415
5.24738
5.18845
5.1133
5.01152
4.88615
4.73738
4.54942
4.36016
4.23087
4.15133
4.10243
4.07181
4.05267
4.04141
4.03617
3.77444
3.80737
3.85603
3.92733
4.0029
4.06681
4.13196
4.19396
4.24441
4.29313
4.34038
4.39514
4.45034
4.50311
4.56367
4.62277
4.67146
4.7191
4.76346
4.79936
4.83341
4.86594
4.90287
4.9395
4.97386
5.0124
5.04908
5.07827
5.10542
5.13083
5.15929
5.18705
5.21258
5.24084
5.26726
5.28763
5.30601
5.32135
5.33162
5.33894
5.34296
5.34459
5.3422
5.33466
5.32071
5.30076
5.27648
5.2435
5.20244
5.15717
5.09911
5.02501
4.91938
4.78862
4.63424
4.42439
4.20805
4.07313
3.9961
3.95092
3.92338
3.90642
3.89652
3.89194
3.62285
3.66181
3.71322
3.79355
3.87735
3.94214
4.01099
4.0769
4.12646
4.17554
4.22168
4.2792
4.33646
4.38876
4.45343
4.51653
4.56474
4.61396
4.66027
4.69512
4.72906
4.7606
4.79916
4.83701
4.87095
4.91199
4.95101
4.97963
5.00687
5.03162
5.06149
5.09035
5.11571
5.14605
5.1745
5.19487
5.21415
5.23055
5.24085
5.24859
5.25289
5.2554
5.25385
5.247
5.23319
5.2131
5.18991
5.15685
5.11511
5.07203
5.0151
4.94337
4.8335
4.69744
4.54052
4.30539
4.0554
3.91717
3.84486
3.80449
3.7805
3.76594
3.7575
3.75361
3.47475
3.52161
3.57432
3.66535
3.75882
3.82259
3.89554
3.96627
4.01371
4.06333
4.10725
4.16834
4.22797
4.2784
4.34813
4.41615
4.46261
4.51365
4.56252
4.59551
4.62946
4.65929
4.70004
4.73932
4.77196
4.81613
4.85806
4.88542
4.91283
4.93633
4.96805
4.99815
5.02267
5.05557
5.08645
5.10626
5.12654
5.14421
5.15424
5.16248
5.1669
5.17045
5.16978
5.16373
5.15001
5.12952
5.10793
5.0747
5.03171
4.99173
4.93595
4.86838
4.7535
4.61193
4.45721
4.1928
3.90039
3.76269
3.69764
3.66313
3.64311
3.63111
3.6242
3.62102
3.32966
3.3871
3.43866
3.54258
3.64768
3.7076
3.78531
3.86221
3.90573
3.95645
3.99655
4.06245
4.1249
4.17144
4.24757
4.32175
4.3646
4.41789
4.47022
4.5002
4.53452
4.5616
4.60537
4.64639
4.67646
4.72464
4.77026
4.79533
4.82319
4.8446
4.87882
4.91041
4.93308
4.96919
5.00307
5.02148
5.04296
5.06221
5.07156
5.08041
5.08473
5.08952
5.08979
5.08467
5.07097
5.04967
5.03039
4.99685
4.95174
4.91611
4.86114
4.80017
4.67896
4.53113
4.38566
4.08721
3.74073
3.60961
3.5546
3.52688
3.51114
3.5018
3.49645
3.49399
3.18704
3.25888
3.30539
3.42509
3.54445
3.59643
3.67995
3.76496
3.80198
3.85496
3.88894
3.96142
4.02742
4.06716
4.15153
4.2336
4.27018
4.32639
4.38346
4.40875
4.44422
4.46706
4.51502
4.55827
4.58391
4.63731
4.68769
4.70899
4.73791
4.75602
4.79367
4.8271
4.8465
4.88674
4.92438
4.9402
4.96318
4.98446
4.99254
5.00224
5.00613
5.01244
5.01366
5.00965
4.99589
4.97318
4.95722
4.9232
4.87462
4.84511
4.79001
4.73902
4.60949
4.45371
4.32759
3.98948
3.57348
3.45807
3.41598
3.39577
3.38451
3.37787
3.37408
3.37235
3.04621
3.13782
3.17343
3.31276
3.4499
3.48817
3.57911
3.67493
3.70179
3.75909
3.78367
3.8652
3.93582
3.96468
4.05984
4.15211
4.17867
4.23883
4.30247
4.32068
4.35865
4.3751
4.42892
4.47509
4.49368
4.554
4.61053
4.62595
4.65702
4.6701
4.7125
4.7483
4.76241
4.80805
4.85049
4.86204
4.887
4.91093
4.91686
4.92784
4.93082
4.93904
4.94118
4.93851
4.92465
4.89962
4.88835
4.85367
4.79969
4.77879
4.72173
4.68539
4.54467
4.37784
4.28515
3.90083
3.39497
3.30863
3.28206
3.26985
3.26313
3.25919
3.25695
3.25592
2.90635
3.02523
3.04137
3.20547
3.36507
3.38167
3.48241
3.59273
3.60425
3.66926
3.67978
3.77382
3.85059
3.86293
3.97232
4.07791
4.08926
4.15491
4.22759
4.23534
4.27804
4.28505
4.34701
4.3971
4.40505
4.47454
4.53907
4.54566
4.58069
4.58628
4.63525
4.67418
4.68023
4.73299
4.78157
4.78654
4.8142
4.84164
4.84421
4.85715
4.8585
4.8692
4.87215
4.87111
4.85716
4.8285
4.82382
4.78826
4.72618
4.71742
4.65527
4.64001
4.48417
4.3011
4.26106
3.82294
3.20054
3.16234
3.1532
3.14913
3.14691
3.14561
3.14487
3.14453
)
;

boundaryField
{
    left
    {
        type            zeroGradient;
    }
    right
    {
        type            zeroGradient;
    }
    interface
    {
        type            fixedValue;
        value           nonuniform List<scalar> 
64
(
2.83485
2.97291
2.97291
3.15314
3.32737
3.32737
3.43485
3.55512
3.55512
3.62675
3.62675
3.72958
3.81062
3.81062
3.92963
4.04411
4.04411
4.11369
4.1927
4.1927
4.23959
4.23959
4.30728
4.36009
4.36009
4.43583
4.50567
4.50567
4.54416
4.54416
4.59776
4.63881
4.63881
4.69641
4.74903
4.74903
4.77862
4.80842
4.80842
4.8229
4.8229
4.83526
4.83851
4.83851
4.82457
4.7931
4.7931
4.757
4.68883
4.68883
4.62155
4.62155
4.45532
4.25981
4.25981
3.78974
3.09007
3.09007
3.09007
3.09007
3.09007
3.09007
3.09007
3.09007
)
;
    }
    bottom
    {
        type            fixedValue;
        value           uniform 10;
    }
    defaultFaces
    {
        type            empty;
    }
}


// ************************************************************************* //
