/*--------------------------------*- C++ -*----------------------------------*\
| =========                 |                                                 |
| \\      /  F ield         | OpenFOAM: The Open Source CFD Toolbox           |
|  \\    /   O peration     | Version:  5.x                                   |
|   \\  /    A nd           | Web:      www.OpenFOAM.org                      |
|    \\/     M anipulation  |                                                 |
\*---------------------------------------------------------------------------*/
FoamFile
{
    version     2.0;
    format      ascii;
    class       volScalarField;
    location    "3.8";
    object      gradTy;
}
// * * * * * * * * * * * * * * * * * * * * * * * * * * * * * * * * * * * * * //

dimensions      [0 -1 0 1 0 0 0];

internalField   nonuniform List<scalar> 
3200
(
18.245
8.63296
11.7265
8.30998
9.74685
8.03786
8.79151
7.79131
8.23967
7.59981
7.87477
7.51656
7.7266
7.31714
7.52893
7.13954
7.33826
6.98051
7.16187
6.83867
7.00164
6.71331
6.85809
6.60345
6.73123
6.50743
6.62153
6.42213
6.53703
6.368
6.23276
6.31997
6.20131
6.25907
6.16667
6.21146
6.13719
6.17325
6.11282
6.14218
6.09285
6.11678
6.07658
6.09601
6.0635
6.07905
6.0533
6.06528
6.04602
6.05426
6.04309
6.04929
6.03761
6.04305
6.034
6.03768
6.03266
6.03375
6.03432
6.03169
6.04036
6.03205
6.05334
6.03554
6.07828
6.04245
6.12614
6.04803
6.2227
6.00054
6.29262
7.10722
6.42088
7.94478
6.77921
9.89098
9.12132
9.00362
8.97932
8.97409
17.0055
9.74871
11.3289
8.77379
9.54416
8.26787
8.67135
7.92366
8.16257
7.68384
7.83065
7.56327
7.67521
7.36846
7.48034
7.18864
7.29371
7.02575
7.12167
6.8796
6.96582
6.74986
6.82647
6.63575
6.7034
6.53582
6.59638
6.44725
6.50954
6.37173
6.25762
6.30554
6.21691
6.24771
6.17855
6.2023
6.14669
6.16579
6.12055
6.13609
6.09915
6.11182
6.08172
6.092
6.06766
6.07589
6.0566
6.06294
6.04851
6.05289
6.04455
6.04784
6.03908
6.04195
6.03517
6.03711
6.03334
6.0339
6.03432
6.0329
6.03937
6.03493
6.05084
6.04131
6.07323
6.05395
6.11633
6.07358
6.20291
6.07585
6.35101
6.99208
6.62244
7.76238
7.15617
9.49819
9.09524
8.99988
8.97856
8.97388
16.0562
10.511
11.0968
9.10458
9.42332
8.43069
8.59724
8.01654
8.11418
7.74284
7.80309
7.59481
7.64056
7.40303
7.44789
7.22187
7.26408
7.05643
7.09499
6.9074
6.94207
6.77471
6.80553
6.65772
6.68497
6.55507
6.57961
6.46391
6.49006
6.37452
6.27599
6.29657
6.22774
6.24034
6.18671
6.19632
6.15321
6.16091
6.12584
6.1321
6.10347
6.10858
6.08524
6.08938
6.07051
6.07383
6.05888
6.06143
6.05025
6.05203
6.04553
6.04687
6.0401
6.04124
6.03599
6.03676
6.03384
6.03406
6.03439
6.0338
6.03883
6.037
6.04935
6.04542
6.07023
6.06218
6.11073
6.09224
6.19338
6.13507
6.39477
6.91737
6.76362
7.64984
7.4152
9.21519
9.05686
8.99318
8.97712
8.97348
15.3288
11.028
10.9677
9.34294
9.35495
8.54714
8.55303
8.08229
8.08454
7.78457
7.78627
7.61618
7.61724
7.42631
7.42628
7.24438
7.24445
7.07726
7.07736
6.9263
6.92641
6.79163
6.79174
6.67269
6.67283
6.56815
6.56846
6.4749
6.47624
6.37663
6.2896
6.29118
6.23532
6.23563
6.19235
6.19244
6.15769
6.15774
6.12947
6.12951
6.10644
6.10647
6.08766
6.08768
6.07248
6.07249
6.06046
6.06046
6.05147
6.0515
6.04621
6.04623
6.04079
6.04078
6.03657
6.03656
6.03422
6.03421
6.03449
6.03446
6.03855
6.03849
6.04852
6.04838
6.06854
6.06815
6.10781
6.10612
6.19023
6.18157
6.42801
6.86971
6.8632
7.58212
7.59284
9.01052
9.01468
8.98457
8.97519
8.97293
14.7734
11.3754
10.9013
9.51582
9.31936
8.63104
8.52787
8.12913
8.067
7.81424
7.77633
7.63071
7.6016
7.44194
7.41194
7.2596
7.2315
7.0914
7.06578
6.93916
6.91615
6.80315
6.78272
6.68289
6.66488
6.57703
6.56106
6.48209
6.46646
6.37823
6.29967
6.28808
6.24065
6.23265
6.19625
6.18996
6.16078
6.1557
6.13198
6.12784
6.10848
6.10511
6.08933
6.08659
6.07384
6.07165
6.06155
6.05986
6.05233
6.05118
6.04667
6.0458
6.04127
6.04049
6.03698
6.03645
6.03451
6.03435
6.03461
6.03497
6.03845
6.03958
6.0481
6.05053
6.06768
6.07251
6.10654
6.11657
6.19079
6.21787
6.45344
6.83998
6.93376
7.54273
7.7142
8.86239
8.97388
8.97514
8.97298
8.9723
14.3539
11.6058
10.8713
9.64114
9.30346
8.69153
8.51455
8.16249
8.05708
7.83532
7.7707
7.64058
7.59119
7.4524
7.40249
7.26986
7.22304
7.10096
7.05823
6.94787
6.90948
6.81098
6.77687
6.68982
6.65972
6.58303
6.55618
6.48675
6.45959
6.37944
6.30706
6.28642
6.2444
6.23082
6.19894
6.1884
6.1629
6.15441
6.1337
6.12679
6.10989
6.10425
6.09048
6.0859
6.07478
6.07111
6.06231
6.05949
6.05293
6.05099
6.04698
6.04553
6.0416
6.04032
6.03727
6.0364
6.03473
6.03447
6.03473
6.03534
6.03843
6.04038
6.04791
6.05209
6.06731
6.07571
6.10623
6.12444
6.19323
6.24582
6.47284
6.82196
6.98372
7.52085
7.7965
8.75573
8.93749
8.96584
8.97071
8.97163
14.0444
11.7557
10.8611
9.73077
9.29852
8.73463
8.50822
8.186
8.05182
7.85011
7.76768
7.64721
7.58435
7.4593
7.39636
7.27669
7.21759
7.10735
7.0534
6.95371
6.90522
6.81623
6.77314
6.69447
6.65643
6.58704
6.553
6.48972
6.45484
6.38035
6.31238
6.28561
6.24701
6.22971
6.20078
6.18743
6.16435
6.15361
6.13487
6.12613
6.11084
6.10371
6.09126
6.08548
6.07541
6.07079
6.06283
6.05927
6.05335
6.05089
6.0472
6.04535
6.04182
6.04021
6.03747
6.03638
6.03489
6.03457
6.03483
6.03562
6.03847
6.04096
6.04787
6.05321
6.06721
6.07802
6.10641
6.1303
6.19632
6.2668
6.48735
6.81143
7.01866
7.50942
7.85145
8.68018
8.90724
8.95748
8.9686
8.97101
13.8264
11.8499
10.8604
9.79247
9.29885
8.76424
8.50573
8.20198
8.04925
7.86013
7.76619
7.65155
7.58
7.46371
7.39249
7.28109
7.21418
7.11149
7.05039
6.9575
6.90258
6.81964
6.77084
6.69749
6.65439
6.58964
6.55099
6.49155
6.45167
6.38099
6.31606
6.28528
6.24877
6.22908
6.202
6.18686
6.1653
6.15313
6.13564
6.12573
6.11147
6.10339
6.09177
6.08522
6.07584
6.07059
6.06318
6.05914
6.05363
6.05083
6.04734
6.04524
6.04197
6.04014
6.0376
6.03637
6.035
6.03464
6.03492
6.03582
6.03851
6.04136
6.04788
6.05398
6.06724
6.07963
6.10678
6.13447
6.19924
6.28178
6.49771
6.80558
7.04226
7.50395
7.88694
8.62869
8.88406
8.95069
8.96683
8.97048
13.6875
11.9045
10.8628
9.83121
9.30082
8.7828
8.50505
8.21193
8.04815
7.86634
7.76553
7.65417
7.57744
7.46633
7.39024
7.28371
7.21221
7.11396
7.04865
6.95977
6.90106
6.82169
6.76952
6.69931
6.65322
6.59119
6.54981
6.4926
6.44973
6.38141
6.31836
6.28517
6.24986
6.22873
6.20275
6.18654
6.16588
6.15286
6.1361
6.12551
6.11185
6.10321
6.09209
6.08508
6.07609
6.07049
6.06339
6.05907
6.05381
6.05081
6.04743
6.04517
6.04206
6.04011
6.03769
6.03638
6.03507
6.0347
6.03497
6.03595
6.03855
6.04161
6.04791
6.05447
6.06731
6.08065
6.10712
6.13716
6.20144
6.29142
6.5044
6.80258
7.05685
7.50162
7.90807
8.59665
8.86843
8.94592
8.96557
8.9701
13.6198
11.9296
10.8648
9.8499
9.3023
8.79175
8.50499
8.2167
8.04777
7.86932
7.7653
7.65539
7.57625
7.46754
7.3892
7.28494
7.21131
7.11512
7.04786
6.96083
6.90037
6.82265
6.76891
6.70016
6.65269
6.59191
6.54927
6.49308
6.44882
6.38161
6.31947
6.28516
6.25037
6.22859
6.2031
6.1864
6.16615
6.15274
6.13632
6.12541
6.11203
6.10313
6.09223
6.08501
6.07621
6.07044
6.06349
6.05905
6.05389
6.0508
6.04747
6.04514
6.0421
6.0401
6.03773
6.03638
6.03511
6.03472
6.035
6.03601
6.03858
6.04173
6.04794
6.0547
6.06735
6.08115
6.10732
6.13848
6.20262
6.29614
6.50769
6.80133
7.06383
7.50082
7.91792
8.58129
8.86058
8.94346
8.96491
8.9699
-13.7156
-11.9114
-10.6832
-9.34453
-8.53437
-7.64273
-7.08093
-6.42929
-6.01447
-5.53273
-5.23955
-4.91429
-4.67701
-4.34901
-4.11376
-3.8027
-3.58537
-3.30491
-3.11121
-2.86387
-2.69392
-2.47791
-2.32974
-2.14163
-2.01226
-1.8472
-1.73132
-1.5783
-1.45673
-1.27049
-1.09621
-0.998462
-0.897114
-0.83246
-0.755232
-0.703732
-0.640072
-0.597135
-0.543563
-0.507314
-0.461965
-0.431272
-0.392885
-0.366966
-0.33466
-0.313017
-0.286331
-0.268858
-0.247984
-0.235114
-0.220621
-0.209961
-0.19513
-0.184459
-0.170308
-0.160408
-0.147617
-0.138786
-0.127516
-0.119799
-0.110038
-0.103437
-0.09523
-0.0899209
-0.0837762
-0.0807345
-0.0791347
-0.0829443
-0.0977817
-0.13233
-0.223649
-0.371243
-0.526949
-0.815071
-1.11908
-1.63013
-1.8463
-1.91054
-1.92717
-1.93104
-13.7877
-11.8884
-10.6876
-9.3234
-8.53764
-7.62954
-7.08453
-6.41983
-6.01716
-5.52519
-5.24084
-4.91078
-4.68064
-4.34531
-4.1168
-3.79895
-3.58791
-3.30144
-3.11337
-2.86078
-2.69577
-2.4752
-2.33134
-2.13928
-2.01369
-1.84524
-1.73281
-1.57704
-1.45932
-1.27002
-1.09315
-0.998611
-0.895651
-0.832967
-0.754207
-0.704223
-0.639247
-0.597564
-0.542874
-0.507681
-0.461382
-0.431583
-0.392389
-0.367224
-0.334237
-0.313222
-0.285965
-0.268996
-0.247666
-0.235181
-0.22047
-0.21013
-0.194966
-0.184601
-0.17014
-0.160526
-0.147461
-0.138885
-0.127376
-0.119882
-0.109913
-0.103503
-0.0951156
-0.0899559
-0.0836535
-0.0806782
-0.0789196
-0.0825043
-0.0969943
-0.13006
-0.221399
-0.370919
-0.521653
-0.814436
-1.1108
-1.64192
-1.85238
-1.91244
-1.92768
-1.93119
-13.9359
-11.8375
-10.6986
-9.27914
-8.54581
-7.60184
-7.09293
-6.39989
-6.02342
-5.50936
-5.24397
-4.90328
-4.68849
-4.33734
-4.12342
-3.79095
-3.59346
-3.29405
-3.11811
-2.8542
-2.69985
-2.46943
-2.33488
-2.13429
-2.01685
-1.84104
-1.73604
-1.57427
-1.46478
-1.26905
-1.08681
-0.999101
-0.892582
-0.834122
-0.752035
-0.705317
-0.637494
-0.598518
-0.541409
-0.508497
-0.460143
-0.432274
-0.391336
-0.367799
-0.333337
-0.313679
-0.285191
-0.269312
-0.246998
-0.23534
-0.220147
-0.210495
-0.194613
-0.184908
-0.169781
-0.160784
-0.147127
-0.139104
-0.127077
-0.120067
-0.109648
-0.10365
-0.0948738
-0.0900381
-0.0833993
-0.0805747
-0.0784921
-0.0816295
-0.0954651
-0.12546
-0.216822
-0.370547
-0.510675
-0.813657
-1.09312
-1.66654
-1.86447
-1.91614
-1.92866
-1.93148
-14.168
-11.7481
-10.7208
-9.20744
-8.56241
-7.55674
-7.1087
-6.36729
-6.03519
-5.48359
-5.25011
-4.89075
-4.7018
-4.32389
-4.13479
-3.77755
-3.6031
-3.28172
-3.12637
-2.84323
-2.70698
-2.45983
-2.34107
-2.12597
-2.02234
-1.83402
-1.74155
-1.56942
-1.4737
-1.26755
-1.07668
-1.00035
-0.887594
-0.836226
-0.748453
-0.70726
-0.634592
-0.600201
-0.53898
-0.509934
-0.458088
-0.433491
-0.38959
-0.368814
-0.331849
-0.314493
-0.283915
-0.269889
-0.245906
-0.235644
-0.219605
-0.211111
-0.194015
-0.185436
-0.169179
-0.161231
-0.14657
-0.139486
-0.126579
-0.120389
-0.109208
-0.103909
-0.0944762
-0.0901941
-0.082994
-0.080443
-0.0778572
-0.0803281
-0.0932908
-0.118407
-0.209752
-0.370719
-0.493183
-0.813819
-1.06369
-1.70618
-1.88241
-1.9214
-1.93002
-1.93189
-14.4969
-11.6031
-10.7624
-9.10102
-8.59345
-7.48935
-7.13621
-6.31833
-6.05576
-5.4451
-5.2613
-4.87142
-4.72268
-4.30289
-4.15289
-3.75684
-3.61863
-3.26277
-3.13976
-2.8264
-2.71855
-2.4451
-2.35112
-2.1132
-2.03123
-1.82317
-1.75025
-1.56151
-1.48704
-1.26545
-1.06199
-1.00306
-0.880157
-0.839792
-0.743013
-0.710467
-0.630163
-0.602962
-0.535268
-0.512287
-0.454948
-0.435483
-0.386923
-0.37048
-0.32958
-0.315839
-0.281981
-0.270867
-0.244268
-0.236182
-0.218763
-0.212075
-0.193079
-0.186272
-0.168246
-0.161949
-0.145712
-0.140102
-0.125815
-0.120914
-0.108534
-0.104336
-0.0938743
-0.0904685
-0.0824044
-0.0803142
-0.0770215
-0.0786083
-0.0906315
-0.108706
-0.199897
-0.372432
-0.467765
-0.816811
-1.01856
-1.76447
-1.90584
-1.92787
-1.93165
-1.93237
-14.9415
-11.376
-10.8369
-8.94845
-8.64836
-7.39193
-7.18232
-6.24717
-6.09025
-5.38955
-5.28074
-4.84244
-4.75441
-4.27112
-4.18084
-3.72583
-3.64286
-3.2345
-3.16076
-2.80136
-2.73675
-2.42321
-2.36693
-2.0942
-2.04517
-1.80692
-1.76358
-1.54905
-1.50627
-1.26262
-1.04151
-1.00833
-0.869422
-0.845619
-0.735008
-0.715589
-0.623614
-0.607346
-0.529771
-0.516018
-0.450296
-0.438644
-0.382975
-0.373128
-0.326228
-0.317993
-0.279139
-0.272467
-0.241892
-0.237095
-0.217496
-0.213533
-0.191658
-0.18756
-0.166848
-0.163066
-0.144432
-0.141068
-0.124678
-0.121739
-0.107535
-0.105015
-0.0929919
-0.0909309
-0.0815774
-0.0802349
-0.075992
-0.0764724
-0.0877315
-0.0960805
-0.18679
-0.377234
-0.432198
-0.825696
-0.951653
-1.84693
-1.93404
-1.93507
-1.9334
-1.93287
-15.5288
-11.0278
-10.9653
-8.73236
-8.74152
-7.25264
-7.25746
-6.14489
-6.14651
-5.31033
-5.31337
-4.79946
-4.80196
-4.22362
-4.22339
-3.67995
-3.68013
-3.19286
-3.1932
-2.76453
-2.76491
-2.39102
-2.3914
-2.06626
-2.06668
-1.78287
-1.78378
-1.52971
-1.53354
-1.2589
-1.01353
-1.01784
-0.854089
-0.854923
-0.72336
-0.723617
-0.614041
-0.614187
-0.521726
-0.521832
-0.443484
-0.443568
-0.377197
-0.377262
-0.321333
-0.321375
-0.275014
-0.275026
-0.238488
-0.238604
-0.215606
-0.21571
-0.189529
-0.189515
-0.164774
-0.16478
-0.142542
-0.142556
-0.123004
-0.123018
-0.106071
-0.106076
-0.0917126
-0.0916866
-0.0804315
-0.0802732
-0.074775
-0.0739067
-0.084949
-0.0801621
-0.169694
-0.387455
-0.38309
-0.845281
-0.853976
-1.96173
-1.96568
-1.94238
-1.93511
-1.93336
-16.2962
-10.502
-11.1806
-8.4266
-8.89462
-7.05361
-7.37731
-5.99804
-6.23628
-5.19754
-5.36668
-4.73583
-4.87275
-4.15302
-4.28767
-3.61233
-3.73689
-3.13172
-3.24281
-2.71055
-2.80805
-2.34388
-2.4289
-2.0253
-2.09957
-1.74745
-1.81417
-1.50007
-1.57195
-1.25401
-0.975562
-1.03408
-0.832176
-0.869528
-0.706444
-0.736043
-0.600084
-0.624736
-0.509982
-0.530789
-0.43354
-0.451155
-0.368766
-0.383638
-0.314202
-0.326616
-0.269037
-0.27905
-0.233621
-0.241039
-0.212794
-0.218942
-0.186355
-0.192462
-0.161713
-0.167386
-0.139765
-0.14483
-0.12055
-0.124976
-0.103931
-0.107714
-0.0898616
-0.0928931
-0.0788433
-0.0805266
-0.0733742
-0.0708658
-0.0828009
-0.0604721
-0.14747
-0.406562
-0.31532
-0.883007
-0.712336
-2.12067
-1.99841
-1.94905
-1.9366
-1.93377
-17.2953
-9.71742
-11.5332
-7.99196
-9.14009
-6.768
-7.56528
-5.78651
-6.37714
-5.03645
-5.45201
-4.6415
-4.97781
-4.04824
-4.38436
-3.51272
-3.82285
-3.04193
-3.31815
-2.63139
-2.87367
-2.27477
-2.48595
-1.96524
-2.14953
-1.69528
-1.85981
-1.45499
-1.62597
-1.24755
-0.924121
-1.06074
-0.800698
-0.892154
-0.681824
-0.755095
-0.579706
-0.640866
-0.492819
-0.544471
-0.419004
-0.462745
-0.356447
-0.393391
-0.3038
-0.33466
-0.260359
-0.285295
-0.226643
-0.244904
-0.208609
-0.223725
-0.181636
-0.196885
-0.157197
-0.171326
-0.135683
-0.148279
-0.11695
-0.127955
-0.100799
-0.110219
-0.0871769
-0.0947845
-0.0766272
-0.0811348
-0.071789
-0.0672486
-0.0820245
-0.0364102
-0.118363
-0.439683
-0.221193
-0.950267
-0.507536
-2.34084
-2.02823
-1.95424
-1.9377
-1.93407
-18.5975
-8.55701
-12.1001
-7.36971
-9.52633
-6.35558
-7.85627
-5.48016
-6.59522
-4.80508
-5.58634
-4.50127
-5.13348
-3.89281
-4.52934
-3.36581
-3.95243
-2.90984
-3.43199
-2.51503
-2.97291
-2.17324
-2.57226
-1.87695
-2.225
-1.61833
-1.9282
-1.38686
-1.70193
-1.23887
-0.854259
-1.10324
-0.755143
-0.926835
-0.645844
-0.784078
-0.549851
-0.665348
-0.467654
-0.565223
-0.397687
-0.480323
-0.338386
-0.408192
-0.288568
-0.346899
-0.2477
-0.294872
-0.216578
-0.250941
-0.202358
-0.230787
-0.174614
-0.203497
-0.150519
-0.177248
-0.129663
-0.153477
-0.111648
-0.132454
-0.0961968
-0.114015
-0.0832599
-0.0977004
-0.0734989
-0.0822917
-0.0700064
-0.0628537
-0.0836594
-0.00724128
-0.0796782
-0.494394
-0.089162
-1.0644
-0.211695
-2.64685
-2.0485
-1.95713
-1.93828
-1.93423
18.5975
8.55702
12.1001
7.36971
9.52634
6.35559
7.85627
5.48017
6.59523
4.80508
5.58634
4.50127
5.13348
3.89281
4.52934
3.36581
3.95243
2.90984
3.43199
2.51504
2.97291
2.17324
2.57226
1.87695
2.225
1.61833
1.9282
1.38686
1.70193
1.23887
0.854257
1.10324
0.755141
0.926835
0.645843
0.784077
0.54985
0.665348
0.467653
0.565223
0.397686
0.480322
0.338385
0.408191
0.288567
0.346898
0.247699
0.294872
0.216577
0.250941
0.202357
0.230787
0.174613
0.203496
0.150519
0.177248
0.129663
0.153477
0.111648
0.132454
0.0961962
0.114015
0.0832593
0.0977003
0.0734982
0.0822917
0.0700054
0.062854
0.0836572
0.00724307
0.0796751
0.494377
0.0891563
1.06437
0.211681
2.64681
2.04847
1.9571
1.93825
1.9342
17.2953
9.71743
11.5333
7.99197
9.1401
6.76801
7.5653
5.78652
6.37715
5.03646
5.45202
4.64151
4.97782
4.04825
4.38437
3.51273
3.82286
3.04194
3.31816
2.63139
2.87368
2.27478
2.48596
1.96524
2.14953
1.69528
1.85982
1.455
1.62597
1.24755
0.924124
1.06074
0.800701
0.892158
0.681827
0.755099
0.579709
0.640869
0.492822
0.544474
0.419007
0.462747
0.356449
0.393393
0.303802
0.334662
0.26036
0.285297
0.226645
0.244906
0.208611
0.223727
0.181637
0.196887
0.157198
0.171328
0.135685
0.148281
0.116951
0.127957
0.1008
0.11022
0.0871779
0.0947857
0.076628
0.0811359
0.0717893
0.0672496
0.0820237
0.0364114
0.11836
0.439668
0.221184
0.950242
0.507518
2.34081
2.0282
1.95421
1.93766
1.93404
16.2962
10.5021
11.1807
8.42662
8.89464
7.05363
7.37733
5.99806
6.2363
5.19756
5.3667
4.73585
4.87276
4.15303
4.28769
3.61234
3.7369
3.13173
3.24282
2.71056
2.80807
2.34389
2.42891
2.02531
2.09959
1.74746
1.81418
1.50008
1.57196
1.25402
0.975569
1.03409
0.832183
0.869535
0.70645
0.736049
0.60009
0.624742
0.509987
0.530794
0.433545
0.45116
0.36877
0.383643
0.314206
0.32662
0.269041
0.279054
0.233625
0.241043
0.212798
0.218945
0.186358
0.192465
0.161716
0.167389
0.139768
0.144833
0.120553
0.124979
0.103933
0.107716
0.0898639
0.0928954
0.0788452
0.0805286
0.0733756
0.0708675
0.082801
0.0604731
0.147467
0.406549
0.315309
0.882984
0.712316
2.12064
1.99838
1.94902
1.93656
1.93374
15.5288
11.0278
10.9654
8.73239
8.74154
7.25266
7.25749
6.14491
6.14653
5.31034
5.31339
4.79948
4.80198
4.22364
4.2234
3.67997
3.68014
3.19287
3.19321
2.76455
2.76493
2.39104
2.39141
2.06627
2.0667
1.78289
1.78379
1.52972
1.53355
1.25891
1.01354
1.01785
0.854097
0.854931
0.723368
0.723624
0.614048
0.614194
0.521732
0.521839
0.44349
0.443574
0.377203
0.377267
0.321338
0.32138
0.275019
0.275031
0.238493
0.238608
0.21561
0.215715
0.189533
0.189519
0.164778
0.164784
0.142546
0.14256
0.123007
0.123021
0.106074
0.106079
0.0917154
0.0916893
0.0804339
0.0802756
0.0747768
0.0739084
0.0849495
0.0801626
0.16969
0.387444
0.383078
0.84526
0.853954
1.9617
1.96565
1.94235
1.93508
1.93333
14.9416
11.376
10.8369
8.94848
8.64838
7.39195
7.18235
6.24719
6.09027
5.38957
5.28076
4.84246
4.75443
4.27113
4.18086
3.72585
3.64288
3.23452
3.16078
2.80138
2.73676
2.42322
2.36694
2.09421
2.04518
1.80693
1.7636
1.54906
1.50628
1.26263
1.04152
1.00834
0.869431
0.845628
0.735016
0.715596
0.623621
0.607353
0.529778
0.516025
0.450302
0.43865
0.382981
0.373134
0.326234
0.317999
0.279145
0.272472
0.241897
0.2371
0.217501
0.213537
0.191662
0.187565
0.166852
0.16307
0.144436
0.141071
0.124681
0.121743
0.107539
0.105018
0.0929948
0.0909337
0.08158
0.0802374
0.075994
0.0764742
0.0877321
0.0960805
0.186786
0.377223
0.432185
0.825675
0.95163
1.8469
1.93401
1.93504
1.93337
1.93284
14.4969
11.6031
10.7624
9.10104
8.59347
7.48937
7.13623
6.31835
6.05578
5.44512
5.26132
4.87143
4.7227
4.30291
4.15291
3.75686
3.61864
3.26278
3.13977
2.82642
2.71856
2.44512
2.35113
2.11321
2.03124
1.82318
1.75026
1.56153
1.48705
1.26546
1.062
1.00307
0.880166
0.839801
0.743021
0.710475
0.63017
0.602969
0.535275
0.512294
0.454954
0.43549
0.386929
0.370486
0.329586
0.315845
0.281986
0.270872
0.244273
0.236186
0.218768
0.212079
0.193084
0.186277
0.168251
0.161953
0.145716
0.140106
0.125819
0.120917
0.108538
0.104339
0.0938773
0.0904714
0.082407
0.0803166
0.0770235
0.07861
0.0906322
0.108705
0.199893
0.372422
0.467752
0.816791
1.01853
1.76444
1.90581
1.92784
1.93162
1.93233
14.168
11.7481
10.7208
9.20746
8.56243
7.55676
7.10872
6.36731
6.03521
5.48361
5.25013
4.89077
4.70182
4.32391
4.1348
3.77756
3.60312
3.28174
3.12639
2.84325
2.70699
2.45985
2.34108
2.12598
2.02235
1.83403
1.74156
1.56943
1.47371
1.26756
1.07669
1.00036
0.887603
0.836235
0.748462
0.707268
0.634599
0.600208
0.538987
0.509941
0.458095
0.433497
0.389596
0.36882
0.331855
0.314499
0.28392
0.269894
0.245911
0.235649
0.219609
0.211116
0.19402
0.18544
0.169183
0.161235
0.146574
0.139489
0.126583
0.120393
0.109211
0.103912
0.0944792
0.090197
0.0829967
0.0804454
0.0778593
0.0803297
0.0932914
0.118406
0.209748
0.370709
0.49317
0.813799
1.06367
1.70615
1.88238
1.92136
1.92999
1.93186
13.9359
11.8375
10.6986
9.27916
8.54583
7.60186
7.09295
6.39991
6.02344
5.50938
5.24399
4.9033
4.68851
4.33736
4.12343
3.79096
3.59348
3.29406
3.11812
2.85421
2.69986
2.46944
2.33489
2.1343
2.01686
1.84105
1.73605
1.57428
1.46479
1.26906
1.08681
0.99911
0.89259
0.83413
0.752043
0.705325
0.637501
0.598525
0.541415
0.508503
0.460149
0.43228
0.391342
0.367805
0.333343
0.313685
0.285196
0.269317
0.247002
0.235345
0.220151
0.210499
0.194617
0.184913
0.169785
0.160788
0.147131
0.139108
0.12708
0.12007
0.109651
0.103653
0.0948768
0.0900409
0.0834019
0.0805771
0.0784941
0.0816311
0.0954657
0.125459
0.216818
0.370537
0.510662
0.813638
1.0931
1.66651
1.86444
1.91611
1.92862
1.93145
13.7877
11.8884
10.6876
9.32342
8.53766
7.62956
7.08455
6.41985
6.01717
5.52521
5.24086
4.9108
4.68066
4.34532
4.11681
3.79897
3.58792
3.30146
3.11338
2.8608
2.69579
2.47521
2.33136
2.1393
2.0137
1.84525
1.73282
1.57705
1.45933
1.27003
1.09316
0.99862
0.895659
0.832975
0.754214
0.70423
0.639253
0.597571
0.54288
0.507687
0.461388
0.431589
0.392395
0.36723
0.334242
0.313227
0.28597
0.269001
0.247671
0.235186
0.220474
0.210134
0.194971
0.184605
0.170144
0.16053
0.147464
0.138889
0.127379
0.119885
0.109916
0.103506
0.0951185
0.0899585
0.083656
0.0806805
0.0789215
0.0825058
0.0969948
0.130059
0.221394
0.37091
0.52164
0.814417
1.11077
1.64189
1.85235
1.91241
1.92765
1.93116
13.7156
11.9115
10.6832
9.34455
8.53439
7.64275
7.08095
6.42931
6.01449
5.53275
5.23957
4.91431
4.67702
4.34903
4.11377
3.80271
3.58539
3.30492
3.11123
2.86388
2.69394
2.47792
2.32975
2.14164
2.01227
1.84721
1.73133
1.57831
1.45674
1.2705
1.09622
0.99847
0.897122
0.832467
0.755239
0.703739
0.640078
0.597141
0.543569
0.507319
0.46197
0.431278
0.39289
0.366971
0.334665
0.313022
0.286335
0.268862
0.247988
0.235118
0.220625
0.209965
0.195134
0.184463
0.170312
0.160412
0.147621
0.138789
0.127519
0.119802
0.110041
0.10344
0.0952326
0.0899234
0.0837786
0.0807367
0.0791364
0.0829456
0.097782
0.132329
0.223645
0.371234
0.526936
0.815053
1.11906
1.6301
1.84627
1.91051
1.92714
1.931
-13.6234
-11.9345
-10.8716
-9.86041
-9.31697
-8.81437
-8.53668
-8.26576
-8.11537
-7.96681
-7.86438
-7.72882
-7.63331
-7.50888
-7.42208
-7.30999
-7.23204
-7.13164
-7.06197
-6.97245
-6.91053
-6.83122
-6.77653
-6.70671
-6.65857
-6.59702
-6.55388
-6.49708
-6.45237
-6.38453
-6.32184
-6.28723
-6.25216
-6.23019
-6.20451
-6.18768
-6.16728
-6.15377
-6.13723
-6.12624
-6.11276
-6.1038
-6.09283
-6.08556
-6.07669
-6.07088
-6.06388
-6.05941
-6.05421
-6.0511
-6.04774
-6.0454
-6.04233
-6.04031
-6.03793
-6.03656
-6.03527
-6.03487
-6.03514
-6.03614
-6.03869
-6.04183
-6.04803
-6.05479
-6.06743
-6.08122
-6.10738
-6.13854
-6.20267
-6.29619
-6.50773
-6.80137
-7.06386
-7.50084
-7.91794
-8.5813
-8.86058
-8.94347
-8.96492
-8.96991
-13.6909
-11.9095
-10.8695
-9.8417
-9.31533
-8.80537
-8.53642
-8.26094
-8.11529
-7.96496
-7.86571
-7.72721
-7.63447
-7.50738
-7.4231
-7.30863
-7.23294
-7.13041
-7.06276
-6.97135
-6.91122
-6.83024
-6.77714
-6.70584
-6.6591
-6.59628
-6.55443
-6.4966
-6.4533
-6.38433
-6.32072
-6.28724
-6.25163
-6.23034
-6.20415
-6.18782
-6.16701
-6.15389
-6.13701
-6.12634
-6.11258
-6.10388
-6.09268
-6.08562
-6.07657
-6.07093
-6.06378
-6.05943
-6.05413
-6.05111
-6.0477
-6.04543
-6.04229
-6.04033
-6.03789
-6.03656
-6.03523
-6.03485
-6.03511
-6.03607
-6.03866
-6.04171
-6.048
-6.05455
-6.06738
-6.08072
-6.10718
-6.13722
-6.20149
-6.29146
-6.50444
-6.80261
-7.05688
-7.50164
-7.90809
-8.59666
-8.86844
-8.94593
-8.96558
-8.97011
-13.8297
-11.8548
-10.867
-9.80294
-9.31305
-8.78674
-8.53641
-8.25092
-8.11541
-7.96108
-7.86861
-7.72378
-7.637
-7.50416
-7.42532
-7.30571
-7.23491
-7.12778
-7.06451
-6.969
-6.91275
-6.82814
-6.77847
-6.70399
-6.66028
-6.59471
-6.55561
-6.49553
-6.45525
-6.38391
-6.31839
-6.28735
-6.25054
-6.23069
-6.2034
-6.18814
-6.16643
-6.15416
-6.13654
-6.12656
-6.1122
-6.10406
-6.09236
-6.08576
-6.07631
-6.07103
-6.06357
-6.0595
-6.05395
-6.05114
-6.04762
-6.0455
-6.0422
-6.04036
-6.0378
-6.03656
-6.03516
-6.03479
-6.03505
-6.03595
-6.03862
-6.04146
-6.04797
-6.05407
-6.06732
-6.0797
-6.10684
-6.13453
-6.19929
-6.28182
-6.49775
-6.80561
-7.04228
-7.50397
-7.88695
-8.6287
-8.88407
-8.9507
-8.96684
-8.97049
-14.0475
-11.7606
-10.8675
-9.74121
-9.31222
-8.75707
-8.53781
-8.23491
-8.11628
-7.95472
-7.8736
-7.71803
-7.64138
-7.49879
-7.42917
-7.30085
-7.23834
-7.12341
-7.06754
-6.96507
-6.91542
-6.82464
-6.7808
-6.70091
-6.66234
-6.59207
-6.55764
-6.49368
-6.45845
-6.38326
-6.31468
-6.28768
-6.24876
-6.23133
-6.20217
-6.18872
-6.16547
-6.15464
-6.13577
-6.12696
-6.11156
-6.10439
-6.09185
-6.08602
-6.07589
-6.07123
-6.06322
-6.05963
-6.05367
-6.05119
-6.04747
-6.04561
-6.04205
-6.04043
-6.03766
-6.03656
-6.03505
-6.03472
-6.03497
-6.03575
-6.03857
-6.04106
-6.04796
-6.05329
-6.06729
-6.07809
-6.10647
-6.13036
-6.19637
-6.26685
-6.48738
-6.81146
-7.01868
-7.50944
-7.85147
-8.68019
-8.90725
-8.95749
-8.9686
-8.97102
-14.3568
-11.6107
-10.8773
-9.65158
-9.31644
-8.71396
-8.54256
-8.21154
-8.11887
-7.94514
-7.88157
-7.70913
-7.64839
-7.4905
-7.43537
-7.29335
-7.24387
-7.11667
-7.07244
-6.95904
-6.91973
-6.81927
-6.78456
-6.69618
-6.66566
-6.58801
-6.56084
-6.49067
-6.46324
-6.38234
-6.30931
-6.28849
-6.24613
-6.23244
-6.20032
-6.18969
-6.16401
-6.15545
-6.13459
-6.12762
-6.1106
-6.10493
-6.09106
-6.08645
-6.07525
-6.07156
-6.06269
-6.05985
-6.05325
-6.05129
-6.04726
-6.04579
-6.04183
-6.04054
-6.03746
-6.03658
-6.03489
-6.03462
-6.03486
-6.03547
-6.03854
-6.04049
-6.048
-6.05218
-6.06738
-6.07578
-6.10629
-6.1245
-6.19328
-6.24587
-6.47287
-6.82199
-6.98374
-7.52087
-7.79652
-8.75574
-8.9375
-8.96585
-8.97072
-8.97164
-14.776
-11.3803
-10.9069
-9.52634
-9.33135
-8.65361
-8.55369
-8.17862
-8.1247
-7.93116
-7.8939
-7.69575
-7.65929
-7.4781
-7.44505
-7.28215
-7.2525
-7.10661
-7.08011
-6.95004
-6.92648
-6.81127
-6.79048
-6.68913
-6.67087
-6.58192
-6.56577
-6.48596
-6.47017
-6.38111
-6.30186
-6.29017
-6.24235
-6.23429
-6.1976
-6.19127
-6.16187
-6.15675
-6.13285
-6.12869
-6.10919
-6.10579
-6.0899
-6.08715
-6.0743
-6.07209
-6.06193
-6.06022
-6.05264
-6.05148
-6.04694
-6.04607
-6.0415
-6.04072
-6.03717
-6.03663
-6.03467
-6.0345
-6.03474
-6.03509
-6.03855
-6.03969
-6.04818
-6.05062
-6.06775
-6.07258
-6.1066
-6.11662
-6.19084
-6.21791
-6.45348
-6.84001
-6.93379
-7.54275
-7.71422
-8.8624
-8.97389
-8.97515
-8.97299
-8.9723
-15.3309
-11.0329
-10.9727
-9.35368
-9.36558
-8.57016
-8.57584
-8.13287
-8.13612
-7.91093
-7.91267
-7.67591
-7.67599
-7.45977
-7.45992
-7.26562
-7.26578
-7.09178
-7.09192
-6.93678
-6.93691
-6.79949
-6.79962
-6.67876
-6.67891
-6.57293
-6.57324
-6.47868
-6.48004
-6.37948
-6.2917
-6.29329
-6.23697
-6.23728
-6.19367
-6.19377
-6.15875
-6.15881
-6.13033
-6.13037
-6.10713
-6.10716
-6.08822
-6.08824
-6.07293
-6.07295
-6.06083
-6.06083
-6.05177
-6.0518
-6.04648
-6.0465
-6.04102
-6.04101
-6.03675
-6.03675
-6.03438
-6.03436
-6.03462
-6.03459
-6.03866
-6.0386
-6.04861
-6.04847
-6.06862
-6.06822
-6.10786
-6.10618
-6.19028
-6.18162
-6.42805
-6.86974
-6.86323
-7.58214
-7.59286
-9.01053
-9.01469
-8.98458
-8.9752
-8.97294
-16.0578
-10.5161
-11.1008
-9.11578
-9.4321
-8.45465
-8.61592
-8.06926
-8.15668
-7.88162
-7.94098
-7.6466
-7.70133
-7.43279
-7.48257
-7.24132
-7.28604
-7.06998
-7.10995
-6.91731
-6.95283
-6.78221
-6.81359
-6.66356
-6.69119
-6.55968
-6.58451
-6.46757
-6.49398
-6.37735
-6.27796
-6.29872
-6.22934
-6.24204
-6.18799
-6.19767
-6.15424
-6.162
-6.12667
-6.13298
-6.10414
-6.10928
-6.08578
-6.08996
-6.07095
-6.07429
-6.05924
-6.0618
-6.05055
-6.05234
-6.0458
-6.04714
-6.04032
-6.04147
-6.03617
-6.03695
-6.03399
-6.03422
-6.03451
-6.03393
-6.03893
-6.0371
-6.04944
-6.04551
-6.0703
-6.06225
-6.11078
-6.0923
-6.19343
-6.13512
-6.39481
-6.91739
-6.76365
-7.64985
-7.41522
-9.21519
-9.05686
-8.99319
-8.97713
-8.97349
-17.0064
-9.75424
-11.3318
-8.78583
-9.55038
-8.29361
-8.68433
-7.9803
-8.19174
-7.83894
-7.98343
-7.60333
-7.73961
-7.39308
-7.51686
-7.20558
-7.31672
-7.03794
-7.13727
-6.88871
-6.977
-6.75686
-6.83483
-6.64124
-6.70983
-6.54018
-6.60145
-6.45072
-6.51364
-6.37452
-6.25942
-6.30776
-6.21842
-6.24946
-6.17976
-6.2037
-6.14767
-6.16692
-6.12134
-6.137
-6.09979
-6.11256
-6.08224
-6.0926
-6.06808
-6.07637
-6.05694
-6.06333
-6.0488
-6.05321
-6.0448
-6.04812
-6.0393
-6.04219
-6.03535
-6.03731
-6.03348
-6.03407
-6.03443
-6.03304
-6.03947
-6.03504
-6.05092
-6.0414
-6.0733
-6.05402
-6.11639
-6.07364
-6.20296
-6.0759
-6.35105
-6.9921
-6.62248
-7.7624
-7.15619
-9.49819
-9.09525
-8.99989
-8.97856
-8.97389
-18.245
-8.63916
-11.7277
-8.32345
-9.7495
-8.06665
-8.79653
-7.85471
-8.24936
-7.77636
-8.04687
-7.53939
-7.79719
-7.33455
-7.56856
-7.15293
-7.363
-6.99078
-7.17852
-6.84664
-7.01351
-6.71957
-6.86692
-6.60844
-6.73801
-6.51144
-6.62687
-6.42533
-6.54138
-6.37073
-6.23435
-6.32231
-6.20268
-6.26091
-6.16779
-6.21292
-6.1381
-6.17443
-6.11356
-6.14313
-6.09345
-6.11755
-6.07706
-6.09663
-6.06389
-6.07955
-6.05362
-6.06569
-6.04629
-6.05459
-6.04334
-6.04958
-6.03781
-6.0433
-6.03417
-6.03789
-6.0328
-6.03392
-6.03443
-6.03183
-6.04045
-6.03217
-6.05341
-6.03564
-6.07834
-6.04253
-6.12619
-6.0481
-6.22274
-6.0006
-6.29265
-7.10724
-6.42092
-7.94479
-6.77924
-9.89098
-9.12133
-9.00363
-8.97933
-8.9741
)
;

boundaryField
{
    F1_1
    {
        type            calculated;
        value           nonuniform List<scalar> 
80
(
18.9472
7.97079
11.976
8.03872
9.87307
7.90293
8.86551
7.71341
8.28688
7.55038
7.90184
7.48866
7.75729
7.28648
7.55805
7.11024
7.365
6.95355
7.18601
6.81429
7.02318
6.69154
6.87711
6.58421
6.74797
6.49052
6.63662
6.40704
6.55312
6.36585
6.21846
6.32883
6.19208
6.26595
6.15962
6.21699
6.13154
6.17775
6.10824
6.14585
6.08911
6.11978
6.07353
6.09843
6.06103
6.08096
6.05134
6.0667
6.04455
6.0551
6.04223
6.05015
6.03673
6.04372
6.03332
6.03804
6.03227
6.03368
6.03434
6.031
6.04098
6.03037
6.05489
6.03217
6.08143
6.03573
6.13232
6.03322
6.23573
5.95838
6.25914
7.17688
6.3022
8.0572
6.55584
10.1195
9.12996
9.00462
8.97952
8.97414
)
;
    }
    F1_2
    {
        type            calculated;
        value           nonuniform List<scalar> 
80
(
-19.3347
-7.86564
-12.4487
-7.00287
-9.76189
-6.11164
-8.03273
-5.29878
-6.72748
-4.66854
-5.66831
-4.41739
-5.2264
-3.79996
-4.61626
-3.27824
-4.03028
-2.83116
-3.50044
-2.44576
-3.0326
-2.11279
-2.62417
-1.82438
-2.27037
-1.57246
-1.9692
-1.34589
-1.74634
-1.23387
-0.813997
-1.12926
-0.728166
-0.94779
-0.624465
-0.801544
-0.532095
-0.680091
-0.452682
-0.577716
-0.385003
-0.490904
-0.32764
-0.417103