/*--------------------------------*- C++ -*----------------------------------*\
| =========                 |                                                 |
| \\      /  F ield         | OpenFOAM: The Open Source CFD Toolbox           |
|  \\    /   O peration     | Version:  5.x                                   |
|   \\  /    A nd           | Web:      www.OpenFOAM.org                      |
|    \\/     M anipulation  |                                                 |
\*---------------------------------------------------------------------------*/
FoamFile
{
    version     2.0;
    format      ascii;
    class       volScalarField;
    location    "3.8";
    object      gradTx;
}
// * * * * * * * * * * * * * * * * * * * * * * * * * * * * * * * * * * * * * //

dimensions      [0 -1 0 1 0 0 0];

internalField   nonuniform List<scalar> 
3200
(
45.2177
3.71138
1.64829
1.53974
0.814516
0.770928
0.466275
0.446819
0.293401
0.2823
0.170522
0.166381
0.180318
0.180465
0.172772
0.171931
0.159176
0.158062
0.143978
0.142799
0.12856
0.127394
0.113641
0.11255
0.100062
0.0991791
0.0900576
0.0900563
0.0950488
0.164767
0.0825406
0.0553463
0.0535213
0.0418006
0.0409752
0.0333917
0.0328336
0.02712
0.0266903
0.0221269
0.0217797
0.01803
0.0177414
0.0145799
0.0143316
0.0115486
0.0113202
0.00864134
0.00840101
0.00525534
0.00512397
0.00513227
0.00508509
0.0040221
0.0039091
0.00225784
0.00209222
-0.000217747
-0.000455587
-0.00382013
-0.0041832
-0.00945963
-0.0100656
-0.0191484
-0.0202967
-0.0381546
-0.0408252
-0.0839765
-0.0928886
-0.238527
-0.616712
-0.435787
-0.680911
-0.712245
-1.26702
-1.24142
-0.0557427
-0.00752228
-0.00152401
-52.9537
47.9014
3.1048
1.5769
1.35411
0.773672
0.680614
0.435915
0.394315
0.271405
0.247824
0.160044
0.151203
0.160652
0.160854
0.154874
0.153102
0.143041
0.140682
0.129536
0.127038
0.115761
0.113291
0.102402
0.100092
0.0902281
0.0883739
0.0813447
0.0815058
0.0883414
0.137379
0.0766373
0.0516936
0.0476291
0.0381189
0.0363487
0.030303
0.029116
0.0245782
0.0236659
0.0200451
0.0193083
0.0163339
0.0157214
0.0132133
0.0126862
0.0104774
0.00999247
0.00786467
0.00735742
0.00490251
0.00462339
0.00458487
0.00448176
0.00364271
0.00340322
0.00209374
0.00174207
-9.34786e-05
-0.000599046
-0.00327627
-0.00404889
-0.008255
-0.00954702
-0.0168127
-0.0192719
-0.0336723
-0.0394574
-0.0750052
-0.094903
-0.226885
-0.517227
-0.414439
-0.601431
-0.665943
-1.084
-1.03041
-0.12173
-0.020878
-0.0043823
-54.749
50.5685
2.57607
1.45331
1.18279
0.713332
0.596367
0.397432
0.345063
0.245437
0.215915
0.146409
0.135293
0.141356
0.141491
0.136808
0.134605
0.126597
0.123654
0.114749
0.111627
0.102611
0.0995241
0.0908199
0.0879363
0.080074
0.0777758
0.0723442
0.0726884
0.0799458
0.114382
0.0693022
0.0472057
0.0419548
0.0341275
0.0318933
0.02702
0.0255324
0.0218913
0.0207499
0.017848
0.0169264
0.0145432
0.0137773
0.0117675
0.0111082
0.00933721
0.00873048
0.00702317
0.00639173
0.00446265
0.00411319
0.00404006
0.00390786
0.00323933
0.00294014
0.00189133
0.00145128
-2.24172e-05
-0.000655645
-0.0028086
-0.00377724
-0.00716693
-0.0087895
-0.0146692
-0.0177695
-0.0295347
-0.0368992
-0.06666
-0.0924341
-0.208908
-0.433467
-0.3815
-0.52685
-0.6055
-0.919855
-0.853609
-0.155403
-0.0308594
-0.0067249
-56.5442
53.2149
2.11291
1.29562
1.01942
0.638893
0.515398
0.353086
0.297702
0.216664
0.185606
0.130438
0.118697
0.122297
0.122321
0.118642
0.11634
0.109951
0.106865
0.0997304
0.0964532
0.0892235
0.0859824
0.0790051
0.0759796
0.0696975
0.067303
0.0631127
0.0635944
0.0704631
0.0945659
0.0610477
0.042044
0.0363835
0.0299124
0.0275434
0.0236016
0.022035
0.0191045
0.0179043
0.0155717
0.014603
0.012688
0.0118828
0.0102677
0.00957462
0.0081505
0.00751252
0.00613865
0.00547796
0.0039596
0.00359194
0.0034976
0.00335541
0.00282118
0.00250703
0.00166455
0.00120182
1.50183e-05
-0.000651463
-0.0023883
-0.00340876
-0.00614955
-0.00786169
-0.012637
-0.0159205
-0.025573
-0.033445
-0.0584742
-0.0863371
-0.186608
-0.360768
-0.340668
-0.454937
-0.535628
-0.770932
-0.702082
-0.166131
-0.0368245
-0.00832288
-58.3392
55.8399
1.70386
1.1163
0.860233
0.554172
0.435983
0.304464
0.251367
0.185892
0.156261
0.112731
0.101487
0.103381
0.103298
0.100422
0.0982391
0.0931735
0.0902377
0.0845575
0.0814372
0.0756765
0.0725901
0.0670324
0.0641533
0.0591655
0.0569021
0.0536944
0.054245
0.0602911
0.0770547
0.0522126
0.0363485
0.0308446
0.0255332
0.0232564
0.0200881
0.0185922
0.0162484
0.0151039
0.0132408
0.0123174
0.0107883
0.0100209
0.00873104
0.00807029
0.00693234
0.00632399
0.0052256
0.00459849
0.00341053
0.00305975
0.00295706
0.00281864
0.00239421
0.00209506
0.00142258
0.000981314
3.16345e-05
-0.000604473
-0.00199666
-0.00297146
-0.00517333
-0.00681135
-0.0106644
-0.0138167
-0.0216826
-0.0293046
-0.0501751
-0.0773439
-0.161352
-0.29584
-0.294462
-0.384367
-0.459572
-0.634175
-0.56924
-0.160592
-0.0387574
-0.00905337
-60.1338
58.4446
1.33848
0.923709
0.703041
0.461936
0.3571
0.252704
0.205527
0.153687
0.127472
0.0937319
0.083751
0.0845442
0.0843881
0.0821744
0.0802532
0.0763105
0.0737202
0.0692824
0.0665268
0.0620226
0.0592968
0.0549525
0.0524114
0.0485245
0.046539
0.0441257
0.0446758
0.0496904
0.0612076
0.0430184
0.0302386
0.025298
0.0210326
0.019005
0.0165078
0.0151832
0.0133444
0.0123324
0.0108723
0.010056
0.00885811
0.00817975
0.0071692
0.00658505
0.005693
0.00515507
0.0042937
0.00374146
0.00282797
0.00251764
0.00241794
0.00229331
0.00196223
0.00169801
0.00117135
0.000781142
3.57024e-05
-0.000527245
-0.00162173
-0.00248509
-0.00421965
-0.00567242
-0.00871981
-0.0115244
-0.0178019
-0.0246342
-0.041624
-0.066077
-0.134077
-0.236346
-0.244604
-0.314386
-0.37954
-0.507
-0.450146
-0.143581
-0.037005
-0.0088915
-61.9282
61.0318
1.00733
0.723358
0.546667
0.36425
0.278201
0.198656
0.159874
0.120456
0.0989839
0.0737827
0.0655844
0.0657455
0.06556
0.0639149
0.0623483
0.0593934
0.0572766
0.05394
0.0516865
0.0482976
0.0460682
0.0428005
0.0407234
0.0378075
0.036193
0.0344386
0.034928
0.0388296
0.0465489
0.0336078
0.0238152
0.0197244
0.0164424
0.0147724
0.0128805
0.0117948
0.0104073
0.00957869
0.00847811
0.00780995
0.00690717
0.00635194
0.0055903
0.00511213
0.00443951
0.00399909
0.00334943
0.00289889
0.00222128
0.0019671
0.00187982
0.00177623
0.00152757
0.00131146
0.000914667
0.000595174
3.24659e-05
-0.000428759
-0.00125604
-0.00196386
-0.00327725
-0.0044697
-0.00678495
-0.0090931
-0.0138991
-0.0195575
-0.0327744
-0.0530683
-0.105431
-0.180613
-0.192286
-0.244589
-0.297015
-0.387198
-0.341041
-0.118571
-0.0321142
-0.00789494
-63.7223
63.6047
0.701827
0.518717
0.390522
0.262709
0.199041
0.142977
0.114246
0.0865084
0.0706453
0.0531533
0.0470836
0.0469607
0.0467904
0.0456523
0.044499
0.0424429
0.040882
0.0385543
0.0368916
0.0345263
0.0328812
0.0306009
0.0290689
0.0270385
0.0258526
0.0246617
0.0250437
0.0278161
0.0327165
0.0240713
0.0171637
0.0141185
0.0117878
0.0105487
0.00922101
0.0084185
0.00744784
0.0068359
0.00606659
0.00557325
0.00494233
0.00453239
0.00400007
0.00364699
0.00317672
0.00285148
0.0023972
0.00206539
0.00159766
0.00140989
0.00134235
0.00126496
0.00109161
0.000932132
0.000654885
0.000418932
2.51667e-05
-0.000315634
-0.000895138
-0.00141842
-0.00233969
-0.00322207
-0.00485038
-0.00656193
-0.00996212
-0.0141785
-0.0236418
-0.0387769
-0.0758722
-0.12742
-0.138342
-0.174788
-0.212981
-0.27285
-0.238988
-0.0881197
-0.0247339
-0.00618647
-65.5161
66.1671
0.414125
0.311879
0.234362
0.158603
0.119577
0.0862053
0.0685785
0.0520854
0.0423719
0.0320672
0.0283449
0.0281778
0.0280596
0.0273904
0.0266859
0.0254726
0.024518
0.0231421
0.0221248
0.0207262
0.0197197
0.0183715
0.0174344
0.0162357
0.0155125
0.0148218
0.0150638
0.0167175
0.019426
0.0144653
0.0103577
0.00848393
0.00708956
0.00632854
0.00554049
0.0050489
0.00447402
0.00409941
0.00364403
0.00334206
0.00296865
0.00271773
0.00240267
0.00218654
0.00190814
0.00170904
0.00144008
0.00123733
0.000962839
0.000847862
0.000805273
0.000757522
0.000655092
0.000557512
0.000393448
0.000249
1.57463e-05
-0.000192964
-0.000536484
-0.000857065
-0.00140368
-0.0019446
-0.00291248
-0.00396321
-0.00599251
-0.00858958
-0.0142822
-0.0236071
-0.0457354
-0.0758516
-0.0833771
-0.104917
-0.12808
-0.16225
-0.141616
-0.0541694
-0.01556
-0.00393707
-67.3098
68.7231
0.13689
0.104052
0.0781316
0.0530271
0.0398863
0.0288037
0.0228657
0.0173912
0.0141222
0.0107177
0.00946408
0.00939298
0.00935081
0.00912992
0.0088931
0.00849192
0.00817087
0.00771554
0.00737332
0.00691037
0.00657178
0.00612557
0.00581039
0.00541396
0.00517105
0.00494474
0.0050275
0.00557672
0.00644223
0.00482515
0.0034623
0.00283022
0.00236596
0.00210945
0.00184811
0.00168263
0.0014922
0.00136614
0.00121533
0.00111373
0.000990073
0.000905646
0.000801311
0.000728588
0.000636382
0.000569384
0.000480305
0.000412147
0.000321637
0.000282943
0.000268403
0.000252271
0.000218378
0.000185551
0.000131226
8.26178e-05
5.34269e-06
-6.49025e-05
-0.000178749
-0.000286666
-0.000467907
-0.000650055
-0.000971265
-0.00132535
-0.0020002
-0.00287684
-0.00477737
-0.00792511
-0.0152792
-0.0251873
-0.0278519
-0.0349806
-0.0427378
-0.0538429
-0.0469155
-0.0182657
-0.00530671
-0.00135051
-69.1033
68.7193
0.150778
0.12836
0.107427
0.0851874
0.0726776
0.0607174
0.0533124
0.0448515
0.0387296
0.0309712
0.0281565
0.0282621
0.028155
0.0273151
0.0264131
0.0248928
0.0237033
0.0220563
0.020861
0.0193028
0.0182062
0.0168184
0.0158721
0.0147261
0.0140479
0.013454
0.0137431
0.0153993
0.017957
0.0136085
0.00997426
0.00830477
0.00709955
0.00643624
0.00576045
0.00532915
0.00482708
0.00449035
0.0040812
0.0038014
0.00345507
0.0032147
0.0029121
0.00269677
0.00241716
0.0022072
0.00191793
0.00168634
0.0013702
0.00125892
0.00127435
0.00127472
0.00124106
0.00120226
0.00113468
0.0010809
0.00100526
0.000949173
0.000874091
0.00081787
0.000740514
0.000675421
0.00057257
0.000458189
0.000230889
-0.000115269
-0.000939631
-0.00249195
-0.00631129
-0.0119223
-0.0152022
-0.022196
-0.0296416
-0.040599
-0.0361848
-0.0141408
-0.00411299
-0.00104703
-69.8071
66.1553
0.4557
0.385021
0.322333
0.255173
0.218011
0.18197
0.15998
0.134461
0.116254
0.0927158
0.0843526
0.0847947
0.0844945
0.0819477
0.079264
0.0746653
0.0711283
0.0661508
0.0625974
0.0578899
0.0546304
0.0504377
0.0476242
0.0441597
0.0421403
0.0403265
0.0411746
0.0461619
0.0541474
0.0407969
0.0298442
0.0248958
0.021277
0.0193092
0.0172716
0.0159903
0.0144746
0.013474
0.0122384
0.0114069
0.010361
0.0096466
0.00873282
0.00809288
0.00724871
0.00662477
0.00575149
0.00506241
0.00410243
0.0037717
0.00382366
0.00382554
0.0037234
0.00360794
0.00340351
0.00324359
0.003015
0.00284829
0.00262152
0.00245446
0.00222106
0.00202778
0.00171818
0.00137909
0.000697427
-0.000326673
-0.00278977
-0.00738517
-0.0188622
-0.0358603
-0.0454579
-0.0665698
-0.0887843
-0.122412
-0.10926
-0.0419418
-0.0120605
-0.00305243
-69.4213
63.584
0.770806
0.641363
0.537418
0.423959
0.363299
0.302661
0.266788
0.223778
0.193992
0.153853
0.140197
0.141357
0.140924
0.136586
0.132192
0.124395
0.118611
0.110188
0.10438
0.0964192
0.0910919
0.0840018
0.0794024
0.0735355
0.0702245
0.0670927
0.0684406
0.0768047
0.0911913
0.0678894
0.0494741
0.0414336
0.0353884
0.0321851
0.0287525
0.0266609
0.0241016
0.022467
0.0203795
0.019021
0.0172536
0.0160865
0.0145426
0.0134972
0.0120715
0.0110524
0.00957772
0.00844934
0.0068095
0.0062692
0.006375
0.00638054
0.0062063
0.0060172
0.00567058
0.00540904
0.00502229
0.00474983
0.00436659
0.00409373
0.00370002
0.00338481
0.00286499
0.00231372
0.00117769
-0.000480493
-0.00455458
-0.0120031
-0.0311922
-0.0600941
-0.075253
-0.110899
-0.14747
-0.206096
-0.184501
-0.0682453
-0.0191731
-0.00479657
-69.0353
61.0007
1.10317
0.896684
0.752884
0.590632
0.508587
0.422361
0.373882
0.312566
0.272145
0.213932
0.195448
0.197983
0.197509
0.191226
0.185255
0.174045
0.166199
0.154121
0.146249
0.134843
0.127624
0.117466
0.111231
0.102809
0.0983017
0.0936797
0.095426
0.107207
0.129743
0.0947866
0.068689
0.0578917
0.0493863
0.0450701
0.0401798
0.0373502
0.0336917
0.0314782
0.0284916
0.0266515
0.0241224
0.0225416
0.0203325
0.0189168
0.016878
0.0154982
0.0133901
0.0118568
0.00947263
0.00874089
0.00893038
0.00894276
0.00868982
0.0084328
0.00793429
0.00757955
0.00702504
0.00665584
0.00610729
0.00573787
0.00517588
0.00475007
0.00401309
0.00327177
0.00167887
-0.000537637
-0.00618438
-0.0161513
-0.0431336
-0.0848776
-0.104229
-0.155192
-0.205274
-0.292988
-0.263529
-0.0918613
-0.0248978
-0.00612153
-68.6492
58.4008
1.46025
1.1495
0.969088
0.754098
0.654042
0.540551
0.481489
0.400518
0.351009
0.272421
0.249859
0.25473
0.254327
0.245854
0.238529
0.22356
0.213957
0.197886
0.188259
0.1731
0.164274
0.150774
0.143148
0.131926
0.126383
0.120012
0.12201
0.137178
0.170594
0.12133
0.087292
0.0742583
0.0632166
0.0579783
0.0515248
0.0480728
0.043224
0.0405204
0.0365578
0.0343096
0.0309532
0.0290218
0.0260908
0.0243614
0.0216583
0.0199733
0.0171796
0.0152983
0.0120697
0.0111758
0.0114929
0.0115157
0.0111736
0.0108581
0.0101923
0.0097581
0.00902044
0.00856908
0.00784087
0.00738977
0.00664635
0.00612782
0.00516142
0.00426394
0.00220505
-0.000457512
-0.0076413
-0.0196188
-0.0544844
-0.110557
-0.131939
-0.199519
-0.261572
-0.384568
-0.348244
-0.111289
-0.028695
-0.00689469
-68.2629
55.7807
1.85006
1.3971
1.18667
0.912966
0.800034
0.656564
0.589973
0.487212
0.431036
0.328669
0.303172
0.311687
0.311468
0.300437
0.292108
0.27286
0.261973
0.241393
0.230491
0.211103
0.20111
0.183847
0.175208
0.160816
0.154499
0.14601
0.148068
0.166421
0.214753
0.147264
0.105055
0.0905452
0.076815
0.0709351
0.0627499
0.0588513
0.0526707
0.0496131
0.0445556
0.0420122
0.0377272
0.0355422
0.0318011
0.029845
0.026398
0.0244927
0.0209327
0.0187938
0.0145735
0.0135623
0.0140673
0.0141032
0.0136563
0.0132975
0.0124411
0.0119489
0.0110045
0.0104935
0.00956344
0.00905344
0.00810789
0.00752357
0.00630707
0.00530263
0.00275545
-0.000196464
-0.00890638
-0.0221708
-0.0649867
-0.137623
-0.157802
-0.244068
-0.315432
-0.482519
-0.440985
-0.124542
-0.0300603
-0.00702072
-67.8764
53.1373
2.28118
1.635
1.40679
1.0654
0.947248
0.769502
0.699903
0.572043
0.512911
0.381843
0.355125
0.368994
0.369042
0.354911
0.346124
0.321827
0.310377
0.284514
0.273062
0.248731
0.238238
0.216575
0.207499
0.189384
0.182701
0.171586
0.173473
0.194464
0.263545
0.172187
0.12171
0.106801
0.0900995
0.0839844
0.0738037
0.0697213
0.0619926
0.058786
0.0524529
0.0497845
0.0444174
0.0421249
0.0374401
0.0353884
0.0310761
0.0290785
0.0246291
0.0223726
0.016949
0.0158882
0.0166605
0.0167102
0.0161357
0.0157569
0.0146755
0.0141578
0.0129713
0.0124347
0.0112693
0.0107346
0.00955507
0.00894468
0.00744431
0.00640312
0.00332212
0.000294997
-0.00998918
-0.0235405
-0.0742961
-0.166787
-0.181021
-0.289212
-0.365463
-0.588816
-0.544722
-0.128917
-0.028568
-0.00645472
-67.4897
50.4693
2.76276
1.85618
1.63144
1.20891
1.09685
0.878114
0.812164
0.654125
0.597663
0.430842
0.405454
0.426854
0.427182
0.409171
0.40076
0.370279
0.359358
0.327058
0.316148
0.285805
0.275813
0.2488
0.240151
0.217494
0.21108
0.196642
0.198115
0.220583
0.318755
0.195475
0.136943
0.123129
0.102961
0.0971964
0.0846137
0.0807373
0.0711338
0.068084
0.0602039
0.057665
0.0509847
0.0488034
0.042974
0.0410223
0.0356617
0.0337625
0.0282378
0.0260783
0.01915
0.0181409
0.0192827
0.0193422
0.0186073
0.0182446
0.0168874
0.0163936
0.0149121
0.0144012
0.01295
0.0124417
0.0109796
0.0104015
0.00856329
0.00758531
0.00388675
0.00107685
-0.0109412
-0.0234218
-0.0819358
-0.199081
-0.200481
-0.335633
-0.40961
-0.705809
-0.663326
-0.120673
-0.0239462
-0.00521576
-67.1027
47.7777
3.30429
2.05009
1.864
1.34
1.25071
0.980615
0.928109
0.732143
0.68683
0.474185
0.453912
0.485557
0.486057
0.463048
0.45628
0.417949
0.409194
0.368746
0.360012
0.322066
0.314069
0.28029
0.273364
0.244954
0.239781
0.221062
0.221918
0.243675
0.382823
0.216173
0.150387
0.139711
0.115246
0.110681
0.0950756
0.0919826
0.080013
0.0775755
0.0677414
0.0657114
0.0573722
0.0556281
0.0483529
0.0467928
0.0401091
0.0385917
0.0317121
0.0299748
0.0211144
0.0203077
0.0219483
0.0220062
0.0210641
0.0207721
0.0190649
0.0186691
0.0168143
0.0164054
0.0145932
0.014187
0.0123689
0.0119088
0.00964798
0.00887643
0.00441594
0.00222715
-0.0118745
-0.0214617
-0.08723
-0.236005
-0.214591
-0.384501
-0.444867
-0.836349
-0.801937
-0.0945917
-0.0162045
-0.00339901
-66.7156
45.0668
3.91516
2.20127
2.11007
1.4537
1.41181
1.07441
1.04979
0.804136
0.78269
0.509832
0.500294
0.545506
0.545871
0.516276
0.513062
0.464437
0.460299
0.409167
0.405044
0.357128
0.353356
0.310706
0.307437
0.271486
0.269023
0.244699
0.244884
0.262072
0.459124
0.232838
0.161628
0.156845
0.126735
0.124608
0.105037
0.103583
0.0885112
0.087363
0.0749669
0.0740103
0.0634961
0.0626742
0.0535034
0.0527685
0.04435
0.0436356
0.0349809
0.0341564
0.0227568
0.0223768
0.0246774
0.0247103
0.0234951
0.0233564
0.0211901
0.021003
0.0186588
0.018466
0.0161802
0.015989
0.0137039
0.0134883
0.0106732
0.0103152
0.0048544
0.0038541
-0.0129883
-0.0172542
-0.0892035
-0.279736
-0.221047
-0.43775
-0.466878
-0.983924
-0.967465
-0.0433519
-0.00583958
-0.00118206
-66.3284
45.0668
3.91516
2.20127
2.11007
1.4537
1.41181
1.07441
1.04979
0.804137
0.782691
0.509833
0.500295
0.545507
0.545872
0.516276
0.513063
0.464437
0.460299
0.409167
0.405045
0.357129
0.353357
0.310707
0.307438
0.271487
0.269024
0.2447
0.244885
0.262073
0.459126
0.232838
0.161628
0.156846
0.126736
0.124609
0.105038
0.103584
0.0885116
0.0873635
0.0749673
0.0740107
0.0634965
0.0626746
0.0535038
0.0527688
0.0443502
0.0436359
0.0349811
0.0341566
0.022757
0.0223769
0.0246776
0.0247104
0.0234953
0.0233566
0.0211904
0.0210033
0.0186591
0.0184662
0.0161805
0.0159893
0.0137042
0.0134886
0.0106735
0.0103156
0.00485493
0.00385466
-0.012987
-0.0172527
-0.0891995
-0.279726
-0.22104
-0.43774
-0.466869
-0.983914
-0.967455
-0.0433514
-0.00583951
-0.00118212
-66.3284
47.7777
3.30428
2.05009
1.864
1.34
1.25071
0.980615
0.92811
0.732144
0.686831
0.474185
0.453913
0.485558
0.486057
0.463049
0.456281
0.41795
0.409195
0.368747
0.360013
0.322066
0.314069
0.280291
0.273365
0.244955
0.239781
0.221063
0.221918
0.243676
0.382825
0.216174
0.150388
0.139712
0.115246
0.110682
0.0950761
0.091983
0.0800134
0.0775759
0.0677418
0.0657117
0.0573726
0.0556285
0.0483532
0.0467932
0.0401094
0.038592
0.0317124
0.029975
0.0211146
0.0203079
0.0219485
0.0220064
0.0210643
0.0207723
0.0190651
0.0186693
0.0168146
0.0164057
0.0145934
0.0141873
0.0123691
0.0119091
0.00964828
0.00887675
0.00441643
0.00222772
-0.0118734
-0.0214602
-0.0872261
-0.235996
-0.214584
-0.384492
-0.444858
-0.83634
-0.801929
-0.0945905
-0.0162043
-0.00339902
-66.7157
50.4693
2.76275
1.85618
1.63144
1.20891
1.09685
0.878114
0.812165
0.654126
0.597664
0.430843
0.405455
0.426855
0.427183
0.409172
0.400761
0.37028
0.359359
0.327058
0.316149
0.285806
0.275813
0.2488
0.240152
0.217494
0.211081
0.196643
0.198116
0.220584
0.318756
0.195476
0.136944
0.12313
0.102961
0.0971968
0.0846141
0.0807377
0.0711342
0.0680844
0.0602042
0.0576654
0.050985
0.0488038
0.0429743
0.0410226
0.035662
0.0337628
0.0282381
0.0260785
0.0191502
0.0181411
0.0192829
0.0193424
0.0186075
0.0182448
0.0168876
0.0163938
0.0149124
0.0144014
0.0129503
0.0124419
0.0109798
0.0104017
0.00856356
0.00758561
0.00388718
0.00107739
-0.0109401
-0.0234204
-0.0819323
-0.199074
-0.200475
-0.335625
-0.409602
-0.705801
-0.663319
-0.120671
-0.0239459
-0.00521565
-67.1028
53.1373
2.28118
1.635
1.40679
1.0654
0.947248
0.769502
0.699904
0.572044
0.512911
0.381843
0.355125
0.368995
0.369042
0.354911
0.346124
0.321827
0.310378
0.284514
0.273062
0.248731
0.238239
0.216575
0.207499
0.189384
0.182701
0.171586
0.173474
0.194464
0.263546
0.172187
0.121711
0.106802
0.0900999
0.0839848
0.073804
0.0697216
0.0619929
0.0587863
0.0524533
0.0497848
0.0444177
0.0421252
0.0374404
0.0353886
0.0310763
0.0290788
0.0246293
0.0223728
0.0169491
0.0158883
0.0166606
0.0167103
0.0161358
0.0157571
0.0146757
0.014158
0.0129714
0.0124349
0.0112695
0.0107348
0.00955526
0.00894489
0.00744455
0.00640339
0.0033225
0.000295491
-0.00998828
-0.0235391
-0.074293
-0.166781
-0.181015
-0.289205
-0.365457
-0.588809
-0.544716
-0.128915
-0.0285676
-0.00645449
-67.4897
55.7807
1.85006
1.3971
1.18667
0.912966
0.800034
0.656564
0.589973
0.487213
0.431036
0.32867
0.303172
0.311688
0.311469
0.300437
0.292108
0.272861
0.261974
0.241394
0.230491
0.211104
0.201111
0.183847
0.175209
0.160817
0.154499
0.14601
0.148068
0.166421
0.214754
0.147264
0.105056
0.0905457
0.0768153
0.0709355
0.0627502
0.0588516
0.052671
0.0496134
0.0445559
0.0420124
0.0377275
0.0355424
0.0318013
0.0298452
0.0263982
0.0244929
0.0209329
0.0187939
0.0145736
0.0135624
0.0140674
0.0141033
0.0136565
0.0132977
0.0124413
0.011949
0.0110046
0.0104936
0.0095636
0.0090536
0.00810805
0.00752374
0.00630727
0.00530286
0.00275577
-0.000196032
-0.00890561
-0.0221695
-0.0649841
-0.137618
-0.157797
-0.244062
-0.315427
-0.482514
-0.44098
-0.124541
-0.0300599
-0.00702042
-67.8765
58.4008
1.46025
1.1495
0.969087
0.754098
0.654042
0.540551
0.481489
0.400519
0.351009
0.272421
0.249859
0.25473
0.254328
0.245855
0.238529
0.22356
0.213957
0.197887
0.188259
0.1731
0.164274
0.150774
0.143148
0.131927
0.126384
0.120012
0.122011
0.137179
0.170595
0.12133
0.0872924
0.0742586
0.0632169
0.0579785
0.0515251
0.048073
0.0432243
0.0405206
0.036558
0.0343098
0.0309534
0.029022
0.026091
0.0243615
0.0216585
0.0199734
0.0171798
0.0152984
0.0120698
0.0111758
0.011493
0.0115158
0.0111737
0.0108582
0.0101924
0.00975822
0.00902057
0.00856921
0.007841
0.00738991
0.00664648
0.00612797
0.00516158
0.00426413
0.00220531
-0.000457153
-0.00764067
-0.0196178
-0.0544822
-0.110553
-0.131935
-0.199515
-0.261568
-0.384563
-0.348241
-0.111288
-0.0286945
-0.00689434
-68.263
61.0007
1.10316
0.896683
0.752883
0.590632
0.508587
0.422361
0.373882
0.312566
0.272145
0.213932
0.195448
0.197983
0.19751
0.191227
0.185256
0.174045
0.166199
0.154122
0.146249
0.134843
0.127624
0.117467
0.111232
0.102809
0.0983019
0.09368
0.0954263
0.107207
0.129743
0.094787
0.0686893
0.057892
0.0493865
0.0450703
0.04018
0.0373504
0.0336919
0.0314784
0.0284917
0.0266516
0.0241225
0.0225417
0.0203327
0.0189169
0.0168782
0.0154983
0.0133902
0.0118569
0.0094727
0.00874094
0.00893044
0.00894283
0.0086899
0.00843288
0.00793438
0.00757964
0.00702514
0.00665593
0.00610738
0.00573797
0.00517598
0.00475018
0.00401322
0.00327191
0.00167907
-0.000537354
-0.00618389
-0.0161505
-0.0431319
-0.0848746
-0.104225
-0.155188
-0.205271
-0.292985
-0.263526
-0.0918601
-0.0248974
-0.00612118
-68.6493
63.584
0.770803
0.641362
0.537418
0.423959
0.363299
0.302661
0.266788
0.223778
0.193993
0.153854
0.140197
0.141357
0.140924
0.136586
0.132192
0.124395
0.118611
0.110189
0.10438
0.0964194
0.0910921
0.084002
0.0794025
0.0735357
0.0702247
0.0670929
0.0684408
0.0768049
0.0911916
0.0678897
0.0494743
0.0414338
0.0353886
0.0321852
0.0287526
0.026661
0.0241017
0.0224671
0.0203797
0.0190211
0.0172537
0.0160866
0.0145427
0.0134973
0.0120716
0.0110524
0.00957779
0.00844941
0.00680955
0.00626924
0.00637504
0.00638058
0.00620635
0.00601726
0.00567064
0.00540911
0.00502235
0.00474989
0.00436666
0.0040938
0.00370009
0.00338489
0.00286507
0.00231382
0.00117783
-0.000480292
-0.00455424
-0.0120025
-0.031191
-0.060092
-0.0752508
-0.110897
-0.147468
-0.206093
-0.184499
-0.0682443
-0.0191727
-0.00479627
-69.0353
66.1553
0.455698
0.385021
0.322333
0.255173
0.218011
0.18197
0.15998
0.134461
0.116255
0.0927159
0.0843528
0.0847948
0.0844946
0.0819479
0.0792642
0.0746654
0.0711284
0.0661509
0.0625975
0.05789
0.0546305
0.0504378
0.0476243
0.0441598
0.0421404
0.0403266
0.0411747
0.0461621
0.0541476
0.0407971
0.0298444
0.0248959
0.0212771
0.0193093
0.0172717
0.0159904
0.0144747
0.013474
0.0122385
0.0114069
0.010361
0.00964666
0.00873287
0.00809294
0.00724876
0.00662482
0.00575154
0.00506245
0.00410245
0.00377173
0.00382369
0.00382556
0.00372343
0.00360797
0.00340355
0.00324362
0.00301504
0.00284833
0.00262156
0.0024545
0.0022211
0.00202782
0.00171823
0.00137915
0.000697511
-0.000326553
-0.00278956
-0.00738481
-0.0188615
-0.035859
-0.0454566
-0.0665683
-0.0887828
-0.12241
-0.109258
-0.0419412
-0.0120603
-0.00305221
-69.4213
68.7193
0.150777
0.12836
0.107427
0.0851874
0.0726776
0.0607174
0.0533125
0.0448516
0.0387297
0.0309712
0.0281565
0.0282621
0.0281551
0.0273151
0.0264131
0.0248929
0.0237034
0.0220563
0.020861
0.0193028
0.0182063
0.0168185
0.0158721
0.0147262
0.0140479
0.013454
0.0137431
0.0153994
0.0179571
0.0136085
0.00997431
0.00830481
0.00709958
0.00643627
0.00576047
0.00532917
0.0048271
0.00449037
0.00408122
0.00380142
0.00345508
0.00321472
0.00291212
0.00269678
0.00241718
0.00220721
0.00191794
0.00168635
0.00137021
0.00125893
0.00127436
0.00127473
0.00124107
0.00120227
0.0011347
0.00108091
0.00100527
0.000949185
0.000874103
0.000817883
0.000740527
0.000675435
0.000572586
0.000458208
0.000230916
-0.00011523
-0.000939563
-0.00249184
-0.00631105
-0.0119219
-0.0152017
-0.0221955
-0.0296411
-0.0405985
-0.0361844
-0.0141406
-0.00411292
-0.00104695
-69.8071
68.7226
0.136724
0.103775
0.0777394
0.0524215
0.0390325
0.0274819
0.0210692
0.0149841
0.0125667
0.0119027
0.0115516
0.0109978
0.0105596
0.00994617
0.00950081
0.00891956
0.0085025
0.0079607
0.00757086
0.00706287
0.00669869
0.00622724
0.00589737
0.00548603
0.00523454
0.005
0.00507995
0.00563052
0.00650154
0.00486804
0.00349166
0.00285337
0.00238467
0.00212578
0.00186211
0.0016952
0.00150318
0.00137609
0.00122409
0.0011217
0.000997106
0.000912049
0.00080695
0.000733704
0.000640846
0.000573382
0.000483694
0.000415073
0.000323959
0.000285033
0.000270472
0.000254307
0.000220317
0.000187397
0.000132926
8.42064e-05
6.78125e-06
-6.35708e-05
-0.000177554
-0.000285566
-0.000466926
-0.000649155
-0.000970466
-0.00132462
-0.00199954
-0.00287624
-0.00477681
-0.00792456
-0.0152786
-0.0251866
-0.0278513
-0.0349801
-0.0427373
-0.0538424
-0.0469151
-0.0182655
-0.00530666
-0.00135046
-69.1033
66.1658
0.413625
0.311048
0.23319
0.156787
0.117024
0.0822402
0.0631946
0.0448057
0.0376298
0.0356957
0.0346629
0.0329886
0.0316857
0.0298318
0.0285079
0.0267521
0.0255125
0.023876
0.0227173
0.0211829
0.0201004
0.0186761
0.0176954
0.0164517
0.015703
0.0149874
0.015221
0.0168787
0.0196048
0.0145938
0.0104455
0.00855334
0.00714562
0.00637752
0.00558245
0.00508661
0.00450694
0.00412928
0.0036703
0.00336598
0.00298974
0.00273695
0.00241958
0.0022019
0.00192152
0.00172104
0.00145024
0.00124612
0.000969789
0.000854125
0.00081148
0.000763635
0.000660908
0.000563053
0.000398546
0.000253767
2.00604e-05
-0.000188968
-0.000532902
-0.000853765
-0.00140074
-0.0019419
-0.00291009
-0.00396101
-0.00599056
-0.00858777
-0.0142805
-0.0236054
-0.0457336
-0.0758494
-0.0833754
-0.104915
-0.128078
-0.162249
-0.141614
-0.0541689
-0.0155599
-0.00393695
-67.3098
63.6026
0.700997
0.517332
0.388581
0.259687
0.194816
0.136369
0.105294
0.0741788
0.0624833
0.0594525
0.0577999
0.0549647
0.0528339
0.0496962
0.0475322
0.0445641
0.0425384
0.0397723
0.0378788
0.0352848
0.0335157
0.0311072
0.0295039
0.0273976
0.02617
0.0249369
0.0253051
0.0280842
0.0330175
0.0242851
0.017309
0.0142339
0.011881
0.0106303
0.00929082
0.00848138
0.00750262
0.00688571
0.00611031
0.00561315
0.00497743
0.00456443
0.00402821
0.0036726
0.003199
0.0028715
0.00241412
0.00208006
0.00160919
0.0014203
0.0013527
0.00127516
0.0011013
0.000941374
0.000663377
0.000426883
3.2351e-05
-0.000308969
-0.000889173
-0.00141292
-0.00233479
-0.00321757
-0.00484639
-0.00655827
-0.00995887
-0.0141755
-0.023639
-0.0387742
-0.0758691
-0.127416
-0.138339
-0.174785
-0.212979
-0.272847
-0.238986
-0.0881189
-0.0247336
-0.0061863
-65.5161
61.0289
1.00617
0.72142
0.543979
0.360027
0.272352
0.189403
0.147394
0.102775
0.0869903
0.0831544
0.0809843
0.0769126
0.0740225
0.0695218
0.0665888
0.0623384
0.0595939
0.0556336
0.0530684
0.0493537
0.0469567
0.0435061
0.0413326
0.0383083
0.0366374
0.0348223
0.0352928
0.0392035
0.0469769
0.0339061
0.0240165
0.0198856
0.0165722
0.0148867
0.012978
0.0118829
0.0104838
0.00964849
0.00853919
0.00786585
0.00695621
0.00639684
0.00562963
0.00514802
0.00447064
0.00402717
0.00337306
0.00291946
0.00223732
0.00198161
0.00189431
0.00179053
0.00154114
0.00132442
0.000926545
0.000606319
4.25109e-05
-0.000419418
-0.0012477
-0.00195615
-0.00327041
-0.00446339
-0.00677938
-0.00908797
-0.0138945
-0.0195533
-0.0327706
-0.0530645
-0.105427
-0.180607
-0.192282
-0.244586
-0.297012
-0.387195
-0.341038
-0.11857
-0.0321139
-0.00789474
-63.7223
58.4409
1.337
0.921216
0.699637
0.456515
0.349698
0.2408
0.1896
0.130218
0.111019
0.10679
0.104245
0.0988133
0.0952755
0.0892846
0.0856981
0.0800525
0.0766982
0.0714392
0.0683039
0.06337
0.0604398
0.0558539
0.0531953
0.049165
0.0471105
0.0446164
0.0451429
0.0501684
0.06177
0.0433999
0.0304937
0.0255046
0.0211984
0.019152
0.0166326
0.0152966
0.0134425
0.0124222
0.0109506
0.010128
0.00892099
0.00823757
0.00721963
0.00663127
0.00573293
0.00519126
0.00432399
0.00376801
0.00284838
0.0025362
0.00243658
0.00231173
0.00197967
0.0017147
0.0011866
0.000795494
4.85921e-05
-0.000515216
-0.00161103
-0.00247515
-0.00421088
-0.0056643
-0.00871266
-0.0115178
-0.0177961
-0.0246288
-0.0416191
-0.0660721
-0.134071
-0.236339
-0.244599
-0.314381
-0.379535
-0.506996
-0.450142
-0.14358
-0.0370047
-0.00889129
-61.9282
55.8354
1.70207
1.11324
0.856158
0.547552
0.427128
0.289888
0.232132
0.156054
0.13445
0.130357
0.127621
0.120638
0.116627
0.108951
0.10489
0.097675
0.0938787
0.08716
0.0836115
0.0773062
0.0739893
0.0681247
0.0651129
0.0599426
0.0576012
0.0542896
0.0548131
0.0608702
0.0777621
0.0526752
0.0366542
0.0310963
0.0257341
0.0234362
0.0202399
0.018731
0.0163678
0.015214
0.0133361
0.0124055
0.0108648
0.0100917
0.00879244
0.00812693
0.00698095
0.00636838
0.00526247
0.00463111
0.00343516
0.00308228
0.00297986
0.00284121
0.00241551
0.00211551
0.00144118
0.000998897
4.73453e-05
-0.000589737
-0.00198363
-0.00295929
-0.00516264
-0.00680141
-0.0106557
-0.0138086
-0.0216755
-0.0292979
-0.0501691
-0.0773379
-0.161345
-0.295831
-0.294456
-0.384362
-0.459567
-0.63417
-0.569235
-0.160591
-0.038757
-0.00905319
-60.1338
53.2097
2.11082
1.292
1.01474
0.631061
0.50523
0.335797
0.275397
0.179711
0.15718
0.153871
0.151167
0.142345
0.138125
0.128474
0.124208
0.115161
0.111176
0.102754
0.0990294
0.091123
0.0876406
0.0802814
0.077117
0.0706071
0.0681308
0.0638094
0.0642619