/*--------------------------------*- C++ -*----------------------------------*\
| =========                 |                                                 |
| \\      /  F ield         | OpenFOAM: The Open Source CFD Toolbox           |
|  \\    /   O peration     | Version:  5.x                                   |
|   \\  /    A nd           | Web:      www.OpenFOAM.org                      |
|    \\/     M anipulation  |                                                 |
\*---------------------------------------------------------------------------*/
FoamFile
{
    version     2.0;
    format      ascii;
    class       volScalarField;
    location    "3.8";
    object      T;
}
// * * * * * * * * * * * * * * * * * * * * * * * * * * * * * * * * * * * * * //

dimensions      [0 0 0 1 0 0 0];

internalField   nonuniform List<scalar> 
3200
(
2.08533
2.43644
2.45647
2.60127
2.61044
2.68272
2.68753
2.72935
2.73221
2.75869
2.76044
2.77574
2.77708
2.79377
2.79513
2.81105
2.81232
2.82697
2.82813
2.84136
2.84241
2.85422
2.85515
2.86558
2.8664
2.87559
2.87632
2.8846
2.88533
2.8941
2.9018
2.90235
2.90734
2.90771
2.91152
2.9118
2.91486
2.91509
2.91757
2.91776
2.91978
2.91993
2.92158
2.92171
2.92304
2.92314
2.9242
2.92427
2.92506
2.92511
2.92559
2.92563
2.9261
2.92613
2.9265
2.92653
2.92673
2.92673
2.92671
2.92669
2.92632
2.92627
2.92538
2.92526
2.92346
2.92323
2.91965
2.91915
2.91125
2.90986
2.8874
2.84819
2.84382
2.7801
2.77259
2.6534
2.64845
2.64783
2.6477
2.64767
2.26075
2.52939
2.57123
2.68708
2.70665
2.76445
2.77471
2.80804
2.81414
2.83518
2.83892
2.85118
2.85404
2.86725
2.87013
2.88274
2.88544
2.89704
2.89951
2.90999
2.91221
2.92157
2.92354
2.93181
2.93355
2.94083
2.94238
2.94897
2.95054
2.9578
2.96427
2.96547
2.96944
2.97023
2.97325
2.97386
2.97628
2.97677
2.97874
2.97914
2.98075
2.98107
2.98238
2.98264
2.9837
2.98391
2.98475
2.98491
2.98554
2.98565
2.98603
2.98611
2.98648
2.98656
2.98685
2.9869
2.98706
2.98707
2.98705
2.98701
2.98672
2.98661
2.9859
2.98565
2.98421
2.98373
2.98085
2.97978
2.97335
2.97029
2.95066
2.91857
2.90921
2.85842
2.84262
2.75002
2.73958
2.73785
2.73749
2.73741
2.42544
2.63141
2.68304
2.77674
2.80132
2.84808
2.86096
2.88782
2.89547
2.91236
2.91706
2.927
2.93059
2.94114
2.94474
2.95482
2.9582
2.96748
2.97056
2.97896
2.98172
2.98922
2.99168
2.9983
3.00047
3.00631
3.00825
3.01354
3.01552
3.02153
3.02695
3.02847
3.03168
3.03266
3.03509
3.03585
3.03779
3.0384
3.03998
3.04048
3.04176
3.04217
3.04322
3.04355
3.0444
3.04466
3.04533
3.04553
3.04603
3.04617
3.04648
3.04658
3.04688
3.04697
3.04721
3.04727
3.04739
3.04741
3.04739
3.04735
3.04711
3.04697
3.04639
3.04609
3.04493
3.04431
3.04197
3.04062
3.03531
3.03138
3.01442
2.98803
2.97627
2.93535
2.91572
2.84336
2.83036
2.82782
2.82727
2.82715
2.58188
2.73961
2.79317
2.86917
2.89511
2.93306
2.94665
2.96837
2.97642
2.99004
2.99498
3.00308
3.00685
3.01531
3.01908
3.02717
3.03072
3.03817
3.04141
3.04814
3.05105
3.05706
3.05965
3.06496
3.06725
3.07193
3.07398
3.07825
3.08034
3.08529
3.08979
3.0914
3.094
3.09504
3.09699
3.09779
3.09935
3.09999
3.10126
3.10178
3.10282
3.10324
3.10409
3.10443
3.10511
3.10539
3.10593
3.10614
3.10654
3.10669
3.10694
3.10705
3.10729
3.10738
3.10757
3.10763
3.10774
3.10775
3.10774
3.10769
3.1075
3.10735
3.10688
3.10656
3.10562
3.10497
3.10306
3.10163
3.09721
3.09299
3.07855
3.05691
3.04449
3.01142
2.99092
2.93433
2.92072
2.91771
2.91703
2.91688
2.73201
2.85197
2.9024
2.9636
2.98842
3.01902
3.03202
3.04947
3.05716
3.06805
3.07278
3.07933
3.08293
3.08967
3.09326
3.09971
3.10308
3.10903
3.11211
3.11748
3.12025
3.12505
3.12751
3.13175
3.13393
3.13767
3.13962
3.14304
3.14504
3.14907
3.15275
3.15429
3.15638
3.15737
3.15894
3.1597
3.16094
3.16156
3.16257
3.16307
3.16389
3.1643
3.16497
3.1653
3.16584
3.16611
3.16654
3.16674
3.16706
3.1672
3.1674
3.16751
3.1677
3.16779
3.16794
3.168
3.16808
3.1681
3.16808
3.16804
3.16788
3.16774
3.16737
3.16706
3.1663
3.16568
3.16413
3.16275
3.15911
3.15501
3.14298
3.12543
3.11353
3.08699
3.06757
3.02357
3.01065
3.00751
3.00677
3.00661
2.87735
2.96712
3.0112
3.05949
3.0815
3.10568
3.11721
3.13095
3.13776
3.14632
3.15051
3.15569
3.15888
3.16415
3.16732
3.17237
3.17535
3.18
3.18272
3.18693
3.18937
3.19313
3.1953
3.19862
3.20054
3.20348
3.2052
3.20789
3.20967
3.21286
3.21579
3.21716
3.21881
3.21969
3.22091
3.22159
3.22256
3.22311
3.2239
3.22434
3.22499
3.22535
3.22587
3.22616
3.22659
3.22682
3.22716
3.22734
3.22759
3.22771
3.22787
3.22796
3.22811
3.22819
3.22831
3.22836
3.22843
3.22844
3.22843
3.22839
3.22827
3.22814
3.22784
3.22757
3.22697
3.22642
3.22519
3.22396
3.22103
3.21735
3.20762
3.19371
3.18316
3.16228
3.14521
3.11158
3.10019
3.09722
3.09649
3.09633
3.01909
3.08409
3.11982
3.15643
3.17449
3.19285
3.20231
3.21272
3.2183
3.22476
3.2282
3.23214
3.23475
3.23871
3.24131
3.24511
3.24755
3.25104
3.25327
3.25644
3.25844
3.26127
3.26305
3.26555
3.26712
3.26933
3.27074
3.27277
3.27423
3.27666
3.27889
3.28002
3.28127
3.28199
3.28291
3.28347
3.2842
3.28465
3.28524
3.2856
3.28609
3.28639
3.28678
3.28702
3.28734
3.28753
3.28778
3.28793
3.28812
3.28822
3.28834
3.28842
3.28853
3.2886
3.28868
3.28873
3.28877
3.28879
3.28878
3.28874
3.28865
3.28855
3.28832
3.2881
3.28764
3.28719
3.28625
3.28524
3.28298
3.27993
3.27243
3.26187
3.25321
3.23741
3.2235
3.19869
3.1894
3.18683
3.18619
3.18604
3.15823
3.20223
3.22842
3.2541
3.26747
3.28037
3.28737
3.29467
3.2988
3.30332
3.30586
3.30864
3.31057
3.31333
3.31525
3.3179
3.3197
3.32214
3.32379
3.326
3.32748
3.32945
3.33077
3.33251
3.33367
3.33522
3.33626
3.33768
3.33876
3.34046
3.34203
3.34287
3.34375
3.34428
3.34493
3.34534
3.34585
3.34618
3.3466
3.34686
3.3472
3.34742
3.3477
3.34787
3.3481
3.34824
3.34841
3.34852
3.34865
3.34873
3.34881
3.34887
3.34895
3.349
3.34906
3.34909
3.34912
3.34913
3.34913
3.3491
3.34904
3.34896
3.3488
3.34864
3.34832
3.34798
3.34732
3.34656
3.34496
3.34269
3.33737
3.32994
3.32354
3.31246
3.30224
3.28518
3.27834
3.27637
3.27586
3.27575
3.29562
3.32109
3.33703
3.35227
3.36047
3.36813
3.37243
3.37676
3.37928
3.38196
3.38352
3.38517
3.38635
3.38799
3.38916
3.39073
3.39183
3.39327
3.39428
3.39559
3.39649
3.39766
3.39847
3.3995
3.40021
3.40112
3.40176
3.4026
3.40327
3.40428
3.40521
3.40572
3.40625
3.40657
3.40695
3.4072
3.40751
3.40771
3.40796
3.40812
3.40832
3.40845
3.40862
3.40872
3.40886
3.40894
3.40905
3.40911
3.40919
3.40924
3.40929
3.40932
3.40937
3.4094
3.40943
3.40945
3.40947
3.40948
3.40948
3.40946
3.40942
3.40937
3.40928
3.40918
3.40899
3.40878
3.40839
3.40792
3.40696
3.40556
3.40239
3.39798
3.39405
3.38749
3.38124
3.37126
3.36708
3.36584
3.36553
3.36545
3.43198
3.44032
3.44567
3.45073
3.45349
3.45603
3.45747
3.45891
3.45976
3.46065
3.46117
3.46172
3.46212
3.46266
3.46306
3.46357
3.46394
3.46442
3.46476
3.46519
3.4655
3.46589
3.46616
3.4665
3.46674
3.46704
3.46725
3.46753
3.46776
3.46809
3.4684
3.46857
3.46875
3.46886
3.46898
3.46907
3.46917
3.46924
3.46932
3.46937
3.46944
3.46948
3.46954
3.46958
3.46962
3.46965
3.46968
3.4697
3.46973
3.46975
3.46976
3.46977
3.46979
3.4698
3.46981
3.46982
3.46982
3.46983
3.46982
3.46982
3.46981
3.46979
3.46976
3.46973
3.46966
3.46959
3.46946
3.46931
3.46899
3.46851
3.46746
3.46599
3.46467
3.4625
3.4604
3.45711
3.45571
3.45529
3.45518
3.45515
3.43151
3.44042
3.44659
3.45325
3.45733
3.46177
3.4646
3.46784
3.46993
3.47233
3.4738
3.47542
3.47662
3.47825
3.47943
3.48098
3.48208
3.48347
3.48445
3.48568
3.48653
3.48761
3.48835
3.48929
3.48994
3.49076
3.49135
3.49211
3.49272
3.49365
3.49452
3.49501
3.49551
3.49584
3.49622
3.49648
3.4968
3.49701
3.49728
3.49746
3.49769
3.49784
3.49803
3.49817
3.49833
3.49844
3.49857
3.49866
3.49876
3.49882
3.4989
3.49895
3.49902
3.49908
3.49915
3.4992
3.49926
3.49931
3.49936
3.4994
3.49945
3.49948
3.49952
3.49955
3.49958
3.4996
3.4996
3.49958
3.49951
3.49934
3.49888
3.49814
3.49736
3.49592
3.49439
3.49186
3.49078
3.49045
3.49036
3.49035
3.29418
3.32136
3.33975
3.35986
3.37198
3.38538
3.39378
3.40357
3.40978
3.41702
3.42141
3.42629
3.42984
3.43477
3.43829
3.44296
3.44622
3.45043
3.45333
3.45705
3.45959
3.46283
3.46505
3.46788
3.46981
3.47229
3.47403
3.47633
3.47815
3.48094
3.48356
3.48502
3.48655
3.48751
3.48867
3.48944
3.4904
3.49104
3.49185
3.49239
3.49307
3.49353
3.49411
3.4945
3.49498
3.4953
3.49571
3.49597
3.49628
3.49647
3.49669
3.49685
3.49707
3.49723
3.49745
3.49759
3.49779
3.49792
3.49809
3.4982
3.49835
3.49845
3.49857
3.49865
3.49874
3.49879
3.49881
3.49876
3.49853
3.49802
3.49665
3.49443
3.4921
3.48777
3.48322
3.47553
3.4723
3.47134
3.47109
3.47103
3.15576
3.20265
3.23284
3.26678
3.28658
3.30918
3.32291
3.33945
3.34959
3.36182
3.36899
3.37721
3.38301
3.39134
3.3971
3.405
3.41032
3.41744
3.42218
3.42846
3.43262
3.4381
3.44173
3.4465
3.44967
3.45386
3.45669
3.46057
3.46353
3.46825
3.47265
3.47504
3.4776
3.47918
3.48114
3.4824
3.48401
3.48506
3.48642
3.48731
3.48846
3.48921
3.49019
3.49082
3.49164
3.49217
3.49285
3.49328
3.49381
3.49412
3.49449
3.49475
3.49512
3.49539
3.49575
3.49599
3.49631
3.49653
3.49681
3.497
3.49725
3.49741
3.49762
3.49775
3.49791
3.49798
3.49803
3.49793
3.49757
3.49673
3.49445
3.49072
3.48693
3.47963
3.47218
3.45903
3.45373
3.4522
3.45181
3.45172
3.01546
3.08461
3.12578
3.17428
3.20106
3.23334
3.25192
3.27557
3.28931
3.30683
3.31653
3.32822
3.33607
3.34802
3.35582
3.36715
3.37435
3.38455
3.39097
3.39996
3.40559
3.41345
3.41835
3.42519
3.42948
3.43547
3.43931
3.44484
3.44885
3.45556
3.46182
3.46504
3.46869
3.47083
3.47363
3.47534
3.47765
3.47907
3.48102
3.48222
3.48387
3.48489
3.48628
3.48714
3.48831
3.48903
3.49
3.49058
3.49134
3.49177
3.49229
3.49264
3.49318
3.49353
3.49405
3.49438
3.49484
3.49514
3.49555
3.4958
3.49616
3.49638
3.49667
3.49685
3.49708
3.49718
3.49724
3.49712
3.49662
3.49551
3.49231
3.48702
3.48189
3.4715
3.46136
3.4422
3.43501
3.43302
3.43252
3.4324
2.8724
2.96768
3.01842
3.08263
3.11533
3.15804
3.18073
3.2121
3.22888
3.25215
3.26398
3.27939
3.28897
3.30487
3.3144
3.32945
3.33826
3.35181
3.35965
3.3716
3.37848
3.38891
3.3949
3.40398
3.40922
3.41718
3.42186
3.42918
3.43406
3.4429
3.45112
3.45503
3.45985
3.46245
3.46617
3.46825
3.47132
3.47306
3.47564
3.47711
3.4793
3.48054
3.4824
3.48344
3.485
3.48588
3.48717
3.48788
3.48889
3.48941
3.4901
3.49053
3.49124
3.49168
3.49236
3.49276
3.49338
3.49374
3.49428
3.4946
3.49507
3.49533
3.49573
3.49595
3.49625
3.49637
3.49647
3.49633
3.4957
3.49437
3.49026
3.48331
3.47706
3.46336
3.4509
3.4249
3.41608
3.41377
3.41321
3.41308
2.72552
2.85254
2.91053
2.99225
3.0292
3.08355
3.1092
3.14921
3.1682
3.19793
3.2113
3.2308
3.24162
3.26196
3.27276
3.29201
3.30197
3.31929
3.32817
3.34343
3.35122
3.36454
3.37133
3.38293
3.38885
3.39901
3.4043
3.41361
3.41911
3.43025
3.44058
3.44498
3.45109
3.45403
3.45877
3.46113
3.46505
3.46701
3.47031
3.47197
3.47477
3.47618
3.47854
3.47973
3.48172
3.48271
3.48436
3.48516
3.48646
3.48704
3.48791
3.4884
3.48932
3.48981
3.49069
3.49114
3.49193
3.49233
3.49303
3.49338
3.49399
3.49429
3.4948
3.49504
3.49543
3.49557
3.4957
3.49555
3.49481
3.49333
3.48831
3.47957
3.47253
3.45517
3.44099
3.40691
3.39689
3.39446
3.39389
3.39376
2.57357
2.74017
2.80168
2.90367
2.94236
3.01021
3.03709
3.08716
3.10708
3.14436
3.15837
3.18254
3.19388
3.21944
3.23079
3.25494
3.2654
3.28712
3.29644
3.31557
3.32374
3.34044
3.34757
3.3621
3.36832
3.38104
3.38659
3.3982
3.40393
3.41764
3.43029
3.43486
3.44246
3.44554
3.45147
3.45394
3.45885
3.46091
3.46505
3.46679
3.47029
3.47177
3.47474
3.47598
3.47848
3.47952
3.48159
3.48243
3.48405
3.48467
3.48575
3.48625
3.48741
3.48793
3.48902
3.4895
3.49049
3.49092
3.49179
3.49216
3.49292
3.49323
3.49387
3.49413
3.49462
3.49477
3.49495
3.4948
3.49395
3.49244
3.48652
3.47577
3.46842
3.44684
3.43187
3.38796
3.3774
3.37507
3.37454
3.37443
2.41495
2.63199
2.69122
2.81761
2.85437
2.9385
2.96405
3.02631
3.04527
3.09172
3.10503
3.13481
3.14558
3.17749
3.1883
3.21841
3.22837
3.25544
3.26431
3.28814
3.29592
3.31672
3.3235
3.3416
3.34752
3.36335
3.36863
3.38302
3.38844
3.40508
3.42031
3.42462
3.43401
3.43694
3.4443
3.44666
3.45277
3.45473
3.45988
3.46154
3.4659
3.4673
3.471
3.47218
3.4753
3.47629
3.47886
3.47966
3.48169
3.48227
3.4836
3.48408
3.48553
3.48602
3.48739
3.48784
3.48908
3.48948
3.49057
3.49092
3.49186
3.49217
3.49296
3.49321
3.49382
3.49397
3.49421
3.49407
3.49311
3.49173
3.48492
3.47182
3.46487
3.43826
3.42391
3.36768
3.35758
3.35561
3.35518
3.35509
2.24764
2.53012
2.57807
2.73513
2.76447
2.86913
2.88954
2.9672
2.98235
3.04041
3.05104
3.08783
3.09643
3.13638
3.14503
3.18269
3.19066
3.22448
3.23158
3.26136
3.26758
3.29356
3.29899
3.32159
3.32632
3.34609
3.3503
3.3682
3.37249
3.39256
3.41078
3.41418
3.42582
3.42815
3.43734
3.43922
3.44685
3.44842
3.45485
3.45618
3.46162
3.46275
3.46736
3.46831
3.4722
3.47299
3.47621
3.47685
3.47938
3.47985
3.48149
3.48188
3.48368
3.48408
3.48579
3.48615
3.4877
3.48802
3.48938
3.48966
3.49084
3.49108
3.49207
3.49227
3.49304
3.49316
3.49348
3.49338
3.49229
3.49124
3.48357
3.46763
3.46211
3.42918
3.41763
3.34555
3.33743
3.33609
3.33581
3.33575
2.06904
2.43764
2.46056
2.65777
2.67156
2.80314
2.81274
2.91058
2.91772
2.99099
2.99599
3.04198
3.04602
3.09653
3.10061
3.14815
3.15192
3.1946
3.19794
3.23552
3.23845
3.27123
3.27378
3.3023
3.30453
3.32945
3.33143
3.35392
3.35592
3.38012
3.40183
3.40341
3.41799
3.41909
3.43067
3.43155
3.44117
3.44191
3.45002
3.45065
3.45752
3.45805
3.46387
3.46432
3.46922
3.46959
3.47365
3.47396
3.47715
3.47737
3.47943
3.47961
3.4819
3.48208
3.48425
3.48442
3.48636
3.48652
3.48823
3.48836
3.48985
3.48996
3.49122
3.49131
3.49229
3.49234
3.49277
3.49273
3.49147
3.491
3.48255
3.46303
3.46045
3.41925
3.41376
3.32086
3.31701
3.31653
3.31643
3.31641
2.06904
2.43764
2.46055
2.65777
2.67156
2.80314
2.81274
2.91058
2.91772
2.99099
2.99599
3.04198
3.04602
3.09653
3.10061
3.14815
3.15191
3.1946
3.19794
3.23551
3.23845
3.27123
3.27378
3.3023
3.30453
3.32945
3.33143
3.35392
3.35592
3.38012
3.40183
3.40341
3.41799
3.41909
3.43067
3.43155
3.44117
3.44191
3.45002
3.45065
3.45752
3.45805
3.46387
3.46432
3.46922
3.46959
3.47365
3.47396
3.47715
3.47737
3.47943
3.47961
3.4819
3.48208
3.48425
3.48442
3.48636
3.48652
3.48823
3.48836
3.48985
3.48996
3.49122
3.49131
3.49229
3.49234
3.49277
3.49273
3.49147
3.491
3.48255
3.46303
3.46045
3.41926
3.41376
3.32087
3.31702
3.31653
3.31643
3.31641
2.24764
2.53012
2.57807
2.73513
2.76447
2.86913
2.88954
2.96719
2.98235
3.04041
3.05103
3.08783
3.09643
3.13638
3.14503
3.18269
3.19066
3.22448
3.23158
3.26136
3.26758
3.29356
3.29899
3.32159
3.32632
3.34609
3.3503
3.36819
3.37249
3.39256
3.41078
3.41418
3.42582
3.42815
3.43734
3.43922
3.44685
3.44842
3.45485
3.45617
3.46162
3.46275
3.46736
3.46831
3.4722
3.47299
3.47621
3.47685
3.47938
3.47984
3.48149
3.48188
3.48368
3.48408
3.48579
3.48615
3.4877
3.48802
3.48938
3.48966
3.49084
3.49108
3.49207
3.49227
3.49304
3.49316
3.49348
3.49338
3.49229
3.49124
3.48357
3.46764
3.46211
3.42919
3.41763
3.34555
3.33743
3.33609
3.33581
3.33575
2.41494
2.63199
2.69122
2.81761
2.85436
2.9385
2.96405
3.02631
3.04526
3.09172
3.10503
3.13481
3.14558
3.17749
3.18829
3.21841
3.22837
3.25544
3.26431
3.28814
3.29592
3.31672
3.3235
3.3416
3.34752
3.36335
3.36863
3.38302
3.38844
3.40507
3.42031
3.42462
3.43401
3.43694
3.4443
3.44665
3.45277
3.45473
3.45988
3.46154
3.4659
3.4673
3.471
3.47218
3.4753
3.47629
3.47886
3.47966
3.48169
3.48227
3.4836
3.48408
3.48553
3.48602
3.48739
3.48784
3.48908
3.48948
3.49057
3.49092
3.49186
3.49217
3.49296
3.49321
3.49382
3.49397
3.49421
3.49407
3.49311
3.49173
3.48492
3.47182
3.46487
3.43826
3.42391
3.36768
3.35758
3.35561
3.35519
3.35509
2.57357
2.74016
2.80168
2.90366
2.94236
3.0102
3.03709
3.08715
3.10708
3.14436
3.15837
3.18254
3.19388
3.21944
3.23079
3.25493
3.2654
3.28712
3.29644
3.31557
3.32374
3.34044
3.34757
3.3621
3.36832
3.38104
3.38659
3.3982
3.40393
3.41764
3.43029
3.43486
3.44246
3.44554
3.45147
3.45394
3.45885
3.46091
3.46505
3.46679
3.47029
3.47177
3.47474
3.47598
3.47848
3.47952
3.48159
3.48243
3.48405
3.48467
3.48575
3.48625
3.48741
3.48793
3.48902
3.4895
3.49049
3.49092
3.49179
3.49216
3.49292
3.49323
3.49387
3.49413
3.49462
3.49477
3.49495
3.4948
3.49395
3.49244
3.48652
3.47577
3.46842
3.44685
3.43187
3.38797
3.3774
3.37507
3.37454
3.37443
2.72552
2.85254
2.91053
2.99225
3.02919
3.08355
3.1092
3.14921
3.1682
3.19793
3.2113
3.23079
3.24162
3.26196
3.27276
3.29201
3.30197
3.31929
3.32817
3.34343
3.35122
3.36454
3.37133
3.38293
3.38885
3.39901
3.4043
3.41361
3.41911
3.43025
3.44058
3.44498
3.45109
3.45403
3.45877
3.46113
3.46505
3.46701
3.47031
3.47197
3.47477
3.47618
3.47854
3.47973
3.48172
3.48271
3.48436
3.48516
3.48646
3.48704
3.48791
3.4884
3.48932
3.48981
3.49068
3.49114
3.49193
3.49233
3.49303
3.49338
3.49399
3.49429
3.4948
3.49504
3.49543
3.49557
3.4957
3.49555
3.49481
3.49333
3.48831
3.47957
3.47253
3.45517
3.44099
3.40692
3.39689
3.39446
3.39389
3.39376
2.8724
2.96768
3.01842
3.08263
3.11533
3.15804
3.18073
3.2121
3.22888
3.25215
3.26398
3.27939
3.28897
3.30487
3.3144
3.32945
3.33826
3.35181
3.35965
3.3716
3.37848
3.38891
3.3949
3.40398
3.40922
3.41718
3.42186
3.42918
3.43406
3.4429
3.45112
3.45503
3.45985
3.46245
3.46617
3.46825
3.47132
3.47306
3.47564
3.47711
3.4793
3.48054
3.4824
3.48344
3.485
3.48588
3.48717
3.48788
3.48889
3.48941
3.4901
3.49053
3.49124
3.49168
3.49236
3.49276
3.49338
3.49374
3.49428
3.4946
3.49507
3.49533
3.49573
3.49595
3.49625
3.49637
3.49647
3.49633
3.4957
3.49437
3.49026
3.48331
3.47706
3.46336
3.45091
3.4249
3.41608
3.41377
3.41321
3.41308
3.01546
3.08461
3.12578
3.17427
3.20106
3.23334
3.25192
3.27557
3.28931
3.30683
3.31653
3.32822
3.33607
3.34802
3.35582
3.36714
3.37435
3.38455
3.39097
3.39996
3.40559
3.41345
3.41835
3.42519
3.42948
3.43547
3.43931
3.44484
3.44885
3.45556
3.46182
3.46504
3.46869
3.47083
3.47363
3.47534
3.47765
3.47907
3.48102
3.48222
3.48387
3.48488
3.48628
3.48714
3.48831
3.48903
3.49
3.49058
3.49134
3.49177
3.49229
3.49264
3.49318
3.49353
3.49405
3.49438
3.49484
3.49514
3.49555
3.4958
3.49616
3.49638
3.49667
3.49685
3.49708
3.49718
3.49724
3.49712
3.49662
3.49551
3.49231
3.48702
3.48189
3.4715
3.46136
3.4422
3.43501
3.43302
3.43252
3.43241
3.15576
3.20265
3.23284
3.26678
3.28658
3.30918
3.32291
3.33945
3.34959
3.36182
3.36899
3.37721
3.38301
3.39134
3.3971
3.405
3.41032
3.41744
3.42218
3.42846
3.43262
3.4381
3.44173
3.4465
3.44967
3.45386
3.45669
3.46057
3.46353
3.46825
3.47265
3.47504
3.4776
3.47918
3.48114
3.4824
3.48401
3.48506
3.48642
3.48731
3.48846
3.48921
3.49019
3.49082
3.49164
3.49217
3.49285
3.49328
3.49381
3.49412
3.49449
3.49475
3.49512
3.49539
3.49575
3.49599
3.49631
3.49653
3.49681
3.497
3.49725
3.49741
3.49762
3.49775
3.49791
3.49798
3.49803
3.49793
3.49757
3.49673
3.49445
3.49073
3.48693
3.47964
3.47218
3.45903
3.45373
3.4522
3.45181
3.45172
3.29418
3.32136
3.33975
3.35986
3.37198
3.38537
3.39378
3.40357
3.40978
3.41702
3.42141
3.42629
3.42984
3.43477
3.43829
3.44296
3.44622
3.45043
3.45333
3.45705
3.45959
3.46283
3.46505
3.46788
3.46981
3.47229
3.47403
3.47633
3.47815
3.48094
3.48356
3.48502
3.48654
3.48751
3.48867
3.48944
3.4904
3.49104
3.49185
3.49239
3.49307
3.49353
3.49411
3.4945
3.49498
3.4953
3.49571
3.49597
3.49628
3.49647
3.49669
3.49685
3.49707
3.49723
3.49745
3.49759
3.49779
3.49792
3.49809
3.4982
3.49835
3.49845
3.49857
3.49865
3.49874
3.49879
3.49881
3.49876
3.49853
3.49802
3.49665
3.49443
3.4921
3.48778
3.48322
3.47553
3.4723
3.47134
3.47109
3.47103
3.43151
3.44042
3.44659
3.45325
3.45733
3.46177
3.4646
3.46784
3.46993
3.47233
3.4738
3.47542
3.47662
3.47825
3.47943
3.48098
3.48208
3.48347
3.48445
3.48568
3.48653
3.48761
3.48835
3.48929
3.48994
3.49076
3.49135
3.49211
3.49272
3.49365
3.49452
3.49501
3.49551
3.49584
3.49622
3.49648
3.4968
3.49701
3.49728
3.49746
3.49769
3.49784
3.49803
3.49817
3.49833
3.49844
3.49857
3.49866
3.49876
3.49882
3.4989
3.49895
3.49902
3.49908
3.49915
3.4992
3.49926
3.49931
3.49936
3.4994
3.49945
3.49948
3.49952
3.49955
3.49958
3.4996
3.4996
3.49958
3.49951
3.49934
3.49888
3.49814
3.49736
3.49592
3.49439
3.49186
3.49078
3.49045
3.49036
3.49035
3.43197
3.4403
3.44564
3.45067
3.45341
3.45592
3.45732
3.45867
3.45942
3.46016
3.46068
3.46135
3.46183
3.46245
3.46289
3.46345
3.46384
3.46434
3.46469
3.46514
3.46545
3.46584
3.46612
3.46647
3.46671
3.46701
3.46723
3.46751
3.46774
3.46808
3.46839
3.46856
3.46874
3.46885
3.46898
3.46906
3.46916
3.46923
3.46931
3.46937
3.46944
3.46948
3.46954
3.46957
3.46962
3.46965
3.46968
3.4697
3.46973
3.46974
3.46976
3.46977
3.46979
3.4698
3.46981
3.46982
3.46982
3.46983
3.46982
3.46982
3.46981
3.46979
3.46976
3.46973
3.46966
3.46959
3.46946
3.46931
3.46899
3.46851
3.46746
3.46599
3.46467
3.4625
3.4604
3.45711
3.45571
3.45529
3.45518
3.45515
3.29557
3.32101
3.33693
3.35212
3.36025
3.3678
3.37195
3.37602
3.37827
3.3805
3.38203
3.38407
3.3855
3.38737
3.38867
3.39035
3.39152
3.39303
3.39407
3.39541
3.39634
3.39753
3.39835
3.3994
3.40012
3.40105
3.40169
3.40254
3.40321
3.40423
3.40517
3.40569
3.40622
3.40655
3.40693
3.40718
3.40749
3.40769
3.40794
3.40811
3.40831
3.40844
3.40861
3.40872
3.40885
3.40894
3.40904
3.40911
3.40919
3.40923
3.40928
3.40932
3.40937
3.4094
3.40943
3.40945
3.40947
3.40948
3.40947
3.40946
3.40942
3.40937
3.40928
3.40918
3.40899
3.40878
3.40839
3.40792
3.40696
3.40556
3.40239
3.39798
3.39405
3.38749
3.38124
3.37126
3.36708
3.36584
3.36553
3.36545
3.15815
3.20211
3.22825
3.25384
3.26711
3.27981
3.28659
3.29345
3.29712
3.30086
3.30337
3.30681
3.30915
3.31231
3.31443
3.31728
3.31918
3.32173
3.32344
3.32571
3.32722
3.32924
3.33058
3.33235
3.33353
3.33509
3.33614
3.33758
3.33867
3.34039
3.34198
3.34282
3.34371
3.34424
3.34489
3.34531
3.34582
3.34615
3.34657
3.34684
3.34718
3.3474
3.34768
3.34786
3.34808
3.34823
3.3484
3.34851
3.34865
3.34872
3.34881
3.34886
3.34894
3.34899
3.34905
3.34909
3.34912
3.34913
3.34912
3.3491
3.34903
3.34896
3.3488
3.34863
3.34832
3.34798
3.34732
3.34656
3.34496
3.34268
3.33737
3.32994
3.32353
3.31246
3.30224
3.28518
3.27834
3.27637
3.27586
3.27575
3.01897
3.08392
3.11959
3.15606
3.17399
3.19206
3.20122
3.211
3.21596
3.22128
3.22466
3.22959
3.23276
3.23729
3.24016
3.24424
3.24682
3.25047
3.25278
3.25603
3.25809
3.26097
3.26278
3.26532
3.26692
3.26915
3.27058
3.27263
3.27411
3.27655
3.27881
3.27994
3.28121
3.28193
3.28286
3.28342
3.28416
3.28461
3.28521
3.28558
3.28606
3.28636
3.28676
3.287
3.28732
3.28752
3.28777
3.28792
3.28811
3.28821
3.28833
3.28841
3.28852
3.28859
3.28868
3.28872
3.28877
3.28878
3.28877
3.28874
3.28865
3.28854
3.28832
3.2881
3.28764
3.28719
3.28625
3.28523
3.28298
3.27993
3.27243
3.26187
3.2532
3.23741
3.2235
3.19869
3.1894
3.18683
3.18619
3.18604
2.8772
2.9669
3.0109
3.05902
3.08086
3.10467
3.11583
3.12875
3.13479
3.14177
3.14589
3.15245
3.15632
3.16233
3.16585
3.17126
3.17442
3.17926
3.18209
3.18641
3.18892
3.19275
3.19496
3.19833
3.20028
3.20325
3.20499
3.20771
3.2095
3.21273
3.21568
3.21707
3.21873
3.21962
3.22085
3.22153
3.22251
3.22306
3.22386
3.2243
3.22495
3.22532
3.22585
3.22614
3.22657
3.2268
3.22714
3.22732
3.22757
3.2277
3.22786
3.22795
3.2281
3.22818
3.2283
3.22835
3.22842
3.22843
3.22842
3.22838
3.22826
3.22814
3.22784
3.22757
3.22697
3.22642
3.22519
3.22395
3.22103
3.21735
3.20762
3.19371
3.18316
3.16227
3.14521
3.11158
3.10019
3.09722
3.09649
3.09633
2.73184
2.8517
2.90204
2.96303
2.98766
3.01778
3.03037
3.04677
3.05358
3.06238
3.06703
3.07541
3.07979
3.08748
3.09145
3.09837
3.10194
3.10814
3.11133
3.11685
3.11969
3.12458
3.12709
3.1314
3.1336
3.13739
3.13936
3.14282
3.14484
3.14891
3.15262
3.15417
3.15629
3.15728
3.15886
3.15963
3.16088
3.1615
3.16252
3.16302
3.16385
3.16426
3.16494
3.16527
3.16582
3.16608
3.16652
3.16672
3.16704
3.16718
3.16739
3.16749
3.16768
3.16778
3.16793
3.16799
3.16807
3.16809
3.16807
3.16803
3.16788
3.16773
3.16736
3.16705
3.16629
3.16567
3.16413
3.16274
3.15911
3.15501
3.14298
3.12543
3.11353
3.08699
3.06757
3.02357
3.01065
3.00751
3.00677
3.00661
2.58168
2.73929
2.79276
2.86849
2.89423
2.9316
2.94476
2.96518
2.9723
2.98315
2.98802
2.99853
3.00313
3.01277
3.01694
3.02562
3.02937
3.03713
3.04048
3.04741
3.05039
3.05652
3.05915
3.06455
3.06686
3.07161
3.07367
3.07799
3.0801
3.0851
3.08964
3.09126
3.09388
3.09493
3.0969
3.09771
3.09928
3.09993
3.1012
3.10173
3.10277
3.1032
3.10405
3.1044
3.10508
3.10536
3.1059
3.10612
3.10652
3.10667
3.10692
3.10703
3.10727
3.10737
3.10756
3.10762
3.10772
3.10774
3.10773
3.10768
3.10749
3.10734
3.10688
3.10656
3.10561
3.10497
3.10306
3.10162
3.09721
3.09299
3.07855
3.05691
3.04449
3.01142
2.99092
2.93433
2.92072
2.91771
2.91703
2.91688
2.42522
2.63104
2.68259
2.77595
2.80035
2.84638
2.85885
2.88411
2.89086
2.90416
2.90878
2.92189
2.92627
2.93828
2.94226
2.95306
2.95663
2.9663
2.96949
2.97812
2.98095
2.98859
2.9911
2.99782
3.00002
3.00593
3.0079
3.01325
3.01524
3.02132
3.02679
3.02831
3.03155
3.03254
3.03499
3.03575
3.03771
3.03833
3.03991
3.04042
3.04171
3.04212
3.04317
3.04351
3.04436
3.04463
3.0453
3.04551
3.04601
3.04615
3.04646
3.04656
3.04686
3.04696
3.04719
3.04725
3.04738
3.0474
3.04738
3.04734
3.0471
3.04696
3.04639
3.04608
3.04492
3.04431
3.04197
3.04062
3.0353
3.03138
3.01441
2.98803
2.97627
2.93535
2.91572
2.84336
2.83036
2.82782
2.82727
2.82715
2.26052
2.52897
2.57074
2.68617
2.70559
2.7625
2.77244
2.80379
2.80916
2.82551
2.8292
2.8456
2.84911
2.86411
2.86729
2.88079
2.88364
2.89573
2.89828
2.90906
2.91133
2.92088
2.92288
2.93128
2.93304
2.94041
2.94198
2.94864
2.95022
2.95756
2.96408
2.96529
2.9693
2.97009
2.97314
2.97375
2.97619
2.97669
2.97867
2.97907
2.98069
2.98101
2.98233
2.9826
2.98366
2.98387
2.98472
2.98488
2.98551
2.98562
2.986
2.98609
2.98647
2.98654
2.98683
2.98688
2.98704
2.98706
2.98704
2.987
2.98671
2.9866
2.98589
2.98565
2.98421
2.98372
2.98084
2.97978
2.97334
2.97029
2.95066
2.91857
2.90921
2.85842
2.84262
2.75002
2.73958
2.73785
2.73749
2.73741
2.08509
2.43596
2.45595
2.60024
2.60934
2.68051
2.68517
2.72451
2.72703
2.74738
2.74911
2.76983
2.77148
2.79042
2.79192
2.80895
2.81029
2.82554
2.82675
2.84034
2.84141
2.85346
2.8544
2.865
2.86583
2.87513
2.87587
2.88423
2.88497
2.89383
2.9016
2.90215
2.90718
2.90755
2.91139
2.91168
2.91475
2.91499
2.91749
2.91768
2.91971
2.91987
2.92153
2.92166
2.923
2.9231
2.92416
2.92424
2.92503
2.92508
2.92556
2.9256
2.92608
2.92611
2.92648
2.92651
2.92671
2.92672
2.92669
2.92668
2.92631
2.92626
2.92537
2.92526
2.92346
2.92323
2.91964
2.91915
2.91125
2.90986
2.88739
2.84819
2.84382
2.7801
2.77259
2.6534
2.64845
2.64782
2.6477
2.64767
)
;

boundaryField
{
    F1_1
    {
        type            fixedValue;
        value           nonuniform List<scalar> 
80
(
1.99059
2.39658
2.39658
2.56107
2.56107
2.6432
2.6432
2.69078
2.69078
2.72093
2.72093
2.73829
2.73829
2.75734
2.75734
2.7755
2.7755
2.7922
2.7922
2.80729
2.80729
2.82076
2.82076
2.83266
2.83266
2.84314
2.84314
2.85256
2.85256
2.86227
2.87071
2.87071
2.87638
2.87638
2.88072
2.88072
2.8842
2.8842
2.88703
2.88703
2.88934
2.88934
2.89122
2.89122
2.89274
2.89274
2.89394
2.89394
2.89484
2.89484
2.89538
2.89538
2.89592
2.89592
2.89634
2.89634
2.89657
2.89657
2.89653
2.89653
2.89612
2.89612
2.8951
2.8951
2.89306
2.89306
2.88899
2.88899
2.88007
2.88007
2.8561
2.81231
2.81231
2.73981
2.73981
2.6028
2.6028
2.6028
2.6028
2.6028
)
;
    }
    F1_2
    {
        type            fixedValue;
        value           nonuniform List<scalar> 
80
(
1.97236
2.39831
2.39831
2.62275
2.62275
2.77257
2.77257
2.88408
2.88408
2.96765
2.96765
3.01988
3.01988
3.07752
3.07752
3.13176
3.13176
3.18044
3.18044
3.22328
3.22328
3.26066
3.26066
3.29317
3.29317
3.32158
3.32158
3.34718
3.34718
3.37395
3.39776
3.39776
3.41435
3.41435
3.42754
3.42754
3.43851
3.43851
3.44776
3.44776
3.45559
3.45559
3.46223
3.46223
3.46782
3.46782
3.47245
3.47245
3.4761
3.4761
3.47843
3.47843
3.48104
3.48104
3.48351
3.48351
3.48573
3.48573
3.48769
3.48769
3.48938
3.48938
3.49081
3.49081
3.49193
3.49193
3.49243
3.49243
3.49105
3.49105
3.48226
3.46039
3.46039
3.41358
3.41358
3.30674
3.30674
3.30674
3.30674
3.30674
)
;
    }
    F1_3
    {
        type            fixedValue;
        value           nonuniform List<scalar> 
80
(
1.97236
2.39831
2.39831
2.62275
2.62275
2.77257
2.77257
2.88408
2.88408
2.96764
2.96764
3.01988
3.01988
3.07752
3.07752
3.13176
3.13176
3.18044
3.18044
3.22328
3.22328
3.26066
3.26066
3.29317
3.29317
3.32158
3.32158
3.34718
3.34718
3.37395
3.39776
3.39776
3.41435
3.41435
3.42754
3.42754
3.43851
3.43851
3.44776
3.44776
3.45559
3.45559
3.46223
3.46223
3.46782
3.46782
3.47245
3.47245
3.4761
3.4761
3.47843
3.47843
3.48104
3.48104
3.48351
3.48351
3.48573
3.48573
3.48769
3.48769
3.48938
3.48938
3.49081
3.49081
3.49193
3.49193
3.49243
3.49243
3.49105
3.49105
3.48226
3.46039
3.46039
3.41358
3.41358
3.30674
3.30674
3.30674
3.30674
3.30674
)
;
    }
    F1_4
    {
        type            fixedValue;
        value           nonuniform List<scalar> 
80
(
1.99035
2.39607
2.39607
2.55997
2.55997
2.64084
2.64084
2.6856
2.6856
2.70868
2.70868
2.73232
2.73232
2.75392
2.75392
2.77334
2.77334
2.79073
2.79073
2.80624
2.80624
2.81997
2.81997
2.83205
2.83205
2.84266
2.84266
2.85218
2.85218
2.86198
2.8705
2.8705
2.87621
2.87621
2.88059
2.88059
2.88409
2.88409
2.88694
2.88694
2.88927
2.88927
2.89116
2.89116
2.89269
2.89269
2.8939
2.8939
2.89481
2.89481
2.89535
2.89535
2.89589
2.89589
2.89632
2.89632
2.89655
2.89655
2.89652
2.89652
2.89611
2.89611
2.89509
2.89509
2.89305
2.89305
2.88898
2.88898
2.88007
2.88007
2.8561
2.8123
2.8123
2.73981
2.73981
2.6028
2.6028
2.6028
2.6028
2.6028
)
;
    }
    F2_1
    {
        type            fixedValue;
        value           uniform 3.5;
    }
    F2_2
    {
        type            fixedValue;
        value           uniform 3.5;
    }
    F2_3
    {
        type            fixedValue;
        value           uniform 3.5;
    }
    F2_4
    {
        type            fixedValue;
        value           uniform 3.5;
    }
    defaultFaces
    {
        type            empty;
    }
}


// ************************************************************************* //
