/*--------------------------------*- C++ -*----------------------------------*\
| =========                 |                                                 |
| \\      /  F ield         | OpenFOAM: The Open Source CFD Toolbox           |
|  \\    /   O peration     | Version:  5.x                                   |
|   \\  /    A nd           | Web:      www.OpenFOAM.org                      |
|    \\/     M anipulation  |                                                 |
\*---------------------------------------------------------------------------*/
FoamFile
{
    version     2.0;
    format      ascii;
    class       volScalarField;
    location    "19.2";
    object      gradTx;
}
// * * * * * * * * * * * * * * * * * * * * * * * * * * * * * * * * * * * * * //

dimensions      [0 -1 0 1 0 0 0];

internalField   nonuniform List<scalar> 
6300
(
-31.9556
-32.0263
-32.1671
-32.3764
-32.6521
-32.991
-33.3889
-33.8403
-34.3385
-34.8755
-35.4418
-36.0272
-36.6205
-37.2105
-37.7865
-31.8849
-31.9563
-32.0985
-32.31
-32.5889
-32.932
-33.3353
-33.7934
-34.2997
-34.846
-35.4228
-36.0193
-36.6238
-37.2245
-37.8099
-31.7428
-31.8155
-31.9604
-32.1763
-32.4614
-32.8128
-33.2269
-33.6984
-34.2209
-34.7861
-35.3841
-36.0033
-36.631
-37.2537
-37.8584
-31.5279
-31.6025
-31.7513
-31.9735
-32.2674
-32.631
-33.0609
-33.5525
-34.0994
-34.6934
-35.3241
-35.9789
-36.643
-37.3009
-37.9365
-31.2384
-31.3153
-31.4689
-31.6987
-32.0039
-32.3829
-32.8333
-33.3511
-33.9308
-34.5641
-35.2401
-35.945
-36.6615
-37.3702
-38.0509
-30.872
-30.9513
-31.1102
-31.3486
-31.6665
-32.0634
-32.5382
-33.088
-33.7084
-34.3919
-35.1273
-35.8993
-36.6877
-37.4678
-38.2122
-30.4262
-30.5079
-30.6719
-30.9189
-31.25
-31.6662
-32.1679
-32.7544
-33.423
-34.1677
-34.978
-35.8374
-36.7222
-37.6009
-38.4358
-29.8985
-29.9822
-30.1505
-30.4051
-30.7484
-31.1833
-31.7127
-32.3387
-33.0615
-33.878
-34.7797
-35.7502
-36.7627
-37.7778
-38.7429
-29.2872
-29.3719
-29.5428
-29.8025
-30.1552
-30.606
-31.161
-31.8262
-32.6063
-33.5031
-34.5126
-35.6211
-36.8007
-38.0046
-39.1616
-28.5912
-28.6755
-28.8461
-29.1069
-29.4637
-29.9246
-30.4992
-31.1987
-32.0344
-33.0157
-34.1467
-35.4209
-36.8147
-38.2783
-39.7236
-27.8107
-27.8927
-28.0592
-28.3152
-28.6683
-29.1294
-29.7126
-30.4352
-31.317
-32.3788
-33.6377
-35.1014
-36.759
-38.5705
-40.4496
-26.9481
-27.0255
-27.1829
-27.4263
-27.7649
-28.2122
-28.7866
-29.5124
-30.4199
-31.5448
-32.9242
-34.5885
-36.55
-38.7959
-41.2963
-26.0082
-26.078
-26.2206
-26.4421
-26.7528
-27.1679
-27.7094
-28.408
-29.3056
-30.4568
-31.9265
-33.7798
-36.0588
-38.7699
-41.9985
-24.9985
-25.0578
-25.1793
-25.3687
-25.6363
-25.9973
-26.4751
-27.1048
-27.9382
-29.0508
-30.5467
-32.5488
-35.1429
-38.2401
-41.6603
-23.9294
-23.9754
-24.0698
-24.2174
-24.4263
-24.7099
-25.0892
-25.5981
-26.2918
-27.2625
-28.6633
-30.7338
-33.7454
-37.437
-38.1409
-38.2953
-38.7349
-39.1503
-39.5397
-39.902
-40.2373
-40.5459
-40.8283
-41.0847
-41.315
-41.5186
-41.6945
-41.8417
-41.9594
-42.0474
-42.1068
-42.1392
-42.1479
-42.1364
-42.1091
-42.0703
-42.0236
-41.9722
-41.9177
-41.8606
-41.8004
-41.7356
-41.6642
-41.5844
-41.4946
-41.3943
-41.2839
-41.1647
-41.039
-40.9096
-40.7796
-40.6514
-40.5269
-40.407
-40.2915
-40.1791
-40.0681
-39.956
-39.8406
-39.7202
-39.5938
-39.4616
-39.3247
-39.1849
-39.0448
-38.9069
-38.7734
-38.646
-38.5254
-38.4111
-38.302
-38.196
-38.0909
-37.9845
-37.875
-37.7615
-37.644
-37.5235
-37.4018
-37.2812
-37.1641
-37.0527
-36.9485
-36.8522
-36.7635
-36.6815
-36.6045
-36.5306
-36.4582
-36.3864
-36.3149
-36.2448
-36.1784
-36.1186
-36.0693
-36.0346
-36.0182
-36.023
-36.0507
-36.1014
-36.1736
-36.2638
-36.367
-36.4772
-36.5874
-38.3256
-38.7696
-39.1879
-39.5785
-39.941
-40.2757
-40.5836
-40.8657
-41.1223
-41.3536
-41.5586
-41.7359
-41.8842
-42.002
-42.0889
-42.1454
-42.1736
-42.1768
-42.1592
-42.1257
-42.0814
-42.0306
-41.9766
-41.9213
-41.8651
-41.807
-41.745
-41.6764
-41.5987
-41.5098
-41.409
-41.2965
-41.174
-41.0442
-40.9107
-40.7769
-40.646
-40.5203
-40.4007
-40.2869
-40.1773
-40.0696
-39.9607
-39.8478
-39.7287
-39.6023
-39.4685
-39.3288
-39.1855
-39.0416
-38.9005
-38.7647
-38.6363
-38.5162
-38.4037
-38.2974
-38.1947
-38.0928
-37.9889
-37.8808
-37.7673
-37.6484
-37.5253
-37.4003
-37.2762
-37.156
-37.0423
-36.9371
-36.8411
-36.754
-36.6743
-36.5999
-36.5284
-36.4575
-36.3858
-36.3129
-36.2397
-36.1687
-36.1034
-36.0484
-36.0083
-35.9877
-35.99
-36.0175
-36.0706
-36.1476
-36.245
-36.3571
-36.4771
-36.5973
-38.3884
-38.8416
-39.2653
-39.658
-40.02
-40.3528
-40.6587
-40.9395
-41.1966
-41.4299
-41.6382
-41.8193
-41.9705
-42.0892
-42.1739
-42.2249
-42.2441
-42.2356
-42.2047
-42.1581
-42.102
-42.0422
-41.9829
-41.9263
-41.8724
-41.8193
-41.7638
-41.7017
-41.6289
-41.5424
-41.4404
-41.3235
-41.1937
-41.0549
-40.9121
-40.7701
-40.6333
-40.5048
-40.386
-40.2761
-40.173
-40.0727
-39.9711
-39.8639
-39.7479
-39.6212
-39.4839
-39.338
-39.1867
-39.0346
-38.8862
-38.7454
-38.6149
-38.4958
-38.3875
-38.2875
-38.1923
-38.0976
-37.9993
-37.8943
-37.7808
-37.6587
-37.5298
-37.3974
-37.2655
-37.1384
-37.0199
-36.9125
-36.8173
-36.7337
-36.6594
-36.5912
-36.5253
-36.4581
-36.3871
-36.3112
-36.2314
-36.1507
-36.0736
-36.0059
-35.9541
-35.924
-35.9208
-35.9475
-36.0052
-36.0924
-36.2048
-36.3358
-36.4769
-36.6184
-38.489
-38.9561
-39.3872
-39.7816
-40.1409
-40.4689
-40.7698
-41.0477
-41.3051
-41.5423
-41.7572
-41.9459
-42.1035
-42.2252
-42.3077
-42.3502
-42.3547
-42.3264
-42.2732
-42.2039
-42.1279
-42.0531
-41.9853
-41.9272
-41.8784
-41.8352
-41.7922
-41.7424
-41.6791
-41.5971
-41.4936
-41.3689
-41.2263
-41.0716
-40.9122
-40.7557
-40.6086
-40.4755
-40.3583
-40.2559
-40.1643
-40.0778
-39.9896
-39.8928
-39.7824
-39.6554
-39.5119
-39.3547
-39.1893
-39.0224
-38.861
-38.7111
-38.5769
-38.4601
-38.3593
-38.2709
-38.1892
-38.1075
-38.0195
-37.9202
-37.8066
-37.6788
-37.5395
-37.3937
-37.2479
-37.1085
-36.9813
-36.8703
-36.7769
-36.6999
-36.6358
-36.5792
-36.524
-36.4642
-36.3952
-36.3151
-36.2246
-36.1274
-36.03
-35.9407
-35.8684
-35.8218
-35.8083
-35.8329
-35.8975
-36.0009
-36.1379
-36.3
-36.476
-36.6529
-38.636
-39.1223
-39.5622
-39.9557
-40.3071
-40.6237
-40.914
-41.1854
-41.4428
-41.6867
-41.9139
-42.1173
-42.2882
-42.4178
-42.4993
-42.53
-42.5123
-42.4534
-42.3646
-42.2595
-42.1521
-42.054
-41.9738
-41.915
-41.8761
-41.8511
-41.8303
-41.8024
-41.7561
-41.6827
-41.5773
-41.4401
-41.2762
-41.0951
-40.9083
-40.7277
-40.5638
-40.4234
-40.3094
-40.2198
-40.1484
-40.0855
-40.0202
-39.9415
-39.8408
-39.7134
-39.5594
-39.3834
-39.1941
-39.0023
-38.8191
-38.6542
-38.5141
-38.4011
-38.3133
-38.2446
-38.1859
-38.1265
-38.0561
-37.9664
-37.8529
-37.7154
-37.5585
-37.3902
-37.2209
-37.061
-36.9195
-36.8027
-36.7127
-36.6476
-36.6014
-36.5654
-36.5293
-36.4833
-36.4196
-36.334
-36.2272
-36.1044
-35.975
-35.851
-35.7457
-35.6721
-35.641
-35.6605
-35.7341
-35.8609
-36.0347
-36.2442
-36.4738
-36.7052
-38.8434
-39.3551
-39.8039
-40.1905
-40.5235
-40.8165
-41.0853
-41.3435
-41.5997
-41.8554
-42.1047
-42.3356
-42.5325
-42.6795
-42.764
-42.7798
-42.7293
-42.6233
-42.4794
-42.3187
-42.1626
-42.0294
-41.9315
-41.874
-41.8539
-41.8608
-41.8787
-41.8888
-41.8723
-41.8144
-41.7068
-41.5495
-41.3511
-41.1268
-40.8953
-40.6759
-40.4849
-40.3333
-40.2254
-40.1577
-40.12
-40.0968
-40.07
-40.0217
-39.9377
-39.8099
-39.6384
-39.4312
-39.2024
-38.9696
-38.751
-38.5617
-38.412
-38.3059
-38.2398
-38.2039
-38.1836
-38.1615
-38.1205
-38.0471
-37.9336
-37.78
-37.5938
-37.3883
-37.1803
-36.9868
-36.8223
-36.6965
-36.6128
-36.5679
-36.5523
-36.5516
-36.549
-36.528
-36.4753
-36.3836
-36.2529
-36.091
-35.912
-35.7342
-35.5775
-35.461
-35.4011
-35.41
-35.494
-35.6533
-35.8802
-36.1596
-36.4692
-36.7821
-39.1324
-39.6788
-40.1349
-40.5026
-40.7973
-41.0443
-41.2718
-41.5044
-41.7573
-42.0332
-42.322
-42.6029
-42.8487
-43.0313
-43.1275
-43.1251
-43.0262
-42.848
-42.6183
-42.3712
-42.1402
-41.9538
-41.831
-41.7791
-41.7927
-41.8546
-41.9385
-42.0134
-42.0483
-42.0178
-41.9077
-41.7182
-41.4634
-41.1688
-40.865
-40.5831
-40.3491
-40.1805
-40.0835
-40.0524
-40.0707
-40.1134
-40.1508
-40.1535
-40.0975
-39.9693
-39.769
-39.5101
-39.2163
-38.9168
-38.6405
-38.412
-38.2475
-38.1529
-38.1227
-38.1409
-38.1839
-38.2235
-38.2316
-38.1854
-38.0721
-37.8917
-37.6568
-37.3901
-37.1189
-36.871
-36.6694
-36.5296
-36.457
-36.4462
-36.4817
-36.5405
-36.5951
-36.6182
-36.5873
-36.4893
-36.3236
-36.1022
-35.8474
-35.5871
-35.3513
-35.1683
-35.0623
-35.0512
-35.1458
-35.3481
-35.6501
-36.0314
-36.4599
-36.8947
-39.5363
-40.1327
-40.5931
-40.9196
-41.14
-41.3001
-41.4509
-41.636
-41.8819
-42.1926
-42.5506
-42.9206
-43.256
-43.5075
-43.6331
-43.6091
-43.4376
-43.1465
-42.7826
-42.4005
-42.0537
-41.7865
-41.6284
-41.59
-41.6621
-41.8165
-42.0113
-42.1957
-42.3183
-42.3358
-42.2232
-41.9806
-41.6332
-41.2238
-40.8033
-40.4214
-40.1193
-39.9245
-39.8465
-39.876
-39.9864
-40.1376
-40.2816
-40.3697
-40.3612
-40.2326
-39.984
-39.6392
-39.2387
-38.8304
-38.4613
-38.17
-37.9824
-37.9072
-37.9357
-38.0424
-38.1892
-38.3308
-38.4207
-38.4204
-38.3074
-38.0817
-37.7658
-37.3981
-37.0241
-36.6883
-36.4274
-36.2659
-36.2123
-36.2577
-36.3776
-36.5354
-36.6867
-36.7863
-36.7959
-36.6924
-36.4743
-36.1617
-35.7905
-35.4046
-35.049
-34.765
-34.5867
-34.5402
-34.6423
-34.8997
-35.3057
-35.8351
-36.4415
-37.0608
-40.1058
-40.7823
-41.244
-41.4894
-41.5695
-41.569
-41.5805
-41.6802
-41.913
-42.2839
-42.7621
-43.2881
-43.7842
-44.165
-44.3543
-44.3057
-44.021
-43.5501
-42.9729
-42.379
-41.8526
-41.4622
-41.2532
-41.242
-41.4127
-41.7205
-42.099
-42.4671
-42.7395
-42.841
-42.7258
-42.3942
-41.8922
-41.2947
-40.6859
-40.1447
-39.7352
-39.5002
-39.4546
-39.5832
-39.8434
-40.1721
-40.4928
-40.7251
-40.798
-40.6687
-40.3376
-39.8485
-39.2721
-38.6878
-38.1699
-37.779
-37.5551
-37.5124
-37.6361
-37.886
-38.2022
-38.5123
-38.7399
-38.8177
-38.7048
-38.4016
-37.9494
-37.4152
-36.8744
-36.3976
-36.0424
-35.8471
-35.8248
-35.9617
-36.2192
-36.5395
-36.8527
-37.0841
-37.1673
-37.0606
-36.7612
-36.3056
-35.7548
-35.1785
-34.6439
-34.2092
-33.9214
-33.8153
-33.9151
-34.2371
-34.7835
-35.5281
-36.4047
-37.3097
-40.9176
-41.741
-42.2064
-42.2972
-42.1146
-41.8208
-41.5827
-41.5328
-41.7451
-42.2208
-42.9044
-43.6988
-44.4784
-45.0983
-45.418
-45.3424
-44.8727
-44.1068
-43.1872
-42.2605
-41.4557
-40.8766
-40.5933
-40.6322
-40.9657
-41.5229
-42.2015
-42.8763
-43.4068
-43.6584
-43.5401
-43.0529
-42.2887
-41.3821
-40.4714
-39.6781
-39.0999
-38.8031
-38.8122
-39.1007
-39.6016
-40.218
-40.8315
-41.3098
-41.5261
-41.3952
-40.9186
-40.1835
-39.3169
-38.4494
-37.6956
-37.1473
-36.8671
-36.878
-37.1548
-37.634
-38.224
-38.8127
-39.2747
-39.4895
-39.3763
-38.9359
-38.251
-37.4419
-36.6325
-35.9318
-35.4274
-35.1788
-35.2083
-35.4922
-35.9701
-36.5541
-37.1364
-37.5952
-37.8123
-37.7062
-37.2731
-36.5865
-35.7557
-34.8925
-34.0947
-33.4419
-32.9945
-32.7938
-32.8681
-33.2515
-33.9761
-35.0309
-36.327
-37.6909
-42.0808
-43.2146
-43.7086
-43.4991
-42.82
-41.9919
-41.3134
-41.0081
-41.1975
-41.8585
-42.887
-44.1311
-45.4024
-46.4638
-47.051
-46.9464
-46.1512
-44.8848
-43.4116
-41.9664
-40.7341
-39.8649
-39.4693
-39.5983
-40.1966
-41.1505
-42.3097
-43.4932
-44.4759
-45.0083
-44.8858
-44.1104
-42.8903
-41.4754
-40.0876
-38.9017
-38.0595
-37.6654
-37.7672
-38.3126
-39.1936
-40.268
-41.3649
-42.2718
-42.754
-42.6197
-41.872
-40.7077
-39.3631
-38.0474
-36.9251
-36.1298
-35.7599
-35.8605
-36.382
-37.2225
-38.2477
-39.2956
-40.1653
-40.6339
-40.5189
-39.8225
-38.7314
-37.469
-36.2341
-35.1833
-34.4439
-34.1101
-34.2254
-34.7435
-35.5681
-36.5712
-37.598
-38.4542
-38.9227
-38.8228
-38.15
-37.0752
-35.8033
-34.5124
-33.3366
-32.3789
-31.7122
-31.3764
-31.376
-31.7745
-32.6933
-34.1861
-36.1515
-38.2921
-43.7201
-45.6069
-46.2229
-45.3791
-43.7413
-41.9471
-40.5061
-39.7705
-39.9706
-40.967
-42.5591
-44.5241
-46.6286
-48.5122
-49.6803
-49.5451
-48.108
-45.9608
-43.5957
-41.3657
-39.4896
-38.171
-37.5902
-37.8885
-38.9154
-40.4824
-42.3827
-44.3992
-46.1935
-47.3013
-47.1715
-45.8084
-43.7725
-41.5295
-39.4132
-37.6305
-36.3737
-35.8136
-36.0837
-37.0411
-38.5071
-40.2858
-42.1717
-43.8453
-44.8698
-44.7277
-43.4249
-41.4918
-39.3677
-37.3669
-35.6838
-34.4997
-33.9753
-34.237
-35.1498
-36.5453
-38.2384
-40.0353
-41.6336
-42.6186
-42.4985
-41.2777
-39.4582
-37.4565
-35.5708
-33.9864
-32.8763
-32.3945
-32.6625
-33.5535
-34.909
-36.5542
-38.3051
-39.8715
-40.8516
-40.7644
-39.6058
-37.8476
-35.8781
-33.9665
-32.2646
-30.897
-29.9532
-29.4761
-29.3093
-29.5482
-30.584
-32.6607
-35.7236
-39.2775
-45.8199
-49.8175
-50.8277
-48.405
-44.896
-41.3945
-38.6824
-37.1848
-37.5967
-39.2174
-41.6942
-44.7163
-48.1727
-51.591
-54.1865
-54.0186
-51.0872
-47.3507
-43.5852
-40.2553
-37.4424
-35.415
-34.4449
-35.1297
-36.8564
-39.3346
-42.2883
-45.6253
-48.8994
-51.3766
-51.2332
-48.4751
-44.953
-41.4013
-38.2584
-35.6018
-33.685
-32.766
-33.4105
-35.037
-37.3706
-40.1491
-43.2842
-46.3535
-48.6656
-48.5069
-45.8857
-42.5508
-39.1948
-36.2287
-33.7242
-31.9196
-31.0586
-31.6759
-33.2225
-35.4394
-38.0797
-41.0611
-43.9848
-46.195
-46.0629
-43.5951
-40.4475
-37.2768
-34.4735
-32.1066
-30.4041
-29.5992
-30.2025
-31.6947
-33.8325
-36.385
-39.278
-42.133
-44.3175
-44.2488
-41.9249
-38.9243
-35.8696
-33.1187
-30.711
-28.805
-27.5223
-27.1288
-26.6585
-26.1743
-26.9759
-29.7152
-34.5888
-40.9784
-47.3393
-58.3042
-60.3096
-52.9681
-46.0599
-39.7159
-35.1123
-31.8496
-33.482
-36.235
-40.0442
-44.2829
-49.7717
-55.8546
-62.6722
-62.4715
-55.2258
-48.7826
-42.9473
-38.4007
-34.2639
-31.1363
-28.9167
-30.8708
-33.7151
-37.5019
-41.6422
-46.9418
-52.753
-59.2256
-59.0602
-52.2419
-46.1762
-40.6843
-36.4035
-32.5076
-29.5594
-27.4672
-29.323
-32.0149
-35.5933
-39.4989
-44.4916
-49.9519
-56.0194
-55.8319
-49.3741
-43.6405
-38.4603
-34.4257
-30.7566
-27.9807
-26.0132
-27.7765
-30.3301
-33.7237
-37.4297
-42.17
-47.3634
-53.1441
-52.9909
-46.8911
-41.4701
-36.5683
-32.7478
-29.27
-26.6392
-24.7762
-26.4624
-28.9063
-32.1589
-35.7257
-40.3054
-45.3602
-51.0278
-50.9808
-45.2183
-40.0788
-35.4238
-31.7768
-28.4348
-25.8154
-23.8111
-24.8921
-24.0276
-20.949
-20.5776
-23.6963
-31.271
-44.1093
-41.3295
-79.7613
-83.0145
-56.6666
-46.377
-35.5348
-29.6119
-19.4653
-27.7535
-31.7316
-37.7754
-42.0495
-50.515
-59.0603
-81.2641
-81.0692
-58.209
-49.3389
-40.4539
-35.956
-29.6321
-25.5502
-17.3782
-25.3299
-29.2166
-35.1601
-39.3267
-47.5215
-55.6543
-76.6332
-76.4672
-54.925
-46.573
-38.2234
-33.9945
-28.0488
-24.2012
-16.4834
-24.0315
-27.7162
-33.3447
-37.2834
-45.0257
-52.6759
-72.3803
-72.1863
-51.8199
-43.933
-36.0764
-32.0963
-26.5029
-22.8776
-15.5955
-22.7391
-26.2282
-31.5582
-35.2904
-42.6264
-49.8961
-68.6381
-68.4822
-49.2097
-41.7452
-34.3025
-30.5285
-25.2139
-21.7687
-14.8422
-21.6312
-24.9534
-30.0329
-33.6078
-40.6486
-47.7049
-65.9673
-65.9431
-47.6147
-40.5356
-33.5265
-29.9954
-25.1184
-21.9399
-15.6569
-25.457
-24.5851
-11.8252
-9.15337
-11.261
-20.3734
-50.2144
-36.6999
-36.8038
-36.8791
-36.9203
-36.9257
-36.8969
-36.8389
-36.7584
-36.6636
-36.563
-36.4649
-36.3767
-36.3049
-36.2543
-36.2281
-36.7198
-36.8325
-36.9132
-36.9562
-36.9597
-36.9263
-36.8613
-36.7727
-36.6693
-36.5605
-36.4549
-36.3605
-36.2837
-36.2298
-36.2019
-36.7621
-36.8932
-36.9851
-37.0314
-37.0308
-36.987
-36.9075
-36.8018
-36.6806
-36.5547
-36.4338
-36.3265
-36.2398
-36.1791
-36.1479
-36.8318
-36.993
-37.1027
-37.1535
-37.145
-37.0836
-36.9798
-36.8463
-36.6967
-36.5438
-36.399
-36.2719
-36.17
-36.099
-36.0626
-36.9379
-37.1442
-37.2794
-37.3347
-37.3123
-37.2227
-37.0817
-36.907
-36.7161
-36.5248
-36.3466
-36.192
-36.0693
-35.9844
-35.941
-37.0947
-37.3664
-37.5359
-37.5937
-37.5466
-37.4131
-37.2172
-36.9838
-36.7359
-36.4929
-36.2704
-36.0802
-35.9308
-35.8282
-35.776
-37.3256
-37.6907
-37.9042
-37.9575
-37.8675
-37.666
-37.3902
-37.0752
-36.7508
-36.4406
-36.162
-35.9275
-35.7455
-35.6215
-35.5588
-37.6685
-38.1668
-38.4328
-38.4646
-38.2997
-37.9934
-37.6025
-37.1759
-36.7515
-36.3565
-36.0095
-35.7223
-35.5022
-35.3536
-35.2788
-38.1873
-38.875
-39.1954
-39.1685
-38.8732
-38.4053
-37.8504
-37.2744
-36.7228
-36.2246
-35.7972
-35.4499
-35.1875
-35.0119
-34.9241
-38.994
-39.9507
-40.3054
-40.1406
-39.6195
-38.9041
-38.1194
-37.3484
-36.6406
-36.022
-35.5048
-35.0927
-34.7858
-34.5826
-34.4815
-40.2974
-41.6283
-41.935
-41.469
-40.5601
-39.4723
-38.3747
-37.3594
-36.469
-35.7182
-35.1071
-34.6303
-34.2805
-34.0512
-33.9378
-42.5186
-44.3301
-44.3373
-43.2403
-41.6795
-40.0505
-38.5476
-37.2453
-36.1581
-35.2745
-34.5753
-34.0408
-33.6546
-33.4039
-33.2806
-46.5967
-48.836
-47.8438
-45.4755
-42.8672
-40.5024
-38.5199
-36.9164
-35.6433
-34.6465
-33.8787
-33.3033
-32.893
-32.6293
-32.5002
-54.9115
-56.5734
-52.7265
-47.9507
-43.8114
-40.572
-38.1132
-36.2569
-34.8525
-33.7893
-32.9898
-32.4004
-31.985
-31.7199
-31.5907
-74.4917
-69.8196
-58.5381
-49.7892
-43.8558
-39.861
-37.1042
-35.1454
-33.7203
-32.6686
-31.8907
-31.3236
-30.9268
-30.6746
-30.5521
-22.907
-22.9389
-23.0041
-23.1056
-23.2487
-23.442
-23.7001
-24.0477
-24.5292
-25.2299
-26.327
-28.2225
-31.8905
-39.5786
-53.8625
-21.9554
-21.9735
-22.0101
-22.0661
-22.1433
-22.2446
-22.3753
-22.5454
-22.7749
-23.1078
-23.6533
-24.7318
-27.5048
-37.1476
-79.8006
-20.9912
-20.9952
-21.0025
-21.0119
-21.0212
-21.0267
-21.0232
-21.0019
-20.9488
-20.8381
-20.612
-20.0899
-18.5022
-11.8102
25.4826
-20.0242
-20.0145
-19.9935
-19.9578
-19.9016
-19.8153
-19.6836
-19.4807
-19.1626
-18.6477
-17.7746
-16.1976
-13.1834
-7.74001
-3.81537
-19.0639
-19.0416
-18.9946
-18.9179
-18.8029
-18.6355
-18.3934
-18.0397
-17.513
-16.7057
-15.422
-13.2909
-9.57492
-2.63076
13.4228
-18.1191
-18.0858
-18.0163
-17.9047
-17.7406
-17.5077
-17.1806
-16.7191
-16.0587
-15.0949
-13.6572
-11.4778
-8.20668
-3.85327
-1.98159
-17.1974
-17.155
-17.0673
-16.9278
-16.726
-16.4454
-16.0614
-15.5366
-14.8152
-13.8135
-12.4081
-10.4212
-7.58898
-3.35362
4.89382
-16.3051
-16.2557
-16.1541
-15.9942
-15.7661
-15.4551
-15.0398
-14.4906
-13.7663
-12.8127
-11.5632
-9.95111
-7.94539
-5.64034
-3.48372
-15.447
-15.3927
-15.2814
-15.1079
-14.8638
-14.537
-14.1114
-13.5663
-12.8769
-12.0173
-10.9702
-9.75442
-8.50956
-7.82401
-10.3635
-14.6266
-14.5691
-14.4519
-14.2707
-14.0189
-13.6876
-13.266
-12.7422
-12.1056
-11.3522
-10.4946
-9.57791
-8.68528
-7.76803
-5.05825
-13.8462
-13.787
-13.6669
-13.4825
-13.2291
-12.9009
-12.4915
-11.9964
-11.4155
-10.7596
-10.0599
-9.38475
-8.87811
-8.95688
-11.8198
-13.1068
-13.0471
-12.9264
-12.7422
-12.4914
-12.1704
-11.7766
-11.3101
-10.7775
-10.1973
-9.60812
-9.07458
-8.6644
-8.21229
-5.59162
-12.4089
-12.3495
-12.2299
-12.0482
-11.8024
-11.4906
-11.1121
-10.6697
-10.1725
-9.64135
-9.11772
-8.67877
-8.4798
-8.97367
-12.5217
-11.7523
-11.6939
-11.5764
-11.3987
-11.1593
-10.857
-10.4921
-10.0674
-9.59095
-9.0802
-8.5685
-8.11629
-7.81405
-7.61416
-5.50421
-11.1361
-11.0792
-10.9648
-10.792
-10.5597
-10.267
-9.91355
-9.50091
-9.03329
-8.51968
-7.97796
-7.44965
-7.07723
-7.58113
-13.4332
-10.5595
-10.5044
-10.3937
-10.2266
-10.0021
-9.719
-9.37613
-8.97262
-8.50754
-7.97868
-7.37811
-6.67474
-5.73185
-3.83415
3.36592
-10.0212
-9.96816
-9.86176
-9.70118
-9.48527
-9.21251
-8.88081
-8.48709
-8.02607
-7.48748
-6.84964
-6.06614
-5.04954
-3.76939
-3.62709
-9.51962
-9.46901
-9.36743
-9.21412
-9.00789
-8.74694
-8.42855
-8.04827
-7.59846
-7.06518
-6.42233
-5.61942
-4.55024
-2.91449
0.753464
-9.05322
-9.00526
-8.90901
-8.7638
-8.56849
-8.32126
-8.01926
-7.65775
-7.22879
-6.71897
-6.10616
-5.3576
-4.44439
-3.47087
-3.59364
-8.62013
-8.57504
-8.4846
-8.34828
-8.16513
-7.93362
-7.65128
-7.31405
-6.91529
-6.44427
-5.88426
-5.21012
-4.38043
-3.26595
-1.01606
-8.21834
-8.1763
-8.09206
-7.96527
-7.79535
-7.58128
-7.32142
-7.01308
-6.65196
-6.23137
-5.74161
-5.17068
-4.51423
-3.84952
-3.88604
-7.84575
-7.80687
-7.72905
-7.61223
-7.45622
-7.26073
-7.02522
-6.74877
-6.42992
-6.06651
-5.65532
-5.19063
-4.65377
-3.94613
-2.45989
-7.50017
-7.46446
-7.39314
-7.28639
-7.14451
-6.96798
-6.75745
-6.51389
-6.23884
-5.93481
-5.60618
-5.26069
-4.91193
-4.58343
-4.32312
-7.17939
-7.1468
-7.08183
-6.98493
-6.85688
-6.69884
-6.51261
-6.30089
-6.06789
-5.82021
-5.56875
-5.33303
-5.15601
-5.17339
-6.00557
-6.88124
-6.85162
-6.79268
-6.70512
-6.59006
-6.44928
-6.28546
-6.10268
-5.90712
-5.70823
-5.52039
-5.36462
-5.26509
-5.19751
-4.66338
-6.60367
-6.57679
-6.52342
-6.4444
-6.34111
-6.21572
-6.07149
-5.91333
-5.74866
-5.58858
-5.44977
-5.35714
-5.35198
-5.54561
-6.5528
-6.34476
-6.32036
-6.27198
-6.20053
-6.10752
-5.99524
-5.86718
-5.72852
-5.587
-5.45418
-5.34707
-5.28893
-5.30082
-5.32874
-4.71695
-6.10279
-6.08058
-6.03656
-5.97165
-5.88729
-5.78573
-5.67025
-5.5457
-5.4193
-5.30191
-5.21037
-5.17208
-5.23853
-5.55612
-6.88093
-5.87626
-5.85593
-5.81566
-5.75626
-5.67902
-5.58587
-5.4796
-5.36417
-5.24534
-5.13169
-5.0367
-4.9825
-5.00184
-5.08403
-4.55937
-5.66384
-5.64514
-5.60805
-5.55326
-5.48179
-5.39514
-5.29532
-5.18501
-5.06778
-4.94851
-4.83471
-4.74183
-4.72153
-5.03334
-7.27899
-5.46442
-5.44711
-5.41275
-5.36183
-5.2951
-5.21355
-5.11832
-5.01066
-4.89164
-4.76154
-4.61819
-4.45078
-4.21057
-3.63971
-1.1571
-5.27701
-5.26093
-5.22894
-5.18138
-5.11872
-5.04145
-4.94996
-4.84421
-4.7232
-4.58379
-4.41837
-4.21028
-3.92923
-3.57369
-3.71213
-5.10077
-5.08579
-5.05594
-5.01143
-4.95248
-4.87924
-4.79149
-4.68836
-4.56753
-4.42409
-4.24818
-4.02045
-3.69962
-3.16462
-1.80548
-4.93494
-4.92098
-4.89313
-4.8515
-4.79618
-4.72709
-4.64372
-4.54479
-4.42757
-4.28693
-4.11399
-3.89528
-3.61874
-3.32787
-3.51276
-4.77881
-4.76581
-4.73988
-4.70108
-4.64945
-4.58485
-4.50675
-4.41392
-4.30388
-4.17222
-4.01158
-3.81027
-3.5478
-3.16073
-2.2545
-4.6317
-4.61964
-4.59556
-4.55957
-4.51173
-4.45199
-4.38003
-4.295
-4.1952
-4.07763
-3.93743
-3.76773
-3.5634
-3.35412
-3.46082
-4.49298
-4.4818
-4.45952
-4.42629
-4.38227
-4.32762
-4.26238
-4.18633
-4.09887
-3.99877
-3.88375
-3.74924
-3.58243
-3.32807
-2.67854
-4.36202
-4.35167
-4.33109
-4.30049
-4.2602
-4.21062
-4.15223
-4.08558
-4.01132
-3.93027
-3.8436
-3.75319
-3.66226
-3.57645
-3.50785
-4.23825
-4.22866
-4.20962
-4.18143
-4.14458
-4.09973
-4.04782
-3.99012
-3.92849
-3.86568
-3.80605
-3.75751
-3.73854
-3.81288
-4.2895
-4.12115
-4.1122
-4.09449
-4.0684
-4.03452
-3.99376
-3.94742
-3.8974
-3.84649
-3.79887
-3.76081
-3.7413
-3.75001
-3.76994
-3.53477
-4.01025
-4.00183
-3.9852
-3.96077
-3.92924
-3.89166
-3.84958
-3.80529
-3.7622
-3.72544
-3.70267
-3.7055
-3.7537
-3.90415
-4.48405
-3.90521
-3.89717
-3.88131
-3.85807
-3.82816
-3.79268
-3.75327
-3.71234
-3.67353
-3.64228
-3.62676
-3.6382
-3.68638
-3.74013
-3.44007
-3.80574
-3.79795
-3.78256
-3.76
-3.73095
-3.69645
-3.65802
-3.61794
-3.57959
-3.54822
-3.53214
-3.54537
-3.61521
-3.82181
-4.58364
-3.7117
-3.704
-3.68879
-3.66644
-3.63752
-3.60293
-3.56393
-3.52233
-3.48082
-3.44353
-3.41717
-3.41322
-3.44906
-3.51791
-3.24461
-3.62299
-3.61528
-3.59999
-3.57743
-3.54805
-3.51249
-3.47164
-3.42665
-3.37911
-3.33124
-3.28666
-3.25344
-3.25999
-3.45162
-4.72738
-3.53964
-3.53181
-3.51624
-3.49316
-3.46286
-3.42573
-3.38222
-3.33276
-3.27764
-3.21667
-3.14826
-3.06603
-2.9424
-2.63246
-1.24671
-3.46174
-3.45371
-3.43772
-3.4139
-3.38241
-3.3434
-3.29693
-3.2428
-3.18023
-3.10727
-3.01946
-2.90738
-2.75419
-2.56039
-2.65306
-3.38942
-3.38114
-3.36464
-3.33997
-3.30718
-3.26625
-3.21697
-3.1587
-3.09005
-3.00817
-2.90752
-2.77727
-2.5942
-2.28937
-1.51274
-3.32284
-3.3143
-3.29723
-3.27167
-3.23761
-3.19492
-3.14325
-3.08181
-3.00905
-2.92211
-2.81615
-2.68383
-2.51876
-2.34598
-2.44407
-3.26219
-3.25337
-3.23573
-3.20929
-3.17403
-3.12981
-3.07631
-3.01279
-2.9379
-2.84928
-2.74307
-2.61315
-2.44867
-2.21449
-1.68815
-3.20768
-3.19856
-3.18033
-3.15303
-3.11667
-3.07117
-3.01633
-2.95166
-2.87628
-2.78866
-2.68645
-2.56648
-2.42698
-2.28588
-2.32205
-3.15951
-3.15007
-3.13124
-3.10307
-3.06565
-3.01901
-2.96317
-2.89798
-2.82316
-2.73818
-2.64216
-2.53339
-2.40641
-2.23417
-1.85557
-3.11789
-3.10811
-3.08863
-3.05955
-3.02102
-2.97326
-2.91649
-2.85099
-2.7771
-2.69537
-2.60673
-2.51293
-2.41726
-2.32576
-2.25163
-3.08305
-3.0729
-3.05269
-3.02258
-2.98282
-2.93376
-2.87588
-2.80982
-2.7365
-2.65736
-2.57488
-2.49378
-2.42523
-2.40529
-2.59619
-3.05527
-3.04468
-3.02363
-2.99231
-2.95107
-2.9004
-2.84096
-2.77369
-2.69993
-2.62168
-2.54206
-2.46591
-2.39944
-2.3384
-2.16423
-3.03483
-3.02374
-3.00169
-2.96893
-2.92588
-2.87312
-2.81148
-2.74208
-2.66648
-2.58696
-2.50684
-2.43133
-2.36988
-2.35006
-2.52037
-3.02211
-3.01042
-2.98718
-2.95269
-2.90742
-2.85202
-2.78739
-2.71476
-2.63577
-2.55264
-2.46842
-2.38698
-2.31141
-2.22969
-2.00727
-3.0175
-3.00511
-2.98049
-2.94396
-2.896
-2.83732
-2.76886
-2.69186
-2.60792
-2.51909
-2.42807
-2.33856
-2.25721
-2.20701
-2.32719
-3.02149
-3.0083
-2.98208
-2.94315
-2.89203
-2.82942
-2.75627
-2.67379
-2.58346
-2.48707
-2.38668
-2.28447
-2.18139
-2.06601
-1.82312
-3.03465
-3.02054
-2.99249
-2.95081
-2.89603
-2.82884
-2.75016
-2.66117
-2.56321
-2.45783
-2.34656
-2.23098
-2.11411
-2.01354
-2.0578
-3.0576
-3.04247
-3.01236
-2.96758
-2.90865
-2.83623
-2.75123
-2.65476
-2.54812
-2.43266
-2.30945
-2.1784
-2.0355
-1.86051
-1.54581
-3.09107
-3.0748
-3.04241
-2.9942
-2.93063
-2.85236
-2.76026
-2.65543
-2.53917
-2.41288
-2.27777
-2.13404
-1.97919
-1.80448
-1.59265
-3.13583
-3.11833
-3.08345
-3.03147
-2.96282
-2.87809
-2.77814
-2.66403
-2.53717
-2.39923
-2.25207
-2.09742
-1.93668
-1.77424
-1.64993
-3.19275
-3.17392
-3.13637
-3.08033
-3.00616
-2.91441
-2.80583
-2.68149
-2.54287
-2.39199
-2.23158
-2.06502
-1.89533
-1.71752
-1.4633
-3.26275
-3.24251
-3.20213
-3.14178
-3.06173
-2.96242
-2.84448
-2.70888
-2.55708
-2.39137
-2.21536
-2.03479
-1.85963
-1.71386
-1.70628
-3.3468
-3.3251
-3.28177
-3.2169
-3.13067
-3.02336
-2.89539
-2.74751
-2.58095
-2.39791
-2.2023
-2.00082
-1.80353
-1.61421
-1.33784
-3.44591
-3.42272
-3.37636
-3.30685
-3.21425
-3.09864
-2.96015
-2.79911
-2.61626
-2.41318
-2.1933
-1.96394
-1.7419
-1.57501
-1.64947
-3.56113
-3.53643
-3.48702
-3.41285
-3.31382
-3.1898
-3.04056
-2.86587
-2.66561
-2.44012
-2.19091
-1.92196
-1.64198
-1.36821
-1.14079
-3.6935
-3.66731
-3.61488
-3.5361
-3.43075
-3.29847
-3.13865
-2.95039
-2.73249
-2.48354
-2.20221
-1.88766
-1.53773
-1.1292
-0.474175
-3.84406
-3.81641
-3.76104
-3.6778
-3.5664
-3.42627
-3.25648
-3.05549
-2.82094
-2.54943
-2.23658
-1.87794
-1.47418
-1.06138
-0.923094
-4.01383
-3.98476
-3.92655
-3.83907
-3.72198
-3.57467
-3.39598
-3.1839
-2.93505
-2.64405
-2.30274
-1.89954
-1.41692
-0.802915
0.294458
-4.20379
-4.17333
-4.1124
-4.02089
-3.89856
-3.74486
-3.55866
-3.33783
-3.07844
-2.7736
-2.41188
-1.97629
-1.45091
-0.88012
-0.786735
-4.41489
-4.38308
-4.31949
-4.22412
-4.09692
-3.93761
-3.7454
-3.51855
-3.25339
-2.94265
-2.57233
-2.1154
-1.51642
-0.625791
1.25775
-4.64808
-4.6149
-4.54864
-4.44946
-4.31759
-4.1532
-3.9562
-3.72588
-3.45999
-3.15309
-2.79291
-2.35317
-1.78448
-1.06098
-0.860007
-4.90431
-4.8697
-4.80064
-4.69751
-4.56085
-4.39143
-4.19015
-3.9579
-3.69507
-3.40052
-3.06875
-2.68048
-2.16004
-1.1333
2.63208
-5.18459
-5.14841
-5.07632
-4.96883
-4.82685
-4.65178
-4.44561
-4.21116
-3.95219
-3.6738
-3.38382
-3.09958
-2.88719
-3.10747
-6.05582
-5.48998
-5.45208
-5.37657
-5.26411
-5.11585
-4.93372
-4.72072
-4.48145
-4.22278
-3.95514
-3.69491
-3.46877
-3.31388
-3.18713
-1.99633
-5.82169
-5.78186
-5.70249
-5.58424
-5.42837
-5.23709
-5.01408
-4.7652
-4.49959
-4.23134
-3.98233
-3.78849
-3.72103
-4.00572
-5.89714
-6.18106
-6.13911
-6.05541
-5.93049
-5.76547
-5.56251
-5.32541
-5.06058
-4.77825
-4.49418
-4.23142
-4.02045
-3.88361
-3.70854
-2.32418
-6.56957
-6.52535
-6.43695
-6.30458
-6.12893
-5.91163
-5.656
-5.36809
-5.05812
-4.74221
-4.44456
-4.20093
-4.07276
-4.25113
-5.88288
-6.98878
-6.94227
-6.84902
-6.70874
-6.52132
-6.28737
-6.00899
-5.69094
-5.34213
-4.97755
-4.62017
-4.30124
-4.04903
-3.78444
-2.48171
-7.44029
-7.39164
-7.29377
-7.14564
-6.94602
-6.69396
-6.38955
-6.03514
-5.63707
-5.20791
-4.76909
-4.35522
-4.03388
-4.03867
-5.62472
-7.92559
-7.8752
-7.77341
-7.61829
-7.40714
-7.1369
-6.80482
-6.40967
-5.95362
-5.44496
-4.90067
-4.34494
-3.79227
-3.1948
-2.42029
-8.44588
-8.39445
-8.2901
-8.12984
-7.90929
-7.62279
-7.26391
-6.82648
-6.30669
-5.70677
-5.0402
-4.33254
-3.58177
-2.47388
1.32201
-9.00188
-8.95045
-8.8456
-8.68328
-8.45724
-8.15893
-7.77753
-7.3005
-6.71541
-6.01487
-5.20825
-4.35009
-3.61926
-3.61962
-6.95741
-9.59361
-9.54355
-9.44101
-9.28095
-9.05537
-8.75279
-8.35758
-7.84955
-7.2043
-6.39665
-5.41209
-4.27921
-3.14897
-2.4477
-2.89697
-10.2201
-10.1731
-10.0764
-9.92413
-9.70699
-9.41096
-9.01597
-8.49388
-7.80599
-6.90127
-5.71894
-4.20649
-2.38079
-0.476802
0.851468
-10.8792
-10.8372
-10.7503
-10.6124
-10.4134
-10.1378
-9.76263
-9.25335
-8.55824
-7.59869
-6.25502
-4.35132
-1.66698
1.89391
5.52233
-11.5675
-11.5325
-11.4596
-11.3431
-11.173
-10.9339
-10.6024
-10.1419
-9.49415
-8.56284
-7.18003
-5.03825
-1.56189
4.21772
12.7129
-12.2801
-12.254
-12.1993
-12.1109
-11.9804
-11.7943
-11.5318
-11.1604
-10.627
-9.84055
-8.63208
-6.65198
-3.05627
4.65571
25.803
-146.467
-88.0205
-61.5439
-48.8938
-42.1194
-38.0745
-35.4476
-33.6373
-32.3402
-31.3902
-30.6901
-30.1805
-29.8241
-29.5977
-29.4876
-182.167
-82.3652
-54.6746
-43.9994
-38.6453
-35.4658
-33.3745
-31.9099
-30.8447
-30.0545
-29.4663
-29.0348
-28.7313
-28.5378
-28.4436
46.89
-26.6328
-35.989
-35.4099
-33.661
-32.1015
-30.8661
-29.9051
-29.158
-28.5786
-28.1337
-27.8002
-27.5623
-27.409
-27.334
-7.05904
-15.4604
-24.203
-27.6327
-28.5452
-28.512
-28.1673
-27.7517
-27.355
-27.0092
-26.7237
-26.4994
-26.3343
-26.226
-26.1723
25.8862
-4.05086
-16.1067
-21.6035
-24.0861
-25.1389
-25.5176
-25.5852
-25.5168
-25.398
-25.2712
-25.1574
-25.067
-25.0049
-24.9734
-1.43898
-5.0589
-12.5651
-17.6675
-20.6201
-22.2337
-23.0842
-23.5132
-23.7134
-23.7923
-23.8096
-23.7992
-23.78
-23.7626
-23.7527
11.4379
-3.36812
-10.693
-15.2243
-18.084
-19.8585
-20.9433
-21.6
-21.9944
-22.2292
-22.3674
-22.4471
-22.4917
-22.5151
-22.525
-3.0915
-6.87257
-10.7607
-13.942
-16.3014
-17.9623
-19.0998
-19.8689
-20.3862
-20.7334
-20.9657
-21.1194
-21.2181
-21.2769
-21.3042
-14.9951
-10.3027
-11.3193
-13.2305
-15.004
-16.4294
-17.5122
-18.3127
-18.8961