/*--------------------------------*- C++ -*----------------------------------*\
| =========                 |                                                 |
| \\      /  F ield         | OpenFOAM: The Open Source CFD Toolbox           |
|  \\    /   O peration     | Version:  5.x                                   |
|   \\  /    A nd           | Web:      www.OpenFOAM.org                      |
|    \\/     M anipulation  |                                                 |
\*---------------------------------------------------------------------------*/
FoamFile
{
    version     2.0;
    format      ascii;
    class       volScalarField;
    location    "6.6";
    object      gradTx;
}
// * * * * * * * * * * * * * * * * * * * * * * * * * * * * * * * * * * * * * //

dimensions      [0 -1 0 1 0 0 0];

internalField   nonuniform List<scalar> 
2048
(
0.00630514
0.0187346
0.0306387
0.0417201
0.0517496
0.060578
0.0681349
0.0744181
0.0794771
0.083395
0.0862714
0.0882107
0.0893149
0.0896808
0.0894008
0.0885642
0.0872576
0.0855648
0.0835635
0.0813222
0.0788967
0.0763276
0.0736398
0.0708435
0.0679364
0.0649063
0.0617338
0.0583933
0.0548538
0.0510796
0.0470303
0.0426623
0.0379304
0.0327901
0.0271995
0.021121
0.0145223
0.00737728
-0.000333639
-0.00862214
-0.0174898
-0.0269243
-0.0368942
-0.0473421
-0.0581766
-0.0692628
-0.0804136
-0.0913819
-0.101857
-0.111464
-0.119782
-0.12636
-0.130753
-0.13257
-0.131512
-0.127416
-0.120277
-0.110248
-0.0976155
-0.0827651
-0.0661297
-0.0481504
-0.029247
-0.00980744
0.018789
0.0558187
0.0912568
0.124206
0.153979
0.180137
0.202478
0.221012
0.235899
0.247399
0.255816
0.261465
0.264649
0.265655
0.264753
0.262208
0.258276
0.253208
0.247235
0.240563
0.233358
0.225743
0.217789
0.209524
0.20094
0.191998
0.182641
0.172791
0.162357
0.151232
0.139298
0.126422
0.11247
0.0973087
0.0808124
0.0628693
0.0433836
0.0222772
-0.000508614
-0.0250104
-0.0512356
-0.0791524
-0.108674
-0.139636
-0.171777
-0.204706
-0.237875
-0.270558
-0.301832
-0.330585
-0.355548
-0.37536
-0.388674
-0.39429
-0.391296
-0.379193
-0.357962
-0.328074
-0.290412
-0.246152
-0.196609
-0.14311
-0.0869055
-0.0291384
0.0311409
0.0924842
0.151107
0.205486
0.254473
0.297352
0.333827
0.363953
0.388043
0.406562
0.42004
0.429007
0.433963
0.435375
0.43368
0.429306
0.422676
0.414203
0.404276
0.393241
0.381376
0.36888
0.355868
0.342381
0.328396
0.313847
0.298632
0.282626
0.26568
0.247618
0.228241
0.207332
0.184665
0.160015
0.133175
0.103959
0.0722085
0.0377958
0.000621833
-0.0393783
-0.0822262
-0.127883
-0.176223
-0.227003
-0.279814
-0.334044
-0.388818
-0.442963
-0.494968
-0.54299
-0.584899
-0.618385
-0.641136
-0.651075
-0.64661
-0.626862
-0.591801
-0.542253
-0.479769
-0.406389
-0.324373
-0.235962
-0.143224
-0.0480095
0.0436008
0.129427
0.211275
0.28694
0.354796
0.413872
0.463822
0.504817
0.537386
0.562252
0.580202
0.591995
0.598325
0.59982
0.597071
0.590657
0.581161
0.569162
0.555217
0.539817
0.523357
0.506114
0.488238
0.469772
0.45067
0.430826
0.410098
0.388309
0.365256
0.340698
0.314355
0.285921
0.255073
0.221494
0.184891
0.145003
0.101614
0.0545454
0.00365747
-0.0511484
-0.109919
-0.172626
-0.239132
-0.309143
-0.382146
-0.457348
-0.533596
-0.609307
-0.682412
-0.750335
-0.810046
-0.858205
-0.89142
-0.906593
-0.901329
-0.874291
-0.825432
-0.756012
-0.66838
-0.565592
-0.450974
-0.327745
-0.198794
-0.0666112
0.0563844
0.167271
0.272722
0.369771
0.456285
0.531067
0.593797
0.644851
0.685068
0.715506
0.737253
0.751311
0.758556
0.759759
0.755636
0.746902
0.734297
0.718577
0.700477
0.680652
0.659624
0.637745
0.615193
0.591994
0.568064
0.54325
0.517359
0.490171
0.46143
0.430835
0.398025
0.362598
0.324129
0.282198
0.236422
0.186468
0.132061
0.0729779
0.00903817
-0.0598962
-0.133911
-0.21301
-0.297074
-0.385797
-0.478611
-0.574597
-0.672381
-0.770026
-0.864936
-0.953805
-1.03265
-1.09699
-1.14217
-1.16386
-1.15868
-1.1247
-1.06185
-0.971942
-0.858329
-0.725315
-0.577483
-0.419135
-0.253976
-0.0850567
0.0696966
0.206601
0.336343
0.455073
0.560121
0.650108
0.724839
0.785029
0.831948
0.867085
0.891883
0.907601
0.915275
0.915783
0.909932
0.898552
0.882537
0.862834
0.840382
0.816025
0.790424
0.76401
0.73697
0.709295
0.680837
0.651379
0.620679
0.588475
0.554472
0.51831
0.479549
0.437683
0.392167
0.342471
0.288115
0.228694
0.163881
0.0934129
0.0170721
-0.0653235
-0.153912
-0.248756
-0.349787
-0.456733
-0.569024
-0.68568
-0.805177
-0.925297
-1.04297
-1.15417
-1.25391
-1.33641
-1.39553
-1.42543
-1.42143
-1.38085
-1.30358
-1.19214
-1.05119
-0.886623
-0.704541
-0.510466
-0.308919
-0.103386
0.0837416
0.248
0.403004
0.543882
0.667381
0.772011
0.857842
0.926095
0.978636
1.0175
1.04455
1.06131
1.06893
1.06835
1.06041
1.04602
1.02624
1.00224
0.975176
0.946135
0.915935
0.885083
0.853758
0.821879
0.789205
0.755437
0.720275
0.683431
0.644586
0.603333
0.559151
0.511413
0.45944
0.402572
0.340225
0.271924
0.1973
0.11606
0.0279569
-0.0672384
-0.169731
-0.279667
-0.397067
-0.52174
-0.653174
-0.790401
-0.931837
-1.07507
-1.21664
-1.35184
-1.47462
-1.57774
-1.65327
-1.69348
-1.69204
-1.64521
-1.55281
-1.41831
-1.24811
-1.05014
-0.832385
-0.601756
-0.363565
-0.121568
0.0987309
0.292061
0.473583
0.637211
0.779078
0.897674
0.993529
1.06859
1.12552
1.16705
1.19553
1.21271
1.21983
1.21779
1.20741
1.18965
1.16571
1.13702
1.10503
1.07111
1.03627
1.00109
0.965706
0.929924
0.893365
0.855618
0.81633
0.775203
0.731923
0.686056
0.636992
0.583966
0.526138
0.462695
0.392937
0.316322
0.232456
0.141036
0.0417954
-0.0655405
-0.181258
-0.305615
-0.438762
-0.580635
-0.730841
-0.888507
-1.05209
-1.2191
-1.3858
-1.54687
-1.69518
-1.82184
-1.91681
-1.96996
-1.97275
-1.92005
-1.8115
-1.65186
-1.44985
-1.21607
-0.960865
-0.692711
-0.417662
-0.139506
0.11489
0.339418
0.54899
0.736083
0.89618
1.0279
1.13248
1.21287
1.2728
1.31584
1.34489
1.36194
1.36819
1.3644
1.35126
1.32973
1.30119
1.26735
1.23007
1.19104
1.1515
1.11211
1.07294
1.03359
0.993494
0.9521
0.908997
0.863913
0.816585
0.766574
0.71318
0.65547
0.592403
0.522981
0.446375
0.361986
0.269415
0.168378
0.0586085
-0.0602101
-0.18846
-0.326542
-0.474774
-0.633269
-0.801812
-0.979706
-1.16556
-1.35696
-1.55005
-1.73902
-1.91566
-2.0693
-2.18733
-2.25662
-2.26574
-2.20757
-2.08148
-1.89393
-1.6568
-1.38423
-1.08945
-0.782738
-0.470767
-0.157038
0.132466
0.39075
0.63019
0.84155
1.01964
1.16341
1.27513
1.35913
1.42046
1.46378
1.49258
1.50902
1.51412
1.50837
1.49221
1.46653
1.43288
1.39338
1.35035
1.30592
1.26162
1.2182
1.17554
1.13302
1.08977
1.04505
0.998411
0.949652
0.898628
0.844939
0.787781
0.726013
0.65834
0.583536
0.500623
0.408961
0.308182
0.198056
0.0783458
-0.0512988
-0.191372
-0.34245
-0.505061
-0.679538
-0.865898
-1.0637
-1.27183
-1.48812
-1.70879
-1.92775
-2.1358
-2.32033
-2.46572
-2.55508
-2.57313
-2.50997
-2.3645
-2.14547
-1.86905
-1.55402
-1.21724
-0.870954
-0.522259
-0.173942
0.15173
0.446806
0.718224
0.954708
1.15039
1.30484
1.42179
1.50737
1.56832
1.61061
1.63839
1.65385
1.65768
1.64989
1.63051
1.60028
1.56098
1.51521
1.46589
1.41572
1.36662
1.31936
1.27362
1.22837
1.18238
1.13466
1.0847
1.03248
0.97807
0.921159
0.860826
0.795654
0.724031
0.64444
0.555735
0.457252
0.348709
0.22998
0.100894
-0.0389209
-0.190086
-0.353396
-0.529634
-0.71939
-0.922949
-1.1402
-1.37043
-1.61191
-1.86123
-2.11225
-2.35501
-2.57485
-2.75266
-2.86686
-2.8971
-2.8296
-2.66236
-2.40724
-2.08628
-1.72442
-1.34295
-0.956204
-0.57136
-0.189946
0.172985
0.508409
0.814222
1.07672
1.28937
1.45277
1.57266
1.65745
1.71604
1.75593
1.78198
1.79627
1.7989
1.78914
1.76643
1.73126
1.68567
1.63291
1.57666
1.52036
1.46639
1.41558
1.36724
1.3198
1.27153
1.2211
1.16797
1.11242
1.05488
0.995204
0.932311
0.864433
0.789542
0.705764
0.611743
0.506834
0.390908
0.264011
0.126083
-0.0232458
-0.18475
-0.359492
-0.548561
-0.752831
-0.972876
-1.20896
-1.46091
-1.72765
-2.00641
-2.29148
-2.57239
-2.83245
-3.04857
-3.19339
-3.23996
-3.16897
-2.97691
-2.67982
-2.30785
-1.89401
-1.46494
-1.03708
-0.617152
-0.204734
0.19657
0.576474
0.919419
1.2088
1.4375
1.60768
1.72778
1.80907
1.86307
1.89917
1.92293
1.93608
1.93777
1.92631
1.90026
1.85972
1.80712
1.74654
1.68261
1.61971
1.56083
1.50682
1.45649
1.40749
1.35744
1.30459
1.24836
1.18949
1.129
1.067
1.00221
0.932371
0.854937
0.767573
0.668669
0.557654
0.434655
0.299963
0.153696
-0.00449121
-0.175554
-0.360892
-0.561959
-0.779932
-1.01566
-1.26981
-1.54286
-1.8346
-2.14331
-2.46416
-2.78671
-3.09238
-3.35359
-3.53603
-3.60419
-3.53094
-3.31017
-2.96364
-2.53267
-2.06088
-1.58123
-1.11197
-0.658616
-0.217962
0.222865
0.652012
1.03516
1.35227
1.59571
1.76998
1.88709
1.96178
2.00874
2.03963
2.06072
2.073
2.0743
2.06161
2.03233
1.98599
1.92552
1.85614
1.78364
1.71357
1.64975
1.59304
1.54145
1.49163
1.44039
1.38538
1.32598
1.26364
1.2003
1.13645
1.07048
0.999485
0.920281
0.829942
0.72653
0.60964
0.479796
0.337617
0.183472
0.017084
-0.162723
-0.357782
-0.569992
-0.800826
-1.05136
-1.32266
-1.61594
-1.93208
-2.27077
-2.6288
-2.99643
-3.35351
-3.66755
-3.89599
-3.99247
-3.9188
-3.66443
-3.25893
-2.75921
-2.22268
-1.68949
-1.17909
-0.694675
-0.229274
0.252298
0.736141
1.16292
1.50852
1.76488
1.93996
2.0504
2.11499
2.1522
2.17647
2.19477
2.20678
2.20846
2.19528
2.16304
2.11038
2.04105
1.96175
1.87963
1.80171
1.73295
1.67417
1.62225
1.57247
1.52069
1.46378
1.40097
1.3348
1.26861
1.20341
1.13707
1.06579
0.985646
0.892965
0.785345
0.662703
0.526151
0.376719
0.215112
0.0411854
-0.14651
-0.350374
-0.572856
-0.815713
-1.08013
-1.36751
-1.6799
-2.01946
-2.38767
-2.78375
-3.19972
-3.61434
-3.98992
-4.27434
-4.40777
-4.33643
-4.04228
-3.56566
-2.98536
-2.37654
-1.78713
-1.23655
-0.724239
-0.238317
0.285349
0.830082
1.3043
1.67904
1.94587
2.11779
2.21742
2.26796
2.29244
2.30875
2.32444
2.33715
2.34027
2.32761
2.29287
2.23327
2.15388
2.06342
1.97042
1.88383
1.81016
1.75013
1.699
1.65025
1.59869
1.54014
1.47347
1.40286
1.33371
1.26772
1.20192
1.13128
1.05112
0.956765
0.84514
0.716735
0.573525
0.416989
0.248282
0.0674883
-0.127183
-0.338887
-0.570777
-0.824849
-1.10222
-1.40448
-1.73465
-2.09624
-2.49286
-2.92723
-3.39443
-3.87301
-4.31974
-4.67185
-4.85333
-4.78849
-4.44675
-3.8835
-3.20836
-2.51909
-1.8713
-1.28245
-0.746269
-0.244769
0.322569
0.935162
1.461
1.86544
2.13947
2.30348
2.38774
2.41988
2.42831
2.43538
2.44908
2.4639
2.46974
2.45892
2.42239
2.35507
2.26418
2.16118
2.05585
1.95956
1.88103
1.82084
1.77188
1.72523
1.67479
1.61492
1.54365
1.46762
1.39528
1.32916
1.26497
1.19597
1.11679
1.02151
0.90595
0.771605
0.62171
0.458129
0.282614
0.0956416
-0.105017
-0.323538
-0.563993
-0.828549
-1.11795
-1.43381
-1.78021
-2.16209
-2.58529
-3.05733
-3.57816
-4.12725
-4.65559
-5.08888
-5.33267
-5.28065
-4.88144
-4.21164
-3.42466
-2.64642
-1.93906
-1.31496
-0.759834
-0.248352
0.364595
1.0528
1.63485
2.06947
2.34637
2.49681
2.56093
2.56985
2.55851
2.55516
2.56805
2.58687
2.59684
2.58957
2.55234
2.47621
2.37205
2.25513
2.13577
2.02847
1.94518
1.88624
1.84112
1.79768
1.74943
1.68868
1.6117
1.52882
1.45292
1.38755
1.32622
1.25985
1.18278
1.08743
0.967815
0.827151
0.670494
0.49983
0.31771
0.12527
-0.0802895
-0.304523
-0.552741
-0.827174
-1.12776
-1.45581
-1.81676
-2.21689
-2.66402
-3.1721
-3.74826
-4.37448
-4.99556
-5.52514
-5.84954
-5.81994
-5.35063
-4.54859
-3.62978
-2.75417
-1.98738
-1.3324
-0.764176
-0.248855
0.412193
1.18449
1.82775
2.2931
2.56708
2.6973
2.73652
2.71692
2.68156
2.66676
2.68074
2.70607
2.72149
2.71993
2.68365
2.59711
2.47751
2.34541
2.21
2.09003
2.00213
1.94628
1.90702
1.86783
1.82307
1.76215
1.67785
1.58608
1.50613
1.44264
1.38571
1.32287
1.2492
1.15486
1.03078
0.88316
0.719678
0.54178
0.353137
0.155974
-0.0532669
-0.282004
-0.53724
-0.821129
-1.13219
-1.47089
-1.84463
-2.26079
-2.72829
-3.26954
-3.90187
-4.61182
-5.3372
-5.97941
-6.40782
-6.41515
-5.85946
-4.89192
-3.81811
-2.83754
-2.01337
-1.33339
-0.758762
-0.246152
0.466321
1.33176
2.04164
2.53859
2.80192
2.90407
2.91416
2.86017
2.79584
2.76872
2.78663
2.82168
2.8435
2.85033
2.81752
2.71819
2.58042
2.43229
2.27844
2.1436
2.05129
2.00095
1.97004
1.93583
1.89616
1.83627
1.74233
1.63888
1.5543
1.49425
1.44357
1.38492
1.31612
1.22425
1.09489
0.939343
0.769096
0.583672
0.388423
0.187331
-0.0242029
-0.256087
-0.51768
-0.810856
-1.13184
-1.47953
-1.86426
-2.29428
-2.77755
-3.34765
-4.03594
-4.83623
-5.67766
-6.44918
-7.01131
-7.07744
-6.41413
-5.23782
-3.98279
-2.89139
-2.01439
-1.31692
-0.74333
-0.240209
0.528243
1.49611
2.27838
2.80867
3.05085
3.11572
3.09372
2.99872
2.89949
2.85941
2.8853
2.93425
2.96244
2.98102
2.9556
2.83979
2.6804
2.51623
2.34101
2.18839
2.09195
2.0503
2.0308
2.00168
1.96911
1.91229
1.80544
1.68652
1.59666
1.54218
1.5001
1.44579
1.3836
1.29629
1.16014
0.995294
0.818649
0.625219
0.42305
0.218896
0.00666635
-0.226813
-0.4942
-0.796828
-1.12747
-1.48219
-1.87618
-2.31826
-2.81153
-3.40447
-4.1472
-5.0446
-6.0138
-6.93006
-7.66341
-7.82105
-7.02212
-5.58048
-4.11553
-2.91048
-1.98821
-1.28243
-0.717917
-0.231094
0.599711
1.67893
2.5396
3.10677
3.31342
3.33013
3.27551
3.1318
2.99043
2.93702
2.97645
3.04475
3.0775
3.11209
3.10014
2.96211
2.77667
2.59803
2.39772
2.22345
2.12326
2.09443
2.09023
2.06513
2.04222
1.9919
1.86745
1.72806
1.63227
1.5863
1.55586
1.50509
1.45161
1.37192
1.22652
1.05043
0.868357
0.66616
0.456438
0.250196
0.0391227
-0.194132
-0.466875
-0.77954
-1.11997
-1.4793
-1.88093
-2.33411
-2.83024
-3.4381
-4.23222
-5.23394
-6.34257
-7.4152
-8.3666
-8.66441
-7.69239
-5.91139
-4.20652
-2.88962
-1.93324
-1.22992
-0.682874
-0.218971
0.683252
1.88139
2.8265
3.43743
3.58852
3.54418
3.46063
3.25876
3.06627
2.99949
3.05997
3.15492
3.1873
3.2433
3.25431
3.08507
2.86786
2.67899
2.44864
2.24762
2.14417
2.13351
2.14972
2.12553
2.1156
2.0774
1.92863
1.76227
1.66003
1.62654
1.61176
1.56214
1.51996
1.45255
1.29387
1.10391
0.91844
0.706264
0.487926
0.280737
0.0729628
-0.157888
-0.435698
-0.759499
-1.1104
-1.47119
-1.87895
-2.34383
-2.834
-3.4467
-4.28727
-5.40147
-6.66151
-7.89446
-9.12167
-9.63144
-8.43563
-6.21819
-4.24448
-2.8241
-1.84868
-1.15995
-0.63885
-0.204097
0.782608
2.10426
3.1395
3.80679
3.87418
3.7534
3.65133
3.37909
3.12426
3.0445
3.13585
3.2675
3.28956
3.37398
3.42259
3.2082
2.95179
2.7612
2.49395
2.25944
2.15345
2.16779
2.21127
2.18163
2.18903
2.17194
1.98917
1.78756
1.67863
1.66286
1.66924
1.61584
1.58823
1.5402
1.36189
1.15454
0.969425
0.745331
0.51675
0.31001
0.107989
-0.117802
-0.400569
-0.737201
-1.1001
-1.458
-1.87045
-2.3502
-2.82342
-3.42859
-4.30827
-5.54483
-6.96963
-8.35342
-9.92668
-10.7534
-9.26449
-6.4834
-4.21681
-2.70999
-1.73467
-1.07365
-0.586768
-0.186803
0.903372
2.34767
3.47771
4.22343
4.16725
3.9515
3.85169
3.49231
3.1612
3.06946
3.20413
3.38674
3.38075
3.50274
3.61132
3.3304
3.02508
2.84792
2.53381
2.25716
2.1496
2.19749
2.27788
2.23138
2.26183
2.27985
2.04904
1.80194
1.68657
1.69525
1.73054
1.66448
1.65568
1.63779
1.43
1.20061
1.02231
0.783169
0.542007
0.337501
0.143995
-0.0734474
-0.361282
-0.713103
-1.09079
-1.43962
-1.8552
-2.35698
-2.79936
-3.38223
-4.29063
-5.66201
-7.26863
-8.77229
-10.7754
-12.0711
-10.1937
-6.6826
-4.11001
-2.54467
-1.59241
-0.972719
-0.527776
-0.167481
1.0539
2.61081
3.83829
4.69939
4.46293
4.12973
4.06838
3.59785
3.17338
3.07144
3.26479
3.51899
3.45557
3.62717
3.82947
3.44962
3.08278
2.94407
2.56828
2.23863
2.1309
2.22275
2.35385
2.27151
2.33265
2.40708
2.10785
1.80296
1.68218
1.72366
1.79897
1.70545
1.72105
1.74946
1.49722
1.23972
1.07877
0.819558
0.562619
0.362726
0.180736
-0.0242304
-0.317531
-0.687559
-1.08467
-1.41558
-1.83229
-2.36919
-2.76275
-3.30643
-4.229
-5.75134
-7.5645
-9.12455
-11.6554
-13.638
-11.2403
-6.78235
-3.9105
-2.32732
-1.42422
-0.859302
-0.46318
-0.146558
1.24656
2.89159
4.2155
5.25156
4.75423
4.27614
4.31177
3.69471
3.15652
3.04721
3.31741
3.67351
3.50633
3.74345
4.08956
3.56249
3.11779
3.05697
2.59716
2.20127
2.09536
2.24346
2.44537
2.29721
2.39919
2.56177
2.16457
1.78765
1.66364
1.74786
1.87934
1.735
1.78243
1.88105
1.56196
1.26859
1.14146
0.854166
0.577291
0.385263
0.217898
0.0306391
-0.268914
-0.660739
-1.08468
-1.38501
-1.79974
-2.39354
-2.71447
-3.20044
-4.11704
-5.81105
-7.86983
-9.37557
-12.5454
-15.5236
-12.4232
-6.73751
-3.60577
-2.05933
-1.23348
-0.73592
-0.394384
-0.124475
1.49936
3.18605
4.59948
5.90357
5.03123
4.37461
4.5973
3.78096
3.10572
2.99335
3.36077
3.86357
3.52218
3.84584
4.4089
3.66378
3.12023
3.19716
2.61958
2.1421
2.04086
2.25892
2.56122
2.30157
2.45791
2.75492
2.21715
1.75255
1.62908
1.76719
1.97853
1.74777
1.83698
2.04065
1.62177
1.28276
1.21436
0.886434
0.584469
0.404818
0.255038
0.0921812
-0.21497
-0.6325
-1.09468
-1.34652
-1.75413
-2.43887
-2.65494
-3.06427
-3.94713
-5.83867
-8.20653
-9.48109
-13.412
-17.8181
-13.7634
-6.48814
-3.1862
-1.74482
-1.02454
-0.605319
-0.322809
-0.101668
1.83811
3.48785
4.97476
6.68796
5.28018
4.40377
4.94717
3.85302
3.01553
2.90637
3.39221
4.10771
3.48814
3.92606
4.81101
3.74576
3.07669
3.3796
2.6336
2.05769
1.96513
2.26749
2.71357
2.275
2.50366
3.00131
2.26199
1.69375
1.5767
1.78029
2.10608
1.73634
1.88068
2.23928
1.67305
1.2763
1.30329
0.915392
0.582301
0.421307
0.291514
0.161691
-0.155232
-0.602199
-1.11979
-1.2982
-1.69001
-2.51686
-2.58371
-2.89904
-3.71008
-5.82988
-8.60936
-9.38562
-14.2056
-20.6379
-15.2831
-5.95591
-2.64743
-1.39074
-0.80248
-0.47032
-0.249833
-0.0785502
2.29905
3.78747
5.31835
7.64905
5.48232
4.33568
5.39245
3.90458
2.88005
2.78296
3.40672
4.4314
3.38408
3.97256
5.32742
3.7974
2.96934
3.62494
2.63547
1.94427
1.86603
2.26599
2.9191
2.2045
2.5292
3.32052
2.29325
1.60699
1.50495
1.78458
2.27512
1.69068
1.90798
2.49172
1.71062
1.24149
1.4164
0.939404
0.568605
0.434963
0.32639
0.2408
-0.0893256
-0.568453
-1.16674
-1.23756
-1.59928
-2.6428
-2.49878
-2.70751
-3.39493
-5.77689
-9.13003
-9.02095
-14.8554
-24.1312
-17.0049
-5.04005
-1.9935
-1.00696
-0.572817
-0.333673
-0.17673
-0.0554933
2.93209
4.07138
5.59747
8.84615
5.61256
4.13436
5.97559
3.92525
2.69316
2.62036
3.39578
4.86899
3.18342
3.96966
5.99963
3.80342
2.77495
3.96121
2.61878
1.79789
1.7417
2.24893
3.20023
2.07285
2.52476
3.73815
2.30202
1.4879
1.41277
1.77567
2.50326
1.59748
1.91143
2.81748
1.72723
1.16839
1.56489
0.955831
0.540863
0.446468
0.35831
0.331555
-0.0171028
-0.528822
-1.24425
-1.16159
-1.47034
-2.83662
-2.39574
-2.49475
-2.98881
-5.66619
-9.84199
-8.30481
-15.2641
-28.4857
-18.9505
-3.61289
-1.24082
-0.605808
-0.341144
-0.197919
-0.104626
-0.0328222
3.80457
4.32102
5.76701
10.3574
5.63787
3.7542
6.75324
3.89878
2.44892
2.41691
3.34585
5.46597
2.85176
3.8966
6.88142
3.7432
2.46386
4.42569
2.57327
1.61466
1.59097
2.20755
3.58662
1.8577
2.47744
4.28724
2.27517
1.3322
1.29987
1.74658
2.81382
1.43944
1.88125
3.24182
1.71305
1.04448
1.76377
0.960604
0.496229
0.457111
0.385352
0.436524
0.061164
-0.479414
-1.36349
-1.0668
-1.28724
-3.12411
-2.26665
-2.26895
-2.47704
-5.47566
-10.8458
-7.13968
-15.3009
-33.9363
-21.1391
-1.51514
-0.42285
-0.201265
-0.112736
-0.0652783
-0.0344735
-0.0108076
)
;

boundaryField
{
    left
    {
        type            calculated;
        value           uniform 0;
    }
    right
    {
        type            calculated;
        value           uniform 0;
    }
    interface
    {
        type            calculated;
        value           nonuniform List<scalar> 
64
(
3.80457
4.32102
5.76701
10.3574
5.63787
3.7542
6.75324
3.89878
2.44892
2.41691
3.34585
5.46597
2.85176
3.8966
6.88142
3.7432
2.46386
4.42569
2.57327
1.61466
1.59097
2.20755
3.58662
1.8577
2.47744
4.28724
2.27517
1.3322
1.29987
1.74658
2.81382
1.43944
1.88125
3.24182
1.71305
1.04448
1.76377
0.960604
0.496229
0.457111
0.385352
0.436524
0.061164
-0.479414
-1.36349
-1.0668
-1.28724
-3.12411
-2.26665
-2.26895
-2.47704
-5.47566
-10.8458
-7.13968
-15.3009
-33.9363
-21.1391
-1.51514
-0.42285
-0.201265
-0.112736
-0.0652783
-0.0344735
-0.0108076
)
;
    }
    bottom
    {
        type            calculated;
        value           nonuniform List<scalar> 
64
(
0.00630514
0.0187346
0.0306387
0.0417201
0.0517496
0.060578
0.0681349
0.0744181
0.0794771
0.083395
0.0862714
0.0882107
0.0893149
0.0896808
0.0894008
0.0885642
0.0872576
0.0855648
0.0835635
0.0813222
0.0788967
0.0763276
0.0736398
0.0708435
0.0679364
0.0649063
0.0617338
0.0583933
0.0548538
0.0510796
0.0470303
0.0426623
0.0379304
0.0327901
0.0271995
0.021121
0.0145223
0.00737728
-0.000333639
-0.00862214
-0.0174898
-0.0269243
-0.0368942
-0.0473421
-0.0581766
-0.0692628
-0.0804136
-0.0913819
-0.101857
-0.111464
-0.119782
-0.12636
-0.130753
-0.13257
-0.131512
-0.127416
-0.120277
-0.110248
-0.0976155
-0.0827651
-0.0661297
-0.0481504
-0.029247
-0.00980744
)
;
    }
    defaultFaces
    {
        type            empty;
    }
}


// ************************************************************************* //
