/*--------------------------------*- C++ -*----------------------------------*\
| =========                 |                                                 |
| \\      /  F ield         | OpenFOAM: The Open Source CFD Toolbox           |
|  \\    /   O peration     | Version:  5.x                                   |
|   \\  /    A nd           | Web:      www.OpenFOAM.org                      |
|    \\/     M anipulation  |                                                 |
\*---------------------------------------------------------------------------*/
FoamFile
{
    version     2.0;
    format      ascii;
    class       volScalarField;
    location    "3.0999";
    object      gradTy;
}
// * * * * * * * * * * * * * * * * * * * * * * * * * * * * * * * * * * * * * //

dimensions      [0 -1 0 1 0 0 0];

internalField   nonuniform List<scalar> 
6300
(
32285
32255
32224.9
32194.6
32164.1
32133.3
32102.1
32070.4
32038.4
32005.8
31972.6
31938.9
31904.6
31869.7
31834.2
0.0521838
0.156065
0.258461
0.358281
0.454281
0.545025
0.628866
0.703968
0.768367
0.820088
0.857329
0.878701
0.883498
0.871968
0.845493
0.0874949
0.261716
0.433575
0.601311
0.762894
0.915945
1.0577
1.18504
1.29454
1.38272
1.44631
1.48269
1.49038
1.46961
1.42266
0.123578
0.369737
0.612826
0.850513
1.08006
1.29819
1.501
1.68398
1.84208
1.96999
2.06255
2.1154
2.1258
2.09351
2.02161
0.160656
0.480831
0.797481
1.10786
1.40865
1.69574
1.96413
2.2078
2.41981
2.59261
2.7185
2.79058
2.80391
2.75701
2.65338
0.19887
0.595453
0.988408
1.3748
1.75093
2.11202
2.45199
2.76327
3.03678
3.26213
3.42827
3.52452
3.54225
3.47725
3.33235
0.238242
0.713703
1.1859
1.65201
2.10825
2.54941
2.96855
3.35653
3.70189
3.99088
4.20795
4.33696
4.36334
4.27738
4.07878
0.278639
0.835218
1.38947
1.93911
2.48063
3.00885
3.51626
3.99241
4.42339
4.79157
5.07569
5.25204
5.29677
5.19015
4.92342
0.319737
0.959057
1.59768
2.23431
2.86633
3.48912
4.09524
4.67345
5.20772
5.6763
6.0512
6.29873
6.38152
6.26302
5.91585
0.360987
1.0836
1.80788
2.53412
3.26126
3.98607
4.70213
5.39844
6.05775
6.6547
7.15408
7.51016
7.66755
7.56453
7.13903
0.401602
1.20647
2.01612
2.83305
3.65853
4.49178
5.32877
6.16043
6.97016
7.73064
8.40027
8.92027
9.21404
9.18861
8.7316
0.440555
1.32455
2.21709
3.12344
4.04803
4.99375
5.96075
6.94436
7.93182
8.89745
9.79609
10.5567
11.0799
11.2447
10.9062
0.476623
1.4341
2.40427
3.39559
4.4164
5.47447
6.57615
7.72443
8.91533
10.1312
11.33
12.4307
13.3047
13.8051
13.8788
0.508464
1.53095
2.57029
3.63827
4.74751
5.91159
7.14494
8.4619
9.87384
11.3821
12.9622
14.5317
15.9039
16.7937
17.3077
0.534747
1.61096
2.70767
3.83971
5.02379
6.27944
7.63014
9.10438
10.736
12.5613
14.6049
16.8307
18.9867
20.1603
17.8085
31801.1
31770.7
31739.9
31708.8
31677.4
31645.7
31613.7
31581.4
31548.9
31516.2
31483.3
31450.2
31416.9
31383.6
31350.1
31316.5
31282.8
31249.1
31215.4
31181.6
31147.9
31114.1
31080.3
31046.5
31012.8
30979
30945.2
30911.4
30877.6
30843.8
30810.1
30776.3
30742.7
30709
30675.4
30641.8
30608.3
30574.8
30541.4
30508
30474.6
30441.3
30407.9
30374.6
30341.3
30308.1
30274.9
30241.8
30208.7
30175.7
30142.7
30109.8
30076.9
30044.1
30011.3
29978.6
29945.9
29913.2
29880.6
29848
29815.4
29783
29750.5
29718.2
29685.9
29653.6
29621.5
29589.4
29557.3
29525.3
29493.4
29461.5
29429.6
29397.8
29366.1
29334.3
29302.7
29271.1
29239.5
29208
29176.5
29145
29113.5
29082.1
29050.6
29019
28987.3
28955.6
28923.8
28891.9
0.809835
0.770972
0.727858
0.682633
0.637087
0.592426
0.549142
0.507036
0.465385
0.423216
0.379637
0.334143
0.286849
0.238577
0.190798
0.145422
0.104484
0.0697796
0.0425351
0.0231743
0.0112194
0.00534838
0.00359103
0.00363134
0.00316568
0.000259469
-0.00635491
-0.0170881
-0.0314455
-0.0481337
-0.0653067
-0.0809112
-0.0930671
-0.100412
-0.102348
-0.0991465
-0.0919024
-0.082349
-0.0725655
-0.0646304
-0.0602737
-0.0605867
-0.0658357
-0.075415
-0.0879505
-0.10154
-0.11409
-0.12369
-0.128944
-0.129217
-0.124733
-0.116528
-0.106271
-0.095974
-0.0876505
-0.0829759
-0.0830008
-0.0879689
-0.0972698
-0.10954
-0.122897
-0.13527
-0.144763
-0.149981
-0.150266
-0.145791
-0.137518
-0.127007
-0.116135
-0.106757
-0.100365
-0.0978014
-0.0990742
-0.103305
-0.108826
-0.11341
-0.114607
-0.11012
-0.0981704
-0.0777866
-0.048986
-0.0128329
0.0286259
0.0725334
0.115486
0.153864
0.184213
0.203631
0.210118
0.202844
1.35972
1.29143
1.21615
1.13791
1.06006
0.984818
0.912966
0.843912
0.77601
0.707118
0.635258
0.559232
0.47908
0.396271
0.313588
0.234717
0.163621
0.103818
0.0577249
0.0262022
0.00836468
0.00169656
0.00243421
0.00614868
0.00843407
0.00559288
-0.00478921
-0.0234727
-0.0494647
-0.0802178
-0.112108
-0.141109
-0.163539
-0.176739
-0.179542
-0.172474
-0.157655
-0.138436
-0.118835
-0.102867
-0.0938769
-0.0939789
-0.103692
-0.121841
-0.145755
-0.171727
-0.19568
-0.213892
-0.223659
-0.223758
-0.214634
-0.198308
-0.178015
-0.15765
-0.141113
-0.131647
-0.131296
-0.140538
-0.158197
-0.181626
-0.207167
-0.23079
-0.248815
-0.258549
-0.258736
-0.249744
-0.233465
-0.212953
-0.191876
-0.173866
-0.161864
-0.157567
-0.16107
-0.170759
-0.183483
-0.195001
-0.200626
-0.195957
-0.177565
-0.143542
-0.0938251
-0.03029
0.0433775
0.121997
0.199364
0.268846
0.324066
0.359625
0.371782
0.358972
1.92563
1.82201
1.70879
1.5927
1.47938
1.37242
1.27286
1.17923
1.08816
0.995397
0.896984
0.790373
0.675252
0.553902
0.431008
0.312942
0.206626
0.118243
0.0520676
0.00966062
-0.0104342
-0.0124768
-0.00286366
0.0108723
0.0212358
0.0219389
0.00888674
-0.0191747
-0.0604668
-0.110502
-0.162905
-0.2106
-0.247135
-0.267868
-0.270779
-0.256788
-0.229568
-0.194897
-0.159695
-0.130876
-0.114209
-0.113352
-0.129218
-0.159786
-0.200413
-0.244642
-0.285354
-0.316073
-0.332117
-0.331398
-0.314725
-0.28562
-0.249683
-0.213638
-0.184214
-0.16702
-0.165601
-0.180815
-0.210644
-0.250504
-0.294029
-0.334206
-0.364644
-0.380702
-0.380263
-0.364035
-0.335354
-0.299561
-0.263053
-0.232179
-0.212122
-0.205958
-0.214023
-0.233708
-0.259743
-0.284948
-0.301345
-0.301431
-0.279348
-0.231781
-0.158451
-0.0622294
0.0511028
0.173363
0.294692
0.404457
0.492317
0.549401
0.569477
0.5499
2.51511
2.36645
2.20558
2.04353
1.88955
1.74937
1.62421
1.51085
1.40275
1.29182
1.17051
1.03377
0.880395
0.713755
0.541479
0.374246
0.223805
0.100689
0.0121826
-0.0390121
-0.0552302
-0.0434368
-0.0141008
0.0204496
0.0479458
0.0580895
0.0441729
0.00417179
-0.0588824
-0.137381
-0.220486
-0.296165
-0.353491
-0.384667
-0.386358
-0.36016
-0.312216
-0.25213
-0.19137
-0.141393
-0.111781
-0.10865
-0.133581
-0.183251
-0.249894
-0.322626
-0.389426
-0.439393
-0.464724
-0.462018
-0.432727
-0.38278
-0.321514
-0.260101
-0.209712
-0.179684
-0.175964
-0.200054
-0.248654
-0.314112
-0.385719
-0.451655
-0.501189
-0.526616
-0.524532
-0.496263
-0.447493
-0.387202
-0.326122
-0.274919
-0.24238
-0.233864
-0.250244
-0.287516
-0.337202
-0.387579
-0.425554
-0.438827
-0.41783
-0.357116
-0.25604
-0.118807
0.0459729
0.226072
0.406673
0.571613
0.704888
0.792469
0.824274
0.795902
3.13768
2.92845
2.70407
2.48273
2.27985
2.10472
1.95858
1.83492
1.72142
1.60317
1.46628
1.3011
1.10464
0.881717
0.644681
0.411361
0.201628
0.033286
-0.0814422
-0.138063
-0.140375
-0.0996713
-0.0328602
0.040171
0.099629
0.128872
0.117006
0.0606989
-0.0350748
-0.157643
-0.288778
-0.408177
-0.497523
-0.543942
-0.542118
-0.494866
-0.412368
-0.310355
-0.207538
-0.122608
-0.071241
-0.0635601
-0.102343
-0.182295
-0.290631
-0.409174
-0.51776
-0.598212
-0.637727
-0.630943
-0.580496
-0.496263
-0.39358
-0.290712
-0.205913
-0.154489
-0.146303
-0.184024
-0.26241
-0.368887
-0.485599
-0.592744
-0.672466
-0.712168
-0.706528
-0.658034
-0.576239
-0.475998
-0.374988
-0.290802
-0.23806
-0.225935
-0.256398
-0.323461
-0.413678
-0.508078
-0.585346
-0.625579
-0.613512
-0.54058
-0.405702
-0.215058
0.0187781
0.278052
0.5412
0.784359
0.983252
1.11585
1.16572
1.12535
3.80668
3.51226
3.19819
2.89534
2.63022
2.41831
2.2606
2.14438
2.04694
1.94137
1.80278
1.61348
1.36696
1.07
0.742522
0.414499
0.119834
-0.111334
-0.258756
-0.315334
-0.28748
-0.193517
-0.0605936
0.0794198
0.194804
0.258834
0.253813
0.174039
0.0272957
-0.165589
-0.37399
-0.563489
-0.703394
-0.77271
-0.763319
-0.680351
-0.540647
-0.369764
-0.197977
-0.0555157
0.0321792
0.0484109
-0.0118498
-0.140495
-0.316697
-0.510089
-0.686636
-0.81601
-0.877428
-0.862773
-0.776945
-0.636346
-0.465942
-0.295334
-0.154084
-0.0670617
-0.0505659
-0.109462
-0.235745
-0.408952
-0.599282
-0.773348
-0.9014
-0.96304
-0.950258
-0.867782
-0.73157
-0.565928
-0.399649
-0.261426
-0.175274
-0.156702
-0.209864
-0.326081
-0.484148
-0.653259
-0.798481
-0.887656
-0.896848
-0.813256
-0.635675
-0.373514
-0.0450533
0.324447
0.704505
1.06084
1.35708
1.55834
1.63711
1.57982
4.54341
4.12433
3.67612
3.25355
2.90396
2.65381
2.5029
2.42682
2.38416
2.32715
2.21229
2.00823
1.70193
1.30221
0.841141
0.369587
-0.0534109
-0.376563
-0.566904
-0.614204
-0.529802
-0.343485
-0.0985569
0.154115
0.363906
0.488209
0.498242
0.383792
0.156086
-0.151216
-0.486449
-0.790242
-1.01094
-1.11485
-1.0905
-0.947566
-0.713854
-0.430506
-0.146217
0.0904089
0.238475
0.2705
0.177085
-0.0302422
-0.318043
-0.635294
-0.923476
-1.1317
-1.22671
-1.19713
-1.0523
-0.819382
-0.538634
-0.257716
-0.0242024
0.12189
0.153702
0.0621006
-0.141542
-0.424395
-0.736416
-1.02024
-1.226
-1.32111
-1.29438
-1.15494
-0.929309
-0.656802
-0.383936
-0.157094
-0.0151963
0.0158053
-0.072554
-0.268455
-0.538734
-0.832855
-1.09234
-1.26492
-1.3138
-1.22128
-0.987448
-0.62745
-0.167988
0.35563
0.901962
1.42386
1.86766
2.17722
2.3044
2.22293
5.3861
4.77828
4.11703
3.50655
3.0344
2.74632
2.63739
2.66113
2.74206
2.79625
2.75024
2.55023
2.17141
1.62275
0.954846
0.254739
-0.370449
-0.833061
-1.08105
-1.10275
-0.918901
-0.577878
-0.147693
0.290534
0.656088
0.882108
0.921905
0.756607
0.39947
-0.0966504
-0.644209
-1.13668
-1.48671
-1.6417
-1.58847
-1.34554
-0.95857
-0.492637
-0.0258587
0.363825
0.611836
0.673186
0.530017
0.195857
-0.277019
-0.802393
-1.2755
-1.61044
-1.75545
-1.69747
-1.45453
-1.07134
-0.61161
-0.151874
0.231526
0.475366
0.535645
0.394964
0.066687
-0.397872
-0.914185
-1.37959
-1.70997
-1.85465
-1.80084
-1.56624
-1.19459
-0.748223
-0.301979
0.0695268
0.304542
0.360165
0.21959
-0.103747
-0.559009
-1.06235
-1.51134
-1.82032
-1.93438
-1.83282
-1.5209
-1.02462
-0.383311
0.3541
1.1346
1.89934
2.57153
3.05872
3.27214
3.15662
6.41057
5.50914
4.48474
3.56021
2.89962
2.5807
2.58072
2.81301
3.13842
3.40966
3.50994
3.34973
2.88546
2.11498
1.11491
0.0319931
-0.921619
-1.59864
-1.92107
-1.88731
-1.53436
-0.940691
-0.208436
0.531575
1.14917
1.54414
1.64087
1.40564
0.842961
0.0319549
-0.881331
-1.68826
-2.24336
-2.46843
-2.35966
-1.95096
-1.31703
-0.556026
0.205477
0.841211
1.25395
1.37034
1.15794
0.621666
-0.160441
-1.0448
-1.82652
-2.36271
-2.57655
-2.46419
-2.05879
-1.43354
-0.684642
0.0638443
0.688176
1.09313
1.20692
0.997921
0.471119
-0.296869
-1.16529
-1.93344
-2.46139
-2.67403
-2.56768
-2.17493
-1.56748
-0.839508
-0.112436
0.492658
0.882573
0.987016
0.774883
0.250904
-0.510074
-1.37013
-2.13197
-2.65643
-2.86546
-2.74729
-2.31983
-1.63064
-0.737025
0.29052
1.38993
2.50809
3.5418
4.33445
4.71357
4.55379
7.77977
6.41741
4.7089
3.23391
2.27276
1.95566
2.18943
2.8307
3.61276
4.26923
4.64473
4.58707
4.04043
2.93782
1.39427
-0.376978
-1.87111
-2.87486
-3.27402
-3.13157
-2.49646
-1.5031
-0.280382
0.948859
1.96282
2.63561
2.83784
2.52618
1.644
0.307806
-1.27164
-2.60254
-3.47527
-3.77595
-3.5628
-2.88075
-1.85854
-0.620175
0.617872
1.63967
2.32274
2.54092
2.25218
1.40143
0.103336
-1.43506
-2.73116
-3.57922
-3.86745
-3.65293
-2.97966
-1.97387
-0.757128
0.458291
1.46068
2.13009
2.34298
2.05846
1.2228
-0.0512867
-1.56086
-2.83319
-3.66691
-3.95281
-3.747
-3.09282
-2.11397
-0.929541
0.252711
1.22561
1.87164
2.06969
1.7792
0.9468
-0.318498
-1.81935
-3.09443
-3.94678
-4.2677
-4.10714
-3.49567
-2.53102
-1.2836
0.123453
1.61824
3.23843
4.8592
6.20566
6.93101
6.73101
9.86583
7.82537
4.59793
2.16848
0.718785
0.537381
1.21123
2.64559
4.26789
5.53338
6.40327
6.52849
5.996
4.3956
2.00148
-1.18504
-3.52678
-5.02173
-5.40698
-5.08528
-3.97451
-2.39586
-0.361767
1.6761
3.26769
4.40463
4.77476
4.4682
3.09879
0.933874
-2.01991
-4.17666
-5.53101
-5.82344
-5.44124
-4.30046
-2.71138
-0.683938
1.3416
2.9258
4.06094
4.44137
4.15564
2.8253
0.713071
-2.1743
-4.28107
-5.60194
-5.88239
-5.50235
-4.37946
-2.81804
-0.827793
1.15942
2.71259
3.82437
4.19523
3.91254
2.60576
0.533308
-2.29811
-4.36463
-5.66135
-5.93969
-5.57205
-4.4783
-2.95654
-1.01651
0.919268
2.42916
3.50574
3.85582
3.56378
2.26602
0.212231
-2.59375
-4.66564
-6.00241
-6.3633
-6.11633
-5.18007
-3.83861
-2.06008
-0.169969
1.66596
3.96789
6.57154
8.97122
10.4809
10.3345
13.5304
10.9449
3.33992
-0.306164
-2.66077
-2.11228
-0.862141
2.1898
5.43676
7.36717
9.23407
9.41699
9.48929
6.9963
3.74969
-3.20966
-6.40191
-8.76668
-8.55802
-8.17534
-6.12643
-3.94454
-0.448689
3.04587
5.22718
7.27778
7.68602
7.94064
5.699
2.6958
-3.91601
-6.90636
-9.11606
-8.84253
-8.41216
-6.36585
-4.19559
-0.745094
2.70072
4.85846
6.88577
7.30098
7.5632
5.37497
2.43887
-4.03775
-6.96281
-9.12299
-8.84857
-8.42164
-6.41086
-4.27988
-0.894231
2.48542
4.59996
6.58543
6.98845
7.24117
5.09113
2.21067
-4.13694
-7.00472
-9.12239
-8.85692
-8.44281
-6.48021
-4.40157
-1.09748
2.19898
4.25654
6.18588
6.56647
6.79649
4.67381
1.82602
-4.42533
-7.29547
-9.46336
-9.33427
-9.11816
-7.44797
-5.77564
-2.99725
-0.385439
1.04252
4.26269
8.57736
13.0181
16.4153
16.9062
20.4645
21.2936
-3.61843
-4.63952
-10.22
-5.77225
-5.53013
1.45322
8.50153
9.29246
14.4899
12.4648
16.6766
10.6822
10.8443
-10.6589
-10.4686
-16.2174
-11.9597
-13.6648
-8.46986
-7.38532
-0.53375
6.30673
7.37492
12.5159
10.8185
15.0077
9.39584
9.65415
-11.027
-10.7602
-16.277
-12.0875
-13.71
-8.60975
-7.52335
-0.799506
5.91465
6.97894
12.032
10.3809
14.4994
9.00155
9.26303
-11.0154
-10.746
-16.1499
-12.0344
-13.6217
-8.61536
-7.54843
-0.952055
5.63319
6.67316
11.6252
9.99808
14.0298
8.62827
8.88073
-10.9868
-10.725
-16.0151
-11.9882
-13.5434
-8.64921
-7.61123
-1.16747
5.26271
6.26854
11.0962
9.49392
13.417
8.12573
8.34094
-11.1258
-10.9365
-16.2319
-12.4305
-14.2138
-9.71892
-9.30533
-3.69454
1.10382
-2.16182
2.98117
10.4013
18.5674
26.5345
30.9897
30.3278
68.6992
-44.9809
-2.40852
-32.2176
-3.37336
-19.9037
0.624936
20.5788
4.87444
30.1479
6.53394
38.5631
5.50527
49.139
-49.3439
-5.9803
-38.0745
-6.7719
-29.0873
-4.89122
-19.1275
-0.59963
17.8829
3.66111
27.6046
5.47781
36.1918
4.64317
46.7689
-48.2993
-6.28191
-37.4111
-6.95917
-28.6848
-5.06968
-18.965
-0.835921
17.2684
3.35968
26.8364
5.15664
35.2874
4.33885
45.6689
-47.5779
-6.35538
-36.8804
-7.00394
-28.3122
-5.14293
-18.7752
-0.989631
16.7704
3.11719
26.1431
4.86321
34.4063
4.02785
44.5276
-46.8188
-6.44648
-36.3207
-7.07723
-27.9275
-5.26153
-18.6016
-1.21427
16.1411
2.78062
25.2691
4.46817
33.3098
3.65147
43.2011
-46.1284
-6.67676
-36.0973
-7.48209
-28.3476
-6.11042
-20.3168
-3.21984
14.2072
-17.4717
-1.57645
11.1537
24.4064
41.7138
69.5623
28856.6
28818.1
28779.4
28740.7
28702
28663.3
28624.7
28586.1
28547.6
28509.3
28471
28432.9
28394.9
28356.9
28319
0.180209
0.13902
0.086246
0.0278983
-0.0299
-0.0817537
-0.123533
-0.152591
-0.167727
-0.168979
-0.157353
-0.134549
-0.102722
-0.0643062
-0.0218842
0.318354
0.24431
0.149725
0.0457249
-0.056562
-0.147546
-0.220099
-0.269853
-0.295027
-0.295986
-0.274711
-0.234296
-0.178535
-0.111623
-0.0379607
0.486295
0.370199
0.222678
0.0618894
-0.0944802
-0.231726
-0.339427
-0.411663
-0.446514
-0.445203
-0.411191
-0.349376
-0.265491
-0.165687
-0.0562956
0.700946
0.527517
0.308898
0.0736377
-0.151519
-0.345449
-0.494216
-0.590855
-0.634159
-0.62712
-0.575471
-0.486526
-0.368363
-0.229338
-0.07783
0.985434
0.730019
0.411758
0.0752803
-0.239786
-0.504337
-0.701132
-0.823382
-0.872145
-0.853644
-0.777047
-0.652891
-0.492098
-0.305471
-0.103516
1.3727
0.99536
0.53283
0.0555081
-0.37857
-0.73098
-0.982594
-1.12939
-1.17739
-1.13826
-1.02618
-0.855891
-0.641666
-0.396932
-0.134279
1.91134
1.34589
0.66869
-0.00751225
-0.599025
-1.05842
-1.36887
-1.5342
-1.56977
-1.49583
-1.33352
-1.10282
-0.821743
-0.506309
-0.170946
2.6755
1.80816
0.80355
-0.155226
-0.951598
-1.53481
-1.90026
-2.06878
-2.07166
-1.94176
-1.70926
-1.40013
-1.03617
-0.635616
-0.214139
3.78216
2.40771
0.892574
-0.465343
-1.51733
-2.22896
-2.62856
-2.769
-2.70632
-2.49029
-2.1616
-1.75228
-1.28719
-0.785843
-0.264135
5.42148
3.14796
0.824387
-1.08138
-2.42342
-3.23515
-3.61602
-3.67233
-3.49434
-3.15146
-2.69458
-2.1602
-1.57446
-0.956432
-0.320691
7.90575
3.93826
0.338401
-2.2611
-3.85982
-4.67217
-4.92803
-4.80996
-4.44723
-3.92663
-3.30505
-2.61946
-1.894
-1.14474
-0.382887
11.7078
4.36083
-1.14798
-4.44159
-6.08257
-6.66567
-6.61395
-6.19224
-5.55798
-4.80278
-3.97952
-3.1186
-2.23735
-1.34562
-0.449009
17.1857
2.94506
-4.84966
-8.27474
-9.36317
-9.29396
-8.66983
-7.78707
-6.78966
-5.74696
-4.69165
-3.63804
-2.59118
-1.55137
-0.516536
21.8454
-4.91677
-12.9211
-14.4446
-13.8014
-12.4771
-10.9843
-9.49655
-8.0666
-6.70376
-5.40207
-4.15073
-2.93795
-1.75216
-0.582298
0.553231
1.66719
2.80413
3.981
5.21749
6.53771
7.9726
9.56355
11.3678
13.4656
15.968
19.0058
22.6091
25.9725
23.3379
0.564323
1.70082
2.86143
4.06408
5.32992
6.6854
8.16557
9.81964
11.7208
13.9854
16.8134
20.5881
26.1651
35.8818
57.7614
0.569961
1.71772
2.88953
4.10329
5.38012
6.74652
8.2378
9.90415
11.8215
14.1139
17.0013
20.919
26.8461
37.3431
60.2389
0.570157
1.71792
2.8885
4.09871
5.36814
6.72092
8.1885
9.81434
11.6619
13.829
16.4736
19.854
24.353
30.1936
34.9172
0.565182
1.70228
2.85994
4.05302
5.2983
6.6156
8.02931
9.57059
11.2804
13.2125
15.4346
18.0115
20.9269
23.8194
25.4965
0.555527
1.67238
2.80679
3.97107
5.17845
6.44335
7.78156
9.2099
10.7444
12.3948
14.1491
15.9334
17.5154
18.2878
16.7772
0.54185
1.63027
2.73289
3.85921
5.01867
6.2202
7.47125
8.77552
10.1281
11.5051
12.8427
13.9955
14.6655
14.3408
12.637
0.524895
1.57832
2.64254
3.72435
4.82967
5.96266
7.124
8.30765
9.49481
10.6428
11.6649
12.3929
12.5064
11.3514
7.19166
0.505416
1.51887
2.53999
3.57316
4.62146
5.68544
6.76126
7.83736
8.8888
9.86818
10.6913
11.2172
11.2283
10.4488
8.84611
0.484118
1.4541
2.42906
3.41149
4.40235
5.39999
6.39834
7.38419
8.33286
9.2021
9.92418
10.3991
10.4995
10.1179
9.32024
0.461612
1.38586
2.31296
3.24397
4.17855
5.11405
6.04411
6.95683
7.83209
8.63823
9.32874
9.84123
10.1053
10.076
9.83156
0.438394
1.31566
2.19414
3.07397
3.95413
4.83189
5.70193
6.5555
7.37931
8.15465
8.85695
9.45588
9.91484
10.1835
10.1614
0.414848
1.2446
2.07439
2.90374
3.7314
4.55508
5.3712
6.17484
6.96019
7.72182
8.45696
9.16774
9.85656
10.4929
10.9222
0.39126
1.17353
1.95496
2.73468
3.51144
4.28355
5.04915
5.80688
6.55755
7.30738
8.07389
8.89487
9.83475
10.946
11.9295
0.367847
1.10305
1.83671
2.56769
3.29471
4.01654
4.73256
5.44385
6.15552
6.88136
7.65301
8.53944
9.69393
11.488
14.9672
0.344777
1.03363
1.72034
2.40346
3.08158
3.75359
4.41928
5.08055
5.74365
6.42356
7.15243
7.99787
9.10898
10.8597
14.4009
0.322199
0.965692
1.60647
2.24271
2.8727
3.49503
4.10909
4.71599
5.32013
5.93176
6.57091
7.27182
8.07989
8.98806
9.48696
0.300248
0.899647
1.49574
2.08631
2.66915
3.24221
3.80387
4.35336
4.89142
5.42087
5.94652
6.47137
6.9813
7.40067
7.53776
0.279061
0.835898
1.38886
1.93528
2.47239
2.99732
3.50711
3.99869
4.46868
4.91264
5.32269
5.6813
5.9456
6.00931
5.59484
0.258765
0.774844
1.28652
1.79072
2.28409
2.76295
3.223
3.65901
4.06404
4.42796
4.7346
4.95672
5.04924
4.95004
4.64825
0.239478
0.716847
1.18939
1.65367
2.10588
2.54164
2.9556
3.34086
3.68796
3.98307
4.20522
4.32216
4.28602
4.03146
3.46153
0.221295
0.662204
1.098
1.525
1.93911
2.33549
2.70814
3.04923
3.34798
3.58886
3.74891
3.79391
3.67449
3.33192
2.78502
0.204279
0.611115
1.01271
1.4053
1.78466
2.14581
2.4826
2.78702
3.04819
3.25079
3.37252
3.37985
3.21794
2.77427
1.69513
0.188458
0.563668
0.933683
1.29479
1.64285
1.97306
2.27954
2.55484
2.7891
2.96889
3.07559
3.08332
2.95707
2.65794
2.21018
0.173824
0.519829
0.860845
1.19334
1.51345
1.81678
2.09814
2.35117
2.56784
2.73774
2.84741
2.87986
2.81625
2.64483
2.38598
0.160332
0.479457
0.793926
1.1005
1.39571
1.67577
1.93643
2.17277
2.37905
2.54845
2.67286
2.7431
2.75032
2.69246
2.59788
0.147908
0.442319
0.732494
1.01554
1.28849
1.54825
1.7916
2.01525
2.21589
2.39039
2.53596
2.65012
2.72961
2.76559
2.72767
0.136462
0.408126
0.676012
0.937612
1.19045
1.43213
1.66047
1.87372
2.0709
2.25244
2.42087
2.58124
2.73911
2.89006
2.99494
0.12589
0.376557
0.623899
0.865769
1.10015
1.32527
1.53983
1.74335
1.93679
2.1236
2.31138
2.51411
2.75342
3.04655
3.30726
0.116093
0.347298
0.57559
0.799133
1.01629
1.22576
1.42686
1.61998
1.80728
1.99411
2.19152
2.42159
2.73039
3.22556
4.2066
0.106977
0.320064
0.530581
0.736939
0.937763
1.13206
1.31946
1.50066
1.67812
1.85729
2.04899
2.27442
2.57796
3.06717
4.06686
0.098465
0.294616
0.488465
0.678591
0.863779
1.04315
1.21637
1.38395
1.54777
1.71177
1.88304
2.07303
2.2966
2.55431
2.70692
0.090494
0.27077
0.448935
0.623678
0.793841
0.958522
1.11719
1.26987
1.41731
1.56121
1.70412
1.84832
1.99155
2.11447
2.16536
0.0830184
0.24839
0.411785
0.571948
0.727717
0.878075
1.02219
1.15942
1.28932
1.41137
1.5243
1.62431
1.70063
1.72467
1.61941
0.0760051
0.227385
0.376884
0.523272
0.665356
0.801973
0.931963
1.05408
1.1668
1.26786
1.35346
1.41678
1.44603
1.42466
1.35091
0.0694299
0.207689
0.344145
0.47759
0.606797
0.730479
0.847214
0.95528
1.05237
1.1351
1.1981
1.23292
1.22658
1.16105
1.00882
0.0632725
0.189246
0.313499
0.434855
0.552079
0.663817
0.768491
0.864107
0.947945
1.01603
1.06234
1.07764
1.04826
0.957666
0.811696
0.0575123
0.172001
0.284869
0.394994
0.501176
0.602068
0.696065
0.781122
0.854461
0.912105
0.948134
0.953394
0.912462
0.792747
0.490087
0.0521251
0.155882
0.258145
0.357876
0.453953
0.545113
0.629854
0.706283
0.771888
0.823196
0.855303
0.861239
0.831385
0.754883
0.638978
0.0470813
0.140802
0.233184
0.323299
0.410148
0.492622
0.569423
0.63897
0.699251
0.747632
0.780658
0.79395
0.782716
0.744391
0.686188
0.0423452
0.126652
0.2098
0.290993
0.369388
0.444076
0.514037
0.578101
0.634886
0.682743
0.719728
0.743704
0.752873
0.747715
0.737354
0.0378761
0.113308
0.187778
0.260633
0.331208
0.398818
0.462754
0.522296
0.576732
0.625414
0.667845
0.703755
0.732993
0.754665
0.763783
0.0336298
0.100635
0.166879
0.231861
0.295093
0.356117
0.41453
0.470045
0.522582
0.572437
0.620502
0.668452
0.718381
0.770348
0.81571
0.0295607
0.0884924
0.14686
0.204308
0.260517
0.315235
0.368327
0.41987
0.470306
0.520714
0.573251
0.631789
0.702371
0.790633
0.878879
0.0256239
0.0767428
0.127483
0.17762
0.226982
0.275488
0.323208
0.370473
0.41806
0.467524
0.521846
0.586776
0.674102
0.81095
1.0708
0.0217774
0.0652582
0.108526
0.151473
0.194047
0.236293
0.278412
0.320862
0.364519
0.410974
0.463088
0.526227
0.611461
0.745866
1.01332
0.0179828
0.0539229
0.0897959
0.125589
0.161345
0.197192
0.233394
0.270421
0.309047
0.350504
0.396687
0.450349
0.514693
0.588412
0.63186
0.0142064
0.0426359
0.0711235
0.0997357
0.128584
0.15785
0.187811
0.218877
0.251618
0.286764
0.325104
0.367071
0.411432
0.452001
0.474774
0.010419
0.0313103
0.0523673
0.073722
0.0955392
0.118031
0.141468
0.166179
0.19253
0.220818
0.251016
0.282144
0.310824
0.327965
0.309529
0.00659523
0.0198711
0.033407
0.0473908
0.0620307
0.077562
0.0942457
0.112352
0.132105
0.153555
0.176294
0.198929
0.218243
0.228653
0.226887
0.00271274
0.00825278
0.0141384
0.0206076
0.027908
0.0362986
0.046043
0.0573884
0.0705122
0.0854071
0.101656
0.118035
0.131859
0.137808
0.12364
-0.00124871
-0.00360399
-0.00553274
-0.00674934
-0.006967
-0.00589917
-0.00326481
0.0011976
0.00769801
0.0163286
0.0269386
0.0389247
0.0509557
0.0609452
0.0684871
-0.00530831
-0.0157555
-0.0256959
-0.0347964
-0.0427302
-0.0491792
-0.0538355
-0.0564009
-0.056587
-0.0541152
-0.0487245
-0.0402055
-0.0285185
-0.0142076
-0.000100403
-0.00948504
-0.0282574
-0.04644
-0.0636501
-0.0795199
-0.0936989
-0.105852
-0.115644
-0.122709
-0.126577
-0.12655
-0.121526
-0.109804
-0.0892097
-0.0590255
-0.0137985
-0.0411674
-0.0678569
-0.0934313
-0.117479
-0.13962
-0.159501
-0.176775
-0.191045
-0.201734
-0.207838
-0.207486
-0.197242
-0.170862
-0.114816
-0.01827
-0.0545477
-0.0900458
-0.124269
-0.156759
-0.187106
-0.214954
-0.239984
-0.261858
-0.280067
-0.293599
-0.300305
-0.295876
-0.273107
-0.226996
-0.0229233
-0.0684681
-0.113118
-0.156307
-0.197523
-0.236323
-0.272357
-0.305377
-0.335209
-0.361639
-0.384092
-0.400846
-0.407235
-0.391552
-0.324062
-0.0277855
-0.0830089
-0.137201
-0.189713
-0.23996
-0.287454
-0.331847
-0.372978
-0.410916
-0.445965
-0.478531
-0.508575
-0.53391
-0.545961
-0.52598
-0.0328886
-0.0982645
-0.162449
-0.224689
-0.284305
-0.340735
-0.393597
-0.442789
-0.48862
-0.532006
-0.574712
-0.619563
-0.669796
-0.722601
-0.726159
-0.03827
-0.114346
-0.189044
-0.261484
-0.33086
-0.396488
-0.45789
-0.514927
-0.568016
-0.618509
-0.669394
-0.726803
-0.803884
-0.933424
-1.21897
-0.0439727
-0.131385
-0.217205
-0.300404
-0.380013
-0.45517
-0.525209
-0.589801
-0.649208
-0.70473
-0.759537
-0.82037
-0.901527
-1.0359
-1.31042
-0.0500456
-0.149527
-0.247184
-0.341815
-0.432254
-0.517403
-0.596306
-0.668269
-0.73309
-0.791439
-0.845485
-0.899813
-0.962203
-1.04102
-1.11987
-0.0565413
-0.168935
-0.279262
-0.386135
-0.488164
-0.583969
-0.672215
-0.751691
-0.821461
-0.881128
-0.931228
-0.973646
-1.01146
-1.0461
-1.06786
-0.0635147
-0.189779
-0.313736
-0.433815
-0.548394
-0.655781
-0.75421
-0.841846
-0.91684
-0.977454
-1.0223
-1.05067
-1.0629
-1.06013
-1.04246
-0.0710194
-0.212223
-0.350902
-0.485312
-0.613613
-0.73381
-0.843696
-0.940776
-1.0222
-1.08472
-1.12479
-1.13889
-1.12475
-1.08449
-1.03247
-0.0791039
-0.236418
-0.391029
-0.541051
-0.684457
-0.818996
-0.94207
-1.05057
-1.14068
-1.20759
-1.24531
-1.24673
-1.20473
-1.11699
-1.00016
-0.0878085
-0.262491
-0.434343
-0.601381
-0.761456
-0.91214
-1.05056
-1.17314
-1.27526
-1.35071
-1.39104
-1.38471
-1.31646
-1.1697
-0.955303
-0.0971616
-0.290528
-0.480997
-0.666543
-0.844973
-1.0138
-1.17004
-1.30992
-1.42835
-1.51821
-1.56916
-1.56569
-1.4827
-1.26938
-0.767849
-0.107179
-0.320576
-0.531069
-0.736646
-0.935156
-1.12419
-1.30089
-1.46159
-1.60128
-1.71273
-1.78506
-1.8019
-1.73945
-1.5692
-1.29856
-0.117864
-0.35264
-0.584552
-0.811654
-1.03192
-1.24315
-1.44284
-1.62783
-1.79383
-1.9344
-2.03949
-2.09315
-2.07105
-1.93871
-1.64202
-0.129208
-0.386691
-0.641376
-0.891409
-1.13495
-1.37013
-1.59498
-1.80727
-2.00402
-2.18071
-2.32963
-2.43702
-2.47921
-2.42237
-2.25714
-0.141202
-0.422685
-0.701427
-0.975673
-1.24378
-1.50426
-1.75586
-1.99749
-2.22814
-2.44631
-2.6486
-2.82617
-2.95613
-2.98128
-2.75343
-0.153834
-0.460581
-0.7646
-1.0642
-1.3579
-1.64457
-1.92365
-2.19534
-2.46092
-2.72292
-2.98475
-3.24837
-3.50582
-3.7159
-3.77669
-0.167106
-0.500371
-0.830842
-1.15682
-1.47689
-1.79016
-2.09657
-2.39743
-2.69619
-2.99965
-3.31965
-3.67484
-4.08841
-4.55419
-4.80167
-0.181034
-0.5421
-0.900203
-1.25354
-1.60061
-1.9405
-2.27334
-2.60097
-2.92819
-3.26489
-3.6301
-4.06077
-4.63475
-5.54407
-7.38155
-0.195659
-0.585886
-0.972875
-1.3546
-1.7293
-2.09575
-2.45373
-2.80478
-3.15359
-3.51034
-3.89508
-4.34717
-4.9482
-5.88939
-7.70216
-0.21104
-0.631919
-1.0492
-1.46054
-1.86372
-2.25688
-2.63892
-3.01014
-3.37349
-3.73633
-4.1133
-4.53013
-5.02542
-5.62945
-6.19159
-0.227256
-0.680448
-1.12966
-1.57214
-2.00509
-2.42574
-2.8316
-3.22098
-3.59374
-3.9525
-4.30384
-4.65859
-5.02714
-5.39858
-5.68979
-0.244386
-0.731744
-1.21478
-1.69036
-2.155
-2.60486
-3.03574
-3.44334
-3.82372
-4.17382
-4.49199
-4.77748
-5.02684
-5.22344
-5.31165
-0.262499
-0.786041
-1.30508
-1.81616
-2.31518
-2.79715
-3.25602
-3.68461
-4.07471
-4.4173
-4.70285
-4.92144
-5.06317
-5.12356
-5.1341
-0.281624
-0.843465
-1.4009
-1.95034
-2.4872
-3.00549
-3.49733
-3.95261
-4.35869
-4.70038
-4.9602
-5.11878
-5.15597
-5.05831
-4.85662
-0.301724
-0.903949
-1.50227
-2.09324
-2.67211
-3.23218
-3.76402
-4.25477
-4.68738
-5.04032
-5.28785
-5.4004
-5.34242
-5.0653
-4.57111
-0.322671
-0.967146
-1.60874
-2.24454
-2.87009
-3.47846
-4.05925
-4.59729
-5.07137
-5.45345
-5.70922
-5.80043
-5.68104
-5.22304
-3.67787
-0.344221
-1.03234
-1.71922
-2.40296
-3.07998
-3.7439
-4.38417
-4.98422
-5.51925
-5.9543
-6.24485
-6.34672
-6.25478
-6.13575
-6.81972
-0.365991
-1.09841
-1.83187
-2.56605
-3.29896
-4.02574
-4.737
-5.4163
-6.03656
-6.55547
-6.9115
-7.02758
-6.84733
-6.49078
-6.84991
-0.387455
-1.16376
-1.94401
-2.73003
-3.5222
-4.31836
-5.11202
-5.88937
-6.62424
-7.26974
-7.74478
-7.91422
-7.56227
-6.34877
-3.58483
-0.407951
-1.22636
-2.05213
-2.88973
-3.74266
-4.6127
-5.49835
-6.39192
-7.27399
-8.10236
-8.79027
-9.16292
-8.87546
-7.28343
-3.37925
-0.42671
-1.28383
-2.15206
-3.03877
-3.95122
-4.89619
-5.87916
-6.90246
-7.961
-9.03252
-10.0547
-10.87
-11.0946
-9.8237
-5.15584
-0.442899
-1.33359
-2.23913
-3.16993
-4.1372
-5.15328
-6.23196
-7.38851
-8.63897
-9.99694
-11.4627
-12.9874
-14.3522
-14.723
-10.8518
-0.455686
-1.37304
-2.30867
-3.27576
-4.28927
-5.3669
-6.53067
-7.80933
-9.24228
-10.8865
-12.8297
-15.2157
-18.3002
-22.568
-28.9312
-11.9902
-27.2101
-25.7068
-21.9571
-18.4765
-15.5588
-13.115
-11.023
-9.18565
-7.53255
-6.01297
-4.58959
-3.23394
-1.92326
-0.638296
-116.942
-61.0064
-39.3936
-28.7174
-22.3518
-18.0229
-14.7953
-12.2225
-10.0659
-8.18624
-6.49624
-4.93768
-3.46921
-2.05945
-0.6829
-129.986
-70.9676
-45.4854
-32.4841
-24.8126
-19.7221
-16.0208
-13.1331
-10.7539
-8.70819
-6.88821
-5.22321
-3.66369
-2.17258
-0.720038
-71.384
-57.6393
-42.9099
-32.5494
-25.4812
-20.4566
-16.6812
-13.6904
-11.2103
-9.07336
-7.17253
-5.43548
-3.81065
-2.25892
-0.748517
-50.3794
-44.9945
-37.3003
-30.3284
-24.7304
-20.3236
-16.7969
-13.8931
-11.4282
-9.27457
-7.34312
-5.56982
-3.90683
-2.31657
-0.767709
-31.9938
-33.9534
-31.1891
-27.1533
-23.1523
-19.5793
-16.4798
-13.791
-11.43
-9.32149
-7.40385
-5.62753
-3.9525
-2.34546
-0.777562
-23.6067
-26.1926
-25.9608
-23.954
-21.2769
-18.5061
-15.8776
-13.4613
-11.2563
-9.23586
-7.36643
-5.6149
-3.95095
-2.34717
-0.778541
-13.1344
-20.3885
-21.9652
-21.2202
-19.4665
-17.3341
-15.1281
-12.9848
-10.9544
-9.04536
-7.24712
-5.54145
-3.90759
-2.32447
-0.771497
-15.8669
-18.5268
-19.5819
-19.1869
-17.919
-16.213
-14.335
-12.4299
-10.5683
-8.77787
-7.06351
-5.41812
-3.82897
-2.28084
-0.757518
-16.5827