/*--------------------------------*- C++ -*----------------------------------*\
| =========                 |                                                 |
| \\      /  F ield         | OpenFOAM: The Open Source CFD Toolbox           |
|  \\    /   O peration     | Version:  5.x                                   |
|   \\  /    A nd           | Web:      www.OpenFOAM.org                      |
|    \\/     M anipulation  |                                                 |
\*---------------------------------------------------------------------------*/
FoamFile
{
    version     2.0;
    format      ascii;
    class       volScalarField;
    location    "2";
    object      gradTy;
}
// * * * * * * * * * * * * * * * * * * * * * * * * * * * * * * * * * * * * * //

dimensions      [0 -1 0 1 0 0 0];

internalField   nonuniform List<scalar> 
3200
(
17.8727
8.47743
11.4958
8.17579
9.56937
7.92144
8.64693
7.68906
8.11802
7.50778
7.76993
7.42881
7.6287
7.23921
7.44052
7.07055
7.25914
6.9199
7.09161
6.786
6.93986
6.66805
6.80438
6.5649
6.68506
6.47467
6.58212
6.39409
6.50301
6.34264
6.2123
6.29638
6.18084
6.23724
6.14644
6.19044
6.11736
6.15267
6.09376
6.12208
6.07503
6.0975
6.06046
6.07799
6.04941
6.06274
6.04139
6.05105
6.03617
6.04236
6.03444
6.03857
6.03125
6.03432
6.02986
6.03113
6.03058
6.02936
6.03413
6.02935
6.04189
6.03162
6.05641
6.03685
6.08271
6.04534
6.13171
6.05234
6.22908
6.0061
6.29935
7.1134
6.42747
7.94972
6.78452
9.89646
9.12678
9.00907
8.98477
8.97954
16.6609
9.56776
11.1095
8.62658
9.37386
8.14325
8.53175
7.81574
8.04436
7.5878
7.72778
7.47316
7.57969
7.28791
7.39425
7.1171
7.21681
6.96271
7.05353
6.82464
6.90603
6.70245
6.77458
6.59524
6.65885
6.50131
6.55835
6.41774
6.47681
6.34593
6.23611
6.28229
6.19598
6.22604
6.15808
6.1814
6.12668
6.14538
6.10127
6.11627
6.08103
6.09293
6.06519
6.07447
6.05307
6.06013
6.04414
6.04926
6.03811
6.0414
6.03549
6.03768
6.0322
6.03381
6.03047
6.03113
6.03071
6.03005
6.03362
6.03107
6.04044
6.03496
6.05349
6.04303
6.07729
6.05719
6.12158
6.07817
6.20905
6.08156
6.35759
6.9983
6.62887
7.76757
7.16154
9.50369
9.10074
9.00537
8.98405
8.97937
15.7328
10.3127
10.8841
8.94819
9.25749
8.30033
8.46078
7.90466
7.99812
7.64398
7.70144
7.50309
7.54663
7.3207
7.36333
7.1486
7.18864
6.99174
7.02825
6.85087
6.8836
6.72584
6.75486
6.61586
6.64149
6.51938
6.5425
6.4334
6.45821
6.34839
6.25369
6.27349
6.20647
6.21876
6.16606
6.17549
6.13307
6.14061
6.10642
6.11246
6.08516
6.08995
6.06845
6.07219
6.0556
6.05844
6.04605
6.04811
6.03948
6.04081
6.03621
6.0371
6.03286
6.0335
6.03091
6.03117
6.03085
6.03058
6.03335
6.0323
6.03958
6.03733
6.05173
6.04742
6.07404
6.06566
6.11577
6.09702
6.19936
6.14088
6.40123
6.92361
6.76993
7.6552
7.42063
9.22071
9.06239
8.99871
8.98265
8.97901
15.0217
10.8181
10.7592
9.18002
9.1918
8.41271
8.41848
7.96761
7.96981
7.6837
7.68534
7.52336
7.52437
7.34275
7.34272
7.16991
7.16997
7.01144
7.01154
6.8687
6.86881
6.74176
6.74186
6.62991
6.63004
6.53163
6.53193
6.4437
6.44499
6.35024
6.26668
6.26817
6.2138
6.21409
6.17157
6.17166
6.13747
6.13751
6.10997
6.11
6.08799
6.08802
6.0707
6.07071
6.05735
6.05736
6.04738
6.04739
6.04044
6.04046
6.03671
6.03673
6.03333
6.03332
6.03124
6.03123
6.03099
6.03097
6.03323
6.0332
6.0391
6.03904
6.05071
6.05057
6.07219
6.07179
6.1127
6.11102
6.19609
6.18744
6.4344
6.87596
6.86944
7.58762
7.59833
9.01608
9.02025
8.99014
8.98076
8.97849
14.4787
11.1577
10.695
9.34823
9.15777
8.49372
8.39448
8.01246
7.95305
7.71194
7.6758
7.53712
7.50942
7.35756
7.32903
7.18432
7.15764
7.02481
7.00055
6.88083
6.8591
6.75259
6.73335
6.63947
6.62254
6.53994
6.52491
6.45043
6.43563
6.35165
6.27628
6.26509
6.21894
6.21113
6.17537
6.1692
6.1405
6.13552
6.11241
6.10842
6.08995
6.08679
6.07225
6.06978
6.05856
6.05668
6.04831
6.04695
6.04112
6.04026
6.03707
6.03649
6.03366
6.03321
6.03149
6.0313
6.03112
6.03128
6.0332
6.03386
6.03886
6.04027
6.05016
6.05285
6.07122
6.07627
6.11134
6.12155
6.19658
6.22377
6.45977
6.84623
6.93995
7.54833
7.71974
8.86798
8.97947
8.98073
8.97857
8.97789
14.0686
11.383
10.6662
9.47021
9.14271
8.55216
8.3818
8.04441
7.94357
7.73198
7.67037
7.54645
7.49945
7.36744
7.32001
7.19401
7.14958
7.03384
6.99339
6.88904
6.8528
6.75995
6.72783
6.64597
6.61766
6.54556
6.52027
6.45478
6.42903
6.35271
6.28331
6.26341
6.22255
6.20929
6.178
6.16764
6.14258
6.13426
6.11409
6.10742
6.0913
6.08601
6.07332
6.06919
6.05941
6.05627
6.04896
6.04669
6.04161
6.04016
6.03731
6.03634
6.03389
6.03316
6.03167
6.03137
6.03123
6.03151
6.03322
6.03434
6.03875
6.04117
6.0499
6.05449
6.07078
6.07954
6.11097
6.12948
6.19897
6.25175
6.47912
6.82821
6.98987
7.52652
7.80208
8.76134
8.94311
8.97146
8.97632
8.97725
13.7659
11.5295
10.6567
9.55748
9.1382
8.59382
8.37582
8.06693
7.93854
7.74605
7.66746
7.55272
7.49289
7.37396
7.31414
7.20046
7.14438
7.03987
6.98879
6.89454
6.84876
6.76488
6.72431
6.65032
6.61455
6.5493
6.51724
6.45753
6.42446
6.35351
6.28837
6.26257
6.22506
6.20818
6.17979
6.16668
6.14399
6.13348
6.11523
6.1068
6.09222
6.08553
6.07406
6.06884
6.05999
6.05602
6.04941
6.04654
6.04195
6.0401
6.03748
6.03625
6.03405
6.03314
6.03181
6.03143
6.03132
6.03169
6.03325
6.03469
6.03873
6.04181
6.0498
6.05567
6.07064
6.0819
6.11112
6.13538
6.20203
6.27275
6.4936
6.81768
7.02479
7.51515
7.85707
8.68581
8.91287
8.96312
8.97423
8.97664
13.5528
11.6216
10.6562
9.61758
9.13871
8.62244
8.3735
8.08224
7.93609
7.75558
7.66601
7.55682
7.48872
7.37812
7.31043
7.20462
7.14112
7.04377
6.98593
6.89811
6.84626
6.76808
6.72213
6.65315
6.61262
6.55172
6.51533
6.45923
6.42141
6.35407
6.29186
6.26221
6.22674
6.20753
6.18097
6.1661
6.14492
6.13301
6.11598
6.10642
6.09283
6.08525
6.07454
6.06863
6.06037
6.05587
6.04971
6.04645
6.04218
6.04008
6.0376
6.0362
6.03416
6.03313
6.0319
6.03148
6.03139
6.03181
6.0333
6.03493
6.03874
6.04225
6.04978
6.05648
6.07064
6.08355
6.11145
6.13957
6.20492
6.28773
6.50395
6.81182
7.04838
7.50971
7.89258
8.63433
8.88971
8.95634
8.97248
8.97613
13.417
11.675
10.6587
9.65531
9.14075
8.64039
8.3729
8.09177
7.93503
7.76149
7.66536
7.55928
7.48626
7.38059
7.30827
7.20709
7.13924
7.0461
6.98427
6.90024
6.84482
6.77
6.72088
6.65485
6.61151
6.55317
6.5142
6.4602
6.41954
6.35444
6.29405
6.26208
6.22778
6.20718
6.18169
6.16578
6.14549
6.13274
6.11644
6.10622
6.0932
6.08509
6.07484
6.06851
6.0606
6.05579
6.0499
6.04641
6.04232
6.04007
6.03767
6.03617
6.03423
6.03313
6.03196
6.03152
6.03144
6.0319
6.03333
6.03508
6.03876
6.04252
6.04979
6.05699
6.07069
6.08458
6.11178
6.14227
6.20711
6.29738
6.51063
6.80882
7.06297
7.5074
7.91374
8.60231
8.87409
8.95158
8.97123
8.97576
13.3509
11.6995
10.6608
9.67352
9.14225
8.64904
8.37287
8.09634
7.93466
7.76431
7.66512
7.56044
7.48512
7.38173
7.30727
7.20824
7.13837
7.04719
6.98352
6.90124
6.84417
6.7709
6.72031
6.65564
6.611
6.55385
6.51368
6.46064
6.41866
6.35461
6.2951
6.26205
6.22828
6.20702
6.18203
6.16564
6.14576
6.13263
6.11665
6.10613
6.09337
6.08502
6.07498
6.06846
6.06071
6.05576
6.04998
6.0464
6.04239
6.04007
6.0377
6.03615
6.03426
6.03313
6.03199
6.03153
6.03146
6.03194
6.03335
6.03516
6.03877
6.04265
6.04981
6.05723
6.07072
6.08509
6.11197
6.1436
6.20828
6.3021
6.51391
6.80757
7.06994
7.50662
7.9236
8.58695
8.86624
8.94913
8.97057
8.97556
-12.9739
-11.2105
-10.0097
-8.70073
-7.90906
-7.03875
-6.4914
-5.85805
-5.45587
-4.9902
-4.70756
-4.39514
-4.16807
-3.8553
-3.63182
-3.33749
-3.13271
-2.86963
-2.68879
-2.45903
-2.30196
-2.10344
-1.96803
-1.79719
-1.68044
-1.53254
-1.42951
-1.29467
-1.18878
-1.02826
-0.879476
-0.796867
-0.712425
-0.659164
-0.596366
-0.554958
-0.50442
-0.470733
-0.429257
-0.401542
-0.367358
-0.344531
-0.316412
-0.297694
-0.274736
-0.25958
-0.2412
-0.229338
-0.215404
-0.206934
-0.197581
-0.190845
-0.181659
-0.175186
-0.166791
-0.161055
-0.153832
-0.148978
-0.14297
-0.13899
-0.134148
-0.131035
-0.127415
-0.125372
-0.123551
-0.123654
-0.12634
-0.133525
-0.153469
-0.19323
-0.294362
-0.453568
-0.618063
-0.919011
-1.23381
-1.76066
-1.98344
-2.04964
-2.06677
-2.07076
-13.0445
-11.1881
-10.0142
-8.68015
-7.9123
-7.02593
-6.49493
-5.8489
-5.45849
-4.98297
-4.70883
-4.3918
-4.17157
-3.8518
-3.63472
-3.33397
-3.1351
-2.8664
-2.6908
-2.45617
-2.30367
-2.10096
-1.96949
-1.79507
-1.68172
-1.53077
-1.43082
-1.29354
-1.19099
-1.02781
-0.876846
-0.796955
-0.711189
-0.659555
-0.595517
-0.555329
-0.50375
-0.471047
-0.428706
-0.4018
-0.366902
-0.34474
-0.31603
-0.297857
-0.274417
-0.2597
-0.24093
-0.22941
-0.215174
-0.206957
-0.197464
-0.19093
-0.181536
-0.175248
-0.16667
-0.161098
-0.153721
-0.149007
-0.142871
-0.139006
-0.13406
-0.131036
-0.127332
-0.125343
-0.123453
-0.123529
-0.126137
-0.132992
-0.152653
-0.190752
-0.292013
-0.45333
-0.612577
-0.918426
-1.22529
-1.77279
-1.98967
-2.05156
-2.06726
-2.07088
-13.1896
-11.1386
-10.0251
-8.63703
-7.9204
-6.99899
-6.50316
-5.8296
-5.46461
-4.96775
-4.7119
-4.38467
-4.17913
-3.84426
-3.64104
-3.32644
-3.14035
-2.8595
-2.69523
-2.45008
-2.30743
-2.09568
-1.97271
-1.79054
-1.68455
-1.527
-1.43364
-1.29105
-1.19565
-1.02689
-0.871389
-0.79729
-0.708598
-0.660451
-0.593721
-0.556161
-0.502327
-0.471749
-0.427539
-0.402377
-0.365933
-0.345206
-0.315223
-0.298226
-0.273741
-0.259975
-0.24036
-0.229581
-0.214692
-0.20702
-0.197215
-0.191116
-0.181276
-0.175388
-0.166412
-0.161198
-0.153486
-0.149076
-0.142663
-0.139046
-0.133875
-0.131044
-0.12716
-0.125288
-0.123255
-0.123281
-0.125743
-0.131925
-0.151076
-0.185723
-0.287237
-0.453146
-0.601197
-0.917769
-1.20712
-1.7981
-2.00205
-2.05529
-2.06819
-2.07111
-13.4168
-11.0516
-10.0472
-8.56715
-7.93679
-6.95513
-6.5186
-5.79806
-5.47609
-4.94298
-4.7179
-4.37274
-4.19193
-3.83153
-3.65188
-3.31383
-3.14945
-2.848
-2.70295
-2.43994
-2.31401
-2.08688
-1.97835
-1.783
-1.68947
-1.5207
-1.43847
-1.2867
-1.20327
-1.02546
-0.862691
-0.798224
-0.704396
-0.6621
-0.590766
-0.55765
-0.499978
-0.472998
-0.42561
-0.403404
-0.364333
-0.346039
-0.31389
-0.298887
-0.272628
-0.260475
-0.239427
-0.229906
-0.213909
-0.207156
-0.196806
-0.191438
-0.180842
-0.175636
-0.165989
-0.161382
-0.153102
-0.149207
-0.142325
-0.139131
-0.133578
-0.131074
-0.126887
-0.12522
-0.122954
-0.122914
-0.125178
-0.130316
-0.148856
-0.177995
-0.27986
-0.45365
-0.583048
-0.91817
-1.17685
-1.83886
-2.02043
-2.0606
-2.06948
-2.07141
-13.7387
-10.9103
-10.0884
-8.4634
-7.96734
-6.88955
-6.54549
-5.75066
-5.4961
-4.90597
-4.72878
-4.35432
-4.21199
-3.81164
-3.66912
-3.29434
-3.16409
-2.83029
-2.71544
-2.42436
-2.32468
-2.07339
-1.98749
-1.77142
-1.69744
-1.51097
-1.44611
-1.27964
-1.21469
-1.02345
-0.850078
-0.800346
-0.698144
-0.66492
-0.586288
-0.560126
-0.496405
-0.475065
-0.422674
-0.405105
-0.361899
-0.347423
-0.311867
-0.299993
-0.270944
-0.261323
-0.238023
-0.23048
-0.212746
-0.207424
-0.196185
-0.191957
-0.18018
-0.176048
-0.165348
-0.161697
-0.152526
-0.149441
-0.141822
-0.139291
-0.13314
-0.131153
-0.126493
-0.125155
-0.122542
-0.122434
-0.124476
-0.128148
-0.14619
-0.167334
-0.269581
-0.455902
-0.556641
-0.921597
-1.13041
-1.8988
-2.04443
-2.06713
-2.07102
-2.07176
-14.1739
-10.6889
-10.1619
-8.31459
-8.02125
-6.79472
-6.5905
-5.68173
-5.52961
-4.85252
-4.74763
-4.32668
-4.24245
-3.7815
-3.69571
-3.26513
-3.18694
-2.80388
-2.73503
-2.40118
-2.34146
-2.05332
-2.00188
-1.7542
-1.70994
-1.4964
-1.45784
-1.26854
-1.23119
-1.02074
-0.832533
-0.804579
-0.689142
-0.669565
-0.579717
-0.564111
-0.491139
-0.478377
-0.418346
-0.407831
-0.358313
-0.349647
-0.308891
-0.301781
-0.268475
-0.26271
-0.235979
-0.231452
-0.211075
-0.207917
-0.19527
-0.192765
-0.179198
-0.176708
-0.164411
-0.162217
-0.151691
-0.149839
-0.141097
-0.139579
-0.132517
-0.13132
-0.125946
-0.125122
-0.122009
-0.121847
-0.123687
-0.125385
-0.143376
-0.153407
-0.255914
-0.461551
-0.519639
-0.93124
-1.06156
-1.98361
-2.07331
-2.07437
-2.07265
-2.0721
-14.7487
-10.3493
-10.2882
-8.10372
-8.11259
-6.65909
-6.66378
-5.58262
-5.58421
-4.77626
-4.7792
-4.28565
-4.28804
-3.73641
-3.73617
-3.22188
-3.22203
-2.76496
-2.76527
-2.36708
-2.36742
-2.02383
-2.02416
-1.72888
-1.72925
-1.47486
-1.47563
-1.25139
-1.25463
-1.01717
-0.808591
-0.812325
-0.676315
-0.67703
-0.570182
-0.570395
-0.483467
-0.483582
-0.412036
-0.412117
-0.35309
-0.353152
-0.304564
-0.304611
-0.264898
-0.264929
-0.233039
-0.233049
-0.208705
-0.20878
-0.193939
-0.194004
-0.17776
-0.177748
-0.163056
-0.163056
-0.150493
-0.150498
-0.140067
-0.140071
-0.131641
-0.131636
-0.125199
-0.125161
-0.121339
-0.12116
-0.122884
-0.121949
-0.14086
-0.135759
-0.238099
-0.473077
-0.468471
-0.952105
-0.961012
-2.10169
-2.1057
-2.08168
-2.07419
-2.07239
-15.4996
-9.83621
-10.4996
-7.80519
-8.26251
-6.46521
-6.78058
-5.44027
-5.67125
-4.66762
-4.83069
-4.22484
-4.35585
-3.66933
-3.79724
-3.15811
-3.27547
-2.70778
-2.8115
-2.31707
-2.40718
-1.98061
-2.05831
-1.69176
-1.75878
-1.44314
-1.50245
-1.22516
-1.28773
-1.01245
-0.776167
-0.825673
-0.658027
-0.688805
-0.55637
-0.58017
-0.472315
-0.491656
-0.40286
-0.418767
-0.345501
-0.3586
-0.298286
-0.309026
-0.259724
-0.268417
-0.228813
-0.235612
-0.205348
-0.210229
-0.192
-0.195884
-0.17566
-0.179363
-0.161099
-0.164385
-0.148778
-0.15156
-0.138605
-0.140886
-0.130412
-0.132193
-0.124179
-0.125335
-0.120506
-0.12038
-0.122168
-0.1177
-0.139285
-0.113794
-0.214958
-0.494162
-0.397751
-0.991932
-0.815165
-2.2652
-2.13917
-2.08831
-2.07548
-2.07257
-16.4771
-9.07016
-10.8454
-7.38067
-8.50269
-6.18688
-6.96367
-5.23512
-5.80775
-4.51238
-4.913
-4.1346
-4.45642
-3.56971
-3.88904
-3.06411
-3.35635
-2.62379
-2.88169
-2.24372
-2.46765
-1.91725
-2.11025
-1.63732
-1.80364
-1.39645
-1.54276
-1.18536
-1.33435
-1.00619
-0.73232
-0.847717
-0.631807
-0.707117
-0.536311
-0.595216
-0.456077
-0.504058
-0.389495
-0.428984
-0.334454
-0.366983
-0.289162
-0.31584
-0.252223
-0.273833
-0.222724
-0.23965
-0.200576
-0.212594
-0.189168
-0.19872
-0.172594
-0.181847
-0.158269
-0.166459
-0.146315
-0.15324
-0.136519
-0.142198
-0.128679
-0.133129
-0.122778
-0.125734
-0.119469
-0.119508
-0.121687
-0.112395
-0.139576
-0.0867472
-0.184677
-0.530252
-0.299387
-1.06257
-0.604225
-2.49172
-2.16962
-2.09338
-2.07634
-2.0726
-17.7511
-7.93696
-11.4009
-6.7728
-8.8805
-5.78496
-7.24708
-4.93803
-6.01906
-4.28938
-5.04256
-4.00044
-4.60542
-3.42193
-4.02669
-2.9255
-3.4783
-2.50023
-2.98778
-2.13595
-2.55914
-1.8242
-2.18888
-1.55735
-1.87149
-1.32765
-1.60325
-1.12533
-1.4001
-0.997777
-0.672917
-0.883031
-0.593949
-0.735285
-0.507071
-0.618192
-0.432356
-0.522966
-0.369967
-0.444563
-0.31832
-0.379778
-0.275851
-0.32626
-0.241305
-0.282149
-0.213902
-0.245918
-0.193748
-0.216365
-0.185002
-0.20297
-0.168095
-0.185628
-0.154151
-0.16965
-0.14275
-0.155847
-0.133518
-0.144259
-0.126205
-0.134635
-0.120821
-0.126479
-0.118155
-0.118527
-0.12164
-0.105605
-0.143042
-0.053645
-0.144464
-0.589368
-0.161233
-1.18204
-0.299418
-2.80658
-2.19018
-2.09604
-2.07663
-2.07244
17.751
7.93701
11.401
6.77283
8.88053
5.78499
7.24711
4.93805
6.01909
4.2894
5.04258
4.00046
4.60544
3.42195
4.02671
2.92552
3.47832
2.50025
2.9878
2.13597
2.55916
1.82423
2.1889
1.55737
1.87151
1.32767
1.60327
1.12536
1.40012
0.997805
0.672943
0.883057
0.593973
0.73531
0.507092
0.618215
0.432374
0.522986
0.369983
0.44458
0.318333
0.379793
0.275861
0.326272
0.241314
0.282159
0.21391
0.245926
0.193754
0.216372
0.185007
0.202975
0.1681
0.185633
0.154155
0.169654
0.142753
0.15585
0.13352
0.144262
0.126207
0.134638
0.120822
0.126481
0.118156
0.118528
0.12164
0.105606
0.143041
0.0536433
0.14446
0.589372
0.161225
1.18206
0.299412
2.80666
2.19024
2.0961
2.07668
2.07248
16.4771
9.0702
10.8454
7.38069
8.50271
6.1869
6.96368
5.23514
5.80776
4.51239
4.91301
4.13461
4.45644
3.56972
3.88905
3.06412
3.35636
2.6238
2.8817
2.24374
2.46766
1.91727
2.11027
1.63734
1.80366
1.39647
1.54278
1.18538
1.33437
1.00621
0.732344
0.847742
0.63183
0.70714
0.536332
0.595238
0.456095
0.504078
0.389511
0.429001
0.334467
0.366998
0.289173
0.315852
0.252233
0.273843
0.222733
0.239659
0.200584
0.212602
0.189175
0.198727
0.1726
0.181853
0.158275
0.166465
0.14632
0.153245
0.136524
0.142203
0.128683
0.133133
0.122781
0.125738
0.119472
0.119511
0.121689
0.112397
0.139577
0.0867482
0.184677
0.530258
0.299387
1.0626
0.604233
2.49179
2.16968
2.09344
2.0764
2.07265
15.4996
9.83624
10.4996
7.8052
8.26252
6.46522
6.78059
5.44027
5.67126
4.66763
4.8307
4.22484
4.35586
3.66933
3.79724
3.15811
3.27548
2.70779
2.8115
2.31708
2.40719
1.98062
2.05832
1.69177
1.75879
1.44316
1.50247
1.22518
1.28774
1.01247
0.776189
0.825696
0.658048
0.688827
0.55639
0.580191
0.472333
0.491675
0.402875
0.418783
0.345514
0.358615
0.298298
0.309038
0.259734
0.268428
0.228822
0.235621
0.205356
0.210237
0.192008
0.195892
0.175667
0.17937
0.161105
0.164392
0.148783
0.151566
0.13861
0.140892
0.130417
0.132199
0.124184
0.12534
0.12051
0.120384
0.122172
0.117704
0.139287
0.113796
0.21496
0.494169
0.397755
0.991954
0.815182
2.26526
2.13924
2.08837
2.07554
2.07262
14.7487
10.3493
10.2882
8.10373
8.1126
6.6591
6.6638
5.58263
5.58422
4.77627
4.77921
4.28566
4.28805
3.73642
3.73618
3.22189
3.22204
2.76497
2.76528
2.36709
2.36743
2.02384
2.02418
1.72889
1.72927
1.47488
1.47565
1.25141
1.25465
1.01719
0.808613
0.812349
0.676337
0.677052
0.570202
0.570415
0.483485
0.483601
0.412051
0.412133
0.353103
0.353166
0.304575
0.304622
0.264907
0.264938
0.233047
0.233057
0.208712
0.208787
0.193945
0.194011
0.177766
0.177754
0.163061
0.163062
0.150497
0.150503
0.140072
0.140076
0.131645
0.13164
0.125203
0.125165
0.121342
0.121163
0.122886
0.121951
0.140861
0.13576
0.2381
0.473081
0.468476
0.952123
0.961031
2.10175
2.10576
2.08174
2.07426
2.07245
14.174
10.6889
10.1619
8.31461
8.02127
6.79474
6.59052
5.68175
5.52963
4.85254
4.74765
4.3267
4.24246
3.78151
3.69573
3.26515
3.18695
2.8039
2.73504
2.4012
2.34147
2.05334
2.0019
1.75422
1.70996
1.49642
1.45786
1.26856
1.23121
1.02077
0.832556
0.804603
0.689165
0.669588
0.579738
0.564131
0.491157
0.478395
0.418361
0.407847
0.358326
0.349661
0.308902
0.301792
0.268485
0.262719
0.235987
0.23146
0.211082
0.207924
0.195276
0.192771
0.179203
0.176713
0.164416
0.162221
0.151694
0.149843
0.1411
0.139582
0.132519
0.131323
0.125949
0.125124
0.122011
0.121849
0.123688
0.125385
0.143376
0.153406
0.255914
0.461554
0.519644
0.931256
1.06158
1.98367
2.07336
2.07442
2.07271
2.07216
13.7388
10.9104
10.0884
8.46342
7.96736
6.88958
6.54551
5.75068
5.49612
4.90599
4.7288
4.35434
4.21201
3.81165
3.66913
3.29436
3.16411
2.83031
2.71545
2.42438
2.3247
2.07341
1.98751
1.77144
1.69746
1.51099
1.44613
1.27966
1.21472
1.02347
0.850102
0.80037
0.698167
0.664943
0.586309
0.560147
0.496423
0.475084
0.422691
0.405121
0.361912
0.347437
0.311878
0.300004
0.270954
0.261332
0.238031
0.230488
0.212753
0.20743
0.19619
0.191962
0.180185
0.176052
0.165352
0.1617
0.152529
0.149444
0.141824
0.139294
0.133142
0.131155
0.126494
0.125157
0.122543
0.122435
0.124476
0.128148
0.146189
0.167333
0.26958
0.455905
0.556647
0.921613
1.13044
1.89885
2.04448
2.06718
2.07108
2.07182
13.4168
11.0516
10.0472
8.56718
7.93682
6.95515
6.51863
5.79808
5.47611
4.943
4.71792
4.37276
4.19195
3.83155
3.65189
3.31385
3.14947
2.84802
2.70297
2.43996
2.31403
2.0869
1.97837
1.78302
1.68949
1.52072
1.43849
1.28672
1.2033
1.02548
0.862717
0.798249
0.704421
0.662124
0.590787
0.557671
0.499998
0.473016
0.425627
0.40342
0.364347
0.346053
0.313902
0.298898
0.272638
0.260484
0.239435
0.229914
0.213916
0.207162
0.196811
0.191444
0.180847
0.175641
0.165993
0.161385
0.153105
0.14921
0.142328
0.139133
0.13358
0.131076
0.126888
0.125221
0.122954
0.122915
0.125178
0.130316
0.148856
0.177994
0.27986
0.453653
0.583054
0.918186
1.17687
1.83891
2.02049
2.06066
2.06954
2.07147
13.1896
11.1386
10.0252
8.63705
7.92043
6.99901
6.50319
5.82963
5.46463
4.96778
4.71192
4.38469
4.17915
3.84428
3.64106
3.32646
3.14037
2.85952
2.69525
2.4501
2.30745
2.0957
1.97274
1.79056
1.68457
1.52703
1.43367
1.29107
1.19568
1.02691
0.871415
0.797316
0.708623
0.660475
0.593744
0.556183
0.502347
0.471768
0.427556
0.402393
0.365947
0.34522
0.315235
0.298237
0.273751
0.259984
0.240368
0.229589
0.214698
0.207026
0.197221
0.191121
0.18128
0.175392
0.166416
0.161202
0.153489
0.149079
0.142666
0.139049
0.133878
0.131046
0.127161
0.12529
0.123256
0.123282
0.125744
0.131925
0.151076
0.185722
0.287237
0.45315
0.601204
0.917786
1.20715
1.79815
2.00211
2.05535
2.06824
2.07116
13.0445
11.1881
10.0142
8.68017
7.91233
7.02595
6.49496
5.84892
5.45852
4.98299
4.70885
4.39182
4.17159
3.85182
3.63474
3.33399
3.13512
2.86642
2.69082
2.45619
2.30369
2.10098
1.96952
1.79509
1.68175
1.5308
1.43084
1.29357
1.19102
1.02783
0.876873
0.796981
0.711214
0.659579
0.59554
0.555351
0.50377
0.471066
0.428724
0.401816
0.366916
0.344753
0.316043
0.297869
0.274427
0.25971
0.240938
0.229418
0.215181
0.206964
0.19747
0.190936
0.181542
0.175253
0.166674
0.161102
0.153724
0.149011
0.142874
0.139009
0.134063
0.131038
0.127334
0.125345
0.123455
0.12353
0.126138
0.132993
0.152653
0.190752
0.292014
0.453334
0.612585
0.918444
1.22532
1.77283
1.98972
2.05162
2.06731
2.07093
12.9739
11.2105
10.0097
8.70076
7.90908
7.03877
6.49142
5.85808
5.45589
4.99022
4.70758
4.39516
4.16809
3.85532
3.63184
3.33751
3.13273
2.86965
2.68881
2.45905
2.30198
2.10346
1.96806
1.79721
1.68046
1.53256
1.42954
1.2947
1.18881
1.02828
0.879503
0.796894
0.71245
0.659188
0.596388
0.55498
0.50444
0.470753
0.429274
0.401559
0.367373
0.344546
0.316424
0.297706
0.274747
0.25959
0.241209
0.229346
0.215411
0.206941
0.197588
0.190851
0.181665
0.175191
0.166796
0.161059
0.153836
0.148982
0.142974
0.138993
0.134151
0.131038
0.127418
0.125375
0.123553
0.123656
0.126341
0.133526
0.15347
0.193232
0.294363
0.453574
0.618073
0.91903
1.23384
1.76071
1.9835
2.04969
2.06682
2.07081
-13.3542
-11.7042
-10.6672
-9.68335
-9.15597
-8.67026
-8.40266
-8.14259
-7.99852
-7.85661
-7.75893
-7.62982
-7.53893
-7.42059
-7.33808
-7.2316
-7.15762
-7.06242
-6.99645
-6.9118
-6.85333
-6.77855
-6.72705
-6.66136
-6.61608
-6.5582
-6.51756
-6.46396
-6.42157
-6.35695
-6.29694
-6.26363
-6.22961
-6.20821
-6.18305
-6.16655
-6.14655
-6.13335
-6.11727
-6.10669
-6.09386
-6.08546
-6.07536
-6.0688
-6.06101
-6.05602
-6.05021
-6.0466
-6.04256
-6.04023
-6.03784
-6.03628
-6.03437
-6.03323
-6.03207
-6.03161
-6.03152
-6.03199
-6.03339
-6.0352
-6.0388
-6.04268
-6.04983
-6.05726
-6.07075
-6.08511
-6.112
-6.14363
-6.20831
-6.30215
-6.51397
-6.80766
-7.07005
-7.50675
-7.92375
-8.58713
-8.86643
-8.94932
-8.97077
-8.97576
-13.4203
-11.6797
-10.6651
-9.66512
-9.15433
-8.66156
-8.40238
-8.13797
-7.99846
-7.85486
-7.76021
-7.62831
-7.54004
-7.41917
-7.33905
-7.23031
-7.15848
-7.06126
-6.9972
-6.91076
-6.85398
-6.77763
-6.72762
-6.66055
-6.61659
-6.55751
-6.51809
-6.46351
-6.42246
-6.35677
-6.29588
-6.26366
-6.22911
-6.20836
-6.18271
-6.1667
-6.14628
-6.13346
-6.11706
-6.10678
-6.09368
-6.08553
-6.07522
-6.06885
-6.0609
-6.05606
-6.05012
-6.04662
-6.0425
-6.04023
-6.03781
-6.03629
-6.03434
-6.03323
-6.03204
-6.03159
-6.0315
-6.03195
-6.03338
-6.03512
-6.03879
-6.04255
-6.04982
-6.05701
-6.07071
-6.08461
-6.11181
-6.1423
-6.20714
-6.29742
-6.5107
-6.80891
-7.06308
-7.50754
-7.91389
-8.60249
-8.87429
-8.95178
-8.97143
-8.97596
-13.556
-11.6262
-10.6624
-9.62736
-9.15199
-8.64354
-8.40233
-8.12837
-7.99857
-7.85117
-7.76299
-7.62507
-7.54248
-7.41613
-7.34118
-7.22756
-7.16036
-7.05879
-6.99887
-6.90855
-6.85544
-6.77566
-6.72888
-6.65882
-6.61771
-6.55604
-6.51922
-6.46253
-6.42434
-6.3564
-6.29367
-6.26379
-6.22806
-6.20872
-6.18199
-6.16702
-6.14572
-6.13373
-6.1166
-6.10699
-6.09331
-6.08569
-6.07492
-6.06897
-6.06066
-6.05613
-6.04993
-6.04666
-6.04235
-6.04024
-6.03774
-6.03632
-6.03427
-6.03323
-6.03198
-6.03156
-6.03145
-6.03187
-6.03334
-6.03497
-6.03877
-6.04228
-6.04981
-6.0565
-6.07066
-6.08357
-6.11148
-6.1396
-6.20495
-6.28778
-6.50402
-6.81192
-7.04848
-7.50984
-7.89274
-8.63452
-8.88991
-8.95654
-8.97268
-8.97633
-13.7689
-11.5341
-10.6627
-9.56723
-9.15101
-8.61485
-8.40362
-8.11303
-7.99941
-7.84513
-7.76778
-7.61963
-7.54668
-7.41106
-7.34488
-7.22297
-7.16364
-7.05466
-7.00175
-6.90485
-6.85796
-6.77238
-6.73108
-6.65594
-6.61966
-6.55359
-6.52115
-6.46081
-6.42742
-6.35583
-6.29015
-6.26415
-6.22636
-6.20937
-6.1808
-6.1676
-6.14478
-6.1342
-6.11584
-6.10736
-6.0927
-6.08597
-6.07443
-6.06918
-6.06027
-6.05628
-6.04963
-6.04674
-6.04212
-6.04026
-6.03762
-6.03638
-6.03416
-6.03324
-6.03189
-6.03151
-6.03138
-6.03174
-6.0333
-6.03473
-6.03876
-6.04184
-6.04982
-6.05569
-6.07066
-6.08193
-6.11114
-6.13541
-6.20206
-6.27279
-6.49367
-6.81777
-7.0249
-7.51528
-7.85722
-8.68599
-8.91307
-8.96332
-8.97443
-8.97684
-14.0713
-11.3875
-10.6719
-9.47997
-9.15485
-8.57319
-8.4081
-8.09063
-8.0019
-7.83603
-7.77542
-7.61121
-7.5534
-7.40322
-7.35081
-7.21588
-7.16891
-7.0483
-7.00641
-6.89917
-6.86204
-6.76733
-6.73464
-6.65151
-6.6228
-6.54979
-6.52421
-6.45802
-6.43202
-6.35502
-6.28505
-6.26499
-6.22384
-6.21049
-6.17899
-6.16857
-6.14335
-6.13499
-6.11469
-6.10799
-6.09178
-6.08646
-6.07369
-6.06954
-6.05969
-6.05653
-6.04918
-6.04689
-6.04178
-6.04031
-6.03745
-6.03647
-6.034
-6.03326
-6.03175
-6.03145
-6.03129
-6.03157
-6.03326
-6.03438
-6.03878
-6.0412
-6.04992
-6.05452
-6.0708
-6.07956
-6.111
-6.12951
-6.199
-6.25179
-6.47919
-6.8283
-6.98998
-7.52666
-7.80224
-8.76153
-8.94331
-8.97166
-8.97652
-8.97745
-14.4811
-11.1623
-10.7002
-9.35806
-9.16898
-8.51488
-8.4187
-8.0591
-8.00749
-7.82274
-7.78722
-7.59854
-7.56384
-7.39148
-7.36006
-7.20529
-7.17714
-7.03879
-7.0137
-6.89068
-6.86844
-6.75981
-6.74023
-6.6449
-6.62773
-6.5441
-6.52889
-6.45362
-6.43867
-6.35394
-6.27796
-6.26668
-6.2202
-6.21234
-6.17635
-6.17013
-6.14126
-6.13626
-6.11301
-6.10899
-6.09042
-6.08724
-6.07261
-6.07013
-6.05885
-6.05695
-6.04853
-6.04716
-6.04129
-6.04042
-6.0372
-6.03662
-6.03376
-6.03332
-6.03157
-6.03138
-6.03118
-6.03134
-6.03324
-6.0339
-6.03889
-6.0403
-6.05018
-6.05287
-6.07124
-6.07629
-6.11137
-6.12158
-6.19661
-6.22381
-6.45983
-6.84633
-6.94005
-7.54847
-7.71989
-8.86817
-8.97967
-8.98093
-8.97877
-8.97809
-15.0237
-10.8227
-10.7638
-9.19005
-9.20173
-8.43429
-8.43985
-8.01527
-8.01843
-7.8035
-7.80517
-7.57972
-7.57979
-7.37412
-7.37426
-7.18965
-7.18979
-7.02477
-7.0249
-6.87817
-6.87829
-6.74873
-6.74885
-6.63518
-6.63531
-6.53567
-6.53598
-6.44681
-6.44812
-6.35251
-6.26828
-6.26978
-6.21502
-6.21531
-6.17252
-6.17261
-6.13821
-6.13826
-6.11055
-6.11058
-6.08845
-6.08848
-6.07105
-6.07107
-6.05762
-6.05764
-6.04759
-6.0476
-6.0406
-6.04062
-6.03685
-6.03686
-6.03343
-6.03342
-6.03132
-6.03131
-6.03105
-6.03103
-6.03327
-6.03324
-6.03913
-6.03907
-6.05073
-6.05059
-6.07221
-6.07182
-6.11273
-6.11104
-6.19613
-6.18747
-6.43446
-6.87606
-6.86954
-7.58776
-7.59847
-9.01628
-9.02045
-8.99034
-8.98096
-8.97869
-15.7344
-10.3176
-10.888
-8.95865
-9.26567
-8.32279
-8.47823
-7.95435
-8.0381
-7.7756
-7.83221
-7.5519
-7.60399
-7.34854
-7.39586
-7.16662
-7.20906
-7.00415
-7.042
-6.8598
-6.89334
-6.73247
-6.76203
-6.6209
-6.64689
-6.52326
-6.54665
-6.43639
-6.46144
-6.35063
-6.25517
-6.27514
-6.20764
-6.22002
-6.16698
-6.17647
-6.13379
-6.14138
-6.10699
-6.11306
-6.0856
-6.09042
-6.06879
-6.07255
-6.05586
-6.05872
-6.04625
-6.04832
-6.03963
-6.04098
-6.03634
-6.03724
-6.03296
-6.03361
-6.03099
-6.03125
-6.03091
-6.03064
-6.03339
-6.03234
-6.03961
-6.03736
-6.05175
-6.04744
-6.07406
-6.06569
-6.11579
-6.09704
-6.19939
-6.14091
-6.40129
-6.92372
-6.77003
-7.65534
-7.42076
-9.22092
-9.06259
-8.99891
-8.98285
-8.97921
-16.6619
-9.57291
-11.1122
-8.63781
-9.37963
-8.16737
-8.5438
-7.86913
-8.07164
-7.73496
-7.87275
-7.5108
-7.6405
-7.31086
-7.42853
-7.13274
-7.23823
-6.97383
-7.0679
-6.8328
-6.91618
-6.7086
-6.78203
-6.59995
-6.66446
-6.50496
-6.56266
-6.42056
-6.4802
-6.34813
-6.23745
-6.28399
-6.19708
-6.22734
-6.15894
-6.18241
-6.12736
-6.14617
-6.10181
-6.11689
-6.08145
-6.09342
-6.06551
-6.07485
-6.05332
-6.06042
-6.04433
-6.04948
-6.03826
-6.04157
-6.03561
-6.03783
-6.03229
-6.03393
-6.03054
-6.03121
-6.03077
-6.03012
-6.03366
-6.03111
-6.04047
-6.03499
-6.05351
-6.04306
-6.07731
-6.05721
-6.12161
-6.07819
-6.20909
-6.08158
-6.35764
-6.99841
-6.62895
-7.76772
-7.16166
-9.50391
-9.10094
-9.00557
-8.98425
-8.97957
-17.8729
-8.48318
-11.497
-8.18835
-9.57178
-7.94842
-8.65144
-7.74884
-8.12676
-7.67536
-7.93329
-7.45004
-7.6954
-7.25531
-7.47776
-7.08282
-7.28221
-6.92918
-7.10698
-6.79308
-6.95066
-6.6735
-6.81227
-6.56914
-6.691
-6.47798
-6.58668
-6.39666
-6.50664
-6.34479
-6.21345
-6.29819
-6.18182
-6.23861
-6.14723
-6.1915
-6.11798
-6.1535
-6.09425
-6.12274
-6.07541
-6.09802
-6.06075
-6.07839
-6.04963
-6.06305
-6.04156
-6.05129
-6.03631
-6.04253
-6.03455
-6.03872
-6.03134
-6.03444
-6.02992
-6.03122
-6.03063
-6.02943
-6.03417
-6.0294
-6.04191
-6.03165
-6.05643
-6.03687
-6.08273
-6.04536
-6.13173
-6.05236
-6.22912
-6.00611
-6.2994
-7.11352
-6.42755
-7.94989
-6.78463
-9.89669
-9.12698
-9.00927
-8.98497
-8.97974
)
;

boundaryField
{
    F1_1
    {
        type            calculated;
        value           nonuniform List<scalar> 
80
(
18.5593
7.83037
11.7384
7.91218
9.69118
7.79134
8.71789
7.61451
8.16313
7.4607
7.7958
7.40231
7.65797
7.21011
7.46825
7.04277
7.28455
6.89438
7.11449
6.76298
6.96019
6.64756
6.82229
6.54684
6.70082
6.45879
6.59638
6.37988
6.51833
6.34075
6.1986
6.30503
6.17188
6.24402
6.13954
6.19589
6.11183
6.15706
6.08931
6.12559
6.07147
6.10027
6.05765
6.08012
6.04724
6.06433
6.03977
6.05215
6.03503
6.04294
6.03381
6.03911
6.03069
6.03464
6.02951
6.03114
6.03052
6.02896
6.03446
6.02836
6.0428
6.02966
6.05822
6.03323
6.08608
6.03841
6.13808
6.03736
6.24225
5.96384
6.26597
7.18303
6.30889
8.06201
6.56111
10.1249
9.1354
9.01005
8.98495
8.97957
)
;
    }
    F1_2
    {
        type            calculated;
        value           nonuniform List<scalar> 
80
(
-18.4723
-7.26176
-11.7425
-6.41443
-9.11092
-5.54724
-7.41897
-4.76213
-6.14722
-4.15779
-5.12162
-3.9202
-4.69437
-3.33367
-4.10924
-2.84289
-3.55158
-2.42666
-3.05159
-2.0718
-2.61419
-1.76883
-2.2362
-1.50976
-1.9123
-1.28666
-1.63955
-1.08927
-1.43858
-0.992946
-0.638723
-0.904687
-0.571554
-0.752331
-0.489716
-0.63206
-0.418266
-0.534372
-0.358367
-0.453961
-0.308738
-0.387499
-0.267948
-0.332552
-0.234827
-0.287177
-0.208678
-0.249721
-0.189723
-0.218675
-0.182519
-0.205515
-0.165419
-0.187907
-0.151707
-0.171579
-0.140638
-0.157428