/*--------------------------------*- C++ -*----------------------------------*\
| =========                 |                                                 |
| \\      /  F ield         | OpenFOAM: The Open Source CFD Toolbox           |
|  \\    /   O peration     | Version:  5.x                                   |
|   \\  /    A nd           | Web:      www.OpenFOAM.org                      |
|    \\/     M anipulation  |                                                 |
\*---------------------------------------------------------------------------*/
FoamFile
{
    version     2.0;
    format      ascii;
    class       volScalarField;
    location    "2";
    object      gradTx;
}
// * * * * * * * * * * * * * * * * * * * * * * * * * * * * * * * * * * * * * //

dimensions      [0 -1 0 1 0 0 0];

internalField   nonuniform List<scalar> 
3200
(
45.7031
3.62692
1.60302
1.49657
0.786318
0.743696
0.446966
0.428069
0.279972
0.269296
0.162416
0.158444
0.171518
0.171642
0.164141
0.163323
0.150932
0.149849
0.136147
0.135002
0.121199
0.120075
0.106883
0.105845
0.0940749
0.093255
0.0849351
0.0849784
0.0903979
0.157411
0.0792577
0.0537959
0.0520808
0.0410258
0.0402367
0.0328335
0.0322778
0.0264346
0.025987
0.02112
0.0207455
0.0166403
0.016324
0.0128503
0.0125812
0.00960877
0.00937337
0.00670961
0.00648614
0.00374888
0.0036178
0.00322557
0.00315842
0.00199765
0.00188209
0.000271012
0.000111461
-0.00209105
-0.00231874
-0.00554626
-0.00589742
-0.0110251
-0.0116182
-0.0205421
-0.021676
-0.0393481
-0.0420001
-0.0848962
-0.0937808
-0.239025
-0.617057
-0.43566
-0.680273
-0.711611
-1.26703
-1.24147
-0.0557442
-0.00752239
-0.00152402
-52.9431
48.3341
3.03363
1.53451
1.31601
0.747533
0.656536
0.418173
0.377764
0.259097
0.236412
0.152461
0.143981
0.152818
0.152977
0.147142
0.145417
0.135642
0.133349
0.122507
0.120081
0.109151
0.106769
0.0963256
0.094129
0.0848334
0.0831117
0.0767102
0.0769596
0.0840206
0.131244
0.0735785
0.0501745
0.0463528
0.0373811
0.0356889
0.0297883
0.0286066
0.0239673
0.0230173
0.0191572
0.0183625
0.0151074
0.0144363
0.0116818
0.0111108
0.00875289
0.00825329
0.00613922
0.00566696
0.00352324
0.00324469
0.00290048
0.00275576
0.00183792
0.00159287
0.000314449
-2.44287e-05
-0.00177522
-0.00225928
-0.00482807
-0.00557543
-0.00966362
-0.0109283
-0.0180678
-0.0204964
-0.034749
-0.0404947
-0.0758392
-0.0956782
-0.227341
-0.517515
-0.414327
-0.600905
-0.665424
-1.08398
-1.03044
-0.121733
-0.0208782
-0.00438234
-54.7395
50.9488
2.51664
1.41479
1.14945
0.689653
0.575274
0.381464
0.33059
0.234384
0.205981
0.139489
0.128826
0.134467
0.134553
0.12998
0.127835
0.120055
0.117194
0.108531
0.105501
0.096763
0.0937872
0.0854398
0.0826977
0.0752897
0.0731564
0.0682198
0.0686688
0.0760369
0.109272
0.0665288
0.0457698
0.0408307
0.0334452
0.0313095
0.0265545
0.0250738
0.0213529
0.0201644
0.0170722
0.0160785
0.0134717
0.0126326
0.0104265
0.00971247
0.00782325
0.00719835
0.00550364
0.0049151
0.00322332
0.00287451
0.00256772
0.00238435
0.00165157
0.00134527
0.000320559
-0.000103592
-0.00150983
-0.00211622
-0.00418254
-0.00511962
-0.00841491
-0.0100033
-0.0157819
-0.0188437
-0.03049
-0.0378052
-0.0674024
-0.0931026
-0.209317
-0.433708
-0.381404
-0.52642
-0.605077
-0.919811
-0.853627
-0.155407
-0.0308597
-0.0067249
-56.5358
53.5432
2.06389
1.2616
0.990676
0.61796
0.497193
0.339039
0.285233
0.20696
0.177075
0.124284
0.11302
0.116339
0.116316
0.112722
0.11048
0.104272
0.101271
0.0943321
0.0911507
0.0841453
0.081021
0.0743307
0.071454
0.0655358
0.0633139
0.0595143
0.0601016
0.0670187
0.09034
0.0585996
0.0407321
0.0354064
0.0292992
0.0270349
0.02319
0.0216309
0.0186374
0.017388
0.0149037
0.0138594
0.0117657
0.010884
0.00911206
0.00836169
0.00684355
0.00618671
0.00482424
0.00420778
0.00286998
0.00250294
0.00223032
0.00203519
0.00144843
0.00112667
0.000302875
-0.000143251
-0.00127624
-0.00191457
-0.00358202
-0.00456932
-0.00723434
-0.00891058
-0.0136044
-0.0168475
-0.0264042
-0.0342242
-0.0591213
-0.0869062
-0.186966
-0.360968
-0.340587
-0.454589
-0.535285
-0.770878
-0.702092
-0.166134
-0.0368247
-0.00832279
-58.3318
56.1167
1.66414
1.08717
0.835979
0.536192
0.420611
0.292443
0.240856
0.177602
0.149087
0.107419
0.0966314
0.0983462
0.0982237
0.0954106
0.0932845
0.0883617
0.0855075
0.0799836
0.0769546
0.0713735
0.0683985
0.0630701
0.0603327
0.0556346
0.0535351
0.0506337
0.0512814
0.0573444
0.0736101
0.0501154
0.0351927
0.0300133
0.0249996
0.0228235
0.0197341
0.0182455
0.0158525
0.0146613
0.012678
0.0116827
0.0100118
0.00917153
0.00775725
0.0070421
0.00582986
0.00520374
0.00411539
0.00352967
0.00247807
0.00212784
0.00189008
0.00170196
0.00123492
0.000928375
0.000270288
-0.000155239
-0.00106227
-0.0016716
-0.00300856
-0.00395177
-0.00609318
-0.00769699
-0.0114849
-0.0145986
-0.0223878
-0.0299601
-0.0507246
-0.0778188
-0.161656
-0.296003
-0.294396
-0.384089
-0.459298
-0.634119
-0.569244
-0.160595
-0.0387576
-0.00905319
-60.1276
58.6705
1.30716
0.899717
0.68323
0.447059
0.344534
0.242786
0.196947
0.146856
0.121626
0.0893203
0.0797436
0.0804277
0.0802398
0.0780731
0.0762019
0.07237
0.0698517
0.0655363
0.0628616
0.0584983
0.055871
0.0517065
0.0492907
0.0456301
0.0437888
0.0416116
0.042245
0.047262
0.0584706
0.0412883
0.0292636
0.0246135
0.0205865
0.0186487
0.0162143
0.0148964
0.0130197
0.0119666
0.0104131
0.00953346
0.00822503
0.00748241
0.0063749
0.0057428
0.00479311
0.00423963
0.00338677
0.00287051
0.00205834
0.00174845
0.00154806
0.0013801
0.0010152
0.000744337
0.000228574
-0.0001478
-0.000860056
-0.00139937
-0.00245071
-0.00328617
-0.00497342
-0.00639594
-0.00939227
-0.0121627
-0.0183799
-0.0251683
-0.0420746
-0.0664615
-0.134327
-0.236476
-0.244552
-0.314169
-0.379326
-0.506948
-0.450146
-0.143583
-0.0370051
-0.00889125
-61.9231
61.207
0.983678
0.704625
0.531272
0.352582
0.268428
0.190893
0.153209
0.115116
0.0944486
0.0703128
0.0624461
0.0625447
0.0623358
0.0607246
0.0591987
0.0563266
0.0542687
0.0510243
0.0488369
0.0455545
0.0434058
0.0402736
0.038299
0.0355533
0.0340564
0.0324772
0.0330334
0.0369322
0.0444668
0.0322549
0.0230394
0.0191887
0.0160898
0.0144938
0.0126499
0.0115698
0.0101542
0.0092921
0.00812151
0.00740163
0.00641596
0.00580823
0.00497387
0.00445655
0.00374084
0.00328781
0.00264495
0.00222343
0.00161871
0.00136487
0.00120493
0.0010663
0.000791875
0.000570255
0.00018143
-0.000126787
-0.000664633
-0.00110654
-0.0019014
-0.0025864
-0.00386415
-0.00503184
-0.00730858
-0.00958876
-0.0143492
-0.0199716
-0.0331254
-0.053365
-0.105626
-0.180712
-0.192246
-0.244428
-0.296855
-0.387154
-0.341039
-0.118572
-0.0321142
-0.00789467
-63.7183
63.7296
0.68531
0.50531
0.379531
0.254326
0.192059
0.137408
0.109489
0.0826801
0.0674107
0.0506551
0.0448305
0.0446746
0.0444885
0.0433734
0.0422499
0.0402513
0.0387338
0.0364706
0.0348568
0.0325659
0.0309805
0.028795
0.0273386
0.0254268
0.0243276
0.0232577
0.0236882
0.0264569
0.0312528
0.0231016
0.0166005
0.0137338
0.011533
0.0103488
0.00905503
0.00825678
0.00726674
0.00663012
0.00581212
0.00528066
0.00459202
0.00414338
0.00356042
0.0031785
0.00267831
0.00234382
0.0018945
0.00158387
0.00116521
0.000977667
0.000861096
0.000758066
0.000566574
0.000402989
0.000131177
-9.64804e-05
-0.00047295
-0.000799507
-0.00135639
-0.00186284
-0.00275921
-0.00362331
-0.00522469
-0.00691557
-0.0102838
-0.0144736
-0.0238926
-0.0389877
-0.0760115
-0.127489
-0.138314
-0.174676
-0.21287
-0.272816
-0.238986
-0.0881205
-0.0247339
-0.00618623
-65.5133
66.2419
0.404363
0.303827
0.227769
0.153554
0.115387
0.0828544
0.0657256
0.0497832
0.0404328
0.0305606
0.0269885
0.0268062
0.0266789
0.026023
0.0253366
0.0241572
0.0232292
0.0218915
0.0209041
0.0195496
0.0185796
0.0172875
0.0163967
0.0152682
0.0145979
0.0139783
0.0142496
0.0159007
0.0185568
0.0138823
0.0100163
0.00825229
0.00693547
0.00620822
0.00544041
0.00495146
0.00436522
0.00397552
0.00349143
0.00316615
0.00275867
0.00248409
0.00213913
0.00190537
0.00160934
0.0014046
0.00113866
0.000948775
0.000702574
0.000587732
0.000516818
0.000453473
0.000340251
0.000240141
7.92407e-05
-6.01435e-05
-0.000283192
-0.000483192
-0.000813343
-0.00112362
-0.00165551
-0.00218524
-0.00313717
-0.00417525
-0.00618563
-0.00876639
-0.0144328
-0.0237331
-0.0458191
-0.0758931
-0.0833608
-0.104851
-0.128014
-0.16223
-0.141614
-0.0541699
-0.01556
-0.0039369
-67.3081
68.748
0.133661
0.101367
0.075934
0.0513412
0.0384894
0.0276852
0.0219149
0.016623
0.013476
0.0102143
0.00901118
0.00893576
0.00889065
0.00867412
0.00844339
0.00805341
0.00774129
0.0072986
0.00696646
0.00651813
0.00619182
0.00576418
0.00546457
0.00509135
0.00486624
0.00466336
0.00475595
0.00530424
0.00615395
0.00463064
0.00334793
0.00275285
0.0023144
0.00206928
0.00181467
0.00165009
0.00145591
0.00132477
0.00116448
0.00105503
0.000920111
0.000827725
0.000713504
0.000634853
0.000536821
0.000467932
0.000379865
0.000316017
0.000234752
0.000196101
0.000172298
0.000150936
0.000113461
7.97794e-05
2.6493e-05
-2.04131e-05
-9.43145e-05
-0.00016163
-0.000271052
-0.000375503
-0.000551868
-0.00073025
-0.00104618
-0.001396
-0.00206458
-0.00293574
-0.00482757
-0.00796704
-0.0153071
-0.0252011
-0.0278465
-0.0349589
-0.0427162
-0.053836
-0.0469149
-0.0182658
-0.00530669
-0.00135044
-69.1027
68.7914
0.147384
0.125503
0.10502
0.0831945
0.0708877
0.0590795
0.0517662
0.0434157
0.0373994
0.0298012
0.0270024
0.02699
0.0268051
0.0258904
0.0249492
0.0233961
0.0221914
0.0205348
0.0193378
0.0177839
0.0166934
0.0153167
0.0143775
0.0132373
0.0125469
0.011901
0.0120478
0.0133287
0.015406
0.0115756
0.00836975
0.0068891
0.00580776
0.0052101
0.00459945
0.00421059
0.00375964
0.00345891
0.00309605
0.00284994
0.00254825
0.00234135
0.00208452
0.00190519
0.00167741
0.00151153
0.00129029
0.0011196
0.000892506
0.000805203
0.000796049
0.000782675
0.000743382
0.000706344
0.000648086
0.00060365
0.000543248
0.000499265
0.000441227
0.000397556
0.000336707
0.00028277
0.000192993
8.47276e-05
-0.000140748
-0.000498665
-0.00136428
-0.00300937
-0.00706339
-0.01299
-0.0162233
-0.0232771
-0.0308229
-0.0419252
-0.0373006
-0.0145727
-0.00423816
-0.00107883
-69.7931
66.3717
0.445442
0.376454
0.315114
0.249203
0.212644
0.177059
0.15534
0.130154
0.112262
0.089212
0.0808961
0.0809771
0.0804447
0.0776725
0.0748724
0.0701748
0.0665926
0.0615864
0.0580281
0.0533336
0.050092
0.045933
0.0431409
0.0396941
0.0376392
0.0356716
0.0360984
0.0399546
0.0464548
0.0347021
0.0250405
0.0206516
0.0174041
0.015631
0.0137897
0.0126344
0.0112731
0.0103794
0.00928362
0.00855217
0.00764109
0.00702617
0.00625059
0.00571762
0.00502984
0.00453691
0.00386895
0.00336114
0.00267199
0.00241255
0.00238838
0.00234913
0.00223012
0.00211995
0.00194377
0.00181166
0.00162915
0.00149842
0.00132316
0.00119341
0.0010099
0.000849794
0.000579766
0.000258918
-0.0004169
-0.00147564
-0.00406162
-0.00893167
-0.0211151
-0.0390776
-0.048517
-0.0698115
-0.0923262
-0.126405
-0.112626
-0.0432224
-0.0124274
-0.00314509
-69.3794
63.9449
0.753452
0.6271
0.525393
0.414039
0.354362
0.294485
0.259054
0.216602
0.187332
0.148034
0.134455
0.13499
0.134175
0.129457
0.124873
0.11691
0.111052
0.102581
0.0967648
0.088826
0.0835281
0.0764955
0.0719314
0.066096
0.0627289
0.0593473
0.0600127
0.0664758
0.078235
0.0577459
0.0415012
0.034369
0.0289421
0.0260552
0.0229529
0.021067
0.0187683
0.0173084
0.015457
0.014262
0.0127225
0.0117178
0.0104073
0.00953658
0.0083748
0.00756958
0.00644147
0.00561016
0.0044345
0.00401068
0.00398152
0.00391898
0.00371672
0.0035364
0.0032379
0.00302187
0.00271317
0.00249953
0.00220345
0.00199158
0.00168231
0.00142137
0.000968717
0.00044745
-0.000677596
-0.00239138
-0.00666743
-0.0145612
-0.0349354
-0.0655056
-0.080336
-0.116296
-0.153366
-0.212797
-0.190175
-0.0703275
-0.0197561
-0.00494213
-68.9655
61.5061
1.07833
0.876761
0.736061
0.576811
0.496091
0.410936
0.363051
0.302524
0.262804
0.205829
0.18745
0.189058
0.188063
0.181237
0.175009
0.163562
0.155617
0.143471
0.135588
0.124214
0.117035
0.106961
0.100774
0.0924007
0.0878205
0.0828624
0.0836965
0.0927869
0.111307
0.0806215
0.0575986
0.0480194
0.0403795
0.036489
0.0320684
0.0295169
0.0262307
0.0242538
0.0216049
0.0199863
0.0177831
0.0164223
0.014547
0.0133677
0.011706
0.0106157
0.00900256
0.00787337
0.00616726
0.00559334
0.00557633
0.00549476
0.00520279
0.00495793
0.00452906
0.00423613
0.0037937
0.00350426
0.00308067
0.00279393
0.00235305
0.00200087
0.00136066
0.000660371
-0.000914508
-0.00320438
-0.00912825
-0.0196912
-0.0483473
-0.0925623
-0.111309
-0.162736
-0.213511
-0.302471
-0.271612
-0.0946611
-0.0256544
-0.00630723
-68.5515
59.0512
1.42737
1.12399
0.947476
0.736445
0.638
0.525899
0.467557
0.387617
0.338969
0.262082
0.239648
0.243232
0.242186
0.232996
0.225357
0.210077
0.200353
0.184193
0.174553
0.159437
0.15066
0.137273
0.129706
0.118556
0.112929
0.106148
0.107052
0.118723
0.146351
0.103193
0.0731602
0.0615938
0.0516683
0.0469453
0.0411104
0.0379974
0.0336418
0.0312271
0.0277126
0.025735
0.022811
0.0211482
0.0186597
0.017219
0.0150151
0.0136834
0.0115449
0.0101602
0.0078552
0.00715417
0.0071742
0.00707944
0.00668746
0.0063873
0.00581526
0.00545683
0.00486856
0.00451477
0.00395282
0.00360285
0.00302062
0.00259225
0.00175534
0.000908608
-0.00112249
-0.00387169
-0.0114031
-0.024097
-0.0611361
-0.120637
-0.140974
-0.2092
-0.272127
-0.396935
-0.358892
-0.114676
-0.0295663
-0.00710381
-68.1373
56.5763
1.80839
1.36615
1.16028
0.89158
0.78046
0.638715
0.57293
0.471461
0.416267
0.31616
0.290808
0.297594
0.296638
0.284696
0.276014
0.256372
0.245349
0.224657
0.21374
0.194409
0.184472
0.167354
0.158785
0.144492
0.138087
0.129128
0.12998
0.144024
0.18423
0.125242
0.0879854
0.0751046
0.0627508
0.0574477
0.050045
0.0465291
0.0409767
0.0382458
0.0337601
0.0315227
0.0277895
0.0259083
0.0227315
0.0211018
0.0182903
0.0167842
0.0140579
0.0124846
0.00947958
0.00868674
0.00877726
0.00867663
0.00816908
0.00782816
0.00709352
0.00668731
0.00593461
0.00553417
0.004817
0.00442155
0.00368251
0.00320043
0.00215085
0.00120465
-0.00130134
-0.00434727
-0.013471
-0.0275284
-0.0730255
-0.150276
-0.168721
-0.255875
-0.328265
-0.497911
-0.454416
-0.128327
-0.0309724
-0.00723369
-67.7229
54.0786
2.22978
1.59886
1.3756
1.04042
0.92415
0.748497
0.679735
0.553458
0.495365
0.36725
0.340685
0.35227
0.351533
0.336269
0.327113
0.302327
0.290735
0.264733
0.253267
0.229009
0.218575
0.197097
0.188095
0.170116
0.163349
0.151719
0.152383
0.168283
0.226082
0.146426
0.101838
0.0885967
0.0735533
0.0680361
0.0588261
0.0551441
0.0482004
0.0453363
0.0397192
0.0373717
0.0326954
0.0307216
0.0267428
0.0250331
0.0215143
0.0199349
0.0165257
0.0148672
0.0110162
0.0101846
0.0103887
0.0102908
0.00964479
0.00928553
0.00835937
0.00793237
0.00698724
0.0065669
0.00566895
0.00525461
0.00433469
0.00383186
0.00254274
0.00156359
-0.00145808
-0.00457923
-0.015341
-0.0297014
-0.0836436
-0.182266
-0.193719
-0.303138
-0.380511
-0.60741
-0.561241
-0.132827
-0.029434
-0.00665064
-67.3084
51.5567
2.70048
1.81526
1.5954
1.1805
1.07022
0.85401
0.788846
0.632733
0.577269
0.414282
0.38904
0.407442
0.407012
0.387602
0.378841
0.347757
0.336702
0.304233
0.293309
0.263059
0.253124
0.226344
0.217768
0.195295
0.18881
0.173822
0.17418
0.190869
0.273438
0.16621
0.114441
0.102164
0.0839773
0.0787746
0.0673882
0.0638916
0.055263
0.0525388
0.0455492
0.0433157
0.0374948
0.0356166
0.0306647
0.0290382
0.0246621
0.0231601
0.0189246
0.0173385
0.0124328
0.0116419
0.0120131
0.0119278
0.0111099
0.0107664
0.00960611
0.00919899
0.00801968
0.00761951
0.00650228
0.0061086
0.00497085
0.0044954
0.00292284
0.00200483
-0.00161026
-0.00450496
-0.0170663
-0.0302904
-0.0924732
-0.21774
-0.214796
-0.351681
-0.426773
-0.727828
-0.683353
-0.124326
-0.0246713
-0.0053743
-66.8936
49.0115
3.22977
2.00506
1.82302
1.30841
1.22054
0.953486
0.9016
0.707987
0.663478
0.455808
0.435653
0.463371
0.463256
0.438513
0.431466
0.392392
0.38353
0.342875
0.33413
0.296302
0.28835
0.254868
0.248001
0.219838
0.214614
0.195315
0.195328
0.210826
0.328394
0.183781
0.125466
0.11597
0.0938847
0.0897632
0.0756371
0.0728468
0.0620915
0.0599141
0.051191
0.0494051
0.0421383
0.0406364
0.0344552
0.0331549
0.0276964
0.0264961
0.0212188
0.0199437
0.0136857
0.0130536
0.0136567
0.0135951
0.012557
0.012281
0.0108237
0.0104974
0.00902184
0.00870168
0.00730749
0.00699316
0.00558126
0.00520355
0.00327744
0.00255462
-0.00179061
-0.00404336
-0.0187643
-0.0289202
-0.0987781
-0.258339
-0.230277
-0.402692
-0.463994
-0.862063
-0.826043
-0.0974488
-0.0166947
-0.00350264
-66.4788
46.4473
3.82682
2.15316
2.06395
1.41926
1.37802
1.04436
1.02003
0.777282
0.756219
0.489838
0.480355
0.520419
0.520489
0.488722
0.485378
0.435823
0.431634
0.380245
0.376118
0.328353
0.324603
0.282331
0.27909
0.243469
0.240986
0.21604
0.215861
0.226704
0.393845
0.197905
0.134543
0.130284
0.103076
0.101155
0.0834351
0.0821232
0.0685792
0.0675536
0.0565575
0.0557159
0.0465532
0.0458453
0.0380524
0.0374396
0.030562
0.0299967
0.0233542
0.0227496
0.0147145
0.0144168
0.015328
0.0153026
0.0139748
0.0138439
0.011997
0.0118429
0.00997875
0.00982777
0.00807038
0.0079225
0.0061511
0.00597443
0.00358465
0.00325005
-0.00205395
-0.00308232
-0.0206442
-0.0251609
-0.101493
-0.306441
-0.237738
-0.458145
-0.487741
-1.01366
-0.996432
-0.0446581
-0.00601603
-0.00121836
-66.0638
46.4472
3.82681
2.15316
2.06394
1.41926
1.37803
1.04436
1.02003
0.777283
0.75622
0.489839
0.480356
0.52042
0.52049
0.488722
0.485378
0.435822
0.431634
0.380244
0.376117
0.328352
0.324601
0.28233
0.279089
0.243467
0.240984
0.216039
0.21586
0.226703
0.393843
0.197904
0.134544
0.130285
0.103078
0.101157
0.0834375
0.0821256
0.0685816
0.067556
0.0565598
0.0557181
0.0465552
0.0458474
0.0380541
0.0374414
0.0305635
0.0299981
0.0233554
0.0227507
0.0147153
0.0144176
0.0153287
0.0153033
0.0139754
0.0138446
0.0119976
0.0118435
0.00997924
0.00982826
0.00807083
0.00792295
0.00615155
0.00597488
0.00358517
0.00325058
-0.00205321
-0.00308156
-0.0206431
-0.02516
-0.101493
-0.306444
-0.237742
-0.458159
-0.487756
-1.01369
-0.996466
-0.0446597
-0.00601651
-0.00121881
-66.0637
49.0114
3.22977
2.00505
1.82302
1.30841
1.22054
0.953487
0.901601
0.707988
0.663479
0.455809
0.435654
0.463372
0.463256
0.438513
0.431466
0.392391
0.383529
0.342874
0.334129
0.2963
0.288349
0.254867
0.247999
0.219837
0.214613
0.195314
0.195327
0.210825
0.328392
0.183781
0.125467
0.115972
0.0938864
0.089765
0.0756391
0.0728489
0.0620936
0.0599163
0.0511931
0.0494071
0.0421401
0.0406382
0.0344568
0.0331564
0.0276977
0.0264974
0.0212198
0.0199447
0.0136864
0.0130543
0.0136574
0.0135958
0.0125576
0.0122816
0.0108242
0.0104979
0.00902228
0.00870212
0.00730789
0.00699356
0.00558165
0.00520395
0.0032779
0.00255511
-0.00178996
-0.00404267
-0.0187635
-0.0289194
-0.0987783
-0.258342
-0.230282
-0.402704
-0.464008
-0.862093
-0.826071
-0.0974523
-0.0166957
-0.00350465
-66.4787
51.5567
2.70048
1.81525
1.5954
1.1805
1.07022
0.85401
0.788847
0.632734
0.57727
0.414283
0.389041
0.407442
0.407013
0.387602
0.378841
0.347757
0.336701
0.304232
0.293309
0.263058
0.253123
0.226343
0.217767
0.195294
0.188808
0.173821
0.174179
0.190869
0.273437
0.16621
0.114442
0.102165
0.0839789
0.0787763
0.06739
0.0638935
0.0552649
0.0525407
0.0455511
0.0433175
0.0374964
0.0356183
0.0306661
0.0290396
0.0246633
0.0231613
0.0189256
0.0173394
0.0124335
0.0116426
0.0120137
0.0119284
0.0111105
0.010767
0.00960658
0.00919945
0.00802009
0.00761991
0.00650265
0.00610897
0.00497121
0.00449577
0.00292326
0.00200528
-0.00160968
-0.00450433
-0.0170655
-0.0302898
-0.0924735
-0.217742
-0.2148
-0.351691
-0.426786
-0.727853
-0.683377
-0.12433
-0.0246721
-0.0053772
-66.8935
54.0786
2.22978
1.59885
1.3756
1.04042
0.92415
0.748498
0.679736
0.55346
0.495366
0.367251
0.340686
0.35227
0.351533
0.336269
0.327113
0.302327
0.290735
0.264733
0.253266
0.229008
0.218574
0.197096
0.188094
0.170115
0.163348
0.151719
0.152382
0.168282
0.226081
0.146425
0.101839
0.0885979
0.0735547
0.0680376
0.0588277
0.0551458
0.0482021
0.045338
0.0397208
0.0373733
0.0326969
0.030723
0.0267441
0.0250343
0.0215154
0.019936
0.0165266
0.014868
0.0110168
0.0101853
0.0103893
0.0102914
0.00964528
0.00928599
0.0083598
0.00793278
0.00698761
0.00656726
0.00566929
0.00525494
0.00433502
0.0038322
0.00254311
0.001564
-0.00145758
-0.00457867
-0.0153403
-0.029701
-0.0836439
-0.182268
-0.193723
-0.303147
-0.380523
-0.607431
-0.561261
-0.132832
-0.0294343
-0.00665358
-67.3083
56.5763
1.80839
1.36614
1.16027
0.89158
0.78046
0.638716
0.572931
0.471462
0.416268
0.316161
0.290809
0.297595
0.296638
0.284696
0.276014
0.256372
0.245348
0.224657
0.213739
0.194409
0.184472
0.167353
0.158784
0.144491
0.138086
0.129128
0.129979
0.144024
0.18423
0.125242
0.0879863
0.0751056
0.062752
0.057449
0.0500464
0.0465306
0.0409782
0.0382472
0.0337615
0.031524
0.0277908
0.0259095
0.0227327
0.0211029
0.0182912
0.0167851
0.0140587
0.0124853
0.00948011
0.00868727
0.00877775
0.00867707
0.0081695
0.00782856
0.00709389
0.00668767
0.00593493
0.00553448
0.0048173
0.00442184
0.00368279
0.00320072
0.00215117
0.001205
-0.00130091
-0.0043468
-0.0134705
-0.0275281
-0.0730258
-0.150278
-0.168725
-0.255882
-0.328275
-0.497928
-0.454432
-0.128331
-0.0309721
-0.00723617
-67.7229
59.0512
1.42736
1.12398
0.947474
0.736445
0.638
0.525899
0.467558
0.387618
0.33897
0.262083
0.239649
0.243232
0.242186
0.232996
0.225357
0.210077
0.200352
0.184193
0.174553
0.159437
0.15066
0.137272
0.129706
0.118555
0.112929
0.106147
0.107051
0.118723
0.146351
0.103193
0.073161
0.0615947
0.0516693
0.0469463
0.0411116
0.0379986
0.033643
0.0312283
0.0277138
0.0257361
0.022812
0.0211492
0.0186606
0.0172199
0.0150159
0.0136841
0.0115455
0.0101608
0.00785565
0.00715461
0.0071746
0.00707981
0.00668781
0.00638762
0.00581557
0.00545712
0.00486883
0.00451503
0.00395306
0.00360308
0.00302086
0.00259249
0.0017556
0.000908902
-0.00112215
-0.00387131
-0.0114028
-0.0240968
-0.0611364
-0.120638
-0.140977
-0.209207
-0.272135
-0.396948
-0.358904
-0.11468
-0.0295656
-0.0071056
-68.1373
61.5061
1.07832
0.876751
0.73606
0.576811
0.496091
0.410936
0.363052
0.302525
0.262805
0.20583
0.187451
0.189058
0.188063
0.181237
0.175009
0.163562
0.155617
0.143471
0.135588
0.124214
0.117035
0.10696
0.100774
0.0924002
0.08782
0.0828619
0.0836959
0.0927867
0.111307
0.0806213
0.0575993
0.0480201
0.0403803
0.0364898
0.0320694
0.0295179
0.0262316
0.0242547
0.0216058
0.0199872
0.0177839
0.0164231
0.0145477
0.0133684
0.0117066
0.0106162
0.00900306
0.00787382
0.00616761
0.00559368
0.00557664
0.00549504
0.00520306
0.00495818
0.0045293
0.00423636
0.00379391
0.00350446
0.00308086
0.00279412
0.00235324
0.00200106
0.00136086
0.0006606
-0.000914242
-0.00320409
-0.00912798
-0.0196911
-0.0483476
-0.0925637
-0.111311
-0.162741
-0.213518
-0.302481
-0.271622
-0.0946642
-0.0256534
-0.00630833
-68.5515
63.9449
0.75345
0.627092
0.525392
0.414039
0.354362
0.294486
0.259055
0.216602
0.187332
0.148035
0.134455
0.13499
0.134175
0.129457
0.124873
0.11691
0.111052
0.102581
0.0967645
0.0888257
0.0835278
0.0764952
0.071931
0.0660957
0.0627285
0.0593469
0.0600122
0.0664757
0.0782348
0.0577457
0.0415016
0.0343695
0.0289427
0.0260558
0.0229536
0.0210677
0.0187689
0.017309
0.0154577
0.0142626
0.0127231
0.0117184
0.0104078
0.00953706
0.00837524
0.00756999
0.00644183
0.00561048
0.00443474
0.00401092
0.00398174
0.00391918
0.00371691
0.00353658
0.00323807
0.00302203
0.00271332
0.00249968
0.00220359
0.00199172
0.00168244
0.0014215
0.000968864
0.000447613
-0.000677409
-0.00239118
-0.00666725
-0.0145612
-0.0349356
-0.0655066
-0.0803378
-0.1163
-0.153371
-0.212804
-0.190182
-0.0703298
-0.019755
-0.00494265
-68.9655
66.3717
0.44544
0.376449
0.315113
0.249203
0.212644
0.177059
0.155341
0.130154
0.112262
0.0892122
0.0808963
0.0809772
0.0804447
0.0776725
0.0748724
0.0701747
0.0665925
0.0615863
0.058028
0.0533334
0.0500918
0.0459328
0.0431407
0.0396938
0.037639
0.0356713
0.0360981
0.0399545
0.0464547
0.0347019
0.0250408
0.0206519
0.0174045
0.0156314
0.01379
0.0126348
0.0112735
0.0103798
0.009284
0.00855254
0.00764144
0.0070265
0.0062509
0.00571791
0.0050301
0.00453715
0.00386917
0.00336132
0.00267214
0.0024127
0.00238851
0.00234924
0.00223024
0.00212005
0.00194387
0.00181175
0.00162924
0.0014985
0.00132324
0.00119349
0.00100997
0.000849875
0.000579853
0.000259015
-0.000416791
-0.00147552
-0.00406152
-0.00893166
-0.0211153
-0.0390782
-0.0485181
-0.0698135
-0.0923292
-0.126409
-0.11263
-0.0432238
-0.0124266
-0.00314523
-69.3793
68.7914
0.147383
0.125501
0.10502
0.0831944
0.0708877
0.0590795
0.0517662
0.0434158
0.0373995
0.0298013
0.0270025
0.02699
0.0268051
0.0258904
0.0249492
0.0233961
0.0221914
0.0205348
0.0193378
0.0177839
0.0166933
0.0153167
0.0143775
0.0132372
0.0125468
0.0119009
0.0120477
0.0133287
0.015406
0.0115755
0.00836985
0.0068892
0.00580787
0.00521022
0.00459958
0.00421072
0.00375977
0.00345904
0.00309617
0.00285006
0.00254836
0.00234146
0.00208462
0.00190528
0.00167749
0.00151161
0.00129037
0.00111966
0.000892555
0.000805252
0.000796091
0.000782712
0.000743418
0.000706378
0.000648118
0.000603681
0.000543276
0.000499292
0.000441253
0.000397581
0.000336732
0.000282796
0.000193021
8.47591e-05
-0.000140713
-0.000498627
-0.00136425
-0.00300937
-0.00706343
-0.0129902
-0.0162237
-0.0232778
-0.0308239
-0.0419266
-0.0373019
-0.0145732
-0.0042378
-0.00107882
-69.7931
68.7476
0.133507
0.10111
0.0755671
0.0507716
0.0376837
0.0264336
0.0202102
0.0143341
0.0119964
0.0113426
0.0109983
0.010463
0.0100408
0.00945086
0.00902178
0.00846062
0.00805724
0.00753234
0.0071549
0.00666367
0.00631294
0.00586112
0.00554737
0.00515969
0.00492618
0.00471506
0.0048045
0.00535319
0.0062072
0.00466864
0.00337338
0.00277255
0.00232998
0.00208267
0.00182596
0.00166011
0.00146457
0.00133257
0.00117129
0.0010612
0.000925532
0.000832647
0.000717826
0.000638765
0.000540223
0.000470969
0.000382425
0.000318214
0.000236471
0.000197623
0.00017377
0.000152359
0.000114775
8.09991e-05
2.75711e-05
-1.94409e-05
-9.34839e-05
-0.000160901
-0.000270456
-0.000375003
-0.000551494
-0.000729972
-0.00104603
-0.00139596
-0.00206469
-0.002936
-0.00482808
-0.00796787
-0.0153086
-0.0252033
-0.0278487
-0.0349611
-0.0427185
-0.0538384
-0.0469169
-0.0182666
-0.00530697
-0.0013505
-69.1027
66.2407
0.403903
0.303056
0.226672
0.151847
0.112978
0.0791
0.0606168
0.0428609
0.0359218
0.0340156
0.0330026
0.0313845
0.0301294
0.0283462
0.0270707
0.0253757
0.0241767
0.0225912
0.0214694
0.0199855
0.0189429
0.0175779
0.0166451
0.015473
0.0147777
0.0141332
0.0143952
0.0160474
0.0187173
0.0139962
0.0100924
0.00831132
0.00698213
0.00624838
0.00547425
0.00498155
0.00439118
0.0039989
0.00351184
0.00318467
0.00277492
0.00249886
0.00215209
0.00191711
0.00161953
0.00141371
0.00114633
0.00095537
0.000707719
0.00059229
0.000521234
0.000457743
0.000344193
0.000243801
8.24732e-05
-5.72259e-05
-0.000280703
-0.000481005
-0.000811557
-0.00112212
-0.00165439
-0.0021844
-0.00313672
-0.00417511
-0.00618597
-0.00876717
-0.0144343
-0.0237356
-0.0458235
-0.0758999
-0.0833673
-0.104858
-0.128021
-0.162237
-0.14162
-0.0541721
-0.0155608
-0.00393705
-67.308
63.7276
0.684545
0.504024
0.377716
0.251485
0.188073
0.131151
0.100995
0.0709554
0.0596462
0.0566531
0.0550314
0.0522919
0.0502393
0.0472216
0.0451368
0.0422711
0.0403119
0.0376319
0.0357986
0.0332899
0.0315861
0.0292776
0.0277527
0.0257673
0.0246273
0.0235152
0.0239303
0.0267009
0.0315231
0.023291
0.0167264
0.013832
0.0116105
0.0104157
0.00911131
0.00830693
0.00730993
0.00666911
0.00584609
0.00531153
0.00461907
0.00416801
0.00358199
0.00319808
0.00269528
0.00235903
0.00190728
0.00159488
0.00117375
0.000985245
0.000868455
0.00076519
0.00057314
0.000409095
0.00013656
-9.16129e-05
-0.000468806
-0.000795859
-0.00135342
-0.00186033
-0.00275735
-0.00362191
-0.00522395
-0.00691534
-0.0102844
-0.0144749
-0.0238952
-0.0389918
-0.0760189
-0.127501
-0.138325
-0.174687
-0.212881
-0.272829
-0.238996
-0.0881242
-0.0247351
-0.00618644
-65.5132
61.2043
0.982613
0.702826
0.528758
0.348611
0.26291
0.182132
0.141369
0.0983011
0.0830384
0.0792361
0.0771054
0.0731722
0.0703883
0.0660601
0.0632345
0.0591309
0.0564764
0.0526391
0.0501553
0.0465626
0.0442538
0.0409464
0.038879
0.0360282
0.034476
0.0328362
0.0333713
0.0372723
0.044851
0.0325192
0.0232137
0.0193258
0.0161977
0.0145875
0.0127284
0.0116401
0.0102145
0.00934672
0.00816896
0.00744488
0.00645374
0.00584274
0.005004
0.00448399
0.00376456
0.00330913
0.0026628
0.00223888
0.00163058
0.00137543
0.00121524
0.00107629
0.000801063
0.00057882
0.000188955
-0.000119961
-0.000658843
-0.00110143
-0.00189725
-0.00258288
-0.00386155
-0.00502987
-0.00730755
-0.00958842
-0.01435
-0.0199733
-0.0331289
-0.0533707
-0.105636
-0.180728
-0.192261
-0.244443
-0.296872
-0.387171
-0.341053
-0.118577
-0.0321158
-0.00789489
-63.7182
58.667
1.3058
0.897401
0.680048
0.441961
0.337551
0.231514
0.181836
0.124535
0.105973
0.101753
0.0992521
0.0940072
0.0905997
0.0848393
0.0813841
0.0759334
0.0726889
0.0675929
0.064557
0.0597845
0.0569621
0.0525661
0.0500371
0.0462374
0.0443286
0.0420705
0.0426779
0.0476968
0.0589754
0.0416262
0.0294842
0.0247891
0.0207243
0.0187692
0.0163148
0.0149868
0.013097
0.0120369
0.0104739
0.00958915
0.00827347
0.00752685
0.00641353
0.00577815
0.00482352
0.00426712
0.00340965
0.00289045
0.00207345
0.00176197
0.00156131
0.00139298
0.001027
0.000755377
0.000238229
-0.000139
-0.000852633
-0.00139277
-0.0024454
-0.00328163
-0.0049701
-0.00639338
-0.00939096
-0.0121622
-0.018381
-0.0251704
-0.0420792
-0.0664686
-0.13434
-0.236497
-0.244571
-0.314189
-0.379347
-0.506971
-0.450165
-0.143589
-0.0370069
-0.00889144
-61.923
56.1125
1.6625
1.08434
0.83217
0.529967
0.41226
0.278643
0.222609
0.149221
0.128334
0.124202
0.121509
0.11477
0.110906
0.103527
0.0996144
0.0926485
0.0889764
0.0824652
0.079029
0.0729292
0.0697341
0.0641117
0.0612466
0.0563715
0.0541956
0.0511904
0.0518082
0.057871
0.074245
0.050525
0.0354567
0.0302272
0.0251664
0.0229709
0.0198562
0.0183562
0.0159465
0.0147475
0.012752
0.011751
0.0100708
0.00922597
0.00780429
0.00708541
0.00586689
0.00523747
0.00414325
0.00355419
0.00249629
0.00214426
0.00190628
0.00171776
0.00124933
0.000941918
0.000282053
-0.000144442
-0.00105324
-0.00166349
-0.0030021
-0.00394619
-0.00608915
-0.00769383
-0.0114833
-0.014598
-0.0223891
-0.0299627
-0.0507301
-0.0778271
-0.161673
-0.29603
-0.294419
-0.384114
-0.459323
-0.634147
-0.569268
-0.160601
-0.0387593
-0.0090533
-60.1274
53.5383