/*--------------------------------*- C++ -*----------------------------------*\
| =========                 |                                                 |
| \\      /  F ield         | OpenFOAM: The Open Source CFD Toolbox           |
|  \\    /   O peration     | Version:  5.x                                   |
|   \\  /    A nd           | Web:      www.OpenFOAM.org                      |
|    \\/     M anipulation  |                                                 |
\*---------------------------------------------------------------------------*/
FoamFile
{
    version     2.0;
    format      ascii;
    class       volScalarField;
    location    "2";
    object      T;
}
// * * * * * * * * * * * * * * * * * * * * * * * * * * * * * * * * * * * * * //

dimensions      [0 0 0 1 0 0 0];

internalField   nonuniform List<scalar> 
3200
(
2.11358
2.45673
2.47627
2.61703
2.62593
2.69566
2.7003
2.74036
2.7431
2.76836
2.77003
2.7846
2.78588
2.80175
2.80304
2.81816
2.81937
2.83326
2.83436
2.84687
2.84786
2.85899
2.85987
2.86968
2.87045
2.87909
2.87978
2.88758
2.88827
2.89662
2.90402
2.90455
2.9094
2.90976
2.9135
2.91378
2.91678
2.91701
2.91942
2.91961
2.92154
2.92168
2.9232
2.92331
2.92449
2.92457
2.92545
2.92551
2.92612
2.92616
2.92649
2.92652
2.92681
2.92683
2.92701
2.92702
2.92704
2.92703
2.92683
2.9268
2.92628
2.92621
2.92518
2.92505
2.92312
2.92288
2.91919
2.91868
2.9107
2.9093
2.88679
2.8476
2.84323
2.77957
2.77207
2.65287
2.64792
2.64729
2.64717
2.64714
2.28544
2.54797
2.5888
2.70143
2.7204
2.77618
2.78606
2.818
2.82383
2.84391
2.84747
2.85915
2.86187
2.87443
2.87717
2.88915
2.89171
2.90271
2.90505
2.91496
2.91705
2.92588
2.92773
2.93551
2.93714
2.94399
2.94546
2.95167
2.95315
2.96007
2.96628
2.96742
2.97129
2.97206
2.97503
2.97563
2.97801
2.97849
2.98041
2.98079
2.98232
2.98263
2.98383
2.98407
2.985
2.98518
2.98588
2.98601
2.98649
2.98657
2.98684
2.9869
2.98713
2.98717
2.98732
2.98733
2.98735
2.98733
2.98717
2.98711
2.98669
2.98655
2.98572
2.98546
2.98391
2.98341
2.98044
2.97936
2.97286
2.96979
2.95012
2.91804
2.90869
2.85795
2.84215
2.74955
2.7391
2.73737
2.73701
2.73694
2.44679
2.64808
2.69846
2.78956
2.8134
2.85853
2.87093
2.89668
2.90399
2.92011
2.92459
2.93406
2.93747
2.94751
2.95093
2.96051
2.96371
2.97251
2.97543
2.98337
2.98598
2.99304
2.99536
3.00159
3.00363
3.00911
3.01094
3.01594
3.01781
3.02354
3.02874
3.03019
3.03331
3.03428
3.03666
3.03741
3.03931
3.03991
3.04145
3.04193
3.04316
3.04354
3.0445
3.0448
3.04555
3.04577
3.04633
3.04649
3.04688
3.04698
3.0472
3.04727
3.04746
3.04751
3.04762
3.04765
3.04766
3.04763
3.0475
3.04742
3.04709
3.04691
3.04625
3.04591
3.04467
3.04403
3.04162
3.04025
3.03488
3.03094
3.01395
2.98757
2.97581
2.93492
2.9153
2.84294
2.82994
2.8274
2.82685
2.82673
2.6001
2.75423
2.80648
2.88039
2.90555
2.94219
2.95527
2.97609
2.98379
2.99679
3.0015
3.00921
3.0128
3.02085
3.02444
3.03212
3.03548
3.04255
3.04561
3.05198
3.05473
3.06039
3.06283
3.06783
3.06997
3.07438
3.07631
3.08033
3.08232
3.08703
3.09135
3.09289
3.09542
3.09644
3.09835
3.09914
3.10067
3.1013
3.10254
3.10304
3.10403
3.10443
3.1052
3.10552
3.10611
3.10635
3.1068
3.10697
3.10728
3.10739
3.10757
3.10764
3.10779
3.10784
3.10793
3.10796
3.10797
3.10794
3.10784
3.10775
3.10748
3.10729
3.10676
3.1064
3.1054
3.10472
3.10276
3.1013
3.09684
3.09261
3.07815
3.05651
3.04409
3.01105
2.99056
2.93396
2.92035
2.91735
2.91667
2.91652
2.74723
2.86445
2.91364
2.97316
2.99724
3.02678
3.0393
3.05603
3.06339
3.07379
3.0783
3.08453
3.08796
3.09436
3.09778
3.10391
3.10711
3.11274
3.11566
3.12074
3.12336
3.12788
3.1302
3.13418
3.13623
3.13975
3.14158
3.14481
3.14671
3.15055
3.15407
3.15556
3.15759
3.15856
3.16009
3.16084
3.16206
3.16267
3.16365
3.16413
3.16492
3.1653
3.16592
3.16622
3.16669
3.16692
3.16728
3.16744
3.16769
3.16779
3.16794
3.16801
3.16813
3.16818
3.16825
3.16827
3.16828
3.16825
3.16817
3.16809
3.16787
3.16769
3.16726
3.16692
3.16611
3.16546
3.16387
3.16247
3.1588
3.15468
3.14263
3.12508
3.11319
3.08668
3.06726
3.02326
3.01034
3.0072
3.00646
3.0063
2.88967
2.97738
3.02038
3.06735
3.08871
3.11206
3.12316
3.13634
3.14286
3.15102
3.15502
3.15996
3.16299
3.168
3.17102
3.17581
3.17864
3.18304
3.18562
3.1896
3.19191
3.19545
3.1975
3.20062
3.20242
3.20518
3.2068
3.20934
3.21103
3.21407
3.21687
3.2182
3.2198
3.22066
3.22186
3.22252
3.22348
3.22401
3.22478
3.22521
3.22582
3.22616
3.22665
3.22691
3.22728
3.22749
3.22776
3.22791
3.2281
3.2282
3.22831
3.22837
3.22846
3.22851
3.22856
3.22858
3.22859
3.22857
3.2285
3.22843
3.22826
3.2281
3.22776
3.22746
3.22682
3.22624
3.22498
3.22373
3.22077
3.21708
3.20734
3.19343
3.18289
3.16202
3.14495
3.11132
3.09994
3.09696
3.09624
3.09607
3.0286
3.09211
3.12697
3.16257
3.18009
3.19783
3.20694
3.21692
3.22226
3.22843
3.2317
3.23546
3.23795
3.24171
3.24418
3.24779
3.2501
3.25342
3.25553
3.25852
3.26041
3.26308
3.26475
3.2671
3.26858
3.27066
3.27199
3.27391
3.27529
3.2776
3.27974
3.28083
3.28204
3.28274
3.28365
3.28419
3.28492
3.28535
3.28593
3.28628
3.28674
3.28702
3.28738
3.2876
3.28788
3.28805
3.28826
3.28837
3.28852
3.2886
3.28868
3.28873
3.2888
3.28884
3.28888
3.2889
3.2889
3.28888
3.28883
3.28877
3.28864
3.28852
3.28826
3.28801
3.28753
3.28705
3.28609
3.28506
3.28278
3.27972
3.27222
3.26165
3.25299
3.23721
3.22331
3.19849
3.1892
3.18663
3.18599
3.18584
3.16499
3.20797
3.23352
3.2585
3.27147
3.28394
3.29068
3.29768
3.30163
3.30595
3.30837
3.31101
3.31285
3.31548
3.3173
3.31982
3.32152
3.32384
3.3254
3.32749
3.32888
3.33074
3.33198
3.33362
3.33472
3.33617
3.33715
3.33849
3.33952
3.34114
3.34264
3.34345
3.3443
3.34482
3.34546
3.34586
3.34636
3.34668
3.34709
3.34735
3.34767
3.34787
3.34813
3.34829
3.34848
3.34861
3.34875
3.34884
3.34894
3.349
3.34906
3.3491
3.34914
3.34917
3.3492
3.34921
3.34921
3.3492
3.34917
3.34912
3.34903
3.34894
3.34876
3.34857
3.34823
3.34788
3.3472
3.34643
3.34481
3.34254
3.33721
3.32979
3.32338
3.31232
3.3021
3.28504
3.2782
3.27623
3.27572
3.27561
3.29966
3.32454
3.34009
3.35492
3.36287
3.37027
3.37441
3.37856
3.38098
3.38354
3.38502
3.38659
3.38772
3.38928
3.39039
3.39188
3.39292
3.39429
3.39525
3.39648
3.39734
3.39844
3.39919
3.40017
3.40083
3.40169
3.40229
3.40309
3.40372
3.40468
3.40557
3.40607
3.40658
3.40689
3.40727
3.40752
3.40781
3.40801
3.40825
3.40841
3.4086
3.40872
3.40888
3.40897
3.40909
3.40916
3.40925
3.4093
3.40936
3.4094
3.40943
3.40946
3.40949
3.4095
3.40952
3.40953
3.40953
3.40952
3.4095
3.40947
3.40942
3.40936
3.40925
3.40914
3.40894
3.40872
3.40832
3.40785
3.40688
3.40547
3.4023
3.39789
3.39396
3.3874
3.38116
3.37118
3.367
3.36576
3.36544
3.36537
3.43333
3.44147
3.44669
3.45161
3.45429
3.45674
3.45814
3.45951
3.46033
3.46117
3.46167
3.4622
3.46258
3.46309
3.46346
3.46396
3.46431
3.46476
3.46508
3.46549
3.46578
3.46614
3.4664
3.46672
3.46695
3.46723
3.46743
3.4677
3.46791
3.46823
3.46852
3.46869
3.46886
3.46897
3.46909
3.46917
3.46927
3.46934
3.46942
3.46947
3.46953
3.46957
3.46962
3.46966
3.4697
3.46972
3.46975
3.46977
3.46979
3.4698
3.46981
3.46982
3.46983
3.46983
3.46984
3.46984
3.46984
3.46984
3.46983
3.46982
3.46981
3.46979
3.46975
3.46971
3.46965
3.46957
3.46944
3.46928
3.46896
3.46848
3.46743
3.46596
3.46464
3.46247
3.46037
3.45708
3.45568
3.45526
3.45515
3.45512
3.43522
3.44392
3.44996
3.45647
3.46046
3.46479
3.46755
3.4707
3.47272
3.47504
3.47646
3.47802
3.47916
3.48072
3.48184
3.48331
3.48434
3.48565
3.48656
3.4877
3.48849
3.48948
3.49016
3.49101
3.4916
3.49234
3.49285
3.49353
3.49406
3.49486
3.4956
3.49602
3.49644
3.4967
3.49702
3.49723
3.49748
3.49765
3.49785
3.49799
3.49816
3.49828
3.49842
3.49851
3.49863
3.4987
3.49879
3.49885
3.49892
3.49897
3.49901
3.49905
3.49909
3.49912
3.49917
3.49919
3.49923
3.49926
3.49929
3.49931
3.49933
3.49934
3.49936
3.49937
3.49938
3.49938
3.49937
3.49933
3.49923
3.49903
3.49853
3.49773
3.4969
3.4954
3.49382
3.49121
3.49009
3.48975
3.48967
3.48965
3.30531
3.33187
3.34985
3.36951
3.38136
3.39443
3.40262
3.41214
3.41816
3.42516
3.42939
3.43408
3.43747
3.44217
3.44552
3.44994
3.45301
3.45696
3.45967
3.46312
3.46547
3.46845
3.47048
3.47304
3.47479
3.47701
3.47856
3.48058
3.48217
3.48458
3.48681
3.48805
3.48932
3.49011
3.49106
3.49168
3.49243
3.49294
3.49356
3.49398
3.49449
3.49483
3.49525
3.49553
3.49588
3.49611
3.49638
3.49656
3.49677
3.4969
3.49704
3.49714
3.49728
3.49737
3.4975
3.49758
3.49769
3.49777
3.49786
3.49792
3.49799
3.49803
3.49809
3.49812
3.49815
3.49815
3.49811
3.498
3.4977
3.4971
3.49559
3.4932
3.49074
3.48622
3.4815
3.47358
3.47024
3.46925
3.469
3.46894
3.17433
3.22016
3.24967
3.28287
3.30221
3.32427
3.33765
3.35372
3.36355
3.37538
3.38229
3.39018
3.39573
3.40368
3.40915
3.41663
3.42164
3.42832
3.43274
3.43858
3.44242
3.44746
3.45077
3.45511
3.45796
3.46172
3.46424
3.46765
3.47024
3.4743
3.47806
3.48008
3.48221
3.48351
3.48511
3.48612
3.4874
3.48823
3.48928
3.48996
3.49082
3.49138
3.4921
3.49255
3.49314
3.49351
3.49398
3.49427
3.49462
3.49483
3.49506
3.49523
3.49546
3.49562
3.49583
3.49597
3.49616
3.49628
3.49643
3.49652
3.49665
3.49672
3.49682
3.49687
3.49691
3.49691
3.49685
3.49667
3.49618
3.49522
3.49269
3.48867
3.48465
3.47704
3.46931
3.45576
3.4503
3.44872
3.44832
3.44823
3.04151
3.1091
3.14935
3.19677
3.22295
3.25445
3.27256
3.29555
3.30887
3.3258
3.33515
3.34638
3.35389
3.36529
3.3727
3.38341
3.3902
3.39977
3.40576
3.41412
3.41932
3.42654
3.43102
3.43723
3.4411
3.44647
3.44988
3.45476
3.45825
3.46404
3.46938
3.4721
3.47514
3.4769
3.47918
3.48055
3.48239
3.4835
3.48501
3.48593
3.48717
3.48793
3.48895
3.48957
3.4904
3.49091
3.49158
3.49197
3.49248
3.49276
3.49309
3.49331
3.49365
3.49386
3.49417
3.49436
3.49462
3.49478
3.495
3.49513
3.49531
3.49541
3.49555
3.49561
3.49568
3.49568
3.49559
3.49536
3.49468
3.49339
3.48984
3.48413
3.47871
3.46786
3.45736
3.43761
3.4302
3.42815
3.42763
3.42752
2.90599
2.99913
3.04873
3.11153
3.14348
3.18517
3.20728
3.23776
3.25403
3.27652
3.28793
3.30273
3.31189
3.32705
3.33611
3.35035
3.35865
3.37136
3.37868
3.38978
3.39614
3.40572
3.4112
3.41945
3.42418
3.43131
3.43547
3.44192
3.44617
3.45379
3.46081
3.46411
3.46812
3.47027
3.47329
3.47497
3.4774
3.47877
3.48077
3.48189
3.48354
3.48446
3.48582
3.48658
3.48769
3.4883
3.48919
3.48967
3.49034
3.49068
3.49113
3.4914
3.49184
3.49211
3.49251
3.49275
3.49309
3.49329
3.49358
3.49374
3.49398
3.4941
3.49428
3.49436
3.49445
3.49445
3.49434
3.49407
3.4932
3.49166
3.48709
3.47959
3.47299
3.45867
3.44578
3.41898
3.40989
3.40751
3.40693
3.4068
2.76674
2.89089
2.94758
3.02751
3.06361
3.11666
3.14165
3.18054
3.19894
3.22768
3.24057
3.2593
3.26965
3.28906
3.29932
3.31753
3.32692
3.34316
3.35145
3.36563
3.37283
3.38507
3.39127
3.40181
3.40715
3.41625
3.42096
3.42917
3.43396
3.44357
3.45238
3.45609
3.46118
3.4636
3.46746
3.46935
3.47246
3.474
3.47656
3.47783
3.47993
3.48098
3.48271
3.48357
3.48499
3.48568
3.48681
3.48736
3.48822
3.48861
3.48917
3.48948
3.49005
3.49034
3.49086
3.49113
3.49157
3.49179
3.49217
3.49235
3.49265
3.49279
3.49302
3.49311
3.49323
3.49323
3.4931
3.4928
3.49175
3.49004
3.48445
3.47502
3.46758
3.44943
3.43475
3.39964
3.38931
3.3868
3.38621
3.38608
2.62251
2.78535
2.84549
2.94523
2.98305
3.04928
3.07547
3.12412
3.14344
3.17947
3.19298
3.2162
3.22704
3.25142
3.2622
3.28505
3.29491
3.31528
3.32398
3.34176
3.34931
3.36466
3.37117
3.38437
3.38998
3.40138
3.40631
3.41655
3.42155
3.43338
3.44416
3.44802
3.45434
3.45688
3.4617
3.46368
3.46758
3.4692
3.4724
3.47373
3.47637
3.47747
3.47964
3.48054
3.48232
3.48304
3.48447
3.48504
3.48612
3.48652
3.48722
3.48754
3.48826
3.48857
3.48922
3.4895
3.49006
3.49029
3.49076
3.49095
3.49133
3.49148
3.49176
3.49186
3.49201
3.49202
3.49187
3.49156
3.49033
3.48859
3.48197
3.47036
3.4626
3.44005
3.42455
3.37931
3.36842
3.36602
3.36548
3.36536
2.47177
2.68391
2.74181
2.86543
2.90135
2.98348
3.00838
3.06888
3.08726
3.13216
3.14499
3.17358
3.18389
3.21433
3.22459
3.25309
3.26248
3.28786
3.29615
3.31829
3.32548
3.34459
3.35079
3.36723
3.37257
3.38676
3.39145
3.40414
3.40887
3.42323
3.43621
3.43985
3.44765
3.45006
3.45605
3.45794
3.46279
3.46433
3.46832
3.46958
3.47287
3.47392
3.47662
3.47748
3.47969
3.48038
3.48215
3.4827
3.48405
3.48443
3.48529
3.4856
3.48649
3.48679
3.4876
3.48787
3.48856
3.48879
3.48936
3.48955
3.49001
3.49016
3.49051
3.49061
3.4908
3.49081
3.49064
3.49036
3.48894
3.48733
3.47969
3.46555
3.45821
3.43039
3.41553
3.3576
3.3472
3.34517
3.34473
3.34463
2.31252
2.58862
2.6355
2.78913
2.8178
2.91997
2.93985
3.01532
3.03001
3.08612
3.09636
3.1317
3.13993
3.17804
3.18625
3.22189
3.2294
3.26113
3.26775
3.29541
3.30117
3.32504
3.33
3.35053
3.3548
3.37251
3.37626
3.39205
3.3958
3.41313
3.42863
3.43151
3.44118
3.4431
3.45057
3.45208
3.45813
3.45937
3.46434
3.46536
3.46946
3.4703
3.47368
3.47436
3.47712
3.47768
3.47989
3.48033
3.48201
3.48232
3.48338
3.48363
3.48475
3.48499
3.486
3.48621
3.48708
3.48726
3.48799
3.48813
3.48872
3.48883
3.48928
3.48935
3.4896
3.48961
3.48942
3.4892
3.48755
3.48631
3.47767
3.46048
3.45464
3.42021
3.40824
3.334
3.32564
3.32426
3.32397
3.32391
2.14222
2.5025
2.52491
2.71782
2.7313
2.85974
2.8691
2.96418
2.97111
3.04191
3.04673
3.09089
3.09476
3.14293
3.14681
3.19181
3.19535
3.23539
3.23851
3.27341
3.27613
3.30625
3.30859
3.33448
3.33649
3.35883
3.36059
3.38043
3.38218
3.4031
3.42156
3.42289
3.43502
3.43592
3.44533
3.44604
3.45367
3.45425
3.46053
3.461
3.46618
3.46658
3.47084
3.47116
3.47464
3.4749
3.4777
3.4779
3.48003
3.48018
3.48151
3.48162
3.48304
3.48315
3.48444
3.48454
3.48564
3.48572
3.48663
3.4867
3.48744
3.4875
3.48806
3.48809
3.48841
3.48842
3.48821
3.48811
3.48614
3.48559
3.476
3.45495
3.45222
3.40913
3.40345
3.30777
3.3038
3.3033
3.3032
3.30318
2.14222
2.5025
2.5249
2.71782
2.7313
2.85974
2.8691
2.96418
2.9711
3.04191
3.04673
3.09089
3.09476
3.14293
3.14681
3.1918
3.19535
3.23539
3.23851
3.27341
3.27612
3.30625
3.30858
3.33448
3.33649
3.35883
3.36059
3.38043
3.38218
3.4031
3.42156
3.42289
3.43502
3.43592
3.44532
3.44604
3.45367
3.45425
3.46053
3.461
3.46618
3.46658
3.47084
3.47116
3.47464
3.4749
3.4777
3.4779
3.48003
3.48018
3.48151
3.48162
3.48304
3.48315
3.48444
3.48454
3.48564
3.48572
3.48663
3.4867
3.48744
3.48749
3.48806
3.48809
3.48841
3.48842
3.48821
3.48811
3.48614
3.48559
3.476
3.45495
3.45222
3.40913
3.40345
3.30776
3.3038
3.3033
3.3032
3.30318
2.31252
2.58862
2.6355
2.78913
2.8178
2.91997
2.93985
3.01532
3.03001
3.08612
3.09636
3.1317
3.13993
3.17803
3.18625
3.22189
3.2294
3.26113
3.26775
3.29541
3.30116
3.32504
3.33
3.35053
3.3548
3.37251
3.37626
3.39204
3.39579
3.41313
3.42863
3.43151
3.44118
3.4431
3.45057
3.45208
3.45813
3.45936
3.46434
3.46536
3.46946
3.4703
3.47367
3.47436
3.47712
3.47768
3.47989
3.48033
3.48201
3.48232
3.48338
3.48362
3.48475
3.48498
3.486
3.48621
3.48708
3.48726
3.48799
3.48813
3.48872
3.48883
3.48928
3.48935
3.4896
3.48961
3.48942
3.4892
3.48755
3.48631
3.47767
3.46048
3.45464
3.42021
3.40824
3.334
3.32563
3.32425
3.32396
3.3239
2.47176
2.6839
2.74181
2.86543
2.90135
2.98348
3.00837
3.06888
3.08726
3.13215
3.14499
3.17358
3.18389
3.21433
3.22459
3.25309
3.26248
3.28786
3.29615
3.31829
3.32548
3.34459
3.35079
3.36723
3.37257
3.38676
3.39145
3.40414
3.40886
3.42322
3.43621
3.43985
3.44765
3.45006
3.45605
3.45794
3.46279
3.46433
3.46832
3.46958
3.47287
3.47392
3.47662
3.47748
3.47969
3.48038
3.48215
3.4827
3.48405
3.48443
3.48529
3.4856
3.48649
3.48679
3.4876
3.48786
3.48856
3.48878
3.48936
3.48955
3.49001
3.49016
3.49051
3.49061
3.4908
3.49081
3.49064
3.49036
3.48894
3.48733
3.47969
3.46555
3.45821
3.43038
3.41553
3.3576
3.34719
3.34517
3.34473
3.34463
2.62251
2.78535
2.84549
2.94523
2.98305
3.04927
3.07546
3.12412
3.14344
3.17947
3.19298
3.21619
3.22704
3.25142
3.2622
3.28505
3.29491
3.31528
3.32398
3.34175
3.34931
3.36466
3.37117
3.38436
3.38998
3.40138
3.40631
3.41655
3.42155
3.43338
3.44416
3.44802
3.45434
3.45688
3.4617
3.46368
3.46758
3.4692
3.4724
3.47373
3.47637
3.47747
3.47964
3.48054
3.48231
3.48304
3.48447
3.48504
3.48612
3.48652
3.48722
3.48754
3.48826
3.48857
3.48922
3.4895
3.49006
3.49029
3.49076
3.49095
3.49133
3.49148
3.49176
3.49186
3.49201
3.49202
3.49187
3.49156
3.49033
3.48859
3.48197
3.47036
3.4626
3.44005
3.42454
3.3793
3.36842
3.36602
3.36548
3.36535
2.76674
2.89089
2.94758
3.0275
3.0636
3.11666
3.14165
3.18053
3.19894
3.22768
3.24057
3.2593
3.26965
3.28906
3.29932
3.31753
3.32692
3.34316
3.35145
3.36563
3.37283
3.38507
3.39127
3.4018
3.40715
3.41625
3.42096
3.42917
3.43396
3.44357
3.45238
3.45609
3.46118
3.4636
3.46745
3.46935
3.47246
3.474
3.47656
3.47783
3.47993
3.48098
3.48271
3.48357
3.48499
3.48568
3.48681
3.48736
3.48822
3.48861
3.48917
3.48948
3.49005
3.49034
3.49086
3.49113
3.49157
3.49179
3.49217
3.49235
3.49265
3.49279
3.49302
3.49311
3.49323
3.49323
3.4931
3.4928
3.49175
3.49004
3.48445
3.47502
3.46758
3.44943
3.43475
3.39963
3.38931
3.3868
3.38621
3.38608
2.90599
2.99913
3.04873
3.11152
3.14348
3.18517
3.20728
3.23776
3.25403
3.27652
3.28793
3.30273
3.31189
3.32705
3.33611
3.35035
3.35865
3.37136
3.37868
3.38978
3.39614
3.40572
3.4112
3.41945
3.42417
3.4313
3.43547
3.44192
3.44617
3.45379
3.46081
3.46411
3.46812
3.47027
3.47329
3.47497
3.4774
3.47876
3.48077
3.48189
3.48354
3.48446
3.48582
3.48658
3.48768
3.4883
3.48919
3.48967
3.49034
3.49068
3.49113
3.4914
3.49184
3.49211
3.49251
3.49274
3.49309
3.49329
3.49358
3.49374
3.49398
3.4941
3.49428
3.49436
3.49445
3.49445
3.49434
3.49407
3.4932
3.49166
3.48709
3.47959
3.47299
3.45867
3.44578
3.41898
3.40989
3.40751
3.40693
3.4068
3.04151
3.1091
3.14935
3.19677
3.22295
3.25445
3.27256
3.29555
3.30887
3.3258
3.33515
3.34638
3.35389
3.36529
3.3727
3.38341
3.3902
3.39977
3.40576
3.41412
3.41932
3.42654
3.43102
3.43723
3.4411
3.44647
3.44988
3.45476
3.45825
3.46404
3.46938
3.4721
3.47514
3.4769
3.47918
3.48055
3.48239
3.4835
3.48501
3.48593
3.48717
3.48793
3.48895
3.48957
3.4904
3.49091
3.49157
3.49197
3.49248
3.49276
3.49309
3.49331
3.49365
3.49386
3.49417
3.49436
3.49462
3.49478
3.495
3.49513
3.49531
3.49541
3.49555
3.49561
3.49568
3.49568
3.49559
3.49536
3.49468
3.49339
3.48984
3.48413
3.47871
3.46786
3.45736
3.43761
3.4302
3.42815
3.42763
3.42751
3.17433
3.22016
3.24967
3.28287
3.30221
3.32427
3.33765
3.35372
3.36355
3.37538
3.38229
3.39018
3.39573
3.40368
3.40915
3.41663
3.42164
3.42832
3.43274
3.43858
3.44242
3.44746
3.45077
3.45511
3.45796
3.46172
3.46424
3.46765
3.47024
3.4743
3.47806
3.48008
3.48221
3.48351
3.48511
3.48612
3.4874
3.48823
3.48928
3.48996
3.49082
3.49138
3.4921
3.49255
3.49314
3.49351
3.49397
3.49426
3.49462
3.49483
3.49506
3.49523
3.49546
3.49562
3.49583
3.49597
3.49616
3.49627
3.49643
3.49652
3.49665
3.49672
3.49682
3.49687
3.49691
3.49691
3.49685
3.49667
3.49618
3.49522
3.49268
3.48867
3.48465
3.47704
3.46931
3.45575
3.4503
3.44872
3.44832
3.44823
3.3053
3.33187
3.34985
3.36951
3.38136
3.39443
3.40262
3.41214
3.41816
3.42516
3.42938
3.43408
3.43747
3.44217
3.44552
3.44994
3.45301
3.45696
3.45967
3.46312
3.46547
3.46845
3.47048
3.47304
3.47479
3.47701
3.47856
3.48058
3.48217
3.48458
3.48681
3.48805
3.48931
3.49011
3.49106
3.49167
3.49243
3.49294
3.49356
3.49398
3.49449
3.49483
3.49525
3.49553
3.49588
3.49611
3.49638
3.49656
3.49677
3.4969
3.49704
3.49714
3.49728
3.49737
3.4975
3.49758
3.49769
3.49777
3.49786
3.49792
3.49799
3.49803
3.49809
3.49812
3.49815
3.49815
3.49811
3.498
3.4977
3.4971
3.49559
3.4932
3.49074
3.48622
3.4815
3.47357
3.47024
3.46925
3.469
3.46894
3.43522
3.44392
3.44996
3.45647
3.46046
3.46479
3.46755
3.4707
3.47272
3.47504
3.47646
3.47802
3.47916
3.48072
3.48184
3.48331
3.48434
3.48565
3.48656
3.4877
3.48849
3.48948
3.49016
3.49101
3.4916
3.49234
3.49285
3.49353
3.49406
3.49486
3.4956
3.49602
3.49644
3.4967
3.49702
3.49723
3.49748
3.49765
3.49785
3.49799
3.49816
3.49828
3.49842
3.49851
3.49863
3.4987
3.49879
3.49885
3.49892
3.49897
3.49901
3.49905
3.49909
3.49912
3.49917
3.49919
3.49923
3.49926
3.49929
3.49931
3.49933
3.49934
3.49936
3.49937
3.49938
3.49938
3.49937
3.49933
3.49923
3.49903
3.49853
3.49773
3.4969
3.4954
3.49382
3.49121
3.49009
3.48975
3.48967
3.48965
3.43331
3.44145
3.44666
3.45156
3.45422
3.45664
3.45799
3.45928
3.46001
3.46071
3.46121
3.46185
3.46231
3.4629
3.46331
3.46384
3.46421
3.46469
3.46502
3.46544
3.46573
3.46611
3.46637
3.46669
3.46692
3.46721
3.46741
3.46768
3.46789
3.46822
3.46851
3.46868
3.46885
3.46896
3.46908
3.46917
3.46927
3.46933
3.46941
3.46947
3.46953
3.46957
3.46962
3.46966
3.46969
3.46972
3.46975
3.46977
3.46979
3.4698
3.46981
3.46982
3.46983
3.46983
3.46984
3.46984
3.46984
3.46984
3.46983
3.46982
3.46981
3.46979
3.46975
3.46971
3.46965
3.46957
3.46944
3.46928
3.46896
3.46848
3.46743
3.46596
3.46464
3.46247
3.46037
3.45708
3.45568
3.45526
3.45515
3.45512
3.29961
3.32447
3.34
3.35477
3.36266
3.36996
3.37396
3.37787
3.38002
3.38215
3.38361
3.38555
3.38691
3.38869
3.38993
3.39153
3.39263
3.39407
3.39505
3.39632
3.3972
3.39832
3.39909
3.40008
3.40076
3.40163
3.40224
3.40304
3.40368
3.40465
3.40555
3.40605
3.40656
3.40688
3.40725
3.4075
3.4078
3.408
3.40824
3.4084
3.40859
3.40872
3.40887
3.40897
3.40909
3.40916
3.40925
3.4093
3.40936
3.4094
3.40943
3.40946
3.40948
3.4095
3.40952
3.40953
3.40953
3.40952
3.4095
3.40947
3.40942
3.40936
3.40925
3.40914
3.40894
3.40872
3.40832
3.40785
3.40688
3.40547
3.40229
3.39788
3.39396
3.3874
3.38116
3.37117
3.36699
3.36576
3.36544
3.36536
3.16491
3.20786
3.23336
3.25826
3.27113
3.28341
3.28994
3.29652
3.30004
3.30362
3.306
3.30928
3.31151
3.31451
3.31653
3.31923
3.32104
3.32346
3.32507
3.32722
3.32865
3.33055
3.33181
3.33348
3.33459
3.33606
3.33705
3.33841
3.33944
3.34108
3.3426
3.34341
3.34427
3.34479
3.34543
3.34583
3.34634
3.34666
3.34707
3.34733
3.34766
3.34786
3.34812
3.34828
3.34848
3.3486
3.34875
3.34883
3.34894
3.34899
3.34905
3.34909
3.34914
3.34917
3.3492
3.34921
3.34921
3.3492
3.34917
3.34912
3.34903
3.34894
3.34875
3.34857
3.34823
3.34788
3.3472
3.34643
3.34481
3.34253
3.33721
3.32978
3.32338
3.31232
3.30209
3.28503
3.27819
3.27622
3.27572
3.2756
3.02849
3.09194
3.12675
3.16223
3.17962
3.19709
3.20591
3.2153
3.22005
3.22513
3.22835
3.23305
3.23607
3.24037
3.2431
3.24698
3.24943
3.25289
3.25508
3.25815
3.26009
3.26281
3.26452
3.2669
3.2684
3.27051
3.27185
3.27379
3.27519
3.27752
3.27967
3.28077
3.282
3.2827
3.28361
3.28416
3.28489
3.28533
3.28591
3.28626
3.28673
3.287
3.28737
3.28759
3.28787
3.28804
3.28825
3.28837
3.28851
3.28859
3.28868
3.28873
3.2888
3.28884
3.28888
3.28889
3.2889
3.28888
3.28883
3.28877
3.28864
3.28851
3.28826
3.28801
3.28753
3.28705
3.28609
3.28506
3.28278
3.27972
3.27221
3.26165
3.25299
3.2372
3.2233
3.19848
3.1892
3.18663
3.18598
3.18584
2.88953
2.97717
3.02011
3.06691
3.08811
3.11111
3.12187
3.13426
3.14005
3.14671
3.15065
3.15689
3.16057
3.16629
3.16963
3.17477
3.17777
3.18237
3.18504
3.18913
3.1915
3.19511
3.19719
3.20036
3.2022
3.20499
3.20663
3.20919
3.2109
3.21396
3.21679
3.21813
3.21974
3.2206
3.22181
3.22248
3.22345
3.22398
3.22476
3.22518
3.2258
3.22614
3.22663
3.2269
3.22727
3.22747
3.22775
3.2279
3.22809
3.22819
3.2283
3.22837
3.22846
3.2285
3.22856
3.22858
3.22858
3.22857
3.2285
3.22843
3.22825
3.2281
3.22776
3.22746
3.22682
3.22624
3.22498
3.22373
3.22077
3.21708
3.20734
3.19343
3.18288
3.16201
3.14495
3.11131
3.09993
3.09695
3.09623
3.09607
2.74706
2.86419
2.91331
2.97263
2.99653
3.02562
3.03775
3.05349
3.06001
3.06841
3.07285
3.08083
3.085
3.09231
3.09609
3.10266
3.10605
3.11192
3.11495
3.12017
3.12285
3.12746
3.12982
3.13387
3.13595
3.13951
3.14137
3.14463
3.14655
3.15042
3.15397
3.15547
3.15752
3.15849
3.16004
3.16079
3.16202
3.16263
3.16362
3.1641
3.16489
3.16528
3.1659
3.1662
3.16668
3.16691
3.16726
3.16743
3.16768
3.16779
3.16793
3.168
3.16812
3.16817
3.16824
3.16827
3.16827
3.16825
3.16817
3.16809
3.16787
3.16769
3.16726
3.16692
3.16611
3.16546
3.16387
3.16246
3.1588
3.15468
3.14263
3.12508
3.11319
3.08667
3.06726
3.02325
3.01033
3.00719
3.00645
3.00629
2.5999
2.75393
2.8061
2.87975
2.90473
2.94081
2.95349
2.97308
2.9799
2.99026
2.9949
3.00492
3.0093
3.01846
3.02243
3.03067
3.03423
3.04159
3.04477
3.05131
3.05413
3.05991
3.06239
3.06746
3.06964
3.0741
3.07605
3.08012
3.08212
3.08688
3.09123
3.09279
3.09534
3.09636
3.09829
3.09908
3.10062
3.10125
3.1025
3.103
3.10399
3.1044
3.10518
3.10549
3.10609
3.10633
3.10678
3.10696
3.10727
3.10738
3.10756
3.10763
3.10778
3.10784
3.10793
3.10795
3.10796
3.10794
3.10783
3.10775
3.10748
3.10729
3.10675
3.1064
3.10539
3.10472
3.10275
3.10129
3.09684
3.0926
3.07814
3.0565
3.04408
3.01104
2.99055
2.93395
2.92034
2.91734
2.91665
2.9165
2.44658
2.64774
2.69803
2.78882
2.81249
2.85694
2.86895
2.89318
2.89964
2.91234
2.91674
2.92923
2.9334
2.94482
2.9486
2.95887
2.96225
2.97143
2.97445
2.98261
2.98528
2.99249
2.99485
3.00117
3.00324
3.0088
3.01065
3.01569
3.01759
3.02337
3.02861
3.03007
3.03322
3.03419
3.03658
3.03734
3.03926
3.03986
3.0414
3.04189
3.04312
3.04351
3.04448
3.04478
3.04553
3.04575
3.04631
3.04648
3.04687
3.04697
3.04719
3.04726
3.04745
3.0475
3.04762
3.04764
3.04765
3.04763
3.0475
3.04742
3.04708
3.04691
3.04624
3.04591
3.04467
3.04402
3.04162
3.04024
3.03488
3.03093
3.01394
2.98756
2.9758
2.93491
2.91529
2.84293
2.82992
2.82739
2.82683
2.82671
2.28522
2.54758
2.58834
2.70058
2.71942
2.77436
2.78393
2.81399
2.81914
2.83475
2.83826
2.85388
2.85722
2.87149
2.87451
2.88734
2.89005
2.90151
2.90393
2.91412
2.91626
2.92526
2.92715
2.93505
2.9367
2.94364
2.94512
2.95139
2.95289
2.95987
2.96613
2.96729
2.97118
2.97196
2.97495
2.97555
2.97794
2.97843
2.98036
2.98074
2.98228
2.98259
2.9838
2.98404
2.98498
2.98516
2.98586
2.98599
2.98648
2.98656
2.98683
2.98689
2.98712
2.98717
2.98731
2.98733
2.98734
2.98733
2.98717
2.9871
2.98669
2.98655
2.98572
2.98545
2.98391
2.9834
2.98044
2.97935
2.97285
2.96978
2.95012
2.91803
2.90868
2.85793
2.84213
2.74953
2.73909
2.73736
2.737
2.73692
2.11335
2.45628
2.47579
2.61607
2.6249
2.69359
2.69808
2.7358
2.73821
2.75764
2.75929
2.77902
2.78059
2.79861
2.80003
2.81621
2.81749
2.83195
2.83309
2.84595
2.84696
2.85832
2.85921
2.86917
2.86995
2.8787
2.87939
2.88728
2.88798
2.8964
2.90386
2.90439
2.90928
2.90964
2.91341
2.91369
2.91671
2.91694
2.91937
2.91955
2.92149
2.92164
2.92317
2.92328
2.92446
2.92455
2.92543
2.92549
2.9261
2.92614
2.92648
2.92651
2.9268
2.92682
2.92701
2.92702
2.92704
2.92703
2.92683
2.9268
2.92627
2.92621
2.92517
2.92505
2.92312
2.92288
2.91918
2.91868
2.91069
2.9093
2.88679
2.84759
2.84322
2.77956
2.77205
2.65285
2.6479
2.64727
2.64715
2.64712
)
;

boundaryField
{
    F1_1
    {
        type            fixedValue;
        value           nonuniform List<scalar> 
80
(
2.02073
2.41754
2.41754
2.57745
2.57745
2.65669
2.65669
2.70227
2.70227
2.73104
2.73104
2.74757
2.74757
2.76569
2.76569
2.78294
2.78294
2.79878
2.79878
2.81305
2.81305
2.82575
2.82575
2.83694
2.83694
2.84679
2.84679
2.85568
2.85568
2.86491
2.87302
2.87302
2.87853
2.87853
2.8828
2.8828
2.88622
2.88622
2.88898
2.88898
2.89118
2.89118
2.89291
2.89291
2.89425
2.89425
2.89525
2.89525
2.89594
2.89594
2.89632
2.89632
2.89666
2.89666
2.89687
2.89687
2.89689
2.89689
2.89666
2.89666
2.89607
2.89607
2.89489
2.89489
2.89269
2.89269
2.8885
2.8885
2.87949
2.87949
2.85547
2.81169
2.81169
2.73927
2.73927
2.60225
2.60225
2.60225
2.60225
2.60225
)
;
    }
    F1_2
    {
        type            fixedValue;
        value           nonuniform List<scalar> 
80
(
2.04973
2.46608
2.46608
2.68564
2.68564
2.83192
2.83192
2.94029
2.94029
3.02104
3.02104
3.07122
3.07122
3.1262
3.1262
3.17753
3.17753
3.2232
3.2232
3.26301
3.26301
3.29736
3.29736
3.3269
3.3269
3.35236
3.35236
3.37496
3.37496
3.39812
3.41836
3.41836
3.43215
3.43215
3.44287
3.44287
3.45157
3.45157
3.45874
3.45874
3.46464
3.46464
3.4695
3.4695
3.47348
3.47348
3.47667
3.47667
3.4791
3.4791
3.48061
3.48061
3.48223
3.48223
3.48369
3.48369
3.48495
3.48495
3.48599
3.48599
3.48684
3.48684
3.48748
3.48748
3.48785
3.48785
3.48762
3.48762
3.48544
3.48544
3.47541
3.45185
3.45185
3.40288
3.40288
3.29286
3.29286
3.29286
3.29286
3.29286
)
;
    }
    F1_3
    {
        type            fixedValue;
        value           nonuniform List<scalar> 
80
(
2.04973
2.46608
2.46608
2.68564
2.68564
2.83191
2.83191
2.94028
2.94028
3.02104
3.02104
3.07122
3.07122
3.1262
3.1262
3.17753
3.17753
3.2232
3.2232
3.26301
3.26301
3.29736
3.29736
3.3269
3.3269
3.35236
3.35236
3.37496
3.37496
3.39812
3.41835
3.41835
3.43215
3.43215
3.44287
3.44287
3.45157
3.45157
3.45873
3.45873
3.46464
3.46464
3.4695
3.4695
3.47348
3.47348
3.47666
3.47666
3.4791
3.4791
3.48061
3.48061
3.48223
3.48223
3.48369
3.48369
3.48495
3.48495
3.48599
3.48599
3.48684
3.48684
3.48748
3.48748
3.48785
3.48785
3.48762
3.48762
3.48544
3.48544
3.47541
3.45185
3.45185
3.40288
3.40288
3.29285
3.29285
3.29285
3.29285
3.29285
)
;
    }
    F1_4
    {
        type            fixedValue;
        value           nonuniform List<scalar> 
80
(
2.0205
2.41706
2.41706
2.57641
2.57641
2.65447
2.65447
2.69739
2.69739
2.71942
2.71942
2.74193
2.74193
2.76248
2.76248
2.78093
2.78093
2.79743
2.79743
2.8121
2.8121
2.82505
2.82505
2.83641
2.83641
2.84639
2.84639
2.85537
2.85537
2.86469
2.87286
2.87286
2.87841
2.87841
2.8827
2.8827
2.88614
2.88614
2.88892
2.88892
2.89113
2.89113
2.89288
2.89288
2.89422
2.89422
2.89523
2.89523
2.89593
2.89593
2.89631
2.89631
2.89665
2.89665
2.89686
2.89686
2.89689
2.89689
2.89666
2.89666
2.89606
2.89606
2.89488
2.89488
2.89269
2.89269
2.8885
2.8885
2.87949
2.87949
2.85546
2.81168
2.81168
2.73925
2.73925
2.60223
2.60223
2.60223
2.60223
2.60223
)
;
    }
    F2_1
    {
        type            fixedValue;
        value           uniform 3.5;
    }
    F2_2
    {
        type            fixedValue;
        value           uniform 3.5;
    }
    F2_3
    {
        type            fixedValue;
        value           uniform 3.5;
    }
    F2_4
    {
        type            fixedValue;
        value           uniform 3.5;
    }
    defaultFaces
    {
        type            empty;
    }
}


// ************************************************************************* //
