/*--------------------------------*- C++ -*----------------------------------*\
| =========                 |                                                 |
| \\      /  F ield         | OpenFOAM: The Open Source CFD Toolbox           |
|  \\    /   O peration     | Version:  5.x                                   |
|   \\  /    A nd           | Web:      www.OpenFOAM.org                      |
|    \\/     M anipulation  |                                                 |
\*---------------------------------------------------------------------------*/
FoamFile
{
    version     2.0;
    format      ascii;
    class       volScalarField;
    location    "2.6001";
    object      T;
}
// * * * * * * * * * * * * * * * * * * * * * * * * * * * * * * * * * * * * * //

dimensions      [0 0 0 1 0 0 0];

internalField   nonuniform List<scalar> 
6300
(
322.851
322.554
322.255
321.954
321.651
321.346
321.036
320.723
320.404
320.081
319.752
319.418
319.078
318.732
318.38
322.852
322.555
322.256
321.957
321.654
321.349
321.04
320.727
320.409
320.086
319.758
319.424
319.084
318.738
318.386
322.852
322.557
322.26
321.961
321.66
321.356
321.049
320.737
320.42
320.097
319.769
319.435
319.095
318.749
318.397
322.853
322.56
322.265
321.969
321.67
321.367
321.061
320.751
320.435
320.114
319.787
319.453
319.113
318.767
318.414
322.855
322.564
322.272
321.978
321.682
321.382
321.078
320.77
320.456
320.136
319.81
319.477
319.138
318.791
318.437
322.857
322.569
322.281
321.991
321.698
321.401
321.1
320.795
320.483
320.165
319.841
319.509
319.169
318.822
318.467
322.859
322.576
322.292
322.006
321.717
321.424
321.127
320.825
320.517
320.201
319.878
319.548
319.208
318.86
318.503
322.861
322.584
322.305
322.023
321.739
321.452
321.159
320.861
320.557
320.245
319.924
319.595
319.256
318.907
318.548
322.864
322.592
322.319
322.044
321.766
321.484
321.197
320.904
320.604
320.297
319.979
319.652
319.313
318.963
318.601
322.868
322.603
322.336
322.068
321.796
321.521
321.241
320.954
320.66
320.358
320.045
319.72
319.383
319.031
318.666
322.871
322.614
322.355
322.094
321.831
321.563
321.29
321.011
320.725
320.429
320.121
319.801
319.466
319.114
318.743
322.876
322.627
322.376
322.124
321.869
321.61
321.347
321.077
320.799
320.511
320.211
319.897
319.566
319.214
318.839
322.88
322.64
322.399
322.157
321.911
321.662
321.409
321.149
320.882
320.605
320.316
320.011
319.686
319.337
318.96
322.885
322.655
322.424
322.192
321.957
321.719
321.477
321.23
320.976
320.712
320.436
320.144
319.83
319.488
319.115
322.89
322.671
322.45
322.229
322.005
321.78
321.551
321.317
321.078
320.831
320.573
320.299
320.002
319.67
319.303
318.052
317.751
317.446
317.137
316.826
316.511
316.194
315.874
315.552
315.227
314.901
314.573
314.243
313.912
313.58
313.247
312.913
312.578
312.243
311.908
311.573
311.237
310.902
310.566
310.23
309.894
309.558
309.222
308.886
308.55
308.215
307.879
307.544
307.209
306.874
306.54
306.206
305.872
305.539
305.205
304.872
304.54
304.207
303.874
303.542
303.21
302.879
302.548
302.217
301.886
301.557
301.227
300.898
300.57
300.241
299.913
299.585
299.258
298.931
298.604
298.277
297.951
297.625
297.3
296.976
296.652
296.329
296.006
295.683
295.362
295.04
294.719
294.398
294.078
293.758
293.438
293.119
292.8
292.482
292.164
291.846
291.529
291.211
290.894
290.576
290.257
289.938
289.617
289.296
288.974
318.058
317.756
317.451
317.142
316.83
316.515
316.198
315.877
315.555
315.23
314.904
314.575
314.245
313.914
313.581
313.248
312.913
312.579
312.244
311.908
311.573
311.237
310.902
310.566
310.23
309.894
309.558
309.222
308.886
308.55
308.214
307.879
307.543
307.208
306.873
306.539
306.205
305.872
305.538
305.205
304.872
304.539
304.207
303.874
303.542
303.21
302.878
302.547
302.216
301.886
301.556
301.227
300.898
300.569
300.241
299.913
299.585
299.257
298.93
298.603
298.276
297.95
297.625
297.3
296.975
296.651
296.328
296.005
295.683
295.361
295.039
294.718
294.397
294.077
293.757
293.437
293.118
292.799
292.481
292.163
291.846
291.529
291.212
290.894
290.576
290.258
289.939
289.619
289.298
288.975
318.069
317.766
317.46
317.151
316.839
316.523
316.205
315.884
315.561
315.236
314.909
314.58
314.249
313.917
313.584
313.25
312.915
312.58
312.244
311.909
311.573
311.238
310.902
310.566
310.23
309.895
309.558
309.222
308.886
308.55
308.214
307.878
307.542
307.207
306.872
306.538
306.204
305.871
305.538
305.204
304.872
304.539
304.206
303.873
303.541
303.209
302.877
302.545
302.215
301.884
301.555
301.225
300.897
300.568
300.24
299.912
299.584
299.257
298.929
298.602
298.275
297.949
297.623
297.298
296.973
296.65
296.326
296.004
295.681
295.36
295.038
294.717
294.396
294.076
293.756
293.436
293.117
292.798
292.48
292.162
291.845
291.529
291.212
290.895
290.578
290.26
289.941
289.622
289.301
288.978
318.085
317.782
317.475
317.165
316.851
316.535
316.216
315.894
315.571
315.244
314.916
314.586
314.255
313.922
313.588
313.252
312.917
312.581
312.245
311.909
311.573
311.238
310.902
310.567
310.231
309.895
309.559
309.222
308.886
308.549
308.213
307.876
307.54
307.205
306.87
306.536
306.203
305.869
305.536
305.204
304.871
304.538
304.205
303.872
303.54
303.207
302.875
302.543
302.212
301.882
301.552
301.223
300.895
300.567
300.239
299.911
299.583
299.255
298.928
298.6
298.273
297.946
297.62
297.295
296.971
296.647
296.324
296.001
295.68
295.358
295.037
294.716
294.395
294.074
293.754
293.434
293.114
292.796
292.478
292.161
291.844
291.528
291.213
290.897
290.581
290.264
289.946
289.626
289.305
288.983
318.107
317.803
317.494
317.183
316.868
316.551
316.23
315.908
315.583
315.256
314.927
314.596
314.263
313.928
313.593
313.256
312.919
312.582
312.246
311.909
311.573
311.238
310.902
310.567
310.231
309.896
309.559
309.223
308.885
308.548
308.211
307.874
307.538
307.202
306.868
306.534
306.2
305.868
305.535
305.203
304.87
304.537
304.204
303.871
303.538
303.205
302.872
302.54
302.209
301.879
301.549
301.221
300.893
300.565
300.237
299.91
299.582
299.254
298.926
298.598
298.27
297.943
297.617
297.291
296.967
296.643
296.32
295.999
295.677
295.356
295.035
294.714
294.393
294.072
293.751
293.431
293.111
292.792
292.475
292.158
291.843
291.528
291.213
290.899
290.584
290.269
289.952
289.633
289.312
288.99
318.135
317.829
317.519
317.205
316.889
316.57
316.248
315.925
315.599
315.27
314.94
314.607
314.273
313.936
313.599
313.26
312.922
312.584
312.246
311.909
311.573
311.238
310.903
310.568
310.233
309.897
309.56
309.223
308.885
308.547
308.209
307.871
307.534
307.199
306.864
306.53
306.198
305.866
305.534
305.202
304.87
304.537
304.204
303.87
303.536
303.202
302.868
302.536
302.204
301.874
301.545
301.217
300.89
300.563
300.236
299.909
299.581
299.253
298.924
298.595
298.267
297.939
297.612
297.286
296.961
296.638
296.316
295.995
295.674
295.354
295.033
294.712
294.391
294.069
293.748
293.427
293.107
292.788
292.47
292.154
291.84
291.526
291.214
290.902
290.589
290.275
289.96
289.642
289.322
288.999
318.169
317.861
317.548
317.232
316.914
316.593
316.27
315.945
315.618
315.288
314.956
314.622
314.285
313.946
313.606
313.265
312.924
312.584
312.245
311.907
311.571
311.237
310.903
310.569
310.234
309.899
309.563
309.225
308.886
308.546
308.206
307.867
307.529
307.193
306.858
306.525
306.194
305.863
305.533
305.202
304.87
304.538
304.204
303.869
303.534
303.198
302.863
302.53
302.198
301.868
301.539
301.212
300.886
300.561
300.235
299.908
299.581
299.252
298.922
298.592
298.262
297.933
297.605
297.278
296.954
296.631
296.31
295.99
295.671
295.351
295.031
294.71
294.389
294.066
293.744
293.421
293.1
292.781
292.463
292.148
291.835
291.524
291.214
290.905
290.596
290.285
289.972
289.656
289.336
289.012
318.211
317.899
317.583
317.263
316.942
316.618
316.294
315.968
315.64
315.31
314.976
314.64
314.3
313.958
313.614
313.269
312.925
312.582
312.242
311.904
311.568
311.235
310.902
310.57
310.238
309.903
309.567
309.228
308.887
308.545
308.203
307.862
307.522
307.185
306.85
306.518
306.188
305.86
305.532
305.203
304.872
304.54
304.205
303.869
303.531
303.194
302.857
302.521
302.189
301.859
301.532
301.206
300.882
300.559
300.235
299.909
299.582
299.252
298.921
298.589
298.257
297.925
297.595
297.268
296.944
296.623
296.303
295.985
295.668
295.35
295.031
294.71
294.388
294.064
293.739
293.415
293.091
292.771
292.453
292.139
291.828
291.52
291.214
290.909
290.604
290.297
289.988
289.674
289.355
289.031
318.26
317.943
317.622
317.297
316.972
316.646
316.32
315.993
315.665
315.335
315.001
314.662
314.32
313.973
313.623
313.273
312.924
312.577
312.235
311.896
311.562
311.231
310.902
310.573
310.243
309.91
309.574
309.234
308.89
308.545
308.198
307.853
307.511
307.172
306.838
306.508
306.181
305.856
305.532
305.206
304.877
304.545
304.209
303.871
303.529
303.188
302.847
302.509
302.176
301.846
301.521
301.198
300.878
300.558
300.237
299.913
299.586
299.256
298.922
298.586
298.25
297.915
297.582
297.254
296.93
296.61
296.294
295.979
295.665
295.35
295.033
294.713
294.389
294.062
293.734
293.406
293.079
292.756
292.438
292.124
291.816
291.512
291.211
290.913
290.614
290.314
290.01
289.7
289.383
289.058
318.318
317.994
317.665
317.333
317.002
316.673
316.347
316.021
315.695
315.366
315.032
314.691
314.344
313.991
313.634
313.275
312.919
312.567
312.221
311.883
311.551
311.225
310.901
310.578
310.252
309.922
309.587
309.245
308.897
308.545
308.192
307.841
307.494
307.154
306.821
306.494
306.171
305.852
305.533
305.212
304.887
304.556
304.218
303.875
303.528
303.18
302.834
302.492
302.156
301.828
301.505
301.188
300.873
300.559
300.242
299.922
299.595
299.263
298.925
298.584
298.241
297.9
297.564
297.234
296.91
296.593
296.282
295.973
295.664
295.354
295.039
294.719
294.394
294.063
293.729
293.395
293.062
292.735
292.415
292.102
291.798
291.5
291.207
290.916
290.627
290.336
290.04
289.736
289.422
289.095
318.387
318.053
317.711
317.368
317.03
316.697
316.372
316.05
315.728
315.403
315.071
314.73
314.378
314.016
313.647
313.275
312.907
312.547
312.198
311.86
311.533
311.214
310.899
310.585
310.267
309.943
309.608
309.264
308.909
308.547
308.183
307.822
307.468
307.125
306.794
306.472
306.157
305.848
305.538
305.225
304.905
304.575
304.235
303.886
303.529
303.17
302.813
302.465
302.127
301.8
301.482
301.173
300.867
300.562
300.254
299.938
299.613
299.279
298.934
298.583
298.229
297.879
297.536
297.203
296.881
296.569
296.265
295.965
295.666
295.363
295.053
294.735
294.407
294.069
293.726
293.38
293.038
292.704
292.381
292.07
291.77
291.48
291.197
290.919
290.643
290.365
290.082
289.788
289.478
289.15
318.473
318.122
317.759
317.398
317.048
316.713
316.391
316.078
315.767
315.451
315.125
314.783
314.425
314.051
313.663
313.269
312.883
312.511
312.158
311.822
311.503
311.196
310.897
310.598
310.293
309.977
309.645
309.297
308.932
308.553
308.169
307.791
307.427
307.081
306.752
306.439
306.137
305.843
305.548
305.248
304.936
304.609
304.266
303.906
303.533
303.154
302.782
302.423
302.082
301.758
301.449
301.151
300.861
300.571
300.275
299.968
299.646
299.308
298.953
298.586
298.213
297.846
297.493
297.157
296.838
296.534
296.242
295.957
295.672
295.381
295.08
294.764
294.432
294.085
293.725
293.36
293.001
292.657
292.33
292.021
291.728
291.449
291.181
290.92
290.66
290.402
290.139
289.862
289.562
289.232
318.583
318.208
317.803
317.412
317.045
316.709
316.396
316.103
315.814
315.514
315.199
314.86
314.498
314.104
313.688
313.253
312.838
312.449
312.092
311.761
311.456
311.168
310.894
310.621
310.334
310.032
309.705
309.355
308.973
308.568
308.145
307.741
307.361
307.012
306.688
306.389
306.106
305.837
305.568
305.286
304.989
304.667
304.321
303.945
303.546
303.129
302.731
302.357
302.013
301.693
301.399
301.12
300.855
300.589
300.312
300.018
299.701
299.361
298.99
298.597
298.186
297.794
297.425
297.087
296.773
296.483
296.209
295.948
295.687
295.415
295.127
294.815
294.481
294.118
293.732
293.33
292.945
292.584
292.254
291.947
291.666
291.403
291.156
290.916
290.677
290.445
290.215
289.969
289.69
289.359
318.741
318.339
317.825
317.392
316.996
316.671
316.374
316.122
315.876
315.598
315.309
314.971
314.615
314.191
313.739
313.207
312.757
312.339
311.99
311.662
311.384
311.12
310.89
310.661
310.399
310.123
309.8
309.457
309.047
308.609
308.094
307.657
307.249
306.908
306.588
306.315
306.057
305.831
305.606
305.348
305.077
304.758
304.421
304.017
303.586
303.077
302.647
302.245
301.909
301.593
301.325
301.07
300.847
300.625
300.371
300.104
299.79
299.457
299.059
298.634
298.133
297.709
297.314
296.983
296.672
296.408
296.157
295.938
295.72
295.47
295.208
294.899
294.572
294.182
293.764
293.273
292.856
292.467
292.143
291.838
291.579
291.333
291.121
290.912
290.682
290.488
290.312
290.125
289.894
289.573
318.989
318.631
317.731
317.321
316.843
316.595
316.287
316.133
315.983
315.699
315.488
315.109
314.83
314.317
313.904
313.043
312.632
312.129
311.857
311.492
311.29
311.024
310.886
310.748
310.483
310.283
309.923
309.655
309.162
308.763
307.929
307.53
307.04
306.775
306.418
306.221
305.96
305.825
305.689
305.429
305.232
304.878
304.614
304.129
303.735
302.913
302.521
302.038
301.777
301.425
301.23
300.973
300.84
300.706
300.45
300.256
299.906
299.647
299.168
298.78
297.97
297.583
297.108
296.85
296.504
296.313
296.06
295.929
295.797
295.545
295.354
295.01
294.755
294.285
293.904
293.107
292.727
292.258
292.004
291.661
291.471
291.216
291.082
290.939
290.633
290.506
290.425
290.344
290.226
289.985
288.619
288.23
287.84
287.449
287.059
286.668
286.278
285.889
285.501
285.113
284.727
284.342
283.958
283.575
283.191
288.62
288.231
287.84
287.45
287.059
286.668
286.277
285.888
285.5
285.112
284.726
284.341
283.957
283.574
283.191
288.622
288.233
287.842
287.45
287.058
286.667
286.276
285.886
285.497
285.11
284.724
284.34
283.956
283.573
283.191
288.626
288.236
287.844
287.451
287.057
286.665
286.273
285.883
285.494
285.106
284.721
284.337
283.954
283.572
283.191
288.632
288.24
287.846
287.451
287.056
286.662
286.269
285.878
285.488
285.101
284.716
284.333
283.951
283.57
283.19
288.641
288.247
287.85
287.452
287.055
286.658
286.263
285.871
285.481
285.094
284.709
284.327
283.946
283.567
283.189
288.652
288.255
287.855
287.453
287.052
286.652
286.255
285.861
285.471
285.084
284.7
284.319
283.941
283.564
283.188
288.669
288.267
287.861
287.454
287.047
286.643
286.243
285.848
285.457
285.071
284.689
284.31
283.934
283.559
283.186
288.691
288.283
287.869
287.453
287.04
286.631
286.227
285.83
285.439
285.054
284.674
284.297
283.924
283.554
283.184
288.723
288.304
287.877
287.451
287.028
286.613
286.205
285.806
285.416
285.032
284.654
284.282
283.913
283.547
283.182
288.768
288.332
287.887
287.444
287.009
286.586
286.175
285.775
285.385
285.004
284.63
284.262
283.898
283.538
283.179
288.833
288.368
287.894
287.429
286.98
286.548
286.133
285.733
285.345
284.968
284.6
284.238
283.881
283.527
283.176
288.928
288.411
287.894
287.399
286.932
286.492
286.075
285.678
285.295
284.925
284.563
284.209
283.86
283.515
283.171
289.07
288.456
287.872
287.34
286.857
286.413
285.999
285.608
285.233
284.872
284.52
284.175
283.836
283.5
283.166
289.275
288.471
287.797
287.232
286.743
286.305
285.901
285.521
285.159
284.809
284.469
284.136
283.808
283.483
283.161
322.895
322.686
322.475
322.265
322.052
321.838
321.622
321.403
321.18
320.951
320.714
320.463
320.19
319.87
319.454
322.9
322.7
322.499
322.298
322.096
321.893
321.689
321.483
321.276
321.065
320.85
320.629
320.393
320.118
319.703
322.905
322.714
322.523
322.332
322.14
321.949
321.757
321.565
321.374
321.182
320.992
320.804
320.623
320.464
320.41
322.909
322.728
322.547
322.366
322.185
322.005
321.825
321.647
321.471
321.299
321.132
320.975
320.837
320.736
320.7
322.914
322.742
322.571
322.4
322.229
322.06
321.893
321.728
321.567
321.411
321.264
321.133
321.026
320.963
320.988
322.919
322.756
322.594
322.433
322.273
322.114
321.958
321.806
321.658
321.517
321.387
321.273
321.183
321.13
321.122
322.923
322.77
322.617
322.465
322.315
322.167
322.021
321.88
321.744
321.616
321.499
321.396
321.315
321.266
321.266
322.928
322.783
322.639
322.497
322.356
322.217
322.082
321.951
321.825
321.708
321.6
321.504
321.426
321.367
321.331
322.932
322.796
322.661
322.527
322.395
322.265
322.139
322.018
321.901
321.792
321.692
321.601
321.522
321.454
321.385
322.936
322.808
322.681
322.556
322.432
322.311
322.194
322.08
321.972
321.871
321.776
321.69
321.612
321.54
321.478
322.94
322.82
322.701
322.583
322.468
322.355
322.245
322.14
322.039
321.944
321.856
321.773
321.696
321.621
321.539
322.944
322.831
322.72
322.609
322.501
322.396
322.294
322.195
322.102
322.014
321.931
321.853
321.779
321.707
321.64
322.947
322.842
322.737
322.634
322.533
322.435
322.339
322.248
322.161
322.079
322.002
321.93
321.86
321.79
321.707
322.95
322.852
322.754
322.657
322.563
322.471
322.382
322.298
322.217
322.141
322.071
322.004
321.942
321.881
321.821
322.954
322.861
322.77
322.679
322.591
322.505
322.423
322.344
322.27
322.2
322.136
322.077
322.023
321.971
321.904
322.957
322.87
322.784
322.7
322.617
322.537
322.461
322.387
322.319
322.255
322.197
322.145
322.102
322.071
322.068
322.959
322.878
322.798
322.719
322.642
322.567
322.496
322.428
322.364
322.306
322.254
322.209
322.173
322.15
322.142
322.962
322.886
322.811
322.737
322.665
322.595
322.528
322.465
322.407
322.353
322.305
322.266
322.235
322.219
322.225
322.964
322.893
322.823
322.753
322.686
322.621
322.559
322.5
322.445
322.396
322.352
322.316
322.288
322.272
322.267
322.966
322.9
322.834
322.769
322.706
322.645
322.586
322.531
322.48
322.434
322.393
322.359
322.333
322.318
322.317
322.969
322.906
322.844
322.783
322.724
322.666
322.612
322.56
322.512
322.468
322.43
322.397
322.371
322.354
322.343
322.97
322.912
322.853
322.796
322.74
322.686
322.635
322.586
322.541
322.5
322.462
322.43
322.404
322.384
322.374
322.972
322.917
322.862
322.808
322.756
322.705
322.656
322.61
322.567
322.528
322.492
322.46
322.432
322.408
322.389
322.974
322.922
322.87
322.819
322.77
322.722
322.676
322.632
322.591
322.553
322.518
322.486
322.457
322.43
322.402
322.975
322.926
322.877
322.829
322.782
322.737
322.694
322.652
322.613
322.576
322.542
322.51
322.48
322.452
322.425
322.977
322.93
322.884
322.839
322.794
322.751
322.71
322.671
322.633
322.598
322.564
322.533
322.503
322.473
322.441
322.978
322.934
322.89
322.847
322.805
322.765
322.725
322.688
322.652
322.618
322.586
322.555
322.525
322.496
322.467
322.979
322.937
322.896
322.855
322.815
322.777
322.739
322.704
322.669
322.637
322.606
322.576
322.547
322.518
322.485
322.98
322.941
322.901
322.863
322.825
322.788
322.753
322.718
322.686
322.655
322.625
322.597
322.57
322.543
322.516
322.981
322.943
322.906
322.869
322.833
322.798
322.765
322.732
322.701
322.671
322.643
322.617
322.592
322.567
322.539
322.982
322.946
322.911
322.876
322.841
322.808
322.776
322.745
322.715
322.687
322.661
322.636
322.614
322.595
322.584
322.983
322.949
322.915
322.881
322.849
322.817
322.786
322.756
322.728
322.701
322.677
322.654
322.634
322.617
322.604
322.984
322.951
322.919
322.887
322.855
322.825
322.795
322.767
322.74
322.715
322.691
322.67
322.651
322.636
322.627
322.984
322.953
322.922
322.892
322.862
322.832
322.804
322.777
322.751
322.727
322.704
322.684
322.666
322.651
322.639
322.985
322.955
322.925
322.896
322.867
322.839
322.812
322.786
322.761
322.737
322.716
322.696
322.678
322.664
322.653
322.986
322.957
322.928
322.9
322.872
322.845
322.819
322.794
322.77
322.747
322.726
322.706
322.689
322.673
322.66
322.986
322.958
322.931
322.904
322.877
322.851
322.826
322.801
322.778
322.756
322.735
322.715
322.698
322.682
322.669
322.987
322.96
322.933
322.907
322.881
322.856
322.831
322.808
322.785
322.763
322.743
322.723
322.705
322.689
322.673
322.987
322.961
322.935
322.91
322.885
322.86
322.837
322.814
322.791
322.77
322.75
322.731
322.712
322.695
322.677
322.987
322.962
322.937
322.913
322.888
322.865
322.841
322.819
322.797
322.776
322.756
322.737
322.718
322.7
322.683
322.988
322.963
322.939
322.915
322.891
322.868
322.846
322.824
322.802
322.782
322.762
322.743
322.724
322.706
322.687
322.988
322.964
322.941
322.917
322.894
322.871
322.849
322.828
322.807
322.787
322.767
322.748
322.73
322.712
322.694
322.988
322.965
322.942
322.919
322.897
322.874
322.853
322.832
322.811
322.791
322.772
322.754
322.736
322.718
322.699
322.989
322.966
322.943
322.921
322.899
322.877
322.856
322.835
322.815
322.796
322.777
322.759
322.741
322.724
322.707
322.989
322.966
322.944
322.922
322.901
322.879
322.858
322.838
322.818
322.799
322.781
322.763
322.746
322.729
322.712
322.989
322.967
322.945
322.923
322.902
322.881
322.861
322.841
322.821
322.803
322.785
322.767
322.751
322.736
322.722
322.989
322.967
322.946
322.924
322.903
322.883
322.863
322.843
322.824
322.805
322.788
322.771
322.755
322.74
322.727
322.989
322.968
322.946
322.925
322.904
322.884
322.864
322.845
322.826
322.808
322.79
322.774
322.758
322.744
322.731
322.989
322.968
322.947
322.926
322.905
322.885
322.865
322.846
322.827
322.81
322.792
322.776
322.761
322.747
322.733
322.989
322.968
322.947
322.926
322.906
322.886
322.866
322.847
322.828
322.811
322.794
322.778
322.763
322.748
322.736
322.989
322.968
322.947
322.926
322.906
322.886
322.866
322.847
322.829
322.811
322.795
322.779
322.764
322.75
322.736
322.989
322.968
322.947
322.926
322.906
322.886
322.866
322.847
322.829
322.812
322.795
322.779
322.764
322.75
322.737
322.989
322.968
322.947
322.926
322.906
322.885
322.866
322.847
322.829
322.811
322.794
322.779
322.764
322.75
322.737
322.989
322.968
322.947
322.926
322.905
322.885
322.865
322.846
322.828
322.81
322.793
322.778
322.763
322.749
322.736
322.989
322.968
322.946
322.925
322.904
322.884
322.864
322.845
322.826
322.808
322.792
322.776
322.761
322.748
322.735
322.989
322.967
322.945
322.924
322.903
322.882
322.862
322.843
322.824
322.806
322.789
322.774
322.759
322.746
322.734
322.989
322.967
322.944
322.923
322.901
322.88
322.86
322.84
322.821
322.803
322.786
322.77
322.756
322.743
322.731
322.989
322.966
322.943
322.921
322.899
322.878
322.857
322.837
322.818
322.8
322.782
322.766
322.751
322.738
322.728
322.988
322.965
322.942
322.919
322.897
322.875
322.854
322.833
322.814
322.795
322.778
322.761
322.746
322.733
322.721
322.988
322.964
322.94
322.917
322.894
322.872
322.85
322.829
322.809
322.79
322.772
322.755
322.74
322.725
322.715
322.988
322.963
322.939
322.915
322.891
322.868
322.846
322.824
322.804
322.784
322.766
322.748
322.732
322.716
322.699
322.987
322.962
322.937
322.912
322.888
322.864
322.841
322.819
322.798
322.778
322.759
322.741
322.724
322.707
322.691
322.987
322.961
322.934
322.909
322.884
322.859
322.836
322.813
322.791
322.771
322.751
322.733
322.715
322.698
322.68
322.986
322.959
322.932
322.905
322.879
322.854
322.83
322.806
322.784
322.763
322.743
322.724
322.706
322.689
322.673
322.986
322.957
322.929
322.901
322.874
322.848
322.823
322.799
322.776
322.754
322.734
322.715
322.697
322.68
322.662
322.985
322.955
322.926
322.897
322.869
322.842
322.815
322.79
322.767
322.744
322.724
322.705
322.687
322.671
322.655
322.984
322.953
322.923
322.892
322.863
322.834
322.807
322.781
322.756
322.734
322.713
322.694
322.676
322.661
322.645
322.984
322.951
322.919
322.887
322.856
322.826
322.798
322.77
322.745
322.722
322.7
322.681
322.665
322.651
322.639
322.983
322.948
322.914
322.881
322.849
322.817
322.787
322.759
322.732
322.708
322.686
322.667
322.651
322.639
322.632
322.982
322.946
322.91
322.875
322.84
322.807
322.776
322.746
322.718
322.693
322.67
322.651
322.636
322.624
322.617
322.981
322.942
322.905
322.867
322.831
322.796
322.763
322.731
322.702
322.676
322.652
322.632
322.617
322.607
322.604
322.98
322.939
322.899
322.86
322.821
322.784
322.749
322.715
322.684
322.656
322.631
322.61
322.594
322.584
322.579
322.978
322.935
322.893
322.851
322.81
322.771
322.733
322.698
322.665
322.635
322.608
322.585
322.567
322.557
322.558
322.977
322.931
322.886
322.842
322.798
322.757
322.717
322.679
322.643
322.611
322.581
322.556
322.535
322.522
322.516
322.976
322.927
322.879
322.832
322.786
322.741
322.698
322.658
322.62
322.584
322.552
322.523
322.499
322.481
322.478
322.974
322.922
322.871
322.821
322.772
322.724
322.679
322.635
322.594
322.556
322.521
322.488
322.458
322.429
322.393
322.972
322.917
322.863
322.809
322.757
322.706
322.657
322.611
322.567
322.526
322.487
322.451
322.416
322.383
322.35
322.97
322.912
322.853
322.796
322.74
322.686
322.634
322.585
322.538
322.493
322.452
322.412
322.374
322.335
322.29
322.969
322.906
322.844
322.783
322.723
322.665
322.61
322.557
322.507
322.459
322.415
322.373
322.332
322.293
322.255
322.966
322.899
322.833
322.768
322.704
322.643
322.583
322.527
322.474
322.424
322.377
322.332
322.29
322.248
322.202
322.964
322.893
322.822
322.752
322.684
322.618
322.555
322.495
322.438
322.386
322.336
322.291
322.248
322.207
322.169
322.962
322.885
322.81
322.735
322.663
322.592
322.525
322.461
322.401
322.345
322.294
322.247
322.204
322.164
322.12
322.959
322.877
322.797
322.717
322.639
322.564
322.492
322.424
322.36
322.301
322.248
322.2
322.158
322.122
322.093
322.956
322.869
322.783
322.697
322.614
322.534
322.457
322.384
322.316
322.253
322.198
322.149
322.109
322.076
322.059
322.953
322.86
322.768
322.677
322.588
322.501
322.418
322.34
322.267
322.201
322.143
322.094
322.053
322.019
321.979
322.95
322.851
322.752
322.654
322.559
322.466
322.377
322.293
322.214
322.143
322.082
322.032
321.994
321.967
321.944
322.947
322.841
322.735
322.631
322.528
322.429
322.333
322.241
322.156
322.079
322.013
321.961
321.926
321.913
321.919
322.943
322.83
322.717
322.606
322.496
322.389
322.285
322.185
322.092
322.007
321.934
321.878
321.845
321.845
321.887
322.94
322.819
322.699
322.58
322.462
322.346
322.234
322.125
322.022
321.927
321.844
321.778
321.74
321.748
321.832
322.936
322.808
322.68
322.553
322.427
322.302
322.18
322.061
321.947
321.839
321.741
321.659
321.603
321.597
321.705
289.491
288.367
287.627
287.064
286.593
286.174
285.788
285.425
285.078
284.743
284.416
284.095
283.779
283.466
283.155
289.094
288.005
287.349
286.848
286.419
286.032
285.67
285.327
284.997
284.676
284.363
284.055
283.751
283.45
283.15
287.526
287.342
286.965
286.582
286.217
285.871
285.54
285.22
284.909
284.605
284.307
284.012
283.721
283.432
283.144
286.909
286.812
286.585
286.302
286.003
285.7
285.401
285.107
284.816
284.53
284.247
283.967
283.69
283.413
283.138
286.326
286.373
286.244
286.035
285.789
285.528
285.26
284.99
284.721
284.453
284.186
283.921
283.657
283.394
283.131
286.063
286.056
285.959
285.793
285.587
285.359
285.119
284.873
284.624
284.374
284.124
283.874
283.624
283.374
283.125
285.789
285.803
285.72
285.579
285.4
285.199
284.983
284.758
284.529
284.296
284.062
283.827
283.591
283.354
283.118
285.666
285.616
285.523
285.391
285.23
285.048
284.852
284.647
284.435
284.219
284
283.78
283.558
283.335
283.112
285.569
285.46
285.351
285.222
285.073
284.907
284.729
284.54
284.345
284.144
283.94
283.733
283.525
283.315
283.105
285.4
285.305
285.194
285.068
284.929
284.776
284.612
284.438
284.258
284.072
283.882
283.689
283.493
283.296
283.099
285.29
285.162
285.046
284.924
284.793
284.652
284.501
284.341
284.175
284.002
283.825
283.645
283.462
283.278
283.093
285.11
285.01
284.901
284.787
284.665
284.535
284.396
284.249
284.095
283.936
283.771
283.603
283.433
283.26
283.087
284.992
284.866
284.76
284.654
284.543
284.424
284.297
284.162
284.02
283.872
283.72
283.564
283.405
283.244
283.081
284.793
284.707
284.618
284.525
284.426
284.319
284.203
284.079
283.949
283.812
283.671
283.526
283.378
283.227
283.076
284.648
284.551
284.478
284.401
284.315
284.219
284.114
284.002
283.882
283.756
283.625
283.49
283.352
283.212
283.071
284.365
284.379
284.342
284.283
284.21
284.126
284.032
283.929
283.819
283.703
283.581
283.456
283.328
283.198
283.066
284.238
284.243
284.22
284.175
284.114
284.039
283.955
283.861
283.76
283.653
283.541
283.425
283.305
283.184
283.062
284.097
284.125
284.114
284.079
284.026
283.96
283.884
283.798
283.706
283.607
283.503
283.395
283.284
283.171
283.057
284.027
284.035
284.024
283.994
283.948
283.889
283.819
283.741
283.655
283.564
283.468
283.368
283.265
283.16
283.053
283.943
283.958
283.948
283.92
283.878
283.824
283.76
283.688
283.609
283.525
283.436
283.343
283.247
283.149
283.05
283.899
283.898
283.885
283.857
283.817
283.767
283.707
283.641
283.567
283.489
283.406
283.319
283.23
283.139
283.046
283.849
283.848
283.831
283.802
283.763
283.715
283.66
283.597
283.529
283.456
283.378
283.298
283.214
283.129
283.043
283.825
283.808
283.785
283.754
283.715
283.669
283.617
283.558
283.494
283.426
283.353
283.278
283.2
283.121
283.04
283.804
283.774
283.745
283.711
283.672
283.628
283.578
283.522
283.462
283.398
283.331
283.26
283.187
283.113
283.038
283.767
283.739
283.707
283.672
283.634
283.59
283.542
283.49
283.433
283.373
283.31
283.244
283.175
283.106
283.035
283.743
283.706
283.672
283.636
283.598
283.556
283.51
283.46
283.407
283.35
283.291
283.229
283.165
283.099
283.033
283.702
283.671
283.637
283.602
283.565
283.524
283.481
283.433
283.383
283.329
283.273
283.215
283.155
283.093
283.031
283.675
283.637
283.603
283.57
283.534
283.495
283.454
283.409
283.361
283.31
283.257
283.202
283.146
283.088
283.029
283.63
283.6
283.57
283.538
283.505
283.468
283.429
283.386
283.341
283.293
283.243
283.191
283.138
283.083
283.028
283.597
283.565
283.538
283.509
283.477
283.443
283.406
283.366
283.323
283.277
283.23
283.181
283.13
283.078
283.026
283.533
283.526
283.506
283.481
283.452
283.42
283.385
283.347
283.306
283.263
283.218
283.171
283.123
283.074
283.025
283.505
283.495
283.478
283.456
283.43
283.399
283.366
283.33
283.291
283.25
283.207
283.163
283.117
283.071
283.024
283.474
283.469
283.454
283.434
283.409
283.381
283.349
283.315
283.278
283.239
283.198
283.155
283.112
283.067
283.023
283.459
283.449
283.435
283.415
283.392
283.364
283.334
283.301
283.266
283.228
283.189
283.149
283.107
283.064
283.022
283.441
283.433
283.418
283.399
283.376
283.35
283.321
283.289
283.255
283.219
283.182
283.143
283.103
283.062
283.021
283.433
283.421
283.405
283.386
283.363
283.338
283.309
283.279
283.246
283.211
283.175
283.137
283.099
283.06
283.02
283.423
283.411