/*--------------------------------*- C++ -*----------------------------------*\
| =========                 |                                                 |
| \\      /  F ield         | OpenFOAM: The Open Source CFD Toolbox           |
|  \\    /   O peration     | Version:  5.x                                   |
|   \\  /    A nd           | Web:      www.OpenFOAM.org                      |
|    \\/     M anipulation  |                                                 |
\*---------------------------------------------------------------------------*/
FoamFile
{
    version     2.0;
    format      ascii;
    class       volScalarField;
    location    "10.1001";
    object      gradTy;
}
// * * * * * * * * * * * * * * * * * * * * * * * * * * * * * * * * * * * * * //

dimensions      [0 -1 0 1 0 0 0];

internalField   nonuniform List<scalar> 
6300
(
32284.1
32252.2
32220.2
32188.1
32155.7
32123
32089.9
32056.4
32022.4
31987.9
31952.8
31917.2
31880.9
31844.1
31806.6
0.0534199
0.159761
0.264573
0.366722
0.464917
0.557665
0.643252
0.719764
0.785147
0.837337
0.874442
0.894998
0.898249
0.88443
0.854955
0.0895874
0.26797
0.443915
0.615599
0.780916
0.937398
1.08217
1.21196
1.32322
1.4123
1.47576
1.51084
1.516
1.49139
1.43938
0.126547
0.378616
0.627517
0.870842
1.10575
1.32884
1.53606
1.72269
1.88348
2.01286
2.10544
2.15662
2.1635
2.12577
2.04659
0.164532
0.492428
0.816694
1.1345
1.4424
1.73615
2.01052
2.25926
2.47514
2.65023
2.77651
2.8467
2.85559
2.80158
2.68821
0.203685
0.60987
1.01233
1.40805
1.7932
2.16283
2.51062
2.82869
3.10757
3.33642
3.50365
3.59806
3.61059
3.53673
3.37931
0.244025
0.731031
1.21471
1.69217
2.1595
2.61133
3.04043
3.43731
3.79002
4.0842
4.30359
4.43129
4.45199
4.35541
4.14109
0.285406
0.855519
1.4233
1.98642
2.5413
3.08257
3.60245
4.09009
4.531
4.90677
5.19522
5.37151
5.41064
5.29184
5.00573
0.327485
0.982332
1.63656
2.2889
2.9367
3.5752
4.19671
4.78957
5.33711
5.81665
6.19899
6.44889
6.52722
6.3956
6.0251
0.369685
1.10976
1.85171
2.59592
3.34138
4.0848
4.8196
5.53437
6.21122
6.82372
7.3352
7.69787
7.85381
7.73829
7.28598
0.411177
1.23531
2.06459
2.9017
3.74808
4.60304
5.46249
6.3171
7.14967
7.93182
8.62023
9.15364
9.45203
9.4181
8.93361
0.450887
1.35572
2.26963
3.19821
4.1462
5.11678
6.11023
7.12185
8.13853
9.13366
10.0604
10.8447
11.3832
11.5497
11.1921
0.487533
1.46706
2.46
3.47528
4.52174
5.60764
6.73979
7.92153
9.14895
10.404
11.643
12.782
13.6879
14.2095
14.2939
0.519715
1.565
2.62801
3.72119
4.85782
6.05225
7.31975
8.67552
10.1318
11.6903
13.3259
14.9536
16.3806
17.3175
17.8971
0.546046
1.64519
2.76586
3.92364
5.1361
6.42379
7.81142
9.32903
11.0123
12.8996
15.017
17.3276
19.5704
20.8086
18.4605
31771.8
31739.7
31707.3
31674.5
31641.5
31608.1
31574.5
31540.6
31506.5
31472.2
31437.7
31403
31368.3
31333.4
31298.4
31263.3
31228.3
31193.2
31158.1
31123
31087.9
31052.9
31018
30983
30948.2
30913.3
30878.5
30843.8
30809.1
30774.5
30740
30705.5
30671.2
30636.9
30602.8
30568.7
30534.8
30501
30467.2
30433.6
30400
30366.6
30333.2
30299.9
30266.7
30233.6
30200.6
30167.8
30135
30102.4
30069.8
30037.4
30005.1
29972.9
29940.8
29908.8
29876.8
29845
29813.2
29781.6
29750
29718.5
29687.1
29655.8
29624.7
29593.6
29562.6
29531.7
29500.9
29470.2
29439.6
29409
29378.5
29348
29317.6
29287.3
29257
29226.8
29196.7
29166.6
29136.5
29106.5
29076.4
29046.4
29016.3
28986.2
28956
28925.8
28895.4
28864.9
0.815976
0.773743
0.72699
0.677931
0.628417
0.579688
0.53224
0.485848
0.439741
0.392892
0.344363
0.293634
0.240834
0.186843
0.133229
0.0820227
0.0353915
-0.00474536
-0.0370622
-0.0610748
-0.0772437
-0.0869156
-0.0921196
-0.0952522
-0.0987047
-0.104491
-0.113939
-0.127491
-0.144654
-0.164108
-0.183957
-0.202086
-0.216552
-0.225934
-0.229591
-0.227766
-0.221544
-0.212661
-0.203212
-0.195297
-0.190674
-0.190464
-0.194962
-0.203593
-0.215014
-0.227351
-0.238532
-0.246664
-0.250355
-0.248962
-0.242684
-0.232525
-0.220106
-0.207391
-0.196351
-0.188631
-0.185273
-0.186537
-0.191857
-0.199938
-0.20898
-0.216998
-0.222171
-0.223158
-0.219321
-0.210822
-0.198575
-0.184076
-0.169126
-0.155514
-0.144688
-0.137487
-0.133962
-0.133323
-0.134034
-0.134028
-0.131019
-0.122866
-0.107909
-0.0852478
-0.0549125
-0.0179186
0.0237929
0.0675173
0.110035
0.147925
0.177925
0.197296
0.204164
0.19776
1.37081
1.2968
1.21536
1.13065
1.04615
0.964145
0.885413
0.809309
0.734083
0.657479
0.577419
0.492657
0.403253
0.310778
0.218192
0.129411
0.0486458
-0.0203523
-0.0749805
-0.114269
-0.139077
-0.151972
-0.156838
-0.15826
-0.160814
-0.168348
-0.18339
-0.206758
-0.237459
-0.272889
-0.309327
-0.342628
-0.368991
-0.385649
-0.391357
-0.386594
-0.373466
-0.355335
-0.33625
-0.320269
-0.310784
-0.309961
-0.318371
-0.334891
-0.356901
-0.380747
-0.402393
-0.418151
-0.425328
-0.422686
-0.410634
-0.391125
-0.367309
-0.342988
-0.321975
-0.307454
-0.301442
-0.304447
-0.315372
-0.331696
-0.349917
-0.366172
-0.376924
-0.379582
-0.372931
-0.357314
-0.334531
-0.307504
-0.27975
-0.254763
-0.235392
-0.223314
-0.218692
-0.220072
-0.224543
-0.228162
-0.226551
-0.215596
-0.192096
-0.154276
-0.102097
-0.0373463
0.0364816
0.114484
0.190793
0.259138
0.313493
0.348763
0.361428
0.350035
1.94246
1.83055
1.70842
1.58306
1.4603
1.34387
1.2348
1.1315
1.0304
0.927037
0.81724
0.698357
0.570088
0.434868
0.297672
0.165252
0.0449509
-0.0566561
-0.134992
-0.18832
-0.218066
-0.228596
-0.226518
-0.219642
-0.215753
-0.221396
-0.240854
-0.27547
-0.323456
-0.38022
-0.439216
-0.493164
-0.535408
-0.561135
-0.568202
-0.557469
-0.532593
-0.499385
-0.464821
-0.435886
-0.418423
-0.416166
-0.430102
-0.458284
-0.496147
-0.537312
-0.574735
-0.601996
-0.61444
-0.609965
-0.589323
-0.555929
-0.515241
-0.473824
-0.438253
-0.414024
-0.404629
-0.410957
-0.431114
-0.460725
-0.493688
-0.523272
-0.543335
-0.549412
-0.539456
-0.514126
-0.4766
-0.43198
-0.386392
-0.34593
-0.315596
-0.298404
-0.294783
-0.30237
-0.316284
-0.329827
-0.33554
-0.326394
-0.296907
-0.243983
-0.167386
-0.0698474
0.0431572
0.163887
0.283017
0.390494
0.476542
0.532779
0.553333
0.535737
2.53892
2.37902
2.20612
2.03169
1.86534
1.713
1.57586
1.4505
1.32999
1.20585
1.07014
0.917567
0.746927
0.5618
0.370271
0.183637
0.0143337
-0.126473
-0.231016
-0.29633
-0.324729
-0.323375
-0.303109
-0.276723
-0.256965
-0.254553
-0.276489
-0.32493
-0.396812
-0.484338
-0.576376
-0.660552
-0.725611
-0.76349
-0.770682
-0.748708
-0.70372
-0.645389
-0.585287
-0.534983
-0.504167
-0.499055
-0.52132
-0.567735
-0.63064
-0.699267
-0.761713
-0.807177
-0.827916
-0.820525
-0.786376
-0.731239
-0.664223
-0.59624
-0.538201
-0.499233
-0.485174
-0.497551
-0.533244
-0.584928
-0.642325
-0.694081
-0.729886
-0.742329
-0.728119
-0.6885
-0.628886
-0.557851
-0.485654
-0.422511
-0.376873
-0.353956
-0.354731
-0.375558
-0.408557
-0.442769
-0.465925
-0.466483
-0.435468
-0.367777
-0.26283
-0.124619
0.0387091
0.215593
0.392022
0.55271
0.682518
0.76818
0.800174
0.774378
3.1702
2.94618
2.70602
2.46868
2.25021
2.06022
1.89996
1.76248
1.63482
1.50129
1.34732
1.16279
0.944619
0.697945
0.435816
0.177064
-0.0573223
-0.248514
-0.383533
-0.457502
-0.474235
-0.445392
-0.388513
-0.324259
-0.273202
-0.252651
-0.273955
-0.340639
-0.447641
-0.581957
-0.724858
-0.855471
-0.954954
-1.01003
-1.01516
-0.97309
-0.894059
-0.793946
-0.691644
-0.606019
-0.552898
-0.54252
-0.577765
-0.65344
-0.756896
-0.870122
-0.973144
-1.04796
-1.0819
-1.06962
-1.01365
-0.923652
-0.8146
-0.704339
-0.610685
-0.548576
-0.527651
-0.550572
-0.612347
-0.700904
-0.799085
-0.887861
-0.950077
-0.973625
-0.953372
-0.891668
-0.797617
-0.685394
-0.571876
-0.473884
-0.405432
-0.375388
-0.385806
-0.431216
-0.499082
-0.57163
-0.62885
-0.652037
-0.62684
-0.545218
-0.406174
-0.21556
0.014742
0.267955
0.523695
0.759391
0.952067
1.08086
1.13023
1.0931
3.85032
3.53654
3.20187
2.87848
2.59404
2.36464
2.19122
2.06034
1.94808
1.82618
1.66848
1.45646
1.18335
0.85634
0.496491
0.135399
-0.191183
-0.451447
-0.623964
-0.701097
-0.689372
-0.607781
-0.48454
-0.352792
-0.245512
-0.190475
-0.206078
-0.298288
-0.459138
-0.667217
-0.891035
-1.09522
-1.24824
-1.3285
-1.32762
-1.25069
-1.11476
-0.945657
-0.773986
-0.630249
-0.540079
-0.520292
-0.575989
-0.699145
-0.869082
-1.05567
-1.22519
-1.34762
-1.40244
-1.38161
-1.28994
-1.1435
-0.96672
-0.788522
-0.637745
-0.538613
-0.50699
-0.547643
-0.652884
-0.803022
-0.969387
-1.11989
-1.22595
-1.26799
-1.23832
-1.14141
-0.992514
-0.814801
-0.635742
-0.482717
-0.378685
-0.338554
-0.366493
-0.454537
-0.582866
-0.722563
-0.840783
-0.907262
-0.899466
-0.805346
-0.623779
-0.363652
-0.0422155
0.316678
0.684232
1.02802
1.3136
1.50792
1.58486
1.53161
4.60162
4.15699
3.68145
3.23217
2.85862
2.58841
2.42123
2.33135
2.27521
2.2026
2.06785
1.83808
1.49968
1.06202
0.55895
0.0440327
-0.420544
-0.780739
-1.00175
-1.07265
-1.00512
-0.830146
-0.59282
-0.34609
-0.142595
-0.0265801
-0.0278868
-0.157096
-0.402629
-0.729811
-1.08549
-1.40865
-1.64628
-1.76384
-1.74957
-1.61328
-1.38321
-1.10107
-0.816107
-0.577342
-0.425912
-0.389368
-0.477073
-0.677485
-0.957291
-1.2658
-1.54503
-1.74466
-1.83191
-1.79563
-1.6451
-1.40703
-1.12088
-0.833222
-0.590438
-0.431436
-0.382255
-0.451705
-0.62877
-0.881774
-1.16253
-1.41591
-1.59402
-1.66563
-1.62006
-1.46604
-1.2289
-0.946147
-0.662116
-0.421002
-0.259918
-0.203696
-0.260631
-0.419844
-0.650277
-0.904423
-1.12722
-1.26944
-1.2964
-1.1914
-0.954511
-0.600027
-0.153111
0.352933
0.878988
1.38048
1.80657
2.10398
2.22697
2.15059
5.46416
4.82189
4.12317
3.47682
2.97438
2.66382
2.53991
2.55376
2.62604
2.66851
2.60402
2.37614
1.95891
1.36191
0.638457
-0.119829
-0.800222
-1.31046
-1.5957
-1.64355
-1.47558
-1.1423
-0.714645
-0.277132
0.0862931
0.306257
0.334482
0.151602
-0.228547
-0.751375
-1.32676
-1.84524
-2.21724
-2.38902
-2.34722
-2.1109
-1.72665
-1.26056
-0.791701
-0.398672
-0.146313
-0.0795255
-0.21586
-0.541501
-1.00416
-1.51811
-1.97951
-2.30351
-2.43925
-2.37417
-2.12632
-1.73982
-1.27721
-0.813303
-0.422485
-0.166118
-0.0866921
-0.200802
-0.495306
-0.920557
-1.39511
-1.82031
-2.11543
-2.23202
-2.15798
-1.91035
-1.53097
-1.07933
-0.626688
-0.244044
0.00985116
0.0941087
-0.00748667
-0.282595
-0.68354
-1.13142
-1.5297
-1.79761
-1.88334
-1.76736
-1.45458
-0.969502
-0.349151
0.360373
1.10911
1.84152
2.48484
2.95121
3.15617
3.04718
6.51725
5.56794
4.48932
3.51422
2.81394
2.47049
2.46018
2.69203
3.01975
3.28845
3.37547
3.18685
2.67701
1.84387
0.768121
-0.395863
-1.42493
-2.16416
-2.53151
-2.52523
-2.18411
-1.59035
-0.850666
-0.101487
0.521763
0.915199
1.00084
0.744368
0.150992
-0.697267
-1.64996
-2.49275
-3.07655
-3.32173
-3.22498
-2.82154
-2.18792
-1.42404
-0.658103
-0.0174374
0.400505
0.522811
0.317952
-0.208207
-0.977188
-1.84608
-2.61184
-3.13345
-3.33579
-3.21588
-2.8072
-2.1822
-1.4354
-0.688139
-0.0609248
0.353996
0.487561
0.309868
-0.173568
-0.88834
-1.69878
-2.41201
-2.89393
-3.07291
-2.94588
-2.54437
-1.9371
-1.21395
-0.490464
0.118315
0.523899
0.659543
0.495517
0.0358617
-0.649219
-1.42984
-2.1199
-2.5881
-2.76074
-2.6267
-2.20278
-1.53377
-0.673597
0.311341
1.36276
2.43087
3.4179
4.17486
4.53745
4.38613
7.93154
6.5
4.7057
3.15535
2.13987
1.79763
2.03176
2.69224
3.49844
4.17
4.54383
4.4601
3.86066
2.67519
1.02484
-0.866183
-2.467
-3.5534
-4.00532
-3.88908
-3.25644
-2.24853
-1.00036
0.255496
1.28816
1.96736
2.15985
1.82227
0.897562
-0.492771
-2.13144
-3.5132
-4.42345
-4.74684
-4.54439
-3.86363
-2.83679
-1.5905
-0.344111
0.684516
1.37304
1.59626
1.31443
0.474749
-0.806342
-2.32257
-3.59575
-4.42317
-4.69634
-4.47343
-3.79959
-2.79995
-1.59427
-0.390107
0.606336
1.27926
1.51003
1.26081
0.481293
-0.71836
-2.14243
-3.33679
-4.10866
-4.35447
-4.12901
-3.47467
-2.51011
-1.34906
-0.189054
0.773275
1.42666
1.6565
1.42423
0.678932
-0.477321
-1.85866
-3.02959
-3.8042
-4.07977
-3.90346
-3.30391
-2.37329
-1.17771
0.166587
1.59235
3.13697
4.68227
5.96642
6.65876
6.46907
10.0988
7.95623
4.56936
2.02311
0.495792
0.295153
0.989639
2.48269
4.17102
5.48029
6.37105
6.47598
5.88817
4.17594
1.6281
-1.75439
-4.24986
-5.85627
-6.29731
-5.99653
-4.86916
-3.25268
-1.16115
0.933876
2.56356
3.72038
4.08215
3.74563
2.31463
0.0693303
-2.98287
-5.21265
-6.61542
-6.92913
-6.55258
-5.4041
-3.80165
-1.75708
0.283448
1.87622
3.0156
3.39699
3.11423
1.79332
-0.296905
-3.14904
-5.22154
-6.51099
-6.77126
-6.38033
-5.26114
-3.71442
-1.75095
0.207039
1.73946
2.84124
3.22366
2.97538
1.74115
-0.225218
-2.91686
-4.86997
-6.0809
-6.31468
-5.92971
-4.8517
-3.36607
-1.48267
0.397016
1.87311
2.93934
3.3189
3.0917
1.91378
0.0187019
-2.59046
-4.50999
-5.7389
-6.04952
-5.78969
-4.88175
-3.59438
-1.89597
-0.0954787
1.65079
3.84211
6.32268
8.6102
10.0502
9.91186
13.9373
11.2229
3.22972
-0.58577
-3.06396
-2.49769
-1.20271
1.99187
5.38946
7.39323
9.32985
9.48939
9.53487
6.87994
3.43327
-3.91992
-7.31295
-9.83729
-9.65753
-9.29427
-7.18619
-4.9409
-1.32696
2.28234
4.51989
6.61826
7.01001
7.24505
4.9043
1.79336
-5.01858
-8.10299
-10.3757
-10.1054
-9.67236
-7.59828
-5.40316
-1.91787
1.55578
3.7208
5.74968
6.15407
6.40896
4.21972
1.30968
-5.09821
-7.97493
-10.0808
-9.78393
-9.33591
-7.33833
-5.229
-1.89972
1.41699
3.49271
5.4391
5.8455
6.10969
4.05531
1.31232
-4.75479
-7.47189
-9.46024
-9.16588
-8.72838
-6.81572
-4.79479
-1.61095
1.56426
3.56316
5.44082
5.85505
6.1282
4.18134
1.54301
-4.31534
-6.98487
-8.99593
-8.84071
-8.60921
-7.00598
-5.40736
-2.76122
-0.279466
1.06837
4.13072
8.2411
12.4744
15.7144
16.1845
21.2864
22.2055
-4.02248
-5.10293
-11.009
-6.34068
-6.13071
1.20859
8.61499
9.40283
14.8477
12.667
17.0701
10.724
10.8638
-11.7881
-11.627
-17.7122
-13.282
-15.1045
-9.70081
-8.59998
-1.48608
5.60612
6.67665
11.9737
10.1635
14.4536
8.60302
8.84684
-12.4219
-12.1622
-17.7977
-13.5162
-15.1552
-9.96675
-8.86253
-2.06191
4.71257
5.76139
10.823
9.12644
13.2232
7.68409
7.95316
-12.1322
-11.8383
-17.1107
-13.0142
-14.5229
-9.57646
-8.5003
-2.03041
4.41397
5.4322
10.2545
8.67212
12.5828
7.36105
7.63658
-11.4167
-11.1232
-16.1267
-12.2232
-13.6513
-8.93565
-7.89809
-1.7268
4.4254
5.42778
10.0497
8.59433
12.3615
7.44462
7.70413
-10.6321
-10.4079
-15.3724
-11.7418
-13.404
-9.12356
-8.72878
-3.38975
1.16939
-1.98296
2.91015
9.98253
17.769
25.3671
29.6182
31.9001
72.2937
-47.4747
-2.65946
-34.1766
-3.76262
-21.3247
0.32875
21.3713
4.7064
31.3461
6.36417
40.0842
5.22853
51.1143
-52.5069
-6.94631
-40.7293
-7.90246
-31.3207
-6.01927
-20.9179
-1.61398
17.6011
2.74725
27.5634
4.53271
36.2647
3.52581
46.8785
-50.8263
-7.73254
-39.5001
-8.40128
-30.4697
-6.45391
-20.5247
-2.16829
16.1143
2.02354
25.6282
3.75635
33.9132
2.78464
43.9071
-48.5125
-7.68618
-37.6319
-8.17296
-29.0052
-6.24144
-19.5386
-2.12436
15.2246
1.89377
24.2928
3.58873
32.2064
2.75075
41.7943
-45.938
-7.14695
-35.6191
-7.60318
-27.421
-5.7592
-18.394
-1.81516
14.7023
2.08029
23.4097
3.81312
31.1
3.25381
40.6431
-43.6759
-6.3594
-34.1258
-7.02111
-26.7563
-5.64581
-19.1699
-2.89525
13.7228
-16.6197
-1.4486
10.6956
23.335
39.8395
66.3943
28831.3
28794.5
28757.7
28720.7
28683.8
28646.8
28609.9
28573.1
28536.4
28499.8
28463.3
28426.9
28390.6
28354.3
28318.1
0.176613
0.13764
0.0874682
0.0318509
-0.0233579
-0.0730002
-0.113127
-0.141203
-0.156071
-0.15776
-0.147218
-0.126056
-0.0963226
-0.0603292
-0.0205343
0.311966
0.241812
0.151831
0.0526587
-0.0450686
-0.132187
-0.20188
-0.249966
-0.274727
-0.276496
-0.257144
-0.219607
-0.167486
-0.10477
-0.0356385
0.475944
0.365808
0.225384
0.0720205
-0.0773896
-0.208799
-0.312243
-0.382055
-0.416376
-0.416352
-0.385257
-0.32774
-0.249247
-0.155624
-0.0528885
0.684827
0.520094
0.311876
0.0874294
-0.127711
-0.313375
-0.456239
-0.549633
-0.592372
-0.587278
-0.53979
-0.45685
-0.346138
-0.215592
-0.0731796
0.960753
0.717866
0.414598
0.093533
-0.207511
-0.460749
-0.649705
-0.767865
-0.816199
-0.8006
-0.729774
-0.613734
-0.462861
-0.287426
-0.0974176
1.33519
0.976021
0.535116
0.0796162
-0.335115
-0.672404
-0.913967
-1.05592
-1.10396
-1.06915
-0.964974
-0.805448
-0.604146
-0.373833
-0.126482
1.8545
1.31592
0.67023
0.0249315
-0.540161
-0.979785
-1.27783
-1.4379
-1.47456
-1.40706
-1.25552
-1.03894
-0.774442
-0.477278
-0.161161
2.58939
1.76292
0.804957
-0.109958
-0.870675
-1.42874
-1.77968
-1.94329
-1.94931
-1.82902
-1.61112
-1.32034
-0.977406
-0.599674
-0.202047
3.65134
2.34142
0.896639
-0.399046
-1.40384
-2.08482
-2.46886
-2.60627
-2.55039
-2.34858
-2.03959
-1.6539
-1.21517
-0.741964
-0.249401
5.22165
3.05476
0.839232
-0.979024
-2.26083
-3.03782
-3.40466
-3.46254
-3.29739
-2.97531
-2.54476
-2.0405
-1.4874
-0.903614
-0.302991
7.59801
3.81674
0.384555
-2.09545
-3.62261
-4.40098
-4.64944
-4.54184
-4.20131
-3.71052
-3.12366
-2.47593
-1.79032
-1.0821
-0.361942
11.2314
4.22964
-1.0223
-4.16473
-5.73319
-6.29406
-6.25026
-5.85407
-5.25549
-4.5418
-3.76341
-2.94925
-2.11585
-1.27253
-0.424617
16.4633
2.89268
-4.53866
-7.80797
-8.85137
-8.79179
-8.20346
-7.3687
-6.42476
-5.43779
-4.43893
-3.44183
-2.45128
-1.46755
-0.488616
20.9151
-4.58359
-12.217
-13.6771
-13.0725
-11.8183
-10.4031
-8.99252
-7.63706
-6.34566
-5.11268
-3.92784
-2.77989
-1.65778
-0.550912
0.564296
1.70075
2.86128
4.06367
5.32859
6.68136
8.15448
9.79146
11.6524
13.8218
16.4157
19.5711
23.3185
26.8285
24.2137
0.5749
1.73292
2.91614
4.14338
5.43678
6.82409
8.34209
10.0424
12.0019
14.3425
17.2737
21.1959
26.9976
37.1012
59.8698
0.579798
1.74757
2.94045
4.17715
5.47977
6.87606
8.40308
10.1134
12.0868
14.453
17.4427
21.5113
27.6802
38.6032
62.3593
0.579017
1.7448
2.93433
4.16514
5.4577
6.83724
8.33675
10.0018
11.8989
14.1306
16.862
20.3641
25.0377
31.1088
35.925
0.572853
1.72554
2.89953
4.11026
5.37522
6.71511
8.15547
9.72903
11.4787
13.4612
15.7471
18.4042
21.4152
24.3995
26.0721
0.561842
1.69149
2.83921
4.01773
5.24072
6.5232
7.8817
9.33391
10.8969
12.5813
14.375
16.2015
17.8184
18.5891
16.9473
0.546691
1.64488
2.75752
3.89431
5.06491
6.27851
7.54285
8.86187
10.2307
11.6252
12.9799
14.145
14.8132
14.4552
12.655
0.528202
1.58824
2.65905
3.74742
4.85923
5.99858
7.16602
8.35522
9.54678
10.6968
11.7163
12.4333
12.5214
11.3234
7.12348
0.507192
1.5241
2.5484
3.58424
4.63442
5.69916
6.77409
7.84693
8.89164
9.85915
10.6628
11.1581
11.123
10.2761
8.56906
0.484427
1.45485
2.42972
3.41112
4.39952
5.39264
6.38363
7.35817
8.29012
9.13526
9.82332
10.2513
10.2885
9.82612
8.93612
0.460574
1.3825
2.30652
3.23313
4.16133
5.08761
6.00459
6.89898
7.7489
8.52047
9.1645
9.61568
9.80097
9.6731
9.30183
0.436178
1.3087
2.18152
3.05405
3.92448
4.78905
5.64124
6.47068
7.26209
7.99425
8.6396
9.16474
9.5309
9.68912
9.55148
0.411664
1.23471
2.05672
2.87643
3.69168
4.49909
5.29368
6.0688
6.81643
7.52831
8.19819
8.82421
9.40523
9.91057
10.1941
0.38735
1.16143
1.93351
2.7019
3.46435
4.21803
4.95964
5.68601
6.3956
7.09153
7.78723
8.51494
9.33209
10.2861
11.1003
0.36347
1.08953
1.81287
2.53148
3.2431
3.94536
4.63619
5.31488
5.98424
6.65492
7.35405
8.14355
9.16393
10.7587
13.8972
0.340202
1.01952
1.69553
2.36593
3.02836
3.68062
4.32116
4.95023
5.57198
6.19856
6.8581
7.61182
8.59686
10.1593
13.3659
0.31769
0.951798
1.58207
2.20591
2.82069
3.42402
4.0141
4.59066
5.15635
5.71929
6.29676
6.91945
7.62882
8.41814
8.81589
0.296059
0.886743
1.4731
2.05217
2.62098
3.1766
3.71645
4.23863
4.74263
5.22994
5.704
6.16689
6.60524
6.94888
7.01813
0.275426
0.824694
1.36917
1.90556
2.43042
2.94016
3.43105
3.89922
4.34051
4.7498
5.11899
5.43137
5.64743
5.67017
5.24766
0.255894
0.765972
1.27086
1.76695
2.25035
2.71679
3.16143
3.57848
3.96059
4.29749
4.57344
4.76274
4.82386
4.70065
4.38544
0.237551
0.710849
1.17867
1.63716
2.08206
2.50857
2.91096
3.28201
3.61208
3.88751
4.08804
4.18313
4.12829
3.86446
3.30847
0.220459
0.659527
1.09297
1.51679
1.92654
2.31711
2.68225
3.01398
3.3015
3.52955
3.67587
3.70762
3.57785
3.23115
2.68734
0.204652
0.61211
1.01395
1.40618
1.78434
2.14329
2.47675
2.77665
3.03221
3.22834
3.34325
3.34427
3.17804
2.73473
1.6678
0.190128
0.568592
0.941614
1.30533
1.65549
1.98719
2.29454
2.57012
2.8042
2.98352
3.08972
3.09708
2.97064
2.67138
2.22372
0.176847
0.528852
0.875736
1.2139
1.53945
1.84798
2.13439
2.39242
2.6142
2.78949
2.90481
2.94278
2.88325
2.71109
2.43707
0.164739
0.492668
0.815911
1.13123
1.43521
1.72415
1.99393
2.23988
2.45647
2.6371
2.77362
2.8562
2.87407
2.82152
2.72477
0.153708
0.459736
0.761587
1.05644
1.34142
1.61361
1.87004
2.10771
2.32373
2.51532
2.6799
2.81454
2.9138
2.96264
2.91359
0.143641
0.429704
0.712121
0.988497
1.25652
1.51402
1.75916
1.99059
2.20793
2.4123
2.60696
2.79743
2.98854
3.17174
3.29892
0.13442
0.402205
0.666848
0.926356
1.17891
1.42303
1.65778
1.88325
2.10115
2.31602
2.53692
2.77989
3.06875
3.41974
3.71939
0.125932
0.376886
0.625142
0.869041
1.10716
1.33852
1.56286
1.78115
1.99648
2.21553
2.45156
2.73046
3.10582
3.70338
4.87874
0.118077
0.353439
0.586461
0.815735
1.04011
1.25889
1.47213
1.68112
1.8892
2.10326
2.33643
2.61405
2.98858
3.58577
4.77886
0.110773
0.331615
0.550382
0.765828
0.976943
1.18311
1.38436
1.58171
1.77778
1.9777
2.19042
2.43034
2.71671
3.05433
3.29337
0.103958
0.311232
0.516608
0.718928
0.917208
1.11075
1.29928
1.48318
1.66369
1.84326
2.02552
2.21435
2.40924
2.59135
2.70476
0.0975892
0.292166
0.484957
0.674832
0.860763
1.04186
1.21743
1.38699
1.55026
1.70694
1.85606
1.99416
2.11064
2.17607
2.10827
0.0916379
0.27434
0.455328
0.633476
0.807672
0.976812
1.13975
1.29517
1.4414
1.57586
1.69424
1.78898
1.84749
1.85332
1.81015
0.0860846
0.257705
0.427673
0.594862
0.758093
0.916072
1.06728
1.20974
1.3407
1.45595
1.54884
1.60897
1.62092
1.5646
1.41343
0.0809124
0.242217
0.401946
0.558996
0.712159
0.860036
1.00087
1.13231
1.25092
1.35155
1.42619
1.46242
1.44175
1.34174
1.17247
0.0761015
0.227823
0.37808
0.525829
0.669898
0.808887
0.940999
1.06377
1.17363
1.26521
1.33021
1.35537
1.31768
1.16698
0.740027
0.0716251
0.214445
0.355956
0.495217
0.631164
0.762513
0.887612
1.0042
1.10904
1.19733
1.26189
1.29198
1.2721
1.18405
1.0389
0.0674473
0.201977
0.335395
0.466907
0.595622
0.720479
0.840135
0.952793
1.05593
1.14592
1.21751
1.26328
1.27386
1.24079
1.16396
0.0635232
0.190279
0.316157
0.440541
0.562761
0.682057
0.797519
0.907996
1.01196
1.10731
1.19105
1.25902
1.30594
1.3279
1.33634
0.0598005
0.179193
0.297958
0.415677
0.53193
0.646299
0.758365
0.867721
0.973976
1.07675
1.17555
1.26939
1.35534
1.42442
1.44855
0.0562231
0.168541
0.280484
0.391831
0.50241
0.61214
0.721094
0.829601
0.938414
1.04894
1.1635
1.28524
1.41647
1.55216
1.66735
0.0527344
0.158151
0.263426
0.368519
0.473479
0.578522
0.684135
0.791272
0.901662
1.01834
1.14647
1.2945
1.4745
1.69413
1.89347
0.049282
0.147859
0.246496
0.345299
0.444493
0.544508
0.64612
0.750685
0.860547
0.979781
1.11563
1.28157
1.50502
1.85019
2.49941
0.0458204
0.137527
0.229451
0.321808
0.414937
0.509387
0.606057
0.706421
0.812926
0.929692
1.06388
1.2287
1.45103
1.7951
2.45186
0.0423132
0.127044
0.212106
0.297783
0.384466
0.472727
0.56343
0.657897
0.758183
0.867504
0.990877
1.13591
1.31248
1.52288
1.69
0.0387338
0.116332
0.194335
0.273059
0.352899
0.434374
0.518191
0.605333
0.69717
0.79556
0.902833
1.02122
1.15046
1.28073
1.38382
0.0350638
0.105339
0.176063
0.247562
0.3202
0.394396
0.470645
0.549512
0.631609
0.717452
0.807074
0.899002
0.98773
1.05745
1.06363
0.0312917
0.0940341
0.157255
0.221276
0.286419
0.352996
0.421282
0.491452
0.563451
0.636724
0.709717
0.77901
0.838207
0.878293
0.900241
0.0274092
0.0823978
0.137892
0.194212
0.251645
0.310412
0.370613
0.432125
0.49441
0.556195
0.614935
0.666033
0.701962
0.71174
0.677672
0.0234088
0.0704108
0.117957
0.166377
0.215945
0.266833
0.319038
0.372265
0.425721
0.477784
0.525464
0.563596
0.583882
0.575642
0.543097
0.0192807
0.0580468
0.0974151
0.137746
0.179331
0.222341
0.266756
0.312249
0.358003
0.40242
0.44263
0.473557
0.485617
0.456428
0.310667
0.0150107
0.0452651
0.0762059
0.108247
0.141729
0.176876
0.213728
0.252054
0.291216
0.329982
0.366245
0.396626
0.416003
0.418171
0.408499
0.0105792
0.0320075
0.0542337
0.0777482
0.102974
0.130229
0.159681
0.191282
0.224709
0.259287
0.293951
0.32734
0.358343
0.388142
0.426256
0.00596035
0.0181964
0.0313679
0.0460626
0.0628113
0.0820606
0.104142
0.129246
0.157408
0.188536
0.222546
0.259717
0.301526
0.352343
0.421783
0.0011228
0.00373643
0.00744559
0.0129522
0.0209143
0.0319273
0.0465082
0.065091
0.0880502
0.115788
0.148951
0.188879
0.23846
0.303618
0.396269
-0.00397007
-0.0114837
-0.0177238
-0.0218616
-0.0230992
-0.0206811
-0.0139017
-0.00209976
0.0153782
0.0392787
0.0706644
0.111344
0.164583
0.235807
0.330395
-0.00935888
-0.0275874
-0.0443519
-0.0586879
-0.0696492
-0.0763153
-0.0777961
-0.0732284
-0.0617496
-0.0424241
-0.0140712
0.0250946
0.0782222
0.15178
0.263634
-0.0150872
-0.0447072
-0.0726652
-0.097856
-0.11918
-0.135548
-0.145888
-0.149152
-0.144322
-0.130391
-0.10631
-0.0708437
-0.022318
0.0411685
0.115253
-0.0212001
-0.0629804
-0.102899
-0.139708
-0.17215
-0.198963
-0.218889
-0.230694
-0.23321
-0.2254
-0.206449
-0.175844
-0.133239
-0.0767933
0.0087181
-0.0277432
-0.0825458
-0.135291
-0.18459
-0.229027
-0.267159
-0.297527
-0.318683
-0.329264
-0.328141
-0.314674
-0.28917
-0.253763
-0.214928
-0.196003
-0.034761
-0.103539
-0.170076
-0.232846
-0.290279
-0.340745
-0.38256
-0.41401
-0.433442
-0.439449
-0.431252
-0.409367
-0.37666
-0.339226
-0.301683
-0.042295
-0.126088
-0.207475
-0.284808
-0.356367
-0.420336
-0.474786
-0.51768
-0.546938
-0.560617
-0.557328
-0.537073
-0.502832
-0.463592
-0.442167
-0.0503824
-0.150306
-0.24769
-0.340778
-0.427723
-0.506534
-0.575034
-0.630816
-0.671248
-0.693564
-0.695182
-0.674484
-0.632469
-0.575578
-0.516488
-0.0590536
-0.176288
-0.290885
-0.401013
-0.504726
-0.599891
-0.68411
-0.754609
-0.808135
-0.84088
-0.848529
-0.826693
-0.772431
-0.689086
-0.60171
-0.0683305
-0.204102
-0.337182
-0.465702
-0.587662
-0.700848
-0.80271
-0.890184
-0.95945
-1.00562
-1.02234
-1.00142
-0.932584
-0.805389
-0.627579
-0.0782251
-0.233783
-0.386645
-0.534944
-0.676689
-0.809667
-0.9313
-1.0384
-1.1268
-1.1908
-1.2223
-1.2094
-1.13326
-0.956837
-0.567221
-0.088739
-0.265336
-0.439276
-0.608737
-0.771801
-0.926363
-1.06998
-1.1996
-1.31109
-1.39855
-1.4531
-1.4613
-1.40358
-1.25633
-1.0241
-0.0998646
-0.298733
-0.495016
-0.686971
-0.872815
-1.05066
-1.21838
-1.37337
-1.51208
-1.62916
-1.71607
-1.75897
-1.73606
-1.61484
-1.33947
-0.111588
-0.333925
-0.553759
-0.769448
-0.979384
-1.18198
-1.37561
-1.55845
-1.72808
-1.8807
-2.0096
-2.10233
-2.1368
-2.08039
-1.9214
-0.123892
-0.370856
-0.61538
-0.855919
-1.09105
-1.31953
-1.54034
-1.7527
-1.95588
-2.14873
-2.32825
-2.48615
-2.60066
-2.61715
-2.3941
-0.136767
-0.40948
-0.679769
-0.946144
-1.20733
-1.4624
-1.71094
-1.95332
-2.19086
-2.426
-2.6619
-2.9001
-3.13259
-3.32027
-3.36958
-0.15021
-0.449787
-0.746874
-1.03997
-1.32786
-1.60979
-1.88583
-2.1573
-2.42749
-2.70275
-2.99395
-3.31802
-3.69562
-4.11948
-4.33623
-0.16424
-0.491822
-0.81675
-1.13742
-1.45251
-1.76127
-2.06389
-2.36215
-2.6606
-2.96843
-3.30317
-3.69876
-4.22651
-5.06252
-6.75288
-0.178894
-0.535698
-0.889585
-1.23873
-1.58157
-1.91703
-2.24496
-2.56688
-2.8872
-3.21541
-3.57013
-3.98772
-4.54333
-5.41225
-7.07817
-0.19423
-0.581601
-0.96571
-1.34443
-1.71575
-2.078
-2.4302
-2.77271
-3.10832
-3.44398
-3.79343
-4.18082
-4.64257
-5.2085
-5.74692
-0.210323
-0.629768
-1.04558
-1.45526
-1.85623
-2.24596
-2.62217
-2.98334
-3.32941
-3.66296
-3.99037
-4.32228
-4.66945
-5.02386
-5.31109
-0.227251
-0.680458
-1.12971
-1.57213
-2.00451
-2.42329
-2.82459
-3.20444
-3.5592
-3.88619
-4.18419
-4.45315
-4.69129
-4.88586
-4.99091
-0.245076
-0.733895
-1.21858
-1.69597
-2.16224
-2.61277
-3.0419
-3.44296
-3.80828
-4.12955
-4.39816
-4.60544
-4.74338
-4.81002
-4.83792
-0.263828
-0.790199
-1.31253
-1.82752
-2.33091
-2.8171
-3.27872
-3.70629
-4.08794
-4.4095
-4.65471
-4.80587
-4.84497
-4.76108
-4.58601
-0.283473
-0.849308
-1.41158
-1.96712
-2.51152
-3.03848
-3.53919
-4.00149
-4.40934
-4.74244
-4.97659
-5.08411
-5.03198
-4.77545
-4.31894
-0.303888
-0.91089
-1.5153
-2.11446
-2.70423
-3.27811
-3.82632
-4.33452
-4.78264
-5.14411
-5.3864
-5.47321
-5.36093
-4.9287
-3.47033
-0.324841
-0.974273
-1.62267
-2.26834
-2.90796
-3.53557
-4.14123
-4.70926
-5.21611
-5.62855
-5.90416
-6.00058
-5.91206
-5.79455
-6.42886
-0.345969
-1.03838
-1.73192
-2.42641
-3.12003
-3.80827
-4.48227
-5.12648
-5.71515
-6.20801
-6.54636
-6.65639
-6.48332
-6.13831
-6.46039
-0.366772
-1.10169
-1.84052
-2.58508
-3.33585
-4.09085
-4.84401
-5.58226
-6.28073
-6.89477
-7.3471
-7.50879
-7.17397
-6.0188
-3.39187
-0.38662
-1.16229
-1.94512
-2.73945
-3.54872
-4.37471
-5.2161
-6.06566
-6.90494
-7.69383
-8.34968
-8.70599
-8.4343
-6.92135
-3.21003
-0.40478
-1.21791
-2.04175
-2.88344
-3.74997
-4.64789
-5.58253
-6.55619
-7.56414
-8.58527
-9.56028
-10.3393
-10.5566
-9.35053
-4.90927
-0.420461
-1.26609
-2.12599
-3.01018
-3.92942
-4.89556
-5.92184
-7.02292
-8.21419
-9.50875
-10.907
-12.3626
-13.6675
-14.0264
-10.3427
-0.432872
-1.30436
-2.19337
-3.11258
-4.07629
-5.10148
-6.20922
-7.427
-8.79251
-10.3602
-12.2138
-14.4908
-17.4352
-21.5095
-27.583
-11.3069
-25.8055
-24.3868
-20.8266
-17.5203
-14.7489
-12.4281
-10.4423
-8.69918
-7.13173
-5.69171
-4.34357
-3.06016
-1.81974
-0.60391
-111.194
-57.9772
-37.417
-27.2618
-21.2079
-17.0921
-14.0247
-11.581
-9.53403
-7.75112
-6.14925
-4.6729
-3.28262
-1.94847
-0.646063
-123.626
-67.4707
-43.2215
-30.849
-23.5495
-18.7072
-15.1881
-12.4443
-10.1855
-8.24479
-6.5196
-4.94246
-3.4661
-2.05515
-0.681076
-67.9125
-54.8068
-40.7783
-30.9133
-24.1847
-19.4035
-15.8131
-12.9709
-10.616
-8.58881
-6.78716
-5.14202
-3.60416
-2.13622
-0.70781
-47.9389
-42.7837
-35.4439
-28.7994
-23.4674
-19.2728
-15.9184
-13.159
-10.8189
-8.77623
-6.94602
-5.26707
-3.69366
-2.18985
-0.725661
-30.4431
-32.2775
-29.6268
-25.7741
-21.9604
-18.5586
-15.6107
-13.056
-10.8152
-8.81614
-6.99982
-5.31883
-3.73484
-2.21596
-0.734575
-22.4573
-24.8861
-24.6443
-22.7216
-20.1675
-17.5291
-15.0298
-12.7351
-10.6435
-8.72915
-6.95966
-5.30324
-3.73079
-2.21604
-0.734989
-12.4774
-19.3494
-20.829
-20.1077
-18.433
-16.4031
-14.3069
-12.2731
-10.3488
-8.54157
-6.84097
-5.22933
-3.68666
-2.19272
-0.727713
-15.0549
-17.5574
-18.5421
-18.1557
-16.9453
-15.323
-13.5406
-11.735
-9.97282
-8.27993
-6.66049
-5.10753
-3.6087
-2.14932
-0.713782
-15.7134
-16.8192
-17.2075
-16.776
-15.7435
-14.3542
-12.7903
-11.1669
-9.54871
-7.96727
-6.43385
-4.94813
-3.50334
-2.08934
-0.694317
-16.337
-16.5794
-16.4422
-15.8137
-14.7896
-13.5067
-12.0813
-10.5951
-9.0991
-7.62125