/*--------------------------------*- C++ -*----------------------------------*\
| =========                 |                                                 |
| \\      /  F ield         | OpenFOAM: The Open Source CFD Toolbox           |
|  \\    /   O peration     | Version:  5.x                                   |
|   \\  /    A nd           | Web:      www.OpenFOAM.org                      |
|    \\/     M anipulation  |                                                 |
\*---------------------------------------------------------------------------*/
FoamFile
{
    version     2.0;
    format      ascii;
    class       volScalarField;
    location    "16.4";
    object      gradTx;
}
// * * * * * * * * * * * * * * * * * * * * * * * * * * * * * * * * * * * * * //

dimensions      [0 -1 0 1 0 0 0];

internalField   nonuniform List<scalar> 
2048
(
0.00630486
0.018734
0.0306381
0.0417193
0.0517487
0.060577
0.0681338
0.0744169
0.0794759
0.0833938
0.0862703
0.0882098
0.0893141
0.0896802
0.0894005
0.0885641
0.0872578
0.0855653
0.0835642
0.0813232
0.0788979
0.076329
0.0736415
0.0708454
0.0679385
0.0649087
0.0617364
0.0583962
0.054857
0.0510831
0.047034
0.0426663
0.0379346
0.0327944
0.0272038
0.0211253
0.0145265
0.00738141
-0.000329654
-0.00861833
-0.0174861
-0.0269208
-0.0368909
-0.047339
-0.0581736
-0.06926
-0.080411
-0.0913794
-0.101854
-0.111462
-0.11978
-0.126358
-0.130752
-0.132569
-0.131511
-0.127415
-0.120276
-0.110247
-0.0976148
-0.0827645
-0.0661292
-0.04815
-0.0292468
-0.00980735
0.0187882
0.055817
0.0912549
0.124203
0.153976
0.180134
0.202475
0.221009
0.235896
0.247396
0.255813
0.261462
0.264647
0.265653
0.264752
0.262208
0.258277
0.253209
0.247237
0.240565
0.233362
0.225747
0.217794
0.209529
0.200946
0.192005
0.182648
0.172799
0.162366
0.151243
0.139309
0.126434
0.112483
0.0973215
0.0808254
0.0628822
0.0433963
0.0222895
-0.000496775
-0.024999
-0.0512248
-0.0791421
-0.108664
-0.139627
-0.171769
-0.204698
-0.237867
-0.27055
-0.301825
-0.330579
-0.355542
-0.375355
-0.388669
-0.394286
-0.391293
-0.37919
-0.357959
-0.328071
-0.29041
-0.24615
-0.196607
-0.143108
-0.0869047
-0.0291381
0.0311396
0.0924816
0.151104
0.205482
0.254468
0.297347
0.333822
0.363947
0.388037
0.406556
0.420035
0.429002
0.433959
0.435371
0.433678
0.429305
0.422677
0.414205
0.40428
0.393246
0.381382
0.368887
0.355876
0.34239
0.328406
0.313858
0.298645
0.28264
0.265696
0.247635
0.22826
0.207352
0.184685
0.160036
0.133196
0.10398
0.0722294
0.0378161
0.000641327
-0.0393597
-0.0822085
-0.127866
-0.176207
-0.226987
-0.2798
-0.33403
-0.388805
-0.442951
-0.494957
-0.54298
-0.58489
-0.618376
-0.641129
-0.651069
-0.646604
-0.626857
-0.591796
-0.542249
-0.479766
-0.406386
-0.324371
-0.23596
-0.143223
-0.048009
0.043599
0.129424
0.211271
0.286935
0.35479
0.413865
0.463815
0.504809
0.537377
0.562243
0.580194
0.591988
0.598319
0.599816
0.597069
0.590656
0.581161
0.569165
0.555221
0.539823
0.523364
0.506123
0.488249
0.469784
0.450683
0.430842
0.410115
0.388329
0.365278
0.340721
0.31438
0.285948
0.255102
0.221524
0.184921
0.145033
0.101643
0.0545736
0.00368451
-0.0511226
-0.109894
-0.172603
-0.23911
-0.309122
-0.382126
-0.457329
-0.533578
-0.609291
-0.682397
-0.750321
-0.810033
-0.858194
-0.89141
-0.906585
-0.901321
-0.874284
-0.825426
-0.756007
-0.668376
-0.565588
-0.450971
-0.327743
-0.198792
-0.0666105
0.0563822
0.167266
0.272717
0.369765
0.456277
0.531058
0.593787
0.644841
0.685058
0.715495
0.737243
0.751302
0.758549
0.759753
0.755632
0.7469
0.734297
0.71858
0.700482
0.680659
0.659633
0.637756
0.615206
0.592009
0.568081
0.543269
0.51738
0.490195
0.461457
0.430864
0.398057
0.362633
0.324166
0.282236
0.23646
0.186506
0.132098
0.0730139
0.00907272
-0.0598633
-0.133879
-0.21298
-0.297046
-0.385771
-0.478586
-0.574574
-0.672359
-0.770005
-0.864917
-0.953788
-1.03264
-1.09698
-1.14216
-1.16385
-1.15867
-1.12469
-1.06184
-0.971936
-0.858323
-0.72531
-0.577479
-0.419132
-0.253973
-0.0850558
0.069694
0.206596
0.336336
0.455065
0.560112
0.650097
0.724827
0.785016
0.831935
0.867071
0.891871
0.907589
0.915265
0.915775
0.909927
0.89855
0.882537
0.862837
0.840388
0.816033
0.790435
0.764022
0.736985
0.709312
0.680856
0.651401
0.620704
0.588503
0.554504
0.518346
0.479589
0.437725
0.392212
0.342517
0.288162
0.22874
0.163926
0.0934569
0.0171142
-0.0652837
-0.153874
-0.24872
-0.349754
-0.456701
-0.568994
-0.685651
-0.805151
-0.925272
-1.04295
-1.15415
-1.2539
-1.3364
-1.39552
-1.42542
-1.42142
-1.38084
-1.30357
-1.19213
-1.05118
-0.886618
-0.704537
-0.510463
-0.308916
-0.103385
0.0837385
0.247993
0.402997
0.543873
0.66737
0.771998
0.857828
0.92608
0.97862
1.01749
1.04454
1.06129
1.06892
1.06834
1.0604
1.04602
1.02624
1.00224
0.975182
0.946143
0.915946
0.885097
0.853774
0.821898
0.789228
0.755463
0.720304
0.683464
0.644623
0.603375
0.559197
0.511463
0.459493
0.402627
0.340281
0.27198
0.197354
0.116112
0.0280065
-0.0671915
-0.169687
-0.279625
-0.397028
-0.521703
-0.653139
-0.790368
-0.931806
-1.07504
-1.21662
-1.35182
-1.4746
-1.57772
-1.65325
-1.69347
-1.69202
-1.6452
-1.5528
-1.4183
-1.2481
-1.05013
-0.83238
-0.601752
-0.363562
-0.121567
0.0987272
0.292054
0.473575
0.637201
0.779065
0.89766
0.993513
1.06857
1.1255
1.16703
1.19551
1.21269
1.21982
1.21778
1.20741
1.18965
1.16571
1.13702
1.10504
1.07112
1.03628
1.0011
0.965724
0.929945
0.893389
0.855647
0.816362
0.77524
0.731965
0.686103
0.637044
0.584023
0.5262
0.462759
0.393002
0.316387
0.232519
0.141096
0.0418525
-0.0654866
-0.181208
-0.305568
-0.438717
-0.580593
-0.730801
-0.888469
-1.05205
-1.21907
-1.38577
-1.54685
-1.69515
-1.82182
-1.9168
-1.96995
-1.97274
-1.92004
-1.81149
-1.65185
-1.44984
-1.21607
-0.960859
-0.692707
-0.417659
-0.139505
0.114886
0.339409
0.54898
0.736071
0.896166
1.02788
1.13246
1.21285
1.27278
1.31582
1.34487
1.36192
1.36817
1.36438
1.35125
1.32973
1.30119
1.26736
1.23008
1.19105
1.15151
1.11213
1.07295
1.03361
0.99352
0.952131
0.909032
0.863954
0.816631
0.766627
0.713239
0.655535
0.592473
0.523054
0.446449
0.362059
0.269487
0.168447
0.0586733
-0.0601494
-0.188404
-0.326489
-0.474724
-0.633222
-0.801768
-0.979664
-1.16552
-1.35693
-1.55002
-1.73899
-1.91563
-2.06927
-2.18731
-2.25661
-2.26573
-2.20756
-2.08147
-1.89393
-1.6568
-1.38423
-1.08944
-0.782733
-0.470763
-0.157036
0.132461
0.390741
0.630179
0.841537
1.01962
1.16339
1.27511
1.3591
1.42043
1.46375
1.49256
1.50899
1.5141
1.50835
1.49219
1.46652
1.43288
1.39339
1.35036
1.30593
1.26164
1.21821
1.17556
1.13304
1.0898
1.04509
0.99845
0.949697
0.898679
0.844997
0.787846
0.726085
0.658418
0.583617
0.500707
0.409043
0.308262
0.198133
0.0784181
-0.0512312
-0.191309
-0.342391
-0.505005
-0.679487
-0.865849
-1.06365
-1.27178
-1.48808
-1.70876
-1.92771
-2.13577
-2.3203
-2.4657
-2.55506
-2.57311
-2.50996
-2.3645
-2.14547
-1.86904
-1.55401
-1.21723
-0.870949
-0.522255
-0.17394
0.151725
0.446795
0.718212
0.954694
1.15037
1.30482
1.42177
1.50734
1.5683
1.61058
1.63836
1.65382
1.65766
1.64987
1.63049
1.60027
1.56098
1.51521
1.4659
1.41573
1.36663
1.31937
1.27364
1.22839
1.18241
1.13469
1.08474
1.03253
0.978125
0.921221
0.860896
0.795733
0.724116
0.644531
0.555828
0.457344
0.348798
0.230065
0.100973
-0.0388464
-0.190017
-0.353332
-0.529574
-0.719334
-0.922896
-1.14015
-1.37038
-1.61187
-1.86119
-2.11222
-2.35498
-2.57483
-2.75265
-2.86684
-2.89709
-2.82959
-2.66235
-2.40723
-2.08628
-1.72442
-1.34294
-0.956199
-0.571355
-0.189944
0.172979
0.508398
0.81421
1.0767
1.28935
1.45275
1.57263
1.65742
1.71601
1.75589
1.78195
1.79624
1.79887
1.78912
1.76641
1.73125
1.68567
1.63291
1.57667
1.52037
1.4664
1.41559
1.36726
1.31982
1.27156
1.22113
1.16802
1.11247
1.05494
0.995269
0.932386
0.864517
0.789635
0.705863
0.611845
0.506935
0.391006
0.264103
0.12617
-0.0231648
-0.184675
-0.359422
-0.548496
-0.75277
-0.972818
-1.20891
-1.46086
-1.7276
-2.00637
-2.29145
-2.57236
-2.83243
-3.04856
-3.19338
-3.23995
-3.16896
-2.9769
-2.67982
-2.30784
-1.894
-1.46494
-1.03708
-0.617147
-0.204732
0.196564
0.576462
0.919406
1.20879
1.43748
1.60766
1.72775
1.80904
1.86304
1.89913
1.9229
1.93604
1.93774
1.92629
1.90024
1.85971
1.80712
1.74654
1.68262
1.61971
1.56083
1.50683
1.4565
1.40751
1.35747
1.30463
1.24841
1.18954
1.12906
1.06707
1.00229
0.93246
0.855037
0.76768
0.668779
0.557764
0.434761
0.300064
0.15379
-0.00440376
-0.175473
-0.360816
-0.561889
-0.779866
-1.0156
-1.26975
-1.5428
-1.83455
-2.14326
-2.46412
-2.78668
-3.09236
-3.35358
-3.53602
-3.60418
-3.53094
-3.31017
-2.96364
-2.53267
-2.06088
-1.58123
-1.11197
-0.658612
-0.21796
0.222859
0.652
1.03515
1.35226
1.59569
1.76995
1.88706
1.96175
2.0087
2.03959
2.06068
2.07296
2.07426
2.06158
2.03231
1.98598
1.92552
1.85614
1.78364
1.71357
1.64976
1.59305
1.54147
1.49166
1.44043
1.38543
1.32603
1.2637
1.20036
1.13652
1.07057
0.999578
0.920386
0.830057
0.726648
0.609758
0.47991
0.337725
0.183573
0.0171776
-0.162636
-0.357701
-0.569916
-0.800756
-1.05129
-1.3226
-1.61588
-1.93202
-2.27073
-2.62876
-2.99641
-3.35349
-3.66754
-3.89599
-3.99247
-3.9188
-3.66443
-3.25893
-2.75921
-2.22268
-1.68949
-1.17909
-0.694671
-0.229272
0.252291
0.736128
1.16291
1.50851
1.76486
1.93993
2.05037
2.11495
2.15216
2.17643
2.19472
2.20674
2.20842
2.19525
2.16303
2.11037
2.04105
1.96175
1.87963
1.80171
1.73295
1.67418
1.62226
1.5725
1.52073
1.46383
1.40103
1.33486
1.26868
1.20348
1.13715
1.06588
0.985755
0.893086
0.785471
0.662829
0.526272
0.376833
0.215219
0.0412848
-0.146417
-0.350288
-0.572776
-0.815637
-1.08006
-1.36744
-1.67984
-2.0194
-2.38762
-2.78371
-3.19969
-3.61433
-3.98991
-4.27434
-4.40777
-4.33644
-4.04228
-3.56566
-2.98536
-2.37654
-1.78712
-1.23655
-0.724235
-0.238316
0.285343
0.830069
1.30428
1.67902
1.94585
2.11777
2.21739
2.26792
2.29239
2.3087
2.32439
2.33711
2.34023
2.32758
2.29285
2.23327
2.15389
2.06342
1.97042
1.88383
1.81015
1.75013
1.69901
1.65027
1.59874
1.5402
1.47354
1.40292
1.33378
1.26779
1.202
1.13138
1.05123
0.956891
0.845273
0.716867
0.573653
0.417109
0.248394
0.0675932
-0.127084
-0.338795
-0.570692
-0.824769
-1.10214
-1.40441
-1.73458
-2.09618
-2.49281
-2.92719
-3.3944
-3.87299
-4.31973
-4.67185
-4.85334
-4.78849
-4.44676
-3.88351
-3.20836
-2.51908
-1.8713
-1.28245
-0.746265
-0.244768
0.322562
0.935149
1.46098
1.86542
2.13946
2.30345
2.38771
2.41984
2.42826
2.43533
2.44903
2.46384
2.4697
2.45889
2.42238
2.35507
2.26419
2.16118
2.05586
1.95956
1.88103
1.82083
1.77189
1.72526
1.67485
1.61499
1.54373
1.46769
1.39534
1.32923
1.26505
1.19607
1.11691
1.02164
0.906088
0.771743
0.621843
0.458254
0.282731
0.0957513
-0.104913
-0.323441
-0.563902
-0.828464
-1.11787
-1.43373
-1.78014
-2.16203
-2.58524
-3.05729
-3.57813
-4.12723
-4.65559
-5.08888
-5.33268
-5.28066
-4.88145
-4.21164
-3.42467
-2.64642
-1.93905
-1.31495
-0.759832
-0.248351
0.364588
1.05279
1.63484
2.06946
2.34635
2.49679
2.5609
2.56981
2.55846
2.5551
2.56799
2.58681
2.59679
2.58954
2.55233
2.47621
2.37206
2.25514
2.13577
2.02847
1.94517
1.88623
1.84112
1.79771
1.7495
1.68877
1.61179
1.5289
1.45298
1.3876
1.32629
1.25994
1.1829
1.08757
0.967958
0.827293
0.67063
0.499959
0.31783
0.125384
-0.0801803
-0.30442
-0.552644
-0.827084
-1.12768
-1.45573
-1.81668
-2.21682
-2.66396
-3.17205
-3.74823
-4.37446
-4.99556
-5.52515
-5.84956
-5.81996
-5.35064
-4.5486
-3.62978
-2.75418
-1.98738
-1.3324
-0.764175
-0.248855
0.412186
1.18448
1.82774
2.29309
2.56707
2.69728
2.73649
2.71688
2.68151
2.6667
2.68068
2.70601
2.72144
2.7199
2.68364
2.59712
2.47753
2.34543
2.21001
2.09002
2.00211
1.94626
1.90702
1.86786
1.82315
1.76225
1.67795
1.58617
1.5062
1.44269
1.38576
1.32294
1.2493
1.15499
1.03093
0.883304
0.719816
0.54191
0.35326
0.156092
-0.0531521
-0.281894
-0.537138
-0.821034
-1.1321
-1.47081
-1.84455
-2.26072
-2.72823
-3.26949
-3.90184
-4.61181
-5.33721
-5.97943
-6.40785
-6.41518
-5.85948
-4.89194
-3.81812
-2.83754
-2.01337
-1.33339
-0.758762
-0.246152
0.466314
1.33175
2.04163
2.53858
2.8019
2.90405
2.91413
2.86013
2.79579
2.76866
2.78657
2.82162
2.84345
2.8503
2.81752
2.71821
2.58045
2.43231
2.27845
2.14358
2.05126
2.00091
1.97002
1.93586
1.89625
1.8364
1.74246
1.63898
1.55437
1.49428
1.4436
1.38498
1.31622
1.22439
1.09503
0.939488
0.769232
0.583803
0.388549
0.187453
-0.0240823
-0.255971
-0.517572
-0.810756
-1.13175
-1.47944
-1.86417
-2.29421
-2.77749
-3.3476
-4.03591
-4.83622
-5.67767
-6.4492
-7.01135
-7.07747
-6.41416
-5.23783
-3.9828
-2.8914
-2.01439
-1.31692
-0.743332
-0.240211
0.528236
1.4961
2.27837
2.80866
3.05084
3.1157
3.09369
2.99868
2.89944
2.85935
2.88523
2.93418
2.96238
2.98099
2.9556
2.83982
2.68044
2.51627
2.34102
2.18837
2.09191
2.05024
2.03077
2.00171
1.96922
1.91245
1.80559
1.68663
1.59672
1.54219
1.50012
1.44584
1.3837
1.29642
1.16029
0.995436
0.818781
0.625348
0.423177
0.219021
0.00679336
-0.22669
-0.494086
-0.796722
-1.12737
-1.4821
-1.87609
-2.31818
-2.81146
-3.40442
-4.14717
-5.04459
-6.01382
-6.93009
-7.66346
-7.82109
-7.02215
-5.5805
-4.11554
-2.91048
-1.98821
-1.28243
-0.717922
-0.231097
0.599703
1.67892
2.53959
3.10677
3.31341
3.33011
3.27548
3.13176
2.99037
2.93695
2.97639
3.04469
3.07744
3.11205
3.10014
2.96215
2.77673
2.59808
2.39773
2.22343
2.1232
2.09435
2.09018
2.06516
2.04236
1.9921
1.86763
1.72818
1.63233
1.58629
1.55585
1.50512
1.4517
1.37205
1.22667
1.05057
0.868482
0.666283
0.456564
0.250324
0.039257
-0.194
-0.466754
-0.779428
-1.11986
-1.4792
-1.88084
-2.33403
-2.83016
-3.43804
-4.23219
-5.23393
-6.34258
-7.41524
-8.36665
-8.66446
-7.69242
-5.91141
-4.20654
-2.88963
-1.93324
-1.22992
-0.682882
-0.218977
0.683241
1.88138
2.8265
3.43743
3.58851
3.54416
3.4606
3.25871
3.06621
2.99942
3.05991
3.15487
3.18724
3.24326
3.25431
3.08511
2.86794
2.67907
2.44867
2.24759
2.1441
2.13341
2.14964
2.12556
2.11576
2.07765
1.92885
1.7624
1.66008
1.6265
1.6117
1.56215
1.52004
1.45269
1.29402
1.10404
0.918551
0.706379
0.488052
0.280867
0.0731055
-0.157745
-0.43557
-0.759381
-1.11029
-1.47109
-1.87886
-2.34375
-2.83392
-3.44664
-4.28723
-5.40146
-6.66152
-7.89451
-9.12174
-9.63151
-8.43567
-6.21822
-4.2445
-2.8241
-1.84868
-1.15995
-0.638862
-0.204107
0.78259
2.10424
3.1395
3.8068
3.87417
3.75339
3.6513
3.37904
3.1242
3.04444
3.1358
3.26746
3.2895
3.37393
3.42257
3.20825
2.9519
2.76131
2.49399
2.25941
2.15337
2.16765
2.21116
2.18167
2.18924
2.17225
1.98943
1.7877
1.67867
1.66277
1.66914
1.61583
1.58831
1.54034
1.36204
1.15465
0.969514
0.745433
0.516874
0.310141
0.108142
-0.117646
-0.400433
-0.737076
-1.09999
-1.4579
-1.87036
-2.35012
-2.82335
-3.42852
-4.30824
-5.54481
-6.96964
-8.35347
-9.92676
-10.7535
-9.26454
-6.48342
-4.21682
-2.71
-1.73467
-1.07366
-0.586786
-0.186818
0.903343
2.34764
3.47772
4.22344
4.16723
3.95148
3.85165
3.49226
3.16114
3.0694
3.2041
3.38672
3.3807
3.50267
3.61128
3.33045
3.02522
2.84807
2.53386
2.25712
2.1495
2.1973
2.27772
2.2314
2.26209
2.28025
2.04935
1.8021
1.6866
1.69511
1.73037
1.66443
1.65575
1.63795
1.43015
1.2007
1.02236
0.783253
0.542128
0.337635
0.14416
-0.073275
-0.361138
-0.71297
-1.09067
-1.43951
-1.85512
-2.35691
-2.79929
-3.38217
-4.29059
-5.66198
-7.26862
-8.77234
-10.7755
-12.0712
-10.1938
-6.68263
-4.11002
-2.54468
-1.59241
-0.972724
-0.5278
-0.167501
1.05385
2.61077
3.83832
4.6994
4.46291
4.12971
4.06833
3.59779
3.17331
3.07137
3.26479
3.51901
3.45553
3.62707
3.82939
3.44967
3.08296
2.94428
2.56837
2.23859
2.13078
2.22251
2.35362
2.27152
2.33297
2.4076
2.10823
1.80312
1.68219
1.72346
1.79872
1.70537
1.72113
1.74965
1.49738
1.23978
1.07878
0.819614
0.562737
0.36286
0.180918
-0.0240361
-0.317378
-0.687417
-1.08454
-1.41548
-1.83221
-2.36915
-2.76269
-3.30636
-4.22895
-5.75128
-7.56447
-9.1246
-11.6555
-13.6381
-11.2404
-6.78238
-3.91051
-2.32732
-1.42422
-0.859308
-0.463211
-0.146583
1.24648
2.89151
4.21554
5.25158
4.7542
4.27611
4.31171
3.69464
3.15645
3.04714
3.31745
3.6736
3.50632
3.74331
4.08942
3.56251
3.11801
3.05726
2.5973
2.20124
2.09524
2.24314
2.44505
2.2972
2.39959
2.56243
2.16503
1.7878
1.66364
1.74757
1.87899
1.73488
1.78253
1.88128
1.56213
1.26862
1.14141
0.854184
0.577406
0.385398
0.218101
0.030863
-0.268752
-0.660588
-1.08454
-1.3849
-1.79968
-2.39352
-2.71443
-3.20037
-4.11698
-5.81096
-7.86976
-9.37562
-12.5456
-15.5237
-12.4233
-6.73754
-3.60579
-2.05934
-1.23348
-0.735927
-0.394422
-0.124507
1.49924
3.18593
4.59954
5.90359
5.03119
4.37457
4.59721
3.78087
3.10564
2.99329
3.36087
3.86375
3.52219
3.84564
4.40866
3.66376
3.12049
3.19757
2.61979
2.14207
2.04073
2.25852
2.56077
2.30152
2.45841
2.75579
2.21771
1.75269
1.62906
1.7668
1.97802
1.7476
1.83711
2.04095
1.62197
1.28274
1.21423
0.886397
0.584581
0.404953
0.255269
0.0924457
-0.214796
-0.632337
-1.09452
-1.34642
-1.75409
-2.4389
-2.65493
-3.0642
-3.94707
-5.83853
-8.2064
-9.48111
-13.4122
-17.8183
-13.7635
-6.48817
-3.18622
-1.74482
-1.02454
-0.605325
-0.322853
-0.101705
1.83792
3.48766
4.97486
6.68799
5.28012
4.40373
4.94705
3.8529
3.01544
2.9063
3.39239
4.10801
3.48821
3.92579
4.81064
3.74567
3.07701
3.38015
2.6339
2.05766
1.96501
2.26697
2.71295
2.27488
2.50427
3.00245
2.26268
1.69386
1.57667
1.77976
2.10539
1.73611
1.88086
2.23968
1.6733
1.27623
1.30304
0.915278
0.582409
0.421441
0.29178
0.162012
-0.155046
-0.602023
-1.11961
-1.2981
-1.69
-2.51695
-2.58375
-2.89897
-3.71001
-5.82968
-8.60914
-9.38561
-14.2058
-20.6381
-15.2833
-5.95594
-2.64744
-1.39074
-0.802481
-0.470326
-0.249879
-0.0785902
2.29877
3.78719
5.31848
7.64909
5.48222
4.33562
5.39228
3.90443
2.87995
2.78288
3.40701
4.43188
3.38423
3.9722
5.32685
3.79721
2.96972
3.6257
2.6359
1.94425
1.86592
2.26533
2.91823
2.20428
2.52996
3.32201
2.29414
1.60707
1.5049
1.78387
2.27416
1.69037
1.90823
2.49227
1.71093
1.24135
1.41599
0.939182
0.56871
0.435094
0.326701
0.241199
-0.0891243
-0.568261
-1.16654
-1.23746
-1.59931
-2.64298
-2.49889
-2.70745
-3.39486
-5.7766
-9.12968
-9.0209
-14.8557
-24.1315
-17.0051
-5.04008
-1.99351
-1.00696
-0.572818
-0.333678
-0.176774
-0.055532
2.93168
4.07096
5.59766
8.84621
5.61241
4.13429
5.97535
3.92506
2.69304
2.62027
3.39622
4.86971
3.18368
3.96918
5.99881
3.80309
2.77541
3.96225
2.61939
1.79789
1.74163
2.24809
3.19902
2.07249
2.5257
3.74013
2.30318
1.48793
1.4127
1.77474
2.50194
1.59705
1.91177
2.81822
1.72765
1.16816
1.56427
0.955462
0.540962
0.446593
0.35868
0.33206
-0.0168817
-0.528611
-1.24401
-1.1615
-1.47043
-2.83693
-2.39593
-2.49469
-2.98874
-5.6658
-9.84148
-8.30469
-15.2644
-28.4862
-18.9507
-3.61291
-1.24082
-0.605809
-0.341144
-0.197923
-0.104661
-0.0328533
3.80398
4.32043
5.76729
10.3574
5.63766
3.75411
6.75292
3.89852
2.44878
2.41679
3.34647
5.467
2.85217
3.89596
6.88026
3.74269
2.46442
4.4271
2.57413
1.61469
1.59095
2.20646
3.58496
1.85712
2.4786
4.28989
2.27672
1.3322
1.29979
1.74534
2.812
1.43882
1.88169
3.24283
1.71362
1.04415
1.76287
0.960033
0.496321
0.457225
0.385797
0.437177
0.061412
-0.479181
-1.36321
-1.06673
-1.28739
-3.12458
-2.26695
-2.26889
-2.47696
-5.47512
-10.8451
-7.13948
-15.3012
-33.9369
-21.1393
-1.51516
-0.422852
-0.201266
-0.112736
-0.0652795
-0.0344893
-0.0108221
)
;

boundaryField
{
    left
    {
        type            calculated;
        value           uniform 0;
    }
    right
    {
        type            calculated;
        value           uniform 0;
    }
    interface
    {
        type            calculated;
        value           nonuniform List<scalar> 
64
(
3.80398
4.32043
5.76729
10.3574
5.63766
3.75411
6.75292
3.89852
2.44878
2.41679
3.34647
5.467
2.85217
3.89596
6.88026
3.74269
2.46442
4.4271
2.57413
1.61469
1.59095
2.20646
3.58496
1.85712
2.4786
4.28989
2.27672
1.3322
1.29979
1.74534
2.812
1.43882
1.88169
3.24283
1.71362
1.04415
1.76287
0.960033
0.496321
0.457225
0.385797
0.437177
0.061412
-0.479181
-1.36321
-1.06673
-1.28739
-3.12458
-2.26695
-2.26889
-2.47696
-5.47512
-10.8451
-7.13948
-15.3012
-33.9369
-21.1393
-1.51516
-0.422852
-0.201266
-0.112736
-0.0652795
-0.0344893
-0.0108221
)
;
    }
    bottom
    {
        type            calculated;
        value           nonuniform List<scalar> 
64
(
0.00630486
0.018734
0.0306381
0.0417193
0.0517487
0.060577
0.0681338
0.0744169
0.0794759
0.0833938
0.0862703
0.0882098
0.0893141
0.0896802
0.0894005
0.0885641
0.0872578
0.0855653
0.0835642
0.0813232
0.0788979
0.076329
0.0736415
0.0708454
0.0679385
0.0649087
0.0617364
0.0583962
0.054857
0.0510831
0.047034
0.0426663
0.0379346
0.0327944
0.0272038
0.0211253
0.0145265
0.00738141
-0.000329654
-0.00861833
-0.0174861
-0.0269208
-0.0368909
-0.047339
-0.0581736
-0.06926
-0.080411
-0.0913794
-0.101854
-0.111462
-0.11978
-0.126358
-0.130752
-0.132569
-0.131511
-0.127415
-0.120276
-0.110247
-0.0976148
-0.0827645
-0.0661292
-0.04815
-0.0292468
-0.00980735
)
;
    }
    defaultFaces
    {
        type            empty;
    }
}


// ************************************************************************* //
