/*--------------------------------*- C++ -*----------------------------------*\
| =========                 |                                                 |
| \\      /  F ield         | OpenFOAM: The Open Source CFD Toolbox           |
|  \\    /   O peration     | Version:  5.x                                   |
|   \\  /    A nd           | Web:      www.OpenFOAM.org                      |
|    \\/     M anipulation  |                                                 |
\*---------------------------------------------------------------------------*/
FoamFile
{
    version     2.0;
    format      ascii;
    class       volScalarField;
    location    "8";
    object      gradTx;
}
// * * * * * * * * * * * * * * * * * * * * * * * * * * * * * * * * * * * * * //

dimensions      [0 -1 0 1 0 0 0];

internalField   nonuniform List<scalar> 
2048
(
0.00630499
0.0187344
0.0306387
0.0417202
0.0517499
0.0605784
0.0681354
0.0744186
0.0794778
0.0833958
0.0862724
0.088212
0.0893164
0.0896825
0.0894028
0.0885664
0.0872601
0.0855675
0.0835663
0.0813251
0.0788997
0.0763306
0.0736429
0.0708466
0.0679394
0.0649093
0.0617367
0.0583961
0.0548565
0.0510822
0.0470328
0.0426647
0.0379327
0.0327922
0.0272014
0.0211227
0.0145238
0.00737858
-0.000332561
-0.00862128
-0.0174891
-0.0269237
-0.0368938
-0.0473419
-0.0581765
-0.0692628
-0.0804137
-0.091382
-0.101857
-0.111465
-0.119783
-0.12636
-0.130754
-0.13257
-0.131512
-0.127416
-0.120277
-0.110248
-0.0976157
-0.0827651
-0.0661297
-0.0481503
-0.0292469
-0.00980739
0.0187886
0.0558182
0.0912569
0.124206
0.15398
0.180138
0.20248
0.221014
0.235901
0.247402
0.255819
0.261469
0.264654
0.26566
0.264759
0.262214
0.258284
0.253215
0.247243
0.240571
0.233367
0.225752
0.217798
0.209533
0.200949
0.192007
0.182649
0.172799
0.162365
0.15124
0.139305
0.126429
0.112477
0.0973151
0.0808182
0.0628746
0.0433882
0.0222811
-0.000505372
-0.0250077
-0.0512336
-0.0791509
-0.108672
-0.139636
-0.171777
-0.204706
-0.237875
-0.270558
-0.301832
-0.330586
-0.355549
-0.375361
-0.388675
-0.394291
-0.391297
-0.379194
-0.357963
-0.328074
-0.290413
-0.246152
-0.196609
-0.143109
-0.0869051
-0.0291382
0.0311403
0.0924836
0.151107
0.205486
0.254474
0.297354
0.333829
0.363956
0.388046
0.406566
0.420045
0.429013
0.43397
0.435383
0.433689
0.429317
0.422688
0.414216
0.40429
0.393255
0.38139
0.368895
0.355883
0.342396
0.328411
0.313861
0.298646
0.28264
0.265693
0.247631
0.228254
0.207344
0.184676
0.160026
0.133185
0.103967
0.0722161
0.0378023
0.000627278
-0.0393739
-0.0822228
-0.12788
-0.176222
-0.227001
-0.279814
-0.334043
-0.388818
-0.442963
-0.494969
-0.542991
-0.584901
-0.618386
-0.641138
-0.651077
-0.646612
-0.626863
-0.591802
-0.542254
-0.47977
-0.40639
-0.324373
-0.235961
-0.143224
-0.0480091
0.0436
0.129427
0.211275
0.286941
0.354798
0.413874
0.463825
0.504821
0.53739
0.562257
0.580208
0.592003
0.598335
0.599832
0.597084
0.590672
0.581177
0.56918
0.555235
0.539836
0.523377
0.506134
0.488258
0.469792
0.45069
0.430846
0.410117
0.388328
0.365275
0.340715
0.314372
0.285937
0.255089
0.221509
0.184904
0.145016
0.101625
0.0545547
0.00366523
-0.051142
-0.109914
-0.172622
-0.23913
-0.309141
-0.382145
-0.457347
-0.533596
-0.609308
-0.682413
-0.750336
-0.810048
-0.858208
-0.891422
-0.906596
-0.901332
-0.874293
-0.825434
-0.756014
-0.668381
-0.565593
-0.450974
-0.327745
-0.198793
-0.0666106
0.0563835
0.16727
0.272723
0.369772
0.456287
0.53107
0.5938
0.644856
0.685074
0.715513
0.737261
0.751321
0.758568
0.759773
0.755652
0.74692
0.734317
0.718599
0.7005
0.680676
0.659649
0.63777
0.615218
0.59202
0.568089
0.543274
0.517383
0.490194
0.461454
0.430857
0.398047
0.36262
0.324149
0.282217
0.236439
0.186484
0.132075
0.0729901
0.00904843
-0.0598878
-0.133904
-0.213005
-0.29707
-0.385795
-0.47861
-0.574596
-0.672381
-0.770026
-0.864937
-0.953807
-1.03265
-1.09699
-1.14217
-1.16387
-1.15868
-1.1247
-1.06185
-0.971945
-0.85833
-0.725316
-0.577483
-0.419134
-0.253975
-0.085056
0.0696956
0.2066
0.336343
0.455075
0.560123
0.650111
0.724843
0.785034
0.831954
0.867092
0.891893
0.907612
0.915289
0.915799
0.909952
0.898574
0.882561
0.86286
0.840409
0.816053
0.790454
0.764039
0.737
0.709325
0.680866
0.651409
0.620708
0.588503
0.5545
0.518337
0.479576
0.437708
0.392192
0.342494
0.288136
0.228713
0.163898
0.0934282
0.0170851
-0.0653129
-0.153904
-0.248749
-0.349782
-0.45673
-0.569021
-0.685678
-0.805177
-0.925297
-1.04297
-1.15418
-1.25392
-1.33642
-1.39554
-1.42543
-1.42144
-1.38086
-1.30359
-1.19214
-1.05119
-0.886625
-0.704542
-0.510466
-0.308917
-0.103385
0.0837405
0.247998
0.403005
0.543883
0.667384
0.772014
0.857846
0.926101
0.978643
1.01751
1.04456
1.06132
1.06895
1.06836
1.06043
1.04605
1.02627
1.00227
0.975208
0.946167
0.915969
0.885117
0.853792
0.821913
0.78924
0.755471
0.720309
0.683465
0.644618
0.603365
0.559182
0.511443
0.459469
0.4026
0.340251
0.271948
0.197321
0.116079
0.0279727
-0.0672253
-0.16972
-0.279658
-0.397061
-0.521736
-0.65317
-0.790399
-0.931836
-1.07507
-1.21664
-1.35184
-1.47462
-1.57774
-1.65327
-1.69349
-1.69204
-1.64522
-1.55282
-1.41832
-1.24811
-1.05014
-0.832386
-0.601756
-0.363564
-0.121568
0.0987296
0.29206
0.473584
0.637213
0.779081
0.897678
0.993534
1.0686
1.12553
1.16706
1.19554
1.21273
1.21985
1.21782
1.20744
1.18968
1.16575
1.13705
1.10507
1.07115
1.03631
1.00113
0.965745
0.929962
0.893404
0.855657
0.816368
0.775241
0.73196
0.686092
0.637027
0.584001
0.526172
0.462727
0.392967
0.31635
0.232481
0.141058
0.0418142
-0.0655248
-0.181245
-0.305605
-0.438754
-0.580629
-0.730837
-0.888504
-1.05209
-1.2191
-1.3858
-1.54688
-1.69518
-1.82185
-1.91682
-1.96997
-1.97276
-1.92006
-1.81151
-1.65187
-1.44985
-1.21608
-0.960866
-0.692712
-0.417661
-0.139505
0.114889
0.339416
0.54899
0.736085
0.896183
1.0279
1.13248
1.21288
1.27281
1.31585
1.34491
1.36196
1.36821
1.36442
1.35129
1.32977
1.30123
1.26739
1.23011
1.19108
1.15154
1.11215
1.07298
1.03363
0.993537
0.952144
0.909039
0.863955
0.816626
0.766614
0.713219
0.655508
0.592441
0.523017
0.446409
0.362018
0.269444
0.168404
0.0586305
-0.0601917
-0.188445
-0.32653
-0.474765
-0.633262
-0.801807
-0.979703
-1.16556
-1.35696
-1.55006
-1.73902
-1.91566
-2.0693
-2.18734
-2.25663
-2.26575
-2.20758
-2.08149
-1.89394
-1.65681
-1.38424
-1.08945
-0.782739
-0.470766
-0.157037
0.132464
0.390748
0.63019
0.841551
1.01964
1.16341
1.27513
1.35913
1.42047
1.46379
1.49259
1.50903
1.51414
1.50839
1.49224
1.46656
1.43292
1.39343
1.3504
1.30596
1.26167
1.21824
1.17559
1.13306
1.08982
1.0451
0.998458
0.949698
0.898673
0.844983
0.787824
0.726055
0.658381
0.583576
0.500662
0.408996
0.308214
0.198085
0.0783709
-0.0512775
-0.191354
-0.342435
-0.505049
-0.67953
-0.865892
-1.06369
-1.27182
-1.48812
-1.7088
-1.92775
-2.13581
-2.32034
-2.46573
-2.55509
-2.57314
-2.50999
-2.36452
-2.14548
-1.86905
-1.55402
-1.21724
-0.870956
-0.522259
-0.173941
0.151728
0.446804
0.718224
0.95471
1.15039
1.30484
1.4218
1.50737
1.56833
1.61062
1.6384
1.65386
1.65771
1.64992
1.63054
1.60032
1.56103
1.51526
1.46594
1.41577
1.36666
1.3194
1.27367
1.22842
1.18243
1.13471
1.08475
1.03253
0.978119
0.921206
0.860871
0.795699
0.724075
0.644484
0.555777
0.457292
0.348745
0.230012
0.100922
-0.0388966
-0.190066
-0.35338
-0.529621
-0.71938
-0.922942
-1.14019
-1.37042
-1.61191
-1.86123
-2.11226
-2.35502
-2.57486
-2.75268
-2.86687
-2.89712
-2.82961
-2.66237
-2.40725
-2.08629
-1.72443
-1.34295
-0.956207
-0.57136
-0.189946
0.172983
0.508407
0.814222
1.07672
1.28937
1.45277
1.57266
1.65746
1.71605
1.75594
1.78199
1.79629
1.79893
1.78918
1.76647
1.7313
1.68572
1.63296
1.57672
1.52041
1.46644
1.41563
1.36729
1.31985
1.27158
1.22115
1.16803
1.11248
1.05494
0.995252
0.932358
0.864479
0.789588
0.70581
0.611788
0.506876
0.390948
0.264046
0.126114
-0.0232186
-0.184727
-0.359474
-0.548546
-0.75282
-0.972868
-1.20896
-1.4609
-1.72765
-2.00642
-2.29149
-2.5724
-2.83247
-3.04859
-3.19341
-3.23998
-3.16899
-2.97692
-2.67984
-2.30786
-1.89402
-1.46495
-1.03709
-0.617153
-0.204734
0.196568
0.576471
0.919418
1.2088
1.4375
1.60768
1.72778
1.80908
1.86308
1.89918
1.92295
1.9361
1.9378
1.92635
1.9003
1.85978
1.80718
1.74659
1.68267
1.61976
1.56088
1.50687
1.45654
1.40754
1.3575
1.30465
1.24842
1.18955
1.12905
1.06705
1.00226
0.932418
0.854984
0.76762
0.668715
0.557699
0.434697
0.300001
0.15373
-0.00446122
-0.175528
-0.360871
-0.561943
-0.779919
-1.01565
-1.26981
-1.54285
-1.8346
-2.14331
-2.46416
-2.78672
-3.09239
-3.35361
-3.53605
-3.60421
-3.53097
-3.3102
-2.96366
-2.53269
-2.06089
-1.58124
-1.11198
-0.65862
-0.217963
0.222864
0.652009
1.03516
1.35227
1.59571
1.76998
1.88709
1.96179
2.00875
2.03964
2.06074
2.07303
2.07433
2.06165
2.03238
1.98605
1.92559
1.8562
1.78371
1.71363
1.64981
1.59309
1.54151
1.49169
1.44046
1.38545
1.32605
1.2637
1.20036
1.1365
1.07053
0.999531
0.920327
0.82999
0.726577
0.609686
0.479839
0.337657
0.183509
0.0171167
-0.162695
-0.357758
-0.569973
-0.800812
-1.05135
-1.32265
-1.61593
-1.93208
-2.27078
-2.6288
-2.99645
-3.35353
-3.66757
-3.89602
-3.9925
-3.91883
-3.66446
-3.25895
-2.75923
-2.2227
-1.6895
-1.1791
-0.69468
-0.229276
0.252296
0.736137
1.16292
1.50852
1.76488
1.93996
2.05041
2.11499
2.15221
2.17649
2.19479
2.20681
2.2085
2.19533
2.1631
2.11045
2.04113
1.96183
1.8797
1.80177
1.73301
1.67422
1.6223
1.57253
1.52076
1.46385
1.40104
1.33487
1.26867
1.20346
1.13712
1.06583
0.98569
0.893011
0.785392
0.662749
0.526195
0.37676
0.215151
0.0412206
-0.146479
-0.350347
-0.572835
-0.815697
-1.08012
-1.3675
-1.6799
-2.01946
-2.38767
-2.78376
-3.19973
-3.61436
-3.98994
-4.27437
-4.4078
-4.33647
-4.04231
-3.56569
-2.98538
-2.37656
-1.78714
-1.23656
-0.724246
-0.23832
0.285347
0.830077
1.30429
1.67904
1.94587
2.11779
2.21742
2.26797
2.29245
2.30877
2.32446
2.33718
2.34032
2.32766
2.29294
2.23335
2.15397
2.0635
1.97049
1.88389
1.81021
1.75018
1.69905
1.65031
1.59877
1.54023
1.47355
1.40293
1.33377
1.26776
1.20196
1.13132
1.05116
0.956808
0.845185
0.716779
0.573569
0.41703
0.248321
0.067526
-0.127148
-0.338857
-0.570754
-0.824833
-1.10221
-1.40448
-1.73465
-2.09624
-2.49287
-2.92724
-3.39444
-3.87303
-4.31977
-4.67189
-4.85337
-4.78853
-4.44679
-3.88353
-3.20838
-2.5191
-1.87132
-1.28246
-0.746277
-0.244773
0.322566
0.935156
1.46099
1.86543
2.13947
2.30348
2.38775
2.41989
2.42832
2.4354
2.4491
2.46393
2.46979
2.45898
2.42248
2.35517
2.26428
2.16128
2.05594
1.95963
1.88108
1.82088
1.77193
1.72529
1.67488
1.61502
1.54374
1.46769
1.39533
1.3292
1.265
1.196
1.11683
1.02155
0.90599
0.771646
0.621751
0.458169
0.282654
0.0956815
-0.10498
-0.323505
-0.563968
-0.828531
-1.11794
-1.4338
-1.78021
-2.16209
-2.5853
-3.05734
-3.57817
-4.12727
-4.65562
-5.08892
-5.33271
-5.28069
-4.88148
-4.21167
-3.42469
-2.64644
-1.93907
-1.31497
-0.759845
-0.248357
0.364592
1.05279
1.63484
2.06946
2.34636
2.49681
2.56093
2.56986
2.55852
2.55518
2.56808
2.58691
2.59689
2.58965
2.55244
2.47632
2.37217
2.25524
2.13586
2.02854
1.94523
1.88628
1.84116
1.79774
1.74953
1.68879
1.61181
1.5289
1.45297
1.38758
1.32624
1.25986
1.18281
1.08746
0.967848
0.827186
0.67053
0.499868
0.31775
0.125312
-0.0802484
-0.304486
-0.552712
-0.827155
-1.12775
-1.4558
-1.81676
-2.21689
-2.66403
-3.17211
-3.74827
-4.3745
-4.99559
-5.52518
-5.84959
-5.81999
-5.35067
-4.54863
-3.62981
-2.7542
-1.9874
-1.33241
-0.76419
-0.248862
0.412189
1.18448
1.82774
2.29308
2.56707
2.6973
2.73653
2.71693
2.68158
2.66678
2.68078
2.70611
2.72155
2.72002
2.68376
2.59724
2.47765
2.34554
2.21011
2.09011
2.00217
1.9463
1.90706
1.86789
1.82318
1.76228
1.67797
1.58617
1.50618
1.44266
1.38571
1.32286
1.24921
1.15488
1.0308
0.883186
0.719706
0.541813
0.353177
0.156018
-0.0532218
-0.281962
-0.537208
-0.82111
-1.13218
-1.47089
-1.84463
-2.26079
-2.72829
-3.26954
-3.90189
-4.61184
-5.33724
-5.97946
-6.40788
-6.41521
-5.85951
-4.89197
-3.81814
-2.83756
-2.01339
-1.33341
-0.758778
-0.24616
0.466316
1.33175
2.04162
2.53857
2.8019
2.90407
2.91416
2.86018
2.79586
2.76875
2.78667
2.82174
2.84357
2.85043
2.81765
2.71835
2.58059
2.43245
2.27856
2.14367
2.05132
2.00096
1.97006
1.93589
1.89629
1.83643
1.74248
1.63898
1.55435
1.49425
1.44354
1.38489
1.31612
1.22426
1.0949
0.939357
0.769113
0.583698
0.388461
0.187378
-0.024153
-0.25604
-0.517645
-0.810837
-1.13184
-1.47953
-1.86426
-2.29429
-2.77756
-3.34765
-4.03595
-4.83625
-5.6777
-6.44923
-7.01138
-7.0775
-6.41419
-5.23786
-3.98283
-2.89142
-2.01441
-1.31693
-0.743349
-0.240219
0.528236
1.49609
2.27835
2.80864
3.05083
3.11571
3.09372
2.99873
2.89951
2.85945
2.88535
2.93432
2.96252
2.98113
2.95575
2.83998
2.6806
2.51642
2.34115
2.18847
2.09197
2.05029
2.0308
2.00174
1.96926
1.91249
1.80562
1.68663
1.59669
1.54216
1.50005
1.44574
1.38358
1.29628
1.16014
0.995293
0.818651
0.625234
0.423085
0.218945
0.0067222
-0.226759
-0.49416
-0.79681
-1.12747
-1.4822
-1.87619
-2.31827
-2.81154
-3.40448
-4.14721
-5.04462
-6.01384
-6.93011
-7.66348
-7.82112
-7.02218
-5.58053
-4.11556
-2.9105
-1.98823
-1.28245
-0.717939
-0.231106
0.599701
1.67891
2.53956
3.10674
3.31339
3.33012
3.27551
3.13181
2.99045
2.93706
2.97652
3.04484
3.0776
3.11221
3.10031
2.96232
2.7769
2.59825
2.39788
2.22354
2.12326
2.09439
2.0902
2.06518
2.0424
1.99214
1.86767
1.72818
1.63229
1.58625
1.55577
1.50501
1.45157
1.3719
1.2265
1.05041
0.868339
0.66616
0.456468
0.250249
0.0391859
-0.194068
-0.466829
-0.779522
-1.11997
-1.47932
-1.88095
-2.33412
-2.83025
-3.4381
-4.23222
-5.23395
-6.34259
-7.41526
-8.36668
-8.66449
-7.69246
-5.91143
-4.20656
-2.88965
-1.93326
-1.22994
-0.682899
-0.218985
0.683237
1.88136
2.82646
3.43738
3.58847
3.54416
3.46063
3.25877
3.06629
2.99953
3.06006
3.15503
3.18741
3.24343
3.25449
3.08531
2.86814
2.67926
2.44884
2.24771
2.14416
2.13344
2.14965
2.12557
2.11581
2.0777
1.9289
1.7624
1.66004
1.62645
1.61161
1.56202
1.51989
1.45251
1.29383
1.10387
0.918395
0.706245
0.487951
0.280794
0.0730352
-0.157813
-0.435645
-0.75948
-1.11041
-1.47121
-1.87898
-2.34385
-2.83401
-3.4467
-4.28727
-5.40147
-6.66152
-7.89451
-9.12176
-9.63153
-8.4357
-6.21824
-4.24452
-2.82412
-1.8487
-1.15997
-0.638878
-0.204113
0.782583
2.10421
3.13945
3.80674
3.87412
3.75338
3.65132
3.37909
3.12428
3.04456
3.13596
3.26765
3.28969
3.37412
3.42277
3.20847
2.95212
2.76153
2.49419
2.25954
2.15341
2.16767
2.21115
2.18166
2.18928
2.17231
1.9895
1.78772
1.67862
1.66272
1.66903
1.61567
1.58815
1.54015
1.36183
1.15447
0.969345
0.745286
0.516767
0.31007
0.108073
-0.117711
-0.400506
-0.737182
-1.10012
-1.45804
-1.87049
-2.35024
-2.82344
-3.42858
-4.30827
-5.54481
-6.96963
-8.35348
-9.92677
-10.7535
-9.26457
-6.48345
-4.21684
-2.71001
-1.73469
-1.07367
-0.586799
-0.186821
0.903334
2.3476
3.47766
4.22336
4.16717
3.95147
3.85167
3.49231
3.16123
3.06953
3.20428
3.38693
3.38091
3.50288
3.6115
3.3307
3.02547
2.84831
2.5341
2.25727
2.14954
2.19732
2.27769
2.23137
2.26213
2.28032
2.04945
1.80213
1.68653
1.69506
1.73025
1.66424
1.65557
1.63773
1.42992
1.2005
1.02218
0.783091
0.542013
0.337567
0.144092
-0.0733379
-0.361208
-0.713081
-1.09081
-1.43967
-1.85526
-2.35704
-2.79939
-3.38223
-4.29061
-5.66198
-7.2686
-8.77233
-10.7755
-12.0712
-10.1938
-6.68265
-4.11004
-2.5447
-1.59243
-0.972741
-0.527809
-0.1675
1.05384
2.61072
3.83823
4.6993
4.46283
4.12968
4.06835
3.59785
3.17341
3.07151
3.26498
3.51923
3.45576
3.6273
3.82963
3.44994
3.08324
2.94455
2.56864
2.23875
2.13081
2.22252
2.35358
2.27146
2.333
2.40766
2.10836
1.80318
1.68212
1.7234
1.79859
1.70514
1.72092
1.74941
1.49713
1.23957
1.07859
0.819437
0.562613
0.362797
0.18085
-0.0240979
-0.317442
-0.687533
-1.0847
-1.41565
-1.83237
-2.36928
-2.7628
-3.30642
-4.22897
-5.75127
-7.56445
-9.12458
-11.6555
-13.6381
-11.2404
-6.7824
-3.91053
-2.32734
-1.42423
-0.859325
-0.463214
-0.146577
1.24647
2.89146
4.21544
5.25146
4.7541
4.27608
4.31173
3.6947
3.15654
3.04729
3.31765
3.67384
3.50656
3.74356
4.08969
3.56281
3.11831
3.05754
2.59759
2.20142
2.09525
2.24316
2.44501
2.29711
2.3996
2.56248
2.16519
1.7879
1.66355
1.74752
1.87886
1.73462
1.78229
1.88101
1.56186
1.26839
1.1412
0.853994
0.577272
0.385339
0.218031
0.0307989
-0.268809
-0.660707
-1.0847
-1.38509
-1.79985
-2.39367
-2.71454
-3.20043
-4.117
-5.81094
-7.86973
-9.37559
-12.5456
-15.5237
-12.4233
-6.73756
-3.6058
-2.05935
-1.23349
-0.735942
-0.394417
-0.124493
1.49922
3.18587
4.59943
5.90346
5.03108
4.37453
4.59723
3.78093
3.10573
2.99343
3.36108
3.86401
3.52245
3.84591
4.40895
3.66408
3.12081
3.19786
2.6201
2.14228
2.04073
2.25855
2.56075
2.30141
2.45838
2.75578
2.21788
1.75283
1.62897
1.76677
1.97792
1.74731
1.83684
2.04064
1.62168
1.28252
1.21403
0.886201
0.584437
0.404898
0.255192
0.0923721
-0.214847
-0.632455
-1.09469
-1.34661
-1.75427
-2.43906
-2.65505
-3.06426
-3.94708
-5.83851
-8.20636
-9.48108
-13.4122
-17.8183
-13.7636
-6.48819
-3.18623
-1.74483
-1.02455
-0.605339
-0.32284
-0.101684
1.83791
3.4876
4.97474
6.68785
5.27999
4.40368
4.94706
3.85296
3.01553
2.90644
3.39261
4.1083
3.48848
3.92607
4.81094
3.746
3.07732
3.38042
2.63421
2.05789
1.96501
2.26705
2.71299
2.27477
2.50419
3.00233
2.26283
1.69405
1.57658
1.77978
2.10535
1.73581
1.88056
2.23933
1.67298
1.27601
1.30285
0.915089
0.582258
0.42139
0.29169
0.161916
-0.155093
-0.602136
-1.11979
-1.29829
-1.69019
-2.51713
-2.58387
-2.89903
-3.71003
-5.82965
-8.60909
-9.38557
-14.2057
-20.6381
-15.2833
-5.95596
-2.64745
-1.39075
-0.802489
-0.470338
-0.249858
-0.0785613
2.29877
3.78714
5.31836
7.64894
5.4821
4.33558
5.39229
3.90448
2.88003
2.78301
3.40723
4.43218
3.38449
3.97249
5.32717
3.79752
2.97
3.6259
2.63616
1.9445
1.86593
2.26551
2.91842
2.2042
2.52979
3.32169
2.29418
1.60729
1.50483
1.78399
2.27425
1.6901
1.90791
2.49187
1.7106
1.24115
1.41584
0.939026
0.568561
0.435045
0.326586
0.241059
-0.0891778
-0.568365
-1.1667
-1.23764
-1.59949
-2.64317
-2.49902
-2.7075
-3.39487
-5.77658
-9.12964
-9.02085
-14.8556
-24.1315
-17.0051
-5.04009
-1.99352
-1.00697
-0.572824
-0.333688
-0.176747
-0.0554984
2.93169
4.07094
5.59756
8.84606
5.6123
4.13425
5.97535
3.9251
2.69312
2.62038
3.39642
4.87002
3.18392
3.96946
5.99913
3.80334
2.77561
3.96233
2.61953
1.79813
1.74168
2.24843
3.19947
2.07251
2.52539
3.73946
2.30297
1.48813
1.41266
1.77501
2.50228
1.59691
1.91146
2.81776
1.7273
1.16801
1.56419
0.95538
0.540834
0.446544
0.358523
0.331843
-0.0169595
-0.5287
-1.24415
-1.16163
-1.47059
-2.83713
-2.39606
-2.49474
-2.98876
-5.66579
-9.84145
-8.30465
-15.2643
-28.4861
-18.9507
-3.61292
-1.24083
-0.605813
-0.341147
-0.197929
-0.104634
-0.0328215
3.80401
4.32044
5.76722
10.3573
5.63757
3.75408
6.75291
3.89854
2.44883
2.41686
3.34664
5.46732
2.85237
3.89621
6.88056
3.74282
2.46446
4.42696
2.57406
1.61487
1.59107
2.20708
3.58584
1.85736
2.4781
4.28866
2.27604
1.33229
1.29982
1.74588
2.81275
1.43896
1.88145
3.2423
1.71326
1.04408
1.76292
0.960093
0.496245
0.457176
0.385575
0.436831
0.0612787
-0.479249
-1.3633
-1.06678
-1.28751
-3.1248
-2.26709
-2.26895
-2.477
-5.47514
-10.8451
-7.13945
-15.3011
-33.9368
-21.1393
-1.51516
-0.422853
-0.201267
-0.112737
-0.0652822
-0.0344736
-0.0108045
)
;

boundaryField
{
    left
    {
        type            calculated;
        value           uniform 0;
    }
    right
    {
        type            calculated;
        value           uniform 0;
    }
    interface
    {
        type            calculated;
        value           nonuniform List<scalar> 
64
(
3.80401
4.32044
5.76722
10.3573
5.63757
3.75408
6.75291
3.89854
2.44883
2.41686
3.34664
5.46732
2.85237
3.89621
6.88056
3.74282
2.46446
4.42696
2.57406
1.61487
1.59107
2.20708
3.58584
1.85736
2.4781
4.28866
2.27604
1.33229
1.29982
1.74588
2.81275
1.43896
1.88145
3.2423
1.71326
1.04408
1.76292
0.960093
0.496245
0.457176
0.385575
0.436831
0.0612787
-0.479249
-1.3633
-1.06678
-1.28751
-3.1248
-2.26709
-2.26895
-2.477
-5.47514
-10.8451
-7.13945
-15.3011
-33.9368
-21.1393
-1.51516
-0.422853
-0.201267
-0.112737
-0.0652822
-0.0344736
-0.0108045
)
;
    }
    bottom
    {
        type            calculated;
        value           nonuniform List<scalar> 
64
(
0.00630499
0.0187344
0.0306387
0.0417202
0.0517499
0.0605784
0.0681354
0.0744186
0.0794778
0.0833958
0.0862724
0.088212
0.0893164
0.0896825
0.0894028
0.0885664
0.0872601
0.0855675
0.0835663
0.0813251
0.0788997
0.0763306
0.0736429
0.0708466
0.0679394
0.0649093
0.0617367
0.0583961
0.0548565
0.0510822
0.0470328
0.0426647
0.0379327
0.0327922
0.0272014
0.0211227
0.0145238
0.00737858
-0.000332561
-0.00862128
-0.0174891
-0.0269237
-0.0368938
-0.0473419
-0.0581765
-0.0692628
-0.0804137
-0.091382
-0.101857
-0.111465
-0.119783
-0.12636
-0.130754
-0.13257
-0.131512
-0.127416
-0.120277
-0.110248
-0.0976157
-0.0827651
-0.0661297
-0.0481503
-0.0292469
-0.00980739
)
;
    }
    defaultFaces
    {
        type            empty;
    }
}


// ************************************************************************* //
