/*--------------------------------*- C++ -*----------------------------------*\
| =========                 |                                                 |
| \\      /  F ield         | OpenFOAM: The Open Source CFD Toolbox           |
|  \\    /   O peration     | Version:  5.x                                   |
|   \\  /    A nd           | Web:      www.OpenFOAM.org                      |
|    \\/     M anipulation  |                                                 |
\*---------------------------------------------------------------------------*/
FoamFile
{
    version     2.0;
    format      ascii;
    class       volScalarField;
    location    "8";
    object      gradTy;
}
// * * * * * * * * * * * * * * * * * * * * * * * * * * * * * * * * * * * * * //

dimensions      [0 -1 0 1 0 0 0];

internalField   nonuniform List<scalar> 
2048
(
-26.4236
-26.396
-26.3417
-26.262
-26.1592
-26.0358
-25.8945
-25.7383
-25.5697
-25.3915
-25.206
-25.0154
-24.8215
-24.6262
-24.4308
-24.2368
-24.0452
-23.8569
-23.6727
-23.4932
-23.3188
-23.1498
-22.9866
-22.8294
-22.6784
-22.5338
-22.3959
-22.2651
-22.1417
-22.0262
-21.9193
-21.8214
-21.7333
-21.656
-21.5903
-21.5372
-21.4979
-21.4735
-21.4653
-21.4745
-21.5023
-21.55
-21.6189
-21.7101
-21.8245
-21.9629
-22.1257
-22.3128
-22.5236
-22.7567
-23.0097
-23.2793
-23.5613
-23.8504
-24.1406
-24.4253
-24.6976
-24.9511
-25.1796
-25.3778
-25.5412
-25.6666
-25.7515
-25.7944
-26.446
-26.4177
-26.3621
-26.2807
-26.1759
-26.0503
-25.9067
-25.7482
-25.5775
-25.3974
-25.2102
-25.018
-24.8228
-24.6262
-24.4298
-24.2348
-24.0425
-23.8536
-23.6689
-23.489
-23.3143
-23.1452
-22.9818
-22.8244
-22.6732
-22.5283
-22.3902
-22.259
-22.1353
-22.0194
-21.9119
-21.8134
-21.7247
-21.6466
-21.58
-21.5261
-21.4859
-21.4605
-21.4512
-21.4594
-21.4862
-21.5329
-21.6009
-21.6912
-21.8051
-21.9431
-22.106
-22.2937
-22.5056
-22.7405
-22.9962
-23.2693
-23.5556
-23.8496
-24.1451
-24.4352
-24.7129
-24.9713
-25.2041
-25.4058
-25.572
-25.6994
-25.7856
-25.829
-26.4887
-26.4592
-26.4011
-26.3164
-26.2076
-26.0776
-25.9297
-25.7669
-25.5922
-25.4084
-25.2179
-25.0228
-24.8249
-24.6261
-24.4277
-24.231
-24.0372
-23.8472
-23.6617
-23.4811
-23.3059
-23.1364
-22.9727
-22.8149
-22.6633
-22.5181
-22.3794
-22.2477
-22.1232
-22.0065
-21.898
-21.7984
-21.7084
-21.6288
-21.5607
-21.5051
-21.463
-21.4358
-21.4246
-21.4308
-21.4556
-21.5005
-21.5667
-21.6555
-21.7681
-21.9055
-22.0684
-22.257
-22.4711
-22.7094
-22.9701
-23.2498
-23.5442
-23.8476
-24.1534
-24.4541
-24.7422
-25.01
-25.251
-25.4595
-25.6309
-25.762
-25.8504
-25.895
-26.5499
-26.5185
-26.4569
-26.3672
-26.2525
-26.1162
-25.9619
-25.7929
-25.6126
-25.4236
-25.2285
-25.0292
-24.8277
-24.6257
-24.4245
-24.2254
-24.0296
-23.838
-23.6513
-23.4698
-23.294
-23.124
-22.9598
-22.8016
-22.6495
-22.5037
-22.3643
-22.2318
-22.1063
-21.9884
-21.8786
-21.7774
-21.6855
-21.6039
-21.5336
-21.4755
-21.431
-21.4011
-21.3872
-21.3905
-21.4126
-21.4547
-21.5183
-21.6049
-21.7156
-21.8519
-22.0146
-22.2044
-22.4212
-22.6643
-22.932
-23.2211
-23.5271
-23.8441
-24.1649
-24.481
-24.784
-25.0656
-25.3185
-25.5364
-25.7151
-25.8512
-25.9429
-25.9889
-26.6283
-26.5944
-26.5279
-26.4317
-26.3092
-26.1646
-26.0019
-25.8251
-25.6375
-25.4421
-25.2412
-25.0368
-24.8308
-24.6247
-24.42
-24.218
-24.0197
-23.8262
-23.638
-23.4555
-23.2789
-23.1083
-22.9437
-22.785
-22.6323
-22.4858
-22.3456
-22.2121
-22.0854
-21.9661
-21.8545
-21.7513
-21.6572
-21.573
-21.4999
-21.4388
-21.391
-21.3578
-21.3404
-21.3402
-21.3587
-21.3973
-21.4576
-21.5411
-21.6494
-21.7839
-21.9461
-22.1369
-22.3569
-22.6057
-22.882
-23.1829
-23.5039
-23.8385
-24.1787
-24.515
-24.8376
-25.137
-25.4049
-25.6349
-25.8225
-25.9647
-26.0601
-26.1079
-26.7229
-26.6857
-26.6131
-26.5084
-26.3762
-26.2213
-26.0484
-25.8621
-25.666
-25.4629
-25.2553
-25.045
-24.8338
-24.6231
-24.4142
-24.2087
-24.0076
-23.8118
-23.622
-23.4384
-23.2611
-23.09
-22.9249
-22.7657
-22.6124
-22.4651
-22.3239
-22.1892
-22.0612
-21.9402
-21.8267
-21.7211
-21.6243
-21.5371
-21.4606
-21.3959
-21.3444
-21.3072
-21.2857
-21.2813
-21.2956
-21.3299
-21.3861
-21.4657
-21.5707
-21.7029
-21.864
-22.0556
-22.2787
-22.5337
-22.8199
-23.1348
-23.4738
-23.83
-24.1942
-24.5555
-24.9023
-25.2234
-25.5095
-25.7536
-25.9513
-26.1003
-26.1997
-26.2493
-26.8331
-26.7917
-26.7114
-26.5965
-26.4523
-26.2849
-26.1001
-25.9027
-25.6968
-25.4852
-25.2702
-25.0535
-24.8364
-24.6204
-24.407
-24.1975
-23.9931
-23.7949
-23.6033
-23.4187
-23.2407
-23.0692
-22.9037
-22.744
-22.5901
-22.4419
-22.2997
-22.1638
-22.0343
-21.9115
-21.7958
-21.6876
-21.5878
-21.4971
-21.4168
-21.348
-21.2921
-21.2504
-21.2243
-21.2152
-21.2245
-21.2539
-21.3052
-21.3803
-21.4812
-21.6102
-21.7694
-21.9611
-22.1871
-22.4485
-22.7455
-23.076
-23.4359
-23.8176
-24.2105
-24.6019
-24.9777
-25.3246
-25.6317
-25.8917
-26.1003
-26.2562
-26.3595
-26.4108
-26.9583
-26.912
-26.8223
-26.6947
-26.5363
-26.3543
-26.1556
-25.9457
-25.729
-25.5083
-25.2854
-25.0617
-24.8383
-24.6167
-24.3982
-24.1842
-23.9763
-23.7755
-23.5822
-23.3966
-23.2182
-23.0464
-22.8807
-22.7206
-22.566
-22.4169
-22.2736
-22.1363
-22.0053
-21.8806
-21.7626
-21.6516
-21.5484
-21.4539
-21.3693
-21.296
-21.2353
-21.1887
-21.1574
-21.143
-21.1468
-21.1707
-21.2164
-21.286
-21.382
-21.5069
-21.6633
-21.8542
-22.0823
-22.3499
-22.658
-23.0058
-23.3892
-23.8003
-24.227
-24.6539
-25.0637
-25.4404
-25.7713
-26.0484
-26.2683
-26.4307
-26.5374
-26.5901
-27.0986
-27.0461
-26.945
-26.8023
-26.627
-26.428
-26.2135
-25.9899
-25.7616
-25.5313
-25.3002
-25.0693
-24.8395
-24.6118
-24.3877
-24.1689
-23.9572
-23.7536
-23.5586
-23.3722
-23.1936
-23.0219
-22.8562
-22.6957
-22.5405
-22.3904
-22.246
-22.1074
-21.9747
-21.8482
-21.7277
-21.6137
-21.5068
-21.4081
-21.3189
-21.2406
-21.1748
-21.1228
-21.086
-21.0658
-21.0637
-21.0814
-21.1208
-21.1843
-21.2744
-21.3941
-21.5466
-21.7356
-21.9647
-22.2377
-22.5569
-22.9229
-23.3323
-23.7768
-24.2427
-24.711
-25.1606
-25.5715
-25.9286
-26.2236
-26.4542
-26.6223
-26.7314
-26.7849
-27.2539
-27.194
-27.0791
-26.9185
-26.7233
-26.5048
-26.2727
-26.0341
-25.7937
-25.5535
-25.3143
-25.0763
-24.8397
-24.6056
-24.3755
-24.1515
-23.9356
-23.7291
-23.5326
-23.3458
-23.1674
-22.9961
-22.8305
-22.6699
-22.5139
-22.3628
-22.2171
-22.0772
-21.9431
-21.8147
-21.6918
-21.5746
-21.4638
-21.3605
-21.2662
-21.1826
-21.1112
-21.0536
-21.011
-20.9847
-20.9762
-20.9872
-21.0197
-21.0762
-21.1595
-21.2729
-21.4203
-21.6058
-21.8346
-22.1117
-22.4414
-22.8262
-23.2637
-23.7459
-24.2567
-24.7733
-25.2689
-25.7185
-26.1041
-26.4171
-26.6573
-26.8293
-26.9393
-26.9928
-27.4246
-27.3556
-27.2243
-27.0423
-26.824
-26.5833
-26.3317
-26.0771
-25.8243
-25.5745
-25.3275
-25.0824
-24.839
-24.5981
-24.3616
-24.1319
-23.9115
-23.7021
-23.5042
-23.3173
-23.1397
-22.9693
-22.8042
-22.6434
-22.4867
-22.3345
-22.1874
-22.0462
-21.9107
-21.7805
-21.6552
-21.5348
-21.4198
-21.3117
-21.212
-21.1226
-21.0454
-20.9819
-20.9332
-20.9006
-20.8853
-20.8891
-20.9141
-20.9629
-21.0385
-21.1446
-21.2853
-21.4658
-21.6923
-21.9717
-22.3107
-22.7141
-23.1818
-23.7057
-24.2679
-24.8405
-25.3894
-25.8827
-26.2986
-26.6291
-26.8768
-27.0502
-27.1592
-27.2115
-27.6111
-27.5313
-27.3802
-27.1731
-26.9279
-26.6621
-26.3891
-26.1178
-25.8524
-25.5936
-25.3393
-25.0876
-24.8375
-24.5896
-24.346
-24.1099
-23.8846
-23.6723
-23.4734
-23.287
-23.1108
-22.9418
-22.7776
-22.6168
-22.4592
-22.3055
-22.1571
-22.0146
-21.8779
-21.7463
-21.6186
-21.4949
-21.3755
-21.2621
-21.1565
-21.0612
-20.9779
-20.9082
-20.8534
-20.8142
-20.792
-20.7882
-20.8051
-20.8455
-20.9125
-21.0101
-21.1427
-21.3164
-21.5384
-21.8177
-22.164
-22.5854
-23.0845
-23.6545
-24.2752
-24.9128
-25.5235
-26.0657
-26.5135
-26.8597
-27.1117
-27.2833
-27.3885
-27.4383
-27.8141
-27.7212
-27.5467
-27.3098
-27.0337
-26.7397
-26.4435
-26.1548
-25.8774
-25.6104
-25.3499
-25.0922
-24.8354
-24.5801
-24.3287
-24.0856
-23.855
-23.6396
-23.44
-23.2549
-23.0809
-22.9141
-22.7511
-22.5903
-22.4316
-22.2763
-22.1262
-21.9825
-21.8451
-21.7122
-21.5825
-21.4553
-21.3313
-21.2122
-21.1004
-20.9986
-20.9091
-20.8333
-20.7721
-20.7264
-20.697
-20.6853
-20.6936
-20.7249
-20.7826
-20.8706
-20.9937
-21.1585
-21.3735
-21.6498
-22.0005
-22.4382
-22.9697
-23.5898
-24.2771
-24.9903
-25.6727
-26.2699
-26.7502
-27.1094
-27.3613
-27.5267
-27.6251
-27.6706
-28.0343
-27.9258
-27.7234
-27.4517
-27.14
-26.8146
-26.4934
-26.1869
-25.8985
-25.6247
-25.3593
-25.0962
-24.8329
-24.5698
-24.3099
-24.0588
-23.8224
-23.6039
-23.404
-23.221
-23.0503
-22.8865
-22.7251
-22.5643
-22.4043
-22.2469
-22.0948
-21.9502
-21.8123
-21.6788
-21.5471
-21.4166
-21.2877
-21.1624
-21.0438
-20.9354
-20.8394
-20.7574
-20.6901
-20.6379
-20.6011
-20.5812
-20.5805
-20.6022
-20.6498
-20.7273
-20.8395
-20.9934
-21.1986
-21.4682
-21.8197
-22.2711
-22.8348
-23.5091
-24.2716
-25.0731
-25.8394
-26.498
-27.0108
-27.3784
-27.6243
-27.7784
-27.8662
-27.9057
-28.273
-28.1458
-27.9104
-27.5978
-27.2452
-26.8851
-26.5374
-26.2131
-25.9148
-25.6363
-25.3676
-25.1001
-24.8305
-24.5593
-24.2896
-24.0294
-23.7867
-23.565
-23.3653
-23.1854
-23.0192
-22.8594
-22.7
-22.5392
-22.3776
-22.2173
-22.0629
-21.9174
-21.7799
-21.6463
-21.513
-21.3791
-21.245
-21.113
-20.9871
-20.8717
-20.7692
-20.681
-20.6077
-20.5491
-20.5051
-20.4767
-20.4665
-20.4781
-20.5151
-20.5812
-20.6811
-20.8222
-21.0145
-21.2734
-21.621
-22.0824
-22.6774
-23.4092
-24.2563
-25.1614
-26.0266
-26.7537
-27.2974
-27.667
-27.8997
-28.0362
-28.1094
-28.1408
-28.5312
-28.3816
-28.1074
-27.7469
-27.3476
-26.9496
-26.5741
-26.232
-25.9257
-25.645
-25.3753
-25.1043
-24.8286
-24.5487
-24.2679
-23.9971
-23.7475
-23.5226
-23.3235
-23.1481
-22.9881
-22.8334
-22.6764
-22.5154
-22.3516
-22.1877
-22.0302
-21.8843
-21.7479
-21.6151
-21.4806
-21.3432
-21.2038
-21.0643
-20.9304
-20.8077
-20.6987
-20.6045
-20.5255
-20.4609
-20.4096
-20.3725
-20.3523
-20.3534
-20.3794
-20.4335
-20.52
-20.6464
-20.8229
-21.0661
-21.4041
-21.8704
-22.4947
-23.2865
-24.228
-25.2552
-26.2381
-27.0414
-27.6125
-27.9754
-28.1857
-28.2977
-28.3518
-28.3731
-28.8104
-28.6339
-28.3145
-27.8979
-27.4453
-27.0066
-26.6019
-26.2424
-25.9306
-25.6509
-25.3829
-25.1094
-24.8277
-24.5389
-24.245
-23.9617
-23.7047
-23.4765
-23.2784
-23.109
-22.9571
-22.8091
-22.6546
-22.4932
-22.3269
-22.158
-21.9965
-21.8506
-21.7165
-21.5856
-21.4502
-21.3093
-21.1643
-21.0165
-20.8737
-20.7436
-20.6281
-20.528
-20.4438
-20.3735
-20.3152
-20.2691
-20.2386
-20.2287
-20.2435
-20.2853
-20.3573
-20.4674
-20.6251
-20.8474
-21.1689
-21.6337
-22.2839
-23.137
-24.1826
-25.3545
-26.479
-27.3665
-27.9587
-28.3032
-28.4805
-28.5604
-28.5909
-28.5998
-29.1122
-28.9035
-28.5316
-28.0495
-27.536
-27.0543
-26.6197
-26.243
-25.929
-25.6543
-25.3912
-25.1158
-24.8282
-24.5304
-24.2211
-23.9227
-23.6581
-23.4265
-23.2297
-23.0683
-22.9266
-22.787
-22.6352
-22.4729
-22.3037
-22.128
-21.9612
-21.816
-21.6858
-21.5584
-21.4221
-21.2777
-21.1271
-20.9698
-20.8169
-20.6795
-20.5575
-20.4516
-20.3629
-20.2876
-20.2225
-20.1671
-20.1257
-20.1046
-20.1082
-20.1375
-20.1942
-20.2869
-20.4231
-20.6187
-20.9158
-21.3707
-22.0423
-22.9561
-24.1144
-25.4588
-26.756
-27.7356
-28.3385
-28.6498
-28.7818
-28.8215
-28.8238
-28.8185
-29.4385
-29.1907
-28.7592
-28.2002
-27.617
-27.0915
-26.6262
-26.2323
-25.9203
-25.6555
-25.4014
-25.1242
-24.8304
-24.5244
-24.1962
-23.8792
-23.6075
-23.3725
-23.1767
-23.0257
-22.8971
-22.7681
-22.6185
-22.4548
-22.2826
-22.0979
-21.9235
-21.7801
-21.656
-21.5339
-21.3968
-21.2486
-21.0927
-20.9244
-20.7599
-20.6153
-20.4871
-20.3755
-20.2832
-20.2036
-20.1322
-20.067
-20.0142
-19.9815
-19.9743
-19.9912
-20.0316
-20.1063
-20.2193
-20.3816
-20.6452
-21.0802
-21.7675
-22.7391
-24.0158
-25.5672
-27.0779
-28.1563
-28.7544
-29.0136
-29.0865
-29.078
-29.0479
-29.0267
-29.7913
-29.4957
-28.9978
-28.3483
-27.6851
-27.1172
-26.6207
-26.2086
-25.9042
-25.6549
-25.4148
-25.135
-24.8346
-24.5223
-24.1705
-23.8303
-23.5531
-23.3143
-23.1186
-22.9813
-22.869
-22.7534
-22.6048
-22.4388
-22.2645
-22.0673
-21.8824
-21.7427
-21.6271
-21.5129
-21.3743
-21.2221
-21.0618
-20.8803
-20.7021
-20.5513
-20.4169
-20.2996
-20.2048
-20.1219
-20.0447
-19.9693
-19.9041
-19.8596
-19.8421
-19.8474
-19.8705
-19.9272
-20.0162
-20.1381
-20.3581
-20.7607
-21.4579
-22.4813
-23.8765
-25.6776
-27.4569
-28.6377
-29.208
-29.3924
-29.3915
-29.3268
-29.2609
-29.2224
-30.1733
-29.8179
-29.2488
-28.4921
-27.736
-27.1309
-26.6027
-26.1697
-25.8805
-25.6529
-25.4337
-25.1484
-24.8404
-24.5262
-24.1441
-23.774
-23.4952
-23.2521
-23.0543
-22.9351
-22.8425
-22.7443
-22.5943
-22.4248
-22.2506
-22.0362
-21.8362
-21.7033
-21.5993
-21.4964
-21.3549
-21.198
-21.0355
-20.8377
-20.6426
-20.4876
-20.3473
-20.2237
-20.128
-20.0428
-19.9608
-19.8743
-19.7958
-19.7389
-19.7123
-19.7072
-19.7114
-19.7511
-19.8169
-19.8903
-20.056
-20.4108
-21.1127
-22.1788
-23.6823
-25.7865
-27.9091
-29.1901
-29.6999
-29.7826
-29.6928
-29.5651
-29.4604
-29.4037
-30.5875
-30.1556
-29.5147
-28.6296
-27.7639
-27.1334
-26.5723
-26.1127
-25.8494
-25.6498
-25.4607
-25.1643
-24.8469
-24.5391
-24.1173
-23.7076
-23.4349
-23.1863
-22.9821
-22.8872
-22.818
-22.7427
-22.587
-22.4121
-22.2428
-22.0045
-21.7829
-21.6616
-21.5726
-21.4859
-21.3384
-21.1756
-21.0151
-20.7965
-20.5803
-20.4246
-20.2784
-20.1471
-20.0532
-19.9668
-19.8812
-19.7823
-19.6892
-19.6193
-19.5852
-19.5717
-19.5543
-19.5791
-19.6251
-19.6407
-19.741
-20.0283
-20.7322
-21.8292
-23.4141
-25.8884
-28.4572
-29.8244
-30.2294
-30.1798
-29.9864
-29.7898
-29.6446
-29.5694
-31.038
-30.5051
-29.7997
-28.7586
-27.7612
-27.127
-26.5304
-26.0336
-25.8116
-25.6455
-25.5001
-25.1822
-24.8519
-24.5658
-24.0901
-23.627
-23.3742
-23.1178
-22.8992
-22.8381
-22.7953
-22.7512
-22.5825
-22.3992
-22.244
-21.972
-21.7193
-21.6177
-21.5468
-21.4836
-21.3246
-21.154
-21.003
-20.7568
-20.5131
-20.3631
-20.2107
-20.0693
-19.9806
-19.8941
-19.8067
-19.6936
-19.5843
-19.5005
-19.461
-19.4427
-19.3988
-19.4119
-19.4455
-19.3911
-19.416
-19.6101
-20.3186
-21.4332
-23.0462
-25.974
-29.1322
-30.5522
-30.7932
-30.5778
-30.2676
-29.9983
-29.812
-29.7183
-31.5302
-30.8593
-30.1107
-28.877
-27.7169
-27.1163
-26.4788
-25.9263
-25.769
-25.639
-25.5574
-25.2008
-24.8517
-24.6131
-24.0627
-23.5258
-23.3164
-23.048
-22.8019
-22.789
-22.7738
-22.7736
-22.5798
-22.3838
-22.2584
-21.9388
-21.6412
-21.5721
-21.5212
-21.4923
-21.3127
-21.1311
-21.0022
-20.7185
-20.4381
-20.3046
-20.1445
-19.9888
-19.9109
-19.8246
-19.7383
-19.6084
-19.4811
-19.3817
-19.3399
-19.3222
-19.2436
-19.2496
-19.2837
-19.1434
-19.0857
-19.1509
-19.8762
-20.9968
-22.5434
-26.0298
-29.9772
-31.384
-31.3852
-30.9696
-30.5319
-30.1882
-29.9614
-29.8499
-32.0716
-31.2066
-30.4591
-28.9825
-27.6159
-27.1098
-26.4204
-25.7822
-25.7252
-25.6277
-25.6411
-25.2179
-24.84
-24.6909
-24.035
-23.3947
-23.2672
-22.9787
-22.6844
-22.7423
-22.7517
-22.8153
-22.5775
-22.3616
-22.2926
-21.9046
-21.5426
-21.5266
-21.4944
-21.5164
-21.3017
-21.1038
-21.0176
-20.6816
-20.3511
-20.2514
-20.0809
-19.9036
-19.8451
-19.7581
-19.6776
-19.5266
-19.3795
-19.2621
-19.2215
-19.2133
-19.0862
-19.0915
-19.1472
-18.8977
-18.7565
-18.6424
-19.4112
-20.534
-21.8591
-26.0349
-31.0518
-32.3276
-31.9956
-31.3468
-30.7748
-30.3575
-30.0921
-29.964
-32.6724
-31.528
-30.8622
-29.0728
-27.4369
-27.1209
-26.3595
-25.5887
-25.687
-25.6064
-25.763
-25.2299
-24.807
-24.8138
-24.0071
-23.2201
-23.2355
-22.913
-22.5383
-22.7023
-22.7255
-22.8841
-22.5733
-22.3264
-22.3558
-21.8695
-21.4152
-21.4847
-21.4638
-21.5622
-21.2896
-21.067
-21.0563
-20.6458
-20.2457
-20.2072
-20.0206
-19.8108
-19.7849
-19.694
-19.6262
-19.448
-19.2794
-19.1403
-19.1051
-19.1205
-18.9231
-18.9354
-19.0458
-18.6524
-18.4389
-18.0712
-18.9322
-20.0713
-20.9312
-25.9595
-32.4384
-33.3852
-32.6103
-31.7002
-30.9922
-30.5047
-30.2038
-30.0607
-33.3476
-31.7938
-31.346
-29.1456
-27.1499
-27.1702
-26.302
-25.3273
-25.666
-25.5654
-25.9399
-25.2318
-24.7379
-25.0026
-23.9786
-22.983
-23.2347
-22.8548
-22.3515
-22.6763
-22.6887
-22.9911
-22.5638
-22.2686
-22.4613
-21.8331
-21.2475
-21.4524
-21.4242
-21.6385
-21.2737
-21.0133
-21.1283
-20.6107
-20.1132
-20.1778
-19.9649
-19.7059
-19.7329
-19.6306
-19.5867
-19.372
-19.1811
-19.0148
-18.9894
-19.0503
-18.7486
-18.7777
-18.993
-18.402
-18.1483
-17.417
-18.4493
-19.6522
-19.678
-25.7604
-34.2497
-34.5488
-33.2104
-32.0206
-31.1807
-30.629
-30.2967
-30.1405
-34.1181
-31.9599
-31.9492
-29.1988
-26.7138
-27.2882
-26.2553
-24.9721
-25.6808
-25.4882
-26.1958
-25.2165
-24.6112
-25.2863
-23.9491
-22.6562
-23.2844
-22.809
-22.1065
-22.6765
-22.6306
-23.1519
-22.5443
-22.1742
-22.628
-21.7949
-21.0238
-21.4404
-21.3671
-21.7582
-21.2503
-20.932
-21.2479
-20.5755
-19.9414
-20.172
-19.9154
-19.5827
-19.6935
-19.5653
-19.5626
-19.2975
-19.085
-18.8834
-18.8718
-19.0122
-18.5553
-18.6119
-19.007
-18.1356
-17.9083
-16.6499
-17.9734
-19.3446
-17.9934
-25.3773
-36.6388
-35.7944
-33.7729
-32.2989
-31.3377
-30.7301
-30.3713
-30.2042
-35.0135
-31.9619
-32.7267
-29.23
-26.0724
-27.5185
-26.2288
-24.4862
-25.7606
-25.3486
-26.5641
-25.1745
-24.3962
-25.7052
-23.9176
-22.2029
-23.4127
-22.7819
-21.7792
-22.7218
-22.5339
-23.3887
-22.5083
-22.0238
-22.8818
-21.7539
-20.723
-21.4648
-21.279
-21.9387
-21.2143
-20.808
-21.4348
-20.539
-19.7139
-20.202
-19.8736
-19.4323
-19.6731
-19.4937
-19.5587
-19.2222
-18.9923
-18.7437
-18.7482
-19.0195
-18.3327
-18.4285
-19.1131
-17.8338
-17.7539
-15.7267
-17.5146
-19.2486
-15.7412
-24.7268
-39.8116
-37.0737
-34.2709
-32.5272
-31.4618
-30.8084
-30.4283
-30.2527
-36.0746
-31.7086
-33.7557
-29.237
-25.1501
-27.9216
-26.2337
-23.8192
-25.9495
-25.1062
-27.0909
-25.0933
-24.0509
-26.3133
-23.8827
-21.5733
-23.6587
-22.7811
-21.336
-22.8411
-22.3721
-23.7317
-22.4476
-21.79
-23.2576
-21.7083
-20.3168
-21.5506
-21.1387
-22.2045
-21.1588
-20.6204
-21.7155
-20.4996
-19.4082
-20.2854
-19.8412
-19.2427
-19.6816
-19.4087
-19.5818
-19.1431
-18.9048
-18.5931
-18.6122
-19.0905
-18.0672
-18.2136
-19.3461
-17.465
-17.7362
-14.5879
-17.0792
-19.5068
-12.7485
-23.696
-44.0414
-38.3037
-34.6762
-32.6999
-31.5524
-30.8646
-30.469
-30.2871
-37.3573
-31.0739
-35.1422
-29.2171
-23.8474
-28.5801
-26.2828
-22.9025
-26.3118
-24.7014
-27.8386
-24.957
-23.5181
-27.1826
-23.8419
-20.7017
-24.0756
-22.8154
-20.7316
-23.0764
-22.1061
-24.2222
-22.3514
-21.4362
-23.8019
-21.6552
-19.7676
-21.734
-20.9148
-22.5886
-21.0752
-20.3411
-22.1259
-20.4543
-18.9952
-20.446
-19.8197
-18.9977
-19.7331
-19.3
-19.6412
-19.0551
-18.8255
-18.4287
-18.4539
-19.2504
-17.7415
-17.9476
-19.7535
-16.9805
-17.9281
-13.1528
-16.6668
-20.3154
-8.79928
-22.134
-49.6868
-39.353
-34.9623
-32.8137
-31.6106
-30.9002
-30.4944
-30.3086
-38.9366
-29.8872
-37.0284
-29.1669
-22.0349
-29.604
-26.3907
-21.6452
-26.9394
-24.0487
-28.8915
-24.7459
-22.7226
-28.4069
-23.7917
-19.5027
-24.7339
-22.8942
-19.9046
-23.486
-21.6782
-24.9138
-22.2055
-20.9141
-24.5759
-21.5899
-19.0253
-22.064
-20.5602
-23.1336
-20.9508
-19.9325
-22.712
-20.399
-18.437
-20.716
-19.8101
-18.6762
-19.8481
-19.1531
-19.7503
-18.9512
-18.7591
-18.2478
-18.2595
-19.5327
-17.334
-17.6039
-20.4002
-16.3095
-18.4323
-11.3155
-16.2655
-21.9379
-3.62701
-19.8431
-57.2119
-40.0265
-35.1099
-32.8694
-31.6386
-30.9173
-30.5066
-30.319
)
;

boundaryField
{
    left
    {
        type            calculated;
        value           nonuniform List<scalar> 
32
(
-26.4236
-26.446
-26.4887
-26.5499
-26.6283
-26.7229
-26.8331
-26.9583
-27.0986
-27.2539
-27.4246
-27.6111
-27.8141
-28.0343
-28.273
-28.5312
-28.8104
-29.1122
-29.4385
-29.7913
-30.1733
-30.5875
-31.038
-31.5302
-32.0716
-32.6724
-33.3476
-34.1181
-35.0135
-36.0746
-37.3573
-38.9366
)
;
    }
    right
    {
        type            calculated;
        value           nonuniform List<scalar> 
32
(
-25.7944
-25.829
-25.895
-25.9889
-26.1079
-26.2493
-26.4108
-26.5901
-26.7849
-26.9928
-27.2115
-27.4383
-27.6706
-27.9057
-28.1408
-28.3731
-28.5998
-28.8185
-29.0267
-29.2224
-29.4037
-29.5694
-29.7183
-29.8499
-29.964
-30.0607
-30.1405
-30.2042
-30.2527
-30.2871
-30.3086
-30.319
)
;
    }
    interface
    {
        type            calculated;
        value           nonuniform List<scalar> 
64
(
-39.8111
-29.1314
-38.1168
-29.1338
-20.9832
-30.223
-26.4614
-20.9185
-27.333
-23.648
-29.5062
-24.6189
-22.2484
-29.121
-23.7638
-18.8093
-25.1334
-22.9459
-19.4264
-23.7428
-21.4152
-25.3175
-22.118
-20.6041
-25.029
-21.5535
-18.5986
-22.2727
-20.343
-23.452
-20.8765
-19.6906
-23.0555
-20.3682
-18.1162
-20.8828
-19.8084
-18.4935
-19.9245
-19.068
-19.8193
-18.8943
-18.7298
-18.1528
-18.1512
-19.7093
-17.1068
-17.4089
-20.7927
-15.9169
-18.7774
-10.2815
-16.0652
-22.9903
-0.69847
-18.4876
-61.5098
-40.2403
-35.1474
-32.8831
-31.6456
-30.9215
-30.5097
-30.3217
)
;
    }
    bottom
    {
        type            calculated;
        value           nonuniform List<scalar> 
64
(
-26.4178
-26.3904
-26.3363
-26.2571
-26.1549
-26.032
-25.8914
-25.7357
-25.5677
-25.39
-25.2049
-25.0147
-24.8212
-24.6262
-24.4311
-24.2373
-24.0459
-23.8577
-23.6737
-23.4942
-23.3199
-23.151
-22.9879
-22.8307
-22.6797
-22.5352
-22.3974
-22.2667
-22.1434
-22.028
-21.9212
-21.8235
-21.7356
-21.6585
-21.593
-21.5401
-21.5011
-21.477
-21.469
-21.4784
-21.5065
-21.5545
-21.6236
-21.715
-21.8295
-21.968
-22.1308
-22.3178
-22.5283
-22.7609
-23.0131
-23.2819
-23.5628
-23.8506
-24.1394
-24.4227
-24.6937
-24.9459
-25.1732
-25.3705
-25.5332
-25.6581
-25.7427
-25.7853
)
;
    }
    defaultFaces
    {
        type            empty;
    }
}


// ************************************************************************* //
