/*--------------------------------*- C++ -*----------------------------------*\
| =========                 |                                                 |
| \\      /  F ield         | OpenFOAM: The Open Source CFD Toolbox           |
|  \\    /   O peration     | Version:  5.x                                   |
|   \\  /    A nd           | Web:      www.OpenFOAM.org                      |
|    \\/     M anipulation  |                                                 |
\*---------------------------------------------------------------------------*/
FoamFile
{
    version     2.0;
    format      ascii;
    class       volScalarField;
    location    "18.4";
    object      gradTx;
}
// * * * * * * * * * * * * * * * * * * * * * * * * * * * * * * * * * * * * * //

dimensions      [0 -1 0 1 0 0 0];

internalField   nonuniform List<scalar> 
2048
(
0.00630502
0.0187344
0.0306387
0.0417201
0.0517497
0.0605782
0.0681352
0.0744184
0.0794776
0.0833956
0.0862722
0.0882118
0.0893161
0.0896823
0.0894025
0.0885661
0.0872599
0.0855673
0.0835661
0.081325
0.0788996
0.0763306
0.0736429
0.0708466
0.0679395
0.0649095
0.0617371
0.0583966
0.0548572
0.0510831
0.0470338
0.0426658
0.0379339
0.0327935
0.0272028
0.021124
0.0145251
0.0073798
-0.00033141
-0.00862021
-0.0174881
-0.0269229
-0.036893
-0.0473412
-0.0581759
-0.0692623
-0.0804133
-0.0913817
-0.101856
-0.111464
-0.119782
-0.12636
-0.130754
-0.13257
-0.131512
-0.127416
-0.120277
-0.110248
-0.0976157
-0.0827652
-0.0661298
-0.0481504
-0.029247
-0.00980742
0.0187886
0.0558182
0.0912567
0.124206
0.153979
0.180137
0.202479
0.221013
0.235901
0.247401
0.255819
0.261468
0.264653
0.265659
0.264758
0.262214
0.258283
0.253215
0.247242
0.240571
0.233367
0.225752
0.217798
0.209533
0.200949
0.192008
0.18265
0.1728
0.162367
0.151243
0.139308
0.126433
0.112481
0.097319
0.0808222
0.0628785
0.043392
0.0222848
-0.000501942
-0.0250046
-0.0512307
-0.0791483
-0.10867
-0.139634
-0.171775
-0.204704
-0.237874
-0.270557
-0.301831
-0.330585
-0.355548
-0.37536
-0.388674
-0.394291
-0.391297
-0.379194
-0.357963
-0.328074
-0.290413
-0.246152
-0.196609
-0.14311
-0.0869054
-0.0291383
0.0311404
0.0924835
0.151107
0.205486
0.254473
0.297353
0.333828
0.363955
0.388045
0.406565
0.420044
0.429012
0.433969
0.435381
0.433688
0.429315
0.422687
0.414214
0.404289
0.393254
0.38139
0.368894
0.355883
0.342396
0.328411
0.313862
0.298648
0.282643
0.265697
0.247635
0.228259
0.20735
0.184682
0.160032
0.133191
0.103974
0.0722225
0.0378084
0.000632957
-0.0393687
-0.082218
-0.127876
-0.176218
-0.226998
-0.279811
-0.334041
-0.388816
-0.442961
-0.494967
-0.54299
-0.5849
-0.618386
-0.641138
-0.651077
-0.646612
-0.626863
-0.591802
-0.542254
-0.47977
-0.40639
-0.324374
-0.235962
-0.143224
-0.0480093
0.0436001
0.129426
0.211275
0.28694
0.354797
0.413873
0.463824
0.50482
0.537388
0.562255
0.580207
0.592001
0.598333
0.599829
0.597082
0.59067
0.581175
0.569178
0.555234
0.539835
0.523376
0.506133
0.488258
0.469792
0.45069
0.430847
0.410119
0.388332
0.365279
0.340721
0.314379
0.285946
0.255098
0.221519
0.184914
0.145025
0.101634
0.0545632
0.00367318
-0.0511348
-0.109907
-0.172616
-0.239124
-0.309136
-0.382141
-0.457344
-0.533593
-0.609305
-0.682411
-0.750335
-0.810047
-0.858207
-0.891422
-0.906596
-0.901331
-0.874293
-0.825434
-0.756014
-0.668382
-0.565593
-0.450974
-0.327745
-0.198793
-0.0666109
0.0563835
0.167269
0.272722
0.369771
0.456286
0.531068
0.593798
0.644854
0.685071
0.71551
0.737259
0.751318
0.758565
0.75977
0.755649
0.746917
0.734314
0.718596
0.700498
0.680674
0.659647
0.637769
0.615217
0.592019
0.568089
0.543275
0.517385
0.490198
0.46146
0.430865
0.398056
0.362631
0.324161
0.28223
0.236452
0.186496
0.132087
0.0730012
0.00905871
-0.0598784
-0.133895
-0.212997
-0.297064
-0.385789
-0.478605
-0.574592
-0.672377
-0.770023
-0.864935
-0.953805
-1.03265
-1.09699
-1.14217
-1.16387
-1.15868
-1.1247
-1.06185
-0.971945
-0.858331
-0.725316
-0.577483
-0.419135
-0.253975
-0.0850563
0.0696955
0.2066
0.336342
0.455073
0.560122
0.650109
0.724841
0.785032
0.831951
0.867089
0.891889
0.907608
0.915285
0.915795
0.909947
0.89857
0.882557
0.862856
0.840406
0.816051
0.790451
0.764037
0.736998
0.709323
0.680866
0.651409
0.62071
0.588508
0.554507
0.518347
0.479588
0.437722
0.392207
0.34251
0.288152
0.228729
0.163913
0.0934421
0.0170978
-0.0653014
-0.153893
-0.24874
-0.349774
-0.456723
-0.569015
-0.685673
-0.805172
-0.925294
-1.04297
-1.15417
-1.25392
-1.33642
-1.39553
-1.42543
-1.42143
-1.38086
-1.30359
-1.19214
-1.05119
-0.886625
-0.704542
-0.510467
-0.308918
-0.103385
0.0837402
0.247997
0.403003
0.543881
0.667382
0.772012
0.857843
0.926097
0.978639
1.01751
1.04456
1.06132
1.06894
1.06836
1.06042
1.04604
1.02627
1.00226
0.975204
0.946164
0.915966
0.885114
0.85379
0.821911
0.789238
0.755471
0.720311
0.683469
0.644627
0.603377
0.559197
0.51146
0.459488
0.40262
0.340271
0.271967
0.197339
0.116096
0.0279881
-0.0672115
-0.169708
-0.279648
-0.397051
-0.521728
-0.653163
-0.790393
-0.931831
-1.07507
-1.21664
-1.35184
-1.47462
-1.57774
-1.65327
-1.69349
-1.69204
-1.64522
-1.55282
-1.41832
-1.24811
-1.05014
-0.832387
-0.601757
-0.363565
-0.121568
0.0987292
0.292059
0.473582
0.63721
0.779077
0.897674
0.99353
1.06859
1.12553
1.16706
1.19553
1.21272
1.21984
1.21781
1.20743
1.18967
1.16574
1.13704
1.10506
1.07115
1.03631
1.00112
0.965741
0.929959
0.893401
0.855656
0.816369
0.775246
0.731969
0.686106
0.637045
0.584022
0.526196
0.462752
0.392992
0.316374
0.232503
0.141078
0.0418325
-0.0655085
-0.181231
-0.305593
-0.438743
-0.58062
-0.730828
-0.888497
-1.05208
-1.21909
-1.3858
-1.54687
-1.69518
-1.82185
-1.91682
-1.96997
-1.97276
-1.92006
-1.81151
-1.65187
-1.44985
-1.21608
-0.960867
-0.692712
-0.417662
-0.139506
0.114888
0.339415
0.548988
0.736082
0.89618
1.0279
1.13248
1.21288
1.2728
1.31584
1.3449
1.36195
1.3682
1.36441
1.35128
1.32975
1.30121
1.26738
1.2301
1.19107
1.15153
1.11215
1.07297
1.03362
0.993532
0.95214
0.909039
0.86396
0.816636
0.766631
0.713242
0.655535
0.59247
0.523048
0.446439
0.362046
0.269471
0.168428
0.058652
-0.0601728
-0.188429
-0.326516
-0.474752
-0.633251
-0.801797
-0.979695
-1.16555
-1.35696
-1.55005
-1.73902
-1.91566
-2.0693
-2.18733
-2.25663
-2.26575
-2.20758
-2.08149
-1.89394
-1.65681
-1.38424
-1.08945
-0.782739
-0.470766
-0.157037
0.132464
0.390746
0.630187
0.841548
1.01964
1.16341
1.27513
1.35913
1.42046
1.46378
1.49258
1.50902
1.51413
1.50838
1.49222
1.46655
1.43291
1.39341
1.35038
1.30595
1.26166
1.21824
1.17558
1.13306
1.08981
1.0451
0.998457
0.949703
0.898685
0.845003
0.787851
0.726088
0.658417
0.583613
0.500698
0.409031
0.308246
0.198113
0.078396
-0.0512558
-0.191336
-0.342419
-0.505035
-0.679518
-0.86588
-1.06368
-1.27182
-1.48811
-1.70879
-1.92775
-2.1358
-2.32033
-2.46573
-2.55509
-2.57314
-2.50998
-2.36452
-2.14548
-1.86905
-1.55402
-1.21724
-0.870955
-0.522259
-0.173941
0.151727
0.446801
0.718221
0.954706
1.15039
1.30484
1.42179
1.50737
1.56832
1.61061
1.63839
1.65385
1.65769
1.6499
1.63052
1.6003
1.56101
1.51524
1.46592
1.41576
1.36665
1.3194
1.27366
1.22841
1.18242
1.1347
1.08475
1.03253
0.978132
0.92123
0.860904
0.795739
0.724119
0.644529
0.555821
0.457333
0.348783
0.230046
0.100951
-0.0388718
-0.190045
-0.353362
-0.529605
-0.719366
-0.922929
-1.14018
-1.37041
-1.6119
-1.86122
-2.11225
-2.35502
-2.57486
-2.75268
-2.86687
-2.89711
-2.82961
-2.66237
-2.40725
-2.08629
-1.72443
-1.34295
-0.956205
-0.571359
-0.189945
0.172982
0.508404
0.814219
1.07671
1.28937
1.45276
1.57265
1.65745
1.71603
1.75592
1.78198
1.79627
1.7989
1.78915
1.76644
1.73127
1.68569
1.63294
1.5767
1.5204
1.46643
1.41562
1.36728
1.31984
1.27157
1.22114
1.16802
1.11248
1.05495
0.99528
0.932398
0.864528
0.789642
0.705865
0.611841
0.506926
0.390992
0.264085
0.126148
-0.0231904
-0.184704
-0.359454
-0.548529
-0.752804
-0.972854
-1.20894
-1.46089
-1.72764
-2.00641
-2.29148
-2.5724
-2.83246
-3.04859
-3.19341
-3.23998
-3.16899
-2.97692
-2.67983
-2.30786
-1.89401
-1.46495
-1.03709
-0.617152
-0.204733
0.196567
0.576468
0.919415
1.2088
1.4375
1.60767
1.72777
1.80907
1.86307
1.89916
1.92293
1.93607
1.93777
1.92632
1.90027
1.85974
1.80714
1.74656
1.68265
1.61974
1.56087
1.50686
1.45653
1.40753
1.35748
1.30463
1.24841
1.18955
1.12907
1.06709
1.00231
0.932477
0.85505
0.767686
0.668779
0.557757
0.43475
0.300047
0.153769
-0.00442933
-0.175502
-0.360849
-0.561924
-0.779902
-1.01563
-1.26979
-1.54284
-1.83459
-2.1433
-2.46416
-2.78672
-3.09239
-3.35361
-3.53605
-3.60421
-3.53096
-3.31019
-2.96366
-2.53269
-2.06089
-1.58124
-1.11198
-0.658617
-0.217962
0.222862
0.652006
1.03516
1.35227
1.5957
1.76997
1.88708
1.96177
2.00873
2.03962
2.06071
2.07299
2.07429
2.06161
2.03234
1.986
1.92554
1.85616
1.78367
1.71361
1.64979
1.59308
1.54149
1.49167
1.44043
1.38543
1.32603
1.2637
1.20037
1.13654
1.07059
0.999603
0.920406
0.830069
0.726653
0.609756
0.479901
0.33771
0.183553
0.0171525
-0.162666
-0.357735
-0.569952
-0.800793
-1.05133
-1.32263
-1.61592
-1.93206
-2.27077
-2.6288
-2.99644
-3.35352
-3.66757
-3.89602
-3.99249
-3.91883
-3.66446
-3.25895
-2.75922
-2.22269
-1.6895
-1.17909
-0.694676
-0.229273
0.252294
0.736134
1.16292
1.50852
1.76487
1.93995
2.05039
2.11498
2.15219
2.17646
2.19476
2.20677
2.20845
2.19527
2.16305
2.11039
2.04107
1.96178
1.87966
1.80174
1.73299
1.67421
1.62228
1.57251
1.52073
1.46382
1.40102
1.33486
1.26869
1.20351
1.13719
1.06592
0.985784
0.893106
0.785482
0.662831
0.526267
0.376821
0.215201
0.0412606
-0.146447
-0.350322
-0.572812
-0.815676
-1.0801
-1.36748
-1.67988
-2.01944
-2.38766
-2.78375
-3.19973
-3.61436
-3.98994
-4.27437
-4.4078
-4.33646
-4.04231
-3.56568
-2.98538
-2.37655
-1.78713
-1.23656
-0.724241
-0.238318
0.285345
0.830074
1.30429
1.67903
1.94587
2.11778
2.21741
2.26795
2.29242
2.30874
2.32442
2.33714
2.34026
2.3276
2.29287
2.23328
2.1539
2.06344
1.97045
1.88386
1.81019
1.75016
1.69903
1.65028
1.59873
1.54019
1.47352
1.40292
1.33379
1.26781
1.20204
1.13142
1.05127
0.956921
0.845291
0.716875
0.573652
0.4171
0.248378
0.0675703
-0.127114
-0.33883
-0.57073
-0.824809
-1.10218
-1.40445
-1.73463
-2.09622
-2.49285
-2.92723
-3.39443
-3.87303
-4.31976
-4.67188
-4.85336
-4.78852
-4.44678
-3.88353
-3.20838
-2.5191
-1.87131
-1.28246
-0.746271
-0.24477
0.322564
0.935154
1.46099
1.86543
2.13947
2.30347
2.38773
2.41987
2.42829
2.43536
2.44906
2.46387
2.46972
2.45891
2.42239
2.35508
2.2642
2.1612
2.05588
1.9596
1.88107
1.82087
1.77191
1.72526
1.67484
1.61497
1.5437
1.46768
1.39535
1.32926
1.2651
1.19612
1.11696
1.02168
0.906114
0.771756
0.621846
0.458249
0.282718
0.0957301
-0.104943
-0.323476
-0.563942
-0.828505
-1.11791
-1.43377
-1.78018
-2.16207
-2.58528
-3.05733
-3.57817
-4.12727
-4.65562
-5.08891
-5.33271
-5.28069
-4.88147
-4.21166
-3.42468
-2.64644
-1.93907
-1.31496
-0.759837
-0.248353
0.36459
1.05279
1.63484
2.06946
2.34636
2.4968
2.56092
2.56984
2.55849
2.55513
2.56802
2.58684
2.59681
2.58956
2.55234
2.47621
2.37207
2.25515
2.13579
2.0285
1.94521
1.88627
1.84115
1.79771
1.74948
1.68873
1.61176
1.52888
1.45299
1.38764
1.32635
1.26001
1.18296
1.08762
0.967993
0.827313
0.670639
0.499958
0.317821
0.125364
-0.080209
-0.304456
-0.552685
-0.827127
-1.12772
-1.45577
-1.81673
-2.21687
-2.66401
-3.1721
-3.74827
-4.3745
-4.99559
-5.52518
-5.84959
-5.81998
-5.35066
-4.54862
-3.6298
-2.75419
-1.98739
-1.33241
-0.764181
-0.248857
0.412188
1.18448
1.82775
2.29309
2.56707
2.69729
2.73651
2.71691
2.68154
2.66673
2.68071
2.70603
2.72146
2.71991
2.68364
2.59711
2.47753
2.34543
2.21003
2.09006
2.00216
1.9463
1.90705
1.86786
1.82312
1.76221
1.67791
1.58614
1.50621
1.44274
1.38584
1.32303
1.24939
1.15506
1.03097
0.883332
0.71983
0.541915
0.353254
0.156075
-0.0531802
-0.281931
-0.53718
-0.821079
-1.13214
-1.47086
-1.84459
-2.26077
-2.72827
-3.26953
-3.90189
-4.61184
-5.33724
-5.97946
-6.40787
-6.4152
-5.8595
-4.89196
-3.81814
-2.83756
-2.01338
-1.3334
-0.758768
-0.246155
0.466316
1.33175
2.04164
2.53858
2.80191
2.90406
2.91414
2.86015
2.79582
2.76869
2.7866
2.82165
2.84346
2.8503
2.81751
2.7182
2.58044
2.43232
2.27847
2.14362
2.0513
2.00096
1.97005
1.93586
1.89622
1.83634
1.7424
1.63894
1.55437
1.49434
1.4437
1.38509
1.31633
1.22447
1.09509
0.939523
0.769253
0.583812
0.388546
0.187438
-0.0241096
-0.256009
-0.517615
-0.810803
-1.13179
-1.47949
-1.86422
-2.29426
-2.77753
-3.34764
-4.03595
-4.83625
-5.6777
-6.44923
-7.01137
-7.07749
-6.41418
-5.23785
-3.98282
-2.89141
-2.0144
-1.31693
-0.743337
-0.240213
0.528237
1.4961
2.27837
2.80866
3.05084
3.11571
3.0937
2.9987
2.89946
2.85938
2.88526
2.93421
2.9624
2.98099
2.95558
2.8398
2.68043
2.51627
2.34104
2.18841
2.09196
2.05029
2.0308
2.00171
1.96918
1.91238
1.80551
1.68658
1.59672
1.54226
1.50023
1.44597
1.38382
1.29652
1.16036
0.99548
0.818807
0.625362
0.423178
0.219008
0.00676677
-0.226728
-0.494131
-0.796771
-1.12742
-1.48215
-1.87614
-2.31823
-2.81151
-3.40446
-4.14722
-5.04463
-6.01385
-6.93012
-7.66348
-7.82111
-7.02217
-5.58052
-4.11556
-2.91049
-1.98822
-1.28244
-0.717927
-0.2311
0.599703
1.67892
2.53959
3.10677
3.3134
3.33011
3.27549
3.13177
2.9904
2.93698
2.97642
3.04472
3.07745
3.11204
3.10012
2.96211
2.7767
2.59808
2.39774
2.22347
2.12326
2.0944
2.09022
2.06516
2.0423
1.99201
1.86754
1.72812
1.63233
1.58636
1.55597
1.50527
1.45185
1.37218
1.22675
1.05062
0.868513
0.666302
0.456569
0.250313
0.0392312
-0.194038
-0.466801
-0.77948
-1.11992
-1.47926
-1.88089
-2.33408
-2.83022
-3.43809
-4.23223
-5.23396
-6.34261
-7.41527
-8.36668
-8.66448
-7.69245
-5.91143
-4.20655
-2.88964
-1.93325
-1.22993
-0.682887
-0.218979
0.683241
1.88138
2.8265
3.43742
3.5885
3.54416
3.46061
3.25873
3.06624
2.99945
3.05994
3.15489
3.18725
3.24324
3.25427
3.08507
2.86791
2.67905
2.44868
2.24763
2.14416
2.13346
2.14968
2.12555
2.1157
2.07755
1.92874
1.76233
1.66007
1.62657
1.61184
1.56232
1.52021
1.45283
1.29411
1.1041
0.918587
0.706402
0.48806
0.280858
0.0730807
-0.157785
-0.435618
-0.759435
-1.11035
-1.47114
-1.87891
-2.3438
-2.83398
-3.44669
-4.28728
-5.4015
-6.66155
-7.89453
-9.12176
-9.63153
-8.43569
-6.21823
-4.24451
-2.82412
-1.84869
-1.15996
-0.638867
-0.204108
0.78259
2.10424
3.1395
3.80679
3.87416
3.75338
3.6513
3.37905
3.12422
3.04447
3.13583
3.26749
3.28951
3.37391
3.42253
3.2082
2.95185
2.76129
2.494
2.25945
2.15343
2.16771
2.2112
2.18166
2.18917
2.17214
1.98931
1.78762
1.67866
1.66285
1.66929
1.61601
1.5885
1.54051
1.36215
1.15472
0.969555
0.74546
0.516884
0.310134
0.108118
-0.117686
-0.400483
-0.737134
-1.10005
-1.45796
-1.87042
-2.35018
-2.8234
-3.42857
-4.30828
-5.54484
-6.96967
-8.3535
-9.92678
-10.7535
-9.26456
-6.48344
-4.21683
-2.71001
-1.73468
-1.07366
-0.58679
-0.186819
0.903343
2.34763
3.47772
4.22343
4.16722
3.95148
3.85165
3.49227
3.16116
3.06943
3.20414
3.38675
3.3807
3.50264
3.61123
3.33039
3.02517
2.84805
2.53387
2.25716
2.14957
2.19736
2.27776
2.23139
2.26202
2.28012
2.04922
1.802
1.68659
1.6952
1.73054
1.66463
1.65596
1.63814
1.43028
1.20078
1.02241
0.783283
0.542141
0.337629
0.144138
-0.0733153
-0.361189
-0.713031
-1.09073
-1.43957
-1.85518
-2.35697
-2.79934
-3.38221
-4.29063
-5.66201
-7.26864
-8.77236
-10.7755
-12.0712
-10.1938
-6.68265
-4.11004
-2.54469
-1.59242
-0.972729
-0.527803
-0.167502
1.05385
2.61076
3.83831
4.69939
4.46289
4.1297
4.06833
3.59781
3.17334
3.0714
3.26482
3.51903
3.45553
3.62704
3.82933
3.4496
3.0829
2.94426
2.56838
2.23863
2.13085
2.22257
2.35366
2.27151
2.33289
2.40746
2.10808
1.80301
1.68218
1.72355
1.79889
1.70559
1.72136
1.74986
1.49752
1.23987
1.07883
0.819646
0.562752
0.362856
0.180897
-0.0240764
-0.31743
-0.687482
-1.08461
-1.41554
-1.83227
-2.36921
-2.76275
-3.30641
-4.22899
-5.75131
-7.5645
-9.12462
-11.6556
-13.6381
-11.2404
-6.7824
-3.91052
-2.32733
-1.42422
-0.859312
-0.463214
-0.146584
1.24648
2.89151
4.21553
5.25157
4.75418
4.2761
4.31171
3.69465
3.15647
3.04718
3.31749
3.67362
3.50631
3.74327
4.08935
3.56244
3.11795
3.05723
2.5973
2.20127
2.09531
2.24321
2.4451
2.29718
2.39951
2.56228
2.16488
1.78769
1.66362
1.74766
1.87917
1.73511
1.78277
1.88153
1.56228
1.26871
1.14146
0.854217
0.577422
0.385395
0.218082
0.030823
-0.268804
-0.660656
-1.08461
-1.38497
-1.79974
-2.39359
-2.71448
-3.20042
-4.11702
-5.81099
-7.86978
-9.37563
-12.5456
-15.5237
-12.4233
-6.73755
-3.60579
-2.05935
-1.23349
-0.73593
-0.394423
-0.124507
1.49924
3.18593
4.59953
5.90357
5.03117
4.37456
4.59721
3.78088
3.10566
2.99332
3.3609
3.86377
3.52219
3.8456
4.40859
3.66368
3.12043
3.19754
2.6198
2.1421
2.04079
2.25857
2.56082
2.30151
2.45833
2.75563
2.21755
1.75256
1.62903
1.76689
1.97822
1.74783
1.83737
2.04122
1.62213
1.28283
1.21428
0.886431
0.584598
0.404952
0.255251
0.0924063
-0.214848
-0.632408
-1.09461
-1.34649
-1.75415
-2.43897
-2.65499
-3.06425
-3.9471
-5.83856
-8.20643
-9.48113
-13.4122
-17.8184
-13.7636
-6.48818
-3.18622
-1.74483
-1.02455
-0.605328
-0.322853
-0.101705
1.83792
3.48766
4.97485
6.68797
5.2801
4.40372
4.94705
3.85291
3.01546
2.90633
3.39242
4.10804
3.48821
3.92575
4.81055
3.74559
3.07694
3.38012
2.63391
2.0577
1.96507
2.26703
2.71299
2.27487
2.50419
3.00228
2.26252
1.69373
1.57663
1.77985
2.1056
1.73635
1.88113
2.23998
1.67347
1.27632
1.30309
0.915312
0.582427
0.421443
0.291765
0.161973
-0.155096
-0.602096
-1.11971
-1.29817
-1.69006
-2.51702
-2.58381
-2.89901
-3.71005
-5.82971
-8.60916
-9.38562
-14.2058
-20.6382
-15.2833
-5.95595
-2.64745
-1.39075
-0.802484
-0.470328
-0.24988
-0.0785902
2.29877
3.78719
5.31847
7.64907
5.4822
4.33561
5.39228
3.90444
2.87997
2.78291
3.40704
4.43191
3.38423
3.97216
5.32676
3.79713
2.96965
3.62567
2.63592
1.94429
1.86598
2.26538
2.91827
2.20428
2.52989
3.32185
2.29398
1.60693
1.50484
1.78396
2.27439
1.69061
1.90851
2.4926
1.7111
1.24144
1.41604
0.939214
0.568729
0.435098
0.32669
0.241161
-0.089172
-0.568338
-1.16665
-1.23754
-1.59937
-2.64306
-2.49894
-2.70749
-3.39489
-5.77663
-9.1297
-9.02091
-14.8557
-24.1316
-17.0051
-5.04009
-1.99351
-1.00696
-0.57282
-0.33368
-0.176774
-0.0555321
2.93168
4.07096
5.59765
8.84619
5.6124
4.13427
5.97535
3.92507
2.69307
2.6203
3.39625
4.86974
3.18368
3.96914
5.99871
3.80301
2.77535
3.96222
2.61941
1.79794
1.74169
2.24812
3.19906
2.07248
2.52565
3.73997
2.30302
1.48778
1.4126
1.77481
2.5022
1.5973
1.91206
2.8186
1.72782
1.16824
1.56432
0.95549
0.540981
0.446601
0.358673
0.332024
-0.0169269
-0.528693
-1.24414
-1.16157
-1.47048
-2.83701
-2.39598
-2.49473
-2.98877
-5.66583
-9.8415
-8.3047
-15.2644
-28.4862
-18.9508
-3.61291
-1.24083
-0.605811
-0.341145
-0.197923
-0.104661
-0.0328535
3.80398
4.32043
5.76728
10.3574
5.63764
3.75409
6.75291
3.89853
2.44881
2.41683
3.3465
5.46703
2.85217
3.89592
6.88015
3.74261
2.46435
4.42706
2.57416
1.61474
1.59101
2.20648
3.58499
1.85712
2.47858
4.28973
2.27657
1.33202
1.29963
1.74539
2.8123
1.43911
1.88201
3.24326
1.71377
1.04421
1.76292
0.960053
0.49634
0.45724
0.385797
0.437141
0.0613689
-0.47927
-1.36337
-1.06681
-1.28744
-3.12466
-2.26701
-2.26893
-2.477
-5.47515
-10.8451
-7.13948
-15.3012
-33.9369
-21.1394
-1.51516
-0.422853
-0.201267
-0.112737
-0.0652797
-0.0344894
-0.0108223
)
;

boundaryField
{
    left
    {
        type            calculated;
        value           uniform 0;
    }
    right
    {
        type            calculated;
        value           uniform 0;
    }
    interface
    {
        type            calculated;
        value           nonuniform List<scalar> 
64
(
3.80398
4.32043
5.76728
10.3574
5.63764
3.75409
6.75291
3.89853
2.44881
2.41683
3.3465
5.46703
2.85217
3.89592
6.88015
3.74261
2.46435
4.42706
2.57416
1.61474
1.59101
2.20648
3.58499
1.85712
2.47858
4.28973
2.27657
1.33202
1.29963
1.74539
2.8123
1.43911
1.88201
3.24326
1.71377
1.04421
1.76292
0.960053
0.49634
0.45724
0.385797
0.437141
0.0613689
-0.47927
-1.36337
-1.06681
-1.28744
-3.12466
-2.26701
-2.26893
-2.477
-5.47515
-10.8451
-7.13948
-15.3012
-33.9369
-21.1394
-1.51516
-0.422853
-0.201267
-0.112737
-0.0652797
-0.0344894
-0.0108223
)
;
    }
    bottom
    {
        type            calculated;
        value           nonuniform List<scalar> 
64
(
0.00630502
0.0187344
0.0306387
0.0417201
0.0517497
0.0605782
0.0681352
0.0744184
0.0794776
0.0833956
0.0862722
0.0882118
0.0893161
0.0896823
0.0894025
0.0885661
0.0872599
0.0855673
0.0835661
0.081325
0.0788996
0.0763306
0.0736429
0.0708466
0.0679395
0.0649095
0.0617371
0.0583966
0.0548572
0.0510831
0.0470338
0.0426658
0.0379339
0.0327935
0.0272028
0.021124
0.0145251
0.0073798
-0.00033141
-0.00862021
-0.0174881
-0.0269229
-0.036893
-0.0473412
-0.0581759
-0.0692623
-0.0804133
-0.0913817
-0.101856
-0.111464
-0.119782
-0.12636
-0.130754
-0.13257
-0.131512
-0.127416
-0.120277
-0.110248
-0.0976157
-0.0827652
-0.0661298
-0.0481504
-0.029247
-0.00980742
)
;
    }
    defaultFaces
    {
        type            empty;
    }
}


// ************************************************************************* //
