/*--------------------------------*- C++ -*----------------------------------*\
| =========                 |                                                 |
| \\      /  F ield         | OpenFOAM: The Open Source CFD Toolbox           |
|  \\    /   O peration     | Version:  5.x                                   |
|   \\  /    A nd           | Web:      www.OpenFOAM.org                      |
|    \\/     M anipulation  |                                                 |
\*---------------------------------------------------------------------------*/
FoamFile
{
    version     2.0;
    format      ascii;
    class       volScalarField;
    location    "18.4";
    object      T;
}
// * * * * * * * * * * * * * * * * * * * * * * * * * * * * * * * * * * * * * //

dimensions      [0 0 0 1 0 0 0];

internalField   nonuniform List<scalar> 
2048
(
9.81021
9.8104
9.81079
9.81136
9.8121
9.81298
9.81399
9.81511
9.81631
9.81759
9.81892
9.82029
9.82168
9.82308
9.82448
9.82587
9.82725
9.8286
9.82992
9.83121
9.83246
9.83368
9.83485
9.83598
9.83706
9.8381
9.83909
9.84003
9.84092
9.84174
9.84251
9.84321
9.84385
9.8444
9.84487
9.84525
9.84553
9.8457
9.84576
9.84569
9.84549
9.84515
9.84465
9.84399
9.84317
9.84218
9.84101
9.83966
9.83815
9.83648
9.83467
9.83274
9.83072
9.82865
9.82658
9.82454
9.82259
9.82078
9.81915
9.81773
9.81656
9.81567
9.81506
9.81475
9.43876
9.43935
9.4405
9.4422
9.44438
9.44701
9.45001
9.45334
9.45692
9.46071
9.46465
9.4687
9.47282
9.47697
9.48112
9.48525
9.48932
9.49332
9.49723
9.50105
9.50475
9.50834
9.5118
9.51514
9.51835
9.52142
9.52435
9.52713
9.52975
9.53221
9.53448
9.53656
9.53843
9.54007
9.54147
9.5426
9.54344
9.54396
9.54413
9.54394
9.54335
9.54234
9.54088
9.53894
9.53651
9.53357
9.53012
9.52614
9.52166
9.51671
9.51133
9.5056
9.4996
9.49345
9.48728
9.48122
9.47543
9.47004
9.46518
9.46096
9.45749
9.45482
9.45301
9.4521
9.08311
9.08408
9.086
9.08881
9.09242
9.09676
9.10172
9.10719
9.11309
9.11932
9.12579
9.13244
9.1392
9.14601
9.15281
9.15956
9.16622
9.17277
9.17917
9.1854
9.19146
9.19732
9.20298
9.20844
9.21368
9.2187
9.22349
9.22804
9.23232
9.23634
9.24006
9.24347
9.24654
9.24924
9.25154
9.25341
9.25479
9.25566
9.25597
9.25568
9.25474
9.25311
9.25075
9.24761
9.24365
9.23886
9.23322
9.22671
9.21937
9.21124
9.2024
9.19297
9.18308
9.17293
9.16273
9.15272
9.14314
9.13423
9.1262
9.11924
9.1135
9.1091
9.10613
9.10462
8.74234
8.74371
8.74639
8.75031
8.75536
8.7614
8.76829
8.77589
8.78407
8.79268
8.80164
8.81082
8.82014
8.82951
8.83888
8.84817
8.85734
8.86633
8.87513
8.88369
8.892
8.90004
8.90781
8.9153
8.92249
8.92938
8.93596
8.9422
8.94809
8.95361
8.95874
8.96344
8.96768
8.97141
8.9746
8.97719
8.97913
8.98037
8.98084
8.98048
8.97924
8.97705
8.97384
8.96957
8.96418
8.95763
8.94989
8.94096
8.93085
8.91963
8.9074
8.89432
8.88058
8.86646
8.85225
8.83829
8.82493
8.8125
8.8013
8.79161
8.78363
8.77752
8.77339
8.77131
8.41562
8.41738
8.42085
8.4259
8.4324
8.44016
8.449
8.45872
8.46915
8.48013
8.49151
8.50317
8.51499
8.52687
8.53873
8.55049
8.56207
8.57343
8.58453
8.59532
8.6058
8.61594
8.62573
8.63516
8.64423
8.65292
8.66121
8.66908
8.67653
8.6835
8.68999
8.69594
8.70132
8.70607
8.71014
8.71346
8.71597
8.71759
8.71825
8.71787
8.71638
8.71369
8.70972
8.70441
8.69767
8.68945
8.67971
8.66844
8.65565
8.64141
8.62584
8.60914
8.59156
8.57345
8.55519
8.53724
8.52004
8.50405
8.48967
8.47723
8.467
8.45919
8.45391
8.45125
8.10216
8.10434
8.10862
8.11485
8.12284
8.13236
8.14316
8.15501
8.16769
8.18101
8.19479
8.20888
8.22315
8.23748
8.25177
8.26592
8.27985
8.2935
8.30681
8.31976
8.33231
8.34446
8.35619
8.36749
8.37836
8.38877
8.39871
8.40817
8.4171
8.42549
8.4333
8.44048
8.44698
8.45274
8.45768
8.46174
8.46483
8.46686
8.46775
8.4674
8.46571
8.46259
8.45794
8.45166
8.44367
8.43388
8.42224
8.40872
8.39332
8.37612
8.35725
8.33694
8.31549
8.29333
8.27095
8.24891
8.22779
8.20817
8.19054
8.17532
8.16283
8.1533
8.14688
8.14365
7.80126
7.80388
7.80901
7.81648
7.82601
7.83733
7.85014
7.86414
7.87908
7.89472
7.91087
7.92736
7.94404
7.96077
7.97743
7.99391
8.01012
8.02598
8.04144
8.05645
8.071
8.08508
8.09866
8.11176
8.12435
8.13642
8.14796
8.15893
8.16931
8.17908
8.18817
8.19655
8.20415
8.21091
8.21674
8.22154
8.22523
8.22771
8.22886
8.22858
8.22676
8.22328
8.21802
8.21087
8.20172
8.19046
8.17702
8.16134
8.14342
8.12332
8.10118
8.07724
8.05187
8.02558
7.99895
7.9727
7.94754
7.92417
7.90322
7.88517
7.8704
7.85916
7.8516
7.8478
7.51226
7.51535
7.52139
7.53014
7.5413
7.55449
7.56935
7.58554
7.60275
7.62071
7.63922
7.65807
7.67711
7.69619
7.71517
7.73392
7.75235
7.77035
7.78788
7.80489
7.82135
7.83727
7.85264
7.86745
7.8817
7.89537
7.90844
7.92088
7.93267
7.94376
7.95411
7.96366
7.97236
7.98011
7.98682
7.99239
7.9967
7.99965
8.00111
8.00096
7.99907
7.9953
7.98952
7.98159
7.97137
7.95875
7.94361
7.92587
7.90551
7.88256
7.85717
7.82959
7.80024
7.76969
7.73868
7.70804
7.67867
7.65143
7.62705
7.60612
7.58905
7.5761
7.5674
7.56304
7.23453
7.23812
7.24514
7.25528
7.26814
7.28328
7.30026
7.31867
7.33816
7.35845
7.37928
7.40047
7.42184
7.44323
7.46448
7.48546
7.50604
7.52612
7.54564
7.56456
7.58286
7.60055
7.61762
7.63408
7.64992
7.66513
7.67967
7.69353
7.70667
7.71905
7.73063
7.74134
7.75111
7.75986
7.76746
7.77381
7.77877
7.78223
7.78404
7.78406
7.78216
7.77817
7.77195
7.76334
7.75216
7.73828
7.72155
7.70186
7.67914
7.65342
7.6248
7.59355
7.56013
7.5252
7.48961
7.4544
7.42063
7.38935
7.36144
7.33757
7.31818
7.30353
7.29372
7.28882
6.96749
6.97163
6.9797
6.99133
7.006
7.02319
7.04236
7.06304
7.08483
7.10743
7.13058
7.15407
7.17773
7.20139
7.22487
7.24802
7.2707
7.2928
7.31424
7.335
7.35505
7.37442
7.39312
7.41116
7.42853
7.44522
7.46119
7.47642
7.49087
7.5045
7.51728
7.52912
7.53997
7.5497
7.5582
7.56535
7.57099
7.57498
7.57718
7.57743
7.57558
7.57145
7.56487
7.55567
7.54364
7.52861
7.5104
7.48886
7.4639
7.43546
7.40365
7.36872
7.33114
7.29167
7.2513
7.21126
7.17286
7.13736
7.10581
7.07896
7.05725
7.04092
7.03003
7.0246
6.71061
6.71535
6.72457
6.73779
6.7544
6.77374
6.79518
6.81817
6.84228
6.86718
6.89262
6.91838
6.9443
6.97018
6.99586
7.02114
7.04587
7.06992
7.09322
7.11573
7.13746
7.15844
7.17869
7.19824
7.21708
7.23519
7.25254
7.26909
7.28481
7.29966
7.31359
7.32656
7.33846
7.34919
7.3586
7.36656
7.37289
7.37746
7.38008
7.38061
7.37887
7.37467
7.36783
7.35812
7.34535
7.32928
7.30971
7.28645
7.25934
7.22829
7.19333
7.1547
7.11287
7.06868
7.02328
6.97814
6.93486
6.89494
6.85963
6.82975
6.80574
6.78778
6.77586
6.76992
6.46335
6.46875
6.47924
6.4942
6.51288
6.53449
6.55828
6.58364
6.61008
6.63726
6.66495
6.69295
6.72108
6.74917
6.77699
6.80437
6.8311
6.85704
6.88213
6.90632
6.92964
6.95214
6.97388
6.99487
7.01512
7.03461
7.05328
7.07111
7.08805
7.10407
7.11915
7.13321
7.14617
7.15789
7.16822
7.17701
7.18407
7.18923
7.19232
7.19317
7.19159
7.1874
7.18036
7.17026
7.15684
7.13985
7.11906
7.0942
7.06507
7.0315
6.99346
6.95111
6.90494
6.85584
6.80515
6.7546
6.70612
6.66157
6.62237
6.58945
6.56319
6.54367
6.53078
6.52438
6.22523
6.23138
6.24325
6.26011
6.28102
6.30503
6.33126
6.35902
6.3878
6.41724
6.44714
6.47733
6.50765
6.53789
6.56784
6.59727
6.62596
6.65375
6.68054
6.70633
6.73116
6.75511
6.77825
6.80062
6.82223
6.84304
6.863
6.88206
6.90018
6.91734
6.93352
6.94866
6.96266
6.97538
6.98665
6.99628
7.00408
7.00987
7.01346
7.01467
7.01332
7.00919
7.00204
6.99163
6.97767
6.95989
6.93799
6.91168
6.88066
6.8447
6.80366
6.75761
6.70702
6.65281
6.59652
6.54018
6.48617
6.43674
6.39356
6.35759
6.32916
6.30818
6.29441
6.2876
5.99579
6.00276
6.01617
6.03511
6.05843
6.08497
6.11374
6.14394
6.17505
6.20672
6.23878
6.27112
6.30356
6.33594
6.36799
6.39945
6.43005
6.45962
6.48806
6.51536
6.54161
6.56692
6.59139
6.61509
6.63801
6.6601
6.6813
6.70154
6.72079
6.73905
6.75631
6.77251
6.78755
6.80127
6.81349
6.82398
6.83254
6.83898
6.84309
6.84471
6.84363
6.83963
6.83245
6.82182
6.80743
6.78896
6.76609
6.73847
6.70572
6.6675
6.62357
6.57387
6.51877
6.45925
6.39702
6.33449
6.27456
6.21997
6.17271
6.13375
6.10325
6.08095
6.06641
6.05924
5.77459
5.78247
5.79759
5.81881
5.84473
5.87397
5.90536
5.93804
5.97145
6.0053
6.03947
6.07388
6.10843
6.1429
6.17703
6.21049
6.24298
6.27428
6.30428
6.33302
6.36059
6.38717
6.41291
6.43787
6.46205
6.48539
6.50779
6.52917
6.54951
6.56882
6.58712
6.60436
6.62043
6.63516
6.64834
6.65971
6.66905
6.67615
6.68083
6.68288
6.68212
6.6783
6.67117
6.6604
6.64568
6.62665
6.60294
6.57415
6.53984
6.49954
6.45284
6.39955
6.3399
6.27486
6.20632
6.13712
6.07081
6.0108
5.95938
5.9175
5.88511
5.86166
5.84647
5.83902
5.56119
5.57011
5.58713
5.61087
5.6396
5.67168
5.70578
5.74097
5.77666
5.81261
5.84881
5.88525
5.92184
5.95838
5.99458
6.03003
6.06437
6.09734
6.12885
6.15892
6.18772
6.21549
6.24241
6.26858
6.29399
6.31854
6.34212
6.36459
6.38596
6.40627
6.42558
6.44384
6.46093
6.47669
6.49084
6.5031
6.51324
6.52103
6.52627
6.52879
6.52839
6.52482
6.5178
6.50698
6.49202
6.47254
6.44813
6.41833
6.38263
6.34043
6.29115
6.23436
6.17012
6.09936
6.02412
5.9477
5.87448
5.80873
5.75312
5.70847
5.6744
5.64999
5.63432
5.62667
5.3552
5.36528
5.38443
5.41094
5.44272
5.4778
5.5147
5.55241
5.59033
5.6283
5.66643
5.70483
5.74343
5.78201
5.82027
5.85771
5.89386
5.92847
5.9614
5.99271
6.02264
6.0515
6.07954
6.10687
6.13346
6.15921
6.18392
6.20745
6.22979
6.25105
6.27133
6.29059
6.30871
6.32549
6.34063
6.35381
6.36475
6.37324
6.37907
6.38207
6.38206
6.3788
6.37195
6.36117
6.34606
6.32624
6.30126
6.27061
6.23369
6.18982
6.13815
6.078
6.00917
5.93251
5.85015
5.76586
5.68512
5.61332
5.55351
5.5063
5.47081
5.4457
5.42972
5.42196
5.15623
5.16762
5.18913
5.21871
5.2538
5.29203
5.33182
5.37206
5.41213
5.45201
5.49198
5.53226
5.57282
5.61342
5.65374
5.69318
5.73112
5.7673
5.8016
5.83405
5.86499
5.89483
5.92393
5.95237
5.98011
6.00704
6.03288
6.05741
6.08066
6.10281
6.12402
6.14426
6.1634
6.18123
6.19739
6.21148
6.22324
6.23244
6.23887
6.24237
6.24278
6.23986
6.23327
6.22259
6.20742
6.18735
6.16193
6.13058
6.09265
6.04733
5.99352
5.93019
5.85682
5.77408
5.68416
5.59128
5.50228
5.42407
5.36014
5.31064
5.27407
5.24854
5.23243
5.22466
4.96389
4.97677
5.00091
5.03389
5.07257
5.11411
5.15686
5.19963
5.24176
5.28343
5.3251
5.3672
5.40966
5.45224
5.49466
5.53611
5.57582
5.61353
5.64911
5.68259
5.71443
5.74516
5.77525
5.80476
5.83362
5.86173
5.88869
5.91416
5.93825
5.96123
5.98334
6.00454
6.02468
6.04358
6.06078
6.0758
6.08838
6.0983
6.10532
6.10933
6.1102
6.10767
6.10139
6.09089
6.07573
6.05551
6.02976
5.99786
5.95911
5.9126
5.85694
5.79067
5.71282
5.62388
5.52596
5.42364
5.32549
5.24053
5.17261
5.12121
5.08394
5.05829
5.04227
5.03458
4.77784
4.79241
4.81946
4.85621
4.89879
4.94377
4.98954
5.03484
5.07892
5.12221
5.16544
5.20929
5.25362
5.29815
5.34269
5.3862
5.42763
5.46684
5.50364
5.53804
5.57063
5.60214
5.63316
5.6637
5.69366
5.72296
5.75104
5.77741
5.80226
5.82599
5.84896
5.8711
5.89224
5.91224
5.93051
5.94646
5.95987
5.9705
5.97811
5.98264
5.98397
5.98189
5.97597
5.96571
5.95063
5.93034
5.9044
5.87208
5.8327
5.78529
5.72809
5.65916
5.57695
5.48174
5.37542
5.26263
5.15424
5.06219
4.99056
4.93772
4.9002
4.87477
4.85905
4.85154
4.59772
4.61423
4.64447
4.68543
4.73225
4.78077
4.82961
4.87744
4.92332
4.96805
5.01268
5.05822
5.10437
5.15079
5.19753
5.24315
5.28627
5.32692
5.3649
5.40008
5.43329
5.46545
5.49736
5.52891
5.55992
5.59045
5.61968
5.64687
5.67238
5.69677
5.72058
5.74365
5.76577
5.78689
5.80628
5.82316
5.83739
5.84874
5.85693
5.86197
5.86378
5.86218
5.85669
5.84674
5.83179
5.81151
5.78548
5.75288
5.71303
5.66502
5.60664
5.53542
5.449
5.34748
5.23243
5.108
4.98802
4.88856
4.81363
4.75995
4.72268
4.69781
4.6826
4.67538
4.4232
4.44194
4.47566
4.5213
4.57275
4.62484
4.67682
4.7272
4.77468
4.82065
4.86646
4.91367
4.96161
5.00984
5.05886
5.10672
5.15143
5.19349
5.23262
5.26842
5.3021
5.33477
5.36755
5.40009
5.43209
5.46391
5.49434
5.52227
5.54834
5.57328
5.59792
5.62191
5.64496
5.66728
5.68784
5.70561
5.72067
5.73275
5.74149
5.74702
5.74931
5.74825
5.74325
5.73366
5.71889
5.69866
5.67266
5.63988
5.59972
5.55144
5.49228
5.41918
5.32872
5.22098
5.097
4.95952
4.82623
4.71913
4.6415
4.58767
4.5512
4.52726
4.51276
4.50592
4.25394
4.27529
4.31273
4.36362
4.42015
4.47576
4.5309
4.5839
4.63274
4.67972
4.72647
4.77534
4.82506
4.87495
4.92641
4.97664
5.02282
5.06626
5.10654
5.14278
5.17678
5.20979
5.24345
5.27697
5.30988
5.34308
5.3748
5.40336
5.42987
5.45523
5.4807
5.5056
5.52952
5.55311
5.57493
5.59355
5.60943
5.62226
5.6315
5.63751
5.64028
5.63979
5.63535
5.62618
5.61162
5.59148
5.56564
5.53276
5.4924
5.4442
5.38469
5.31023
5.21589
5.10205
4.96919
4.817
4.66821
4.55338
4.47389
4.42074
4.38563
4.36297
4.34938
4.343
4.08961
4.11406
4.15537
4.21217
4.27433
4.33324
4.39162
4.44735
4.49722
4.54498
4.59236
4.64297
4.69447
4.74577
4.7999
4.85272
4.90016
4.94497
4.98645
5.02291
5.05706
5.0902
5.1248
5.1593
5.19297
5.22771
5.26085
5.28988
5.31672
5.34234
5.36868
5.3945
5.41918
5.44414
5.46732
5.48671
5.50341
5.51701
5.5267
5.53316
5.53639
5.53654
5.53272
5.52402
5.50968
5.48965
5.46412
5.4312
5.39068
5.34297
5.28353
5.20833
5.11026
4.99053
4.84921
4.68032
4.51316
4.3908
4.31056
4.25902
4.22587
4.20482
4.19232
4.18648
3.92988
3.95811
4.00325
4.06679
4.13523
4.19702
4.25871
4.31738
4.36785
4.41617
4.46377
4.5163
4.5696
4.62194
4.67906
4.73479
4.78313
4.82933
4.87213
4.90851
4.94267
4.97569
5.01134
5.04687
5.08107
5.11756
5.15232
5.18159
5.20864
5.2343
5.26161
5.28838
5.31363
5.34013
5.36482
5.38482
5.40235
5.41677
5.42682
5.43372
5.43738
5.43822
5.43508
5.42693
5.4128
5.39285
5.36782
5.33487
5.29416
5.24739
5.18847
5.11331
5.01153
4.88617
4.73739
4.54943
4.36017
4.23088
4.15133
4.10244
4.07181
4.05267
4.04141
4.03618
3.77441
3.80735
3.856
3.92729
4.00285
4.06676
4.13191
4.19389
4.24434
4.29306
4.34032
4.39509
4.45029
4.50307
4.56364
4.62274
4.67144
4.71908
4.76344
4.79934
4.8334
4.86593
4.90286
4.93948
4.97384
5.01238
5.04907
5.07826
5.10542
5.13083
5.15928
5.18705
5.21258
5.24084
5.26726
5.28764
5.30601
5.32135
5.33162
5.33893
5.34296
5.34459
5.34221
5.33467
5.32072
5.30077
5.27649
5.24352
5.20245
5.15718
5.09913
5.02502
4.9194
4.78863
4.63425
4.4244
4.20806
4.07314
3.99611
3.95093
3.92338
3.90642
3.89653
3.89195
3.62283
3.66178
3.71319
3.79352
3.8773
3.94209
4.01093
4.07683
4.12639
4.17547
4.22161
4.27914
4.33641
4.38871
4.45339
4.5165
4.56472
4.61394
4.66025
4.6951
4.72904
4.76058
4.79914
4.83699
4.87093
4.91198
4.951
4.97963
5.00687
5.03162
5.06148
5.09034
5.1157
5.14605
5.1745
5.19487
5.21415
5.23054
5.24084
5.24859
5.25289
5.2554
5.25385
5.247
5.2332
5.21311
5.18992
5.15687
5.11512
5.07204
5.01511
4.94338
4.83352
4.69745
4.54053
4.3054
4.05541
3.91717
3.84486
3.80449
3.78051
3.76595
3.75751
3.75362
3.47473
3.52158
3.57429
3.66531
3.75877
3.82254
3.89548
3.9662
4.01363
4.06325
4.10717
4.16828
4.22792
4.27835
4.34809
4.41612
4.46258
4.51363
4.5625
4.5955
4.62944
4.65927
4.70003
4.7393
4.77195
4.81612
4.85806
4.88542
4.91283
4.93633
4.96804
4.99815
5.02266
5.05557
5.08645
5.10626
5.12654
5.1442
5.15424
5.16247
5.1669
5.17045
5.16978
5.16374
5.15002
5.12953
5.10794
5.07471
5.03173
4.99174
4.93597
4.8684
4.75351
4.61195
4.45723
4.19281
3.9004
3.7627
3.69765
3.66313
3.64312
3.63112
3.62421
3.62103
3.32964
3.38707
3.43863
3.54254
3.64763
3.70754
3.78524
3.86213
3.90565
3.95637
3.99647
4.06238
4.12485
4.17139
4.24752
4.32172
4.36457
4.41787
4.4702
4.50018
4.53451
4.56159
4.60535
4.64637
4.67644
4.72463
4.77026
4.79533
4.82319
4.8446
4.87881
4.9104
4.93307
4.96919
5.00307
5.02148
5.04296
5.0622
5.07156
5.0804
5.08473
5.08952
5.08979
5.08468
5.07098
5.04968
5.03041
4.99687
4.95175
4.91613
4.86116
4.80019
4.67898
4.53115
4.38568
4.08722
3.74074
3.60962
3.55461
3.52688
3.51115
3.50181
3.49645
3.494
3.18701
3.25885
3.30536
3.42505
3.54439
3.59637
3.67988
3.76488
3.8019
3.85488
3.88886
3.96135
4.02736
4.0671
4.15149
4.23356
4.27015
4.32637
4.38345
4.40874
4.44421
4.46705
4.515
4.55825
4.58389
4.63731
4.68769
4.70899
4.73791
4.75602
4.79366
4.82709
4.84649
4.88673
4.92438
4.94021
4.96318
4.98446
4.99253
5.00223
5.00613
5.01244
5.01366
5.00965
4.9959
4.9732
4.95723
4.92322
4.87463
4.84512
4.79003
4.73903
4.60951
4.45373
4.3276
3.98949
3.57349
3.45808
3.41599
3.39578
3.38452
3.37788
3.37409
3.37236
3.04618
3.1378
3.1734
3.31272
3.44984
3.48811
3.57904
3.67484
3.7017
3.759
3.78358
3.86513
3.93576
3.96462
4.05979
4.15208
4.17864
4.23881
4.30246
4.32067
4.35864
4.37509
4.4289
4.47506
4.49366
4.55399
4.61054
4.62596
4.65703
4.6701
4.71249
4.7483
4.76241
4.80805
4.85049
4.86204
4.887
4.91093
4.91686
4.92783
4.93081
4.93904
4.94119
4.93851
4.92467
4.89963
4.88837
4.85368
4.79971
4.77881
4.72175
4.68541
4.54469
4.37786
4.28517
3.90085
3.39498
3.30864
3.28207
3.26986
3.26314
3.2592
3.25696
3.25593
2.90633
3.0252
3.04134
3.20543
3.36501
3.38161
3.48233
3.59264
3.60416
3.66916
3.67968
3.77374
3.85053
3.86287
3.97227
4.07787
4.08923
4.15489
4.22758
4.23533
4.27804
4.28505
4.34699
4.39708
4.40503
4.47453
4.53908
4.54568
4.5807
4.58629
4.63525
4.67417
4.68022
4.73299
4.78157
4.78654
4.8142
4.84163
4.84421
4.85714
4.85849
4.8692
4.87215
4.87112
4.85718
4.82851
4.82384
4.78828
4.72619
4.71744
4.65529
4.64003
4.48419
4.30112
4.26108
3.82296
3.20055
3.16235
3.1532
3.14914
3.14691
3.14561
3.14487
3.14454
)
;

boundaryField
{
    left
    {
        type            zeroGradient;
    }
    right
    {
        type            zeroGradient;
    }
    interface
    {
        type            fixedValue;
        value           nonuniform List<scalar> 
64
(
2.83483
2.97288
2.97288
3.15311
3.32733
3.32733
3.43481
3.55508
3.55508
3.6267
3.6267
3.72953
3.81057
3.81057
3.92961
4.04412
4.04412
4.11371
4.19275
4.19275
4.23963
4.23963
4.30726
4.36005
4.36005
4.43587
4.50579
4.50579
4.54426
4.54426
4.59778
4.63882
4.63882
4.69644
4.74908
4.74908
4.77865
4.80842
4.80842
4.8229
4.8229
4.83528
4.83854
4.83854
4.82459
4.79312
4.79312
4.75702
4.68886
4.68886
4.62158
4.62158
4.45535
4.25984
4.25984
3.78976
3.09008
3.09008
3.09008
3.09008
3.09008
3.09008
3.09008
3.09008
)
;
    }
    bottom
    {
        type            fixedValue;
        value           uniform 10;
    }
    defaultFaces
    {
        type            empty;
    }
}


// ************************************************************************* //
