/*--------------------------------*- C++ -*----------------------------------*\
| =========                 |                                                 |
| \\      /  F ield         | OpenFOAM: The Open Source CFD Toolbox           |
|  \\    /   O peration     | Version:  5.x                                   |
|   \\  /    A nd           | Web:      www.OpenFOAM.org                      |
|    \\/     M anipulation  |                                                 |
\*---------------------------------------------------------------------------*/
FoamFile
{
    version     2.0;
    format      ascii;
    class       volScalarField;
    location    "8.9001";
    object      T;
}
// * * * * * * * * * * * * * * * * * * * * * * * * * * * * * * * * * * * * * //

dimensions      [0 0 0 1 0 0 0];

internalField   nonuniform List<scalar> 
6300
(
322.841
322.522
322.202
321.88
321.556
321.229
320.898
320.563
320.223
319.877
319.527
319.17
318.807
318.439
318.065
322.841
322.523
322.204
321.883
321.559
321.232
320.902
320.567
320.228
319.883
319.532
319.176
318.813
318.445
318.07
322.842
322.525
322.207
321.887
321.565
321.24
320.911
320.577
320.238
319.894
319.544
319.188
318.825
318.457
318.082
322.843
322.528
322.213
321.895
321.575
321.251
320.924
320.592
320.254
319.911
319.562
319.206
318.844
318.475
318.099
322.844
322.533
322.22
321.905
321.587
321.267
320.941
320.611
320.276
319.934
319.586
319.231
318.869
318.499
318.123
322.846
322.538
322.229
321.918
321.604
321.286
320.964
320.637
320.304
319.964
319.617
319.263
318.901
318.531
318.153
322.848
322.545
322.24
321.933
321.623
321.31
320.992
320.668
320.338
320.001
319.656
319.303
318.941
318.57
318.19
322.851
322.553
322.253
321.952
321.647
321.338
321.025
320.706
320.38
320.046
319.704
319.352
318.99
318.618
318.236
322.854
322.562
322.269
321.973
321.674
321.372
321.064
320.75
320.429
320.099
319.76
319.411
319.049
318.676
318.291
322.858
322.572
322.286
321.997
321.706
321.41
321.109
320.802
320.487
320.162
319.828
319.481
319.121
318.746
318.356
322.862
322.584
322.306
322.025
321.741
321.453
321.16
320.861
320.553
320.236
319.907
319.565
319.207
318.831
318.436
322.866
322.597
322.327
322.055
321.781
321.502
321.218
320.928
320.63
320.321
320
319.664
319.31
318.935
318.535
322.871
322.611
322.351
322.089
321.824
321.556
321.283
321.003
320.716
320.419
320.109
319.782
319.434
319.062
318.66
322.876
322.627
322.377
322.125
321.871
321.614
321.353
321.087
320.813
320.53
320.233
319.92
319.584
319.219
318.821
322.881
322.643
322.404
322.164
321.922
321.677
321.429
321.177
320.919
320.653
320.375
320.081
319.762
319.409
319.019
317.716
317.396
317.072
316.744
316.414
316.08
315.744
315.406
315.065
314.722
314.377
314.031
313.683
313.335
312.985
312.635
312.284
311.933
311.582
311.232
310.881
310.531
310.182
309.832
309.484
309.135
308.787
308.44
308.093
307.747
307.402
307.057
306.714
306.371
306.03
305.689
305.35
305.011
304.674
304.337
304.001
303.667
303.333
303
302.668
302.337
302.007
301.678
301.35
301.024
300.698
300.374
300.051
299.728
299.407
299.087
298.767
298.449
298.131
297.814
297.498
297.183
296.869
296.557
296.245
295.934
295.624
295.315
295.007
294.7
294.393
294.087
293.782
293.478
293.174
292.87
292.568
292.266
291.964
291.663
291.362
291.062
290.762
290.461
290.16
289.859
289.557
289.255
288.951
288.646
317.722
317.401
317.077
316.749
316.418
316.084
315.748
315.409
315.068
314.725
314.38
314.033
313.685
313.336
312.986
312.635
312.284
311.933
311.582
311.231
310.881
310.531
310.181
309.832
309.483
309.135
308.787
308.439
308.092
307.746
307.401
307.056
306.712
306.37
306.028
305.688
305.348
305.01
304.672
304.336
304
303.665
303.332
302.999
302.666
302.335
302.005
301.676
301.349
301.022
300.697
300.372
300.049
299.727
299.406
299.085
298.766
298.447
298.13
297.813
297.497
297.182
296.868
296.555
296.243
295.933
295.623
295.314
295.006
294.699
294.392
294.086
293.781
293.477
293.173
292.869
292.567
292.265
291.963
291.662
291.362
291.062
290.762
290.462
290.161
289.86
289.558
289.256
288.952
288.648
317.733
317.411
317.086
316.758
316.426
316.092
315.755
315.415
315.074
314.73
314.384
314.037
313.688
313.338
312.988
312.636
312.285
311.933
311.582
311.231
310.88
310.53
310.18
309.83
309.482
309.133
308.785
308.437
308.09
307.744
307.398
307.053
306.709
306.367
306.025
305.685
305.345
305.007
304.67
304.333
303.998
303.663
303.329
302.996
302.664
302.332
302.002
301.673
301.345
301.019
300.693
300.369
300.046
299.724
299.403
299.083
298.764
298.445
298.127
297.81
297.494
297.179
296.865
296.552
296.24
295.93
295.62
295.311
295.004
294.697
294.39
294.085
293.779
293.475
293.171
292.868
292.565
292.263
291.962
291.661
291.361
291.062
290.762
290.462
290.163
289.862
289.561
289.258
288.955
288.65
317.749
317.427
317.101
316.772
316.439
316.104
315.766
315.425
315.082
314.738
314.391
314.043
313.693
313.342
312.99
312.638
312.285
311.933
311.581
311.229
310.878
310.528
310.178
309.829
309.48
309.131
308.783
308.435
308.088
307.741
307.394
307.049
306.705
306.362
306.02
305.68
305.341
305.003
304.666
304.329
303.994
303.659
303.325
302.992
302.659
302.328
301.997
301.668
301.34
301.014
300.688
300.364
300.042
299.72
299.399
299.079
298.76
298.441
298.123
297.806
297.49
297.175
296.86
296.547
296.236
295.925
295.616
295.308
295
294.694
294.387
294.082
293.777
293.472
293.168
292.865
292.562
292.26
291.959
291.659
291.36
291.061
290.762
290.464
290.165
289.865
289.565
289.263
288.959
288.655
317.771
317.448
317.121
316.79
316.456
316.119
315.78
315.438
315.094
314.748
314.401
314.051
313.7
313.347
312.994
312.64
312.286
311.932
311.579
311.227
310.876
310.525
310.175
309.826
309.477
309.129
308.78
308.432
308.084
307.736
307.389
307.043
306.699
306.355
306.014
305.673
305.335
304.997
304.66
304.325
303.989
303.655
303.32
302.987
302.654
302.322
301.991
301.661
301.333
301.006
300.682
300.358
300.036
299.715
299.394
299.075
298.755
298.437
298.118
297.801
297.484
297.168
296.854
296.541
296.229
295.919
295.61
295.303
294.996
294.69
294.384
294.079
293.773
293.469
293.165
292.861
292.558
292.256
291.956
291.656
291.358
291.06
290.763
290.466
290.168
289.87
289.57
289.269
288.966
288.661
317.8
317.475
317.145
316.812
316.476
316.138
315.797
315.454
315.109
314.762
314.413
314.061
313.708
313.353
312.998
312.642
312.286
311.93
311.576
311.223
310.872
310.521
310.172
309.823
309.475
309.126
308.777
308.429
308.08
307.731
307.383
307.036
306.691
306.347
306.005
305.665
305.327
304.99
304.654
304.319
303.984
303.649
303.315
302.981
302.647
302.314
301.982
301.652
301.324
300.997
300.673
300.35
300.028
299.708
299.388
299.069
298.75
298.431
298.113
297.794
297.477
297.161
296.846
296.533
296.221
295.911
295.603
295.296
294.99
294.685
294.38
294.075
293.77
293.465
293.16
292.856
292.553
292.251
291.951
291.652
291.355
291.058
290.763
290.468
290.173
289.876
289.578
289.278
288.975
288.67
317.835
317.507
317.175
316.839
316.501
316.16
315.818
315.473
315.127
314.778
314.427
314.074
313.718
313.361
313.002
312.643
312.285
311.927
311.571
311.218
310.866
310.516
310.168
309.82
309.472
309.124
308.775
308.425
308.075
307.725
307.375
307.026
306.68
306.335
305.993
305.654
305.317
304.981
304.647
304.312
303.978
303.644
303.309
302.974
302.639
302.304
301.971
301.64
301.311
300.985
300.661
300.34
300.019
299.701
299.382
299.064
298.745
298.426
298.106
297.787
297.468
297.151
296.835
296.521
296.21
295.901
295.594
295.289
294.984
294.68
294.376
294.071
293.766
293.46
293.154
292.849
292.546
292.243
291.943
291.645
291.35
291.056
290.763
290.471
290.179
289.885
289.589
289.291
288.989
288.683
317.877
317.545
317.209
316.87
316.528
316.185
315.841
315.495
315.148
314.798
314.446
314.09
313.732
313.37
313.008
312.644
312.282
311.921
311.564
311.209
310.858
310.509
310.162
309.816
309.47
309.122
308.773
308.423
308.071
307.718
307.365
307.014
306.666
306.32
305.978
305.64
305.304
304.971
304.639
304.306
303.973
303.639
303.303
302.967
302.629
302.293
301.957
301.625
301.295
300.969
300.647
300.327
300.009
299.692
299.376
299.058
298.74
298.42
298.099
297.778
297.457
297.138
296.821
296.507
296.196
295.888
295.583
295.28
294.978
294.675
294.372
294.068
293.762
293.455
293.148
292.841
292.536
292.233
291.932
291.636
291.342
291.051
290.762
290.474
290.186
289.897
289.604
289.308
289.007
288.701
317.927
317.59
317.248
316.904
316.558
316.212
315.866
315.52
315.172
314.822
314.469
314.111
313.748
313.382
313.013
312.644
312.276
311.912
311.551
311.196
310.846
310.5
310.156
309.813
309.469
309.123
308.774
308.422
308.067
307.71
307.353
306.998
306.647
306.3
305.959
305.622
305.289
304.959
304.63
304.301
303.97
303.636
303.299
302.96
302.619
302.279
301.94
301.605
301.275
300.949
300.628
300.311
299.997
299.684
299.37
299.055
298.737
298.416
298.093
297.769
297.445
297.122
296.803
296.488
296.178
295.872
295.57
295.27
294.971
294.671
294.37
294.067
293.76
293.451
293.141
292.831
292.523
292.218
291.917
291.621
291.33
291.044
290.76
290.478
290.196
289.912
289.625
289.333
289.033
288.726
317.986
317.642
317.292
316.939
316.588
316.238
315.892
315.546
315.201
314.852
314.498
314.138
313.771
313.398
313.02
312.642
312.266
311.895
311.532
311.176
310.828
310.486
310.148
309.811
309.472
309.129
308.78
308.426
308.066
307.703
307.339
306.977
306.621
306.273
305.932
305.598
305.27
304.946
304.623
304.298
303.97
303.637
303.299
302.956
302.609
302.262
301.918
301.579
301.247
300.922
300.604
300.292
299.983
299.676
299.367
299.055
298.738
298.416
298.089
297.76
297.429
297.101
296.778
296.462
296.153
295.85
295.552
295.258
294.965
294.67
294.372
294.069
293.762
293.45
293.134
292.818
292.505
292.197
291.895
291.6
291.313
291.031
290.755
290.481
290.208
289.933
289.654
289.367
289.07
288.761
318.057
317.702
317.338
316.974
316.614
316.261
315.915
315.574
315.233
314.888
314.536
314.175
313.802
313.419
313.029
312.636
312.248
311.868
311.501
311.146
310.802
310.468
310.139
309.811
309.48
309.142
308.795
308.437
308.07
307.696
307.321
306.949
306.586
306.234
305.894
305.566
305.246
304.931
304.617
304.301
303.978
303.647
303.306
302.956
302.6
302.242
301.888
301.542
301.208
300.885
300.572
300.268
299.968
299.67
299.369
299.062
298.747
298.422
298.09
297.751
297.41
297.074
296.745
296.426
296.118
295.821
295.531
295.245
294.961
294.673
294.38
294.08
293.77
293.452
293.128
292.802
292.48
292.166
291.862
291.569
291.286
291.013
290.746
290.484
290.223
289.961
289.693
289.416
289.124
288.813
318.145
317.772
317.386
317.002
316.631
316.274
315.932
315.6
315.27
314.935
314.589
314.227
313.848
313.451
313.041
312.625
312.216
311.824
311.452
311.099
310.763
310.441
310.128
309.816
309.497
309.168
308.824
308.462
308.084
307.693
307.296
306.907
306.533
306.178
305.841
305.521
305.214
304.914
304.616
304.312
303.998
303.67
303.326
302.965
302.593
302.216
301.846
301.49
301.153
300.832
300.528
300.236
299.951
299.668
299.379
299.08
298.768
298.441
298.099
297.745
297.386
297.034
296.696
296.375
296.07
295.78
295.502
295.231
294.961
294.685
294.4
294.102
293.79
293.463
293.124
292.781
292.444
292.12
291.813
291.522
291.246
290.984
290.731
290.485
290.24
289.996
289.747
289.486
289.203
288.891
318.26
317.861
317.43
317.014
316.624
316.267
315.935
315.623
315.316
314.998
314.664
314.304
313.92
313.503
313.061
312.601
312.163
311.751
311.375
311.026
310.705
310.403
310.116
309.83
309.531
309.216
308.876
308.512
308.117
307.698
307.261
306.845
306.453
306.096
305.763
305.458
305.17
304.896
304.623
304.339
304.039
303.715
303.368
302.992
302.594
302.179
301.783
301.412
301.072
300.757
300.467
300.193
299.933
299.674
299.403
299.118
298.811
298.482
298.124
297.746
297.352
296.976
296.623
296.3
295.999
295.723
295.463
295.215
294.968
294.711
294.439
294.146
293.831
293.49
293.128
292.75
292.39
292.051
291.741
291.453
291.188
290.941
290.708
290.482
290.256
290.038
289.82
289.588
289.324
289.011
318.424
317.997
317.45
316.991
316.569
316.224
315.908
315.64
315.378
315.083
314.775
314.417
314.039
313.589
313.109
312.546
312.07
311.627
311.259
310.913
310.62
310.343
310.102
309.862
309.588
309.301
308.964
308.608
308.183
307.729
307.196
306.746
306.326
305.976
305.648
305.369
305.106
304.876
304.648
304.387
304.113
303.793
303.454
303.05
302.62
302.114
301.686
301.288
300.957
300.645
300.381
300.131
299.913
299.696
299.449
299.189
298.885
298.563
298.18
297.771
297.291
296.885
296.506
296.191
295.895
295.643
295.406
295.198
294.992
294.756
294.509
294.219
293.912
293.546
293.155
292.694
292.304
291.94
291.636
291.349
291.106
290.876
290.676
290.479
290.261
290.078
289.912
289.735
289.517
289.214
318.687
318.306
317.349
316.912
316.404
316.14
315.812
315.647
315.488
315.186
314.96
314.557
314.261
313.717
313.279
312.365
311.93
311.397
311.109
310.724
310.511
310.231
310.086
309.942
309.665
309.456
309.08
308.802
308.289
307.875
307.013
306.602
306.098
305.825
305.461
305.259
304.993
304.855
304.718
304.454
304.255
303.898
303.633
303.146
302.754
301.936
301.547
301.07
300.812
300.466
300.275
300.023
299.892
299.762
299.512
299.323
298.984
298.733
298.271
297.899
297.123
296.753
296.3
296.055
295.726
295.544
295.304
295.18
295.056
294.819
294.639
294.317
294.078
293.638
293.282
292.537
292.181
291.743
291.505
291.184
291.006
290.766
290.64
290.505
290.216
290.096
290.019
289.943
289.831
289.603
288.311
287.943
287.574
287.205
286.836
286.467
286.098
285.731
285.364
284.998
284.633
284.269
283.906
283.543
283.181
288.312
287.944
287.575
287.206
286.836
286.467
286.098
285.73
285.363
284.997
284.632
284.268
283.905
283.543
283.181
288.314
287.946
287.576
287.206
286.836
286.466
286.096
285.728
285.36
284.994
284.63
284.266
283.904
283.542
283.181
288.318
287.949
287.578
287.207
286.835
286.464
286.094
285.725
285.357
284.991
284.627
284.264
283.902
283.541
283.18
288.324
287.953
287.581
287.207
286.834
286.461
286.09
285.72
285.352
284.986
284.622
284.26
283.899
283.539
283.18
288.332
287.959
287.584
287.208
286.832
286.458
286.085
285.714
285.345
284.979
284.616
284.254
283.895
283.536
283.179
288.343
287.967
287.589
287.209
286.83
286.452
286.077
285.705
285.336
284.97
284.607
284.247
283.889
283.533
283.178
288.358
287.978
287.595
287.21
286.826
286.444
286.066
285.692
285.323
284.958
284.596
284.238
283.883
283.529
283.176
288.38
287.993
287.602
287.21
286.819
286.432
286.051
285.676
285.306
284.942
284.582
284.227
283.874
283.523
283.174
288.41
288.014
287.611
287.208
286.808
286.415
286.03
285.653
285.284
284.921
284.564
284.212
283.863
283.517
283.172
288.452
288.04
287.62
287.202
286.791
286.391
286.002
285.624
285.255
284.895
284.541
284.193
283.85
283.509
283.169
288.514
288.074
287.627
287.188
286.763
286.355
285.962
285.584
285.218
284.862
284.513
284.171
283.833
283.499
283.166
288.604
288.116
287.627
287.159
286.718
286.302
285.909
285.533
285.171
284.821
284.479
284.144
283.814
283.487
283.162
288.738
288.159
287.607
287.104
286.648
286.228
285.837
285.467
285.113
284.771
284.438
284.112
283.791
283.473
283.158
288.933
288.174
287.536
287.003
286.541
286.126
285.744
285.385
285.042
284.712
284.39
284.075
283.765
283.458
283.152
322.886
322.658
322.43
322.2
321.97
321.738
321.503
321.266
321.024
320.777
320.521
320.252
319.958
319.617
319.178
322.891
322.673
322.454
322.235
322.015
321.794
321.572
321.349
321.123
320.895
320.663
320.423
320.169
319.875
319.438
322.896
322.687
322.478
322.27
322.061
321.852
321.642
321.433
321.224
321.016
320.809
320.605
320.408
320.235
320.175
322.901
322.702
322.503
322.305
322.106
321.909
321.713
321.518
321.325
321.136
320.954
320.782
320.631
320.519
320.477
322.905
322.716
322.527
322.339
322.152
321.966
321.782
321.6
321.423
321.252
321.091
320.945
320.826
320.754
320.774
322.91
322.731
322.551
322.373
322.196
322.021
321.849
321.68
321.517
321.361
321.217
321.09
320.989
320.926
320.912
322.915
322.745
322.575
322.406
322.239
322.075
321.913
321.756
321.605
321.462
321.331
321.216
321.124
321.065
321.057
322.919
322.758
322.598
322.438
322.281
322.126
321.975
321.828
321.688
321.556
321.434
321.326
321.236
321.168
321.123
322.924
322.771
322.619
322.469
322.321
322.175
322.033
321.896
321.765
321.641
321.527
321.424
321.333
321.254
321.176
322.928
322.784
322.64
322.498
322.359
322.222
322.088
321.96
321.837
321.721
321.612
321.513
321.422
321.34
321.267
322.932
322.795
322.66
322.526
322.394
322.266
322.14
322.019
321.904
321.794
321.692
321.596
321.506
321.419
321.327
322.935
322.807
322.679
322.553
322.428
322.307
322.189
322.075
321.967
321.864
321.766
321.674
321.587
321.503
321.424
322.939
322.817
322.697
322.577
322.46
322.346
322.235
322.128
322.026
321.929
321.837
321.75
321.666
321.583
321.488
322.942
322.827
322.713
322.601
322.49
322.382
322.278
322.177
322.081
321.99
321.904
321.823
321.746
321.67
321.596
322.946
322.837
322.729
322.623
322.518
322.417
322.318
322.224
322.133
322.048
321.968
321.893
321.824
321.756
321.675
322.948
322.846
322.744
322.643
322.545
322.449
322.356
322.267
322.182
322.102
322.028
321.96
321.9
321.852
321.831
322.951
322.854
322.758
322.663
322.569
322.479
322.391
322.307
322.227
322.152
322.084
322.022
321.969
321.928
321.902
322.954
322.862
322.77
322.68
322.592
322.506
322.423
322.344
322.269
322.199
322.134
322.077
322.029
321.995
321.981
322.956
322.869
322.782
322.697
322.613
322.532
322.454
322.378
322.307
322.241
322.18
322.126
322.081
322.046
322.021
322.958
322.876
322.794
322.713
322.633
322.556
322.481
322.41
322.342
322.279
322.221
322.169
322.125
322.091
322.07
322.961
322.882
322.804
322.727
322.651
322.578
322.507
322.439
322.374
322.313
322.257
322.207
322.162
322.126
322.095
322.962
322.888
322.813
322.74
322.668
322.598
322.53
322.465
322.403
322.344
322.29
322.24
322.195
322.156
322.126
322.964
322.893
322.822
322.752
322.684
322.617
322.552
322.489
322.43
322.373
322.319
322.269
322.223
322.18
322.141
322.966
322.898
322.83
322.764
322.698
322.634
322.572
322.512
322.454
322.399
322.346
322.296
322.249
322.202
322.154
322.967
322.903
322.838
322.774
322.712
322.65
322.591
322.533
322.477
322.423
322.371
322.322
322.273
322.226
322.179
322.969
322.907
322.845
322.784
322.724
322.665
322.608
322.552
322.498
322.446
322.395
322.346
322.297
322.248
322.196
322.97
322.911
322.852
322.793
322.736
322.679
322.624
322.57
322.518
322.467
322.418
322.37
322.322
322.273
322.225
322.971
322.915
322.858
322.802
322.747
322.692
322.639
322.588
322.537
322.488
322.44
322.393
322.346
322.298
322.245
322.973
322.918
322.864
322.81
322.757
322.705
322.654
322.604
322.555
322.508
322.462
322.417
322.372
322.327
322.28
322.974
322.921
322.869
322.817
322.767
322.716
322.667
322.619
322.573
322.527
322.483
322.44
322.398
322.356
322.307
322.975
322.924
322.874
322.825
322.776
322.727
322.68
322.634
322.589
322.545
322.503
322.463
322.424
322.389
322.362
322.976
322.927
322.879
322.831
322.784
322.737
322.692
322.647
322.604
322.562
322.522
322.484
322.448
322.416
322.387
322.977
322.93
322.883
322.837
322.792
322.747
322.703
322.66
322.619
322.578
322.54
322.503
322.469
322.44
322.417
322.977
322.932
322.888
322.843
322.799
322.756
322.714
322.672
322.632
322.593
322.556
322.521
322.488
322.459
322.432
322.978
322.935
322.892
322.849
322.806
322.764
322.723
322.683
322.644
322.607
322.571
322.536
322.505
322.476
322.452
322.979
322.937
322.895
322.854
322.813
322.772
322.733
322.694
322.656
322.619
322.584
322.55
322.519
322.49
322.462
322.98
322.939
322.899
322.859
322.819
322.78
322.741
322.704
322.667
322.631
322.596
322.563
322.531
322.502
322.475
322.98
322.941
322.902
322.863
322.825
322.787
322.749
322.713
322.677
322.642
322.608
322.575
322.543
322.512
322.482
322.981
322.943
322.905
322.867
322.83
322.793
322.757
322.721
322.686
322.652
322.618
322.585
322.553
322.521
322.488
322.982
322.945
322.908
322.871
322.835
322.799
322.764
322.729
322.695
322.661
322.628
322.596
322.564
322.531
322.499
322.982
322.946
322.91
322.875
322.84
322.805
322.771
322.737
322.703
322.671
322.638
322.606
322.574
322.541
322.507
322.983
322.948
322.913
322.878
322.844
322.81
322.777
322.744
322.712
322.68
322.648
322.616
322.585
322.553
322.521
322.983
322.949
322.915
322.882
322.848
322.816
322.783
322.751
322.719
322.688
322.657
322.627
322.596
322.564
322.53
322.983
322.95
322.918
322.885
322.852
322.82
322.789
322.758
322.727
322.697
322.667
322.637
322.608
322.578
322.547
322.984
322.952
322.92
322.888
322.856
322.825
322.794
322.764
322.734
322.705
322.676
322.648
322.62
322.592
322.561
322.984
322.953
322.922
322.89
322.86
322.829
322.799
322.77
322.741
322.712
322.685
322.658
322.632
322.608
322.588
322.985
322.954
322.923
322.893
322.863
322.833
322.804
322.775
322.747
322.72
322.693
322.668
322.643
322.621
322.6
322.985
322.955
322.925
322.895
322.866
322.837
322.808
322.78
322.753
322.726
322.701
322.676
322.653
322.632
322.615
322.985
322.956
322.926
322.897
322.869
322.84
322.812
322.785
322.758
322.733
322.708
322.684
322.662
322.641
322.622
322.986
322.957
322.928
322.899
322.871
322.843
322.816
322.789
322.763
322.738
322.714
322.691
322.669
322.649
322.632
322.986
322.957
322.929
322.901
322.873
322.846
322.819
322.793
322.767
322.743
322.719
322.696
322.675
322.655
322.636
322.986
322.958
322.93
322.902
322.875
322.848
322.822
322.796
322.771
322.747
322.723
322.701
322.68
322.66
322.642
322.986
322.958
322.931
322.903
322.876
322.85
322.824
322.799
322.774
322.75
322.727
322.705
322.684
322.664
322.645
322.986
322.959
322.931
322.904
322.878
322.851
322.826
322.801
322.776
322.753
322.73
322.708
322.688
322.667
322.647
322.986
322.959
322.932
322.905
322.879
322.853
322.827
322.802
322.778
322.755
322.733
322.711
322.69
322.671
322.651
322.986
322.959
322.932
322.905
322.879
322.853
322.828
322.803
322.78
322.757
322.735
322.713
322.693
322.673
322.654
322.986
322.959
322.932
322.906
322.879
322.854
322.828
322.804
322.78
322.758
322.736
322.715
322.695
322.676
322.658
322.986
322.959
322.932
322.906
322.879
322.854
322.828
322.804
322.781
322.758
322.736
322.716
322.696
322.677
322.659
322.986
322.959
322.932
322.905
322.879
322.853
322.828
322.804
322.78
322.758
322.736
322.716
322.697
322.679
322.662
322.986
322.959
322.931
322.904
322.878
322.852
322.827
322.802
322.779
322.757
322.735
322.715
322.697
322.679
322.663
322.986
322.958
322.931
322.903
322.876
322.85
322.825
322.801
322.777
322.755
322.734
322.714
322.695
322.678
322.662
322.986
322.958
322.929
322.902
322.875
322.848
322.823
322.798
322.775
322.752
322.731
322.712
322.693
322.676
322.661
322.986
322.957
322.928
322.9
322.872
322.846
322.82
322.795
322.771
322.749
322.728
322.708
322.69
322.674
322.658
322.985
322.956
322.926
322.898
322.87
322.842
322.816
322.791
322.767
322.745
322.724
322.704
322.686
322.67
322.655
322.985
322.955
322.925
322.895
322.866
322.838
322.811
322.786
322.762
322.739
322.718
322.699
322.681
322.665
322.65
322.984
322.953
322.922
322.892
322.862
322.834
322.806
322.78
322.755
322.732
322.711
322.692
322.675
322.66
322.646
322.984
322.951
322.92
322.888
322.858
322.828
322.8
322.773
322.748
322.725
322.703
322.684
322.668
322.653
322.639
322.983
322.95
322.916
322.884
322.852
322.822
322.792
322.765
322.739
322.715
322.694
322.675
322.659
322.646
322.635
322.982
322.948
322.913
322.879
322.846
322.814
322.784
322.755
322.729
322.704
322.683
322.664
322.648
322.637
322.629
322.982
322.945
322.909
322.874
322.839
322.806
322.774
322.744
322.717
322.691
322.669
322.65
322.635
322.624
322.617
322.981
322.942
322.905
322.867
322.831
322.796
322.763
322.732
322.703
322.677
322.653
322.634
322.619
322.609
322.607
322.98
322.94
322.9
322.861
322.823
322.786
322.751
322.718
322.687
322.66
322.635
322.615
322.599
322.589
322.585
322.979
322.936
322.894
322.853
322.813
322.774
322.737
322.702
322.67
322.64
322.614
322.592
322.575
322.565
322.566
322.977
322.933
322.888
322.845
322.802
322.761
322.722
322.685
322.651
322.619
322.59
322.566
322.546
322.533
322.528
322.976
322.929
322.882
322.836
322.791
322.747
322.706
322.666
322.629
322.595
322.564
322.536
322.513
322.495
322.493
322.975
322.924
322.875
322.826
322.778
322.732
322.687
322.645
322.606
322.569
322.535
322.503
322.475
322.448
322.414
322.973
322.92
322.867
322.815
322.764
322.715
322.668
322.623
322.581
322.541
322.504
322.469
322.436
322.404
322.374
322.971
322.915
322.858
322.803
322.749
322.697
322.647
322.599
322.554
322.511
322.471
322.433
322.397
322.36
322.317
322.97
322.909
322.849
322.79
322.733
322.677
322.624
322.573
322.525
322.479
322.437
322.396
322.358
322.32
322.284
322.968
322.903
322.839
322.777
322.716
322.656
322.599
322.545
322.494
322.446
322.401
322.359
322.318
322.278
322.234
322.966
322.897
322.829
322.762
322.697
322.634
322.573
322.515
322.461
322.41
322.363
322.319
322.278
322.239
322.203
322.963
322.89
322.817
322.746
322.677
322.609
322.545
322.483
322.426
322.372
322.323
322.278
322.237
322.198
322.157
322.961
322.883
322.805
322.729
322.655
322.583
322.514
322.448
322.387
322.331
322.28
322.234
322.194
322.159
322.131
322.958
322.875
322.792
322.711
322.631
322.554
322.481
322.411
322.346
322.286
322.233
322.187
322.147
322.116
322.099
322.955
322.866
322.778
322.691
322.606
322.524
322.445
322.37
322.3
322.237
322.181
322.134
322.095
322.063
322.024
322.952
322.857
322.763
322.67
322.579
322.491
322.406
322.325
322.25
322.183
322.124
322.076
322.039
322.014
321.991
322.949
322.848
322.747
322.648
322.551
322.455
322.364
322.277
322.195
322.122
322.059
322.009
321.976
321.962
321.967
322.946
322.838
322.731
322.625
322.52
322.418
322.319
322.224
322.135
322.054
321.984
321.93
321.899
321.898
321.938
322.942
322.828
322.713
322.6
322.488
322.378
322.271
322.167
322.069
321.979
321.899
321.836
321.8
321.806
321.885
322.939
322.817
322.695
322.574
322.454
322.336
322.22
322.107
321.998
321.896
321.802
321.724
321.671
321.664
321.765
289.138
288.076
287.377
286.845
286.399
286.003
285.638
285.295
284.967
284.649
284.34
284.037
283.738
283.441
283.147
288.763
287.735
287.115
286.641
286.236
285.869
285.527
285.203
284.89
284.587
284.29
283.999
283.711
283.426
283.142
287.284
287.109
286.753
286.39
286.045
285.718
285.404
285.102
284.808
284.52
284.237
283.959
283.683
283.409
283.136
286.702
286.61
286.395
286.127
285.843
285.557
285.274
284.995
284.72
284.449
284.182
283.917
283.653
283.391
283.13
286.152
286.195
286.073
285.875
285.642
285.394
285.141
284.885
284.631
284.377
284.124
283.873
283.623
283.373
283.124
285.903
285.896
285.803
285.647
285.452
285.236
285.008
284.776
284.54
284.303
284.066
283.829
283.592
283.355
283.118
285.644
285.657
285.579
285.445
285.276
285.085
284.88
284.668
284.45
284.23
284.007
283.784
283.56
283.336
283.112
285.528
285.481
285.392
285.268
285.115
284.943
284.758
284.563
284.362
284.157
283.95
283.74
283.529
283.318
283.106
285.436
285.334
285.231
285.109
284.968
284.811
284.642
284.463
284.277
284.087
283.893
283.697
283.499
283.3
283.1
285.277
285.188
285.083
284.965
284.832
284.687
284.532
284.367
284.196
284.019
283.838
283.655
283.469
283.282
283.094
285.174
285.053
284.944
284.829
284.705
284.571
284.428
284.276
284.118
283.954
283.786
283.614
283.44
283.265
283.088
285.004
284.911
284.808
284.7
284.585
284.462
284.33
284.19
284.044
283.892
283.735
283.575
283.413
283.248
283.083
284.894
284.776
284.676
284.577
284.471
284.358
284.237
284.109
283.974
283.833
283.687
283.538
283.386
283.233
283.078
284.708
284.628
284.544
284.457
284.362
284.26
284.15
284.032
283.907
283.777
283.642
283.503
283.361
283.218
283.073
284.573
284.483
284.415
284.341
284.259
284.168
284.068
283.96
283.845
283.725
283.599
283.47
283.338
283.203
283.068
284.311
284.324
284.288
284.232
284.162
284.082
283.991
283.893
283.787
283.675
283.559
283.439
283.315
283.19
283.063
284.194
284.198
284.176
284.132
284.073
284.002
283.92
283.83
283.733
283.63
283.522
283.41
283.295
283.178
283.059
284.065
284.09
284.078
284.044
283.993
283.929
283.855
283.773
283.683
283.587
283.487
283.383
283.275
283.166
283.055
284.001
284.008
283.996
283.966
283.921
283.864
283.796
283.72
283.637
283.548
283.455
283.357
283.257
283.155
283.052
283.926
283.938
283.928
283.9
283.858
283.805
283.743
283.672
283.595
283.512
283.425
283.334
283.241
283.145
283.049
283.887
283.885
283.87
283.843
283.803
283.753
283.695
283.629
283.557
283.48
283.398
283.313
283.226
283.136
283.046
283.843
283.84
283.823
283.794
283.755
283.707
283.652
283.59
283.523
283.45
283.374
283.294
283.212
283.128
283.043
283.822
283.806
283.782
283.751
283.713
283.667
283.614
283.555
283.492
283.424
283.352
283.277
283.199
283.12
283.04
283.805
283.776
283.748
283.714
283.675
283.63
283.58
283.524
283.464
283.399
283.332
283.261
283.188
283.113
283.038
283.775
283.747
283.716
283.681
283.642
283.598
283.55
283.496
283.439
283.378
283.313
283.246
283.178
283.107
283.036
283.755
283.721
283.687
283.652
283.613
283.57
283.522
283.471
283.416
283.358
283.297
283.234
283.168
283.101
283.034
283.724
283.693
283.66
283.624
283.586
283.544
283.498
283.449
283.396
283.341
283.282
283.222
283.16
283.096
283.032
283.704
283.668
283.634
283.599
283.561
283.52
283.476
283.429
283.378
283.325
283.269
283.212
283.152
283.092
283.031
283.671
283.641
283.609
283.575
283.539
283.499
283.456
283.411
283.362
283.311
283.258
283.202
283.146
283.088
283.029
283.648
283.616
283.586
283.554
283.518
283.48
283.439
283.394
283.348
283.298
283.247
283.194
283.14
283.084
283.028
283.606
283.59
283.564
283.534
283.5
283.463
283.423
283.38
283.335
283.287
283.238
283.187
283.134
283.081
283.027
283.588
283.57
283.545
283.517
283.484
283.448
283.409
283.368
283.324
283.278
283.23
283.18
283.13
283.078
283.026
283.57
283.553
283.53
283.502
283.47
283.435
283.397
283.357
283.314
283.269
283.223
283.175
283.126
283.076
283.025
283.562
283.542
283.518
283.49
283.459
283.425
283.387
283.348
283.306
283.262
283.217
283.17
283.122
283.074
283.025
283.553
283.533
283.509
283.481
283.45
283.416
283.379
283.34
283.299
283.256
283.212
283.166
283.119
283.072
283.024
283.549
283.527
283.502
283.473
283.442
283.409
283.372
283.334
283.293
283.251
283.208
283.163
283.117
283.07
283.024
283.546
283.523
283.497
283.468