/*--------------------------------*- C++ -*----------------------------------*\
| =========                 |                                                 |
| \\      /  F ield         | OpenFOAM: The Open Source CFD Toolbox           |
|  \\    /   O peration     | Version:  5.x                                   |
|   \\  /    A nd           | Web:      www.OpenFOAM.org                      |
|    \\/     M anipulation  |                                                 |
\*---------------------------------------------------------------------------*/
FoamFile
{
    version     2.0;
    format      ascii;
    class       volScalarField;
    location    "7";
    object      gradTy;
}
// * * * * * * * * * * * * * * * * * * * * * * * * * * * * * * * * * * * * * //

dimensions      [0 -1 0 1 0 0 0];

internalField   nonuniform List<scalar> 
2048
(
-26.4235
-26.3959
-26.3416
-26.2619
-26.1591
-26.0357
-25.8945
-25.7382
-25.5696
-25.3914
-25.2059
-25.0153
-24.8215
-24.6261
-24.4308
-24.2367
-24.0451
-23.8568
-23.6726
-23.4931
-23.3187
-23.1498
-22.9866
-22.8294
-22.6783
-22.5337
-22.3959
-22.2651
-22.1417
-22.0262
-21.9192
-21.8214
-21.7333
-21.656
-21.5903
-21.5372
-21.4979
-21.4735
-21.4653
-21.4744
-21.5023
-21.55
-21.6189
-21.71
-21.8245
-21.9629
-22.1257
-22.3128
-22.5236
-22.7567
-23.0096
-23.2793
-23.5613
-23.8504
-24.1406
-24.4253
-24.6976
-24.9511
-25.1796
-25.3777
-25.5412
-25.6666
-25.7515
-25.7943
-26.4459
-26.4176
-26.362
-26.2806
-26.1758
-26.0502
-25.9066
-25.7481
-25.5774
-25.3973
-25.2101
-25.0179
-24.8227
-24.6261
-24.4297
-24.2348
-24.0424
-23.8535
-23.6688
-23.489
-23.3143
-23.1452
-22.9818
-22.8244
-22.6731
-22.5283
-22.3902
-22.259
-22.1353
-22.0194
-21.9119
-21.8134
-21.7247
-21.6466
-21.58
-21.5261
-21.4858
-21.4605
-21.4512
-21.4594
-21.4861
-21.5329
-21.6009
-21.6912
-21.805
-21.9431
-22.106
-22.2937
-22.5056
-22.7405
-22.9962
-23.2693
-23.5555
-23.8495
-24.1451
-24.4352
-24.7129
-24.9713
-25.2041
-25.4058
-25.572
-25.6994
-25.7855
-25.829
-26.4886
-26.4591
-26.401
-26.3163
-26.2075
-26.0775
-25.9296
-25.7668
-25.5921
-25.4083
-25.2178
-25.0227
-24.8249
-24.626
-24.4276
-24.231
-24.0372
-23.8471
-23.6616
-23.4811
-23.3059
-23.1364
-22.9726
-22.8149
-22.6633
-22.518
-22.3794
-22.2477
-22.1232
-22.0065
-21.898
-21.7984
-21.7084
-21.6288
-21.5607
-21.5051
-21.463
-21.4358
-21.4246
-21.4308
-21.4556
-21.5005
-21.5667
-21.6555
-21.7681
-21.9055
-22.0684
-22.257
-22.471
-22.7094
-22.9701
-23.2498
-23.5442
-23.8476
-24.1534
-24.4541
-24.7421
-25.01
-25.251
-25.4595
-25.6309
-25.7619
-25.8504
-25.895
-26.5498
-26.5184
-26.4568
-26.3671
-26.2524
-26.1161
-25.9618
-25.7928
-25.6125
-25.4235
-25.2284
-25.0291
-24.8277
-24.6256
-24.4244
-24.2253
-24.0296
-23.838
-23.6512
-23.4698
-23.294
-23.1239
-22.9598
-22.8016
-22.6495
-22.5037
-22.3643
-22.2318
-22.1063
-21.9884
-21.8786
-21.7773
-21.6855
-21.6039
-21.5336
-21.4755
-21.431
-21.4011
-21.3871
-21.3905
-21.4126
-21.4547
-21.5183
-21.6048
-21.7156
-21.8519
-22.0146
-22.2043
-22.4212
-22.6643
-22.9319
-23.221
-23.5271
-23.8441
-24.1648
-24.481
-24.784
-25.0656
-25.3184
-25.5364
-25.7151
-25.8512
-25.9428
-25.9889
-26.6282
-26.5943
-26.5278
-26.4316
-26.3091
-26.1645
-26.0018
-25.825
-25.6374
-25.442
-25.2411
-25.0367
-24.8307
-24.6246
-24.4199
-24.2179
-24.0197
-23.8261
-23.6379
-23.4554
-23.2789
-23.1083
-22.9437
-22.785
-22.6323
-22.4858
-22.3456
-22.212
-22.0854
-21.9661
-21.8545
-21.7513
-21.6572
-21.573
-21.4999
-21.4388
-21.391
-21.3577
-21.3404
-21.3402
-21.3587
-21.3973
-21.4576
-21.541
-21.6493
-21.7839
-21.9461
-22.1369
-22.3568
-22.6056
-22.8819
-23.1828
-23.5038
-23.8385
-24.1787
-24.515
-24.8376
-25.137
-25.4049
-25.6349
-25.8224
-25.9647
-26.06
-26.1079
-26.7228
-26.6856
-26.613
-26.5083
-26.3761
-26.2212
-26.0483
-25.862
-25.6658
-25.4628
-25.2552
-25.0449
-24.8337
-24.623
-24.4142
-24.2086
-24.0075
-23.8117
-23.6219
-23.4383
-23.261
-23.0899
-22.9248
-22.7656
-22.6123
-22.465
-22.3239
-22.1892
-22.0612
-21.9402
-21.8267
-21.7211
-21.6243
-21.5371
-21.4606
-21.3959
-21.3443
-21.3071
-21.2857
-21.2813
-21.2955
-21.3299
-21.386
-21.4657
-21.5707
-21.7029
-21.864
-22.0555
-22.2787
-22.5337
-22.8199
-23.1347
-23.4737
-23.8299
-24.1942
-24.5555
-24.9023
-25.2234
-25.5095
-25.7536
-25.9513
-26.1003
-26.1996
-26.2493
-26.833
-26.7916
-26.7113
-26.5963
-26.4522
-26.2848
-26.1
-25.9026
-25.6967
-25.4851
-25.2701
-25.0534
-24.8363
-24.6203
-24.4069
-24.1974
-23.993
-23.7948
-23.6033
-23.4186
-23.2407
-23.0691
-22.9037
-22.744
-22.5901
-22.4419
-22.2997
-22.1638
-22.0343
-21.9115
-21.7958
-21.6876
-21.5878
-21.4971
-21.4168
-21.348
-21.2921
-21.2504
-21.2243
-21.2151
-21.2245
-21.2539
-21.3052
-21.3802
-21.4812
-21.6101
-21.7694
-21.9611
-22.187
-22.4485
-22.7454
-23.076
-23.4358
-23.8175
-24.2105
-24.6019
-24.9777
-25.3245
-25.6317
-25.8916
-26.1003
-26.2562
-26.3594
-26.4108
-26.9582
-26.9119
-26.8222
-26.6946
-26.5361
-26.3542
-26.1554
-25.9456
-25.7289
-25.5081
-25.2853
-25.0616
-24.8382
-24.6166
-24.3981
-24.1842
-23.9763
-23.7754
-23.5821
-23.3965
-23.2181
-23.0464
-22.8806
-22.7206
-22.5659
-22.4169
-22.2736
-22.1363
-22.0053
-21.8806
-21.7626
-21.6516
-21.5484
-21.4539
-21.3693
-21.2959
-21.2353
-21.1886
-21.1574
-21.1429
-21.1468
-21.1706
-21.2163
-21.286
-21.382
-21.5068
-21.6633
-21.8542
-22.0823
-22.3498
-22.658
-23.0057
-23.3891
-23.8002
-24.2269
-24.6538
-25.0637
-25.4404
-25.7713
-26.0484
-26.2682
-26.4307
-26.5373
-26.5901
-27.0985
-27.046
-26.9449
-26.8022
-26.6269
-26.4279
-26.2134
-25.9898
-25.7615
-25.5311
-25.3001
-25.0692
-24.8394
-24.6117
-24.3876
-24.1689
-23.9571
-23.7535
-23.5586
-23.3722
-23.1936
-23.0219
-22.8561
-22.6957
-22.5404
-22.3904
-22.2459
-22.1073
-21.9747
-21.8482
-21.7277
-21.6137
-21.5068
-21.4081
-21.3189
-21.2406
-21.1747
-21.1227
-21.0859
-21.0658
-21.0637
-21.0813
-21.1208
-21.1842
-21.2743
-21.394
-21.5465
-21.7355
-21.9647
-22.2376
-22.5569
-22.9228
-23.3322
-23.7768
-24.2426
-24.711
-25.1606
-25.5714
-25.9286
-26.2236
-26.4542
-26.6222
-26.7313
-26.7848
-27.2538
-27.1939
-27.079
-26.9184
-26.7232
-26.5047
-26.2726
-26.034
-25.7936
-25.5534
-25.3142
-25.0762
-24.8396
-24.6055
-24.3754
-24.1514
-23.9355
-23.7291
-23.5326
-23.3457
-23.1674
-22.9961
-22.8305
-22.6699
-22.5139
-22.3628
-22.2171
-22.0772
-21.9431
-21.8147
-21.6918
-21.5746
-21.4638
-21.3605
-21.2662
-21.1826
-21.1112
-21.0535
-21.0109
-20.9846
-20.9761
-20.9871
-21.0196
-21.0761
-21.1594
-21.2729
-21.4202
-21.6057
-21.8345
-22.1116
-22.4414
-22.8261
-23.2637
-23.7458
-24.2566
-24.7732
-25.2688
-25.7184
-26.104
-26.4171
-26.6573
-26.8293
-26.9393
-26.9928
-27.4245
-27.3555
-27.2242
-27.0422
-26.8239
-26.5832
-26.3315
-26.077
-25.8241
-25.5743
-25.3273
-25.0822
-24.8389
-24.598
-24.3615
-24.1318
-23.9114
-23.702
-23.5042
-23.3173
-23.1397
-22.9693
-22.8042
-22.6434
-22.4867
-22.3345
-22.1874
-22.0462
-21.9107
-21.7806
-21.6552
-21.5348
-21.4198
-21.3116
-21.2119
-21.1226
-21.0454
-20.9818
-20.9331
-20.9005
-20.8853
-20.8891
-20.914
-20.9628
-21.0384
-21.1445
-21.2852
-21.4657
-21.6922
-21.9716
-22.3106
-22.714
-23.1817
-23.7056
-24.2678
-24.8404
-25.3894
-25.8826
-26.2985
-26.629
-26.8767
-27.0501
-27.1591
-27.2114
-27.611
-27.5311
-27.3801
-27.1729
-26.9278
-26.6619
-26.3889
-26.1176
-25.8523
-25.5934
-25.3392
-25.0875
-24.8374
-24.5895
-24.3459
-24.1098
-23.8846
-23.6722
-23.4734
-23.287
-23.1108
-22.9418
-22.7776
-22.6168
-22.4592
-22.3056
-22.1571
-22.0146
-21.878
-21.7463
-21.6187
-21.4949
-21.3755
-21.262
-21.1565
-21.0611
-20.9778
-20.9082
-20.8533
-20.8141
-20.7919
-20.7881
-20.805
-20.8454
-20.9124
-21.01
-21.1426
-21.3163
-21.5383
-21.8176
-22.1639
-22.5852
-23.0844
-23.6543
-24.2751
-24.9127
-25.5234
-26.0656
-26.5134
-26.8596
-27.1116
-27.2832
-27.3884
-27.4382
-27.8139
-27.7211
-27.5465
-27.3097
-27.0336
-26.7395
-26.4433
-26.1546
-25.8773
-25.6103
-25.3498
-25.092
-24.8352
-24.58
-24.3286
-24.0855
-23.855
-23.6396
-23.44
-23.2549
-23.0809
-22.9141
-22.7511
-22.5903
-22.4317
-22.2764
-22.1262
-21.9826
-21.8451
-21.7123
-21.5825
-21.4553
-21.3313
-21.2121
-21.1003
-20.9986
-20.909
-20.8332
-20.772
-20.7263
-20.6969
-20.6852
-20.6935
-20.7248
-20.7825
-20.8705
-20.9936
-21.1584
-21.3734
-21.6497
-22.0004
-22.4381
-22.9695
-23.5897
-24.277
-24.9902
-25.6726
-26.2697
-26.7501
-27.1093
-27.3612
-27.5266
-27.6249
-27.6705
-28.0342
-27.9257
-27.7233
-27.4516
-27.1398
-26.8144
-26.4932
-26.1868
-25.8983
-25.6245
-25.3591
-25.096
-24.8328
-24.5697
-24.3098
-24.0587
-23.8224
-23.6039
-23.404
-23.221
-23.0503
-22.8865
-22.7251
-22.5643
-22.4044
-22.2469
-22.0949
-21.9503
-21.8124
-21.6788
-21.5472
-21.4166
-21.2877
-21.1623
-21.0438
-20.9353
-20.8394
-20.7573
-20.69
-20.6377
-20.601
-20.5811
-20.5804
-20.602
-20.6497
-20.7271
-20.8393
-20.9932
-21.1984
-21.468
-21.8195
-22.271
-22.8347
-23.5089
-24.2714
-25.073
-25.8393
-26.4979
-27.0106
-27.3783
-27.6242
-27.7782
-27.8661
-27.9056
-28.2729
-28.1456
-27.9103
-27.5976
-27.245
-26.8849
-26.5373
-26.2129
-25.9146
-25.6361
-25.3674
-25.0999
-24.8304
-24.5591
-24.2895
-24.0293
-23.7866
-23.565
-23.3653
-23.1854
-23.0193
-22.8595
-22.7001
-22.5392
-22.3776
-22.2174
-22.063
-21.9176
-21.78
-21.6464
-21.5131
-21.3791
-21.2451
-21.113
-20.987
-20.8716
-20.7691
-20.6809
-20.6076
-20.549
-20.505
-20.4766
-20.4663
-20.4779
-20.5149
-20.581
-20.681
-20.822
-21.0143
-21.2732
-21.6208
-22.0822
-22.6773
-23.409
-24.2561
-25.1612
-26.0264
-26.7535
-27.2972
-27.6669
-27.8995
-28.0361
-28.1092
-28.1406
-28.5311
-28.3814
-28.1073
-27.7468
-27.3474
-26.9494
-26.5739
-26.2318
-25.9255
-25.6448
-25.3751
-25.1042
-24.8285
-24.5486
-24.2678
-23.9971
-23.7475
-23.5227
-23.3236
-23.1481
-22.9881
-22.8335
-22.6765
-22.5155
-22.3517
-22.1878
-22.0304
-21.8845
-21.748
-21.6153
-21.4807
-21.3433
-21.2038
-21.0643
-20.9303
-20.8077
-20.6986
-20.6043
-20.5254
-20.4607
-20.4094
-20.3723
-20.3522
-20.3532
-20.3792
-20.4333
-20.5198
-20.6462
-20.8226
-21.0659
-21.4038
-21.8702
-22.4945
-23.2863
-24.2278
-25.255
-26.2379
-27.0412
-27.6123
-27.9752
-28.1856
-28.2976
-28.3517
-28.3729
-28.8103
-28.6338
-28.3143
-27.8978
-27.4451
-27.0063
-26.6017
-26.2422
-25.9304
-25.6507
-25.3827
-25.1092
-24.8275
-24.5387
-24.2449
-23.9617
-23.7047
-23.4766
-23.2785
-23.1091
-22.9572
-22.8092
-22.6547
-22.4933
-22.327
-22.1581
-21.9967
-21.8508
-21.7167
-21.5858
-21.4503
-21.3094
-21.1644
-21.0165
-20.8736
-20.7436
-20.628
-20.5278
-20.4436
-20.3733
-20.315
-20.2689
-20.2384
-20.2285
-20.2433
-20.285
-20.3571
-20.4672
-20.6248
-20.8472
-21.1687
-21.6335
-22.2836
-23.1368
-24.1824
-25.3543
-26.4788
-27.3663
-27.9585
-28.3031
-28.4804
-28.5603
-28.5907
-28.5997
-29.1121
-28.9034
-28.5315
-28.0493
-27.5358
-27.0541
-26.6194
-26.2427
-25.9287
-25.6541
-25.391
-25.1156
-24.828
-24.5303
-24.221
-23.9226
-23.6581
-23.4266
-23.2298
-23.0684
-22.9268
-22.7872
-22.6353
-22.473
-22.3038
-22.1283
-21.9614
-21.8162
-21.6861
-21.5586
-21.4223
-21.2779
-21.1272
-20.9699
-20.8169
-20.6794
-20.5574
-20.4515
-20.3627
-20.2874
-20.2223
-20.1669
-20.1255
-20.1044
-20.108
-20.1372
-20.1939
-20.2866
-20.4229
-20.6184
-20.9155
-21.3705
-22.042
-22.9559
-24.1142
-25.4586
-26.7558
-27.7354
-28.3383
-28.6496
-28.7816
-28.8213
-28.8236
-28.8183
-29.4384
-29.1906
-28.759
-28.2
-27.6168
-27.0913
-26.6259
-26.232
-25.92
-25.6553
-25.4011
-25.124
-24.8302
-24.5243
-24.1961
-23.8792
-23.6076
-23.3726
-23.1769
-23.0259
-22.8973
-22.7683
-22.6186
-22.4549
-22.2828
-22.0981
-21.9238
-21.7805
-21.6564
-21.5342
-21.397
-21.2488
-21.0928
-20.9244
-20.7599
-20.6153
-20.4869
-20.3754
-20.283
-20.2034
-20.132
-20.0668
-20.0139
-19.9813
-19.974
-19.9909
-20.0313
-20.106
-20.219
-20.3813
-20.6449
-21.0799
-21.7673
-22.7388
-24.0156
-25.567
-27.0777
-28.1561
-28.7542
-29.0134
-29.0863
-29.0778
-29.0477
-29.0265
-29.7912
-29.4956
-28.9976
-28.3481
-27.6849
-27.1169
-26.6204
-26.2083
-25.9039
-25.6546
-25.4146
-25.1348
-24.8344
-24.5222
-24.1704
-23.8303
-23.5532
-23.3144
-23.1189
-22.9816
-22.8692
-22.7537
-22.605
-22.439
-22.2647
-22.0676
-21.8828
-21.7432
-21.6276
-21.5133
-21.3746
-21.2223
-21.062
-20.8804
-20.702
-20.5512
-20.4168
-20.2994
-20.2046
-20.1216
-20.0445
-19.9691
-19.9039
-19.8593
-19.8418
-19.8471
-19.8702
-19.9269
-20.0158
-20.1377
-20.3578
-20.7604
-21.4576
-22.4811
-23.8762
-25.6773
-27.4566
-28.6375
-29.2077
-29.3922
-29.3913
-29.3266
-29.2606
-29.2222
-30.1732
-29.8178
-29.2487
-28.4919
-27.7357
-27.1306
-26.6024
-26.1694
-25.8802
-25.6526
-25.4334
-25.1482
-24.8402
-24.526
-24.1441
-23.774
-23.4953
-23.2523
-23.0547
-22.9354
-22.8429
-22.7446
-22.5946
-22.425
-22.2508
-22.0366
-21.8367
-21.7039
-21.5999
-21.4969
-21.3553
-21.1982
-21.0357
-20.8378
-20.6426
-20.4875
-20.3472
-20.2234
-20.1278
-20.0426
-19.9605
-19.874
-19.7955
-19.7387
-19.712
-19.7069
-19.7111
-19.7507
-19.8165
-19.89
-20.0557
-20.4105
-21.1123
-22.1785
-23.682
-25.7863
-27.9089
-29.1898
-29.6997
-29.7824
-29.6926
-29.5649
-29.4602
-29.4035
-30.5874
-30.1555
-29.5146
-28.6293
-27.7637
-27.1331
-26.572
-26.1124
-25.8491
-25.6494
-25.4605
-25.1641
-24.8467
-24.539
-24.1173
-23.7077
-23.4351
-23.1866
-22.9825
-22.8876
-22.8184
-22.743
-22.5873
-22.4123
-22.2431
-22.0049
-21.7835
-21.6623
-21.5733
-21.4865
-21.3389
-21.1759
-21.0153
-20.7966
-20.5803
-20.4245
-20.2783
-20.1469
-20.0529
-19.9665
-19.8809
-19.782
-19.6889
-19.6191
-19.5849
-19.5714
-19.554
-19.5787
-19.6247
-19.6402
-19.7406
-20.028
-20.7318
-21.8289
-23.4138
-25.8881
-28.4569
-29.8241
-30.2291
-30.1795
-29.9861
-29.7896
-29.6444
-29.5691
-31.0379
-30.505
-29.7995
-28.7584
-27.7609
-27.1266
-26.5301
-26.0332
-25.8113
-25.6451
-25.4998
-25.182
-24.8517
-24.5657
-24.0901
-23.6271
-23.3744
-23.1182
-22.8997
-22.8387
-22.7958
-22.7516
-22.5828
-22.3995
-22.2442
-21.9725
-21.72
-21.6185
-21.5475
-21.4842
-21.3251
-21.1544
-21.0032
-20.7569
-20.5132
-20.3631
-20.2105
-20.069
-19.9803
-19.8937
-19.8063
-19.6933
-19.5841
-19.5002
-19.4607
-19.4423
-19.3984
-19.4114
-19.445
-19.3907
-19.4156
-19.6097
-20.3183
-21.4328
-23.0458
-25.9737
-29.1319
-30.5519
-30.7929
-30.5775
-30.2673
-29.9981
-29.8117
-29.718
-31.5302
-30.8593
-30.1106
-28.8768
-27.7166
-27.116
-26.4785
-25.9259
-25.7686
-25.6386
-25.5571
-25.2006
-24.8515
-24.613
-24.0626
-23.5258
-23.3166
-23.0484
-22.8025
-22.7897
-22.7744
-22.7741
-22.5802
-22.384
-22.2587
-21.9392
-21.642
-21.5731
-21.5221
-21.4931
-21.3134
-21.1315
-21.0024
-20.7187
-20.4382
-20.3045
-20.1444
-19.9885
-19.9105
-19.8242
-19.738
-19.6081
-19.4808
-19.3814
-19.3395
-19.3218
-19.2431
-19.2491
-19.2832
-19.1429
-19.0852
-19.1504
-19.8758
-20.9964
-22.5431
-26.0294
-29.9769
-31.3837
-31.3849
-30.9693
-30.5316
-30.1879
-29.9611
-29.8496
-32.0715
-31.2066
-30.459
-28.9822
-27.6156
-27.1094
-26.42
-25.7818
-25.7248
-25.6273
-25.6407
-25.2176
-24.8398
-24.6908
-24.035
-23.3947
-23.2674
-22.9792
-22.6851
-22.7431
-22.7525
-22.8159
-22.5779
-22.3618
-22.2928
-21.9051
-21.5435
-21.5277
-21.4955
-21.5173
-21.3024
-21.1042
-21.0179
-20.6818
-20.3511
-20.2513
-20.0807
-19.9033
-19.8447
-19.7577
-19.6772
-19.5262
-19.3792
-19.2618
-19.2211
-19.2129
-19.0857
-19.091
-19.1466
-18.8971
-18.756
-18.6418
-19.4108
-20.5337
-21.8587
-26.0345
-31.0515
-32.3273
-31.9953
-31.3464
-30.7744
-30.3571
-30.0918
-29.9636
-32.6724
-31.5279
-30.8621
-29.0725
-27.4365
-27.1205
-26.3591
-25.5882
-25.6866
-25.6059
-25.7625
-25.2297
-24.8069
-24.8137
-24.007
-23.2201
-23.2357
-22.9135
-22.5391
-22.7032
-22.7263
-22.8848
-22.5738
-22.3265
-22.3559
-21.87
-21.4161
-21.4858
-21.4649
-21.5632
-21.2903
-21.0674
-21.0566
-20.646
-20.2457
-20.2072
-20.0204
-19.8104
-19.7844
-19.6935
-19.6257
-19.4476
-19.279
-19.14
-19.1047
-19.12
-18.9226
-18.9349
-19.0452
-18.6517
-18.4383
-18.0705
-18.9317
-20.0709
-20.9308
-25.9591
-32.438
-33.3849
-32.6099
-31.6998
-30.9918
-30.5043
-30.2034
-30.0603
-33.3476
-31.7938
-31.346
-29.1454
-27.1495
-27.1698
-26.3015
-25.3268
-25.6655
-25.5648
-25.9394
-25.2315
-24.7378
-25.0025
-23.9785
-22.9829
-23.2347
-22.8552
-22.3523
-22.6772
-22.6897
-22.9918
-22.5643
-22.2686
-22.4614
-21.8336
-21.2485
-21.4537
-21.4254
-21.6396
-21.2744
-21.0137
-21.1286
-20.6108
-20.1132
-20.1778
-19.9647
-19.7055
-19.7323
-19.63
-19.5862
-19.3716
-19.1807
-19.0144
-18.989
-19.0498
-18.7481
-18.777
-18.9922
-18.4013
-18.1476
-17.4163
-18.4487
-19.6518
-19.6775
-25.7599
-34.2493
-34.5484
-33.21
-32.0202
-31.1803
-30.6286
-30.2963
-30.1401
-34.1181
-31.9599
-31.9492
-29.1986
-26.7134
-27.2878
-26.2548
-24.9715
-25.6802
-25.4875
-26.1952
-25.2162
-24.6111
-25.2863
-23.949
-22.656
-23.2842
-22.8092
-22.1073
-22.6773
-22.6315
-23.1527
-22.5446
-22.1742
-22.628
-21.7953
-21.0248
-21.4415
-21.3683
-21.7592
-21.2509
-20.9323
-21.2481
-20.5756
-19.9415
-20.172
-19.9152
-19.5821
-19.6928
-19.5647
-19.562
-19.2969
-19.0846
-18.883
-18.8713
-19.0117
-18.5547
-18.6112
-19.0062
-18.1348
-17.9075
-16.649
-17.9728
-19.3441
-17.9929
-25.3768
-36.6384
-35.794
-33.7724
-32.2984
-31.3373
-30.7297
-30.3708
-30.2038
-35.0135
-31.962
-32.7268
-29.2299
-26.072
-27.5182
-26.2284
-24.4856
-25.76
-25.3478
-26.5634
-25.1742
-24.3963
-25.7052
-23.9175
-22.2025
-23.4122
-22.7819
-21.7798
-22.7225
-22.5346
-23.3893
-22.5085
-22.0235
-22.8815
-21.7541
-20.7239
-21.4657
-21.2799
-21.9395
-21.2146
-20.808
-21.4348
-20.5391
-19.7139
-20.2021
-19.8734
-19.4316
-19.6725
-19.493
-19.558
-19.2217
-18.9918
-18.7433
-18.7477
-19.0189
-18.3321
-18.4278
-19.1122
-17.8329
-17.753
-15.7258
-17.514
-19.2482
-15.7407
-24.7264
-39.8112
-37.0733
-34.2705
-32.5268
-31.4613
-30.8079
-30.4279
-30.2523
-36.0746
-31.7088
-33.756
-29.237
-25.1499
-27.9214
-26.2334
-23.8185
-25.9488
-25.1054
-27.09
-25.0931
-24.0511
-26.3134
-23.8825
-21.5727
-23.6577
-22.7806
-21.3362
-22.8412
-22.3724
-23.732
-22.4475
-21.7895
-23.257
-21.7082
-20.3173
-21.5509
-21.1389
-22.2048
-21.1586
-20.6199
-21.7153
-20.4994
-19.4081
-20.2855
-19.841
-19.2419
-19.681
-19.4081
-19.5811
-19.1426
-18.9043
-18.5926
-18.6117
-19.09
-18.0668
-18.213
-19.3452
-17.464
-17.7352
-14.5869
-17.0786
-19.5065
-12.7481
-23.6956
-44.0411
-38.3033
-34.6758
-32.6995
-31.552
-30.8642
-30.4686
-30.2867
-37.3574
-31.0742
-35.1427
-29.2172
-23.8472
-28.5802
-26.2826
-22.9018
-26.3112
-24.7006
-27.8376
-24.9569
-23.5185
-27.1827
-23.8415
-20.7008
-24.0739
-22.8142
-20.7312
-23.0756
-22.1055
-24.2219
-22.3507
-21.4354
-23.801
-21.6547
-19.7675
-21.7331
-20.9139
-22.5881
-21.0741
-20.3398
-22.1254
-20.4539
-18.9949
-20.4462
-19.8194
-18.9968
-19.7326
-19.2995
-19.6406
-19.0546
-18.8249
-18.4281
-18.4534
-19.2498
-17.7412
-17.9471
-19.7526
-16.9796
-17.9272
-13.1517
-16.6663
-20.3153
-8.79902
-22.1337
-49.6866
-39.3528
-34.962
-32.8134
-31.6104
-30.9
-30.4942
-30.3084
-38.9367
-29.8875
-37.0292
-29.167
-22.0348
-29.6042
-26.3907
-21.6446
-26.9389
-24.048
-28.8904
-24.7459
-22.7232
-28.407
-23.7913
-19.5019
-24.7319
-22.8927
-19.9042
-23.4848
-21.6772
-24.9136
-22.2046
-20.9131
-24.5746
-21.5891
-19.0252
-22.0627
-20.5588
-23.133
-20.9493
-19.9309
-22.7116
-20.3985
-18.4366
-20.7163
-19.8099
-18.6752
-19.8478
-19.1527
-19.7498
-18.9508
-18.7585
-18.2473
-18.2591
-19.5322
-17.3338
-17.6036
-20.3993
-16.3086
-18.4315
-11.3144
-16.2651
-21.9379
-3.62684
-19.8429
-57.2119
-40.0264
-35.1098
-32.8692
-31.6385
-30.9171
-30.5065
-30.3189
)
;

boundaryField
{
    left
    {
        type            calculated;
        value           nonuniform List<scalar> 
32
(
-26.4235
-26.4459
-26.4886
-26.5498
-26.6282
-26.7228
-26.833
-26.9582
-27.0985
-27.2538
-27.4245
-27.611
-27.8139
-28.0342
-28.2729
-28.5311
-28.8103
-29.1121
-29.4384
-29.7912
-30.1732
-30.5874
-31.0379
-31.5302
-32.0715
-32.6724
-33.3476
-34.1181
-35.0135
-36.0746
-37.3574
-38.9367
)
;
    }
    right
    {
        type            calculated;
        value           nonuniform List<scalar> 
32
(
-25.7943
-25.829
-25.895
-25.9889
-26.1079
-26.2493
-26.4108
-26.5901
-26.7848
-26.9928
-27.2114
-27.4382
-27.6705
-27.9056
-28.1406
-28.3729
-28.5997
-28.8183
-29.0265
-29.2222
-29.4035
-29.5691
-29.718
-29.8496
-29.9636
-30.0603
-30.1401
-30.2038
-30.2523
-30.2867
-30.3084
-30.3189
)
;
    }
    interface
    {
        type            calculated;
        value           nonuniform List<scalar> 
64
(
-39.8113
-29.1317
-38.1176
-29.1339
-20.9829
-30.2232
-26.4613
-20.918
-27.3325
-23.6474
-29.5051
-24.6189
-22.2491
-29.121
-23.7633
-18.8087
-25.1314
-22.9445
-19.4264
-23.7418
-21.4144
-25.3177
-22.1172
-20.6032
-25.0275
-21.5527
-18.5989
-22.2717
-20.3419
-23.452
-20.8753
-19.689
-23.0553
-20.3678
-18.1157
-20.8832
-19.8083
-18.4924
-19.9242
-19.0676
-19.8188
-18.8939
-18.7293
-18.1524
-18.1509
-19.7088
-17.1068
-17.4086
-20.7918
-15.9161
-18.7766
-10.2804
-16.0649
-22.9903
-0.698303
-18.4873
-61.5099
-40.2403
-35.1473
-32.8829
-31.6454
-30.9214
-30.5096
-30.3215
)
;
    }
    bottom
    {
        type            calculated;
        value           nonuniform List<scalar> 
64
(
-26.4177
-26.3903
-26.3362
-26.257
-26.1548
-26.0319
-25.8913
-25.7356
-25.5676
-25.3899
-25.2048
-25.0146
-24.8211
-24.6261
-24.431
-24.2372
-24.0458
-23.8577
-23.6736
-23.4942
-23.3199
-23.151
-22.9879
-22.8307
-22.6797
-22.5352
-22.3974
-22.2666
-22.1434
-22.028
-21.9212
-21.8234
-21.7356
-21.6584
-21.5929
-21.5401
-21.5011
-21.4769
-21.469
-21.4784
-21.5065
-21.5545
-21.6236
-21.7149
-21.8295
-21.968
-22.1308
-22.3178
-22.5283
-22.7608
-23.0131
-23.2819
-23.5628
-23.8506
-24.1394
-24.4227
-24.6936
-24.9458
-25.1732
-25.3704
-25.5332
-25.6581
-25.7427
-25.7853
)
;
    }
    defaultFaces
    {
        type            empty;
    }
}


// ************************************************************************* //
