/*--------------------------------*- C++ -*----------------------------------*\
| =========                 |                                                 |
| \\      /  F ield         | OpenFOAM: The Open Source CFD Toolbox           |
|  \\    /   O peration     | Version:  5.x                                   |
|   \\  /    A nd           | Web:      www.OpenFOAM.org                      |
|    \\/     M anipulation  |                                                 |
\*---------------------------------------------------------------------------*/
FoamFile
{
    version     2.0;
    format      ascii;
    class       volScalarField;
    location    "7";
    object      gradTx;
}
// * * * * * * * * * * * * * * * * * * * * * * * * * * * * * * * * * * * * * //

dimensions      [0 -1 0 1 0 0 0];

internalField   nonuniform List<scalar> 
2048
(
0.00630494
0.0187343
0.0306387
0.0417201
0.0517497
0.0605781
0.068135
0.0744181
0.079477
0.0833949
0.0862713
0.0882106
0.0893148
0.0896808
0.089401
0.0885644
0.087258
0.0855654
0.0835642
0.081323
0.0788976
0.0763285
0.0736408
0.0708446
0.0679375
0.0649076
0.0617352
0.0583947
0.0548554
0.0510813
0.0470321
0.0426641
0.0379323
0.032792
0.0272013
0.0211227
0.0145239
0.00737875
-0.000332328
-0.008621
-0.0174888
-0.0269234
-0.0368935
-0.0473415
-0.0581761
-0.0692625
-0.0804134
-0.0913818
-0.101857
-0.111465
-0.119783
-0.12636
-0.130754
-0.13257
-0.131512
-0.127416
-0.120277
-0.110248
-0.0976157
-0.0827652
-0.0661297
-0.0481502
-0.0292468
-0.00980736
0.0187884
0.055818
0.0912568
0.124206
0.153979
0.180137
0.202479
0.221012
0.235899
0.247399
0.255816
0.261465
0.264649
0.265655
0.264753
0.262209
0.258278
0.253209
0.247236
0.240565
0.233361
0.225746
0.217792
0.209527
0.200943
0.192002
0.182645
0.172795
0.162361
0.151237
0.139303
0.126428
0.112476
0.0973144
0.080818
0.0628746
0.0433885
0.0222817
-0.000504653
-0.0250069
-0.0512326
-0.0791498
-0.108671
-0.139634
-0.171776
-0.204705
-0.237874
-0.270557
-0.301832
-0.330586
-0.355549
-0.375361
-0.388675
-0.394291
-0.391298
-0.379194
-0.357963
-0.328075
-0.290413
-0.246152
-0.196609
-0.143109
-0.0869049
-0.0291381
0.0311401
0.0924833
0.151107
0.205486
0.254473
0.297353
0.333827
0.363953
0.388043
0.406562
0.420039
0.429006
0.433963
0.435374
0.43368
0.429307
0.422678
0.414205
0.404279
0.393245
0.38138
0.368884
0.355873
0.342386
0.328402
0.313853
0.298638
0.282634
0.265688
0.247627
0.22825
0.207342
0.184675
0.160025
0.133184
0.103968
0.0722168
0.0378034
0.000628545
-0.0393725
-0.0822212
-0.127879
-0.17622
-0.227
-0.279812
-0.334042
-0.388817
-0.442962
-0.494968
-0.542991
-0.5849
-0.618387
-0.641139
-0.651078
-0.646613
-0.626864
-0.591803
-0.542254
-0.47977
-0.40639
-0.324373
-0.235961
-0.143223
-0.0480088
0.0435998
0.129426
0.211275
0.286941
0.354797
0.413873
0.463823
0.504818
0.537385
0.562251
0.580201
0.591994
0.598324
0.59982
0.597072
0.590658
0.581163
0.569165
0.555221
0.539821
0.523362
0.506119
0.488245
0.469779
0.450677
0.430834
0.410107
0.388319
0.365267
0.34071
0.314368
0.285934
0.255087
0.221508
0.184904
0.145016
0.101626
0.0545563
0.00366716
-0.0511399
-0.109912
-0.17262
-0.239127
-0.309138
-0.382142
-0.457345
-0.533594
-0.609306
-0.682412
-0.750336
-0.810048
-0.858208
-0.891423
-0.906597
-0.901333
-0.874294
-0.825435
-0.756015
-0.668382
-0.565593
-0.450973
-0.327744
-0.198792
-0.0666101
0.0563833
0.16727
0.272723
0.369773
0.456287
0.531069
0.593798
0.644852
0.685068
0.715505
0.737252
0.75131
0.758555
0.759758
0.755636
0.746903
0.734299
0.71858
0.700481
0.680658
0.659631
0.637752
0.615201
0.592003
0.568073
0.54326
0.51737
0.490183
0.461445
0.43085
0.398042
0.362617
0.324148
0.282217
0.23644
0.186485
0.132077
0.0729925
0.00905119
-0.0598848
-0.133901
-0.213002
-0.297067
-0.385791
-0.478607
-0.574594
-0.672378
-0.770024
-0.864936
-0.953807
-1.03265
-1.09699
-1.14217
-1.16387
-1.15869
-1.1247
-1.06186
-0.971946
-0.858331
-0.725316
-0.577483
-0.419133
-0.253973
-0.0850553
0.0696954
0.2066
0.336344
0.455076
0.560124
0.65011
0.724841
0.78503
0.831948
0.867083
0.891881
0.907598
0.915272
0.915781
0.909931
0.898553
0.882539
0.862837
0.840387
0.816031
0.790432
0.764018
0.736979
0.709304
0.680847
0.651391
0.620692
0.58849
0.554489
0.518329
0.479571
0.437706
0.392191
0.342495
0.288138
0.228716
0.163902
0.0934318
0.0170889
-0.0653089
-0.1539
-0.248745
-0.349778
-0.456726
-0.569017
-0.685675
-0.805174
-0.925295
-1.04297
-1.15418
-1.25392
-1.33642
-1.39554
-1.42544
-1.42144
-1.38086
-1.30359
-1.19214
-1.05119
-0.886625
-0.704541
-0.510465
-0.308916
-0.103384
0.0837403
0.247999
0.403006
0.543885
0.667385
0.772014
0.857844
0.926096
0.978635
1.0175
1.04455
1.0613
1.06893
1.06834
1.0604
1.04602
1.02625
1.00224
0.975181
0.946141
0.915943
0.885092
0.853768
0.821889
0.789217
0.75545
0.72029
0.683449
0.644607
0.603357
0.559178
0.511441
0.45947
0.402603
0.340255
0.271953
0.197326
0.116084
0.0279779
-0.0672201
-0.169715
-0.279653
-0.397056
-0.521731
-0.653165
-0.790394
-0.931832
-1.07507
-1.21664
-1.35184
-1.47462
-1.57774
-1.65328
-1.69349
-1.69205
-1.64522
-1.55282
-1.41832
-1.24811
-1.05014
-0.832386
-0.601755
-0.363562
-0.121566
0.0987296
0.292061
0.473587
0.637216
0.779083
0.897679
0.993532
1.06859
1.12552
1.16705
1.19552
1.21271
1.21983
1.21779
1.20741
1.18965
1.16571
1.13702
1.10504
1.07112
1.03628
1.0011
0.965716
0.929935
0.893377
0.855632
0.816347
0.775223
0.731947
0.686084
0.637024
0.584001
0.526175
0.462732
0.392973
0.316357
0.232488
0.141065
0.0418212
-0.0655181
-0.181239
-0.305599
-0.438748
-0.580623
-0.730831
-0.888498
-1.05208
-1.2191
-1.3858
-1.54687
-1.69518
-1.82185
-1.91682
-1.96997
-1.97277
-1.92006
-1.81151
-1.65187
-1.44985
-1.21608
-0.960866
-0.69271
-0.417658
-0.139504
0.114889
0.339418
0.548995
0.73609
0.896188
1.02791
1.13248
1.21288
1.2728
1.31584
1.34489
1.36193
1.36818
1.36439
1.35125
1.32973
1.30119
1.26735
1.23008
1.19104
1.15151
1.11212
1.07295
1.0336
0.993507
0.952115
0.909015
0.863936
0.816612
0.766607
0.713218
0.655512
0.592447
0.523026
0.446419
0.362028
0.269454
0.168414
0.0586397
-0.0601832
-0.188437
-0.326523
-0.474757
-0.633255
-0.8018
-0.979696
-1.16555
-1.35696
-1.55005
-1.73902
-1.91567
-2.06931
-2.18734
-2.25664
-2.26576
-2.20758
-2.08149
-1.89395
-1.65681
-1.38424
-1.08945
-0.782736
-0.470763
-0.157035
0.132465
0.390752
0.630197
0.841559
1.01965
1.16342
1.27514
1.35913
1.42046
1.46377
1.49257
1.509
1.51411
1.50836
1.4922
1.46652
1.43288
1.39338
1.35035
1.30592
1.26163
1.21821
1.17555
1.13303
1.08978
1.04507
0.99843
0.949677
0.89866
0.844977
0.787826
0.726063
0.658393
0.58359
0.500677
0.409011
0.308229
0.198098
0.0783829
-0.0512669
-0.191345
-0.342427
-0.505041
-0.679521
-0.865883
-1.06369
-1.27182
-1.48811
-1.70879
-1.92775
-2.13581
-2.32034
-2.46574
-2.5551
-2.57315
-2.50999
-2.36452
-2.14549
-1.86906
-1.55402
-1.21724
-0.870953
-0.522255
-0.173939
0.151729
0.446808
0.718233
0.954721
1.1504
1.30485
1.4218
1.50737
1.56832
1.6106
1.63837
1.65383
1.65767
1.64987
1.63049
1.60027
1.56098
1.51521
1.46589
1.41572
1.36662
1.31936
1.27363
1.22838
1.18239
1.13467
1.08472
1.03251
0.978105
0.921203
0.860877
0.795713
0.724093
0.644504
0.555798
0.457312
0.348765
0.23003
0.100937
-0.0388834
-0.190055
-0.353369
-0.529611
-0.71937
-0.922931
-1.14018
-1.37042
-1.61191
-1.86123
-2.11226
-2.35502
-2.57487
-2.75269
-2.86688
-2.89713
-2.82962
-2.66238
-2.40726
-2.0863
-1.72443
-1.34295
-0.956203
-0.571355
-0.189942
0.172985
0.508414
0.814235
1.07673
1.28939
1.45278
1.57267
1.65745
1.71603
1.75592
1.78197
1.79625
1.79888
1.78912
1.76641
1.73124
1.68566
1.6329
1.57666
1.52036
1.46639
1.41558
1.36725
1.31981
1.27154
1.22111
1.16799
1.11245
1.05492
0.995253
0.932371
0.8645
0.789615
0.705839
0.611817
0.506905
0.390974
0.264069
0.126134
-0.0232024
-0.184714
-0.359462
-0.548534
-0.752808
-0.972855
-1.20894
-1.46089
-1.72764
-2.00641
-2.29149
-2.57241
-2.83248
-3.0486
-3.19342
-3.24
-3.169
-2.97693
-2.67984
-2.30787
-1.89402
-1.46495
-1.03708
-0.617147
-0.20473
0.196571
0.576481
0.919435
1.20882
1.43752
1.6077
1.72779
1.80908
1.86307
1.89915
1.92291
1.93605
1.93775
1.92629
1.90024
1.85971
1.80711
1.74653
1.68261
1.61971
1.56083
1.50683
1.45649
1.40749
1.35745
1.3046
1.24838
1.18952
1.12904
1.06706
1.00228
0.932449
0.855022
0.76766
0.668755
0.557736
0.434731
0.300031
0.153755
-0.00444147
-0.175512
-0.360857
-0.561929
-0.779905
-1.01563
-1.26979
-1.54284
-1.83459
-2.1433
-2.46416
-2.78673
-3.09241
-3.35363
-3.53607
-3.60423
-3.53098
-3.31021
-2.96367
-2.53269
-2.06089
-1.58124
-1.11197
-0.658612
-0.217959
0.222867
0.652022
1.03518
1.3523
1.59573
1.77
1.88711
1.96179
2.00874
2.03961
2.0607
2.07297
2.07426
2.06158
2.0323
1.98596
1.9255
1.85612
1.78363
1.71357
1.64975
1.59305
1.54146
1.49164
1.4404
1.38539
1.326
1.26367
1.20035
1.13651
1.07056
0.999575
0.920378
0.830043
0.726629
0.609734
0.479882
0.337694
0.183539
0.0171403
-0.162676
-0.357743
-0.569957
-0.800795
-1.05133
-1.32263
-1.61591
-1.93206
-2.27077
-2.62881
-2.99646
-3.35354
-3.66759
-3.89604
-3.99252
-3.91885
-3.66447
-3.25896
-2.75923
-2.2227
-1.6895
-1.17909
-0.694672
-0.229271
0.2523
0.736153
1.16295
1.50855
1.76491
1.93999
2.05042
2.115
2.15219
2.17646
2.19474
2.20675
2.20842
2.19524
2.16301
2.11035
2.04103
1.96173
1.87961
1.8017
1.73295
1.67417
1.62225
1.57247
1.5207
1.46379
1.40098
1.33483
1.26866
1.20348
1.13716
1.06589
0.985757
0.89308
0.785458
0.66281
0.526249
0.376805
0.215187
0.0412485
-0.146457
-0.35033
-0.572817
-0.815678
-1.0801
-1.36748
-1.67988
-2.01944
-2.38767
-2.78376
-3.19974
-3.61438
-3.98997
-4.2744
-4.40783
-4.33649
-4.04233
-3.5657
-2.98539
-2.37656
-1.78714
-1.23656
-0.724237
-0.238315
0.285353
0.830098
1.30433
1.67908
1.94591
2.11783
2.21744
2.26797
2.29243
2.30873
2.32441
2.33711
2.34023
2.32756
2.29283
2.23324
2.15385
2.06339
1.9704
1.88382
1.81015
1.75013
1.699
1.65025
1.59869
1.54015
1.47348
1.40289
1.33376
1.26779
1.20201
1.13139
1.05124
0.956894
0.845268
0.716855
0.573635
0.417086
0.248365
0.0675584
-0.127124
-0.338838
-0.570735
-0.82481
-1.10218
-1.40445
-1.73462
-2.09622
-2.49286
-2.92724
-3.39445
-3.87305
-4.31979
-4.67192
-4.8534
-4.78855
-4.44681
-3.88355
-3.20839
-2.51911
-1.87132
-1.28246
-0.746268
-0.244768
0.322574
0.935182
1.46103
1.86548
2.13952
2.30352
2.38777
2.4199
2.42831
2.43536
2.44905
2.46385
2.46969
2.45887
2.42234
2.35503
2.26415
2.16115
2.05583
1.95955
1.88103
1.82084
1.77188
1.72523
1.67479
1.61492
1.54366
1.46765
1.39533
1.32924
1.26508
1.1961
1.11693
1.02165
0.906092
0.771739
0.621832
0.458236
0.282706
0.0957184
-0.104953
-0.323484
-0.563946
-0.828505
-1.11791
-1.43377
-1.78018
-2.16207
-2.58529
-3.05734
-3.57819
-4.1273
-4.65566
-5.08895
-5.33275
-5.28072
-4.88151
-4.21169
-3.4247
-2.64645
-1.93907
-1.31496
-0.759835
-0.248351
0.364602
1.05283
1.63489
2.06952
2.34642
2.49686
2.56096
2.56987
2.5585
2.55514
2.56801
2.58682
2.59678
2.58951
2.55229
2.47616
2.37201
2.25509
2.13574
2.02846
1.94517
1.88623
1.84111
1.79767
1.74943
1.68868
1.61172
1.52885
1.45297
1.38763
1.32634
1.25999
1.18294
1.08759
0.967973
0.827299
0.670628
0.499948
0.31781
0.125353
-0.0802201
-0.304465
-0.552689
-0.827125
-1.12772
-1.45577
-1.81672
-2.21687
-2.66401
-3.17211
-3.74829
-4.37453
-4.99563
-5.52522
-5.84963
-5.82002
-5.3507
-4.54865
-3.62982
-2.7542
-1.9874
-1.33241
-0.764179
-0.248856
0.412201
1.18452
1.8278
2.29316
2.56714
2.69736
2.73656
2.71694
2.68156
2.66674
2.6807
2.70601
2.72142
2.71986
2.68358
2.59705
2.47746
2.34537
2.20997
2.09001
2.00212
1.94627
1.90702
1.86782
1.82306
1.76215
1.67786
1.58611
1.50619
1.44273
1.38583
1.32301
1.24936
1.15504
1.03095
0.883321
0.719823
0.541907
0.353245
0.156063
-0.0531921
-0.28194
-0.537184
-0.821076
-1.13213
-1.47085
-1.84459
-2.26076
-2.72828
-3.26955
-3.90191
-4.61188
-5.33728
-5.97951
-6.40792
-6.41525
-5.85954
-4.89199
-3.81816
-2.83757
-2.01339
-1.3334
-0.758767
-0.246154
0.466331
1.33179
2.0417
2.53866
2.80199
2.90413
2.9142
2.8602
2.79584
2.7687
2.78659
2.82162
2.84343
2.85025
2.81745
2.71813
2.58037
2.43225
2.27841
2.14357
2.05127
2.00094
1.97003
1.93581
1.89615
1.83626
1.74234
1.63891
1.55436
1.49434
1.4437
1.38508
1.3163
1.22445
1.09507
0.939518
0.769252
0.583809
0.388539
0.187427
-0.024123
-0.256019
-0.517619
-0.810798
-1.13178
-1.47948
-1.86421
-2.29425
-2.77754
-3.34766
-4.03598
-4.83629
-5.67775
-6.44928
-7.01143
-7.07755
-6.41423
-5.23789
-3.98284
-2.89142
-2.0144
-1.31693
-0.743337
-0.240212
0.528254
1.49615
2.27844
2.80875
3.05093
3.11579
3.09377
2.99875
2.89949
2.85939
2.88525
2.93418
2.96236
2.98094
2.95552
2.83972
2.68034
2.51619
2.34097
2.18836
2.09193
2.05028
2.03078
2.00166
1.96909
1.91228
1.80545
1.68655
1.59672
1.54228
1.50024
1.44596
1.3838
1.2965
1.16035
0.99548
0.818815
0.625364
0.423172
0.218997
0.00675116
-0.22674
-0.494134
-0.796765
-1.12741
-1.48213
-1.87613
-2.31823
-2.81152
-3.40448
-4.14724
-5.04467
-6.0139
-6.93018
-7.66354
-7.82117
-7.02222
-5.58056
-4.11558
-2.91051
-1.98823
-1.28244
-0.717927
-0.231098
0.599721
1.67897
2.53967
3.10686
3.3135
3.3302
3.27557
3.13183
2.99043
2.93699
2.97641
3.04469
3.07742
3.11199
3.10005
2.96202
2.7766
2.59798
2.39768
2.22343
2.12323
2.09441
2.09021
2.06511
2.0422
1.99189
1.86745
1.72809
1.63233
1.5864
1.556
1.50527
1.45182
1.37214
1.22674
1.05063
0.868532
0.666311
0.456566
0.250302
0.0392122
-0.194054
-0.466804
-0.779471
-1.1199
-1.47924
-1.88088
-2.33408
-2.83022
-3.43811
-4.23226
-5.23401
-6.34267
-7.41533
-8.36674
-8.66455
-7.6925
-5.91147
-4.20658
-2.88966
-1.93326
-1.22994
-0.682885
-0.218977
0.68326
1.88143
2.82659
3.43753
3.5886
3.54425
3.46068
3.25879
3.06627
2.99946
3.05993
3.15486
3.18721
3.24319
3.2542
3.08498
2.86779
2.67894
2.4486
2.24759
2.14415
2.13349
2.14969
2.1255
2.11558
2.07739
1.92864
1.76229
1.66009
1.62664
1.6119
1.56233
1.52018
1.45279
1.2941
1.10412
0.918621
0.70642
0.488058
0.280847
0.0730568
-0.157805
-0.435622
-0.759423
-1.11032
-1.47112
-1.8789
-2.3438
-2.83398
-3.44671
-4.28731
-5.40154
-6.66161
-7.89459
-9.12183
-9.63159
-8.43576
-6.21828
-4.24454
-2.82413
-1.8487
-1.15996
-0.638863
-0.204104
0.782609
2.1043
3.1396
3.8069
3.87427
3.75348
3.65139
3.37911
3.12425
3.04448
3.13581
3.26744
3.28947
3.37386
3.42246
3.2081
2.95172
2.76115
2.49391
2.25942
2.15343
2.16776
2.21124
2.1816
2.18901
2.17193
1.98917
1.78759
1.67869
1.66295
1.66938
1.61604
1.58847
1.54046
1.36214
1.15475
0.96961
0.74549
0.516885
0.310122
0.108088
-0.117713
-0.400488
-0.737118
-1.10002
-1.45793
-1.8704
-2.35017
-2.82341
-3.42859
-4.30831
-5.5449
-6.96974
-8.35356
-9.92684
-10.7536
-9.26463
-6.48349
-4.21686
-2.71002
-1.73469
-1.07367
-0.586783
-0.186811
0.903362
2.3477
3.47783
4.22356
4.16734
3.95158
3.85174
3.49234
3.16119
3.06944
3.2041
3.38669
3.38066
3.5026
3.61116
3.33028
3.02501
2.84786
2.53377
2.25714
2.14958
2.19746
2.27784
2.23134
2.26181
2.27984
2.04905
1.80197
1.68663
1.69534
1.73068
1.66467
1.65593
1.63808
1.43026
1.20082
1.02249
0.78333
0.542144
0.337616
0.144097
-0.0733528
-0.361197
-0.713011
-1.0907
-1.43954
-1.85516
-2.35696
-2.79935
-3.38224
-4.29067
-5.66208
-7.26873
-8.77243
-10.7756
-12.0713
-10.1939
-6.68269
-4.11006
-2.54471
-1.59243
-0.972733
-0.527791
-0.16749
1.05387
2.61083
3.83843
4.69953
4.46301
4.12981
4.06844
3.59788
3.17338
3.07141
3.26478
3.51896
3.45548
3.62701
3.82928
3.44948
3.08271
2.94402
2.56824
2.2386
2.13087
2.22272
2.35381
2.27147
2.33263
2.40707
2.10786
1.80299
1.68223
1.72375
1.79911
1.70565
1.72132
1.74978
1.4975
1.23994
1.07895
0.819716
0.562756
0.362842
0.180844
-0.024129
-0.317441
-0.687457
-1.08457
-1.4155
-1.83225
-2.36918
-2.76275
-3.30644
-4.22903
-5.75139
-7.5646
-9.12469
-11.6556
-13.6382
-11.2404
-6.78245
-3.91055
-2.32734
-1.42423
-0.859315
-0.463196
-0.146567
1.24649
2.89157
4.21566
5.25174
4.75431
4.27621
4.31183
3.69474
3.15651
3.04718
3.31741
3.67351
3.50626
3.74327
4.08932
3.56233
3.11772
3.05691
2.59712
2.20126
2.09535
2.24343
2.44533
2.29717
2.39916
2.56176
2.16459
1.78767
1.66369
1.74794
1.87948
1.7352
1.78272
1.88141
1.56225
1.2688
1.14164
0.854319
0.577428
0.38538
0.218011
0.0307487
-0.26882
-0.660625
-1.08455
-1.38493
-1.79971
-2.39355
-2.71448
-3.20045
-4.11707
-5.81109
-7.86991
-9.37572
-12.5456
-15.5238
-12.4234
-6.7376
-3.60582
-2.05936
-1.23349
-0.735933
-0.3944
-0.124484
1.49925
3.18598
4.59969
5.90378
5.03131
4.37468
4.59736
3.78099
3.1057
2.99333
3.3608
3.86361
3.52212
3.84562
4.40859
3.66358
3.12016
3.19711
2.61955
2.14209
2.04085
2.25889
2.56118
2.30153
2.45789
2.75493
2.21717
1.75257
1.62912
1.76726
1.97865
1.74796
1.83729
2.04106
1.62209
1.28296
1.21454
0.886578
0.584603
0.404935
0.255156
0.0923011
-0.214873
-0.632371
-1.09453
-1.34643
-1.75411
-2.43891
-2.65497
-3.06427
-3.94715
-5.83869
-8.2066
-9.48123
-13.4122
-17.8184
-13.7636
-6.48823
-3.18624
-1.74484
-1.02455
-0.605329
-0.322824
-0.101678
1.83792
3.48771
4.97503
6.68823
5.28025
4.40384
4.94723
3.85304
3.01551
2.90634
3.39227
4.1078
3.48811
3.92581
4.81061
3.74552
3.07661
3.37954
2.63357
2.05769
1.96513
2.26747
2.71353
2.27495
2.50363
3.00133
2.26202
1.69377
1.57674
1.78035
2.1062
1.73652
1.88102
2.23976
1.6734
1.2765
1.30345
0.91552
0.582431
0.421424
0.291639
0.161825
-0.155134
-0.602051
-1.11961
-1.2981
-1.69001
-2.51693
-2.58376
-2.89904
-3.7101
-5.82987
-8.60939
-9.38574
-14.2058
-20.6382
-15.2833
-5.95599
-2.64746
-1.39076
-0.80249
-0.470329
-0.249847
-0.0785591
2.29877
3.78722
5.31869
7.64939
5.48238
4.33574
5.39251
3.9046
2.88002
2.78293
3.40683
4.43156
3.38409
3.97226
5.3269
3.7971
2.96926
3.62488
2.63545
1.94429
1.86604
2.26598
2.91906
2.20445
2.52917
3.32054
2.2933
1.60702
1.50499
1.78462
2.27522
1.69084
1.90835
2.4923
1.71099
1.24166
1.41654
0.93951
0.56873
0.435078
0.326522
0.240951
-0.0892293
-0.568282
-1.16651
-1.23745
-1.59929
-2.64292
-2.49887
-2.70751
-3.39494
-5.77685
-9.13002
-9.02106
-14.8557
-24.1316
-17.0052
-5.04012
-1.99353
-1.00697
-0.572825
-0.33368
-0.176741
-0.0555008
2.93167
4.07098
5.59791
8.84659
5.61259
4.13442
5.97564
3.92527
2.69312
2.62032
3.39595
4.86925
3.18348
3.96931
5.99896
3.80303
2.77488
3.96116
2.61876
1.79793
1.74174
2.24893
3.2002
2.07281
2.52473
3.73819
2.30208
1.48792
1.4128
1.77569
2.50334
1.59762
1.91183
2.81818
1.72765
1.16853
1.56501
0.955907
0.540981
0.446581
0.358452
0.331729
-0.0170121
-0.528624
-1.24396
-1.16145
-1.47038
-2.83681
-2.39587
-2.49475
-2.98881
-5.66611
-9.84193
-8.30489
-15.2644
-28.4862
-18.9508
-3.61293
-1.24083
-0.605815
-0.341148
-0.197923
-0.104634
-0.0328274
3.80396
4.32041
5.7676
10.3579
5.63786
3.75425
6.75329
3.89879
2.44886
2.41686
3.34608
5.46636
2.8519
3.89618
6.88053
3.74271
2.46379
4.42564
2.57326
1.61473
1.59105
2.20756
3.5866
1.85766
2.47741
4.2873
2.27526
1.33223
1.29989
1.74656
2.81388
1.43955
1.88169
3.24268
1.71352
1.04458
1.76387
0.960639
0.49634
0.457222
0.385505
0.43673
0.0612434
-0.479184
-1.36313
-1.06664
-1.28732
-3.12438
-2.26684
-2.26894
-2.47703
-5.47551
-10.8457
-7.13972
-15.3012
-33.9369
-21.1394
-1.51516
-0.422856
-0.201268
-0.112738
-0.0652797
-0.0344764
-0.0108097
)
;

boundaryField
{
    left
    {
        type            calculated;
        value           uniform 0;
    }
    right
    {
        type            calculated;
        value           uniform 0;
    }
    interface
    {
        type            calculated;
        value           nonuniform List<scalar> 
64
(
3.80396
4.32041
5.7676
10.3579
5.63786
3.75425
6.75329
3.89879
2.44886
2.41686
3.34608
5.46636
2.8519
3.89618
6.88053
3.74271
2.46379
4.42564
2.57326
1.61473
1.59105
2.20756
3.5866
1.85766
2.47741
4.2873
2.27526
1.33223
1.29989
1.74656
2.81388
1.43955
1.88169
3.24268
1.71352
1.04458
1.76387
0.960639
0.49634
0.457222
0.385505
0.43673
0.0612434
-0.479184
-1.36313
-1.06664
-1.28732
-3.12438
-2.26684
-2.26894
-2.47703
-5.47551
-10.8457
-7.13972
-15.3012
-33.9369
-21.1394
-1.51516
-0.422856
-0.201268
-0.112738
-0.0652797
-0.0344764
-0.0108097
)
;
    }
    bottom
    {
        type            calculated;
        value           nonuniform List<scalar> 
64
(
0.00630494
0.0187343
0.0306387
0.0417201
0.0517497
0.0605781
0.068135
0.0744181
0.079477
0.0833949
0.0862713
0.0882106
0.0893148
0.0896808
0.089401
0.0885644
0.087258
0.0855654
0.0835642
0.081323
0.0788976
0.0763285
0.0736408
0.0708446
0.0679375
0.0649076
0.0617352
0.0583947
0.0548554
0.0510813
0.0470321
0.0426641
0.0379323
0.032792
0.0272013
0.0211227
0.0145239
0.00737875
-0.000332328
-0.008621
-0.0174888
-0.0269234
-0.0368935
-0.0473415
-0.0581761
-0.0692625
-0.0804134
-0.0913818
-0.101857
-0.111465
-0.119783
-0.12636
-0.130754
-0.13257
-0.131512
-0.127416
-0.120277
-0.110248
-0.0976157
-0.0827652
-0.0661297
-0.0481502
-0.0292468
-0.00980736
)
;
    }
    defaultFaces
    {
        type            empty;
    }
}


// ************************************************************************* //
