/*--------------------------------*- C++ -*----------------------------------*\
| =========                 |                                                 |
| \\      /  F ield         | OpenFOAM: The Open Source CFD Toolbox           |
|  \\    /   O peration     | Version:  5.x                                   |
|   \\  /    A nd           | Web:      www.OpenFOAM.org                      |
|    \\/     M anipulation  |                                                 |
\*---------------------------------------------------------------------------*/
FoamFile
{
    version     2.0;
    format      ascii;
    class       volScalarField;
    location    "7";
    object      T;
}
// * * * * * * * * * * * * * * * * * * * * * * * * * * * * * * * * * * * * * //

dimensions      [0 0 0 1 0 0 0];

internalField   nonuniform List<scalar> 
2048
(
9.81021
9.8104
9.81079
9.81136
9.8121
9.81298
9.81399
9.81511
9.81632
9.81759
9.81892
9.82029
9.82168
9.82308
9.82448
9.82587
9.82725
9.8286
9.82992
9.83121
9.83246
9.83368
9.83485
9.83598
9.83706
9.8381
9.83909
9.84003
9.84092
9.84174
9.84251
9.84321
9.84385
9.8444
9.84487
9.84525
9.84553
9.8457
9.84576
9.84569
9.84549
9.84515
9.84465
9.84399
9.84317
9.84218
9.84101
9.83966
9.83815
9.83648
9.83467
9.83274
9.83072
9.82865
9.82658
9.82454
9.82259
9.82078
9.81915
9.81773
9.81656
9.81567
9.81506
9.81475
9.43876
9.43935
9.44051
9.4422
9.44439
9.44701
9.45002
9.45334
9.45692
9.46071
9.46465
9.46871
9.47282
9.47698
9.48113
9.48525
9.48932
9.49332
9.49723
9.50105
9.50475
9.50834
9.51181
9.51514
9.51835
9.52142
9.52435
9.52713
9.52975
9.53221
9.53448
9.53656
9.53843
9.54007
9.54147
9.5426
9.54344
9.54396
9.54413
9.54394
9.54335
9.54234
9.54088
9.53894
9.53651
9.53357
9.53012
9.52614
9.52166
9.51671
9.51133
9.5056
9.4996
9.49345
9.48728
9.48122
9.47543
9.47004
9.46518
9.46096
9.45748
9.45482
9.45301
9.4521
9.08311
9.08409
9.086
9.08881
9.09243
9.09676
9.10172
9.10719
9.11309
9.11932
9.1258
9.13245
9.1392
9.14601
9.15281
9.15956
9.16622
9.17277
9.17917
9.1854
9.19146
9.19732
9.20299
9.20844
9.21368
9.2187
9.22349
9.22804
9.23233
9.23634
9.24006
9.24347
9.24654
9.24924
9.25154
9.25341
9.25479
9.25566
9.25597
9.25568
9.25474
9.25311
9.25075
9.24761
9.24365
9.23886
9.23321
9.22671
9.21937
9.21124
9.2024
9.19297
9.18308
9.17293
9.16273
9.15272
9.14314
9.13423
9.1262
9.11924
9.1135
9.1091
9.10612
9.10462
8.74235
8.74371
8.74639
8.75031
8.75536
8.7614
8.76829
8.7759
8.78407
8.79269
8.80164
8.81082
8.82014
8.82952
8.83888
8.84818
8.85734
8.86634
8.87513
8.88369
8.892
8.90004
8.90781
8.9153
8.9225
8.92939
8.93596
8.9422
8.94809
8.95362
8.95874
8.96344
8.96768
8.97141
8.9746
8.97719
8.97913
8.98037
8.98084
8.98048
8.97924
8.97705
8.97384
8.96957
8.96418
8.95763
8.94989
8.94096
8.93085
8.91963
8.9074
8.89432
8.88058
8.86646
8.85225
8.83829
8.82493
8.8125
8.8013
8.79161
8.78363
8.77752
8.77339
8.77131
8.41563
8.41739
8.42085
8.42591
8.43241
8.44017
8.449
8.45873
8.46916
8.48013
8.49151
8.50317
8.51499
8.52688
8.53874
8.55049
8.56208
8.57344
8.58453
8.59533
8.6058
8.61594
8.62573
8.63517
8.64423
8.65292
8.66121
8.66909
8.67653
8.68351
8.68999
8.69595
8.70132
8.70608
8.71014
8.71346
8.71597
8.71759
8.71825
8.71787
8.71638
8.71369
8.70972
8.70441
8.69767
8.68945
8.67971
8.66844
8.65565
8.64141
8.62584
8.60914
8.59156
8.57345
8.55519
8.53724
8.52004
8.50405
8.48967
8.47723
8.467
8.45918
8.45391
8.45125
8.10217
8.10435
8.10863
8.11486
8.12285
8.13236
8.14316
8.15501
8.1677
8.18101
8.19479
8.20888
8.22316
8.23749
8.25177
8.26592
8.27985
8.2935
8.30682
8.31976
8.33232
8.34446
8.35619
8.3675
8.37836
8.38877
8.39872
8.40817
8.41711
8.4255
8.4333
8.44048
8.44698
8.45274
8.45768
8.46174
8.46483
8.46686
8.46775
8.4674
8.46571
8.46259
8.45794
8.45166
8.44366
8.43388
8.42224
8.40872
8.39332
8.37612
8.35725
8.33694
8.31549
8.29333
8.27095
8.24891
8.22779
8.20817
8.19054
8.17532
8.16283
8.1533
8.14688
8.14365
7.80127
7.80389
7.80902
7.81648
7.82602
7.83734
7.85015
7.86415
7.87909
7.89473
7.91088
7.92737
7.94405
7.96078
7.97743
7.99391
8.01012
8.02598
8.04144
8.05646
8.07101
8.08508
8.09867
8.11176
8.12435
8.13643
8.14796
8.15893
8.16932
8.17908
8.18817
8.19655
8.20416
8.21091
8.21674
8.22154
8.22524
8.22771
8.22886
8.22858
8.22676
8.22328
8.21802
8.21087
8.20172
8.19046
8.17702
8.16134
8.14342
8.12332
8.10118
8.07724
8.05187
8.02557
7.99895
7.9727
7.94754
7.92417
7.90322
7.88517
7.8704
7.85916
7.85159
7.8478
7.51227
7.51536
7.5214
7.53015
7.54131
7.5545
7.56936
7.58555
7.60276
7.62072
7.63923
7.65808
7.67712
7.6962
7.71518
7.73393
7.75236
7.77036
7.78789
7.80489
7.82136
7.83728
7.85264
7.86746
7.8817
7.89537
7.90844
7.92089
7.93267
7.94376
7.95411
7.96367
7.97236
7.98011
7.98682
7.99239
7.99671
7.99965
8.00111
8.00096
7.99907
7.9953
7.98952
7.98159
7.97137
7.95875
7.94361
7.92587
7.90551
7.88256
7.85717
7.82959
7.80024
7.76969
7.73868
7.70804
7.67867
7.65143
7.62705
7.60612
7.58905
7.5761
7.5674
7.56304
7.23454
7.23813
7.24515
7.25529
7.26815
7.28329
7.30027
7.31868
7.33818
7.35846
7.37929
7.40049
7.42186
7.44324
7.46449
7.48547
7.50605
7.52613
7.54565
7.56457
7.58287
7.60055
7.61763
7.63408
7.64993
7.66513
7.67968
7.69354
7.70668
7.71906
7.73063
7.74135
7.75112
7.75986
7.76746
7.77381
7.77878
7.78223
7.78404
7.78406
7.78216
7.77817
7.77195
7.76334
7.75217
7.73828
7.72155
7.70186
7.67914
7.65342
7.6248
7.59355
7.56013
7.5252
7.48961
7.4544
7.42063
7.38935
7.36144
7.33757
7.31818
7.30353
7.29372
7.28882
6.96751
6.97165
6.97972
6.99134
7.00602
7.0232
7.04237
7.06305
7.08485
7.10744
7.13059
7.15408
7.17774
7.2014
7.22488
7.24803
7.27071
7.29281
7.31425
7.33501
7.35506
7.37443
7.39313
7.41117
7.42854
7.44522
7.4612
7.47643
7.49087
7.50451
7.51728
7.52913
7.53997
7.5497
7.55821
7.56535
7.57099
7.57498
7.57718
7.57743
7.57558
7.57145
7.56488
7.55567
7.54364
7.52861
7.5104
7.48887
7.4639
7.43547
7.40366
7.36872
7.33114
7.29167
7.2513
7.21126
7.17286
7.13736
7.10581
7.07896
7.05725
7.04092
7.03003
7.0246
6.71062
6.71536
6.72458
6.73781
6.75442
6.77376
6.79519
6.81819
6.8423
6.8672
6.89263
6.9184
6.94431
6.9702
6.99587
7.02115
7.04588
7.06993
7.09323
7.11574
7.13747
7.15845
7.1787
7.19825
7.21709
7.2352
7.25255
7.2691
7.28481
7.29966
7.3136
7.32656
7.33847
7.34919
7.35861
7.36656
7.3729
7.37746
7.38009
7.38061
7.37887
7.37467
7.36783
7.35812
7.34535
7.32928
7.30972
7.28646
7.25934
7.22829
7.19334
7.1547
7.11287
7.06868
7.02328
6.97814
6.93486
6.89494
6.85963
6.82975
6.80574
6.78778
6.77586
6.76992
6.46336
6.46877
6.47925
6.49421
6.5129
6.53451
6.5583
6.58365
6.61009
6.63728
6.66497
6.69297
6.7211
6.74918
6.77701
6.80438
6.83111
6.85706
6.88214
6.90633
6.92965
6.95215
6.97389
6.99488
7.01513
7.03462
7.05329
7.07111
7.08805
7.10408
7.11916
7.13322
7.14617
7.15789
7.16823
7.17701
7.18407
7.18923
7.19232
7.19317
7.1916
7.1874
7.18036
7.17026
7.15684
7.13986
7.11906
7.0942
7.06507
7.0315
6.99346
6.95112
6.90495
6.85585
6.80515
6.7546
6.70612
6.66157
6.62238
6.58945
6.56319
6.54367
6.53078
6.52438
6.22525
6.23139
6.24326
6.26012
6.28104
6.30505
6.33128
6.35904
6.38781
6.41726
6.44716
6.47735
6.50766
6.53791
6.56786
6.59729
6.62598
6.65376
6.68056
6.70634
6.73117
6.75512
6.77826
6.80063
6.82224
6.84305
6.86301
6.88207
6.90018
6.91735
6.93353
6.94867
6.96267
6.97539
6.98666
6.99629
7.00409
7.00987
7.01346
7.01468
7.01333
7.00919
7.00205
6.99163
6.97768
6.95989
6.938
6.91168
6.88066
6.8447
6.80366
6.75762
6.70702
6.65282
6.59652
6.54018
6.48618
6.43674
6.39356
6.35759
6.32916
6.30818
6.29441
6.2876
5.99581
6.00278
6.01619
6.03513
6.05845
6.08499
6.11376
6.14396
6.17506
6.20674
6.2388
6.27113
6.30358
6.33595
6.36801
6.39946
6.43007
6.45964
6.48807
6.51537
6.54162
6.56693
6.5914
6.6151
6.63802
6.66011
6.68131
6.70155
6.7208
6.73906
6.75632
6.77252
6.78755
6.80128
6.81349
6.82398
6.83255
6.83898
6.8431
6.84472
6.84364
6.83963
6.83246
6.82182
6.80743
6.78897
6.7661
6.73847
6.70572
6.66751
6.62357
6.57387
6.51877
6.45926
6.39702
6.33449
6.27456
6.21998
6.17272
6.13375
6.10326
6.08095
6.06641
6.05924
5.77461
5.78249
5.79761
5.81883
5.84475
5.87399
5.90538
5.93806
5.97147
6.00532
6.03949
6.0739
6.10845
6.14292
6.17705
6.21051
6.243
6.27429
6.3043
6.33303
6.3606
6.38719
6.41292
6.43788
6.46206
6.4854
6.50781
6.52918
6.54952
6.56883
6.58713
6.60437
6.62044
6.63517
6.64835
6.65972
6.66906
6.67616
6.68083
6.68289
6.68212
6.67831
6.67117
6.66041
6.64568
6.62666
6.60295
6.57416
6.53984
6.49955
6.45285
6.39955
6.3399
6.27487
6.20633
6.13712
6.07081
6.0108
5.95938
5.91751
5.88512
5.86166
5.84647
5.83903
5.56121
5.57013
5.58715
5.61089
5.63962
5.6717
5.70581
5.74099
5.77668
5.81263
5.84883
5.88527
5.92186
5.9584
5.9946
6.03005
6.06439
6.09736
6.12887
6.15894
6.18774
6.2155
6.24243
6.2686
6.294
6.31856
6.34213
6.3646
6.38597
6.40628
6.42559
6.44385
6.46094
6.4767
6.49085
6.50311
6.51325
6.52104
6.52628
6.5288
6.52839
6.52483
6.51781
6.50699
6.49203
6.47255
6.44814
6.41834
6.38263
6.34044
6.29116
6.23436
6.17012
6.09937
6.02413
5.9477
5.87448
5.80874
5.75312
5.70848
5.6744
5.65
5.63433
5.62668
5.35522
5.3653
5.38445
5.41096
5.44274
5.47782
5.51473
5.55244
5.59035
5.62832
5.66645
5.70485
5.74345
5.78203
5.82029
5.85773
5.89388
5.92848
5.96142
5.99273
6.02266
6.05151
6.07956
6.10688
6.13347
6.15922
6.18394
6.20746
6.2298
6.25106
6.27134
6.2906
6.30872
6.3255
6.34064
6.35382
6.36476
6.37325
6.37908
6.38208
6.38207
6.3788
6.37196
6.36118
6.34607
6.32625
6.30127
6.27062
6.2337
6.18983
6.13816
6.07801
6.00918
5.93252
5.85015
5.76587
5.68513
5.61332
5.55351
5.5063
5.47081
5.4457
5.42972
5.42196
5.15625
5.16764
5.18915
5.21873
5.25382
5.29206
5.33185
5.37209
5.41216
5.45204
5.492
5.53229
5.57284
5.61344
5.65376
5.6932
5.73114
5.76732
5.80161
5.83407
5.865
5.89485
5.92395
5.95239
5.98013
6.00706
6.0329
6.05742
6.08067
6.10283
6.12404
6.14428
6.16341
6.18124
6.1974
6.21149
6.22325
6.23245
6.23888
6.24238
6.24279
6.23987
6.23328
6.2226
6.20743
6.18736
6.16194
6.13059
6.09266
6.04734
5.99353
5.9302
5.85683
5.77409
5.68417
5.59129
5.50229
5.42408
5.36014
5.31065
5.27408
5.24854
5.23244
5.22466
4.96391
4.97679
5.00093
5.03391
5.07259
5.11414
5.15688
5.19965
5.24179
5.28345
5.32512
5.36722
5.40969
5.45227
5.49468
5.53613
5.57584
5.61355
5.64913
5.68261
5.71445
5.74518
5.77527
5.80477
5.83364
5.86174
5.8887
5.91418
5.93827
5.96125
5.98335
6.00455
6.0247
6.0436
6.06079
6.07581
6.0884
6.09831
6.10533
6.10935
6.11021
6.10768
6.1014
6.0909
6.07574
6.05552
6.02977
5.99787
5.95913
5.91262
5.85695
5.79068
5.71283
5.62389
5.52597
5.42364
5.3255
5.24053
5.17262
5.12122
5.08395
5.0583
5.04228
5.03459
4.77786
4.79243
4.81948
4.85624
4.89881
4.9438
4.98957
5.03487
5.07895
5.12224
5.16547
5.20932
5.25365
5.29818
5.34272
5.38622
5.42766
5.46686
5.50367
5.53806
5.57065
5.60216
5.63318
5.66372
5.69368
5.72298
5.75106
5.77743
5.80227
5.826
5.84897
5.87112
5.89226
5.91225
5.93052
5.94647
5.95988
5.97051
5.97812
5.98265
5.98398
5.9819
5.97598
5.96572
5.95064
5.93035
5.90441
5.8721
5.83271
5.7853
5.7281
5.65918
5.57697
5.48175
5.37543
5.26264
5.15425
5.06219
4.99057
4.93773
4.90021
4.87478
4.85906
4.85155
4.59774
4.61425
4.6445
4.68545
4.73227
4.78079
4.82964
4.87747
4.92335
4.96808
5.01271
5.05825
5.1044
5.15082
5.19755
5.24318
5.28629
5.32694
5.36493
5.4001
5.43331
5.46547
5.49738
5.52893
5.55993
5.59047
5.61969
5.64689
5.6724
5.69678
5.72059
5.74367
5.76578
5.78691
5.8063
5.82317
5.8374
5.84876
5.85695
5.86198
5.86379
5.86219
5.85671
5.84675
5.83181
5.81152
5.78549
5.75289
5.71305
5.66503
5.60666
5.53543
5.44901
5.34749
5.23244
5.10801
4.98803
4.88856
4.81364
4.75995
4.72268
4.69782
4.68261
4.67539
4.42322
4.44196
4.47569
4.52132
4.57278
4.62487
4.67684
4.72723
4.77471
4.82068
4.8665
4.9137
4.96164
5.00987
5.05889
5.10674
5.15145
5.19351
5.23264
5.26844
5.30212
5.33479
5.36757
5.40011
5.43211
5.46393
5.49436
5.52229
5.54836
5.5733
5.59793
5.62192
5.64497
5.66729
5.68785
5.70563
5.72068
5.73277
5.74151
5.74704
5.74933
5.74826
5.74326
5.73367
5.71891
5.69868
5.67268
5.6399
5.59974
5.55145
5.4923
5.4192
5.32874
5.22099
5.09701
4.95953
4.82624
4.71914
4.64151
4.58768
4.5512
4.52727
4.51277
4.50593
4.25396
4.27531
4.31275
4.36364
4.42018
4.47578
4.53093
4.58393
4.63277
4.67975
4.7265
4.77537
4.82509
4.87497
4.92644
4.97667
5.02285
5.06629
5.10656
5.14281
5.1768
5.20981
5.24347
5.27699
5.3099
5.3431
5.37481
5.40337
5.42989
5.45525
5.48072
5.50562
5.52954
5.55313
5.57494
5.59357
5.60944
5.62227
5.63152
5.63752
5.6403
5.63981
5.63536
5.62619
5.61163
5.5915
5.56566
5.53278
5.49242
5.44422
5.38471
5.31024
5.21591
5.10207
4.9692
4.81701
4.66822
4.55339
4.47389
4.42075
4.38564
4.36298
4.34939
4.34301
4.08963
4.11409
4.15539
4.2122
4.27436
4.33327
4.39165
4.44738
4.49725
4.54501
4.59239
4.643
4.6945
4.7458
4.79993
4.85275
4.90018
4.94499
4.98647
5.02293
5.05708
5.09022
5.12482
5.15932
5.19299
5.22773
5.26087
5.28989
5.31673
5.34235
5.3687
5.39452
5.4192
5.44416
5.46734
5.48672
5.50342
5.51702
5.52672
5.53318
5.53641
5.53656
5.53273
5.52404
5.5097
5.48966
5.46414
5.43121
5.39069
5.34298
5.28355
5.20835
5.11027
4.99054
4.84922
4.68033
4.51317
4.39081
4.31057
4.25903
4.22588
4.20482
4.19233
4.18649
3.9299
3.95813
4.00327
4.06682
4.13526
4.19705
4.25874
4.31741
4.36788
4.4162
4.4638
4.51633
4.56963
4.62197
4.67909
4.73482
4.78316
4.82935
4.87216
4.90853
4.94269
4.97571
5.01136
5.04689
5.08109
5.11757
5.15234
5.18161
5.20865
5.23431
5.26163
5.2884
5.31365
5.34014
5.36484
5.38484
5.40236
5.41679
5.42684
5.43373
5.43739
5.43824
5.4351
5.42695
5.41282
5.39287
5.36783
5.33489
5.29418
5.24741
5.18848
5.11333
5.01154
4.88618
4.73741
4.54944
4.36018
4.23089
4.15134
4.10245
4.07182
4.05268
4.04142
4.03619
3.77443
3.80737
3.85602
3.92732
4.00288
4.06679
4.13194
4.19393
4.24437
4.29309
4.34035
4.39512
4.45032
4.5031
4.56367
4.62277
4.67146
4.7191
4.76346
4.79936
4.83342
4.86595
4.90288
4.93951
4.97386
5.0124
5.04908
5.07827
5.10543
5.13084
5.15929
5.18706
5.2126
5.24085
5.26728
5.28765
5.30602
5.32137
5.33164
5.33895
5.34298
5.34461
5.34223
5.33469
5.32074
5.30079
5.27651
5.24353
5.20247
5.1572
5.09914
5.02504
4.91941
4.78865
4.63427
4.42441
4.20807
4.07315
3.99612
3.95094
3.92339
3.90643
3.89654
3.89196
3.62285
3.6618
3.71321
3.79354
3.87733
3.94212
4.01096
4.07686
4.12642
4.1755
4.22165
4.27917
4.33644
4.38874
4.45342
4.51653
4.56474
4.61396
4.66027
4.69512
4.72906
4.7606
4.79917
4.83702
4.87095
4.91199
4.95101
4.97963
5.00687
5.03162
5.0615
5.09036
5.11572
5.14607
5.17452
5.19489
5.21417
5.23056
5.24086
5.24861
5.25291
5.25542
5.25387
5.24702
5.23322
5.21313
5.18994
5.15689
5.11515
5.07206
5.01513
4.9434
4.83354
4.69747
4.54054
4.30542
4.05543
3.91719
3.84488
3.8045
3.78052
3.76596
3.75752
3.75363
3.47475
3.5216
3.57431
3.66534
3.7588
3.82257
3.89551
3.96624
4.01367
4.06329
4.10721
4.16831
4.22795
4.27838
4.34812
4.41615
4.46261
4.51365
4.56252
4.59551
4.62946
4.65929
4.70005
4.73933
4.77197
4.81614
4.85806
4.88542
4.91283
4.93633
4.96806
4.99817
5.02268
5.05558
5.08647
5.10627
5.12656
5.14423
5.15426
5.1625
5.16692
5.17047
5.1698
5.16375
5.15004
5.12955
5.10796
5.07473
5.03175
4.99177
4.93599
4.86842
4.75353
4.61196
4.45724
4.19283
3.90042
3.76272
3.69766
3.66315
3.64313
3.63113
3.62422
3.62104
3.32966
3.38709
3.43865
3.54256
3.64766
3.70757
3.78528
3.86217
3.90568
3.95641
3.99651
4.06241
4.12488
4.17142
4.24756
4.32175
4.3646
4.41789
4.47022
4.50019
4.53452
4.5616
4.60538
4.6464
4.67647
4.72464
4.77026
4.79533
4.82319
4.8446
4.87883
4.91042
4.93309
4.9692
5.00309
5.0215
5.04298
5.06223
5.07159
5.08043
5.08476
5.08954
5.08981
5.0847
5.071
5.04971
5.03043
4.99689
4.95178
4.91615
4.86118
4.80021
4.679
4.53117
4.3857
4.08724
3.74075
3.60963
3.55463
3.5269
3.51117
3.50182
3.49647
3.49401
3.18703
3.25887
3.30538
3.42508
3.54443
3.5964
3.67992
3.76492
3.80194
3.85492
3.8889
3.96138
4.02739
4.06713
4.15152
4.2336
4.27018
4.32639
4.38346
4.40875
4.44422
4.46706
4.51503
4.55828
4.58392
4.63732
4.68769
4.70898
4.7379
4.75601
4.79367
4.82711
4.84651
4.88675
4.9244
4.94022
4.9632
4.98449
4.99256
5.00226
5.00615
5.01246
5.01368
5.00967
4.99593
4.97322
4.95726
4.92324
4.87466
4.84515
4.79005
4.73906
4.60953
4.45375
4.32762
3.98951
3.57351
3.4581
3.416
3.3958
3.38454
3.3779
3.37411
3.37238
3.0462
3.13781
3.17342
3.31275
3.44987
3.48814
3.57907
3.67488
3.70174
3.75904
3.78362
3.86517
3.93579
3.96465
4.05983
4.15212
4.17867
4.23883
4.30246
4.32067
4.35865
4.3751
4.42892
4.4751
4.4937
4.554
4.61052
4.62594
4.65702
4.67009
4.71251
4.74832
4.76243
4.80807
4.8505
4.86205
4.88702
4.91096
4.91689
4.92787
4.93084
4.93907
4.94121
4.93854
4.92469
4.89966
4.8884
4.85371
4.79975
4.77884
4.72178
4.68544
4.54472
4.37788
4.28519
3.90087
3.395
3.30866
3.28209
3.26988
3.26316
3.25922
3.25698
3.25595
2.90635
3.02522
3.04136
3.20546
3.36505
3.38164
3.48237
3.59268
3.6042
3.66921
3.67973
3.77378
3.85056
3.8629
3.97231
4.07791
4.08927
4.15491
4.22757
4.23532
4.27803
4.28504
4.34702
4.39712
4.40507
4.47454
4.53905
4.54564
4.58068
4.58627
4.63526
4.6742
4.68025
4.733
4.78158
4.78655
4.81422
4.84167
4.84424
4.85718
4.85853
4.86923
4.87218
4.87114
4.8572
4.82855
4.82387
4.78832
4.72623
4.71748
4.65533
4.64007
4.48422
4.30114
4.2611
3.82298
3.20058
3.16238
3.15323
3.14916
3.14694
3.14564
3.1449
3.14456
)
;

boundaryField
{
    left
    {
        type            zeroGradient;
    }
    right
    {
        type            zeroGradient;
    }
    interface
    {
        type            fixedValue;
        value           nonuniform List<scalar> 
64
(
2.83484
2.9729
2.9729
3.15313
3.32735
3.32735
3.43483
3.55509
3.55509
3.62671
3.62671
3.72955
3.8106
3.8106
3.92962
4.04411
4.04411
4.11369
4.1927
4.1927
4.23959
4.23959
4.30729
4.36009
4.36009
4.43583
4.50568
4.50568
4.54417
4.54417
4.59776
4.63882
4.63882
4.69642
4.74905
4.74905
4.77864
4.80843
4.80843
4.82291
4.82291
4.83528
4.83853
4.83853
4.82459
4.79313
4.79313
4.75703
4.68886
4.68886
4.62158
4.62158
4.45535
4.25984
4.25984
3.78976
3.09008
3.09008
3.09008
3.09008
3.09008
3.09008
3.09008
3.09008
)
;
    }
    bottom
    {
        type            fixedValue;
        value           uniform 10;
    }
    defaultFaces
    {
        type            empty;
    }
}


// ************************************************************************* //
