/*--------------------------------*- C++ -*----------------------------------*\
| =========                 |                                                 |
| \\      /  F ield         | OpenFOAM: The Open Source CFD Toolbox           |
|  \\    /   O peration     | Version:  5.x                                   |
|   \\  /    A nd           | Web:      www.OpenFOAM.org                      |
|    \\/     M anipulation  |                                                 |
\*---------------------------------------------------------------------------*/
FoamFile
{
    version     2.0;
    format      ascii;
    class       volScalarField;
    location    "15.6";
    object      gradTx;
}
// * * * * * * * * * * * * * * * * * * * * * * * * * * * * * * * * * * * * * //

dimensions      [0 -1 0 1 0 0 0];

internalField   nonuniform List<scalar> 
2048
(
0.00630501
0.0187345
0.0306388
0.0417204
0.0517501
0.0605787
0.0681357
0.074419
0.0794783
0.0833964
0.086273
0.0882127
0.0893171
0.0896833
0.0894036
0.0885673
0.087261
0.0855684
0.0835673
0.0813261
0.0789007
0.0763316
0.0736437
0.0708473
0.0679401
0.0649099
0.0617372
0.0583965
0.0548569
0.0510825
0.0470331
0.0426649
0.0379328
0.0327923
0.0272015
0.0211227
0.0145239
0.00737868
-0.000332397
-0.00862103
-0.0174888
-0.0269234
-0.0368934
-0.0473414
-0.058176
-0.0692623
-0.0804132
-0.0913816
-0.101856
-0.111464
-0.119783
-0.12636
-0.130754
-0.13257
-0.131512
-0.127417
-0.120278
-0.110248
-0.0976159
-0.0827654
-0.0661299
-0.0481505
-0.029247
-0.00980744
0.0187886
0.0558184
0.0912572
0.124207
0.15398
0.180138
0.202481
0.221015
0.235903
0.247403
0.255821
0.261471
0.264656
0.265662
0.264761
0.262217
0.258286
0.253218
0.247246
0.240574
0.23337
0.225755
0.2178
0.209535
0.200951
0.192009
0.182651
0.1728
0.162366
0.151241
0.139306
0.12643
0.112477
0.0973152
0.0808183
0.0628746
0.0433883
0.0222814
-0.000504912
-0.0250071
-0.0512326
-0.0791497
-0.108671
-0.139634
-0.171775
-0.204704
-0.237874
-0.270557
-0.301831
-0.330585
-0.355549
-0.375361
-0.388675
-0.394291
-0.391298
-0.379194
-0.357964
-0.328075
-0.290414
-0.246153
-0.196609
-0.14311
-0.0869055
-0.0291384
0.0311404
0.0924838
0.151108
0.205487
0.254475
0.297355
0.333831
0.363958
0.388049
0.406569
0.420048
0.429016
0.433974
0.435387
0.433693
0.429321
0.422692
0.41422
0.404295
0.39326
0.381395
0.368899
0.355887
0.3424
0.328414
0.313864
0.298648
0.282642
0.265695
0.247632
0.228255
0.207345
0.184677
0.160026
0.133185
0.103967
0.0722163
0.0378027
0.00062796
-0.0393729
-0.0822214
-0.127879
-0.17622
-0.226999
-0.279811
-0.334041
-0.388816
-0.442961
-0.494967
-0.54299
-0.5849
-0.618386
-0.641138
-0.651078
-0.646613
-0.626865
-0.591803
-0.542255
-0.479771
-0.406391
-0.324374
-0.235962
-0.143224
-0.0480094
0.0436001
0.129427
0.211276
0.286942
0.354799
0.413876
0.463828
0.504824
0.537393
0.562261
0.580213
0.592008
0.59834
0.599837
0.59709
0.590678
0.581183
0.569186
0.555242
0.539843
0.523383
0.50614
0.488264
0.469797
0.450694
0.43085
0.41012
0.388331
0.365277
0.340718
0.314374
0.285939
0.25509
0.22151
0.184905
0.145016
0.101625
0.0545551
0.00366604
-0.0511408
-0.109912
-0.17262
-0.239127
-0.309138
-0.382142
-0.457344
-0.533593
-0.609305
-0.682411
-0.750335
-0.810047
-0.858208
-0.891423
-0.906597
-0.901333
-0.874295
-0.825436
-0.756016
-0.668383
-0.565594
-0.450975
-0.327746
-0.198794
-0.066611
0.0563836
0.16727
0.272723
0.369774
0.456289
0.531072
0.593803
0.644859
0.685078
0.715517
0.737267
0.751327
0.758574
0.759779
0.755659
0.746927
0.734325
0.718607
0.700509
0.680685
0.659657
0.637778
0.615226
0.592026
0.568095
0.543279
0.517387
0.490198
0.461457
0.43086
0.39805
0.362622
0.324151
0.282218
0.23644
0.186484
0.132075
0.0729905
0.00904928
-0.0598864
-0.133902
-0.213002
-0.297067
-0.385791
-0.478606
-0.574593
-0.672378
-0.770023
-0.864935
-0.953805
-1.03265
-1.09699
-1.14217
-1.16387
-1.15869
-1.1247
-1.06186
-0.971947
-0.858333
-0.725318
-0.577485
-0.419136
-0.253976
-0.0850564
0.0696957
0.206601
0.336344
0.455076
0.560125
0.650114
0.724847
0.785038
0.831959
0.867098
0.891899
0.907619
0.915296
0.915807
0.909959
0.898583
0.88257
0.862869
0.84042
0.816064
0.790464
0.764049
0.737009
0.709332
0.680872
0.651414
0.620712
0.588507
0.554504
0.518341
0.47958
0.437712
0.392194
0.342496
0.288137
0.228714
0.163899
0.0934287
0.0170859
-0.0653115
-0.153902
-0.248747
-0.349779
-0.456726
-0.569017
-0.685674
-0.805173
-0.925294
-1.04297
-1.15417
-1.25392
-1.33642
-1.39554
-1.42544
-1.42144
-1.38086
-1.30359
-1.19215
-1.0512
-0.886627
-0.704544
-0.510468
-0.308919
-0.103386
0.0837405
0.247999
0.403006
0.543885
0.667386
0.772017
0.85785
0.926106
0.978649
1.01752
1.04457
1.06133
1.06895
1.06837
1.06044
1.04606
1.02628
1.00228
0.97522
0.94618
0.915981
0.885128
0.853802
0.821921
0.789246
0.755476
0.720313
0.683469
0.644623
0.60337
0.559188
0.511448
0.459473
0.402603
0.340254
0.271949
0.197322
0.116079
0.0279736
-0.0672239
-0.169718
-0.279656
-0.397057
-0.521732
-0.653166
-0.790394
-0.931831
-1.07507
-1.21664
-1.35184
-1.47462
-1.57774
-1.65327
-1.69349
-1.69205
-1.64522
-1.55282
-1.41832
-1.24812
-1.05014
-0.832389
-0.601758
-0.363566
-0.121568
0.0987296
0.29206
0.473585
0.637215
0.779083
0.897681
0.993538
1.0686
1.12554
1.16707
1.19555
1.21273
1.21986
1.21782
1.20745
1.18969
1.16576
1.13706
1.10508
1.07117
1.03632
1.00114
0.965756
0.929971
0.893409
0.855661
0.816372
0.775245
0.731965
0.686099
0.637035
0.584008
0.526179
0.462733
0.392971
0.316353
0.232483
0.141059
0.0418152
-0.0655234
-0.181243
-0.305603
-0.438751
-0.580625
-0.730832
-0.888499
-1.05208
-1.21909
-1.3858
-1.54687
-1.69518
-1.82185
-1.91682
-1.96997
-1.97277
-1.92006
-1.81151
-1.65187
-1.44985
-1.21608
-0.960869
-0.692714
-0.417663
-0.139506
0.114889
0.339416
0.548991
0.736087
0.896186
1.02791
1.13249
1.21289
1.27281
1.31586
1.34491
1.36197
1.36822
1.36443
1.35129
1.32977
1.30124
1.2674
1.23013
1.19109
1.15156
1.11217
1.07299
1.03364
0.993542
0.952146
0.909042
0.863959
0.816632
0.766623
0.71323
0.65552
0.592451
0.523026
0.446416
0.362022
0.269447
0.168406
0.058632
-0.0601903
-0.188444
-0.326528
-0.474761
-0.633258
-0.801802
-0.979698
-1.16555
-1.35696
-1.55005
-1.73902
-1.91566
-2.0693
-2.18734
-2.25663
-2.26575
-2.20758
-2.08149
-1.89395
-1.65681
-1.38424
-1.08946
-0.782741
-0.470768
-0.157037
0.132464
0.390749
0.630191
0.841553
1.01964
1.16341
1.27514
1.35914
1.42047
1.46379
1.4926
1.50904
1.51415
1.5084
1.49224
1.46657
1.43293
1.39344
1.35041
1.30598
1.26169
1.21826
1.1756
1.13307
1.08982
1.0451
0.998458
0.949701
0.898681
0.844995
0.78784
0.726072
0.658398
0.58359
0.500673
0.409005
0.30822
0.198089
0.0783732
-0.0512759
-0.191353
-0.342433
-0.505046
-0.679526
-0.865886
-1.06369
-1.27182
-1.48811
-1.70879
-1.92775
-2.1358
-2.32034
-2.46573
-2.55509
-2.57314
-2.50999
-2.36452
-2.14549
-1.86906
-1.55403
-1.21724
-0.870958
-0.52226
-0.173942
0.151728
0.446804
0.718225
0.954711
1.1504
1.30485
1.4218
1.50738
1.56834
1.61063
1.63841
1.65387
1.65771
1.64992
1.63054
1.60032
1.56103
1.51527
1.46595
1.41579
1.36668
1.31942
1.27368
1.22842
1.18243
1.1347
1.08475
1.03253
0.978128
0.921223
0.860894
0.795724
0.724099
0.644505
0.555794
0.457305
0.348754
0.230019
0.100926
-0.0388947
-0.190065
-0.353378
-0.529618
-0.719376
-0.922937
-1.14019
-1.37042
-1.61191
-1.86123
-2.11225
-2.35502
-2.57486
-2.75268
-2.86688
-2.89712
-2.82962
-2.66238
-2.40726
-2.0863
-1.72443
-1.34296
-0.956208
-0.571361
-0.189946
0.172983
0.508406
0.814223
1.07672
1.28937
1.45277
1.57267
1.65746
1.71605
1.75594
1.782
1.79629
1.79893
1.78917
1.76646
1.7313
1.68572
1.63297
1.57673
1.52043
1.46646
1.41565
1.3673
1.31985
1.27158
1.22114
1.16802
1.11248
1.05495
0.995275
0.93239
0.864515
0.789624
0.705841
0.611813
0.506896
0.390962
0.264056
0.12612
-0.023216
-0.184726
-0.359473
-0.548544
-0.752816
-0.972862
-1.20895
-1.4609
-1.72764
-2.00641
-2.29148
-2.5724
-2.83247
-3.04859
-3.19341
-3.23999
-3.16899
-2.97693
-2.67984
-2.30786
-1.89402
-1.46495
-1.03709
-0.617154
-0.204734
0.196568
0.576471
0.919419
1.2088
1.43751
1.60769
1.72779
1.80908
1.86309
1.89918
1.92295
1.9361
1.9378
1.92634
1.90029
1.85976
1.80717
1.74659
1.68268
1.61978
1.5609
1.5069
1.45655
1.40754
1.35749
1.30463
1.24841
1.18954
1.12907
1.06708
1.0023
0.932468
0.855034
0.767665
0.668752
0.557728
0.434719
0.300016
0.153739
-0.00445751
-0.175528
-0.360871
-0.561941
-0.779916
-1.01564
-1.2698
-1.54285
-1.83459
-2.1433
-2.46416
-2.78672
-3.09239
-3.35361
-3.53605
-3.60421
-3.53097
-3.3102
-2.96366
-2.53269
-2.0609
-1.58124
-1.11198
-0.658619
-0.217963
0.222863
0.652009
1.03516
1.35227
1.59571
1.76998
1.8871
1.96179
2.00875
2.03964
2.06074
2.07302
2.07432
2.06163
2.03236
1.98602
1.92557
1.85619
1.78371
1.71364
1.64983
1.59312
1.54152
1.49169
1.44044
1.38542
1.32602
1.26369
1.20037
1.13654
1.07059
0.999599
0.920395
0.830051
0.726628
0.609727
0.47987
0.337679
0.183521
0.0171218
-0.162694
-0.35776
-0.569972
-0.800809
-1.05135
-1.32264
-1.61592
-1.93207
-2.27077
-2.6288
-2.99645
-3.35353
-3.66758
-3.89602
-3.9925
-3.91883
-3.66446
-3.25895
-2.75923
-2.2227
-1.6895
-1.1791
-0.694679
-0.229275
0.252295
0.736136
1.16292
1.50852
1.76488
1.93996
2.05041
2.115
2.15221
2.17649
2.19478
2.2068
2.20848
2.19529
2.16307
2.11041
2.04109
1.96181
1.87969
1.80179
1.73304
1.67425
1.62232
1.57252
1.52073
1.46381
1.401
1.33485
1.26869
1.20352
1.1372
1.06592
0.98578
0.893093
0.785461
0.662805
0.526238
0.37679
0.215168
0.0412276
-0.146479
-0.35035
-0.572836
-0.815695
-1.08012
-1.3675
-1.67989
-2.01945
-2.38767
-2.78376
-3.19973
-3.61437
-3.98994
-4.27437
-4.4078
-4.33647
-4.04231
-3.56569
-2.98538
-2.37656
-1.78714
-1.23656
-0.724244
-0.238319
0.285346
0.830076
1.30429
1.67904
1.94587
2.11779
2.21742
2.26797
2.29245
2.30876
2.32445
2.33716
2.34028
2.32762
2.29288
2.2333
2.15392
2.06347
1.97048
1.88391
1.81024
1.75021
1.69907
1.6503
1.59872
1.54016
1.47349
1.4029
1.33379
1.26783
1.20206
1.13144
1.05128
0.956915
0.845276
0.716853
0.573626
0.417071
0.248345
0.0675352
-0.127149
-0.338863
-0.570757
-0.824831
-1.1022
-1.40447
-1.73464
-2.09624
-2.49287
-2.92724
-3.39444
-3.87303
-4.31977
-4.67189
-4.85337
-4.78853
-4.44679
-3.88353
-3.20838
-2.5191
-1.87132
-1.28246
-0.746275
-0.244771
0.322565
0.935155
1.46099
1.86543
2.13947
2.30348
2.38775
2.41989
2.42832
2.43539
2.44909
2.4639
2.46974
2.45892
2.4224
2.35509
2.26421
2.16123
2.05592
1.95964
1.88112
1.82093
1.77195
1.72527
1.67481
1.61492
1.54366
1.46766
1.39536
1.32929
1.26514
1.19616
1.11698
1.02168
0.906107
0.771741
0.621826
0.458223
0.282686
0.0956933
-0.104982
-0.323513
-0.563974
-0.82853
-1.11793
-1.43379
-1.7802
-2.16209
-2.5853
-3.05734
-3.57817
-4.12728
-4.65563
-5.08892
-5.33271
-5.28069
-4.88148
-4.21167
-3.42469
-2.64644
-1.93907
-1.31497
-0.759841
-0.248355
0.364591
1.05279
1.63484
2.06946
2.34636
2.49681
2.56093
2.56986
2.55851
2.55516
2.56806
2.58687
2.59683
2.58956
2.55234
2.47621
2.37207
2.25517
2.13583
2.02856
1.94528
1.88633
1.84119
1.79772
1.74944
1.68867
1.61169
1.52885
1.453
1.38769
1.32641
1.26006
1.183
1.08764
0.967996
0.827307
0.670626
0.499937
0.317791
0.125326
-0.080252
-0.304498
-0.552721
-0.827155
-1.12775
-1.45579
-1.81675
-2.21689
-2.66403
-3.17211
-3.74828
-4.3745
-4.99559
-5.52518
-5.84959
-5.81998
-5.35067
-4.54863
-3.62981
-2.7542
-1.9874
-1.33241
-0.764185
-0.248859
0.412188
1.18448
1.82774
2.29309
2.56707
2.6973
2.73652
2.71693
2.68157
2.66677
2.68075
2.70606
2.72148
2.71991
2.68363
2.5971
2.47752
2.34544
2.21006
2.09012
2.00223
1.94638
1.9071
1.86786
1.82306
1.76211
1.67782
1.5861
1.50622
1.4428
1.38592
1.32311
1.24944
1.15509
1.03099
0.883336
0.719827
0.541901
0.353228
0.156035
-0.0532276
-0.281979
-0.537222
-0.821111
-1.13217
-1.47088
-1.84462
-2.26079
-2.7283
-3.26955
-3.90189
-4.61185
-5.33724
-5.97946
-6.40787
-6.4152
-5.8595
-4.89196
-3.81814
-2.83756
-2.01339
-1.3334
-0.758773
-0.246157
0.466316
1.33175
2.04163
2.53857
2.8019
2.90406
2.91415
2.86017
2.79584
2.76873
2.78664
2.82168
2.84348
2.85029
2.81748
2.71817
2.58042
2.43231
2.27849
2.14368
2.05139
2.00105
1.97011
1.93586
1.89614
1.83621
1.74228
1.63888
1.55439
1.49442
1.44381
1.3852
1.31641
1.22452
1.09512
0.939541
0.769261
0.583807
0.388524
0.187398
-0.0241618
-0.256063
-0.517663
-0.810839
-1.13182
-1.47951
-1.86425
-2.29428
-2.77756
-3.34766
-4.03596
-4.83625
-5.6777
-6.44923
-7.01137
-7.07749
-6.41418
-5.23786
-3.98282
-2.89142
-2.0144
-1.31693
-0.743343
-0.240216
0.528236
1.49609
2.27836
2.80865
3.05083
3.11571
3.09371
2.99872
2.89949
2.85942
2.8853
2.93424
2.9624
2.98097
2.95554
2.83975
2.68039
2.51625
2.34106
2.18847
2.09205
2.0504
2.03087
2.0017
1.96907
1.91221
1.80536
1.6865
1.59674
1.54236
1.50037
1.44611
1.38393
1.2966
1.16041
0.995512
0.81883
0.625368
0.423162
0.218968
0.00670935
-0.226789
-0.494185
-0.796812
-1.12745
-1.48217
-1.87617
-2.31826
-2.81154
-3.40449
-4.14723
-5.04463
-6.01384
-6.93011
-7.66347
-7.82111
-7.02217
-5.58052
-4.11556
-2.9105
-1.98823
-1.28245
-0.717933
-0.231102
0.599702
1.67891
2.53958
3.10675
3.31339
3.33011
3.2755
3.13179
2.99043
2.93702
2.97646
3.04475
3.07746
3.11201
3.10006
2.96204
2.77664
2.59804
2.39776
2.22353
2.12337
2.09453
2.09031
2.06515
2.04217
1.9918
1.86734
1.72802
1.63235
1.5865
1.55615
1.50545
1.45198
1.37227
1.22682
1.05067
0.868553
0.666322
0.45656
0.250274
0.0391682
-0.194108
-0.466861
-0.779524
-1.11995
-1.47928
-1.88092
-2.33412
-2.83025
-3.43811
-4.23224
-5.23396
-6.3426
-7.41526
-8.36666
-8.66447
-7.69244
-5.91143
-4.20655
-2.88965
-1.93326
-1.22994
-0.682892
-0.218982
0.683239
1.88137
2.82648
3.4374
3.58848
3.54415
3.46061
3.25875
3.06626
2.99949
3.05999
3.15492
3.18725
3.24319
3.25419
3.08498
2.86783
2.67901
2.44868
2.2477
2.14428
2.13361
2.14978
2.12554
2.11554
2.07728
1.9285
1.76221
1.66011
1.62674
1.61207
1.56253
1.52038
1.45295
1.2942
1.10417
0.918646
0.706437
0.488059
0.28082
0.0730118
-0.157863
-0.435686
-0.759483
-1.11038
-1.47117
-1.87895
-2.34385
-2.83402
-3.44672
-4.28729
-5.40149
-6.66153
-7.89451
-9.12175
-9.63151
-8.43569
-6.21823
-4.24451
-2.82412
-1.8487
-1.15996
-0.638872
-0.204111
0.782587
2.10423
3.13947
3.80676
3.87413
3.75337
3.6513
3.37906
3.12425
3.04451
3.13587
3.26752
3.2895
3.37384
3.42242
3.20808
2.95175
2.76122
2.49399
2.25952
2.15356
2.16788
2.21133
2.18164
2.18897
2.17181
1.98901
1.78748
1.6787
1.66305
1.66956
1.61627
1.5887
1.54066
1.36226
1.15481
0.969635
0.745511
0.516893
0.310098
0.108043
-0.117773
-0.400557
-0.737186
-1.10008
-1.45799
-1.87046
-2.35023
-2.82345
-3.4286
-4.30829
-5.54483
-6.96965
-8.35348
-9.92676
-10.7535
-9.26455
-6.48344
-4.21684
-2.71001
-1.73468
-1.07367
-0.586795
-0.186822
0.903339
2.34762
3.47769
4.22339
4.16719
3.95146
3.85164
3.49228
3.16119
3.06947
3.20418
3.38678
3.38069
3.50256
3.6111
3.33025
3.02505
2.84796
2.53386
2.25723
2.14971
2.19756
2.2779
2.23137
2.26178
2.27973
2.04887
1.80184
1.68663
1.69543
1.73086
1.66493
1.6562
1.63831
1.43041
1.20088
1.02251
0.783351
0.542158
0.337595
0.144057
-0.0734112
-0.361271
-0.713086
-1.09077
-1.43961
-1.85522
-2.35703
-2.7994
-3.38225
-4.29064
-5.662
-7.26862
-8.77234
-10.7755
-12.0712
-10.1938
-6.68264
-4.11004
-2.54469
-1.59242
-0.972734
-0.527807
-0.167504
1.05385
2.61075
3.83827
4.69934
4.46285
4.12968
4.06832
3.59781
3.17336
3.07144
3.26487
3.51907
3.45551
3.62694
3.82917
3.44943
3.08276
2.94415
2.56836
2.2387
2.131
2.2228
2.35383
2.27149
2.33261
2.407
2.10769
1.80284
1.68223
1.72382
1.79926
1.70592
1.72163
1.75006
1.49767
1.23999
1.07895
0.819731
0.562776
0.362824
0.18081
-0.0241813
-0.317517
-0.687539
-1.08465
-1.41557
-1.83232
-2.36927
-2.76281
-3.30645
-4.229
-5.7513
-7.56447
-9.12459
-11.6555
-13.6381
-11.2404
-6.78239
-3.91052
-2.32733
-1.42423
-0.859316
-0.463218
-0.146586
1.24647
2.89149
4.21548
5.25151
4.75414
4.27607
4.31169
3.69465
3.15649
3.04722
3.31754
3.67366
3.50629
3.74316
4.08917
3.56225
3.11779
3.05711
2.59727
2.20135
2.09547
2.24346
2.44529
2.29716
2.39918
2.56176
2.16444
1.78751
1.66367
1.74796
1.87958
1.73547
1.78307
1.88176
1.56246
1.26885
1.1416
0.854318
0.577453
0.385366
0.217989
0.0307093
-0.268895
-0.660715
-1.08465
-1.38501
-1.79979
-2.39366
-2.71455
-3.20046
-4.11704
-5.81098
-7.86976
-9.3756
-12.5456
-15.5237
-12.4233
-6.73755
-3.60579
-2.05935
-1.23349
-0.735934
-0.394427
-0.124508
1.49923
3.1859
4.59949
5.90351
5.03112
4.37453
4.59719
3.78088
3.10568
2.99336
3.36096
3.86381
3.52217
3.84548
4.40837
3.66347
3.12027
3.1974
2.61975
2.14218
2.04096
2.25885
2.56104
2.30149
2.45796
2.75503
2.21708
1.75239
1.62909
1.76722
1.97867
1.74821
1.83768
2.04148
1.62233
1.28299
1.21445
0.886546
0.584632
0.404926
0.255153
0.0922839
-0.214941
-0.632467
-1.09465
-1.34652
-1.7542
-2.43904
-2.65505
-3.06428
-3.94712
-5.83855
-8.20639
-9.4811
-13.4122
-17.8183
-13.7635
-6.48817
-3.18622
-1.74483
-1.02455
-0.605331
-0.322856
-0.101707
1.83791
3.48764
4.97479
6.6879
5.28004
4.40368
4.94702
3.85291
3.01548
2.90637
3.39248
4.10808
3.48819
3.92561
4.81031
3.74537
3.07677
3.37997
2.63385
2.05777
1.96523
2.26732
2.71325
2.27486
2.50379
3.0016
2.26202
1.69359
1.5767
1.7802
2.10608
1.73672
1.88145
2.24027
1.67368
1.27649
1.30329
0.915439
0.58246
0.42142
0.291663
0.161842
-0.155188
-0.602153
-1.11975
-1.29821
-1.69012
-2.51711
-2.58388
-2.89905
-3.71006
-5.82969
-8.60913
-9.38559
-14.2058
-20.6381
-15.2833
-5.95595
-2.64744
-1.39075
-0.802487
-0.47033
-0.249882
-0.078591
2.29876
3.78716
5.31841
7.64899
5.48215
4.33558
5.39225
3.90443
2.87998
2.78294
3.4071
4.43195
3.38421
3.97201
5.32649
3.7969
2.96949
3.6255
2.63584
1.94436
1.86613
2.26569
2.91857
2.20428
2.52945
3.32108
2.29346
1.60684
1.50492
1.78433
2.27491
1.69096
1.90883
2.49292
1.71133
1.24161
1.41627
0.939354
0.568757
0.43508
0.326583
0.241019
-0.0892602
-0.568389
-1.16669
-1.23757
-1.59942
-2.64315
-2.49901
-2.70752
-3.3949
-5.77661
-9.12967
-9.02088
-14.8556
-24.1315
-17.0051
-5.04008
-1.99351
-1.00696
-0.572822
-0.333681
-0.176775
-0.0555327
2.93167
4.07094
5.59759
8.8461
5.61234
4.13425
5.97532
3.92506
2.69308
2.62032
3.39631
4.86979
3.18367
3.96898
5.99841
3.80277
2.77521
3.96204
2.61932
1.798
1.7418
2.24846
3.19942
2.07251
2.52516
3.73909
2.30248
1.48775
1.4127
1.77521
2.50275
1.5976
1.91235
2.81895
1.72804
1.16841
1.56458
0.955642
0.541002
0.446589
0.358561
0.331869
-0.0170078
-0.528735
-1.24418
-1.16161
-1.47054
-2.83711
-2.39606
-2.49475
-2.98878
-5.66581
-9.84147
-8.30468
-15.2644
-28.4862
-18.9507
-3.61291
-1.24083
-0.605812
-0.341146
-0.197924
-0.104662
-0.0328539
3.80397
4.32041
5.76722
10.3573
5.63759
3.75408
6.75288
3.89852
2.44881
2.41683
3.34656
5.4671
2.85217
3.89576
6.87981
3.74238
2.46425
4.42687
2.57405
1.61479
1.59109
2.20685
3.58542
1.85719
2.47805
4.2887
2.276
1.33208
1.29976
1.74584
2.8129
1.43932
1.88224
3.24363
1.71398
1.04437
1.76323
0.960224
0.496351
0.457236
0.385679
0.436967
0.0612989
-0.479296
-1.3634
-1.06683
-1.28749
-3.12478
-2.26708
-2.26894
-2.47701
-5.47513
-10.8451
-7.13946
-15.3012
-33.9369
-21.1393
-1.51516
-0.422853
-0.201267
-0.112737
-0.0652799
-0.0344897
-0.0108225
)
;

boundaryField
{
    left
    {
        type            calculated;
        value           uniform 0;
    }
    right
    {
        type            calculated;
        value           uniform 0;
    }
    interface
    {
        type            calculated;
        value           nonuniform List<scalar> 
64
(
3.80397
4.32041
5.76722
10.3573
5.63759
3.75408
6.75288
3.89852
2.44881
2.41683
3.34656
5.4671
2.85217
3.89576
6.87981
3.74238
2.46425
4.42687
2.57405
1.61479
1.59109
2.20685
3.58542
1.85719
2.47805
4.2887
2.276
1.33208
1.29976
1.74584
2.8129
1.43932
1.88224
3.24363
1.71398
1.04437
1.76323
0.960224
0.496351
0.457236
0.385679
0.436967
0.0612989
-0.479296
-1.3634
-1.06683
-1.28749
-3.12478
-2.26708
-2.26894
-2.47701
-5.47513
-10.8451
-7.13946
-15.3012
-33.9369
-21.1393
-1.51516
-0.422853
-0.201267
-0.112737
-0.0652799
-0.0344897
-0.0108225
)
;
    }
    bottom
    {
        type            calculated;
        value           nonuniform List<scalar> 
64
(
0.00630501
0.0187345
0.0306388
0.0417204
0.0517501
0.0605787
0.0681357
0.074419
0.0794783
0.0833964
0.086273
0.0882127
0.0893171
0.0896833
0.0894036
0.0885673
0.087261
0.0855684
0.0835673
0.0813261
0.0789007
0.0763316
0.0736437
0.0708473
0.0679401
0.0649099
0.0617372
0.0583965
0.0548569
0.0510825
0.0470331
0.0426649
0.0379328
0.0327923
0.0272015
0.0211227
0.0145239
0.00737868
-0.000332397
-0.00862103
-0.0174888
-0.0269234
-0.0368934
-0.0473414
-0.058176
-0.0692623
-0.0804132
-0.0913816
-0.101856
-0.111464
-0.119783
-0.12636
-0.130754
-0.13257
-0.131512
-0.127417
-0.120278
-0.110248
-0.0976159
-0.0827654
-0.0661299
-0.0481505
-0.029247
-0.00980744
)
;
    }
    defaultFaces
    {
        type            empty;
    }
}


// ************************************************************************* //
