/*--------------------------------*- C++ -*----------------------------------*\
| =========                 |                                                 |
| \\      /  F ield         | OpenFOAM: The Open Source CFD Toolbox           |
|  \\    /   O peration     | Version:  5.x                                   |
|   \\  /    A nd           | Web:      www.OpenFOAM.org                      |
|    \\/     M anipulation  |                                                 |
\*---------------------------------------------------------------------------*/
FoamFile
{
    version     2.0;
    format      ascii;
    class       volScalarField;
    location    "15.6";
    object      gradTy;
}
// * * * * * * * * * * * * * * * * * * * * * * * * * * * * * * * * * * * * * //

dimensions      [0 -1 0 1 0 0 0];

internalField   nonuniform List<scalar> 
2048
(
-26.4236
-26.396
-26.3417
-26.262
-26.1592
-26.0358
-25.8945
-25.7383
-25.5697
-25.3915
-25.206
-25.0154
-24.8215
-24.6262
-24.4308
-24.2368
-24.0451
-23.8569
-23.6727
-23.4931
-23.3187
-23.1498
-22.9866
-22.8294
-22.6783
-22.5337
-22.3959
-22.265
-22.1417
-22.0262
-21.9192
-21.8213
-21.7333
-21.6559
-21.5902
-21.5372
-21.4979
-21.4735
-21.4653
-21.4744
-21.5022
-21.55
-21.6188
-21.71
-21.8244
-21.9628
-22.1256
-22.3128
-22.5236
-22.7566
-23.0096
-23.2793
-23.5613
-23.8504
-24.1406
-24.4252
-24.6976
-24.9511
-25.1795
-25.3777
-25.5412
-25.6666
-25.7515
-25.7943
-26.4459
-26.4177
-26.3621
-26.2807
-26.1759
-26.0502
-25.9067
-25.7482
-25.5775
-25.3974
-25.2101
-25.018
-24.8227
-24.6262
-24.4298
-24.2348
-24.0424
-23.8535
-23.6689
-23.489
-23.3143
-23.1452
-22.9818
-22.8244
-22.6731
-22.5283
-22.3901
-22.259
-22.1353
-22.0194
-21.9118
-21.8134
-21.7246
-21.6465
-21.58
-21.526
-21.4858
-21.4604
-21.4512
-21.4593
-21.4861
-21.5329
-21.6008
-21.6912
-21.805
-21.9431
-22.1059
-22.2936
-22.5056
-22.7405
-22.9961
-23.2693
-23.5555
-23.8495
-24.145
-24.4352
-24.7129
-24.9713
-25.2041
-25.4058
-25.572
-25.6994
-25.7855
-25.8289
-26.4887
-26.4591
-26.4011
-26.3164
-26.2076
-26.0776
-25.9296
-25.7669
-25.5922
-25.4084
-25.2179
-25.0227
-24.8249
-24.6261
-24.4277
-24.231
-24.0372
-23.8472
-23.6616
-23.4811
-23.3059
-23.1364
-22.9726
-22.8149
-22.6633
-22.518
-22.3794
-22.2476
-22.1232
-22.0064
-21.898
-21.7983
-21.7083
-21.6288
-21.5607
-21.505
-21.463
-21.4358
-21.4246
-21.4307
-21.4556
-21.5004
-21.5666
-21.6555
-21.7681
-21.9055
-22.0683
-22.257
-22.471
-22.7094
-22.97
-23.2498
-23.5442
-23.8476
-24.1533
-24.4541
-24.7421
-25.01
-25.251
-25.4594
-25.6308
-25.7619
-25.8504
-25.8949
-26.5499
-26.5185
-26.4569
-26.3672
-26.2525
-26.1162
-25.9619
-25.7929
-25.6126
-25.4236
-25.2284
-25.0292
-24.8277
-24.6257
-24.4244
-24.2254
-24.0296
-23.838
-23.6513
-23.4698
-23.294
-23.1239
-22.9598
-22.8016
-22.6495
-22.5036
-22.3643
-22.2317
-22.1063
-21.9884
-21.8785
-21.7773
-21.6855
-21.6039
-21.5336
-21.4755
-21.4309
-21.401
-21.3871
-21.3905
-21.4125
-21.4547
-21.5183
-21.6048
-21.7156
-21.8519
-22.0146
-22.2043
-22.4211
-22.6643
-22.9319
-23.221
-23.5271
-23.8441
-24.1648
-24.481
-24.784
-25.0656
-25.3184
-25.5364
-25.715
-25.8512
-25.9428
-25.9889
-26.6283
-26.5944
-26.5279
-26.4317
-26.3092
-26.1646
-26.0019
-25.8251
-25.6375
-25.4421
-25.2411
-25.0368
-24.8308
-24.6247
-24.42
-24.218
-24.0197
-23.8262
-23.638
-23.4555
-23.2789
-23.1083
-22.9437
-22.785
-22.6323
-22.4858
-22.3456
-22.212
-22.0854
-21.966
-21.8545
-21.7513
-21.6571
-21.573
-21.4998
-21.4387
-21.391
-21.3577
-21.3403
-21.3402
-21.3587
-21.3973
-21.4575
-21.541
-21.6493
-21.7839
-21.9461
-22.1369
-22.3568
-22.6056
-22.8819
-23.1828
-23.5038
-23.8385
-24.1787
-24.515
-24.8376
-25.137
-25.4049
-25.6349
-25.8224
-25.9646
-26.06
-26.1078
-26.7229
-26.6857
-26.6131
-26.5084
-26.3762
-26.2213
-26.0484
-25.8621
-25.6659
-25.4629
-25.2553
-25.045
-24.8338
-24.623
-24.4142
-24.2087
-24.0076
-23.8118
-23.6219
-23.4383
-23.261
-23.0899
-22.9248
-22.7656
-22.6123
-22.465
-22.3239
-22.1892
-22.0612
-21.9402
-21.8266
-21.7211
-21.6243
-21.5371
-21.4606
-21.3959
-21.3443
-21.3071
-21.2856
-21.2813
-21.2955
-21.3299
-21.386
-21.4657
-21.5707
-21.7029
-21.864
-22.0555
-22.2787
-22.5337
-22.8199
-23.1347
-23.4737
-23.8299
-24.1941
-24.5555
-24.9023
-25.2234
-25.5095
-25.7536
-25.9513
-26.1002
-26.1996
-26.2493
-26.8331
-26.7917
-26.7114
-26.5964
-26.4523
-26.2849
-26.1001
-25.9027
-25.6968
-25.4852
-25.2702
-25.0535
-24.8364
-24.6204
-24.407
-24.1975
-23.9931
-23.7949
-23.6033
-23.4186
-23.2407
-23.0692
-22.9037
-22.744
-22.5901
-22.4419
-22.2997
-22.1638
-22.0343
-21.9115
-21.7958
-21.6876
-21.5877
-21.4971
-21.4168
-21.348
-21.2921
-21.2504
-21.2243
-21.2151
-21.2245
-21.2539
-21.3052
-21.3802
-21.4812
-21.6101
-21.7694
-21.9611
-22.187
-22.4485
-22.7454
-23.076
-23.4358
-23.8175
-24.2105
-24.6019
-24.9776
-25.3245
-25.6317
-25.8916
-26.1003
-26.2562
-26.3594
-26.4108
-26.9583
-26.912
-26.8223
-26.6947
-26.5363
-26.3543
-26.1556
-25.9457
-25.729
-25.5083
-25.2854
-25.0617
-24.8383
-24.6167
-24.3982
-24.1842
-23.9763
-23.7755
-23.5822
-23.3966
-23.2181
-23.0464
-22.8807
-22.7206
-22.566
-22.4169
-22.2736
-22.1363
-22.0053
-21.8806
-21.7626
-21.6516
-21.5484
-21.4538
-21.3693
-21.2959
-21.2353
-21.1886
-21.1574
-21.1429
-21.1468
-21.1706
-21.2163
-21.286
-21.382
-21.5068
-21.6633
-21.8542
-22.0823
-22.3498
-22.658
-23.0057
-23.3891
-23.8002
-24.2269
-24.6538
-25.0637
-25.4404
-25.7713
-26.0484
-26.2682
-26.4307
-26.5373
-26.5901
-27.0986
-27.0461
-26.945
-26.8023
-26.627
-26.428
-26.2135
-25.9899
-25.7616
-25.5312
-25.3002
-25.0693
-24.8395
-24.6118
-24.3877
-24.169
-23.9572
-23.7536
-23.5586
-23.3722
-23.1936
-23.0219
-22.8562
-22.6957
-22.5404
-22.3904
-22.246
-22.1074
-21.9748
-21.8482
-21.7277
-21.6137
-21.5068
-21.4081
-21.3189
-21.2406
-21.1747
-21.1227
-21.0859
-21.0658
-21.0637
-21.0813
-21.1208
-21.1842
-21.2744
-21.394
-21.5466
-21.7355
-21.9647
-22.2376
-22.5569
-22.9229
-23.3322
-23.7768
-24.2426
-24.711
-25.1606
-25.5715
-25.9286
-26.2236
-26.4542
-26.6222
-26.7313
-26.7849
-27.2539
-27.194
-27.0791
-26.9185
-26.7233
-26.5048
-26.2727
-26.0341
-25.7937
-25.5535
-25.3143
-25.0763
-24.8397
-24.6056
-24.3755
-24.1515
-23.9356
-23.7291
-23.5327
-23.3458
-23.1674
-22.9961
-22.8306
-22.6699
-22.5139
-22.3629
-22.2172
-22.0772
-21.9431
-21.8147
-21.6918
-21.5746
-21.4638
-21.3605
-21.2662
-21.1826
-21.1112
-21.0535
-21.0109
-20.9847
-20.9762
-20.9871
-21.0197
-21.0762
-21.1595
-21.2729
-21.4202
-21.6058
-21.8346
-22.1116
-22.4414
-22.8261
-23.2637
-23.7458
-24.2566
-24.7732
-25.2689
-25.7185
-26.104
-26.4171
-26.6573
-26.8293
-26.9393
-26.9928
-27.4246
-27.3556
-27.2243
-27.0423
-26.824
-26.5833
-26.3317
-26.0771
-25.8242
-25.5745
-25.3275
-25.0824
-24.839
-24.5982
-24.3616
-24.1319
-23.9115
-23.7021
-23.5043
-23.3174
-23.1398
-22.9693
-22.8043
-22.6435
-22.4868
-22.3345
-22.1875
-22.0463
-21.9108
-21.7806
-21.6553
-21.5348
-21.4199
-21.3117
-21.2119
-21.1226
-21.0454
-20.9818
-20.9331
-20.9005
-20.8853
-20.8891
-20.9141
-20.9629
-21.0385
-21.1445
-21.2852
-21.4658
-21.6923
-21.9717
-22.3107
-22.7141
-23.1818
-23.7057
-24.2679
-24.8405
-25.3894
-25.8826
-26.2986
-26.6291
-26.8767
-27.0502
-27.1591
-27.2114
-27.6111
-27.5312
-27.3802
-27.1731
-26.9279
-26.6621
-26.3891
-26.1177
-25.8524
-25.5936
-25.3393
-25.0876
-24.8375
-24.5896
-24.346
-24.11
-23.8847
-23.6723
-23.4735
-23.2871
-23.1109
-22.9419
-22.7777
-22.6168
-22.4593
-22.3056
-22.1572
-22.0147
-21.878
-21.7464
-21.6187
-21.4949
-21.3756
-21.2621
-21.1565
-21.0611
-20.9779
-20.9082
-20.8533
-20.8142
-20.7919
-20.7882
-20.8051
-20.8454
-20.9125
-21.01
-21.1427
-21.3163
-21.5384
-21.8177
-22.164
-22.5853
-23.0845
-23.6544
-24.2752
-24.9128
-25.5234
-26.0657
-26.5134
-26.8597
-27.1117
-27.2832
-27.3885
-27.4382
-27.814
-27.7212
-27.5467
-27.3098
-27.0337
-26.7397
-26.4435
-26.1547
-25.8774
-25.6104
-25.3499
-25.0922
-24.8354
-24.5801
-24.3288
-24.0857
-23.8551
-23.6397
-23.4401
-23.255
-23.081
-22.9142
-22.7512
-22.5904
-22.4317
-22.2764
-22.1263
-21.9827
-21.8452
-21.7124
-21.5826
-21.4554
-21.3314
-21.2122
-21.1004
-20.9986
-20.9091
-20.8332
-20.7721
-20.7264
-20.697
-20.6853
-20.6936
-20.7249
-20.7826
-20.8706
-20.9937
-21.1585
-21.3735
-21.6498
-22.0005
-22.4382
-22.9696
-23.5898
-24.277
-24.9903
-25.6727
-26.2698
-26.7502
-27.1093
-27.3612
-27.5266
-27.625
-27.6706
-28.0343
-27.9258
-27.7234
-27.4517
-27.14
-26.8146
-26.4934
-26.1869
-25.8984
-25.6247
-25.3593
-25.0962
-24.833
-24.5699
-24.3099
-24.0589
-23.8226
-23.6041
-23.4042
-23.2211
-23.0505
-22.8866
-22.7252
-22.5644
-22.4045
-22.2471
-22.095
-21.9504
-21.8125
-21.679
-21.5473
-21.4167
-21.2878
-21.1624
-21.0438
-20.9354
-20.8394
-20.7574
-20.6901
-20.6378
-20.6011
-20.5812
-20.5804
-20.6021
-20.6498
-20.7272
-20.8394
-20.9934
-21.1985
-21.4681
-21.8197
-22.2711
-22.8348
-23.509
-24.2715
-25.0731
-25.8394
-26.4979
-27.0107
-27.3783
-27.6243
-27.7783
-27.8662
-27.9057
-28.273
-28.1457
-27.9104
-27.5978
-27.2452
-26.8851
-26.5374
-26.2131
-25.9147
-25.6363
-25.3676
-25.1001
-24.8306
-24.5593
-24.2897
-24.0295
-23.7868
-23.5652
-23.3655
-23.1856
-23.0195
-22.8596
-22.7002
-22.5394
-22.3778
-22.2176
-22.0632
-21.9178
-21.7802
-21.6466
-21.5133
-21.3793
-21.2452
-21.1131
-20.9871
-20.8717
-20.7692
-20.681
-20.6077
-20.5491
-20.5051
-20.4767
-20.4665
-20.478
-20.515
-20.5812
-20.6811
-20.8222
-21.0145
-21.2733
-21.6209
-22.0824
-22.6774
-23.4091
-24.2562
-25.1613
-26.0265
-26.7536
-27.2973
-27.667
-27.8996
-28.0361
-28.1093
-28.1407
-28.5312
-28.3815
-28.1074
-27.7469
-27.3476
-26.9496
-26.5741
-26.232
-25.9257
-25.645
-25.3753
-25.1044
-24.8287
-24.5488
-24.268
-23.9973
-23.7477
-23.5229
-23.3238
-23.1483
-22.9883
-22.8337
-22.6766
-22.5156
-22.3519
-22.188
-22.0306
-21.8847
-21.7483
-21.6155
-21.4809
-21.3435
-21.204
-21.0644
-20.9304
-20.8078
-20.6987
-20.6044
-20.5255
-20.4608
-20.4096
-20.3724
-20.3523
-20.3533
-20.3793
-20.4335
-20.52
-20.6463
-20.8228
-21.066
-21.404
-21.8704
-22.4947
-23.2865
-24.228
-25.2552
-26.238
-27.0413
-27.6124
-27.9753
-28.1857
-28.2977
-28.3518
-28.373
-28.8104
-28.6339
-28.3144
-27.8979
-27.4452
-27.0065
-26.6019
-26.2424
-25.9306
-25.6509
-25.3829
-25.1094
-24.8277
-24.539
-24.2452
-23.9619
-23.7049
-23.4768
-23.2788
-23.1094
-22.9574
-22.8094
-22.6549
-22.4935
-22.3272
-22.1583
-21.9969
-21.8511
-21.717
-21.5861
-21.4506
-21.3097
-21.1646
-21.0167
-20.8738
-20.7437
-20.6281
-20.5279
-20.4438
-20.3734
-20.3152
-20.269
-20.2385
-20.2287
-20.2435
-20.2852
-20.3572
-20.4674
-20.625
-20.8474
-21.1689
-21.6336
-22.2838
-23.1369
-24.1826
-25.3545
-26.4789
-27.3665
-27.9586
-28.3032
-28.4805
-28.5604
-28.5908
-28.5998
-29.1122
-28.9035
-28.5316
-28.0495
-27.5359
-27.0543
-26.6196
-26.243
-25.9289
-25.6543
-25.3912
-25.1159
-24.8282
-24.5305
-24.2212
-23.9229
-23.6584
-23.4269
-23.2301
-23.0687
-22.927
-22.7874
-22.6356
-22.4733
-22.3041
-22.1285
-21.9617
-21.8166
-21.6865
-21.559
-21.4226
-21.2782
-21.1274
-20.9701
-20.8171
-20.6795
-20.5575
-20.4516
-20.3629
-20.2875
-20.2225
-20.167
-20.1257
-20.1046
-20.1082
-20.1374
-20.1941
-20.2868
-20.4231
-20.6186
-20.9157
-21.3707
-22.0422
-22.956
-24.1144
-25.4588
-26.7559
-27.7355
-28.3384
-28.6497
-28.7817
-28.8214
-28.8237
-28.8184
-29.4384
-29.1907
-28.7591
-28.2002
-27.617
-27.0915
-26.6262
-26.2323
-25.9203
-25.6555
-25.4014
-25.1243
-24.8305
-24.5245
-24.1963
-23.8795
-23.6079
-23.3729
-23.1772
-23.0262
-22.8976
-22.7686
-22.6189
-22.4552
-22.2831
-22.0984
-21.9242
-21.7809
-21.6568
-21.5346
-21.3974
-21.2492
-21.0931
-20.9247
-20.7601
-20.6154
-20.4871
-20.3755
-20.2831
-20.2035
-20.1321
-20.067
-20.0141
-19.9815
-19.9742
-19.9911
-20.0315
-20.1062
-20.2192
-20.3815
-20.6451
-21.0801
-21.7675
-22.739
-24.0158
-25.5671
-27.0778
-28.1562
-28.7543
-29.0135
-29.0864
-29.0779
-29.0478
-29.0266
-29.7913
-29.4957
-28.9977
-28.3483
-27.6851
-27.1171
-26.6206
-26.2085
-25.9042
-25.6549
-25.4148
-25.135
-24.8347
-24.5224
-24.1707
-23.8306
-23.5535
-23.3148
-23.1192
-22.982
-22.8696
-22.754
-22.6053
-22.4393
-22.265
-22.0679
-21.8832
-21.7436
-21.6281
-21.5137
-21.3751
-21.2227
-21.0623
-20.8806
-20.7023
-20.5514
-20.417
-20.2996
-20.2047
-20.1218
-20.0446
-19.9692
-19.9041
-19.8595
-19.842
-19.8473
-19.8704
-19.9271
-20.0161
-20.138
-20.3581
-20.7607
-21.4579
-22.4813
-23.8764
-25.6775
-27.4568
-28.6376
-29.2079
-29.3923
-29.3914
-29.3267
-29.2608
-29.2223
-30.1732
-29.8179
-29.2488
-28.492
-27.7359
-27.1308
-26.6026
-26.1696
-25.8805
-25.6528
-25.4337
-25.1484
-24.8405
-24.5263
-24.1444
-23.7744
-23.4957
-23.2527
-23.055
-22.9358
-22.8432
-22.7449
-22.5949
-22.4254
-22.2512
-22.0369
-21.8372
-21.7044
-21.6004
-21.4974
-21.3558
-21.1987
-21.036
-20.838
-20.6428
-20.4877
-20.3473
-20.2236
-20.1279
-20.0427
-19.9607
-19.8742
-19.7957
-19.7388
-19.7122
-19.7071
-19.7113
-19.751
-19.8167
-19.8902
-20.0559
-20.4107
-21.1126
-22.1787
-23.6822
-25.7864
-27.909
-29.1899
-29.6998
-29.7825
-29.6927
-29.565
-29.4603
-29.4036
-30.5874
-30.1556
-29.5146
-28.6295
-27.7638
-27.1333
-26.5722
-26.1126
-25.8494
-25.6497
-25.4607
-25.1643
-24.8469
-24.5393
-24.1176
-23.708
-23.4355
-23.187
-22.9829
-22.888
-22.8188
-22.7434
-22.5877
-22.4127
-22.2434
-22.0053
-21.7839
-21.6628
-21.5739
-21.4871
-21.3394
-21.1764
-21.0157
-20.7969
-20.5805
-20.4247
-20.2784
-20.1471
-20.053
-19.9667
-19.881
-19.7822
-19.6891
-19.6192
-19.5851
-19.5716
-19.5542
-19.5789
-19.625
-19.6405
-19.7409
-20.0282
-20.7321
-21.8291
-23.414
-25.8883
-28.4571
-29.8243
-30.2293
-30.1796
-29.9862
-29.7897
-29.6445
-29.5693
-31.038
-30.505
-29.7996
-28.7585
-27.7611
-27.1268
-26.5303
-26.0335
-25.8115
-25.6454
-25.5
-25.1822
-24.852
-24.566
-24.0904
-23.6274
-23.3748
-23.1186
-22.9001
-22.8391
-22.7962
-22.752
-22.5832
-22.3999
-22.2447
-21.9729
-21.7205
-21.6191
-21.5481
-21.4848
-21.3257
-21.1549
-21.0036
-20.7572
-20.5134
-20.3633
-20.2107
-20.0692
-19.9804
-19.8939
-19.8065
-19.6935
-19.5842
-19.5004
-19.4609
-19.4426
-19.3987
-19.4117
-19.4453
-19.391
-19.4159
-19.61
-20.3185
-21.4331
-23.0461
-25.9739
-29.1321
-30.552
-30.7931
-30.5777
-30.2674
-29.9982
-29.8119
-29.7182
-31.5302
-30.8593
-30.1107
-28.8769
-27.7168
-27.1162
-26.4787
-25.9262
-25.7689
-25.6389
-25.5574
-25.2008
-24.8517
-24.6132
-24.063
-23.5263
-23.317
-23.0488
-22.8028
-22.7901
-22.7748
-22.7745
-22.5806
-22.3844
-22.2591
-21.9397
-21.6425
-21.5736
-21.5227
-21.4936
-21.314
-21.1321
-21.0029
-20.719
-20.4384
-20.3047
-20.1446
-19.9887
-19.9107
-19.8244
-19.7381
-19.6082
-19.481
-19.3816
-19.3397
-19.322
-19.2434
-19.2494
-19.2835
-19.1432
-19.0855
-19.1508
-19.8761
-20.9966
-22.5433
-26.0296
-29.977
-31.3838
-31.3851
-30.9694
-30.5317
-30.188
-29.9612
-29.8498
-32.0715
-31.2066
-30.459
-28.9823
-27.6158
-27.1096
-26.4203
-25.7821
-25.7251
-25.6276
-25.6411
-25.2179
-24.84
-24.691
-24.0353
-23.3952
-23.2679
-22.9796
-22.6854
-22.7434
-22.7528
-22.8162
-22.5784
-22.3623
-22.2933
-21.9056
-21.5439
-21.5282
-21.496
-21.5178
-21.303
-21.1048
-21.0184
-20.6821
-20.3513
-20.2515
-20.0809
-19.9035
-19.8449
-19.7579
-19.6774
-19.5264
-19.3793
-19.262
-19.2213
-19.2131
-19.086
-19.0913
-19.147
-18.8975
-18.7563
-18.6422
-19.4111
-20.5339
-21.859
-26.0348
-31.0517
-32.3275
-31.9955
-31.3466
-30.7746
-30.3573
-30.0919
-29.9639
-32.6723
-31.5279
-30.8621
-29.0726
-27.4367
-27.1207
-26.3594
-25.5885
-25.6869
-25.6063
-25.7629
-25.2299
-24.807
-24.8139
-24.0074
-23.2206
-23.2362
-22.9139
-22.5393
-22.7034
-22.7266
-22.885
-22.5742
-22.3271
-22.3565
-21.8704
-21.4164
-21.4862
-21.4653
-21.5636
-21.2909
-21.068
-21.0571
-20.6463
-20.2459
-20.2073
-20.0206
-19.8107
-19.7847
-19.6938
-19.626
-19.4478
-19.2792
-19.1402
-19.1049
-19.1203
-18.9229
-18.9352
-19.0456
-18.6521
-18.4387
-18.071
-18.932
-20.0711
-20.931
-25.9593
-32.4383
-33.3851
-32.6101
-31.7001
-30.992
-30.5045
-30.2037
-30.0606
-33.3475
-31.7937
-31.3459
-29.1455
-27.1498
-27.17
-26.3018
-25.3272
-25.6659
-25.5652
-25.9398
-25.2318
-24.7379
-25.0026
-23.9789
-22.9834
-23.2353
-22.8555
-22.3523
-22.6772
-22.6897
-22.9919
-22.5647
-22.2693
-22.462
-21.8339
-21.2485
-21.4537
-21.4255
-21.6398
-21.2749
-21.0143
-21.1291
-20.6112
-20.1134
-20.178
-19.9649
-19.7059
-19.7327
-19.6304
-19.5865
-19.3718
-19.1809
-19.0146
-18.9892
-19.0502
-18.7484
-18.7775
-18.9928
-18.4018
-18.1481
-17.4168
-18.4491
-19.652
-19.6778
-25.7602
-34.2496
-34.5487
-33.2103
-32.0205
-31.1806
-30.6289
-30.2966
-30.1405
-34.1181
-31.9598
-31.9491
-29.1987
-26.7137
-27.2881
-26.2552
-24.972
-25.6807
-25.4881
-26.1957
-25.2165
-24.6112
-25.2864
-23.9493
-22.6566
-23.2848
-22.8095
-22.1071
-22.6771
-22.6313
-23.1526
-22.5451
-22.175
-22.6287
-21.7956
-21.0245
-21.4412
-21.3681
-21.7591
-21.2513
-20.9329
-21.2487
-20.5759
-19.9415
-20.1721
-19.9154
-19.5827
-19.6934
-19.5652
-19.5625
-19.2973
-19.0848
-18.8832
-18.8717
-19.0121
-18.5552
-18.6117
-19.0068
-18.1355
-17.9082
-16.6497
-17.9733
-19.3444
-17.9933
-25.3772
-36.6388
-35.7944
-33.7728
-32.2988
-31.3377
-30.7301
-30.3712
-30.2042
-35.0135
-31.9619
-32.7267
-29.23
-26.0724
-27.5185
-26.2288
-24.4862
-25.7606
-25.3485
-26.5641
-25.1745
-24.3963
-25.7052
-23.9179
-22.2032
-23.4129
-22.7821
-21.7792
-22.7219
-22.5341
-23.3889
-22.5089
-22.0245
-22.8824
-21.7543
-20.7232
-21.4649
-21.2792
-21.9389
-21.2148
-20.8086
-21.4355
-20.5394
-19.7138
-20.202
-19.8736
-19.4323
-19.6732
-19.4937
-19.5587
-19.2221
-18.9922
-18.7436
-18.7481
-19.0195
-18.3327
-18.4285
-19.1131
-17.8338
-17.7538
-15.7267
-17.5145
-19.2485
-15.7411
-24.7268
-39.8117
-37.0738
-34.271
-32.5273
-31.4619
-30.8085
-30.4285
-30.2528
-36.0746
-31.7087
-33.7558
-29.2372
-25.1503
-27.9218
-26.2339
-23.8194
-25.9496
-25.1063
-27.0909
-25.0933
-24.051
-26.3132
-23.8829
-21.5735
-23.6586
-22.7808
-21.3352
-22.8402
-22.3714
-23.7312
-22.4478
-21.7907
-23.2581
-21.7083
-20.316
-21.5494
-21.1376
-22.2035
-21.1586
-20.6205
-21.7162
-20.4997
-19.4079
-20.2853
-19.8412
-19.2429
-19.682
-19.409
-19.5821
-19.1432
-18.9047
-18.593
-18.6122
-19.0907
-18.0674
-18.2138
-19.3464
-17.4652
-17.7363
-14.5881
-17.0793
-19.5069
-12.7486
-23.6962
-44.0417
-38.304
-34.6765
-32.7002
-31.5528
-30.865
-30.4693
-30.2874
-37.3573
-31.0741
-35.1424
-29.2174
-23.8478
-28.5806
-26.2832
-22.9029
-26.3122
-24.7017
-27.8389
-24.9572
-23.5183
-27.1824
-23.842
-20.7018
-24.0749
-22.8143
-20.7296
-23.074
-22.1039
-24.2205
-22.351
-21.4369
-23.8025
-21.6546
-19.7654
-21.7306
-20.9116
-22.5859
-21.0736
-20.3404
-22.1264
-20.4541
-18.9946
-20.4459
-19.8197
-18.9981
-19.734
-19.3008
-19.6419
-19.0555
-18.8255
-18.4286
-18.454
-19.2508
-17.7421
-17.9482
-19.7541
-16.9811
-17.9287
-13.1532
-16.6672
-20.3157
-8.79958
-22.1345
-49.6875
-39.3537
-34.963
-32.8144
-31.6113
-30.901
-30.4952
-30.3093
-38.9367
-29.8874
-37.0288
-29.1673
-22.0356
-29.6047
-26.3914
-21.646
-26.9401
-24.0494
-28.892
-24.7462
-22.7228
-28.4065
-23.7919
-19.5035
-24.7334
-22.8933
-19.9032
-23.4841
-21.6767
-24.9132
-22.205
-20.9141
-24.5755
-21.5895
-19.0248
-22.062
-20.5582
-23.1324
-20.9496
-19.9316
-22.7128
-20.399
-18.4365
-20.7165
-19.8105
-18.6765
-19.849
-19.1539
-19.751
-18.9518
-18.7594
-18.248
-18.2598
-19.5331
-17.3346
-17.6047
-20.4012
-16.3104
-18.4332
-11.3163
-16.266
-21.9384
-3.62751
-19.8438
-57.2128
-40.0274
-35.1109
-32.8703
-31.6396
-30.9182
-30.5076
-30.3198
)
;

boundaryField
{
    left
    {
        type            calculated;
        value           nonuniform List<scalar> 
32
(
-26.4236
-26.4459
-26.4887
-26.5499
-26.6283
-26.7229
-26.8331
-26.9583
-27.0986
-27.2539
-27.4246
-27.6111
-27.814
-28.0343
-28.273
-28.5312
-28.8104
-29.1122
-29.4384
-29.7913
-30.1732
-30.5874
-31.038
-31.5302
-32.0715
-32.6723
-33.3475
-34.1181
-35.0135
-36.0746
-37.3573
-38.9367
)
;
    }
    right
    {
        type            calculated;
        value           nonuniform List<scalar> 
32
(
-25.7943
-25.8289
-25.8949
-25.9889
-26.1078
-26.2493
-26.4108
-26.5901
-26.7849
-26.9928
-27.2114
-27.4382
-27.6706
-27.9057
-28.1407
-28.373
-28.5998
-28.8184
-29.0266
-29.2223
-29.4036
-29.5693
-29.7182
-29.8498
-29.9639
-30.0606
-30.1405
-30.2042
-30.2528
-30.2874
-30.3093
-30.3198
)
;
    }
    interface
    {
        type            calculated;
        value           nonuniform List<scalar> 
64
(
-39.8112
-29.1316
-38.1172
-29.1342
-20.9839
-30.2238
-26.4621
-20.9195
-27.3338
-23.6489
-29.5068
-24.6193
-22.2486
-29.1204
-23.7641
-18.8109
-25.1335
-22.9458
-19.4265
-23.7423
-21.4152
-25.3186
-22.1179
-20.6034
-25.0276
-21.5535
-18.6008
-22.2733
-20.3435
-23.4535
-20.8764
-19.6899
-23.0568
-20.3685
-18.1161
-20.884
-19.8091
-18.4934
-19.9252
-19.0685
-19.8197
-18.8949
-18.7304
-18.1534
-18.1516
-19.7095
-17.1073
-17.4097
-20.7938
-15.9179
-18.7784
-10.2824
-16.0659
-22.9908
-0.699007
-18.4882
-61.5107
-40.2412
-35.1483
-32.8839
-31.6464
-30.9224
-30.5106
-30.3223
)
;
    }
    bottom
    {
        type            calculated;
        value           nonuniform List<scalar> 
64
(
-26.4178
-26.3904
-26.3363
-26.2571
-26.1549
-26.032
-25.8914
-25.7357
-25.5677
-25.3899
-25.2049
-25.0147
-24.8212
-24.6262
-24.4311
-24.2373
-24.0458
-23.8577
-23.6736
-23.4942
-23.3199
-23.151
-22.9879
-22.8307
-22.6797
-22.5352
-22.3973
-22.2666
-22.1433
-22.028
-21.9211
-21.8234
-21.7356
-21.6584
-21.5929
-21.5401
-21.501
-21.4769
-21.4689
-21.4784
-21.5064
-21.5544
-21.6236
-21.7149
-21.8295
-21.968
-22.1308
-22.3177
-22.5282
-22.7608
-23.0131
-23.2818
-23.5627
-23.8506
-24.1394
-24.4226
-24.6936
-24.9458
-25.1732
-25.3704
-25.5332
-25.6581
-25.7426
-25.7853
)
;
    }
    defaultFaces
    {
        type            empty;
    }
}


// ************************************************************************* //
