/*--------------------------------*- C++ -*----------------------------------*\
| =========                 |                                                 |
| \\      /  F ield         | OpenFOAM: The Open Source CFD Toolbox           |
|  \\    /   O peration     | Version:  5.x                                   |
|   \\  /    A nd           | Web:      www.OpenFOAM.org                      |
|    \\/     M anipulation  |                                                 |
\*---------------------------------------------------------------------------*/
FoamFile
{
    version     2.0;
    format      ascii;
    class       volScalarField;
    location    "5.4999";
    object      gradTx;
}
// * * * * * * * * * * * * * * * * * * * * * * * * * * * * * * * * * * * * * //

dimensions      [0 -1 0 1 0 0 0];

internalField   nonuniform List<scalar> 
6300
(
-31.2747
-31.3454
-31.4863
-31.6957
-31.9716
-32.3107
-32.7088
-33.1605
-33.659
-34.1963
-34.7631
-35.349
-35.943
-36.5341
-37.1116
-31.204
-31.2754
-31.4177
-31.6294
-31.9085
-32.2518
-32.6553
-33.1137
-33.6202
-34.1668
-34.744
-35.3409
-35.9461
-36.5477
-37.1345
-31.0619
-31.1347
-31.2797
-31.4958
-31.7811
-32.1328
-32.5471
-33.0189
-33.5416
-34.107
-34.7052
-35.3247
-35.9529
-36.5764
-37.1823
-30.8472
-30.9219
-31.0708
-31.2932
-31.5874
-31.9513
-32.3814
-32.8732
-33.4203
-34.0144
-34.6452
-35.3
-35.9644
-36.6227
-37.2591
-30.5578
-30.6348
-30.7886
-31.0187
-31.3242
-31.7036
-32.1542
-32.6723
-33.252
-33.8852
-34.5612
-35.2658
-35.9821
-36.6909
-37.372
-30.1915
-30.271
-30.4301
-30.6689
-30.9873
-31.3847
-31.8598
-32.4099
-33.0303
-33.7135
-34.4485
-35.2199
-36.0076
-36.787
-37.5313
-29.7458
-29.8278
-29.9921
-30.2396
-30.5714
-30.9881
-31.4903
-32.0772
-32.7458
-33.4901
-34.2997
-35.1579
-36.0412
-36.9185
-37.7523
-29.2182
-29.3022
-29.471
-29.7263
-30.0705
-30.5063
-31.0364
-31.6628
-32.3856
-33.2016
-34.1022
-35.0709
-36.081
-37.0935
-38.0563
-28.6068
-28.6918
-28.8634
-29.1242
-29.478
-29.9302
-30.4863
-31.1521
-31.9324
-32.8287
-33.8366
-34.9425
-36.1186
-37.3183
-38.4711
-27.9103
-27.9951
-28.1668
-28.4289
-28.7875
-29.2501
-29.8264
-30.5271
-31.3633
-32.3441
-33.4732
-34.7439
-36.1327
-37.59
-39.0285
-27.129
-27.2118
-27.3796
-27.6375
-27.9929
-28.4566
-29.0422
-29.7668
-30.6498
-31.7113
-32.9681
-34.4274
-36.0782
-37.8808
-39.7494
-26.2651
-26.3433
-26.5026
-26.7485
-27.0903
-27.5411
-28.1191
-28.8481
-29.7578
-30.8832
-32.2606
-33.9196
-35.8719
-38.1055
-40.5918
-25.3231
-25.394
-25.5389
-25.7637
-26.0786
-26.4986
-27.0452
-27.7486
-28.6501
-29.8032
-31.2715
-33.1183
-35.3844
-38.0774
-41.2901
-24.3101
-24.3709
-24.4953
-24.689
-24.962
-25.3295
-25.8144
-26.4512
-27.291
-28.4079
-29.9038
-31.8977
-34.4696
-37.5293
-40.9245
-23.2365
-23.2843
-23.3823
-23.5352
-23.751
-24.043
-24.4319
-24.9509
-25.6547
-26.6337
-28.038
-30.0988
-33.0662
-36.6435
-37.2066
-37.6221
-38.0639
-38.4819
-38.8743
-39.2402
-39.5796
-39.893
-40.1808
-40.4435
-40.6808
-40.8923
-41.0771
-41.2342
-41.363
-41.4634
-41.5362
-41.5835
-41.6082
-41.6139
-41.605
-41.5856
-41.5594
-41.5293
-41.497
-41.463
-41.4265
-41.3863
-41.3401
-41.2862
-41.2231
-41.1499
-41.0672
-40.9762
-40.8792
-40.7789
-40.678
-40.5792
-40.4842
-40.3936
-40.3073
-40.224
-40.1415
-40.0575
-39.9698
-39.8764
-39.7765
-39.67
-39.558
-39.4424
-39.3258
-39.2105
-39.0989
-38.9925
-38.892
-38.797
-38.7061
-38.6174
-38.5284
-38.437
-38.3413
-38.2404
-38.1342
-38.0239
-37.9112
-37.7984
-37.6881
-37.5825
-37.4831
-37.3907
-37.3051
-37.2252
-37.1495
-37.076
-37.0033
-36.9303
-36.8569
-36.7843
-36.7147
-36.6515
-36.5984
-36.5598
-36.5394
-36.5402
-36.5642
-36.6113
-36.6802
-36.7672
-36.8674
-36.9746
-37.0819
-37.6519
-38.098
-38.5188
-38.9124
-39.2784
-39.6172
-39.9298
-40.2172
-40.48
-40.7181
-40.9308
-41.117
-41.2751
-41.4039
-41.503
-41.5731
-41.6162
-41.6354
-41.6351
-41.6202
-41.5954
-41.5651
-41.5326
-41.4995
-41.4664
-41.4322
-41.3947
-41.3514
-41.2996
-41.2374
-41.1638
-41.0791
-40.9849
-40.884
-40.7796
-40.6752
-40.5738
-40.4777
-40.3876
-40.3031
-40.2227
-40.1436
-40.063
-39.9779
-39.8859
-39.7859
-39.6778
-39.5631
-39.4441
-39.3237
-39.2052
-39.0914
-38.9841
-38.8841
-38.791
-38.703
-38.6177
-38.532
-38.4431
-38.3488
-38.2478
-38.1403
-38.0273
-37.9112
-37.7948
-37.6814
-37.5734
-37.473
-37.3809
-37.2967
-37.2192
-37.1461
-37.075
-37.0037
-36.9307
-36.8557
-36.7799
-36.7056
-36.6367
-36.5776
-36.5335
-36.5087
-36.507
-36.5307
-36.5801
-36.6538
-36.7481
-36.8573
-36.9745
-37.0919
-37.7138
-38.1689
-38.5949
-38.9905
-39.3559
-39.6927
-40.0031
-40.2891
-40.552
-40.792
-41.0078
-41.1974
-41.3582
-41.4877
-41.5846
-41.6491
-41.6832
-41.6909
-41.6776
-41.6496
-41.6133
-41.5742
-41.5365
-41.5023
-41.4716
-41.4425
-41.4116
-41.3748
-41.3281
-41.2682
-41.1937
-41.1047
-41.0035
-40.8938
-40.7803
-40.6679
-40.561
-40.4624
-40.3734
-40.2932
-40.2193
-40.1481
-40.075
-39.9957
-39.9069
-39.8068
-39.6954
-39.5744
-39.4475
-39.3189
-39.1932
-39.0743
-38.965
-38.8663
-38.7775
-38.6961
-38.6183
-38.54
-38.4569
-38.3658
-38.2648
-38.154
-38.0351
-37.9114
-37.7871
-37.6665
-37.5536
-37.4508
-37.3595
-37.2788
-37.2067
-37.1397
-37.0741
-37.0064
-36.9339
-36.8558
-36.773
-36.6887
-36.6075
-36.5355
-36.4791
-36.4446
-36.4371
-36.4599
-36.514
-36.5979
-36.7073
-36.8356
-36.9741
-37.113
-37.8129
-38.2817
-38.715
-39.1121
-39.4747
-39.8063
-40.1116
-40.3944
-40.6573
-40.9007
-41.1227
-41.3194
-41.4863
-41.6185
-41.713
-41.7689
-41.7884
-41.7766
-41.7412
-41.691
-41.6351
-41.5814
-41.5355
-41.5001
-41.4745
-41.4554
-41.437
-41.4126
-41.3755
-41.3203
-41.2444
-41.148
-41.0342
-40.909
-40.7794
-40.653
-40.5361
-40.4334
-40.3464
-40.2741
-40.2123
-40.1552
-40.0958
-40.0272
-39.9443
-39.8441
-39.7264
-39.5944
-39.4533
-39.3099
-39.1712
-39.0434
-38.9306
-38.8343
-38.7533
-38.6838
-38.6199
-38.5549
-38.4823
-38.3969
-38.2959
-38.1792
-38.0497
-37.9124
-37.7738
-37.6407
-37.5188
-37.4123
-37.3226
-37.2485
-37.1866
-37.1313
-37.0763
-37.0158
-36.9453
-36.8625
-36.7684
-36.6671
-36.565
-36.4706
-36.3932
-36.3417
-36.3235
-36.3439
-36.4049
-36.5051
-36.6394
-36.7992
-36.973
-37.1478
-37.958
-38.4456
-38.8875
-39.2835
-39.638
-39.9581
-40.2524
-40.5284
-40.7907
-41.0403
-41.2739
-41.4847
-41.6643
-41.8039
-41.8971
-41.9413
-41.9387
-41.8965
-41.8261
-41.7407
-41.6539
-41.5775
-41.5195
-41.4836
-41.4683
-41.4673
-41.4713
-41.4688
-41.4488
-41.4023
-41.3247
-41.2161
-41.0816
-40.9304
-40.774
-40.6241
-40.491
-40.3817
-40.2985
-40.2396
-40.1985
-40.1656
-40.1296
-40.0795
-40.0067
-39.9063
-39.7782
-39.6274
-39.4624
-39.294
-39.1337
-38.9909
-38.8723
-38.7802
-38.7126
-38.6632
-38.6229
-38.5806
-38.5259
-38.4505
-38.3495
-38.223
-38.0754
-37.9152
-37.7526
-37.5985
-37.462
-37.3494
-37.263
-37.2008
-37.1569
-37.1222
-37.0865
-37.0397
-36.974
-36.8854
-36.7743
-36.6464
-36.5113
-36.3813
-36.27
-36.1906
-36.1544
-36.1693
-36.2392
-36.363
-36.5346
-36.7424
-36.9705
-37.2004
-38.1628
-38.6756
-39.1259
-39.5149
-39.8508
-40.1473
-40.4198
-40.6821
-40.9427
-41.2032
-41.4579
-41.6952
-41.8998
-42.0561
-42.1518
-42.181
-42.146
-42.0574
-41.9326
-41.7924
-41.6578
-41.5469
-41.4719
-41.4377
-41.4412
-41.4722
-41.5149
-41.5503
-41.5601
-41.5293
-41.4498
-41.3216
-41.1531
-40.9594
-40.7591
-40.5712
-40.4118
-40.2921
-40.2158
-40.1796
-40.173
-40.1805
-40.1837
-40.1646
-40.1088
-40.0082
-39.8629
-39.6808
-39.4761
-39.2667
-39.0707
-38.9036
-38.7757
-38.6908
-38.6455
-38.6297
-38.6285
-38.6242
-38.5995
-38.5407
-38.4398
-38.2968
-38.1194
-37.9212
-37.7193
-37.5308
-37.3707
-37.2488
-37.1686
-37.1268
-37.1136
-37.1146
-37.1125
-37.0907
-37.0358
-36.9403
-36.8044
-36.6362
-36.4501
-36.2648
-36.1007
-35.9774
-35.9115
-35.9154
-35.9957
-36.1523
-36.3776
-36.6562
-36.9655
-37.278
-38.4486
-38.9955
-39.4529
-39.8228
-40.1206
-40.3709
-40.6021
-40.8383
-41.0948
-41.3744
-41.6671
-41.9529
-42.2049
-42.3957
-42.5025
-42.5133
-42.4304
-42.2705
-42.0613
-41.836
-41.6279
-41.4648
-41.3656
-41.3374
-41.3747
-41.4605
-41.5688
-41.6688
-41.7298
-41.7266
-41.645
-41.4851
-41.2611
-40.998
-40.7264
-40.477
-40.2757
-40.1398
-40.0754
-40.0768
-40.1272
-40.2015
-40.2698
-40.3024
-40.2753
-40.1746
-40.0005
-39.7666
-39.4966
-39.2201
-38.9662
-38.7597
-38.6172
-38.5444
-38.5358
-38.5753
-38.6385
-38.6971
-38.7224
-38.6912
-38.5906
-38.4203
-38.1934
-37.9327
-37.6663
-37.4223
-37.2243
-37.088
-37.0189
-37.0114
-37.05
-37.1111
-37.1669
-37.1894
-37.1559
-37.0533
-36.8811
-36.6516
-36.3876
-36.1178
-35.8728
-35.6814
-35.5681
-35.5514
-35.6422
-35.8425
-36.1439
-36.5258
-36.9557
-37.3918
-38.8483
-39.4445
-39.9059
-40.2348
-40.4586
-40.6224
-40.777
-40.9655
-41.2139
-41.5266
-41.8866
-42.259
-42.5985
-42.8564
-42.9915
-42.9807
-42.8259
-42.5547
-42.2131
-41.8551
-41.5331
-41.2907
-41.1572
-41.1429
-41.2385
-41.4164
-41.6348
-41.8437
-41.9919
-42.0366
-41.953
-41.7409
-41.4253
-41.0488
-40.6617
-40.3136
-40.0455
-39.8846
-39.8403
-39.9035
-40.0472
-40.2312
-40.4072
-40.5264
-40.5475
-40.4468
-40.2244
-39.9041
-39.5267
-39.1407
-38.7933
-38.5238
-38.3582
-38.3056
-38.3569
-38.4864
-38.6554
-38.8177
-38.9264
-38.9419
-38.8415
-38.6252
-38.3158
-37.9523
-37.5811
-37.2475
-36.9889
-36.8303
-36.7802
-36.8297
-36.9539
-37.1153
-37.2689
-37.3686
-37.3756
-37.2665
-37.04
-36.7167
-36.3334
-35.935
-35.5674
-35.2727
-35.0856
-35.0327
-35.1309
-35.387
-35.794
-36.3264
-36.9367
-37.5599
-39.4123
-40.0875
-40.55
-40.7984
-40.8829
-40.8874
-40.9034
-41.0063
-41.2404
-41.6111
-42.088
-42.6129
-43.1095
-43.4938
-43.691
-43.6554
-43.3889
-42.9404
-42.3888
-41.8223
-41.3236
-40.9602
-40.777
-40.7901
-40.9838
-41.3139
-41.7147
-42.1059
-42.4032
-42.5317
-42.4459
-42.1459
-41.6774
-41.1146
-40.541
-40.0351
-39.661
-39.4612
-39.4507
-39.6141
-39.909
-40.2722
-40.6267
-40.8915
-40.9952
-40.8943
-40.5892
-40.1237
-39.5691
-39.0056
-38.5082
-38.1383
-37.9365
-37.9171
-38.0653
-38.3404
-38.6818
-39.0156
-39.2643
-39.3595
-39.2593
-38.9641
-38.516
-37.9829
-37.4417
-36.9644
-36.6096
-36.4163
-36.398
-36.5404
-36.8042
-37.1307
-37.4484
-37.6814
-37.7623
-37.6487
-37.3382
-36.8681
-36.3009
-35.7078
-35.1572
-34.7087
-34.41
-34.2963
-34.3922
-34.714
-35.2637
-36.0145
-36.8991
-37.8122
-40.2166
-41.0368
-41.5027
-41.598
-41.4224
-41.1362
-40.9045
-40.8584
-41.0705
-41.5427
-42.2202
-43.0079
-43.7822
-44.4008
-44.7256
-44.6628
-44.2139
-43.4749
-42.5861
-41.6919
-40.9192
-40.3702
-40.1143
-40.1775
-40.5326
-41.1098
-41.8082
-42.5037
-43.0574
-43.3354
-43.2473
-42.7936
-42.0654
-41.196
-40.3228
-39.5668
-39.0256
-38.7652
-38.8105
-39.1354
-39.6727
-40.3256
-40.9752
-41.4885
-41.7375
-41.6359
-41.1847
-40.4716
-39.6245
-38.7751
-38.0394
-37.5106
-37.252
-37.2872
-37.591
-38.0992
-38.7188
-39.3361
-39.8234
-40.0583
-39.958
-39.5233
-38.8382
-38.0252
-37.2104
-36.5048
-35.9978
-35.7501
-35.7843
-36.0762
-36.5642
-37.1587
-37.7497
-38.2131
-38.429
-38.3145
-37.8661
-37.1592
-36.3055
-35.4192
-34.6
-33.9291
-33.4677
-33.2579
-33.3281
-33.7126
-34.4438
-35.5098
-36.8204
-38.1993
-41.3702
-42.4963
-42.9892
-42.7876
-42.1215
-41.3065
-40.6387
-40.3387
-40.5262
-41.1786
-42.1938
-43.4223
-44.6792
-45.7312
-46.3183
-46.2265
-45.4568
-44.2251
-42.7913
-41.3865
-40.1929
-39.3583
-38.9922
-39.1446
-39.7617
-40.7314
-41.9057
-43.1058
-44.1085
-44.6662
-44.5752
-43.8367
-42.6567
-41.2829
-39.9358
-38.7895
-37.9856
-37.629
-37.7679
-38.3507
-39.27
-40.3836
-41.5202
-42.4662
-42.9845
-42.8809
-42.1576
-41.0124
-39.6831
-38.381
-37.2728
-36.4938
-36.1443
-36.2704
-36.8224
-37.6973
-38.7591
-39.8435
-40.746
-41.2395
-41.1379
-40.4431
-39.3446
-38.07
-36.8217
-35.7592
-35.0125
-34.6778
-34.7993
-35.3297
-36.1707
-37.1916
-38.2345
-39.1014
-39.5714
-39.4609
-38.766
-37.6616
-36.357
-35.0339
-33.8292
-32.8476
-32.1631
-31.8162
-31.8112
-32.2122
-33.1415
-34.6529
-36.6432
-38.8103
-42.9991
-44.8678
-45.476
-44.6463
-43.0349
-41.2653
-39.8435
-39.1171
-39.3124
-40.2925
-41.8601
-43.7962
-45.8712
-47.731
-48.8888
-48.7664
-47.365
-45.2664
-42.9547
-40.7772
-38.9494
-37.6721
-37.1232
-37.4428
-38.4829
-40.0586
-41.9663
-43.9921
-45.8007
-46.9313
-46.8353
-45.5157
-43.5271
-41.3313
-39.2598
-37.519
-36.3016
-35.7791
-36.0862
-37.0814
-38.5873
-40.4086
-42.3397
-44.0595
-45.127
-45.0183
-43.7378
-41.8182
-39.7024
-37.7078
-36.0318
-34.8585
-34.3517
-34.6404
-35.5886
-37.0264
-38.7668
-40.613
-42.2574
-43.2778
-43.172
-41.9442
-40.1045
-38.0768
-36.1652
-34.5588
-33.4341
-32.9483
-33.2254
-34.136
-35.518
-37.1929
-38.9726
-40.5611
-41.5495
-41.4487
-40.2557
-38.4523
-36.4349
-34.4781
-32.737
-31.3383
-30.3724
-29.8823
-29.7097
-29.9508
-31.001
-33.1064
-36.2112
-39.8124
-45.094
-49.0551
-50.034
-47.6299
-44.1759
-40.7236
-38.0474
-36.5683
-36.9688
-38.5603
-40.996
-43.97
-47.3734
-50.7417
-53.303
-53.1482
-50.2771
-46.6149
-42.925
-39.6644
-36.9134
-34.937
-34.0038
-34.7034
-36.4328
-38.9076
-41.8569
-45.1911
-48.4692
-50.9628
-50.8577
-48.1579
-44.6961
-41.2008
-38.1075
-35.4948
-33.6171
-32.7344
-33.4138
-35.0767
-37.4507
-40.2752
-43.4636
-46.5921
-48.9633
-48.8433
-46.238
-42.9066
-39.5471
-36.5759
-34.067
-32.2634
-31.4136
-32.0605
-33.6497
-35.9199
-38.6219
-41.6729
-44.6674
-46.9374
-46.8219
-44.3263
-41.1349
-37.9164
-35.0692
-32.6646
-30.9355
-30.1202
-30.7394
-32.2633
-34.4433
-37.0431
-39.9859
-42.8849
-45.0959
-45.0093
-42.6242
-39.5512
-36.4252
-33.6119
-31.1516
-29.2058
-27.8965
-27.491
-27.0125
-26.5244
-27.3407
-30.1209
-35.064
-41.5427
-46.6152
-57.5391
-59.4678
-52.1261
-45.3122
-39.0638
-34.5274
-31.3129
-32.9102
-35.6128
-39.3567
-43.5257
-48.9263
-54.9144
-61.6286
-61.4417
-54.3283
-48.0034
-42.2772
-37.8178
-33.7622
-30.6997
-28.5332
-30.4813
-33.3095
-37.0736
-41.1934
-46.4708
-52.2678
-58.7363
-58.6164
-51.8973
-45.9134
-40.4913
-36.2633
-32.4121
-29.4999
-27.4404
-29.325
-32.048
-35.6653
-39.6177
-44.6738
-50.2153
-56.3868
-56.2469
-49.7839
-44.0352
-38.8329
-34.778
-31.0866
-28.2949
-26.3202
-28.1238
-30.7298
-34.1917
-37.9743
-42.814
-48.1204
-54.0322
-53.8992
-47.7101
-42.2044
-37.2212
-33.3359
-29.7975
-27.1209
-25.2265
-26.9504
-29.4456
-32.7643
-36.3994
-41.062
-46.1995
-51.9505
-51.8795
-45.9833
-40.7264
-35.965
-32.2371
-28.8254
-26.1568
-24.1191
-25.2053
-24.3294
-21.2201
-20.8525
-24.0206
-31.7054
-44.7271
-40.4842
-78.9705
-82.2642
-55.8768
-45.6363
-34.9384
-29.1041
-19.1288
-27.2602
-31.1658
-37.1054
-41.3079
-49.6333
-58.0417
-79.892
-79.7095
-57.2441
-48.5301
-39.8053
-35.3897
-29.1811
-25.1721
-17.1376
-24.9918
-28.8384
-34.7272
-38.8632
-47.0024
-55.0993
-75.997
-75.8781
-54.5782
-46.3216
-38.0626
-33.8763
-27.9774
-24.1547
-16.4668
-24.0289
-27.7315
-33.3974
-37.3708
-45.1849
-52.9311
-72.8989
-72.7559
-52.3012
-44.3769
-36.4663
-32.4567
-26.8106
-23.1497
-15.7859
-23.0316
-26.5775
-32.0015
-35.8046
-43.283
-50.7017
-69.8315
-69.6969
-50.1099
-42.5213
-34.9449
-31.1029
-25.6895
-22.1801
-15.1222
-22.0506
-25.4421
-30.6295
-34.276
-41.4541
-48.6306
-67.1888
-67.138
-48.4217
-41.1879
-34.0164
-30.407
-25.4291
-22.1996
-15.8435
-25.746
-24.8642
-11.969
-9.27331
-11.4161
-20.6613
-50.933
-37.1909
-37.2909
-37.3619
-37.3985
-37.3989
-37.365
-37.3017
-37.2159
-37.116
-37.0107
-36.9084
-36.8168
-36.7422
-36.6896
-36.6625
-37.2111
-37.3199
-37.3963
-37.4346
-37.4332
-37.3944
-37.324
-37.23
-37.1214
-37.0076
-36.8977
-36.7997
-36.7201
-36.6642
-36.6353
-37.2537
-37.3811
-37.4688
-37.5104
-37.5046
-37.4553
-37.37
-37.2585
-37.1318
-37.0006
-36.8751
-36.764
-36.6743
-36.6115
-36.5792
-37.3241
-37.4818
-37.5875
-37.6334
-37.6196
-37.5522
-37.442
-37.3023
-37.1465
-36.9879
-36.8381
-36.7067
-36.6015
-36.5283
-36.4908
-37.4312
-37.6345
-37.7659
-37.8162
-37.7879
-37.6917
-37.5437
-37.3619
-37.1641
-36.9664
-36.7825
-36.6231
-36.4968
-36.4094
-36.3647
-37.5897
-37.8592
-38.0251
-38.0777
-38.0241
-37.883
-37.679
-37.4374
-37.1815
-36.9312
-36.7022
-36.5065
-36.353
-36.2476
-36.194
-37.8233
-38.1874
-38.3976
-38.4452
-38.3476
-38.1373
-37.8518
-37.5271
-37.1933
-36.8745
-36.5885
-36.3478
-36.1611
-36.0339
-35.9695
-38.1707
-38.6695
-38.9325
-38.9579
-38.7838
-38.4666
-38.064
-37.6256
-37.1901
-36.7851
-36.4293
-36.135
-35.9095
-35.7573
-35.6806
-38.6966
-39.3873
-39.7049
-39.6701
-39.3631
-38.8813
-38.3117
-37.7213
-37.1563
-36.6463
-36.2087
-35.8533
-35.5846
-35.405
-35.3151
-39.5151
-40.4781
-40.8299
-40.6542
-40.1173
-39.3836
-38.5802
-37.7914
-37.0675
-36.4349
-35.906
-35.4846
-35.1707
-34.9629
-34.8595
-40.8383
-42.1802
-42.4821
-41.9996
-41.0681
-39.9556
-38.8339
-37.7967
-36.8871
-36.12
-35.4956
-35.0083
-34.6508
-34.4164
-34.3005
-43.0939
-44.9221
-44.9185
-43.7941
-42.1997
-40.5369
-39.0032
-37.6742
-36.5643
-35.6622
-34.9482
-34.4022
-34.0075
-33.7514
-33.6254
-47.2354
-49.4958
-48.4755
-46.0587
-43.3995
-40.9889
-38.9677
-37.3324
-36.0337
-35.0163
-34.2325
-33.6448
-33.2257
-32.9562
-32.8243
-55.6784
-57.35
-53.4286
-48.5655
-44.3508
-41.0515
-38.5463
-36.654
-35.2217
-34.1369
-33.3206
-32.7187
-32.2942
-32.0233
-31.8912
-75.5555
-70.7959
-59.3228
-50.4237
-44.3864
-40.3199
-37.5119
-35.5156
-34.0621
-32.9888
-32.1944
-31.6149
-31.2093
-30.9514
-30.8261
-22.2084
-22.2425
-22.3119
-22.4198
-22.5712
-22.775
-23.0452
-23.4064
-23.9025
-24.6175
-25.7258
-27.6182
-31.2185
-38.5873
-51.9694
-21.2503
-21.2708
-21.3122
-21.3755
-21.4625
-21.5761
-21.7215
-21.9087
-22.1575
-22.5115
-23.0792
-24.1759
-26.9173
-36.186
-77.7147
-20.278
-20.2847
-20.2974
-20.315
-20.3353
-20.3551
-20.3689
-20.3683
-20.3394
-20.2571
-20.0653
-19.5906
-18.0745
-11.3997
25.3066
-19.3012
-19.2943
-19.2792
-19.2525
-19.2086
-19.1383
-19.0263
-18.8476
-18.5585
-18.0786
-17.2481
-15.7285
-12.806
-7.46628
-3.78857
-18.3291
-18.3099
-18.2692
-18.2021
-18.1004
-17.9504
-17.7301
-17.4036
-16.9102
-16.1435
-14.9098
-12.842
-9.21486
-2.37621
13.5658
-17.3705
-17.3404
-17.2774
-17.1759
-17.0258
-16.8114
-16.5077
-16.0755
-15.4516
-14.5328
-13.1505
-11.0391
-7.85426
-3.60715
-1.9057
-16.4328
-16.3937
-16.3126
-16.1834
-15.996
-15.7344
-15.3746
-14.8806
-14.1977
-13.244
-11.8975
-9.98162
-7.23153
-3.06994
5.20542
-15.5224
-15.4762
-15.3812
-15.2315
-15.0176
-14.7256
-14.3349
-13.8169
-13.1321
-12.2279
-11.0399
-9.50347
-7.58907
-5.38918
-3.33704
-14.6441
-14.5928
-14.4878
-14.3241
-14.0937
-13.7853
-13.3836
-12.8692
-12.2188
-11.4088
-10.4244
-9.2878
-8.14491
-7.60543
-10.4541
-13.8014
-13.7467
-13.6353
-13.4632
-13.2241
-12.9099
-12.5107
-12.0158
-11.4165
-10.711
-9.9147
-9.07652
-8.28175
-7.46847
-4.72967
-12.9968
-12.9401
-12.8251
-12.6487
-12.4067
-12.0936
-11.7042
-11.2351
-10.688
-10.0762
-9.43412
-8.83514
-8.4315
-8.66828
-11.9222
-12.2316
-12.174
-12.0575
-11.88
-11.6386
-11.3303
-10.9532
-10.5086
-10.0046
-9.46235
-8.92372
-8.45816
-8.13657
-7.77244
-5.02561
-11.5066
-11.4488
-11.3323
-11.1557
-10.9171
-10.6149
-10.2491
-9.82327
-9.34791
-8.84607
-8.36263
-7.98126
-7.87123
-8.53082
-12.5696
-10.8217
-10.7644
-10.649
-10.4746
-10.2398
-9.94367
-9.58677
-9.17246
-8.70965
-8.21708
-7.73072
-7.31601
-7.07149
-6.94216
-4.68312
-10.1768
-10.1203
-10.0068
-9.83543
-9.60506
-9.31476
-8.96438
-8.55539
-8.09214
-7.58383
-7.04912
-6.53263
-6.19182
-6.83201
-13.4621
-9.57108
-9.51583
-9.40487
-9.23733
-9.01203
-8.72763
-8.38276
-7.97609
-7.50597
-6.969
-6.35496
-5.62732
-4.631
-2.56172
5.46507
-9.00384
-8.95014
-8.8423
-8.67941
-8.46012
-8.18256
-7.84412
-7.44091
-6.96629
-6.40778
-5.73975
-4.90866
-3.81536
-2.42811
-2.34317
-8.47395
-8.42212
-8.31802
-8.16072
-7.94874
-7.67983
-7.35055
-6.95538
-6.48496
-5.92267
-5.23786
-4.3722
-3.20394
-1.38961
2.7482
-7.98011
-7.93046
-7.83074
-7.68007
-7.47696
-7.21909
-6.90279
-6.52217
-6.06752
-5.52272
-4.86166
-4.04595
-3.04128
-1.96413
-2.12669
-7.52083
-7.47364
-7.37892
-7.2359
-7.04328
-6.79899
-6.49978
-6.14046
-5.71274
-5.20358
-4.59293
-3.85101
-2.92904
-1.67722
0.879201
-7.09437
-7.0499
-6.96071
-6.82624
-6.64554
-6.41711
-6.1386
-5.80631
-5.41461
-4.95501
-4.41546
-3.7812
-3.04596
-2.29576
-2.33235
-6.69886
-6.65729
-6.57401
-6.44874
-6.28102
-6.07009
-5.81481
-5.5135
-5.16371
-4.76203
-4.30384
-3.78161
-3.17337
-2.36741
-0.677595
-6.33229
-6.2937
-6.21653
-6.10081
-5.94657
-5.75393
-5.52308
-5.25444
-4.94891
-4.60838
-4.23678
-3.84185
-3.43818
-3.05232
-2.74013
-5.99257
-5.95697
-5.88589
-5.77968
-5.63887
-5.46438
-5.25765
-5.02107
-4.75849
-4.4764
-4.186
-3.90825
-3.69073
-3.68553
-4.5854
-5.67765
-5.64493
-5.57973
-5.48264
-5.35463
-5.19727
-5.01304
-4.80582
-4.5817
-4.35028
-4.12653
-3.93292
-3.79593
-3.68971
-3.06701
-5.38553
-5.3555
-5.29578
-5.20713
-5.09083
-4.9489
-4.78447
-4.60239
-4.41007
-4.2189
-4.04621
-3.91837
-3.87984
-4.05204
-5.10383
-5.11432
-5.08675
-5.03199
-4.9509
-4.84489
-4.71621
-4.56824
-4.40613
-4.23771
-4.07478
-3.93483
-3.84189
-3.81751
-3.80302
-3.09593
-4.86233
-4.83694
-4.78655
-4.71203
-4.61478
-4.49698
-4.36188
-4.21434
-4.06162
-3.91476
-3.79089
-3.71789
-3.74841
-4.03448
-5.37122
-4.62803
-4.60454
-4.55794
-4.489
-4.399
-4.28983
-4.16424
-4.02622
-3.88154
-3.73887
-3.61171
-3.52208
-3.50192
-3.53581
-2.92215
-4.4101
-4.38826
-4.34491
-4.28067
-4.1966
-4.09414
-3.9753
-3.84278
-3.70014
-3.55227
-3.40654
-3.2781
-3.218
-3.48635
-5.69872
-4.20739
-4.18699
-4.14643
-4.08619
-4.00702
-3.90988
-3.79594
-3.66644
-3.52246
-3.36425
-3.18945
-2.98675
-2.70607
-2.08638
0.461936
-4.01892
-3.99978
-3.96166
-3.90492
-3.82998
-3.73735
-3.62743
-3.50022
-3.35472
-3.18782
-2.99181
-2.74963
-2.42963
-2.0253
-2.08052
-3.84379
-3.82579
-3.78991
-3.73633
-3.66528
-3.5769
-3.47101
-3.34675
-3.20191
-3.03167
-2.82631
-2.56662
-2.21182
-1.64465
-0.285125
-3.68122
-3.66429
-3.63049
-3.57993
-3.51269
-3.42867
-3.32739
-3.20764
-3.0668
-2.89997
-2.6986
-2.44974
-2.14154
-1.81384
-1.92105
-3.53047
-3.51455
-3.48277
-3.43518
-3.37179
-3.29247
-3.19668
-3.08323
-2.94982
-2.79231
-2.60393
-2.37413
-2.08486
-1.68062
-0.809358
-3.39082
-3.37589
-3.34607
-3.30144
-3.24203
-3.16776
-3.07827
-2.97275
-2.84962
-2.70615
-2.5381
-2.33987
-2.10809
-1.87133
-1.91398
-3.26159
-3.24761
-3.21972
-3.17802
-3.12264
-3.05366
-2.97105
-2.87456
-2.7636
-2.6371
-2.4933
-2.32896
-2.13482
-1.86762
-1.27243
-3.14211
-3.12905
-3.103
-3.06416
-3.01275
-2.94909
-2.87353
-2.78647
-2.68843
-2.58013
-2.46282
-2.3388
-2.21235
-2.09134
-1.99267
-3.03176
-3.01955
-2.99523
-2.95906
-2.91142
-2.85283
-2.78403
-2.70606
-2.62043
-2.52947
-2.43706
-2.3504
-2.28614
-2.29918
-2.64407
-2.92994
-2.91849
-2.89573
-2.86198
-2.81773
-2.76371
-2.70096
-2.63103
-2.55618
-2.47987
-2.40736
-2.34649
-2.30631
-2.27624
-2.05113
-2.83612
-2.82533
-2.80392
-2.77225
-2.73088
-2.68069
-2.62293
-2.55945
-2.493
-2.42768
-2.36964
-2.32825
-2.31953
-2.38839
-2.78511
-2.74983
-2.73959
-2.71928
-2.68928
-2.6502
-2.60297
-2.54891
-2.48999
-2.42909
-2.37048
-2.3204
-2.28739
-2.27893
-2.27252
-2.00509
-2.67071
-2.66088
-2.64141
-2.61266
-2.57523
-2.53002
-2.47831
-2.42195
-2.36364
-2.30739
-2.25936
-2.22954
-2.23695
-2.33762
-2.82829
-2.59844
-2.58891
-2.57002
-2.5421
-2.50571
-2.46163
-2.41098
-2.3553
-2.29679
-2.23864
-2.18573
-2.14589
-2.13024
-2.13158
-1.88753
-2.53283
-2.52348
-2.50493
-2.47748
-2.44157
-2.39785
-2.34718
-2.29067
-2.22974
-2.16629
-2.10305
-2.04548
-2.0118
-2.09565
-2.8815
-2.47375
-2.46448
-2.44607
-2.41875
-2.38288
-2.33893
-2.28748
-2.22913
-2.16449
-2.09383
-2.01649
-1.92851
-1.81178
-1.57195
-0.635786
-2.42114
-2.41187
-2.39343
-2.366
-2.32984
-2.28527
-2.23259
-2.17201
-2.10344
-2.02604
-1.93736
-1.83154
-1.69729
-1.53158
-1.52492
-2.37499
-2.36566
-2.34706
-2.31934
-2.28268
-2.23726
-2.18322
-2.12048
-2.04856
-1.96613
-1.87016
-1.75433
-1.60467
-1.38053
-0.882002
-2.33537
-2.32591
-2.30707
-2.27893
-2.24163
-2.19528
-2.13991
-2.07535
-2.00102
-1.91564
-1.81679
-1.70066
-1.56379
-1.41984
-1.41992
-2.30233
-2.29272
-2.27355
-2.2449
-2.20689
-2.15959
-2.10303
-2.03704
-1.96117
-1.87452
-1.77546
-1.66141
-1.52784
-1.35894
-1.04611
-2.276
-2.2662
-2.24664
-2.21741
-2.17862
-2.13037
-2.07271
-2.0056
-1.92885
-1.84204
-1.74455
-1.63575
-1.51644
-1.39783
-1.36648
-2.2565
-2.24648
-2.22647
-2.19659
-2.15695
-2.1077
-2.04898
-1.9809
-1.90355
-1.81702
-1.72151
-1.6174
-1.50457
-1.37594
-1.1714
-2.244
-2.23371
-2.21319
-2.18256
-2.14197
-2.09163
-2.03177
-1.96265
-1.88463
-1.79825
-1.70447
-1.60513
-1.50371
-1.4066
-1.32767
-2.23866
-2.22807
-2.20696
-2.17547
-2.1338
-2.0822
-2.02101
-1.95061
-1.87155
-1.78464
-1.69131
-1.59433
-1.49985
-1.42449
-1.42899
-2.2407
-2.22976
-2.20796
-2.17547
-2.13253
-2.07946
-2.01666
-1.94461
-1.86394
-1.77551
-1.68069
-1.58182
-1.48274
-1.38679
-1.27131
-2.25035
-2.239
-2.2164
-2.18275
-2.13832
-2.0835
-2.01875
-1.94462
-1.86173
-1.77083
-1.67291
-1.56948
-1.46348
-1.3625
-1.29531
-2.26791
-2.25608
-2.23255
-2.19752
-2.15135
-2.09446
-2.02738
-1.95073
-1.8651
-1.77105
-1.66898
-1.55894
-1.44075
-1.31463
-1.18315
-2.29369
-2.28131
-2.25668
-2.22006
-2.17183
-2.1125
-2.04269
-1.96308
-1.87432
-1.77687
-1.67059
-1.55409
-1.42354
-1.27036
-1.06895
-2.32809
-2.31507
-2.28916
-2.25067
-2.20003
-2.13784
-2.06482
-1.9818
-1.88961
-1.78883
-1.6793
-1.55901
-1.42208
-1.25946
-1.10573
-2.37156
-2.35779
-2.3304
-2.28973
-2.23627
-2.17071
-2.0939
-2.0069
-1.91086
-1.80688
-1.69551
-1.57549
-1.43846
-1.24228
-0.744738
-2.4246
-2.40997
-2.38088
-2.33769
-2.28094
-2.21139
-2.13008
-2.0383
-1.93766
-1.83006
-1.71775
-1.60378
-1.49594
-1.43429
-1.68028
-2.48781
-2.4722
-2.44117
-2.39508
-2.3345
-2.26027
-2.17353
-2.07586
-1.96928
-1.85653
-1.74116
-1.62782
-1.52136
-1.41258
-1.14446
-2.56187
-2.54516
-2.51193
-2.46253
-2.39755
-2.31783
-2.22461
-2.1196
-2.00522
-1.88483
-1.76317
-1.64709
-1.54839
-1.50145
-1.6975
-2.64753
-2.62961
-2.59394
-2.54083
-2.47083
-2.38478
-2.28387
-2.16986
-2.04533
-1.91402
-1.78129
-1.6543
-1.53947
-1.42154
-1.11152
-2.74565
-2.72641
-2.68805
-2.63085
-2.55529
-2.46206
-2.35223
-2.22744
-2.09015
-1.94419
-1.79545
-1.65307
-1.5327
-1.47498
-1.68863
-2.85715
-2.83648
-2.79525
-2.73365
-2.65201
-2.55086
-2.431
-2.2937
-2.14101
-1.97631
-1.80518
-1.63657
-1.48242
-1.33992
-1.03564
-2.983
-2.96085
-2.9166
-2.85036
-2.7623
-2.65267
-2.52189
-2.37065
-2.20021
-2.01289
-1.81317
-1.61002
-1.42404
-1.31719
-1.55133
-3.12424
-3.10057
-3.05324
-2.98224
-2.88757
-2.76917
-2.62699
-2.46095
-2.27113
-2.05809
-1.82353
-1.57156
-1.31072
-1.05761
-0.849573
-3.28193
-3.25673
-3.20631
-3.13056
-3.02931
-2.9022
-2.74866
-2.56776
-2.35818
-2.11823
-1.84599
-1.53925
-1.19204
-0.766706
-0.00332159
-3.45712
-3.43042
-3.37697
-3.2966
-3.18901
-3.0536
-2.88933
-2.69448
-2.46632
-2.20079
-1.89242
-1.53506
-1.1276
-0.710534
-0.629164
-3.65085
-3.62269
-3.56632
-3.48155
-3.36803
-3.22504
-3.05125
-2.84435
-2.60041
-2.31312
-1.97286
-1.56566
-1.06984
-0.421221
0.803762
-3.86413
-3.83457
-3.77539
-3.68648
-3.56752
-3.41786
-3.23617
-3.01993
-2.7646
-2.46225
-2.09978
-1.65779
-1.11819
-0.532141
-0.50174
-4.09795
-4.067
-4.00511
-3.91227
-3.78834
-3.63293
-3.44508
-3.22267
-2.96145
-2.65312
-2.28192
-1.81772
-1.1988
-0.257181
1.80301
-4.35327
-4.32093
-4.25634
-4.15964
-4.03101
-3.87053
-3.67799
-3.45237
-3.19101
-2.88765
-2.52864
-2.0851
-1.50351
-0.758989
-0.613191
-4.63104
-4.59726
-4.52986
-4.42919
-4.2958
-4.13041
-3.93386
-3.70689
-3.44972
-3.16085
-2.83406
-2.44834
-1.92138
-0.845005
3.2235
-4.93227
-4.89693
-4.82648
-4.72147
-4.58282
-4.41193
-4.21084
-3.9824
-3.73046
-3.46036
-3.18042
-2.90965
-2.72079
-3.00888
-6.27833
-5.25806
-5.22097
-5.1471
-5.03711
-4.89222
-4.71442
-4.50682
-4.27421
-4.02382
-3.76669
-3.52042
-3.31408
-3.18899
-3.10237
-1.88674
-5.60959
-5.57056
-5.49279
-5.37699
-5.22449
-5.0376
-4.82018
-4.57838
-4.32185
-4.0655
-3.83269
-3.66209
-3.63046
-3.97991
-6.04717
-5.98823
-5.94704
-5.86489
-5.74235
-5.58062
-5.38198
-5.15045
-4.89278
-4.61974
-4.34794
-4.10177
-3.91358
-3.8073
-3.66453
-2.24701
-6.39547
-6.35198
-6.26504
-6.13493
-5.96239
-5.7492
-5.49889
-5.21784
-4.91678
-4.61259
-4.33059
-4.10817
-4.00949
-4.23441
-5.9855
-6.83292
-6.78707
-6.69517
-6.55696
-6.37239
-6.14219
-5.86866
-5.55681
-5.21599
-4.86182
-4.51803
-4.21684
-3.98694
-3.74446
-2.41702
-7.30219
-7.25414
-7.15747
-7.01117
-6.81406
-6.56527
-6.26503
-5.91588
-5.52448
-5.10382
-4.67589
-4.276
-3.97314
-4.00798
-5.68148
-7.80484
-7.75497
-7.65422
-7.50066
-7.29163
-7.02409
-6.69535
-6.3043
-5.85329
-5.35088
-4.81428
-4.26776
-3.72481
-3.13357
-2.35337
-8.3421
-8.29112
-8.18764
-8.02868
-7.80982
-7.52539
-7.16895
-6.73435
-6.2178
-5.62166
-4.95956
-4.25705
-3.51001
-2.39038
1.51648
-8.91477
-8.86371
-8.75958
-8.59829
-8.37354
-8.07669
-7.69683
-7.22129
-6.63757
-5.93823
-5.13291
-4.27723
-3.55394
-3.58275
-7.05067
-9.5229
-9.47315
-9.3712
-9.21195
-8.98731
-8.68564
-8.29115
-7.78337
-7.13762
-6.32841
-5.34121
-4.20546
-3.07553
-2.38705
-2.87606
-10.1656
-10.1188
-10.0226
-9.87103
-9.65457
-9.35904
-8.96412
-8.44124
-7.75117
-6.84218
-5.65267
-4.12961
-2.29046
-0.373816
0.958913
-10.8407
-10.7989
-10.7125
-10.5751
-10.3767
-10.1015
-9.72595
-9.21522
-8.51675
-7.55075
-6.19575
-4.27322
-1.5591
2.04473
5.71932
-11.5447
-11.51
-11.4376
-11.3217
-11.1522
-10.9135
-10.5817
-10.1196
-9.46812
-8.52943
-7.13295
-4.96649
-1.4455
4.41395
13.0315
-12.273
-12.2471
-12.193
-12.1054
-11.9757
-11.7902
-11.5278
-11.1554
-10.619
-9.82601
-8.60484
-6.60038
-2.95571
4.86765
26.3279
-148.651
-89.275
-62.3652
-49.5034
-42.6124
-38.4955
-35.8197
-33.9742
-32.6508
-31.6806
-30.9651
-30.4438
-30.0791
-29.8474
-29.7347
-185.044
-83.5307
-55.3746
-44.5198
-39.0731
-35.8361
-33.7047
-32.2104
-31.1224
-30.3145
-29.7124
-29.2705
-28.9594
-28.7609
-28.6642
47.959
-26.8463
-36.3688
-35.7804
-33.9992
-32.4088
-31.1472
-30.1644
-29.3994
-28.8053
-28.3487
-28.0061
-27.7614
-27.6038
-27.5266
-6.98103
-15.497
-24.3843
-27.8692
-28.7926
-28.7531
-28.3961
-27.9672
-27.5578
-27.2007
-26.9056
-26.6737
-26.503
-26.3908
-26.3353
26.5833
-3.89003
-16.1514
-21.7368
-24.2548
-25.3177
-25.6951
-25.7563
-25.6797
-25.5528
-25.4187
-25.2989
-25.2038
-25.1385
-25.1054
-1.28166
-4.93038
-12.5544
-17.7344
-20.7274
-22.3583
-23.2135
-23.641
-23.8367
-23.91
-23.9219
-23.9068
-23.8838
-23.8638
-23.8526
11.8797
-3.21023
-10.6547
-15.2509
-18.1457
-19.9376
-21.0291
-21.6865
-22.0786
-22.3098
-22.444
-22.52
-22.5617
-22.583
-22.5919
-2.97263
-6.79953
-10.7331
-13.9487
-16.3301
-18.0031
-19.1461
-19.9163
-20.4322
-20.7769
-21.0063
-21.1572
-21.2537
-21.3108
-21.3373
-15.1675
-10.3149
-11.3101
-13.2258
-15.0063
-16.4368