/*--------------------------------*- C++ -*----------------------------------*\
| =========                 |                                                 |
| \\      /  F ield         | OpenFOAM: The Open Source CFD Toolbox           |
|  \\    /   O peration     | Version:  5.x                                   |
|   \\  /    A nd           | Web:      www.OpenFOAM.org                      |
|    \\/     M anipulation  |                                                 |
\*---------------------------------------------------------------------------*/
FoamFile
{
    version     2.0;
    format      ascii;
    class       volScalarField;
    location    "14.1";
    object      gradTx;
}
// * * * * * * * * * * * * * * * * * * * * * * * * * * * * * * * * * * * * * //

dimensions      [0 -1 0 1 0 0 0];

internalField   nonuniform List<scalar> 
2048
(
0.00630498
0.0187343
0.0306385
0.0417198
0.0517494
0.0605778
0.0681347
0.0744179
0.079477
0.0833949
0.0862715
0.088211
0.0893154
0.0896815
0.0894017
0.0885653
0.0872591
0.0855665
0.0835654
0.0813243
0.0788989
0.07633
0.0736424
0.0708462
0.0679392
0.0649093
0.061737
0.0583966
0.0548574
0.0510833
0.0470342
0.0426663
0.0379345
0.0327941
0.0272034
0.0211247
0.0145258
0.0073805
-0.000330742
-0.00861957
-0.0174875
-0.0269223
-0.0368925
-0.0473407
-0.0581754
-0.0692618
-0.0804127
-0.0913812
-0.101856
-0.111464
-0.119782
-0.12636
-0.130753
-0.13257
-0.131512
-0.127416
-0.120277
-0.110247
-0.0976154
-0.082765
-0.0661296
-0.0481502
-0.0292469
-0.0098074
0.0187885
0.0558179
0.0912561
0.124205
0.153978
0.180136
0.202478
0.221012
0.235899
0.247399
0.255817
0.261466
0.264651
0.265657
0.264756
0.262211
0.258281
0.253213
0.24724
0.240569
0.233365
0.22575
0.217796
0.209532
0.200948
0.192007
0.18265
0.1728
0.162367
0.151243
0.139309
0.126434
0.112482
0.0973208
0.0808242
0.0628806
0.0433941
0.0222869
-0.000499951
-0.0250027
-0.0512289
-0.0791466
-0.108669
-0.139632
-0.171774
-0.204703
-0.237872
-0.270555
-0.30183
-0.330584
-0.355547
-0.375359
-0.388673
-0.394289
-0.391296
-0.379192
-0.357962
-0.328073
-0.290412
-0.246152
-0.196608
-0.143109
-0.0869052
-0.0291383
0.0311401
0.0924829
0.151106
0.205484
0.254472
0.297351
0.333826
0.363952
0.388042
0.406562
0.42004
0.429008
0.433965
0.435378
0.433684
0.429312
0.422683
0.414211
0.404285
0.393251
0.381387
0.368891
0.35588
0.342394
0.32841
0.313861
0.298647
0.282643
0.265697
0.247636
0.228261
0.207352
0.184685
0.160035
0.133195
0.103977
0.072226
0.0378118
0.000636251
-0.0393656
-0.0822151
-0.127873
-0.176215
-0.226996
-0.279808
-0.334038
-0.388814
-0.442959
-0.494965
-0.542988
-0.584897
-0.618383
-0.641135
-0.651075
-0.64661
-0.626861
-0.5918
-0.542252
-0.479768
-0.406389
-0.324373
-0.235961
-0.143224
-0.0480092
0.0435998
0.129426
0.211273
0.286938
0.354794
0.41387
0.463821
0.504816
0.537384
0.562251
0.580202
0.591996
0.598327
0.599824
0.597077
0.590664
0.581169
0.569173
0.555229
0.53983
0.523371
0.506129
0.488255
0.469789
0.450688
0.430846
0.410118
0.388332
0.36528
0.340723
0.314382
0.285949
0.255101
0.221523
0.184918
0.14503
0.101639
0.054568
0.00367778
-0.0511304
-0.109903
-0.172613
-0.239121
-0.309133
-0.382137
-0.45734
-0.53359
-0.609302
-0.682408
-0.750331
-0.810043
-0.858204
-0.891418
-0.906593
-0.901328
-0.87429
-0.825432
-0.756012
-0.66838
-0.565592
-0.450973
-0.327745
-0.198793
-0.0666108
0.0563831
0.167268
0.27272
0.369769
0.456283
0.531065
0.593794
0.644849
0.685066
0.715504
0.737253
0.751312
0.758558
0.759763
0.755642
0.74691
0.734307
0.718589
0.700491
0.680668
0.659642
0.637764
0.615213
0.592016
0.568087
0.543274
0.517385
0.490199
0.461461
0.430867
0.398059
0.362634
0.324166
0.282235
0.236458
0.186502
0.132093
0.0730073
0.00906461
-0.0598729
-0.13389
-0.212992
-0.297059
-0.385785
-0.478601
-0.574588
-0.672373
-0.770019
-0.864931
-0.953801
-1.03265
-1.09699
-1.14217
-1.16386
-1.15868
-1.1247
-1.06185
-0.971942
-0.858328
-0.725314
-0.577482
-0.419134
-0.253975
-0.0850562
0.069695
0.206598
0.33634
0.45507
0.560118
0.650104
0.724836
0.785026
0.831945
0.867082
0.891882
0.9076
0.915277
0.915787
0.909939
0.898561
0.882549
0.862848
0.840398
0.816043
0.790444
0.764031
0.736993
0.709319
0.680863
0.651408
0.62071
0.588508
0.554508
0.518349
0.479592
0.437727
0.392213
0.342517
0.28816
0.228737
0.163921
0.0934496
0.017105
-0.0652946
-0.153887
-0.248735
-0.349769
-0.456718
-0.569011
-0.685668
-0.805168
-0.925289
-1.04296
-1.15417
-1.25391
-1.33641
-1.39553
-1.42543
-1.42143
-1.38085
-1.30358
-1.19214
-1.05119
-0.886623
-0.70454
-0.510465
-0.308917
-0.103385
0.0837396
0.247996
0.403001
0.543878
0.667378
0.772006
0.857837
0.926091
0.978632
1.0175
1.04455
1.06131
1.06893
1.06835
1.06041
1.04603
1.02626
1.00225
0.975194
0.946155
0.915957
0.885107
0.853784
0.821907
0.789235
0.75547
0.720311
0.68347
0.644628
0.60338
0.559201
0.511466
0.459495
0.402628
0.34028
0.271976
0.197348
0.116104
0.0279965
-0.0672036
-0.169701
-0.279641
-0.397045
-0.521722
-0.653158
-0.790388
-0.931826
-1.07506
-1.21664
-1.35184
-1.47461
-1.57773
-1.65327
-1.69348
-1.69204
-1.64521
-1.55281
-1.41831
-1.24811
-1.05014
-0.832384
-0.601755
-0.363564
-0.121568
0.0987285
0.292057
0.473579
0.637207
0.779073
0.897669
0.993523
1.06859
1.12552
1.16705
1.19552
1.21271
1.21983
1.2178
1.20742
1.18966
1.16573
1.13703
1.10505
1.07114
1.0363
1.00112
0.965734
0.929954
0.893398
0.855654
0.81637
0.775247
0.731971
0.686109
0.63705
0.584028
0.526203
0.46276
0.393001
0.316384
0.232513
0.141088
0.0418421
-0.0654995
-0.181223
-0.305585
-0.438737
-0.580614
-0.730823
-0.888491
-1.05207
-1.21909
-1.38579
-1.54687
-1.69517
-1.82184
-1.91681
-1.96996
-1.97276
-1.92005
-1.81151
-1.65186
-1.44985
-1.21607
-0.960864
-0.69271
-0.417661
-0.139505
0.114887
0.339413
0.548985
0.736078
0.896175
1.02789
1.13247
1.21287
1.27279
1.31583
1.34489
1.36194
1.36819
1.3644
1.35126
1.32974
1.3012
1.26737
1.23009
1.19106
1.15152
1.11214
1.07296
1.03362
0.99353
0.95214
0.90904
0.863962
0.816639
0.766634
0.713246
0.655541
0.592477
0.523057
0.44645
0.362057
0.269482
0.168439
0.0586627
-0.0601628
-0.18842
-0.326508
-0.474745
-0.633245
-0.801791
-0.979689
-1.16555
-1.35695
-1.55005
-1.73901
-1.91565
-2.06929
-2.18733
-2.25662
-2.26574
-2.20757
-2.08148
-1.89394
-1.65681
-1.38423
-1.08945
-0.782737
-0.470765
-0.157037
0.132463
0.390744
0.630185
0.841544
1.01963
1.1634
1.27512
1.35912
1.42045
1.46376
1.49257
1.50901
1.51411
1.50837
1.49221
1.46653
1.4329
1.3934
1.35037
1.30594
1.26165
1.21822
1.17557
1.13305
1.08981
1.0451
0.998459
0.949705
0.898688
0.845005
0.787855
0.726093
0.658424
0.583622
0.500709
0.409043
0.308258
0.198126
0.0784077
-0.0512449
-0.191326
-0.34241
-0.505028
-0.679511
-0.865874
-1.06368
-1.27181
-1.4881
-1.70878
-1.92774
-2.1358
-2.32033
-2.46572
-2.55508
-2.57313
-2.50998
-2.36451
-2.14548
-1.86905
-1.55402
-1.21724
-0.870953
-0.522258
-0.173941
0.151726
0.446799
0.718218
0.954702
1.15038
1.30483
1.42178
1.50736
1.56831
1.61059
1.63837
1.65383
1.65767
1.64989
1.63051
1.60029
1.56099
1.51523
1.46591
1.41574
1.36664
1.31938
1.27365
1.2284
1.18242
1.1347
1.08475
1.03254
0.978135
0.921232
0.860906
0.795743
0.724125
0.644538
0.555832
0.457345
0.348796
0.230059
0.100963
-0.0388601
-0.190034
-0.353352
-0.529597
-0.719359
-0.922923
-1.14018
-1.37041
-1.6119
-1.86122
-2.11224
-2.35501
-2.57485
-2.75267
-2.86686
-2.89711
-2.8296
-2.66237
-2.40724
-2.08628
-1.72442
-1.34295
-0.956203
-0.571358
-0.189944
0.172981
0.508402
0.814216
1.07671
1.28936
1.45276
1.57265
1.65744
1.71602
1.75591
1.78196
1.79626
1.79889
1.78914
1.76643
1.73126
1.68568
1.63292
1.57668
1.52038
1.46641
1.4156
1.36727
1.31983
1.27157
1.22114
1.16803
1.11249
1.05495
0.995282
0.932399
0.86453
0.789647
0.705872
0.611851
0.506938
0.391005
0.264098
0.126161
-0.0231782
-0.184692
-0.359444
-0.54852
-0.752797
-0.972847
-1.20894
-1.46089
-1.72763
-2.0064
-2.29147
-2.57239
-2.83246
-3.04858
-3.1934
-3.23997
-3.16898
-2.97691
-2.67983
-2.30785
-1.89401
-1.46494
-1.03708
-0.61715
-0.204733
0.196566
0.576466
0.919413
1.20879
1.43749
1.60767
1.72776
1.80906
1.86305
1.89914
1.92291
1.93606
1.93776
1.9263
1.90026
1.85973
1.80713
1.74655
1.68263
1.61973
1.56085
1.50685
1.45652
1.40752
1.35749
1.30464
1.24842
1.18955
1.12907
1.06709
1.00231
0.932476
0.855051
0.767692
0.668788
0.557769
0.434762
0.30006
0.153782
-0.00441673
-0.17549
-0.360838
-0.561914
-0.779894
-1.01563
-1.26979
-1.54283
-1.83458
-2.14329
-2.46415
-2.78671
-3.09238
-3.3536
-3.53604
-3.6042
-3.53096
-3.31019
-2.96365
-2.53268
-2.06089
-1.58123
-1.11197
-0.658615
-0.217961
0.222861
0.652004
1.03516
1.35227
1.5957
1.76996
1.88707
1.96176
2.00872
2.0396
2.0607
2.07298
2.07428
2.0616
2.03233
1.98599
1.92553
1.85615
1.78366
1.71359
1.64977
1.59307
1.54148
1.49167
1.44044
1.38544
1.32605
1.26371
1.20038
1.13654
1.07058
0.999597
0.920404
0.830072
0.72666
0.609765
0.479912
0.337722
0.183565
0.0171653
-0.162653
-0.357723
-0.569942
-0.800786
-1.05133
-1.32263
-1.61591
-1.93206
-2.27076
-2.62879
-2.99643
-3.35351
-3.66756
-3.89601
-3.99249
-3.91882
-3.66445
-3.25894
-2.75922
-2.22269
-1.68949
-1.17909
-0.694674
-0.229273
0.252293
0.736132
1.16292
1.50851
1.76487
1.93995
2.05039
2.11496
2.15217
2.17645
2.19474
2.20675
2.20844
2.19527
2.16304
2.11039
2.04106
1.96177
1.87964
1.80173
1.73297
1.67419
1.62227
1.57251
1.52074
1.46384
1.40104
1.33487
1.26869
1.2035
1.13717
1.0659
0.985777
0.893105
0.785486
0.662838
0.526276
0.376831
0.215213
0.0412733
-0.146434
-0.350309
-0.572802
-0.815669
-1.0801
-1.36748
-1.67988
-2.01944
-2.38765
-2.78375
-3.19972
-3.61435
-3.98993
-4.27436
-4.40779
-4.33645
-4.0423
-3.56568
-2.98537
-2.37655
-1.78713
-1.23655
-0.724238
-0.238317
0.285344
0.830073
1.30429
1.67903
1.94586
2.11778
2.2174
2.26794
2.29241
2.30872
2.32441
2.33712
2.34025
2.32759
2.29287
2.23328
2.1539
2.06343
1.97043
1.88384
1.81017
1.75014
1.69902
1.65029
1.59875
1.54021
1.47355
1.40293
1.33379
1.2678
1.20202
1.1314
1.05126
0.956914
0.845291
0.716879
0.573658
0.417108
0.248389
0.0675828
-0.1271
-0.338817
-0.570719
-0.824802
-1.10218
-1.40445
-1.73462
-2.09622
-2.49285
-2.92722
-3.39443
-3.87302
-4.31976
-4.67188
-4.85336
-4.78851
-4.44678
-3.88352
-3.20837
-2.51909
-1.87131
-1.28245
-0.746268
-0.244769
0.322564
0.935154
1.46099
1.86543
2.13947
2.30347
2.38773
2.41986
2.42828
2.43534
2.44904
2.46386
2.46971
2.4589
2.42239
2.35508
2.2642
2.1612
2.05587
1.95957
1.88104
1.82085
1.7719
1.72527
1.67486
1.615
1.54374
1.4677
1.39536
1.32925
1.26507
1.19609
1.11694
1.02167
0.90611
0.771757
0.621849
0.458255
0.282727
0.0957423
-0.104928
-0.323462
-0.563931
-0.828499
-1.11791
-1.43377
-1.78018
-2.16206
-2.58527
-3.05732
-3.57816
-4.12727
-4.65562
-5.08891
-5.3327
-5.28068
-4.88147
-4.21166
-3.42468
-2.64643
-1.93906
-1.31496
-0.759835
-0.248352
0.36459
1.05279
1.63484
2.06946
2.34636
2.4968
2.56091
2.56982
2.55847
2.55512
2.56801
2.58683
2.59681
2.58956
2.55235
2.47622
2.37207
2.25515
2.13578
2.02848
1.94519
1.88624
1.84113
1.79772
1.74951
1.68878
1.6118
1.52891
1.453
1.38763
1.32632
1.25997
1.18293
1.0876
0.967983
0.827309
0.670637
0.49996
0.317828
0.125376
-0.0801941
-0.30444
-0.552673
-0.827121
-1.12772
-1.45577
-1.81673
-2.21686
-2.664
-3.17209
-3.74826
-4.37449
-4.99559
-5.52517
-5.84958
-5.81998
-5.35066
-4.54862
-3.6298
-2.75419
-1.98739
-1.3324
-0.764178
-0.248856
0.412188
1.18449
1.82775
2.29309
2.56708
2.69729
2.7365
2.7169
2.68153
2.66672
2.6807
2.70602
2.72146
2.71992
2.68365
2.59713
2.47754
2.34544
2.21002
2.09004
2.00212
1.94627
1.90703
1.86787
1.82316
1.76226
1.67797
1.58618
1.50621
1.44271
1.38579
1.32298
1.24935
1.15503
1.03096
0.883322
0.719823
0.541911
0.353258
0.156086
-0.0531642
-0.281913
-0.537167
-0.821073
-1.13214
-1.47086
-1.84459
-2.26076
-2.72826
-3.26952
-3.90188
-4.61184
-5.33724
-5.97946
-6.40787
-6.4152
-5.85949
-4.89195
-3.81813
-2.83755
-2.01338
-1.33339
-0.758765
-0.246153
0.466316
1.33175
2.04164
2.53859
2.80191
2.90406
2.91414
2.86015
2.7958
2.76867
2.78658
2.82164
2.84346
2.85032
2.81753
2.71823
2.58046
2.43233
2.27846
2.1436
2.05127
2.00093
1.97003
1.93587
1.89627
1.83641
1.74248
1.63899
1.55437
1.4943
1.44363
1.38502
1.31627
1.22444
1.09507
0.939506
0.769239
0.583802
0.388547
0.18745
-0.0240922
-0.255988
-0.5176
-0.810798
-1.1318
-1.47949
-1.86422
-2.29425
-2.77752
-3.34763
-4.03594
-4.83625
-5.6777
-6.44923
-7.01137
-7.07749
-6.41418
-5.23785
-3.98281
-2.89141
-2.01439
-1.31692
-0.743335
-0.240212
0.528238
1.4961
2.27838
2.80867
3.05085
3.11571
3.0937
2.99869
2.89945
2.85936
2.88525
2.9342
2.9624
2.98101
2.95562
2.83984
2.68046
2.51628
2.34104
2.18838
2.09191
2.05025
2.03077
2.00172
1.96924
1.91247
1.80561
1.68664
1.59672
1.54221
1.50014
1.44588
1.38376
1.29648
1.16033
0.995456
0.818785
0.625344
0.423175
0.219021
0.00678612
-0.226704
-0.494113
-0.796768
-1.12743
-1.48215
-1.87614
-2.31822
-2.81149
-3.40445
-4.14721
-5.04463
-6.01385
-6.93012
-7.66348
-7.82111
-7.02217
-5.58052
-4.11555
-2.91049
-1.98822
-1.28244
-0.717925
-0.231099
0.599705
1.67893
2.5396
3.10678
3.31342
3.33012
3.27549
3.13177
2.99039
2.93697
2.97641
3.04471
3.07746
3.11207
3.10016
2.96216
2.77674
2.5981
2.39775
2.22344
2.1232
2.09435
2.09018
2.06517
2.04238
1.99213
1.86766
1.72819
1.63232
1.58631
1.55587
1.50515
1.45176
1.37212
1.22671
1.05059
0.868482
0.666275
0.456561
0.250327
0.039253
-0.19401
-0.46678
-0.779478
-1.11992
-1.47926
-1.88089
-2.33406
-2.8302
-3.43808
-4.23222
-5.23396
-6.34262
-7.41527
-8.36668
-8.66448
-7.69244
-5.91142
-4.20655
-2.88964
-1.93325
-1.22993
-0.682884
-0.218978
0.683243
1.88139
2.82651
3.43744
3.58852
3.54417
3.46061
3.25873
3.06622
2.99943
3.05993
3.15489
3.18726
3.24328
3.25433
3.08514
2.86796
2.67908
2.44869
2.2476
2.1441
2.13341
2.14963
2.12556
2.11579
2.07769
1.9289
1.76241
1.66006
1.62651
1.61171
1.56217
1.52011
1.45276
1.29407
1.10406
0.918547
0.706364
0.488045
0.280874
0.0731055
-0.157751
-0.435592
-0.759434
-1.11036
-1.47116
-1.87891
-2.34379
-2.83395
-3.44667
-4.28727
-5.4015
-6.66156
-7.89454
-9.12177
-9.63153
-8.43569
-6.21823
-4.24451
-2.82411
-1.84869
-1.15996
-0.638865
-0.204108
0.782592
2.10425
3.13951
3.80681
3.87418
3.7534
3.65131
3.37905
3.12421
3.04445
3.13581
3.26748
3.28952
3.37395
3.4226
3.20829
2.95192
2.76133
2.49402
2.25943
2.15336
2.16764
2.21114
2.18165
2.18927
2.17231
1.9895
1.78773
1.67864
1.66278
1.66914
1.61583
1.58838
1.54043
1.3621
1.15468
0.969504
0.745408
0.516862
0.310153
0.108146
-0.117645
-0.40045
-0.737133
-1.10007
-1.45797
-1.87042
-2.35016
-2.82337
-3.42855
-4.30827
-5.54484
-6.96968
-8.35351
-9.92679
-10.7535
-9.26456
-6.48344
-4.21683
-2.71
-1.73467
-1.07366
-0.586788
-0.186819
0.903346
2.34765
3.47774
4.22346
4.16725
3.9515
3.85166
3.49227
3.16115
3.06941
3.20412
3.38674
3.38071
3.50269
3.61131
3.33049
3.02526
2.84809
2.5339
2.25715
2.14948
2.1973
2.27769
2.23138
2.26213
2.28031
2.04946
1.80214
1.68656
1.69511
1.73036
1.66441
1.65582
1.63804
1.43022
1.20072
1.02235
0.783217
0.542108
0.337651
0.144168
-0.0732673
-0.361149
-0.713029
-1.09075
-1.4396
-1.85518
-2.35694
-2.79931
-3.38219
-4.29063
-5.66202
-7.26866
-8.77238
-10.7755
-12.0712
-10.1938
-6.68264
-4.11003
-2.54469
-1.59242
-0.972726
-0.527802
-0.167502
1.05386
2.61078
3.83833
4.69941
4.46293
4.12972
4.06834
3.59781
3.17333
3.07138
3.26481
3.51903
3.45555
3.62709
3.82942
3.44972
3.083
2.9443
2.56842
2.23861
2.13075
2.22251
2.35359
2.27148
2.333
2.40766
2.10837
1.80319
1.68213
1.72346
1.79869
1.70532
1.7212
1.74975
1.49746
1.23981
1.07876
0.819565
0.562706
0.362882
0.180929
-0.0240225
-0.31738
-0.687477
-1.08464
-1.41558
-1.83228
-2.36918
-2.76271
-3.30638
-4.22899
-5.75132
-7.56451
-9.12464
-11.6556
-13.6381
-11.2404
-6.7824
-3.91052
-2.32733
-1.42422
-0.859309
-0.463213
-0.146585
1.24648
2.89152
4.21555
5.2516
4.75422
4.27613
4.31172
3.69465
3.15646
3.04715
3.31747
3.67362
3.50633
3.74333
4.08945
3.56257
3.11806
3.05728
2.59735
2.20127
2.0952
2.24314
2.44503
2.29714
2.39961
2.56248
2.1652
1.78791
1.66356
1.74758
1.87896
1.7348
1.78258
1.88139
1.56222
1.26865
1.14139
0.854124
0.577362
0.385424
0.218111
0.0308793
-0.268743
-0.660646
-1.08464
-1.38501
-1.79975
-2.39356
-2.71444
-3.20038
-4.11702
-5.811
-7.8698
-9.37567
-12.5456
-15.5238
-12.4233
-6.73755
-3.60579
-2.05935
-1.23348
-0.735928
-0.394424
-0.124509
1.49924
3.18594
4.59956
5.9036
5.03122
4.37459
4.59722
3.78089
3.10566
2.99329
3.3609
3.86378
3.52221
3.84567
4.40868
3.66383
3.12056
3.19758
2.61984
2.14211
2.04068
2.25854
2.56077
2.30145
2.4584
2.75579
2.2179
1.75284
1.62898
1.76683
1.97803
1.74749
1.83714
2.04104
1.62206
1.28279
1.21423
0.886335
0.584522
0.404982
0.255273
0.0924575
-0.214779
-0.632388
-1.09462
-1.34653
-1.75417
-2.43895
-2.65494
-3.0642
-3.9471
-5.83857
-8.20645
-9.48117
-13.4122
-17.8184
-13.7636
-6.48818
-3.18622
-1.74483
-1.02454
-0.605326
-0.322856
-0.101709
1.83792
3.48767
4.97487
6.688
5.28014
4.40375
4.94705
3.85291
3.01546
2.90631
3.39242
4.10805
3.48823
3.92581
4.81064
3.74574
3.07708
3.38015
2.63394
2.05771
1.96495
2.26704
2.71301
2.27482
2.5042
3.00233
2.26284
1.69407
1.57659
1.77984
2.10546
1.73598
1.88086
2.23975
1.67337
1.27629
1.30307
0.915227
0.582338
0.421471
0.291769
0.162006
-0.155024
-0.602061
-1.1197
-1.29821
-1.69009
-2.51702
-2.58376
-2.89896
-3.71005
-5.82971
-8.60918
-9.38566
-14.2058
-20.6382
-15.2833
-5.95596
-2.64744
-1.39075
-0.802483
-0.470326
-0.249883
-0.0785952
2.29877
3.7872
5.31849
7.64909
5.48224
4.33564
5.39228
3.90444
2.87996
2.78289
3.40706
4.43195
3.38426
3.9722
5.32682
3.79725
2.96978
3.62565
2.63592
1.94431
1.86587
2.26548
2.91842
2.20426
2.5298
3.32169
2.29419
1.60731
1.50484
1.78405
2.27437
1.69027
1.9082
2.49228
1.71098
1.24142
1.41607
0.939171
0.568634
0.435122
0.326661
0.241151
-0.0891097
-0.568279
-1.16659
-1.23756
-1.5994
-2.64308
-2.49892
-2.70743
-3.39489
-5.77662
-9.12971
-9.02095
-14.8557
-24.1316
-17.0051
-5.04009
-1.99351
-1.00696
-0.57282
-0.333678
-0.176779
-0.0555381
2.93168
4.07097
5.59765
8.84619
5.61242
4.1343
5.97534
3.92505
2.69306
2.62028
3.39629
4.86982
3.18372
3.96915
5.99871
3.80307
2.77545
3.96214
2.61934
1.79795
1.74159
2.24837
3.19945
2.07256
2.5254
3.73945
2.30296
1.48816
1.41268
1.77509
2.50242
1.59705
1.91171
2.81815
1.72763
1.16825
1.56445
0.955536
0.540901
0.446616
0.358589
0.331935
-0.0168957
-0.5286
-1.24401
-1.16154
-1.47052
-2.83708
-2.396
-2.49468
-2.98876
-5.6658
-9.84148
-8.30473
-15.2644
-28.4862
-18.9508
-3.61292
-1.24083
-0.605811
-0.341145
-0.197922
-0.104666
-0.0328593
3.80398
4.32043
5.76726
10.3574
5.63764
3.75411
6.75289
3.8985
2.44879
2.4168
3.34658
5.46718
2.85224
3.89589
6.88004
3.74255
2.46438
4.42687
2.57398
1.61472
1.59095
2.20698
3.58577
1.8574
2.4781
4.28862
2.27601
1.33232
1.29984
1.74598
2.81293
1.43908
1.88163
3.24262
1.71348
1.04426
1.76321
0.960264
0.496307
0.457238
0.385625
0.43692
0.0613328
-0.47913
-1.3631
-1.06669
-1.28749
-3.1248
-2.2671
-2.2689
-2.47698
-5.47509
-10.8451
-7.13948
-15.3013
-33.937
-21.1394
-1.51516
-0.422853
-0.201266
-0.112736
-0.0652791
-0.0344922
-0.0108257
)
;

boundaryField
{
    left
    {
        type            calculated;
        value           uniform 0;
    }
    right
    {
        type            calculated;
        value           uniform 0;
    }
    interface
    {
        type            calculated;
        value           nonuniform List<scalar> 
64
(
3.80398
4.32043
5.76726
10.3574
5.63764
3.75411
6.75289
3.8985
2.44879
2.4168
3.34658
5.46718
2.85224
3.89589
6.88004
3.74255
2.46438
4.42687
2.57398
1.61472
1.59095
2.20698
3.58577
1.8574
2.4781
4.28862
2.27601
1.33232
1.29984
1.74598
2.81293
1.43908
1.88163
3.24262
1.71348
1.04426
1.76321
0.960264
0.496307
0.457238
0.385625
0.43692
0.0613328
-0.47913
-1.3631
-1.06669
-1.28749
-3.1248
-2.2671
-2.2689
-2.47698
-5.47509
-10.8451
-7.13948
-15.3013
-33.937
-21.1394
-1.51516
-0.422853
-0.201266
-0.112736
-0.0652791
-0.0344922
-0.0108257
)
;
    }
    bottom
    {
        type            calculated;
        value           nonuniform List<scalar> 
64
(
0.00630498
0.0187343
0.0306385
0.0417198
0.0517494
0.0605778
0.0681347
0.0744179
0.079477
0.0833949
0.0862715
0.088211
0.0893154
0.0896815
0.0894017
0.0885653
0.0872591
0.0855665
0.0835654
0.0813243
0.0788989
0.07633
0.0736424
0.0708462
0.0679392
0.0649093
0.061737
0.0583966
0.0548574
0.0510833
0.0470342
0.0426663
0.0379345
0.0327941
0.0272034
0.0211247
0.0145258
0.0073805
-0.000330742
-0.00861957
-0.0174875
-0.0269223
-0.0368925
-0.0473407
-0.0581754
-0.0692618
-0.0804127
-0.0913812
-0.101856
-0.111464
-0.119782
-0.12636
-0.130753
-0.13257
-0.131512
-0.127416
-0.120277
-0.110247
-0.0976154
-0.082765
-0.0661296
-0.0481502
-0.0292469
-0.0098074
)
;
    }
    defaultFaces
    {
        type            empty;
    }
}


// ************************************************************************* //
