/*--------------------------------*- C++ -*----------------------------------*\
| =========                 |                                                 |
| \\      /  F ield         | OpenFOAM: The Open Source CFD Toolbox           |
|  \\    /   O peration     | Version:  5.x                                   |
|   \\  /    A nd           | Web:      www.OpenFOAM.org                      |
|    \\/     M anipulation  |                                                 |
\*---------------------------------------------------------------------------*/
FoamFile
{
    version     2.0;
    format      ascii;
    class       volScalarField;
    location    "14.1";
    object      T;
}
// * * * * * * * * * * * * * * * * * * * * * * * * * * * * * * * * * * * * * //

dimensions      [0 0 0 1 0 0 0];

internalField   nonuniform List<scalar> 
2048
(
9.81021
9.8104
9.81079
9.81136
9.8121
9.81298
9.81399
9.81511
9.81631
9.81759
9.81892
9.82029
9.82168
9.82308
9.82448
9.82587
9.82725
9.8286
9.82992
9.83121
9.83246
9.83368
9.83485
9.83598
9.83706
9.8381
9.83909
9.84003
9.84092
9.84174
9.84251
9.84321
9.84385
9.8444
9.84487
9.84525
9.84553
9.8457
9.84576
9.84569
9.84549
9.84515
9.84465
9.84399
9.84317
9.84218
9.84101
9.83966
9.83815
9.83648
9.83467
9.83274
9.83072
9.82865
9.82658
9.82454
9.82259
9.82078
9.81915
9.81773
9.81656
9.81567
9.81506
9.81475
9.43876
9.43935
9.4405
9.4422
9.44438
9.44701
9.45001
9.45334
9.45692
9.46071
9.46465
9.4687
9.47282
9.47697
9.48112
9.48525
9.48932
9.49332
9.49723
9.50104
9.50475
9.50834
9.5118
9.51514
9.51835
9.52142
9.52435
9.52713
9.52975
9.5322
9.53448
9.53656
9.53843
9.54007
9.54147
9.5426
9.54344
9.54395
9.54413
9.54394
9.54335
9.54234
9.54088
9.53894
9.53651
9.53357
9.53012
9.52614
9.52166
9.51671
9.51133
9.5056
9.4996
9.49345
9.48728
9.48122
9.47543
9.47004
9.46518
9.46096
9.45748
9.45482
9.45301
9.4521
9.08311
9.08408
9.086
9.08881
9.09242
9.09676
9.10171
9.10719
9.11309
9.11932
9.12579
9.13244
9.1392
9.146
9.1528
9.15956
9.16622
9.17277
9.17917
9.1854
9.19145
9.19732
9.20298
9.20844
9.21368
9.2187
9.22349
9.22803
9.23232
9.23634
9.24006
9.24347
9.24654
9.24924
9.25154
9.2534
9.25479
9.25566
9.25597
9.25568
9.25474
9.25311
9.25075
9.24761
9.24365
9.23886
9.23321
9.22671
9.21937
9.21124
9.2024
9.19297
9.18308
9.17293
9.16273
9.15272
9.14314
9.13423
9.1262
9.11924
9.1135
9.1091
9.10612
9.10462
8.74234
8.74371
8.74639
8.75031
8.75536
8.7614
8.76829
8.77589
8.78406
8.79268
8.80163
8.81081
8.82013
8.82951
8.83888
8.84817
8.85734
8.86633
8.87512
8.88368
8.89199
8.90004
8.90781
8.9153
8.92249
8.92938
8.93595
8.9422
8.94809
8.95361
8.95874
8.96344
8.96767
8.97141
8.9746
8.97719
8.97913
8.98036
8.98083
8.98048
8.97924
8.97704
8.97384
8.96957
8.96418
8.95763
8.94989
8.94095
8.93085
8.91963
8.9074
8.89432
8.88058
8.86646
8.85225
8.83829
8.82493
8.8125
8.8013
8.79161
8.78363
8.77752
8.77339
8.77131
8.41562
8.41738
8.42085
8.4259
8.4324
8.44016
8.449
8.45872
8.46915
8.48013
8.49151
8.50316
8.51499
8.52687
8.53873
8.55048
8.56207
8.57343
8.58453
8.59532
8.6058
8.61593
8.62573
8.63516
8.64423
8.65291
8.6612
8.66908
8.67652
8.6835
8.68999
8.69594
8.70132
8.70607
8.71014
8.71346
8.71597
8.71759
8.71825
8.71787
8.71638
8.71369
8.70972
8.7044
8.69767
8.68945
8.67971
8.66844
8.65565
8.64141
8.62584
8.60914
8.59156
8.57344
8.55519
8.53724
8.52004
8.50405
8.48967
8.47723
8.467
8.45918
8.45391
8.45125
8.10216
8.10434
8.10862
8.11485
8.12284
8.13235
8.14316
8.15501
8.16769
8.181
8.19478
8.20888
8.22315
8.23748
8.25176
8.26591
8.27984
8.29349
8.30681
8.31976
8.33231
8.34446
8.35619
8.36749
8.37835
8.38876
8.39871
8.40816
8.4171
8.42549
8.4333
8.44048
8.44698
8.45273
8.45768
8.46174
8.46483
8.46686
8.46775
8.4674
8.46571
8.46259
8.45794
8.45166
8.44366
8.43388
8.42224
8.40871
8.39332
8.37612
8.35725
8.33694
8.31549
8.29333
8.27095
8.24891
8.22779
8.20817
8.19054
8.17532
8.16283
8.1533
8.14688
8.14365
7.80126
7.80388
7.80901
7.81647
7.82601
7.83733
7.85013
7.86414
7.87908
7.89472
7.91087
7.92736
7.94404
7.96077
7.97742
7.9939
8.01011
8.02597
8.04143
8.05645
8.071
8.08507
8.09866
8.11175
8.12434
8.13642
8.14795
8.15893
8.16931
8.17907
8.18817
8.19655
8.20415
8.21091
8.21673
8.22154
8.22523
8.22771
8.22886
8.22858
8.22676
8.22328
8.21802
8.21087
8.20172
8.19046
8.17702
8.16134
8.14342
8.12332
8.10118
8.07724
8.05187
8.02557
7.99895
7.9727
7.94754
7.92417
7.90322
7.88517
7.8704
7.85916
7.85159
7.8478
7.51226
7.51534
7.52139
7.53014
7.5413
7.55449
7.56935
7.58554
7.60274
7.62071
7.63921
7.65807
7.67711
7.69619
7.71517
7.73392
7.75234
7.77035
7.78788
7.80488
7.82135
7.83727
7.85263
7.86745
7.8817
7.89536
7.90843
7.92088
7.93266
7.94375
7.9541
7.96366
7.97235
7.9801
7.98681
7.99238
7.9967
7.99965
8.00111
8.00096
7.99906
7.99529
7.98951
7.98158
7.97137
7.95875
7.9436
7.92587
7.90551
7.88256
7.85717
7.82959
7.80024
7.76969
7.73867
7.70804
7.67867
7.65143
7.62705
7.60612
7.58905
7.57609
7.5674
7.56304
7.23453
7.23812
7.24513
7.25527
7.26814
7.28328
7.30026
7.31867
7.33816
7.35844
7.37928
7.40047
7.42184
7.44323
7.46448
7.48545
7.50603
7.52612
7.54564
7.56456
7.58286
7.60054
7.61761
7.63407
7.64991
7.66512
7.67967
7.69353
7.70667
7.71905
7.73062
7.74134
7.75111
7.75985
7.76746
7.7738
7.77877
7.78222
7.78403
7.78406
7.78215
7.77817
7.77195
7.76333
7.75216
7.73828
7.72155
7.70185
7.67914
7.65342
7.6248
7.59355
7.56013
7.5252
7.48961
7.45439
7.42063
7.38935
7.36144
7.33757
7.31818
7.30353
7.29372
7.28882
6.96749
6.97163
6.9797
6.99132
7.006
7.02319
7.04236
7.06304
7.08483
7.10742
7.13057
7.15407
7.17773
7.20138
7.22487
7.24802
7.27069
7.29279
7.31424
7.33499
7.35505
7.37442
7.39312
7.41116
7.42853
7.44521
7.46119
7.47641
7.49086
7.5045
7.51727
7.52912
7.53996
7.54969
7.5582
7.56534
7.57098
7.57497
7.57717
7.57742
7.57557
7.57145
7.56487
7.55566
7.54364
7.52861
7.5104
7.48886
7.46389
7.43546
7.40365
7.36872
7.33114
7.29166
7.25129
7.21125
7.17286
7.13736
7.10581
7.07896
7.05725
7.04092
7.03003
7.0246
6.7106
6.71535
6.72457
6.73779
6.7544
6.77374
6.79518
6.81817
6.84228
6.86718
6.89261
6.91838
6.94429
6.97018
6.99585
7.02113
7.04586
7.06992
7.09321
7.11573
7.13746
7.15843
7.17869
7.19823
7.21707
7.23518
7.25253
7.26908
7.2848
7.29965
7.31359
7.32655
7.33846
7.34918
7.3586
7.36655
7.37289
7.37745
7.38008
7.38061
7.37886
7.37467
7.36782
7.35812
7.34534
7.32928
7.30971
7.28645
7.25934
7.22829
7.19333
7.15469
7.11287
7.06867
7.02328
6.97814
6.93485
6.89494
6.85963
6.82974
6.80574
6.78778
6.77586
6.76992
6.46335
6.46875
6.47923
6.4942
6.51288
6.53449
6.55828
6.58363
6.61007
6.63726
6.66495
6.69295
6.72108
6.74916
6.77699
6.80436
6.83109
6.85704
6.88212
6.90631
6.92963
6.95214
6.97387
6.99486
7.01512
7.0346
7.05328
7.0711
7.08804
7.10407
7.11914
7.13321
7.14616
7.15788
7.16822
7.177
7.18406
7.18922
7.19231
7.19316
7.19159
7.18739
7.18036
7.17025
7.15683
7.13985
7.11905
7.0942
7.06506
7.0315
6.99346
6.95111
6.90494
6.85584
6.80515
6.75459
6.70612
6.66156
6.62237
6.58944
6.56319
6.54366
6.53078
6.52438
6.22523
6.23137
6.24325
6.26011
6.28102
6.30503
6.33126
6.35902
6.38779
6.41724
6.44714
6.47733
6.50764
6.53789
6.56784
6.59727
6.62596
6.65374
6.68054
6.70632
6.73115
6.7551
6.77824
6.80062
6.82223
6.84304
6.863
6.88205
6.90017
6.91734
6.93352
6.94866
6.96266
6.97538
6.98665
6.99628
7.00408
7.00986
7.01345
7.01467
7.01332
7.00919
7.00204
6.99163
6.97767
6.95989
6.93799
6.91167
6.88066
6.8447
6.80365
6.75761
6.70702
6.65281
6.59651
6.54018
6.48617
6.43674
6.39356
6.35759
6.32916
6.30818
6.29441
6.28759
5.99579
6.00276
6.01617
6.03511
6.05843
6.08497
6.11374
6.14394
6.17504
6.20671
6.23878
6.27111
6.30356
6.33593
6.36799
6.39944
6.43005
6.45962
6.48805
6.51536
6.5416
6.56691
6.59139
6.61508
6.638
6.6601
6.6813
6.70153
6.72079
6.73905
6.7563
6.7725
6.78754
6.80127
6.81348
6.82397
6.83254
6.83897
6.84309
6.84471
6.84363
6.83962
6.83245
6.82181
6.80742
6.78896
6.76609
6.73846
6.70571
6.6675
6.62356
6.57386
6.51877
6.45925
6.39702
6.33449
6.27455
6.21997
6.17271
6.13375
6.10325
6.08095
6.06641
6.05924
5.77459
5.78247
5.79759
5.81881
5.84473
5.87396
5.90536
5.93804
5.97145
6.00529
6.03946
6.07388
6.10842
6.14289
6.17703
6.21049
6.24298
6.27427
6.30428
6.33301
6.36058
6.38717
6.4129
6.43786
6.46204
6.48539
6.50779
6.52917
6.5495
6.56881
6.58711
6.60435
6.62042
6.63516
6.64833
6.6597
6.66905
6.67615
6.68082
6.68288
6.68211
6.6783
6.67116
6.6604
6.64567
6.62665
6.60294
6.57415
6.53983
6.49954
6.45284
6.39954
6.33989
6.27486
6.20632
6.13712
6.0708
6.01079
5.95938
5.9175
5.88511
5.86165
5.84647
5.83902
5.56119
5.57011
5.58713
5.61087
5.6396
5.67168
5.70578
5.74097
5.77665
5.81261
5.8488
5.88525
5.92184
5.95838
5.99457
6.03003
6.06436
6.09734
6.12885
6.15892
6.18772
6.21548
6.24241
6.26858
6.29398
6.31854
6.34211
6.36459
6.38595
6.40627
6.42557
6.44383
6.46093
6.47668
6.49083
6.5031
6.51324
6.52103
6.52627
6.52879
6.52838
6.52482
6.51779
6.50698
6.49202
6.47254
6.44813
6.41833
6.38262
6.34043
6.29115
6.23435
6.17012
6.09936
6.02412
5.94769
5.87448
5.80873
5.75312
5.70847
5.6744
5.64999
5.63432
5.62667
5.3552
5.36528
5.38442
5.41094
5.44272
5.47779
5.5147
5.55241
5.59032
5.6283
5.66643
5.70483
5.74342
5.78201
5.82026
5.85771
5.89386
5.92846
5.9614
5.99271
6.02263
6.05149
6.07954
6.10686
6.13345
6.1592
6.18392
6.20744
6.22978
6.25105
6.27132
6.29058
6.3087
6.32549
6.34063
6.3538
6.36475
6.37323
6.37907
6.38207
6.38206
6.37879
6.37195
6.36117
6.34606
6.32623
6.30125
6.2706
6.23369
6.18981
6.13815
6.078
6.00917
5.93251
5.85014
5.76586
5.68512
5.61331
5.55351
5.50629
5.47081
5.4457
5.42971
5.42195
5.15622
5.16762
5.18912
5.21871
5.2538
5.29203
5.33182
5.37206
5.41213
5.45201
5.49197
5.53226
5.57281
5.61341
5.65374
5.69317
5.73112
5.7673
5.80159
5.83404
5.86498
5.89483
5.92393
5.95237
5.98011
6.00704
6.03288
6.05741
6.08066
6.10281
6.12402
6.14426
6.1634
6.18123
6.19738
6.21148
6.22324
6.23243
6.23886
6.24237
6.24278
6.23986
6.23327
6.22259
6.20742
6.18735
6.16192
6.13057
6.09265
6.04732
5.99352
5.93019
5.85682
5.77408
5.68416
5.59128
5.50228
5.42407
5.36014
5.31064
5.27407
5.24853
5.23243
5.22465
4.96389
4.97677
5.00091
5.03389
5.07257
5.11411
5.15686
5.19963
5.24176
5.28342
5.32509
5.3672
5.40966
5.45224
5.49465
5.53611
5.57581
5.61353
5.64911
5.68259
5.71442
5.74516
5.77524
5.80475
5.83362
5.86173
5.88869
5.91416
5.93825
5.96123
5.98334
6.00454
6.02468
6.04358
6.06078
6.0758
6.08838
6.09829
6.10531
6.10933
6.11019
6.10767
6.10138
6.09088
6.07572
6.0555
6.02976
5.99786
5.95911
5.9126
5.85694
5.79067
5.71282
5.62388
5.52596
5.42363
5.32549
5.24052
5.17261
5.12121
5.08394
5.05829
5.04227
5.03458
4.77784
4.79241
4.81946
4.85621
4.89879
4.94377
4.98954
5.03484
5.07892
5.12221
5.16544
5.20929
5.25362
5.29815
5.34269
5.38619
5.42763
5.46683
5.50364
5.53804
5.57063
5.60214
5.63316
5.6637
5.69366
5.72296
5.75104
5.77741
5.80226
5.82599
5.84896
5.8711
5.89224
5.91223
5.9305
5.94645
5.95986
5.97049
5.97811
5.98264
5.98396
5.98188
5.97597
5.96571
5.95063
5.93034
5.90439
5.87208
5.8327
5.78528
5.72808
5.65916
5.57695
5.48173
5.37541
5.26263
5.15424
5.06218
4.99056
4.93772
4.9002
4.87477
4.85905
4.85154
4.59772
4.61423
4.64447
4.68543
4.73224
4.78077
4.82961
4.87744
4.92332
4.96805
5.01267
5.05822
5.10437
5.15079
5.19752
5.24315
5.28627
5.32692
5.3649
5.40008
5.43329
5.46545
5.49736
5.52891
5.55991
5.59045
5.61968
5.64687
5.67239
5.69677
5.72058
5.74365
5.76576
5.78689
5.80628
5.82315
5.83739
5.84874
5.85693
5.86196
5.86377
5.86218
5.85669
5.84673
5.83179
5.8115
5.78547
5.75287
5.71303
5.66501
5.60664
5.53541
5.44899
5.34748
5.23243
5.108
4.98802
4.88855
4.81363
4.75994
4.72267
4.69781
4.6826
4.67538
4.4232
4.44194
4.47566
4.5213
4.57275
4.62484
4.67682
4.7272
4.77468
4.82065
4.86646
4.91366
4.96161
5.00984
5.05886
5.10672
5.15143
5.19349
5.23262
5.26842
5.3021
5.33477
5.36755
5.40009
5.43209
5.46391
5.49434
5.52228
5.54835
5.57329
5.59792
5.62191
5.64496
5.66727
5.68784
5.70561
5.72067
5.73275
5.74149
5.74702
5.74931
5.74824
5.74325
5.73366
5.71889
5.69866
5.67266
5.63988
5.59972
5.55144
5.49228
5.41918
5.32872
5.22097
5.09699
4.95951
4.82623
4.71913
4.6415
4.58767
4.5512
4.52726
4.51276
4.50592
4.25393
4.27529
4.31273
4.36361
4.42015
4.47576
4.5309
4.5839
4.63274
4.67972
4.72647
4.77534
4.82506
4.87494
4.92641
4.97664
5.02282
5.06627
5.10655
5.14279
5.17678
5.20979
5.24345
5.27697
5.30988
5.34308
5.3748
5.40336
5.42988
5.45524
5.48071
5.50561
5.52953
5.55311
5.57492
5.59355
5.60943
5.62225
5.6315
5.6375
5.64028
5.63979
5.63535
5.62618
5.61162
5.59148
5.56564
5.53276
5.4924
5.4442
5.38469
5.31022
5.21589
5.10205
4.96919
4.817
4.6682
4.55338
4.47388
4.42074
4.38563
4.36297
4.34938
4.343
4.08961
4.11406
4.15537
4.21217
4.27433
4.33324
4.39162
4.44734
4.49722
4.54498
4.59236
4.64297
4.69446
4.74577
4.7999
4.85272
4.90016
4.94497
4.98645
5.02291
5.05706
5.0902
5.1248
5.1593
5.19297
5.22772
5.26086
5.28989
5.31672
5.34234
5.36869
5.39451
5.41918
5.44414
5.46732
5.48671
5.5034
5.517
5.5267
5.53316
5.53639
5.53654
5.53271
5.52402
5.50968
5.48964
5.46412
5.43119
5.39067
5.34296
5.28353
5.20833
5.11026
4.99053
4.84921
4.68032
4.51316
4.3908
4.31055
4.25902
4.22587
4.20481
4.19231
4.18648
3.92988
3.95811
4.00325
4.06679
4.13523
4.19702
4.25871
4.31738
4.36785
4.41617
4.46376
4.5163
4.5696
4.62194
4.67906
4.7348
4.78314
4.82934
4.87214
4.90852
4.94268
4.97569
5.01134
5.04687
5.08107
5.11756
5.15233
5.18161
5.20865
5.23431
5.26162
5.28838
5.31363
5.34013
5.36482
5.38482
5.40235
5.41677
5.42682
5.43371
5.43737
5.43822
5.43508
5.42693
5.4128
5.39285
5.36781
5.33487
5.29416
5.24739
5.18847
5.11331
5.01153
4.88617
4.73739
4.54943
4.36016
4.23087
4.15133
4.10244
4.07181
4.05267
4.04141
4.03618
3.77441
3.80734
3.856
3.92729
4.00285
4.06676
4.13191
4.19389
4.24434
4.29306
4.34032
4.39509
4.45029
4.50307
4.56364
4.62274
4.67144
4.71908
4.76345
4.79935
4.83341
4.86593
4.90286
4.93948
4.97384
5.01239
5.04908
5.07828
5.10543
5.13084
5.15929
5.18705
5.21258
5.24084
5.26726
5.28764
5.30601
5.32135
5.33162
5.33893
5.34296
5.34458
5.34221
5.33467
5.32072
5.30077
5.27649
5.24351
5.20245
5.15718
5.09913
5.02502
4.9194
4.78863
4.63425
4.42439
4.20806
4.07313
3.99611
3.95093
3.92338
3.90642
3.89653
3.89195
3.62283
3.66178
3.71319
3.79352
3.8773
3.94209
4.01093
4.07683
4.12639
4.17547
4.22161
4.27914
4.33641
4.38871
4.45339
4.51651
4.56472
4.61395
4.66026
4.69511
4.72905
4.76059
4.79915
4.83699
4.87093
4.91198
4.95101
4.97965
5.00688
5.03163
5.0615
5.09035
5.11571
5.14605
5.1745
5.19487
5.21415
5.23054
5.24084
5.24858
5.25288
5.2554
5.25385
5.247
5.2332
5.21311
5.18992
5.15687
5.11512
5.07204
5.01511
4.94338
4.83352
4.69745
4.54053
4.3054
4.05541
3.91717
3.84486
3.80449
3.78051
3.76594
3.75751
3.75362
3.47473
3.52158
3.57429
3.66531
3.75877
3.82254
3.89548
3.9662
4.01363
4.06325
4.10717
4.16828
4.22792
4.27835
4.34809
4.41612
4.46259
4.51364
4.56251
4.59551
4.62945
4.65928
4.70003
4.7393
4.77195
4.81613
4.85807
4.88544
4.91285
4.93634
4.96806
4.99816
5.02267
5.05557
5.08645
5.10626
5.12654
5.1442
5.15424
5.16247
5.16689
5.17045
5.16978
5.16373
5.15002
5.12953
5.10794
5.07471
5.03172
4.99174
4.93597
4.8684
4.75351
4.61194
4.45723
4.19281
3.9004
3.7627
3.69765
3.66313
3.64312
3.63111
3.6242
3.62103
3.32964
3.38707
3.43863
3.54254
3.64763
3.70754
3.78524
3.86214
3.90565
3.95637
3.99647
4.06238
4.12485
4.17139
4.24753
4.32172
4.36458
4.41788
4.47021
4.50019
4.53451
4.5616
4.60536
4.64638
4.67645
4.72463
4.77027
4.79535
4.82321
4.84462
4.87883
4.91041
4.93308
4.96919
5.00307
5.02148
5.04296
5.0622
5.07156
5.0804
5.08473
5.08952
5.08979
5.08467
5.07098
5.04968
5.03041
4.99687
4.95175
4.91613
4.86116
4.80019
4.67898
4.53115
4.38568
4.08722
3.74073
3.60962
3.55461
3.52688
3.51115
3.5018
3.49645
3.494
3.18701
3.25885
3.30536
3.42505
3.54439
3.59637
3.67988
3.76488
3.8019
3.85488
3.88886
3.96135
4.02736
4.06711
4.15149
4.23357
4.27016
4.32637
4.38346
4.40875
4.44422
4.46705
4.51501
4.55826
4.5839
4.63731
4.6877
4.70901
4.73793
4.75603
4.79368
4.82711
4.8465
4.88674
4.92438
4.94021
4.96318
4.98446
4.99253
5.00223
5.00612
5.01244
5.01366
5.00965
4.9959
4.97319
4.95723
4.92321
4.87463
4.84512
4.79002
4.73903
4.60951
4.45373
4.3276
3.98949
3.57349
3.45808
3.41599
3.39578
3.38452
3.37788
3.37409
3.37236
3.04618
3.13779
3.1734
3.31272
3.44984
3.48811
3.57904
3.67484
3.7017
3.759
3.78358
3.86513
3.93576
3.96462
4.0598
4.15208
4.17864
4.23881
4.30246
4.32067
4.35865
4.37509
4.42891
4.47508
4.49368
4.554
4.61053
4.62596
4.65704
4.67011
4.71251
4.74831
4.76242
4.80805
4.85048
4.86204
4.88699
4.91093
4.91685
4.92783
4.93081
4.93904
4.94118
4.93851
4.92466
4.89963
4.88837
4.85368
4.79971
4.77881
4.72175
4.68541
4.54469
4.37786
4.28517
3.90085
3.39498
3.30864
3.28207
3.26986
3.26314
3.2592
3.25695
3.25593
2.90633
3.0252
3.04134
3.20543
3.36501
3.38161
3.48233
3.59263
3.60415
3.66916
3.67968
3.77374
3.85053
3.86287
3.97228
4.07787
4.08923
4.15489
4.22757
4.23532
4.27803
4.28504
4.347
4.39709
4.40504
4.47454
4.53906
4.54566
4.5807
4.58628
4.63526
4.67419
4.68023
4.73299
4.78156
4.78653
4.81419
4.84163
4.8442
4.85714
4.85849
4.86919
4.87215
4.87111
4.85717
4.82851
4.82384
4.78828
4.72619
4.71743
4.65529
4.64003
4.48419
4.30112
4.26108
3.82295
3.20055
3.16235
3.1532
3.14913
3.14691
3.14561
3.14487
3.14453
)
;

boundaryField
{
    left
    {
        type            zeroGradient;
    }
    right
    {
        type            zeroGradient;
    }
    interface
    {
        type            fixedValue;
        value           nonuniform List<scalar> 
64
(
2.83483
2.97288
2.97288
3.1531
3.32733
3.32733
3.4348
3.55507
3.55507
3.62669
3.62669
3.72952
3.81057
3.81057
3.9296
4.0441
4.0441
4.11369
4.1927
4.1927
4.23959
4.23959
4.30727
4.36008
4.36008
4.43583
4.50569
4.50569
4.54419
4.54419
4.59777
4.63882
4.63882
4.69641
4.74904
4.74904
4.77863
4.80841
4.80841
4.82289
4.82289
4.83526
4.83851
4.83851
4.82458
4.79311
4.79311
4.75701
4.68885
4.68885
4.62156
4.62156
4.45534
4.25983
4.25983
3.78975
3.09007
3.09007
3.09007
3.09007
3.09007
3.09007
3.09007
3.09007
)
;
    }
    bottom
    {
        type            fixedValue;
        value           uniform 10;
    }
    defaultFaces
    {
        type            empty;
    }
}


// ************************************************************************* //
