/*--------------------------------*- C++ -*----------------------------------*\
| =========                 |                                                 |
| \\      /  F ield         | OpenFOAM: The Open Source CFD Toolbox           |
|  \\    /   O peration     | Version:  5.x                                   |
|   \\  /    A nd           | Web:      www.OpenFOAM.org                      |
|    \\/     M anipulation  |                                                 |
\*---------------------------------------------------------------------------*/
FoamFile
{
    version     2.0;
    format      ascii;
    class       volScalarField;
    location    "10.5999";
    object      gradTx;
}
// * * * * * * * * * * * * * * * * * * * * * * * * * * * * * * * * * * * * * //

dimensions      [0 -1 0 1 0 0 0];

internalField   nonuniform List<scalar> 
6300
(
-31.8866
-31.9574
-32.0983
-32.308
-32.5841
-32.9234
-33.3218
-33.7738
-34.2727
-34.8103
-35.3773
-35.9633
-36.5572
-37.1477
-37.7243
-31.8158
-31.8873
-32.0296
-32.2415
-32.5208
-32.8644
-33.2683
-33.727
-34.2339
-34.7809
-35.3583
-35.9554
-36.5605
-37.1617
-37.7476
-31.6735
-31.7463
-31.8915
-32.1077
-32.3932
-32.7452
-33.1598
-33.632
-34.1551
-34.721
-35.3196
-35.9395
-36.5677
-37.191
-37.7963
-31.4584
-31.5331
-31.6822
-31.9047
-32.1991
-32.5633
-32.9938
-33.486
-34.0337
-34.6284
-35.2598
-35.9151
-36.5799
-37.2383
-37.8744
-31.1686
-31.2456
-31.3995
-31.6297
-31.9354
-32.315
-32.7661
-33.2847
-33.8651
-34.4991
-35.1759
-35.8814
-36.5985
-37.3078
-37.9889
-30.8017
-30.8812
-31.0404
-31.2792
-31.5977
-31.9954
-32.4709
-33.0216
-33.6428
-34.3271
-35.0633
-35.836
-36.625
-37.4055
-38.1505
-30.3554
-30.4373
-30.6016
-30.8491
-31.1809
-31.5979
-32.1005
-32.6879
-33.3575
-34.1031
-34.9143
-35.7744
-36.6597
-37.5389
-38.3743
-29.8271
-29.911
-30.0796
-30.3348
-30.6789
-31.1148
-31.6452
-32.2722
-32.9961
-33.8136
-34.7162
-35.6875
-36.7007
-37.7162
-38.6817
-29.2149
-29.2999
-29.4712
-29.7316
-30.0852
-30.5371
-31.0933
-31.7596
-32.541
-33.439
-34.4495
-35.5589
-36.7392
-37.9436
-39.1008
-28.5178
-28.6024
-28.7736
-29.0352
-29.3931
-29.8552
-30.4311
-31.1321
-31.9692
-32.9518
-34.0839
-35.3591
-36.7537
-38.218
-39.6637
-27.7361
-27.8185
-27.9856
-28.2425
-28.5968
-29.0593
-29.6441
-30.3683
-31.2518
-32.3151
-33.5753
-35.04
-36.6984
-38.5109
-40.3913
-26.872
-26.9497
-27.1079
-27.3523
-27.6923
-28.1413
-28.7175
-29.4452
-30.3546
-31.4813
-32.862
-34.527
-36.4886
-38.7356
-41.2409
-25.9303
-26.0005
-26.1439
-26.3666
-26.6789
-27.0959
-27.6395
-28.3403
-29.2402
-30.3933
-31.8641
-33.7165
-35.9919
-38.6998
-41.9403
-24.9183
-24.9781
-25.1005
-25.2913
-25.5607
-25.9238
-26.4041
-27.0364
-27.8725
-28.9873
-30.4836
-32.4808
-35.0576
-38.1218
-41.5361
-23.8465
-23.8931
-23.9886
-24.1376
-24.3486
-24.6346
-25.0168
-25.5288
-26.2257
-27.1993
-28.6005
-30.6601
-33.6204
-37.1581
-37.6071
-38.2336
-38.6737
-39.0896
-39.4794
-39.8423
-40.1781
-40.4873
-40.7703
-41.0274
-41.2585
-41.4629
-41.6398
-41.788
-41.9068
-41.9962
-42.057
-42.0912
-42.1015
-42.092
-42.0668
-42.0302
-41.986
-41.9371
-41.8852
-41.831
-41.7737
-41.712
-41.6438
-41.5674
-41.4811
-41.3844
-41.2776
-41.1622
-41.0403
-40.9149
-40.7888
-40.6646
-40.5441
-40.4281
-40.3165
-40.208
-40.1007
-39.9922
-39.8803
-39.7632
-39.64
-39.5108
-39.3766
-39.2394
-39.1017
-38.9659
-38.8344
-38.7087
-38.5895
-38.4765
-38.3684
-38.2633
-38.1588
-38.0527
-37.9433
-37.8296
-37.7117
-37.5906
-37.468
-37.3463
-37.2279
-37.115
-37.0092
-36.9111
-36.8206
-36.7366
-36.6575
-36.5815
-36.5069
-36.4328
-36.3591
-36.2868
-36.218
-36.1559
-36.1045
-36.0676
-36.049
-36.0517
-36.0774
-36.1261
-36.1964
-36.2848
-36.3862
-36.4947
-36.6032
-38.2639
-38.7084
-39.1271
-39.5183
-39.8812
-40.2165
-40.5249
-40.8075
-41.0649
-41.2969
-41.5027
-41.681
-41.8303
-41.9492
-42.0374
-42.0955
-42.1253
-42.1302
-42.1146
-42.0832
-42.0412
-41.9927
-41.9413
-41.8887
-41.8353
-41.7801
-41.7212
-41.6558
-41.5815
-41.4962
-41.3989
-41.2901
-41.1714
-41.0455
-40.9159
-40.7861
-40.6592
-40.5375
-40.4219
-40.312
-40.2063
-40.1023
-39.9971
-39.8877
-39.772
-39.6487
-39.5179
-39.381
-39.2402
-39.0988
-38.9598
-38.8259
-38.6993
-38.5806
-38.4695
-38.3642
-38.2624
-38.161
-38.0575
-37.9494
-37.8357
-37.7164
-37.5927
-37.4667
-37.3415
-37.22
-37.1049
-36.998
-36.9002
-36.8112
-36.7295
-36.653
-36.5794
-36.5063
-36.4323
-36.3571
-36.2816
-36.2083
-36.1407
-36.0835
-36.0412
-36.0184
-36.0186
-36.0441
-36.0952
-36.1703
-36.2658
-36.3762
-36.4946
-36.6131
-38.3267
-38.7804
-39.2045
-39.5976
-39.9601
-40.2934
-40.5998
-40.8812
-41.1389
-41.3729
-41.582
-41.764
-41.9161
-42.036
-42.1221
-42.1745
-42.1953
-42.1885
-42.1597
-42.1151
-42.0613
-42.0039
-41.9471
-41.8932
-41.8421
-41.7921
-41.7397
-41.6808
-41.6114
-41.5284
-41.4301
-41.3168
-41.1909
-41.0561
-40.9172
-40.7792
-40.6465
-40.5221
-40.4073
-40.3015
-40.2022
-40.1058
-40.0079
-39.9043
-39.7917
-39.6682
-39.5339
-39.3908
-39.2421
-39.0924
-38.9461
-38.8072
-38.6784
-38.5609
-38.4539
-38.355
-38.2607
-38.1666
-38.0687
-37.9637
-37.85
-37.7274
-37.5979
-37.4645
-37.3314
-37.2029
-37.0828
-36.9737
-36.8767
-36.7911
-36.7148
-36.6445
-36.5764
-36.507
-36.4336
-36.3554
-36.2733
-36.1902
-36.1108
-36.0409
-35.9868
-35.9545
-35.9492
-35.9739
-36.0296
-36.1149
-36.2255
-36.3548
-36.4941
-36.634
-38.4274
-38.8949
-39.3264
-39.7212
-40.0809
-40.4092
-40.7106
-40.9891
-41.247
-41.4848
-41.7004
-41.89
-42.0485
-42.1713
-42.2551
-42.299
-42.3051
-42.2787
-42.2273
-42.1602
-42.0865
-42.0142
-41.9489
-41.8936
-41.8475
-41.8074
-41.7674
-41.7209
-41.661
-41.5826
-41.4827
-41.3618
-41.2231
-41.0725
-40.9172
-40.7647
-40.6218
-40.4929
-40.3798
-40.2815
-40.194
-40.1114
-40.027
-39.9339
-39.827
-39.7033
-39.5628
-39.4084
-39.2456
-39.0811
-38.9218
-38.7738
-38.6414
-38.5261
-38.4267
-38.3394
-38.2586
-38.1776
-38.09
-37.9907
-37.8769
-37.7486
-37.6085
-37.4617
-37.3146
-37.1737
-37.0449
-36.9321
-36.8368
-36.7578
-36.6916
-36.6329
-36.5754
-36.5132
-36.442
-36.3594
-36.2665
-36.1669
-36.0671
-35.9754
-35.9009
-35.8521
-35.8364
-35.8589
-35.9216
-36.0231
-36.1583
-36.3187
-36.4931
-36.6683
-38.5745
-39.0611
-39.5013
-39.8952
-40.2469
-40.5639
-40.8545
-41.1264
-41.3842
-41.6286
-41.8564
-42.0606
-42.2324
-42.3629
-42.4457
-42.4778
-42.4617
-42.4046
-42.3178
-42.2149
-42.1098
-42.0142
-41.9366
-41.8804
-41.8444
-41.8224
-41.8048
-41.7801
-41.7373
-41.6675
-41.5658
-41.4324
-41.2726
-41.0956
-40.9129
-40.7366
-40.5769
-40.4409
-40.3312
-40.2459
-40.1786
-40.1198
-40.0585
-39.9836
-39.8865
-39.7625
-39.6115
-39.4383
-39.2516
-39.0621
-38.8811
-38.7181
-38.5797
-38.4684
-38.3819
-38.3145
-38.2567
-38.1981
-38.1281
-38.0385
-37.9247
-37.7867
-37.6289
-37.4595
-37.2887
-37.1272
-36.984
-36.8653
-36.7732
-36.706
-36.6576
-36.6194
-36.581
-36.5326
-36.4665
-36.3784
-36.2691
-36.1438
-36.0118
-35.8854
-35.7778
-35.7019
-35.6687
-35.686
-35.7577
-35.8827
-36.0548
-36.2626
-36.4906
-36.7204
-38.7819
-39.294
-39.743
-40.1299
-40.4631
-40.7564
-41.0255
-41.2839
-41.5405
-41.7966
-42.0463
-42.2778
-42.4755
-42.6234
-42.709
-42.7262
-42.6774
-42.5732
-42.4314
-42.2729
-42.1192
-41.9884
-41.8932
-41.8384
-41.8212
-41.8311
-41.8522
-41.8655
-41.8526
-41.7983
-41.6945
-41.5412
-41.3469
-41.1268
-40.8996
-40.6846
-40.498
-40.3509
-40.2475
-40.1842
-40.1509
-40.1321
-40.1094
-40.0651
-39.9848
-39.8605
-39.6921
-39.4877
-39.2615
-39.031
-38.8144
-38.6271
-38.4792
-38.3746
-38.31
-38.2754
-38.2562
-38.2349
-38.1944
-38.1211
-38.0074
-37.8532
-37.666
-37.4592
-37.2496
-37.0543
-36.8878
-36.7599
-36.6741
-36.627
-36.6091
-36.6061
-36.6011
-36.5776
-36.5225
-36.4281
-36.2948
-36.1303
-35.9486
-35.7682
-35.6091
-35.4902
-35.4282
-35.435
-35.5171
-35.6745
-35.8998
-36.1776
-36.4856
-36.797
-39.0712
-39.6178
-40.074
-40.4419
-40.7368
-40.9839
-41.2116
-41.4444
-41.6975
-41.9736
-42.2626
-42.5439
-42.7903
-42.9736
-43.0709
-43.0698
-42.9726
-42.7963
-42.5688
-42.324
-42.0955
-41.9116
-41.7915
-41.7424
-41.7588
-41.8236
-41.9107
-41.9889
-42.0273
-42.0005
-41.8944
-41.7089
-41.4584
-41.1681
-40.8689
-40.5915
-40.3621
-40.1981
-40.1058
-40.0795
-40.1025
-40.1497
-40.1916
-40.1985
-40.1464
-40.0218
-39.8247
-39.5687
-39.2774
-38.98
-38.7057
-38.479
-38.3163
-38.2234
-38.1947
-38.2144
-38.2587
-38.2992
-38.3079
-38.262
-38.1485
-37.9673
-37.7313
-37.4629
-37.1899
-36.9399
-36.7361
-36.594
-36.5191
-36.506
-36.5392
-36.5956
-36.6478
-36.6683
-36.6348
-36.534
-36.3655
-36.1413
-35.8836
-35.6206
-35.3822
-35.1968
-35.0885
-35.0753
-35.1681
-35.3687
-35.6691
-36.0489
-36.4759
-36.9093
-39.4753
-40.0718
-40.5323
-40.8589
-41.0794
-41.2395
-41.3904
-41.5755
-41.8213
-42.132
-42.49
-42.8601
-43.1958
-43.4478
-43.5744
-43.5517
-43.3819
-43.0929
-42.7312
-42.3516
-42.0075
-41.7429
-41.5875
-41.5519
-41.6267
-41.7841
-41.982
-42.1697
-42.2957
-42.317
-42.2085
-41.9702
-41.6272
-41.2224
-40.8066
-40.4294
-40.1322
-39.9422
-39.8691
-39.9037
-40.0191
-40.1752
-40.324
-40.4167
-40.4125
-40.2876
-40.0423
-39.7002
-39.302
-38.8958
-38.5285
-38.2389
-38.0529
-37.9795
-38.0097
-38.1181
-38.2665
-38.4093
-38.5002
-38.5002
-38.3869
-38.1604
-37.843
-37.4734
-37.0971
-36.7588
-36.4954
-36.3314
-36.2752
-36.3182
-36.4358
-36.5911
-36.74
-36.837
-36.8438
-36.7374
-36.5163
-36.2006
-35.8263
-35.4374
-35.079
-34.7924
-34.6118
-34.5633
-34.6636
-34.9193
-35.3239
-35.8521
-36.4572
-37.0752
-40.0451
-40.7215
-41.1833
-41.4288
-41.5089
-41.5084
-41.5198
-41.6194
-41.8518
-42.2224
-42.7001
-43.2258
-43.7218
-44.1028
-44.2928
-44.2455
-43.9627
-43.494
-42.9194
-42.3283
-41.8048
-41.4171
-41.2109
-41.2025
-41.3758
-41.6864
-42.0678
-42.4391
-42.7151
-42.8205
-42.7095
-42.3824
-41.8851
-41.2925
-40.6885
-40.1522
-39.7478
-39.5179
-39.4775
-39.6114
-39.877
-40.2112
-40.5373
-40.7747
-40.8523
-40.7269
-40.3991
-39.9126
-39.3383
-38.7556
-38.2392
-37.8497
-37.6274
-37.5865
-37.7121
-37.9641
-38.2824
-38.5943
-38.8232
-38.9016
-38.7885
-38.4842
-38.0301
-37.4934
-36.9497
-36.4699
-36.1117
-35.9134
-35.8885
-36.023
-36.278
-36.5961
-36.9068
-37.1356
-37.216
-37.1061
-36.8033
-36.3442
-35.7899
-35.2103
-34.6726
-34.2352
-33.9451
-33.8369
-33.9351
-34.2557
-34.8009
-35.5444
-36.42
-37.324
-40.8574
-41.6803
-42.1457
-42.2368
-42.0544
-41.7604
-41.5221
-41.4719
-41.6835
-42.1584
-42.841
-43.6345
-44.4132
-45.0328
-45.353
-45.2786
-44.8111
-44.0478
-43.1313
-42.2078
-41.4063
-40.8301
-40.5496
-40.5912
-40.9271
-41.4868
-42.1682
-42.846
-43.38
-43.6356
-43.5218
-43.0394
-42.2803
-41.3788
-40.4732
-39.6851
-39.1121
-38.8205
-38.8351
-39.1294
-39.6362
-40.2587
-40.8784
-41.3626
-41.5842
-41.4578
-40.9844
-40.2516
-39.3865
-38.52
-37.767
-37.2197
-36.9408
-36.9535
-37.2327
-37.7146
-38.3074
-38.8988
-39.3629
-39.5789
-39.4655
-39.0236
-38.336
-37.5235
-36.7103
-36.0058
-35.4977
-35.2458
-35.2725
-35.554
-36.0296
-36.6115
-37.1916
-37.6479
-37.862
-37.7525
-37.3155
-36.6248
-35.7899
-34.9229
-34.1217
-33.466
-33.0161
-32.8135
-32.8863
-33.2686
-33.9924
-35.0465
-36.342
-37.7053
-42.0223
-43.1542
-43.6467
-43.4384
-42.7608
-41.9324
-41.2535
-40.9476
-41.136
-41.7956
-42.8222
-44.0643
-45.3338
-46.3941
-46.9812
-46.8779
-46.0853
-44.8224
-43.3531
-41.9118
-40.6832
-39.8173
-39.4246
-39.5559
-40.1563
-41.1121
-42.2735
-43.4598
-44.4459
-44.9826
-44.8649
-44.095
-42.8805
-41.4711
-40.0887
-38.9081
-38.0711
-37.6824
-37.7899
-38.3413
-39.2289
-40.3104
-41.4145
-42.3287
-42.8174
-42.6881
-41.9435
-40.7809
-39.4368
-38.121
-36.9985
-36.2033
-35.8344
-35.9369
-36.4612
-37.3054
-38.3346
-39.3866
-40.2598
-40.7304
-40.6154
-39.9169
-38.8218
-37.5546
-36.3146
-35.2587
-34.5147
-34.1771
-34.2895
-34.8054
-35.6282
-36.6297
-37.6547
-38.5087
-38.9743
-38.8704
-38.1929
-37.113
-35.8362
-34.5409
-33.3613
-32.4004
-31.7312
-31.3936
-31.3919
-31.7897
-32.7082
-34.2009
-36.1664
-38.307
-43.6683
-45.5506
-46.1576
-45.3142
-43.683
-41.8896
-40.4481
-39.7117
-39.9101
-40.9041
-42.4931
-44.4548
-46.5558
-48.4367
-49.6036
-49.4698
-48.0365
-45.8944
-43.5345
-41.3095
-39.4379
-38.1231
-37.5451
-37.8453
-38.8734
-40.4415
-42.3431
-44.3617
-46.1592
-47.2716
-47.1474
-45.7907
-43.7614
-41.5245
-39.4138
-37.6363
-36.3846
-35.8296
-36.1054
-37.0691
-38.5425
-40.3293
-42.2243
-43.9074
-44.9406
-44.8045
-43.5045
-41.5717
-39.4463
-37.4435
-35.7586
-34.5733
-34.049
-34.3127
-35.2292
-36.6298
-38.3288
-40.1321
-41.7363
-42.7253
-42.6055
-41.3811
-39.5556
-37.5466
-35.6536
-34.0625
-32.9466
-32.4603
-32.7255
-33.6148
-34.9693
-36.6139
-38.364
-39.929
-40.9064
-40.8146
-39.6497
-37.8848
-35.9091
-33.9921
-32.2858
-30.915
-29.9687
-29.4898
-29.3222
-29.5609
-30.5971
-32.6747
-35.7387
-39.2935
-45.7877
-49.792
-50.7648
-48.3228
-44.8326
-41.3392
-38.6281
-37.1297
-37.5388
-39.1556
-41.6277
-44.6444
-48.0949
-51.5075
-54.0992
-53.9329
-51.0085
-47.28
-43.5218
-40.1983
-37.3907
-35.3678
-34.4008
-35.0865
-36.8129
-39.2906
-42.2443
-45.5821
-48.859
-51.3412
-51.2048
-48.4552
-44.941
-41.3962
-38.259
-35.6072
-33.6949
-32.7805
-33.4303
-35.0632
-37.4045
-40.1925
-43.3393
-46.422
-48.7476
-48.5967
-45.9768
-42.6396
-39.2793
-36.3084
-33.7992
-31.9912
-31.1289
-31.7486
-33.3003
-35.5242
-38.173
-41.1644
-44.0984
-46.3172
-46.186
-43.711
-40.5534
-37.3717
-34.5581
-32.1818
-30.4717
-29.6615
-30.2626
-31.7544
-33.8928
-36.4462
-39.34
-42.1953
-44.3782
-44.3039
-41.9705
-38.9603
-35.8973
-33.1399
-30.7274
-28.8181
-27.5331
-27.138
-26.6672
-26.1837
-26.9866
-29.7278
-34.6041
-40.9967
-47.316
-58.417
-60.3366
-52.86
-45.9725
-39.6543
-35.0599
-31.8007
-33.4284
-36.1757
-39.978
-44.2094
-49.6885
-55.7606
-62.5661
-62.3676
-55.1384
-48.7082
-42.8831
-38.344
-34.2139
-31.0919
-28.8768
-30.8291
-33.6706
-37.4542
-41.5922
-46.8903
-52.7033
-59.1814
-59.0252
-52.2205
-46.1649
-40.6808
-36.4054
-32.5133
-29.5682
-27.479
-29.3394
-32.0372
-35.6234
-39.5392
-44.5463
-50.0267
-56.121
-55.9443
-49.482
-43.741
-38.5514
-34.5083
-30.8303
-28.0474
-26.0747
-27.8426
-30.4033
-33.8066
-37.5238
-42.2792
-47.4906
-53.2929
-53.1416
-47.024
-41.5858
-36.6668
-32.8326
-29.342
-26.7012
-24.8302
-26.517
-28.963
-32.2187
-35.7884
-40.3714
-45.4297
-51.1004
-51.0463
-45.2658
-40.1119
-35.4455
-31.7911
-28.4444
-25.8221
-23.816
-24.8952
-24.0307
-20.954
-20.5848
-23.7066
-31.2861
-44.1319
-40.9443
-80.2144
-83.6072
-56.7207
-46.317
-35.4845
-29.5684
-19.4346
-27.7058
-31.6764
-37.7107
-41.9776
-50.4282
-58.9577
-81.119
-80.9266
-58.1177
-49.2653
-40.3924
-35.9008
-29.5853
-25.5098
-17.352
-25.291
-29.172
-35.1072
-39.2696
-47.457
-55.5899
-76.5752
-76.4195
-54.9069
-46.566
-38.225
-33.9996
-28.0558
-24.209
-16.4901
-24.0428
-27.7316
-33.3679
-37.3141
-45.0721
-52.7474
-72.5245
-72.3431
-51.9483
-44.0485
-36.1726
-32.1824
-26.5724
-22.9368
-15.6341
-22.7949
-26.2929
-31.637
-35.3798
-42.7373
-50.0319
-68.8417
-68.6886
-49.3586
-41.8704
-34.4
-30.6122
-25.2785
-21.822
-14.8759
-21.678
-25.0056
-30.0926
-33.6713
-40.7185
-47.7823
-66.0664
-66.0347
-47.6587
-40.5615
-33.5364
-29.9992
-25.1184
-21.9386
-15.6561
-25.4515
-24.5798
-11.8254
-9.15589
-11.2662
-20.3847
-50.2449
-36.7139
-36.816
-36.8895
-36.9289
-36.9326
-36.9023
-36.8427
-36.7609
-36.6648
-36.5631
-36.4641
-36.3752
-36.3027
-36.2517
-36.2253
-36.7338
-36.8446
-36.9235
-36.9647
-36.9666
-36.9315
-36.8651
-36.775
-36.6704
-36.5604
-36.4539
-36.3587
-36.2814
-36.227
-36.199
-36.776
-36.9052
-36.9953
-37.0398
-37.0375
-36.9921
-36.911
-36.8039
-36.6814
-36.5543
-36.4324
-36.3243
-36.2371
-36.176
-36.1445
-36.8455
-37.0048
-37.1127
-37.1617
-37.1515
-37.0884
-36.9829
-36.848
-36.697
-36.543
-36.3971
-36.2692
-36.1667
-36.0953
-36.0587
-36.9514
-37.1558
-37.2891
-37.3426
-37.3184
-37.227
-37.0843
-36.9081
-36.7158
-36.5233
-36.344
-36.1885
-36.0652
-35.9798
-35.9362
-37.108
-37.3778
-37.5454
-37.6013
-37.5524
-37.417
-37.2193
-36.9843
-36.7349
-36.4906
-36.2669
-36.0757
-35.9257
-35.8226
-35.7702
-37.3387
-37.702
-37.9135
-37.9648
-37.8728
-37.6694
-37.3916
-37.0748
-36.7488
-36.4372
-36.1574
-35.9219
-35.7392
-35.6147
-35.5517
-37.6814
-38.1779
-38.4419
-38.4716
-38.3045
-37.9961
-37.6031
-37.1745
-36.7484
-36.3519
-36.0035
-35.7153
-35.4944
-35.3453
-35.2702
-38.2002
-38.8862
-39.2046
-39.1753
-38.8776
-38.4073
-37.85
-37.2718
-36.7183
-36.2185
-35.7896
-35.4412
-35.1779
-35.0018
-34.9137
-39.0073
-39.9623
-40.3148
-40.1474
-39.6235
-38.9053
-38.1179
-37.3445
-36.6345
-36.0141
-35.4953
-35.082
-34.7742
-34.5704
-34.469
-40.3116
-41.6409
-41.945
-41.4759
-40.5636
-39.4726
-38.3718
-37.3538
-36.4611
-35.7082
-35.0955
-34.6173
-34.2666
-34.0366
-33.9229
-42.5347
-44.3445
-44.3485
-43.2475
-41.6825
-40.0495
-38.5431
-37.2377
-36.1478
-35.2621
-34.5611
-34.0253
-33.638
-33.3867
-33.2631
-46.6166
-48.8539
-47.857
-45.4831
-42.8694
-40.4998
-38.5132
-36.9063
-35.6304
-34.6312
-33.8616
-33.2847
-32.8735
-32.609
-32.4796
-54.9389
-56.5975
-52.7426
-47.9585
-43.8122
-40.5671
-38.1037
-36.2437
-34.8363
-33.7708
-32.9694
-32.3786
-31.9621
-31.6963
-31.5667
-74.5361
-69.8547
-58.5574
-49.7961
-43.8538
-39.8526
-37.091
-35.1284
-33.7004
-32.6463
-31.8666
-31.298
-30.9001
-30.6473
-30.5244
-22.8213
-22.8538
-22.9201
-23.0234
-23.1687
-23.3648
-23.626
-23.9772
-24.4626
-25.1676
-26.268
-28.1547
-31.7387
-39.0069
-52.0331
-21.8667
-21.8854
-21.9233
-21.9811
-22.0607
-22.165
-22.2993
-22.4733
-22.7073
-23.0455
-23.5981
-24.6822
-27.4035
-36.5441
-77.9511
-20.8992
-20.9038
-20.9124
-20.9238
-20.9357
-20.9445
-20.9448
-20.9279
-20.8797
-20.7747
-20.5573
-20.0549
-18.5007
-11.6609
25.3376
-19.9284
-19.9194
-19.8997
-19.8661
-19.8127
-19.7299
-19.6023
-19.4043
-19.0915
-18.5825
-17.7159
-16.1509
-13.1694
-7.70952
-3.90022
-18.9639
-18.9423
-18.8967
-18.8222
-18.7101
-18.5464
-18.3087
-17.9603
-17.4397
-16.6391
-15.3624
-13.2396
-9.54231
-2.60065
13.4704
-18.0144
-17.9818
-17.9138
-17.8044
-17.6433
-17.4143
-17.0919
-16.6359
-15.9822
-15.0262
-13.5971
-11.4267
-8.16947
-3.8274
-1.97523
-17.0876
-17.046
-16.9597
-16.8224
-16.6236
-16.347
-15.9678
-15.4489
-14.7347
-13.7416
-12.346
-10.37
-7.5507
-3.32408
4.93759
-16.1898
-16.1411
-16.0409
-15.8832
-15.6581
-15.3509
-14.9406
-14.3975
-13.6808
-12.7363
-11.498
-9.89909
-7.90948
-5.62268
-3.48406
-15.3257
-15.272
-15.1621
-14.9907
-14.7495
-14.4265
-14.0057
-13.4667
-12.785
-11.9351
-10.9001
-9.69959
-8.47471
-7.81833
-10.4206
-14.4989
-14.442
-14.3261
-14.1468
-13.8976
-13.5699
-13.1529
-12.635
-12.006
-11.2624
-10.4173
-9.51696
-8.64519
-7.75105
-5.03852
-13.7117
-13.653
-13.534
-13.3514
-13.1004
-12.7753
-12.3701
-11.8804
-11.3067
-10.6601
-9.97282
-9.31448
-8.8312
-8.94652
-11.8985
-12.9652
-12.9059
-12.7861
-12.6034
-12.3546
-12.0364
-11.6461
-11.1843
-10.6579
-10.0861
-9.50824
-8.99044
-8.6015
-8.17208
-5.52876
-12.2599
-12.2009
-12.0819
-11.9013
-11.6571
-11.3474
-10.9717
-10.533
-10.0406
-9.5162
-9.00198
-8.5769
-8.39989
-8.93508
-12.603
-11.5956
-11.5374
-11.4205
-11.2435
-11.0051
-10.7043
-10.3412
-9.91887
-9.44565
-8.93926
-8.43381
-7.99108
-7.7037
-7.52255
-5.37998
-10.9717
-10.9149
-10.8007
-10.6283
-10.3965
-10.1044
-9.75178
-9.34012
-8.87371
-8.36166
-7.8221
-7.29738
-6.93375
-7.47209
-13.5134
-10.3873
-10.3322
-10.2215
-10.0544
-9.82981
-9.54653
-9.20338
-8.79939
-8.33347
-7.80318
-7.20007
-6.49183
-5.53741
-3.60013
3.79692
-9.84117
-9.78805
-9.68139
-9.5204
-9.30388
-9.03023
-8.69725
-8.30168
-7.83795
-7.29526
-6.65106
-5.85724
-4.82362
-3.51965
-3.39477
-9.33195
-9.28111
-9.17905
-9.02499
-8.81765
-8.55515
-8.2346
-7.85132
-7.39725
-6.85786
-6.20595
-5.38918
-4.29759
-2.62034
1.16042
-8.85806
-8.80977
-8.71285
-8.56658
-8.36973
-8.1204
-7.81552
-7.45012
-7.01583
-6.4986
-5.87535
-5.11197
-4.17827
-3.18177
-3.31877
-8.41771
-8.37221
-8.28094
-8.1433
-7.95828
-7.72423
-7.43849
-7.09676
-6.69202
-6.21297
-5.64207
-4.95305
-4.10257
-2.95603
-0.630613
-8.00898
-7.96646
-7.88124
-7.75294
-7.58088
-7.36396
-7.10036
-6.78719
-6.41981
-5.99112
-5.49084
-4.90626
-4.23247
-3.54893
-3.58979
-7.62978
-7.59037
-7.51147
-7.39298
-7.23466
-7.03612
-6.79668
-6.51526
-6.19019
-5.81901
-5.39817
-4.92143
-4.36914
-3.63875
-2.10031
-7.27798
-7.2417
-7.16922
-7.0607
-6.91639
-6.73669
-6.52215
-6.27366
-5.99261
-5.6814
-5.34431
-4.98909
-4.62951
-4.28968
-4.01922
-6.95138
-6.91819
-6.85202
-6.75328
-6.62272
-6.46146
-6.27122
-6.05468
-5.81599
-5.56178
-5.30307
-5.05979
-4.87616
-4.89242
-5.75017
-6.64785
-6.61761
-6.55743
-6.46798
-6.35038
-6.20635
-6.03857
-5.8511
-5.65016
-5.44529
-5.25111
-5.08908
-4.984
-4.91077
-4.35504
-6.36533
-6.33782
-6.28319
-6.20225
-6.0964
-5.96776
-5.81961
-5.65689
-5.48706
-5.3214
-5.17684
-5.07884
-5.06974
-5.26415
-6.29546
-6.10192
-6.07688
-6.02722
-5.95385
-5.85825
-5.74273
-5.61079
-5.46763
-5.32108
-5.18286
-5.07025
-5.00689
-5.01416
-5.03632
-4.39959
-5.85591
-5.83305
-5.78775
-5.72089
-5.63394
-5.52912
-5.40976
-5.28074
-5.14933
-5.02655
-4.92946
-4.8859
-4.94824
-5.26603
-6.61374
-5.6258
-5.60482
-5.56325
-5.50189
-5.42204
-5.32564
-5.21546
-5.09552
-4.9716
-4.8524
-4.75153
-4.69137
-4.70496
-4.78047
-4.23242
-5.41026
-5.39091
-5.35251
-5.29575
-5.22166
-5.13172
-5.02796
-4.91307
-4.79062
-4.66553
-4.54535
-4.44565
-4.41868
-4.72792
-7.0016
-5.20818
-5.19022
-5.15455
-5.10165
-5.03229
-4.94742
-4.8482
-4.73587
-4.61148
-4.47527
-4.32495
-4.14943
-3.89894
-3.31115
-0.779777
-5.01859
-5.00185
-4.96855
-4.91901
-4.8537
-4.77309
-4.67757
-4.56708
-4.44056
-4.29482
-4.12207
-3.90528
-3.61344
-3.24406
-3.36971
-4.84064
-4.825
-4.79383
-4.74734
-4.68574
-4.60914
-4.51734
-4.40941
-4.28302
-4.13314
-3.94978
-3.71328
-3.38181
-2.83316
-1.4537
-4.67356
-4.65894
-4.62978
-4.58617
-4.5282
-4.45576
-4.36833
-4.26459
-4.14179
-3.99472
-3.8144
-3.58724
-3.30101
-2.99918
-3.17264
-4.51664
-4.503
-4.47576
-4.43499
-4.38073
-4.3128
-4.23065
-4.13303
-4.01743
-3.87941
-3.71157
-3.50224
-3.23107
-2.83511
-1.9218
-4.36922
-4.35651
-4.33114
-4.29321
-4.24276
-4.17972
-4.10374
-4.01396
-3.90866
-3.78481
-3.63757
-3.4602
-3.2478
-3.03029
-3.12664
-4.23063
-4.21882
-4.19528
-4.16013
-4.11354
-4.05564
-3.98643
-3.90569
-3.81278
-3.70646
-3.5845
-3.4425
-3.2681
-3.00747
-2.35832
-4.10026
-4.08929
-4.06747
-4.03501
-3.9922
-3.93943
-3.87715
-3.80588
-3.72623
-3.639
-3.54537
-3.44732
-3.34829
-3.25442
-3.17896
-3.97751
-3.96732
-3.94708
-3.91708
-3.87779
-3.82984
-3.77412
-3.7119
-3.64496
-3.57599
-3.50933
-3.45284
-3.42492
-3.48857
-3.94705
-3.86186
-3.85234
-3.83348
-3.80563
-3.7694
-3.72564
-3.67563
-3.62121
-3.56511
-3.5114
-3.46624
-3.43854
-3.43797
-3.44848
-3.21157
-3.75283
-3.74386
-3.72612
-3.70002
-3.66625
-3.62581
-3.58022
-3.53171
-3.4836
-3.44089
-3.41105
-3.40541
-3.44333
-3.58019
-4.13321
-3.65004
-3.64148
-3.62458
-3.59976
-3.56773
-3.52956
-3.48685
-3.44194
-3.39837
-3.36144
-3.33905
-3.34206
-3.37999
-3.42288
-3.1248
-3.5532
-3.54492
-3.52855
-3.50452
-3.47349
-3.43649
-3.39501
-3.35126
-3.30854
-3.27192
-3.24943
-3.25449
-3.31321
-3.50232
-4.22319
-3.46212
-3.45398
-3.43787
-3.41415
-3.38342
-3.34654
-3.30477
-3.25987
-3.21449
-3.17261
-3.14069
-3.12965
-3.15591
-3.21246
-2.94029
-3.37672
-3.36859
-3.35247
-3.32867
-3.29763
-3.26001
-3.2167
-3.16884
-3.11801
-3.06639
-3.01748
-2.97893
-2.97759
-3.15085
-4.34995
-3.29697
-3.28875
-3.27243
-3.24821
-3.21642
-3.17746
-3.13179
-3.07989
-3.0221
-2.95831
-2.88708
-2.80238
-2.67804
-2.37681
-1.05754
-3.22294
-3.21456
-3.19788
-3.17304
-3.14021
-3.09957
-3.05123
-2.99505
-2.93037
-2.85541
-2.76604
-2.65336
-2.50135
-2.30972
-2.38345
-3.15474
-3.14615
-3.12902
-3.10342
-3.06942
-3.02705
-2.97612
-2.91612
-2.8458
-2.76254
-2.66121
-2.53168
-2.35219
-2.05833
-1.32456
-3.09252
-3.08369
-3.06605
-3.03964
-3.00447
-2.96047
-2.90734
-2.84438
-2.77021
-2.68223
-2.57597
-2.4447
-2.28246
-2.1124
-2.19183
-3.03644
-3.02735
-3.00918
-2.98195
-2.94568
-2.90025
-2.84538
-2.78044
-2.70423
-2.61462
-2.50813
-2.37924
-2.21818
-1.99317
-1.50129
-2.9867
-2.97733
-2.9586
-2.93057
-2.89325
-2.84659
-2.79043
-2.72435
-2.64757
-2.55876
-2.45584
-2.33613
-2.19831
-2.05925
-2.08185
-2.94347
-2.93381
-2.91451
-2.88565
-2.84731
-2.79955
-2.74237
-2.6757
-2.59928
-2.51269
-2.41524
-2.30561
-2.17933
-2.01303
-1.66379
-2.90697
-2.89699
-2.87707
-2.84733
-2.80793
-2.75905
-2.70093
-2.63382
-2.55806
-2.47418
-2.38312
-2.28665
-2.18815
-2.09382
-2.01726
-2.87742
-2.86707
-2.84646
-2.81573
-2.77514
-2.725
-2.66574
-2.59796
-2.5225
-2.44068
-2.35476
-2.26913
-2.19408
-2.16224
-2.31743
-2.85507
-2.8443
-2.82288
-2.791
-2.74898
-2.69728
-2.63648
-2.56745
-2.49137
-2.41003
-2.3262
-2.24427
-2.17004
-2.10074
-1.93585
-2.8402
-2.82895
-2.80657
-2.77332
-2.72957
-2.67587
-2.61296
-2.54185
-2.46391
-2.38111
-2.29634
-2.21408
-2.14257
-2.1056
-2.22903
-2.83315
-2.82133
-2.79784
-2.76294
-2.71709
-2.66088
-2.59515
-2.52099
-2.43983
-2.35359
-2.26475
-2.17645
-2.09111
-1.99906
-1.79222
-2.83431
-2.82183
-2.79702
-2.76019
-2.71179
-2.65251
-2.5832
-2.505
-2.41931
-2.32787
-2.2328
-2.13677
-2.04434
-1.97221
-2.02723
-2.84415
-2.83091
-2.80457
-2.76546
-2.71408
-2.65111
-2.57744
-2.49422
-2.40278
-2.30468
-2.20152
-2.09461
-1.98348
-1.85702
-1.6296
-2.86321
-2.84908
-2.821
-2.77928
-2.72442
-2.65714
-2.57834
-2.48915
-2.3909
-2.28502
-2.17286
-2.05538
-1.93327
-1.81194
-1.74467
-2.89207
-2.87697
-2.84691
-2.80222
-2.74341
-2.67118
-2.58645
-2.49038
-2.38432
-2.26972
-2.1479
-2.01938
-1.88253
-1.72928
-1.52709
-2.93144
-2.91524
-2.88298
-2.83498
-2.77173
-2.69391
-2.60246
-2.49856
-2.38367
-2.25946
-2.1276
-1.98919
-1.84318
-1.68058
-1.45483
-2.98208
-2.96467
-2.93
-2.87834
-2.81016
-2.72612
-2.62712
-2.51438
-2.38951
-2.25452
-2.11185
-1.96428
-1.81536
-1.67571
-1.61697
-3.0448
-3.0261
-2.98881
-2.93319
-2.85962
-2.76872
-2.66133
-2.53865
-2.40238
-2.25491
-2.09951
-1.94033
-1.78111
-1.61464
-1.34697
-3.12053
-3.10045
-3.06037
-3.00049
-2.92114
-2.82278
-2.70616
-2.57235
-2.42304
-2.26082
-2.08979
-1.91642
-1.75189
-1.62382
-1.66262
-3.21021
-3.18868
-3.14568
-3.08134
-2.99585
-2.88954
-2.76293
-2.61683
-2.45266
-2.27287
-2.08171
-1.88638
-1.69737
-1.51709
-1.23353
-3.31485
-3.29184
-3.24583
-3.17687
-3.08503
-2.97042
-2.83323
-2.67386
-2.49314
-2.29281
-2.07652
-1.85195
-1.63679
-1.48206
-1.59078
-3.43548
-3.41097
-3.36192
-3.2883
-3.19003
-3.06698
-2.91895
-2.74573
-2.54724
-2.32385
-2.07709
-1.811
-1.53426
-1.26407
-1.04014
-3.57314
-3.54714
-3.49508
-3.41685
-3.31224
-3.18089
-3.02216
-2.83516
-2.61865
-2.37111
-2.09109
-1.77745
-1.42718
-1.01394
-0.333908
-3.72888
-3.70141
-3.64641
-3.56373
-3.45305
-3.3138
-3.14502
-2.9451
-2.71159
-2.44093
-2.12846
-1.76933
-1.36383
-0.949075
-0.82271
-3.90369
-3.87481
-3.81698
-3.73006
-3.61369
-3.46724
-3.2895
-3.07837
-2.83035
-2.5398
-2.19822
-1.79343
-1.30692
-0.683919
0.443649
-4.09856
-4.06831
-4.00777
-3.91683
-3.79524
-3.64241
-3.45717
-3.23728
-2.97864
-2.67412
-2.31188
-1.87429
-1.34481
-0.76914
-0.68794
-4.31445
-4.28285
-4.21966
-4.1249
-3.99849
-3.8401
-3.64891
-3.42309
-3.1588
-2.84854
-2.47786
-2.01896
-1.41478
-0.510967
1.41796
-4.55228
-4.51932
-4.4535
-4.35497
-4.22394
-4.06056
-3.86472
-3.63561
-3.37089
-3.06493
-2.7051
-2.26452
-1.69283
-0.964666
-0.779035
-4.81301
-4.77863
-4.71004
-4.6076
-4.47186
-4.30357
-4.10362
-3.87286
-3.61164
-3.31872
-2.98844
-2.60112
-2.07956
-1.04159
2.79542
-5.09762
-5.0617
-4.9901
-4.88336
-4.74239
-4.56858
-4.36394
-4.13128
-3.8744
-3.59845
-3.31139
-3.03096
-2.82491
-3.06229
-6.08854
-5.40719
-5.36955
-5.29457
-5.18291
-5.03574
-4.85499
-4.64371
-4.40652
-4.1504
-3.88592
-3.62974
-3.40915
-3.26232
-3.14626
-1.95097
-5.74289
-5.70334
-5.62452
-5.50711
-5.3524
-5.16261
-4.94147
-4.69492
-4.4322
-4.16761
-3.92339
-3.73613
-3.67835
-3.97969
-5.91384
-6.10606
-6.0644
-5.98127
-5.85723
-5.69342
-5.49202
-5.2569
-4.99454
-4.71531
-4.43517
-4.17749
-3.97318
-3.845
-3.67921
-2.28929
-6.49818
-6.45425
-6.36644
-6.23497
-6.06054
-5.84484
-5.59124
-5.30587
-4.99907
-4.68713
-4.39452
-4.15738
-4.03777
-4.22882
-5.88985
-6.9208
-6.87458
-6.78192
-6.64254
-6.45634
-6.22399
-5.94764
-5.6321
-5.28639
-4.92566
-4.57303
-4.25996
-4.01481
-3.7576
-2.4535
-7.37553
-7.32716
-7.22986
-7.08261
-6.8842
-6.6337
-6.33125
-5.97927
-5.58416
-5.15858
-4.72408
-4.31537
-4.00022
-4.01337
-5.61805
-7.86384
-7.81373
-7.7125
-7.55822
-7.34823
-7.07949
-6.74927
-6.35639
-5.90308
-5.39769
-4.85722
-4.30581
-3.75765
-3.16391
-2.39038
-8.38696
-8.3358
-8.23197
-8.07253
-7.85307
-7.56797
-7.21082
-6.77548
-6.25818
-5.66117
-4.99795
-4.294
-3.54673
-2.43931
1.3745
-8.94562
-8.89443
-8.79008
-8.62851
-8.40349
-8.10648
-7.72666
-7.2515
-6.66862
-5.97064
-5.16696
-4.31227
-3.58591
-3.59413
-6.95662
-9.53982
-9.49
-9.38792
-9.22856
-9.00391
-8.7025
-8.30871
-7.80233
-7.159
-6.3535
-5.3714
-4.24142
-3.11498
-2.41958
-2.87827
-10.1686
-10.1218
-10.0255
-9.87395
-9.65765
-9.36267
-8.96894
-8.44828
-7.76199
-6.85901
-5.67855
-4.16812
-2.34473
-0.44357
0.881559
-10.8299
-10.7881
-10.7016
-10.5643
-10.366
-10.0914
-9.71731
-9.20925
-8.51545
-7.55723
-6.21482
-4.31217
-1.62847
1.93246
5.56164
-11.5203
-11.4854
-11.4129
-11.2969
-11.1275
-10.8893
-10.5587
-10.0992
-9.45255
-8.52223
-7.14017
-4.99861
-1.5214
4.26111
12.762
-12.2348
-12.2088
-12.1544
-12.0666
-11.9367
-11.7513
-11.4897
-11.1191
-10.5866
-9.80096
-8.59293
-6.6126
-3.01523
4.70199
25.8658
-146.58
-88.0716
-61.563
-48.8966
-42.1126
-38.0615
-35.43
-33.6162
-32.3163
-31.364
-30.6621
-30.1511
-29.7936
-29.5666
-29.4562
-182.353
-82.4101
-54.6828
-43.9936
-38.632
-35.4474
-33.3522
-31.8845
-30.8167
-30.0244
-29.4345
-29.0017
-28.6972
-28.5031
-28.4085
47.0356
-26.5988
-35.9705
-35.3911
-33.6394
-32.0768
-30.8386
-29.875
-29.1257
-28.5444
-28.0979
-27.7632
-27.5243
-27.3704
-27.2951
-7.00679
-15.4145
-24.1688
-27.6027
-28.5155
-28.4809
-28.1343
-27.7167
-27.3182
-26.9706
-26.6836
-26.4582
-26.2922
-26.1833
-26.1293
25.9939
-3.98952
-16.0617
-21.5649
-24.0494
-25.1018
-25.4793
-25.5453
-25.4752
-25.3548
-25.2267
-25.1118
-25.0206
-24.9579
-24.9262
-1.38785
-5.00288
-12.5165
-17.6236
-20.5779
-22.1913
-23.0407
-23.4683
-23.667
-23.7444
-23.7605
-23.7491
-23.7291
-23.7111
-23.7009
11.5264
-3.30886
-10.6426
-15.1771
-18.0375
-19.8115
-20.895
-21.5502
-21.9432
-22.1766
-22.3135
-22.3922
-22.4361
-22.459
-22.4686
-3.04259
-6.82424
-10.7125
-13.8933
-16.2516
-17.911
-19.0469
-19.8143
-20.33
-20.6759
-20.9069
-21.0597
-21.1577
-21.216
-21.2431
-14.9854
-10.2656
-11.2737
-13.1807
-14.9511
-16.374
-17.4546
-18.2532