/*--------------------------------*- C++ -*----------------------------------*\
| =========                 |                                                 |
| \\      /  F ield         | OpenFOAM: The Open Source CFD Toolbox           |
|  \\    /   O peration     | Version:  5.x                                   |
|   \\  /    A nd           | Web:      www.OpenFOAM.org                      |
|    \\/     M anipulation  |                                                 |
\*---------------------------------------------------------------------------*/
FoamFile
{
    version     2.0;
    format      ascii;
    class       volScalarField;
    location    "18.9";
    object      gradTx;
}
// * * * * * * * * * * * * * * * * * * * * * * * * * * * * * * * * * * * * * //

dimensions      [0 -1 0 1 0 0 0];

internalField   nonuniform List<scalar> 
2048
(
0.00630489
0.0187342
0.0306385
0.0417198
0.0517494
0.0605778
0.0681347
0.0744179
0.0794771
0.0833951
0.0862717
0.0882112
0.0893156
0.0896818
0.0894021
0.0885657
0.0872594
0.0855669
0.0835658
0.0813247
0.0788993
0.0763304
0.0736428
0.0708466
0.0679395
0.0649096
0.0617371
0.0583966
0.0548571
0.0510828
0.0470335
0.0426655
0.0379336
0.0327932
0.0272026
0.021124
0.0145252
0.00738016
-0.000330855
-0.00861947
-0.0174872
-0.0269219
-0.0368919
-0.0473401
-0.0581748
-0.0692612
-0.0804122
-0.0913807
-0.101855
-0.111464
-0.119782
-0.126359
-0.130753
-0.13257
-0.131512
-0.127416
-0.120277
-0.110248
-0.0976155
-0.0827651
-0.0661296
-0.0481503
-0.0292469
-0.00980739
0.0187883
0.0558176
0.091256
0.124205
0.153978
0.180136
0.202478
0.221012
0.235899
0.247399
0.255817
0.261467
0.264651
0.265658
0.264757
0.262212
0.258282
0.253214
0.247241
0.24057
0.233366
0.225751
0.217797
0.209533
0.200949
0.192008
0.18265
0.1728
0.162366
0.151242
0.139307
0.126431
0.112479
0.0973179
0.0808215
0.0628782
0.0433923
0.0222857
-0.000500412
-0.0250025
-0.0512281
-0.0791453
-0.108667
-0.13963
-0.171772
-0.204701
-0.237871
-0.270554
-0.301829
-0.330583
-0.355546
-0.375358
-0.388673
-0.394289
-0.391296
-0.379193
-0.357962
-0.328074
-0.290412
-0.246152
-0.196608
-0.143109
-0.0869051
-0.0291382
0.0311398
0.0924825
0.151106
0.205485
0.254472
0.297351
0.333826
0.363953
0.388043
0.406563
0.420042
0.429009
0.433967
0.43538
0.433686
0.429314
0.422685
0.414213
0.404287
0.393253
0.381389
0.368894
0.355883
0.342396
0.328412
0.313862
0.298648
0.282642
0.265696
0.247634
0.228257
0.207348
0.18468
0.16003
0.13319
0.103973
0.0722226
0.0378095
0.000635149
-0.0393655
-0.082214
-0.127871
-0.176213
-0.226993
-0.279805
-0.334036
-0.388811
-0.442957
-0.494963
-0.542986
-0.584896
-0.618383
-0.641135
-0.651075
-0.64661
-0.626862
-0.591801
-0.542253
-0.479769
-0.406389
-0.324373
-0.235961
-0.143224
-0.0480091
0.0435994
0.129425
0.211273
0.286939
0.354795
0.413871
0.463821
0.504817
0.537386
0.562252
0.580204
0.591999
0.59833
0.599828
0.59708
0.590668
0.581173
0.569177
0.555233
0.539833
0.523375
0.506133
0.488258
0.469793
0.450691
0.430848
0.41012
0.388331
0.365278
0.340719
0.314376
0.285941
0.255093
0.221514
0.18491
0.145023
0.101633
0.054564
0.00367556
-0.0511309
-0.109902
-0.17261
-0.239118
-0.309129
-0.382133
-0.457337
-0.533586
-0.609299
-0.682405
-0.75033
-0.810042
-0.858203
-0.891418
-0.906593
-0.901329
-0.874291
-0.825433
-0.756013
-0.668381
-0.565592
-0.450973
-0.327745
-0.198793
-0.0666106
0.0563827
0.167268
0.27272
0.36977
0.456284
0.531066
0.593796
0.644851
0.685068
0.715507
0.737256
0.751316
0.758563
0.759768
0.755648
0.746916
0.734313
0.718595
0.700497
0.680674
0.659647
0.63777
0.615219
0.592021
0.568092
0.543278
0.517387
0.490198
0.461458
0.430861
0.398051
0.362624
0.324154
0.282223
0.236446
0.186491
0.132085
0.073001
0.00906068
-0.0598744
-0.13389
-0.21299
-0.297056
-0.38578
-0.478596
-0.574583
-0.672369
-0.770015
-0.864927
-0.953799
-1.03265
-1.09699
-1.14217
-1.16386
-1.15868
-1.1247
-1.06185
-0.971944
-0.85833
-0.725315
-0.577482
-0.419134
-0.253974
-0.085056
0.0696946
0.206598
0.336341
0.455072
0.56012
0.650107
0.724838
0.785029
0.831949
0.867086
0.891887
0.907607
0.915284
0.915795
0.909947
0.89857
0.882557
0.862856
0.840406
0.816051
0.790452
0.764039
0.737001
0.709327
0.68087
0.651413
0.620712
0.588508
0.554504
0.518341
0.47958
0.437712
0.392196
0.342499
0.288143
0.228721
0.163908
0.09344
0.0170987
-0.0652978
-0.153887
-0.248733
-0.349765
-0.456713
-0.569005
-0.685663
-0.805162
-0.925285
-1.04296
-1.15417
-1.25391
-1.33641
-1.39553
-1.42543
-1.42143
-1.38086
-1.30358
-1.19214
-1.05119
-0.886624
-0.704541
-0.510466
-0.308917
-0.103385
0.0837392
0.247996
0.403002
0.54388
0.66738
0.77201
0.857841
0.926095
0.978637
1.0175
1.04456
1.06132
1.06894
1.06836
1.06042
1.04604
1.02627
1.00226
0.975206
0.946166
0.915968
0.885118
0.853794
0.821917
0.789245
0.755477
0.720315
0.68347
0.644623
0.603369
0.559185
0.511446
0.459472
0.402604
0.340257
0.271955
0.19733
0.116091
0.027987
-0.067209
-0.169702
-0.27964
-0.397042
-0.521717
-0.653152
-0.790381
-0.931819
-1.07506
-1.21663
-1.35183
-1.47461
-1.57773
-1.65327
-1.69348
-1.69204
-1.64522
-1.55282
-1.41832
-1.24811
-1.05014
-0.832386
-0.601756
-0.363564
-0.121567
0.0987282
0.292057
0.473581
0.63721
0.779077
0.897674
0.993529
1.06859
1.12552
1.16706
1.19553
1.21272
1.21985
1.21781
1.20744
1.18968
1.16574
1.13705
1.10507
1.07115
1.03631
1.00113
0.965748
0.929968
0.89341
0.855664
0.816375
0.775247
0.731965
0.686095
0.637029
0.584002
0.526173
0.462729
0.39297
0.316356
0.232489
0.141069
0.0418286
-0.0655078
-0.181226
-0.305585
-0.438733
-0.580608
-0.730816
-0.888484
-1.05207
-1.21908
-1.38579
-1.54686
-1.69517
-1.82184
-1.91681
-1.96997
-1.97276
-1.92006
-1.81151
-1.65187
-1.44985
-1.21608
-0.960866
-0.692711
-0.417661
-0.139505
0.114887
0.339414
0.548988
0.736083
0.89618
1.0279
1.13248
1.21288
1.2728
1.31584
1.3449
1.36195
1.36821
1.36442
1.35129
1.32976
1.30123
1.26739
1.23011
1.19108
1.15154
1.11216
1.07298
1.03364
0.993546
0.952153
0.909048
0.863963
0.816631
0.766617
0.713219
0.655507
0.592439
0.523016
0.44641
0.362021
0.26945
0.168414
0.0586444
-0.0601746
-0.188426
-0.326509
-0.474742
-0.63324
-0.801784
-0.979681
-1.16554
-1.35695
-1.55004
-1.73901
-1.91565
-2.0693
-2.18733
-2.25663
-2.26575
-2.20757
-2.08149
-1.89394
-1.65681
-1.38424
-1.08945
-0.782738
-0.470765
-0.157037
0.132463
0.390746
0.630189
0.84155
1.01964
1.16341
1.27513
1.35913
1.42046
1.46378
1.49259
1.50903
1.51414
1.50839
1.49224
1.46656
1.43292
1.39343
1.3504
1.30596
1.26167
1.21825
1.1756
1.13307
1.08983
1.04511
0.998469
0.949707
0.898679
0.844984
0.787822
0.726051
0.658376
0.583571
0.500658
0.408996
0.308218
0.198093
0.0783837
-0.0512609
-0.191334
-0.342413
-0.505026
-0.679506
-0.865867
-1.06367
-1.2718
-1.4881
-1.70878
-1.92774
-2.13579
-2.32033
-2.46573
-2.55509
-2.57314
-2.50998
-2.36452
-2.14548
-1.86905
-1.55402
-1.21724
-0.870954
-0.522258
-0.173941
0.151726
0.446802
0.718223
0.954709
1.15039
1.30484
1.4218
1.50737
1.56833
1.61061
1.6384
1.65386
1.6577
1.64992
1.63054
1.60032
1.56103
1.51526
1.46594
1.41577
1.36667
1.31941
1.27368
1.22843
1.18245
1.13472
1.08476
1.03254
0.978124
0.921206
0.860867
0.795691
0.724065
0.644474
0.555769
0.457288
0.348746
0.230018
0.100933
-0.0388809
-0.190047
-0.353357
-0.529596
-0.719355
-0.922916
-1.14017
-1.3704
-1.61189
-1.86121
-2.11224
-2.35501
-2.57485
-2.75267
-2.86687
-2.89712
-2.82961
-2.66237
-2.40725
-2.08629
-1.72443
-1.34295
-0.956205
-0.571358
-0.189944
0.172982
0.508405
0.814223
1.07672
1.28937
1.45277
1.57266
1.65745
1.71604
1.75593
1.78199
1.79629
1.79893
1.78918
1.76647
1.73131
1.68572
1.63296
1.57672
1.52042
1.46645
1.41564
1.3673
1.31987
1.2716
1.22117
1.16805
1.11249
1.05494
0.995251
0.932351
0.864467
0.789574
0.705796
0.611776
0.506868
0.390945
0.264049
0.126123
-0.0232043
-0.184708
-0.359451
-0.548521
-0.752793
-0.972841
-1.20893
-1.46088
-1.72762
-2.0064
-2.29147
-2.57239
-2.83246
-3.04859
-3.19341
-3.23998
-3.16899
-2.97692
-2.67984
-2.30786
-1.89402
-1.46495
-1.03708
-0.61715
-0.204733
0.196567
0.576471
0.919421
1.20881
1.43751
1.60768
1.72778
1.80908
1.86308
1.89917
1.92294
1.9361
1.9378
1.92635
1.90031
1.85978
1.80718
1.7466
1.68268
1.61977
1.56089
1.50689
1.45656
1.40756
1.35752
1.30467
1.24844
1.18956
1.12906
1.06705
1.00225
0.932402
0.854966
0.767601
0.668698
0.557686
0.43469
0.300001
0.153737
-0.00444869
-0.17551
-0.360849
-0.561917
-0.779891
-1.01562
-1.26978
-1.54283
-1.83457
-2.14329
-2.46415
-2.78671
-3.09239
-3.35361
-3.53605
-3.60421
-3.53097
-3.3102
-2.96366
-2.53269
-2.06089
-1.58124
-1.11198
-0.658616
-0.217961
0.222862
0.65201
1.03517
1.35228
1.59572
1.76998
1.8871
1.96179
2.00875
2.03963
2.06074
2.07302
2.07433
2.06165
2.03239
1.98605
1.92559
1.85621
1.78371
1.71364
1.64982
1.59311
1.54153
1.49172
1.44048
1.38548
1.32607
1.26371
1.20036
1.1365
1.07052
0.999511
0.920304
0.829966
0.726555
0.609669
0.479828
0.337654
0.183513
0.017127
-0.162678
-0.357737
-0.569947
-0.800784
-1.05132
-1.32262
-1.6159
-1.93205
-2.27076
-2.62879
-2.99644
-3.35352
-3.66757
-3.89602
-3.9925
-3.91884
-3.66446
-3.25895
-2.75923
-2.22269
-1.6895
-1.17909
-0.694675
-0.229273
0.252295
0.736139
1.16293
1.50853
1.76489
1.93997
2.05041
2.11499
2.1522
2.17648
2.19478
2.20681
2.2085
2.19533
2.16311
2.11046
2.04113
1.96183
1.8797
1.80178
1.73302
1.67424
1.62233
1.57256
1.52079
1.46388
1.40107
1.33489
1.26868
1.20346
1.1371
1.06581
0.985662
0.892982
0.785365
0.662728
0.526181
0.376753
0.215151
0.0412285
-0.146464
-0.350327
-0.57281
-0.815668
-1.08009
-1.36747
-1.67987
-2.01943
-2.38765
-2.78374
-3.19972
-3.61436
-3.98994
-4.27438
-4.40781
-4.33647
-4.04232
-3.56569
-2.98538
-2.37656
-1.78714
-1.23656
-0.72424
-0.238317
0.285347
0.830082
1.3043
1.67905
1.94589
2.1178
2.21743
2.26797
2.29245
2.30876
2.32446
2.33718
2.34032
2.32767
2.29295
2.23336
2.15398
2.0635
1.9705
1.8839
1.81023
1.7502
1.69908
1.65035
1.5988
1.54026
1.47358
1.40295
1.33378
1.26776
1.20194
1.13129
1.05112
0.956774
0.845154
0.716754
0.573551
0.41702
0.248319
0.0675311
-0.127136
-0.338839
-0.57073
-0.824803
-1.10217
-1.40444
-1.73461
-2.09621
-2.49284
-2.92722
-3.39443
-3.87303
-4.31977
-4.67189
-4.85338
-4.78853
-4.4468
-3.88354
-3.20839
-2.5191
-1.87131
-1.28246
-0.746271
-0.244769
0.322567
0.935164
1.46101
1.86545
2.13949
2.3035
2.38776
2.41989
2.42832
2.43539
2.4491
2.46393
2.46979
2.45899
2.42248
2.35517
2.26429
2.16128
2.05594
1.95964
1.88111
1.82092
1.77197
1.72533
1.67492
1.61505
1.54378
1.46772
1.39534
1.3292
1.26498
1.19597
1.11679
1.02151
0.905956
0.771618
0.62173
0.458157
0.282649
0.0956835
-0.10497
-0.323489
-0.563944
-0.828501
-1.1179
-1.43376
-1.78017
-2.16206
-2.58527
-3.05732
-3.57816
-4.12727
-4.65563
-5.08892
-5.33272
-5.2807
-4.88149
-4.21168
-3.42469
-2.64644
-1.93907
-1.31496
-0.759837
-0.248353
0.364594
1.05281
1.63486
2.06949
2.34639
2.49683
2.56095
2.56986
2.55852
2.55517
2.56807
2.5869
2.59689
2.58965
2.55244
2.47632
2.37217
2.25524
2.13586
2.02856
1.94526
1.88631
1.84121
1.79779
1.74957
1.68883
1.61185
1.52893
1.45299
1.38757
1.32622
1.25983
1.18277
1.08742
0.967812
0.827156
0.670508
0.499854
0.317742
0.12531
-0.0802426
-0.304473
-0.55269
-0.827125
-1.12772
-1.45576
-1.81672
-2.21686
-2.664
-3.17209
-3.74827
-4.3745
-4.9956
-5.52519
-5.8496
-5.82
-5.35068
-4.54863
-3.62981
-2.7542
-1.98739
-1.33241
-0.764181
-0.248857
0.412192
1.1845
1.82777
2.29312
2.56711
2.69733
2.73654
2.71694
2.68157
2.66677
2.68076
2.7061
2.72155
2.72002
2.68376
2.59724
2.47764
2.34553
2.21011
2.09012
2.0022
1.94635
1.90711
1.86795
1.82323
1.76232
1.67801
1.5862
1.5062
1.44266
1.38569
1.32284
1.24917
1.15484
1.03077
0.883157
0.719685
0.541798
0.353166
0.156013
-0.05322
-0.281952
-0.537189
-0.821079
-1.13214
-1.47085
-1.84459
-2.26076
-2.72826
-3.26953
-3.90188
-4.61185
-5.33725
-5.97948
-6.40789
-6.41522
-5.85952
-4.89197
-3.81815
-2.83756
-2.01339
-1.3334
-0.758769
-0.246155
0.466321
1.33177
2.04166
2.53862
2.80195
2.9041
2.91418
2.86019
2.79585
2.76873
2.78666
2.82172
2.84356
2.85042
2.81765
2.71834
2.58057
2.43243
2.27855
2.14368
2.05136
2.00102
1.97013
1.93596
1.89634
1.83646
1.74252
1.63901
1.55437
1.49426
1.44353
1.38487
1.31608
1.22422
1.09486
0.93933
0.769093
0.583684
0.388449
0.187369
-0.024156
-0.256035
-0.517628
-0.810806
-1.13179
-1.47949
-1.86422
-2.29425
-2.77752
-3.34764
-4.03595
-4.83626
-5.67772
-6.44925
-7.0114
-7.07752
-6.4142
-5.23787
-3.98283
-2.89142
-2.0144
-1.31693
-0.743339
-0.240214
0.528243
1.49612
2.2784
2.8087
3.05089
3.11576
3.09374
2.99874
2.8995
2.85943
2.88532
2.93429
2.9625
2.98112
2.95574
2.83996
2.68057
2.51639
2.34113
2.18848
2.09201
2.05036
2.03088
2.00181
1.96931
1.91252
1.80564
1.68666
1.59673
1.54217
1.50005
1.44572
1.38355
1.29624
1.16011
0.995269
0.818635
0.625224
0.423073
0.218932
0.00671344
-0.226759
-0.494147
-0.796777
-1.12742
-1.48214
-1.87614
-2.31822
-2.8115
-3.40446
-4.14721
-5.04463
-6.01386
-6.93014
-7.66351
-7.82114
-7.0222
-5.58054
-4.11557
-2.9105
-1.98823
-1.28244
-0.717929
-0.2311
0.59971
1.67894
2.53963
3.10681
3.31346
3.33017
3.27554
3.13182
2.99044
2.93703
2.97649
3.04481
3.07757
3.11219
3.10029
2.96229
2.77686
2.59821
2.39785
2.22354
2.12331
2.09447
2.09031
2.06527
2.04244
1.99216
1.86768
1.72821
1.63233
1.58628
1.55578
1.505
1.45154
1.37186
1.22647
1.05039
0.86833
0.666155
0.456457
0.250231
0.0391706
-0.194076
-0.466821
-0.779489
-1.11992
-1.47926
-1.88089
-2.33407
-2.83021
-3.43808
-4.23223
-5.23397
-6.34263
-7.41529
-8.3667
-8.66451
-7.69247
-5.91145
-4.20656
-2.88965
-1.93326
-1.22993
-0.682889
-0.21898
0.683249
1.8814
2.82654
3.43748
3.58856
3.54422
3.46066
3.25878
3.06628
2.9995
3.06001
3.15499
3.18737
3.2434
3.25446
3.08526
2.86808
2.67919
2.44879
2.2477
2.14422
2.13354
2.14977
2.12567
2.11585
2.0777
1.9289
1.76243
1.66009
1.62649
1.61165
1.56203
1.51988
1.45248
1.29381
1.10386
0.918395
0.706248
0.487942
0.280772
0.0730124
-0.15783
-0.435644
-0.759447
-1.11035
-1.47114
-1.87891
-2.3438
-2.83397
-3.44669
-4.28728
-5.4015
-6.66156
-7.89456
-9.12179
-9.63156
-8.43572
-6.21825
-4.24453
-2.82412
-1.8487
-1.15996
-0.63887
-0.20411
0.782599
2.10427
3.13954
3.80684
3.87422
3.75344
3.65136
3.3791
3.12427
3.04452
3.1359
3.26759
3.28964
3.37408
3.42272
3.2084
2.95203
2.76143
2.49411
2.25953
2.15349
2.1678
2.21131
2.18178
2.18931
2.17229
1.98947
1.78773
1.67868
1.66279
1.66909
1.61571
1.58815
1.54014
1.36183
1.15447
0.969356
0.7453
0.516762
0.310044
0.108042
-0.117739
-0.400513
-0.737149
-1.10005
-1.45796
-1.87042
-2.35018
-2.8234
-3.42856
-4.30828
-5.54485
-6.96968
-8.35352
-9.92681
-10.7535
-9.26459
-6.48346
-4.21685
-2.71001
-1.73468
-1.07367
-0.586793
-0.186821
0.903352
2.34766
3.47776
4.22349
4.16729
3.95154
3.85171
3.49232
3.16121
3.06948
3.20422
3.38686
3.38084
3.50282
3.61144
3.33061
3.02536
2.84819
2.53399
2.25725
2.14963
2.19747
2.27788
2.23152
2.26216
2.28026
2.04938
1.80213
1.68661
1.69515
1.73035
1.66432
1.65559
1.63773
1.42993
1.20051
1.02221
0.78312
0.542015
0.337536
0.144053
-0.073377
-0.361225
-0.713048
-1.09074
-1.43958
-1.85518
-2.35697
-2.79934
-3.38221
-4.29063
-5.66202
-7.26866
-8.77239
-10.7756
-12.0713
-10.1938
-6.68267
-4.11005
-2.5447
-1.59242
-0.972732
-0.527806
-0.167504
1.05386
2.61079
3.83835
4.69945
4.46296
4.12977
4.06839
3.59786
3.17339
3.07146
3.26491
3.51915
3.45568
3.62722
3.82954
3.44982
3.0831
2.9444
2.5685
2.23871
2.13091
2.2227
2.35381
2.27164
2.33302
2.40758
2.10825
1.80315
1.6822
1.72352
1.79872
1.70527
1.72097
1.74942
1.49715
1.2396
1.07862
0.819482
0.562624
0.362763
0.180803
-0.024149
-0.31747
-0.6875
-1.08462
-1.41555
-1.83228
-2.36921
-2.76275
-3.30641
-4.22899
-5.75132
-7.56451
-9.12465
-11.6556
-13.6381
-11.2404
-6.78242
-3.91053
-2.32734
-1.42423
-0.859315
-0.463217
-0.146586
1.24649
2.89154
4.21557
5.25163
4.75425
4.27617
4.31177
3.6947
3.15652
3.04723
3.31757
3.67375
3.50646
3.74346
4.08957
3.56266
3.11814
3.05737
2.59742
2.20136
2.09537
2.24336
2.44528
2.29732
2.39961
2.56237
2.16503
1.78784
1.66364
1.74766
1.87903
1.73479
1.78237
1.88105
1.5619
1.26844
1.14126
0.854055
0.577293
0.385302
0.217978
0.0307369
-0.268849
-0.660673
-1.08461
-1.38498
-1.79975
-2.3936
-2.71449
-3.20041
-4.11703
-5.81099
-7.8698
-9.37566
-12.5456
-15.5238
-12.4234
-6.73758
-3.60581
-2.05936
-1.23349
-0.735933
-0.394427
-0.12451
1.49925
3.18596
4.59958
5.90364
5.03125
4.37463
4.59727
3.78093
3.10571
2.99337
3.361
3.86391
3.52234
3.84579
4.4088
3.6639
3.12062
3.19767
2.6199
2.14219
2.04086
2.25876
2.56104
2.30164
2.4584
2.75565
2.21769
1.75273
1.62906
1.76692
1.97812
1.74752
1.83695
2.0407
1.62174
1.28257
1.21409
0.886276
0.584469
0.404861
0.255136
0.0923029
-0.214898
-0.632422
-1.0946
-1.34649
-1.75417
-2.43899
-2.65499
-3.06424
-3.94711
-5.83856
-8.20644
-9.48116
-13.4122
-17.8184
-13.7636
-6.4882
-3.18623
-1.74483
-1.02455
-0.60533
-0.322857
-0.101708
1.83793
3.48769
4.97489
6.68804
5.28017
4.40378
4.9471
3.85296
3.01551
2.90638
3.39253
4.10819
3.48836
3.92593
4.81077
3.7458
3.07713
3.38024
2.634
2.05779
1.96513
2.26726
2.71329
2.27502
2.50421
3.00221
2.26262
1.69393
1.57667
1.77993
2.10556
1.73606
1.8807
2.23941
1.67306
1.27608
1.30292
0.915169
0.582298
0.421353
0.291637
0.161847
-0.155151
-0.602104
-1.11969
-1.29817
-1.69009
-2.51705
-2.58382
-2.89901
-3.71005
-5.8297
-8.60917
-9.38565
-14.2058
-20.6382
-15.2833
-5.95597
-2.64745
-1.39075
-0.802487
-0.47033
-0.249883
-0.078593
2.29878
3.78721
5.31851
7.64914
5.48227
4.33567
5.39234
3.90448
2.88001
2.78295
3.40716
4.43208
3.38438
3.97232
5.32696
3.79732
2.96982
3.62576
2.63598
1.94438
1.86604
2.26568
2.91867
2.20445
2.52982
3.32163
2.29399
1.60716
1.50491
1.78411
2.27444
1.69035
1.90806
2.49197
1.71069
1.24122
1.41589
0.939095
0.568603
0.43501
0.326545
0.241002
-0.0892336
-0.568335
-1.16661
-1.23753
-1.59939
-2.6431
-2.49896
-2.70748
-3.39489
-5.77662
-9.12971
-9.02094
-14.8557
-24.1316
-17.0051
-5.0401
-1.99352
-1.00697
-0.572823
-0.333681
-0.176777
-0.0555348
2.9317
4.07099
5.59768
8.84624
5.61245
4.13433
5.97541
3.9251
2.6931
2.62034
3.39638
4.86995
3.18382
3.96927
5.99889
3.80315
2.77549
3.96228
2.61944
1.79801
1.74173
2.24851
3.19962
2.0727
2.52546
3.73953
2.30288
1.48802
1.41272
1.77507
2.50239
1.59711
1.9116
2.81788
1.72739
1.16807
1.56421
0.955412
0.540866
0.446515
0.358507
0.331819
-0.0169988
-0.528672
-1.24408
-1.16155
-1.47052
-2.83708
-2.39602
-2.49472
-2.98877
-5.66581
-9.8415
-8.30472
-15.2644
-28.4863
-18.9508
-3.61292
-1.24083
-0.605813
-0.341147
-0.197924
-0.104664
-0.0328558
3.804
4.32045
5.7673
10.3575
5.63768
3.75414
6.75297
3.89856
2.44883
2.41685
3.34664
5.4673
2.85232
3.89602
6.88029
3.74268
2.46445
4.42709
2.57412
1.61479
1.59105
2.207
3.5858
1.85744
2.47824
4.28895
2.27617
1.33225
1.29983
1.74582
2.8127
1.43903
1.88154
3.24241
1.71333
1.0441
1.76286
0.960047
0.496248
0.457156
0.385601
0.436869
0.0612792
-0.479223
-1.36326
-1.06675
-1.28748
-3.12477
-2.26707
-2.26892
-2.47699
-5.47512
-10.8451
-7.13949
-15.3013
-33.937
-21.1394
-1.51516
-0.422854
-0.201267
-0.112737
-0.0652798
-0.0344906
-0.0108235
)
;

boundaryField
{
    left
    {
        type            calculated;
        value           uniform 0;
    }
    right
    {
        type            calculated;
        value           uniform 0;
    }
    interface
    {
        type            calculated;
        value           nonuniform List<scalar> 
64
(
3.804
4.32045
5.7673
10.3575
5.63768
3.75414
6.75297
3.89856
2.44883
2.41685
3.34664
5.4673
2.85232
3.89602
6.88029
3.74268
2.46445
4.42709
2.57412
1.61479
1.59105
2.207
3.5858
1.85744
2.47824
4.28895
2.27617
1.33225
1.29983
1.74582
2.8127
1.43903
1.88154
3.24241
1.71333
1.0441
1.76286
0.960047
0.496248
0.457156
0.385601
0.436869
0.0612792
-0.479223
-1.36326
-1.06675
-1.28748
-3.12477
-2.26707
-2.26892
-2.47699
-5.47512
-10.8451
-7.13949
-15.3013
-33.937
-21.1394
-1.51516
-0.422854
-0.201267
-0.112737
-0.0652798
-0.0344906
-0.0108235
)
;
    }
    bottom
    {
        type            calculated;
        value           nonuniform List<scalar> 
64
(
0.00630489
0.0187342
0.0306385
0.0417198
0.0517494
0.0605778
0.0681347
0.0744179
0.0794771
0.0833951
0.0862717
0.0882112
0.0893156
0.0896818
0.0894021
0.0885657
0.0872594
0.0855669
0.0835658
0.0813247
0.0788993
0.0763304
0.0736428
0.0708466
0.0679395
0.0649096
0.0617371
0.0583966
0.0548571
0.0510828
0.0470335
0.0426655
0.0379336
0.0327932
0.0272026
0.021124
0.0145252
0.00738016
-0.000330855
-0.00861947
-0.0174872
-0.0269219
-0.0368919
-0.0473401
-0.0581748
-0.0692612
-0.0804122
-0.0913807
-0.101855
-0.111464
-0.119782
-0.126359
-0.130753
-0.13257
-0.131512
-0.127416
-0.120277
-0.110248
-0.0976155
-0.0827651
-0.0661296
-0.0481503
-0.0292469
-0.00980739
)
;
    }
    defaultFaces
    {
        type            empty;
    }
}


// ************************************************************************* //
