/*--------------------------------*- C++ -*----------------------------------*\
| =========                 |                                                 |
| \\      /  F ield         | OpenFOAM: The Open Source CFD Toolbox           |
|  \\    /   O peration     | Version:  5.x                                   |
|   \\  /    A nd           | Web:      www.OpenFOAM.org                      |
|    \\/     M anipulation  |                                                 |
\*---------------------------------------------------------------------------*/
FoamFile
{
    version     2.0;
    format      ascii;
    class       volScalarField;
    location    "18.9";
    object      T;
}
// * * * * * * * * * * * * * * * * * * * * * * * * * * * * * * * * * * * * * //

dimensions      [0 0 0 1 0 0 0];

internalField   nonuniform List<scalar> 
2048
(
9.81021
9.8104
9.81079
9.81136
9.8121
9.81298
9.81399
9.81511
9.81631
9.81759
9.81892
9.82029
9.82168
9.82308
9.82448
9.82587
9.82725
9.8286
9.82992
9.83121
9.83246
9.83368
9.83485
9.83598
9.83706
9.8381
9.83909
9.84003
9.84092
9.84174
9.84251
9.84321
9.84385
9.8444
9.84487
9.84525
9.84553
9.8457
9.84576
9.84569
9.84549
9.84515
9.84465
9.84399
9.84317
9.84218
9.84101
9.83966
9.83815
9.83648
9.83467
9.83274
9.83072
9.82865
9.82658
9.82454
9.82259
9.82078
9.81915
9.81773
9.81656
9.81567
9.81506
9.81475
9.43876
9.43935
9.4405
9.4422
9.44438
9.44701
9.45001
9.45334
9.45692
9.46071
9.46465
9.4687
9.47282
9.47697
9.48112
9.48525
9.48932
9.49332
9.49723
9.50104
9.50475
9.50834
9.5118
9.51514
9.51835
9.52142
9.52435
9.52713
9.52975
9.5322
9.53448
9.53656
9.53843
9.54007
9.54147
9.5426
9.54344
9.54395
9.54413
9.54394
9.54335
9.54234
9.54088
9.53894
9.53651
9.53357
9.53012
9.52614
9.52166
9.51671
9.51133
9.5056
9.4996
9.49345
9.48728
9.48122
9.47543
9.47004
9.46518
9.46096
9.45749
9.45482
9.45301
9.4521
9.08311
9.08408
9.086
9.08881
9.09242
9.09676
9.10171
9.10719
9.11309
9.11932
9.12579
9.13244
9.1392
9.146
9.15281
9.15956
9.16622
9.17277
9.17917
9.1854
9.19145
9.19732
9.20298
9.20844
9.21368
9.2187
9.22349
9.22804
9.23232
9.23634
9.24006
9.24347
9.24654
9.24924
9.25154
9.2534
9.25479
9.25566
9.25597
9.25568
9.25474
9.25311
9.25075
9.24761
9.24365
9.23886
9.23321
9.22671
9.21937
9.21124
9.2024
9.19297
9.18308
9.17293
9.16273
9.15272
9.14314
9.13423
9.1262
9.11924
9.1135
9.1091
9.10613
9.10462
8.74234
8.74371
8.74639
8.75031
8.75536
8.7614
8.76829
8.77589
8.78406
8.79268
8.80163
8.81081
8.82013
8.82951
8.83888
8.84817
8.85734
8.86633
8.87512
8.88368
8.89199
8.90004
8.90781
8.9153
8.92249
8.92938
8.93596
8.9422
8.94809
8.95361
8.95874
8.96344
8.96767
8.97141
8.9746
8.97719
8.97913
8.98036
8.98083
8.98048
8.97924
8.97704
8.97384
8.96957
8.96418
8.95763
8.94989
8.94096
8.93085
8.91963
8.9074
8.89432
8.88058
8.86646
8.85225
8.83829
8.82493
8.8125
8.8013
8.79161
8.78363
8.77752
8.77339
8.77131
8.41562
8.41738
8.42085
8.4259
8.4324
8.44016
8.449
8.45872
8.46915
8.48013
8.49151
8.50317
8.51499
8.52687
8.53873
8.55048
8.56207
8.57343
8.58453
8.59532
8.6058
8.61594
8.62573
8.63516
8.64423
8.65291
8.66121
8.66908
8.67652
8.6835
8.68999
8.69594
8.70132
8.70607
8.71014
8.71346
8.71597
8.71759
8.71825
8.71787
8.71638
8.71369
8.70972
8.70441
8.69767
8.68945
8.67971
8.66844
8.65565
8.64141
8.62584
8.60914
8.59156
8.57345
8.55519
8.53724
8.52004
8.50405
8.48967
8.47723
8.467
8.45918
8.45391
8.45125
8.10216
8.10434
8.10862
8.11485
8.12284
8.13235
8.14316
8.15501
8.16769
8.181
8.19478
8.20888
8.22315
8.23748
8.25177
8.26591
8.27985
8.29349
8.30681
8.31976
8.33231
8.34446
8.35619
8.36749
8.37835
8.38877
8.39871
8.40816
8.4171
8.42549
8.4333
8.44048
8.44698
8.45274
8.45768
8.46174
8.46483
8.46686
8.46775
8.4674
8.46571
8.46259
8.45794
8.45166
8.44366
8.43388
8.42224
8.40871
8.39332
8.37612
8.35725
8.33694
8.31549
8.29333
8.27095
8.24891
8.22779
8.20817
8.19054
8.17532
8.16283
8.1533
8.14688
8.14365
7.80126
7.80388
7.80901
7.81647
7.82601
7.83733
7.85014
7.86414
7.87908
7.89472
7.91087
7.92736
7.94404
7.96077
7.97742
7.99391
8.01011
8.02598
8.04143
8.05645
8.071
8.08508
8.09866
8.11176
8.12435
8.13642
8.14796
8.15893
8.16931
8.17907
8.18817
8.19655
8.20415
8.21091
8.21673
8.22154
8.22523
8.22771
8.22886
8.22858
8.22676
8.22328
8.21802
8.21087
8.20172
8.19046
8.17702
8.16134
8.14342
8.12332
8.10118
8.07724
8.05187
8.02557
7.99895
7.9727
7.94754
7.92417
7.90322
7.88517
7.8704
7.85916
7.85159
7.8478
7.51226
7.51534
7.52139
7.53014
7.5413
7.55449
7.56935
7.58554
7.60274
7.62071
7.63921
7.65807
7.67711
7.69619
7.71517
7.73392
7.75235
7.77035
7.78788
7.80489
7.82135
7.83727
7.85264
7.86745
7.8817
7.89537
7.90844
7.92088
7.93267
7.94376
7.95411
7.96366
7.97236
7.98011
7.98682
7.99239
7.9967
7.99965
8.00111
8.00096
7.99906
7.99529
7.98951
7.98158
7.97137
7.95875
7.9436
7.92587
7.90551
7.88256
7.85717
7.82959
7.80024
7.76969
7.73868
7.70804
7.67867
7.65143
7.62705
7.60612
7.58905
7.5761
7.5674
7.56304
7.23453
7.23812
7.24514
7.25527
7.26814
7.28328
7.30026
7.31867
7.33816
7.35845
7.37928
7.40047
7.42184
7.44323
7.46448
7.48546
7.50604
7.52612
7.54564
7.56456
7.58286
7.60055
7.61762
7.63408
7.64992
7.66513
7.67967
7.69353
7.70667
7.71905
7.73063
7.74134
7.75111
7.75986
7.76746
7.77381
7.77877
7.78223
7.78404
7.78406
7.78215
7.77817
7.77195
7.76334
7.75216
7.73828
7.72155
7.70186
7.67914
7.65342
7.6248
7.59355
7.56013
7.5252
7.48961
7.45439
7.42063
7.38935
7.36144
7.33757
7.31818
7.30353
7.29372
7.28882
6.96749
6.97163
6.9797
6.99133
7.006
7.02319
7.04236
7.06304
7.08483
7.10743
7.13057
7.15407
7.17773
7.20139
7.22487
7.24802
7.2707
7.2928
7.31424
7.335
7.35505
7.37443
7.39313
7.41116
7.42853
7.44522
7.46119
7.47642
7.49087
7.50451
7.51728
7.52913
7.53997
7.5497
7.5582
7.56535
7.57098
7.57498
7.57717
7.57743
7.57557
7.57145
7.56487
7.55567
7.54364
7.52861
7.5104
7.48886
7.4639
7.43546
7.40365
7.36872
7.33114
7.29167
7.2513
7.21126
7.17286
7.13736
7.10581
7.07896
7.05725
7.04092
7.03003
7.0246
6.7106
6.71535
6.72457
6.73779
6.7544
6.77374
6.79518
6.81817
6.84228
6.86718
6.89262
6.91838
6.9443
6.97018
6.99586
7.02114
7.04587
7.06992
7.09322
7.11573
7.13746
7.15844
7.17869
7.19824
7.21708
7.23519
7.25254
7.26909
7.28481
7.29966
7.3136
7.32656
7.33846
7.34919
7.3586
7.36656
7.37289
7.37745
7.38008
7.38061
7.37887
7.37467
7.36782
7.35812
7.34534
7.32928
7.30971
7.28645
7.25934
7.22829
7.19333
7.1547
7.11287
7.06868
7.02328
6.97814
6.93486
6.89494
6.85963
6.82975
6.80574
6.78778
6.77586
6.76992
6.46335
6.46875
6.47924
6.4942
6.51288
6.53449
6.55828
6.58364
6.61008
6.63726
6.66495
6.69295
6.72108
6.74917
6.777
6.80437
6.8311
6.85705
6.88213
6.90632
6.92964
6.95215
6.97388
6.99487
7.01513
7.03461
7.05329
7.07111
7.08805
7.10408
7.11916
7.13322
7.14617
7.15789
7.16823
7.17701
7.18407
7.18923
7.19232
7.19317
7.19159
7.1874
7.18036
7.17025
7.15683
7.13985
7.11906
7.0942
7.06507
7.0315
6.99346
6.95111
6.90494
6.85584
6.80515
6.7546
6.70612
6.66157
6.62237
6.58945
6.56319
6.54367
6.53078
6.52438
6.22523
6.23138
6.24325
6.26011
6.28102
6.30503
6.33126
6.35902
6.3878
6.41724
6.44715
6.47734
6.50765
6.53789
6.56785
6.59728
6.62597
6.65375
6.68055
6.70634
6.73116
6.75511
6.77825
6.80063
6.82224
6.84305
6.86301
6.88207
6.90019
6.91735
6.93353
6.94867
6.96267
6.97539
6.98666
6.99628
7.00408
7.00987
7.01346
7.01467
7.01332
7.00919
7.00204
6.99163
6.97767
6.95989
6.93799
6.91168
6.88066
6.8447
6.80366
6.75761
6.70702
6.65281
6.59652
6.54018
6.48617
6.43674
6.39356
6.35759
6.32916
6.30818
6.29441
6.2876
5.99579
6.00276
6.01617
6.03511
6.05843
6.08497
6.11374
6.14395
6.17505
6.20672
6.23878
6.27112
6.30357
6.33594
6.36799
6.39945
6.43006
6.45963
6.48806
6.51537
6.54162
6.56692
6.5914
6.6151
6.63802
6.66011
6.68131
6.70155
6.7208
6.73906
6.75632
6.77252
6.78755
6.80128
6.81349
6.82398
6.83254
6.83898
6.84309
6.84471
6.84363
6.83963
6.83245
6.82182
6.80743
6.78896
6.76609
6.73847
6.70572
6.6675
6.62357
6.57387
6.51877
6.45925
6.39702
6.33449
6.27456
6.21997
6.17271
6.13375
6.10325
6.08095
6.06641
6.05924
5.77459
5.78247
5.79759
5.81881
5.84474
5.87397
5.90536
5.93804
5.97145
6.0053
6.03947
6.07389
6.10843
6.1429
6.17703
6.2105
6.24299
6.27428
6.30429
6.33303
6.3606
6.38718
6.41292
6.43788
6.46206
6.4854
6.50781
6.52919
6.54952
6.56883
6.58713
6.60437
6.62044
6.63517
6.64834
6.65971
6.66905
6.67616
6.68083
6.68288
6.68212
6.6783
6.67117
6.6604
6.64568
6.62665
6.60294
6.57415
6.53984
6.49954
6.45285
6.39955
6.3399
6.27486
6.20632
6.13712
6.07081
6.0108
5.95938
5.9175
5.88511
5.86166
5.84647
5.83902
5.56119
5.57011
5.58713
5.61087
5.6396
5.67168
5.70579
5.74097
5.77666
5.81261
5.84881
5.88525
5.92185
5.95839
5.99458
6.03004
6.06438
6.09735
6.12886
6.15893
6.18773
6.2155
6.24243
6.2686
6.294
6.31856
6.34213
6.36461
6.38598
6.40629
6.42559
6.44385
6.46095
6.4767
6.49085
6.50311
6.51324
6.52103
6.52628
6.52879
6.52839
6.52482
6.5178
6.50698
6.49202
6.47254
6.44813
6.41833
6.38263
6.34043
6.29115
6.23436
6.17012
6.09936
6.02412
5.9477
5.87448
5.80873
5.75312
5.70847
5.6744
5.64999
5.63432
5.62667
5.3552
5.36528
5.38443
5.41094
5.44272
5.4778
5.51471
5.55242
5.59033
5.6283
5.66643
5.70484
5.74343
5.78202
5.82027
5.85772
5.89387
5.92848
5.96141
5.99273
6.02265
6.05151
6.07956
6.10688
6.13347
6.15923
6.18394
6.20747
6.22981
6.25107
6.27135
6.2906
6.30872
6.3255
6.34064
6.35381
6.36476
6.37324
6.37907
6.38208
6.38206
6.3788
6.37196
6.36117
6.34606
6.32624
6.30126
6.27061
6.2337
6.18982
6.13815
6.078
6.00918
5.93251
5.85015
5.76586
5.68513
5.61332
5.55351
5.5063
5.47081
5.4457
5.42972
5.42196
5.15623
5.16762
5.18913
5.21871
5.2538
5.29204
5.33183
5.37206
5.41213
5.45202
5.49198
5.53227
5.57282
5.61342
5.65375
5.69319
5.73113
5.76732
5.80161
5.83406
5.865
5.89485
5.92395
5.95239
5.98013
6.00706
6.03291
6.05743
6.08069
6.10284
6.12405
6.14428
6.16342
6.18125
6.1974
6.21149
6.22325
6.23244
6.23887
6.24237
6.24279
6.23987
6.23327
6.22259
6.20742
6.18735
6.16193
6.13058
6.09265
6.04733
5.99353
5.9302
5.85682
5.77408
5.68416
5.59128
5.50229
5.42408
5.36014
5.31064
5.27407
5.24854
5.23243
5.22466
4.96389
4.97677
5.00091
5.03389
5.07257
5.11411
5.15686
5.19963
5.24177
5.28343
5.3251
5.3672
5.40967
5.45225
5.49467
5.53612
5.57583
5.61355
5.64913
5.68261
5.71445
5.74518
5.77527
5.80478
5.83364
5.86175
5.88872
5.91419
5.93828
5.96126
5.98337
6.00456
6.02471
6.0436
6.06079
6.07581
6.08839
6.0983
6.10532
6.10934
6.1102
6.10768
6.10139
6.09089
6.07573
6.05551
6.02977
5.99787
5.95912
5.91261
5.85694
5.79067
5.71282
5.62388
5.52597
5.42364
5.32549
5.24053
5.17262
5.12121
5.08394
5.05829
5.04227
5.03458
4.77784
4.79241
4.81946
4.85622
4.89879
4.94378
4.98954
5.03485
5.07893
5.12222
5.16545
5.2093
5.25363
5.29816
5.3427
5.38621
5.42765
5.46685
5.50366
5.53806
5.57065
5.60216
5.63319
5.66373
5.69368
5.72299
5.75107
5.77744
5.80229
5.82602
5.84899
5.87113
5.89227
5.91226
5.93052
5.94647
5.95988
5.9705
5.97812
5.98264
5.98397
5.98189
5.97597
5.96571
5.95063
5.93034
5.9044
5.87209
5.8327
5.78529
5.72809
5.65917
5.57696
5.48174
5.37542
5.26263
5.15425
5.06219
4.99056
4.93772
4.90021
4.87477
4.85905
4.85155
4.59772
4.61423
4.64448
4.68543
4.73225
4.78077
4.82962
4.87745
4.92333
4.96806
5.01268
5.05823
5.10438
5.1508
5.19754
5.24317
5.28629
5.32694
5.36493
5.4001
5.43332
5.46547
5.49739
5.52894
5.55995
5.59048
5.61971
5.64691
5.67242
5.6968
5.72061
5.74368
5.76579
5.78692
5.8063
5.82317
5.8374
5.84875
5.85694
5.86197
5.86378
5.86218
5.8567
5.84674
5.8318
5.81151
5.78548
5.75288
5.71303
5.66502
5.60665
5.53542
5.449
5.34749
5.23243
5.108
4.98802
4.88856
4.81363
4.75995
4.72268
4.69782
4.6826
4.67538
4.4232
4.44194
4.47567
4.5213
4.57275
4.62485
4.67682
4.72721
4.77469
4.82066
4.86647
4.91368
4.96162
5.00985
5.05888
5.10673
5.15145
5.19351
5.23264
5.26844
5.30213
5.3348
5.36758
5.40012
5.43212
5.46395
5.49438
5.52231
5.54838
5.57332
5.59796
5.62194
5.64499
5.6673
5.68786
5.70563
5.72068
5.73276
5.7415
5.74703
5.74932
5.74825
5.74325
5.73366
5.71889
5.69867
5.67267
5.63989
5.59973
5.55144
5.49229
5.41919
5.32873
5.22098
5.097
4.95952
4.82623
4.71913
4.6415
4.58767
4.5512
4.52726
4.51276
4.50592
4.25394
4.27529
4.31273
4.36362
4.42015
4.47576
4.53091
4.58391
4.63275
4.67973
4.72648
4.77535
4.82507
4.87496
4.92643
4.97666
5.02285
5.06629
5.10657
5.14281
5.17681
5.20982
5.24348
5.277
5.30991
5.34312
5.37484
5.4034
5.42992
5.45528
5.48074
5.50564
5.52956
5.55314
5.57495
5.59357
5.60944
5.62227
5.63151
5.63752
5.64029
5.6398
5.63535
5.62618
5.61162
5.59149
5.56565
5.53277
5.4924
5.44421
5.3847
5.31023
5.2159
5.10206
4.96919
4.817
4.66821
4.55338
4.47389
4.42074
4.38563
4.36297
4.34938
4.34301
4.08961
4.11407
4.15537
4.21218
4.27433
4.33325
4.39163
4.44735
4.49722
4.54499
4.59237
4.64298
4.69448
4.74578
4.79992
4.85274
4.90018
4.94499
4.98648
5.02294
5.05709
5.09023
5.12483
5.15934
5.19301
5.22775
5.26089
5.28992
5.31676
5.34238
5.36872
5.39454
5.41921
5.44417
5.46734
5.48673
5.50342
5.51702
5.52671
5.53317
5.5364
5.53654
5.53272
5.52403
5.50968
5.48965
5.46412
5.4312
5.39068
5.34297
5.28354
5.20834
5.11026
4.99053
4.84921
4.68032
4.51317
4.3908
4.31056
4.25903
4.22587
4.20482
4.19232
4.18648
3.92988
3.95811
4.00325
4.06679
4.13523
4.19702
4.25872
4.31739
4.36785
4.41618
4.46378
4.51631
4.56961
4.62196
4.67908
4.73482
4.78316
4.82936
4.87216
4.90855
4.9427
4.97572
5.01137
5.04691
5.08111
5.1176
5.15237
5.18164
5.20868
5.23435
5.26166
5.28842
5.31367
5.34016
5.36485
5.38484
5.40236
5.41679
5.42684
5.43373
5.43738
5.43823
5.43509
5.42694
5.41281
5.39285
5.36782
5.33488
5.29417
5.2474
5.18847
5.11332
5.01153
4.88617
4.7374
4.54944
4.36017
4.23088
4.15134
4.10244
4.07181
4.05268
4.04142
4.03618
3.77441
3.80735
3.856
3.9273
4.00286
4.06676
4.13191
4.1939
4.24435
4.29307
4.34033
4.3951
4.4503
4.50309
4.56365
4.62276
4.67146
4.71911
4.76347
4.79937
4.83343
4.86596
4.90289
4.93952
4.97388
5.01243
5.04912
5.07831
5.10547
5.13088
5.15933
5.18709
5.21262
5.24087
5.26729
5.28766
5.30602
5.32136
5.33163
5.33894
5.34297
5.34459
5.34221
5.33467
5.32073
5.30078
5.27649
5.24352
5.20246
5.15718
5.09913
5.02503
4.9194
4.78864
4.63426
4.4244
4.20806
4.07314
3.99611
3.95093
3.92338
3.90643
3.89653
3.89195
3.62283
3.66178
3.71319
3.79352
3.87731
3.94209
4.01094
4.07683
4.1264
4.17548
4.22162
4.27915
4.33643
4.38873
4.45341
4.51653
4.56474
4.61397
4.66028
4.69514
4.72908
4.76062
4.79918
4.83703
4.87097
4.91202
4.95105
4.97968
5.00692
5.03167
5.06153
5.09039
5.11574
5.14608
5.17453
5.19489
5.21417
5.23056
5.24085
5.2486
5.2529
5.25541
5.25386
5.24701
5.23321
5.21311
5.18993
5.15687
5.11513
5.07204
5.01512
4.94339
4.83352
4.69746
4.54053
4.30541
4.05541
3.91718
3.84487
3.80449
3.78051
3.76595
3.75751
3.75362
3.47473
3.52158
3.57429
3.66532
3.75878
3.82254
3.89549
3.96621
4.01364
4.06326
4.10718
4.16829
4.22793
4.27837
4.34811
4.41614
4.46261
4.51366
4.56254
4.59553
4.62948
4.65931
4.70007
4.73934
4.77199
4.81617
4.85811
4.88547
4.91288
4.93638
4.96809
4.99819
5.0227
5.0556
5.08648
5.10628
5.12656
5.14422
5.15425
5.16248
5.16691
5.17046
5.16979
5.16374
5.15003
5.12953
5.10795
5.07472
5.03173
4.99175
4.93597
4.8684
4.75352
4.61195
4.45723
4.19282
3.90041
3.7627
3.69765
3.66314
3.64312
3.63112
3.62421
3.62103
3.32964
3.38708
3.43863
3.54254
3.64763
3.70755
3.78525
3.86214
3.90565
3.95638
3.99648
4.06239
4.12486
4.1714
4.24755
4.32174
4.3646
4.4179
4.47023
4.50021
4.53454
4.56162
4.60539
4.64641
4.67649
4.72467
4.77031
4.79538
4.82324
4.84465
4.87886
4.91045
4.93311
4.96922
5.0031
5.0215
5.04297
5.06222
5.07157
5.08042
5.08474
5.08953
5.0898
5.08468
5.07098
5.04969
5.03041
4.99687
4.95176
4.91613
4.86116
4.80019
4.67898
4.53115
4.38568
4.08722
3.74074
3.60962
3.55461
3.52689
3.51115
3.50181
3.49646
3.494
3.18701
3.25885
3.30536
3.42505
3.5444
3.59637
3.67989
3.76488
3.8019
3.85488
3.88887
3.96136
4.02737
4.06712
4.15151
4.23359
4.27017
4.32639
4.38348
4.40877
4.44424
4.46708
4.51504
4.55829
4.58393
4.63735
4.68773
4.70904
4.73796
4.75606
4.79371
4.82714
4.84653
4.88677
4.92441
4.94023
4.9632
4.98447
4.99254
5.00224
5.00614
5.01245
5.01367
5.00966
4.99591
4.9732
4.95724
4.92322
4.87464
4.84513
4.79003
4.73904
4.60951
4.45373
4.32761
3.98949
3.57349
3.45808
3.41599
3.39578
3.38452
3.37788
3.37409
3.37236
3.04618
3.1378
3.1734
3.31273
3.44985
3.48811
3.57904
3.67485
3.7017
3.75901
3.78359
3.86514
3.93577
3.96464
4.05981
4.1521
4.17866
4.23884
4.30248
4.32069
4.35867
4.37512
4.42894
4.47511
4.49371
4.55403
4.61057
4.626
4.65707
4.67014
4.71254
4.74834
4.76245
4.80808
4.85051
4.86206
4.88701
4.91094
4.91687
4.92785
4.93082
4.93905
4.94119
4.93852
4.92467
4.89964
4.88837
4.85369
4.79971
4.77881
4.72175
4.68541
4.5447
4.37787
4.28517
3.90085
3.39498
3.30864
3.28208
3.26986
3.26314
3.2592
3.25696
3.25593
2.90633
3.02521
3.04135
3.20543
3.36502
3.38161
3.48233
3.59264
3.60416
3.66917
3.67969
3.77375
3.85054
3.86289
3.97229
4.07789
4.08925
4.15491
4.2276
4.23535
4.27806
4.28507
4.34703
4.39713
4.40507
4.47457
4.5391
4.5457
4.58074
4.58632
4.63529
4.67422
4.68026
4.73302
4.78159
4.78656
4.81422
4.84165
4.84422
4.85716
4.8585
4.86921
4.87216
4.87112
4.85718
4.82852
4.82385
4.78828
4.7262
4.71744
4.65529
4.64003
4.48419
4.30112
4.26109
3.82296
3.20055
3.16235
3.15321
3.14914
3.14692
3.14562
3.14488
3.14454
)
;

boundaryField
{
    left
    {
        type            zeroGradient;
    }
    right
    {
        type            zeroGradient;
    }
    interface
    {
        type            fixedValue;
        value           nonuniform List<scalar> 
64
(
2.83483
2.97288
2.97288
3.15311
3.32733
3.32733
3.43481
3.55507
3.55507
3.6267
3.6267
3.72953
3.81058
3.81058
3.92961
4.04411
4.04411
4.1137
4.19271
4.19271
4.23961
4.23961
4.3073
4.36012
4.36012
4.43586
4.50571
4.50571
4.54421
4.54421
4.5978
4.63885
4.63885
4.69644
4.74905
4.74905
4.77864
4.80843
4.80843
4.82291
4.82291
4.83527
4.83852
4.83852
4.82458
4.79312
4.79312
4.75702
4.68885
4.68885
4.62157
4.62157
4.45534
4.25983
4.25983
3.78975
3.09008
3.09008
3.09008
3.09008
3.09008
3.09008
3.09008
3.09008
)
;
    }
    bottom
    {
        type            fixedValue;
        value           uniform 10;
    }
    defaultFaces
    {
        type            empty;
    }
}


// ************************************************************************* //
