/*--------------------------------*- C++ -*----------------------------------*\
| =========                 |                                                 |
| \\      /  F ield         | OpenFOAM: The Open Source CFD Toolbox           |
|  \\    /   O peration     | Version:  5.x                                   |
|   \\  /    A nd           | Web:      www.OpenFOAM.org                      |
|    \\/     M anipulation  |                                                 |
\*---------------------------------------------------------------------------*/
FoamFile
{
    version     2.0;
    format      ascii;
    class       volScalarField;
    location    "17";
    object      gradTy;
}
// * * * * * * * * * * * * * * * * * * * * * * * * * * * * * * * * * * * * * //

dimensions      [0 -1 0 1 0 0 0];

internalField   nonuniform List<scalar> 
2048
(
-26.4236
-26.396
-26.3417
-26.262
-26.1592
-26.0358
-25.8945
-25.7382
-25.5697
-25.3915
-25.206
-25.0153
-24.8215
-24.6261
-24.4308
-24.2367
-24.0451
-23.8568
-23.6726
-23.4931
-23.3187
-23.1498
-22.9866
-22.8293
-22.6783
-22.5337
-22.3958
-22.265
-22.1416
-22.0262
-21.9192
-21.8213
-21.7333
-21.6559
-21.5902
-21.5372
-21.4979
-21.4735
-21.4653
-21.4744
-21.5022
-21.55
-21.6189
-21.71
-21.8244
-21.9628
-22.1257
-22.3128
-22.5236
-22.7566
-23.0096
-23.2793
-23.5613
-23.8504
-24.1406
-24.4252
-24.6976
-24.9511
-25.1796
-25.3777
-25.5412
-25.6666
-25.7515
-25.7943
-26.4459
-26.4177
-26.3621
-26.2807
-26.1759
-26.0502
-25.9067
-25.7482
-25.5775
-25.3974
-25.2101
-25.0179
-24.8227
-24.6262
-24.4297
-24.2348
-24.0424
-23.8535
-23.6688
-23.4889
-23.3143
-23.1451
-22.9817
-22.8243
-22.6731
-22.5282
-22.3901
-22.259
-22.1352
-22.0193
-21.9118
-21.8133
-21.7246
-21.6465
-21.58
-21.526
-21.4858
-21.4604
-21.4512
-21.4593
-21.4861
-21.5329
-21.6008
-21.6912
-21.805
-21.9431
-22.106
-22.2937
-22.5056
-22.7405
-22.9962
-23.2693
-23.5555
-23.8495
-24.145
-24.4352
-24.7129
-24.9713
-25.2041
-25.4058
-25.572
-25.6994
-25.7855
-25.829
-26.4887
-26.4591
-26.4011
-26.3164
-26.2076
-26.0776
-25.9296
-25.7668
-25.5922
-25.4084
-25.2179
-25.0227
-24.8249
-24.626
-24.4276
-24.231
-24.0372
-23.8471
-23.6616
-23.481
-23.3059
-23.1363
-22.9726
-22.8148
-22.6632
-22.518
-22.3793
-22.2476
-22.1231
-22.0064
-21.8979
-21.7983
-21.7083
-21.6288
-21.5606
-21.505
-21.463
-21.4357
-21.4246
-21.4307
-21.4556
-21.5004
-21.5666
-21.6555
-21.7681
-21.9055
-22.0684
-22.257
-22.471
-22.7094
-22.9701
-23.2498
-23.5442
-23.8476
-24.1534
-24.4541
-24.7421
-25.01
-25.251
-25.4595
-25.6309
-25.7619
-25.8504
-25.895
-26.5499
-26.5185
-26.4569
-26.3672
-26.2525
-26.1162
-25.9619
-25.7929
-25.6126
-25.4236
-25.2284
-25.0292
-24.8277
-24.6256
-24.4244
-24.2254
-24.0296
-23.838
-23.6512
-23.4698
-23.2939
-23.1239
-22.9597
-22.8015
-22.6494
-22.5036
-22.3643
-22.2317
-22.1062
-21.9883
-21.8785
-21.7773
-21.6854
-21.6039
-21.5335
-21.4755
-21.4309
-21.401
-21.3871
-21.3905
-21.4125
-21.4547
-21.5183
-21.6048
-21.7156
-21.8519
-22.0146
-22.2043
-22.4212
-22.6643
-22.9319
-23.221
-23.5271
-23.8441
-24.1648
-24.481
-24.784
-25.0656
-25.3184
-25.5364
-25.7151
-25.8512
-25.9428
-25.9889
-26.6283
-26.5944
-26.5279
-26.4317
-26.3092
-26.1646
-26.0019
-25.8251
-25.6375
-25.442
-25.2411
-25.0368
-24.8308
-24.6247
-24.42
-24.2179
-24.0197
-23.8261
-23.6379
-23.4554
-23.2789
-23.1083
-22.9436
-22.7849
-22.6322
-22.4857
-22.3455
-22.212
-22.0853
-21.966
-21.8544
-21.7512
-21.6571
-21.573
-21.4998
-21.4387
-21.3909
-21.3577
-21.3403
-21.3402
-21.3587
-21.3973
-21.4575
-21.541
-21.6493
-21.7839
-21.9461
-22.1369
-22.3568
-22.6056
-22.8819
-23.1828
-23.5038
-23.8385
-24.1787
-24.515
-24.8376
-25.137
-25.4049
-25.6349
-25.8224
-25.9647
-26.06
-26.1079
-26.7229
-26.6857
-26.6131
-26.5084
-26.3762
-26.2212
-26.0484
-25.8621
-25.6659
-25.4629
-25.2553
-25.045
-24.8338
-24.623
-24.4142
-24.2086
-24.0075
-23.8117
-23.6219
-23.4383
-23.261
-23.0899
-22.9248
-22.7656
-22.6123
-22.465
-22.3238
-22.1891
-22.0611
-21.9401
-21.8266
-21.721
-21.6242
-21.537
-21.4605
-21.3959
-21.3443
-21.3071
-21.2856
-21.2813
-21.2955
-21.3299
-21.386
-21.4657
-21.5707
-21.7029
-21.864
-22.0555
-22.2787
-22.5337
-22.8199
-23.1347
-23.4737
-23.8299
-24.1942
-24.5555
-24.9023
-25.2234
-25.5095
-25.7536
-25.9513
-26.1003
-26.1996
-26.2493
-26.8331
-26.7917
-26.7114
-26.5964
-26.4523
-26.2849
-26.1001
-25.9027
-25.6968
-25.4852
-25.2702
-25.0534
-24.8363
-24.6204
-24.4069
-24.1974
-23.9931
-23.7948
-23.6033
-23.4186
-23.2406
-23.0691
-22.9036
-22.7439
-22.59
-22.4418
-22.2996
-22.1637
-22.0342
-21.9114
-21.7957
-21.6875
-21.5877
-21.497
-21.4167
-21.3479
-21.2921
-21.2504
-21.2243
-21.2151
-21.2245
-21.2539
-21.3052
-21.3802
-21.4812
-21.6102
-21.7694
-21.9611
-22.187
-22.4485
-22.7454
-23.076
-23.4359
-23.8175
-24.2105
-24.6019
-24.9777
-25.3245
-25.6317
-25.8916
-26.1003
-26.2562
-26.3594
-26.4108
-26.9583
-26.912
-26.8223
-26.6947
-26.5362
-26.3543
-26.1555
-25.9457
-25.729
-25.5082
-25.2853
-25.0616
-24.8383
-24.6166
-24.3981
-24.1842
-23.9763
-23.7754
-23.5821
-23.3965
-23.2181
-23.0463
-22.8806
-22.7205
-22.5659
-22.4168
-22.2735
-22.1362
-22.0052
-21.8805
-21.7625
-21.6515
-21.5483
-21.4538
-21.3692
-21.2959
-21.2352
-21.1886
-21.1573
-21.1429
-21.1468
-21.1706
-21.2163
-21.286
-21.382
-21.5068
-21.6633
-21.8542
-22.0823
-22.3499
-22.658
-23.0058
-23.3891
-23.8002
-24.227
-24.6538
-25.0637
-25.4404
-25.7713
-26.0484
-26.2682
-26.4307
-26.5374
-26.5901
-27.0986
-27.0461
-26.945
-26.8023
-26.627
-26.428
-26.2135
-25.9899
-25.7616
-25.5312
-25.3002
-25.0693
-24.8394
-24.6117
-24.3876
-24.1689
-23.9571
-23.7535
-23.5586
-23.3721
-23.1936
-23.0218
-22.8561
-22.6956
-22.5404
-22.3903
-22.2459
-22.1073
-21.9747
-21.8481
-21.7276
-21.6136
-21.5067
-21.408
-21.3188
-21.2405
-21.1747
-21.1227
-21.0859
-21.0657
-21.0637
-21.0813
-21.1208
-21.1842
-21.2744
-21.394
-21.5466
-21.7355
-21.9647
-22.2376
-22.5569
-22.9229
-23.3323
-23.7768
-24.2426
-24.711
-25.1606
-25.5715
-25.9286
-26.2236
-26.4542
-26.6223
-26.7313
-26.7849
-27.2539
-27.1939
-27.0791
-26.9185
-26.7233
-26.5048
-26.2727
-26.0341
-25.7937
-25.5535
-25.3143
-25.0762
-24.8397
-24.6055
-24.3754
-24.1515
-23.9355
-23.7291
-23.5326
-23.3457
-23.1673
-22.996
-22.8305
-22.6698
-22.5138
-22.3628
-22.2171
-22.0771
-21.943
-21.8146
-21.6917
-21.5745
-21.4637
-21.3604
-21.2662
-21.1825
-21.1112
-21.0535
-21.0109
-20.9846
-20.9762
-20.9871
-21.0196
-21.0761
-21.1595
-21.2729
-21.4202
-21.6058
-21.8346
-22.1116
-22.4414
-22.8261
-23.2637
-23.7458
-24.2566
-24.7732
-25.2689
-25.7185
-26.104
-26.4171
-26.6573
-26.8293
-26.9393
-26.9928
-27.4246
-27.3556
-27.2243
-27.0423
-26.824
-26.5833
-26.3316
-26.0771
-25.8242
-25.5744
-25.3274
-25.0823
-24.839
-24.5981
-24.3615
-24.1318
-23.9114
-23.702
-23.5042
-23.3173
-23.1397
-22.9692
-22.8042
-22.6434
-22.4866
-22.3344
-22.1874
-22.0461
-21.9107
-21.7805
-21.6552
-21.5347
-21.4198
-21.3116
-21.2119
-21.1226
-21.0454
-20.9818
-20.9331
-20.9005
-20.8853
-20.8891
-20.9141
-20.9629
-21.0385
-21.1445
-21.2852
-21.4658
-21.6923
-21.9717
-22.3107
-22.7141
-23.1818
-23.7057
-24.2679
-24.8405
-25.3894
-25.8826
-26.2986
-26.6291
-26.8768
-27.0502
-27.1591
-27.2114
-27.6111
-27.5312
-27.3802
-27.1731
-26.9279
-26.6621
-26.389
-26.1177
-25.8524
-25.5935
-25.3393
-25.0876
-24.8375
-24.5896
-24.3459
-24.1099
-23.8846
-23.6723
-23.4734
-23.287
-23.1108
-22.9418
-22.7775
-22.6167
-22.4591
-22.3055
-22.157
-22.0146
-21.8779
-21.7462
-21.6186
-21.4948
-21.3755
-21.262
-21.1564
-21.0611
-20.9778
-20.9082
-20.8533
-20.8142
-20.7919
-20.7882
-20.8051
-20.8454
-20.9125
-21.01
-21.1427
-21.3163
-21.5384
-21.8177
-22.164
-22.5853
-23.0845
-23.6544
-24.2752
-24.9128
-25.5234
-26.0657
-26.5134
-26.8597
-27.1117
-27.2832
-27.3885
-27.4383
-27.814
-27.7212
-27.5467
-27.3098
-27.0337
-26.7397
-26.4434
-26.1547
-25.8774
-25.6104
-25.3499
-25.0921
-24.8354
-24.58
-24.3287
-24.0856
-23.855
-23.6396
-23.44
-23.2549
-23.0809
-22.9141
-22.751
-22.5902
-22.4316
-22.2763
-22.1262
-21.9826
-21.8451
-21.7122
-21.5825
-21.4553
-21.3313
-21.2121
-21.1003
-20.9986
-20.909
-20.8332
-20.7721
-20.7264
-20.6969
-20.6852
-20.6936
-20.7249
-20.7826
-20.8705
-20.9937
-21.1585
-21.3735
-21.6498
-22.0005
-22.4382
-22.9696
-23.5898
-24.277
-24.9903
-25.6727
-26.2698
-26.7502
-27.1093
-27.3612
-27.5266
-27.625
-27.6706
-28.0343
-27.9258
-27.7234
-27.4517
-27.14
-26.8145
-26.4934
-26.1869
-25.8984
-25.6247
-25.3592
-25.0962
-24.8329
-24.5698
-24.3099
-24.0588
-23.8225
-23.604
-23.4041
-23.221
-23.0503
-22.8865
-22.7251
-22.5643
-22.4043
-22.2469
-22.0949
-21.9502
-21.8124
-21.6788
-21.5472
-21.4166
-21.2877
-21.1623
-21.0437
-20.9353
-20.8394
-20.7573
-20.69
-20.6378
-20.6011
-20.5812
-20.5804
-20.6021
-20.6498
-20.7272
-20.8394
-20.9933
-21.1985
-21.4681
-21.8197
-22.2711
-22.8348
-23.509
-24.2715
-25.0731
-25.8394
-26.4979
-27.0107
-27.3783
-27.6243
-27.7783
-27.8662
-27.9057
-28.273
-28.1457
-27.9104
-27.5978
-27.2451
-26.8851
-26.5374
-26.2131
-25.9147
-25.6362
-25.3676
-25.1001
-24.8305
-24.5592
-24.2896
-24.0294
-23.7867
-23.5651
-23.3654
-23.1855
-23.0193
-22.8595
-22.7001
-22.5392
-22.3776
-22.2174
-22.063
-21.9176
-21.78
-21.6464
-21.5131
-21.3791
-21.245
-21.113
-20.987
-20.8717
-20.7692
-20.681
-20.6077
-20.5491
-20.5051
-20.4766
-20.4664
-20.478
-20.515
-20.5811
-20.6811
-20.8222
-21.0145
-21.2733
-21.6209
-22.0824
-22.6774
-23.4091
-24.2562
-25.1613
-26.0266
-26.7536
-27.2973
-27.667
-27.8996
-28.0361
-28.1093
-28.1407
-28.5312
-28.3815
-28.1074
-27.7469
-27.3475
-26.9496
-26.574
-26.232
-25.9256
-25.6449
-25.3753
-25.1043
-24.8286
-24.5487
-24.2679
-23.9972
-23.7476
-23.5228
-23.3236
-23.1482
-22.9882
-22.8335
-22.6765
-22.5155
-22.3517
-22.1878
-22.0304
-21.8845
-21.7481
-21.6153
-21.4807
-21.3433
-21.2038
-21.0643
-20.9303
-20.8077
-20.6987
-20.6044
-20.5254
-20.4608
-20.4095
-20.3724
-20.3523
-20.3533
-20.3793
-20.4335
-20.52
-20.6463
-20.8228
-21.066
-21.404
-21.8704
-22.4947
-23.2865
-24.228
-25.2552
-26.238
-27.0413
-27.6124
-27.9753
-28.1857
-28.2977
-28.3518
-28.373
-28.8104
-28.6339
-28.3144
-27.8979
-27.4452
-27.0065
-26.6019
-26.2424
-25.9305
-25.6509
-25.3829
-25.1094
-24.8277
-24.5389
-24.2451
-23.9618
-23.7048
-23.4767
-23.2787
-23.1093
-22.9573
-22.8092
-22.6548
-22.4933
-22.327
-22.1582
-21.9968
-21.8509
-21.7168
-21.5859
-21.4504
-21.3095
-21.1644
-21.0165
-20.8737
-20.7436
-20.628
-20.5279
-20.4437
-20.3734
-20.3151
-20.269
-20.2385
-20.2287
-20.2435
-20.2852
-20.3572
-20.4674
-20.625
-20.8474
-21.1689
-21.6336
-22.2838
-23.1369
-24.1826
-25.3545
-26.4789
-27.3665
-27.9586
-28.3032
-28.4805
-28.5604
-28.5908
-28.5998
-29.1122
-28.9035
-28.5316
-28.0495
-27.5359
-27.0542
-26.6196
-26.2429
-25.9289
-25.6543
-25.3912
-25.1158
-24.8282
-24.5305
-24.2211
-23.9228
-23.6583
-23.4268
-23.23
-23.0686
-22.9269
-22.7873
-22.6354
-22.4731
-22.3039
-22.1283
-21.9615
-21.8164
-21.6863
-21.5588
-21.4224
-21.278
-21.1273
-20.9699
-20.817
-20.6795
-20.5574
-20.4516
-20.3628
-20.2875
-20.2225
-20.167
-20.1257
-20.1046
-20.1082
-20.1374
-20.1941
-20.2868
-20.4231
-20.6186
-20.9157
-21.3707
-22.0422
-22.956
-24.1144
-25.4588
-26.7559
-27.7355
-28.3385
-28.6497
-28.7817
-28.8214
-28.8237
-28.8184
-29.4384
-29.1907
-28.7591
-28.2001
-27.617
-27.0914
-26.6261
-26.2322
-25.9202
-25.6555
-25.4013
-25.1242
-24.8304
-24.5245
-24.1963
-23.8794
-23.6077
-23.3728
-23.1771
-23.0261
-22.8975
-22.7684
-22.6187
-22.455
-22.2829
-22.0982
-21.924
-21.7807
-21.6566
-21.5344
-21.3972
-21.249
-21.0929
-20.9245
-20.76
-20.6154
-20.487
-20.3755
-20.2831
-20.2035
-20.1321
-20.067
-20.0141
-19.9815
-19.9742
-19.9911
-20.0315
-20.1062
-20.2192
-20.3815
-20.6451
-21.0801
-21.7675
-22.739
-24.0158
-25.5671
-27.0779
-28.1563
-28.7543
-29.0136
-29.0864
-29.0779
-29.0478
-29.0266
-29.7913
-29.4957
-28.9977
-28.3483
-27.6851
-27.1171
-26.6206
-26.2085
-25.9042
-25.6548
-25.4148
-25.135
-24.8346
-24.5223
-24.1706
-23.8305
-23.5534
-23.3147
-23.1191
-22.9818
-22.8695
-22.7538
-22.6051
-22.4391
-22.2648
-22.0677
-21.883
-21.7434
-21.6279
-21.5135
-21.3748
-21.2225
-21.0621
-20.8805
-20.7022
-20.5513
-20.4169
-20.2996
-20.2047
-20.1218
-20.0446
-19.9692
-19.9041
-19.8596
-19.8421
-19.8473
-19.8704
-19.9271
-20.0161
-20.138
-20.3581
-20.7607
-21.4579
-22.4813
-23.8764
-25.6775
-27.4568
-28.6377
-29.2079
-29.3923
-29.3914
-29.3267
-29.2608
-29.2223
-30.1732
-29.8179
-29.2488
-28.492
-27.7359
-27.1308
-26.6026
-26.1696
-25.8805
-25.6528
-25.4336
-25.1484
-24.8404
-24.5262
-24.1443
-23.7743
-23.4956
-23.2526
-23.0549
-22.9357
-22.8431
-22.7448
-22.5947
-22.4252
-22.251
-22.0367
-21.837
-21.7042
-21.6003
-21.4972
-21.3555
-21.1984
-21.0358
-20.8379
-20.6428
-20.4876
-20.3473
-20.2236
-20.1279
-20.0427
-19.9607
-19.8742
-19.7957
-19.7389
-19.7123
-19.7071
-19.7113
-19.751
-19.8168
-19.8902
-20.056
-20.4107
-21.1126
-22.1787
-23.6822
-25.7865
-27.909
-29.19
-29.6998
-29.7825
-29.6928
-29.565
-29.4603
-29.4036
-30.5874
-30.1556
-29.5146
-28.6295
-27.7638
-27.1333
-26.5722
-26.1126
-25.8494
-25.6497
-25.4607
-25.1643
-24.8469
-24.5392
-24.1175
-23.708
-23.4354
-23.1869
-22.9828
-22.8879
-22.8187
-22.7433
-22.5875
-22.4125
-22.2432
-22.0051
-21.7838
-21.6627
-21.5737
-21.4869
-21.3392
-21.1762
-21.0155
-20.7968
-20.5805
-20.4247
-20.2784
-20.1471
-20.053
-19.9667
-19.881
-19.7822
-19.6891
-19.6193
-19.5851
-19.5717
-19.5542
-19.579
-19.625
-19.6406
-19.7409
-20.0282
-20.7321
-21.8291
-23.4141
-25.8883
-28.4571
-29.8243
-30.2293
-30.1796
-29.9863
-29.7897
-29.6445
-29.5693
-31.038
-30.505
-29.7996
-28.7585
-27.7611
-27.1268
-26.5303
-26.0335
-25.8115
-25.6454
-25.5
-25.1822
-24.8519
-24.5659
-24.0904
-23.6274
-23.3747
-23.1185
-22.9
-22.839
-22.7962
-22.7519
-22.583
-22.3997
-22.2445
-21.9727
-21.7204
-21.6189
-21.548
-21.4847
-21.3255
-21.1547
-21.0034
-20.7571
-20.5133
-20.3632
-20.2107
-20.0692
-19.9804
-19.8939
-19.8065
-19.6935
-19.5843
-19.5004
-19.461
-19.4426
-19.3987
-19.4117
-19.4453
-19.391
-19.4159
-19.61
-20.3185
-21.4331
-23.0461
-25.9739
-29.1321
-30.5521
-30.7931
-30.5777
-30.2675
-29.9982
-29.8119
-29.7182
-31.5302
-30.8593
-30.1107
-28.8769
-27.7168
-27.1162
-26.4787
-25.9262
-25.7689
-25.6389
-25.5574
-25.2008
-24.8517
-24.6132
-24.0629
-23.5262
-23.317
-23.0487
-22.8028
-22.7901
-22.7748
-22.7744
-22.5805
-22.3843
-22.259
-21.9396
-21.6424
-21.5735
-21.5226
-21.4936
-21.3138
-21.1319
-21.0027
-20.7189
-20.4384
-20.3047
-20.1446
-19.9887
-19.9107
-19.8244
-19.7382
-19.6083
-19.4811
-19.3817
-19.3398
-19.3221
-19.2434
-19.2495
-19.2835
-19.1432
-19.0855
-19.1508
-19.8761
-20.9967
-22.5433
-26.0296
-29.9771
-31.3839
-31.3851
-30.9695
-30.5317
-30.1881
-29.9613
-29.8498
-32.0715
-31.2066
-30.459
-28.9824
-27.6158
-27.1097
-26.4203
-25.7821
-25.7251
-25.6276
-25.6411
-25.2179
-24.84
-24.691
-24.0353
-23.3951
-23.2679
-22.9796
-22.6854
-22.7434
-22.7528
-22.8162
-22.5783
-22.3621
-22.2931
-21.9055
-21.5439
-21.5282
-21.496
-21.5178
-21.3029
-21.1046
-21.0182
-20.682
-20.3513
-20.2515
-20.0809
-19.9035
-19.8449
-19.7579
-19.6774
-19.5265
-19.3794
-19.2621
-19.2214
-19.2132
-19.0861
-19.0913
-19.147
-18.8975
-18.7564
-18.6422
-19.4111
-20.5339
-21.859
-26.0348
-31.0517
-32.3275
-31.9955
-31.3466
-30.7746
-30.3573
-30.092
-29.9639
-32.6723
-31.5279
-30.8621
-29.0727
-27.4367
-27.1207
-26.3594
-25.5886
-25.6869
-25.6063
-25.7629
-25.2299
-24.807
-24.8139
-24.0073
-23.2206
-23.2362
-22.9139
-22.5393
-22.7034
-22.7266
-22.8851
-22.5741
-22.327
-22.3563
-21.8704
-21.4165
-21.4862
-21.4654
-21.5637
-21.2908
-21.0679
-21.057
-20.6463
-20.2459
-20.2073
-20.0206
-19.8107
-19.7847
-19.6938
-19.626
-19.4479
-19.2793
-19.1403
-19.105
-19.1204
-18.9229
-18.9353
-19.0457
-18.6522
-18.4388
-18.071
-18.932
-20.0712
-20.9311
-25.9593
-32.4383
-33.3851
-32.6102
-31.7001
-30.9921
-30.5046
-30.2037
-30.0606
-33.3476
-31.7937
-31.346
-29.1455
-27.1498
-27.1701
-26.3019
-25.3272
-25.6659
-25.5653
-25.9399
-25.2318
-24.7379
-25.0026
-23.9789
-22.9835
-23.2353
-22.8556
-22.3524
-22.6774
-22.6898
-22.9921
-22.5646
-22.2692
-22.4619
-21.834
-21.2488
-21.454
-21.4257
-21.64
-21.2749
-21.0142
-21.1291
-20.6111
-20.1134
-20.178
-19.965
-19.7059
-19.7327
-19.6304
-19.5865
-19.3719
-19.181
-19.0147
-18.9893
-19.0502
-18.7485
-18.7775
-18.9929
-18.4019
-18.1482
-17.4169
-18.4491
-19.6521
-19.6779
-25.7603
-34.2496
-34.5487
-33.2103
-32.0205
-31.1806
-30.6289
-30.2966
-30.1405
-34.1181
-31.9599
-31.9491
-29.1987
-26.7138
-27.2881
-26.2552
-24.972
-25.6808
-25.4881
-26.1958
-25.2165
-24.6112
-25.2864
-23.9494
-22.6567
-23.285
-22.8097
-22.1073
-22.6774
-22.6316
-23.1528
-22.545
-22.1748
-22.6286
-21.7957
-21.025
-21.4417
-21.3685
-21.7595
-21.2514
-20.9328
-21.2487
-20.5759
-19.9417
-20.1721
-19.9155
-19.5826
-19.6933
-19.5652
-19.5624
-19.2974
-19.085
-18.8833
-18.8717
-19.0122
-18.5552
-18.6118
-19.007
-18.1356
-17.9083
-16.6498
-17.9733
-19.3445
-17.9933
-25.3772
-36.6388
-35.7944
-33.7729
-32.2989
-31.3377
-30.7301
-30.3713
-30.2042
-35.0135
-31.9619
-32.7267
-29.2301
-26.0725
-27.5185
-26.2289
-24.4863
-25.7607
-25.3486
-26.5642
-25.1745
-24.3963
-25.7052
-23.9179
-22.2034
-23.4132
-22.7824
-21.7796
-22.7223
-22.5345
-23.3893
-22.5089
-22.0243
-22.8823
-21.7546
-20.724
-21.4657
-21.2799
-21.9396
-21.2151
-20.8086
-21.4355
-20.5395
-19.714
-20.2022
-19.8737
-19.4323
-19.6731
-19.4937
-19.5587
-19.2222
-18.9923
-18.7437
-18.7482
-19.0195
-18.3327
-18.4286
-19.1133
-17.8339
-17.754
-15.7268
-17.5146
-19.2486
-15.7412
-24.7269
-39.8117
-37.0738
-34.271
-32.5274
-31.4619
-30.8085
-30.4285
-30.2529
-36.0746
-31.7087
-33.7558
-29.2372
-25.1504
-27.9219
-26.234
-23.8195
-25.9498
-25.1065
-27.0911
-25.0934
-24.051
-26.3133
-23.883
-21.5739
-23.659
-22.7813
-21.3359
-22.8409
-22.372
-23.7319
-22.4479
-21.7904
-23.2579
-21.7087
-20.3172
-21.5506
-21.1387
-22.2047
-21.1591
-20.6206
-21.7162
-20.4999
-19.4083
-20.2856
-19.8414
-19.2429
-19.6819
-19.409
-19.582
-19.1433
-18.9049
-18.5932
-18.6123
-19.0907
-18.0675
-18.214
-19.3466
-17.4654
-17.7365
-14.5883
-17.0795
-19.507
-12.7487
-23.6963
-44.0418
-38.304
-34.6766
-32.7002
-31.5528
-30.865
-30.4694
-30.2875
-37.3573
-31.0741
-35.1425
-29.2175
-23.848
-28.5808
-26.2835
-22.9032
-26.3125
-24.702
-27.8392
-24.9573
-23.5183
-27.1825
-23.8422
-20.7024
-24.0756
-22.8151
-20.7307
-23.0752
-22.105
-24.2216
-22.3512
-21.4365
-23.8021
-21.6552
-19.7673
-21.7327
-20.9137
-22.5879
-21.0747
-20.3408
-22.1265
-20.4544
-18.9952
-20.4463
-19.82
-18.9981
-19.7338
-19.3007
-19.6417
-19.0556
-18.8259
-18.4289
-18.4543
-19.2509
-17.7422
-17.9484
-19.7545
-16.9814
-17.929
-13.1536
-16.6674
-20.3159
-8.79977
-22.1346
-49.6875
-39.3538
-34.9631
-32.8145
-31.6114
-30.901
-30.4953
-30.3094
-38.9367
-29.8874
-37.0288
-29.1674
-22.0357
-29.6048
-26.3915
-21.6461
-26.9403
-24.0495
-28.8921
-24.7463
-22.7228
-28.4067
-23.7919
-19.5035
-24.7336
-22.8937
-19.9036
-23.4846
-21.6769
-24.9135
-22.2051
-20.9142
-24.5757
-21.5896
-19.0252
-22.0625
-20.5588
-23.133
-20.9501
-19.9319
-22.7128
-20.399
-18.4368
-20.7164
-19.8105
-18.6766
-19.849
-19.1539
-19.7509
-18.9518
-18.7595
-18.2481
-18.26
-19.5333
-17.3348
-17.6049
-20.4013
-16.3106
-18.4334
-11.3165
-16.2662
-21.9386
-3.62763
-19.8439
-57.2128
-40.0274
-35.1109
-32.8703
-31.6396
-30.9182
-30.5076
-30.3198
)
;

boundaryField
{
    left
    {
        type            calculated;
        value           nonuniform List<scalar> 
32
(
-26.4236
-26.4459
-26.4887
-26.5499
-26.6283
-26.7229
-26.8331
-26.9583
-27.0986
-27.2539
-27.4246
-27.6111
-27.814
-28.0343
-28.273
-28.5312
-28.8104
-29.1122
-29.4384
-29.7913
-30.1732
-30.5874
-31.038
-31.5302
-32.0715
-32.6723
-33.3476
-34.1181
-35.0135
-36.0746
-37.3573
-38.9367
)
;
    }
    right
    {
        type            calculated;
        value           nonuniform List<scalar> 
32
(
-25.7943
-25.829
-25.895
-25.9889
-26.1079
-26.2493
-26.4108
-26.5901
-26.7849
-26.9928
-27.2114
-27.4383
-27.6706
-27.9057
-28.1407
-28.373
-28.5998
-28.8184
-29.0266
-29.2223
-29.4036
-29.5693
-29.7182
-29.8498
-29.9639
-30.0606
-30.1405
-30.2042
-30.2529
-30.2875
-30.3094
-30.3198
)
;
    }
    interface
    {
        type            calculated;
        value           nonuniform List<scalar> 
64
(
-39.8112
-29.1316
-38.1172
-29.1342
-20.9838
-30.2237
-26.4621
-20.9193
-27.3337
-23.6487
-29.5067
-24.6192
-22.2487
-29.1208
-23.7639
-18.8102
-25.133
-22.9454
-19.4259
-23.7418
-21.4142
-25.3177
-22.1178
-20.6041
-25.0284
-21.5531
-18.5991
-22.2717
-20.3422
-23.4522
-20.8762
-19.6899
-23.0565
-20.3682
-18.116
-20.8834
-19.8088
-18.4937
-19.9252
-19.0687
-19.8197
-18.8948
-18.7302
-18.1531
-18.1517
-19.7098
-17.1076
-17.4097
-20.7936
-15.9178
-18.7783
-10.2823
-16.0659
-22.9908
-0.699024
-18.4882
-61.5106
-40.2411
-35.1482
-32.8839
-31.6464
-30.9224
-30.5106
-30.3222
)
;
    }
    bottom
    {
        type            calculated;
        value           nonuniform List<scalar> 
64
(
-26.4178
-26.3904
-26.3363
-26.2571
-26.1549
-26.032
-25.8914
-25.7356
-25.5676
-25.3899
-25.2049
-25.0147
-24.8212
-24.6261
-24.4311
-24.2372
-24.0458
-23.8577
-23.6736
-23.4942
-23.3198
-23.151
-22.9878
-22.8306
-22.6796
-22.5351
-22.3973
-22.2666
-22.1433
-22.028
-21.9211
-21.8234
-21.7355
-21.6584
-21.5929
-21.5401
-21.501
-21.4769
-21.4689
-21.4784
-21.5064
-21.5544
-21.6236
-21.7149
-21.8295
-21.968
-22.1308
-22.3178
-22.5283
-22.7608
-23.0131
-23.2818
-23.5627
-23.8506
-24.1394
-24.4226
-24.6936
-24.9458
-25.1732
-25.3704
-25.5332
-25.6581
-25.7426
-25.7853
)
;
    }
    defaultFaces
    {
        type            empty;
    }
}


// ************************************************************************* //
